/*--------------------------------*- C++ -*----------------------------------*\
| =========                 |                                                 |
| \\      /  F ield         | OpenFOAM: The Open Source CFD Toolbox           |
|  \\    /   O peration     | Version:  2206                                  |
|   \\  /    A nd           | Website:  www.openfoam.com                      |
|    \\/     M anipulation  |                                                 |
\*---------------------------------------------------------------------------*/
FoamFile
{
    version     2.0;
    format      ascii;
    arch        "LSB;label=32;scalar=64";
    class       volScalarField;
    location    "1";
    object      alpha.water;
}
// * * * * * * * * * * * * * * * * * * * * * * * * * * * * * * * * * * * * * //

dimensions      [0 0 0 0 0 0 0];

internalField   nonuniform List<scalar> 
2268
(
0.999999
1
1
1
1
1
1
1
1
1
0.999746
0.994976
0.984399
0.982472
0.989755
0.989739
0.982384
0.977745
0.977745
0.978135
0.995122
0.999803
0.999824
1
1
1
1
1
1
1
1
1
1
0.996519
0.954978
0.950813
0.950828
0.954411
0.954497
0.979718
0.98991
0.986606
0.99228
0.990452
0.997026
0.999824
1
1
1
1
1
1
1
1
1
1
0.999997
0.985781
0.950823
0.950813
0.950823
0.972829
1
1
1
1
1
0.999923
0.999802
1
1
1
1
1
1
1
1
1
1
1
1
0.991651
0.978797
0.987406
1
1
1
1
1
1
1
0.999871
1
1
1
1
1
1
1
1
1
1
1
1
0.999999
0.999994
1
1
1
1
1
1
1
1
0.999969
1
1
1
1
0.999999
1
1
1
1
1
1
0.999999
1
1
1
1
1
1
1
1
1
0.999998
0.999998
1
1
1
0.999949
0.999843
0.999896
0.999998
1
1
1
1
1
1
1
1
1
0.999999
0.999998
0.999995
0.999522
0.999838
0.999998
0.999997
1
1
1
0.999969
0.999748
0.999748
0.999935
1
0.999997
0.999979
0.999984
1
1
1
1
1
0.999973
0.999957
0.996516
0.987483
0.989347
0.997576
0.999997
0.573665
0.59475
0.599454
0.599511
0.599514
0.59951
0.534195
0.630993
0.89165
0.891694
0.891715
0.891715
0.891715
0.89171
0.88689
0.785326
0.815571
0.815637
0.815637
0.57929
0.593634
0.599062
0.599454
0.599511
0.599512
0.55873
0.557362
0.671408
0.890751
0.891614
0.891715
0.89171
0.835123
0.364677
0.349749
0.670118
0.815633
0.815637
0.578895
0.530909
0.334498
0.366605
0.533609
0.599496
0.596965
0.594453
0.524055
0.504701
0.809445
0.891576
0.830771
0.413391
0.283288
0.283412
0.34975
0.787709
0.815653
0.562558
0.0966144
0.0294603
0.0296011
0.05476
0.206775
0.593274
0.591615
0.455865
0.454705
0.545172
0.889279
0.708789
0.283288
0.2832
0.283288
0.631533
0.815638
0.815713
0.0814168
0.0295178
0.0294875
0.0294875
0.0318096
0.0611373
0.21739
0.262446
0.461598
0.452605
0.454705
0.735717
0.725694
0.2832
0.2832
0.2832
0.678771
0.815713
0.815757
0.0300664
0.0297921
0.0295178
0.0400909
0.294138
0.585171
0.555944
0.427951
0.676626
0.748426
0.501619
0.478623
0.669109
0.292106
0.2832
0.283806
0.731897
0.815757
0.815764
0.103455
0.0300664
0.0333542
0.22099
0.79291
0.863476
0.863835
0.863974
0.864507
0.864735
0.822361
0.473007
0.287919
0.284472
0.283806
0.332241
0.809939
0.815787
0.815764
0.37542
0.0696358
0.0602857
0.537512
0.857245
0.862741
0.863773
0.864507
0.864735
0.865096
0.865477
0.82002
0.554953
0.286856
0.284477
0.580052
0.734176
0.723916
0.815764
1
1
1
0.999999
0.99995
0.999894
0.999957
0.999994
0.99991
0.971838
0.86514
0.79046
0.813874
0.886831
0.935454
0.946622
0.972174
0.984973
0.980967
0.979005
0.982696
0.995062
0.999977
1
1
1
1
1
1
0.999996
0.998414
0.873511
0.5687
0.499847
0.502869
0.519299
0.559126
0.738164
0.869477
0.841621
0.81721
0.971243
0.998726
0.998913
0.998945
0.999955
0.992989
0.996004
0.999959
1
1
0.999998
0.995696
0.707864
0.441027
0.449599
0.534964
0.614634
0.615503
0.614634
0.57155
0.221311
0.121452
0.200698
0.560778
0.898527
0.998726
0.999409
0.999947
0.993044
0.997689
0.999924
0.999998
0.999953
0.999086
0.951294
0.54479
0.38106
0.499945
0.52245
0.467244
0.126338
0.0945596
0.0863199
0.078274
0.0765196
0.0774663
0.0790345
0.25759
0.798516
0.906549
0.740007
0.993222
0.999799
0.999898
0.999949
0.999042
0.953234
0.533938
0.276564
0.145034
0.0811519
0.0791817
0.0736181
0.0721479
0.0721479
0.0723155
0.0741244
0.0927499
0.106362
0.106097
0.0933567
0.0922924
0.305096
0.377778
0.976536
0.999757
0.99984
0.998772
0.86413
0.194555
0.00994938
0.0255595
0.103008
0.131425
0.131418
0.131424
0.1036
0.0759372
0.107617
0.109281
0.0981813
0.0814213
0.0721257
0.0794195
0.0935827
0.0430334
0.028941
0.948462
0.999617
0.998006
0.837724
0.202146
0.00518733
0.00104194
0.000490953
0.0358263
0.120543
0.131426
0.129515
0.125699
0.118807
0.0726598
0.0328599
0.0105588
0.000729106
0.000614444
0.000416297
0.0223768
0.0590808
0.0208493
0.874043
0.997267
0.744345
0.196313
0.00519091
0.00104894
0.000170056
2.04221e-05
-3.41781e-06
-1.41032e-05
0.0138505
0.0584528
0.0520205
0.000104235
0.000366435
0.000558617
0.00141703
0.00257007
0.000443368
0.00036719
0.00122573
0.00883242
0.0208514
0.614629
0.732862
0.206544
0.00635609
0.00104898
0.000170743
2.30847e-05
7.94415e-08
3.11666e-09
2.28251e-08
1.43537e-07
8.66926e-07
5.07698e-06
2.44979e-05
9.43341e-05
0.00247624
0.00688949
0.00731343
0.00506654
0.000195101
0.000121248
0.000121248
0.000120027
0.575142
0.211307
0.00765717
0.00148475
0.000216942
2.49016e-05
1.93428e-06
8.1895e-09
2.14401e-09
1.86217e-09
3.07676e-09
1.51864e-08
1.45545e-07
1.40828e-06
1.41945e-05
0.00385538
0.00727253
0.0073288
0.00727253
0.000911065
0.000134179
0.000121153
0.000151296
0.612966
0.0519575
0.00218816
0.000495397
9.19651e-05
3.90859e-05
1.51128e-05
2.16926e-09
1.96054e-09
1.95302e-09
1.95184e-09
2.25084e-09
7.06876e-09
3.06831e-08
1.79726e-07
1.16428e-06
0.00182531
0.00668532
0.00268712
0.00023822
0.000148345
0.00214361
0.00377186
0.612966
0.0441596
0.000735249
0.000182866
5.27167e-05
3.68826e-05
0.000106957
2.82231e-07
1.95368e-09
1.95387e-09
1.95349e-09
1.99698e-09
2.34343e-09
5.50147e-09
2.84828e-08
2.20234e-07
1.42144e-06
8.95064e-06
0.000100813
0.000116454
0.000672269
0.00466899
0.0052635
0.496573
0.0349232
0.000478111
6.0216e-05
1.91836e-05
1.32402e-05
0.000111342
1.53131e-05
1.95464e-09
1.95207e-09
2.03443e-09
2.14765e-09
3.74205e-09
9.94096e-08
1.57592e-07
6.03684e-07
1.49411e-06
3.34886e-06
1.75543e-05
7.53554e-05
1.36507e-05
0.00107147
0.00503719
0.0518954
0.0282835
6.48807e-05
1.63543e-05
4.68483e-06
1.57346e-06
7.49628e-05
1.75385e-05
2.6701e-07
1.95576e-09
2.37888e-09
2.87307e-09
1.1592e-08
1.30521e-06
5.54411e-06
1.49404e-06
3.3489e-06
9.19103e-06
5.30049e-05
7.53132e-05
4.02902e-06
2.2692e-06
2.70063e-06
0.00597213
0.00347359
1.88285e-05
2.97887e-06
9.709e-07
5.11174e-07
2.63523e-06
4.88971e-06
2.24719e-07
1.97127e-09
2.06268e-09
4.25434e-09
3.36204e-08
4.28086e-07
3.45136e-05
6.65073e-05
9.3464e-06
4.52857e-05
8.20674e-05
6.33685e-05
2.2697e-06
2.15452e-06
2.11662e-06
0.0931253
5.70512e-05
5.00368e-06
7.90569e-07
2.36471e-07
9.5702e-08
2.22947e-07
1.91711e-08
2.71565e-08
2.06269e-09
2.49288e-09
7.76404e-09
5.95091e-08
4.93886e-07
4.98894e-06
0.000323311
0.000598676
0.000238134
2.3729e-05
1.61763e-05
2.18008e-06
2.11662e-06
2.11662e-06
0.357703
1.76582e-05
1.45301e-06
2.17269e-07
9.41402e-08
6.43148e-08
4.36324e-08
4.85217e-09
3.37904e-09
2.49418e-09
3.37904e-09
9.96944e-09
5.97884e-08
4.1178e-07
2.94402e-06
0.000265509
0.00131015
0.00136499
0.000206213
4.07949e-06
4.10199e-06
3.24329e-06
2.25934e-06
0.386669
0.000159512
7.75276e-07
9.62853e-08
6.31778e-08
5.1266e-08
2.85871e-08
1.72169e-08
4.85293e-09
3.37901e-09
1.29384e-06
6.61763e-08
1.85793e-07
5.13353e-07
1.01257e-06
2.49681e-05
0.000852273
0.00138769
0.00141039
0.000347845
4.07949e-06
5.41784e-06
4.65657e-06
0.38733
0.00133436
3.41596e-06
1.79942e-07
6.36571e-08
6.43328e-08
4.68431e-08
2.85805e-08
1.58864e-08
1.89207e-05
1.40992e-06
1.28533e-05
4.72713e-07
1.13545e-06
9.99628e-07
4.50558e-07
3.02708e-05
0.00114428
0.00141039
0.00141039
9.23141e-05
3.9627e-06
4.1801e-06
0.386961
0.00433284
7.96377e-06
4.79659e-07
7.67524e-08
6.48e-08
7.47772e-08
6.33048e-06
0.000214508
0.000308934
0.000268276
8.20316e-05
9.7531e-06
9.86991e-07
4.50592e-07
2.60697e-07
3.18619e-08
4.61548e-05
0.00136272
0.00140772
0.00130459
4.15779e-06
3.93104e-06
0.28257
0.0108394
1.41078e-05
7.96189e-07
1.10096e-07
8.19425e-08
1.09744e-07
4.49058e-05
0.00031826
0.00031292
0.000308934
0.000303389
0.000186917
6.6548e-05
3.96488e-07
3.18619e-08
1.12992e-08
1.06486e-08
1.89634e-05
0.0013254
0.00134102
0.000966335
4.17122e-06
0.0206145
0.0279066
0.00122985
6.33049e-06
4.37726e-07
1.16252e-07
4.42382e-07
0.000281752
0.000319614
0.000181655
0.000122062
0.000153763
0.000221524
0.000220746
5.66795e-05
1.38155e-06
2.84617e-08
1.00297e-08
7.71096e-09
3.58508e-09
0.0011529
0.00125269
0.000848787
0.000569923
0.0140158
0.00726443
0.000316214
6.21079e-06
4.41458e-07
3.12389e-06
0.000319417
0.000319614
0.000307396
9.90006e-05
9.88764e-05
0.000152846
0.000221524
0.000178843
2.41159e-05
1.76184e-07
2.04327e-08
3.58508e-09
1.81057e-09
1.4159e-09
0.000927018
0.0011836
6.52574e-05
0.000314578
0.00541025
0.00353657
0.000360045
6.21163e-06
8.36391e-06
0.000255787
0.000319614
0.00031627
0.000312567
0.000119316
0.000111648
0.000211588
0.000198672
6.47506e-05
6.72114e-07
8.49739e-08
1.18649e-08
2.20365e-09
1.00922e-09
6.24152e-10
0.000268153
6.70442e-06
4.35608e-05
0.000255234
0.00166821
0.00148804
0.000391613
2.67375e-05
9.99261e-05
0.000305473
0.000312926
0.00030985
0.000195084
0.000110886
0.00017537
0.000188766
7.92241e-05
1.28866e-06
1.80644e-07
2.53301e-08
4.10912e-09
9.15602e-10
1.29169e-10
1.94649e-11
6.14699e-07
4.80533e-06
1.35638e-05
2.62888e-05
0.000454976
0.000459802
9.76172e-05
0.000110852
0.000113695
0.000237045
0.000199777
0.000103807
0.000107346
0.000167117
0.000181256
7.26672e-05
1.49608e-06
2.21658e-07
3.10145e-08
4.2741e-09
7.23523e-10
1.24035e-10
1.9497e-11
4.91544e-08
4.34222e-07
1.10225e-06
2.18693e-06
8.73873e-06
7.71209e-05
0.000101743
0.000112055
0.000111448
0.00010804
0.000103709
0.000103758
0.000107342
0.000183853
0.000177318
4.67686e-05
1.12565e-06
1.68783e-07
2.35155e-08
3.15463e-09
5.02567e-10
9.22069e-11
2.64805e-11
3.39455e-09
3.31653e-08
6.1155e-08
9.64549e-08
2.18693e-06
5.48566e-05
0.000222771
0.000224349
0.000115457
0.000103709
0.000103709
0.000103709
0.000183091
0.000184432
0.000147036
1.40673e-05
5.08343e-07
7.39516e-08
9.95099e-09
1.27912e-09
2.03918e-10
3.03761e-11
4.76404e-12
2.0694e-10
2.33142e-09
2.85471e-09
4.54461e-09
1.02844e-05
0.000216784
0.000233537
0.000234601
0.000233708
0.000190541
0.00013791
0.000212362
0.000200875
0.000166809
3.17443e-05
7.89836e-07
1.18399e-07
1.63421e-08
2.11541e-09
3.05872e-10
4.77579e-11
1.0788e-11
8.97323e-13
1.87822e-11
1.80502e-10
1.76251e-10
1.63649e-09
2.91709e-06
0.000113586
0.000234204
0.000233755
0.000234595
0.000233708
0.000229319
0.000222516
0.00014328
2.47884e-05
8.10409e-07
1.68941e-07
2.27759e-08
2.77154e-09
3.93972e-10
5.83821e-11
1.2691e-11
2.09897e-12
1.7853e-13
5.36733e-12
2.85314e-11
5.34646e-11
2.39089e-10
1.63649e-09
5.14838e-06
9.65232e-05
0.000183427
0.000208033
0.000207193
0.000167204
8.05361e-05
1.22197e-05
5.39019e-07
1.25912e-07
2.3478e-08
3.45815e-09
4.8196e-10
6.87965e-11
1.61991e-11
2.45422e-12
2.31471e-13
1.43407e-14
2.02919e-12
3.75471e-11
4.23616e-11
6.01029e-11
2.51501e-10
1.18356e-08
3.57467e-07
9.22333e-06
1.6701e-05
1.78198e-05
8.4014e-06
8.51049e-07
2.67453e-07
7.06903e-08
1.51705e-08
2.63088e-09
4.46178e-10
7.67795e-11
2.09209e-11
3.01868e-12
2.48808e-13
1.97904e-14
1.02607e-15
4.6496e-13
1.82496e-11
2.17096e-11
2.62786e-11
6.32509e-11
9.06771e-10
1.98778e-08
8.1925e-08
1.82152e-07
2.47298e-07
1.90947e-07
9.15956e-08
2.85401e-08
7.40479e-09
1.57695e-09
3.1579e-10
7.09438e-11
2.19808e-11
3.35858e-12
2.79058e-13
2.1003e-14
1.49441e-15
6.78463e-17
6.36034e-14
3.80641e-12
5.81486e-12
1.5029e-11
1.82579e-11
1.24486e-10
1.62712e-09
6.47053e-09
1.57149e-08
2.25742e-08
1.78147e-08
8.54701e-09
2.67642e-09
7.39855e-10
1.80787e-10
5.58627e-11
1.85269e-11
3.01068e-12
2.74356e-13
2.20183e-14
1.5416e-15
9.50292e-17
5.13481e-18
6.45098e-15
4.54006e-13
8.11134e-13
4.09488e-12
1.3189e-11
2.16844e-11
1.53532e-10
5.76009e-10
1.25045e-09
1.85191e-09
1.48338e-09
7.19858e-10
2.78632e-10
8.32036e-11
3.50588e-11
1.23701e-11
2.15599e-12
2.20864e-13
1.9859e-14
1.5168e-15
9.6277e-17
5.10733e-18
3.72855e-19
6.1783e-16
4.80298e-14
7.95345e-14
4.66971e-13
3.54778e-12
1.08211e-11
1.66742e-11
6.34237e-11
1.32424e-10
1.77274e-10
1.46315e-10
8.07535e-11
3.03036e-11
1.86013e-11
6.64165e-12
1.21163e-12
1.44179e-13
1.48424e-14
1.27688e-15
9.05964e-17
5.25425e-18
2.48507e-19
3.02732e-20
5.35149e-17
5.55407e-15
7.6021e-15
3.49254e-14
3.44421e-13
2.25904e-12
6.08819e-12
7.95854e-12
1.2906e-11
1.75755e-11
1.45433e-11
1.15868e-11
7.77512e-12
2.73144e-12
5.39108e-13
7.62032e-14
9.13989e-15
9.02338e-16
7.27122e-17
4.77283e-18
2.52604e-19
1.03123e-20
1.96907e-21
4.13364e-18
6.44802e-16
7.47517e-16
2.67914e-15
2.33894e-14
1.96007e-13
9.77072e-13
2.08952e-12
3.44463e-12
3.99121e-12
3.51615e-12
2.16367e-12
8.48768e-13
1.86519e-13
3.22712e-14
4.61142e-15
5.3177e-16
4.95014e-17
3.72428e-18
2.24146e-19
9.71768e-21
1.28809e-22
-5.26567e-41
3.67757e-19
7.0286e-17
7.14666e-17
2.15162e-16
1.63821e-15
1.2871e-14
6.98648e-14
2.18993e-13
4.09948e-13
4.54829e-13
3.63491e-13
1.71121e-13
4.96381e-14
1.08925e-14
1.88989e-15
2.59776e-16
2.84222e-17
2.48847e-18
1.72333e-19
7.96066e-21
1.18284e-22
-5.32839e-22
-4.02826e-22
3.53804e-20
7.12454e-18
6.49254e-18
1.68591e-17
1.18162e-16
8.54517e-16
4.25539e-15
1.29132e-14
2.48701e-14
2.7755e-14
2.07427e-14
9.53305e-15
2.85468e-15
6.21326e-16
1.03888e-16
1.36086e-17
1.40784e-18
1.13525e-19
5.87962e-21
1.04179e-22
-6.9526e-22
-5.01819e-22
-1.78235e-22
1.29996e-21
6.84368e-19
4.35453e-19
1.14349e-18
8.27856e-18
5.71516e-17
2.66164e-16
7.44119e-16
1.27652e-15
1.30561e-15
1.09107e-15
5.32937e-16
1.59888e-16
3.40294e-17
5.47945e-18
6.83914e-19
6.55644e-20
3.83976e-21
6.56949e-23
-7.33326e-22
-5.60473e-22
-2.10317e-22
-5.20904e-23
1.20031e-21
3.27255e-20
9.25752e-20
1.18054e-19
2.87513e-19
1.8415e-18
9.80721e-18
4.79709e-17
1.58863e-16
2.7049e-16
1.17951e-16
3.38061e-17
7.17281e-18
1.16997e-18
1.69277e-19
2.01465e-20
1.55705e-21
4.13861e-23
-6.43612e-22
-5.13877e-22
-2.07084e-22
-5.29141e-23
-7.80412e-24
0.999954
0.999952
0.994321
0.887401
0.999952
0.974
0.432684
0.0619135
0.85874
0.281235
0.0733828
0.0277371
0.464492
0.301336
0.143208
0.0387167
0.179441
0.122672
0.205491
0.20407
0.0218246
0.0221443
0.119556
0.229839
0.0214393
0.0221371
0.0273975
0.114758
0.0225417
0.0225205
0.0208428
0.0170074
0.00395198
0.00354262
0.0072535
0.0160623
8.91062e-05
8.10511e-05
7.27108e-05
0.000999605
0.00148156
7.27108e-05
7.27108e-05
7.27108e-05
0.0054036
0.00153475
7.27108e-05
8.37036e-05
0.00551348
0.00560294
0.00226872
0.00172974
0.00141307
0.00572812
0.00597331
0.00597331
2.11738e-06
2.31743e-06
0.000213315
0.000178508
2.11662e-06
2.1188e-06
2.31765e-06
3.98148e-06
2.1188e-06
2.18155e-06
1.20731e-06
4.77192e-06
3.11199e-06
1.23292e-06
1.47698e-08
1.14704e-09
5.72481e-06
1.75299e-06
8.30289e-08
1.70418e-10
4.17122e-06
6.01879e-05
0.000287457
5.1593e-10
8.88687e-06
0.000467693
0.000664506
4.70819e-06
6.58221e-05
0.000715268
0.000668023
1.92908e-05
0.000843516
0.000735104
5.95783e-05
4.67183e-07
0.000572657
0.000372635
4.34053e-06
-2.93559e-11
5.30539e-13
0
-6.06857e-11
2.84941e-12
1.12378e-11
1.5051e-11
2.20043e-11
4.25187e-11
7.84355e-12
2.50103e-11
8.90998e-11
1.21965e-10
5.80811e-12
4.14703e-11
1.15802e-10
1.21828e-10
4.94593e-12
3.39031e-11
5.63879e-11
5.49342e-11
9.06186e-14
6.76073e-13
2.22348e-12
2.10107e-12
2.26455e-14
1.85822e-13
3.54529e-13
3.00378e-13
4.1318e-15
3.21311e-14
4.32787e-14
3.22922e-14
6.04762e-16
3.08279e-15
3.11861e-15
1.964e-15
6.57661e-17
1.93676e-16
1.64837e-16
7.59662e-17
4.55995e-18
8.15492e-18
5.81999e-18
2.48366e-18
2.5841e-19
2.9354e-19
1.78097e-19
4.04692e-19
1.11421e-20
9.3492e-21
1.19623e-20
2.44912e-19
2.52368e-22
2.34663e-22
2.74452e-21
1.64648e-19
-9.45257e-23
-1.21602e-23
6.64343e-22
6.62279e-20
-3.34183e-23
-4.2921e-24
1.07074e-22
9.53082e-21
-6.8285e-24
-5.69979e-25
9.22461e-24
1.83392e-22
-4.55553e-25
-1.33792e-26
3.3214e-27
1.99349e-27
0.429975
0.0403444
0.126477
0.599603
0.790079
0.84639
0.862741
0.863774
0.864868
0.865477
0.86558
0.865683
0.865519
0.771073
0.799215
0.798275
0.442676
0.241123
0.628198
0.0931723
0.0345777
0.109079
0.108517
0.0800329
0.446574
0.819595
0.76828
0.68554
0.844822
0.865666
0.865489
0.865679
0.865519
0.786834
0.441993
0.0616503
0.000365852
3.46389e-05
0.0263641
0.0254156
0.0286635
0.0246023
0.0255406
0.312426
0.694409
0.378722
0.291308
0.476731
0.681451
0.739445
0.60013
0.403934
0.153711
0.000702749
0.000385137
3.21157e-05
3.45013e-05
0.0254162
0.0247455
0.0246021
0.0245571
0.0513432
0.417073
0.246315
0.0643447
0.00803162
7.23125e-05
4.47562e-05
1.56162e-05
6.32777e-06
4.16676e-05
7.34111e-05
0.00011425
5.33434e-05
2.84662e-05
3.20984e-05
0.0255798
0.0245819
0.0245569
0.0245517
0.190264
0.418536
0.000976665
8.08872e-05
7.51176e-05
7.26032e-05
3.23457e-05
6.32777e-06
2.73577e-06
7.46592e-05
0.000157304
0.000188533
3.65003e-05
2.77506e-05
2.77506e-05
0.199397
0.0245597
0.0245516
0.0245569
0.271156
0.413748
0.00338604
0.000326383
0.00036982
0.00108766
0.00108506
0.000174674
2.16262e-06
9.96836e-06
3.69891e-05
4.08224e-05
3.57496e-05
3.26931e-05
2.77506e-05
0.261639
0.262511
0.218774
0.110142
0.287582
0.249497
0.0100021
0.000365527
0.000426176
0.00108766
0.00108692
0.00015519
2.13868e-06
2.14735e-06
2.22097e-06
6.82016e-06
4.98064e-05
4.87476e-05
4.82983e-05
0.0172896
0.122381
0.277694
0.280245
0.287582
0.285723
0.140992
0.00998498
0.000439059
0.000504622
0.000488938
3.19325e-05
2.13817e-06
2.13854e-06
2.14735e-06
2.8494e-06
2.41992e-05
3.11763e-05
4.06228e-05
0.0164605
0.0171123
0.0276695
0.00048829
0.122258
0.25609
0.254717
0.151355
0.00253607
0.000572262
0.000517427
0.000198991
2.13817e-06
2.13806e-06
2.13854e-06
2.14902e-06
4.49619e-06
1.41715e-05
2.22235e-05
0.00386789
0.000422799
0.000404346
0.00048829
0.00048829
0.0882741
0.252572
0.239963
0.0250745
0.000797456
0.00077952
0.000209498
2.13807e-06
2.13817e-06
2.14329e-06
2.22908e-06
1.93374e-05
0.000386152
3.27147e-05
8.02766e-05
0.000136064
0.000293079
0.000538689
0.00609034
0.00456581
0.220179
0.116094
0.00612027
0.00192301
0.000866902
5.79782e-05
3.63949e-06
9.71794e-05
0.000119042
7.76335e-06
0.000306297
0.000613459
5.28467e-05
0.00330713
0.010391
0.0132007
0.0144512
0.0215432
0.00426204
0.0309611
0.0315512
8.06593e-05
0.00105448
0.00020505
1.36676e-05
4.78948e-05
0.000255537
0.000256497
0.000251967
0.000614149
0.000615789
3.28216e-05
0.0162188
0.0185465
0.0185677
0.0182873
0.00394871
2.16337e-05
1.62687e-05
0.00131624
2.69499e-05
9.89775e-06
3.98787e-06
9.27601e-06
6.10073e-05
0.000250093
0.000283099
0.000420839
0.000614855
0.00059576
3.28213e-05
0.00111744
0.000110145
0.000119181
2.69321e-05
2.16337e-05
1.975e-05
8.21042e-06
2.4935e-06
1.25154e-06
1.31849e-06
1.39805e-06
4.46046e-06
0.000113435
0.000304194
0.000207471
4.2035e-05
0.000520844
0.000671509
0.000243028
0.000164775
0.00015657
0.000195905
0.000184959
7.09554e-05
1.12276e-05
3.81465e-06
1.26025e-06
6.20435e-07
5.61187e-07
6.8453e-07
3.65375e-06
0.000197381
0.000304321
0.000230251
2.76229e-05
0.000381151
0.000673297
0.000672722
0.000325804
0.000381478
0.000386242
0.000386242
0.000386242
0.000272344
5.95932e-05
6.20435e-07
5.81219e-07
5.0883e-07
5.18511e-07
2.49741e-06
0.000177862
0.000304312
0.00030345
1.9781e-05
0.000442508
0.000671987
0.000673467
4.53847e-05
0.000133642
0.00020879
0.000310094
0.000382307
0.000381147
0.000379152
0.000333039
9.86012e-07
5.05973e-07
5.06452e-07
7.4591e-07
2.90273e-05
0.000276293
0.000294029
1.52476e-05
0.000264363
0.000665251
0.000671987
1.70418e-10
1.16181e-10
1.15547e-10
9.0322e-11
1.32877e-05
0.000160125
0.000248191
0.000239545
3.42511e-05
5.06274e-07
5.06191e-07
1.22551e-06
6.95194e-07
5.10218e-06
0.000108666
1.45887e-05
8.78952e-06
0.000304774
0.000664079
1.16181e-10
1.0865e-10
9.0322e-11
7.23483e-11
6.51777e-11
7.54406e-11
2.0794e-10
2.23117e-09
1.66251e-05
7.16406e-07
3.15256e-06
2.67657e-06
6.61375e-07
3.96769e-07
3.92761e-07
3.91678e-07
3.92018e-07
3.9134e-07
0.000310222
1.46546e-10
1.15819e-10
2.92211e-10
6.51777e-11
6.51777e-11
6.51728e-11
7.54406e-11
2.0794e-10
2.23117e-09
2.02212e-06
3.78644e-06
3.78814e-06
2.5251e-06
5.52098e-07
3.96769e-07
3.92763e-07
3.9183e-07
3.92973e-07
1.6871e-05
3.02643e-10
2.98371e-10
2.04181e-09
1.65729e-10
6.58001e-11
1.27668e-10
1.33753e-10
2.02299e-10
3.48958e-08
2.66309e-06
3.78814e-06
3.78814e-06
3.78814e-06
2.05321e-06
1.44497e-06
8.42106e-07
3.92973e-07
8.74957e-05
0.000341298
9.34643e-10
1.15863e-09
3.92604e-09
7.79125e-10
6.62562e-11
1.72179e-10
6.93175e-10
6.92396e-10
7.50174e-10
9.38666e-07
3.66301e-06
3.78814e-06
3.71204e-06
5.21877e-07
1.6641e-06
1.6723e-06
4.04393e-07
0.000371491
0.000408718
1.80941e-09
1.21113e-09
4.26606e-09
1.55703e-09
7.10057e-11
3.72073e-11
7.91929e-10
1.62864e-09
8.93775e-10
8.95535e-10
4.74325e-07
2.5423e-06
3.47534e-07
1.64548e-08
1.41814e-06
3.96957e-07
2.48626e-07
0.000400822
0.000408718
-1.24799e-12
3.03268e-10
2.7153e-09
1.79001e-09
1.51318e-10
8.86812e-12
3.99395e-10
1.72777e-09
1.7501e-09
1.1638e-09
3.92231e-10
3.9133e-10
3.9133e-10
1.55264e-08
1.64548e-08
1.94722e-08
3.33718e-08
0.000392193
0.000308389
1.04701e-11
1.22973e-10
7.62329e-10
8.05178e-10
1.74974e-10
7.20639e-12
9.43588e-11
1.00054e-09
1.72576e-09
1.71215e-09
7.2058e-10
3.92231e-10
3.91518e-10
7.91567e-08
7.49694e-08
4.15909e-08
6.17253e-08
0.00034381
8.3289e-05
4.88166e-11
8.73446e-11
7.35047e-11
7.95604e-11
3.44903e-11
5.19199e-12
1.82486e-11
1.39385e-10
8.60603e-10
1.24465e-09
1.04813e-09
4.16587e-10
3.94354e-10
3.15286e-08
3.34486e-08
6.75183e-08
8.52778e-08
5.7463e-05
7.5624e-05
1.20466e-10
7.26487e-11
1.50575e-11
1.85641e-12
1.53646e-12
2.10787e-12
4.03464e-12
2.3866e-11
7.51722e-11
5.61658e-10
9.56634e-10
4.5963e-10
4.42401e-10
1.1665e-09
1.03167e-08
6.03985e-08
2.10566e-07
2.21755e-07
9.35604e-05
1.0179e-10
5.84203e-11
1.92649e-11
2.73568e-12
1.06565e-12
1.08045e-12
1.01603e-12
1.09313e-12
6.02992e-09
7.88681e-09
3.2552e-09
4.76978e-10
5.97069e-10
9.74722e-09
1.06747e-05
1.44686e-05
3.29737e-06
2.18528e-07
0.000328499
2.92611e-11
1.04389e-11
3.50866e-12
6.16069e-13
5.06384e-13
4.77295e-13
4.61532e-13
1.66632e-09
3.04318e-08
3.27736e-08
6.34314e-09
5.99656e-10
1.19688e-09
2.46067e-06
3.93849e-05
3.91899e-05
6.4797e-06
2.75925e-07
0.000375639
1.56898e-12
1.00187e-12
4.97956e-13
1.61404e-13
3.89512e-13
4.23316e-13
4.38877e-13
2.26598e-08
3.5186e-08
3.5186e-08
6.1063e-09
1.20765e-09
9.94269e-07
3.72268e-05
4.00308e-05
3.04628e-05
4.45349e-06
0.000155933
0.000376968
1.84904e-13
6.27e-14
6.26268e-14
1.00569e-13
2.17805e-12
4.38877e-13
5.51078e-13
3.48683e-08
3.5186e-08
1.65577e-08
4.89817e-09
3.51593e-09
3.17758e-05
4.0031e-05
4.00072e-05
2.9419e-05
3.49262e-06
0.000336538
0.000376761
1.577e-14
3.38354e-15
5.82042e-14
3.22622e-13
1.22624e-11
5.51078e-13
7.5403e-10
2.62372e-08
2.62065e-08
4.09808e-09
4.40241e-09
2.39983e-08
3.92462e-05
4.00072e-05
4.00233e-05
1.27627e-05
3.50706e-06
0.000362708
0.000325867
6.94407e-16
1.22364e-16
1.46161e-13
7.90167e-13
3.18621e-11
1.58101e-11
1.50425e-09
3.20311e-09
1.88887e-11
3.6999e-09
5.68328e-09
6.84068e-07
1.22157e-05
3.08648e-05
1.58163e-05
1.30914e-05
0.000213848
0.000422323
0.00025823
2.82445e-17
7.49203e-18
2.05836e-13
1.60649e-12
4.94429e-11
1.72442e-10
2.57249e-10
1.31825e-11
1.54063e-11
6.27017e-09
3.5034e-08
1.80834e-07
1.45725e-07
2.4627e-07
2.77255e-06
0.000126738
0.000420224
0.000422323
0.000167717
5.1034e-18
4.67444e-19
2.56969e-13
3.12434e-12
6.19065e-11
2.42128e-10
9.23879e-11
1.27516e-11
4.80907e-11
6.59631e-09
2.24588e-08
1.57401e-08
6.22638e-08
1.47631e-05
0.000122478
0.000307566
0.000298604
9.00102e-05
8.83197e-06
2.21031e-18
4.28191e-19
2.92421e-13
4.87596e-12
5.08249e-11
2.27929e-10
1.23633e-10
1.25031e-11
1.08189e-10
1.5426e-09
1.0725e-09
3.06434e-09
3.62038e-06
5.28322e-05
6.46451e-05
2.78793e-05
0
0
0
9.67886e-19
3.85912e-19
3.01458e-13
5.7581e-12
1.83371e-11
8.59572e-11
4.31086e-11
5.68826e-12
8.36915e-12
4.72387e-12
1.05731e-09
4.83585e-09
1.05398e-10
-1.83528e-26
-9.83177e-15
-1.3362e-14
-1.31905e-14
-4.79019e-15
-5.85179e-16
3.37475e-19
3.40502e-19
1.82503e-13
5.31757e-12
4.85353e-12
5.73771e-12
2.52635e-12
1.8076e-12
2.96297e-13
2.64228e-13
1.98687e-09
1.41207e-08
1.57504e-08
4.73366e-09
-7.71562e-15
-1.2783e-14
-1.48095e-14
-4.84435e-15
-6.51607e-16
6.59235e-20
2.45395e-18
5.37978e-14
1.35791e-12
8.52344e-13
9.49752e-14
5.37969e-15
6.68362e-13
9.79037e-14
1.05689e-13
3.7136e-10
1.02421e-08
1.86595e-08
1.68289e-08
-2.31173e-15
-4.80619e-15
-6.609e-15
-1.89663e-15
-2.57593e-16
6.35551e-21
7.07564e-18
7.74399e-15
1.19783e-13
8.58773e-14
4.43063e-14
4.75214e-15
1.46824e-13
5.58792e-14
3.9275e-12
1.0092e-11
2.07051e-10
9.07748e-09
8.68989e-09
2.13992e-36
5.7088e-18
2.5489e-17
9.82163e-19
4.06841e-19
9.03232e-23
6.68583e-18
4.0293e-16
4.61898e-15
5.57359e-15
1.99547e-15
9.39909e-17
1.11882e-14
3.65935e-15
2.27896e-12
1.88611e-11
1.65155e-13
-1.01514e-31
1.03752e-10
-6.0046e-19
-2.02582e-18
-1.70534e-19
-7.42975e-21
1.48517e-22
6.27718e-28
6.05744e-19
2.50225e-20
-1.60979e-57
0
-7.97184e-45
9.23615e-21
6.52592e-18
1.10409e-20
4.99849e-15
1.39094e-12
3.04904e-12
-6.53843e-22
-6.98675e-21
-7.0626e-20
-5.61588e-19
-5.69293e-20
-2.50192e-21
-4.38995e-23
)
;

boundaryField
{
    leftWall
    {
        type            zeroGradient;
    }
    rightWall
    {
        type            zeroGradient;
    }
    lowerWall
    {
        type            zeroGradient;
    }
    atmosphere
    {
        type            inletOutlet;
        inletValue      uniform 0;
        value           nonuniform List<scalar> 
46
(
1.20031e-21
3.27255e-20
9.25752e-20
1.18054e-19
2.87513e-19
1.8415e-18
9.80721e-18
4.79709e-17
1.58863e-16
2.7049e-16
1.17951e-16
3.38061e-17
7.17281e-18
1.16997e-18
1.69277e-19
2.01465e-20
1.55705e-21
4.13861e-23
-6.43612e-22
-5.13877e-22
-2.07084e-22
-5.29141e-23
-7.80412e-24
0
0
0
0
0
0
0
0
0
0
0
0
0
0
0
0
0
0
0
0
0
0
0
)
;
    }
    defaultFaces
    {
        type            empty;
    }
}


// ************************************************************************* //
