/*--------------------------------*- C++ -*----------------------------------*\
| =========                 |                                                 |
| \\      /  F ield         | OpenFOAM: The Open Source CFD Toolbox           |
|  \\    /   O peration     | Version:  2206                                  |
|   \\  /    A nd           | Website:  www.openfoam.com                      |
|    \\/     M anipulation  |                                                 |
\*---------------------------------------------------------------------------*/
FoamFile
{
    version     2.0;
    format      ascii;
    arch        "LSB;label=32;scalar=64";
    class       surfaceScalarField;
    location    "1";
    object      alphaPhi0.water;
}
// * * * * * * * * * * * * * * * * * * * * * * * * * * * * * * * * * * * * * //

dimensions      [0 3 -1 0 0 0 0];

oriented        oriented;

internalField   nonuniform List<scalar> 
4432
(
3.09551e-06
-3.09551e-06
1.29643e-06
1.7991e-06
-3.50099e-06
4.79742e-06
-6.52121e-06
3.02023e-06
-6.0937e-06
-4.27513e-07
-4.51058e-06
-1.58312e-06
-3.301e-06
-1.20958e-06
-2.48746e-06
-8.1354e-07
-1.87506e-06
-6.12394e-07
-1.09784e-06
-7.77212e-07
1.16998e-07
-1.21084e-06
7.27629e-07
-6.03225e-07
-1.19619e-06
1.9081e-06
-7.77531e-06
6.30928e-06
-1.56237e-05
7.85313e-06
-1.7566e-05
1.94772e-06
-1.26507e-05
-4.69882e-06
-6.5705e-06
-6.12126e-06
-2.18039e-06
-4.43117e-06
8.71776e-07
-3.02558e-06
2.82215e-06
-1.92051e-06
2.33629e-06
4.82229e-07
2.33643e-06
-2.77293e-06
-3.22582e-07
-7.18426e-06
6.21043e-06
-1.04262e-05
8.03936e-06
-9.9044e-06
2.49843e-06
-7.47148e-06
-2.86043e-06
-5.75501e-06
-3.29959e-06
-4.97483e-06
-1.98975e-06
-4.41027e-06
-1.37809e-06
-3.80156e-06
-1.2211e-06
-3.63948e-06
-9.39336e-07
-4.72842e-06
-4.00783e-08
-7.55003e-06
2.40127e-06
-1.17346e-05
6.09674e-06
-1.48118e-05
9.37928e-06
-1.41552e-05
6.98076e-06
-9.56874e-06
-2.84288e-06
-4.21692e-06
-1.05897e-05
-3.94336e-07
-1.00882e-05
2.69722e-06
-7.62338e-06
5.46225e-06
-5.87491e-06
7.02676e-06
-3.53601e-06
5.07208e-06
2.49886e-06
7.40865e-06
-6.25199e-06
5.92941e-06
-1.12864e-05
1.12448e-05
-1.28638e-05
9.61682e-06
-1.13301e-05
9.6476e-07
-8.57877e-06
-5.6118e-06
-6.19883e-06
-5.67952e-06
-4.59185e-06
-3.59672e-06
-3.23279e-06
-2.73715e-06
-1.91331e-06
-2.54058e-06
-1.25102e-06
-1.60163e-06
-2.19079e-06
9.00507e-07
-4.70763e-06
5.22282e-06
-7.69737e-06
9.08151e-06
-8.07722e-06
9.75778e-06
-4.78124e-06
3.67981e-06
-1.37949e-06
-6.54132e-06
2.19616e-07
-1.21888e-05
1.70393e-06
-1.15725e-05
3.87555e-06
-9.795e-06
6.10428e-06
-8.10365e-06
8.03005e-06
-5.46179e-06
6.50829e-06
4.02486e-06
1.39186e-05
-7.24836e-06
1.31778e-05
-1.2156e-05
1.61524e-05
-1.37047e-05
1.11655e-05
-1.25145e-05
-2.25378e-07
-9.7842e-06
-8.34214e-06
-7.20761e-06
-8.25612e-06
-5.32531e-06
-5.47902e-06
-3.57212e-06
-4.49034e-06
-1.73161e-06
-4.38111e-06
-1.78272e-07
-3.15497e-06
4.42089e-07
2.80144e-07
2.10563e-07
5.45436e-06
-1.7077e-07
9.91801e-06
5.269e-07
9.54685e-06
1.64977e-06
2.70274e-06
1.34412e-06
-6.23568e-06
7.96465e-07
-1.16412e-05
1.91969e-06
-1.26958e-05
3.99371e-06
-1.1869e-05
5.45789e-06
-9.56783e-06
6.50891e-06
-6.51282e-06
5.93905e-06
4.59471e-06
1.98581e-05
-6.707e-06
1.98848e-05
-1.14198e-05
2.08653e-05
-1.34332e-05
1.31789e-05
-1.2717e-05
-9.41659e-07
-1.03387e-05
-1.07204e-05
-8.18257e-06
-1.04123e-05
-6.48436e-06
-7.17724e-06
-4.64305e-06
-6.33165e-06
-2.46178e-06
-6.56239e-06
-3.15509e-07
-5.30124e-06
1.03943e-06
-1.0748e-06
1.77872e-06
4.71506e-06
2.3149e-06
9.38196e-06
2.61361e-06
9.24848e-06
1.88996e-06
3.4264e-06
6.6515e-07
-5.01086e-06
8.53394e-07
-1.18294e-05
3.01468e-06
-1.48571e-05
5.46036e-06
-1.43147e-05
5.97549e-06
-1.0083e-05
4.60291e-06
-5.14024e-06
4.18474e-06
5.01287e-06
2.40431e-05
-5.31801e-06
2.52028e-05
-9.61466e-06
2.51619e-05
-1.19375e-05
1.55018e-05
-1.17825e-05
-1.09657e-06
-1.01161e-05
-1.23866e-05
-8.85435e-06
-1.1674e-05
-7.63517e-06
-8.39642e-06
-5.66758e-06
-8.29924e-06
-2.72618e-06
-9.50379e-06
3.92441e-07
-8.41985e-06
2.41532e-06
-3.09769e-06
2.84217e-06
4.2882e-06
2.42081e-06
9.80337e-06
1.63668e-06
1.00326e-05
7.44342e-07
4.31874e-06
7.04834e-07
-4.97134e-06
2.44611e-06
-1.35707e-05
5.61427e-06
-1.80252e-05
8.59484e-06
-1.72953e-05
8.65535e-06
-1.01435e-05
4.70688e-06
-1.19175e-06
3.04204e-06
6.67766e-06
2.70851e-05
-3.40178e-06
2.86046e-05
-7.13193e-06
2.88921e-05
-9.56771e-06
1.79375e-05
-9.15969e-06
-1.50349e-06
-8.48664e-06
-1.30564e-05
-9.17249e-06
-1.09866e-05
-8.63289e-06
-8.93583e-06
-5.90363e-06
-1.10285e-05
-1.1293e-06
-1.42781e-05
3.39195e-06
-1.29411e-05
5.83693e-06
-5.5427e-06
6.0294e-06
4.09578e-06
4.5775e-06
1.12553e-05
2.78509e-06
1.1825e-05
1.62221e-06
5.48163e-06
1.9472e-06
-5.29634e-06
4.30898e-06
-1.59325e-05
8.38786e-06
-2.21041e-05
1.28278e-05
-2.17353e-05
1.36799e-05
-1.09761e-05
9.09415e-06
3.38135e-06
4.43182e-06
1.13399e-05
3.15169e-05
-1.17601e-06
2.97806e-05
-4.09514e-06
3.18112e-05
-6.00135e-06
1.98437e-05
-4.84666e-06
-2.657e-06
-6.06163e-06
-1.18439e-05
-9.12117e-06
-7.92951e-06
-8.6129e-06
-9.44483e-06
-4.24015e-06
-1.54012e-05
1.17187e-06
-1.96901e-05
5.04731e-06
-1.68171e-05
6.35874e-06
-6.8576e-06
6.1305e-06
4.23912e-06
4.41005e-06
1.29757e-05
2.30463e-06
1.39304e-05
6.51353e-07
7.13491e-06
1.7054e-07
-4.81553e-06
2.16824e-06
-1.79302e-05
7.19866e-06
-2.71348e-05
1.4113e-05
-2.87234e-05
1.7485e-05
-1.43745e-05
1.48024e-05
6.05458e-06
6.35361e-06
1.97824e-05
3.78704e-05
1.22914e-06
-1.23693e-06
7.34397e-06
-8.3201e-06
1.37756e-05
-6.43208e-06
1.66659e-05
-2.88885e-06
1.4003e-05
2.66407e-06
5.81263e-06
8.19198e-06
-4.67109e-06
9.13366e-06
-1.86908e-05
8.56385e-06
-2.28733e-05
4.1929e-06
-1.76925e-05
-5.17409e-06
-3.21744e-06
-1.44712e-05
9.1458e-06
-1.23594e-05
-3.603e-06
1.27527e-05
-3.46875e-05
3.10883e-05
-4.79786e-05
1.34798e-05
-4.2611e-05
-5.17201e-06
-2.19813e-05
-2.06312e-05
-4.23494e-06
-1.77464e-05
-4.2349e-06
1.42736e-06
-3.40249e-06
1.14515e-05
-1.87442e-05
1.72347e-05
-1.22498e-05
1.94784e-05
-5.13296e-06
2.0037e-05
2.10694e-06
1.70398e-05
1.11905e-05
1.02318e-05
1.82379e-05
-2.34995e-06
1.64392e-05
-1.04219e-05
4.76251e-06
-1.095e-05
-4.45897e-06
-5.54824e-06
-1.98657e-05
-4.99703e-06
-1.29067e-05
-2.42709e-05
3.20303e-05
-2.86832e-05
3.50348e-05
-2.3161e-05
8.00814e-06
-1.94271e-05
-8.69839e-06
-1.15957e-05
-2.84269e-05
-7.41846e-07
-2.86003e-05
-4.97672e-06
6.70701e-06
-8.76115e-06
1.2957e-05
-1.70659e-05
1.27772e-05
-1.90507e-06
1.71964e-05
-3.36024e-07
2.11107e-05
1.06791e-06
2.27159e-05
9.58675e-06
2.0685e-05
2.03089e-05
1.50882e-05
2.15723e-05
8.03054e-06
9.55886e-06
1.81198e-06
2.41932e-06
-6.88418e-06
-9.16305e-06
-1.61818e-05
-3.60913e-06
-2.37219e-05
3.82254e-05
-1.53342e-05
2.54444e-05
-1.20638e-05
4.69943e-06
-7.43427e-06
-1.3349e-05
1.84782e-07
-3.59439e-05
5.29883e-06
-3.39485e-05
3.20906e-07
8.54474e-06
-1.23381e-05
1.87903e-06
-1.97457e-06
-1.10466e-07
-1.92292e-07
-3.98995e-07
-3.31377e-07
1.07835e-06
-9.95709e-07
1.32376e-05
-5.23633e-07
2.4648e-05
9.35852e-06
2.47228e-05
2.14511e-05
1.61801e-05
2.03565e-05
1.04524e-05
1.05001e-05
5.89099e-07
3.67085e-06
-1.32625e-05
1.01937e-05
-9.53748e-06
4.05413e-05
-6.7541e-06
2.26227e-05
-3.39624e-06
1.30124e-06
1.00734e-06
-1.7791e-05
8.11876e-06
-4.18869e-05
6.95309e-06
-3.27854e-05
7.27276e-06
1.35189e-06
-3.13639e-06
-5.23315e-07
-3.9699e-07
-2.18556e-06
1.18336e-06
-3.5793e-06
7.75774e-07
-3.70621e-06
-1.57864e-06
-2.38233e-06
-8.76866e-06
1.00881e-05
-2.96283e-06
2.13944e-05
1.00949e-05
2.2228e-05
2.15434e-05
1.81143e-05
1.68567e-05
7.72116e-06
1.64171e-05
-2.99462e-06
1.92041e-05
-1.80763e-06
3.94721e-05
1.97482e-06
1.8881e-05
4.52474e-06
-1.289e-06
6.03501e-06
-1.93416e-05
1.06276e-05
-4.56165e-05
4.62725e-06
-2.67863e-05
1.18999e-05
-5.77105e-08
-3.31672e-06
-1.86615e-06
1.14362e-06
-4.80329e-06
3.82288e-06
-7.7147e-06
-3.28095e-08
-2.3698e-05
-3.05394e-05
-1.57485e-05
-5.70533e-05
-1.56347e-06
-3.77283e-05
1.16968e-05
-5.12667e-06
2.96486e-05
1.33672e-05
2.7222e-05
2.37976e-05
1.38768e-05
2.96959e-05
7.0495e-06
2.36779e-05
7.95193e-06
2.8399e-05
8.79174e-06
1.64509e-05
9.86018e-06
-2.39778e-06
1.02691e-05
-1.9835e-05
8.9678e-06
-4.28669e-05
9.62004e-07
-1.87807e-05
1.28619e-05
-6.16258e-08
-7.46521e-06
-1.71897e-06
4.32171e-06
-6.8496e-06
8.14874e-06
-3.49476e-05
-7.16799e-06
-3.96957e-05
-6.34082e-05
-2.81469e-05
-6.90321e-05
-1.30989e-05
-5.30608e-05
6.80672e-06
-2.50097e-05
2.284e-05
-2.56322e-06
2.95855e-05
1.71352e-05
2.1918e-05
3.43318e-05
8.38091e-06
3.41064e-05
1.12811e-05
2.52781e-05
1.42566e-05
1.33653e-05
1.36422e-05
-1.86798e-06
1.82294e-05
-1.33459e-05
5.16556e-06
-2.86775e-05
-2.63337e-06
-1.09815e-05
1.02286e-05
-3.71147e-07
-1.24636e-05
-1.54256e-06
1.14463e-05
-1.60351e-05
1.58875e-05
-5.3007e-05
-1.70424e-05
-4.89415e-05
-6.74547e-05
-3.98141e-05
-7.82056e-05
-2.55061e-05
-6.72731e-05
-6.7022e-06
-4.37107e-05
1.04802e-05
-1.96624e-05
2.23806e-05
5.305e-06
2.7176e-05
2.95952e-05
2.35772e-05
3.92464e-05
1.83186e-05
3.83034e-05
1.63924e-05
1.52695e-05
1.50868e-05
-6.71933e-07
2.3086e-05
-1.94972e-05
-8.93994e-07
-4.58351e-06
-6.35852e-06
-4.4418e-06
3.87017e-06
6.97497e-06
2.28056e-05
1.55594e-06
3.72302e-05
-4.54031e-06
2.594e-05
-7.28818e-06
9.09446e-08
-1.49196e-05
-4.21174e-06
-1.97812e-05
-3.06963e-06
-1.67611e-05
-1.24615e-05
-1.16453e-05
-2.05167e-05
-9.69801e-06
-2.16341e-05
-1.02277e-05
-1.27521e-05
-1.05115e-05
-2.47941e-06
-1.29353e-05
3.31288e-06
-1.75204e-05
8.1372e-06
-2.48242e-05
1.19621e-05
-3.0161e-05
9.17915e-06
-3.33883e-05
-2.43032e-06
-3.31645e-05
-1.96595e-05
-2.43627e-05
-3.74956e-05
-4.68241e-06
-4.91681e-05
1.75311e-05
-3.70902e-05
2.90742e-05
-5.33784e-06
2.23098e-05
2.66206e-05
3.81395e-05
2.20404e-05
2.09537e-05
1.84764e-06
1.80356e-05
4.01484e-05
5.34207e-06
3.86335e-05
-4.452e-06
9.88502e-06
-1.11303e-05
2.46656e-06
-1.9022e-05
4.82207e-06
-3.24977e-05
1.01412e-06
-4.79999e-05
-4.2281e-06
-4.59892e-05
-6.28405e-06
-3.51996e-05
-3.13384e-06
-4.22372e-05
1.25375e-06
-3.98748e-05
4.05484e-06
-3.78285e-05
6.39423e-06
-4.89234e-05
7.75679e-06
-8.08118e-05
6.81561e-06
-9.04636e-05
2.15029e-06
-9.30456e-05
-4.60412e-06
-9.84557e-05
-2.38943e-05
-8.38287e-05
-6.70114e-05
-5.35821e-05
-6.73251e-05
-2.71043e-05
-3.17726e-05
-7.37287e-06
6.9322e-06
2.56601e-05
5.09875e-06
2.49472e-05
-2.31415e-05
2.70431e-05
3.80047e-05
1.32218e-05
5.24565e-05
-1.09065e-05
3.40133e-05
-4.26664e-05
3.42264e-05
-7.98934e-05
4.20492e-05
-0.000106069
3.00626e-05
-7.66603e-05
4.82739e-06
-6.82344e-05
4.55999e-07
-5.94622e-05
1.03682e-06
-8.87891e-05
2.32655e-06
-9.18813e-05
9.76482e-06
-0.000100771
1.71622e-05
-0.000108577
1.81806e-05
-8.01762e-05
5.75911e-06
-3.23678e-05
-9.10831e-09
-1.89055e-05
-4.70088e-06
-3.74017e-05
-1.14544e-05
-9.42077e-05
-1.89804e-05
-0.000123827
-4.76182e-05
-0.000112538
-4.30499e-05
-0.000102182
-3.4076e-06
1.39115e-05
-9.0444e-05
1.10246e-05
-3.4206e-05
1.45769e-05
3.45685e-05
-4.36439e-06
7.14082e-05
-4.98717e-05
7.95206e-05
-0.000109908
9.42697e-05
-0.00015744
8.96978e-05
-0.00015293
4.33811e-05
-0.000111711
5.7295e-06
-9.46674e-05
1.56788e-06
-0.000109273
5.37646e-06
-0.000110023
6.2334e-06
-6.372e-05
2.79991e-06
-3.19182e-05
3.62249e-06
-2.0836e-05
2.88904e-06
-1.48013e-05
-6.78408e-08
-1.09921e-05
-5.91459e-06
-6.81309e-06
-9.73462e-06
-3.9209e-06
-1.48366e-05
-1.20359e-05
-1.13728e-05
-7.35425e-05
-9.36672e-06
-0.000129245
-9.47204e-06
-0.000135646
-5.5796e-07
2.62338e-06
-0.000101736
-9.00957e-06
-2.52385e-05
-2.17746e-05
4.73441e-05
-5.38983e-05
0.000103543
-0.000109801
0.00013543
-0.000164499
0.000149092
-0.000175464
9.66278e-05
-0.000143161
1.78567e-05
-8.94208e-05
1.40199e-06
-3.37841e-05
-1.57059e-06
-2.39619e-05
-1.84383e-06
-1.89429e-05
-4.77389e-07
-1.68258e-05
-1.07479e-07
-1.43443e-05
-5.44507e-08
-1.15513e-05
-1.09934e-06
-8.13121e-06
-4.82605e-06
-2.72439e-06
-1.2345e-05
-4.29731e-06
-1.66341e-05
-3.99545e-06
-1.3577e-05
-2.83494e-06
-9.6356e-06
-2.10654e-06
-7.1557e-06
-9.43049e-06
-1.71758e-06
-3.5367e-05
-1.02364e-06
9.35739e-07
-3.35821e-05
-3.24185e-05
6.81003e-06
-7.132e-05
8.62538e-05
-0.000115584
0.000147813
-0.000152406
0.00017226
-0.000108517
0.000109685
-2.45884e-05
1.91741e-05
-1.05491e-05
2.58219e-06
-1.82346e-05
6.59565e-08
-4.07357e-05
-3.02095e-06
-3.50897e-05
-6.13142e-06
-2.82129e-05
-6.0813e-06
-2.0777e-05
-6.11483e-06
-1.4515e-05
-5.27753e-06
-1.06307e-05
-7.65672e-06
-6.86403e-06
-4.9869e-06
-9.58474e-06
-7.38934e-06
-6.50208e-06
-8.36628e-06
-2.09244e-06
-5.16714e-06
-7.17598e-07
-1.85483e-07
-2.30494e-06
-5.24986e-07
4.42778e-07
-3.68215e-06
1.37294e-06
-8.93273e-09
6.66903e-07
2.46437e-07
-5.7957e-05
5.53436e-05
-0.000123408
0.000151701
-0.000154652
0.000178979
-0.00010779
0.000109885
-1.9981e-05
2.04505e-05
-4.67161e-06
3.98815e-06
-2.79333e-06
6.95817e-07
-2.86607e-06
1.019e-07
-1.74611e-05
-3.56102e-07
-2.83265e-05
-2.71871e-06
-2.83622e-05
-4.61184e-06
-2.43631e-05
-8.5978e-06
-2.03131e-05
-7.38602e-06
-1.92806e-05
-2.77922e-06
-1.06081e-05
-1.91829e-07
-3.7292e-06
-8.10364e-07
-4.41898e-07
-1.46127e-06
-2.17069e-09
-1.06535e-06
1.94241e-08
-1.85752e-07
-4.87485e-07
-8.82978e-09
-3.10185e-06
-1.83122e-08
-7.56802e-07
-1.45771e-06
7.04123e-08
1.90628e-07
-6.13702e-05
7.87902e-05
-0.000144387
0.000208426
-0.000100377
9.18245e-05
-2.04674e-05
1.64089e-05
-4.02719e-06
4.12914e-06
-8.4506e-07
8.05662e-07
-2.73288e-07
1.24919e-07
-1.90161e-07
2.0119e-08
-5.45664e-07
-1.35977e-10
-3.26196e-06
-7.84679e-10
-1.26025e-05
-3.3384e-09
-1.51589e-05
-1.20905e-08
-2.98549e-06
-4.09108e-08
-1.41281e-07
-2.94186e-08
-2.90405e-07
-4.94923e-08
-3.94091e-07
-7.19966e-07
-2.63859e-07
-2.0397e-06
-1.0659e-07
-1.81203e-06
-1.10463e-08
-2.95103e-07
-4.6805e-09
1.46907e-08
-3.03506e-07
4.50028e-08
-1.47427e-06
-3.94827e-09
-2.37519e-08
-1.04388e-06
-1.92831e-05
6.73995e-05
-5.64809e-05
0.000104381
-1.86298e-05
1.65564e-06
-4.3235e-06
2.04564e-06
-8.1334e-07
6.4225e-07
-1.27187e-07
1.19541e-07
-1.86279e-08
1.61405e-08
-5.73653e-11
1.52574e-09
-1.94171e-10
1.62106e-12
-9.61851e-10
-1.42187e-11
-4.16344e-09
-1.21375e-10
-1.55219e-08
-6.51272e-10
-5.31553e-08
-2.90193e-09
-7.15587e-08
-1.02524e-08
-6.87595e-08
-4.97808e-08
-3.31738e-07
-7.68473e-07
-9.93212e-07
-1.70091e-06
-6.23199e-07
-1.77064e-06
-1.03112e-07
-1.00935e-06
-2.51841e-08
-2.79344e-08
-6.59493e-09
1.73965e-08
-5.06142e-09
-1.44989e-08
-4.17941e-08
4.23078e-09
1.08095e-05
7.5661e-05
-1.27418e-06
1.77941e-05
-2.20305e-06
2.2381e-06
-6.64168e-07
4.88973e-07
-1.24269e-07
1.0759e-07
-1.50744e-08
1.09775e-08
-1.28369e-09
2.40419e-09
-9.13729e-12
2.41054e-10
-7.84843e-12
3.83996e-13
-2.18609e-11
-2.09312e-13
-1.40725e-10
-2.43514e-12
-7.69213e-10
-2.16734e-11
-3.48585e-09
-1.71924e-10
-1.25644e-08
-1.01258e-09
-5.59368e-08
-5.43679e-09
-7.30829e-07
-1.76413e-07
-1.078e-06
-9.07495e-07
-1.0805e-06
-1.36981e-06
-6.79656e-07
-9.63962e-07
-2.99257e-08
-1.85299e-08
-2.02778e-08
1.02691e-09
-1.49019e-08
-2.91747e-08
-9.58914e-08
3.71926e-09
1.19171e-05
6.42732e-05
-1.03818e-06
2.11086e-05
-4.1215e-07
1.50858e-06
-1.1093e-07
1.58229e-07
-2.27306e-08
2.52365e-08
-5.95338e-09
5.23336e-09
-2.21376e-10
1.29809e-08
-5.57101e-13
2.03054e-11
-2.69253e-13
9.8482e-14
-4.37979e-13
-4.45017e-14
-2.67967e-12
-2.06048e-13
-2.3603e-11
-8.56338e-13
-1.892e-10
-6.17754e-12
-1.14993e-09
-3.88978e-11
-6.22306e-09
-1.81148e-10
-1.78826e-07
-2.24251e-09
-7.26714e-07
-1.56851e-08
-1.19495e-06
-8.37932e-08
-1.28057e-07
-2.33288e-07
-1.57852e-07
-2.087e-08
-1.18956e-07
-4.50848e-08
-4.44659e-07
-3.575e-07
-7.09968e-07
-4.91296e-07
4.30404e-06
6.03329e-05
-9.34853e-07
1.84287e-05
-1.17846e-07
7.33972e-07
-1.93579e-08
5.12224e-08
-2.66049e-09
6.40217e-09
-2.69642e-09
3.67778e-09
-1.10867e-09
1.76272e-08
-9.00586e-14
3.29107e-10
-9.43631e-14
9.98393e-14
-1.08214e-13
-3.37299e-14
-1.62539e-13
-1.55165e-13
-5.80455e-13
-4.51476e-13
-3.88417e-12
-2.96571e-12
-2.34787e-11
-1.9558e-11
-1.50834e-10
-7.72821e-11
-1.83664e-09
-4.31517e-10
-1.50199e-08
-1.48433e-09
-9.22989e-08
-5.5877e-09
-5.43418e-08
-9.54504e-09
-4.32241e-08
-1.03079e-08
-3.78665e-07
-3.23611e-08
-1.32753e-06
-4.59246e-07
-6.59918e-07
-1.23368e-06
1.31305e-06
1.94703e-05
-4.40488e-07
1.31795e-05
-2.95727e-08
4.33677e-07
-2.20217e-09
1.90667e-08
-4.07087e-11
1.82364e-09
1.01415e-11
3.72675e-10
-4.49519e-11
2.03591e-08
-2.19173e-14
2.25826e-09
-3.37068e-14
1.0846e-13
-5.15046e-14
-1.81905e-14
-4.15124e-14
-1.21373e-13
-7.81911e-14
-4.52373e-13
-1.4635e-12
-2.30585e-12
-2.19939e-11
-5.03809e-11
-1.21851e-10
-4.85186e-11
-3.02556e-10
-4.10394e-10
-1.47505e-09
-5.42342e-10
-6.0958e-09
-1.17341e-09
-1.7895e-08
-1.64212e-09
3.46742e-09
-7.65417e-09
-1.47226e-08
-7.62644e-09
-7.08927e-07
-5.35861e-08
-2.24827e-07
-1.34528e-06
-2.67738e-07
4.79104e-06
-3.02264e-07
5.26541e-06
-1.06599e-08
1.61123e-07
-5.15622e-10
8.52748e-09
2.92851e-13
6.303e-10
5.07871e-11
1.69516e-10
8.43957e-11
1.67315e-09
-2.59797e-12
1.74764e-09
-4.50031e-14
1.61328e-11
-7.7021e-14
1.00618e-14
9.73473e-14
-7.14885e-14
4.41974e-13
-9.58424e-13
9.31024e-12
-1.49595e-11
-5.02813e-10
-9.76558e-11
-7.29453e-10
-1.43302e-09
-1.27024e-09
-1.00058e-10
-1.34165e-09
-6.77359e-10
-4.18597e-09
-1.13977e-11
-1.46133e-08
-1.90618e-10
-7.14926e-09
-3.75234e-09
-1.09542e-08
-4.07014e-10
-6.40915e-08
-5.0108e-10
-1.51795e-09
-2.87423e-07
-1.4437e-07
2.89085e-06
-7.70271e-08
2.71022e-06
-5.14554e-09
8.69761e-08
-3.44294e-10
3.45587e-09
-1.94363e-11
2.10656e-10
-1.57004e-11
3.47992e-11
-8.00514e-12
9.07784e-11
9.84132e-13
1.40605e-11
-1.665e-13
1.2056e-11
-2.31978e-13
6.57674e-14
-3.66507e-13
4.77427e-14
-1.19932e-12
-8.95289e-13
-1.05211e-11
-1.62534e-11
-1.64157e-10
-1.35344e-10
-9.73197e-09
-1.38304e-09
-6.06675e-09
-1.40582e-08
-7.34806e-09
-1.30783e-09
-1.63685e-08
2.30817e-09
-1.35336e-08
1.32198e-09
-1.4601e-09
-8.1572e-10
-5.99266e-10
-2.64673e-10
-8.49832e-10
-3.10917e-10
-3.31635e-10
-2.1128e-09
-1.24802e-06
5.0877e-05
-6.26241e-08
1.51692e-06
-2.59889e-09
2.62706e-08
-1.33202e-10
9.07927e-10
-8.35603e-12
6.41973e-11
-7.44122e-12
2.34256e-11
-3.7513e-12
3.07143e-11
-2.9672e-12
9.91035e-12
-2.58116e-13
1.83787e-12
-4.25971e-13
2.24237e-13
-1.16597e-12
6.80383e-13
-3.93065e-12
2.24692e-13
-2.91333e-11
-7.42571e-12
-2.11416e-10
-8.76722e-11
-2.71561e-09
-8.5177e-10
-7.43722e-08
-1.90701e-08
-8.35853e-08
-9.10788e-08
-1.52412e-08
-5.07034e-08
-5.56451e-09
1.16265e-10
-9.57631e-10
1.32003e-10
-4.12192e-10
-1.91247e-10
-4.19084e-10
-3.80684e-10
-3.85134e-10
-4.59356e-10
-1.09382e-06
6.92798e-05
-1.47568e-08
4.35434e-07
-5.56147e-10
1.18664e-08
-1.68641e-11
3.26919e-10
-1.48019e-12
3.81749e-11
-1.58471e-12
1.81061e-11
-1.61565e-12
2.18735e-11
-5.1309e-13
8.22794e-12
-3.25314e-13
1.32466e-12
-1.42903e-12
1.21951e-12
-1.00808e-11
9.00681e-12
-1.26529e-11
8.74631e-13
-2.95089e-11
-5.00071e-12
-1.83765e-10
-3.71435e-11
-1.38417e-09
-4.21226e-10
-1.48137e-07
-6.24788e-09
-1.90234e-07
-8.8526e-08
-9.8565e-08
-1.32744e-07
-1.28927e-09
-6.09279e-08
-3.97744e-10
-7.16186e-10
-5.48473e-10
-2.77329e-11
-5.46823e-10
-1.09661e-10
-1.85723e-10
-3.98066e-10
-1.64249e-07
7.00905e-05
5.16836e-09
2.4826e-07
2.05935e-11
1.70971e-08
8.78723e-13
3.45962e-10
7.20089e-13
3.2074e-11
-5.4026e-13
1.53243e-11
-1.49572e-12
2.28506e-11
-2.10665e-12
8.79007e-12
-2.77897e-11
2.64268e-11
-2.51417e-10
2.245e-10
-2.60078e-11
3.33769e-10
-4.34289e-11
-1.57332e-12
1.03421e-11
3.20701e-12
1.94952e-11
-4.62978e-11
-4.18095e-10
-7.49708e-11
-1.65451e-08
-5.84115e-10
-1.68817e-07
-2.80325e-08
-1.73309e-07
-1.13655e-07
-6.84692e-08
-1.46204e-07
-1.18482e-09
-5.89392e-08
-2.49163e-10
-9.20044e-10
-5.92652e-10
-7.88238e-11
-1.78426e-11
-6.66261e-10
6.55972e-07
7.00674e-05
3.23626e-08
9.96235e-07
1.45111e-09
4.81667e-08
7.22832e-11
1.72214e-09
7.13299e-12
9.32649e-11
-1.03837e-12
1.80568e-11
-1.67706e-11
3.73626e-11
-2.83044e-10
2.75091e-10
-6.25306e-09
6.00467e-09
-8.75146e-10
2.1996e-08
-3.10255e-09
5.70912e-09
-4.45026e-10
6.34957e-11
-3.42841e-10
-1.37775e-10
-2.15657e-10
-3.25726e-10
-3.32514e-10
-1.08488e-10
-9.36842e-10
-3.91323e-11
-3.52427e-08
-7.82951e-10
-1.50514e-07
-4.17136e-08
-1.40299e-07
-1.36856e-07
-3.66311e-08
-1.43043e-07
-2.97526e-10
-4.24329e-08
-1.32931e-10
-4.81285e-10
-1.17671e-10
-4.23535e-10
1.25212e-06
6.93717e-05
3.92101e-08
2.65211e-06
2.71033e-09
8.3987e-08
1.8917e-10
4.19834e-09
1.25477e-11
2.72148e-10
-9.37656e-12
3.62529e-11
-6.16074e-10
6.51648e-10
-1.0563e-08
1.31353e-08
-3.36982e-08
7.21504e-08
-5.71684e-08
4.97501e-08
-5.42275e-08
2.06178e-08
-1.18026e-08
-3.49575e-09
-1.79489e-09
-8.289e-09
-2.67247e-10
-1.99297e-09
-5.05146e-11
-3.8458e-10
-8.86003e-11
-3.22984e-11
-8.58627e-10
-2.00529e-11
-4.13367e-08
-1.15427e-12
-1.21746e-07
-4.34802e-08
-1.11366e-07
-1.32094e-07
-2.33098e-08
-1.21323e-07
-2.73519e-10
-2.37654e-08
-3.2512e-10
-2.7729e-10
1.21149e-06
1.26032e-05
6.4523e-08
6.07925e-06
6.36582e-09
1.42598e-07
4.95493e-10
1.00503e-08
3.524e-11
7.41589e-10
3.46238e-12
6.95175e-11
-1.90089e-10
1.24936e-09
-1.96687e-08
7.87598e-08
-3.406e-08
9.30595e-08
-4.43797e-08
6.57157e-08
-5.0249e-08
2.78678e-08
-6.70493e-08
-8.9537e-09
-2.92087e-08
-2.61866e-08
-3.03404e-09
-3.70324e-08
-1.77505e-10
-3.35476e-09
-2.9944e-12
-2.13938e-10
-1.08975e-15
-2.51727e-11
7.55953e-14
-2.81934e-12
-2.38041e-08
-2.3848e-12
-8.77989e-08
-1.00273e-09
-6.53925e-08
-9.89215e-08
-1.3924e-08
-8.92902e-08
-1.38074e-08
-7.00991e-10
4.86793e-07
3.54525e-07
5.86975e-07
4.81811e-06
5.87525e-08
1.09752e-06
5.80874e-09
6.50046e-08
5.00264e-10
6.17866e-09
5.31696e-11
5.23682e-10
1.17274e-09
7.44039e-10
1.5935e-09
1.15083e-07
-5.3284e-09
1.06009e-07
-1.24349e-08
6.24775e-08
-1.04096e-08
1.53061e-08
-1.92495e-08
-1.82873e-09
-1.59553e-08
-2.19685e-08
-2.90982e-09
-4.19035e-08
-4.53357e-10
-1.88451e-08
-1.47637e-11
-9.24007e-10
-6.97682e-13
-4.47153e-11
2.19455e-12
-6.78363e-12
4.69903e-13
-1.49974e-12
9.73702e-11
-2.56683e-12
-4.07015e-08
-2.63705e-13
-2.93224e-08
-6.33645e-08
-7.49433e-08
-2.83606e-09
1.66704e-07
3.61613e-08
7.65285e-07
3.38229e-07
1.25187e-07
1.84058e-06
4.84092e-08
5.19968e-07
7.81551e-09
4.8838e-08
1.51881e-09
6.94579e-09
1.02264e-08
7.73461e-09
3.20225e-08
9.94826e-08
3.10351e-08
1.13024e-07
1.62992e-08
7.72618e-08
6.15648e-09
2.43174e-08
3.85652e-09
-5.54462e-10
6.44018e-09
-1.57385e-08
1.03824e-08
-4.04209e-08
3.05455e-09
-3.05907e-08
-4.31524e-10
-7.36251e-09
-2.30534e-11
-4.89309e-10
7.47247e-13
-3.41514e-11
2.4754e-12
-3.38793e-12
4.80737e-13
-5.80536e-13
2.72044e-13
-6.10942e-14
2.1742e-08
-2.71702e-13
-1.77655e-08
2.29636e-08
1.59774e-08
3.88243e-09
2.3971e-07
4.48063e-08
4.43657e-07
2.74072e-07
8.937e-08
6.21993e-07
5.49034e-08
2.81897e-07
1.43947e-08
4.95192e-08
1.95902e-08
2.1684e-08
6.06554e-08
7.42453e-08
7.31939e-08
1.06513e-07
6.97508e-08
8.59299e-08
4.69587e-08
4.64438e-08
2.60315e-08
2.88215e-09
1.95827e-08
-1.69672e-08
1.95218e-08
-4.01667e-08
1.56995e-08
-3.41937e-08
-4.55752e-10
-9.9802e-09
-3.80081e-11
-1.04268e-09
-2.86823e-12
-8.63775e-11
2.70146e-13
-7.936e-12
3.5573e-13
-8.60037e-13
4.49381e-13
-1.52479e-13
2.34057e-13
-4.64347e-14
-1.85733e-13
5.8637e-08
1.52614e-09
3.93344e-10
2.99649e-08
5.5318e-09
1.33767e-07
2.17406e-08
2.75238e-07
4.596e-08
1.06798e-07
1.77664e-07
3.08153e-08
1.3093e-07
3.66577e-08
4.01466e-08
6.18568e-08
4.76135e-08
1.0215e-07
7.15308e-08
1.10697e-07
8.18055e-08
1.08826e-07
5.10169e-08
5.32972e-08
5.88084e-09
4.24312e-08
-9.46112e-09
3.01864e-08
-2.71702e-08
1.60456e-08
-2.69621e-08
4.18656e-10
-9.55419e-09
2.43796e-11
-8.92964e-10
2.51584e-12
-9.95996e-11
2.43189e-13
-1.06851e-11
5.13728e-14
-1.23821e-12
8.89525e-14
-1.55956e-13
1.61755e-13
-2.39174e-14
-1.65553e-14
3.33256e-14
1.63866e-10
3.71127e-11
3.82929e-09
5.13627e-10
1.95599e-08
2.26012e-09
5.219e-08
6.16528e-09
1.07001e-07
9.67415e-09
7.34375e-08
5.44687e-08
5.71528e-08
4.70911e-08
5.76053e-08
4.4195e-08
7.96416e-08
4.47706e-08
9.24195e-08
4.02099e-08
6.39423e-08
2.4314e-08
5.44427e-08
8.03348e-09
4.45468e-08
-3.2256e-09
3.82557e-08
-1.11539e-08
2.07818e-08
-1.42726e-08
8.72062e-10
-5.38942e-09
9.65201e-11
-4.5648e-10
1.13727e-11
-6.63937e-11
1.42254e-12
-8.13093e-12
2.16808e-13
-1.04359e-12
5.18505e-14
-1.42184e-13
2.07215e-14
-2.19469e-14
-5.30659e-15
6.98271e-15
1.77067e-11
2.72332e-12
3.55735e-10
3.65139e-11
2.11448e-09
1.31066e-10
6.91613e-09
6.42323e-10
1.61835e-08
3.08181e-09
4.0675e-08
2.55131e-09
4.58974e-08
3.78783e-08
4.97515e-08
3.29183e-08
5.58329e-08
3.30092e-08
5.97613e-08
2.83142e-08
5.6138e-08
2.06734e-08
4.7485e-08
1.07349e-08
5.28895e-08
5.72906e-09
4.44253e-08
1.04795e-09
2.27545e-08
-1.35181e-09
7.0668e-10
-5.48892e-10
1.00069e-10
-1.19805e-10
1.25996e-11
-2.12598e-11
1.63513e-12
-3.22858e-12
2.38672e-13
-4.65923e-13
4.2679e-14
-6.49011e-14
9.71409e-15
-9.72639e-15
-1.58019e-15
3.20904e-15
1.32336e-12
1.50949e-13
2.40244e-11
2.01713e-12
1.24717e-10
6.1961e-12
6.20674e-10
1.13309e-10
5.60443e-09
2.9986e-10
4.49514e-08
9.95513e-09
6.25043e-08
2.86288e-08
5.95033e-08
4.09779e-08
5.26234e-08
4.07656e-08
4.85155e-08
2.77959e-08
4.39756e-08
1.97643e-08
5.86841e-08
2.33792e-08
5.65338e-08
1.97047e-08
4.88643e-08
1.21031e-08
8.83095e-09
2.58841e-09
3.51572e-10
1.87618e-10
5.18925e-11
8.95894e-12
7.05794e-12
-1.86818e-12
9.41466e-13
-5.61688e-13
1.31214e-13
-9.71097e-14
1.85748e-14
-1.36256e-14
3.87714e-15
-2.14225e-15
-2.8184e-16
1.07902e-15
6.30199e-14
8.11665e-15
1.13219e-12
7.43595e-14
6.07856e-12
6.31276e-14
1.15924e-10
2.8784e-12
1.03326e-08
2.49694e-10
2.6114e-08
5.89785e-09
3.80479e-08
1.84991e-08
4.92368e-08
3.11187e-08
5.04304e-08
4.05642e-08
3.96075e-08
3.94111e-08
5.19388e-08
3.56388e-08
4.77639e-08
2.59924e-08
4.02444e-08
2.23217e-08
1.4461e-08
7.57453e-09
1.6277e-10
1.05884e-10
4.60108e-11
3.01371e-11
9.50208e-12
3.07257e-12
1.51257e-12
1.65367e-13
2.12225e-13
-3.66099e-14
3.09705e-14
-1.07782e-14
5.18276e-15
-1.80145e-15
8.02615e-16
-2.92281e-16
-3.8509e-17
3.22919e-16
1.73657e-15
5.3871e-16
2.6285e-14
1.21561e-16
6.91324e-14
3.08639e-15
2.73243e-12
6.59074e-14
4.16152e-10
1.234e-11
3.27621e-09
4.96051e-10
1.13255e-08
1.19586e-08
1.9488e-08
2.45753e-08
2.72931e-08
3.40891e-08
3.12331e-08
3.64633e-08
3.28121e-08
3.48679e-08
2.74376e-08
2.65819e-08
5.9809e-09
6.04613e-09
1.8166e-10
-1.61123e-10
3.48008e-11
-1.61447e-11
6.51087e-12
7.85148e-13
1.04087e-12
3.13638e-13
1.99654e-13
3.61653e-14
3.41462e-14
1.283e-15
5.88672e-15
-7.14273e-16
9.89565e-16
-1.78312e-16
1.1021e-16
-2.86927e-17
-3.52344e-18
2.05471e-17
5.88889e-17
1.47767e-16
7.53875e-16
2.29335e-15
2.60902e-16
1.95047e-15
-3.68694e-14
2.79348e-14
1.27717e-11
3.3692e-13
-5.65755e-10
-5.5972e-11
-1.89441e-09
-1.62833e-10
-3.38842e-10
3.91864e-09
4.76041e-09
7.50485e-09
7.06284e-09
8.88836e-09
5.44417e-09
5.03093e-09
1.87837e-09
5.43843e-11
3.68464e-10
-1.44486e-10
5.84812e-11
-2.44239e-11
8.29846e-12
-3.38369e-12
1.05704e-12
-2.73423e-13
1.50854e-13
6.61201e-15
2.50365e-14
3.60294e-15
6.23172e-15
6.44951e-16
1.10855e-15
-1.95324e-17
1.17034e-16
-1.32839e-17
1.0213e-17
-2.24968e-18
-2.61267e-19
2.57636e-18
4.41866e-18
3.72337e-17
6.69167e-17
1.87192e-15
-1.0965e-17
1.46056e-15
4.07738e-14
2.61377e-15
5.11746e-13
1.44235e-14
-5.1447e-11
-2.18955e-12
-3.10384e-10
-1.32601e-11
-5.91828e-10
-2.69864e-11
-2.42438e-10
5.78356e-11
3.49994e-10
1.25443e-10
4.66666e-10
7.0098e-11
2.71696e-10
1.73921e-12
5.46604e-11
-1.06704e-11
9.38006e-12
-2.78132e-12
1.28551e-12
-5.12177e-13
1.59874e-13
-4.96444e-14
2.05115e-14
-1.83631e-15
6.81897e-15
1.59947e-15
1.25558e-15
1.77709e-16
1.16196e-16
3.73536e-18
1.00328e-17
-7.45028e-19
8.13036e-19
-1.44896e-19
-1.63414e-20
2.55427e-19
2.33127e-19
6.18329e-18
1.18669e-18
5.42283e-16
-5.33562e-17
6.10229e-16
1.02227e-15
9.03389e-16
3.26685e-14
1.08024e-15
-1.92891e-12
-7.63808e-14
-1.58771e-11
-4.39811e-13
-5.18666e-11
4.28752e-14
-2.89242e-11
4.46499e-12
3.44389e-11
9.26515e-12
5.01449e-11
5.67455e-12
2.48693e-11
-1.24759e-13
6.09752e-12
-9.30169e-13
1.15339e-12
-2.82559e-13
1.7017e-13
-4.61979e-14
2.09389e-14
-2.99502e-15
6.40937e-15
1.96264e-15
1.25342e-15
3.34873e-16
1.14431e-16
2.07073e-17
9.42404e-18
6.94649e-19
7.51359e-19
-2.7008e-20
5.48331e-20
-7.56845e-21
-8.92826e-22
2.46448e-20
-3.11363e-19
6.75809e-19
-1.81981e-18
7.48055e-17
-2.05258e-17
1.11223e-16
-7.35898e-17
4.14159e-16
5.1484e-16
9.6643e-16
-4.87875e-14
-6.57763e-16
-5.48616e-13
-4.06659e-15
-1.17198e-12
7.89815e-14
4.37838e-13
3.83324e-13
4.24179e-12
6.95585e-13
4.93569e-12
4.05835e-13
2.30181e-12
-3.56367e-14
6.13804e-13
-6.84165e-14
1.2195e-13
-1.65341e-14
1.91643e-14
-4.1094e-16
4.81675e-15
1.74854e-15
9.64224e-16
3.56613e-16
9.73511e-17
2.83367e-17
8.62331e-18
1.78906e-18
6.69898e-19
7.39321e-20
4.72275e-20
-7.03164e-23
3.15014e-21
-3.15623e-22
-4.16084e-23
1.53365e-21
-1.06295e-19
6.39811e-20
-1.64161e-19
7.55401e-18
-1.77617e-18
1.13869e-17
-1.79392e-17
7.0533e-17
-7.27446e-17
4.40964e-16
-1.20285e-15
1.05237e-15
-9.53794e-15
1.79368e-15
1.35548e-14
9.30512e-15
1.77175e-13
3.4114e-14
4.3495e-13
5.42294e-14
4.28625e-13
3.37e-14
1.9836e-13
2.59985e-15
5.39863e-14
-2.15926e-15
1.09834e-14
1.84626e-15
2.77739e-15
1.17022e-15
5.81007e-16
2.52263e-16
6.70795e-17
2.49026e-17
6.72018e-18
2.06622e-18
5.71587e-19
1.33613e-19
4.05262e-20
5.87905e-21
2.48183e-21
8.75285e-23
1.53323e-22
-1.0846e-23
-1.85971e-24
7.81623e-23
-1.16558e-20
5.97462e-21
1.21752e-20
8.32344e-19
4.80843e-21
1.05936e-18
-3.88316e-19
5.41291e-18
-2.69964e-18
5.69695e-17
9.34097e-18
3.22021e-16
4.12245e-16
8.22699e-16
4.67929e-15
5.93993e-16
1.87579e-14
3.58729e-15
3.60109e-14
5.47542e-15
3.43641e-14
3.39202e-15
1.49884e-14
7.33248e-17
4.18131e-15
1.47738e-15
1.27513e-15
5.93033e-16
2.69388e-16
1.3137e-16
3.70431e-17
1.59072e-17
4.30583e-18
1.64704e-18
4.14952e-19
1.36568e-19
3.28772e-20
8.64309e-21
2.14128e-21
3.85717e-22
1.17851e-22
8.68496e-24
6.95363e-24
-2.70007e-25
-7.42349e-26
3.85204e-24
-4.56218e-22
4.94945e-22
7.88909e-21
9.72059e-20
1.57332e-20
1.04243e-19
1.23378e-19
3.98724e-19
1.53881e-18
3.92909e-18
1.483e-17
3.37322e-17
9.72997e-17
1.66019e-16
5.23559e-16
3.5736e-16
1.63466e-15
7.18164e-16
2.75661e-15
9.29637e-16
2.44721e-15
8.20033e-16
1.15892e-15
4.95672e-16
4.41482e-16
2.25203e-16
9.65226e-17
4.88922e-17
1.64242e-17
7.63047e-18
2.25398e-18
9.84847e-19