/*--------------------------------*- C++ -*----------------------------------*\
| =========                 |                                                 |
| \\      /  F ield         | OpenFOAM: The Open Source CFD Toolbox           |
|  \\    /   O peration     | Version:  2206                                  |
|   \\  /    A nd           | Website:  www.openfoam.com                      |
|    \\/     M anipulation  |                                                 |
\*---------------------------------------------------------------------------*/
FoamFile
{
    version     2.0;
    format      ascii;
    arch        "LSB;label=32;scalar=64";
    class       volScalarField;
    location    "1";
    object      p;
}
// * * * * * * * * * * * * * * * * * * * * * * * * * * * * * * * * * * * * * //

dimensions      [1 -1 -2 0 0 0 0];

internalField   nonuniform List<scalar> 
2268
(
1313.32
1302.55
1286.4
1262.64
1230.95
1192.7
1149.63
1103.89
1057.91
1014.14
974.886
939.118
914.726
898.276
885.66
877.759
876.604
874.662
866.896
857.348
850.359
847.235
848.156
1256.73
1245.19
1228.56
1204.6
1173.09
1134.78
1091.31
1045.05
998.491
954.201
913.905
881.275
856.569
839.153
825.149
817.091
817.206
815.493
807.508
797.854
790.542
787.377
789.131
1203.15
1190.32
1171.49
1147.23
1116.28
1077.73
1033.5
986.208
938.489
893.312
852.294
821.611
798.871
780.351
766.207
759.533
759.198
755.658
747.303
736.902
728.917
725.774
728.649
1150.21
1136.01
1115.03
1090.5
1060.45
1021.66
976.281
927.345
877.723
831.159
786.99
757.366
736.376
719.882
708.732
703.537
701.209
696.115
686.772
675.023
665.865
662.632
666.477
1097.34
1081.99
1059.28
1034.73
1005.79
966.714
919.717
868.432
815.938
766.399
720.204
690.103
670.286
657.968
650.973
647.028
643.486
637.147
626.347
612.452
602.309
599.103
603.473
1044.81
1028.71
1004.62
980.306
952.899
913.341
864.103
809.647
753.28
699.263
652.107
620.409
602.256
594.291
591.634
589.726
586.033
578.564
565.529
548.478
537.852
535.159
541.213
993.498
976.831
951.843
928.538
902.31
861.916
809.698
751.002
689.27
629.265
580.719
547.177
531.9
529.398
532.118
533.426
529.994
520.849
503.904
481.401
469.597
468.835
479.781
944.654
927.187
901.955
880.713
855.116
812.877
756.811
691.412
621.291
553.714
501.996
468.393
458.254
463.574
473.637
478.646
476.406
466.7
442.971
409.721
394.887
399.072
416.892
361.491
362.458
367.66
377.145
398.992
430.162
453.107
449.586
441.664
454.917
486.029
467.446
436.978
391.017
301.875
319.41
434.262
494.553
471.074
325.568
318.824
323.909
338.813
361.151
390.739
417.782
410.401
383.771
390.067
422.608
409.512
373.342
300.473
216.364
245.252
361.933
434.848
418.478
292.774
272.785
272.394
285.493
309.648
344.689
376.889
372.803
353.335
356.458
380.022
385.086
332.203
219.224
162.779
197.405
306.107
370.43
364.289
260.732
251.145
259.751
272.721
287.586
311.223
336.533
342.162
338.294
338.793
353.269
371.49
307.21
174.294
123.905
160.884
254.997
302.759
304.328
239.37
244.113
256.803
271.737
286.091
304.47
320.793
324.61
323.644
321
330.666
336.027
280.477
153.04
104.118
140.953
213.074
237.603
245.354
236.208
237.667
247.257
260.899
272.538
284.513
304.862
308.074
301.262
291.346
297.357
295.839
245.702
149.306
104.546
135.437
187.759
181.478
193.317
227.035
226.531
230.902
238.21
248.377
257.36
271.311
275.892
261.82
246.167
251.017
257.743
220.979
151.746
116.203
138.469
170.425
132.711
147.095
193.475
198.013
196.548
182.942
196.637
212.496
229.594
230.175
212.086
196.065
199.793
215.701
198.66
154.121
125.432
132.807
138.651
81.9677
102.073
871.203
853.026
828.822
813.503
787.443
741.168
677.614
598.793
511.18
429.204
376.666
353.796
350.164
363.165
382.476
392.102
393.759
385.296
348.074
289.922
268.144
282.747
316.199
777.848
761.561
745.34
737.161
708.458
658.165
584.533
485.114
374.332
301.383
270.405
253.82
247.733
253.108
253.814
236.407
225.267
224.633
198.982
134.191
90.4405
124.332
204.149
684.282
656.964
667.671
687.217
679.741
628.218
516.025
372.376
277.162
229.451
192.969
164.9
147.091
149.944
129.206
108.633
104.318
106.327
103.558
68.2734
14.9992
41.3378
130.841
555.202
516.135
575.453
620.992
619.645
555.986
412.693
258.972
168.579
128.848
109.697
82.2304
72.9928
73.4981
67.4108
68.9358
72.9185
73.155
73.4016
77.7397
81.346
70.0737
66.7959
459.732
407.207
455.865
488.423
469.515
348.891
161.159
83.9192
73.6561
72.4735
69.5681
64.1769
60.6285
55.7167
54.3408
53.7224
52.4301
48.3151
42.9903
41.8897
51.0207
37.5086
18.9936
428.346
363.835
325.501
284.497
181.034
66.2894
31.561
20.402
29.1405
46.0632
48.9198
47.5863
46.5431
41.1428
36.1083
32.0353
27.1318
17.5084
7.01118
6.35549
7.76143
4.33044
1.72636
507.661
399.205
230.743
101.104
24.481
7.58887
3.42432
2.3652
2.56039
7.45187
14.4616
21.3484
21.0252
8.95414
5.99321
9.10429
9.26385
3.5588
0.849347
0.309442
0.698254
1.39498
1.57601
540.249
408.104
128.865
18.818
2.39752
-0.435494
-1.2572
-1.52913
-1.74363
-2.00931
-1.10797
1.48415
1.62135
-0.152839
0.0787745
1.80452
3.20248
0.935131
-0.602994
-0.692633
-0.738191
-0.706871
0.514617
455.708
233.286
32.8997
4.8475
-0.284653
-1.56636
-2.01456
-2.22089
-2.38278
-2.43386
-2.36703
-2.26428
-2.04312
-1.54155
-1.01267
-0.33255
0.298479
-0.679082
-1.67158
-1.39859
-1.19471
-1.12534
-1.11514
301.592
37.8549
8.96317
1.62837
-1.22971
-2.12424
-2.50446
-2.70848
-2.82401
-2.81578
-2.68393
-2.43337
-2.12903
-1.90213
-1.73507
-1.59537
-1.43014
-1.85549
-2.74486
-1.7673
-1.14125
-0.980783
-1.30357
102.53
-1.20317
0.357923
-1.01197
-1.99605
-2.52487
-2.82616
-2.99064
-3.05182
-3.00446
-2.85267
-2.63123
-2.39934
-2.21786
-2.10968
-2.11603
-2.22623
-2.45851
-2.67668
-1.98229
-1.28625
-1.16805
-1.81745
44.5643
-5.51478
-2.09895
-2.41514
-2.5148
-2.81214
-2.98065
-3.10606
-3.13911
-3.08041
-2.93468
-2.7455
-2.56461
-2.41894
-2.31862
-2.284
-2.35698
-2.57151
-2.6475
-2.38613
-2.10707
-1.97144
-2.4018
20.0673
-4.1336
-2.35908
-2.92019
-2.74219
-3.01216
-3.04055
-3.15607
-3.16423
-3.10544
-2.98486
-2.84426
-2.71482
-2.6012
-2.51146
-2.46355
-2.47008
-2.55082
-2.64827
-2.68275
-2.68192
-2.71364
-2.90143
-2.68487
-3.37923
-2.65608
-3.15531
-2.90377
-3.1499
-3.11319
-3.19737
-3.17752
-3.13152
-3.05143
-2.96952
-2.88947
-2.80525
-2.73144
-2.68567
-2.65672
-2.68864
-2.8295
-2.99154
-3.06385
-3.09979
-3.16684
-5.0414
-4.12348
-3.09034
-3.37574
-3.14129
-3.30033
-3.22512
-3.26467
-3.22819
-3.20214
-3.17773
-3.15411
-3.11542
-3.05693
-2.99738
-2.93372
-2.84764
-2.84459
-3.04898
-3.27926
-3.36577
-3.32466
-3.26116
-7.83337
-4.77276
-3.4999
-3.64084
-3.39759
-3.4544
-3.37289
-3.36875
-3.34077
-3.35276
-3.3811
-3.40415
-3.39542
-3.35621
-3.31206
-3.24106
-3.10282
-3.01266
-3.18397
-3.45007
-3.55257
-3.489
-3.39843
1.62966
-3.75769
-3.77181
-3.85409
-3.59831
-3.61267
-3.52185
-3.51858
-3.52544
-3.59129
-3.66918
-3.7212
-3.72437
-3.68604
-3.64844
-3.62027
-3.49805
-3.30619
-3.32259
-3.48
-3.61591
-3.5788
-3.4904
0.224357
-3.12143
-3.7518
-3.91069
-3.71782
-3.73502
-3.6815
-3.73159
-3.81822
-3.96206
-4.0801
-4.13637
-4.1077
-4.03212
-3.96457
-3.93847
-3.87452
-3.68429
-3.53304
-3.57301
-3.65226
-3.63161
-3.58132
5.61331
-2.87668
-3.834
-3.85179
-3.79653
-3.84362
-3.88036
-4.04318
-4.26443
-4.51331
-4.66838
-4.68268
-4.58666
-4.41348
-4.25495
-4.15789
-4.09138
-3.98551
-3.81634
-3.7278
-3.71437
-3.70874
-3.6815
14.4533
-4.22883
-3.9101
-3.78669
-3.88701
-3.99417
-4.15218
-4.49731
-4.94523
-5.38349
-5.59641
-5.51939
-5.25191
-4.88874
-4.56914
-4.35239
-4.22215
-4.13776
-4.02823
-3.90699
-3.83753
-3.79584
-3.8011
13.5397
-5.44258
-3.75079
-3.86034
-4.03912
-4.18504
-4.48549
-5.07607
-5.86879
-6.59567
-6.94747
-6.77642
-6.20013
-5.48508
-4.91662
-4.54394
-4.32312
-4.20749
-4.13133
-4.04194
-3.96264
-3.89976
-3.89358
-0.433617
-5.26208
-3.38173
-3.89459
-4.13143
-4.33444
-4.77479
-5.60502
-6.73336
-7.6716
-8.20022
-8.0865
-7.27896
-6.13975
-5.2472
-4.71104
-4.41284
-4.25164
-4.17115
-4.12561
-4.07686
-4.02733
-4.0099
-2.53265
-3.00221
-2.91786
-3.78497
-4.11792
-4.3905
-4.92314
-5.92812
-7.22467
-8.32116
-8.93879
-8.86486
-7.9832
-6.60999
-5.4679
-4.80592
-4.46555
-4.29093
-4.20241
-4.1701
-4.16262
-4.15125
-4.16734
-3.03366
-3.12457
-3.07672
-3.6096
-4.00375
-4.36137
-4.91435
-5.91422
-7.22433
-8.371
-9.03225
-8.9261
-8.06431
-6.67346
-5.46534
-4.78732
-4.46456
-4.30806
-4.23173
-4.19829
-4.1973
-4.22389
-4.22458
-3.19964
-3.18962
-3.21966
-3.39335
-3.78587
-4.23765
-4.78186
-5.64749
-6.76471
-7.75494
-8.31072
-8.17847
-7.39788
-6.2056
-5.19163
-4.64874
-4.40765
-4.29691
-4.2435
-4.21834
-4.2066
-4.201
-4.19257
-3.36706
-3.35265
-3.30892
-3.40292
-3.66975
-4.08585
-4.62004
-5.29155
-6.06971
-6.73223
-7.05593
-6.88329
-6.26253
-5.43076
-4.77628
-4.45063
-4.32055
-4.26659
-4.24161
-4.22855
-4.2184
-4.20468
-4.18112
-3.5635
-3.54642
-3.52273
-3.58575
-3.79083
-4.13619
-4.57939
-5.03366
-5.44665
-5.7318
-5.79622
-5.58858
-5.17101
-4.7199
-4.41217
-4.28259
-4.24488
-4.23892
-4.23949
-4.23912
-4.23424
-4.222
-4.20018
-3.7727
-3.76768
-3.77939
-3.8592
-4.04403
-4.3597
-4.74642
-5.03007
-5.13669
-5.0898
-4.93508
-4.71202
-4.47927
-4.30241
-4.21137
-4.19561
-4.21163
-4.23353
-4.25016
-4.25951
-4.26062
-4.25279
-4.23571
-3.98188
-3.98944
-4.02418
-4.11908
-4.30251
-4.60249
-4.94332
-5.12598
-5.06891
-4.85439
-4.59934
-4.38411
-4.2426
-4.17417
-4.16558
-4.18906
-4.22453
-4.25655
-4.28042
-4.2953
-4.30107
-4.29795
-4.28646
-4.17818
-4.19255
-4.23533
-4.32734
-4.48759
-4.72821
-4.98264
-5.1101
-5.0277
-4.80727
-4.56073
-4.37113
-4.26017
-4.21427
-4.21562
-4.2424
-4.27591
-4.30709
-4.33168
-4.34829
-4.35671
-4.35724
-4.35059
-4.35594
-4.37192
-4.41219
-4.48755
-4.60693
-4.76723
-4.92175
-5.0001
-4.92926
-4.77548
-4.59357
-4.44389
-4.35251
-4.31409
-4.31208
-4.32965
-4.35496
-4.38046
-4.40196
-4.41758
-4.42678
-4.42958
-4.42652
-4.51488
-4.52935
-4.56285
-4.61821
-4.69646
-4.78943
-4.86858
-4.89859
-4.85422
-4.75455
-4.63594
-4.53365
-4.46637
-4.43361
-4.42646
-4.4354
-4.45213
-4.47077
-4.4877
-4.50091
-4.50953
-4.51337
-4.51266
-4.65751
-4.66883
-4.69592
-4.73377
-4.78237
-4.83346
-4.87075
-4.87616
-4.84188
-4.77732
-4.70199
-4.63454
-4.58584
-4.55826
-4.54848
-4.55103
-4.56059
-4.57298
-4.58525
-4.59554
-4.60284
-4.60681
-4.60742
-4.78782
-4.79732
-4.81639
-4.84157
-4.8714
-4.8992
-4.9161
-4.91312
-4.88698
-4.84181
-4.79104
-4.74381
-4.70744
-4.68436
-4.67337
-4.67163
-4.6759
-4.68326
-4.69145
-4.69887
-4.70455
-4.70809
-4.70932
-4.91006
-4.9166
-4.92992
-4.94586
-4.96372
-4.97852
-4.98514
-4.97926
-4.95859
-4.9271
-4.89118
-4.85701
-4.82924
-4.80987
-4.79879
-4.79457
-4.79527
-4.79891
-4.80384
-4.80878
-4.81289
-4.81569
-4.81706
-5.02623
-5.03071
-5.03917
-5.04895
-5.05931
-5.06663
-5.06803
-5.06115
-5.04527
-5.02252
-4.99669
-4.97158
-4.9502
-4.93419
-4.92384
-4.91848
-4.91699
-4.91808
-4.92058
-4.92352
-4.92622
-4.92827
-4.92949
-5.13823
-5.14119
-5.14657
-5.15228
-5.15773
-5.16083
-5.15979
-5.15322
-5.14095
-5.12429
-5.10546
-5.08685
-5.07045
-5.05747
-5.04831
-5.04273
-5.04008
-5.03957
-5.04039
-5.04184
-5.0434
-5.04472
-5.04565
-5.24767
-5.24953
-5.25289
-5.256
-5.2586
-5.25943
-5.25738
-5.25168
-5.24233
-5.23012
-5.2164
-5.20267
-5.19024
-5.17998
-5.17227
-5.16706
-5.16402
-5.16265
-5.16241
-5.16283
-5.16352
-5.16422
-5.16482
-5.35555
-5.3567
-5.35871
-5.36027
-5.3613
-5.36105
-5.35884
-5.35426
-5.34735
-5.33859
-5.32881
-5.31893
-5.3098
-5.30201
-5.29588
-5.29145
-5.28853
-5.28685
-5.28606
-5.28584
-5.28592
-5.28614
-5.28646
-5.46263
-5.4633
-5.46445
-5.46514
-5.46539
-5.46478
-5.46292
-5.45959
-5.45481
-5.4489
-5.44232
-5.43562
-5.42934
-5.42384
-5.41936
-5.41596
-5.41355
-5.41197
-5.41103
-5.41051
-5.41024
-5.41013
-5.41014
-5.5692
-5.56951
-5.57013
-5.57038
-5.57033
-5.56979
-5.56855
-5.56651
-5.5637
-5.56027
-5.55646
-5.55257
-5.54887
-5.54559
-5.54284
-5.54068
-5.53908
-5.53796
-5.53722
-5.53674
-5.53645
-5.53629
-5.53631
-5.67607
-5.67625
-5.67643
-5.67642
-5.67635
-5.67615
-5.67572
-5.67503
-5.67408
-5.67293
-5.67163
-5.67029
-5.66898
-5.66777
-5.66671
-5.66582
-5.66511
-5.66454
-5.66408
-5.66371
-5.6634
-5.66319
-5.66315
314.858
296.243
185.737
120.945
250.934
217.462
73.5598
43.3212
166.039
119.118
43.5072
34.7763
70.8072
58.9773
32.4295
36.5864
17.0543
19.2856
25.7727
35.7901
6.18582
7.90604
7.44402
22.8702
3.23606
3.63331
3.3716
7.96529
0.814173
0.51847
0.578974
0.785974
-1.43704
-1.95825
-1.63328
-0.78116
-2.27619
-2.56555
-2.27673
-1.89894
-2.67801
-2.74511
-2.39227
-1.86418
-2.99469
-2.81338
-2.42493
-2.07086
-3.28051
-3.05478
-2.51239
-2.17533
-3.17747
-2.86408
-2.3736
-2.10353
-3.18866
-3.02052
-2.72439
-2.5712
-3.3189
-3.14128
-2.88224
-2.70233
-3.42429
-3.27454
-3.02951
-2.84233
-3.55826
-3.453
-3.20356
-2.98511
-3.70228
-3.64374
-3.37772
-3.12416
-3.85616
-3.83642
-3.54164
-3.24801
-3.981
-3.98962
-3.67822
-3.35946
-4.07843
-4.08384
-3.7916
-3.46417
-4.17646
-4.14999
-3.86291
-3.56337
-4.1867
-4.11857
-3.88151
-3.64686
-4.15772
-4.06048
-3.89236
-3.72739
-4.13697
-4.0538
-3.93898
-3.82278
-4.16072
-4.09228
-4.00785
-3.92444
-4.20438
-4.15231
-4.09023
-4.02853
-4.26363
-4.22507
-4.17935
-4.13355
-4.33508
-4.3074
-4.27412
-4.24019
-4.41672
-4.39749
-4.37364
-4.34873
-4.50698
-4.49411
-4.47737
-4.45934
-4.60454
-4.59631
-4.58489
-4.57211
-4.70821
-4.70327
-4.69577
-4.68703
-4.81698
-4.81427
-4.80969
-4.80412
-4.9299
-4.92872
-4.92635
-4.92333
-5.04625
-5.04614
-5.04549
-5.04458
-5.16546
-5.16613
-5.16689
-5.16771
-5.2871
-5.28836
-5.29025
-5.29252
-5.41083
-5.41248
-5.4153
-5.41882
-5.53641
-5.53822
-5.54196
-5.54659
-5.6635
-5.66593
-5.67052
-5.67604
117.842
118.784
99.5519
66.9632
96.8924
128.942
161.266
161.341
141.959
127.018
131.33
149.998
154.357
132.035
100.664
86.1125
52.7328
17.6202
43.3118
59.2979
57.4664
27.9861
12.7981
32.1507
64.1916
91.2737
83.9221
62.0937
53.1179
52.4735
63.3745
80.5294
76.2031
48.8234
21.8008
4.10918
2.81615
2.96505
41.5925
38.5755
17.9734
14.9302
23.5732
32.5978
47.1844
35.799
19.0052
32.0415
45.2571
50.2825
40.124
26.5446
9.19556
1.11862
1.44479
2.08633
2.16175
41.1513
39.7967
25.7647
22.1101
26.2814
25.6069
15.0827
6.96197
2.96349
2.42179
2.16557
2.02883
1.29094
1.14862
1.00218
0.993933
1.33615
1.68656
1.72055
47.1391
45.8874
37.0874
32.754
32.108
12.5709
2.64532
2.34732
2.31994
2.20743
1.86823
1.50387
1.18902
0.976589
0.841709
1.02424
1.26411
1.44757
1.41809
44.4433
47.2733
43.9909
39.3009
35.7648
5.58695
2.62916
2.48777
2.2657
1.92166
1.52424
1.22471
1.04448
0.943211
0.862612
0.910839
1.05997
1.16633
1.13989
16.7134
32.8782
32.2914
29.6655
18.9135
-3.53777
2.78112
2.98248
2.30309
1.50793
1.09059
0.941077
0.831446
0.735259
0.671373
0.6743
0.748449
0.842825
0.850546
2.659
7.98587
12.761
14.3171
12.2031
4.73827
-2.05985
2.69103
1.96091
1.05903
0.713366
0.646679
0.57254
0.4874
0.435721
0.427853
0.47097
0.548948
0.563378
-0.497482
-0.403217
-0.485189
-0.241753
5.39109
4.55809
-2.48164
-1.29627
0.815987
0.290674
0.234301
0.242469
0.201562
0.179364
0.173479
0.194496
0.238515
0.281366
0.268625
-1.52569
-1.38583
-1.2176
-0.920039
-1.07012
-0.332539
-6.61939
-4.2133
-1.85854
-0.846521
-0.35771
-0.23089
-0.175107
-0.150634
-0.117798
-0.0624072
0.00636014
-0.0378247
-0.0956493
-1.55547
-1.45624
-1.34662
-1.09299
-1.39583
-3.08713
-3.49869
-5.23948
-3.7762
-1.77637
-1.02078
-0.726368
-0.591403
-0.520535
-0.455392
-0.368484
-0.293129
-0.481961
-0.539597
-1.91767
-2.06689
-2.14195
-1.76353
-0.874006
-2.05554
-2.2733
-3.52486
-3.19526
-2.20769
-1.55885
-1.21519
-1.05315
-0.95342
-0.887741
-0.802293
-0.743122
-0.923478
-0.921324
-2.015
-1.32517
-1.12669
-1.26263
-1.90553
-2.34601
-2.87163
-3.09103
-2.68324
-2.21456
-1.85149
-1.61454
-1.47293
-1.37962
-1.35392
-1.35075
-1.28967
-1.23524
-1.15835
-2.28947
-2.32007
-2.2718
-2.25046
-2.27472
-2.4131
-2.55853
-2.53386
-2.37536
-2.16666
-2.00151
-1.89241
-1.80069
-1.72278
-1.72043
-1.80758
-1.77382
-1.53212
-1.36566
-2.53672
-2.49784
-2.42402
-2.3352
-2.27621
-2.27661
-2.28164
-2.25528
-2.21889
-2.16227
-2.11738
-2.09827
-2.06408
-2.00486
-1.97237
-2.10041
-2.12264
-1.89864
-1.64022
-2.61783
-2.56908
-2.52077
-2.46003
-2.39754
-2.33992
-2.28696
-2.25304
-2.24837
-2.24348
-2.24668
-2.26549
-2.2814
-2.24531
-2.19374
-2.25337
-2.31046
-2.19047
-1.9371
-2.75976
-2.70782
-2.6612
-2.61303
-2.56593
-2.51704
-2.47199
-2.43794
-2.40354
-2.38163
-2.38156
-2.39887
-2.43218
-2.42556
-2.36963
-2.36186
-2.39902
-2.35808
-2.19113
-2.87758
-2.81536
-2.76821
-2.7278
-2.69187
-2.65711
-2.62387
-2.58742
-2.54246
-2.51066
-2.49935
-2.50554
-2.52331
-2.53311
-2.50339
-2.47044
-2.47553
-2.45366
-2.38224
-2.99399
-2.91826
-2.86408
-2.81883
-2.78016
-2.74724
-2.71641
-2.68077
-2.64054
-2.61392
-2.60205
-2.60304
-2.60867
-2.61517
-2.60483
-2.57663
-2.56052
-2.54243
-2.51758
-3.10721
-3.02158
-2.96327
-2.9159
-2.87492
-2.83743
-2.80113
-2.76466
-2.73243
-2.71394
-2.7094
-2.7125
-2.7151
-2.71516
-2.70659
-2.68542
-2.66178
-2.6339
-2.61988
-3.21786
-3.12977
-3.07064
-3.02449
-2.98496
-2.94871
-2.91407
-2.88143
-2.8544
-2.83781
-2.83285
-2.83475
-2.83559
-2.8323
-2.82253
-2.80454
-2.78276
-2.7502
-2.73335
-3.3274
-3.24257
-3.18496
-3.14146
-3.10445
-3.07088
-3.03962
-3.01136
-2.98837
-2.97306
-2.96585
-2.96461
-2.96352
-2.95885
-2.94867
-2.93311
-2.91667
-2.89163
-2.87374
-3.43036
-3.35739
-3.30544
-3.26578
-3.23166
-3.20093
-3.17293
-3.14808
-3.12757
-3.11269
-3.10363
-3.09919
-3.09578
-3.08993
-3.07952
-3.06536
-3.05218
-3.03751
-3.01594
-3.53388
-3.47492
-3.43042
-3.39476
-3.36382
-3.33589
-3.31062
-3.28822
-3.2693
-3.25448
-3.24388
-3.23679
-3.23094
-3.22352
-3.21226
-3.19761
-3.18388
-3.17055
-3.15449
-3.64233
-3.59599
-3.55815
-3.52617
-3.4982
-3.47298
-3.45018
-3.42984
-3.41221
-3.39757
-3.38594
-3.37688
-3.3689
-3.35961
-3.34676
-3.33033
-3.31316
-3.29958
-3.28327
-3.75721
-3.71899
-3.68635
-3.65789
-3.63287
-3.6104
-3.59005
-3.57175
-3.55555
-3.54153
-3.52967
-3.51962
-3.51024
-3.49933
-3.48444
-3.46554
-3.44357
-3.42842
-3.40796
-3.87314
-3.84113
-3.81317
-3.78844
-3.76656
-3.74695
-3.7292
-3.71316
-3.69879
-3.68605
-3.67494
-3.6652
-3.65567
-3.64395
-3.62711
-3.60552
-3.5798
-3.55907
-3.53869
-3.98794
-3.96152
-3.93814
-3.91723
-3.89862
-3.88196
-3.86696
-3.85349
-3.84148
-3.83089
-3.82189
-3.81436
-3.80672
-3.79578
-3.77785
-3.75365
-3.72627
-3.704
-3.6852
-4.10193
-4.08064
-4.0615
-4.04425
-4.02883
-4.01513
-4.003
-3.99243
-3.98346
-3.97622
-3.9714
-3.96916
-3.96708
-3.9601
-3.94332
-3.91585
-3.8845
-3.85753
-3.8488
-4.21583
-4.19899
-4.18363
-4.16968
-4.15726
-4.14639
-4.13715
-4.12973
-4.12448
-4.12213
-4.12452
-4.13222
-4.14124
-4.14341
-4.1285
-4.09554
-4.05786
-4.02218
-4.01819
-4.33021
-4.3171
-4.30496
-4.29391
-4.28413
-4.27578
-4.26912
-4.26467
-4.26329
-4.26684
-4.27932
-4.3017
-4.32752
-4.34136
-4.32562
-4.28375
-4.23519
-4.19457
-4.18907
-4.44546
-4.4354
-4.42599
-4.4174
-4.40982
-4.40346
-4.39871
-4.39632
-4.3976
-4.40566
-4.42689
-4.46284
-4.50556
-4.52789
-4.50936
-4.45258
-4.38988
-4.37058
-4.35924
-4.5619
-4.55437
-4.54726
-4.54072
-4.53487
-4.52993
-4.52628
-4.52465
-4.52644
-4.53499
-4.55718
-4.59512
-4.64145
-4.66167
-4.64056
-4.58433
-4.52626
-4.53612
-4.52355
-4.67981
-4.6744
-4.66923
-4.66438
-4.6599
-4.65596
-4.65286
-4.65118
-4.65198
-4.65747
-4.67349
-4.70193
-4.73342
-4.74104
-4.72168
-4.69204
-4.66531
-4.69189
-4.68428
-4.79939
-4.79577
-4.79223
-4.78879
-4.78547
-4.78239
-4.77975
-4.77798
-4.77755
-4.77983
-4.78818
-4.80423
-4.82095
-4.82207
-4.80812
-4.80051
-4.81059
-4.82748
-4.8213
-4.92068
-4.91859
-4.91643
-4.91422
-4.91198
-4.90978
-4.90779
-4.9063
-4.90541
-4.90581
-4.90926
-4.91677
-4.92542
-4.92886
-4.92768
-4.9308
-4.93956
-4.93936
-4.93465
-5.04368
-5.04288
-5.04193
-5.04085
-5.03964
-5.03837
-5.03715
-5.03616
-5.03537
-5.03517
-5.03627
-5.03921
-5.04334
-5.04745
-5.05045
-5.05307
-5.05445
-5.05281
-5.05163
-5.16829
-5.16862
-5.16876
-5.16872
-5.16848
-5.16808
-5.16759
-5.16708
-5.16661
-5.16634
-5.16661
-5.16768
-5.1695
-5.17162
-5.17386
-5.17611
-5.17719
-5.17639
-5.17574
-5.29438
-5.2957
-5.2968
-5.29767
-5.29828
-5.29861
-5.29871
-5.29859
-5.29831
-5.29802
-5.29789
-5.29809
-5.29876
-5.29978
-5.30094
-5.30192
-5.30221
-5.3016
-5.30081
-5.42178
-5.42394
-5.42586
-5.42751
-5.42882
-5.42976
-5.43031
-5.43047
-5.43029
-5.42985
-5.4293
-5.42881
-5.42853
-5.4285
-5.42862
-5.42871
-5.42856
-5.4281
-5.42705
-5.55048
-5.55337
-5.55602
-5.55836
-5.56031
-5.56179
-5.56276
-5.56315
-5.56298
-5.56231
-5.56125
-5.56002
-5.55881
-5.55777
-5.55692
-5.55619
-5.5555
-5.55494
-5.55372
-5.68079
-5.68438
-5.68775
-5.6908
-5.69342
-5.69549
-5.6969
-5.69754
-5.69735
-5.69633
-5.69457
-5.6923
-5.68985
-5.68756
-5.68557
-5.68392
-5.68259
-5.68172
-5.68015
)
;

boundaryField
{
    leftWall
    {
        type            calculated;
        value           nonuniform List<scalar> 
50
(
1313.32
1256.73
1203.15
1150.21
1097.34
1044.81
993.498
944.654
871.203
777.848
684.282
555.202
459.732
428.346
507.661
540.249
455.708
301.592
102.53
44.5643
20.0673
-2.68487
-5.0414
-7.83337
1.62966
0.224357
5.61331
14.4533
13.5397
-0.433617
-2.53265
-3.03366
-3.19964
-3.36706
-3.5635
-3.7727
-3.98188
-4.17818
-4.35594
-4.51488
-4.65751
-4.78782
-4.91006
-5.02623
-5.13823
-5.24767
-5.35555
-5.46263
-5.5692
-5.67607
)
;
    }
    rightWall
    {
        type            calculated;
        value           nonuniform List<scalar> 
50
(
471.074
418.478
364.289
304.328
245.354
193.317
147.095
102.073
43.3118
2.96505
2.16175
1.72055
1.41809
1.13989
0.850546
0.563378
0.268625
-0.0956493
-0.539597
-0.921324
-1.15835
-1.36566
-1.64022
-1.9371
-2.19113
-2.38224
-2.51758
-2.61988
-2.73335
-2.87374
-3.01594
-3.15449
-3.28327
-3.40796
-3.53869
-3.6852
-3.8488
-4.01819
-4.18907
-4.35924
-4.52355
-4.68428
-4.8213
-4.93465
-5.05163
-5.17574
-5.30081
-5.42705
-5.55372
-5.68015
)
;
    }
    lowerWall
    {
        type            calculated;
        value           nonuniform List<scalar> 
62
(
1342.74
1331.98
1315.83
1292.07
1260.38
1222.13
1179.06
1133.32
1087.34
1043.57
1004.31
968.4
943.696
927.19
914.788
906.887
905.515
903.437
895.671
886.135
879.645
876.658
877.58
848.156
789.131
728.649
666.477
603.473
541.213
479.781
416.892
377.452
358.837
247.979
176.5
361.491
325.568
292.774
260.732
239.37
236.208
227.035
193.475
378.386
379.974
385.314
394.8
416.647
447.817
468.842
468.166
467.908
481.162
512.275
493.692
463.224
417.263
327.979
342.528
458.269
518.562
495.083
)
;
    }
    atmosphere
    {
        type            calculated;
        value           nonuniform List<scalar> 
46
(
-5.72904
-5.72904
-5.72904
-5.72904
-5.72904
-5.72904
-5.72904
-5.72904
-5.72904
-5.72904
-5.72904
-5.72904
-5.72904
-5.72904
-5.72904
-5.72904
-5.72904
-5.72904
-5.72904
-5.72904
-5.72904
-5.72904
-5.72904
-5.72909
-5.7312
-5.73584
-5.74173
-5.74691
-5.75087
-5.75463
-5.75809
-5.76111
-5.76355
-5.76525
-5.76606
-5.76586
-5.76459
-5.76232
-5.75927
-5.7559
-5.75271
-5.74998
-5.74777
-5.74607
-5.74514
-5.74286
)
;
    }
    defaultFaces
    {
        type            empty;
    }
}


// ************************************************************************* //
