/*--------------------------------*- C++ -*----------------------------------*\
| =========                 |                                                 |
| \\      /  F ield         | OpenFOAM: The Open Source CFD Toolbox           |
|  \\    /   O peration     | Version:  2206                                  |
|   \\  /    A nd           | Website:  www.openfoam.com                      |
|    \\/     M anipulation  |                                                 |
\*---------------------------------------------------------------------------*/
FoamFile
{
    version     2.0;
    format      ascii;
    arch        "LSB;label=32;scalar=64";
    class       volScalarField;
    location    "1";
    object      p_rgh;
}
// * * * * * * * * * * * * * * * * * * * * * * * * * * * * * * * * * * * * * //

dimensions      [1 -1 -2 0 0 0 0];

internalField   nonuniform List<scalar> 
2268
(
1342.74
1331.98
1315.83
1292.07
1260.38
1222.13
1179.06
1133.32
1087.34
1043.57
1004.31
968.4
943.696
927.19
914.788
906.887
905.515
903.437
895.671
886.135
879.645
876.658
877.58
1345.02
1333.48
1316.85
1292.89
1261.38
1223.07
1179.6
1133.34
1086.78
1042.49
1001.89
965.592
940.519
923.104
909.416
901.366
903.706
902.891
894.614
885.461
877.988
875.403
877.403
1350.3
1337.46
1318.63
1294.37
1263.43
1224.88
1180.64
1133.35
1085.64
1040.46
999.44
966.668
938.788
920.267
906.124
902.686
906.345
902.805
894.45
884.049
876.063
872.91
875.767
1356.21
1342.02
1321.03
1296.5
1266.45
1227.67
1182.29
1133.35
1083.73
1037.16
992.996
963.371
940.663
921.524
912.145
909.543
907.214
902.121
892.778
881.028
871.871
868.637
872.456
1362.2
1346.86
1324.14
1299.59
1270.65
1231.58
1184.58
1133.3
1080.8
1031.26
985.068
954.967
935.15
922.831
915.837
911.893
908.35
902.012
891.211
877.316
867.173
863.967
868.329
1368.53
1352.43
1328.35
1304.03
1276.62
1237.06
1187.83
1133.37
1077
1022.99
975.83
944.132
925.979
918.014
915.357
913.449
909.756
902.287
889.252
872.201
861.575
858.881
864.935
1376.08
1359.41
1334.42
1311.1
1284.83
1244.46
1192.28
1133.58
1071.85
1011.85
963.301
929.759
914.482
911.98
914.7
916.008
912.575
903.43
886.484
863.8
852.117
851.416
862.361
1386.09
1368.63
1343.4
1322.14
1296.45
1254.21
1198.22
1132.85
1062.73
995.145
943.429
909.833
899.694
905.014
915.077
920.087
917.834
908.122
882.875
845.642
831.63
839.444
858.331
378.386
379.974
385.314
394.8
416.647
447.817
468.842
468.166
467.908
481.162
512.275
493.692
463.224
417.263
327.979
342.528
458.269
518.562
495.083
376.749
371.271
376.834
391.773
414.116
443.704
467.151
459.648
443.077
468.72
501.337
488.25
452.079
374.219
248.616
276.188
421.125
506.875
490.505
378.018
350.976
321.712
339.531
388.236
432.962
464.79
460.335
430.518
430.796
499.157
516.295
454.473
280.14
204.569
239.213
357.667
486.371
484.337
376.712
271.235
266.02
279.019
299.062
353.983
458.834
464.122
432.316
432.577
465.671
554.71
453.284
232.801
182.394
219.391
385.172
470.823
472.408
261.177
252.188
264.871
279.804
294.773
320.912
378.579
394.318
446.047
441.024
451.245
530.962
472.761
228.239
179.317
216.153
392.941
453.705
461.467
246.255
247.626
257.127
274.188
367.985
474.081
484.978
446.797
520.406
533.71
459.904
450.949
462.415
244.097
196.456
227.543
424.778
445.617
457.458
266.957
238.405
244.032
323.055
551.809
587.762
601.851
606.485
592.616
577.051
565.706
438.908
331.404
260.854
225.056
265.834
480.366
444.887
459.262
359.476
229.164
223.575
420.426
575.122
593.405
610.959
611.863
593.874
578.012
581.909
577.77
443.835
281.066
251.327
389.051
462.864
401.656
462.265
1404.67
1386.49
1362.29
1346.97
1320.88
1274.58
1211.06
1132.26
1044.6
947.663
838.262
775.592
784.438
836.32
881.544
897.122
912.397
910.754
871.398
812.2
792.39
813.582
849.654
1436.51
1420.22
1404
1395.82
1367.12
1316.83
1243.19
1142.73
949.763
676.248
599.964
585.368
590.092
621.674
740.187
809.184
779.715
763.018
838.722
792.014
748.387
782.299
862.781
1462.65
1437.69
1451.5
1471.07
1463.6
1412.07
1296.51
927.468
623.302
582.304
612.668
646.986
629.858
632.031
577.555
282.72
200.207
264.273
543.471
772.669
797.858
824.731
914.656
1457.94
1423.09
1484.43
1530.04
1528.65
1464.21
1277.51
754.628
515.544
583.778
585.064
507.463
188.635
160.281
146.711
140.929
143.318
144.414
146.085
312.576
807.421
894.258
739.736
1486.97
1441.24
1490
1522.61
1502.77
1334.82
713.864
370.702
224.541
157.355
152.414
141.274
136.207
131.295
130.092
131.343
149.294
159.244
153.645
139.381
147.413
353.771
410.353
1560.61
1522.99
1484.76
1442.51
1183.1
292.798
44.2446
51.1666
149.612
199.45
202.298
200.972
167.7
130.259
161.919
159.772
142.013
112.977
91.7124
99.5049
117.316
55.3346
36.4076
1726.15
1683.35
1512.82
1177.48
285.189
15.5307
6.04613
4.2799
49.8227
163.436
184.412
188.846
183.626
162.71
100.526
52.5596
24.0991
5.77913
2.92253
2.12833
30.7001
78.5009
29.6176
1772.68
1814.08
1178.63
296.718
11.1183
2.45168
0.392136
-0.09054
-0.338613
-0.619345
19.8091
85.22
76.2978
1.4038
2.0047
4.00111
6.60808
5.96469
1.43128
1.23435
2.39799
13.1427
31.2919
1399.77
1358.66
351.168
16.1295
2.85897
0.230491
-0.444137
-0.685745
-0.847754
-0.898805
-0.831788
-0.727929
-0.500313
0.0310425
0.667009
4.99976
12.3985
12.071
7.63292
0.435617
0.526241
0.595612
0.60394
1257.16
389.979
23.3232
5.75114
0.790316
-0.422726
-0.841038
-1.04825
-1.16379
-1.15556
-1.02371
-0.773124
-0.468575
-0.239577
-0.0513067
6.45921
12.292
11.96
10.9773
1.40397
0.741516
0.880374
0.607576
1197.62
93.2551
6.0462
1.65705
-0.0466026
-0.669742
-1.01379
-1.20523
-1.26641
-1.21904
-1.06725
-0.845809
-0.61392
-0.43239
-0.323943
-0.328537
2.81485
11.251
3.90154
0.228018
0.763759
4.44076
6.69555
1216.44
80.683
1.21502
-0.155501
-0.503574
-0.831139
-0.865891
-1.19491
-1.2285
-1.1698
-1.02407
-0.834892
-0.654002
-0.508321
-0.407957
-0.37297
-0.443662
-0.643814
-0.544472
-0.253246
1.0867
8.85086
9.55523
1032.02
68.9277
0.649084
-0.761925
-0.667371
-0.949433
-0.7783
-1.08913
-1.12842
-1.06963
-0.949054
-0.808454
-0.679011
-0.565201
-0.475343
-0.426521
-0.431239
-0.50821
-0.576768
-0.493696
-0.618357
1.50129
9.37883
111.51
59.8412
-0.355017
-0.959012
-0.732664
-0.985511
-0.790363
-0.998514
-1.01595
-0.970516
-0.890428
-0.808517
-0.728452
-0.641441
-0.55848
-0.521453
-0.488494
-0.507798
-0.554072
-0.667951
-0.894152
-0.933896
-1.00002
10.8846
6.09606
-0.761147
-1.08274
-0.852884
-1.01297
-0.932908
-0.967315
-0.941491
-0.915947
-0.89153
-0.867914
-0.829154
-0.76976
-0.632367
-0.495633
-0.540102
-0.454967
-0.57536
-0.848344
-1.0744
-1.03355
-0.970139
218.914
-2.22394
-1.07646
-1.22755
-0.985633
-1.04279
-0.960971
-0.957314
-0.929317
-0.941367
-0.969714
-0.99275
-0.983889
-0.943639
-0.888654
-0.0508254
0.750763
-0.0276124
-0.715418
-0.999719
-1.13593
-1.07251
-0.981945
910.601
-1.17636
-1.23154
-1.31696
-1.06149
-1.07593
-0.985162
-0.981988
-0.988848
-1.05471
-1.13259
-1.1846
-1.18764
-1.14842
-1.1044
-0.410878
2.35851
2.68933
-0.263459
-0.933078
-1.06894
-1.03401
-0.948097
1031.08
-0.0354919
-1.08796
-1.24866
-1.05588
-1.07311
-1.01964
-1.06977
-1.15643
-1.30028
-1.41489
-1.47442
-1.44543
-1.36898
-1.3001
-1.2103
1.05355
2.66751
2.87913
0.0137245
-0.979633
-0.955428
-0.907161
1086.8
3.62541
-1.03752
-1.06432
-1.00939
-1.05647
-1.09326
-1.25614
-1.47742
-1.67367
-1.87749
-1.85993
-1.79837
-1.62335
-1.4652
-1.36967
-1.22013
1.98733
2.89742
2.98596
-0.670383
-0.910734
-0.882897
1143.13
11.2887
-0.974763
-0.873133
-0.974622
-1.08182
-1.2398
-1.56673
-1.409
-1.57256
-1.90377
-2.36857
-2.31137
-1.97371
-1.65567
-1.43947
-1.30989
-1.09132
2.84842
3.10059
2.87002
-0.871582
-0.877497
873.984
30.485
-0.670628
-0.820569
-1.00143
-1.14744
-1.4478
-1.90245
-1.86573
-2.60882
-2.97271
-2.81848
-2.59561
-2.24579
-1.87806
-1.50648
-1.28573
-1.1701
-1.03643
3.0171
3.14379
2.06977
-0.843571
67.858
86.0683
3.6664
-0.712034
-0.967499
-1.17152
-1.61084
-1.5523
-2.56102
-3.93512
-4.65202
-4.43815
-3.41653
-2.27978
-1.90557
-1.54413
-1.2502
-1.08906
-1.00857
-0.963051
2.72816
3.09297
1.8343
2.62698
46.3199
24.2296
0.541372
-0.809775
-1.1013
-1.62513
-1.59126
-2.88716
-4.02379
-5.32588
-5.25235
-4.19344
-2.59466
-1.59275
-1.43897
-1.17723
-1.00312
-0.914655
-0.882346
-0.874872
2.18125
3.00789
0.601774
1.36093
18.7826
11.8614
0.636771
-0.92725
-1.47289
-1.62917
-2.72165
-3.87972
-4.5536
-5.10634
-4.27071
-2.53911
-1.37503
-1.15361
-1.04933
-0.894827
-0.818753
-0.78534
-0.784355
-0.810949
0.102641
0.36219
0.502484
1.22063
6.04122
5.01189
0.684683
-1.14922
-1.75615
-2.14685
-3.11073
-3.67739
-3.95079
-3.46781
-2.0476
-0.986282
-0.830583
-0.864957
-0.758134
-0.705274
-0.680192
-0.668463
-0.662866
-0.654431
0.298521
0.328268
0.404045
0.356614
1.65864
1.2602
-0.599465
-1.22254
-1.9903
-2.20139
-2.66148
-2.84006
-2.20635
-1.15583
-0.449611
-0.521363
-0.651746
-0.60245
-0.578169
-0.565208
-0.555064
-0.541353
-0.517788
0.225216
0.243749
0.269971
0.211048
0.0307724
-0.0557855
-0.405799
-0.82103
-1.23632
-1.53437
-1.61518
-1.40736
-0.976227
-0.235537
0.0474605
-0.317056
-0.452093
-0.449759
-0.450872
-0.450586
-0.445714
-0.433471
-0.411657
0.141032
0.146169
0.134569
0.0548929
-0.121765
-0.231504
0.0382911
-0.239192
-0.771554
-0.770602
-0.615875
-0.392817
0.150303
0.332407
0.277233
-0.226891
-0.29592
-0.319518
-0.336404
-0.345786
-0.346898
-0.339073
-0.321988
0.0570373
0.0494809
0.0147444
-0.0801439
-0.2221
0.311119
0.0378846
-0.140478
-0.0870179
-0.0466683
-0.00397812
0.51166
0.606819
0.537796
0.00141603
-0.146964
-0.18514
-0.217568
-0.241497
-0.256388
-0.26216
-0.259036
-0.247545
-0.0140759
-0.0284367
-0.0712239
-0.163227
-0.311348
-0.0915907
0.15575
0.0264202
0.112317
0.329054
0.557329
0.718628
0.499973
0.0529612
-0.0481451
-0.0775892
-0.11171
-0.142969
-0.167567
-0.184178
-0.192603
-0.193136
-0.186483
-0.0666385
-0.0826133
-0.122891
-0.198243
-0.31762
-0.455862
-0.21884
0.0751884
0.25147
0.401643
0.412207
0.19051
-0.010841
-0.022476
-0.0222391
-0.0402513
-0.065645
-0.0911501
-0.112656
-0.128275
-0.137481
-0.140279
-0.137221
-0.100379
-0.114852
-0.148355
-0.203717
-0.281959
-0.374876
-0.452509
-0.443412
-0.366067
-0.261464
-0.18439
-0.115398
-0.0506916
-0.0188019
-0.011897
-0.0208936
-0.0376337
-0.0562716
-0.0732004
-0.0864123
-0.0950369
-0.0988757
-0.0981655
-0.117819
-0.129142
-0.156224
-0.194076
-0.242678
-0.293759
-0.330971
-0.336095
-0.301365
-0.236508
-0.161435
-0.0944305
-0.0460204
-0.0185336
-0.00878409
-0.0113386
-0.0208967
-0.0332846
-0.0455547
-0.0558501
-0.0631504
-0.0671135
-0.0677259
-0.122931
-0.13243
-0.151507
-0.176684
-0.206516
-0.234317
-0.251201
-0.248208
-0.222024
-0.176814
-0.126075
-0.0788886
-0.0425421
-0.0194654
-0.00848702
-0.00674798
-0.011014
-0.0183764
-0.0265602
-0.0339839
-0.0396592
-0.0432044
-0.0444314
-0.119981
-0.126522
-0.139836
-0.155782
-0.173639
-0.188437
-0.195057
-0.189172
-0.168499
-0.137013
-0.101088
-0.0669289
-0.0391552
-0.0197874
-0.00870479
-0.00449147
-0.00518734
-0.00883038
-0.0137544
-0.0186976
-0.0228041
-0.0256043
-0.0269784
-0.110957
-0.115432
-0.123891
-0.13367
-0.144035
-0.151354
-0.152755
-0.145878
-0.129994
-0.107244
-0.0814112
-0.0563029
-0.0349289
-0.0189165
-0.00855958
-0.00320695
-0.00171397
-0.0028039
-0.00529973
-0.00824399
-0.0109461
-0.0129925
-0.0142162
-0.097757
-0.100715
-0.106104
-0.111809
-0.117255
-0.120361
-0.119316
-0.11275
-0.100483
-0.0838192
-0.0649895
-0.0463794
-0.029977
-0.0169969
-0.00783778
-0.00225584
0.000387611
0.000898606
8.07373e-05
-0.00137237
-0.0029332
-0.00425089
-0.00518296
-0.0820005
-0.0838636
-0.0872241
-0.0903375
-0.0929326
-0.0937654
-0.0917146
-0.0860155
-0.0766626
-0.064451
-0.0507305
-0.0370052
-0.0245776
-0.0143188
-0.00660786
-0.00139971
0.00164478
0.00301949
0.0032561
0.00283826
0.00214875
0.00144201
0.000843366
-0.0646907
-0.0658375
-0.0678512
-0.0694138
-0.0704395
-0.0701873
-0.0679807
-0.0634041
-0.056491
-0.0477321
-0.0379474
-0.0280697
-0.0189379
-0.0111528
-0.00502328
-0.000586218
0.0023267
0.00400791
0.00479748
0.00501973
0.00493746
0.00471618
0.00440044
-0.0465736
-0.0472464
-0.048393
-0.0490863
-0.0493345
-0.0487259
-0.0468662
-0.0435322
-0.0387604
-0.0328434
-0.0262614
-0.0195696
-0.0132825
-0.00778806
-0.00330834
9.86386e-05
0.0025079
0.00408277
0.0050279
0.00554713
0.00581091
0.00592321
0.00591529
-0.0279556
-0.0282601
-0.0288797
-0.0291324
-0.0290813
-0.0285378
-0.027301
-0.0252634
-0.0224513
-0.0190172
-0.01521
-0.0113212
-0.00762609
-0.00433975
-0.00159437
0.000564414
0.00216449
0.00328484
0.00403036
0.00450616
0.00479635
0.00495583
0.00493576
-0.00963221
-0.00981108
-0.00998646
-0.00998127
-0.00991183
-0.00970644
-0.0092752
-0.0085826
-0.00763822
-0.00648396
-0.00519087
-0.00384525
-0.00253241
-0.00132346
-0.000265693
0.000619526
0.0013352
0.0019039
0.00235981
0.00273629
0.00304741
0.00325008
0.00329033
848.3
829.685
716.177
594.404
909.564
859.016
358.926
84.7192
839.279
340.129
101.755
57.2803
493.541
333.542
163.391
72.6558
203.488
147.065
239.123
247.671
32.6243
34.7147
147.083
290.247
32.0348
33.3276
39.8169
156.524
33.9721
33.6466
31.3443
26.1493
6.1583
5.00934
11.0249
25.3852
-0.46818
-0.770901
-0.495913
1.41918
1.74995
-0.830008
-0.477173
0.0509218
9.22975
2.02659
-0.375538
-0.00048696
9.96843
10.3761
4.13746
3.37837
2.0341
11.663
12.6828
12.9529
-0.897631
-0.729034
0.0489926
0.122682
-0.902415
-0.724792
-0.465269
-0.281354
-0.882338
-0.732437
-0.489869
-0.293662
-0.888207
-0.787947
-0.541744
-0.323334
-0.899376
-0.851891
-0.590518
-0.337189
-0.93186
-0.749158
0.206804
-0.335844
-0.916677
0.466864
1.37546
-0.307819
-0.707921
1.33852
1.48149
-0.240674
1.88178
1.55218
-0.379483
-0.274089
1.17873
0.56488
-0.453773
-0.233923
-0.619585
-0.522348
-0.354225
-0.189256
-0.473644
-0.390471
-0.275652
-0.159453
-0.372194
-0.303757
-0.219328
-0.13591
-0.290662
-0.238592
-0.17651
-0.114808
-0.224715
-0.186156
-0.140437
-0.0946367
-0.170969
-0.143296
-0.110015
-0.0760823
-0.127416
-0.108188
-0.0843397
-0.059429
-0.092484
-0.0796127
-0.0628757
-0.0448464
-0.0648459
-0.0566213
-0.0451952
-0.0324189
-0.0433284
-0.0383832
-0.0308823
-0.0221461
-0.0268943
-0.0241917
-0.019604
-0.0140372
-0.0146246
-0.013448
-0.0110696
-0.00805377
-0.00578209
-0.00566867
-0.0050248
-0.00410612
0.000201355
-0.000466174
-0.00122407
-0.00204395
0.00375531
0.00249524
0.000608398
-0.00166311
0.00521946
0.00357559
0.000757632
-0.00276845
0.00483555
0.00302667
-0.000712904
-0.00533958
0.00293888
0.000509281
-0.00407788
-0.00959964
347.523
140.818
167.489
387.045
518.485
580.545
621.583
622.208
603.41
588.794
593.16
611.883
616.155
543.499
527.126
512.073
289.183
146.656
378.633
121.264
80.8773
100.419
84.8614
85.4712
358.698
631.229
590.111
513.84
609.672
622.743
633.527
650.808
646.376
567.221
313.292
45.3339
3.71555
3.6465
63.0214
59.2616
41.2029
34.9794
44.3572
278.034
591.741
333.15
247.904
406.14
579.667
630.106
510.853
343.638
130.346
2.45278
2.53024
2.89534
2.97263
65.1418
63.1782
49.0159
45.3205
73.8173
405.278
239.681
66.3051
11.1664
3.39651
3.11527
2.95206
2.20573
2.09551
1.9779
2.00674
2.29365
2.62146
2.65875
74.6027
72.3199
63.4941
59.1553
229.725
446.041
4.68867
3.46514
3.4318
3.31669
2.9359
2.54466
2.22609
2.08797
2.03848
2.25328
2.33607
2.51049
2.48101
276.56
76.8797
73.5879
68.9041
350.999
485.982
7.71059
4.02525
3.8535
4.34092
3.94049
2.58647
2.20643
2.1142
2.0649
2.11756
2.26082
2.36364
2.33147
353.772
371.057
314.339
172.301
389.267
317.939
16.902
4.73621
4.13466
4.18841
3.77012
2.42487
2.11882
2.02265
1.95886
1.96769
2.097
2.19002
2.19716
28.4199
181.759
405.28
410.43
418.65
408.566
197.925
18.1639
3.98912
3.17958
2.81182
2.10148
1.98538
1.90024
1.84857
1.84169
1.91488
2.00269
2.03042
26.2795
27.3733
43.4807
2.04206
194.407
398.804
389.659
232.339
6.24005
2.70325
2.56279
2.08264
1.73986
1.71767
1.71178
1.73282
1.78043
1.83812
1.83773
6.54965
0.975628
1.11325
1.55004
1.39996
147.735
413.946
395.44
41.3892
2.13632
2.59539
1.77679
1.48866
1.51313
1.54597
1.60151
1.69865
2.26285
1.61883
0.373129
0.571865
0.961534
1.65324
11.2525
6.84199
391.003
203.614
8.92549
3.43896
2.31086
1.16246
1.2005
1.43821
1.54235
1.43078
2.0386
2.39763
1.34007
6.30525
19.6771
24.9649
27.73
42.156
7.99
58.7326
58.6074
-1.1307
1.71561
0.743136
0.721503
0.94887
1.44493
1.51244
1.58924
2.33971
2.16248
1.05193
33.0061
38.4299
38.6715
37.9652
8.16102
-0.266206
-0.802744
1.6217
-0.592632
-0.158633
0.192427
0.440123
0.686948
1.16481
1.25764
1.54094
1.9966
2.0122
0.944202
2.28388
0.0787104
0.146488
-0.0313236
-0.0670247
-0.209467
-0.379806
-0.367478
-0.211667
-0.00281486
0.162504
0.27822
0.605194
1.09492
0.888464
0.444158
1.5116
2.07855
1.31999
0.125798
0.145937
0.309604
0.373415
0.172032
0.0352228
0.0132619
0.0337878
0.0687209
0.125203
0.170369
0.196265
0.672909
0.976375
0.839695
0.24887
1.03406
1.9253
2.1824
0.578407
0.761274
0.821061
0.881801
0.944288
0.727539
0.267987
0.159844
0.16441
0.169135
0.165957
0.151914
0.558444
0.899156
0.948648
0.205668
1.16691
1.83972
2.09665
-0.108176
0.167415
0.404463
0.709345
0.939427
0.985387
1.02538
0.942574
0.135538
0.156235
0.156298
0.139598
0.177956
0.811153
0.912029
0.213356
0.807463
1.86427
2.04829
-0.215809
-0.153582
-0.106438
-0.066023
0.00524142
0.430451
0.697868
0.711331
0.210392
0.152462
0.163767
0.159493
0.140316
0.142227
0.447339
0.230126
0.209615
1.01854
2.0454
-0.207023
-0.13129
-0.0771132
-0.0318599
0.00680892
0.0397327
0.0705629
0.106204
0.192719
0.175045
0.193694
0.191383
0.180141
0.172903
0.183235
0.211431
0.227541
0.245625
1.1331
-0.195045
-0.109414
-0.0511103
-0.00373182
0.0372447
0.0747312
0.111034
0.1475
0.179735
0.20411
0.213782
0.210683
0.204409
0.198609
0.206726
0.227884
0.251526
0.279404
0.341366
-0.180501
-0.0924096
-0.0332738
0.0128652
0.0524026
0.0886525
0.123287
0.155933
0.183065
0.207629
0.216001
0.214103
0.213261
0.21129
0.219213
0.235371
0.255794
0.552648
1.33962
-0.164849
-0.0800132
-0.0223929
0.021095
0.0581013
0.0916683
0.12293
0.151196
0.174184
0.19246
0.208274
0.209915
0.210758
0.205355
0.219138
0.234721
0.24716
1.44461
1.58011
-0.142606
-0.0696394
-0.017679
0.0219743
0.0560897
0.0868122
0.114823
0.139674
0.160179
0.175062
0.185671
0.19691
0.193106
0.197874
0.212881
0.223695
0.236379
1.56672
1.61423
-0.120935
-0.0619771
-0.0174696
0.0181829
0.0491198
0.077047
0.102318
0.124723
0.143648
0.158463
0.169066
0.176157
0.182005
0.189476
0.200742
0.215397
0.229179
1.57958
1.30991
-0.104191
-0.0578527
-0.0200143
0.0119707
0.0399409
0.0651538
0.0879555
0.108301
0.125932
0.140574
0.152194
0.161255
0.169237
0.178802
0.191645
0.20795
0.225195
1.45378
0.549264
-0.0938783
-0.0556592
-0.0230171
0.0054395
0.030457
0.052933
0.0732802
0.0915815
0.10778
0.121801
0.133666
0.143709
0.153094
0.164114
0.179011
0.19804
0.220074
0.44521
0.532133
-0.0846144
-0.0526024
-0.0246432
8.69455e-05
0.0219599
0.0415765
0.0593292
0.0753674
0.0897325
0.102474
0.113589
0.123324
0.132857
0.144579
0.16145
0.183235
0.209523
0.230298
0.603941
-0.0742245
-0.047805
-0.0244189
-0.00351424
0.0151004
0.0317638
0.0467623
0.0602334
0.072259
0.0828557
0.0918397
0.0993637
0.107002
0.117978
0.177604
0.216635
0.200338
0.210571
1.51289
-0.0630151
-0.0417235
-0.0225865
-0.00533181
0.0100841
0.0237878
0.0359118
0.0464895
0.0555795
0.0628237
0.0675392
0.0697528
0.0718381
0.0887448
0.254506
0.281188
0.180554
0.182496
1.70577
-0.0517255
-0.0348848
-0.0195177
-0.00557444
0.00685231
0.0177169
0.0269627
0.0344776
0.0397779
0.0421235
0.0396128
0.0318906
0.0270053
0.175561
0.202135
0.195291
0.124779
0.790604
1.71409
-0.04091
-0.0277931
-0.0156567
-0.00460549
0.00517724
0.0135239
0.0201829
0.0247838
0.0261641
0.0225321
0.0100003
-0.0123785
0.0979404
0.119477
0.135116
0.131615
0.0690748
1.5368
1.71466
-0.0309581
-0.0209015
-0.0114958
-0.00290389
0.00467902
0.0110346
0.0157865
0.0182961
0.0170131
0.00885967
-0.0123744
-0.0482378
0.0820127
0.0630443
0.0816387
0.0182066
0.0400805
1.64349
1.49236
-0.0222105
-0.0146746
-0.00756804
-0.00102355
0.00481963
0.00976228
0.0134225
0.0150602
0.0132559
0.00471791
-0.0174576
-0.0523226
-0.0463532
0.0179977
-0.029135
0.0147288
0.983263
1.91887
1.18725
-0.0149273
-0.00951101
-0.00434303
0.000510399
0.00498198
0.0089237
0.0120231
0.0137028
0.0129095
0.00744086
-0.00843932
-0.0361988
-0.0678502
-0.0750027
-0.0438753
0.563471
1.95791
1.94111
0.762201
-0.00930505
-0.0056869
-0.00214778
0.0012921
0.00460921
0.0076969
0.0103271
0.0120983
0.0125326
0.010286
0.00200383
-0.0140699
-0.0305723
0.0386576
0.568052
1.46136
1.4084
0.393328
0.0110471
-0.00540882
-0.00331239
-0.00115462
0.00105404
0.00330065
0.00550081
0.00748297
0.00897761
0.00986905
0.00947564
0.00602547
-0.00148428
0.00763549
0.245842
0.30503
0.121377
-0.0242876
-0.0240867
-0.0193754
-0.00321078
-0.0024078
-0.00146022
-0.000378312
0.000829649
0.0021017
0.00331544
0.00430645
0.00509673
0.00530497
0.00421008
0.00128392
-0.00287367
-0.00697801
-0.00997893
-0.0125967
-0.0139809
-0.0123418
-0.0111642
-0.00262973
-0.00295333
-0.00309666
-0.00305428
-0.00281788
-0.00241748
-0.00192377
-0.00141946
-0.00094191
-0.000675169
-0.000933629
-0.00194702
-0.00375481
-0.00593485
-0.00820035
-0.0104482
-0.0115237
-0.0107274
-0.0100765
-0.00352563
-0.00483726
-0.0059437
-0.00681479
-0.00741962
-0.00775491
-0.00784597
-0.00772938
-0.00745268
-0.00716094
-0.00702497
-0.00718004
-0.007798
-0.00882783
-0.0100809
-0.0110646
-0.0113523
-0.0107395
-0.00995141
-0.00572701
-0.00788223
-0.00980935
-0.0114545
-0.012764
-0.0137026
-0.0142545
-0.0144203
-0.0142332
-0.0137985
-0.0132492
-0.0127559
-0.0124303
-0.0123988
-0.0125623
-0.0126553
-0.0125053
-0.0120495
-0.0109951
-0.00923275
-0.0121195
-0.0147736
-0.0171143
-0.0190619
-0.0205457
-0.0215068
-0.0219039
-0.0217351
-0.0210604
-0.0200066
-0.0187677
-0.0175617
-0.0165259
-0.0156753
-0.0149451
-0.0142498
-0.0136881
-0.0124744
-0.0143498
-0.0179361
-0.0213085
-0.0243596
-0.0269776
-0.029048
-0.0304557
-0.0310971
-0.0309074
-0.0298839
-0.0281253
-0.0258556
-0.0234121
-0.0211135
-0.0191232
-0.0174766
-0.016152
-0.0152755
-0.0137092
)
;

boundaryField
{
    leftWall
    {
        type            fixedFluxPressure;
        gradient        uniform 0;
        value           nonuniform List<scalar> 
50
(
1342.74
1345.02
1350.3
1356.21
1362.2
1368.53
1376.08
1386.09
1404.67
1436.51
1462.65
1457.94
1486.97
1560.61
1726.15
1772.68
1399.77
1257.16
1197.62
1216.44
1032.02
111.51
10.8846
218.914
910.601
1031.08
1086.8
1143.13
873.984
67.858
2.62698
0.601774
0.36219
0.298521
0.225216
0.141032
0.0570373
-0.0140759
-0.0666385
-0.100379
-0.117819
-0.122931
-0.119981
-0.110957
-0.097757
-0.0820005
-0.0646907
-0.0465736
-0.0279556
-0.00963221
)
;
    }
    rightWall
    {
        type            fixedFluxPressure;
        gradient        uniform 0;
        value           nonuniform List<scalar> 
50
(
495.083
490.505
484.337
472.408
461.467
457.458
459.262
462.265
378.633
3.6465
2.97263
2.65875
2.48101
2.33147
2.19716
2.03042
1.83773
1.61883
1.34007
1.05193
0.944202
1.31999
2.1824
2.09665
2.04829
2.0454
1.1331
0.341366
1.33962
1.58011
1.61423
1.30991
0.549264
0.532133
0.603941
1.51289
1.70577
1.71409
1.71466
1.49236
1.18725
0.762201
0.0110471
-0.0193754
-0.0111642
-0.0100765
-0.00995141
-0.0109951
-0.0124744
-0.0137092
)
;
    }
    lowerWall
    {
        type            fixedFluxPressure;
        gradient        uniform 0;
        value           nonuniform List<scalar> 
62
(
1342.74
1331.98
1315.83
1292.07
1260.38
1222.13
1179.06
1133.32
1087.34
1043.57
1004.31
968.4
943.696
927.19
914.788
906.887
905.515
903.437
895.671
886.135
879.645
876.658
877.58
877.58
877.403
875.767
872.456
868.329
864.935
862.361
858.331
848.3
829.685
716.177
594.404
378.386
376.749
378.018
376.712
261.177
246.255
266.957
359.476
378.386
379.974
385.314
394.8
416.647
447.817
468.842
468.166
467.908
481.162
512.275
493.692
463.224
417.263
327.979
342.528
458.269
518.562
495.083
)
;
    }
    atmosphere
    {
        type            totalPressure;
        rho             rho;
        psi             none;
        gamma           1;
        p0              uniform 0;
        value           nonuniform List<scalar> 
46
(
0
0
0
0
0
0
0
0
0
0
0
0
0
0
0
0
0
0
0
0
0
0
0
-5.36398e-05
-0.00215598
-0.00680085
-0.0126852
-0.0178738
-0.0218262
-0.0255923
-0.02905
-0.0320688
-0.0345062
-0.0362067
-0.0370158
-0.0368199
-0.0355532
-0.0332803
-0.0302297
-0.0268553
-0.0236683
-0.0209412
-0.0187287
-0.0170318
-0.0160985
-0.0138179
)
;
    }
    defaultFaces
    {
        type            empty;
    }
}


// ************************************************************************* //
