/*--------------------------------*- C++ -*----------------------------------*\
| =========                 |                                                 |
| \\      /  F ield         | OpenFOAM: The Open Source CFD Toolbox           |
|  \\    /   O peration     | Version:  2206                                  |
|   \\  /    A nd           | Website:  www.openfoam.com                      |
|    \\/     M anipulation  |                                                 |
\*---------------------------------------------------------------------------*/
FoamFile
{
    version     2.0;
    format      ascii;
    arch        "LSB;label=32;scalar=64";
    class       surfaceScalarField;
    location    "1";
    object      phi;
}
// * * * * * * * * * * * * * * * * * * * * * * * * * * * * * * * * * * * * * //

dimensions      [0 3 -1 0 0 0 0];

oriented        oriented;

internalField   nonuniform List<scalar> 
4432
(
3.27266e-06
-3.27266e-06
1.61514e-06
1.65753e-06
-3.03809e-06
4.65324e-06
-5.90226e-06
2.86418e-06
-5.34021e-06
-5.62051e-07
-3.67005e-06
-1.67016e-06
-2.41952e-06
-1.25053e-06
-1.60763e-06
-8.11887e-07
-1.04271e-06
-5.6493e-07
-3.53393e-07
-6.8932e-07
6.65835e-07
-1.01924e-06
1.20027e-06
-5.3444e-07
-9.11863e-07
2.11213e-06
-7.71396e-06
6.80209e-06
-1.56902e-05
7.97627e-06
-1.75648e-05
1.87453e-06
-1.25937e-05
-4.97101e-06
-6.42025e-06
-6.17349e-06
-2.00575e-06
-4.4145e-06
1.03001e-06
-3.03576e-06
2.87884e-06
-1.84883e-06
2.33456e-06
5.44273e-07
2.33455e-06
-2.58108e-06
-6.91572e-07
-6.8269e-06
5.90337e-06
-9.90763e-06
7.73399e-06
-9.24185e-06
2.1984e-06
-6.69749e-06
-3.10641e-06
-4.90742e-06
-3.46023e-06
-4.08055e-06
-2.07741e-06
-3.51079e-06
-1.38165e-06
-2.94969e-06
-1.12605e-06
-2.87586e-06
-7.63151e-07
-4.20787e-06
3.12759e-07
-7.46411e-06
2.72179e-06
-1.20077e-05
6.65574e-06
-1.53134e-05
1.01077e-05
-1.47593e-05
7.42219e-06
-9.75635e-06
-3.12841e-06
-4.04814e-06
-1.06792e-05
-2.00959e-07
-1.00207e-05
2.91722e-06
-7.53268e-06
5.61807e-06
-5.73661e-06
7.13984e-06
-3.37061e-06
5.0715e-06
2.61261e-06
7.40603e-06
-6.08141e-06
5.38984e-06
-1.09463e-05
1.07682e-05
-1.23557e-05
9.14343e-06
-1.06669e-05
5.09628e-07
-7.79523e-06
-5.97811e-06
-5.32964e-06
-5.92581e-06
-3.67232e-06
-3.73473e-06
-2.30922e-06
-2.74474e-06
-1.05203e-06
-2.38325e-06
-5.00524e-07
-1.31466e-06
-1.64832e-06
1.46056e-06
-4.64027e-06
5.71373e-06
-7.95625e-06
9.9717e-06
-8.39828e-06
1.05498e-05
-4.82495e-06
3.84887e-06
-1.22929e-06
-6.72407e-06
3.35598e-07
-1.22441e-05
1.85948e-06
-1.15445e-05
4.03934e-06
-9.71255e-06
6.2071e-06
-7.90436e-06
8.0526e-06
-5.21611e-06
6.49156e-06
4.17365e-06
1.38976e-05
-7.10062e-06
1.24905e-05
-1.18418e-05
1.55094e-05
-1.3213e-05
1.05147e-05
-1.18547e-05
-8.48693e-07
-8.98656e-06
-8.84624e-06
-6.31588e-06
-8.59648e-06
-4.37591e-06
-5.67471e-06
-2.61659e-06
-4.50406e-06
-8.53091e-07
-4.14673e-06
4.84792e-07
-2.65255e-06
9.86168e-07
9.5918e-07
5.34748e-07
6.16515e-06
-4.28827e-08
1.05493e-05
6.12059e-07
9.89483e-06
1.74981e-06
2.71112e-06
1.40707e-06
-6.38134e-06
8.96553e-07
-1.17336e-05
2.10137e-06
-1.27494e-05
4.20544e-06
-1.18166e-05
5.60352e-06
-9.30244e-06
6.55618e-06
-6.16878e-06
5.92433e-06
4.80551e-06
1.98219e-05
-6.58115e-06
1.90716e-05
-1.11336e-05
2.00618e-05
-1.29639e-05
1.2345e-05
-1.20682e-05
-1.74441e-06
-9.53396e-06
-1.13805e-05
-7.26546e-06
-1.0865e-05
-5.49279e-06
-7.44737e-06
-3.63427e-06
-6.36259e-06
-1.52502e-06
-6.25598e-06
4.16256e-07
-4.59382e-06
1.61099e-06
-2.3556e-07
2.14888e-06
5.62729e-06
2.53644e-06
1.01618e-05
2.74997e-06
9.68129e-06
1.97663e-06
3.48445e-06
7.43911e-07
-5.14863e-06
1.01401e-06
-1.20037e-05
3.27673e-06
-1.50121e-05
5.75765e-06
-1.42975e-05
6.19834e-06
-9.74312e-06
4.70405e-06
-4.6745e-06
4.17652e-06
5.33304e-06
2.39984e-05
-5.20893e-06
2.42805e-05
-9.35506e-06
2.42079e-05
-1.14986e-05
1.44885e-05
-1.1132e-05
-2.11095e-06
-9.28779e-06
-1.32247e-05
-7.90691e-06
-1.22459e-05
-6.58866e-06
-8.76561e-06
-4.57152e-06
-8.37974e-06
-1.66875e-06
-9.15873e-06
1.26634e-06
-7.5289e-06
3.01571e-06
-1.98492e-06
3.17278e-06
5.47022e-06
2.58655e-06
1.0748e-05
1.72464e-06
1.05432e-05
8.12697e-07
4.3964e-06
8.21806e-07
-5.15773e-06
2.67476e-06
-1.38566e-05
5.96759e-06
-1.83049e-05
9.00264e-06
-1.73326e-05
8.95172e-06
-9.69221e-06
4.8278e-06
-5.50584e-07
3.01121e-06
7.14964e-06
2.70097e-05
-3.30759e-06
2.75881e-05
-6.89784e-06
2.77982e-05
-9.14709e-06
1.67378e-05
-8.47592e-06
-2.78213e-06
-7.6327e-06
-1.40679e-05
-8.18876e-06
-1.16898e-05
-7.4765e-06
-9.47787e-06
-4.60788e-06
-1.12483e-05
1.00451e-07
-1.38671e-05
4.37634e-06
-1.18048e-05
6.47115e-06
-4.07972e-06
6.28977e-06
5.65159e-06
4.61697e-06
1.24208e-05
2.75728e-06
1.24029e-05
1.6343e-06
5.51937e-06
2.03143e-06
-5.55485e-06
4.48633e-06
-1.63115e-05
8.72161e-06
-2.25402e-05
1.32734e-05
-2.18844e-05
1.4002e-05
-1.04207e-05
9.16403e-06
4.28734e-06
4.36392e-06
1.19498e-05
3.13736e-05
-1.09516e-06
2.86833e-05
-3.8823e-06
3.05853e-05
-5.62056e-06
1.8476e-05
-4.25564e-06
-4.14705e-06
-5.31249e-06
-1.30111e-05
-8.07628e-06
-8.92604e-06
-7.21345e-06
-1.03407e-05
-2.69425e-06
-1.57675e-05
2.51932e-06
-1.90806e-05
5.97715e-06
-1.52626e-05
7.00824e-06
-5.11082e-06
6.40972e-06
6.25012e-06
4.46719e-06
1.43633e-05
2.26373e-06
1.46064e-05
5.9153e-07
7.19155e-06
5.44849e-08
-5.01782e-06
1.98889e-06
-1.82459e-05
7.1137e-06
-2.7665e-05
1.43414e-05
-2.91121e-05
1.78529e-05
-1.39323e-05
1.48493e-05
7.29096e-06
6.27389e-06
2.05252e-05
3.76475e-05
2.04103e-06
-2.04103e-06
1.18263e-05
-9.78524e-06
2.21398e-05
-1.03135e-05
2.67798e-05
-4.64002e-06
2.24298e-05
4.35006e-06
8.99266e-06
1.34371e-05
-7.82774e-06
1.68204e-05
-2.11272e-05
1.32994e-05
-2.56525e-05
4.52534e-06
-1.96515e-05
-6.00102e-06
-3.34502e-06
-1.63064e-05
1.05179e-05
-1.38629e-05
-3.72849e-06
1.42464e-05
-3.90608e-05
3.53323e-05
-5.94631e-05
2.04023e-05
-5.16041e-05
-7.85903e-06
-2.61377e-05
-2.54664e-05
-4.80668e-06
-2.13311e-05
-4.80668e-06
2.62596e-06
-4.66699e-06
1.93974e-05
-2.65567e-05
2.88982e-05
-1.98144e-05
3.21036e-05
-7.84543e-06
3.26065e-05
3.84721e-06
2.74574e-05
1.85862e-05
1.32585e-05
3.10193e-05
-4.0387e-06
3.05965e-05
-1.29489e-05
1.34355e-05
-1.24667e-05
-6.48324e-06
-5.9436e-06
-2.28295e-05
-5.08041e-06
-1.47261e-05
-2.82827e-05
3.74487e-05
-5.68443e-05
6.38939e-05
-6.03646e-05
2.39226e-05
-4.13429e-05
-2.68807e-05
-1.46605e-05
-5.21488e-05
-7.53707e-07
-3.52378e-05
-5.56039e-06
1.18868e-05
-1.65538e-05
2.86522e-05
-4.3322e-05
3.54185e-05
-2.65807e-05
3.71174e-05
-9.54433e-06
3.69363e-05
4.02825e-06
3.70583e-05
1.84642e-05
3.42784e-05
3.37993e-05
2.61937e-05
3.86813e-05
1.43654e-05
2.52638e-05
2.99385e-06
4.88832e-06
-7.72468e-06
-1.21109e-05
-1.78553e-05
-4.59548e-06
-3.48271e-05
5.44205e-05
-4.82854e-05
7.73521e-05
-4.07795e-05
1.64167e-05
-2.11415e-05
-4.65187e-05
1.49638e-07
-7.34399e-05
6.41339e-06
-4.15016e-05
8.52995e-07
1.82407e-05
-3.47945e-05
1.18237e-05
-3.6905e-05
-1.36361e-05
-1.12089e-06
-1.72233e-05
-5.95726e-06
2.50976e-06
-1.57048e-05
2.91767e-05
-8.2027e-06
4.17926e-05
2.11835e-05
4.24357e-05
3.80382e-05
3.51489e-05
3.25506e-05
2.08107e-05
1.92264e-05
1.04934e-06
7.65046e-06
-1.52056e-05
1.16595e-05
-2.21342e-05
6.13491e-05
-2.33936e-05
7.86116e-05
-1.20622e-05
5.08531e-06
3.19526e-06
-6.17762e-05
9.51437e-06
-7.9759e-05
8.25734e-06
-4.02446e-05
9.11034e-06
1.129e-05
-4.60845e-05
-2.93722e-05
3.75719e-06
-7.72221e-05
4.6729e-05
-8.95181e-05
6.33897e-06
-6.33763e-05
-4.18466e-05
-1.73391e-05
-5.424e-05
2.4431e-05
-2.05866e-05
4.22618e-05
2.02074e-05
4.40843e-05
3.07282e-05
3.46847e-05
2.8626e-05
1.47897e-05
2.75454e-05
-3.68246e-06
3.01317e-05
-4.73474e-06
6.24014e-05
7.02431e-06
6.68525e-05
1.56996e-05
-3.58996e-06
1.93733e-05
-6.54499e-05
1.31715e-05
-7.35572e-05
5.4101e-06
-3.24832e-05
1.45204e-05
-4.82924e-06
-4.12554e-05
-6.24156e-05
6.13437e-05
-9.35321e-05
7.78455e-05
-7.2685e-05
-1.45081e-05
-4.50103e-05
-6.95212e-05
-2.83817e-05
-7.08686e-05
-3.33767e-06
-4.56307e-05
2.44386e-05
-7.56896e-06
3.98163e-05
1.53505e-05
4.04438e-05
2.79985e-05
2.9394e-05
3.85952e-05
1.46017e-05
4.4924e-05
1.54226e-05
6.15805e-05
2.98014e-05
5.24737e-05
3.36342e-05
-7.42272e-06
2.8204e-05
-6.00198e-05
1.1643e-05
-5.69963e-05
1.08497e-06
-2.19252e-05
1.56054e-05
-3.80365e-06
-3.74517e-05
-6.09178e-05
0.000118458
-8.19695e-05
9.88972e-05
-6.08596e-05
-3.5618e-05
-4.75896e-05
-8.27913e-05
-3.38806e-05
-8.45776e-05
-1.58583e-05
-6.36529e-05
7.47138e-06
-3.08987e-05
2.68382e-05
-4.01632e-06
3.58374e-05
1.89994e-05
3.47421e-05
3.96904e-05
2.96051e-05
5.00611e-05
3.55619e-05
5.56237e-05
4.63102e-05
4.17253e-05
4.52561e-05
-6.36861e-06
3.06997e-05
-4.54633e-05
6.66853e-06
-3.29651e-05
-3.14864e-06
-1.2108e-05
1.24568e-05
-3.19981e-06
-3.42519e-05
-5.65575e-05
0.000171816
-7.64675e-05
0.000118807
-6.66582e-05
-4.54272e-05
-5.80987e-05
-9.13508e-05
-4.59942e-05
-9.6682e-05
-2.95695e-05
-8.00777e-05
-8.05778e-06
-5.24104e-05
1.1881e-05
-2.39551e-05
2.59436e-05
4.93683e-06
3.2529e-05
3.31051e-05
3.58188e-05
4.67713e-05
4.43711e-05
4.70715e-05
5.36744e-05
3.2422e-05
4.80642e-05
-7.58404e-07
2.74008e-05
-2.47998e-05
-2.94289e-07
-5.27007e-06
-7.6019e-06
-4.80042e-06
4.85487e-06
7.10477e-06
2.15785e-05
1.9347e-06
3.57554e-05
-3.83895e-06
2.42497e-05
-6.18214e-06
-1.80387e-06
-1.31018e-05
-6.09146e-06
-1.70059e-05
-5.02195e-06
-1.33814e-05
-1.39652e-05
-8.54008e-06
-2.06089e-05
-7.45597e-06
-2.01648e-05
-9.4122e-06
-1.33064e-05
-1.18026e-05
-2.72046e-06
-1.57342e-05
1.01817e-05
-2.1056e-05
1.96851e-05
-2.76135e-05
2.11639e-05
-3.29012e-05
1.24793e-05
-3.61118e-05
-1.80728e-06
-3.59805e-05
-1.83772e-05
-2.68542e-05
-3.67913e-05
-6.0462e-06
-4.99201e-05
1.68068e-05
-3.67853e-05
2.85089e-05
-4.41106e-06
2.1588e-05
2.7446e-05
3.75621e-05
2.16734e-05
2.08967e-05
6.81757e-07
1.81339e-05
3.85183e-05
5.77406e-06
3.66095e-05
-3.20446e-06
7.17463e-06
-9.17213e-06
-1.23789e-07
-1.64034e-05
2.20928e-06
-2.97268e-05
-6.41686e-07
-4.56546e-05
-4.68112e-06
-5.87802e-05
-7.03909e-06
-6.98247e-05
-2.26186e-06
-7.969e-05
7.1448e-06
-8.58365e-05
1.63282e-05
-9.09183e-05
2.4767e-05
-9.45872e-05
2.48328e-05
-9.97515e-05
1.76436e-05
-0.00010792
6.36091e-06
-0.000116725
-9.57194e-06
-0.000109908
-4.36082e-05
-8.58375e-05
-7.39907e-05
-5.44702e-05
-6.81526e-05
-2.79948e-05
-3.08865e-05
-8.20037e-06
7.6516e-06
2.46991e-05
4.66262e-06
2.48586e-05
-2.41768e-05
2.66827e-05
3.66942e-05
1.29959e-05
5.02962e-05
-1.04897e-05
3.06603e-05
-4.12874e-05
3.06739e-05
-7.72897e-05
3.82115e-05
-0.000106451
2.85196e-05
-0.000122085
1.09528e-05
-0.000135735
6.6114e-06
-0.000145383
7.38587e-06
-0.000149021
1.07827e-05
-0.000152817
2.01235e-05
-0.00016427
3.62207e-05
-0.000176387
3.69494e-05
-0.000182678
2.3935e-05
-0.000176568
2.50659e-07
-0.000157449
-2.8691e-05
-0.000141491
-5.95663e-05
-0.000135431
-8.00509e-05
-0.000127225
-7.63584e-05
-0.000113114
-4.49975e-05
-0.000102355
-3.10742e-06
1.39808e-05
-9.16364e-05
1.11654e-05
-3.53422e-05
1.45103e-05
3.33493e-05
-4.4282e-06
6.92347e-05
-4.9964e-05
7.6196e-05
-0.000109354
9.00639e-05
-0.000157202
8.606e-05
-0.000182832
5.4149e-05
-0.000194297
2.24184e-05
-0.000204742
1.70563e-05
-0.00021639
1.90338e-05
-0.000219993
1.43852e-05
-0.000214664
1.47952e-05
-0.000210474
3.20308e-05
-0.000198293
2.47685e-05
-0.000170273
-4.08543e-06
-0.000127061
-4.29614e-05
-8.62255e-05
-6.95264e-05
-6.98138e-05
-7.5978e-05
-9.5947e-05
-5.39178e-05
-0.000135371
-3.69341e-05
-0.000152035
-2.83337e-05
-0.000153684
-1.45895e-06
5.67259e-06
-0.000145375
-7.94618e-06
-2.7396e-05
-1.99079e-05
4.5311e-05
-5.22298e-05
0.000101557
-0.000109867
0.000133833
-0.000173618
0.000153815
-0.000228334
0.000140776
-0.000276924
0.000102739
-0.000291799
3.72939e-05
-0.000272769
-1.97356e-06
-0.000250559
-3.17612e-06
-0.000235718
-4.56246e-07
-0.00022043
-4.92892e-07
-0.000188332
-6.74425e-08
-0.000147862
-1.57004e-05
-0.000105921
-4.60265e-05
-7.96116e-05
-6.92713e-05
-5.98994e-05
-8.92386e-05
-4.02164e-05
-9.5661e-05
-2.52414e-05
-6.88928e-05
-2.76595e-05
-3.4516e-05
-4.94212e-05
-6.572e-06
-0.000105118
5.42382e-05
2.30277e-05
-0.000122473
-3.03554e-05
2.95937e-06
-6.68551e-05
8.18107e-05
-0.000111877
0.000146579
-0.000161418
0.000183374
-0.000207413
0.000199809
-0.000261127
0.00019449
-0.000312769
0.00015438
-0.000334143
5.86678e-05
-0.000303865
-3.22513e-05
-0.000255081
-5.19601e-05
-0.00020985
-4.56869e-05
-0.000166863
-4.34803e-05
-0.000124396
-4.25342e-05
-9.75981e-05
-4.24982e-05
-8.78173e-05
-5.58073e-05
-7.89972e-05
-7.80913e-05
-5.37197e-05
-0.000114516
-1.85936e-05
-0.000130787
-8.37002e-06
-7.91164e-05
-2.35878e-05
-1.92982e-05
6.2438e-06
-3.64036e-05
3.9228e-05
2.1254e-05
5.74361e-05
4.81959e-06
-5.64141e-05
5.93735e-05
-0.000118169
0.000143566
-0.000165677
0.000194087
-0.000200166
0.000217863
-0.000235406
0.000235049
-0.000277871
0.000236956
-0.000299524
0.000176033
-0.000296407
5.55504e-05
-0.000293798
-3.48594e-05
-0.000263727
-8.20318e-05
-0.000226691
-8.27227e-05
-0.000185748
-8.44228e-05
-0.000151558
-7.67244e-05
-0.000137414
-5.66419e-05
-0.000136111
-5.71105e-05
-0.000119615
-9.45875e-05
-6.60794e-05
-0.000168052
7.46423e-06
-0.000204331
2.41607e-05
-9.5813e-05
-4.10618e-05
4.59241e-05
-7.42533e-05
-3.21208e-06
-2.09927e-05
-3.20065e-05
2.01564e-05
1.6287e-05
-6.66367e-05
0.00012601
-0.000150877
0.000227805
-0.000191914
0.000235124
-0.000218287
0.000244236
-0.000250828
0.00026759
-0.000270445
0.000256573
-0.000272626
0.000178214
-0.000275747
5.86712e-05
-0.000284546
-2.60605e-05
-0.000288826
-7.77515e-05
-0.000271392
-0.000100156
-0.000245702
-0.000110113
-0.000243307
-7.91197e-05
-0.000271102
-2.88468e-05
-0.000266646
-6.15661e-05
-0.000183586
-0.000177648
-0.000106049
-0.000245589
-6.80106e-05
-0.000242369
-1.28668e-05
-0.000150956
-2.56214e-05
5.8679e-05
-0.000101824
7.29901e-05
-0.000101698
-3.21322e-05
-2.66993e-05
-5.48423e-05
-3.12494e-05
0.00015726
-0.000120027
0.000316583
-0.00018182
0.000296916
-0.00021571
0.000278126
-0.000235065
0.000286944
-0.000234527
0.000256036
-0.000228266
0.000171953
-0.000244728
7.51334e-05
-0.000277168
6.37981e-06
-0.000310962
-4.39576e-05
-0.000327213
-8.39047e-05
-0.000334
-0.000103326
-0.000319776
-9.33439e-05
-0.000258642
-8.99812e-05
-0.000188612
-0.000131596
-0.000147034
-0.000219226
-0.000137952
-0.000254671
-0.000139072
-0.000241249
-0.000121346
-0.000168682
-6.95506e-05
6.88362e-06
-5.81717e-05
6.16112e-05
-2.93471e-05
-6.09567e-05
-8.73188e-05
3.12722e-05
2.12719e-05
0.000135988
-4.82908e-06
0.000342684
-9.73761e-05
0.000389464
-0.000149842
0.000330592
-0.000168299
0.000305402
-0.000159837
0.000247574
-0.000153807
0.000165922
-0.00016699
8.83165e-05
-0.000185383
2.47719e-05
-0.000195632
-3.37086e-05
-0.000197686
-8.18512e-05
-0.000193241
-0.000107771
-0.000175004
-0.000111581
-0.000149105
-0.000115881
-0.000130974
-0.000149727
-0.000138405
-0.000211795
-0.000156006
-0.000237069
-0.000177263
-0.000219992
-0.000187178
-0.000158768
-0.000142618
-3.76764e-05
-7.86488e-05
-2.35764e-06
-3.98525e-05
-9.9753e-05
-0.000124182
-2.98879e-06
2.93589e-05
0.000106629
-5.81131e-06
0.000377855
-3.94613e-05
0.000423114
-7.43207e-05
0.000365451
-7.83353e-05
0.000309417
-7.54116e-05
0.00024465
-7.95148e-05
0.000170026
-9.3978e-05
0.00010278
-0.000104064
3.48581e-05
-0.000108237
-2.95361e-05
-0.000109466
-8.06221e-05
-0.000112093
-0.000105144
-0.000113226
-0.000110448
-0.000111977
-0.000117131
-0.000114722
-0.000146981
-0.000135799
-0.000190718
-0.000171119
-0.00020175
-0.000217699
-0.000173412
-0.000267886
-0.00010858
-0.000266796
-3.87666e-05
-0.000205809
-6.33445e-05
-0.000180744
-0.000124818
-0.000136539
-0.000168387
1.02871e-05
9.63418e-05
-2.61166e-05
0.000414258
-3.53797e-05
0.000432377
-3.77418e-05
0.000367813
-2.34739e-05
0.000295149
-2.22702e-05
0.000243446
-2.76063e-05
0.000175362
-4.14226e-05
0.000116595
-5.08814e-05
4.43163e-05
-5.70827e-05
-2.33348e-05
-6.60571e-05
-7.1648e-05
-7.99714e-05
-9.12301e-05
-9.44159e-05
-9.60037e-05
-0.000107349
-0.000104197
-0.000123661
-0.00013067
-0.000152946
-0.000161433
-0.000201023
-0.000153673
-0.000267965
-0.00010647
-0.000316916
-5.96295e-05
-0.000309405
-4.62774e-05
-0.000276359
-9.63903e-05
-0.000255826
-0.000145352
-0.000150837
-0.000241529
4.31194e-06
9.20298e-05
-2.71102e-05
0.000445681
-2.67055e-05
0.000431972
-1.35782e-05
0.000354686
-1.19784e-06
0.000282768
1.76382e-06
0.000240485
-3.09743e-06
0.000180223
-1.1784e-05
0.000125282
-1.80129e-05
5.0545e-05
-2.7581e-05
-1.37667e-05
-4.61845e-05
-5.30448e-05
-7.11262e-05
-6.62889e-05
-9.52576e-05
-7.18724e-05
-0.000117788
-8.16666e-05
-0.000143009
-0.000105449
-0.000177378
-0.000127065
-0.000223376
-0.000107676
-0.000275934
-5.39111e-05
-0.000309304
-2.62597e-05
-0.000303845
-5.17364e-05
-0.000290101
-0.000110135
-0.000278329
-0.000157123
-0.000166657
-0.000262509
-3.55185e-06
9.55817e-05
-2.41171e-05
0.000466246
-2.19005e-05
0.000429756
-5.60835e-06
0.000338393
3.42036e-06
0.00027374
5.30422e-06
0.000238601
2.96072e-06
0.000182567
1.14348e-07
0.000128128
-4.94774e-06
5.56073e-05
-2.1334e-05
2.62011e-06
-5.07298e-05
-2.36491e-05
-8.10213e-05
-3.59975e-05
-0.000107831
-4.50625e-05
-0.000133526
-5.59715e-05
-0.000161287
-7.76882e-05
-0.000190671
-9.76807e-05
-0.000219708
-7.86389e-05
-0.000248126
-2.5493e-05
-0.000270203
-4.18246e-06
-0.000278598
-4.3342e-05
-0.000278829
-0.000109903
-0.000278517
-0.000157436
-0.000171065
-0.000274108
-6.21638e-06
0.000101798
-3.84433e-05
0.000498473
-3.19709e-05
0.000423283
-1.72341e-05
0.000323656
-4.79957e-06
0.000261306
-3.63009e-07
0.000234165
-3.18265e-07
0.000182522
3.10446e-07
0.000127499
-1.16908e-05
6.76087e-05
-3.93083e-05
3.02376e-05
-7.14503e-05
8.49245e-06
-9.75897e-05
-9.85821e-06
-0.000120469
-2.21828e-05
-0.000144424
-3.20169e-05
-0.000170912
-5.11997e-05
-0.0001906
-7.79922e-05
-0.0001945
-7.4739e-05
-0.000193744
-2.62497e-05
-0.000207842
9.91632e-06
-0.000226049
-2.51357e-05
-0.000243124
-9.28282e-05
-0.000259892
-0.000140668
-0.000155888
-0.000275069
-4.88449e-05
0.000150643
-7.31265e-05
0.000522754
-5.14656e-05
0.000401623
-2.83864e-05
0.000300577
-1.30355e-05
0.000245955
-5.9195e-06
0.000227049
-6.07806e-06
0.00018268
-1.36787e-05
0.0001351
-3.86286e-05
9.25589e-05
-7.07479e-05
6.23569e-05
-9.52214e-05
3.29658e-05
-0.000112788
7.70848e-06
-0.000126948
-8.02308e-06
-0.000143309
-1.56559e-05
-0.000164492
-3.0016e-05
-0.000178547
-6.39378e-05
-0.000165388
-8.78978e-05
-0.000131395
-6.02428e-05
-0.000119298
-2.18014e-06
-0.000143817
-6.16761e-07
-0.000173052
-6.35941e-05
-0.000197199
-0.000116522
-0.000137038
-0.000216049
-2.53971e-05
0.00017604
-5.61804e-05
0.000553538
-4.88152e-05
0.000394258
-2.27832e-05
0.000274545
-1.22667e-05
0.000235438
-6.69287e-06
0.000221475
-1.71615e-05
0.000193148
-4.31597e-05
0.000161098
-8.09484e-05
0.000130348
-0.000110801
9.22097e-05
-0.000126371
4.85364e-05
-0.0001321
1.34375e-05
-0.000131342
-8.78141e-06
-0.000130985
-1.60125e-05
-0.000138724
-2.22777e-05
-0.000153664
-4.89979e-05
-0.000151044
-9.05177e-05
-0.000112596
-9.86903e-05
-5.75874e-05
-5.7189e-05
-5.27713e-05
-5.43296e-06
-9.87987e-05
-1.75669e-05
-0.00013872
-7.66003e-05
-0.000106552
-0.000169206
-3.56531e-06
0.000179605
4.05728e-05
0.0005094
5.82929e-06
0.000429002
3.11941e-06
0.000277255
2.61259e-06
0.000235945
-7.25299e-06
0.00023134
-3.69635e-05
0.000222859
-8.24645e-05
0.0002066
-0.000126356
0.000174239
-0.000155148
0.000121002
-0.00016647
5.98589e-05
-0.000160801
7.76825e-06
-0.000143321
-2.62618e-05
-0.000121034
-3.82991e-05
-0.000105847
-3.74647e-05
-0.000110765
-4.40797e-05
-0.000128528
-7.2755e-05
-0.000123651
-0.000103567
-7.76837e-05
-0.000103156
-2.04423e-05
-6.26744e-05
-2.5054e-05
-1.29553e-05
-7.43316e-05
-2.73226e-05
-6.54633e-05
-0.00011542
1.58203e-06
0.000178023
7.29788e-05
0.000438003
6.13329e-05
0.000440647
3.98631e-05
0.000298725
1.95273e-05
0.000256281
-1.00646e-05
0.000260932
-5.84488e-05
0.000271244
-0.000114785
0.000262936
-0.000160296
0.00021975
-0.00019047
0.000151177
-0.000202636
7.20252e-05
-0.000192318
-2.55026e-06
-0.000164761
-5.38183e-05
-0.000126335
-7.67248e-05
-8.97287e-05
-7.40713e-05
-7.07684e-05
-6.30399e-05
-8.28773e-05
-6.06459e-05
-0.000106856
-7.9588e-05
-0.000102969
-0.000107044
-6.27801e-05
-0.000102863
-1.69639e-05
-5.87716e-05
-2.79713e-05
-1.63152e-05
-2.70699e-05
-6.63646e-05
2.96103e-06
0.000175062
5.86964e-05
0.000382267
8.04636e-05
0.00041888
6.00146e-05
0.000319174
3.10238e-05
0.000285271
-8.46463e-06
0.000300421
-6.27916e-05
0.000325571
-0.000117504
0.000317649
-0.00016177
0.000264015
-0.000195352
0.000184759
-0.000211467
8.81405e-05
-0.000205117
-8.90024e-06
-0.000176382
-8.25531e-05
-0.000131899
-0.000121207
-8.52181e-05
-0.000120753
-4.89364e-05
-9.93214e-05
-3.43875e-05
-7.51947e-05
-5.59025e-05
-5.8073e-05
-8.61622e-05
-7.67839e-05
-8.79639e-05
-0.000101061
-5.53757e-05
-9.13596e-05
-2.63683e-05
-4.53225e-05
-1.62528e-05
-3.71854e-05
7.18496e-06
0.000167877
3.95316e-05
0.000349921
6.62661e-05
0.000392146
5.88315e-05
0.000326608
4.13793e-05
0.000302724
1.00762e-05
0.000331724
-3.41462e-05
0.000369793
-7.69408e-05
0.000360443
-0.000116657
0.000303732
-0.00015313
0.000221232
-0.000178801
0.000113811
-0.000178372
-9.32881e-06
-0.000153535
-0.00010739
-0.000112324
-0.000162418
-6.72704e-05
-0.000165805
-2.9896e-05
-0.000136696
-3.42046e-06
-0.00010167
4.09354e-06
-6.55869e-05
-2.7511e-05
-4.51793e-05
-6.34419e-05
-6.51302e-05
-6.85959e-05
-8.62055e-05
-4.12082e-05
-7.27102e-05
-3.86683e-05
-1.87928e-05
1.11496e-05
0.000156728
6.02086e-05
0.000300862
8.41706e-05
0.000368183
7.40562e-05
0.000336723
6.43165e-05
0.000312464
5.17479e-05
0.000344293
2.89524e-05
0.000392589
-1.07009e-06
0.000390466
-3.3206e-05
0.000335868
-6.63691e-05
0.000254395
-9.34149e-05
0.000140857
-0.000102712
-3.16418e-08
-8.56009e-05
-0.000124501
-5.6064e-05
-0.000191955
-2.37258e-05
-0.000198144
6.09071e-06
-0.000166512
2.66572e-05
-0.000122237
4.48203e-05
-8.375e-05
4.73052e-05
-4.76641e-05
1.09934e-05
-2.88183e-05
-2.85024e-05
-4.67096e-05
-3.25586e-05
-6.8654e-05
-6.52579e-05
-5.96913e-06
2.50216e-05
0.000131706
8.26331e-05
0.000243251
0.000120627
0.00033019
0.000120899
0.000336451
0.000111913
0.00032145
0.000113891
0.000342314
0.000115901
0.00039058
0.000105858
0.000400508
8.61027e-05
0.000355623
6.3493e-05
0.000277005
4.10602e-05
0.00016329
2.4787e-05
1.62416e-05
2.54031e-05
-0.000125117
3.65024e-05
-0.000203054
4.82111e-05
-0.000209852
5.81128e-05
-0.000176414
6.64038e-05
-0.000130528
7.35728e-05
-9.09189e-05
8.6255e-05
-6.03463e-05
9.09889e-05
-3.35521e-05
6.36889e-05
-1.94098e-05
2.96473e-05
-3.46126e-05
-5.99951e-05
2.43845e-05
2.11685e-05
0.000110537
7.58404e-05
0.000188579
0.000137828
0.000268202
0.000171298
0.000302982
0.000180143
0.000312605
0.000191645
0.000330812
0.000211416
0.000370809
0.000221836
0.000390088
0.000218738
0.000358721
0.000209982
0.000285761
0.000198095
0.000175176
0.000178149
3.61876e-05
0.000161404
-0.000108372
0.000147246
-0.000188896
0.000131913
-0.00019452
0.000117827
-0.000162328
0.00010856
-0.000121261
0.000104375
-8.67338e-05
0.000106654
-6.26254e-05
0.000118377
-4.52748e-05
0.00013221
-3.32428e-05
0.000127519
-2.99222e-05
-4.40681e-05
0.000111592
1.25785e-05
9.79586e-05
5.9434e-05
0.000141723
0.000128713
0.000198923
0.000193569
0.000238126
0.000239178
0.000266996
0.000272662
0.000297327
0.000306515
0.000336956
0.000334254
0.00036235
0.000347731
0.000345244
0.00035032
0.000283172
0.000343817
0.000181679
0.000327276
5.27283e-05
0.000294736
-7.58316e-05
0.000251972
-0.000146132
0.000208022
-0.00015057
0.000170797
-0.000125104
0.000144769
-9.52328e-05
0.0001298
-7.17641e-05
0.000123078
-5.59039e-05
0.000124248
-4.64449e-05
0.000132807
-4.18018e-05
0.000145217
-4.23322e-05
-5.07041e-05
0.000151853
1.00767e-05
8.78821e-05
4.01935e-05
0.000111607
0.000104722
0.000134395
0.000182338
0.00016051
0.000256598
0.000192736
0.00032052
0.000233405
0.000375899
0.000281578
0.000420586
0.000317663
0.000448563
0.000317266
0.000460265
0.000271471
0.000456648
0.000185296
0.000435111
7.42658e-05
0.000386025
-2.67465e-05
0.000319857
-7.99632e-05
0.000254857
-8.55696e-05
0.000202717
-7.29638e-05
0.000166839
-5.93547e-05
0.000145013
-4.99381e-05
0.00013302
-4.39106e-05
0.000127505
-4.09305e-05
0.000127032
-4.13286e-05
0.000130037
-4.5337e-05
-5.32442e-05
0.000132577
1.06946e-05
7.71875e-05
3.20212e-05
9.028e-05
7.97895e-05
8.66265e-05
0.000148123
9.21761e-05
0.000228113
0.000112747
0.000308782
0.000152736
0.000381988
0.000208372
0.000442158
0.000257493
0.000483586
0.000275838
0.000503418
0.000251639
0.000499995
0.000188719
0.000467907
0.000106353
0.000405764
3.53967e-05
0.000329245
-3.44472e-06
0.000259979
-1.63032e-05
0.000207426
-2.04112e-05
0.000171922
-2.385e-05
0.000149367
-2.73835e-05
0.000135492
-3.00362e-05
0.000127152
-3.25898e-05
0.000122232
-3.64089e-05
0.00011924
-4.23459e-05
-5.0408e-05
0.000116404
1.11435e-05
6.6044e-05
2.61714e-05
7.52522e-05
5.56256e-05
5.71725e-05
0.000100988
4.68139e-05
0.000161227
5.25074e-05
0.0002319
8.20638e-05
0.000304508
0.000135764
0.000370452
0.00019155
0.000420005
0.000226285
0.000445957
0.000225688
0.000442916
0.00019176
0.000408309
0.000140961
0.000349621
9.40841e-05
0.000285226
6.09509e-05
0.000230951
3.79712e-05
0.000191259
1.9281e-05
0.000163945
3.46473e-06
0.000145059
-8.49795e-06
0.000131976
-1.6953e-05
0.000122957
-2.35716e-05
0.000116464
-2.99155e-05
0.000111087
-3.69695e-05
-4.49746e-05
0.000105654
9.52922e-06
5.65149e-05
1.81162e-05
6.66656e-05
3.0717e-05
4.45719e-05
5.13624e-05
2.61685e-05
8.35545e-05
2.03153e-05
0.000128225
3.73938e-05
0.000181903
8.20851e-05
0.000236385
0.000137068
0.000282062
0.000180608
0.000309631
0.000198118
0.000312897
0.000188494
0.000292219
0.000161639
0.000256975
0.000129328
0.000220213
9.77136e-05
0.000189836
6.83481e-05
0.000166925
4.21917e-05
0.000149303
2.10868e-05
0.000135325
5.47984e-06
0.000124395
-6.02303e-06
0.000115958
-1.51348e-05
0.000109243
-2.32005e-05
0.000103313
-3.10393e-05
-3.9008e-05
9.73466e-05
6.92304e-06
4.9592e-05
1.08177e-05
6.27713e-05
1.22677e-05
4.3122e-05
1.27556e-05
2.56807e-05
1.79326e-05
1.51383e-05
3.37638e-05
2.15626e-05
6.23549e-05
5.3494e-05
9.84549e-05
0.000100968
0.00013497
0.000144093
0.000163218
0.00016987
0.000177697
0.000174015
0.000178783
0.000160552
0.000171615
0.000136497
0.00016176
0.000107568
0.000152028
7.80803e-05
0.00014228
5.19395e-05
0.000132357
3.10098e-05
0.000122899
1.49379e-05
0.000114491
2.38486e-06
0.000107295
-7.93936e-06
0.00010103
-1.69351e-05
9.52413e-05
-2.52506e-05
-3.32183e-05
8.94516e-05
4.40896e-06
4.51832e-05
5.97832e-06
6.1202e-05
3.54326e-06
4.5557e-05
-3.80565e-06
3.30296e-05
-1.37429e-05
2.50755e-05
-1.95485e-05
2.73682e-05
-1.36456e-05
4.7591e-05
5.60425e-06
8.1718e-05
3.22244e-05
0.000117473
6.03925e-05
0.000141702
8.44734e-05
0.000149934
0.000102163
0.000142863
0.000114024
0.000124635
0.000120846
0.000100746
0.000122725
7.6202e-05
0.000120448
5.42162e-05
0.000115592
3.58656e-05
0.000109673
2.08565e-05
0.000103618
8.44032e-06
9.78467e-05
-2.16825e-06
9.23658e-05
-1.14541e-05
8.70562e-05
-1.99409e-05
-2.78532e-05
8.16911e-05
2.39866e-06
4.27847e-05
2.87292e-06
6.07278e-05
1.32965e-07
4.82969e-05
-7.30981e-06
4.04724e-05
-1.96399e-05
3.74057e-05
-3.23071e-05
4.00355e-05
-3.71095e-05
5.23934e-05
-2.96714e-05
7.428e-05
-1.08283e-05
9.86296e-05
1.42744e-05
0.000116599
4.07524e-05
0.000123456
6.45701e-05
0.000119046
8.30504e-05
0.000106155
9.50257e-05
8.8771e-05
0.00010085
7.03779e-05
0.000102
5.30657e-05
0.000100208
3.76572e-05
9.68233e-05
2.42416e-05
9.26843e-05
1.25794e-05
8.82086e-05
2.30761e-06
8.36451e-05
-6.8904e-06
7.8969e-05
-1.52648e-05
-2.30278e-05
7.41435e-05
9.86649e-07
4.17981e-05
1.06873e-06
6.06457e-05
-9.43793e-07
5.03095e-05
-5.68861e-06
4.52173e-05
-1.36694e-05
4.53866e-05
-2.28527e-05
4.92189e-05
-2.81992e-05
5.774e-05
-2.48712e-05
7.09522e-05
-1.19469e-05
8.57054e-05
7.59872e-06
9.70537e-05
2.96889e-05
0.000101366
5.02808e-05
9.84537e-05
6.66502e-05
8.97858e-05
7.77816e-05
7.76396e-05
8.40796e-05
6.408e-05
8.66398e-05
5.05055e-05
8.66107e-05
3.76865e-05
8.49108e-05
2.59417e-05
8.21828e-05
1.53076e-05
7.88253e-05
5.66536e-06
7.5115e-05
-3.17998e-06
7.11053e-05
-1.12551e-05
-1.8786e-05
6.68634e-05
2.34598e-07
4.15635e-05
3.06472e-07
6.05738e-05
-1.0219e-06
5.16379e-05
-3.57229e-06
4.77678e-05
-7.37439e-06
4.91888e-05
-1.14494e-05
5.32941e-05
-1.33413e-05
5.9632e-05
-1.02867e-05
6.78977e-05
-1.19316e-06
7.66119e-05
1.26983e-05
8.31623e-05
2.8525e-05
8.55392e-05
4.35773e-05
8.34014e-05
5.60106e-05
7.73526e-05
6.50768e-05
6.85735e-05
7.08704e-05
5.82865e-05
7.39049e-05
4.74712e-05
7.48062e-05
3.67854e-05
7.41541e-05
2.65941e-05
7.24142e-05
1.70478e-05
6.99158e-05
8.16393e-06
6.69323e-05
-1.96431e-07
6.35407e-05
-7.86364e-06
-1.51162e-05
5.98709e-05
-6.41779e-08
4.16277e-05
1.71344e-07
6.03384e-05
-5.05057e-07
5.23145e-05
-1.73952e-06
4.90023e-05
-3.18168e-06
5.06312e-05
-4.17823e-06
5.42908e-05
-3.55366e-06
5.90075e-05
-8.20206e-08
6.44261e-05
6.88577e-06
6.96442e-05
1.67147e-05
7.33333e-05
2.78164e-05
7.44375e-05
3.86289e-05
7.25889e-05
4.79771e-05
6.80044e-05
5.52487e-05
6.13021e-05
6.03087e-05
5.32266e-05
6.33293e-05
4.44509e-05
6.46324e-05
3.54825e-05
6.45761e-05
2.66505e-05
6.3488e-05
1.81361e-05
6.16387e-05
1.00133e-05
5.91669e-05
2.27534e-06
5.6342e-05
-5.03887e-06
-1.19784e-05
5.32041e-05
-1.10679e-07
4.17384e-05
4.35513e-07
5.97924e-05
3.67227e-07
5.23828e-05
-3.5863e-08
4.94055e-05
-2.58984e-07
5.08544e-05
1.67191e-07
5.38647e-05
1.87042e-06
5.73043e-05
5.43574e-06
6.08608e-05
1.10647e-05
6.40152e-05
1.8355e-05
6.60431e-05
2.64706e-05
6.63219e-05
3.44944e-05
6.4565e-05
4.1658e-05
6.08409e-05
4.74745e-05
5.54856e-05
5.17454e-05
4.89559e-05
5.44933e-05
4.17031e-05
5.58751e-05
3.41009e-05
5.61054e-05
2.64204e-05
5.54059e-05
1.88357e-05
5.39768e-05
1.14423e-05
5.19746e-05
4.2775e-06
4.95824e-05
-2.64675e-06
-9.28413e-06
4.6888e-05
1.98524e-08
4.17186e-05
9.6766e-07
5.88446e-05
1.3582e-06
5.19923e-05
1.59604e-06
4.91677e-05
2.06048e-06
5.039e-05
3.14783e-06
5.27773e-05
5.21895e-06
5.52332e-05
8.54155e-06
5.75382e-05
1.31498e-05
5.94069e-05
1.87776e-05
6.04153e-05
2.49294e-05
6.01701e-05
3.10326e-05
5.84618e-05
3.65742e-05
5.52993e-05
4.11917e-05
5.08681e-05
4.46979e-05
4.54498e-05
4.70553e-05
3.93458e-05
4.83302e-05