/*--------------------------------*- C++ -*----------------------------------*\
| =========                 |                                                 |
| \\      /  F ield         | OpenFOAM: The Open Source CFD Toolbox           |
|  \\    /   O peration     | Version:  2206                                  |
|   \\  /    A nd           | Website:  www.openfoam.com                      |
|    \\/     M anipulation  |                                                 |
\*---------------------------------------------------------------------------*/
FoamFile
{
    version     2.0;
    format      ascii;
    arch        "LSB;label=32;scalar=64";
    class       volVectorField;
    location    "1";
    object      U;
}
// * * * * * * * * * * * * * * * * * * * * * * * * * * * * * * * * * * * * * //

dimensions      [0 1 -1 0 0 0 0];

internalField   nonuniform List<vector> 
2268
(
(0.0249201 -0.0201607 0)
(0.0448625 -0.00407933 0)
(-0.00660201 0.0150834 0)
(-0.0638065 0.0134952 0)
(-0.0719145 0.00167805 0)
(-0.0503678 -0.00513079 0)
(-0.0330299 -0.00470577 0)
(-0.0223727 -0.00305892 0)
(-0.0159424 -0.00179363 0)
(-0.0102671 -0.00334237 0)
(0.00101374 -0.00859151 0)
(0.0133131 -0.0132887 0)
(0.0132887 -0.00860147 0)
(-0.0316407 0.0167177 0)
(-0.14449 0.0323676 0)
(-0.217504 0.014288 0)
(-0.176109 -0.0142031 0)
(-0.101976 -0.0220812 0)
(-0.0464164 -0.0157958 0)
(-0.00435756 -0.0106193 0)
(0.0269055 -0.00742739 0)
(0.0369776 -0.00257853 0)
(0.0208216 0.0029886 0)
(-0.0146055 -0.0166395 0)
(-0.0503565 0.0218216 0)
(-0.105194 0.0368422 0)
(-0.121844 0.0165773 0)
(-0.0889762 -0.00802106 0)
(-0.0621848 -0.0130916 0)
(-0.0497924 -0.00852199 0)
(-0.0440298 -0.00550427 0)
(-0.0380757 -0.00440809 0)
(-0.0322267 -0.00453725 0)
(-0.0366335 -0.00331297 0)
(-0.0628137 0.00722311 0)
(-0.11237 0.0309356 0)
(-0.158887 0.0548201 0)
(-0.193087 0.0479713 0)
(-0.149299 0.000409969 0)
(-0.0629756 -0.04503 0)
(-0.0223077 -0.0480681 0)
(0.0156261 -0.0350869 0)
(0.0473337 -0.0244283 0)
(0.0777078 -0.012979 0)
(0.0814658 0.00912973 0)
(0.0407619 0.0246942 0)
(-0.0404925 0.0105197 0)
(-0.106819 0.0461623 0)
(-0.145926 0.0462111 0)
(-0.135542 0.00687496 0)
(-0.103908 -0.0247028 0)
(-0.0726739 -0.0245297 0)
(-0.0497873 -0.0144398 0)
(-0.0347282 -0.00974198 0)
(-0.0198679 -0.00791947 0)
(-0.00744375 -0.00330669 0)
(-0.00854284 0.00737964 0)
(-0.0312906 0.0248488 0)
(-0.0740521 0.0462034 0)
(-0.108438 0.0560693 0)
(-0.0890325 0.0275511 0)
(-0.0219588 -0.032884 0)
(-0.000442448 -0.0662148 0)
(0.00881806 -0.0604445 0)
(0.0315449 -0.0481044 0)
(0.056324 -0.0386682 0)
(0.0814714 -0.0250735 0)
(0.0975996 0.0181593 0)
(0.0592023 0.0563144 0)
(-0.0488206 0.0478729 0)
(-0.121563 0.0705878 0)
(-0.154194 0.0520123 0)
(-0.14583 -0.00214391 0)
(-0.117984 -0.0405381 0)
(-0.085346 -0.0401289 0)
(-0.0603903 -0.0260043 0)
(-0.0405902 -0.0196971 0)
(-0.021114 -0.0173308 0)
(-0.00158305 -0.00975839 0)
(0.011324 0.00833646 0)
(0.0115818 0.0350842 0)
(0.00200749 0.0580778 0)
(-0.00365167 0.056738 0)
(0.0172564 0.0177301 0)
(0.0256897 -0.0343871 0)
(0.0100225 -0.0629551 0)
(0.011749 -0.0637477 0)
(0.0347183 -0.0572218 0)
(0.0569828 -0.0476544 0)
(0.066378 -0.0339626 0)
(0.0788116 0.0243195 0)
(0.0659357 0.0903583 0)
(-0.044891 0.0846747 0)
(-0.113096 0.0952624 0)
(-0.14814 0.0604608 0)
(-0.145726 -0.00727657 0)
(-0.120366 -0.0559007 0)
(-0.0947888 -0.0538903 0)
(-0.0735547 -0.0360696 0)
(-0.0533697 -0.0293734 0)
(-0.0315752 -0.0278446 0)
(-0.0069542 -0.0191055 0)
(0.0135589 0.00210932 0)
(0.0232569 0.0309595 0)
(0.0274294 0.054774 0)
(0.0320945 0.0514539 0)
(0.0327731 0.0146421 0)
(0.0154376 -0.0315464 0)
(0.00331176 -0.0630807 0)
(0.0207983 -0.0735357 0)
(0.0530374 -0.0696212 0)
(0.0728209 -0.0518806 0)
(0.0641776 -0.0314255 0)
(0.0399726 0.0279353 0)
(0.0640184 0.118761 0)
(-0.034081 0.118047 0)
(-0.0917837 0.119418 0)
(-0.129815 0.0708359 0)
(-0.131306 -0.0125615 0)
(-0.110141 -0.0688875 0)
(-0.0985611 -0.0647784 0)
(-0.0858629 -0.0451799 0)
(-0.0665199 -0.03969 0)
(-0.0396902 -0.0395464 0)
(-0.00280491 -0.0285589 0)
(0.0286691 -0.00213388 0)
(0.0391162 0.0312252 0)
(0.034792 0.0565025 0)
(0.0272361 0.0537755 0)
(0.0156762 0.0207533 0)
(0.00511884 -0.0279965 0)
(0.0148025 -0.0701721 0)
(0.0470461 -0.0905057 0)
(0.0880102 -0.0851568 0)
(0.109355 -0.0515351 0)
(0.0909798 -0.0138613 0)
(0.0160164 0.0334608 0)
(0.0614682 0.141631 0)
(-0.0189974 0.140322 0)
(-0.0625941 0.139763 0)
(-0.103534 0.0834805 0)
(-0.103123 -0.010107 0)
(-0.0759199 -0.0740662 0)
(-0.0947141 -0.0671047 0)
(-0.0974354 -0.0495573 0)
(-0.0754861 -0.0494886 0)
(-0.0307939 -0.0551318 0)
(0.0280118 -0.0464381 0)
(0.068602 -0.0133501 0)
(0.0794701 0.0313492 0)
(0.0666562 0.0628209 0)
(0.0444958 0.06152 0)
(0.0247311 0.0256709 0)
(0.0170465 -0.028562 0)
(0.0315061 -0.0825219 0)
(0.0710265 -0.11233 0)
(0.126751 -0.105378 0)
(0.165017 -0.0505179 0)
(0.14983 0.0103986 0)
(0.0537604 0.0449879 0)
(0.0587326 0.156261 0)
(-0.00164828 0.159964 0)
(-0.0279227 0.161165 0)
(-0.0687068 0.0964786 0)
(-0.0544829 -0.0215435 0)
(-0.0294468 -0.0804401 0)
(-0.0878586 -0.0595751 0)
(-0.102405 -0.053743 0)
(-0.0636546 -0.0737285 0)
(0.000960042 -0.0967871 0)
(0.0531439 -0.0852376 0)
(0.0774889 -0.035282 0)
(0.0822425 0.0280861 0)
(0.0679788 0.0689936 0)
(0.0418784 0.0742364 0)
(0.0172359 0.039149 0)
(-0.000854333 -0.0254968 0)
(0.00226424 -0.0893084 0)
(0.0442428 -0.129092 0)
(0.116502 -0.129296 0)
(0.193496 -0.0575167 0)
(0.208071 0.03787 0)
(0.130315 0.0889561 0)
(0.0298178 0.18511 0)
(-0.0271394 -0.0184111 0)
(0.0773106 -0.0215421 0)
(0.193764 -0.0199078 0)
(0.289401 -0.0150136 0)
(0.318655 0.00509034 0)
(0.221071 0.0387493 0)
(0.0099264 0.0479865 0)
(-0.208259 0.0224271 0)
(-0.301244 -0.00774746 0)
(-0.276879 -0.0502315 0)
(-0.121602 -0.0902092 0)
(0.0261587 -0.10171 0)
(0.216879 -0.0190371 0)
(-0.286422 0.0878331 0)
(-0.69487 0.0397949 0)
(-0.669491 -0.0395094 0)
(-0.414142 -0.0924867 0)
(-0.141271 -0.0883136 0)
(-0.0097522 -0.0264035 0)
(-0.0980583 -0.0131867 0)
(0.148019 -0.10421 0)
(0.295861 -0.0880354 0)
(0.354478 -0.0220933 0)
(0.373915 0.0605454 0)
(0.384151 0.1279 0)
(0.277213 0.160888 0)
(0.0192171 0.126378 0)
(-0.136548 0.0416339 0)
(-0.14568 -0.0429145 0)
(-0.0949867 -0.135626 0)
(-0.0562447 -0.099925 0)
(-0.0498903 0.156965 0)
(-0.611639 0.293248 0)
(-0.80354 0.153428 0)
(-0.558433 -0.0863845 0)
(-0.265541 -0.241995 0)
(-0.035587 -0.180907 0)
(0.00171891 -0.0381628 0)
(-0.0167191 -0.0416419 0)
(0.260599 -0.232244 0)
(0.383253 -0.200933 0)
(0.425496 -0.112994 0)
(0.425604 -0.0349063 0)
(0.432206 0.0810929 0)
(0.440061 0.196889 0)
(0.337192 0.222168 0)
(0.226633 0.129684 0)
(0.0891886 -0.0196585 0)
(0.000738941 -0.113849 0)
(-0.151383 -0.0485195 0)
(-0.252066 0.304397 0)
(-0.617077 0.42681 0)
(-0.562117 0.11822 0)
(-0.341136 -0.240699 0)
(-0.0386323 -0.3982 0)
(0.0413952 -0.241265 0)
(0.0674902 -0.0189972 0)
(0.141265 -0.146173 0)
(0.233171 -0.283885 0)
(0.0120768 -0.11647 0)
(-0.297004 -0.0267756 0)
(-0.128841 0.0559069 0)
(0.230966 0.0985617 0)
(0.458581 0.181935 0)
(0.508176 0.245155 0)
(0.450443 0.185899 0)
(0.330434 0.0805973 0)
(0.156693 -0.0105535 0)
(-0.11776 0.0134687 0)
(-0.242192 0.363628 0)
(-0.366284 0.475625 0)
(-0.203606 0.0530835 0)
(-0.0219538 -0.336455 0)
(0.139756 -0.477487 0)
(0.0793828 -0.262441 0)
(0.0802377 0.0261394 0)
(0.28642 -0.2685 0)
(-0.0680939 -0.142734 0)
(-0.594764 0.163232 0)
(-1.08282 0.0277694 0)
(-0.992833 -0.180637 0)
(-0.487594 -0.207648 0)
(0.132269 0.03727 0)
(0.44639 0.197337 0)
(0.51121 0.204869 0)
(0.473017 0.150626 0)
(0.333603 0.108009 0)
(0.0487684 0.110304 0)
(-0.139011 0.371039 0)
(-0.030644 0.462407 0)
(0.161585 -0.000323256 0)
(0.273676 -0.389526 0)
(0.231818 -0.470667 0)
(0.0505813 -0.226706 0)
(0.0651613 0.0699503 0)
(0.335155 -0.216651 0)
(-0.467117 0.236169 0)
(-0.987679 0.417447 0)
(-1.0569 0.00271265 0)
(-0.634922 -0.385502 0)
(-0.427509 -0.38797 0)
(-0.21848 -0.242138 0)
(0.151313 0.0498175 0)
(0.394894 0.163572 0)
(0.493972 0.186457 0)
(0.448488 0.20094 0)
(0.264649 0.219821 0)
(0.0541977 0.360258 0)
(0.224557 0.367423 0)
(0.398177 -0.0231308 0)
(0.457581 -0.375218 0)
(0.23844 -0.388856 0)
(-0.0121404 -0.159884 0)
(0.0472232 0.0971111 0)
(0.371278 -0.256632 0)
(-0.46539 0.603205 0)
(-0.983917 0.57367 0)
(-0.795114 -0.18417 0)
(-0.626934 -0.443377 0)
(-0.483421 -0.437301 0)
(-0.293478 -0.30789 0)
(-0.0499245 -0.13608 0)
(0.203115 0.0208774 0)
(0.388217 0.141161 0)
(0.445935 0.24388 0)
(0.383826 0.295074 0)
(0.297416 0.348828 0)
(0.444793 0.277525 0)
(0.566326 -0.0362189 0)
(0.548597 -0.311996 0)
(0.188634 -0.256356 0)
(-0.0774482 -0.0840972 0)
(0.0306331 0.0959127 0)
(0.35288 -0.298284 0)
(-0.408208 0.717494 0)
(-0.91938 0.585929 0)
(-0.804125 -0.282267 0)
(-0.72787 -0.524831 0)
(-0.601586 -0.549638 0)
(-0.443839 -0.436677 0)
(-0.220779 -0.24685 0)
(0.021891 -0.0759549 0)
(0.234231 0.0766773 0)
(0.36892 0.229566 0)
(0.396582 0.3059 0)
(0.423161 0.313416 0)
(0.553936 0.207504 0)
(0.637823 -0.0306025 0)
(0.530846 -0.20632 0)
(0.108091 -0.104687 0)
(-0.136223 -0.04311 0)
(0.0121587 0.0588728 0)
(0.0326665 0.140448 0)
(0.0344644 0.169436 0)
(-0.0183962 0.104299 0)
(-0.0123738 -0.0182335 0)
(-0.0447289 -0.0424839 0)
(-0.0960337 -0.0211128 0)
(-0.0882428 -0.0628214 0)
(-0.053486 -0.120386 0)
(-0.0423995 -0.134658 0)
(-0.0529226 -0.101987 0)
(-0.0614208 -0.041241 0)
(-0.0705926 0.0299913 0)
(-0.0929231 0.0720329 0)
(-0.123689 0.0705396 0)
(-0.156366 0.0335669 0)
(-0.182158 -0.0209488 0)
(-0.197866 -0.0855249 0)
(-0.180421 -0.153244 0)
(-0.107027 -0.196391 0)
(0.0266407 -0.132784 0)
(0.143016 0.0291703 0)
(0.173936 0.140088 0)
(0.0875357 0.216838 0)
(0.0816966 0.109373 0)
(0.124124 0.241615 0)
(0.0609185 0.174571 0)
(0.013355 -0.00242938 0)
(-0.0414951 -0.032321 0)
(-0.0628827 -0.0415949 0)
(-0.107447 -0.0926789 0)
(-0.204991 -0.0816801 0)
(-0.304806 -0.0656735 0)
(-0.356011 -0.0396121 0)
(-0.397508 0.0220455 0)
(-0.442934 0.0939762 0)
(-0.473842 0.163679 0)
(-0.489343 0.179311 0)
(-0.505683 0.115239 0)
(-0.552355 0.00240923 0)
(-0.616898 -0.113305 0)
(-0.621364 -0.247538 0)
(-0.548038 -0.358091 0)
(-0.401115 -0.303692 0)
(-0.224254 -0.10146 0)
(-0.0682708 0.115067 0)
(0.00532418 0.167829 0)
(0.0561552 -0.0934125 0)
(0.172444 0.188704 0)
(0.134581 0.234872 0)
(0.0251612 0.102131 0)
(-0.132303 0.0442184 0)
(-0.30159 0.0873872 0)
(-0.524805 0.0919593 0)
(-0.64704 0.0384187 0)
(-0.689017 0.0140543 0)
(-0.760291 0.0386533 0)
(-0.790418 0.0643364 0)
(-0.803273 0.0803515 0)
(-0.839419 0.0904899 0)
(-0.906978 0.0714435 0)
(-0.98143 0.0499127 0)
(-0.998566 0.0427008 0)
(-0.89876 -0.0412991 0)
(-0.770065 -0.287828 0)
(-0.730869 -0.449663 0)
(-0.72987 -0.404724 0)
(-0.684313 -0.246122 0)
(-0.548968 -0.0452344 0)
(-0.480607 0.0999328 0)
(-0.0477298 -0.208431 0)
(0.128175 0.158695 0)
(0.0659863 0.299767 0)
(-0.102409 0.254516 0)
(-0.428874 0.319252 0)
(-0.739515 0.362398 0)
(-0.964054 0.262136 0)
(-1.02908 0.107404 0)
(-1.06216 0.0515204 0)
(-1.13022 0.0229147 0)
(-1.1754 0.0386368 0)
(-1.18568 0.123251 0)
(-1.13096 0.267004 0)
(-1.10316 0.270906 0)
(-1.04416 0.161575 0)
(-0.797466 -0.0444774 0)
(-0.541661 -0.239198 0)
(-0.379992 -0.320561 0)
(-0.381912 -0.32582 0)
(-0.637011 -0.300041 0)
(-0.804891 -0.139932 0)
(-0.854582 0.0377691 0)
(-0.796894 0.0693674 0)
(-0.0974963 -0.19402 0)
(-0.0263042 0.185237 0)
(-0.142496 0.423238 0)
(-0.398234 0.549401 0)
(-0.765427 0.648891 0)
(-1.10761 0.539252 0)
(-1.40879 0.232549 0)
(-1.57034 0.0675258 0)
(-1.52906 0.104784 0)
(-1.38332 0.171529 0)
(-1.30059 0.131554 0)
(-1.24346 0.0888207 0)
(-1.12041 0.123672 0)
(-0.915168 0.0438521 0)
(-0.663041 -0.184091 0)
(-0.47357 -0.345657 0)
(-0.371733 -0.441501 0)
(-0.271588 -0.454966 0)
(-0.171747 -0.324222 0)
(-0.128492 -0.17434 0)
(-0.0813065 -0.0658919 0)
(-0.510334 -0.044939 0)
(-0.702354 0.00164932 0)
(-0.122818 -0.0894426 0)
(-0.256108 0.331397 0)
(-0.451163 0.667749 0)
(-0.729771 0.868525 0)
(-1.01466 0.945075 0)
(-1.27484 0.831794 0)
(-1.58219 0.612488 0)
(-1.78407 0.218202 0)
(-1.68995 -0.120815 0)
(-1.46868 -0.181127 0)
(-1.23994 -0.131377 0)
(-1.01667 -0.112351 0)
(-0.770587 -0.121827 0)
(-0.562162 -0.171363 0)
(-0.496456 -0.279899 0)
(-0.456561 -0.399114 0)
(-0.380618 -0.532932 0)
(-0.193726 -0.60121 0)
(-0.0385178 -0.494043 0)
(-0.0477214 -0.309867 0)
(-0.163926 -0.0985023 0)
(0.211263 0.454433 0)
(0.118689 0.266977 0)
(-0.139427 0.157165 0)
(-0.509785 0.608249 0)
(-0.776533 0.941152 0)
(-1.00636 1.10116 0)
(-1.17361 1.17284 0)
(-1.38365 1.16796 0)
(-1.59685 0.921528 0)
(-1.60204 0.159653 0)
(-1.57701 -0.310416 0)
(-1.48698 -0.436359 0)
(-1.31395 -0.405957 0)
(-1.09411 -0.37819 0)
(-0.883448 -0.356655 0)
(-0.763963 -0.351465 0)
(-0.734732 -0.401661 0)
(-0.709624 -0.506618 0)
(-0.529819 -0.744529 0)
(-0.258495 -0.915864 0)
(0.258511 -0.416434 0)
(0.097266 0.113698 0)
(-0.437881 -0.196687 0)
(-0.363492 -0.140166 0)
(0.122614 0.329578 0)
(-0.0845407 0.509245 0)
(-0.679402 0.935161 0)
(-0.982402 1.14412 0)
(-1.11257 1.25151 0)
(-1.2483 1.37327 0)
(-1.42339 1.43219 0)
(-1.47302 1.16557 0)
(-1.42481 0.546846 0)
(-1.51252 -0.134409 0)
(-1.58388 -0.465883 0)
(-1.49721 -0.534365 0)
(-1.36942 -0.560454 0)
(-1.25585 -0.495842 0)
(-1.39345 -0.2602 0)
(-1.60169 -0.163291 0)
(-1.1298 -0.656567 0)
(-0.703393 -1.1638 0)
(-0.586116 -1.23371 0)
(-0.306536 -0.642459 0)
(0.269728 0.359714 0)
(-0.544397 0.172576 0)
(-0.612982 -0.151109 0)
(-0.381452 -0.109201 0)
(0.0545051 0.800208 0)
(-0.478873 1.34465 0)
(-0.916429 1.30268 0)
(-1.05693 1.40054 0)
(-1.21869 1.51693 0)
(-1.27712 1.42892 0)
(-1.20866 0.982494 0)
(-1.21184 0.374721 0)
(-1.40348 -0.0539259 0)
(-1.59407 -0.329733 0)
(-1.71693 -0.498732 0)
(-1.80412 -0.561924 0)
(-1.8239 -0.324218 0)
(-1.5948 -0.149701 0)
(-1.1714 -0.572399 0)
(-0.804096 -1.12726 0)
(-0.732657 -1.36515 0)
(-0.78699 -1.31519 0)
(-0.778551 -0.864338 0)
(-0.452854 0.276819 0)
(-0.281594 0.478737 0)
(-0.375639 -0.244666 0)
(0.134141 -0.245919 0)
(-0.020072 0.814667 0)
(0.0457589 1.80188 0)
(-0.17688 1.82155 0)
(-0.72384 1.58217 0)
(-0.862546 1.59545 0)
(-0.863223 1.35033 0)
(-0.805835 0.88567 0)
(-0.829643 0.433033 0)
(-0.959227 0.102824 0)
(-1.03851 -0.194576 0)
(-1.06116 -0.433567 0)
(-1.05092 -0.600805 0)
(-0.997665 -0.666428 0)
(-0.876826 -0.662365 0)
(-0.727638 -0.804677 0)
(-0.69167 -1.20285 0)
(-0.764226 -1.34857 0)
(-0.908451 -1.26819 0)
(-1.04875 -0.94913 0)
(-0.923469 -0.16902 0)
(-0.5074 0.32688 0)
(-0.280311 -0.3581 0)
(-0.147119 -0.606609 0)
(-0.216674 0.655304 0)
(0.330808 2.01282 0)
(-0.201576 2.25518 0)
(-0.330894 1.90467 0)
(-0.448754 1.67668 0)
(-0.392558 1.32711 0)
(-0.404596 0.909383 0)
(-0.453216 0.529969 0)
(-0.554922 0.180464 0)
(-0.575038 -0.15806 0)
(-0.575519 -0.429548 0)
(-0.581643 -0.571828 0)
(-0.598705 -0.600958 0)
(-0.601529 -0.627578 0)
(-0.590822 -0.777002 0)
(-0.649129 -1.07336 0)
(-0.815839 -1.20105 0)
(-1.02994 -1.09726 0)
(-1.33129 -0.735032 0)
(-1.54169 -0.201893 0)
(-1.19546 -0.313494 0)
(-1.01979 -0.680668 0)
(-1.01501 -0.717308 0)
(-0.360329 0.567146 0)
(0.37964 2.18768 0)
(-0.443829 2.40559 0)
(-0.0932365 2.06753 0)
(-0.233717 1.66706 0)
(-0.0786611 1.32331 0)
(-0.139452 0.947052 0)
(-0.179309 0.612558 0)
(-0.270265 0.233129 0)
(-0.285925 -0.139988 0)
(-0.311451 -0.408754 0)
(-0.377105 -0.532275 0)
(-0.464747 -0.560149 0)
(-0.539688 -0.601814 0)
(-0.603059 -0.753393 0)
(-0.707527 -0.94555 0)
(-0.929207 -0.949783 0)
(-1.27927 -0.730569 0)
(-1.60913 -0.423234 0)
(-1.75887 -0.225321 0)
(-1.53095 -0.483161 0)
(-1.4216 -0.753717 0)
(-1.35943 -0.770409 0)
(-0.434073 0.545502 0)
(0.424673 2.30888 0)
(-0.55154 2.36176 0)
(0.0962314 1.99072 0)
(-0.140463 1.56929 0)
(0.0713577 1.30933 0)
(-0.0252241 0.969785 0)
(-0.0292877 0.671148 0)
(-0.0932898 0.278626 0)
(-0.104702 -0.0956294 0)
(-0.172783 -0.330764 0)
(-0.30674 -0.418865 0)
(-0.448559 -0.4469 0)
(-0.56904 -0.497513 0)
(-0.687003 -0.634921 0)
(-0.839842 -0.77619 0)
(-1.05286 -0.700189 0)
(-1.3641 -0.41733 0)
(-1.62915 -0.211312 0)
(-1.66417 -0.279473 0)
(-1.58319 -0.556111 0)
(-1.52205 -0.830005 0)
(-1.4776 -0.848235 0)
(-0.445484 0.480153 0)
(0.408348 2.49153 0)
(-0.555249 2.30185 0)
(0.166079 1.86263 0)
(-0.128858 1.49427 0)
(0.100598 1.29383 0)
(-0.00941583 0.983146 0)
(0.0213675 0.696024 0)
(-0.0131422 0.301985 0)
(-0.0398219 -0.0375323 0)
(-0.181102 -0.206803 0)
(-0.359383 -0.267514 0)
(-0.511311 -0.309321 0)
(-0.641791 -0.369107 0)
(-0.781184 -0.491659 0)
(-0.946957 -0.5937 0)
(-1.09388 -0.477202 0)
(-1.25091 -0.199533 0)
(-1.42825 -0.0875837 0)
(-1.49632 -0.286842 0)
(-1.48771 -0.628573 0)
(-1.49354 -0.875438 0)
(-1.50568 -0.94111 0)
(-0.435964 0.396663 0)
(0.36833 2.55445 0)
(-0.640569 2.31041 0)
(0.114753 1.78195 0)
(-0.186637 1.44112 0)
(0.0722428 1.27947 0)
(-0.0458779 0.986987 0)
(0.0249961 0.696581 0)
(-0.0134297 0.32872 0)
(-0.118236 0.0809255 0)
(-0.313465 -0.0343096 0)
(-0.466407 -0.113195 0)
(-0.586413 -0.175955 0)
(-0.700852 -0.235316 0)
(-0.841595 -0.34612 0)
(-0.993699 -0.456766 0)
(-1.03874 -0.368354 0)
(-1.008 -0.0865207 0)
(-1.09223 0.028738 0)
(-1.19394 -0.202085 0)
(-1.25241 -0.56807 0)
(-1.33658 -0.818302 0)
(-1.44184 -0.914289 0)
(-0.565841 0.742052 0)
(0.100638 2.74474 0)
(-0.80503 2.23278 0)
(0.0501962 1.69302 0)
(-0.255479 1.36806 0)
(0.0526894 1.24853 0)
(-0.0862634 0.983765 0)
(-0.000441416 0.701238 0)
(-0.12262 0.426748 0)
(-0.306294 0.265265 0)
(-0.46791 0.132572 0)
(-0.569308 0.011508 0)
(-0.642514 -0.0660138 0)
(-0.711021 -0.117488 0)
(-0.821862 -0.21636 0)
(-0.954495 -0.388836 0)
(-0.949461 -0.435495 0)
(-0.765296 -0.186547 0)
(-0.634069 0.0956286 0)
(-0.742579 -0.0790107 0)
(-0.850429 -0.441963 0)
(-0.974179 -0.704825 0)
(-1.11635 -0.784693 0)
(-0.654214 0.924383 0)
(0.230162 2.95665 0)
(-0.661851 2.10283 0)
(0.0726056 1.54165 0)
(-0.240831 1.29404 0)
(0.0614522 1.20466 0)
(-0.106116 1.00111 0)
(-0.102818 0.777368 0)
(-0.345104 0.597866 0)
(-0.543395 0.434778 0)
(-0.658238 0.24361 0)
(-0.705773 0.0793282 0)
(-0.707581 -0.0170412 0)
(-0.687627 -0.0579757 0)
(-0.706105 -0.122613 0)
(-0.804481 -0.324429 0)
(-0.847673 -0.530608 0)
(-0.735557 -0.477014 0)
(-0.427983 -0.125042 0)
(-0.233129 0.105252 0)
(-0.421796 -0.218821 0)
(-0.616145 -0.539777 0)
(-0.829581 -0.68201 0)
(-0.708035 0.976372 0)
(0.609 3.0194 0)
(-0.13298 2.22736 0)
(0.203839 1.4558 0)
(-0.0941677 1.25642 0)
(0.0810248 1.20152 0)
(-0.131032 1.09803 0)
(-0.288071 0.977222 0)
(-0.595923 0.828291 0)
(-0.78669 0.582075 0)
(-0.887027 0.302013 0)
(-0.893461 0.0742542 0)
(-0.820341 -0.0661275 0)
(-0.698086 -0.11176 0)
(-0.583093 -0.122193 0)
(-0.564402 -0.221225 0)
(-0.655744 -0.465598 0)
(-0.707772 -0.603307 0)
(-0.581982 -0.500441 0)
(-0.251064 -0.174365 0)
(-0.0206895 0.0478059 0)
(-0.250186 -0.252766 0)
(-0.505018 -0.457578 0)
(-0.716857 0.976137 0)
(0.565555 2.51162 0)
(0.410026 2.36881 0)
(0.364647 1.55286 0)
(0.0879093 1.30627 0)
(0.104373 1.30192 0)
(-0.185034 1.31096 0)
(-0.465322 1.25774 0)
(-0.780329 1.06041 0)
(-0.970425 0.740229 0)
(-1.0792 0.379159 0)
(-1.07599 0.0224089 0)
(-0.966552 -0.202863 0)
(-0.775081 -0.293435 0)
(-0.563644 -0.275396 0)
(-0.403796 -0.245217 0)
(-0.388122 -0.319754 0)
(-0.51805 -0.516039 0)
(-0.602894 -0.62207 0)
(-0.493612 -0.505468 0)
(-0.183969 -0.201434 0)
(-0.020086 -0.034911 0)
(-0.243085 -0.224201 0)
(-0.673399 0.962159 0)
(0.488292 2.11912 0)
(0.44708 2.34034 0)
(0.398322 1.67645 0)
(0.213308 1.45243 0)
(0.133209 1.50049 0)
(-0.199432 1.60009 0)
(-0.501149 1.55885 0)
(-0.794164 1.27888 0)
(-0.984897 0.856139 0)
(-1.10874 0.377487 0)
(-1.12523 -0.0489927 0)
(-1.03285 -0.372004 0)
(-0.829512 -0.540433 0)
(-0.572699 -0.528151 0)
(-0.349583 -0.428114 0)
(-0.197029 -0.324878 0)
(-0.206115 -0.335236 0)
(-0.393385 -0.518897 0)
(-0.51676 -0.599848 0)
(-0.427646 -0.444844 0)
(-0.16103 -0.162842 0)
(-0.122439 -0.0928916 0)
(-0.601772 0.915362 0)
(0.561775 2.00299 0)
(0.144534 2.17655 0)
(0.366879 1.72594 0)
(0.276043 1.59916 0)
(0.203124 1.71798 0)
(-0.0736043 1.88383 0)
(-0.323091 1.82635 0)
(-0.554597 1.50813 0)
(-0.757204 1.04103 0)
(-0.914161 0.473441 0)
(-0.949785 -0.117495 0)
(-0.867766 -0.571816 0)
(-0.718032 -0.795963 0)
(-0.485525 -0.794975 0)
(-0.25403 -0.648375 0)
(-0.086661 -0.480473 0)
(0.0436575 -0.285251 0)
(-0.0161101 -0.298513 0)
(-0.265996 -0.473849 0)
(-0.406403 -0.519753 0)
(-0.316 -0.325484 0)
(-0.106443 -0.0910271 0)
(-0.475777 0.811709 0)
(0.508424 1.8347 0)
(0.286754 2.07809 0)
(0.467142 1.78441 0)
(0.385993 1.66231 0)
(0.354986 1.85471 0)
(0.225376 2.08823 0)
(0.0448358 2.03716 0)
(-0.093148 1.72051 0)
(-0.307182 1.27233 0)
(-0.468668 0.644998 0)
(-0.516926 -0.0837059 0)
(-0.458405 -0.68742 0)
(-0.351354 -1.00351 0)
(-0.229142 -1.01778 0)
(-0.0494307 -0.843452 0)
(0.0873152 -0.617699 0)
(0.176529 -0.421036 0)
(0.272148 -0.201911 0)
(0.208767 -0.205752 0)
(-0.0868911 -0.3935 0)
(-0.20387 -0.437381 0)
(-0.119977 -0.316298 0)
(-0.204782 0.778939 0)
(0.411244 1.52659 0)
(0.523199 1.93155 0)
(0.697276 1.85568 0)
(0.63819 1.70675 0)
(0.616293 1.86335 0)
(0.632597 2.14975 0)
(0.563817 2.16714 0)
(0.505769 1.88568 0)
(0.364508 1.4494 0)
(0.242906 0.835719 0)
(0.19427 0.0214962 0)
(0.189821 -0.72262 0)
(0.20811 -1.10852 0)
(0.213869 -1.13685 0)
(0.260614 -0.956183 0)
(0.321153 -0.704896 0)
(0.365301 -0.488089 0)
(0.41435 -0.310964 0)
(0.48276 -0.131177 0)
(0.48154 -0.101705 0)
(0.210041 -0.293553 0)
(0.103725 -0.393351 0)
(-0.0459298 0.697636 0)
(0.271963 1.09883 0)
(0.571681 1.65061 0)
(0.868108 1.80588 0)
(0.968833 1.76718 0)
(1.00034 1.83021 0)
(1.08533 2.07286 0)
(1.15125 2.16903 0)
(1.17512 1.96593 0)
(1.12896 1.55326 0)
(1.07771 0.950453 0)
(1.03616 0.166127 0)
(0.98038 -0.625628 0)
(0.877875 -1.08193 0)
(0.739948 -1.12047 0)
(0.638504 -0.941725 0)
(0.584494 -0.701716 0)
(0.558048 -0.494405 0)
(0.552167 -0.347136 0)
(0.589664 -0.228462 0)
(0.665656 -0.125751 0)
(0.73082 -0.101388 0)
(0.653218 -0.231383 0)
(-0.00661654 0.548843 0)
(0.164186 0.840152 0)
(0.49788 1.25877 0)
(0.876382 1.51257 0)
(1.18269 1.64119 0)
(1.39199 1.75422 0)
(1.56013 1.94211 0)
(1.71555 2.06009 0)
(1.83243 1.93693 0)
(1.86681 1.57616 0)
(1.8616 1.01106 0)
(1.83259 0.277151 0)
(1.74046 -0.47426 0)
(1.51222 -0.910354 0)
(1.22027 -0.948965 0)
(0.981441 -0.792446 0)
(0.818693 -0.597886 0)
(0.718457 -0.437642 0)
(0.666702 -0.326579 0)
(0.651348 -0.25794 0)
(0.679541 -0.219111 0)
(0.739809 -0.20439 0)
(0.804637 -0.240112 0)
(0.0185668 0.491981 0)
(0.100196 0.664011 0)
(0.373772 0.860694 0)
(0.758427 1.05384 0)
(1.18186 1.26812 0)
(1.5616 1.48303 0)
(1.88095 1.71266 0)
(2.14751 1.87178 0)
(2.34487 1.82343 0)
(2.44862 1.53058 0)
(2.4733 1.02 0)
(2.43868 0.359319 0)
(2.2709 -0.266775 0)
(1.92584 -0.612417 0)
(1.52018 -0.642901 0)
(1.19102 -0.537795 0)
(0.962654 -0.418361 0)
(0.817919 -0.329642 0)
(0.73422 -0.27126 0)
(0.691045 -0.239246 0)
(0.675708 -0.232587 0)
(0.684703 -0.250535 0)
(0.707414 -0.297222 0)
(0.0336252 0.444734 0)
(0.0951566 0.530987 0)
(0.279989 0.55662 0)
(0.588066 0.631875 0)
(0.989262 0.784149 0)
(1.43557 1.03056 0)
(1.86438 1.33149 0)
(2.23059 1.56978 0)
(2.50864 1.62282 0)
(2.6743 1.4348 0)
(2.72545 1.0264 0)
(2.65065 0.491851 0)
(2.39483 0.0203868 0)
(1.98227 -0.220821 0)
(1.55301 -0.263278 0)
(1.22092 -0.239231 0)
(0.993245 -0.214664 0)
(0.846994 -0.203336 0)
(0.754562 -0.197946 0)
(0.698576 -0.198891 0)
(0.66536 -0.212404 0)
(0.64543 -0.242233 0)
(0.633128 -0.286943 0)
(0.0383747 0.385475 0)
(0.0949384 0.436551 0)
(0.208198 0.360923 0)
(0.403698 0.332755 0)
(0.667948 0.393778 0)
(1.02019 0.578732 0)
(1.43646 0.884807 0)
(1.83069 1.18446 0)
(2.15399 1.34164 0)
(2.36229 1.28058 0)
(2.43081 1.0168 0)
(2.32979 0.658969 0)
(2.05891 0.356785 0)
(1.69615 0.179435 0)
(1.36108 0.0856235 0)
(1.10896 0.0183433 0)
(0.937625 -0.0415107 0)
(0.819926 -0.0895896 0)
(0.736755 -0.12352 0)
(0.679489 -0.150633 0)
(0.640026 -0.179434 0)
(0.609779 -0.215587 0)
(0.582612 -0.259972 0)
(0.0346063 0.329291 0)
(0.0777063 0.37738 0)
(0.131857 0.260034 0)
(0.209191 0.170582 0)
(0.335059 0.163375 0)
(0.51353 0.296774 0)
(0.815658 0.557486 0)
(1.13878 0.854826 0)
(1.42275 1.0698 0)
(1.6252 1.12144 0)
(1.70897 1.01478 0)
(1.65255 0.823338 0)
(1.48214 0.626537 0)
(1.27156 0.457446 0)
(1.08574 0.311871 0)
(0.945814 0.183406 0)
(0.842091 0.0768489 0)
(0.759194 -0.00198294 0)
(0.693139 -0.0585368 0)
(0.642066 -0.102948 0)
(0.60269 -0.143054 0)
(0.570038 -0.183914 0)
(0.539504 -0.227292 0)
(0.025961 0.285426 0)
(0.0540372 0.34809 0)
(0.070156 0.23256 0)
(0.0686347 0.129237 0)
(0.0700944 0.0768471 0)
(0.10432 0.141611 0)
(0.231093 0.363521 0)
(0.435237 0.638052 0)
(0.647762 0.870304 0)
(0.826324 0.991541 0)
(0.939448 0.987119 0)
(0.9704 0.889029 0)
(0.944972 0.741985 0)
(0.891064 0.576641 0)
(0.838197 0.412 0)
(0.788406 0.264638 0)
(0.735863 0.14712 0)
(0.683318 0.0594376 0)
(0.635235 -0.00694689 0)
(0.593657 -0.0607425 0)
(0.558184 -0.10772 0)
(0.526599 -0.151887 0)
(0.496436 -0.195086 0)
(0.0164138 0.255398 0)
(0.0334146 0.335658 0)
(0.0332121 0.241025 0)
(0.00491056 0.158448 0)
(-0.0579828 0.102518 0)
(-0.116644 0.115304 0)
(-0.115881 0.255784 0)
(-0.0334336 0.487895 0)
(0.104333 0.707296 0)
(0.260671 0.846813 0)
(0.401694 0.884509 0)
(0.508947 0.831971 0)
(0.584113 0.717525 0)
(0.633881 0.572046 0)
(0.6577 0.422805 0)
(0.655468 0.290886 0)
(0.634597 0.18402 0)
(0.604487 0.0994119 0)
(0.571857 0.0312097 0)
(0.540125 -0.0259021 0)
(0.510213 -0.0759699 0)
(0.481614 -0.121781 0)
(0.453492 -0.16477 0)
(0.00840164 0.237365 0)
(0.017998 0.330483 0)
(0.0129997 0.256309 0)
(-0.0139599 0.202473 0)
(-0.0736601 0.170998 0)
(-0.152595 0.177391 0)
(-0.204772 0.253361 0)
(-0.193341 0.400679 0)
(-0.115001 0.567141 0)
(0.0103756 0.687136 0)
(0.152426 0.732548 0)
(0.288285 0.704338 0)
(0.402837 0.621626 0)
(0.484848 0.510766 0)
(0.53126 0.395793 0)
(0.547935 0.290801 0)
(0.544486 0.200171 0)
(0.529515 0.123343 0)
(0.508803 0.0579793 0)
(0.485539 0.00139359 0)
(0.461355 -0.048941 0)
(0.436706 -0.0947482 0)
(0.411506 -0.137133 0)
(0.00309079 0.228454 0)
(0.0078569 0.328691 0)
(0.00311762 0.268372 0)
(-0.0156767 0.234964 0)
(-0.0513251 0.227866 0)
(-0.103239 0.243451 0)
(-0.147377 0.293787 0)
(-0.153612 0.380662 0)
(-0.10748 0.482577 0)
(-0.0148726 0.562234 0)
(0.101935 0.594878 0)
(0.2193 0.577818 0)
(0.319848 0.522269 0)
(0.393368 0.445319 0)
(0.438853 0.361462 0)
(0.461174 0.279569 0)
(0.466804 0.204012 0)
(0.461382 0.13623 0)
(0.449052 0.0759405 0)
(0.432515 0.0220449 0)
(0.413531 -0.0266684 0)
(0.392847 -0.0712985 0)
(0.370857 -0.112615 0)
(5.60065e-05 0.225269 0)
(0.00226798 0.328072 0)
(-0.000345091 0.27653 0)
(-0.0123372 0.252944 0)
(-0.0298157 0.257998 0)
(-0.05324 0.279208 0)
(-0.0721773 0.317352 0)
(-0.0705981 0.371425 0)
(-0.0367447 0.430911 0)
(0.0285188 0.477271 0)
(0.111616 0.49534 0)
(0.196511 0.483168 0)
(0.27117 0.445678 0)
(0.328761 0.391431 0)
(0.367994 0.328736 0)
(0.390909 0.263929 0)
(0.400776 0.201022 0)
(0.400909 0.142029 0)
(0.394133 0.0875919 0)
(0.382558 0.0375594 0)
(0.367803 -0.00848817 0)
(0.350653 -0.0513762 0)
(0.331755 -0.0912935 0)
(-0.00154023 0.224838 0)
(0.0002825 0.327109 0)
(0.000433092 0.281493 0)
(-0.00670556 0.262088 0)
(-0.0142945 0.270408 0)
(-0.0218821 0.29116 0)
(-0.0240823 0.320058 0)
(-0.0136963 0.355327 0)
(0.015281 0.390956 0)
(0.0621321 0.417216 0)
(0.119981 0.426339 0)
(0.18003 0.416271 0)
(0.23478 0.388739 0)
(0.279499 0.348132 0)
(0.312368 0.299531 0)
(0.333669 0.24734 0)
(0.34486 0.194721 0)
(0.347849 0.143604 0)
(0.344511 0.0949524 0)
(0.336458 0.0490858 0)
(0.324803 0.00599752 0)
(0.310497 -0.0347014 0)
(0.294489 -0.0729806 0)
(-0.002129 0.225288 0)
(0.000586612 0.324849 0)
(0.00351627 0.283188 0)
(0.000270495 0.266076 0)
(-0.00171224 0.274183 0)
(-0.00187436 0.291846 0)
(0.00348406 0.313209 0)
(0.0175931 0.336545 0)
(0.0427693 0.358161 0)
(0.0782812 0.372907 0)
(0.120558 0.376496 0)
(0.164641 0.367058 0)
(0.205881 0.345191 0)
(0.240902 0.313292 0)
(0.267926 0.274471 0)
(0.286574 0.231686 0)
(0.297416 0.187295 0)
(0.30151 0.142935 0)
(0.30006 0.0995979 0)
(0.294209 0.0577836 0)
(0.284926 0.0176594 0)
(0.273038 -0.0206767 0)
(0.259375 -0.0573041 0)
(-0.00194328 0.225524 0)
(0.00193673 0.320565 0)
(0.00732293 0.282111 0)
(0.00743983 0.266326 0)
(0.0089657 0.273298 0)
(0.012754 0.287546 0)
(0.0211425 0.303002 0)
(0.035716 0.318253 0)
(0.0573295 0.331243 0)
(0.0853086 0.339058 0)
(0.11749 0.339027 0)
(0.15088 0.3298 0)
(0.182482 0.31152 0)
(0.209921 0.285498 0)
(0.231743 0.253641 0)
(0.247394 0.217925 0)
(0.257005 0.180064 0)
(0.261128 0.141366 0)
(0.260522 0.102724 0)
(0.255987 0.0646765 0)
(0.248295 0.0275099 0)
(0.238126 -0.00864362 0)
(0.226182 -0.0437244 0)
(-0.00126619 0.22473 0)
(0.00373199 0.3144 0)
(0.0109799 0.278661 0)
(0.0138473 0.263637 0)
(0.0176919 0.26945 0)
(0.0237011 0.280683 0)
(0.0332502 0.291653 0)
(0.0471198 0.301435 0)
(0.0655595 0.308969 0)
(0.0879832 0.312464 0)
(0.112988 0.310195 0)
(0.138662 0.301184 0)
(0.163028 0.285377 0)
(0.184427 0.263498 0)
(0.20174 0.236727 0)
(0.214416 0.206387 0)
(0.222379 0.173709 0)
(0.225888 0.139704 0)
(0.225398 0.105122 0)
(0.221442 0.0704598 0)
(0.214596 0.0360285 0)
(0.205311 0.00198817 0)
(0.194131 -0.0314332 0)
(-0.000377248 0.222762 0)
(0.00573119 0.307164 0)
(0.0142965 0.2734 0)
(0.0191861 0.259098 0)
(0.0245692 0.2639 0)
(0.0317946 0.272698 0)
(0.041665 0.280409 0)
(0.0544738 0.286552 0)
(0.0701932 0.290622 0)
(0.0883464 0.29147 0)
(0.107991 0.287912 0)
(0.12787 0.279219 0)
(0.146657 0.26526 0)
(0.163195 0.246431 0)
(0.176641 0.223473 0)
(0.186512 0.197279 0)
(0.192643 0.168735 0)
(0.19511 0.138618 0)
(0.194143 0.107544 0)
(0.190039 0.0759545 0)
(0.183143 0.0441562 0)
(0.173742 0.0122924 0)
(0.162239 -0.019239 0)
(0.000570421 0.218847 0)
(0.00770709 0.298218 0)
(0.0170801 0.266035 0)
(0.0233029 0.252706 0)
(0.0296429 0.256738 0)
(0.0374522 0.263645 0)
(0.0471564 0.269068 0)
(0.0587589 0.272874 0)
(0.0721119 0.274855 0)
(0.0868325 0.274209 0)
(0.102272 0.270069 0)
(0.117588 0.261871 0)
(0.131884 0.249462 0)
(0.144354 0.23305 0)
(0.154378 0.213109 0)
(0.161557 0.190256 0)
(0.165694 0.165147 0)
(0.166747 0.138396 0)
(0.164776 0.110525 0)
(0.159881 0.0819374 0)
(0.152212 0.0529264 0)
(0.141956 0.0235723 0)
(0.129882 -0.0061008 0)
(0.00135849 0.215785 0)
(0.00964438 0.290978 0)