/*--------------------------------*- C++ -*----------------------------------*\
| =========                 |                                                 |
| \\      /  F ield         | OpenFOAM: The Open Source CFD Toolbox           |
|  \\    /   O peration     | Version:  2206                                  |
|   \\  /    A nd           | Website:  www.openfoam.com                      |
|    \\/     M anipulation  |                                                 |
\*---------------------------------------------------------------------------*/
FoamFile
{
    version     2.0;
    format      ascii;
    arch        "LSB;label=32;scalar=64";
    class       volScalarField;
    location    "0.85";
    object      p;
}
// * * * * * * * * * * * * * * * * * * * * * * * * * * * * * * * * * * * * * //

dimensions      [1 -1 -2 0 0 0 0];

internalField   nonuniform List<scalar> 
2268
(
1429.47
1429.67
1429.69
1429.37
1428.9
1428.43
1427.99
1427.56
1427.1
1426.62
1426.09
1425.5
1424.86
1424.19
1423.49
1422.79
1422.15
1421.59
1421.26
1421.24
1421.76
1423.11
1424.72
1249.9
1250.08
1250.18
1249.92
1249.58
1249.25
1248.91
1248.54
1248.12
1247.63
1247.08
1246.46
1245.79
1245.06
1244.28
1243.45
1242.64
1241.9
1241.15
1240.58
1240.35
1240.49
1242.9
1069.89
1070.02
1070.24
1070.2
1070.14
1070.07
1069.93
1069.72
1069.42
1069.02
1068.51
1067.89
1067.16
1066.28
1065.28
1064.13
1062.78
1061.12
1059.21
1056.51
1052.76
1047.36
1050.88
889.421
889.634
889.963
890.235
890.617
890.932
891.094
891.102
890.953
890.643
890.163
889.492
888.724
887.796
886.713
885.478
884.077
882.444
880.432
877.935
873.833
867
871.483
707.946
708.228
708.986
709.933
711.032
711.887
712.452
712.785
712.912
712.836
712.542
712.04
711.146
710.09
708.897
707.605
706.28
705.015
703.928
702.995
701.799
701.466
702.134
524.177
524.271
526.194
528.892
531.4
533.106
534.181
534.892
535.272
535.279
534.953
534.291
533.32
532.004
530.423
528.627
526.671
524.664
522.789
521.312
520.361
521.456
521.739
339.441
339.607
341.374
345.535
349.842
352.97
355.142
356.882
358.259
359.002
358.766
357.74
356.173
354.25
351.997
349.274
346.007
342.278
338.365
334.878
332.539
331.898
331.767
155.143
152.539
152.133
155.947
161.944
167.552
172.089
175.638
178.231
180.083
181.362
181.468
180.275
178.184
175.373
171.47
166.052
159.658
153.472
149.041
147.202
146.823
146.093
218.124
181.122
119.526
77.2018
74.5926
75.1824
69.5578
65.1054
68.7232
76.5156
83.1077
99.2168
124.138
137.392
132.778
124.034
145.223
175.554
179.02
148.486
106.793
67.1123
47.0831
45.0881
52.4063
50.2882
48.3378
52.0153
61.694
68.6613
68.8697
75.4254
84.9551
67.5542
54.2357
58.5065
90.6753
107.442
96.6844
59.695
44.9324
39.9008
38.2684
42.9764
42.9
43.2009
46.3222
51.7949
56.6438
52.2886
48.6339
46.0613
40.7141
35.2876
36.1704
44.2944
77.6959
48.5245
36.9555
38.1282
37.0027
36.553
34.5833
32.5922
33.5787
37.4412
39.5355
27.0749
22.8912
24.5889
23.6036
23.107
19.8304
18.2754
23.4098
50.6362
7.12643
4.34479
15.1212
25.4502
31.9103
28.9328
16.082
14.5925
15.5378
11.9325
9.77036
10.2826
11.4853
13.0359
12.6191
9.87913
7.44025
14.1861
21.7666
-2.68767
-3.29291
-9.19973
6.1877
14.7488
11.7991
6.93582
4.71366
5.18724
6.34005
7.30022
7.78457
8.24237
9.62589
9.66345
7.69969
7.00917
9.93266
12.5338
-1.53504
-2.24566
-8.82211
-5.12615
6.63123
8.99513
6.4003
3.20063
3.43211
4.50522
5.90638
6.49169
6.41467
7.34994
8.81914
7.98857
9.45661
8.50683
11.7145
1.55111
3.51137
-0.475332
0.44857
6.88139
11.2603
6.32263
2.81595
1.78394
2.19231
2.73759
2.86938
3.25874
3.93734
8.3116
7.82133
11.0581
5.90957
14.8364
32.984
24.5068
24.2642
25.9721
30.7363
36.1738
40.9504
44.952
49.1315
52.7717
53.7571
53.2506
51.611
49.7863
48.4368
46.1569
41.5094
35.3897
30.068
28.7846
31.0154
28.2322
20.474
-1.18327
-1.28904
-1.26231
-1.23337
-1.21859
-0.711588
0.213399
0.993659
2.0589
3.6766
5.21368
5.46663
5.05444
4.39085
4.14838
3.79669
2.757
1.39478
0.271737
0.270968
0.75577
0.211575
-0.885898
-1.40922
-1.42351
-1.40707
-1.41995
-1.47474
-1.55699
-1.59573
-1.62122
-1.641
-1.65415
-1.67411
-1.69769
-1.69937
-1.67413
-1.64677
-1.60935
-1.56376
-1.52387
-1.51267
-1.51291
-1.49802
-1.44656
-1.33347
-1.50927
-1.51728
-1.53111
-1.5549
-1.59369
-1.63965
-1.67376
-1.69779
-1.71577
-1.73009
-1.74432
-1.75947
-1.77081
-1.7726
-1.75667
-1.72414
-1.68619
-1.65018
-1.61133
-1.60041
-1.58822
-1.5363
-1.47243
-1.62197
-1.64112
-1.65702
-1.67691
-1.70304
-1.73261
-1.75955
-1.78124
-1.79738
-1.81016
-1.82161
-1.83107
-1.83544
-1.8324
-1.82359
-1.80939
-1.79085
-1.76325
-1.7255
-1.70592
-1.68879
-1.65222
-1.61089
-1.74393
-1.76016
-1.77279
-1.78994
-1.80994
-1.83127
-1.8513
-1.86841
-1.88201
-1.89283
-1.9015
-1.90786
-1.91048
-1.90706
-1.89854
-1.88746
-1.87323
-1.85109
-1.8254
-1.8094
-1.79234
-1.7663
-1.74109
-1.86234
-1.87527
-1.88589
-1.89928
-1.9143
-1.93033
-1.94562
-1.95904
-1.97014
-1.97889
-1.98547
-1.98973
-1.99105
-1.9882
-1.98114
-1.97101
-1.95772
-1.93985
-1.9213
-1.90819
-1.8958
-1.88006
-1.8656
-1.97807
-1.98777
-1.99635
-2.00657
-2.01803
-2.0303
-2.04218
-2.05293
-2.06213
-2.06947
-2.07457
-2.07727
-2.0775
-2.0748
-2.06912
-2.06091
-2.05039
-2.0377
-2.02483
-2.01451
-2.00563
-1.99623
-1.98814
-2.0908
-2.09854
-2.10474
-2.11246
-2.12093
-2.13022
-2.13943
-2.14803
-2.15552
-2.16163
-2.16604
-2.16834
-2.1684
-2.16619
-2.16183
-2.15564
-2.14796
-2.13938
-2.13098
-2.12374
-2.11732
-2.11139
-2.1071
-2.20157
-2.20728
-2.21204
-2.21779
-2.22408
-2.23132
-2.23874
-2.24583
-2.25205
-2.25705
-2.26061
-2.26253
-2.2627
-2.26113
-2.25797
-2.25351
-2.24808
-2.24222
-2.2366
-2.23172
-2.22756
-2.22424
-2.22258
-2.31049
-2.31464
-2.31843
-2.32291
-2.32775
-2.33354
-2.33967
-2.34562
-2.35088
-2.35509
-2.35805
-2.35966
-2.3599
-2.35884
-2.35662
-2.3535
-2.34978
-2.34584
-2.34214
-2.33903
-2.3367
-2.33534
-2.33549
-2.41777
-2.42095
-2.42427
-2.42825
-2.43237
-2.43727
-2.4425
-2.44756
-2.45197
-2.45547
-2.45791
-2.45924
-2.45951
-2.4588
-2.45725
-2.45508
-2.45257
-2.44999
-2.44768
-2.44593
-2.44497
-2.44498
-2.44636
-2.52424
-2.52678
-2.53018
-2.53422
-2.53814
-2.54251
-2.54705
-2.55135
-2.55501
-2.55784
-2.55977
-2.56082
-2.56103
-2.56051
-2.55939
-2.55786
-2.55614
-2.55448
-2.55314
-2.55237
-2.55241
-2.55342
-2.55567
-2.63102
-2.63308
-2.63689
-2.64124
-2.64522
-2.64921
-2.65315
-2.65673
-2.65966
-2.66183
-2.66325
-2.66396
-2.66404
-2.66356
-2.66267
-2.66153
-2.66032
-2.65926
-2.65857
-2.65849
-2.65926
-2.66105
-2.66401
-2.73911
-2.74084
-2.74511
-2.74969
-2.7537
-2.75732
-2.76064
-2.76348
-2.76566
-2.76716
-2.76804
-2.76837
-2.76822
-2.76769
-2.76688
-2.76594
-2.76503
-2.76434
-2.76407
-2.76446
-2.76576
-2.76817
-2.77181
-2.84918
-2.85081
-2.8553
-2.85981
-2.86363
-2.86675
-2.86936
-2.8714
-2.8728
-2.87361
-2.87392
-2.87382
-2.87338
-2.87269
-2.87185
-2.87097
-2.87021
-2.86973
-2.86972
-2.8704
-2.87206
-2.87497
-2.87929
-2.96169
-2.96339
-2.9677
-2.97175
-2.97504
-2.97743
-2.97918
-2.98034
-2.98091
-2.98099
-2.98069
-2.98012
-2.97934
-2.97843
-2.97747
-2.97657
-2.97584
-2.97545
-2.97556
-2.9764
-2.97826
-2.98152
-2.98646
-3.07702
-3.07882
-3.08249
-3.08561
-3.08794
-3.0893
-3.08998
-3.09014
-3.0898
-3.08911
-3.08818
-3.0871
-3.08594
-3.08477
-3.08364
-3.08264
-3.08187
-3.08148
-3.08162
-3.0825
-3.08443
-3.08782
-3.09314
-3.19544
-3.19732
-3.1999
-3.20153
-3.20234
-3.20227
-3.20164
-3.20063
-3.19931
-3.1978
-3.1962
-3.1946
-3.19305
-3.19158
-3.19025
-3.18911
-3.18825
-3.18778
-3.18786
-3.18869
-3.19054
-3.19384
-3.19918
-3.31693
-3.31912
-3.32028
-3.31977
-3.31826
-3.31622
-3.31396
-3.31162
-3.30923
-3.30685
-3.30459
-3.30247
-3.30051
-3.29875
-3.29719
-3.29588
-3.29488
-3.2943
-3.29425
-3.29492
-3.29658
-3.29958
-3.30452
-3.44095
-3.44439
-3.44398
-3.44038
-3.43554
-3.43088
-3.42666
-3.42284
-3.41931
-3.41608
-3.41316
-3.41054
-3.40821
-3.40615
-3.40437
-3.40287
-3.40172
-3.40097
-3.40074
-3.40117
-3.40251
-3.40506
-3.40927
-3.56543
-3.57319
-3.571
-3.56332
-3.55386
-3.5458
-3.53931
-3.53395
-3.5293
-3.52526
-3.52174
-3.51869
-3.51602
-3.5137
-3.5117
-3.51003
-3.5087
-3.50776
-3.5073
-3.50743
-3.50835
-3.51035
-3.51366
-3.68402
-3.70488
-3.69969
-3.68752
-3.67223
-3.66017
-3.65131
-3.64449
-3.63888
-3.63417
-3.63018
-3.62678
-3.62385
-3.62132
-3.61914
-3.61729
-3.61578
-3.61464
-3.61392
-3.61372
-3.61417
-3.6155
-3.61791
-3.80007
-3.82532
-3.82388
-3.80907
-3.78849
-3.77274
-3.76193
-3.75402
-3.74775
-3.74261
-3.73832
-3.73471
-3.73161
-3.72893
-3.72662
-3.72462
-3.72294
-3.72159
-3.7206
-3.72003
-3.72001
-3.72066
-3.72214
-3.90979
-3.93034
-3.93717
-3.92331
-3.90001
-3.88221
-3.8705
-3.86217
-3.8557
-3.85044
-3.84608
-3.8424
-3.83925
-3.8365
-3.8341
-3.832
-3.83017
-3.8286
-3.82734
-3.82642
-3.82591
-3.82589
-3.82649
-4.01406
-4.02547
-4.03675
-4.02851
-4.00452
-3.98761
-3.97666
-3.96882
-3.96266
-3.95761
-3.9534
-3.94983
-3.94673
-3.944
-3.94157
-3.93939
-3.93743
-3.93569
-3.93417
-3.9329
-3.93193
-3.9313
-3.93109
-4.11432
-4.11725
-4.12714
-4.12334
-4.10567
-4.0903
-4.08086
-4.07426
-4.06876
-4.06419
-4.06033
-4.05699
-4.05405
-4.05141
-4.049
-4.04679
-4.04474
-4.04284
-4.0411
-4.03952
-4.03813
-4.03695
-4.03601
-4.21116
-4.20845
-4.215
-4.21448
-4.20317
-4.19137
-4.18381
-4.17862
-4.17416
-4.17028
-4.16691
-4.16393
-4.16123
-4.15873
-4.15641
-4.1542
-4.1521
-4.15009
-4.14816
-4.14632
-4.14456
-4.1429
-4.14135
-4.30508
-4.30016
-4.30425
-4.30566
-4.29921
-4.29144
-4.2862
-4.28249
-4.27914
-4.27606
-4.27327
-4.27071
-4.2683
-4.26601
-4.2638
-4.26165
-4.25954
-4.25745
-4.25539
-4.25333
-4.25128
-4.24923
-4.24716
-4.39791
-4.39329
-4.39649
-4.39888
-4.39604
-4.39173
-4.38863
-4.3863
-4.384
-4.38172
-4.37953
-4.37741
-4.37533
-4.37328
-4.37122
-4.36916
-4.36708
-4.36496
-4.3628
-4.3606
-4.35832
-4.35597
-4.35351
-4.49205
-4.48872
-4.49182
-4.49475
-4.49445
-4.49285
-4.49154
-4.49039
-4.48901
-4.48746
-4.48584
-4.48415
-4.4824
-4.48058
-4.47871
-4.47676
-4.47474
-4.47264
-4.47044
-4.46814
-4.46572
-4.46316
-4.46043
-4.58915
-4.58688
-4.58996
-4.5934
-4.59492
-4.59521
-4.59522
-4.59499
-4.59435
-4.59343
-4.5923
-4.591
-4.58956
-4.58799
-4.5863
-4.5845
-4.58257
-4.58052
-4.57833
-4.576
-4.5735
-4.57082
-4.56793
-4.68971
-4.68782
-4.69087
-4.69483
-4.69752
-4.69895
-4.69983
-4.70024
-4.70017
-4.69973
-4.69901
-4.69805
-4.69689
-4.69555
-4.69406
-4.6924
-4.6906
-4.68863
-4.6865
-4.6842
-4.6817
-4.67898
-4.67602
-4.79346
-4.79158
-4.79465
-4.79892
-4.80209
-4.80405
-4.80541
-4.80623
-4.80654
-4.80645
-4.80604
-4.80536
-4.80444
-4.80332
-4.802
-4.80051
-4.79885
-4.797
-4.79497
-4.79275
-4.79031
-4.78764
-4.78472
-4.89989
-4.898
-4.90109
-4.90524
-4.90831
-4.91039
-4.91193
-4.91294
-4.91347
-4.91361
-4.91343
-4.91297
-4.91225
-4.91132
-4.91018
-4.90886
-4.90735
-4.90565
-4.90376
-4.90167
-4.89936
-4.8968
-4.894
-5.00835
-5.00661
-5.00958
-5.01319
-5.01584
-5.01779
-5.0193
-5.02034
-5.02096
-5.02123
-5.0212
-5.02089
-5.02034
-5.01958
-5.01861
-5.01746
-5.01612
-5.01459
-5.01288
-5.01096
-5.00882
-5.00646
-5.00385
-5.11819
-5.11673
-5.11936
-5.12223
-5.12434
-5.12603
-5.12737
-5.12834
-5.12896
-5.12928
-5.12933
-5.12913
-5.12872
-5.1281
-5.12729
-5.12631
-5.12516
-5.12383
-5.12231
-5.1206
-5.1187
-5.11658
-5.11425
-5.22883
-5.22768
-5.22983
-5.23194
-5.23354
-5.2349
-5.23602
-5.23684
-5.2374
-5.23772
-5.2378
-5.23768
-5.23737
-5.23689
-5.23624
-5.23543
-5.23447
-5.23335
-5.23206
-5.2306
-5.22897
-5.22716
-5.22516
-5.33988
-5.339
-5.34062
-5.34207
-5.34323
-5.34426
-5.34512
-5.34577
-5.34623
-5.3465
-5.3466
-5.34653
-5.34631
-5.34594
-5.34544
-5.34481
-5.34405
-5.34315
-5.34211
-5.34094
-5.33963
-5.33817
-5.33655
-5.45111
-5.45042
-5.45154
-5.45248
-5.45326
-5.45397
-5.45458
-5.45504
-5.45538
-5.45559
-5.45567
-5.45564
-5.45549
-5.45523
-5.45487
-5.45442
-5.45386
-5.4532
-5.45244
-5.45158
-5.45061
-5.44953
-5.44834
-5.56235
-5.56179
-5.56251
-5.56304
-5.56348
-5.56391
-5.56426
-5.56454
-5.56474
-5.56488
-5.56494
-5.56492
-5.56483
-5.56467
-5.56446
-5.56418
-5.56385
-5.56344
-5.56297
-5.56244
-5.56184
-5.56118
-5.56044
-5.67358
-5.67324
-5.67351
-5.67368
-5.67382
-5.67396
-5.67407
-5.67416
-5.67423
-5.67428
-5.6743
-5.6743
-5.67427
-5.67422
-5.67415
-5.67405
-5.67394
-5.6738
-5.67364
-5.67346
-5.67325
-5.67302
-5.67276
4.91002
3.99842
4.47727
4.35204
-0.978923
-1.00267
-0.993979
-0.960556
-1.26447
-1.2086
-1.18945
-1.14012
-1.42567
-1.38758
-1.36474
-1.35128
-1.57976
-1.55793
-1.54936
-1.5583
-1.72134
-1.70914
-1.70972
-1.72902
-1.85547
-1.8519
-1.85908
-1.88152
-1.98359
-1.98539
-1.99593
-2.01793
-2.10584
-2.11014
-2.12144
-2.14179
-2.22371
-2.22947
-2.24048
-2.25867
-2.33822
-2.34486
-2.3553
-2.37154
-2.45014
-2.45736
-2.46729
-2.48208
-2.56026
-2.56815
-2.57799
-2.59214
-2.66934
-2.67823
-2.68876
-2.70368
-2.77794
-2.78817
-2.80059
-2.82034
-2.88631
-2.89819
-2.91419
-2.94326
-2.99434
-3.00787
-3.02811
-3.06588
-3.10164
-3.11623
-3.13986
-3.18246
-3.20784
-3.22239
-3.24699
-3.2906
-3.31275
-3.32632
-3.34851
-3.38812
-3.41642
-3.42803
-3.44649
-3.47705
-3.51939
-3.52858
-3.54266
-3.56411
-3.62213
-3.62884
-3.63908
-3.6536
-3.72491
-3.72947
-3.73652
-3.74607
-3.82795
-3.83064
-3.83497
-3.84078
-3.93138
-3.93242
-3.93446
-3.93733
-4.03529
-4.03493
-4.03508
-4.03564
-4.13979
-4.13826
-4.13691
-4.13565
-4.24492
-4.24248
-4.23996
-4.2373
-4.35075
-4.3476
-4.34421
-4.3405
-4.45729
-4.45364
-4.44964
-4.4452
-4.56456
-4.5606
-4.55621
-4.5513
-4.67256
-4.66844
-4.66386
-4.65873
-4.78127
-4.77716
-4.77257
-4.76742
-4.89068
-4.88672
-4.88228
-4.87731
-5.00076
-4.99707
-4.99295
-4.98832
-5.11148
-5.10818
-5.10449
-5.10036
-5.2228
-5.21998
-5.21684
-5.21335
-5.33464
-5.33238
-5.32992
-5.32725
-5.44693
-5.44529
-5.44356
-5.44205
-5.55956
-5.55849
-5.55728
-5.5557
-5.67245
-5.67206
-5.67159
-5.67097
2.66678
3.21244
-3.58798
-0.857157
3.9138
9.43082
6.1396
1.94291
0.300609
0.177846
0.799839
1.29675
1.76835
1.87743
5.38336
5.70967
8.62219
0.823374
-4.58446
-0.491489
0.00215372
-1.84477
-0.685221
-0.265711
5.53325
4.73475
1.60725
-0.28055
-0.432075
0.0986567
0.645593
0.983257
1.03098
2.42328
2.66113
3.30062
0.544806
-5.77809
-1.01357
-1.5088
-2.74299
-2.77212
-2.26217
-0.490571
2.26827
1.61423
-0.354758
-0.447897
-0.244074
0.20309
0.324988
0.437615
0.754827
0.946997
0.714037
1.13008
-2.68048
-1.33609
-1.69763
-2.44668
-2.66219
-2.37495
-2.07052
-0.605905
0.189772
-0.108739
-0.047945
-0.132305
0.0772352
0.0511424
-0.000462396
0.22999
0.405858
0.187847
0.618853
3.43358
-1.59768
-1.80224
-2.27669
-2.45286
-2.2049
-1.98508
-2.42463
-2.37798
0.60937
0.572142
0.24843
0.244538
-0.088829
-0.179762
-0.0568126
0.0466646
-0.0341569
0.0873334
2.65552
-1.78507
-1.95157
-2.23786
-2.31458
-2.08453
-1.88811
-2.10779
-1.61869
1.25695
0.959147
0.535752
0.357847
-0.265659
-0.318917
-0.312694
-0.290472
-0.316672
-0.224642
1.08825
-1.93576
-2.0744
-2.26772
-2.2986
-2.07193
-1.84621
-1.64789
-0.148334
1.60933
1.30017
0.634583
0.0639424
-0.358723
-0.51564
-0.603687
-0.670074
-0.674679
-0.523164
1.1332
-2.06591
-2.17426
-2.31249
-2.32449
-2.13459
-1.92011
-1.85522
-1.41059
0.0215732
0.800255
0.294472
-0.44948
-0.510192
-0.75448
-0.924151
-1.09958
-1.08099
-0.781874
0.937689
-2.18337
-2.26522
-2.35553
-2.36571
-2.23061
-2.0686
-1.99397
-1.56857
-0.615883
-0.0439404
-0.428317
-0.828088
-0.815055
-1.03413
-1.25376
-1.543
-1.52565
-1.12418
0.668484
-2.29447
-2.35639
-2.41178
-2.41805
-2.34011
-2.25191
-2.22602
-1.91364
-1.40492
-1.12158
-1.41235
-1.14492
-1.16834
-1.32119
-1.55454
-1.88757
-1.90368
-1.64678
0.358401
-2.40305
-2.45173
-2.48567
-2.49125
-2.46522
-2.45858
-2.55532
-2.49612
-2.15363
-1.98181
-1.89048
-1.61339
-1.56878
-1.63405
-1.81082
-2.05457
-2.02237
-2.00613
0.318905
-2.51123
-2.55234
-2.57313
-2.58199
-2.60075
-2.66388
-2.91202
-3.2337
-2.90396
-2.6724
-2.30398
-2.11639
-1.98228
-1.97029
-2.04218
-2.15616
-2.0141
-2.12327
1.94423
-2.62191
-2.66118
-2.66897
-2.67502
-2.72791
-2.84266
-3.19984
-3.68011
-3.28345
-3.08736
-2.78881
-2.61144
-2.38975
-2.29867
-2.27668
-2.38126
-2.12354
-2.64818
2.67421
-2.7395
-2.78584
-2.77374
-2.75908
-2.83182
-2.98149
-3.39417
-3.98479
-3.5318
-3.36686
-3.27199
-3.0857
-2.7683
-2.58598
-2.48444
-2.63732
-2.44833
-3.76224
-3.50946
-2.87341
-2.94181
-2.91834
-2.87751
-2.92207
-3.08207
-3.51559
-4.27621
-3.88784
-3.66654
-3.72704
-3.50487
-3.08622
-2.81702
-2.6153
-2.70749
-2.6549
-4.22483
-3.49189
-3.02525
-3.14837
-3.18159
-3.13238
-3.09356
-3.15408
-3.557
-4.38491
-4.17117
-3.95354
-4.1352
-3.85235
-3.31559
-2.98142
-2.67155
-2.55911
-2.18957
-3.29976
-3.39632
-3.1746
-3.37349
-3.40035
-3.35146
-3.2595
-3.17183
-3.51094
-4.27338
-4.33209
-4.13286
-4.4817
-4.17314
-3.47368
-3.08039
-2.68835
-2.4269
-1.99413
-1.96668
-3.10936
-3.30339
-3.5574
-3.5635
-3.44525
-3.2991
-3.14858
-3.39506
-4.07178
-4.33577
-4.27503
-4.52125
-4.29233
-3.52473
-3.12356
-2.69249
-2.41524
-2.04918
-1.89273
-3.43855
-3.4032
-3.67609
-3.70917
-3.55322
-3.38924
-3.20307
-3.32622
-3.83705
-4.1727
-4.21032
-4.34313
-4.17751
-3.48244
-3.11199
-2.68631
-2.47829
-2.10614
-2.11154
3.00029
-3.47763
-3.69504
-3.77511
-3.66952
-3.50574
-3.38119
-3.36813
-3.65322
-3.9378
-4.01307
-4.11748
-3.96966
-3.37516
-3.06499
-2.67618
-2.59529
-2.18471
-2.36334
3.85776
-3.53494
-3.68106
-3.76491
-3.70425
-3.59755
-3.51331
-3.46549
-3.6042
-3.7816
-3.85552
-3.86725
-3.65549
-3.24526
-3.01542
-2.69862
-2.70055
-2.28986
-2.65744
2.3562
-3.59894
-3.68596
-3.748
-3.72984
-3.66876
-3.616
-3.58714
-3.6437
-3.72603
-3.67578
-3.47781
-3.34082
-3.15352
-2.99249
-2.74045
-2.78263
-2.39975
-2.87123
1.90324
-3.67608
-3.72467
-3.76439
-3.76465
-3.73309
-3.69975
-3.67827
-3.6909
-3.71223
-3.61368
-3.44149
-3.28383
-3.14691
-3.00754
-2.79451
-2.85232
-2.49949
-3.03682
1.7983
-3.76122
-3.78901
-3.81315
-3.81537
-3.79532
-3.76841
-3.74539
-3.73484
-3.7167
-3.62751
-3.48008
-3.32714
-3.18457
-3.04393
-2.85298
-2.90682
-2.5774
-3.19044
1.64525
-3.85018
-3.86615
-3.87938
-3.87846
-3.8612
-3.83498
-3.80919
-3.78562
-3.746
-3.65661
-3.52675
-3.38418
-3.23933
-3.09334
-2.91472
-2.94644
-2.61746
-3.26899
1.62636
-3.94201
-3.95
-3.95554
-3.95119
-3.93433
-3.90849
-3.87871
-3.84525
-3.79392
-3.7065
-3.58823
-3.45227
-3.30526
-3.15314
-2.97983
-2.97069
-2.64912
-3.28901
1.69494
-4.03667
-4.03878
-4.0386
-4.031
-4.01357
-3.98692
-3.95421
-3.91368
-3.85529
-3.76879
-3.6573
-3.52757
-3.38153
-3.22421
-3.04727
-2.97821
-2.66086
-3.28789
2.92374
-4.13395
-4.13169
-4.12697
-4.11612
-4.09696
-4.06944
-4.03443
-3.98977
-3.9281
-3.84301
-3.73679
-3.6132
-3.47021
-3.30893
-3.1195
-2.97544
-2.6144
-3.1962
4.98215
-4.23355
-4.22808
-4.21991
-4.2064
-4.1857
-4.15727
-4.12069
-4.0736
-4.0107
-3.92787
-3.82713
-3.7105
-3.57313
-3.41003
-3.20546
-2.98657
-2.5694
-2.83466
-2.09115
-4.33524
-4.32746
-4.31683
-4.30138
-4.27959
-4.25057
-4.21318
-4.16516
-4.10285
-4.02375
-3.92956
-3.82091
-3.69062
-3.52879
-3.31695
-3.0578
-2.6532
-2.68007
-3.52449
-4.43887
-4.42949
-4.41723
-4.40058
-4.37827
-4.34921
-4.31196
-4.26458
-4.2046
-4.13056
-4.04357
-3.94331
-3.8216
-3.66616
-3.4616
-3.20728
-2.86743
-2.96873
-3.31903
-4.54429
-4.53393
-4.52076
-4.50361
-4.48138
-4.45295
-4.41683
-4.37148
-4.31517
-4.24709
-4.16775
-4.0764
-3.96572
-3.82311
-3.64206
-3.42675
-3.16294
-3.15722
-3.25366
-4.65139
-4.64058
-4.62712
-4.61009
-4.58853
-4.5614
-4.52731
-4.48506
-4.43342
-4.37204
-4.30097
-4.2194
-4.12292
-3.99908
-3.85414
-3.69894
-3.49628
-3.40428
-3.31848
-4.76006
-4.74931
-4.7361
-4.71972
-4.69938
-4.67415
-4.64282
-4.60453
-4.55836
-4.50441
-4.44242
-4.3716
-4.29238
-4.19137
-4.08946
-4.00501
-3.8438
-3.68085
-3.48995
-4.8702
-4.85993
-4.84744
-4.83221
-4.81358
-4.79079
-4.76285
-4.72924
-4.68924
-4.64336
-4.59118
-4.53216
-4.47202
-4.39553
-4.34094
-4.33288
-4.20064
-3.98725
-3.73563
-4.98175
-4.97227
-4.96091
-4.94725
-4.9308
-4.91096
-4.88701
-4.85873
-4.8255
-4.78816
-4.74628
-4.70007
-4.65925
-4.60693
-4.60524
-4.67335
-4.56132
-4.30674
-4.02046
-5.09451
-5.08615
-5.07627
-5.0646
-5.05078
-5.03442
-5.01504
-4.9926
-4.96659
-4.93815
-4.90686
-4.87423
-4.85147
-4.82267
-4.87723
-5.00718
-4.90647
-4.61266
-4.31592
-5.2084
-5.20141
-5.19332
-5.18398
-5.17318
-5.16069
-5.14626
-5.12996
-5.11152
-5.09226
-5.0718
-5.05294
-5.04522
-5.03812
-5.13051
-5.29277
-5.20295
-4.88255
-4.6016
-5.32328
-5.31778
-5.31165
-5.30483
-5.29723
-5.28878
-5.27942
-5.26938
-5.25869
-5.24863
-5.239
-5.23304
-5.23626
-5.24441
-5.32315
-5.47876
-5.39479
-5.08985
-4.86992
-5.43875
-5.43484
-5.43077
-5.42654
-5.42221
-5.41785
-5.4136
-5.40985
-5.40687
-5.40581
-5.40675
-5.41236
-5.42424
-5.44088
-5.47705
-5.59194
-5.45642
-5.24505
-5.1201
-5.55434
-5.55232
-5.55048
-5.54903
-5.54818
-5.5482
-5.54943
-5.55242
-5.55771
-5.56635
-5.57878
-5.59688
-5.62007
-5.64685
-5.66469
-5.75566
-5.4243
-5.42435
-5.46985
-5.67066
-5.67057
-5.6712
-5.67293
-5.67614
-5.68136
-5.6892
-5.70048
-5.71611
-5.73745
-5.76517
-5.80148
-5.84368
-5.89044
-5.92157
-6.00963
-5.63679
-5.79969
-5.75629
)
;

boundaryField
{
    leftWall
    {
        type            calculated;
        value           nonuniform List<scalar> 
50
(
1429.47
1249.9
1069.89
889.421
707.946
524.177
339.441
155.143
32.984
-1.18327
-1.40922
-1.50927
-1.62197
-1.74393
-1.86234
-1.97807
-2.0908
-2.20157
-2.31049
-2.41777
-2.52424
-2.63102
-2.73911
-2.84918
-2.96169
-3.07702
-3.19544
-3.31693
-3.44095
-3.56543
-3.68402
-3.80007
-3.90979
-4.01406
-4.11432
-4.21116
-4.30508
-4.39791
-4.49205
-4.58915
-4.68971
-4.79346
-4.89989
-5.00835
-5.11819
-5.22883
-5.33988
-5.45111
-5.56235
-5.67358
)
;
    }
    rightWall
    {
        type            calculated;
        value           nonuniform List<scalar> 
50
(
179.02
107.442
77.6959
50.6362
21.7666
12.5338
11.7145
14.8364
-4.58446
-5.77809
-2.68048
3.43358
2.65552
1.08825
1.1332
0.937689
0.668484
0.358401
0.318905
1.94423
2.67421
-3.50946
-3.49189
-3.39632
-3.10936
-3.43855
3.00029
3.85776
2.3562
1.90324
1.7983
1.64525
1.62636
1.69494
2.92374
4.98215
-2.09115
-3.52449
-3.31903
-3.25366
-3.31848
-3.48995
-3.73563
-4.02046
-4.31592
-4.6016
-4.86992
-5.1201
-5.46985
-5.75629
)
;
    }
    lowerWall
    {
        type            calculated;
        value           nonuniform List<scalar> 
62
(
1518.99
1519.19
1519.21
1518.88
1518.41
1517.95
1517.51
1517.07
1516.62
1516.14
1515.6
1515.02
1514.38
1513.7
1513
1512.31
1511.66
1511.11
1510.78
1510.75
1511.27
1512.63
1512.76
1424.72
1242.9
1050.88
871.483
702.134
521.739
331.767
146.093
9.61172
8.80926
9.44446
9.31103
218.124
148.486
96.6844
48.5245
7.12643
-2.68767
-1.53504
1.55111
255.53
218.528
144.371
83.922
80.7263
81.4359
75.8507
71.3921
74.4617
79.513
88.8135
138.637
164.653
177.907
170.333
162.587
183.775
214.106
216.677
)
;
    }
    atmosphere
    {
        type            calculated;
        value           nonuniform List<scalar> 
46
(
-5.72904
-5.72904
-5.72904
-5.72904
-5.72904
-5.72904
-5.72904
-5.72904
-5.72904
-5.72904
-5.72904
-5.72904
-5.72904
-5.72904
-5.72904
-5.72904
-5.72904
-5.72904
-5.72904
-5.72904
-5.72904
-5.72904
-5.72904
-5.72904
-5.72904
-5.72904
-5.72904
-5.72924
-5.73023
-5.73234
-5.736
-5.74175
-5.75026
-5.76236
-5.77912
-5.80175
-5.83208
-5.87071
-5.9214
-5.97858
-6.0423
-6.09152
-6.14059
-5.77445
-6.14706
-6.14298
)
;
    }
    defaultFaces
    {
        type            empty;
    }
}


// ************************************************************************* //
