/*--------------------------------*- C++ -*----------------------------------*\
| =========                 |                                                 |
| \\      /  F ield         | OpenFOAM: The Open Source CFD Toolbox           |
|  \\    /   O peration     | Version:  2206                                  |
|   \\  /    A nd           | Website:  www.openfoam.com                      |
|    \\/     M anipulation  |                                                 |
\*---------------------------------------------------------------------------*/
FoamFile
{
    version     2.0;
    format      ascii;
    arch        "LSB;label=32;scalar=64";
    class       surfaceScalarField;
    location    "0.575";
    object      alphaPhi0.water;
}
// * * * * * * * * * * * * * * * * * * * * * * * * * * * * * * * * * * * * * //

dimensions      [0 3 -1 0 0 0 0];

oriented        oriented;

internalField   nonuniform List<scalar> 
4432
(
-4.43697e-06
4.43697e-06
-4.84745e-06
4.10481e-07
-4.17598e-06
-6.7146e-07
-4.31446e-06
1.38486e-07
-5.42712e-06
1.11266e-06
-7.11562e-06
1.6885e-06
-8.8906e-06
1.77497e-06
-1.04476e-05
1.55702e-06
-1.16738e-05
1.22618e-06
-1.25699e-05
8.96083e-07
-1.31769e-05
6.06992e-07
-1.35397e-05
3.62789e-07
-1.36872e-05
1.47546e-07
-1.36216e-05
-6.56372e-08
-1.33284e-05
-2.93219e-07
-1.27653e-05
-5.63057e-07
-1.18295e-05
-9.35819e-07
-1.02754e-05
-1.55409e-06
-7.63053e-06
-2.64486e-06
-3.51316e-06
-4.11733e-06
3.86006e-06
-7.37317e-06
1.08199e-05
-7.6527e-06
1.02605e-05
-4.75972e-06
9.19669e-06
-5.53225e-06
1.18301e-06
-5.2911e-06
-9.1261e-07
-5.71146e-06
5.58843e-07
-6.96185e-06
2.36305e-06
-8.65247e-06
3.37913e-06
-1.03292e-05
3.4517e-06
-1.17124e-05
2.94021e-06
-1.27002e-05
2.21399e-06
-1.32826e-05
1.47852e-06
-1.348e-05
8.0437e-07
-1.33099e-05
1.92746e-07
-1.27795e-05
-3.82903e-07
-1.19042e-05
-9.40934e-07
-1.07003e-05
-1.49715e-06
-9.1735e-06
-2.08984e-06
-7.32979e-06
-2.77953e-06
-5.20062e-06
-3.68327e-06
-2.90057e-06
-4.94492e-06
-1.1079e-07
-6.90717e-06
1.77977e-06
-9.26552e-06
2.19691e-06
-7.98332e-06
1.2134e-05
-5.11693e-06
1.43136e-05
-6.84434e-06
2.91043e-06
-7.41503e-06
-3.41921e-07
-8.2259e-06
1.36971e-06
-9.60821e-06
3.74536e-06
-1.12345e-05
5.00538e-06
-1.27698e-05
4.98704e-06
-1.40172e-05
4.18762e-06
-1.49045e-05
3.10125e-06
-1.54313e-05
2.00536e-06
-1.56168e-05
9.89839e-07
-1.54705e-05
4.64328e-08
-1.50106e-05
-8.42803e-07
-1.42397e-05
-1.71181e-06
-1.31814e-05
-2.55549e-06
-1.18883e-05
-3.38285e-06
-1.04304e-05
-4.23751e-06
-8.96554e-06
-5.14809e-06
-7.76351e-06
-6.14693e-06
-7.31289e-06
-7.3578e-06
-7.83174e-06
-8.74665e-06
-8.37082e-06
-7.12276e-06
4.75047e-06
-5.87362e-06
2.01872e-05
-9.08453e-06
6.12134e-06
-1.07173e-05
1.29084e-06
-1.19612e-05
2.61363e-06
-1.3456e-05
5.24014e-06
-1.50306e-05
6.57997e-06
-1.64446e-05
6.40111e-06
-1.75482e-05
5.2912e-06
-1.82869e-05
3.83988e-06
-1.86594e-05
2.37791e-06
-1.86822e-05
1.01261e-06
-1.83859e-05
-2.49818e-07
-1.77931e-05
-1.43568e-06
-1.69571e-05
-2.54778e-06
-1.5921e-05
-3.59157e-06
-1.47281e-05
-4.57581e-06
-1.3455e-05
-5.51059e-06
-1.22159e-05
-6.38717e-06
-1.12238e-05
-7.13902e-06
-1.08967e-05
-7.68489e-06
-1.13555e-05
-8.28789e-06
-9.63342e-06
-8.81678e-06
-4.72889e-06
-7.64991e-06
2.78371e-05
-1.30704e-05
1.15418e-05
-1.55527e-05
3.77315e-06
-1.68578e-05
3.91871e-06
-1.84192e-05
6.80162e-06
-1.99719e-05
8.13264e-06
-2.12425e-05
7.67173e-06
-2.21409e-05
6.18955e-06
-2.26481e-05
4.34712e-06
-2.28075e-05
2.53731e-06
-2.26605e-05
8.65594e-07
-2.21993e-05
-7.10946e-07
-2.14015e-05
-2.23357e-06
-2.02419e-05
-3.70729e-06
-1.87705e-05
-5.06299e-06
-1.70707e-05
-6.27564e-06
-1.52468e-05
-7.33451e-06
-1.33812e-05
-8.25271e-06
-1.15206e-05
-8.99966e-06
-9.76728e-06
-9.43819e-06
-8.30281e-06
-9.75236e-06
-5.60066e-06
-1.15189e-05
-1.03296e-05
-6.72937e-06
3.45665e-05
-1.51732e-05
1.99856e-05
-1.9724e-05
8.32402e-06
-2.1678e-05
5.87268e-06
-2.36222e-05
8.74577e-06
-2.57931e-05
1.03036e-05
-2.7658e-05
9.53664e-06
-2.90128e-05
7.54436e-06
-2.97181e-05
5.05234e-06
-2.97539e-05
2.57309e-06
-2.91311e-05
2.42875e-07
-2.80677e-05
-1.77437e-06
-2.65956e-05
-3.70565e-06
-2.47106e-05
-5.59232e-06
-2.25201e-05
-7.25351e-06
-2.01268e-05
-8.66888e-06
-1.74729e-05
-9.98844e-06
-1.46034e-05
-1.11222e-05
-1.15736e-05
-1.20294e-05
-8.42043e-06
-1.25914e-05
-5.41343e-06
-1.27594e-05
-2.56627e-06
-1.43661e-05
-1.28958e-05
-1.13538e-06
3.57019e-05
-9.72047e-06
2.85707e-05
-1.82734e-05
1.6877e-05
-2.43922e-05
1.19914e-05
-2.84272e-05
1.27808e-05
-3.11358e-05
1.30122e-05
-3.28005e-05
1.12014e-05
-3.36295e-05
8.37334e-06
-3.37718e-05
5.19462e-06
-3.37284e-05
2.52967e-06
-3.39767e-05
4.9122e-07
-3.39948e-05
-1.75626e-06
-3.29786e-05
-4.72188e-06
-3.07896e-05
-7.78132e-06
-2.8098e-05
-9.94508e-06
-2.51531e-05
-1.16138e-05
-2.17116e-05
-1.343e-05
-1.78779e-05
-1.49559e-05
-1.38935e-05
-1.60138e-05
-9.67889e-06
-1.68059e-05
-5.08444e-06
-1.73538e-05
-1.08163e-06
-1.83689e-05
-1.39774e-05
5.60355e-06
1.96365e-05
3.6459e-06
1.99145e-05
-6.45566e-06
1.66458e-05
-1.77701e-05
1.47266e-05
-2.4995e-05
1.2765e-05
-2.99021e-05
1.1881e-05
-3.42579e-05
1.1047e-05
-3.73322e-05
1.14477e-05
-3.94623e-05
7.32468e-06
-4.07229e-05
3.79028e-06
-4.13774e-05
1.14566e-06
-4.14359e-05
-1.69773e-06
-4.04988e-05
-5.65885e-06
-3.87843e-05
-9.49546e-06
-3.64913e-05
-1.22376e-05
-3.36921e-05
-1.43699e-05
-3.04009e-05
-1.6463e-05
-2.66567e-05
-1.83885e-05
-2.24418e-05
-2.00896e-05
-1.80555e-05
-2.119e-05
-1.32501e-05
-2.21568e-05
-8.38828e-06
-2.32283e-05
-2.23642e-05
-0.000113395
2.90534e-05
-0.000130409
2.06239e-05
-0.000132723
5.92266e-06
-0.000112573
-3.42578e-06
-8.68976e-05
-1.84625e-05
-2.2586e-05
-6.27402e-05
3.92895e-05
-6.05629e-05
8.75888e-05
-4.70675e-05
0.00012871
-3.98892e-05
0.000164292
-3.43506e-05
0.000201358
-3.60093e-05
0.000225299
-2.35811e-05
0.000218082
-1.38467e-05
0.000207566
-5.77823e-06
0.00025415
-1.71401e-06
0.000259302
2.75354e-06
0.000247816
1.90508e-05
7.13288e-05
2.85823e-05
2.73547e-05
-2.82604e-05
1.03531e-05
-5.30825e-06
-6.37926e-07
-1.23033e-06
-3.26596e-07
-3.91092e-06
-1.22275e-06
2.29384e-07
-1.36191e-05
6.20581e-05
-4.98718e-05
9.5301e-05
-9.22344e-05
0.000118354
-6.88075e-05
0.000123523
-4.38271e-05
8.41241e-05
-6.04703e-07
4.49554e-05
-2.03136e-05
9.74196e-06
-2.73147e-05
8.89646e-06
-1.52236e-05
4.99173e-06
-3.51612e-06
2.48599e-06
-3.32747e-07
4.29834e-06
4.37567e-09
3.63367e-05
9.31603e-07
5.18741e-05
-5.79811e-06
1.26677e-05
1.07286e-06
1.8986e-06
2.84534e-08
2.31599e-07
3.90538e-08
-4.70726e-07
1.47737e-06
-2.79459e-06
1.98885e-05
-4.27954e-05
3.15509e-05
-4.44967e-05
5.65172e-05
-1.18059e-05
3.98604e-05
-1.82857e-06
1.30193e-06
8.14741e-07
-9.43477e-07
-4.59137e-08
3.15911e-06
-2.52804e-05
1.35325e-05
-4.64605e-05
1.08665e-05
-5.10495e-05
9.30714e-07
-5.92769e-06
6.51606e-07
-3.21304e-07
6.31928e-07
1.39878e-08
1.54904e-06
8.81398e-08
8.18859e-06
-2.05085e-06
1.31349e-06
1.18384e-06
5.57541e-07
1.14224e-06
5.45111e-08
1.80546e-06
-1.30882e-06
1.77977e-05
-2.66586e-05
3.77411e-05
-5.642e-05
1.05175e-05
-4.31241e-05
1.96563e-06
-3.49681e-06
2.96852e-08
7.30556e-09
-2.69356e-07
8.39667e-07
3.78005e-06
-9.41159e-06
1.53408e-05
-4.35199e-05
2.28364e-05
-5.29174e-05
2.43235e-05
-5.12543e-05
3.68322e-08
-1.67524e-05
1.10681e-07
-4.0522e-07
1.482e-07
3.77766e-08
1.75657e-07
9.05832e-08
7.22415e-07
3.76667e-07
1.23518e-06
2.54339e-07
2.649e-07
3.5805e-07
-2.36202e-07
1.62859e-05
-1.73167e-05
4.06329e-05
-4.70407e-05
4.56556e-05
-5.41936e-05
6.03211e-06
-2.7e-05
8.93555e-08
-3.33991e-07
3.4158e-08
5.9135e-08
7.09454e-07
1.20025e-07
1.66201e-05
-2.76238e-05
2.16458e-05
-4.71997e-05
2.07914e-05
-5.09047e-05
1.84829e-05
-4.79427e-05
1.96125e-08
-2.1412e-05
2.65193e-08
-3.8176e-07
6.49052e-08
2.92871e-08
7.30649e-08
9.44286e-08
3.24061e-07
1.17183e-06
6.18179e-06
1.88622e-07
5.04733e-08
8.98082e-06
-9.06671e-06
3.58493e-05
-3.94367e-05
4.48024e-05
-4.75368e-05
2.25232e-05
-2.4063e-05
2.75174e-07
-1.58851e-06
-4.48373e-08
-8.52727e-09
9.46249e-09
4.37401e-09
1.00876e-07
7.56095e-09
2.0285e-05
-1.966e-05
2.1209e-05
-4.64005e-05
1.91175e-05
-4.74674e-05
1.46883e-05
-4.22101e-05
1.86226e-07
-1.11927e-05
3.9724e-08
-2.4345e-07
5.63459e-08
2.40247e-08
9.81873e-08
8.62987e-08
7.59095e-07
1.55717e-06
1.49716e-05
2.2952e-08
1.7115e-09
3.11384e-05
-4.87807e-05
4.36555e-05
-4.56422e-05
2.19575e-05
-1.6862e-05
1.55681e-06
-5.77161e-07
8.25784e-09
-3.51886e-08
-3.91637e-11
-1.29046e-11
4.96071e-09
-1.69628e-10
4.34782e-07
-1.42136e-11
1.35939e-05
-7.25594e-07
2.38506e-05
-2.3462e-05
1.25901e-05
-3.44839e-05
4.11052e-06
-6.63803e-06
2.58437e-07
-5.9841e-07
3.87344e-08
-3.7933e-08
6.64271e-08
8.02561e-09
1.20233e-07
7.37326e-08
3.97458e-07
2.08189e-06
1.6145e-05
6.01943e-05
-4.95434e-05
4.88762e-05
-2.62863e-05
1.73126e-05
-3.08771e-06
6.0815e-07
-1.49799e-07
3.5078e-08
-3.55258e-09
1.06436e-11
-9.96026e-11
-1.40187e-12
1.35899e-12
4.10122e-10
1.60922e-11
3.13395e-09
-2.24822e-09
2.01074e-07
-9.21842e-07
3.40057e-06
-6.54269e-07
4.75739e-06
-6.42135e-07
3.92467e-07
-2.25282e-06
3.83545e-08
-2.58291e-07
1.81602e-08
-2.72373e-08
3.21465e-08
3.88922e-09
9.0635e-08
6.91731e-08
-2.58783e-07
3.55594e-06
1.66622e-05
5.18258e-08
9.70431e-07
-7.53192e-07
1.84452e-06
-4.26467e-06
3.24115e-06
-9.40965e-06
4.89495e-06
-1.49406e-05
5.04919e-06
-1.8707e-05
4.2179e-06
-2.06032e-05
3.08041e-06
-2.23443e-05
2.2166e-06
-2.42539e-05
1.48157e-06
-2.50084e-05
4.05636e-07
-2.42286e-05
-3.23519e-07
-2.29233e-05
-1.04615e-06
-2.03383e-05
-2.08838e-06
-1.69402e-05
-2.9985e-06
-1.30244e-05
-2.13575e-07
-9.0311e-06
-1.51703e-08
-6.14715e-06
-1.2105e-09
-4.04957e-06
-1.05864e-10
-1.87424e-06
-9.59777e-12
1.06378e-07
-2.87779e-06
1.03728e-06
-5.7942e-06
-7.37738e-07
-5.92858e-06
-6.93001e-06
-3.4119e-06
-3.07698e-07
-1.53626e-08
-7.30511e-07
-2.23643e-08
-1.83349e-06
-4.67993e-08
-3.37251e-06
-1.86072e-08
-4.92027e-06
2.47165e-08
-5.88418e-06
4.77053e-08
-6.18819e-06
4.50717e-08
-5.90648e-06
1.84582e-08
-5.08053e-06
-2.56277e-10
-3.62541e-06
-1.10867e-10
-1.95868e-06
-5.70403e-11
-4.71353e-07
-1.57032e-10
1.35657e-07
-2.01174e-10
2.29938e-07
-2.08596e-10
1.64819e-08
-1.19839e-10
1.32536e-09
-1.38015e-11
1.16155e-10
-1.28669e-12
1.04098e-11
-1.18659e-13
8.21802e-13
-9.5179e-15
1.68567e-07
-6.25056e-16
1.21519e-06
-4.98035e-16
2.72947e-06
-2.13247e-15
-1.54023e-14
5.36487e-06
-1.81343e-08
4.14553e-10
-4.46777e-08
1.63542e-10
-9.89417e-08
6.88114e-10
-1.29879e-07
2.66729e-09
-1.15254e-07
3.44365e-09
-6.71086e-08
-2.313e-09
-1.95142e-08
-2.59725e-09
1.85799e-10
-1.11624e-09
1.28729e-11
-7.71112e-11
1.64699e-11
-1.13642e-10
1.90993e-11
-6.20993e-11
2.25307e-11
-1.64113e-10
1.94222e-11
-2.00797e-10
1.23765e-11
-2.02935e-10
6.09974e-12
-1.13571e-10
8.20437e-13
-8.51141e-12
8.85025e-14
-5.5404e-13
8.0827e-15
-3.8116e-14
7.03583e-16
-2.04532e-15
2.98005e-16
-1.8453e-16
2.71795e-16
-1.33307e-16
5.0772e-16
-1.95062e-15
-1.62991e-14
2.12555e-15
1.31399e-10
7.20498e-11
4.97621e-11
4.18421e-12
4.24156e-10
3.25631e-11
2.65867e-09
1.04075e-10
5.88077e-09
4.00966e-11
3.73961e-09
-1.91178e-10
1.21368e-09
-5.50383e-11
1.06091e-10
-7.30427e-12
1.80416e-10
-1.12426e-12
2.30472e-10
-3.46953e-14
2.63462e-10
-8.79231e-14
2.94956e-10
-7.54365e-15
2.36543e-10
-6.22062e-16
1.77157e-10
-4.88429e-17
2.2506e-11
-3.15941e-18
5.94793e-13
6.96775e-20
4.08184e-14
1.81737e-19
2.77783e-15
2.26129e-19
5.91263e-16
2.16795e-19
2.377e-16
1.64047e-19
3.78297e-16
7.7302e-20
1.72519e-14
-2.74933e-15
-2.80061e-14
1.86737e-13
5.28617e-11
2.81192e-12
4.38799e-11
-1.42209e-13
6.91682e-11
1.68083e-13
1.70382e-10
1.80575e-13
2.20853e-10
-7.89894e-13
3.1528e-11
-8.23122e-13
8.53667e-12
-7.66966e-14
1.23791e-12
-5.77241e-15
1.14096e-13
-4.65576e-16
9.61404e-14
-3.7184e-17
8.21961e-15
-2.41633e-18
6.75817e-16
1.45302e-19
5.34148e-17
3.39719e-19
4.06378e-18
5.08085e-19
2.60116e-19
6.44256e-19
-1.54433e-19
7.26284e-19
-4.27177e-19
7.36592e-19
-5.79062e-19
6.7404e-19
-6.25013e-19
5.43777e-19
-5.22281e-19
3.49011e-19
-2.62512e-19
1.13694e-19
2.48748e-14
-3.7379e-19
-2.03516e-18
2.02585e-13
2.13364e-12
7.52791e-14
1.376e-12
1.01081e-14
1.41022e-12
-1.67301e-14
1.62234e-12
-2.70501e-15
8.60408e-13
-7.47471e-16
8.30815e-14
-3.48202e-17
6.28748e-15
-2.45587e-18
5.06285e-16
-1.29617e-19
4.06234e-17
8.5202e-20
3.15387e-18
2.85549e-19
2.02663e-19
5.3488e-19
-3.35777e-19
7.74917e-19
-7.47147e-19
9.68473e-19
-1.08342e-18
1.08451e-18
-1.37326e-18
1.10437e-18
-1.58569e-18
1.03185e-18
-1.67031e-18
8.85601e-19
-1.60943e-18
6.87011e-19
-1.37895e-18
4.56843e-19
-9.31375e-19
2.01785e-19
-3.14766e-19
-6.30675e-20
4.61941e-20
-7.34751e-19
-2.17145e-18
2.52937e-19
3.49139e-14
5.64234e-15
2.14326e-14
7.91059e-16
3.44727e-15
-2.01819e-16
7.58305e-16
-5.29369e-17
3.52387e-17
-1.643e-18
2.5356e-18
-2.1124e-20
1.59239e-19
3.00257e-21
9.69409e-21
2.04584e-20
-2.06376e-19
4.70488e-20
-6.7116e-19
8.01455e-20
-1.22743e-18
1.16443e-19
-1.72486e-18
1.51156e-19
-2.08198e-18
1.78201e-19
-2.26686e-18
1.9149e-19
-2.27963e-18
1.87186e-19
-2.13724e-18
1.65e-19
-1.86405e-18
1.27595e-19
-1.48648e-18
7.85567e-20
-1.02464e-18
2.15614e-20
-4.68831e-19
-6.20849e-20
5.6784e-19
-2.98503e-19
2.81766e-18
-7.95301e-19
-1.69493e-18
7.36635e-18
3.79326e-16
1.83015e-15
2.56119e-16
-1.42516e-16
5.40644e-17
-5.33503e-19
1.64789e-18
-1.49e-20
2.78156e-20
-5.91242e-22
7.39307e-21
-2.34699e-23
-5.32593e-21
1.30117e-21
-3.84865e-20
3.87114e-21
-9.25386e-20
7.55223e-21
-1.62375e-19
1.20433e-20
-2.38729e-19
1.67152e-20
-3.07804e-19
2.07262e-20
-3.55959e-19
2.31872e-20
-3.74563e-19
2.3351e-20
-3.61182e-19
2.08436e-20
-3.17493e-19
1.5454e-20
-2.47389e-19
6.53332e-21
-1.54782e-19
-4.10256e-21
-4.33971e-20
-3.54813e-20
2.43842e-19
-9.93318e-20
9.47476e-19
-2.82089e-19
2.21574e-18
-6.81071e-19
-1.59047e-18
4.49202e-18
4.87369e-17
7.34567e-16
9.86051e-19
2.63591e-17
8.32977e-21
-3.61243e-19
3.14388e-22
-9.75532e-21
3.1122e-23
-3.02611e-22
2.32893e-23
-1.55117e-23
-1.62259e-21
1.58895e-22
-5.51747e-21
4.49005e-22
-1.19768e-20
8.40041e-22
-2.0569e-20
1.27615e-21
-2.97555e-20
1.66402e-21
-3.74049e-20
1.89678e-21
-4.16708e-20
1.87831e-21
-4.15143e-20
1.49542e-21
-3.67391e-20
6.1443e-22
-2.71834e-20
-6.50164e-22
-1.15528e-20
-4.94367e-21
2.06147e-20
-1.70066e-20
1.02804e-19
-4.88111e-20
3.0121e-19
-1.28434e-19
7.45604e-19
-3.41025e-19
1.79368e-18
-8.93473e-19
-2.23718e-18
4.19192e-18
1.53222e-17
4.04253e-16
1.41623e-18
2.75839e-17
8.25072e-21
-1.12836e-19
2.66345e-22
-2.39936e-21
2.28023e-23
-6.3431e-23
1.03342e-23
-3.01882e-24
-1.50337e-22
1.23932e-23
-5.04378e-22
3.44706e-23
-1.08727e-21
6.09099e-23
-1.82891e-21
8.41322e-23
-2.53748e-21
9.4365e-23
-2.98098e-21
7.80138e-23
-2.98148e-21
2.53034e-23
-2.37595e-21
-7.42889e-23
-9.76197e-22
-5.00416e-22
2.50086e-21
-1.85275e-21
1.2765e-20
-5.8021e-21
4.17099e-20
-1.79331e-20
1.20083e-19
-5.34586e-20
3.36935e-19
-1.62267e-19
9.39643e-19
-4.76149e-19
2.51341e-18
-1.28941e-18
-3.19295e-18
6.24581e-18
1.14724e-17
2.53495e-16
3.41083e-19
5.09995e-18
2.05007e-21
-1.93499e-20
5.66772e-23
-4.8799e-22
3.75157e-24
-1.21391e-23
1.28297e-24
-5.46841e-25
-9.40128e-24
5.07715e-25
-3.16206e-23
1.4411e-24
-6.55227e-23
2.07974e-24
-1.01725e-22
1.68559e-24
-1.23001e-22
1.94466e-25
-1.06149e-22
-5.17695e-24
-3.52224e-23
-3.04994e-23
2.11844e-22
-1.21181e-22
1.15279e-21
-4.55518e-22
4.08443e-21
-1.49616e-21
1.26364e-20
-5.08748e-21
3.83203e-20
-1.75476e-20
1.22253e-19
-5.94012e-20
3.88446e-19
-1.94607e-19
1.13598e-18
-5.6883e-19
3.02954e-18
-1.52973e-18
-3.7079e-18
7.33913e-18
6.70583e-18
9.41656e-17
3.02869e-20
4.92373e-19
4.21043e-22
-3.67903e-21
1.09108e-23
-9.44217e-23
6.42228e-25
-2.24098e-24
1.89298e-25
-9.49895e-26
-3.22104e-25
-1.62232e-27
-1.11361e-24
-7.65228e-28
-1.89741e-24
-2.43411e-26
-1.73934e-24
-1.77357e-25
-2.17961e-25
-9.40757e-25
1.11022e-23
-4.29317e-24
6.03935e-23
-1.76584e-23
2.32858e-22
-7.13161e-23
7.13866e-22
-2.74834e-22
2.45468e-21
-1.06177e-21
9.22867e-21
-4.27028e-21
3.50353e-20
-1.71733e-20
1.25457e-19
-6.28904e-20
4.08292e-19
-2.05986e-19
1.18256e-18
-5.98551e-19
3.14103e-18
-1.61562e-18
-3.89532e-18
7.52929e-18
1.73442e-18
1.07689e-17
3.85582e-21
3.3985e-20
8.89329e-23
-4.57477e-22
2.16041e-24
-1.13864e-23
8.78393e-26
-2.59495e-25
1.10731e-27
-8.85095e-27
2.46075e-28
-7.54489e-28
7.33899e-28
-2.73532e-27
3.494e-26
-1.16517e-26
2.69027e-25
-5.14242e-26
1.44999e-24
-2.9277e-25
5.11003e-24
-1.70095e-24
2.16248e-23
-8.8125e-24
9.27149e-23
-3.91031e-23
3.863e-22
-1.6264e-22
1.64056e-21
-7.12834e-22
7.22266e-21
-3.2974e-21
3.12065e-20
-1.46236e-20
1.19511e-19
-5.64673e-20
3.88229e-19
-1.80302e-19
1.11221e-18
-5.25081e-19
3.05643e-18
-1.60341e-18
-3.80126e-18
7.32743e-18
1.79766e-19
5.16228e-19
4.82034e-22
9.8281e-22
1.11216e-23
-4.01758e-23
2.57948e-25
-9.62924e-25
8.96197e-27
-2.10272e-26
2.29122e-28
-5.3786e-28
2.19327e-28
-4.88845e-29
2.53594e-27
-2.75232e-28
7.66989e-27
-2.29719e-27
4.20115e-26
-1.70691e-26
2.77322e-25
-1.17154e-25
1.80305e-24
-7.40653e-25
1.00653e-23
-4.07977e-24
4.66266e-23
-1.88019e-23
2.06116e-22
-8.53899e-23
9.84252e-22
-4.29123e-22
4.86257e-21
-2.16977e-21
2.19348e-20
-9.5398e-21
8.34552e-20
-3.48525e-20
2.71062e-19
-1.1877e-19
8.82892e-19
-4.49904e-19
2.83121e-18
-1.63547e-18
-4.02111e-18
7.15499e-18
1.2473e-20
2.66029e-20
4.28005e-23
-1.51242e-23
9.46096e-25
-3.06423e-24
2.08779e-26
-7.02219e-26
5.52794e-28
-1.46247e-27
1.31348e-29
-3.15367e-29
1.22665e-29
-1.05138e-29
1.53372e-28
-8.25133e-29
1.57034e-27
-7.02591e-28
1.35861e-26
-5.44824e-27
1.03768e-25
-4.05209e-26
7.03399e-25
-2.80626e-25
4.05396e-24
-1.67092e-24
1.95442e-23
-8.07665e-24
9.63949e-23
-4.08911e-23
5.25685e-22
-2.27987e-22
2.7406e-21
-1.16859e-21
1.19171e-20
-4.92785e-21
4.45012e-20
-1.90039e-20
1.76388e-19
-8.9935e-20
7.76583e-19
-4.52931e-19
2.7554e-18
-1.70568e-18
-4.50482e-18
7.39074e-18
8.57402e-22
1.54377e-21
3.2736e-24
-5.70229e-24
6.87104e-26
-2.25871e-25
1.44307e-27
-4.92527e-27
3.4061e-29
-9.75175e-29
1.65595e-30
-1.98786e-30
3.2777e-30
-1.90379e-30
4.48483e-29
-1.93042e-29
4.39632e-28
-1.80218e-28
3.814e-27
-1.56048e-27
3.12903e-26
-1.28163e-26
2.34189e-25
-9.67133e-26
1.46977e-24
-6.20103e-25
7.51367e-24
-3.17512e-24
4.15839e-23
-1.8036e-23
2.44854e-22
-1.03966e-22
1.26191e-21
-5.10553e-22
5.44496e-21
-2.27411e-21
2.35368e-20
-1.11126e-20
1.37119e-19
-7.8774e-20
7.447e-19
-4.61658e-19
2.69526e-18
-1.68951e-18
-4.67289e-18
7.71418e-18
5.70965e-23
8.10961e-23
2.41022e-25
-6.08501e-25
4.83846e-27
-1.49958e-26
9.6566e-29
-3.11653e-28
2.23077e-30
-5.89349e-30
2.16835e-31
-1.18583e-31
5.89035e-31
-3.70331e-31
9.4493e-30
-4.40498e-30
1.01044e-28
-4.39966e-29
9.8264e-28
-4.15442e-28
8.88844e-27
-3.72553e-27
7.22927e-26
-3.05031e-26
4.8851e-25
-2.10919e-25
2.66963e-24
-1.16722e-24
1.64886e-23
-7.32129e-24
9.71803e-23
-3.99955e-23
4.86071e-22
-1.93549e-22
2.38182e-21
-1.08914e-21
1.35979e-20
-6.9315e-21
1.1432e-19
-6.51614e-20
6.82421e-19
-3.7143e-19
2.25911e-18
-1.22227e-18
-4.142e-18
7.3328e-18
3.51864e-24
3.61888e-24
1.60808e-26
-4.57615e-26
3.07657e-28
-8.8241e-28
5.84358e-30
-1.76004e-29
1.27724e-31
-3.25099e-31
1.97212e-32
-9.87515e-33
1.29593e-31
-7.22363e-32
2.00327e-30
-9.22309e-31
2.25906e-29
-9.97929e-30
2.37639e-28
-1.03016e-28
2.3368e-27
-1.00715e-27
2.05958e-26
-8.91424e-27
1.50494e-25
-6.65398e-26
8.9521e-25
-4.06e-25
5.98962e-24
-2.70949e-24
3.28452e-23
-1.32675e-23
1.71044e-22
-7.29631e-23
1.11062e-21
-5.5813e-22
7.99399e-21
-4.06055e-21
8.07657e-20
-3.80423e-20
4.27532e-19
-2.09851e-19
1.46213e-18
-8.36066e-19
-3.26141e-18
5.70619e-18
1.9456e-25
1.33609e-25
9.60132e-28
-2.64043e-27
1.74992e-29
-4.41357e-29
3.15905e-31
-8.51057e-31
2.21629e-33
-1.5316e-32
1.53622e-33
-1.12594e-33
2.59742e-32
-1.34305e-32
3.89404e-31
-1.82969e-31
4.72282e-30
-2.15001e-30
5.40054e-29
-2.40926e-29
5.76758e-28
-2.55225e-28
5.48602e-27
-2.43181e-27
4.34098e-26
-1.96332e-26
2.85207e-25
-1.33554e-25
1.97706e-24
-9.10912e-25
9.83089e-24
-4.07536e-24
6.21907e-23
-2.97983e-23
5.34631e-22
-2.68349e-22
4.1789e-21
-2.02679e-21
4.03074e-20
-1.92479e-20
2.43093e-19
-1.48945e-19
1.04581e-18
-7.48461e-19
-2.56235e-18
4.10861e-18
9.21766e-27
3.87777e-27
4.92045e-29
-1.15163e-28
8.55428e-31
-1.76264e-30
1.58259e-32
-3.29891e-32
1.94152e-34
-5.71218e-34
1.74464e-34
-1.54473e-34
4.65823e-33
-2.36346e-33
7.22952e-32
-3.45698e-32
9.4478e-31
-4.41771e-31
1.16522e-29
-5.33985e-30
1.34273e-28
-6.09037e-29
1.37267e-27
-6.22791e-28
1.17822e-26
-5.45129e-27
8.59261e-26
-4.11675e-26
5.96103e-25
-2.8171e-25
2.79323e-24
-1.24031e-24
2.43297e-23
-1.24865e-23
2.29311e-22
-1.05248e-22
1.87984e-21
-9.28458e-22
2.05833e-20
-1.23424e-20
1.84257e-19
-1.39219e-19
8.89465e-19
-7.27601e-19
-1.9116e-18
2.77563e-18
3.5279e-28
8.16099e-29
2.03801e-30
-3.59736e-30
3.35134e-32
-5.20295e-32
5.96431e-34
-9.41323e-34
1.43756e-35
-1.5736e-35
3.11683e-35
-2.12004e-35
7.81963e-34
-3.96512e-34
1.28187e-32
-6.26218e-33
1.80826e-31
-8.68495e-32
2.39129e-30
-1.12514e-30
2.95466e-29
-1.37232e-29
3.23693e-28
-1.50335e-28
3.0166e-27
-1.4285e-27
2.42181e-26
-1.17769e-26
1.67596e-25
-8.21368e-26
7.94763e-25
-3.80348e-25
9.34928e-24
-4.72066e-24
7.91288e-23
-3.3622e-23
8.21971e-22
-4.50818e-22
1.34692e-20
-9.40465e-21
1.63888e-19
-1.3311e-19
7.317e-19
-6.02908e-19
-8.08776e-19
1.40893e-18
1.01641e-29
1.08888e-30
6.38563e-32
-7.29483e-32
9.71179e-34
-1.01674e-33
1.72296e-35
-1.74993e-35
1.49447e-36
-3.27001e-37
4.42682e-36
-3.05479e-36
1.24761e-34
-6.35822e-35
2.18027e-33
-1.08678e-33
3.31427e-32
-1.63077e-32
4.67157e-31
-2.25429e-31
6.14839e-30
-2.92312e-30
7.20561e-29
-3.42722e-29
7.28559e-28
-3.53079e-28
6.33465e-27
-3.12523e-27
4.49298e-26
-2.28829e-26
2.27111e-25
-1.14776e-25
3.12165e-24
-1.48761e-24
2.26058e-23
-9.40908e-24
3.89299e-22
-2.38773e-22
9.8811e-21
-7.49482e-21
1.33256e-19
-9.81024e-20
3.08469e-19
-1.80122e-19
1.79324e-19
3.17658e-19
1.98941e-31
6.77147e-33
1.3777e-33
-7.60451e-34
1.78986e-35
-1.16213e-35
1.91938e-37
-1.78469e-37
3.73909e-38
-1.53107e-38
7.91397e-37
-4.37123e-37
1.89187e-35
-9.71798e-36
3.54608e-34
-1.79957e-34
5.79518e-33
-2.91277e-33
8.67321e-32
-4.28687e-32
1.20919e-30
-5.88449e-31
1.51428e-29
-7.37533e-30
1.65649e-28
-8.21018e-29
1.53938e-27
-7.75362e-28
1.15385e-26
-6.04774e-27
6.31891e-26
-3.30916e-26
8.62828e-25
-3.93423e-25
5.7091e-24
-2.38148e-24
1.97084e-22
-1.30881e-22
7.1559e-21
-6.04637e-21
4.41171e-20
-2.50241e-20
5.07208e-20
7.19167e-20
4.86191e-19
-1.17769e-19
2.09847e-33
3.40108e-36
1.91549e-35
-7.80132e-37
1.80118e-37
-8.90591e-39
1.4033e-39
-1.59414e-40
2.60297e-39
-1.77974e-39
1.11037e-37
-5.94663e-38
2.71967e-36
-1.40985e-36
5.48465e-35
-2.82462e-35
9.61555e-34
-4.92108e-34
1.52558e-32
-7.70923e-33
2.24424e-31
-1.11757e-31
2.99884e-30
-1.49429e-30
3.53571e-29
-1.79176e-29
3.49855e-28
-1.80749e-28
2.80177e-27
-1.4952e-27
1.66715e-26
-9.12194e-27
2.01366e-25
-9.02093e-26
1.29296e-24
-5.28509e-25
1.00848e-22
-7.32295e-23
3.87578e-21
-3.85985e-21
5.77736e-21
1.12116e-20
-4.13258e-20
1.41801e-19
5.79559e-19
-2.91583e-19
2.89462e-36
-7.5835e-41
4.67115e-38
-5.53884e-41
9.10929e-41
-6.00003e-43
1.5005e-41
-2.57124e-42
3.72562e-40
-2.21323e-40
1.42826e-38
-7.582e-39
3.69001e-37
-1.92832e-37
8.00622e-36
-4.17116e-36
1.50415e-34
-7.81417e-35
2.53088e-33
-1.30448e-33
3.92051e-32
-1.99568e-32
5.57737e-31
-2.83961e-31
7.06706e-30
-3.66136e-30
7.45478e-29
-3.94958e-29
6.34753e-28
-3.42302e-28
4.22516e-27
-2.59113e-27
3.99729e-26
-1.67771e-26
2.379e-25
-5.28418e-26
5.14968e-23
-4.21507e-23
1.28256e-21
-5.91164e-22
-5.61289e-21
2.11347e-20
-7.37961e-20
1.57445e-19
5.13645e-19
-3.14124e-19
4.65453e-41
-3.97013e-42
6.22133e-43
-1.49772e-42
5.18714e-44
-1.48369e-44
5.26255e-43
-3.71359e-43
4.54648e-41
-2.55221e-41
1.70131e-39
-9.00682e-40
4.69034e-38
-2.46674e-38
1.09417e-36
-5.75012e-37
2.20295e-35
-1.15829e-35
3.9377e-34
-2.06433e-34
6.42066e-33
-3.33496e-33
9.70015e-32
-5.03961e-32
1.3189e-30
-6.97932e-31
1.48326e-29
-8.04839e-30
1.33538e-28
-7.22661e-29
1.1001e-27
-9.13825e-28
3.47647e-27
1.44901e-27
1.07551e-27
7.65893e-26
2.35233e-23
-1.90721e-23
9.25516e-23
2.9986e-22
-9.51474e-21
2.34148e-20
-7.34027e-20
1.36829e-19
3.74478e-19
-2.48467e-19
1.13377e-42
-1.25989e-43
1.44099e-44
-3.38753e-44
1.19118e-45
-6.03486e-46
6.39461e-44
-4.09185e-44
4.8751e-42
-2.68457e-42
1.87179e-40
-9.89474e-41
5.53853e-39
-2.9258e-39
1.38859e-37
-7.34176e-38
2.99886e-36
-1.59134e-36
5.70792e-35
-3.03398e-35
9.80549e-34
-5.18433e-34
1.57013e-32
-8.31226e-33
2.28792e-31
-1.23442e-31
2.74043e-30
-1.52155e-30
2.5992e-29
-1.42046e-29
2.09123e-28
-2.84151e-28
-5.12952e-28
5.16559e-27
-2.80299e-26
1.37998e-25
4.22226e-24
3.59457e-24
-1.16618e-22
5.02832e-22
-9.37736e-21
2.02668e-20
-5.63892e-20
1.00854e-19
2.31075e-19
-1.59185e-19
2.28035e-44
-3.02939e-45
2.5659e-46
-6.47139e-46
4.51795e-47
-3.57359e-47
6.52897e-45
-4.01117e-45
4.71513e-43
-2.55708e-43
1.8877e-41
-9.96808e-42
6.02216e-40
-3.18844e-40
1.62304e-38
-8.61231e-39
3.76558e-37
-2.01095e-37
7.65107e-36
-4.10919e-36
1.38735e-34
-7.44459e-35
2.35245e-33
-1.26644e-33
3.66719e-32
-2.01336e-32
4.67907e-31
-2.65147e-31
4.65546e-30
-2.66192e-30
5.54818e-29
-5.58578e-29
-1.64668e-27
7.0808e-27
-4.52702e-26
1.70404e-25
-1.2101e-24
1.04406e-23
-1.73153e-22
5.44052e-22
-7.1303e-21
1.48895e-20
-3.61606e-20
6.5044e-20
1.20732e-19
-8.46047e-20
3.89277e-46
-6.00214e-47
5.70762e-48
-1.05933e-47
2.35665e-48
-2.53347e-48
5.81145e-46
-3.45613e-46
4.08464e-44
-2.18845e-44
1.73057e-42
-9.12075e-43
5.97368e-41
-3.16144e-41
1.73252e-39
-9.20179e-40
4.3259e-38
-2.3176e-38
9.40445e-37
-5.08373e-37
1.80472e-35
-9.79294e-36
3.2406e-34
-1.76887e-34
5.39511e-33
-3.00744e-33
7.3447e-32
-4.22534e-32
7.91317e-31
-5.27856e-31
8.83995e-30
5.77927e-31
-2.02135e-27
7.07864e-27
-4.97832e-26
1.70966e-25
-3.10826e-24
1.31531e-23
-1.64218e-22
4.68662e-22
-4.53963e-21
9.57145e-21
-1.99264e-20
3.71724e-20
5.27147e-20
-3.71071e-20
5.78273e-48
-1.02138e-48
1.82267e-49
-1.53354e-49
1.47686e-49
-1.57978e-49
4.48682e-47
-2.58984e-47
3.14637e-45
-1.66768e-45
1.42867e-43
-7.49648e-44
5.35224e-42
-2.82152e-42
1.6736e-40
-8.86695e-41
4.50541e-39
-2.41201e-39
1.05005e-37
-5.6867e-38
2.13918e-36
-1.16827e-36
4.07101e-35
-2.24397e-35
7.23185e-34
-4.07984e-34
1.05514e-32
-6.12651e-33
7.8429e-32
-1.05975e-31
-1.43664e-31
5.73214e-30
-1.80017e-27
5.80633e-27
-4.42215e-26
1.46381e-25
-3.43838e-24
1.20717e-23
-1.22898e-22
3.39264e-22
-2.49732e-21
5.44965e-21
-9.5572e-21
1.88594e-20
1.90541e-20
-1.32088e-20
7.59428e-50
-1.51873e-50
7.5499e-51
-2.09932e-51
8.71747e-51
-9.61931e-51
2.98064e-48
-1.66969e-48
2.13678e-46
-1.11877e-46
1.05047e-44
-5.46245e-45
4.28364e-43
-2.23842e-43
1.44783e-41
-7.61458e-42
4.20927e-40
-2.23983e-40
1.05344e-38
-5.68183e-39
2.28572e-37
-1.24851e-37
4.61801e-36
-2.5564e-36
8.75551e-35
-4.97247e-35
1.37483e-33
-8.24165e-34
1.35915e-32
-1.20595e-32
-1.26975e-30
7.26636e-30
-1.30951e-27
4.06507e-27
-3.337e-26
1.09087e-25
-2.75756e-24
8.97594e-24
-7.68603e-23
2.10822e-22
-1.20764e-21
2.75846e-21
-4.02142e-21
8.41471e-21
5.98299e-21
-3.805e-21
8.86669e-52
-1.96752e-52
8.61238e-53
-2.60252e-53
7.61745e-52
-5.44873e-52
1.68584e-49
-9.14249e-50
1.26536e-47
-6.50921e-48
6.78826e-46
-3.47216e-46
3.02274e-44
-1.55451e-44
1.10751e-42
-5.73987e-43
3.48254e-41
-1.82795e-41
9.37191e-40
-4.99447e-40
2.17273e-38
-1.17713e-38
4.67314e-37
-2.5787e-37
9.4741e-36
-5.37208e-36
1.63e-34
-1.14578e-34
1.14683e-33
1.80382e-33
-1.42794e-30
6.28878e-30
-8.10007e-28
2.4684e-27
-2.1854e-26
7.117e-26
-1.78877e-24
5.58543e-24
-4.12556e-23
1.1325e-22
-5.20167e-22
1.23873e-21
-1.49275e-21
3.20364e-21
2.07609e-21
-9.54808e-22
9.12071e-54
-2.16953e-54
8.82823e-55
-2.9694e-55
4.02141e-53
-2.56206e-53
8.01642e-51
-4.1772e-51
6.43606e-49
-3.21803e-49
3.79109e-47
-1.88561e-47
1.85022e-45
-9.26362e-46
7.36996e-44
-3.72222e-44
2.51011e-42
-1.28537e-42
7.27341e-41
-3.78773e-41
1.80728e-39
-9.60286e-40
4.15463e-38
-2.2622e-38
9.0516e-37
-5.0841e-37
1.1062e-35
-1.21467e-35
-3.07076e-34
3.27155e-33
-1.09107e-30
4.27565e-30
-4.33015e-28
1.30461e-27
-1.25076e-26
4.05934e-26
-9.72129e-25
2.94449e-24
-1.92429e-23
5.25439e-23
-2.01253e-22
4.89994e-22
-4.83734e-22
9.48671e-22
1.20747e-21
-2.76455e-22
8.04511e-56
-1.94308e-56
8.28058e-57
-3.36072e-57
1.63072e-54
-9.51977e-55
3.14798e-52
-1.55037e-52
2.75262e-50
-1.31296e-50
1.7899e-48
-8.50532e-49
9.61526e-47
-4.60884e-47
4.17435e-45
-2.01962e-45
1.54249e-43
-7.57978e-44
4.82024e-42
-2.41384e-42
1.28787e-40
-6.60726e-41
3.18231e-39
-1.68587e-39
7.48619e-38
-4.34484e-38
9.75322e-37
1.33944e-37
-4.89226e-34
2.87882e-33
-6.5085e-31
2.38325e-30
-2.00547e-28
5.97436e-28
-6.24368e-27
2.01047e-26
-4.48176e-25
1.31666e-24
-7.80649e-24
2.09162e-23
-6.97396e-23
1.68715e-22
-1.26039e-22
1.34564e-22
1.16831e-21
-1.43452e-22
5.79287e-58
-1.30845e-58
7.67862e-59
-4.29408e-59
5.11137e-56
-2.66367e-56
9.92466e-54
-4.47708e-54
9.59736e-52
-4.23084e-52
6.93075e-50
-3.05888e-50
4.11789e-48
-1.83886e-48
1.9524e-46
-8.8061e-47
7.84587e-45
-3.60525e-45
2.6501e-43
-1.24499e-43
7.64464e-42
-3.70191e-42
2.04815e-40
-1.03431e-40
3.01865e-39
-3.29154e-39
-1.69931e-38
6.75539e-37
-3.74352e-34
1.81303e-33
-3.15413e-31
1.09909e-30
-7.98593e-29
2.34516e-28
-2.69129e-27
8.54188e-27
-1.74818e-25
4.95735e-25
-2.72311e-24
7.06025e-24
-2.12374e-23
4.97498e-23
-1.60847e-23
-7.64132e-23
1.22998e-21
-1.29421e-22
3.14352e-60
-5.80873e-61
7.98988e-61
-5.80534e-61
1.1895e-57
-5.20494e-58
2.39919e-55
-9.32991e-56
2.60231e-53
-1.00209e-53
2.10559e-51
-8.21891e-52
1.39097e-49
-5.51716e-50
7.21608e-48
-2.89701e-48
3.16541e-46
-1.30167e-46
1.15982e-44
-4.90574e-45
3.63585e-43
-1.60394e-43
1.06894e-41
-5.03131e-42
1.91935e-40
-1.28584e-40
-7.34305e-38
5.95852e-37
-2.02039e-34
8.73721e-34
-1.24713e-31
4.16704e-31
-2.69041e-29
7.75335e-29
-9.83345e-28
3.05625e-27
-5.68127e-26
1.54833e-25
-7.98418e-25
1.9863e-24
-5.49979e-24
1.2302e-23
8.17714e-24
-7.96174e-23
1.09185e-21
-1.26314e-22
1.12223e-62
-1.13852e-63
8.67978e-63
-6.22676e-63
1.89989e-59
-6.08734e-60
4.10298e-57
-1.20481e-57
5.07915e-55
-1.52387e-55
4.67641e-53
-1.46264e-53
3.4552e-51
-1.10662e-51
1.96745e-49
-6.42632e-50
9.47787e-48
-3.20319e-48
3.79219e-46
-1.33719e-46
1.30837e-44
-4.94254e-45
4.27799e-43
-1.94052e-43
4.99779e-42
2.86686e-41
-5.43036e-38
3.19359e-37
-8.16643e-35
3.24826e-34