/*--------------------------------*- C++ -*----------------------------------*\
| =========                 |                                                 |
| \\      /  F ield         | OpenFOAM: The Open Source CFD Toolbox           |
|  \\    /   O peration     | Version:  2206                                  |
|   \\  /    A nd           | Website:  www.openfoam.com                      |
|    \\/     M anipulation  |                                                 |
\*---------------------------------------------------------------------------*/
FoamFile
{
    version     2.0;
    format      ascii;
    arch        "LSB;label=32;scalar=64";
    class       volScalarField;
    location    "0.575";
    object      alpha.water;
}
// * * * * * * * * * * * * * * * * * * * * * * * * * * * * * * * * * * * * * //

dimensions      [0 0 0 0 0 0 0];

internalField   nonuniform List<scalar> 
2268
(
1
1
1
1
1
1
1
1
1
1
1
1
1
1
1
1
1
1
1
0.999998
0.999998
0.997132
0.885573
1
1
1
1
1
1
1
1
1
1
1
1
1
1
1
1
1
1
1
0.999987
0.999955
0.998232
0.88398
1
1
1
1
1
1
1
1
1
1
1
1
1
1
1
1
1
1
1
1
1
0.987341
0.905256
1
1
1
1
1
1
1
1
1
1
1
1
1
1
1
1
1
1
1
1
1
0.999018
0.994919
1
1
1
1
1
1
1
1
1
1
1
1
1
1
1
1
1
1
1
1
1
1
1
1
1
1
1
1
1
1
1
1
1
1
1
1
1
1
1
1
1
1
1
1
1
1
1
1
1
1
1
1
1
1
1
1
1
1
1
1
1
1
1
1
1
1
1
1
1
0.951415
0.944744
0.91129
0.90378
0.919027
0.952416
0.983361
1
1
1
1
1
0.999998
0.999995
0.999991
0.999959
0.999781
0.999699
0.999884
0.999974
0.999974
0.999975
0.999986
0.281801
0.425046
0.425922
0.386882
0.445703
0.464894
0.465306
0.465354
0.465354
0.465354
0.465267
0.463288
0.444954
0.340923
0.322985
0.372933
0.371662
0.287025
0.0553469
0.163959
0.0289417
0.00464561
0.00278505
0.0439241
0.339858
0.464894
0.465306
0.465354
0.450774
0.32973
0.0856142
0.00434325
0.0025367
0.00169889
0.0024951
0.0139366
0.0999747
0.0705205
0.0463272
0.00112446
0.00129617
0.00129617
0.0359436
0.0645175
0.138069
0.228181
0.128921
0.00647874
0.00756006
0.0421361
0.039927
0.00770199
0.000722096
0.000438495
0.000231167
0.0143977
0.0389478
0.000970078
0.000980481
0.00112446
0.0265982
0.194793
0.0892419
0.000833901
0.000355543
0.00026808
0.00640082
0.0648273
0.106392
0.106199
0.0329437
0.000438496
0.000245339
0.000158361
0.00294481
0.012543
0.000224786
0.000806629
0.00115961
0.191501
0.195065
0.13578
0.00200328
5.39119e-05
6.60464e-05
0.0703734
0.10628
0.106349
0.106405
0.0468163
0.0002656
0.000158362
0.000134601
0.00166447
0.00259879
0.000151652
0.000224786
0.187823
0.201714
0.192518
0.025642
1.13092e-05
4.95842e-06
3.44374e-05
0.0829019
0.105409
0.10628
0.106192
0.0398908
0.000184675
0.000118235
0.000115101
0.00158884
0.00747876
0.000151942
0.191711
0.220699
0.19703
0.00401877
1.11902e-05
1.8323e-07
7.51013e-07
1.62788e-06
0.0125778
0.0888295
0.105409
0.0667161
0.00773282
9.38805e-05
8.56962e-05
9.80719e-05
0.00148492
0.0113759
0.594463
0.555631
0.208695
5.28765e-05
1.97618e-06
6.41444e-08
3.03383e-08
5.00543e-07
8.08814e-07
1.62788e-06
0.00673036
0.011189
0.000197877
9.38693e-05
8.56917e-05
8.25966e-05
8.56962e-05
0.00162431
0.0113759
0.389488
0.424977
0.463445
0.52694
0.565486
0.579837
0.574781
0.585648
0.652166
0.713165
0.748813
0.75292
0.719665
0.679272
0.64531
0.618929
0.596005
0.590619
0.612766
0.645104
0.674295
0.717356
0.790592
0.00423973
0.00903547
0.0259734
0.0530994
0.0684011
0.0727977
0.073916
0.0761514
0.0769159
0.0678954
0.053625
0.0365505
0.0171445
0.00175392
5.60174e-08
7.33119e-09
7.80912e-10
7.76967e-11
9.01693e-12
3.17819e-12
0.00806408
0.0235461
0.0581971
4.80554e-05
3.18214e-05
4.14584e-05
7.66011e-05
8.59811e-05
5.00107e-05
1.10386e-05
3.24747e-07
3.8133e-07
3.43888e-07
3.1435e-07
2.43638e-07
1.50258e-07
5.60158e-08
7.33056e-09
7.80912e-10
7.04024e-11
7.29425e-12
1.72268e-12
2.25701e-12
2.47528e-12
2.88993e-12
3.89267e-12
4.04982e-06
1.92993e-06
1.59094e-06
2.19979e-06
2.09671e-06
7.00341e-07
8.38884e-08
6.94861e-09
2.1623e-06
2.48617e-06
9.28896e-07
2.84877e-06
3.14667e-06
3.12851e-06
2.05586e-06
2.34629e-08
-7.41646e-14
-1.58984e-13
2.33148e-13
7.74826e-13
2.0109e-12
5.71399e-11
6.69754e-10
2.92896e-07
9.89954e-08
4.24209e-08
8.2945e-09
-2.06159e-08
-2.36173e-09
6.70616e-09
1.98087e-13
2.62859e-13
1.08489e-09
1.32709e-15
0
-8.51009e-29
0
0
-2.03223e-15
-5.50721e-15
-7.20436e-15
-7.37337e-15
-5.78765e-15
-2.72696e-15
8.99106e-11
9.54192e-10
1.93442e-08
4.11674e-09
7.35542e-10
-7.02388e-11
-2.66461e-10
-1.27636e-10
-2.17138e-13
-2.29963e-14
-1.01079e-22
-3.25497e-29
-8.17674e-29
-4.45586e-15
-1.00335e-14
-1.46298e-14
-1.84261e-14
-2.08616e-14
-2.13045e-14
-1.97102e-14
-1.60918e-14
-1.03201e-14
-3.30775e-15
4.14173e-32
2.05986e-16
1.40035e-09
1.42664e-10
5.61436e-12
-2.72124e-15
-4.11939e-14
-6.08042e-15
-1.30767e-16
-4.3968e-18
-3.02466e-15
-9.67404e-15
-1.7547e-14
-2.45154e-14
-2.93767e-14
-3.16e-14
-3.11646e-14
-2.84284e-14
-2.39569e-14
-1.83447e-14
-1.20761e-14
-5.25837e-15
1.12605e-15
1.73909e-14
4.91836e-14
1.21254e-10
7.00849e-12
1.44535e-14
-1.8045e-15
-7.21701e-17
-1.23737e-18
-1.01187e-16
-6.71439e-16
-1.53688e-15
-2.61371e-15
-3.74946e-15
-4.72113e-15
-5.32243e-15
-5.44252e-15
-5.07985e-15
-4.3049e-15
-3.22253e-15
-1.93146e-15
-5.17694e-16
1.30721e-15
6.6871e-15
1.66317e-14
3.3225e-14
7.73038e-12
3.44534e-13
9.3045e-15
7.09055e-17
2.35987e-18
-8.91177e-22
-3.53445e-17
-1.10119e-16
-2.254e-16
-3.69704e-16
-5.12706e-16
-6.17886e-16
-6.59418e-16
-6.28959e-16
-5.32702e-16
-3.7712e-16
-1.53322e-16
7.78156e-17
7.52479e-16
2.36175e-15
5.79049e-15
1.35117e-14
3.03941e-14
7.47226e-12
1.76676e-12
2.80241e-14
2.00137e-17
2.48897e-19
-6.75035e-22
-3.70877e-18
-1.14103e-17
-2.29916e-17
-3.63823e-17
-4.7541e-17
-5.26231e-17
-4.96652e-17
-3.74436e-17
-1.45977e-17
1.30607e-17
1.03869e-16
3.53738e-16
1.00034e-15
2.70486e-15
7.27349e-15
1.89869e-14
4.61872e-14
6.20422e-12
6.67013e-13
2.06097e-15
1.32078e-18
3.16704e-20
-3.43359e-23
-2.59495e-19
-8.01289e-19
-1.53723e-18
-2.21078e-18
-2.47632e-18
-1.98419e-18
-6.1411e-19
1.59052e-18
1.07075e-17
3.86272e-17
1.16534e-16
3.35964e-16
1.01531e-15
3.11407e-15
8.92335e-15
2.34864e-14
5.61198e-14
3.19906e-12
1.22382e-13
7.53136e-17
2.06123e-19
4.87124e-21
-2.50158e-23
-9.82497e-21
-3.11575e-20
-4.86094e-20
-4.06711e-20
-4.6562e-21
1.15543e-19
6.61711e-19
2.54964e-18
7.45538e-18
2.36611e-17
8.31634e-17
3.01384e-16
1.04638e-15
3.34142e-15
9.53047e-15
2.49805e-14
5.90692e-14
7.1785e-13
1.66837e-14
4.15426e-18
3.195e-20
7.63342e-22
6.69087e-24
3.22214e-25
1.45408e-23
5.15532e-22
3.83898e-21
2.01663e-20
6.61276e-20
2.51738e-19
1.00184e-18
3.91796e-18
1.56163e-17
6.49448e-17
2.70185e-16
1.0181e-15
3.2785e-15
9.17325e-15
2.48558e-14
5.80696e-14
5.74606e-14
1.40317e-15
4.33754e-19
3.21075e-21
7.82641e-23
2.99309e-24
6.49135e-24
5.20687e-23
1.42431e-22
6.40383e-22
3.71192e-21
2.21414e-20
1.1688e-19
5.14546e-19
2.12872e-18
9.46813e-18
4.43702e-17
1.94527e-16
7.3066e-16
2.31105e-15
7.1855e-15
2.31239e-14
5.43908e-14
2.82745e-15
9.4305e-17
4.01306e-20
2.4143e-22
5.8343e-24
2.41599e-25
3.76569e-25
2.91774e-24
2.61873e-23
2.04297e-22
1.42087e-21
8.91774e-21
4.85942e-20
2.20947e-19
1.0102e-18
5.14409e-18
2.57811e-17
1.09813e-16
3.94927e-16
1.46803e-15
6.19648e-15
2.26715e-14
5.57376e-14
1.62456e-16
6.15317e-18
3.05554e-21
1.6208e-23
3.80596e-25
2.29525e-26
9.45422e-26
8.76049e-25
7.61504e-24
5.91136e-23
4.39146e-22
3.042e-21
1.81081e-20
8.70493e-20
4.45329e-19
2.46984e-18
1.23188e-17
5.13117e-17
2.06092e-16
1.11219e-15
5.98412e-15
2.25708e-14
5.86263e-14
9.49715e-18
3.74834e-19
2.07888e-22
1.04164e-24
2.35403e-26
1.36418e-27
1.68162e-26
1.8732e-25
1.78155e-24
1.55347e-23
1.27881e-22
9.65839e-22
6.19712e-21
3.17351e-20
1.81787e-19
1.02001e-18
4.88152e-18
2.24648e-17
1.17043e-16
9.23469e-16
5.6956e-15
1.92305e-14
5.57252e-14
4.85448e-19
2.07552e-20
1.32496e-23
6.08508e-26
1.3855e-27
1.11961e-28
3.22325e-27
4.03068e-26
4.06056e-25
3.84273e-24
3.45227e-23
2.83157e-22
1.96244e-21
1.09235e-20
6.85662e-20
3.59e-19
1.74059e-18
1.04221e-17
6.8973e-17
6.70481e-16
3.66448e-15
1.24031e-14
4.30996e-14
2.08579e-20
1.01868e-21
7.87285e-25
3.22354e-27
1.04027e-28
3.25006e-29
6.06913e-28
7.94335e-27
8.63922e-26
8.93443e-25
8.75493e-24
7.76287e-23
5.81049e-22
3.57692e-21
2.36638e-20
1.11053e-19
6.3585e-19
5.06276e-18
3.70292e-17
3.41255e-16
2.06631e-15
8.85782e-15
3.20881e-14
7.25141e-22
4.22948e-23
4.16897e-26
1.45704e-28
5.34354e-30
6.72606e-30
1.08236e-28
1.4951e-27
1.7618e-26
1.9761e-25
2.09691e-24
2.00028e-23
1.61927e-22
1.11065e-21
7.46591e-21
3.24591e-20
2.51452e-19
2.22735e-18
1.708e-17
1.74964e-16
1.55909e-15
7.88132e-15
2.36697e-14
1.90402e-23
1.39377e-24
1.85713e-27
5.28135e-30
1.43383e-31
1.06718e-30
1.82873e-29
2.69384e-28
3.448e-27
4.16894e-26
4.75745e-25
4.86606e-24
4.26833e-23
3.23774e-22
2.18547e-21
9.502e-21
9.95485e-20
7.92576e-19
7.55083e-18
1.1549e-16
1.42153e-15
7.24922e-15
1.52826e-14
3.38194e-25
3.36493e-26
6.58387e-29
1.36776e-31
3.11424e-33
1.5033e-31
2.95157e-30
4.67621e-29
6.49047e-28
8.4048e-27
1.02412e-25
1.12098e-24
1.06623e-23
8.78763e-23
6.07578e-22
2.80371e-21
3.48267e-20
2.34613e-19
3.6211e-18
8.69635e-17
1.25196e-15
4.65517e-15
4.093e-15
3.39172e-27
5.29943e-28
1.71164e-30
1.32815e-33
3.08444e-34
2.15424e-32
4.56369e-31
7.80689e-30
1.17163e-28
1.61773e-27
2.09238e-26
2.44825e-25
2.52063e-24
2.22331e-23
1.61927e-22
8.1147e-22
1.01657e-20
6.18546e-20
1.88282e-18
6.67959e-17
6.98473e-16
6.89246e-16
-1.73745e-15
1.28485e-29
4.23896e-30
3.51425e-32
1.09268e-36
9.23013e-35
3.01671e-33
6.74218e-32
1.24758e-30
2.01832e-29
2.96482e-28
4.0537e-27
5.06349e-26
5.62322e-25
5.28472e-24
4.09719e-23
2.24756e-22
2.51997e-21
1.47288e-20
1.00597e-18
4.99168e-17
8.74179e-17
-6.86473e-16
-4.5183e-15
7.00342e-34
2.91682e-33
5.14815e-35
1.11347e-37
1.15797e-35
3.99575e-34
9.47581e-33
1.89486e-31
3.29724e-30
5.15161e-29
7.42976e-28
9.88633e-27
1.1808e-25
1.18443e-24
9.70799e-24
6.0437e-23
5.3995e-22
2.88605e-21
5.46513e-19
2.49804e-17
-1.06184e-16
-1.30511e-15
-5.17748e-15
5.35914e-36
3.79826e-37
5.93984e-40
1.93445e-38
1.43294e-36
4.95943e-35
1.25804e-33
2.71367e-32
5.07345e-31
8.44028e-30
1.28341e-28
1.81486e-27
2.32788e-26
2.49454e-25
2.13485e-24
1.73315e-23
8.37059e-23
0
2.90065e-19
1.59305e-18
-1.9408e-16
-1.40157e-15
-4.42547e-15
1.27434e-37
9.55187e-39
1.71102e-41
2.27182e-39
1.62167e-37
5.73835e-36
1.56479e-34
3.63471e-33
7.30041e-32
1.29557e-30
2.07876e-29
3.11845e-28
4.29104e-27
4.91094e-26
4.34818e-25
6.03364e-24
-1.4444e-23
-7.4501e-22
9.6996e-20
-2.76186e-18
-2.09252e-16
-1.18281e-15
-3.12485e-15
2.57484e-39
2.00813e-40
2.17562e-42
2.48471e-40
1.67107e-38
6.14444e-37
1.80737e-35
4.51614e-34
9.75162e-33
1.84986e-31
3.13772e-30
4.99003e-29
7.35487e-28
8.98945e-27
8.30597e-26
1.70792e-24
-5.04729e-23
-1.31535e-21
-3.33597e-20
-4.5322e-18
-1.77024e-16
-8.50781e-16
-1.87704e-15
4.53832e-41
3.62233e-42
1.7848e-43
2.40858e-41
1.55727e-39
6.03812e-38
1.92045e-36
5.16231e-35
1.19977e-33
2.43753e-32
4.38186e-31
7.3893e-30
1.16489e-28
1.51992e-27
1.53517e-26
2.86035e-25
-6.80239e-23
-1.59696e-21
-9.52528e-20
-4.81986e-18
-1.27741e-16
-5.38594e-16
-9.6066e-16
7.13594e-43
5.67364e-44
1.38371e-44
2.04555e-42
1.30304e-40
5.39402e-39
1.85872e-37
5.38105e-36
1.34794e-34
2.93778e-33
5.61369e-32
1.00476e-30
1.69292e-29
2.35539e-28
3.03436e-27
-5.60007e-27
-6.70592e-23
-1.58062e-21
-1.18425e-19
-4.09968e-18
-8.10957e-17
-3.04129e-16
-4.14079e-16
1.01528e-44
7.94026e-46
8.74526e-46
1.50689e-43
9.70733e-42
4.33229e-40
1.62087e-38
5.06409e-37
1.36915e-35
3.20539e-34
6.5307e-33
1.24272e-31
2.23813e-30
3.33591e-29
5.73188e-28
-5.48899e-26
-5.43926e-23
-1.3393e-21
-1.07664e-19
-2.94346e-18
-4.58555e-17
-1.53508e-16
-1.49116e-16
1.31027e-46
1.06471e-47
5.31091e-47
9.53379e-45
6.36884e-43
3.08757e-41
1.25759e-39
4.25139e-38
1.24221e-36
3.12747e-35
6.81393e-34
1.38211e-32
2.66224e-31
4.4303e-30
5.0819e-29
-6.89113e-26
-3.77475e-23
-9.90465e-22
-7.95595e-20
-1.82121e-18
-2.31671e-17
-6.85701e-17
-4.7073e-17
1.5151e-48
1.30236e-49
2.98679e-48
5.11827e-46
3.62652e-44
1.92128e-42
8.54899e-41
3.13578e-39
9.91493e-38
2.68747e-36
6.27891e-35
1.36263e-33
2.81143e-32
6.03396e-31
-1.72979e-29
-5.9173e-26
-2.27652e-23
-6.42658e-22
-4.9324e-20
-9.76886e-19
-1.04211e-17
-2.62521e-17
-1.65275e-17
1.5237e-50
1.47569e-51
1.38784e-49
2.29255e-47
1.75627e-45
1.02237e-43
4.99126e-42
1.99153e-40
6.82508e-39
1.99442e-37
5.01121e-36
1.16956e-34
2.6106e-33
5.86086e-32
-3.1145e-29
-3.99726e-26
-1.19678e-23
-3.65099e-22
-2.59458e-20
-4.53283e-19
-4.13563e-18
-7.83068e-18
-9.7443e-18
1.26585e-52
1.66829e-53
5.0877e-51
8.34535e-49
7.02653e-47
4.52305e-45
2.4351e-43
1.05918e-41
3.94351e-40
1.24489e-38
3.37642e-37
8.53568e-36
2.20295e-34
-1.28855e-33
-2.72377e-29
-2.21618e-26
-5.45676e-24
-1.80265e-22
-1.15844e-20
-1.80519e-19
-1.42831e-18
-1.11782e-18
-9.53416e-18
8.01467e-55
2.13654e-55
1.40369e-52
2.36569e-50
2.22272e-48
1.59709e-46
9.53579e-45
4.53083e-43
1.83945e-41
6.29449e-40
1.85421e-38
5.13435e-37
1.61176e-35
-6.46088e-33
-1.70641e-29
-1.01742e-26
-2.13414e-24
-7.63874e-23
-4.35544e-21
-6.09372e-20
-4.21943e-19
6.37303e-19
-1.01047e-17
3.38199e-57
2.89262e-57
2.70462e-54
4.84493e-52
5.17421e-50
4.21752e-48
2.81064e-46
1.46363e-44
6.51853e-43
2.43359e-41
7.88199e-40
2.45467e-38
4.65361e-37
-5.6705e-33
-8.1868e-30
-3.84254e-27
-7.03335e-25
-2.72661e-23
-1.3583e-21
-1.71352e-20
-1.04397e-19
6.65156e-19
-8.99427e-18
6.36065e-60
3.09666e-59
3.12055e-56
6.15742e-54
7.74366e-52
7.38468e-50
5.54362e-48
3.19119e-46
1.57586e-44
6.51478e-43
2.38562e-41
9.25063e-40
-2.75687e-37
-3.02663e-33
-3.03231e-30
-1.16999e-27
-1.90244e-25
-7.97841e-24
-3.43073e-22
-3.91762e-21
-2.10601e-20
3.0194e-19
-5.77124e-18
1.94145e-63
1.61423e-61
1.3516e-58
3.20641e-56
5.32522e-54
6.38117e-52
5.52494e-50
3.61735e-48
2.03659e-46
9.80377e-45
4.40228e-43
7.77758e-42
-2.38776e-37
-1.09559e-33
-8.45545e-31
-2.76912e-28
-4.05942e-26
-1.83782e-24
-6.76778e-23
-7.02796e-22
-3.3379e-21
1.10654e-20
-2.02945e-18
1.07769e-68
4.53454e-66
4.93041e-63
2.31403e-60
7.09941e-58
1.41805e-55
2.68232e-53
3.93253e-51
4.17115e-49
4.06675e-47
3.55692e-45
-9.35943e-42
-9.24528e-38
-2.64436e-34
-1.67476e-31
-4.78361e-29
-6.41231e-27
-3.12396e-25
-9.82973e-24
-9.34249e-23
-3.92696e-22
-1.83675e-23
-6.18706e-20
3.4516e-80
4.03968e-76
1.5255e-72
2.63642e-69
2.92362e-66
2.20303e-63
1.40588e-60
6.64213e-58
2.14768e-55
6.8412e-53
1.67809e-50
-3.77436e-42
-1.80883e-38
-3.82988e-35
-2.09451e-32
-5.36079e-30
-6.67365e-28
-3.48325e-26
-9.40183e-25
-8.26436e-24
-3.08854e-23
-1.55438e-24
-3.65486e-20
0
4.30077e-90
4.31837e-86
8.53757e-83
-3.20473e-75
1.62023e-77
-2.14166e-68
-2.79403e-69
-3.20953e-62
-5.04963e-63
-4.35635e-64
-3.39864e-43
-1.33406e-39
-2.46105e-36
-1.22832e-33
-2.92044e-31
-3.44105e-29
-1.91327e-27
-4.46196e-26
-3.69735e-25
-1.23927e-24
-6.52404e-26
-1.15857e-20
0.85055
0.85055
0.85055
0.849499
0.274007
0.370003
0.321588
0.169036
1.12263e-11
5.27877e-11
1.42044e-10
8.92431e-11
3.44981e-09
4.2167e-09
4.19535e-09
3.05449e-09
2.75033e-09
3.63453e-09
3.12201e-09
1.82928e-09
1.3929e-15
4.69805e-15
1.1815e-14
2.49983e-14
1.17982e-13
2.31895e-13
3.85532e-13
5.15713e-13
6.93567e-14
1.43964e-13
2.9448e-13
5.00618e-13
7.30052e-14
1.75567e-13
3.70481e-13
5.90611e-13
1.12876e-13
2.51589e-13
4.79327e-13
9.12225e-13
1.31298e-13
2.80187e-13
5.43964e-13
2.12143e-12
1.37124e-13
3.05864e-13
1.41742e-12
1.11828e-11
1.45073e-13
1.05544e-12
9.29789e-12
3.95239e-11
2.77196e-13
4.6046e-12
3.21402e-11
7.00757e-11
4.92026e-13
8.98916e-12
5.27959e-11
7.6778e-11
6.05065e-13
1.04174e-11
5.01754e-11
7.09463e-11
6.10597e-13
7.92208e-12
3.61208e-11
3.35349e-11
3.94988e-13
5.02942e-12
1.26119e-11
1.04956e-11
2.15524e-13
1.95486e-12
2.91837e-12
2.68924e-12
1.00672e-13
4.72297e-13
5.26212e-13
1.1839e-12
2.29627e-14
5.87041e-14
8.37777e-14
1.23323e-12
-3.44642e-15
-2.83719e-15
-1.26487e-21
3.86023e-14
-1.34945e-14
-9.82061e-15
-1.31502e-15
4.59174e-13
-1.53902e-14
-9.07575e-15
-2.01896e-19
4.00236e-12
-1.1745e-14
-5.63521e-15
-5.41378e-13
3.55121e-11
-6.74932e-15
-3.14319e-15
-3.64555e-18
2.73699e-10
-3.01969e-15
-1.55466e-15
-1.60596e-11
2.26634e-09
-1.11896e-15
1.16102e-17
-2.42713e-10
9.97235e-08
-3.70858e-16
-2.11955e-17
-1.78402e-10
3.18098e-05
-5.95025e-17
-1.0189e-18
8.95096e-07
6.93594e-05
-1.25299e-32
3.13228e-17
1.05938e-05
6.88863e-05
-1.6998e-30
2.57124e-16
1.66207e-05
6.84114e-05
-3.32825e-31
2.03712e-15
1.02763e-05
3.97759e-05
1.67704e-14
4.66309e-11
2.1764e-08
3.24272e-09
1.89648e-13
4.93178e-10
2.87403e-12
2.82883e-12
1.7158e-13
6.26043e-11
4.11836e-29
7.69034e-08
-5.47083e-17
-2.5892e-14
-2.30677e-15
2.15536e-07
-4.58716e-17
-2.32501e-14
-1.50257e-15
8.63218e-08
-3.42579e-17
-1.22331e-14
-5.46735e-17
-6.99456e-17
-3.06091e-17
-3.0788e-15
8.26566e-16
-1.48966e-16
-1.96523e-17
-1.91393e-15
8.0974e-16
-9.24356e-17
-6.62753e-18
-6.43239e-16
2.49279e-16
1.74217e-18
0.576765
0.000317184
2.01537e-05
9.2603e-07
5.82387e-08
3.03383e-08
2.80013e-08
2.04442e-06
1.23208e-06
1.51096e-05
0.00833276
0.00720852
0.000290575
8.82476e-05
8.25966e-05
8.25966e-05
0.000109
0.00284884
0.0113759
-1.74403e-06
-2.51421e-08
-1.6177e-10
-9.74105e-10
2.07092e-08
2.87062e-08
2.73868e-08
1.34736e-08
1.50557e-08
0.0131462
0.0643624
0.0628676
0.00756714
0.000261772
8.29857e-05
8.25966e-05
0.000345846
0.00465193
0.00865053
2.74841e-11
1.27606e-11
1.27642e-11
1.23928e-11
5.01143e-08
1.5889e-07
5.8454e-08
1.1324e-08
5.20892e-05
0.0695039
0.0715541
0.0715306
0.0410147
0.00104195
8.17134e-05
7.54569e-05
0.000911152
0.00232175
0.00137682
1.18788e-09
1.66251e-10
1.27525e-11
2.9825e-08
1.7294e-07
1.7294e-07
7.21829e-08
8.1437e-09
0.023323
0.0710395
0.0714662
0.0716257
0.0714662
0.00275499
7.59148e-05
6.99944e-05
0.000548475
0.000347477
0.000333368
6.9116e-10
1.1139e-10
1.82947e-11
1.5977e-08
1.1885e-07
9.56823e-08
1.3856e-09
2.50184e-09
0.0295375
0.0689218
0.0710395
0.0714662
0.0699475
0.00335926
6.29639e-05
2.15584e-05
8.89338e-05
0.000152288
0.000115378
3.08166e-12
1.12218e-11
2.57519e-11
9.66438e-12
3.2512e-12
-1.36161e-27
-7.60606e-10
0
1.17746e-06
0.0150265
0.0671598
0.0703851
0.0161782
0.00063674
6.69316e-05
9.58254e-06
1.84354e-05
5.79204e-05
3.81325e-05
6.59347e-13
4.35076e-12
3.36927e-11
1.27327e-10
1.44441e-10
1.05272e-10
-2.23384e-09
7.08345e-05
4.88785e-05
5.43322e-05
0.0125574
0.0152846
0.00139319
3.09384e-05
3.20896e-05
7.04373e-06
1.02896e-05
2.63817e-05
1.25715e-05
1.36618e-12
1.00754e-11
5.08228e-11
2.13406e-10
5.19561e-10
5.09064e-10
-8.35883e-10
0.000222455
6.07457e-05
3.05448e-05
5.7349e-05
0.00012631
0.000116986
0.000110899
4.44309e-06
2.51064e-06
5.14648e-06
1.10717e-05
4.26332e-06
2.31845e-12
1.77211e-11
6.48455e-11
2.26245e-10
6.58867e-10
7.37337e-10
2.78362e-10
9.52092e-11
8.48229e-11
5.54813e-08
0.000101185
0.0003047
0.000198457
0.000170273
3.37421e-05
1.55682e-06
1.72592e-06
4.24792e-06
1.49098e-06
7.45628e-12
4.20438e-11
9.06571e-11
2.20745e-10
9.63761e-10
1.52546e-09
9.85097e-10
9.20164e-11
-4.68524e-09
5.38583e-07
0.00660006
0.00174845
0.000888508
0.000166316
0.000118566
1.26875e-06
6.87248e-07
1.48774e-06
5.51489e-07
2.56152e-11
8.87653e-11
1.2144e-10
1.78133e-10
1.5666e-09
3.23359e-09
2.04634e-09
1.67695e-10
-3.71529e-08
0.000230158
0.0717664
0.0327387
0.00100229
0.000189905
0.000270273
1.0603e-06
3.12107e-07
5.36338e-07
2.07658e-07
6.26155e-11
1.278e-10
1.4074e-10
1.43141e-10
1.68791e-09
3.75899e-09
2.45976e-09
2.08138e-10
-1.91632e-08
0.0462202
0.0833445
0.0551181
0.0011686
0.000186065
0.000271037
6.46982e-07
1.72808e-07
1.99154e-07
8.141e-08
9.43751e-11
1.35851e-10
1.38985e-10
1.59392e-10
7.59614e-10
2.98457e-09
2.18382e-09
3.03668e-10
-7.63827e-10
0.0828888
0.0833442
0.0625265
0.00206409
0.000123013
0.000126111
3.76417e-07
1.22314e-07
7.67973e-08
3.40316e-08
1.00141e-10
1.09574e-10
1.15797e-10
3.07109e-10
1.79855e-09
2.4617e-09
1.38646e-09
3.7355e-10
0.0107337
0.0833242
0.0833452
0.0811311
0.00560675
0.000252227
1.32988e-05
4.38947e-07
1.03085e-07
3.16733e-08
1.59437e-08
4.21715e-11
4.12305e-11
6.78232e-11
1.95186e-09
9.86947e-09
6.84465e-09
1.35628e-09
4.67958e-10
0.0552147
0.0830144
0.0833242
0.0830144
0.0151183
1.96109e-05
1.14842e-05
5.97614e-07
1.03092e-07
1.58774e-08
8.82503e-09
3.73911e-12
-4.61066e-12
2.71733e-10
2.40452e-08
1.11136e-07
6.49918e-08
1.12479e-08
1.33341e-09
0.0275723
0.0777153
0.0830144
0.0826401
0.0186908
1.03438e-05
3.39964e-06
7.48849e-07
1.10578e-07
9.80829e-09
5.89887e-09
-2.24667e-13
-3.57608e-12
4.16982e-09
2.6206e-07
1.28792e-06
7.27006e-07
8.55958e-07
3.1429e-07
3.61449e-07
0.0110122
0.0604174
0.0480249
0.00969338
6.45677e-06
1.32259e-06
9.9666e-07
1.13203e-07
1.01318e-08
4.63608e-09
-2.44049e-11
-5.50843e-10
5.17384e-08
2.43605e-05
0.000244871
0.000152319
4.67815e-05
0.0012154
0.000322107
2.73047e-05
2.53593e-05
2.51445e-05
0.000938851
0.000140903
6.29285e-06
8.97262e-07
1.0538e-07
1.07712e-08
4.09602e-09
-6.33935e-11
-1.07738e-10
5.48964e-06
0.000414712
0.000530187
0.000530526
0.000197571
0.000105898
4.04805e-05
2.53593e-05
2.51362e-05
2.51445e-05
0.000554271
0.000142896
2.35758e-05
6.61099e-07
9.49415e-08
1.04001e-08
3.60715e-09
-1.06604e-10
-1.33827e-09
0.000371936
0.000529895
0.000530589
0.00053045
0.00052696
0.000145316
3.08141e-05
2.64753e-05
2.53593e-05
2.51445e-05
0.000759178
0.000131119
2.49794e-05
4.91522e-07
7.72582e-08
9.36325e-09
3.02347e-09
-8.94409e-11
9.53642e-05
0.000520964
0.000526598
0.000529863
0.000530572
0.000529284
0.000481255
5.51704e-05
3.08139e-05
2.64753e-05
3.64184e-05
0.000784456
0.000168305
1.34283e-05
5.20581e-07
5.80211e-08
7.9246e-09
2.44098e-09
0
0.000189148
0.000495808
0.000521025
0.000526566
0.000529284
0.000481603
0.000283055
0.000105922
5.9189e-05
3.34253e-05
0.00020978
0.000787152
0.000241093
1.37994e-06
7.80226e-07
5.16777e-08
6.13675e-09
1.90566e-09
3.0729e-11
3.2016e-10
0.000123616
0.00025291
0.000247745
0.000272023
8.52805e-05
7.59324e-05
0.000640584
0.000280041
0.000234008
0.00060971
0.000784456
0.000241475
1.02445e-06
1.01777e-06
5.02908e-08
4.58034e-09
1.4461e-09
2.93573e-10
8.64458e-07
9.03221e-07
3.13173e-06
6.10678e-06
9.49397e-06
2.61449e-05
2.70604e-05
0.0475562
0.0157158
0.00294266
0.000622468
0.000405837
0.000187446
1.19114e-06
8.55155e-07
4.77901e-08
3.55154e-09
1.07144e-09
4.78382e-09
5.32789e-06
2.92152e-06
6.10678e-06
1.75514e-05
2.37591e-05
2.46651e-05
0.0300638
0.082532
0.047504
0.00576226
0.00162682
9.06999e-05
7.39414e-05
1.25783e-06
2.5977e-07
4.49518e-08
2.69712e-09
7.82983e-10
1.92089e-08
4.05114e-07
2.52058e-05
5.48057e-05
3.62286e-05
2.87784e-05
2.62676e-05
0.0816461
0.082532
0.068048
0.00580303
0.000817431
0.000223285
3.78939e-05
9.73696e-07
8.26192e-08
3.11501e-08
1.96099e-09
5.6983e-10
1.39881e-07
4.44175e-07
0.00135271
0.000317167
3.08896e-05
2.9551e-05
2.77524e-05
0.072515
0.082532
0.0825132
0.00617954
0.000919698
0.00102054
5.14668e-05
1.41444e-07
1.31908e-07
1.65374e-08
1.36165e-09
4.146e-10
9.44616e-06
2.60769e-06
0.00200935
0.000391036
3.55443e-05
3.08896e-05
3.02182e-05
0.0134091
0.0819698
0.0824832
0.0222565
0.000900639
0.00135234
3.924e-05
9.77127e-08
1.45074e-07
9.06934e-09
9.11953e-10
3.01721e-10
6.93086e-05
7.23128e-06
0.00201398
0.00108518
5.07673e-05
3.47585e-05
4.42419e-05
0.000209725
0.0712662
0.0824942
0.0415728
0.000568752
0.000676114
9.15158e-06
4.80695e-08
9.61033e-08
2.80063e-09
6.58537e-10
2.19949e-10
6.93593e-05
2.10867e-09
0.00172276
0.0054301
0.00011776
7.46179e-05
0.000209725
0.0312237
0.0818221
0.0823133
0.0443198
0.000322823
3.00349e-06
4.67482e-08
2.7226e-08
5.8107e-08
4.7391e-10
4.97017e-10
1.59775e-10
6.93958e-05
1.96631e-09
0.000138557
0.00621334
0.00699407
0.0042618
0.0359579
0.0792558
0.0803958
0.0817266
0.0193183
0.000403004
1.0103e-06
4.82587e-09
8.69829e-09
3.07125e-08
3.85075e-10
3.8243e-10
1.14902e-10
5.25508e-05
1.73917e-09
1.6877e-09
0.00212434
0.0208244
0.0533498
0.0771393
0.0781857
0.0785898
0.0156839
0.00202299
0.000421552
2.72107e-07
7.55593e-09
3.58961e-09
3.25744e-09
3.76687e-10
2.99461e-10
8.14589e-11
2.0447e-09
1.6877e-09
1.66049e-09
1.6877e-09
0.00773966
0.056477
0.0765174
0.0696864
0.0141316
0.000479914
0.00181638
9.42055e-05
8.01327e-08
-1.9837e-09
1.52401e-09
4.84318e-10
4.53694e-10
2.29347e-10
5.67356e-11
4.1573e-09
3.83137e-09
1.34543e-09
8.13151e-09
1.67232e-08
8.52187e-08
0.0111013
1.11448e-05
1.23174e-05
0.000436251
0.000594896
4.72516e-07
3.2457e-08
5.33779e-10
1.45277e-09
6.48842e-10
5.36636e-10
1.72736e-10
3.87371e-11
9.3878e-08
2.2864e-08
4.54616e-10
1.44714e-07
4.75086e-07
3.15826e-07
1.6279e-06
5.58819e-06
1.11816e-05
0.000517786
3.98203e-06
1.10816e-07
5.73747e-09
1.65686e-09
1.46005e-09
1.19255e-09
5.19977e-10
1.28745e-10
2.58834e-11
3.62623e-07
3.96253e-08
2.28429e-10
1.88734e-07
3.45193e-06
1.34434e-05
3.34947e-05
8.76438e-05
5.90325e-05
0.000158673
9.84719e-07
3.53918e-08
8.97518e-10
1.19106e-09
1.41557e-09
1.45553e-09
4.71349e-10
9.52817e-11
1.69038e-11
3.63524e-07
3.90129e-08
8.23911e-11
8.11855e-08
2.86004e-06
4.31857e-05
0.000264557
0.000263651
0.000165565
9.38517e-07
2.4074e-07
1.13998e-08
1.20227e-09
8.60607e-10
1.3635e-09
1.41925e-09
3.8167e-10
7.01381e-11
1.07778e-11
3.35294e-07
1.43441e-08
2.12582e-11
8.23911e-11
1.19983e-08
4.37449e-05
0.000259855
0.000264593
0.000139585
1.31999e-07
5.05926e-08
3.19238e-09
8.18789e-10
6.621e-10
1.26306e-09
1.2455e-09
2.87527e-10
5.13573e-11
6.71949e-12
-1.39e-24
1.274e-09
2.91107e-12
2.12557e-11
2.65615e-09
4.09898e-08
5.06854e-05
0.000169446
1.78803e-05
1.98156e-08
1.03729e-08
8.25057e-10
4.4946e-10
5.81188e-10
1.07462e-09
9.78032e-10
2.12394e-10
3.74197e-11
4.05894e-12
-5.02761e-18
0
1.04689e-12
2.90227e-12
1.60049e-10
2.92036e-08
4.28902e-08
6.64842e-08
1.98173e-08
3.34746e-09
2.14098e-09
4.48931e-10
2.97897e-10
5.30656e-10
8.30121e-10
7.19352e-10
1.54177e-10
2.69016e-11
2.51477e-12
-2.7106e-18
-1.3297e-30
5.89547e-15
2.60304e-12
2.58904e-08
4.74283e-07
4.74181e-07
4.14731e-07
3.3475e-09
1.03739e-09
5.92287e-10
2.98544e-10
2.68007e-10
4.56144e-10
6.24875e-10
5.28903e-10
1.13884e-10
1.97735e-11
1.06041e-12
4.32875e-22
0
0
-1.53561e-15
9.81874e-10
1.52514e-07
4.15227e-07
6.62961e-08
1.03739e-09
6.40075e-10
3.60569e-10
2.68066e-10
2.68066e-10
3.05541e-10
3.77607e-10
3.00518e-10
6.65837e-11
1.16051e-11
8.00209e-13
)
;

boundaryField
{
    leftWall
    {
        type            zeroGradient;
    }
    rightWall
    {
        type            zeroGradient;
    }
    lowerWall
    {
        type            zeroGradient;
    }
    atmosphere
    {
        type            inletOutlet;
        inletValue      uniform 0;
        value           nonuniform List<scalar> 
46
(
0
0
0
0
0
0
0
0
0
0
0
0
0
0
0
0
0
0
0
0
0
0
0
0
0
0
0
0
0
0
0
0
0
0
6.62961e-08
1.03739e-09
6.40075e-10
3.60569e-10
2.68066e-10
2.68066e-10
3.05541e-10
3.77607e-10
3.00518e-10
6.65837e-11
1.16051e-11
8.00209e-13
)
;
    }
    defaultFaces
    {
        type            empty;
    }
}


// ************************************************************************* //
