/*--------------------------------*- C++ -*----------------------------------*\
| =========                 |                                                 |
| \\      /  F ield         | OpenFOAM: The Open Source CFD Toolbox           |
|  \\    /   O peration     | Version:  2206                                  |
|   \\  /    A nd           | Website:  www.openfoam.com                      |
|    \\/     M anipulation  |                                                 |
\*---------------------------------------------------------------------------*/
FoamFile
{
    version     2.0;
    format      ascii;
    arch        "LSB;label=32;scalar=64";
    class       surfaceScalarField;
    location    "0.575";
    object      phi;
}
// * * * * * * * * * * * * * * * * * * * * * * * * * * * * * * * * * * * * * //

dimensions      [0 3 -1 0 0 0 0];

oriented        oriented;

internalField   nonuniform List<scalar> 
4432
(
-4.41692e-06
4.41692e-06
-4.8242e-06
4.07282e-07
-4.1587e-06
-6.65504e-07
-4.30598e-06
1.47284e-07
-5.42583e-06
1.11984e-06
-7.118e-06
1.69217e-06
-8.89364e-06
1.77564e-06
-1.04497e-05
1.55604e-06
-1.16743e-05
1.22465e-06
-1.25687e-05
8.94359e-07
-1.31738e-05
6.05115e-07
-1.35344e-05
3.60609e-07
-1.36791e-05
1.44686e-07
-1.36097e-05
-6.93849e-08
-1.33117e-05
-2.98067e-07
-1.27424e-05
-5.69285e-07
-1.17984e-05
-9.4395e-07
-1.02336e-05
-1.56487e-06
-7.57487e-06
-2.65869e-06
-3.45158e-06
-4.12328e-06
3.93193e-06
-7.38351e-06
1.15908e-05
-7.65886e-06
1.15908e-05
-4.73954e-06
9.15647e-06
-5.50738e-06
1.17512e-06
-5.27474e-06
-8.98138e-07
-5.70677e-06
5.79306e-07
-6.96733e-06
2.38041e-06
-8.66358e-06
3.38841e-06
-1.03416e-05
3.45368e-06
-1.17232e-05
2.93767e-06
-1.27079e-05
2.20929e-06
-1.32864e-05
1.47293e-06
-1.34796e-05
7.98319e-07
-1.33056e-05
1.86511e-07
-1.27709e-05
-3.89956e-07
-1.18916e-05
-9.4865e-07
-1.06837e-05
-1.50597e-06
-9.15247e-06
-2.10055e-06
-7.30294e-06
-2.79348e-06
-5.16601e-06
-3.7018e-06
-2.85782e-06
-4.96689e-06
-3.51985e-08
-6.9459e-06
1.87522e-06
-9.29393e-06
2.26131e-06
-8.04495e-06
1.38521e-05
-5.09455e-06
1.4251e-05
-6.81493e-06
2.89549e-06
-7.39479e-06
-3.18277e-07
-8.22061e-06
1.40513e-06
-9.61484e-06
3.77464e-06
-1.12471e-05
5.02066e-06
-1.27834e-05
4.98996e-06
-1.40287e-05
4.18301e-06
-1.49126e-05
3.09322e-06
-1.54358e-05
1.99612e-06
-1.56177e-05
9.80175e-07
-1.54675e-05
3.63811e-08
-1.50046e-05
-8.52912e-07
-1.42315e-05
-1.72177e-06
-1.31722e-05
-2.56522e-06
-1.188e-05
-3.39274e-06
-1.04251e-05
-4.24843e-06
-8.96605e-06
-5.16083e-06
-7.76946e-06
-6.16348e-06
-7.33177e-06
-7.38359e-06
-7.8539e-06
-8.77181e-06
-8.79152e-06
-7.10732e-06
5.06057e-06
-5.84801e-06
2.0099e-05
-9.05044e-06
6.09792e-06
-1.06916e-05
1.32285e-06
-1.19571e-05
2.67069e-06
-1.34695e-05
5.28697e-06
-1.50521e-05
6.60332e-06
-1.6467e-05
6.40485e-06
-1.75674e-05
5.28335e-06
-1.83009e-05
3.82676e-06
-1.86677e-05
2.36288e-06
-1.86846e-05
9.97162e-07
-1.83832e-05
-2.65055e-07
-1.77865e-05
-1.44962e-06
-1.69484e-05
-2.5599e-06
-1.5912e-05
-3.60155e-06
-1.47211e-05
-4.58373e-06
-1.34527e-05
-5.51674e-06
-1.22224e-05
-6.39113e-06
-1.12462e-05
-7.13969e-06
-1.0946e-05
-7.68386e-06
-1.14262e-05
-8.29155e-06
-9.7296e-06
-8.80395e-06
-4.66903e-06
-7.64575e-06
2.77448e-05
-1.30435e-05
1.14957e-05
-1.55329e-05
3.81222e-06
-1.68681e-05
4.00594e-06
-1.84501e-05
6.86891e-06
-2.00085e-05
8.16172e-06
-2.12757e-05
7.67211e-06
-2.21662e-05
6.17386e-06
-2.26649e-05
4.32541e-06
-2.28164e-05
2.51443e-06
-2.26618e-05
8.42543e-07
-2.21934e-05
-7.3344e-07
-2.1388e-05
-2.25503e-06
-2.02232e-05
-3.72477e-06
-1.87496e-05
-5.0751e-06
-1.70509e-05
-6.28238e-06
-1.52309e-05
-7.33684e-06
-1.33711e-05
-8.25092e-06
-1.15174e-05
-8.99336e-06
-9.77427e-06
-9.42698e-06
-8.3194e-06
-9.74642e-06
-5.61421e-06
-1.15091e-05
-1.02832e-05
-6.82017e-06
3.45649e-05
-1.52433e-05
1.99189e-05
-1.97745e-05
8.34335e-06
-2.17366e-05
5.96811e-06
-2.37021e-05
8.83441e-06
-2.58767e-05
1.03362e-05
-2.77313e-05
9.52676e-06
-2.90679e-05
7.51047e-06
-2.97535e-05
5.01102e-06
-2.9769e-05
2.52987e-06
-2.91239e-05
1.97505e-07
-2.80477e-05
-1.8097e-06
-2.65657e-05
-3.73699e-06
-2.46732e-05
-5.61727e-06
-2.24807e-05
-7.26757e-06
-2.00894e-05
-8.6737e-06
-1.744e-05
-9.98623e-06
-1.45759e-05
-1.1115e-05
-1.15506e-05
-1.20187e-05
-8.40157e-06
-1.2576e-05
-5.39555e-06
-1.27524e-05
-2.54775e-06
-1.43569e-05
-1.2831e-05
-1.29618e-06
3.58611e-05
-9.98242e-06
2.86051e-05
-1.85247e-05
1.68856e-05
-2.45935e-05
1.20369e-05
-2.8594e-05
1.2835e-05
-3.12741e-05
1.30163e-05
-3.29072e-05
1.11599e-05
-3.37009e-05
8.30426e-06
-3.38203e-05
5.13034e-06
-3.37659e-05
2.47554e-06
-3.40052e-05
4.3674e-07
-3.3985e-05
-1.82984e-06
-3.29302e-05
-4.79179e-06
-3.07325e-05
-7.815e-06
-2.80638e-05
-9.93632e-06
-2.51516e-05
-1.15859e-05
-2.1747e-05
-1.33908e-05
-1.79496e-05
-1.49124e-05
-1.39951e-05
-1.59732e-05
-9.79843e-06
-1.67727e-05
-5.1936e-06
-1.73573e-05
-1.15476e-06
-1.83958e-05
-1.39858e-05
5.69923e-06
3.01619e-05
3.45703e-06
3.08473e-05
-7.61923e-06
2.79619e-05
-2.01165e-05
2.45341e-05
-2.7288e-05
2.00065e-05
-3.1134e-05
1.68622e-05
-3.43821e-05
1.4408e-05
-3.74334e-05
1.13555e-05
-3.95213e-05
7.21823e-06
-4.07523e-05
3.70657e-06
-4.1393e-05
1.07738e-06
-4.14473e-05
-1.77545e-06
-4.05769e-05
-5.6622e-06
-3.89302e-05
-9.46178e-06
-3.67078e-05
-1.21587e-05
-3.39146e-05
-1.4379e-05
-3.06715e-05
-1.6634e-05
-2.69537e-05
-1.86302e-05
-2.27372e-05
-2.01896e-05
-1.83184e-05
-2.11915e-05
-1.34851e-05
-2.21906e-05
-8.57344e-06
-2.33074e-05
-2.25592e-05
-0.000261564
0.000261564
-0.000311703
5.01396e-05
-0.000330392
1.86886e-05
-0.000280909
-4.94825e-05
-0.000194581
-8.6328e-05
-4.90813e-05
-0.0001455
8.37708e-05
-0.000132852
0.000186946
-0.000103175
0.000272671
-8.57255e-05
0.00034509
-7.24187e-05
0.000430661
-8.55715e-05
0.000526868
-9.62066e-05
0.000614841
-8.79727e-05
0.000677793
-6.29526e-05
0.000724187
-4.63935e-05
0.000713407
1.07795e-05
0.000658232
5.51755e-05
0.00047267
0.000185561
0.00047267
-0.000327524
0.000589088
-0.000547355
0.00026997
-0.000286561
-0.000242105
-0.000136761
-0.000199283
2.42748e-06
-0.000225516
0.000115661
-0.000258734
0.000200739
-0.00021793
0.000261422
-0.000163858
0.000294441
-0.000118744
0.000256099
-3.40762e-05
0.000307317
-0.00013679
0.000499658
-0.000288547
0.00076337
-0.000351685
0.000963935
-0.000263517
0.00100752
-8.9975e-05
0.00100206
1.62343e-05
0.000925334
0.000131902
0.000557623
0.000553273
0.00103029
2.1198e-05
0.00056789
2.13611e-06
0.000289032
3.06576e-05
-0.000270627
0.000120841
-0.000289467
0.000200295
-0.00030497
0.000255681
-0.00031412
0.000269102
-0.00023135
0.000208239
-0.000102995
-2.59641e-05
0.000115459
-0.000106658
4.66181e-05
0.000120673
-0.000364122
0.00030249
-0.000470364
0.000438803
-0.000487998
0.00059567
-0.000420384
0.00066002
-0.000154324
0.000621681
5.45728e-05
0.000449446
0.000304138
0.000210077
0.000792642
0.00124037
0.000124564
0.000443326
0.000368397
4.51991e-05
0.000298186
-0.000200416
0.000253148
-0.000244428
0.000239101
-0.000290923
0.000257059
-0.000332078
0.00027322
-0.000247511
3.68039e-05
0.000133421
-0.000191149
0.000343412
9.47427e-05
-0.000239274
0.000197735
-0.000467114
0.000224592
-0.000497221
0.000225199
-0.000488605
0.000265736
-0.000460922
0.000311209
-0.000199797
0.000252859
0.000112923
9.58759e-05
0.000461121
4.40594e-05
0.000844458
0.00128443
0.000156609
0.000286717
0.000265431
-6.36229e-05
0.000235432
-0.000170418
0.000224592
-0.000233588
0.000234887
-0.000301218
0.00023168
-0.000328872
0.000158157
-0.000173988
3.89747e-05
0.000252603
7.44736e-05
0.000307913
0.000189197
-0.000353997
0.000207323
-0.000485241
0.000198107
-0.000488005
0.000180279
-0.000470777
0.000166212
-0.000446855
0.000189934
-0.000223518
0.00016066
0.000142196
3.91608e-05
0.000582621
1.73309e-05
0.000866288
0.00130176
0.000133951
0.000152766
0.000189158
-0.000118829
0.000198374
-0.000179634
0.00022137
-0.000256583
0.000225175
-0.000305023
0.000189327
-0.000293024
5.83931e-05
-4.30538e-05
6.51674e-05
0.000245829
0.00021403
0.000159051
0.000211798
-0.000351766
0.000201265
-0.000474707
0.000193803
-0.000480543
0.000189492
-0.000466465
0.000174027
-0.00043139
0.000187021
-0.000236513
0.000200161
0.000129056
0.000146927
0.000635855
6.38732e-05
0.000949342
0.00136563
0.000142125
1.06414e-05
0.0001589
-0.000135604
0.000196739
-0.000217473
0.000220601
-0.000280446
0.00017129
-0.000255711
5.81962e-05
-0.00017993
-1.18649e-05
2.70074e-05
6.05237e-05
0.000173441
0.000199169
2.04053e-05
0.000217396
-0.000369993
0.000206112
-0.000463424
0.00020314
-0.000477571
0.000232399
-0.000495724
0.000235509
-0.000434499
0.000249398
-0.000250403
0.000290569
8.78852e-05
0.000282394
0.00064403
8.53556e-05
0.00114638
0.00145099
0.000100516
-8.98749e-05
0.000163087
-0.000198176
0.000220631
-0.000275016
0.000159686
-0.000219502
8.03584e-05
-0.000176383
3.83106e-07
-9.99553e-05
2.17016e-05
5.68874e-06
0.000146898
4.82441e-05
0.000272826
-0.000105522
0.000253985
-0.000351153
0.000237206
-0.000446644
0.00023809
-0.000478455
0.000255353
-0.000512988
0.000248431
-0.000427577
0.000250778
-0.00025275
0.000288504
5.01593e-05
0.000267839
0.000664694
1.71932e-05
0.00139703
0.00146818
1.49267e-07
3.00126e-05
-1.90272e-06
3.28993e-05
-9.36484e-06
3.5424e-05
-1.81398e-05
3.33091e-05
-2.64148e-05
2.82815e-05
-3.26769e-05
2.31243e-05
-3.65736e-05
1.83047e-05
-3.79337e-05
1.27157e-05
-3.67026e-05
5.98709e-06
-3.42425e-05
1.24651e-06
-3.21737e-05
-9.9143e-07
-3.04073e-05
-3.54191e-06
-2.79933e-05
-8.07617e-06
-2.42032e-05
-1.32519e-05
-1.93508e-05
-1.70111e-05
-1.38909e-05
-1.98389e-05
-9.43769e-06
-2.10872e-05
-5.93585e-06
-2.21321e-05
-2.05986e-06
-2.40656e-05
1.10306e-06
-2.43544e-05
2.31569e-06
-2.34032e-05
-6.35675e-07
-2.03561e-05
-1.89406e-05
-4.25425e-06
-2.51408e-05
5.51534e-05
-3.32132e-05
4.09717e-05
-3.91574e-05
4.13682e-05
-5.04025e-05
4.45541e-05
-6.53089e-05
4.31879e-05
-7.58971e-05
3.37125e-05
-7.78194e-05
2.0227e-05
-7.32257e-05
8.12201e-06
-6.59191e-05
-1.31948e-06
-5.54266e-05
-9.24593e-06
-3.87479e-05
-1.76701e-05
-1.35307e-05
-2.87592e-05
2.13098e-05
-4.29167e-05
5.17351e-05
-4.36772e-05
6.97468e-05
-3.50228e-05
8.01134e-05
-3.02055e-05
8.79882e-05
-2.8962e-05
9.16822e-05
-2.58261e-05
8.94511e-05
-2.18345e-05
8.29728e-05
-1.78761e-05
7.28703e-05
-1.33008e-05
6.22349e-05
-9.72065e-06
2.81024e-06
4.0484e-05
-2.49709e-05
8.01244e-05
-3.79889e-05
5.39896e-05
-3.84977e-05
4.1877e-05
-3.85516e-05
4.46081e-05
-3.73802e-05
4.20167e-05
-3.19371e-05
2.82695e-05
-1.97724e-05
8.06237e-06
-2.61013e-07
-1.13893e-05
2.01078e-05
-2.16884e-05
3.97318e-05
-2.887e-05
5.59309e-05
-3.38693e-05
6.56e-05
-3.84283e-05
6.54521e-05
-4.27688e-05
6.38527e-05
-4.20778e-05
6.59842e-05
-3.71542e-05
6.91087e-05
-3.333e-05
7.15922e-05
-3.14454e-05
7.47921e-05
-2.90261e-05
7.80248e-05
-2.50672e-05
8.26358e-05
-2.24872e-05
9.1166e-05
-2.18309e-05
0.0001035
-2.20548e-05
-1.43049e-05
0.000120615
6.35823e-07
7.94885e-05
-5.20332e-07
5.51457e-05
5.10814e-06
3.62487e-05
2.01347e-05
2.95817e-05
3.90311e-05
2.31205e-05
5.66937e-05
1.06071e-05
7.04156e-05
-5.65953e-06
7.96461e-05
-2.06198e-05
8.65139e-05
-2.85564e-05
9.02437e-05
-3.26e-05
9.13587e-05
-3.49843e-05
8.96042e-05
-3.66739e-05
8.45675e-05
-3.77321e-05
7.97412e-05
-3.72516e-05
7.80717e-05
-3.54847e-05
7.85898e-05
-3.38482e-05
7.99706e-05
-3.28261e-05
8.25468e-05
-3.16024e-05
8.72654e-05
-2.97858e-05
9.31211e-05
-2.83429e-05
9.89654e-05
-2.76752e-05
0.000104351
-2.74408e-05
-2.70687e-05
0.000117115
1.21224e-05
6.73661e-05
1.96546e-05
4.76134e-05
3.06652e-05
2.52381e-05
4.68728e-05
1.33742e-05
6.49868e-05
5.00661e-06
8.03212e-05
-4.72721e-06
8.90877e-05
-1.44261e-05
9.11182e-05
-2.26504e-05
9.03221e-05
-2.77605e-05
8.80499e-05
-3.03278e-05
8.48734e-05
-3.18079e-05
8.12297e-05
-3.30302e-05
7.76349e-05
-3.41373e-05
7.51553e-05
-3.4772e-05
7.44645e-05
-3.47939e-05
7.51905e-05
-3.45741e-05
7.67679e-05
-3.44036e-05
7.93069e-05
-3.41414e-05
8.32598e-05
-3.37387e-05
8.84733e-05
-3.35564e-05
9.46005e-05
-3.38023e-05
0.000101604
-3.44444e-05
-3.55896e-05
0.000110125
7.05287e-06
6.03132e-05
1.63226e-05
3.83437e-05
2.58755e-05
1.56852e-05
3.88507e-05
3.9908e-07
5.29337e-05
-9.07629e-06
6.47412e-05
-1.65347e-05
7.24868e-05
-2.21718e-05
7.60457e-05
-2.62094e-05
7.69937e-05
-2.87085e-05
7.66549e-05
-2.99891e-05
7.57091e-05
-3.08622e-05
7.45587e-05
-3.18799e-05
7.35288e-05
-3.31073e-05
7.30681e-05
-3.43113e-05
7.35756e-05
-3.53014e-05
7.50958e-05
-3.60943e-05
7.74505e-05
-3.67582e-05
8.05653e-05
-3.72563e-05
8.44315e-05
-3.76048e-05
8.89045e-05
-3.80293e-05
9.38743e-05
-3.87721e-05
9.93786e-05
-3.99487e-05
-4.16819e-05
0.000105471
1.84483e-06
5.84684e-05
8.62879e-06
3.15597e-05
1.78264e-05
6.48758e-06
2.92563e-05
-1.10307e-05
4.1935e-05
-2.1755e-05
5.28775e-05
-2.74772e-05
6.07544e-05
-3.00488e-05
6.54685e-05
-3.09236e-05
6.78122e-05
-3.10523e-05
6.88523e-05
-3.10291e-05
6.9312e-05
-3.13219e-05
6.96059e-05
-3.21738e-05
7.00249e-05
-3.35262e-05
7.08353e-05
-3.51218e-05
7.22321e-05
-3.66982e-05
7.42568e-05
-3.81191e-05
7.68515e-05
-3.9353e-05
8.00001e-05
-4.04049e-05
8.37308e-05
-4.13355e-05
8.79911e-05
-4.22896e-05
9.26392e-05
-4.34202e-05
9.7523e-05
-4.48326e-05
-4.66326e-05
0.000102474
2.09197e-07
5.82591e-05
4.65482e-06
2.7114e-05
1.31186e-05
-1.9762e-06
2.42477e-05
-2.21599e-05
3.56622e-05
-3.31695e-05
4.53414e-05
-3.71565e-05
5.24159e-05
-3.71233e-05
5.70053e-05
-3.55131e-05
5.97898e-05
-3.38369e-05
6.15928e-05
-3.28321e-05
6.30349e-05
-3.2764e-05
6.44689e-05
-3.36079e-05
6.60773e-05
-3.51346e-05
6.79708e-05
-3.70153e-05
7.02214e-05
-3.89489e-05
7.28499e-05
-4.07476e-05
7.58372e-05
-4.23403e-05
7.91644e-05
-4.3732e-05
8.28126e-05
-4.49836e-05
8.67299e-05
-4.62069e-05
9.08388e-05
-4.75291e-05
9.50578e-05
-4.90516e-05
-5.08482e-05
9.92734e-05
5.02228e-07
5.77568e-05
3.64683e-06
2.39693e-05
1.1338e-05
-9.66742e-06
2.15167e-05
-3.23385e-05
3.15231e-05
-4.3176e-05
3.9723e-05
-4.53565e-05
4.56859e-05
-4.30863e-05
4.97874e-05
-3.96146e-05
5.27115e-05
-3.6761e-05
5.51077e-05
-3.52283e-05
5.74141e-05
-3.50705e-05
5.98372e-05
-3.60309e-05
6.24334e-05
-3.77308e-05
6.52019e-05
-3.97839e-05
6.81345e-05
-4.18816e-05
7.12242e-05
-4.38375e-05
7.44675e-05
-4.55837e-05
7.787e-05
-4.71345e-05
8.144e-05
-4.85536e-05
8.51646e-05
-4.99315e-05
8.89958e-05
-5.13602e-05
9.2856e-05
-5.29116e-05
-5.46336e-05
9.66416e-05
1.22467e-06
5.65321e-05
3.93761e-06
2.12564e-05
1.101e-05
-1.67398e-05
2.01545e-05
-4.1483e-05
2.87378e-05
-5.17593e-05
3.54639e-05
-5.20826e-05
4.03098e-05
-4.79322e-05
4.38835e-05
-4.31882e-05
4.68676e-05
-3.9745e-05
4.9751e-05
-3.81117e-05
5.2774e-05
-3.80935e-05
5.59811e-05
-3.9238e-05
5.93142e-05
-4.1064e-05
6.26986e-05
-4.31683e-05
6.60886e-05
-4.52717e-05
6.94758e-05
-4.72248e-05
7.28768e-05
-4.89849e-05
7.63193e-05
-5.0577e-05
7.98254e-05
-5.20597e-05
8.33967e-05
-5.35029e-05
8.70081e-05
-5.49716e-05
9.0611e-05
-5.65144e-05
-5.81602e-05
9.41377e-05
1.74937e-06
5.47828e-05
4.69416e-06
1.83117e-05
1.14497e-05
-2.34953e-05
1.96378e-05
-4.96711e-05
2.68272e-05
-5.89486e-05
3.2155e-05
-5.74104e-05
3.59983e-05
-5.17754e-05
3.91394e-05
-4.63292e-05
4.22071e-05
-4.28127e-05
4.55115e-05
-4.1416e-05
4.90988e-05
-4.16807e-05
5.28688e-05
-4.3008e-05
5.66828e-05
-4.4878e-05
6.04343e-05
-4.692e-05
6.40771e-05
-4.89146e-05
6.76176e-05
-5.07655e-05
7.10928e-05
-5.24602e-05
7.45463e-05
-5.40306e-05
7.80118e-05
-5.55252e-05
8.15012e-05
-5.69924e-05
8.50016e-05
-5.84722e-05
8.84784e-05
-5.99912e-05
-6.15633e-05
9.18816e-05
2.07533e-06
5.27075e-05
5.63437e-06
1.47528e-05
1.22938e-05
-3.01547e-05
1.95901e-05
-5.69672e-05
2.54428e-05
-6.48013e-05
2.95123e-05
-6.14798e-05
3.25475e-05
-5.48104e-05
3.54179e-05
-4.91995e-05
3.86272e-05
-4.60219e-05
4.22866e-05
-4.50753e-05
4.62712e-05
-4.56653e-05
5.03799e-05
-4.71166e-05
5.44392e-05
-4.89373e-05
5.83497e-05
-5.08307e-05
6.20879e-05
-5.26529e-05
6.56821e-05
-5.43599e-05
6.91831e-05
-5.59613e-05
7.26399e-05
-5.74875e-05
7.60861e-05
-5.89715e-05
7.95341e-05
-6.04406e-05
8.29766e-05
-6.19147e-05
8.63908e-05
-6.34052e-05
-6.49162e-05
8.97437e-05
2.313e-06
5.03945e-05
6.61343e-06
1.04525e-05
1.32759e-05
-3.6817e-05
1.9713e-05
-6.34043e-05
2.43168e-05
-6.94051e-05
2.73197e-05
-6.44826e-05
2.97789e-05
-5.72694e-05
3.25476e-05
-5.19681e-05
3.59396e-05
-4.94137e-05
3.9866e-05
-4.90016e-05
4.40736e-05
-4.98728e-05
4.83148e-05
-5.13578e-05
5.24271e-05
-5.30495e-05
5.63444e-05
-5.47481e-05
6.0074e-05
-5.63825e-05
6.36611e-05
-5.79471e-05
6.71598e-05
-5.94601e-05
7.06145e-05
-6.09423e-05
7.40528e-05
-6.24098e-05
7.74845e-05
-6.38725e-05
8.09058e-05
-6.53359e-05
8.43025e-05
-6.6802e-05
-6.82668e-05
8.76532e-05
2.48996e-06
4.79047e-05
7.53288e-06
5.40968e-06
1.4189e-05
-4.34731e-05
1.97829e-05
-6.89981e-05
2.32677e-05
-7.28898e-05
2.54404e-05
-6.66553e-05
2.75637e-05
-5.93926e-05
3.03687e-05
-5.4773e-05
3.39408e-05
-5.29857e-05
3.80187e-05
-5.30794e-05
4.22786e-05
-5.41326e-05
4.6481e-05
-5.55603e-05
5.05071e-05
-5.70756e-05
5.43343e-05
-5.85754e-05
5.79955e-05
-6.00438e-05
6.15422e-05
-6.14939e-05
6.50219e-05
-6.29399e-05
6.84689e-05
-6.43895e-05
7.19029e-05
-6.58439e-05
7.53314e-05
-6.7301e-05
7.87534e-05
-6.87579e-05
8.21621e-05
-7.02106e-05
-7.16479e-05
8.55431e-05
2.59843e-06
4.53063e-05
8.3151e-06
-3.06911e-07
1.48977e-05
-5.00556e-05
1.96762e-05
-7.37766e-05
2.22224e-05
-7.54358e-05
2.38295e-05
-6.82623e-05
2.58319e-05
-6.13949e-05
2.87514e-05
-5.76924e-05
3.24457e-05
-5.668e-05
3.65376e-05
-5.71712e-05
4.06966e-05
-5.82916e-05
4.47342e-05
-5.95979e-05
4.85894e-05
-6.09307e-05
5.22776e-05
-6.22637e-05
5.58445e-05
-6.36108e-05
5.93364e-05
-6.49859e-05
6.27891e-05
-6.63928e-05
6.62263e-05
-6.78268e-05
6.96616e-05
-6.92793e-05
7.31018e-05
-7.07413e-05
7.6549e-05
-7.2205e-05
8e-05
-7.36616e-05
-7.50918e-05
8.3444e-05
2.74349e-06
4.25629e-05
8.96443e-06
-6.52779e-06
1.5372e-05
-5.64632e-05
1.93869e-05
-7.77914e-05
2.12079e-05
-7.72568e-05
2.25055e-05
-6.95598e-05
2.45436e-05
-6.34329e-05
2.75838e-05
-6.07326e-05
3.12988e-05
-6.03949e-05
3.52685e-05
-6.11409e-05
3.92122e-05
-6.22352e-05
4.30137e-05
-6.33993e-05
4.66649e-05
-6.45819e-05
5.02034e-05
-6.58022e-05
5.36732e-05
-6.70805e-05
5.71088e-05
-6.84216e-05
6.05339e-05
-6.9818e-05
6.39644e-05
-7.12574e-05
6.74111e-05
-7.2726e-05
7.08811e-05
-7.42113e-05
7.43782e-05
-7.5702e-05
7.79002e-05
-7.71836e-05
-7.86294e-05
8.14378e-05
2.98071e-06
3.95822e-05
9.56183e-06
-1.31089e-05
1.56776e-05
-6.25789e-05
1.89938e-05
-8.11076e-05
2.02988e-05
-7.85618e-05
2.14917e-05
-7.07526e-05
2.36437e-05
-6.55848e-05
2.67517e-05
-6.38405e-05
3.03738e-05
-6.40169e-05
3.41181e-05
-6.48852e-05
3.77868e-05
-6.59038e-05
4.13344e-05
-6.69469e-05
4.47872e-05
-6.80347e-05
4.81865e-05
-6.92015e-05
5.15657e-05
-7.04597e-05
5.49465e-05
-7.18024e-05
5.83441e-05
-7.32156e-05
6.17704e-05
-7.46837e-05
6.52357e-05
-7.61913e-05
6.87481e-05
-7.77237e-05
7.23116e-05
-7.92656e-05
7.59245e-05
-8.07964e-05
-8.22836e-05
7.95788e-05
3.35219e-06
3.623e-05
1.01949e-05
-1.99515e-05
1.59235e-05
-6.83076e-05
1.86003e-05
-8.37843e-05
1.95554e-05
-7.95168e-05
2.07704e-05
-7.19676e-05
2.30412e-05
-6.78555e-05
2.61351e-05
-6.69344e-05
2.95725e-05
-6.74542e-05
3.30385e-05
-6.83511e-05
3.64243e-05
-6.92896e-05
3.9736e-05
-7.02586e-05
4.30121e-05
-7.13108e-05
4.62855e-05
-7.24749e-05
4.95764e-05
-7.37506e-05
5.28977e-05
-7.51236e-05
5.62605e-05
-7.65784e-05
5.96761e-05
-7.80993e-05
6.31561e-05
-7.96713e-05
6.67096e-05
-8.12772e-05
7.03411e-05
-8.28972e-05
7.40514e-05
-8.45067e-05
-8.60675e-05
7.78353e-05
3.88206e-06
3.2348e-05
1.0931e-05
-2.70004e-05
1.61994e-05
-7.35759e-05
1.82747e-05
-8.58595e-05
1.89877e-05
-8.02298e-05
2.02771e-05
-7.32569e-05
2.26234e-05
-7.02017e-05
2.56225e-05
-6.99334e-05
2.88207e-05
-7.06525e-05
3.20007e-05
-7.15311e-05
3.51269e-05
-7.24159e-05
3.82315e-05
-7.33632e-05
4.13488e-05
-7.44282e-05
4.44992e-05
-7.56252e-05
4.76936e-05
-7.69449e-05
5.09409e-05
-7.83708e-05
5.4252e-05
-7.98896e-05
5.76396e-05
-8.14869e-05
6.11173e-05
-8.31489e-05
6.46959e-05
-8.4856e-05
6.83831e-05
-8.65845e-05
7.21865e-05
-8.83101e-05
-8.99879e-05
7.6107e-05
4.54959e-06
2.77984e-05
1.17862e-05
-3.4237e-05
1.65302e-05
-7.83199e-05
1.8022e-05
-8.73513e-05
1.85563e-05
-8.07641e-05
1.99234e-05
-7.4624e-05
2.2283e-05
-7.25612e-05
2.51247e-05
-7.27751e-05
2.80636e-05
-7.35914e-05
3.09757e-05
-7.44432e-05
3.38725e-05
-7.53127e-05
3.67914e-05
-7.6282e-05
3.97555e-05
-7.73923e-05
4.27749e-05
-7.86445e-05
4.58565e-05
-8.00263e-05
4.90091e-05
-8.15233e-05
5.22455e-05
-8.3126e-05
5.558e-05
-8.48214e-05
5.90291e-05
-8.6598e-05
6.26072e-05
-8.84343e-05
6.63291e-05
-9.03064e-05
7.02145e-05
-9.21956e-05
-9.40506e-05
7.42773e-05
5.30734e-06
2.24911e-05
1.27135e-05
-4.16433e-05
1.68673e-05
-8.24737e-05
1.77917e-05
-8.82757e-05
1.81954e-05
-8.11678e-05
1.96235e-05
-7.60521e-05
2.19353e-05
-7.48731e-05
2.45791e-05
-7.54188e-05
2.72605e-05
-7.62728e-05
2.99301e-05
-7.71128e-05
3.26215e-05
-7.80042e-05
3.53646e-05
-7.90251e-05
3.81714e-05
-8.01991e-05
4.10469e-05
-8.15199e-05
4.39976e-05
-8.29769e-05
4.7034e-05
-8.45596e-05
5.01709e-05
-8.62628e-05
5.3424e-05
-8.80746e-05
5.68133e-05
-8.99873e-05
6.03598e-05
-9.19809e-05
6.40892e-05
-9.40358e-05
6.80375e-05
-9.61439e-05
-9.82548e-05
7.22417e-05
6.10482e-06
1.63863e-05
1.36198e-05
-4.91583e-05
1.71124e-05
-8.59663e-05
1.75078e-05
-8.8671e-05
1.7837e-05
-8.1497e-05
1.93068e-05
-7.75219e-05
2.15209e-05
-7.70872e-05
2.3946e-05
-7.78439e-05
2.63837e-05
-7.87105e-05
2.88349e-05
-7.95641e-05
3.13362e-05
-8.05056e-05
3.3906e-05
-8.15949e-05
3.65489e-05
-8.28419e-05
3.92685e-05
-8.42394e-05
4.20725e-05
-8.57808e-05
4.49729e-05
-8.74599e-05
4.7985e-05
-8.92748e-05
5.1127e-05
-9.12165e-05
5.44221e-05
-9.32824e-05
5.79018e-05
-9.54607e-05
6.16034e-05
-9.77373e-05
6.55806e-05
-0.000100121
-0.000102574
6.98993e-05
6.89605e-06
9.49025e-06
1.43892e-05
-5.66514e-05
1.71545e-05
-8.87316e-05
1.71007e-05
-8.86173e-05
1.74262e-05
-8.18226e-05
1.89204e-05
-7.90161e-05
2.10011e-05
-7.91678e-05
2.32039e-05
-8.00468e-05
2.54184e-05
-8.09251e-05
2.7672e-05
-8.18178e-05
2.99934e-05
-8.28271e-05
3.23907e-05
-8.39923e-05
3.48648e-05
-8.53161e-05
3.74198e-05
-8.67943e-05
4.00636e-05
-8.84246e-05
4.2809e-05
-9.02051e-05
4.56705e-05
-9.21362e-05
4.86699e-05
-9.42158e-05
5.18335e-05
-9.6446e-05
5.52055e-05
-9.88327e-05
5.88303e-05
-0.000101362
6.27802e-05
-0.000104071
-0.000106934
6.71408e-05
7.62991e-06
1.8603e-06
1.49039e-05
-6.39255e-05
1.69037e-05
-9.07315e-05
1.65285e-05
-8.8242e-05
1.69263e-05
-8.22204e-05
1.84277e-05
-8.05176e-05
2.03545e-05
-8.10946e-05
2.23463e-05
-8.20386e-05
2.43619e-05
-8.29407e-05
2.64362e-05
-8.38921e-05
2.85861e-05
-8.49772e-05
3.08128e-05
-8.62191e-05
3.31158e-05
-8.76192e-05
3.54992e-05
-8.91776e-05
3.79701e-05
-9.08954e-05
4.05406e-05
-9.27755e-05
4.32246e-05
-9.482e-05
4.60477e-05
-9.70388e-05
4.90382e-05
-9.94365e-05
5.22518e-05
-0.000102046
5.57338e-05
-0.000104844
5.95746e-05
-0.000107912
-0.000111216
6.38569e-05
8.24633e-06
-6.38605e-06
1.50665e-05
-7.07456e-05
1.63162e-05
-9.19813e-05
1.57844e-05
-8.77103e-05
1.63179e-05
-8.27539e-05
1.78078e-05
-8.20075e-05
1.95759e-05
-8.28627e-05
2.13787e-05
-8.38414e-05
2.32207e-05
-8.47827e-05
2.51319e-05
-8.58034e-05
2.71185e-05
-8.6964e-05
2.91777e-05
-8.82784e-05
3.13082e-05
-8.97497e-05
3.35131e-05
-9.13824e-05
3.57978e-05
-9.318e-05
3.81728e-05
-9.51503e-05
4.06516e-05
-9.72986e-05
4.32615e-05
-9.96487e-05
4.60324e-05
-0.000102207
4.90237e-05
-0.000105038
5.22806e-05
-0.000108101
5.59033e-05
-0.000111534
-0.000115275
5.99616e-05
8.65835e-06
-1.50444e-05
1.48178e-05
-7.6905e-05
1.54039e-05
-9.25674e-05
1.4892e-05
-8.71984e-05
1.55967e-05
-8.34586e-05
1.70557e-05
-8.34665e-05
1.86735e-05
-8.44805e-05
2.03147e-05
-8.54827e-05
2.20067e-05
-8.64747e-05
2.37687e-05
-8.75655e-05
2.55996e-05
-8.8795e-05
2.74943e-05
-9.01732e-05
2.94509e-05
-9.17063e-05
3.14702e-05
-9.34016e-05
3.35556e-05
-9.52652e-05
3.57151e-05
-9.73096e-05
3.79614e-05
-9.95449e-05
4.03195e-05
-0.000102007
4.28199e-05
-0.000104708
4.55131e-05
-0.000107731
4.84515e-05
-0.000111039
5.17233e-05
-0.000114806
-0.000118962
5.54112e-05
8.83258e-06
-2.38769e-05
1.41633e-05
-8.22356e-05
1.42327e-05
-9.26367e-05
1.38926e-05
-8.68583e-05
1.47692e-05
-8.43353e-05
1.61804e-05
-8.48776e-05
1.76651e-05
-8.59653e-05
1.9172e-05
-8.69896e-05
2.07331e-05
-8.80358e-05
2.23572e-05
-8.91897e-05
2.40388e-05
-9.04767e-05
2.5772e-05
-9.19065e-05
2.75534e-05
-9.34877e-05
2.93812e-05
-9.52294e-05
3.12565e-05
-9.71405e-05
3.31837e-05
-9.92368e-05
3.51737e-05
-0.000101535
3.72435e-05
-0.000104077
3.94218e-05
-0.000106886
4.17388e-05
-0.000110048
4.42588e-05
-0.000113559
4.70325e-05
-0.000117579
-0.000122127
5.01976e-05
8.75323e-06
-3.26301e-05
1.31607e-05
-8.66431e-05
1.28989e-05
-9.23748e-05
1.28308e-05
-8.67902e-05
1.38501e-05
-8.53545e-05
1.52013e-05
-8.62289e-05
1.65734e-05
-8.73375e-05
1.79683e-05
-8.83844e-05
1.94126e-05
-8.94801e-05
2.09074e-05
-9.06846e-05
2.24454e-05
-9.20149e-05
2.40203e-05
-9.34815e-05
2.56269e-05
-9.50942e-05
2.72608e-05
-9.68633e-05
2.89203e-05
-9.88001e-05
3.06053e-05
-0.000100922
3.23221e-05
-0.000103252
3.40759e-05
-0.000105831
3.58876e-05
-0.000108698
3.77609e-05
-0.000111921
3.97616e-05
-0.00011556
4.18917e-05
-0.00011971
-0.000124576
4.43409e-05
8.43983e-06
-4.10699e-05
1.19075e-05
-9.01109e-05
1.15045e-05
-9.19719e-05
1.17442e-05
-8.70299e-05
1.28591e-05
-8.64694e-05
1.41439e-05
-8.75137e-05
1.54217e-05
-8.86153e-05
1.672e-05
-8.96827e-05
1.80569e-05
-9.0817e-05
1.94291e-05
-9.20569e-05
2.08293e-05
-9.34153e-05
2.22504e-05
-9.49027e-05
2.36858e-05
-9.65297e-05
2.51289e-05
-9.83064e-05
2.65744e-05
-0.000100246
2.80173e-05
-0.000102365
2.94558e-05
-0.00010469
3.08824e-05
-0.000107257
3.23002e-05
-0.000110115
3.36888e-05
-0.00011331
3.50858e-05
-0.000116957
3.64533e-05
-0.000121077
-0.000126071
3.79482e-05
7.93917e-06
-4.90092e-05
1.05175e-05
-9.26893e-05
1.01354e-05
-9.15898e-05
1.06604e-05
-8.75548e-05
1.18196e-05
-8.76285e-05
1.30354e-05
-8.87296e-05
1.42317e-05
-8.98117e-05
1.54423e-05
-9.08935e-05
1.66776e-05
-9.20524e-05
1.79329e-05
-9.33123e-05
1.92012e-05
-9.46838e-05
2.04753e-05
-9.61769e-05
2.17473e-05
-9.78017e-05
2.30087e-05
-9.95678e-05
2.42508e-05
-0.000101488
2.54635e-05
-0.000103577
2.66349e-05
-0.000105862
2.77452e-05
-0.000108367
2.87734e-05
-0.000111143
2.96798e-05
-0.000114216
3.04434e-05
-0.00011772
3.09996e-05
-0.000121633
-0.000126424
3.13522e-05
7.29841e-06
-5.63076e-05
9.09594e-06
-9.44869e-05
8.84914e-06
-9.1343e-05
9.59761e-06
-8.83032e-05
1.07552e-05
-8.87861e-05
1.1901e-05
-8.98754e-05
1.30222e-05
-9.0933e-05
1.4149e-05
-9.20203e-05
1.52862e-05
-9.31897e-05
1.64294e-05
-9.44557e-05
1.75725e-05
-9.5827e-05
1.87084e-05
-9.73128e-05
1.98285e-05
-9.89217e-05
2.09231e-05
-0.000100662
2.19807e-05
-0.000102545
2.29866e-05
-0.000104583
2.39197e-05
-0.000106795
2.47503e-05
-0.000109198
2.54348e-05
-0.000111828
2.59196e-05
-0.000114701
2.61203e-05
-0.000117921
2.59473e-05
-0.00012146
-0.00012568
2.52033e-05
6.57813e-06
-6.28858e-05
7.72837e-06
-9.56372e-05
7.67522e-06
-9.12899e-05
8.56788e-06
-8.91959e-05
9.68788e-06
-8.99062e-05
1.07617e-05
-9.09493e-05
1.18088e-05
-9.19801e-05
1.28517e-05
-9.30632e-05
1.38926e-05
-9.42307e-05
1.49282e-05
-9.54913e-05
1.59532e-05
-9.6852e-05
1.6961e-05
-9.83206e-05
1.79433e-05
-9.9904e-05
1.889e-05
-0.000101609
1.97879e-05
-0.000103443
2.06191e-05
-0.000105414
2.13569e-05
-0.000107532
2.19662e-05
-0.000109807
2.23924e-05
-0.000112254
2.25738e-05
-0.000114882
2.23913e-05
-0.000117739
2.17313e-05
-0.0001208
-0.000124224
2.02754e-05
5.83204e-06
-6.87178e-05
6.47101e-06
-9.62762e-05
6.61994e-06
-9.14388e-05
7.57884e-06
-9.01549e-05
8.63495e-06
-9.09624e-05
9.63283e-06
-9.19472e-05
1.06026e-05
-9.29498e-05
1.15595e-05
-9.40201e-05
1.25049e-05
-9.51761e-05
1.34365e-05
-9.64228e-05
1.43503e-05
-9.77658e-05
1.52407e-05
-9.92109e-05
1.61002e-05
-0.000100764
1.69191e-05
-0.000102428
1.76839e-05
-0.000104208
1.83758e-05
-0.000106106
1.89678e-05
-0.000108124
1.94251e-05
-0.000110265
1.96966e-05
-0.000112526
1.97223e-05
-0.000114908
1.93908e-05
-0.000117407
1.85834e-05
-0.000119993
-0.000122646
1.70052e-05
5.09984e-06
-7.38177e-05
5.35476e-06
-9.65311e-05
5.67565e-06
-9.17596e-05
6.63484e-06
-9.11141e-05
7.60861e-06
-9.19363e-05
8.52442e-06
-9.2863e-05
9.41114e-06
-9.38365e-05
1.02788e-05
-9.48877e-05
1.11285e-05
-9.60257e-05
1.19592e-05
-9.72535e-05
1.27681e-05
-9.85747e-05
1.3551e-05
-9.99939e-05
1.43016e-05
-0.000101514
1.5011e-05
-0.000103138
1.56668e-05
-0.000104864
1.62516e-05
-0.000106691
1.67429e-05
-0.000108616
1.71114e-05
-0.000110633
1.73197e-05
-0.000112734
1.73202e-05
-0.000114908
1.70371e-05
-0.000117124
1.63792e-05
-0.000119335
-0.000121437
1.51705e-05
4.40842e-06
-7.82262e-05
4.39384e-06
-9.65165e-05
4.82969e-06
-9.21955e-05
5.73732e-06
-9.20218e-05
6.61556e-06
-9.28145e-05
7.44184e-06
-9.36893e-05
8.23897e-06
-9.46336e-05
9.01351e-06
-9.56622e-05
9.76694e-06
-9.67792e-05
1.04992e-05
-9.79857e-05
1.12086e-05
-9.92843e-05
1.18922e-05
-0.000100677
1.25447e-05
-0.000102167
1.31585e-05
-0.000103751
1.37231e-05
-0.000105428
1.42247e-05
-0.000107193
1.46468e-05
-0.000109038
1.49693e-05
-0.000110956
1.51699e-05
-0.000112934
1.5219e-05
-0.000114958
1.50802e-05
-0.000116985
1.47096e-05
-0.000118964
-0.000120779
1.4052e-05
3.76971e-06
-8.19959e-05
3.57248e-06
-9.63192e-05
4.06555e-06
-9.26885e-05
4.8845e-06
-9.28407e-05
5.65758e-06
-9.35876e-05
6.38682e-06
-9.44186e-05
7.08813e-06
-9.5335e-05
7.76611e-06
-9.63403e-05
8.42246e-06
-9.74357e-05
9.05783e-06
-9.86212e-05
9.67153e-06
-9.9898e-05
1.02612e-05
-0.000101267
1.08225e-05
-0.000102728
1.13492e-05
-0.000104278
1.18331e-05
-0.000105912
1.22644e-05
-0.000107624
1.26324e-05
-0.000109406
1.29255e-05
-0.000111249
1.31324e-05
-0.000113141
1.32387e-05
-0.000115064
1.32348e-05
-0.000116981
1.31166e-05
-0.000118846
-0.000120563
1.28999e-05
3.18279e-06
-8.51786e-05
2.86695e-06
-9.60032e-05
3.36543e-06
-9.31869e-05
4.07157e-06
-9.35468e-05
4.73252e-06
-9.42486e-05
5.35807e-06
-9.50443e-05
5.95831e-06
-9.59354e-05
6.53669e-06
-9.69187e-05
7.09498e-06
-9.7994e-05
7.63413e-06
-9.91604e-05
8.15387e-06
-0.000100418
8.65224e-06
-0.000101766
9.12564e-06
-0.000103202
9.56903e-06
-0.000104722
9.97636e-06
-0.00010632
1.03411e-05