/*--------------------------------*- C++ -*----------------------------------*\
| =========                 |                                                 |
| \\      /  F ield         | OpenFOAM: The Open Source CFD Toolbox           |
|  \\    /   O peration     | Version:  2206                                  |
|   \\  /    A nd           | Website:  www.openfoam.com                      |
|    \\/     M anipulation  |                                                 |
\*---------------------------------------------------------------------------*/
FoamFile
{
    version     2.0;
    format      ascii;
    arch        "LSB;label=32;scalar=64";
    class       volScalarField;
    location    "0.175";
    object      alpha.water;
}
// * * * * * * * * * * * * * * * * * * * * * * * * * * * * * * * * * * * * * //

dimensions      [0 0 0 0 0 0 0];

internalField   nonuniform List<scalar> 
2268
(
1
1
1
1
1
1
1
0.999999
0.999999
0.999999
0.999999
1
1
1
1
1
1
1
1
0.999995
0.999999
0.938063
0.699653
1
1
1
1
1
1
1
1
1
1
1
1
1
1
1
1
1
1
1
0.999995
1
0.999999
0.798371
1
1
1
1
1
1
1
1
1
1
1
1
1
1
1
1
1
1
1
0.999998
1
1
0.855399
1
1
1
1
1
1
1
1
1
1
1
1
1
1
1
1
1
1
1
1
1
1
0.879168
1
1
1
1
1
1
1
1
1
1
1
1
1
1
1
1
1
1
1
1
1
1
0.876854
1
1
1
1
1
1
1
1
1
1
1
1
1
1
1
1
1
1
1
1
1
1
0.877948
1
1
1
1
1
1
1
1
1
1
1
1
1
1
1
1
1
1
1
0.999987
1
1
0.940431
1
1
1
1
1
1
1
1
1
1
1
1
1
1
1
1
1
1
0.999999
0.999841
0.99992
0.999999
0.999994
2.96314e-17
7.43135e-18
1.24501e-18
9.18928e-20
3.36602e-21
1.38404e-22
7.8528e-24
4.71352e-25
2.48246e-26
1.09857e-27
4.11153e-29
1.30192e-30
3.44577e-32
7.48721e-34
1.29759e-35
1.70445e-37
1.55566e-39
7.39864e-42
3.53608e-42
4.08788e-16
5.21052e-16
1.47077e-16
1.40039e-17
4.84811e-19
1.53849e-20
6.79986e-22
3.40131e-23
1.60197e-24
6.61666e-26
2.35228e-27
7.11245e-29
1.79985e-30
3.71847e-32
6.01927e-34
7.11975e-36
5.39856e-38
1.68698e-40
3.57898e-42
9.99435e-15
2.03999e-14
1.25542e-14
2.96424e-15
7.25722e-17
1.16642e-18
3.20599e-20
1.15023e-21
4.37406e-23
1.58064e-24
5.12754e-26
1.44131e-27
3.41144e-29
6.54905e-31
9.72944e-33
1.00581e-34
7.03697e-37
2.61422e-39
8.55944e-41
9.56058e-14
9.26886e-13
1.98821e-12
2.85665e-13
3.7894e-15
4.55158e-17
1.06344e-18
3.00227e-20
9.0714e-22
2.77693e-23
8.01081e-25
2.05501e-26
4.49762e-28
7.97953e-30
1.14274e-31
1.29059e-33
9.87209e-36
3.31383e-38
1.91422e-39
1.73034e-12
2.62314e-11
5.22412e-11
2.48887e-12
3.87316e-14
6.67455e-16
1.9061e-17
5.2196e-19
1.36268e-20
3.63838e-22
9.39036e-24
2.2188e-25
4.64144e-27
8.49949e-29
1.28571e-30
1.46564e-32
1.09393e-34
2.83568e-37
3.0301e-38
8.58291e-11
5.59313e-10
1.02589e-10
3.62113e-12
1.74263e-13
6.61024e-15
2.00894e-16
5.91914e-18
1.52687e-19
3.67233e-21
8.63362e-23
1.98218e-24
4.24689e-26
7.89388e-28
1.18577e-29
1.33137e-31
9.70263e-34
2.80913e-36
3.66804e-37
4.93665e-10
9.51322e-10
1.83626e-10
1.84018e-12
5.97355e-13
6.69424e-14
1.3814e-15
4.6899e-17
1.74287e-18
4.43189e-20
9.43171e-22
1.91489e-23
3.69093e-25
6.36508e-27
9.1582e-29
1.00012e-30
7.11265e-33
2.38039e-35
3.55383e-36
5.41503e-10
6.40851e-10
2.55423e-11
1.16235e-12
1.0878e-12
3.02787e-13
5.84306e-15
2.16888e-16
1.28393e-17
4.44525e-19
1.1766e-20
2.5606e-22
4.64535e-24
6.93366e-26
8.39201e-28
7.73431e-30
4.67053e-32
1.39062e-34
2.76385e-35
1
1
1
1
1
1
1
1
1
1
1
1
1
1
1
1
0.999999
1
0.999999
0.999994
0.999988
0.999993
0.999988
1
1
1
1
1
1
1
1
1
1
1
1
1
1
1
0.999997
0.999985
0.999973
0.99539
0.987448
0.970078
0.999991
0.998451
1
1
1
1
1
1
1
1
1
1
1
1
1
0.999999
0.99999
0.999928
0.999583
0.972311
0.788311
0.441055
0.241054
0.275194
0.842337
1
1
1
1
1
1
1
1
1
1
1
1
0.999999
0.999988
0.999858
0.998843
0.896322
0.423535
0.0189294
0.00198809
0.00395638
0.00812345
0.54605
1
1
1
1
1
1
1
1
1
1
0.999999
0.999998
0.999988
0.999881
0.998522
0.846646
0.217091
0.00328749
0.000449483
0.000164706
0.000632308
0.0017578
0.10755
1
1
1
1
1
1
1
1
0.999999
0.999998
0.999994
0.999978
0.999882
0.998985
0.855237
0.186007
0.002242
0.000237729
1.91766e-05
1.03319e-05
8.80659e-05
0.000406203
0.00164236
1
1
1
1
0.999999
0.999999
0.999998
0.999996
0.999992
0.999979
0.999936
0.999808
0.998985
0.919751
0.189856
0.00178373
0.000172932
8.25853e-06
8.03934e-08
1.19418e-06
1.03414e-05
7.33497e-05
0.000400032
0.999999
0.999996
0.999997
0.999996
0.999994
0.999991
0.999983
0.999966
0.999929
0.999809
0.999474
0.998465
0.987474
0.253636
0.0017827
0.000166111
8.69755e-06
1.71303e-07
6.21291e-08
4.72528e-07
9.08547e-07
1.28259e-05
7.70231e-05
0.999986
0.999964
0.999967
0.999961
0.999945
0.999909
0.999836
0.999691
0.999391
0.998443
0.995734
0.932927
0.488661
0.0103118
0.000204233
1.06484e-05
5.22987e-08
2.19418e-08
1.28774e-08
6.81935e-08
5.5751e-07
1.88605e-05
3.14716e-05
0.999834
0.999664
0.999683
0.999623
0.999471
0.999156
0.998532
0.997353
0.981012
0.879671
0.634952
0.280342
0.000257568
0.000869512
0.000284756
1.77342e-06
1.71965e-08
8.11389e-09
4.35521e-09
1.29068e-08
8.87279e-08
8.92454e-06
2.95517e-05
0.998207
0.994361
0.993856
0.98604
0.965487
0.920374
0.83416
0.68709
0.451873
0.19765
0.0152478
7.97146e-06
5.91903e-06
0.00309792
0.00680189
0.000746369
2.51331e-07
1.93083e-09
1.20559e-09
4.27053e-09
2.26141e-08
1.38903e-07
2.38255e-05
0.676456
0.554589
0.539158
0.461497
0.360362
0.247787
0.137356
0.0419726
4.7612e-09
2.2564e-08
8.47221e-07
3.78388e-06
5.91903e-06
0.00413565
0.00792738
0.00287998
1.7463e-06
4.9942e-10
2.64614e-10
1.20162e-09
7.64589e-09
8.68206e-08
2.41176e-06
0.0336927
0.00147175
1.89722e-18
1.33712e-17
1.12163e-15
6.76384e-14
2.40204e-12
1.12956e-10
2.94323e-09
4.8045e-09
2.45494e-08
8.47221e-07
3.78388e-06
0.000558712
0.00796415
0.0041365
3.29812e-06
2.00667e-10
1.16831e-10
3.54101e-10
2.64332e-09
2.88047e-08
4.67609e-07
-8.13899e-20
-1.11543e-19
-6.64907e-26
8.64929e-20
1.34119e-17
1.11918e-15
5.47301e-14
-4.36887e-12
-7.79637e-12
3.01977e-09
9.3567e-08
4.22169e-06
6.18867e-06
8.78947e-06
0.00742832
0.00403397
1.25596e-05
1.78939e-07
6.90863e-11
1.69689e-10
1.21698e-09
1.29677e-08
2.64043e-07
-1.49684e-19
-3.27715e-19
4.00327e-19
7.68876e-17
6.13008e-15
3.24896e-13
4.49942e-13
-3.04294e-11
-6.74408e-10
1.9162e-08
8.24366e-06
0.000289448
0.000101292
1.01848e-05
0.00298794
0.00342532
4.40003e-08
6.38481e-11
3.25774e-11
2.66977e-10
6.28215e-10
5.22283e-09
1.07914e-07
-1.69579e-19
-7.76933e-19
7.66087e-18
1.08892e-15
9.66604e-14
4.96494e-12
1.10823e-10
3.54264e-09
8.14728e-08
1.1653e-07
0.000233985
0.000943011
0.000851559
0.000100604
0.00128766
0.0020295
5.8587e-09
-1.33965e-10
1.12526e-11
2.29318e-10
2.85625e-10
1.54763e-09
1.38258e-08
-2.00173e-19
-1.53265e-18
3.21005e-17
3.83744e-15
2.44312e-13
9.09419e-12
3.38353e-10
1.19082e-08
2.84125e-07
2.00121e-06
0.000448651
0.000944928
0.000944928
0.000944928
0.000755638
2.13322e-05
-8.00693e-10
3.71941e-12
5.16404e-12
9.38668e-11
6.28587e-11
3.32686e-10
2.61805e-09
-3.64784e-19
-2.26201e-18
5.58858e-17
6.21233e-15
2.40431e-13
9.4569e-13
1.93333e-11
9.48302e-10
3.25986e-08
7.64849e-07
0.00025303
0.000943011
0.000944928
0.000382793
6.76013e-07
2.01571e-08
8.81725e-11
-5.58704e-12
5.99376e-13
1.85954e-11
1.26709e-11
5.9405e-11
4.20106e-10
-7.80603e-19
-3.73296e-18
4.94222e-17
5.22131e-15
2.7654e-13
6.71748e-12
5.29271e-11
6.08361e-11
1.89886e-10
1.43943e-09
7.63309e-09
6.34795e-05
0.000122493
7.40903e-07
1.46361e-07
4.10388e-08
1.06224e-11
5.90458e-13
2.10265e-13
3.23428e-12
3.31542e-12
8.18568e-12
5.3862e-11
-1.54507e-18
-1.29749e-17
8.18355e-19
2.28056e-15
7.55811e-13
3.00003e-11
9.29014e-11
6.40056e-11
3.88002e-11
6.73075e-11
1.32588e-10
6.60185e-10
2.83117e-09
5.03138e-06
2.78208e-07
2.22658e-10
8.38483e-13
5.72904e-14
1.20729e-13
5.17079e-13
5.57038e-13
1.41797e-12
1.34262e-11
-2.65121e-18
-4.28357e-17
-9.18177e-34
-8.18355e-19
2.63852e-13
1.53859e-11
5.55769e-11
5.0962e-11
3.19551e-11
3.61291e-11
1.77782e-10
4.265e-10
1.00483e-09
4.95885e-09
1.48177e-09
1.22588e-11
5.75766e-14
1.18363e-14
5.64756e-14
9.05142e-14
7.2287e-14
1.81922e-13
2.63719e-12
-3.36096e-18
-8.65973e-17
-9.25695e-16
-4.89806e-15
-9.99125e-15
1.87139e-16
7.47038e-14
2.85893e-12
2.01781e-11
2.80648e-10
2.46168e-09
4.59519e-09
4.61041e-09
2.16454e-09
9.91574e-13
3.73303e-13
4.55861e-15
4.05549e-15
2.21901e-14
2.21593e-14
1.0595e-14
1.46068e-14
2.42015e-13
-1.92205e-18
-4.84515e-17
-5.04594e-16
-2.5309e-15
-3.81878e-15
3.70123e-16
2.54753e-13
6.04086e-12
2.4261e-11
3.31607e-11
8.06872e-12
1.8429e-12
1.44839e-12
1.23628e-12
1.16997e-12
1.28277e-14
9.78572e-32
1.0392e-15
4.38646e-15
5.13717e-15
1.4284e-15
1.05469e-15
1.73418e-14
-5.2374e-19
-1.30476e-17
-1.33433e-16
-6.40824e-16
-7.5479e-16
-3.18231e-25
2.06629e-14
1.98045e-12
1.93009e-11
4.50819e-11
4.9327e-11
4.21307e-11
1.42332e-11
2.50146e-12
1.25225e-13
0
-7.77334e-16
-8.88549e-15
-3.39591e-15
5.0723e-16
9.87098e-17
6.69605e-17
1.07921e-15
0
6.43005e-39
-3.28577e-36
-2.2861e-32
-3.21035e-26
2.94496e-19
5.26656e-17
8.35134e-14
3.02329e-12
1.84994e-11
3.82431e-11
4.16578e-11
3.56639e-11
9.63899e-12
7.00322e-13
-6.1395e-15
-1.5871e-14
-1.49014e-14
-6.29162e-15
9.2697e-18
2.59032e-18
3.76244e-18
5.70218e-17
1.20195e-30
2.13321e-28
1.88439e-26
1.10418e-24
4.81892e-23
-5.84865e-21
4.25212e-20
6.30153e-18
2.6554e-15
6.89015e-14
3.64923e-13
6.5756e-13
4.02564e-13
1.08735e-13
1.18819e-14
-5.7947e-15
-1.00923e-14
-9.67842e-15
-4.34528e-15
3.57006e-20
2.85622e-20
1.76363e-19
2.53788e-18
8.52241e-34
1.61377e-31
1.39601e-29
7.29205e-28
2.50431e-26
-2.71955e-23
-1.57508e-23
5.54607e-20
2.44662e-17
4.81163e-16
2.41918e-15
5.28993e-15
6.9225e-15
6.85512e-15
1.93191e-15
-5.66033e-16
-2.46201e-15
-3.29765e-15
-1.67995e-15
3.18521e-22
7.6215e-22
6.69778e-21
9.44941e-20
1.04561e-36
-3.434e-34
-8.31872e-32
-8.20981e-30
-5.1806e-28
-5.27059e-26
1.39221e-25
6.50286e-24
1.60119e-21
6.37663e-19
1.48256e-17
8.37483e-17
1.81197e-16
2.23994e-16
1.10766e-16
-1.2493e-16
-3.8943e-16
-6.38198e-16
-3.94099e-16
-5.87513e-21
1.40921e-23
2.05858e-22
2.96856e-21
-1.47465e-37
-3.13318e-35
-3.23374e-33
-2.20823e-31
-1.11986e-29
5.93374e-30
2.30312e-28
1.07489e-26
1.89664e-24
1.73777e-21
6.83443e-20
4.53545e-19
8.48842e-19
1.58698e-19
-3.37249e-18
-1.31494e-17
-3.45612e-17
-7.11515e-17
-5.77234e-17
-3.86409e-21
1.90827e-25
5.09873e-24
7.99281e-23
-6.79435e-39
0
2.90096e-51
-4.65391e-43
-2.94457e-39
-8.46551e-37
-1.54392e-31
9.9372e-28
4.33422e-25
4.00542e-24
-2.86199e-23
-7.34941e-22
-6.21448e-21
-3.38966e-20
-1.44253e-19
-5.24028e-19
-1.66814e-18
-4.42072e-18
-5.29695e-18
-8.3899e-22
1.96739e-28
9.92974e-26
1.97683e-24
-2.30101e-38
-3.08676e-36
-2.00421e-34
-8.37168e-33
-2.52212e-31
-5.82148e-30
-1.06761e-28
-1.59264e-27
-1.96367e-26
-2.02402e-25
-1.76033e-24
-1.30434e-23
-8.33739e-23
-4.67393e-22
-2.3403e-21
-1.05866e-20
-4.27465e-20
-1.43231e-19
-2.98908e-19
-1.02755e-22
-1.99839e-36
1.48425e-27
4.28543e-26
-1.38909e-40
-1.78763e-38
-1.11292e-36
-4.46354e-35
-1.29527e-33
-2.89578e-32
-5.18723e-31
-7.64924e-30
-9.47509e-29
-1.00214e-27
-9.18191e-27
-7.39089e-26
-5.30286e-25
-3.44235e-24
-2.04987e-23
-1.12962e-22
-5.74131e-22
-2.61792e-21
-9.85384e-21
-7.92921e-24
-1.58723e-38
1.49263e-29
8.06119e-28
-5.78591e-43
-6.89989e-41
-4.00629e-39
-1.51245e-37
-4.18057e-36
-9.03498e-35
-1.59269e-33
-2.36035e-32
-3.01018e-31
-3.36754e-30
-3.36014e-29
-3.03557e-28
-2.5174e-27
-1.94038e-26
-1.40405e-25
-9.58349e-25
-6.12974e-24
-3.55557e-23
-1.67842e-22
-3.98705e-25
-1.02659e-40
1.64698e-31
1.31384e-29
-8.37848e-47
-1.17519e-44
-8.00798e-43
-3.54548e-41
-1.14957e-39
-2.91825e-38
-6.06026e-37
-1.06344e-35
-1.61892e-34
-2.18827e-33
-2.68327e-32
-3.04508e-31
-3.25426e-30
-3.31595e-29
-3.23528e-28
-2.99961e-27
-2.57626e-26
-1.92722e-25
-1.0424e-24
-1.30996e-26
-5.54187e-43
1.97661e-33
1.86866e-31
-2.64191e-54
-6.85763e-52
-8.73022e-50
-7.29853e-48
-4.5143e-46
-2.20641e-44
-8.88852e-43
-3.04023e-41
-9.02793e-40
-2.36834e-38
-5.565e-37
-1.18356e-35
-2.29327e-34
-4.05312e-33
-6.49117e-32
-9.24399e-31
-1.12416e-29
-1.06925e-28
-6.26245e-28
-2.75768e-28
-2.59927e-45
2.07089e-35
2.32558e-33
-1.5303e-56
-3.24644e-54
-3.35196e-52
-2.25587e-50
-1.11574e-48
-4.33501e-47
-1.38135e-45
-3.72282e-44
-8.68936e-43
-1.791e-41
-3.31497e-40
-5.59331e-39
-8.72233e-38
-1.27285e-36
-1.75673e-35
-2.31026e-34
-2.9007e-33
-3.45014e-32
-3.78426e-31
-3.55271e-30
-2.96508e-48
1.90824e-37
2.53743e-35
-9.45461e-61
-2.49912e-58
-3.21532e-56
-2.69951e-54
-1.66886e-52
-8.12584e-51
-3.25587e-49
-1.10803e-47
-3.28291e-46
-8.64418e-45
-2.05946e-43
-4.51168e-42
-9.21961e-41
-1.77888e-39
-3.26973e-38
-5.74919e-37
-9.64133e-36
-1.52021e-34
-2.17427e-33
-2.56549e-32
-7.13879e-55
1.55957e-39
2.42726e-37
-2.35159e-66
-9.06898e-64
-1.70386e-61
-2.10043e-59
-1.92014e-57
-1.39312e-55
-8.38196e-54
-4.31501e-52
-1.94633e-50
-7.83898e-49
-2.86291e-47
-9.60164e-46
-2.98715e-44
-8.6848e-43
-2.36961e-41
-6.06629e-40
-1.44695e-38
-3.15357e-37
-5.98583e-36
-8.56512e-35
0
1.1402e-41
2.02563e-39
-9.56522e-73
-5.94663e-70
-1.77252e-67
-3.46087e-65
-5.01761e-63
-5.78247e-61
-5.53179e-59
-4.5279e-57
-3.24315e-55
-2.06827e-53
-1.19049e-51
-6.2507e-50
-3.01734e-48
-1.34567e-46
-5.55142e-45
-2.10995e-43
-7.29458e-42
-2.22657e-40
-5.58832e-39
-9.27799e-38
4.35717e-59
7.50562e-44
1.44973e-41
-4.45293e-80
-4.61475e-77
-2.1916e-74
-6.74777e-72
-1.53786e-69
-2.78258e-67
-4.17591e-65
-5.35644e-63
-6.00282e-61
-5.97585e-59
-5.35199e-57
-4.35298e-55
-3.23535e-53
-2.20326e-51
-1.37187e-49
-7.74e-48
-3.8762e-46
-1.65148e-44
-5.45646e-43
-1.08111e-41
0
4.45559e-46
8.43217e-44
0
0
0
0
-3.76135e-96
-9.07146e-93
-6.08742e-90
-4.41692e-87
-2.26017e-84
-1.01525e-81
-3.63453e-79
-1.12288e-76
-3.06548e-74
-7.53304e-72
-1.69144e-69
-3.51521e-67
4.5147e-56
1.17283e-51
2.03216e-49
2.68683e-48
3.64704e-48
2.74085e-48
3.24299e-46
2.06855e-124
-1.0342e-124
0
-1.65745e-108
-3.78617e-104
-1.33416e-100
-2.99455e-97
-4.75463e-94
-6.62114e-91
-7.36258e-88
-7.06999e-85
-5.99885e-82
-4.57847e-79
-3.18806e-76
-2.05007e-73
-1.22931e-70
-6.45009e-68
4.38574e-60
2.16747e-54
1.67875e-51
8.59657e-50
1.68062e-49
2.74085e-48
0.998904
0.27503
4.56719e-10
4.23413e-10
0.998011
0.800467
0.106962
-1.84754e-07
0.996132
0.957854
0.446162
0.0230223
0.957854
0.907801
0.735159
0.140759
0.762363
0.877174
0.828575
0.259043
0.451983
0.828575
0.762288
0.395646
0.00618725
0.604876
0.731914
0.665818
0.00128513
0.13915
0.606779
0.605981
0.000261608
0.00350974
0.259073
0.505887
6.79302e-05
0.000742387
0.00832378
0.309053
0.000166428
0.000278239
0.00196389
0.0236394
3.74532e-05
0.000345478
0.000915059
0.00333083
3.9716e-06
9.25834e-05
0.000585423
0.00170663
2.00137e-06
2.27344e-05
0.000226499
0.000579473
8.65928e-07
5.80282e-06
3.29887e-05
8.13487e-05
1.38583e-07
7.64911e-07
2.44537e-06
5.79108e-06
2.17548e-08
8.7398e-08
2.78763e-07
7.3097e-07
2.95502e-09
1.05632e-08
3.29626e-08
8.14885e-08
3.24587e-10
1.13541e-09
3.46349e-09
8.05562e-09
3.54557e-11
1.1197e-10
3.25623e-10
7.1048e-10
5.67561e-12
1.21693e-11
3.70388e-11
7.01801e-11
8.0679e-13
3.55305e-12
8.60995e-12
7.77277e-12
5.6225e-14
3.08405e-13
9.47193e-13
1.13274e-12
3.09262e-15
1.6359e-14
5.30458e-14
7.40148e-14
1.59433e-16
8.05247e-16
2.62358e-15
3.34868e-15
7.05065e-18
3.42304e-17
1.16177e-16
1.43568e-16
2.68472e-19
1.24665e-18
4.53749e-18
5.52026e-18
8.91884e-21
4.04371e-20
1.55723e-19
1.90341e-19
2.56376e-22
1.1946e-21
4.70082e-21
5.90857e-21
6.37749e-24
3.12102e-23
1.25991e-22
1.65744e-22
1.37439e-25
7.21365e-25
3.01481e-24
4.21631e-24
2.57041e-27
1.47245e-26
6.47738e-26
9.77163e-26
4.17255e-29
2.65684e-28
1.25644e-27
2.06818e-27
5.87028e-31
4.24895e-30
2.21194e-29
4.00968e-29
7.12613e-33
6.04056e-32
3.55112e-31
7.14954e-31
7.38814e-35
7.65389e-34
5.2262e-33
1.177e-32
6.39895e-37
8.66483e-36
7.04597e-35
1.72867e-34
6.08046e-39
8.76656e-38
8.80442e-37
2.35513e-36
6.22367e-41
7.95594e-40
1.02944e-38
3.01675e-38
6.08142e-43
6.53906e-42
1.13512e-40
3.63804e-40
5.94151e-45
5.28271e-44
1.13511e-42
3.76322e-42
2.10815e-46
6.45168e-45
5.93445e-44
3.79434e-43
4.07549e-10
3.87379e-10
1.66828e-11
8.3022e-13
7.13048e-13
5.7669e-13
4.67531e-14
1.55433e-15
5.40366e-17
1.97792e-18
6.55656e-20
1.81409e-21
4.14677e-23
7.70857e-25
1.12073e-26
1.18102e-28
7.66661e-31
1.85934e-33
2.58617e-34
-4.5764e-08
2.46993e-10
3.39373e-11
3.40071e-10
2.37744e-13
2.37444e-13
2.401e-13
9.65853e-15
1.15606e-16
3.51313e-18
1.13729e-19
3.19579e-21
7.62377e-23
1.5158e-24
2.41096e-26
2.87558e-28
2.30462e-30
9.9444e-33
1.14034e-33
3.57539e-05
-2.6058e-06
3.00235e-09
4.83297e-08
3.24072e-13
2.37444e-13
9.16103e-13
1.52155e-13
2.01782e-15
1.23456e-17
1.48529e-19
3.54515e-21
8.20286e-23
1.6098e-24
2.60002e-26
3.33485e-28
3.15678e-30
1.90213e-32
7.61652e-34
0.000724446
-1.60293e-05
5.34922e-07
9.69545e-08
9.14897e-13
2.5991e-13
1.53999e-12
5.51589e-13
5.14084e-14
7.81236e-16
3.93661e-18
2.28575e-20
1.54836e-22
1.51667e-24
1.98931e-26
2.50337e-28
2.43669e-30
1.49527e-32
5.99757e-34
0.00183158
3.31068e-06
1.5327e-06
3.16345e-07
1.82285e-11
9.14897e-13
1.09016e-12
6.64098e-13
3.32178e-13
1.31741e-14
9.98576e-17
6.14419e-19
3.66112e-21
1.69188e-23
5.65139e-26
1.30962e-28
5.11504e-31
3.88399e-33
5.99757e-34
0.00860222
-2.53593e-06
6.66444e-07
4.92386e-08
3.72989e-10
1.22092e-11
2.60758e-12
1.23345e-12
7.74224e-13
6.30107e-14
9.56705e-16
7.81342e-18
5.67878e-20
3.3957e-22
1.50079e-24
4.38891e-27
5.8564e-30
5.30789e-33
5.99757e-34
0.0378539
3.01508e-06
2.41276e-06
9.54288e-06
6.37123e-07
2.33414e-10
3.76669e-11
2.14087e-12
8.22746e-13
1.93231e-13
6.09115e-15
5.42805e-17
4.41869e-19
3.0967e-21
1.65649e-23
6.34623e-26
1.53621e-28
1.4875e-31
1.78396e-33
0.0655636
0.000170617
3.47488e-06
3.75757e-05
2.8048e-06
5.01579e-09
3.04434e-10
1.5512e-11
1.20433e-12
5.41824e-13
2.67758e-14
3.10535e-16
2.94421e-18
2.3406e-20
1.41818e-22
6.26604e-25
1.70112e-27
1.7853e-30
2.26507e-32
0.299221
0.00117134
9.12302e-05
2.01795e-05
4.02332e-06
1.01593e-07
4.45187e-09
1.67416e-10
6.68557e-12
5.79286e-13
6.76841e-14
1.54222e-15
1.50211e-17
1.30067e-19
9.03346e-22
4.4106e-24
1.31483e-26
1.42862e-29
2.88212e-31
0.282664
0.0474806
0.000670459
7.95787e-05
1.038e-05
6.1174e-07
2.70405e-08
9.91364e-10
4.15024e-11
1.4416e-12
1.69667e-13
4.54249e-15
5.36987e-17
5.27368e-19
3.94602e-21
2.06364e-23
6.42021e-26
5.51822e-29
2.77414e-30
0.183382
0.129921
0.00438186
0.00024248
2.46001e-05
1.80348e-06
9.93234e-08
4.24398e-09
1.43938e-10
5.88061e-12
1.46624e-13
1.00658e-14
1.66797e-16
1.67154e-18
1.35666e-20
7.76675e-23
2.68281e-25
3.25913e-28
2.42366e-29
0.036395
0.0574575
0.0128222
0.000234612
2.59374e-05
2.07256e-06
1.24065e-07
5.73192e-09
2.08945e-10
7.07581e-12
1.9512e-13
1.05661e-14
1.85699e-16
2.14255e-18
1.97616e-20
1.35532e-22
6.31081e-25
1.52341e-27
1.43035e-28
0.0029634
0.00227936
0.00425303
0.000454836
7.70998e-06
5.94325e-07
3.55157e-08
1.67275e-09
6.2951e-11
2.34636e-12
1.55121e-13
5.28875e-15
9.18773e-17
1.26205e-18
1.37868e-20
1.13516e-22
6.6756e-25
2.46722e-27
3.59324e-29
0.000586208
0.000452579
0.000116693
2.47297e-05
1.42601e-06
1.07015e-07
6.33967e-09
3.00293e-10
1.27783e-11
5.29359e-13
4.28265e-14
1.05376e-15
1.77339e-17
2.55497e-19
2.92799e-21
2.57704e-23
1.63503e-25
6.63043e-28
5.54816e-30
9.44658e-05
7.25839e-05
1.71804e-05
2.27615e-06
2.08921e-07
1.51388e-08
8.78231e-10
4.13825e-11
2.1738e-12
2.0584e-13
6.93153e-15
1.44678e-16
2.5945e-18
3.79017e-20
4.40589e-22
3.94172e-24
2.56113e-26
1.07621e-28
6.50534e-31
1.28294e-05
9.70735e-06
2.08992e-06
2.91472e-07
2.5434e-08
1.77342e-09
1.01452e-10
6.10108e-12
6.59655e-13
3.01636e-14
7.54772e-16
1.65434e-17
3.00622e-19
4.44765e-21
5.25042e-23
4.7835e-25
3.17488e-27
1.36995e-29
6.02251e-32
1.50917e-06
1.11459e-06
2.19558e-07
2.93927e-08
2.63857e-09
1.82807e-10
1.24401e-11
1.48171e-12
8.55338e-14
2.63198e-15
6.93505e-17
1.53313e-18
2.79921e-20
4.1715e-22
4.97395e-24
4.59029e-26
3.09556e-28
1.36318e-30
4.58672e-33
1.56329e-07
1.11763e-07
2.06078e-08
2.5331e-09
2.37695e-10
1.89539e-11
2.37345e-12
1.71185e-13
6.45185e-15
2.02488e-16
5.37038e-18
1.18566e-19
2.16642e-21
3.23887e-23
3.88415e-25
3.61469e-27
2.4649e-29
1.10152e-31
2.96612e-34
1.43791e-08
9.93281e-09
1.73806e-09
1.97054e-10
2.1307e-11
2.67969e-12
2.4589e-13
1.14683e-14
4.28103e-16
1.35274e-17
3.56769e-19
7.84609e-21
1.43125e-22
2.1411e-24
2.57533e-26
2.40963e-28
1.65618e-30
7.4818e-33
1.67018e-35
1.18375e-09
7.89102e-10
1.32518e-10
1.62252e-11
2.1528e-12
2.58202e-13
1.5048e-14
6.71527e-16
2.52553e-17
7.9114e-19
2.0715e-20
4.53223e-22
8.24224e-24
1.23188e-25
1.48358e-27
1.39296e-29
9.62927e-32
4.38527e-34
9.54797e-37
9.22601e-11
5.69437e-11
1.06487e-11
1.40179e-12
2.00676e-13
1.47267e-14
7.93092e-16
3.56356e-17
1.32503e-18
4.10991e-20
1.06781e-21
2.32288e-23
4.20869e-25
6.27986e-27
7.56575e-29
7.12054e-31
4.94402e-33
2.26615e-35
4.97098e-38
7.61537e-12
4.36246e-12
8.67729e-13
1.3266e-13
1.12856e-14
7.13081e-16
3.83662e-17
1.70133e-18
6.25372e-20
1.92109e-21
4.95317e-23
1.07134e-24
1.93366e-26
2.87966e-28
3.46926e-30
3.27126e-32
2.27952e-34
1.05076e-36
2.30748e-39
9.00084e-13
4.00419e-13
7.03798e-14
7.5191e-15
5.45792e-16
3.29627e-17
1.69781e-18
7.37577e-20
2.68101e-21
8.1672e-23
2.09156e-24
4.5009e-26
8.09658e-28
1.20367e-29
1.45e-31
1.3696e-33
9.57455e-36
4.43711e-38
9.696e-41
6.44311e-14
2.55116e-14
3.66127e-15
3.48044e-16
2.53468e-17
1.47191e-18
7.10869e-20
2.96017e-21
1.05438e-22
3.18717e-24
8.12127e-26
1.74043e-27
3.12316e-29
4.63866e-31
5.58974e-33
5.28927e-35
3.70987e-37
1.72883e-39
3.73403e-42
3.00441e-15
1.15892e-15
1.59756e-16
1.53469e-17
1.09797e-18
6.21617e-20
2.89774e-21
1.14398e-22
3.89544e-24
1.15334e-25
2.92431e-27
6.25322e-29
1.1206e-30
1.66401e-32
2.00748e-34
1.90385e-36
1.34016e-38
6.28473e-41
1.33333e-43
1.25417e-16
4.73618e-17
6.53709e-18
6.27251e-19
4.44361e-20
2.47238e-21
1.12697e-22
4.31724e-24
1.41247e-25
3.9809e-27
9.92705e-29
2.10477e-30
3.77231e-32
5.60732e-34
6.77758e-36
6.44511e-38
4.55502e-40
2.1517e-42
4.46615e-45
4.76842e-18
1.78154e-18
2.46235e-19
2.37852e-20
1.6832e-21
9.28245e-23
4.16757e-24
1.56655e-25
5.00702e-27
1.3737e-28
3.28833e-30
6.79211e-32
1.20588e-33
1.78905e-35
2.16898e-37
2.06959e-39
1.46893e-41
6.99817e-44
1.41474e-46
1.6346e-19
6.13499e-20
8.55865e-21
8.39177e-22
5.98097e-23
3.29552e-24
1.4687e-25
5.45393e-27
1.71678e-28
4.63067e-30
1.08613e-31
2.18798e-33
3.77129e-35
5.51664e-37
6.66176e-39
6.347e-41
4.52596e-43
2.17809e-45
4.26328e-48
5.06423e-21
1.94157e-21
2.75618e-22
2.76433e-23
1.99923e-24
1.10871e-25
4.93981e-27
1.82441e-28
5.69056e-30
1.51728e-31
3.51553e-33
6.98608e-35
1.18714e-36
1.70587e-38
2.02195e-40
1.90135e-42
1.35645e-44
6.57558e-47
1.24417e-49
1.42278e-22
5.67291e-23
8.26186e-24
8.53583e-25
6.30709e-26
3.5438e-27
1.58864e-28
5.87145e-30
1.82528e-31
4.83699e-33
1.11197e-34
2.19101e-36
3.6923e-38
5.26003e-40
6.18473e-42
5.77544e-44
4.08523e-46
1.98285e-48
3.64421e-51
3.63838e-24
1.53768e-24
2.31696e-25
2.48159e-26
1.88477e-27
1.07933e-28
4.8964e-30
1.82097e-31
5.67176e-33
1.50115e-34
3.43932e-36
6.74524e-38
1.13084e-39
1.60302e-41
1.87673e-43
1.74624e-45
1.23212e-47
6.01425e-50
1.07152e-52
8.49925e-26
3.8856e-26
6.11107e-27
6.82438e-28
5.35631e-29
3.14264e-30
1.4501e-31
5.45344e-33
1.7098e-34
4.53953e-36
1.04071e-37
2.0389e-39
3.41124e-41
4.82377e-43
5.63399e-45
5.23203e-47
3.68902e-49
1.81343e-51
3.12911e-54
1.82245e-27
9.19689e-28
1.52385e-28
1.78363e-29
1.45355e-30
8.77801e-32
4.13847e-33
1.58068e-34
5.0093e-36
1.33932e-37
3.08331e-39
6.05361e-41
1.01359e-42
1.43321e-44
1.67318e-46
1.55303e-48
1.09517e-50
5.42336e-53
9.06379e-56
3.60487e-29
2.04829e-29
3.61042e-30
4.45134e-31
3.78244e-32
2.36066e-33
1.14165e-34
4.44558e-36
1.42921e-37
3.86117e-39
8.95414e-41
1.76675e-42
2.96777e-44
4.20492e-46
4.91514e-48
4.56578e-50
3.22294e-52
1.60808e-54
2.60396e-57
6.61056e-31
4.3114e-31
8.16564e-32
1.06563e-32
9.47786e-34
6.13514e-35
3.05408e-36
1.21649e-37
3.98e-39
1.0897e-40
2.55248e-42
5.07378e-44
8.56884e-46
1.21878e-47
1.42852e-49
1.32953e-51
9.40115e-54
4.7259e-56
7.41978e-59
1.12982e-32
8.61521e-33
1.77078e-33
2.45801e-34
2.29648e-35
1.54674e-36
7.94949e-38
3.24826e-39
1.08445e-40
3.01673e-42
7.15414e-44
1.43566e-45
2.44217e-47
3.49243e-49
4.10981e-51
3.83596e-53
2.71869e-55
1.37661e-57
2.09753e-60
1.87721e-34
1.6051e-34
3.69823e-35
5.487e-36
5.40332e-37
3.79752e-38
2.02034e-39
8.48953e-41
2.89889e-42
8.21082e-44
1.97525e-45
4.00874e-47
6.87909e-49
9.90368e-51
1.17132e-52
1.09727e-54
7.79834e-57
3.9758e-59
5.88615e-62
2.97079e-36
2.85074e-36
7.47228e-37
1.19075e-37
1.23986e-38
9.11589e-40
5.03151e-41
2.1787e-42
7.6236e-44
2.20246e-45
5.38337e-47
1.1065e-48
1.91786e-50
2.78263e-52
3.31048e-54
3.11451e-56
2.2204e-58
1.13914e-60
1.64096e-63
4.47028e-38
4.89545e-38
1.46794e-38
2.52409e-39
2.78698e-40
2.14832e-41
1.23247e-42
5.50854e-44
1.9782e-45
5.83729e-47
1.45148e-48
3.02488e-50
5.3008e-52
7.75724e-54
9.28932e-56
8.78123e-58
6.28145e-60
3.24061e-62
4.54915e-65
6.45616e-40
8.17946e-40
2.81995e-40
5.25366e-41
6.16658e-42
4.99249e-43
2.98124e-44
1.37706e-45
5.08085e-47
1.53287e-48
3.88111e-50
8.20729e-52
1.45514e-53
2.14907e-55
2.59161e-57
2.4624e-59
1.76762e-61
9.16253e-64
1.22316e-66
7.82957e-42
1.17128e-41
4.7265e-42
1.01845e-42
1.30229e-43
1.12338e-44
7.04808e-46
3.38692e-47
1.29034e-48
3.9951e-50
1.03081e-51
2.21344e-53
3.97287e-55
5.92459e-57
7.19785e-59
6.8763e-61
4.95446e-63
2.5784e-65
3.33298e-68
1.29283e-42
2.87894e-42
5.56614e-43
6.74841e-44
5.72522e-45
3.54893e-46
1.69186e-47
6.41672e-49
1.98474e-50
5.15357e-52
1.35185e-53
2.95414e-55
5.37856e-57
8.11353e-59
9.94696e-61
9.56884e-63
6.93005e-65
3.62613e-67
3.33298e-68
)
;

boundaryField
{
    leftWall
    {
        type            zeroGradient;
    }
    rightWall
    {
        type            zeroGradient;
    }
    lowerWall
    {
        type            zeroGradient;
    }
    atmosphere
    {
        type            inletOutlet;
        inletValue      uniform 0;
        value           nonuniform List<scalar> 
46
(
0
0
0
0
0
0
0
0
0
0
0
0
0
0
0
0
0
0
0
0
8.59657e-50
1.68062e-49
2.74085e-48
2.10815e-46
6.45168e-45
5.93445e-44
3.79434e-43
1.29283e-42
2.87894e-42
5.56614e-43
6.74841e-44
5.72522e-45
3.54893e-46
1.69186e-47
6.41672e-49
1.98474e-50
5.15357e-52
1.35185e-53
2.95414e-55
5.37856e-57
8.11353e-59
9.94696e-61
9.56884e-63
6.93005e-65
3.62613e-67
3.33298e-68
)
;
    }
    defaultFaces
    {
        type            empty;
    }
}


// ************************************************************************* //
