/*--------------------------------*- C++ -*----------------------------------*\
| =========                 |                                                 |
| \\      /  F ield         | OpenFOAM: The Open Source CFD Toolbox           |
|  \\    /   O peration     | Version:  2206                                  |
|   \\  /    A nd           | Website:  www.openfoam.com                      |
|    \\/     M anipulation  |                                                 |
\*---------------------------------------------------------------------------*/
FoamFile
{
    version     2.0;
    format      ascii;
    arch        "LSB;label=32;scalar=64";
    class       volVectorField;
    location    "0.05";
    object      U;
}
// * * * * * * * * * * * * * * * * * * * * * * * * * * * * * * * * * * * * * //

dimensions      [0 1 -1 0 0 0 0];

internalField   nonuniform List<vector> 
2268
(
(0.00560634 -0.00530251 0)
(0.0169505 -0.00544465 0)
(0.0283319 -0.00532357 0)
(0.0395157 -0.00524585 0)
(0.0505056 -0.00514489 0)
(0.0612491 -0.00500884 0)
(0.0716636 -0.00483072 0)
(0.0816504 -0.00460117 0)
(0.0910887 -0.00430817 0)
(0.0998296 -0.00393671 0)
(0.107689 -0.00346832 0)
(0.114441 -0.00288063 0)
(0.119809 -0.00214639 0)
(0.123445 -0.00123092 0)
(0.124999 -7.03481e-05 0)
(0.123784 0.00133902 0)
(0.119368 0.00295904 0)
(0.111365 0.00475412 0)
(0.0994131 0.00667765 0)
(0.0833136 0.00862875 0)
(0.0631622 0.0104355 0)
(0.0394914 0.0118688 0)
(0.0135041 0.0126655 0)
(0.00563042 -0.0159064 0)
(0.0170381 -0.0163423 0)
(0.0284858 -0.0159824 0)
(0.039737 -0.0157524 0)
(0.0508034 -0.0154549 0)
(0.0616346 -0.0150541 0)
(0.0721519 -0.0145292 0)
(0.0822613 -0.013852 0)
(0.0918475 -0.0129869 0)
(0.100768 -0.0118893 0)
(0.108846 -0.0105043 0)
(0.115863 -0.00876611 0)
(0.121554 -0.00659637 0)
(0.125607 -0.00390463 0)
(0.127618 -0.000581439 0)
(0.127391 0.0034348 0)
(0.124324 0.0081746 0)
(0.117687 0.0136007 0)
(0.106813 0.0195902 0)
(0.0911278 0.0258523 0)
(0.0703234 0.0318504 0)
(0.0446511 0.03678 0)
(0.015427 0.0395917 0)
(0.00566679 -0.0265802 0)
(0.0171543 -0.0273132 0)
(0.0286922 -0.026718 0)
(0.0400418 -0.0263445 0)
(0.051225 -0.0258638 0)
(0.0621969 -0.0252168 0)
(0.0728862 -0.0243691 0)
(0.0832079 -0.0232752 0)
(0.0930572 -0.0218765 0)
(0.102304 -0.0201001 0)
(0.110784 -0.0178563 0)
(0.118294 -0.0150362 0)
(0.12458 -0.011512 0)
(0.129324 -0.00713999 0)
(0.132134 -0.00178106 0)
(0.13254 0.00471889 0)
(0.129971 0.0125479 0)
(0.123745 0.0217347 0)
(0.113129 0.0321439 0)
(0.0973868 0.0433506 0)
(0.0759396 0.0544596 0)
(0.0487241 0.0639575 0)
(0.016968 0.0696214 0)
(0.00571884 -0.0373381 0)
(0.0173202 -0.0383863 0)
(0.0289869 -0.0375647 0)
(0.0404793 -0.037065 0)
(0.0518315 -0.0364254 0)
(0.0630072 -0.0355641 0)
(0.0739457 -0.0344349 0)
(0.0845752 -0.0329767 0)
(0.0948064 -0.0311105 0)
(0.104527 -0.0287373 0)
(0.113594 -0.0257336 0)
(0.121826 -0.0219482 0)
(0.128991 -0.0171987 0)
(0.134789 -0.0112717 0)
(0.138828 -0.00392969 0)
(0.140653 0.00507965 0)
(0.139622 0.0160376 0)
(0.13489 0.0291047 0)
(0.125476 0.0442671 0)
(0.110217 0.0611027 0)
(0.0879061 0.0784831 0)
(0.0576991 0.0941676 0)
(0.0204531 0.10428 0)
(0.0057847 -0.0482099 0)
(0.0175292 -0.0495951 0)
(0.0293574 -0.0485575 0)
(0.0410294 -0.0479544 0)
(0.0525943 -0.0471883 0)
(0.0640266 -0.0461555 0)
(0.0752797 -0.0448006 0)
(0.0862983 -0.0430492 0)
(0.0970131 -0.040805 0)
(0.107336 -0.0379461 0)
(0.117153 -0.034319 0)
(0.126318 -0.0297319 0)
(0.134634 -0.0239478 0)
(0.141839 -0.016677 0)
(0.147572 -0.00757368 0)
(0.151394 0.00377692 0)
(0.152626 0.0177033 0)
(0.15033 0.0347223 0)
(0.143207 0.0550986 0)
(0.129484 0.078642 0)
(0.106903 0.104282 0)
(0.0729833 0.129136 0)
(0.026783 0.146812 0)
(0.00586072 -0.0592024 0)
(0.0177715 -0.0609507 0)
(0.0297865 -0.0597111 0)
(0.0416662 -0.059033 0)
(0.0534768 -0.0581808 0)
(0.065206 -0.0570299 0)
(0.0768236 -0.0555183 0)
(0.0882937 -0.0535621 0)
(0.0995716 -0.051052 0)
(0.110599 -0.0478483 0)
(0.1213 -0.0437731 0)
(0.131572 -0.0386009 0)
(0.141276 -0.0320458 0)
(0.150217 -0.0237476 0)
(0.158122 -0.0132535 0)
(0.164527 4.71245e-06 0)
(0.168838 0.0166369 0)
(0.170205 0.0374902 0)
(0.16696 0.0633922 0)
(0.156671 0.0948674 0)
(0.135579 0.131823 0)
(0.0980034 0.172064 0)
(0.0375985 0.209519 0)
(0.00594248 -0.070335 0)
(0.0180361 -0.0724697 0)
(0.0302573 -0.0710408 0)
(0.0423641 -0.0703168 0)
(0.0544432 -0.0694204 0)
(0.0664972 -0.0682077 0)
(0.0785133 -0.0666132 0)
(0.090478 -0.0645476 0)
(0.102374 -0.061894 0)
(0.114177 -0.0585017 0)
(0.125857 -0.0541772 0)
(0.137366 -0.0486713 0)
(0.148638 -0.0416626 0)
(0.159567 -0.0327354 0)
(0.169989 -0.0213516 0)
(0.179624 -0.00683212 0)
(0.188041 0.011774 0)
(0.19452 0.0356403 0)
(0.197436 0.0665775 0)
(0.194116 0.106289 0)
(0.179546 0.156214 0)
(0.145929 0.213795 0)
(0.0664081 0.276323 0)
(0.00603105 -0.0818002 0)
(0.018317 -0.0843568 0)
(0.0307532 -0.0827516 0)
(0.0431017 -0.0820137 0)
(0.0554662 -0.0811189 0)
(0.0678654 -0.0799052 0)
(0.0803056 -0.0783066 0)
(0.0927969 -0.076233 0)
(0.105352 -0.0735653 0)
(0.117985 -0.0701499 0)
(0.130714 -0.0657877 0)
(0.143558 -0.0602196 0)
(0.156537 -0.0531049 0)
(0.169661 -0.043988 0)
(0.182909 -0.0322476 0)
(0.196208 -0.0170144 0)
(0.209419 0.00297911 0)
(0.222307 0.0293296 0)
(0.233997 0.0648293 0)
(0.241951 0.113846 0)
(0.238201 0.186151 0)
(0.218492 0.290915 0)
(0.074061 0.469503 0)
(0.0373482 -0.0118673 0)
(0.106266 -0.0101958 0)
(0.153399 -0.00486993 0)
(0.171442 -0.000948784 0)
(0.170201 0.00114928 0)
(0.159936 0.00207787 0)
(0.145905 0.00237671 0)
(0.130861 0.00243788 0)
(0.115969 0.00237922 0)
(0.101825 0.00219975 0)
(0.0884004 0.00205708 0)
(0.0758442 0.00195814 0)
(0.0641405 0.00183706 0)
(0.053106 0.00171917 0)
(0.0426253 0.00163371 0)
(0.0326313 0.00157252 0)
(0.023024 0.00152309 0)
(0.0136943 0.00148392 0)
(0.004542 0.00146905 0)
(0.0386962 -0.0361515 0)
(0.110663 -0.03135 0)
(0.159248 -0.0148138 0)
(0.176792 -0.00284458 0)
(0.175182 0.00351473 0)
(0.164657 0.00632424 0)
(0.150229 0.00734352 0)
(0.134734 0.00743807 0)
(0.119371 0.00723066 0)
(0.104747 0.00679492 0)
(0.0909326 0.00636334 0)
(0.0780466 0.00599122 0)
(0.0660135 0.00561675 0)
(0.0546482 0.00528201 0)
(0.0438682 0.00502422 0)
(0.0336139 0.00482398 0)
(0.023748 0.004665 0)
(0.0141322 0.00455178 0)
(0.00467908 0.00448967 0)
(0.0401121 -0.0612599 0)
(0.115494 -0.0535446 0)
(0.16518 -0.024485 0)
(0.180747 -0.00423407 0)
(0.176919 0.00622354 0)
(0.165015 0.0107373 0)
(0.149931 0.0124126 0)
(0.134179 0.0124986 0)
(0.118784 0.0120795 0)
(0.104187 0.0114129 0)
(0.0904438 0.0107074 0)
(0.0776447 0.0100311 0)
(0.0656883 0.00938803 0)
(0.054392 0.00884317 0)
(0.0436791 0.00842346 0)
(0.0334855 0.00808804 0)
(0.0236678 0.00781774 0)
(0.0140847 0.00763039 0)
(0.00466094 0.00752848 0)
(0.0421446 -0.087517 0)
(0.123064 -0.0775869 0)
(0.174458 -0.0336132 0)
(0.186694 -0.00465071 0)
(0.179782 0.00958304 0)
(0.166148 0.0155222 0)
(0.150207 0.0175826 0)
(0.134068 0.0176358 0)
(0.118542 0.0170041 0)
(0.103893 0.0160366 0)
(0.0901579 0.0150081 0)
(0.0773971 0.0140432 0)
(0.0654837 0.0131591 0)
(0.0542312 0.012408 0)
(0.0435596 0.0118145 0)
(0.0334018 0.0113358 0)
(0.0236147 0.0109555 0)
(0.0140537 0.0106997 0)
(0.00464938 0.0105681 0)
(0.0440047 -0.111359 0)
(0.133642 -0.10434 0)
(0.187594 -0.0417452 0)
(0.194653 -0.00364291 0)
(0.183428 0.0137994 0)
(0.167548 0.0207426 0)
(0.15054 0.0229637 0)
(0.133929 0.0228735 0)
(0.11823 0.0219488 0)
(0.103515 0.020651 0)
(0.0897899 0.0193004 0)
(0.0770755 0.0180456 0)
(0.0652152 0.0169167 0)
(0.0540161 0.015957 0)
(0.0433947 0.0151872 0)
(0.0332819 0.0145683 0)
(0.0235348 0.0140874 0)
(0.0140057 0.0137673 0)
(0.00463212 0.0136003 0)
(0.0522165 -0.135804 0)
(0.147401 -0.133963 0)
(0.205237 -0.0482464 0)
(0.204571 -0.000704404 0)
(0.187654 0.0191188 0)
(0.16907 0.0264979 0)
(0.15084 0.0285843 0)
(0.133705 0.0282137 0)
(0.117811 0.0269247 0)
(0.103028 0.025265 0)
(0.0893211 0.0235828 0)
(0.0766658 0.0220332 0)
(0.0648721 0.0206547 0)
(0.0537388 0.0194855 0)
(0.0431787 0.0185418 0)
(0.0331214 0.017786 0)
(0.0234247 0.0172072 0)
(0.0139389 0.0168232 0)
(0.00460862 0.0166198 0)
(0.134612 -0.20491 0)
(0.177534 -0.166457 0)
(0.228039 -0.0508596 0)
(0.216186 0.00498284 0)
(0.192196 0.0257906 0)
(0.17056 0.0328565 0)
(0.151033 0.0344651 0)
(0.13336 0.03366 0)
(0.117266 0.031938 0)
(0.102424 0.0298816 0)
(0.0887496 0.0278508 0)
(0.0761672 0.0260007 0)
(0.0644542 0.0243705 0)
(0.0533999 0.0229915 0)
(0.0429124 0.0218755 0)
(0.0329204 0.020985 0)
(0.023284 0.0203077 0)
(0.013853 0.0198589 0)
(0.00457892 0.0196191 0)
(0.468323 -0.286899 0)
(0.283043 -0.187592 0)
(0.257662 -0.0429483 0)
(0.22827 0.0143277 0)
(0.196582 0.0338675 0)
(0.17183 0.0398162 0)
(0.151041 0.0406192 0)
(0.13286 0.0392132 0)
(0.116579 0.0369819 0)
(0.101696 0.034506 0)
(0.0880686 0.0321153 0)
(0.0755703 0.0299543 0)
(0.0639477 0.0280668 0)
(0.0529835 0.0264769 0)
(0.04258 0.0251864 0)
(0.032664 0.0241574 0)
(0.0231006 0.0233755 0)
(0.0137425 0.0228564 0)
(0.00454231 0.0225778 0)
(0.00617289 -0.0997991 0)
(0.0187462 -0.103017 0)
(0.0314935 -0.10119 0)
(0.0441986 -0.100508 0)
(0.0569812 -0.0997254 0)
(0.0698859 -0.09866 0)
(0.0829475 -0.0972532 0)
(0.0962112 -0.0954255 0)
(0.109734 -0.0930718 0)
(0.123589 -0.0900574 0)
(0.137871 -0.0862093 0)
(0.152705 -0.0813052 0)
(0.168264 -0.0750554 0)
(0.184787 -0.0670787 0)
(0.202619 -0.0568633 0)
(0.222265 -0.0437053 0)
(0.244426 -0.0266335 0)
(0.270352 -0.00434576 0)
(0.301493 0.0252734 0)
(0.345569 0.0650351 0)
(0.396023 0.122576 0)
(0.510029 0.193484 0)
(0.555881 0.369674 0)
(0.00632183 -0.124952 0)
(0.0191969 -0.129133 0)
(0.0322707 -0.127059 0)
(0.0453521 -0.126558 0)
(0.0585835 -0.126074 0)
(0.0720351 -0.125402 0)
(0.0857721 -0.124504 0)
(0.0998765 -0.123329 0)
(0.11445 -0.121807 0)
(0.12962 -0.119856 0)
(0.145553 -0.117374 0)
(0.16246 -0.114238 0)
(0.180628 -0.110303 0)
(0.200435 -0.105399 0)
(0.222402 -0.0993344 0)
(0.247244 -0.0919068 0)
(0.275955 -0.0829234 0)
(0.310052 -0.0722292 0)
(0.351058 -0.0599018 0)
(0.40402 -0.0465026 0)
(0.46237 -0.0343559 0)
(0.55844 -0.0272398 0)
(0.634077 -0.0278069 0)
(0.00639275 -0.150551 0)
(0.0193907 -0.155669 0)
(0.0325916 -0.153429 0)
(0.0458373 -0.153208 0)
(0.0592753 -0.15316 0)
(0.072987 -0.153063 0)
(0.0870516 -0.152907 0)
(0.101565 -0.152677 0)
(0.116644 -0.15235 0)
(0.132428 -0.151905 0)
(0.149092 -0.151326 0)
(0.166851 -0.150601 0)
(0.185977 -0.149737 0)
(0.206809 -0.148768 0)
(0.229775 -0.14778 0)
(0.255413 -0.146941 0)
(0.284383 -0.146554 0)
(0.317555 -0.147142 0)
(0.355486 -0.149604 0)
(0.401336 -0.155259 0)
(0.44666 -0.166569 0)
(0.522935 -0.186367 0)
(0.541695 -0.216306 0)
(0.00636005 -0.176226 0)
(0.0192533 -0.182182 0)
(0.0323334 -0.179848 0)
(0.0454811 -0.179959 0)
(0.0588315 -0.1804 0)
(0.0724627 -0.180946 0)
(0.0864526 -0.18161 0)
(0.100892 -0.182405 0)
(0.115886 -0.183351 0)
(0.131556 -0.184475 0)
(0.148046 -0.185821 0)
(0.165522 -0.187454 0)
(0.184182 -0.189475 0)
(0.20425 -0.192028 0)
(0.225986 -0.195324 0)
(0.249681 -0.199669 0)
(0.27564 -0.205496 0)
(0.304216 -0.213412 0)
(0.335394 -0.22427 0)
(0.370969 -0.239126 0)
(0.402815 -0.25984 0)
(0.459649 -0.287439 0)
(0.442604 -0.323856 0)
(0.00621347 -0.20154 0)
(0.018763 -0.208168 0)
(0.0314684 -0.205807 0)
(0.0442513 -0.206251 0)
(0.057222 -0.207167 0)
(0.0704452 -0.208326 0)
(0.0839865 -0.20976 0)
(0.0979194 -0.211503 0)
(0.112325 -0.213595 0)
(0.127292 -0.216093 0)
(0.14292 -0.219071 0)
(0.159313 -0.222629 0)
(0.176585 -0.226901 0)
(0.194851 -0.232059 0)
(0.214225 -0.238332 0)
(0.234808 -0.246017 0)
(0.256668 -0.255493 0)
(0.279847 -0.267242 0)
(0.304055 -0.281872 0)
(0.330334 -0.300048 0)
(0.351452 -0.322894 0)
(0.393361 -0.350493 0)
(0.357831 -0.383809 0)
(0.00595955 -0.226047 0)
(0.0179468 -0.233138 0)
(0.0300506 -0.230804 0)
(0.0422332 -0.231547 0)
(0.0545729 -0.23287 0)
(0.0671165 -0.234548 0)
(0.0799129 -0.236623 0)
(0.0930142 -0.239135 0)
(0.106474 -0.242136 0)
(0.120348 -0.245688 0)
(0.13469 -0.249874 0)
(0.149554 -0.254795 0)
(0.164987 -0.260579 0)
(0.181023 -0.267382 0)
(0.197682 -0.275397 0)
(0.214952 -0.284855 0)
(0.232779 -0.29603 0)
(0.251065 -0.309241 0)
(0.269447 -0.324853 0)
(0.288611 -0.34321 0)
(0.302399 -0.364915 0)
(0.334406 -0.38956 0)
(0.290688 -0.417446 0)
(0.00561805 -0.249346 0)
(0.0168657 -0.256672 0)
(0.028185 -0.254413 0)
(0.0395807 -0.255399 0)
(0.0510949 -0.257033 0)
(0.0627571 -0.259105 0)
(0.0746 -0.261657 0)
(0.0866554 -0.264732 0)
(0.0989533 -0.268376 0)
(0.11152 -0.272651 0)
(0.124379 -0.277628 0)
(0.137542 -0.283395 0)
(0.151015 -0.290056 0)
(0.164783 -0.297731 0)
(0.178814 -0.306561 0)
(0.193046 -0.316704 0)
(0.207379 -0.328336 0)
(0.221675 -0.341641 0)
(0.235603 -0.356812 0)
(0.24968 -0.37399 0)
(0.258761 -0.393483 0)
(0.284251 -0.414703 0)
(0.237718 -0.437769 0)
(0.00521151 -0.271116 0)
(0.0155883 -0.27846 0)
(0.0259905 -0.27632 0)
(0.0364661 -0.277488 0)
(0.04702 -0.279337 0)
(0.0576669 -0.281676 0)
(0.068426 -0.284545 0)
(0.079314 -0.28798 0)
(0.0903434 -0.292023 0)
(0.101521 -0.296724 0)
(0.112847 -0.30214 0)
(0.124311 -0.308337 0)
(0.135891 -0.315391 0)
(0.147551 -0.323385 0)
(0.159236 -0.332412 0)
(0.17087 -0.34257 0)
(0.182345 -0.353959 0)
(0.193531 -0.366675 0)
(0.204163 -0.380803 0)
(0.214659 -0.396381 0)
(0.220754 -0.413564 0)
(0.24174 -0.431745 0)
(0.195296 -0.451092 0)
(0.00475639 -0.291127 0)
(0.0141698 -0.298297 0)
(0.0235692 -0.296317 0)
(0.033043 -0.297612 0)
(0.0425603 -0.299594 0)
(0.0521242 -0.302091 0)
(0.0617428 -0.305137 0)
(0.0714209 -0.308761 0)
(0.0811596 -0.312996 0)
(0.0909541 -0.31788 0)
(0.100791 -0.323455 0)
(0.110649 -0.329768 0)
(0.120493 -0.336868 0)
(0.130279 -0.344811 0)
(0.139948 -0.35365 0)
(0.149424 -0.36344 0)
(0.158613 -0.374231 0)
(0.167407 -0.386062 0)
(0.175601 -0.39896 0)
(0.183547 -0.41291 0)
(0.187714 -0.427994 0)
(0.20535 -0.443638 0)
(0.160666 -0.460168 0)
(0.00426839 -0.30923 0)
(0.0126638 -0.316064 0)
(0.0210152 -0.314273 0)
(0.0294456 -0.315641 0)
(0.0378959 -0.317682 0)
(0.0463601 -0.320245 0)
(0.0548365 -0.323359 0)
(0.0633201 -0.327044 0)
(0.0718035 -0.331323 0)
(0.0802751 -0.336223 0)
(0.0887159 -0.341772 0)
(0.0970988 -0.348002 0)
(0.105388 -0.354941 0)
(0.113537 -0.36262 0)
(0.121494 -0.37107 0)
(0.129194 -0.380314 0)
(0.136562 -0.390371 0)
(0.143514 -0.401249 0)
(0.149899 -0.412941 0)
(0.156008 -0.425408 0)
(0.158933 -0.438688 0)
(0.17393 -0.452258 0)
(0.131967 -0.466604 0)
(0.00376756 -0.325334 0)
(0.0111349 -0.331707 0)
(0.0184344 -0.330127 0)
(0.0258112 -0.331521 0)
(0.0331888 -0.333558 0)
(0.0405578 -0.336118 0)
(0.0479096 -0.339219 0)
(0.0552325 -0.342874 0)
(0.0625147 -0.347098 0)
(0.0697415 -0.351908 0)
(0.0768926 -0.357318 0)
(0.083941 -0.363347 0)
(0.0908526 -0.37001 0)
(0.0975867 -0.377321 0)
(0.104097 -0.385292 0)
(0.110331 -0.39393 0)
(0.116234 -0.403233 0)
(0.121743 -0.413194 0)
(0.126755 -0.423794 0)
(0.131513 -0.434987 0)
(0.133639 -0.446794 0)
(0.146496 -0.45876 0)
(0.107954 -0.471501 0)
(0.00326801 -0.339441 0)
(0.00962058 -0.345264 0)
(0.0158891 -0.343931 0)
(0.0222269 -0.345332 0)
(0.0285452 -0.347338 0)
(0.0348401 -0.349853 0)
(0.0411017 -0.352888 0)
(0.0473152 -0.356451 0)
(0.0534672 -0.360552 0)
(0.0595413 -0.365198 0)
(0.0655166 -0.3704 0)
(0.0713668 -0.376164 0)
(0.0770617 -0.382496 0)
(0.0825675 -0.3894 0)
(0.0878474 -0.396875 0)
(0.0928614 -0.404916 0)
(0.0975657 -0.413512 0)
(0.101915 -0.422644 0)
(0.10583 -0.432286 0)
(0.109512 -0.442398 0)
(0.111011 -0.452997 0)
(0.121928 -0.463714 0)
(0.0873996 -0.475299 0)
(0.00277312 -0.351642 0)
(0.00811441 -0.356842 0)
(0.0133678 -0.355785 0)
(0.0187 -0.357179 0)
(0.023999 -0.359134 0)
(0.0292709 -0.361576 0)
(0.0345031 -0.364517 0)
(0.0396742 -0.36796 0)
(0.0447677 -0.371909 0)
(0.0497688 -0.376366 0)
(0.0546606 -0.381333 0)
(0.0594219 -0.386812 0)
(0.0640279 -0.392804 0)
(0.0684515 -0.399303 0)
(0.0726649 -0.406306 0)
(0.0766398 -0.413804 0)
(0.0803459 -0.42178 0)
(0.0837504 -0.430216 0)
(0.0867921 -0.43908 0)
(0.0896223 -0.44833 0)
(0.0906274 -0.457963 0)
(0.0997289 -0.467643 0)
(0.0695604 -0.478277 0)
(0.00229101 -0.361333 0)
(0.00664587 -0.36585 0)
(0.0109171 -0.365031 0)
(0.0152853 -0.366382 0)
(0.0196112 -0.36826 0)
(0.0238991 -0.370608 0)
(0.0281365 -0.373432 0)
(0.0323122 -0.376732 0)
(0.0364137 -0.380505 0)
(0.0404259 -0.38475 0)
(0.0443312 -0.389463 0)
(0.0481095 -0.394642 0)
(0.0517389 -0.400281 0)
(0.0551965 -0.406372 0)
(0.0584591 -0.41291 0)
(0.0615049 -0.419885 0)
(0.0643139 -0.42729 0)
(0.0668702 -0.435117 0)
(0.0691423 -0.443356 0)
(0.0712766 -0.451985 0)
(0.0719905 -0.460998 0)
(0.0796062 -0.470103 0)
(0.0540972 -0.480362 0)
(0.00183588 -0.368104 0)
(0.00534293 -0.372061 0)
(0.00869433 -0.3715 0)
(0.0120601 -0.37284 0)
(0.0154338 -0.374655 0)
(0.0187889 -0.376917 0)
(0.0221046 -0.379627 0)
(0.0253622 -0.382784 0)
(0.0285491 -0.386384 0)
(0.0316538 -0.390423 0)
(0.0346628 -0.394896 0)
(0.0375597 -0.399797 0)
(0.0403257 -0.405114 0)
(0.042939 -0.410838 0)
(0.0453749 -0.416955 0)
(0.0476053 -0.423453 0)
(0.0495984 -0.430321 0)
(0.0513265 -0.437558 0)
(0.0527557 -0.44517 0)
(0.0540475 -0.453193 0)
(0.0542042 -0.46163 0)
(0.0599149 -0.470587 0)
(0.0393188 -0.480452 0)
(0.00114084 -0.379201 0)
(0.0038791 -0.3823 0)
(0.00655212 -0.382152 0)
(0.00902212 -0.383485 0)
(0.0116012 -0.385285 0)
(0.0141353 -0.387528 0)
(0.0166259 -0.390215 0)
(0.0190679 -0.393344 0)
(0.0214532 -0.396907 0)
(0.0237727 -0.400897 0)
(0.0260155 -0.405306 0)
(0.0281693 -0.410124 0)
(0.0302196 -0.415336 0)
(0.0321494 -0.420927 0)
(0.0339377 -0.426874 0)
(0.0355544 -0.433147 0)
(0.0369537 -0.439712 0)
(0.038078 -0.446524 0)
(0.0388045 -0.453526 0)
(0.0392203 -0.460695 0)
(0.0380534 -0.467556 0)
(0.0399136 -0.474823 0)
(0.0240142 -0.476361 0)
(0.000951426 -0.395252 0)
(0.00304227 -0.397221 0)
(0.00459339 -0.397309 0)
(0.0064039 -0.398567 0)
(0.00816426 -0.400281 0)
(0.00991546 -0.402426 0)
(0.0116397 -0.404995 0)
(0.0133323 -0.407981 0)
(0.0149878 -0.411376 0)
(0.0165997 -0.41517 0)
(0.0181604 -0.419352 0)
(0.0196617 -0.423908 0)
(0.0210947 -0.42882 0)
(0.0224499 -0.434065 0)
(0.0237179 -0.439615 0)
(0.0248864 -0.445429 0)
(0.0259511 -0.451455 0)
(0.0269016 -0.457614 0)
(0.0275521 -0.463839 0)
(0.028216 -0.469893 0)
(0.0265702 -0.473717 0)
(0.0290545 -0.476182 0)
(0.0210357 -0.458711 0)
(0.000302359 -0.354426 0)
(0.0015581 -0.355974 0)
(0.00221904 -0.356366 0)
(0.0031616 -0.357497 0)
(0.00404461 -0.358963 0)
(0.00490147 -0.360779 0)
(0.00573207 -0.362938 0)
(0.00653213 -0.36544 0)
(0.00730047 -0.368285 0)
(0.00803486 -0.371461 0)
(0.008726 -0.374955 0)
(0.00936532 -0.378753 0)
(0.00994469 -0.382838 0)
(0.010456 -0.38719 0)
(0.0108932 -0.391785 0)
(0.0112583 -0.396595 0)
(0.0115982 -0.401592 0)
(0.011893 -0.406788 0)
(0.0120876 -0.412413 0)
(0.0140735 -0.417922 0)
(0.0137864 -0.423182 0)
(0.0366608 -0.42768 0)
(0.0508027 -0.447902 0)
(0.00090299 -0.306293 0)
(-0.00274926 -0.307102 0)
(-0.00334636 -0.307996 0)
(-0.00479122 -0.309207 0)
(-0.00617532 -0.310854 0)
(-0.00764256 -0.312917 0)
(-0.00917832 -0.315402 0)
(-0.010814 -0.318302 0)
(-0.0125502 -0.321597 0)
(-0.0143768 -0.325285 0)
(-0.0163091 -0.329366 0)
(-0.0183524 -0.333842 0)
(-0.0204985 -0.338716 0)
(-0.0227266 -0.343998 0)
(-0.0249937 -0.349707 0)
(-0.0272397 -0.355872 0)
(-0.0294622 -0.362537 0)
(-0.0316575 -0.369759 0)
(-0.0329277 -0.378294 0)
(-0.0298544 -0.389749 0)
(-0.0255879 -0.418351 0)
(0.0385571 -0.469841 0)
(0.0545369 -0.685251 0)
(0.00444234 -0.498458 0)
(-0.0167682 -0.498265 0)
(-0.0192986 -0.500454 0)
(-0.0272308 -0.500918 0)
(-0.0349835 -0.502074 0)
(-0.0431441 -0.503661 0)
(-0.0514055 -0.505844 0)
(-0.0597871 -0.508514 0)
(-0.0683855 -0.511725 0)
(-0.0772565 -0.51531 0)
(-0.0863804 -0.519269 0)
(-0.0956984 -0.523672 0)
(-0.105113 -0.528597 0)
(-0.114467 -0.534156 0)
(-0.123498 -0.540492 0)
(-0.131912 -0.547733 0)
(-0.139127 -0.556014 0)
(-0.142789 -0.565786 0)
(-0.143543 -0.580651 0)
(-0.149614 -0.616933 0)
(-0.14273 -0.694237 0)
(-0.0839258 -0.818174 0)
(-0.145598 -0.912342 0)
(-0.00536523 -0.330501 0)
(-0.0129464 -0.335054 0)
(-0.0214874 -0.33554 0)
(-0.0299922 -0.336134 0)
(-0.0378075 -0.337135 0)
(-0.0461915 -0.338305 0)
(-0.0550559 -0.339655 0)
(-0.0642657 -0.341259 0)
(-0.0737653 -0.343176 0)
(-0.0835534 -0.345446 0)
(-0.0936605 -0.348113 0)
(-0.104152 -0.351235 0)
(-0.115128 -0.35491 0)
(-0.126693 -0.359299 0)
(-0.138965 -0.364655 0)
(-0.152136 -0.37137 0)
(-0.166084 -0.380015 0)
(-0.180569 -0.39159 0)
(-0.199872 -0.40799 0)
(-0.225126 -0.429477 0)
(-0.235971 -0.456884 0)
(-0.270268 -0.511387 0)
(-0.429545 -0.595079 0)
(-0.00431443 -0.341564 0)
(-0.0133828 -0.348284 0)
(-0.0225317 -0.3489 0)
(-0.0316069 -0.349039 0)
(-0.0408172 -0.349676 0)
(-0.0500067 -0.350731 0)
(-0.0594478 -0.352067 0)
(-0.0692618 -0.353628 0)
(-0.0795104 -0.355413 0)
(-0.0902387 -0.357446 0)
(-0.101488 -0.359772 0)
(-0.113326 -0.362446 0)
(-0.125876 -0.365533 0)
(-0.139317 -0.369105 0)
(-0.153885 -0.373248 0)
(-0.169868 -0.378048 0)
(-0.187526 -0.383531 0)
(-0.207753 -0.389779 0)
(-0.232811 -0.397011 0)
(-0.262347 -0.405467 0)
(-0.292451 -0.421807 0)
(-0.336674 -0.462362 0)
(-0.427587 -0.50662 0)
(-0.00427787 -0.318233 0)
(-0.0138923 -0.324783 0)
(-0.0228829 -0.324905 0)
(-0.0315751 -0.325143 0)
(-0.0412848 -0.325307 0)
(-0.0511138 -0.325557 0)
(-0.0610633 -0.325926 0)
(-0.0712316 -0.326402 0)
(-0.0817306 -0.326968 0)
(-0.0926716 -0.327601 0)
(-0.104164 -0.328283 0)
(-0.116323 -0.329005 0)
(-0.129288 -0.329763 0)
(-0.143233 -0.330547 0)
(-0.158354 -0.331329 0)
(-0.174817 -0.332039 0)
(-0.192795 -0.332552 0)
(-0.212767 -0.332724 0)
(-0.235422 -0.3321 0)
(-0.260096 -0.329756 0)
(-0.286731 -0.326748 0)
(-0.325944 -0.328026 0)
(-0.389386 -0.333138 0)
(-0.0045437 -0.300938 0)
(-0.0137904 -0.307077 0)
(-0.0230161 -0.306633 0)
(-0.0323227 -0.306835 0)
(-0.0416299 -0.306977 0)
(-0.0512563 -0.306988 0)
(-0.0611851 -0.306902 0)
(-0.0714423 -0.306745 0)
(-0.0820711 -0.306528 0)
(-0.0931165 -0.306246 0)
(-0.104642 -0.305875 0)
(-0.116742 -0.305373 0)
(-0.129542 -0.304682 0)
(-0.143179 -0.303732 0)
(-0.157774 -0.302433 0)
(-0.173438 -0.300654 0)
(-0.190341 -0.298218 0)
(-0.208839 -0.294901 0)
(-0.229237 -0.290323 0)
(-0.251096 -0.284058 0)
(-0.273856 -0.276513 0)
(-0.301052 -0.268551 0)
(-0.338184 -0.259593 0)
(-0.00453957 -0.283146 0)
(-0.0130656 -0.288655 0)
(-0.0222004 -0.28855 0)
(-0.0321047 -0.2882 0)
(-0.041462 -0.287839 0)
(-0.0508941 -0.287386 0)
(-0.0605349 -0.286797 0)
(-0.070465 -0.286046 0)
(-0.0807435 -0.285109 0)
(-0.0914092 -0.283956 0)
(-0.102493 -0.282555 0)
(-0.114044 -0.280859 0)
(-0.126147 -0.278799 0)
(-0.138906 -0.276286 0)
(-0.152404 -0.273204 0)
(-0.166668 -0.269412 0)
(-0.181706 -0.264731 0)
(-0.197596 -0.258914 0)
(-0.214429 -0.251602 0)
(-0.231997 -0.242427 0)
(-0.249923 -0.231359 0)
(-0.269593 -0.218732 0)
(-0.293325 -0.205381 0)
(-0.00430372 -0.265072 0)
(-0.0131522 -0.26996 0)
(-0.0219343 -0.270226 0)
(-0.0307264 -0.269805 0)
(-0.0397987 -0.269126 0)
(-0.0489954 -0.268259 0)
(-0.0583724 -0.267196 0)
(-0.0679701 -0.265918 0)
(-0.0778155 -0.264398 0)
(-0.0879404 -0.262597 0)
(-0.0983782 -0.260465 0)
(-0.109161 -0.257941 0)
(-0.120328 -0.254952 0)
(-0.131921 -0.251403 0)
(-0.143959 -0.247184 0)
(-0.156429 -0.242164 0)
(-0.169308 -0.236202 0)
(-0.182604 -0.229133 0)
(-0.196325 -0.220746 0)
(-0.210302 -0.210804 0)
(-0.224141 -0.19918 0)
(-0.238333 -0.18589 0)
(-0.253985 -0.171528 0)
(-0.00367072 -0.248401 0)
(-0.0125879 -0.253227 0)
(-0.0215552 -0.25275 0)
(-0.0296337 -0.252179 0)
(-0.03814 -0.251343 0)
(-0.0468151 -0.250244 0)
(-0.0556594 -0.24887 0)
(-0.0646896 -0.247199 0)
(-0.0739104 -0.245206 0)
(-0.0833198 -0.242864 0)
(-0.0929212 -0.240131 0)
(-0.102726 -0.236953 0)
(-0.112754 -0.233268 0)
(-0.123027 -0.229001 0)
(-0.133557 -0.22407 0)
(-0.144323 -0.218388 0)
(-0.155277 -0.211859 0)
(-0.16636 -0.204375 0)
(-0.177505 -0.195797 0)
(-0.188566 -0.185971 0)
(-0.199237 -0.174786 0)
(-0.209691 -0.1622 0)
(-0.220492 -0.148503 0)
(-0.00390548 -0.232139 0)
(-0.0117546 -0.237003 0)
(-0.019545 -0.236221 0)
(-0.0276823 -0.235414 0)
(-0.0357698 -0.234393 0)
(-0.0439363 -0.233098 0)
(-0.0521857 -0.231507 0)
(-0.0605292 -0.229596 0)
(-0.0689905 -0.227332 0)
(-0.077579 -0.224686 0)
(-0.0862898 -0.221624 0)
(-0.0951191 -0.218108 0)
(-0.10407 -0.214089 0)
(-0.113146 -0.209509 0)
(-0.122335 -0.204305 0)
(-0.131601 -0.198407 0)
(-0.140881 -0.191748 0)
(-0.150093 -0.184262 0)
(-0.159154 -0.175877 0)
(-0.167944 -0.16652 0)
(-0.176247 -0.156135 0)
(-0.184129 -0.144666 0)
(-0.19195 -0.132212 0)
(-0.00400534 -0.216774 0)
(-0.0111269 -0.220736 0)
(-0.018077 -0.220358 0)
(-0.0257262 -0.219573 0)
(-0.0332518 -0.218493 0)
(-0.0408049 -0.217102 0)
(-0.0484039 -0.215383 0)
(-0.0560518 -0.213325 0)
(-0.0637553 -0.210909 0)
(-0.0715226 -0.20811 0)
(-0.0793495 -0.204898 0)
(-0.0872205 -0.201246 0)
(-0.0951186 -0.197118 0)
(-0.103029 -0.192468 0)
(-0.110933 -0.187246 0)
(-0.118803 -0.181399 0)
(-0.12659 -0.174882 0)
(-0.134229 -0.167659 0)
(-0.141645 -0.159703 0)
(-0.148742 -0.150994 0)
(-0.155357 -0.141518 0)
(-0.16151 -0.131234 0)
(-0.167437 -0.120163 0)
(-0.00316405 -0.203377 0)
(-0.00995338 -0.206809 0)
(-0.0169965 -0.206419 0)
(-0.0237977 -0.205592 0)
(-0.0306549 -0.204424 0)
(-0.0375165 -0.202932 0)
(-0.0443937 -0.201104 0)
(-0.0513017 -0.198925 0)
(-0.0582343 -0.19638 0)
(-0.0651824 -0.193453 0)
(-0.0721389 -0.190124 0)
(-0.0790906 -0.186374 0)
(-0.0860161 -0.182183 0)
(-0.0928902 -0.177529 0)
(-0.0996869 -0.172385 0)
(-0.106379 -0.166721 0)
(-0.112933 -0.160509 0)
(-0.119301 -0.153727 0)
(-0.125429 -0.146359 0)
(-0.131241 -0.138403 0)
(-0.136613 -0.129859 0)
(-0.14155 -0.120697 0)
(-0.146189 -0.110889 0)
(-0.0026631 -0.190054 0)
(-0.008993 -0.193791 0)
(-0.0155136 -0.193225 0)
(-0.0216044 -0.192363 0)
(-0.0277802 -0.191175 0)
(-0.0339631 -0.189663 0)
(-0.0401412 -0.187826 0)
(-0.0463171 -0.18565 0)
(-0.0524928 -0.183118 0)
(-0.0586607 -0.180217 0)
(-0.064809 -0.176935 0)
(-0.0709246 -0.173257 0)
(-0.0769896 -0.169168 0)
(-0.0829793 -0.164657 0)
(-0.0888635 -0.159714 0)
(-0.0946097 -0.154326 0)
(-0.100184 -0.148485 0)
(-0.105547 -0.142179 0)
(-0.110657 -0.135404 0)
(-0.11546 -0.128163 0)
(-0.11987 -0.120463 0)
(-0.12388 -0.112278 0)
(-0.127582 -0.103521 0)
(-0.002766 -0.178298 0)
(-0.00839722 -0.181902 0)
(-0.0138424 -0.181275 0)
(-0.0193849 -0.180371 0)
(-0.0249197 -0.179176 0)
(-0.030459 -0.177672 0)
(-0.0359939 -0.175856 0)
(-0.0415022 -0.173725 0)
(-0.0469792 -0.171269 0)
(-0.0524229 -0.168475 0)
(-0.0578237 -0.16533 0)
(-0.0631672 -0.161822 0)
(-0.0684372 -0.157939 0)
(-0.0736147 -0.153669 0)
(-0.078676 -0.149006 0)
(-0.0835929 -0.143945 0)
(-0.0883337 -0.138486 0)
(-0.0928641 -0.132631 0)
(-0.0971485 -0.126386 0)
(-0.101148 -0.119763 0)
(-0.104805 -0.112777 0)
(-0.108098 -0.105406 0)
(-0.111113 -0.0975212 0)
(-0.00265468 -0.168466 0)
(-0.00752151 -0.171566 0)
(-0.0122043 -0.170991 0)
(-0.0171945 -0.170095 0)
(-0.0221377 -0.168904 0)
(-0.0270641 -0.167418 0)
(-0.0319702 -0.165628 0)
(-0.0368451 -0.163532 0)
(-0.0416756 -0.161129 0)
(-0.0464515 -0.158413 0)
(-0.0511637 -0.155373 0)
(-0.0558009 -0.152001 0)
(-0.0603493 -0.148291 0)
(-0.0647931 -0.144237 0)
(-0.0691145 -0.139836 0)
(-0.073293 -0.135085 0)
(-0.077305 -0.129989 0)
(-0.0811241 -0.124553 0)
(-0.0847228 -0.118788 0)
(-0.0880734 -0.112711 0)
(-0.0911333 -0.106341 0)
(-0.0938761 -0.0996613 0)
(-0.0963855 -0.0925467 0)
(-0.00214655 -0.159281 0)
(-0.00638939 -0.162131 0)
(-0.0106944 -0.161643 0)
(-0.0150642 -0.160829 0)
(-0.0194132 -0.159708 0)
(-0.0237348 -0.158292 0)
(-0.0280175 -0.156578 0)
(-0.0322657 -0.154562 0)
(-0.036471 -0.152243 0)
(-0.0406177 -0.149618 0)
(-0.0446943 -0.146687 0)
(-0.0486914 -0.143449 0)
(-0.0525988 -0.139903 0)
(-0.056403 -0.136049 0)
(-0.0600888 -0.131889 0)
(-0.0636392 -0.127427 0)
(-0.0670361 -0.122669 0)
(-0.0702598 -0.117623 0)
(-0.0732905 -0.112299 0)
(-0.0761083 -0.106715 0)
(-0.0786804 -0.100887 0)
(-0.0809854 -0.0948063 0)
(-0.0830957 -0.088388 0)
(-0.00165685 -0.15085 0)
(-0.00540801 -0.153662 0)
(-0.0093256 -0.153209 0)
(-0.0130777 -0.152449 0)
(-0.0168255 -0.151401 0)
(-0.0205451 -0.150065 0)
(-0.0242303 -0.148443 0)
(-0.0278771 -0.146532 0)
(-0.0314795 -0.144328 0)
(-0.0350289 -0.14183 0)
(-0.0385157 -0.139042 0)
(-0.04193 -0.135967 0)
(-0.0452611 -0.132609 0)
(-0.0484975 -0.128972 0)
(-0.0516264 -0.125061 0)
(-0.0546336 -0.120882 0)
(-0.057504 -0.116443 0)
(-0.0602215 -0.111754 0)
(-0.0627706 -0.106826 0)
(-0.0651361 -0.101673 0)
(-0.0672922 -0.0963116 0)
(-0.0692261 -0.0907394 0)
(-0.070989 -0.0849153 0)
(-0.00142778 -0.143891 0)
(-0.00469875 -0.146654 0)
(-0.00803137 -0.146184 0)
(-0.0112145 -0.145425 0)
(-0.0143852 -0.144402 0)
(-0.0175305 -0.143109 0)
(-0.0206536 -0.141543 0)
(-0.0237395 -0.139706 0)
(-0.0267798 -0.137596 0)
(-0.0297726 -0.135215 0)
(-0.0327135 -0.132565 0)
(-0.0355925 -0.129649 0)
(-0.0383976 -0.126472 0)
(-0.0411179 -0.12304 0)
(-0.0437424 -0.119358 0)
(-0.0462599 -0.115436 0)
(-0.0486579 -0.11128 0)
(-0.0509235 -0.1069 0)
(-0.053044 -0.102309 0)
(-0.0550076 -0.0975193 0)
(-0.0567953 -0.0925445 0)
(-0.0583993 -0.0873902 0)
(-0.0598486 -0.0820344 0)
(-0.00133367 -0.13837 0)
(-0.00406614 -0.141047 0)
(-0.00672473 -0.140554 0)
(-0.00938238 -0.139791 0)
(-0.0120172 -0.138774 0)
(-0.0146348 -0.137501 0)
(-0.0172309 -0.135968 0)
(-0.0197947 -0.134176 0)
(-0.0223198 -0.132131 0)
(-0.024803 -0.129837 0)
(-0.0272393 -0.127294 0)
(-0.0296205 -0.124507 0)
(-0.0319377 -0.121478 0)
(-0.0341819 -0.118214 0)
(-0.0363439 -0.114722 0)
(-0.0384135 -0.111009 0)
(-0.0403803 -0.107085 0)
(-0.0422339 -0.102959 0)
(-0.0439647 -0.0986417 0)
(-0.0455638 -0.0941456 0)
(-0.0470196 -0.0894847 0)
(-0.0483243 -0.0846667 0)
(-0.0494927 -0.0796675 0)
(-0.00118689 -0.13381 0)
(-0.00334672 -0.136393 0)
(-0.00538593 -0.135904 0)
(-0.00754138 -0.135159 0)
(-0.00967747 -0.134163 0)
(-0.0118026 -0.132916 0)
(-0.0139022 -0.13142 0)
(-0.0159745 -0.129678 0)
(-0.0180198 -0.127696 0)
(-0.0200322 -0.125477 0)
(-0.022002 -0.123025 0)
(-0.0239209 -0.120343 0)
(-0.0257833 -0.117436 0)
(-0.027584 -0.114311 0)
(-0.0293162 -0.110975 0)
(-0.0309714 -0.107435 0)
(-0.0325408 -0.103701 0)
(-0.0340163 -0.0997803 0)
(-0.0353913 -0.0956853 0)
(-0.0366598 -0.0914274 0)
(-0.0378155 -0.08702 0)