/*--------------------------------*- C++ -*----------------------------------*\
| =========                 |                                                 |
| \\      /  F ield         | OpenFOAM: The Open Source CFD Toolbox           |
|  \\    /   O peration     | Version:  2206                                  |
|   \\  /    A nd           | Website:  www.openfoam.com                      |
|    \\/     M anipulation  |                                                 |
\*---------------------------------------------------------------------------*/
FoamFile
{
    version     2.0;
    format      ascii;
    arch        "LSB;label=32;scalar=64";
    class       volScalarField;
    location    "0.825";
    object      p_rgh;
}
// * * * * * * * * * * * * * * * * * * * * * * * * * * * * * * * * * * * * * //

dimensions      [1 -1 -2 0 0 0 0];

internalField   nonuniform List<scalar> 
2268
(
796.51
796.055
796.166
797.955
805.466
821.057
842.034
863.876
883.81
899.868
909.941
912.908
909.134
900.448
889.252
875.886
862.205
852.538
847.08
850.984
864.991
880.643
886.392
795.915
794.824
794.159
794.906
801.592
818.233
841.276
864.109
884.67
901.188
911.462
914.322
910.187
900.985
889.515
876.74
862.384
849.684
840.576
844.811
858.884
875.627
884.388
790.783
789.299
788.777
789.391
796.32
815.075
840
864.591
886.389
903.802
914.475
917.079
912.131
901.866
889.557
878.372
865.403
847.457
837.929
842.457
856.692
874.447
882.393
781.666
780.305
780.6
781.389
788.564
809.359
838.153
865.582
889.219
907.912
919.115
921.225
914.873
902.91
889.133
876.634
865.596
854.197
846.629
852.149
865.141
876.003
880.902
769.794
768.789
770.192
771.461
779.476
803.528
836.845
867.548
893.35
913.627
925.423
926.68
918.171
903.696
887.831
873.599
861.726
852.76
848.346
854.061
867.467
876.319
879.927
756.166
755.469
758.289
760.892
770.861
799.096
836.723
870.614
898.901
921.139
933.613
933.708
922.249
904.25
885.524
869.072
855.878
847.056
845.338
853.173
868.402
877.859
879.238
741.64
740.928
745.802
750.939
763.895
796.08
836.591
873.767
905.651
930.617
943.87
942.3
926.584
903.829
881.581
862.543
847.859
838.957
840.224
851.159
870.109
881.217
878.974
727.44
726.206
733.857
742.657
758.922
794.358
832.907
876.501
912.805
941.669
955.803
950.404
928.712
900.496
874.704
853.235
837.184
828.201
832.983
848.136
872.928
886.38
880.999
952.575
864.679
803.391
816.203
851.108
783.1
678.388
642.66
612.199
580.354
534.307
511.198
514.114
551.574
612.207
702.309
805.857
892.388
979.949
957.254
845.434
778.181
800.167
843.435
781.105
681.261
621.986
586.572
549.936
512.095
491.825
501.088
545.094
593.293
677.486
789.396
884.94
980.399
941.456
810.33
749.657
776.071
843.615
794.711
678.57
580.379
546.165
507.615
481.138
491.654
513.779
536.946
580.66
652.988
776.835
864.498
986.801
912.464
771.236
693.599
742.173
856.86
826.364
653.235
526.372
502.892
460.667
385.234
439.499
496.187
528.396
554.54
644.088
777.873
910.812
1018.27
883.938
745.072
683.083
746.531
889.338
860.33
623.688
470.61
416.014
378.576
313.399
314.132
369.12
466.061
526.733
622.09
831.089
983.934
1013.94
872.721
758.921
684.363
806.75
928.375
892.721
620.074
398.085
334.49
315.196
312.21
312.878
308.065
368.399
489.863
606.769
852.004
1041.38
950.448
880.628
771.739
704.231
780.384
948.013
918.688
604.451
345.16
327.81
312.807
308.625
308.452
302.166
331.901
457.578
611.35
737.727
906.416
977.355
894.01
798.503
800.67
727.274
949.764
935.434
569.703
322.599
316.618
303.503
303.755
305.597
301.731
299.027
354.555
512.418
754.264
974.626
1180.69
662.577
682.331
691.208
704.099
716.497
770.685
828.153
876.95
925.778
964.583
980.496
967.832
932.856
892.697
860.62
834.581
814.146
805.801
817.087
840.713
880.769
900.553
865.107
372.257
323.287
356.399
403.386
460.772
524.113
617.604
763.068
892.85
984.45
1020.58
974.537
858.431
710.378
610.243
545.834
502.698
513.729
575.277
648.329
757.874
770.567
627.418
56.7808
36.423
58.276
97.4634
177.882
299.477
420.796
568.133
761.556
874.097
868.291
682.923
406.509
261.614
205.063
171.763
123.385
108.886
119.136
157.46
218.096
285.703
152.624
19.8223
18.0642
20.2392
13.3406
10.324
99.1356
402.389
549.454
572.816
311.151
152.491
158.089
289.046
305.499
217.23
174.738
126.254
109.061
106.413
111.252
184.015
335.59
150.873
7.51636
3.64815
1.35838
0.246201
7.00228
22.2779
30.749
35.322
18.6342
1.32863
-0.486813
4.19042
120.056
277.205
309.747
320.712
319.265
114.953
106.713
107.899
315.396
408.441
338.141
2.12665
0.300923
-0.513942
-1.25647
-1.74769
-2.10044
-1.97816
-1.78511
-1.57163
-1.41561
-1.37163
-1.11285
-0.54579
51.3444
251.768
300.559
328.011
361.689
187.458
203.61
454.147
423.384
383.586
0.42418
-0.839635
-1.28143
-1.7694
-2.04405
-2.07279
-1.93982
-1.75187
-1.63911
-1.59262
-1.5488
-1.48713
-1.33892
-1.18755
-1.08327
16.9142
271.245
384.061
410.932
422.486
421.715
440.96
398.866
-0.156792
-1.49269
-1.66686
-2.00833
-2.09877
-2.04327
-1.91315
-1.74434
-1.60287
-1.62951
-1.6426
-1.57032
-1.45246
-1.31676
-1.15598
-1.0299
-1.49231
30.3944
116.444
70.1565
22.9474
165.118
426.501
-0.443708
-1.79089
-1.94843
-2.18093
-2.1541
-2.02778
-1.86254
-1.73065
-1.63996
-1.61341
-1.613
-1.56353
-1.46765
-1.35826
-1.22603
-1.09491
-1.04588
-1.20494
-1.29697
-0.632642
0.0784507
0.0291268
92.7252
-0.441685
-1.61558
-2.04632
-2.22159
-2.15171
-1.97895
-1.78532
-1.64001
-1.55617
-1.52175
-1.50093
-1.46645
-1.40423
-1.32205
-1.22961
-1.14411
-1.10088
-1.13776
-1.18565
-1.248
-1.39739
-1.50614
-1.31147
-0.305985
-1.16032
-1.82539
-2.07519
-2.03826
-1.87073
-1.67381
-1.52152
-1.43439
-1.39485
-1.37136
-1.34119
-1.29094
-1.22463
-1.15675
-1.08183
-1.04677
-1.12894
-1.29955
-1.5562
-1.85613
-2.08507
-1.99846
-0.21708
-0.698592
-1.38255
-1.7524
-1.79903
-1.67694
-1.50417
-1.36704
-1.29317
-1.26165
-1.24373
-1.22267
-1.1908
-1.14924
-1.10546
-1.08123
-0.957343
-0.992557
-1.41877
-1.81937
-2.14781
-1.72178
-1.16173
-0.249553
-0.43721
-0.894092
-1.2713
-1.41578
-1.37695
-1.26478
-1.17289
-1.13224
-1.1229
-1.12134
-1.11709
-1.10672
-1.09293
-1.08448
-1.10212
-1.03127
-0.772704
-1.22413
-1.97973
-2.21523
-1.48639
-0.832623
-0.331326
-0.330086
-0.469439
-0.729907
-0.931387
-0.994729
-0.975969
-0.955388
-0.961405
-0.981711
-1.00219
-1.01852
-1.03111
-1.04441
-1.06811
-1.11548
-1.20354
-0.824333
-0.628888
-1.93411
-2.21451
-2.141
-0.894686
-0.334524
-0.238598
-0.147239
-0.276795
-0.483778
-0.62467
-0.697358
-0.748666
-0.799554
-0.847329
-0.888225
-0.922945
-0.954548
-0.988363
-1.03309
-1.09998
-1.20601
-1.27832
-0.482406
-0.088183
-1.85791
-1.835
-1.55653
-0.22177
-0.0896258
0.0507085
-0.0084754
-0.188337
-0.358012
-0.483755
-0.580902
-0.661217
-0.727726
-0.783067
-0.830722
-0.874698
-0.920292
-0.974388
-1.04629
-1.14528
-1.28342
-1.26793
0.390611
0.381765
-0.869816
-1.32177
-0.0614103
0.0303225
0.125984
0.0873586
-0.0542415
-0.211864
-0.347173
-0.458388
-0.54985
-0.625049
-0.688043
-0.742791
-0.793024
-0.843108
-0.898132
-0.964241
-1.0471
-1.15533
-1.27887
-1.12056
0.729505
1.44353
1.25476
0.0330433
0.0785345
0.12352
0.0882686
-0.0185747
-0.146347
-0.266417
-0.371713
-0.461587
-0.537501
-0.602371
-0.659299
-0.711139
-0.760942
-0.812116
-0.86816
-0.932211
-1.00779
-1.09726
-1.18154
-1.15619
1.52882
1.97578
0.0586258
0.0746176
0.091961
0.0588804
-0.0207598
-0.1187
-0.217321
-0.309192
-0.391141
-0.462728
-0.525282
-0.580692
-0.630827
-0.677532
-0.722727
-0.768133
-0.815019
-0.863378
-0.913958
-0.962941
-0.987896
-0.777245
-0.781186
0.0563994
0.0586737
0.0605853
0.0296008
-0.0307218
-0.105645
-0.184977
-0.262421
-0.334209
-0.398864
-0.456506
-0.507958
-0.55421
-0.596201
-0.634741
-0.670359
-0.703094
-0.731741
-0.753804
-0.767462
-0.764609
-0.736483
-0.674326
0.0449734
0.0448551
0.0370317
0.00793623
-0.0394171
-0.0979181
-0.161728
-0.226089
-0.287567
-0.344316
-0.395743
-0.441913
-0.483129
-0.519686
-0.551705
-0.579033
-0.601085
-0.616563
-0.622716
-0.616668
-0.594388
-0.553003
-0.491788
0.031567
0.0313296
0.0193058
-0.00719418
-0.0454666
-0.0920615
-0.143653
-0.196847
-0.248794
-0.297652
-0.342483
-0.382884
-0.418698
-0.449806
-0.475964
-0.496724
-0.511335
-0.518696
-0.517051
-0.504206
-0.478027
-0.437696
-0.382757
0.0188865
0.0184075
0.00558962
-0.0177768
-0.0491549
-0.0867779
-0.128729
-0.1726
-0.216116
-0.257619
-0.296054
-0.330771
-0.361344
-0.38742
-0.408592
-0.424344
-0.433985
-0.436664
-0.431391
-0.416997
-0.392375
-0.356303
-0.310961
0.00786523
0.00714927
-0.00498742
-0.0251346
-0.051003
-0.0816403
-0.115898
-0.152037
-0.188272
-0.223179
-0.255722
-0.285155
-0.310927
-0.332577
-0.349643
-0.361627
-0.36796
-0.368024
-0.361205
-0.346861
-0.324468
-0.293955
-0.257356
-0.00132067
-0.00215334
-0.0130366
-0.0301375
-0.0514899
-0.0765473
-0.104586
-0.134317
-0.164341
-0.193474
-0.220765
-0.245463
-0.266986
-0.28484
-0.298568
-0.307724
-0.311864
-0.310562
-0.30345
-0.29024
-0.270811
-0.245099
-0.216566
-0.00869901
-0.00955039
-0.0190151
-0.0333733
-0.0509759
-0.0715002
-0.0944647
-0.118881
-0.143653
-0.167806
-0.190506
-0.211057
-0.228894
-0.243541
-0.254575
-0.261614
-0.264325
-0.262435
-0.255773
-0.244322
-0.228362
-0.208747
-0.184469
-0.0143805
-0.015195
-0.0232742
-0.0352384
-0.0497131
-0.0665202
-0.0853167
-0.105325
-0.125681
-0.145589
-0.164337
-0.181309
-0.195995
-0.207956
-0.216816
-0.22226
-0.224045
-0.222008
-0.216091
-0.206378
-0.193151
-0.176876
-0.157787
-0.0185319
-0.0192819
-0.0260941
-0.0360045
-0.0478716
-0.0616174
-0.0769791
-0.0933354
-0.11
-0.126322
-0.141708
-0.155632
-0.167647
-0.177365
-0.184464
-0.18869
-0.189867
-0.187902
-0.182797
-0.174669
-0.163784
-0.150529
-0.135374
-0.0213374
-0.0220129
-0.027706
-0.035873
-0.0455739
-0.0567929
-0.0693212
-0.0826588
-0.096252
-0.10957
-0.122123
-0.133476
-0.143245
-0.151097
-0.156763
-0.160042
-0.160808
-0.159011
-0.154684
-0.147956
-0.139072
-0.128365
-0.116273
-0.0229794
-0.0235849
-0.0283066
-0.0350069
-0.0429127
-0.0520433
-0.0622344
-0.0730799
-0.0841271
-0.0949435
-0.105133
-0.114336
-0.12223
-0.128535
-0.133032
-0.135565
-0.136044
-0.134446
-0.130821
-0.125297
-0.118091
-0.109488
-0.0998414
-0.0236285
-0.0241824
-0.0280664
-0.0335431
-0.0399616
-0.0473649
-0.055629
-0.0644175
-0.0733587
-0.0821036
-0.0903321
-0.0977499
-0.104088
-0.109116
-0.11266
-0.1146
-0.114873
-0.113472
-0.110454
-0.105941
-0.100124
-0.0932468
-0.0856219
-0.0234456
-0.0239693
-0.0271351
-0.0315964
-0.0367805
-0.0427558
-0.0494304
-0.0565186
-0.0637194
-0.0707535
-0.0773616
-0.0833019
-0.0883534
-0.0923318
-0.0950996
-0.0965657
-0.0966854
-0.095463
-0.092956
-0.0892754
-0.0845876
-0.0790961
-0.0730498
-0.022583
-0.0230843
-0.0256424
-0.0292627
-0.0334203
-0.0382164
-0.0435772
-0.0492579
-0.0550204
-0.0606425
-0.0659124
-0.0706317
-0.0746222
-0.0777386
-0.0798741
-0.0809584
-0.0809596
-0.0798874
-0.0777974
-0.0747886
-0.0710026
-0.0666073
-0.0618
-0.0211785
-0.021644
-0.0236989
-0.0266241
-0.029929
-0.0337522
-0.0380243
-0.0425384
-0.047112
-0.0515669
-0.0557294
-0.0594387
-0.062554
-0.0649623
-0.0665803
-0.0673526
-0.0672557
-0.0663023
-0.0645438
-0.0620667
-0.0589902
-0.0554519
-0.0516122
-0.0193498
-0.0197519
-0.0214008
-0.0237544
-0.0263542
-0.0293744
-0.0327419
-0.0362887
-0.0398783
-0.0433653
-0.0466086
-0.049481
-0.0518734
-0.0536985
-0.0548901
-0.0554039
-0.0552224
-0.0543599
-0.0528628
-0.0508059
-0.0482888
-0.0454251
-0.0423479
-0.017199
-0.017506
-0.0188359
-0.0207214
-0.02274
-0.0250956
-0.0277096
-0.0304544
-0.0332276
-0.0359094
-0.0383888
-0.040568
-0.0423639
-0.043709
-0.0445498
-0.0448508
-0.0446
-0.0438125
-0.0425299
-0.0408156
-0.0387533
-0.0364374
-0.033981
-0.0148161
-0.014997
-0.0160833
-0.0175826
-0.0191202
-0.0209234
-0.0229094
-0.0249894
-0.0270842
-0.0290965
-0.0309431
-0.0325515
-0.0338591
-0.0348133
-0.0353715
-0.0355058
-0.0352095
-0.0344977
-0.0334064
-0.0319894
-0.0303162
-0.0284663
-0.0265362
-0.0122788
-0.0123073
-0.0132098
-0.0143801
-0.0155161
-0.0168598
-0.0183234
-0.0198529
-0.0213849
-0.0228435
-0.0241712
-0.0253155
-0.0262299
-0.0268742
-0.0272148
-0.0272316
-0.0269216
-0.0262993
-0.0253947
-0.0242522
-0.0229289
-0.0214901
-0.0200182
-0.00963684
-0.00949937
-0.010263
-0.0111414
-0.0119405
-0.0129021
-0.0139313
-0.0150056
-0.0160723
-0.017078
-0.017986
-0.0187594
-0.019365
-0.0197724
-0.0199569
-0.019905
-0.0196163
-0.0191033
-0.0183899
-0.0175105
-0.0165095
-0.0154384
-0.0143651
-0.00695248
-0.00666391
-0.00729358
-0.00789802
-0.00841494
-0.0090581
-0.0097248
-0.0104226
-0.0111062
-0.0117446
-0.0123168
-0.0127978
-0.0131655
-0.0133985
-0.0134801
-0.0134023
-0.0131662
-0.0127813
-0.0122642
-0.011639
-0.0109367
-0.0101953
-0.00946867
-0.0041434
-0.00378684
-0.00431051
-0.00465477
-0.00493268
-0.00529999
-0.00566157
-0.00604584
-0.00641483
-0.00675787
-0.00706389
-0.00731789
-0.00750712
-0.00761852
-0.00764284
-0.00757622
-0.00741973
-0.00717862
-0.00686188
-0.00648328
-0.00606066
-0.0056183
-0.00519288
-0.00175007
-0.00130428
-0.00146807
-0.00155971
-0.00164941
-0.00177259
-0.00186798
-0.00197802
-0.0020729
-0.00215992
-0.00223403
-0.00229108
-0.0023277
-0.00233976
-0.002325
-0.00228283
-0.00221376
-0.00211928
-0.00200235
-0.00186804
-0.00172287
-0.0015774
-0.00144864
850.193
852.261
863.349
877.246
603.185
653.228
715.509
785.37
86.827
98.6614
173.287
379.26
33.469
37.8675
47.7998
93.4951
35.8799
34.5647
34.1336
34.0731
181.424
33.5571
30.6804
28.436
396.584
125.776
29.2501
27.314
415.656
424.254
239.994
25.4147
455.019
439.381
416.216
86.047
86.1237
397.719
447.715
213.721
-2.70787
46.3921
280.149
319.439
-1.36775
-1.64075
-2.22853
-0.211854
-0.689963
-0.470777
-0.109311
0.38801
0.8652
1.43113
1.07442
0.323488
-1.01709
1.5026
2.08458
2.49558
-1.07773
-0.891103
1.0986
2.34964
0.226175
0.338263
1.07509
2.46142
2.13596
2.31908
2.49435
2.6692
-0.794562
-0.720041
0.771437
2.91382
-0.590479
-0.521732
-0.44354
-0.363457
-0.42335
-0.373833
-0.323181
-0.270642
-0.329434
-0.291553
-0.253265
-0.215432
-0.270481
-0.242646
-0.214766
-0.187323
-0.22599
-0.204926
-0.183992
-0.163464
-0.192428
-0.176344
-0.160358
-0.144653
-0.16527
-0.152658
-0.140179
-0.12796
-0.142635
-0.132727
-0.122941
-0.113357
-0.123388
-0.115572
-0.10786
-0.100306
-0.106783
-0.100623
-0.0945562
-0.088608
-0.0923449
-0.0875038
-0.0827424
-0.0780725
-0.0796853
-0.0758729
-0.0721356
-0.0684805
-0.0683704
-0.065375
-0.0624473
-0.0595933
-0.0581087
-0.0557503
-0.053451
-0.0512159
-0.0486927
-0.0468305
-0.0450171
-0.0432582
-0.0400342
-0.0385661
-0.037137
-0.0357535
-0.0321594
-0.0310097
-0.0298993
-0.0288268
-0.0251328
-0.0242551
-0.0234128
-0.0226056
-0.0189747
-0.0183279
-0.0177103
-0.0171318
-0.0136252
-0.0131725
-0.0127484
-0.0123592
-0.00898358
-0.00869295
-0.00842993
-0.00819982
-0.00491684
-0.00475536
-0.00462014
-0.0045217
-0.00137744
-0.00134253
-0.0013224
-0.00132095
919.966
863.728
821.124
677.719
924.828
933.015
490.33
300.113
291.737
281.19
322.596
352.377
327.94
298.404
394.477
757.57
904.103
1027.7
1104.49
916.406
877.995
606.632
629.929
927.785
876.271
282.219
237.495
260.393
375.971
400.189
408.966
413.781
318.102
458.948
660.586
729.948
889.113
954.439
718.766
839.464
843.1
869.316
964.206
652.734
103.622
107.826
292.857
275.687
266.508
287.742
301.958
319.842
266.737
127.601
127.216
372.19
836.824
505.093
913.174
929.043
997.12
1030.64
321.878
16.945
9.06443
16.918
6.67221
4.87904
8.14957
47.9092
73.1696
9.12734
3.81047
11.8408
78.1767
848.259
110.79
492.712
934.659
1109.35
1137.24
240.594
-3.43019
-9.07523
-8.75627
-7.93776
-7.92554
-8.81131
-9.6718
-8.86216
-6.53486
-4.16623
-1.49949
35.9451
310.167
24.7066
55.2072
597.139
1194.11
1298.91
456.267
-3.01863
-9.13041
-8.52375
-8.42015
-8.94013
-9.62694
-9.51896
-8.61064
-7.93516
-7.81814
-6.72199
2.25541
33.8018
25.3523
28.1494
143.3
984.815
1390.71
1155.27
36.7296
-7.66153
-7.95603
-7.48702
-8.46948
-9.85866
-9.72324
-9.10921
-8.90281
-9.27252
-8.67148
-2.90697
49.4992
28.7875
30.7212
34.7961
363.97
1333.08
1305.43
160.425
-7.12579
-7.86625
-7.36683
-7.89158
-8.52489
-10.0706
-9.31437
-8.95294
-8.96723
-8.38002
-5.38507
91.9761
31.5631
33.6786
34.494
37.3078
552.755
1370.1
400.56
-4.15776
-7.6507
-8.36054
-8.85786
-8.65225
-10.1603
1.30566
5.61477
-2.70333
-8.09391
-7.81876
97.5786
34.7275
35.9827
36.3687
37.8982
41.0899
433.077
842.705
34.0276
-4.57007
-7.82771
-8.07717
-8.65827
30.7446
287.441
172.679
0.501498
-7.19808
-6.4599
106.502
342.549
318.651
326.225
226.125
190.886
478.019
1275.83
907.69
124.613
-2.27903
-0.373354
-0.230237
346.768
452.38
307.511
2.70814
-4.47454
-4.39443
114.891
12.0389
537.022
1113.57
1224.04
1223.11
1257.27
1348.18
1310.91
1166.17
311.435
16.1944
439.349
568.739
454.982
29.7265
-1.88995
-2.34769
-2.76249
126.577
1.04565
0.952825
0.807817
52.1581
678.107
1183.3
1354.18
1350.44
1343.24
1336.86
1202.8
698.18
28.01
-0.951384
-0.984917
-1.25692
-1.55827
-1.85467
135.414
0.685983
0.616803
0.615328
0.601064
0.363942
0.987646
306.942
710.398
990.188
1003.54
674.896
93.5292
-0.268603
-0.586224
-0.726071
-0.930492
-1.05234
-1.28198
144.066
2.78058
0.518744
0.584566
0.569025
0.508504
0.489274
0.412987
1.81243
35.32
68.663
3.93842
-0.479559
-0.414711
-0.511674
-0.601703
-0.710602
-0.678287
-0.927628
152.28
2.96616
0.503342
0.439366
0.485387
0.467846
0.429658
0.302064
0.180475
-0.0236819
-0.167191
-0.178036
-0.397558
-0.389264
-0.426898
-0.486763
-0.558335
-0.482789
-0.690175
159.972
2.89127
0.266333
0.346326
0.378499
0.366039
0.313351
0.226804
0.126264
-0.0167724
-0.146588
-0.222511
-0.296086
-0.329057
-0.363414
-0.401945
-0.446821
-0.341953
-0.519243
165.757
1.65147
0.0926699
0.198136
0.271889
0.267695
0.227276
0.164139
0.0846219
-0.0124073
-0.105469
-0.179494
-0.240642
-0.278237
-0.307255
-0.331049
-0.359381
-0.278908
-0.399651
90.57
0.120178
-0.0300103
0.115384
0.176266
0.179232
0.153272
0.107553
0.0479354
-0.0212332
-0.090577
-0.151805
-0.20235
-0.236902
-0.259299
-0.271889
-0.289601
-0.301828
-0.378674
-0.619733
-0.222842
-0.0564967
0.0540536
0.103425
0.110777
0.0951123
0.0634097
0.0194969
-0.0322298
-0.0860889
-0.136358
-0.177989
-0.205439
-0.219467
-0.220807
-0.22436
-0.227063
-0.22462
-0.353111
-0.179131
-0.066793
0.010251
0.0489681
0.0588008
0.0498819
0.027464
-0.00538476
-0.0452048
-0.0881752
-0.129781
-0.164131
-0.184476
-0.190222
-0.181493
-0.171032
-0.157914
-0.0380178
-0.175499
-0.154038
-0.0786599
-0.022857
0.00914232
0.0201218
0.0154135
-0.000893031
-0.0262188
-0.058174
-0.0944584
-0.131092
-0.160932
-0.176039
-0.175957
-0.161893
-0.145824
-0.109995
0.515593
0.106194
-0.142228
-0.0867187
-0.0441657
-0.0180109
-0.00757431
-0.00998843
-0.0224245
-0.0430173
-0.0705232
-0.104332
-0.140433
-0.169501
-0.182647
-0.181421
-0.172431
-0.178225
0.0165169
2.92974
0.0840279
-0.129992
-0.0885383
-0.0560896
-0.0352242
-0.026143
-0.0274793
-0.0376059
-0.0556193
-0.0818659
-0.117972
-0.158673
-0.190663
-0.204259
-0.205248
-0.213063
-0.254072
0.474783
2.79361
-0.110482
-0.119013
-0.0872217
-0.06189
-0.0450589
-0.0373182
-0.0381097
-0.0468373
-0.0637867
-0.0917627
-0.135094
-0.184549
-0.220577
-0.234276
-0.239737
-0.258798
-0.332835
0.994386
2.64677
-0.240219
-0.108081
-0.0833091
-0.0632624
-0.049538
-0.0428411
-0.0430594
-0.0505643
-0.0669775
-0.0986217
-0.1519
-0.210009
-0.246653
-0.256135
-0.254245
-0.276133
-0.312429
0.879046
0.402189
-0.279899
-0.0977504
-0.0781675
-0.062026
-0.050555
-0.0444336
-0.0436794
-0.0494177
-0.0625362
-0.0979072
-0.157751
-0.217787
-0.248924
-0.247047
-0.228639
-0.183058
-0.195199
-0.254151
-0.398923
-0.235214
-0.0879851
-0.0723738
-0.0592508
-0.0495188
-0.0436888
-0.0416731
-0.0448519
-0.0389664
-0.075847
-0.141843
-0.193882
-0.216427
-0.204908
-0.137667
-0.0782658
-0.137742
-0.21709
-0.206916
-0.109037
-0.0788796
-0.0664248
-0.0557699
-0.0475433
-0.0420243
-0.0389443
-0.0393082
-0.0250577
-0.0453268
-0.105935
-0.143944
-0.157739
-0.141305
-0.0930101
-0.0713238
-0.0748754
-0.0838439
-0.0766639
-0.0226396
-0.0704158
-0.0605311
-0.0519759
-0.0451735
-0.0402293
-0.0367941
-0.0351399
-0.0157108
-0.0249245
-0.0639003
-0.088257
-0.101627
-0.101216
-0.091472
-0.0746673
-0.0374276
-0.015887
-0.0229323
0.0120443
-0.0624832
-0.0547021
-0.0479353
-0.0424759
-0.0383616
-0.0353176
-0.0333249
-0.0208096
-0.0147214
-0.0251468
-0.0532575
-0.0739741
-0.0890544
-0.089761
-0.0444139
-0.00123107
0.0052907
-0.0104464
0.0214647
-0.0549098
-0.0488242
-0.043538
-0.0392661
-0.0360494
-0.033751
-0.0323555
-0.0320553
-0.0141983
-0.0174817
-0.0313522
-0.0622616
-0.0812285
-0.0789386
-0.0116832
0.0113209
0.00467636
-0.000557077
0.0231236
-0.0475514
-0.0427974
-0.0386925
-0.0354048
-0.0329782
-0.0313688
-0.030617
-0.0309691
-0.032083
-0.0182405
-0.0235682
-0.035142
-0.064251
-0.0476202
0.00857722
0.0281321
0.003551
0.00649097
0.0223673
-0.0403788
-0.0366594
-0.0334872
-0.0309966
-0.029205
-0.0280894
-0.0276342
-0.027968
-0.0293216
-0.0324429
-0.020537
-0.028497
-0.0464043
-0.0319606
0.0280623
0.0391341
0.00278233
0.0107428
0.0199643
-0.0334955
-0.0306048
-0.0281992
-0.026373
-0.025106
-0.0243662
-0.0240275
-0.0240609
-0.0246794
-0.0266643
-0.0296361
-0.0325046
-0.0330631
-0.0264704
0.0421495
0.00740043
0.00498721
0.0116058
0.015907
-0.0270844
-0.0248989
-0.0231718
-0.021938
-0.0211495
-0.0207747
-0.0206288
-0.0204994
-0.0207226
-0.0223939
-0.0243082
-0.0255138
-0.0254888
-0.0135957
0.0293349
0.00767625
0.00557338
0.00877679
0.0101162
-0.021306
-0.019747
-0.0186362
-0.0179559
-0.0176261
-0.0176436
-0.0178628
-0.0178555
-0.018134
-0.0200308
-0.0212201
-0.0222052
-0.0198907
0.0102002
-0.00149192
-0.000915954
0.00134073
0.00251862
0.0025422
-0.0162181
-0.0152196
-0.0146555
-0.014494
-0.014605
-0.0150081
-0.0156606
-0.0159744
-0.0167666
-0.0192033
-0.0201713
-0.0223722
-0.00126963
0.00983615
-0.00448107
-0.00687485
-0.00628924
-0.0061798
-0.0065318
-0.0117787
-0.0112771
-0.0111991
-0.0115212
-0.0120866
-0.0129051
-0.0140324
-0.0148697
-0.0164331
-0.019405
-0.0206534
-0.0231724
0.00224125
0.0015054
-0.0155987
-0.0152132
-0.0154074
-0.0160101
-0.016475
-0.00790009
-0.00782859
-0.0081994
-0.00897648
-0.0100414
-0.0114065
-0.0131272
-0.0147533
-0.0170925
-0.0203148
-0.0221003
-0.0233751
0.00163279
-0.0244669
-0.0235156
-0.0238564
-0.0249699
-0.0263005
-0.0269921
-0.00445187
-0.00475916
-0.00556577
-0.00682378
-0.00847805
-0.0105427
-0.0129982
-0.0155807
-0.0187807
-0.0222154
-0.0247319
-0.0279225
-0.00429801
-0.0280169
-0.0304363
-0.0328206
-0.0353311
-0.0375891
-0.0386819
-0.00141113
-0.00205223
-0.00332896
-0.00513353
-0.00749737
-0.0103279
-0.0136118
-0.0171525
-0.0215129
-0.0253976
-0.0289549
-0.0324719
-0.0299346
-0.0338616
-0.0380956
-0.0430755
-0.0475725
-0.0512021
-0.0526942
)
;

boundaryField
{
    leftWall
    {
        type            fixedFluxPressure;
        gradient        uniform 0;
        value           nonuniform List<scalar> 
50
(
796.51
795.915
790.783
781.666
769.794
756.166
741.64
727.44
662.577
372.257
56.7808
19.8223
7.51636
2.12665
0.42418
-0.156792
-0.443708
-0.441685
-0.305985
-0.21708
-0.249553
-0.331326
-0.334524
-0.22177
-0.0614103
0.0330433
0.0586258
0.0563994
0.0449734
0.031567
0.0188865
0.00786523
-0.00132067
-0.00869901
-0.0143805
-0.0185319
-0.0213374
-0.0229794
-0.0236285
-0.0234456
-0.022583
-0.0211785
-0.0193498
-0.017199
-0.0148161
-0.0122788
-0.00963684
-0.00695248
-0.0041434
-0.00175007
)
;
    }
    rightWall
    {
        type            fixedFluxPressure;
        gradient        uniform 0;
        value           nonuniform List<scalar> 
50
(
979.949
980.399
986.801
1018.27
1013.94
950.448
977.355
1180.69
1104.49
954.439
836.824
848.259
310.167
33.8018
49.4992
91.9761
97.5786
106.502
114.891
126.577
135.414
144.066
152.28
159.972
165.757
90.57
-0.619733
-0.353111
-0.175499
0.106194
0.0840279
-0.110482
-0.240219
-0.279899
-0.235214
-0.109037
-0.0226396
0.0120443
0.0214647
0.0231236
0.0223673
0.0199643
0.015907
0.0101162
0.0025422
-0.0065318
-0.016475
-0.0269921
-0.0386819
-0.0526942
)
;
    }
    lowerWall
    {
        type            fixedFluxPressure;
        gradient        uniform 0;
        value           nonuniform List<scalar> 
62
(
796.51
796.055
796.166
797.955
805.466
821.057
842.034
863.876
883.81
899.868
909.941
912.908
909.134
900.448
889.252
875.886
862.205
852.538
847.08
850.984
864.991
880.643
886.392
886.392
884.388
882.393
880.902
879.927
879.238
878.974
880.999
850.193
852.261
863.349
877.246
952.575
957.254
941.456
912.464
883.938
872.721
880.628
894.01
952.575
864.679
803.391
816.203
851.108
783.1
678.388
642.66
612.199
580.354
534.307
511.198
514.114
551.574
612.207
702.309
805.857
892.388
979.949
)
;
    }
    atmosphere
    {
        type            totalPressure;
        rho             rho;
        psi             none;
        gamma           1;
        p0              uniform 0;
        value           nonuniform List<scalar> 
46
(
0
0
0
0
0
0
0
0
0
0
0
0
0
0
0
0
0
0
0
0
0
0
0
0
0
0
0
-0.000130424
-0.000926771
-0.00253669
-0.00458908
-0.00735957
-0.0105197
-0.0142555
-0.0181938
-0.023589
-0.0275864
-0.0319751
-0.0357148
-0.0298955
-0.0360865
-0.0425398
-0.0493288
-0.055223
-0.0599969
-0.0614407
)
;
    }
    defaultFaces
    {
        type            empty;
    }
}


// ************************************************************************* //
