/*--------------------------------*- C++ -*----------------------------------*\
| =========                 |                                                 |
| \\      /  F ield         | OpenFOAM: The Open Source CFD Toolbox           |
|  \\    /   O peration     | Version:  2206                                  |
|   \\  /    A nd           | Website:  www.openfoam.com                      |
|    \\/     M anipulation  |                                                 |
\*---------------------------------------------------------------------------*/
FoamFile
{
    version     2.0;
    format      ascii;
    arch        "LSB;label=32;scalar=64";
    class       volScalarField;
    location    "0.2";
    object      alpha.water;
}
// * * * * * * * * * * * * * * * * * * * * * * * * * * * * * * * * * * * * * //

dimensions      [0 0 0 0 0 0 0];

internalField   nonuniform List<scalar> 
2268
(
0.999999
1
1
1
1
1
1
1
1
1
0.999999
1
1
1
1
1
1
1
1
1
0.999948
0.864521
0.739229
0.999999
1
1
1
1
1
1
1
0.999999
0.999999
0.999999
1
1
1
1
1
1
1
1
1
1
0.99552
0.838122
1
1
1
1
1
1
1
1
1
1
1
1
1
1
1
1
1
1
1
1
1
0.999997
0.878503
1
1
1
1
1
1
1
1
1
1
1
1
1
1
1
1
1
1
1
1
1
1
0.912645
1
1
1
1
1
1
1
1
1
1
1
1
1
1
1
1
1
1
1
1
1
1
0.95376
1
1
1
1
1
1
1
1
1
1
1
1
1
1
1
1
1
1
1
1
1
1
0.979845
1
1
1
1
1
1
1
1
1
1
1
1
1
1
1
1
1
1
1
0.999999
1
1
0.968395
1
1
1
1
1
1
1
1
1
1
1
1
1
1
1
1
1
1
1
0.999997
0.999998
0.999999
0.969127
3.26178e-20
6.019e-21
9.60169e-22
4.79869e-23
8.01337e-25
1.12271e-26
3.81413e-28
2.31539e-29
1.23311e-30
5.3253e-32
1.94174e-33
6.05074e-35
1.58623e-36
3.41459e-38
5.85148e-40
7.5804e-42
6.70284e-44
3.20382e-46
1.58581e-46
5.3092e-19
5.68424e-19
1.43385e-19
9.22014e-21
1.51898e-22
1.93965e-24
5.08632e-26
2.64733e-27
1.3049e-28
5.36265e-30
1.86823e-31
5.52492e-33
1.36639e-34
2.74482e-36
4.28628e-38
4.82404e-40
3.51254e-42
1.09411e-44
1.73606e-46
2.27237e-17
4.29543e-17
1.20332e-17
7.40982e-19
1.22068e-20
1.75374e-22
4.07443e-24
1.4997e-25
5.95261e-27
2.16816e-28
6.94858e-30
1.90804e-31
4.36555e-33
7.99116e-35
1.13441e-36
1.13799e-38
7.96319e-41
2.97892e-43
7.37859e-45
1.36996e-15
3.88939e-15
8.87216e-16
4.1974e-17
6.81745e-19
1.23067e-20
2.87041e-22
7.57525e-24
2.22051e-25
6.58541e-27
1.82901e-28
4.50412e-30
9.41787e-32
1.61538e-33
2.27784e-35
2.5324e-37
1.89629e-39
5.79983e-42
2.74519e-43
5.81399e-14
1.80785e-13
4.05709e-14
1.81745e-15
3.00481e-17
6.58284e-19
1.51342e-20
3.18882e-22
7.00349e-24
1.60957e-25
3.68204e-27
7.96546e-29
1.56438e-30
2.76745e-32
4.11889e-34
4.64754e-36
3.45125e-38
8.30003e-41
7.33788e-42
9.11274e-13
3.30067e-12
4.80623e-13
3.39787e-14
7.23495e-16
1.55211e-17
3.812e-19
8.88873e-21
1.91625e-22
4.04722e-24
8.21762e-26
1.59641e-27
2.91079e-29
4.75732e-31
6.53011e-33
6.90123e-35
4.86816e-37
1.49702e-39
1.49284e-40
5.9088e-12
1.49777e-11
3.28918e-12
1.89906e-13
5.90576e-15
1.05811e-16
3.05488e-18
1.00395e-19
3.17361e-21
8.71086e-23
2.15056e-24
4.80205e-26
8.96461e-28
1.32542e-29
1.50128e-31
1.22122e-33
6.09133e-36
1.42531e-38
2.05554e-39
7.10894e-12
1.2207e-11
5.76712e-12
3.26576e-13
1.38175e-14
2.67279e-16
9.51128e-18
4.33224e-19
2.25963e-20
7.58022e-22
2.15817e-23
5.67297e-25
1.23367e-26
2.08471e-28
2.59239e-30
2.1191e-32
8.08249e-35
5.25358e-38
2.13832e-38
1
1
1
1
1
1
1
1
1
1
1
1
1
1
1
1
1
0.999999
1
0.999999
0.999999
0.999999
0.999999
1
1
1
1
1
1
1
1
1
1
1
1
1
0.999999
0.999998
1
1
0.999999
1
0.999999
0.999999
0.999999
0.999998
1
1
1
1
1
1
1
1
1
1
1
0.999999
0.999998
0.999989
0.999967
0.999917
0.999878
0.999897
0.996101
0.999988
0.999996
0.999998
0.999814
1
1
1
1
1
1
1
1
1
0.999999
0.999997
0.99999
0.999963
0.99988
0.999556
0.998733
0.991068
0.915744
0.783795
0.559406
0.44403
0.532538
0.88623
1
1
1
1
1
0.999999
0.999999
0.999998
0.999995
0.999988
0.999968
0.999904
0.999643
0.998712
0.995604
0.858345
0.581497
0.105405
0.000935873
0.00368623
0.00328154
0.0118468
0.0847282
0.999999
0.999997
0.999997
0.999997
0.999996
0.999994
0.999989
0.99998
0.999955
0.999894
0.999726
0.999164
0.997188
0.968764
0.64698
0.0851837
0.00110545
0.000169214
2.85894e-05
7.5407e-06
0.000129239
0.000877252
0.00278443
0.999995
0.999974
0.999977
0.999975
0.999965
0.999945
0.999909
0.999833
0.999642
0.999173
0.997955
0.994043
0.880265
0.386938
0.00289267
0.000629588
0.000148376
2.62803e-05
2.5633e-06
1.11995e-06
3.26955e-06
9.03598e-05
0.000315116
0.999949
0.999798
0.999816
0.999791
0.999709
0.999555
0.999287
0.998737
0.997353
0.991668
0.914873
0.634863
0.165367
0.000630363
0.000626127
0.000151171
2.94571e-05
5.08463e-06
9.83869e-07
4.26057e-07
1.09283e-07
3.76647e-06
3.42389e-05
0.999493
0.998527
0.998625
0.998383
0.997765
0.996661
0.991787
0.954669
0.837293
0.587679
0.254367
0.0018609
8.3584e-05
4.94929e-05
0.000556591
0.000560697
0.000103476
7.88259e-06
4.25902e-07
1.38778e-07
1.20074e-07
1.39484e-07
3.66667e-06
0.984426
0.927302
0.925648
0.894433
0.831543
0.728279
0.569601
0.345904
0.145411
2.41236e-05
5.26669e-06
1.58484e-05
2.20357e-05
2.41939e-05
0.0024547
0.00489821
0.00115435
7.48206e-06
6.67474e-07
1.23666e-07
9.56124e-08
1.32578e-07
4.89222e-07
0.461266
0.27671
0.267526
0.212534
0.139198
0.0663705
0.00332005
-3.30274e-09
-2.19115e-08
-2.27539e-08
4.25137e-06
1.00628e-05
1.58498e-05
2.22443e-05
0.00449145
0.00491559
0.00213064
7.42286e-06
4.80672e-07
8.43765e-08
8.914e-08
4.62006e-06
3.9988e-06
-3.41904e-28
2.20282e-20
2.65542e-18
2.6211e-16
1.84002e-14
5.58954e-13
1.07388e-11
2.68941e-11
2.70385e-10
4.21598e-09
7.9299e-08
4.24296e-06
1.64649e-05
2.40083e-05
0.00331523
0.00492033
0.00222476
3.15311e-06
1.36526e-07
6.92324e-08
6.92359e-08
9.06203e-07
7.45833e-05
-3.39931e-20
-2.27661e-26
1.21991e-20
2.65019e-18
2.38315e-16
7.65173e-15
3.80492e-13
-1.31029e-11
-1.4361e-11
1.581e-08
4.42836e-07
0.000137438
5.19069e-05
2.81747e-05
0.0016182
0.00487855
0.001564
1.52519e-07
5.50313e-08
6.61251e-08
6.92359e-08
1.28784e-07
7.0436e-05
-8.37704e-20
1.38929e-20
1.00272e-17
1.1807e-15
1.02191e-13
2.18885e-12
-3.9304e-12
1.07855e-12
1.31023e-10
5.49702e-08
5.00882e-05
0.000765174
0.000656911
4.587e-05
0.000820182
0.00469481
0.00055787
5.51841e-08
4.94877e-08
5.51755e-08
9.9153e-08
4.85512e-07
3.3643e-05
-1.78923e-19
4.6231e-19
1.23497e-16
1.28003e-14
8.80133e-13
2.41096e-11
2.86565e-10
1.12226e-08
7.59661e-09
2.44966e-07
0.000634345
0.000783915
0.000783393
0.000106115
0.000678478
0.0018915
2.46724e-07
2.96301e-08
4.17083e-08
4.94877e-08
1.26583e-07
9.82093e-07
4.57477e-06
-3.44916e-19
3.21477e-18
4.23742e-16
3.12087e-14
1.49441e-12
2.78006e-11
6.10641e-10
2.94576e-08
4.18198e-07
2.93506e-05
0.000760515
0.000778718
0.000783393
0.000288365
0.00118588
0.0012064
2.466e-08
6.26164e-09
2.28639e-08
4.22625e-08
1.65821e-07
1.18385e-06
6.68419e-06
-6.02273e-19
8.91244e-18
9.02541e-16
4.98484e-14
1.45271e-12
7.52595e-12
3.28436e-11
1.49617e-09
4.128e-08
3.78511e-07
0.000151844
0.000647825
0.000665909
0.000425914
6.1292e-05
1.05116e-05
5.73993e-09
1.55667e-09
8.11344e-09
2.33391e-08
1.15876e-07
7.01963e-07
3.72933e-06
-9.57402e-19
8.934e-18
1.06778e-15
6.95466e-14
1.76395e-12
8.93284e-12
1.8338e-11
8.44765e-11
6.54995e-10
4.21332e-09
2.01746e-08
7.06974e-08
1.6108e-07
2.62234e-07
2.03259e-07
1.92038e-08
8.26772e-10
4.00947e-10
1.58005e-09
9.28436e-09
4.63436e-08
2.56257e-07
1.21756e-06
-1.70854e-18
4.54805e-19
3.56699e-16
9.695e-14
4.31498e-12
1.82448e-11
1.98274e-11
2.43281e-11
8.87158e-11
6.54968e-10
3.8577e-09
2.01658e-08
1.49735e-07
3.41544e-07
3.9043e-08
5.70343e-09
2.64856e-11
8.81896e-11
6.1554e-10
2.5422e-09
1.17291e-08
6.26294e-08
2.84848e-07
-3.62295e-18
-2.48455e-33
1.90882e-17
4.6396e-14
3.31318e-12
1.57347e-11
1.95819e-11
2.88397e-11
8.1155e-11
2.25247e-10
3.6883e-10
4.15064e-07
6.4005e-07
5.14311e-07
2.04417e-13
5.72931e-13
3.35979e-12
3.85361e-11
2.18963e-10
4.8546e-10
1.99457e-09
1.02739e-08
4.52535e-08
-6.68109e-18
-5.8743e-17
0
7.46943e-16
3.26273e-13
3.40475e-12
8.9758e-12
2.91813e-11
1.20473e-10
2.44347e-10
4.14799e-10
3.74588e-10
4.76834e-10
1.64571e-13
1.3834e-13
8.29774e-14
1.20197e-12
1.8169e-11
7.37136e-11
1.5911e-10
3.19037e-10
1.46169e-09
6.19342e-09
-7.21137e-18
-1.16105e-16
-6.2924e-16
-2.24914e-16
-1.80285e-24
3.9506e-14
1.54054e-12
1.86436e-11
1.78733e-10
6.34584e-10
7.63513e-10
6.45375e-10
1.46726e-10
1.39966e-13
1.2775e-13
2.48831e-14
3.41609e-13
2.22181e-12
1.09044e-11
4.06969e-11
1.03189e-10
2.13165e-10
7.8351e-10
-3.09474e-18
-4.83557e-17
-2.44578e-16
1.00173e-32
6.44615e-17
3.14942e-14
1.8347e-12
1.21974e-11
2.3145e-11
2.24875e-11
1.15009e-11
3.80296e-12
1.27816e-12
1.13259e-12
6.72069e-13
1.25158e-14
2.74457e-14
1.78671e-13
9.51622e-13
4.92901e-12
2.4091e-11
6.23159e-11
9.33887e-11
-6.58e-19
-1.02621e-17
-5.30306e-17
-3.45609e-18
-4.89465e-26
7.38375e-16
1.25532e-13
4.24692e-12
2.0229e-11
2.96161e-11
2.96381e-11
2.24579e-11
5.35961e-12
6.45062e-13
3.29357e-14
0
0
9.26461e-15
6.18089e-14
3.64534e-13
2.22671e-12
9.66355e-12
2.05435e-11
5.97076e-40
-6.87236e-37
-1.9565e-34
-7.62253e-31
4.15767e-20
3.4897e-19
5.72379e-16
1.84531e-13
3.45302e-12
1.39902e-11
1.90262e-11
1.77748e-11
8.47279e-12
1.31011e-12
7.29972e-14
-7.62851e-15
-8.92342e-15
-3.22871e-15
7.32959e-16
2.09997e-14
1.42688e-13
7.88193e-13
3.46434e-12
1.33207e-29
1.81833e-27
1.23967e-25
5.62225e-24
-8.67244e-22
4.14306e-21
1.87342e-19
5.97691e-17
7.91372e-15
6.66966e-14
1.54237e-13
1.78978e-13
7.07158e-14
1.29204e-14
-2.87898e-15
-8.03704e-15
-8.56745e-15
-5.68211e-15
-8.84266e-16
3.01344e-16
7.98049e-15
4.8865e-14
2.02467e-13
2.05578e-32
2.98828e-30
1.96414e-28
7.68462e-27
-1.89312e-24
-1.20358e-23
4.14648e-22
2.83359e-19
4.47039e-17
4.49146e-16
1.47379e-15
2.48413e-15
2.83141e-15
1.157e-15
-7.65643e-16
-2.12416e-15
-2.99297e-15
-2.50431e-15
-9.21453e-16
1.37051e-17
3.76553e-16
2.55766e-15
1.0507e-14
0
-2.08634e-32
-2.89372e-30
-1.90136e-28
-1.60737e-26
4.9315e-26
2.0897e-24
5.07741e-23
1.7959e-20
2.1217e-18
2.11742e-17
6.16057e-17
8.39316e-17
2.50193e-17
-1.34229e-16
-3.71678e-16
-5.88086e-16
-5.94585e-16
-2.73594e-16
5.40302e-19
1.49747e-17
1.11792e-16
4.66898e-16
-2.50027e-34
-1.02213e-32
-4.67335e-32
-5.84995e-30
-4.08494e-36
-1.26123e-34
-4.34979e-29
-5.88362e-29
4.04322e-22
1.84952e-20
6.88026e-20
-3.47276e-20
-1.12056e-18
-5.20519e-18
-1.56363e-17
-3.60549e-17
-6.47398e-17
-8.13132e-17
-4.77073e-17
1.81414e-20
5.05723e-19
4.04713e-18
1.62241e-17
-1.2871e-33
-1.22587e-31
-5.66759e-30
-1.68667e-28
-3.61521e-27
-5.9142e-26
-7.63662e-25
-7.94353e-24
-6.74217e-23
-4.7123e-22
-2.73738e-21
-1.33847e-20
-5.6007e-20
-2.03805e-19
-6.48971e-19
-1.78081e-18
-3.99253e-18
-6.42046e-18
-5.15278e-18
4.96465e-22
1.46387e-20
1.19934e-19
4.68951e-19
-2.78766e-35
-2.29569e-33
-9.19237e-32
-2.3808e-30
-4.48296e-29
-6.54098e-28
-7.70165e-27
-7.53144e-26
-6.25362e-25
-4.48963e-24
-2.82971e-23
-1.58518e-22
-7.95615e-22
-3.58176e-21
-1.43229e-20
-4.95518e-20
-1.40539e-19
-2.92728e-19
-3.38625e-19
1.17065e-23
3.86379e-22
3.3911e-21
1.09107e-20
-3.92359e-38
-3.57947e-36
-1.5935e-34
-4.6141e-33
-9.7812e-32
-1.62047e-30
-2.18835e-29
-2.48261e-28
-2.42147e-27
-2.06866e-26
-1.57096e-25
-1.07202e-24
-6.61191e-24
-3.68266e-23
-1.83412e-22
-7.98435e-22
-2.90594e-21
-8.06461e-21
-1.32745e-20
2.36733e-25
8.79869e-24
8.6362e-23
2.64368e-22
-6.81419e-41
-6.47103e-39
-3.01992e-37
-9.25066e-36
-2.09708e-34
-3.7621e-33
-5.57899e-32
-7.05674e-31
-7.79751e-30
-7.66847e-29
-6.80777e-28
-5.50767e-27
-4.07736e-26
-2.75508e-25
-1.68008e-24
-9.02536e-24
-4.07568e-23
-1.4035e-22
-2.83349e-22
3.98356e-27
1.7033e-25
1.88699e-24
7.3656e-24
-1.39886e-44
-1.56123e-42
-8.62753e-41
-3.16464e-39
-8.71553e-38
-1.93239e-36
-3.60862e-35
-5.85388e-34
-8.42354e-33
-1.08954e-31
-1.27575e-30
-1.35494e-29
-1.30189e-28
-1.12307e-27
-8.57208e-27
-5.64019e-26
-3.04901e-25
-1.22662e-24
-2.81569e-24
5.73158e-29
3.06815e-27
3.53587e-26
1.84575e-25
-2.1199e-49
-3.77179e-47
-3.30025e-45
-1.89796e-43
-8.0755e-42
-2.71164e-40
-7.48211e-39
-1.74341e-37
-3.49683e-36
-6.11922e-35
-9.42638e-34
-1.28439e-32
-1.54847e-31
-1.64325e-30
-1.51518e-29
-1.18329e-28
-7.45425e-28
-3.42404e-27
-8.75966e-27
6.85807e-31
5.2427e-29
5.57822e-28
4.17525e-27
-6.16187e-55
-1.33484e-52
-1.41924e-50
-9.90152e-49
-5.10203e-47
-2.07068e-45
-6.89018e-44
-1.93091e-42
-4.64284e-41
-9.70149e-40
-1.77599e-38
-2.85909e-37
-4.04404e-36
-4.99255e-35
-5.30054e-34
-4.70633e-33
-3.31635e-32
-1.66289e-31
-4.31997e-31
7.08432e-33
7.27298e-31
7.07695e-30
8.55142e-29
0
0
-1.40372e-77
0
-6.40964e-68
-2.65795e-65
-5.31239e-63
-7.05719e-61
-7.02567e-59
-5.60257e-57
-3.73531e-55
1.83473e-49
5.44668e-46
3.9691e-44
2.24371e-42
1.27446e-40
4.29009e-39
1.48609e-37
6.57068e-36
2.67417e-34
8.55049e-33
6.75841e-32
1.58682e-30
9.12908e-75
6.24297e-72
2.0374e-69
4.39006e-67
7.10073e-65
9.24122e-63
1.01156e-60
9.60816e-59
8.1081e-57
6.19388e-55
4.35011e-53
2.84734e-51
1.75621e-49
1.03142e-47
5.82055e-46
3.18215e-44
1.69777e-42
3.84421e-40
3.36015e-38
2.16696e-36
9.00119e-35
6.21045e-34
2.65681e-32
7.26595e-80
7.68107e-77
2.19869e-74
1.62538e-72
-4.63551e-70
-1.6259e-67
-2.64751e-65
-2.68646e-63
-1.41987e-61
7.45595e-60
3.01539e-57
4.68459e-55
5.62144e-53
5.7955e-51
5.34192e-49
4.44494e-47
3.48199e-45
4.41847e-43
1.12364e-40
1.14333e-38
7.05781e-37
6.87105e-36
3.96113e-34
8.89038e-87
-7.63113e-80
-7.54911e-77
-3.45447e-74
-1.03483e-71
-2.30844e-69
-4.10966e-67
-6.09966e-65
-7.77926e-63
-8.71762e-61
-8.73224e-59
-7.9567e-57
-6.27488e-55
-3.94544e-53
-2.18881e-51
-8.9466e-50
1.00273e-48
3.95121e-46
1.03659e-43
3.67884e-41
3.96859e-39
5.95995e-38
5.10549e-36
-1.27235e-87
-2.72192e-84
-2.27232e-81
-1.1947e-78
-4.62097e-76
-1.41992e-73
-3.6289e-71
-7.95557e-69
-1.52998e-66
-2.62567e-64
-4.0758e-62
-5.77228e-60
-6.27599e-58
-6.13415e-56
-4.87443e-54
-1.19444e-52
-6.07777e-51
2.94641e-50
1.25677e-47
3.50474e-44
1.28839e-41
2.9115e-40
4.90628e-38
0
-5.36424e-111
2.19719e-107
4.49985e-104
-1.89568e-95
-1.02525e-91
-2.36596e-88
-3.50151e-85
-3.78594e-82
-3.18028e-79
-2.13e-76
-8.68047e-74
-2.32704e-71
-6.59959e-69
-3.12661e-66
-7.6198e-64
-3.89286e-62
-1.36481e-60
6.76091e-55
1.84436e-49
6.37098e-45
9.27415e-43
2.9115e-40
0.472969
6.06671e-10
1.48252e-11
1.25405e-11
0.889777
0.102511
6.06671e-10
2.90111e-08
0.999373
0.361238
0.00113658
2.28486e-07
0.979137
0.898348
0.155892
3.4397e-06
0.76393
0.85176
0.283502
0.00601158
0.473535
0.771526
0.56547
0.0492858
0.112654
0.696402
0.621343
0.0877827
0.00783964
0.595618
0.520683
0.0722599
3.4239e-05
0.524779
0.353699
0.0209689
4.01196e-06
0.431411
0.416787
0.0245441
4.26004e-06
0.281901
0.406171
0.118783
3.94562e-05
0.0159432
0.395496
0.362251
0.000465234
0.000579895
0.294641
0.315463
0.00064762
0.000651704
0.0578606
0.193399
0.000131505
0.00208716
0.00264824
0.0491972
0.000121492
0.00150425
0.00189479
0.00593101
3.9612e-05
0.000382639
0.00111432
0.00187588
7.67838e-06
4.69746e-05
0.000314856
0.000461389
1.34554e-06
9.66498e-06
5.65395e-05
9.3346e-05
2.28145e-07
1.56228e-06
6.24626e-06
1.57486e-05
3.30314e-08
1.94796e-07
7.5428e-07
2.25907e-06
4.03006e-09
2.23085e-08
9.66475e-08
2.8008e-07
4.9019e-10
2.42195e-09
1.03702e-08
3.04027e-08
6.56857e-11
2.78227e-10
1.02067e-09
2.92112e-09
1.64688e-11
3.3519e-11
1.13213e-10
2.51091e-10
1.89875e-12
7.88785e-12
1.78091e-11
2.34636e-11
1.18564e-13
7.99919e-13
2.54359e-12
2.38573e-12
6.72048e-15
4.40811e-14
1.89274e-13
2.54134e-13
3.36701e-16
2.3578e-15
1.03433e-14
1.59928e-14
1.47775e-17
1.13658e-16
5.28459e-16
8.25926e-16
5.70584e-19
4.91498e-18
2.45768e-17
4.0975e-17
1.94443e-20
1.91938e-19
1.04773e-18
1.89371e-18
5.87342e-22
6.80279e-21
4.11641e-20
8.16974e-20
1.57868e-23
2.19873e-22
1.49515e-21
3.3097e-21
3.77767e-25
6.51284e-24
5.04467e-23
1.265e-22
8.03173e-27
1.7771e-25
1.59177e-24
4.57765e-24
1.50518e-28
4.48371e-27
4.70094e-26
1.57962e-25
2.5872e-30
1.0501e-28
1.30261e-27
5.22839e-27
4.14306e-32
2.29775e-30
3.42368e-29
1.66283e-28
5.73516e-34
4.717e-32
8.57548e-31
5.10371e-30
6.52506e-36
9.14557e-34
2.0607e-32
1.47594e-31
4.90628e-38
8.67177e-36
2.91115e-34
6.39689e-33
8.11998e-12
4.97861e-12
5.0686e-13
6.02204e-14
1.57505e-14
8.13494e-16
4.31742e-17
1.97948e-18
9.06922e-20
3.5106e-21
1.11672e-22
3.00254e-24
6.80698e-26
1.26385e-27
1.83584e-29
1.91355e-31
1.19138e-33
3.42238e-36
5.26032e-37
4.78797e-11
3.72516e-10
-6.66011e-13
7.57544e-15
1.82221e-14
1.56196e-15
1.14596e-16
3.74714e-18
7.99585e-20
4.87862e-21
2.07297e-22
5.86402e-24
1.34813e-25
2.5794e-27
3.98616e-29
4.66314e-31
3.71967e-33
1.70488e-35
1.77769e-36
8.26762e-07
1.18851e-08
-1.69724e-10
5.92815e-14
1.27312e-13
2.78167e-14
3.61883e-15
5.23426e-16
7.64129e-18
1.80684e-19
3.33976e-21
5.11393e-23
6.887e-25
8.38977e-27
9.35434e-29
9.26502e-31
7.48798e-33
4.18454e-35
1.79485e-36
1.31848e-05
2.28109e-06
-4.40753e-11
2.27829e-12
7.13863e-13
4.30481e-13
1.2807e-13
6.18223e-14
8.33227e-16
1.36022e-17
2.10786e-19
2.87235e-21
3.41654e-23
3.51899e-25
3.11635e-27
2.3526e-29
1.46289e-31
6.88206e-34
3.22236e-36
0.000129514
5.00745e-05
7.71578e-10
4.25233e-11
3.58921e-11
6.1295e-12
1.50914e-12
1.46038e-12
3.90022e-14
6.29385e-16
9.66189e-18
1.3658e-19
1.69734e-21
1.82799e-23
1.68489e-25
1.31157e-27
8.29557e-30
3.90847e-32
1.08724e-34
0.00127659
3.70725e-05
-7.72179e-09
7.82497e-10
3.13672e-10
2.81462e-11
7.04908e-12
7.39211e-12
8.86429e-13
2.12114e-14
3.48875e-16
5.51117e-18
7.52823e-20
8.63593e-22
8.21804e-24
6.4361e-26
3.97346e-28
1.75148e-30
4.64941e-33
0.00268699
0.000119527
1.9778e-07
1.32635e-08
1.029e-09
1.55727e-10
1.72975e-11
1.45943e-11
8.61079e-12
4.50641e-13
9.69623e-15
1.73052e-16
2.55217e-18
2.90117e-20
2.43556e-22
1.48124e-24
6.40482e-27
1.80791e-29
4.3704e-32
0.00220665
5.81609e-05
7.75535e-06
6.07723e-06
1.78603e-08
4.01661e-09
3.87019e-10
5.94727e-11
2.8915e-11
4.112e-12
1.77052e-13
3.83051e-15
6.70806e-17
9.59025e-19
1.05371e-20
8.58385e-23
4.76888e-25
1.58387e-27
2.77568e-30
0.00134826
0.000166146
0.000204761
5.59453e-05
2.32485e-06
9.65624e-08
6.02637e-09
3.03886e-10
3.66273e-11
1.20524e-11
1.60123e-12
5.65423e-14
1.14101e-15
1.97787e-17
2.73499e-19
2.88182e-21
2.19631e-23
1.09649e-25
2.68917e-28
0.000765014
0.000266331
0.000264404
0.000176147
3.06297e-05
1.50709e-06
2.52537e-08
1.94746e-09
1.3085e-10
1.36335e-11
4.60133e-12
4.20451e-13
1.08397e-14
2.02755e-16
3.17913e-18
3.79464e-20
3.20915e-22
1.73055e-24
4.62595e-27
0.00155689
0.000393352
0.000267454
0.000276035
7.73475e-05
5.34879e-06
1.23027e-07
1.36277e-08
8.92734e-10
5.81962e-11
3.89707e-12
1.09095e-12
6.27354e-14
1.18735e-15
1.96269e-17
2.54833e-19
2.27249e-21
1.20311e-23
7.00125e-26
0.0449483
0.00155499
0.000393607
0.000342066
0.000130059
1.67594e-05
6.86659e-07
7.02173e-08
4.76426e-09
2.89322e-10
1.93628e-11
9.29663e-13
1.43736e-13
5.05642e-15
7.903e-17
1.02577e-18
8.76638e-21
3.37698e-23
9.17775e-25
0.23137
0.0487169
0.00215794
0.000649891
0.000165577
2.37032e-05
2.64943e-06
2.52128e-07
1.94558e-08
1.23097e-09
7.41951e-11
4.3892e-12
3.50389e-13
1.50564e-14
3.0237e-16
4.09989e-18
3.39456e-20
1.15575e-22
8.68635e-24
0.228757
0.0812347
0.00457309
0.00103791
0.000218719
3.58193e-05
4.59806e-06
4.70957e-07
3.89374e-08
2.62342e-09
1.44673e-10
8.10863e-12
3.73462e-13
2.51884e-14
6.30596e-16
9.78659e-18
1.0578e-19
5.38852e-22
6.57681e-23
0.0449625
0.0567679
0.0115044
0.000627793
0.000121901
1.90598e-05
2.41235e-06
2.48802e-07
2.10204e-08
1.46063e-09
8.35848e-11
4.90668e-12
4.76961e-13
2.26468e-14
5.59409e-16
1.04345e-17
1.38833e-19
1.08409e-21
5.74565e-23
0.00603563
0.00451502
0.00372462
0.000450235
4.04605e-05
6.09528e-06
7.57093e-07
7.77173e-08
6.60536e-09
4.65881e-10
3.02662e-11
1.90429e-12
2.4128e-13
9.94833e-15
2.5127e-16
5.22083e-18
7.85339e-20
7.49189e-22
1.41029e-23
0.00179955
0.000804024
0.000252165
7.68047e-05
1.03595e-05
1.4843e-06
1.79409e-07
1.80972e-08
1.52641e-09
1.0809e-10
8.39471e-12
1.15755e-12
6.91037e-14
2.30635e-15
6.39394e-17
1.37854e-18
2.168e-20
2.21153e-22
2.55013e-24
0.000438297
0.000179286
5.03105e-05
1.17699e-05
2.13077e-06
2.94217e-07
3.44255e-08
3.39137e-09
2.8223e-10
2.43277e-11
3.54579e-12
3.03152e-13
1.24564e-14
4.33799e-16
1.22727e-17
2.69454e-19
4.32543e-21
4.51981e-23
3.82521e-25
8.73579e-05
3.40301e-05
8.78577e-06
1.89088e-06
3.49056e-07
4.89823e-08
5.54552e-09
5.32945e-10
5.19591e-11
7.6159e-12
8.17791e-13
4.36573e-14
1.84982e-15
6.56881e-17
1.88093e-18
4.19146e-20
6.85398e-22
7.34035e-24
4.75597e-26
1.45516e-05
5.53293e-06
1.35686e-06
2.70857e-07
4.64913e-08
6.9124e-09
7.68359e-10
8.37573e-11
1.20744e-11
1.58211e-12
1.06017e-13
5.33831e-15
2.30705e-16
8.24059e-18
2.37776e-19
5.35457e-21
8.87588e-23
9.67774e-25
5.08577e-27
2.07094e-06
7.80048e-07
1.8529e-07
3.51066e-08
5.64353e-09
7.8553e-10
1.05654e-10
1.39399e-11
2.25694e-12
1.86779e-13
1.10395e-14
5.69407e-16
2.46677e-17
8.83888e-19
2.56433e-20
5.82077e-22
9.75128e-24
1.0775e-25
5.63313e-28
2.56127e-07
9.64769e-08
2.25181e-08
4.11683e-09
6.31576e-10
8.8953e-11
1.22159e-11
2.42649e-12
2.45366e-13
1.6995e-14
1.03438e-15
5.33942e-17
2.3141e-18
8.31052e-20
2.4214e-21
5.53191e-23
9.34811e-25
1.04427e-26
5.54697e-29
2.78964e-08
1.05796e-08
2.4537e-09
4.39112e-10
6.53091e-11
9.99954e-12
2.00003e-12
2.46199e-13
2.00005e-14
1.4282e-15
8.69156e-17
4.48141e-18
1.94271e-19
6.99046e-21
2.04442e-22
4.69684e-24
7.99624e-26
9.01734e-28
4.79881e-30
2.70371e-09
1.03867e-09
2.41501e-10
4.28864e-11
7.1404e-12
1.42518e-12
1.97271e-13
1.84232e-14
1.52982e-15
1.09223e-16
6.63978e-18
3.42075e-19
1.48383e-20
5.35032e-22
1.57041e-23
3.62649e-25
6.21544e-27
7.06894e-29
3.74198e-31
2.35444e-10
9.20163e-11
2.16188e-11
4.3848e-12
9.06966e-13
1.38893e-13
1.46533e-14
1.36036e-15
1.09482e-16
7.72779e-18
4.66886e-19
2.40595e-20
1.04555e-21
3.77916e-23
1.11333e-24
2.58376e-26
4.4561e-28
5.10958e-30
2.67052e-32
2.06381e-11
8.14711e-12
2.01797e-12
4.72898e-13
8.25875e-14
1.02874e-14
1.0836e-15
9.86358e-17
7.7075e-18
5.24595e-19
3.10151e-20
1.58746e-21
6.87011e-23
2.49112e-24
7.3708e-26
1.71951e-27
2.98347e-29
3.44967e-31
1.76867e-33
1.60081e-12
6.41611e-13
1.89783e-13
3.89842e-14
5.87636e-15
7.28718e-16
7.65451e-17
6.89754e-18
5.30937e-19
3.54391e-20
2.04481e-21
1.01965e-22
4.32644e-24
1.56526e-25
4.62624e-27
1.07969e-28
1.88323e-30
2.19653e-32
1.097e-34
1.77025e-13
5.52405e-14
1.38976e-14
2.60878e-15
3.9478e-16
4.9328e-17
5.17263e-18
4.63404e-19
3.5393e-20
2.34087e-21
1.33462e-22
6.56486e-24
2.7463e-25
9.77019e-27
2.84901e-28
6.57919e-30
1.14849e-31
1.34868e-33
6.54982e-36
1.21161e-14
3.60594e-15
8.60993e-16
1.64649e-16
2.53069e-17
3.18575e-18
3.35019e-19
3.00002e-20
2.28397e-21
1.50299e-22
8.52166e-24
4.16655e-25
1.73199e-26
6.11518e-28
1.77217e-29
4.07506e-31
7.08031e-33
8.3287e-35
3.94934e-37
6.52148e-16
2.04544e-16
5.06674e-17
9.90457e-18
1.54647e-18
1.9687e-19
2.08561e-20
1.87482e-21
1.42913e-22
9.39693e-24
5.31637e-25
2.59169e-26
1.0742e-27
3.78272e-29
1.09408e-30
2.5132e-32
4.36439e-34
5.15776e-36
2.3828e-38
3.37482e-17
1.11228e-17
2.83746e-18
5.68033e-19
9.04072e-20
1.16818e-20
1.25134e-21
1.13359e-22
8.68414e-24
5.7262e-25
3.24337e-26
1.58121e-27
6.55019e-29
2.30522e-30
6.66407e-32
1.53075e-33
2.66151e-35
3.16438e-37
1.4212e-39
1.64131e-18
5.73739e-19
1.51471e-19
3.1173e-20
5.07496e-21
6.67805e-22
7.25671e-23
6.64629e-24
5.13299e-25
3.40438e-26
1.93591e-27
9.46344e-29
3.92718e-30
1.38385e-31
4.0046e-33
9.20879e-35
1.6037e-36
1.91893e-38
8.36728e-41
7.52555e-20
2.81548e-20
7.73568e-21
1.64307e-21
2.74504e-22
3.68953e-23
4.07873e-24
3.78729e-25
2.95668e-26
1.97742e-27
1.1317e-28
5.55913e-30
2.3155e-31
8.18321e-33
2.37363e-34
5.46864e-36
9.54434e-38
1.14962e-39
4.86133e-42
3.26518e-21
1.31916e-21
3.79291e-22
8.34675e-23
1.43546e-23
1.97606e-24
2.22799e-25
2.10248e-26
1.66301e-27
1.124e-28
6.48727e-30
3.20808e-31
1.34336e-32
4.76772e-34
1.38755e-35
3.20543e-37
5.60895e-39
6.80145e-41
2.78702e-43
1.34703e-22
5.92278e-23
1.79159e-23
4.10018e-24
7.28015e-25
1.02903e-25
1.186e-26
1.13983e-27
9.15295e-29
6.26351e-30
3.65194e-31
1.82088e-32
7.67561e-34
2.73869e-35
8.00407e-37
1.85515e-38
3.25553e-40
3.97393e-42
1.57727e-44
5.3153e-24
2.55779e-24
8.18071e-25
1.95407e-25
3.5922e-26
5.22569e-27
6.16928e-28
6.04985e-29
4.94051e-30
3.42854e-31
2.02232e-32
1.01798e-33
4.32449e-35
1.55263e-36
4.56005e-38
1.06088e-39
1.86741e-41
2.29398e-43
8.81853e-46
2.01478e-25
1.06669e-25
3.62394e-26
9.06542e-27
1.72997e-27
2.59573e-28
3.1448e-29
3.15195e-30
2.62158e-31
1.84743e-32
1.10374e-33
5.61503e-35
2.40602e-36
8.69871e-38
2.56877e-39
6.00069e-41
1.05962e-42
1.30933e-44
4.87643e-47
7.37333e-27
4.31413e-27
1.56339e-27
4.10853e-28
8.15881e-29
1.26515e-29
1.57559e-30
1.61635e-31
1.37097e-32
9.82186e-34
5.94955e-35
3.06152e-36
1.32419e-37
4.82366e-39
1.43284e-40
3.36173e-42
5.95527e-44
7.39742e-46
2.67077e-48
2.62476e-28
1.6998e-28
6.5954e-29
1.82591e-29
3.7814e-30
6.07054e-31
7.78255e-32
8.18199e-33
7.08479e-34
5.16479e-35
3.17455e-36
1.65348e-37
7.22303e-39
2.65219e-40
7.92693e-42
1.86824e-43
3.32005e-45
4.14276e-47
1.45117e-49
9.12534e-30
6.50977e-30
2.72054e-30
7.97397e-31
1.72867e-31
2.87844e-32
3.80327e-33
4.1017e-34
3.6288e-35
2.69372e-36
1.68102e-37
8.8667e-39
3.91344e-40
1.44885e-41
4.35795e-43
1.03181e-44
1.83926e-46
2.30355e-48
7.45826e-51
2.84603e-31
2.27641e-31
1.02586e-31
3.1792e-32
7.2064e-33
1.27402e-33
1.77106e-34
1.98904e-35
1.81712e-36
1.38477e-37
8.83206e-39
4.73351e-40
2.11168e-41
7.88514e-43
2.38737e-44
5.67914e-46
1.01544e-47
1.27552e-49
3.99856e-52
5.70804e-32
7.1746e-32
2.108e-32
4.58416e-33
7.66632e-34
1.01757e-34
1.10078e-35
9.76305e-37
7.32489e-38
4.68493e-39
2.53214e-40
1.25063e-41
5.65176e-43
2.1329e-44
6.51284e-46
1.55946e-47
2.80186e-49
3.53621e-51
3.99856e-52
)
;

boundaryField
{
    leftWall
    {
        type            zeroGradient;
    }
    rightWall
    {
        type            zeroGradient;
    }
    lowerWall
    {
        type            zeroGradient;
    }
    atmosphere
    {
        type            inletOutlet;
        inletValue      uniform 0;
        value           nonuniform List<scalar> 
46
(
0
0
0
0
0
0
0
0
0
0
0
0
0
0
0
0
0
0
0
0
0
9.27415e-43
2.9115e-40
4.90628e-38
8.67177e-36
2.91115e-34
6.39689e-33
5.70804e-32
7.1746e-32
2.108e-32
4.58416e-33
7.66632e-34
1.01757e-34
1.10078e-35
9.76305e-37
7.32489e-38
4.68493e-39
2.53214e-40
1.25063e-41
5.65176e-43
2.1329e-44
6.51284e-46
1.55946e-47
2.80186e-49
3.53621e-51
3.99856e-52
)
;
    }
    defaultFaces
    {
        type            empty;
    }
}


// ************************************************************************* //
