/*--------------------------------*- C++ -*----------------------------------*\
| =========                 |                                                 |
| \\      /  F ield         | OpenFOAM: The Open Source CFD Toolbox           |
|  \\    /   O peration     | Version:  2206                                  |
|   \\  /    A nd           | Website:  www.openfoam.com                      |
|    \\/     M anipulation  |                                                 |
\*---------------------------------------------------------------------------*/
FoamFile
{
    version     2.0;
    format      ascii;
    arch        "LSB;label=32;scalar=64";
    class       surfaceScalarField;
    location    "0.2";
    object      alphaPhi0.water;
}
// * * * * * * * * * * * * * * * * * * * * * * * * * * * * * * * * * * * * * //

dimensions      [0 3 -1 0 0 0 0];

oriented        oriented;

internalField   nonuniform List<scalar> 
4432
(
2.17796e-06
-2.17796e-06
7.93281e-06
-5.75485e-06
1.43123e-05
-6.37947e-06
2.02288e-05
-5.91649e-06
2.56761e-05
-5.44728e-06
3.09117e-05
-5.23561e-06
3.61452e-05
-5.23352e-06
4.14775e-05
-5.33229e-06
4.6916e-05
-5.43848e-06
5.2404e-05
-5.48806e-06
5.78377e-05
-5.43368e-06
6.30657e-05
-5.22793e-06
6.78787e-05
-4.81308e-06
7.19913e-05
-4.11255e-06
7.49781e-05
-2.98683e-06
7.60258e-05
-1.04773e-06
7.3577e-05
2.44888e-06
6.53382e-05
8.23873e-06
4.93422e-05
1.59961e-05
2.51314e-05
2.42106e-05
-2.21996e-06
2.73689e-05
-1.36707e-05
1.49014e-05
-1.55591e-05
2.2301e-06
-4.40806e-06
7.98149e-06
-1.15062e-05
1.43599e-05
-1.27579e-05
2.02849e-05
-1.18414e-05
2.57387e-05
-1.09011e-05
3.09868e-05
-1.04837e-05
3.62426e-05
-1.04893e-05
4.16038e-05
-1.06935e-05
4.70758e-05
-1.09105e-05
5.26041e-05
-1.10164e-05
5.8089e-05
-1.09186e-05
6.3383e-05
-1.05219e-05
6.82812e-05
-9.71133e-06
7.25017e-05
-8.33299e-06
7.56825e-05
-6.16764e-06
7.75798e-05
-2.94499e-06
7.82535e-05
1.77518e-06
7.75215e-05
8.97073e-06
7.32477e-05
2.02698e-05
6.11954e-05
3.62629e-05
3.87102e-05
4.9854e-05
1.33063e-05
4.07054e-05
-3.4256e-06
2.29452e-06
-6.70258e-06
8.03243e-06
-1.72441e-05
1.43597e-05
-1.90852e-05
2.02342e-05
-1.7716e-05
2.56539e-05
-1.63208e-05
3.08903e-05
-1.572e-05
3.6155e-05
-1.57541e-05
4.1539e-05
-1.60775e-05
4.70447e-05
-1.64161e-05
5.26204e-05
-1.65921e-05
5.81722e-05
-1.64704e-05
6.35608e-05
-1.59105e-05
6.85922e-05
-1.47427e-05
7.30028e-05
-1.27436e-05
7.64497e-05
-9.61455e-06
7.8477e-05
-4.97227e-06
7.8616e-05
1.63618e-06
7.68004e-05
1.07863e-05
7.37108e-05
2.33593e-05
6.93043e-05
4.06695e-05
5.81166e-05
6.10416e-05
3.27982e-05
6.60245e-05
2.78623e-05
2.38717e-06
-9.08975e-06
8.12019e-06
-2.29771e-05
1.43742e-05
-2.53392e-05
2.01701e-05
-2.35118e-05
2.55422e-05
-2.16929e-05
3.07691e-05
-2.09469e-05
3.6054e-05
-2.1039e-05
4.14778e-05
-2.15013e-05
4.70394e-05
-2.19778e-05
5.26914e-05
-2.22441e-05
5.83484e-05
-2.21274e-05
6.38839e-05
-2.1446e-05
6.91208e-05
-1.99795e-05
7.38114e-05
-1.74342e-05
7.76166e-05
-1.34197e-05
8.01057e-05
-7.46142e-06
8.07637e-05
9.78214e-07
7.91113e-05
1.24387e-05
7.50847e-05
2.73859e-05
7.00055e-05
4.57487e-05
6.22045e-05
6.88426e-05
4.11006e-05
8.71285e-05
6.88885e-05
2.50951e-06
-1.15993e-05
8.23878e-06
-2.87064e-05
1.43945e-05
-3.14949e-05
2.00854e-05
-2.92028e-05
2.53985e-05
-2.7006e-05
3.06181e-05
-2.61665e-05
3.59321e-05
-2.63531e-05
4.14076e-05
-2.69768e-05
4.70406e-05
-2.76108e-05
5.27897e-05
-2.79931e-05
5.85812e-05
-2.7919e-05
6.4307e-05
-2.71717e-05
6.98115e-05
-2.5484e-05
7.48634e-05
-2.24862e-05
7.9131e-05
-1.76873e-05
8.21908e-05
-1.05212e-05
8.3569e-05
-4.00011e-07
8.2749e-05
1.32587e-05
7.91025e-05
3.10325e-05
7.24411e-05
5.241e-05
6.31843e-05
7.80994e-05
4.36941e-05
0.000106619
0.000113177
2.66269e-06
-1.42619e-05
8.38002e-06
-3.44237e-05
1.44085e-05
-3.75234e-05
1.99708e-05
-3.47651e-05
2.52158e-05
-3.2251e-05
3.04289e-05
-3.13795e-05
3.57758e-05
-3.17001e-05
4.13075e-05
-3.25085e-05
4.70185e-05
-3.33218e-05
5.28759e-05
-3.38506e-05
5.88225e-05
-3.38655e-05
6.47733e-05
-3.31225e-05
7.05972e-05
-3.13079e-05
7.60795e-05
-2.79684e-05
8.0899e-05
-2.25069e-05
8.46431e-05
-1.42653e-05
8.68522e-05
-2.60916e-06
8.69905e-05
1.31204e-05
8.43554e-05
3.36676e-05
7.76171e-05
5.91483e-05
6.63062e-05
8.94103e-05
4.62663e-05
0.000126659
0.000156555
2.84179e-06
-1.71037e-05
8.53003e-06
-4.0112e-05
1.44015e-05
-4.33948e-05
1.9817e-05
-4.01805e-05
2.49879e-05
-3.7422e-05
3.01933e-05
-3.65849e-05
3.5572e-05
-3.70788e-05
4.11581e-05
-3.80946e-05
4.69468e-05
-3.91104e-05
5.29171e-05
-3.98209e-05
5.90329e-05
-3.99813e-05
6.52363e-05
-3.93259e-05
7.14201e-05
-3.74917e-05
7.73869e-05
-3.39352e-05
8.28383e-05
-2.79583e-05
8.73931e-05
-1.88201e-05
9.05937e-05
-5.80981e-06
9.18481e-05
1.18661e-05
9.04344e-05
3.50813e-05
8.48135e-05
6.4769e-05
7.28938e-05
0.00010133
5.31353e-05
0.000146417
0.000206884
3.03573e-06
-2.01395e-05
8.6669e-06
-4.57432e-05
1.43615e-05
-4.90894e-05
1.96223e-05
-4.54414e-05
2.47161e-05
-4.25158e-05
2.9911e-05
-4.17797e-05
3.5316e-05
-4.24838e-05
4.09502e-05
-4.37288e-05
4.68118e-05
-4.49721e-05
5.28956e-05
-4.59046e-05
5.91906e-05
-4.62763e-05
6.56669e-05
-4.58022e-05
7.22398e-05
-4.40646e-05
7.87366e-05
-4.0432e-05
8.48916e-05
-3.41133e-05
9.03634e-05
-2.42918e-05
9.47204e-05
-1.01669e-05
9.73353e-05
9.25125e-06
9.74937e-05
3.49228e-05
9.36718e-05
6.85903e-05
8.23208e-05
0.000112681
6.12276e-05
0.00016751
0.000265043
-1.75972e-26
5.58205e-26
-5.70877e-27
9.46854e-27
-4.47259e-28
1.4478e-27
-9.0894e-30
4.48173e-29
-1.40122e-31
2.4655e-31
-4.7736e-33
-5.89617e-33
-2.67536e-34
-4.65474e-34
-1.29185e-35
-3.95372e-35
-4.94559e-37
-2.47027e-36
-1.56373e-38
-1.12413e-37
-4.1431e-40
-4.05118e-39
-9.08051e-42
-1.19409e-40
-1.60157e-43
-2.91855e-42
-2.2008e-45
-5.7729e-44
-2.18878e-47
-9.24986e-46
-1.40474e-49
-1.06439e-47
-3.30843e-52
-7.79604e-50
-4.9001e-53
-2.58383e-52
-5.78721e-53
-2.14192e-24
5.61102e-24
-1.41431e-24
3.98495e-24
-1.17614e-25
6.75537e-25
-2.01835e-27
1.91556e-26
-2.72679e-29
1.92256e-29
-6.95633e-31
-2.95886e-30
-3.14572e-32
-1.27487e-31
-1.33924e-33
-7.38157e-33
-4.71969e-35
-3.79261e-34
-1.39069e-36
-1.56569e-35
-3.42887e-38
-5.26122e-37
-6.96097e-40
-1.44742e-38
-1.12695e-41
-3.2556e-40
-1.38442e-43
-5.75356e-42
-1.18882e-45
-7.72229e-44
-6.27173e-48
-7.01239e-46
-1.26565e-50
-4.49091e-48
-4.67904e-53
-1.73179e-50
-2.15983e-52
-1.64525e-22
4.18815e-22
-1.14307e-22
4.53107e-22
-9.34108e-24
7.82981e-23
-1.64688e-25
1.90278e-24
-2.59979e-27
-2.56811e-27
-6.03772e-29
-4.91105e-28
-1.9238e-30
-1.8806e-29
-6.43102e-32
-7.13095e-31
-1.97534e-33
-2.6827e-32
-5.31302e-35
-9.27031e-34
-1.21257e-36
-2.78471e-35
-2.27783e-38
-6.96801e-37
-3.36669e-40
-1.41396e-38
-3.7756e-42
-2.21321e-40
-2.90473e-44
-2.75566e-42
-1.4731e-46
-2.63331e-44
-3.53027e-49
-1.7743e-46
-2.07831e-51
-6.6807e-49
-1.50356e-50
-1.6593e-20
3.70009e-20
-9.45625e-21
5.5077e-20
-5.73419e-22
7.39594e-21
-9.88005e-24
1.20982e-22
-1.90226e-25
-6.98948e-25
-4.3027e-27
-7.03635e-26
-1.00418e-28
-2.29512e-27
-2.48539e-30
-5.5973e-29
-6.13769e-32
-1.38869e-30
-1.41492e-33
-3.47722e-32
-2.88497e-35
-8.32932e-34
-4.92476e-37
-1.80963e-35
-6.81638e-39
-3.37629e-37
-7.58117e-41
-5.4427e-39
-6.42294e-43
-7.36303e-41
-3.48757e-45
-7.687e-43
-6.69959e-48
-5.45493e-45
-7.64857e-50
-1.32162e-47
-7.03871e-49
-1.00978e-18
2.17782e-18
-5.17311e-19
3.10452e-18
-2.79982e-20
3.77625e-19
-4.71139e-22
4.67e-21
-1.00519e-23
-9.53453e-23
-2.15168e-25
-6.53612e-24
-4.12156e-27
-1.87145e-25
-7.93521e-29
-3.74832e-27
-1.54862e-30
-6.63287e-29
-2.94361e-32
-1.22125e-30
-5.22455e-34
-2.22949e-32
-8.29979e-36
-3.94839e-34
-1.16596e-37
-6.59213e-36
-1.35032e-39
-1.01986e-37
-1.15631e-41
-1.3682e-39
-6.13408e-44
-1.46877e-41
-9.22206e-47
-1.12324e-43
-1.98505e-48
-3.67135e-46
-2.42091e-47
-2.42714e-17
4.43724e-17
-7.75943e-18
6.00648e-17
-5.96664e-19
4.44311e-18
-1.22139e-20
4.2093e-20
-2.39211e-22
-4.44937e-21
-5.24296e-24
-1.53023e-22
-1.08615e-25
-4.54312e-24
-2.08037e-27
-1.19604e-25
-3.82688e-29
-2.53085e-27
-6.6412e-31
-5.43251e-29
-1.07828e-32
-1.07705e-30
-1.5933e-34
-1.90356e-32
-2.04388e-36
-2.86605e-34
-2.154e-38
-3.56013e-36
-1.67882e-40
-3.63436e-38
-8.34006e-43
-2.9154e-40
-1.55498e-45
-1.72022e-42
-3.86758e-47
-7.96527e-45
-5.22406e-46
-1.65164e-16
2.67213e-16
-6.37058e-17
1.6782e-16
-3.95053e-18
2.23346e-17
-1.09998e-19
-1.96112e-19
-1.72943e-21
-3.57955e-20
-4.29319e-23
-6.84583e-22
-1.21319e-24
-2.28169e-23
-3.28592e-26
-9.18989e-25
-7.65337e-28
-4.36908e-26
-1.57977e-29
-1.25123e-27
-2.91565e-31
-3.02089e-29
-4.43202e-33
-6.91576e-31
-5.261e-35
-1.2754e-32
-4.63908e-37
-1.76462e-34
-2.84112e-39
-1.72998e-36
-1.0016e-41
-1.07561e-38
-1.36858e-44
-3.05674e-41
-5.08509e-46
-3.37561e-44
-6.24418e-45
-1.93108e-16
1.54106e-15
-1.21308e-16
1.45764e-15
-8.06593e-18
2.47547e-17
-2.90653e-19
-1.98333e-19
-4.72051e-21
-6.56728e-20
-1.40374e-22
-2.22199e-21
-5.30241e-24
-6.85419e-23
-2.25704e-25
-2.84911e-24
-6.42351e-27
-2.93869e-25
-1.51665e-28
-8.89647e-27
-3.25448e-30
-2.28509e-28
-5.71022e-32
-5.83045e-30
-7.60106e-34
-1.2175e-31
-7.34121e-36
-1.94853e-33
-4.5268e-38
-2.29844e-35
-1.25436e-40
-1.76982e-37
-5.19174e-44
-6.03988e-40
-5.20716e-45
-6.62626e-45
-1.73224e-43
6.93757e-06
-2.7077e-05
1.88563e-05
-5.76619e-05
3.03068e-05
-6.05398e-05
4.09204e-05
-5.60551e-05
5.14984e-05
-5.30938e-05
6.24996e-05
-5.27809e-05
7.40454e-05
-5.40296e-05
8.61484e-05
-5.58317e-05
9.88353e-05
-5.76591e-05
0.000112163
-5.92327e-05
0.000126209
-6.03217e-05
0.000141004
-6.05977e-05
0.000156487
-5.95471e-05
0.00017243
-5.63751e-05
0.000188363
-5.00462e-05
0.000203579
-3.9508e-05
0.000217155
-2.37424e-05
0.000227719
-1.31322e-06
0.000234049
2.85934e-05
0.000232803
6.98356e-05
0.000222308
0.000123175
0.000211816
0.000178002
0.000266526
0.000210333
7.70411e-06
-3.47811e-05
1.9192e-05
-6.91498e-05
2.97568e-05
-7.11046e-05
3.96929e-05
-6.59912e-05
4.99423e-05
-6.33431e-05
6.08405e-05
-6.36791e-05
7.23929e-05
-6.55821e-05
8.45926e-05
-6.80314e-05
9.75294e-05
-7.05959e-05
0.00011138
-7.30837e-05
0.000126362
-7.53037e-05
0.000142679
-7.69142e-05
0.000160566
-7.74346e-05
0.000180052
-7.58604e-05
0.000200735
-7.07295e-05
0.000221958
-6.07353e-05
0.000242715
-4.45035e-05
0.000261242
-1.98423e-05
0.000277923
1.1879e-05
0.000288492
5.92667e-05
0.00029541
0.000116257
0.000300821
0.000172591
0.000254014
0.000313332
8.40803e-06
-4.31892e-05
1.92888e-05
-8.00305e-05
2.88576e-05
-8.06734e-05
3.81239e-05
-7.52575e-05
4.80342e-05
-7.32534e-05
5.87305e-05
-7.43754e-05
7.01245e-05
-7.69761e-05
8.22239e-05
-8.01308e-05
9.52133e-05
-8.35852e-05
0.000109393
-8.72633e-05
0.000125105
-9.10159e-05
0.000142796
-9.46051e-05
0.000163165
-9.78037e-05
0.000186432
-9.91268e-05
0.000212114
-9.6411e-05
0.000239582
-8.82076e-05
0.000268469
-7.34086e-05
0.000296955
-4.83525e-05
0.000322086
-1.61413e-05
0.000337395
4.22028e-05
0.000341068
0.000112582
0.000344282
0.000169376
0.000236666
0.000361093
8.97096e-06
-5.21601e-05
1.90662e-05
-9.01258e-05
2.76208e-05
-8.92279e-05
3.62591e-05
-8.38959e-05
4.57885e-05
-8.27828e-05
5.61376e-05
-8.47244e-05
6.7167e-05
-8.80055e-05
7.89277e-05
-9.18914e-05
9.17021e-05
-9.63596e-05
0.000105832
-0.000101393
0.000121732
-0.000106915
0.000140104
-0.000112976
0.000162266
-0.000119961
0.000188299
-0.000125151
0.00021661
-0.000124714
0.000245083
-0.000116701
0.000269997
-0.00010004
0.000247986
-3.46335e-05
0.000196939
-8.00205e-06
0.000148343
3.59044e-06
0.000171434
9.06557e-06
0.000232075
2.62855e-05
0.000118874
0.000308659
9.35376e-06
-6.15139e-05
1.85062e-05
-9.92782e-05
2.60799e-05
-9.68016e-05
3.41292e-05
-9.19451e-05
4.31978e-05
-9.18513e-05
5.30241e-05
-9.45507e-05
6.34525e-05
-9.84337e-05
7.45758e-05
-0.000103014
8.66784e-05
-0.000108461
9.99733e-05
-0.000114686
0.000114871
-0.000121809
0.000132289
-0.00013038
0.000154437
-0.000142059
0.00017985
-0.000150445
0.000197309
-0.000142029
0.000156155
-6.50565e-05
6.96553e-05
-1.93039e-05
1.17943e-05
-3.74443e-06
4.07877e-06
-4.25202e-07
5.21307e-06
2.89974e-08
1.1899e-05
1.49625e-06
2.84761e-05
5.80125e-06
2.52313e-05
0.000110005
9.55458e-06
-7.10684e-05
1.76366e-05
-0.00010736
2.42952e-05
-0.00010346
3.17732e-05
-9.94226e-05
4.0261e-05
-0.000100338
4.93477e-05
-0.000103636
5.88599e-05
-0.000107944
6.88785e-05
-0.00011303
7.95046e-05
-0.00011908
9.07562e-05
-0.000125922
0.000102968
-0.000133977
0.000117404
-0.000144696
0.000136603
-0.000160828
0.000137802
-0.000140266
5.67241e-05
-3.39502e-05
2.2075e-05
-5.47718e-06
4.18807e-06
-1.17093e-06
6.77319e-07
-1.96255e-07
2.78249e-07
-2.46535e-08
3.08002e-07
-4.48062e-12
1.70813e-06
1.02449e-07
6.72515e-06
8.07249e-07
4.46743e-06
2.77039e-05
9.61103e-06
-8.06789e-05
1.64818e-05
-0.000114226
2.22688e-05
-0.000109242
2.91282e-05
-0.000106277
3.68281e-05
-0.000108031
4.48454e-05
-0.000111644
5.29713e-05
-0.000116056
6.12259e-05
-0.000121257
6.94977e-05
-0.000127289
7.78337e-05
-0.000134129
8.67284e-05
-0.000142535
9.54211e-05
-0.000152455
8.20185e-05
-0.000104959
3.69758e-05
-2.07012e-05
6.11978e-06
-2.47219e-06
1.27483e-06
-5.65135e-07
2.17601e-07
-1.11758e-07
3.38196e-08
-1.5049e-08
9.30614e-09
-1.33416e-09
9.08776e-09
-1.01206e-10
1.09373e-07
3.26231e-09
8.47634e-07
7.82273e-08
5.04525e-07
4.86349e-06
9.51274e-06
-9.01844e-05
1.49655e-05
-0.000119639
1.98343e-05
-0.000114075
2.59064e-05
-0.000112307
3.24798e-05
-0.000114547
3.89895e-05
-0.00011807
4.52273e-05
-0.000122177
5.12929e-05
-0.000127101
5.75231e-05
-0.00013302
6.30523e-05
-0.000136818
6.00696e-05
-0.000106836
3.46372e-05
-4.11757e-05
2.17556e-05
-6.61529e-06
2.43626e-06
-9.47892e-07
4.03314e-07
-3.77418e-07
8.95928e-08
-2.48702e-07
1.49052e-08
-3.93586e-08
2.01681e-09
-2.98222e-09
5.36527e-10
-1.64413e-10
3.17034e-10
-3.48112e-11
3.54599e-09
-1.39218e-12
7.74557e-08
5.02357e-09
4.95992e-08
5.40606e-07
9.28399e-06
-9.93923e-05
1.28671e-05
-0.00012293
1.66066e-05
-0.000117535
2.16077e-05
-0.000116974
2.67541e-05
-0.000119235
3.17782e-05
-0.000122455
3.63917e-05
-0.000123662
3.94984e-05
-0.000108863
3.68237e-05
-7.74733e-05
2.48006e-05
-3.35126e-05
1.04528e-05
-4.69229e-06
7.44041e-06
-4.11654e-07
9.80186e-07
-1.27942e-07
1.57877e-07
-3.07646e-08
1.22303e-07
-3.93616e-07
7.37144e-08
-4.54213e-07
7.04712e-09
-3.84171e-08
2.96042e-10
-9.55249e-10
9.64028e-11
-1.1912e-10
5.32163e-11
-3.72688e-11
1.6874e-11
-4.35378e-12
4.73911e-09
2.55082e-10
5.62152e-09
4.99516e-08
9.24825e-06
-0.000100586
9.80544e-06
-9.25258e-05
1.22689e-05
-8.84296e-05
1.55527e-05
-8.02215e-05
1.788e-05
-6.74521e-05
1.84182e-05
-5.14432e-05
1.62993e-05
-3.08528e-05
1.07574e-05
-2.69811e-06
6.33324e-06
-3.374e-07
5.22055e-06
-2.6787e-08
5.43617e-07
-6.29481e-09
1.47074e-07
-1.03971e-08
2.85798e-08
-9.30979e-09
3.46702e-08
-4.57009e-09
5.95556e-07
-6.33683e-07
3.39781e-07
-9.49467e-07
6.00095e-09
-1.33093e-07
5.11701e-10
1.29052e-09
9.43794e-11
-1.51774e-11
4.23651e-11
-2.73521e-11
1.6025e-11
-3.55899e-12
2.46761e-10
-2.42666e-11
5.84419e-10
5.42999e-09
4.77804e-06
-6.22777e-06
2.80287e-06
-8.48061e-08
3.78483e-06
-1.90316e-09
3.92032e-06
-6.45621e-11
3.34802e-06
-3.20743e-12
2.22897e-06
-2.33124e-13
3.0695e-06
-1.32841e-14
3.71388e-07
-4.68745e-13
3.40168e-08
-7.59826e-12
7.40254e-09
-1.21971e-10
3.04942e-09
-2.58081e-09
5.22822e-09
-8.99989e-09
7.16412e-09
-6.49107e-09
7.08856e-09
-4.50664e-09
4.78464e-07
-8.08531e-07
4.7582e-07
-8.06247e-07
6.66687e-09
-1.54924e-07
3.91686e-10
5.04101e-09
6.41186e-11
1.14329e-10
2.59979e-11
-6.69558e-12
4.36885e-12
-2.65098e-12
6.04368e-10
2.07741e-11
3.7354e-10
4.9951e-10
8.67773e-08
4.49291e-24
1.97117e-09
-2.14168e-23
6.8016e-11
-4.63596e-21
3.45389e-12
-4.58349e-19
2.46484e-13
-3.23312e-17
1.42321e-14
-9.38942e-16
4.03635e-15
-3.41727e-15
7.43771e-14
-2.44668e-13
1.308e-12
-8.44043e-12
5.60509e-11
-1.73763e-10
2.72369e-09
-5.2383e-09
8.30956e-09
-1.52184e-08
1.09679e-08
-1.03439e-08
1.37787e-08
-4.96323e-09
4.20444e-07
-4.54679e-07
3.95585e-07
-6.4097e-07
1.65251e-09
-1.087e-07
-3.09223e-12
5.77151e-09
1.0744e-11
5.50574e-11
1.99377e-12
-1.13377e-12
6.38216e-13
-7.18523e-12
5.88378e-10
-2.89256e-11
3.42211e-09
1.13825e-08
-2.15296e-25
1.16026e-23
5.39607e-25
-2.21717e-23
1.96569e-22
-4.83486e-21
2.67804e-20
-4.85509e-19
2.39208e-18
-3.47349e-17
7.33809e-17
-1.00672e-15
9.00955e-15
-1.2493e-14
5.71781e-13
-7.98784e-13
1.86602e-11
-2.68202e-11
5.17407e-10
-6.74138e-10
9.15538e-09
-1.3941e-08
3.19274e-08
-9.3275e-08
3.74923e-08
-3.43429e-08
4.29801e-08
-5.01722e-09
2.71231e-07
-1.28527e-07
2.73703e-07
-4.88129e-07
-2.9309e-09
-3.96098e-10
-4.96436e-11
2.87523e-09
-1.20635e-12
7.64012e-12
-2.64838e-12
-2.29893e-13
1.85985e-12
-1.4235e-11
2.30178e-10
-1.76696e-10
4.91779e-11
6.84809e-09
-5.86724e-25
2.60348e-23
4.69674e-24
-3.26448e-23
1.263e-21
-8.85322e-21
1.67179e-19
-1.05091e-18
1.5079e-17
-8.80044e-17
7.8755e-16
-2.8444e-15
4.91549e-14
-5.82909e-14
2.51885e-12
-3.40118e-12
7.87028e-11
-1.02358e-10
2.12339e-09
-2.73481e-09
5.09795e-08
-9.21482e-08
8.8265e-08
-1.87492e-07
5.48017e-08
-1.25994e-07
5.17241e-08
-1.93334e-09
2.5272e-07
-3.49614e-08
8.40046e-08
-2.40015e-07
-2.58553e-09
1.80046e-08
-1.13769e-11
3.02122e-10
-5.89935e-12
2.13105e-12
-6.1195e-12
1.02838e-12
1.45517e-11
-7.86022e-12
3.7717e-10
-1.18763e-10
-6.75295e-10
-3.33133e-09
-1.20521e-24
5.25113e-23
1.76858e-23
-2.24171e-22
4.90695e-21
-4.06879e-20
6.18217e-19
-3.9959e-18
4.93549e-17
-2.73741e-16
2.61666e-15
-6.9446e-15
1.41678e-13
-2.1671e-13
7.90672e-12
-1.03384e-11
3.44644e-10
-3.19913e-10
1.1041e-08
-1.34382e-08
2.70774e-08
-1.84375e-07
2.63283e-08
-1.76812e-07
2.2459e-08
-1.13986e-07
1.39842e-08
-7.09937e-09
3.43608e-08
-3.35284e-08
-1.46664e-08
-1.30974e-09
-2.77002e-10
3.60472e-09
-5.23467e-12
3.10257e-11
-7.5123e-12
1.75579e-12
-8.85808e-12
2.34231e-12
8.51444e-12
-5.9334e-12
2.92886e-10
-1.7066e-10
-1.30954e-09
3.01971e-09
-1.51371e-24
9.43355e-23
3.63894e-23
-1.12381e-21
6.54265e-21
-1.1815e-19
5.82278e-19
-7.35376e-18
3.30085e-17
-3.37386e-16
2.85697e-15
-6.77139e-15
1.01789e-13
-3.46017e-13
8.14099e-13
-1.3581e-11
2.24561e-10
-3.21999e-10
-1.23359e-08
-5.66721e-09
-3.47811e-08
-1.48527e-07
-4.73364e-08
-1.56213e-07
-1.91929e-08
-1.32564e-07
-3.61546e-08
-2.33709e-08
-7.70337e-08
-2.5273e-09
-3.44368e-09
1.43124e-08
-3.57832e-11
1.91617e-10
-6.65857e-12
1.87584e-12
-8.95099e-12
1.3453e-12
-1.34193e-11
3.74267e-12
-3.24356e-11
6.2272e-12
-2.04912e-10
-5.25411e-11
-6.14231e-10
-1.05453e-09
-6.68399e-25
1.51023e-22
-3.16873e-24
-2.58434e-21
-3.48053e-21
-2.57538e-19
-2.09795e-18
-1.21837e-17
-1.06965e-17
-3.35541e-16
-1.99917e-16
-2.77614e-15
-2.7396e-13
-6.20909e-14
-1.2036e-11
-1.54723e-12
-2.91504e-10
-2.89817e-11
-3.8004e-09
-3.18153e-10
-5.07467e-08
-5.78324e-09
-7.99523e-08
-3.08228e-08
-1.41571e-07
-1.83303e-10
-4.6465e-08
-5.00663e-10
-1.10497e-08
-4.05793e-10
-1.73073e-10
1.06993e-09
-4.0601e-12
2.26918e-11
-2.64555e-12
2.98775e-13
-2.32002e-12
4.64632e-13
-3.10812e-12
1.72687e-12
-1.51867e-11
5.45024e-12
-1.63223e-10
1.14592e-11
1.45706e-11
-1.418e-09
-4.61128e-23
2.66493e-22
-2.84491e-22
-3.21765e-21
-5.0864e-20
-3.6009e-19
-5.64095e-18
-2.39269e-17
-6.56932e-17
-7.49019e-16
-3.37535e-16
-3.5543e-15
-5.67252e-14
-6.36607e-15
-1.53527e-12
-6.54497e-14
-2.98401e-11
-6.88534e-13
-3.43674e-10
-4.45189e-12
-6.09511e-09
-3.25962e-11
-6.98244e-11
-1.1215e-10
-2.03485e-10
-5.41116e-11
-6.31757e-10
-5.07474e-11
-1.07594e-09
-4.03804e-12
-2.31556e-11
2.74393e-11
-1.26378e-12
5.73504e-13
-1.02285e-12
2.66724e-14
-8.24445e-13
7.41103e-14
-4.38793e-13
2.70114e-13
-2.0786e-12
1.02776e-12
-3.08751e-11
3.49925e-12
1.9424e-11
-2.30475e-10
-1.54247e-22
5.50969e-22
-4.87151e-22
-2.54823e-21
-9.9942e-20
-2.68537e-19
-2.28669e-17
-1.90347e-17
-4.71586e-16
-6.76781e-16
-8.40996e-16
-3.11946e-15
-2.00307e-15
-4.42077e-15
-4.86281e-14
-1.80805e-14
-5.27973e-13
-2.09216e-13
-3.26783e-12
-1.72361e-12
-1.95665e-11
-1.64183e-11
-4.45154e-11
-8.80043e-11
-5.32639e-11
-6.82471e-11
-4.49979e-11
-4.06072e-11
-3.97421e-11
-9.92265e-15
-7.52704e-13
3.51239e-13
-1.46376e-13
6.37654e-16
-1.50998e-13
1.79549e-15
-1.71818e-13
1.07079e-14
-2.69918e-13
3.08089e-14
-1.38977e-12
1.27072e-13
-1.15088e-11
3.67657e-13
3.34091e-12
-6.9346e-11
-1.36403e-22
9.80238e-22
-1.14983e-20
8.81364e-21
-2.33659e-19
-4.75351e-20
-2.04632e-17
-2.25532e-18
-4.33928e-16
-1.17861e-16
-8.50824e-16
-1.05279e-15
-1.81261e-15
-2.43422e-15
-1.62151e-14
-5.50323e-15
-2.08215e-13
-2.3787e-14
-1.82751e-12
-1.15598e-13
-1.81363e-11
-1.6226e-13
-1.35299e-10
-1.4034e-13
-1.16677e-10
-4.13249e-14
-3.51136e-13
-5.2915e-17
-3.6093e-13
-9.52543e-17
-9.09764e-15
-6.43351e-16
-8.59248e-15
-5.48865e-17
-2.47856e-14
1.41727e-16
-5.75505e-14
1.89946e-15
-1.08907e-13
5.15143e-15
-4.07883e-13
1.16393e-14
-2.66411e-12
-3.17419e-14
1.66354e-13
-1.262e-11
3.70205e-22
1.01259e-21
-3.65805e-21
1.66273e-20
-1.41941e-19
9.07483e-20
-2.50107e-18
3.27494e-20
-6.22438e-17
-1.13109e-18
-2.7364e-16
-2.74064e-17
-9.03332e-16
-4.26226e-16
-6.61745e-15
-3.97777e-15
-1.9907e-14
-2.57981e-14
-4.60092e-14
-9.17299e-14
-6.14437e-14
-1.55161e-13
-7.21577e-14
-1.31765e-13
-3.79687e-17
-5.51197e-14
-4.69048e-17
-1.36092e-17
-1.56593e-16
-6.28729e-18
-8.11018e-16
-6.7671e-18
-1.17862e-15
-1.40215e-17
-6.5707e-15
-1.36203e-17
-1.98298e-14
2.18697e-16
-4.40143e-14
1.36985e-15
-1.14585e-13
4.08936e-15
-5.50269e-13
-1.08339e-14
-1.13859e-14
-2.31463e-12
7.94065e-22
4.13387e-22
8.87552e-21
6.57364e-21
4.94327e-21
3.3347e-20
-3.37712e-19
-1.76415e-20
-8.09092e-19
-6.59708e-19
-1.86015e-17
-1.55555e-17
-3.14734e-16
-3.13474e-16
-4.78262e-15
-2.1714e-15
-4.60452e-14
-3.43368e-15
-9.10572e-14
-3.51831e-15
-8.74117e-14
-1.30015e-15
-4.34339e-14
-1.28718e-15
-6.33025e-17
-2.2269e-16
-2.1318e-17
-7.13571e-17
-1.20015e-17
-3.20302e-17
-2.27973e-17
-8.89089e-19
-1.44302e-16
-1.68344e-18
-7.48522e-16
-3.72512e-18
-3.30105e-15
7.46308e-18
-1.22639e-14
1.79569e-16
-3.29484e-14
1.25047e-15
-1.00331e-13
3.55928e-15
4.75359e-15
-3.94502e-13
3.41813e-22
8.32428e-23
3.54037e-21
1.31905e-21
-2.88064e-21
6.8132e-21
-1.00345e-19
4.4344e-22
-6.90685e-19
-1.17401e-19
-1.92795e-17
-2.4564e-18
-4.21707e-16
-5.6452e-17
-1.70204e-15
-8.73759e-16
-1.98028e-15
-2.63271e-15
-1.57651e-15
-3.2541e-15
-6.86453e-16
-2.96177e-15
-1.91181e-16
-1.95176e-15
-1.57181e-16
-2.76535e-16
-1.22468e-16
-4.08323e-17
-2.12058e-18
-1.60761e-18
-2.61896e-18
-3.47214e-20
-1.09535e-17
-2.03935e-19
-5.9577e-17
-3.77666e-19
-3.0991e-16
-1.53103e-19
-1.66721e-15
1.20879e-17
-7.5325e-15
1.49401e-16
-2.40449e-14
9.97355e-16
2.5653e-15
-6.13403e-14
7.24903e-23
-6.36561e-28
7.63265e-22
-8.10532e-26
7.6226e-23
-5.04319e-24
-2.86177e-20
-2.07091e-22
-1.38915e-19
-7.10353e-21
-2.48893e-18
-1.34164e-19
-6.7866e-17
-2.6766e-18
-9.65114e-16
-6.1956e-17
-2.32916e-15
-6.96462e-16
-2.60881e-15
-1.36992e-15
-2.1776e-15
-1.78243e-15
-9.67352e-16
-1.6981e-15
-1.38054e-16
-5.92157e-16
-7.79275e-18
-7.70838e-17
-6.00925e-21
-3.4245e-18
-2.91704e-19
2.50973e-19
-6.75883e-19
1.97257e-19
-3.46303e-18
3.93266e-20
-2.16634e-17
-2.98608e-20
-1.30373e-16
5.81133e-19
-7.99999e-16
9.22606e-18
-3.25227e-15
8.83486e-17
5.09771e-16
-7.27194e-15
-6.35115e-28
-1.44651e-30
-8.14973e-26
-1.9106e-28
-5.11232e-24
-1.23682e-26
-2.11673e-22
-5.30013e-25
-7.30089e-21
-1.07561e-23
-1.41179e-19
-2.16638e-22
-2.8467e-18
-4.44913e-21
-7.01378e-17
-8.34522e-20
-7.47437e-16
-1.96324e-18
-1.51757e-15
-1.33473e-17
-1.64815e-15
-2.72932e-17
-1.18847e-15
-2.75271e-17
-2.41768e-16
-9.33067e-18
-1.592e-17
-1.40155e-18
7.88949e-19
1.23419e-19
9.25477e-19
2.62065e-19
3.32815e-19
1.94813e-19
-8.45395e-19
7.62612e-20
-1.06027e-18
4.00701e-21
-8.30135e-18
2.15699e-20
-5.51942e-17
5.12227e-19
-2.89277e-16
5.68106e-18
4.45377e-17
-1.25287e-15
-1.43929e-30
-5.01815e-33
-1.91536e-28
-6.9686e-31
-1.24964e-26
-4.74529e-29
-5.39746e-25
-2.1432e-27
-1.12609e-23
-4.47648e-26
-2.27956e-22
-9.95502e-25
-4.64769e-21
-2.17209e-23
-9.46109e-20
-4.26517e-22
-2.22282e-18
-1.0291e-20
-1.02629e-17
-8.0899e-20
-1.45055e-17
-2.3403e-19
-9.49249e-18
-3.45957e-19
-2.36334e-18
-3.32579e-19
2.62336e-19
-1.16701e-19
7.46499e-19
3.14735e-20
8.01951e-19
6.77293e-20
5.31103e-19
6.84605e-20
8.19949e-20
3.54707e-20
-3.33951e-19
5.38062e-21
-4.34481e-19
5.60727e-22
-3.39245e-18
2.37837e-20
-1.96825e-17
3.09256e-19
2.59883e-18
-6.8993e-17
-5.00839e-33
-7.33396e-36
-7.00487e-31
-1.08062e-33
-4.80601e-29
-7.83819e-32
-2.18717e-27
-3.78335e-30
-4.9698e-26
-8.6804e-29
-1.04518e-24
-2.05698e-27
-2.2718e-23
-4.80501e-26
-4.62773e-22
-9.64965e-25
-1.06414e-20
-1.81053e-23
-6.61352e-20
-4.06369e-22
-1.63897e-19
-3.1168e-21
-2.17008e-19
-7.93996e-21
-1.68003e-19
-9.40612e-21
6.25886e-20
-2.82755e-21
1.77439e-19
5.27782e-21
2.52762e-19
1.15098e-20
2.11858e-19
1.33661e-20
7.75126e-20
8.70524e-21
-1.53896e-20
1.85039e-21
-2.04652e-20
1.05932e-23
-1.75417e-19
9.18162e-22
-1.13969e-18
1.4291e-20
1.35903e-19
-3.98929e-18
-7.35744e-36
2.3481e-38
-1.09035e-33
9.71928e-37
-7.94507e-32
-9.71705e-35
-3.8606e-30
-1.31704e-32
-9.11773e-29
-4.33331e-31
-2.13813e-27
-1.14604e-29
-5.00423e-26
-2.67538e-28
-1.01343e-24
-5.47694e-27
-2.18419e-23
-1.2787e-25
-5.27548e-22
-2.77223e-24
-3.11294e-21
-9.57756e-24
-5.74239e-21
2.06414e-24
-4.95315e-21
5.8774e-23
9.84658e-21
2.34853e-22
2.79104e-20
5.87661e-22
4.47489e-20
1.08047e-21
4.54369e-20
1.45033e-21
2.08357e-20
1.21178e-21
-5.97566e-22
3.59288e-22
-7.95448e-22
-8.72288e-26
-7.64349e-21
2.9468e-23
-5.61474e-20
5.59861e-22
6.11719e-21
-2.03926e-19
5.49775e-38
1.13954e-37
-2.68024e-36
1.0989e-35
-6.41069e-34
5.0281e-34
-2.86408e-32
1.47323e-32
-7.70903e-31
3.08931e-31
-1.71408e-29
4.90948e-30
-3.45761e-28
6.10833e-29
-6.42924e-27
6.0654e-28
-2.68819e-25
4.8617e-27
-3.77166e-24
3.16907e-26
1.97844e-24
1.69211e-25
6.78401e-23
7.47765e-25
3.30482e-22
2.7724e-24
1.02865e-21
8.72772e-24
2.43096e-21
2.33275e-23
4.42988e-21
5.15812e-23
5.59886e-21
8.77267e-23
3.27809e-21
9.65982e-23
-1.96487e-23
4.19153e-23
-2.59612e-23
-1.48791e-26
-2.83199e-22
7.86882e-25
-2.36307e-21
1.87268e-23
2.64464e-22
-8.78316e-21
6.04346e-37
2.33064e-39
5.61678e-35
1.94359e-37
2.51166e-33
7.6973e-36
7.1814e-32
1.96111e-34
1.46727e-30
3.60916e-33
2.26739e-29
5.11049e-32
2.73736e-28
5.79304e-31
2.63318e-27
5.40465e-30
2.04537e-26
4.2374e-29
1.29833e-25
2.83862e-28
6.83286e-25
1.64675e-27
3.0353e-24
8.3573e-27
1.15794e-23
3.72982e-26
3.82151e-23
1.45973e-25
1.07556e-22
4.93191e-25
2.44997e-22
1.38738e-24
3.96916e-22
3.02384e-24
3.18476e-22
4.40824e-24
-5.61481e-25
2.92892e-24
-7.42668e-25
-7.0577e-28
-9.00957e-24
1.7484e-26
-8.54874e-23
5.70881e-25
1.08884e-23
-3.51324e-22
1.02816e-38
3.10462e-42
8.27222e-37
2.86866e-40
3.21542e-35
1.26251e-38
8.06401e-34
3.59389e-37
1.46663e-32
7.44098e-36
2.06218e-31
1.19553e-34
2.3352e-30
1.55346e-33
2.19264e-29
1.68086e-32
1.74584e-28
1.54817e-31
1.20027e-27
1.2349e-30
7.22744e-27
8.64312e-30
3.84797e-26
5.35483e-29
1.81559e-25
2.9459e-28
7.52618e-25
1.43247e-27
2.6722e-24
6.06234e-27
7.70671e-24
2.16288e-26
1.61859e-23
6.11983e-26
1.87291e-23
1.21316e-25
-1.38039e-26
1.19665e-25
-1.81853e-26
-2.30453e-29
-2.56683e-25
3.21151e-28
-2.86145e-24
1.55002e-26
4.38046e-25
-1.28189e-23
1.44324e-41
5.11712e-45
1.29115e-39
4.9226e-43
5.60628e-38
2.27041e-41
1.58109e-36
6.83397e-40
3.26026e-35
1.51241e-38
5.24881e-34
2.63011e-37
6.88316e-33
3.75173e-36
7.57869e-32
4.52569e-35
7.1691e-31
4.72352e-34
5.93051e-30
4.34037e-33
4.34566e-29
3.55584e-32
2.84136e-28
2.61693e-31
1.65827e-27
1.73282e-30
8.56248e-27
1.02607e-29
3.82695e-26
5.34385e-29
1.41722e-25
2.36915e-28
3.96837e-25
8.4049e-28
6.54134e-25
2.10136e-27
-2.92237e-28
2.64252e-27
-3.83171e-28
-5.83279e-31
-6.15741e-27
4.66797e-30
-8.5024e-26
3.6966e-28
1.61577e-26
-4.33878e-25
2.32711e-44
1.00017e-48
2.18327e-42
1.13092e-46
1.00234e-40
6.17515e-45
3.02039e-39
2.225e-43
6.73637e-38
5.98026e-42
1.18936e-36
1.285e-40
1.73659e-35
2.30797e-39
2.16318e-34
3.57087e-38
2.35267e-33
4.85529e-37
2.27273e-32
5.87218e-36
1.9728e-31
6.35287e-35
1.54747e-30
6.1488e-34
1.09543e-29
5.29749e-33
6.92629e-29
4.01804e-32
3.82143e-28
2.63096e-31
1.75678e-27
1.43752e-30
6.10782e-27
6.16119e-30
1.23546e-26
1.82626e-29
-5.32401e-30
2.69451e-29
-7.0382e-30
-1.23128e-32
-1.21392e-28
4.81558e-32
-2.21351e-27
7.81905e-30
4.96325e-28
-1.34952e-26
4.9579e-48
1.44838e-53
5.50892e-46
2.61115e-51
3.02732e-44
2.25718e-49
1.10743e-42
1.27483e-47
3.04979e-41
5.29268e-46
6.77358e-40
1.72216e-44
1.26699e-38
4.57038e-43
2.05303e-37
1.01591e-41
2.93377e-36
1.92625e-40
3.7348e-35
3.15428e-39
4.25315e-34
4.49472e-38
4.32824e-33
5.59031e-37
3.91091e-32
6.05658e-36
3.0953e-31
5.66784e-35
2.09228e-30
4.50091e-34
1.15196e-29
2.93468e-33
4.68174e-29
1.47748e-32
1.0773e-28
5.06614e-32
-8.39271e-32
8.55239e-32
-1.12094e-31
-2.17323e-34
-2.09339e-30
1.69336e-34
-5.10551e-29
1.48201e-31
1.36328e-29
-3.4714e-28
1.04505e-52
4.03925e-59
1.83845e-50
8.86714e-57
1.58334e-48
9.31343e-55
8.94255e-47
6.38021e-53
3.72688e-45
3.20763e-51
1.22197e-43
1.2615e-49
3.28012e-42
4.03775e-48
7.40195e-41
1.07973e-46
1.42986e-39
2.45544e-45
2.39309e-38
4.80481e-44
3.49437e-37
8.14524e-43
4.46032e-36
1.19871e-41
4.95718e-35
1.52669e-40
4.73975e-34
1.66635e-39
3.80351e-33
1.52886e-38
2.44131e-32
1.13864e-37
1.13345e-31
6.4563e-37
2.90829e-31
2.44402e-36
-1.13903e-33
4.2799e-36
-1.54881e-33
-3.33214e-36
-3.16344e-32
-6.05243e-36
-1.0422e-30
2.53258e-33
3.36554e-31
-7.96984e-30
3.17438e-58
-9.62408e-71
6.78716e-56
-3.96151e-68
7.08933e-54
-7.91016e-66
4.84648e-52
-1.04949e-63
2.43975e-50
-1.04414e-61
9.63967e-49
-8.3263e-60
3.1096e-47
-5.55469e-58
8.40565e-46
-3.19453e-56
1.93751e-44
-1.61958e-54
3.85126e-43
-7.36562e-53
6.64121e-42
-3.04704e-51
9.94261e-41
-1.15964e-49
1.28532e-39
-4.09487e-48
1.41506e-38
-1.34954e-46
1.29125e-37
-4.17061e-45
9.27383e-37
-1.20858e-43
4.70259e-36
-3.24326e-42
1.22614e-35
-8.10167e-41
-1.35241e-35
-1.80993e-39
-1.89829e-35
-4.51588e-38
-4.2076e-34
-1.8334e-37
-1.8838e-32
3.90399e-35
7.51643e-33
-1.64874e-31
-9.62068e-71
-3.4014e-74
-3.96938e-68
-1.7463e-71
-7.94555e-66
-4.30613e-69
-1.05674e-63
-7.03189e-67
-1.05384e-61
-8.60184e-65
-8.42325e-60
-8.4314e-63
-5.63201e-58
-6.91409e-61
-3.24596e-56
-4.88895e-59
-1.64899e-54
-3.04877e-57
-7.51345e-53
-1.70639e-55
-3.11348e-51
-8.69301e-54
-1.17362e-49
-4.07221e-52
-4.38329e-48
-1.62487e-50