/*--------------------------------*- C++ -*----------------------------------*\
| =========                 |                                                 |
| \\      /  F ield         | OpenFOAM: The Open Source CFD Toolbox           |
|  \\    /   O peration     | Version:  2206                                  |
|   \\  /    A nd           | Website:  www.openfoam.com                      |
|    \\/     M anipulation  |                                                 |
\*---------------------------------------------------------------------------*/
FoamFile
{
    version     2.0;
    format      ascii;
    arch        "LSB;label=32;scalar=64";
    class       volScalarField;
    location    "0.2";
    object      p;
}
// * * * * * * * * * * * * * * * * * * * * * * * * * * * * * * * * * * * * * //

dimensions      [1 -1 -2 0 0 0 0];

internalField   nonuniform List<scalar> 
2268
(
2123.16
2130.96
2134.17
2133.41
2130.74
2127.89
2125.44
2123.54
2122.39
2122.37
2124.19
2129.12
2139.15
2157.2
2187.4
2235.73
2308.65
2409.98
2537.71
2673.05
2777.22
2809.93
2852.66
2062.92
2070.63
2073.76
2072.94
2070.27
2067.39
2064.88
2062.88
2061.58
2061.37
2062.94
2067.53
2077.13
2094.6
2123.88
2169.48
2236.5
2330.56
2452.86
2590.68
2706.84
2744.34
2810.04
2001.3
2008.83
2011.8
2010.87
2008.17
2005.23
2002.6
2000.4
1998.81
1998.2
1999.25
2003.18
2011.92
2028.24
2055.88
2099.31
2163.41
2251.41
2363.05
2489.37
2614.56
2697.02
2804.45
1938.32
1945.6
1948.32
1947.23
1944.46
1941.45
1938.63
1936.12
1934.08
1932.86
1933.13
1936.07
1943.51
1958.13
1983.51
2024.04
2084.23
2166.82
2271.17
2388.63
2514.38
2632.64
2776.88
1874.01
1880.99
1883.38
1882.06
1879.19
1876.05
1872.98
1870.04
1867.39
1865.35
1864.56
1866.14
1871.83
1884.16
1906.58
1943.33
1998.75
2075.44
2173.55
2286.06
2408.87
2535.08
2694.7
1808.41
1815.06
1817.04
1815.41
1812.41
1809.1
1805.67
1802.18
1798.74
1795.65
1793.51
1793.34
1796.77
1806.16
1824.8
1856.84
1906.59
1976.61
2067.67
2174.41
2290.1
2405.04
2538.82
1741.58
1747.87
1749.31
1747.32
1744.16
1740.61
1736.75
1732.56
1728.15
1723.79
1720.01
1717.73
1718.39
1724.15
1738.11
1764.32
1807.06
1869.07
1951.55
2049.38
2151.44
2240.22
2292.19
1673.61
1679.43
1680.2
1677.79
1674.45
1670.64
1666.25
1661.23
1655.7
1649.87
1644.2
1639.47
1636.93
1638.47
1646.93
1666.16
1700.37
1752.24
1823.85
1908.65
1989.12
2041.53
1928.45
5.23512
5.21027
5.16956
5.11692
5.05553
4.98898
4.9198
4.85026
4.78227
4.7174
4.65686
4.60158
4.55225
4.50938
4.47334
4.44431
4.42243
4.40784
4.40049
5.18288
5.15632
5.11408
5.06021
4.99784
4.93081
4.86103
4.79097
4.72255
4.65735
4.59655
4.54108
4.49163
4.44867
4.41256
4.38349
4.3616
4.34698
4.33964
5.13532
5.10674
5.06202
5.00618
4.9424
4.87343
4.80232
4.73122
4.66195
4.59608
4.53479
4.47894
4.42924
4.3861
4.34986
4.32072
4.29879
4.28415
4.2768
5.09375
5.06195
5.01327
4.95426
4.88774
4.81659
4.7436
4.67095
4.60043
4.53356
4.47152
4.41514
4.36505
4.32165
4.28523
4.25599
4.234
4.21932
4.21196
5.05859
5.022
4.9676
4.90433
4.83421
4.76019
4.68475
4.61006
4.53789
4.46972
4.40669
4.3496
4.299
4.25528
4.21865
4.18928
4.16722
4.1525
4.14513
5.03072
4.98695
4.92466
4.85614
4.78165
4.70409
4.62564
4.54844
4.47421
4.40444
4.34021
4.28225
4.23109
4.18698
4.1501
4.12059
4.09845
4.0837
4.07632
5.0083
4.9554
4.88377
4.80939
4.72981
4.64813
4.56613
4.48594
4.40929
4.33763
4.27199
4.21305
4.16121
4.11668
4.07955
4.04988
4.02767
4.01288
4.00549
4.99265
4.92828
4.8443
4.76361
4.67841
4.59214
4.50607
4.42243
4.34299
4.26917
4.20195
4.1419
4.08933
4.04435
4.00697
3.97717
3.95488
3.94006
3.93267
1565.55
1570.41
1570.17
1567.09
1563.31
1558.91
1553.47
1546.9
1539.28
1530.75
1521.58
1512.31
1503.81
1497.5
1495.68
1501.98
1520.66
1552.86
1603.41
1659.77
1688.49
1640.6
1106.84
1413.85
1417.39
1415.65
1411.47
1406.68
1400.82
1393.24
1383.72
1372.22
1358.64
1342.89
1324.92
1304.77
1282.44
1259.12
1238.81
1228.39
1230.92
1237.69
1249.64
1234.13
1157.2
842.772
1258.34
1260.33
1256.86
1251.42
1245.26
1237.4
1227
1213.74
1197.39
1177.49
1153.47
1124.38
1088.74
1044.1
989.361
926.468
864.428
803.283
761.254
702.602
660.592
653.196
596.404
1099.75
1100.06
1094.79
1087.95
1080.06
1069.64
1055.78
1038.05
1015.88
988.427
954.52
911.774
857.406
784.769
686.07
556.442
406.94
214.369
71.4784
47.9316
58.3229
98.4478
161.992
938.901
937.472
930.475
922.128
912.13
898.695
880.873
858.048
829.293
793.513
748.648
691.599
618.306
510.282
353.226
174.39
57.3486
9.80706
-2.85044
-4.50462
-2.2268
1.75386
10.5627
776.566
773.321
764.793
754.863
742.508
725.787
703.77
675.568
640.141
596.228
540.691
470.79
374.389
227.161
74.7239
12.2618
-2.39916
-4.85621
-5.62393
-6.04706
-6.04118
-6.15284
-4.64896
613.811
608.565
598.831
587.411
572.734
552.884
526.951
493.622
452.1
400.204
332.967
246.371
134.137
30.9308
1.14201
-3.6488
-5.19895
-5.79913
-6.11105
-6.38355
-6.68051
-6.95041
-6.78012
452.547
445.445
434.93
422.042
405.241
382.623
353.168
314.292
265.596
204.717
129.144
53.803
6.58865
-3.26985
-3.77291
-4.91685
-5.65248
-6.07767
-6.38803
-6.74341
-7.16222
-7.52661
-7.78691
293.02
283.999
273.125
258.228
239.015
213.542
181.425
138.294
91.177
46.533
10.5335
-4.02464
-4.45269
-4.02053
-4.20639
-5.28204
-6.00467
-6.39252
-6.67047
-7.01846
-7.47737
-7.94988
-8.5372
136.18
122.422
113.6
100.292
83.7252
63.9817
43.2985
18.711
4.44771
-4.20837
-4.58486
-4.45867
-4.47215
-4.38246
-4.46954
-5.78888
-6.45044
-6.69474
-6.8969
-7.2219
-7.69518
-8.2271
-8.94331
26.7765
14.4236
13.5493
10.0616
5.31949
0.444855
-3.32758
-3.89154
-4.25798
-4.42249
-4.63357
-4.76619
-4.83131
-4.78181
-4.85582
-6.2119
-6.84075
-6.91708
-7.04106
-7.32958
-7.77726
-8.30786
-8.94699
-3.28562
-3.30678
-3.37526
-3.44849
-3.54605
-3.67689
-3.78334
-3.97229
-4.2489
-4.54109
-4.85998
-5.16082
-5.3471
-5.32321
-5.41486
-6.43753
-7.00762
-7.01206
-7.08442
-7.33424
-7.73765
-8.24341
-8.68507
-3.48567
-3.49249
-3.51888
-3.57521
-3.65454
-3.76093
-3.89352
-4.08028
-4.3517
-4.71554
-5.16452
-5.6464
-6.02983
-6.04758
-6.0386
-6.60016
-7.05116
-6.98123
-7.05575
-7.26332
-7.61933
-8.07384
-8.40765
-3.61973
-3.62772
-3.65466
-3.70414
-3.77416
-3.86998
-4.00136
-4.19004
-4.48142
-4.90447
-5.49496
-6.20702
-6.75499
-6.75875
-6.58991
-6.84201
-7.04255
-6.9046
-6.96162
-7.12954
-7.41935
-7.79461
-8.16509
-3.74583
-3.76286
-3.7861
-3.82826
-3.89015
-3.97723
-4.10105
-4.2844
-4.58892
-5.05439
-5.74532
-6.61734
-7.2451
-7.13992
-6.92849
-7.03119
-6.93803
-6.79507
-6.82588
-6.95028
-7.16957
-7.47452
-7.83663
-3.86351
-3.8824
-3.90345
-3.94081
-3.9958
-4.07412
-4.1863
-4.35279
-4.63806
-5.09689
-5.78879
-6.64865
-7.23739
-7.22909
-7.10931
-6.95202
-6.74463
-6.62757
-6.64294
-6.72877
-6.87497
-7.08083
-7.36422
-3.97358
-3.99016
-4.00893
-4.04251
-4.09105
-4.15939
-4.25471
-4.39833
-4.64368
-5.03697
-5.60126
-6.25523
-6.71097
-6.88552
-6.88121
-6.69556
-6.49133
-6.41265
-6.42038
-6.47389
-6.55681
-6.66552
-6.81604
-4.07509
-4.08675
-4.10529
-4.13492
-4.17755
-4.23656
-4.31688
-4.43428
-4.62613
-4.92681
-5.32654
-5.76319
-6.1002
-6.29279
-6.34703
-6.2623
-6.17703
-6.16046
-6.17157
-6.19952
-6.23114
-6.2607
-6.28958
-4.16714
-4.17619
-4.19324
-4.21963
-4.2572
-4.30846
-4.37659
-4.47057
-4.61187
-4.82327
-5.09937
-5.39315
-5.63567
-5.78225
-5.83078
-5.85921
-5.879
-5.90144
-5.91608
-5.92353
-5.91501
-5.88459
-5.8244
-4.25168
-4.25937
-4.27462
-4.29816
-4.33145
-4.37639
-4.43518
-4.51238
-4.61816
-4.76404
-4.94786
-5.14327
-5.31666
-5.44612
-5.52913
-5.59129
-5.63878
-5.6667
-5.67578
-5.66454
-5.62592
-5.55396
-5.43882
-4.33047
-4.33716
-4.35072
-4.37167
-4.40115
-4.44063
-4.49183
-4.55735
-4.64165
-4.74911
-4.87814
-5.01687
-5.14718
-5.25481
-5.33789
-5.4022
-5.44577
-5.46537
-5.46317
-5.43525
-5.37532
-5.27738
-5.13297
-4.40482
-4.41068
-4.42268
-4.44124
-4.46717
-4.50156
-4.54572
-4.60123
-4.67016
-4.75393
-4.85053
-4.95259
-5.04965
-5.13367
-5.20238
-5.25496
-5.28747
-5.29716
-5.28295
-5.24176
-5.16802
-5.05634
-4.90034
-4.47586
-4.481
-4.49156
-4.50786
-4.53042
-4.56002
-4.59752
-4.6438
-4.69971
-4.76535
-4.8387
-4.91492
-4.98766
-5.05157
-5.10374
-5.14163
-5.16156
-5.16061
-5.13621
-5.08563
-5.00413
-4.88749
-4.73132
-4.54456
-4.54908
-4.55829
-4.5724
-4.59177
-4.61688
-4.64824
-4.68625
-4.73111
-4.78238
-4.83827
-4.89528
-4.94911
-4.99601
-5.03299
-5.05713
-5.06533
-5.05473
-5.02272
-4.96564
-4.88088
-4.76509
-4.61547
-4.61168
-4.6156
-4.62352
-4.63554
-4.6519
-4.67285
-4.69864
-4.72937
-4.76489
-4.80449
-4.84663
-4.88874
-4.92769
-4.96052
-4.98451
-4.99699
-4.99525
-4.97665
-4.93863
-4.87844
-4.79388
-4.68261
-4.54306
-4.67772
-4.68104
-4.68773
-4.6978
-4.71136
-4.72849
-4.74926
-4.7736
-4.80117
-4.83119
-4.86233
-4.89263
-4.91973
-4.94118
-4.9546
-4.95764
-4.94799
-4.92336
-4.88151
-4.82038
-4.73834
-4.63369
-4.50572
-4.74298
-4.74573
-4.75126
-4.75956
-4.77057
-4.78428
-4.80061
-4.81941
-4.84026
-4.86243
-4.88473
-4.9056
-4.9232
-4.93555
-4.9406
-4.93631
-4.92069
-4.89186
-4.84806
-4.78768
-4.70964
-4.61266
-4.49659
-4.80772
-4.80993
-4.81443
-4.82113
-4.82989
-4.8406
-4.85309
-4.86715
-4.88236
-4.89806
-4.91324
-4.92662
-4.9367
-4.94187
-4.94042
-4.93063
-4.91085
-4.87953
-4.83527
-4.7767
-4.70363
-4.61469
-4.51018
-4.87222
-4.87396
-4.87754
-4.88282
-4.88962
-4.89775
-4.90698
-4.91706
-4.9276
-4.93801
-4.94746
-4.95488
-4.95907
-4.95869
-4.95234
-4.93861
-4.91615
-4.88372
-4.84029
-4.78519
-4.7168
-4.63574
-4.54211
-4.93676
-4.9381
-4.94085
-4.94487
-4.94998
-4.95591
-4.96243
-4.96923
-4.97596
-4.98211
-4.987
-4.98976
-4.9894
-4.98483
-4.97492
-4.95852
-4.93454
-4.902
-4.86008
-4.80816
-4.74552
-4.67231
-4.58887
-5.00161
-5.0026
-5.0046
-5.00751
-5.01113
-5.0152
-5.01947
-5.02361
-5.0273
-5.0301
-5.03143
-5.03061
-5.02683
-5.01922
-5.00686
-4.98884
-4.96427
-4.93239
-4.89259
-4.84437
-4.78738
-4.72169
-4.64766
-5.06696
-5.06763
-5.06897
-5.07088
-5.07319
-5.07569
-5.07809
-5.08011
-5.08142
-5.08163
-5.08028
-5.0768
-5.07056
-5.06086
-5.04697
-5.02817
-5.00377
-4.97318
-4.93593
-4.89167
-4.84021
-4.78164
-4.71628
-5.13289
-5.13329
-5.13403
-5.13506
-5.13625
-5.13739
-5.13827
-5.1386
-5.13807
-5.13635
-5.13304
-5.1277
-5.1198
-5.10881
-5.09416
-5.07529
-5.05166
-5.02283
-4.98844
-4.94826
-4.90217
-4.85032
-4.79297
-5.19946
-5.19962
-5.19984
-5.20011
-5.20033
-5.20034
-5.19997
-5.19896
-5.19704
-5.19392
-5.18926
-5.18269
-5.17381
-5.16221
-5.14744
-5.12906
-5.10668
-5.07997
-5.04867
-5.01261
-4.97173
-4.92625
-4.8763
-5.26667
-5.26661
-5.2664
-5.26604
-5.26545
-5.26454
-5.26316
-5.26111
-5.25816
-5.25406
-5.24852
-5.24125
-5.23195
-5.22027
-5.20588
-5.18846
-5.16772
-5.1434
-5.11534
-5.08344
-5.04772
-5.00817
-4.9651
-5.33446
-5.33422
-5.33367
-5.33281
-5.33159
-5.32996
-5.3278
-5.32496
-5.32127
-5.31653
-5.31049
-5.30294
-5.29363
-5.28231
-5.26871
-5.25261
-5.23379
-5.21208
-5.18737
-5.1596
-5.12879
-5.09498
-5.05838
-5.40278
-5.4024
-5.40159
-5.40036
-5.39867
-5.3965
-5.39378
-5.3904
-5.38622
-5.38111
-5.37489
-5.36737
-5.35839
-5.34773
-5.33523
-5.32072
-5.30405
-5.2851
-5.2638
-5.24013
-5.21412
-5.1858
-5.15535
-5.47163
-5.47116
-5.47017
-5.46867
-5.46667
-5.46413
-5.46102
-5.45729
-5.45285
-5.4476
-5.44142
-5.43419
-5.42577
-5.41604
-5.40486
-5.39213
-5.37776
-5.36168
-5.34384
-5.32425
-5.30292
-5.27991
-5.25531
-5.54108
-5.54058
-5.53946
-5.53781
-5.5356
-5.53283
-5.52951
-5.52559
-5.52105
-5.51584
-5.50988
-5.5031
-5.49542
-5.48677
-5.47708
-5.46627
-5.45431
-5.44116
-5.4268
-5.41125
-5.39452
-5.37666
-5.3577
-5.61141
-5.6109
-5.60973
-5.608
-5.60568
-5.6028
-5.59937
-5.59539
-5.59088
-5.58581
-5.58018
-5.57395
-5.56711
-5.55963
-5.55149
-5.54267
-5.53316
-5.52296
-5.51207
-5.50052
-5.48834
-5.47551
-5.46203
-5.68219
-5.68174
-5.68058
-5.67883
-5.67649
-5.67359
-5.67016
-5.66624
-5.66185
-5.65704
-5.65184
-5.64626
-5.64035
-5.63411
-5.62758
-5.62079
-5.61376
-5.60652
-5.59909
-5.59151
-5.58381
-5.57597
-5.56789
-5.74939
-5.74921
-5.74814
-5.74646
-5.7442
-5.74142
-5.73818
-5.73452
-5.73052
-5.72625
-5.72177
-5.71717
-5.71251
-5.70786
-5.70329
-5.69886
-5.69462
-5.69062
-5.68689
-5.68348
-5.68042
-5.67767
-5.67496
-22.7288
3.57354
5.41275
5.02394
85.5614
6.89672
5.68961
4.96038
226.314
15.1792
5.4532
4.55834
103.902
-31.5265
-0.248086
3.88087
-8.53558
-77.681
-6.06376
4.19746
-5.88018
-92.1442
-39.7245
3.15362
-4.41665
-103.996
-69.0365
2.26808
-6.33864
-102.755
-75.8884
1.97202
-8.79847
-47.6467
-76.3874
-3.67115
-10.2807
-13.8812
-87.5127
-7.64222
-10.1257
-9.61634
-58.8009
-7.44366
-9.62974
-7.92568
-14.4219
-19.985
-9.18792
-8.96435
-7.65521
-23.8932
-8.76999
-10.5553
-9.62822
-13.6155
-8.39559
-10.1279
-11.0157
-10.0232
-7.80857
-8.65106
-9.58333
-6.66242
-7.02813
-7.29266
-7.23445
-4.21736
-6.29933
-6.12079
-5.29202
-2.94642
-5.68337
-5.26755
-4.266
-2.56315
-5.21449
-4.71773
-3.82451
-2.5838
-4.87556
-4.38085
-3.63482
-2.71356
-4.63942
-4.18369
-3.56703
-2.86035
-4.48248
-4.07755
-3.56785
-3.00995
-4.38602
-4.03215
-3.60847
-3.15756
-4.33554
-4.02846
-3.67346
-3.30195
-4.32013
-4.0542
-3.75433
-3.44364
-4.33169
-4.1013
-3.84616
-3.58342
-4.36423
-4.16438
-3.946
-3.72194
-4.41325
-4.23968
-4.0519
-3.8597
-4.47537
-4.3245
-4.16255
-3.99701
-4.54795
-4.41685
-4.27697
-4.13413
-4.62899
-4.51524
-4.39449
-4.27126
-4.71691
-4.61857
-4.5146
-4.40855
-4.81048
-4.72595
-4.63689
-4.54612
-4.90869
-4.83667
-4.76104
-4.68401
-5.01071
-4.95016
-4.88676
-4.82224
-5.11586
-5.06594
-5.01381
-4.9608
-5.22356
-5.18361
-5.14198
-5.09968
-5.33335
-5.30283
-5.27111
-5.23888
-5.44483
-5.42335
-5.40105
-5.37843
-5.55765
-5.54491
-5.53171
-5.51832
-5.67157
-5.66738
-5.66304
-5.65864
4.95676
4.87492
4.78087
4.69181
4.59828
4.50428
4.41106
4.32126
4.23688
4.1593
4.08938
4.02749
3.97374
3.92804
3.89027
3.86027
3.83791
3.82307
3.81567
4.86198
4.76998
4.68616
4.59225
4.48963
4.38278
4.27708
4.17661
4.08392
4.00034
3.92633
3.86185
3.80657
3.76008
3.72195
3.69187
3.66955
3.65479
3.64746
4.52936
4.61798
4.58738
4.4995
4.38398
4.2589
4.13601
4.0219
3.91943
3.8294
3.75147
3.68483
3.62855
3.58177
3.54374
3.51393
3.49193
3.47741
3.47023
4.27033
4.55264
4.54232
4.43662
4.28799
4.13098
3.9833
3.85218
3.73919
3.64328
3.56254
3.49496
3.4388
3.39267
3.35541
3.3264
3.30512
3.29107
3.28416
4.36014
4.68488
4.60697
4.42211
4.19992
3.98991
3.80904
3.65933
3.53731
3.43811
3.35718
3.2909
3.23657
3.19241
3.15701
3.12953
3.10937
3.0961
3.08955
5.13074
4.98511
4.81196
4.44616
4.09358
3.8107
3.59456
3.43121
3.30664
3.20996
3.13338
3.07179
3.02181
2.98128
2.94884
2.92362
2.90508
2.89291
2.88687
6.67626
6.01535
5.15278
4.42543
3.89429
3.54425
3.3121
3.15359
3.04067
2.95632
2.89069
2.83808
2.79515
2.76003
2.73167
2.70942
2.69294
2.68213
2.67676
7.42366
6.16905
5.00034
4.03085
3.44656
3.12256
2.93525
2.81768
2.73786
2.6786
2.63128
2.59189
2.55848
2.53023
2.5068
2.48801
2.47374
2.46462
2.46
5.02185
4.25522
3.65119
2.94
2.63345
2.51752
2.46515
2.43192
2.40764
2.38471
2.36124
2.33768
2.31498
2.29415
2.27593
2.26091
2.24958
2.24145
2.23741
0.801659
1.27861
1.09281
1.26514
1.56297
1.80748
1.95108
2.03296
2.07407
2.08981
2.09004
2.08143
2.06845
2.05433
2.04089
2.02901
2.01949
2.01284
2.00944
-2.90534
-1.51376
-1.50577
-0.439279
0.542282
1.16328
1.49709
1.67529
1.76758
1.81127
1.82771
1.82913
1.8223
1.81354
1.80311
1.79333
1.78531
1.77968
1.77678
-3.54746
-1.63862
-2.6702
-1.47988
-0.087324
0.788925
1.20544
1.4085
1.51202
1.56129
1.58079
1.58497
1.58151
1.57271
1.56332
1.55461
1.54747
1.54244
1.53986
-1.5732
0.562706
-1.78821
-1.14374
0.0368163
0.786361
1.10531
1.2432
1.30968
1.33972
1.34893
1.34715
1.34015
1.33082
1.32134
1.31287
1.30606
1.30133
1.29892
-3.7002
1.66074
0.0958409
0.307669
0.767423
1.02195
1.10976
1.13241
1.13707
1.13214
1.12262
1.11094
1.09874
1.08702
1.07655
1.06777
1.06098
1.05637
1.05405
-1.03956
2.97388
1.87387
1.44843
1.28081
1.14884
1.05739
0.99391
0.949555
0.916722
0.891159
0.870503
0.853471
0.83937
0.827854
0.818747
0.811968
0.807481
0.805257
-0.128177
1.51019
1.84392
1.49704
1.22397
1.0215
0.884274
0.790985
0.726027
0.679839
0.646075
0.620714
0.601238
0.586082
0.574304
0.56534
0.558856
0.554653
0.552596
0.0625127
1.18122
1.20219
1.03009
0.867292
0.721241
0.607971
0.523885
0.462239
0.417141
0.383928
0.359172
0.340483
0.326256
0.315453
0.307408
0.301695
0.298045
0.296277
-0.565837
0.236638
0.438703
0.4468
0.398553
0.330406
0.264895
0.209659
0.165698
0.131772
0.105943
0.0863348
0.0714275
0.0600989
0.0515618
0.0452739
0.0408611
0.0380712
0.0367319
-1.16876
-0.559584
-0.271332
-0.142138
-0.09748
-0.095229
-0.110712
-0.131494
-0.151816
-0.169442
-0.183881
-0.195364
-0.20434
-0.21125
-0.216467
-0.220285
-0.222939
-0.224596
-0.225382
-1.65134
-1.16315
-0.858689
-0.676323
-0.573075
-0.518897
-0.492821
-0.481885
-0.478594
-0.478841
-0.4805
-0.482529
-0.484446
-0.486049
-0.487281
-0.488161
-0.488742
-0.489077
-0.489219
-2.03354
-1.62957
-1.34023
-1.1407
-1.00774
-0.920872
-0.864853
-0.828724
-0.805199
-0.789602
-0.779007
-0.7716
-0.766259
-0.762298
-0.759308
-0.757061
-0.755434
-0.754362
-0.75382
-2.33848
-2.00269
-1.74034
-1.54264
-1.39764
-1.29338
-1.21824
-1.16418
-1.12508
-1.09648
-1.0753
-1.05939
-1.04729
-1.03803
-1.03096
-1.02566
-1.02186
-1.0194
-1.01818
-2.59328
-2.31217
-2.07944
-1.89302
-1.74721
-1.63492
-1.54981
-1.48427
-1.43427
-1.39591
-1.36631
-1.34334
-1.32544
-1.31152
-1.30079
-1.29271
-1.28693
-1.28318
-1.28133
-2.81596
-2.57834
-2.37359
-2.20229
-2.06208
-1.94909
-1.85903
-1.78745
-1.7308
-1.68576
-1.65001
-1.62162
-1.59911
-1.58137
-1.56758
-1.55715
-1.54965
-1.54479
-1.54239
-3.01683
-2.81426
-2.63465
-2.47948
-2.34814
-2.23861
-2.14829
-2.07431
-2.014
-1.96499
-1.92524
-1.89305
-1.86718
-1.84655
-1.83039
-1.8181
-1.80922
-1.80346
-1.8006
-3.20258
-3.02868
-2.87123
-2.73186
-2.61081
-2.50719
-2.41948
-2.34586
-2.28447
-2.23355
-2.19151
-2.157
-2.12901
-2.10639
-2.08853
-2.0749
-2.065
-2.05856
-2.05535
-3.37773
-3.2276
-3.0895
-2.96498
-2.85461
-2.75816
-2.67481
-2.60347
-2.54289
-2.4918
-2.44901
-2.41345
-2.38421
-2.36046
-2.34155
-2.32715
-2.31654
-2.30965
-2.30617
-3.54526
-3.41512
-3.29391
-3.18302
-3.08316
-2.99444
-2.9165
-2.84872
-2.7903
-2.74036
-2.69801
-2.66244
-2.6329
-2.60873
-2.58939
-2.57447
-2.56354
-2.5564
-2.55276
-3.70722
-3.59408
-3.48767
-3.38919
-3.29939
-3.21855
-3.14659
-3.0832
-3.02789
-2.98005
-2.93905
-2.90429
-2.87518
-2.85119
-2.83188
-2.81688
-2.80588
-2.79866
-2.79499
-3.86504
-3.76654
-3.67319
-3.586
-3.5057
-3.43264
-3.36692
-3.3084
-3.2568
-3.21173
-3.17276
-3.13943
-3.11132
-3.08801
-3.06913
-3.0544
-3.04355
-3.03642
-3.03281
-4.01979
-3.93406
-3.85231
-3.77542
-3.70403
-3.63851
-3.57905
-3.52564
-3.47812
-3.43627
-3.3998
-3.36838
-3.3417
-3.31945
-3.30134
-3.28714
-3.27666
-3.26975
-3.26628
-4.17231
-4.09784
-4.0265
-3.959
-3.89593
-3.83763
-3.78433
-3.73608
-3.69285
-3.65449
-3.62083
-3.59166
-3.56674
-3.54585
-3.52877
-3.51533
-3.50539
-3.49883
-3.49555
-4.3232
-4.25879
-4.19684
-4.13795
-4.08263
-4.03119
-3.98386
-3.94074
-3.90186
-3.86715
-3.83652
-3.80982
-3.7869
-3.7676
-3.75177
-3.73927
-3.73001
-3.72389
-3.72084
-4.47293
-4.41758
-4.36417
-4.3132
-4.26509
-4.22014
-4.17856
-4.14047
-4.10595
-4.07497
-4.04749
-4.02342
-4.00268
-3.98514
-3.97071
-3.9593
-3.95083
-3.94523
-3.94246
-4.62182
-4.5747
-4.52911
-4.48546
-4.44409
-4.40527
-4.36921
-4.33603
-4.30582
-4.27859
-4.25433
-4.23301
-4.21456
-4.19892
-4.18602
-4.1758
-4.1682
-4.16318
-4.16071
-4.7701
-4.73053
-4.69215
-4.65529
-4.62026
-4.58727
-4.5565
-4.52809
-4.50212
-4.47863
-4.45764
-4.43912
-4.42306
-4.40941
-4.39813
-4.38918
-4.38252
-4.37811
-4.37596
-4.91792
-4.88534
-4.85368
-4.8232
-4.79414
-4.7667
-4.74104
-4.71727
-4.69547
-4.67569
-4.65797
-4.6423
-4.62868
-4.61708
-4.60748
-4.59985
-4.59417
-4.59042
-4.5886
-5.06544
-5.0394
-5.01404
-4.98959
-4.96622
-4.94411
-4.92337
-4.90411
-4.88641
-4.87032
-4.85587
-4.84306
-4.83191
-4.8224
-4.81452
-4.80825
-4.80358
-4.80049
-4.79901
-5.21279
-5.19292
-5.17355
-5.15484
-5.13693
-5.11995
-5.10399
-5.08914
-5.07547
-5.06303
-5.05182
-5.04189
-5.03322
-5.02581
-5.01967
-5.01479
-5.01114
-5.00873
-5.0076
-5.3601
-5.34613
-5.33249
-5.31931
-5.30667
-5.29466
-5.28336
-5.27284
-5.26314
-5.25429
-5.24632
-5.23924
-5.23306
-5.22777
-5.22338
-5.21989
-5.21728
-5.21556
-5.21476
-5.50747
-5.49919
-5.49111
-5.48328
-5.47577
-5.46863
-5.46191
-5.45564
-5.44985
-5.44457
-5.4398
-5.43556
-5.43186
-5.42869
-5.42606
-5.42397
-5.4224
-5.42136
-5.42091
-5.65508
-5.65236
-5.6497
-5.64712
-5.64464
-5.64228
-5.64006
-5.63799
-5.63607
-5.63432
-5.63274
-5.63133
-5.6301
-5.62905
-5.62817
-5.62747
-5.62696
-5.62661
-5.62646
)
;

boundaryField
{
    leftWall
    {
        type            calculated;
        value           nonuniform List<scalar> 
50
(
2123.16
2062.92
2001.3
1938.32
1874.01
1808.41
1741.58
1673.61
1565.55
1413.85
1258.34
1099.75
938.901
776.566
613.811
452.547
293.02
136.18
26.7765
-3.28562
-3.48567
-3.61973
-3.74583
-3.86351
-3.97358
-4.07509
-4.16714
-4.25168
-4.33047
-4.40482
-4.47586
-4.54456
-4.61168
-4.67772
-4.74298
-4.80772
-4.87222
-4.93676
-5.00161
-5.06696
-5.13289
-5.19946
-5.26667
-5.33446
-5.40278
-5.47163
-5.54108
-5.61141
-5.68219
-5.74939
)
;
    }
    rightWall
    {
        type            calculated;
        value           nonuniform List<scalar> 
50
(
4.40049
4.33964
4.2768
4.21196
4.14513
4.07632
4.00549
3.93267
3.81567
3.64746
3.47023
3.28416
3.08955
2.88687
2.67676
2.46
2.23741
2.00944
1.77678
1.53986
1.29892
1.05405
0.805257
0.552596
0.296277
0.0367319
-0.225382
-0.489219
-0.75382
-1.01818
-1.28133
-1.54239
-1.8006
-2.05535
-2.30617
-2.55276
-2.79499
-3.03281
-3.26628
-3.49555
-3.72084
-3.94246
-4.16071
-4.37596
-4.5886
-4.79901
-5.0076
-5.21476
-5.42091
-5.62646
)
;
    }
    lowerWall
    {
        type            calculated;
        value           nonuniform List<scalar> 
62
(
2152.59
2160.39
2163.6
2162.84
2160.17
2157.32
2154.87
2152.97
2151.82
2151.8
2153.62
2158.55
2168.58
2186.63
2216.83
2265.16
2338.08
2439.41
2567.14
2702.48
2806.65
2835.38
2874.42
2852.66
2810.04
2804.45
2776.88
2694.7
2538.82
2292.19
1928.45
6.91074
3.63614
5.47535
5.08654
5.23512
5.18288
5.13532
5.09375
5.05859
5.03072
5.0083
4.99265
5.26455
5.2397
5.19899
5.14635
5.08496
5.01841
4.94923
4.87969
4.8117
4.74683
4.68629
4.63101
4.58168
4.53881
4.50277
4.47373
4.45186
4.43727
4.42992
)
;
    }
    atmosphere
    {
        type            calculated;
        value           nonuniform List<scalar> 
46
(
-5.77968
-5.77994
-5.77888
-5.77727
-5.77513
-5.77251
-5.76948
-5.76611
-5.76248
-5.75868
-5.75479
-5.75091
-5.74714
-5.74356
-5.74025
-5.73727
-5.73469
-5.73255
-5.73089
-5.72974
-5.72914
-5.72904
-5.72904
-5.72904
-5.72904
-5.72904
-5.72904
-5.72904
-5.72904
-5.72904
-5.72904
-5.72904
-5.72904
-5.72904
-5.72904
-5.72904
-5.72904
-5.72904
-5.72904
-5.72904
-5.72904
-5.72904
-5.72904
-5.72904
-5.72904
-5.72904
)
;
    }
    defaultFaces
    {
        type            empty;
    }
}


// ************************************************************************* //
