/*--------------------------------*- C++ -*----------------------------------*\
| =========                 |                                                 |
| \\      /  F ield         | OpenFOAM: The Open Source CFD Toolbox           |
|  \\    /   O peration     | Version:  2206                                  |
|   \\  /    A nd           | Website:  www.openfoam.com                      |
|    \\/     M anipulation  |                                                 |
\*---------------------------------------------------------------------------*/
FoamFile
{
    version     2.0;
    format      ascii;
    arch        "LSB;label=32;scalar=64";
    class       volScalarField;
    location    "0.2";
    object      p_rgh;
}
// * * * * * * * * * * * * * * * * * * * * * * * * * * * * * * * * * * * * * //

dimensions      [1 -1 -2 0 0 0 0];

internalField   nonuniform List<scalar> 
2268
(
2152.59
2160.39
2163.6
2162.84
2160.17
2157.32
2154.87
2152.97
2151.82
2151.8
2153.62
2158.55
2168.58
2186.63
2216.83
2265.16
2338.08
2439.41
2567.14
2702.48
2806.65
2835.38
2874.42
2151.21
2158.91
2162.05
2161.23
2158.55
2155.68
2153.17
2151.17
2149.87
2149.66
2151.22
2155.82
2165.42
2182.89
2212.17
2257.77
2324.79
2418.85
2541.15
2678.97
2795.13
2832.23
2884.05
2148.45
2155.97
2158.94
2158.02
2155.31
2152.38
2149.75
2147.55
2145.96
2145.34
2146.39
2150.33
2159.07
2175.39
2203.03
2246.46
2310.55
2398.56
2510.2
2636.52
2761.71
2844.17
2933.74
2144.33
2151.6
2154.33
2153.23
2150.47
2147.45
2144.63
2142.13
2140.09
2138.87
2139.14
2142.07
2149.51
2164.13
2189.52
2230.04
2290.24
2372.82
2477.18
2594.64
2720.39
2838.65
2964.91
2138.88
2145.85
2148.25
2146.92
2144.06
2140.92
2137.84
2134.91
2132.26
2130.22
2129.43
2131.01
2136.69
2149.02
2171.44
2208.19
2263.62
2340.31
2438.41
2550.92
2673.73
2799.95
2947.33
2132.13
2138.78
2140.76
2139.13
2136.14
2132.82
2129.39
2125.9
2122.46
2119.37
2117.23
2117.07
2120.5
2129.88
2148.52
2180.56
2230.31
2300.33
2391.39
2498.13
2613.82
2728.77
2856.02
2124.16
2130.45
2131.89
2129.9
2126.74
2123.2
2119.33
2115.14
2110.73
2106.37
2102.59
2100.31
2100.97
2106.73
2120.69
2146.9
2189.64
2251.65
2334.13
2431.96
2534.02
2622.8
2662.69
2115.05
2120.87
2121.64
2119.23
2115.89
2112.09
2107.69
2102.67
2097.14
2091.31
2085.64
2080.91
2078.37
2079.91
2088.37
2107.6
2141.81
2193.68
2265.3
2350.09
2430.56
2482.97
2356.27
5.26455
5.2397
5.19899
5.14635
5.08496
5.01841
4.94923
4.87969
4.8117
4.74683
4.68629
4.63101
4.58168
4.53881
4.50277
4.47373
4.45186
4.43727
4.42992
5.27116
5.24461
5.20237
5.1485
5.08613
5.0191
4.94931
4.87925
4.81084
4.74563
4.68484
4.62937
4.57992
4.53696
4.50085
4.47178
4.44989
4.43527
4.42793
5.28247
5.25389
5.20917
5.15333
5.08955
5.02058
4.94947
4.87836
4.8091
4.74323
4.68194
4.62609
4.57638
4.53325
4.49701
4.46787
4.44594
4.43129
4.42395
5.29976
5.26795
5.21927
5.16026
5.09374
5.02259
4.9496
4.87695
4.80644
4.73957
4.67753
4.62114
4.57105
4.52765
4.49123
4.46199
4.44001
4.42532
4.41797
5.32346
5.28687
5.23247
5.16919
5.09907
5.02505
4.94961
4.87492
4.80275
4.73458
4.67156
4.61446
4.56387
4.52014
4.48352
4.45415
4.43208
4.41737
4.41
5.35444
5.31067
5.24838
5.17986
5.10537
5.02781
4.94937
4.87216
4.79794
4.72817
4.66393
4.60598
4.55481
4.5107
4.47383
4.44431
4.42217
4.40742
4.40004
5.39088
5.33798
5.26635
5.19197
5.11239
5.03071
4.94871
4.86852
4.79187
4.72021
4.65458
4.59563
4.54379
4.49926
4.46213
4.43247
4.41025
4.39546
4.38808
5.43409
5.36972
5.28574
5.20505
5.11985
5.03358
4.94751
4.86387
4.78443
4.71061
4.64339
4.58334
4.53077
4.48579
4.44841
4.41861
4.39632
4.3815
4.37411
2099.01
2103.88
2103.64
2100.56
2096.78
2092.38
2086.94
2080.37
2072.75
2064.21
2055.05
2045.78
2037.28
2030.97
2029.15
2035.44
2054.13
2086.33
2136.88
2193.24
2221.95
2174.06
1640.3
2072.52
2076.05
2074.32
2070.13
2065.34
2059.48
2051.9
2042.38
2030.88
2017.3
2001.55
1983.59
1963.43
1941.1
1917.78
1897.47
1887.06
1889.58
1896.35
1908.3
1892.8
1815.86
1501.43
2042.19
2044.19
2040.72
2035.27
2029.12
2021.26
2010.86
1997.6
1981.25
1961.34
1937.33
1908.24
1872.59
1827.95
1773.19
1710.26
1648.19
1587.06
1542.06
1486.45
1444.44
1437.05
1380.11
2008.8
2009.11
2003.84
1997
1989.11
1978.69
1964.83
1947.1
1924.93
1897.48
1863.57
1820.82
1766.42
1693.71
1594.72
1464.34
1307.88
1046.9
784.184
556.861
462.475
582.977
967.723
1973.15
1971.72
1964.72
1956.37
1946.38
1932.94
1915.12
1892.29
1863.53
1827.75
1782.86
1725.75
1652.18
1543.2
1382.93
1062.28
659.191
119.747
-0.849241
0.338277
2.19797
15.0284
99.1391
1936
1932.76
1924.23
1914.3
1901.94
1885.22
1863.2
1834.98
1799.53
1755.54
1699.81
1629.26
1530.57
1350.42
825.268
112.088
0.0407005
-3.50077
-4.43138
-4.87888
-4.73205
-3.9773
-0.264372
1898.44
1893.17
1883.44
1872.01
1857.32
1837.45
1811.47
1778.04
1736.27
1683.78
1614.98
1523.36
1265.11
528.793
6.13895
-1.55618
-3.72389
-4.48077
-4.82313
-5.09748
-5.39168
-5.54981
-5.09108
1862.3
1854.99
1844.5
1831.58
1814.66
1791.83
1761.99
1722.34
1671.7
1602.81
1419.08
949.366
240.905
-0.972211
-1.48124
-3.29411
-4.20116
-4.66068
-4.97682
-5.33298
-5.75223
-6.11148
-6.32886
1827.27
1816.76
1806.04
1790.77
1770.61
1743.44
1703.85
1603.8
1376.69
949.266
402.137
0.364056
-2.78949
-2.40961
-1.81784
-2.88719
-4.31097
-4.84541
-5.1348
-5.48322
-5.94216
-6.41464
-6.99655
1770.57
1662.07
1650.5
1585.42
1464.55
1273.53
989.675
594.072
247.281
-2.50815
-2.9159
-2.77217
-2.77538
-2.68212
1.26194
3.99531
-2.87566
-5.02211
-5.23557
-5.56148
-6.0348
-6.56666
-7.28228
851.289
509.757
492.501
390.928
255.383
120.611
4.37957
-2.10613
-2.47261
-2.63712
-2.84057
-2.96283
-3.01763
-2.95672
4.94067
4.34109
-1.25507
-5.11843
-5.25479
-5.54401
-5.99169
-6.51421
-7.15445
-1.37501
-1.39617
-1.46465
-1.53789
-1.63545
-1.76628
-1.87273
-2.06168
-2.33829
-2.63048
-2.94922
-3.24212
-3.40506
-3.36678
2.82351
4.86448
-0.85061
-5.09544
-5.17356
-5.4235
-5.82691
-6.33108
-6.63211
-1.44987
-1.45669
-1.48308
-1.5394
-1.61874
-1.72513
-1.85771
-2.04448
-2.3159
-2.67971
-3.12782
-3.33109
-3.88846
-3.95448
-0.711754
5.35748
-1.83456
-4.94511
-5.01984
-5.22739
-5.58338
-6.03778
-6.2286
-1.45873
-1.46673
-1.49366
-1.54315
-1.61316
-1.70899
-1.84036
-2.02904
-2.32042
-2.74335
-3.22583
-2.39414
-3.17583
-4.49873
-2.65828
5.45431
-3.67721
-4.74349
-4.80051
-4.96842
-5.25814
-5.63257
-5.93146
-1.45964
-1.47667
-1.49991
-1.54207
-1.60396
-1.69104
-1.81486
-1.99818
-2.30272
-2.76764
-2.01034
-2.54076
-3.16971
-4.61138
-3.09272
-0.424995
-4.65127
-4.50881
-4.53959
-4.66398
-4.88309
-5.18609
-5.54
-1.45213
-1.47101
-1.49207
-1.52943
-1.58441
-1.66274
-1.77491
-1.94133
-2.22567
-2.6148
-1.54534
-2.36136
-2.93883
-4.12304
-1.84117
-1.63445
-4.33319
-4.21617
-4.2315
-4.31728
-4.46318
-4.66659
-4.93673
-1.437
-1.45358
-1.47235
-1.50593
-1.55447
-1.62281
-1.71813
-1.86175
-2.10699
-2.49943
-2.6799
-2.07703
-2.48695
-3.26966
-4.18932
-4.13234
-3.95473
-3.87607
-3.88378
-3.93725
-4.01994
-4.12716
-4.27001
-1.41332
-1.42497
-1.44351
-1.47315
-1.51578
-1.57479
-1.65511
-1.77251
-1.96435
-2.26503
-2.66472
-3.10122
-3.438
-3.63032
-3.68472
-3.60047
-3.51526
-3.49868
-3.50979
-3.53772
-3.56925
-3.59825
-3.62457
-1.38017
-1.38923
-1.40628
-1.43266
-1.47024
-1.52149
-1.58962
-1.6836
-1.8249
-2.0363
-2.31239
-2.60612
-2.84828
-2.99433
-3.0437
-3.07223
-3.09204
-3.11447
-3.12911
-3.13656
-3.12801
-3.09745
-3.03664
-1.33952
-1.34721
-1.36246
-1.38599
-1.41929
-1.46423
-1.52302
-1.60022
-1.706
-1.85187
-2.03569
-2.2299
-2.40263
-2.53246
-2.61697
-2.67913
-2.72661
-2.75454
-2.76362
-2.75237
-2.71375
-2.64177
-2.52653
-1.29312
-1.2998
-1.31336
-1.33432
-1.36379
-1.40327
-1.45447
-1.51999
-1.60429
-1.71175
-1.84078
-1.97951
-2.10982
-2.21745
-2.30053
-2.36484
-2.40841
-2.42802
-2.42581
-2.39789
-2.33796
-2.24002
-2.09559
-1.24227
-1.24812
-1.26012
-1.27869
-1.30461
-1.33901
-1.38317
-1.43868
-1.50761
-1.59137
-1.68797
-1.79004
-1.88709
-1.97111
-2.03982
-2.09241
-2.12492
-2.13461
-2.1204
-2.07921
-2.00547
-1.89379
-1.73779
-1.18811
-1.19326
-1.20382
-1.22011
-1.24267
-1.27228
-1.30977
-1.35605
-1.41197
-1.4776
-1.55095
-1.62718
-1.69991
-1.76383
-1.816
-1.85388
-1.87382
-1.87286
-1.84846
-1.79789
-1.71638
-1.59974
-1.44357
-1.13162
-1.13614
-1.14534
-1.15946
-1.17883
-1.20394
-1.2353
-1.27331
-1.31817
-1.36943
-1.42533
-1.48234
-1.53617
-1.58307
-1.62005
-1.64419
-1.65239
-1.64179
-1.60978
-1.5527
-1.46793
-1.35215
-1.20253
-1.07355
-1.07747
-1.08538
-1.09741
-1.11377
-1.13472
-1.1605
-1.19123
-1.22675
-1.26636
-1.3085
-1.3506
-1.38956
-1.42239
-1.44637
-1.45885
-1.45712
-1.43851
-1.4005
-1.34031
-1.25574
-1.14447
-1.00493
-1.01439
-1.01771
-1.0244
-1.03447
-1.04803
-1.06516
-1.08593
-1.11027
-1.13784
-1.16786
-1.199
-1.2293
-1.2564
-1.27785
-1.29127
-1.29431
-1.28466
-1.26002
-1.21818
-1.15705
-1.07501
-0.970357
-0.842389
-0.954457
-0.9572
-0.96274
-0.971031
-0.982043
-0.995753
-1.01208
-1.03088
-1.05173
-1.0739
-1.0962
-1.11708
-1.13468
-1.14703
-1.15208
-1.14778
-1.13217
-1.10334
-1.05954
-0.999154
-0.92112
-0.824134
-0.708065
-0.894
-0.896212
-0.900714
-0.907408
-0.916174
-0.92688
-0.939373
-0.953434
-0.968644
-0.984342
-0.999522
-1.0129
-1.02298
-1.02815
-1.0267
-1.01691
-0.997127
-0.965811
-0.921546
-0.862983
-0.789911
-0.700971
-0.596463
-0.833304
-0.835047
-0.838622
-0.843902
-0.850708
-0.858832
-0.868069
-0.878151
-0.888685
-0.899094
-0.908543
-0.915967
-0.920159
-0.919777
-0.913423
-0.899694
-0.877235
-0.844808
-0.801375
-0.74628
-0.677881
-0.596821
-0.503201
-0.772654
-0.773993
-0.776738
-0.780765
-0.785867
-0.791799
-0.798318
-0.805122
-0.81185
-0.818003
-0.822893
-0.825652
-0.82529
-0.820724
-0.810814
-0.794411
-0.770429
-0.737892
-0.695975
-0.644051
-0.58141
-0.508203
-0.424759
-0.712308
-0.713296
-0.715298
-0.718207
-0.721824
-0.725897
-0.730163
-0.734311
-0.738
-0.740794
-0.74213
-0.74131
-0.737529
-0.729915
-0.717559
-0.699534
-0.674964
-0.643087
-0.603284
-0.555072
-0.498077
-0.432386
-0.358355
-0.652459
-0.653134
-0.654469
-0.656379
-0.658697
-0.661188
-0.663595
-0.665614
-0.666921
-0.667134
-0.665782
-0.662306
-0.656062
-0.646358
-0.632473
-0.613672
-0.589273
-0.558684
-0.521434
-0.477171
-0.42571
-0.367139
-0.301781
-0.593201
-0.593598
-0.594337
-0.595369
-0.596554
-0.597701
-0.598578
-0.598905
-0.598378
-0.596659
-0.593352
-0.588004
-0.580107
-0.569117
-0.55447
-0.535598
-0.51197
-0.48314
-0.448752
-0.408564
-0.36248
-0.310632
-0.253274
-0.534576
-0.534729
-0.534951
-0.535224
-0.535439
-0.535456
-0.535082
-0.534072
-0.532154
-0.529033
-0.524371
-0.517803
-0.508927
-0.497322
-0.482549
-0.464174
-0.441798
-0.415085
-0.38378
-0.34772
-0.306848
-0.261361
-0.211409
-0.476591
-0.476529
-0.476321
-0.47596
-0.475371
-0.474462
-0.473082
-0.471029
-0.468078
-0.463974
-0.458438
-0.451173
-0.441866
-0.430188
-0.415801
-0.398383
-0.377637
-0.353321
-0.32526
-0.293363
-0.257643
-0.218088
-0.175016
-0.419188
-0.418947
-0.418398
-0.417536
-0.416315
-0.414682
-0.412522
-0.409687
-0.405999
-0.40125
-0.395218
-0.387668
-0.378357
-0.36703
-0.353434
-0.337332
-0.318512
-0.296803
-0.27209
-0.244321
-0.213515
-0.179701
-0.143109
-0.362306
-0.36193
-0.361122
-0.359888
-0.358203
-0.356034
-0.353308
-0.349925
-0.345755
-0.340641
-0.334416
-0.326903
-0.317916
-0.307265
-0.294764
-0.280249
-0.263575
-0.244626
-0.22333
-0.199662
-0.173645
-0.145333
-0.114878
-0.305962
-0.305497
-0.304501
-0.30301
-0.301002
-0.298465
-0.295359
-0.291629
-0.28719
-0.281938
-0.275758
-0.268526
-0.260109
-0.250375
-0.239198
-0.22647
-0.2121
-0.196017
-0.178179
-0.158584
-0.137255
-0.114244
-0.0896467
-0.250226
-0.249718
-0.248602
-0.246949
-0.244738
-0.241974
-0.238646
-0.234734
-0.230196
-0.224977
-0.219017
-0.212239
-0.204566
-0.195915
-0.186218
-0.175413
-0.163453
-0.150302
-0.135944
-0.12039
-0.103666
-0.0858012
-0.0668428
-0.195358
-0.19485
-0.193678
-0.191944
-0.189626
-0.186745
-0.183313
-0.17934
-0.174824
-0.169756
-0.164122
-0.157899
-0.151059
-0.143578
-0.135435
-0.126615
-0.117107
-0.106906
-0.0960197
-0.0844711
-0.0722821
-0.0594567
-0.0459813
-0.140937
-0.140489
-0.139332
-0.137587
-0.135244
-0.132341
-0.128911
-0.124988
-0.120605
-0.115796
-0.110591
-0.105016
-0.099097
-0.0928613
-0.0863357
-0.0795458
-0.0725165
-0.0652726
-0.0578421
-0.0502629
-0.0425635
-0.0347262
-0.0266431
-0.08295
-0.0827658
-0.0816949
-0.0800139
-0.0777569
-0.0749788
-0.0717328
-0.0680783
-0.0640796
-0.0598062
-0.0553308
-0.0507262
-0.0460651
-0.0414178
-0.03685
-0.0324206
-0.0281815
-0.024177
-0.0204466
-0.0170345
-0.0139811
-0.0112258
-0.00852034
229.866
4.10701
5.94622
5.55741
671.696
75.0077
6.34827
5.61906
1009.68
298.839
7.12708
5.34238
994.005
785.209
142.233
4.79304
781.8
803.401
287.888
11.4429
543.766
802.659
616.408
61.3999
141.443
791.016
729.649
116.209
6.11268
737.534
658.862
105.154
-7.21094
758.631
467.541
30.0195
-8.61381
703.298
605.413
34.7258
-8.33267
494.975
667.442
206.207
-7.64382
24.4157
742.37
673.354
-6.20595
-5.74918
593.612
619.72
-5.21089
-6.9874
117.444
406.063
-5.80905
-3.07485
-2.68122
104.625
-5.10451
-2.61597
-2.60744
10.0366
-4.39117
-3.78646
-1.87414
3.07278
-3.61714
-3.33411
-1.79301
0.942244
-2.89266
-2.45367
-1.32162
0.483707
-2.30166
-1.80102
-0.894171
0.37418
-1.8381
-1.3429
-0.595171
0.330649
-1.47686
-1.02106
-0.404171
0.303084
-1.19473
-0.789791
-0.280066
0.277898
-0.973079
-0.619205
-0.195528
0.255392
-0.797409
-0.490325
-0.135324
0.236184
-0.656803
-0.390866
-0.0909949
0.219686
-0.543166
-0.312778
-0.0576356
0.205106
-0.450506
-0.250662
-0.0322767
0.191775
-0.374339
-0.200764
-0.0129901
0.179215
-0.311257
-0.160387
0.00156187
0.167097
-0.258647
-0.127542
0.0123327
0.155173
-0.214492
-0.100747
0.0200081
0.143239
-0.177222
-0.0788776
0.0250963
0.131137
-0.145597
-0.061059
0.0279967
0.118765
-0.118611
-0.0465871
0.0290414
0.106069
-0.0954355
-0.0348833
0.0285148
0.0930358
-0.0753879
-0.0254676
0.026661
0.0796725
-0.0578992
-0.0179413
0.023685
0.0659868
-0.0424942
-0.0119735
0.0197541
0.051977
-0.0287753
-0.00729212
0.0149993
0.0376277
-0.0164023
-0.00366336
0.00953379
0.0229254
-0.00512912
-0.000932604
0.00340429
0.00780193
5.49023
5.40839
5.31434
5.22527
5.13175
5.03775
4.94453
4.85473
4.77035
4.69277
4.62284
4.56096
4.5072
4.4615
4.42373
4.39374
4.37138
4.35653
4.34914
5.52064
5.42865
5.34482
5.25091
5.1483
5.04144
4.93575
4.83527
4.74258
4.659
4.58499
4.52051
4.46523
4.41874
4.38062
4.35053
4.32821
4.31345
4.30612
5.31386
5.40185
5.37124
5.28335
5.16784
5.04275
4.91987
4.80575
4.70329
4.61326
4.53532
4.46869
4.41241
4.36563
4.3276
4.29779
4.27578
4.26127
4.25409
5.19135
5.46376
5.45137
5.34567
5.19704
5.04003
4.89236
4.76124
4.64824
4.55233
4.47159
4.40401
4.34785
4.30172
4.26446
4.23545
4.21417
4.20012
4.19321
5.5282
5.77086
5.64121
5.45635
5.23416
5.02415
4.84329
4.69357
4.57155
4.47236
4.39142
4.32514
4.27081
4.22665
4.19126
4.16378
4.14361
4.13035
4.1238
7.76883
6.18749
5.97139
5.6056
5.25302
4.97014
4.754
4.59065
4.46608
4.3694
4.29282
4.23123
4.18125
4.14072
4.10828
4.08306
4.06452
4.05235
4.04631
11.4092
7.45338
6.43767
5.71008
5.17892
4.82888
4.59674
4.43822
4.32531
4.24095
4.17532
4.12272
4.07979
4.04467
4.0163
3.99406
3.97757
3.96677
3.96139
11.9414
7.66079
6.42109
5.44924
4.85641
4.5324
4.34508
4.22751
4.14769
4.08843
4.04111
4.00172
3.96831
3.94006
3.91662
3.89784
3.88357
3.87444
3.86983
8.62442
6.04502
5.50021
4.56082
4.17204
4.05269
4.00018
3.96694
3.94266
3.91973
3.89627
3.8727
3.85
3.82917
3.81095
3.79593
3.7846
3.77647
3.77244
3.7307
3.38055
3.19155
3.21751
3.27399
3.4702
3.61134
3.69318
3.73429
3.75002
3.75026
3.74165
3.72867
3.71455
3.70111
3.68922
3.67971
3.67306
3.66966
1.65697
0.97325
0.75668
1.83848
2.46565
2.95823
3.28272
3.46073
3.553
3.59668
3.61312
3.61454
3.60772
3.59895
3.58852
3.57874
3.57072
3.56509
3.56219
84.1558
3.23999
-0.00831906
1.08363
2.07153
2.73152
3.11736
3.31924
3.42264
3.4719
3.4914
3.49558
3.49211
3.48332
3.47393
3.46522
3.45807
3.45305
3.45047
471.015
101.677
4.63633
2.21379
2.40936
2.87037
3.1465
3.27951
3.34552
3.37552
3.38474
3.38295
3.37595
3.36662
3.35714
3.34867
3.34186
3.33714
3.33473
492.31
179.194
12.1294
4.70935
3.4006
3.26027
3.28068
3.29442
3.29815
3.29315
3.28362
3.27194
3.25973
3.24802
3.23754
3.22876
3.22197
3.21736
3.21505
103.937
134.912
30.4351
5.16844
3.84541
3.47857
3.34909
3.28067
3.23579
3.20292
3.17735
3.15669
3.13966
3.12556
3.11404
3.10494
3.09816
3.09367
3.09145
16.8229
14.7981
13.2278
4.99303
3.73282
3.44757
3.29748
3.20256
3.13743
3.09122
3.05746
3.0321
3.01262
2.99747
2.98569
2.97673
2.97024
2.96604
2.96398
7.15923
5.75523
4.37777
3.76129
3.43012
3.26158
3.14501
3.06051
2.99882
2.95372
2.92051
2.89575
2.87706
2.86284
2.85203
2.84399
2.83827
2.83462
2.83286
3.26142
3.37515
3.23426
3.13987
3.06599
2.99296
2.92676
2.87144
2.82747
2.79355
2.76772
2.74811
2.7332
2.72187
2.71334
2.70705
2.70264
2.69985
2.69851
1.86143
2.32213
2.5401
2.6501
2.69046
2.69188
2.67627
2.65548
2.63515
2.61753
2.60309
2.5916
2.58263
2.57572
2.5705
2.56668
2.56403
2.56237
2.56159
1.30316
1.76511
2.05742
2.23663
2.33922
2.39329
2.41934
2.43028
2.43357
2.43332
2.43166
2.42963
2.42772
2.42611
2.42488
2.424
2.42342
2.42309
2.42294
1.0101
1.41015
1.69769
1.89677
2.02963
2.11649
2.1725
2.20863
2.23216
2.24776
2.25835
2.26576
2.2711
2.27506
2.27805
2.2803
2.28192
2.283
2.28354
0.824884
1.16017
1.42229
1.61993
1.76491
1.86917
1.94431
1.99837
2.03747
2.06607
2.08725
2.10317
2.11526
2.12452
2.13159
2.13689
2.14069
2.14315
2.14437
0.694559
0.975615
1.20832
1.39473
1.54053
1.65282
1.73794
1.80348
1.85347
1.89183
1.92143
1.94441
1.9623
1.97623
1.98696
1.99503
2.00082
2.00457
2.00641
0.596989
0.834606
1.03936
1.21065
1.35086
1.46386
1.55391
1.62549
1.68215
1.72719
1.76293
1.79132
1.81383
1.83157
1.84536
1.85579
1.86329
1.86815
1.87055
0.521307
0.723873
0.903484
1.05865
1.18999
1.29953
1.38984
1.46382
1.52414
1.57314
1.61289
1.64508
1.67095
1.69158
1.70775
1.72004
1.72892
1.73468
1.73753
0.460748
0.634647
0.792102
0.931467
1.05252
1.15614
1.24385
1.31747
1.37886
1.42978
1.47182
1.50633
1.53432
1.55694
1.5748
1.58843
1.59833
1.60477
1.60798
0.410798
0.560921
0.699024
0.823547
0.933913
1.03037
1.11371
1.18505
1.24563
1.29673
1.33952
1.37507
1.40431
1.42807
1.44697
1.46137
1.47198
1.47887
1.48235
0.368455
0.498595
0.61981
0.730701
0.830557
0.919281
0.99722
1.065
1.12341
1.17336
1.21571
1.25128
1.28082
1.30499
1.32433
1.33925
1.35018
1.35732
1.36096
0.331691
0.444831
0.551244
0.64972
0.739521
0.820364
0.89232
0.955711
1.01103
1.05887
1.09986
1.13462
1.16374
1.18773
1.20703
1.22203
1.23304
1.24026
1.24393
0.299067
0.397564
0.490923
0.578104
0.658408
0.731467
0.797191
0.855713
0.907313
0.952379
0.991351
1.02467
1.05279
1.0761
1.09498
1.10971
1.12056
1.12769
1.1313
0.269508
0.355238
0.436989
0.513881
0.585277
0.65079
0.710251
0.763668
0.811182
0.853031
0.889508
0.920924
0.947604
0.969857
0.987965
1.00216
1.01264
1.01955
1.02303
0.242192
0.316655
0.388002
0.455495
0.518572
0.576864
0.630166
0.678413
0.721651
0.760006
0.793663
0.822837
0.847758
0.868651
0.885726
0.899164
0.909108
0.915668
0.918951
0.216494
0.280904
0.342856
0.401738
0.457066
0.508503
0.555833
0.598949
0.637833
0.672538
0.70317
0.729868
0.752788
0.77209
0.787924
0.80042
0.809685
0.815804
0.818847
0.191956
0.24731
0.300721
0.351685
0.399796
0.444747
0.486329
0.524412
0.558941
0.589921
0.617401
0.641464
0.66221
0.679746
0.694174
0.705585
0.71406
0.719661
0.72243
0.168258
0.21538
0.260972
0.304624
0.345991
0.384806
0.42087
0.454048
0.484265
0.511495
0.535751
0.557074
0.575522
0.591161
0.604059
0.614279
0.621879
0.626903
0.629371
0.145177
0.18475
0.223129
0.259981
0.295017
0.328008
0.358772
0.387182
0.413153
0.436642
0.457638
0.476153
0.492216
0.505866
0.517145
0.526096
0.532757
0.537164
0.539312
0.122546
0.15513
0.186795
0.217273
0.246328
0.273766
0.29943
0.323204
0.345003
0.364776
0.382499
0.398166
0.411789
0.423388
0.432988
0.440616
0.446296
0.450055
0.451871
0.100221
0.126268
0.151624
0.176077
0.199441
0.221558
0.242296
0.261554
0.279254
0.295345
0.309799
0.322602
0.333755
0.343266
0.351148
0.357416
0.362086
0.365178
0.366654
0.0780683
0.0979378
0.117306
0.136016
0.153926
0.170912
0.186869
0.201715
0.215385
0.227834
0.239035
0.248972
0.257642
0.265045
0.271186
0.276073
0.279715
0.282128
0.283262
0.0559584
0.0699275
0.0835603
0.0967472
0.109388
0.121394
0.132689
0.143211
0.152913
0.16176
0.169731
0.176813
0.182998
0.188284
0.192672
0.196166
0.19877
0.200498
0.20129
0.033779
0.042054
0.0501376
0.0579649
0.0654759
0.0726168
0.0793414
0.0856118
0.0913991
0.0966822
0.101447
0.105684
0.109388
0.112556
0.115187
0.117283
0.118843
0.119885
0.120338
0.0113673
0.0140867
0.0167463
0.0193244
0.0218009
0.0241577
0.0263794
0.0284533
0.0303695
0.0321208
0.033702
0.0351095
0.0363409
0.0373946
0.0382702
0.0389681
0.0394862
0.0398357
0.0399797
)
;

boundaryField
{
    leftWall
    {
        type            fixedFluxPressure;
        gradient        uniform 0;
        value           nonuniform List<scalar> 
50
(
2152.59
2151.21
2148.45
2144.33
2138.88
2132.13
2124.16
2115.05
2099.01
2072.52
2042.19
2008.8
1973.15
1936
1898.44
1862.3
1827.27
1770.57
851.289
-1.37501
-1.44987
-1.45873
-1.45964
-1.45213
-1.437
-1.41332
-1.38017
-1.33952
-1.29312
-1.24227
-1.18811
-1.13162
-1.07355
-1.01439
-0.954457
-0.894
-0.833304
-0.772654
-0.712308
-0.652459
-0.593201
-0.534576
-0.476591
-0.419188
-0.362306
-0.305962
-0.250226
-0.195358
-0.140937
-0.08295
)
;
    }
    rightWall
    {
        type            fixedFluxPressure;
        gradient        uniform 0;
        value           nonuniform List<scalar> 
50
(
4.42992
4.42793
4.42395
4.41797
4.41
4.40004
4.38808
4.37411
4.34914
4.30612
4.25409
4.19321
4.1238
4.04631
3.96139
3.86983
3.77244
3.66966
3.56219
3.45047
3.33473
3.21505
3.09145
2.96398
2.83286
2.69851
2.56159
2.42294
2.28354
2.14437
2.00641
1.87055
1.73753
1.60798
1.48235
1.36096
1.24393
1.1313
1.02303
0.918951
0.818847
0.72243
0.629371
0.539312
0.451871
0.366654
0.283262
0.20129
0.120338
0.0399797
)
;
    }
    lowerWall
    {
        type            fixedFluxPressure;
        gradient        uniform 0;
        value           nonuniform List<scalar> 
62
(
2152.59
2160.39
2163.6
2162.84
2160.17
2157.32
2154.87
2152.97
2151.82
2151.8
2153.62
2158.55
2168.58
2186.63
2216.83
2265.16
2338.08
2439.41
2567.14
2702.48
2806.65
2835.38
2874.42
2874.42
2884.05
2933.74
2964.91
2947.33
2856.02
2662.69
2356.27
229.866
4.10701
5.94622
5.55741
5.26455
5.27116
5.28247
5.29976
5.32346
5.35444
5.39088
5.43409
5.26455
5.2397
5.19899
5.14635
5.08496
5.01841
4.94923
4.87969
4.8117
4.74683
4.68629
4.63101
4.58168
4.53881
4.50277
4.47373
4.45186
4.43727
4.42992
)
;
    }
    atmosphere
    {
        type            totalPressure;
        rho             rho;
        psi             none;
        gamma           1;
        p0              uniform 0;
        value           nonuniform List<scalar> 
46
(
-0.0506397
-0.0508977
-0.0498429
-0.048229
-0.0460853
-0.0434687
-0.0404405
-0.0370712
-0.0334404
-0.0296354
-0.0257486
-0.0218737
-0.0181025
-0.0145214
-0.0112089
-0.00823343
-0.00565294
-0.00351384
-0.00185281
-0.000702281
-9.67095e-05
0
0
0
0
0
0
0
0
0
0
0
0
0
0
0
0
0
0
0
0
0
0
0
0
0
)
;
    }
    defaultFaces
    {
        type            empty;
    }
}


// ************************************************************************* //
