/*--------------------------------*- C++ -*----------------------------------*\
| =========                 |                                                 |
| \\      /  F ield         | OpenFOAM: The Open Source CFD Toolbox           |
|  \\    /   O peration     | Version:  2206                                  |
|   \\  /    A nd           | Website:  www.openfoam.com                      |
|    \\/     M anipulation  |                                                 |
\*---------------------------------------------------------------------------*/
FoamFile
{
    version     2.0;
    format      ascii;
    arch        "LSB;label=32;scalar=64";
    class       surfaceScalarField;
    location    "0.2";
    object      phi;
}
// * * * * * * * * * * * * * * * * * * * * * * * * * * * * * * * * * * * * * //

dimensions      [0 3 -1 0 0 0 0];

oriented        oriented;

internalField   nonuniform List<scalar> 
4432
(
2.04272e-06
-2.04272e-06
7.71067e-06
-5.66793e-06
1.40596e-05
-6.34894e-06
1.99522e-05
-5.89256e-06
2.53523e-05
-5.40008e-06
3.05131e-05
-5.16084e-06
3.56507e-05
-5.13759e-06
4.08732e-05
-5.22253e-06
4.61926e-05
-5.31944e-06
5.15542e-05
-5.36153e-06
5.68546e-05
-5.30038e-06
6.19434e-05
-5.08884e-06
6.66136e-05
-4.67019e-06
7.05826e-05
-3.969e-06
7.34324e-05
-2.84977e-06
7.43334e-05
-9.01035e-07
7.1724e-05
2.60942e-06
6.33523e-05
8.37171e-06
4.73012e-05
1.6051e-05
2.32905e-05
2.40107e-05
-3.4648e-06
2.67553e-05
-1.87895e-05
1.53247e-05
-1.87895e-05
2.09535e-06
-4.13809e-06
7.76204e-06
-1.13346e-05
1.411e-05
-1.26969e-05
2.00103e-05
-1.17929e-05
2.54164e-05
-1.08062e-05
3.05895e-05
-1.03339e-05
3.57496e-05
-1.02978e-05
4.10018e-05
-1.04747e-05
4.63555e-05
-1.06732e-05
5.17579e-05
-1.07638e-05
5.71096e-05
-1.06521e-05
6.22644e-05
-1.02436e-05
6.70195e-05
-9.42525e-06
7.10967e-05
-8.04628e-06
7.41392e-05
-5.8922e-06
7.59471e-05
-2.70901e-06
7.66012e-05
1.9554e-06
7.58579e-05
9.11491e-06
7.1505e-05
2.0404e-05
5.92872e-05
3.62285e-05
3.68887e-05
4.91538e-05
1.27988e-05
3.94147e-05
-5.99076e-06
2.1621e-06
-6.30019e-06
7.81841e-06
-1.69909e-05
1.41156e-05
-1.89941e-05
1.99637e-05
-1.7641e-05
2.53338e-05
-1.61762e-05
3.04943e-05
-1.54945e-05
3.56637e-05
-1.54672e-05
4.09398e-05
-1.57507e-05
4.63283e-05
-1.60617e-05
5.17786e-05
-1.62142e-05
5.71973e-05
-1.60708e-05
6.24459e-05
-1.54922e-05
6.7332e-05
-1.43114e-05
7.15964e-05
-1.23107e-05
7.4905e-05
-9.20078e-06
7.68108e-05
-4.61485e-06
7.68749e-05
1.89135e-06
7.50911e-05
1.08987e-05
7.21775e-05
2.33176e-05
6.79202e-05
4.04857e-05
5.67342e-05
6.03398e-05
3.19577e-05
6.41912e-05
2.5967e-05
2.25873e-06
-8.55892e-06
7.91429e-06
-2.26465e-05
1.41386e-05
-2.52184e-05
1.99055e-05
-2.34078e-05
2.52254e-05
-2.14961e-05
3.03753e-05
-2.06444e-05
3.55656e-05
-2.06575e-05
4.08829e-05
-2.1068e-05
4.63288e-05
-2.15076e-05
5.18562e-05
-2.17416e-05
5.73797e-05
-2.15943e-05
6.27732e-05
-2.08856e-05
6.7861e-05
-1.93992e-05
7.23997e-05
-1.68494e-05
7.60586e-05
-1.28597e-05
7.84178e-05
-6.97397e-06
7.89811e-05
1.32799e-06
7.73066e-05
1.25732e-05
7.34156e-05
2.72087e-05
6.86731e-05
4.52282e-05
6.11456e-05
6.78673e-05
4.03114e-05
8.50254e-05
6.62784e-05
2.38659e-06
-1.09455e-05
8.04328e-06
-2.83032e-05
1.41694e-05
-3.13445e-05
1.98278e-05
-2.90663e-05
2.50854e-05
-2.67536e-05
3.02268e-05
-2.57859e-05
3.5447e-05
-2.58777e-05
4.08179e-05
-2.64389e-05
4.63368e-05
-2.70266e-05
5.19619e-05
-2.73667e-05
5.76192e-05
-2.72516e-05
6.32e-05
-2.64664e-05
6.85498e-05
-2.4749e-05
7.34423e-05
-2.17418e-05
7.75539e-05
-1.69713e-05
8.04714e-05
-9.89152e-06
8.17347e-05
6.47118e-08
8.08607e-05
1.34472e-05
7.72698e-05
3.07996e-05
7.09035e-05
5.15945e-05
6.20971e-05
7.66737e-05
4.29798e-05
0.000104143
0.000109258
2.54647e-06
-1.3492e-05
8.19659e-06
-3.39533e-05
1.41951e-05
-3.73429e-05
1.97209e-05
-3.45921e-05
2.49067e-05
-3.19395e-05
3.00406e-05
-3.09197e-05
3.5295e-05
-3.11322e-05
4.07243e-05
-3.18681e-05
4.6323e-05
-3.26253e-05
5.20571e-05
-3.31008e-05
5.78682e-05
-3.30627e-05
6.36704e-05
-3.22686e-05
6.93333e-05
-3.04119e-05
7.46469e-05
-2.70554e-05
7.92979e-05
-2.16223e-05
8.28808e-05
-1.34745e-05
8.4948e-05
-2.00248e-06
8.49926e-05
1.34027e-05
8.23658e-05
3.34263e-05
7.58378e-05
5.81225e-05
6.50059e-05
8.75057e-05
4.54852e-05
0.000123663
0.000154743
2.73304e-06
-1.6225e-05
8.36004e-06
-3.95803e-05
1.42008e-05
-4.31837e-05
1.95753e-05
-3.99666e-05
2.46835e-05
-3.70476e-05
2.98093e-05
-3.60456e-05
3.50975e-05
-3.64204e-05
4.0584e-05
-3.73546e-05
4.62624e-05
-3.83037e-05
5.21099e-05
-3.89483e-05
5.80885e-05
-3.90412e-05
6.41389e-05
-3.8319e-05
7.01546e-05
-3.64276e-05
7.59425e-05
-3.28433e-05
8.12086e-05
-2.68884e-05
8.55757e-05
-1.78415e-05
8.85984e-05
-5.02519e-06
8.97072e-05
1.22939e-05
8.82551e-05
3.48784e-05
8.27828e-05
6.35948e-05
7.1313e-05
9.89755e-05
5.22032e-05
0.000142773
0.000206947
2.93499e-06
-1.916e-05
8.51146e-06
-4.51568e-05
1.41741e-05
-4.88463e-05
1.93896e-05
-4.51822e-05
2.4418e-05
-4.2076e-05
2.95337e-05
-4.11614e-05
3.48511e-05
-4.17377e-05
4.03888e-05
-4.28924e-05
4.61426e-05
-4.40574e-05
5.21041e-05
-4.49098e-05
5.82602e-05
-4.51974e-05
6.45792e-05
-4.46379e-05
7.09773e-05
-4.28257e-05
7.72844e-05
-3.91504e-05
8.32342e-05
-3.28383e-05
8.84857e-05
-2.3093e-05
9.262e-05
-9.15943e-06
9.50122e-05
9.90165e-06
9.50524e-05
3.48381e-05
9.13477e-05
6.72996e-05
8.04814e-05
0.000109842
6.02241e-05
0.000163031
0.000267171
-1.19482e-06
1.19482e-06
-2.33623e-06
1.14119e-06
-3.52008e-06
1.18393e-06
-4.22849e-06
7.08466e-07
-4.40278e-06
1.74894e-07
-4.16685e-06
-2.36167e-07
-3.74654e-06
-4.20345e-07
-3.26583e-06
-4.80643e-07
-2.78233e-06
-4.83356e-07
-2.32376e-06
-4.58539e-07
-1.90518e-06
-4.18696e-07
-1.53585e-06
-3.68963e-07
-1.21451e-06
-3.21584e-07
-9.42296e-07
-2.72609e-07
-6.99779e-07
-2.42174e-07
-4.9402e-07
-2.05772e-07
-3.15463e-07
-1.78993e-07
-1.31639e-07
-1.83614e-07
-1.31703e-07
-3.1942e-06
4.38898e-06
-4.73338e-06
2.68024e-06
-5.28249e-06
1.73371e-06
-5.17795e-06
6.03864e-07
-4.81752e-06
-1.85128e-07
-4.32295e-06
-7.31013e-07
-3.76003e-06
-9.83264e-07
-3.17232e-06
-1.06805e-06
-2.61079e-06
-1.04494e-06
-2.10198e-06
-9.67146e-07
-1.65869e-06
-8.62418e-07
-1.28216e-06
-7.45631e-07
-9.68714e-07
-6.34933e-07
-7.11219e-07
-5.30805e-07
-5.09058e-07
-4.44202e-07
-3.48013e-07
-3.6664e-07
-2.15162e-07
-3.12285e-07
-8.25258e-08
-3.16234e-07
-2.14117e-07
-3.22489e-06
7.61395e-06
-4.55656e-06
4.01187e-06
-5.15426e-06
2.33189e-06
-5.20105e-06
6.50528e-07
-4.91308e-06
-4.73032e-07
-4.42411e-06
-1.22005e-06
-3.84016e-06
-1.56742e-06
-3.24195e-06
-1.666e-06
-2.6765e-06
-1.61087e-06
-2.16437e-06
-1.47936e-06
-1.71471e-06
-1.31191e-06
-1.33291e-06
-1.1283e-06
-1.0122e-06
-9.55537e-07
-7.48475e-07
-7.93856e-07
-5.37811e-07
-6.54564e-07
-3.68234e-07
-5.36082e-07
-2.31081e-07
-4.49138e-07
-9.1413e-08
-4.55663e-07
-3.0528e-07
-3.56371e-06
1.11777e-05
-4.92138e-06
5.36964e-06
-5.55432e-06
2.96504e-06
-5.52848e-06
6.24538e-07
-5.14672e-06
-8.55036e-07
-4.55711e-06
-1.80952e-06
-3.90547e-06
-2.21929e-06
-3.27086e-06
-2.30031e-06
-2.67976e-06
-2.20207e-06
-2.15639e-06
-2.00305e-06
-1.70844e-06
-1.75967e-06
-1.31732e-06
-1.51926e-06
-9.96437e-07
-1.2759e-06
-7.34953e-07
-1.05577e-06
-5.26246e-07
-8.64238e-07
-3.62591e-07
-6.99346e-07
-2.22448e-07
-5.88979e-07
-8.93974e-08
-5.89144e-07
-3.94595e-07
-4.7255e-06
1.59032e-05
-5.93574e-06
6.58016e-06
-6.31393e-06
3.34315e-06
-6.01051e-06
3.21009e-07
-5.44212e-06
-1.42356e-06
-4.71392e-06
-2.5372e-06
-3.97213e-06
-2.9611e-06
-3.27922e-06
-2.99337e-06
-2.65981e-06
-2.82162e-06
-2.11892e-06
-2.54322e-06
-1.65731e-06
-2.22115e-06
-1.27096e-06
-1.90654e-06
-9.52612e-07
-1.59464e-06
-6.96267e-07
-1.31222e-06
-4.9851e-07
-1.06194e-06
-3.32754e-07
-8.64897e-07
-2.04805e-07
-7.17329e-07
-8.26812e-08
-7.11814e-07
-4.77517e-07
-6.28065e-06
2.21838e-05
-7.38118e-06
7.6811e-06
-7.39696e-06
3.35873e-06
-6.62939e-06
-4.46505e-07
-5.79533e-06
-2.25764e-06
-4.89321e-06
-3.43929e-06
-4.04074e-06
-3.81334e-06
-3.28176e-06
-3.75183e-06
-2.62732e-06
-3.47631e-06
-2.07044e-06
-3.10018e-06
-1.59734e-06
-2.69477e-06
-1.20927e-06
-2.29485e-06
-8.94147e-07
-1.90879e-06
-6.50665e-07
-1.55496e-06
-4.49305e-07
-1.26351e-06
-2.98657e-07
-1.01556e-06
-1.81868e-07
-8.34007e-07
-7.38083e-08
-8.19602e-07
-5.51169e-07
-9.69722e-06
3.18808e-05
-9.30504e-06
7.2894e-06
-8.84723e-06
2.90071e-06
-7.47179e-06
-1.82212e-06
-6.2404e-06
-3.48855e-06
-5.1117e-06
-4.56773e-06
-4.13504e-06
-4.79028e-06
-3.28793e-06
-4.59923e-06
-2.58847e-06
-4.17628e-06
-2.00446e-06
-3.68401e-06
-1.52603e-06
-3.17283e-06
-1.13566e-06
-2.68541e-06
-8.30298e-07
-2.21411e-06
-5.8116e-07
-1.80403e-06
-3.95913e-07
-1.44911e-06
-2.57388e-07
-1.15417e-06
-1.54627e-07
-9.36541e-07
-6.26531e-08
-9.11426e-07
-6.13435e-07
-1.21513e-05
4.40319e-05
-1.17666e-05
6.90481e-06
-1.06916e-05
1.82572e-06
-8.58369e-06
-3.92988e-06
-6.76276e-06
-5.30951e-06
-5.3196e-06
-6.01116e-06
-4.17519e-06
-5.93494e-06
-3.25828e-06
-5.51607e-06
-2.52543e-06
-4.90893e-06
-1.91441e-06
-4.29522e-06
-1.4309e-06
-3.6557e-06
-1.04739e-06
-3.06871e-06
-7.31587e-07
-2.53039e-06
-5.01378e-07
-2.03453e-06
-3.30095e-07
-1.62026e-06
-2.07818e-07
-1.27623e-06
-1.2293e-07
-1.02122e-06
-5.02346e-08
-9.84385e-07
-6.63701e-07
6.75606e-06
-2.5916e-05
1.85762e-05
-5.69769e-05
2.99574e-05
-6.02275e-05
4.04628e-05
-5.56876e-05
5.08971e-05
-5.25102e-05
6.17371e-05
-5.20014e-05
7.31092e-05
-5.31098e-05
8.50198e-05
-5.4803e-05
9.74864e-05
-5.6524e-05
0.000110559
-5.79822e-05
0.000124307
-5.89457e-05
0.00013876
-5.90907e-05
0.000153855
-5.79208e-05
0.000169362
-5.4657e-05
0.000184788
-4.82646e-05
0.000199411
-3.77165e-05
0.000212395
-2.21431e-05
0.000222183
1.13656e-07
0.000228011
2.90099e-05
0.000226849
6.84617e-05
0.000216976
0.000119715
0.000207741
0.000172265
0.000260232
0.00021468
7.56723e-06
-3.34833e-05
1.89842e-05
-6.83939e-05
2.94757e-05
-7.0719e-05
3.92938e-05
-6.55057e-05
4.94022e-05
-6.26186e-05
6.01547e-05
-6.27539e-05
7.15541e-05
-6.45092e-05
8.35805e-05
-6.68294e-05
9.63112e-05
-6.92547e-05
0.000109915
-7.15858e-05
0.000124602
-7.36327e-05
0.000140568
-7.50572e-05
0.000158047
-7.53997e-05
0.000177056
-7.36655e-05
0.000197141
-6.83503e-05
0.000217537
-5.81119e-05
0.000237301
-4.19072e-05
0.000254975
-1.75604e-05
0.000270069
1.39152e-05
0.000279761
5.87704e-05
0.000286969
0.000112507
0.000293869
0.000165365
0.000243308
0.000310793
8.31898e-06
-4.18022e-05
1.91547e-05
-7.92297e-05
2.86469e-05
-8.02112e-05
3.7793e-05
-7.46518e-05
4.75761e-05
-7.24017e-05
5.81513e-05
-7.33291e-05
6.94189e-05
-7.57768e-05
8.13694e-05
-7.87798e-05
9.41739e-05
-8.20593e-05
0.000108124
-8.5536e-05
0.000123551
-8.90598e-05
0.00014088
-9.23862e-05
0.000160828
-9.53475e-05
0.000183683
-9.65203e-05
0.00020896
-9.36272e-05
0.000235834
-8.49861e-05
0.000263941
-7.00145e-05
0.000290514
-4.41325e-05
0.000317069
-1.26403e-05
0.000331922
4.39179e-05
0.000336368
0.000108061
0.000340121
0.000161611
0.000224752
0.000358677
8.92993e-06
-5.07322e-05
1.90042e-05
-8.9304e-05
2.74827e-05
-8.86897e-05
3.60102e-05
-8.31793e-05
4.54379e-05
-8.18295e-05
5.56985e-05
-8.35897e-05
6.66344e-05
-8.67127e-05
7.82767e-05
-9.04221e-05
9.08921e-05
-9.46747e-05
0.000104806
-9.94501e-05
0.000120404
-0.000104658
0.000138362
-0.000110344
0.00016017
-0.000117155
0.000186321
-0.000122672
0.000215766
-0.000123072
0.000246667
-0.000115887
0.000281541
-0.000104889
0.000305771
-6.83621e-05
0.000319436
-2.63057e-05
0.000333135
3.02194e-05
0.000342087
9.91083e-05
0.000346059
0.000157639
0.000206263
0.000364548
9.36066e-06
-6.00928e-05
1.85149e-05
-9.84582e-05
2.60193e-05
-9.61941e-05
3.39787e-05
-9.11387e-05
4.29802e-05
-9.08309e-05
5.2755e-05
-9.33645e-05
6.31226e-05
-9.70802e-05
7.41516e-05
-0.000101451
8.61022e-05
-0.000106625
9.9165e-05
-0.000112513
0.000113721
-0.000119214
0.00013081
-0.000127433
0.000153306
-0.000139652
0.000181459
-0.000150825
0.000211582
-0.000153195
0.000237345
-0.00014165
0.000259633
-0.000127177
0.000274316
-8.30451e-05
0.000278643
-3.06333e-05
0.000293996
1.48667e-05
0.000312754
8.03503e-05
0.000329102
0.000141292
0.000177299
0.000358066
9.6142e-06
-6.9707e-05
1.77131e-05
-0.000106557
2.4311e-05
-0.000102792
3.17261e-05
-9.85538e-05
4.018e-05
-9.92848e-05
4.92415e-05
-0.000102426
5.8708e-05
-0.000106547
6.86328e-05
-0.000111376
7.91126e-05
-0.000117105
9.02137e-05
-0.000123614
0.000102391
-0.000131392
0.000117713
-0.000142754
0.000140775
-0.000162714
0.000168792
-0.000178841
0.000192182
-0.000176584
0.000207017
-0.000156485
0.000212969
-0.000133129
0.000227087
-9.71633e-05
0.000246285
-4.98307e-05
0.000262146
-9.94603e-07
0.000287485
5.50114e-05
0.000302688
0.000126088
0.000142454
0.000337533
9.72928e-06
-7.94363e-05
1.66101e-05
-0.000113438
2.23348e-05
-0.000108517
2.91516e-05
-0.000105371
3.68338e-05
-0.000106967
4.48337e-05
-0.000110426
5.29345e-05
-0.000114648
6.11527e-05
-0.000119594
6.95352e-05
-0.000125488
7.84915e-05
-0.00013257
8.9001e-05
-0.000141901
0.000105202
-0.000158955
0.000129616
-0.000187128
0.000153334
-0.00020256
0.000168878
-0.000192128
0.000199446
-0.000187053
0.000219954
-0.000153636
0.000219716
-9.69257e-05
0.000212467
-4.25822e-05
0.000227677
-1.62034e-05
0.000255935
2.67533e-05
0.000272548
0.000109474
0.000111282
0.000303721
9.69108e-06
-8.91274e-05
1.51264e-05
-0.000118873
1.99114e-05
-0.000113302
2.59635e-05
-0.000111423
3.25534e-05
-0.000113557
3.91321e-05
-0.000117005
4.56303e-05
-0.000121146
5.22247e-05
-0.000126188
5.9653e-05
-0.000132916
6.96125e-05
-0.00014253
8.45305e-05
-0.000156819
0.000108615
-0.000183039
0.000136136
-0.00021465
0.000148878
-0.000215302
0.000185081
-0.000228331
0.000212697
-0.00021467
0.000205658
-0.000146596
0.00016793
-5.91983e-05
0.000144801
-1.94535e-05
0.00015383
-2.52324e-05
0.000187262
-6.67838e-06
0.000219778
7.69585e-05
0.000104069
0.000226991
9.63338e-06
-9.87608e-05
1.31897e-05
-0.00012243
1.68498e-05
-0.000116962
2.20386e-05
-0.000116612
2.75143e-05
-0.000119032
3.3037e-05
-0.000122527
3.92113e-05
-0.00012732
4.70865e-05
-0.000134064
5.9672e-05
-0.000145501
8.08004e-05
-0.000163658
0.000117711
-0.00019373
0.00015509
-0.000220418
0.000174804
-0.000234363
0.000171323
-0.000211821
0.00017811
-0.000235118
0.000178355
-0.000214915
0.00015612
-0.00012436
0.000116444
-1.95231e-05
0.000103313
-6.32203e-06
0.000107297
-2.92168e-05
0.000125975
-2.5357e-05
0.000159535
4.33988e-05
0.000103172
0.000160432
1.02035e-05
-0.000108964
1.11295e-05
-0.000123356
1.385e-05
-0.000119682
1.90437e-05
-0.000121805
2.51192e-05
-0.000125108
3.30936e-05
-0.000130502
4.53656e-05
-0.000139592
6.40677e-05
-0.000152766
0.00010187
-0.000183304
0.00014693
-0.000208718
0.000186848
-0.000233649
0.000212683
-0.000246253
0.000203033
-0.000224714
0.000168843
-0.000177631
0.000144865
-0.00021114
0.000126792
-0.000196842
0.00011399
-0.000111558
9.12861e-05
3.18171e-06
8.28324e-05
2.13137e-06
8.33617e-05
-2.97461e-05
9.61296e-05
-3.81252e-05
0.000122988
1.65404e-05
8.87347e-05
0.000137425
1.17607e-05
-0.000120725
1.16153e-05
-0.00012321
1.60564e-05
-0.000124123
2.50825e-05
-0.000130831
3.82641e-05
-0.00013829
6.11601e-05
-0.000153398
9.22223e-05
-0.000170654
0.000131509
-0.000192052
0.000169233
-0.000221028
0.000208623
-0.000248107
0.000237412
-0.000262438
0.000246367
-0.000255208
0.000224496
-0.000202843
0.000173441
-0.000126577
0.000130979
-0.000168678
0.000103553
-0.000169416
8.59902e-05
-9.39959e-05
6.72869e-05
2.18847e-05
5.98965e-05
9.52127e-06
5.84658e-05
-2.83155e-05
6.66246e-05
-4.62843e-05
9.2327e-05
-9.16222e-06
5.70134e-05
0.000124048
1.1013e-05
-0.000131738
2.29782e-05
-0.000135175
3.53781e-05
-0.000136523
5.20055e-05
-0.000147459
7.33215e-05
-0.000159606
9.64742e-05
-0.00017655
0.000123641
-0.000197822
0.000154737
-0.000223148
0.000186246
-0.000252538
0.000217997
-0.000279858
0.000242226
-0.000286668
0.000246097
-0.000259078
0.000229315
-0.00018606
0.000179702
-7.69641e-05
0.000126259
-0.000115235
9.07601e-05
-0.000133917
5.88681e-05
-6.2104e-05
3.85552e-05
4.21974e-05
3.05674e-05
1.75089e-05
2.59678e-05
-2.3716e-05
2.92649e-05
-4.95814e-05
5.73726e-05
-3.727e-05
2.20503e-05
9.23356e-05
7.01647e-06
-0.000138755
2.22343e-05
-0.000150393
3.79944e-05
-0.000152283
5.26991e-05
-0.000162164
6.89394e-05
-0.000175846
8.61908e-05
-0.000193802
0.000104865
-0.000216496
0.000127264
-0.000245546
0.000155572
-0.000280846
0.000185525
-0.00030981
0.00020403
-0.000305172
0.000203664
-0.000258712
0.000193046
-0.000175442
0.000161866
-4.57846e-05
0.000111905
-6.52745e-05
7.07126e-05
-9.27247e-05
2.3944e-05
-1.53355e-05
2.28588e-06
6.38554e-05
-3.87333e-06
2.36676e-05
-1.13104e-05
-1.62788e-05
-1.34585e-05
-4.74334e-05
1.72143e-06
-5.24499e-05
-1.37519e-05
3.75236e-05
7.39595e-06
-0.00014615
1.78975e-05
-0.000160895
2.83761e-05
-0.000162762
3.82859e-05
-0.000172073
4.8435e-05
-0.000185995
5.89941e-05
-0.000204361
7.11233e-05
-0.000228626
8.80503e-05
-0.000262473
0.000110704
-0.000303499
0.000128625
-0.000327732
0.000132192
-0.000308738
0.000122149
-0.00024867
0.000110594
-0.000163887
0.000107845
-4.3036e-05
8.03474e-05
-3.77765e-05
3.285e-05
-4.52273e-05
-2.42151e-05
4.17298e-05
-3.46968e-05
7.43368e-05
-3.99441e-05
2.89146e-05
-4.89208e-05
-7.30231e-06
-5.74265e-05
-3.89279e-05
-5.36161e-05
-5.62601e-05
-4.44784e-05
-2.28897e-05
6.91802e-06
-0.000153068
1.1503e-05
-0.00016548
1.70835e-05
-0.000168342
2.24627e-05
-0.000177453
2.7287e-05
-0.000190819
3.15757e-05
-0.000208649
3.62854e-05
-0.000233335
4.32586e-05
-0.000269446
4.99285e-05
-0.000310169
4.71516e-05
-0.000324955
3.58868e-05
-0.000297473
2.36337e-05
-0.000236417
1.79998e-05
-0.000158253
2.95603e-05
-5.45963e-05
1.77694e-05
-2.59857e-05
-3.67512e-05
9.29332e-06
-7.80158e-05
8.29947e-05
-7.37328e-05
7.00538e-05
-7.39685e-05
2.91503e-05
-8.09658e-05
-3.04783e-07
-9.10607e-05
-2.8833e-05
-9.51093e-05
-5.22113e-05
-5.8418e-05
-8.11694e-05
4.38677e-06
-0.000157455
5.0742e-06
-0.000166167
6.98092e-06
-0.000170249
8.10862e-06
-0.00017858
7.75435e-06
-0.000190465
5.41542e-06
-0.00020631
9.70414e-07
-0.00022889
-6.74885e-06
-0.000261727
-2.13579e-05
-0.00029556
-4.19568e-05
-0.000304356
-6.05633e-05
-0.000278867
-6.8008e-05
-0.000228972
-6.91703e-05
-0.000157091
-5.31304e-05
-7.06361e-05
-6.90406e-05
-1.00756e-05
-0.000114413
5.46658e-05
-0.000122792
9.13735e-05
-0.000107155
5.44172e-05
-0.000103288
2.52827e-05
-0.00010755
3.95776e-06
-0.000118865
-1.75176e-05
-0.000133199
-3.78779e-05
-4.967e-05
-0.000141947
1.05395e-06
-0.000158509
-2.69252e-07
-0.000164843
-1.64502e-06
-0.000168873
-4.30127e-06
-0.000175924
-9.21779e-06
-0.000185548
-1.74947e-05
-0.000198034
-3.09831e-05
-0.000215402
-5.24905e-05
-0.00024022
-8.29205e-05
-0.00026513
-0.000114593
-0.000272684
-0.000139326
-0.000254134
-0.000155654
-0.000212644
-0.00016746
-0.000145285
-0.000172047
-6.60488e-05
-0.000186198
4.07519e-06
-0.000184683
5.31512e-05
-0.000155887
6.25774e-05
-0.000132703
3.12326e-05
-0.000125649
1.82296e-05
-0.000126903
5.212e-06
-0.000136546
-7.87474e-06
-0.000153991
-2.04328e-05
-2.87142e-05
-0.000174947
-1.78255e-06
-0.000156726
-5.05722e-06
-0.000161569
-8.86998e-06
-0.00016506
-1.43518e-05
-0.000170442
-2.23497e-05
-0.000177551
-3.4189e-05
-0.000186194
-5.24906e-05
-0.0001971
-8.05738e-05
-0.000212137
-0.000117731
-0.000227973
-0.000157273
-0.000233143
-0.000193525
-0.000217882
-0.000224823
-0.000181346
-0.000243834
-0.000126274
-0.000246405
-6.34786e-05
-0.000236491
-5.83883e-06
-0.000206683
2.33438e-05
-0.000167629
2.35234e-05
-0.000147388
1.09917e-05
-0.000139291
1.0132e-05
-0.000138331
4.25217e-06
-0.000144985
-1.22068e-06
-0.000159601
-5.81633e-06
-7.29611e-06
-0.000181019
-3.86737e-06
-0.000152859
-8.62078e-06
-0.000156815
-1.42937e-05
-0.000159387
-2.1547e-05
-0.000163189
-3.11391e-05
-0.000167959
-4.41277e-05
-0.000173206
-6.25988e-05
-0.000178629
-8.9579e-05
-0.000185157
-0.000125569
-0.000191983
-0.000166062
-0.00019265
-0.000204161
-0.000179782
-0.000234287
-0.00015122
-0.00024962
-0.00011094
-0.000246481
-6.66175e-05
-0.000223765
-2.85551e-05
-0.00019191
-8.51133e-06
-0.000164047
-4.33968e-06
-0.0001513
-1.75487e-06
-0.000144194
3.0264e-06
-0.000142521
2.57838e-06
-0.000146666
2.92497e-06
-0.00015677
4.28746e-06
8.38149e-06
-0.000172448
-5.27726e-06
-0.000147581
-1.12067e-05
-0.000150886
-1.80169e-05
-0.000152577
-2.62058e-05
-0.000155
-3.63258e-05
-0.000157839
-4.89595e-05
-0.000160572
-6.5118e-05
-0.000162471
-8.68667e-05
-0.000163408
-0.000115554
-0.000163295
-0.000148453
-0.000159751
-0.000179364
-0.000148872
-0.000201781
-0.000128803
-0.000211164
-0.000101556
-0.000206223
-7.15589e-05
-0.000189226
-4.55524e-05
-0.000169251
-2.84854e-05
-0.000155426
-1.81652e-05
-0.000148026
-9.15511e-06
-0.000142562
-2.43754e-06
-0.000141065
1.08171e-06
-0.000143495
5.35574e-06
-0.000149763
1.05555e-05
1.80065e-05
-0.000159389
-6.18051e-06
-0.000141401
-1.28757e-05
-0.000144191
-2.03097e-05
-0.000145143
-2.88587e-05
-0.000146451
-3.88996e-05
-0.000147798
-5.07001e-05
-0.000148772
-6.44588e-05
-0.000148712
-8.08361e-05
-0.000147031
-0.000100686
-0.000143445
-0.000123056
-0.000137381
-0.000144385
-0.000127543
-0.000160359
-0.00011283
-0.000168246
-9.36692e-05
-0.000167454
-7.23502e-05
-0.000160388
-5.26187e-05
-0.00015192
-3.69524e-05
-0.000145776
-2.43101e-05
-0.000140888
-1.40424e-05
-0.000137023
-6.30294e-06
-0.000135867
-7.34268e-08
-0.000137097
6.58548e-06
-0.000140566
1.40238e-05
2.31544e-05
-0.000145713
-6.69235e-06
-0.000134709
-1.37993e-05
-0.000137084
-2.14878e-05
-0.000137455
-3.00298e-05
-0.000137909
-3.96759e-05
-0.000138151
-5.05744e-05
-0.000137873
-6.26581e-05
-0.000136629
-7.57956e-05
-0.000133893
-9.00525e-05
-0.000129188
-0.000105217
-0.000122217
-0.000119941
-0.000112818
-0.000131974
-0.000100797
-0.000139495
-8.61485e-05
-0.000142072
-6.97729e-05
-0.000140972
-5.37184e-05
-0.000138399
-3.95258e-05
-0.000135217
-2.74921e-05
-0.000131942
-1.73167e-05
-0.000129425
-8.82076e-06
-0.000128492
-1.00591e-06
-0.000128858
6.95166e-06
-0.000130376
1.55412e-05
2.5292e-05
-0.000132513
-6.90927e-06
-0.000127799
-1.41461e-05
-0.000129847
-2.18222e-05
-0.000129779
-3.01259e-05
-0.000129605
-3.92129e-05
-0.000129064
-4.91716e-05
-0.000127915
-5.99477e-05
-0.000125853
-7.12955e-05
-0.000122545
-8.28701e-05
-0.000117614
-9.43318e-05
-0.000110756
-0.00010519
-0.00010196
-0.000114585
-9.14011e-05
-0.000121495
-7.92391e-05
-0.000125324
-6.59442e-05
-0.000126469
-5.2573e-05
-0.000125855
-4.01404e-05
-0.000124271
-2.90755e-05
-0.000122345
-1.92427e-05
-0.000120811
-1.0355e-05
-0.000120002
-1.81496e-06
-0.000119778
6.72827e-06
-0.000119989
1.57519e-05
2.54967e-05
-0.000120194
-6.90242e-06
-0.000120897
-1.40621e-05
-0.000122688
-2.15381e-05
-0.000122303
-2.94596e-05
-0.000121683
-3.79156e-05
-0.000120609
-4.69396e-05
-0.000118891
-5.64844e-05
-0.000116308
-6.63853e-05
-0.000112644
-7.63138e-05
-0.000107686
-8.58412e-05
-0.000101228
-9.45868e-05
-9.32154e-05
-0.000102165
-8.3823e-05
-0.000108072
-7.33317e-05
-0.000111917
-6.20988e-05
-0.000113797
-5.06932e-05
-0.000114156
-3.97818e-05
-0.000113627
-2.9604e-05
-0.000112709
-2.01611e-05
-0.000111831
-1.12327e-05
-0.000111086
-2.55932e-06
-0.000110486
6.12815e-06
-0.000109867
1.51327e-05
2.45279e-05
-0.000108899
-6.73381e-06
-0.000114163
-1.367e-05
-0.000115752
-2.08222e-05
-0.000115151
-2.82785e-05
-0.000114227
-3.6084e-05
-0.000112803
-4.42361e-05
-0.000110739
-5.26655e-05
-0.000107878
-6.12409e-05
-0.000104069
-6.97483e-05
-9.91787e-05
-7.78757e-05
-9.31002e-05
-8.52765e-05
-8.58148e-05
-9.16449e-05
-7.74546e-05
-9.6718e-05
-6.82586e-05
-0.000100316
-5.85011e-05
-0.000102475
-4.85343e-05
-0.000103451
-3.88053e-05
-0.000103655
-2.94e-05
-0.000103385
-2.04306e-05
-0.000102849
-1.17689e-05
-0.000102174
-3.23446e-06
-0.000101354
5.30783e-06
-0.000100245
1.40242e-05
2.29036e-05
-9.86211e-05
-6.45358e-06
-0.00010771
-1.30662e-05
-0.000109139
-1.98184e-05
-0.000108398
-2.67682e-05
-0.000107277
-3.39332e-05
-0.000105638
-4.12948e-05
-0.000103378
-4.87834e-05
-0.000100389
-5.62808e-05
-9.65714e-05
-6.36187e-05
-9.18411e-05
-7.0581e-05
-8.6138e-05
-7.69234e-05
-7.94725e-05
-8.24165e-05
-7.19618e-05
-8.68822e-05
-6.37924e-05
-9.02225e-05
-5.51608e-05
-9.24598e-05
-4.62968e-05
-9.37875e-05
-3.74774e-05
-9.43849e-05
-2.88026e-05
-9.44816e-05
-2.03339e-05
-9.41265e-05
-1.21239e-05
-9.35216e-05
-3.83943e-06
-9.25883e-05
4.37449e-06
-9.12252e-05
1.26612e-05
2.09647e-05
-8.92862e-05
-6.10093e-06
-0.000101609
-1.23245e-05
-0.000102916
-1.86334e-05
-0.000102089
-2.50611e-05
-0.00010085
-3.16092e-05
-9.90901e-05
-3.82502e-05
-9.67371e-05
-4.49217e-05
-9.37175e-05
-5.15255e-05
-8.9968e-05
-5.7924e-05
-8.54425e-05
-6.39489e-05
-8.01132e-05
-6.94244e-05
-7.39969e-05
-7.42033e-05
-6.7183e-05
-7.81785e-05
-5.98169e-05
-8.12791e-05
-5.206e-05
-8.34995e-05
-4.40764e-05
-8.49544e-05
-3.60224e-05
-8.57412e-05
-2.80157e-05
-8.59963e-05
-2.00787e-05
-8.58734e-05
-1.22467e-05
-8.52713e-05
-4.44137e-06
-8.42896e-05
3.39283e-06
-8.28284e-05
1.12001e-05
1.89287e-05
-8.07924e-05
-5.70503e-06
-9.59041e-05
-1.15016e-05
-9.71195e-05
-1.73463e-05
-9.62446e-05
-2.32524e-05
-9.49438e-05
-2.92131e-05
-9.31295e-05
-3.51951e-05
-9.07549e-05
-4.11419e-05
-8.77707e-05
-4.69722e-05
-8.41381e-05
-5.25831e-05
-7.98315e-05
-5.78521e-05
-7.48443e-05
-6.26457e-05
-6.92032e-05
-6.68489e-05
-6.29798e-05
-7.03855e-05
-5.62805e-05
-7.32164e-05
-4.92289e-05
-7.53438e-05
-4.19488e-05
-7.68189e-05
-3.45473e-05
-7.77008e-05
-2.71336e-05
-7.80664e-05
-1.97129e-05
-7.79898e-05
-1.23232e-05
-7.7445e-05
-4.98607e-06
-7.64866e-05
2.43438e-06
-7.50327e-05
9.74617e-06
1.69301e-05
-7.30341e-05
-5.28472e-06
-9.06196e-05
-1.06368e-05
-9.17677e-05
-1.60107e-05
-9.08709e-05
-2.14066e-05
-8.95479e-05
-2.68118e-05
-8.77247e-05
-3.21925e-05
-8.5374e-05
-3.74994e-05
-8.24639e-05
-4.26648e-05
-7.89729e-05
-4.7606e-05
-7.48902e-05
-5.22295e-05
-7.0221e-05
-5.64395e-05
-6.49933e-05
-6.01534e-05
-5.92657e-05
-6.33131e-05
-5.3121e-05
-6.58879e-05
-4.6654e-05
-6.78759e-05
-3.99606e-05
-6.92966e-05
-3.31265e-05
-7.0205e-05
-2.62251e-05
-7.0598e-05
-1.93196e-05
-7.05618e-05
-1.23595e-05
-7.01154e-05
-5.43255e-06
-6.91867e-05
1.50558e-06
-6.77975e-05
8.35699e-06
1.50455e-05
-6.59129e-05
-4.85214e-06
-8.57677e-05
-9.75569e-06
-8.68645e-05
-1.4662e-05
-8.59647e-05
-1.95647e-05
-8.46451e-05
-2.44464e-05
-8.28433e-05
-2.92749e-05
-8.05454e-05
-3.40066e-05
-7.77324e-05
-3.85855e-05
-7.4394e-05
-4.2947e-05
-7.05286e-05
-4.70198e-05
-6.61482e-05
-5.07315e-05
-6.12818e-05
-5.40189e-05
-5.59781e-05
-5.68373e-05
-5.03026e-05
-5.91614e-05
-4.43298e-05
-6.0985e-05
-3.81369e-05
-6.23185e-05
-3.17929e-05
-6.31901e-05
-2.53535e-05
-6.36305e-05
-1.88793e-05
-6.3605e-05
-1.2385e-05
-6.31965e-05
-5.8411e-06
-6.23516e-05
6.60604e-07
-6.10695e-05
7.07505e-06
1.33173e-05
-5.93412e-05
-4.41581e-06
-8.13521e-05
-8.87466e-06
-8.24057e-05
-1.3323e-05
-8.15166e-05
-1.77517e-05
-8.0216e-05
-2.21405e-05
-7.84547e-05
-2.64596e-05
-7.62263e-05
-3.06709e-05
-7.35214e-05
-3.47278e-05
-7.0337e-05
-3.85784e-05
-6.6678e-05
-4.21671e-05
-6.25594e-05
-4.54396e-05
-5.80095e-05
-4.83477e-05
-5.307e-05
-5.08555e-05
-4.77948e-05
-5.29414e-05
-4.22438e-05
-5.45978e-05
-3.64806e-05
-5.58267e-05
-3.0564e-05
-5.66409e-05
-2.45393e-05
-5.70473e-05
-1.84728e-05
-5.70927e-05
-1.23395e-05
-5.6717e-05
-6.21664e-06
-5.59543e-05
-1.01963e-07
-5.47964e-05
5.9173e-06
1.1764e-05
-5.32429e-05
-3.98265e-06
-7.73698e-05
-8.00512e-06
-7.83831e-05
-1.20084e-05
-7.75134e-05
-1.59831e-05
-7.62411e-05
-1.99069e-05
-7.4531e-05
-2.37529e-05
-7.23803e-05
-2.74879e-05
-6.97865e-05
-3.10732e-05
-6.67517e-05
-3.44668e-05
-6.32844e-05
-3.76251e-05
-5.94012e-05
-4.05058e-05
-5.51289e-05
-4.30717e-05
-5.05042e-05
-4.52942e-05
-4.55723e-05
-4.7154e-05
-4.0384e-05
-4.86421e-05
-3.49925e-05
-4.9758e-05
-2.94481e-05
-5.05031e-05
-2.37942e-05
-5.09035e-05
-1.80721e-05
-5.094e-05
-1.23028e-05
-5.06271e-05
-6.52934e-06
-4.99522e-05
-7.767e-07
-4.89256e-05
4.89095e-06
1.03906e-05
-4.7552e-05
-3.55853e-06
-7.38113e-05
-7.15548e-06
-7.47862e-05
-1.07281e-05
-7.39405e-05
-1.42679e-05
-7.27015e-05
-1.77514e-05
-7.10475e-05
-2.11548e-05
-6.89768e-05
-2.44497e-05
-6.64919e-05
-2.76036e-05
-6.35979e-05
-3.05823e-05
-6.03056e-05
-3.33512e-05
-5.66325e-05
-3.58768e-05
-5.26034e-05
-3.813e-05
-4.8251e-05
-4.00878e-05
-4.36143e-05
-4.17343e-05
-3.87374e-05
-4.30602e-05
-3.36666e-05
-4.40614e-05
-2.84468e-05
-4.47381e-05
-2.31173e-05
-4.51015e-05
-1.77084e-05
-4.51496e-05
-1.22544e-05
-4.48833e-05
-6.79543e-06
-4.43005e-05
-1.35934e-06
-4.34071e-05
3.9978e-06
9.19495e-06
-4.22112e-05
-3.14775e-06
-7.06634e-05
-6.3309e-06
-7.16033e-05
-9.48774e-06
-7.07833e-05
-1.261e-05
-6.95798e-05
-1.5675e-05
-6.79824e-05
-1.86616e-05
-6.599e-05
-2.15457e-05
-6.3608e-05
-2.43001e-05
-6.08436e-05
-2.6897e-05
-5.77088e-05
-2.93085e-05
-5.42211e-05
-3.15081e-05
-5.04039e-05
-3.34725e-05
-4.62865e-05
-3.51832e-05
-4.19034e-05
-3.66271e-05
-3.72935e-05
-3.7796e-05
-3.24977e-05
-3.86856e-05
-2.75572e-05
-3.92938e-05
-2.2509e-05
-3.96218e-05
-1.73802e-05
-3.96721e-05
-1.22041e-05
-3.94568e-05
-7.01055e-06
-3.89589e-05
-1.8571e-06
-3.81952e-05
3.23439e-06
8.17029e-06
-3.71704e-05
-2.75083e-06
-6.79124e-05
-5.53212e-06
-6.8822e-05
-8.28747e-06
-6.80277e-05
-1.10081e-05
-6.68595e-05
-1.36736e-05
-6.53167e-05
-1.62655e-05
-6.33981e-05
-1.87629e-05
-6.11108e-05
-2.11435e-05
-5.8463e-05
-2.33849e-05
-5.54675e-05
-2.54644e-05
-5.21416e-05
-2.7361e-05
-4.85072e-05
-2.90561e-05
-4.45912e-05
-3.05348e-05
-4.04246e-05
-3.17864e-05
-3.60419e-05
-3.28039e-05
-3.14802e-05
-3.35834e-05
-2.67777e-05
-3.4122e-05
-2.19703e-05
-3.44166e-05
-1.70855e-05
-3.44742e-05
-1.21464e-05
-3.42971e-05
-7.1875e-06
-3.38903e-05
-2.26378e-06
-3.3248e-05
2.59232e-06
7.30779e-06
-3.23854e-05
-2.36424e-06
-6.55482e-05
-4.75596e-06
-6.64302e-05
-7.12347e-06
-6.56602e-05
-9.45741e-06
-6.45258e-05
-1.17404e-05
-6.30335e-05
-1.39559e-05
-6.11827e-05
-1.60865e-05
-5.89803e-05
-1.81141e-05
-5.64355e-05
-2.00206e-05
-5.35611e-05
-2.17882e-05
-5.0374e-05
-2.34002e-05
-4.68952e-05
-2.48418e-05
-4.31494e-05
-2.61011e-05
-3.91652e-05
-2.71692e-05
-3.49738e-05
-2.80404e-05
-3.06089e-05
-2.87121e-05
-2.61059e-05
-2.91823e-05
-2.14999e-05
-2.94476e-05
-1.68201e-05
-2.95095e-05
-1.20846e-05
-2.93743e-05
-7.32258e-06
-2.90468e-05
-2.59116e-06
-2.85242e-05