/*--------------------------------*- C++ -*----------------------------------*\
| =========                 |                                                 |
| \\      /  F ield         | OpenFOAM: The Open Source CFD Toolbox           |
|  \\    /   O peration     | Version:  2206                                  |
|   \\  /    A nd           | Website:  www.openfoam.com                      |
|    \\/     M anipulation  |                                                 |
\*---------------------------------------------------------------------------*/
FoamFile
{
    version     2.0;
    format      ascii;
    arch        "LSB;label=32;scalar=64";
    class       volVectorField;
    location    "0.2";
    object      U;
}
// * * * * * * * * * * * * * * * * * * * * * * * * * * * * * * * * * * * * * //

dimensions      [0 1 -1 0 0 0 0];

internalField   nonuniform List<vector> 
2268
(
(0.00506692 -0.00546386 0)
(0.0503903 -0.0152905 0)
(0.122462 -0.0171349 0)
(0.194613 -0.0158661 0)
(0.259626 -0.0145159 0)
(0.31933 -0.0138661 0)
(0.377525 -0.013797 0)
(0.436428 -0.0140176 0)
(0.496562 -0.0142719 0)
(0.557564 -0.0143778 0)
(0.618533 -0.0142019 0)
(0.678048 -0.0136178 0)
(0.734097 -0.0124729 0)
(0.783921 -0.0105699 0)
(0.823678 -0.00754826 0)
(0.848149 -0.00239088 0)
(0.845481 0.00823902 0)
(0.791245 0.0266511 0)
(0.663717 0.0525672 0)
(0.440892 0.0790086 0)
(0.132868 0.0815863 0)
(-0.230369 -0.0198267 0)
(-0.161455 -0.15803 0)
(0.00526146 -0.0166489 0)
(0.0511515 -0.0459572 0)
(0.123441 -0.0515115 0)
(0.195421 -0.0478103 0)
(0.260275 -0.0437913 0)
(0.320049 -0.0418556 0)
(0.378485 -0.0416758 0)
(0.437712 -0.0423642 0)
(0.498224 -0.0431486 0)
(0.559666 -0.0434948 0)
(0.621174 -0.0430112 0)
(0.681375 -0.0413134 0)
(0.738298 -0.0379411 0)
(0.78928 -0.0322844 0)
(0.830845 -0.0234148 0)
(0.858394 -0.00944798 0)
(0.871539 0.0132797 0)
(0.875617 0.0493874 0)
(0.860918 0.102057 0)
(0.786983 0.16848 0)
(0.596416 0.215148 0)
(0.206933 0.162142 0)
(0.13588 -0.0874966 0)
(0.0055933 -0.0281461 0)
(0.0520757 -0.0765144 0)
(0.124163 -0.0856674 0)
(0.195342 -0.0795693 0)
(0.259465 -0.0729085 0)
(0.318931 -0.0697433 0)
(0.377397 -0.0695279 0)
(0.436842 -0.0707382 0)
(0.497699 -0.0720884 0)
(0.55962 -0.0727186 0)
(0.62179 -0.0719957 0)
(0.682907 -0.0692834 0)
(0.741109 -0.0638211 0)
(0.793873 -0.0546102 0)
(0.837924 -0.0402882 0)
(0.868967 -0.0190172 0)
(0.881855 0.0109534 0)
(0.872381 0.054291 0)
(0.845533 0.117823 0)
(0.808692 0.20831 0)
(0.758919 0.301196 0)
(0.516096 0.295129 0)
(0.285788 0.0516427 0)
(0.00614352 -0.0400372 0)
(0.0534697 -0.107022 0)
(0.125182 -0.119479 0)
(0.195251 -0.11095 0)
(0.258414 -0.101774 0)
(0.31751 -0.0975573 0)
(0.376088 -0.0974588 0)
(0.435922 -0.0992921 0)
(0.49735 -0.101286 0)
(0.560038 -0.102292 0)
(0.623242 -0.101458 0)
(0.685768 -0.0979123 0)
(0.745919 -0.090614 0)
(0.801378 -0.0782063 0)
(0.849001 -0.0588943 0)
(0.884543 -0.0304948 0)
(0.903264 0.00965143 0)
(0.899286 0.0645692 0)
(0.869066 0.137258 0)
(0.809561 0.231595 0)
(0.764952 0.348705 0)
(0.622703 0.406274 0)
(0.366158 0.250423 0)
(0.00695121 -0.0524944 0)
(0.0553225 -0.137523 0)
(0.126407 -0.152797 0)
(0.19504 -0.141773 0)
(0.257039 -0.130301 0)
(0.315723 -0.125302 0)
(0.374486 -0.125519 0)
(0.434833 -0.128101 0)
(0.496987 -0.130841 0)
(0.560642 -0.13235 0)
(0.625151 -0.131582 0)
(0.689474 -0.12746 0)
(0.752149 -0.118685 0)
(0.811101 -0.103524 0)
(0.863327 -0.0796905 0)
(0.904613 -0.044469 0)
(0.930275 0.00505649 0)
(0.934883 0.07184 0)
(0.913691 0.158363 0)
(0.852612 0.261914 0)
(0.769782 0.389434 0)
(0.641375 0.509913 0)
(0.398658 0.471159 0)
(0.008097 -0.0658254 0)
(0.0575794 -0.168008 0)
(0.127702 -0.185489 0)
(0.194578 -0.171927 0)
(0.255245 -0.15846 0)
(0.31349 -0.153019 0)
(0.372476 -0.153785 0)
(0.433388 -0.157254 0)
(0.496331 -0.160861 0)
(0.561046 -0.163033 0)
(0.627022 -0.162574 0)
(0.693437 -0.158238 0)
(0.759118 -0.148488 0)
(0.822236 -0.131186 0)
(0.879924 -0.103483 0)
(0.928054 -0.0621383 0)
(0.961977 -0.00387364 0)
(0.976381 0.0744258 0)
(0.965724 0.175634 0)
(0.917403 0.297844 0)
(0.818267 0.442154 0)
(0.663024 0.615075 0)
(0.413546 0.714791 0)
(0.00960779 -0.0800623 0)
(0.0600879 -0.198375 0)
(0.12888 -0.217482 0)
(0.193737 -0.201386 0)
(0.25296 -0.186237 0)
(0.310742 -0.180684 0)
(0.369951 -0.182216 0)
(0.431417 -0.186695 0)
(0.495134 -0.191274 0)
(0.560923 -0.194261 0)
(0.628453 -0.194351 0)
(0.697184 -0.190173 0)
(0.766258 -0.179961 0)
(0.834065 -0.161136 0)
(0.897907 -0.13029 0)
(0.953922 -0.0837243 0)
(0.997739 -0.0180425 0)
(1.02385 0.0707217 0)
(1.02571 0.186296 0)
(0.992677 0.331119 0)
(0.90316 0.504349 0)
(0.73212 0.718546 0)
(0.462224 0.965315 0)
(0.0113797 -0.0951422 0)
(0.0626118 -0.22872 0)
(0.129745 -0.248731 0)
(0.192453 -0.230124 0)
(0.250206 -0.21365 0)
(0.307507 -0.208296 0)
(0.366898 -0.210763 0)
(0.428853 -0.216333 0)
(0.493278 -0.221958 0)
(0.560108 -0.225873 0)
(0.629242 -0.226707 0)
(0.700466 -0.222989 0)
(0.773219 -0.212667 0)
(0.84612 -0.192637 0)
(0.916741 -0.15898 0)
(0.981594 -0.107695 0)
(1.03674 -0.0350435 0)
(1.07651 0.0631076 0)
(1.0945 0.191486 0)
(1.08015 0.356573 0)
(1.01191 0.566011 0)
(0.853908 0.830852 0)
(0.472818 1.27871 0)
(-0.0110638 0.00230041 0)
(-0.0240477 0.00355438 0)
(-0.0363474 0.00408355 0)
(-0.0473204 0.00274566 0)
(-0.0511272 0.00104269 0)
(-0.0497169 -0.000326676 0)
(-0.0452368 -0.000992968 0)
(-0.0399919 -0.00119919 0)
(-0.0343945 -0.00128408 0)
(-0.0289737 -0.00127794 0)
(-0.0239845 -0.00120613 0)
(-0.0195213 -0.0010807 0)
(-0.0155864 -0.000959681 0)
(-0.0121598 -0.000850011 0)
(-0.00924683 -0.000765449 0)
(-0.00677088 -0.000676645 0)
(-0.00459513 -0.000614503 0)
(-0.00253402 -0.000627262 0)
(-0.000748722 -0.000459702 0)
(-0.0297875 0.0159092 0)
(-0.0542542 0.0118149 0)
(-0.0615178 0.00921415 0)
(-0.0622268 0.00441772 0)
(-0.0576493 0.00013598 0)
(-0.0523323 -0.00262421 0)
(-0.0462283 -0.00407228 0)
(-0.0394619 -0.00454295 0)
(-0.0328129 -0.00451895 0)
(-0.0266753 -0.00424814 0)
(-0.0212427 -0.00383657 0)
(-0.0165931 -0.00334088 0)
(-0.0126937 -0.00287543 0)
(-0.0094622 -0.00244203 0)
(-0.00686528 -0.00208688 0)
(-0.00480331 -0.00175587 0)
(-0.00313575 -0.00152053 0)
(-0.00165434 -0.00153741 0)
(-0.000478716 -0.00108337 0)
(-0.0316867 0.0358123 0)
(-0.0535232 0.0205313 0)
(-0.0589495 0.0126325 0)
(-0.0615233 0.0040971 0)
(-0.0586778 -0.00195525 0)
(-0.0536895 -0.00559937 0)
(-0.0472175 -0.00746574 0)
(-0.0403204 -0.00807722 0)
(-0.0336029 -0.00785421 0)
(-0.0274183 -0.00724483 0)
(-0.0219159 -0.00643626 0)
(-0.0171985 -0.0055499 0)
(-0.0132309 -0.00471697 0)
(-0.00992179 -0.00393406 0)
(-0.00723961 -0.00326877 0)
(-0.00508568 -0.00268442 0)
(-0.00333814 -0.00226564 0)
(-0.00178333 -0.0022996 0)
(-0.000529796 -0.00154673 0)
(-0.0349136 0.0578059 0)
(-0.0590986 0.0290893 0)
(-0.0631595 0.0167971 0)
(-0.0658965 0.00458648 0)
(-0.0618696 -0.0035118 0)
(-0.0557099 -0.00866023 0)
(-0.0482791 -0.0110319 0)
(-0.0407925 -0.0116503 0)
(-0.0337397 -0.0112488 0)
(-0.0273715 -0.0103014 0)
(-0.0217632 -0.00909601 0)
(-0.0170126 -0.00785666 0)
(-0.0130477 -0.00662965 0)
(-0.00974963 -0.0055062 0)
(-0.00708589 -0.00452136 0)
(-0.00495425 -0.00368061 0)
(-0.00325111 -0.00309883 0)
(-0.00174374 -0.00311882 0)
(-0.000519224 -0.00208706 0)
(-0.04669 0.0787684 0)
(-0.0756332 0.0372231 0)
(-0.0724056 0.0206904 0)
(-0.0728019 0.00396794 0)
(-0.0660967 -0.00621462 0)
(-0.0582352 -0.0125296 0)
(-0.0494779 -0.0151416 0)
(-0.0411711 -0.015563 0)
(-0.0336423 -0.0148371 0)
(-0.0270024 -0.0134497 0)
(-0.0212839 -0.0118002 0)
(-0.0164911 -0.0101721 0)
(-0.0125179 -0.00853754 0)
(-0.00926412 -0.00704287 0)
(-0.00665876 -0.00573517 0)
(-0.00461838 -0.00466761 0)
(-0.00301341 -0.00390141 0)
(-0.00160594 -0.00388907 0)
(-0.000482474 -0.00260715 0)
(-0.0597235 0.121624 0)
(-0.100092 0.046452 0)
(-0.0849497 0.0215741 0)
(-0.0824058 0.00111025 0)
(-0.0712655 -0.0101973 0)
(-0.0612019 -0.0172733 0)
(-0.0507569 -0.0198157 0)
(-0.0414881 -0.0198332 0)
(-0.0334112 -0.0185964 0)
(-0.0264555 -0.0166865 0)
(-0.0206138 -0.0145724 0)
(-0.0157818 -0.0124692 0)
(-0.0118046 -0.0104066 0)
(-0.00860993 -0.00851526 0)
(-0.0061113 -0.00692401 0)
(-0.00418245 -0.00559938 0)
(-0.00268769 -0.00462283 0)
(-0.00142414 -0.00458289 0)
(-0.000433366 -0.00307367 0)
(-0.103841 0.145482 0)
(-0.132942 0.0425307 0)
(-0.101735 0.0201876 0)
(-0.0960687 -0.00520717 0)
(-0.0779505 -0.0160323 0)
(-0.0648502 -0.0231611 0)
(-0.0522837 -0.0252272 0)
(-0.0418582 -0.0246441 0)
(-0.0331195 -0.0226376 0)
(-0.0258203 -0.0201266 0)
(-0.0198254 -0.0174442 0)
(-0.0149158 -0.0148245 0)
(-0.0109369 -0.012289 0)
(-0.00783646 -0.0100203 0)
(-0.00545489 -0.00810093 0)
(-0.00363753 -0.00648103 0)
(-0.00229384 -0.00529732 0)
(-0.0012038 -0.0051958 0)
(-0.000372154 -0.00349654 0)
(-0.10467 0.258227 0)
(-0.181374 0.0609552 0)
(-0.118689 0.0188469 0)
(-0.11594 -0.0149659 0)
(-0.085769 -0.0245525 0)
(-0.0686144 -0.0304162 0)
(-0.0534799 -0.031248 0)
(-0.0418159 -0.0297273 0)
(-0.0324113 -0.0268348 0)
(-0.0248377 -0.0236862 0)
(-0.0187203 -0.0203278 0)
(-0.0137853 -0.0171827 0)
(-0.00983886 -0.014214 0)
(-0.00685781 -0.0115239 0)
(-0.00461737 -0.00923695 0)
(-0.00296405 -0.0073337 0)
(-0.00180321 -0.00593833 0)
(-0.000929445 -0.00574828 0)
(-0.000301285 -0.00388666 0)
(0.0141149 -0.121371 0)
(0.0660767 -0.276216 0)
(0.130242 -0.295442 0)
(0.189568 -0.273156 0)
(0.245156 -0.255822 0)
(0.301712 -0.251683 0)
(0.361218 -0.256063 0)
(0.423699 -0.263632 0)
(0.489036 -0.271269 0)
(0.557424 -0.277245 0)
(0.629237 -0.280221 0)
(0.704802 -0.278555 0)
(0.784089 -0.269664 0)
(0.866386 -0.249694 0)
(0.949936 -0.213932 0)
(1.03155 -0.157461 0)
(1.1075 -0.0754485 0)
(1.17107 0.0369568 0)
(1.21622 0.185425 0)
(1.23917 0.377481 0)
(1.2101 0.633195 0)
(1.21619 0.923285 0)
(0.98112 1.52821 0)
(0.0176266 -0.159789 0)
(0.0704259 -0.339339 0)
(0.1303 -0.355083 0)
(0.184843 -0.328371 0)
(0.237652 -0.311446 0)
(0.293281 -0.310121 0)
(0.352735 -0.317708 0)
(0.415594 -0.328425 0)
(0.481869 -0.3394 0)
(0.552241 -0.349234 0)
(0.627881 -0.3568 0)
(0.709863 -0.360174 0)
(0.79924 -0.356472 0)
(0.896958 -0.341191 0)
(1.00235 -0.307843 0)
(1.11198 -0.24922 0)
(1.22171 -0.159104 0)
(1.32529 -0.0285829 0)
(1.4126 0.147406 0)
(1.48941 0.384035 0)
(1.51951 0.67502 0)
(1.5999 0.952874 0)
(1.56134 1.42683 0)
(0.0211557 -0.202791 0)
(0.0738709 -0.399568 0)
(0.128624 -0.408959 0)
(0.178225 -0.379381 0)
(0.228441 -0.365074 0)
(0.282937 -0.36781 0)
(0.34163 -0.379138 0)
(0.403905 -0.393452 0)
(0.47003 -0.408642 0)
(0.541401 -0.424004 0)
(0.619976 -0.4386 0)
(0.707249 -0.450597 0)
(0.806177 -0.458289 0)
(0.920672 -0.45544 0)
(1.05097 -0.43134 0)
(1.1916 -0.378347 0)
(1.34017 -0.294179 0)
(1.48615 -0.163219 0)
(1.62891 0.00686934 0)
(1.75711 0.209312 0)
(1.80668 0.485544 0)
(1.82675 0.811729 0)
(1.85715 1.21881 0)
(0.0243459 -0.249508 0)
(0.0758982 -0.456224 0)
(0.125017 -0.457439 0)
(0.169947 -0.427005 0)
(0.217769 -0.417002 0)
(0.270648 -0.424269 0)
(0.327644 -0.439367 0)
(0.388164 -0.457467 0)
(0.45276 -0.4777 0)
(0.52371 -0.500001 0)
(0.602729 -0.523544 0)
(0.691302 -0.547945 0)
(0.796187 -0.573368 0)
(0.925378 -0.588643 0)
(1.07682 -0.580899 0)
(1.23795 -0.549982 0)
(1.40741 -0.506907 0)
(1.571 -0.41937 0)
(1.68093 -0.252396 0)
(1.75879 0.0825638 0)
(1.82891 0.47525 0)
(1.8473 0.785469 0)
(1.9023 1.13928 0)
(0.0269825 -0.299012 0)
(0.0763382 -0.508176 0)
(0.119535 -0.500355 0)
(0.160261 -0.471317 0)
(0.205727 -0.466756 0)
(0.256262 -0.478507 0)
(0.310508 -0.497149 0)
(0.367771 -0.519124 0)
(0.428948 -0.544953 0)
(0.496516 -0.574422 0)
(0.569814 -0.607408 0)
(0.652567 -0.64538 0)
(0.757087 -0.692697 0)
(0.892763 -0.736016 0)
(1.04793 -0.760294 0)
(1.19614 -0.74802 0)
(1.31608 -0.70362 0)
(1.40384 -0.468927 0)
(1.47878 -0.151367 0)
(1.55566 0.119645 0)
(1.64076 0.48143 0)
(1.71445 0.81758 0)
(1.8507 1.05903 0)
(0.0289983 -0.350433 0)
(0.0753114 -0.55489 0)
(0.112403 -0.538312 0)
(0.149455 -0.512839 0)
(0.192332 -0.51415 0)
(0.239535 -0.529833 0)
(0.289626 -0.551401 0)
(0.341322 -0.576741 0)
(0.396173 -0.606956 0)
(0.45478 -0.641 0)
(0.515044 -0.680325 0)
(0.587815 -0.729896 0)
(0.685198 -0.813573 0)
(0.813966 -0.903956 0)
(0.955896 -0.937602 0)
(1.06653 -0.859492 0)
(1.13082 -0.731851 0)
(1.17452 -0.465601 0)
(1.27613 -0.133439 0)
(1.36355 0.16305 0)
(1.50276 0.476206 0)
(1.55662 0.775759 0)
(1.72104 0.875008 0)
(0.0305508 -0.403101 0)
(0.0730537 -0.59597 0)
(0.103595 -0.571954 0)
(0.137276 -0.551719 0)
(0.176774 -0.55837 0)
(0.219106 -0.576641 0)
(0.262859 -0.599558 0)
(0.306028 -0.626228 0)
(0.351431 -0.657352 0)
(0.397107 -0.692804 0)
(0.446773 -0.736861 0)
(0.514465 -0.81103 0)
(0.609302 -0.955858 0)
(0.738475 -1.06469 0)
(0.847651 -1.03263 0)
(0.98459 -0.894265 0)
(1.16017 -0.713317 0)
(1.22782 -0.467432 0)
(1.18202 -0.241676 0)
(1.10887 -0.103155 0)
(1.31153 0.24353 0)
(1.39432 0.658464 0)
(1.54254 0.670777 0)
(0.0318837 -0.455103 0)
(0.0695604 -0.628911 0)
(0.0923021 -0.599798 0)
(0.12254 -0.585887 0)
(0.157183 -0.596307 0)
(0.192719 -0.615131 0)
(0.228265 -0.637533 0)
(0.262277 -0.663906 0)
(0.29976 -0.696311 0)
(0.341951 -0.739147 0)
(0.403298 -0.801753 0)
(0.498715 -0.924833 0)
(0.640264 -1.09886 0)
(0.788052 -1.14403 0)
(0.867207 -1.07791 0)
(1.07141 -1.04526 0)
(1.21597 -0.817215 0)
(1.04242 -0.447294 0)
(0.812333 -0.158571 0)
(0.714927 -0.0921146 0)
(0.893698 0.0574204 0)
(1.06876 0.523243 0)
(1.15369 0.535768 0)
(0.0340343 -0.506256 0)
(0.0653553 -0.651641 0)
(0.0772558 -0.621116 0)
(0.104257 -0.615146 0)
(0.133367 -0.627983 0)
(0.162381 -0.646819 0)
(0.193377 -0.670044 0)
(0.227404 -0.700343 0)
(0.277064 -0.745995 0)
(0.360216 -0.814232 0)
(0.49578 -0.916554 0)
(0.743511 -1.08352 0)
(0.936862 -1.19554 0)
(0.986705 -1.15835 0)
(0.868624 -1.26714 0)
(0.931803 -1.19007 0)
(0.99151 -0.712 0)
(0.73764 -0.177572 0)
(0.563369 -0.05155 0)
(0.53279 -0.153195 0)
(0.57302 -0.108083 0)
(0.808246 0.323962 0)
(0.706486 0.554955 0)
(0.0386498 -0.56276 0)
(0.0630289 -0.670762 0)
(0.0606405 -0.643866 0)
(0.0877313 -0.647738 0)
(0.117284 -0.662754 0)
(0.151952 -0.684198 0)
(0.203665 -0.715713 0)
(0.27896 -0.764619 0)
(0.405553 -0.846488 0)
(0.668303 -0.986402 0)
(0.919668 -1.14829 0)
(1.10584 -1.25356 0)
(1.17189 -1.29 0)
(1.05513 -1.07757 0)
(0.754112 -1.22264 0)
(0.687803 -1.12208 0)
(0.70564 -0.634814 0)
(0.566955 -0.0334984 0)
(0.454551 -0.0124175 0)
(0.433731 -0.163446 0)
(0.409204 -0.18099 0)
(0.687335 0.13726 0)
(0.552473 0.54187 0)
(0.0420502 -0.622847 0)
(0.0695032 -0.684403 0)
(0.0649694 -0.667123 0)
(0.10639 -0.684985 0)
(0.162008 -0.706779 0)
(0.247255 -0.745288 0)
(0.401131 -0.82131 0)
(0.590894 -0.908984 0)
(0.81426 -1.09485 0)
(1.02136 -1.22896 0)
(1.21587 -1.35736 0)
(1.32391 -1.38368 0)
(1.32225 -1.15561 0)
(1.14094 -0.821579 0)
(0.724513 -1.03787 0)
(0.588558 -0.996011 0)
(0.547949 -0.574585 0)
(0.428394 0.0563761 0)
(0.328287 0.0319063 0)
(0.310267 -0.159065 0)
(0.277827 -0.23334 0)
(0.458012 0.0213778 0)
(0.578517 0.443296 0)
(0.0276855 -0.690638 0)
(0.0912102 -0.686875 0)
(0.15549 -0.68299 0)
(0.230441 -0.734912 0)
(0.33097 -0.788632 0)
(0.451809 -0.887141 0)
(0.589564 -0.992647 0)
(0.74499 -1.12712 0)
(0.912881 -1.29098 0)
(1.08148 -1.4324 0)
(1.24973 -1.48897 0)
(1.33085 -1.39239 0)
(1.30628 -1.03625 0)
(1.21126 -0.535392 0)
(0.739132 -0.769996 0)
(0.529804 -0.830542 0)
(0.448831 -0.436492 0)
(0.273922 0.160476 0)
(0.165386 0.0738767 0)
(0.14959 -0.142795 0)
(0.105505 -0.25983 0)
(0.167165 -0.126495 0)
(0.54902 0.226613 0)
(0.0169411 -0.720574 0)
(0.0701291 -0.731155 0)
(0.163026 -0.768072 0)
(0.243724 -0.831084 0)
(0.325528 -0.906679 0)
(0.416147 -1.00675 0)
(0.512297 -1.12764 0)
(0.619013 -1.2732 0)
(0.750546 -1.44422 0)
(0.915449 -1.60021 0)
(1.06394 -1.61627 0)
(1.10204 -1.416 0)
(1.04303 -0.998656 0)
(1.09881 -0.315139 0)
(0.694609 -0.471754 0)
(0.419792 -0.617163 0)
(0.309529 -0.237375 0)
(0.0324967 0.29541 0)
(-0.00853255 0.106715 0)
(-0.0431659 -0.11109 0)
(-0.108122 -0.266203 0)
(-0.0882402 -0.25346 0)
(0.207788 0.0126195 0)
(0.0214664 -0.766198 0)
(0.0657544 -0.847348 0)
(0.123896 -0.85808 0)
(0.180283 -0.909057 0)
(0.2338 -0.984783 0)
(0.28972 -1.08427 0)
(0.348308 -1.21144 0)
(0.424872 -1.38179 0)
(0.527284 -1.59562 0)
(0.663713 -1.75396 0)
(0.705534 -1.69691 0)
(0.671602 -1.40097 0)
(0.565108 -0.942216 0)
(0.708677 -0.253172 0)
(0.529496 -0.256033 0)
(0.244999 -0.374668 0)
(0.0718985 0.0697482 0)
(-0.224806 0.387994 0)
(-0.197502 0.143578 0)
(-0.238936 -0.0640486 0)
(-0.305439 -0.235086 0)
(-0.335028 -0.302495 0)
(-0.19648 -0.173956 0)
(0.0220524 -0.809622 0)
(0.0509569 -0.886778 0)
(0.0760112 -0.898722 0)
(0.107815 -0.948871 0)
(0.135955 -1.02369 0)
(0.161323 -1.1234 0)
(0.184247 -1.25874 0)
(0.220299 -1.45478 0)
(0.254062 -1.68814 0)
(0.293593 -1.79735 0)
(0.191393 -1.65716 0)
(0.130746 -1.32058 0)
(0.0468499 -0.882672 0)
(0.234309 -0.247593 0)
(0.158029 -0.169518 0)
(-0.0450097 -0.121284 0)
(-0.316519 0.375088 0)
(-0.447349 0.406547 0)
(-0.386113 0.162914 0)
(-0.415305 -0.0165429 0)
(-0.464067 -0.182613 0)
(-0.521857 -0.303185 0)
(-0.497505 -0.306268 0)
(0.0147181 -0.842034 0)
(0.0269728 -0.897525 0)
(0.032648 -0.917311 0)
(0.0430277 -0.965625 0)
(0.0465494 -1.03513 0)
(0.0408755 -1.12815 0)
(0.0240896 -1.25966 0)
(-0.000602363 -1.45317 0)
(-0.0645224 -1.65958 0)
(-0.152721 -1.71322 0)
(-0.325873 -1.55243 0)
(-0.385442 -1.25527 0)
(-0.402148 -0.86004 0)
(-0.25062 -0.386748 0)
(-0.326335 -0.157698 0)
(-0.456477 0.207952 0)
(-0.689627 0.52106 0)
(-0.624256 0.352114 0)
(-0.554748 0.154823 0)
(-0.564069 0.0166178 0)
(-0.599221 -0.121955 0)
(-0.674429 -0.247583 0)
(-0.767987 -0.298755 0)
(0.00491283 -0.857243 0)
(0.00286164 -0.894385 0)
(-0.00446793 -0.918159 0)
(-0.0129939 -0.960297 0)
(-0.0314513 -1.0189 0)
(-0.0646788 -1.09637 0)
(-0.116337 -1.20694 0)
(-0.200689 -1.36637 0)
(-0.349226 -1.52241 0)
(-0.533297 -1.56036 0)
(-0.721575 -1.43777 0)
(-0.82683 -1.1741 0)
(-0.863998 -0.763832 0)
(-0.891728 -0.31086 0)
(-0.995467 0.0415937 0)
(-0.982944 0.349324 0)
(-0.931033 0.460658 0)
(-0.757778 0.239016 0)
(-0.686287 0.124696 0)
(-0.673905 0.0323598 0)
(-0.6966 -0.0616758 0)
(-0.769583 -0.154244 0)
(-0.898142 -0.215666 0)
(-0.00375463 -0.853314 0)
(-0.0171616 -0.882044 0)
(-0.0352401 -0.903115 0)
(-0.0590085 -0.936721 0)
(-0.0934212 -0.981782 0)
(-0.14427 -1.03858 0)
(-0.217188 -1.11455 0)
(-0.333665 -1.22104 0)
(-0.520145 -1.32997 0)
(-0.745374 -1.36551 0)
(-0.959042 -1.27784 0)
(-1.14796 -1.06507 0)
(-1.27959 -0.739445 0)
(-1.33994 -0.330892 0)
(-1.31171 0.0481767 0)
(-1.18717 0.259695 0)
(-0.992833 0.241769 0)
(-0.82572 0.113064 0)
(-0.76434 0.0820369 0)
(-0.739492 0.0316665 0)
(-0.751664 -0.0173808 0)
(-0.808108 -0.0627832 0)
(-0.917736 -0.0906401 0)
(-0.00955041 -0.836595 0)
(-0.0324348 -0.860363 0)
(-0.059469 -0.876587 0)
(-0.0931124 -0.901191 0)
(-0.137011 -0.932816 0)
(-0.195872 -0.96921 0)
(-0.274407 -1.01074 0)
(-0.389193 -1.06538 0)
(-0.564155 -1.12426 0)
(-0.785926 -1.1395 0)
(-1.00921 -1.06574 0)
(-1.20023 -0.888319 0)
(-1.32742 -0.619463 0)
(-1.35673 -0.326856 0)
(-1.27348 -0.0918895 0)
(-1.11035 0.0297581 0)
(-0.938094 0.0318859 0)
(-0.834661 0.0202598 0)
(-0.789662 0.0376868 0)
(-0.763715 0.0218305 0)
(-0.770004 0.00964564 0)
(-0.808409 0.00279068 0)
(-0.884612 0.0109876 0)
(-0.013443 -0.81141 0)
(-0.0433011 -0.830879 0)
(-0.0766604 -0.842238 0)
(-0.116101 -0.85874 0)
(-0.164349 -0.878749 0)
(-0.224692 -0.899231 0)
(-0.299059 -0.916642 0)
(-0.395379 -0.932694 0)
(-0.531815 -0.946727 0)
(-0.709058 -0.936615 0)
(-0.893224 -0.871825 0)
(-1.04331 -0.745966 0)
(-1.13087 -0.576288 0)
(-1.1377 -0.389647 0)
(-1.06626 -0.227389 0)
(-0.955706 -0.129759 0)
(-0.862043 -0.0796 0)
(-0.810485 -0.0340224 0)
(-0.777207 0.000578463 0)
(-0.756734 0.010826 0)
(-0.75984 0.0250803 0)
(-0.7837 0.0443679 0)
(-0.831219 0.0766615 0)
(-0.0159515 -0.780001 0)
(-0.0503787 -0.796363 0)
(-0.0876032 -0.80331 0)
(-0.12991 -0.813054 0)
(-0.17921 -0.823862 0)
(-0.237637 -0.833182 0)
(-0.305547 -0.836885 0)
(-0.384175 -0.832254 0)
(-0.480953 -0.819236 0)
(-0.599889 -0.793511 0)
(-0.725715 -0.742793 0)
(-0.831426 -0.656583 0)
(-0.896323 -0.538064 0)
(-0.911223 -0.405488 0)
(-0.882463 -0.284243 0)
(-0.835884 -0.191946 0)
(-0.797019 -0.123132 0)
(-0.768357 -0.0663417 0)
(-0.743577 -0.0260365 0)
(-0.729705 0.00228823 0)
(-0.730322 0.0332944 0)
(-0.743391 0.0685077 0)
(-0.769988 0.113949 0)
(-0.0173904 -0.744927 0)
(-0.0543821 -0.758755 0)
(-0.0935658 -0.76216 0)
(-0.136705 -0.766627 0)
(-0.185125 -0.770489 0)
(-0.240174 -0.771867 0)
(-0.301993 -0.767809 0)
(-0.369497 -0.754992 0)
(-0.442969 -0.731218 0)
(-0.523918 -0.69539 0)
(-0.608491 -0.645111 0)
(-0.684106 -0.57692 0)
(-0.737069 -0.4906 0)
(-0.761634 -0.392334 0)
(-0.762603 -0.295144 0)
(-0.75125 -0.211432 0)
(-0.735035 -0.143398 0)
(-0.71653 -0.0877549 0)
(-0.699977 -0.0432542 0)
(-0.690893 -0.00387353 0)
(-0.689429 0.0365728 0)
(-0.694847 0.0805552 0)
(-0.706967 0.131892 0)
(-0.0180541 -0.707959 0)
(-0.0560194 -0.719813 0)
(-0.0956841 -0.720477 0)
(-0.138273 -0.720998 0)
(-0.184708 -0.719848 0)
(-0.235765 -0.715576 0)
(-0.291581 -0.706265 0)
(-0.35134 -0.689654 0)
(-0.413533 -0.663214 0)
(-0.476527 -0.625398 0)
(-0.538209 -0.576641 0)
(-0.594348 -0.517392 0)
(-0.638798 -0.447419 0)
(-0.667016 -0.369403 0)
(-0.679115 -0.290488 0)
(-0.679397 -0.218158 0)
(-0.672357 -0.155366 0)
(-0.661788 -0.101467 0)
(-0.652007 -0.0536885 0)
(-0.645792 -0.00879103 0)
(-0.642922 0.0363441 0)
(-0.643139 0.0843451 0)
(-0.645702 0.137161 0)
(-0.0181236 -0.670511 0)
(-0.0558907 -0.680816 0)
(-0.0949326 -0.679464 0)
(-0.136054 -0.677137 0)
(-0.179878 -0.672518 0)
(-0.226808 -0.664459 0)
(-0.276777 -0.651571 0)
(-0.329281 -0.632503 0)
(-0.383221 -0.605841 0)
(-0.436525 -0.570192 0)
(-0.486588 -0.525267 0)
(-0.531121 -0.472175 0)
(-0.567775 -0.412198 0)
(-0.594017 -0.347154 0)
(-0.608794 -0.280942 0)
(-0.613806 -0.218181 0)
(-0.612371 -0.160926 0)
(-0.607781 -0.108654 0)
(-0.602671 -0.059908 0)
(-0.598197 -0.0131087 0)
(-0.594485 0.0337792 0)
(-0.591339 0.0827373 0)
(-0.587939 0.134498 0)
(-0.0177419 -0.633633 0)
(-0.0544994 -0.642709 0)
(-0.0921389 -0.639948 0)
(-0.131224 -0.635636 0)
(-0.172116 -0.628701 0)
(-0.215014 -0.618273 0)
(-0.259681 -0.603354 0)
(-0.305572 -0.582996 0)
(-0.351907 -0.556376 0)
(-0.397367 -0.522777 0)
(-0.439866 -0.481982 0)
(-0.477289 -0.434748 0)
(-0.508198 -0.382437 0)
(-0.531528 -0.326583 0)
(-0.546675 -0.26947 0)
(-0.554441 -0.213869 0)
(-0.556966 -0.161207 0)
(-0.556296 -0.111317 0)
(-0.553844 -0.0635866 0)
(-0.55042 -0.0169261 0)
(-0.54632 0.0298083 0)
(-0.541166 0.0778191 0)
(-0.53432 0.127195 0)
(-0.0170299 -0.598026 0)
(-0.0522298 -0.606119 0)
(-0.0879603 -0.602424 0)
(-0.124676 -0.596791 0)
(-0.162529 -0.588387 0)
(-0.201593 -0.576564 0)
(-0.241611 -0.560641 0)
(-0.282076 -0.539962 0)
(-0.32227 -0.513959 0)
(-0.361182 -0.482234 0)
(-0.397448 -0.444854 0)
(-0.429614 -0.402512 0)
(-0.456518 -0.356297 0)
(-0.477433 -0.307359 0)
(-0.492205 -0.25709 0)
(-0.501402 -0.207117 0)
(-0.506161 -0.158491 0)
(-0.507652 -0.111336 0)
(-0.506681 -0.0653828 0)
(-0.50394 -0.0202637 0)
(-0.499717 0.0250641 0)
(-0.493508 0.0710514 0)
(-0.484907 0.117452 0)
(-0.0161001 -0.564144 0)
(-0.0493734 -0.571468 0)
(-0.0828974 -0.567185 0)
(-0.11706 -0.560732 0)
(-0.151884 -0.551464 0)
(-0.187353 -0.538912 0)
(-0.223222 -0.522605 0)
(-0.259062 -0.502134 0)
(-0.294275 -0.477204 0)
(-0.328011 -0.44762 0)
(-0.35924 -0.413437 0)
(-0.387019 -0.375144 0)
(-0.410656 -0.333593 0)
(-0.429666 -0.289781 0)
(-0.443847 -0.244747 0)
(-0.453453 -0.199413 0)
(-0.459152 -0.154451 0)
(-0.4617 -0.110188 0)
(-0.461838 -0.0665212 0)
(-0.459728 -0.0233704 0)
(-0.455369 0.0199316 0)
(-0.448732 0.0634163 0)
(-0.439473 0.106697 0)
(-0.0150501 -0.532281 0)
(-0.0461543 -0.539034 0)
(-0.0773211 -0.534404 0)
(-0.108856 -0.527494 0)
(-0.140724 -0.517787 0)
(-0.17284 -0.50497 0)
(-0.204976 -0.488724 0)
(-0.236755 -0.468786 0)
(-0.2677 -0.444972 0)
(-0.29719 -0.417218 0)
(-0.324474 -0.385685 0)
(-0.348816 -0.350817 0)
(-0.369683 -0.313233 0)
(-0.386781 -0.273632 0)
(-0.400029 -0.232742 0)
(-0.409547 -0.19125 0)
(-0.415662 -0.149696 0)
(-0.418807 -0.108352 0)
(-0.419397 -0.0672397 0)
(-0.417601 -0.0261625 0)
(-0.41345 0.0147516 0)
(-0.406876 0.0555808 0)
(-0.397661 0.0958358 0)
(-0.0139481 -0.502613 0)
(-0.0427313 -0.508955 0)
(-0.0714806 -0.504147 0)
(-0.10039 -0.497033 0)
(-0.12941 -0.487181 0)
(-0.158414 -0.4744 0)
(-0.187196 -0.458479 0)
(-0.215442 -0.439266 0)
(-0.242753 -0.416683 0)
(-0.268637 -0.390739 0)
(-0.292543 -0.361577 0)
(-0.31396 -0.329536 0)
(-0.332493 -0.295121 0)
(-0.347889 -0.258907 0)
(-0.360075 -0.22145 0)
(-0.369155 -0.18323 0)
(-0.375268 -0.144642 0)
(-0.378578 -0.105977 0)
(-0.379398 -0.0673889 0)
(-0.377996 -0.0287464 0)
(-0.374186 0.00974437 0)
(-0.367863 0.0479743 0)
(-0.359088 0.0854179 0)
(-0.0128315 -0.475262 0)
(-0.0392146 -0.481302 0)
(-0.065538 -0.476434 0)
(-0.0918768 -0.469283 0)
(-0.11817 -0.459481 0)
(-0.144285 -0.446926 0)
(-0.170023 -0.431489 0)
(-0.195121 -0.413087 0)
(-0.219256 -0.391694 0)
(-0.242053 -0.367367 0)
(-0.263095 -0.340268 0)
(-0.281994 -0.310683 0)
(-0.298451 -0.278991 0)
(-0.312268 -0.245635 0)
(-0.323357 -0.211077 0)
(-0.33176 -0.175707 0)
(-0.337602 -0.139791 0)
(-0.341001 -0.103581 0)
(-0.341986 -0.0673389 0)
(-0.340734 -0.0311411 0)
(-0.337264 0.00505914 0)
(-0.331452 0.0408532 0)
(-0.323365 0.0757504 0)
(-0.0117151 -0.450278 0)
(-0.0356804 -0.456073 0)
(-0.0595986 -0.45123 0)
(-0.0834497 -0.444146 0)
(-0.107144 -0.434521 0)
(-0.130568 -0.422306 0)
(-0.153527 -0.407432 0)
(-0.175804 -0.389868 0)
(-0.197133 -0.369626 0)
(-0.217217 -0.346783 0)
(-0.235744 -0.321493 0)
(-0.25242 -0.293999 0)
(-0.267012 -0.264613 0)
(-0.279358 -0.233685 0)
(-0.289378 -0.201581 0)
(-0.297072 -0.168644 0)
(-0.302482 -0.135131 0)
(-0.305676 -0.101248 0)
(-0.306806 -0.0671748 0)
(-0.305836 -0.0331314 0)
(-0.302684 0.000819842 0)
(-0.297435 0.0343596 0)
(-0.290143 0.0669815 0)
(-0.0106046 -0.427655 0)
(-0.0321848 -0.433225 0)
(-0.0537388 -0.428467 0)
(-0.0751925 -0.421515 0)
(-0.0964146 -0.412143 0)
(-0.117319 -0.400331 0)
(-0.137719 -0.386053 0)
(-0.157434 -0.36931 0)
(-0.176244 -0.350141 0)
(-0.193916 -0.328633 0)
(-0.210208 -0.304934 0)
(-0.224894 -0.279252 0)
(-0.23779 -0.251847 0)
(-0.248765 -0.223012 0)
(-0.257738 -0.193052 0)
(-0.264679 -0.16225 0)
(-0.269627 -0.130837 0)
(-0.272648 -0.0990272 0)
(-0.273746 -0.0670171 0)
(-0.272941 -0.0349143 0)
(-0.27021 -0.00296793 0)
(-0.265556 0.0285498 0)
(-0.259099 0.0591651 0)
(-0.00950567 -0.407338 0)
(-0.0287686 -0.412689 0)
(-0.0480155 -0.408053 0)
(-0.0671587 -0.401271 0)
(-0.0860263 -0.392194 0)
(-0.104558 -0.380812 0)
(-0.122581 -0.367131 0)
(-0.139943 -0.351172 0)
(-0.156462 -0.33299 0)
(-0.171953 -0.312678 0)
(-0.186225 -0.290373 0)
(-0.199102 -0.266258 0)
(-0.210439 -0.240557 0)
(-0.220128 -0.21352 0)
(-0.228102 -0.185409 0)
(-0.234318 -0.156476 0)
(-0.238777 -0.126939 0)
(-0.241527 -0.0969626 0)
(-0.242583 -0.0667121 0)
(-0.241946 -0.0364185 0)
(-0.239603 -0.0062761 0)
(-0.235563 0.0234466 0)
(-0.229942 0.0523061 0)
(-0.00842661 -0.389273 0)
(-0.0254561 -0.394421 0)
(-0.0424641 -0.38992 0)
(-0.0593771 -0.383326 0)
(-0.0759971 -0.374555 0)
(-0.0922811 -0.363603 0)
(-0.108076 -0.350493 0)
(-0.123253 -0.335262 0)
(-0.137662 -0.317973 0)
(-0.151152 -0.298721 0)
(-0.163573 -0.277634 0)
(-0.174788 -0.254876 0)
(-0.184678 -0.230642 0)
(-0.193157 -0.205151 0)
(-0.200168 -0.178632 0)
(-0.205675 -0.151311 0)
(-0.209663 -0.123391 0)
(-0.212143 -0.0950238 0)
(-0.213124 -0.0663642 0)
(-0.21264 -0.0376465 0)
(-0.210679 -0.00909152 0)
(-0.207224 0.0190459 0)
(-0.202415 0.0463806 0)
(-0.00737069 -0.373412 0)
(-0.0222494 -0.378381 0)
(-0.0370912 -0.37402 0)
(-0.051847 -0.367618 0)
(-0.0663157 -0.359148 0)
(-0.0804604 -0.348605 0)
(-0.094152 -0.336024 0)
(-0.107279 -0.321451 0)
(-0.11972 -0.304953 0)
(-0.131353 -0.286626 0)
(-0.142059 -0.266591 0)
(-0.151727 -0.244998 0)
(-0.160265 -0.222018 0)
(-0.167603 -0.197847 0)
(-0.173692 -0.17269 0)
(-0.178505 -0.146757 0)
(-0.182021 -0.120243 0)
(-0.184232 -0.0932877 0)
(-0.185155 -0.066018 0)
(-0.184803 -0.0386608 0)
(-0.183203 -0.011466 0)
(-0.180329 0.015316 0)
(-0.176286 0.0413476 0)
(-0.00632788 -0.359623 0)
(-0.0191269 -0.364443 0)
(-0.031882 -0.360224 0)
(-0.0445474 -0.354015 0)
(-0.0569527 -0.345835 0)
(-0.0690524 -0.33568 0)
(-0.0807435 -0.323587 0)
(-0.0919311 -0.309606 0)
(-0.102517 -0.293807 0)
(-0.112405 -0.276282 0)
(-0.121501 -0.257148 0)
(-0.129718 -0.236543 0)
(-0.136982 -0.214625 0)
(-0.143237 -0.191568 0)
(-0.148442 -0.167559 0)
(-0.152576 -0.142794 0)
(-0.155628 -0.117463 0)
(-0.157584 -0.0917155 0)
(-0.158449 -0.0656558 0)
(-0.158235 -0.0394527 0)
(-0.156966 -0.0134187 0)
(-0.154639 0.0122295 0)
(-0.151337 0.037164 0)
(-0.00526873 -0.347785 0)
(-0.0160378 -0.352461 0)
(-0.0268025 -0.348375 0)
(-0.0374414 -0.342353 0)
(-0.0478658 -0.334445 0)
(-0.0580075 -0.324648 0)
(-0.0677896 -0.312999 0)
(-0.077132 -0.299548 0)
(-0.085957 -0.284364 0)
(-0.0941882 -0.267537 0)
(-0.101753 -0.249175 0)
(-0.108588 -0.229409 0)
(-0.114636 -0.208384 0)
(-0.119854 -0.186262 0)
(-0.124208 -0.163213 0)
(-0.127683 -0.139418 0)
(-0.130276 -0.115064 0)
(-0.131979 -0.0903099 0)
(-0.13279 -0.065261 0)
(-0.132723 -0.0400317 0)
(-0.131774 -0.0149201 0)
(-0.12997 0.00977141 0)
(-0.12738 0.0337927 0)
(-0.00415168 -0.338073 0)
(-0.0128974 -0.342515 0)
(-0.0217674 -0.338534 0)
(-0.0304325 -0.332675 0)
(-0.0389412 -0.324994 0)
(-0.0472015 -0.315497 0)
(-0.0551616 -0.304218 0)
(-0.062754 -0.29121 0)
(-0.0699147 -0.27654 0)
(-0.076581 -0.260293 0)
(-0.0826959 -0.242574 0)
(-0.0882108 -0.223502 0)
(-0.0930866 -0.203216 0)
(-0.0972938 -0.181863 0)
(-0.100813 -0.159602 0)
(-0.103637 -0.136601 0)
(-0.105768 -0.113035 0)
(-0.107211 -0.0890753 0)
(-0.107966 -0.0648414 0)
(-0.108033 -0.0404074 0)
(-0.107417 -0.0160214 0)
(-0.10615 0.0079177 0)
(-0.104245 0.0312019 0)
(-0.00297244 -0.330712 0)
(-0.00965573 -0.334673 0)
(-0.0166733 -0.330783 0)
(-0.0233856 -0.325068 0)
(-0.0299988 -0.317569 0)
(-0.0364135 -0.308306 0)
(-0.0426027 -0.297315 0)
(-0.0485156 -0.28465 0)
(-0.0541005 -0.270382 0)
(-0.0593035 -0.254591 0)
(-0.0640738 -0.237375 0)
(-0.0683675 -0.218849 0)
(-0.0721502 -0.199137 0)