/*--------------------------------*- C++ -*----------------------------------*\
| =========                 |                                                 |
| \\      /  F ield         | OpenFOAM: The Open Source CFD Toolbox           |
|  \\    /   O peration     | Version:  2206                                  |
|   \\  /    A nd           | Website:  www.openfoam.com                      |
|    \\/     M anipulation  |                                                 |
\*---------------------------------------------------------------------------*/
FoamFile
{
    version     2.0;
    format      ascii;
    arch        "LSB;label=32;scalar=64";
    class       volScalarField;
    location    "0.525";
    object      p;
}
// * * * * * * * * * * * * * * * * * * * * * * * * * * * * * * * * * * * * * //

dimensions      [1 -1 -2 0 0 0 0];

internalField   nonuniform List<scalar> 
2268
(
605.317
601.953
603.529
609.275
620.385
630.868
639.847
647.402
655.603
666.121
679.468
695.47
713.701
733.807
755.446
778.07
800.525
820.739
835.22
844.383
832.162
828.963
866.491
546.262
542.137
543.342
548.606
560.244
570.72
579.915
587.593
595.905
606.542
619.943
635.856
653.991
674.005
695.497
717.986
740.606
761.717
777.751
790.64
777.051
759.473
802.007
486.656
481.738
482.221
486.959
498.148
509.283
518.953
526.878
535.403
546.281
559.905
576.017
594.285
614.341
635.715
657.819
679.735
700.461
717.331
730.355
721.684
696.163
740.893
427.147
421.084
420.244
423.982
434.604
446.647
457.067
465.37
474.203
485.422
499.352
515.695
534.131
554.293
575.72
597.774
619.471
639.751
656.439
668.631
665.707
649.203
689.971
368.423
360.627
357.762
359.81
369.741
382.953
394.406
403.185
412.4
424.055
438.362
454.962
473.626
493.983
515.604
537.832
559.715
580.036
596.879
609.31
613.234
609.77
644.988
311.023
301.356
295.326
295.083
304.463
318.868
331.309
340.487
350.045
362.192
376.968
393.965
412.809
433.417
455.366
477.96
500.288
521.042
538.526
551.915
560.569
565.609
597.387
255.385
243.764
233.763
230.756
239.941
255.134
267.921
277.307
287.232
299.852
315.061
332.521
351.785
372.697
395.059
418.157
441.133
462.557
480.855
495.213
505.847
513.694
535.33
201.461
189.381
173.463
165.23
174.257
190.423
203.182
212.801
223.659
237.201
252.835
269.98
289.828
311.353
334.485
358.43
382.467
404.804
423.908
439.039
449.626
456.964
460.747
496.092
374.106
308.408
304.131
309.213
312.385
309.768
304.464
300.355
276.021
237.02
234.177
241.383
255.393
277.444
325.552
591.7
1174.43
1321.19
432.608
316.335
302.135
298.535
306.184
312.465
309.881
299.835
243.825
225.297
220.879
222.559
225.608
229.904
235.487
247.85
409.932
1036.79
1264.46
342.475
308.243
300.666
297.667
298.906
311.382
310.621
274.507
230.132
221.811
220.384
222.445
225.649
229.176
231.368
233.013
304.719
705.934
1174.95
279.303
301.946
299.552
296.949
295.407
304.065
305.779
256.445
228.318
220.547
219.729
221.991
225.584
228.985
230.854
232.463
261.447
419.725
1047.31
200.651
261.998
297.732
295.894
293.165
293.761
294.364
247.024
226.945
219.513
218.851
221.201
225.253
228.764
230.726
232.136
241.455
286.21
888.356
98.2498
182.283
284.785
294.999
290.535
285.133
284.875
242.41
224.886
218.347
217.472
219.931
224.545
228.363
230.572
231.868
233.389
246.976
725.558
-6.10352
129.277
252.284
292.204
285.465
277.848
277.533
240.297
222.859
217.062
215.777
218.274
223.463
227.77
230.294
231.549
231.893
238.056
551.556
-95.4771
107.89
239.139
275.361
277.055
271.657
268.55
238.599
221.173
215.681
213.93
216.292
222.028
226.935
229.786
230.946
231.578
232.746
384.275
118.899
107.413
84.7201
69.9676
77.3833
92.8239
103.037
111.141
122.712
138.114
155.888
174.865
194.778
216.183
239.885
264.882
290.642
314.768
335.433
352.034
360.645
353.659
288.047
37.8695
22.5974
9.53684
6.01636
9.42841
15.0432
18.3118
20.7559
24.7827
30.9612
39.8215
50.474
64.3547
83.5174
108.584
137.498
168.826
196.023
218.904
239.025
254.071
261.887
268.202
-0.0566623
-0.141946
-0.0953589
-0.0532438
-0.024019
0.00264084
0.0116373
0.0315854
0.0661148
0.124711
0.180857
1.60843
5.27281
10.6288
20.0873
35.9567
58.4186
81.3769
107.862
132.525
149.331
160.568
163.458
-0.166782
-0.208439
-0.201859
-0.201647
-0.201333
-0.190246
-0.182631
-0.179022
-0.158427
-0.152203
-0.179091
-0.273594
-0.299059
-0.323614
-0.198751
0.556241
3.57844
11.9964
28.9962
50.8491
67.0704
75.7171
83.5183
-0.296322
-0.309334
-0.314015
-0.326004
-0.328186
-0.321803
-0.323819
-0.33098
-0.337042
-0.353564
-0.410952
-0.471574
-0.467737
-0.475095
-0.464017
-0.432383
-0.420066
-0.297974
0.674676
2.19228
7.06006
15.3111
26.7708
-0.459642
-0.468654
-0.470344
-0.4732
-0.472184
-0.470009
-0.469107
-0.469269
-0.475392
-0.48679
-0.509907
-0.543654
-0.579069
-0.60609
-0.620729
-0.602917
-0.557292
-0.509758
-0.48008
-0.469226
-0.503382
-0.434294
-0.262338
-0.606965
-0.609317
-0.60961
-0.614842
-0.617835
-0.620225
-0.625543
-0.631301
-0.638764
-0.650391
-0.667146
-0.684765
-0.697483
-0.700987
-0.703013
-0.705006
-0.68273
-0.649672
-0.646631
-0.623394
-0.634888
-0.614444
-0.576906
-0.75486
-0.756302
-0.757449
-0.760481
-0.763054
-0.765778
-0.769361
-0.774089
-0.781298
-0.791231
-0.803212
-0.814892
-0.824203
-0.828852
-0.835048
-0.832066
-0.815968
-0.798952
-0.790643
-0.777937
-0.79172
-0.832189
-0.899452
-0.90266
-0.903052
-0.903694
-0.906041
-0.908408
-0.911144
-0.914597
-0.919115
-0.925135
-0.932585
-0.940541
-0.947497
-0.951983
-0.952931
-0.953591
-0.954021
-0.947972
-0.942345
-0.942608
-0.949884
-0.981531
-1.05627
-1.15539
-1.04935
-1.04923
-1.04965
-1.05141
-1.05345
-1.05591
-1.05894
-1.0627
-1.06731
-1.07265
-1.078
-1.08257
-1.08564
-1.08672
-1.08651
-1.08504
-1.08191
-1.0793
-1.08375
-1.10181
-1.13777
-1.21441
-1.30072
-1.19504
-1.19479
-1.19511
-1.19643
-1.19811
-1.20017
-1.20264
-1.20554
-1.20886
-1.21243
-1.21583
-1.2185
-1.22002
-1.22016
-1.21914
-1.21756
-1.21572
-1.21484
-1.21952
-1.23487
-1.26788
-1.32104
-1.37113
-1.34001
-1.33979
-1.34008
-1.34107
-1.3424
-1.34403
-1.34593
-1.34806
-1.35033
-1.35256
-1.3545
-1.3558
-1.35621
-1.35562
-1.35412
-1.35215
-1.35007
-1.34863
-1.35054
-1.3598
-1.38275
-1.41734
-1.43872
-1.48452
-1.48437
-1.48464
-1.48538
-1.48639
-1.48762
-1.489
-1.49047
-1.49191
-1.49318
-1.49408
-1.4944
-1.49398
-1.49274
-1.49073
-1.4882
-1.48536
-1.48265
-1.48144
-1.48442
-1.49555
-1.51394
-1.52243
-1.62872
-1.62864
-1.62889
-1.62943
-1.63017
-1.63104
-1.63198
-1.63291
-1.63373
-1.6343
-1.63447
-1.63411
-1.63308
-1.63131
-1.62883
-1.62571
-1.62205
-1.61809
-1.61437
-1.6122
-1.61335
-1.61604
-1.61104
-1.77275
-1.77272
-1.77293
-1.77332
-1.77382
-1.7744
-1.77498
-1.77549
-1.77584
-1.7759
-1.77558
-1.77474
-1.77329
-1.77117
-1.76833
-1.7648
-1.7606
-1.75585
-1.75072
-1.74564
-1.74083
-1.73423
-1.72122
-1.91667
-1.91668
-1.91684
-1.9171
-1.91742
-1.91776
-1.91807
-1.91826
-1.91827
-1.91799
-1.91733
-1.9162
-1.9145
-1.91219
-1.9092
-1.90551
-1.9011
-1.896
-1.89021
-1.88385
-1.87667
-1.86725
-1.85326
-2.06056
-2.06058
-2.06068
-2.06084
-2.06102
-2.06118
-2.06128
-2.06126
-2.06103
-2.06054
-2.05969
-2.05841
-2.05662
-2.05427
-2.0513
-2.04768
-2.04337
-2.03833
-2.03252
-2.0259
-2.01816
-2.0084
-1.99527
-2.20443
-2.20445
-2.20451
-2.20459
-2.20466
-2.2047
-2.20466
-2.20449
-2.20414
-2.20353
-2.2026
-2.20129
-2.19955
-2.19731
-2.19454
-2.1912
-2.18724
-2.18263
-2.17733
-2.17128
-2.16431
-2.15598
-2.14585
-2.34832
-2.34832
-2.34834
-2.34837
-2.34837
-2.34833
-2.34821
-2.34797
-2.34755
-2.34692
-2.34601
-2.34478
-2.34319
-2.34119
-2.33876
-2.33586
-2.33248
-2.3286
-2.32419
-2.31924
-2.31364
-2.3073
-2.29991
-2.49223
-2.49221
-2.49221
-2.4922
-2.49217
-2.49209
-2.49194
-2.49167
-2.49126
-2.49067
-2.48986
-2.48879
-2.48744
-2.48578
-2.48379
-2.48146
-2.4788
-2.47581
-2.47249
-2.46895
-2.46516
-2.46098
-2.45652
-2.63618
-2.63614
-2.63612
-2.6361
-2.63605
-2.63597
-2.63582
-2.63557
-2.63521
-2.63472
-2.63406
-2.63322
-2.63217
-2.63091
-2.62944
-2.62777
-2.62593
-2.62395
-2.62191
-2.61982
-2.6178
-2.61593
-2.61436
-2.78016
-2.78012
-2.78007
-2.78004
-2.78
-2.77991
-2.77978
-2.77961
-2.77936
-2.77901
-2.77855
-2.77797
-2.77727
-2.77646
-2.77554
-2.77456
-2.77356
-2.7726
-2.77178
-2.7712
-2.77099
-2.77133
-2.77243
-2.92419
-2.92413
-2.92408
-2.92407
-2.92404
-2.92399
-2.92392
-2.92383
-2.92369
-2.9235
-2.92326
-2.92297
-2.92263
-2.92226
-2.92191
-2.92161
-2.92144
-2.92148
-2.92185
-2.92269
-2.92418
-2.92654
-2.93002
-3.06826
-3.06819
-3.06814
-3.06815
-3.06815
-3.06815
-3.06815
-3.06815
-3.06814
-3.06813
-3.06811
-3.0681
-3.06812
-3.0682
-3.06839
-3.06875
-3.06936
-3.07032
-3.07179
-3.07392
-3.07692
-3.08104
-3.08656
-3.21237
-3.21229
-3.21224
-3.21227
-3.2123
-3.21236
-3.21244
-3.21254
-3.21267
-3.21283
-3.21303
-3.2133
-3.21366
-3.21416
-3.21485
-3.2158
-3.21711
-3.21891
-3.22133
-3.22458
-3.22887
-3.23445
-3.24165
-3.3565
-3.35641
-3.35636
-3.35641
-3.35649
-3.3566
-3.35676
-3.35696
-3.35722
-3.35755
-3.35797
-3.35849
-3.35916
-3.36003
-3.36116
-3.36264
-3.36456
-3.36706
-3.37029
-3.37445
-3.37977
-3.38651
-3.395
-3.50063
-3.50055
-3.50049
-3.50057
-3.50068
-3.50085
-3.50109
-3.50139
-3.50177
-3.50225
-3.50285
-3.5036
-3.50455
-3.50574
-3.50724
-3.50916
-3.51158
-3.51464
-3.51851
-3.52337
-3.52946
-3.53703
-3.54643
-3.64474
-3.64469
-3.6446
-3.64472
-3.64487
-3.64509
-3.64539
-3.64578
-3.64628
-3.64689
-3.64765
-3.64859
-3.64976
-3.65122
-3.65303
-3.65529
-3.6581
-3.66159
-3.66591
-3.67126
-3.67785
-3.68593
-3.69584
-3.78878
-3.78882
-3.78869
-3.78885
-3.78902
-3.7893
-3.78966
-3.79012
-3.79071
-3.79143
-3.79232
-3.79342
-3.79477
-3.79643
-3.79847
-3.80098
-3.80407
-3.80784
-3.81246
-3.81808
-3.82493
-3.83322
-3.84327
-3.93277
-3.93288
-3.93274
-3.93293
-3.93313
-3.93345
-3.93386
-3.93438
-3.93504
-3.93585
-3.93684
-3.93805
-3.93953
-3.94133
-3.94354
-3.94622
-3.94947
-3.9534
-3.95815
-3.96387
-3.97075
-3.97899
-3.98884
-4.07672
-4.07688
-4.07672
-4.07695
-4.07717
-4.07752
-4.07797
-4.07854
-4.07925
-4.08012
-4.08117
-4.08246
-4.08402
-4.08592
-4.08821
-4.09098
-4.0943
-4.09827
-4.10301
-4.10867
-4.1154
-4.12335
-4.13275
-4.22059
-4.22078
-4.22063
-4.2209
-4.22113
-4.22151
-4.22198
-4.22258
-4.22332
-4.22422
-4.22531
-4.22664
-4.22824
-4.23017
-4.23248
-4.23525
-4.23855
-4.24246
-4.24709
-4.25255
-4.25897
-4.26648
-4.27522
-4.3644
-4.36459
-4.36447
-4.36477
-4.36501
-4.36541
-4.36589
-4.3665
-4.36724
-4.36815
-4.36925
-4.37057
-4.37217
-4.37407
-4.37635
-4.37905
-4.38224
-4.38601
-4.39042
-4.39557
-4.40156
-4.4085
-4.41645
-4.50814
-4.50831
-4.50825
-4.50857
-4.50881
-4.50922
-4.5097
-4.5103
-4.51103
-4.51192
-4.51299
-4.51427
-4.51581
-4.51764
-4.51982
-4.52239
-4.52541
-4.52894
-4.53305
-4.53781
-4.54329
-4.54955
-4.55664
-4.65184
-4.65197
-4.65197
-4.6523
-4.65253
-4.65294
-4.6534
-4.65398
-4.65467
-4.65551
-4.65653
-4.65774
-4.65918
-4.6609
-4.66292
-4.6653
-4.66808
-4.67132
-4.67505
-4.67934
-4.68424
-4.68978
-4.69596
-4.7955
-4.79559
-4.79563
-4.79597
-4.79618
-4.79658
-4.797
-4.79754
-4.79818
-4.79895
-4.79988
-4.80098
-4.80229
-4.80385
-4.80567
-4.80782
-4.81031
-4.81319
-4.8165
-4.82027
-4.82453
-4.82931
-4.83458
-4.93912
-4.93918
-4.93926
-4.93959
-4.93977
-4.94014
-4.94051
-4.94099
-4.94156
-4.94224
-4.94306
-4.94402
-4.94517
-4.94653
-4.94813
-4.94999
-4.95216
-4.95464
-4.95748
-4.9607
-4.96431
-4.96832
-4.97268
-5.08274
-5.08279
-5.08288
-5.08318
-5.08333
-5.08366
-5.08397
-5.08438
-5.08486
-5.08544
-5.08612
-5.08693
-5.0879
-5.08903
-5.09037
-5.09193
-5.09373
-5.09579
-5.09814
-5.10078
-5.10373
-5.10697
-5.11046
-5.2264
-5.22643
-5.22651
-5.22677
-5.22687
-5.22715
-5.2274
-5.22772
-5.22811
-5.22856
-5.2291
-5.22975
-5.23051
-5.23141
-5.23246
-5.23369
-5.23511
-5.23674
-5.23858
-5.24064
-5.24292
-5.24542
-5.24808
-5.37005
-5.37006
-5.37013
-5.37032
-5.37039
-5.37059
-5.37078
-5.37101
-5.37129
-5.37162
-5.37201
-5.37248
-5.37303
-5.37368
-5.37444
-5.37533
-5.37635
-5.37752
-5.37885
-5.38032
-5.38195
-5.38373
-5.3856
-5.51366
-5.51366
-5.51371
-5.51382
-5.51386
-5.51399
-5.5141
-5.51424
-5.51441
-5.51461
-5.51485
-5.51513
-5.51546
-5.51585
-5.51631
-5.51685
-5.51747
-5.51817
-5.51897
-5.51986
-5.52084
-5.5219
-5.52301
-5.65725
-5.65725
-5.65727
-5.65731
-5.65732
-5.65737
-5.6574
-5.65745
-5.6575
-5.65757
-5.65765
-5.65774
-5.65785
-5.65798
-5.65814
-5.65831
-5.65852
-5.65876
-5.65902
-5.65932
-5.65964
-5.66
-5.66037
136.52
129.365
144.75
120.824
250.5
237.266
220.569
204.548
160.77
158.24
157.904
160.722
88.4304
93.1462
99.5351
108.798
36.8153
43.6339
47.7618
56.0923
-0.221816
-0.276451
1.21058
7.25545
-0.577218
-0.592706
-0.714313
-0.925044
-0.974458
-1.05124
-1.15712
-1.24784
-1.22424
-1.25583
-1.2728
-1.29395
-1.34961
-1.34926
-1.3113
-1.23398
-1.3786
-1.36244
-1.32055
-1.24372
-1.42301
-1.40027
-1.36322
-1.31107
-1.50936
-1.49166
-1.46027
-1.4187
-1.59762
-1.58493
-1.56496
-1.53829
-1.70478
-1.69162
-1.67498
-1.65484
-1.83872
-1.82792
-1.8156
-1.80178
-1.98248
-1.97434
-1.96515
-1.95533
-2.13744
-2.13082
-2.12422
-2.11759
-2.29393
-2.28996
-2.28603
-2.28229
-2.45332
-2.45139
-2.44968
-2.44829
-2.61374
-2.6136
-2.61379
-2.6144
-2.77412
-2.77555
-2.77739
-2.77972
-2.93372
-2.93652
-2.93979
-2.94361
-3.09198
-3.09595
-3.10045
-3.10554
-3.24847
-3.25339
-3.25889
-3.26502
-3.40288
-3.40851
-3.41476
-3.42169
-3.55501
-3.5611
-3.56784
-3.57526
-3.70477
-3.71109
-3.71803
-3.72564
-3.85223
-3.85851
-3.8654
-3.87291
-3.99752
-4.00358
-4.01017
-4.01733
-4.14091
-4.14658
-4.15269
-4.15928
-4.2827
-4.28785
-4.29337
-4.29926
-4.42316
-4.42773
-4.43259
-4.43772
-4.56252
-4.5665
-4.57068
-4.57506
-4.70101
-4.7044
-4.70792
-4.71158
-4.83882
-4.84164
-4.84454
-4.84753
-4.97614
-4.97843
-4.98076
-4.98315
-5.11319
-5.11499
-5.1168
-5.11865
-5.25014
-5.25148
-5.25283
-5.25419
-5.38704
-5.38798
-5.38891
-5.38984
-5.52387
-5.52442
-5.52497
-5.52551
-5.66065
-5.66084
-5.66102
-5.66119
30.9682
134.247
240.508
260.199
266.076
262.561
255.659
239.689
219.41
213.578
211.026
212.943
219.646
225.51
228.919
230.161
230.958
229.112
241.734
168.26
193.571
252.885
255.679
254.708
254.06
249.123
240.613
222.424
212.973
208.016
209.135
217.427
224.363
228.434
229.917
230.512
228.611
231.331
166.892
193.394
243.033
248.398
249.391
250.99
248.329
242.331
227.141
214.361
207.186
207.527
216.883
224.486
228.747
230.46
230.963
230.784
233.901
127.985
164.778
225.293
249.089
249.999
251.047
249.61
244.893
230.934
217.604
209.436
210.866
219.149
226.186
229.922
231.357
231.704
231.623
249.903
74.8735
114.625
184.066
250.53
252.239
251.621
251.079
247.614
236.127
223.062
217.03
219.146
224.367
229.149
231.625
232.368
232.49
233.218
284.536
20.2454
50.5673
111.221
227.723
248.855
251.241
251.281
249.092
241.378
231.443
226.866
228.033
230.664
231.894
233
233.217
233.125
233.055
328.675
-1.19165
3.31275
30.0245
93.0285
174.76
207.622
248.096
247.771
241.994
236.035
234.317
235.22
236.126
234.881
232.124
233.477
234.593
238.171
404.586
-1.42456
-1.89892
-1.06973
16.225
64.8848
135.327
201.155
220.106
237.416
234.735
236.049
237.981
238.635
237.175
193.542
200.801
208.008
320.311
537.223
-1.37798
-1.18451
-0.367545
-0.0692143
7.29823
29.8972
80.0769
150.741
195.849
204.849
224.459
219.21
202.679
207.722
211.914
243.982
324.311
477.076
684.3
-1.09916
-0.886748
-0.539889
-0.157627
-0.152676
0.18765
8.75531
23.6206
50.0045
91.7042
127.629
146.177
185.711
224.031
238.169
257.408
338.972
513.814
716.632
-1.08947
-0.911952
-0.715171
-0.516271
-0.389572
-0.331945
-0.548586
-0.936836
0.14303
4.66846
6.56594
62.7846
239.705
331.335
288.963
249.776
283.767
403.321
559.665
-1.2089
-1.07677
-0.905393
-0.709678
-0.50999
-0.350379
-0.188838
-0.0800497
-1.29383
-3.65512
-5.15265
18.728
114.058
212.198
211.688
194.546
224.787
293.704
404.606
-1.33903
-1.2309
-1.11902
-0.992573
-0.870469
-0.771666
-0.771327
-1.16691
-2.01744
-2.84322
-3.23149
-0.643935
27.3792
108.32
158.828
196.974
227.326
255.269
314.34
-1.49048
-1.40686
-1.31211
-1.22573
-1.16496
-1.13545
-1.21194
-1.65272
-2.44872
-3.15021
-3.6804
-3.91488
-2.90753
13.0245
62.2877
172.918
249.644
257.148
268.453
-1.61859
-1.56331
-1.50768
-1.45884
-1.43343
-1.44323
-1.52615
-1.81393
-2.37414
-2.93621
-3.35668
-3.3274
-3.16773
-1.79686
5.25805
80.7818
222.471
224.95
220.211
-1.77607
-1.73745
-1.70328
-1.67976
-1.6754
-1.70137
-1.77801
-1.95169
-2.2671
-2.66568
-2.93275
-2.9628
-2.59216
-1.82627
0.204906
8.70696
146.68
152.14
161.685
-1.93845
-1.91515
-1.89666
-1.88807
-1.89467
-1.9231
-1.98431
-2.09372
-2.26174
-2.46819
-2.60899
-2.55044
-2.2921
-1.90606
-1.4775
0.0532878
62.3919
59.378
105.483
-2.10648
-2.09329
-2.08579
-2.08664
-2.09835
-2.12382
-2.16765
-2.23383
-2.31595
-2.39536
-2.41594
-2.32447
-2.11835
-1.82451
-1.86372
1.12296
15.2142
0.638958
65.4297
-2.27639
-2.27098
-2.271
-2.27785
-2.29193
-2.31355
-2.34388
-2.38275
-2.42049
-2.43646
-2.38782
-2.25495
-2.01328
-1.7666
-1.48471
1.69599
0.528212
-1.63082
49.5124
-2.44652
-2.44721
-2.45286
-2.46393
-2.47963
-2.49879
-2.52091
-2.5443
-2.56012
-2.551
-2.48042
-2.33088
-2.09106
-1.85684
-1.58578
0.252356
4.53409
25.6814
86.3871
-2.6161
-2.62173
-2.63189
-2.64649
-2.6642
-2.6833
-2.70261
-2.71987
-2.72786
-2.71018
-2.64326
-2.51324
-2.30241
-2.09972
-1.99662
-0.561455
8.43584
36.8183
58.3414
-2.7844
-2.79426
-2.80837
-2.82643
-2.84715
-2.86898
-2.89076
-2.91044
-2.92199
-2.90995
-2.86414
-2.78187
-2.66133
-2.52274
-2.26308
8.09688
18.3245
35.1553
53.8685
-2.95086
-2.96447
-2.98227
-3.00402
-3.02894
-3.05634
-3.08564
-3.11579
-3.14043
-3.14928
-3.14636
-3.14224
-3.21156
-3.28142
-2.08097
15.5981
24.6756
34.4497
41.1262
-3.11499
-3.13192
-3.15326
-3.179
-3.20924
-3.2445
-3.28671
-3.33273
-3.37651
-3.41731
-3.47693
-3.59601
-3.89248
-4.45343
-5.06913
-3.70286
7.58957
27.9209
24.9229
-3.2763
-3.29609
-3.32066
-3.35052
-3.38713
-3.43371
-3.48819
-3.55373
-3.62292
-3.69024
-3.79932
-3.99512
-4.37285
-4.95893
-5.3499
-5.06227
-3.61214
14.9041
11.3099
-3.43437
-3.45638
-3.48357
-3.51701
-3.55987
-3.61686
-3.68875
-3.771
-3.86174
-3.9568
-4.0811
-4.2841
-4.63335
-5.12141
-5.32791
-5.18899
-4.59961
-2.20287
2.0361
-3.58884
-3.61227
-3.64112
-3.67703
-3.72457
-3.78925
-3.87371
-3.97526
-4.08976
-4.19735
-4.31644
-4.48686
-4.7631
-5.20474
-5.39245
-5.25283
-4.81095
-3.87426
0.403114
-3.73956
-3.76341
-3.79272
-3.82952
-3.87875
-3.94562
-4.03532
-4.15264
-4.28319
-4.39437
-4.49508
-4.62062
-4.81864
-5.14041
-5.34039
-5.27117
-4.89691
-4.58999
-2.81588
-3.88661
-3.90985
-3.93832
-3.97396
-4.02052
-4.0824
-4.16636
-4.28407
-4.41826
-4.52659
-4.60343
-4.67972
-4.80494
-5.02996
-5.23298
-5.22234
-5.0562
-5.36606
-4.11669
-4.03032
-4.05206
-4.07842
-4.11087
-4.15096
-4.20117
-4.26705
-4.36325
-4.48297
-4.58299
-4.6453
-4.69725
-4.79002
-4.95202
-5.11915
-5.11926
-5.11519
-5.48087
-4.3484
-4.17118
-4.19072
-4.21391
-4.24175
-4.27362
-4.30997
-4.3547
-4.41922
-4.5051
-4.58923
-4.65296
-4.71582
-4.8155
-4.94578
-5.02445
-5.00448
-4.83043
-4.25692
-3.91735
-4.30978
-4.32677
-4.34624
-4.36882
-4.39339
-4.41819
-4.44537
-4.48407
-4.53869
-4.60647
-4.6804
-4.76706
-4.87235
-4.97114
-4.97142
-4.82511
-4.19008
-1.81184
2.08398
-4.44679
-4.46114
-4.47701
-4.49457
-4.51294
-4.52937
-4.54579
-4.5701
-4.60975
-4.6681
-4.74557
-4.83642
-4.91808
-4.97628
-4.94288
-4.82203
-3.21882
1.65878
11.8368
-4.58271
-4.59456
-4.60723
-4.62053
-4.63405
-4.64526
-4.65483
-4.66998
-4.7009
-4.75034
-4.81567
-4.88165
-4.93223
-4.96559
-4.7859
-4.42344
-1.86013
2.29857
11.4694
-4.71791
-4.72749
-4.73743
-4.7473
-4.75698
-4.7653
-4.77147
-4.77987
-4.79874
-4.83235
-4.87372
-4.91089
-4.94003
-4.97343
-4.88611
-4.01622
-1.84769
0.372313
6.36574
-4.85265
-4.86021
-4.86792
-4.87494
-4.88169
-4.8872
-4.89189
-4.89763
-4.90747
-4.92524
-4.9449
-4.95835
-4.96888
-4.99036
-4.99805
-4.83608
-3.07123
-2.19381
2.57543
-4.98719
-4.99294
-4.99886
-5.00337
-5.00779
-5.01074
-5.0128
-5.01678
-5.02287
-5.03175
-5.03991
-5.0364
-5.03563
-5.02501
-4.90587
-5.78723
-4.30035
-4.32181
-1.46945
-5.12173
-5.12588
-5.13033
-5.13276
-5.13536
-5.13645
-5.13442
-5.13633
-5.13929
-5.14465
-5.14896
-5.14188
-5.15364
-5.17077
-5.41886
-5.61475
-4.77089
-4.80684
-3.34682
-5.25645
-5.25925
-5.26241
-5.26332
-5.26462
-5.26436
-5.25875
-5.25939
-5.25858
-5.26237
-5.26101
-5.2507
-5.26773
-5.33109
-5.47374
-5.65612
-5.52917
-5.15312
-3.7881
-5.39137
-5.39312
-5.39515
-5.3952
-5.39548
-5.39455
-5.38757
-5.38699
-5.38172
-5.38355
-5.35485
-5.29093
-5.33877
-5.51283
-5.56987
-5.82142
-5.73073
-5.32151
-2.16113
-5.5264
-5.52735
-5.52842
-5.52814
-5.52798
-5.52674
-5.52109
-5.52051
-5.51413
-5.50912
-5.53325
-5.5986
-5.43955
-5.7944
-5.769
-5.88547
-5.36135
-4.31551
-9.95622
-5.66148
-5.66177
-5.66209
-5.66186
-5.66175
-5.66114
-5.6596
-5.66106
-5.67262
-5.65785
-5.79946
-6.17948
-5.62228
-6.08185
-6.05757
-6.09182
-6.96115
-6.63113
-19.1107
)
;

boundaryField
{
    leftWall
    {
        type            calculated;
        value           nonuniform List<scalar> 
50
(
605.317
546.262
486.656
427.147
368.423
311.023
255.385
201.461
118.899
37.8695
-0.0566623
-0.166782
-0.296322
-0.459642
-0.606965
-0.75486
-0.90266
-1.04935
-1.19504
-1.34001
-1.48452
-1.62872
-1.77275
-1.91667
-2.06056
-2.20443
-2.34832
-2.49223
-2.63618
-2.78016
-2.92419
-3.06826
-3.21237
-3.3565
-3.50063
-3.64474
-3.78878
-3.93277
-4.07672
-4.22059
-4.3644
-4.50814
-4.65184
-4.7955
-4.93912
-5.08274
-5.2264
-5.37005
-5.51366
-5.65725
)
;
    }
    rightWall
    {
        type            calculated;
        value           nonuniform List<scalar> 
50
(
1321.19
1264.46
1174.95
1047.31
888.356
725.558
551.556
384.275
241.734
231.331
233.901
249.903
284.536
328.675
404.586
537.223
684.3
716.632
559.665
404.606
314.34
268.453
220.211
161.685
105.483
65.4297
49.5124
86.3871
58.3414
53.8685
41.1262
24.9229
11.3099
2.0361
0.403114
-2.81588
-4.11669
-4.3484
-3.91735
2.08398
11.8368
11.4694
6.36574
2.57543
-1.46945
-3.34682
-3.7881
-2.16113
-9.95622
-19.1107
)
;
    }
    lowerWall
    {
        type            calculated;
        value           nonuniform List<scalar> 
62
(
634.746
631.383
632.958
638.704
649.814
660.298
669.276
676.831
685.032
695.55
708.898
724.9
743.131
763.237
784.876
807.499
829.954
850.168
864.363
870.642
858.503
858.123
895.88
866.491
802.007
740.893
689.971
644.988
597.387
535.33
460.747
199.117
191.935
207.316
183.391
496.092
432.608
342.475
279.303
200.651
98.2498
-6.10352
-95.4771
501.033
379.405
311.157
304.235
309.25
312.423
309.806
304.511
303.379
284.898
245.897
242.474
252.191
270.579
294.556
343.669
609.915
1192.77
1338.37
)
;
    }
    atmosphere
    {
        type            calculated;
        value           nonuniform List<scalar> 
46
(
-5.72904
-5.72904
-5.72904
-5.72904
-5.72904
-5.72904
-5.72904
-5.72904
-5.72904
-5.72904
-5.72904
-5.72904
-5.72904
-5.72904
-5.72904
-5.72904
-5.72904
-5.72904
-5.72904
-5.72904
-5.72904
-5.72904
-5.72904
-5.72904
-5.72904
-5.72904
-5.72904
-5.72904
-5.72904
-5.72904
-5.72904
-5.72904
-5.72904
-5.72904
-5.73107
-5.73419
-5.73835
-5.94295
-6.48243
-5.76173
-6.20633
-6.11787
-6.18707
-6.15657
-6.26927
-127.541
)
;
    }
    defaultFaces
    {
        type            empty;
    }
}


// ************************************************************************* //
