/*--------------------------------*- C++ -*----------------------------------*\
| =========                 |                                                 |
| \\      /  F ield         | OpenFOAM: The Open Source CFD Toolbox           |
|  \\    /   O peration     | Version:  2206                                  |
|   \\  /    A nd           | Website:  www.openfoam.com                      |
|    \\/     M anipulation  |                                                 |
\*---------------------------------------------------------------------------*/
FoamFile
{
    version     2.0;
    format      ascii;
    arch        "LSB;label=32;scalar=64";
    class       volScalarField;
    location    "0.3";
    object      alpha.water;
}
// * * * * * * * * * * * * * * * * * * * * * * * * * * * * * * * * * * * * * //

dimensions      [0 0 0 0 0 0 0];

internalField   nonuniform List<scalar> 
2268
(
1
1
1
1
1
1
1
1
1
1
1
1
1
1
1
1
1
1
1
1
1
0.964004
0.838123
1
1
1
1
1
1
1
1
1
1
1
1
1
1
1
1
1
1
1
0.99996
0.999902
0.999993
0.900752
1
1
1
1
1
1
1
1
1
1
1
1
1
1
1
1
1
1
1
0.999996
0.999902
0.999993
0.949631
1
1
1
1
1
1
1
1
1
1
1
1
1
1
1
1
1
1
1
1
0.999978
0.999993
0.999163
1
1
1
1
1
1
1
1
1
1
1
1
1
1
1
1
1
1
1
1
1
0.999999
1
1
1
1
1
1
1
1
1
1
1
1
1
1
1
1
1
1
1
1
1
1
1
1
1
1
0.999999
1
1
1
1
1
1
1
1
1
1
1
1
1
1
1
1
1
1
1
1
1
0.999983
0.999977
0.999983
0.999987
0.999989
0.99999
0.999992
0.999993
0.999995
0.999997
0.999999
1
1
1
1
1
1
1
1
1
1
1
1.88887e-24
9.0446e-26
4.44474e-27
6.2485e-30
3.92396e-32
2.01664e-34
9.7349e-37
5.0353e-39
5.7685e-41
2.64539e-41
1.38275e-42
5.48521e-45
1.70041e-47
9.44508e-50
4.51356e-52
1.64372e-54
4.19123e-57
4.64629e-60
2.99562e-60
8.44338e-23
4.08007e-23
6.39405e-24
6.70934e-28
6.2485e-30
3.92396e-32
2.01664e-34
9.7349e-37
5.0353e-39
2.50227e-38
2.05375e-39
9.0589e-42
1.4443e-44
6.6063e-47
2.83641e-49
8.92899e-52
1.77313e-54
1.37681e-57
2.99562e-60
4.37275e-20
1.88505e-20
2.77401e-21
9.02257e-24
5.7462e-27
4.14738e-29
2.42192e-31
1.25866e-33
6.63114e-36
4.47586e-35
2.24195e-36
3.95981e-39
6.54234e-42
3.0134e-44
1.14309e-46
2.94561e-49
4.05969e-52
8.84118e-56
1.45573e-58
1.36188e-17
6.64437e-18
9.25226e-19
8.71511e-21
2.52752e-24
2.10666e-26
1.4528e-28
8.65234e-31
5.02265e-33
1.40922e-32
7.84707e-34
1.59838e-36
2.41801e-39
1.02417e-41
3.38985e-44
6.75357e-47
5.39423e-50
2.71079e-53
5.99893e-56
1.10937e-15
5.18006e-15
3.83526e-16
2.48452e-18
2.16981e-21
6.43463e-24
5.34891e-26
3.82419e-28
2.61157e-30
2.05117e-30
1.04483e-31
2.51551e-34
5.25373e-37
2.16562e-39
6.3034e-42
1.04605e-44
9.63383e-48
8.92323e-51
3.04564e-53
7.62319e-14
7.38396e-13
1.02891e-13
7.71824e-16
6.90123e-19
6.68057e-21
8.17577e-23
1.03545e-25
1.55165e-27
2.40137e-28
4.52975e-30
1.77406e-32
8.61175e-35
3.45297e-37
9.45956e-40
1.54658e-42
2.1932e-45
2.3646e-48
9.98636e-51
9.79071e-12
4.06415e-11
1.48999e-12
3.65281e-14
3.30196e-16
5.59168e-18
8.21234e-20
9.35428e-22
9.01884e-24
8.49799e-26
6.8113e-28
4.51144e-30
2.32274e-32
9.12282e-35
2.34833e-37
2.94112e-40
9.10825e-43
1.26338e-45
2.51941e-48
4.68925e-08
3.10726e-09
9.25987e-13
4.74058e-14
3.4262e-14
1.81108e-15
2.45329e-17
2.01146e-19
1.71668e-21
1.49779e-23
1.19965e-25
8.38291e-28
4.71297e-30
1.91816e-32
3.1973e-35
1.13042e-37
4.06232e-40
5.54358e-43
1.34546e-45
0.999806
0.968682
0.962536
0.96599
0.965336
0.963003
0.959837
0.956379
0.95346
0.952305
0.953887
0.959003
0.968182
0.980326
0.997649
1
1
1
1
1
1
1
1
0.599432
0.349254
0.323149
0.32926
0.321941
0.311632
0.301102
0.290187
0.280839
0.275658
0.277399
0.288516
0.312097
0.349412
0.410943
0.551498
0.746098
0.941536
1
1
1
1
1
-4.82601e-18
-2.17989e-17
-1.51152e-16
-1.63327e-15
-1.06537e-14
-4.01854e-14
-7.75121e-14
-3.38743e-13
-4.49274e-13
-2.762e-13
-1.12042e-13
-3.7886e-14
2.6707e-41
6.42341e-14
1.89905e-13
0.00703408
0.0463126
0.148604
0.36517
0.685413
0.999982
0.999999
1
-6.90898e-17
-3.94934e-16
-3.38536e-15
-3.24391e-14
-2.02961e-13
-7.90202e-13
-1.5852e-12
-2.18614e-12
-2.36441e-12
-1.45295e-12
-6.06691e-13
-1.98406e-13
5.36574e-12
8.50073e-12
1.75951e-12
-1.09703e-10
2.8834e-06
0.000146853
0.000592381
0.0525351
0.279822
0.655551
0.999897
-9.24758e-17
-4.88975e-16
-4.87042e-15
-4.82502e-14
-3.07003e-13
-1.20131e-12
-2.43766e-12
-3.42046e-12
-3.65366e-12
-2.15038e-12
-7.67058e-13
-2.47224e-13
5.46084e-11
5.03594e-10
2.81217e-10
6.21137e-11
6.22884e-11
7.37262e-06
2.16622e-05
8.25755e-05
6.65957e-05
0.0386255
0.243237
-3.87753e-17
-2.14056e-16
-4.13044e-15
-4.35344e-14
-2.8516e-13
-1.10642e-12
-2.22885e-12
-3.13717e-12
-3.37536e-12
-1.88202e-12
-2.21718e-13
-7.05175e-14
6.17017e-11
2.00495e-09
2.91502e-09
7.88928e-11
7.95595e-11
1.76364e-07
9.60703e-07
0.000124172
8.8003e-06
5.08194e-06
0.000109329
-9.52344e-18
-1.32519e-16
-2.57585e-15
-2.95073e-14
-1.96271e-13
-7.49309e-13
-1.48417e-12
-2.05919e-12
-2.16294e-12
-1.01393e-12
1.11154e-12
2.58723e-13
2.96854e-13
2.44164e-09
4.13681e-09
2.87648e-09
2.73839e-09
4.40916e-09
2.8438e-08
4.86244e-06
2.15206e-07
5.65442e-07
5.08195e-06
-4.5689e-18
-6.32464e-17
-1.30004e-15
-1.56124e-14
-1.04202e-13
-3.90267e-13
-7.56983e-13
-1.02099e-12
-1.01043e-12
-3.86028e-13
2.26971e-12
4.07743e-12
1.40287e-11
3.05795e-10
3.17865e-09
3.85412e-09
3.81701e-09
2.1021e-09
1.81725e-09
3.49799e-09
6.83574e-09
2.15206e-07
5.65442e-07
-2.23742e-18
-2.44692e-17
-5.2468e-16
-6.43076e-15
-4.25876e-14
-1.55788e-13
-2.94941e-13
-3.81612e-13
-3.38665e-13
-8.39348e-14
1.50639e-12
8.72662e-12
1.20005e-11
2.27337e-11
3.04735e-10
1.7418e-09
2.53036e-09
2.21287e-09
1.50618e-09
1.03684e-09
9.7677e-10
1.68164e-05
4.50277e-05
-8.10724e-19
-7.44379e-18
-1.6369e-16
-2.01624e-15
-1.31541e-14
-4.67661e-14
-8.59005e-14
-1.0368e-13
-7.21394e-14
2.29395e-14
9.3087e-13
7.03732e-12
1.41945e-11
2.05134e-11
9.09793e-11
5.37534e-10
1.6438e-09
2.05699e-09
1.62025e-09
9.7677e-10
9.13679e-10
1.97717e-05
0.000112214
-2.0763e-19
-1.67001e-18
-3.72274e-17
-4.56359e-16
-2.91723e-15
-1.00246e-14
-1.76461e-14
-1.82959e-14
-2.4412e-15
6.47074e-14
4.95684e-13
3.05051e-12
8.26599e-12
1.46924e-11
5.21174e-11
2.68904e-10
1.03119e-09
1.89732e-09
1.91512e-09
1.37819e-09
8.88607e-10
8.48785e-10
8.66497e-10
-3.39849e-20
-2.45635e-19
-5.51071e-18
-6.68072e-17
-4.16315e-16
-1.37178e-15
-2.21838e-15
-1.2361e-15
5.16506e-15
5.07985e-14
2.77119e-13
1.36648e-12
4.6457e-12
1.11356e-11
2.95972e-11
7.61748e-11
2.25849e-10
9.4139e-10
1.37589e-09
1.00654e-09
8.48785e-10
8.35846e-10
0.000105267
-2.72281e-21
-1.79027e-20
-4.01267e-19
-4.77808e-18
-2.87792e-17
-8.82289e-17
-8.59701e-17
2.83056e-16
4.48493e-15
3.71074e-14
2.16276e-13
9.82177e-13
3.55655e-12
9.59671e-12
2.5808e-11
5.34215e-11
1.01736e-10
3.74924e-10
8.97081e-10
8.98497e-10
8.35846e-10
8.26355e-10
0.00028901
-1.00141e-23
-4.18383e-23
-4.06654e-22
7.32907e-22
5.99192e-20
1.3009e-18
2.21895e-17
3.33885e-16
3.56418e-15
3.06748e-14
1.84625e-13
8.31678e-13
3.11707e-12
8.9375e-12
2.20509e-11
4.82882e-11
9.63667e-11
3.03091e-10
8.25103e-10
9.02244e-10
8.26373e-10
8.10852e-10
3.77043e-05
-1.75949e-25
6.52287e-25
4.29509e-23
1.71125e-21
4.16343e-20
9.06485e-19
1.60758e-17
2.41111e-16
3.01829e-15
2.71709e-14
1.69172e-13
7.55343e-13
2.92671e-12
8.72744e-12
1.99772e-11
4.39278e-11
1.0158e-10
2.65631e-10
6.84037e-10
9.02244e-10
8.85193e-10
7.95809e-10
8.06495e-10
3.86103e-26
4.34086e-25
2.54797e-23
1.08463e-21
3.27519e-20
7.41601e-19
1.35249e-17
2.0943e-16
2.70345e-15
2.5299e-14
1.63887e-13
7.31745e-13
2.88049e-12
9.05458e-12
1.98952e-11
4.16484e-11
1.04293e-10
2.62105e-10
5.41612e-10
8.20789e-10
8.61713e-10
7.70831e-10
7.95771e-10
8.50338e-26
2.95502e-25
1.81494e-23
8.08538e-22
2.47236e-20
5.81518e-19
1.10718e-17
1.79337e-16
2.45626e-15
2.4225e-14
1.65072e-13
7.72206e-13
3.10576e-12
9.48383e-12
2.06791e-11
4.16685e-11
1.12748e-10
3.24432e-10
6.18315e-10
7.45476e-10
7.44886e-10
7.4298e-10
7.70831e-10
5.9301e-26
1.7091e-25
1.13436e-23
5.38645e-22
1.75339e-20
4.34905e-19
8.72284e-18
1.49626e-16
2.20463e-15
2.33013e-14
1.66693e-13
8.46464e-13
3.41946e-12
9.8957e-12
2.26781e-11
5.58653e-11
1.73007e-10
4.50395e-10
6.76078e-10
6.89925e-10
6.88748e-10
7.14037e-10
8.18439e-10
2.90437e-26
8.96748e-26
6.53159e-24
3.3167e-22
1.14583e-20
3.01228e-19
6.41291e-18
1.17638e-16
1.88273e-15
2.18309e-14
1.66762e-13
9.0057e-13
3.89811e-12
1.0871e-11
2.63372e-11
7.75478e-11
2.58904e-10
5.79565e-10
6.80825e-10
6.79695e-10
6.8362e-10
1.01837e-09
2.14533e-09
1.62375e-26
4.27234e-26
3.39064e-24
1.85135e-22
6.84056e-21
1.92191e-19
4.37339e-18
8.63331e-17
1.50093e-15
1.96245e-14
1.64359e-13
9.33982e-13
4.87325e-12
1.39861e-11
2.84491e-11
8.42459e-11
3.59922e-10
7.23416e-10
6.85892e-10
6.83521e-10
6.63948e-10
4.92293e-09
2.92877e-08
8.01663e-27
1.83547e-26
1.60026e-24
9.43204e-23
3.74355e-21
1.13175e-19
2.77605e-18
5.93445e-17
1.13139e-15
1.66185e-14
1.59328e-13
9.47892e-13
6.74944e-12
2.00743e-11
2.74326e-11
6.8412e-11
1.3684e-09
2.42202e-09
1.16936e-09
7.05293e-10
7.75093e-10
4.39203e-08
5.41968e-07
3.52011e-27
7.19742e-27
6.91498e-25
4.41193e-23
1.89033e-21
6.19994e-20
1.65488e-18
3.85541e-17
8.11559e-16
1.35369e-14
1.50705e-13
9.52258e-13
9.02984e-12
2.43356e-11
2.40058e-11
4.71579e-10
5.12563e-09
6.78527e-09
2.73354e-09
8.00905e-10
-4.56626e-11
3.754e-07
0.000273751
1.40448e-27
2.62101e-27
2.76642e-25
1.91286e-23
8.89508e-22
3.19025e-20
9.34121e-19
2.38287e-17
5.53851e-16
1.06773e-14
1.35254e-13
9.51971e-13
1.02246e-11
2.42705e-11
2.39661e-11
2.61051e-09
7.49202e-09
7.49202e-09
3.59144e-09
1.08584e-09
-8.23453e-09
3.69513e-05
0.00106019
5.05404e-28
8.95651e-28
1.03146e-25
7.73681e-24
3.92702e-22
1.54818e-20
4.9911e-19
1.3958e-17
3.58114e-16
7.93604e-15
1.13621e-13
9.19904e-13
1.01921e-11
2.37131e-11
2.3763e-11
3.57571e-09
7.40204e-09
7.49202e-09
3.32869e-09
1.47267e-09
-1.5726e-08
0.000952445
0.00123102
1.65706e-28
2.87618e-28
3.57559e-26
2.91774e-24
1.62368e-22
7.03247e-21
2.49084e-19
7.61798e-18
2.14892e-16
5.39704e-15
8.79859e-14
7.97285e-13
7.69814e-12
2.76577e-11
2.32886e-11
1.81571e-09
6.55757e-09
6.34973e-09
2.8114e-09
1.91209e-09
9.91045e-05
0.00121285
0.00123384
5.01356e-29
8.5586e-29
1.1388e-26
1.01717e-24
6.21406e-23
2.93843e-21
1.13595e-19
3.77958e-18
1.16426e-16
3.27259e-15
6.01132e-14
6.20865e-13
5.91729e-12
3.16608e-11
2.22197e-11
6.28887e-10
3.08385e-09
4.26669e-09
8.02969e-09
3.126e-09
2.46806e-05
0.000472255
0.00121358
1.41598e-29
2.30879e-29
3.28858e-27
3.24154e-25
2.16892e-23
1.1102e-21
4.64506e-20
1.66917e-18
5.56533e-17
1.72509e-15
3.5814e-14
4.28761e-13
5.40248e-12
3.19766e-11
2.21322e-11
1.10315e-10
3.55124e-09
3.91189e-09
4.60022e-08
4.40195e-09
6.33184e-05
0.000156494
9.44063e-05
3.73471e-30
5.57277e-30
8.59547e-28
9.40538e-26
6.85339e-24
3.77125e-22
1.69257e-20
6.50624e-19
2.3189e-17
7.81884e-16
1.85308e-14
2.59711e-13
2.76514e-12
3.16977e-11
1.98274e-11
2.01859e-11
1.00128e-08
6.76671e-09
4.87025e-08
1.48157e-09
0.000132331
0.000211979
7.67819e-05
9.01207e-31
1.21649e-30
2.06845e-28
2.50518e-26
1.97114e-24
1.16122e-22
5.53737e-21
2.25018e-19
8.42713e-18
3.04167e-16
8.23359e-15
1.37471e-13
1.40241e-12
2.02712e-11
1.21614e-11
8.79021e-11
1.14851e-08
8.82344e-09
1.43392e-09
1.01429e-09
0.000323062
0.000326972
4.21223e-05
1.91025e-31
2.48184e-31
4.70094e-29
6.19963e-27
5.21647e-25
3.27814e-23
1.64554e-21
6.9903e-20
2.69741e-18
1.02012e-16
3.13406e-15
6.18865e-14
7.72991e-13
8.6311e-12
9.78439e-12
1.03097e-10
1.14851e-08
5.95255e-09
1.6648e-10
4.30031e-10
0.00034659
0.000466275
6.78531e-05
3.3857e-32
4.82576e-32
1.01172e-29
1.41871e-27
1.26705e-25
8.44827e-24
4.4421e-22
1.96397e-20
7.70086e-19
2.977e-17
1.01737e-15
2.37547e-14
3.54522e-13
3.71157e-12
1.29663e-11
1.30388e-11
6.7316e-09
1.43378e-09
1.0719e-10
1.6648e-10
0.000252132
0.000466275
0.000174917
4.78605e-33
8.56312e-33
1.97497e-30
2.89845e-28
2.73986e-26
1.92753e-24
1.06581e-22
4.93511e-21
1.97141e-19
7.64662e-18
2.81609e-16
7.70762e-15
1.36889e-13
1.52033e-12
1.38322e-11
7.91937e-11
7.92084e-11
1.3381e-10
1.03956e-10
1.0719e-10
5.20469e-05
0.000466275
0.00023597
5.16387e-34
1.25601e-33
3.25538e-31
5.00066e-29
5.00467e-27
3.71354e-25
2.18679e-23
1.0747e-21
4.4721e-20
1.74236e-18
6.66547e-17
2.09739e-15
4.48222e-14
5.85612e-13
6.51192e-12
1.04741e-10
1.89512e-10
9.74884e-11
9.91294e-11
1.03956e-10
2.60732e-05
0.000266977
0.000160682
4.05209e-35
1.39969e-34
4.2415e-32
6.88736e-30
7.31264e-28
5.7795e-26
3.68287e-24
1.94726e-22
8.71525e-21
3.49986e-19
1.35536e-17
4.76517e-16
1.22147e-14
1.95821e-13
1.87437e-12
3.4674e-11
3.03479e-10
9.21127e-11
9.5254e-11
3.70169e-07
6.07463e-06
4.98894e-05
3.43508e-05
2.1601e-36
1.16196e-35
4.14991e-33
7.20171e-31
8.18267e-29
7.02449e-27
4.91192e-25
2.83101e-23
1.39957e-21
6.01552e-20
2.36667e-18
9.00795e-17
2.73584e-15
5.2494e-14
6.68515e-13
7.91968e-12
2.59801e-10
6.52922e-11
2.55944e-10
1.40717e-06
6.81268e-08
1.89499e-05
1.10495e-05
6.95442e-38
6.97044e-37
2.87242e-34
5.42866e-32
6.75456e-30
6.41818e-28
4.99615e-26
3.20269e-24
1.77193e-22
8.3927e-21
3.47983e-19
1.40355e-17
4.93264e-16
1.14304e-14
1.76705e-13
2.46734e-12
6.17329e-11
5.35382e-11
5.52527e-11
8.3168e-07
5.87835e-08
6.12871e-12
1.59437e-06
1.21175e-39
2.61542e-38
1.2741e-35
2.73231e-33
3.83374e-31
4.10092e-29
3.66658e-27
2.68464e-25
1.6726e-23
8.87147e-22
4.0638e-20
1.74423e-18
6.9102e-17
1.93745e-15
3.68229e-14
5.83191e-13
3.96232e-12
5.27326e-11
1.36584e-09
5.27798e-11
2.59437e-09
-4.05083e-27
6.12871e-12
6.99133e-42
5.60167e-40
3.20873e-37
8.06586e-35
1.3221e-32
1.65314e-30
1.74018e-28
1.45864e-26
1.05274e-24
6.43074e-23
3.3369e-21
1.58692e-19
7.07066e-18
2.41337e-16
5.57886e-15
8.51439e-14
6.28903e-13
5.91569e-11
1.48985e-09
4.48533e-11
-9.88904e-10
-6.82353e-10
-1.06182e-22
4.70755e-45
3.95159e-42
2.22542e-39
7.15251e-37
1.67525e-34
2.91501e-32
3.81668e-30
3.8546e-28
3.38476e-26
2.44066e-24
1.50453e-22
8.77183e-21
4.64205e-19
1.95927e-17
5.62308e-16
8.0518e-15
6.12089e-14
1.57761e-11
2.90962e-10
0
-8.57122e-10
-6.19791e-10
0
4.59302e-50
9.9115e-47
8.70312e-44
5.47415e-41
2.3557e-38
6.88237e-36
1.98334e-33
4.57812e-31
7.8925e-29
1.26995e-26
1.68926e-24
1.70885e-22
1.35052e-20
7.6412e-19
2.85676e-17
3.59189e-16
3.21021e-15
2.65128e-12
-2.32502e-14
-2.87816e-11
-4.5022e-10
-3.21657e-10
-1.36094e-14
2.11056e-61
7.03104e-57
2.5013e-53
5.54158e-50
8.21608e-47
8.65401e-44
8.0667e-41
5.80669e-38
2.98096e-35
1.56987e-32
5.74056e-30
1.8207e-27
4.55291e-25
8.86113e-23
7.59801e-21
1.65262e-19
-3.26369e-17
1.24131e-14
-4.80433e-13
-1.15303e-11
-1.40982e-10
-9.91951e-11
-1.63138e-09
0
7.00927e-71
5.65293e-67
3.40015e-64
-5.68258e-65
8.02183e-58
-5.29542e-58
-1.19714e-59
-1.28268e-51
-3.4479e-53
-5.39915e-55
-3.48526e-32
-1.98228e-28
-5.45789e-25
-4.19462e-22
-1.59102e-19
-3.12424e-17
-3.07024e-15
-1.38156e-13
-2.49489e-12
-2.15541e-11
-1.26875e-11
-1.61916e-12
0.79403
0.0122564
7.06935e-05
3.83273e-06
0.997481
0.452466
0.00618908
1.90118e-05
0.999897
0.994204
0.409146
0.000436878
0.999309
0.99768
0.927767
0.254089
0.771768
0.996014
0.987287
0.750617
0.075846
0.587013
0.978899
0.96001
1.05387e-05
0.00814118
0.608029
0.94398
9.01073e-06
1.1952e-05
0.0284832
0.668656
2.37862e-05
1.1952e-05
1.42944e-05
0.276571
0.000201561
3.85795e-05
1.67106e-05
0.0461523
0.00020433
9.90863e-05
2.05857e-05
2.97562e-05
0.000383692
0.000229056
2.97562e-05
3.38875e-05
0.000383692
0.000374397
4.54491e-05
3.02159e-05
0.000383692
0.000376668
8.68666e-05
2.40563e-05
0.000195627
0.000369645
0.000126871
1.27218e-05
3.58542e-05
0.000338727
0.000104431
3.36973e-06
6.12385e-06
5.42423e-05
3.28675e-05
3.51922e-07
1.56655e-09
2.23099e-09
3.86145e-08
8.82484e-08
6.1802e-09
1.09775e-08
1.55712e-08
4.52862e-08
4.8593e-07
1.66483e-07
4.52862e-08
8.52687e-08
1.8041e-06
1.66572e-07
8.52687e-08
1.01276e-07
0.000412212
0.000103272
1.91556e-07
1.26697e-07
0.00123102
0.00026265
1.05062e-05
0.00299918
0.00123269
0.00043623
3.75913e-05
0.0777336
0.00123102
0.000674682
7.02834e-05
0.202596
0.00123313
0.000516743
9.97551e-05
0.133926
0.000196726
9.71333e-05
0.000215662
0.00563454
3.00915e-05
3.37276e-05
0.00150354
0.00481194
2.80273e-05
2.87062e-05
0.00276933
0.147016
2.67741e-05
2.80273e-05
0.036797
0.218873
2.09532e-05
2.67741e-05
0.174873
0.223786
1.09791e-05
0.043492
0.223786
0.225422
3.84561e-06
0.135289
0.225422
0.225698
1.22893e-06
0.0798722
0.225664
0.225664
2.74566e-07
0.0141327
0.219227
0.225717
5.62646e-08
0.0176715
0.215575
0.1248
1.66936e-08
0.056297
0.211525
0.032887
3.95771e-08
0.149015
0.176912
0.0115143
3.37423e-08
0.16668
0.0987718
0.00455213
0.000958225
0.168778
0.11696
0.00299143
0.070979
0.168152
0.0940295
0.00124671
0.0689396
0.13437
0.00301926
5.11595e-05
8.44353e-08
2.87957e-09
4.38482e-11
7.5481e-13
1.86906e-13
3.05418e-14
6.79279e-16
5.16093e-18
4.12747e-20
3.49279e-22
2.58108e-24
1.50936e-26
4.93252e-29
2.94178e-31
1.66655e-33
7.12117e-36
2.03745e-38
2.9445e-41
5.4349e-43
6.17769e-07
1.32745e-08
2.09524e-10
3.30805e-12
1.3303e-13
8.4085e-14
5.59902e-15
7.15517e-17
5.32898e-19
4.43955e-21
3.34495e-23
1.84838e-25
5.60104e-28
3.99897e-30
2.39761e-32
1.07739e-34
3.23977e-37
5.01057e-40
2.90257e-41
2.52904e-06
3.91598e-08
5.99181e-10
9.52966e-12
1.62821e-13
1.3375e-14
1.08793e-14
4.80738e-16
3.18223e-18
2.57738e-20
2.31922e-22
1.63605e-24
6.97484e-27
2.62399e-29
1.63824e-31
7.78577e-34
2.46173e-36
4.13937e-39
4.96002e-40
1.87183e-05
2.23172e-07
4.88377e-09
9.40531e-11
1.60244e-12
2.55057e-14
1.11109e-15
6.82676e-16
2.54061e-17
1.06772e-19
8.38576e-22
6.93273e-24
3.57051e-26
1.43663e-28
9.19156e-31
4.58447e-33
1.5215e-35
2.73209e-38
4.09671e-39
0.0696571
6.33482e-06
4.09737e-07
2.92209e-09
6.09722e-11
1.196e-12
2.32998e-14
8.06632e-16
3.40279e-17
4.70243e-19
3.55237e-21
2.95456e-23
3.02085e-25
2.61158e-27
1.81023e-29
9.43258e-32
3.28089e-34
5.83493e-37
2.70282e-38
0.289347
0.000198378
2.75068e-06
5.66521e-08
1.27591e-09
2.75624e-11
5.81488e-13
1.84362e-14
7.57692e-16
9.21019e-18
7.41309e-20
9.2931e-22
1.01963e-23
9.26535e-26
6.73836e-28
3.67623e-30
1.33743e-32
2.44765e-35
5.76172e-37
0.527339
0.00801613
1.82181e-05
4.15101e-07
1.00618e-08
2.48912e-10
5.71833e-12
1.88425e-13
8.78771e-15
1.34e-16
9.86304e-19
1.28445e-20
1.48368e-22
1.413e-24
1.07484e-26
6.12564e-29
2.32524e-31
4.47544e-34
2.41471e-35
0.669654
0.10414
0.000105669
2.70276e-06
7.31198e-08
1.98321e-09
4.96625e-11
1.7135e-12
3.98113e-14
1.29879e-15
1.15237e-17
1.50659e-19
1.82297e-21
1.81446e-23
1.43953e-25
8.54224e-28
3.37332e-30
6.7882e-33
4.41429e-34
0.666355
0.206988
0.000334154
1.04393e-05
3.16334e-07
9.37975e-09
2.5547e-10
8.96171e-12
2.26257e-13
8.42004e-15
1.06815e-16
1.10441e-18
1.37839e-20
1.43709e-22
1.18637e-24
7.31583e-27
2.99866e-29
6.12645e-32
6.6932e-33
0.573667
0.284194
0.00221145
2.41288e-05
8.2188e-07
2.67911e-08
7.8694e-10
2.51051e-11
8.00966e-13
2.98766e-14
6.52185e-16
5.39056e-18
6.02431e-20
6.54486e-22
5.62595e-24
3.60033e-26
1.52976e-28
2.48267e-31
6.27135e-32
0.452611
0.334478
0.0117761
4.17108e-05
1.60846e-06
5.62872e-08
1.76496e-09
4.94057e-11
1.9311e-12
5.67395e-14
2.32846e-15
2.78435e-17
1.89495e-19
2.02206e-21
1.81224e-23
1.20159e-25
5.27946e-28
8.72201e-31
3.44661e-31
0.336916
0.343091
0.0322332
6.66121e-05
2.81286e-06
1.05483e-07
3.50266e-09
1.03218e-10
3.98769e-12
1.06224e-13
5.89506e-15
8.82103e-17
6.91067e-19
5.31567e-21
4.87266e-23
3.34698e-25
1.51457e-27
2.63334e-30
1.29042e-30
0.252784
0.334059
0.051813
9.69858e-05
4.37993e-06
1.73704e-07
6.05074e-09
1.86088e-10
6.98369e-12
1.92435e-13
1.22865e-14
2.17704e-16
2.08147e-18
1.37736e-20
1.10388e-22
7.79273e-25
3.62915e-27
7.03465e-30
3.9256e-30
0.213487
0.318841
0.0695188
0.000122102
5.78854e-06
2.39984e-07
8.69803e-09
2.77725e-10
1.05063e-11
3.06552e-13
2.22839e-14
4.48503e-16
4.91954e-18
4.28654e-20
2.18771e-22
1.50003e-24
7.22941e-27
1.92225e-29
1.01148e-29
0.157792
0.306413
0.0696116
0.000120799
5.91833e-06
2.53854e-07
9.52286e-09
3.15178e-10
1.25809e-11
3.90852e-13
3.7052e-14
8.45801e-16
1.0353e-17
1.11166e-19
8.81085e-22
4.43794e-24
1.14072e-26
4.11984e-29
2.25409e-29
0.0902175
0.295082
0.0518455
9.40727e-05
4.674e-06
2.06133e-07
7.9954e-09
2.7425e-10
1.17729e-11
3.96894e-13
4.44487e-14
1.06127e-15
1.39987e-17
1.70735e-19
1.6284e-21
1.1057e-23
4.63737e-26
7.63913e-29
4.12775e-29
0.107003
0.26025
0.0494024
8.49493e-05
4.19675e-06
1.8638e-07
7.33767e-09
2.5544e-10
1.15422e-11
3.8691e-13
4.48416e-14
1.108e-15
1.49059e-17
1.87476e-19
1.86802e-21
1.35513e-23
6.30031e-26
1.06798e-28
6.18325e-29
0.206328
0.252142
0.0685023
0.00010144
5.03942e-06
2.24264e-07
8.77586e-09
3.07045e-10
1.35042e-11
4.43965e-13
4.39613e-14
1.08844e-15
1.48976e-17
1.86765e-19
1.84106e-21
1.29968e-23
5.59159e-26
1.00082e-28
8.03331e-29
0.21788
0.242763
0.0722506
0.000120706
6.19726e-06
2.77697e-07
1.09477e-08
3.83585e-10
1.59833e-11
5.40182e-13
5.12054e-14
1.28572e-15
1.86781e-17
2.452e-19
2.55821e-21
1.97609e-23
1.00437e-25
1.71856e-28
9.45517e-29
0.078104
0.192466
0.0444101
8.97581e-05
4.73306e-06
2.17474e-07
8.77451e-09
3.15661e-10
1.35906e-11
6.412e-13
6.21272e-14
1.48471e-15
2.28792e-17
3.19953e-19
3.56383e-21
3.00777e-23
1.80649e-25
6.07107e-28
6.09411e-29
0.0278802
0.0272259
0.00481652
5.47766e-05
1.4415e-06
7.32974e-08
3.2409e-09
1.27524e-10
6.92712e-12
1.10282e-12
5.33387e-14
1.10281e-15
1.99824e-17
3.09963e-19
3.88762e-21
3.77919e-23
2.67161e-25
1.18337e-27
3.55186e-29
0.143838
0.0360688
0.000187377
8.84601e-06
5.00691e-07
2.57812e-08
1.17029e-09
6.31611e-11
2.96252e-12
5.11892e-13
2.15961e-14
4.50518e-16
8.53148e-18
1.38677e-19
1.84185e-21
1.91793e-23
1.45533e-25
6.96706e-28
2.42975e-29
0.20606
0.167394
0.00902578
1.99001e-05
1.00418e-06
4.36916e-08
1.71375e-09
6.58866e-11
3.30626e-12
1.92732e-13
1.14876e-14
2.5679e-16
4.18296e-18
6.02118e-20
6.9677e-22
6.33901e-24
4.30065e-26
1.92017e-28
1.93181e-29
0.209531
0.20606
0.0173732
3.97049e-05
2.05606e-06
8.81194e-08
3.32014e-09
1.10725e-10
5.01398e-12
1.9148e-13
1.27644e-14
2.54226e-16
3.59916e-18
4.68878e-20
5.06167e-22
4.31075e-24
2.78592e-26
9.53924e-29
1.41438e-29
0.209531
0.163491
0.00869085
3.7194e-05
2.00262e-06
8.58636e-08
3.2293e-09
1.09738e-10
4.89348e-12
4.03666e-13
1.97794e-14
3.59429e-16
5.44881e-18
7.18141e-20
7.64681e-22
6.33219e-24
3.82456e-26
1.40572e-28
8.24858e-30
0.209531
0.0725542
0.000764789
1.87449e-05
1.02788e-06
4.67267e-08
1.75556e-09
6.26078e-11
3.17017e-12
5.74823e-13
2.08596e-14
3.60005e-16
6.0147e-18
8.46119e-20
9.65203e-22
8.5949e-24
5.61487e-26
2.35099e-28
3.78673e-30
0.139913
0.0148729
0.000136447
5.92761e-06
3.38083e-07
1.61479e-08
6.60913e-10
3.07836e-11
2.69317e-12
3.28529e-13
9.53296e-15
1.86295e-16
3.32711e-18
4.93341e-20
5.90935e-22
5.52302e-24
3.79372e-26
1.6954e-28
1.40512e-30
0.0102802
0.000300317
2.75448e-05
1.68946e-06
9.26225e-08
4.56571e-09
2.15795e-10
1.13547e-11
2.41933e-12
1.20858e-13
2.81034e-15
6.19352e-17
1.15925e-18
1.79487e-20
2.24799e-22
2.19768e-24
1.57931e-26
7.43041e-29
4.24365e-31
0.0156798
4.33976e-05
3.67719e-06
2.76816e-07
1.88687e-08
1.06816e-09
6.17709e-11
8.75851e-12
9.42174e-13
2.90473e-14
7.47143e-16
1.70526e-17
3.27402e-19
5.20377e-21
6.69491e-23
6.72655e-25
4.97038e-27
2.40624e-29
1.08961e-31
0.040136
1.55676e-05
7.96216e-07
6.55652e-08
3.80028e-09
2.27853e-10
1.51414e-11
4.188e-12
2.26645e-13
6.45749e-15
1.738e-16
4.04854e-18
7.94179e-20
1.28961e-21
1.69444e-23
1.7383e-25
1.31151e-27
6.48873e-30
2.45451e-32
0.0796047
3.46106e-05
5.78584e-07
2.60512e-08
1.66603e-09
6.35483e-11
4.09031e-12
1.0487e-12
5.4884e-14
1.51996e-15
3.83789e-17
8.78911e-19
1.73032e-20
2.83846e-22
3.77837e-24
3.93295e-26
3.01349e-28
1.51588e-30
4.98687e-33
0.0992509
5.40927e-05
1.83679e-06
7.19284e-09
6.5968e-10
4.03056e-11
1.93974e-12
4.40713e-13
2.21036e-14
4.94715e-16
9.89741e-18
1.98672e-19
3.69538e-21
5.91052e-23
7.78871e-25
8.09859e-27
6.23318e-29
3.16169e-31
9.43228e-34
0.085939
5.20724e-05
1.67885e-06
3.98801e-08
-2.89511e-10
1.13737e-11
1.50107e-12
3.63856e-13
1.49668e-14
2.88951e-16
4.00361e-18
5.74424e-20
8.9408e-22
1.29323e-23
1.60369e-25
1.60813e-27
1.21327e-29
6.09991e-32
1.74763e-34
0.0544657
2.83606e-05
6.91324e-07
1.80828e-08
3.22663e-10
-2.74145e-12
3.79395e-12
3.19003e-13
1.1785e-14
2.83715e-16
2.89895e-18
2.50317e-20
2.81289e-22
3.30099e-24
3.57571e-26
3.28606e-28
2.34182e-30
1.13463e-32
3.58317e-35
0.0219221
7.63509e-06
2.01888e-07
8.31444e-09
1.14238e-10
9.41312e-12
4.08476e-12
2.41042e-13
1.27555e-14
3.79873e-16
3.49842e-18
2.21603e-20
1.71925e-22
1.33807e-24
1.02562e-26
7.54346e-29
4.71752e-31
2.11208e-33
1.05363e-35
0.00475429
2.52794e-05
2.46622e-08
6.47508e-09
1.09673e-10
2.03566e-11
3.19996e-12
1.73152e-13
1.51952e-14
5.80206e-16
5.2453e-18
3.11789e-20
2.35473e-22
1.58257e-24
8.80118e-27
4.15582e-29
1.6731e-31
5.31763e-34
4.76138e-36
0.00121431
1.0179e-07
2.54176e-09
1.75908e-10
4.61563e-11
1.7226e-11
2.52595e-12
1.37955e-13
1.61288e-14
6.58082e-16
6.23181e-18
4.28339e-20
3.3718e-22
2.24914e-24
1.19985e-26
5.05817e-29
1.61627e-31
3.55348e-34
2.44114e-36
0.000574566
1.20715e-08
2.78996e-10
3.67501e-11
4.95093e-11
1.48115e-11
1.92617e-12
1.4181e-13
1.64675e-14
6.09743e-16
6.03052e-18
4.80578e-20
3.854e-22
2.59355e-24
1.39923e-26
5.84283e-29
1.78885e-31
3.61438e-34
1.10249e-36
0.000125058
5.02595e-08
5.80921e-08
1.19099e-11
5.05949e-11
1.22396e-11
1.37291e-12
1.96376e-13
1.80254e-14
4.55481e-16
4.67231e-18
4.16636e-20
3.33817e-22
2.21949e-24
1.19004e-26
4.95919e-29
1.51443e-31
3.01843e-34
3.8681e-37
1.90615e-07
3.75995e-08
6.45031e-08
9.57887e-12
3.25412e-11
7.62939e-12
7.31362e-13
2.71616e-13
2.28207e-14
3.06627e-16
2.78266e-18
2.66551e-20
2.09788e-22
1.34365e-24
6.94414e-27
2.80341e-29
8.33895e-32
1.63142e-34
1.08104e-37
4.98925e-08
9.72714e-09
2.11993e-09
6.19542e-12
5.23031e-12
2.66417e-12
7.02719e-13
2.79412e-13
2.11723e-14
1.98838e-16
1.48053e-18
1.29557e-20
9.39644e-23
5.55017e-25
2.64993e-27
9.94484e-30
2.77477e-32
5.15124e-35
4.02758e-38
1.77722e-07
2.07011e-07
3.03397e-07
3.66327e-08
2.57923e-12
1.06368e-12
9.87839e-13
2.13709e-13
9.83415e-15
7.24954e-17
4.67149e-19
3.26554e-21
1.99783e-23
1.02734e-25
4.344e-28
1.46484e-30
3.72448e-33
6.37956e-36
4.02758e-38
)
;

boundaryField
{
    leftWall
    {
        type            zeroGradient;
    }
    rightWall
    {
        type            zeroGradient;
    }
    lowerWall
    {
        type            zeroGradient;
    }
    atmosphere
    {
        type            inletOutlet;
        inletValue      uniform 0;
        value           nonuniform List<scalar> 
46
(
0
0
0
0
0
0
0
0
0
0
0
0
0
0
0
0
0
0
0
0
0
0
0
0.0689396
0.13437
0.00301926
5.11595e-05
1.77722e-07
2.07011e-07
3.03397e-07
3.66327e-08
2.57923e-12
1.06368e-12
9.87839e-13
2.13709e-13
9.83415e-15
7.24954e-17
4.67149e-19
3.26554e-21
1.99783e-23
1.02734e-25
4.344e-28
1.46484e-30
3.72448e-33
6.37956e-36
4.02758e-38
)
;
    }
    defaultFaces
    {
        type            empty;
    }
}


// ************************************************************************* //
