/*--------------------------------*- C++ -*----------------------------------*\
| =========                 |                                                 |
| \\      /  F ield         | OpenFOAM: The Open Source CFD Toolbox           |
|  \\    /   O peration     | Version:  2206                                  |
|   \\  /    A nd           | Website:  www.openfoam.com                      |
|    \\/     M anipulation  |                                                 |
\*---------------------------------------------------------------------------*/
FoamFile
{
    version     2.0;
    format      ascii;
    arch        "LSB;label=32;scalar=64";
    class       surfaceScalarField;
    location    "0.3";
    object      alphaPhi0.water;
}
// * * * * * * * * * * * * * * * * * * * * * * * * * * * * * * * * * * * * * //

dimensions      [0 3 -1 0 0 0 0];

oriented        oriented;

internalField   nonuniform List<scalar> 
4432
(
-1.9726e-06
1.9726e-06
1.84079e-06
-3.81339e-06
6.76151e-06
-4.92072e-06
1.07043e-05
-3.94276e-06
1.34134e-05
-2.70916e-06
1.52959e-05
-1.88244e-06
1.67348e-05
-1.43893e-06
1.79034e-05
-1.16858e-06
1.88128e-05
-9.09444e-07
1.93985e-05
-5.85735e-07
1.9585e-05
-1.86487e-07
1.93042e-05
2.80787e-07
1.84828e-05
8.21476e-07
1.70872e-05
1.39554e-06
1.50992e-05
1.98798e-06
1.2531e-05
2.56827e-06
9.48642e-06
3.04455e-06
6.10042e-06
3.38601e-06
2.66713e-06
3.43328e-06
-1.75369e-07
2.8425e-06
-1.76159e-06
1.58622e-06
-5.07184e-07
-1.15646e-06
-5.4521e-07
-1.64012e-06
3.61271e-06
2.14352e-06
-7.59703e-06
7.05241e-06
-9.82961e-06
1.10525e-05
-7.94289e-06
1.39026e-05
-5.55919e-06
1.59977e-05
-3.97753e-06
1.76949e-05
-3.13615e-06
1.91482e-05
-2.62192e-06
2.03711e-05
-2.13229e-06
2.13263e-05
-1.54099e-06
2.1965e-05
-8.25138e-07
2.22189e-05
2.68825e-08
2.21884e-05
8.51968e-07
2.18352e-05
1.74872e-06
2.11402e-05
2.68301e-06
2.00841e-05
3.62431e-06
1.86216e-05
4.5071e-06
1.6775e-05
5.23263e-06
1.45262e-05
5.68205e-06
1.17678e-05
5.59992e-06
8.55512e-06
4.79796e-06
4.49917e-06
2.89961e-06
3.77501e-06
-8.72564e-07
4.48528e-06
2.77045e-06
-1.124e-05
7.65341e-06
-1.47126e-05
1.17837e-05
-1.20732e-05
1.49065e-05
-8.68202e-06
1.73705e-05
-6.44154e-06
1.94681e-05
-5.23373e-06
2.13014e-05
-4.45525e-06
2.2853e-05
-3.68385e-06
2.4067e-05
-2.75497e-06
2.48935e-05
-1.65171e-06
2.53265e-05
-4.06072e-07
2.52847e-05
8.93773e-07
2.48128e-05
2.22065e-06
2.39247e-05
3.57106e-06
2.26479e-05
4.90112e-06
2.10128e-05
6.14215e-06
1.90409e-05
7.20453e-06
1.66169e-05
8.10603e-06
1.33524e-05
8.86418e-06
9.04866e-06
9.10074e-06
4.07624e-06
7.87213e-06
7.93315e-06
2.71181e-07
4.2141e-06
3.91581e-06
-1.48847e-05
8.78394e-06
-1.95807e-05
1.30956e-05
-1.63848e-05
1.66142e-05
-1.22006e-05
1.96135e-05
-9.44081e-06
2.22971e-05
-7.91742e-06
2.47101e-05
-6.86824e-06
2.68104e-05
-5.78413e-06
2.85314e-05
-4.47597e-06
2.98055e-05
-2.92576e-06
3.05663e-05
-1.16691e-06
3.07366e-05
7.23444e-07
3.03269e-05
2.63041e-06
2.92917e-05
4.60621e-06
2.76094e-05
6.58348e-06
2.52766e-05
8.47494e-06
2.23239e-05
1.01572e-05
1.87905e-05
1.16394e-05
1.45749e-05
1.30798e-05
9.68118e-06
1.39946e-05
4.89194e-06
1.26615e-05
1.28648e-05
1.72374e-06
2.49036e-06
5.76368e-06
-1.89246e-05
1.0676e-05
-2.44931e-05
1.51794e-05
-2.08882e-05
1.91563e-05
-1.61775e-05
2.28021e-05
-1.30866e-05
2.62041e-05
-1.13194e-05
2.93318e-05
-9.9959e-06
3.21118e-05
-8.56409e-06
3.44701e-05
-6.83425e-06
3.63403e-05
-4.79603e-06
3.76543e-05
-2.48092e-06
3.82279e-05
1.49885e-07
3.81486e-05
2.70975e-06
3.72962e-05
5.45854e-06
3.55968e-05
8.28287e-06
3.29823e-05
1.10895e-05
2.9399e-05
1.37405e-05
2.48634e-05
1.6175e-05
1.9465e-05
1.84782e-05
1.33037e-05
2.0156e-05
6.98664e-06
1.89786e-05
1.98514e-05
3.40584e-06
-9.1548e-07
8.31595e-06
-2.38347e-05
1.34365e-05
-2.96136e-05
1.81807e-05
-2.56324e-05
2.26817e-05
-2.06784e-05
2.70851e-05
-1.749e-05
3.13484e-05
-1.55827e-05
3.53516e-05
-1.39991e-05
3.89828e-05
-1.21953e-05
4.215e-05
-1.00014e-05
4.47666e-05
-7.41271e-06
4.67494e-05
-4.46373e-06
4.80808e-05
-1.18147e-06
4.84559e-05
2.33462e-06
4.7869e-05
6.04549e-06
4.61867e-05
9.96513e-06
4.33093e-05
1.39669e-05
3.91916e-05
1.78582e-05
3.39054e-05
2.14611e-05
2.76019e-05
2.47817e-05
1.99192e-05
2.78387e-05
1.03362e-05
2.85616e-05
3.01876e-05
5.55679e-06
-6.47227e-06
1.15664e-05
-2.98443e-05
1.68947e-05
-3.49418e-05
2.18747e-05
-3.06123e-05
2.69859e-05
-2.57896e-05
3.2292e-05
-2.27961e-05
3.75911e-05
-2.08818e-05
4.26779e-05
-1.9086e-05
4.74253e-05
-1.69426e-05
5.17479e-05
-1.4324e-05
5.55542e-05
-1.12189e-05
5.87021e-05
-7.61169e-06
6.10123e-05
-3.49164e-06
6.22867e-05
1.06021e-06
6.24707e-05
5.86152e-06
6.14943e-05
1.09416e-05
5.91541e-05
1.6307e-05
5.52877e-05
2.17246e-05
4.9665e-05
2.70838e-05
4.20465e-05
3.24003e-05
3.19073e-05
3.79778e-05
1.87296e-05
4.17393e-05
4.89172e-05
9.76627e-06
-1.62385e-05
1.70808e-05
-3.71552e-05
2.13839e-05
-3.92397e-05
2.58174e-05
-3.5042e-05
3.1455e-05
-3.14242e-05
3.7829e-05
-2.91677e-05
4.43524e-05
-2.74032e-05
5.07195e-05
-2.54515e-05
5.68003e-05
-2.30222e-05
6.25141e-05
-2.0037e-05
6.78008e-05
-1.65051e-05
7.26612e-05
-1.24719e-05
7.70162e-05
-7.84662e-06
8.00384e-05
-1.96203e-06
8.11594e-05
4.74055e-06
8.01738e-05
1.19272e-05
7.71484e-05
1.93324e-05
7.25673e-05
2.63057e-05
6.67104e-05
3.29408e-05
5.93168e-05
3.97939e-05
4.85115e-05
4.87832e-05
3.17597e-05
5.84911e-05
8.06769e-05
2.30044e-29
-1.39007e-27
1.57525e-30
-1.13797e-29
5.57911e-32
-3.79686e-31
2.17815e-33
-7.8543e-32
4.4847e-35
-2.68064e-33
3.73776e-37
-2.91194e-35
1.86075e-39
-1.32947e-37
5.32321e-42
-2.85606e-40
1.20936e-45
5.96341e-46
8.06667e-47
2.48388e-47
8.64266e-49
1.2358e-48
1.68163e-51
1.1247e-50
7.46325e-54
7.73367e-53
3.30823e-56
5.06538e-55
1.10174e-58
2.74386e-57
2.56026e-61
1.15985e-59
3.47147e-64
3.55253e-62
1.24575e-64
6.5803e-65
6.08635e-66
1.44961e-26
-7.2203e-26
1.35615e-27
-1.48966e-26
3.50399e-29
-5.21476e-28
1.52268e-30
-1.69453e-29
3.53958e-32
-1.82736e-30
3.62635e-34
-2.47565e-32
2.21411e-36
-1.4279e-34
7.47353e-39
-3.79308e-37
1.43102e-42
2.77463e-42
2.14007e-43
1.16584e-43
1.72295e-45
7.08441e-45
2.7014e-48
7.02684e-47
1.02579e-50
4.31258e-49
4.24646e-53
2.67365e-51
1.34788e-55
1.3761e-53
2.99967e-58
5.54265e-56
3.9932e-61
1.62703e-58
4.06544e-64
3.04754e-61
2.94142e-64
5.99749e-24
-4.26389e-23
5.55237e-25
-8.31041e-24
9.6724e-27
-2.9466e-25
4.88412e-28
-4.1895e-27
1.25221e-29
-4.94881e-28
1.54374e-31
-8.29635e-30
1.16637e-33
-5.9805e-32
4.59221e-36
-1.91291e-34
1.46096e-39
4.85815e-39
3.80855e-40
2.19471e-40
1.38955e-42
1.1816e-41
1.98362e-45
8.22987e-44
8.88066e-48
5.48371e-46
3.6097e-50
3.39141e-48
1.1256e-52
1.72248e-50
2.49315e-55
6.86503e-53
3.36982e-58
2.01487e-55
2.03023e-61
3.8692e-58
3.76013e-61
1.96949e-21
-1.39614e-20
1.6402e-22
-3.13506e-21
3.12776e-24
-1.11509e-22
7.01509e-26
-1.48883e-24
1.91293e-27
-4.79813e-26
3.01188e-29
-1.01843e-27
2.91534e-31
-9.76424e-30
1.31052e-33
-3.68368e-32
8.40669e-37
5.13668e-36
1.32674e-37
1.37158e-37
5.50087e-40
6.25453e-39
9.31517e-43
4.74401e-41
4.34264e-45
3.30866e-43
1.82729e-47
2.13042e-45
5.92049e-50
1.12302e-47
1.37293e-52
4.66057e-50
3.10056e-55
1.43668e-52
2.96444e-58
2.93056e-55
2.99458e-58
3.3327e-19
-4.05702e-19
4.86192e-20
-2.57775e-18
7.1166e-22
-8.87393e-20
5.40077e-24
-5.65876e-22
1.38567e-25
-3.61627e-24
2.24743e-27
-5.94037e-26
2.96149e-29
-5.69475e-28
1.55286e-31
-2.50237e-30
2.9387e-34
2.34782e-33
1.16395e-35
5.11527e-35
8.47276e-38
1.47724e-36
2.2279e-40
1.26552e-38
1.14402e-42
9.77558e-41
5.10688e-45
6.70493e-43
1.76039e-47
3.75694e-45
5.80134e-50
1.66318e-47
1.2609e-52
5.49321e-50
1.39325e-55
1.19827e-52
1.30622e-55
6.4935e-17
-1.36519e-16
8.35948e-18
5.56929e-17
1.9291e-19
-1.33802e-17
6.06741e-22
-1.73564e-19
6.11135e-24
-2.86807e-22
8.2539e-26
-2.12245e-24
1.6128e-27
-1.49287e-26
1.11999e-29
-6.92629e-29
7.18949e-32
5.74425e-31
9.18676e-34
1.431e-32
6.58403e-36
2.26644e-34
3.96221e-38
2.35363e-36
2.30973e-40
2.08782e-38
1.10087e-42
1.54054e-40
4.09825e-45
9.30064e-43
1.71504e-47
4.44988e-45
3.92175e-50
1.58868e-47
4.77106e-53
3.74089e-50
4.40076e-53
1.32308e-15
-1.73141e-17
1.06409e-16
-1.12025e-14
1.03328e-17
2.87034e-17
4.44831e-20
-1.18334e-18
7.16145e-22
-5.26473e-20
1.48522e-23
-7.88872e-22
2.01405e-25
-6.19158e-24
2.11386e-27
-9.58381e-27
2.21207e-29
2.14777e-28
2.1606e-31
4.86201e-30
1.85095e-33
7.17907e-32
1.37462e-35
8.38083e-34
8.65213e-38
8.06096e-36
4.47988e-40
6.44657e-38
2.33214e-42
4.22307e-40
9.17792e-45
2.19317e-42
2.27053e-47
8.52101e-45
2.91503e-50
2.1803e-47
2.77196e-50
1.4192e-12
-2.6574e-11
2.05495e-15
-1.70576e-12
5.3535e-16
-7.11329e-14
1.76725e-18
-7.10821e-16
3.82879e-19
-4.7675e-18
3.86086e-21
-1.454e-19
3.9134e-23
-1.30634e-21
4.20426e-25
4.57778e-25
4.82342e-27
5.53752e-26
5.09184e-29
1.20896e-27
4.77118e-31
1.88613e-29
3.89054e-33
2.37588e-31
2.68901e-35
2.49014e-33
1.5222e-37
2.17546e-35
9.51562e-40
1.55202e-37
4.02917e-42
8.83836e-40
1.0858e-44
3.74663e-42
1.51359e-47
1.04546e-44
1.4478e-47
1.16678e-05
-2.78209e-05
1.49401e-05
-3.30814e-05
1.43798e-05
-3.01899e-05
1.59501e-05
-2.88131e-05
1.95582e-05
-2.73874e-05
2.38601e-05
-2.58217e-05
2.82121e-05
-2.41131e-05
3.24774e-05
-2.21668e-05
3.66676e-05
-1.99421e-05
4.0776e-05
-1.74734e-05
4.47555e-05
-1.4715e-05
4.84199e-05
-1.15905e-05
5.15391e-05
-7.87839e-06
5.44647e-05
-3.29414e-06
5.63906e-05
2.60892e-06
5.59638e-05
1.2354e-05
5.46769e-05
2.06194e-05
5.31702e-05
2.78123e-05
5.15625e-05
3.45485e-05
4.96889e-05
4.16674e-05
4.82239e-05
5.02482e-05
4.82211e-05
5.84938e-05
7.49363e-05
5.39617e-05
9.62312e-06
2.21802e-22
5.68344e-06
9.17666e-22
5.18163e-06
5.33913e-21
5.72435e-06
6.2064e-20
6.85433e-06
4.20888e-19
8.08914e-06
1.54941e-18
9.20642e-06
2.85026e-18
1.02312e-05
1.17518e-17
1.13257e-05
1.44541e-17
1.27146e-05
8.04962e-18
1.43996e-05
2.83843e-18
1.70692e-05
7.9129e-19
2.10739e-05
-9.7135e-17
2.7256e-05
-1.4176e-16
3.61564e-05
2.1318e-08
4.86311e-05
1.46806e-06
5.89907e-05
7.12739e-06
6.17833e-05
1.84032e-05
6.39256e-05
3.24062e-05
6.38743e-05
4.17188e-05
6.61515e-05
4.7971e-05
7.05901e-05
5.40552e-05
6.54704e-05
8.00561e-05
-4.64482e-23
3.8403e-21
-2.44292e-22
1.72503e-20
-1.65118e-21
1.18624e-19
-2.07292e-20
1.29003e-18
-1.57524e-19
8.44321e-18
-6.6181e-19
3.17975e-17
-1.40745e-18
6.09676e-17
-6.76725e-18
7.982e-17
-9.78713e-18
8.03393e-17
-6.59136e-18
4.53671e-17
-2.86618e-18
1.64112e-17
-1.04152e-18
4.52282e-18
3.81805e-18
-1.01995e-16
6.87999e-18
-1.49609e-16
2.1318e-08
-8.81191e-18
1.17215e-06
5.54003e-10
6.61689e-06
1.46388e-08
1.96845e-05
-2.96894e-08
4.06766e-05
1.2261e-07
5.75286e-05
1.03496e-05
7.18842e-05
3.36133e-05
7.99877e-05
4.59516e-05
5.47192e-05
9.07388e-05
4.21875e-21
4.15235e-21
2.64584e-20
2.27596e-20
-9.39259e-21
2.22238e-19
-2.37051e-19
2.13753e-18
-1.73588e-18
1.31536e-17
-7.53923e-18
4.95271e-17
-1.65957e-17
9.6016e-17
-2.47085e-17
1.27736e-16
-2.84314e-17
1.26784e-16
-1.79253e-17
6.78152e-17
-7.69588e-18
2.10159e-17
-2.5038e-18
5.61945e-18
1.01036e-16
-8.4009e-16
1.40332e-16
-1.21922e-15
5.04251e-17
-1.10291e-15
5.53942e-10
-2.59845e-16
1.78756e-08
3.67904e-10
-1.84583e-08
3.04636e-09
-4.58649e-08
6.09054e-09
6.55907e-06
-1.96551e-08
3.30895e-05
-1.67148e-08
6.34502e-05
7.49797e-06
3.15977e-05
8.65614e-05
5.19531e-21
1.3291e-21
1.81683e-20
1.14391e-20
-1.33575e-20
2.15209e-19
-2.94918e-19
2.07531e-18
-2.40005e-18
1.27041e-17
-1.09594e-17
4.70591e-17
-2.54139e-17
9.06942e-17
-3.9572e-17
1.20744e-16
-4.59913e-17
1.20565e-16
-2.85789e-17
6.06739e-17
-1.06352e-17
6.20207e-18
-3.46776e-18
1.61429e-18
1.51354e-15
-1.1346e-15
7.28928e-15
-1.78511e-14
4.01977e-15
-1.46572e-14
1.64128e-15
-6.1833e-16
3.25989e-10
4.1915e-11
2.26993e-09
9.66614e-10
3.86552e-09
2.33668e-09
-1.4606e-08
-1.31521e-13
-4.26272e-09
-1.71181e-10
4.99654e-06
-2.62117e-08
2.82555e-08
3.60115e-05
8.22817e-22
2.89828e-22
-4.77991e-23
7.62076e-21
-1.79973e-20
1.44858e-19
-3.2127e-19
1.49581e-18
-2.79942e-18
9.22236e-18
-1.33326e-17
3.35434e-17
-3.16285e-17
6.35689e-17
-5.08524e-17
8.3412e-17
-6.11141e-17
8.13594e-17
-3.74079e-17
3.44829e-17
-4.76378e-18
-3.29021e-17
-1.61922e-18
-8.1704e-18
6.59532e-15
-9.87365e-18
7.00746e-14
-3.26552e-14
9.42092e-14
-3.71883e-14
1.02409e-13
-1.51212e-14
4.13333e-11
7.15633e-13
9.66899e-10
3.77107e-11
3.10968e-09
8.92878e-11
5.02845e-09
2.1936e-09
2.63799e-09
2.6432e-10
-2.05753e-08
2.45572e-10
1.57765e-08
3.28284e-08
8.35706e-23
1.36164e-22
-2.88179e-22
3.81452e-21
-1.45315e-20
7.76169e-20
-2.56741e-19
8.39206e-19
-2.26579e-18
5.19247e-18
-1.07288e-17
1.85532e-17
-2.5252e-17
3.44632e-17
-4.04347e-17
4.40344e-17
-4.79974e-17
4.05888e-17
-2.5068e-17
1.41062e-17
3.03125e-17
-7.34081e-17
1.10813e-17
-5.31193e-17
2.70965e-16
-3.28633e-16
8.50623e-14
-1.16365e-14
1.70258e-13
-3.73265e-14
2.03708e-13
-3.32827e-14
9.7148e-13
-8.5618e-15
3.75474e-11
1.00889e-12
1.21912e-10
5.32435e-12
5.72563e-10
1.59655e-11
7.93838e-10
4.37274e-11
1.03394e-09
1.84379e-10
1.70728e-09
1.83469e-08
-3.96952e-24
6.86241e-23
-2.45657e-22
1.54957e-21
-9.45659e-21
3.31038e-20
-1.63282e-19
3.66146e-19
-1.41578e-18
2.25542e-18
-6.53017e-18
7.8962e-18
-1.50508e-17
1.43569e-17
-2.35196e-17
1.76621e-17
-2.64867e-17
1.46801e-17
-1.13805e-17
3.34143e-18
1.10398e-16
-6.64081e-17
2.0781e-16
-2.67192e-16
1.71557e-15
-3.02651e-16
4.02907e-14
-7.77465e-16
1.50491e-13
-1.27537e-14
2.4754e-13
-2.16296e-14
2.54647e-13
-2.74341e-14
1.17423e-12
-6.32476e-15
6.34791e-12
6.71505e-14
2.12957e-11
1.02144e-12
5.5532e-11
9.52052e-12
1.39646e-10
1.00947e-10
6.62858e-11
1.95955e-09
-4.11375e-24
2.63562e-23
-1.28765e-22
4.96878e-22
-4.65066e-21
1.09173e-20
-7.93071e-20
1.21792e-19
-6.72839e-19
7.42233e-19
-3.01151e-18
2.53554e-18
-6.76307e-18
4.49059e-18
-1.01511e-17
5.17912e-18
-1.02848e-17
3.39887e-18
-2.87942e-18
-1.2048e-18
1.10482e-16
-4.79644e-17
4.74674e-16
-2.91216e-16
7.10799e-16
-4.27979e-16
2.39975e-15
-5.69321e-16
3.93653e-14
-3.00916e-15
1.49981e-13
-1.52537e-14
1.67453e-13
-2.89652e-14
1.52361e-13
-2.09125e-14
1.81432e-13
-6.81472e-15
1.1971e-12
6.758e-15
1.06386e-11
7.72527e-14
5.69963e-09
1.60938e-10
8.50318e-10
7.11424e-09
-2.04407e-24
7.27342e-24
-4.77638e-23
1.17979e-22
-1.69107e-21
2.62859e-21
-2.84634e-20
2.92944e-20
-2.35839e-19
1.75729e-19
-1.0215e-18
5.82742e-19
-2.22227e-18
9.93558e-19
-3.11242e-18
9.89859e-19
-2.4757e-18
1.25512e-19
4.4019e-18
-3.18704e-18
7.6897e-17
-2.93097e-17
5.09724e-16
-1.7507e-16
9.62892e-16
-3.81087e-16
1.68949e-15
-5.32813e-16
1.1995e-14
-1.83888e-15
7.10198e-14
-9.26286e-15
1.56766e-13
-2.75071e-14
1.65186e-13
-3.07797e-14
1.3453e-13
-2.18043e-14
1.51902e-13
-1.23821e-14
2.3492e-13
-7.05701e-15
1.5433e-08
-1.72166e-14
-7.53634e-11
3.84113e-08
-6.29994e-25
1.29363e-24
-1.23965e-23
1.84311e-23
-4.35478e-22
4.12663e-22
-7.22013e-21
4.56394e-21
-5.83059e-20
2.68122e-20
-2.434e-19
8.56335e-20
-5.06791e-19
1.34753e-19
-6.09556e-19
7.25588e-20
-9.30019e-20
-3.06542e-19
5.40416e-18
-3.13553e-18
4.28957e-17
-1.65571e-17
2.63261e-16
-7.9341e-17
6.80279e-16
-2.3483e-16
1.39227e-15
-4.68755e-16
6.93761e-15
-1.12452e-15
4.10773e-14
-3.00672e-15
1.36738e-13
-9.75952e-15
1.72972e-13
-3.00251e-14
1.94503e-13
-2.45262e-14
1.16159e-13
-1.86039e-14
1.1944e-13
-1.49336e-14
1.34361e-13
-1.74921e-14
-2.99963e-09
2.92443e-09
-1.18809e-25
1.13162e-25
-2.05077e-24
1.4302e-24
-7.14324e-23
3.18997e-23
-1.16319e-21
3.47672e-22
-9.12975e-21
1.98354e-21
-3.64894e-20
5.91978e-21
-6.97344e-20
5.63785e-21
-4.50527e-20
-1.92195e-20
4.60156e-19
-3.06484e-19
4.26852e-18
-2.48966e-18
2.50792e-17
-1.3477e-17
1.31461e-16
-5.81782e-17
4.53603e-16
-1.9147e-16
1.17216e-15
-4.57434e-16
3.50628e-15
-1.1476e-15
1.04696e-14
-2.16127e-15
3.7979e-14
-3.75754e-15
1.28683e-13
-1.42002e-14
1.46742e-13
-2.56014e-14
1.13815e-13
-2.14515e-14
1.30656e-13
-1.99373e-14
1.4745e-13
-2.31456e-14
-8.90786e-09
2.69976e-08
-1.07913e-26
4.55882e-28
-1.65095e-25
3.56237e-27
-5.66616e-24
3.43202e-26
-9.01483e-23
-5.92696e-26
-6.82855e-22
-4.52011e-24
-2.53771e-21
-9.64593e-23
-2.92073e-21
-1.62471e-21
2.51873e-20
-2.34948e-20
3.772e-19
-2.67905e-19
3.36486e-18
-2.17719e-18
2.10389e-17
-1.23193e-17
1.01753e-16
-5.29027e-17
3.82974e-16
-1.83343e-16
1.09994e-15
-4.79182e-16
3.10065e-15
-1.14492e-15
6.72957e-15
-2.28041e-15
1.55244e-14
-4.00674e-15
6.39679e-14
-1.26664e-14
1.04783e-13
-2.88571e-14
1.08625e-13
-2.71257e-14
1.2418e-13
-2.43507e-14
1.37653e-13
-2.60308e-14
-6.73552e-09
3.75296e-08
-4.45904e-29
8.79331e-30
-4.20422e-28
-5.93116e-29
-6.16877e-27
-3.86889e-27
3.79976e-26
-1.42198e-25
2.9871e-24
-3.8212e-24
7.71169e-23
-8.07936e-23
1.54317e-21
-1.39414e-21
2.64862e-20
-2.02895e-20
3.17424e-19
-2.40737e-19
2.98639e-18
-2.05992e-18
1.92099e-17
-1.21025e-17
9.22281e-17
-5.17657e-17
3.62138e-16
-1.88638e-16
1.08206e-15
-5.25234e-16
2.81003e-15
-1.13323e-15
6.5182e-15
-2.40701e-15
1.52252e-14
-4.91361e-15
5.47134e-14
-1.22389e-14
9.58139e-14
-3.05519e-14
1.13746e-13
-3.20012e-14
1.29995e-13
-2.99966e-14
1.43289e-13
-2.84328e-14
-3.40285e-14
3.06826e-08
-8.72101e-31
-2.11828e-30
1.58672e-29
-5.04914e-29
1.36104e-27
-2.94145e-27
7.12329e-26
-1.13663e-25
2.17797e-24
-3.17314e-24
5.72167e-23
-6.9761e-23
1.18938e-21
-1.24108e-21
2.04857e-20
-1.86368e-20
2.87169e-19
-2.31201e-19
2.81508e-18
-2.06272e-18
1.86628e-17
-1.26242e-17
8.89412e-17
-5.44907e-17
3.63066e-16
-2.06253e-16
1.10612e-15
-6.03208e-16
2.65826e-15
-1.28399e-15
6.42549e-15
-2.55093e-15
1.68444e-14
-5.87362e-15
4.8519e-14
-1.39331e-14
1.00583e-13
-2.6026e-14
1.1719e-13
-3.55516e-14
1.19872e-13
-3.37103e-14
1.34897e-13
-2.99479e-14
-3.04588e-14
1.43077e-13
2.10355e-31
-5.10151e-30
9.57073e-30
-3.73767e-29
8.56313e-28
-2.1994e-27
4.79183e-26
-8.93805e-26
1.80272e-24
-2.6157e-24
4.91229e-23
-5.98357e-23
1.05075e-21
-1.10876e-21
1.86986e-20
-1.73825e-20
2.70863e-19
-2.27697e-19
2.76637e-18
-2.14056e-18
1.904e-17
-1.38887e-17
9.08262e-17
-6.13339e-17
3.79824e-16
-2.36858e-16
1.2029e-15
-7.07512e-16
2.74679e-15
-1.469e-15
6.43959e-15
-2.90619e-15
1.83068e-14
-6.99803e-15
4.78424e-14
-1.72628e-14
9.25224e-14
-3.18284e-14
1.18495e-13
-3.77134e-14
1.22378e-13
-3.41635e-14
1.37152e-13
-3.19839e-14
-3.31195e-14
1.53336e-13
5.00691e-31
-4.85247e-30
6.17003e-30
-2.42238e-29
6.34463e-28
-1.51854e-27
3.70873e-26
-6.58764e-26
1.41657e-24
-2.03983e-24
4.01489e-23
-4.91649e-23
8.97157e-22
-9.59174e-22
1.67218e-20
-1.59017e-20
2.57408e-19
-2.23755e-19
2.77715e-18
-2.24582e-18
2.01656e-17
-1.54022e-17
1.0067e-16
-7.36811e-17
4.27036e-16
-2.84942e-16
1.3143e-15
-8.19561e-16
2.97968e-15
-1.76072e-15
6.89296e-15
-3.76158e-15
2.19269e-14
-1.04045e-14
6.17458e-14
-2.66387e-14
9.99226e-14
-4.10961e-14
1.10877e-13
-3.93762e-14
1.18341e-13
-3.62871e-14
1.56907e-13
-5.95588e-14
-1.30253e-13
2.70148e-13
3.7785e-31
-2.77896e-30
3.59902e-30
-1.39489e-29
4.10383e-28
-9.53944e-28
2.55434e-26
-4.44921e-26
1.03869e-24
-1.47078e-24
3.10549e-23
-3.76221e-23
7.31501e-22
-7.79266e-22
1.44588e-20
-1.38189e-20
2.3991e-19
-2.11635e-19
2.77874e-18
-2.31478e-18
2.13244e-17
-1.68023e-17
1.15232e-16
-8.71896e-17
4.8565e-16
-3.49133e-16
1.43975e-15
-9.64733e-16
3.5696e-15
-2.31318e-15
1.0266e-14
-6.31425e-15
3.54418e-14
-1.81213e-14
8.24737e-14
-3.97328e-14
1.04007e-13
-4.87103e-14
1.15628e-13
-4.59015e-14
1.37222e-13
-5.17205e-14
3.18193e-13
-2.04767e-13
-4.06495e-13
6.25419e-13
1.96091e-31
-1.69552e-30
1.97656e-30
-7.25988e-30
2.4229e-28
-5.39859e-28
1.61242e-26
-2.72324e-26
6.96402e-25
-9.66584e-25
2.20778e-23
-2.64432e-23
5.52379e-22
-5.85561e-22
1.16924e-20
-1.11893e-20
2.113e-19
-1.8685e-19
2.69045e-18
-2.29958e-18
2.21079e-17
-1.81386e-17
1.27818e-16
-1.00082e-16
5.73057e-16
-4.55718e-16
1.65295e-15
-1.25649e-15
4.47214e-15
-2.92874e-15
1.57502e-14
-8.53893e-15
5.57797e-14
-2.70883e-14
9.95614e-14
-5.2542e-14
1.12092e-13
-5.81941e-14
1.27509e-13
-5.78444e-14
3.53112e-13
-2.72563e-13
2.62763e-12
-2.26595e-12
-4.74938e-12
6.85589e-12
1.14286e-31
-9.51318e-31
9.30516e-31
-3.38843e-30
1.27872e-28
-2.75834e-28
9.15563e-27
-1.51177e-26
4.23173e-25
-5.78799e-25
1.4341e-23
-1.70494e-23
3.83713e-22
-4.06803e-22
8.74979e-21
-8.42777e-21
1.72353e-19
-1.54487e-19
2.48306e-18
-2.14872e-18
2.23862e-17
-1.91934e-17
1.38296e-16
-1.11464e-16
7.44917e-16
-6.71524e-16
2.09541e-15
-1.98641e-15
4.87904e-15
-3.21435e-15
2.02964e-14
-9.13016e-15
8.86487e-14
-5.76555e-14
1.25796e-13
-9.79103e-14
1.48427e-13
-8.22444e-14
1.82273e-13
-8.66648e-14
3.62028e-12
-3.72398e-12
4.27375e-11
-3.69912e-11
-1.06707e-10
1.43305e-10
5.8199e-32
-4.69429e-31
3.89923e-31
-1.42979e-30
6.08043e-29
-1.28142e-28
4.7047e-27
-7.65513e-27
2.33706e-25
-3.17487e-25
8.52324e-24
-1.01469e-23
2.45885e-22
-2.63311e-22
6.07679e-21
-5.95175e-21
1.31566e-19
-1.20766e-19
2.14128e-18
-1.90591e-18
2.20828e-17
-1.98416e-17
1.45584e-16
-1.21693e-16
1.05633e-15
-1.0472e-15
2.64909e-15
-2.99656e-15
4.52198e-15
-3.06386e-15
3.65086e-14
-2.23956e-14
3.09916e-13
-3.79724e-13
3.69601e-13
-5.65241e-13
3.09014e-13
-2.53469e-13
3.78635e-13
-1.55895e-13
5.40331e-11
-5.73789e-11
7.6328e-10
-6.79363e-10
-2.72981e-09
3.36688e-09
2.60095e-32
-2.08451e-31
1.47684e-31
-5.55385e-31
2.62276e-29
-5.47539e-29
2.19996e-27
-3.56953e-27
1.18019e-25
-1.61107e-25
4.6692e-24
-5.63195e-24
1.46571e-22
-1.60371e-22
3.94921e-21
-3.97634e-21
9.45811e-20
-8.94351e-20
1.75556e-18
-1.63285e-18
2.10261e-17
-1.96023e-17
1.48892e-16
-1.30793e-16
1.39277e-15
-1.40566e-15
2.73741e-15
-3.27066e-15
4.14941e-15
-3.43466e-15
2.44742e-13
-2.59777e-13
9.91467e-13
-8.84859e-13
9.34345e-13
-1.06086e-12
6.68913e-13
-4.8162e-13
7.47208e-13
-2.52706e-13
6.24636e-10
-6.87543e-10
1.57659e-08
-1.52361e-08
-2.27744e-08
1.04623e-07
1.04297e-32
-8.2902e-32
5.15012e-32
-2.01258e-31
1.03765e-29
-2.17136e-29
9.44826e-28
-1.54527e-27
5.50203e-26
-7.63007e-26
2.37968e-24
-2.93614e-24
8.19159e-23
-9.22415e-23
2.41627e-21
-2.5149e-21
6.3992e-20
-6.27031e-20
1.37551e-18
-1.32683e-18
1.88079e-17
-1.81246e-17
1.48186e-16
-1.38411e-16
1.51376e-15
-1.50859e-15
2.84908e-15
-3.47655e-15
4.10094e-15
-3.6904e-15
6.85624e-13
-5.35188e-13
1.01773e-12
-1.07996e-12
1.23838e-12
-1.1747e-12
7.30093e-13
-5.81242e-13
7.70599e-13
-3.52492e-13
2.60555e-09
-3.3208e-09
1.4018e-07
-5.96333e-08
-6.3081e-08
2.48307e-07
3.72743e-33
-2.9742e-32
1.68756e-32
-6.83812e-32
3.79167e-30
-7.99471e-30
3.75118e-28
-6.22176e-28
2.38411e-26
-3.37662e-26
1.13291e-24
-1.43211e-24
4.29107e-23
-4.9621e-23
1.38674e-21
-1.48574e-21
4.05574e-20
-4.09482e-20
1.00322e-18
-9.92146e-19
1.55657e-17
-1.55072e-17
1.40137e-16
-1.35e-16
1.45198e-15
-1.38988e-15
2.77865e-15
-3.97795e-15
3.90165e-15
-3.94682e-15
6.69718e-13
-4.85087e-13
9.93882e-13
-1.20051e-12
1.10147e-12
-1.14515e-12
9.09843e-13
-6.15187e-13
1.12003e-12
-6.31003e-13
3.70936e-08
-3.9271e-08
2.02712e-07
-1.05337e-07
-6.60816e-08
2.1256e-07
1.19974e-33
-9.75163e-33
5.20799e-33
-2.15423e-32
1.27739e-30
-2.70411e-30
1.37656e-28
-2.31302e-28
9.58754e-27
-1.38254e-26
5.0018e-25
-6.43017e-25
2.07962e-23
-2.44377e-23
7.34218e-22
-8.0003e-22
2.35977e-20
-2.4228e-20
6.61979e-19
-6.63583e-19
1.17076e-17
-1.17878e-17
1.16614e-16
-1.16783e-16
1.15384e-15
-1.06126e-15
2.80331e-15
-5.18184e-15
3.80236e-15
-4.05601e-15
5.29336e-13
-2.20897e-13
9.06271e-13
-7.48787e-13
7.82909e-13
-9.59085e-13
1.17304e-12
-8.24974e-13
2.12455e-12
-1.52043e-12
1.41032e-07
-7.85206e-09
1.80479e-07
-1.31244e-07
-6.23105e-08
1.86494e-07
3.52454e-34
-2.96178e-33
1.48017e-33
-6.15175e-33
3.92331e-31
-8.27762e-31
4.63102e-29
-7.84365e-29
3.53794e-27
-5.15469e-27
2.01318e-25
-2.60633e-25
9.12583e-24
-1.07746e-23
3.50024e-22
-3.83018e-22
1.22702e-20
-1.26395e-20
3.8514e-19
-3.85463e-19
7.68757e-18
-7.76717e-18
8.65204e-17
-8.92642e-17
8.6722e-16
-1.00256e-15
2.93099e-15
-5.60065e-15
3.58371e-15
-4.19734e-15
1.7923e-13
-4.18155e-14
5.96811e-13
-5.95359e-13
7.49212e-13
-8.77974e-13
1.93473e-12
-4.77914e-12
3.38582e-12
-2.57165e-12
5.46114e-08
-9.84346e-09
1.89371e-07
-4.6862e-08
-2.48634e-08
1.64925e-07
9.57094e-35
-8.37061e-34
3.74014e-34
-1.56514e-33
1.08461e-31
-2.28042e-31
1.41293e-29
-2.40976e-29
1.18076e-27
-1.73173e-27
7.26332e-26
-9.44302e-26
3.55849e-24
-4.20673e-24
1.47151e-22
-1.60837e-22
5.57367e-21
-5.71419e-21
1.92785e-19
-1.91179e-19
4.35435e-18
-4.41173e-18
5.70423e-17
-5.93745e-17
4.07836e-16
-6.73752e-16
2.71463e-15
-5.51892e-15
2.8821e-15
-4.10796e-15
6.46299e-14
-5.46884e-15
7.67953e-13
-1.39164e-12
1.11851e-12
-1.2329e-12
9.92503e-12
-1.26756e-11
1.57001e-11
-4.84012e-12
2.85479e-08
-4.73901e-09
2.34061e-08
-3.7673e-08
-4.16094e-09
1.31851e-08
2.40797e-35
-2.16592e-34
8.21853e-35
-3.56998e-34
2.69527e-32
-5.73559e-32
3.89551e-30
-6.75014e-30
3.53952e-28
-5.25841e-28
2.33658e-26
-3.07649e-26
1.22582e-24
-1.46186e-24
5.41121e-23
-5.93673e-23
2.18624e-21
-2.23179e-21
8.2171e-20
-8.05803e-20
2.11907e-18
-2.13597e-18
3.20165e-17
-3.43416e-17
3.74278e-16
-3.50594e-16
2.39092e-15
-4.94057e-15
2.30561e-15
-2.9879e-15
1.53517e-14
-1.75454e-14
1.4746e-12
-2.44193e-12
6.44118e-13
-1.80198e-12
1.06941e-11
-3.34388e-13
2.07447e-11
-3.89199e-13
3.10892e-08
-3.45036e-08
7.98453e-09
-5.63279e-09
-4.44679e-11
3.93344e-09
5.51189e-36
-4.93439e-35
1.60255e-35
-7.5469e-35
6.12827e-33
-1.35397e-32
9.79348e-31
-1.74814e-30
9.59084e-29
-1.46092e-28
6.76432e-27
-9.13543e-27
3.76262e-25
-4.58195e-25
1.75151e-23
-1.95106e-23
7.4172e-22
-7.59771e-22
2.98009e-20
-2.89641e-20
8.77887e-19
-8.78015e-19
1.56068e-17
-1.68207e-17
1.73086e-16
-2.0133e-16
1.43461e-15
-2.40714e-15
2.13645e-15
-2.09961e-15
7.14959e-15
-3.45437e-14
9.86522e-13
-2.35279e-12
6.73965e-13
-1.95578e-12
1.6051e-13
-2.63835e-13
5.88779e-13
-4.9544e-13
3.07228e-08
-4.38185e-08
9.56885e-09
-2.44296e-08
8.28372e-10
2.30064e-09
1.10467e-36
-9.40356e-36
2.99641e-36
-1.52014e-35
1.3092e-33
-3.02992e-33
2.27516e-31
-4.18743e-31
2.37801e-29
-3.72239e-29
1.78538e-27
-2.47477e-27
1.04296e-25
-1.30133e-25
5.06076e-24
-5.76991e-24
2.2017e-22
-2.28702e-22
9.25318e-21
-8.96401e-21
3.09229e-19
-3.05117e-19
6.50015e-18
-6.95543e-18
8.59419e-17
-1.00569e-16
6.33933e-16
-1.08214e-15
2.28997e-15
-2.54343e-15
6.86098e-14
-4.80092e-15
7.71864e-13
-1.98754e-12
2.73307e-13
-8.43523e-13
1.024e-13
-5.29538e-14
1.35748e-12
-1.63851e-12
3.73317e-08
-6.3522e-08
1.72529e-08
-2.71272e-08
3.1447e-09
2.64022e-09
1.84873e-37
-1.42504e-36
5.74759e-37
-2.8188e-36
2.63686e-34
-6.19292e-34
4.86526e-32
-8.99286e-32
5.38774e-30
-8.47339e-30
4.28386e-28
-5.95346e-28
2.61508e-26
-3.28959e-26
1.31661e-24
-1.5254e-24
5.80034e-23
-6.14323e-23
2.48662e-21
-2.4201e-21
9.23932e-20
-8.96039e-20
2.2936e-18
-2.41285e-18
3.57824e-17
-4.1708e-17
3.56424e-16
-4.60417e-16
1.32713e-15
-2.90361e-15
1.34177e-14
-1.63068e-14
4.06361e-13
-1.88946e-13
9.17242e-14
-8.09909e-14
7.23393e-14
-2.65218e-14
5.29874e-12
-6.82494e-12
1.73949e-08
-2.60122e-08
2.47376e-08
-2.00362e-08
7.55542e-09
4.14479e-09
2.46785e-38
-1.63924e-37
1.05472e-37
-4.3527e-37
4.7891e-35
-1.07488e-34
9.23519e-33
-1.63654e-32
1.0809e-30
-1.63458e-30
9.0552e-29
-1.2119e-28
5.80177e-27
-7.12263e-27
3.05081e-25
-3.5001e-25
1.36419e-23
-1.46098e-23
5.85227e-22
-5.76246e-22
2.34238e-20
-2.23119e-20
6.81128e-19
-6.9656e-19
1.25581e-17
-1.45394e-17
1.43996e-16
-1.84946e-16
1.2764e-15
-2.05019e-15
6.76604e-15
-2.26044e-14
8.79584e-15
-5.19202e-14
1.11165e-14
-2.46823e-14
9.31781e-15
-2.61426e-14
2.21979e-11
-2.90064e-11
9.74058e-09
-9.99281e-09
2.19095e-08
-1.77715e-08
6.32749e-09
1.59718e-08
2.51533e-39
-1.36254e-38
1.57535e-38
-5.09184e-38
7.26689e-36
-1.47432e-35
1.46541e-33
-2.37598e-33
1.81433e-31
-2.51993e-31
1.60176e-29
-1.98906e-29
1.09171e-27
-1.26445e-27
6.08206e-26
-6.68072e-26
2.82402e-24
-2.98736e-24
1.21315e-22
-1.20734e-22
5.04174e-21
-4.73979e-21
1.68693e-19
-1.66608e-19
3.73723e-18
-4.19665e-18
5.05355e-17
-6.5518e-17
6.04017e-16
-6.31756e-16
7.03392e-15
-1.2317e-14
8.9277e-15
-6.80445e-14
6.47336e-15
-2.29477e-14
1.0991e-14
-3.11764e-14
8.81023e-11
-1.17099e-10
7.85913e-09
-2.79399e-09
1.35545e-08
-1.35595e-08
1.3275e-09
1.31523e-08
1.86217e-40
-7.64376e-40
1.71641e-39
-4.39956e-39
8.56457e-37
-1.5117e-36
1.82503e-34
-2.60764e-34
2.39625e-32
-2.96013e-32
2.25269e-30
-2.53734e-30
1.66094e-28
-1.77091e-28
9.94853e-27
-1.01976e-26
4.95903e-25
-5.03189e-25
2.18951e-23
-2.16683e-23
9.20619e-22
-8.61079e-22
3.44959e-20
-3.29454e-20
9.19209e-19
-9.90165e-19
1.49043e-17
-1.86435e-17
1.55007e-16
-2.28086e-16
1.56204e-15
-2.88671e-15
1.20271e-14
-5.52544e-14
7.676e-15
-1.75099e-14
3.74702e-14
-6.01142e-14
1.26718e-10
-3.451e-10
8.82377e-10
-6.27504e-11
3.09143e-09
-5.4398e-09
-1.44216e-10
3.74042e-09
9.31619e-42
-2.56973e-41
1.34074e-40
-2.73109e-40
7.40173e-38
-1.09033e-37
1.68532e-35
-2.051e-35
2.36737e-33
-2.54982e-33
2.41751e-31
-2.42118e-31
1.95622e-29
-1.88238e-29
1.27726e-27
-1.20569e-27
7.02909e-26
-6.66708e-26
3.31565e-24
-3.1602e-24
1.41544e-22
-1.31669e-22
5.76021e-21
-5.34889e-21
1.82776e-19
-1.87333e-19
3.57633e-18
-4.27633e-18
4.71119e-17
-6.46447e-17
6.0729e-16
-8.90786e-16
8.72117e-15
-2.54463e-14
7.24389e-15
-1.28234e-14
6.19168e-15
-8.26079e-14
4.42091e-11
-1.96391e-10
2.74404e-11
-2.60117e-11
1.15076e-09
-2.07222e-12
-5.27037e-12
1.21734e-09
2.78219e-43
-4.64105e-43
7.27387e-42
-1.05372e-41
4.40377e-39
-5.00541e-39
1.09114e-36
-1.07038e-36
1.67739e-34
-1.50187e-34
1.89579e-32
-1.60739e-32
1.70796e-30
-1.43709e-30
1.24061e-28
-1.05317e-28
7.64322e-27
-6.5694e-27
3.97211e-25
-3.48983e-25
1.78713e-23
-1.60312e-23
7.73293e-22
-6.9227e-22
2.86003e-20
-2.74663e-20
6.81803e-19
-7.62467e-19
1.07872e-17
-1.4252e-17
1.566e-16
-2.26581e-16
1.99161e-15
-1.77106e-15
2.90306e-15
-1.19541e-14
2.29772e-13
-3.07566e-13
9.15821e-12
-3.51651e-14
2.10654e-12
-2.64325e-12
1.53112e-13
-1.93499e-14
-6.42572e-12
2.33267e-10
4.40817e-45
-2.75421e-45
2.35254e-43
-2.30484e-43
1.63259e-40
-1.29767e-40
4.58015e-38
-3.26218e-38
7.92873e-36
-5.35323e-36
1.00813e-33
-6.70317e-34
1.04303e-31
-7.07262e-32
8.65542e-30
-5.94954e-30
6.00967e-28
-4.30741e-28
3.50283e-26
-2.64091e-26
1.74452e-24
-1.37597e-24
8.06582e-23
-6.56997e-23
3.39369e-21
-2.93691e-21
9.91701e-20
-9.97877e-20
1.94086e-18
-2.28552e-18
3.03221e-17
-3.55595e-17
2.42094e-16
-2.70028e-16
3.46157e-15
-1.31671e-14
2.93181e-14
-3.30541e-13
1.04877e-15
-2.75433e-14
1.42963e-13
2.11198e-13
8.75722e-15
1.14855e-13
-1.1327e-11
4.90544e-12
2.24245e-47
-1.89111e-48
4.16171e-45
-1.64908e-45