/*--------------------------------*- C++ -*----------------------------------*\
| =========                 |                                                 |
| \\      /  F ield         | OpenFOAM: The Open Source CFD Toolbox           |
|  \\    /   O peration     | Version:  2206                                  |
|   \\  /    A nd           | Website:  www.openfoam.com                      |
|    \\/     M anipulation  |                                                 |
\*---------------------------------------------------------------------------*/
FoamFile
{
    version     2.0;
    format      ascii;
    arch        "LSB;label=32;scalar=64";
    class       volScalarField;
    location    "0.3";
    object      p_rgh;
}
// * * * * * * * * * * * * * * * * * * * * * * * * * * * * * * * * * * * * * //

dimensions      [1 -1 -2 0 0 0 0];

internalField   nonuniform List<scalar> 
2268
(
1660.62
1661.32
1662.01
1662.7
1663.4
1664.36
1665.68
1667.37
1669.41
1671.78
1674.48
1677.42
1680.54
1683.74
1686.93
1689.97
1692.73
1695.03
1696.77
1697.74
1697.85
1694.45
1680.31
1658.29
1659
1659.92
1660.78
1661.64
1662.72
1664.15
1665.94
1668.08
1670.55
1673.33
1676.4
1679.7
1683.17
1686.73
1690.27
1693.66
1696.76
1699.45
1701.54
1703.41
1704.2
1679.33
1653.64
1654.46
1655.74
1656.92
1658.05
1659.37
1661.01
1663.03
1665.44
1668.24
1671.4
1674.88
1678.65
1682.63
1686.72
1690.84
1694.9
1698.79
1702.48
1705.79
1709.16
1710.95
1692.24
1646.81
1647.68
1649.43
1651.01
1652.45
1654.03
1655.91
1658.19
1660.92
1664.11
1667.75
1671.83
1676.31
1681.11
1686.13
1691.27
1696.4
1701.35
1706.04
1710.16
1714.08
1715.88
1718.66
1637.9
1638.75
1640.81
1642.73
1644.44
1646.22
1648.31
1650.84
1653.91
1657.53
1661.72
1666.49
1671.83
1677.66
1683.89
1690.38
1696.95
1703.33
1709.34
1714.52
1719
1721.28
1724
1626.73
1627.49
1629.41
1631.43
1633.26
1635.11
1637.28
1639.94
1643.22
1647.2
1651.96
1657.53
1663.89
1671.06
1678.9
1687.24
1695.83
1704.28
1712.22
1719.07
1724.75
1728.23
1730.82
1613.12
1613.36
1614.78
1616.61
1618.32
1620.02
1621.98
1624.43
1627.54
1631.42
1636.22
1642.13
1649.41
1658.17
1668.24
1679.35
1691.08
1702.78
1713.72
1722.98
1730
1733.13
1734.17
1596.51
1596.3
1597.21
1597.89
1598.39
1599.23
1600.45
1602.19
1604.69
1608.2
1612.89
1618.83
1626.05
1634.52
1645.3
1658.52
1673.99
1690.3
1705.48
1717.87
1725.69
1728.29
1710.07
2.14314
2.13881
2.13028
2.11835
2.10373
2.08721
2.06955
2.05143
2.03342
2.01598
1.99948
1.98423
1.97047
1.9584
1.94815
1.93984
1.93354
1.92931
1.92719
2.14793
2.14323
2.13404
2.12131
2.10582
2.08848
2.07008
2.05131
2.03274
2.01484
1.99798
1.98244
1.96846
1.9562
1.94582
1.93741
1.93103
1.92676
1.92461
2.15786
2.15232
2.14166
2.12724
2.10996
2.09093
2.07103
2.05097
2.03133
2.01254
1.99496
1.97883
1.96437
1.95174
1.94107
1.93243
1.9259
1.92152
1.91933
2.17387
2.16669
2.15353
2.13623
2.11602
2.09433
2.07214
2.05014
2.02891
2.00882
1.99018
1.97321
1.95807
1.9449
1.93381
1.92486
1.9181
1.91357
1.9113
2.19719
2.18725
2.16999
2.14816
2.12358
2.09815
2.07288
2.04836
2.02509
2.00336
1.98339
1.96535
1.94936
1.93552
1.9239
1.91456
1.90751
1.90279
1.90043
2.23271
2.21527
2.1914
2.16281
2.13212
2.10177
2.07267
2.04509
2.0194
1.99575
1.97424
1.95497
1.93801
1.92339
1.91116
1.90135
1.89397
1.88903
1.88656
2.28263
2.24979
2.217
2.17891
2.13998
2.10372
2.07028
2.03933
2.01112
1.98545
1.96232
1.94173
1.92371
1.90825
1.89536
1.88505
1.8773
1.87213
1.86954
2.28988
2.29009
2.24812
2.19452
2.14528
2.10245
2.06463
2.03048
1.99963
1.97193
1.94716
1.92525
1.90616
1.88984
1.87627
1.86544
1.85731
1.85189
1.84918
1588.6
1536.68
1523.45
1527.47
1525.6
1521.59
1516.54
1511.26
1507.27
1506.85
1511.99
1524.61
1546.29
1575.47
1613.17
1634.73
1658.06
1682.14
1701.58
1715.09
1716.98
1702.39
1623.7
982.381
572.636
529.89
540.055
528.096
511.235
494.026
476.188
460.912
452.452
455.311
473.503
512.073
573.046
673.616
906.071
1235.82
1573.73
1693.14
1714.89
1723.67
1712.68
1666.21
1.56383
1.52893
1.58628
1.60248
1.60532
1.61127
1.62048
1.63178
1.64445
1.65825
1.6732
1.69067
1.71089
1.74286
1.77745
13.842
82.1768
259.886
635.837
1194.24
1744.64
1751.78
1742.43
1.55934
1.55196
1.57285
1.58228
1.58903
1.59656
1.60608
1.61753
1.63067
1.64523
1.66128
1.67915
1.69834
1.71992
1.7425
1.74285
1.78575
2.11779
2.83478
97.4574
516.11
1200.47
1820.48
1.54612
1.55581
1.55755
1.56196
1.56808
1.57599
1.58559
1.59686
1.60977
1.6241
1.63972
1.65625
1.67302
1.68966
1.70324
1.70677
1.74837
1.78323
1.7368
1.88098
1.81982
75.4781
473.164
1.51821
1.52354
1.53111
1.53681
1.54341
1.55145
1.56107
1.57227
1.58495
1.59893
1.61385
1.62923
1.64431
1.65832
1.67092
1.68312
1.70712
1.68921
1.59755
1.73956
1.6186
1.65406
1.83458
1.49056
1.496
1.50323
1.5095
1.51633
1.52444
1.534
1.54501
1.55734
1.57074
1.58481
1.59894
1.61226
1.62397
1.63392
1.64226
1.65174
1.63745
1.57668
1.51479
1.4641
1.33973
1.20022
1.46097
1.46621
1.47285
1.47926
1.48614
1.49421
1.50366
1.51444
1.52638
1.53918
1.55241
1.56537
1.57711
1.58659
1.59312
1.59646
1.59544
1.58328
1.54239
1.47913
1.40016
1.27196
1.09055
1.42848
1.43338
1.43954
1.44583
1.45264
1.46059
1.46987
1.48038
1.4919
1.50411
1.51652
1.52843
1.53886
1.54668
1.55083
1.55054
1.54476
1.5295
1.49866
1.44985
1.38687
1.34243
1.28131
1.39264
1.39733
1.40299
1.409
1.41563
1.4234
1.43246
1.44268
1.45378
1.46541
1.47708
1.48813
1.49766
1.50458
1.50773
1.50613
1.49892
1.4846
1.46046
1.425
1.38
1.37342
1.5243
1.35299
1.35755
1.36278
1.36846
1.37484
1.38238
1.39119
1.4011
1.41181
1.42292
1.43398
1.44438
1.45335
1.45997
1.46318
1.46198
1.4555
1.44293
1.42323
1.39578
1.36121
1.32185
1.27936
1.30926
1.31375
1.31861
1.32391
1.33001
1.33728
1.34581
1.35541
1.36574
1.37641
1.38697
1.39692
1.40564
1.41237
1.41629
1.41649
1.41218
1.40269
1.38759
1.36705
1.34169
1.31457
1.56291
1.26131
1.26574
1.27021
1.27511
1.2809
1.28786
1.29607
1.30532
1.31528
1.32556
1.33575
1.34542
1.35413
1.36132
1.36635
1.36856
1.36729
1.36202
1.35246
1.33897
1.32215
1.30349
2.06557
1.20905
1.21338
1.21739
1.22185
1.22727
1.23387
1.2417
1.25056
1.26012
1.27
1.27985
1.28935
1.2982
1.30608
1.31257
1.3172
1.31957
1.31935
1.31636
1.31094
1.30394
1.29604
1.39269
1.15245
1.15658
1.16003
1.16397
1.16895
1.17511
1.18246
1.19084
1.19991
1.20931
1.21875
1.22803
1.23704
1.24567
1.25374
1.26104
1.26738
1.27272
1.27718
1.2813
1.28619
1.29321
1.30436
1.09149
1.0953
1.09804
1.10137
1.10579
1.11138
1.11814
1.12589
1.13431
1.14305
1.15186
1.16069
1.16964
1.17881
1.1883
1.19817
1.20847
1.21943
1.23158
1.24587
1.26369
1.28694
1.31837
1.02617
1.0295
1.0314
1.034
1.03772
1.04257
1.04855
1.05548
1.063
1.07076
1.07858
1.08652
1.09488
1.10403
1.11433
1.1261
1.1397
1.15569
1.17507
1.19934
1.23029
1.27011
1.32289
0.956546
0.959239
0.960173
0.961914
0.964772
0.968673
0.973634
0.979461
0.98575
0.992104
0.99835
1.00468
1.01161
1.01972
1.02963
1.04188
1.05711
1.07627
1.10109
1.13367
1.17606
1.23117
1.30489
0.882735
0.884645
0.884534
0.885295
0.887094
0.889813
0.89348
0.897868
0.902494
0.906873
0.910801
0.914545
0.918795
0.924339
0.931992
0.942379
0.956369
0.97519
1.00149
1.03792
1.08541
1.14836
1.23691
0.804946
0.80596
0.804767
0.804444
0.805
0.806295
0.808363
0.810929
0.813397
0.815144
0.815868
0.815828
0.815819
0.81674
0.819516
0.824641
0.833053
0.845938
0.86702
0.898385
0.937907
0.993365
1.08201
0.723502
0.72355
0.721289
0.719807
0.71896
0.718603
0.718767
0.719113
0.718906
0.717338
0.713927
0.708815
0.702751
0.696607
0.691181
0.686484
0.683067
0.681458
0.685628
0.693252
0.700029
0.72697
0.802968
0.638846
0.637902
0.634641
0.631968
0.629607
0.627413
0.625401
0.623151
0.619781
0.614271
0.605889
0.594549
0.580751
0.565181
0.548065
0.528632
0.506019
0.479246
0.448707
0.401878
0.338364
0.298056
1.30414
0.551532
0.549605
0.545463
0.54163
0.537715
0.533577
0.529186
0.524033
0.517097
0.507145
0.493176
0.474786
0.45208
0.425395
0.393949
0.356282
0.308817
0.249335
0.168929
0.0475657
-0.108994
-0.147448
3.49317
0.462192
0.459329
0.454472
0.449574
0.444161
0.438077
0.431217
0.422976
0.412208
0.397507
0.377625
0.351812
0.319734
0.281172
0.234266
0.176987
0.102645
0.0097141
-0.120881
-0.297191
-0.520355
2.82244
3.49641
0.371507
0.3678
0.362423
0.356623
0.349867
0.34196
0.332692
0.32135
0.306685
0.287174
0.261389
0.228276
0.187083
0.136841
0.0748437
-0.00207543
-0.102756
-0.228398
-0.403787
-0.615972
-0.48983
3.53062
3.13809
0.280176
0.275767
0.270077
0.263589
0.255733
0.246248
0.234791
0.220532
0.202151
0.178067
0.14677
0.107004
0.0576687
-0.00297506
-0.0782486
-0.1732
-0.297169
-0.455079
-0.672126
-0.939417
-1.17559
0.215014
2.75577
0.188888
0.183954
0.178154
0.171228
0.162575
0.151848
0.138555
0.121751
0.100073
0.0719581
0.0359159
-0.00936641
-0.0652042
-0.13389
-0.219162
-0.327754
-0.468217
-0.651539
-0.897065
-1.22055
-1.37528
-1.42228
-2.032
0.0982899
0.0930309
0.0873051
0.0801919
0.0710725
0.0594839
0.0447902
0.025945
0.0015821
-0.0297754
-0.0694898
-0.118789
-0.179023
-0.252698
-0.343632
-0.459128
-0.606314
-0.799329
-1.05066
-1.39672
-1.27044
-1.2994
-2.12207
0.00900144
0.00361659
-0.00188377
-0.00895075
-0.0182239
-0.0302997
-0.0459406
-0.0662671
-0.0925981
-0.126253
-0.168375
-0.219987
-0.282306
-0.357754
-0.44978
-0.565182
-0.708979
-0.893367
-1.12592
-1.44218
-0.405113
-0.694613
-2.07684
-0.0783736
-0.0837101
-0.0888645
-0.0956937
-0.104853
-0.117091
-0.133264
-0.154527
-0.182094
-0.217054
-0.260254
-0.312424
-0.374528
-0.448711
-0.537728
-0.647455
-0.780136
-0.944563
-1.14441
-1.39995
-0.119534
0.165535
-1.71995
-0.163324
-0.168491
-0.173206
-0.179662
-0.188504
-0.200653
-0.217017
-0.238737
-0.266861
-0.302187
-0.345201
-0.396277
-0.456054
-0.526319
-0.609001
-0.709119
-0.826095
-0.967566
-1.13372
-1.33066
-0.379248
0.431297
-1.01498
-0.245536
-0.250488
-0.254694
-0.260714
-0.269115
-0.281013
-0.297319
-0.319111
-0.347221
-0.382102
-0.42384
-0.472425
-0.528135
-0.592384
-0.66625
-0.754106
-0.852834
-0.971348
-1.10524
-1.26333
-1.18586
0.648994
-0.534492
-0.324775
-0.32956
-0.333214
-0.338825
-0.346753
-0.358343
-0.374449
-0.396043
-0.4237
-0.45751
-0.497151
-0.542242
-0.592717
-0.649623
-0.713154
-0.787234
-0.86631
-0.961145
-1.06172
-1.18627
-1.18591
-0.0721041
-0.597878
-0.400665
-0.405403
-0.408489
-0.413811
-0.421337
-0.43266
-0.448537
-0.46978
-0.496689
-0.52899
-0.566003
-0.607058
-0.651852
-0.701096
-0.754153
-0.814452
-0.873732
-0.943611
-1.01027
-1.09003
-1.12929
-0.898133
-0.905404
-0.472845
-0.477706
-0.48024
-0.485462
-0.492755
-0.503941
-0.519655
-0.540502
-0.566488
-0.597008
-0.631112
-0.66799
-0.707297
-0.749491
-0.793452
-0.841788
-0.883777
-0.930282
-0.964987
-0.986837
-1.01269
-0.869206
-0.839505
-0.541535
-0.54671
-0.548762
-0.5541
-0.561409
-0.572652
-0.588344
-0.608836
-0.633846
-0.662496
-0.693691
-0.726639
-0.761115
-0.797357
-0.834202
-0.872774
-0.902178
-0.930302
-0.941007
-0.919063
-0.90304
-0.831752
-0.785627
-0.607421
-0.613097
-0.614814
-0.620456
-0.628062
-0.639577
-0.655409
-0.67565
-0.699759
-0.726684
-0.755339
-0.785103
-0.815933
-0.847793
-0.879413
-0.909383
-0.929329
-0.940302
-0.936819
-0.88619
-0.835682
-0.747059
-0.656267
-0.67035
-0.67671
-0.678326
-0.684393
-0.692556
-0.704546
-0.720681
-0.740823
-0.764241
-0.789831
-0.816656
-0.844406
-0.873303
-0.903169
-0.932331
-0.956644
-0.970101
-0.963058
-0.948597
-0.859401
-0.782966
-0.649759
-0.378719
-0.728407
-0.735547
-0.737436
-0.744063
-0.753055
-0.76572
-0.782294
-0.802478
-0.825471
-0.850254
-0.876163
-0.903292
-0.932241
-0.963028
-0.993874
-1.0199
-1.0362
-1.02627
-1.01022
-0.884605
-0.782114
-0.552913
-0.133327
-0.779913
-0.787605
-0.790381
-0.797785
-0.80779
-0.821163
-0.838049
-0.858139
-0.880763
-0.905191
-0.931135
-0.959034
-0.989776
-1.02376
-1.06
-1.09583
-1.1291
-1.14903
-1.16856
-1.08556
-0.94293
-0.585673
0.0220812
-0.830601
-0.838651
-0.843028
-0.851321
-0.86219
-0.875934
-0.892654
-0.912249
-0.934478
-0.959108
-0.986149
-1.016
-1.04935
-1.08686
-1.12901
-1.17664
-1.23253
-1.30062
-1.39895
-1.50733
-1.58246
-1.76607
-0.532567
-0.895703
-0.906217
-0.911879
-0.920991
-0.932486
-0.94641
-0.962842
-0.981974
-1.00409
-1.0295
-1.0584
-1.09087
-1.12704
-1.16756
-1.21413
-1.27009
-1.34147
-1.43968
-1.59658
-1.85811
-2.42784
-4.57539
-4.99545
1160.36
21.4185
3.06869
2.83042
1573.11
704.369
12.8207
2.89382
1702.25
1666.31
686.163
3.89304
1809.11
1788.28
1653.02
452.126
1486.33
1906.44
1868.42
1412.23
154.08
1203.66
1964.22
1907.24
0.773993
18.0688
1279.04
1976.32
0.835903
0.519524
63.2541
1453.94
1.02388
0.715062
0.776116
637.571
1.64212
1.25104
1.18727
113.046
1.73464
1.44499
1.19104
1.10128
2.24179
1.79216
1.24579
1.19675
2.28653
2.21952
1.33828
1.2913
2.35537
2.32105
1.51688
1.35284
1.888
2.40985
1.71751
1.41214
1.46801
2.42556
1.73978
1.45247
1.40846
1.62384
1.58494
1.46764
1.39712
1.49145
1.54638
1.53835
1.35649
1.49695
1.62115
1.70422
1.21798
1.40615
1.60886
1.74716
0.956259
1.19482
1.45381
1.64336
1.94222
1.17044
1.13487
1.5359
4.11254
0.950567
0.47211
12.7051
3.26454
0.586886
-0.429826
298.169
2.73359
0.679133
-1.25434
796.811
2.49342
-0.389102
-1.69215
539.17
-1.7871
-2.16822
-1.29639
21.0534
-2.41605
-2.37563
4.22316
18.663
-2.20073
-2.18568
9.68207
634.713
-1.91922
-1.87891
161.432
972.294
-1.7347
-1.79554
793.467
1019.07
-1.71612
199.185
1036.26
1049.92
-1.3627
641.846
1070.59
1075
-0.999507
387.594
1098.72
1099.14
-0.875344
69.4626
1089.11
1122.55
-0.837115
88.1096
1091.23
632.3
-0.657642
289.637
1092.69
170.04
-0.371162
784.126
932.375
61.2412
-0.415687
895.114
529.704
24.7211
4.6053
922.042
638.029
15.9617
388.776
846.967
520.032
5.71358
368.075
557.692
3.22527
-1.6917
2.5503
2.37052
2.27718
2.20124
2.14295
2.09616
2.0558
2.01974
1.98734
1.95826
1.93231
1.90941
1.88951
1.87253
1.85844
1.84721
1.8388
1.83318
1.83037
2.61245
2.37101
2.27526
2.19653
2.13668
2.08883
2.04742
2.01033
1.97695
1.94695
1.92018
1.89659
1.87611
1.85867
1.84421
1.8327
1.82409
1.81834
1.81546
2.70274
2.37434
2.26243
2.1819
2.12533
2.07863
2.03702
1.99927
1.96504
1.9342
1.90667
1.88242
1.86139
1.84351
1.8287
1.81692
1.80811
1.80224
1.7993
2.83705
2.15711
2.21839
2.15792
2.11011
2.06617
2.02482
1.98655
1.95157
1.91994
1.8917
1.86683
1.84529
1.82699
1.81185
1.79982
1.79084
1.78485
1.78186
132.418
2.11868
2.1242
2.13029
2.09463
2.05232
2.01101
1.97222
1.93649
1.90411
1.8752
1.84976
1.82774
1.80906
1.79362
1.78137
1.77222
1.76613
1.76308
578.406
2.58852
2.14342
2.11605
2.07998
2.0377
1.99579
1.95629
1.91975
1.88664
1.85709
1.83112
1.80868
1.78966
1.77396
1.76151
1.75221
1.74602
1.74292
1102.72
18.9642
2.15408
2.10407
2.06503
2.02192
1.97917
1.93868
1.90125
1.86741
1.83728
1.81086
1.78806
1.76875
1.75283
1.7402
1.73078
1.7245
1.72136
1462.67
230.014
2.29317
2.08853
2.04756
2.00498
1.96094
1.91921
1.88085
1.84632
1.81569
1.78889
1.76581
1.74628
1.73018
1.71741
1.70789
1.70153
1.69835
1540.07
478.388
2.88043
2.07737
2.03101
1.98721
1.94085
1.89761
1.85834
1.82324
1.79222
1.76515
1.74187
1.72219
1.70597
1.6931
1.68349
1.67707
1.67386
1384.98
683.651
7.3324
2.10562
2.01765
1.96771
1.91837
1.87352
1.83349
1.798
1.76676
1.73956
1.71619
1.69644
1.68015
1.66722
1.65755
1.6511
1.64786
1134.81
836.25
31.4102
2.1464
2.00414
1.94404
1.89268
1.84655
1.80608
1.77049
1.73924
1.71207
1.68873
1.66899
1.6527
1.63975
1.63005
1.62357
1.62032
879.504
892.323
86.0512
2.21855
1.98867
1.91481
1.86281
1.81631
1.77585
1.74057
1.7096
1.68265
1.65946
1.63981
1.62357
1.61065
1.60095
1.59446
1.59121
685.961
902.081
142.368
2.30265
1.96585
1.87879
1.82807
1.78243
1.74268
1.7082
1.67782
1.65128
1.62836
1.60888
1.59276
1.57989
1.57023
1.56375
1.5605
601.348
892.759
197.277
2.35937
1.92865
1.83498
1.78808
1.74471
1.70653
1.67337
1.6439
1.61798
1.59545
1.57622
1.56025
1.54748
1.53787
1.53142
1.52819
461.105
889.622
204.557
2.32832
1.87481
1.78359
1.74297
1.70327
1.66756
1.6362
1.60791
1.58277
1.56075
1.54183
1.52604
1.51339
1.50386
1.49746
1.49424
273.435
887.676
158.202
2.18189
1.80186
1.72582
1.69339
1.65857
1.62608
1.59688
1.56998
1.54574
1.5243
1.50573
1.49016
1.47764
1.4682
1.46185
1.45866
334.789
809.553
155.805
2.03477
1.71899
1.66319
1.64059
1.61136
1.58258
1.5557
1.53027
1.50698
1.48614
1.46795
1.45261
1.44023
1.43088
1.4246
1.42144
665.913
810.588
222.057
2.00591
1.63709
1.59925
1.58658
1.5625
1.53759
1.51301
1.489
1.46661
1.44634
1.42853
1.41342
1.40118
1.39192
1.38571
1.38258
726.305
809.764
241.765
2.07784
1.56675
1.53968
1.53244
1.51285
1.49161
1.46909
1.44635
1.42475
1.40498
1.38749
1.3726
1.3605
1.35133
1.34517
1.34207
269.767
666.338
153.849
1.84619
1.48759
1.48075
1.47755
1.4631
1.44509
1.42424
1.4025
1.38151
1.36212
1.34489
1.33018
1.3182
1.30911
1.303
1.29994
100.196
97.2784
18.1146
1.50891
1.3924
1.41695
1.42306
1.41408
1.39848
1.37872
1.3576
1.33696
1.3178
1.30074
1.28617
1.27429
1.26527
1.25922
1.25618
523.677
131.331
1.62495
1.19827
1.30905
1.35903
1.37301
1.36684
1.35222
1.33273
1.31174
1.29117
1.27206
1.25508
1.24059
1.2288
1.21985
1.21384
1.21083
773.048
623.689
33.981
1.14851
1.25463
1.31575
1.33031
1.32227
1.30658
1.28634
1.26492
1.24412
1.22491
1.20792
1.19347
1.18173
1.17284
1.16688
1.16389
805.391
792.307
67.0447
1.29357
1.24545
1.29498
1.29531
1.28025
1.26138
1.23939
1.21706
1.19577
1.17633
1.15925
1.14481
1.13311
1.12427
1.11836
1.1154
823.824
647.376
35.8303
1.44141
1.27249
1.28709
1.26369
1.23945
1.21595
1.19156
1.16798
1.14604
1.12627
1.10907
1.09461
1.08295
1.07417
1.0683
1.06537
847.208
294.977
5.00161
1.45485
1.29321
1.26825
1.22937
1.19753
1.16931
1.14241
1.11745
1.09478
1.07468
1.05735
1.04288
1.03126
1.02255
1.01674
1.01385
582.994
62.8546
2.26132
1.40593
1.28047
1.2341
1.18958
1.1527
1.12064
1.0915
1.06525
1.04189
1.02149
1.00408
0.989615
0.978074
0.969446
0.963714
0.960857
43.9703
2.50187
1.5349
1.3264
1.24104
1.19046
1.14425
1.1043
1.06944
1.0385
1.01117
0.987253
0.966646
0.949217
0.934831
0.923402
0.914891
0.909252
0.906447
68.7959
1.47347
1.31856
1.2559
1.19309
1.14185
1.09452
1.0524
1.01548
0.983188
0.955063
0.930784
0.910107
0.892765
0.878533
0.867275
0.858922
0.853403
0.850664
179.753
1.18309
1.19561
1.19157
1.14226
1.09015
1.04122
0.99713
0.958661
0.925424
0.896818
0.872416
0.851845
0.83472
0.82074
0.809727
0.801584
0.796218
0.793559
363.562
1.31902
1.15263
1.14309
1.09316
1.03661
0.984619
0.938487
0.898876
0.865096
0.836359
0.81211
0.791849
0.775094
0.761483
0.750802
0.742929
0.737753
0.735192
463.226
1.72996
1.19201
1.11188
1.04519
0.980525
0.924343
0.876301
0.836
0.802111
0.773634
0.749849
0.730129
0.713918
0.700805
0.69055
0.683015
0.678071
0.675628
409.845
1.92454
1.23436
1.08223
0.99142
0.919325
0.859439
0.810216
0.76986
0.7364
0.708622
0.685641
0.666716
0.651235
0.638761
0.629036
0.62191
0.617244
0.614939
265.507
1.71191
1.22343
1.03228
0.926078
0.850431
0.788919
0.739847
0.700314
0.667935
0.641344
0.619528
0.601667
0.587112
0.575421
0.566334
0.55969
0.555347
0.553203
110.142
1.32672
1.14595
0.953281
0.847256
0.772562
0.712252
0.664989
0.627323
0.596759
0.57187
0.551589
0.53506
0.52163
0.51087
0.502528
0.496441
0.492468
0.490508
25.4834
1.22593
1.02605
0.852796
0.755403
0.685887
0.629497
0.585717
0.551
0.522994
0.500324
0.48194
0.467003
0.454891
0.445207
0.437714
0.432257
0.428699
0.426943
7.26485
0.975718
0.870797
0.73769
0.652006
0.591409
0.541158
0.502375
0.471606
0.446852
0.42688
0.410728
0.397626
0.387015
0.378543
0.371999
0.367239
0.364139
0.362609
3.61715
0.779618
0.686854
0.606006
0.538996
0.49043
0.448089
0.415525
0.389537
0.36862
0.351761
0.338135
0.327084
0.318138
0.311002
0.305498
0.301497
0.298894
0.297609
0.964683
0.535052
0.490486
0.465351
0.419665
0.384579
0.351401
0.325861
0.305262
0.288634
0.275214
0.264358
0.255543
0.248406
0.242715
0.238331
0.235147
0.233076
0.232053
0.0117012
0.264806
0.297456
0.326769
0.298487
0.275985
0.252459
0.234223
0.219348
0.20729
0.197538
0.189632
0.1832
0.177988
0.173834
0.170637
0.168317
0.166809
0.166062
-0.173241
0.0269769
0.137701
0.193329
0.178225
0.165881
0.151976
0.141077
0.132125
0.124837
0.118924
0.114115
0.110192
0.107008
0.104471
0.10252
0.101104
0.100185
0.0997298
-0.346023
-0.105839
0.0313345
0.0694103
0.0627207
0.0571962
0.0519159
0.0478912
0.0446879
0.0421142
0.040041
0.0383592
0.0369883
0.0358775
0.0349952
0.0343189
0.0338288
0.0335099
0.0333511
)
;

boundaryField
{
    leftWall
    {
        type            fixedFluxPressure;
        gradient        uniform 0;
        value           nonuniform List<scalar> 
50
(
1660.62
1658.29
1653.64
1646.81
1637.9
1626.73
1613.12
1596.51
1588.6
982.381
1.56383
1.55934
1.54612
1.51821
1.49056
1.46097
1.42848
1.39264
1.35299
1.30926
1.26131
1.20905
1.15245
1.09149
1.02617
0.956546
0.882735
0.804946
0.723502
0.638846
0.551532
0.462192
0.371507
0.280176
0.188888
0.0982899
0.00900144
-0.0783736
-0.163324
-0.245536
-0.324775
-0.400665
-0.472845
-0.541535
-0.607421
-0.67035
-0.728407
-0.779913
-0.830601
-0.895703
)
;
    }
    rightWall
    {
        type            fixedFluxPressure;
        gradient        uniform 0;
        value           nonuniform List<scalar> 
50
(
1.92719
1.92461
1.91933
1.9113
1.90043
1.88656
1.86954
1.84918
1.83037
1.81546
1.7993
1.78186
1.76308
1.74292
1.72136
1.69835
1.67386
1.64786
1.62032
1.59121
1.5605
1.52819
1.49424
1.45866
1.42144
1.38258
1.34207
1.29994
1.25618
1.21083
1.16389
1.1154
1.06537
1.01385
0.960857
0.906447
0.850664
0.793559
0.735192
0.675628
0.614939
0.553203
0.490508
0.426943
0.362609
0.297609
0.232053
0.166062
0.0997298
0.0333511
)
;
    }
    lowerWall
    {
        type            fixedFluxPressure;
        gradient        uniform 0;
        value           nonuniform List<scalar> 
62
(
1660.62
1661.32
1662.01
1662.7
1663.4
1664.36
1665.68
1667.37
1669.41
1671.78
1674.48
1677.42
1680.54
1683.74
1686.93
1689.97
1692.73
1695.03
1696.77
1697.74
1697.85
1694.45
1680.31
1680.31
1679.33
1692.24
1718.66
1724
1730.82
1734.17
1710.07
1160.36
21.4185
3.06869
2.83042
2.14314
2.14793
2.15786
2.17387
2.19719
2.23271
2.28263
2.28988
2.14314
2.13881
2.13028
2.11835
2.10373
2.08721
2.06955
2.05143
2.03342
2.01598
1.99948
1.98423
1.97047
1.9584
1.94815
1.93984
1.93354
1.92931
1.92719
)
;
    }
    atmosphere
    {
        type            totalPressure;
        rho             rho;
        psi             none;
        gamma           1;
        p0              uniform 0;
        value           nonuniform List<scalar> 
46
(
-0.939982
-0.956113
-0.960572
-0.969987
-0.981712
-0.995702
-1.01203
-1.031
-1.05313
-1.07899
-1.10887
-1.14265
-1.18009
-1.22156
-1.26896
-1.32593
-1.39801
-1.49325
-1.63559
-1.80978
-2.25839
-3.45974
-2.07378
0
0
0
0
0
0
0
0
0
0
0
0
0
0
0
0
0
0
0
0
0
0
0
)
;
    }
    defaultFaces
    {
        type            empty;
    }
}


// ************************************************************************* //
