/*--------------------------------*- C++ -*----------------------------------*\
| =========                 |                                                 |
| \\      /  F ield         | OpenFOAM: The Open Source CFD Toolbox           |
|  \\    /   O peration     | Version:  2206                                  |
|   \\  /    A nd           | Website:  www.openfoam.com                      |
|    \\/     M anipulation  |                                                 |
\*---------------------------------------------------------------------------*/
FoamFile
{
    version     2.0;
    format      ascii;
    arch        "LSB;label=32;scalar=64";
    class       surfaceScalarField;
    location    "0.3";
    object      phi;
}
// * * * * * * * * * * * * * * * * * * * * * * * * * * * * * * * * * * * * * //

dimensions      [0 3 -1 0 0 0 0];

oriented        oriented;

internalField   nonuniform List<scalar> 
4432
(
-1.99898e-06
1.99898e-06
1.79115e-06
-3.79013e-06
6.70042e-06
-4.90927e-06
1.06369e-05
-3.93645e-06
1.33368e-05
-2.69996e-06
1.52048e-05
-1.86798e-06
1.66262e-05
-1.42142e-06
1.77773e-05
-1.15113e-06
1.86714e-05
-8.94069e-07
1.92446e-05
-5.73206e-07
1.94227e-05
-1.78095e-07
1.91371e-05
2.85655e-07
1.83148e-05
8.22225e-07
1.69233e-05
1.39152e-06
1.49449e-05
1.97837e-06
1.23925e-05
2.5524e-06
9.37007e-06
3.02247e-06
6.0116e-06
3.35847e-06
2.61254e-06
3.39907e-06
-1.87409e-07
2.79995e-06
-1.71431e-06
1.5269e-06
-5.10707e-07
-1.2036e-06
-5.10709e-07
-1.67184e-06
3.67081e-06
2.0852e-06
-7.54717e-06
6.98202e-06
-9.80609e-06
1.09767e-05
-7.93111e-06
1.3818e-05
-5.54131e-06
1.58986e-05
-3.94853e-06
1.75779e-05
-3.10074e-06
1.90132e-05
-2.58646e-06
2.022e-05
-2.10085e-06
2.11621e-05
-1.5153e-06
2.17898e-05
-8.05768e-07
2.20392e-05
3.62652e-08
2.20055e-05
8.55872e-07
2.16527e-05
1.74434e-06
2.09617e-05
2.66941e-06
1.99132e-05
3.60086e-06
1.84621e-05
4.47352e-06
1.66322e-05
5.18841e-06
1.44061e-05
5.6252e-06
1.1677e-05
5.52903e-06
8.49305e-06
4.71082e-06
4.47033e-06
2.81912e-06
3.95962e-06
-9.11287e-07
4.5821e-06
2.69801e-06
-1.11565e-05
7.56733e-06
-1.46754e-05
1.16931e-05
-1.20569e-05
1.48078e-05
-8.656e-06
1.72566e-05
-6.39734e-06
1.93348e-05
-5.17888e-06
2.1148e-05
-4.39969e-06
2.26811e-05
-3.6339e-06
2.38792e-05
-2.71342e-06
2.46933e-05
-1.61991e-06
2.51147e-05
-3.8512e-07
2.50682e-05
9.02417e-07
2.45957e-05
2.2168e-06
2.3712e-05
3.55309e-06
2.24447e-05
4.86819e-06
2.08239e-05
6.0943e-06
1.88702e-05
7.14216e-06
1.64679e-05
8.02748e-06
1.32274e-05
8.76947e-06
8.93957e-06
8.9987e-06
3.98447e-06
7.77421e-06
7.94409e-06
2.30881e-07
4.35122e-06
3.83261e-06
-1.47582e-05
8.68339e-06
-1.95262e-05
1.29901e-05
-1.63636e-05
1.64997e-05
-1.21656e-05
1.94819e-05
-9.37952e-06
2.21434e-05
-7.84039e-06
2.45328e-05
-6.78916e-06
2.66103e-05
-5.71136e-06
2.831e-05
-4.41308e-06
2.95645e-05
-2.87446e-06
3.03086e-05
-1.12921e-06
3.04683e-05
7.42655e-07
3.0052e-05
2.63319e-06
2.90162e-05
4.58882e-06
2.73408e-05
6.54362e-06
2.50233e-05
8.41179e-06
2.20942e-05
1.00713e-05
1.85922e-05
1.15295e-05
1.44146e-05
1.2947e-05
9.55644e-06
1.38569e-05
4.79492e-06
1.25357e-05
1.2739e-05
1.68294e-06
2.66828e-06
5.67556e-06
-1.87508e-05
1.05702e-05
-2.44208e-05
1.50668e-05
-2.08603e-05
1.90309e-05
-1.61297e-05
2.26548e-05
-1.30035e-05
2.60297e-05
-1.12153e-05
2.91283e-05
-9.88775e-06
3.18789e-05
-8.46194e-06
3.42081e-05
-6.74226e-06
3.60499e-05
-4.71633e-06
3.73362e-05
-2.4155e-06
3.78906e-05
1.88258e-07
3.7794e-05
2.72979e-06
3.69328e-05
5.44999e-06
3.52354e-05
8.24109e-06
3.26353e-05
1.10118e-05
2.90803e-05
1.36263e-05
2.45864e-05
1.60234e-05
1.92419e-05
1.82914e-05
1.31434e-05
1.99554e-05
6.89056e-06
1.87886e-05
1.96296e-05
3.36713e-06
-6.98856e-07
8.23184e-06
-2.36155e-05
1.33365e-05
-2.95254e-05
1.80711e-05
-2.55949e-05
2.25528e-05
-2.06114e-05
2.69279e-05
-1.73786e-05
3.1158e-05
-1.54454e-05
3.51253e-05
-1.3855e-05
3.87178e-05
-1.20545e-05
4.18434e-05
-9.86783e-06
4.44166e-05
-7.28956e-06
4.63579e-05
-4.35676e-06
4.76449e-05
-1.09877e-06
4.7991e-05
2.38372e-06
4.73835e-05
6.05754e-06
4.56946e-05
9.93e-06
4.28293e-05
1.3877e-05
3.87435e-05
1.77121e-05
3.35049e-05
2.12621e-05
2.72639e-05
2.45324e-05
1.96736e-05
2.75457e-05
1.02123e-05
2.82499e-05
2.98419e-05
5.54371e-06
-6.24256e-06
1.15167e-05
-2.95885e-05
1.6822e-05
-3.48307e-05
2.17763e-05
-3.05492e-05
2.68544e-05
-2.56895e-05
3.21236e-05
-2.26477e-05
3.73837e-05
-2.07055e-05
4.24283e-05
-1.88997e-05
4.71284e-05
-1.67545e-05
5.13969e-05
-1.41364e-05
5.51403e-05
-1.1033e-05
5.82156e-05
-7.43201e-06
6.04471e-05
-3.33028e-06
6.16529e-05
1.17785e-06
6.17785e-05
5.932e-06
6.07632e-05
1.09453e-05
5.8419e-05
1.62212e-05
5.45923e-05
2.15388e-05
4.90562e-05
2.67982e-05
4.15707e-05
3.20179e-05
3.15988e-05
3.75175e-05
1.85952e-05
4.12535e-05
4.84371e-05
9.93307e-06
-1.61756e-05
1.73198e-05
-3.69752e-05
2.15153e-05
-3.90263e-05
2.58382e-05
-3.48721e-05
3.14201e-05
-3.12714e-05
3.77666e-05
-2.89942e-05
4.42643e-05
-2.72032e-05
5.05931e-05
-2.52285e-05
5.6615e-05
-2.27764e-05
6.22466e-05
-1.9768e-05
6.74284e-05
-1.62148e-05
7.21641e-05
-1.21677e-05
7.63866e-05
-7.55271e-06
7.92686e-05
-1.70422e-06
8.02891e-05
4.91156e-06
7.92262e-05
1.20081e-05
7.61783e-05
1.92692e-05
7.16347e-05
2.60825e-05
6.58571e-05
3.25757e-05
5.85869e-05
3.92881e-05
4.79649e-05
4.81395e-05
3.14647e-05
5.77538e-05
7.99018e-05
3.0542e-06
-3.0542e-06
6.14593e-06
-3.09177e-06
8.77375e-06
-2.62785e-06
1.09852e-05
-2.21145e-06
1.27356e-05
-1.75044e-06
1.40006e-05
-1.2651e-06
1.48029e-05
-8.02318e-07
1.51571e-05
-3.54182e-07
1.5082e-05
7.50395e-08
1.46238e-05
4.58159e-07
1.38246e-05
7.99211e-07
1.27267e-05
1.09787e-06
1.13705e-05
1.35622e-06
9.79904e-06
1.57145e-06
8.04783e-06
1.75122e-06
6.15388e-06
1.89393e-06
4.15594e-06
1.99796e-06
2.09783e-06
2.0581e-06
2.09784e-06
3.18617e-06
-6.24041e-06
6.41352e-06
-6.31918e-06
9.09432e-06
-5.30872e-06
1.13951e-05
-4.51232e-06
1.32131e-05
-3.56849e-06
1.45374e-05
-2.58938e-06
1.53691e-05
-1.63409e-06
1.57328e-05
-7.17931e-07
1.56596e-05
1.48155e-07
1.52066e-05
9.11134e-07
1.44014e-05
1.60446e-06
1.32802e-05
2.21898e-06
1.18847e-05
2.75176e-06
1.02535e-05
3.20266e-06
8.42823e-06
3.57647e-06
6.45104e-06
3.87111e-06
4.35901e-06
4.08999e-06
2.19978e-06
4.21735e-06
4.29761e-06
3.43852e-06
-9.67896e-06
7.13913e-06
-1.00199e-05
1.00334e-05
-8.20306e-06
1.25236e-05
-7.00255e-06
1.43747e-05
-5.41963e-06
1.566e-05
-3.87474e-06
1.64222e-05
-2.39632e-06
1.66963e-05
-9.92091e-07
1.65235e-05
3.20843e-07
1.59573e-05
1.47742e-06
1.50379e-05
2.52381e-06
1.38114e-05
3.44547e-06
1.2317e-05
4.24612e-06
1.05981e-05
4.92159e-06
8.69228e-06
5.48229e-06
6.64081e-06
5.92258e-06
4.48219e-06
6.24862e-06
2.26061e-06
6.43892e-06
6.55821e-06
4.51623e-06
-1.41952e-05
8.93319e-06
-1.44369e-05
1.18785e-05
-1.11484e-05
1.44222e-05
-9.5463e-06
1.61967e-05
-7.19418e-06
1.73782e-05
-5.05629e-06
1.80358e-05
-3.05389e-06
1.81819e-05
-1.13824e-06
1.7875e-05
6.27709e-07
1.71636e-05
2.18874e-06
1.6101e-05
3.58636e-06
1.47309e-05
4.81556e-06
1.30941e-05
5.88294e-06
1.12346e-05
6.78105e-06
9.19736e-06
7.51956e-06
7.01771e-06
8.10222e-06
4.73208e-06
8.53424e-06
2.38435e-06
8.78666e-06
8.94255e-06
4.67751e-06
-1.88728e-05
1.01706e-05
-1.99301e-05
1.35771e-05
-1.45549e-05
1.65445e-05
-1.25137e-05
1.8466e-05
-9.11578e-06
1.96313e-05
-6.22158e-06
2.01741e-05
-3.59677e-06
2.01627e-05
-1.12685e-06
1.96735e-05
1.11681e-06
1.87778e-05
3.08443e-06
1.75251e-05
4.83907e-06
1.59577e-05
6.38291e-06
1.41363e-05
7.70433e-06
1.20964e-05
8.82097e-06
9.8777e-06
9.73826e-06
7.52109e-06
1.04588e-05
5.06206e-06
1.09933e-05
2.54479e-06
1.13039e-05
1.14873e-05
6.9949e-06
-2.58677e-05
1.45693e-05
-2.75045e-05
1.81366e-05
-1.81223e-05
2.0713e-05
-1.50901e-05
2.20828e-05
-1.04857e-05
2.28265e-05
-6.9653e-06
2.30327e-05
-3.803e-06
2.27267e-05
-8.20862e-07
2.1975e-05
1.86845e-06
2.08144e-05
4.24493e-06
1.93096e-05
6.34391e-06
1.74973e-05
8.19515e-06
1.54317e-05
9.76994e-06
1.3159e-05
1.10937e-05
1.07159e-05
1.21814e-05
8.1418e-06
1.30329e-05
5.47334e-06
1.36617e-05
2.74868e-06
1.40286e-05
1.4236e-05
2.16488e-06
-2.80326e-05
1.35482e-05
-3.88879e-05
2.11481e-05
-2.57222e-05
2.40305e-05
-1.79726e-05
2.55261e-05
-1.19814e-05
2.62278e-05
-7.66703e-06
2.62633e-05
-3.83853e-06
2.57115e-05
-2.69138e-07
2.46796e-05
2.90025e-06
2.3234e-05
5.6905e-06
2.14262e-05
8.15174e-06
1.93253e-05
1.0296e-05
1.69707e-05
1.21245e-05
1.44137e-05
1.36507e-05
1.17051e-05
1.48899e-05
8.87422e-06
1.58638e-05
5.95703e-06
1.6579e-05
2.98618e-06
1.69994e-05
1.72222e-05
1.54408e-05
-4.34735e-05
2.56761e-05
-4.91232e-05
3.20135e-05
-3.20596e-05
3.1396e-05
-1.73552e-05
3.12393e-05
-1.18247e-05
3.10232e-05
-7.45096e-06
3.03863e-05
-3.20171e-06
2.93812e-05
7.35979e-07
2.79436e-05
4.3378e-06
2.61108e-05
7.52316e-06
2.39206e-05
1.0342e-05
2.14494e-05
1.27672e-05
1.87483e-05
1.48255e-05
1.58634e-05
1.65358e-05
1.28392e-05
1.7914e-05
9.7121e-06
1.89909e-05
6.50873e-06
1.97824e-05
3.25685e-06
2.02512e-05
2.04791e-05
1.21446e-05
-2.83202e-05
1.6084e-05
-4.09146e-05
1.52507e-05
-3.8193e-05
1.67013e-05
-3.63226e-05
2.04546e-05
-3.50247e-05
2.50235e-05
-3.35631e-05
2.96716e-05
-3.18514e-05
3.42315e-05
-2.97884e-05
3.86596e-05
-2.72045e-05
4.29139e-05
-2.40223e-05
4.68224e-05
-2.01233e-05
5.01305e-05
-1.54758e-05
5.25988e-05
-1.0021e-05
5.46857e-05
-3.79114e-06
5.58806e-05
3.71664e-06
5.51331e-05
1.27556e-05
5.37742e-05
2.06281e-05
5.22774e-05
2.75793e-05
5.06839e-05
3.41692e-05
4.88815e-05
4.10905e-05
4.75774e-05
4.94437e-05
4.78247e-05
5.75064e-05
7.38611e-05
5.38654e-05
1.82061e-05
-4.65263e-05
1.91735e-05
-4.18821e-05
1.56644e-05
-3.46839e-05
1.68436e-05
-3.75019e-05
2.10364e-05
-3.92175e-05
2.57594e-05
-3.8286e-05
3.03782e-05
-3.64702e-05
3.49444e-05
-3.43547e-05
3.95435e-05
-3.18036e-05
4.42692e-05
-2.8748e-05
4.90715e-05
-2.49257e-05
5.40565e-05
-2.04607e-05
5.95711e-05
-1.55356e-05
6.51637e-05
-9.38368e-06
6.78029e-05
1.07742e-06
6.68959e-05
1.36626e-05
6.5533e-05
2.19909e-05
6.42934e-05
2.8819e-05
6.32233e-05
3.52393e-05
6.28916e-05
4.14222e-05
6.52695e-05
4.70658e-05
6.99295e-05
5.28464e-05
6.4054e-05
7.97366e-05
8.02564e-06
-5.45519e-05
9.89389e-06
-4.37504e-05
1.03899e-05
-3.51799e-05
1.22021e-05
-3.93142e-05
1.41221e-05
-4.11375e-05
1.56622e-05
-3.98261e-05
1.72339e-05
-3.80418e-05
1.89595e-05
-3.608e-05
2.06992e-05
-3.35431e-05
2.27197e-05
-3.07683e-05
2.44069e-05
-2.66127e-05
2.6251e-05
-2.23049e-05
2.8337e-05
-1.76216e-05
2.89356e-05
-9.98225e-06
3.23547e-05
-2.34165e-06
4.60018e-05
1.56073e-08
5.87701e-05
9.22267e-06
6.30293e-05
2.45598e-05
6.41601e-05
3.41084e-05
6.68732e-05
3.87091e-05
7.2675e-05
4.1264e-05
7.94217e-05
4.60997e-05
5.32435e-05
9.02323e-05
-1.07566e-05
-4.37953e-05
-8.24998e-06
-4.6257e-05
2.19428e-06
-4.56242e-05
6.87412e-06
-4.3994e-05
8.13011e-06
-4.23934e-05
9.05234e-06
-4.07482e-05
9.9257e-06
-3.89149e-05
1.07144e-05
-3.68684e-05
1.13948e-05
-3.42233e-05
1.16785e-05
-3.10518e-05
1.19794e-05
-2.69136e-05
1.18849e-05
-2.22104e-05
1.15681e-05
-1.73047e-05
1.16059e-05
-1.00199e-05
1.55466e-05
-6.2822e-06
1.89095e-05
-3.34723e-06
1.30994e-05
1.50327e-05
-4.22355e-06
4.18826e-05
-8.63386e-06
3.85186e-05
3.60144e-05
-5.9392e-06
5.73405e-05
1.99379e-05
7.28623e-05
3.05779e-05
3.83913e-05
8.77145e-05
-1.03755e-05
-3.34198e-05
-3.52787e-06
-5.31046e-05
2.63348e-06
-5.17855e-05
5.90657e-06
-4.7267e-05
7.59754e-06
-4.40843e-05
8.89256e-06
-4.20431e-05
1.01748e-05
-4.0197e-05
1.12991e-05
-3.79925e-05
1.22972e-05
-3.52212e-05
1.29826e-05
-3.17371e-05
1.35327e-05
-2.74637e-05
1.3683e-05
-2.23608e-05
1.32995e-05
-1.69212e-05
1.42012e-05
-1.09215e-05
1.54066e-05
-7.48753e-06
1.64697e-05
-4.41033e-06
1.25945e-05
1.89077e-05
7.59003e-06
4.68868e-05
3.79736e-06
4.23112e-05
-6.64256e-06
4.50068e-06
-6.1775e-06
1.94728e-05
3.20474e-05
-7.64696e-06
6.69021e-06
6.37485e-05
-3.72699e-06
-2.96928e-05
1.74844e-07
-5.70063e-05
4.20305e-06
-5.58135e-05
7.18364e-06
-5.02475e-05
9.59705e-06
-4.64977e-05
1.1807e-05
-4.42529e-05
1.39215e-05
-4.23114e-05
1.59163e-05
-3.99872e-05
1.77904e-05
-3.70952e-05
1.95442e-05
-3.34909e-05
2.11441e-05
-2.90636e-05
2.26215e-05
-2.38381e-05
2.38633e-05
-1.8163e-05
2.57612e-05
-1.28192e-05
2.64576e-05
-8.18398e-06
2.77032e-05
-5.65601e-06
3.68686e-05
9.74214e-06
5.05152e-05
3.324e-05
5.52265e-05
3.75998e-05
2.83276e-05
3.13995e-05
1.1184e-05
3.66163e-05
-2.54104e-05
2.89474e-05
3.86201e-05
-5.73403e-05
-6.62213e-07
-2.90305e-05
2.06864e-06
-5.97368e-05
5.49721e-06
-5.92419e-05
8.52212e-06
-5.32724e-05
1.13279e-05
-4.93035e-05
1.40641e-05
-4.69891e-05
1.67266e-05
-4.49738e-05
1.932e-05
-4.25805e-05
2.18517e-05
-3.96268e-05
2.4369e-05
-3.60082e-05
2.68959e-05
-3.15905e-05
2.94652e-05
-2.64074e-05
3.20587e-05
-2.07564e-05
3.46534e-05
-1.5414e-05
3.75926e-05
-1.11233e-05
3.95619e-05
-7.62547e-06
4.99635e-05
-6.59649e-07
6.97347e-05
1.34687e-05
8.33336e-05
2.40008e-05
8.3632e-05
3.11011e-05
8.20971e-05
3.81511e-05
6.57866e-05
4.52578e-05
5.71763e-05
4.72304e-05
8.10635e-07
-2.98409e-05
3.76347e-06
-6.26894e-05
7.13215e-06
-6.26105e-05
1.02907e-05
-5.64309e-05
1.33818e-05
-5.23947e-05
1.64875e-05
-5.00948e-05
1.96016e-05
-4.80879e-05
2.27247e-05
-4.57035e-05
2.58769e-05
-4.27791e-05
2.91257e-05
-3.9257e-05
3.2559e-05
-3.50239e-05
3.62352e-05
-3.00837e-05
4.01524e-05
-2.46736e-05
4.40816e-05
-1.93432e-05
4.77963e-05
-1.48381e-05
5.1588e-05
-1.14173e-05
5.8229e-05
-7.30076e-06
7.18873e-05
-1.89789e-07
8.76322e-05
8.25574e-06
0.000102778
1.59549e-05
0.000117988
2.2941e-05
0.00013434
2.89064e-05
3.87899e-05
0.000152726
1.76224e-06
-3.1603e-05
5.13243e-06
-6.60593e-05
8.71522e-06
-6.61932e-05
1.2159e-05
-5.98748e-05
1.55879e-05
-5.58237e-05
1.90788e-05
-5.35857e-05
2.26403e-05
-5.16495e-05
2.62777e-05
-4.9341e-05
3.00176e-05
-4.65191e-05
3.393e-05
-4.31695e-05
3.81408e-05
-3.92348e-05
4.27565e-05
-3.46994e-05
4.77825e-05
-2.96997e-05
5.29964e-05
-2.45571e-05
5.79297e-05
-1.97715e-05
6.23347e-05
-1.58224e-05
6.74344e-05
-1.24005e-05
7.5387e-05
-8.14245e-06
8.64316e-05
-2.78882e-06
0.00010011
2.27652e-06
0.000116916
6.1347e-06
0.000139117
6.7054e-06
6.9525e-06
0.000170955
2.43233e-06
-3.40351e-05
6.28092e-06
-6.99078e-05
1.01785e-05
-7.00908e-05
1.39384e-05
-6.36348e-05
1.77111e-05
-5.95965e-05
2.15821e-05
-5.74568e-05
2.55695e-05
-5.5637e-05
2.96828e-05
-5.34544e-05
3.39497e-05
-5.07861e-05
3.84289e-05
-4.76488e-05
4.32348e-05
-4.40407e-05
4.84941e-05
-3.99587e-05
5.42643e-05
-3.54699e-05
6.04466e-05
-3.07395e-05
6.6688e-05
-2.60129e-05
7.24877e-05
-2.16222e-05
7.78489e-05
-1.77617e-05
8.39058e-05
-1.41992e-05
9.19323e-05
-1.08152e-05
0.000102384
-8.17511e-06
0.000115434
-6.91493e-06
0.000130912
-8.77315e-06
-1.47483e-05
0.000152613
2.93989e-06
-3.69749e-05
7.28469e-06
-7.42526e-05
1.15415e-05
-7.43477e-05
1.5636e-05
-6.77294e-05
1.97602e-05
-6.37208e-05
2.40092e-05
-6.17059e-05
2.84057e-05
-6.00337e-05
3.29629e-05
-5.80118e-05
3.77069e-05
-5.55303e-05
4.26819e-05
-5.26239e-05
4.79638e-05
-4.93226e-05
5.36535e-05
-4.56483e-05
5.98321e-05
-4.16486e-05
6.6508e-05
-3.74155e-05
7.35683e-05
-3.30732e-05
8.07198e-05
-2.87736e-05
8.76209e-05
-2.46626e-05
9.43458e-05
-2.0924e-05
0.000101517
-1.79866e-05
0.000109755
-1.64129e-05
0.000119296
-1.64561e-05
0.000130092
-1.95683e-05
-2.87174e-05
0.000144061
3.40061e-06
-4.03755e-05
8.20992e-06
-7.90619e-05
1.28022e-05
-7.89401e-05
1.72176e-05
-7.2145e-05
2.1692e-05
-6.81955e-05
2.63153e-05
-6.63295e-05
3.11044e-05
-6.48231e-05
3.60732e-05
-6.29808e-05
4.12473e-05
-6.07046e-05
4.66624e-05
-5.8039e-05
5.23627e-05
-5.50229e-05
5.84048e-05
-5.16905e-05
6.48443e-05
-4.80881e-05
7.17116e-05
-4.42828e-05
7.89985e-05
-4.03601e-05
8.66364e-05
-3.64114e-05
9.44311e-05
-3.24569e-05
0.00010209
-2.85823e-05
0.000109385
-2.52824e-05
0.00011617
-2.31976e-05
0.000122445
-2.27313e-05
0.000129124
-2.62471e-05
-3.74362e-05
0.000137843
3.86943e-06
-4.42449e-05
9.0843e-06
-8.42769e-05
1.3957e-05
-8.3813e-05
1.86645e-05
-7.68527e-05
2.3477e-05
-7.30082e-05
2.8463e-05
-7.13157e-05
3.36251e-05
-6.99855e-05
3.89756e-05
-6.83314e-05
4.45409e-05
-6.62699e-05
5.03521e-05
-6.38503e-05
5.64387e-05
-6.11095e-05
6.28286e-05
-5.80806e-05
6.95404e-05
-5.48e-05
7.65778e-05
-5.13203e-05
8.39287e-05
-4.7711e-05
9.15541e-05
-4.40367e-05
9.93754e-05
-4.0278e-05
0.000107206
-3.64127e-05
0.000114652
-3.27284e-05
0.000121287
-2.98332e-05
0.000126926
-2.83703e-05
0.000131131
-3.04519e-05
-3.98572e-05
0.000133552
4.36165e-06
-4.86066e-05
9.91454e-06
-8.98299e-05
1.50038e-05
-8.89024e-05
1.99708e-05
-8.182e-05
2.51028e-05
-7.81404e-05
3.04329e-05
-7.66461e-05
3.59453e-05
-7.54982e-05
4.16505e-05
-7.40367e-05
4.75766e-05
-7.21959e-05
5.37528e-05
-7.00266e-05
6.02027e-05
-6.75596e-05
6.69426e-05
-6.48207e-05
7.39711e-05
-6.18288e-05
8.12689e-05
-5.86182e-05
8.87983e-05
-5.52405e-05
9.6479e-05
-5.17174e-05
0.000104199
-4.79978e-05
0.000111816
-4.40296e-05
0.000119036
-3.99489e-05
0.000125482
-3.62795e-05
0.000131047
-3.39347e-05
0.000134719
-3.41243e-05
-3.88593e-05
0.000133721
4.86891e-06
-5.34756e-05
1.06908e-05
-9.5652e-05
1.59372e-05
-9.4149e-05
2.11322e-05
-8.70152e-05
2.656e-05
-8.35684e-05
3.22088e-05
-8.2295e-05
3.80443e-05
-8.13337e-05
4.40775e-05
-8.00698e-05
5.03398e-05
-7.84582e-05
5.68611e-05
-7.6548e-05
6.36633e-05
-7.43619e-05
7.07582e-05
-7.19158e-05
7.81386e-05
-6.92094e-05
8.57802e-05
-6.62599e-05
9.3627e-05
-6.30873e-05
0.000101572
-5.96623e-05
0.00010946
-5.58859e-05
0.000117073
-5.16432e-05
0.000124129
-4.70041e-05
0.000130286
-4.24369e-05
0.000135292
-3.89405e-05
0.000138672
-3.75048e-05
-3.774e-05
0.000137553
5.37152e-06
-5.88472e-05
1.13943e-05
-0.000101675
1.67494e-05
-9.95043e-05
2.21445e-05
-9.24105e-05
2.78398e-05
-8.92639e-05
3.37749e-05
-8.82301e-05
3.99012e-05
-8.74599e-05
4.62334e-05
-8.6402e-05
5.2809e-05
-8.50338e-05
5.96607e-05
-8.34e-05
6.68135e-05
-8.15149e-05
7.42791e-05
-7.93815e-05
8.20535e-05
-7.69839e-05
9.0117e-05
-7.43236e-05
9.84039e-05
-7.13743e-05
0.0001068
-6.80588e-05
0.000115151
-6.42366e-05
0.000123178
-5.96701e-05
0.000130522
-5.43476e-05
0.000136928
-4.88428e-05
0.0001421
-4.41126e-05
0.000145477
-4.08819e-05
-3.78492e-05
0.000145586
5.84804e-06
-6.46953e-05
1.20048e-05
-0.000107832
1.74313e-05
-0.000104931
2.30013e-05
-9.79805e-05
2.89304e-05
-9.5193e-05
3.51123e-05
-9.44119e-05
4.14912e-05
-9.38387e-05
4.80891e-05
-9.3e-05
5.49511e-05
-9.18958e-05
6.21162e-05
-9.05652e-05
6.96165e-05
-8.90153e-05
7.74694e-05
-8.72344e-05
8.56853e-05
-8.51998e-05
9.42517e-05
-8.289e-05
0.00010311
-8.02329e-05
0.00011217
-7.71183e-05
0.000121276
-7.3343e-05
0.000130127
-6.85205e-05
0.000138391
-6.26121e-05
0.000146033
-5.6485e-05
0.000153007
-5.10859e-05
0.000158387
-4.62621e-05
-3.99846e-05
0.000160522
6.27878e-06
-7.09742e-05
1.25041e-05
-0.000114057
1.79734e-05
-0.0001104
2.36928e-05
-0.0001037
2.98162e-05
-0.000101316
3.61985e-05
-0.000100794
4.2785e-05
-0.000100425
4.96081e-05
-9.98231e-05
5.67212e-05
-9.9009e-05
6.41722e-05
-9.80161e-05
7.20037e-05
-9.68466e-05
8.02462e-05
-9.54769e-05
8.89321e-05
-9.38857e-05
9.80643e-05
-9.20221e-05
0.000107618
-8.97863e-05
0.000117553
-8.70536e-05
0.000127724
-8.35137e-05
0.000137841
-7.86377e-05
0.000147887
-7.2658e-05
0.000158243
-6.68414e-05
0.000168786
-6.16282e-05
0.000177866
-5.53423e-05
-4.48899e-05
0.000182771
6.64642e-06
-7.76207e-05
1.28776e-05
-0.000120289
1.83662e-05
-0.000115889
2.42067e-05
-0.00010954
3.04785e-05
-0.000107588
3.70086e-05
-0.000107324
4.37509e-05
-0.000107167
5.07495e-05
-0.000106822
5.80661e-05
-0.000106325
6.57588e-05
-0.000105709
7.38825e-05
-0.00010497
8.2489e-05
-0.000104083
9.16326e-05
-0.000103029
0.000101352
-0.000101741
0.000111674
-0.000100108
0.000122624
-9.80032e-05
0.00013414
-9.50294e-05
0.000145991
-9.04897e-05
0.000158814
-8.54802e-05
0.000173686
-8.17139e-05
0.000189591
-7.75333e-05
0.000203057
-6.88074e-05
-5.16689e-05
0.000209836
6.93691e-06
-8.45577e-05
1.31144e-05
-0.000126466
1.86012e-05
-0.000121376
2.45292e-05
-0.000115468
3.08974e-05
-0.000113956
3.75173e-05
-0.000113944
4.43569e-05
-0.000114007
5.14711e-05
-0.000113936
5.89289e-05
-0.000113783
6.67984e-05
-0.000113578
7.51475e-05
-0.000113319
8.40529e-05
-0.000112989
9.35901e-05
-0.000112566
0.000103855
-0.000112006
0.000114927
-0.00011118
0.000126914
-0.00010999
0.000139963
-0.000108079
0.000153935
-0.000104462
0.00017042
-0.000101964
0.000191088
-0.000102382
0.000212924
-9.9369e-05
0.000229999
-8.58827e-05
-5.92743e-05
0.000237605
7.14061e-06
-9.16984e-05
1.32091e-05
-0.000132535
1.86717e-05
-0.000126838
2.46473e-05
-0.000121444
3.10548e-05
-0.000120363
3.7702e-05
-0.000120591
4.45738e-05
-0.000120878
5.17339e-05
-0.000121096
5.92561e-05
-0.000121305
6.72156e-05
-0.000121537
7.56932e-05
-0.000121797
8.47854e-05
-0.000122081
9.45942e-05
-0.000122375
0.00010527
-0.000122682
0.000116945
-0.000122855
0.000129845
-0.00012289
0.000144358
-0.000122591
0.000160567
-0.000120671
0.00018128
-0.000122677
0.000207424
-0.000128526
0.000233054
-0.000124999
0.000250547
-0.000103375
-6.39592e-05
0.000255231
7.25278e-06
-9.89512e-05
1.31616e-05
-0.000138443
1.85752e-05
-0.000132252
2.45525e-05
-0.000127421
3.09382e-05
-0.000126749
3.75474e-05
-0.0001272
4.43817e-05
-0.000127713
5.151e-05
-0.000128224
5.90076e-05
-0.000128803
6.69525e-05
-0.000129483
7.54341e-05
-0.000130279
8.45586e-05
-0.000131205
9.44548e-05
-0.000132271
0.000105291
-0.000133518
0.000117271
-0.000134835
0.000130692
-0.000136311
0.00014609
-0.00013799
0.000164021
-0.000138602
0.000188074
-0.000146731
0.000216218
-0.00015667
0.000240128
-0.000148909
0.000254779
-0.000118025
-6.72247e-05
0.000258044
7.27293e-06
-0.000106224
1.29778e-05
-0.000144148
1.8315e-05
-0.000137589
2.42433e-05
-0.000133349
3.05448e-05
-0.00013305
3.70495e-05
-0.000133705
4.37743e-05
-0.000134437
5.07891e-05
-0.000135238
5.81667e-05
-0.00013618
6.59839e-05
-0.0001373
7.43307e-05
-0.000138625
8.33133e-05
-0.000140188
9.30708e-05
-0.000142029
0.000103753
-0.0001442
0.00011562
-0.000146703
0.000128893
-0.000149584
0.00014415
-0.000153247
0.00016238
-0.000156833
0.000186079
-0.00017043
0.000209912
-0.000180502
0.00022623
-0.000165227
0.000234334
-0.000126129
-6.78046e-05
0.000234914
7.20515e-06
-0.000113429
1.26696e-05
-0.000149612
1.79008e-05
-0.00014282
2.37271e-05
-0.000139175
2.98824e-05
-0.000139205
3.62182e-05
-0.00014004
4.27623e-05
-0.000140981
4.95822e-05
-0.000142058
5.67451e-05
-0.000143343
6.43225e-05
-0.000144877
7.2399e-05
-0.000146702
8.10745e-05
-0.000148863
9.04761e-05
-0.00015143
0.000100732
-0.000154456
0.000112091
-0.000158062
0.000124629
-0.000162121
0.00013887
-0.000167487
0.000155721
-0.000173685
0.000174603
-0.000189311
0.000190398
-0.000196298
0.000196817
-0.000171646
0.000197859
-0.000127171
-6.70687e-05
0.000197123
7.05669e-06
-0.000120486
1.22542e-05
-0.00015481
1.73488e-05
-0.000147914
2.30198e-05
-0.000144846
2.89707e-05
-0.000145156
3.50771e-05
-0.000146146
4.13737e-05
-0.000147278
4.79221e-05
-0.000148607
5.47813e-05
-0.000150202
6.20153e-05
-0.000152111
6.96987e-05
-0.000154385
7.79217e-05
-0.000157086
8.6791e-05
-0.0001603
9.64323e-05
-0.000164098
0.000107022
-0.000168652
0.000118639
-0.000173739
0.000131645
-0.000180494
0.000146658
-0.000188697
0.000160606
-0.000203259
0.000172577
-0.000208269
0.000174172
-0.00017324
0.000172261
-0.00012526
-6.51563e-05
0.000170348
6.83784e-06
-0.000127324
1.17532e-05
-0.000159725
1.66806e-05
-0.000152842
2.21457e-05
-0.000150311
2.78403e-05
-0.000150851
3.3664e-05
-0.00015197
3.96539e-05
-0.000153268
4.58628e-05
-0.000154815
5.234e-05
-0.000156679
5.91388e-05
-0.00015891
6.63209e-05
-0.000161567
7.39617e-05
-0.000164727
8.2148e-05
-0.000168486
9.10015e-05
-0.000172951
0.000100638
-0.000178287
0.000111264
-0.000184365
0.000123049
-0.000192279
0.000136709
-0.000202357
0.000149464
-0.000216014
0.000165446
-0.000224251
0.000170402
-0.000178196
0.000163655
-0.000118514
-5.36859e-05
0.000152185
6.56244e-06
-0.000133886
1.11913e-05
-0.000164354
1.59224e-05
-0.000157573
2.11372e-05
-0.000155526
2.65328e-05
-0.000156246
3.20309e-05
-0.000157468
3.76665e-05
-0.000158903
4.34817e-05
-0.000160631
4.95142e-05
-0.000162712
5.58039e-05
-0.0001652
6.2396e-05
-0.000168159
6.93435e-05
-0.000171675
7.67096e-05
-0.000175852
8.45848e-05
-0.000180826
9.30498e-05
-0.000186752
0.000102347
-0.000193663
0.000112516
-0.000202447
0.000124418
-0.000214259
0.000136824
-0.00022842
0.000152951
-0.000240379
0.000156865
-0.00018211
0.000149248
-0.000110897
-3.35968e-05
0.000129159
6.24734e-06
-0.000140133
1.05938e-05
-0.000168701
1.51028e-05
-0.000162082
2.00328e-05
-0.000160456
2.50996e-05
-0.000161313
3.02429e-05
-0.000162611
3.54922e-05
-0.000164153
4.08778e-05
-0.000166016
4.64247e-05
-0.000168259
5.21574e-05
-0.000170932
5.81007e-05
-0.000174102
6.42809e-05
-0.000177855
7.07286e-05
-0.0001823
7.74821e-05
-0.00018758
8.45801e-05
-0.00019385
9.21395e-05
-0.000201222
0.000100122
-0.000210429
0.000109062
-0.000223199
0.000118569
-0.000237927
0.000127505
-0.000249315
0.000121439
-0.000176043
0.000110884
-0.000100341
-1.42828e-05
9.15699e-05
5.91066e-06
-0.000146044
9.98261e-06
-0.000172773
1.42489e-05
-0.000166348
1.88726e-05
-0.000165079
2.35956e-05
-0.000166036
2.83708e-05
-0.000167387
3.32202e-05
-0.000169002
3.81619e-05
-0.000170958
4.32083e-05
-0.000173305
4.83673e-05
-0.000176091
5.36424e-05
-0.000179377
5.90323e-05
-0.000183245
6.45326e-05
-0.0001878
7.01309e-05
-0.000193178
7.58109e-05
-0.00019953
8.15358e-05
-0.000206947
8.71822e-05
-0.000216076
9.26245e-05
-0.000228642
9.76642e-05
-0.000242967
9.86384e-05
-0.000250289
9.10192e-05
-0.000168424
7.75263e-05
-8.68488e-05
1.01452e-06
6.22291e-05
5.56986e-06
-0.000151614
9.37131e-06
-0.000176574
1.33793e-05
-0.000170356
1.76881e-05
-0.000169388
2.20663e-05
-0.000170415
2.64754e-05
-0.000171796
3.0929e-05
-0.000173456
3.54341e-05
-0.000175463
3.99905e-05
-0.000177862
4.45905e-05
-0.000180691
4.92179e-05
-0.000184005
5.38464e-05
-0.000187873
5.84416e-05
-0.000192395
6.29539e-05
-0.00019769
6.73261e-05
-0.000203902
7.14477e-05
-0.000211069
7.51442e-05
-0.000219772
7.78518e-05
-0.000231349
7.99196e-05
-0.000245035
7.68852e-05
-0.000247255
7.64039e-05
-0.000167943
5.83106e-05
-6.87555e-05
1.37045e-05
4.56206e-05
5.23986e-06
-0.000156854
8.7602e-06
-0.000180094
1.24953e-05
-0.000174091
1.64898e-05
-0.000173383
2.05306e-05
-0.000174455
2.45854e-05
-0.000175851
2.86597e-05
-0.00017753
3.27508e-05
-0.000179555
3.68473e-05
-0.000181958
4.0928e-05
-0.000184772
4.49599e-05
-0.000188037
4.88973e-05
-0.000191811
5.26823e-05
-0.00019618
5.62395e-05
-0.000201247
5.94901e-05
-0.000207153
6.23145e-05
-0.000213893
6.45793e-05
-0.000222037
6.56813e-05
-0.000232451
6.67716e-05
-0.000246125
6.44066e-05
-0.00024489
6.8433e-05
-0.000171969
5.64691e-05
-5.67916e-05
2.15135e-05
4.86601e-05
4.93041e-06
-0.000161784
8.13432e-06
-0.000183298
1.15772e-05
-0.000177534
1.52577e-05
-0.000177064
1.89678e-05
-0.000178165
2.26801e-05
-0.000179563
2.63938e-05
-0.000181244
3.00982e-05
-0.00018326
3.37727e-05
-0.000185633
3.73856e-05
-0.000188384
4.08922e-05
-0.000191543
4.42334e-05
-0.000195152
4.73325e-05
-0.000199279
5.0093e-05
-0.000204008
5.24106e-05
-0.000209471
5.41684e-05
-0.000215651
5.52739e-05
-0.000223142
5.5203e-05
-0.00023238
5.53474e-05
-0.000246269
5.5883e-05
-0.000245426
6.02685e-05
-0.000176355
6.29025e-05
-5.94257e-05
2.28931e-05
6.15229e-05
4.64248e-06
-0.000166427
7.4682e-06
-0.000186124
1.05913e-05
-0.000180657
1.3949e-05
-0.000180421
1.73239e-05
-0.00018154
2.06948e-05
-0.000182934
2.40569e-05
-0.000184606
2.73934e-05
-0.000186596
3.0677e-05
-0.000188917
3.38707e-05
-0.000191578
3.69245e-05
-0.000194597
3.97742e-05
-0.000198002
4.23283e-05
-0.000201834
4.44714e-05
-0.000206151
4.605e-05
-0.000211049
4.6951e-05
-0.000216552
4.69991e-05
-0.00022319
4.57215e-05
-0.000231103
4.37042e-05
-0.000244252
4.41478e-05
-0.000245869
4.89559e-05
-0.000181163
6.13291e-05
-7.17989e-05
1.89631e-05
6.52592e-05
4.36672e-06
-0.000170793
6.73957e-06
-0.000188497
9.51172e-06
-0.00018343
1.25249e-05
-0.000183435
1.55457e-05
-0.000184561
1.85608e-05
-0.000185949
2.15636e-05
-0.000187609
2.45332e-05
-0.000189566
2.74393e-05
-0.000191823
3.02449e-05
-0.000194384
3.29045e-05
-0.000197257
3.53588e-05
-0.000200456
3.75125e-05
-0.000203987
3.92361e-05
-0.000207874
4.03182e-05
-0.000212131
4.06436e-05
-0.000216877
3.97937e-05
-0.00022234
3.74511e-05
-0.000228761
3.25716e-05
-0.000239373
2.98778e-05
-0.000243176
3.75606e-05
-0.000188846
5.66835e-05
-9.09218e-05
8.59702e-06
6.70494e-05
4.08571e-06
-0.000174879
5.94604e-06
-0.000190358
8.34538e-06
-0.000185829
1.0986e-05
-0.000186075
1.36264e-05
-0.000187202
1.62621e-05
-0.000188585
1.88858e-05
-0.000190233
2.14752e-05
-0.000192155
2.4001e-05
-0.000194349
2.64313e-05
-0.000196814
2.87322e-05
-0.000199558
3.08573e-05
-0.000202581
3.27249e-05
-0.000205855
3.42083e-05
-0.000209358
3.50833e-05
-0.000213006
3.52282e-05
-0.000217022
3.39472e-05
-0.000221059
3.12196e-05
-0.000226033
2.40197e-05
-0.000232173
1.83462e-05
-0.000237502
2.91829e-05
-0.000199682
5.56684e-05
-0.000117408
-1.02028e-05
7.44686e-05
3.77851e-06
-0.000178658
5.11169e-06
-0.000191691
7.13784e-06
-0.000187855
9.38508e-06
-0.000188323
1.16266e-05
-0.000189443
1.38644e-05
-0.000190822
1.60924e-05
-0.000192461
1.82906e-05
-0.000194353
2.04346e-05
-0.000196493
2.2501e-05
-0.000198881
2.44686e-05
-0.000201525
2.63059e-05
-0.000204418
2.7955e-05
-0.000207504
2.93104e-05
-0.000210713
3.02107e-05
-0.000213907
3.05268e-05
-0.000217338
2.95738e-05
-0.000220106
2.75567e-05
-0.000224016
2.01788e-05
-0.000224795
1.347e-05
-0.000230793
2.38196e-05
-0.000210032
5.62564e-05
-0.000149844
-3.29551e-05
7.9009e-05
3.42556e-06
-0.000182083
4.2755e-06
-0.000192541
5.95011e-06
-0.00018953
7.80169e-06
-0.000190174
9.64534e-06
-0.000191287
1.14855e-05
-0.000192662
1.33184e-05
-0.000194293
1.51308e-05
-0.000196166
1.69079e-05
-0.00019827
1.8637e-05
-0.00020061
2.03081e-05
-0.000203196
2.19042e-05
-0.000206014
2.33936e-05
-0.000208993
2.47064e-05
-0.000212026
2.57702e-05
-0.00021497
2.64151e-05
-0.000217983
2.63504e-05
-0.000220041
2.55946e-05
-0.00022326
2.10765e-05
-0.000220277
1.59486e-05
-0.000225665
2.19063e-05
-0.00021599
5.25113e-05
-0.000180449
-5.69923e-05
7.65491e-05
3.01273e-06
-0.000185096
3.46916e-06
-0.000192997
4.82371e-06
-0.000190885
6.29683e-06