/*--------------------------------*- C++ -*----------------------------------*\
| =========                 |                                                 |
| \\      /  F ield         | OpenFOAM: The Open Source CFD Toolbox           |
|  \\    /   O peration     | Version:  2206                                  |
|   \\  /    A nd           | Website:  www.openfoam.com                      |
|    \\/     M anipulation  |                                                 |
\*---------------------------------------------------------------------------*/
FoamFile
{
    version     2.0;
    format      ascii;
    arch        "LSB;label=32;scalar=64";
    class       volScalarField;
    location    "0.75";
    object      alpha.water;
}
// * * * * * * * * * * * * * * * * * * * * * * * * * * * * * * * * * * * * * //

dimensions      [0 0 0 0 0 0 0];

internalField   nonuniform List<scalar> 
2268
(
1
1
1
1
1
1
1
1
1
1
1
1
1
1
1
0.999816
0.973183
0.950311
0.970434
0.997082
0.997091
0.996969
0.996768
1
1
1
1
1
1
1
1
1
1
1
1
1
1
1
0.999997
0.989343
0.950338
0.945857
0.957641
0.966243
0.967926
0.996437
1
1
1
1
1
1
1
1
1
1
1
1
1
1
1
1
0.999997
0.989131
0.945605
0.937118
0.937102
0.939182
0.999245
1
1
1
1
1
1
1
1
1
1
1
1
1
1
1
1
1
0.999999
0.995814
0.97957
0.94523
0.999435
0.999925
1
1
1
1
1
1
1
1
1
1
1
1
1
1
1
1
1
1
1
1
1
1
1
1
1
1
1
1
1
1
1
1
1
1
1
1
1
1
1
1
1
1
1
1
1
0.99999
1
1
1
1
1
1
1
1
1
1
1
1
1
1
1
1
1
1
1
1
1
1
0.999969
1
1
0.98524
0.966459
0.943693
0.927141
0.944086
0.997073
1
1
1
1
1
1
1
1
1
1
1
1
1
1
0.999983
0.968505
0.999695
0.999831
0.999855
0.948593
0.871398
0.870794
0.650374
0.646949
0.885166
0.885184
0.88515
0.884857
0.880438
0.872183
0.880756
0.882422
0.882713
0.8114
0.968646
0.999833
0.999852
0.999948
0.999954
0.999954
0.999954
0.73365
0.698452
0.885172
0.88515
0.76181
0.553603
0.485348
0.482446
0.563131
0.762471
0.883138
0.883138
0.968836
0.999737
0.999831
0.999861
0.999821
0.999954
0.964217
0.869033
0.870436
0.808461
0.231478
0.122016
0.128052
0.189444
0.296519
0.167529
0.146286
0.465929
0.883138
0.97993
0.999662
0.848849
0.930715
0.998055
0.999945
0.915314
0.929023
0.791993
0.250115
0.0565987
0.0800688
0.130412
0.724821
0.783661
0.746588
0.188056
0.0859216
0.493308
0.99426
0.932063
0.683463
0.819603
0.99729
0.998905
0.981877
0.927948
0.495983
0.0407068
0.0448217
0.0670296
0.493349
0.783661
0.783902
0.783661
0.290598
0.067953
0.067953
0.994145
0.681323
0.682178
0.88743
0.997105
0.998187
0.997537
0.76863
0.040267
0.0258305
0.035215
0.105145
0.770841
0.783902
0.783661
0.783442
0.510079
0.0711119
0.0679032
0.779989
0.674618
0.77975
0.982214
0.995575
0.997421
0.979349
0.51694
0.0212545
0.0184609
0.0258924
0.106763
0.782756
0.783568
0.782051
0.781848
0.680478
0.0911071
0.144986
0.671348
0.830947
0.958255
0.714554
0.934692
0.995725
0.907123
0.23455
0.00933625
0.0141727
0.0184777
0.279177
0.783216
0.782496
0.776677
0.774041
0.654549
0.102731
0.51716
0.384599
0.377682
0.377997
0.390559
0.445346
0.584682
0.761631
0.902248
0.976104
1
1
1
1
1
0.999999
0.999999
1
1
0.999999
0.999998
0.999996
0.999991
0.999977
0.0263168
0.0256669
0.0449687
0.0740701
0.111222
0.167327
0.2552
0.361605
0.481936
0.623793
0.765271
0.8554
0.895499
0.923416
0.961746
0.981559
0.988409
0.989874
0.995866
0.999936
0.999868
0.996205
0.994834
0.000211174
2.33679e-05
1.37757e-05
2.2549e-05
2.83647e-05
0.000186972
0.00356311
0.0134931
0.0292061
0.0776013
0.168575
0.255125
0.309146
0.358417
0.434896
0.513262
0.574688
0.64129
0.701824
0.703268
0.610265
0.489701
0.465872
2.33417e-05
3.27653e-06
1.89465e-06
2.27119e-06
2.21288e-06
1.46076e-05
4.5055e-05
6.35205e-06
9.69999e-06
5.27506e-05
0.0183859
0.0655268
0.0785657
0.0712056
0.0803784
0.190781
0.314592
0.346479
0.183213
0.0313543
0.00229814
0.00144726
0.00140275
3.27266e-06
8.28808e-07
2.80949e-07
2.51102e-07
1.95045e-07
1.85884e-07
1.90247e-07
1.53777e-07
1.60294e-06
9.69998e-06
5.27508e-05
0.00113927
0.00201212
0.0010734
0.00149955
0.00286084
0.00639699
0.0905725
0.277814
0.275105
0.0826103
0.00145169
0.0014227
7.68143e-07
3.53092e-07
8.29287e-08
3.2608e-08
1.68327e-08
1.18767e-08
1.06428e-08
1.75336e-08
9.47481e-08
1.19285e-05
0.00025734
0.000301299
0.000110961
0.000107108
0.000468764
0.00173169
0.0176438
0.270109
0.407253
0.408511
0.409447
0.0562921
0.00145086
6.1083e-07
6.54304e-07
5.23598e-08
8.46825e-09
2.26217e-09
9.89747e-10
7.09064e-10
7.52606e-09
1.94054e-08
8.31958e-07
4.84785e-05
0.000122913
7.96787e-05
1.19014e-05
7.2899e-05
0.000310843
0.00170594
0.0533278
0.330318
0.420697
0.432286
0.256215
0.00164207
1.3432e-07
4.49981e-07
7.93891e-08
2.26218e-09
9.28026e-10
1.68836e-10
5.7809e-11
5.29203e-09
7.77679e-08
1.76199e-07
1.54535e-07
4.03299e-07
2.20119e-06
1.39243e-06
1.03062e-05
6.62068e-05
0.000310745
0.00170512
0.0326388
0.369813
0.438937
0.43832
0.0528438
1.12259e-08
3.11368e-08
4.21821e-08
6.4467e-09
4.17193e-10
5.60106e-11
1.4241e-11
8.93618e-09
2.20643e-07
2.18927e-07
3.49631e-08
1.10929e-07
5.2017e-08
1.63798e-07
1.13556e-06
8.76866e-06
5.86613e-05
0.000459491
0.00283154
0.1413
0.445588
0.452921
0.414316
1.55968e-09
1.34548e-09
2.60788e-09
2.26297e-09
4.53385e-10
3.82251e-11
9.77959e-12
1.21995e-08
2.19378e-07
2.16388e-07
1.76638e-08
6.35573e-08
7.13373e-09
1.81752e-08
1.26915e-07
1.20203e-06
9.4348e-06
2.76503e-05
0.000195221
0.00111717
0.137907
0.443888
0.470323
3.15652e-10
2.36179e-10
1.01266e-10
2.69144e-10
1.36275e-10
2.00494e-11
9.21131e-12
6.53748e-09
1.23368e-07
8.46434e-08
9.61249e-09
1.32374e-08
2.38108e-09
2.62717e-09
1.35423e-08
1.15662e-07
9.7877e-07
7.50299e-06
1.22932e-05
2.10018e-05
2.03332e-05
0.00382035
0.337551
7.68329e-11
6.56061e-11
4.72632e-11
3.03838e-11
1.86497e-11
9.66844e-12
9.21131e-12
1.63953e-09
1.87428e-09
8.56738e-10
2.07315e-09
1.70281e-09
1.87804e-09
9.77615e-10
1.66459e-09
1.25599e-08
8.99518e-08
1.09505e-06
1.42237e-05
1.41063e-05
7.54533e-06
3.99236e-06
3.34133e-06
3.36361e-11
1.92002e-11
1.13653e-11
4.56023e-12
3.67691e-12
6.3372e-12
1.05547e-11
1.48578e-10
1.12723e-10
3.59298e-10
1.13523e-09
1.527e-09
1.80752e-09
8.1921e-10
3.2886e-10
1.5346e-09
1.12232e-08
6.47673e-08
3.21248e-05
0.00028718
0.000217647
3.34055e-06
2.13893e-06
8.75829e-12
3.13535e-12
1.46218e-12
6.57988e-13
1.27549e-12
4.56e-12
1.05767e-11
3.51421e-11
6.70391e-11
3.24423e-10
1.26665e-09
2.39105e-09
2.32584e-09
8.19722e-10
1.42449e-10
2.70144e-10
1.13304e-09
1.53732e-08
7.41693e-08
0.000512215
0.00162396
8.36898e-05
9.44462e-07
1.3655e-12
3.44226e-13
1.60508e-13
9.50466e-14
4.87324e-13
2.87696e-12
8.8914e-12
1.78502e-11
4.91351e-11
3.78967e-10
1.65433e-09
2.84002e-09
2.53339e-09
7.91102e-10
1.1175e-10
7.845e-11
1.30759e-10
9.11875e-10
8.87231e-09
0.000418226
0.00180016
0.000537534
9.44462e-07
1.90586e-13
3.76721e-14
1.76688e-14
1.43155e-14
1.51231e-13
1.34475e-12
5.70366e-12
1.10721e-11
3.91423e-11
4.32757e-10
1.91984e-09
2.84002e-09
2.18125e-09
6.05348e-10
7.93873e-11
5.88469e-11
4.3282e-11
1.26824e-10
3.33657e-10
0.000185429
0.00180016
0.00176993
9.35668e-07
2.59718e-14
4.1494e-15
1.89737e-15
2.1964e-15
3.322e-14
4.21523e-13
2.73391e-12
6.76299e-12
3.22667e-11
4.22428e-10
1.77291e-09
2.55649e-09
1.38161e-09
3.07761e-10
4.93643e-11
3.79594e-11
3.24361e-11
2.12033e-11
1.45864e-10
5.15352e-08
0.00137163
0.00201158
0.0015164
3.45246e-15
4.49602e-16
1.92527e-16
3.26873e-16
5.5157e-15
8.96843e-14
9.37425e-13
3.55287e-12
2.47016e-11
3.42455e-10
1.28776e-09
1.49311e-09
6.60261e-10
1.28524e-10
2.82542e-11
2.40214e-11
3.13542e-11
7.21345e-12
-2.27634e-11
5.64326e-09
2.73038e-05
0.00190091
0.00193209
4.39531e-16
4.62207e-17
1.60633e-17
4.39036e-17
8.21328e-16
1.47635e-14
2.2873e-13
1.5181e-12
1.49837e-11
1.82107e-10
5.67371e-10
5.30116e-10
2.4673e-10
6.39717e-11
1.73103e-11
1.63744e-11
2.67875e-11
4.93124e-12
6.36461e-13
6.26042e-10
2.3943e-07
0.000177434
0.000776516
5.19252e-17
3.49121e-18
3.59142e-19
4.18182e-18
1.17726e-16
2.22473e-15
4.54235e-14
5.42748e-13
6.02355e-12
5.20633e-11
1.30994e-10
1.19161e-10
7.24498e-11
3.40603e-11
1.25897e-11
1.08089e-11
1.86388e-11
4.1462e-12
2.76884e-12
8.08414e-11
3.29861e-08
1.24554e-06
2.04043e-06
4.80436e-18
9.4653e-20
-6.41826e-19
4.2028e-20
1.60977e-17
3.3775e-16
8.70006e-15
1.63998e-13
1.46616e-12
7.88173e-12
1.79891e-11
1.84938e-11
1.60983e-11
1.46056e-11
8.52558e-12
5.71425e-12
9.37701e-12
3.6537e-12
1.35708e-12
4.47871e-10
2.84943e-09
7.95674e-08
9.78571e-08
1.09522e-19
-5.59525e-19
-1.98096e-18
-6.48474e-21
1.83569e-18
5.18674e-17
1.60255e-15
3.84222e-14
2.35627e-13
8.59445e-13
2.03775e-12
2.39361e-12
2.68118e-12
4.20617e-12
3.59194e-12
2.03662e-12
3.00343e-12
1.9759e-12
2.82474e-13
8.70995e-13
2.05919e-10
3.25595e-09
3.5436e-09
-2.31765e-19
-6.9887e-19
-1.74262e-18
-2.69222e-19
6.4854e-20
7.71765e-18
2.54934e-16
6.30092e-15
3.04943e-14
9.57804e-14
2.36469e-13
2.96069e-13
3.525e-13
7.11721e-13
7.65477e-13
4.32744e-13
5.52243e-13
5.0736e-13
1.52245e-13
2.12397e-13
3.33171e-11
1.36954e-10
9.29082e-11
-6.77435e-19
-4.74503e-19
-1.16615e-18
-2.85557e-19
0
1.05925e-18
3.33079e-17
7.38574e-16
3.59008e-15
1.1228e-14
2.79173e-14
3.63016e-14
4.07588e-14
7.38582e-14
8.81816e-14
5.59935e-14
5.70307e-14
7.35387e-14
1.13309e-13
1.24909e-13
2.37112e-12
1.00783e-11
8.62169e-12
-6.20984e-19
-2.63158e-19
-6.6996e-19
-2.14426e-19
-9.80326e-21
1.23343e-19
3.73936e-18
7.31571e-17
3.93315e-16
1.26476e-15
3.13785e-15
4.27426e-15
4.48211e-15
6.36947e-15
7.60563e-15
5.61719e-15
4.43255e-15
8.49848e-15
6.49042e-14
9.37761e-14
3.40138e-13
6.93733e-13
2.99156e-12
-4.3682e-19
-1.30098e-19
-3.43469e-19
-1.3337e-19
-1.43828e-20
6.622e-21
3.8642e-19
7.03811e-18
4.02266e-17
1.31151e-16
3.23226e-16
4.62487e-16
4.67142e-16
5.64118e-16
6.39872e-16
5.13411e-16
3.47608e-16
7.08711e-16
1.69873e-14
3.97553e-14
1.04254e-13
3.27306e-13
6.48154e-13
-2.67732e-19
-5.93478e-20
-1.59845e-19
-7.22024e-20
-1.05256e-20
-9.83292e-38
3.84895e-20
6.65629e-19
3.85762e-18
1.25294e-17
3.04696e-17
4.51982e-17
4.4922e-17
4.98464e-17
5.30472e-17
4.3335e-17
2.71844e-17
3.69104e-17
1.07407e-15
3.77365e-15
1.02791e-14
3.48538e-14
5.8341e-14
-1.49212e-19
-2.5454e-20
-6.81619e-20
-3.48237e-20
-5.97701e-21
1.56733e-39
3.53053e-21
6.00739e-20
3.47762e-19
1.11755e-18
2.67182e-18
4.02573e-18
3.95523e-18
4.1368e-18
4.10443e-18
3.24211e-18
1.8781e-18
1.77254e-18
1.26017e-17
8.41281e-17
3.98738e-16
1.50527e-15
7.46246e-15
-7.69927e-20
-1.03945e-20
-2.67932e-20
-1.51699e-20
-2.89458e-21
-1.64193e-22
2.72426e-22
5.13043e-21
2.95821e-20
9.40126e-20
2.20992e-19
3.31711e-19
3.20295e-19
3.05649e-19
2.68518e-19
1.70832e-19
7.72329e-20
7.02349e-20
1.7771e-19
2.77554e-18
3.65907e-17
3.34806e-16
3.12087e-15
-3.70911e-20
-4.08051e-21
-9.75214e-21
-6.02461e-21
-1.24122e-21
-1.14372e-22
1.03464e-24
4.18693e-22
2.38967e-21
7.49791e-21
1.73728e-20
2.52438e-20
2.28137e-20
1.53697e-20
4.54813e-21
2.37614e-21
9.21758e-22
5.42908e-22
3.08064e-21
3.82378e-19
1.22749e-17
1.67463e-16
1.58551e-15
-1.67493e-20
-1.55121e-21
-3.29926e-21
-2.19664e-21
-4.8041e-22
-5.52582e-23
-2.46828e-42
3.36928e-23
1.84242e-22
5.68182e-22
1.29766e-21
1.62006e-21
7.695e-22
1.40211e-22
-1.35576e-21
-1.64496e-20
-1.85695e-20
-7.60186e-21
3.98067e-37
8.64013e-20
4.49145e-18
7.50453e-17
6.49844e-16
-7.10272e-21
-5.73584e-22
-1.04125e-21
-7.39495e-22
-1.69777e-22
-2.22101e-23
-5.07429e-25
2.34666e-24
1.35162e-23
4.0401e-23
8.13432e-23
3.44561e-23
7.61029e-24
-2.0114e-21
-9.54685e-21
-1.9682e-20
-1.93079e-20
-1.01886e-20
-1.93061e-21
1.38861e-20
1.08331e-18
2.08319e-17
1.78328e-16
-2.83046e-21
-2.06413e-22
-3.07741e-22
-2.30985e-22
-5.52125e-23
-7.85037e-24
-4.45092e-25
9.50055e-26
9.01779e-25
2.21297e-24
7.27291e-25
3.31804e-25
-3.89011e-22
-2.44536e-21
-7.19876e-21
-1.19691e-20
-1.12224e-20
-6.35344e-21
-1.98537e-21
2.29744e-22
1.27237e-19
3.01311e-18
3.05052e-17
-1.06007e-21
-7.20617e-23
-8.55379e-23
-6.72457e-23
-1.66201e-23
-2.50053e-24
-1.95583e-25
-1.53297e-42
3.27531e-26
1.87937e-26
-2.32966e-26
-3.60129e-23
-3.58283e-22
-1.52523e-21
-3.70609e-21
-5.49012e-21
-4.95573e-21
-2.86307e-21
-1.02369e-21
-2.19592e-23
7.60273e-21
2.67238e-19
3.63662e-18
-3.73067e-22
-2.42751e-23
-2.24665e-23
-1.83268e-23
-4.65363e-24
-7.27342e-25
-6.77059e-26
4.74533e-44
3.14066e-28
-9.3437e-26
-2.89785e-24
-3.15134e-23
-2.02882e-22
-7.17209e-22
-1.53942e-21
-2.09661e-21
-1.8167e-21
-1.04031e-21
-3.87596e-22
-5.76411e-23
4.39939e-22
2.52934e-20
4.18053e-19
-1.23348e-22
-7.8431e-24
-5.60477e-24
-4.69674e-24
-1.21753e-24
-1.9488e-25
-2.04062e-26
-2.45092e-27
-1.23996e-26
-1.88514e-25
-2.31013e-24
-1.74383e-23
-9.0339e-23
-2.81206e-22
-5.48612e-22
-6.96165e-22
-5.75984e-22
-3.19999e-22
-1.18522e-22
-2.30407e-23
4.67549e-23
3.57825e-21
5.8212e-20
-3.83127e-23
-2.41572e-24
-1.33522e-24
-1.13715e-24
-2.99023e-25
-4.84271e-26
-5.61094e-27
-2.09593e-27
-1.30593e-26
-1.32675e-25
-1.2266e-24
-7.6361e-24
-3.41692e-23
-9.62367e-23
-1.7323e-22
-2.06043e-22
-1.61802e-22
-8.57063e-23
-3.05602e-23
-6.31427e-24
7.88284e-24
6.11206e-22
8.63056e-21
-1.11837e-23
-7.05831e-25
-3.05316e-25
-2.61373e-25
-6.92765e-26
-1.12319e-26
-1.4544e-27
-1.19192e-27
-7.78938e-27
-6.66161e-26
-5.21825e-25
-2.84967e-24
-1.14056e-23
-2.95231e-23
-4.94641e-23
-5.52844e-23
-4.09599e-23
-2.03815e-23
-6.82431e-24
-1.3753e-24
1.38287e-24
9.0299e-23
1.04768e-21
-3.07119e-24
-1.94997e-25
-6.73008e-26
-5.73148e-26
-1.52177e-26
-2.44682e-27
-3.65161e-28
-5.43114e-28
-3.56676e-27
-2.73421e-26
-1.90382e-25
-9.41142e-25
-3.43955e-24
-8.26527e-24
-1.29598e-23
-1.3622e-23
-9.46878e-24
-4.36957e-24
-1.34614e-24
-2.51389e-25
1.69627e-25
8.81039e-24
8.50397e-23
-7.94924e-25
-5.08077e-26
-1.43426e-26
-1.20474e-26
-3.18578e-27
-5.03774e-28
-9.06499e-29
-2.11539e-28
-1.37516e-27
-9.72169e-27
-6.17555e-26
-2.81594e-25
-9.52415e-25
-2.13948e-24
-3.15072e-24
-3.11448e-24
-2.02076e-24
-8.55007e-25
-2.38172e-25
-3.96947e-26
1.09691e-26
5.02002e-25
4.30282e-24
-1.94532e-25
-1.2532e-26
-2.96212e-27
-2.43812e-27
-6.39127e-28
-9.87607e-29
-2.25164e-29
-7.29464e-29
-4.66677e-28
-3.09203e-27
-1.82107e-26
-7.75397e-26
-2.44973e-25
-5.17054e-25
-7.16988e-25
-6.6645e-25
-4.01897e-25
-1.54358e-25
-3.83013e-26
-5.52079e-27
3.22328e-28
1.91079e-26
1.5017e-25
-4.51626e-26
-2.88475e-27
-5.90339e-28
-4.76751e-28
-1.23003e-28
-1.83991e-29
-5.57679e-30
-2.28433e-29
-1.43572e-28
-9.00978e-28
-4.97417e-27
-1.99444e-26
-5.9243e-26
-1.17872e-25
-1.54024e-25
-1.34341e-25
-7.47359e-26
-2.56378e-26
-5.53264e-27
-6.54836e-28
7.41458e-46
3.50691e-28
2.41534e-27
0.999782
0.999553
0.999154
0.998352
0.989857
0.962504
0.902459
0.809966
0.412111
0.277436
0.141266
0.00733687
0.00138889
0.00138317
0.00138184
0.00138113
0.00140059
0.00139039
0.00138474
0.00138184
0.0014209
0.00140714
0.00139869
0.00138775
0.00153234
0.00154608
0.00153171
0.0014733
0.00230916
0.010082
0.0236178
0.0228972
0.131316
0.282968
0.3823
0.358625
0.470323
0.470323
0.469217
0.465463
0.449649
0.387842
0.296569
0.279106
3.99316e-06
7.75359e-06
1.54844e-05
2.77288e-05
2.21764e-06
5.90451e-06
1.87952e-05
3.60319e-05
1.015e-06
2.38807e-05
0.000132026
0.000138199
9.36998e-07
1.015e-06
1.28817e-06
3.01774e-06
9.44462e-07
1.31087e-06
7.47642e-06
5.72067e-06
1.23108e-06
1.48797e-06
2.96588e-06
0.000170677
0.00191748
0.00174605
0.00133053
0.00154421
0.000873028
0.00123902
0.00104063
0.000464192
2.18779e-06
1.19504e-05
2.13207e-05
7.61801e-06
5.9972e-08
2.92613e-08
1.58634e-07
1.487e-07
1.8064e-09
1.71403e-09
4.24565e-09
5.02888e-09
5.06721e-11
8.87714e-11
1.26088e-10
8.5828e-11
5.88174e-12
1.26524e-11
1.40818e-11
1.05483e-11
5.42769e-12
6.3111e-12
6.14494e-12
5.22499e-12
9.12728e-13
9.93725e-13
1.07523e-12
1.16505e-12
8.11435e-14
1.05316e-13
1.60662e-13
2.49468e-13
1.74378e-14
3.03222e-14
5.71734e-14
1.0034e-13
8.284e-15
1.49394e-14
2.73552e-14
4.69799e-14
4.08931e-15
7.15167e-15
1.21593e-14
1.82176e-14
1.59854e-15
2.73244e-15
4.3868e-15
5.90559e-15
4.33953e-16
7.40859e-16
1.13707e-15
1.65124e-15
7.68036e-17
1.32063e-16
2.03896e-16
3.89377e-16
9.57866e-18
1.68501e-17
2.71672e-17
6.20901e-17
1.12432e-18
2.00483e-18
3.58432e-18
6.09068e-18
1.54387e-19
2.64592e-19
5.76228e-19
1.00355e-18
2.1669e-20
3.71018e-20
1.30954e-19
2.81129e-19
2.49633e-21
5.23629e-21
3.71026e-20
7.5756e-20
2.06874e-22
7.10583e-22
5.54308e-21
1.18719e-20
1.13031e-23
6.56754e-23
3.98396e-22
3.41538e-21
3.99296e-25
2.87297e-24
3.77282e-23
2.4709e-21
6.64349e-27
4.4645e-26
2.56561e-24
6.15937e-22
0.976978
0.975575
0.965152
0.35565
0.460163
0.991609
0.780983
0.0246509
0.00581371
0.00979855
0.0378797
0.631839
0.782497
0.780198
0.709733
0.589579
0.374043
0.11885
0.517207
0.694896
0.547469
0.333341
0.289829
0.758361
0.98507
0.640772
0.00581582
0.00405097
0.00581527
0.18041
0.772566
0.78035
0.645513
0.163372
0.0574537
0.147795
0.190743
0.517159
0.00138154
0.00139336
0.00154478
0.308782
0.903762
0.975494
0.515659
0.00405171
0.00330597
0.00405171
0.306854
0.77156
0.756901
0.151467
0.0285551
0.0283007
0.0293084
0.19478
0.460909
0.00138154
0.00138121
0.00137636
0.0627781
0.661911
0.964931
0.527403
0.00330597
0.00316188
0.00330597
0.306753
0.763487
0.660423
0.0385199
0.0281272
0.0293084
0.0321474
0.0860507
0.406476
0.00138118
0.00138291
0.00140517
0.00234652
0.299201
0.885704
0.619187
0.00313024
0.00318846
0.00314246
0.138478
0.633596
0.476244
0.119256
0.0300727
0.0321474
0.0360543
0.0779656
0.700377
0.00138284
0.00141623
0.00144787
0.00162051
0.0764608
0.602919
0.689687
0.225408
0.00318846
0.00332998
0.0381596
0.0503218
0.125769
0.465206
0.259454
0.306459
0.479043
0.527776
0.865621
0.00134537
0.00138492
0.00162373
0.00211827
0.00243457
0.215388
0.689687
0.567031
0.00372203
0.00386831
0.00447926
0.00594269
0.0309424
0.4736
0.709157
0.794931
0.880208
0.888584
0.888412
0.0676645
0.151027
0.0962342
0.00243457
0.00245429
0.00326908
0.190282
0.589654
0.182789
0.00426037
0.00567505
0.0205561
0.00664779
0.0487275
0.257652
0.310174
0.467817
0.862829
0.888645
0.355602
0.453391
0.44798
0.0830132
0.00288635
0.0030851
0.039421
0.637045
0.65477
0.100275
0.0730473
0.0568961
0.00573426
0.000153777
3.70381e-05
0.000244421
0.00169967
0.29933
0.887897
0.460632
0.456725
0.450518
0.443336
0.143981
0.106564
0.549734
0.683565
0.683083
0.626228
0.580997
0.214917
0.00034306
3.70381e-05
5.37031e-06
3.24598e-05
0.000286498
0.0296689
0.802069
0.253076
0.197129
0.193857
0.29221
0.511933
0.668881
0.683609
0.683083
0.683405
0.639522
0.430736
0.17636
0.000208382
5.37031e-06
5.65992e-07
3.36447e-07
4.67074e-05
0.0179569
0.165042
4.23161e-05
5.51359e-05
5.39244e-05
0.00011803
0.088735
0.314988
0.435117
0.454148
0.365297
0.196731
0.0365762
0.0385213
0.00408939
5.67671e-07
1.58014e-07
2.94977e-08
-2.15723e-07
9.88551e-05
0.000717021
5.0627e-05
4.32819e-05
1.77344e-05
5.31786e-06
2.03078e-05
0.0043164
0.0132355
0.0151344
0.00402835
0.000429198
0.000100436
0.000160541
0.00124905
2.14948e-07
1.47784e-07
1.44978e-08
3.08099e-08
0.000526555
0.0316751
0.000140404
0.000118168
8.4184e-06
3.10947e-07
1.03227e-07
-1.66472e-06
0.000102697
1.75244e-05
2.46181e-05
1.75239e-05
2.88941e-06
4.84471e-06
-3.70459e-07
2.05956e-06
1.15425e-07
2.87731e-09
1.46302e-08
9.95332e-05
0.0524992
3.87149e-06
1.75486e-06
3.11538e-07
1.75084e-07
4.26508e-10
-7.01213e-08
-6.53868e-09
-4.85862e-07
-2.25835e-08
-3.33237e-07
-3.43472e-08
-1.63671e-07
-7.26008e-10
3.046e-08
4.6719e-09
2.47886e-09
3.10005e-09
2.53702e-06
0.0524773
4.89814e-06
3.68734e-06
4.69295e-07
2.0607e-08
3.0907e-09
2.4154e-09
1.43162e-09
1.26784e-09
1.04835e-09
1.90514e-09
1.9307e-09
1.9848e-09
2.0175e-09
2.07481e-09
2.24091e-09
2.40725e-09
2.47617e-09
1.19626e-05
0.0419847
0.000462366
0.000527715
0.000229845
1.69696e-07
6.94994e-08
5.6303e-09
1.39248e-09
1.28477e-09
1.39491e-09
1.85443e-09
2.3359e-09
2.21519e-09
2.0129e-09
2.03648e-09
2.2597e-09
2.47887e-09
8.05447e-05
0.000259845
0.000399117
0.00155284
0.00154082
0.000810604
2.7409e-05
7.15338e-07
3.03737e-08
8.43816e-10
1.11554e-09
1.66031e-09
2.65214e-09
3.04103e-09
2.48567e-09
1.89851e-09
1.94408e-09
2.69588e-09
2.63912e-09
0.000229824
0.000274214
0.000218941
0.00053447
0.00060174
0.00041525
3.25646e-05
5.2937e-10
3.53383e-10
3.4729e-10
5.29306e-10
1.831e-09
3.03803e-09
3.04107e-09
1.02565e-09
8.8564e-10
1.34766e-07
7.12803e-08
3.26219e-09
0.000226626
0.000159694
0.000810542
2.91206e-08
5.13092e-09
1.10075e-09
4.81214e-10
3.53383e-10
3.41431e-10
3.40916e-10
4.98418e-10
1.95802e-09
3.01646e-09
2.6945e-09
5.29573e-10
5.90632e-10
4.91577e-07
3.8728e-07
7.19266e-09
0.00022153
1.9225e-06
0.04668
2.29283e-09
1.0716e-09
5.0709e-10
3.68797e-10
3.47738e-10
3.3989e-10
3.40916e-10
4.19244e-10
1.15209e-09
2.24916e-09
1.11181e-09
4.98609e-10
8.29308e-08
5.12897e-07
5.13095e-07
1.83633e-08
0.000107134
3.73749e-07
0.085548
1.77339e-09
1.03601e-09
1.98616e-09
1.91252e-09
7.36474e-10
3.39034e-10
3.3989e-10
3.9031e-10
6.21766e-10
6.69924e-10
4.9695e-10
4.99456e-10
7.81757e-08
5.13181e-07
5.12897e-07
6.03395e-08
9.215e-06
2.07143e-07
0.0858246
7.80704e-11
3.19506e-11
4.62617e-11
1.08451e-10
2.50959e-10
3.25194e-10
3.83651e-10
4.37881e-10
4.66128e-10
4.81151e-10
4.99544e-10
4.96448e-10
4.9896e-10
3.24271e-07
5.13115e-07
1.83463e-07
1.86283e-07
1.99344e-07
0.0858955
1.00251e-11
1.97636e-11
6.06075e-11
1.50555e-10
3.24947e-10
4.54094e-10
5.72889e-10
5.61318e-10
5.41256e-10
6.59293e-10
8.55953e-10
5.41332e-10
4.96448e-10
4.82251e-08
4.22572e-07
1.86283e-07
1.97194e-07
3.42166e-07
0.0859999
5.57413e-12
1.65647e-11
5.97124e-11
2.0892e-10
5.02963e-10
7.58616e-10
8.39169e-10
6.64639e-10
6.60238e-10
9.27232e-10
1.51886e-09
1.11329e-09
4.99748e-10
1.30337e-08
1.29723e-07
2.30467e-07
8.53993e-06
3.35774e-07
0.0859981
2.29315e-12
1.63171e-11
1.11046e-10
3.52492e-10
5.73621e-10
1.69307e-09
1.35593e-09
6.96153e-10
7.28985e-10
1.19669e-09
1.86044e-09
1.45999e-09
8.41759e-10
8.93254e-10
1.4549e-06
3.18825e-05
2.77521e-05
8.54975e-07
0.0859435
1.5902e-12
2.29069e-11
2.17632e-10
4.15252e-10
3.64368e-10
3.68089e-09
1.77781e-09
8.761e-10
8.45233e-10
1.63557e-09
1.92596e-09
1.45502e-09
1.89643e-09
1.62881e-09
1.26631e-05
5.7444e-05
1.4251e-05
1.94487e-06
0.0857414
1.76892e-12
2.55265e-11
1.83997e-10
3.55757e-10
1.02298e-10
3.49332e-09
2.01444e-09
3.26717e-09
1.6496e-09
2.25876e-09
1.89256e-09
1.46647e-09
2.06666e-09
8.09579e-09
1.57778e-05
4.68351e-05
5.39975e-06
5.19597e-06
0.0851582
1.3354e-12
1.59211e-11
1.12488e-10
1.5184e-10
6.82588e-11
1.35163e-11
1.02931e-07
6.79512e-07
2.51426e-08
2.8646e-09
2.40737e-09
1.8669e-09
8.14276e-09
1.88985e-06
4.30844e-06
1.775e-06
2.27599e-06
0.000548244
0.0709016
3.62073e-13
9.44896e-12
5.8212e-11
8.84862e-11
5.80294e-11
1.27112e-11
4.11138e-07
4.90507e-06
1.6101e-06
4.80576e-09
2.41452e-07
1.14586e-06
1.44726e-06
1.2451e-06
1.24959e-06
1.24727e-06
2.49479e-05
0.0021808
0.0033719
2.26439e-13
7.91759e-12
4.23816e-11
6.50477e-11
4.3241e-11
1.22262e-11
7.45372e-07
5.05438e-06
4.73971e-06
2.2792e-07
1.77261e-06
2.48591e-06
2.22438e-06
1.25025e-06
2.39749e-06
2.54143e-06
9.73435e-05
0.00217936
6.3536e-06
2.31476e-13
5.79701e-12
2.85945e-11
4.5515e-11
3.12797e-11
1.19659e-11
1.35301e-07
5.06899e-06
5.21398e-06
3.77825e-06
2.69562e-06
2.36146e-06
1.097e-06
1.60318e-06
1.4084e-05
8.63279e-06
4.2504e-05
0.000486307
4.8002e-06
1.61337e-13
2.39442e-12
1.20503e-11
2.32421e-11
2.16717e-11
1.18845e-11
5.76721e-12
1.39218e-06
5.23659e-06
5.23659e-06
4.88047e-06
1.55206e-06
7.17008e-07
4.77133e-06
1.46159e-05
1.34918e-05
1.08938e-05
3.2726e-08
5.30225e-07
4.23507e-14
5.33297e-13
2.10322e-12
6.5409e-12
1.27285e-11
1.14813e-11
5.74503e-12
6.12636e-13
2.21391e-06
5.23659e-06
5.23295e-06
2.7702e-06
6.60536e-07
1.08614e-05
1.46159e-05
5.49053e-06
3.85004e-07
1.5133e-09
3.51505e-10
3.11531e-15
5.41145e-14
2.36075e-13
2.20215e-12
9.46036e-12
1.09952e-11
6.70929e-12
5.58068e-13
5.73146e-13
1.25246e-06
5.13924e-06
2.24533e-06
5.25018e-07
1.20207e-05
1.46159e-05
5.30587e-06
6.03492e-09
3.51505e-10
1.40305e-10
2.19838e-16
5.13976e-15
5.13588e-14
1.69312e-12
7.58062e-12
8.27552e-12
4.79188e-12
4.0376e-13
4.40805e-13
7.40253e-11
7.2375e-08
2.63873e-09
3.18578e-07
1.13876e-05
1.4612e-05
2.5208e-06
1.99893e-09
1.40305e-10
9.24878e-11
5.40865e-17
9.01017e-16
2.09209e-14
8.93742e-13
2.84321e-12
2.43922e-12
6.039e-13
-9.25351e-14
4.41546e-09
1.23875e-08
2.63872e-09
2.65012e-09
3.59968e-06
1.13248e-05
1.00168e-05
6.68598e-07
5.15221e-10
1.15822e-10
8.54889e-11
1.42311e-17
1.33487e-16
4.43288e-15
1.78607e-13
3.45625e-13
1.63053e-13
-2.695e-13
-7.06541e-13
2.78926e-08
4.76824e-08
1.15121e-08
2.63874e-09
3.78806e-06
1.12474e-05
3.10185e-06
1.65706e-09
2.39413e-10
1.57883e-09
8.59365e-11
2.45113e-18
1.04012e-17
2.27898e-16
7.7243e-15
3.35822e-15
-3.47941e-14
-5.69282e-13
-8.66911e-13
2.80196e-08
4.76891e-08
2.43108e-09
2.88912e-09
6.64781e-06
7.56777e-06
4.45173e-07
9.73594e-11
1.34199e-12
2.96324e-10
4.3914e-11
2.33641e-19
4.4001e-19
2.64089e-18
3.8133e-17
-4.57327e-15
-2.86873e-14
-4.77099e-13
-5.53647e-13
-3.66623e-14
1.50324e-08
-4.59381e-28
1.16528e-06
8.04304e-06
7.49797e-07
9.73594e-11
1.2246e-12
2.65709e-13
4.33727e-11
8.25906e-12
1.09052e-20
1.13345e-20
3.29413e-20
-4.50043e-19
-3.40183e-15
-1.19297e-14
-1.40529e-13
-1.09434e-13
-2.61105e-14
-2.44001e-15
-1.54312e-16
1.20672e-06
8.04263e-06
8.1505e-07
1.87813e-11
5.5082e-14
1.2057e-16
2.00073e-19
1.40519e-22
4.12395e-22
2.99721e-22
2.04073e-22
-8.54692e-19
-1.04961e-15
-2.61054e-15
-1.03493e-14
-3.01119e-15
-4.86251e-16
-9.00449e-17
-1.00621e-17
2.06133e-08
5.30637e-06
6.89586e-09
-4.30273e-15
-6.70767e-30
-1.12505e-33
2.56789e-35
-2.50772e-38
)
;

boundaryField
{
    leftWall
    {
        type            zeroGradient;
    }
    rightWall
    {
        type            zeroGradient;
    }
    lowerWall
    {
        type            zeroGradient;
    }
    atmosphere
    {
        type            inletOutlet;
        inletValue      uniform 0;
        value           nonuniform List<scalar> 
46
(
-4.51626e-26
-2.88475e-27
-5.90339e-28
-4.76751e-28
-1.23003e-28
-1.83991e-29
-5.57679e-30
-2.28433e-29
-1.43572e-28
-9.00978e-28
-4.97417e-27
-1.99444e-26
-5.9243e-26
-1.17872e-25
-1.54024e-25
-1.34341e-25
-7.47359e-26
-2.56378e-26
-5.53264e-27
-6.54836e-28
7.41458e-46
3.50691e-28
2.41534e-27
6.64349e-27
4.4645e-26
2.56561e-24
6.15937e-22
4.12395e-22
0
0
0
0
0
0
0
0
0
0
0
0
0
0
0
0
0
0
)
;
    }
    defaultFaces
    {
        type            empty;
    }
}


// ************************************************************************* //
