/*--------------------------------*- C++ -*----------------------------------*\
| =========                 |                                                 |
| \\      /  F ield         | OpenFOAM: The Open Source CFD Toolbox           |
|  \\    /   O peration     | Version:  2206                                  |
|   \\  /    A nd           | Website:  www.openfoam.com                      |
|    \\/     M anipulation  |                                                 |
\*---------------------------------------------------------------------------*/
FoamFile
{
    version     2.0;
    format      ascii;
    arch        "LSB;label=32;scalar=64";
    class       volScalarField;
    location    "0.725";
    object      alpha.water;
}
// * * * * * * * * * * * * * * * * * * * * * * * * * * * * * * * * * * * * * //

dimensions      [0 0 0 0 0 0 0];

internalField   nonuniform List<scalar> 
2268
(
1
1
1
1
1
1
1
1
1
1
1
1
1
1
1
1
1
1
1
0.999996
0.999998
0.999998
0.953859
1
1
1
1
1
1
1
1
1
1
1
1
1
1
1
1
1
1
1
0.999993
0.999995
0.999998
0.917462
1
1
1
1
1
1
1
1
1
1
1
1
1
1
1
1
1
1
1
1
1
0.95551
0.90037
1
1
1
1
1
1
1
1
1
1
1
1
1
1
1
1
1
1
1
1
1
0.987954
0.936828
1
1
1
1
1
1
1
1
1
1
1
1
1
1
1
1
1
1
1
1
1
0.999989
0.999434
1
1
1
1
1
1
1
1
1
1
1
1
1
1
1
1
1
1
1
1
1
0.999999
0.99999
1
1
0.999983
0.999918
1
1
1
1
1
1
1
1
1
1
1
1
1
1
1
1
0.999999
0.999994
0.999989
1
1
0.999732
0.997845
0.999925
1
1
1
1
1
1
0.997099
0.968207
0.927581
0.879824
0.831296
0.787985
0.763404
0.74261
0.750067
0.725418
0.634277
0.589429
0.417595
0.417595
0.287883
0.0581182
0.0951372
0.162857
0.162856
0.0825689
0.107486
0.440516
0.458616
0.458623
0.458623
0.458623
0.431231
0.407768
0.414152
0.414158
0.414158
0.417595
0.300226
0.0303792
0.0180657
0.0372637
0.133867
0.132228
0.0548636
0.042794
0.14402
0.175061
0.200581
0.45855
0.343654
0.0441115
0.0299219
0.038503
0.287916
0.414158
0.403301
0.0924194
0.0168031
0.0172272
0.0834895
0.0155753
0.0016505
0.00210189
0.00210189
0.00382267
0.135816
0.193957
0.0505162
0.0337369
0.0469747
0.0259218
0.0253132
0.0588967
0.398504
0.325437
0.0231763
0.0168031
0.0430591
0.0852583
0.0544439
0.00123193
0.0016505
0.0102429
0.113694
0.13828
0.115169
0.0247836
0.0237321
0.0360212
0.0399916
0.0249753
0.00669462
0.329255
0.3029
0.0206469
0.0168031
0.0887581
0.0874631
0.0301566
0.000122469
0.000860528
0.0410249
0.129455
0.128819
0.00561886
0.0279821
0.00283873
0.0031632
0.0208745
0.0201669
0.00577643
0.231683
0.220443
0.0408429
0.0912579
0.0939164
0.0557869
9.05156e-06
5.85699e-05
0.000122469
0.04485
0.129489
0.0383031
0.000895365
0.00439105
0.000847471
0.000827095
0.0011653
0.0118079
0.00512199
0.240266
0.170352
0.193391
0.193391
0.0707274
5.46728e-07
6.62099e-06
9.0515e-06
3.97121e-05
0.0456677
0.126067
0.000897666
0.000897682
0.00085442
0.000847471
0.00136522
0.00147456
0.00202198
0.00444413
0.262094
0.213445
0.18023
0.0102493
1.1475e-08
2.04619e-07
5.46728e-07
4.71566e-06
0.00162768
0.061575
0.0726793
0.000930773
0.000896159
0.000942131
0.0178972
0.0415194
0.00835482
0.0012425
0.00527007
0.262281
1
1
0.999997
0.999983
0.999999
1
1
0.92669
0.739773
0.573649
0.4505
0.323147
0.224095
0.150907
0.0987239
0.0627478
0.0394895
0.0305933
0.0262911
0.0348894
0.0287412
0.00771797
0.04273
1
0.999997
0.998658
0.928458
0.786476
0.590612
0.383905
0.171441
0.0469835
0.00851087
0.000447465
6.61089e-07
3.63046e-08
1.03025e-09
6.46785e-11
2.37805e-10
4.10733e-10
3.58089e-06
1.59149e-05
1.96262e-05
1.73312e-05
1.84627e-07
1.11687e-07
0.841256
0.724171
0.508307
0.295238
0.12813
0.0396658
2.75516e-05
2.60061e-07
4.93227e-10
2.31064e-08
1.77171e-08
2.0128e-08
1.05448e-09
6.46787e-11
6.46795e-11
3.46715e-08
6.36788e-07
5.74225e-07
3.39231e-07
5.29911e-07
5.85873e-07
1.47004e-07
1.1411e-06
0.116298
0.0463809
2.45383e-08
9.72963e-08
7.61201e-10
1.84491e-08
2.59635e-07
4.93228e-10
-1.47379e-13
-7.54895e-17
-4.30938e-12
2.63242e-08
3.46011e-08
9.77925e-09
4.36288e-11
1.14127e-07
6.6179e-07
5.041e-07
2.12964e-08
1.03056e-08
1.31884e-08
9.02535e-08
1.19225e-08
2.65856e-08
1.86419e-08
4.80843e-09
7.61082e-10
2.92702e-11
8.99101e-09
1.90142e-24
-8.01091e-26
-8.26204e-19
-5.26157e-18
-1.14231e-16
1.19919e-11
5.29766e-10
4.03757e-10
2.39269e-11
1.17824e-08
4.25658e-08
1.4653e-08
1.08079e-09
1.59882e-10
2.05324e-10
6.1235e-11
8.66418e-16
1.66336e-07
3.80873e-07
7.72409e-09
-1.30827e-17
-2.29071e-14
-8.53277e-16
-1.02129e-16
-1.67178e-17
-8.64165e-18
-2.56632e-17
-8.68871e-17
4.81255e-15
1.00244e-14
1.49054e-14
1.36402e-12
8.75033e-13
3.80647e-12
2.55632e-12
1.48431e-12
2.82825e-12
3.49983e-12
3.38462e-14
-5.07367e-30
5.32759e-08
7.35834e-08
3.88413e-18
2.83972e-18
8.84498e-17
2.53878e-18
2.81714e-20
-7.85031e-19
-1.1395e-17
-8.30811e-17
-3.07655e-16
-2.91762e-17
0
2.1242e-16
9.95699e-15
1.21536e-14
4.74592e-14
3.82356e-14
3.86935e-14
4.73046e-14
5.37072e-14
1.09705e-15
1.33407e-17
8.21813e-11
7.59383e-14
2.11568e-18
2.03038e-18
2.02971e-18
1.05223e-20
-5.7818e-20
-9.61749e-19
-9.90385e-18
-4.09087e-17
-1.11633e-16
-2.22797e-16
-1.12194e-16
-3.97745e-32
7.37566e-17
2.11371e-15
2.7442e-15
2.71044e-15
2.62841e-15
2.30135e-15
1.77628e-15
2.06648e-16
1.71283e-16
1.76721e-11
2.82256e-15
7.07234e-18
7.99957e-18
6.99232e-20
-3.73829e-22
-3.40144e-20
-4.63232e-19
-2.37775e-18
-7.47081e-18
-1.70962e-17
-3.13268e-17
-5.00222e-17
-6.38213e-17
-4.60065e-17
1.59372e-17
3.41339e-17
3.28065e-17
3.71189e-17
5.16288e-17
9.44924e-17
2.11657e-16
5.09642e-16
1.30528e-11
1.91623e-12
9.10417e-15
9.01313e-17
4.47809e-20
7.4316e-22
-5.01857e-21
-6.34655e-20
-2.79023e-19
-7.71991e-19
-1.54331e-18
-2.48645e-18
-3.8589e-18
-5.30252e-18
-5.63633e-18
5.00005e-20
5.43509e-19
2.29216e-18
7.84927e-18
2.68206e-17
7.78052e-17
2.12525e-16
5.69845e-16
4.39043e-12
1.66419e-12
1.5152e-14
6.37907e-18
6.51705e-20
1.4081e-21
-3.76346e-22
-4.49753e-21
-1.85026e-20
-4.45735e-20
-7.48296e-20
-9.64715e-20
-1.19607e-19
-1.34924e-19
-1.27579e-19
1.29719e-19
7.10326e-19
2.25182e-18
6.41028e-18
1.86563e-17
5.566e-17
1.7047e-16
5.05706e-16
4.32906e-12
1.5606e-12
1.02237e-14
4.99689e-18
4.42672e-20
6.08343e-22
-7.64166e-24
-1.27712e-22
-5.07514e-22
-8.91293e-22
-7.34769e-22
6.22574e-23
2.38819e-21
1.11661e-20
3.94245e-20
9.10568e-20
2.53213e-19
8.46379e-19
2.90374e-18
9.75903e-18
3.2276e-17
1.13944e-16
3.85584e-16
6.73979e-12
1.52486e-12
5.30064e-15
2.66935e-18
1.57398e-20
1.81701e-22
3.89844e-24
1.31805e-24
3.40482e-24
1.6159e-23
8.78206e-23
3.28139e-22
5.84606e-22
1.74947e-21
6.415e-21
2.41386e-20
9.34579e-20
3.64533e-19
1.32748e-18
4.67745e-18
1.77001e-17
7.64933e-17
2.96029e-16
1.07012e-11
1.45131e-12
3.52272e-15
1.06778e-18
5.7093e-21
6.07882e-23
8.57644e-25
1.1419e-25
1.5581e-25
5.73474e-25
3.27698e-24
1.82191e-23
9.93553e-23
4.75403e-22
2.03895e-21
8.39503e-21
3.38079e-20
1.33978e-19
5.04307e-19
2.01962e-18
9.63825e-18
5.10555e-17
2.20788e-16
1.17039e-11
1.28583e-12
2.32085e-15
3.25784e-19
1.77757e-21
1.77707e-23
2.18073e-25
2.43094e-26
2.4714e-26
1.08144e-25
7.19562e-25
4.4058e-24
2.47117e-23
1.19874e-22
5.56599e-22
2.47877e-21
1.03561e-20
4.28425e-20
1.77786e-19
8.59443e-19
5.19662e-18
3.2247e-17
1.59232e-16
1.1726e-11
9.92151e-13
1.18718e-15
1.16319e-19
7.9404e-22
6.41176e-24
6.85412e-26
4.70214e-27
4.24242e-27
1.74204e-26
1.19833e-25
8.10712e-25
5.13887e-24
2.79079e-23
1.46532e-22
6.79388e-22
2.87176e-21
1.26785e-20
6.04967e-20
3.56649e-19
2.8176e-18
2.05173e-17
1.23116e-16
1.06841e-11
6.59031e-13
4.56239e-16
8.41499e-20
6.58603e-22
4.74535e-24
3.81008e-26
1.04501e-27
5.92464e-28
2.615e-27
2.01684e-26
1.52107e-25
1.05122e-24
6.23155e-24
3.61596e-23
1.68839e-22
7.43912e-22
3.60118e-21
1.96529e-20
1.61218e-19
1.7262e-18
1.33633e-17
1.03462e-16
7.72778e-12
3.68644e-13
1.84959e-16
9.42664e-20
7.96552e-22
5.80051e-24
4.10909e-26
4.46413e-28
9.62984e-29
3.98047e-28
3.29658e-27
2.72439e-26
2.0405e-25
1.32549e-24
8.36396e-24
3.90887e-23
1.87907e-22
9.64458e-22
6.28205e-21
1.07504e-19
1.17587e-18
5.59812e-18
5.42041e-17
4.05634e-12
1.63769e-13
1.23317e-16
8.20811e-20
9.66923e-22
7.47619e-24
5.13854e-26
3.93954e-28
3.61701e-29
6.55691e-29
5.27617e-28
4.74172e-27
3.82477e-26
2.7007e-25
1.80967e-24
8.6198e-24
4.69252e-23
2.28869e-22
2.65114e-21
1.25285e-19
5.2828e-19
-3.03296e-18
-2.84413e-17
1.44576e-12
6.00795e-14
8.5121e-17
3.84906e-20
5.18837e-22
6.56279e-24
5.63899e-26
4.53779e-28
1.57797e-29
1.2296e-29
8.27913e-29
8.0053e-28
6.92516e-27
5.26316e-26
3.66508e-25
1.86888e-24
1.21813e-23
3.92061e-23
2.14112e-21
2.06291e-19
-7.82734e-19
-1.43189e-17
-8.13312e-17
3.29174e-13
1.73474e-14
4.44354e-17
1.37105e-20
1.96553e-22
3.12694e-24
3.35832e-26
3.33399e-28
5.19327e-30
1.95223e-30
1.28236e-29
1.3127e-28
1.21121e-27
9.82655e-27
6.89673e-26
4.70423e-25
3.42101e-24
-8.93134e-24
-8.03971e-23
1.33554e-19
-2.11693e-18
-2.24025e-17
-1.04932e-16
4.82829e-14
3.46049e-15
1.39625e-17
6.17566e-21
5.86086e-23
7.01067e-25
1.38875e-26
1.71132e-28
2.14787e-30
3.52512e-31
1.96164e-30
2.08678e-29
2.04176e-28
1.76303e-27
1.19996e-26
2.21308e-25
-3.30558e-25
-3.66291e-23
-1.14042e-21
-2.04818e-20
-3.00981e-18
-2.44707e-17
-1.00828e-16
5.22878e-15
4.66967e-16
2.58647e-18
1.86038e-21
2.14631e-23
2.42692e-25
2.52487e-27
3.27807e-29
4.37206e-31
1.05841e-31
3.02398e-31
3.20561e-30
3.31146e-29
3.03514e-28
2.02793e-27
8.37456e-26
-1.69425e-24
-5.55948e-23
-2.16524e-21
-8.577e-20
-3.08855e-18
-2.14843e-17
-7.98488e-17
4.92283e-16
4.74585e-17
3.10272e-19
3.29959e-22
4.37217e-24
5.68301e-26
6.81622e-28
8.09477e-30
1.07546e-31
1.88589e-32
4.43288e-32
4.75406e-31
5.16203e-30
4.96807e-29
3.51688e-28
1.80746e-26
-2.45578e-24
-6.41236e-23
-2.94978e-21
-1.04983e-19
-2.59175e-18
-1.60932e-17
-5.45208e-17
4.24064e-17
4.06516e-18
2.75308e-20
3.90047e-23
5.66945e-25
8.04081e-27
1.06029e-28
1.38365e-30
1.92593e-32
2.13963e-33
6.08752e-33
6.78262e-32
7.72267e-31
7.60666e-30
7.70397e-29
9.65304e-28
-2.5968e-24
-6.30374e-23
-3.25361e-21
-9.73604e-20
-1.89682e-18
-1.07026e-17
-3.31811e-17
3.25998e-18
3.08676e-19
1.97515e-21
3.42302e-24
5.23628e-26
7.78536e-28
1.08859e-29
1.50947e-31
2.18726e-33
1.62928e-34
7.88134e-34
9.26484e-33
1.10464e-31
1.09216e-30
3.02933e-29
-1.81273e-27
-2.30661e-24
-5.49715e-23
-3.03407e-21
-7.77064e-20
-1.24802e-18
-6.43275e-18
-1.83645e-17
2.17036e-19
2.08371e-20
1.17529e-22
2.2841e-25
3.54359e-27
5.34801e-29
7.69512e-31
1.10293e-32
1.65614e-34
9.13908e-36
9.64793e-35
1.20508e-33
1.49673e-32
1.62299e-31
5.17936e-30
-2.8471e-27
-1.80496e-24
-4.32939e-23
-2.46124e-21
-5.511e-20
-7.48786e-19
-3.5237e-18
-9.31933e-18
1.21941e-20
1.22092e-21
5.83559e-24
1.13929e-26
1.73448e-28
2.5882e-30
3.73592e-32
5.40775e-34
8.70805e-36
7.15743e-37
1.11053e-35
1.48311e-34
1.89219e-33
3.71146e-32
-2.77376e-31
-2.89951e-27
-1.26963e-24
-3.10782e-23
-1.76903e-21
-3.52313e-20
-4.1274e-19
-1.76315e-18
-4.38723e-18
5.61053e-22
5.96724e-23
2.39444e-25
4.13669e-28
6.01114e-30
8.67519e-32
1.22858e-33
1.75886e-35
3.30796e-37
8.75372e-38
1.20166e-36
1.71277e-35
2.24336e-34
8.53324e-33
-1.28155e-30
-2.39456e-27
-8.10402e-25
-2.04262e-23
-1.1395e-21
-2.0446e-20
-2.09724e-19
-8.0251e-19
-1.95402e-18
2.03896e-23
2.33706e-24
8.02679e-27
1.05802e-29
1.43427e-31
1.9641e-33
2.67564e-35
3.69802e-37
4.95077e-39
8.4462e-39
1.22709e-37
1.83428e-36
2.6864e-35
9.02475e-34
-1.55196e-30
-1.70127e-27
-4.7134e-25
-1.2309e-23
-6.61914e-22
-1.08031e-20
-9.82632e-20
-3.27839e-19
-8.56375e-19
5.60748e-25
7.1009e-26
2.19771e-28
1.86e-31
2.3068e-33
2.94208e-35
3.4571e-37
4.13015e-39
5.34811e-41
7.23243e-40
1.15528e-38
1.79391e-37
4.74099e-36
-1.44474e-34
-1.34519e-30
-1.06309e-27
-2.49921e-25
-6.79247e-24
-3.4749e-22
-5.19566e-21
-4.23402e-20
-1.16711e-19
-3.94277e-19
1.10443e-26
1.60092e-27
4.72321e-30
2.62156e-33
2.56064e-35
2.59542e-37
2.72357e-39
2.98107e-41
1.34266e-42
5.6092e-41
9.85059e-40
1.59631e-38
6.71889e-37
-3.26506e-34
-9.51104e-31
-5.89053e-28
-1.20519e-25
-3.42007e-24
-1.64667e-22
-2.26743e-21
-1.66858e-20
-3.39871e-20
-2.01977e-19
1.43411e-28
2.50571e-29
7.30655e-32
1.86216e-35
1.51742e-37
1.35171e-39
1.26568e-41
1.23617e-43
1.84903e-43
3.92771e-42
7.47707e-41
1.32664e-39
5.06349e-38
-3.19382e-34
-5.7014e-31
-2.89756e-28
-5.25874e-26
-1.56189e-24
-7.01367e-23
-8.92653e-22
-5.96507e-21
-6.87239e-21
-1.1292e-19
1.05861e-30
2.44761e-31
7.59925e-34
6.42217e-38
4.34818e-40
3.35534e-42
2.75796e-44
2.64132e-46
1.08919e-44
2.45128e-43
4.94412e-42
1.36628e-40
-6.36103e-39
-2.26748e-34
-2.9328e-31
-1.26078e-28
-2.06017e-26
-6.41509e-25
-2.66579e-23
-3.14326e-22
-1.91384e-21
-3.50912e-22
-6.28382e-20
3.13076e-33
1.16992e-33
4.57873e-36
4.10847e-41
1.68435e-43
1.10713e-45
7.83444e-48
8.67305e-48
5.20076e-46
1.29948e-44
2.79274e-43
1.09084e-41
-1.24619e-38
-1.28e-34
-1.29517e-31
-4.81474e-29
-7.16852e-27
-2.34293e-25
-8.94808e-24
-9.78763e-23
-5.43784e-22
2.93119e-22
-3.16137e-20
6.87633e-37
8.67529e-37
5.35068e-39
2.35085e-45
1.13923e-55
5.79211e-53
4.23054e-51
6.51124e-49
2.0752e-47
5.62684e-46
1.34522e-44
3.23388e-43
-9.95037e-39
-5.87746e-35
-4.87284e-32
-1.59369e-29
-2.18329e-27
-7.49496e-26
-2.61501e-24
-2.65539e-23
-1.34588e-22
5.5384e-23
-1.33694e-20
2.35586e-62
2.12578e-62
1.00258e-59
1.55888e-57
1.27233e-55
8.41488e-54
4.46445e-52
1.81734e-50
6.40412e-49
1.88041e-47
6.90381e-46
-2.01811e-43
-5.39577e-39
-2.19222e-35
-1.53794e-32
-4.48911e-30
-5.70623e-28
-2.05808e-26
-6.52637e-25
-6.15542e-24
-2.84159e-23
-1.89297e-23
-4.48508e-21
1.16232e-64
8.87553e-65
9.3221e-62
1.59125e-59
1.64169e-57
1.27593e-55
7.67187e-54
3.50479e-52
1.36249e-50
4.42228e-49
2.09161e-47
-1.91766e-43
-2.14338e-39
-6.52445e-36
-3.97187e-33
-1.04785e-30
-1.24517e-28
-4.71815e-27
-1.35436e-25
-1.18729e-24
-4.97827e-24
-3.44948e-24
-1.14911e-21
2.10147e-68
3.61004e-67
3.78327e-64
7.58638e-62
1.02916e-59
9.95316e-58
6.8758e-56
3.56789e-54
1.57994e-52
6.02504e-51
3.5616e-49
-9.04304e-44
-6.20999e-40
-1.49645e-36
-8.07362e-34
-1.94809e-31
-2.17978e-29
-8.67404e-28
-2.24791e-26
-1.8341e-25
-6.95935e-25
-4.429e-25
-2.37396e-22
8.13163e-74
1.13627e-71
1.4165e-68
5.63573e-66
1.43564e-63
2.3399e-61
3.55263e-59
4.12788e-57
3.42301e-55
2.57828e-53
2.48104e-51
-2.55026e-44
-1.24608e-40
-2.48539e-37
-1.21152e-34
-2.70584e-32
-2.87219e-30
-1.1994e-28
-2.80315e-27
-2.13422e-26
-7.29794e-26
-3.98185e-26
-4.84383e-23
2.05125e-85
1.17736e-81
4.6826e-78
6.99185e-75
6.60045e-72
4.15036e-69
2.16947e-66
8.2503e-64
2.10916e-61
5.21887e-59
1.21737e-56
-4.00211e-45
-1.53621e-41
-2.65111e-38
-1.19082e-35
-2.49441e-33
-2.53225e-31
-1.10837e-29
-2.33707e-28
-1.66833e-27
-5.12002e-27
-1.81972e-27
-9.78935e-24
0
1.28369e-95
1.35036e-91
2.33129e-88
-5.05228e-78
-1.87398e-79
-2.85147e-71
-4.83602e-72
-3.4755e-65
-6.98928e-66
-7.61632e-67
-2.51937e-46
-8.55443e-43
-1.35204e-39
-5.72556e-37
-1.14357e-34
-1.12066e-32
-5.13218e-31
-9.77605e-30
-6.59782e-29
-1.81029e-28
-2.84828e-29
-1.00275e-24
0.236355
0.254824
0.256143
0.255558
1.14922e-08
5.24055e-11
0.00532253
8.16447e-15
1.52166e-09
4.15265e-15
4.09875e-15
4.14891e-15
1.61204e-09
3.58123e-12
3.25582e-15
3.74262e-13
0
3.51191e-33
1.56584e-15
1.0132e-13
-1.15002e-17
-1.16365e-15
1.39403e-15
8.39416e-15
-3.43223e-16
1.06578e-15
6.60321e-15
1.33937e-14
9.2143e-16
3.56949e-15
1.01891e-14
1.75569e-14
1.52175e-15
4.34629e-15
1.48525e-14
6.90303e-14
1.5877e-15
4.93435e-15
2.80892e-14
2.53239e-13
1.49375e-15
5.82037e-15
4.71941e-14
5.12275e-13
1.32001e-15
6.44424e-15
5.83836e-14
7.18018e-13
1.16475e-15
6.39215e-15
5.88519e-14
8.02843e-13
9.49133e-16
5.69277e-15
4.68409e-14
6.90597e-13
7.08665e-16
3.81761e-15
2.08848e-14
2.7514e-14
5.1794e-16
1.97563e-15
7.28627e-15
4.88919e-15
2.92667e-16
5.72722e-16
1.80398e-15
5.8505e-16
1.38528e-17
-9.21072e-17
2.88671e-17
1.6541e-17
-2.21745e-16
-6.24162e-16
-7.16992e-16
-4.13892e-19
-3.67467e-16
-8.93868e-16
-1.03944e-15
-4.64448e-16
-3.91344e-16
-8.71524e-16
-8.64396e-16
-4.83269e-16
-3.25997e-16
-6.61649e-16
-4.34057e-16
-2.04971e-16
-2.26876e-16
-4.09257e-16
-1.67715e-16
-5.41339e-17
-1.36454e-16
-2.08607e-16
-5.18041e-17
4.33797e-14
-7.2368e-17
-8.51516e-17
1.24038e-14
2.53748e-14
-3.43765e-17
-2.40171e-17
2.77658e-10
2.78872e-10
-1.40108e-17
-6.21477e-34
2.06531e-09
1.08977e-08
-3.99116e-18
0
2.14636e-09
1.53159e-08
7.76846e-35
1.64103e-14
3.84594e-11
4.90228e-13
2.63115e-17
4.33301e-13
4.31974e-13
4.43883e-13
3.65059e-17
5.74853e-13
8.67215e-13
2.77485e-12
3.82156e-18
2.63991e-13
3.40762e-13
4.49595e-12
-3.49433e-19
2.3509e-14
2.72323e-14
3.63505e-12
-6.93577e-19
3.47926e-16
3.29218e-16
7.70441e-13
-8.93568e-19
-6.76372e-17
-8.70228e-17
-6.45932e-17
-7.21616e-19
-7.88751e-17
-8.80738e-17
-5.60854e-17
-4.27358e-19
-4.26163e-17
-3.85515e-17
-2.00628e-17
-2.013e-19
-1.74027e-17
-1.17521e-17
-4.54139e-18
-7.7236e-20
-6.04797e-18
-2.92784e-18
-7.86434e-19
-2.25791e-20
-1.68112e-18
-5.74553e-19
-1.06354e-19
-4.4593e-21
-3.26487e-19
-7.73147e-20
-1.03188e-20
-4.45847e-22
-3.21384e-20
-3.28703e-21
-1.65794e-22
0.16598
9.5841e-12
1.83055e-10
6.92388e-10
1.1475e-08
2.04555e-07
4.04238e-06
0.00407481
0.0385433
0.0188335
0.000978177
0.000930773
0.00111074
0.0561585
0.0561585
0.0561585
0.00188539
0.0050834
0.262094
1.18194e-13
2.74494e-12
9.5841e-12
1.83055e-10
4.32805e-09
9.6061e-08
3.38033e-05
0.00312017
0.00512314
0.000869546
0.000967624
0.0016807
0.0228767
0.0560149
0.0562624
0.0560149
0.0132734
0.0037752
0.177248
8.16447e-15
1.67932e-12
3.4782e-12
5.92461e-11
1.53998e-09
3.64996e-08
3.05394e-05
0.000445702
0.000179232
0.000497719
0.00212654
0.0108625
0.0555897
0.0556513
0.0560149
0.0557295
0.0226283
0.00290425
0.00554072
5.65488e-12
1.2708e-11
1.40257e-11
4.34917e-11
8.90709e-10
3.83251e-07
7.58132e-06
9.60828e-06
4.89217e-05
0.000287702
0.00340646
0.0086338
0.0553224
0.0555557
0.054972
0.0496965
0.0213926
0.00211157
0.0235071
1.85973e-12
8.58595e-12
1.14105e-11
7.47163e-11
1.98566e-09
1.36447e-06
2.31125e-05
1.76918e-05
3.01674e-05
6.13973e-05
0.00146207
0.0108894
0.054889
0.0548764
0.0170759
0.00270912
0.00590736
0.00164417
0.206374
4.87031e-14
7.67281e-13
2.918e-12
6.05638e-11
1.61853e-09
4.30554e-08
3.22305e-05
9.96459e-05
7.64347e-05
8.83957e-05
0.000434113
0.0477291
0.0539468
0.0317986
0.000687242
0.000620605
0.000512466
0.00151816
0.242273
2.19409e-13
3.89018e-12
1.53482e-11
3.48249e-11
4.79085e-10
1.27313e-08
5.7695e-06
0.000116191
0.000189908
0.000196592
3.16794e-05
0.0464912
0.0452069
0.00179836
0.000653742
0.000512466
0.000512466
0.00105673
0.24334
7.24389e-13
8.28501e-12
2.91562e-11
3.47623e-11
1.20594e-10
2.48977e-09
5.75488e-08
3.0788e-05
0.000159041
0.000191349
1.9457e-05
0.0177459
0.00227727
0.00129632
0.00283563
0.000520243
0.00051081
0.000520243
0.243538
2.2273e-12
1.36886e-11
3.69901e-11
6.01971e-11
7.7376e-11
4.16924e-10
1.0549e-08
1.69481e-07
1.6946e-05
3.32763e-05
1.94717e-05
1.94717e-05
0.000105884
0.000655551
0.0272841
0.00285249
0.000520243
0.000539217
0.250628
4.60031e-12
1.85826e-11
3.82777e-11
5.28727e-11
4.98223e-11
8.43492e-11
9.90808e-10
1.76789e-08
2.49493e-07
2.30257e-06
0.00402179
0.00114046
0.000162245
0.0160374
0.0310415
0.00929202
0.000539217
0.000545354
0.252551
6.52278e-12
2.04776e-11
3.28128e-11
3.52048e-11
3.52711e-11
3.93483e-11
1.38001e-10
2.00519e-09
2.70879e-08
1.32559e-05
0.00826345
0.00207732
0.000182358
0.0307844
0.0310415
0.0237738
0.000730582
0.000546953
0.252974
7.19234e-12
1.77487e-11
2.01713e-11
1.85252e-11
3.19366e-11
1.3879e-10
3.39997e-06
1.89325e-05
7.5008e-08
4.24431e-06
3.06054e-05
2.53549e-05
3.02681e-05
0.0308039
0.0310415
0.0309786
0.00247736
0.000554186
0.253256
5.38269e-12
8.91498e-12
7.43515e-12
3.01399e-12
1.45484e-11
6.42477e-10
1.24842e-05
0.000119324
7.45745e-05
8.39538e-06
1.04098e-05
1.68155e-05
0.00055198
0.0306131
0.0309786
0.030667
0.00444081
0.00062423
0.25316
1.90288e-12
2.06023e-12
2.25201e-12
2.45709e-12
3.01146e-12
2.28438e-11
8.34872e-07
0.000121703
0.000226313
0.000228238
6.80762e-05
3.45589e-05
0.0206875
0.0296394
0.0306463
0.0259201
0.00400777
0.000500191
0.253162
3.0262e-13
6.97667e-13
-3.61585e-13
1.82984e-06
1.03869e-05
3.76459e-09
6.98383e-07
1.85667e-05
7.69065e-06
0.000381721
0.000272588
0.00058415
0.0271871
0.0287499
0.0164971
3.93861e-05
0.000984111
0.000394365
0.0849334
1.6089e-12
2.64366e-09
6.7355e-05
0.00110646
0.00131019
0.000139839
7.84044e-07
5.94563e-06
6.69718e-06
7.2066e-06
0.00116053
0.0139653
0.0258655
0.0102069
3.9385e-05
5.27295e-06
0.000440607
0.000365879
0.000345307
2.38256e-14
1.19651e-10
0.00018568
0.00191092
0.0019154
0.00156545
0.000103738
6.69718e-06
7.2066e-06
0.0025949
0.0171046
0.0214857
0.0147791
5.32455e-05
5.27289e-06
1.62311e-06
0.000310982
0.000327505
0.000308801
5.25155e-16
5.60433e-12
7.31722e-05
0.0019147
0.00160225
0.00156072
9.08329e-05
8.89852e-06
0.00310333
0.0172914
0.0207491
0.0213312
0.0001342
9.62158e-06
1.43244e-06
9.17113e-07
0.000423559
0.000385483
0.000347242
8.99049e-17
2.49409e-13
1.83157e-09
0.00189256
3.78791e-05
0.000367875
8.1883e-05
0.000307877
0.0166796
0.017095
0.0133469
0.0015669
5.41167e-06
1.45099e-06
6.47125e-07
7.04644e-07
0.000443906
0.000488442
0.000473755
-7.43712e-22
1.01358e-14
1.13432e-10
0.000843346
3.79442e-05
3.79442e-05
5.18752e-05
0.00391648
0.0166741
0.00791734
3.15199e-05
5.07091e-06
1.34882e-06
5.9456e-07
5.64795e-07
6.45779e-07
0.000221228
0.000486298
0.000357408
-2.14234e-27
3.57555e-16
6.2606e-12
0.000375106
3.77915e-05
3.83164e-05
0.00014268
0.0100713
0.00394639
2.98272e-05
5.42256e-06
1.38378e-06
6.44539e-07
5.64537e-07
5.59944e-07
5.64846e-07
4.07992e-05
0.000474448
0.000322044
1.2413e-33
6.43563e-18
6.7135e-09
0.000466847
0.000232813
3.98297e-05
6.3382e-05
0.00305059
7.88084e-05
5.45924e-06
1.26092e-06
8.69294e-07
6.12177e-07
5.59912e-07
5.64847e-07
1.01892e-06
3.01449e-05
0.000471407
0.000318856
2.77396e-08
2.98708e-13
3.72365e-10
0.000157377
0.000301584
0.000521699
0.00082974
0.000372152
1.42765e-05
9.5078e-07
2.48168e-07
1.21131e-06
7.68574e-07
5.78059e-07
5.60449e-07
6.53468e-07
6.46936e-06
0.00046482
0.000317273
5.00741e-06
1.84601e-07
9.50706e-06
1.68519e-05
3.28234e-05
0.000174899
0.000339756
0.000118612
-5.37005e-09
-5.32269e-08
1.40508e-11
2.47847e-07
1.15226e-06
1.29085e-06
8.44583e-07
1.63809e-06
2.33789e-06
0.000393055
0.000318709
1.88167e-10
2.99494e-05
4.31977e-05
4.28013e-05
2.51882e-05
1.25946e-06
2.76161e-08
5.60054e-09
3.10431e-09
4.77424e-09
4.76885e-09
-1.79558e-09
5.8609e-06
7.8551e-06
2.30348e-06
1.16437e-05
4.01083e-06
0.000161379
0.0174083
3.11117e-10
5.08396e-06
2.85743e-05
3.15423e-05
1.40649e-05
5.67532e-08
5.56284e-09
2.02646e-09
2.43342e-09
3.21203e-09
4.77424e-09
4.72403e-05
0.000257074
0.000116675
4.16996e-06
9.91113e-06
3.77654e-05
0.000104711
0.111451
1.36969e-08
1.36059e-08
3.05729e-08
1.1433e-08
1.01821e-08
9.86842e-09
6.98046e-09
1.60099e-09
2.03302e-09
2.43708e-09
5.34489e-09
0.000359718
0.000465363
0.000335457
1.5511e-05
1.18589e-05
5.33976e-05
0.000445427
0.125423
2.34554e-08
2.32165e-08
2.38964e-08
2.49254e-08
3.02995e-08
3.91315e-08
1.77069e-08
5.67581e-10
1.23022e-09
3.31903e-09
1.15348e-08
0.000446276
0.000472124
0.000448522
3.54977e-05
1.30167e-05
2.4023e-05
0.000768136
0.126657
1.49063e-08
4.52922e-08
4.57959e-08
4.60173e-08
4.59934e-08
4.39936e-08
5.39662e-09
1.49352e-10
1.2451e-08
1.07187e-08
3.28474e-08
0.000160578
0.000479679
0.000480451
0.000110318
1.55402e-05
1.87242e-05
0.00143338
0.127044
2.04896e-09
1.85528e-08
1.63634e-08
2.18787e-08
4.13335e-08
1.14403e-08
1.49352e-10
1.09867e-10
4.33006e-08
6.29483e-07
8.48144e-08
1.72711e-07
0.00042907
0.000480451
0.000172714
1.89344e-05
2.26666e-05
0.00214304
0.127154
5.39522e-13
5.42092e-13
5.39277e-13
3.9524e-09
9.39494e-09
6.022e-09
6.84286e-10
6.24329e-11
3.39167e-08
1.37876e-06
2.11541e-07
3.27508e-07
0.000370157
0.000478333
0.00012145
2.26741e-05
2.44937e-05
0.00328012
0.127182
4.24298e-12
5.39297e-13
5.74248e-13
1.22616e-08
1.25055e-08
7.60476e-09
5.0716e-10
1.94707e-11
7.54812e-09
1.41967e-06
3.27508e-07
5.27366e-05
0.000427267
0.000339458
7.39483e-05
2.45764e-05
2.50215e-05
0.00423239
0.127188
4.01626e-12
5.39292e-13
5.47591e-13
8.73703e-09
1.02593e-08
3.60148e-09
1.17386e-10
4.02947e-12
6.79947e-12
5.80729e-07
2.90015e-07
0.000221033
0.000427267
0.000413046
7.60921e-05
2.52799e-05
2.97442e-05
0.00487417
0.127182
7.00107e-13
2.01875e-14
5.10013e-11
2.94599e-10
1.17067e-11
1.33413e-11
1.3987e-11
3.8642e-12
9.99152e-12
1.66592e-12
-5.53589e-11
0.000204561
0.000427267
0.000351634
9.14437e-05
2.95217e-05
6.04417e-05
0.0161642
0.0988643
-2.74314e-17
-6.06866e-18
4.20539e-11
9.48338e-12
1.12654e-11
1.71062e-11
1.48715e-11
3.20557e-12
2.02099e-11
1.09498e-12
4.76661e-06
5.27717e-06
0.00011849
0.000143797
0.000101676
6.02766e-05
0.00148945
0.0220463
0.00938171
-1.97214e-17
-2.17126e-18
5.5971e-13
9.49384e-12
1.56501e-11
1.46048e-11
5.96554e-12
3.91459e-13
1.53087e-11
9.31387e-14
1.08348e-06
1.24012e-06
1.41486e-05
1.52018e-05
3.20905e-05
8.29158e-05
0.00716557
0.0123793
0.000740925
-5.65694e-18
-2.8173e-19
1.37489e-13
9.2548e-12
1.09507e-11
4.84078e-12
9.68838e-13
1.45108e-14
-2.81083e-38
1.51629e-15
8.6022e-07
9.61722e-06
7.48508e-06
7.48508e-06
2.47564e-05
0.00177504
0.00705894
0.000768143
0.000123119
-9.15416e-19
-1.39035e-19
1.20726e-13
4.7296e-12
2.37775e-12
6.65701e-13
1.18421e-13
1.05607e-15
-1.2687e-15
-7.44783e-36
1.42848e-06
1.75904e-05
7.50622e-06
9.40895e-06
8.39844e-05
0.00563218
0.00601237
0.000189841
1.26956e-05
-1.01927e-19
-1.09675e-20
1.39551e-14
7.67361e-13
2.8779e-13
7.03346e-14
1.28991e-14
1.10996e-16
-3.08462e-15
-1.52604e-33
2.30937e-07
1.06328e-05
9.0744e-06
0.000187728
0.0031007
0.00495779
0.00406505
1.26956e-05
9.47128e-08
-9.35995e-21
-7.29938e-22
9.30535e-16
2.93174e-14
9.62949e-15
4.71542e-15
9.89397e-16
7.55303e-18
-2.33242e-15
5.03264e-12
1.3035e-11
5.89005e-08
2.55057e-06
0.0011754
0.00438827
0.00458623
0.000258901
9.47128e-08
1.89722e-23
-6.77815e-22
-6.61118e-23
-6.67683e-24
-5.83488e-25
1.28932e-17
1.45157e-16
2.63995e-17
8.112e-20
-1.108e-15
-4.00197e-25
3.78055e-11
4.1148e-08
4.11726e-05
0.00256011
0.00401963
0.00438725
0.000103023
1.77385e-05
-1.06132e-44
-3.73441e-24
-6.52521e-24
-4.55051e-25
-1.85511e-26
-5.83206e-28
-1.54808e-29
8.53921e-23
1.78785e-23
-2.64042e-16
-9.21672e-23
-7.81683e-17
-4.92309e-14
0.000132043
0.00097859
0.00292026
0.00166257
0.000453929
0.000589815
-1.53787e-45
)
;

boundaryField
{
    leftWall
    {
        type            zeroGradient;
    }
    rightWall
    {
        type            zeroGradient;
    }
    lowerWall
    {
        type            zeroGradient;
    }
    atmosphere
    {
        type            inletOutlet;
        inletValue      uniform 0;
        value           nonuniform List<scalar> 
46
(
0
0
0
0
0
0
0
0
0
0
0
0
0
0
0
0
0
0
0
0
0
0
0
0
0
0
0
0
0
0
0
0
0
0
0
0
0
0
0
0.000132043
0.00097859
0.00292026
0.00166257
0.000453929
0.000589815
0
)
;
    }
    defaultFaces
    {
        type            empty;
    }
}


// ************************************************************************* //
