/*--------------------------------*- C++ -*----------------------------------*\
| =========                 |                                                 |
| \\      /  F ield         | OpenFOAM: The Open Source CFD Toolbox           |
|  \\    /   O peration     | Version:  2206                                  |
|   \\  /    A nd           | Website:  www.openfoam.com                      |
|    \\/     M anipulation  |                                                 |
\*---------------------------------------------------------------------------*/
FoamFile
{
    version     2.0;
    format      ascii;
    arch        "LSB;label=32;scalar=64";
    class       volScalarField;
    location    "0.725";
    object      p;
}
// * * * * * * * * * * * * * * * * * * * * * * * * * * * * * * * * * * * * * //

dimensions      [1 -1 -2 0 0 0 0];

internalField   nonuniform List<scalar> 
2268
(
1425.63
1424.85
1423.46
1421.32
1418.64
1415.49
1411.9
1407.94
1403.68
1399.21
1394.59
1389.92
1385.26
1380.68
1376.29
1372.14
1368.34
1364.54
1361.71
1359.11
1357.59
1356.7
1355.88
1248.95
1247.99
1246.55
1244.2
1241.35
1238
1234.19
1229.96
1225.41
1220.64
1215.72
1210.76
1205.81
1200.94
1196.3
1191.85
1187.64
1183.51
1179.79
1175.4
1171.78
1165.42
1167.66
1074.77
1073.66
1072.09
1069.32
1066.09
1062.29
1057.95
1053.16
1048.03
1042.68
1037.23
1031.78
1026.4
1021.22
1016.14
1011.29
1006.77
1002.34
999.495
992.306
992.201
978.883
985.507
903.881
902.631
900.521
896.641
892.902
888.348
883.154
877.403
871.263
864.875
858.384
851.935
845.62
839.232
833.55
828.361
823.567
819.619
816.585
813.94
811.564
810.581
812.681
736.94
735.237
732.141
727.839
723.026
717.236
710.618
703.291
695.666
687.911
680.204
672.608
665.156
657.633
651.097
645.227
640.232
635.813
632.2
629.655
627.847
627.685
628.289
574.189
572.007
568.161
562.674
556.169
548.434
539.777
530.423
520.661
510.329
500.528
490.928
481.581
472.654
464.389
456.94
450.598
445.28
440.846
436.972
433.962
431.287
428.7
416.984
414.057
409.311
402.734
394.206
383.913
371.59
359.046
346.084
333.294
321.206
309.583
298.374
287.735
277.872
269.035
261.479
255.497
250.962
248.02
244.83
244.452
244.568
267.297
260.902
256.063
248.24
236.417
221.848
205.791
188.257
170.474
154.254
139.47
125.574
112.655
101.097
91.0816
82.7222
76.4005
73.0349
70.4479
71.4027
68.4389
59.0395
47.4823
156.114
142.033
95.1273
51.6534
73.4526
158.458
188.361
137.604
109.983
143.828
182.023
192.494
218.899
224.144
209.187
197.98
238.464
296.563
324.319
91.4348
49.9278
18.0319
5.58903
13.6002
47.8269
32.1917
12.5872
16.2555
45.7762
109.215
135.519
150.988
174.043
157.214
148.678
152.958
183.508
264.854
49.0793
12.7784
2.42398
0.256455
2.3162
14.8371
10.6977
8.76049
12.9969
20.9924
30.8091
86.9656
96.1946
100.641
117.132
119.223
116.066
121.888
191.31
21.3471
2.58741
1.52928
-4.99802
-5.88642
4.5086
4.86071
5.52841
8.5571
17.7573
34.6383
47.0506
55.2599
54.7622
62.6251
69.9588
73.5709
79.9088
105.485
23.8394
0.446778
5.98682
0.958753
-0.864802
1.11697
1.66358
1.56045
1.11349
18.6097
16.7089
24.0684
39.4798
41.3218
43.8436
44.4015
47.8233
52.7003
61.9077
23.5115
2.96926
11.7152
6.55587
0.86924
-0.746781
0.292132
-0.133608
-1.28739
17.6481
12.9957
13.989
22.8949
31.5792
36.6916
41.9396
46.1821
47.5274
51.4443
27.6526
1.04995
6.64958
4.35186
-0.0691788
-0.419478
-0.020843
0.30625
-0.24474
13.354
9.69211
8.82215
9.6031
15.8855
28.2631
44.1251
52.9125
48.8404
51.7298
1.32948
7.20219
0.400632
-0.467071
-0.415367
-0.351378
-0.0367233
0.593009
0.404746
3.88452
2.67858
1.8987
0.788406
-0.991969
15.3193
49.9349
56.5139
50.0005
54.1418
167.017
158.889
147.789
133.787
117.59
99.6708
82.7087
58.9571
42.1481
29.8098
22.029
15.4982
10.5232
6.83624
4.21375
2.43876
1.3627
0.843757
0.643091
0.993265
0.738536
-0.149264
1.20425
90.8793
86.529
75.0827
60.3734
44.8301
30.9001
17.3625
7.14286
1.233
-0.917509
-1.01121
-0.940331
-0.908399
-0.910064
-0.910178
-0.913766
-0.943018
-0.949659
-0.934269
-0.912246
-0.902717
-0.894006
-0.908008
41.478
36.0531
23.9705
13.4529
5.11597
0.413232
-1.32254
-1.14957
-1.10085
-1.20204
-1.15834
-1.13228
-1.10295
-1.08127
-1.06483
-1.04646
-1.03372
-1.03515
-1.02151
-0.996889
-0.985575
-0.977251
-0.988681
4.3943
0.676713
-1.45326
-1.50416
-1.37744
-1.49486
-1.43657
-1.3663
-1.35478
-1.32774
-1.27943
-1.23928
-1.21811
-1.19312
-1.17295
-1.1572
-1.14615
-1.13525
-1.11757
-1.09883
-1.07494
-1.05501
-1.04438
-1.56496
-1.60731
-1.61156
-1.61524
-1.58617
-1.58368
-1.50186
-1.44948
-1.43093
-1.42242
-1.39787
-1.3703
-1.34741
-1.32631
-1.30698
-1.28855
-1.27177
-1.25494
-1.23638
-1.21657
-1.19291
-1.17722
-1.16717
-1.65905
-1.69019
-1.68192
-1.66893
-1.6549
-1.64119
-1.60563
-1.58035
-1.55953
-1.53536
-1.51172
-1.48654
-1.46382
-1.44267
-1.42328
-1.40529
-1.38818
-1.37085
-1.35263
-1.33338
-1.3125
-1.29338
-1.27436
-1.7478
-1.77595
-1.78929
-1.78057
-1.76271
-1.73914
-1.71049
-1.68697
-1.66706
-1.64681
-1.62587
-1.60423
-1.583
-1.56232
-1.54253
-1.52371
-1.5056
-1.48762
-1.46932
-1.45046
-1.43091
-1.41168
-1.39229
-1.86595
-1.88369
-1.8877
-1.87819
-1.86134
-1.84034
-1.81832
-1.79801
-1.77859
-1.75898
-1.73901
-1.71859
-1.69863
-1.67914
-1.66017
-1.64171
-1.62362
-1.60563
-1.5875
-1.569
-1.55
-1.53066
-1.51064
-1.97867
-1.98564
-1.98461
-1.97683
-1.96235
-1.94401
-1.92529
-1.90694
-1.88864
-1.87009
-1.85125
-1.83226
-1.81336
-1.79482
-1.7767
-1.75893
-1.74139
-1.72387
-1.70618
-1.68814
-1.66958
-1.65045
-1.63053
-2.08063
-2.08205
-2.0816
-2.07625
-2.06448
-2.04899
-2.03249
-2.01563
-1.99847
-1.98102
-1.96334
-1.94562
-1.92788
-1.9104
-1.8932
-1.87623
-1.85938
-1.84249
-1.82539
-1.80793
-1.78996
-1.77133
-1.75184
-2.18363
-2.18379
-2.18391
-2.17979
-2.16935
-2.15562
-2.14044
-2.12468
-2.10857
-2.09219
-2.07562
-2.05896
-2.04248
-2.0261
-2.00988
-1.99378
-1.97771
-1.96156
-1.94517
-1.92842
-1.91116
-1.89322
-1.87445
-2.29335
-2.29452
-2.29384
-2.2886
-2.27761
-2.26421
-2.2496
-2.2346
-2.21941
-2.20404
-2.18854
-2.17299
-2.15752
-2.14215
-2.12687
-2.11165
-2.09642
-2.08108
-2.06552
-2.04961
-2.03324
-2.01625
-1.99848
-2.40808
-2.41098
-2.40905
-2.40121
-2.38858
-2.37458
-2.36006
-2.34558
-2.33115
-2.31667
-2.30212
-2.28755
-2.27303
-2.25859
-2.24422
-2.22989
-2.21553
-2.20108
-2.18644
-2.17153
-2.15623
-2.14043
-2.12398
-2.52532
-2.52931
-2.52595
-2.51553
-2.50108
-2.4862
-2.47161
-2.45754
-2.44376
-2.43004
-2.41632
-2.40262
-2.38899
-2.37544
-2.36195
-2.34851
-2.33507
-2.32157
-2.30797
-2.29417
-2.28013
-2.26574
-2.25091
-2.6425
-2.64667
-2.64193
-2.62987
-2.61405
-2.59851
-2.58392
-2.57026
-2.55705
-2.54401
-2.53105
-2.51816
-2.50537
-2.49268
-2.48007
-2.46753
-2.45503
-2.44257
-2.43007
-2.41751
-2.40486
-2.3921
-2.37917
-2.75749
-2.76134
-2.75588
-2.74332
-2.72686
-2.71105
-2.69666
-2.68345
-2.67082
-2.65844
-2.64619
-2.63408
-2.62211
-2.61027
-2.59855
-2.58694
-2.57543
-2.56402
-2.55269
-2.54145
-2.53032
-2.51932
-2.50851
-2.86992
-2.87358
-2.86843
-2.85605
-2.83921
-2.82348
-2.80954
-2.7969
-2.78489
-2.77317
-2.76166
-2.75032
-2.73917
-2.72819
-2.71737
-2.7067
-2.6962
-2.68588
-2.67576
-2.66588
-2.65631
-2.64715
-2.63855
-2.98089
-2.9849
-2.98099
-2.9689
-2.95068
-2.93553
-2.92235
-2.91042
-2.8991
-2.88809
-2.87733
-2.8668
-2.85649
-2.84638
-2.83647
-2.82676
-2.81727
-2.80806
-2.79915
-2.79064
-2.78263
-2.77529
-2.76886
-3.09125
-3.09598
-3.09363
-3.08043
-3.06273
-3.04765
-3.03509
-3.02392
-3.01334
-3.0031
-2.99314
-2.98345
-2.974
-2.96478
-2.95579
-2.94705
-2.93859
-2.93046
-2.92275
-2.91556
-2.90905
-2.90343
-2.89901
-3.20008
-3.20648
-3.20473
-3.19153
-3.17395
-3.15929
-3.14754
-3.13721
-3.12748
-3.1181
-3.10901
-3.1002
-3.09164
-3.08333
-3.07527
-3.0675
-3.06005
-3.05298
-3.04643
-3.0405
-3.03538
-3.03131
-3.02865
-3.30653
-3.31388
-3.3129
-3.30056
-3.28379
-3.27014
-3.25953
-3.25024
-3.24148
-3.23305
-3.22489
-3.21701
-3.20937
-3.20198
-3.19486
-3.18804
-3.18158
-3.17557
-3.17008
-3.16534
-3.16149
-3.15878
-3.15758
-3.41026
-3.41697
-3.41713
-3.40678
-3.39203
-3.38013
-3.37101
-3.36296
-3.35531
-3.34791
-3.34076
-3.33384
-3.32714
-3.32068
-3.31448
-3.30861
-3.30312
-3.29812
-3.29372
-3.29002
-3.28729
-3.28577
-3.28578
-3.51173
-3.51671
-3.51811
-3.51063
-3.49896
-3.48945
-3.48208
-3.47543
-3.46899
-3.46271
-3.4566
-3.45066
-3.44492
-3.43938
-3.43411
-3.42915
-3.4246
-3.42054
-3.41711
-3.41445
-3.41275
-3.41228
-3.41332
-3.61213
-3.61533
-3.61775
-3.61337
-3.60531
-3.59846
-3.59296
-3.58779
-3.58262
-3.57749
-3.57243
-3.56749
-3.56268
-3.55806
-3.55368
-3.54962
-3.54596
-3.54282
-3.54031
-3.53859
-3.53786
-3.53834
-3.54031
-3.71275
-3.7148
-3.71788
-3.71637
-3.71186
-3.7076
-3.70391
-3.70019
-3.69629
-3.6923
-3.68829
-3.68431
-3.68043
-3.67669
-3.67318
-3.66998
-3.66718
-3.6649
-3.66326
-3.66244
-3.6626
-3.66397
-3.66683
-3.81464
-3.81614
-3.81975
-3.82071
-3.81926
-3.81726
-3.8152
-3.81283
-3.81012
-3.80722
-3.8042
-3.80116
-3.79815
-3.79526
-3.79258
-3.7902
-3.78822
-3.78675
-3.78594
-3.78595
-3.78696
-3.78919
-3.79291
-3.91846
-3.91964
-3.92391
-3.92702
-3.92792
-3.9277
-3.92703
-3.92586
-3.92424
-3.92232
-3.92023
-3.91804
-3.91586
-3.91377
-3.91187
-3.91026
-3.90905
-3.90835
-3.90832
-3.90911
-3.91092
-3.91397
-3.91852
-4.02468
-4.02554
-4.0307
-4.03553
-4.03804
-4.03914
-4.03958
-4.03941
-4.03872
-4.03768
-4.03641
-4.035
-4.03358
-4.03223
-4.03105
-4.03016
-4.02966
-4.02968
-4.03037
-4.03189
-4.03445
-4.03827
-4.04362
-4.13366
-4.1342
-4.14031
-4.14625
-4.14967
-4.15167
-4.15295
-4.15356
-4.15364
-4.15334
-4.15278
-4.15207
-4.15132
-4.15063
-4.15012
-4.14988
-4.15003
-4.15071
-4.15206
-4.15426
-4.15751
-4.16203
-4.16811
-4.24554
-4.24594
-4.2527
-4.259
-4.26279
-4.26534
-4.26718
-4.26837
-4.26905
-4.26934
-4.26937
-4.26926
-4.2691
-4.26901
-4.26908
-4.26943
-4.27017
-4.27144
-4.27339
-4.27619
-4.28005
-4.28519
-4.29191
-4.36011
-4.3607
-4.36752
-4.37352
-4.37729
-4.38009
-4.38226
-4.38384
-4.38494
-4.3857
-4.38621
-4.38659
-4.38694
-4.38736
-4.38794
-4.38881
-4.39007
-4.39186
-4.39434
-4.39767
-4.40205
-4.40772
-4.41495
-4.47689
-4.4778
-4.48419
-4.48948
-4.493
-4.49582
-4.49813
-4.49992
-4.50132
-4.50241
-4.5033
-4.50408
-4.50485
-4.50569
-4.50672
-4.50802
-4.50973
-4.51198
-4.51491
-4.51868
-4.5235
-4.52959
-4.53722
-4.59531
-4.59653
-4.60212
-4.60654
-4.6097
-4.61239
-4.61468
-4.61657
-4.61814
-4.61947
-4.62064
-4.62173
-4.62283
-4.62403
-4.62541
-4.62709
-4.62918
-4.63181
-4.63512
-4.63926
-4.64442
-4.65083
-4.65874
-4.71484
-4.7162
-4.72081
-4.72439
-4.72716
-4.72963
-4.73182
-4.73371
-4.73536
-4.73683
-4.7382
-4.73952
-4.74088
-4.74236
-4.74404
-4.74603
-4.74844
-4.75138
-4.75499
-4.75942
-4.76485
-4.77149
-4.77959
-4.835
-4.83633
-4.83994
-4.8428
-4.84518
-4.8474
-4.84943
-4.85125
-4.85291
-4.85446
-4.85594
-4.85743
-4.85898
-4.86068
-4.8626
-4.86484
-4.8675
-4.87069
-4.87454
-4.87919
-4.88482
-4.89163
-4.89984
-4.9554
-4.95662
-4.95931
-4.96158
-4.96359
-4.96554
-4.96738
-4.9691
-4.97073
-4.9723
-4.97385
-4.97544
-4.97714
-4.979
-4.9811
-4.98352
-4.98637
-4.98976
-4.99379
-4.99861
-5.00439
-5.01131
-5.01958
-5.07576
-5.07687
-5.07881
-5.08061
-5.0823
-5.08398
-5.08563
-5.08723
-5.08879
-5.09034
-5.09192
-5.09359
-5.09538
-5.09735
-5.09959
-5.10216
-5.10516
-5.10869
-5.11287
-5.11783
-5.12372
-5.13072
-5.13904
-5.19598
-5.197
-5.19838
-5.19982
-5.20121
-5.20266
-5.20413
-5.2056
-5.20708
-5.20859
-5.21018
-5.21189
-5.21374
-5.21581
-5.21814
-5.22083
-5.22396
-5.22761
-5.23191
-5.23698
-5.24297
-5.25005
-5.25843
-5.31595
-5.31691
-5.31783
-5.319
-5.32015
-5.32138
-5.32267
-5.32401
-5.3254
-5.32686
-5.32843
-5.33014
-5.33202
-5.33413
-5.33653
-5.33929
-5.3425
-5.34624
-5.35061
-5.35575
-5.36181
-5.36895
-5.37737
-5.43548
-5.43635
-5.43693
-5.43787
-5.4388
-5.43983
-5.44095
-5.44214
-5.44342
-5.4448
-5.44631
-5.44798
-5.44984
-5.45195
-5.45436
-5.45714
-5.46036
-5.46411
-5.4685
-5.47365
-5.47971
-5.48685
-5.49527
-5.55462
-5.55538
-5.55576
-5.5565
-5.55727
-5.55814
-5.5591
-5.56017
-5.56134
-5.56264
-5.56409
-5.56572
-5.56756
-5.56965
-5.57206
-5.57484
-5.57807
-5.58183
-5.58623
-5.59139
-5.59746
-5.6046
-5.61303
-5.67393
-5.67475
-5.67502
-5.6756
-5.67624
-5.67698
-5.67783
-5.67879
-5.67989
-5.68113
-5.68254
-5.68415
-5.68599
-5.6881
-5.69053
-5.69334
-5.6966
-5.7004
-5.70484
-5.71005
-5.71616
-5.72336
-5.73184
12.0659
13.4917
14.194
13.4417
-0.850179
-0.822002
-0.624886
-0.666311
-0.939516
-0.893026
-0.878826
-0.85336
-1.0291
-1.00399
-0.987317
-0.942338
-1.14023
-1.11472
-1.08998
-1.06558
-1.25231
-1.22798
-1.20361
-1.17819
-1.37006
-1.34478
-1.31904
-1.29305
-1.48809
-1.46285
-1.43664
-1.40965
-1.60812
-1.58287
-1.55631
-1.52844
-1.72984
-1.70486
-1.67828
-1.64993
-1.85319
-1.82894
-1.80286
-1.77465
-1.97838
-1.95537
-1.93043
-1.90318
-2.10544
-2.08431
-2.06135
-2.0361
-2.23439
-2.21581
-2.19586
-2.17388
-2.36509
-2.34974
-2.33401
-2.31677
-2.49721
-2.48573
-2.47549
-2.46395
-2.63016
-2.62272
-2.61785
-2.61409
-2.76333
-2.75986
-2.76034
-2.76481
-2.89605
-2.896
-2.9008
-2.9117
-3.0278
-3.0304
-3.038
-3.05265
-3.15839
-3.16284
-3.17197
-3.18823
-3.28788
-3.29358
-3.30342
-3.32002
-3.41647
-3.42304
-3.43337
-3.44947
-3.5444
-3.55175
-3.56274
-3.57835
-3.67183
-3.68006
-3.69185
-3.70782
-3.79882
-3.80803
-3.82079
-3.8377
-3.92536
-3.9356
-3.94946
-3.96755
-4.05135
-4.06262
-4.07762
-4.09705
-4.17667
-4.18888
-4.20492
-4.22562
-4.30118
-4.31418
-4.33105
-4.35273
-4.42477
-4.43834
-4.45577
-4.47801
-4.54743
-4.56134
-4.57901
-4.60137
-4.66918
-4.68324
-4.70089
-4.72302
-4.79015
-4.80421
-4.82167
-4.84336
-4.91044
-4.92443
-4.94164
-4.96284
-5.0302
-5.04408
-5.06105
-5.08184
-5.14966
-5.16348
-5.18029
-5.2008
-5.26909
-5.2829
-5.29966
-5.32006
-5.38806
-5.40189
-5.41865
-5.43905
-5.50594
-5.51977
-5.53655
-5.55696
-5.62372
-5.63759
-5.65443
-5.67492
-5.74263
-5.7566
-5.77358
-5.79424
7.82978
-0.54221
-0.507297
-0.615815
-0.5216
-0.467065
-0.420206
-0.509662
-1.33198
-2.30946
-1.96214
-2.94416
-2.42299
-2.77911
17.589
47.1214
52.8957
48.71
52.3378
-0.704623
-0.678626
-0.662925
-0.675474
-0.658203
-0.646797
-0.726251
-1.12087
-2.31525
-3.25203
-4.03986
-6.14139
-5.61928
1.35822
16.0527
35.5518
45.4497
41.0349
44.2577
-0.849633
-0.786476
-0.7688
-0.779963
-0.786105
-0.833704
-0.971728
-1.34013
-1.96623
-2.99122
-4.94438
-7.97354
-11.6522
1.90224
12.0869
24.5035
33.3482
33.0562
34.6173
-0.924927
-0.891251
-0.877993
-0.881845
-0.899644
-0.977225
-1.14259
-1.40437
-1.73912
-2.62317
-4.55935
-6.31437
-14.1971
1.91952
9.73853
16.785
23.4751
28.7777
30.1179
-1.04132
-1.00813
-0.984064
-0.979596
-0.995092
-1.07352
-1.24143
-1.45176
-1.75426
-2.44718
-4.81254
-6.58557
-10.5931
4.577
10.4116
13.0012
15.871
22.0211
23.0549
-1.1483
-1.11073
-1.08539
-1.07134
-1.07541
-1.13062
-1.26651
-1.43842
-1.71743
-2.32208
-4.3457
-7.82918
-6.00298
7.70143
10.8834
12.3551
14.4463
15.7655
18.2519
-1.26046
-1.22064
-1.18611
-1.15872
-1.14523
-1.16721
-1.2424
-1.34911
-1.51619
-2.12441
-3.38074
-5.36373
0.353685
5.5549
10.8057
12.0374
14.3133
14.061
16.3227
-1.37462
-1.33066
-1.28683
-1.24418
-1.2095
-1.19935
-1.21279
-1.22349
-1.2179
-1.75001
-2.23125
-3.18195
0.0447284
4.00107
9.93721
12.0161
14.3572
13.6985
15.8264
-1.49131
-1.44273
-1.38915
-1.32997
-1.27182
-1.23091
-1.19802
-1.11762
-0.962682
-1.28029
-1.30362
-2.26519
-0.55608
2.78441
7.8416
11.8153
14.4541
12.9351
15.582
-1.61124
-1.55846
-1.49512
-1.41806
-1.33576
-1.26511
-1.19855
-1.04577
-0.768026
-0.837889
-0.616713
-1.51632
-0.70316
1.66965
7.13006
11.3064
14.564
11.7972
15.236
-1.73529
-1.67948
-1.6072
-1.51004
-1.40352
-1.30682
-1.21883
-1.01367
-0.624961
-0.648049
-0.800552
-0.685117
-0.348615
0.806033
6.23879
10.2689
14.3805
10.2107
14.8551
-1.86447
-1.80773
-1.72892
-1.60727
-1.47624
-1.36252
-1.27047
-1.03214
-0.541134
-0.412605
-0.723587
-0.333409
0.265786
0.406075
5.20096
8.3112
12.6174
7.93932
14.036
-1.99984
-1.94535
-1.86581
-1.71131
-1.55441
-1.44306
-1.37712
-1.11649
-0.539444
-0.101466
-0.129645
-0.0564271
0.892777
0.4606
3.99574
6.13016
8.31698
5.65074
12.2932
-2.1426
-2.09438
-2.0301
-1.82884
-1.6409
-1.55405
-1.53525
-1.25438
-0.648988
-0.0145108
0.19556
0.224218
0.553208
0.275885
3.07498
4.61005
4.76734
4.13337
8.26607
-2.29411
-2.25474
-2.24304
-1.96677
-1.74843
-1.72751
-1.73341
-1.40564
-0.805846
-0.149921
0.331999
0.374938
-0.719462
-0.326744
2.46516
2.96521
3.78175
3.19527
3.58978
-2.45709
-2.43236
-2.56006
-2.24203
-1.99474
-2.05503
-2.05037
-1.60207
-0.973357
-0.240896
0.220592
-0.226399
-2.01513
0.0748723
1.82549
2.51006
3.34575
2.50452
0.953539
-2.6301
-2.62083
-2.90809
-2.80256
-2.68104
-2.74601
-2.57744
-1.97282
-1.29292
-0.745869
-0.748901
-0.779388
-1.69797
0.342346
1.69463
2.28041
2.87005
2.44323
1.86504
-2.79571
-2.82
-3.12272
-3.33925
-3.50193
-3.82113
-3.3271
-2.73848
-2.11551
-2.45891
-2.8045
-1.31179
-1.16801
0.345371
1.56271
2.17717
2.64052
2.5075
2.27558
-2.94869
-2.99857
-3.23354
-3.57276
-3.73266
-4.19166
-4.08022
-4.09435
-5.23611
-4.91651
-4.15987
-2.79293
-1.22702
0.0877638
1.34971
2.02892
2.43978
2.42028
2.38137
-3.08917
-3.14811
-3.32184
-3.60075
-3.6338
-3.99001
-4.48949
-5.81142
-9.82665
-6.27257
-4.5133
-3.33208
-1.80396
-0.359526
0.966725
1.73058
2.13844
2.17662
2.29148
-3.22156
-3.27923
-3.41914
-3.59716
-3.54163
-3.76348
-4.52304
-7.2796
-10.3185
-6.64017
-4.73965
-3.669
-2.3533
-0.960262
0.363455
1.21523
1.68765
1.84786
2.06461
-3.34995
-3.40243
-3.5176
-3.70195
-3.6595
-3.7157
-4.42566
-7.02935
-8.13162
-6.45252
-5.03079
-4.08263
-2.98389
-1.72218
-0.447608
0.462819
1.03094
1.31974
1.74216
-3.47711
-3.52372
-3.61128
-3.80699
-3.82617
-3.81869
-4.26636
-5.92228
-6.62494
-6.12758
-5.28049
-4.59024
-3.71417
-2.60385
-1.41316
-0.505238
0.147244
0.421044
1.46414
-3.60524
-3.64797
-3.70881
-3.86045
-3.93822
-3.97696
-4.1773
-5.03113
-5.7311
-5.82489
-5.54847
-5.18746
-4.54327
-3.60109
-2.50731
-1.65819
-0.956103
-0.896552
1.42201
-3.73505
-3.77896
-3.83088
-3.93333
-4.01459
-4.06298
-4.17006
-4.60484
-5.23076
-5.69042
-5.89661
-5.8642
-5.45084
-4.6902
-3.70823
-2.93278
-2.16595
-2.73788
1.78327
-3.86572
-3.91388
-3.97066
-4.06068
-4.15712
-4.22182
-4.30544
-4.58782
-5.1302
-5.77489
-6.33453
-6.63264
-6.46985
-5.8686
-4.96729
-4.23639
-3.24642
-3.73199
5.42794
-3.99677
-4.0456
-4.11318
-4.20635
-4.31305
-4.40967
-4.52083
-4.76834
-5.26531
-6.01208
-6.83201
-7.47099
-7.62834
-7.17472
-6.27414
-5.54227
-4.49141
-4.57218
10.0448
-4.12821
-4.18098
-4.25556
-4.35981
-4.4893
-4.63161
-4.80147
-5.08128
-5.56855
-6.36231
-7.35706
-8.28313
-8.78665
-8.54911
-7.59014
-6.82939
-5.91508
-6.02042
13.2465
-4.25885
-4.31567
-4.39796
-4.51567
-4.6712
-4.86473
-5.10751
-5.44561
-5.9487
-6.76651
-7.89637
-9.02056
-9.77584
-9.69866
-8.8346
-8.04332
-7.23425
-7.89107
15.2654
-4.38757
-4.44752
-4.53541
-4.66356
-4.8418
-5.08168
-5.39146
-5.78871
-6.32761
-7.16958
-8.421
-9.72073
-10.6079
-10.7089
-10.0014
-9.16146
-8.26889
-9.39746
16.7184
-4.51366
-4.57497
-4.66482
-4.7971
-4.98767
-5.25721
-5.6132
-6.05666
-6.63979
-7.50727
-8.86281
-10.3936
-11.3932
-11.611
-10.9949
-10.1811
-8.96222
-10.3584
17.9356
-4.63698
-4.69774
-4.78578
-4.91488
-5.104
-5.38046
-5.75592
-6.22677
-6.84851
-7.72597
-9.16581
-10.921
-12.0102
-12.3082
-11.7775
-11.1154
-9.39168
-10.6576
18.838
-4.75795
-4.81677
-4.90035
-5.02088
-5.19726
-5.46102
-5.83286
-6.31224
-6.95657
-7.81876
-9.29977
-11.1271
-12.3078
-12.7963
-12.4047
-11.7133
-9.4818
-9.65577
19.6541
-4.87732
-4.93366
-5.01207
-5.12248
-5.28182
-5.52319
-5.87688
-6.34859
-6.99602
-7.83061
-9.30837
-11.0197
-12.3488
-13.0766
-12.8344
-11.9121
-8.66521
-7.56328
17.4201
-4.99583
-5.0499
-5.1241
-5.22642
-5.3714
-5.59075
-5.92014
-6.37137
-7.00213
-7.8042
-9.24724
-10.8573
-12.242
-13.0562
-12.8889
-11.7242
-7.19885
-2.65714
10.843
-5.11404
-5.16642
-5.23796
-5.33553
-5.47175
-5.67473
-5.97981
-6.40217
-6.99788
-7.75027
-9.08994
-10.6219
-11.9767
-12.7789
-12.669
-11.1538
-5.20054
2.93863
7.20988
-5.23251
-5.2839
-5.35409
-5.44968
-5.58192
-5.77466
-6.05851
-6.44829
-6.99387
-7.67131
-8.83697
-10.191
-11.4556
-12.1977
-12.2849
-10.6068
-2.55589
3.56184
5.31839
-5.35159
-5.40266
-5.47243
-5.56756
-5.69835
-5.88456
-6.14998
-6.50582
-6.98879
-7.56682
-8.50972
-9.57311
-10.6066
-11.3067
-11.3854
-9.41854
-1.05548
3.02598
4.10943
-5.47057
-5.5217
-5.59145
-5.68645
-5.81615
-5.99654
-6.24434
-6.56517
-6.97594
-7.43299
-8.11657
-8.75175
-9.48767
-10.2796
-10.2713
-8.0786
-1.51583
1.50263
2.61165
-5.5885
-5.63979
-5.7096
-5.80429
-5.93249
-6.10669
-6.33756
-6.62475
-6.96378
-7.29343
-7.71517
-7.78992
-8.13076
-8.83784
-9.75399
-8.21197
-3.84344
-1.20709
0.201907
-5.70661
-5.75823
-5.82829
-5.92292
-6.05007
-6.21928
-6.43647
-6.69623
-6.97853
-7.21056
-7.41281
-6.9771
-6.81166
-7.76048
-11.671
-9.93766
-6.9956
-5.17133
-2.91848
-5.82624
-5.87845
-5.94919
-6.04444
-6.17189
-6.33914
-6.54782
-6.78772
-7.03144
-7.20747
-7.2875
-6.80533
-6.18534
-8.60797
-15.3941
-13.3338
-9.46994
-8.78296
-6.35231
)
;

boundaryField
{
    leftWall
    {
        type            calculated;
        value           nonuniform List<scalar> 
50
(
1425.63
1248.95
1074.77
903.881
736.94
574.189
416.984
267.297
167.017
90.8793
41.478
4.3943
-1.56496
-1.65905
-1.7478
-1.86595
-1.97867
-2.08063
-2.18363
-2.29335
-2.40808
-2.52532
-2.6425
-2.75749
-2.86992
-2.98089
-3.09125
-3.20008
-3.30653
-3.41026
-3.51173
-3.61213
-3.71275
-3.81464
-3.91846
-4.02468
-4.13366
-4.24554
-4.36011
-4.47689
-4.59531
-4.71484
-4.835
-4.9554
-5.07576
-5.19598
-5.31595
-5.43548
-5.55462
-5.67393
)
;
    }
    rightWall
    {
        type            calculated;
        value           nonuniform List<scalar> 
50
(
324.319
264.854
191.31
105.485
61.9077
51.4443
51.7298
54.1418
52.3378
44.2577
34.6173
30.1179
23.0549
18.2519
16.3227
15.8264
15.582
15.236
14.8551
14.036
12.2932
8.26607
3.58978
0.953539
1.86504
2.27558
2.38137
2.29148
2.06461
1.74216
1.46414
1.42201
1.78327
5.42794
10.0448
13.2465
15.2654
16.7184
17.9356
18.838
19.6541
17.4201
10.843
7.20988
5.31839
4.10943
2.61165
0.201907
-2.91848
-6.35231
)
;
    }
    lowerWall
    {
        type            calculated;
        value           nonuniform List<scalar> 
62
(
1515.15
1514.37
1512.98
1510.84
1508.16
1505
1501.42
1497.46
1493.2
1488.72
1484.11
1479.44
1474.77
1470.19
1465.81
1461.66
1457.85
1454.05
1451.23
1448.62
1447.1
1446.22
1441.27
1355.88
1167.66
985.507
812.681
628.289
428.7
244.568
47.4823
24.195
26.5646
27.3343
26.5521
156.114
91.4348
49.0793
21.3471
23.8394
23.5115
27.6526
1.32948
193.548
179.467
120.961
56.9402
82.0499
173.111
203.015
145.077
119.684
183.311
223.125
233.596
260.002
265.246
247.84
234.535
275.59
333.69
361.445
)
;
    }
    atmosphere
    {
        type            calculated;
        value           nonuniform List<scalar> 
46
(
-5.73391
-5.73513
-5.73528
-5.7358
-5.73639
-5.73709
-5.73791
-5.73886
-5.73994
-5.74119
-5.74262
-5.74426
-5.74613
-5.74829
-5.75077
-5.75364
-5.75697
-5.76084
-5.76536
-5.77064
-5.77684
-5.78413
-5.79272
-5.80362
-5.81774
-5.83489
-5.85575
-5.8881
-5.94086
-6.01239
-6.10856
-6.23749
-6.40651
-6.61477
-6.84928
-7.08189
-7.24194
-7.31335
-6.93756
-6.48476
-11.3298
-22.4426
-15.2444
-8.32702
-9.10474
-7.62922
)
;
    }
    defaultFaces
    {
        type            empty;
    }
}


// ************************************************************************* //
