/*--------------------------------*- C++ -*----------------------------------*\
| =========                 |                                                 |
| \\      /  F ield         | OpenFOAM: The Open Source CFD Toolbox           |
|  \\    /   O peration     | Version:  2206                                  |
|   \\  /    A nd           | Website:  www.openfoam.com                      |
|    \\/     M anipulation  |                                                 |
\*---------------------------------------------------------------------------*/
FoamFile
{
    version     2.0;
    format      ascii;
    arch        "LSB;label=32;scalar=64";
    class       volScalarField;
    location    "0.175";
    object      alpha.water;
}
// * * * * * * * * * * * * * * * * * * * * * * * * * * * * * * * * * * * * * //

dimensions      [0 0 0 0 0 0 0];

internalField   nonuniform List<scalar> 
2268
(
0.999999
1
1
1
1
1
1
1
1
1
1
1
1
1
1
1
1
1
1
0.999995
0.999999
0.939459
0.699586
0.999999
1
1
1
1
1
1
0.999999
0.999999
1
1
1
1
1
1
1
1
1
1
0.999996
1
0.999999
0.796753
1
1
1
1
1
1
1
1
1
1
1
1
1
1
1
1
1
1
1
0.999999
1
1
0.853683
1
1
1
1
1
1
1
1
1
1
1
1
1
1
1
1
1
1
1
1
1
1
0.877219
1
1
1
1
1
1
1
1
1
1
1
1
1
1
1
1
1
1
1
1
1
1
0.877008
1
1
1
1
1
1
1
1
1
1
1
1
1
1
1
1
1
1
1
1
1
1
0.879462
1
1
1
1
1
1
1
1
1
1
1
1
1
1
1
1
1
1
1
0.99998
1
0.999999
0.961496
1
1
1
1
1
1
1
1
1
1
1
1
1
1
1
1
1
1
0.999998
0.999825
0.999933
0.999999
0.999992
3.48596e-20
7.2996e-21
1.37989e-21
7.94519e-23
1.41606e-24
1.99657e-26
6.94523e-28
4.09836e-29
2.07407e-30
8.41926e-32
2.87428e-33
8.39419e-35
2.06887e-36
4.20255e-38
6.82356e-40
8.41711e-42
7.15513e-44
3.22875e-46
1.57152e-46
7.24164e-19
8.26516e-19
2.58891e-19
1.78509e-20
2.86844e-22
3.56286e-24
9.47954e-26
4.60057e-27
2.08822e-28
7.94428e-30
2.57976e-31
7.16678e-33
1.67647e-34
3.20889e-36
4.80765e-38
5.23698e-40
3.67156e-42
1.07408e-44
1.65079e-46
3.69838e-17
7.34919e-17
2.39371e-17
1.51062e-18
2.34787e-20
3.25791e-22
7.55841e-24
2.56288e-25
9.21291e-27
3.07194e-28
9.13874e-30
2.36043e-31
5.13681e-33
9.03383e-35
1.23146e-36
1.17528e-38
7.82912e-41
2.7869e-43
6.37915e-45
2.53073e-15
8.13873e-15
2.05509e-15
9.26837e-17
1.349e-18
2.21971e-20
4.81593e-22
1.19222e-23
3.2483e-25
8.96019e-27
2.33329e-28
5.43536e-30
1.08107e-31
1.75689e-33
2.34593e-35
2.48705e-37
1.78333e-39
5.42727e-42
2.28062e-43
1.314e-13
4.48505e-13
1.06873e-13
4.3309e-15
6.09054e-17
1.07761e-18
2.13837e-20
4.27657e-22
9.17646e-24
2.04998e-25
4.52752e-27
9.38034e-29
1.7523e-30
2.94618e-32
4.17692e-34
4.4864e-36
3.15089e-38
6.81827e-41
5.79831e-42
1.97339e-12
8.61617e-12
1.38138e-12
8.4181e-14
1.48469e-15
2.49832e-17
5.13209e-19
1.04075e-20
2.0564e-22
3.97176e-24
7.54812e-26
1.41949e-27
2.5984e-29
4.33085e-31
6.0118e-33
6.32758e-35
4.35678e-37
1.16444e-39
1.1476e-40
1.42633e-11
2.50915e-11
8.52368e-12
4.72416e-13
1.24744e-14
1.97566e-16
4.97182e-18
1.38274e-19
3.49228e-21
8.01869e-23
1.6803e-24
3.21532e-26
5.42421e-28
7.78209e-30
9.19184e-32
8.33351e-34
4.9473e-36
1.30083e-38
1.66063e-39
2.10264e-11
2.42415e-11
9.82065e-12
8.23609e-13
3.26231e-14
5.83205e-16
1.98606e-17
8.8057e-19
2.94315e-20
8.94145e-22
2.42184e-23
5.68384e-25
1.09725e-26
1.65815e-28
1.87843e-30
1.44765e-32
5.70656e-35
6.97966e-38
1.40274e-38
1
1
1
1
1
1
1
1
1
1
1
1
1
1
1
0.999999
0.999999
0.999999
0.999999
0.999984
0.999986
0.999992
0.999986
1
1
1
1
1
1
1
1
1
1
1
1
1
1
0.999999
0.999994
0.999972
0.99995
0.994053
0.983123
0.958138
0.999986
0.998299
1
1
1
1
1
1
1
1
1
1
1
1
1
0.999998
0.99998
0.999871
0.999347
0.965513
0.780631
0.431497
0.216712
0.273332
0.832672
1
1
1
1
1
1
1
1
1
1
1
0.999999
0.999998
0.999973
0.999758
0.998265
0.884895
0.414662
0.0180899
0.00293982
0.00520981
0.0112087
0.682622
1
1
1
1
1
1
1
1
1
0.999999
0.999998
0.999995
0.999973
0.999779
0.997805
0.83534
0.212845
0.00446718
0.000679345
0.000255907
0.000940417
0.00272213
0.118039
1
1
1
1
1
1
1
0.999999
0.999998
0.999995
0.999985
0.999953
0.999781
0.99838
0.850343
0.186583
0.00303813
0.000360712
2.66562e-05
2.16087e-05
0.000161352
0.000643965
0.00272153
1
0.999999
0.999999
0.999999
0.999999
0.999998
0.999996
0.999992
0.999982
0.999957
0.999876
0.999658
0.998382
0.917295
0.1905
0.00236009
0.000256011
1.30113e-05
1.34594e-06
3.64715e-06
2.25067e-05
0.00014021
0.000654008
0.999997
0.999991
0.999992
0.999991
0.999988
0.99998
0.999964
0.999931
0.999863
0.999663
0.999129
0.997667
0.984165
0.244371
0.00235741
0.000246771
1.37621e-05
5.64272e-07
2.82353e-07
1.36467e-06
4.5124e-06
2.39083e-05
0.000141216
0.999971
0.999927
0.999934
0.999923
0.999894
0.999833
0.999711
0.999473
0.999002
0.997665
0.994256
0.931408
0.491032
0.0123522
0.000285065
1.57241e-05
4.15979e-07
8.65596e-08
6.64025e-08
3.43153e-07
1.27169e-06
1.60461e-05
3.78639e-05
0.999714
0.999429
0.99946
0.999367
0.999144
0.998694
0.997819
0.996189
0.978876
0.876732
0.636001
0.289476
0.000355786
0.000985847
0.000188159
1.86309e-06
8.26391e-08
5.12573e-08
3.29537e-08
6.57614e-08
2.86728e-07
1.19327e-05
0.000428402
0.997402
0.992478
0.991884
0.983826
0.96305
0.917681
0.831218
0.685155
0.457059
0.202593
0.0214932
1.47371e-05
8.97965e-06
0.00301326
0.00622897
0.000626366
1.26904e-07
2.88445e-08
1.61214e-08
2.56941e-08
1.90207e-07
8.94854e-06
0.000362197
0.674468
0.553693
0.540012
0.463854
0.363084
0.251178
0.141155
0.046055
1.03671e-08
4.63555e-08
1.16329e-06
5.70412e-06
8.77725e-06
0.0043102
0.00807017
0.00271634
2.01794e-06
-1.83699e-08
7.41446e-09
1.46071e-08
1.51034e-07
2.89446e-06
0.00011643
0.0366985
0.00388073
0.000680716
3.54924e-17
3.03346e-15
1.68052e-13
6.11098e-12
2.58491e-10
5.91942e-09
1.08195e-08
5.74136e-08
1.16329e-06
5.70412e-06
0.000824539
0.00813562
0.00401665
1.80619e-06
7.26163e-09
3.16695e-09
7.21905e-09
7.62397e-08
3.18346e-06
1.70681e-05
-5.38658e-21
-3.29733e-20
2.44006e-19
3.00573e-19
3.58653e-17
3.03186e-15
1.40549e-13
-7.29911e-12
5.8127e-11
6.25334e-09
1.5527e-07
5.30168e-06
8.97965e-06
1.22263e-05
0.00762672
0.00402023
1.49278e-05
1.10579e-07
1.4709e-09
3.1676e-09
3.98221e-08
6.78283e-07
3.18102e-06
-1.77729e-20
-1.50784e-19
1.1477e-18
1.05055e-16
1.00808e-14
3.48462e-13
1.11563e-12
-6.48565e-11
-1.7393e-09
3.54327e-08
5.86786e-06
0.000251517
8.84053e-05
1.41382e-05
0.00318156
0.00347315
7.15527e-08
1.45319e-09
5.60938e-10
1.46907e-09
1.32006e-08
9.91227e-08
8.0737e-07
-5.07897e-20
-1.85138e-19
2.17725e-17
2.60553e-15
2.22666e-13
1.0318e-11
1.98417e-10
6.06944e-09
1.53034e-07
1.75949e-07
0.000219899
0.000931034
0.000828931
9.73102e-05
0.00127263
0.00207636
1.10229e-08
1.36997e-10
1.86696e-10
5.61251e-10
4.2279e-09
3.00888e-08
1.52785e-07
-1.29987e-19
2.5556e-21
8.95709e-17
8.71879e-15
5.32046e-13
1.80066e-11
5.9547e-10
1.82624e-08
3.88059e-07
2.93463e-06
0.000429145
0.000934101
0.000934101
0.000934101
0.000752275
2.62434e-05
-3.08817e-09
1.55345e-10
3.98167e-11
2.28543e-10
1.34272e-09
7.1776e-09
2.37268e-08
-2.9947e-19
3.66458e-19
1.21976e-16
1.05279e-14
3.48103e-13
1.93872e-12
4.19268e-11
1.71709e-09
4.93745e-08
9.91295e-07
0.000251658
0.000931034
0.000934101
0.000460184
1.19848e-06
4.78594e-08
2.73817e-10
1.18121e-11
1.27924e-11
1.35398e-10
4.12951e-10
1.27773e-09
3.51469e-09
-6.41383e-19
0
3.07154e-17
2.32537e-15
1.66871e-13
6.61555e-12
7.76114e-11
7.52606e-11
3.9627e-10
2.26093e-09
2.14862e-08
9.87283e-05
0.000167323
1.33967e-06
2.13844e-07
4.36123e-08
4.58037e-11
4.68042e-12
2.62766e-12
5.88171e-11
1.52353e-10
2.42859e-10
5.82209e-10
-1.35044e-18
-1.54535e-18
2.64754e-18
3.26229e-15
7.82022e-13
2.45187e-11
6.12256e-11
4.25396e-11
3.76763e-11
7.64486e-11
5.08316e-12
6.1956e-10
3.5638e-09
5.77711e-06
3.69072e-07
8.15198e-10
4.68038e-12
4.1186e-13
1.03014e-12
1.19193e-11
4.05621e-11
7.90021e-11
9.47519e-11
-2.52508e-18
-3.42235e-17
-1.00822e-18
-1.24126e-18
3.81556e-13
1.718e-11
5.43721e-11
3.24546e-11
2.96964e-11
3.58652e-11
1.88185e-10
3.27902e-10
1.21399e-09
8.77213e-09
1.00919e-09
1.00561e-10
4.12827e-13
5.57491e-14
2.95399e-13
1.72718e-12
5.66218e-12
1.62472e-11
2.67806e-11
-3.42252e-18
-8.74145e-17
-9.254e-16
-4.80231e-15
-8.77456e-15
4.12766e-16
1.06346e-13
3.02471e-12
1.7805e-11
1.78365e-10
1.87768e-09
3.98622e-09
4.06108e-09
2.16722e-09
3.7185e-12
2.42047e-12
3.29383e-14
5.06484e-15
7.23257e-14
2.12411e-13
5.99754e-13
1.8007e-12
4.34424e-12
-1.95328e-18
-4.88707e-17
-5.04105e-16
-2.46695e-15
-2.95954e-15
5.17478e-16
2.58271e-13
5.83507e-12
2.40525e-11
3.42851e-11
1.58097e-11
5.26638e-12
3.16737e-12
2.61e-12
3.27856e-12
1.00944e-13
3.49231e-15
1.69487e-15
1.18087e-14
2.36025e-14
5.24324e-14
1.58134e-13
3.62443e-13
-5.32224e-19
-1.31742e-17
-1.33351e-16
-6.18531e-16
-4.3186e-16
-1.33597e-24
1.91342e-14
1.91244e-12
1.88263e-11
4.436e-11
4.87506e-11
4.17914e-11
1.38507e-11
2.49512e-12
2.01941e-13
-4.1323e-30
0
-4.90215e-15
-4.63486e-16
1.17116e-15
3.83537e-15
1.18476e-14
2.60969e-14
0
0
-1.58889e-35
-1.72744e-31
-1.38662e-25
6.44913e-19
2.08425e-17
7.3642e-14
2.95181e-12
1.8371e-11
3.81459e-11
4.16035e-11
3.62105e-11
9.98342e-12
7.38532e-13
-1.84827e-15
-1.24739e-14
-1.46035e-14
-6.14282e-15
3.01163e-17
2.37637e-16
7.5308e-16
1.65571e-15
5.99178e-30
8.92184e-28
6.62137e-26
3.26236e-24
1.19791e-22
-1.45682e-20
7.19345e-20
8.71534e-18
3.16163e-15
8.01454e-14
4.16716e-13
7.53732e-13
4.63666e-13
1.20759e-13
1.14987e-14
-7.35345e-15
-1.11882e-14
-1.04347e-14
-4.6044e-15
1.15248e-18
1.19859e-17
4.06871e-17
9.0744e-17
5.14712e-33
8.17395e-31
5.73877e-29
2.31233e-27
5.39092e-26
-6.03966e-23
-1.56101e-22
6.8728e-20
2.73117e-17
5.54914e-16
2.78686e-15
5.98829e-15
7.69049e-15
6.99959e-15
1.12169e-15
-1.19508e-15
-3.27186e-15
-3.82313e-15
-1.84442e-15
4.35423e-20
5.11786e-19
1.87486e-18
4.30471e-18
7.06741e-36
-2.71756e-33
-5.1564e-31
-4.19798e-29
-2.20737e-27
-1.72649e-25
3.43803e-25
1.26108e-23
1.88387e-21
7.44949e-19
1.7191e-17
9.53343e-17
2.01263e-16
2.43404e-16
7.41016e-17
-2.06504e-16
-5.57837e-16
-7.98214e-16
-4.47446e-16
1.37645e-21
1.83948e-20
7.39115e-20
1.77356e-19
-1.16137e-36
-2.08083e-34
-1.81609e-32
-1.04769e-30
-4.48582e-29
-1.59906e-35
-3.00845e-33
1.87748e-27
3.01426e-24
2.63584e-21
9.09113e-20
4.94619e-19
7.37069e-19
-5.18118e-19
-5.88793e-18
-2.00398e-17
-5.00558e-17
-9.61614e-17
-6.82384e-17
3.59012e-23
5.54136e-22
2.49833e-21
6.36246e-21
-4.62436e-38
-4.97675e-36
-2.89617e-34
-1.35161e-32
-5.14917e-31
-1.7033e-29
-5.01412e-28
-1.32586e-26
-5.06369e-25
-1.41608e-23
-2.11902e-22
-1.9278e-21
-1.19289e-20
-5.60018e-20
-2.17956e-19
-7.48802e-19
-2.34038e-18
-6.50519e-18
-6.60789e-18
7.67495e-25
1.39884e-23
7.25101e-23
1.99166e-22
-1.54268e-37
-1.77599e-35
-9.9178e-34
-3.57145e-32
-9.3019e-31
-1.8626e-29
-2.97623e-28
-3.88988e-27
-4.23165e-26
-3.88316e-25
-3.04106e-24
-2.05771e-23
-1.22173e-22
-6.49532e-22
-3.16652e-21
-1.44388e-20
-6.15785e-20
-2.34098e-19
-4.0276e-19
1.33669e-26
2.95394e-25
1.80957e-24
5.45217e-24
-2.4432e-40
-2.99509e-38
-1.7826e-36
-6.85961e-35
-1.91682e-33
-4.14148e-32
-7.19508e-31
-1.0326e-29
-1.24909e-28
-1.29467e-27
-1.16717e-26
-9.29451e-26
-6.65328e-25
-4.36844e-24
-2.68633e-23
-1.56958e-22
-8.6536e-22
-4.25255e-21
-1.49848e-20
1.87559e-28
5.18711e-27
3.88799e-26
1.30791e-25
-9.8146e-43
-1.13468e-40
-6.39286e-39
-2.34341e-37
-6.29263e-36
-1.32148e-34
-2.26367e-33
-3.25938e-32
-4.03773e-31
-4.38799e-30
-4.25701e-29
-3.74935e-28
-3.04952e-27
-2.33109e-26
-1.70338e-25
-1.20523e-24
-8.27505e-24
-5.41281e-23
-3.18355e-22
2.07612e-30
7.50817e-29
7.20091e-28
2.7546e-27
-1.63973e-46
-2.19454e-44
-1.42741e-42
-6.03168e-41
-1.86573e-39
-4.51518e-38
-8.93216e-37
-1.49281e-35
-2.16761e-34
-2.80867e-33
-3.33839e-32
-3.74453e-31
-4.06686e-30
-4.35038e-29
-4.59852e-28
-4.75146e-27
-4.6933e-26
-4.278e-25
-3.3663e-24
1.77502e-32
8.88504e-31
1.15084e-29
5.10089e-29
-2.56886e-53
-6.24171e-51
-7.48205e-49
-5.92593e-47
-3.49517e-45
-1.64e-43
-6.38613e-42
-2.12574e-40
-6.18349e-39
-1.59897e-37
-3.72596e-36
-7.90897e-35
-1.54195e-33
-2.77642e-32
-4.62637e-31
-7.11096e-30
-9.95721e-29
-1.23026e-27
-1.22957e-26
1.11965e-34
8.41778e-33
1.59093e-31
8.32704e-31
-1.43041e-59
-4.53905e-57
-7.12759e-55
-7.4232e-53
-5.78164e-51
-3.59881e-49
-1.8679e-47
-8.32711e-46
-3.2589e-44
-1.1384e-42
-3.59475e-41
-1.03561e-39
-2.7375e-38
-6.64913e-37
-1.47697e-35
-2.95596e-34
-5.14892e-33
-7.1981e-32
-6.35897e-31
4.58565e-37
6.36336e-35
1.9063e-33
1.19627e-32
0
0
0
0
-5.34867e-71
-2.55848e-68
-5.93858e-66
-9.16018e-64
-1.06022e-61
-9.8504e-60
1.679e-51
1.99517e-49
1.50213e-47
1.08717e-45
4.84171e-43
7.32672e-41
1.49638e-39
5.97922e-39
8.71439e-39
7.69437e-39
4.30277e-37
1.9834e-35
1.52182e-34
2.47442e-80
1.92951e-77
7.31118e-75
1.83941e-72
3.48735e-70
5.34648e-68
6.94062e-66
7.88658e-64
8.04582e-62
7.52118e-60
6.55734e-58
5.40915e-56
4.27539e-54
3.2781e-52
3.73613e-48
4.70423e-45
5.0928e-43
8.15506e-42
3.02925e-41
3.05297e-41
2.20981e-39
1.80454e-37
1.72659e-36
7.94467e-86
9.40797e-83
2.48069e-80
-1.95857e-78
-2.5619e-75
-7.61731e-73
-1.39149e-70
-1.7779e-68
-1.53165e-66
-4.78177e-65
1.41199e-62
3.86505e-60
6.74931e-58
9.02373e-56
1.75539e-53
8.85866e-50
9.9877e-47
9.64477e-45
1.10615e-43
1.07798e-43
6.40962e-42
1.44172e-39
1.75744e-38
2.36444e-93
-5.62266e-86
-6.34699e-83
-3.37128e-80
-1.17886e-77
-3.08288e-75
-6.46363e-73
-1.13597e-70
-1.72684e-68
-2.32614e-66
-2.73532e-64
-2.43553e-62
-1.7639e-60
-1.02512e-58
7.0937e-58
1.15604e-54
3.80242e-50
1.38404e-47
3.42759e-46
3.5005e-46
1.82257e-44
1.01049e-41
1.6281e-40
-2.31016e-94
-5.53136e-91
-5.43176e-88
-3.39839e-85
-1.57224e-82
-5.80109e-80
-1.7883e-77
-4.75429e-75
-1.11598e-72
-2.35566e-70
-3.70321e-68
-4.69673e-66
-4.90294e-64
-1.40958e-62
3.89233e-63
2.81666e-60
4.14557e-56
1.67535e-51
2.63345e-49
4.6354e-49
8.03202e-47
6.14784e-44
1.42007e-42
0
0
0
0
-1.38764e-102
-3.14732e-98
-1.23417e-94
-2.44704e-91
-3.31303e-88
-3.34903e-85
-2.07201e-82
-8.68805e-80
-4.0642e-77
-2.70792e-74
-7.94957e-72
-4.76238e-70
-1.80843e-68
2.33577e-59
1.01513e-54
3.10525e-52
1.65774e-49
1.62237e-46
1.25213e-44
0.368286
6.3633e-07
2.08858e-11
1.92335e-11
0.522594
0.00399004
2.04294e-09
1.72073e-09
0.822909
0.0639506
-2.00912e-07
2.04292e-09
0.724594
0.208732
1.18384e-06
8.35833e-08
0.686669
0.201151
1.43838e-05
1.17907e-05
0.623233
0.314288
0.00257664
2.68384e-05
0.451459
0.441805
0.0140216
0.000385551
0.105324
0.380627
0.208956
0.0121605
0.000537693
0.191977
0.208008
0.0533844
0.000523193
0.0234514
0.0742281
0.0518028
0.000569217
0.00252972
0.00613021
0.00734668
0.00051706
0.000987061
0.00179839
0.000657863
0.000224712
0.000301301
0.000443824
0.00014289
2.79599e-05
7.45344e-05
9.19954e-05
2.69959e-05
3.09211e-06
1.54186e-05
1.62823e-05
4.26171e-06
5.5722e-07
2.50817e-06
2.50743e-06
5.98943e-07
8.88798e-08
3.61269e-07
3.40848e-07
7.42584e-08
1.19691e-08
4.63528e-08
4.12878e-08
8.18096e-09
1.57807e-09
5.31728e-09
4.47957e-09
8.13895e-10
2.30131e-10
5.49639e-10
4.37926e-10
8.02152e-11
4.2921e-11
6.58063e-11
4.49356e-11
8.09248e-12
8.42156e-12
7.11786e-12
4.23335e-12
1.09163e-12
8.68113e-13
1.1136e-12
5.55017e-13
8.88854e-14
5.84935e-14
8.95246e-14
4.10179e-14
5.21334e-15
3.58245e-15
4.97158e-15
2.22073e-15
2.85321e-16
1.94467e-16
2.60784e-16
1.13801e-16
1.43983e-17
9.31563e-18
1.22933e-17
5.31495e-18
6.67564e-19
3.94957e-19
5.19387e-19
2.26175e-19
2.8504e-20
1.48756e-20
1.97193e-20
8.79821e-21
1.12447e-21
4.99625e-22
6.74902e-22
3.1409e-22
4.11384e-23
1.50186e-23
2.08997e-23
1.03356e-23
1.40163e-24
4.05554e-25
5.88021e-25
3.15022e-25
4.46813e-26
9.87746e-27
1.51e-26
8.9394e-27
1.33932e-27
2.17961e-28
3.55616e-28
2.37466e-28
3.79474e-29
4.37681e-30
7.72092e-30
5.93866e-30
1.02179e-30
7.85086e-32
1.59356e-31
1.38548e-31
2.62929e-32
1.27688e-33
3.11517e-33
3.05158e-33
6.5023e-34
1.91472e-35
5.73911e-35
6.44124e-35
1.55446e-35
2.64448e-37
1.0073e-36
1.31237e-36
3.61432e-37
3.35503e-39
1.70302e-38
2.59924e-38
8.22713e-39
3.96873e-41
2.70632e-40
4.31125e-40
1.62722e-40
4.50528e-43
8.83512e-42
8.62833e-41
2.23363e-41
1.66431e-11
9.61248e-12
3.19877e-12
1.88145e-13
4.24194e-14
2.02595e-15
8.8563e-17
3.8464e-18
1.5347e-19
5.14726e-21
1.49285e-22
3.7717e-24
8.11839e-26
1.43463e-27
1.9804e-29
1.95494e-31
1.13843e-33
2.94726e-36
3.85014e-37
-4.84429e-12
-3.41567e-11
-2.80632e-12
8.34743e-13
1.09557e-13
4.14345e-15
1.82814e-16
4.67322e-18
2.45912e-19
9.25351e-21
2.74215e-22
7.02339e-24
1.54923e-25
2.87896e-27
4.32684e-29
4.9146e-31
3.78669e-33
1.65323e-35
1.77696e-36
2.16045e-10
-2.55862e-09
-7.61742e-10
-7.08692e-12
1.49964e-12
7.32486e-14
4.7492e-15
2.65402e-16
4.74867e-18
7.54627e-20
1.05338e-21
1.46467e-23
2.21698e-25
3.47554e-27
5.00238e-29
5.95692e-31
5.32101e-33
3.02716e-35
1.34701e-36
2.36411e-07
1.05922e-07
5.82514e-09
-4.36353e-10
1.85512e-11
-5.06355e-13
1.11794e-13
2.00494e-14
2.74542e-16
3.68047e-18
4.30199e-20
4.31841e-22
3.73891e-24
2.86064e-26
2.01219e-28
1.33147e-30
8.01951e-33
3.71823e-35
1.34701e-36
9.32809e-05
3.0703e-06
1.66976e-07
8.09668e-09
1.27876e-10
1.11843e-11
1.26233e-12
5.98858e-13
1.20053e-14
1.56128e-16
1.94062e-18
2.07401e-20
1.87282e-22
1.4402e-24
9.40825e-27
5.10987e-29
2.2246e-31
7.10219e-34
1.8059e-36
0.000504529
0.000105463
7.79661e-06
4.64491e-07
1.9816e-08
6.62938e-10
2.86039e-11
6.42875e-12
2.90348e-13
5.02333e-15
7.29004e-17
9.05806e-19
9.28793e-21
7.90607e-23
5.50555e-25
3.09065e-27
1.34836e-29
4.1641e-32
7.28183e-35
0.000458367
0.000370766
6.00086e-05
5.07267e-06
2.77275e-07
9.84048e-09
2.43119e-10
2.46299e-11
2.32124e-12
8.41779e-14
1.48372e-15
2.20699e-17
2.72945e-19
2.72383e-21
2.19024e-23
1.37513e-25
6.4949e-28
2.06919e-30
3.46489e-33
0.000556492
0.000285086
8.00761e-05
9.04884e-06
4.94303e-07
1.65193e-08
6.39987e-10
3.85961e-11
6.27838e-12
5.20426e-13
1.44327e-14
2.5919e-16
3.91769e-18
4.7751e-20
4.68501e-22
3.57093e-24
1.99741e-26
7.49512e-29
1.31602e-31
0.00207118
0.000425686
6.91949e-05
8.16032e-06
7.4532e-07
5.32307e-08
3.07026e-09
1.56305e-10
8.23331e-12
1.00178e-12
5.13379e-14
1.20781e-15
2.196e-17
3.22091e-19
3.78404e-21
3.41479e-23
2.2285e-25
9.70637e-28
2.37141e-30
0.00548865
0.000499789
8.87082e-05
1.20307e-05
1.2605e-06
1.03793e-07
6.80852e-09
3.59886e-10
1.76027e-11
7.24141e-13
5.21133e-14
1.5138e-15
2.91513e-17
4.83361e-19
6.33339e-21
6.44234e-23
4.87482e-25
2.41078e-27
2.40964e-29
0.00260128
0.000184638
3.3809e-05
4.87007e-06
5.56709e-07
5.09629e-08
3.76526e-09
2.26159e-10
1.22621e-11
5.49852e-13
3.41964e-14
1.10349e-15
2.41276e-17
4.18696e-19
5.67044e-21
5.67359e-23
3.82783e-25
1.33273e-27
1.64364e-28
0.00028643
5.57629e-05
7.53847e-06
1.05894e-06
1.21901e-07
1.15147e-08
8.941e-10
5.72816e-11
3.54925e-12
2.18074e-13
1.07508e-14
3.20482e-16
7.39688e-18
1.37534e-19
1.96545e-21
2.03546e-23
1.3537e-25
3.77713e-28
7.06589e-29
4.14895e-05
1.02833e-05
1.39394e-06
1.7921e-07
1.95612e-08
1.80142e-09
1.39444e-10
1.00508e-11
7.9031e-13
5.64091e-14
2.21562e-15
6.52853e-17
1.60788e-18
3.16966e-20
4.83126e-22
5.37353e-24
3.89179e-26
1.2062e-28
1.08203e-29
7.21463e-06
1.65855e-06
2.46455e-07
2.99966e-08
3.0602e-09
2.63022e-10
2.26698e-11
2.01304e-12
1.88849e-13
9.19687e-15
3.26901e-16
1.00482e-17
2.54884e-19
5.22453e-21
8.38796e-23
1.00317e-24
8.16674e-27
3.60268e-29
1.24217e-30
1.09091e-06
2.22146e-07
3.66482e-08
4.42233e-09
4.38599e-10
4.33217e-11
4.56569e-12
5.14797e-13
2.99028e-14
1.23688e-15
4.48182e-17
1.36454e-18
3.44416e-20
7.0841e-22
1.15605e-23
1.42968e-25
1.23928e-27
6.34701e-30
1.36189e-31
1.4473e-07
2.79732e-08
4.43146e-09
5.82099e-10
6.60341e-11
8.43843e-12
1.04997e-12
7.15503e-14
3.4772e-15
1.48652e-16
5.39826e-18
1.65132e-19
4.20834e-21
8.78494e-23
1.46312e-24
1.86452e-26
1.69462e-28
9.5123e-31
1.25437e-32
1.698e-08
3.13674e-09
4.77377e-10
7.32222e-11
1.14137e-11
1.57344e-12
1.24496e-13
7.06606e-15
3.53855e-16
1.51281e-17
5.49544e-19
1.68598e-20
4.32409e-22
9.12183e-24
1.5439e-25
2.01634e-27
1.90367e-29
1.14268e-31
9.81405e-34
1.77611e-09
3.20348e-10
5.57831e-11
1.11585e-11
1.77873e-12
1.61681e-13
1.06981e-14
6.22352e-16
3.09511e-17
1.31357e-18
4.74576e-20
1.45145e-21
3.72124e-23
7.87473e-25
1.34295e-26
1.77767e-28
1.71549e-30
1.06919e-32
6.66284e-35
1.67e-10
3.57399e-11
8.42567e-12
1.52908e-12
1.608e-13
1.24336e-14
8.37666e-16
4.81736e-17
2.36717e-18
9.94334e-20
3.56264e-21
1.08292e-22
2.76622e-24
5.84936e-26
1.00038e-27
1.33406e-29
1.305e-31
8.32862e-34
4.00869e-36
1.74424e-11
5.31434e-12
1.04234e-12
1.24605e-13
1.12817e-14
8.80922e-16
5.84716e-17
3.31168e-18
1.6053e-19
6.66401e-21
2.36414e-22
7.12969e-24
1.81098e-25
3.81784e-27
6.52975e-29
8.7413e-31
8.62512e-33
5.59229e-35
2.17334e-37
2.44049e-12
5.61204e-13
7.64387e-14
8.09205e-15
7.33735e-16
5.62501e-17
3.66703e-18
2.04362e-19
9.76537e-21
4.00346e-22
1.40521e-23
4.20108e-25
1.06008e-26
2.22532e-28
3.80019e-30
5.09579e-32
5.0561e-34
3.31393e-36
1.07583e-38
2.30019e-13
3.67934e-14
4.60524e-15
4.87492e-16
4.33095e-17
3.25487e-18
2.08418e-19
1.14301e-20
5.38465e-22
2.17993e-23
7.56924e-25
2.24284e-26
5.62019e-28
1.17419e-29
2.00045e-31
2.68369e-33
2.67264e-35
1.76523e-37
5.42864e-40
1.4188e-14
2.07996e-15
2.58367e-16
2.6774e-17
2.33018e-18
1.71842e-19
1.08178e-20
5.84265e-22
2.71524e-23
1.08626e-24
3.73323e-26
1.09679e-27
2.7298e-29
5.67599e-31
9.64522e-33
1.29379e-34
1.29181e-36
8.58416e-39
2.64252e-41
7.89853e-16
1.11546e-16
1.33126e-17
1.34602e-18
1.14948e-19
8.33374e-21
5.16501e-22
2.75093e-23
1.26248e-24
4.99575e-26
1.70091e-27
4.95843e-29
1.22676e-30
2.53988e-32
4.30613e-34
5.77485e-36
5.77821e-38
3.86059e-40
1.18093e-42
4.12561e-17
5.65466e-18
6.42087e-19
6.25998e-20
5.23254e-21
3.73569e-22
2.28409e-23
1.20166e-24
5.45397e-26
2.13743e-27
7.21883e-29
2.09024e-30
5.14499e-32
1.0615e-33
1.79638e-35
2.40911e-37
2.41552e-39
1.62327e-41
4.89874e-44
1.99318e-18
2.67465e-19
2.95286e-20
2.75052e-21
2.22447e-22
1.55821e-23
9.41265e-25
4.90164e-26
2.20446e-27
8.5705e-29
2.87514e-30
8.28055e-32
2.02983e-33
4.17669e-35
7.05981e-37
9.47129e-39
9.51726e-41
6.43882e-43
1.91232e-45
8.93149e-20
1.18085e-20
1.27946e-21
1.16237e-22
9.0364e-24
6.13356e-25
3.64164e-26
1.87974e-27
8.39402e-29
3.24293e-30
1.08223e-31
3.10448e-33
7.58754e-35
1.55856e-36
2.63317e-38
3.53551e-40
3.56109e-42
2.42672e-44
7.07981e-47
3.72335e-21
4.88411e-22
5.22534e-23
4.67083e-24
3.55402e-25
2.33535e-26
1.34364e-27
6.82229e-29
3.02904e-30
1.16541e-31
3.87528e-33
1.10858e-34
2.7049e-36
5.55216e-38
9.3834e-40
1.26153e-41
1.27399e-43
8.74953e-46
2.5023e-48
1.4491e-22
1.89823e-23
2.01832e-24
1.78528e-25
1.33999e-26
8.65112e-28
4.8563e-29
2.38658e-30
1.04646e-31
4.00059e-33
1.32796e-34
3.79409e-36
9.25284e-38
1.89964e-39
3.21399e-41
4.32886e-43
4.38443e-45
3.03627e-47
8.47928e-50
5.28633e-24
6.95635e-25
7.39461e-26
6.51073e-27
4.84611e-28
3.09445e-29
1.71332e-30
8.278e-32
3.53156e-33
1.32972e-34
4.3789e-36
1.25107e-37
3.05378e-39
6.27666e-41
1.06375e-42
1.4362e-44
1.45938e-46
1.01992e-48
2.77205e-51
1.81556e-25
2.41304e-26
2.57826e-27
2.2717e-28
1.68568e-29
1.06973e-30
5.87297e-32
2.80966e-33
1.18382e-34
4.37664e-36
1.4126e-37
4.01522e-39
9.77292e-41
2.01287e-42
3.41959e-44
4.62961e-46
4.72096e-48
3.33186e-50
8.77924e-53
5.89805e-27
7.95629e-28
8.58608e-29
7.60668e-30
5.65348e-31
3.582e-32
1.95851e-33
9.31394e-35
3.89737e-36
1.4286e-37
4.56592e-39
1.27767e-40
3.07498e-42
6.32069e-44
1.07246e-45
1.45621e-47
1.49066e-49
1.06304e-51
2.70426e-54
1.82114e-28
2.50443e-29
2.74146e-30
2.45235e-31
1.83316e-32
1.16436e-33
6.36532e-35
3.02048e-36
1.25923e-37
4.59485e-39
1.46125e-40
4.06417e-42
9.71025e-44
1.97624e-45
3.32506e-47
4.51578e-49
4.62909e-51
3.33e-53
8.12616e-56
5.3705e-30
7.55933e-31
8.4256e-32
7.63849e-33
5.76359e-34
3.68298e-35
2.02004e-36
9.59618e-38
3.99832e-39
1.45637e-40
4.61985e-42
1.28143e-43
3.05241e-45
6.1917e-47
1.03882e-48
1.40359e-50
1.4342e-52
1.03694e-54
2.41501e-57
1.51978e-31
2.1976e-32
2.50254e-33
2.30674e-34
1.76246e-35
1.13651e-36
6.2726e-38
2.99159e-39
1.24912e-40
4.55319e-42
1.444e-43
4.0017e-45
9.52109e-47
1.92912e-48
3.23335e-50
4.3637e-52
4.45778e-54
3.24391e-56
7.23309e-59
4.14617e-33
6.18014e-34
7.21194e-35
6.77806e-36
5.25819e-37
3.43062e-38
1.91011e-39
9.16803e-41
3.84494e-42
1.40555e-43
4.46513e-45
1.23846e-46
2.94747e-48
5.97188e-50
1.00079e-51
1.35065e-53
1.38046e-55
1.0109e-57
2.16243e-60
1.09543e-34
1.68852e-35
2.02464e-36
1.9449e-37
1.53547e-38
1.01582e-39
5.71783e-41
2.76747e-42
1.16797e-43
4.28945e-45
1.36718e-46
3.80071e-48
9.0594e-50
1.83738e-51
3.08126e-53
4.16039e-55
4.25523e-57
3.1339e-59
6.43898e-62
2.81572e-36
4.50154e-37
5.55915e-38
5.46966e-39
4.40306e-40
2.95913e-41
1.68677e-42
8.24617e-44
3.50756e-45
1.29599e-46
4.14975e-48
1.15759e-49
2.76623e-51
5.62065e-53
9.43822e-55
1.27556e-56
1.30584e-58
9.66559e-61
1.91019e-63
7.07484e-38
1.17622e-38
1.49902e-39
1.51326e-40
1.24404e-41
8.50558e-43
4.91659e-44
2.43085e-45
1.04335e-46
3.88269e-48
1.25021e-49
3.5026e-51
8.39758e-53
1.7105e-54
2.87749e-56
3.89386e-58
3.99044e-60
2.96612e-62
5.64753e-65
1.74677e-39
3.02675e-40
3.98719e-41
4.13525e-42
3.47583e-43
2.42019e-44
1.42004e-45
7.10704e-47
3.08067e-48
1.15555e-49
3.74428e-51
1.0542e-52
2.53713e-54
5.18286e-56
8.73752e-58
1.18415e-59
1.21484e-61
9.05984e-64
1.61899e-66
3.89268e-41
7.24192e-42
1.00462e-42
1.08408e-43
9.4041e-45
6.71664e-46
4.02336e-47
2.04761e-48
8.99931e-50
3.41423e-51
1.11563e-52
3.15825e-54
7.63357e-56
1.56453e-57
2.64407e-59
3.58962e-61
3.68712e-63
2.75649e-65
4.72233e-68
3.92359e-42
5.21817e-43
5.50351e-44
4.72129e-45
3.34279e-46
1.98957e-47
1.00832e-48
4.42038e-50
1.67611e-51
5.49119e-53
1.64681e-54
4.69502e-56
1.14133e-57
2.35003e-59
3.98621e-61
5.42732e-63
5.58764e-65
4.19229e-67
4.72233e-68
)
;

boundaryField
{
    leftWall
    {
        type            zeroGradient;
    }
    rightWall
    {
        type            zeroGradient;
    }
    lowerWall
    {
        type            zeroGradient;
    }
    atmosphere
    {
        type            inletOutlet;
        inletValue      uniform 0;
        value           nonuniform List<scalar> 
46
(
0
0
0
0
0
0
0
0
0
0
0
0
0
0
0
0
0
0
0
3.10525e-52
1.65774e-49
1.62237e-46
1.25213e-44
4.50528e-43
8.83512e-42
8.62833e-41
2.23363e-41
3.92359e-42
5.21817e-43
5.50351e-44
4.72129e-45
3.34279e-46
1.98957e-47
1.00832e-48
4.42038e-50
1.67611e-51
5.49119e-53
1.64681e-54
4.69502e-56
1.14133e-57
2.35003e-59
3.98621e-61
5.42732e-63
5.58764e-65
4.19229e-67
4.72233e-68
)
;
    }
    defaultFaces
    {
        type            empty;
    }
}


// ************************************************************************* //
