/*--------------------------------*- C++ -*----------------------------------*\
| =========                 |                                                 |
| \\      /  F ield         | OpenFOAM: The Open Source CFD Toolbox           |
|  \\    /   O peration     | Version:  2206                                  |
|   \\  /    A nd           | Website:  www.openfoam.com                      |
|    \\/     M anipulation  |                                                 |
\*---------------------------------------------------------------------------*/
FoamFile
{
    version     2.0;
    format      ascii;
    arch        "LSB;label=32;scalar=64";
    class       surfaceScalarField;
    location    "0.175";
    object      alphaPhi0.water;
}
// * * * * * * * * * * * * * * * * * * * * * * * * * * * * * * * * * * * * * //

dimensions      [0 3 -1 0 0 0 0];

oriented        oriented;

internalField   nonuniform List<scalar> 
4432
(
3.33025e-06
-3.33025e-06
9.76691e-06
-6.43665e-06
1.64217e-05
-6.65482e-06
2.26231e-05
-6.20138e-06
2.85581e-05
-5.93501e-06
3.44842e-05
-5.92607e-06
4.05522e-05
-6.06797e-06
4.68141e-05
-6.26189e-06
5.32586e-05
-6.44454e-06
5.98329e-05
-6.57432e-06
6.6445e-05
-6.6121e-06
7.29563e-05
-6.51133e-06
7.91638e-05
-6.20751e-06
8.47618e-05
-5.59796e-06
8.92807e-05
-4.51892e-06
9.19964e-05
-2.71571e-06
9.14813e-05
5.15109e-07
8.51903e-05
6.29102e-06
7.04948e-05
1.46955e-05
4.5085e-05
2.54093e-05
1.24283e-05
3.26567e-05
-9.8442e-06
2.51653e-05
-1.13021e-05
3.37632e-06
-6.70658e-06
9.79703e-06
-1.28573e-05
1.64518e-05
-1.33096e-05
2.26654e-05
-1.2415e-05
2.86091e-05
-1.18787e-05
3.45468e-05
-1.18637e-05
4.06319e-05
-1.21531e-05
4.69147e-05
-1.25448e-05
5.33847e-05
-1.29145e-05
5.99927e-05
-1.31823e-05
6.66498e-05
-1.32692e-05
7.32204e-05
-1.30819e-05
7.95082e-05
-1.24954e-05
8.52211e-05
-1.13109e-05
8.99279e-05
-9.2257e-06
9.30389e-05
-5.82665e-06
9.43262e-05
-7.72267e-07
9.38066e-05
6.81063e-06
9.02556e-05
1.82465e-05
7.98769e-05
3.57876e-05
5.67495e-05
5.5784e-05
2.41704e-05
5.77443e-05
1.07389e-05
3.42134e-06
-1.01279e-05
9.80883e-06
-1.92448e-05
1.64135e-05
-1.99142e-05
2.25894e-05
-1.85909e-05
2.85089e-05
-1.77982e-05
3.44363e-05
-1.77911e-05
4.05229e-05
-1.82397e-05
4.68161e-05
-1.88379e-05
5.33066e-05
-1.9405e-05
5.99508e-05
-1.98265e-05
6.6667e-05
-1.99854e-05
7.33301e-05
-1.97451e-05
7.97587e-05
-1.89239e-05
8.56789e-05
-1.7231e-05
9.06876e-05
-1.42344e-05
9.42416e-05
-9.38067e-06
9.55734e-05
-2.10406e-06
9.40747e-05
8.30935e-06
8.97927e-05
2.25284e-05
8.36104e-05
4.19697e-05
7.14561e-05
6.79383e-05
4.35851e-05
8.56153e-05
5.17585e-05
3.48218e-06
-1.36101e-05
9.83699e-06
-2.55997e-05
1.63699e-05
-2.64471e-05
2.24861e-05
-2.47071e-05
2.83727e-05
-2.36848e-05
3.42914e-05
-2.37099e-05
4.03868e-05
-2.43351e-05
4.6702e-05
-2.51532e-05
5.32309e-05
-2.59339e-05
5.99367e-05
-2.65324e-05
6.67495e-05
-2.67982e-05
7.35624e-05
-2.6558e-05
8.0214e-05
-2.55755e-05
8.64479e-05
-2.34649e-05
9.18849e-05
-1.96714e-05
9.60154e-05
-1.35112e-05
9.81305e-05
-4.21913e-06
9.73694e-05
9.07047e-06
9.28625e-05
2.70353e-05
8.48487e-05
4.99835e-05
7.34239e-05
7.9363e-05
4.87208e-05
0.000110318
9.41088e-05
3.56038e-06
-1.71705e-05
9.87821e-06
-3.19175e-05
1.63175e-05
-3.28864e-05
2.23542e-05
-3.07438e-05
2.82006e-05
-2.95312e-05
3.41127e-05
-2.96219e-05
4.02228e-05
-3.04451e-05
4.6569e-05
-3.14995e-05
5.31493e-05
-3.25141e-05
5.99363e-05
-3.33194e-05
6.68756e-05
-3.37375e-05
7.38854e-05
-3.35678e-05
8.08277e-05
-3.25177e-05
8.74636e-05
-3.01009e-05
9.34461e-05
-2.56539e-05
9.83249e-05
-1.83899e-05
0.000101459
-7.35352e-06
0.000101913
8.61677e-06
9.85331e-05
3.04152e-05
8.96864e-05
5.88302e-05
7.54463e-05
9.36031e-05
5.01262e-05
0.000135639
0.000138888
3.65962e-06
-2.08301e-05
9.92902e-06
-3.81869e-05
1.62496e-05
-3.9207e-05
2.21886e-05
-3.66828e-05
2.7988e-05
-3.53305e-05
3.38924e-05
-3.55264e-05
4.00177e-05
-3.65704e-05
4.63962e-05
-3.7878e-05
5.30316e-05
-3.91495e-05
5.99083e-05
-4.01961e-05
6.69926e-05
-4.08218e-05
7.42317e-05
-4.08068e-05
8.15133e-05
-3.97993e-05
8.86229e-05
-3.72105e-05
9.52597e-05
-3.22907e-05
0.000101046
-2.41757e-05
0.000105399
-1.17072e-05
0.000107306
6.71029e-06
0.000105515
3.22061e-05
9.75475e-05
6.67975e-05
8.11767e-05
0.000109974
5.35501e-05
0.000163265
0.000193294
3.77843e-06
-2.46086e-05
9.97879e-06
-4.43873e-05
1.61546e-05
-4.53829e-05
2.19803e-05
-4.25085e-05
2.77251e-05
-4.10754e-05
3.36166e-05
-4.14179e-05
3.97511e-05
-4.27049e-05
4.6156e-05
-4.42829e-05
5.28431e-05
-4.58366e-05
5.98117e-05
-4.71647e-05
6.70529e-05
-4.8063e-05
7.45438e-05
-4.82977e-05
8.21986e-05
-4.74541e-05
8.98441e-05
-4.4856e-05
9.7253e-05
-3.96997e-05
0.000104126
-3.10488e-05
0.000109915
-1.74962e-05
0.000113577
3.04838e-06
0.000113907
3.1876e-05
0.000107801
7.28999e-05
9.10094e-05
0.000126765
6.18819e-05
0.000192393
0.000264373
3.90744e-06
-2.8516e-05
1.00079e-05
-5.04878e-05
1.60225e-05
-5.13975e-05
2.17257e-05
-4.82116e-05
2.74077e-05
-4.67573e-05
3.32771e-05
-4.72873e-05
3.94104e-05
-4.88382e-05
4.58322e-05
-5.07047e-05
5.2564e-05
-5.25684e-05
5.96228e-05
-5.42236e-05
6.70275e-05
-5.54677e-05
7.4782e-05
-5.60522e-05
8.28292e-05
-5.55013e-05
9.10593e-05
-5.3086e-05
9.93421e-05
-4.79826e-05
0.000107449
-3.9156e-05
0.000114909
-2.4956e-05
0.000120777
-2.81983e-06
0.000123944
2.87095e-05
0.000120397
7.63968e-05
0.000105317
0.000141841
7.45419e-05
0.000223168
0.000338914
-9.61293e-26
2.74106e-25
-3.44196e-26
4.43018e-26
-2.84406e-27
6.00937e-27
-5.87881e-29
1.94122e-28
-9.52763e-31
1.10145e-30
-3.94288e-32
-2.78751e-32
-2.24448e-33
-3.16342e-33
-1.02697e-34
-2.77444e-34
-3.67031e-36
-1.64802e-35
-1.07916e-37
-7.0884e-37
-2.66077e-39
-2.41169e-38
-5.44796e-41
-6.73667e-40
-9.01582e-43
-1.56304e-41
-1.16542e-44
-2.96461e-43
-1.09738e-46
-4.5008e-45
-6.71055e-49
-5.09595e-47
-1.49387e-51
-3.66355e-49
-2.1726e-52
-1.09933e-51
-3.13641e-52
-8.17076e-24
2.52433e-23
-7.00628e-24
2.04027e-23
-6.9238e-25
4.17372e-24
-1.23984e-26
1.47431e-25
-1.8134e-28
6.21541e-28
-5.93278e-30
-1.09333e-29
-2.62101e-31
-8.69081e-31
-1.01367e-32
-5.2607e-32
-3.27031e-34
-2.46676e-33
-8.95605e-36
-9.27161e-35
-2.08006e-37
-2.89077e-36
-4.02199e-39
-7.53034e-38
-6.26096e-41
-1.62914e-39
-7.46974e-43
-2.83257e-41
-6.26519e-45
-3.76202e-43
-3.21631e-47
-3.41013e-45
-6.21526e-50
-2.15147e-47
-2.56421e-52
-7.35597e-50
-1.10837e-51
-7.76854e-22
2.10607e-21
-6.74602e-22
2.76914e-21
-6.10293e-23
5.65247e-22
-1.04801e-24
1.75147e-23
-1.77869e-26
5.94801e-26
-5.02089e-28
-1.92773e-27
-1.58804e-29
-1.18804e-28
-4.79914e-31
-4.91132e-30
-1.3228e-32
-1.73219e-31
-3.25269e-34
-5.40646e-33
-6.94162e-36
-1.4842e-34
-1.24241e-37
-3.49732e-36
-1.77965e-39
-6.84326e-38
-1.94726e-41
-1.05321e-39
-1.46004e-43
-1.29635e-41
-7.17257e-46
-1.23148e-43
-1.61349e-48
-8.218e-46
-1.03647e-50
-2.94513e-48
-7.36532e-50
-1.01226e-19
2.09568e-19
-6.8234e-20
4.18696e-19
-4.10339e-21
6.28479e-20
-6.366e-23
1.30725e-21
-1.25173e-24
2.91149e-24
-3.02295e-26
-2.52969e-25
-7.23003e-28
-1.08693e-26
-1.72017e-29
-3.1376e-28
-3.94878e-31
-8.32396e-30
-8.44943e-33
-2.08053e-31
-1.61966e-34
-4.81238e-33
-2.64565e-36
-9.96156e-35
-3.52596e-38
-1.76925e-36
-3.78242e-40
-2.71687e-38
-3.09457e-42
-3.51915e-40
-1.61507e-44
-3.54983e-42
-3.04936e-47
-2.41187e-44
-3.58022e-49
-5.47194e-47
-3.22259e-48
-7.09798e-18
1.48558e-17
-4.20474e-18
2.8561e-17
-2.13912e-19
3.73627e-18
-3.08708e-21
6.46968e-20
-5.90281e-23
4.26418e-23
-1.20112e-24
-2.01711e-23
-2.37848e-26
-6.3222e-25
-4.7223e-28
-1.39655e-26
-9.19737e-30
-2.89836e-28
-1.70853e-31
-5.77305e-30
-2.93215e-33
-1.10309e-31
-4.48393e-35
-2.01006e-33
-6.04093e-37
-3.42129e-35
-6.71102e-39
-5.31795e-37
-5.49517e-41
-7.03934e-39
-2.78113e-43
-7.22309e-41
-3.86161e-46
-4.98275e-43
-8.74902e-48
-1.20806e-45
-9.95508e-47
-1.70695e-16
2.85377e-16
-6.69595e-17
3.23094e-16
-4.65452e-18
4.92964e-17
-8.23925e-20
1.07928e-18
-1.34604e-21
-6.05098e-21
-2.64388e-23
-5.35096e-22
-5.21034e-25
-1.62524e-23
-9.82241e-27
-3.99097e-25
-1.7627e-28
-8.86123e-27
-3.00411e-30
-1.72572e-28
-4.83895e-32
-3.07289e-30
-7.19815e-34
-5.10673e-32
-9.37704e-36
-7.79318e-34
-9.95749e-38
-1.05907e-35
-7.7732e-40
-1.22958e-37
-3.76355e-42
-1.13338e-39
-6.12354e-45
-7.41237e-42
-1.63424e-46
-2.42045e-44
-2.34995e-45
-7.00089e-16
1.93474e-15
-2.64808e-16
1.03443e-15
-2.98152e-17
1.93136e-16
-7.56053e-19
3.47656e-18
-1.11516e-20
-8.84855e-20
-2.57314e-22
-2.8783e-21
-6.64234e-24
-1.134e-22
-1.51246e-25
-4.67115e-24
-3.0937e-27
-1.48194e-25
-5.71624e-29
-4.21395e-27
-9.49212e-31
-1.03041e-28
-1.3596e-32
-2.12962e-30
-1.61344e-34
-3.51926e-32
-1.51455e-36
-4.46866e-34
-1.03747e-38
-4.25743e-36
-4.29404e-41
-2.84282e-38
-6.60693e-44
-1.07975e-40
-2.26996e-45
-1.83198e-43
-2.7627e-44
-8.12539e-16
2.84951e-15
-5.80362e-16
1.05619e-15
-5.83651e-17
1.88972e-16
-2.21775e-18
1.69412e-18
-3.74069e-20
-1.47074e-19
-1.14192e-21
-3.726e-21
-4.29924e-23
-1.50996e-22
-1.22093e-24
-2.24885e-23
-3.11377e-26
-7.65795e-25
-7.05614e-28
-2.45416e-26
-1.38961e-29
-7.99349e-28
-2.24276e-31
-2.26442e-29
-2.80032e-33
-5.00964e-31
-2.58961e-35
-8.11424e-33
-1.59671e-37
-9.38074e-35
-4.98408e-40
-6.94462e-37
-4.73208e-43
-2.14562e-39
-2.16109e-44
5.54334e-43
-1.75339e-43
8.55146e-06
-3.70675e-05
2.13357e-05
-6.3272e-05
3.35024e-05
-6.35643e-05
4.51473e-05
-5.98565e-05
5.6991e-05
-5.86011e-05
6.93557e-05
-5.9652e-05
8.23383e-05
-6.18207e-05
9.59964e-05
-6.43628e-05
0.000110418
-6.69899e-05
0.000125705
-6.95106e-05
0.000141989
-7.17521e-05
0.000159362
-7.34253e-05
0.000177839
-7.39776e-05
0.000197459
-7.27067e-05
0.000218243
-6.87666e-05
0.000239917
-6.083e-05
0.000261605
-4.66445e-05
0.00028175
-2.29658e-05
0.000301929
8.52125e-06
0.000307903
7.04018e-05
0.000291186
0.000158552
0.000261563
0.000252789
0.000366819
0.000233652
8.9706e-06
-4.60381e-05
2.11461e-05
-7.54475e-05
3.24804e-05
-7.48986e-05
4.35162e-05
-7.08923e-05
5.49922e-05
-7.00771e-05
6.71219e-05
-7.17816e-05
7.99409e-05
-7.46397e-05
9.35228e-05
-7.79448e-05
0.000108022
-8.14896e-05
0.000123644
-8.51319e-05
0.000140632
-8.87399e-05
0.000159218
-9.20114e-05
0.000179707
-9.44668e-05
0.000202449
-9.54486e-05
0.00022772
-9.40385e-05
0.000255943
-8.90549e-05
0.000287724
-7.84371e-05
0.000322903
-5.81836e-05
0.000349025
-2.25177e-05
0.000346789
4.98428e-05
0.000313306
0.000111911
0.000313258
0.000209263
0.000383561
0.000296778
9.30512e-06
-5.53432e-05
2.0713e-05
-8.68554e-05
3.11017e-05
-8.52873e-05
4.14817e-05
-8.12723e-05
5.25121e-05
-8.11075e-05
6.42659e-05
-8.35353e-05
7.67401e-05
-8.7114e-05
9.00409e-05
-9.12456e-05
0.000104401
-9.58494e-05
0.000120114
-0.000100845
0.000137516
-0.000106141
0.000157052
-0.000111548
0.000179321
-0.000116735
0.000204556
-0.000120684
0.000232893
-0.000122377
0.00026454
-0.000120731
0.000295844
-0.000109955
0.0002883
-7.35522e-05
0.000174008
-1.1422e-05
8.53441e-05
3.83122e-06
0.000101395
1.36454e-05
0.000173222
4.50175e-05
0.000254116
0.000270007
9.49832e-06
-6.48415e-05
1.99825e-05
-9.73396e-05
2.93799e-05
-9.46847e-05
3.90705e-05
-9.09628e-05
4.95499e-05
-9.15869e-05
6.07529e-05
-9.47384e-05
7.26658e-05
-9.90268e-05
8.54364e-05
-0.000104016
9.93778e-05
-0.000109791
0.000114827
-0.000116295
0.000132236
-0.00012355
0.000152352
-0.000131665
0.000175742
-0.000140124
0.000201892
-0.00014683
0.000230083
-0.000150565
0.000251276
-0.000142227
0.000183675
-8.14783e-05
3.07711e-05
-1.92368e-05
9.61138e-06
-1.2724e-06
1.29509e-05
1.23585e-07
2.30201e-05
3.06006e-06
5.4313e-05
1.28241e-05
0.000124206
0.000185092
9.52538e-06
-7.43669e-05
1.89424e-05
-0.000106757
2.73321e-05
-0.000103074
3.62918e-05
-9.99225e-05
4.60878e-05
-0.000101383
5.65434e-05
-0.000105194
6.76557e-05
-0.000110139
7.96168e-05
-0.000115977
9.27934e-05
-0.000122967
0.000107498
-0.000130999
0.000124371
-0.000140422
0.000144224
-0.000151517
0.000167249
-0.000163144
0.000191785
-0.000171325
0.000207283
-0.000165832
0.000129758
-9.44729e-05
1.95357e-05
-1.57963e-05
2.43975e-06
-2.48016e-06
1.24279e-06
-1.61601e-07
1.33362e-06
2.05702e-08
3.87606e-06
5.08871e-07
1.35187e-05
3.13824e-06
5.45812e-05
9.90268e-05
9.37228e-06
-8.37392e-05
1.76102e-05
-0.000114995
2.50018e-05
-0.000110466
3.31811e-05
-0.000108102
4.21521e-05
-0.000110354
5.16682e-05
-0.00011471
6.17453e-05
-0.000120216
7.26019e-05
-0.000126834
8.45606e-05
-0.000134926
9.78631e-05
-0.000144301
0.000113248
-0.000155803
0.000131124
-0.000169382
0.000151737
-0.000183717
0.000167471
-0.00018677
0.000108066
-0.000107253
1.62041e-05
-1.56248e-05
2.53005e-06
-2.07236e-06
2.36853e-07
-2.05365e-07
7.24305e-08
-4.36738e-09
9.6872e-08
2.63147e-10
5.58241e-07
5.5514e-08
3.06987e-06
6.67253e-07
1.57772e-05
4.18311e-05
9.04108e-06
-9.27802e-05
1.60381e-05
-0.000121991
2.24656e-05
-0.000116893
2.98128e-05
-0.000115449
3.78285e-05
-0.000118369
4.6232e-05
-0.000123113
5.50365e-05
-0.00012902
6.44189e-05
-0.000136214
7.44946e-05
-0.000144998
8.54085e-05
-0.000155205
9.75389e-05
-0.000167906
0.000111348
-0.00018311
0.000127675
-0.000199756
9.7533e-05
-0.00013485
1.56313e-05
-1.66267e-05
2.09918e-06
-1.88368e-06
2.07214e-07
-1.72157e-07
3.5443e-09
-3.91536e-09
8.78191e-10
-1.02201e-10
3.85099e-09
-3.4238e-10
6.27405e-08
-4.49405e-11
6.51922e-07
9.8616e-08
3.09394e-06
1.33694e-05
8.56749e-06
-0.000101347
1.42989e-05
-0.000127721
1.98056e-05
-0.000122399
2.62637e-05
-0.000121905
3.31913e-05
-0.000125294
4.02818e-05
-0.000130199
4.74849e-05
-0.000136214
5.48381e-05
-0.000143553
6.21975e-05
-0.000152331
6.962e-05
-0.000162546
7.69202e-05
-0.000175007
8.66282e-05
-0.000192259
8.34159e-05
-0.000189525
1.57773e-05
-3.14818e-05
1.83259e-06
-2.47392e-06
1.72027e-07
-2.13088e-07
3.7337e-09
-6.17741e-09
-1.78365e-11
4.98508e-11
-2.70655e-11
-5.36227e-12
4.42455e-11
-1.75888e-11
2.49233e-09
-7.28854e-11
9.90961e-08
5.42518e-09
5.16327e-07
2.69689e-06
7.99699e-06
-0.000109339
1.24112e-05
-0.000132122
1.6996e-05
-0.000126972
2.24565e-05
-0.000127352
2.80936e-05
-0.00013091
3.35701e-05
-0.000135636
3.87301e-05
-0.000141305
4.34851e-05
-0.000148192
4.7734e-05
-0.000156379
5.19106e-05
-0.000166147
5.51989e-05
-0.000176969
5.43692e-05
-0.000151903
1.61299e-05
-3.73819e-05
2.17352e-06
-2.06183e-06
1.9265e-07
-4.39183e-07
6.06316e-09
-2.69263e-08
-6.34023e-11
7.98001e-11
-1.15097e-11
1.19637e-11
-2.69199e-12
8.87281e-13
5.09751e-11
8.07934e-12
2.30052e-10
1.14946e-10
7.58111e-09
2.81283e-09
8.72327e-08
4.4356e-07
7.31348e-06
-0.000116596
1.02424e-05
-0.000134945
1.37868e-05
-0.000130417
1.80311e-05
-0.000131481
2.20785e-05
-0.000134778
2.56359e-05
-0.000138877
2.87211e-05
-0.000143855
3.14416e-05
-0.000150055
3.38025e-05
-0.000145938
3.17689e-05
-0.000108691
2.28026e-05
-5.61065e-05
1.75358e-05
-6.7181e-06
1.05871e-06
-6.2607e-07
1.03918e-07
-1.04446e-06
1.06202e-08
-4.66281e-07
2.60174e-10
-1.73776e-08
-1.618e-11
3.71148e-10
-2.55528e-12
5.84612e-12
-9.75451e-13
1.65758e-12
1.28496e-11
1.29964e-11
1.1012e-10
1.24689e-10
1.10191e-09
2.25483e-09
1.03898e-07
3.42594e-09
6.51183e-06
-0.000122578
7.53297e-06
-0.000132225
9.96466e-06
-0.000128499
1.29178e-05
-0.000124568
1.5271e-05
-0.000115572
1.66997e-05
-0.000100438
1.69655e-05
-7.97618e-05
1.55598e-05
-5.51142e-05
1.14781e-05
-1.44261e-05
5.01969e-06
-1.19883e-06
7.3957e-06
-1.40633e-07
7.06473e-07
-1.68223e-08
8.29613e-08
-2.27193e-09
4.61661e-07
-1.00231e-06
2.48739e-07
-1.60116e-06
4.52503e-09
-7.65643e-08
2.42033e-11
4.76329e-09
-1.64588e-12
3.83524e-11
-3.4641e-12
1.9545e-12
-1.04834e-11
2.15872e-11
-1.01783e-10
2.53302e-10
-5.84314e-10
3.24962e-09
5.49999e-08
3.29899e-08
4.04116e-06
-4.27609e-05
3.03902e-06
-3.07306e-05
4.14795e-06
-2.7397e-05
4.77831e-06
-9.55959e-06
4.79777e-06
-2.12097e-07
4.22488e-06
-7.38332e-09
3.15943e-06
-3.7841e-10
4.492e-06
-2.89624e-11
1.3543e-06
-3.36526e-12
1.55653e-07
-1.15029e-10
1.72102e-08
-2.39809e-09
3.30638e-09
-3.77414e-09
1.36965e-09
-1.68929e-09
3.46088e-07
-4.80773e-07
5.06504e-07
-1.32199e-06
1.14775e-08
-1.96737e-07
2.76356e-10
1.55232e-08
-3.76394e-12
3.37702e-10
-5.4523e-12
1.59475e-12
-4.87425e-12
1.88045e-11
4.35319e-11
1.91753e-10
3.7815e-09
1.64645e-09
9.93635e-09
1.94498e-08
3.25301e-07
7.32971e-25
1.06352e-07
3.90271e-23
3.57634e-07
-9.1647e-23
2.19889e-07
-7.53275e-20
7.79191e-09
-6.37926e-18
4.08596e-10
-3.53432e-16
3.0197e-11
-1.28484e-14
1.59244e-12
-4.16962e-13
1.89967e-12
-2.77093e-12
1.79355e-11
-8.20606e-11
4.488e-10
-2.77074e-09
2.44876e-09
-5.98174e-09
4.50269e-09
-4.73717e-09
1.51972e-07
-1.85518e-09
4.4918e-07
-1.1821e-06
5.12846e-09
-2.12241e-07
-1.45017e-11
2.07693e-08
-2.82097e-12
3.22519e-10
-3.58063e-12
1.36728e-12
4.88014e-12
8.47482e-12
1.25349e-10
5.87742e-11
1.10202e-09
5.25751e-10
1.49155e-09
1.52783e-09
-2.96171e-26
2.51614e-24
-1.0146e-24
2.21604e-23
1.50482e-23
-3.31593e-22
2.54746e-21
-7.79512e-20
2.96052e-19
-6.68356e-18
2.15558e-17
-3.75651e-16
9.32557e-16
-1.37837e-14
1.20759e-13
-5.28047e-13
9.3387e-12
-1.19633e-11
2.10962e-10
-2.86471e-10
2.8215e-09
-5.41096e-09
8.48443e-09
-1.29556e-08
6.48173e-09
-4.3656e-09
4.52663e-09
-1.8284e-09
2.7517e-07
-9.29571e-07
5.53757e-09
-9.6383e-08
-3.80406e-10
2.10104e-08
-2.64048e-12
1.48652e-10
-2.50229e-12
6.60826e-13
2.1347e-12
2.73776e-12
3.65758e-11
1.35581e-11
1.99636e-10
4.51755e-11
3.29032e-10
2.11204e-11
-9.80072e-26
7.47046e-24
-2.00766e-24
2.86534e-23
1.15595e-22
-1.13056e-21
1.77968e-20
-1.42881e-19
1.9356e-18
-1.36655e-17
2.30195e-16
-7.55054e-16
2.47959e-14
-3.87151e-14
1.09037e-12
-1.52353e-12
3.01083e-11
-4.0381e-11
5.4475e-10
-8.07039e-10
1.06695e-08
-1.82481e-08
2.74983e-08
-1.68238e-07
1.86875e-08
-4.40752e-08
1.9385e-08
-4.54536e-09
1.17087e-07
-2.12582e-07
-1.6184e-08
3.17591e-08
-1.21265e-10
4.95248e-09
-1.02061e-12
2.7784e-11
-8.53419e-13
2.7165e-13
4.85432e-13
7.78633e-13
6.38857e-12
2.9727e-12
6.23912e-12
8.58939e-12
5.0724e-11
-4.13372e-11
-2.12016e-25
1.96619e-23
-1.42184e-24
-2.38543e-23
5.38021e-22
-9.27694e-21
7.7451e-20
-1.1139e-18
7.93881e-18
-9.2939e-17
9.37181e-16
-4.29881e-15
9.49445e-14
-1.76917e-13
3.96394e-12
-6.47836e-12
1.29043e-10
-1.7518e-10
4.04316e-09
-4.75082e-09
1.59825e-08
-9.90887e-08
1.94896e-08
-2.10807e-07
1.26791e-08
-1.3207e-07
1.70369e-08
-4.04213e-08
-4.89674e-08
-1.02391e-08
-4.41566e-09
2.78199e-08
-2.47337e-11
5.60445e-10
-4.04911e-13
3.47016e-12
-2.91191e-13
7.40056e-14
2.37926e-14
1.97896e-13
7.81637e-13
6.22537e-13
-3.02803e-12
1.60315e-12
6.27857e-12
-2.26714e-11
-2.08563e-25
4.57786e-23
5.23886e-25
-1.22303e-22
4.46387e-22
-2.95833e-20
3.79503e-20
-3.0299e-18
1.00615e-18
-2.01737e-16
4.79321e-16
-8.2308e-15
1.01465e-13
-3.7081e-13
4.24134e-12
-1.27629e-11
1.2662e-10
-3.0952e-10
1.13741e-09
-5.19894e-09
-5.57825e-08
-1.1598e-07
-7.31446e-08
-1.76244e-07
-8.20733e-08
-1.0594e-07
-7.86951e-08
-2.65984e-08
-4.8791e-08
1.63071e-08
-4.16655e-10
8.34424e-09
-2.81e-12
1.41351e-10
-1.0115e-13
6.7726e-13
-6.89621e-14
2.22349e-14
-3.90579e-14
5.96577e-14
-8.14276e-14
1.31482e-13
-1.5309e-12
1.87327e-13
6.57983e-13
-6.05682e-12
-1.9058e-24
9.72943e-23
-1.25049e-23
-3.14576e-22
-3.92141e-21
-4.50685e-20
-7.62542e-19
-3.35582e-18
-5.30794e-18
-1.66969e-16
-1.18121e-15
-6.84689e-15
-1.69511e-13
-2.08689e-13
-8.1732e-12
-5.01825e-12
-2.32287e-10
-9.1773e-11
-4.13149e-09
-1.3989e-09
-8.04771e-08
-2.34872e-08
-1.32989e-07
-1.0505e-07
-1.62525e-07
-5.92032e-08
-2.48686e-08
-5.55365e-10
-7.85723e-09
1.98211e-10
-1.2715e-10
6.55996e-10
-6.04366e-13
1.49206e-11
-3.27976e-14
7.09507e-14
-2.32657e-14
3.33574e-15
-3.71595e-14
1.99495e-14
-7.9598e-14
4.76447e-14
-4.09026e-13
3.10662e-14
1.04428e-13
-1.26823e-12
-1.23326e-23
2.00194e-22
-5.62171e-22
2.35263e-22
-8.99796e-21
-5.08564e-20
-9.26608e-19
-3.30458e-18
-4.33204e-17
-1.93509e-16
-2.79573e-15
-4.76215e-15
-1.75208e-13
-2.61837e-14
-5.11013e-12
-5.86843e-14
-9.62938e-11
-4.94417e-13
-1.4891e-09
-5.4752e-12
-2.15843e-08
-3.43499e-11
-4.44115e-08
-2.91856e-10
-1.20808e-09
-1.28594e-09
-7.47719e-10
-1.14315e-10
-5.5865e-10
3.85674e-11
-1.35919e-11
8.27993e-11
-6.86126e-14
1.40345e-12
-4.48316e-15
7.11178e-15
-4.31656e-15
6.08821e-16
-1.63036e-14
4.13555e-15
-3.3474e-14
1.30712e-14
-8.62212e-14
2.24909e-14
2.30662e-14
-2.24569e-13
7.99122e-24
3.61268e-22
-7.14791e-21
5.01167e-21
-1.71228e-20
-4.1368e-20
-1.72299e-18
-2.56836e-18
-3.23848e-16
-1.3334e-16
-2.92328e-15
-3.60978e-15
-3.93323e-15
-1.12881e-14
-3.53831e-14
-1.07881e-14
-5.27011e-13
-7.46113e-15
-5.93383e-12
-7.4929e-14
-3.97007e-11
-3.46786e-13
-3.30744e-10
-8.24216e-13
-1.61471e-09
-2.00339e-12
-1.11881e-10
-1.45531e-13
-8.34548e-11
1.92483e-12
-1.3764e-12
1.1645e-12
-7.44321e-15
3.50748e-14
-6.33543e-16
2.75089e-16
-8.57456e-16
1.07434e-16
-3.25885e-15
5.54597e-16
-9.30897e-15
1.92834e-15
-1.80008e-14
5.59272e-15
9.00035e-15
-3.25122e-14
2.18999e-22
4.67765e-22
-4.6629e-21
1.2193e-20
-1.75974e-19
1.30478e-19
-3.43212e-18
6.87531e-19
-2.39265e-16
1.27881e-18
-3.05133e-15
-3.50933e-18
-2.33683e-15
-5.78455e-17
-3.49733e-15
-6.81135e-16
-1.00532e-14
-4.59166e-15
-5.01979e-14
-3.78839e-14
-1.23321e-13
-2.68951e-13
-4.4323e-13
-5.52633e-13
-2.0216e-12
-4.47589e-13
-2.48451e-12
-2.41555e-13
-1.1913e-12
-6.36242e-15
-3.4418e-14
3.69136e-14
-3.19027e-16
1.00897e-15
-6.43875e-17
4.21673e-18
-1.41371e-16
1.45567e-17
-4.70312e-16
6.10093e-17
-1.35859e-15
1.99569e-16
-3.09592e-15
6.33631e-16
1.64284e-15
-5.01482e-15
6.26791e-22
2.52954e-22
1.3711e-20
6.4431e-21
1.11424e-19
6.68496e-20
2.87229e-19
3.29671e-19
-1.23683e-18
3.98418e-19
-2.44354e-18
-2.59008e-18
-6.37642e-17
-5.39102e-17
-6.68428e-16
-7.84817e-16
-5.37923e-15
-3.237e-15
-1.08298e-13
-4.14434e-15
-5.76231e-13
-6.35505e-15
-7.08611e-13
-5.10455e-15
-6.51128e-13
-4.32704e-15
-3.36795e-14
-5.15271e-16
-3.93876e-14
-8.51615e-17
-9.98167e-16
3.24931e-16
-7.94659e-18
1.93929e-17
-6.68414e-18
3.13337e-19
-1.99986e-17
1.99541e-18
-5.545e-17
5.63551e-18
-1.52928e-16
1.70643e-17
-3.68796e-16
5.38883e-17
1.45237e-16
-8.0585e-16
3.69803e-22
6.48969e-23
7.82615e-21
1.63204e-21
5.94087e-20
1.65427e-20
9.92307e-20
7.68139e-20
-1.27079e-18
5.35467e-20
-2.87066e-18
-1.11148e-18
-1.19838e-16
-1.90661e-17
-1.42626e-15
-4.2331e-16
-3.46402e-15
-2.48721e-15
-2.73e-15
-4.46779e-15
-1.33879e-15
-4.40739e-15
-1.02563e-15
-3.02559e-15
-4.54411e-16
-6.60403e-16
-5.5268e-16
-8.47956e-17
-3.97618e-16
-2.15538e-18
-1.97023e-17
4.40895e-18
-4.85555e-19
1.06554e-18
-9.47726e-19
2.24681e-19
-2.39009e-18
1.01686e-18
-5.37482e-18
4.09814e-19
-1.45288e-17
1.19959e-18
-3.49063e-17
3.91371e-18
1.01854e-17
-6.94014e-17
1.00952e-22
-2.566e-28
2.08548e-21
-3.56632e-26
1.48882e-20
-2.41895e-24
1.43201e-20
-1.07841e-22
-3.80236e-19
-3.52997e-21
-1.37593e-18
-1.15787e-19
-2.36949e-17
-1.69224e-18
-6.84808e-16
-3.6059e-17
-3.62658e-15
-5.94475e-16
-5.08062e-15
-2.60616e-15
-4.69056e-15
-2.90511e-15
-2.73279e-15
-2.57387e-15
-5.8196e-16
-1.64047e-15
-5.03696e-17
-2.96038e-16
-4.74272e-18
-9.66524e-18
-4.70469e-19
1.36637e-19
5.38917e-19
5.53862e-20
4.66596e-20
-1.37882e-19
-4.49409e-19
-1.74117e-20
-3.91573e-19
1.82485e-20
-1.14099e-18
7.01204e-20
-2.78767e-18
2.40289e-19
6.34509e-19
-5.47533e-18
-2.56023e-28
-5.77154e-31
-3.58362e-26
-8.30053e-29
-2.44895e-24
-5.8389e-27
-1.10019e-22
-2.70954e-25
-3.63071e-21
-9.28081e-24
-1.19269e-19
-1.77621e-22
-1.82601e-18
-2.77298e-21
-5.17169e-17
-5.17667e-20
-8.23136e-16
-1.1239e-18
-3.23566e-15
-1.51176e-17
-4.15061e-15
-6.02799e-17
-4.04086e-15
-6.36493e-17
-1.89686e-15
-4.06057e-17
-1.6503e-16
-6.86366e-18
2.00381e-19
-3.33418e-19
1.29801e-18
1.06524e-20
1.43109e-18
-1.32655e-19
5.57764e-19
-3.05642e-19
-2.50523e-20
-1.82824e-19
-2.26717e-20
7.34406e-22
-7.44362e-20
3.41881e-21
-1.87934e-19
1.24656e-20
3.40191e-20
-3.744e-19
-5.75174e-31
-2.1652e-33
-8.32822e-29
-3.27617e-31
-5.90025e-27
-2.42553e-29
-2.75789e-25
-1.18732e-27
-9.51834e-24
-4.30668e-26
-1.86229e-22
-8.36217e-25
-2.95687e-21
-1.49144e-23
-5.61142e-20
-2.98061e-22
-1.65099e-18
-7.02815e-21
-2.06174e-17
-8.81619e-20
-6.7952e-17
-3.6573e-19
-5.92437e-17
-6.36386e-19
-2.02e-17
-6.11331e-19
-2.80042e-18
-3.71258e-19
6.99657e-19
-3.47628e-20
1.02985e-18
5.43567e-21
9.11907e-19
-6.68939e-20
3.76376e-19
-1.59444e-19
-1.15528e-21
-1.07842e-19
-1.18766e-21
2.63361e-23
-4.04331e-21
1.38093e-22
-1.07219e-20
5.48313e-22
1.56996e-21
-2.19341e-20
-2.16372e-33
-1.73685e-36
-3.29545e-31
-2.79667e-34
-2.45661e-29
-2.20849e-32
-1.21089e-27
-1.15696e-30
-4.42379e-26
-4.51177e-29
-9.13897e-25
-9.37656e-28
-1.58469e-23
-1.86393e-26
-3.27646e-22
-3.94815e-25
-1.04162e-20
-7.41277e-24
-1.11715e-19
-1.63824e-22
-3.87682e-19
-2.10784e-21
-6.37618e-19
-9.04794e-21
-6.48676e-19
-1.48528e-20
-2.45144e-19
-1.28079e-20
1.0022e-19
-2.61054e-21
2.66905e-19
1.41114e-21
2.98076e-19
-7.75298e-21
1.35498e-19
-4.12027e-20
-4.46206e-23
-3.36646e-20
-4.97245e-23
7.9055e-25
-1.83688e-22
4.68104e-24
-5.19276e-22
2.05118e-23
6.25886e-23
-1.10392e-21
-1.7352e-36
-2.1685e-39
-2.80896e-34
-3.97931e-37
-2.23052e-32
-3.57041e-35
-1.17496e-30
-2.11841e-33
-4.60776e-29
-9.33949e-32
-9.66611e-28
-2.15496e-30
-1.95881e-26
-5.09243e-29
-4.15005e-25
-1.18269e-27
-8.21172e-24
-2.43878e-26
-2.87341e-22
-5.83933e-25
-3.57009e-21
-9.9333e-24
-1.25627e-20
-4.37781e-23
-1.79569e-20
-5.27726e-23
-1.36382e-20
1.35072e-23
1.52888e-20
1.01177e-22
4.03391e-20
1.71471e-22
5.54851e-20
2.16315e-23
2.94925e-20
-5.73028e-21
-1.43806e-24
-6.27478e-21
-1.72422e-24
1.96595e-26
-6.99271e-24
1.32886e-25
-2.14022e-23
6.544e-25
2.16227e-24
-4.78669e-23
-2.08908e-39
3.72123e-42
-3.84589e-37
4.04726e-40
-3.46527e-35
2.32503e-38
-2.06434e-33
1.06366e-36
-9.14303e-32
3.93898e-35
-2.24353e-30
1.25419e-33
-5.3062e-29
3.5123e-32
-1.23113e-27
8.71132e-31
-2.64665e-26
3.06741e-29
-1.22612e-24
7.74274e-28
-2.10212e-23
1.01837e-26
-4.74333e-23
7.87337e-26
3.37031e-23
3.96123e-25
3.87142e-22
1.42059e-24
1.31079e-21
3.81998e-24
3.20823e-21
7.39261e-24
5.95548e-21
6.0685e-24
4.02769e-21
-4.1067e-22
-3.85225e-26
-7.20059e-22
-4.95783e-26
4.04611e-28
-2.23338e-25
3.16146e-27
-7.52166e-25
1.78505e-26
6.49392e-26
-1.79259e-24
2.65753e-41
1.15902e-41
3.10681e-39
1.34862e-39
2.17814e-37
7.42757e-38
1.10641e-35
2.61876e-36
4.56702e-34
6.62032e-35
1.60651e-32
1.27413e-33
4.91777e-31
1.93445e-32
2.12007e-29
2.36994e-31
6.54966e-28
2.37787e-30
1.06182e-26
1.97342e-29
1.02757e-25
1.36437e-28
6.6462e-25
7.90749e-28
3.20735e-24
3.86677e-27
1.26303e-23
1.60372e-26
4.32518e-23
5.60911e-26
1.32844e-22
1.56978e-25
3.58165e-22
2.64578e-25
3.48299e-22
-1.25013e-23
-8.54674e-28
-5.08912e-23
-1.17998e-27
6.87114e-30
-5.98893e-27
6.31298e-29
-2.25768e-26
4.17433e-28
1.70142e-27
-5.81029e-26
8.56417e-41
1.71777e-44
9.5979e-39
2.12895e-42
5.18278e-37
1.24883e-40
1.79569e-35
4.70103e-39
4.47414e-34
1.27383e-37
8.51554e-33
2.64289e-36
1.28408e-31
4.36005e-35
1.57149e-30
5.86516e-34
1.58806e-29
6.54935e-33
1.3438e-28
6.15324e-32
9.65352e-28
4.91841e-31
5.98502e-27
3.37895e-30
3.27076e-26
2.01477e-29
1.6148e-25
1.05063e-28
7.35237e-25
4.77874e-28
3.08944e-24
1.8242e-27
1.14273e-23
4.89225e-27
1.88931e-23
-3.91144e-27
-1.56603e-29
-2.15839e-24
-2.32241e-29
9.61521e-32
-1.34891e-28
1.05949e-30
-5.79614e-28
8.39574e-30
3.90488e-29
-1.63281e-27
1.29143e-43
6.47727e-47
1.54225e-41
7.57296e-45
8.88799e-40
4.20341e-43
3.29816e-38
1.50641e-41
8.84765e-37
3.9202e-40
1.82634e-35
7.90187e-39
3.01608e-34
1.28513e-37
4.09368e-33
1.73512e-36
4.66134e-32
1.98665e-35
4.53141e-31
1.96177e-34
3.82555e-30
1.69448e-33
2.85748e-29
1.29597e-32
1.9287e-28
8.86807e-32
1.20212e-27
5.46693e-31
7.02421e-27
3.02975e-30
3.82392e-26
1.46863e-29
1.83306e-25
5.57508e-29
6.2292e-25
8.21784e-29
-2.36408e-31
-5.13461e-26
-3.78097e-31
1.10799e-33
-2.55251e-30
1.49675e-32
-1.27461e-29
1.45815e-31
7.88895e-31
-3.98414e-29
4.33074e-46
1.01958e-50
4.89783e-44
1.38028e-48
2.68669e-42
8.84263e-47
9.56811e-41
3.6517e-45
2.49069e-39
1.09437e-43
5.05953e-38
2.5417e-42
8.36576e-37
4.77479e-41
1.16049e-35
7.48796e-40
1.38292e-34
1.00636e-38
1.44451e-33
1.18783e-37
1.34733e-32
1.26198e-36
1.14292e-31
1.2365e-35
8.9824e-31
1.13978e-34
6.65768e-30
9.96247e-34
4.7173e-29
8.15382e-33
3.20415e-28
5.98927e-32
2.04934e-27
3.56542e-31
1.1656e-26
1.18329e-30
-2.93309e-33
-5.8583e-28
-5.10076e-33
1.04699e-35
-4.0594e-32
1.78569e-34
-2.40475e-31
2.19804e-33
1.4113e-32
-8.45168e-31
7.33737e-50
1.51143e-57
9.58455e-48
3.71537e-55
6.05752e-46
4.38604e-53
2.48261e-44
3.39425e-51
7.43778e-43
1.93947e-49
1.74225e-41
8.73458e-48
3.3384e-40
3.23126e-46
5.4196e-39
1.01017e-44
7.68945e-38
2.72398e-43
9.82894e-37
6.43216e-42
1.1666e-35
1.34466e-40
1.321e-34
2.50669e-39
1.45308e-33
4.1798e-38
1.55902e-32
6.21886e-37
1.61507e-31
8.16228e-36
1.58088e-30
9.18188e-35
1.41207e-29
8.23746e-34
1.07713e-28
4.64611e-33
-2.98945e-35
-1.82247e-30
-5.69869e-35
8.09249e-38
-5.43077e-34
1.80959e-36
-3.89955e-33
2.89519e-35
2.25204e-34
-1.56021e-32
1.80654e-56
8.00203e-64
4.35003e-54
2.56934e-61
5.15079e-52
3.97312e-59
4.02211e-50
4.04282e-57
2.33394e-48
3.05076e-55
1.07485e-46
1.82315e-53
4.0969e-45
8.99507e-52
1.33074e-43
3.76992e-50
3.76375e-42
1.36987e-48
9.42322e-41
4.37998e-47
2.11532e-39
1.245e-45
4.29876e-38
3.16498e-44
7.9607e-37
7.20335e-43
1.34722e-35
1.45954e-41
2.0783e-34
2.5901e-40
2.88815e-33
3.88221e-39
3.50351e-32
4.53151e-38
3.40212e-31
3.30055e-37
-2.50524e-37
3.28847e-37
-5.27562e-37
5.10213e-40
-6.12178e-36
1.63441e-38
-5.44878e-35
3.36228e-37
3.23492e-36
-2.50708e-34
1.12006e-62
-9.81695e-74
3.533e-60
-4.68659e-71
5.49884e-58
-1.08608e-68
5.66651e-56
-1.67318e-66
4.35818e-54
-1.93489e-64
2.67262e-52
-1.79684e-62
1.36292e-50
-1.39979e-60
5.95014e-49
-9.4348e-59
2.27135e-47
-5.63193e-57
7.70067e-46
-3.0326e-55
2.34503e-44
-1.49499e-53
6.46028e-43
-6.80579e-52
1.61408e-41
-2.8853e-50
3.64325e-40
-1.14626e-48
7.32455e-39
-4.2648e-47
1.26779e-37
-1.27613e-45
1.74302e-36
-1.40974e-44
1.4992e-35
-3.22935e-44
-1.73176e-39
-2.57827e-44
-4.05086e-39
1.99511e-42
-6.0484e-38
1.39977e-40
-6.5862e-37
3.48237e-39
4.22923e-38
-3.45382e-36
-9.81685e-74
-9.92908e-79
-4.69634e-71
-5.88939e-76
-1.09076e-68
-1.68765e-73
-1.68405e-66
-3.21025e-71
-1.95168e-64
-4.58396e-69
-1.81631e-62
-5.25907e-67
-1.4179e-60
-5.06546e-65
-9.57617e-59
-4.22558e-63
-5.72738e-57
-3.12547e-61
-3.08966e-55
-2.08804e-59
-1.53557e-53
-1.16116e-57
-7.13385e-52
-5.74746e-56
-3.10109e-50
-2.6464e-54
-1.30105e-48
-1.04522e-52