/*--------------------------------*- C++ -*----------------------------------*\
| =========                 |                                                 |
| \\      /  F ield         | OpenFOAM: The Open Source CFD Toolbox           |
|  \\    /   O peration     | Version:  2206                                  |
|   \\  /    A nd           | Website:  www.openfoam.com                      |
|    \\/     M anipulation  |                                                 |
\*---------------------------------------------------------------------------*/
FoamFile
{
    version     2.0;
    format      ascii;
    arch        "LSB;label=32;scalar=64";
    class       volScalarField;
    location    "0.175";
    object      p;
}
// * * * * * * * * * * * * * * * * * * * * * * * * * * * * * * * * * * * * * //

dimensions      [1 -1 -2 0 0 0 0];

internalField   nonuniform List<scalar> 
2268
(
2443.19
2450.67
2452.53
2450.24
2446.39
2442.12
2437.37
2432.04
2426.23
2420.32
2415.2
2412.54
2415.18
2427.5
2455.99
2509.65
2600.98
2740.52
2931.82
3159.33
3374.72
3494.45
3553.55
2382.69
2390.09
2391.85
2389.52
2385.68
2381.35
2376.51
2371.03
2365.01
2358.81
2353.27
2350.04
2351.9
2363.16
2390.12
2441.28
2525.83
2654.91
2835.76
3061.25
3293.66
3433.54
3529.51
2320.54
2327.79
2329.36
2326.96
2323.08
2318.66
2313.63
2307.87
2301.44
2294.64
2288.26
2283.88
2284.17
2293.28
2317.36
2364.62
2444.89
2566.75
2735.68
2945.42
3179.15
3373.76
3551.7
2256.77
2263.79
2265.09
2262.57
2258.64
2254.08
2248.77
2242.58
2235.52
2227.82
2220.2
2214.1
2212.01
2217.89
2237.68
2279.47
2352.96
2466.79
2626.48
2826.3
3055.93
3284.12
3512.97
2191.39
2198.15
2199.1
2196.4
2192.39
2187.64
2181.97
2175.21
2167.3
2158.42
2149.13
2140.71
2135.42
2136.95
2150.97
2185.4
2249.9
2353.46
2502.75
2695.95
2922.65
3156.19
3395.73
2124.44
2130.9
2131.43
2128.51
2124.38
2119.38
2113.26
2105.78
2096.83
2086.46
2075.08
2063.76
2054.41
2050.38
2057.01
2081.96
2134.89
2225.36
2361.11
2544.68
2765.55
2987.89
3190.93
2055.99
2062.09
2062.12
2058.93
2054.64
2049.36
2042.68
2034.36
2024.17
2012.04
1998.19
1983.38
1969.16
1958.36
1955.89
1968.93
2007.04
2080.37
2197.72
2364.92
2570.33
2765.11
2867.45
1986.11
1991.72
1991.15
1987.66
1983.22
1977.6
1970.3
1961
1949.4
1935.28
1918.63
1899.86
1880.01
1861.38
1848.14
1846.78
1866.45
1917.45
2008.32
2148.73
2327.34
2485.38
2371.56
1.44733
1.40305
1.33098
1.24715
1.16233
1.08301
1.0125
0.951745
0.900369
0.857615
0.822351
0.793597
0.770315
0.751684
0.737107
0.726014
0.718028
0.712882
0.710225
1.39784
1.34964
1.27381
1.1875
1.10136
1.02149
0.950773
0.890027
0.838841
0.796367
0.761396
0.732906
0.709883
0.691466
0.677061
0.666115
0.658231
0.653142
0.650525
1.35443
1.30072
1.21875
1.12802
1.03895
0.957475
0.88612
0.825405
0.774616
0.73269
0.698319
0.670394
0.647885
0.62991
0.615864
0.605207
0.597527
0.592568
0.590022
1.31841
1.2564
1.16494
1.06752
0.974175
0.890465
0.818328
0.757759
0.707608
0.666551
0.633113
0.60606
0.584337
0.567042
0.553545
0.543317
0.535948
0.531184
0.52874
1.28921
1.21575
1.11094
1.00492
0.906279
0.819973
0.74707
0.686884
0.637718
0.597913
0.565772
0.539916
0.519264
0.502889
0.490128
0.480468
0.473513
0.469009
0.466703
1.26529
1.17723
1.05462
0.938817
0.834211
0.745296
0.671909
0.612527
0.564826
0.52673
0.496297
0.472006
0.452724
0.437501
0.425654
0.416697
0.410256
0.406081
0.403945
1.23292
1.13558
0.992891
0.867353
0.756778
0.665614
0.592309
0.534364
0.488775
0.452956
0.424708
0.402374
0.384764
0.370922
0.360172
0.352057
0.346226
0.34244
0.340504
1.1838
1.09054
0.922331
0.788336
0.672491
0.580051
0.507768
0.452161
0.409477
0.37659
0.351054
0.331088
0.31546
0.303236
0.293766
0.286621
0.281481
0.278139
0.276436
1874.66
1879.25
1877.87
1873.88
1869.04
1862.76
1854.31
1843.25
1829.14
1811.47
1789.8
1763.87
1733.84
1700.75
1667.21
1638.18
1622.31
1629.86
1666.36
1749.99
1854.3
1892.97
1224.9
1717.21
1720.45
1717.85
1713.04
1707.32
1699.66
1689.11
1675.04
1656.69
1633.01
1602.77
1564.5
1516.43
1456.59
1384.22
1300.23
1204.56
1097.41
991.37
871.579
809.383
895.017
648.142
1554.8
1556.52
1552.54
1546.83
1540
1530.62
1517.58
1500.08
1476.99
1446.67
1407.01
1354.97
1285.97
1194.7
1077.54
925.925
717.842
439.169
151.425
90.0946
131.122
217.299
239.954
1388.28
1388.36
1383.03
1376.34
1368.16
1356.74
1340.95
1319.8
1291.76
1254.64
1205.52
1139.09
1048.12
925.643
762.477
535.559
248.243
48.1068
8.63769
4.72074
13.3347
38.8584
67.6479
1218.59
1217
1210.41
1202.68
1192.93
1179.28
1160.63
1135.82
1102.93
1059.53
1001.51
921.23
812.083
661.484
447.487
184.346
28.9304
-1.59216
-4.84184
-5.63493
-5.27363
-0.797989
20.4759
1046.71
1043.53
1035.88
1027.05
1015.56
999.585
978.109
949.778
912.519
863.865
797.921
707.836
587.067
403.196
162.26
21.1619
-2.16101
-5.81206
-6.59597
-7.0113
-7.31189
-7.03168
0.122881
873.583
868.929
860.475
850.478
837.185
818.904
794.743
763.183
722.423
669.717
598.647
506.389
372.039
160.684
19.4435
-2.57947
-5.39454
-6.07801
-6.4692
-6.91373
-7.26104
-7.52356
-5.9607
700.347
694.199
685.229
674.084
659.05
638.659
612.133
577.923
534.543
478.623
406.218
312.415
165.975
22.2887
-2.04491
-4.96043
-5.59686
-5.92734
-6.2607
-6.62976
-6.91224
-7.17793
-6.9028
528.838
521.244
512.051
499.816
483.21
460.949
432.364
395.849
349.342
289.147
215.788
121.639
23.3452
-2.29582
-4.38159
-5.03463
-5.42628
-5.70109
-5.99336
-6.29824
-6.56324
-6.80178
-7.13928
359.54
350.701
341.592
328.085
309.892
285.601
254.459
215.319
165.64
107.236
55.3333
9.15807
-3.73982
-3.76222
-4.40571
-4.81013
-5.17307
-5.4683
-5.72359
-5.97014
-6.21147
-6.43979
-6.82081
190.192
177.736
170.023
155.992
137.756
114.927
88.3797
60.3389
30.2621
8.59269
-2.63662
-4.27118
-3.73915
-3.56695
-4.55993
-4.84921
-5.10955
-5.31515
-5.48163
-5.64428
-5.81226
-5.9699
-6.13211
50.5669
37.6425
35.7016
28.5136
20.2465
13.019
5.82111
-0.642897
-3.34788
-3.745
-3.91791
-4.0126
-3.99069
-4.05545
-4.77477
-5.27731
-5.25912
-5.25498
-5.28923
-5.34194
-5.39094
-5.4162
-5.37604
-0.369879
-2.33581
-2.57615
-2.67142
-2.78227
-2.91953
-3.10689
-3.34062
-3.52715
-3.79759
-4.09876
-4.36074
-4.4518
-4.59312
-4.75876
-5.63544
-5.45729
-5.24326
-5.15203
-5.0926
-5.01959
-4.90382
-4.70666
-2.7856
-2.77095
-2.79978
-2.84657
-2.9176
-3.02969
-3.18455
-3.38635
-3.62793
-3.95746
-4.37103
-4.79662
-5.0693
-5.08428
-5.14166
-5.99043
-5.60124
-5.24338
-5.05436
-4.89919
-4.73388
-4.52052
-4.22769
-2.90631
-2.91076
-2.93457
-2.9772
-3.04139
-3.13707
-3.27289
-3.46088
-3.72451
-4.1217
-4.66062
-5.28827
-5.73803
-5.65523
-5.79269
-6.29899
-5.65767
-5.22124
-4.95934
-4.73731
-4.51593
-4.25517
-3.92904
-3.0268
-3.03994
-3.05974
-3.09616
-3.15148
-3.23215
-3.34978
-3.52216
-3.79254
-4.23907
-4.90505
-5.74798
-6.33745
-6.10117
-6.26892
-6.35063
-5.58918
-5.1392
-4.83539
-4.58256
-4.33857
-4.06591
-3.74558
-3.14133
-3.15408
-3.17098
-3.20118
-3.247
-3.31209
-3.40922
-3.55469
-3.80077
-4.24002
-4.93956
-5.82857
-6.34647
-6.32142
-6.33225
-6.05104
-5.39298
-4.96967
-4.67183
-4.42515
-4.18655
-3.92653
-3.63369
-3.24827
-3.25726
-3.27191
-3.29598
-3.3317
-3.38281
-3.45656
-3.56638
-3.7608
-4.12383
-4.68763
-5.33593
-5.72837
-5.86837
-5.82118
-5.50063
-5.02196
-4.71992
-4.4811
-4.26958
-4.0561
-3.82427
-3.56906
-3.34773
-3.35405
-3.36597
-3.38461
-3.41156
-3.44952
-3.50232
-3.57849
-3.71193
-3.95821
-4.32294
-4.71871
-5.00392
-5.13669
-5.10995
-4.89312
-4.63776
-4.46592
-4.29673
-4.1301
-3.95084
-3.75396
-3.53861
-3.44231
-3.44711
-3.45626
-3.47029
-3.49027
-3.51798
-3.55559
-3.60755
-3.69194
-3.83923
-4.05387
-4.29096
-4.48432
-4.57484
-4.55483
-4.46244
-4.36033
-4.26631
-4.14963
-4.02171
-3.87611
-3.71354
-3.53539
-3.53428
-3.5378
-3.54464
-3.55504
-3.56982
-3.59025
-3.61791
-3.65533
-3.71064
-3.79749
-3.92033
-4.05794
-4.17531
-4.24407
-4.25462
-4.23184
-4.19258
-4.13379
-4.05028
-3.95086
-3.83356
-3.70076
-3.55481
-3.62488
-3.62739
-3.63246
-3.64024
-3.65132
-3.66667
-3.68762
-3.71603
-3.75581
-3.81249
-3.88811
-3.97442
-4.05309
-4.10608
-4.12843
-4.12253
-4.10033
-4.05752
-3.99446
-3.91551
-3.82066
-3.7123
-3.59306
-3.7154
-3.71723
-3.72107
-3.72705
-3.73556
-3.74736
-3.76348
-3.7853
-3.81512
-3.85557
-3.90679
-3.96341
-4.01532
-4.05296
-4.07217
-4.07313
-4.05682
-4.02346
-3.97397
-3.91021
-3.83298
-3.74434
-3.64675
-3.80707
-3.80852
-3.81155
-3.81628
-3.82299
-3.83223
-3.84471
-3.86135
-3.8834
-3.91217
-3.9473
-3.98524
-4.02001
-4.0461
-4.06017
-4.06112
-4.04827
-4.02156
-3.98156
-3.92935
-3.86599
-3.79316
-3.71301
-3.90079
-3.90201
-3.90448
-3.90829
-3.91365
-3.92095
-3.93062
-3.94325
-3.95949
-3.97992
-4.00408
-4.02964
-4.05284
-4.07012
-4.07894
-4.0781
-4.06673
-4.04448
-4.01137
-3.96812
-3.91573
-3.85557
-3.78943
-3.99687
-3.99792
-3.99993
-4.00298
-4.00724
-4.01293
-4.02033
-4.02977
-4.04154
-4.0558
-4.07207
-4.08891
-4.10398
-4.11477
-4.11934
-4.11666
-4.10598
-4.08672
-4.05874
-4.02254
-3.9789
-3.92893
-3.87407
-4.09513
-4.09598
-4.09758
-4.09995
-4.10325
-4.10756
-4.11306
-4.11991
-4.12821
-4.13789
-4.14854
-4.15917
-4.16833
-4.1743
-4.1757
-4.17156
-4.16119
-4.14409
-4.12008
-4.08947
-4.05286
-4.01112
-3.96538
-4.19518
-4.19582
-4.19702
-4.19878
-4.2012
-4.20432
-4.20825
-4.21301
-4.21861
-4.2249
-4.23152
-4.2378
-4.24274
-4.24522
-4.24423
-4.23897
-4.22882
-4.21344
-4.19258
-4.16647
-4.13554
-4.10047
-4.06214
-4.29666
-4.29709
-4.29792
-4.29913
-4.30077
-4.30288
-4.30548
-4.30856
-4.31207
-4.31583
-4.31956
-4.32277
-4.32477
-4.32478
-4.32208
-4.31607
-4.30632
-4.29228
-4.27401
-4.25157
-4.22529
-4.19567
-4.16341
-4.39936
-4.39961
-4.4001
-4.40081
-4.40179
-4.40303
-4.40455
-4.4063
-4.40819
-4.41009
-4.41175
-4.41279
-4.41275
-4.41107
-4.40723
-4.40078
-4.39135
-4.3786
-4.36258
-4.34322
-4.32079
-4.29567
-4.2684
-4.50318
-4.50329
-4.50347
-4.50377
-4.50418
-4.5047
-4.50534
-4.50603
-4.50669
-4.50721
-4.50738
-4.50692
-4.50549
-4.5027
-4.49818
-4.49158
-4.48259
-4.47088
-4.45692
-4.44018
-4.42096
-4.39959
-4.37649
-4.60811
-4.60808
-4.60801
-4.60796
-4.6079
-4.60783
-4.60776
-4.60763
-4.60736
-4.60685
-4.60596
-4.60446
-4.60212
-4.59865
-4.59378
-4.58727
-4.57893
-4.56874
-4.55606
-4.54145
-4.52494
-4.50673
-4.48713
-4.7141
-4.71398
-4.7137
-4.71336
-4.71292
-4.71238
-4.71174
-4.71096
-4.70998
-4.70873
-4.70708
-4.70489
-4.70196
-4.69811
-4.69314
-4.68685
-4.6791
-4.66981
-4.65878
-4.64616
-4.63202
-4.61652
-4.59991
-4.82115
-4.82094
-4.82051
-4.81993
-4.81917
-4.81826
-4.81717
-4.81589
-4.81438
-4.81258
-4.81041
-4.80775
-4.80448
-4.80046
-4.79554
-4.78958
-4.78248
-4.77415
-4.76454
-4.75368
-4.74162
-4.72848
-4.71446
-4.92921
-4.92892
-4.92837
-4.92759
-4.92659
-4.92538
-4.92394
-4.92227
-4.92036
-4.91817
-4.91563
-4.91269
-4.90924
-4.9052
-4.90045
-4.8949
-4.88848
-4.88112
-4.8728
-4.86351
-4.85329
-4.84223
-4.83048
-5.03816
-5.03783
-5.03718
-5.03625
-5.03506
-5.0336
-5.03189
-5.02994
-5.02773
-5.02526
-5.02249
-5.01938
-5.01589
-5.01193
-5.00745
-5.00236
-4.99663
-4.99021
-4.98307
-4.97522
-4.96666
-4.95747
-4.94773
-5.14788
-5.14751
-5.14679
-5.14575
-5.14441
-5.14278
-5.14087
-5.1387
-5.1363
-5.13364
-5.13074
-5.12757
-5.12412
-5.12033
-5.11616
-5.11158
-5.10655
-5.10103
-5.09501
-5.08847
-5.08143
-5.07392
-5.066
-5.25832
-5.25792
-5.25715
-5.25603
-5.25457
-5.25279
-5.25074
-5.24843
-5.24588
-5.24312
-5.24016
-5.23701
-5.23367
-5.23011
-5.2263
-5.22224
-5.21791
-5.21326
-5.2083
-5.203
-5.19736
-5.19139
-5.18513
-5.3695
-5.36911
-5.36829
-5.3671
-5.36553
-5.36364
-5.36147
-5.35904
-5.35639
-5.35357
-5.3506
-5.34752
-5.34433
-5.34103
-5.33762
-5.33409
-5.33044
-5.32665
-5.3227
-5.31856
-5.31424
-5.30971
-5.30499
-5.4813
-5.48092
-5.48007
-5.47882
-5.47718
-5.47521
-5.47294
-5.47043
-5.46772
-5.46487
-5.46193
-5.45894
-5.45592
-5.45291
-5.4499
-5.44691
-5.44394
-5.44097
-5.438
-5.43499
-5.43192
-5.42876
-5.42548
-5.59354
-5.5932
-5.59234
-5.59105
-5.58937
-5.58733
-5.585
-5.58244
-5.5797
-5.57686
-5.57397
-5.5711
-5.56828
-5.56556
-5.56296
-5.56051
-5.55821
-5.55606
-5.55404
-5.55213
-5.55029
-5.54842
-5.54651
-5.70572
-5.70555
-5.7047
-5.70338
-5.70165
-5.69956
-5.69719
-5.6946
-5.69187
-5.68907
-5.68628
-5.68357
-5.681
-5.67862
-5.67648
-5.6746
-5.673
-5.67169
-5.67065
-5.66988
-5.66926
-5.66865
-5.66802
-0.0843321
1.80428
1.58832
0.698623
-2.51447
1.30201
2.18468
1.60584
4.33712
5.19318
2.8135
1.80606
-34.6854
5.62929
4.52645
1.39537
-29.9871
-3.45474
3.47975
-0.863033
9.59149
-26.2735
-4.06615
-4.90436
12.5829
-23.5275
-9.93923
-8.35496
1.45558
-4.13302
-18.9605
-8.60943
-5.79261
-6.36638
-24.2
-7.38857
-7.129
-7.21018
-4.90677
-2.97079
-6.54004
-5.3688
-1.56286
-0.0864978
-5.34868
-3.8119
-0.374866
0.390246
-4.27182
-2.88609
-0.584971
0.00685658
-3.67141
-2.52127
-1.00327
-0.546592
-3.39369
-2.47976
-1.44604
-1.0523
-3.26824
-2.54911
-1.82644
-1.47807
-3.22292
-2.65662
-2.13012
-1.8281
-3.22449
-2.77817
-2.37772
-2.1199
-3.25454
-2.9013
-2.58755
-2.36842
-3.30341
-3.02201
-2.77139
-2.58494
-3.36605
-3.14006
-2.93697
-2.77837
-3.43937
-3.25633
-3.08994
-2.955
-3.52121
-3.37179
-3.23423
-3.11925
-3.60997
-3.4871
-3.37254
-3.27429
-3.70441
-3.60268
-3.50669
-3.42251
-3.80353
-3.71878
-3.63793
-3.56565
-3.90655
-3.83557
-3.76715
-3.70497
-4.01285
-3.95312
-3.89502
-3.84146
-4.12193
-4.07147
-4.02201
-3.97584
-4.23337
-4.19063
-4.14845
-4.10866
-4.34683
-4.31058
-4.27459
-4.24032
-4.46201
-4.43126
-4.40059
-4.37115
-4.57866
-4.55262
-4.52655
-4.50137
-4.69655
-4.6746
-4.65256
-4.63114
-4.8155
-4.79714
-4.77865
-4.76059
-4.93534
-4.92017
-4.90485
-4.88984
-5.05595
-5.04364
-5.0312
-5.01895
-5.17721
-5.16751
-5.15769
-5.14799
-5.29904
-5.29174
-5.28434
-5.27701
-5.42135
-5.4163
-5.41116
-5.40605
-5.5441
-5.54115
-5.53814
-5.53515
-5.66724
-5.66629
-5.66532
-5.66435
1.01034
0.977066
0.790756
0.648765
0.526899
0.434976
0.36668
0.316792
0.280286
0.253259
0.232917
0.21735
0.205322
0.19598
0.188753
0.183285
0.179333
0.176751
0.175448
1.14861
0.806271
0.571968
0.395817
0.276206
0.196615
0.144767
0.111336
0.0895255
0.0748967
0.0646538
0.057122
0.0513608
0.0468373
0.0432461
0.0404425
0.0383478
0.0369383
0.0362468
0.921574
0.464913
0.194565
0.0355955
-0.0497899
-0.0916978
-0.109439
-0.114679
-0.114281
-0.111802
-0.109041
-0.106782
-0.105232
-0.104319
-0.103905
-0.103825
-0.103934
-0.104096
-0.10414
0.161648
-0.289529
-0.443641
-0.481774
-0.467535
-0.431571
-0.391597
-0.355492
-0.325632
-0.302126
-0.284365
-0.271391
-0.262123
-0.255648
-0.251227
-0.248317
-0.246494
-0.245461
-0.244893
-1.67228
-1.69615
-1.43159
-1.1667
-0.959732
-0.802582
-0.68443
-0.597817
-0.534708
-0.488997
-0.456288
-0.433065
-0.416661
-0.40515
-0.397201
-0.391835
-0.388358
-0.38631
-0.385239
-4.7287
-3.66158
-2.64173
-1.91564
-1.45204
-1.1568
-0.957764
-0.822026
-0.728733
-0.664078
-0.619247
-0.58808
-0.566256
-0.550997
-0.540469
-0.533349
-0.528683
-0.525932
-0.524531
-7.90698
-5.56472
-3.6813
-2.50182
-1.82043
-1.43469
-1.17771
-1.00757
-0.895402
-0.820134
-0.768823
-0.733504
-0.709001
-0.691963
-0.68018
-0.67217
-0.666919
-0.66377
-0.662275
-8.75799
-6.57208
-4.17827
-2.73513
-1.99327
-1.56762
-1.30407
-1.13622
-1.02624
-0.952623
-0.902537
-0.868052
-0.844124
-0.827471
-0.815923
-0.808039
-0.802856
-0.799746
-0.798287
-7.56221
-6.01548
-3.80476
-2.50246
-1.8951
-1.55961
-1.34844
-1.21312
-1.12374
-1.06312
-1.0214
-0.99239
-0.972083
-0.957849
-0.947925
-0.941117
-0.936631
-0.933934
-0.932676
-4.65601
-3.65036
-2.59614
-1.94195
-1.63355
-1.45773
-1.33765
-1.25521
-1.19812
-1.15788
-1.12934
-1.10903
-1.09454
-1.08424
-1.07699
-1.07199
-1.06869
-1.06671
-1.06578
-1.41647
-1.56068
-1.53723
-1.44981
-1.3932
-1.3537
-1.31799
-1.28796
-1.26427
-1.24596
-1.23206
-1.22166
-1.21397
-1.20836
-1.20435
-1.20157
-1.19973
-1.19863
-1.19812
-0.393642
-0.855529
-1.08405
-1.19856
-1.26529
-1.30396
-1.32344
-1.33226
-1.33549
-1.33596
-1.33525
-1.33415
-1.33304
-1.3321
-1.33138
-1.33088
-1.33057
-1.33041
-1.33034
-0.444039
-0.757303
-0.977428
-1.1368
-1.24509
-1.31792
-1.36622
-1.3988
-1.42002
-1.43399
-1.44333
-1.44968
-1.45407
-1.45716
-1.45936
-1.46094
-1.46203
-1.46273
-1.46308
-0.721955
-0.899392
-1.06535
-1.20469
-1.31161
-1.39127
-1.44986
-1.4914
-1.52149
-1.54325
-1.55899
-1.57042
-1.57875
-1.58488
-1.58935
-1.59257
-1.59481
-1.59623
-1.59691
-1.07376
-1.15404
-1.25565
-1.35469
-1.44014
-1.50986
-1.56498
-1.60748
-1.64
-1.66473
-1.68343
-1.69755
-1.70819
-1.71615
-1.72208
-1.72642
-1.72945
-1.73137
-1.73232
-1.4218
-1.43888
-1.48751
-1.54752
-1.60688
-1.66024
-1.70576
-1.74325
-1.7735
-1.79753
-1.81643
-1.83117
-1.8426
-1.85136
-1.85801
-1.86293
-1.8664
-1.86862
-1.8697
-1.73756
-1.71745
-1.72928
-1.75816
-1.79373
-1.82999
-1.86375
-1.89352
-1.91885
-1.93989
-1.95707
-1.97091
-1.98192
-1.99058
-1.99725
-2.00226
-2.00583
-2.00812
-2.00923
-2.01751
-1.97743
-1.96574
-1.97215
-1.98864
-2.00976
-2.03203
-2.05336
-2.07268
-2.08954
-2.10386
-2.1158
-2.12557
-2.13342
-2.1396
-2.1443
-2.14768
-2.14986
-2.15092
-2.26563
-2.21622
-2.19062
-2.18192
-2.18425
-2.19313
-2.20535
-2.21874
-2.23197
-2.24426
-2.25522
-2.26471
-2.27273
-2.27934
-2.28465
-2.28875
-2.29174
-2.29367
-2.29462
-2.48761
-2.43526
-2.40223
-2.38401
-2.37642
-2.376
-2.38004
-2.38657
-2.39423
-2.4021
-2.40963
-2.4165
-2.42254
-2.42768
-2.43191
-2.43524
-2.43768
-2.43928
-2.44007
-2.68898
-2.63727
-2.601
-2.57724
-2.56309
-2.55596
-2.55372
-2.55468
-2.55757
-2.5615
-2.56583
-2.57015
-2.5742
-2.5778
-2.58086
-2.58332
-2.58516
-2.58637
-2.58697
-2.8742
-2.82509
-2.78821
-2.76166
-2.74348
-2.73179
-2.72496
-2.72161
-2.72065
-2.72124
-2.72277
-2.72478
-2.72695
-2.72907
-2.73097
-2.73256
-2.73378
-2.7346
-2.735
-3.04699
-3.00137
-2.96545
-2.93795
-2.91758
-2.90301
-2.89301
-2.8865
-2.88256
-2.88048
-2.87967
-2.87969
-2.8802
-2.88095
-2.88178
-2.88255
-2.88317
-2.8836
-2.88382
-3.21014
-3.16836
-3.13428
-3.10704
-3.08579
-3.06961
-3.05758
-3.04888
-3.04276
-3.03862
-3.03595
-3.03432
-3.03343
-3.03301
-3.03288
-3.03291
-3.033
-3.03308
-3.03311
-3.3658
-3.32795
-3.29613
-3.26991
-3.2487
-3.23183
-3.21867
-3.20856
-3.20095
-3.19531
-3.19122
-3.1883
-3.18626
-3.18487
-3.18394
-3.18334
-3.18295
-3.18273
-3.1826
-3.51564
-3.48159
-3.4523
-3.42753
-3.40694
-3.39007
-3.37644
-3.36556
-3.35701
-3.35035
-3.34524
-3.34135
-3.33843
-3.33627
-3.3347
-3.33358
-3.3328
-3.33231
-3.33206
-3.66098
-3.63053
-3.60383
-3.58079
-3.56119
-3.54476
-3.53115
-3.52
-3.51094
-3.50366
-3.49787
-3.49331
-3.48975
-3.48702
-3.48495
-3.48342
-3.48234
-3.48165
-3.4813
-3.80284
-3.77573
-3.7516
-3.73041
-3.71206
-3.69637
-3.68309
-3.67205
-3.66283
-3.65525
-3.64907
-3.64409
-3.64011
-3.63698
-3.63455
-3.63273
-3.63142
-3.63057
-3.63015
-3.942
-3.91798
-3.89631
-3.87702
-3.86006
-3.84533
-3.83266
-3.82188
-3.81279
-3.80518
-3.79885
-3.79366
-3.78944
-3.78606
-3.78341
-3.78139
-3.77993
-3.77898
-3.7785
-4.07909
-4.05789
-4.03855
-4.02114
-4.00563
-3.99198
-3.98008
-3.9698
-3.96101
-3.95354
-3.94727
-3.94204
-3.93773
-3.93424
-3.93148
-3.92935
-3.9278
-3.92679
-3.92628
-4.21457
-4.19594
-4.1788
-4.1632
-4.14917
-4.13666
-4.12564
-4.11601
-4.10766
-4.1005
-4.0944
-4.08927
-4.08501
-4.08151
-4.07873
-4.07657
-4.075
-4.07396
-4.07344
-4.34881
-4.33253
-4.31743
-4.30357
-4.29098
-4.27966
-4.26958
-4.26069
-4.2529
-4.24615
-4.24035
-4.23543
-4.2313
-4.22789
-4.2252
-4.22307
-4.22151
-4.22048
-4.21996
-4.48208
-4.46795
-4.45475
-4.44254
-4.43136
-4.42123
-4.41214
-4.40404
-4.39689
-4.39064
-4.38523
-4.38061
-4.37671
-4.37348
-4.37088
-4.36884
-4.36734
-4.36635
-4.36585
-4.61462
-4.60245
-4.591
-4.58036
-4.57055
-4.5616
-4.5535
-4.54623
-4.53978
-4.5341
-4.52916
-4.5249
-4.52129
-4.51829
-4.51585
-4.51394
-4.51254
-4.5116
-4.51114
-4.74658
-4.73621
-4.72641
-4.71724
-4.70875
-4.70095
-4.69385
-4.68745
-4.68173
-4.67667
-4.67224
-4.6684
-4.66514
-4.66241
-4.66018
-4.65843
-4.65714
-4.65628
-4.65586
-4.87812
-4.86941
-4.86115
-4.85338
-4.84615
-4.83948
-4.83338
-4.82785
-4.82288
-4.81847
-4.81459
-4.81122
-4.80833
-4.80591
-4.80392
-4.80236
-4.8012
-4.80043
-4.80006
-5.00934
-5.00218
-4.99536
-4.98893
-4.98291
-4.97734
-4.97222
-4.96757
-4.96337
-4.95962
-4.95631
-4.95343
-4.95095
-4.94886
-4.94714
-4.94579
-4.94478
-4.94412
-4.9438
-5.14035
-5.13464
-5.12918
-5.12401
-5.11917
-5.11467
-5.11052
-5.10673
-5.1033
-5.10023
-5.09751
-5.09513
-5.09308
-5.09135
-5.08992
-5.08879
-5.08796
-5.0874
-5.08714
-5.27121
-5.26687
-5.26271
-5.25876
-5.25505
-5.25158
-5.24838
-5.24545
-5.24279
-5.2404
-5.23828
-5.23642
-5.23481
-5.23345
-5.23233
-5.23144
-5.23078
-5.23034
-5.23014
-5.402
-5.39896
-5.39604
-5.39326
-5.39064
-5.3882
-5.38593
-5.38384
-5.38195
-5.38024
-5.37872
-5.37739
-5.37624
-5.37526
-5.37445
-5.37381
-5.37334
-5.37302
-5.37288
-5.53276
-5.53097
-5.52925
-5.52761
-5.52605
-5.5246
-5.52325
-5.522
-5.52087
-5.51985
-5.51894
-5.51814
-5.51744
-5.51686
-5.51637
-5.51598
-5.5157
-5.5155
-5.51543
-5.66358
-5.66299
-5.66243
-5.66189
-5.66138
-5.66091
-5.66046
-5.66005
-5.65967
-5.65933
-5.65903
-5.65876
-5.65853
-5.65834
-5.65817
-5.65804
-5.65795
-5.65788
-5.65786
)
;

boundaryField
{
    leftWall
    {
        type            calculated;
        value           nonuniform List<scalar> 
50
(
2443.19
2382.69
2320.54
2256.77
2191.39
2124.44
2055.99
1986.11
1874.66
1717.21
1554.8
1388.28
1218.59
1046.71
873.583
700.347
528.838
359.54
190.192
50.5669
-0.369879
-2.7856
-2.90631
-3.0268
-3.14133
-3.24827
-3.34773
-3.44231
-3.53428
-3.62488
-3.7154
-3.80707
-3.90079
-3.99687
-4.09513
-4.19518
-4.29666
-4.39936
-4.50318
-4.60811
-4.7141
-4.82115
-4.92921
-5.03816
-5.14788
-5.25832
-5.3695
-5.4813
-5.59354
-5.70572
)
;
    }
    rightWall
    {
        type            calculated;
        value           nonuniform List<scalar> 
50
(
0.710225
0.650525
0.590022
0.52874
0.466703
0.403945
0.340504
0.276436
0.175448
0.0362468
-0.10414
-0.244893
-0.385239
-0.524531
-0.662275
-0.798287
-0.932676
-1.06578
-1.19812
-1.33034
-1.46308
-1.59691
-1.73232
-1.8697
-2.00923
-2.15092
-2.29462
-2.44007
-2.58697
-2.735
-2.88382
-3.03311
-3.1826
-3.33206
-3.4813
-3.63015
-3.7785
-3.92628
-4.07344
-4.21996
-4.36585
-4.51114
-4.65586
-4.80006
-4.9438
-5.08714
-5.23014
-5.37288
-5.51543
-5.65786
)
;
    }
    lowerWall
    {
        type            calculated;
        value           nonuniform List<scalar> 
62
(
2472.62
2480.1
2481.96
2479.67
2475.82
2471.55
2466.8
2461.47
2455.66
2449.75
2444.63
2441.97
2444.61
2456.93
2485.42
2539.08
2630.41
2769.95
2961.25
3188.76
3404.15
3522.1
3574.15
3553.55
3529.51
3551.7
3512.97
3395.73
3190.93
2867.45
2371.56
23.0089
1.86692
1.65091
0.76122
1.44733
1.39784
1.35443
1.31841
1.28921
1.26529
1.23292
1.1838
1.47676
1.43248
1.36041
1.27658
1.19176
1.11244
1.04193
0.981174
0.929798
0.887044
0.851781
0.823026
0.799745
0.781113
0.766537
0.755443
0.747458
0.742311
0.739655
)
;
    }
    atmosphere
    {
        type            calculated;
        value           nonuniform List<scalar> 
46
(
-5.76162
-5.76178
-5.76088
-5.75953
-5.75776
-5.75565
-5.75326
-5.75066
-5.74794
-5.74518
-5.74246
-5.73985
-5.73743
-5.73525
-5.73336
-5.7318
-5.73058
-5.72972
-5.72921
-5.72904
-5.72904
-5.72904
-5.72904
-5.72904
-5.72904
-5.72904
-5.72904
-5.72904
-5.72904
-5.72904
-5.72904
-5.72904
-5.72904
-5.72904
-5.72904
-5.72904
-5.72904
-5.72904
-5.72904
-5.72904
-5.72904
-5.72904
-5.72904
-5.72904
-5.72904
-5.72904
)
;
    }
    defaultFaces
    {
        type            empty;
    }
}


// ************************************************************************* //
