/*--------------------------------*- C++ -*----------------------------------*\
| =========                 |                                                 |
| \\      /  F ield         | OpenFOAM: The Open Source CFD Toolbox           |
|  \\    /   O peration     | Version:  2206                                  |
|   \\  /    A nd           | Website:  www.openfoam.com                      |
|    \\/     M anipulation  |                                                 |
\*---------------------------------------------------------------------------*/
FoamFile
{
    version     2.0;
    format      ascii;
    arch        "LSB;label=32;scalar=64";
    class       volScalarField;
    location    "0.175";
    object      p_rgh;
}
// * * * * * * * * * * * * * * * * * * * * * * * * * * * * * * * * * * * * * //

dimensions      [1 -1 -2 0 0 0 0];

internalField   nonuniform List<scalar> 
2268
(
2472.62
2480.1
2481.96
2479.67
2475.82
2471.55
2466.8
2461.47
2455.66
2449.75
2444.63
2441.97
2444.61
2456.93
2485.42
2539.08
2630.41
2769.95
2961.25
3188.76
3404.15
3522.1
3574.15
2470.98
2478.38
2480.14
2477.81
2473.96
2469.64
2464.8
2459.32
2453.3
2447.1
2441.56
2438.33
2440.19
2451.45
2478.41
2529.56
2614.12
2743.2
2924.05
3149.54
3381.95
3521.83
3599.87
2467.69
2474.93
2476.5
2474.1
2470.23
2465.81
2460.78
2455.02
2448.58
2441.78
2435.41
2431.03
2431.32
2440.43
2464.5
2511.77
2592.04
2713.9
2882.82
3092.57
3326.3
3520.91
3677.34
2462.77
2469.8
2471.1
2468.57
2464.65
2460.08
2454.78
2448.59
2441.53
2433.83
2426.21
2420.1
2418.01
2423.9
2443.68
2485.48
2558.97
2672.8
2832.49
3032.3
3261.94
3490.12
3693.71
2456.25
2463.01
2463.96
2461.27
2457.25
2452.5
2446.83
2440.07
2432.17
2423.28
2413.99
2405.58
2400.29
2401.81
2415.83
2450.26
2514.77
2618.32
2767.62
2960.82
3187.52
3421.06
3628.05
2448.17
2454.63
2455.16
2452.24
2448.1
2443.1
2436.98
2429.5
2420.56
2410.18
2398.81
2387.48
2378.14
2374.1
2380.73
2405.68
2458.61
2549.08
2684.83
2868.4
3089.27
3311.62
3475.67
2438.57
2444.68
2444.7
2441.51
2437.23
2431.94
2425.27
2416.94
2406.75
2394.62
2380.77
2365.96
2351.74
2340.95
2338.47
2351.52
2389.62
2462.95
2580.31
2747.49
2952.92
3147.69
3235.31
2427.55
2433.16
2432.59
2429.1
2424.66
2419.04
2411.74
2402.44
2390.85
2376.72
2360.07
2341.3
2321.45
2302.82
2289.58
2288.22
2307.9
2358.89
2449.76
2590.09
2768.75
2926.82
2813
1.47676
1.43248
1.36041
1.27658
1.19176
1.11244
1.04193
0.981174
0.929798
0.887044
0.851781
0.823026
0.799745
0.781113
0.766537
0.755443
0.747458
0.742311
0.739655
1.48612
1.43792
1.36209
1.27579
1.18965
1.10978
1.03906
0.978315
0.927129
0.884655
0.849684
0.821195
0.798171
0.779754
0.765349
0.754403
0.746519
0.74143
0.738813
1.50157
1.44786
1.3659
1.27516
1.1861
1.10462
1.03327
0.972551
0.921763
0.879837
0.845466
0.817541
0.795032
0.777057
0.763011
0.752354
0.744673
0.739715
0.737169
1.52442
1.4624
1.37095
1.27353
1.18018
1.09647
1.02433
0.963765
0.913613
0.872556
0.839118
0.812066
0.790343
0.773047
0.75955
0.749323
0.741954
0.737189
0.734745
1.55407
1.48061
1.3758
1.26979
1.17114
1.08484
1.01193
0.951748
0.902582
0.862778
0.830636
0.804781
0.784129
0.767753
0.754992
0.745333
0.738377
0.733874
0.731567
1.58902
1.50095
1.37834
1.26254
1.15793
1.06902
0.995632
0.93625
0.888549
0.850453
0.820019
0.795729
0.776447
0.761224
0.749377
0.74042
0.733979
0.729804
0.727668
1.6155
1.51816
1.37547
1.24993
1.13936
1.0482
0.974891
0.916946
0.871357
0.835538
0.80729
0.784956
0.767345
0.753503
0.742753
0.734639
0.728807
0.725022
0.723086
1.62524
1.53198
1.36377
1.22978
1.11393
1.02149
0.949209
0.893601
0.850917
0.81803
0.792495
0.772529
0.7569
0.744677
0.735207
0.728061
0.722921
0.719579
0.717876
2408.13
2412.72
2411.34
2407.35
2402.5
2396.23
2387.77
2376.71
2362.61
2344.94
2323.26
2297.33
2267.3
2234.22
2200.67
2171.65
2155.77
2163.32
2199.83
2283.44
2387.76
2426.43
1758.36
2375.87
2379.12
2376.51
2371.7
2365.98
2358.32
2347.77
2333.7
2315.35
2291.67
2261.44
2223.16
2175.09
2115.25
2042.88
1958.89
1863.2
1756.04
1646.12
1519.13
1440.5
1553.67
1305.68
2338.66
2340.38
2336.4
2330.69
2323.86
2314.47
2301.43
2283.94
2260.85
2230.52
2190.86
2138.83
2069.83
1978.56
1861.38
1709.68
1501.19
1196.02
763.499
428.772
301.607
432.122
892.78
2297.33
2297.42
2292.08
2285.39
2277.21
2265.79
2250
2228.85
2200.81
2163.69
2114.57
2048.14
1957.16
1834.67
1671.31
1443.03
1052.76
425.588
25.9749
8.29956
18.975
49.9465
688.475
2252.83
2251.24
2244.65
2236.93
2227.17
2213.52
2194.87
2170.06
2137.17
2093.77
2035.76
1955.47
1846.3
1695.5
1479.46
1048.46
249.879
4.05762
-3.10569
-4.33628
-3.26774
3.04879
143.469
2206.15
2202.97
2195.32
2186.49
2175
2159.02
2137.55
2109.22
2071.96
2023.3
1957.34
1867.22
1746.25
1560.76
1148.35
238.436
2.51744
-4.23482
-5.40566
-5.82683
-5.96556
-5.12634
4.43461
2158.22
2153.56
2145.11
2135.11
2121.82
2103.54
2079.37
2047.81
2007.04
1954.3
1883.12
1790.58
1654.6
1339.18
265.207
1.73399
-3.78136
-4.77668
-5.18284
-5.62442
-5.94753
-6.05898
-3.83675
2110.17
2104.02
2095.05
2083.9
2068.86
2048.46
2021.91
1987.66
1944.18
1887.98
1814.82
1718.96
1553.5
367.876
2.68515
-3.20304
-4.16765
-4.51672
-4.85048
-5.21801
-5.49605
-5.73443
-5.29408
2063.82
2056.16
2046.97
2034.72
2018.07
1995.72
1966.94
1930.06
1882.84
1820.59
1742
1551.48
777.872
18.1812
-2.40942
-3.47549
-3.89062
-4.16594
-4.45823
-4.76269
-5.02627
-5.24215
-5.54619
2019.28
2009.97
2000.91
1987.25
1968.69
1943.65
1911.06
1869.22
1790.82
1563.01
1111.84
490.931
-1.48951
-0.466914
-2.43342
-3.14683
-3.51272
-3.80799
-4.06332
-4.30982
-4.55078
-4.75978
-4.45006
1970.97
1949.73
1940.96
1912.56
1857.26
1753.51
1572.75
1284.19
847.27
371.728
37.4846
-2.45948
-1.93772
3.59299
8.33564
-1.94659
-3.32391
-3.52969
-3.69619
-3.85882
-4.0265
-4.16853
-3.70068
1339.83
1096.39
1068.33
915.781
715.174
494.352
277.155
89.1727
-1.43725
-1.83431
-2.00509
-2.09111
-2.06333
6.08201
12.5393
1.81797
-3.34466
-3.34441
-3.37861
-3.43131
-3.48004
-3.50007
-3.24321
76.302
7.59249
0.844064
-0.635617
-0.746472
-0.883725
-1.07109
-1.30481
-1.49134
-1.76177
-2.06284
-2.32257
-2.4044
-0.8804
13.823
4.56929
-3.41782
-3.20745
-3.11622
-3.05678
-2.98364
-2.86154
-2.63614
-0.624609
-0.609956
-0.638783
-0.685573
-0.756601
-0.868697
-1.02355
-1.22535
-1.46693
-1.79645
-2.2097
-2.62418
-2.88892
-2.89689
13.4842
4.84959
-3.40802
-3.08215
-2.89336
-2.73819
-2.5728
-2.35806
-2.05983
-0.620123
-0.624573
-0.64838
-0.691012
-0.755196
-0.850875
-0.986703
-1.17469
-1.43832
-1.83543
-2.36102
-2.42764
-3.24993
-3.33675
3.75989
3.91953
-3.37132
-2.93505
-2.67315
-2.45111
-2.22971
-1.96875
-1.64101
-0.615415
-0.628552
-0.648351
-0.68477
-0.740094
-0.820763
-0.938392
-1.11076
-1.38079
-1.82726
-1.96393
-1.09376
-1.92919
-3.45537
-0.791799
1.06267
-3.17777
-2.72781
-2.42401
-2.17118
-1.92717
-1.65446
-1.33382
-0.604753
-0.617503
-0.634402
-0.664603
-0.710416
-0.775515
-0.872638
-1.01806
-1.2632
-1.696
-1.31551
-0.924942
-1.44283
-1.41779
-1.88937
-3.44796
-2.85641
-2.43309
-2.13525
-1.88857
-1.64997
-1.38994
-1.09705
-0.5865
-0.595487
-0.610139
-0.63421
-0.66993
-0.72104
-0.794781
-0.904606
-1.0989
-1.45942
-1.35667
-0.198432
-0.582717
-1.98292
-3.15622
-2.83872
-2.36019
-2.05815
-1.81932
-1.6078
-1.39432
-1.16249
-0.907274
-0.560763
-0.567081
-0.579002
-0.597639
-0.624593
-0.662552
-0.715348
-0.791521
-0.92496
-1.17124
-1.53591
-1.65686
-1.75109
-2.34599
-2.32239
-2.10603
-1.85079
-1.67895
-1.50976
-1.34313
-1.16387
-0.966992
-0.751638
-0.530152
-0.534947
-0.544095
-0.558124
-0.578106
-0.60582
-0.643427
-0.695389
-0.779776
-0.927063
-1.14171
-1.3788
-1.57214
-1.64587
-1.64159
-1.55028
-1.44817
-1.35414
-1.23747
-1.10955
-0.963944
-0.801374
-0.623225
-0.496919
-0.500445
-0.507279
-0.517687
-0.532467
-0.552897
-0.580552
-0.617969
-0.673282
-0.760137
-0.882968
-1.02058
-1.13795
-1.20669
-1.21725
-1.19448
-1.15522
-1.09643
-1.01292
-0.9135
-0.7962
-0.663398
-0.517455
-0.462327
-0.464836
-0.469909
-0.477692
-0.488767
-0.50412
-0.525067
-0.553477
-0.593258
-0.649939
-0.725547
-0.811859
-0.890529
-0.943523
-0.965874
-0.959978
-0.937778
-0.894972
-0.83191
-0.752963
-0.658107
-0.549751
-0.430505
-0.427653
-0.429481
-0.433324
-0.439306
-0.447812
-0.459615
-0.47573
-0.497556
-0.527372
-0.567823
-0.619038
-0.675659
-0.727571
-0.765212
-0.784427
-0.785386
-0.76907
-0.735717
-0.686225
-0.62246
-0.545229
-0.456589
-0.359007
-0.394129
-0.395575
-0.398607
-0.403344
-0.410048
-0.419292
-0.431774
-0.448408
-0.470457
-0.499226
-0.53436
-0.572294
-0.607073
-0.633159
-0.647227
-0.648182
-0.635329
-0.608617
-0.568618
-0.516407
-0.453047
-0.38022
-0.30007
-0.362654
-0.363878
-0.366347
-0.370156
-0.375519
-0.382812
-0.392488
-0.405116
-0.421353
-0.441784
-0.465949
-0.4915
-0.5147
-0.531988
-0.540807
-0.539969
-0.528595
-0.506349
-0.473236
-0.429982
-0.377596
-0.317438
-0.251294
-0.333542
-0.334585
-0.336598
-0.339646
-0.343911
-0.349601
-0.357003
-0.366441
-0.378212
-0.392468
-0.40874
-0.425576
-0.440647
-0.451435
-0.456005
-0.45333
-0.442653
-0.423388
-0.395414
-0.359208
-0.315571
-0.265599
-0.210736
-0.306607
-0.307457
-0.309051
-0.311426
-0.314721
-0.319033
-0.32454
-0.33139
-0.339684
-0.349369
-0.360013
-0.37065
-0.379801
-0.38578
-0.387174
-0.383036
-0.372667
-0.355567
-0.331557
-0.300946
-0.264336
-0.22259
-0.176851
-0.281464
-0.282099
-0.283298
-0.285059
-0.28748
-0.290602
-0.294526
-0.29929
-0.304887
-0.311181
-0.317805
-0.324083
-0.329024
-0.331501
-0.330512
-0.325253
-0.315098
-0.299716
-0.278864
-0.252747
-0.221819
-0.186749
-0.148424
-0.25775
-0.258179
-0.259008
-0.260212
-0.261858
-0.263961
-0.266566
-0.26965
-0.273154
-0.276918
-0.280648
-0.283853
-0.285855
-0.285869
-0.283166
-0.277156
-0.267406
-0.253368
-0.235098
-0.212659
-0.186375
-0.156759
-0.124497
-0.235252
-0.235502
-0.23599
-0.236704
-0.23768
-0.238923
-0.240441
-0.242189
-0.244085
-0.245981
-0.247637
-0.248682
-0.248638
-0.246963
-0.243126
-0.236673
-0.227238
-0.214492
-0.19847
-0.179115
-0.156677
-0.131559
-0.104295
-0.213882
-0.213982
-0.214166
-0.214464
-0.214873
-0.215398
-0.216033
-0.216727
-0.217392
-0.217906
-0.218075
-0.217617
-0.216185
-0.2134
-0.208881
-0.20228
-0.19329
-0.181581
-0.167616
-0.150875
-0.131657
-0.110287
-0.0871829
-0.193609
-0.193584
-0.193513
-0.193464
-0.1934
-0.193336
-0.193264
-0.193129
-0.192858
-0.192353
-0.191461
-0.189965
-0.187618
-0.18415
-0.179287
-0.172774
-0.16443
-0.154239
-0.141558
-0.126955
-0.110447
-0.0922365
-0.0726347
-0.174413
-0.174283
-0.174011
-0.173673
-0.173225
-0.172687
-0.172051
-0.171269
-0.170289
-0.169038
-0.167391
-0.165193
-0.162267
-0.158417
-0.153443
-0.147155
-0.139407
-0.130113
-0.119093
-0.10647
-0.092326
-0.0768282
-0.0602167
-0.156267
-0.156051
-0.155624
-0.155044
-0.154288
-0.153373
-0.152288
-0.151005
-0.149494
-0.147697
-0.145523
-0.142863
-0.139593
-0.135573
-0.130653
-0.124695
-0.11759
-0.109265
-0.0996572
-0.0887956
-0.0767308
-0.063594
-0.0495702
-0.139126
-0.138842
-0.138291
-0.137513
-0.136513
-0.135296
-0.133855
-0.132188
-0.13028
-0.128089
-0.125553
-0.122604
-0.11916
-0.115119
-0.110372
-0.104823
-0.0983955
-0.0910357
-0.0827155
-0.0734267
-0.0632085
-0.0521525
-0.0403975
-0.122889
-0.122552
-0.121904
-0.120974
-0.119784
-0.118328
-0.116615
-0.11466
-0.112459
-0.109988
-0.107216
-0.104108
-0.100612
-0.0966577
-0.0921702
-0.0870859
-0.0813528
-0.0749302
-0.0677975
-0.0599435
-0.0513875
-0.0421895
-0.0324513
-0.107411
-0.107038
-0.106317
-0.10528
-0.103943
-0.102307
-0.100396
-0.0982343
-0.0958278
-0.0931735
-0.0902691
-0.0871038
-0.0836486
-0.0798598
-0.075693
-0.0711095
-0.0660751
-0.0605578
-0.0545374
-0.0480047
-0.0409639
-0.0334487
-0.0255285
-0.0926534
-0.0922599
-0.0914833
-0.0903642
-0.0889062
-0.0871303
-0.0850725
-0.0827612
-0.0802146
-0.0774527
-0.0744949
-0.0713486
-0.0680039
-0.0644408
-0.0606389
-0.0565794
-0.052241
-0.0475991
-0.0426335
-0.0373331
-0.0316928
-0.0257237
-0.0194659
-0.0786442
-0.0782511
-0.0774284
-0.0762363
-0.0746746
-0.0727854
-0.0706092
-0.06818
-0.065533
-0.0627091
-0.0597447
-0.056662
-0.0534693
-0.050168
-0.0467576
-0.0432335
-0.0395842
-0.0357916
-0.0318364
-0.0277041
-0.0233793
-0.0188514
-0.0141331
-0.0652444
-0.064867
-0.0640129
-0.0627648
-0.061129
-0.0591563
-0.0568902
-0.0543756
-0.0516654
-0.0488164
-0.0458779
-0.0428872
-0.0398713
-0.0368516
-0.0338442
-0.0308566
-0.0278861
-0.024921
-0.0219449
-0.0189388
-0.0158699
-0.0127031
-0.00942639
-0.0522915
-0.0519499
-0.051089
-0.0498065
-0.0481201
-0.0460854
-0.0437549
-0.0411873
-0.0384491
-0.0356077
-0.0327244
-0.0298515
-0.0270345
-0.0243126
-0.0217162
-0.0192644
-0.016964
-0.0148107
-0.0127912
-0.0108863
-0.00903953
-0.00717248
-0.00525681
-0.0392761
-0.039108
-0.0382528
-0.0369375
-0.0352049
-0.0331194
-0.0307459
-0.0281553
-0.0254233
-0.0226266
-0.0198388
-0.0171283
-0.0145569
-0.0121783
-0.010035
-0.00815681
-0.00656011
-0.00524773
-0.00421023
-0.00343757
-0.00281998
-0.00220294
-0.00157814
196.721
2.33809
2.12178
1.23209
342.013
4.58613
2.84334
2.2645
649.518
56.055
3.5972
2.58992
624.258
196.096
5.43658
2.3045
680.521
205.411
4.52885
0.183394
732.63
338.92
0.0777535
-3.71383
593.247
544.747
9.33996
-6.57553
151.206
533.359
276.747
9.92741
-3.43304
289.563
296.312
76.0108
-4.60104
33.3456
119.865
84.6074
-3.73935
0.928693
11.1566
14.8027
-2.45116
-0.0172969
4.96832
3.55651
-1.779
-0.237509
2.35346
2.33326
-1.45006
-0.199362
1.35632
1.67268
-1.10044
-0.158354
0.877341
1.24363
-0.855514
-0.131687
0.590983
0.934755
-0.686116
-0.119123
0.407325
0.708669
-0.562689
-0.116269
0.284162
0.541895
-0.46757
-0.114319
0.19943
0.418549
-0.391246
-0.109847
0.140777
0.327218
-0.328696
-0.102697
0.100383
0.258991
-0.276822
-0.0937804
0.0726163
0.207552
-0.233465
-0.0840458
0.0535199
0.168501
-0.197029
-0.0741614
0.0403983
0.138648
-0.16627
-0.0645447
0.0314439
0.115625
-0.140199
-0.0554541
0.0254025
0.0976851
-0.118026
-0.0470426
0.0213717
0.0835515
-0.0991298
-0.0393965
0.0186964
0.0722585
-0.0830115
-0.0325559
0.0169033
0.0630757
-0.0692601
-0.0265236
0.0156544
0.0554533
-0.0575269
-0.0212733
0.0147115
0.0489791
-0.0475138
-0.0167603
0.01391
0.0433457
-0.0389655
-0.0129282
0.0131397
0.0383255
-0.0316625
-0.00971445
0.0123291
0.0337487
-0.0254162
-0.00705579
0.0114327
0.0294861
-0.0200662
-0.00489242
0.0104207
0.0254372
-0.0154791
-0.00317139
0.00927316
0.0215224
-0.0115455
-0.0018475
0.00797611
0.0176781
-0.00817652
-0.00088231
0.00652001
0.0138534
-0.00530032
-0.0002442
0.00489696
0.010005
-0.00285162
9.98461e-05
0.00310694
0.00610269
-0.000800429
0.000152149
0.00112294
0.00209237
1.5438
1.51053
1.32422
1.18223
1.06037
0.968443
0.900147
0.850259
0.813753
0.786726
0.766384
0.750817
0.738789
0.729447
0.722221
0.716752
0.7128
0.710218
0.708915
1.80727
1.46493
1.23063
1.05448
0.934868
0.855276
0.803429
0.769997
0.748187
0.733558
0.723315
0.715784
0.710022
0.705499
0.701908
0.699104
0.697009
0.6956
0.694908
1.70543
1.24877
0.978421
0.819452
0.734066
0.692158
0.674417
0.669177
0.669575
0.672054
0.674815
0.677074
0.678624
0.679537
0.679951
0.680031
0.679922
0.67976
0.679717
1.07091
0.619618
0.465415
0.427276
0.441515
0.47748
0.517453
0.553558
0.583419
0.606925
0.624686
0.63766
0.646927
0.653403
0.657824
0.660733
0.662557
0.66359
0.664157
-0.541653
-0.658731
-0.397168
-0.132442
0.0745131
0.231663
0.349815
0.436428
0.499537
0.545248
0.577958
0.60118
0.617584
0.629095
0.637044
0.64241
0.645887
0.647935
0.649006
-2.98487
-2.37999
-1.47326
-0.755663
-0.292579
0.00263559
0.201676
0.337414
0.430707
0.495362
0.540192
0.57136
0.593183
0.608442
0.618971
0.626091
0.630757
0.633508
0.634909
-6.0341
-3.80427
-2.31965
-1.21068
-0.535441
-0.150047
0.106929
0.27706
0.389232
0.4645
0.515812
0.55113
0.575633
0.592672
0.604455
0.612464
0.617716
0.620864
0.622359
-6.56439
-4.76073
-2.65566
-1.31256
-0.582741
-0.15777
0.105763
0.273609
0.383584
0.457205
0.507292
0.541776
0.565705
0.582358
0.593906
0.60179
0.606973
0.610083
0.611541
-2.85106
-3.82767
-2.16363
-0.954921
-0.358934
-0.0245029
0.186592
0.3219
0.411283
0.471902
0.51362
0.542634
0.562941
0.577174
0.587098
0.593906
0.598393
0.601089
0.602347
6.10746
-1.16121
-0.788798
-0.261782
0.0287634
0.202659
0.322582
0.405005
0.4621
0.502333
0.530873
0.551188
0.565673
0.575975
0.583228
0.588228
0.591526
0.593513
0.594436
5.00865
0.55406
0.308487
0.34429
0.393208
0.431805
0.467433
0.497451
0.521145
0.539457
0.553355
0.563752
0.571437
0.577048
0.581063
0.583847
0.585681
0.586779
0.587288
2.06367
1.16151
0.840947
0.714065
0.645551
0.606669
0.587172
0.578349
0.575119
0.574646
0.57536
0.57646
0.577567
0.578508
0.579228
0.579725
0.580032
0.580198
0.580266
1.67614
1.29941
1.06121
0.899363
0.790753
0.717883
0.669585
0.637004
0.615779
0.601814
0.592472
0.586117
0.581728
0.578638
0.576436
0.574864
0.573768
0.573067
0.572722
1.45462
1.26518
1.09618
0.956367
0.849394
0.769725
0.71114
0.6696
0.639502
0.617745
0.602005
0.59058
0.582246
0.576116
0.571646
0.568426
0.566188
0.564771
0.564083
1.21492
1.13266
1.03062
0.931513
0.846047
0.776326
0.721207
0.678709
0.646189
0.621462
0.602757
0.588639
0.577998
0.570041
0.564109
0.559775
0.556743
0.554816
0.553872
0.989936
0.972567
0.923887
0.863865
0.804503
0.751141
0.705629
0.668131
0.637889
0.613855
0.594956
0.580212
0.56879
0.560022
0.553377
0.548459
0.544986
0.54277
0.541689
0.79906
0.819136
0.807303
0.778419
0.742854
0.706588
0.672825
0.643062
0.617734
0.596692
0.579511
0.56567
0.554655
0.546004
0.539328
0.534319
0.530749
0.528459
0.527345
0.64427
0.684349
0.696039
0.68962
0.673134
0.652011
0.629743
0.608411
0.589095
0.572238
0.55791
0.545975
0.536206
0.528353
0.522177
0.517476
0.514093
0.511911
0.510849
0.521336
0.570748
0.596353
0.605044
0.602718
0.593838
0.581621
0.568227
0.555
0.542712
0.53175
0.522259
0.514242
0.507628
0.502319
0.498216
0.495232
0.493296
0.492352
0.424553
0.476907
0.509932
0.528156
0.535746
0.536167
0.532124
0.52559
0.517934
0.51006
0.502528
0.49566
0.48962
0.484478
0.480252
0.476927
0.474479
0.472879
0.472096
0.34838
0.400089
0.436357
0.460122
0.474272
0.481395
0.483638
0.482681
0.479786
0.47586
0.471529
0.467206
0.463161
0.45956
0.456502
0.454041
0.452198
0.450983
0.450386
0.288353
0.337459
0.374337
0.400889
0.419074
0.430758
0.437591
0.440942
0.441903
0.441311
0.439784
0.437772
0.435598
0.433485
0.431585
0.429995
0.428773
0.427956
0.427554
0.240757
0.286378
0.322296
0.349792
0.370166
0.384734
0.394734
0.401249
0.405185
0.407271
0.408081
0.408061
0.407549
0.406793
0.405969
0.405202
0.404575
0.404143
0.403931
0.202799
0.244577
0.278664
0.305906
0.327152
0.343333
0.35536
0.364066
0.370181
0.374319
0.376993
0.378617
0.379515
0.379934
0.380061
0.380031
0.379945
0.379866
0.379832
0.172336
0.210189
0.24201
0.268226
0.28944
0.306302
0.319471
0.329572
0.337187
0.342821
0.346915
0.349835
0.351874
0.353266
0.354193
0.354796
0.355181
0.35541
0.355531
0.147691
0.181735
0.211029
0.235803
0.256387
0.273256
0.286893
0.297765
0.306323
0.312978
0.318094
0.321981
0.324898
0.327058
0.328632
0.329754
0.33053
0.331016
0.331266
0.127543
0.157995
0.184691
0.207738
0.227333
0.243764
0.257372
0.268526
0.277586
0.284865
0.290657
0.295218
0.298772
0.301506
0.303576
0.305104
0.306187
0.306878
0.307229
0.110879
0.137987
0.162123
0.183312
0.201659
0.217352
0.230631
0.241666
0.250893
0.258474
0.264648
0.269632
0.273609
0.276743
0.279168
0.280993
0.282303
0.283146
0.283573
0.0969094
0.120936
0.142605
0.161897
0.178854
0.193588
0.206258
0.217033
0.226122
0.233739
0.240059
0.245254
0.249471
0.25285
0.255503
0.257524
0.258985
0.259933
0.260413
0.0850192
0.106222
0.125554
0.14297
0.158474
0.172127
0.184029
0.194305
0.203099
0.210563
0.216835
0.22207
0.226374
0.229864
0.232633
0.234759
0.236307
0.237316
0.237826
0.0747339
0.0933587
0.110501
0.1261
0.140137
0.152638
0.163663
0.173297
0.181641
0.188807
0.194904
0.200037
0.204297
0.207789
0.21057
0.212728
0.214306
0.215339
0.21586
0.0656898
0.0819656
0.0970673
0.110929
0.123516
0.134833
0.144913
0.15381
0.161596
0.168348
0.174146
0.179071
0.183199
0.186606
0.189294
0.19143
0.192991
0.194018
0.194533
0.0576073
0.0717406
0.0849458
0.0971564
0.108331
0.118459
0.127556
0.135656
0.142803
0.149052
0.15446
0.159085
0.162985
0.166214
0.168815
0.170852
0.172351
0.173342
0.17384
0.0502678
0.0624413
0.0738833
0.0845302
0.0943386
0.103291
0.11139
0.118652
0.125105
0.130785
0.135731
0.139986
0.143593
0.146595
0.149032
0.150942
0.152351
0.153284
0.153751
0.0434972
0.05387
0.0636694
0.0728373
0.0813312
0.0891297
0.0962265
0.102628
0.108349
0.113412
0.117844
0.121676
0.124941
0.127672
0.129899
0.131649
0.132944
0.133802
0.134226
0.0371547
0.0458639
0.0541278
0.0618946
0.0691249
0.0757958
0.0818962
0.0874256
0.0923908
0.0968055
0.100688
0.10406
0.106946
0.10937
0.111354
0.112917
0.114076
0.114845
0.115218
0.0311257
0.0382876
0.0451087
0.0515442
0.0575591
0.0631308
0.0682469
0.072903
0.0771013
0.0808492
0.0841587
0.0870445
0.0895233
0.0916121
0.0933268
0.0946811
0.0956856
0.0963546
0.0966716
0.0253157
0.0310279
0.0364854
0.0416508
0.0464946
0.0509968
0.0551453
0.0589342
0.0623627
0.0654343
0.0681556
0.0705361
0.0725868
0.0743191
0.0757443
0.0768718
0.0777088
0.0782687
0.078527
0.0196468
0.0239902
0.0281508
0.0320995
0.0358129
0.0392746
0.0424742
0.0454055
0.048066
0.0504562
0.0525794
0.054441
0.056048
0.0574081
0.0585288
0.0594167
0.0600761
0.0605203
0.0607179
0.0140529
0.0170937
0.0200134
0.022791
0.0254097
0.0278574
0.0301257
0.0322092
0.0341047
0.0358111
0.0373297
0.0386634
0.0398163
0.0407935
0.0415998
0.0422393
0.0427141
0.0430377
0.043174
0.0084836
0.0102752
0.011999
0.0136426
0.0151957
0.0166506
0.018002
0.0192456
0.020379
0.0214008
0.0223112
0.0231116
0.0238044
0.0243922
0.0248778
0.0252633
0.025549
0.0257487
0.0258229
0.00286533
0.00344816
0.00401066
0.00454849
0.0050582
0.0055371
0.00598311
0.00639458
0.00677035
0.00710974
0.00741261
0.00767927
0.00791039
0.00810679
0.00826924
0.00839843
0.00849322
0.0085621
0.0085853
)
;

boundaryField
{
    leftWall
    {
        type            fixedFluxPressure;
        gradient        uniform 0;
        value           nonuniform List<scalar> 
50
(
2472.62
2470.98
2467.69
2462.77
2456.25
2448.17
2438.57
2427.55
2408.13
2375.87
2338.66
2297.33
2252.83
2206.15
2158.22
2110.17
2063.82
2019.28
1970.97
1339.83
76.302
-0.624609
-0.620123
-0.615415
-0.604753
-0.5865
-0.560763
-0.530152
-0.496919
-0.462327
-0.427653
-0.394129
-0.362654
-0.333542
-0.306607
-0.281464
-0.25775
-0.235252
-0.213882
-0.193609
-0.174413
-0.156267
-0.139126
-0.122889
-0.107411
-0.0926534
-0.0786442
-0.0652444
-0.0522915
-0.0392761
)
;
    }
    rightWall
    {
        type            fixedFluxPressure;
        gradient        uniform 0;
        value           nonuniform List<scalar> 
50
(
0.739655
0.738813
0.737169
0.734745
0.731567
0.727668
0.723086
0.717876
0.708915
0.694908
0.679717
0.664157
0.649006
0.634909
0.622359
0.611541
0.602347
0.594436
0.587288
0.580266
0.572722
0.564083
0.553872
0.541689
0.527345
0.510849
0.492352
0.472096
0.450386
0.427554
0.403931
0.379832
0.355531
0.331266
0.307229
0.283573
0.260413
0.237826
0.21586
0.194533
0.17384
0.153751
0.134226
0.115218
0.0966716
0.078527
0.0607179
0.043174
0.0258229
0.0085853
)
;
    }
    lowerWall
    {
        type            fixedFluxPressure;
        gradient        uniform 0;
        value           nonuniform List<scalar> 
62
(
2472.62
2480.1
2481.96
2479.67
2475.82
2471.55
2466.8
2461.47
2455.66
2449.75
2444.63
2441.97
2444.61
2456.93
2485.42
2539.08
2630.41
2769.95
2961.25
3188.76
3404.15
3522.1
3574.15
3574.15
3599.87
3677.34
3693.71
3628.05
3475.67
3235.31
2813
196.721
2.33809
2.12178
1.23209
1.47676
1.48612
1.50157
1.52442
1.55407
1.58902
1.6155
1.62524
1.47676
1.43248
1.36041
1.27658
1.19176
1.11244
1.04193
0.981174
0.929798
0.887044
0.851781
0.823026
0.799745
0.781113
0.766537
0.755443
0.747458
0.742311
0.739655
)
;
    }
    atmosphere
    {
        type            totalPressure;
        rho             rho;
        psi             none;
        gamma           1;
        p0              uniform 0;
        value           nonuniform List<scalar> 
46
(
-0.0325845
-0.0327388
-0.0318392
-0.0304862
-0.0287217
-0.0266091
-0.0242172
-0.0216215
-0.0189018
-0.0161399
-0.0134167
-0.0108087
-0.00838545
-0.00620627
-0.00431859
-0.00275656
-0.00154066
-0.000678558
-0.000167725
0
0
0
0
0
0
0
0
0
0
0
0
0
0
0
0
0
0
0
0
0
0
0
0
0
0
0
)
;
    }
    defaultFaces
    {
        type            empty;
    }
}


// ************************************************************************* //
