/*--------------------------------*- C++ -*----------------------------------*\
| =========                 |                                                 |
| \\      /  F ield         | OpenFOAM: The Open Source CFD Toolbox           |
|  \\    /   O peration     | Version:  2206                                  |
|   \\  /    A nd           | Website:  www.openfoam.com                      |
|    \\/     M anipulation  |                                                 |
\*---------------------------------------------------------------------------*/
FoamFile
{
    version     2.0;
    format      ascii;
    arch        "LSB;label=32;scalar=64";
    class       surfaceScalarField;
    location    "0.175";
    object      phi;
}
// * * * * * * * * * * * * * * * * * * * * * * * * * * * * * * * * * * * * * //

dimensions      [0 3 -1 0 0 0 0];

oriented        oriented;

internalField   nonuniform List<scalar> 
4432
(
3.20508e-06
-3.20508e-06
9.5742e-06
-6.36914e-06
1.62014e-05
-6.62714e-06
2.23688e-05
-6.16742e-06
2.82467e-05
-5.8779e-06
3.40952e-05
-5.84857e-06
4.00718e-05
-5.97656e-06
4.62323e-05
-6.16054e-06
5.25656e-05
-6.33325e-06
5.90162e-05
-6.4506e-06
6.54885e-05
-6.47234e-06
7.18397e-05
-6.35121e-06
7.78631e-05
-6.02339e-06
8.32534e-05
-5.39023e-06
8.75439e-05
-4.29058e-06
9.00167e-05
-2.47277e-06
8.91851e-05
8.31651e-07
8.25421e-05
6.64291e-06
6.75896e-05
1.49526e-05
4.22728e-05
2.53167e-05
1.03111e-05
3.19618e-05
-1.48823e-05
2.51934e-05
-1.48823e-05
3.25168e-06
-6.45676e-06
9.60597e-06
-1.27235e-05
1.62328e-05
-1.3254e-05
2.24122e-05
-1.23468e-05
2.82988e-05
-1.17645e-05
3.41593e-05
-1.17091e-05
4.01538e-05
-1.19711e-05
4.63365e-05
-1.23432e-05
5.26963e-05
-1.26931e-05
5.91817e-05
-1.2936e-05
6.57005e-05
-1.29911e-05
7.21127e-05
-1.27634e-05
7.82176e-05
-1.21283e-05
8.37214e-05
-1.0894e-05
8.82014e-05
-8.77062e-06
9.10895e-05
-5.36078e-06
9.22276e-05
-3.06528e-07
9.16459e-05
7.22464e-06
8.79746e-05
1.86239e-05
7.73695e-05
3.59218e-05
5.43007e-05
5.50306e-05
2.38659e-05
5.56281e-05
8.98362e-06
3.29863e-06
-9.75538e-06
9.62145e-06
-1.90463e-05
1.61978e-05
-1.98304e-05
2.23383e-05
-1.84873e-05
2.82e-05
-1.76262e-05
3.40506e-05
-1.75596e-05
4.00479e-05
-1.79685e-05
4.62427e-05
-1.8538e-05
5.26252e-05
-1.90755e-05
5.91489e-05
-1.94597e-05
6.57288e-05
-1.9571e-05
7.22352e-05
-1.92698e-05
7.84814e-05
-1.83746e-05
8.41915e-05
-1.6604e-05
8.89661e-05
-1.35453e-05
9.22709e-05
-8.66554e-06
9.33787e-05
-1.4144e-06
9.17373e-05
8.86603e-06
8.75149e-05
2.28463e-05
8.15789e-05
4.18578e-05
6.96641e-05
6.69454e-05
4.24148e-05
8.28774e-05
5.13984e-05
3.36272e-06
-1.31181e-05
9.6554e-06
-2.53389e-05
1.61595e-05
-2.63345e-05
2.22384e-05
-2.45662e-05
2.80663e-05
-2.3454e-05
3.39088e-05
-2.34022e-05
3.99169e-05
-2.39765e-05
4.61364e-05
-2.47575e-05
5.256e-05
-2.54991e-05
5.91483e-05
-2.6048e-05
6.58275e-05
-2.62501e-05
7.24854e-05
-2.59277e-05
7.89552e-05
-2.48443e-05
8.49775e-05
-2.26263e-05
9.01723e-05
-1.87401e-05
9.40347e-05
-1.2528e-05
9.58836e-05
-3.26334e-06
9.49024e-05
9.84727e-06
9.03324e-05
2.74163e-05
8.26398e-05
4.95504e-05
7.18055e-05
7.77797e-05
4.78336e-05
0.000106849
9.9232e-05
3.44549e-06
-1.65636e-05
9.70426e-06
-3.15977e-05
1.61139e-05
-3.27441e-05
2.21109e-05
-3.05631e-05
2.78972e-05
-2.92404e-05
3.37339e-05
-2.92388e-05
3.97591e-05
-3.00017e-05
4.60128e-05
-3.10112e-05
5.24911e-05
-3.19775e-05
5.91639e-05
-3.27208e-05
6.59727e-05
-3.30589e-05
7.28295e-05
-3.27846e-05
7.95912e-05
-3.1606e-05
8.60147e-05
-2.90498e-05
9.17457e-05
-2.44711e-05
9.63292e-05
-1.71115e-05
9.91473e-05
-6.08147e-06
9.93212e-05
9.67332e-06
9.57731e-05
3.09645e-05
8.71073e-05
5.82161e-05
7.35918e-05
9.12952e-05
4.9307e-05
0.000131134
0.000148539
3.55042e-06
-2.0114e-05
9.76408e-06
-3.78113e-05
1.60536e-05
-3.90337e-05
2.19498e-05
-3.64593e-05
2.76877e-05
-3.49784e-05
3.35179e-05
-3.5069e-05
3.9561e-05
-3.60448e-05
4.58504e-05
-3.73006e-05
5.23877e-05
-3.85148e-05
5.91544e-05
-3.94875e-05
6.6112e-05
-4.00166e-05
7.32015e-05
-3.9874e-05
8.03053e-05
-3.87098e-05
8.72029e-05
-3.59474e-05
9.35785e-05
-3.08467e-05
9.90372e-05
-2.25702e-05
0.000103015
-1.0059e-05
0.000104562
8.12563e-06
0.000102487
3.30397e-05
9.45403e-05
6.61631e-05
7.88793e-05
0.000106956
5.25073e-05
0.000157506
0.000201046
3.67563e-06
-2.37896e-05
9.82387e-06
-4.39595e-05
1.59668e-05
-4.51766e-05
2.17463e-05
-4.22388e-05
2.74284e-05
-4.06605e-05
3.32471e-05
-4.08877e-05
3.93027e-05
-4.21003e-05
4.56226e-05
-4.36206e-05
5.22161e-05
-4.51083e-05
5.90795e-05
-4.63509e-05
6.61992e-05
-4.71362e-05
7.35457e-05
-4.72205e-05
8.10276e-05
-4.61917e-05
8.84615e-05
-4.33812e-05
9.55971e-05
-3.79823e-05
0.000102109
-2.90821e-05
0.000107458
-1.54082e-05
0.000110659
4.92459e-06
0.000110505
3.31943e-05
0.000104289
7.23788e-05
8.81322e-05
0.000123113
6.04887e-05
0.00018515
0.000261535
3.81145e-06
-2.76011e-05
9.86355e-06
-5.00116e-05
1.58431e-05
-5.11562e-05
2.14971e-05
-4.78928e-05
2.71157e-05
-4.62791e-05
3.29143e-05
-4.66863e-05
3.89725e-05
-4.81586e-05
4.53138e-05
-4.99618e-05
5.19568e-05
-5.17513e-05
5.89159e-05
-5.331e-05
6.6205e-05
-5.44254e-05
7.38225e-05
-5.4838e-05
8.1704e-05
-5.40732e-05
8.97231e-05
-5.14004e-05
9.77193e-05
-4.59784e-05
0.000105431
-3.67935e-05
0.000112377
-2.23542e-05
0.00011767
-3.69191e-07
0.000120069
3.07953e-05
0.000116189
7.62589e-05
0.000101376
0.000137926
7.20216e-05
0.000214504
0.000333557
-7.03213e-06
7.03213e-06
-1.25441e-05
5.51212e-06
-1.65949e-05
4.05063e-06
-1.89363e-05
2.34113e-06
-1.9766e-05
8.29708e-07
-1.94903e-05
-2.75726e-07
-1.85104e-05
-9.79673e-07
-1.71089e-05
-1.40155e-06
-1.54753e-05
-1.63327e-06
-1.37356e-05
-1.73955e-06
-1.19765e-05
-1.7597e-06
-1.02554e-05
-1.72065e-06
-8.59829e-06
-1.65715e-06
-7.02228e-06
-1.5767e-06
-5.50972e-06
-1.51231e-06
-4.06846e-06
-1.44135e-06
-2.6844e-06
-1.3845e-06
-1.32275e-06
-1.36143e-06
-1.32282e-06
-9.00712e-06
1.6039e-05
-1.47924e-05
1.12974e-05
-1.81865e-05
7.44468e-06
-1.97646e-05
3.91896e-06
-2.01156e-05
1.18078e-06
-1.95898e-05
-8.01339e-07
-1.84341e-05
-2.13478e-06
-1.68918e-05
-2.94402e-06
-1.51569e-05
-3.36874e-06
-1.33576e-05
-3.5381e-06
-1.15767e-05
-3.54104e-06
-9.85846e-06
-3.4394e-06
-8.2243e-06
-3.29094e-06
-6.68012e-06
-3.12107e-06
-5.23023e-06
-2.96226e-06
-3.85592e-06
-2.81546e-06
-2.53943e-06
-2.70116e-06
-1.25175e-06
-2.64946e-06
-2.57447e-06
-9.48384e-06
2.55227e-05
-1.52962e-05
1.71097e-05
-1.87452e-05
1.08938e-05
-2.03673e-05
5.54096e-06
-2.06475e-05
1.46101e-06
-1.99741e-05
-1.47455e-06
-1.8698e-05
-3.41091e-06
-1.70752e-05
-4.56692e-06
-1.52873e-05
-5.15663e-06
-1.34499e-05
-5.37487e-06
-1.16395e-05
-5.3516e-06
-9.9024e-06
-5.17669e-06
-8.25368e-06
-4.93913e-06
-6.70104e-06
-4.67372e-06
-5.24274e-06
-4.42073e-06
-3.86232e-06
-4.19579e-06
-2.54595e-06
-4.01778e-06
-1.25504e-06
-3.94053e-06
-3.82943e-06
-1.0993e-05
3.65157e-05
-1.7013e-05
2.31295e-05
-2.02402e-05
1.41211e-05
-2.15199e-05
6.82069e-06
-2.14812e-05
1.42207e-06
-2.05331e-05
-2.42251e-06
-1.90427e-05
-4.90088e-06
-1.7275e-05
-6.33403e-06
-1.53807e-05
-7.05167e-06
-1.34783e-05
-7.27741e-06
-1.16379e-05
-7.19212e-06
-9.86823e-06
-6.94627e-06
-8.2094e-06
-6.5974e-06
-6.65625e-06
-6.22693e-06
-5.2018e-06
-5.87545e-06
-3.83327e-06
-5.5642e-06
-2.51956e-06
-5.33151e-06
-1.24312e-06
-5.21721e-06
-5.07276e-06
-1.38934e-05
5.04091e-05
-1.98437e-05
2.90797e-05
-2.24355e-05
1.67128e-05
-2.30801e-05
7.46547e-06
-2.2568e-05
9.102e-07
-2.12414e-05
-3.7488e-06
-1.94701e-05
-6.67287e-06
-1.74972e-05
-8.30683e-06
-1.54707e-05
-9.07845e-06
-1.348e-05
-9.26753e-06
-1.15783e-05
-9.0937e-06
-9.79024e-06
-8.73509e-06
-8.12231e-06
-8.26572e-06
-6.57199e-06
-7.77748e-06
-5.13355e-06
-7.31397e-06
-3.76832e-06
-6.92912e-06
-2.47744e-06
-6.62247e-06
-1.22309e-06
-6.47184e-06
-6.29604e-06
-1.79367e-05
6.83459e-05
-2.36225e-05
3.47653e-05
-2.53607e-05
1.84508e-05
-2.50549e-05
7.15985e-06
-2.38879e-05
-2.57245e-07
-2.20846e-05
-5.55216e-06
-1.99639e-05
-8.79336e-06
-1.77459e-05
-1.05242e-05
-1.55576e-05
-1.12668e-05
-1.34689e-05
-1.13566e-05
-1.15007e-05
-1.10621e-05
-9.68153e-06
-1.05547e-05
-8.00443e-06
-9.94252e-06
-6.46765e-06
-9.31385e-06
-5.02797e-06
-8.7538e-06
-3.68971e-06
-8.26747e-06
-2.42326e-06
-7.88906e-06
-1.19734e-06
-7.69797e-06
-7.49337e-06
-2.52442e-05
9.359e-05
-2.82105e-05
3.77316e-05
-2.89695e-05
1.92093e-05
-2.75224e-05
5.71296e-06
-2.54692e-05
-2.31005e-06
-2.30626e-05
-7.95887e-06
-2.05402e-05
-1.13155e-05
-1.80153e-05
-1.3049e-05
-1.56349e-05
-1.36472e-05
-1.34205e-05
-1.35711e-05
-1.13918e-05
-1.30904e-05
-9.5398e-06
-1.24065e-05
-7.86338e-06
-1.16187e-05
-6.3173e-06
-1.08599e-05
-4.9049e-06
-1.01667e-05
-3.59309e-06
-9.57972e-06
-2.3576e-06
-9.12468e-06
-1.16511e-06
-8.89071e-06
-8.65856e-06
-3.06253e-05
0.000124215
-3.38425e-05
4.09488e-05
-3.32869e-05
1.86536e-05
-3.05129e-05
2.93908e-06
-2.73524e-05
-5.47036e-06
-2.41646e-05
-1.11468e-05
-2.11274e-05
-1.43526e-05
-1.82879e-05
-1.58883e-05
-1.57053e-05
-1.62298e-05
-1.3344e-05
-1.59323e-05
-1.12455e-05
-1.51887e-05
-9.3702e-06
-1.42821e-05
-7.66474e-06
-1.33244e-05
-6.14346e-06
-1.23813e-05
-4.75666e-06
-1.15535e-05
-3.47841e-06
-1.08579e-05
-2.28113e-06
-1.03217e-05
-1.12834e-06
-1.00435e-05
-9.78692e-06
8.37276e-06
-3.59738e-05
2.10668e-05
-6.27057e-05
3.31534e-05
-6.32428e-05
4.46846e-05
-5.9424e-05
5.6394e-05
-5.79885e-05
6.8618e-05
-5.89103e-05
8.1455e-05
-6.09956e-05
9.49584e-05
-6.34652e-05
0.000109211
-6.60034e-05
0.000124309
-6.84088e-05
0.000140379
-7.04951e-05
0.000157502
-7.19609e-05
0.000175675
-7.22462e-05
0.000194889
-7.06143e-05
0.000215084
-6.61733e-05
0.000235901
-5.76104e-05
0.000256341
-4.27942e-05
0.000274801
-1.88301e-05
0.000291539
1.40576e-05
0.00029617
7.16282e-05
0.000281728
0.000152368
0.000255998
0.000240234
0.000352904
0.00023665
8.82759e-06
-4.48014e-05
2.09284e-05
-7.48064e-05
3.21749e-05
-7.44893e-05
4.30906e-05
-7.03396e-05
5.44382e-05
-6.93362e-05
6.6443e-05
-7.0915e-05
7.91372e-05
-7.36898e-05
9.25881e-05
-7.69161e-05
0.000106947
-8.03622e-05
0.000122418
-8.38797e-05
0.000139244
-8.73214e-05
0.000157656
-9.03726e-05
0.000177947
-9.25371e-05
0.000200421
-9.30889e-05
0.000225284
-9.10359e-05
0.000252828
-8.51543e-05
0.000283429
-7.33955e-05
0.000316833
-5.2234e-05
0.000347204
-1.63137e-05
0.000355612
6.32205e-05
0.000342263
0.000165717
0.000331106
0.000251391
0.000370506
0.000313505
9.1998e-06
-5.40012e-05
2.05458e-05
-8.61525e-05
3.0839e-05
-8.47825e-05
4.10972e-05
-8.05978e-05
5.20104e-05
-8.02494e-05
6.3657e-05
-8.25616e-05
7.60263e-05
-8.60592e-05
8.9218e-05
-9.01078e-05
0.000103465
-9.4609e-05
0.000119068
-9.9483e-05
0.00013637
-0.000104623
0.000155829
-0.000109832
0.000178058
-0.000114766
0.000203299
-0.00011833
0.000231745
-0.000119481
0.000264214
-0.000117623
0.000300615
-0.000109797
0.000336444
-8.80632e-05
0.000349397
-2.92665e-05
0.000353445
5.91728e-05
0.000346604
0.000172558
0.000345182
0.000252813
0.000386345
0.000329343
9.43042e-06
-6.34316e-05
1.98624e-05
-9.65844e-05
2.91588e-05
-9.40788e-05
3.87323e-05
-9.01713e-05
4.91095e-05
-9.06266e-05
6.02228e-05
-9.36749e-05
7.20476e-05
-9.7884e-05
8.47271e-05
-0.000102787
9.85796e-05
-0.000108461
0.000113955
-0.000114858
0.000131317
-0.000121985
0.000151439
-0.000129954
0.000174972
-0.0001383
0.000201579
-0.000144936
0.000231625
-0.000149527
0.000265148
-0.000151146
0.000297347
-0.000141996
0.000325914
-0.00011663
0.000329662
-3.30142e-05
0.000324188
6.46468e-05
0.000317595
0.000179151
0.000317711
0.000252696
0.000394496
0.000309561
9.49286e-06
-7.29245e-05
1.88649e-05
-0.000105956
2.71523e-05
-0.000102366
3.60061e-05
-9.90251e-05
4.57174e-05
-0.000100338
5.60997e-05
-0.000104057
6.71381e-05
-0.000108922
7.90219e-05
-0.000114671
9.21242e-05
-0.000121564
0.000106766
-0.0001295
0.000123594
-0.000138813
0.000143465
-0.000149825
0.000166881
-0.000161716
0.000193455
-0.000171511
0.000222937
-0.000179009
0.0002527
-0.000180909
0.00027126
-0.000160556
0.000267826
-0.000113196
0.000275784
-4.09726e-05
0.000279777
6.06542e-05
0.000274098
0.000184829
0.00026824
0.000258553
0.000374655
0.000288081
9.37258e-06
-8.22971e-05
1.7572e-05
-0.000114156
2.48667e-05
-0.000109661
3.29577e-05
-0.000107116
4.18639e-05
-0.000109244
5.13225e-05
-0.000113516
6.13361e-05
-0.000118936
7.21189e-05
-0.000125454
8.39862e-05
-0.000133431
9.71725e-05
-0.000142687
0.000112407
-0.000154047
0.000130286
-0.000167705
0.000152282
-0.000183711
0.000178512
-0.000197741
0.000204927
-0.000205424
0.000223331
-0.000199313
0.00021818
-0.000155405
0.000197753
-9.2769e-05
0.000178864
-2.20838e-05
0.000189228
5.02896e-05
0.000206849
0.000167208
0.000212263
0.000253139
0.000331097
0.000255821
9.07496e-06
-9.1372e-05
1.60391e-05
-0.00012112
2.23819e-05
-0.000116004
2.96633e-05
-0.000114397
3.76333e-05
-0.000117214
4.5989e-05
-0.000121871
5.47255e-05
-0.000127673
6.40065e-05
-0.000134735
7.392e-05
-0.000143344
8.46091e-05
-0.000153376
9.65263e-05
-0.000165964
0.000110868
-0.000182046
0.000132579
-0.000205421
0.00015783
-0.000222992
0.000179992
-0.000227586
0.000180461
-0.000199782
0.000155054
-0.000129999
9.70917e-05
-3.48066e-05
6.35132e-05
1.14945e-05
7.41616e-05
3.96407e-05
0.000116099
0.000125271
0.000146302
0.000222936
0.000283906
0.000193494
8.63784e-06
-0.00010001
1.43347e-05
-0.000126817
1.97693e-05
-0.000121438
2.61812e-05
-0.000120809
3.307e-05
-0.000124103
4.01024e-05
-0.000128904
4.72083e-05
-0.000134778
5.44203e-05
-0.000141947
6.15997e-05
-0.000150524
6.89214e-05
-0.000160698
7.67096e-05
-0.000173752
8.92978e-05
-0.000194634
0.000112226
-0.00022835
0.000137279
-0.000248045
0.000144687
-0.000234994
0.000130376
-0.000185472
6.56782e-05
-6.53001e-05
1.14477e-05
1.94232e-05
-7.89128e-06
3.08334e-05
-4.19128e-06
3.59406e-05
3.5171e-05
8.59086e-05
8.06523e-05
0.000177454
0.000252977
0.000111581
8.09872e-06
-0.000108109
1.24596e-05
-0.000131178
1.69757e-05
-0.000125955
2.24002e-05
-0.000126234
2.79938e-05
-0.000129697
3.34065e-05
-0.000134317
3.84996e-05
-0.000139872
4.32846e-05
-0.000146732
4.78648e-05
-0.000155104
5.2937e-05
-0.00016577
6.02392e-05
-0.000181055
7.78603e-05
-0.000212256
0.000102147
-0.000252637
0.000110312
-0.000256209
0.000111811
-0.000236493
6.58536e-05
-0.000139515
3.14385e-06
-2.59006e-06
-2.152e-05
4.4087e-05
-3.40085e-05
4.33223e-05
-3.89463e-05
4.08777e-05
-1.50615e-05
6.20238e-05
2.88211e-05
0.000133572
0.000229164
5.26338e-05
7.46374e-06
-0.000115572
1.02985e-05
-0.000134013
1.37797e-05
-0.000129436
1.8051e-05
-0.000130505
2.21606e-05
-0.000133806
2.58867e-05
-0.000138043
2.92983e-05
-0.000143283
3.29389e-05
-0.000150373
3.83562e-05
-0.000160521
4.77877e-05
-0.000175201
6.57244e-05
-0.000198991
0.000100243
-0.000246775
0.000106704
-0.000259097
0.000100986
-0.000250491
8.6695e-05
-0.000222202
4.23197e-05
-9.51395e-05
-2.61498e-06
4.23449e-05
-2.20104e-05
6.34819e-05
-3.90339e-05
6.03463e-05
-5.24533e-05
5.42967e-05
-4.77223e-05
5.72932e-05
-1.57245e-05
0.000101574
0.000198612
1.48281e-05
6.8994e-06
-0.000122472
7.77876e-06
-0.000134892
1.02642e-05
-0.000131921
1.35984e-05
-0.000133839
1.6811e-05
-0.000137019
2.03272e-05
-0.000141559
2.53446e-05
-0.000148301
3.41117e-05
-0.00015914
5.05064e-05
-0.000176916
8.12235e-05
-0.000205918
0.000124705
-0.000242473
0.000145983
-0.000268053
0.000117872
-0.000230986
8.74778e-05
-0.000220097
7.09195e-05
-0.000205644
6.00166e-05
-8.42363e-05
1.62414e-05
8.61199e-05
-1.50185e-05
9.4742e-05
-4.01941e-05
8.55215e-05
-6.27954e-05
7.68984e-05
-7.73066e-05
7.18048e-05
-6.97509e-05
9.40182e-05
0.000163491
-3.46301e-05
6.67701e-06
-0.000129149
6.10156e-06
-0.000134317
8.83594e-06
-0.000134655
1.32188e-05
-0.000138222
1.88537e-05
-0.000142654
2.79804e-05
-0.000150685
4.49052e-05
-0.000165225
7.70309e-05
-0.000191265
0.000116283
-0.000216168
0.0001548
-0.000244436
0.000179572
-0.000267245
0.000174056
-0.000262537
0.000130562
-0.000187492
8.58433e-05
-0.000175378
6.63982e-05
-0.000186199
6.49364e-05
-8.27745e-05
2.68076e-05
0.000124249
-1.24838e-05
0.000134034
-4.26613e-05
0.000115699
-7.03662e-05
0.000104603
-9.65903e-05
9.80286e-05
-0.000109311
0.000106739
0.000146199
-9.20194e-05
7.65355e-06
-0.000136802
1.05246e-05
-0.000137188
1.80683e-05
-0.000142199
2.96117e-05
-0.000149766
4.54825e-05
-0.000158525
6.71209e-05
-0.000172324
9.41539e-05
-0.000192258
0.000120102
-0.000217214
0.000149087
-0.000245153
0.000178433
-0.000273781
0.000196285
-0.000285096
0.000190551
-0.000256803
0.000165398
-0.000162338
9.97086e-05
-0.000109689
6.66173e-05
-0.000153108
4.8442e-05
-6.45989e-05
1.4904e-05
0.000157787
-2.02282e-05
0.000169167
-4.8828e-05
0.000144298
-7.45275e-05
0.000130303
-0.000100413
0.000123914
-0.000121145
0.000127471
0.000149243
-0.00012419
5.35673e-06
-0.000142159
1.62688e-05
-0.0001481
2.65047e-05
-0.000152435
3.77303e-05
-0.000160991
5.17935e-05
-0.000172588
6.81046e-05
-0.000188635
8.58262e-05
-0.00020998
0.000105024
-0.000236412
0.0001293
-0.000269429
0.000157523
-0.000302004
0.00017646
-0.000304034
0.000174232
-0.000254576
0.000166876
-0.000154981
0.000111161
-5.39738e-05
6.13743e-05
-0.000103322
2.22919e-05
-2.55164e-05
-1.252e-05
0.000192599
-3.98422e-05
0.00019649
-6.04895e-05
0.000164946
-7.84704e-05
0.000148284
-9.5909e-05
0.000141353
-0.000111271
0.000142834
0.000155654
-0.000117682
5.5243e-06
-0.000147683
1.33105e-05
-0.000155887
2.07576e-05
-0.000159883
2.84199e-05
-0.000168654
3.68203e-05
-0.000180988
4.59178e-05
-0.000197732
5.58997e-05
-0.000219962
6.94581e-05
-0.00024997
9.03087e-05
-0.000290279
0.00011294
-0.000324635
0.000120406
-0.0003115
0.000109972
-0.000244141
9.83133e-05
-0.000143322
8.50579e-05
-4.07187e-05
3.18699e-05
-5.01338e-05
-2.30132e-05
2.93665e-05
-5.60562e-05
0.000225642
-6.84302e-05
0.000208864
-7.69693e-05
0.000173486
-8.48199e-05
0.000156134
-9.20443e-05
0.000148578
-9.76662e-05
0.000148456
0.000156054
-9.80658e-05
4.18824e-06
-0.000151871
7.43534e-06
-0.000159134
1.10967e-05
-0.000163544
1.44854e-05
-0.000172043
1.76988e-05
-0.000184202
2.06141e-05
-0.000200648
2.35311e-05
-0.000222879
2.90159e-05
-0.000255455
3.79018e-05
-0.000299165
4.16721e-05
-0.000328406
3.07669e-05
-0.000300595
1.33188e-05
-0.000226693
1.15986e-05
-0.000141601
1.77954e-05
-4.69157e-05
-2.9121e-05
-3.21729e-06
-9.8365e-05
9.86104e-05
-0.000110021
0.000237299
-0.000100769
0.000199612
-9.56391e-05
0.000168356
-9.33373e-05
0.000153833
-9.16145e-05
0.000146855
-8.89748e-05
0.000145816
0.00015016
-8.30811e-05
1.54358e-06
-0.000153415
1.57823e-06
-0.000159169
1.80187e-06
-0.000163768
1.27446e-06
-0.000171515
-3.54239e-07
-0.000182573
-3.65963e-06
-0.000197343
-8.9487e-06
-0.00021759
-1.61888e-05
-0.000248215
-2.80562e-05
-0.000287298
-4.81455e-05
-0.000308316
-7.09357e-05
-0.000277804
-8.72317e-05
-0.000210397
-9.89305e-05
-0.000129903
-0.000101635
-4.42108e-05
-0.000143619
3.87664e-05
-0.000187004
0.000141996
-0.000159176
0.000209471
-0.000129103
0.000169538
-0.000112519
0.000151772
-0.000101731
0.000143045
-9.31294e-05
0.000138253
-8.4785e-05
0.000137472
0.000140118
-7.47425e-05
-1.26226e-06
-0.000152153
-3.54926e-06
-0.000156882
-6.30687e-06
-0.000161011
-1.03022e-05
-0.00016752
-1.62898e-05
-0.000176586
-2.52164e-05
-0.000188416
-3.86053e-05
-0.000204201
-5.94683e-05
-0.000227352
-9.06408e-05
-0.000256125
-0.000128094
-0.000270863
-0.00015946
-0.000246438
-0.000184678
-0.000185179
-0.000207183
-0.000107398
-0.000226253
-2.51405e-05
-0.000245404
5.7917e-05
-0.000234248
0.00013084
-0.000182594
0.000157817
-0.000145647
0.000132591
-0.000123532
0.000129657
-0.000107415
0.000126928
-9.44285e-05
0.000125267
-8.26471e-05
0.000125691
0.000127824
-7.03529e-05
-3.54941e-06
-0.000148604
-7.81539e-06
-0.000152617
-1.29556e-05
-0.00015587
-1.96023e-05
-0.000160873
-2.86091e-05
-0.000167579
-4.11315e-05
-0.000175893
-5.94054e-05
-0.000185927
-8.7606e-05
-0.000199151
-0.000128465
-0.000215266
-0.000176471
-0.000222857
-0.000219598
-0.000203312
-0.000252862
-0.000151914
-0.000275191
-8.50693e-05
-0.000284347
-1.59845e-05
-0.000272666
4.62369e-05
-0.000234087
9.22599e-05
-0.000181525
0.000105255
-0.000149396
0.000100462
-0.000126953
0.000107214
-0.000109046
0.000109021
-9.42067e-05
0.000110428
-8.08653e-05
0.00011235
0.000114663
-6.77049e-05
-5.25567e-06
-0.000143348
-1.11519e-05
-0.000146721
-1.79785e-05
-0.000149044
-2.63434e-05
-0.000152508
-3.70005e-05
-0.000156922
-5.09388e-05
-0.000161955
-6.98749e-05
-0.000166991
-9.71005e-05
-0.000171925
-0.000135708
-0.000176659
-0.000182854
-0.000175711
-0.000227623
-0.000158543
-0.000258885
-0.000120652
-0.000273477
-7.04768e-05
-0.000268851
-2.06112e-05
-0.000244876
2.22615e-05
-0.000205717
5.31004e-05
-0.000168074
6.76126e-05
-0.000144376
7.67641e-05
-0.000124149
8.69876e-05
-0.00010698
9.18515e-05
-9.2171e-05
9.56188e-05
-7.86653e-05
9.88437e-05
0.000101619
-6.56212e-05
-6.45867e-06
-0.00013689
-1.34761e-05
-0.000139703
-2.1356e-05
-0.000141164
-3.06143e-05
-0.00014325
-4.18431e-05
-0.000145693
-5.56996e-05
-0.000148098
-7.29765e-05
-0.000149714
-9.52182e-05
-0.000149683
-0.000124563
-0.000147314
-0.000159956
-0.000140318
-0.000194281
-0.000124218
-0.000218091
-9.68421e-05
-0.00022639
-6.21774e-05
-0.000219467
-2.75347e-05
-0.000200008
2.80219e-06
-0.000174632
2.77254e-05
-0.000152392
4.53724e-05
-0.000134874
5.92466e-05
-0.000117673
6.97863e-05
-0.000102421
7.65986e-05
-8.86617e-05
8.18597e-05
-7.58542e-05
8.60363e-05
8.93061e-05
-6.35408e-05
-7.20526e-06
-0.000129685
-1.48856e-05
-0.000132023
-2.33012e-05
-0.000132748
-3.28493e-05
-0.000133702
-4.39564e-05
-0.000134586
-5.70267e-05
-0.000135028
-7.23242e-05
-0.000134417
-9.00993e-05
-0.000131908
-0.000110879
-0.000126535
-0.000134179
-0.000117018
-0.000156481
-0.000101916
-0.0001724
-8.09236e-05
-0.000178465
-5.61128e-05
-0.000175154
-3.08455e-05
-0.00016456
-7.79218e-06
-0.000151114
1.42803e-05
-0.000137516
3.17742e-05
-0.000123691
4.54214e-05
-0.000109574
5.56687e-05
-9.64829e-05
6.35078e-05
-8.41856e-05
6.95624e-05
-7.25075e-05
7.43583e-05
7.80389e-05
-6.12401e-05
-7.58112e-06
-0.000122103
-1.55503e-05
-0.000124053
-2.41099e-05
-0.000124188
-3.35432e-05
-0.000124269
-4.41294e-05
-0.000123999
-5.61004e-05
-0.000123057
-6.95452e-05
-0.000120972
-8.43015e-05
-0.000117152
-9.99793e-05
-0.000110857
-0.000115821
-0.000101177
-0.000130231
-8.75061e-05
-0.000140888
-7.0267e-05
-0.00014608
-5.09205e-05
-0.000145788
-3.11373e-05
-0.000141451
-1.21297e-05
-0.000133307
6.1367e-06
-0.000123378
2.18445e-05
-0.000112312
3.43555e-05
-0.000100959
4.43166e-05
-8.98925e-05
5.2441e-05
-7.91589e-05
5.8829e-05
-6.87689e-05
6.39685e-05
6.79351e-05
-5.86651e-05
-7.66081e-06
-0.000114442
-1.5631e-05
-0.000116083
-2.40463e-05
-0.000115773
-3.31028e-05
-0.000115212
-4.29665e-05
-0.000114136
-5.3747e-05
-0.000112277
-6.54467e-05
-0.000109272
-7.78905e-05
-0.000104708
-9.06044e-05
-9.81435e-05
-0.000102725
-8.90558e-05
-0.000113136
-7.70959e-05
-0.00012078
-6.26224e-05
-0.000124989
-4.67121e-05
-0.000125666
-3.04598e-05
-0.000123293
-1.45036e-05
-0.000117808
6.52388e-07
-0.000110221
1.42578e-05
-0.000101518
2.5652e-05
-9.23934e-05
3.51924e-05
-8.31064e-05
4.3154e-05
-7.38749e-05
4.95975e-05
-6.47747e-05
5.48683e-05
5.89961e-05
-5.58356e-05
-7.51549e-06
-0.000106927
-1.52763e-05
-0.000108322
-2.3349e-05
-0.000107701
-3.18681e-05
-0.000106693
-4.09219e-05
-0.000105082
-5.05428e-05
-0.000102657
-6.06634e-05
-9.91512e-05
-7.10922e-05
-9.42794e-05
-8.14638e-05
-8.7772e-05
-9.1154e-05
-7.9366e-05
-9.9338e-05
-6.89121e-05
-0.000105297
-5.66637e-05
-0.000108684
-4.33246e-05
-0.000109513
-2.96318e-05
-0.000107945
-1.60716e-05
-0.000103963
-3.32867e-06
-9.83179e-05
8.61234e-06
-9.15601e-05
1.88943e-05
-8.41739e-05
2.7806e-05
-7.64138e-05
3.53939e-05
-6.85357e-05
4.17194e-05
-6.06402e-05
4.6973e-05
5.11591e-05
-5.28031e-05
-7.21085e-06
-9.97161e-05
-1.46156e-05
-0.000100917
-2.22231e-05
-0.000100094
-3.01213e-05
-9.87946e-05
-3.83474e-05
-9.6856e-05
-4.68873e-05
-9.41168e-05
-5.56459e-05
-9.03924e-05
-6.44305e-05
-8.54948e-05
-7.29461e-05
-7.92566e-05
-8.07758e-05
-7.15368e-05
-8.73859e-05
-6.23022e-05
-9.22702e-05
-5.17794e-05
-9.51482e-05
-4.04467e-05
-9.59893e-05
-2.8791e-05
-9.48718e-05
-1.71891e-05
-9.20597e-05
-6.14072e-06
-8.77374e-05
4.29e-06
-8.24328e-05
1.35895e-05
-7.64257e-05
2.17987e-05
-6.99618e-05
2.89301e-05
-6.32662e-05
3.50238e-05
-5.64561e-05
4.0163e-05
4.43321e-05
-4.96291e-05
-6.80133e-06
-9.29146e-05
-1.37514e-05
-9.39677e-05
-2.08244e-05
-9.30207e-05
-2.8069e-05
-9.15498e-05
-3.54919e-05
-8.94337e-05
-4.30537e-05
-8.65548e-05
-5.06585e-05
-8.27873e-05
-5.81408e-05
-7.80126e-05
-6.52592e-05
-7.21384e-05
-7.16913e-05
-6.51051e-05
-7.70672e-05
-5.69265e-05
-8.10718e-05
-4.77749e-05
-8.35359e-05
-3.79827e-05
-8.44138e-05
-2.79133e-05
-8.37214e-05
-1.78817e-05
-8.16659e-05
-8.19627e-06
-7.83221e-05
9.46088e-07
-7.40932e-05
9.36038e-06
-6.91899e-05
1.68952e-05
-6.38112e-05
2.35513e-05
-5.81365e-05
2.93491e-05
-5.2288e-05
3.43144e-05
3.84148e-05
-4.63707e-05
-6.33091e-06
-8.65836e-05
-1.27693e-05
-8.75293e-05
-1.92751e-05
-8.65148e-05
-2.58645e-05
-8.49602e-05
-3.25266e-05
-8.27721e-05
-3.92099e-05
-7.98713e-05
-4.58214e-05
-7.61758e-05
-5.22193e-05
-7.16148e-05
-5.82179e-05
-6.61401e-05
-6.35881e-05
-5.97351e-05
-6.80708e-05
-5.24439e-05
-7.14371e-05
-4.44087e-05
-7.3557e-05
-3.58628e-05
-7.43987e-05
-2.70719e-05
-7.39931e-05
-1.82874e-05
-7.24596e-05
-9.72994e-06
-6.98682e-05
-1.64551e-06
-6.64882e-05
5.98007e-06
-6.24728e-05
1.28796e-05
-5.79913e-05
1.90696e-05
-5.31899e-05
2.45476e-05
-4.81839e-05
2.93083e-05
3.33068e-05
-4.30762e-05
-5.82923e-06
-8.07545e-05
-1.1731e-05
-8.16273e-05
-1.76611e-05
-8.05847e-05
-2.36135e-05
-7.90077e-05
-2.9566e-05
-7.68198e-05
-3.54642e-05
-7.39729e-05
-4.12245e-05
-7.04157e-05
-4.67295e-05
-6.611e-05
-5.1832e-05
-6.10377e-05
-5.63593e-05
-5.52077e-05
-6.01299e-05
-4.86733e-05
-6.29879e-05
-4.1551e-05
-6.4836e-05
-3.40148e-05
-6.56434e-05
-2.62647e-05
-6.54337e-05
-1.84971e-05
-6.42714e-05
-1.08924e-05
-6.22841e-05
-3.63306e-06
-5.95488e-05
3.2445e-06
-5.62484e-05
9.57907e-06
-5.25106e-05
1.53317e-05
-4.84531e-05
2.04899e-05
-4.41793e-05
2.50343e-05
2.89124e-05
-3.9785e-05
-5.31511e-06
-7.54394e-05
-1.06778e-05
-7.62647e-05
-1.60397e-05
-7.52228e-05
-2.13841e-05
-7.36635e-05
-2.66809e-05
-7.1523e-05
-3.18778e-05
-6.87759e-05
-3.69005e-05
-6.53932e-05
-4.16527e-05
-6.13583e-05
-4.60191e-05
-5.66714e-05
-4.98711e-05
-5.13556e-05
-5.30777e-05
-4.54668e-05
-5.55269e-05
-3.91021e-05
-5.71464e-05
-3.23954e-05
-5.79105e-05
-2.55007e-05
-5.78329e-05
-1.85747e-05
-5.6961e-05
-1.17644e-05
-5.53965e-05
-5.19776e-06
-5.31858e-05
1.03367e-06
-5.04742e-05
6.86745e-06
-4.73582e-05
1.22156e-05
-4.39351e-05
1.70667e-05
-4.02956e-05
2.13947e-05
2.51434e-05
-3.65267e-05
-4.80011e-06
-7.06393e-05
-9.63409e-06
-7.14312e-05
-1.4446e-05
-7.04106e-05
-1.92165e-05
-6.88934e-05
-2.39103e-05
-6.68293e-05
-2.8479e-05
-6.4207e-05
-3.28583e-05
-6.10139e-05
-3.69694e-05
-5.72476e-05
-4.07213e-05
-5.29196e-05
-4.40165e-05
-4.80602e-05
-4.67598e-05
-4.27236e-05
-4.88699e-05
-3.69922e-05
-5.02926e-05
-3.09726e-05
-5.10068e-05
-2.47862e-05
-5.10228e-05
-1.85587e-05
-5.03778e-05
-1.24094e-05
-4.91388e-05
-6.43685e-06
-4.73349e-05
-7.70224e-07
-4.51098e-05
4.64231e-06
-4.25145e-05
9.62018e-06
-3.96328e-05
1.41849e-05
-3.65428e-05
1.83046e-05
2.19218e-05
-3.33212e-05
-4.29302e-06
-6.63463e-05
-8.61505e-06
-6.71095e-05
-1.29015e-05
-6.61236e-05
-1.71334e-05
-6.46621e-05
-2.12731e-05
-6.26896e-05
-2.52767e-05
-6.02031e-05
-2.90892e-05
-5.72014e-05
-3.26461e-05
-5.3691e-05
-3.58755e-05
-4.96902e-05
-3.87032e-05
-4.52323e-05
-4.10583e-05
-4.03685e-05
-4.28813e-05
-3.51692e-05
-4.41319e-05
-2.97218e-05
-4.47928e-05
-2.4125e-05
-4.48704e-05
-1.84811e-05
-4.43912e-05
-1.28887e-05
-4.3394e-05
-7.43425e-06
-4.19672e-05
-2.19703e-06
-4.01206e-05
2.79561e-06
-3.79574e-05
7.45692e-06
-3.55371e-05
1.17646e-05
-3.29229e-05
1.56903e-05
1.91793e-05
-3.01804e-05
-3.80143e-06
-6.25449e-05
-7.6314e-06
-6.32796e-05
-1.14193e-05
-6.23352e-05
-1.51463e-05
-6.09355e-05
-1.87755e-05
-5.90603e-05
-2.22675e-05
-5.67109e-05
-2.55754e-05
-5.38934e-05
-2.86464e-05
-5.062e-05
-3.14239e-05
-4.69127e-05
-3.38506e-05
-4.28054e-05
-3.58734e-05
-3.83457e-05
-3.74478e-05
-3.35946e-05
-3.8544e-05
-2.86255e-05
-3.91489e-05
-2.352e-05
-3.92666e-05
-1.83635e-05
-3.89167e-05
-1.32388e-05
-3.81313e-05
-8.21977e-06
-3.69637e-05
-3.36466e-06
-3.54511e-05
1.28306e-06
-3.36574e-05
5.66317e-06
-3.16337e-05
9.74096e-06
-2.94329e-05
1.34896e-05
1.68574e-05
-2.71108e-05
-3.33155e-06
-5.92136e-05
-6.69066e-06
-5.99204e-05
-1.00067e-05
-5.9019e-05
-1.32598e-05
-5.76825e-05
-1.64164e-05
-5.59037e-05
-1.94414e-05
-5.36859e-05
-2.22949e-05
-5.10399e-05
-2.49338e-05
-4.79809e-05
-2.73134e-05
-4.4533e-05
-2.93895e-05
-4.07294e-05
-3.11215e-05
-3.66138e-05
-3.24763e-05
-3.22398e-05
-3.34315e-05
-2.76702e-05
-3.39776e-05
-2.29741e-05
-3.41181e-05
-1.82233e-05
-3.38685e-05
-1.34886e-05
-3.32537e-05
-8.83452e-06
-3.23068e-05
-4.31158e-06
-3.10687e-05
4.50415e-08
-2.95874e-05
4.1818e-06
-2.79057e-05
8.05931e-06
-2.60658e-05
1.16498e-05
1.4906e-05
-2.41143e-05
-2.88535e-06
-5.63286e-05
-5.79531e-06
-5.70103e-05
-8.66413e-06
-5.61505e-05
-1.14715e-05
-5.4875e-05
-1.41882e-05
-5.31871e-05
-1.67832e-05
-5.10912e-05
-1.92228e-05
-4.86002e-05
-2.14721e-05
-4.57314e-05
-2.34958e-05
-4.25093e-05
-2.52595e-05
-3.89658e-05
-2.67322e-05
-3.5141e-05
-2.78891e-05
-3.10827e-05
-2.87138e-05
-2.68455e-05
-2.91994e-05
-2.24886e-05
-2.9349e-05
-1.80738e-05
-2.91752e-05
-1.36624e-05
-2.86973e-05
-9.31226e-06
-2.79396e-05
-5.06917e-06
-2.69311e-05
-9.63501e-07
-2.57188e-05
2.96934e-06
-2.43348e-05
6.67524e-06
-2.28122e-05
1.01273e-05
1.32834e-05
-2.11895e-05
-2.46096e-06
-5.3868e-05
-4.94264e-06
-5.45287e-05
-7.38657e-06
-5.37068e-05
-9.77329e-06
-5.24879e-05
-1.20778e-05
-5.08828e-05
-1.42731e-05
-4.88962e-05
-1.63314e-05
-4.65418e-05
-1.82247e-05
-4.3838e-05
-1.9925e-05
-4.08089e-05
-2.14058e-05
-3.7485e-05
-2.26433e-05
-3.39033e-05
-2.36192e-05
-3.01066e-05
-2.43211e-05
-2.61434e-05
-2.47444e-05
-2.20654e-05
-2.48918e-05
-1.79263e-05
-2.4774e-05
-1.37801e-05
-2.44069e-05
-9.67915e-06
-2.38092e-05
-5.66684e-06
-2.30035e-05
-1.76946e-06
-2.20239e-05
1.98956e-06
-2.09015e-05
5.55257e-06
-1.96608e-05
8.88653e-06
1.19552e-05
-1.83327e-05
-2.05302e-06
-5.18152e-05
-4.12687e-06