/*--------------------------------*- C++ -*----------------------------------*\
| =========                 |                                                 |
| \\      /  F ield         | OpenFOAM: The Open Source CFD Toolbox           |
|  \\    /   O peration     | Version:  2206                                  |
|   \\  /    A nd           | Website:  www.openfoam.com                      |
|    \\/     M anipulation  |                                                 |
\*---------------------------------------------------------------------------*/
FoamFile
{
    version     2.0;
    format      ascii;
    arch        "LSB;label=32;scalar=64";
    class       volVectorField;
    location    "0.175";
    object      U;
}
// * * * * * * * * * * * * * * * * * * * * * * * * * * * * * * * * * * * * * //

dimensions      [0 1 -1 0 0 0 0];

internalField   nonuniform List<vector> 
2268
(
(0.0137223 -0.00861565 0)
(0.0690608 -0.0171978 0)
(0.145726 -0.0178943 0)
(0.220739 -0.0166167 0)
(0.289672 -0.0158201 0)
(0.355925 -0.0157406 0)
(0.422977 -0.0160834 0)
(0.492131 -0.0165753 0)
(0.563412 -0.0170356 0)
(0.636375 -0.0173441 0)
(0.710185 -0.0173932 0)
(0.783494 -0.0170571 0)
(0.854348 -0.0161591 0)
(0.919917 -0.014423 0)
(0.976042 -0.0114056 0)
(1.01585 -0.00655092 0)
(1.03261 0.0033532 0)
(0.99781 0.0201428 0)
(0.889142 0.0466357 0)
(0.674603 0.0816511 0)
(0.341492 0.101782 0)
(-0.0910058 0.0479564 0)
(-0.231142 -0.153425 0)
(0.0138443 -0.0260373 0)
(0.0695982 -0.0515789 0)
(0.146416 -0.0537363 0)
(0.221271 -0.0500123 0)
(0.290129 -0.047639 0)
(0.3565 -0.0474051 0)
(0.423765 -0.0484494 0)
(0.493167 -0.0499411 0)
(0.56473 -0.0513428 0)
(0.638056 -0.0523043 0)
(0.712353 -0.052496 0)
(0.786302 -0.0515312 0)
(0.857984 -0.0488949 0)
(0.924689 -0.0437994 0)
(0.98246 -0.0350266 0)
(1.02615 -0.0208685 0)
(1.047 0.00265949 0)
(1.05294 0.0391892 0)
(1.03885 0.0937687 0)
(0.981112 0.170376 0)
(0.822047 0.243901 0)
(0.418133 0.233802 0)
(0.178547 -0.0157292 0)
(0.0140196 -0.0437294 0)
(0.0700778 -0.0858132 0)
(0.146611 -0.0894098 0)
(0.220731 -0.0833121 0)
(0.289046 -0.0793778 0)
(0.355226 -0.0790178 0)
(0.422498 -0.0808044 0)
(0.492001 -0.0833269 0)
(0.563763 -0.0857032 0)
(0.637441 -0.0873714 0)
(0.712312 -0.0877852 0)
(0.787146 -0.0863041 0)
(0.860165 -0.082096 0)
(0.928845 -0.0738844 0)
(0.98947 -0.0597642 0)
(1.03684 -0.037118 0)
(1.0641 -0.00362546 0)
(1.06318 0.0445494 0)
(1.03101 0.112762 0)
(0.971428 0.21064 0)
(0.911585 0.33293 0)
(0.681648 0.383485 0)
(0.365035 0.16584 0)
(0.0143421 -0.0616871 0)
(0.0708085 -0.119858 0)
(0.146865 -0.124735 0)
(0.219991 -0.11632 0)
(0.287602 -0.110939 0)
(0.353559 -0.11057 0)
(0.420896 -0.113189 0)
(0.490616 -0.11681 0)
(0.56275 -0.120235 0)
(0.637027 -0.122718 0)
(0.712825 -0.123511 0)
(0.789064 -0.121748 0)
(0.864204 -0.116296 0)
(0.935937 -0.105394 0)
(1.00071 -0.0864694 0)
(1.05351 -0.056262 0)
(1.08815 -0.0112981 0)
(1.09637 0.0523194 0)
(1.07004 0.137715 0)
(0.994835 0.247699 0)
(0.902149 0.392085 0)
(0.740612 0.51382 0)
(0.431641 0.40465 0)
(0.0148427 -0.0799804 0)
(0.0717968 -0.153687 0)
(0.14713 -0.159554 0)
(0.219009 -0.148879 0)
(0.285781 -0.142248 0)
(0.351496 -0.142048 0)
(0.418951 -0.145622 0)
(0.488975 -0.150431 0)
(0.561607 -0.155013 0)
(0.63667 -0.158462 0)
(0.713664 -0.159859 0)
(0.791732 -0.158151 0)
(0.869647 -0.151914 0)
(0.945334 -0.138867 0)
(1.0154 -0.1158 0)
(1.07518 -0.0788211 0)
(1.11924 -0.0235624 0)
(1.13957 0.0549124 0)
(1.1267 0.160482 0)
(1.06169 0.293343 0)
(0.935368 0.456066 0)
(0.747195 0.64149 0)
(0.446404 0.66576 0)
(0.0156059 -0.098858 0)
(0.0730459 -0.187313 0)
(0.147328 -0.193793 0)
(0.217705 -0.18094 0)
(0.283523 -0.173313 0)
(0.348969 -0.173503 0)
(0.416543 -0.178165 0)
(0.486882 -0.184259 0)
(0.560043 -0.190121 0)
(0.635959 -0.194719 0)
(0.714295 -0.197003 0)
(0.794485 -0.195789 0)
(0.87565 -0.189351 0)
(0.955964 -0.174856 0)
(1.03231 -0.148512 0)
(1.10055 -0.105933 0)
(1.15607 -0.0417795 0)
(1.1909 0.0505982 0)
(1.1942 0.175956 0)
(1.14626 0.339809 0)
(1.02151 0.537027 0)
(0.785015 0.780019 0)
(0.45657 0.946417 0)
(0.016674 -0.118398 0)
(0.0744564 -0.220672 0)
(0.147313 -0.227417 0)
(0.215973 -0.212512 0)
(0.280737 -0.204161 0)
(0.34585 -0.204955 0)
(0.413482 -0.210829 0)
(0.484072 -0.218297 0)
(0.557708 -0.225558 0)
(0.634467 -0.231492 0)
(0.714224 -0.234965 0)
(0.796755 -0.234706 0)
(0.881512 -0.228669 0)
(0.966949 -0.213468 0)
(1.05052 -0.184862 0)
(1.12892 -0.138172 0)
(1.19823 -0.0671846 0)
(1.25029 0.0376577 0)
(1.27414 0.182783 0)
(1.24733 0.377454 0)
(1.14396 0.619871 0)
(0.883819 0.919499 0)
(0.503332 1.23474 0)
(0.0179455 -0.138474 0)
(0.0758164 -0.253747 0)
(0.14692 -0.260321 0)
(0.213755 -0.243514 0)
(0.277396 -0.234738 0)
(0.342078 -0.236339 0)
(0.409659 -0.243529 0)
(0.480385 -0.252451 0)
(0.554402 -0.261224 0)
(0.631948 -0.268673 0)
(0.713159 -0.273631 0)
(0.798165 -0.274746 0)
(0.8867 -0.269605 0)
(0.977598 -0.254322 0)
(1.06919 -0.224425 0)
(1.15926 -0.174824 0)
(1.24431 -0.0978645 0)
(1.31693 0.0174909 0)
(1.36802 0.179357 0)
(1.36799 0.407959 0)
(1.295 0.717105 0)
(1.05792 1.09389 0)
(0.538721 1.60303 0)
(-0.0471141 0.0208855 0)
(-0.118847 0.0167573 0)
(-0.170024 0.0125305 0)
(-0.205744 0.00741488 0)
(-0.222579 0.00284695 0)
(-0.224481 -0.000559523 0)
(-0.216788 -0.00267487 0)
(-0.203129 -0.00397293 0)
(-0.185787 -0.00474798 0)
(-0.166519 -0.00512534 0)
(-0.146571 -0.00523155 0)
(-0.126751 -0.00514459 0)
(-0.107489 -0.00498291 0)
(-0.0889916 -0.00478469 0)
(-0.0713867 -0.00459266 0)
(-0.0546142 -0.00439795 0)
(-0.038507 -0.00424377 0)
(-0.022848 -0.00416935 0)
(-0.00756804 -0.00402292 0)
(-0.0651004 0.0688836 0)
(-0.147598 0.050551 0)
(-0.1931 0.0347206 0)
(-0.218983 0.019113 0)
(-0.227997 0.0063396 0)
(-0.226781 -0.00303001 0)
(-0.21696 -0.00915942 0)
(-0.201386 -0.0128545 0)
(-0.182631 -0.0148335 0)
(-0.162474 -0.0156791 0)
(-0.142056 -0.0157673 0)
(-0.122121 -0.0153529 0)
(-0.103041 -0.014729 0)
(-0.0849351 -0.0140092 0)
(-0.0678735 -0.0133323 0)
(-0.05176 -0.0126926 0)
(-0.0364089 -0.0121908 0)
(-0.0215822 -0.0119578 0)
(-0.0071824 -0.0116319 0)
(-0.0695787 0.124029 0)
(-0.154192 0.0853597 0)
(-0.198722 0.0554031 0)
(-0.225731 0.0288025 0)
(-0.234931 0.00832363 0)
(-0.232061 -0.0065338 0)
(-0.220605 -0.0163812 0)
(-0.203934 -0.022284 0)
(-0.184437 -0.0253035 0)
(-0.163757 -0.0264711 0)
(-0.142942 -0.0264132 0)
(-0.122728 -0.025594 0)
(-0.103456 -0.0244499 0)
(-0.0852186 -0.023158 0)
(-0.0680616 -0.0219371 0)
(-0.0518731 -0.0208313 0)
(-0.0364788 -0.0199636 0)
(-0.0216218 -0.0195836 0)
(-0.00719964 -0.0190296 0)
(-0.0815339 0.186293 0)
(-0.176394 0.121367 0)
(-0.217148 0.0760317 0)
(-0.240835 0.0378447 0)
(-0.24615 0.00927693 0)
(-0.239916 -0.011229 0)
(-0.22568 -0.0244903 0)
(-0.206955 -0.0322752 0)
(-0.186042 -0.0362137 0)
(-0.164431 -0.0375673 0)
(-0.143004 -0.037257 0)
(-0.122443 -0.0360217 0)
(-0.103003 -0.0342818 0)
(-0.0847028 -0.0323972 0)
(-0.0675609 -0.0305977 0)
(-0.0514355 -0.0290034 0)
(-0.0361567 -0.0277857 0)
(-0.0214294 -0.0272172 0)
(-0.007133 -0.0264534 0)
(-0.106095 0.257128 0)
(-0.216419 0.158086 0)
(-0.245206 0.0944882 0)
(-0.261814 0.044076 0)
(-0.261005 0.00777344 0)
(-0.250104 -0.017938 0)
(-0.232094 -0.0341517 0)
(-0.210613 -0.0433586 0)
(-0.187793 -0.0478632 0)
(-0.164906 -0.0491271 0)
(-0.142718 -0.0483817 0)
(-0.121714 -0.0466009 0)
(-0.102047 -0.0441791 0)
(-0.0837089 -0.0416227 0)
(-0.066631 -0.0392015 0)
(-0.0506652 -0.0371354 0)
(-0.0355876 -0.0355313 0)
(-0.021077 -0.0347461 0)
(-0.00701921 -0.0337895 0)
(-0.13882 0.364612 0)
(-0.272409 0.195322 0)
(-0.282449 0.106657 0)
(-0.28941 0.0454855 0)
(-0.279407 0.00295757 0)
(-0.262346 -0.0271074 0)
(-0.239582 -0.0456324 0)
(-0.214745 -0.0557394 0)
(-0.18964 -0.0603455 0)
(-0.165227 -0.0612127 0)
(-0.142144 -0.0598687 0)
(-0.120644 -0.0573146 0)
(-0.10073 -0.0541153 0)
(-0.0823652 -0.0507887 0)
(-0.0654218 -0.0477613 0)
(-0.0496659 -0.0451664 0)
(-0.0348316 -0.0431292 0)
(-0.0206205 -0.0421323 0)
(-0.00687279 -0.0409868 0)
(-0.219298 0.455062 0)
(-0.346126 0.213638 0)
(-0.328268 0.113686 0)
(-0.3247 0.0405616 0)
(-0.301883 -0.00618613 0)
(-0.276712 -0.0393117 0)
(-0.24812 -0.0592849 0)
(-0.219282 -0.0697899 0)
(-0.191491 -0.0738697 0)
(-0.165351 -0.0739847 0)
(-0.141255 -0.0717267 0)
(-0.11918 -0.068208 0)
(-0.0990168 -0.0640688 0)
(-0.0806874 -0.0599482 0)
(-0.0639245 -0.0562318 0)
(-0.0484094 -0.0530368 0)
(-0.0339034 -0.0505615 0)
(-0.0200607 -0.0493152 0)
(-0.00668987 -0.0480026 0)
(-0.214611 0.694497 0)
(-0.451879 0.260597 0)
(-0.37824 0.121181 0)
(-0.369776 0.0301215 0)
(-0.32845 -0.0211284 0)
(-0.293082 -0.0556914 0)
(-0.257555 -0.0757569 0)
(-0.224095 -0.0858441 0)
(-0.19319 -0.0888001 0)
(-0.165146 -0.0877987 0)
(-0.139929 -0.0841803 0)
(-0.117265 -0.0794594 0)
(-0.0968856 -0.0742735 0)
(-0.0786296 -0.0691953 0)
(-0.0620816 -0.0646604 0)
(-0.0468904 -0.060833 0)
(-0.0327782 -0.0578921 0)
(-0.0193858 -0.056356 0)
(-0.0064758 -0.0548877 0)
(0.0198141 -0.171477 0)
(0.077386 -0.304882 0)
(0.14541 -0.309722 0)
(0.209307 -0.29042 0)
(0.271114 -0.281919 0)
(0.334909 -0.285333 0)
(0.402097 -0.294845 0)
(0.472718 -0.306295 0)
(0.547052 -0.317846 0)
(0.625636 -0.32833 0)
(0.709067 -0.336653 0)
(0.79797 -0.341304 0)
(0.892554 -0.33935 0)
(0.992653 -0.326735 0)
(1.09825 -0.298997 0)
(1.20864 -0.249462 0)
(1.32105 -0.1673 0)
(1.42612 -0.036138 0)
(1.5213 0.163774 0)
(1.59295 0.435074 0)
(1.59598 0.793048 0)
(1.54856 1.2334 0)
(1.12873 1.93908 0)
(0.022032 -0.21784 0)
(0.0789866 -0.372314 0)
(0.142567 -0.373289 0)
(0.202149 -0.351392 0)
(0.261355 -0.344437 0)
(0.323738 -0.351018 0)
(0.390012 -0.36406 0)
(0.460078 -0.379341 0)
(0.534486 -0.395317 0)
(0.614249 -0.41101 0)
(0.700665 -0.42554 0)
(0.794942 -0.437128 0)
(0.898267 -0.442691 0)
(1.01246 -0.438781 0)
(1.13965 -0.420479 0)
(1.28064 -0.379378 0)
(1.43482 -0.305721 0)
(1.60036 -0.189958 0)
(1.77278 -0.0271152 0)
(1.90978 0.225112 0)
(1.89364 0.661515 0)
(1.89534 1.23812 0)
(1.63223 1.98693 0)
(0.0241345 -0.266612 0)
(0.0796446 -0.435705 0)
(0.13799 -0.43136 0)
(0.192935 -0.408443 0)
(0.249323 -0.404525 0)
(0.309728 -0.414973 0)
(0.374202 -0.431897 0)
(0.442661 -0.451485 0)
(0.51596 -0.472788 0)
(0.595722 -0.49523 0)
(0.683821 -0.518088 0)
(0.781775 -0.539655 0)
(0.892547 -0.558066 0)
(1.02018 -0.569208 0)
(1.16586 -0.56573 0)
(1.32669 -0.544586 0)
(1.50088 -0.509545 0)
(1.68016 -0.451547 0)
(1.82617 -0.270914 0)
(1.91913 0.216226 0)
(1.86604 0.845104 0)
(1.92975 1.32913 0)
(1.78179 2.01891 0)
(0.0258577 -0.317049 0)
(0.079 -0.494679 0)
(0.131567 -0.484254 0)
(0.18182 -0.461994 0)
(0.235124 -0.462135 0)
(0.29277 -0.476646 0)
(0.354372 -0.497496 0)
(0.419943 -0.521647 0)
(0.490645 -0.549014 0)
(0.56891 -0.579363 0)
(0.656484 -0.612105 0)
(0.755386 -0.647091 0)
(0.871934 -0.683198 0)
(1.00974 -0.710547 0)
(1.16029 -0.725208 0)
(1.3138 -0.738299 0)
(1.47094 -0.730676 0)
(1.61846 -0.606772 0)
(1.76303 -0.230801 0)
(1.80964 0.20397 0)
(1.68943 0.876865 0)
(1.77336 1.32298 0)
(1.67597 2.16296 0)
(0.0270686 -0.368305 0)
(0.0769272 -0.54825 0)
(0.123326 -0.531647 0)
(0.168923 -0.511718 0)
(0.218744 -0.516479 0)
(0.272691 -0.534864 0)
(0.330262 -0.559447 0)
(0.391475 -0.588225 0)
(0.457932 -0.622184 0)
(0.53278 -0.660976 0)
(0.616075 -0.70518 0)
(0.712326 -0.7571 0)
(0.831157 -0.811509 0)
(0.967152 -0.853556 0)
(1.09943 -0.894444 0)
(1.23162 -0.928577 0)
(1.37624 -0.863847 0)
(1.45201 -0.67295 0)
(1.48033 -0.174152 0)
(1.50434 0.471543 0)
(1.46627 1.0902 0)
(1.45168 1.40105 0)
(1.56648 2.11469 0)
(0.027671 -0.419359 0)
(0.0734357 -0.595676 0)
(0.113465 -0.573547 0)
(0.15451 -0.557403 0)
(0.200348 -0.566805 0)
(0.249651 -0.588551 0)
(0.302091 -0.616459 0)
(0.357376 -0.649718 0)
(0.41794 -0.690215 0)
(0.486096 -0.737039 0)
(0.55931 -0.793783 0)
(0.648679 -0.861718 0)
(0.75907 -0.93298 0)
(0.873541 -0.997532 0)
(0.987973 -1.05801 0)
(1.11719 -1.05747 0)
(1.21301 -0.897644 0)
(1.15475 -0.560666 0)
(1.04253 -0.116837 0)
(0.911914 0.466527 0)
(1.08195 1.11655 0)
(1.00241 1.46091 0)
(1.40711 1.90723 0)
(0.0276858 -0.469336 0)
(0.0687662 -0.636613 0)
(0.102369 -0.61024 0)
(0.139018 -0.598923 0)
(0.180344 -0.612499 0)
(0.224165 -0.63685 0)
(0.270377 -0.667421 0)
(0.317965 -0.704516 0)
(0.370412 -0.750058 0)
(0.425866 -0.802939 0)
(0.482962 -0.869232 0)
(0.558989 -0.947205 0)
(0.642302 -1.04872 0)
(0.738134 -1.14638 0)
(0.86503 -1.18796 0)
(0.992543 -1.11204 0)
(0.985841 -0.79045 0)
(0.745596 -0.349708 0)
(0.37399 0.00073681 0)
(0.262253 0.282211 0)
(0.558824 0.86012 0)
(0.552498 1.35804 0)
(1.03056 1.64955 0)
(0.0272583 -0.51746 0)
(0.0633043 -0.671031 0)
(0.0904305 -0.642179 0)
(0.122823 -0.63616 0)
(0.15901 -0.652985 0)
(0.196438 -0.678851 0)
(0.234902 -0.7108 0)
(0.272508 -0.749794 0)
(0.313329 -0.796775 0)
(0.349828 -0.851742 0)
(0.390231 -0.920375 0)
(0.444768 -1.01401 0)
(0.502773 -1.17228 0)
(0.617953 -1.28516 0)
(0.755492 -1.27895 0)
(0.839052 -1.06213 0)
(0.638132 -0.531337 0)
(0.141557 0.018772 0)
(-0.0230718 0.142142 0)
(-0.0985996 0.198075 0)
(0.0824606 0.551481 0)
(0.23846 1.11263 0)
(0.491827 1.42671 0)
(0.0265533 -0.562296 0)
(0.0571728 -0.697912 0)
(0.0774701 -0.668695 0)
(0.105548 -0.667834 0)
(0.135589 -0.686479 0)
(0.165299 -0.712281 0)
(0.19409 -0.743481 0)
(0.21977 -0.781469 0)
(0.246888 -0.826656 0)
(0.267248 -0.881442 0)
(0.302728 -0.953934 0)
(0.347793 -1.09131 0)
(0.452821 -1.30133 0)
(0.570699 -1.38869 0)
(0.628271 -1.27965 0)
(0.606826 -0.875671 0)
(0.139315 -0.119902 0)
(-0.082762 0.208924 0)
(-0.152154 0.206348 0)
(-0.228743 0.197994 0)
(-0.182733 0.368577 0)
(0.0519394 0.814469 0)
(0.14491 1.29016 0)
(0.025896 -0.603463 0)
(0.0501685 -0.716247 0)
(0.0623653 -0.689247 0)
(0.0858693 -0.693152 0)
(0.108605 -0.711876 0)
(0.12965 -0.736021 0)
(0.148921 -0.765062 0)
(0.166084 -0.801871 0)
(0.188855 -0.848836 0)
(0.219828 -0.912803 0)
(0.292492 -1.0096 0)
(0.40154 -1.21293 0)
(0.641158 -1.40557 0)
(0.54769 -1.38408 0)
(0.52396 -1.21444 0)
(0.415611 -0.524649 0)
(0.0252262 0.147948 0)
(-0.0589778 0.299981 0)
(-0.164235 0.277268 0)
(-0.256651 0.249097 0)
(-0.304883 0.300249 0)
(-0.191929 0.607289 0)
(-0.0287514 1.20995 0)
(0.0258964 -0.645071 0)
(0.0423632 -0.730094 0)
(0.0449168 -0.708523 0)
(0.064726 -0.716927 0)
(0.0818492 -0.734569 0)
(0.0986448 -0.757544 0)
(0.119455 -0.787315 0)
(0.151953 -0.829775 0)
(0.212827 -0.895635 0)
(0.322971 -0.993867 0)
(0.539176 -1.15796 0)
(0.783852 -1.38585 0)
(0.830205 -1.3806 0)
(0.457803 -1.27108 0)
(0.406915 -1.14317 0)
(0.42182 -0.450869 0)
(0.162899 0.368678 0)
(0.0132302 0.413491 0)
(-0.154391 0.387397 0)
(-0.275202 0.347703 0)
(-0.399313 0.334393 0)
(-0.439001 0.512185 0)
(-0.297147 0.984233 0)
(0.0264103 -0.686439 0)
(0.0366589 -0.740025 0)
(0.0350115 -0.728168 0)
(0.0583142 -0.741301 0)
(0.0832424 -0.759554 0)
(0.118623 -0.786914 0)
(0.181055 -0.830695 0)
(0.297142 -0.907085 0)
(0.518632 -1.04217 0)
(0.732419 -1.20865 0)
(0.931634 -1.39898 0)
(0.997933 -1.49867 0)
(0.906486 -1.11762 0)
(0.51904 -1.11199 0)
(0.359499 -1.08066 0)
(0.379193 -0.515939 0)
(0.274335 0.538963 0)
(0.0330343 0.600759 0)
(-0.163151 0.535713 0)
(-0.302086 0.485727 0)
(-0.456596 0.452044 0)
(-0.590332 0.525251 0)
(-0.579433 0.801247 0)
(0.0270315 -0.717877 0)
(0.0462588 -0.724358 0)
(0.0712567 -0.739288 0)
(0.12309 -0.766985 0)
(0.196028 -0.796929 0)
(0.296395 -0.853722 0)
(0.428029 -0.954083 0)
(0.573025 -1.11592 0)
(0.724254 -1.25425 0)
(0.875773 -1.41791 0)
(1.02589 -1.50486 0)
(1.05669 -1.40456 0)
(1.04692 -0.914528 0)
(0.719826 -0.776636 0)
(0.350455 -0.941369 0)
(0.314381 -0.423891 0)
(0.230614 0.731 0)
(-0.035545 0.811246 0)
(-0.205798 0.697181 0)
(-0.335094 0.633521 0)
(-0.471964 0.601054 0)
(-0.612708 0.62727 0)
(-0.701687 0.775077 0)
(0.0194664 -0.745574 0)
(0.0512654 -0.746851 0)
(0.114816 -0.780835 0)
(0.17065 -0.828975 0)
(0.238413 -0.889257 0)
(0.320695 -0.977068 0)
(0.412696 -1.09543 0)
(0.508772 -1.23586 0)
(0.623475 -1.39428 0)
(0.761445 -1.55539 0)
(0.915369 -1.59704 0)
(0.948354 -1.39147 0)
(0.92192 -0.87223 0)
(0.904179 -0.381353 0)
(0.315316 -0.701375 0)
(0.239182 -0.249889 0)
(0.0727495 0.929947 0)
(-0.184233 0.990623 0)
(-0.284371 0.837632 0)
(-0.380405 0.756669 0)
(-0.47139 0.723274 0)
(-0.563909 0.73506 0)
(-0.642184 0.819563 0)
(0.0167068 -0.780132 0)
(0.0479668 -0.823675 0)
(0.0919704 -0.846747 0)
(0.132056 -0.894878 0)
(0.175482 -0.961174 0)
(0.223415 -1.05122 0)
(0.273704 -1.16959 0)
(0.331982 -1.32224 0)
(0.424747 -1.52322 0)
(0.54477 -1.71615 0)
(0.652775 -1.70049 0)
(0.593198 -1.37857 0)
(0.520403 -0.830999 0)
(0.697129 -0.251432 0)
(0.171258 -0.414621 0)
(0.0778958 -0.040017 0)
(-0.240053 1.14251 0)
(-0.380471 1.11159 0)
(-0.395501 0.925453 0)
(-0.442613 0.831323 0)
(-0.479315 0.791442 0)
(-0.514362 0.794095 0)
(-0.540149 0.84505 0)
(0.0118494 -0.81114 0)
(0.0317926 -0.854808 0)
(0.0501798 -0.877216 0)
(0.0697474 -0.924354 0)
(0.088039 -0.99167 0)
(0.10587 -1.08287 0)
(0.121272 -1.20524 0)
(0.142013 -1.37927 0)
(0.187394 -1.61794 0)
(0.226884 -1.80336 0)
(0.203854 -1.69201 0)
(0.0630572 -1.3021 0)
(0.00580227 -0.804055 0)
(0.236599 -0.26019 0)
(-0.138678 -0.166871 0)
(-0.244834 0.335082 0)
(-0.639384 1.28883 0)
(-0.589983 1.13148 0)
(-0.523063 0.940042 0)
(-0.514785 0.848596 0)
(-0.499622 0.806194 0)
(-0.488681 0.800845 0)
(-0.469708 0.829801 0)
(0.00471197 -0.827812 0)
(0.00935366 -0.860938 0)
(0.010084 -0.886551 0)
(0.0101252 -0.931084 0)
(0.00525287 -0.994939 0)
(-0.00672842 -1.08111 0)
(-0.0291193 -1.19886 0)
(-0.0574518 -1.37662 0)
(-0.0992058 -1.60986 0)
(-0.190441 -1.74498 0)
(-0.348692 -1.5656 0)
(-0.48458 -1.17819 0)
(-0.482634 -0.743542 0)
(-0.478477 -0.299604 0)
(-0.706332 0.106982 0)
(-0.891891 0.726141 0)
(-0.970909 1.26647 0)
(-0.768133 1.02414 0)
(-0.639733 0.880114 0)
(-0.579948 0.812427 0)
(-0.523121 0.777266 0)
(-0.479946 0.76963 0)
(-0.432261 0.785657 0)
(-0.00268131 -0.827464 0)
(-0.0120088 -0.854378 0)
(-0.0248481 -0.878876 0)
(-0.04193 -0.917845 0)
(-0.0670896 -0.972734 0)
(-0.104996 -1.04544 0)
(-0.161097 -1.14497 0)
(-0.240146 -1.29505 0)
(-0.375631 -1.48096 0)
(-0.588086 -1.56923 0)
(-0.813566 -1.40781 0)
(-0.954744 -1.04319 0)
(-1.03352 -0.594207 0)
(-1.1697 -0.12145 0)
(-1.30937 0.350955 0)
(-1.29985 0.8231 0)
(-1.13038 1.0295 0)
(-0.859549 0.826524 0)
(-0.71448 0.769122 0)
(-0.620692 0.736348 0)
(-0.539305 0.716651 0)
(-0.476104 0.713568 0)
(-0.412127 0.724467 0)
(-0.00875707 -0.812921 0)
(-0.029584 -0.836771 0)
(-0.0539593 -0.856687 0)
(-0.0844588 -0.887909 0)
(-0.12484 -0.930525 0)
(-0.180613 -0.984813 0)
(-0.258086 -1.0542 0)
(-0.369509 -1.15151 0)
(-0.553912 -1.27129 0)
(-0.821463 -1.33081 0)
(-1.09345 -1.21037 0)
(-1.29352 -0.892488 0)
(-1.42673 -0.495122 0)
(-1.53967 -0.0867298 0)
(-1.52119 0.341111 0)
(-1.36723 0.638096 0)
(-1.10669 0.70305 0)
(-0.867167 0.623185 0)
(-0.736992 0.641373 0)
(-0.631152 0.639674 0)
(-0.542213 0.638397 0)
(-0.469535 0.643799 0)
(-0.398467 0.654693 0)
(-0.0134489 -0.788813 0)
(-0.0431187 -0.808697 0)
(-0.0764156 -0.823733 0)
(-0.116214 -0.846466 0)
(-0.165883 -0.876198 0)
(-0.230432 -0.911514 0)
(-0.315018 -0.950238 0)
(-0.429254 -0.995143 0)
(-0.602531 -1.04656 0)
(-0.851488 -1.06247 0)
(-1.12345 -0.968778 0)
(-1.33772 -0.734617 0)
(-1.45766 -0.404209 0)
(-1.48025 -0.0785865 0)
(-1.39602 0.186181 0)
(-1.20812 0.370572 0)
(-0.989619 0.438356 0)
(-0.827996 0.467755 0)
(-0.717779 0.521036 0)
(-0.617218 0.540857 0)
(-0.53153 0.555631 0)
(-0.457511 0.569612 0)
(-0.386028 0.582978 0)
(-0.0167725 -0.756692 0)
(-0.0526832 -0.773311 0)
(-0.0918945 -0.783411 0)
(-0.13713 -0.798135 0)
(-0.191074 -0.816197 0)
(-0.257532 -0.83549 0)
(-0.339697 -0.85178 0)
(-0.440962 -0.861336 0)
(-0.575664 -0.862222 0)
(-0.758678 -0.836866 0)
(-0.964766 -0.747663 0)
(-1.13251 -0.579995 0)
(-1.21786 -0.365441 0)
(-1.21408 -0.14804 0)
(-1.13371 0.0410391 0)
(-1.00207 0.184661 0)
(-0.870974 0.282968 0)
(-0.768411 0.358732 0)
(-0.675253 0.417837 0)
(-0.588288 0.45128 0)
(-0.510526 0.476928 0)
(-0.440343 0.497457 0)
(-0.372592 0.513874 0)
(-0.0187825 -0.719366 0)
(-0.0586057 -0.733158 0)
(-0.101173 -0.738928 0)
(-0.148801 -0.746851 0)
(-0.203519 -0.755362 0)
(-0.26788 -0.762365 0)
(-0.343748 -0.764109 0)
(-0.43131 -0.755407 0)
(-0.533389 -0.731445 0)
(-0.655185 -0.685583 0)
(-0.787627 -0.605876 0)
(-0.899045 -0.484368 0)
(-0.958601 -0.33336 0)
(-0.959421 -0.177256 0)
(-0.915084 -0.0320307 0)
(-0.847325 0.0941692 0)
(-0.774609 0.197075 0)
(-0.700856 0.276069 0)
(-0.624049 0.33312 0)
(-0.551571 0.374373 0)
(-0.483182 0.405993 0)
(-0.419411 0.430825 0)
(-0.35748 0.449896 0)
(-0.0198183 -0.679153 0)
(-0.0615214 -0.690641 0)
(-0.105424 -0.692819 0)
(-0.153276 -0.695353 0)
(-0.206554 -0.696597 0)
(-0.266787 -0.694663 0)
(-0.334971 -0.686694 0)
(-0.410716 -0.668851 0)
(-0.492863 -0.636287 0)
(-0.579634 -0.583387 0)
(-0.665241 -0.506373 0)
(-0.736758 -0.406749 0)
(-0.779807 -0.292454 0)
(-0.790257 -0.174049 0)
(-0.774805 -0.0590235 0)
(-0.739667 0.0469988 0)
(-0.690518 0.138152 0)
(-0.6327 0.209553 0)
(-0.571371 0.264966 0)
(-0.511429 0.309368 0)
(-0.452538 0.343736 0)
(-0.396073 0.371108 0)
(-0.340731 0.392115 0)
(-0.0201291 -0.637788 0)
(-0.0620561 -0.647432 0)
(-0.105733 -0.646814 0)
(-0.152315 -0.645297 0)
(-0.202825 -0.641333 0)
(-0.258114 -0.633332 0)
(-0.318491 -0.619046 0)
(-0.383473 -0.595869 0)
(-0.451805 -0.560776 0)
(-0.520453 -0.510064 0)
(-0.583431 -0.44154 0)
(-0.633461 -0.357809 0)
(-0.665395 -0.265222 0)
(-0.677928 -0.169835 0)
(-0.672236 -0.0754954 0)
(-0.649744 0.0141591 0)
(-0.613459 0.0925649 0)
(-0.568552 0.157125 0)
(-0.520186 0.210561 0)
(-0.47062 0.254779 0)
(-0.420595 0.289996 0)
(-0.371397 0.318564 0)
(-0.322662 0.340759 0)
(-0.0198575 -0.596704 0)
(-0.0608201 -0.604867 0)
(-0.103118 -0.60223 0)
(-0.147458 -0.597812 0)
(-0.194463 -0.590305 0)
(-0.244585 -0.578427 0)
(-0.297705 -0.560484 0)
(-0.353089 -0.534644 0)
(-0.409521 -0.499206 0)
(-0.464774 -0.452408 0)
(-0.514511 -0.392996 0)
(-0.553423 -0.322353 0)
(-0.578412 -0.24491 0)
(-0.58942 -0.165105 0)
(-0.586981 -0.0857172 0)
(-0.571184 -0.0099331 0)
(-0.544284 0.05798 0)
(-0.510152 0.116629 0)
(-0.47179 0.166874 0)
(-0.430839 0.209236 0)
(-0.388634 0.244111 0)
(-0.346183 0.272875 0)
(-0.303663 0.295603 0)
(-0.0191136 -0.556962 0)
(-0.0583366 -0.563917 0)
(-0.0984804 -0.55992 0)
(-0.140004 -0.553542 0)
(-0.183199 -0.543771 0)
(-0.228252 -0.529607 0)
(-0.274847 -0.509873 0)
(-0.322198 -0.483336 0)
(-0.369111 -0.448828 0)
(-0.413851 -0.405322 0)
(-0.453702 -0.352537 0)
(-0.485312 -0.291918 0)
(-0.506268 -0.226488 0)
(-0.515978 -0.15921 0)
(-0.514826 -0.092084 0)
(-0.503702 -0.0274128 0)
(-0.483873 0.0319244 0)
(-0.457459 0.0849209 0)
(-0.426697 0.131369 0)
(-0.39291 0.171322 0)
(-0.357398 0.205117 0)
(-0.320984 0.233418 0)
(-0.284119 0.256189 0)
(-0.0180287 -0.519143 0)
(-0.0550121 -0.525152 0)
(-0.0925331 -0.520299 0)
(-0.130929 -0.512705 0)
(-0.170271 -0.501626 0)
(-0.210561 -0.486312 0)
(-0.251423 -0.465948 0)
(-0.292156 -0.439744 0)
(-0.331753 -0.40708 0)
(-0.368742 -0.36753 0)
(-0.401102 -0.321071 0)
(-0.426738 -0.268633 0)
(-0.444241 -0.212226 0)
(-0.453097 -0.154147 0)
(-0.45338 -0.0963218 0)
(-0.44558 -0.0405035 0)
(-0.430545 0.0119189 0)
(-0.409828 0.0596965 0)
(-0.384993 0.102333 0)
(-0.357123 0.139727 0)
(-0.327275 0.172021 0)
(-0.296167 0.199475 0)
(-0.264355 0.221962 0)
(-0.0167508 -0.4837 0)
(-0.0511828 -0.489018 0)
(-0.0858433 -0.48367 0)
(-0.120984 -0.475423 0)
(-0.156565 -0.463712 0)
(-0.192459 -0.448017 0)
(-0.228289 -0.427799 0)
(-0.263413 -0.402573 0)
(-0.296989 -0.371977 0)
(-0.327923 -0.335841 0)
(-0.354823 -0.294396 0)
(-0.376219 -0.248517 0)
(-0.391054 -0.19962 0)
(-0.398933 -0.149259 0)
(-0.399956 -0.098888 0)
(-0.394471 -0.0498601 0)
(-0.383037 -0.00335852 0)
(-0.366699 0.0396136 0)
(-0.346582 0.0786211 0)
(-0.323558 0.11341 0)
(-0.298479 0.143985 0)
(-0.271982 0.170374 0)
(-0.244635 0.192363 0)
(-0.0154012 -0.450857 0)
(-0.0470925 -0.45571 0)
(-0.078808 -0.45012 0)
(-0.110701 -0.441618 0)
(-0.142691 -0.429747 0)
(-0.17457 -0.41418 0)
(-0.205987 -0.394569 0)
(-0.236397 -0.370641 0)
(-0.265104 -0.342244 0)
(-0.291243 -0.309389 0)
(-0.313813 -0.272346 0)
(-0.331832 -0.231786 0)
(-0.344568 -0.188768 0)
(-0.351659 -0.144516 0)
(-0.353122 -0.100185 0)
(-0.349279 -0.0567959 0)
(-0.340607 -0.0152888 0)
(-0.32765 0.0235162 0)
(-0.311243 0.0592183 0)
(-0.292185 0.0915045 0)
(-0.271117 0.120297 0)
(-0.248597 0.145508 0)
(-0.225163 0.166865 0)
(-0.0140522 -0.420771 0)
(-0.0429084 -0.425329 0)
(-0.0716865 -0.419677 0)
(-0.100428 -0.411184 0)
(-0.129033 -0.399467 0)
(-0.157267 -0.384344 0)
(-0.184803 -0.365607 0)
(-0.21118 -0.343122 0)
(-0.235832 -0.316855 0)
(-0.258098 -0.286908 0)
(-0.277249 -0.253591 0)
(-0.292587 -0.217472 0)
(-0.303588 -0.179342 0)
(-0.309977 -0.140121 0)
(-0.311721 -0.100751 0)
(-0.309043 -0.0620842 0)
(-0.302353 -0.024819 0)
(-0.292026 0.0104595 0)
(-0.278647 0.0432596 0)
(-0.262872 0.0732436 0)
(-0.245196 0.100307 0)
(-0.2261 0.124317 0)
(-0.206078 0.144972 0)
(-0.0127296 -0.393498 0)
(-0.0387369 -0.397856 0)
(-0.0646375 -0.39227 0)
(-0.090377 -0.38395 0)
(-0.115817 -0.372585 0)
(-0.140743 -0.358085 0)
(-0.164847 -0.340348 0)
(-0.187749 -0.31933 0)
(-0.208988 -0.295074 0)
(-0.228052 -0.267734 0)
(-0.244402 -0.23761 0)
(-0.25754 -0.205179 0)
(-0.267083 -0.171072 0)
(-0.272818 -0.136006 0)
(-0.274715 -0.100718 0)
(-0.272928 -0.0659165 0)
(-0.267756 -0.0321905 0)
(-0.259456 3.6984e-06 0)
(-0.248509 0.0301455 0)
(-0.235469 0.0580208 0)
(-0.220665 0.0834605 0)
(-0.204515 0.1063 0)
(-0.187465 0.12623 0)
(-0.0114355 -0.369014 0)
(-0.0346493 -0.373206 0)
(-0.0577652 -0.367777 0)
(-0.0806684 -0.359727 0)
(-0.103166 -0.348825 0)
(-0.125083 -0.33504 0)
(-0.146133 -0.31834 0)
(-0.166002 -0.298743 0)
(-0.184319 -0.276336 0)
(-0.200685 -0.251294 0)
(-0.214697 -0.223906 0)
(-0.22599 -0.194576 0)
(-0.234284 -0.163817 0)
(-0.239418 -0.132206 0)
(-0.241362 -0.100343 0)
(-0.240205 -0.0688017 0)
(-0.236157 -0.0380688 0)
(-0.229563 -0.00853792 0)
(-0.220665 0.0193364 0)
(-0.209827 0.0453411 0)
(-0.197443 0.0692964 0)
(-0.183828 0.0910325 0)
(-0.169366 0.110244 0)
(-0.01017 -0.347222 0)
(-0.0306972 -0.351253 0)
(-0.051143 -0.346034 0)
(-0.0713708 -0.338306 0)
(-0.0911341 -0.327923 0)
(-0.110301 -0.314882 0)
(-0.12861 -0.299202 0)
(-0.145802 -0.280938 0)
(-0.161576 -0.260201 0)
(-0.175624 -0.237177 0)
(-0.187639 -0.212131 0)
(-0.197351 -0.185414 0)
(-0.204551 -0.157452 0)
(-0.20912 -0.128721 0)
(-0.211036 -0.0997151 0)
(-0.21036 -0.0709171 0)
(-0.20724 -0.0427503 0)
(-0.201933 -0.0155601 0)
(-0.194665 0.0104132 0)
(-0.185728 0.0347981 0)
(-0.175419 0.0574277 0)
(-0.163995 0.0781485 0)
(-0.151792 0.0966729 0)
(-0.0089398 -0.32801 0)
(-0.0269158 -0.33188 0)
(-0.0448184 -0.326893 0)
(-0.062518 -0.319506 0)
(-0.0797355 -0.309651 0)
(-0.0963726 -0.297341 0)
(-0.112197 -0.282625 0)
(-0.126994 -0.265581 0)
(-0.140522 -0.246333 0)
(-0.152539 -0.225065 0)
(-0.162813 -0.202021 0)
(-0.171139 -0.177509 0)
(-0.177362 -0.151889 0)
(-0.181395 -0.125561 0)
(-0.183222 -0.0989397 0)
(-0.182893 -0.0724331 0)
(-0.180519 -0.0464083 0)
(-0.17628 -0.0211599 0)
(-0.170366 0.00309794 0)
(-0.16301 0.0260729 0)
(-0.154477 0.0475329 0)
(-0.144955 0.067339 0)
(-0.134733 0.0852239 0)
(-0.00775336 -0.31129 0)
(-0.0233178 -0.315013 0)
(-0.0388046 -0.310254 0)
(-0.0541082 -0.303203 0)
(-0.068946 -0.293854 0)
(-0.0832395 -0.282229 0)
(-0.0967898 -0.268392 0)
(-0.109417 -0.252435 0)
(-0.12093 -0.234489 0)
(-0.131138 -0.214731 0)
(-0.139863 -0.193386 0)
(-0.146951 -0.170725 0)
(-0.152287 -0.14706 0)
(-0.155806 -0.122731 0)
(-0.157499 -0.0980931 0)
(-0.157409 -0.073498 0)
(-0.155625 -0.0492729 0)
(-0.152273 -0.0256737 0)
(-0.1475 -0.00287384 0)
(-0.141493 0.0188928 0)
(-0.134495 0.0393465 0)
(-0.126638 0.0583452 0)
(-0.118163 0.0756504 0)
(-0.00661131 -0.296913 0)
(-0.019891 -0.300513 0)
(-0.0330841 -0.295973 0)
(-0.046109 -0.289244 0)
(-0.0587115 -0.280367 0)
(-0.0708172 -0.269367 0)
(-0.0822629 -0.256317 0)
(-0.0929004 -0.241314 0)
(-0.102578 -0.224491 0)
(-0.111148 -0.206016 0)
(-0.118472 -0.186096 0)
(-0.124434 -0.164974 0)
(-0.128951 -0.142926 0)
(-0.131974 -0.120246 0)
(-0.133497 -0.0972411 0)
(-0.13356 -0.074219 0)
(-0.132236 -0.0514743 0)
(-0.12962 -0.0292455 0)
(-0.125834 -0.00768482 0)
(-0.121014 0.0130447 0)
(-0.115345 0.0326525 0)
(-0.108962 0.0509546 0)
(-0.102045 0.0677479 0)
(-0.00549883 -0.284621 0)
(-0.0166004 -0.288123 0)
(-0.0276268 -0.283788 0)
(-0.0384811 -0.277363 0)
(-0.0489751 -0.268921 0)
(-0.0590252 -0.258487 0)
(-0.0685049 -0.246137 0)
(-0.0772939 -0.231969 0)
(-0.0852739 -0.216112 0)
(-0.0923309 -0.198725 0)
(-0.0983617 -0.179999 0)
(-0.103281 -0.160155 0)
(-0.107027 -0.139437 0)
(-0.109567 -0.118108 0)
(-0.110896 -0.0964362 0)
(-0.111048 -0.0746957 0)
(-0.110087 -0.0531522 0)
(-0.108091 -0.0320362 0)
(-0.105157 -0.0115021 0)
(-0.101387 0.00835346 0)
(-0.0969023 0.027279 0)
(-0.0918399 0.0449988 0)
(-0.0863308 0.061352 0)
(-0.00437737 -0.274464 0)
(-0.0133719 -0.277846 0)
(-0.0223673 -0.273677 0)
(-0.0311521 -0.267516 0)
(-0.0396504 -0.259441 0)
(-0.0477644 -0.249486 0)
(-0.0554019 -0.237723 0)
(-0.0624667 -0.224252 0)
(-0.068866 -0.209196 0)
(-0.0745129 -0.192706 0)
(-0.0793316 -0.174959 0)
(-0.0832623 -0.156157 0)
(-0.0862637 -0.136521 0)
(-0.0883156 -0.116285 0)
(-0.0894209 -0.0956897 0)
(-0.089608 -0.0749788 0)
(-0.0889301 -0.0543924 0)
(-0.0874583 -0.0341555 0)
(-0.0852705 -0.0144332 0)
(-0.0824355 0.00470996 0)
(-0.079025 0.0230995 0)
(-0.0751806 0.0403514 0)
(-0.0709709 0.0563357 0)
(-0.00320746 -0.26687 0)
(-0.0101014 -0.269984 0)
(-0.0171618 -0.265944 0)
(-0.0239446 -0.259996 0)
(-0.0305195 -0.252206 0)
(-0.0367858 -0.242618 0)
(-0.0426826 -0.231304 0)
(-0.0481356 -0.218363 0)
(-0.0530719 -0.203916 0)
(-0.0574228 -0.188106 0)
(-0.0611293 -0.1711 0)
(-0.0641457 -0.153084 0)
(-0.0664432 -0.134263 0)
(-0.0680117 -0.114851 0)
(-0.0688617 -0.0950688 0)
(-0.0690241 -0.0751376 0)
(-0.0685496 -0.055274 0)
(-0.0675051 -0.0356884 0)
(-0.065962 -0.0165561 0)
(-0.0639808 0.00205467 0)
(-0.0615901 0.0200363 0)
(-0.058894 0.036932 0)
(-0.0559148 0.0526119 0)
(-0.0020207 -0.261612 0)
(-0.00678629 -0.26412 0)
(-0.0119171 -0.260221 0)
(-0.0167138 -0.254476 0)
(-0.0213712 -0.246927 0)
(-0.0258079 -0.237631 0)
(-0.0299928 -0.226667 0)