/*--------------------------------*- C++ -*----------------------------------*\
| =========                 |                                                 |
| \\      /  F ield         | OpenFOAM: The Open Source CFD Toolbox           |
|  \\    /   O peration     | Version:  2206                                  |
|   \\  /    A nd           | Website:  www.openfoam.com                      |
|    \\/     M anipulation  |                                                 |
\*---------------------------------------------------------------------------*/
FoamFile
{
    version     2.0;
    format      ascii;
    arch        "LSB;label=32;scalar=64";
    class       surfaceScalarField;
    location    "0.9";
    object      alphaPhi0.water;
}
// * * * * * * * * * * * * * * * * * * * * * * * * * * * * * * * * * * * * * //

dimensions      [0 3 -1 0 0 0 0];

oriented        oriented;

internalField   nonuniform List<scalar> 
4432
(
-3.48414e-07
3.48414e-07
-3.52855e-06
3.18013e-06
-9.08826e-06
5.5597e-06
-1.40726e-05
4.98432e-06
-1.56161e-05
1.54356e-06
-1.48083e-05
-8.07818e-07
-1.4297e-05
-5.11386e-07
-1.48424e-05
5.45454e-07
-1.60656e-05
1.22322e-06
-1.7674e-05
1.60837e-06
-1.90614e-05
1.38745e-06
-1.92623e-05
2.0101e-07
-1.80419e-05
-1.09673e-06
-1.77337e-05
4.55242e-08
-2.13933e-05
3.53717e-06
-2.73682e-05
5.48027e-06
-2.88031e-05
1.51598e-06
-2.38744e-05
-4.76717e-06
-1.64147e-05
-7.38732e-06
-9.7257e-06
-6.55517e-06
-3.84888e-06
-5.94477e-06
-3.27968e-07
-3.53462e-06
-3.28051e-07
-6.04511e-06
6.39352e-06
-1.25614e-05
9.69646e-06
-1.74824e-05
1.04806e-05
-1.88083e-05
6.31022e-06
-1.73605e-05
9.57374e-08
-1.54588e-05
-2.70946e-06
-1.47591e-05
-1.21112e-06
-1.54348e-05
1.22115e-06
-1.70085e-05
2.79691e-06
-1.88854e-05
3.48529e-06
-2.08681e-05
3.37025e-06
-2.31642e-05
2.49837e-06
-2.47009e-05
1.72272e-06
-2.75805e-05
2.89656e-06
-2.89447e-05
4.87294e-06
-2.65337e-05
2.91313e-06
-2.02857e-05
-4.8182e-06
-1.36195e-05
-1.15338e-05
-8.29414e-06
-1.26516e-05
-3.51269e-06
-1.17828e-05
8.7975e-07
-1.05759e-05
2.43448e-06
-5.08795e-06
2.10595e-06
-8.12775e-06
1.45213e-05
-1.47502e-05
1.63189e-05
-1.8609e-05
1.43395e-05
-1.96093e-05
7.31059e-06
-1.835e-05
-1.16357e-06
-1.6399e-05
-4.66045e-06
-1.52541e-05
-2.35605e-06
-1.54173e-05
1.38432e-06
-1.62875e-05
3.66709e-06
-1.73907e-05
4.58853e-06
-1.86495e-05
4.62899e-06
-2.02734e-05
4.12265e-06
-2.18882e-05
3.69682e-06
-2.19595e-05
3.93322e-06
-1.99979e-05
2.88766e-06
-1.48907e-05
-2.22117e-06
-1.00336e-05
-1.03478e-05
-7.07327e-06
-1.51575e-05
-4.47304e-06
-1.56961e-05
-7.15662e-07
-1.56295e-05
3.55162e-06
-1.48431e-05
4.62168e-06
-6.15799e-06
6.72756e-06
-7.88441e-06
2.24057e-05
-1.39943e-05
2.24288e-05
-1.78687e-05
1.82138e-05
-1.94143e-05
8.8562e-06
-1.85675e-05
-2.0104e-06
-1.68598e-05
-6.36814e-06
-1.59759e-05
-3.23986e-06
-1.61646e-05
1.57294e-06
-1.69436e-05
4.44616e-06
-1.78231e-05
5.46796e-06
-1.84513e-05
5.25725e-06
-1.8586e-05
4.2573e-06
-1.78468e-05
2.9656e-06
-1.53224e-05
1.56128e-06
-1.12643e-05
-1.05237e-06
-7.45547e-06
-6.2026e-06
-5.73203e-06
-1.20712e-05
-5.50146e-06
-1.5388e-05
-4.56011e-06
-1.66375e-05
-1.62942e-06
-1.85602e-05
2.28325e-06
-1.87558e-05
4.28011e-06
-8.15484e-06
1.10078e-05
-6.71159e-06
2.91172e-05
-1.21385e-05
2.78557e-05
-1.58668e-05
2.19421e-05
-1.74713e-05
1.04607e-05
-1.70963e-05
-2.38537e-06
-1.63331e-05
-7.13139e-06
-1.6345e-05
-3.22794e-06
-1.69845e-05
2.21242e-06
-1.79545e-05
5.41622e-06
-1.90036e-05
6.517e-06
-1.96801e-05
5.93374e-06
-1.93977e-05
3.97488e-06
-1.75253e-05
1.09329e-06
-1.38219e-05
-2.1422e-06
-9.42052e-06
-5.45371e-06
-6.5679e-06
-9.05522e-06
-6.11879e-06
-1.25203e-05
-6.40344e-06
-1.51034e-05
-5.57982e-06
-1.74611e-05
-3.54952e-06
-2.05905e-05
-1.05092e-06
-2.12544e-05
2.15943e-06
-1.13652e-05
1.31673e-05
-5.11389e-06
3.42311e-05
-9.50964e-06
3.22514e-05
-1.25108e-05
2.49433e-05
-1.38456e-05
1.17955e-05
-1.41394e-05
-2.09154e-06
-1.48825e-05
-6.38827e-06
-1.63239e-05
-1.78659e-06
-1.76742e-05
3.56274e-06
-1.8897e-05
6.63901e-06
-2.01002e-05
7.72024e-06
-2.09896e-05
6.82311e-06
-2.09244e-05
3.90972e-06
-1.91393e-05
-6.91875e-07
-1.5361e-05
-5.92046e-06
-1.09028e-05
-9.91188e-06
-7.9279e-06
-1.20301e-05
-6.97316e-06
-1.34751e-05
-6.52891e-06
-1.55476e-05
-5.57992e-06
-1.84101e-05
-4.73278e-06
-2.14376e-05
-3.78249e-06
-2.22047e-05
-1.53549e-07
-1.49942e-05
1.30137e-05
-3.21834e-06
3.74495e-05
-6.43656e-06
3.54696e-05
-8.49436e-06
2.70011e-05
-9.17699e-06
1.24781e-05
-9.78713e-06
-1.47995e-06
-1.27043e-05
-3.46908e-06
-1.60471e-05
1.55433e-06
-1.81973e-05
5.71288e-06
-1.97223e-05
8.164e-06
-2.10376e-05
9.03561e-06
-2.20827e-05
7.86821e-06
-2.21847e-05
4.01169e-06
-2.02484e-05
-2.62817e-06
-1.57409e-05
-1.04279e-05
-1.03779e-05
-1.52749e-05
-6.86159e-06
-1.55465e-05
-5.73336e-06
-1.46033e-05
-5.31322e-06
-1.59677e-05
-4.57571e-06
-1.91476e-05
-4.03347e-06
-2.19798e-05
-3.72554e-06
-2.25127e-05
-2.4481e-06
-1.6272e-05
1.05652e-05
-1.43719e-06
3.88867e-05
-3.244e-06
3.72764e-05
-3.2261e-06
2.69832e-05
-1.48353e-06
1.07355e-05
-3.71028e-06
7.48705e-07
-1.01095e-05
2.92855e-06
-1.53359e-05
6.77435e-06
-1.79671e-05
8.34411e-06
-1.95786e-05
9.77553e-06
-2.09101e-05
1.03671e-05
-2.20874e-05
9.0455e-06
-2.22603e-05
4.18456e-06
-1.96795e-05
-5.20892e-06
-1.37892e-05
-1.63177e-05
-7.32284e-06
-2.17398e-05
-3.76386e-06
-1.91052e-05
-3.41867e-06
-1.49485e-05
-3.88856e-06
-1.54978e-05
-3.44247e-06
-1.95935e-05
-1.85702e-06
-2.35639e-05
-6.32982e-08
-2.4306e-05
-1.04778e-06
-1.52547e-05
9.5174e-06
1.19452e-05
-1.20679e-05
1.45097e-05
-2.29521e-06
1.5016e-05
3.27938e-08
1.90852e-05
-3.52117e-06
1.85622e-05
-3.73664e-06
1.90583e-05
-5.55841e-07
1.75302e-05
1.47593e-06
1.11957e-05
6.28206e-06
3.61931e-07
1.264e-05
-1.39367e-05
1.4301e-05
-1.22595e-05
-1.67497e-06
3.52806e-07
-1.26098e-05
1.17557e-06
-8.20112e-07
-2.56957e-05
2.68724e-05
-5.19315e-05
2.58362e-05
-7.08622e-05
7.32887e-06
-5.82208e-05
-1.7706e-05
-2.47177e-05
-3.49745e-05
-2.61621e-05
5.81209e-06
-1.73885e-05
8.02827e-06
-5.9888e-06
1.95558e-05
-1.08861e-05
2.60443e-05
-1.50847e-05
3.10863e-05
-7.89376e-06
3.42904e-05
2.27854e-07
3.04616e-05
5.80536e-06
2.56205e-05
1.10708e-05
1.5436e-05
2.28276e-05
2.66777e-06
2.44375e-05
-1.30737e-05
1.40688e-05
-1.83754e-05
-7.30557e-06
-3.17798e-05
1.25855e-05
-3.7642e-05
3.31461e-05
-3.29693e-05
2.15562e-05
-3.32161e-05
3.05353e-06
-3.69412e-05
-2.01903e-05
-1.78533e-05
-5.34306e-05
-4.54988e-05
-1.56811e-06
-1.58201e-05
1.54552e-05
-2.30128e-05
2.47422e-05
-3.09671e-05
3.41298e-05
-2.44537e-05
3.70722e-05
-1.17106e-05
4.70632e-05
3.28123e-06
4.43282e-05
1.45233e-05
3.49597e-05
2.16221e-05
2.62331e-05
3.16507e-05
1.60502e-05
3.40735e-05
6.92342e-07
2.98607e-05
-1.90819e-05
1.24723e-05
-2.52146e-05
1.51107e-05
-2.03094e-05
2.60868e-05
-1.77622e-05
1.89232e-05
-1.22258e-05
-2.60478e-06
-1.01686e-05
-2.22938e-05
-2.00853e-06
-6.10329e-05
-4.90146e-05
2.96387e-06
-1.87838e-05
2.45737e-05
-4.46223e-05
3.80326e-05
-4.44123e-05
4.07119e-05
-2.74112e-05
3.57272e-05
-8.1309e-06
4.04697e-05
4.38148e-06
4.3844e-05
1.73253e-05
3.73575e-05
2.8401e-05
2.85219e-05
4.46561e-05
2.06604e-05
4.20909e-05
9.59187e-06
5.33339e-05
-4.95319e-06
3.0675e-05
-8.45324e-06
1.8505e-05
-8.73435e-06
2.62821e-05
-4.7039e-06
1.47951e-05
1.04419e-07
-7.52695e-06
4.45589e-06
-2.67605e-05
1.12231e-05
-6.92591e-05
-3.95973e-05
6.30521e-06
-2.50888e-05
2.41141e-05
-6.24296e-05
3.11419e-05
-5.14197e-05
2.22358e-05
-2.06077e-05
1.44321e-05
-1.18056e-06
1.9391e-05
1.93204e-06
2.76452e-05
1.34881e-05
2.92425e-05
2.70058e-05
3.1075e-05
4.30419e-05
3.10164e-05
5.74915e-05
2.29339e-05
6.18516e-05
3.72367e-06
5.49042e-05
-7.73832e-07
3.45537e-05
1.194e-06
2.42215e-05
5.6716e-06
1.022e-05
9.38141e-06
-1.13345e-05
2.29443e-05
-4.97806e-05
1.76862e-05
-6.62014e-05
-2.31553e-05
3.69801e-06
-2.87851e-05
1.15444e-05
-7.02604e-05
1.42395e-05
-5.36829e-05
2.4009e-06
-4.29835e-06
1.37423e-06
-2.04487e-07
2.7513e-06
1.25575e-06
1.05464e-05
1.23127e-05
1.62043e-05
2.15661e-05
2.1487e-05
3.79884e-05
2.8e-05
5.13226e-05
2.74129e-05
6.2748e-05
1.56473e-05
6.69728e-05
7.50753e-06
5.81362e-05
8.18334e-06
2.34509e-05
1.19199e-05
6.39055e-06
2.0352e-05
-2.10438e-05
3.15107e-05
-6.2217e-05
1.91237e-05
-5.37662e-05
-5.62532e-06
-1.4792e-07
-2.86217e-05
-4.68437e-07
-6.98007e-05
3.1203e-06
-2.87594e-05
3.74032e-07
-1.61149e-06
2.8548e-08
8.91519e-08
-5.30149e-07
1.76386e-06
3.65008e-06
8.04295e-06
5.22683e-06
1.93695e-05
8.37744e-06
3.51792e-05
1.49566e-05
4.50291e-05
2.04558e-05
5.75302e-05
1.97061e-05
6.80317e-05
1.53922e-05
6.27531e-05
1.48175e-05
4.82216e-05
2.37199e-05
7.08077e-06
3.35392e-05
-3.2421e-05
2.45495e-05
-5.20079e-05
1.04122e-05
-3.9097e-05
4.1417e-06
-6.57981e-06
-2.19027e-05
-3.46169e-06
-4.46051e-05
-2.13534e-07
-1.81234e-05
-6.17577e-07
-1.26686e-06
-8.79224e-07
2.80534e-07
-9.7668e-07
1.61009e-06
-5.44951e-06
3.5344e-06
-1.13091e-05
5.03641e-06
-1.25643e-05
1.10761e-05
-8.07575e-06
1.73011e-05
2.53034e-06
2.91603e-05
1.35729e-05
5.72716e-05
1.93226e-05
5.71483e-05
2.72261e-05
4.48574e-05
3.24004e-05
4.56114e-06
2.36571e-05
-2.12086e-05
9.42145e-06
-3.55458e-05
2.81837e-06
-3.62384e-05
6.5181e-06
6.66072e-06
3.2226e-05
7.6578e-06
3.62794e-05
8.75699e-06
2.5884e-05
1.80971e-06
1.76828e-05
-1.35902e-05
1.61488e-05
-2.65019e-05
1.58414e-05
-3.16972e-05
1.19701e-05
-3.47699e-05
1.14168e-05
-3.81716e-05
1.31772e-05
-4.19934e-05
1.41889e-05
-4.67709e-05
1.3823e-05
-5.02878e-05
7.70173e-06
-4.8427e-05
-7.06574e-06
-3.72494e-05
-2.61914e-05
-2.16216e-05
-3.42824e-05
-1.18975e-05
-2.74251e-05
-1.04627e-05
-1.56252e-05
-1.17042e-05
-1.41887e-05
-9.33309e-06
-2.19289e-05
2.19892e-07
-3.04324e-05
1.43307e-05
-3.75928e-05
2.72613e-05
-2.79922e-05
-8.21548e-06
4.49786e-05
1.74834e-05
1.47425e-05
1.80665e-05
3.56963e-05
1.09633e-05
3.29873e-05
-7.41646e-06
3.60625e-05
-2.6133e-05
3.48654e-05
-3.53816e-05
2.50899e-05
-4.0998e-05
1.75867e-05
-4.74384e-05
1.441e-05
-5.30932e-05
1.42493e-05
-6.12739e-05
1.49791e-05
-7.61623e-05
1.92672e-05
-9.62522e-05
2.00329e-05
-9.85013e-05
2.80086e-06
-8.55233e-05
-3.35065e-05
-5.38558e-05
-5.278e-05
-3.69652e-05
-2.28183e-05
-3.05495e-05
-1.14783e-05
-2.70177e-05
-1.11783e-05
-1.94994e-05
-2.08448e-05
-8.19561e-06
-4.48546e-05
4.60652e-06
-5.22741e-05
1.47105e-05
-3.82557e-05
-1.79399e-05
2.44351e-05
2.20758e-05
-7.63592e-06
1.80404e-05
3.99151e-05
-7.50256e-06
5.85302e-05
-4.32955e-05
6.12487e-05
-7.98147e-05
5.21196e-05
-9.38022e-05
3.24061e-05
-5.56293e-05
5.81983e-06
-3.99992e-05
1.11149e-06
-4.63808e-05
2.80995e-07
-8.31456e-05
-5.73836e-08
-0.000105681
4.46358e-06
-9.9013e-05
2.0807e-06
-0.000123686
-1.05715e-05
-0.000122303
-6.84175e-05
-7.80251e-05
-6.71865e-05
-5.91088e-05
-4.63151e-05
-5.33087e-05
-2.18589e-05
-4.45017e-05
-2.45658e-05
-5.80196e-05
-4.67235e-05
-8.06819e-05
-5.47947e-05
-8.6108e-05
-4.61028e-05
-9.18812e-05
-3.2355e-05
-8.2603e-06
-0.000101561
-5.46029e-05
4.58627e-05
-0.000114302
9.97108e-05
-0.000137821
8.19307e-05
-9.86607e-05
2.69614e-05
-4.75849e-05
-1.20177e-06
-2.08075e-05
-9.80829e-07
-1.64062e-05
1.57699e-07
-1.65594e-05
-1.03091e-07
-1.52283e-05
3.59906e-07
-1.02757e-05
2.94052e-07
-8.71062e-06
3.66981e-06
-3.67033e-05
2.9802e-07
-0.000102689
-8.83179e-06
-0.000146324
-5.64103e-05
-0.000155339
-9.83932e-05
-0.000101511
-7.74004e-05
-8.77396e-05
-4.80677e-05
-0.000172024
-3.6376e-05
-0.000179737
-2.84648e-05
-0.000204206
-2.11737e-05
-0.000214236
-8.65101e-06
-0.00020025
-9.07779e-06
-3.68622e-06
-0.00016742
-0.000116792
0.000161493
-0.00013009
9.75419e-05
-4.65967e-05
1.18943e-05
-1.61992e-05
1.92806e-06
-1.76143e-05
1.64116e-08
-2.22131e-05
2.0332e-07
-2.36407e-05
2.24538e-06
-2.4775e-05
2.43333e-06
-1.45033e-05
1.17689e-06
-5.31467e-06
1.59763e-06
-3.06829e-06
8.54442e-07
-2.55773e-06
1.50663e-07
-1.17661e-05
-1.606e-06
-0.000123412
-1.51048e-05
-0.000205404
-8.82352e-05
-0.000197837
-7.65419e-05
-0.000196071
-4.16473e-05
-0.000205388
-1.0605e-05
-0.000193132
-1.80321e-06
-5.13446e-05
-1.90504e-06
-2.59534e-05
-2.06368e-06
-2.59113e-05
-2.18973e-06
-8.51087e-07
-2.69684e-05
-5.77753e-05
0.000202735
-1.32129e-05
2.16667e-05
-3.0418e-06
1.78805e-06
-1.48681e-06
2.85956e-07
-1.57953e-06
4.59573e-08
-2.46922e-06
-1.72539e-08
-4.66623e-06
-9.2482e-08
-1.22474e-05
4.84977e-08
-2.03449e-05
9.13597e-07
-1.16677e-05
1.79314e-06
-1.91482e-06
9.74162e-07
-1.11052e-06
3.83146e-08
-2.85901e-06
-2.21918e-07
-2.02332e-05
-3.55631e-06
-0.000174877
-3.59786e-05
-0.000203839
-6.74025e-05
-0.000138861
-3.89101e-05
-2.61252e-05
-1.01289e-06
-2.21115e-05
4.98476e-07
-2.54938e-05
1.20278e-07
-3.67324e-05
-3.1985e-08
-2.05102e-05
-1.07944e-07
-1.96485e-06
-1.6887e-05
-1.62268e-05
0.000211548
-1.75001e-06
7.24501e-06
-3.28245e-07
3.34473e-07
-1.09226e-07
4.74583e-08
-8.27902e-08
1.00211e-08
-1.07328e-07
9.93518e-10
-2.07861e-07
-5.72053e-09
-1.34181e-06
-3.95473e-08
-3.44491e-06
-1.29015e-07
-3.88855e-06
-4.81413e-10
-1.19284e-06
3.7776e-07
-2.58212e-07
2.68689e-09
-4.83262e-07
-3.6454e-08
-3.43062e-06
-7.78185e-07
-6.64244e-05
-5.86242e-06
-9.74939e-05
-3.10798e-05
-2.41725e-05
-3.36362e-05
-1.78043e-05
-3.30231e-06
-1.82044e-05
6.78499e-07
-1.77616e-05
-5.36805e-07
-1.62495e-05
-1.07947e-06
-1.38789e-05
-4.55616e-07
-4.64494e-06
-1.49126e-05
-6.11651e-06
0.000180308
-2.99289e-07
1.39589e-06
-4.68075e-08
6.01779e-08
-1.29606e-08
9.42467e-09
-6.26912e-09
1.95022e-09
-6.44482e-09
2.92387e-10
-1.34796e-08
-1.98748e-10
-5.50448e-08
-1.41088e-09
-1.83296e-07
-6.25247e-09
-1.93852e-07
4.92672e-10
-5.45877e-08
4.79895e-09
-1.88342e-08
5.53094e-10
-6.81633e-08
-4.06541e-09
-7.42596e-07
-1.43274e-07
-5.80967e-06
-9.46578e-07
-3.61813e-05
-5.2449e-06
-3.1659e-05
-2.28269e-05
-2.33087e-05
-1.2738e-05
-1.58588e-05
-7.20442e-06
-1.15341e-05
-9.70164e-06
-1.57838e-05
-1.42174e-05
-2.26259e-05
-1.63026e-05
-2.47517e-05
-1.93161e-05
-1.08207e-06
5.66765e-05
-4.50135e-08
3.48884e-07
-8.24101e-09
1.9151e-08
-2.00906e-09
2.25286e-09
-7.5462e-10
4.24261e-10
-6.62444e-10
8.03669e-11
-1.06015e-09
1.13826e-11
-2.78725e-09
-4.71697e-11
-9.42736e-09
-2.20369e-10
-9.89489e-09
4.05339e-11
-5.66636e-09
2.45613e-10
-4.9839e-09
-3.82614e-11
-1.0003e-08
-2.28142e-11
-1.43305e-07
-1.35897e-08
-9.90511e-07
-1.1716e-07
-5.65572e-06
-6.59958e-07
-5.61455e-05
-4.167e-06
-6.19274e-05
-1.08482e-05
-5.17603e-05
-1.35149e-05
-4.22611e-05
-1.53443e-05
-3.48196e-05
-1.78022e-05
-2.48703e-05
-2.15691e-05
-1.03155e-05
-5.20488e-06
-2.83862e-07
1.01957e-07
-1.45668e-08
8.06717e-08
-1.90922e-09
5.64676e-09
-3.91974e-10
5.59372e-10
-1.21688e-10
1.00307e-10
-9.64176e-11
2.82205e-11
-1.21992e-10
1.11181e-11
-2.18934e-10
8.79752e-12
-4.97869e-10
-7.80773e-12
-5.48618e-10
7.02922e-12
-3.44528e-10
1.79797e-11
-3.82638e-10
9.73438e-13
-4.20786e-10
5.29061e-12
-1.40087e-08
-5.73003e-11
-1.30887e-07
-5.56165e-10
-7.8794e-07
-3.21847e-09
-4.93884e-06
-1.79237e-08
-2.4875e-05
-8.45972e-08
-4.13209e-05
-2.90497e-07
-4.37893e-05
-9.12904e-07
-1.98369e-05
-3.39016e-06
-1.72826e-06
-1.00999e-05
-9.79058e-06
-9.72378e-07
-6.60839e-08
1.66405e-07
-4.60624e-09
2.14538e-08
-4.63708e-10
1.7074e-09
-8.2201e-11
1.54363e-10
-2.54977e-11
2.88851e-11
-1.82296e-11
1.05205e-11
-2.02679e-11
5.77706e-12
-2.90576e-11
7.13996e-12
-4.5647e-11
1.55328e-12
-3.74297e-11
-3.22982e-12
-1.84118e-11
-7.96423e-13
-1.74302e-11
5.21002e-13
-1.20698e-11
3.07274e-13
-7.75411e-11
1.23542e-13
-6.22589e-10
-2.74257e-11
-3.51179e-09
-3.71453e-10
-1.85537e-08
-2.97433e-09
-8.29184e-08
-2.07746e-08
-2.59062e-07
-1.16218e-07
-6.57612e-07
-5.17539e-07
-1.88561e-06
-2.14728e-06
-1.39279e-06
-7.57552e-06
-9.60531e-06
-7.9177e-07
-1.57223e-08
1.86773e-07
-1.29368e-09
6.97112e-09
-1.18931e-10
6.73945e-10
-1.90906e-11
5.18713e-11
-7.63734e-12
8.68806e-12
-5.63104e-12
2.24006e-12
-5.27456e-12
1.83941e-12
-5.05683e-12
1.1587e-12
-6.05248e-12
7.76464e-13
-3.84858e-12
-1.05847e-13
-1.2694e-12
-3.62085e-13
-7.67523e-13
2.95742e-13
-6.4431e-13
1.7625e-13
-1.86896e-12
6.03357e-13
-3.84374e-11
1.73195e-12
-4.11539e-10
-6.51815e-11
-2.74207e-09
-1.1545e-09
-1.14458e-08
-1.52907e-08
-3.16041e-08
-1.13397e-07
-1.39278e-07
-4.92472e-07
-7.75513e-07
-9.09083e-07
-1.48902e-06
-3.63613e-06
-3.25121e-06
-2.0119e-06
-4.11427e-09
1.92367e-07
-3.52711e-10
3.17017e-09
-3.80523e-11
3.51968e-10
-9.43786e-12
2.2011e-11
-1.07377e-11
8.42184e-12
-5.11822e-12
1.1442e-11
-7.1315e-12
7.70965e-13
-3.48858e-12
-4.16707e-12
-2.23434e-12
-1.34886e-12
-2.86711e-12
-4.50598e-15
-4.50242e-13
2.611e-13
-1.17466e-13
9.58578e-14
-6.15861e-14
9.20658e-14
4.08112e-13
9.67587e-14
1.1748e-12
3.23486e-13
-8.78015e-11
3.80096e-12
-1.24393e-09
-2.90944e-10
-5.58219e-09
-1.51453e-08
-3.21465e-07
-4.43299e-07
-1.53321e-06
-4.11986e-06
-1.71123e-06
-4.69294e-06
-4.01431e-07
-1.34177e-06
-1.75475e-07
-2.06977e-07
7.0321e-08
1.41087e-07
-1.10263e-10
7.35969e-08
-1.1624e-11
2.62637e-10
-8.77498e-12
2.61727e-11
-2.00033e-11
1.77557e-11
-6.88899e-11
6.96788e-11
-2.39783e-10
1.08269e-10
-3.98443e-11
-1.99364e-10
-2.4886e-12
-3.91075e-11
-7.13399e-13
-2.03148e-12
-4.17588e-13
-7.88427e-14
-4.44094e-14
5.88522e-14
-5.39616e-15
4.51412e-14
2.25245e-14
6.03537e-14
1.32024e-13
6.30725e-14
3.37091e-12
1.9716e-13
-2.41472e-10
-1.75588e-13
-1.1097e-08
-5.13928e-09
-1.48611e-06
-3.39846e-07
-2.02749e-06
-4.41657e-06
-1.23586e-06
-5.26849e-06
-3.05478e-07
-3.76671e-06
-4.7801e-07
-2.53219e-09
5.61603e-08
7.19168e-08
2.11516e-08
2.05645e-07
-1.11691e-11
2.33419e-08
-2.12166e-10
2.366e-10
-1.01607e-09
8.43119e-10
-1.48206e-08
9.60126e-09
-4.09482e-09
-6.07731e-10
-5.65472e-10
-3.39327e-09
-3.04304e-11
-5.35549e-10
-7.44347e-13
-2.72994e-11
-1.46188e-13
-5.09251e-13
-2.45008e-14
-2.54075e-14
1.45686e-14
1.42234e-14
3.36031e-14
3.29125e-14
4.38832e-14
4.56399e-14
1.12687e-13
7.77847e-14
8.48294e-13
4.51329e-14
-4.95184e-09
-1.40527e-10
-5.19278e-07
-4.33901e-08
-2.10652e-06
-3.26489e-06
-2.23638e-06
-4.92256e-06
-1.30723e-06
-4.47977e-06
-1.9442e-06
-1.42449e-08
4.48621e-08
1.87037e-08
8.15367e-08
2.20757e-07
2.96121e-08
2.10959e-07
1.84031e-09
2.83455e-08
4.28459e-10
2.12187e-09
-4.57415e-09
6.47205e-08
-1.34724e-08
1.44626e-08
-5.42171e-09
-3.05385e-08
-2.42056e-10
-5.58978e-09
-3.20206e-12
-1.62795e-10
-1.24632e-14
-2.97713e-12
2.02155e-14
-5.41432e-14
3.66835e-14
-2.55122e-16
4.29589e-14
2.22183e-14
4.83542e-14
3.5791e-14
7.33176e-14
4.92905e-14
1.02081e-13
4.4106e-14
-1.65997e-10
2.66379e-11
-3.48587e-08
-8.49904e-09
-1.82288e-06
-8.62032e-07
-2.13977e-06
-4.38959e-06
-2.2081e-06
-4.18457e-06
-2.77622e-06
-1.48054e-09
1.25613e-08
3.13333e-09
1.36131e-07
1.41167e-07
1.05392e-07
2.74423e-07
5.34644e-08
2.4711e-07
3.29249e-08
8.17793e-08
8.25954e-08
1.44856e-07
6.50114e-08
4.24458e-08
2.67971e-08
-2.75546e-08
-1.49143e-09
-1.77293e-08
-6.249e-11
-1.61787e-09
-1.24466e-12
-6.51906e-11
3.36865e-14
-1.33259e-12
4.32071e-14
5.967e-15
5.51283e-14
2.32794e-14
5.21598e-14
3.57946e-14
5.11652e-14
4.7719e-14
4.76259e-14
5.45581e-14
2.59448e-11
8.34964e-13
-8.13893e-09
-3.23146e-10
-8.54451e-07
-6.93252e-08
-1.89035e-06
-2.97671e-06
-1.93376e-06
-3.84e-06
-9.90122e-09
-1.09177e-06
3.17199e-09
-8.36474e-13
9.08055e-08
4.75384e-08
1.73769e-07
2.14281e-07
1.75344e-07
2.6956e-07
1.77221e-07
2.31344e-07
1.66464e-07
1.66012e-07
1.34809e-07
8.03299e-08
1.05834e-07
8.6627e-09
7.65411e-10
-1.0333e-08
2.73076e-11
-1.18653e-09
2.16296e-12
-6.32929e-11
2.68663e-13
-8.76742e-13
8.7499e-14
1.36001e-13
7.44219e-14
4.37414e-14
6.08793e-14
4.49389e-14
6.82821e-14
7.24631e-14
7.99858e-14
8.05995e-14
8.87097e-13
3.46999e-14
-3.56196e-10
3.44386e-11
-4.35725e-08
-2.6156e-08
-1.34465e-06
-1.43059e-06
-1.55801e-08
-3.6501e-06
-1.08716e-09
-1.85293e-08
2.9736e-11
-8.28869e-12
3.39281e-08
5.12871e-09
1.43315e-07
1.25565e-07
1.85376e-07
2.41553e-07
1.9806e-07
2.31657e-07
1.91136e-07
1.80803e-07
1.66645e-07
1.07682e-07
8.40416e-08
2.86367e-08
1.7898e-09
3.71329e-10
1.39849e-10
-1.42157e-10
9.83518e-12
4.06625e-12
7.04525e-13
3.11982e-12
1.18598e-13
4.05005e-13
1.07495e-13
8.13191e-14
7.34614e-14
6.11196e-14
8.23665e-14
9.45318e-14
7.55159e-14
1.02458e-13
7.14467e-14
1.69224e-14
7.71686e-11
1.03056e-10
-4.4932e-08
-8.65945e-09
-6.3268e-07
-6.88607e-07
-8.76447e-09
-1.10272e-06
-8.17585e-09
-2.08795e-09
-8.94118e-12
-3.78345e-12
4.88106e-09
2.5643e-10
6.14514e-08
3.79734e-08
1.29292e-07
1.86828e-07
1.58934e-07
2.08528e-07
1.65005e-07
1.77603e-07
1.56884e-07
1.21101e-07
2.06034e-08
1.43756e-08
7.43236e-10
1.13368e-09
6.53126e-11
1.38498e-10
4.02505e-12
1.98602e-11
1.32615e-13
2.81062e-12
1.84649e-14
3.68338e-13
1.62822e-13
1.02229e-13
8.36292e-14
7.55999e-14
8.72094e-14
1.00537e-13
1.00291e-13
1.04024e-13
9.34311e-14
1.18978e-14
3.48853e-10
3.17851e-10
-6.97201e-08
1.01422e-09
-2.88203e-07
-3.78875e-07
-1.39416e-07
-6.47265e-07
-1.32947e-09
-1.11977e-09
-1.32856e-11
8.60353e-13
1.51737e-10
8.99411e-11
1.53478e-08
2.40448e-10
6.03129e-08
7.36213e-08
1.01374e-07
1.69567e-07
1.23208e-07
1.60719e-07
4.19862e-08
3.74258e-08
2.259e-10
1.44178e-10
6.05518e-11
2.86009e-10
5.50921e-12
4.63094e-11
4.13995e-14
7.31636e-12
-1.18696e-14
1.03281e-12
4.39553e-14
2.01256e-13
1.54879e-13
1.18945e-13
8.97588e-14
8.66715e-14
7.61162e-14
7.54482e-14
7.25786e-14
7.59705e-14
6.28508e-14
9.22125e-15
2.95503e-10
4.53201e-11
-7.96517e-09
2.49121e-09
-1.67025e-07
-1.73028e-07
-2.47556e-08
-3.82674e-07
-2.52546e-08
-8.31148e-10
-3.49502e-12
1.16427e-12
7.3247e-11
3.32072e-11
-2.31576e-10
6.59753e-11
1.22874e-08
1.27965e-09
3.41401e-08
1.88809e-08
2.36581e-08
9.2631e-09
1.21273e-09
-1.25045e-09
4.95144e-11
-1.35571e-11
4.72374e-12
3.88238e-11
-1.56542e-13
9.39041e-12
6.07677e-14
1.68347e-12
4.6689e-14
3.08287e-13
1.18156e-13
1.11055e-13
1.33907e-13
1.24855e-13
7.55999e-14
9.49571e-14
4.41482e-14
4.85795e-14
3.58799e-14
3.23592e-14
3.60159e-14
5.22076e-15
4.04557e-11
4.8849e-12
5.06108e-10
2.11023e-09
-2.88856e-07
5.88544e-10
-6.65711e-08
-1.86756e-07
-1.39808e-07
-7.83191e-10
3.87732e-13
2.43415e-13
3.52725e-11
4.29721e-12
-1.60425e-10
3.89681e-12
1.35425e-10
2.18153e-10
2.61204e-09
1.12159e-09
2.76395e-09
4.423e-10
4.61075e-10
-8.86272e-11
4.6333e-11
-7.64099e-12
2.75212e-12
3.95612e-12
7.64709e-14
1.44123e-12
9.96386e-14
3.28874e-13
8.47914e-14
6.24177e-14
1.26391e-13
7.47352e-14
1.24436e-13
9.6376e-14
7.29444e-14
8.18705e-14
2.49772e-14
3.68438e-14
1.49031e-14
1.25374e-14
1.45911e-14
2.55463e-15
4.45328e-12
4.42358e-13
1.88396e-09
2.30443e-10
-2.35656e-08
1.91595e-08
-1.76293e-07
-9.56355e-08
-1.69846e-07
-1.30232e-09
1.48729e-13
4.10646e-14
3.62743e-12
3.16115e-13
-1.62012e-11
1.00378e-12
2.75141e-11
4.0053e-11
4.23592e-10
1.47391e-10
3.45251e-10
6.09408e-11
7.47448e-11
-5.97928e-12
1.09028e-11
-1.46137e-12
1.13615e-12
2.45009e-13
1.33939e-13
2.02935e-13
1.96559e-14
5.9282e-14
4.64278e-14
2.22497e-14
7.43493e-14
3.67894e-14
7.89537e-14
4.92512e-14
5.59934e-14
4.58467e-14
1.82024e-14
2.52451e-14
6.54658e-15
7.51227e-15
5.34344e-15
1.47022e-15
4.18995e-13
2.61052e-14
2.15173e-10
1.57522e-11
1.83284e-08
1.03513e-09
-9.92017e-09
3.87642e-08
-1.98889e-08
-1.60455e-08
7.50497e-15
1.29242e-14
1.7473e-13
3.66504e-14
-9.0006e-13
5.41575e-13
1.32417e-11
6.04541e-12
5.81538e-11
1.82371e-11
4.43581e-11
7.55354e-12
1.12616e-11
-4.74725e-13
1.96821e-12
-1.55957e-13
2.84166e-13
4.04905e-14
4.50458e-14
3.09134e-14
1.92133e-14
1.69884e-14
1.77264e-14
7.3631e-15
2.67911e-14
1.04784e-14
3.35204e-14
1.67029e-14
2.97621e-14
1.68919e-14
1.29567e-14
1.21493e-14
3.30458e-15
4.95739e-15
1.57108e-15
1.02734e-15
2.53379e-14
2.22997e-15
1.431e-11
1.49083e-12
9.60278e-10
8.81993e-11
4.99219e-08
1.06502e-09
1.78462e-09
1.06581e-07
-2.25131e-17
3.27079e-15
5.85505e-16
2.65045e-14
1.92379e-13
1.09907e-13
2.76525e-12
8.24611e-13
7.90974e-12
2.10401e-12
5.7114e-12
9.12386e-13
1.54143e-12
4.42448e-15
3.12426e-13
1.61565e-14
5.28143e-14
1.19196e-14
1.51597e-14
1.49016e-14
4.92119e-15
4.25443e-15
3.77392e-15
1.37363e-15
6.87684e-15
2.0465e-15
1.02815e-14
3.92075e-15
1.047e-14
4.33305e-15
6.61763e-15
3.80988e-15
2.23968e-15
2.23816e-15
8.09771e-16
6.95571e-16
2.71882e-15
1.84068e-16
1.41782e-12
7.55213e-14
8.60615e-11
3.38944e-12
1.11525e-09
4.27251e-11
3.19866e-11
2.91984e-09
3.89411e-17
6.50052e-16
3.06298e-15
1.19181e-14
4.47974e-14
1.87462e-14
3.95654e-13
1.10489e-13
9.44922e-13
2.33103e-13
6.58304e-13
1.22223e-13
1.97986e-13
2.6267e-14
4.33635e-14
8.06516e-15
1.21437e-14
1.0806e-14
3.48885e-15
3.56264e-15
8.24654e-16
6.60347e-16
6.55246e-16
2.22522e-16
1.3168e-15
3.37573e-16
2.42055e-15
7.06705e-16
2.59754e-15
8.67369e-16
2.165e-15
8.15068e-16
1.11212e-15
6.02898e-16
4.17677e-16
3.02271e-16
4.26123e-16
4.59704e-17
7.05585e-14
3.39601e-15
3.31874e-12
1.352e-13
4.50513e-11
1.6621e-12
3.3905e-13
7.85139e-11
1.06136e-17
1.17642e-16
7.60237e-16
2.5412e-15
5.96259e-15
5.78041e-15
4.41682e-14
1.25211e-14
1.00036e-13
3.2624e-14
7.50733e-14
1.79083e-14
2.2959e-14
1.0643e-14
7.22558e-15
6.40535e-15
2.29959e-15
2.33155e-15
4.54118e-16
4.62454e-16
1.23603e-16
8.87763e-17
1.04262e-16
3.50385e-17
2.19106e-16
5.31291e-17
4.53136e-16
1.12696e-16
5.1061e-16
1.44162e-16
4.86653e-16
1.35507e-16
3.26978e-16
1.06645e-16
1.51014e-16
7.29283e-17
6.68627e-17
2.50775e-17
3.41676e-15
2.37578e-17
1.35385e-13
2.79269e-15
1.82407e-12
2.5718e-14
-1.01143e-14
2.21307e-12
2.22161e-18
1.91902e-17
1.62268e-16
3.64667e-16
8.7115e-16
1.1359e-15
5.14744e-15
3.33939e-15
1.07176e-14
5.8405e-15
8.20342e-15
5.05886e-15
3.40465e-15
2.95726e-15
1.09206e-15
1.15661e-15
2.57613e-16
2.58576e-16
5.57204e-17
5.37e-17
1.79033e-17
1.14414e-17
1.59794e-17
5.40082e-18
3.43501e-17
8.19116e-18
7.32848e-17
1.67605e-17
8.45693e-17
2.11022e-17
8.39732e-17
1.93257e-17
6.20735e-17
1.46532e-17
3.84177e-17
9.82542e-18
1.79215e-17
5.40832e-18
3.60497e-17
1.19107e-18
2.75792e-15
6.58179e-17
2.94594e-14
3.2333e-16
-1.24999e-16
1.99585e-14
3.96373e-19
2.87879e-18
2.64857e-17
5.06605e-17
1.27872e-16
1.35544e-16
6.74132e-16
5.51416e-16
1.24576e-15
9.84844e-16
1.04851e-15
8.36378e-16
4.14533e-16
3.84372e-16
1.15682e-16
1.12252e-16
2.81812e-17
2.72896e-17
6.52442e-18
5.91611e-18
2.50259e-18
1.39816e-18
2.35943e-18
7.94748e-19
5.10754e-18
1.19887e-18
1.06465e-17
2.32595e-18
1.22757e-17
2.78937e-18
1.20977e-17
2.47105e-18
8.90853e-18
1.77501e-18
5.56764e-18
1.00515e-18
2.89494e-18
5.49251e-19
1.9985e-18
1.9384e-19
6.82044e-17
1.19574e-18
4.32846e-16
6.45706e-18
1.17094e-18
2.48489e-16
6.21028e-20
4.02567e-19
3.78975e-18
6.84855e-18
1.55837e-17
1.53846e-17
7.75032e-17
5.43357e-17
1.38346e-16
1.05833e-16
1.1046e-16
8.14197e-17
4.12113e-17
3.59219e-17
1.17348e-17
1.10726e-17
2.91489e-18
2.75113e-18
7.1985e-19
6.11486e-19
3.33152e-19
1.62091e-19
3.29085e-19
1.08943e-19
7.08885e-19
1.62929e-19
1.40248e-18
2.98407e-19
1.58974e-18
3.35104e-19
1.51893e-18
2.86395e-19
1.08216e-18
1.96371e-19
6.02909e-19
9.6374e-20
3.13244e-19
4.27832e-20
1.62129e-19
1.31538e-20
1.47403e-18
9.84316e-21
8.67001e-18
6.32449e-20
1.10693e-19
5.63825e-17
8.74788e-21
5.28137e-20
4.93428e-19
8.74122e-19
1.72878e-18
1.70196e-18
7.76096e-18
5.2781e-18
1.33461e-17
9.62895e-18
1.04433e-17
7.44009e-18
3.92199e-18
3.36567e-18
1.12312e-18
1.04723e-18
2.82551e-19
2.61483e-19
7.50819e-20
5.95705e-20
4.1757e-20
1.79597e-20
4.26678e-20
1.38474e-20
9.1123e-20
2.05515e-20
1.67728e-19
3.5388e-20
1.85318e-19
3.68283e-20
1.69426e-19
3.02833e-20
1.15747e-19
1.97134e-20
5.70057e-20
8.92561e-21
2.55211e-20
3.20981e-21
1.23873e-20
8.43644e-22
2.40891e-20
2.02287e-22
9.81271e-20
1.78261e-22
-5.95792e-22
5.4873e-18
1.12926e-21
6.53777e-21
5.90617e-20
1.04921e-19
1.79283e-19
1.7991e-19
7.30955e-19
5.05109e-19
1.21252e-18
8.73857e-19
9.3617e-19
6.70584e-19
3.52239e-19
3.02417e-19
1.0106e-19
9.39889e-20
2.57368e-20
2.34983e-20
7.45096e-21
5.51444e-21
4.90784e-21
1.91583e-21
5.18745e-21
1.65614e-21
1.08462e-20
2.42907e-21
1.8244e-20
3.89957e-21
1.96281e-20
3.74827e-21
1.69958e-20
2.95153e-21
1.09354e-20
1.79203e-21
4.87962e-21
7.57636e-22
1.80621e-21
2.30891e-22
5.98183e-22
5.17672e-23
3.97367e-22
8.52805e-24
7.09001e-22
2.48109e-24
-4.23636e-22
4.21293e-19
1.35573e-22
7.67892e-22
6.55027e-21
1.19224e-20
1.74487e-20
1.81022e-20
6.53852e-20
4.64469e-20
1.05003e-19
7.65359e-20
7.96046e-20
5.79997e-20
2.98832e-20
2.59472e-20
8.57001e-21
8.02792e-21
2.21239e-21
2.00591e-21
7.09191e-22
4.89239e-22
5.32038e-22
1.98559e-22
6.03095e-22
1.88076e-22
1.20233e-21
2.72034e-22
1.81102e-21
4.00325e-22
1.91297e-21
3.59101e-22
1.54464e-21
2.66446e-22
9.11495e-22
1.47155e-22
3.69622e-22
5.63053e-23
1.15425e-22
1.4806e-23
2.84052e-23
2.83492e-24
1.42156e-23
3.6394e-25
1.64893e-23
9.10834e-25
-3.5701e-23
3.43528e-20
1.52991e-23
8.58651e-23
6.77716e-22
1.29018e-21
1.59896e-21
1.74088e-21
5.56416e-21
4.10191e-21
8.6766e-21
6.45256e-21
6.4343e-21
4.81941e-21
2.40164e-21
2.13296e-21
6.86776e-22
6.55038e-22
1.80385e-22
1.63425e-22
6.53032e-23
4.20032e-23
5.52951e-23
2.01213e-23
6.53177e-23
2.0426e-23
1.24727e-22
2.90929e-23
1.68949e-22
3.82444e-23
1.70915e-22
3.24775e-23
1.25443e-22
2.16891e-23
6.56299e-23
1.02682e-23
2.31588e-23
3.23593e-24
5.91152e-24
6.82325e-25
1.30941e-24
9.97767e-26
8.47233e-25
3.53263e-26
1.28613e-23
4.43922e-25
-2.23872e-24
1.64623e-21
1.63167e-24
9.11446e-24
6.57514e-23
1.33588e-22
1.38376e-22
1.60719e-22
4.51606e-22
3.49247e-22
6.85411e-22
5.25398e-22
4.95478e-22
3.86026e-22
1.83282e-22
1.68566e-22
5.21502e-23
5.12469e-23
1.40358e-23
1.2773e-23
5.85647e-24
3.52821e-24
5.51865e-24
1.99994e-24
6.68431e-24
2.13491e-24
1.21184e-23
2.97595e-24
1.50264e-23
3.34938e-24
1.36054e-23
2.57196e-24
8.46505e-24
1.33548e-24
3.43812e-24
4.68519e-25
8.83658e-25
1.05487e-25
1.66327e-25
3.74418e-25
6.97067e-26
5.36192e-26
1.15816e-25
2.5888e-26
2.12777e-24
2.87395e-26
-1.01049e-25
7.2081e-23
1.63676e-25
8.96985e-25
6.00166e-24
1.32843e-23
1.1324e-23
1.42969e-23
3.50352e-23
2.87665e-23
5.18485e-23
4.14499e-23
3.64111e-23
2.98993e-23
1.33076e-23
1.285e-23
3.76215e-24
3.85852e-24
1.04988e-24
9.63297e-25
5.14899e-25
2.93433e-25
5.08797e-25
1.95766e-25
6.6735e-25
2.14817e-25
1.06908e-24
2.76788e-25
1.18552e-24
2.36292e-25
8.19643e-25
1.3421e-25
3.01896e-25
5.67186e-26
8.89908e-26
2.67905e-25
8.89342e-26
6.57008e-26
-4.49162e-26
-2.64021e-26
-7.16446e-26
-3.14038e-26
-1.58945e-26
-4.57795e-27
9.84307e-26
6.18373e-27
-3.07411e-27
2.47521e-24
1.48516e-26