/*--------------------------------*- C++ -*----------------------------------*\
| =========                 |                                                 |
| \\      /  F ield         | OpenFOAM: The Open Source CFD Toolbox           |
|  \\    /   O peration     | Version:  2206                                  |
|   \\  /    A nd           | Website:  www.openfoam.com                      |
|    \\/     M anipulation  |                                                 |
\*---------------------------------------------------------------------------*/
FoamFile
{
    version     2.0;
    format      ascii;
    arch        "LSB;label=32;scalar=64";
    class       volScalarField;
    location    "0.9";
    object      alpha.water;
}
// * * * * * * * * * * * * * * * * * * * * * * * * * * * * * * * * * * * * * //

dimensions      [0 0 0 0 0 0 0];

internalField   nonuniform List<scalar> 
2268
(
0.999999
1
1
1
1
1
1
1
1
1
1
0.999999
0.998609
0.983287
0.969627
0.987435
0.992262
0.989727
0.983392
0.981587
0.993088
0.999542
0.999812
1
1
1
1
1
1
1
1
1
1
0.999999
0.999983
0.981698
0.948386
0.948342
0.949113
0.962467
0.962324
0.963075
0.970342
0.983272
0.999992
0.999816
1
1
1
1
1
1
1
1
1
1
1
0.999997
0.99668
0.964213
0.948412
0.948381
0.95502
0.982453
0.995852
1
1
1
0.99983
1
1
1
1
1
1
1
1
1
1
1
1
0.999939
0.997544
0.990731
0.992081
1
1
1
1
1
1
0.99989
1
1
1
1
1
1
1
1
1
1
1
1
1
1
1
1
1
1
1
1
1
0.999999
0.999991
1
1
1
1
1
1
1
1
1
1
1
1
1
1
1
1
1
1
1
1
1
0.999994
0.999994
1
1
1
1
0.999948
0.99985
0.999936
1
1
1
1
1
1
1
1
1
1
1
1
0.999999
0.999999
0.999996
0.999981
1
1
1
1
0.999891
0.999437
0.999595
1
1
1
1
1
1
0.999997
0.999988
0.999992
0.999997
0.999998
0.999996
0.999989
0.999987
0.999719
0.999974
0.57292
0.57606
0.603984
0.603964
0.559791
0.476563
0.476369
0.476454
0.575295
0.891905
0.891905
0.891906
0.891899
0.891889
0.796564
0.635037
0.785484
0.795267
0.797263
0.577524
0.580128
0.603827
0.534826
0.430655
0.476094
0.522645
0.4764
0.478704
0.786434
0.891905
0.891899
0.891889
0.815448
0.356185
0.298506
0.613488
0.783582
0.79945
0.581418
0.581418
0.540919
0.433034
0.427203
0.527017
0.767806
0.693112
0.482096
0.494642
0.78301
0.891605
0.750724
0.376439
0.27853
0.277799
0.279165
0.622923
0.800427
0.581418
0.581418
0.581307
0.580822
0.420629
0.463995
0.777879
0.853718
0.65146
0.509758
0.75248
0.703731
0.336615
0.27853
0.277741
0.277808
0.277771
0.75661
0.811422
0.581418
0.581407
0.580793
0.503806
0.211897
0.265292
0.598398
0.866924
0.874631
0.791729
0.874449
0.808547
0.330041
0.277741
0.277741
0.277741
0.457768
0.816554
0.814616
0.581407
0.581285
0.577352
0.0834115
0.0237651
0.036731
0.400942
0.874631
0.875854
0.875428
0.875759
0.875534
0.743816
0.277932
0.277741
0.296425
0.819009
0.820898
0.815862
0.581285
0.580113
0.318459
0.0235578
0.0236305
0.0237651
0.403043
0.875837
0.875434
0.87573
0.875582
0.875759
0.875534
0.515385
0.480605
0.802577
0.828632
0.825908
0.764829
0.580113
0.42203
0.0862986
0.0235579
0.0233986
0.0274616
0.326283
0.563981
0.677217
0.745599
0.833937
0.87558
0.875652
0.850879
0.839822
0.836458
0.834089
0.714933
0.764894
1
1
1
1
0.999995
0.999985
0.999999
1
1
1
1
1
0.99999
0.997701
0.986821
0.994155
0.997412
0.999858
0.999883
0.991118
0.988763
0.996284
0.999867
1
1
1
1
1
1
0.999999
0.995949
0.959017
0.936505
0.937247
0.944782
0.886751
0.790494
0.738894
0.661298
0.668602
0.743435
0.792135
0.864819
0.972243
0.99599
0.999965
0.986002
0.999652
1
0.983905
0.97658
0.930295
0.603625
0.288152
0.252248
0.375343
0.463411
0.416901
0.381207
0.651354
0.673283
0.423952
0.423952
0.423952
0.511515
0.927185
0.995727
0.998728
0.999916
0.988218
0.99968
0.999905
0.714525
0.290889
0.128922
0.0709124
0.0632071
0.0564779
0.0349655
0.0158612
0.0676655
0.40703
0.627383
0.750156
0.636365
0.441948
0.743397
0.945071
0.946659
0.929271
0.837389
0.733608
0.987933
0.872436
0.306906
0.0591103
0.0325004
0.071542
0.0831684
0.0831684
0.0707239
0.0165678
0.0107875
0.00362841
0.0104511
0.193184
0.789385
0.844522
0.844752
0.843628
0.827512
0.368941
0.0733829
0.0668537
0.079433
0.876539
0.208353
0.00369009
0.000792247
0.000394655
0.00375163
0.0205121
0.0435645
0.0710448
0.048503
0.011544
0.00122373
0.00259087
0.0139007
0.376417
0.844522
0.773464
0.209988
0.0702752
0.0713682
0.0874805
0.0535353
0.0487171
0.74892
0.00369449
0.00068968
0.000122154
5.0317e-05
3.28506e-05
4.09373e-05
0.00205205
0.0107307
0.0167764
0.00894076
0.000296483
0.000432873
0.00215151
0.0852467
0.35558
0.374147
0.0702674
0.0702752
0.0702645
0.069618
0.0684195
0.0742677
0.668327
0.000690118
0.000121803
2.04234e-05
6.80201e-06
3.79362e-06
4.0587e-06
9.04114e-06
1.93045e-05
3.5715e-05
0.000259307
8.59385e-05
8.80525e-05
0.000392044
0.00195615
0.0666123
0.222132
0.274484
0.071233
0.0787584
0.127704
0.18347
0.212328
0.458969
0.000135516
2.03925e-05
3.30719e-06
1.01676e-06
4.66133e-07
4.73836e-07
8.80921e-07
1.60923e-06
2.82995e-06
2.93895e-06
1.78725e-06
7.28831e-06
3.01314e-05
0.000167274
0.00086437
0.10998
0.342451
0.344019
0.344019
0.344019
0.341645
0.233444
0.0763981
2.71036e-05
3.16033e-06
6.84896e-07
1.37534e-07
7.06355e-08
6.2636e-08
9.40468e-08
1.5114e-07
2.37909e-07
2.30885e-07
1.23124e-07
2.21984e-07
9.79114e-08
2.07942e-07
-1.44453e-07
1.20354e-05
0.023505
0.228321
0.306367
0.236849
0.108671
0.0313742
3.45953e-06
3.89627e-06
3.24877e-07
9.95255e-08
3.91182e-08
2.35459e-08
2.01947e-08
2.43496e-08
2.53921e-08
3.33335e-08
3.35957e-08
1.09115e-08
1.32685e-08
3.16628e-08
9.52803e-08
5.1057e-07
2.51241e-06
1.19147e-05
4.80338e-05
0.000176045
0.000605904
0.0110159
0.0313615
-2.76403e-06
1.55146e-06
-5.50426e-08
2.88848e-08
2.34237e-08
2.02258e-08
1.77345e-08
1.99256e-08
1.70112e-08
1.75642e-08
2.02315e-08
3.13122e-09
2.218e-09
4.9432e-09
3.10041e-08
2.89085e-07
2.26963e-06
1.43141e-05
7.91947e-05
0.000390851
0.00449073
0.0224218
0.0243384
1.68491e-06
4.38114e-07
4.8613e-08
2.83115e-08
2.38337e-08
1.98248e-08
1.74343e-08
1.70113e-08
1.49415e-08
1.56014e-08
2.51592e-08
2.52954e-09
1.72904e-09
1.57096e-09
3.6589e-09
6.80681e-08
1.08539e-06
1.36598e-05
0.00118052
0.0116824
0.0181011
0.00298202
0.00109584
2.87321e-05
1.50534e-07
4.06533e-08
3.20913e-08
2.91413e-08
2.38169e-08
7.71714e-08
1.8254e-08
6.26888e-09
4.6094e-09
4.46711e-09
7.3212e-09
1.70994e-09
1.43014e-09
1.5205e-09
3.23774e-09
1.16713e-09
4.24056e-06
0.00254874
0.021576
0.0220111
0.008714
1.4651e-05
0.000248614
0.000223574
1.20239e-07
4.06511e-08
3.20831e-08
9.11483e-06
7.10343e-05
5.75551e-07
4.06411e-08
3.48404e-09
2.94186e-09
3.05895e-09
1.89902e-09
1.42375e-09
1.29002e-09
1.34375e-09
1.33672e-09
1.48619e-09
0.00106828
0.0194936
0.0220111
0.0220111
0.00407443
5.70291e-05
0.000333438
0.000138725
1.20239e-07
9.5876e-07
8.74856e-05
0.000470269
0.000190004
7.29397e-06
1.53929e-08
2.65258e-09
1.74703e-09
1.74234e-09
1.44802e-09
1.28729e-09
1.28527e-09
1.28537e-09
1.0559e-09
1.41805e-06
0.00482583
0.0220111
0.0218722
0.0186628
8.52929e-06
0.000351525
0.000389218
8.47856e-05
2.27569e-06
0.000303759
0.000486262
0.000490476
8.83385e-05
2.36732e-07
1.32603e-08
1.87272e-09
1.39336e-09
1.35128e-09
1.28581e-09
1.28542e-09
1.27624e-09
7.20111e-10
1.57174e-08
0.00148868
0.0213835
0.0215596
0.0116948
1.89793e-07
0.000260756
0.000416899
0.00044047
0.000313905
0.000486262
0.000493826
0.000489295
0.000170663
1.13537e-06
9.06582e-08
7.11993e-09
1.61133e-09
1.30017e-09
1.28732e-09
1.70305e-09
1.46906e-09
2.04186e-10
7.01184e-10
4.0943e-06
0.0057558
0.0193769
1.14361e-05
1.66832e-07
1.55316e-05
0.00044047
0.000463992
0.000481793
0.000492155
0.000495025
0.000493826
0.000109999
1.58041e-06
1.59979e-07
1.4318e-08
2.19902e-09
1.34756e-09
1.30017e-09
1.82016e-09
1.74311e-09
1.74796e-10
8.95137e-08
2.86056e-05
0.00486639
0.00715422
7.50414e-06
1.34806e-07
1.89438e-07
0.000302217
0.00048094
0.000491302
0.000495025
0.00049361
0.000348895
2.18558e-05
8.48085e-07
9.62307e-08
1.04261e-08
2.17415e-09
1.42514e-09
1.31426e-09
1.73444e-09
1.60813e-09
1.03822e-10
3.33419e-06
0.000120833
0.00289742
0.00320177
5.6906e-06
5.17811e-08
1.04445e-07
4.99232e-05
0.000450932
0.000491443
0.000492418
0.000420773
6.85019e-05
2.06304e-06
2.92721e-07
3.65022e-08
5.34566e-09
2.09069e-09
1.67756e-09
1.29309e-09
1.31507e-09
1.23485e-09
1.03245e-10
1.61856e-07
9.63512e-06
0.00230275
0.00417314
5.63784e-06
1.17224e-08
4.04826e-08
1.44753e-06
0.000108457
0.000340315
0.000293585
7.65902e-05
3.1733e-06
5.826e-07
8.00251e-08
1.11423e-08
2.43923e-09
1.62805e-09
1.76639e-09
1.29721e-09
7.81378e-10
6.16935e-10
2.60559e-11
4.03108e-11
8.30111e-07
0.00186403
0.00424246
0.000688921
1.96807e-09
1.37351e-08
5.40206e-07
2.43519e-06
1.91426e-05
1.13732e-05
2.21224e-06
7.57327e-07
1.45428e-07
1.98922e-08
2.91236e-09
8.47311e-10
1.18932e-09
1.47747e-09
1.15049e-09
5.32499e-10
2.18475e-10
1.75863e-11
2.63495e-11
2.01024e-09
0.000323608
0.00310402
0.00385355
4.01655e-10
2.52298e-09
5.66182e-08
4.03766e-07
1.25828e-06
9.18746e-07
3.56152e-07
1.05422e-07
2.4454e-08
4.20654e-09
7.81497e-10
2.83455e-10
6.55965e-10
8.9229e-10
7.64045e-10
3.76443e-10
1.03177e-10
1.30044e-11
1.19737e-11
-1.01776e-10
1.0607e-07
0.00242902
0.00388452
1.60008e-10
3.8732e-10
5.78241e-09
5.8672e-08
1.78994e-07
1.31563e-07
5.15741e-08
1.47186e-08
3.54743e-09
7.97724e-10
1.70656e-10
1.14697e-10
2.40837e-10
3.70694e-10
3.5152e-10
2.15551e-10
7.17866e-11
1.10937e-11
2.31131e-12
-1.36549e-10
1.14922e-08
1.43537e-05
0.00162023
5.27188e-11
1.41825e-10
9.59859e-10
8.06205e-09
2.30437e-08
1.71368e-08
6.86478e-09
2.06146e-09
5.72058e-10
1.51587e-10
5.28705e-11
2.99967e-11
5.75551e-11
1.06861e-10
1.12601e-10
8.76964e-11
4.1315e-11
9.40874e-12
8.34135e-13
2.94755e-12
9.02721e-10
9.08631e-08
3.98033e-07
1.23834e-11
9.80712e-11
2.11424e-10
1.0978e-09
2.76493e-09
2.08633e-09
9.12316e-10
3.29076e-10
1.04299e-10
4.50781e-11
1.20542e-11
5.42455e-12
1.04955e-11
2.2592e-11
2.7191e-11
2.45999e-11
1.58521e-11
5.9511e-12
6.71479e-13
-9.61596e-13
5.27046e-11
6.28256e-09
8.85782e-09
2.42673e-12
3.77873e-11
5.47714e-11
1.80052e-10
3.49931e-10
2.86683e-10
1.44032e-10
6.11922e-11
3.01435e-11
8.96272e-12
1.78386e-12
9.13732e-13
1.73336e-12
3.98338e-12
5.2825e-12
5.09961e-12
3.948e-12
2.28328e-12
5.27715e-13
3.41031e-14
3.39672e-12
1.8768e-10
1.23424e-10
4.26214e-13
6.77825e-12
1.60374e-11
2.80588e-11
5.10953e-11
4.30504e-11
3.35974e-11
1.64348e-11
5.2035e-12
1.10858e-12
2.49596e-13
1.5362e-13
2.81809e-13
6.43365e-13
8.80258e-13
8.61796e-13
7.03196e-13
4.92992e-13
2.17804e-13
3.07247e-14
1.35944e-13
3.63115e-12
1.66654e-12
6.8205e-14
9.6034e-13
2.77294e-12
7.43923e-12
1.16186e-11
1.07764e-11
6.68595e-12
2.38281e-12
5.72269e-13
1.28973e-13
3.39835e-14
2.51654e-14
4.45455e-14
9.758e-14
1.30955e-13
1.27149e-13
1.02553e-13
6.88188e-14
3.99655e-14
1.16368e-14
1.85902e-14
1.38416e-13
5.27567e-13
1.01348e-14
1.34266e-13
3.29363e-13
1.12532e-12
1.86724e-12
1.59266e-12
7.69881e-13
2.37449e-13
6.03558e-14
1.42493e-14
4.42069e-15
3.86655e-15
6.62585e-15
1.37898e-14
1.76323e-14
1.68314e-14
1.32589e-14
7.89981e-15
4.46618e-15
1.75651e-15
5.77423e-16
1.91858e-15
2.74707e-13
1.41082e-15
1.81655e-14
3.78956e-14
1.11374e-13
1.90259e-13
1.52106e-13
7.33348e-14
2.34366e-14
6.04814e-15
1.48705e-15
5.4975e-16
5.46457e-16
9.15791e-16
1.80413e-15
2.15973e-15
2.01699e-15
1.54203e-15
8.4689e-16
4.07548e-16
1.49093e-16
1.60116e-17
2.34697e-17
2.88324e-14
1.84951e-16
2.31932e-15
4.23543e-15
1.10155e-14
1.76772e-14
1.4139e-14
6.8726e-15
2.20503e-15
5.72172e-16
1.47802e-16
6.55951e-17
7.17867e-17
1.18073e-16
2.18833e-16
2.42684e-16
2.20746e-16
1.61062e-16
8.37209e-17
3.42268e-17
1.09275e-17
1.72952e-18
4.17922e-19
2.52778e-15
2.2956e-17
2.79398e-16
4.51483e-16
1.06566e-15
1.62502e-15
1.28218e-15
6.15777e-16
1.96854e-16
5.12985e-17
1.41389e-17
7.57463e-18
8.85406e-18
1.4352e-17
2.46692e-17
2.53713e-17
2.22662e-17
1.51322e-17
7.33568e-18
2.62073e-18
7.45468e-19
1.23601e-19
1.54204e-19
2.42302e-16
2.70939e-18
3.19543e-17
4.58377e-17
9.89539e-17
1.43867e-16
1.11519e-16
5.26922e-17
1.67296e-17
4.38086e-18
1.31624e-18
8.49734e-19
1.03793e-18
1.65646e-18
2.57512e-18
2.51341e-18
2.05494e-18
1.25467e-18
5.37599e-19
1.61751e-19
3.71606e-20
9.84633e-21
1.05063e-19
1.39494e-17
3.03969e-19
3.48732e-18
4.4513e-18
8.82734e-18
1.22604e-17
9.31948e-18
4.32015e-18
1.35838e-18
3.58441e-19
1.20671e-19
9.26062e-20
1.16512e-19
1.82645e-19
2.48764e-19
2.29203e-19
1.61875e-19
7.74609e-20
2.30868e-20
4.46393e-21
6.23502e-22
1.52846e-21
1.97694e-20
7.75303e-19
3.19668e-20
3.64544e-19
4.15107e-19
7.59109e-19
1.00916e-18
7.50582e-19
3.40454e-19
1.05766e-19
2.8297e-20
1.10172e-20
9.84881e-21
1.25433e-20
1.9091e-20
2.09928e-20
1.60333e-20
6.13094e-21
1.26532e-21
1.29341e-22
-9.68564e-22
-1.51807e-21
-3.33245e-22
8.08202e-22
3.59154e-20
2.92794e-21
3.65663e-20
3.72494e-20
6.31165e-20
8.04657e-20
5.8431e-20
2.58688e-20
7.9265e-21
2.17505e-21
1.01133e-21
1.02135e-21
1.2924e-21
1.62118e-21
1.0577e-21
2.31623e-22
2.69042e-23
-2.65789e-21
-4.49004e-21
-3.98884e-21
-2.23934e-21
-7.83763e-22
-9.26712e-23
1.31533e-21
1.37026e-22
3.50488e-21
3.19415e-21
5.07689e-21
6.22838e-21
4.40942e-21
1.90119e-21
5.74151e-22
1.64686e-22
9.42283e-23
1.02542e-22
1.07809e-22
4.35654e-23
7.96962e-24
-6.30882e-22
-2.53024e-21
-4.25098e-21
-4.21096e-21
-2.85598e-21
-1.3498e-21
-4.4514e-22
-9.56098e-23
2.51922e-23
1.77328e-24
3.09156e-22
2.44529e-22
3.86501e-22
4.66788e-22
3.23163e-22
1.35551e-22
4.03993e-23
1.24902e-23
8.92528e-24
8.4237e-24
2.03043e-24
8.54905e-40
-2.66751e-22
-1.16702e-21
-2.37026e-21
-2.87449e-21
-2.33162e-21
-1.35602e-21
-5.59641e-22
-1.63631e-22
-3.30817e-23
-3.4522e-24
-6.87815e-23
2.03072e-23
7.16481e-24
1.88696e-23
2.53781e-23
2.02464e-23
8.76366e-24
2.54995e-24
8.53923e-25
7.48003e-25
1.52866e-25
-1.18203e-24
-5.3476e-23
-3.24492e-22
-8.90554e-22
-1.40361e-21
-1.42054e-21
-9.96618e-22
-5.08407e-22
-1.83883e-22
-4.65479e-23
-8.06022e-24
-8.83848e-25
-7.27247e-23
3.48891e-25
3.06026e-24
5.56826e-24
7.12789e-24
2.80735e-24
8.48167e-25
2.62281e-25
1.12571e-25
2.7319e-26
-6.09953e-26
-6.46717e-24
-5.73484e-23
-2.33241e-22
-5.04689e-22
-6.6459e-22
-5.77447e-22
-3.51243e-22
-1.54611e-22
-4.70457e-23
-9.50917e-24
-1.20642e-24
-8.38441e-26
0.999969
0.999969
0.999969
0.882918
0.999966
0.999969
0.964986
0.309006
0.999965
0.995999
0.515827
0.170449
0.526323
0.313792
0.117929
0.179027
0.073881
0.0450135
0.112054
0.464541
0.0454127
0.0426713
0.0895742
0.137929
0.0871671
0.0364496
0.0413732
0.0153768
0.0761138
0.0179853
0.0144862
0.0104698
0.0337166
0.0309872
0.0407972
0.0350192
0.0409637
0.0409637
0.0409637
0.0073129
0.0407629
0.0409637
0.0211962
6.25649e-05
0.0176471
0.0134245
2.71394e-05
4.59255e-05
0.000875074
1.87219e-05
2.06336e-05
0.00023004
1.03238e-05
1.10881e-05
1.79174e-05
0.000101056
6.68227e-06
6.56862e-06
8.74866e-06
0.000709027
6.48993e-06
6.11372e-06
6.44796e-06
8.20297e-06
0.000408907
6.09629e-06
6.11372e-06
6.4449e-06
6.25889e-05
6.11372e-06
6.09065e-06
6.35001e-06
5.6906e-06
8.02509e-06
2.07099e-05
2.25897e-05
5.63785e-06
5.59998e-06
8.0297e-06
5.85613e-06
5.59998e-06
5.56331e-06
5.2983e-06
5.11636e-06
5.63785e-06
5.33497e-06
5.27539e-06
4.78401e-06
5.64397e-06
5.74903e-06
3.15862e-05
2.10342e-06
0.000480392
0.000414976
3.9664e-05
8.14748e-08
0.00188613
0.000993588
1.21363e-06
1.81176e-07
1.71532e-05
8.13885e-08
9.144e-09
3.10367e-07
7.73119e-08
5.82262e-08
5.84002e-11
9.62816e-12
2.15402e-10
5.84002e-11
4.56094e-11
3.62756e-12
1.28114e-09
8.19768e-10
1.52508e-10
4.63606e-11
4.4209e-11
1.34348e-10
1.4948e-10
9.95491e-11
6.83906e-12
1.82832e-11
1.67855e-11
8.53915e-12
8.40991e-13
1.59813e-12
1.21992e-12
5.09693e-13
6.07016e-14
7.9181e-14
5.42492e-14
1.69558e-14
2.83842e-15
2.86054e-15
1.56948e-15
3.98224e-16
9.14457e-17
7.92703e-17
3.07253e-17
3.56304e-17
2.67494e-18
1.74564e-18
1.15338e-18
7.54366e-18
7.078e-20
3.58366e-20
1.58396e-19
2.48795e-18
1.6906e-21
6.50998e-22
5.94243e-20
1.35155e-18
3.70743e-23
1.10495e-23
1.3025e-20
7.29905e-19
3.2301e-25
3.22473e-25
1.74251e-21
1.9027e-19
-4.61432e-26
4.21158e-26
1.27023e-22
3.88967e-21
-2.23634e-27
2.25418e-27
8.74502e-26
1.29643e-25
0.3285
0.173238
0.0836086
0.0233986
0.0232377
0.0262978
0.0448621
0.0577462
0.078432
0.0982028
0.242647
0.52767
0.649546
0.693112
0.660383
0.666913
0.658681
0.643579
0.625811
0.164707
0.163718
0.259179
0.0481639
0.0232088
0.0232377
0.0238334
0.0261184
0.0408913
0.381834
0.673626
0.673246
0.672289
0.67182
0.65258
0.435448
0.290455
0.478942
0.626867
0.163975
0.248476
0.269902
0.143339
0.0232377
0.023163
0.0234073
0.0251847
0.217661
0.666744
0.673626
0.674019
0.673246
0.580531
0.0937613
0.00126656
0.00197925
0.0873437
0.226556
0.400645
0.462713
0.277101
0.107066
0.0268107
0.0234073
0.0238221
0.0991153
0.571283
0.671946
0.673948
0.673246
0.33783
0.0215241
0.00126869
0.00072395
0.000618461
0.0007439
0.001149
0.466886
0.467598
0.285038
0.034277
0.030025
0.0238221
0.176623
0.642001
0.667734
0.671043
0.629565
0.267306
0.00446556
0.0013976
0.000723986
0.000618461
0.000553977
0.000618461
0.00982533
0.346524
0.469152
0.476261
0.141792
0.034277
0.259621
0.61517
0.634615
0.562747
0.17366
0.0313817
0.0114359
0.00168216
0.00128508
0.00107281
0.00133755
0.000504642
0.00106999
0.012894
0.010526
0.251614
0.481953
0.483332
0.0497958
0.278322
0.527482
0.0653115
0.00107397
0.00108902
0.00123883
0.00168194
0.00173495
0.00145263
0.00166796
0.00160108
0.000483483
3.0192e-06
0.00544081
0.0106908
0.0243787
0.174143
0.543051
0.0658399
0.199638
0.187908
0.00107397
0.00106836
0.00107725
0.00154652
0.00161416
0.00139295
0.00187253
0.00187253
0.00131442
3.34853e-05
2.18538e-06
2.53907e-06
0.0114158
0.00150071
0.00622391
0.543051
0.361115
0.08958
0.00108405
0.00107397
0.00117837
0.00242269
0.0024326
0.00181779
0.00119937
0.00167109
0.000907485
1.43393e-06
1.49287e-06
1.71924e-06
2.18538e-06
0.0116188
0.000779093
0.000646771
0.333422
0.377945
0.160583
0.00153512
0.00204778
0.00219525
0.00221491
0.000302155
4.85932e-05
4.59779e-05
1.25163e-06
1.38481e-06
1.3969e-06
1.43393e-06
1.49287e-06
2.08313e-06
0.00010475
0.000496754
0.000570139
0.123088
0.253252
0.124879
0.000891357
0.00150171
0.00127938
1.30701e-06
5.98044e-07
8.21125e-07
8.69537e-07
1.00675e-06
1.25163e-06
1.38481e-06
1.49601e-06
6.33268e-06
3.25797e-06
8.31899e-05
0.000116593
0.00199809
0.0483127
0.202725
0.0218299
9.73634e-05
4.83196e-05
2.48539e-05
6.01814e-07
5.56581e-07
3.6737e-06
4.8176e-06
3.75434e-06
1.38481e-06
1.47206e-06
1.58166e-06
6.05599e-05
3.2513e-05
0.000617267
0.00014763
0.00368858
0.0519267
0.0703694
9.83228e-05
1.9418e-05
5.27521e-06
6.60224e-07
8.91324e-07
5.38531e-07
6.38558e-06
6.65318e-06
6.72097e-06
1.91623e-06
1.93725e-06
3.55915e-06
7.02101e-05
7.00235e-05
0.00257113
0.00876641
0.0131733
0.0124691
0.000721656
2.18647e-05
3.28707e-06
5.69137e-07
5.47783e-07
5.37236e-07
5.08411e-07
4.40394e-06
3.91321e-06
2.40473e-06
3.2852e-05
2.0984e-05
3.47969e-05
7.02101e-05
2.07154e-05
0.00311137
0.00324913
0.0018056
0.000294675
0.000120873
3.54896e-06
9.45103e-07
5.56449e-07
5.34629e-07
5.09056e-07
4.6783e-07
4.44582e-07
4.45036e-07
4.45036e-07
0.000333536
0.000267365
6.50558e-05
7.01995e-05
9.03253e-06
1.57497e-05
0.000152834
0.000143026
0.000158989
3.91402e-05
1.68897e-05
7.21016e-06
8.31216e-07
5.53613e-07
5.46234e-07
5.1008e-07
4.45317e-07
4.43947e-07
8.63302e-06
0.00038013
0.000340014
2.47535e-05
7.00807e-05
9.03253e-06
8.22105e-06
1.59204e-05
0.000135836
0.000358797
0.000374288
0.000432729
0.000414309
7.80217e-05
1.14018e-05
5.55636e-07
1.26673e-06
2.15157e-06
4.27662e-07
0.000162766
0.000380962
2.97959e-05
1.67196e-05
4.56109e-05
9.03253e-06
7.7285e-06
2.56309e-05
0.000433243
0.000606753
0.000606645
0.000606829
0.000606645
0.000528235
4.67752e-05
7.11442e-07
3.4022e-06
3.4333e-06
4.02647e-07
0.000375652
0.000377469
1.58505e-05
1.31723e-05
9.82672e-06
9.09594e-06
2.36381e-05
6.06236e-05
0.000371085
0.000606626
0.000606826
0.000606645
0.000605499
0.000415415
5.06197e-05
1.20187e-06
3.9531e-06
2.11057e-06
3.91968e-07
0.000374419
0.000376584
1.67349e-05
1.58505e-05
2.98576e-05
1.03074e-05
4.15006e-05
9.53228e-05
0.000232273
0.000253929
0.000382426
0.000340396
0.000128845
8.10742e-11
9.25858e-11
1.52231e-06
3.98217e-06
1.77415e-06
3.90588e-07
0.000367003
0.000375056
1.99088e-05
2.52829e-05
0.000575238
3.10684e-05
3.0395e-05
7.1382e-05
7.71671e-11
7.58075e-11
7.52525e-11
7.58075e-11
7.70237e-11
7.89438e-11
8.10742e-11
1.53785e-06
4.00862e-06
2.8984e-06
3.91968e-07
0.000200534
0.00015578
1.84032e-05
0.000217252
0.000846992
9.41301e-05
5.01136e-10
1.1791e-10
9.04516e-11
7.52525e-11
7.50477e-11
7.52525e-11
7.62276e-11
7.9131e-11
8.07791e-11
2.65375e-06
4.01946e-06
3.36411e-06
3.50018e-07
5.53487e-06
1.13061e-05
4.97327e-06
0.000700923
0.000846992
0.000196887
2.48296e-09
2.15348e-10
8.78188e-11
8.0754e-11
7.50943e-11
8.32221e-11
8.56208e-11
8.07791e-11
8.45591e-11
3.71018e-06
4.01695e-06
3.17477e-06
1.37869e-07
1.40789e-07
2.04455e-05
3.44717e-06
0.000836435
0.000846992
0.0003021
6.38673e-09
5.14026e-10
1.09245e-10
8.56775e-11
6.46024e-11
1.11867e-10
1.30852e-10
8.45591e-11
1.07829e-10
3.58541e-06
4.01891e-06
1.88728e-06
2.13179e-08
2.08729e-07
2.39536e-05
1.80489e-06
0.000502674
0.000846369
0.000341655
7.48609e-08
3.97157e-09
7.07233e-11
2.45948e-11
1.79929e-11
1.49889e-10
9.07965e-10
4.85535e-10
3.33532e-10
7.31992e-07
2.45786e-06
4.298e-07
3.88755e-09
2.13179e-08
2.02631e-05
7.81111e-07
0.000322128
0.000840753
0.000307745
3.5639e-07
4.76035e-08
1.28478e-12
3.24011e-12
3.47569e-12
1.91299e-10
2.50134e-09
3.0322e-09
1.85226e-09
4.74225e-10
4.70184e-10
4.74289e-10
4.79269e-10
6.21339e-06
9.65341e-07
6.10021e-07
0.000539809
0.000830021
0.00024345
4.74504e-12
2.27744e-12
2.01716e-12
3.42856e-12
3.43442e-12
1.77627e-10
3.10651e-09
4.02427e-09
3.33202e-09
6.94359e-10
4.46419e-10
4.70184e-10
8.74042e-08
6.63164e-06
1.9202e-06
5.7749e-07
0.000757643
0.000822898
0.000211537
2.27744e-12
2.01716e-12
1.98958e-12
2.99436e-12
3.51215e-12
1.1664e-10
1.28289e-09
3.49038e-09
3.0115e-09
8.8484e-10
4.06319e-10
4.46419e-10
1.99205e-09
3.93681e-06
7.97287e-07
5.83176e-07
0.000546756
0.000819679
0.00019086
1.71546e-11
4.59626e-12
1.70214e-12
2.66035e-12
8.34905e-12
2.38462e-11
1.2824e-10
5.20949e-10
4.86974e-10
1.17973e-10
1.24167e-10
2.83532e-10
1.99995e-08
6.16024e-07
5.83176e-07
5.7748e-07
0.000191717
0.000539352
0.000183816
3.14103e-11
4.16717e-12
7.64148e-13
2.21434e-12
9.5513e-12
6.91036e-12
5.43605e-12
7.63528e-12
8.34315e-11
1.16957e-10
1.15644e-10
2.02984e-09
9.71972e-06
1.9388e-05
5.58816e-06
5.83176e-07
0.000101558
0.000276841
0.000183888
2.45583e-12
3.56666e-13
2.2665e-13
5.14075e-13
1.77068e-12
8.65521e-13
6.07006e-13
1.9205e-11
1.0519e-10
1.16784e-10
1.41917e-10
2.01666e-06
4.52973e-05
4.55881e-05
2.10285e-05
7.98672e-07
0.000204821
0.000548045
0.000215663
7.76344e-14
1.3028e-14
3.68171e-14
1.77018e-13
3.06913e-13
2.70838e-13
2.71877e-14
1.28028e-08
9.83242e-09
1.86855e-10
5.92233e-10
3.67086e-05
4.58782e-05
4.56239e-05
2.4104e-05
1.61955e-06
0.000340357
0.000549421
0.000181893
2.29112e-15
2.07643e-15
3.05043e-14
1.21428e-13
1.36732e-13
2.11071e-13
2.99783e-09
6.46829e-08
4.02787e-08
6.41721e-10
2.71053e-06
4.58782e-05
4.59008e-05
4.58782e-05
1.06709e-05
2.45453e-06
0.000510077
0.000549322
9.2841e-05
4.27156e-16
5.70312e-16
4.05991e-13
6.6859e-13
8.00423e-13
3.04785e-13
3.81905e-08
6.53531e-08
4.83891e-08
1.34147e-09
2.20281e-09
4.54384e-05
4.59008e-05
2.54429e-05
8.17211e-06
0.000235447
0.000532384
0.000445229
1.03119e-05
1.31321e-16
1.38425e-16
1.52873e-12
1.77246e-12
2.10395e-11
1.09199e-12
4.4476e-08
6.53531e-08
1.43799e-08
1.27972e-09
1.65502e-09
4.14396e-05
4.59008e-05
1.73825e-05
8.17678e-06
0.000200079
0.000532384
0.000144
-1.70969e-24
4.85438e-17
6.20705e-19
2.38392e-12
3.91552e-12
1.46631e-10
2.10696e-10
3.9749e-09
1.2805e-08
1.25146e-10
4.71108e-10
8.63029e-07
1.20169e-05
4.10324e-05
5.26261e-06
5.37645e-05
0.000188287
8.09884e-06
-3.97136e-16
-4.68014e-17
1.31433e-17
3.50448e-19
2.51811e-12
1.12357e-11
2.75615e-10
1.18303e-09
6.86721e-12
6.24222e-12
6.86112e-12
3.91109e-09
1.18986e-07
2.36961e-10
1.98434e-06
1.90318e-06
4.13005e-25
-4.46833e-15
-1.10024e-14
-4.25035e-15
-4.08539e-16
4.56327e-18
2.81323e-19
2.38718e-12
2.44924e-11
2.19859e-10
4.69003e-10
7.10006e-11
5.78356e-12
1.91761e-11
6.68974e-10
2.14199e-11
3.90544e-11
2.18197e-10
1.20295e-25
-5.20191e-15
-1.47958e-14
-3.40499e-14
-1.07131e-14
-9.61306e-16
1.10127e-18
2.403e-19
1.8797e-12
2.75141e-11
2.55332e-11
4.08066e-14
3.68226e-14
5.79272e-12
1.03757e-12
1.05288e-12
1.66422e-12
4.20344e-09
2.98148e-08
3.11451e-08
-3.67796e-15
-1.31622e-14
-3.58243e-14
-9.20461e-15
-7.8031e-16
1.12394e-19
2.34319e-19
5.72416e-13
6.90605e-12
2.38695e-12
1.76617e-13
3.61819e-14
4.73652e-12
4.77271e-13
3.25175e-12
3.01546e-11
5.72235e-09
5.26296e-08
5.26199e-08
2.70867e-17
2.33191e-18
1.42971e-16
4.73823e-18
1.44104e-18
1.75166e-21
2.25136e-17
3.37878e-14
4.03085e-13
4.33028e-13
1.00524e-13
6.04973e-15
1.27767e-12
7.24228e-14
3.13879e-12
1.79412e-10
6.21133e-10
2.96832e-09
2.29106e-08
-1.4091e-18
-6.88266e-18
-4.56172e-19
-1.90946e-20
2.95881e-21
8.32571e-26
2.20369e-17
1.90143e-19
-2.00973e-62
1.06863e-40
0
1.42433e-17
1.08838e-14
3.70716e-16
7.88082e-14
2.90809e-11
1.01539e-10
-2.144e-21
-2.13162e-20
-2.19572e-19
-2.99589e-18
-2.75462e-19
-1.15019e-20
-1.77459e-22
)
;

boundaryField
{
    leftWall
    {
        type            zeroGradient;
    }
    rightWall
    {
        type            zeroGradient;
    }
    lowerWall
    {
        type            zeroGradient;
    }
    atmosphere
    {
        type            inletOutlet;
        inletValue      uniform 0;
        value           nonuniform List<scalar> 
46
(
-7.27247e-23
3.48891e-25
3.06026e-24
5.56826e-24
7.12789e-24
2.80735e-24
8.48167e-25
2.62281e-25
1.12571e-25
2.7319e-26
-6.09953e-26
-6.46717e-24
-5.73484e-23
-2.33241e-22
-5.04689e-22
-6.6459e-22
-5.77447e-22
-3.51243e-22
-1.54611e-22
-4.70457e-23
-9.50917e-24
-1.20642e-24
-8.38441e-26
0
0
0
0
0
0
0
0
0
0
0
0
0
0
0
0
0
0
0
0
0
0
0
)
;
    }
    defaultFaces
    {
        type            empty;
    }
}


// ************************************************************************* //
