/*--------------------------------*- C++ -*----------------------------------*\
| =========                 |                                                 |
| \\      /  F ield         | OpenFOAM: The Open Source CFD Toolbox           |
|  \\    /   O peration     | Version:  2206                                  |
|   \\  /    A nd           | Website:  www.openfoam.com                      |
|    \\/     M anipulation  |                                                 |
\*---------------------------------------------------------------------------*/
FoamFile
{
    version     2.0;
    format      ascii;
    arch        "LSB;label=32;scalar=64";
    class       volScalarField;
    location    "0.9";
    object      p;
}
// * * * * * * * * * * * * * * * * * * * * * * * * * * * * * * * * * * * * * //

dimensions      [1 -1 -2 0 0 0 0];

internalField   nonuniform List<scalar> 
2268
(
1057.73
1045.79
1028.14
1007.08
985.998
966.35
949.548
937.319
930.827
929.93
933.479
939.03
941.921
939.148
933.817
927.225
921.908
920.371
920.403
915.461
907.031
896.88
889.757
1002.51
989.279
969.267
946.596
925.264
906.432
889.742
877.383
870.857
870.063
873.933
880.248
884.999
884.595
878.412
868.47
860.508
860.769
861.104
855.646
846.762
835.743
829.444
946.76
932.084
909.45
885.31
864.74
845.961
828.843
815.957
809.278
808.945
813.86
821.643
828.723
830.755
823.932
812.302
804.28
802.478
800.838
794.558
784.861
772.678
766.887
890.547
874.101
849.059
823.276
802.766
784.681
767.085
753.295
746.303
746.614
753.183
763.263
772.609
776.152
769.611
757.448
747.978
743.766
739.961
732.541
721.772
707.779
701.936
834.067
815.889
788.588
760.899
740.54
723.051
704.545
689.3
681.782
682.885
691.691
705.154
717.753
722.678
715.509
701.551
690.153
684.384
679.257
670.722
658.709
641.511
635.606
778.63
758.289
728.786
699.093
678.792
661.541
641.214
623.759
615.423
617.429
629.093
647.115
664.09
670.526
661.147
643.87
630.948
624.848
619.166
609.379
595.73
575.626
570.07
725.747
702.273
670.67
639.207
618.866
600.142
576.77
556.242
546.804
549.829
565.054
589.12
612.013
620.249
606.885
584.636
570.585
565.452
559.971
548.722
533.263
513.528
503.607
676.991
648.564
614.828
581.694
557.761
537.794
510.283
486.034
475.256
479.34
498.887
531.234
562.238
572.316
553.202
523.414
508.603
506.362
502.207
489.829
471.854
453.771
435.461
635.525
601.208
556.274
487.655
440.093
443.021
487.693
545.081
589.038
611.458
623.417
625.502
577.764
559.121
475.082
411.032
525.524
768.952
847.779
598.801
567.063
524.863
446.215
398.27
403.856
450.238
509.74
552.019
557.847
562.176
576.026
526.506
483.539
375.23
309.152
395.744
643.961
767.991
567.823
545.74
486.87
396.531
341.462
339.657
394.494
456.031
498.395
511.411
523.159
555.088
523.875
429.739
307.454
254.115
333.259
536.521
686.703
539.158
510.405
433.067
313.117
253.455
255.556
318.622
386.848
430.185
463.843
486.028
515.856
503.904
402.91
275.162
228.906
307.235
464.284
609.072
516.732
457.972
350.15
213.629
177.957
187.758
250.386
319.775
356.814
402.65
435.21
470.755
476.202
385.347
274.832
230.424
293.002
412.457
527.397
493.906
412.436
258.309
170.425
164.221
171.184
205.714
261.935
289.518
338.878
379.025
420.586
431.887
375.463
291.751
252.978
288.221
355.888
433.146
484.624
372.525
188.036
160.795
161.27
166.66
181.209
213.421
235.187
282.61
324.999
371.286
394.325
371.7
307.275
275.388
289.749
294.38
338.687
481.716
324.757
173.43
159.23
159.868
164.682
171.515
181.098
201.672
244.096
283.135
335.072
372.042
373.69
340.223
307.238
283.425
250.151
272.059
606.317
569.593
532.672
502.136
475.979
441.868
403.257
371.901
359.017
365.227
392.928
442.833
492.484
509.059
473.268
422.345
408.027
414.971
415.753
401.473
371.906
341.373
310.459
544.845
482.029
426.376
380.279
345.522
305.443
247.503
195.836
175.423
183.114
226.876
325.501
450.903
462.17
369.373
291.423
287.518
311.465
317.476
281.515
212.889
142.419
97.9794
404.821
350.783
310.095
258.062
204.373
153.659
91.2572
64.3415
59.7944
57.0117
69.5408
134.69
228.22
284.893
241.458
203.706
207.414
233.28
228.298
162.42
57.4899
-43.9711
-99.8398
475.225
324.039
202.295
94.9051
58.7753
59.9244
49.1426
39.4398
32.1948
21.1851
16.9293
24.8644
52.9156
95.2523
109.823
118.139
134.789
148.023
150.507
111.84
80.3905
42.8243
16.3024
615.048
255.304
56.0782
12.8297
7.47029
8.67443
13.2409
17.1675
20.8262
18.5131
10.4233
7.83384
9.24502
14.0809
18.6681
49.5732
79.4863
77.1473
83.8141
58.3226
38.6021
26.6529
25.5749
411.149
59.6407
10.6059
2.43846
0.629596
-0.241071
-0.116695
1.33788
4.66159
7.23706
3.97184
1.96844
1.135
0.187373
-0.202622
35.3536
68.955
47.1579
39.7923
34.2951
24.4829
17.1761
22.4374
77.1395
8.24851
1.50209
0.164884
-0.615282
-1.07111
-1.30263
-1.50873
-1.6685
-1.44869
-1.34235
-1.34005
-1.52919
-1.7098
-0.660219
12.1675
39.64
40.7578
34.2254
28.7162
23.1152
17.8135
19.9671
8.38155
-0.741548
-0.392546
-0.671667
-1.0709
-1.4473
-1.69692
-1.92752
-2.21333
-2.40164
-2.37561
-2.32833
-2.4239
-2.54201
-2.87415
-1.95272
6.67408
20.5703
21.7297
22.0785
17.1206
12.1481
12.5959
5.04378
-1.37369
-0.737372
-1.19378
-1.52809
-1.8531
-2.10769
-2.31044
-2.45929
-2.558
-2.65437
-2.75177
-2.85919
-2.93321
-3.06792
-3.20401
0.0533537
9.96736
14.1929
13.6976
16.1926
23.1238
19.9159
1.2821
-1.67077
-1.14036
-1.7171
-2.03322
-2.33209
-2.55599
-2.72304
-2.83732
-2.91341
-2.99854
-3.10977
-3.20747
-3.25986
-3.30422
-3.40858
-3.81019
-2.00876
12.2207
21.1797
24.239
21.3513
11.9915
-1.62895
-2.23719
-1.90528
-2.37325
-2.65796
-2.92464
-3.09076
-3.18563
-3.2329
-3.26319
-3.31368
-3.39646
-3.48346
-3.54296
-3.5691
-3.5787
-3.56179
-3.38856
-2.71709
-0.706896
2.73237
5.13056
2.81039
-1.97315
-2.61216
-2.7021
-3.19995
-3.51398
-3.73248
-3.77881
-3.7376
-3.66551
-3.60263
-3.58614
-3.62078
-3.68836
-3.75896
-3.80471
-3.82236
-3.82697
-3.74392
-3.19539
-1.95652
-0.471168
-0.234074
-1.09857
-2.36987
-3.28453
-3.58672
-4.29438
-4.72279
-4.89195
-4.72659
-4.44163
-4.16908
-3.95388
-3.8416
-3.8046
-3.82743
-3.88578
-3.94179
-3.97992
-4.02601
-4.00948
-3.63513
-3.04967
-2.02479
-2.11847
-2.8171
-2.36654
-3.9426
-4.66744
-5.74713
-6.42804
-6.57801
-6.07795
-5.44343
-4.81308
-4.36999
-4.09636
-3.96757
-3.9306
-3.95096
-3.99767
-4.04712
-4.10436
-4.13106
-4.09117
-3.81428
-2.81158
-2.6488
-2.81534
-2.47406
-4.05231
-5.79711
-7.40245
-8.52665
-8.79643
-7.99075
-6.70744
-5.51526
-4.72665
-4.29985
-4.0965
-4.01154
-3.9927
-4.01093
-4.04454
-4.08297
-4.13338
-4.22737
-3.98346
-3.25361
-2.78037
-2.53239
-2.89159
-3.97111
-6.52483
-8.61855
-10.1424
-10.6543
-9.67059
-7.67273
-5.99181
-4.93434
-4.39637
-4.17006
-4.0607
-4.01504
-4.01145
-4.02631
-4.04568
-4.06526
-4.11619
-3.97637
-3.64877
-3.19688
-2.78549
-3.66223
-4.31704
-6.36178
-8.6006
-10.2074
-10.8005
-9.82076
-7.81539
-5.97698
-4.88722
-4.37582
-4.15178
-4.04748
-4.00896
-4.00013
-4.00426
-4.00825
-4.00475
-4.00436
-3.94906
-3.81575
-3.19731
-3.32451
-4.49278
-4.92893
-5.85267
-7.17405
-8.26819
-8.67691
-8.05431
-6.69763
-5.38675
-4.58439
-4.22129
-4.07195
-4.00603
-3.98409
-3.98058
-3.98325
-3.98183
-3.96854
-3.95194
-3.93772
-3.96251
-3.61311
-3.73071
-5.0482
-5.31326
-5.62497
-5.76709
-5.82434
-5.89582
-5.69691
-5.12542
-4.55284
-4.1855
-4.02254
-3.96641
-3.95221
-3.95426
-3.96255
-3.97021
-3.97052
-3.95513
-3.92482
-3.89991
-3.89373
-3.79772
-3.7482
-5.14371
-5.4335
-5.52729
-5.06414
-4.40583
-4.10267
-4.04921
-3.98349
-3.90935
-3.86396
-3.85772
-3.87915
-3.90773
-3.93407
-3.9566
-3.97332
-3.98164
-3.97691
-3.95824
-3.96922
-3.92997
-3.74967
-3.82309
-4.96115
-5.18819
-5.14932
-4.62265
-3.83899
-3.39101
-3.33672
-3.44453
-3.57851
-3.68234
-3.76186
-3.83112
-3.88803
-3.93311
-3.96893
-3.99668
-4.01736
-4.03175
-4.04089
-4.10197
-4.03906
-3.79135
-3.8506
-4.64546
-4.73826
-4.6457
-4.22352
-3.62533
-3.243
-3.19322
-3.32703
-3.49329
-3.62857
-3.73756
-3.8262
-3.89713
-3.95383
-3.99995
-4.03839
-4.07257
-4.10769
-4.14975
-4.23551
-4.28061
-4.10731
-3.98871
-4.36818
-4.36437
-4.24585
-3.94466
-3.56229
-3.33004
-3.30745
-3.40768
-3.53686
-3.65979
-3.76683
-3.85677
-3.93129
-3.99317
-4.04564
-4.09225
-4.13768
-4.1892
-4.26091
-4.38084
-4.57269
-4.51307
-4.28929
-4.2148
-4.18001
-4.0673
-3.86191
-3.63266
-3.50178
-3.48596
-3.54567
-3.63827
-3.73725
-3.83001
-3.9124
-3.98391
-4.04582
-4.10043
-4.15104
-4.20245
-4.26133
-4.34347
-4.46699
-4.66038
-4.80511
-4.65058
-4.15886
-4.12588
-4.03807
-3.9018
-3.76266
-3.67854
-3.66159
-3.69674
-3.76114
-3.83662
-3.91262
-3.98399
-4.04875
-4.10693
-4.15979
-4.20975
-4.26068
-4.31739
-4.39115
-4.49576
-4.66945
-4.86509
-4.89971
-4.15828
-4.13499
-4.06998
-3.98044
-3.89294
-3.83724
-3.82275
-3.84374
-3.88818
-3.94474
-4.00532
-4.06501
-4.12129
-4.17333
-4.22152
-4.2672
-4.31275
-4.36119
-4.41816
-4.48949
-4.59573
-4.73375
-4.80879
-4.19108
-4.17342
-4.13053
-4.07179
-4.01615
-3.97956
-3.96853
-3.98162
-4.01283
-4.05514
-4.10271
-4.15145
-4.19883
-4.24361
-4.28547
-4.32485
-4.36277
-4.40062
-4.44016
-4.48188
-4.52842
-4.58608
-4.62531
-4.24751
-4.23399
-4.20577
-4.16829
-4.13311
-4.10935
-4.10179
-4.11074
-4.13323
-4.16502
-4.20206
-4.24116
-4.28008
-4.31741
-4.35243
-4.38498
-4.41515
-4.44329
-4.46948
-4.49321
-4.51237
-4.52847
-4.53668
-4.32008
-4.30969
-4.29137
-4.26787
-4.24579
-4.23071
-4.22612
-4.23285
-4.2495
-4.27351
-4.30219
-4.33314
-4.36446
-4.39482
-4.42331
-4.44942
-4.47281
-4.49338
-4.51078
-4.52479
-4.53408
-4.53797
-4.53467
-4.40391
-4.39597
-4.38424
-4.36969
-4.35603
-4.34677
-4.34441
-4.34984
-4.36242
-4.38067
-4.40277
-4.42698
-4.45178
-4.47596
-4.4986
-4.51906
-4.53685
-4.55166
-4.56308
-4.57087
-4.57433
-4.57259
-4.56453
-4.4957
-4.48958
-4.48218
-4.47332
-4.46503
-4.45959
-4.45877
-4.4633
-4.47297
-4.48688
-4.50384
-4.52258
-4.5419
-4.56079
-4.57839
-4.59405
-4.60723
-4.61754
-4.62457
-4.62802
-4.6275
-4.62253
-4.61263
-4.59305
-4.5883
-4.58371
-4.57844
-4.57356
-4.57056
-4.57068
-4.57451
-4.582
-4.59261
-4.60554
-4.61988
-4.6347
-4.64917
-4.66254
-4.67419
-4.68364
-4.69047
-4.69433
-4.695
-4.69227
-4.686
-4.67581
-4.69432
-4.6906
-4.68783
-4.6848
-4.68204
-4.68055
-4.68119
-4.68441
-4.69021
-4.69827
-4.70804
-4.71886
-4.73003
-4.74087
-4.75077
-4.75918
-4.76566
-4.76988
-4.77156
-4.77056
-4.76684
-4.76052
-4.75208
-4.79839
-4.79547
-4.79386
-4.7922
-4.79074
-4.79013
-4.791
-4.79365
-4.79811
-4.80417
-4.81146
-4.81949
-4.82774
-4.83566
-4.84276
-4.8486
-4.8528
-4.85509
-4.85527
-4.85324
-4.84902
-4.84272
-4.83448
-4.9045
-4.9022
-4.90131
-4.90049
-4.89978
-4.89966
-4.90054
-4.90267
-4.90604
-4.91053
-4.91587
-4.9217
-4.92764
-4.93325
-4.93816
-4.942
-4.94447
-4.94536
-4.94452
-4.9419
-4.93753
-4.93153
-4.92405
-5.01213
-5.0103
-5.00985
-5.0095
-5.00921
-5.00931
-5.0101
-5.01174
-5.01423
-5.01747
-5.02128
-5.02541
-5.02954
-5.03336
-5.03658
-5.0389
-5.0401
-5.04001
-5.03853
-5.03562
-5.03135
-5.02584
-5.01926
-5.12089
-5.11941
-5.1192
-5.11912
-5.11903
-5.1192
-5.11983
-5.12103
-5.12279
-5.12506
-5.12769
-5.13049
-5.13324
-5.13571
-5.13766
-5.13888
-5.13918
-5.13845
-5.13661
-5.13366
-5.12966
-5.12475
-5.11911
-5.23047
-5.22924
-5.22918
-5.22922
-5.22921
-5.22936
-5.22982
-5.23063
-5.23182
-5.23332
-5.23505
-5.23685
-5.23857
-5.24004
-5.24108
-5.24152
-5.24125
-5.24015
-5.2382
-5.23539
-5.23179
-5.22756
-5.22289
-5.34066
-5.3396
-5.33962
-5.33972
-5.33972
-5.33981
-5.34009
-5.3406
-5.34133
-5.34225
-5.3433
-5.34437
-5.34535
-5.34611
-5.34653
-5.34649
-5.3459
-5.34469
-5.34282
-5.34033
-5.33727
-5.3338
-5.33012
-5.45133
-5.45041
-5.45049
-5.45059
-5.45057
-5.4506
-5.45073
-5.45099
-5.45139
-5.45188
-5.45243
-5.45298
-5.45345
-5.45375
-5.4538
-5.45351
-5.45284
-5.45172
-5.45015
-5.44814
-5.44577
-5.44318
-5.44063
-5.56217
-5.56137
-5.56154
-5.56163
-5.56158
-5.56157
-5.5616
-5.56169
-5.56185
-5.56205
-5.56228
-5.5625
-5.56265
-5.5627
-5.5626
-5.5623
-5.56175
-5.56094
-5.55986
-5.55851
-5.55696
-5.55531
-5.55375
-5.67393
-5.67346
-5.67348
-5.67348
-5.67344
-5.67341
-5.67337
-5.67334
-5.67332
-5.67331
-5.6733
-5.67327
-5.67321
-5.67311
-5.67295
-5.67272
-5.6724
-5.67199
-5.67149
-5.67089
-5.67023
-5.66953
-5.66891
250.944
298.318
394.795
458.025
76.5264
157.196
261.619
324.418
-83.1003
17.1213
142.385
212.785
17.4945
50.9508
93.7683
120.358
33.7236
45.5578
61.7546
82.6283
37.1472
44.7755
41.4647
39.4684
32.6241
34.6575
31.1547
24.7844
23.4972
26.4653
23.3997
14.9228
16.0176
19.3267
14.1355
1.70598
8.32423
9.59661
2.36034
-5.15849
1.13422
1.17263
-3.79345
-6.31455
-2.19324
-3.37733
-5.31151
-6.44062
-3.16383
-3.9823
-5.33208
-6.65945
-3.11072
-3.77333
-5.13084
-6.71021
-3.04561
-3.56445
-4.6351
-5.745
-3.18487
-3.68089
-4.43105
-4.68998
-3.4935
-4.2239
-4.6503
-4.47919
-3.70882
-4.37195
-4.71106
-4.36057
-3.84615
-4.29347
-4.52775
-4.21056
-3.94235
-4.14366
-4.24306
-4.05675
-4.05466
-4.17624
-4.20566
-4.06247
-4.22904
-4.3592
-4.32374
-4.12467
-4.37601
-4.50912
-4.43195
-4.19
-4.52107
-4.68639
-4.52936
-4.24919
-4.73521
-4.7585
-4.55817
-4.27241
-4.76846
-4.67375
-4.48624
-4.25804
-4.61975
-4.54684
-4.41271
-4.25722
-4.52748
-4.47768
-4.3912
-4.28898
-4.51933
-4.47967
-4.41756
-4.34351
-4.54682
-4.51334
-4.46631
-4.41079
-4.59607
-4.56813
-4.53132
-4.48823
-4.66099
-4.63726
-4.60762
-4.5736
-4.73739
-4.717
-4.69289
-4.66575
-4.82204
-4.80487
-4.78523
-4.76356
-4.91344
-4.89916
-4.88333
-4.86632
-5.01029
-4.99866
-4.9863
-4.97353
-5.1117
-5.10261
-5.09355
-5.08476
-5.21705
-5.21046
-5.20459
-5.19954
-5.32587
-5.32172
-5.3189
-5.31736
-5.43778
-5.43588
-5.43599
-5.43786
-5.55213
-5.55242
-5.55558
-5.56088
-5.66883
-5.67154
-5.6778
-5.68651
404.073
280.203
178.464
161.427
160.953
164.018
164.616
168.154
187.776
226.601
264.934
306.756
336.546
352.383
338.158
288.683
238.915
207.268
202.621
303.713
244.849
176.937
167.172
163.102
161.045
158.355
159.427
170.711
190.138
224.035
241.076
241.567
210.768
131.319
78.6555
89.5039
124.54
141.598
223.186
202.468
161.934
160.186
160.178
156.928
153.7
152.978
151.681
147.982
148.687
143.227
120.694
83.5483
27.374
18.758
19.4115
27.5041
82.8526
141.712
176.31
176.996
165.81
162.6
157.949
153.931
147.476
130.252
98.9264
78.1754
44.6181
11.1743
7.49132
7.22552
6.79584
6.73919
11.2064
29.888
95.5935
148.534
187.867
181.387
166.8
159.717
149.023
121.521
82.7859
37.3793
17.0221
8.77554
-0.624236
0.58311
1.88489
2.68417
3.13744
4.60714
10.6516
49.8625
91.7189
146.755
176.924
159.463
144.177
108.822
63.0865
39.8551
14.3958
2.34845
0.962711
0.72309
-0.305621
0.22227
1.38213
2.19254
1.84732
4.20741
25.2437
29.3575
74.5882
152.243
129.88
90.232
18.1392
6.17782
4.88444
4.42176
3.25984
2.3938
1.30362
-0.242157
-0.263839
0.735763
1.3178
1.24408
1.18203
10.5931
4.37588
13.1473
79.9499
111.495
34.7661
6.9617
4.9447
4.69537
3.98206
3.43209
2.71883
1.77168
0.741721
0.356155
0.73315
0.91915
0.966238
0.746424
-0.902241
-2.08679
-3.37424
12.2371
94.7169
6.95398
5.01029
4.82063
4.0364
2.97883
2.19626
1.75449
1.4089
0.967656
0.616468
0.599501
0.680074
0.717107
0.679636
-6.01726
-5.90837
-6.354
-4.86351
56.3684
1.41173
3.87782
3.90048
2.4166
1.43589
1.13685
1.01753
0.87239
0.650127
0.495128
0.473289
0.484966
0.509032
0.506355
-7.10169
-7.23382
-6.78881
-7.93021
-29.1152
-5.50346
0.376813
1.16355
0.571851
0.500739
0.569467
0.614691
0.562556
0.438938
0.340653
0.301795
0.292287
0.305933
0.307706
-6.82067
-6.9946
-6.6366
-10.7534
-37.995
-3.59726
-0.985699
-0.569829
-0.436899
-0.216838
-0.0379382
0.0941381
0.142584
0.12272
0.0974628
0.0845238
0.0799817
0.0946215
0.0912575
-6.78304
-6.68342
-6.28431
-6.16188
-11.0963
-2.87964
-1.23533
-1.12328
-0.950766
-0.697254
-0.449918
-0.293066
-0.20819
-0.179975
-0.159755
-0.152371
-0.151224
-0.137237
-0.147756
-7.66182
-7.26445
-7.52463
-7.72484
-5.58067
-1.97981
-1.02892
-1.07937
-1.0282
-0.882535
-0.712708
-0.590199
-0.511635
-0.467981
-0.417384
-0.39875
-0.394899
-0.384056
-0.400868
-6.49816
-6.50623
-5.70538
-4.83825
-2.968
-1.5039
-0.975486
-0.983349
-1.04201
-1.01437
-0.938595
-0.860231
-0.797486
-0.753112
-0.68874
-0.665567
-0.651333
-0.645135
-0.660107
-4.43642
-4.04799
-3.60979
-2.96764
-2.15537
-1.53579
-1.24997
-1.1667
-1.2419
-1.22524
-1.18433
-1.12925
-1.0763
-1.02477
-0.981618
-0.965054
-0.922478
-0.917681
-0.930212
-3.88209
-3.37684
-2.9124
-2.52737
-2.17502
-1.85009
-1.60692
-1.46422
-1.49252
-1.4778
-1.44454
-1.40077
-1.35475
-1.29664
-1.26442
-1.24833
-1.20214
-1.18874
-1.20557
-3.74124
-3.31323
-2.97831
-2.7084
-2.4751
-2.23366
-1.99303
-1.82316
-1.78494
-1.75324
-1.71445
-1.67372
-1.63332
-1.583
-1.54226
-1.52006
-1.48706
-1.45819
-1.47622
-3.73858
-3.42301
-3.15794
-2.92369
-2.71933
-2.52115
-2.34021
-2.19572
-2.09552
-2.03321
-1.98367
-1.94235
-1.90656
-1.87012
-1.82175
-1.80643
-1.78129
-1.72983
-1.73277
-3.75892
-3.52517
-3.30562
-3.11184
-2.93469
-2.76446
-2.61379
-2.48641
-2.3761
-2.2951
-2.2383
-2.19755
-2.16545
-2.14004
-2.10086
-2.09152
-2.07356
-2.00989
-1.97379
-3.81968
-3.61259
-3.4248
-3.25821
-3.10542
-2.96091
-2.82406
-2.70143
-2.59994
-2.52276
-2.4686
-2.43069
-2.40053
-2.38401
-2.35553
-2.3491
-2.3349
-2.28247
-2.20909
-3.88615
-3.70125
-3.53264
-3.38121
-3.24279
-3.1136
-2.9938
-2.88735
-2.79808
-2.72815
-2.67748
-2.64074
-2.60931
-2.5892
-2.56678
-2.56528
-2.56708
-2.51763
-2.43233
-3.9543
-3.78349
-3.63207
-3.49737
-3.37466
-3.26116
-3.15683
-3.06364
-2.98391
-2.91937
-2.87023
-2.83257
-2.79868
-2.77024
-2.74979
-2.74636
-2.76299
-2.69443
-2.62821
-4.01627
-3.85997
-3.72793
-3.61059
-3.5033
-3.40403
-3.31257
-3.23006
-3.15813
-3.09808
-3.05002
-3.01104
-2.97487
-2.94076
-2.91504
-2.89993
-2.90324
-2.8334
-2.77822
-4.06231
-3.92964
-3.81897
-3.71932
-3.62701
-3.54084
-3.46072
-3.38752
-3.32244
-3.26646
-3.21963
-3.17952
-3.14102
-3.10185
-3.06795
-3.03854
-3.01076
-2.95207
-2.90039
-4.09975
-3.99843
-3.90925
-3.82621
-3.74776
-3.67346
-3.60349
-3.53859
-3.47965
-3.42737
-3.38193
-3.34122
-3.30075
-3.25775
-3.21651
-3.17855
-3.13138
-3.068
-3.01399
-4.14774
-4.07282
-4.00158
-3.93271
-3.86642
-3.80276
-3.74197
-3.68468
-3.63158
-3.58318
-3.53963
-3.49927
-3.45786
-3.41291
-3.36693
-3.32523
-3.27677
-3.19594
-3.13937
-4.21082
-4.15331
-4.09589
-4.03898
-3.98337
-3.92932
-3.87707
-3.82712
-3.78005
-3.73628
-3.69578
-3.65708
-3.6162
-3.57087
-3.52206
-3.47638
-3.43174
-3.34645
-3.28799
-4.28381
-4.23834
-4.19209
-4.14548
-4.09931
-4.05396
-4.00975
-3.96714
-3.92668
-3.88876
-3.85316
-3.81824
-3.77986
-3.73508
-3.68393
-3.63115
-3.58152
-3.5075
-3.45075
-4.36419
-4.3279
-4.29065
-4.2527
-4.21471
-4.17718
-4.14056
-4.10542
-4.07232
-4.04183
-4.0138
-3.9861
-3.9537
-3.91164
-3.85834
-3.7973
-3.73278
-3.66223
-3.61894
-4.45121
-4.42201
-4.3919
-4.36106
-4.33007
-4.29952
-4.27005
-4.2424
-4.21735
-4.19605
-4.17897
-4.16343
-4.14355
-4.10866
-4.05448
-3.98652
-3.91144
-3.84429
-3.80823
-4.54398
-4.52037
-4.49598
-4.47103
-4.44603
-4.42167
-4.39887
-4.37857
-4.36207
-4.35182
-4.34984
-4.35296
-4.35209
-4.3276
-4.27251
-4.19855
-4.11617
-4.05876
-4.02378
-4.64194
-4.62283
-4.60318
-4.58321
-4.56334
-4.54443
-4.52762
-4.51405
-4.50592
-4.50785
-4.52404
-4.55144
-4.573
-4.55768
-4.49507
-4.40922
-4.32894
-4.27629
-4.24748
-4.74456
-4.72933
-4.71381
-4.69813
-4.68268
-4.66835
-4.65631
-4.64791
-4.64621
-4.65816
-4.68984
-4.73893
-4.78107
-4.77401
-4.7078
-4.60769
-4.53088
-4.48991
-4.46401
-4.8516
-4.83988
-4.82803
-4.81609
-4.80433
-4.79353
-4.78468
-4.77908
-4.78001
-4.7951
-4.83113
-4.88747
-4.93899
-4.938
-4.86188
-4.77609
-4.71974
-4.68571
-4.66281
-4.96277
-4.95428
-4.9457
-4.93698
-4.92826
-4.92012
-4.91322
-4.90854
-4.90858
-4.91941
-4.94832
-4.99478
-5.03457
-5.03118
-4.97884
-4.91525
-4.88245
-4.85703
-4.83966
-5.07766
-5.07209
-5.0664
-5.0605
-5.05444
-5.04859
-5.04335
-5.03926
-5.0377
-5.04106
-5.0565
-5.08223
-5.10292
-5.09803
-5.07129
-5.04415
-5.01911
-4.99988
-4.99063
-5.19578
-5.19285
-5.1898
-5.18652
-5.18302
-5.1795
-5.17616
-5.17315
-5.17077
-5.17037
-5.17445
-5.18253
-5.18814
-5.18471
-5.17345
-5.16058
-5.14844
-5.13903
-5.13419
-5.31671
-5.31628
-5.31577
-5.31507
-5.31411
-5.31294
-5.31161
-5.31005
-5.30822
-5.30657
-5.30569
-5.30534
-5.30395
-5.30037
-5.29524
-5.28936
-5.28306
-5.27771
-5.27445
-5.44024
-5.44226
-5.44425
-5.44605
-5.44752
-5.44857
-5.44907
-5.44883
-5.44771
-5.4458
-5.44322
-5.44001
-5.43634
-5.43231
-5.42793
-5.42335
-5.41904
-5.41566
-5.41287
-5.56628
-5.57071
-5.57516
-5.57943
-5.58331
-5.58657
-5.5889
-5.58997
-5.5895
-5.58733
-5.58356
-5.57858
-5.57314
-5.56791
-5.56311
-5.55889
-5.55543
-5.55293
-5.55044
-5.69497
-5.70189
-5.70896
-5.71594
-5.72255
-5.72842
-5.73307
-5.73592
-5.73644
-5.73415
-5.72902
-5.72161
-5.71333
-5.70577
-5.69964
-5.69498
-5.69162
-5.68952
-5.68726
)
;

boundaryField
{
    leftWall
    {
        type            calculated;
        value           nonuniform List<scalar> 
50
(
1057.73
1002.51
946.76
890.547
834.067
778.63
725.747
676.991
606.317
544.845
404.821
475.225
615.048
411.149
77.1395
8.38155
5.04378
1.2821
-1.62895
-1.97315
-2.36987
-2.36654
-2.47406
-2.89159
-3.66223
-4.49278
-5.0482
-5.14371
-4.96115
-4.64546
-4.36818
-4.2148
-4.15886
-4.15828
-4.19108
-4.24751
-4.32008
-4.40391
-4.4957
-4.59305
-4.69432
-4.79839
-4.9045
-5.01213
-5.12089
-5.23047
-5.34066
-5.45133
-5.56217
-5.67393
)
;
    }
    rightWall
    {
        type            calculated;
        value           nonuniform List<scalar> 
50
(
847.779
767.991
686.703
609.072
527.397
433.146
338.687
272.059
202.621
141.598
82.8526
29.888
10.6516
4.20741
1.18203
0.746424
0.679636
0.506355
0.307706
0.0912575
-0.147756
-0.400868
-0.660107
-0.930212
-1.20557
-1.47622
-1.73277
-1.97379
-2.20909
-2.43233
-2.62821
-2.77822
-2.90039
-3.01399
-3.13937
-3.28799
-3.45075
-3.61894
-3.80823
-4.02378
-4.24748
-4.46401
-4.66281
-4.83966
-4.99063
-5.13419
-5.27445
-5.41287
-5.55044
-5.68726
)
;
    }
    lowerWall
    {
        type            calculated;
        value           nonuniform List<scalar> 
62
(
1087.16
1075.22
1057.57
1036.51
1015.43
995.779
978.977
966.749
960.256
959.36
962.908
968.459
971.309
968.086
962.353
956.285
951.11
949.498
949.344
944.349
936.257
926.296
919.181
889.757
829.444
766.887
701.936
635.606
570.07
503.607
435.461
313.539
360.913
457.391
513.301
635.525
598.801
567.823
539.158
516.732
493.906
484.624
481.716
652.399
618.174
574.06
505.441
456.58
457.061
501.727
559.118
605.981
637.709
649.668
651.753
604.015
585.372
498.53
429.732
548.646
792.362
871.248
)
;
    }
    atmosphere
    {
        type            calculated;
        value           nonuniform List<scalar> 
46
(
-5.72904
-5.72904
-5.72904
-5.72904
-5.72904
-5.72904
-5.72904
-5.72904
-5.72904
-5.72904
-5.72904
-5.72904
-5.72904
-5.72904
-5.72904
-5.72904
-5.72904
-5.72904
-5.72904
-5.72904
-5.72904
-5.72904
-5.72904
-5.7293
-5.73282
-5.74025
-5.75058
-5.76065
-5.76894
-5.77748
-5.78606
-5.79437
-5.80197
-5.80824
-5.81244
-5.81383
-5.81166
-5.80556
-5.79598
-5.78497
-5.77527
-5.76798
-5.76283
-5.75944
-5.75765
-5.75515
)
;
    }
    defaultFaces
    {
        type            empty;
    }
}


// ************************************************************************* //
