/*--------------------------------*- C++ -*----------------------------------*\
| =========                 |                                                 |
| \\      /  F ield         | OpenFOAM: The Open Source CFD Toolbox           |
|  \\    /   O peration     | Version:  2206                                  |
|   \\  /    A nd           | Website:  www.openfoam.com                      |
|    \\/     M anipulation  |                                                 |
\*---------------------------------------------------------------------------*/
FoamFile
{
    version     2.0;
    format      ascii;
    arch        "LSB;label=32;scalar=64";
    class       volScalarField;
    location    "0.9";
    object      p_rgh;
}
// * * * * * * * * * * * * * * * * * * * * * * * * * * * * * * * * * * * * * //

dimensions      [1 -1 -2 0 0 0 0];

internalField   nonuniform List<scalar> 
2268
(
1087.16
1075.22
1057.57
1036.51
1015.43
995.779
978.977
966.749
960.256
959.36
962.908
968.459
971.309
968.086
962.353
956.285
951.11
949.498
949.344
944.349
936.257
926.296
919.181
1090.8
1077.57
1057.56
1034.88
1013.55
994.721
978.03
965.671
959.145
958.351
962.221
968.535
971.673
968.331
962.144
952.27
945.486
945.734
946.136
941.318
933.574
924.03
917.716
1093.91
1079.23
1056.6
1032.46
1011.89
993.107
975.99
963.103
956.425
956.091
961.006
968.79
975.382
972.641
963.496
951.861
944.814
947.046
947.375
941.705
932.008
919.825
914.009
1096.55
1080.11
1055.06
1029.28
1008.77
990.687
973.091
959.3
952.309
952.619
959.188
969.268
978.602
981.652
973.709
961.824
953.984
949.771
945.966
938.547
927.777
913.785
907.919
1098.93
1080.75
1053.45
1025.76
1005.4
987.915
969.41
954.165
946.647
947.749
956.555
970.019
982.618
987.542
980.373
966.415
955.018
949.248
944.121
935.587
923.573
906.375
900.468
1102.35
1082.01
1052.51
1022.82
1002.51
985.264
964.937
947.482
939.146
941.152
952.816
970.838
987.813
994.249
984.87
967.593
954.671
948.571
942.889
933.102
919.453
899.347
893.791
1108.33
1084.85
1053.25
1021.79
1001.43
982.666
959.327
938.824
929.386
932.411
947.636
971.702
994.595
1002.83
989.467
967.217
953.167
948.034
942.553
931.303
915.845
896.108
886.181
1118.43
1090
1056.27
1023.13
999.153
978.986
951.545
927.475
916.696
920.78
940.328
972.674
1003.68
1013.76
994.637
964.851
950.042
947.801
943.646
931.264
913.289
895.088
876.89
652.399
618.174
574.06
505.441
456.58
457.061
501.727
559.118
605.981
637.709
649.668
651.753
604.015
585.372
498.53
429.732
548.646
792.362
871.248
649.827
618.319
578.209
493.475
436.342
445.936
496.423
551.847
594.329
627.299
640.93
654.78
605.259
555.55
406.734
335.568
449.942
713.162
838.591
653.439
631.355
566.532
460.334
404.408
417.276
507.508
558.066
569.41
584.27
638.408
686.301
634.379
485.223
348.545
295.099
374.443
628.237
804.513
659.02
630.266
552.905
432.855
340.226
351.252
478.915
562.749
564.461
568.957
641.094
660.89
573.385
460.438
332.527
286.285
364.606
620.2
776.268
670.84
612.077
504.093
347.201
234.289
258.219
408.986
549.427
588.506
612.406
666.853
684.961
563.795
459.102
348.587
304.179
414.392
628.782
743.209
682.256
600.747
445.348
197.724
172.231
183.386
335.702
545.114
573.093
622.315
662.568
704.057
672.761
465.67
381.896
349.165
553.411
621.689
697.319
707.174
594.627
310.133
170.181
170.684
176.125
335.634
548.548
570.16
617.695
660.028
706.383
729.335
569.062
491.345
582.515
606.834
610.424
631.387
737.987
511.313
211.929
170.06
170.628
177.234
315.847
430.254
500.766
573.346
651.342
721.643
758.645
749.368
711.025
676.556
651.699
565.877
609.818
1139.78
1103.06
1066.14
1035.6
1009.44
975.327
936.723
905.368
892.484
898.694
926.396
976.3
1025.95
1041.3
999.712
952.697
940.115
948.363
949.157
930.206
899.385
872.86
843.855
1203.51
1140.69
1085.04
1038.94
1004.18
964.105
906.163
851.832
807.117
799.996
844.246
947.829
1035.05
982.976
856.227
727.218
728.119
801.306
839.362
851.227
853.287
798.442
756.618
1177.72
1134.37
1093.95
1029.31
969.889
882.931
564.723
290.769
258.106
351.716
433.209
461.937
527.516
795.735
769.471
536.475
540.182
566.048
629.635
889.258
838
738.889
683.95
1373.58
1232.8
1111.26
744.704
323.852
177.913
114.45
97.7499
84.3938
53.8478
32.2425
87.2233
423.465
665.914
791.98
696.957
537.05
824.042
1009.67
972.45
925.21
804.202
683.432
1636.82
1157.75
374.211
74.9374
42.0844
83.6267
100.206
104.132
94.9331
36.6654
22.6034
12.617
21.0774
214.715
835.304
923.177
953.328
949.828
939.842
440.551
115.456
96.7612
108.68
1427.59
302.132
16.0395
4.51554
2.24616
5.26381
24.8015
52.9572
88.1108
64.5765
18.5024
4.5453
5.29539
17.4477
436.954
1014.71
966.003
291.542
122.35
118.119
126.969
80.3444
80.0249
1039.55
14.2745
3.67183
1.60628
0.733926
0.255684
0.0345405
2.40939
13.3874
21.3659
11.4164
0.325077
0.310974
2.33597
110.026
469.786
521.087
132.22
125.698
120.175
113.744
106.904
116.563
951.076
1.64026
1.18883
0.766926
0.348512
-0.0321267
-0.281379
-0.504956
-0.776317
-0.941507
-0.600572
-0.79746
-0.89006
-0.580023
1.29075
93.2751
320.939
408.568
123.465
134.413
198.391
271.96
313.053
710.402
0.369146
0.828923
0.346319
0.00849282
-0.317363
-0.571943
-0.77407
-0.921795
-1.01864
-1.11484
-1.214
-1.31299
-1.35198
-1.27638
-0.343483
170.241
536.647
543.277
542.782
545.276
548.567
379.434
129.653
0.034404
0.525098
-0.05575
-0.372773
-0.671759
-0.895664
-1.06267
-1.17685
-1.25279
-1.33794
-1.44935
-1.54689
-1.59948
-1.64366
-1.7486
-2.13001
38.6358
392.565
530.968
418.728
203.248
65.6877
0.162634
-0.444829
-0.119288
-0.587662
-0.872477
-1.13918
-1.30532
-1.40018
-1.44744
-1.47772
-1.52821
-1.61102
-1.69802
-1.75749
-1.78351
-1.79238
-1.7719
-1.5819
-0.846007
1.39252
5.59849
26.5641
60.533
-0.0678191
-0.698594
-0.791603
-1.28929
-1.60333
-1.82183
-1.86817
-1.82695
-1.75488
-1.69198
-1.6755
-1.71017
-1.77775
-1.84834
-1.89405
-1.9112
-1.91203
-1.80599
-1.13363
0.700102
10.0109
44.4729
47.2667
-0.330642
-1.24783
-1.55082
-2.25852
-2.68694
-2.85611
-2.69075
-2.40579
-2.13325
-1.91804
-1.80575
-1.7688
-1.79162
-1.84997
-1.90598
-1.94398
-1.988
-1.94589
0.801571
22.7455
36.8244
5.98207
1.44739
-0.143516
-1.78128
-2.50636
-3.58606
-4.26698
-4.41696
-3.91679
-3.2824
-2.65207
-2.20899
-1.93535
-1.80655
-1.7696
-1.78997
-1.83668
-1.88612
-1.94336
-1.96091
3.57213
44.9257
46.8678
18.3243
-0.622714
0.379936
-1.25549
-3.51064
-5.11616
-6.24039
-6.48942
-5.54232
-4.41994
-3.22897
-2.44045
-2.01366
-1.8103
-1.72535
-1.7065
-1.72473
-1.75835
-1.79678
-1.84719
0.498677
42.8241
49.3039
49.7771
9.05941
-0.342825
-0.756476
-3.77926
-6.20687
-7.72866
-8.0322
-6.12634
-4.80364
-3.56286
-2.52292
-1.98498
-1.75867
-1.64931
-1.60365
-1.60006
-1.61493
-1.63429
-1.65387
-1.70139
10.0603
51.7868
51.904
44.5841
-1.10404
-0.889681
-2.8389
-5.84917
-7.66503
-7.49421
-6.05198
-4.03592
-3.21655
-2.35004
-1.83921
-1.61519
-1.5109
-1.47238
-1.46355
-1.46768
-1.47167
-1.46817
-1.46775
2.35991
52.9074
53.9722
28.8472
-1.8305
-1.57378
-2.08231
-3.34102
-4.77171
-4.72211
-4.0794
-2.73477
-2.27117
-1.9196
-1.55927
-1.41015
-1.34425
-1.32231
-1.3188
-1.32147
-1.32005
-1.30677
-1.29017
-1.26506
14.0046
50.5741
-1.03852
-2.26077
-2.48305
-1.61165
-1.68828
-1.69597
-1.7386
-1.5317
-0.963554
-1.45962
-1.39413
-1.23513
-1.1794
-1.16523
-1.16729
-1.17558
-1.18323
-1.18354
-1.16816
-1.1376
-1.0333
12.4422
18.9079
-0.940334
-2.23115
-2.52078
-1.7359
-0.752797
-0.0643431
0.249644
0.298991
-0.0563015
-0.933606
-0.949325
-0.945275
-0.966959
-0.995564
-1.0219
-1.04443
-1.06115
-1.06947
-1.06474
-1.03638
-0.705519
7.41151
8.47726
-0.894373
-1.92364
-2.15052
-1.96048
-0.217016
0.68956
1.1405
0.977392
-0.199311
-0.534892
-0.64409
-0.724389
-0.79375
-0.850663
-0.895749
-0.93157
-0.959318
-0.980001
-0.994389
-1.00304
-1.03538
5.98557
11.9086
-0.796135
-1.48287
-1.57558
-1.47858
-0.718306
0.612405
0.847098
0.211307
-0.154449
-0.328894
-0.465766
-0.574976
-0.663638
-0.734571
-0.791276
-0.837395
-0.875836
-0.910018
-0.945137
-0.987197
-1.07034
4.77114
12.4588
1.35041
-1.08043
-1.07657
-0.956334
-0.648912
-0.211668
-0.00493716
-0.0124324
-0.117445
-0.248636
-0.37198
-0.47907
-0.569018
-0.64354
-0.705414
-0.757889
-0.804506
-0.849935
-0.901457
-0.973164
-1.09309
-0.222066
8.9697
11.6553
-0.801857
-0.767062
-0.65417
-0.447589
-0.215432
-0.0857069
-0.0717997
-0.132365
-0.225248
-0.324295
-0.417062
-0.499454
-0.570971
-0.632873
-0.687488
-0.738093
-0.789511
-0.848386
-0.930525
-1.05405
-1.24708
6.88963
12.0067
-0.620723
-0.587744
-0.49991
-0.363454
-0.223889
-0.139939
-0.123272
-0.158557
-0.222987
-0.298483
-0.374483
-0.44585
-0.510617
-0.56879
-0.621657
-0.671613
-0.722541
-0.779258
-0.853012
-0.957626
-1.13128
-1.27622
4.36527
-0.494948
-0.47166
-0.406647
-0.317075
-0.229526
-0.173851
-0.159393
-0.1804
-0.224848
-0.281411
-0.341992
-0.401678
-0.457956
-0.510003
-0.558194
-0.603867
-0.649419
-0.697863
-0.754833
-0.826159
-0.9324
-1.07009
-1.144
-0.402554
-0.384899
-0.342008
-0.283261
-0.227616
-0.191029
-0.179999
-0.193097
-0.224301
-0.266614
-0.314189
-0.362926
-0.410309
-0.455082
-0.49694
-0.536326
-0.574242
-0.612097
-0.651638
-0.693359
-0.739899
-0.797527
-0.836751
-0.333788
-0.320269
-0.29205
-0.254567
-0.219385
-0.195631
-0.188067
-0.197019
-0.219514
-0.251298
-0.288338
-0.327441
-0.366356
-0.403686
-0.438713
-0.471263
-0.501427
-0.529566
-0.555756
-0.579494
-0.598648
-0.614751
-0.622962
-0.281166
-0.270779
-0.252452
-0.22896
-0.206878
-0.1918
-0.187208
-0.19394
-0.210583
-0.234601
-0.263277
-0.294222
-0.32555
-0.355907
-0.384394
-0.410506
-0.4339
-0.454466
-0.471869
-0.485877
-0.495166
-0.49906
-0.49576
-0.239805
-0.231859
-0.220128
-0.20558
-0.191918
-0.18266
-0.180305
-0.18573
-0.198316
-0.216563
-0.238666
-0.262875
-0.287674
-0.31185
-0.33449
-0.354952
-0.37274
-0.387548
-0.398968
-0.406758
-0.410226
-0.408477
-0.400422
-0.206396
-0.200278
-0.192876
-0.184014
-0.175731
-0.170292
-0.169463
-0.173999
-0.183667
-0.197578
-0.214535
-0.233273
-0.252601
-0.271487
-0.289089
-0.304747
-0.317928
-0.328239
-0.335271
-0.338722
-0.338197
-0.333224
-0.323332
-0.17855
-0.173798
-0.169215
-0.163941
-0.15906
-0.156061
-0.156181
-0.160015
-0.167502
-0.178111
-0.191042
-0.205379
-0.220204
-0.234669
-0.248038
-0.259698
-0.269139
-0.275968
-0.279837
-0.280503
-0.277777
-0.271498
-0.261308
-0.154623
-0.150906
-0.148139
-0.145109
-0.14235
-0.140858
-0.141498
-0.144716
-0.150519
-0.158577
-0.168348
-0.17917
-0.190342
-0.201182
-0.211074
-0.219485
-0.22597
-0.230185
-0.231865
-0.230865
-0.227143
-0.220832
-0.212386
-0.1335
-0.13058
-0.128969
-0.127318
-0.125853
-0.125248
-0.126111
-0.128761
-0.133224
-0.139287
-0.146575
-0.154607
-0.162852
-0.170775
-0.177876
-0.183711
-0.187913
-0.1902
-0.190379
-0.188356
-0.184138
-0.177837
-0.169598
-0.114423
-0.11212
-0.111229
-0.110406
-0.1097
-0.109576
-0.110464
-0.112585
-0.115962
-0.120451
-0.125788
-0.131623
-0.137556
-0.143173
-0.148078
-0.151914
-0.154388
-0.155277
-0.154438
-0.151818
-0.147446
-0.141445
-0.133971
-0.0968582
-0.095029
-0.0945704
-0.0942263
-0.0939361
-0.0940356
-0.0948288
-0.0964631
-0.0989521
-0.102196
-0.106008
-0.11013
-0.114262
-0.118089
-0.121304
-0.123626
-0.124827
-0.124736
-0.123251
-0.120347
-0.116077
-0.110569
-0.103987
-0.0804158
-0.0789372
-0.0787291
-0.078646
-0.0785591
-0.0787264
-0.0793615
-0.080558
-0.0823242
-0.084589
-0.087217
-0.0900201
-0.0927746
-0.0952427
-0.0971908
-0.0984059
-0.0987112
-0.0979793
-0.0961397
-0.0931886
-0.0891895
-0.0842784
-0.0786376
-0.0648063
-0.0635778
-0.0635113
-0.0635578
-0.0635471
-0.0636967
-0.0641516
-0.0649691
-0.0661553
-0.0676585
-0.0693814
-0.0711869
-0.0729103
-0.0743765
-0.0754123
-0.0758585
-0.0755821
-0.0744893
-0.0725327
-0.0697221
-0.0661285
-0.0618954
-0.0572234
-0.0497967
-0.0487389
-0.048762
-0.0488628
-0.0488585
-0.0489517
-0.0492326
-0.0497371
-0.0504701
-0.0513932
-0.0524387
-0.0535091
-0.0544871
-0.0552479
-0.0556674
-0.0556301
-0.0550391
-0.0538267
-0.0519628
-0.0494663
-0.0464125
-0.0429455
-0.0392573
-0.0352783
-0.0343535
-0.0344325
-0.0345388
-0.0345121
-0.034545
-0.0346788
-0.0349401
-0.0353318
-0.0358266
-0.0363809
-0.0369298
-0.037395
-0.0376934
-0.0377413
-0.0374603
-0.036784
-0.0356672
-0.034093
-0.0320842
-0.0297144
-0.0271298
-0.0245737
-0.0209239
-0.0201264
-0.0202878
-0.0203838
-0.020331
-0.0203181
-0.0203477
-0.0204419
-0.0205995
-0.020804
-0.0210324
-0.0212474
-0.0214044
-0.0214556
-0.0213523
-0.0210485
-0.0205051
-0.0196947
-0.0186082
-0.017262
-0.0157092
-0.01406
-0.0124977
-0.007484
-0.00701337
-0.00703475
-0.00704209
-0.00699932
-0.00697119
-0.00692804
-0.00690009
-0.00688193
-0.00686811
-0.00685258
-0.00682307
-0.00676586
-0.00666577
-0.00650744
-0.00627611
-0.00595945
-0.00554942
-0.00504394
-0.004449
-0.00378314
-0.00309115
-0.00246448
784.394
831.768
928.246
929.095
735.166
815.837
897.242
528.403
700.728
797.844
547.098
347.043
496.379
336.827
201.774
283.849
111.093
93.1005
178.564
563.631
90.9073
95.3602
146.376
200.389
145.775
82.7196
85.5357
45.8029
132.107
53.2059
45.2121
31.0784
69.2566
68.3802
78.2325
56.9425
77.9251
79.1975
71.9612
8.6306
75.6254
76.022
35.7981
-4.41755
33.4004
24.1565
-3.3491
-4.44236
0.651665
-1.90843
-3.25431
-4.1558
-0.927436
-1.5884
-2.93117
-4.33105
-0.744157
-1.26326
-2.32893
-1.83946
-0.757849
-1.25478
-2.00413
-2.25884
0.0792713
-1.67187
-2.09822
-1.92628
-0.880611
-1.69392
-2.03309
-1.68191
-1.04334
-1.48416
-1.68313
-1.3607
-1.01379
-1.2152
-1.30753
-1.12755
-1.00031
-1.122
-1.15223
-1.00958
-1.04868
-1.17979
-1.14452
-0.947001
-1.06973
-1.20249
-1.04046
-0.89534
0.529784
0.141428
-0.981178
-0.835966
5.46965
2.29157
-1.01574
-0.733629
-1.04235
-1.01012
-0.822874
-0.593573
-0.830932
-0.758092
-0.62419
-0.468698
-0.613764
-0.56396
-0.477485
-0.375264
-0.48041
-0.440758
-0.378648
-0.304597
-0.382712
-0.349236
-0.302203
-0.246678
-0.306767
-0.278828
-0.242015
-0.198931
-0.246489
-0.222758
-0.193122
-0.1591
-0.1977
-0.17731
-0.153198
-0.126053
-0.157158
-0.139987
-0.120346
-0.0986715
-0.123361
-0.109076
-0.0932447
-0.0762346
-0.0950169
-0.0833884
-0.071023
-0.0582501
-0.0712335
-0.0621431
-0.0530807
-0.0442898
-0.0513854
-0.0447911
-0.0389225
-0.0338721
-0.0350124
-0.0308632
-0.028043
-0.0265006
-0.0217283
-0.0198301
-0.0199336
-0.0218024
-0.0108858
-0.0111685
-0.0143275
-0.0196355
-0.00238654
-0.00509991
-0.0113605
-0.0200651
579.675
373.06
223.555
174.431
173.871
178.567
189.058
199.462
230.108
279.47
394.783
588.502
683.244
722.299
690.632
644.637
590.482
550.786
536.67
412.749
353.234
348.136
199.523
179.032
176.994
174.696
177.272
198.276
442.045
667.941
684.732
684.593
653.486
561.377
365.84
281.283
440.344
554.737
352.374
397.826
374.071
273.215
179.159
175.851
172.814
173.483
322.909
670.874
676.969
671.816
648.678
538.93
101.58
20.5336
21.7453
96.6844
261.046
506.463
597.428
429.552
263.95
187.856
180.115
176.474
238.395
649.967
710.058
691.125
656.93
318.881
27.9473
9.28672
8.36234
8.20989
12.791
31.8405
579.02
632.695
483.405
217.837
198.856
185.365
332.546
785.878
773.73
731.743
668.53
285.993
5.02388
3.06137
3.66716
4.35742
4.74406
6.28039
21.8375
452.394
636.288
699.558
342.319
200.325
446.05
822.521
799.308
692.834
216.702
39.8567
15.3681
3.83095
2.3423
2.62432
4.09082
3.9365
4.24611
20.3017
40.0368
353.55
694.387
773.811
195.07
448.701
696.368
91.2799
7.54736
7.10399
6.13433
5.83696
4.8148
2.90671
3.16137
4.07514
3.22291
2.53259
9.44913
27.0601
40.1212
259.824
846.204
205.635
317.35
273.024
7.86713
7.60989
6.90911
7.02006
6.40207
5.14336
4.78885
4.40329
3.99423
2.37614
2.37914
2.15983
18.1387
1.74955
7.70507
846.535
650.018
145.859
8.20768
8.00257
7.37845
8.22902
7.46164
6.07707
4.78314
5.06527
3.54311
2.13672
2.21739
2.25477
2.21801
14.9134
-2.95599
-3.62107
549.796
684.872
269.408
8.08413
8.95705
7.71776
6.76967
3.29821
2.75834
2.60887
2.31242
2.15764
2.13582
2.14756
2.17173
2.17003
-5.12945
-4.56239
-3.98648
213.398
424.377
219.019
3.75207
5.62746
4.6392
2.28848
2.35595
2.40157
2.34952
2.22615
2.1283
2.08968
2.08037
2.10264
2.09893
-4.75128
-4.86146
-0.912243
83.3715
350.856
39.98
1.11074
1.43301
1.52115
1.69492
1.87373
2.01176
2.06239
2.04049
2.01071
1.99794
1.99361
2.12082
2.06392
-3.49186
-4.34738
3.25319
101.481
134.054
-0.643868
0.839963
0.923246
1.08638
1.34036
1.58698
1.75572
1.84114
1.8695
1.87994
1.88737
1.89182
2.04136
2.03046
0.0498251
13.8218
23.0755
21.3548
-1.86174
0.228386
1.13918
1.08286
1.13398
1.27962
1.44939
1.5803
1.65781
1.69821
1.81453
1.80755
1.84122
1.92851
1.80485
2.89411
3.20068
0.704618
-1.87905
-0.405751
0.790399
1.31286
1.30411
1.2454
1.27298
1.34866
1.42697
1.48972
1.5341
2.35921
2.23126
1.78344
1.80138
1.64671
-1.98709
-1.26843
-0.853862
-0.173259
0.350302
0.916286
1.17878
1.24668
1.17081
1.18746
1.22828
1.2832
1.33616
1.40742
2.34549
2.26541
1.54854
1.66253
1.50293
-1.32468
-0.799916
-0.0316035
0.918418
1.31002
1.78304
1.97953
1.27007
1.07295
1.06019
1.09525
1.14126
1.18291
1.65239
2.23753
1.36375
1.37681
1.46342
1.3539
-1.05892
-0.583298
0.835501
1.5668
1.79981
2.04174
2.28188
2.24325
1.00121
0.910427
0.956373
0.997181
1.02953
2.07767
2.12325
1.18386
1.20974
1.22972
1.20975
-0.885798
-0.467257
0.662195
1.55223
1.75716
1.95483
2.13258
1.74784
0.83238
0.757107
0.814303
0.850499
0.881504
1.9593
2.0137
1.02713
1.04981
1.14027
1.08289
-0.726017
-0.335693
0.282279
0.539065
1.09005
1.138
0.673217
0.425755
0.536064
0.621495
0.685451
0.719776
0.747846
1.83983
1.90243
0.878559
0.912162
2.57579
1.02875
-0.690099
-0.358639
-0.387446
-0.220852
-0.0680596
0.0764477
0.213294
0.335926
0.437417
0.519259
0.580924
0.615459
0.638022
1.26183
1.15451
0.744098
1.36167
3.32493
1.11389
-0.723591
-0.538702
-0.370088
-0.218654
-0.0802337
0.048956
0.168754
0.275202
0.364477
0.442785
0.497772
0.532443
0.554344
0.590834
0.631491
0.612984
2.80996
3.3209
1.35226
-0.666543
-0.49574
-0.344324
-0.209624
-0.0869171
0.0265884
0.130914
0.22411
0.303836
0.380568
0.430714
0.465601
0.489515
0.517969
0.605113
0.552705
3.27199
3.37523
1.65177
-0.603305
-0.447025
-0.31499
-0.19765
-0.0903601
0.00891034
0.100369
0.182877
0.254815
0.327086
0.376627
0.408335
0.438143
0.472894
0.579571
0.519169
2.22359
3.46526
1.7996
-0.523912
-0.391492
-0.280837
-0.18118
-0.0888752
-0.00270466
0.0774183
0.150614
0.215696
0.274263
0.327188
0.360133
0.397134
0.436359
0.541812
0.502352
1.66597
3.55779
1.7255
-0.435113
-0.334924
-0.245924
-0.162882
-0.0844282
-0.0101322
0.0598486
0.124752
0.183687
0.235962
0.281406
0.322108
0.362579
0.428319
0.450348
0.487014
2.50747
3.63293
1.54028
-0.359219
-0.284298
-0.213053
-0.144187
-0.0778962
-0.0142317
0.0465616
0.103857
0.156961
0.205345
0.248893
0.289255
0.330993
0.400718
0.428866
0.46548
3.37923
3.70704
1.44977
-0.297103
-0.23959
-0.182166
-0.125258
-0.0696548
-0.0156015
0.0366517
0.0866081
0.133677
0.177439
0.217936
0.256638
0.297526
0.358239
0.394773
0.439622
2.61969
3.77206
1.37196
-0.244892
-0.199427
-0.153175
-0.106565
-0.0603931
-0.0150459
0.0291659
0.071771
0.112233
0.150156
0.18575
0.220673
0.25913
0.306318
0.357338
0.410091
1.23094
2.70764
1.32984
-0.200077
-0.163788
-0.126542
-0.0885867
-0.0505981
-0.0130713
0.0235441
0.0586923
0.0917873
0.122276
0.150313
0.17802
0.250843
0.333126
0.329018
0.369236
0.8538
1.65352
1.31013
-0.161906
-0.132702
-0.102592
-0.0717561
-0.0407691
-0.0102136
0.0192486
0.0469021
0.0719489
0.0932583
0.110334
0.134512
0.339849
0.375993
0.324927
0.306206
1.25552
2.79339
1.40519
-0.129484
-0.105874
-0.0814854
-0.0565348
-0.0315306
-0.0071691
0.015623
0.0359827
0.0524726
0.0626831
0.0646614
0.223421
0.264736
0.288102
0.248283
0.223087
1.79933
2.77872
1.19288
-0.102244
-0.0831396
-0.0634903
-0.0435136
-0.0236519
-0.00474206
0.0120879
0.0259303
0.033955
0.0318426
0.0279422
0.196318
0.174858
0.190078
0.0930143
0.141605
2.52402
2.75466
0.713255
-0.0796785
-0.0644455
-0.0489192
-0.0332464
-0.0177934
-0.0034626
0.00875779
0.0172799
0.0188991
0.00673009
-0.0249475
0.137709
0.0977259
0.00944811
-0.00483056
1.15443
2.61503
2.24984
0.248934
-0.0615203
-0.0497967
-0.0379497
-0.026012
-0.0142474
-0.00345247
0.00561873
0.0113136
0.0101438
-0.00501072
-0.0410367
0.100912
0.0707357
-0.0647387
-0.0326675
0.971423
2.61795
0.793458
0.127271
-0.0474951
-0.0390022
-0.0304243
-0.0217
-0.0129816
-0.0048387
0.00207939
0.00679838
0.00669729
-0.00413547
-0.0288077
-0.0204931
0.0821912
-0.0900656
0.200443
0.924577
0.072591
0.0582455
0.0756121
-0.0371936
-0.0316231
-0.0259336
-0.0200273
-0.0139689
-0.00811117
-0.00287644
0.00121183
0.00277201
-0.000574785
-0.0154282
-0.0417537
-0.0524593
-0.0479726
-0.0308203
-0.00367757
0.021357
0.0405856
0.0498429
-0.0301124
-0.0271851
-0.0241351
-0.0208574
-0.0173585
-0.0138364
-0.0104994
-0.00748561
-0.00510338
-0.00470394
-0.00878343
-0.0168637
-0.0224781
-0.0190428
-0.00778936
0.00508404
0.0172207
0.0266299
0.0314706
-0.0258516
-0.0254208
-0.0249157
-0.0242103
-0.0232491
-0.0220851
-0.0207517
-0.0191887
-0.0173612
-0.0157148
-0.0148265
-0.0144562
-0.0129309
-0.00934871
-0.00438524
0.00150266
0.00780361
0.0131492
0.0164094
-0.0241898
-0.0262052
-0.0281945
-0.0299935
-0.031467
-0.0325192
-0.03302
-0.0327774
-0.0316612
-0.0297472
-0.0271678
-0.0239259
-0.0200024
-0.0159695
-0.0118735
-0.00729835
-0.00299014
0.000396387
0.00318796
-0.0250326
-0.0294594
-0.0339095
-0.0381825
-0.0420644
-0.0453188
-0.0476522
-0.0487214
-0.0482497
-0.046083
-0.0423147
-0.0373239
-0.0318784
-0.0265326
-0.0218666
-0.0176416
-0.0141777
-0.011685
-0.00919223
-0.0285228
-0.0354511
-0.0425166
-0.0494951
-0.0561077
-0.0619821
-0.0666298
-0.0694798
-0.0699976
-0.0677097
-0.062581
-0.055168
-0.0468892
-0.0393277
-0.0331959
-0.0285377
-0.0251802
-0.0230745
-0.0208128
)
;

boundaryField
{
    leftWall
    {
        type            fixedFluxPressure;
        gradient        uniform 0;
        value           nonuniform List<scalar> 
50
(
1087.16
1090.8
1093.91
1096.55
1098.93
1102.35
1108.33
1118.43
1139.78
1203.51
1177.72
1373.58
1636.82
1427.59
1039.55
951.076
710.402
129.653
0.162634
-0.0678191
-0.330642
-0.143516
0.379936
-0.342825
-1.10404
-1.8305
-2.26077
-2.23115
-1.92364
-1.48287
-1.08043
-0.801857
-0.620723
-0.494948
-0.402554
-0.333788
-0.281166
-0.239805
-0.206396
-0.17855
-0.154623
-0.1335
-0.114423
-0.0968582
-0.0804158
-0.0648063
-0.0497967
-0.0352783
-0.0209239
-0.007484
)
;
    }
    rightWall
    {
        type            fixedFluxPressure;
        gradient        uniform 0;
        value           nonuniform List<scalar> 
50
(
871.248
838.591
804.513
776.268
743.209
697.319
631.387
609.818
536.67
554.737
261.046
31.8405
21.8375
20.3017
9.44913
2.15983
2.21801
2.17003
2.09893
2.06392
2.03046
1.80485
1.64671
1.50293
1.3539
1.20975
1.08289
1.02875
1.11389
1.35226
1.65177
1.7996
1.7255
1.54028
1.44977
1.37196
1.32984
1.31013
1.40519
1.19288
0.713255
0.248934
0.127271
0.0756121
0.0498429
0.0314706
0.0164094
0.00318796
-0.00919223
-0.0208128
)
;
    }
    lowerWall
    {
        type            fixedFluxPressure;
        gradient        uniform 0;
        value           nonuniform List<scalar> 
62
(
1087.16
1075.22
1057.57
1036.51
1015.43
995.779
978.977
966.749
960.256
959.36
962.908
968.459
971.309
968.086
962.353
956.285
951.11
949.498
949.344
944.349
936.257
926.296
919.181
919.181
917.716
914.009
907.919
900.468
893.791
886.181
876.89
784.394
831.768
928.246
929.095
652.399
649.827
653.439
659.02
670.84
682.256
707.174
737.987
652.399
618.174
574.06
505.441
456.58
457.061
501.727
559.118
605.981
637.709
649.668
651.753
604.015
585.372
498.53
429.732
548.646
792.362
871.248
)
;
    }
    atmosphere
    {
        type            totalPressure;
        rho             rho;
        psi             none;
        gamma           1;
        p0              uniform 0;
        value           nonuniform List<scalar> 
46
(
0
0
0
0
0
0
0
0
0
0
0
0
0
0
0
0
0
0
0
0
0
0
0
-0.000261738
-0.00378014
-0.0112131
-0.0215353
-0.0316095
-0.0398985
-0.0484409
-0.0570157
-0.0653255
-0.0729288
-0.0792002
-0.0833959
-0.0847943
-0.0826175
-0.0765154
-0.0669389
-0.0559303
-0.0462347
-0.0389432
-0.0337942
-0.0303989
-0.0286112
-0.026108
)
;
    }
    defaultFaces
    {
        type            empty;
    }
}


// ************************************************************************* //
