/*--------------------------------*- C++ -*----------------------------------*\
| =========                 |                                                 |
| \\      /  F ield         | OpenFOAM: The Open Source CFD Toolbox           |
|  \\    /   O peration     | Version:  2206                                  |
|   \\  /    A nd           | Website:  www.openfoam.com                      |
|    \\/     M anipulation  |                                                 |
\*---------------------------------------------------------------------------*/
FoamFile
{
    version     2.0;
    format      ascii;
    arch        "LSB;label=32;scalar=64";
    class       surfaceScalarField;
    location    "0.9";
    object      phi;
}
// * * * * * * * * * * * * * * * * * * * * * * * * * * * * * * * * * * * * * //

dimensions      [0 3 -1 0 0 0 0];

oriented        oriented;

internalField   nonuniform List<scalar> 
4432
(
-2.05272e-07
2.05272e-07
-3.28464e-06
3.07936e-06
-8.80883e-06
5.52419e-06
-1.37591e-05
4.95028e-06
-1.52833e-05
1.52416e-06
-1.45223e-05
-7.61022e-07
-1.41083e-05
-4.13957e-07
-1.47584e-05
6.50056e-07
-1.60796e-05
1.32122e-06
-1.77582e-05
1.67862e-06
-1.91471e-05
1.38888e-06
-1.92636e-05
1.1657e-07
-1.80758e-05
-1.18783e-06
-1.81697e-05
9.38906e-08
-2.19281e-05
3.75841e-06
-2.76015e-05
5.67342e-06
-2.88584e-05
1.25684e-06
-2.37728e-05
-5.0856e-06
-1.63244e-05
-7.44838e-06
-9.57892e-06
-6.74544e-06
-3.63165e-06
-5.94727e-06
-2.2813e-07
-3.40352e-06
-2.28136e-07
-5.89229e-06
6.09756e-06
-1.2316e-05
9.5031e-06
-1.71703e-05
1.03784e-05
-1.84464e-05
6.22644e-06
-1.70024e-05
8.01108e-08
-1.51649e-05
-2.59847e-06
-1.45806e-05
-9.98321e-07
-1.53902e-05
1.45966e-06
-1.70812e-05
3.01229e-06
-1.90407e-05
3.63811e-06
-2.10615e-05
3.40967e-06
-2.336e-05
2.41503e-06
-2.61775e-05
1.62964e-06
-2.90859e-05
3.00239e-06
-3.03542e-05
5.02663e-06
-2.74132e-05
2.73248e-06
-2.07638e-05
-5.39255e-06
-1.38741e-05
-1.19753e-05
-8.39398e-06
-1.29285e-05
-3.39101e-06
-1.17484e-05
1.09756e-06
-1.04358e-05
2.54157e-06
-4.84751e-06
2.31342e-06
-8.0192e-06
1.41168e-05
-1.45621e-05
1.6046e-05
-1.83355e-05
1.41518e-05
-1.92647e-05
7.15569e-06
-1.79863e-05
-1.19835e-06
-1.60879e-05
-4.49688e-06
-1.50507e-05
-2.03548e-06
-1.53385e-05
1.74742e-06
-1.63241e-05
3.99792e-06
-1.75203e-05
4.83435e-06
-1.88408e-05
4.73013e-06
-2.04779e-05
4.05211e-06
-2.23556e-05
3.50737e-06
-2.30821e-05
3.72892e-06
-2.0777e-05
2.72152e-06
-1.53774e-05
-2.66716e-06
-1.01684e-05
-1.06015e-05
-6.97538e-06
-1.51683e-05
-4.31782e-06
-1.55861e-05
-5.50503e-07
-1.55157e-05
3.69914e-06
-1.46855e-05
4.70106e-06
-5.84942e-06
7.01447e-06
-7.79202e-06
2.19088e-05
-1.38226e-05
2.20766e-05
-1.76086e-05
1.79378e-05
-1.90822e-05
8.62928e-06
-1.82121e-05
-2.06846e-06
-1.65468e-05
-6.16219e-06
-1.57633e-05
-2.81901e-06
-1.60758e-05
2.05999e-06
-1.69731e-05
4.89524e-06
-1.79434e-05
5.80462e-06
-1.86146e-05
5.40132e-06
-1.87176e-05
4.15513e-06
-1.78633e-05
2.65309e-06
-1.52807e-05
1.14629e-06
-1.10887e-05
-1.47052e-06
-7.23822e-06
-6.51761e-06
-5.6342e-06
-1.22056e-05
-5.43911e-06
-1.53634e-05
-4.45824e-06
-1.65669e-05
-1.50564e-06
-1.84683e-05
2.38435e-06
-1.85755e-05
4.33364e-06
-7.7987e-06
1.13481e-05
-6.6107e-06
2.85195e-05
-1.19574e-05
2.74233e-05
-1.56089e-05
2.15893e-05
-1.71584e-05
1.01789e-05
-1.67628e-05
-2.46412e-06
-1.60336e-05
-6.89136e-06
-1.61331e-05
-2.71951e-06
-1.68987e-05
2.82559e-06
-1.80047e-05
6.00122e-06
-1.91628e-05
6.96273e-06
-1.98789e-05
6.11734e-06
-1.95253e-05
3.80156e-06
-1.74777e-05
6.05528e-07
-1.35933e-05
-2.73819e-06
-9.1561e-06
-5.90767e-06
-6.41688e-06
-9.25681e-06
-6.06184e-06
-1.25606e-05
-6.32627e-06
-1.5099e-05
-5.4373e-06
-1.74559e-05
-3.40061e-06
-2.0505e-05
-9.59117e-07
-2.1017e-05
2.21927e-06
-1.09771e-05
1.35674e-05
-4.99016e-06
3.35096e-05
-9.30752e-06
3.17406e-05
-1.22508e-05
2.45325e-05
-1.35554e-05
1.14835e-05
-1.38331e-05
-2.18651e-06
-1.45978e-05
-6.12666e-06
-1.61142e-05
-1.20308e-06
-1.75922e-05
4.30361e-06
-1.89717e-05
7.38071e-06
-2.03167e-05
8.30769e-06
-2.12696e-05
7.07028e-06
-2.11205e-05
3.65243e-06
-1.91068e-05
-1.40817e-06
-1.50882e-05
-6.7568e-06
-1.05696e-05
-1.04262e-05
-7.711e-06
-1.21155e-05
-6.84941e-06
-1.34222e-05
-6.38638e-06
-1.5562e-05
-5.37488e-06
-1.84674e-05
-4.50704e-06
-2.13728e-05
-3.59929e-06
-2.19248e-05
1.40682e-08
-1.45904e-05
1.35814e-05
-3.06204e-06
3.65717e-05
-6.20149e-06
3.48801e-05
-8.22155e-06
2.65526e-05
-8.88528e-06
1.21473e-05
-9.48229e-06
-1.58952e-06
-1.24232e-05
-3.18576e-06
-1.58326e-05
2.20629e-06
-1.81201e-05
6.59113e-06
-1.98269e-05
9.08746e-06
-2.13239e-05
9.80473e-06
-2.24688e-05
8.21514e-06
-2.24633e-05
3.64701e-06
-2.01808e-05
-3.69072e-06
-1.52947e-05
-1.16429e-05
-9.84607e-06
-1.58748e-05
-6.52258e-06
-1.5439e-05
-5.55145e-06
-1.43933e-05
-5.13508e-06
-1.59784e-05
-4.32066e-06
-1.92818e-05
-3.69716e-06
-2.19963e-05
-3.35662e-06
-2.22653e-05
-2.15565e-06
-1.57914e-05
1.14258e-05
-1.24859e-06
3.78202e-05
-2.96972e-06
3.66012e-05
-2.94753e-06
2.65304e-05
-1.1906e-06
1.03903e-05
-3.41111e-06
6.31003e-07
-9.81993e-06
3.22307e-06
-1.50958e-05
7.48217e-06
-1.78905e-05
9.3858e-06
-1.97232e-05
1.09202e-05
-2.12913e-05
1.13728e-05
-2.26196e-05
9.54344e-06
-2.26141e-05
3.64157e-06
-1.94993e-05
-6.80558e-06
-1.31407e-05
-1.80015e-05
-6.64822e-06
-2.23673e-05
-3.41486e-06
-1.86723e-05
-3.27684e-06
-1.45313e-05
-3.73579e-06
-1.55194e-05
-3.17194e-06
-1.98457e-05
-1.40897e-06
-2.37593e-05
4.45225e-07
-2.41195e-05
-7.24668e-07
-1.46215e-05
1.07011e-05
2.09071e-05
-2.09071e-05
2.62542e-05
-5.34708e-06
2.66941e-05
-4.3985e-07
3.24461e-05
-5.75203e-06
3.79532e-05
-5.5071e-06
3.82195e-05
-2.66312e-07
3.47337e-05
3.48576e-06
2.20408e-05
1.26929e-05
-2.13136e-07
2.2254e-05
-1.58347e-05
1.56215e-05
-1.35595e-05
-2.27517e-06
8.06817e-07
-1.43663e-05
1.35134e-06
-5.44527e-07
-3.22088e-05
3.35602e-05
-7.83153e-05
4.61065e-05
-9.52229e-05
1.69076e-05
-7.47017e-05
-2.05213e-05
-3.33696e-05
-4.13321e-05
-3.33696e-05
8.97598e-06
-2.98831e-05
1.64663e-05
-1.28374e-05
3.53989e-05
-1.93725e-05
5.66309e-05
-2.6984e-05
6.59174e-05
-1.47936e-05
6.37323e-05
1.91883e-06
5.78909e-05
9.32711e-06
4.94483e-05
2.11355e-05
2.9101e-05
4.26013e-05
2.48367e-06
4.22389e-05
-1.49707e-05
1.51792e-05
-2.02004e-05
-9.13662e-06
-3.74965e-05
1.67515e-05
-7.10213e-05
6.70849e-05
-9.25847e-05
6.767e-05
-8.23761e-05
6.69894e-06
-5.39178e-05
-4.89795e-05
-2.31025e-05
-7.21474e-05
-5.64721e-05
-2.00419e-06
-2.78789e-05
2.78665e-05
-4.2708e-05
6.2315e-05
-5.38211e-05
7.76975e-05
-4.23664e-05
7.83848e-05
-1.5481e-05
6.97609e-05
1.05428e-05
6.02447e-05
1.88433e-05
5.49067e-05
2.64735e-05
4.58366e-05
5.16714e-05
2.44841e-05
6.35914e-05
1.66909e-07
3.94964e-05
-2.33074e-05
1.43377e-05
-4.45817e-05
3.80257e-05
-6.3291e-05
8.57942e-05
-6.09063e-05
6.52853e-05
-4.19708e-05
-1.22365e-05
-2.10762e-05
-6.98742e-05
-2.68573e-06
-9.05378e-05
-5.91578e-05
6.04698e-06
-3.39259e-05
4.28869e-05
-7.9548e-05
6.63819e-05
-7.7316e-05
7.55281e-05
-5.15126e-05
7.40677e-05
-1.40207e-05
6.22027e-05
2.24079e-05
5.12633e-05
2.97827e-05
4.69481e-05
3.07887e-05
4.548e-05
5.31395e-05
3.69732e-05
7.20981e-05
1.582e-05
6.06497e-05
-9.40179e-06
3.95595e-05
-2.51403e-05
5.37643e-05
-3.08976e-05
9.15514e-05
-1.64791e-05
5.08669e-05
9.96822e-07
-2.97125e-05
1.07902e-05
-7.96676e-05
1.28454e-05
-9.2593e-05
-4.63124e-05
1.07911e-05
-4.47169e-05
4.01546e-05
-0.000108911
5.44106e-05
-9.15721e-05
6.28656e-05
-5.99677e-05
6.06686e-05
-1.18236e-05
4.40594e-05
3.9017e-05
3.42296e-05
3.96125e-05
3.3281e-05
3.17373e-05
3.64132e-05
5.00073e-05
3.8904e-05
6.96073e-05
2.83166e-05
7.1237e-05
5.69957e-06
6.21765e-05
-2.4857e-06
6.19495e-05
4.33911e-06
8.47266e-05
2.04764e-05
3.47296e-05
3.09727e-05
-4.02089e-05
3.36683e-05
-8.23632e-05
2.1266e-05
-8.01907e-05
-2.50464e-05
6.6257e-06
-5.13426e-05
1.94262e-05
-0.000121712
3.09102e-05
-0.000103056
3.94175e-05
-6.84749e-05
3.55669e-05
-7.9731e-06
1.20496e-05
6.25343e-05
1.35063e-05
3.81558e-05
1.87358e-05
2.65079e-05
2.48294e-05
4.39136e-05
3.27207e-05
6.17161e-05
3.152e-05
7.24377e-05
1.82254e-05
7.54711e-05
1.18147e-05
6.83603e-05
2.95316e-05
6.70097e-05
4.30285e-05
2.12327e-05
4.45638e-05
-4.17441e-05
3.825e-05
-7.60494e-05
2.0762e-05
-6.27028e-05
-4.28437e-06
5.98727e-07
-5.19414e-05
-3.96497e-07
-0.000120717
1.4397e-05
-0.00011785
1.21217e-05
-6.61996e-05
-1.69765e-06
5.84616e-06
-6.61615e-06
6.74528e-05
5.17083e-06
2.63688e-05
6.54374e-06
2.5135e-05
1.05864e-05
3.9871e-05
1.85687e-05
5.37338e-05
2.44453e-05
6.65611e-05
2.25537e-05
7.73627e-05
1.90967e-05
7.18172e-05
3.12397e-05
5.48667e-05
4.27253e-05
9.74712e-06
4.20165e-05
-4.10353e-05
2.84269e-05
-6.24598e-05
1.23737e-05
-4.66495e-05
8.08934e-06
-9.52172e-06
-4.24197e-05
-9.31587e-06
-0.000120923
-8.18023e-06
-0.000118985
-2.36833e-05
-5.06965e-05
-3.10404e-05
1.32032e-05
-1.47762e-05
5.11885e-05
-1.4042e-05
2.56346e-05
-1.8346e-05
2.9439e-05
-1.66513e-05
3.81763e-05
-7.73293e-06
4.48154e-05
5.64778e-06
5.31804e-05
1.67634e-05
6.62471e-05
2.25661e-05
6.60146e-05
3.28875e-05
4.45453e-05
3.85637e-05
4.07093e-06
2.78618e-05
-3.03335e-05
1.08518e-05
-4.54497e-05
3.56596e-06
-3.93638e-05
1.16553e-05
7.20938e-06
3.06109e-05
8.31098e-06
3.54996e-05
9.41216e-06
2.54292e-05
2.63098e-06
1.71715e-05
-1.25445e-05
1.58065e-05
-2.53484e-05
1.6027e-05
-3.08047e-05
1.29385e-05
-3.44816e-05
1.30627e-05
-3.85302e-05
1.49689e-05
-4.3089e-05
1.59315e-05
-4.85255e-05
1.49799e-05
-5.19101e-05
7.02622e-06
-4.91558e-05
-9.5599e-06
-3.72385e-05
-2.99188e-05
-2.10883e-05
-3.85175e-05
-1.19848e-05
-2.77758e-05
-1.08657e-05
-1.56504e-05
-1.18058e-05
-1.45793e-05
-8.85283e-06
-2.27987e-05
1.42027e-06
-3.40324e-05
1.57295e-05
-3.84287e-05
2.8104e-05
-2.6996e-05
-6.70155e-06
4.55067e-05
1.88239e-05
1.17869e-05
1.97267e-05
3.45969e-05
1.26933e-05
3.24626e-05
-5.86339e-06
3.57282e-05
-2.44465e-05
3.43896e-05
-3.32556e-05
2.48361e-05
-3.95554e-05
1.92383e-05
-4.79938e-05
2.15011e-05
-5.67921e-05
2.37672e-05
-6.72827e-05
2.64221e-05
-8.48224e-05
3.25197e-05
-0.000108113
3.0317e-05
-0.000116608
-1.06544e-06
-0.000101828
-4.46986e-05
-7.53918e-05
-6.49535e-05
-5.66467e-05
-4.65209e-05
-4.6561e-05
-2.57362e-05
-3.80607e-05
-2.30796e-05
-2.55427e-05
-3.53166e-05
-8.95338e-06
-5.06218e-05
4.28993e-06
-5.1672e-05
1.43046e-05
-3.70107e-05
-1.66491e-05
2.42522e-05
2.41426e-05
-1.23557e-05
2.11803e-05
3.75592e-05
-3.53576e-06
5.71786e-05
-4.09484e-05
7.31409e-05
-7.99021e-05
7.33433e-05
-0.000107979
5.29132e-05
-0.00012334
3.45993e-05
-0.000139373
3.7534e-05
-0.000165983
5.03771e-05
-0.000206962
6.7401e-05
-0.000250554
7.61117e-05
-0.000274252
5.40146e-05
-0.000247423
-2.78938e-05
-0.000201763
-9.03589e-05
-0.000165149
-0.000101567
-0.000140457
-7.12137e-05
-0.000123616
-4.25771e-05
-0.000106702
-3.99933e-05
-9.10098e-05
-5.10088e-05
-8.64175e-05
-5.52141e-05
-9.01334e-05
-4.79561e-05
-9.41697e-05
-3.29744e-05
-8.17631e-06
-0.000102643
-5.03467e-05
3.7991e-05
-0.000109003
9.62152e-05
-0.000150164
9.83404e-05
-0.00016677
8.97461e-05
-0.000179806
8.63794e-05
-0.00019494
6.80478e-05
-0.000217441
5.70996e-05
-0.000241026
6.11192e-05
-0.000268255
7.76059e-05
-0.000301941
0.000101087
-0.000323641
9.78116e-05
-0.000305305
3.56786e-05
-0.000265301
-6.78972e-05
-0.000233706
-0.000121955
-0.00021523
-0.000120043
-0.000200335
-8.61082e-05
-0.000188453
-5.44595e-05
-0.000187693
-4.07531e-05
-0.000202712
-3.59896e-05
-0.00022649
-3.14361e-05
-0.000241163
-3.32831e-05
-0.000240435
-3.37025e-05
-1.16483e-05
-0.000236963
-0.000118089
0.00015608
-0.000193707
0.000171834
-0.000235598
0.000140231
-0.000272154
0.000126302
-0.00029387
0.000108096
-0.000290248
6.44259e-05
-0.00027531
4.21608e-05
-0.000259273
4.50826e-05
-0.000243629
6.1962e-05
-0.000240045
9.75034e-05
-0.000249497
0.000107263
-0.000258892
4.50733e-05
-0.000262323
-6.44654e-05
-0.000253848
-0.000130431
-0.000245108
-0.000128782
-0.000237639
-9.35781e-05
-0.00023929
-5.28076e-05
-0.000257924
-2.21195e-05
-0.000280012
-1.39013e-05
-0.000298476
-1.29728e-05
-0.000314474
-1.72851e-05
-0.000325828
-2.2348e-05
-1.55812e-05
-0.000321895
-9.82787e-05
0.000254359
-0.000145546
0.000219101
-0.000211265
0.000205949
-0.000259457
0.000174494
-0.000281269
0.000129908
-0.000284931
6.80877e-05
-0.000269269
2.64989e-05
-0.0002538
2.96134e-05
-0.000236523
4.46846e-05
-0.00021732
7.83006e-05
-0.000213348
0.000103292
-0.000245208
7.69328e-05
-0.000266657
-4.30165e-05
-0.000269815
-0.000127272
-0.000267456
-0.000131141
-0.000261654
-9.93801e-05
-0.000260819
-5.36425e-05
-0.000276384
-6.55499e-06
-0.000295364
5.07885e-06
-0.000306319
-2.0177e-06
-0.000308489
-1.51145e-05
-0.000299493
-3.13446e-05
-4.30177e-05
-0.000272056
-6.98031e-05
0.000324162
-8.76975e-05
0.000236996
-0.000128765
0.000247017
-0.000149646
0.000195375
-0.000165548
0.00014581
-0.000186182
8.87219e-05
-0.000215019
5.53356e-05
-0.000232879
4.74738e-05
-0.000236148
4.79537e-05
-0.000235463
7.76151e-05
-0.000241393
0.000109222
-0.000248303
8.3843e-05
-0.00025761
-3.371e-05
-0.000267619
-0.000117263
-0.000268076
-0.000130684
-0.000261969
-0.000105488
-0.000254061
-6.155e-05
-0.00025003
-1.05858e-05
-0.000251584
6.63243e-06
-0.000240774
-1.28276e-05
-0.000221349
-3.45395e-05
-0.000192475
-6.02189e-05
-8.31232e-05
-0.000152369
-6.85067e-05
0.000392668
-6.49949e-05
0.000233484
-9.1912e-05
0.000273934
-0.000106557
0.000210021
-0.000125849
0.000165101
-0.000157954
0.000120827
-0.000193066
9.04476e-05
-0.000217457
7.18648e-05
-0.000237218
6.77151e-05
-0.000249262
8.96591e-05
-0.000246873
0.000106833
-0.000232796
6.97669e-05
-0.000241299
-2.52067e-05
-0.000254354
-0.000104209
-0.000261085
-0.000123952
-0.000250421
-0.000116152
-0.000229707
-8.22635e-05
-0.000193957
-4.63364e-05
-0.000162063
-2.52617e-05
-0.000141132
-3.37586e-05
-0.000124579
-5.10922e-05
-0.000105873
-7.89248e-05
-0.000110378
-7.86179e-05
-2.50146e-05
0.000417683
-4.38047e-05
0.000252274
-8.45254e-05
0.000314654
-0.000103125
0.000228621
-0.000119953
0.000181929
-0.000142209
0.000143083
-0.000168973
0.000117211
-0.000195392
9.82836e-05
-0.000216061
8.83839e-05
-0.000220256
9.38549e-05
-0.000210838
9.74139e-05
-0.000206214
6.51435e-05
-0.000226107
-5.31422e-06
-0.00025567
-7.46453e-05
-0.000263124
-0.000116498
-0.00025698
-0.000122296
-0.000223704
-0.00011554
-0.000183086
-8.69543e-05
-0.000146422
-6.19258e-05
-0.000121406
-5.87741e-05
-9.73458e-05
-7.51524e-05
-6.64206e-05
-0.00010985
-0.000147718
-2.90814e-05
-1.40703e-05
0.000431753
-5.68984e-05
0.000295102
-9.54753e-05
0.000353231
-0.000120216
0.000253361
-0.000136445
0.000198158
-0.000146593
0.000153232
-0.00015288
0.000123499
-0.00016019
0.000105593
-0.000168562
9.67558e-05
-0.00017015
9.54435e-05
-0.000164948
9.22117e-05
-0.000169959
7.01547e-05
-0.000198905
2.36326e-05
-0.000239812
-3.37389e-05
-0.000272171
-8.41394e-05
-0.000278251
-0.000116215
-0.00026711
-0.000126682
-0.000236235
-0.000117829
-0.00018125
-0.000116911
-0.000131365
-0.000108659
-8.10111e-05
-0.000125506
-3.63675e-05
-0.000154494
-0.000161005
-2.30797e-05
-4.36516e-05
0.000475405
-0.000101107
0.000352557
-0.000127986
0.000380111
-0.000159993
0.000285368
-0.000177218
0.000215383
-0.000178537
0.00015455
-0.00016713
0.000112092
-0.000151587
9.00496e-05
-0.000137579
8.27481e-05
-0.000125302
8.31668e-05
-0.000117176
8.40858e-05
-0.000122407
7.53862e-05
-0.000149176
5.04015e-05
-0.000192097
9.18159e-06
-0.000238312
-3.79244e-05
-0.000281279
-7.32483e-05
-0.000315359
-9.26018e-05
-0.000318064
-0.000115124
-0.000285591
-0.000149384
-0.000211588
-0.000182662
-0.000134506
-0.000202588
-8.673e-05
-0.00020227
-0.000182857
-6.48788e-05
-6.16625e-05
0.000537067
-0.000136319
0.000427213
-0.000165196
0.000408988
-0.000208091
0.000328262
-0.00023099
0.000238282
-0.000228896
0.000152456
-0.000204012
8.72086e-05
-0.000169279
5.53169e-05
-0.000135018
4.8487e-05
-0.000104557
5.27055e-05
-8.13484e-05
6.08776e-05
-7.17488e-05
6.57867e-05
-8.21215e-05
6.07741e-05
-0.000113164
4.02238e-05
-0.000155411
4.323e-06
-0.000195275
-3.33847e-05
-0.000221318
-6.65588e-05
-0.000226981
-0.000109461
-0.000201435
-0.00017493
-0.000153409
-0.000230688
-0.000118222
-0.000237774
-9.7134e-05
-0.000223358
-0.000197877
-8.2114e-05
-4.8988e-05
0.000586055
-0.000154853
0.000533078
-0.000194198
0.000448334
-0.000245392
0.000379456
-0.000279849
0.000272739
-0.00028249
0.000155097
-0.000248914
5.36322e-05
-0.000197246
3.64906e-06
-0.000145509
-3.25067e-06
-0.00010134
8.5373e-06
-6.58641e-05
2.54017e-05
-3.97487e-05
3.96711e-05
-2.77613e-05
4.87866e-05
-3.59314e-05
4.83941e-05
-6.36056e-05
3.19973e-05
-9.90309e-05
2.04071e-06
-0.000127812
-3.77774e-05
-0.000141627
-9.56457e-05
-0.000126865
-0.000189692
-0.000114934
-0.000242619
-0.000105023
-0.000247686
-0.00010003
-0.000228351
-0.000193077
-0.000104829
2.71521e-05
0.000558903
-0.0001006
0.00066083
-0.000184861
0.000532595
-0.000245257
0.000439853
-0.000292956
0.000320437
-0.000309338
0.00017148
-0.000277426
2.17195e-05
-0.000217061
-5.67153e-05
-0.000149142
-7.11697e-05
-9.6184e-05
-4.44205e-05
-5.696e-05
-1.38221e-05
-2.6336e-05
9.04704e-06
-3.15774e-06
2.56083e-05
8.80651e-06
3.64298e-05
3.08288e-06
3.7721e-05
-1.73994e-05
2.2523e-05
-4.79603e-05
-7.21648e-06
-7.85292e-05
-6.50767e-05
-9.05732e-05
-0.000177648
-0.000102449
-0.000230743
-0.000109995
-0.000240141
-0.0001129
-0.000225445
-0.000176554
-0.000129424
0.000121617
0.000437286
6.01313e-05
0.000722315
-6.91226e-05
0.000661849
-0.00016047
0.0005312
-0.000221284
0.000381251
-0.000250686
0.000200882
-0.000241372
1.24055e-05
-0.000192104
-0.000105983
-0.000126645
-0.000136629
-7.23901e-05
-9.8675e-05
-3.69921e-05
-4.922e-05
-1.29383e-05
-1.50069e-05
7.55749e-06
5.1126e-06
2.40768e-05
1.99106e-05
3.13467e-05
3.04511e-05
2.35745e-05
3.02953e-05
1.75649e-06
1.46015e-05
-3.61084e-05
-2.72118e-05
-7.89044e-05
-0.000134852
-9.67757e-05
-0.000212872
-0.000109637
-0.000227279
-0.000121709
-0.000213373
-0.000156898
-0.000141365
0.000175912
0.000261374
0.000237908
0.000660319
0.000158801
0.000740955
5.37066e-05
0.000636295
-2.05556e-05
0.000455513
-5.455e-05
0.000234876
-8.02615e-05
3.81171e-05
-8.33454e-05
-0.000102899
-5.9692e-05
-0.000160282
-2.74738e-05
-0.000130893
-3.49245e-06
-7.32015e-05
1.14282e-05
-2.99275e-05
2.10443e-05
-4.50357e-06
3.0256e-05
1.06989e-05
3.76572e-05
2.30499e-05
3.73325e-05
3.06201e-05
2.36834e-05
2.82507e-05
-8.9931e-06
5.46485e-06
-6.44673e-05
-7.93779e-05
-9.11143e-05
-0.000186225
-0.000107219
-0.000211175
-0.000122173
-0.000198419
-0.000129372
-0.000149699
0.000157575
0.000103799
0.000316004
0.00050189
0.00035484
0.000702119
0.000308658
0.000682477
0.000239731
0.000524441
0.00017443
0.000300176
0.000119601
9.2946e-05
7.31313e-05
-5.64287e-05
4.83608e-05
-0.000135512
4.17753e-05
-0.000124308
4.1432e-05
-7.28583e-05
4.10675e-05
-2.95631e-05
4.04272e-05
-3.86324e-06
4.00086e-05
1.11174e-05
4.05215e-05
2.25371e-05
3.9377e-05
3.17646e-05
3.08754e-05
3.67526e-05
7.85392e-06
2.84865e-05
-4.15196e-05
-3.00042e-05
-8.31242e-05
-0.00014462
-0.000104289
-0.00019001
-0.000123686
-0.000179022
-9.63902e-05
-0.000156668
9.72999e-05
6.49955e-06
0.000284143
0.000315047
0.00040976
0.000576503
0.000445618
0.000646618
0.000419308
0.000550751
0.000358015
0.000361469
0.000284233
0.000166729
0.000212067
1.5737e-05
0.000151156
-7.4601e-05
0.000109332
-8.24834e-05
8.46783e-05
-4.82048e-05
7.01383e-05
-1.50231e-05
6.04543e-05
5.82078e-06
5.27728e-05
1.87989e-05
4.65367e-05
2.87732e-05
4.09306e-05
3.7371e-05
3.28504e-05
4.4833e-05
1.50628e-05
4.62742e-05
-2.29294e-05
7.98812e-06
-6.85159e-05
-9.90337e-05
-9.80948e-05
-0.000160431
-0.00012223
-0.000154887
-6.40025e-05
-0.000154617
4.23887e-05
-3.58893e-05
0.000189127
0.000168308
0.000335683
0.000429947
0.000424502
0.000557799
0.000448041
0.000527213
0.000417275
0.000392235
0.000355089
0.000228915
0.000283751
8.70746e-05
0.000212508
-3.35819e-06
0.000154906
-2.48808e-05
0.000116878
-1.01776e-05
9.33694e-05
8.48587e-06
7.75294e-05
2.16608e-05
6.53222e-05
3.10061e-05
5.48972e-05
3.91983e-05
4.53207e-05
4.69477e-05
3.53362e-05
5.48176e-05
1.87634e-05
6.28471e-05
-1.71268e-05
4.38783e-05
-6.43421e-05
-5.18185e-05
-9.28004e-05
-0.000131973
-0.000119946
-0.000127741
-5.5211e-05
-0.000128738
-5.12431e-06
-3.0765e-05
7.64496e-05
8.67346e-05
0.000201839
0.000304557
0.000305882
0.000453756
0.000362212
0.000470882
0.000367926
0.000386521
0.000337984
0.000258858
0.000287197
0.000137861
0.000225544
5.82951e-05
0.000171177
2.94857e-05
0.000132829
2.81707e-05
0.00010749
3.38244e-05
8.96493e-05
3.95017e-05
7.56729e-05
4.49826e-05
6.3659e-05
5.12123e-05
5.23317e-05
5.8275e-05
4.10174e-05
6.61318e-05
2.58605e-05
7.8004e-05
-6.93469e-06
7.66733e-05
-6.00302e-05
1.2769e-06
-9.23372e-05
-9.96658e-05
-0.000115246
-0.000104832
-4.708e-05
-0.000123377
-3.10261e-05
2.61007e-07
-1.53084e-05
7.10167e-05
6.83932e-05
0.000220856
0.000164503
0.000357645
0.000237217
0.000398169
0.000273936
0.000349802
0.000275991
0.000256803
0.000249628
0.000164223
0.000207068
0.000100855
0.000166278
7.02756e-05
0.000135331
5.91183e-05
0.000113188
5.59674e-05
9.6592e-05
5.60976e-05
8.32116e-05
5.8363e-05
7.17168e-05
6.27071e-05
6.09352e-05
6.90565e-05
5.01945e-05
7.68725e-05
3.81724e-05
9.00262e-05
1.23926e-05
0.000102453
-4.62113e-05
5.98807e-05
-8.59815e-05
-5.98956e-05
-0.00010577
-8.50437e-05
-3.54059e-05
-0.000117444
-4.46417e-05
4.49026e-05
-6.4336e-05
9.07107e-05
-2.32727e-05
0.000179793
5.50319e-05
0.000279341
0.000131887
0.000321314
0.0001848
0.000296888
0.000206203
0.000235401
0.000199355
0.000171071
0.000176403
0.000123807
0.000151039
9.56394e-05
0.000129649
8.05082e-05
0.000112799
7.28169e-05
9.93141e-05
6.95829e-05
8.81526e-05
6.95245e-05
7.86738e-05
7.21859e-05
7.01814e-05
7.75489e-05
6.19877e-05
8.50661e-05
5.47213e-05
9.72926e-05
3.99407e-05
0.000117233
-1.11031e-05
0.000110925
-6.84735e-05
-2.52519e-06
-9.24241e-05
-6.10932e-05
-4.55164e-05
-8.23133e-05
-3.94626e-05
8.4365e-05
-6.72075e-05
0.000118456
-5.314e-05
0.000165725
1.52877e-06
0.000224672
6.76912e-05
0.000255151
0.000121176
0.000243403
0.000149688
0.000206889
0.000154845
0.000165914
0.000146348
0.000132304
0.000133257
0.00010873
0.000120279
9.34865e-05
0.000108853
8.42424e-05
9.9137e-05
7.92989e-05
9.10061e-05
7.76553e-05
8.43821e-05
7.881e-05
7.91696e-05
8.27614e-05
7.49774e-05
8.92583e-05
7.33635e-05
9.89066e-05
7.31196e-05
0.000117477
4.93853e-05
0.000134659
-2.31481e-05
7.00084e-05
-6.21386e-05
-2.21027e-05
-4.41075e-05
-6.35473e-05
-2.42141e-05
0.000108579
-4.50704e-05
0.000139312
-3.94773e-05
0.000160132
-4.15229e-06
0.000189347
4.44758e-05
0.000206523
8.63417e-05
0.000201537
0.000111945
0.000181286
0.000121964
0.000155895
0.000121828
0.00013244
0.000116767
0.000113791
0.000110033
0.00010022
0.000103253
9.10229e-05
9.71808e-05
8.53707e-05
9.22073e-05
8.26288e-05
8.86259e-05
8.23914e-05
8.68087e-05
8.45786e-05
8.68882e-05
8.91788e-05
9.01558e-05
9.56392e-05
0.00010019
0.000107444
0.000104767
0.000130081
5.78003e-05
0.000116976
-1.21216e-06
3.69099e-05
-1.32309e-05
-3.20888e-05
-1.05063e-05
0.000119085
-2.06544e-05
0.00014946
-1.52315e-05
0.000154709
7.57664e-06
0.000166539
3.93344e-05
0.000174766
6.82493e-05
0.000172622
8.83742e-05
0.000161161
9.92273e-05
0.000145042
0.000103114
0.000128553
0.000102761
0.000114144
0.000100296
0.000102685
9.7136e-05
9.4183e-05
9.41719e-05
8.83347e-05
9.20058e-05
8.4795e-05
9.11242e-05
8.3273e-05
9.21093e-05
8.35935e-05
9.55339e-05
8.57543e-05
0.000102173
8.89998e-05
0.000116006
9.36108e-05
0.000140015
0.000106072
0.000143707
0.000113284
0.000104034
7.65825e-05
2.04248e-05
7.03788e-05
-2.50925e-06
0.000121595
-4.23402e-06
0.000151185
2.10013e-06
0.000148375
1.7901e-05
0.000150738
3.8397e-05
0.000154269
5.80528e-05
0.000152966
7.34052e-05
0.000145809
8.34863e-05
0.000134961
8.89832e-05
0.000123056
9.12275e-05
0.0001119
9.15531e-05
0.000102359
9.10386e-05
9.46974e-05
9.04928e-05
8.88805e-05
9.05418e-05
8.47462e-05
9.17263e-05
8.20886e-05
9.46419e-05
8.06779e-05
0.000100029
8.03676e-05
0.0001085
8.05281e-05
0.000121969
8.01424e-05
0.000147554
8.04873e-05
0.000176398
8.44407e-05
0.000183914
6.90663e-05
3.16743e-05
0.000172664
1.10245e-06
0.000120492
4.38836e-06
0.000147899
1.17285e-05
0.000141035
2.33356e-05
0.000139131
3.73542e-05
0.000140251
5.13302e-05
0.00013899
6.32568e-05
0.000133882
7.21768e-05
0.000126041
7.81301e-05
0.000117103
8.17421e-05
0.000108288
8.38206e-05
0.000100281
8.51292e-05
9.33889e-05
8.63189e-05
8.76909e-05
8.79432e-05
8.31219e-05
9.05017e-05
7.95301e-05
9.45024e-05
7.66772e-05
0.000100563
7.43068e-05
0.000109214
7.18779e-05
0.000120721
6.86357e-05
0.000138516
6.26916e-05
0.000165271
5.76862e-05
0.000187326
4.70115e-05
2.28675e-05
0.000196133
2.70313e-06
0.000117789
8.42063e-06
0.000142181
1.59681e-05
0.000133487
2.51977e-05
0.000129902
3.56322e-05
0.000129816
4.62333e-05
0.000128389
5.58194e-05
0.000124296
6.36388e-05
0.000118221
6.95419e-05
0.0001112
7.38124e-05
0.000104018
7.6929e-05
9.71641e-05
7.94099e-05
9.09081e-05
8.17441e-05
8.53568e-05
8.43753e-05
8.04908e-05
8.77105e-05
7.61951e-05
9.21351e-05
7.22527e-05
9.80457e-05
6.83963e-05
0.000105791
6.41324e-05
0.000115295
5.91316e-05
0.000126521
5.14665e-05
0.000142246
4.19607e-05
0.000159369
2.98885e-05
1.21981e-05
0.000170039
3.52939e-06
0.00011426
1.0076e-05
0.000135635
1.73549e-05
0.000126208
2.51263e-05
0.00012213
3.34853e-05
0.000121457
4.20067e-05
0.000119868
4.99769e-05
0.000116326
5.68652e-05
0.000111333
6.25036e-05
0.000105561
6.70155e-05
9.95057e-05
7.06823e-05
9.34973e-05
7.38468e-05
8.77437e-05
7.68593e-05
8.23444e-05
8.00527e-05
7.72976e-05
8.37321e-05
7.25158e-05
8.81679e-05
6.78169e-05
9.35938e-05
6.29705e-05
0.000100162
5.75641e-05
0.000107919
5.13749e-05
0.000116043
4.3342e-05
0.000124881
3.31228e-05
0.000134079
2.06905e-05
5.59103e-06
0.000140686
3.96062e-06
0.000110299
1.05897e-05
0.000129006
1.7367e-05
0.000119431
2.41287e-05
0.000115369
3.11674e-05
0.000114419
3.83147e-05
0.000112721
4.51262e-05
0.000109514
5.12433e-05
0.000105216
5.65294e-05
0.000100275
6.10349e-05
9.50003e-05
6.49253e-05
8.96069e-05
6.84235e-05
8.42456e-05
7.17723e-05
7.89956e-05
7.52099e-05
7.38601e-05
7.89543e-05
6.87715e-05
8.3185e-05
6.35863e-05
8.80408e-05
5.81148e-05
9.35508e-05
5.20542e-05
9.9751e-05
4.51746e-05
0.000106103
3.69897e-05
0.000112067
2.7159e-05
0.000117222
1.5536e-05
2.29609e-06
0.000120517
4.10938e-06
0.00010619
1.04994e-05
0.000122616
1.67138e-05
0.000113216
2.27044e-05
0.000109378
2.88153e-05
0.000108308
3.49842e-05
0.000106552
4.09234e-05
0.000103575
4.63943e-05
9.97447e-05
5.12971e-05
9.53726e-05
5.56504e-05
9.06471e-05
5.95514e-05
8.5706e-05
6.3143e-05
8.0654e-05
6.65893e-05
7.55494e-05
7.00543e-05
7.03953e-05
7.3687e-05
6.51389e-05
7.76006e-05
5.96728e-05
8.1869e-05
5.38464e-05
8.64689e-05
4.74543e-05
9.13442e-05
4.02993e-05
9.62026e-05
3.21313e-05
0.000100573
2.27887e-05
0.000103962
1.21465e-05
3.23893e-07
0.000105935
4.06241e-06
0.000102127
1.00701e-05
0.000116608
1.57328e-05
0.000107554
2.10938e-05
0.000104017
2.64948e-05
0.000102907
3.19169e-05
0.00010113
3.71658e-05
9.83263e-05
4.20821e-05
9.48284e-05
4.65964e-05
9.08584e-05
5.07132e-05
8.65303e-05
5.44892e-05
8.19301e-05
5.80144e-05
7.71288e-05
6.13964e-05
7.21675e-05
6.47438e-05
6.7048e-05
6.81526e-05
6.17302e-05
7.16893e-05
5.61361e-05
7.53825e-05
5.01532e-05
7.91927e-05
4.36441e-05
8.30229e-05
3.64691e-05
8.66751e-05
2.84792e-05
8.98592e-05
1.96045e-05
9.22127e-05
9.79294e-06
-9.43695e-07
9.34803e-05
3.89772e-06
9.82293e-05
9.45918e-06
0.000111046
1.46009e-05
0.000102412
1.94217e-05
9.91962e-05
2.42411e-05
9.80873e-05
2.90575e-05
9.63132e-05
3.37334e-05
9.36504e-05
3.81607e-05
9.04011e-05
4.22914e-05
8.67276e-05
4.61241e-05
8.26975e-05
4.96905e-05
7.83637e-05
5.30456e-05
7.37737e-05
5.6257e-05
6.89561e-05
5.93932e-05
6.39118e-05
6.25119e-05
5.86115e-05
6.56483e-05
5.29998e-05
6.88047e-05
4.69969e-05
7.1939e-05
4.05099e-05
7.49605e-05
3.34476e-05
7.77191e-05
2.57206e-05
8.00252e-05
1.72984e-05
8.16499e-05
8.16815e-06
-1.58989e-06
8.2296e-05
3.6724e-06
9.45569e-05
8.76391e-06
0.000105955
1.34172e-05
9.77588e-05
1.7757e-05
9.48563e-05
2.20747e-05
9.37695e-05
2.63747e-05
9.20132e-05
3.05549e-05
8.94702e-05
3.45398e-05
8.6416e-05
3.82962e-05
8.29712e-05
4.18193e-05
7.91744e-05
4.51252e-05
7.50578e-05
4.82455e-05
7.06534e-05
5.12203e-05
6.59813e-05
5.40901e-05
6.1042e-05
5.68864e-05
5.58152e-05
5.96242e-05
5.0262e-05
6.22933e-05
4.43278e-05
6.4853e-05
3.79502e-05
6.72292e-05
3.10714e-05
6.93083e-05
2.36415e-05
7.09534e-05
1.56533e-05
7.20083e-05
7.11325e-06
-1.89749e-06
7.23158e-05
3.42301e-06
9.1134e-05
8.04271e-06
0.000101335
1.22365e-05
9.3565e-05
1.61367e-05
9.09562e-05
2.00059e-05
8.99003e-05
2.38488e-05
8.81704e-05
2.75861e-05
8.57329e-05
3.11635e-05
8.28386e-05
3.45567e-05
7.95779e-05
3.77591e-05
7.59718e-05
4.07769e-05
7.20399e-05
4.36261e-05
6.78043e-05
4.6328e-05
6.32793e-05
4.89041e-05
5.8466e-05
5.13688e-05
5.33505e-05
5.37243e-05
4.79064e-05
5.59552e-05
4.20969e-05
5.80243e-05
3.5881e-05
5.98733e-05
2.92225e-05
6.14203e-05
2.20944e-05
6.25725e-05
1.45011e-05
6.32308e-05
6.45495e-06
-1.99029e-06
6.33235e-05
3.17043e-06
8.79637e-05
7.32913e-06
9.71768e-05
1.10867e-05
8.98074e-05
1.45771e-05
8.74658e-05
1.80357e-05
8.64418e-05
2.14634e-05
8.47427e-05
2.47962e-05
8.24001e-05
2.79935e-05
7.96413e-05
3.10365e-05
7.65349e-05
3.39176e-05
7.30907e-05
3.66364e-05
6.93211e-05
3.91986e-05
6.52422e-05
4.1613e-05
6.08649e-05
4.38882e-05
5.61907e-05
4.60275e-05
5.12111e-05
4.80257e-05
4.59082e-05
4.98652e-05
4.02575e-05
5.15145e-05
3.42317e-05
5.29294e-05
2.78076e-05
5.40542e-05
2.09696e-05
5.48309e-05
1.37244e-05
5.52025e-05
6.08327e-06
-1.88466e-06
5.50969e-05
2.92382e-06
8.50399e-05
6.64109e-06
9.34595e-05
9.97949e-06
8.6469e-05
1.30813e-05
8.4364e-05
1.61569e-05
8.33663e-05
1.92006e-05
8.16991e-05
2.21582e-05
7.94425e-05
2.49981e-05
7.68015e-05
2.77053e-05
7.38278e-05
3.02713e-05
7.05247e-05
3.26915e-05
6.69009e-05
3.49645e-05
6.29691e-05
3.70909e-05
5.87384e-05
3.90706e-05
5.4211e-05
4.08996e-05
4.93821e-05
4.25676e-05
4.42401e-05
4.40565e-05
3.87685e-05
4.53395e-05
3.29487e-05
4.63825e-05
2.67646e-05
4.71454e-05
2.02067e-05
4.75884e-05
1.32814e-05
4.76713e-05
6.00034e-06
-1.57546e-06
4.73622e-05
2.68316e-06
8.23567e-05
5.98279e-06
9.01599e-05