/*--------------------------------*- C++ -*----------------------------------*\
| =========                 |                                                 |
| \\      /  F ield         | OpenFOAM: The Open Source CFD Toolbox           |
|  \\    /   O peration     | Version:  2206                                  |
|   \\  /    A nd           | Website:  www.openfoam.com                      |
|    \\/     M anipulation  |                                                 |
\*---------------------------------------------------------------------------*/
FoamFile
{
    version     2.0;
    format      ascii;
    arch        "LSB;label=32;scalar=64";
    class       volVectorField;
    location    "0.9";
    object      U;
}
// * * * * * * * * * * * * * * * * * * * * * * * * * * * * * * * * * * * * * //

dimensions      [0 1 -1 0 0 0 0];

internalField   nonuniform List<vector> 
2268
(
(0.00466124 -0.00801515 0)
(-0.0117258 0.00461869 0)
(-0.0685048 0.0173198 0)
(-0.139829 0.0184834 0)
(-0.17722 0.00810848 0)
(-0.171598 -0.00118404 0)
(-0.160169 -0.00109702 0)
(-0.163282 0.00132365 0)
(-0.174717 0.00287878 0)
(-0.192486 0.00390962 0)
(-0.212082 0.00225187 0)
(-0.222141 -0.00443933 0)
(-0.213124 -0.0127707 0)
(-0.200228 -0.0105694 0)
(-0.215946 0.0104331 0)
(-0.286709 0.0275532 0)
(-0.346931 0.0153105 0)
(-0.311831 -0.0125011 0)
(-0.224019 -0.0258746 0)
(-0.145182 -0.024614 0)
(-0.0724293 -0.0220714 0)
(-0.0144025 -0.015313 0)
(0.00727849 -0.00405698 0)
(-0.0340593 0.0119276 0)
(-0.107011 0.0331154 0)
(-0.180747 0.0448812 0)
(-0.218266 0.0323933 0)
(-0.205429 0.00586459 0)
(-0.179822 -0.00788236 0)
(-0.166974 -0.00321024 0)
(-0.16831 0.00608786 0)
(-0.184248 0.0120364 0)
(-0.205827 0.0147519 0)
(-0.228216 0.0128359 0)
(-0.250444 0.00571369 0)
(-0.279239 0.000873295 0)
(-0.316092 0.011958 0)
(-0.347713 0.0316996 0)
(-0.348459 0.0300774 0)
(-0.285068 -0.00649847 0)
(-0.186098 -0.0473869 0)
(-0.121855 -0.0586715 0)
(-0.067699 -0.0525799 0)
(-0.00846997 -0.0454381 0)
(0.0310117 -0.0239063 0)
(0.0244172 0.00212496 0)
(-0.0518041 0.053318 0)
(-0.13793 0.0685065 0)
(-0.201635 0.065771 0)
(-0.224475 0.0350952 0)
(-0.214748 -0.00446276 0)
(-0.193108 -0.0192341 0)
(-0.174981 -0.00812405 0)
(-0.171603 0.00928222 0)
(-0.180136 0.0199114 0)
(-0.192958 0.0241698 0)
(-0.206399 0.0239131 0)
(-0.222049 0.0202871 0)
(-0.242506 0.0171326 0)
(-0.262564 0.0205918 0)
(-0.262908 0.0209997 0)
(-0.218235 -0.00343356 0)
(-0.14007 -0.0492701 0)
(-0.0888303 -0.0784157 0)
(-0.0639923 -0.0802837 0)
(-0.0328596 -0.0753319 0)
(0.0211516 -0.068721 0)
(0.0565525 -0.0282282 0)
(0.0487746 0.0232307 0)
(-0.0528561 0.096822 0)
(-0.131677 0.102618 0)
(-0.190893 0.0856565 0)
(-0.219167 0.0410474 0)
(-0.215341 -0.00981475 0)
(-0.195738 -0.0307096 0)
(-0.18295 -0.0146 0)
(-0.180895 0.00953319 0)
(-0.188345 0.0235489 0)
(-0.199809 0.0283821 0)
(-0.20929 0.0276229 0)
(-0.213909 0.0237803 0)
(-0.210255 0.0199482 0)
(-0.191814 0.017335 0)
(-0.154618 0.00634983 0)
(-0.104313 -0.0230332 0)
(-0.0671886 -0.060376 0)
(-0.0596121 -0.0817093 0)
(-0.0598323 -0.0863056 0)
(-0.0400485 -0.092076 0)
(0.00736109 -0.0909209 0)
(0.04067 -0.0362219 0)
(0.0594012 0.0498068 0)
(-0.0457509 0.136238 0)
(-0.111555 0.133582 0)
(-0.168211 0.106054 0)
(-0.197282 0.0494716 0)
(-0.192725 -0.0136535 0)
(-0.182764 -0.0374522 0)
(-0.184294 -0.0164 0)
(-0.189523 0.0127277 0)
(-0.199219 0.0295429 0)
(-0.212738 0.0345971 0)
(-0.224332 0.0311005 0)
(-0.227509 0.02158 0)
(-0.214214 0.00919051 0)
(-0.178657 -0.00393464 0)
(-0.128611 -0.0209338 0)
(-0.0852292 -0.0439997 0)
(-0.0672114 -0.0676124 0)
(-0.0703055 -0.0820145 0)
(-0.0700083 -0.0919573 0)
(-0.0516759 -0.107194 0)
(-0.0224259 -0.109891 0)
(-0.00523342 -0.0535789 0)
(0.0602424 0.067072 0)
(-0.0352627 0.168601 0)
(-0.08515 0.160239 0)
(-0.13375 0.124566 0)
(-0.156021 0.0571925 0)
(-0.150641 -0.014622 0)
(-0.155519 -0.0371418 0)
(-0.1794 -0.0124404 0)
(-0.195792 0.0183065 0)
(-0.209402 0.0357295 0)
(-0.224833 0.0409891 0)
(-0.238769 0.0353566 0)
(-0.244496 0.0197559 0)
(-0.232376 -0.00271531 0)
(-0.196454 -0.0261145 0)
(-0.145389 -0.044271 0)
(-0.101588 -0.0575537 0)
(-0.0805552 -0.0696541 0)
(-0.0748955 -0.0822365 0)
(-0.0670438 -0.0972698 0)
(-0.0529922 -0.114512 0)
(-0.0456533 -0.118697 0)
(-0.0480041 -0.0724916 0)
(0.0498543 0.082138 0)
(-0.0222611 0.190052 0)
(-0.0546641 0.180585 0)
(-0.0925744 0.138407 0)
(-0.105368 0.0647566 0)
(-0.0924182 -0.00604531 0)
(-0.114224 -0.0287093 0)
(-0.171335 0.000240856 0)
(-0.199461 0.0287576 0)
(-0.218196 0.0445468 0)
(-0.235705 0.0494765 0)
(-0.251216 0.0418891 0)
(-0.259032 0.0202811 0)
(-0.246908 -0.0127202 0)
(-0.204598 -0.0474679 0)
(-0.142526 -0.0692119 0)
(-0.0899746 -0.0737493 0)
(-0.0653532 -0.075067 0)
(-0.0594643 -0.0856147 0)
(-0.0534014 -0.102465 0)
(-0.0429606 -0.117226 0)
(-0.0391522 -0.118315 0)
(-0.046638 -0.079074 0)
(-0.00372431 0.0640897 0)
(-0.0101881 0.204727 0)
(-0.0254719 0.193955 0)
(-0.0463524 0.145235 0)
(-0.028199 0.0589712 0)
(0.0013166 -0.0164789 0)
(-0.0689523 -0.00971786 0)
(-0.160234 0.0228174 0)
(-0.195606 0.0416542 0)
(-0.216836 0.0533871 0)
(-0.235007 0.0562591 0)
(-0.25171 0.0461768 0)
(-0.261654 0.017948 0)
(-0.245528 -0.0289881 0)
(-0.187794 -0.0824399 0)
(-0.110704 -0.1064 0)
(-0.0519096 -0.0939319 0)
(-0.0323337 -0.0796909 0)
(-0.0383944 -0.0868436 0)
(-0.0414193 -0.107128 0)
(-0.0291947 -0.121845 0)
(-0.00474112 -0.117473 0)
(0.0149166 -0.0724979 0)
(-0.038146 0.0723499 0)
(0.0844449 -0.100007 0)
(0.359361 -0.0658556 0)
(0.260516 0.00269692 0)
(0.301815 0.013737 0)
(0.419022 0.010594 0)
(0.448529 0.011518 0)
(0.446165 0.0126682 0)
(0.375547 0.0483297 0)
(0.147091 0.0821263 0)
(-0.158371 0.0170073 0)
(-0.20723 -0.0714974 0)
(-0.0704315 -0.112783 0)
(0.0802285 -0.0916329 0)
(-0.0322921 0.065751 0)
(-0.732223 0.132707 0)
(-1.17096 0.0327363 0)
(-0.980952 -0.0906006 0)
(-0.575693 -0.169813 0)
(-0.181756 -0.126574 0)
(-0.0201937 -0.174552 0)
(0.198895 -0.010733 0)
(0.207461 -0.00411142 0)
(0.533365 -0.0762991 0)
(0.745648 -0.0632665 0)
(0.773988 -0.00681397 0)
(0.701528 0.0303604 0)
(0.643681 0.101618 0)
(0.503135 0.204337 0)
(0.136411 0.175876 0)
(-0.0899942 0.0335694 0)
(-0.211126 -0.0822827 0)
(-0.283217 0.07588 0)
(-0.542643 0.309356 0)
(-1.12449 0.355898 0)
(-1.10553 0.0913545 0)
(-0.732549 -0.225525 0)
(-0.353307 -0.392439 0)
(-0.138983 -0.31246 0)
(-0.142138 -0.159736 0)
(0.101948 -0.114913 0)
(0.539372 -0.22282 0)
(0.828503 -0.216992 0)
(0.927655 -0.101763 0)
(0.877465 0.0269767 0)
(0.745347 0.0726489 0)
(0.646565 0.133982 0)
(0.617323 0.282881 0)
(0.411943 0.328807 0)
(0.13839 0.172299 0)
(-0.124264 0.00249252 0)
(-0.384007 0.172786 0)
(-0.647802 0.480534 0)
(-0.872159 0.408569 0)
(-0.618615 -0.019853 0)
(-0.353528 -0.370069 0)
(-0.0123722 -0.501813 0)
(-0.0241088 -0.376201 0)
(-0.17537 -0.176701 0)
(0.325703 -0.37673 0)
(0.634764 -0.41056 0)
(0.821052 -0.311937 0)
(0.885686 -0.120421 0)
(0.816712 0.0763684 0)
(0.654718 0.136434 0)
(0.528106 0.167067 0)
(0.537809 0.314858 0)
(0.500503 0.419017 0)
(0.33632 0.305512 0)
(0.0561532 0.150688 0)
(-0.224931 0.271406 0)
(-0.395033 0.539067 0)
(-0.408865 0.35815 0)
(-0.0385765 -0.12594 0)
(0.0789268 -0.445834 0)
(0.233089 -0.554496 0)
(0.113283 -0.318056 0)
(-0.146851 -0.224049 0)
(0.402009 -0.599629 0)
(0.493592 -0.511272 0)
(0.662661 -0.356381 0)
(0.763603 -0.11505 0)
(0.640113 0.137563 0)
(0.444645 0.210167 0)
(0.348427 0.198705 0)
(0.388987 0.312307 0)
(0.451986 0.431049 0)
(0.429079 0.406198 0)
(0.239053 0.310967 0)
(-0.0658055 0.329604 0)
(-0.019708 0.540098 0)
(0.0718117 0.282805 0)
(0.333098 -0.203135 0)
(0.45173 -0.482756 0)
(0.36323 -0.513483 0)
(0.182987 -0.211399 0)
(-0.058774 -0.307176 0)
(0.214728 -0.701278 0)
(0.165422 -0.59339 0)
(0.410923 -0.404777 0)
(0.544006 -0.0345449 0)
(0.221177 0.313602 0)
(0.173183 0.246983 0)
(0.158442 0.177684 0)
(0.24075 0.276673 0)
(0.341985 0.389624 0)
(0.399503 0.431762 0)
(0.336043 0.417076 0)
(0.0958408 0.386546 0)
(0.188983 0.447879 0)
(0.406805 0.153023 0)
(0.532517 -0.259418 0)
(0.548269 -0.471016 0)
(0.337486 -0.429073 0)
(0.191052 -0.0924179 0)
(0.0288996 -0.301152 0)
(-0.0221431 -0.715088 0)
(-0.0310445 -0.685224 0)
(0.262386 -0.434365 0)
(0.135616 -0.0146108 0)
(-0.18904 0.45214 0)
(0.0912824 0.211985 0)
(0.0420601 0.144093 0)
(0.0921657 0.250384 0)
(0.162893 0.34417 0)
(0.256083 0.423645 0)
(0.315257 0.474355 0)
(0.207653 0.432062 0)
(0.24334 0.3573 0)
(0.421484 0.0680884 0)
(0.542448 -0.217534 0)
(0.442763 -0.403434 0)
(0.181727 -0.330013 0)
(0.149461 0.0195433 0)
(-0.0555906 -0.23098 0)
(-0.208648 -0.72338 0)
(-0.130754 -0.713417 0)
(-0.00570801 -0.315092 0)
(-0.418884 0.0806136 0)
(-0.226177 0.366737 0)
(-0.0972041 0.150261 0)
(-0.246632 0.182996 0)
(-0.203861 0.25982 0)
(-0.144603 0.323437 0)
(-0.0254381 0.386112 0)
(0.160318 0.454009 0)
(0.232269 0.443873 0)
(0.298207 0.338438 0)
(0.437925 0.0923643 0)
(0.424416 -0.206951 0)
(0.213478 -0.315888 0)
(6.94369e-05 -0.232265 0)
(0.110033 0.0765324 0)
(0.0236824 0.19287 0)
(0.0411635 0.202773 0)
(0.0445405 0.148777 0)
(0.0529092 0.0749549 0)
(-0.0209991 0.05355 0)
(-0.116934 0.0823774 0)
(-0.161476 0.0828963 0)
(-0.178296 0.0756047 0)
(-0.196671 0.0790458 0)
(-0.219044 0.0825462 0)
(-0.246018 0.0733241 0)
(-0.271178 0.0301314 0)
(-0.272938 -0.0575088 0)
(-0.235029 -0.131246 0)
(-0.162465 -0.147821 0)
(-0.0859141 -0.113866 0)
(-0.0504718 -0.0785155 0)
(-0.0558869 -0.0794213 0)
(-0.0611162 -0.107231 0)
(-0.0293862 -0.137992 0)
(0.0428249 -0.153276 0)
(0.122877 -0.104906 0)
(0.187847 0.0174054 0)
(0.0607815 0.179877 0)
(0.114933 0.205289 0)
(0.0990305 0.131422 0)
(0.0316152 0.093552 0)
(-0.0943647 0.098917 0)
(-0.16378 0.0856988 0)
(-0.197509 0.0614383 0)
(-0.238859 0.0592696 0)
(-0.283383 0.064035 0)
(-0.329481 0.0685674 0)
(-0.402429 0.0756319 0)
(-0.513983 0.0623084 0)
(-0.604485 -0.00499934 0)
(-0.609568 -0.13243 0)
(-0.505398 -0.231604 0)
(-0.353127 -0.178533 0)
(-0.259365 -0.0948005 0)
(-0.211865 -0.0735688 0)
(-0.170938 -0.119959 0)
(-0.0947607 -0.219162 0)
(-0.0122484 -0.276079 0)
(0.0475948 -0.220289 0)
(0.0982818 -0.111058 0)
(0.0691529 -0.116839 0)
(0.167234 0.111415 0)
(0.0701441 0.243386 0)
(-0.116102 0.340442 0)
(-0.334297 0.309901 0)
(-0.525672 0.185986 0)
(-0.646435 0.114461 0)
(-0.69378 0.132178 0)
(-0.786638 0.159998 0)
(-0.986992 0.193388 0)
(-1.25615 0.244369 0)
(-1.46015 0.218681 0)
(-1.42525 -0.0386487 0)
(-1.19559 -0.396138 0)
(-0.991258 -0.497772 0)
(-0.819972 -0.332473 0)
(-0.69627 -0.181152 0)
(-0.59231 -0.176449 0)
(-0.509356 -0.284294 0)
(-0.470859 -0.361261 0)
(-0.488242 -0.341195 0)
(-0.508787 -0.257648 0)
(-0.524722 -0.131774 0)
(-0.213105 0.0131586 0)
(-0.416631 0.36951 0)
(-0.74097 0.422131 0)
(-0.894158 0.404306 0)
(-0.91424 0.418106 0)
(-0.971355 0.382844 0)
(-1.12027 0.342921 0)
(-1.22801 0.344852 0)
(-1.34417 0.418445 0)
(-1.54847 0.524 0)
(-1.76471 0.504618 0)
(-1.71134 0.183353 0)
(-1.47339 -0.308788 0)
(-1.29312 -0.631976 0)
(-1.20063 -0.625846 0)
(-1.11651 -0.450697 0)
(-1.03505 -0.303572 0)
(-0.98052 -0.282835 0)
(-1.01996 -0.277448 0)
(-1.15965 -0.216092 0)
(-1.28172 -0.109423 0)
(-1.31009 -0.00829991 0)
(-1.27929 0.100507 0)
(-0.494119 0.496627 0)
(-0.946659 0.661972 0)
(-1.19565 0.556375 0)
(-1.32098 0.48544 0)
(-1.55507 0.413025 0)
(-1.56835 0.24175 0)
(-1.52447 0.164072 0)
(-1.44101 0.249333 0)
(-1.32907 0.418349 0)
(-1.26068 0.634056 0)
(-1.38935 0.651611 0)
(-1.33608 0.249553 0)
(-1.39173 -0.434548 0)
(-1.38209 -0.697875 0)
(-1.34458 -0.665736 0)
(-1.28545 -0.48367 0)
(-1.25551 -0.287409 0)
(-1.31743 -0.153892 0)
(-1.44575 -0.0961975 0)
(-1.56194 -0.110455 0)
(-1.65482 -0.230419 0)
(-1.73215 -0.299017 0)
(-1.75767 -0.175072 0)
(-0.577908 1.03662 0)
(-0.776962 0.987871 0)
(-0.949128 0.821457 0)
(-1.20306 0.812228 0)
(-1.44536 0.68999 0)
(-1.53061 0.392643 0)
(-1.51395 0.23434 0)
(-1.40112 0.188432 0)
(-1.29924 0.212587 0)
(-1.20418 0.367607 0)
(-1.13503 0.477498 0)
(-1.19626 0.280907 0)
(-1.39516 -0.318501 0)
(-1.46108 -0.705751 0)
(-1.45717 -0.680936 0)
(-1.41029 -0.495077 0)
(-1.38166 -0.250159 0)
(-1.4273 -0.0623914 0)
(-1.53982 -0.0373929 0)
(-1.62112 -0.0301063 0)
(-1.67413 0.000432643 0)
(-1.66903 -0.0180269 0)
(-1.54951 -0.0628728 0)
(-0.716641 1.55688 0)
(-0.32619 1.25571 0)
(-0.510923 1.29429 0)
(-0.70115 1.0702 0)
(-0.853225 0.805892 0)
(-0.932295 0.45316 0)
(-1.04708 0.163262 0)
(-1.22443 0.202167 0)
(-1.28141 0.291381 0)
(-1.26624 0.448835 0)
(-1.25543 0.58881 0)
(-1.31752 0.49812 0)
(-1.35882 -0.166565 0)
(-1.42272 -0.671189 0)
(-1.45036 -0.699139 0)
(-1.41962 -0.547319 0)
(-1.37101 -0.309669 0)
(-1.3433 0.00317524 0)
(-1.36147 0.0935565 0)
(-1.33628 0.00497675 0)
(-1.25586 -0.143878 0)
(-1.1445 -0.295697 0)
(-0.936099 -0.397165 0)
(-0.841637 2.0265 0)
(-0.0247956 1.32736 0)
(-0.517099 1.54192 0)
(-0.5166 1.14708 0)
(-0.63817 0.842231 0)
(-0.746511 0.565601 0)
(-0.939198 0.370029 0)
(-1.10846 0.276364 0)
(-1.2382 0.275606 0)
(-1.33268 0.482041 0)
(-1.32726 0.649555 0)
(-1.27593 0.486426 0)
(-1.24463 -0.125328 0)
(-1.33901 -0.598272 0)
(-1.41731 -0.69829 0)
(-1.3817 -0.568571 0)
(-1.29025 -0.368379 0)
(-1.15171 -0.15616 0)
(-0.922621 -0.0683645 0)
(-0.816579 -0.168851 0)
(-0.72478 -0.27152 0)
(-0.64188 -0.409742 0)
(-0.503336 -0.538875 0)
(-0.872287 2.3442 0)
(0.42792 1.29042 0)
(-0.601161 1.62286 0)
(-0.486408 1.20254 0)
(-0.607008 0.954977 0)
(-0.692247 0.739749 0)
(-0.830313 0.599692 0)
(-0.978364 0.488818 0)
(-1.11754 0.418446 0)
(-1.19149 0.461462 0)
(-1.16375 0.525141 0)
(-1.09505 0.345952 0)
(-1.12737 -0.10412 0)
(-1.29927 -0.493334 0)
(-1.44211 -0.676349 0)
(-1.43733 -0.647432 0)
(-1.27039 -0.477825 0)
(-1.08358 -0.302587 0)
(-0.861514 -0.163538 0)
(-0.714242 -0.170614 0)
(-0.596026 -0.249309 0)
(-0.451271 -0.38732 0)
(-0.262359 -0.582753 0)
(-0.819069 2.36213 0)
(0.41594 1.44589 0)
(-0.669708 1.79565 0)
(-0.552791 1.29607 0)
(-0.710353 1.0406 0)
(-0.763977 0.82705 0)
(-0.800711 0.683364 0)
(-0.832652 0.585129 0)
(-0.881787 0.527497 0)
(-0.916463 0.515981 0)
(-0.899855 0.495423 0)
(-0.876272 0.352516 0)
(-0.964683 0.0488719 0)
(-1.17525 -0.30536 0)
(-1.38555 -0.582498 0)
(-1.51703 -0.719329 0)
(-1.53066 -0.721551 0)
(-1.33955 -0.571402 0)
(-1.08714 -0.445476 0)
(-0.825163 -0.389266 0)
(-0.560646 -0.477758 0)
(-0.315827 -0.716609 0)
(-0.118462 -0.926591 0)
(-0.517298 2.27952 0)
(-0.113111 1.75076 0)
(-0.759653 1.98076 0)
(-0.748763 1.44491 0)
(-0.945346 1.122 0)
(-0.967931 0.85172 0)
(-0.931136 0.665311 0)
(-0.849465 0.561417 0)
(-0.769622 0.51593 0)
(-0.699098 0.507747 0)
(-0.641265 0.491827 0)
(-0.623295 0.403989 0)
(-0.707377 0.209408 0)
(-0.910365 -0.0668584 0)
(-1.15526 -0.339068 0)
(-1.39937 -0.534106 0)
(-1.63762 -0.65666 0)
(-1.7994 -0.715103 0)
(-1.72192 -0.814157 0)
(-1.31667 -0.888671 0)
(-0.85651 -1.00764 0)
(-0.582474 -1.03908 0)
(-0.396663 -0.922856 0)
(-0.355431 2.66354 0)
(-0.435169 2.07651 0)
(-0.887243 2.13212 0)
(-0.983006 1.64548 0)
(-1.23311 1.21947 0)
(-1.25117 0.841949 0)
(-1.1685 0.56648 0)
(-0.996482 0.425301 0)
(-0.810853 0.380162 0)
(-0.637731 0.388234 0)
(-0.489379 0.415478 0)
(-0.394242 0.411334 0)
(-0.391427 0.334892 0)
(-0.512087 0.157765 0)
(-0.722279 -0.0905734 0)
(-0.944216 -0.293051 0)
(-1.15134 -0.432881 0)
(-1.2927 -0.598196 0)
(-1.20113 -0.849361 0)
(-0.893559 -1.09485 0)
(-0.699453 -1.14033 0)
(-0.575195 -1.13421 0)
(-0.482434 -1.03727 0)
(-0.181077 3.13403 0)
(-0.475009 2.46777 0)
(-1.0317 2.28016 0)
(-1.15633 1.89146 0)
(-1.47186 1.35265 0)
(-1.5303 0.820002 0)
(-1.43183 0.398941 0)
(-1.19128 0.185803 0)
(-0.911365 0.142777 0)
(-0.659791 0.17721 0)
(-0.449377 0.238883 0)
(-0.277393 0.301717 0)
(-0.165465 0.329538 0)
(-0.152727 0.287702 0)
(-0.254521 0.142498 0)
(-0.428348 -0.0739891 0)
(-0.634875 -0.307877 0)
(-0.801553 -0.599031 0)
(-0.718162 -1.02438 0)
(-0.604152 -1.30407 0)
(-0.576611 -1.34689 0)
(-0.550111 -1.25679 0)
(-0.54189 -1.09246 0)
(0.155202 3.22236 0)
(-0.0629767 3.25233 0)
(-0.919197 2.51301 0)
(-1.14924 2.1464 0)
(-1.50597 1.52572 0)
(-1.63797 0.803228 0)
(-1.56787 0.177183 0)
(-1.31938 -0.178242 0)
(-0.97416 -0.208489 0)
(-0.653477 -0.0948125 0)
(-0.415521 0.0216888 0)
(-0.227985 0.125223 0)
(-0.0743665 0.205333 0)
(0.0319983 0.253772 0)
(0.0495051 0.230177 0)
(-0.0178834 0.10686 0)
(-0.170063 -0.101899 0)
(-0.366872 -0.436036 0)
(-0.464769 -1.03415 0)
(-0.516956 -1.25768 0)
(-0.565367 -1.30715 0)
(-0.604945 -1.22878 0)
(-0.621454 -1.02423 0)
(0.503874 2.82846 0)
(0.671302 3.926 0)
(-0.0965258 3.17426 0)
(-0.678801 2.49646 0)
(-1.10722 1.7745 0)
(-1.28982 0.873418 0)
(-1.26482 0.000902652 0)
(-1.14999 -0.549359 0)
(-0.856445 -0.620679 0)
(-0.536047 -0.406407 0)
(-0.293036 -0.181306 0)
(-0.137572 -0.0306451 0)
(-0.0172904 0.0705982 0)
(0.0851423 0.146511 0)
(0.158848 0.193774 0)
(0.166434 0.165763 0)
(0.0939795 0.0375602 0)
(-0.0724567 -0.235977 0)
(-0.355421 -0.868371 0)
(-0.474711 -1.18372 0)
(-0.556211 -1.26122 0)
(-0.615998 -1.17395 0)
(-0.667236 -0.867058 0)
(0.598275 1.89358 0)
(1.26966 3.90884 0)
(1.14272 3.96342 0)
(0.530564 3.17479 0)
(-0.0226758 2.21155 0)
(-0.255659 1.12702 0)
(-0.267467 0.0602141 0)
(-0.439206 -0.650137 0)
(-0.414082 -0.876278 0)
(-0.249272 -0.658301 0)
(-0.0812852 -0.347742 0)
(0.0175513 -0.136334 0)
(0.0805732 -0.0119722 0)
(0.13099 0.0703464 0)
(0.182272 0.135991 0)
(0.213899 0.166236 0)
(0.188447 0.126711 0)
(0.0799473 -0.0397018 0)
(-0.215466 -0.559387 0)
(-0.440706 -1.08325 0)
(-0.531852 -1.18598 0)
(-0.619465 -1.1181 0)
(-0.675752 -0.782698 0)
(0.289935 0.839879 0)
(1.38432 3.19474 0)
(1.92789 4.08362 0)
(1.82604 3.73814 0)
(1.44245 2.76391 0)
(1.09296 1.51902 0)
(0.84925 0.395406 0)
(0.60601 -0.411053 0)
(0.294453 -0.823382 0)
(0.182633 -0.724829 0)
(0.192166 -0.417606 0)
(0.208806 -0.174439 0)
(0.212323 -0.0336012 0)
(0.210434 0.0509438 0)
(0.21153 0.114297 0)
(0.217581 0.163297 0)
(0.203382 0.177884 0)
(0.137416 0.100833 0)
(-0.0643973 -0.282743 0)
(-0.384168 -0.928017 0)
(-0.500347 -1.07762 0)
(-0.609515 -1.02118 0)
(-0.723325 -0.601912 0)
(-0.0762291 0.18684 0)
(1.05172 2.17671 0)
(1.98709 3.52547 0)
(2.38513 3.72579 0)
(2.37122 3.04912 0)
(2.10028 1.90073 0)
(1.75697 0.775797 0)
(1.38031 -0.0723779 0)
(0.969537 -0.552961 0)
(0.646383 -0.571747 0)
(0.480689 -0.342755 0)
(0.398591 -0.130822 0)
(0.343682 -0.00121644 0)
(0.299814 0.0761462 0)
(0.262568 0.133518 0)
(0.233155 0.182159 0)
(0.202648 0.220348 0)
(0.156561 0.207901 0)
(0.0133369 -0.0447803 0)
(-0.26886 -0.647923 0)
(-0.469456 -0.952966 0)
(-0.572008 -0.905324 0)
(-0.765833 -0.380668 0)
(-0.136116 -0.126399 0)
(0.533153 1.21597 0)
(1.48348 2.67676 0)
(2.14702 3.27702 0)
(2.42084 2.96771 0)
(2.36542 2.0951 0)
(2.09778 1.12179 0)
(1.74121 0.315579 0)
(1.33524 -0.189554 0)
(0.951877 -0.287038 0)
(0.6951 -0.160696 0)
(0.546686 -0.0212042 0)
(0.451336 0.071506 0)
(0.379677 0.132118 0)
(0.319842 0.181166 0)
(0.267358 0.225033 0)
(0.215087 0.268107 0)
(0.165905 0.298659 0)
(0.0412017 0.147522 0)
(-0.233326 -0.408071 0)
(-0.448413 -0.793042 0)
(-0.545759 -0.752528 0)
(-0.726706 -0.349752 0)
(-0.146169 -0.19741 0)
(0.0212902 0.600859 0)
(0.77575 1.93425 0)
(1.45684 2.71115 0)
(1.87115 2.70149 0)
(2.00582 2.12971 0)
(1.91654 1.35199 0)
(1.70315 0.634522 0)
(1.38153 0.163278 0)
(1.04562 0.0251178 0)
(0.792149 0.0553188 0)
(0.63092 0.116458 0)
(0.522659 0.165425 0)
(0.440362 0.204779 0)
(0.371725 0.243513 0)
(0.310979 0.28315 0)
(0.247933 0.325398 0)
(0.192217 0.382183 0)
(0.0976155 0.330638 0)
(-0.185794 -0.156484 0)
(-0.441651 -0.626993 0)
(-0.534839 -0.6217 0)
(-0.704347 -0.285198 0)
(-0.16201 -0.0919282 0)
(-0.284007 0.400079 0)
(0.103521 1.37869 0)
(0.685725 2.17529 0)
(1.1386 2.34512 0)
(1.4086 2.00059 0)
(1.50462 1.40661 0)
(1.43558 0.821765 0)
(1.23364 0.444153 0)
(0.992211 0.285005 0)
(0.79538 0.24552 0)
(0.657976 0.247345 0)
(0.558296 0.260446 0)
(0.479904 0.280243 0)
(0.413974 0.30834 0)
(0.35644 0.344296 0)
(0.297261 0.385879 0)
(0.24203 0.454955 0)
(0.183257 0.488263 0)
(-0.0892406 0.155464 0)
(-0.398525 -0.442215 0)
(-0.484309 -0.518369 0)
(-0.637584 -0.200584 0)
(-0.154091 0.122759 0)
(-0.391349 0.422464 0)
(-0.309587 1.04053 0)
(0.100259 1.6955 0)
(0.541722 1.93675 0)
(0.882712 1.7454 0)
(1.07628 1.326 0)
(1.11222 0.910867 0)
(1.018 0.621089 0)
(0.875299 0.461719 0)
(0.746795 0.386352 0)
(0.645888 0.353234 0)
(0.566265 0.342691 0)
(0.501191 0.347614 0)
(0.446271 0.366051 0)
(0.399712 0.397636 0)
(0.355711 0.438734 0)
(0.312902 0.508214 0)
(0.285885 0.602736 0)
(0.134708 0.470513 0)
(-0.271026 -0.221894 0)
(-0.417056 -0.403912 0)
(-0.506614 -0.210329 0)
(-0.108758 0.356815 0)
(-0.340591 0.553838 0)
(-0.382995 0.899192 0)
(-0.157887 1.31665 0)
(0.199927 1.52254 0)
(0.529779 1.43454 0)
(0.752919 1.18426 0)
(0.837747 0.913391 0)
(0.81694 0.70076 0)
(0.751197 0.561246 0)
(0.678605 0.47694 0)
(0.612879 0.429 0)
(0.55647 0.405569 0)
(0.508884 0.40029 0)
(0.469485 0.410298 0)
(0.438324 0.435667 0)
(0.414843 0.474022 0)
(0.396717 0.533773 0)
(0.39887 0.64726 0)
(0.403906 0.697786 0)
(0.0412597 0.184206 0)
(-0.241843 -0.265744 0)
(-0.368502 -0.275852 0)
(-0.0548691 0.533136 0)
(-0.215492 0.697719 0)
(-0.265734 0.863112 0)
(-0.138744 1.08535 0)
(0.111131 1.21256 0)
(0.366719 1.17809 0)
(0.550864 1.03784 0)
(0.641554 0.868224 0)
(0.661471 0.71915 0)
(0.643035 0.606315 0)
(0.609072 0.527881 0)
(0.571819 0.477186 0)
(0.536954 0.447935 0)
(0.507117 0.435771 0)
(0.484111 0.438179 0)
(0.469381 0.455095 0)
(0.465649 0.48613 0)
(0.474218 0.530166 0)
(0.499938 0.61744 0)
(0.590917 0.753615 0)
(0.492234 0.562364 0)
(0.100484 0.0130592 0)
(-0.0998003 -0.19863 0)
(-0.0184821 0.624084 0)
(-0.0995884 0.78779 0)
(-0.12006 0.845867 0)
(-0.0349909 0.944293 0)
(0.12615 1.00872 0)
(0.29727 0.994263 0)
(0.430946 0.91609 0)
(0.512058 0.810341 0)
(0.548555 0.706151 0)
(0.555439 0.618306 0)
(0.546091 0.550982 0)
(0.529911 0.503043 0)
(0.512842 0.471794 0)
(0.49861 0.454739 0)
(0.490148 0.450043 0)
(0.489829 0.457066 0)
(0.501411 0.47623 0)
(0.529305 0.503094 0)
(0.573728 0.546594 0)
(0.687454 0.656016 0)
(0.802165 0.690596 0)
(0.675449 0.369029 0)
(0.481884 0.0413043 0)
(-0.00310468 0.653805 0)
(-0.0264447 0.818135 0)
(-0.0166347 0.817621 0)
(0.0476156 0.848154 0)
(0.150712 0.876805 0)
(0.262743 0.869372 0)
(0.358363 0.822972 0)
(0.426265 0.753717 0)
(0.466775 0.679423 0)
(0.486076 0.611685 0)
(0.491718 0.555549 0)
(0.490278 0.512079 0)
(0.486766 0.480601 0)
(0.484879 0.459874 0)
(0.487745 0.44863 0)
(0.498074 0.445746 0)
(0.519553 0.451013 0)
(0.556893 0.460738 0)
(0.611152 0.469972 0)
(0.707089 0.501203 0)
(0.87757 0.56081 0)
(0.978502 0.463231 0)
(0.974507 0.198014 0)
(0.0014808 0.654354 0)
(0.0104078 0.81025 0)
(0.0395433 0.780618 0)
(0.0917552 0.777893 0)
(0.162471 0.788898 0)
(0.239708 0.782662 0)
(0.310463 0.751293 0)
(0.366622 0.702695 0)
(0.406025 0.647929 0)
(0.430868 0.595018 0)
(0.445301 0.548205 0)
(0.453666 0.509173 0)
(0.459775 0.47817 0)
(0.466791 0.454667 0)
(0.477538 0.437742 0)
(0.494484 0.426093 0)
(0.520816 0.418536 0)
(0.55948 0.412138 0)
(0.613612 0.401009 0)
(0.68339 0.377179 0)
(0.807652 0.368718 0)
(0.952151 0.318421 0)
(1.04611 0.169688 0)
(0.003756 0.643216 0)
(0.0269178 0.783455 0)
(0.0647021 0.739894 0)
(0.109778 0.723392 0)
(0.163014 0.725518 0)
(0.220504 0.71846 0)
(0.275521 0.694388 0)
(0.322533 0.657826 0)
(0.359165 0.615691 0)
(0.385997 0.573224 0)
(0.405271 0.533564 0)
(0.41976 0.498311 0)
(0.432197 0.468023 0)
(0.445063 0.442514 0)
(0.460664 0.421069 0)
(0.48094 0.402424 0)
(0.508351 0.384999 0)
(0.54407 0.365909 0)
(0.59155 0.342394 0)
(0.644627 0.300812 0)
(0.714947 0.249302 0)
(0.808803 0.181786 0)
(0.896103 0.0778776 0)
(0.00593903 0.626093 0)
(0.0343542 0.749238 0)
(0.0739616 0.699604 0)
(0.113984 0.678338 0)
(0.157208 0.67602 0)
(0.203039 0.667924 0)
(0.247841 0.647682 0)
(0.287957 0.618375 0)
(0.321497 0.584435 0)
(0.348462 0.549191 0)
(0.370049 0.514808 0)
(0.388001 0.482574 0)
(0.404208 0.453065 0)
(0.420504 0.426237 0)
(0.438637 0.401532 0)
(0.460041 0.377838 0)
(0.486376 0.353728 0)
(0.518058 0.326591 0)
(0.557127 0.295133 0)
(0.600271 0.251449 0)
(0.645093 0.193964 0)
(0.694226 0.122814 0)
(0.743279 0.0355705 0)
(0.00769319 0.605658 0)
(0.0375052 0.713296 0)
(0.0756832 0.66165 0)
(0.111572 0.639528 0)
(0.148395 0.63506 0)
(0.186756 0.626204 0)
(0.224563 0.608185 0)
(0.259422 0.58344 0)
(0.289988 0.5549 0)
(0.316096 0.52464 0)
(0.338388 0.494095 0)
(0.357949 0.464221 0)
(0.376054 0.435499 0)
(0.394008 0.407934 0)
(0.413057 0.381099 0)
(0.434245 0.354097 0)
(0.458556 0.325776 0)
(0.486248 0.29418 0)
(0.517869 0.258059 0)
(0.552308 0.21398 0)
(0.586018 0.159679 0)
(0.616105 0.0939664 0)
(0.64175 0.0178348 0)
(0.00869795 0.583725 0)
(0.0381261 0.678051 0)
(0.0737241 0.626675 0)
(0.106055 0.605357 0)
(0.138298 0.59989 0)
(0.171427 0.590581 0)
(0.204145 0.574009 0)
(0.234867 0.552274 0)
(0.262683 0.527375 0)
(0.287415 0.500593 0)
(0.309407 0.472852 0)
(0.329329 0.444827 0)
(0.348026 0.416884 0)
(0.366397 0.389037 0)
(0.385291 0.360958 0)
(0.405433 0.33197 0)
(0.427356 0.30115 0)
(0.4512 0.267168 0)
(0.4768 0.228799 0)
(0.503369 0.184304 0)
(0.528921 0.132485 0)
(0.550235 0.0722813 0)
(0.566102 0.0048134 0)
(0.00905352 0.561588 0)
(0.0371578 0.64458 0)
(0.0698941 0.594729 0)
(0.0990952 0.574882 0)
(0.127759 0.569007 0)
(0.15692 0.559484 0)
(0.185707 0.543959 0)
(0.213047 0.524311 0)
(0.238337 0.501946 0)
(0.261428 0.477645 0)
(0.282502 0.451991 0)
(0.30197 0.425446 0)
(0.320377 0.398272 0)
(0.338321 0.37048 0)
(0.356358 0.341817 0)
(0.37495 0.311787 0)
(0.394365 0.279675 0)
(0.414596 0.244582 0)
(0.435315 0.205576 0)
(0.455694 0.161605 0)
(0.474583 0.112149 0)
(0.489837 0.0568353 0)
(0.500505 -0.00316423 0)
(0.00898474 0.54008 0)
(0.0352733 0.613384 0)
(0.0651511 0.565666 0)
(0.091546 0.547511 0)
(0.117222 0.541538 0)
(0.143166 0.531966 0)
(0.168743 0.517265 0)
(0.193208 0.499139 0)
(0.21616 0.478607 0)
(0.237483 0.456134 0)
(0.257269 0.432083 0)
(0.27576 0.406763 0)
(0.293298 0.380357 0)
(0.310262 0.352871 0)
(0.327 0.324114 0)
(0.343776 0.29373 0)
(0.360709 0.2612 0)
(0.377693 0.225913 0)
(0.394411 0.187263 0)
(0.410158 0.14463 0)
(0.424113 0.0978048 0)
(0.434919 0.0467292 0)
(0.44173 -0.00758185 0)
(0.00867744 0.519658 0)
(0.0329369 0.584675 0)
(0.060037 0.53931 0)
(0.0838744 0.522864 0)
(0.106937 0.516955 0)
(0.130128 0.507438 0)
(0.152962 0.493424 0)
(0.174894 0.476468 0)
(0.195658 0.457319 0)
(0.215163 0.436249 0)
(0.233444 0.413479 0)
(0.250637 0.389217 0)
(0.266943 0.363588 0)
(0.28259 0.336596 0)
(0.297778 0.308107 0)
(0.312642 0.277867 0)
(0.327209 0.245522 0)
(0.341339 0.210663 0)
(0.354747 0.172908 0)
(0.366892 0.131914 0)
(0.377153 0.0876048 0)
(0.384566 0.0400021 0)
(0.388704 -0.010111 0)
(0.00825775 0.500536 0)
(0.0304421 0.558512 0)
(0.054854 0.515495 0)
(0.0763342 0.500683 0)
(0.0970314 0.494917 0)
(0.11778 0.485517 0)
(0.138182 0.472101 0)
(0.157824 0.456086 0)
(0.176523 0.43803 0)
(0.194205 0.418085 0)
(0.210871 0.396384 0)
(0.226585 0.373071 0)
(0.241455 0.348233 0)
(0.255602 0.321874 0)
(0.269131 0.293904 0)
(0.282092 0.264149 0)
(0.294459 0.232371 0)
(0.306088 0.198301 0)
(0.316733 0.161697 0)
(0.325993 0.122371 0)
(0.333428 0.0803247 0)
(0.338383 0.0356324 0)
(0.340705 -0.0109806 0)
(0.00780366 0.482773 0)
(0.0279587 0.534869 0)
(0.0497637 0.494082 0)
(0.0690477 0.480779 0)
(0.0875531 0.475184 0)
(0.106076 0.465938 0)
(0.12427 0.453056 0)
(0.141802 0.437827 0)
(0.158545 0.420671 0)
(0.174434 0.401667 0)
(0.189448 0.380895 0)
(0.203605 0.358457 0)
(0.216949 0.334418 0)
(0.229533 0.308785 0)
(0.241392 0.2815 0)
(0.252527 0.252446 0)
(0.262882 0.221464 0)
(0.272323 0.188376 0)
(0.28065 0.153031 0)
(0.287575 0.115323 0)
(0.292811 0.0752934 0)
(0.29595 0.0330276 0)
(0.296889 -0.0108637 0)
(0.00735369 0.46636 0)
(0.0255672 0.513673 0)
(0.0448484 0.47497 0)
(0.0620551 0.463024 0)
(0.0784874 0.457589 0)
(0.0949513 0.448512 0)
(0.111103 0.436115 0)
(0.126665 0.421564 0)
(0.141552 0.405176 0)
(0.155701 0.386983 0)
(0.169077 0.367039 0)
(0.181668 0.345421 0)
(0.193474 0.322181 0)
(0.204502 0.297329 0)
(0.214742 0.270831 0)
(0.224161 0.242609 0)
(0.232685 0.212557 0)
(0.240192 0.180557 0)
(0.246519 0.146508 0)
(0.251453 0.11035 0)
(0.254795 0.0721235 0)
(0.256255 0.0318987 0)
(0.255845 -0.00984607 0)
(0.00691272 0.451226 0)
(0.0232742 0.494764 0)
(0.0401262 0.45806 0)
(0.0553304 0.447301 0)
(0.0697658 0.44198 0)
(0.0842959 0.433071 0)
(0.0985254 0.421114 0)
(0.112225 0.407155 0)
(0.125339 0.391435 0)
(0.137804 0.373957 0)
(0.149576 0.354764 0)
(0.160622 0.333918 0)
(0.170913 0.311466 0)
(0.180419 0.287424 0)
(0.1891 0.261773 0)
(0.196895 0.234466 0)
(0.203711 0.205432 0)
(0.209427 0.174589 0)
(0.213891 0.141866 0)
(0.216921 0.107224 0)
(0.218354 0.070693 0)
(0.217959 0.0323316 0)
(0.215844 -0.0074407 0)
(0.0064726 0.437478 0)
(0.0210801 0.478154 0)
(0.0356227 0.443402 0)
(0.0488545 0.433643 0)
(0.0613424 0.428362 0)
(0.0740385 0.41961 0)
(0.0864325 0.408054 0)
(0.0983496 0.394622 0)
(0.109757 0.379488 0)
(0.120587 0.362647 0)
(0.130791 0.344139 0)
(0.140317 0.324021 0)
(0.149114 0.30234 0)
(0.157124 0.279118 0)
(0.164277 0.254356 0)
(0.17048 0.228026 0)
(0.17562 0.200086 0)
(0.179555 0.17048 0)
(0.182122 0.13916 0)
(0.183138 0.106094 0)
(0.182458 0.0712904 0)
(0.179932 0.0347663 0)
(0.175728 -0.00315695 0)
(0.00598102 0.424588 0)
(0.0188162 0.463149 0)
(0.0311183 0.430589 0)
(0.042353 0.421667 0)
(0.0528759 0.416311 0)
(0.0637512 0.40768 0)
(0.0742964 0.396483 0)
(0.084427 0.383519 0)
(0.0941131 0.368905 0)
(0.103282 0.352639 0)
(0.111882 0.334769 0)
(0.119849 0.315353 0)
(0.12711 0.294443 0)
(0.133583 0.272073 0)
(0.13917 0.248261 0)
(0.143753 0.223001 0)
(0.147194 0.196273 0)
(0.149329 0.168043 0)
(0.149978 0.138276 0)
(0.148967 0.106925 0)
(0.146187 0.0739295 0)
(0.141609 0.0391833 0)
(0.135495 0.00272925 0)
(0.0055604 0.414794 0)
(0.0169693 0.451894 0)
(0.0273417 0.421165 0)
(0.0367091 0.41282 0)
(0.0454958 0.407353 0)
(0.0548052 0.398854 0)
(0.0637372 0.387963 0)
(0.0723137 0.375397 0)
(0.0804999 0.361211 0)
(0.0882184 0.345424 0)
(0.0954208 0.328091 0)
(0.102025 0.309275 0)
(0.107942 0.289039 0)
(0.113068 0.267434 0)
(0.117282 0.244493 0)
(0.120441 0.220233 0)
(0.122379 0.194657 0)
(0.122906 0.167757 0)
(0.121816 0.139509 0)
(0.118917 0.109847 0)