/*--------------------------------*- C++ -*----------------------------------*\
| =========                 |                                                 |
| \\      /  F ield         | OpenFOAM: The Open Source CFD Toolbox           |
|  \\    /   O peration     | Version:  2206                                  |
|   \\  /    A nd           | Website:  www.openfoam.com                      |
|    \\/     M anipulation  |                                                 |
\*---------------------------------------------------------------------------*/
FoamFile
{
    version     2.0;
    format      ascii;
    arch        "LSB;label=32;scalar=64";
    class       surfaceScalarField;
    location    "0.225";
    object      alphaPhi0.water;
}
// * * * * * * * * * * * * * * * * * * * * * * * * * * * * * * * * * * * * * //

dimensions      [0 3 -1 0 0 0 0];

oriented        oriented;

internalField   nonuniform List<scalar> 
4432
(
1.21516e-06
-1.21516e-06
6.34111e-06
-5.12596e-06
1.25673e-05
-6.22616e-06
1.84378e-05
-5.87049e-06
2.36709e-05
-5.23313e-06
2.84608e-05
-4.78985e-06
3.30596e-05
-4.59888e-06
3.76306e-05
-4.57099e-06
4.22265e-05
-4.59593e-06
4.68142e-05
-4.5877e-06
5.13024e-05
-4.48814e-06
5.55538e-05
-4.25145e-06
5.93834e-05
-3.82953e-06
6.25277e-05
-3.14431e-06
6.4612e-05
-2.0843e-06
6.47747e-05
-1.62729e-07
6.13068e-05
3.46794e-06
5.23143e-05
8.99248e-06
3.62077e-05
1.61066e-05
1.36565e-05
2.25512e-05
-8.25642e-06
2.27495e-05
-1.47834e-05
8.64187e-06
-1.62388e-05
1.27106e-06
-2.48622e-06
6.4138e-06
-1.02687e-05
1.26407e-05
-1.2453e-05
1.85104e-05
-1.17402e-05
2.37435e-05
-1.04662e-05
2.85427e-05
-9.58908e-06
3.31647e-05
-9.22095e-06
3.77688e-05
-9.17507e-06
4.24032e-05
-9.23029e-06
4.70339e-05
-9.21846e-06
5.15723e-05
-9.02653e-06
5.58856e-05
-8.5647e-06
5.97911e-05
-7.73501e-06
6.30534e-05
-6.40668e-06
6.53524e-05
-4.38325e-06
6.669e-05
-1.5004e-06
6.72876e-05
2.87038e-06
6.64742e-05
9.80587e-06
6.1525e-05
2.10558e-05
4.82472e-05
3.5829e-05
2.63575e-05
4.47183e-05
6.17943e-06
2.93482e-05
-1.03585e-05
1.35358e-06
-3.8398e-06
6.50938e-06
-1.54245e-05
1.26907e-05
-1.86344e-05
1.84944e-05
-1.75438e-05
2.36752e-05
-1.56471e-05
2.84524e-05
-1.43662e-05
3.30826e-05
-1.38512e-05
3.77156e-05
-1.3808e-05
4.23908e-05
-1.39056e-05
4.70724e-05
-1.39e-05
5.16744e-05
-1.36286e-05
5.60706e-05
-1.29609e-05
6.00906e-05
-1.1755e-05
6.35125e-05
-9.82858e-06
6.60647e-05
-6.93549e-06
6.73416e-05
-2.77733e-06
6.71136e-05
3.09843e-06
6.56649e-05
1.12545e-05
6.38296e-05
2.28912e-05
6.02264e-05
3.94322e-05
4.87786e-05
5.6166e-05
2.56086e-05
5.25211e-05
1.31586e-05
1.4771e-06
-5.3169e-06
6.66244e-06
-2.06098e-05
1.2777e-05
-2.47489e-05
1.84804e-05
-2.32472e-05
2.35877e-05
-2.07544e-05
2.83412e-05
-1.91197e-05
3.29918e-05
-1.85019e-05
3.76736e-05
-1.84898e-05
4.24145e-05
-1.86464e-05
4.71756e-05
-1.86611e-05
5.1876e-05
-1.8329e-05
5.63989e-05
-1.74838e-05
6.05885e-05
-1.59446e-05
6.42401e-05
-1.34802e-05
6.70874e-05
-9.78281e-06
6.8781e-05
-4.47094e-06
6.89508e-05
2.92862e-06
6.7338e-05
1.28673e-05
6.44817e-05
2.57475e-05
6.1794e-05
4.21199e-05
5.55817e-05
6.23784e-05
3.56261e-05
7.24769e-05
4.72848e-05
1.64165e-06
-6.95854e-06
6.86365e-06
-2.58318e-05
1.28842e-05
-3.07695e-05
1.84545e-05
-2.88175e-05
2.34705e-05
-2.57704e-05
2.82001e-05
-2.38492e-05
3.28816e-05
-2.31834e-05
3.76269e-05
-2.32351e-05
4.24501e-05
-2.34695e-05
4.73104e-05
-2.35214e-05
5.21338e-05
-2.31524e-05
5.68171e-05
-2.21671e-05
6.1223e-05
-2.03505e-05
6.51668e-05
-1.74239e-05
6.83991e-05
-1.3015e-05
7.05897e-05
-6.66163e-06
7.13783e-05
2.14011e-06
7.04259e-05
1.38197e-05
6.73959e-05
2.87775e-05
6.29972e-05
4.65185e-05
5.67687e-05
6.86069e-05
3.92157e-05
9.00299e-05
8.73117e-05
1.84509e-06
-8.80363e-06
7.10007e-06
-3.10868e-05
1.29954e-05
-3.66649e-05
1.84038e-05
-3.42259e-05
2.33164e-05
-3.0683e-05
2.8024e-05
-2.85569e-05
3.27443e-05
-2.79037e-05
3.75619e-05
-2.80527e-05
4.24763e-05
-2.8384e-05
4.74469e-05
-2.8492e-05
5.24098e-05
-2.81153e-05
5.72795e-05
-2.70368e-05
6.19411e-05
-2.50122e-05
6.62312e-05
-2.1714e-05
6.99156e-05
-1.66994e-05
7.26706e-05
-9.41664e-06
7.41352e-05
6.75535e-07
7.39477e-05
1.40072e-05
7.16024e-05
3.11228e-05
6.64913e-05
5.16296e-05
5.85546e-05
7.65436e-05
4.1493e-05
0.000107092
0.000129796
2.08003e-06
-1.08837e-05
7.35606e-06
-3.63628e-05
1.30943e-05
-4.24031e-05
1.83194e-05
-3.9451e-05
2.31235e-05
-3.54871e-05
2.78136e-05
-3.3247e-05
3.25784e-05
-3.26685e-05
3.74722e-05
-3.29465e-05
4.24811e-05
-3.3393e-05
4.75669e-05
-3.35777e-05
5.26797e-05
-3.32282e-05
5.7756e-05
-3.2113e-05
6.27052e-05
-2.99614e-05
6.73846e-05
-2.63935e-05
7.15774e-05
-2.08922e-05
7.49693e-05
-1.28085e-05
7.71888e-05
-1.54396e-06
7.7842e-05
1.3354e-05
7.64552e-05
3.25096e-05
7.19929e-05
5.60919e-05
6.31764e-05
8.53601e-05
4.74201e-05
0.000122848
0.000177216
2.33325e-06
-1.32169e-05
7.61008e-06
-4.16397e-05
1.31676e-05
-4.79606e-05
1.82017e-05
-4.44852e-05
2.29006e-05
-4.0186e-05
2.75791e-05
-3.79254e-05
3.23911e-05
-3.74805e-05
3.73604e-05
-3.79158e-05
4.24624e-05
-3.8495e-05
4.7665e-05
-3.87803e-05
5.29376e-05
-3.85007e-05
5.82405e-05
-3.7416e-05
6.35082e-05
-3.52291e-05
6.86202e-05
-3.15055e-05
7.33806e-05
-2.56526e-05
7.74772e-05
-1.69051e-05
8.05338e-05
-4.60058e-06
8.21388e-05
1.17489e-05
8.18566e-05
3.27918e-05
7.88281e-05
5.91205e-05
7.06001e-05
9.35881e-05
5.3982e-05
0.000139466
0.000231198
1.02191e-20
-2.28658e-20
5.42811e-22
-8.6108e-22
1.49361e-24
-2.7577e-24
5.86251e-26
-7.87354e-26
3.39078e-27
-7.10358e-27
1.92049e-28
-6.00479e-28
1.29086e-29
-3.71706e-29
8.33627e-31
-1.95818e-30
4.40435e-32
-8.65439e-32
1.81088e-33
-2.08459e-33
6.07335e-35
5.94403e-36
1.70841e-36
1.23128e-36
3.80796e-38
6.33183e-38
6.4945e-40
2.07e-39
8.1035e-42
4.80538e-41
6.78796e-44
8.03964e-43
3.19122e-46
9.0748e-45
1.03959e-46
5.90036e-47
7.69545e-48
7.63617e-19
2.66035e-18
5.73122e-20
-2.25355e-19
2.09805e-22
-1.27493e-21
1.69336e-23
-1.50859e-22
9.29643e-25
-1.41837e-23
2.89714e-26
-4.4291e-25
1.30904e-27
-1.23421e-26
6.86556e-29
-3.82602e-28
3.29318e-30
-1.13733e-29
1.30977e-31
-2.26582e-31
4.28769e-33
1.12825e-33
1.16391e-34
3.08274e-34
2.51808e-36
1.55299e-35
4.18711e-38
4.9828e-37
5.0884e-40
1.12968e-38
4.14714e-42
1.83203e-40
1.92733e-44
2.01206e-42
1.45102e-46
1.32698e-44
5.65343e-47
7.7876e-17
2.46439e-16
4.78334e-18
1.93693e-17
4.64816e-20
-3.64987e-19
8.22331e-21
-1.31723e-19
1.4357e-22
-4.76568e-21
1.89163e-24
-6.55935e-23
6.16414e-26
-1.2348e-24
2.44101e-27
-2.8397e-26
9.37532e-29
-6.49654e-28
3.21273e-30
-1.06223e-29
9.5126e-32
3.60452e-32
2.39263e-33
1.03035e-32
4.83497e-35
4.78839e-34
7.53241e-37
1.42738e-35
8.58539e-39
3.03134e-37
6.60945e-41
4.59461e-39
3.01029e-43
4.82854e-41
6.8976e-46
3.16768e-43
1.71281e-45
5.22618e-15
1.81213e-14
1.65396e-16
8.41389e-15
3.64354e-18
-1.20966e-18
4.21293e-19
-3.84649e-18
3.35633e-21
-7.12761e-20
5.21589e-23
-1.18574e-21
1.78511e-24
-3.16193e-23
6.38111e-26
-8.52184e-25
2.07813e-27
-2.05338e-26
6.17656e-29
-3.36618e-28
1.64095e-30
8.05712e-31
3.78171e-32
2.34426e-31
7.11169e-34
1.00363e-32
1.04968e-35
2.77719e-34
1.16974e-37
5.63103e-36
9.10256e-40
8.4426e-38
4.17661e-42
8.89202e-40
1.05405e-44
5.77985e-42
3.88379e-44
2.41017e-13
6.73232e-13
6.59095e-15
4.21286e-13
7.96598e-18
1.28782e-15
1.16802e-18
-5.42453e-18
2.32938e-20
-4.64296e-19
7.549e-22
-1.97459e-20
3.29755e-23
-6.0262e-22
1.17587e-24
-1.65134e-23
3.37203e-26
-5.04307e-25
8.80086e-28
-4.94113e-27
2.20696e-29
1.2722e-29
4.8267e-31
3.8515e-30
8.75853e-33
1.57106e-31
1.28678e-34
4.24876e-33
1.4415e-36
8.55651e-35
1.12164e-38
1.2788e-36
6.58818e-41
1.3425e-38
1.38964e-43
8.72954e-41
6.62991e-43
9.52383e-12
1.69156e-11
3.78036e-13
1.06069e-11
-5.69188e-16
4.44961e-15
-2.20317e-18
-5.37381e-16
3.84962e-19
-2.41352e-18
1.70878e-20
-2.8479e-19
5.65897e-22
-1.35511e-20
1.81265e-23
-3.58782e-22
3.86241e-25
-4.74932e-24
8.51284e-27
-4.64659e-26
2.34714e-28
2.33466e-28
5.28276e-30
4.96302e-29
9.28551e-32
1.99862e-30
1.36027e-33
5.36182e-32
1.51814e-35
1.07248e-33
1.18185e-37
1.59405e-35
1.02197e-39
1.67421e-37
1.56841e-42
1.13217e-39
8.89613e-42
2.68309e-10
1.32946e-10
1.46468e-11
-1.29327e-11
-1.33003e-14
3.88672e-13
-7.56448e-17
-1.33352e-14
1.34758e-18
-1.03156e-16
3.15069e-19
-2.88878e-18
1.39617e-20
-2.82105e-19
1.3152e-21
-1.21e-20
8.91537e-23
-8.52515e-22
1.43343e-24
-2.29864e-23
2.56429e-27
3.62712e-27
1.13641e-28
8.17917e-28
1.23556e-30
3.26989e-29
1.69221e-32
8.26478e-31
1.87401e-34
1.60151e-32
1.80504e-36
2.3632e-34
1.70192e-38
2.50686e-36
1.90846e-41
1.76718e-38
1.12879e-40
1.8898e-09
-3.68606e-09
6.81297e-11
-3.91967e-10
1.79725e-14
4.03093e-12
7.40859e-16
-4.93893e-15
1.29155e-16
2.46946e-16
1.70227e-17
8.60888e-17
1.30826e-18
1.29905e-17
1.2699e-19
1.03237e-18
5.92809e-21
3.16976e-20
9.39124e-23
-1.5777e-22
1.39788e-25
2.49132e-25
3.64497e-27
4.75285e-26
5.62616e-29
1.79653e-27
8.99437e-31
4.43134e-29
1.41715e-32
8.48751e-31
1.51067e-34
1.26773e-32
1.03918e-36
1.39589e-34
1.5363e-39
1.00922e-36
3.88293e-39
5.72776e-06
-1.89447e-05
1.70255e-05
-5.29374e-05
2.81835e-05
-5.91185e-05
3.82183e-05
-5.452e-05
4.79009e-05
-4.98686e-05
5.78448e-05
-4.78693e-05
6.82307e-05
-4.78663e-05
7.90266e-05
-4.87117e-05
9.01721e-05
-4.96405e-05
0.000101646
-5.02542e-05
0.000113465
-5.03202e-05
0.000125627
-4.95779e-05
0.000138089
-4.76904e-05
0.000150696
-4.41129e-05
0.000163114
-3.80699e-05
0.000174592
-2.8384e-05
0.000184353
-1.4361e-05
0.000191291
4.81097e-06
0.000194844
2.92382e-05
0.000194508
5.94567e-05
0.000189888
9.82079e-05
0.000189011
0.000140344
0.000206476
0.000213292
6.83649e-06
-2.57812e-05
1.79502e-05
-6.40512e-05
2.81958e-05
-6.93641e-05
3.74529e-05
-6.3777e-05
4.68054e-05
-5.92211e-05
5.67619e-05
-5.78258e-05
6.73274e-05
-5.84319e-05
7.83885e-05
-5.97727e-05
8.99112e-05
-6.11632e-05
0.000101971
-6.23138e-05
0.000114697
-6.30464e-05
0.000128167
-6.30482e-05
0.000142511
-6.20342e-05
0.000157818
-5.94195e-05
0.000174016
-5.42687e-05
0.000189919
-4.42865e-05
0.000204921
-2.9363e-05
0.000218364
-8.63257e-06
0.000228892
1.87108e-05
0.000236328
5.20207e-05
0.000244923
8.96125e-05
0.0002587
0.000126566
0.000173854
0.000291121
7.90583e-06
-3.3687e-05
1.86469e-05
-7.47922e-05
2.78771e-05
-7.85943e-05
3.64272e-05
-7.23272e-05
4.55388e-05
-6.83327e-05
5.55023e-05
-6.77893e-05
6.61569e-05
-6.90865e-05
7.73595e-05
-7.09754e-05
8.91482e-05
-7.29519e-05
0.000101677
-7.48425e-05
0.000115097
-7.64662e-05
0.000129453
-7.74049e-05
0.000145275
-7.78555e-05
0.000163287
-7.74313e-05
0.000184113
-7.50944e-05
0.000205442
-6.56151e-05
0.000225827
-4.97484e-05
0.000243531
-2.63376e-05
0.00026154
7.38442e-07
0.000274227
3.93338e-05
0.000287272
7.65673e-05
0.000299286
0.000114552
0.000150926
0.000322215
8.83806e-06
-4.2525e-05
1.90211e-05
-8.49752e-05
2.72481e-05
-8.68213e-05
3.52283e-05
-8.03073e-05
4.41655e-05
-7.72699e-05
5.40713e-05
-7.76951e-05
6.46557e-05
-7.96708e-05
7.57794e-05
-8.20991e-05
8.75113e-05
-8.46837e-05
9.99331e-05
-8.72642e-05
0.000113059
-8.95921e-05
0.000126999
-9.13435e-05
0.00014348
-9.43336e-05
0.000163841
-9.77892e-05
0.000188738
-9.99663e-05
0.000213108
-8.99659e-05
0.000234611
-6.88728e-05
0.000245626
-3.56102e-05
0.000252175
-5.25435e-06
0.000271006
1.61976e-05
0.000286361
4.25426e-05
0.00031112
8.88119e-05
0.000132039
0.000329994
9.6172e-06
-5.21422e-05
1.90503e-05
-9.44083e-05
2.63226e-05
-9.40935e-05
3.38454e-05
-8.78301e-05
4.25711e-05
-8.59955e-05
5.22016e-05
-8.73254e-05
6.23263e-05
-8.97953e-05
7.27851e-05
-9.25574e-05
8.35752e-05
-9.54727e-05
9.4673e-05
-9.83596e-05
0.000106215
-0.000101126
0.000119218
-0.000104332
0.000137259
-0.00011231
0.000155814
-0.000115712
0.000149603
-7.39148e-05
0.000104935
-2.0108e-05
6.00433e-05
-4.84697e-06
3.04636e-05
-1.06882e-06
1.96511e-05
-1.79504e-07
2.7939e-05
3.34012e-07
5.8273e-05
1.44629e-06
0.00011853
2.52877e-06
8.31775e-06
0.000210616
1.0261e-05
-6.24031e-05
1.86342e-05
-0.00010278
2.49246e-05
-0.000100383
3.19594e-05
-9.48637e-05
4.01856e-05
-9.42205e-05
4.90024e-05
-9.61405e-05
5.79076e-05
-9.86965e-05
6.67708e-05
-0.000101412
7.5705e-05
-0.00010439
8.51715e-05
-0.000107791
9.64436e-05
-0.000112284
0.000109899
-0.000116365
0.000106395
-8.23895e-05
5.20651e-05
-2.18994e-05
2.51826e-05
-4.50688e-06
5.92991e-06
-7.02733e-07
1.31197e-06
-2.41457e-07
2.95712e-07
-8.75693e-08
9.35591e-08
-1.21233e-08
3.85117e-07
1.4661e-08
1.72417e-06
8.10292e-08
3.92233e-06
3.08201e-07
8.08591e-07
1.00911e-05
1.07295e-05
-7.31306e-05
1.75209e-05
-0.000109555
2.26031e-05
-0.000105449
2.88934e-05
-0.000101138
3.61017e-05
-0.00010141
4.34979e-05
-0.000103513
5.07679e-05
-0.000105911
5.82948e-05
-0.000108815
6.72565e-05
-0.000113126
7.66032e-05
-0.000107753
7.39772e-05
-7.23369e-05
4.25889e-05
-1.83912e-05
2.63627e-05
-3.54516e-06
5.11615e-06
-5.70316e-07
7.15946e-07
-9.23874e-08
1.65218e-07
-8.09262e-08
9.89074e-08
-2.25468e-07
5.95547e-08
-8.72729e-08
3.95138e-08
-2.01489e-08
2.97398e-08
1.35591e-09
9.22095e-08
4.86445e-09
3.77376e-07
1.67199e-08
8.36084e-08
1.10033e-06
1.1234e-05
-8.43255e-05
1.57382e-05
-0.000113856
1.91736e-05
-0.000108691
2.46555e-05
-0.000106417
3.11793e-05
-0.00010769
3.80801e-05
-0.000108432
4.45773e-05
-9.67401e-05
4.78642e-05
-7.46215e-05
4.31913e-05
-4.35342e-05
2.43384e-05
-7.66172e-06
2.23513e-05
-1.2215e-06
4.18411e-06
-1.87124e-07
6.75661e-07
-3.17358e-08
1.14301e-07
-9.28972e-09
2.44477e-08
-3.52542e-09
1.61163e-07
-1.91009e-07
5.6783e-07
-5.46644e-07
3.41033e-07
-5.30615e-07
2.87377e-08
-6.16118e-08
1.25935e-08
3.67048e-09
1.07072e-08
6.59765e-10
2.5263e-08
7.14805e-10
5.17586e-09
1.03233e-07
1.27488e-05
-7.84651e-05
1.31016e-05
-6.17431e-05
1.49959e-05
-5.75432e-05
1.87687e-05
-5.12218e-05
2.15414e-05
-4.01948e-05
2.13185e-05
-1.95399e-05
1.61075e-05
-1.44371e-06
9.219e-06
-1.42565e-07
9.09075e-06
-1.67242e-08
1.43257e-06
-2.20513e-09
2.15062e-07
-2.72318e-09
3.56266e-08
-7.79081e-09
1.22028e-08
-9.02646e-09
7.48249e-09
-5.3473e-09
5.56776e-09
-2.81857e-09
4.7573e-07
-2.90211e-07
6.09577e-07
-5.82757e-07
6.2589e-07
-4.97919e-07
7.75119e-09
-6.45348e-08
2.30212e-09
2.97339e-09
1.2348e-09
2.72539e-10
1.62942e-09
1.81243e-11
1.09836e-10
5.43323e-09
5.9087e-06
1.61004e-22
2.84894e-06
1.26912e-23
3.78067e-06
-5.76579e-22
3.43335e-06
-6.72432e-20
3.46334e-06
-3.166e-18
1.60555e-06
-1.39475e-16
1.61834e-07
-3.06966e-17
1.92694e-08
-7.19535e-16
2.53626e-09
-1.07242e-13
3.3757e-10
-4.06026e-12
1.03225e-09
-2.06579e-09
4.50421e-09
-9.5524e-09
8.8076e-09
-1.32159e-08
9.76737e-09
-7.48279e-09
8.46036e-09
-2.68576e-09
4.90547e-07
-2.77852e-07
5.23842e-07
-5.02618e-07
4.52358e-07
-3.26487e-07
-2.26954e-10
-1.88416e-08
2.03287e-10
6.098e-10
1.59868e-10
1.72339e-11
1.46871e-10
-4.54739e-12
-6.86946e-13
2.40932e-10
-2.12528e-23
2.54102e-23
-3.73793e-24
2.48549e-23
2.41237e-23
-6.04441e-22
3.76292e-21
-7.10571e-20
2.12606e-19
-3.38316e-18
6.23502e-18
-1.45853e-16
1.46892e-17
-6.9088e-17
1.00892e-16
-7.59012e-16
1.19795e-14
-1.19065e-13
7.04541e-12
-1.14971e-11
3.2746e-09
-5.44396e-09
2.01031e-08
-2.87092e-08
4.77278e-08
-1.32216e-07
3.00862e-08
-2.42838e-08
2.84355e-08
-2.5035e-09
3.56623e-07
-1.23907e-07
4.40779e-07
-4.23539e-07
8.73381e-08
-2.76116e-07
-2.33312e-10
-2.52584e-09
4.0197e-11
-6.24129e-12
2.66406e-11
-1.05465e-11
2.0141e-11
-2.93179e-12
-2.55002e-12
6.41719e-11
-1.17963e-24
5.12705e-23
-3.97671e-24
1.38536e-23
2.30325e-22
-1.08626e-21
3.06307e-20
-1.16603e-19
1.65786e-18
-5.69347e-18
6.16282e-17
-4.51899e-16
5.07761e-17
-1.48847e-16
2.59042e-15
-3.32055e-15
4.37541e-13
-5.4177e-13
5.46006e-11
-6.57901e-11
3.3958e-08
-3.95912e-08
8.91042e-08
-1.66026e-07
1.2465e-07
-1.5909e-07
5.64361e-08
-3.16674e-08
5.55488e-08
-5.50268e-09
2.99465e-07
-1.2493e-07
3.2862e-07
-2.55984e-07
2.7042e-09
-4.93827e-08
6.72693e-11
-3.07637e-10
1.83562e-11
-1.65962e-11
6.50001e-12
-2.99779e-12
3.58854e-12
-4.83386e-13
-2.46843e-12
2.30966e-12
-2.71502e-24
9.58249e-23
-1.72212e-24
-3.59256e-23
1.90117e-21
-1.22515e-20
2.58513e-19
-1.25395e-18
1.33655e-17
-5.36268e-17
2.67324e-16
-1.25623e-15
1.46302e-16
-3.4658e-16
1.90762e-14
-2.24658e-14
2.95259e-12
-3.48609e-12
3.80081e-10
-4.40713e-10
5.59161e-08
-1.53975e-07
8.0555e-08
-1.81993e-07
7.8876e-08
-1.48739e-07
4.90983e-08
-3.36532e-08
6.2509e-08
-6.16252e-09
2.1031e-07
-1.33062e-07
9.11154e-08
-1.3494e-07
3.14338e-10
-1.61735e-09
2.02475e-11
-2.24885e-11
4.183e-12
-8.00371e-13
1.20699e-12
-6.17147e-14
7.46595e-13
-6.29692e-14
-1.54673e-11
8.90688e-12
-5.9074e-24
1.75385e-22
1.42057e-23
-1.20968e-22
7.61871e-21
-5.98323e-20
1.06764e-18
-6.61507e-18
4.52054e-17
-2.42949e-16
3.2522e-16
-2.08779e-15
4.52604e-16
-1.58867e-15
9.92901e-14
-1.27023e-13
1.44203e-11
-1.78092e-11
1.68058e-09
-2.10507e-09
2.20151e-08
-1.05109e-07
1.47915e-08
-1.6192e-07
1.30462e-08
-1.38197e-07
6.29108e-09
-4.68221e-08
1.63197e-08
-3.84919e-08
7.90679e-08
-3.52093e-08
1.64054e-09
-3.28197e-16
2.31887e-11
-4.06452e-15
7.32877e-13
-2.99226e-14
7.91167e-14
-7.49917e-14
7.99753e-14
-8.15181e-14
8.22804e-14
-1.11909e-13
-1.98979e-11
3.86972e-11
-8.48371e-24
3.05892e-22
3.66371e-23
-5.23521e-22
1.35785e-20
-1.45238e-19
2.0574e-18
-1.98735e-17
6.86652e-17
-6.85348e-16
2.15674e-16
-3.4225e-15
1.47938e-15
-4.7683e-15
9.05795e-14
-2.80107e-13
1.6265e-11
-2.99198e-11
2.06294e-10
-4.15755e-10
-8.56318e-09
-3.41462e-10
-2.10024e-08
-4.53706e-09
-1.3702e-08
-4.02877e-08
-3.54831e-08
-7.4241e-08
-2.01519e-08
-4.19233e-08
-3.43666e-16
-2.85515e-08
-4.4733e-16
-3.6403e-16
-3.7462e-16
-4.16296e-15
2.913e-16
-3.0792e-14
2.02069e-14
-4.89759e-14
8.08795e-14
-1.13692e-13
3.00574e-13
-3.76171e-13
-9.80083e-12
2.27209e-11
-8.6962e-24
5.00374e-22
3.59383e-23
-5.70275e-22
1.02613e-20
-1.8296e-19
1.55502e-18
-3.43351e-17
2.88636e-17
-1.12912e-15
-1.7122e-17
-4.85599e-15
1.7186e-15
-7.68311e-15
-2.56843e-13
-2.17961e-14
-3.05608e-11
-1.20194e-12
-9.79361e-12
-1.3636e-11
-3.33733e-10
-1.9219e-11
-4.84519e-09
-2.2443e-11
-4.0391e-08
-5.5849e-12
-6.14977e-08
-5.21544e-16
-6.31371e-08
-1.15133e-16
-2.85855e-15
-8.97081e-16
-3.18828e-15
-5.874e-16
-7.27913e-15
-4.28733e-15
-4.01048e-15
-1.66314e-14
5.10897e-15
-3.585e-14
3.58892e-14
-9.14762e-14
1.76797e-13
-5.74014e-13
-1.11247e-11
1.23085e-12
-5.12149e-24
7.65649e-22
6.09439e-24
-2.21918e-22
-2.46924e-21
-1.50636e-19
-3.98837e-18
-3.60893e-17
-1.13458e-16
-1.11147e-15
-3.94018e-16
-4.67836e-15
-1.05255e-15
-7.58471e-15
-4.21252e-15
-2.00589e-14
-4.57198e-13
-7.53413e-13
-2.34643e-12
-1.17975e-11
-1.88305e-12
-2.03677e-11
-5.87504e-13
-2.23774e-11
-9.50034e-17
-3.52886e-12
-3.16661e-17
-5.61062e-16
-1.19527e-16
-1.84852e-17
-8.53372e-16
-1.39416e-16
-1.58541e-15
-7.24934e-16
-3.93278e-15
-4.32144e-15
-5.06208e-15
-1.12567e-14
-4.41489e-15
-2.73683e-14
2.71809e-15
-7.39038e-14
1.06088e-14
-3.67879e-13
-1.04482e-11
1.35284e-12
-3.98713e-25
1.09553e-21
-2.27032e-21
2.048e-21
-3.65218e-20
-7.23022e-20
-1.34384e-17
-2.10293e-17
-2.22409e-16
-7.20077e-16
-6.51473e-16
-3.12722e-15
-1.22501e-15
-5.63877e-15
-5.0963e-15
-1.58357e-14
-2.5855e-13
-4.99796e-13
-8.07691e-12
-1.06592e-11
-1.75555e-11
-3.43947e-11
-8.94037e-12
-3.31335e-11
-5.2611e-15
-1.47024e-11
-4.88285e-17
-5.76455e-15
-5.48322e-17
-9.24922e-18
-1.77767e-16
-3.95022e-17
-1.27316e-15
-6.5258e-16
-3.0639e-15
-3.18859e-15
-5.2414e-15
-8.92972e-15
-8.82567e-15
-2.07019e-14
5.75198e-15
-6.90024e-14
4.04197e-13
-4.22342e-13
-8.49889e-12
1.61448e-12
2.41242e-23
1.40955e-21
-2.86777e-21
1.00548e-20
-6.10036e-20
-1.23059e-20
-8.15582e-18
-2.36236e-18
-1.16785e-16
-1.15072e-16
-4.29308e-16
-7.24066e-16
-8.42145e-16
-3.30634e-15
-3.06586e-15
-1.27846e-14
-4.16891e-13
-8.10345e-14
-1.45263e-11
-2.4523e-12
-1.86172e-11
-1.61157e-11
-1.33679e-11
-2.41948e-11
-5.05652e-14
-1.57582e-11
-3.80794e-17
-5.62885e-14
-4.07917e-17
-7.4269e-18
-9.46299e-17
-1.31341e-17
-7.29253e-16
-1.81844e-16
-2.35266e-15
-1.00213e-15
-4.44041e-15
-3.89878e-15
-8.93009e-15
-1.38674e-14
2.08699e-14
-7.58257e-14
7.41059e-13
-6.9176e-13
-8.67089e-12
7.25602e-12
1.80414e-22
1.39537e-21
-3.9777e-22
1.45256e-20
-4.1637e-20
2.89334e-20
-9.0652e-19
-4.54898e-20
-1.37374e-17
-5.27138e-18
-1.27253e-16
-1.09179e-16
-1.68455e-15
-2.20433e-15
-3.29286e-15
-1.53703e-14
-3.58639e-14
-3.64903e-14
-1.53301e-12
-2.30532e-14
-9.5283e-12
-2.02787e-14
-1.22394e-11
-8.51782e-15
-4.64685e-13
-1.23867e-15
-7.09681e-18
-8.62926e-18
-6.25391e-18
-1.02422e-17
-1.83248e-17
-3.3394e-18
-1.50324e-16
-3.9188e-17
-6.87044e-16
-3.04156e-16
-2.38384e-15
-1.99225e-15
-6.2814e-15
-1.19416e-14
6.37274e-14
-1.00613e-13
8.74283e-13
-1.04325e-12
-1.09716e-11
9.017e-12
3.23848e-22
8.81879e-22
1.34413e-21
1.07292e-20
-3.84884e-21
3.82167e-20
-3.88654e-20
-5.71678e-21
-7.50626e-19
-3.99507e-19
-4.11291e-17
-2.9217e-17
-1.9642e-15
-6.69965e-16
-6.83883e-15
-6.27807e-15
-1.85308e-15
-2.11828e-14
-6.82687e-16
-2.43873e-14
-3.64324e-16
-1.97985e-14
-6.39978e-17
-8.70645e-15
-5.23418e-18
-1.29923e-15
-6.82145e-18
-8.74899e-18
-1.44837e-18
-2.01407e-18
-3.18782e-18
-8.38723e-19
-3.18002e-17
-1.00688e-17
-2.59883e-16
-1.09663e-16
-1.53292e-15
-1.12429e-15
-4.7839e-15
-9.66476e-15
3.78855e-14
-1.05132e-13
3.72263e-13
-1.15021e-12
-1.19684e-11
3.78285e-12
2.72624e-22
2.90416e-22
2.00052e-21
3.4192e-21
-6.33702e-22
1.1547e-20
-3.70834e-21
-2.64214e-21
-2.15626e-19
-1.78274e-19
-1.27647e-17
-1.45436e-17
-2.84178e-16
-2.97799e-16
-2.98718e-15
-1.5526e-15
-7.17644e-15
-3.0031e-15
-5.31251e-15
-2.63021e-15
-3.84604e-15
-1.89357e-15
-8.59442e-16
-8.64704e-16
-9.15553e-18
-1.46765e-16
-2e-18
-1.9148e-17
-3.49138e-19
-1.8054e-18
-9.78715e-19
-2.62349e-19
-8.43788e-18
-2.77291e-18
-1.07103e-16
-3.78448e-17
-9.7632e-16
-4.80366e-16
-3.82009e-15
-5.67353e-15
-3.98724e-14
-6.25182e-14
-4.84024e-13
-6.58039e-13
-6.68864e-12
-5.51991e-12
9.45069e-23
4.87041e-23
6.53596e-22
5.85765e-22
-2.94232e-22
2.20821e-21
-3.26067e-21
3.24304e-22
-1.62186e-19
-8.94608e-21
-8.43647e-18
-5.02622e-19
-1.21708e-16
-3.26571e-17
-5.1257e-16
-5.35375e-16
-8.68464e-16
-1.79205e-15
-8.71495e-16
-2.40453e-15
-5.53844e-16
-1.95161e-15
-1.25939e-16
-1.09836e-15
-1.94295e-17
-1.98215e-16
-1.61367e-18
-1.87389e-17
-5.69615e-20
2.08077e-20
-8.59232e-19
5.39921e-19
-2.99901e-18
-6.83013e-19
-3.52937e-17
-8.46762e-18
-4.52057e-16
-1.11633e-16
-5.39827e-15
-1.3601e-15
-6.02396e-14
-1.53001e-14
-5.94403e-13
-1.62414e-13
-1.68681e-12
-6.05387e-12
1.70975e-23
-9.35015e-31
1.31544e-22
-2.70954e-28
2.95213e-23
-3.81853e-26
-1.26056e-21
-3.54645e-24
-9.97266e-21
-2.33983e-22
-4.68251e-19
-1.18659e-20
-2.13351e-17
-5.52322e-19
-2.59274e-16
-3.28917e-17
-6.57681e-16
-3.52709e-16
-7.46946e-16
-8.61242e-16
-5.75878e-16
-7.40119e-16
-1.70488e-16
-4.31919e-16
-1.9561e-17
-1.53966e-16
1.25499e-20
-1.51848e-17
3.52123e-19
1.3353e-19
-4.39681e-19
7.79361e-19
-1.54216e-18
4.19469e-19
-1.04019e-17
-9.53128e-19
-1.31616e-16
-1.31161e-17
-1.62646e-15
-1.58877e-16
-1.86836e-14
-1.79205e-15
-1.93785e-13
-1.99643e-14
-2.38345e-13
-1.9585e-12
-9.33346e-31
-1.6686e-33
-2.714e-28
-4.87133e-31
-3.83873e-26
-6.94166e-29
-3.5783e-24
-6.53356e-27
-2.37014e-22
-2.44884e-25
-1.20796e-20
-1.26017e-23
-5.4029e-19
-5.81708e-22
-2.25006e-17
-3.52045e-20
-1.53667e-16
-6.53425e-19
-1.97993e-16
-2.3784e-18
-1.44899e-16
-3.40631e-18
-7.97294e-17
-3.11068e-18
-1.13285e-17
-7.91747e-19
8.03547e-20
4.83191e-20
5.12341e-19
2.96895e-19
2.98865e-19
4.11253e-19
-8.01215e-19
3.28687e-19
-1.77655e-18
2.15736e-20
-1.67929e-17
-1.03467e-18
-2.04323e-16
-1.35676e-17
-2.35869e-15
-1.51032e-16
-2.54008e-14
-1.6554e-15
-2.01346e-14
-2.89647e-13
-1.65447e-33
-6.07131e-36
-4.84828e-31
-1.78656e-33
-6.93797e-29
-2.6018e-31
-6.5562e-27
-2.5124e-29
-2.49153e-25
-9.78854e-28
-1.2705e-23
-5.16938e-26
-5.87649e-22
-2.43518e-24
-2.72099e-20
-1.34364e-22
-2.69756e-19
-3.88772e-21
-6.33803e-19
-2.39265e-20
-7.04209e-19
-5.84185e-20
-3.59814e-19
-7.75313e-20
2.63042e-20
-6.24538e-20
1.79342e-19
1.15768e-20
2.73851e-19
6.59666e-20
2.40218e-19
1.06964e-19
1.72678e-20
1.07077e-19
-1.01212e-18
5.53831e-20
-1.9603e-18
-8.64976e-20
-1.77112e-17
-8.49419e-19
-1.93969e-16
-9.50207e-18
-2.51033e-15
-9.72447e-17
-1.15801e-15
-3.09501e-14
-6.33454e-36
2.63231e-37
-1.80466e-33
1.17665e-35
-2.61395e-31
2.94154e-35
-2.52843e-29
-5.97509e-32
-9.99696e-28
-2.29971e-30
-5.24527e-26
-1.10645e-28
-2.46142e-24
-5.33134e-27
-1.01976e-22
-2.19603e-25
-1.8315e-21
-1.13293e-23
-8.70526e-21
-2.6813e-22
-1.70971e-20
-1.25144e-21
-1.84719e-20
-1.9709e-21
6.29929e-21
-2.3981e-22
4.00473e-20
3.72462e-21
7.21745e-20
1.11068e-20
8.01521e-20
1.85077e-20
4.6007e-20
2.06023e-20
-6.55914e-20
1.40471e-20
-1.52118e-19
2.8951e-23
-1.11387e-18
-3.75018e-20
-1.24289e-17
-4.53963e-19
-2.17168e-16
-4.67112e-18
-5.57124e-17
-3.53044e-15
3.64227e-37
8.40277e-37
1.84554e-36
6.54642e-35
-2.00417e-33
2.27849e-33
-1.08363e-31
4.6126e-32
-3.0166e-30
5.49777e-31
-1.15983e-28
2.32192e-30
-5.31416e-27
-1.1727e-28
-2.21892e-25
-6.05744e-27
-1.03987e-23
-1.1286e-25
-1.56589e-22
2.13784e-25
-4.1701e-22
5.94615e-24
-3.73909e-22
4.17497e-23
2.02216e-21
1.71004e-22
6.76332e-21
4.95935e-22
1.26189e-20
1.09729e-21
1.57308e-20
1.87077e-21
1.20399e-20
2.34739e-21
2.80008e-23
1.90995e-21
-4.39038e-20
5.99179e-22
-7.9558e-20
-1.84758e-21
-6.29174e-19
-1.69695e-20
-9.78262e-18
-1.7874e-19
-2.18091e-18
-2.13235e-16
2.00013e-36
7.27189e-37
1.41016e-34
6.68455e-35
4.3329e-33
2.88703e-33
6.98692e-32
7.87982e-32
3.75455e-31
1.52047e-30
-1.05468e-29
2.20073e-29
-3.75522e-28
2.47705e-28
-1.34703e-26
2.2218e-27
6.88582e-26
1.61741e-26
2.19839e-24
9.70005e-26
1.75907e-23
4.85343e-25
8.16758e-23
2.0454e-24
2.67548e-22
7.28878e-24
6.67335e-22
2.18484e-23
1.28242e-21
5.40986e-23
1.81704e-21
1.06732e-22
1.67672e-21
1.57337e-22
6.00694e-22
1.53253e-22
-1.6586e-21
6.97662e-23
-3.44237e-21
-6.25267e-23
-2.47223e-20
-5.10229e-22
-3.99496e-19
-5.58103e-21
-7.07045e-20
-9.86701e-18
1.99517e-36
1.3759e-38
1.74557e-34
1.08971e-36
7.23069e-33
4.12495e-35
1.88751e-31
1.00761e-33
3.47581e-30
1.78518e-32
4.79373e-29
2.44522e-31
5.13852e-28
2.69539e-30
4.39321e-27
2.45733e-29
3.05587e-26
1.88869e-28
1.75736e-25
1.23982e-27
8.45645e-25
7.00345e-27
3.42534e-24
3.4106e-26
1.164e-23
1.42553e-25
3.26468e-23
5.05254e-25
7.3037e-23
1.48554e-24
1.22488e-22
3.49313e-24
1.36525e-22
6.17512e-24
7.17599e-23
7.30134e-24
-4.9427e-23
4.25136e-24
-1.1046e-22
-1.67033e-24
-7.75577e-22
-1.30728e-23
-1.33377e-20
-1.50342e-22
-2.00106e-21
-3.70917e-19
3.14389e-38
3.3158e-41
2.41194e-36
2.82268e-39
8.94333e-35
1.15688e-37
2.14401e-33
3.08795e-36
3.73703e-32
6.04099e-35
5.04893e-31
9.24295e-34
5.5034e-30
1.1521e-32
4.97121e-29
1.20245e-31
3.78885e-28
1.07062e-30
2.46348e-27
8.22849e-30
1.37262e-26
5.49089e-29
6.53918e-26
3.1809e-28
2.63679e-25
1.58944e-27
8.8206e-25
6.75647e-27
2.36485e-24
2.38681e-26
4.78796e-24
6.74785e-26
6.53036e-24
1.43382e-25
4.43362e-24
2.03596e-25
-1.22938e-24
1.43272e-25
-2.86566e-24
-3.6839e-26
-2.05311e-23
-2.90416e-25
-3.8161e-22
-3.55353e-24
-5.02358e-23
-1.20805e-20
7.78562e-41
5.14839e-44
6.47145e-39
4.76774e-42
2.62286e-37
2.15033e-40
6.94548e-36
6.39582e-39
1.35276e-34
1.41209e-37
2.06757e-33
2.46813e-36
2.58161e-32
3.55257e-35
2.70369e-31
4.31874e-34
2.41543e-30
4.50486e-33
1.85816e-29
4.06703e-32
1.23415e-28
3.18648e-31
7.04747e-28
2.16047e-30
3.41957e-27
1.25683e-29
1.38004e-26
6.17855e-29
4.47055e-26
2.50542e-28
1.09445e-25
8.06826e-28
1.80563e-25
1.93811e-27
1.49477e-25
3.08875e-27
-2.58747e-26
2.42546e-27
-6.07405e-26
-6.49351e-28
-4.6522e-25
-5.47487e-27
-9.4783e-24
-7.21639e-26
-1.09424e-24
-3.47087e-22
1.24264e-43
1.36698e-47
1.13716e-41
1.54229e-45
5.13736e-40
8.53215e-44
1.53585e-38
3.13352e-42
3.41858e-37
8.58492e-41
6.03662e-36
1.86645e-39
8.78519e-35
3.33923e-38
1.07885e-33
5.02553e-37
1.1335e-32
6.44468e-36
1.0254e-31
7.087e-35
7.98669e-31
6.69068e-34
5.32288e-30
5.40353e-33
2.99602e-29
3.70129e-32
1.39309e-28
2.11878e-31
5.16355e-28
9.90205e-31
1.43676e-27
3.64091e-30
2.67786e-27
9.90373e-30
2.49341e-27
1.77412e-29
-4.50528e-28
1.54225e-29
-1.06663e-27
-9.60087e-30
-8.81527e-27
-8.77929e-29
-1.99829e-25
-1.26373e-27
-2.07869e-26
-8.58507e-24
3.74794e-47
1.56811e-52
4.20772e-45
2.60847e-50
2.34776e-43
2.08172e-48
8.71233e-42
1.07834e-46
2.41308e-40
4.06925e-45
5.29893e-39
1.18962e-43
9.55318e-38
2.79579e-42
1.44354e-36
5.40705e-41
1.84945e-35
8.7336e-40
2.01892e-34
1.18825e-38
1.87654e-33
1.36647e-37
1.47596e-32
1.32647e-36
9.70084e-32
1.0801e-35
5.21609e-31
7.28681e-35
2.21639e-30
3.99064e-34
7.01717e-30
1.71684e-33
1.47874e-29
5.49204e-33
1.53529e-29
1.16874e-32
-6.47688e-30
9.68475e-33
-1.56031e-29
-1.19754e-31
-1.3976e-28
-1.20693e-30
-3.58577e-27
-1.92645e-29
-3.48425e-28
-1.83443e-25
5.80927e-52
1.19097e-56
9.41412e-50
1.97735e-54
7.41165e-48
1.59855e-52
3.7897e-46
8.54148e-51
1.412e-44
3.39452e-49
4.07493e-43
1.069e-47
9.44627e-42
2.7719e-46
1.79925e-40
6.06337e-45
2.85498e-39
1.13605e-43
3.80127e-38
1.8392e-42
4.2538e-37
2.5822e-41
3.98539e-36
3.14145e-40
3.09476e-35
3.29459e-39
1.95584e-34
2.94872e-38
9.75865e-34
2.21576e-37
3.64908e-33
1.3618e-36
9.18287e-33
6.5332e-36
9.14809e-33
2.16256e-35
-7.7083e-32
1.33312e-35
-1.91003e-31
-1.21602e-33
-1.87088e-30
-1.38444e-32
-5.51267e-29
-2.48375e-31
-5.02357e-30
-3.42812e-27
3.9365e-56
1.7038e-60
6.4828e-54
3.64974e-58
5.27137e-52
3.77645e-56
2.84061e-50
2.5733e-54
1.1408e-48
1.29971e-52
3.63452e-47
5.17909e-51
9.53534e-46
1.69015e-49
2.10832e-44
4.62427e-48
3.98433e-43
1.07644e-46
6.48404e-42
2.15019e-45
9.10652e-41
3.69914e-44
1.10083e-39
5.47795e-43
1.13652e-38
6.94911e-42
9.88119e-38
7.47879e-41
7.06548e-37
6.72002e-40
3.97736e-36
4.91205e-39
1.56411e-35
2.78535e-38
1.16609e-35
1.07398e-37
-7.29826e-34
4.54939e-38
-1.88148e-33
-9.57212e-36
-2.03559e-32
-1.26843e-34
-7.04896e-31
-2.60984e-33
-6.03621e-32
-5.44417e-29
6.24693e-60
5.73986e-65
1.33029e-57
1.74279e-62
1.3844e-55
2.47846e-60
9.49713e-54
2.28367e-58
4.83186e-52
1.5399e-56
1.93934e-50
8.09647e-55
6.36978e-49
3.44791e-53
1.75143e-47
1.21831e-51
4.08781e-46
3.62764e-50
8.16046e-45
9.18851e-49
1.39682e-43
1.98894e-47
2.04548e-42
3.68039e-46
2.54398e-41
5.79839e-45
2.65073e-40
7.70791e-44
2.2604e-39
8.51044e-43
1.509e-38
7.59825e-42
6.94107e-38
5.1974e-41
3.57479e-38
2.26078e-40
-5.21152e-36
-4.23091e-40
-1.4242e-35
-5.58256e-38
-1.70656e-34
-8.86755e-37
-7.2002e-33
-2.16581e-35