/*--------------------------------*- C++ -*----------------------------------*\
| =========                 |                                                 |
| \\      /  F ield         | OpenFOAM: The Open Source CFD Toolbox           |
|  \\    /   O peration     | Version:  2206                                  |
|   \\  /    A nd           | Website:  www.openfoam.com                      |
|    \\/     M anipulation  |                                                 |
\*---------------------------------------------------------------------------*/
FoamFile
{
    version     2.0;
    format      ascii;
    arch        "LSB;label=32;scalar=64";
    class       surfaceScalarField;
    location    "0.7";
    object      alphaPhi0.water;
}
// * * * * * * * * * * * * * * * * * * * * * * * * * * * * * * * * * * * * * //

dimensions      [0 3 -1 0 0 0 0];

oriented        oriented;

internalField   nonuniform List<scalar> 
4432
(
-3.54551e-06
3.54551e-06
-7.21211e-06
3.6666e-06
-9.61261e-06
2.40051e-06
-1.11967e-05
1.58408e-06
-1.18726e-05
6.75928e-07
-1.10064e-05
-8.66176e-07
-8.45903e-06
-2.5474e-06
-5.32237e-06
-3.13666e-06
-2.92118e-06
-2.4012e-06
-1.73768e-06
-1.1835e-06
-1.65812e-06
-7.95609e-08
-2.46727e-06
8.09144e-07
-3.85644e-06
1.38917e-06
-5.68345e-06
1.82701e-06
-8.02488e-06
2.34143e-06
-1.08438e-05
2.81896e-06
-1.30987e-05
2.43562e-06
-1.45327e-05
1.79942e-06
-1.80976e-05
3.67925e-06
-2.43835e-05
5.28883e-06
-2.44319e-05
6.24408e-08
-1.48401e-05
-9.5773e-06
-1.48206e-05
-4.53449e-06
8.08e-06
-7.74239e-06
6.87452e-06
-9.57573e-06
4.23385e-06
-1.11088e-05
3.11719e-06
-1.20683e-05
1.6354e-06
-1.14647e-05
-1.46979e-06
-8.92538e-06
-5.08673e-06
-5.57223e-06
-6.48981e-06
-2.9647e-06
-5.00872e-06
-1.66346e-06
-2.48475e-06
-1.32291e-06
-4.20107e-07
-1.49449e-06
9.80738e-07
-2.05945e-06
1.95412e-06
-2.91688e-06
2.68446e-06
-4.17223e-06
3.59677e-06
-6.25572e-06
4.90248e-06
-9.77034e-06
5.96069e-06
-1.41142e-05
6.64653e-06
-1.84662e-05
8.17343e-06
-2.03821e-05
7.18657e-06
-1.7767e-05
-2.60013e-06
-1.05018e-05
-1.64989e-05
-2.52844e-05
-3.66124e-06
1.17412e-05
-6.25749e-06
9.47077e-06
-8.21927e-06
6.19564e-06
-1.02751e-05
5.17299e-06
-1.17625e-05
3.12288e-06
-1.14655e-05
-1.76679e-06
-9.19111e-06
-7.36116e-06
-6.05174e-06
-9.62918e-06
-3.48715e-06
-7.57332e-06
-2.17286e-06
-3.79904e-06
-1.88186e-06
-7.11103e-07
-2.17618e-06
1.27506e-06
-2.61588e-06
2.39382e-06
-2.95288e-06
3.02147e-06
-3.01541e-06
3.65929e-06
-3.01562e-06
4.90271e-06
-3.78357e-06
6.72867e-06
-5.8893e-06
8.75941e-06
-7.65512e-06
1.06122e-05
-8.41828e-06
7.92986e-06
-7.31607e-06
-3.72051e-06
-4.06069e-06
-1.97742e-05
-2.94661e-05
-2.21898e-06
1.39602e-05
-4.07045e-06
1.13222e-05
-5.89227e-06
8.01746e-06
-7.72929e-06
7.01002e-06
-8.85865e-06
4.25224e-06
-8.53403e-06
-2.09141e-06
-7.05865e-06
-8.83654e-06
-5.26899e-06
-1.14188e-05
-3.77701e-06
-9.06531e-06
-2.90726e-06
-4.66879e-06
-2.738e-06
-8.80363e-07
-3.07702e-06
1.61409e-06
-3.58626e-06
2.90305e-06
-3.91735e-06
3.35258e-06
-3.79146e-06
3.53339e-06
-3.0765e-06
4.18776e-06
-1.7817e-06
5.43387e-06
-3.53664e-07
7.33138e-06
1.30931e-06
8.94933e-06
2.94117e-06
6.62851e-06
2.66899e-06
-3.47553e-06
2.04791e-06
-2.00945e-05
-2.75421e-05
-3.72198e-07
1.43324e-05
-7.84376e-07
1.17344e-05
-1.80972e-06
9.04281e-06
-2.53349e-06
7.73379e-06
-2.30038e-06
4.01912e-06
-1.55345e-06
-2.83834e-06
-1.51356e-06
-8.87644e-06
-2.31546e-06
-1.06169e-05
-3.12448e-06
-8.25629e-06
-3.54173e-06
-4.25153e-06
-3.76392e-06
-6.58179e-07
-4.11019e-06
1.96037e-06
-4.54258e-06
3.33545e-06
-4.74875e-06
3.55877e-06
-4.5337e-06
3.31833e-06
-3.81457e-06
3.46865e-06
-2.30812e-06
3.92741e-06
2.06549e-07
4.81671e-06
4.01404e-06
5.14184e-06
7.66791e-06
2.97461e-06
7.82854e-06
-4.05841e-06
5.05357e-06
-1.73195e-05
-2.24885e-05
1.98082e-06
1.23516e-05
3.4095e-06
1.03057e-05
4.19962e-06
8.25269e-06
5.34171e-06
6.59171e-06
6.89631e-06
2.46452e-06
7.3134e-06
-3.25542e-06
5.38959e-06
-6.95264e-06
1.95467e-06
-7.18202e-06
-1.57336e-06
-4.72826e-06
-3.78502e-06
-2.03986e-06
-4.75705e-06
3.13845e-07
-5.26119e-06
2.46451e-06
-5.58537e-06
3.65962e-06
-5.59222e-06
3.56563e-06
-5.09966e-06
2.82577e-06
-4.24892e-06
2.61793e-06
-2.97124e-06
2.64972e-06
-8.81205e-07
2.72669e-06
2.3816e-06
1.87903e-06
6.13469e-06
-7.78478e-07
7.4183e-06
-5.34201e-06
5.29209e-06
-1.51933e-05
-1.71964e-05
3.73279e-06
8.61882e-06
7.63702e-06
6.40152e-06
1.14011e-05
4.48858e-06
1.50518e-05
2.941e-06
1.71916e-05
3.24734e-07
1.56322e-05
-1.69683e-06
1.08009e-05
-2.12164e-06
5.03856e-06
-1.41968e-06
-7.97158e-08
3.90012e-07
-3.61377e-06
1.49419e-06
-5.4594e-06
2.15948e-06
-6.36787e-06
3.37298e-06
-6.70373e-06
3.99548e-06
-6.47949e-06
3.3414e-06
-5.63336e-06
1.97964e-06
-4.52305e-06
1.50763e-06
-3.22399e-06
1.35065e-06
-1.52446e-06
1.02717e-06
6.42743e-07
-2.88172e-07
3.2614e-06
-3.39713e-06
4.75408e-06
-6.83469e-06
4.21787e-06
-1.46571e-05
-1.29787e-05
6.54622e-06
1.34535e-06
1.27493e-05
-5.80221e-07
1.68684e-05
-4.33894e-07
1.87812e-05
1.51618e-07
1.80581e-05
6.78996e-07
1.44756e-05
1.73472e-06
9.46577e-06
3.06333e-06
3.98577e-06
4.05065e-06
-3.41e-07
4.71677e-06
-3.35708e-06
4.51027e-06
-5.36817e-06
4.17056e-06
-6.80898e-06
4.8138e-06
-7.56328e-06
4.74978e-06
-7.46242e-06
3.24055e-06
-6.35186e-06
8.69073e-07
-4.95552e-06
1.1129e-07
-3.4888e-06
-1.16068e-07
-1.82728e-06
-6.34332e-07
-6.65458e-08
-2.04891e-06
1.57508e-06
-5.03876e-06
2.70511e-06
-7.96472e-06
2.95591e-06
-1.49079e-05
-1.0023e-05
-2.87566e-05
2.64439e-05
-4.99355e-05
2.11816e-05
-4.51776e-05
-4.75554e-06
-3.09266e-05
-1.425e-05
-1.82997e-05
-1.22057e-05
-6.49273e-06
-1.0366e-05
1.10819e-05
-2.11242e-05
1.39593e-05
-4.2595e-06
-7.93858e-06
2.5543e-05
-5.79268e-05
4.99919e-05
-9.90068e-05
4.10837e-05
-0.000115947
1.69438e-05
-0.000115592
-3.4875e-07
-0.000107729
-7.84922e-06
-9.59255e-05
-1.17604e-05
-7.71506e-05
-1.86907e-05
-4.29953e-05
-3.38448e-05
8.08196e-07
-4.34468e-05
7.39122e-07
-3.36288e-05
6.1395e-05
-4.07885e-05
2.8343e-05
-2.97681e-05
-1.57749e-05
-1.69406e-05
-2.70776e-05
-6.47738e-06
-2.2669e-05
3.61225e-06
-2.04556e-05
1.72144e-05
-3.81416e-05
-5.28666e-06
1.63206e-05
-6.47177e-05
8.51414e-05
-0.0001166
0.000101878
-0.000131145
5.5633e-05
-0.000124995
1.0246e-05
-0.000121375
-2.89444e-06
-0.000117125
-9.56369e-06
-0.000109068
-1.71215e-05
-9.24447e-05
-3.353e-05
-6.26039e-05
-6.35457e-05
-1.89691e-05
-8.70126e-05
-1.81397e-05
-2.25058e-05
8.39212e-05
-2.15419e-05
2.73807e-05
-1.11524e-05
-2.61623e-05
6.09216e-07
-3.88009e-05
6.67269e-06
-2.87325e-05
6.72917e-06
-2.05121e-05
-3.54325e-06
-2.84919e-05
-5.59629e-05
6.78431e-05
-0.000102047
0.000130418
-7.76006e-05
7.53533e-05
-3.24874e-05
9.35044e-06
-2.28173e-05
1.31993e-06
-2.40133e-05
-2.37856e-07
-2.87944e-05
-9.57739e-07
-3.73773e-05
-2.92329e-06
-5.41262e-05
-9.10527e-06
-7.19486e-05
-3.94975e-05
-3.52736e-05
-0.000123589
-5.33269e-05
-7.49284e-06
7.86377e-05
2.16953e-06
1.35927e-05
8.27676e-06
-3.05029e-05
1.76781e-05
-4.78948e-05
1.84858e-05
-2.95401e-05
6.16462e-06
-8.19092e-06
-2.29402e-05
-4.14465e-07
-6.85485e-05
0.000112564
-5.63779e-05
0.000115458
-8.22144e-06
2.43736e-05
-1.34531e-06
2.47819e-06
-1.65725e-07
1.30521e-07
-4.10754e-07
-7.13387e-09
-1.28885e-06
-6.20029e-08
-3.78479e-06
-3.16359e-07
-1.05313e-05
-1.8612e-06
-3.50185e-05
-9.68874e-06
-4.18879e-05
-0.000105663
-9.51148e-05
3.92776e-06
4.97945e-05
1.18094e-05
2.92137e-06
2.73109e-05
-3.84016e-05
3.42846e-05
-5.48613e-05
2.92557e-05
-2.45108e-05
5.26643e-06
1.57985e-05
-3.56579e-05
3.9168e-05
-7.97592e-05
0.000157143
-1.91771e-05
5.59565e-05
-2.14305e-06
7.34358e-06
-1.43504e-07
4.76352e-07
-4.12695e-08
1.15997e-08
-5.54919e-08
-1.3591e-08
-9.01904e-08
-4.23308e-08
-2.87975e-07
-1.02573e-07
-1.8183e-06
-1.10205e-07
-7.56241e-06
-3.45033e-06
-3.92644e-05
-6.81507e-05
-0.000134184
1.26123e-05
3.55812e-05
2.4444e-05
-1.72196e-06
4.30903e-05
-5.09801e-05
4.92135e-05
-6.10116e-05
3.94065e-05
-1.47064e-05
8.0752e-06
4.71302e-05
-3.82353e-05
8.47476e-05
-5.42537e-05
0.000177981
-6.30559e-06
1.51555e-05
-3.99627e-07
1.43341e-06
-2.37987e-08
8.62782e-08
-2.95715e-08
-1.60115e-11
-3.34795e-08
-2.47607e-08
-1.50681e-08
-8.1475e-08
4.50555e-08
-2.24632e-07
-2.08291e-07
-3.19384e-08
-3.09588e-06
-4.92274e-07
-3.12615e-05
-3.59033e-05
-0.000164784
1.58403e-05
1.79473e-05
4.17822e-05
-1.52148e-05
5.51039e-05
-6.30657e-05
5.88312e-05
-6.45618e-05
4.52379e-05
-1.78011e-06
1.32426e-05
7.93837e-05
-2.75736e-05
0.000125665
-2.04941e-05
0.000175971
-1.01489e-06
1.1281e-05
-6.66411e-08
4.75846e-07
-2.02362e-08
2.98498e-08
-2.75037e-08
-7.16934e-09
-2.50695e-08
-4.45844e-08
7.56269e-08
-2.24328e-07
5.17761e-07
-8.24466e-07
4.58822e-07
-6.78361e-08
-3.17765e-07
1.04829e-07
-2.10359e-05
-1.3679e-05
-0.000182456
2.63506e-05
3.30229e-06
4.93465e-05
-3.6558e-05
5.56467e-05
-6.76514e-05
4.96581e-05
-5.38952e-05
3.08854e-05
5.31265e-06
1.50476e-05
9.09001e-05
-1.55288e-05
0.000156665
-6.70839e-06
0.000165662
-3.2816e-07
4.91169e-06
-2.2919e-08
1.64552e-07
-1.44484e-08
1.77061e-08
-1.69087e-08
-1.47192e-08
1.95379e-08
-1.00063e-07
4.35919e-07
-7.41815e-07
1.27953e-06
-2.27764e-06
1.25397e-06
-2.16653e-07
5.28073e-07
4.13445e-07
-9.05258e-06
-2.80902e-06
-0.00014472
1.98361e-06
-5.56696e-07
9.56501e-07
-1.70221e-07
-6.35145e-07
-2.62073e-07
-2.03335e-06
-1.85167e-07
-2.99158e-06
-4.2773e-08
-4.21337e-06
1.31422e-07
-6.26416e-06
7.7277e-07
-8.92727e-06
1.78334e-06
-1.08037e-05
2.75499e-06
-1.14878e-05
3.41687e-06
-1.21928e-05
4.87564e-06
-1.40193e-05
6.64031e-06
-1.58842e-05
6.61468e-06
-1.57851e-05
3.14142e-06
-1.28719e-05
-2.04414e-06
-9.91174e-06
-2.84887e-06
-7.54771e-06
-2.48009e-06
-4.87439e-06
-3.30766e-06
-1.61646e-06
-5.30682e-06
1.36988e-06
-8.02508e-06
4.65232e-06
-1.12471e-05
6.74746e-06
-1.7003e-05
-1.74156e-05
1.4142e-05
-5.65515e-07
-3.32077e-09
-1.98973e-06
6.53749e-09
-3.23303e-06
-7.39265e-10
-4.42723e-06
-5.6093e-09
-5.46417e-06
-3.18692e-08
-6.46015e-06
-7.64573e-09
-8.15921e-06
-6.77435e-08
-1.17569e-05
-7.22395e-08
-1.62823e-05
-4.41318e-07
-1.97205e-05
-1.4103e-06
-1.9744e-05
-2.28181e-06
-1.76699e-05
-6.60336e-07
-1.40256e-05
1.41724e-07
-1.00963e-05
-1.82216e-06
-6.62032e-06
-4.69884e-06
-5.12155e-06
-4.056e-06
-4.05914e-06
-3.50918e-06
-1.1331e-06
-6.21343e-06
2.09831e-06
-8.53757e-06
3.03295e-06
-8.95886e-06
4.49976e-06
-1.27129e-05
7.25454e-06
-1.97566e-05
-2.45011e-05
1.43436e-05
-6.39513e-09
5.01888e-10
-8.0843e-11
7.10509e-11
-8.4507e-10
5.89888e-12
-6.47581e-09
-3.63969e-11
-3.81744e-08
-4.28603e-10
-6.22374e-08
-3.99632e-10
-1.31127e-07
9.36914e-10
-2.03231e-07
-1.11449e-10
-6.65391e-07
-7.85393e-10
-3.30266e-06
-4.143e-09
-7.48701e-06
-1.74415e-08
-1.10207e-05
-6.12312e-08
-1.37629e-05
-1.78432e-07
-1.64047e-05
-4.36062e-07
-1.95172e-05
-1.30584e-06
-1.86306e-05
-3.09815e-06
-1.37865e-05
-3.62724e-06
-8.56974e-06
-4.82682e-06
-5.26275e-06
-5.90786e-06
-4.43128e-06
-7.42708e-06
-5.22851e-06
-1.16788e-05
-4.61525e-06
-2.10578e-05
-1.96658e-05
-4.1227e-06
-1.12203e-10
1.36263e-10
-7.27996e-12
-5.29306e-11
-1.52442e-11
3.09389e-12
-5.56299e-11
2.48603e-13
-4.95093e-10
-2.77865e-12
-9.24281e-10
1.49216e-12
-2.15023e-11
4.15274e-12
-1.35284e-10
2.90212e-13
-9.35284e-10
-1.86254e-13
-5.21781e-09
-9.08387e-12
-2.34681e-08
-1.49368e-10
-8.8926e-08
7.63016e-12
-2.83091e-07
3.24179e-10
-7.59998e-07
-9.01542e-09
-1.99976e-06
-2.14663e-07
-4.41896e-06
-1.10686e-06
-8.99224e-06
-3.61696e-06
-1.28494e-05
-1.62735e-05
-2.22073e-05
-1.91637e-05
-4.98381e-05
-1.89091e-05
-7.29244e-05
-8.4419e-06
-7.57361e-05
-1.99858e-07
-5.2094e-07
-4.13038e-07
5.0558e-11
1.77667e-11
7.88251e-13
-2.19215e-12
-7.49874e-13
3.53837e-12
-7.70677e-13
-9.29643e-14
-4.3584e-12
3.91179e-14
-4.25815e-12
5.79432e-14
-2.83604e-13
8.30121e-15
-7.80982e-13
6.23829e-14
-3.53492e-12
3.84489e-13
-2.65642e-11
6.1536e-13
-3.45185e-10
2.45017e-11
-1.93799e-09
3.57766e-10
-1.27238e-08
3.31022e-09
-7.58189e-08
1.47205e-08
-4.71776e-07
8.80746e-09
-1.88668e-06
-3.62047e-07
-1.72503e-05
-3.547e-06
-6.14561e-05
-1.28629e-05
-5.47656e-05
-2.62455e-06
-3.72593e-05
-3.45048e-06
-1.44713e-06
-4.74407e-07
-1.7703e-06
-2.15312e-07
-2.19214e-08
-2.10028e-06
7.46001e-12
1.54419e-12
1.42833e-12
5.73552e-13
2.55625e-13
2.36378e-12
2.98459e-14
1.22677e-13
3.04429e-14
-2.89212e-15
1.05114e-14
7.85313e-15
-1.65536e-14
1.75997e-14
-7.3019e-13
1.38085e-13
-4.01775e-13
6.05403e-12
3.30906e-12
1.04541e-11
1.48703e-11
3.2194e-12
1.72255e-10
5.03614e-11
1.63635e-09
5.69103e-10
5.37514e-09
3.94668e-09
-6.44153e-08
2.65837e-08
-3.34858e-06
4.94993e-08
-1.16482e-05
-2.08948e-07
-1.12693e-05
-8.22336e-07
-8.94161e-06
-1.31339e-06
-7.72827e-06
-2.35755e-06
-1.04889e-05
-5.48988e-06
-1.22241e-05
-9.23591e-06
-1.04187e-05
-1.69749e-05
4.20293e-13
1.43135e-13
2.92887e-13
6.46675e-14
2.41054e-13
1.92796e-15
9.53032e-15
7.82333e-14
3.60255e-15
3.31588e-15
3.28516e-15
1.03122e-15
2.14295e-15
8.79837e-15
-1.34478e-12
5.39469e-13
-3.39568e-12
1.24825e-11
-3.48105e-12
1.43084e-11
2.30044e-12
2.47591e-12
1.14658e-12
2.41195e-11
3.28556e-10
6.98687e-11
-6.76034e-09
1.03849e-09
-5.86209e-08
5.00257e-09
-1.70304e-08
-8.04025e-09
-1.81625e-07
-3.63311e-09
-9.78685e-07
-3.91275e-08
-2.358e-06
-1.35442e-07
-1.19441e-05
-3.85468e-07
-5.51155e-05
-5.44118e-06
-5.30405e-05
-9.4224e-06
-1.37607e-05
-4.78099e-05
1.17381e-14
2.179e-14
2.19955e-14
8.36892e-15
8.52109e-15
1.74333e-15
4.42788e-15
6.04369e-15
3.30456e-16
1.64655e-15
2.22392e-16
7.77807e-16
-2.30338e-15
5.60269e-15
-2.08506e-12
7.06131e-13
-7.80334e-12
9.05641e-12
-5.96444e-12
1.42806e-11
1.94252e-12
2.40645e-12
-6.04818e-12
9.35866e-12
-1.56592e-10
1.01506e-10
-1.41541e-09
-9.7718e-11
-1.25482e-09
9.67222e-11
-1.22785e-09
-3.14266e-11
-3.07481e-09
8.24582e-11
-4.63723e-08
8.73175e-11
-1.92184e-07
-1.58217e-09
-5.74029e-07
-8.05446e-08
-9.00565e-06
-7.22055e-07
-3.60337e-05
-4.81709e-06
-1.30402e-05
-4.03966e-05
2.9835e-16
4.20359e-15
9.59151e-16
1.95335e-15
4.94864e-16
1.05592e-15
2.09439e-16
5.01415e-16
4.30267e-17
4.00392e-16
-5.88759e-18
6.27653e-16
3.0851e-15
1.9423e-15
-4.45715e-13
1.40032e-13
-6.26857e-12
2.63697e-12
-4.28187e-12
1.44347e-11
4.27349e-15
1.41617e-12
-1.61828e-11
4.65736e-12
-1.89972e-11
-4.41399e-13
-1.30394e-10
-4.63858e-12
-8.85036e-11
8.18461e-12
-8.46027e-11
5.73015e-13
-1.42932e-10
3.25321e-11
-8.4983e-10
1.56328e-10
-6.71195e-08
2.76049e-09
-1.77664e-07
-1.50806e-09
-7.32677e-07
-3.93917e-08
-5.143e-06
-7.13356e-07
-3.20855e-06
-1.62039e-05
1.18121e-17
8.41419e-16
4.28638e-17
2.91721e-16
2.61857e-17
1.52861e-16
1.1989e-17
6.72206e-17
3.50621e-18
2.39752e-16
-2.30554e-17
5.93849e-16
9.22283e-16
1.25102e-15
-3.30699e-14
2.3599e-14
-1.25282e-12
-3.10116e-14
-4.57932e-13
1.11999e-13
-6.10543e-13
7.59896e-14
-8.86371e-13
-8.17898e-14
-2.31734e-12
9.24228e-14
-8.66483e-12
-4.54379e-13
-5.67851e-12
7.17828e-13
-4.54357e-12
3.97701e-13
-5.17963e-12
8.65982e-12
-1.1855e-10
8.05734e-11
-4.23293e-09
3.25587e-10
-2.2737e-10
3.32597e-09
-5.69272e-08
1.36817e-08
-7.06197e-07
-2.01186e-07
-1.75711e-06
-2.85059e-06
-6.79887e-19
1.06088e-16
1.30159e-18
2.51218e-17
1.26117e-18
1.2753e-17
6.34672e-19
1.40935e-17
-2.33517e-18
1.62384e-16
-2.26328e-17
5.35939e-16
-4.46329e-16
1.15971e-15
-4.00171e-15
4.80658e-15
-6.08813e-14
5.70624e-15
-3.95575e-14
2.86602e-14
-5.47097e-14
8.7798e-14
-1.46878e-13
1.46992e-13
-2.23449e-13
9.20201e-14
-6.72635e-13
-1.09869e-13
-5.32161e-13
8.07644e-14
-4.54941e-13
1.38763e-13
2.3789e-12
2.00514e-12
2.91744e-11
2.7367e-11
3.01137e-11
2.7532e-10
-2.96349e-09
4.07071e-09
-4.35836e-08
3.41479e-08
-4.14032e-07
6.72975e-09
-1.02942e-06
-2.07701e-06
-1.49248e-19
1.11428e-17
5.80361e-21
2.0128e-18
5.40336e-20
1.15204e-18
2.43222e-20
3.83451e-18
-2.6674e-18
7.76313e-17
-1.72357e-17
3.75286e-16
-9.23388e-17
8.9852e-16
-3.78017e-16
1.75241e-15
-1.82169e-15
4.7815e-15
-8.67274e-15
2.834e-14
-3.95066e-14
1.21961e-13
-6.94548e-14
2.97863e-13
-4.92458e-14
2.48235e-13
-5.63302e-14
5.9507e-14
-5.99734e-14
1.78239e-14
-2.00845e-14
4.89382e-14
1.36217e-12
7.17093e-13
1.08564e-11
1.40919e-11
6.65695e-11
1.53601e-10
4.73753e-10
2.81786e-09
2.75054e-09
2.28196e-08
-1.28171e-07
5.76705e-08
-1.99037e-07
-1.2774e-06
-1.36632e-20
1.22026e-18
-2.43217e-21
1.67354e-19
8.16672e-22
1.08172e-19
-2.34439e-20
9.68272e-19
-1.17316e-18
2.15162e-17
-1.09336e-17
1.79621e-16
-3.35666e-17
6.64098e-16
-8.85241e-17
1.20231e-15
-8.46233e-16
4.79095e-15
-7.82069e-15
5.11902e-14
-3.33588e-14
1.98966e-13
-4.31121e-14
3.12189e-13
-2.50674e-14
2.19124e-13
-6.76169e-15
5.14971e-14
-7.46366e-15
7.62083e-15
1.63547e-14
2.69359e-14
3.31951e-13
4.23637e-13
2.70307e-12
1.10375e-11
6.99489e-11
1.31941e-10
6.32098e-10
4.97267e-09
5.241e-09
1.90737e-08
-1.03685e-07
5.70089e-08
2.00682e-08
-1.68294e-06
-8.35099e-22
1.34638e-19
-2.18954e-22
1.36184e-20
-1.99566e-24
1.01028e-20
-3.19563e-21
1.97242e-19
-2.09489e-19
4.07073e-18
-4.04496e-18
5.77919e-17
-1.35686e-17
3.83674e-16
-3.97261e-17
9.01427e-16
-8.47085e-16
4.91739e-15
-8.42568e-15
6.76293e-14
-1.97448e-14
2.14355e-13
-1.99801e-14
2.43787e-13
-5.92216e-15
6.58092e-14
-1.03734e-15
1.12347e-14
-1.14727e-15
3.58705e-15
8.74083e-15
9.77377e-15
1.10249e-13
3.22826e-13
-1.62667e-12
1.32324e-11
-3.68257e-10
3.58734e-10
1.06474e-09
2.40698e-08
1.8694e-08
6.57686e-08
-5.49521e-07
1.60933e-07
2.52799e-07
-7.73197e-07
-3.06157e-23
1.45291e-20
-5.45672e-24
1.16967e-21
1.12648e-23
8.85136e-22
3.78709e-22
3.43161e-20
-2.08922e-21
7.09534e-19
-4.50839e-19
1.31817e-17
-2.84041e-18
1.45809e-16
-1.35654e-17
5.47341e-16
-4.72435e-16
4.57625e-15
-5.35903e-15
6.5803e-14
-8.1877e-15
1.70877e-13
-3.69318e-15
1.41847e-13
-7.03522e-16
1.43152e-14
-2.38471e-16
3.56143e-15
-2.77564e-16
2.07969e-15
4.75787e-15
4.00777e-15
1.23808e-13
2.07849e-13
-2.828e-12
1.65172e-11
-6.25308e-11
4.29495e-10
-2.75606e-09
2.90759e-08
3.47219e-09
6.12264e-08
-1.69725e-07
8.70577e-08
2.92997e-07
-1.26461e-06
3.62825e-24
1.51247e-21
1.32595e-24
8.90778e-22
2.47395e-24
6.93675e-22
2.83352e-22
5.18622e-21
6.28694e-21
1.23675e-19
9.40057e-20
2.37869e-18
7.45276e-19
3.69124e-17
2.00312e-18
2.47179e-16
5.37732e-19
3.12084e-15
-4.41774e-16
3.53578e-14
-1.07832e-15
7.46579e-14
-3.06337e-16
5.28151e-14
-9.53421e-17
6.14576e-15
-4.66712e-17
2.75627e-15
-5.91918e-17
1.39055e-15
9.41286e-16
2.10237e-15
1.8744e-13
2.13911e-14
1.30371e-11
3.80118e-12
-1.9222e-10
7.32277e-10
-8.73811e-10
1.02802e-08
3.86973e-12
7.54591e-09
3.71691e-09
3.37076e-08
1.22355e-07
-4.82506e-07
3.97611e-24
1.02708e-21
-1.12742e-24
-1.4336e-22
-1.40234e-24
-1.18663e-22
8.20885e-23
6.21475e-22
2.39033e-21
1.97944e-20
4.88327e-20
3.96647e-19
8.08133e-19
8.32948e-18
6.95224e-18
1.00295e-16
8.95235e-17
1.24587e-15
6.71909e-16
8.62003e-15
9.46021e-16
1.46142e-14
5.52416e-16
1.08829e-14
7.62466e-17
3.41644e-15
5.04381e-17
2.4005e-15
3.88714e-17
8.07661e-16
1.77884e-16
1.7733e-15
3.17791e-14
1.13173e-14
1.02674e-11
8.33657e-13
1.16869e-10
2.70296e-10
7.91629e-10
3.37751e-10
3.11393e-09
1.20273e-09
2.02113e-08
5.25509e-09
1.58792e-08
3.96023e-08
1.31159e-25
2.33472e-23
-3.23577e-24
-2.57889e-22
-6.20065e-24
-3.48839e-22
2.09242e-23
5.58593e-23
5.86699e-22
2.76333e-21
1.44415e-20
6.8748e-20
3.72602e-19
2.09204e-18
5.49649e-18
3.90077e-17
5.60996e-17
2.95612e-16
2.7781e-16
1.08963e-15
3.92738e-16
1.69247e-15
2.95263e-16
1.4986e-15
1.57866e-16
1.48886e-15
1.46071e-16
1.71683e-15
5.63406e-17
3.55869e-16
2.2059e-16
7.96423e-16
1.50575e-14
2.80924e-15
1.83182e-12
2.76936e-13
5.32141e-11
7.68139e-12
2.40269e-10
6.00667e-11
1.00717e-09
2.37405e-10
4.43127e-09
1.0758e-09
4.61627e-09
2.59713e-08
-1.5284e-24
-1.96426e-22
-3.20717e-24
-1.88103e-22
-8.21594e-24
-3.44368e-22
9.70573e-24
3.26923e-23
1.1192e-22
3.47606e-22
3.68753e-21
1.25845e-20
1.38485e-19
5.03298e-19
2.83884e-18
1.17357e-17
1.80007e-17
5.3519e-17
5.68973e-17
1.25915e-16
8.08426e-17
2.02648e-16
8.04415e-17
1.98084e-16
1.11232e-16
3.65423e-16
1.56453e-16
6.67372e-16
3.74219e-17
1.20636e-16
9.11836e-17
1.42725e-16
3.81678e-15
7.76904e-16
2.59266e-13
2.25483e-14
6.98526e-12
1.02514e-12
4.87102e-11
8.66251e-12
2.23108e-10
3.30661e-11
1.04771e-09
1.55862e-10
1.02651e-09
7.11251e-09
-1.82211e-24
-1.87891e-22
-2.34828e-24
-1.10561e-22
-7.59606e-24
-2.54673e-22
-3.95691e-25
-1.01825e-23
1.86597e-23
4.01071e-23
8.6889e-22
2.249e-21
3.89854e-20
9.18372e-20
9.03526e-19
2.14934e-18
4.13027e-18
8.41978e-18
1.01842e-17
1.77078e-17
1.48562e-17
2.96096e-17
1.63937e-17
2.93568e-17
3.48524e-17
5.01156e-17
5.93582e-17
1.11537e-16
1.33691e-17
2.70593e-17
1.61494e-17
1.70721e-17
3.40366e-16
1.92454e-16
2.10559e-14
1.79516e-15
9.48488e-13
1.06622e-13
7.3535e-12
1.01439e-12
3.3889e-11
3.65719e-12
1.60229e-10
1.47659e-11
9.39975e-11
1.04533e-09
-1.5766e-24
-1.37729e-22
-1.44134e-24
-5.73824e-23
-5.61948e-24
-1.58214e-22
-1.11796e-24
-2.40137e-23
3.78378e-24
4.2993e-24
1.79927e-22
3.52107e-22
7.8171e-21
1.22997e-20
1.77217e-19
2.50487e-19
7.80843e-19
1.13321e-18
1.8619e-18
2.67996e-18
2.79599e-18
4.75184e-18
3.13662e-18
4.70087e-18
5.85875e-18
5.56721e-18
1.09843e-17
1.08157e-17
2.49444e-18
4.08267e-18
2.74654e-18
2.06706e-18
5.04012e-17
2.01921e-17
1.91135e-15
1.16378e-16
1.01088e-13
8.2843e-15
8.80171e-13
1.00127e-13
3.83851e-12
3.21281e-13
1.58629e-11
1.16113e-12
6.10887e-12
1.0668e-10
-1.1763e-24
-9.01032e-23
-7.72237e-25
-2.6954e-23
-3.5082e-24
-8.59639e-23
-1.15865e-24
-2.15754e-23
1.46676e-24
1.29211e-24
3.09747e-23
4.55122e-23
1.20782e-21
1.41899e-21
2.53207e-20
2.56537e-20
1.25026e-19
1.35392e-19
3.25157e-19
3.69637e-19
5.06867e-19
7.02559e-19
5.74852e-19
7.13436e-19
7.60304e-19
6.48515e-19
1.44881e-18
1.04162e-18
4.24934e-19
5.06217e-19
4.14636e-19
2.50213e-19
7.07154e-18
1.80145e-18
1.16445e-16
2.69692e-17
8.02593e-15
9.75892e-16
8.11038e-14
9.68619e-15
3.4572e-13
2.61707e-14
1.28521e-12
8.08838e-14
3.91782e-13
7.36391e-12
-7.88587e-25
-5.43212e-23
-3.68735e-25
-1.15773e-23
-1.90089e-24
-4.16349e-23
-8.49724e-25
-1.41035e-23
3.41616e-25
1.00769e-25
4.35645e-24
4.94886e-24
1.62939e-22
1.57652e-22
3.22179e-21
2.72604e-21
1.74464e-20
1.51979e-20
4.89706e-20
4.35486e-20
7.95648e-20
8.53072e-20
9.30911e-20
9.09336e-20
9.83403e-20
7.58862e-20
1.7558e-19
1.06716e-19
6.32896e-20
5.79585e-20
5.60297e-20
2.79361e-20
7.89329e-19
1.62211e-19
1.34541e-17
2.70066e-18
7.65863e-16
1.5737e-16
7.59487e-15
8.93312e-16
2.63858e-14
2.16486e-15
8.85635e-14
5.39341e-15
2.28864e-14
4.76771e-13
-4.82209e-25
-3.04341e-23
-1.59178e-25
-4.58267e-24
-9.09233e-25
-1.81673e-23
-5.00076e-25
-7.56048e-24
-1.48154e-26
-1.74913e-25
5.36331e-25
4.70202e-25
2.01596e-23
1.66723e-23
3.87373e-22
2.85734e-22
2.17994e-21
1.6037e-21
6.24767e-21
4.53325e-21
1.066e-20
8.81285e-21
1.24962e-20
9.79031e-21
1.24588e-20
8.25044e-21
1.9927e-20
1.0513e-20
8.23539e-21
6.09175e-21
6.75163e-21
2.82416e-21
7.79378e-20
1.37059e-20
1.23882e-18
1.6845e-19
7.65279e-17
9.12092e-18
6.87778e-16
7.55677e-17
2.19313e-15
2.24519e-16
6.02822e-15
4.15352e-16
1.21118e-15
2.97036e-14
-2.70907e-25
-1.58868e-23
-6.29107e-26
-1.68685e-24
-3.87817e-25
-7.1914e-24
-2.48593e-25
-3.48663e-24
-1.4477e-26
-1.58456e-25
6.887e-26
3.5329e-26
2.27536e-24
1.62979e-24
4.31246e-23
2.78195e-23
2.45917e-22
1.56321e-22
7.03047e-22
4.36787e-22
1.22899e-21
8.42383e-22
1.44682e-21
9.55053e-22
1.43003e-21
8.18625e-22
2.07921e-21
9.57408e-22
9.40208e-22
5.72139e-22
7.20319e-22
2.48428e-22
6.89144e-21
1.05332e-21
1.04033e-19
1.2242e-20
5.77106e-18
5.35806e-19
5.50253e-17
5.03579e-18
1.78169e-16
1.661e-17
4.30561e-16
3.14442e-17
8.55667e-17
1.74353e-15
-1.40517e-25
-7.73553e-24
-2.30972e-26
-5.84191e-25
-1.48864e-25
-2.59562e-24
-1.07488e-25
-1.41873e-24
-8.97797e-27
-9.25417e-26
1.28307e-26
8.81742e-27
2.34982e-25
1.48484e-25
4.38712e-24
2.50359e-24
2.52242e-23
1.41398e-23
7.20963e-23
3.95988e-23
1.27737e-22
7.63564e-23
1.50728e-22
8.72556e-23
1.48321e-22
7.40736e-23
1.97295e-22
7.83935e-23
9.02461e-23
4.34152e-23
6.33121e-23
1.75256e-23
5.44734e-22
7.02683e-23
8.08965e-21
8.37968e-22
4.02125e-19
3.31916e-20
3.74912e-18
2.9323e-19
1.23827e-17
9.53251e-19
2.98076e-17
2.16232e-18
7.34366e-18
1.06572e-16
-6.76211e-26
-3.51612e-24
-8.00656e-27
-1.93197e-25
-5.17189e-26
-8.57876e-25
-4.11259e-26
-5.17426e-25
-4.44076e-27
-4.36638e-26
2.90165e-27
1.47501e-27
2.24902e-26
1.2771e-26
4.1169e-25
2.12643e-25
2.38393e-24
1.20637e-24
6.82925e-24
3.38964e-24
1.2169e-23
6.52941e-24
1.43458e-23
7.39696e-24
1.34452e-23
5.85482e-24
1.57325e-23
5.94865e-24
5.95266e-24
1.90831e-23
4.22414e-24
1.32428e-23
3.58401e-23
9.91187e-24
5.68499e-22
5.08133e-23
2.57147e-20
1.91747e-21
2.3188e-19
1.65808e-20
8.22825e-19
6.80379e-20
2.56287e-18
2.91114e-19
1.9812e-18
1.40349e-17
-3.03271e-26
-1.49303e-24
-2.66757e-27
-6.20525e-26
-1.6344e-26
-2.60638e-25
-1.41015e-26
-1.7097e-25
-1.8636e-27
-1.7677e-26
-2.28209e-29
-1.75397e-28
2.01353e-27
1.01566e-27
3.61886e-26
1.72803e-26
2.10215e-25
9.80578e-26
6.01848e-25
2.74818e-25
1.05829e-24
5.22433e-25
1.23486e-24
5.53709e-25
1.10557e-24
4.08751e-25
1.79144e-24
4.12648e-24
4.17528e-25
8.29799e-25
-2.73748e-24
-4.73616e-24
3.8385e-24
3.33589e-24
3.42678e-23
6.69955e-24
1.5209e-21
1.05713e-22
1.44452e-20
1.09281e-21
8.26468e-20
1.14966e-20
5.47216e-19
1.04025e-19
7.90446e-19
4.42921e-18
-1.2751e-26
-5.92603e-25
-8.68305e-28
-1.96768e-26
-4.71213e-27
-7.30673e-26
-4.36864e-27
-5.1592e-26
-6.81268e-28
-6.2999e-27
-3.13099e-29
-2.34896e-28
1.92121e-28
6.84728e-29
3.00835e-27
1.34664e-27
1.74215e-26
7.59617e-27
4.93718e-26
2.09535e-26
8.05416e-26
3.72927e-26
9.67705e-26
3.89384e-26
1.14773e-25
2.954e-25
-1.47968e-25
-3.32614e-25
-1.7204e-24
-3.37656e-24
-3.30861e-24
-5.66097e-24
-1.45673e-24
-2.16678e-24
2.99017e-24
2.25265e-24
8.74422e-23
5.77628e-24
1.19078e-21
1.25306e-22
1.94706e-20
3.78352e-21
2.16497e-19
4.6697e-20
2.87814e-19
1.57707e-18
-5.05422e-27
-2.19943e-25
-2.79671e-28
-6.232e-27
-1.24374e-27
-1.89749e-26
-1.23069e-27
-1.43079e-26
-2.20227e-28
-2.00621e-27
-1.52003e-29
-1.12487e-28
2.35644e-29
1.07551e-29
2.37462e-28
9.94851e-29
1.35128e-27
5.50091e-28
3.64016e-27
1.41391e-27
6.05984e-27
2.63695e-27
9.45957e-27
2.77249e-26
-3.94106e-26
-1.00939e-25
-3.64411e-25
-8.16329e-25
-1.19759e-24
-2.34574e-24
-1.88495e-24
-3.22335e-24
-1.29428e-24
-1.92695e-24
-2.46281e-26
-3.17861e-26
4.93799e-24
7.08078e-25
1.59857e-22
2.08198e-23
5.94586e-21
1.11256e-21
8.20087e-20
1.5986e-20
8.76429e-20
5.16338e-19
-1.88725e-27
-7.63409e-26
-8.95905e-29
-1.97444e-27
-3.01925e-28
-4.58412e-27
-3.16818e-28
-3.66627e-27
-6.3581e-29
-5.76983e-28
-5.46009e-30
-4.03016e-29
3.37784e-30
1.91709e-30
1.73608e-29
6.39209e-30
9.3503e-29
3.89245e-29
2.65162e-28
1.02784e-28
5.53135e-28
1.8639e-27
-2.80832e-27
-8.26075e-27
-4.50764e-26
-1.16004e-25
-2.17236e-25
-4.89557e-25
-5.56538e-25
-1.09799e-24
-8.07645e-25
-1.39294e-24
-6.20175e-25
-9.32492e-25
-1.89868e-25
-2.47818e-25
3.767e-25
1.4151e-25
2.26254e-23
2.53292e-24
1.32375e-21
1.81643e-22
2.21836e-20
3.22781e-21
1.97194e-20
1.3903e-19
-6.58956e-28
-2.47794e-26
-2.83264e-29
-6.19505e-28
-6.77393e-29
-1.03524e-27
-7.47905e-29
-8.72267e-28
-1.65061e-29
-1.51152e-28
-1.63094e-30
-1.21664e-29
1.83875e-31
1.02281e-31
1.1643e-30
1.1375e-30
6.82669e-30
2.84056e-29
1.80056e-29
7.07153e-29
-2.00511e-28
-6.85276e-28
-3.25689e-27
-9.72283e-27
-2.3816e-26
-6.22429e-26
-9.1968e-26
-2.1063e-25
-2.07939e-25
-4.17235e-25
-2.86427e-25
-5.02803e-25
-2.272e-25
-3.47984e-25
-9.35037e-26
-1.24412e-25
4.24873e-26
5.5192e-27
2.197e-24
1.7526e-25
1.72551e-22
1.52239e-23
3.77225e-21
3.73073e-22
2.99297e-21
2.76481e-20
-2.13769e-28
-7.52132e-27
-8.68203e-30
-1.89497e-28
-1.40893e-29
-2.19739e-28
-1.62192e-29
-1.93593e-28
-3.86882e-30
-3.63362e-29
-4.22129e-31
-3.23572e-30
-3.50404e-32
-2.24484e-31
4.97873e-32
2.70935e-31
-2.2265e-32
-1.04057e-31
-1.15043e-29
-4.65373e-29
-1.98002e-28
-6.97096e-28
-1.65748e-27
-5.09773e-27
-9.33303e-27
-2.51325e-26
-3.1628e-26
-7.46442e-26
-6.58494e-26
-1.36169e-25
-8.69887e-26
-1.57393e-25
-6.91436e-26
-1.09155e-25
-3.11387e-26
-4.27004e-26
-3.76702e-27
-4.45793e-27
1.43289e-25
8.23139e-27
1.38016e-23
8.78952e-25
4.16906e-22
3.07119e-23
3.213e-22
3.8535e-21
-6.4334e-29
-2.13475e-27
-2.5342e-30
-5.57251e-29
-2.72311e-30
-4.41073e-29
-3.23341e-30
-4.02711e-29
-8.20511e-31
-8.06999e-30
-9.64473e-32
-7.7624e-31
-2.11035e-32
-1.42166e-31
-7.53206e-32
-4.31371e-31
-7.13675e-31
-3.51152e-30
-8.87555e-30
-3.78024e-29
-9.20955e-29
-3.4137e-28
-6.16421e-28
-1.99575e-27
-2.98912e-27
-8.47174e-27
-9.22426e-27
-2.29071e-26
-1.80243e-26
-3.92068e-26
-2.29204e-26
-4.36062e-26
-1.79692e-26
-2.98112e-26
-8.25007e-27
-1.18801e-26
-1.5852e-27
-1.96771e-27
8.34508e-27
3.1224e-28
8.71147e-25
5.39952e-26
3.69285e-23
2.62191e-24
3.15322e-23
4.16274e-22
-1.79378e-29
-5.66569e-28
-6.96043e-31
-1.55975e-29
-4.91015e-31
-8.4287e-30
-5.93e-31
-7.89011e-30
-1.57686e-31
-1.66671e-30
-1.96564e-32
-1.70703e-31
-8.31909e-33
-6.06056e-32
-4.53504e-32
-2.81249e-31
-3.84686e-31
-2.05101e-30
-3.70241e-30
-1.70939e-29
-3.15121e-29
-1.26639e-28
-1.85642e-28
-6.51676e-28
-8.10749e-28
-2.49124e-27
-2.32197e-27
-6.25067e-27
-4.29767e-27
-1.01317e-26
-5.26226e-27
-1.08462e-26
-4.02345e-27
-7.22757e-27
-1.81772e-27
-2.83204e-27
-4.03484e-28
-5.41297e-28
6.41333e-28
1.25125e-28
5.91638e-26
4.84131e-27
3.42178e-24
2.92307e-25
3.54065e-24
4.28639e-23
-4.60202e-30
-1.40652e-28
-1.78048e-31
-4.12354e-30
-8.30343e-32
-1.54403e-30
-1.00198e-31
-1.46345e-30
-2.75081e-32
-3.22218e-31
-3.6032e-33
-3.4879e-32
-2.60323e-33
-2.12099e-32
-1.68156e-32
-1.16899e-31
-1.36337e-31
-8.15958e-31
-1.15955e-30
-6.01566e-30
-8.74652e-30
-3.95271e-29
-4.70989e-29
-1.86029e-28
-1.89511e-28
-6.55527e-28
-5.09153e-28
-1.54356e-27
-8.96584e-28
-2.38112e-27
-1.05522e-27
-2.45066e-27
-7.79067e-28
-1.57717e-27
-3.38211e-28
-5.93829e-28
-7.776e-29
-1.17539e-28
4.2641e-29
4.72418e-30
5.37866e-27
6.35193e-28
3.65879e-25
3.858e-26
4.22777e-25
4.52457e-24
-1.07504e-30
-3.26945e-29
-4.18922e-32
-1.02322e-30
-1.32121e-32
-2.7287e-31
-1.56246e-32
-2.58299e-31
-4.36536e-33
-5.86939e-32
-5.98948e-34
-6.70656e-33
-6.8319e-34
-6.47134e-33
-4.81738e-33
-3.90623e-32
-3.78564e-32
-2.64869e-31
-2.96725e-31
-1.80289e-30
-2.04943e-30
-1.08625e-29
-1.02807e-29
-4.76856e-29
-3.86203e-29
-1.57059e-28
-9.79764e-29
-3.49596e-28
-1.64453e-28
-5.14619e-28
-1.8555e-28
-5.08321e-28