/*--------------------------------*- C++ -*----------------------------------*\
| =========                 |                                                 |
| \\      /  F ield         | OpenFOAM: The Open Source CFD Toolbox           |
|  \\    /   O peration     | Version:  2206                                  |
|   \\  /    A nd           | Website:  www.openfoam.com                      |
|    \\/     M anipulation  |                                                 |
\*---------------------------------------------------------------------------*/
FoamFile
{
    version     2.0;
    format      ascii;
    arch        "LSB;label=32;scalar=64";
    class       surfaceScalarField;
    location    "0.6";
    object      alphaPhi0.water;
}
// * * * * * * * * * * * * * * * * * * * * * * * * * * * * * * * * * * * * * //

dimensions      [0 3 -1 0 0 0 0];

oriented        oriented;

internalField   nonuniform List<scalar> 
4432
(
-3.15987e-06
3.15987e-06
-5.68278e-06
2.52291e-06
-6.00067e-06
3.17885e-07
-4.89195e-06
-1.10871e-06
-2.48078e-06
-2.41117e-06
1.1813e-06
-3.66208e-06
5.349e-06
-4.1677e-06
8.98212e-06
-3.63312e-06
1.14323e-05
-2.45022e-06
1.26273e-05
-1.19498e-06
1.27507e-05
-1.23348e-07
1.19944e-05
7.56287e-07
1.05589e-05
1.4355e-06
8.55559e-06
2.00328e-06
5.91072e-06
2.64487e-06
2.37035e-06
3.54038e-06
-2.21215e-06
4.5825e-06
-6.85015e-06
4.68911e-06
-9.34723e-06
3.07486e-06
-1.40506e-05
4.41606e-06
-2.02778e-05
5.22056e-06
-1.60532e-05
-4.22372e-06
-1.60523e-05
-3.66516e-06
6.82503e-06
-5.40817e-06
4.26592e-06
-5.34147e-06
2.51186e-07
-4.39475e-06
-2.05544e-06
-2.26667e-06
-4.53925e-06
1.22701e-06
-7.15575e-06
5.41413e-06
-8.35482e-06
9.101e-06
-7.31999e-06
1.15598e-05
-4.90897e-06
1.27514e-05
-2.38666e-06
1.30387e-05
-4.10634e-07
1.27955e-05
9.99537e-07
1.22379e-05
1.9931e-06
1.14678e-05
2.77335e-06
1.04794e-05
3.63326e-06
9.01046e-06
5.00933e-06
6.43421e-06
7.15875e-06
1.82581e-06
9.29751e-06
-4.33356e-06
9.70724e-06
-1.07553e-05
1.05491e-05
-1.46991e-05
8.49411e-06
-1.07742e-05
-8.33998e-06
-2.68256e-05
-2.74122e-06
9.56625e-06
-3.96264e-06
5.48734e-06
-4.07647e-06
3.65019e-07
-3.64729e-06
-2.48462e-06
-2.09869e-06
-6.08785e-06
1.05256e-06
-1.0307e-05
5.13828e-06
-1.24405e-05
8.82496e-06
-1.10067e-05
1.12483e-05
-7.33232e-06
1.23542e-05
-3.49259e-06
1.24882e-05
-5.44625e-07
1.20357e-05
1.4521e-06
1.12851e-05
2.74363e-06
1.04647e-05
3.59382e-06
9.77773e-06
4.3202e-06
9.41591e-06
5.37115e-06
9.34228e-06
7.23237e-06
8.37433e-06
1.02655e-05
5.09548e-06
1.29861e-05
-1.39867e-07
1.66217e-05
-4.4072e-06
1.26072e-05
-3.44026e-06
-9.03948e-06
-3.0172e-05
-1.35721e-06
1.09235e-05
-1.80658e-06
5.93671e-06
-1.97048e-06
5.28926e-07
-1.77235e-06
-2.68276e-06
-4.87986e-07
-7.37221e-06
2.13311e-06
-1.29281e-05
5.58545e-06
-1.58929e-05
8.70679e-06
-1.4128e-05
1.07655e-05
-9.39103e-06
1.16916e-05
-4.41871e-06
1.17536e-05
-6.06648e-07
1.12795e-05
1.92622e-06
1.05352e-05
3.48799e-06
9.73132e-06
4.39767e-06
9.03905e-06
5.01247e-06
8.64271e-06
5.76748e-06
8.93517e-06
6.93992e-06
9.97679e-06
9.22383e-06
1.07473e-05
1.22156e-05
1.06908e-05
1.66782e-05
8.17681e-06
1.49739e-05
4.98861e-06
-5.95188e-06
-2.49921e-05
5.41098e-07
1.03824e-05
1.40145e-06
5.07636e-06
1.86025e-06
7.01241e-08
2.6783e-06
-3.5008e-06
4.24991e-06
-8.94383e-06
6.28875e-06
-1.49669e-05
8.21319e-06
-1.78173e-05
9.68183e-06
-1.55967e-05
1.05592e-05
-1.02684e-05
1.09078e-05
-4.76738e-06
1.08164e-05
-5.15209e-07
1.03762e-05
2.36637e-06
9.74709e-06
4.11713e-06
9.11898e-06
5.02578e-06
8.63278e-06
5.49868e-06
8.35202e-06
6.04823e-06
8.489e-06
6.80294e-06
9.61184e-06
8.10099e-06
1.19261e-05
9.90131e-06
1.51522e-05
1.34521e-05
1.57466e-05
1.45876e-05
1.07308e-05
-7.70231e-07
-1.42818e-05
3.02778e-06
7.35458e-06
5.87949e-06
2.22465e-06
8.037e-06
-2.08738e-06
1.0466e-05
-5.92978e-06
1.26884e-05
-1.11663e-05
1.3571e-05
-1.58495e-05
1.31213e-05
-1.73677e-05
1.21366e-05
-1.46119e-05
1.11579e-05
-9.28958e-06
1.04018e-05
-4.0113e-06
9.87968e-06
6.89664e-09
9.3941e-06
2.85195e-06
8.8883e-06
4.62292e-06
8.47133e-06
5.44274e-06
8.25614e-06
5.71387e-06
8.22902e-06
6.07535e-06
8.47812e-06
6.55383e-06
9.37334e-06
7.20577e-06
1.13142e-05
7.96046e-06
1.49827e-05
9.7836e-06
1.74853e-05
1.20851e-05
1.27425e-05
3.97071e-06
-1.53898e-06
5.5163e-06
1.83829e-06
1.11174e-05
-3.3764e-06
1.65738e-05
-7.54381e-06
2.11128e-05
-1.04687e-05
2.2776e-05
-1.28294e-05
2.12429e-05
-1.43163e-05
1.81031e-05
-1.42279e-05
1.4983e-05
-1.14919e-05
1.24851e-05
-6.79172e-06
1.06471e-05
-2.17324e-06
9.39381e-06
1.26015e-06
8.58553e-06
3.66022e-06
8.04302e-06
5.16542e-06
7.80701e-06
5.67875e-06
7.88875e-06
5.63213e-06
8.11941e-06
5.84469e-06
8.56587e-06
6.10737e-06
9.51727e-06
6.25437e-06
1.09637e-05
6.51404e-06
1.36766e-05
7.07069e-06
1.64365e-05
9.32516e-06
1.40105e-05
6.39673e-06
1.24702e-05
8.30778e-06
-6.4695e-06
1.79024e-05
-1.27467e-05
2.58326e-05
-1.41534e-05
2.92709e-05
-1.22599e-05
2.7773e-05
-9.77478e-06
2.38294e-05
-9.04241e-06
1.94521e-05
-9.75023e-06
1.58982e-05
-7.93815e-06
1.32926e-05
-4.18621e-06
1.14826e-05
-3.63215e-07
9.99177e-06
2.75098e-06
8.70483e-06
4.94716e-06
7.72084e-06
6.14941e-06
7.25198e-06
6.14761e-06
7.42078e-06
5.46334e-06
7.8147e-06
5.45076e-06
8.45691e-06
5.46517e-06
9.66144e-06
5.04984e-06
1.11964e-05
4.97909e-06
1.31303e-05
5.13682e-06
1.50761e-05
7.37936e-06
1.33462e-05
8.12661e-06
2.58152e-05
-1.51713e-05
1.01563e-05
-3.35633e-05
6.59029e-06
-9.70651e-06
-3.5001e-05
3.41769e-05
-5.02438e-05
3.8765e-05
-2.29554e-05
2.24193e-05
3.74249e-06
-1.02919e-05
4.42049e-05
-7.93337e-05
6.60103e-05
-0.000112328
2.99302e-05
-0.000117898
2.26858e-06
-0.000117581
-2.33731e-06
-0.000117251
-2.93292e-06
-0.000118285
-2.88298e-06
-0.000118485
-4.41609e-06
-0.000114433
-8.07634e-06
-0.000103447
-1.41447e-05
-7.33052e-05
-3.29356e-05
-1.25229e-05
-6.33172e-05
-1.45923e-05
-1.26414e-05
1.77827e-05
-1.81992e-05
8.27104e-06
3.89457e-06
-5.70947e-05
2.74102e-05
-7.37594e-05
4.29527e-05
-6.79361e-05
1.44097e-05
1.62432e-05
-5.43714e-05
9.67778e-05
-6.57178e-05
6.46082e-05
-4.64331e-05
7.88207e-06
-4.57204e-05
-1.27766e-08
-5.28375e-05
-8.48603e-08
-6.45392e-05
-3.05112e-07
-7.96292e-05
-8.90606e-07
-9.45693e-05
-2.28691e-06
-0.00010656
-5.88302e-06
-0.000112627
-1.57274e-05
-8.66945e-05
-6.42309e-05
-2.72902e-05
-0.000123607
-4.25387e-05
-6.22593e-06
5.07602e-05
2.81751e-06
-7.88285e-07
1.90173e-05
-7.32944e-05
4.04893e-05
-9.52314e-05
6.13478e-05
-8.87945e-05
1.48033e-05
3.75051e-05
-3.77431e-05
0.000116053
-7.41486e-06
-3.27725e-07
-1.06718e-07
5.70888e-07
-1.4153e-07
1.91223e-08
-2.40073e-07
1.12659e-08
-5.42849e-07
5.23871e-10
-1.39027e-06
-2.93489e-08
-3.49952e-06
-1.73226e-07
-8.73395e-06
-6.88416e-07
-2.94936e-05
-4.62324e-06
-7.4189e-05
-2.99792e-05
-3.76753e-05
-0.000172671
-8.02139e-05
-6.64105e-07
6.17768e-05
1.64811e-05
-1.79327e-05
3.35093e-05
-9.03226e-05
5.26016e-05
-0.000114324
6.91026e-05
-0.000105295
2.49853e-05
3.72125e-05
3.86993e-06
7.0526e-05
-5.03032e-07
4.06924e-06
-8.51531e-08
1.50433e-07
-1.01675e-07
3.30671e-08
-1.14695e-07
2.13449e-08
-1.31256e-07
1.503e-08
-1.45268e-07
-9.28682e-09
-2.39885e-07
-3.74262e-08
-8.01429e-07
-1.37439e-07
-4.25122e-06
-1.21256e-06
-2.65254e-05
-8.74055e-06
-4.47479e-05
-0.000165049
-0.000124962
6.73058e-06
5.50577e-05
2.84989e-05
-3.96761e-05
4.5057e-05
-0.000106879
5.95491e-05
-0.000128816
7.17165e-05
-0.000117463
1.91982e-05
3.90662e-05
7.89689e-08
0.000134776
-5.58205e-08
4.20818e-06
-1.05816e-07
1.84605e-07
-2.19156e-07
1.44781e-07
-2.48132e-07
6.46103e-08
-2.42229e-07
2.28039e-08
-1.7444e-07
-1.19155e-08
-1.02994e-07
-3.8286e-08
-1.78501e-07
-5.30215e-08
-1.03319e-06
-3.77454e-07
-6.19659e-06
-3.65651e-06
-4.34596e-05
-0.00013571
-0.000168421
1.60298e-05
3.90223e-05
3.97559e-05
-6.33861e-05
5.24622e-05
-0.000119583
6.24678e-05
-0.000138822
6.95581e-05
-0.000124557
1.48013e-05
6.359e-05
1.28962e-06
0.000267586
-1.11611e-07
4.69777e-06
-1.72417e-07
2.49987e-07
-2.30222e-07
2.16395e-07
-2.42143e-07
8.70641e-08
-2.35379e-07
2.64945e-08
-1.94291e-07
-3.97072e-08
-4.70065e-08
-3.74959e-08
-4.24675e-08
-3.78721e-08
-3.06032e-07
-1.13874e-07
-2.16229e-06
-1.82756e-06
-3.71874e-05
-0.000105796
-0.000205609
2.86648e-05
1.03497e-05
4.89841e-05
-8.3719e-05
5.50483e-05
-0.000125647
6.1963e-05
-0.000145737
6.28229e-05
-0.000125438
1.68438e-05
0.000106876
-8.64125e-07
0.000281303
-2.30729e-07
2.10627e-06
-3.18832e-07
3.71158e-07
-2.2804e-07
1.37421e-07
-2.47934e-07
1.17733e-07
-2.09471e-07
1.96492e-08
-8.65823e-08
-1.05089e-08
-3.43962e-08
-3.05156e-08
-9.38852e-09
-4.36431e-08
-9.00744e-08
-3.5564e-08
-1.40139e-06
-5.26092e-07
-2.9007e-05
-8.25921e-05
-0.000234615
4.2039e-05
-3.16952e-05
5.35852e-05
-9.52664e-05
5.35643e-05
-0.000125628
5.90281e-05
-0.000151202
5.2647e-05
-0.000121936
1.62359e-05
0.000121861
-7.0303e-08
0.000191544
-2.34798e-07
2.16507e-06
-2.58994e-07
5.12891e-07
-1.21449e-07
2.72732e-08
-2.39613e-08
2.67355e-08
-1.36238e-08
4.08533e-09
-2.11036e-08
-2.86032e-09
-1.96039e-08
-8.94856e-09
-2.71311e-09
-2.27864e-08
-2.47414e-08
-1.35901e-08
-5.34307e-07
-1.58088e-08
-2.03902e-05
-6.73515e-05
-0.000255003
1.65207e-05
-4.49089e-13
2.02432e-05
-5.24652e-09
1.97185e-05
-3.10319e-07
1.66265e-05
-8.05051e-07
1.63933e-05
-1.49458e-06
1.73097e-05
-1.72839e-06
1.80128e-05
-2.6736e-06
1.78461e-05
-2.77322e-06
1.84412e-05
-2.04356e-06
1.98838e-05
-6.07807e-07
2.0652e-05
1.77357e-06
1.9825e-05
5.77414e-06
1.822e-05
7.7544e-06
1.73368e-05
7.03076e-06
1.76771e-05
5.12313e-06
1.76546e-05
5.47321e-06
1.80727e-05
5.04705e-06
2.02898e-05
2.83276e-06
2.40945e-05
1.17435e-06
2.90447e-05
1.86654e-07
3.65141e-05
-9.00556e-08
4.72339e-05
-2.59319e-06
3.56613e-06
6.94834e-05
1.58651e-13
-7.31482e-13
-5.22573e-09
-2.05955e-11
-3.16033e-07
-1.54186e-11
-1.66863e-06
-4.41331e-14
-3.09228e-06
-9.62789e-14
-3.41071e-06
-2.05255e-12
-4.01047e-06
-3.50162e-11
-4.56202e-06
-5.01305e-10
-4.47907e-06
-6.3637e-09
-3.29791e-06
-7.31239e-08
-1.17008e-06
-5.14837e-07
3.68661e-06
-4.78484e-07
1.18574e-05
-3.93908e-07
1.85828e-05
9.91075e-07
2.16352e-05
2.21467e-06
2.02372e-05
6.87122e-06
1.89392e-05
6.34508e-06
2.06863e-05
1.08566e-06
2.41597e-05
-2.29906e-06
2.80126e-05
-3.66627e-06
3.31923e-05
-5.26975e-06
3.87634e-05
-8.16422e-06
-9.31495e-06
5.16472e-05
-1.11238e-12
-3.00032e-13
-7.17261e-11
9.0908e-13
-7.94739e-16
-1.37009e-13
-3.51398e-15
2.02093e-16
-9.9857e-14
-8.52146e-17
-2.15149e-12
-2.04102e-15
-3.71037e-11
-8.1896e-14
-5.38613e-10
8.14973e-14
-6.90224e-09
-5.48449e-14
-8.00241e-08
-2.0705e-12
-5.94815e-07
-4.56665e-11
-2.04401e-06
-8.12888e-10
-4.03072e-06
-1.20651e-08
-4.98364e-06
-1.46765e-07
-3.58413e-06
-1.22987e-06
2.22388e-06
-1.49483e-06
1.07515e-05
-1.17731e-06
2.23481e-05
-3.97388e-06
2.92176e-05
-4.91765e-06
3.26607e-05
-5.49154e-06
3.76362e-05
-8.94781e-06
4.40275e-05
-1.39343e-05
-1.63655e-05
5.10814e-05
-5.72366e-13
-2.15239e-16
-1.18594e-12
-5.03194e-14
-4.38607e-17
1.59982e-14
-1.39122e-17
2.27553e-17
-2.12771e-16
-1.63898e-17
-2.64994e-15
2.12348e-16
-8.5173e-14
2.4175e-16
-6.11713e-15
8.30313e-16
-4.14621e-14
4.78926e-16
-2.08094e-12
-1.09886e-14
-4.75762e-11
-1.63276e-13
-8.5976e-10
-4.39677e-13
-1.29231e-08
-1.2073e-12
-1.59661e-07
-2.66726e-11
-1.38864e-06
-8.91409e-10
-2.35587e-06
-1.78555e-09
-3.37751e-06
-8.75061e-10
-4.81728e-06
-2.19075e-10
-2.8924e-06
-8.0565e-10
1.24639e-06
-9.03581e-09
6.86172e-06
-1.38645e-07
1.42224e-05
-1.71209e-06
-5.79633e-06
2.06677e-05
-2.31335e-14
-2.21571e-17
-1.22719e-14
-6.98181e-17
1.11218e-14
6.21332e-16
7.61396e-17
1.87795e-16
-6.13911e-19
1.35175e-16
-2.6957e-18
3.06319e-17
5.07866e-18
5.01784e-17
1.01941e-16
1.92726e-16
8.94493e-15
9.08427e-15
1.90145e-13
2.56659e-13
1.22858e-13
6.17989e-13
-1.61073e-13
3.99486e-13
-6.87165e-13
-7.57449e-14
-2.24448e-11
-4.33524e-12
-5.93427e-11
-8.54095e-10
-7.17372e-11
-1.77146e-09
-8.2124e-11
-8.46755e-10
-1.34832e-10
-1.31608e-10
-6.74626e-10
-2.29905e-10
-9.46706e-09
-2.25287e-10
-1.47113e-07
-1.18782e-09
-1.85768e-06
-1.73609e-09
-5.22298e-09
-6.55759e-06
-2.72645e-17
2.63379e-19
-1.08052e-16
-1.67015e-18
1.58025e-16
3.66087e-18
5.36094e-18
1.33026e-17
-1.59681e-17
4.80911e-17
-6.55524e-18
7.22626e-17
-3.57141e-17
5.09224e-17
-4.39372e-16
5.7186e-16
-7.44752e-13
2.31699e-13
-1.9848e-12
6.19015e-13
2.23201e-13
-7.17987e-13
5.36321e-13
-2.51069e-13
1.04601e-12
-6.52647e-15
-4.49774e-11
1.09688e-12
-6.09746e-10
-1.87212e-10
-6.1103e-10
-8.21205e-10
-4.85e-10
-1.94956e-10
-4.06873e-10
-5.4838e-11
-2.63888e-10
-7.18285e-10
-2.78619e-10
-4.57023e-10
-3.5555e-10
-1.30073e-09
-6.10836e-10
-1.61709e-09
-2.42963e-10
-5.66493e-09
-5.43287e-20
6.30474e-21
-4.89306e-19
6.34355e-21
6.6639e-19
5.01524e-19
4.22031e-19
1.2401e-17
-1.16121e-17
6.57473e-17
-1.07645e-17
1.3892e-16
-2.65469e-19
1.45392e-16
3.59922e-16
2.52374e-16
-5.43042e-13
2.79494e-13
-2.5824e-12
1.16883e-12
-3.15574e-12
7.27376e-13
-4.0924e-13
8.99617e-15
-4.2834e-13
-5.03671e-15
6.09238e-13
8.27568e-15
-3.28399e-10
-1.95229e-14
-2.41696e-10
-7.22196e-14
-2.03964e-11
-5.15342e-12
2.38541e-10
-6.50467e-12
-1.00772e-09
-1.26999e-09
-1.50915e-09
-7.47049e-09
1.59243e-09
-1.17915e-08
2.58136e-09
-7.96705e-09
2.64056e-09
9.09794e-11
-3.59734e-22
1.18836e-22
-3.12468e-21
1.02567e-22
-9.23133e-20
1.8722e-19
-2.39363e-18
9.27425e-18
-1.17857e-17
6.73775e-17
-1.25625e-17
1.45477e-16
-1.30675e-17
1.84584e-16
2.99148e-16
1.84149e-16
-8.41533e-14
4.97772e-15
-2.12203e-12
1.66242e-13
-1.60291e-12
1.08028e-12
-2.48726e-14
1.29628e-15
-3.76509e-14
-1.00677e-14
-1.43199e-15
-8.50789e-15
-2.12309e-15
-3.55777e-14
-9.29327e-14
-3.54832e-15
-5.18036e-12
-9.13459e-14
-3.68458e-12
-8.48328e-12
-1.25168e-09
-9.24456e-10
-3.19886e-09
-4.8334e-09
-3.88689e-10
-1.45486e-08
4.3766e-09
-1.26886e-08
-7.54529e-10
7.81841e-09
-6.11618e-24
1.07927e-22
-2.68707e-22
8.09722e-24
-4.4531e-20
2.68215e-20
-1.59171e-18
2.79185e-18
-9.5427e-18
3.62322e-17
-1.40258e-17
1.23203e-16
-1.08184e-17
1.85773e-16
-3.98704e-18
1.86805e-16
-3.64327e-15
2.00018e-16
-1.05916e-13
4.49177e-17
-7.30543e-15
1.73977e-15
-2.4776e-14
3.16188e-16
-1.1315e-13
-1.12092e-15
-8.95102e-14
-3.0945e-14
-4.80265e-15
-3.59882e-14
-2.41189e-14
-1.26679e-15
1.65346e-13
-3.02949e-13
-1.17287e-10
-5.39182e-12
-5.13725e-11
-1.28686e-11
-1.77962e-09
-2.0503e-10
-3.29909e-09
-9.29718e-09
-6.23058e-10
-1.53116e-08
-4.25542e-09
2.92154e-09
-2.84434e-24
-4.89013e-23
-2.24355e-23
1.03359e-23
-9.99227e-21
3.49647e-21
-4.55349e-19
5.10123e-19
-4.30927e-18
8.82979e-18
-1.40929e-17
5.72052e-17
-1.72773e-17
1.85204e-16
-1.55463e-17
2.53008e-16
-3.31512e-17
2.47768e-16
-3.10624e-16
2.82513e-16
-4.01327e-16
-5.90673e-16
-7.85666e-15
1.16023e-15
-9.92134e-14
4.77837e-15
-5.88332e-14
-5.18617e-15
4.5359e-15
-7.01918e-15
4.50673e-15
-6.71497e-17
-2.96394e-12
-2.72794e-15
-1.77814e-13
-2.26097e-13
-1.38335e-11
-5.08802e-13
-1.91111e-10
-3.01072e-11
-8.25907e-09
-2.88763e-09
-7.82482e-09
-1.57022e-08
-3.31165e-09
-4.56166e-09
6.63026e-25
-1.30673e-22
-2.97671e-22
-3.36761e-24
-2.15167e-21
6.43354e-22
-9.68452e-20
1.08528e-19
-1.18551e-18
1.81262e-18
-9.62466e-18
1.59616e-17
-2.61284e-17
1.06591e-16
-2.94404e-17
2.5403e-16
-1.05998e-16
3.0484e-16
-8.04572e-16
2.90087e-15
-6.64389e-15
1.32045e-14
-1.34564e-14
1.87208e-14
-6.68909e-14
1.58526e-14
-2.54811e-14
8.35496e-15
-1.20211e-15
-2.2621e-17
-5.77566e-17
-4.01668e-17
-2.84223e-15
-2.50943e-17
-2.27675e-13
-1.67807e-15
-6.78933e-13
-7.84709e-14
-2.59232e-11
-6.15889e-12
-1.21828e-08
-2.68486e-10
-2.38876e-08
-7.46267e-09
-9.4161e-10
-6.4683e-09
1.32892e-23
-1.84221e-22
-4.86225e-23
-9.97446e-23
-4.58702e-22
9.6732e-23
-2.01259e-20
2.27122e-20
-2.76146e-19
3.92051e-19
-5.11579e-18
4.13672e-18
-2.8424e-17
4.97624e-17
-3.79029e-17
1.61068e-16
-1.28768e-16
2.05292e-16
-3.13764e-15
3.16396e-15
-2.15743e-14
2.16761e-14
-2.40994e-14
3.66545e-14
-2.6424e-15
1.84262e-14
-4.2075e-16
1.99218e-16
-3.39528e-16
7.98474e-17
-4.17443e-17
1.6382e-17
-3.07879e-17
-2.53865e-18
-1.61345e-15
-1.66751e-16
-6.30794e-14
-2.43227e-14
-4.58253e-12
-2.0182e-12
-1.09242e-09
-7.05519e-11
-2.25712e-08
-2.10506e-09
3.04788e-09
-2.50731e-08
9.91038e-24
-1.96298e-22
-3.77876e-24
-1.10676e-22
-7.903e-23
3.93789e-23
-4.23997e-21
3.9011e-21
-5.92787e-20
7.91253e-20
-1.64752e-18
8.34262e-19
-1.45002e-17
1.36054e-17
-2.77522e-17
6.6379e-17
-1.13837e-16
1.51975e-16
-5.82033e-15
2.20811e-15
-2.52255e-14
2.3805e-14
-1.77294e-14
3.23953e-14
-3.1126e-16
3.20299e-15
-4.14608e-16
2.14832e-16
-1.78033e-16
1.8246e-16
-3.1253e-17
3.51448e-17
-2.1633e-17
2.52876e-18
-2.3433e-16
8.00396e-18
-2.48857e-14
-1.20222e-16
-2.03128e-12
-2.7046e-14
-6.01399e-10
-1.13434e-12
-3.94183e-09
-1.81652e-11
-1.47294e-10
-2.60002e-09
6.18319e-24
-1.8172e-22
3.74956e-24
-9.86627e-23
-2.13886e-22
-4.46149e-23
-8.10581e-22
4.72888e-22
-1.11686e-20
1.34349e-20
-2.99961e-19
1.43451e-19
-4.07328e-18
2.6856e-18
-1.45146e-17
2.26584e-17
-1.10092e-16
1.0975e-16
-4.14293e-15
9.5822e-16
-1.07278e-14
5.22129e-15
-3.04997e-15
5.26953e-15
-1.41145e-15
9.20992e-16
-6.09109e-16
7.96617e-16
-1.23357e-16
2.10278e-16
-1.34532e-17
1.94482e-17
-9.38561e-18
2.73007e-18
-1.40062e-17
2.16102e-18
-1.70332e-16
4.87175e-18
-2.75445e-14
-1.23898e-16
-1.17423e-12
-2.90859e-15
-1.97295e-11
-2.00382e-13
-8.69383e-12
-1.6956e-10
3.69709e-24
-1.52701e-22
1.32517e-23
-7.67606e-23
-2.45656e-23
-1.73231e-22
-1.06037e-22
3.14506e-23
-1.92885e-21
1.79052e-21
-5.43861e-20
2.90051e-20
-1.01596e-18
6.46622e-19
-8.09439e-18
8.56382e-18
-6.79733e-17
5.5418e-17
-6.20545e-16
1.44669e-16
-9.1398e-16
1.50921e-16
-8.00161e-16
1.5367e-16
-9.50836e-16
4.89967e-16
-3.83323e-16
8.8128e-16
-5.76858e-17
1.11747e-16
-7.32513e-18
1.28085e-17
-8.36866e-18
2.81526e-18
-1.78908e-17
3.55499e-18
-7.36922e-17
1.64391e-17
-3.31837e-16
5.98432e-17
-3.76913e-15
2.61704e-16
-2.301e-13
-3.81469e-15
-3.50423e-13
-9.23545e-12
2.05164e-24
-1.17245e-22
1.11335e-23
-5.04483e-23
-9.668e-25
-1.54332e-22
-7.15962e-24
9.67715e-24
-2.73372e-22
1.73285e-22
-9.24288e-21
5.85354e-21
-3.94763e-19
1.68992e-19
-8.33122e-18
3.95536e-18
-2.91277e-17
2.54157e-17
-1.85586e-17
2.80948e-17
-2.76708e-17
1.61433e-17
-1.64823e-16
1.40156e-17
-2.60885e-16
7.30284e-17
-8.78291e-17
9.60782e-17
-1.87773e-17
1.66266e-17
-2.50621e-18
4.33541e-18
-3.03234e-18
9.04948e-19
-1.1198e-17
1.47733e-18
-6.51907e-17
1.7346e-17
-3.38053e-16
8.41482e-17
-1.04213e-15
4.05394e-16
-4.06997e-15
1.50884e-15
-6.96885e-15
-3.8139e-13
1.06607e-24
-8.19177e-23
7.15332e-24
-2.89104e-23
1.60025e-24
-1.03553e-22
-1.21389e-23
-1.62587e-23
-3.48841e-23
1.35718e-23
-1.72155e-21
1.19936e-21
-1.06299e-19
3.44922e-20
-3.02188e-18
7.91343e-19
-8.82672e-18
5.70288e-18
-8.97712e-18
9.47382e-18
-6.24318e-18
1.00667e-17
-1.05357e-17
5.96072e-18
-1.45872e-17
2.81456e-18
-1.04209e-17
1.67907e-18
-3.7982e-18
1.49594e-18
-5.99108e-19
6.96656e-19
-6.39887e-19
2.00049e-19
-1.72609e-18
2.02077e-19
-2.3698e-17
3.41157e-18
-1.94241e-16
5.34052e-17
-1.15338e-15
4.47715e-16
-4.40647e-15
2.29708e-15
8.12952e-15
-2.55749e-14
4.93574e-25
-5.17434e-23
3.86618e-24
-1.43588e-23
2.03394e-24
-5.8141e-23
-1.15935e-24
-2.11729e-23
-6.52391e-24
1.37646e-24
-4.11571e-22
2.45743e-22
-1.31135e-20
5.31643e-21
-2.55549e-19
5.47047e-20
-1.30068e-18
3.95455e-19
-3.08402e-18
1.47969e-18
-3.39305e-18
3.55771e-18
-1.73739e-18
3.2242e-18
-5.28136e-19
5.6472e-19
-3.68233e-19
1.34867e-19
-2.28309e-19
3.11993e-20
-9.7818e-20
2.2382e-20
-1.13256e-19
2.70994e-20
-2.64359e-19
5.34018e-20
-5.51877e-18
9.95701e-19
-8.65584e-17
1.99802e-17
-7.06482e-16
2.61991e-16
-3.28675e-15
1.74612e-15
7.03996e-15
-9.2718e-15
1.95416e-25
-2.9373e-23
1.75231e-24
-6.08539e-24
1.21148e-24
-2.74334e-23
-1.27064e-25
-1.30612e-23
-1.10948e-24
1.36209e-25
-7.96841e-23
3.35972e-23
-1.57313e-21
7.53073e-22
-2.11775e-20
7.37607e-21
-1.46623e-19
5.08352e-20
-5.05947e-19
1.79758e-19
-6.27044e-19
3.42481e-19
-3.35243e-19
4.21496e-19
-1.16886e-19
1.28693e-19
-1.39176e-20
3.9267e-20
-3.84347e-21
2.16583e-21
-4.43809e-21
3.56646e-22
-6.62198e-21
6.91276e-22
-6.32963e-20
1.43782e-20
-1.39883e-18
4.11481e-19
-2.29541e-17
6.87521e-18
-2.49258e-16
8.46974e-17
-1.47963e-15
7.59405e-16
4.01185e-15
-4.70943e-15
6.37234e-26
-1.49147e-23
6.5635e-25
-2.15863e-24
5.13942e-25
-1.08128e-23
-9.59309e-27
-5.81188e-24
-9.91048e-26
8.07208e-26
-8.84684e-24
2.86729e-24
-2.35666e-22
9.89502e-23
-4.00763e-21
1.44815e-21
-2.40772e-20
9.83627e-21
-4.9568e-20
2.28946e-20
-5.66312e-20
2.51742e-20
-3.74683e-20
2.14698e-20
-1.60526e-20
1.2633e-20
-1.69124e-21
4.74981e-21
-1.20803e-22
4.12778e-22
-1.26116e-22
1.31815e-23
-3.56627e-22
4.17031e-23
-1.65386e-20
3.9783e-21
-4.30965e-19
1.55072e-19
-6.01867e-18
2.76634e-18
-6.17281e-17
2.89627e-17
-4.45525e-16
2.3931e-16
1.48701e-15
-1.6936e-15
1.6604e-26
-6.75138e-24
2.0046e-25
-6.267e-25
1.70298e-25
-3.51999e-24
4.55499e-27
-2.04687e-24
-2.11554e-25
-4.09753e-26
-8.46322e-25
1.92628e-25
-3.49394e-23
1.12897e-23
-5.98026e-22
1.86479e-22
-2.74315e-21
1.00733e-21
-3.91343e-21
1.94181e-21
-4.19414e-21
2.05943e-21
-3.10308e-21
1.73044e-21
-1.32196e-21
1.10442e-21
-1.9461e-22
3.24487e-22
-2.71038e-24
3.48721e-23
-3.14189e-24
8.70058e-24
-4.80753e-23
7.24646e-24
-3.67321e-21
9.75491e-22
-1.29227e-19
4.9033e-20
-1.8915e-18
1.11336e-18
-1.61492e-17
1.19033e-17
-1.0813e-16
8.65634e-17
5.75481e-16
-4.3923e-16
3.35191e-27
-2.71926e-24
4.92202e-26
-1.45377e-25
4.49054e-26
-9.35845e-25
5.53679e-27
-5.8218e-25
-1.39793e-26
-5.40118e-26
-7.1004e-26
1.01151e-26
-3.86378e-24
8.85088e-25
-5.18743e-23
1.44988e-23
-1.96503e-22
6.66603e-23
-3.021e-22
1.37181e-22
-3.35746e-22
1.74794e-22
-2.7166e-22
1.78649e-22
-9.51251e-23
9.97538e-23
-6.69442e-24
1.39321e-23
4.81235e-24
5.99801e-24
-2.38934e-24
-1.33819e-23
-5.58802e-24
7.73724e-25
-6.66413e-22
1.79296e-22
-3.2393e-20
1.30738e-20
-5.37662e-19
3.87542e-19
-4.06193e-18
4.83934e-18
-2.84197e-17
3.83981e-17
3.4501e-16
-1.75877e-16
5.08066e-28
-9.74162e-25
9.6112e-27
-2.63299e-26
9.46058e-27
-2.01773e-25
1.89716e-27
-1.34652e-25
-6.18899e-28
-2.03916e-26
-3.77906e-27
3.09346e-28
-2.59639e-25
3.92591e-26
-3.21686e-24
7.52902e-25
-1.22189e-23
3.82503e-24
-2.13668e-23
8.79816e-24
-2.38688e-23
1.2021e-23
-1.88772e-23
1.15539e-23
-3.89927e-24
3.81067e-24
4.64279e-24
2.90382e-24
7.48106e-24
-1.60679e-23
-2.25557e-25
-2.54348e-23
-4.64891e-25
7.69179e-25
-9.42356e-23
2.56621e-23
-6.4626e-21
2.97824e-21
-1.33656e-19
1.1909e-19
-1.01179e-18
1.93386e-18
-7.02034e-18
1.82587e-17
2.09334e-16
-4.89139e-17
5.5988e-29
-3.10784e-25
1.48254e-27
-3.65368e-27
1.59821e-27
-3.52123e-26
4.0109e-28
-2.55166e-26
-1.82519e-29
-4.84149e-27
-1.08951e-28
6.08842e-30
-9.97205e-27
9.59584e-28
-1.44734e-25
2.44312e-26
-6.06147e-25
1.49684e-25
-1.07766e-24
3.49979e-25
-1.10567e-24
4.05197e-25
-6.32839e-25
3.04849e-25
1.39457e-24
8.27438e-25
4.39747e-24
-6.03074e-24
5.24261e-24
-1.86127e-23
1.51244e-24
-2.21665e-23
-4.19633e-24
-6.54373e-24
-1.15984e-23
4.38824e-24
-1.02854e-21
6.49898e-22
-2.70131e-20
3.44071e-20
-2.16951e-19
7.4608e-19
-1.11369e-18
8.79053e-18
1.19868e-16
7.73812e-18
4.33636e-30
-8.85289e-26
1.80565e-28
-3.87382e-28
2.17755e-28
-4.99951e-27
6.16212e-29
-4.00363e-27
-3.53657e-31
-8.55065e-28
-1.78327e-30
8.20822e-32
-2.34749e-28
1.38567e-29
-4.48561e-27
4.45048e-28
-1.94925e-26
2.83098e-27
-1.97508e-26
5.11304e-27
-1.73768e-26
1.43871e-25
2.14645e-25
7.28274e-26
1.069e-24
-1.17e-24
2.17309e-24
-5.67894e-24
2.33247e-24
-1.14904e-23
9.59265e-25
-1.25764e-23
-5.55463e-25
-5.4345e-24
-1.45884e-24
9.32361e-25
-1.57539e-22
1.67083e-22
-4.67991e-21
1.15392e-20
-2.58934e-20
3.11379e-19
3.35481e-19
4.09523e-18
5.7867e-17
1.59286e-17
2.21951e-31
-2.2601e-26
1.76076e-29
-3.28895e-29
2.42203e-29
-5.89123e-28
7.38183e-30
-5.29185e-28
-5.20131e-33
-1.21162e-28
-1.90789e-32
6.8922e-32
-3.27543e-30
8.78543e-30
-6.62889e-29
5.82133e-30
-1.74711e-28
1.37382e-27
6.01931e-28
2.45256e-27
2.10028e-26
-4.43682e-27
1.37639e-25
-1.46964e-25
4.23498e-25
-9.3286e-25
7.26766e-25
-2.84349e-24
7.32011e-25
-4.95796e-24
3.25802e-25
-5.23289e-24
-7.90521e-26
-2.541e-24
-1.88884e-25
2.27045e-25
-2.28151e-23
4.74784e-23
-4.64027e-22
4.31223e-21
1.32059e-20
1.43631e-19
4.73069e-19
1.82614e-18
1.8721e-17
1.02424e-17
3.60653e-33
-5.19289e-27
1.39509e-30
-2.34781e-30
2.22887e-30
-5.90592e-29
7.18794e-31
-6.01167e-29
2.79433e-32
-1.4443e-29
1.33785e-31
-4.53478e-31
-2.9456e-31
-1.83392e-30
5.10726e-31
3.52722e-30
1.40716e-28
-5.49079e-30
1.71019e-27
-1.39065e-27
1.05219e-26
-1.58826e-26
4.4479e-26
-9.38923e-26
1.13258e-25
-3.90811e-25
1.76314e-25
-1.00662e-24
1.67587e-25
-1.63832e-24
7.31662e-26
-1.69929e-24
-1.03908e-26
-8.62155e-25
-1.85936e-26
5.43684e-26
-9.60241e-25
1.1598e-23
1.72457e-22
1.3469e-21
1.53871e-20
5.96412e-20
3.1672e-19
7.68764e-19
4.7487e-18
3.76074e-18
-2.57305e-30
-1.07774e-27
8.99394e-32
-2.79923e-31
1.71543e-31
-5.15508e-30
5.86795e-32
-5.98328e-30
1.39804e-32
-1.50536e-30
1.26789e-31
-2.903e-31
9.47889e-31
-2.22965e-30
8.34264e-30
-1.46351e-29
7.51338e-29
-1.16583e-28
5.60709e-28
-9.75076e-28
2.73685e-27
-6.93766e-27
9.58983e-27
-3.31585e-26
2.17323e-26
-1.17254e-25
3.10163e-26
-2.78073e-25
2.70032e-26
-4.36278e-25
1.03901e-26
-4.48761e-25
-7.79565e-28
-2.31607e-25
4.2592e-28
1.06985e-26
4.35504e-25
2.11355e-24
1.08205e-22
2.80312e-22
8.41942e-21
1.75155e-20
1.6047e-19
2.74865e-19
1.40794e-18
1.20634e-18
-1.30836e-30
-2.02583e-28
4.47523e-33
-1.16146e-31
1.11164e-32
-3.99726e-31
4.13554e-33
-5.30542e-31
3.63841e-33
-1.43145e-31
3.76727e-32
-1.02457e-31
3.21483e-31
-9.02072e-31
2.54169e-30
-6.82381e-30
1.81663e-29
-4.94567e-29
1.09505e-28
-3.3493e-28
4.6814e-28
-1.97575e-27
1.43392e-27
-8.57138e-27
2.86901e-27
-2.78708e-26
3.51838e-27
-6.30575e-26
2.34649e-27
-9.68148e-26
3.48872e-28
-9.92098e-26
-7.68357e-28
-5.13535e-26
2.56711e-27
1.72697e-27
1.56091e-25
2.71702e-25
3.06762e-23
3.86921e-23
2.81664e-21
3.36049e-21
6.14683e-20
7.18595e-20
4.28227e-19
4.07096e-19
-3.85909e-31
-3.45582e-29
1.32486e-34
-3.90581e-32
5.97248e-34
-2.80119e-32
2.60855e-34
-4.25288e-32
6.2272e-34
-1.31262e-32
6.76694e-33
-2.56646e-32
5.90627e-32
-2.38822e-31
4.38066e-31
-1.87608e-30
2.75662e-30
-1.31123e-29
1.41369e-29
-8.14678e-29
5.2037e-29
-4.34343e-28
1.29767e-28
-1.77866e-27
1.84839e-28
-5.50665e-27
7.32e-29
-1.20996e-26
-2.02152e-28
-1.83193e-26
-5.62297e-28
-1.87362e-26
-5.12438e-28
-9.61295e-27
8.67091e-28
2.04207e-28
2.92029e-26
2.59644e-26
5.5022e-24
3.895e-24
6.29171e-22
4.53909e-22
1.70788e-20
1.31244e-20
9.82915e-20
1.23163e-19
-8.56017e-32
-5.35808e-30
-2.09926e-35
-9.57109e-33
2.57437e-35
-1.80171e-33
1.52603e-35
-3.12324e-33
7.56076e-35
-1.23305e-33
8.43725e-34
-5.01417e-33
7.23527e-33
-4.79321e-32
4.96969e-32
-3.82524e-31
2.70573e-31
-2.62769e-30
1.09217e-30
-1.561e-29
2.60656e-30
-7.84609e-29
4.71282e-31
-3.09611e-28
-9.52644e-30
-9.29844e-28
-4.82283e-29
-2.00454e-27
-1.24094e-28
-3.00468e-27
-1.90742e-28
-3.06825e-27
-1.34623e-28
-1.54222e-27
1.80951e-28
1.64104e-29
3.64527e-27
1.97297e-27
6.77606e-25
2.93105e-25
9.94696e-23
4.58082e-23
3.47192e-21
1.80033e-21
1.61851e-20
2.88631e-20
-1.56495e-32
-7.55792e-31
-1.42638e-35
-1.88238e-33
8.45539e-37
-1.08308e-34
8.5069e-37
-2.12909e-34
7.08727e-36
-1.22516e-34
8.11481e-35
-8.05361e-34
6.67078e-34
-7.81305e-33
4.03659e-33
-6.29184e-32
1.6178e-32
-4.28655e-31
1.98484e-32
-2.48377e-30
-6.66446e-32
-1.20547e-29
-7.00883e-31
-4.64591e-29
-3.76217e-30
-1.36778e-28
-1.25429e-29
-2.90924e-28
-2.6903e-29
-4.32752e-28
-3.7579e-29
-4.40817e-28
-2.40672e-29
-2.14015e-28
2.69015e-29
9.86946e-31
3.36171e-28
1.34892e-28
5.87261e-26
1.76693e-26
1.13342e-23
3.62763e-24
5.4155e-22
2.04535e-22
2.18723e-21
5.27034e-21
-2.49337e-33
-9.69973e-32
-3.87183e-36
-3.16862e-34
1.57035e-38
-6.30387e-36
4.787e-38
-1.36656e-35
6.37227e-37
-1.26387e-35
7.72526e-36
-1.10213e-34
6.36979e-35
-1.07929e-33
3.45878e-34
-8.74722e-33
8.84426e-34
-5.93981e-32
-9.01943e-34
-3.39486e-31
-1.65258e-32
-1.61353e-30
-1.24566e-31
-6.12146e-30
-5.93419e-31
-1.77826e-29
-1.86036e-30
-3.74553e-29
-3.8571e-30
-5.53539e-29
-5.26055e-30
-5.61603e-29
-3.16525e-30
-2.58734e-29
3.03637e-30
7.3103e-32
2.64824e-29
1.01849e-29
4.037e-27
1.11495e-27
9.99418e-25
2.74809e-25
6.81328e-23
2.14037e-23
2.67228e-22
7.86722e-22
-3.47951e-34
-1.13201e-32
-7.40441e-37
-4.67838e-35
-1.53838e-40
-3.83026e-37
3.63255e-39
-8.39437e-37
7.61627e-38
-1.29535e-36
1.01705e-36
-1.32004e-35
9.15239e-36
-1.30157e-34
5.67202e-35
-1.06043e-33
2.19776e-34
-7.19774e-33
1.74198e-34
-4.08333e-32
-1.11109e-33
-1.91633e-31
-1.08499e-32
-7.19404e-31
-5.63949e-32
-2.07061e-30
-1.84386e-31
-4.3287e-30
-3.92973e-31
-6.35792e-30
-5.45663e-31
-6.4108e-30
-3.10748e-31
-2.74486e-30
2.78417e-31
8.62394e-33
2.07034e-30
9.3923e-31
2.80244e-28
9.69531e-29
8.25862e-26
2.56699e-26
7.42247e-24
2.27764e-24
3.01804e-23
9.75596e-23
-4.20908e-35
-1.20092e-33
-1.1041e-37
-6.08808e-36
-3.47803e-41
-2.69316e-38
4.33731e-40
-5.02648e-38
1.10446e-38
-1.27284e-37
1.55968e-37
-1.41224e-36
1.51713e-36
-1.40037e-35
1.07954e-35
-1.14636e-34
5.66221e-35
-7.7914e-34
2.06184e-34
-4.40592e-33
3.97798e-34
-2.05248e-32
-1.5579e-34
-7.64873e-32
-2.62029e-33
-2.18632e-31
-1.13629e-32
-4.54186e-31
-2.7468e-32
-6.6313e-31
-4.10636e-32
-6.62806e-31
-2.24476e-32
-2.57614e-31
2.11538e-32
1.07185e-33
1.61707e-31
9.49706e-32
2.26502e-29
1.11046e-29
7.31327e-27
2.90351e-27
7.25853e-25
2.41738e-25
3.08498e-24
9.99871e-24
-4.40483e-36
-1.15859e-34
-1.32995e-38
-7.00936e-37
-3.37975e-42
-2.24879e-39
5.57584e-41
-2.98682e-39
1.46275e-39
-1.17748e-38
2.10311e-38
-1.37049e-37
2.12868e-37
-1.36593e-36
1.62134e-36
-1.12333e-35
9.50809e-36
-7.65442e-35
4.26094e-35
-4.32665e-34
1.39182e-34
-2.00856e-33
2.97876e-34
-7.45106e-33
3.11348e-34
-2.11792e-32
-1.12367e-34
-4.37351e-32
-9.72159e-34
-6.34657e-32
-1.98684e-33
-6.2726e-32
-1.12639e-33
-2.15908e-32
1.23223e-33
9.46014e-35
1.1007e-32
8.74151e-33
1.85623e-30
1.24586e-30
6.08639e-28
2.95848e-28
5.85501e-26
2.14392e-26
2.63085e-25
8.14365e-25
-4.01299e-37
-1.01797e-35
-1.3252e-39
-7.19112e-38
-2.35542e-43
-2.02802e-40
6.16946e-42
-1.78501e-40
1.61709e-40
-1.01931e-39
2.33255e-39
-1.22043e-38
2.39952e-38
-1.22211e-37
1.90009e-37
-1.01006e-36
1.17018e-36
-6.90623e-36
5.62422e-36
-3.90996e-35
2.05273e-35
-1.81369e-34
5.42011e-35
-6.71308e-34
9.54552e-35