/*--------------------------------*- C++ -*----------------------------------*\
| =========                 |                                                 |
| \\      /  F ield         | OpenFOAM: The Open Source CFD Toolbox           |
|  \\    /   O peration     | Version:  2206                                  |
|   \\  /    A nd           | Website:  www.openfoam.com                      |
|    \\/     M anipulation  |                                                 |
\*---------------------------------------------------------------------------*/
FoamFile
{
    version     2.0;
    format      ascii;
    arch        "LSB;label=32;scalar=64";
    class       volScalarField;
    location    "0.6";
    object      p_rgh;
}
// * * * * * * * * * * * * * * * * * * * * * * * * * * * * * * * * * * * * * //

dimensions      [1 -1 -2 0 0 0 0];

internalField   nonuniform List<scalar> 
2268
(
555.291
552.948
553.754
558.217
567.68
582.07
599.03
615.432
631.068
647.52
665.832
686.006
707.576
730.025
752.798
775.239
796.474
814.122
826.913
832.327
828.061
840.411
878.06
555.16
552.156
552.737
557.019
566.295
580.74
598.108
614.764
630.509
647.018
665.278
685.423
707.05
729.575
752.397
774.936
796.383
814.907
829.961
832.618
821.553
828.295
872.443
554.385
550.808
551.081
554.784
563.586
578.095
596.231
613.452
629.434
646.068
664.49
684.796
706.532
729.123
751.91
774.203
795.322
814.358
830.113
839.291
819.525
815.206
868.946
553.66
549.286
548.861
551.654
559.61
574.212
593.391
611.59
627.967
644.774
663.346
683.843
705.79
728.611
751.57
773.888
794.893
814.052
829.87
841.769
822.673
818.068
872.904
553.55
547.951
546.407
547.78
554.65
569.564
590.001
609.338
626.184
643.221
661.953
682.653
704.882
728.078
751.397
773.948
795.133
814.549
830.941
843.916
841.51
847.299
885.9
554.224
547.432
543.52
544.058
550.328
565.687
586.923
606.834
623.999
641.34
660.337
681.251
703.805
727.51
751.375
774.296
795.806
815.686
833.035
847.646
858.312
866.982
899.718
555.468
548.273
543.01
542.52
548.335
563.563
584.408
603.906
621.197
638.955
658.379
679.586
702.617
727.037
751.625
774.975
796.844
817.245
835.521
851.46
865.256
876.995
905.164
556.799
546.243
530.473
524.273
531.724
552.986
580.933
599.771
617.557
636.576
655.945
677.471
701.016
726.326
751.968
775.924
798.247
819.281
838.395
855.344
871.018
887.679
912.615
766.607
741.215
929.88
1267.93
1160.93
1104.69
1066.7
754.531
399.575
259.097
221.713
218.428
232.376
249.661
263.539
401.393
858.089
1342.58
1231.96
754.76
714.962
859.008
1188.57
1140.57
1087.25
1012.74
557.626
217.103
176.395
180.393
184.136
194.497
209.225
229.62
339.462
738.531
1282.8
1228.53
757.913
742.716
824.275
1102.9
1074.21
1051.56
769.601
229.761
166.107
156.346
152.645
149.654
148.676
149.05
151.031
181.333
392.745
1080.32
1203.55
812.814
721.255
800.862
1015.1
947.761
887.173
372.047
177.12
163.109
156.022
152.257
149.509
148.584
148.78
149.514
155.008
218.263
707.07
1160.2
824.339
715.882
781.901
933.169
809.732
660.677
219.4
169.045
162.301
155.705
151.634
148.967
148.185
148.448
149.002
151.71
176.526
401.838
1104.24
828.858
724.733
769.876
863.443
677.138
495.26
249.31
165.546
160.954
154.519
150.353
147.952
147.531
147.97
148.756
150.614
160.755
274.851
1036.7
849.662
758.122
771.225
808.056
556.449
434.891
410.529
160.605
158.588
152.523
148.482
146.442
146.201
147.306
148.46
149.948
153.55
235.532
957.76
840.647
801.02
784.955
760.751
443.702
411.112
453.898
155.075
155.309
149.662
146.244
144.7
144.983
146.403
147.947
149.377
151.041
225.188
877.116
426.655
338.828
264.785
256.196
278.943
335.613
420.433
493.337
549.837
601.451
645.997
673.276
698.453
726.043
753.507
778.062
800.764
822.689
843.091
861.12
877.313
891.473
899.721
1.1989
1.24328
1.1439
2.42923
32.3166
68.4329
87.3191
102.003
135.252
196.683
285.77
393.083
508.14
643.732
757.155
782.722
806.23
828.763
850.469
870.131
888.871
908.5
934.425
1.1284
1.10075
1.02997
0.961705
1.00935
1.022
0.997536
0.983479
0.971215
0.94617
0.945278
5.07779
49.9255
135.859
274.354
432.93
563.564
718.379
838.412
872.159
891.377
910.987
930.326
1.13448
1.10596
0.994525
0.923447
0.958143
0.967222
0.932359
0.91144
0.913368
0.940527
0.965257
0.98092
0.996237
1.02312
1.15497
16.7171
46.0587
94.4388
210.524
331.352
419.801
519.672
630.208
1.06374
1.05452
1.01379
0.977606
1.00671
0.975897
0.94748
0.930982
0.916125
0.901553
0.90948
0.930819
0.970091
1.00399
1.05839
1.14082
1.21831
1.2783
1.34512
1.45396
1.58145
1.71579
25.4335
1.01058
1.00201
0.985616
0.955723
0.942603
0.942984
0.933305
0.927997
0.927582
0.935385
0.950291
0.977383
0.989391
1.02124
1.08893
1.14434
1.1915
1.22235
1.30976
1.42252
1.56012
1.72047
1.82933
0.969855
0.96307
0.953749
0.938623
0.936362
0.925468
0.917844
0.913725
0.912878
0.916291
0.928306
0.946103
0.965984
1.00428
1.05513
1.13227
1.1548
1.21012
1.33986
1.55981
1.74209
1.82124
1.75836
0.93222
0.927352
0.923923
0.912956
0.90973
0.904896
0.901185
0.900664
0.90438
0.913252
0.927346
0.947451
0.966691
0.991591
1.0234
1.06354
1.10631
1.15072
1.27446
1.62565
1.77003
1.85407
1.9642
0.897449
0.895342
0.893052
0.886633
0.884061
0.881855
0.880975
0.88219
0.886139
0.893466
0.90512
0.92054
0.941704
0.969292
1.0003
1.03401
1.07047
1.10887
1.16752
1.20687
1.62638
1.70048
1.70796
0.865423
0.864295
0.863134
0.859823
0.858451
0.857706
0.858368
0.86091
0.865981
0.874211
0.885863
0.900762
0.918893
0.940779
0.967795
0.997682
1.02944
1.06243
1.09404
1.12205
1.2127
1.60677
1.3628
0.834547
0.834081
0.833619
0.832171
0.831835
0.832248
0.833955
0.837374
0.842968
0.851098
0.86199
0.875815
0.892822
0.913716
0.936594
0.960417
0.986785
1.01421
1.04078
1.06264
1.1204
1.5741
1.43205
0.804427
0.804372
0.804365
0.803976
0.804347
0.805478
0.807755
0.811511
0.817087
0.824765
0.834748
0.847121
0.861911
0.879045
0.897485
0.919033
0.941512
0.964367
0.985878
1.0022
1.00691
1.29297
1.56353
0.774694
0.77483
0.775077
0.775283
0.776071
0.777558
0.78003
0.783752
0.788982
0.795929
0.80473
0.815424
0.828
0.842347
0.858148
0.875584
0.893965
0.912436
0.92932
0.940411
0.941525
1.00025
1.07205
0.745053
0.745265
0.745625
0.746108
0.747067
0.748636
0.751022
0.754427
0.759037
0.765001
0.772412
0.781294
0.791609
0.803253
0.816046
0.829854
0.8443
0.858845
0.872111
0.88083
0.878843
0.865023
0.849063
0.715348
0.715567
0.715932
0.716486
0.717424
0.718863
0.72095
0.723832
0.727634
0.732456
0.738354
0.745328
0.753322
0.762229
0.771887
0.782071
0.792448
0.8026
0.811684
0.817605
0.816743
0.806853
0.788963
0.6855
0.685681
0.685984
0.686471
0.687246
0.688404
0.690039
0.692251
0.69512
0.698701
0.703012
0.708025
0.713662
0.719791
0.726226
0.73271
0.738896
0.74434
0.74834
0.749549
0.745767
0.735064
0.716097
0.655488
0.655612
0.655812
0.656139
0.656657
0.657425
0.658505
0.659953
0.661811
0.664095
0.666788
0.669831
0.673119
0.676487
0.679711
0.68249
0.684432
0.685033
0.683548
0.678833
0.669345
0.653129
0.627236
0.625349
0.625406
0.625474
0.625586
0.625782
0.626095
0.626557
0.62719
0.628002
0.628975
0.630062
0.631172
0.632168
0.632854
0.632965
0.63215
0.629958
0.625806
0.618876
0.607979
0.591602
0.567833
0.533187
0.595149
0.595132
0.595051
0.594916
0.594754
0.594578
0.594395
0.594199
0.593968
0.593656
0.593187
0.592443
0.591259
0.589407
0.586585
0.582397
0.576335
0.567747
0.555768
0.539188
0.516422
0.485504
0.443303
0.564965
0.564874
0.564636
0.564238
0.563707
0.563035
0.562209
0.5612
0.559961
0.558424
0.556489
0.554014
0.550808
0.546621
0.541124
0.53389
0.524376
0.511892
0.495552
0.474184
0.44627
0.40993
0.362527
0.534885
0.534723
0.534329
0.533669
0.532773
0.531618
0.530174
0.528393
0.526212
0.523541
0.52026
0.51621
0.511184
0.504913
0.497055
0.487172
0.47471
0.458977
0.439108
0.414001
0.382284
0.342316
0.291987
0.504996
0.504769
0.504226
0.503315
0.502075
0.500466
0.498448
0.49596
0.492921
0.489229
0.484749
0.47931
0.472693
0.464624
0.454756
0.442656
0.427783
0.409475
0.38692
0.359125
0.324889
0.282836
0.231345
0.475385
0.475101
0.474419
0.473278
0.471724
0.469704
0.467172
0.464054
0.460261
0.455679
0.450165
0.443541
0.435584
0.426019
0.41451
0.400638
0.383897
0.363672
0.33923
0.309699
0.274062
0.231193
0.179876
0.446132
0.445798
0.444994
0.443649
0.441819
0.439442
0.436464
0.432807
0.428373
0.423044
0.416673
0.409077
0.400037
0.389287
0.376504
0.3613
0.343208
0.321679
0.296067
0.265623
0.229505
0.186806
0.136671
0.417309
0.41693
0.416026
0.414507
0.412448
0.409772
0.406425
0.402325
0.397371
0.391443
0.384393
0.376042
0.366178
0.354546
0.340846
0.324722
0.305758
0.283473
0.257316
0.226649
0.190793
0.149048
0.100706
0.388982
0.388551
0.387582
0.385919
0.38368
0.380768
0.377133
0.372688
0.367337
0.360958
0.353408
0.344514
0.334075
0.321851
0.307567
0.290904
0.271497
0.248935
0.222771
0.192446
0.15746
0.11715
0.0710562
0.361219
0.360693
0.35972
0.357936
0.355572
0.352489
0.348645
0.343956
0.338328
0.331644
0.323765
0.314531
0.303751
0.291206
0.276645
0.259785
0.240306
0.217867
0.192188
0.162688
0.128873
0.0904173
0.0469469
0.334064
0.333397
0.332502
0.330596
0.328167
0.324973
0.321
0.316164
0.310375
0.303524
0.295479
0.286093
0.275191
0.262571
0.248012
0.231258
0.212029
0.189972
0.165393
0.136843
0.104584
0.0682747
0.0276389
0.307541
0.306729
0.305965
0.303914
0.301493
0.298246
0.294219
0.289327
0.283488
0.276597
0.268535
0.259169
0.248348
0.235874
0.221568
0.205196
0.186575
0.165404
0.141548
0.114508
0.0841207
0.0501736
0.0124856
0.281673
0.28075
0.280107
0.277892
0.275571
0.272313
0.268306
0.263445
0.257655
0.250841
0.242896
0.233702
0.223155
0.21101
0.197196
0.181433
0.163582
0.143434
0.120797
0.0954025
0.0670652
0.035616
0.000933887
0.256462
0.255559
0.254827
0.252522
0.250407
0.247162
0.24325
0.238498
0.23285
0.226222
0.218513
0.209589
0.19957
0.187899
0.174678
0.159713
0.142848
0.123914
0.102745
0.079159
0.0530024
0.0241448
-0.00749429
0.231837
0.23097
0.230271
0.227839
0.226001
0.222773
0.219031
0.214456
0.209037
0.202696
0.195363
0.18691
0.177297
0.166319
0.153888
0.139878
0.12416
0.106599
0.0870608
0.0654126
0.0415378
0.0153384
-0.0132348
0.207796
0.206993
0.206375
0.203781
0.202319
0.199127
0.195613
0.191277
0.186159
0.180194
0.173308
0.165398
0.156397
0.146187
0.134671
0.121743
0.1073
0.0912327
0.0734384
0.0538208
0.032297
0.00879264
-0.0167112
0.184299
0.183553
0.182867
0.180584
0.179299
0.176204
0.17294
0.168898
0.164145
0.158616
0.152267
0.144981
0.136711
0.127365
0.116862
0.105117
0.0920426
0.0775579
0.061587
0.044059
0.0249176
0.00411336
-0.0183481
0.161313
0.160663
0.159884
0.158073
0.156773
0.153924
0.150937
0.147243
0.142917
0.137897
0.132131
0.125551
0.118102
0.109701
0.100291
0.0898038
0.0781703
0.0653312
0.0512294
0.0358175
0.0190598
0.00092893
-0.0185524
0.138813
0.1383
0.137525
0.13599
0.134727
0.132211
0.129543
0.126246
0.122398
0.117941
0.112831
0.107015
0.100442
0.0930545
0.0848039
0.07563
0.0654874
0.0543311
0.04212
0.0288257
0.0144284
-0.00108362
-0.0176765
0.11675
0.116372
0.115637
0.114339
0.113175
0.11101
0.108698
0.105839
0.102513
0.0986656
0.0942626
0.0892616
0.0836197
0.0772944
0.0702446
0.0624281
0.05381
0.0443578
0.0340442
0.0228512
0.0107726
-0.00219278
-0.0160034
0.0950365
0.0947802
0.0941175
0.0930472
0.0920353
0.0902302
0.0883039
0.0859206
0.083151
0.0799527
0.0762978
0.0721532
0.0674853
0.0622619
0.0564509
0.0500217
0.042949
0.0352116
0.0267915
0.0176769
0.00787225
-0.00262536
-0.0137556
0.0735702
0.0734325
0.0728726
0.0720226
0.07121
0.0697723
0.0682631
0.0663772
0.0641954
0.0616793
0.0588056
0.0555499
0.0518885
0.0477973
0.0432525
0.0382333
0.0327215
0.0267031
0.0201721
0.0131131
0.00554922
-0.00256797
-0.011103
0.0523147
0.0522856
0.051848
0.0512318
0.0506465
0.0495942
0.0485118
0.0471481
0.0455754
0.0437599
0.0416894
0.0393473
0.0367157
0.0337776
0.0305175
0.0269221
0.0229808
0.0186847
0.0140289
0.00902086
0.00368886
-0.00218337
-0.00816985
0.0312725
0.031312
0.0310179
0.0306451
0.0302962
0.029649
0.0290015
0.0281754
0.0272258
0.0261274
0.0248753
0.0234616
0.0218755
0.0201066
0.0181456
0.0159833
0.0136155
0.0110387
0.0082484
0.00524857
0.00203783
-0.00141435
-0.0049998
0.0103678
0.0104335
0.0103159
0.0101905
0.01008
0.00985177
0.00964312
0.0093604
0.00904427
0.00867619
0.00825571
0.00778115
0.00724991
0.00665905
0.00600515
0.00528338
0.00449254
0.00363306
0.0027032
0.00170411
0.000633834
-0.000507875
-0.00169984
882.394
897.974
918.508
924.165
950.207
958.942
968.406
977.477
946.438
959.424
975.95
995.865
716.496
748.418
741.442
725.429
111.154
119.505
70.7102
52.068
1.82822
1.84558
2.04517
2.3452
1.87359
1.91333
1.99763
2.10059
1.99824
1.76241
1.81705
1.93176
1.77614
1.77824
1.57042
1.66966
1.2368
1.29943
1.36201
1.47416
1.17229
1.20523
1.26898
1.35282
1.58793
1.59882
1.58446
1.66071
1.10258
1.42355
1.52621
1.56455
0.838337
0.897895
1.06696
1.12263
0.767888
0.748224
0.722721
0.69155
0.691246
0.668268
0.635196
0.589411
0.596158
0.570379
0.535995
0.48948
0.494748
0.46477
0.428151
0.382547
0.399613
0.366634
0.328136
0.283064
0.316158
0.28209
0.243413
0.199683
0.244859
0.210983
0.173282
0.131514
0.184708
0.151738
0.115579
0.0760512
0.13457
0.10294
0.0686347
0.0315072
0.0932512
0.0632275
0.0309685
-0.00364282
0.0595344
0.0313079
0.00122175
-0.0308199
0.0323946
0.00606831
-0.0218013
-0.0512893
0.0109181
-0.0134754
-0.0391463
-0.0661502
-0.00571138
-0.0281841
-0.0517145
-0.0763424
-0.0181906
-0.0387794
-0.0602508
-0.0826296
-0.0270964
-0.0458487
-0.0653435
-0.0855949
-0.0329103
-0.0498701
-0.0674588
-0.0856813
-0.0360629
-0.051264
-0.066997
-0.0832583
-0.0369824
-0.050453
-0.0643659
-0.078714
-0.0361105
-0.0478852
-0.0600163
-0.0725011
-0.0338777
-0.0440078
-0.0544162
-0.0651061
-0.0306609
-0.0392178
-0.0479864
-0.0569713
-0.0267548
-0.0338208
-0.0410444
-0.0484265
-0.0223788
-0.0280343
-0.0338034
-0.0396822
-0.0176901
-0.0220037
-0.0263946
-0.0308554
-0.0127972
-0.0158261
-0.0189042
-0.0220221
-0.00774601
-0.00954704
-0.0113678
-0.0131996
-0.0026127
-0.00321151
-0.0038205
-0.00438993
917.761
874.215
818.195
684.692
143.233
266.671
241.774
147.863
149.693
145.514
143.569
142.621
143.062
144.645
146.6
148.271
149.559
228.333
795.43
986.027
965.143
905.815
510.891
-60.2216
297.185
123.114
139.446
142.08
140.572
139.191
138.465
139.346
141.487
144.187
146.538
148.066
240.438
808.707
1032.64
1055.32
1036.41
349.897
158.321
106.416
128.328
134.238
134.993
135.636
134.808
134.737
136.178
138.871
142.258
145.255
146.901
321.932
884.652
828.484
1085.45
1077
282.462
163.663
140.366
137.997
133.444
131.352
132.079
132.487
133.271
134.958
137.841
141.54
144.834
146.453
451.675
1004.31
280.076
744.599
853.309
202.753
189.546
165.577
146.547
136.691
132.423
132.224
132.812
133.883
135.633
138.369
142.03
145.18
146.909
609.896
1145.62
9.03728
294.709
633.447
213.459
211.51
174.299
149.428
140.032
135.437
134.769
135.456
136.377
137.633
139.856
143.273
146.292
149.335
799.713
1309.1
2.27726
46.3917
688.663
963.584
570.688
176.829
151.456
142.205
138.789
138.578
139.349
139.773
139.681
140.916
144.311
148.607
158.605
1105.85
1496.71
2.08148
2.33899
142.032
913.55
1027.07
497.567
158.61
144.258
141.546
143.222
145.099
144.45
141.479
139.884
143.595
152.068
448.664
1511.84
1688.51
1.78881
1.82768
2.00341
149.178
905.846
1007.64
815.615
340.01
143.848
149.676
152.656
151.546
145.528
158.373
284.104
415.777
983.644
1674.17
1809.29
1.62591
1.73432
1.73844
1.9712
149.33
845.359
1024.87
1031.84
595.827
292.562
175.156
260.628
585.704
841.987
1253.72
1244.51
1075.04
1179.95
1732.64
1.56432
1.74944
1.86895
1.77132
1.21706
48.88
498.273
920.345
1233.28
1237.02
1022.87
1444.39
1582.9
1493.99
1417.64
984.977
471.187
511.563
1359.69
1.72833
1.63671
1.55341
1.60975
1.14136
0.486944
211.854
1152.98
1435.61
1546.45
1604.05
1581.99
1501.42
1649.87
1600.7
974.765
492.66
521.034
1564.74
1.58957
1.06616
1.01191
1.00347
1.0717
83.362
1065.59
1417.1
1451.39
1485.99
830.967
386.412
335.908
996.708
1771.76
1918.92
1104.69
796.416
1998.55
0.976308
0.643208
0.613454
0.237496
0.105095
2.63789
54.7928
254.56
389.929
188.868
77.0901
103.216
119.843
122.59
926.947
2045.15
2054.82
2003.76
2125.86
0.596446
0.348488
0.10032
-0.19856
-0.0903251
0.109059
-0.0701674
-0.761405
-2.73489
2.26534
43.6392
138.226
187.522
137.826
642.333
2162.61
2192.03
2234.48
2156.87
0.478842
0.188443
-0.154386
-0.304552
-0.20896
-0.120467
-0.254477
-0.530399
-1.42839
-1.73539
17.122
327.508
437.657
348.483
631.559
1846.89
2316.24
2368.54
2030.94
0.388997
0.159941
-0.110002
-0.264229
-0.306983
-0.346556
-0.605733
-1.06423
-1.76306
-2.41123
-2.67783
86.3575
427.628
443.605
377.973
748.813
2220.35
2515.14
2168.42
0.291172
0.114049
-0.0947882
-0.265377
-0.399448
-0.551846
-0.820943
-1.26745
-1.87604
-2.48991
-2.9252
-3.0489
-3.69079
103.192
-0.304201
2.96435
496.316
2210.56
2291.7
0.19648
0.0412758
-0.139768
-0.31323
-0.482285
-0.678923
-0.947522
-1.32032
-1.81941
-2.40913
-2.91159
-2.95743
-2.84875
-2.52527
-2.1751
-1.33942
8.60163
681.225
1942.07
0.117784
-0.0242071
-0.188187
-0.358286
-0.537044
-0.741432
-0.998504
-1.33103
-1.75423
-2.27766
-2.76207
-2.96776
-3.03236
-2.84862
-2.67594
-2.26673
1.11989
212.927
636.337
0.0546292
-0.0756253
-0.225725
-0.388668
-0.565621
-0.764997
-1.00283
-1.29861
-1.66899
-2.1279
-2.60838
-2.84257
-3.16758
-3.20523
-3.02582
-2.59777
-1.54056
159.64
586.249
0.00412019
-0.115753
-0.253666
-0.406609
-0.574839
-0.762822
-0.980197
-1.24031
-1.55971
-1.95385
-2.42054
-2.7
-3.06936
-3.24519
-3.12839
-2.72523
-2.23099
142.902
916.434
-0.0354647
-0.145505
-0.271612
-0.412489
-0.568174
-0.741177
-0.937654
-1.16659
-1.43949
-1.76609
-2.16294
-2.37152
-2.71302
-2.90497
-2.9363
-2.60714
-2.24988
47.9659
951.322
-0.0655887
-0.165949
-0.280201
-0.407885
-0.549265
-0.706154
-0.882014
-1.08223
-1.31638
-1.58273
-1.87733
-2.1831
-2.33388
-2.3979
-2.38873
-2.30491
-2.03265
20.9743
222.858
-0.0877625
-0.178738
-0.281389
-0.395746
-0.522591
-0.663995
-0.820035
-0.998509
-1.19671
-1.41098
-1.62273
-1.82255
-1.98158
-1.89076
-1.81504
-1.85753
-1.67614
15.9301
19.301
-0.103361
-0.185442
-0.277131
-0.378787
-0.491978
-0.619579
-0.763157
-0.920486
-1.09059
-1.25863
-1.40473
-1.50972
-1.55391
-1.44635
-1.2517
-1.37114
-1.27838
21.7172
249.995
-0.113571
-0.187403
-0.269034
-0.359068
-0.460056
-0.575961
-0.708165
-0.853597
-1.0003
-1.13173
-1.2228
-1.2592
-1.22247
-1.11371
-0.857068
-0.940302
0.469762
27.1092
411.216
-0.119389
-0.185705
-0.258297
-0.337974
-0.428407
-0.53487
-0.657857
-0.793733
-0.929316
-1.03218
-1.07656
-1.06305
-0.976804
-0.767941
-0.70307
-0.659674
17.6516
24.725
425.722
-0.121599
-0.181123
-0.245689
-0.316173
-0.397198
-0.495267
-0.610168
-0.73966
-0.869353
-0.950198
-0.960395
-0.91014
-0.799587
-0.588202
-0.562437
-0.15262
24.5325
11.3379
439.528
-0.120759
-0.174107
-0.231533
-0.293623
-0.365174
-0.453514
-0.557743
-0.67902
-0.803679
-0.867716
-0.853501
-0.782556
-0.661949
-0.519181
-0.491822
6.55646
25.5202
4.70214
452.804
-0.117245
-0.164856
-0.215749
-0.270025
-0.33182
-0.407003
-0.495903
-0.601992
-0.71574
-0.766816
-0.740098
-0.661701
-0.519414
-0.433275
-0.419391
11.8945
26.2326
0.734606
464.756
-0.11136
-0.153514
-0.198263
-0.245339
-0.297392
-0.35652
-0.424414
-0.508768
-0.599396
-0.636106
-0.611456
-0.53385
-0.404642
-0.348501
-0.32114
2.26291
6.98879
-0.0532723
375.713
-0.103457
-0.140382
-0.179326
-0.21985
-0.262762
-0.307795
-0.344115
-0.405379
-0.467224
-0.487839
-0.466435
-0.408774
-0.335565
-0.295378
-0.252666
-0.236433
-0.13864
-0.122363
238.436
-0.0939899
-0.125895
-0.159319
-0.193791
-0.228803
-0.26454
-0.283277
-0.306763
-0.338738
-0.357403
-0.339903
-0.321875
-0.283727
-0.246419
-0.204347
-0.173329
-0.0913068
-0.0485077
383.144
-0.0834687
-0.110579
-0.138761
-0.167506
-0.196108
-0.223549
-0.244837
-0.243727
-0.254954
-0.259184
-0.255702
-0.252524
-0.230609
-0.190509
-0.15356
-0.121097
-0.0490565
-0.0289949
541.614
-0.0723706
-0.0949565
-0.118235
-0.141644
-0.164716
-0.186258
-0.204858
-0.216146
-0.204776
-0.200007
-0.195236
-0.197431
-0.172533
-0.121491
-0.0765757
-0.0850535
-0.0186851
-0.0494037
626.148
-0.0610497
-0.0794138
-0.0981719
-0.116739
-0.134791
-0.151201
-0.164726
-0.174251
-0.177889
-0.174349
-0.168985
-0.15488
-0.111119
0.0476018
-0.00258889
-0.0996371
-0.0483237
-0.0924652
702.845
-0.0497133
-0.0641637
-0.0788036
-0.0930538
-0.106603
-0.118721
-0.127982
-0.134559
-0.137982
-0.137349
-0.131636
-0.117855
0.0577034
0.0900934
-0.035413
-0.121003
-0.0460086
6.54634
720.536
-0.0384594
-0.0492935
-0.0601953
-0.0706228
-0.0802437
-0.0890861
-0.0949373
-0.099444
-0.102265
-0.101612
-0.095028
-0.0160547
0.0958729
0.0647582
-0.0340915
-0.08023
0.180479
9.00599
737.777
-0.0273394
-0.0348333
-0.0423182
-0.0493734
-0.0555963
-0.062241
-0.0656772
-0.068709
-0.0712654
-0.073411
-0.0619001
0.0127939
0.127808
0.0138977
-0.0185473
-0.0248928
-0.0359892
8.11707
685.851
-0.0163393
-0.0207147
-0.0250381
-0.0290071
-0.0319852
-0.0363827
-0.0392366
-0.0411678
-0.0466491
-0.0454589
-0.0489874
0.0213904
0.0092521
-0.00660555
-0.0525807
-0.0345581
0.0268226
-0.218839
110.451
-0.00544269
-0.00686915
-0.00828504
-0.009676
-0.0113951
-0.0121487
-0.0143445
-0.0161515
-0.02902
-0.0202937
-0.0563428
0.0102147
0.0149102
-0.0692338
-0.0941155
-0.111781
-0.0916354
-0.38921
0.0950016
)
;

boundaryField
{
    leftWall
    {
        type            fixedFluxPressure;
        gradient        uniform 0;
        value           nonuniform List<scalar> 
50
(
555.291
555.16
554.385
553.66
553.55
554.224
555.468
556.799
426.655
1.1989
1.1284
1.13448
1.06374
1.01058
0.969855
0.93222
0.897449
0.865423
0.834547
0.804427
0.774694
0.745053
0.715348
0.6855
0.655488
0.625349
0.595149
0.564965
0.534885
0.504996
0.475385
0.446132
0.417309
0.388982
0.361219
0.334064
0.307541
0.281673
0.256462
0.231837
0.207796
0.184299
0.161313
0.138813
0.11675
0.0950365
0.0735702
0.0523147
0.0312725
0.0103678
)
;
    }
    rightWall
    {
        type            fixedFluxPressure;
        gradient        uniform 0;
        value           nonuniform List<scalar> 
50
(
1231.96
1228.53
1203.55
1160.2
1104.24
1036.7
957.76
877.116
795.43
808.707
884.652
1004.31
1145.62
1309.1
1496.71
1688.51
1809.29
1732.64
1359.69
1564.74
1998.55
2125.86
2156.87
2030.94
2168.42
2291.7
1942.07
636.337
586.249
916.434
951.322
222.858
19.301
249.995
411.216
425.722
439.528
452.804
464.756
375.713
238.436
383.144
541.614
626.148
702.845
720.536
737.777
685.851
110.451
0.0950016
)
;
    }
    lowerWall
    {
        type            fixedFluxPressure;
        gradient        uniform 0;
        value           nonuniform List<scalar> 
62
(
555.291
552.948
553.754
558.217
567.68
582.07
599.03
615.432
631.068
647.52
665.832
686.006
707.576
730.025
752.798
775.239
796.474
814.122
826.913
832.327
828.061
840.411
878.06
878.06
872.443
868.946
872.904
885.9
899.718
905.164
912.615
882.394
897.974
918.508
924.165
766.607
754.76
757.913
812.814
824.339
828.858
849.662
840.647
766.607
741.215
929.88
1267.93
1160.93
1104.69
1066.7
754.531
399.575
259.097
221.713
218.428
232.376
249.661
263.539
401.393
858.089
1342.58
1231.96
)
;
    }
    atmosphere
    {
        type            totalPressure;
        rho             rho;
        psi             none;
        gamma           1;
        p0              uniform 0;
        value           nonuniform List<scalar> 
46
(
0
0
0
0
0
0
0
0
0
0
0
0
0
0
0
0
0
0
0
0
0
0
0
0
0
0
0
0
0
0
0
-8.97169e-06
-0.000393576
-0.00204495
-0.00653698
-0.0155339
-0.00695
-0.0624238
0
0
-0.0916614
-0.126793
-0.103909
-0.132712
-0.398642
0
)
;
    }
    defaultFaces
    {
        type            empty;
    }
}


// ************************************************************************* //
