/*--------------------------------*- C++ -*----------------------------------*\
| =========                 |                                                 |
| \\      /  F ield         | OpenFOAM: The Open Source CFD Toolbox           |
|  \\    /   O peration     | Version:  2206                                  |
|   \\  /    A nd           | Website:  www.openfoam.com                      |
|    \\/     M anipulation  |                                                 |
\*---------------------------------------------------------------------------*/
FoamFile
{
    version     2.0;
    format      ascii;
    arch        "LSB;label=32;scalar=64";
    class       volScalarField;
    location    "0.1";
    object      alpha.water;
}
// * * * * * * * * * * * * * * * * * * * * * * * * * * * * * * * * * * * * * //

dimensions      [0 0 0 0 0 0 0];

internalField   nonuniform List<scalar> 
2268
(
1
1
1
1
1
1
1
1
1
1
1
1
1
1
1
1
0.999999
0.999989
0.999932
0.99976
0.999605
0.999258
0.486592
1
1
1
1
1
1
1
1
1
1
1
1
1
1
1
1
1
0.999904
0.998402
0.981734
0.92656
0.857433
0.452411
1
1
1
1
1
1
1
1
1
1
1
1
1
1
1
1
1
0.999932
0.958851
0.596625
0.120959
0.184341
0.326476
1
1
1
1
1
1
1
1
1
1
1
1
1
1
1
1
0.999997
0.985787
0.494486
0.0365257
0.0144456
0.0259993
0.141481
1
1
1
1
1
1
1
1
1
1
1
1
1
1
1
1
0.999962
0.611173
0.0531812
0.00644682
0.0055521
0.0133986
0.0258471
1
1
1
1
1
1
1
1
1
1
1
1
1
1
1
1
0.926179
0.184253
0.00644498
0.00148213
0.00294059
0.00773444
0.0131414
1
1
1
1
1
1
1
1
1
1
1
1
1
1
1
1
0.598891
0.0243365
0.00148181
0.000599524
0.0017842
0.00616057
0.00797896
1
1
1
1
1
1
1
1
1
1
1
1
1
1
1
0.996687
0.285058
0.00199209
0.000553154
0.000318092
0.000994214
0.00510658
0.00331904
9.98618e-25
4.50233e-26
2.98174e-27
6.8844e-30
6.92351e-32
5.6028e-34
4.20088e-36
3.57262e-38
3.31347e-40
2.89761e-41
2.45581e-43
1.79271e-45
1.21226e-47
7.00659e-50
3.32437e-52
1.22274e-54
3.17989e-57
3.70213e-60
2.42245e-60
3.81301e-23
2.09529e-23
2.31622e-24
5.03448e-28
6.8844e-30
6.92351e-32
5.6028e-34
4.20088e-36
2.11631e-37
2.94846e-38
1.77473e-40
1.19166e-42
7.81408e-45
4.3116e-47
1.91095e-49
6.2917e-52
1.31773e-54
1.04421e-57
2.42245e-60
1.42822e-20
6.85024e-21
7.01311e-22
2.77211e-25
4.02293e-27
4.4357e-29
3.89632e-31
3.05872e-33
7.23964e-34
1.10979e-35
6.72273e-38
4.80303e-40
3.05796e-42
1.61053e-44
6.59075e-47
1.84551e-49
2.82706e-52
1.49684e-55
2.83461e-58
3.02859e-18
1.40256e-18
1.38467e-19
7.52692e-23
1.16596e-24
1.42703e-26
1.40265e-28
1.19874e-30
2.45117e-31
3.15849e-33
2.06346e-35
1.48171e-37
9.21113e-40
4.59193e-42
1.65623e-44
3.71593e-47
5.61039e-50
6.14959e-53
1.41907e-55
4.47411e-16
1.99914e-16
1.92119e-17
1.4057e-20
2.13878e-22
2.92179e-24
3.28121e-26
3.27557e-28
5.70141e-29
6.41863e-31
4.75121e-33
3.46305e-35
2.08753e-37
9.53457e-40
2.9582e-42
7.03794e-45
1.78192e-47
2.08221e-50
6.12646e-53
2.6995e-14
2.43328e-14
2.04744e-15
1.9129e-18
2.70013e-20
4.09447e-22
5.24552e-24
6.46996e-25
1.07229e-26
9.43572e-29
8.10771e-31
5.9162e-33
3.39129e-35
1.40912e-37
4.60165e-40
1.79956e-42
4.35694e-45
5.25762e-48
2.07497e-50
3.38806e-13
5.09256e-12
2.47788e-13
1.6316e-16
2.42218e-18
4.05425e-20
6.71397e-22
9.01295e-23
1.181e-24
1.15253e-26
1.01675e-28
7.2421e-31
3.97628e-33
1.66194e-35
8.35818e-38
3.14217e-40
7.82529e-43
9.73735e-46
5.25316e-48
2.22562e-10
1.19984e-10
8.00035e-12
1.03652e-13
4.1088e-16
4.69275e-18
4.81621e-19
7.98694e-21
9.7564e-23
1.0457e-24
9.19016e-27
6.4156e-29
3.19613e-31
2.06422e-33
1.07299e-35
4.12812e-38
1.05252e-40
1.33847e-43
9.72374e-46
1
1
1
1
1
1
1
1
1
1
1
1
1
1
1
0.886382
0.138531
0.000638788
0.000238556
0.000151367
0.000544581
0.00121374
0.000478995
1
1
1
1
1
1
1
1
1
1
1
1
1
1
0.999999
0.805006
0.0800341
0.000238644
9.61678e-05
6.58476e-05
0.000318484
0.000463013
0.000710932
1
1
1
1
1
1
1
1
0.999999
0.999999
0.999999
0.999999
0.999998
0.999998
0.999996
0.70614
0.0362062
9.62269e-05
4.0587e-05
2.63189e-05
7.16446e-05
0.000190897
0.00047143
0.999999
0.999999
0.999999
0.999999
0.999999
0.999998
0.999998
0.999998
0.999997
0.999997
0.999996
0.999995
0.999993
0.99999
0.999982
0.587103
0.0118058
4.06003e-05
2.01484e-05
1.05616e-05
2.53964e-05
7.80063e-05
0.000165353
0.999995
0.999994
0.999994
0.999993
0.999993
0.999992
0.999991
0.999989
0.999987
0.999984
0.99998
0.999976
0.999967
0.999957
0.999924
0.440765
0.0018242
7.50381e-05
1.10961e-05
4.78985e-06
9.05082e-06
2.79099e-05
4.4501e-05
0.999973
0.999968
0.999969
0.999967
0.999964
0.99996
0.999955
0.999948
0.999938
0.999927
0.999912
0.999893
0.999859
0.99982
0.999689
0.286191
0.000248879
0.000172181
1.26155e-05
2.48584e-06
2.76094e-06
8.27084e-06
1.19124e-05
0.999861
0.999845
0.999845
0.999837
0.999824
0.999807
0.999784
0.999754
0.999716
0.999668
0.999609
0.999535
0.999403
0.999256
0.998738
0.179414
6.26664e-05
2.01111e-05
1.3876e-05
1.69913e-06
9.02576e-07
2.13636e-06
2.96548e-06
0.99931
0.99925
0.999247
0.999209
0.999154
0.999082
0.998986
0.998862
0.998707
0.998515
0.998282
0.998003
0.997489
0.996951
0.994931
0.142905
2.11676e-05
5.33584e-06
5.13845e-06
6.41093e-07
4.999e-07
6.96476e-07
7.36314e-07
0.996624
0.996418
0.996383
0.996222
0.995991
0.99569
0.995297
0.994789
0.994171
0.993417
0.992523
0.991479
0.989487
0.987543
0.944536
0.157115
1.27483e-05
2.08048e-06
6.24014e-07
5.00039e-07
5.00017e-07
4.07194e-07
2.39771e-07
0.938277
0.934374
0.931573
0.926068
0.918193
0.907956
0.894605
0.877272
0.85657
0.831809
0.803182
0.770409
0.699862
0.639829
0.432228
0.190508
0.0113668
1.20635e-05
2.10181e-06
6.43235e-07
4.07208e-07
2.39794e-07
1.07486e-07
0.332063
0.323566
0.316374
0.303887
0.287113
0.267035
0.244351
0.220467
0.195571
0.170353
0.144975
0.120246
0.0774842
0.0543543
0.00507299
0.0598044
0.0412388
0.00105496
5.69764e-05
6.79743e-06
6.92601e-07
1.07485e-07
3.24149e-08
0
0
0
-7.93016e-19
-3.96508e-19
-3.85453e-11
-3.39321e-11
-1.61086e-11
-1.90184e-12
0
2.42602e-11
2.73585e-10
3.0374e-09
3.08586e-08
2.23332e-07
1.27305e-06
0.0211879
0.0116275
0.000145818
1.02025e-05
7.63566e-07
6.10891e-08
9.45679e-09
-6.67761e-18
-7.58599e-16
-3.8491e-14
-1.16144e-12
-2.09025e-11
-1.94176e-10
-1.70675e-10
-8.08459e-11
-1.61905e-11
4.31217e-12
8.58063e-11
1.73281e-09
4.91581e-08
6.40788e-07
5.24309e-06
4.37427e-06
0.000602054
0.00930179
0.00103571
3.88117e-05
4.23052e-06
3.21108e-07
1.6561e-08
-7.95449e-20
-3.56375e-18
-8.3425e-17
-1.2098e-15
-9.98872e-15
-3.52847e-14
-1.15399e-29
1.86609e-13
3.49908e-12
4.74395e-11
6.22229e-10
1.07903e-08
1.6898e-07
2.03531e-06
1.61746e-05
0.000100713
0.000927009
0.00702064
1.9096e-05
1.33748e-05
1.94442e-06
1.31826e-07
5.98146e-09
2.89269e-24
4.43787e-27
5.58014e-24
1.12332e-20
2.2325e-18
1.23931e-16
3.74891e-15
1.01967e-13
1.03322e-12
1.6245e-11
2.63338e-10
3.81125e-09
4.7542e-08
4.95109e-07
3.04543e-06
0.000304268
0.00176684
0.0017418
5.14018e-06
3.93566e-07
-2.07649e-09
4.6914e-11
1.05841e-10
5.08406e-25
2.2646e-24
2.86376e-22
2.02013e-20
9.5515e-19
3.39146e-17
9.59929e-16
2.735e-14
6.81493e-13
7.34189e-12
9.87917e-11
9.85627e-10
7.48328e-09
4.42056e-08
2.08801e-07
8.47244e-06
1.96097e-05
6.48863e-06
1.14207e-06
6.33288e-08
2.81428e-09
-2.57002e-10
2.89247e-12
0
-1.60642e-26
5.4494e-23
3.59337e-21
1.57749e-19
5.14723e-18
1.3442e-16
2.63274e-15
4.4284e-14
3.19701e-13
4.60978e-12
3.77407e-11
2.68081e-10
1.55456e-09
8.68624e-09
6.85426e-07
1.78203e-06
3.53418e-07
1.25775e-07
1.31033e-08
-2.00155e-10
7.46125e-12
1.86611e-12
-2.11231e-25
-1.22947e-24
-1.62206e-24
-1.67215e-22
-7.25399e-21
-2.05325e-19
-3.81762e-18
-7.5839e-19
5.6153e-16
5.44101e-15
2.07351e-14
-2.89006e-13
-4.31111e-12
7.22236e-12
-1.00951e-13
3.17016e-08
6.73674e-08
1.04345e-08
8.00222e-09
1.52472e-09
3.82059e-11
-2.55783e-12
3.5232e-13
-5.10997e-25
-2.76668e-23
-7.40448e-22
-1.21925e-20
-1.2309e-19
-5.6288e-19
-1.77787e-19
1.52134e-18
3.05715e-17
3.82866e-16
1.45218e-15
2.57729e-15
4.64823e-14
-1.98439e-13
-3.65969e-12
2.22017e-12
1.9175e-10
1.67828e-10
2.98856e-10
9.22074e-11
5.35288e-12
-2.94789e-13
4.49211e-14
-7.79417e-26
-3.29152e-24
-5.93606e-23
-5.39296e-22
-1.67092e-21
2.40298e-23
7.88944e-21
1.50962e-19
2.73879e-18
6.03606e-17
1.09873e-15
1.5051e-14
7.51768e-14
1.94289e-13
7.99791e-13
7.88302e-12
1.21864e-11
1.63479e-11
7.44927e-12
2.32147e-12
9.45854e-14
6.34875e-14
4.94951e-15
-5.12475e-45
0
-1.13351e-39
-1.78527e-35
-2.60827e-30
2.56004e-23
5.04875e-22
8.38655e-21
1.15562e-19
2.17458e-18
1.10301e-16
3.42679e-15
7.14081e-14
1.15834e-12
7.74917e-12
1.80453e-11
2.12906e-11
1.60866e-11
2.31654e-13
2.2162e-13
4.07729e-14
3.83461e-15
3.04235e-16
2.65128e-34
3.35326e-32
2.1084e-30
8.80211e-29
2.73559e-27
6.74218e-26
1.24419e-24
-5.68147e-23
1.59706e-22
6.10605e-21
7.2481e-20
2.07778e-18
3.95559e-16
1.24561e-14
1.02793e-13
2.74634e-13
3.62666e-13
2.52219e-13
9.75996e-15
3.9848e-15
1.26591e-15
1.55216e-16
1.43542e-17
1.41018e-37
1.86412e-35
7.82276e-34
-2.29221e-33
-1.71089e-30
-8.87721e-29
-9.11427e-26
-6.17576e-25
3.074e-25
4.72703e-24
6.5268e-23
4.25222e-21
1.20187e-18
4.44154e-17
5.24103e-16
1.87989e-15
2.90119e-15
2.97982e-15
1.03325e-15
4.81696e-17
2.91213e-17
4.83029e-18
5.52332e-19
1.31124e-40
-1.30353e-37
-1.81694e-35
-1.18702e-33
-5.10816e-32
-1.14618e-29
-7.59272e-29
3.28215e-29
5.57984e-28
9.94678e-27
1.43357e-25
4.45205e-24
6.29664e-22
1.74946e-20
4.245e-19
5.78642e-18
2.53863e-17
4.30986e-17
4.11123e-17
5.16125e-19
4.48308e-19
1.14586e-19
1.69476e-20
-3.08999e-41
-4.43756e-39
-3.10605e-37
-1.43844e-35
-4.95514e-34
1.76194e-35
4.29124e-34
8.95535e-33
1.63536e-31
2.6177e-30
4.5477e-29
5.39461e-27
1.33919e-24
3.82205e-23
1.04128e-21
1.95391e-20
1.1528e-19
2.32668e-19
2.47169e-19
4.6584e-20
4.05027e-21
2.00823e-21
4.07798e-22
9.57215e-48
1.49906e-45
1.1711e-43
6.10092e-42
2.38557e-40
7.46006e-39
1.93992e-37
4.30912e-36
6.58419e-35
7.66158e-34
2.69779e-32
1.96907e-30
5.09388e-28
1.47811e-26
3.18891e-25
6.87651e-24
8.94805e-23
4.58178e-22
1.09775e-21
1.46192e-21
2.13169e-23
2.50575e-23
7.5643e-24
1.38627e-51
2.322e-49
1.94575e-47
1.04669e-45
3.88294e-44
9.98347e-43
1.47402e-41
-3.35447e-39
-3.08366e-37
4.55196e-37
8.41768e-36
6.29627e-34
2.31686e-31
8.44622e-30
1.71433e-28
3.61769e-27
9.63495e-26
1.2018e-24
4.67557e-24
7.1487e-24
1.24534e-24
1.84648e-25
1.05362e-25
1.20885e-55
2.18255e-53
-7.79596e-52
-3.47202e-49
-3.26901e-47
-1.86766e-45
-2.17348e-43
-1.76424e-41
4.02461e-42
8.55304e-41
1.65982e-39
1.02402e-37
5.97233e-35
3.25515e-33
7.75461e-32
1.71445e-30
4.34209e-29
7.158e-28
4.74686e-27
1.66308e-26
3.37053e-26
7.94896e-28
1.05656e-27
7.08055e-60
-5.24034e-56
-9.32293e-54
-8.10077e-52
-4.69029e-50
-3.17844e-48
-1.96415e-46
1.90863e-47
4.96672e-46
1.16536e-44
2.50234e-43
6.26408e-42
1.63977e-39
5.1056e-37
1.51947e-35
3.24456e-34
6.45128e-33
1.83998e-31
4.82456e-30
4.57484e-29
1.2613e-28
4.40699e-29
7.61489e-30
-2.72937e-61
-5.1932e-59
-4.86944e-57
-3.04566e-55
-1.42958e-53
-4.33868e-52
1.19933e-52
3.89845e-51
1.12418e-49
2.92465e-48
6.4334e-47
1.95364e-45
1.4629e-43
7.29407e-41
3.02095e-39
7.77064e-38
1.69695e-36
3.97714e-35
1.06325e-33
1.86441e-32
1.83428e-31
6.85783e-31
1.63278e-31
3.76899e-68
9.00636e-66
1.08241e-63
8.74398e-62
5.34218e-60
2.6294e-58
1.08565e-56
3.86895e-55
1.19054e-53
-6.18417e-52
7.48187e-51
2.7717e-49
1.00474e-47
6.5172e-45
6.74049e-43
2.25826e-41
5.7789e-40
1.32392e-38
3.86782e-37
1.58739e-35
3.03661e-34
1.79358e-33
3.18537e-33
3.59308e-72
9.62411e-70
1.29618e-67
1.15411e-65
7.51277e-64
3.8179e-62
1.56911e-60
4.95469e-59
-1.64702e-56
-2.31587e-55
3.06544e-54
1.05357e-52
2.79379e-51
1.38837e-49
7.01333e-47
3.53532e-45
1.13029e-43
3.00951e-42
7.50155e-41
2.18097e-39
7.9153e-38
2.15925e-36
1.68938e-35
2.9179e-76
8.86408e-74
7.99232e-72
-2.36423e-70
-1.07847e-67
-1.2253e-65
-9.22137e-64
-3.48248e-61
-7.4645e-60
2.57237e-59
8.83323e-58
3.13071e-56
9.6098e-55
2.75317e-53
2.48076e-51
9.71014e-49
4.32588e-47
1.44249e-45
4.20108e-44
1.3291e-42
6.66541e-41
2.52051e-39
4.2424e-38
1.58078e-80
-4.51576e-77
-1.43514e-74
-2.10487e-72
-2.06339e-70
-1.51908e-68
-2.59317e-66
-4.5215e-65
1.13406e-64
4.86944e-63
1.92495e-61
7.52415e-60
2.69729e-58
8.76221e-57
3.19512e-55
1.11537e-52
1.21148e-50
5.4438e-49
1.96334e-47
6.54922e-46
2.42925e-44
1.06233e-42
6.10841e-41
-1.07885e-82
-3.75139e-80
-6.14161e-78
-6.78095e-76
-5.62579e-74
-3.74723e-72
6.84144e-72
4.24466e-70
2.3464e-68
1.17682e-66
5.30529e-65
2.42969e-63
1.01059e-61
3.97286e-60
1.4586e-58
5.90121e-57
1.60381e-54
1.50173e-52
7.395e-51
3.02188e-49
1.18414e-47
5.50607e-46
3.93436e-44
3.23475e-89
1.5777e-86
3.85539e-84
6.32279e-82
7.84913e-80
7.88496e-78
6.69019e-76
4.94292e-74
3.25383e-72
1.3019e-70
7.11791e-69
5.6014e-67
2.76255e-65
1.29469e-63
5.84025e-62
2.4928e-60
1.16883e-58
3.70839e-56
3.81821e-54
2.16949e-52
1.99823e-50
5.2606e-49
7.35646e-48
4.20796e-94
2.52057e-91
7.56186e-89
1.50456e-86
2.24612e-84
2.66695e-82
2.66966e-80
2.32231e-78
-5.19307e-76
-2.02707e-74
9.95413e-73
6.9171e-71
4.16492e-69
2.39747e-67
1.32866e-65
7.15108e-64
3.68863e-62
2.03622e-60
7.28612e-58
1.05253e-55
1.4137e-53
4.23533e-52
6.97893e-52
2.38751e-100
4.76065e-97
-2.85279e-94
-1.92222e-91
-7.05647e-89
-1.4293e-86
-2.17566e-84
-1.6321e-81
-7.52102e-80
-2.43001e-78
5.55504e-77
4.50449e-75
3.45137e-73
2.53156e-71
1.80226e-69
1.2467e-67
8.44804e-66
5.56673e-64
3.74982e-62
1.03196e-59
4.64453e-57
2.56531e-55
7.29824e-55
-7.45616e-105
-8.76029e-101
-4.799e-98
-1.95343e-95
-4.76326e-93
-8.87671e-91
-3.73799e-88
-1.46781e-86
-8.92053e-85
1.00786e-83
1.20658e-81
1.34957e-79
1.42785e-77
1.44364e-75
1.41316e-73
1.35396e-71
1.27238e-69
1.18185e-67
1.09282e-65
9.99337e-64
2.39656e-61
8.97506e-59
8.10905e-58
-8.25236e-109
-6.195e-106
-3.73623e-103
-1.25892e-100
-3.22766e-98
-6.62306e-96
-1.00191e-95
-8.77578e-94
2.65925e-92
1.025e-89
2.082e-87
3.97159e-85
7.23755e-83
1.19309e-80
1.89332e-78
2.93079e-76
4.49029e-74
6.81022e-72
1.03016e-69
1.56522e-67
2.40487e-65
3.72684e-63
5.66266e-61
-5.10058e-119
-1.16875e-115
-1.14392e-112
-7.1137e-110
-3.23361e-107
-1.14827e-104
-3.29054e-102
-7.70196e-100
-1.42555e-97
-3.4884e-95
-8.24406e-93
-2.2633e-91
-1.87413e-90
6.27281e-89
3.52231e-86
1.63305e-83
7.33082e-81
3.2781e-78
1.46253e-75
6.55274e-73
2.97014e-70
1.36567e-67
6.18644e-65
-2.20949e-134
-5.33022e-130
-1.91187e-126
-4.81616e-123
-8.04239e-120
-9.21071e-117
-9.46068e-114
-8.18501e-111
-1.88979e-107
-1.82621e-104
-7.0982e-102
-3.27054e-100
-1.05874e-98
-1.90703e-96
-1.49302e-95
-1.08463e-93
-1.45322e-93
-7.80655e-92
-6.95695e-90
-2.87285e-87
-1.17769e-84
-5.27295e-82
-2.34263e-67
0.000125377
6.27261e-07
2.27325e-07
1.00167e-07
0.000423836
3.43176e-05
2.71472e-06
1.73357e-06
0.000996858
0.000183149
8.92464e-06
1.11691e-06
0.000446337
0.000192587
8.82757e-06
1.19781e-06
3.44633e-05
5.06081e-05
1.26197e-05
4.5378e-07
8.18977e-06
3.76935e-06
1.84909e-06
1.59439e-07
2.03557e-06
8.77022e-07
2.76973e-07
3.70974e-08
4.85862e-07
2.04977e-07
6.35906e-08
8.74339e-09
1.18421e-07
4.66947e-08
1.36982e-08
2.05394e-09
3.24149e-08
1.06265e-08
2.88363e-09
4.95764e-10
9.45679e-09
2.38812e-09
6.60549e-10
1.41912e-10
2.37466e-09
5.7592e-10
1.49988e-10
4.74172e-11
6.98854e-10
1.33567e-10
4.29391e-11
1.08299e-11
2.20581e-10
4.45451e-11
9.61062e-12
1.58852e-12
1.31037e-11
1.0383e-11
1.37336e-12
2.00021e-13
2.95674e-12
1.48151e-12
1.62867e-13
2.23313e-14
4.40053e-13
1.61289e-13
1.71738e-14
2.26997e-15
6.52262e-14
1.4009e-14
1.56683e-15
2.0658e-16
5.89387e-15
1.01677e-15
1.23006e-16
1.65768e-17
4.48388e-16
6.67939e-17
8.08882e-18
1.16583e-18
2.98282e-17
4.51698e-18
5.3205e-19
7.12273e-20
1.62337e-18
2.69394e-19
3.27081e-20
3.69746e-21
7.31713e-20
1.34084e-20
1.73909e-21
2.12002e-22
2.71503e-21
5.63255e-22
7.94804e-23
1.04263e-23
8.22674e-23
1.99012e-23
3.12524e-24
4.38119e-25
2.01602e-24
5.88476e-25
1.0537e-25
1.61496e-26
3.94831e-26
1.44743e-26
3.03551e-27
5.19145e-28
6.08261e-28
2.94016e-28
7.44443e-29
1.45299e-29
7.2024e-30
4.89208e-30
1.54829e-30
3.5336e-31
1.31524e-31
6.48653e-32
2.71983e-32
7.45868e-33
1.71724e-33
8.818e-34
4.005e-34
1.36561e-34
2.53881e-35
1.01704e-35
4.93458e-36
2.16891e-36
2.22916e-37
9.61604e-38
5.54571e-38
2.98876e-38
1.01504e-39
1.23114e-39
7.90767e-40
3.57303e-40
2.74118e-42
1.14908e-41
7.43368e-42
4.53363e-42
4.86693e-45
6.05448e-44
7.39867e-44
6.59314e-44
4.53016e-48
2.02552e-46
6.84596e-46
6.4782e-46
2.87193e-51
5.01939e-49
4.50704e-48
5.41742e-48
1.57098e-54
8.62625e-52
1.92107e-50
5.40745e-50
9.47646e-58
1.13941e-54
6.46355e-53
4.31819e-52
1.38899e-61
1.05358e-57
1.64617e-55
2.79636e-54
9.86541e-67
3.99452e-61
2.01022e-58
1.15354e-56
1.84535e-08
1.99903e-10
1.36827e-11
1.66962e-12
5.31451e-14
9.41444e-16
1.59501e-17
2.19865e-19
2.42755e-21
2.04897e-23
1.8488e-25
1.78946e-27
1.45393e-29
9.63535e-32
5.03012e-34
1.94606e-36
4.97517e-39
6.38917e-42
1.32146e-43
1.67194e-07
1.0734e-09
4.53539e-11
2.35485e-12
2.75555e-13
8.12946e-15
1.2866e-16
1.80326e-18
2.00271e-20
1.78779e-22
2.01808e-24
1.98984e-26
1.63152e-28
1.09033e-30
5.72568e-33
2.2255e-35
5.712e-38
7.55634e-41
6.36167e-42
9.3854e-08
5.76122e-09
2.77345e-10
1.42825e-11
5.68825e-13
3.80105e-14
8.71952e-16
1.34791e-17
1.82104e-19
1.99898e-21
1.74847e-23
1.59355e-25
1.29796e-27
8.57912e-30
4.49845e-32
1.74481e-34
4.47767e-37
5.97461e-40
7.50396e-41
1.126e-07
7.64475e-09
3.9836e-10
1.90718e-11
8.19469e-13
5.65781e-14
1.50385e-15
2.77044e-17
4.50033e-19
6.20779e-21
7.23589e-23
7.08346e-25
5.74329e-27
3.7639e-29
1.92041e-31
7.15063e-34
1.69677e-36
1.66663e-39
5.61854e-40
4.29934e-08
3.04311e-09
1.67689e-10
9.43398e-12
8.77241e-13
4.43362e-14
1.14045e-15
2.39559e-17
4.31427e-19
6.60366e-21
8.57257e-23
9.40535e-25
8.64501e-27
6.56594e-29
4.02676e-31
1.92189e-33
6.71538e-36
1.50201e-38
3.09998e-40
1.1791e-08
8.65637e-10
5.61625e-11
3.58505e-12
4.04049e-13
1.55676e-14
3.88335e-16
8.66906e-18
1.64127e-19
2.62457e-21
3.55617e-23
4.06932e-25
3.90603e-27
3.10162e-29
1.99408e-31
1.00204e-33
3.70804e-36
8.94317e-39
8.4146e-41
3.01249e-09
2.24594e-10
1.84791e-11
2.3139e-12
1.31492e-13
4.09551e-15
1.07841e-16
2.41162e-18
4.56535e-20
7.33445e-22
9.99888e-24
1.15265e-25
1.11501e-27
8.93015e-30
5.79503e-32
2.94257e-34
1.10199e-36
2.70414e-39
1.8446e-41
7.85114e-10
6.73205e-11
9.49083e-12
8.31176e-13
3.27958e-14
1.01889e-15
2.69572e-17
6.00736e-19
1.13289e-20
1.81326e-22
2.46336e-24
2.83097e-26
2.73131e-28
2.18308e-30
1.41477e-32
7.17994e-35
2.6899e-37
6.62097e-40
3.35785e-42
2.61575e-10
2.78633e-11
3.49523e-12
1.938e-13
7.10373e-15
2.22362e-16
5.82769e-18
1.28653e-19
2.4054e-21
3.82008e-23
5.15334e-25
5.88533e-27
5.64699e-29
4.49239e-31
2.90026e-33
1.46769e-35
5.48889e-38
1.35197e-40
5.23405e-43
1.20423e-10
1.20488e-11
8.10925e-13
3.70864e-14
1.37395e-15
4.2269e-17
1.08862e-18
2.36563e-20
4.36119e-22
6.84018e-24
9.12606e-26
1.03213e-27
9.81914e-30
7.75406e-32
4.97473e-34
2.50457e-36
9.32928e-39
2.2934e-41
6.97126e-44
3.84418e-11
2.8244e-12
1.4538e-13
6.46312e-15
2.3317e-16
6.99035e-18
1.75898e-19
3.74438e-21
6.77868e-23
1.04633e-24
1.37658e-26
1.53794e-28
1.44764e-30
1.13274e-32
7.21061e-35
3.60651e-37
1.33625e-39
3.27332e-42
7.9928e-45
7.87786e-12
4.41253e-13
2.30911e-14
9.88107e-16
3.44798e-17
1.00285e-18
2.45662e-20
5.10753e-22
9.05762e-24
1.37319e-25
1.77863e-27
1.96045e-29
1.824e-31
1.41308e-33
8.91939e-36
4.42967e-38
1.63173e-40
3.98039e-43
7.97602e-46
1.18672e-12
6.39498e-14
3.22238e-15
1.31794e-16
4.43033e-18
1.24683e-19
2.96767e-21
6.0177e-23
1.04433e-24
1.554e-26
1.98083e-28
2.1536e-30
1.98047e-32
1.51923e-34
9.51016e-37
4.69063e-39
1.71817e-41
4.17384e-44
7.00237e-47
1.50448e-13
8.14722e-15
3.90974e-16
1.52567e-17
4.93487e-19
1.34322e-20
3.10638e-22
6.14494e-24
1.04402e-25
1.52569e-27
1.91509e-29
2.0553e-31
1.86961e-33
1.42123e-35
8.83019e-38
4.32863e-40
1.57778e-42
3.81892e-45
5.46579e-48
1.59103e-14
8.94026e-16
4.08701e-17
1.52659e-18
4.76033e-20
1.25553e-21
2.82639e-23
5.46403e-25
9.10401e-27
1.30869e-28
1.62021e-30
1.71899e-32
1.54897e-34
1.16842e-36
7.21426e-39
3.51894e-41
1.2777e-43
3.084e-46
3.83414e-49
1.59317e-15
8.45026e-17
3.65231e-18
1.31749e-19
3.98247e-21
1.02176e-22
2.24656e-24
4.25707e-26
6.97463e-28
9.88637e-30
1.2099e-31
1.27164e-33
1.13722e-35
8.52692e-38
5.24024e-40
2.54698e-42
9.22372e-45
2.2224e-47
2.64722e-50
1.57208e-16
7.22359e-18
2.8557e-19
9.82446e-21
2.89689e-22
7.27977e-24
1.57042e-25
2.928e-27
4.73283e-29
6.63489e-31
8.04796e-33
8.39951e-35
7.47106e-37
5.57915e-39
3.41862e-41
1.65826e-43
5.99777e-46
1.4442e-48
1.72156e-51
1.43557e-17
5.99163e-19
2.10854e-20
6.54371e-22
1.84854e-23
4.56485e-25
9.72877e-27
1.79279e-28
2.8697e-30
3.99176e-32
4.81299e-34
5.00102e-36
4.43441e-38
3.3048e-40
2.02273e-42
9.80743e-45
3.5477e-47
8.54706e-50
1.01983e-52
1.18424e-18
4.65256e-20
1.51294e-21
4.26181e-23
1.078e-24
2.56355e-26
5.3789e-28
9.85397e-30
1.56875e-31
2.17259e-33
2.61181e-35
2.70902e-37
2.40024e-39
1.78888e-41
1.09563e-43
5.31831e-46
1.92663e-48
4.64922e-51
5.54968e-54
8.81278e-20
3.31365e-21
1.01969e-22
2.68987e-24
6.29833e-26
1.35511e-27
2.71636e-29
4.90105e-31
7.79532e-33
1.07924e-34
1.29762e-36
1.3471e-38
1.19539e-40
8.92744e-43
5.48091e-45
2.66747e-47
9.68939e-50
2.34441e-52
2.80116e-55
5.88648e-21
2.16108e-22
6.38601e-24
1.60257e-25
3.55465e-27
7.17475e-29
1.32561e-30
2.26586e-32
3.55133e-34
4.93118e-36
5.95282e-38
6.20175e-40
5.52422e-42
4.14202e-44
2.55323e-46
1.24759e-48
4.54921e-51
1.10464e-53
1.32162e-56
3.51359e-22
1.28576e-23
3.71015e-25
8.97373e-27
1.90497e-28
3.67348e-30
6.44539e-32
1.0343e-33
1.52836e-35
2.09274e-37
2.53957e-39
2.6644e-41
2.38763e-43
1.80065e-45
1.11614e-47
5.4826e-50
2.00888e-52
4.8992e-55
5.87038e-58
1.86592e-23
6.95761e-25
1.99403e-26
4.71411e-28
9.68959e-30
1.79997e-31
3.03925e-33
4.68218e-35
6.60065e-37
8.51976e-39
1.02189e-40
1.07549e-42
9.7209e-45
7.38786e-47
4.61151e-49
2.27979e-51
8.40132e-54
2.05918e-56
2.47094e-59
8.79768e-25
3.41692e-26
9.89415e-28
2.31857e-29
4.6693e-31
8.44005e-33
1.38171e-34
2.0625e-36
2.81698e-38
3.51596e-40
4.01938e-42
4.15059e-44
3.75263e-46
2.87869e-48
1.81272e-50
9.02832e-53
3.34876e-55
8.25363e-58
9.91471e-61
3.6753e-26
1.52105e-27
4.52715e-29
1.06634e-30
2.12883e-32
3.78196e-34
6.05476e-36
8.81661e-38
1.17417e-39
1.43077e-41
1.5936e-43
1.59013e-45
1.40216e-47
1.07359e-49
6.81668e-52
3.42468e-54
1.27967e-56
3.17312e-59
3.81282e-62
1.35756e-27
6.13572e-29
1.90954e-30
4.58366e-32
9.17661e-34
1.61817e-35
2.55507e-37
3.65606e-39
4.77623e-41
5.70705e-43
6.24126e-45
6.11092e-47
5.26962e-49
3.92629e-51
2.48452e-53
1.25152e-55
4.71185e-58
1.17589e-60
1.41167e-63
4.6064e-29
2.24449e-30
7.42884e-32
1.84196e-33
3.73998e-35
6.60938e-37
1.03787e-38
1.46984e-40
1.89523e-42
2.2323e-44
2.40585e-46
2.32375e-48
1.97784e-50
1.45465e-52
9.02942e-55
4.48872e-57
1.69115e-59
4.22841e-62
5.05498e-65
1.46482e-30
7.46007e-32
2.66942e-33
6.92655e-35
1.442e-36
2.57784e-38
4.05824e-40
5.728e-42
7.33363e-44
8.55865e-46
9.13011e-48
8.72744e-50
7.35656e-52
5.3649e-54
3.30146e-56
1.62696e-58
6.06354e-61
1.50509e-63
1.78398e-66
4.14682e-32
2.26044e-33
8.8799e-35
2.44144e-36
5.26608e-38
9.60883e-40
1.52831e-41
2.16434e-43
2.76743e-45
3.216e-47
3.4102e-49
3.23767e-51
2.71028e-53
1.96367e-55
1.20185e-57
5.89531e-60
2.18805e-62
5.41889e-65
6.37854e-68
1.04062e-33
6.27324e-35
2.7432e-36
8.08496e-38
1.82475e-39
3.42747e-41
5.54855e-43
7.93445e-45
1.01883e-46
1.18457e-48
1.25366e-50
1.18622e-52
9.88956e-55
7.13527e-57
4.35001e-59
2.12684e-61
7.87598e-64
1.94893e-66
2.27941e-69
2.32237e-35
1.60413e-36
7.90055e-38
2.52278e-39
6.01306e-41
1.17202e-42
1.9446e-44
2.82499e-46
3.66196e-48
4.27901e-50
4.53722e-52
4.29259e-54
3.57388e-56
2.57343e-58
1.5655e-60
7.63915e-63
2.82457e-65
6.98705e-68
8.11931e-71
4.61933e-37
3.80561e-38
2.13096e-39
7.443e-41
1.88955e-42
3.85037e-44
6.59044e-46
9.78166e-48
1.28632e-49
1.517e-51
1.61743e-53
1.53471e-55
1.27927e-57
9.2125e-60
5.60144e-62
2.73139e-64
1.00929e-66
2.49721e-69
2.88333e-72
8.21547e-39
8.43712e-40
5.40964e-41
2.08438e-42
5.68012e-44
1.21842e-45
2.1644e-47
3.29931e-49
4.4215e-51
5.28343e-53
5.68336e-55
5.4238e-57
4.53708e-59
3.27398e-61
1.99272e-63
9.72145e-66
3.5929e-68
8.89619e-71
1.02069e-73
1.3124e-40
1.76009e-41
1.29924e-42
5.56424e-44
1.63918e-45
3.72464e-47
6.90466e-49
1.08616e-50
1.48955e-52
1.80993e-54
1.97027e-56
1.89604e-58
1.59513e-60
1.15543e-62
7.04974e-65
3.44449e-67
1.27423e-69
3.15877e-72
3.60162e-75
1.9121e-42
3.47497e-43
2.96761e-44
1.42232e-45
4.55859e-47
1.10348e-48
2.14531e-50
3.49766e-52
4.92693e-54
6.10718e-56
6.74646e-58
6.56191e-60
5.56286e-62
4.05121e-64
2.48096e-66
1.21522e-68
4.50279e-71
1.11795e-73
1.26692e-76
3.05561e-44
6.51837e-45
6.47986e-46
3.49789e-47
1.22675e-48
3.17949e-50
6.51114e-52
1.10442e-53
1.60325e-55
2.03307e-57
2.28459e-59
2.25053e-61
1.92581e-63
1.41204e-65
8.68906e-68
4.2703e-70
1.58579e-72
3.94451e-75
4.44349e-78
4.63724e-46
1.16573e-46
1.35954e-47
8.31733e-49
3.20852e-50
8.94322e-52
1.9365e-53
3.42856e-55
5.14363e-57
6.68905e-59
7.66204e-61
7.65785e-63
6.62422e-65
4.89593e-67
3.03016e-69
1.49526e-71
5.56782e-74
1.38784e-76
1.55432e-79
6.49436e-48
1.99303e-48
2.75521e-49
1.92209e-50
8.19362e-52
2.46545e-53
5.66278e-55
1.04936e-56
1.63079e-58
2.17926e-60
2.54893e-62
2.58844e-64
2.26617e-66
1.69002e-68
1.05286e-70
5.21972e-73
1.94974e-75
4.87091e-78
5.42439e-81
7.2821e-50
3.26794e-50
5.42288e-51
4.34049e-52
2.05292e-53
6.68919e-55
1.63391e-56
3.17588e-58
5.12213e-60
7.04476e-62
8.42503e-64
8.70292e-66
7.71896e-68
5.81295e-70
3.64749e-72
1.8176e-74
6.81284e-77
1.70602e-79
1.88946e-82
7.70499e-52
5.15143e-52
1.04281e-52
9.63327e-54
5.07218e-55
1.79396e-56
4.66885e-58
9.5338e-60
1.59789e-61
2.26443e-63
2.77167e-65
2.91477e-67
2.62082e-69
1.99415e-71
1.26086e-73
6.3175e-76
2.3767e-78
5.96582e-81
6.36007e-84
7.2944e-54
7.27382e-54
1.8693e-54
2.07381e-55
1.23343e-56
4.77467e-58
1.32663e-59
2.84884e-61
4.96605e-63
7.25665e-65
9.09626e-67
9.74373e-69
8.8856e-71
6.83354e-73
4.35502e-75
2.1945e-77
8.28757e-80
2.08524e-82
2.19403e-85
5.20227e-55
1.04105e-54
1.05438e-55
6.14377e-57
2.36314e-58
6.62388e-60
1.86694e-61
4.2264e-63
7.6771e-65
1.15845e-66
1.48886e-68
1.62597e-70
1.50494e-72
1.17049e-74
7.52228e-77
3.81354e-79
1.44618e-81
3.64845e-84
2.19403e-85
)
;

boundaryField
{
    leftWall
    {
        type            zeroGradient;
    }
    rightWall
    {
        type            zeroGradient;
    }
    lowerWall
    {
        type            zeroGradient;
    }
    atmosphere
    {
        type            inletOutlet;
        inletValue      uniform 0;
        value           nonuniform List<scalar> 
46
(
0
0
0
0
0
0
0
0
0
0
0
0
0
0
0
0
0
0
0
0
0
0
0
0
0
2.01022e-58
1.15354e-56
5.20227e-55
1.04105e-54
1.05438e-55
6.14377e-57
2.36314e-58
6.62388e-60
1.86694e-61
4.2264e-63
7.6771e-65
1.15845e-66
1.48886e-68
1.62597e-70
1.50494e-72
1.17049e-74
7.52228e-77
3.81354e-79
1.44618e-81
3.64845e-84
2.19403e-85
)
;
    }
    defaultFaces
    {
        type            empty;
    }
}


// ************************************************************************* //
