/*--------------------------------*- C++ -*----------------------------------*\
| =========                 |                                                 |
| \\      /  F ield         | OpenFOAM: The Open Source CFD Toolbox           |
|  \\    /   O peration     | Version:  2206                                  |
|   \\  /    A nd           | Website:  www.openfoam.com                      |
|    \\/     M anipulation  |                                                 |
\*---------------------------------------------------------------------------*/
FoamFile
{
    version     2.0;
    format      ascii;
    arch        "LSB;label=32;scalar=64";
    class       surfaceScalarField;
    location    "0.1";
    object      alphaPhi0.water;
}
// * * * * * * * * * * * * * * * * * * * * * * * * * * * * * * * * * * * * * //

dimensions      [0 3 -1 0 0 0 0];

oriented        oriented;

internalField   nonuniform List<scalar> 
4432
(
1.11586e-05
-1.11586e-05
2.46807e-05
-1.35221e-05
3.76963e-05
-1.30156e-05
5.05756e-05
-1.28793e-05
6.36682e-05
-1.30925e-05
7.71061e-05
-1.34379e-05
9.09611e-05
-1.3855e-05
0.000105303
-1.43415e-05
0.000120204
-1.49009e-05
0.000135735
-1.55315e-05
0.000151958
-1.62228e-05
0.000168929
-1.69714e-05
0.000186612
-1.76831e-05
0.000205011
-1.83986e-05
0.000223974
-1.89633e-05
0.00024296
-1.89855e-05
0.000261114
-1.81556e-05
0.000276828
-1.57254e-05
0.000288371
-1.16085e-05
0.000292844
-4.63875e-06
0.000272137
2.02426e-05
0.000179529
7.60995e-05
8.82927e-05
1.11002e-05
-2.22587e-05
2.42597e-05
-2.66816e-05
3.69465e-05
-2.57024e-05
4.95565e-05
-2.54893e-05
6.23911e-05
-2.59271e-05
7.55629e-05
-2.66098e-05
8.91445e-05
-2.74366e-05
0.000103214
-2.84112e-05
0.000117861
-2.95479e-05
0.000133186
-3.08567e-05
0.000149306
-3.23426e-05
0.000166362
-3.40275e-05
0.000184496
-3.58173e-05
0.000204039
-3.79409e-05
0.000225175
-4.00997e-05
0.000248058
-4.18682e-05
0.000274145
-4.42427e-05
0.000305691
-4.73483e-05
0.000339016
-4.61805e-05
0.000343975
-2.23652e-05
0.000248523
4.21e-05
0.000102208
8.92605e-05
8.82535e-05
1.08978e-05
-3.31565e-05
2.33869e-05
-3.91707e-05
3.54573e-05
-3.77728e-05
4.75354e-05
-3.75674e-05
5.98446e-05
-3.82364e-05
7.24651e-05
-3.92303e-05
8.54649e-05
-4.04363e-05
9.89247e-05
-4.18709e-05
0.000112939
-4.35623e-05
0.000127619
-4.5537e-05
0.000143103
-4.7826e-05
0.000159559
-5.04833e-05
0.000177204
-5.34629e-05
0.000196463
-5.71997e-05
0.000217437
-6.10734e-05
0.000240704
-6.51351e-05
0.000268532
-7.20715e-05
0.000299713
-7.85841e-05
0.000251023
-6.10168e-05
5.39848e-05
-1.92051e-06
3.14144e-05
8.62445e-06
3.95141e-05
9.95153e-06
5.15956e-05
1.05233e-05
-4.36797e-05
2.20816e-05
-5.07291e-05
3.33081e-05
-4.89993e-05
4.46225e-05
-4.88818e-05
5.61533e-05
-4.97672e-05
6.79444e-05
-5.10213e-05
8.00516e-05
-5.25435e-05
9.25438e-05
-5.43631e-05
0.000105499
-5.65175e-05
0.000119007
-5.90447e-05
0.000133174
-6.1993e-05
0.000148122
-6.54321e-05
0.000164015
-6.93554e-05
0.00018112
-7.43053e-05
0.000199198
-7.91506e-05
0.000219237
-8.51748e-05
0.00024291
-9.57458e-05
0.000205948
-8.89576e-05
2.80633e-05
-2.0292e-05
1.01538e-05
1.40112e-06
1.1243e-05
3.76127e-06
1.04992e-05
5.49511e-06
1.08333e-05
9.95414e-06
-5.36339e-05
2.03895e-05
-6.11645e-05
3.06073e-05
-5.92171e-05
4.09689e-05
-5.92434e-05
5.15077e-05
-6.03061e-05
6.22371e-05
-6.17507e-05
7.31966e-05
-6.3503e-05
8.44331e-05
-6.55996e-05
9.59954e-05
-6.80798e-05
0.000107935
-7.09842e-05
0.000120306
-7.43646e-05
0.000133165
-7.82902e-05
0.000146585
-8.2776e-05
0.000160643
-8.83637e-05
0.000174918
-9.34252e-05
0.000190951
-0.000101208
0.000194894
-9.97083e-05
4.33288e-05
-4.86784e-05
4.14768e-06
-4.82493e-06
2.93617e-06
6.38577e-07
3.77068e-06
1.53717e-06
2.47094e-06
4.61166e-06
8.12783e-06
9.2023e-06
-6.28361e-05
1.83945e-05
-7.03566e-05
2.74994e-05
-6.8322e-05
3.67727e-05
-6.85167e-05
4.61689e-05
-6.97023e-05
5.56807e-05
-7.12625e-05
6.53307e-05
-7.31529e-05
7.51418e-05
-7.54108e-05
8.5132e-05
-7.807e-05
9.53139e-05
-8.11661e-05
0.000105691
-8.47417e-05
0.000116256
-8.88556e-05
0.000126999
-9.35186e-05
0.000137837
-9.92014e-05
0.00014843
-0.000104019
0.000160168
-0.000112946
9.55592e-05
-0.000100416
6.16942e-06
-1.29036e-05
5.945e-07
-1.22267e-06
5.17208e-07
2.44556e-07
4.27173e-07
8.5289e-07
-6.82619e-07
4.22955e-06
4.83988e-06
8.29269e-06
-7.11289e-05
1.61833e-05
-7.82472e-05
2.41149e-05
-7.62536e-05
3.22114e-05
-7.66132e-05
4.03736e-05
-7.78645e-05
4.85829e-05
-7.94718e-05
5.68469e-05
-8.14169e-05
6.51685e-05
-8.37324e-05
7.35426e-05
-8.6444e-05
8.19549e-05
-8.95784e-05
9.03782e-05
-9.31649e-05
9.87659e-05
-9.72434e-05
0.000107054
-0.000101807
0.000115026
-0.000107173
0.000122597
-0.00011159
0.000126583
-0.000116931
2.04925e-05
-6.24512e-05
1.75262e-06
-3.58566e-06
1.81923e-08
3.66089e-08
-8.36974e-08
1.6386e-07
-2.33548e-07
5.49492e-07
-5.62967e-07
2.91892e-06
1.77844e-06
7.2581e-06
-7.83869e-05
1.38328e-05
-8.48219e-05
2.05607e-05
-8.29815e-05
2.74322e-05
-8.34848e-05
3.43168e-05
-8.4749e-05
4.11914e-05
-8.63464e-05
4.80519e-05
-8.82775e-05
5.48871e-05
-9.05676e-05
6.16778e-05
-9.32347e-05
6.83965e-05
-9.6297e-05
7.50056e-05
-9.9774e-05
8.14548e-05
-0.000103693
8.76895e-05
-0.000108042
9.35728e-05
-0.000113056
9.92497e-05
-0.000117267
7.62104e-05
-0.000117848
3.1498e-06
-2.95613e-05
1.24387e-07
-1.00468e-06
-8.77284e-08
9.93396e-08
-9.57053e-08
6.68651e-08
-1.52399e-07
2.68411e-07
-2.11152e-07
9.36152e-07
4.53055e-07
4.47772e-30
-2.43953e-28
1.32855e-30
-8.82027e-30
2.15074e-32
-1.79582e-31
7.78357e-34
-1.49132e-32
2.31009e-35
-7.11165e-34
3.23741e-37
-1.21013e-35
2.10559e-39
-7.44812e-38
2.91287e-42
-7.32342e-41
6.84446e-45
1.28407e-44
6.6751e-47
1.68994e-46
4.35238e-49
2.03851e-48
2.83547e-51
1.98066e-50
1.58264e-53
1.61875e-52
7.26007e-56
1.11137e-54
2.59153e-58
6.28213e-57
6.60588e-61
2.81462e-59
1.02527e-63
9.37166e-62
4.04303e-64
2.0436e-64
3.28218e-66
1.25016e-27
-6.28661e-27
1.05871e-27
-4.04022e-27
1.34007e-29
-1.72175e-28
4.18281e-31
-6.93603e-30
1.2199e-32
-3.7087e-31
1.93977e-34
-6.47592e-33
1.42546e-36
-4.54459e-35
8.81958e-40
-3.88453e-38
5.93821e-42
2.8894e-41
6.42229e-44
5.78446e-43
3.82236e-46
6.9833e-45
2.54835e-48
6.9022e-47
1.44732e-50
5.7391e-49
6.74554e-53
4.00464e-51
2.44483e-55
2.29887e-53
6.32651e-58
1.04554e-55
9.9986e-61
3.53377e-58
1.26993e-63
7.87955e-61
8.72193e-64
3.52411e-25
-2.35028e-24
3.06168e-25
-1.55792e-24
3.83393e-27
-6.80991e-26
1.15718e-28
-2.18853e-27
3.1228e-30
-9.61681e-29
5.41898e-32
-1.54101e-30
4.40309e-34
-1.14815e-32
2.74707e-37
-1.89694e-36
3.59345e-39
2.28813e-38
2.52367e-41
4.18037e-40
1.89711e-43
5.11175e-42
1.28497e-45
5.12487e-44
7.38911e-48
4.31683e-46
3.47895e-50
3.04642e-48
1.27138e-52
1.7656e-50
3.31628e-55
8.09636e-53
6.47998e-58
2.76129e-55
7.39599e-61
6.24087e-58
6.98874e-61
6.33905e-23
-5.27883e-22
5.82167e-23
-3.58656e-22
7.28619e-25
-1.60108e-23
2.16314e-26
-4.43854e-25
4.92373e-28
-1.60287e-26
8.37013e-30
-2.03357e-28
6.69542e-32
-1.34211e-30
9.25756e-35
2.88532e-34
1.22094e-36
1.13503e-35
9.09938e-39
1.9894e-37
7.20082e-41
2.49077e-39
5.04081e-43
2.56957e-41
2.98331e-45
2.22626e-43
1.44067e-47
1.61289e-45
5.39066e-50
9.5767e-48
1.69364e-52
4.49846e-50
3.8235e-55
1.57498e-52
4.51124e-58
3.65704e-55
4.20018e-58
7.68026e-21
-8.10295e-20
7.78446e-21
-5.68811e-20
9.89987e-23
-2.53655e-21
3.11553e-24
-6.20751e-23
5.85516e-26
-1.97541e-24
7.71458e-28
-1.86119e-26
4.49265e-30
-7.04338e-29
2.2544e-32
1.04423e-31
3.01602e-34
3.8178e-33
2.43411e-36
6.51933e-35
2.04245e-38
8.43013e-37
1.48918e-40
9.01511e-39
9.13293e-43
8.08824e-41
4.55416e-45
6.05356e-43
1.96341e-47
3.70855e-45
7.00892e-50
1.7987e-47
1.61561e-52
6.49872e-50
1.99921e-55
1.55341e-52
1.83798e-55
4.76378e-19
-2.88614e-18
7.78422e-19
-9.02285e-18
9.89965e-21
-3.28276e-19
3.49779e-22
-6.19808e-21
6.40578e-24
-1.76532e-22
6.50126e-26
-1.42854e-24
3.03217e-28
-1.79681e-27
4.55572e-30
3.32331e-29
4.78562e-32
8.97398e-31
4.80877e-34
1.51297e-32
4.27508e-36
2.02327e-34
3.25467e-38
2.24615e-36
2.07357e-40
2.08998e-38
1.14865e-42
1.6197e-40
5.70676e-45
1.02725e-42
2.05721e-47
5.15387e-45
4.88983e-50
1.91868e-47
6.36266e-53
4.72255e-50
5.76116e-53
2.16057e-17
-1.04776e-16
5.48706e-17
-1.3522e-15
6.86496e-19
-8.60906e-17
2.82726e-20
-4.28893e-19
5.21127e-22
-1.00147e-20
3.56553e-24
-6.15351e-23
3.5406e-26
9.52525e-26
6.01658e-28
6.41281e-27
6.54783e-30
1.49695e-28
7.05832e-32
2.54516e-30
6.58603e-34
3.50734e-32
5.22631e-36
4.02851e-34
3.58319e-38
3.87833e-36
2.29863e-40
3.10764e-38
1.15259e-42
2.03718e-40
4.27495e-45
1.05126e-42
1.04608e-47
4.0199e-45
1.43812e-50
1.01547e-47
1.27388e-50
1.45077e-14
1.42472e-13
2.22387e-15
-8.70732e-15
2.99261e-17
-1.35654e-15
6.96055e-19
-4.35426e-17
1.37386e-20
-6.06942e-19
1.92151e-22
-4.78387e-22
3.94061e-24
2.7131e-23
5.48281e-26
8.99341e-25
7.17499e-28
1.95574e-26
8.13812e-30
3.34181e-28
7.90928e-32
4.70768e-30
6.50024e-34
5.55392e-32
5.21174e-36
5.48934e-34
3.40151e-38
4.52617e-36
1.74294e-40
3.03645e-38
6.6018e-43
1.60032e-40
1.64949e-45
6.24123e-43
2.37428e-48
1.6069e-45
2.05991e-48
3.64894e-06
-8.20359e-05
6.83242e-06
-8.80054e-05
1.01392e-05
-8.62883e-05
1.3511e-05
-8.68565e-05
1.68708e-05
-8.81087e-05
2.0205e-05
-8.96806e-05
2.35074e-05
-9.15798e-05
2.6767e-05
-9.38272e-05
2.99691e-05
-9.64368e-05
3.30935e-05
-9.94215e-05
3.61202e-05
-0.000102801
3.89991e-05
-0.000106571
4.17414e-05
-0.000110784
4.41608e-05
-0.000115476
4.64767e-05
-0.000119583
2.45352e-05
-0.000111016
8.27458e-07
-1.75601e-05
-1.92489e-09
-2.39066e-07
-2.92562e-08
9.93628e-08
-2.98638e-08
3.70578e-08
-3.28754e-08
1.53949e-07
8.3463e-08
5.24608e-07
3.4295e-07
1.3095e-07
3.29485e-06
-8.53307e-05
6.07941e-06
-9.07899e-05
9.01614e-06
-8.9225e-05
1.20038e-05
-8.98442e-05
1.49682e-05
-9.1073e-05
1.78967e-05
-9.26091e-05
2.07809e-05
-9.44641e-05
2.36081e-05
-9.66543e-05
2.6362e-05
-9.91907e-05
2.90236e-05
-0.000102083
3.15695e-05
-0.000105346
3.39683e-05
-0.00010897
3.62017e-05
-0.000113017
3.81437e-05
-0.000117417
4.00083e-05
-0.000121447
1.55881e-05
-0.00010187
4.03155e-07
-9.41518e-06
-6.18893e-08
2.05807e-07
-1.49829e-08
4.34744e-08
-7.48825e-09
1.51175e-08
-3.18758e-09
5.65995e-08
1.92116e-07
2.30591e-07
2.54775e-07
1.51337e-07
2.93788e-06
-8.82686e-05
5.33824e-06
-9.31902e-05
7.90969e-06
-9.17964e-05
1.05195e-05
-9.2454e-05
1.30968e-05
-9.36503e-05
1.56296e-05
-9.51418e-05
1.81077e-05
-9.69422e-05
2.05172e-05
-9.90636e-05
2.28413e-05
-0.000101515
2.50615e-05
-0.000104303
2.71562e-05
-0.000107441
2.91021e-05
-0.000110916
3.0882e-05
-0.000114797
3.24132e-05
-0.000118948
3.39342e-05
-0.000122968
8.57974e-06
-9.03264e-05
-4.92128e-08
-4.19519e-06
-2.83636e-08
1.76241e-07
-4.77529e-09
1.57044e-08
-8.59966e-10
5.43623e-09
1.58978e-08
2.37129e-08
1.26472e-07
8.01524e-08
9.65609e-08
1.76625e-07
2.58564e-06
-9.08541e-05
4.61982e-06
-9.52242e-05
6.83613e-06
-9.40125e-05
9.07951e-06
-9.46972e-05
1.12831e-05
-9.58536e-05
1.34357e-05
-9.72941e-05
1.55255e-05
-9.90316e-05
1.75373e-05
-0.000101075
1.94542e-05
-0.000103431
2.12584e-05
-0.000106107
2.29301e-05
-0.000109112
2.44527e-05
-0.000112438
2.58111e-05
-0.000116154
2.69582e-05
-0.000120093
2.80844e-05
-0.00012409
3.59758e-06
-7.48198e-05
-9.22218e-08
-1.63732e-06
-8.22468e-09
8.8317e-08
-8.01098e-10
5.4714e-09
5.55351e-10
2.10498e-09
1.05151e-08
8.27451e-09
4.86857e-08
2.46217e-08
2.22949e-08
8.01604e-08
2.23899e-06
-9.30922e-05
3.92641e-06
-9.69106e-05
5.79825e-06
-9.58834e-05
7.68841e-06
-9.65863e-05
9.53281e-06
-9.76968e-05
1.13215e-05
-9.90815e-05
1.30412e-05
-0.00010075
1.4676e-05
-0.000102708
1.62081e-05
-0.000104961
1.76197e-05
-0.000107516
1.88918e-05
-0.000110381
2.00127e-05
-0.000113554
2.09566e-05
-0.000117092
2.17215e-05
-0.00012085
2.22607e-05
-0.000124616
1.04703e-06
-5.42644e-05
-4.10401e-08
-7.00277e-07
-2.05618e-09
5.48383e-08
1.63825e-11
2.8833e-09
6.09669e-10
8.49996e-10
4.30525e-09
2.42679e-09
1.52802e-08
6.70609e-09
5.75619e-09
2.05443e-08
1.90252e-06
-9.49905e-05
3.26707e-06
-9.82702e-05
4.80801e-06
-9.74194e-05
6.36003e-06
-9.81331e-05
7.86429e-06
-9.91953e-05
9.31059e-06
-0.000100521
1.06843e-05
-0.000102116
1.1968e-05
-0.000103983
1.31423e-05
-0.000106125
1.41871e-05
-0.000108548
1.50802e-05
-0.000111258
1.58094e-05
-0.000114264
1.63056e-05
-0.000117563
1.65967e-05
-0.000121109
1.59935e-05
-0.000123961
4.08819e-07
-3.30319e-05
-6.04511e-09
-3.06494e-07
-3.43449e-11
3.1126e-08
3.83358e-11
2.30471e-09
2.82372e-10
3.39529e-10
1.31781e-09
7.44068e-10
4.10298e-09
1.69738e-09
1.31932e-09
5.41412e-09
1.61912e-06
-9.65889e-05
2.66832e-06
-9.92959e-05
3.89888e-06
-9.86266e-05
5.13337e-06
-9.93427e-05
6.32581e-06
-0.000100361
7.46101e-06
-0.000101627
8.52317e-06
-0.000103144
9.49212e-06
-0.000104912
1.03439e-05
-0.000106931
1.10498e-05
-0.000109199
1.15734e-05
-0.000111716
1.1879e-05
-0.000114491
1.18022e-05
-0.000117384
1.13339e-05
-0.000120514
8.90686e-06
-0.000121332
2.83099e-07
-2.11273e-05
-2.02494e-08
-7.18695e-09
-1.28648e-10
6.52674e-09
1.08985e-10
1.537e-09
1.13445e-10
2.84326e-10
3.25445e-10
3.2479e-10
9.34206e-10
5.03682e-10
3.3282e-10
1.11894e-09
1.37028e-06
-9.78599e-05
2.1037e-06
-9.99204e-05
3.07213e-06
-9.94855e-05
4.02729e-06
-0.000100182
4.94623e-06
-0.000101155
5.80811e-06
-0.000102351
6.59509e-06
-0.000103777
7.28458e-06
-0.000105425
7.846e-06
-0.000107287
8.23587e-06
-0.00010935
8.39515e-06
-0.000111596
8.23702e-06
-0.000114003
7.51037e-06
-0.00011624
6.01441e-06
-0.000118514
3.08486e-06
-0.000117629
-1.11099e-08
-1.90381e-05
-1.98292e-09
-1.83177e-08
-2.30945e-11
3.84423e-09
8.59976e-11
9.08575e-10
5.00764e-11
2.2547e-10
8.16098e-11
1.76873e-10
2.04889e-10
1.89307e-10
1.04039e-10
2.2966e-10
1.09384e-06
-9.84873e-05
1.52202e-06
-9.98501e-05
2.2329e-06
-9.96912e-05
2.92067e-06
-0.000100338
3.56332e-06
-0.000101228
4.14398e-06
-0.000102312
4.64258e-06
-0.000103585
5.03483e-06
-0.000105035
5.28846e-06
-0.000106648
5.35299e-06
-0.000108391
5.17282e-06
-0.000110237
4.65504e-06
-0.000112126
3.81856e-06
-0.000113717
2.25071e-06
-0.000114965
1.39905e-06
-0.000101177
-3.18074e-07
-2.28675e-05
3.01914e-09
-3.42889e-07
4.89912e-10
5.96247e-09
1.34831e-10
1.13599e-09
4.10297e-11
2.02542e-10
2.58315e-11
6.67074e-11
4.66087e-11
5.72308e-11
3.87905e-11
4.57696e-11
6.33342e-07
-8.12925e-05
7.57904e-07
-8.10996e-05
1.13235e-06
-8.04409e-05
1.46738e-06
-7.95901e-05
1.73811e-06
-7.83505e-05
1.94019e-06
-7.67188e-05
2.05606e-06
-7.45824e-05
2.07277e-06
-7.21309e-05
1.97578e-06
-6.92947e-05
1.74224e-06
-6.60753e-05
1.39829e-06
-6.24445e-05
9.66006e-07
-5.83323e-05
1.19269e-06
-4.96471e-05
1.85772e-06
-4.35314e-05
2.16786e-06
-2.29851e-05
-9.03616e-08
-2.02308e-05
8.87636e-08
-2.98103e-06
3.06093e-08
6.04229e-08
4.43318e-09
2.68797e-08
4.7355e-10
4.02534e-09
6.49061e-11
3.64035e-10
9.49695e-12
4.65429e-11
1.24698e-11
7.19412e-12
-7.8756e-09
-3.59598e-06
-1.4513e-07
-3.16959e-06
-2.05734e-07
-2.66655e-06
-2.86127e-07
-1.92167e-06
-3.84291e-07
-9.59278e-07
-4.90637e-07
3.96885e-15
-5.89554e-07
3.53558e-15
-6.71712e-07
1.7015e-15
-7.18657e-07
2.04034e-16
-7.09325e-07
-2.93784e-14
-6.0373e-07
-2.90294e-13
-2.45776e-07
-3.23937e-12
2.22587e-07
-3.21952e-11
8.792e-07
-2.24473e-10
6.17082e-07
-6.62805e-10
2.14329e-06
-3.37523e-09
2.92192e-07
-4.33298e-06
6.73224e-08
-1.21702e-08
1.30049e-08
7.63605e-08
1.13111e-09
1.53639e-08
8.12033e-11
1.34438e-09
5.9012e-12
1.00062e-10
8.82051e-12
8.87753e-13
-9.26704e-09
6.56527e-22
-1.83472e-08
7.45674e-20
-1.9378e-08
3.81145e-18
-1.32811e-08
1.15352e-16
3.4037e-16
2.09009e-15
3.71398e-16
1.95828e-14
2.05954e-16
1.74739e-14
2.7148e-17
8.41905e-15
-7.23459e-16
1.72666e-15
-6.83791e-15
-1.22228e-14
-4.8667e-14
-1.43522e-13
1.71223e-14
-1.81721e-12
1.23294e-12
-2.41472e-11
1.31531e-11
-2.33221e-10
1.20097e-10
-7.70366e-10
4.67161e-10
-3.67497e-09
7.14652e-07
-1.24013e-06
6.04968e-08
-2.31353e-07
7.26477e-09
1.12698e-07
3.96217e-10
2.21787e-08
1.11647e-11
1.70844e-09
-1.46867e-12
1.06301e-10
5.13204e-12
1.96836e-15
1.97192e-21
7.61395e-24
1.92175e-19
3.41774e-22
8.50137e-18
8.06692e-21
2.00088e-16
1.1743e-19
2.25055e-15
9.78651e-19
2.25582e-15
3.50344e-18
1.16828e-15
-2.35699e-17
2.38923e-16
-1.17832e-16
-9.63291e-16
-1.9576e-15
-1.41289e-16
-1.47953e-14
5.19993e-15
-1.72654e-13
3.8814e-13
-2.76652e-12
1.18201e-11
-4.37487e-11
1.30792e-10
-4.7369e-10
9.06079e-10
-2.98486e-09
5.05567e-09
-8.5736e-09
7.85012e-08
-1.04823e-07
3.76954e-08
-2.46768e-07
-3.60058e-09
1.54441e-07
-1.4526e-10
1.37279e-08
-6.6431e-12
1.11267e-09
-9.1403e-13
6.2197e-11
2.546e-12
-7.89146e-14
1.19252e-23
-1.05172e-27
4.96034e-22
-9.40124e-26
1.06475e-20
-6.71479e-24
1.14533e-19
-3.22202e-22
4.94229e-19
-1.18028e-20
-9.58525e-19
-3.55867e-19
-1.44027e-17
-8.39749e-18
-3.21623e-17
-1.12465e-16
-3.26883e-16
-1.93598e-15
8.6815e-15
-3.35706e-14
2.44377e-13
-5.58028e-13
2.84819e-12
-7.61396e-12
2.13822e-11
-8.31096e-11
9.22796e-11
-8.15762e-10
2.77813e-10
-5.36746e-09
3.42248e-09
-3.42841e-08
-1.09603e-07
-9.46996e-08
-1.28935e-07
1.93947e-08
-8.25076e-09
3.29276e-08
-5.17841e-10
4.13753e-09
-3.02265e-11
3.02881e-10
-1.38318e-12
1.5208e-11
6.70014e-13
-5.22886e-14
-8.49267e-29
-3.41511e-28
-2.58793e-26
-6.82188e-26
-1.91687e-24
-4.82448e-24
-9.28005e-23
-2.26681e-22
-3.8536e-21
-7.67054e-21
-1.20923e-19
-2.06377e-19
-3.21972e-18
-4.75237e-18
-4.33809e-17
-6.1765e-17
-8.17948e-16
-1.07322e-15
-1.95303e-14
-1.6588e-14
-3.64375e-13
-2.42841e-13
-5.57803e-12
-2.86675e-12
-6.76832e-11
-2.68366e-11
-7.18191e-10
-2.23817e-10
-4.54322e-09
-1.56606e-09
-1.1641e-07
-6.10323e-09
-1.97626e-07
-1.56058e-08
-3.17784e-08
2.22898e-08
-3.61705e-09
4.3727e-09
-2.60708e-10
7.49569e-10
-1.30766e-11
5.5102e-11
-5.61971e-13
2.69341e-12
1.10867e-13
-2.40659e-14
-2.81037e-28
-6.31877e-29
-5.35083e-26
-1.49594e-26
-3.88347e-24
-9.93755e-25
-1.87211e-22
-4.33086e-23
-6.50979e-21
-1.34659e-21
-1.7983e-19
-3.30198e-20
-4.24478e-18
-6.86188e-19
-5.74733e-17
-8.37126e-18
-1.00871e-15
-1.29734e-16
-1.65458e-14
-1.79725e-15
-2.46319e-13
-2.70797e-14
-2.8966e-12
-3.54183e-13
-2.74805e-11
-3.32493e-12
-2.29574e-10
-2.37254e-11
-1.43901e-09
-1.24107e-10
-5.25044e-09
-3.37799e-10
-2.59018e-08
-8.68326e-10
-4.58002e-09
1.17295e-09
-7.02719e-10
4.12296e-10
-5.053e-11
8.36703e-11
-2.44425e-12
7.20218e-12
-9.8906e-14
3.65056e-13
1.40514e-14
-3.32312e-15
-8.04686e-29
1.72808e-29
-1.51415e-26
1.02281e-28
-9.60037e-25
-5.36394e-26
-4.19487e-23
-2.63601e-24
-1.32298e-21
-7.91822e-23
-3.29604e-20
-1.81306e-21
-6.95077e-19
-3.52857e-20
-8.92957e-18
-4.21638e-19
-1.37304e-16
-6.09488e-18
-1.91621e-15
-7.76279e-17
-3.27858e-14
-1.22225e-15
-4.11661e-13
-1.76983e-14
-3.60234e-12
-1.48513e-13
-2.63961e-11
-9.83139e-13
-1.45701e-10
-5.26693e-12
-6.73419e-10
-1.45459e-11
-1.60468e-09
-4.65669e-11
-4.65713e-10
3.95909e-11
-8.24353e-11
2.71325e-11
-6.70447e-12
6.62606e-12
-3.46469e-13
6.96533e-13
-1.29353e-14
3.73405e-14
1.10289e-15
-3.76503e-16
4.67378e-30
3.98623e-29
-2.18781e-27
2.1924e-27
-1.14312e-25
5.88199e-26
-3.69123e-24
9.71537e-25
-9.15319e-23
9.8543e-24
-1.91702e-21
4.53391e-23
-3.63903e-20
-2.68958e-22
-4.4834e-19
-4.84499e-21
-6.52903e-18
-6.81763e-20
-8.34699e-17
-7.99045e-19
-1.28902e-15
-1.02037e-17
-1.86101e-14
-1.41983e-16
-1.63298e-13
-1.55196e-15
-1.13385e-12
-1.13576e-14
-6.32351e-12
-6.65656e-14
-2.40711e-11
-2.06602e-13
-7.16977e-11
-1.60206e-12
-3.24884e-11
3.42114e-13
-6.64368e-12
1.1995e-12
-6.8441e-13
3.83155e-13
-3.65924e-14
4.77616e-14
-9.9318e-16
2.24699e-15
8.43529e-17
-4.34918e-17
1.0826e-28
5.77513e-30
5.8771e-27
2.47585e-28
1.47448e-25
4.46876e-27
2.02138e-24
4.06382e-26
1.18369e-23
1.26071e-25
-7.91934e-23
-1.19218e-24
-7.55293e-22
-2.65202e-23
-5.94116e-21
-2.76691e-22
-7.63858e-20
-3.29323e-21
-8.99191e-19
-3.66701e-20
-1.04819e-17
-3.51717e-19
-1.46418e-16
-2.57432e-18
-1.68696e-15
-1.38782e-17
-1.29314e-14
-1.2107e-16
-7.76094e-14
-9.43246e-16
-2.79207e-13
-2.84913e-15
-1.92869e-12
-1.3552e-14
-1.5606e-12
-2.73129e-14
-4.11419e-13
2.53509e-14
-4.72892e-14
1.55296e-14
-2.24454e-15
1.87005e-15
-7.37746e-17
1.20177e-16
6.56576e-18
-4.50744e-18
1.30472e-29
-2.21127e-33
4.7551e-28
-2.704e-31
6.5806e-27
-1.62653e-29
2.76712e-26
-6.49349e-28
-3.34118e-25
-1.92801e-26
-8.55758e-25
-6.80291e-25
-1.9022e-23
-9.77961e-24
-2.12004e-22
-1.10764e-22
-2.57961e-21
-1.39949e-21
-3.48484e-20
-1.59457e-20
-4.25684e-19
-1.59664e-19
-4.13559e-18
-1.3938e-18
-1.86388e-17
-9.88822e-18
-9.37646e-17
-6.96955e-17
-7.09063e-16
-3.11801e-16
-3.86463e-15
-5.38626e-16
-1.70645e-14
-6.09036e-16
-4.25121e-14
-4.11776e-17
-1.75357e-14
2.64811e-16
-2.11081e-15
4.03533e-16
-1.08949e-16
8.68852e-17
-5.64694e-18
6.96743e-18
4.30405e-19
-4.05405e-19
-2.18406e-33
-2.72091e-35
-2.6919e-31
-3.39441e-33
-1.63267e-29
-2.07834e-31
-6.57221e-28
-8.45542e-30
-1.96812e-26
-2.56123e-28
-6.97501e-25
-6.0145e-27
-1.04526e-23
-9.10172e-26
-1.21187e-22
-1.08766e-24
-1.51906e-21
-1.42536e-23
-1.76277e-20
-1.7504e-22
-2.00509e-19
-1.87064e-21
-2.27744e-18
-1.75741e-20
-2.63433e-17
-1.61614e-19
-2.91354e-16
-1.44788e-18
-1.27962e-15
-7.45656e-18
-1.90445e-15
-1.40496e-17
-1.69732e-15
-1.06169e-17
-7.30228e-16
-2.25159e-18
-4.70574e-16
1.36621e-18
-8.57589e-17
6.33295e-18
-6.47047e-18
3.03899e-18
-3.86414e-19
3.16423e-19
2.28315e-20
-3.06803e-20
-2.71946e-35
-5.85711e-38
-3.41949e-33
-7.54421e-36
-2.11109e-31
-4.75479e-34
-8.66002e-30
-1.98948e-32
-2.64565e-28
-6.20135e-31
-6.27358e-27
-1.50191e-29
-9.71886e-26
-2.37663e-28
-1.15664e-24
-2.89307e-27
-1.54867e-23
-4.05917e-26
-1.91056e-22
-5.19362e-25
-2.06511e-21
-5.846e-24
-1.99277e-20
-5.829e-23
-2.51135e-19
-5.62533e-22
-3.30139e-18
-5.33011e-21
-1.61809e-17
-3.46945e-20
-2.74232e-17
-8.85517e-20
-2.46026e-17
-8.54339e-20
-9.36151e-18
-3.57155e-20
-9.14068e-18
7.50178e-21
-3.12314e-18
7.8518e-20
-3.0382e-19
7.47016e-20
-2.1263e-20
1.11159e-20
9.72378e-22
-1.90667e-21
-5.8568e-38
-2.94309e-41
-7.60221e-36
-3.95413e-39
-4.82963e-34
-2.59924e-37
-2.03663e-32
-1.13432e-35
-6.39864e-31
-3.69332e-34
-1.56368e-29
-9.33371e-33
-2.21565e-28
-1.36197e-31
-3.22862e-27
-2.09968e-30
-4.38321e-26
-3.09136e-29
-5.63518e-25
-4.16651e-28
-6.41519e-24
-4.98946e-27
-6.53666e-23
-5.32368e-26
-8.20298e-22
-5.29359e-25
-1.21548e-20
-4.75543e-24
-8.43736e-20
-3.99665e-23
-1.8807e-19
-2.62447e-22
-1.98703e-19
-7.21305e-22
-1.45941e-19
-6.33144e-22
-1.55285e-19
-7.83258e-23
-8.09676e-20
3.85492e-22
-1.10234e-20
1.10979e-21
-9.36658e-22
2.94569e-22
3.27831e-23
-9.71521e-23
-2.94294e-41
-2.52886e-44
-3.95477e-39
-3.72048e-42
-2.60211e-37
-2.67237e-40
-1.13743e-35
-1.27082e-38
-3.71193e-34
-4.50136e-37
-5.86489e-33
-7.45777e-36
-1.56491e-31
-1.94582e-34
-2.25758e-30
-3.33276e-33
-3.31966e-29
-5.1936e-32
-4.50839e-28
-7.46076e-31
-5.45264e-27
-9.59871e-30
-5.91335e-26
-1.10741e-28
-6.63759e-25
-1.19464e-27
-7.79255e-24
-1.16575e-26
-1.08909e-22
-1.07779e-25
-9.29131e-22
-8.76252e-25
-2.40489e-21
-3.27545e-24
-2.51596e-21
-3.92786e-24
-1.62188e-21
-1.5256e-24
-1.34696e-21
1.22333e-24
-3.03394e-22
8.97026e-24
-3.27893e-23
5.63915e-24
8.60962e-25
-4.04426e-24
-1.95449e-44
-3.55546e-48
-2.93354e-42
-5.32725e-46
-2.15216e-40
-3.90748e-44
-1.04463e-38
-1.9004e-42
-3.77643e-37
-6.90151e-41
-1.04039e-35
-1.99122e-39
-2.05009e-34
-4.6344e-38
-3.53816e-33
-8.51115e-37
-5.54817e-32
-1.41847e-35
-8.01659e-31
-2.18611e-34
-1.04061e-29
-3.04218e-33
-1.21783e-28
-3.81884e-32
-1.47345e-27
-4.49767e-31
-1.81171e-26
-4.80103e-30
-2.78535e-25
-4.63773e-29
-3.21765e-24
-4.17538e-28
-1.07253e-23
-2.80139e-27
-1.25731e-23
-8.58702e-27
-1.02189e-23
-9.56041e-27
-1.44544e-23
-2.05241e-29
-6.12946e-24
4.08681e-26
-9.00982e-25
7.01195e-26
1.71348e-26
-1.3666e-25
-3.55626e-48
-1.02711e-51
-5.36395e-46
-1.63374e-49
-3.96195e-44
-1.2755e-47
-1.94043e-42
-6.61443e-46
-7.09703e-41
-2.5656e-44
-2.06309e-39
-7.92389e-43
-4.8418e-38
-1.98063e-41
-8.99795e-37
-3.93016e-40
-1.50825e-35
-7.05257e-39
-2.34089e-34
-1.17696e-37
-3.28121e-33
-1.78426e-36
-4.16919e-32
-2.44918e-35
-5.45503e-31
-3.1318e-34
-6.94255e-30
-3.69453e-33
-9.00304e-29
-3.91602e-32
-1.26539e-27
-3.85655e-31
-1.07711e-26
-3.77339e-30
-3.37826e-26
-2.44293e-29
-6.45283e-26
-5.15091e-29
-1.2148e-25
-2.80351e-29
-8.42982e-26
8.23437e-29
-1.90662e-26
3.94504e-28
2.45527e-28
-3.71285e-27
-1.02722e-51
-1.40547e-55
-1.64418e-49
-2.38888e-53
-1.29208e-47
-1.99789e-51
-6.74423e-46
-1.11217e-49
-2.63317e-44
-4.63979e-48
-8.18698e-43
-1.54466e-46
-2.06221e-41
-4.17534e-45
-4.12159e-40
-8.96408e-44
-7.4332e-39
-1.74287e-42
-1.26273e-37
-3.22294e-41
-1.91115e-36
-5.32032e-40
-2.64826e-35
-8.02912e-39
-3.68004e-34
-1.12715e-37
-5.06959e-33
-1.48652e-36
-6.47233e-32
-1.77011e-35
-9.41136e-31
-1.94894e-34
-1.6736e-29
-2.06172e-33
-1.13404e-28
-1.69218e-32
-2.61406e-28
-6.52315e-32
-5.01161e-28
-1.00947e-31
-6.57998e-28
5.04948e-32
-3.00868e-28
1.41864e-30
2.21698e-30
-7.99615e-29
-1.4056e-55
-1.15851e-59
-2.40315e-53
-2.12084e-57
-2.02158e-51
-1.914e-55
-1.13164e-49
-1.15212e-53
-4.7466e-48
-5.20731e-52
-1.58872e-46
-1.88179e-50
-4.26447e-45
-5.45089e-49
-9.1386e-44
-1.25208e-47
-1.9051e-42
-2.85743e-46
-3.41418e-41
-5.66409e-45
-5.66313e-40
-1.02829e-43
-8.60903e-39
-1.71393e-42
-1.27743e-37
-2.63555e-41
-1.95745e-36
-3.86772e-40
-2.77775e-35
-5.19842e-39
-4.11001e-34
-6.41672e-38
-6.86035e-33
-7.33088e-37
-6.89353e-32
-8.23766e-36
-2.76145e-31
-8.40083e-35
-1.18553e-30
-3.62424e-34
-4.54323e-30
-3.57003e-34
-3.30706e-30
2.81478e-33
8.01e-33
-1.33525e-30
-1.15859e-59
-6.39706e-64
-2.12127e-57
-1.27323e-61
-1.9163e-55
-1.25112e-59
-1.15521e-53
-8.21141e-58
-5.23228e-52
-4.05236e-56
-1.84956e-50
-1.56258e-54
-5.38076e-49
-4.80419e-53
-1.37003e-47
-1.35864e-51
-2.99489e-46
-3.31456e-50
-5.96463e-45
-7.24869e-49
-1.08816e-43
-1.45533e-47
-1.82362e-42
-2.69277e-46
-2.83438e-41
-4.6103e-45
-4.82553e-40
-7.50661e-44
-7.61867e-39
-1.14133e-42
-1.11739e-37
-1.59948e-41
-1.66983e-36
-2.07271e-40
-3.40372e-35
-2.52499e-39
-4.83552e-34
-2.88878e-38
-3.28836e-33
-2.37205e-37
-1.44069e-32
-8.98996e-37
-2.26076e-32
2.27795e-36
3.58568e-35
-1.66246e-32
-5.8174e-64
-5.72118e-68
-1.17464e-61
-1.25102e-65
-1.16638e-59
-1.34803e-63
-7.74018e-58
-9.71761e-62
-3.86116e-56
-5.27384e-60
-1.54504e-54
-2.29966e-58
-4.9601e-53
-8.3722e-57
-1.40869e-51
-2.61817e-55
-3.45671e-50
-7.08226e-54
-7.59766e-49
-1.71977e-52
-1.53202e-47
-3.84088e-51
-2.84888e-46
-7.93503e-50
-4.9132e-45
-1.52014e-48
-8.82917e-44
-2.7359e-47
-1.56581e-42
-4.70313e-46
-2.59448e-41
-7.54502e-45
-4.13537e-40
-1.13185e-43
-7.06503e-39
-1.58728e-42
-1.21247e-37
-2.13433e-41
-1.29565e-36
-2.82963e-40
-1.99053e-35
-2.16841e-39
-1.28127e-34
-3.90588e-39
9.03672e-38
-1.40514e-34
-5.7219e-68
-2.66158e-72
-1.25691e-65
-6.45425e-70
-1.36079e-63
-7.71143e-68
-9.85526e-62
-6.16681e-66
-5.37334e-60
-3.7156e-64
-2.35385e-58
-1.80055e-62
-8.60946e-57
-7.29424e-61
-2.70492e-55
-2.54195e-59
-7.35474e-54
-7.67852e-58
-1.79145e-52
-2.08168e-56
-4.02583e-51
-5.21847e-55
-8.34352e-50
-1.20997e-53
-1.60522e-48
-2.60857e-52
-2.98986e-47
-5.27343e-51
-5.95494e-46
-1.01839e-49
-1.12299e-44
-1.86481e-48
-2.00612e-43
-3.21912e-47
-3.5194e-42
-5.23622e-46
-7.51804e-41
-7.99859e-45
-1.59511e-39
-1.14567e-43
-1.9115e-38
-1.46587e-42
-2.78422e-37
-1.16749e-41
8.41949e-41
-1.02499e-36
-2.6623e-72
-2.41514e-76
-6.48277e-70
-6.56594e-74
-7.77878e-68
-8.78881e-72
-6.2468e-66
-7.87481e-70
-3.77945e-64
-5.31839e-68
-1.83901e-62
-2.89074e-66
-7.48066e-61
-1.31472e-64
-2.61737e-59
-5.14772e-63
-7.89387e-58
-1.73882e-61
-2.15646e-56
-5.33379e-60
-5.44587e-55
-1.51648e-58
-1.26645e-53
-3.97518e-57
-2.74024e-52
-9.7106e-56
-5.57123e-51
-2.22839e-54
-1.18267e-49
-4.84224e-53
-2.52449e-48
-1.01496e-51
-5.16689e-47
-2.01843e-50
-1.01939e-45
-3.81454e-49
-1.99162e-44
-6.82676e-48
-4.11668e-43
-1.15411e-46
-9.0692e-42
-1.86185e-45
-2.83616e-40
-2.25867e-44
-6.61894e-44
-3.77251e-39
-2.41589e-76
-1.87268e-80
-6.59237e-74
-5.77526e-78
-8.85676e-72
-8.75934e-76
-7.96226e-70
-8.88904e-74
-5.39485e-68
-6.79963e-72
-2.94126e-66
-4.18691e-70
-1.34162e-64
-2.15783e-68
-5.19174e-63
-9.413e-67
-1.77169e-61
-3.64202e-65
-5.53952e-60
-1.29269e-63
-1.57411e-58
-4.17729e-62
-4.14056e-57
-1.2494e-60
-1.01487e-55
-3.48746e-59
-2.33669e-54
-9.15963e-58
-5.11426e-53
-2.281e-56
-1.23941e-51
-5.4346e-55
-2.89535e-50
-1.24822e-53
-6.55147e-49
-2.74295e-52
-1.44854e-47
-5.76134e-51
-3.40661e-46
-1.14851e-49
-8.64993e-45
-2.13561e-48
-1.88819e-43
-3.46771e-47
-3.45377e-46
-9.30323e-42
-1.87318e-80
-9.71866e-85
-5.77981e-78
-3.43764e-82
-8.76854e-76
-5.97039e-80
-8.90781e-74
-6.94034e-78
-6.8215e-72
-6.08126e-76
-4.20608e-70
-4.291e-74
-2.11847e-68
-2.46576e-72
-9.47923e-67
-1.26736e-70
-3.75059e-65
-5.75264e-69
-1.33155e-63
-2.34682e-67
-4.31583e-62
-8.73994e-66
-1.29467e-60
-3.01599e-64
-3.62445e-59
-9.72484e-63
-9.54649e-58
-2.95437e-61
-2.38522e-56
-8.52169e-60
-5.92601e-55
-2.34914e-58
-1.58422e-53
-6.23805e-57
-4.12972e-52
-1.60132e-55
-1.05696e-50
-3.95216e-54
-2.69282e-49
-9.33159e-53
-7.01051e-48
-2.07537e-51
-1.88936e-46
-4.19448e-50
-6.33313e-49
-1.39456e-44
-9.36253e-85
-5.394e-89
-3.31381e-82
-2.22733e-86
-5.79216e-80
-4.52868e-84
-6.76541e-78
-6.15263e-82
-5.9568e-76
-6.29935e-80
-4.22329e-74
-5.19374e-78
-2.51e-72
-3.6009e-76
-1.29371e-70
-2.16074e-74
-5.88892e-69
-1.14569e-72
-2.40919e-67
-5.46365e-71
-8.99648e-66
-2.38025e-69
-3.11316e-64
-9.61824e-68
-1.00661e-62
-3.63507e-66
-3.06686e-61
-1.29574e-64
-8.87191e-60
-4.39037e-63
-2.4555e-58
-1.4235e-61
-6.93569e-57
-4.44049e-60
-2.09124e-55
-1.34103e-58
-6.21037e-54
-3.92504e-57
-1.8263e-52
-1.10513e-55
-5.46679e-51
-2.95998e-54
-1.68704e-49
-7.33048e-53
-1.42112e-51
-4.40431e-48
-5.39501e-89
-1.77259e-93
-2.23321e-86
-8.74632e-91
-4.5522e-84
-2.12196e-88
-6.2001e-82
-3.43734e-86
-6.36376e-80
-4.19453e-84
-5.25981e-78
-4.12139e-82
-3.65556e-76
-3.4055e-80
-2.19882e-74
-2.43607e-78
-1.16869e-72
-1.5405e-76
-5.58408e-71
-8.76248e-75
-2.43814e-69
-4.55765e-73
-9.87966e-68
-2.20181e-71
-3.74254e-66
-9.95149e-70
-1.33726e-64
-4.24588e-68
-4.54266e-63
-1.72362e-66
-1.47688e-61
-6.70282e-65
-4.62558e-60
-2.51093e-63
-1.49931e-58
-9.09797e-62
-5.21981e-57
-3.20014e-60
-1.80309e-55
-1.09206e-58
-1.00535e-53
-3.57988e-57
-2.21983e-52
-1.0892e-55
-2.75829e-54
1.09338e-51
-1.77272e-93
-2.23798e-98
-8.76485e-91
-1.36073e-95
-2.13097e-88
-4.05998e-93
-3.45913e-86
-8.07953e-91