/*--------------------------------*- C++ -*----------------------------------*\
| =========                 |                                                 |
| \\      /  F ield         | OpenFOAM: The Open Source CFD Toolbox           |
|  \\    /   O peration     | Version:  2206                                  |
|   \\  /    A nd           | Website:  www.openfoam.com                      |
|    \\/     M anipulation  |                                                 |
\*---------------------------------------------------------------------------*/
FoamFile
{
    version     2.0;
    format      ascii;
    arch        "LSB;label=32;scalar=64";
    class       surfaceScalarField;
    location    "0.1";
    object      phi;
}
// * * * * * * * * * * * * * * * * * * * * * * * * * * * * * * * * * * * * * //

dimensions      [0 3 -1 0 0 0 0];

oriented        oriented;

internalField   nonuniform List<scalar> 
4432
(
1.1153e-05
-1.1153e-05
2.48813e-05
-1.37283e-05
3.80741e-05
-1.31928e-05
5.107e-05
-1.29959e-05
6.42427e-05
-1.31727e-05
7.77314e-05
-1.34887e-05
9.15993e-05
-1.38679e-05
0.000105901
-1.43018e-05
0.00012069
-1.47894e-05
0.000136014
-1.5323e-05
0.000151896
-1.58826e-05
0.000168348
-1.64521e-05
0.000185272
-1.69238e-05
0.000202558
-1.72862e-05
0.000219938
-1.738e-05
0.00023671
-1.67716e-05
0.000251767
-1.50568e-05
0.0002632
-1.14338e-05
0.000269038
-5.83805e-06
0.000267685
1.35304e-06
0.000242342
2.53433e-05
0.000170647
7.16951e-05
0.000170647
1.11297e-05
-2.22827e-05
2.45087e-05
-2.71073e-05
3.73825e-05
-2.60666e-05
5.0131e-05
-2.57444e-05
6.30799e-05
-2.61216e-05
7.63477e-05
-2.67565e-05
9.00012e-05
-2.75214e-05
0.00010411
-2.84104e-05
0.000118752
-2.94314e-05
0.000134014
-3.05858e-05
0.000149997
-3.18647e-05
0.000166819
-3.32743e-05
0.000184594
-3.4699e-05
0.000203604
-3.62958e-05
0.000224044
-3.78206e-05
0.000246012
-3.87394e-05
0.000270619
-3.96634e-05
0.000300148
-4.09635e-05
0.000333922
-3.96113e-05
0.000353548
-1.82737e-05
0.000306901
7.19908e-05
0.000194248
0.000184348
0.000364895
1.09836e-05
-3.32663e-05
2.37138e-05
-3.98375e-05
3.59886e-05
-3.83414e-05
4.82416e-05
-3.79975e-05
6.07192e-05
-3.85992e-05
7.35056e-05
-3.95429e-05
8.66674e-05
-4.06831e-05
0.000100284
-4.2027e-05
0.00011445
-4.35973e-05
0.000129277
-4.54134e-05
0.000144906
-4.74938e-05
0.000161513
-4.98811e-05
0.000179321
-5.25068e-05
0.000198773
-5.57475e-05
0.000220071
-5.91187e-05
0.000243738
-6.24068e-05
0.000271879
-6.78041e-05
0.00030735
-7.64345e-05
0.000344778
-7.70399e-05
0.000336949
-1.04439e-05
0.000258167
0.000150773
0.000136802
0.000305713
0.000501697
1.0673e-05
-4.39393e-05
2.24919e-05
-5.16564e-05
3.39416e-05
-4.97911e-05
4.54713e-05
-4.95271e-05
5.72276e-05
-5.03554e-05
6.92562e-05
-5.15716e-05
8.16155e-05
-5.30425e-05
9.43798e-05
-5.47912e-05
0.000107635
-5.68529e-05
0.000121483
-5.92614e-05
0.000136047
-6.20578e-05
0.000151475
-6.53087e-05
0.000167958
-6.89898e-05
0.000185834
-7.36232e-05
0.000204981
-7.82657e-05
0.00022624
-8.36665e-05
0.000252179
-9.37433e-05
0.000282693
-0.000106948
0.000304196
-9.85432e-05
0.000255569
3.81835e-05
0.000200663
0.000205679
0.000115229
0.000391147
0.000616926
1.01621e-05
-5.41014e-05
2.08672e-05
-6.23615e-05
3.13221e-05
-6.0246e-05
4.19319e-05
-6.01369e-05
5.27404e-05
-6.11639e-05
6.37609e-05
-6.25921e-05
7.50381e-05
-6.43196e-05
8.66281e-05
-6.63812e-05
9.85916e-05
-6.88164e-05
0.000110995
-7.16652e-05
0.000123915
-7.49773e-05
0.000137432
-7.88256e-05
0.000151654
-8.32118e-05
0.000166729
-8.86982e-05
0.000182281
-9.38175e-05
0.000199698
-0.000101084
0.000220993
-0.000115038
0.000242342
-0.000128297
0.000239186
-9.53865e-05
0.00021334
6.40289e-05
0.00016908
0.000249939
6.41166e-05
0.00049611
0.000681042
9.45298e-06
-6.35543e-05
1.89079e-05
-7.18163e-05
2.82534e-05
-6.95915e-05
3.77922e-05
-6.96757e-05
4.74798e-05
-7.08516e-05
5.73079e-05
-7.24201e-05
6.73052e-05
-7.43169e-05
7.75045e-05
-7.65805e-05
8.79351e-05
-7.92471e-05
9.86236e-05
-8.23538e-05
0.000109591
-8.59445e-05
0.00012085
-9.0085e-05
0.000132415
-9.47769e-05
0.000144251
-0.000100534
0.000155974
-0.00010554
0.000169471
-0.000114581
0.000184186
-0.000129753
0.000190677
-0.000134789
0.00018098
-8.56903e-05
0.000152507
9.25018e-05
8.24486e-05
0.000319998
-2.30019e-05
0.00060156
0.00065804
8.56297e-06
-7.21173e-05
1.66918e-05
-7.99452e-05
2.48533e-05
-7.7753e-05
3.3212e-05
-7.80344e-05
4.1661e-05
-7.93006e-05
5.01805e-05
-8.09396e-05
5.87843e-05
-8.29207e-05
6.74837e-05
-8.52799e-05
7.62826e-05
-8.8046e-05
8.51773e-05
-9.12484e-05
9.41526e-05
-9.49198e-05
0.000103175
-9.91073e-05
0.000112199
-0.000103802
0.000121032
-0.000109367
0.000129533
-0.00011404
0.000139422
-0.00012447
0.000147261
-0.000137592
0.000134629
-0.000122157
8.02377e-05
-3.12996e-05
1.50714e-05
0.00015767
-5.20427e-05
0.000387112
-8.18858e-05
0.000631403
0.000576154
7.52421e-06
-7.96415e-05
1.42994e-05
-8.67204e-05
2.12328e-05
-8.46865e-05
2.83439e-05
-8.51455e-05
3.54884e-05
-8.6445e-05
4.26419e-05
-8.80931e-05
4.9806e-05
-9.00848e-05
5.69752e-05
-9.24492e-05
6.41366e-05
-9.52074e-05
7.12689e-05
-9.83807e-05
7.83415e-05
-0.000101992
8.53092e-05
-0.000106075
9.2126e-05
-0.000110618
9.8646e-05
-0.000115887
0.000104974
-0.000120368
0.000111782
-0.000131277
0.000113344
-0.000139153
7.99646e-05
-8.87773e-05
-3.95236e-05
8.81881e-05
-0.000103929
0.000222076
-0.000107444
0.000390627
-6.50982e-05
0.000589057
0.000511056
2.21803e-06
-2.21803e-06
4.43318e-06
-2.2149e-06
6.3897e-06
-1.95631e-06
8.0241e-06
-1.6342e-06
9.282e-06
-1.25774e-06
1.01418e-05
-8.59745e-07
1.06113e-05
-4.69297e-07
1.07156e-05
-1.04149e-07
1.05104e-05
2.05417e-07
1.00414e-05
4.6913e-07
9.35496e-06
6.86539e-07
8.49282e-06
8.62275e-07
7.49149e-06
1.00154e-06
6.38201e-06
1.10964e-06
5.19047e-06
1.19161e-06
3.93869e-06
1.25182e-06
2.64493e-06
1.29378e-06
1.32493e-06
1.32001e-06
1.32491e-06
2.33387e-06
-4.55164e-06
4.70543e-06
-4.58606e-06
6.78549e-06
-4.03605e-06
8.49978e-06
-3.34825e-06
9.79284e-06
-2.55054e-06
1.06505e-05
-1.71718e-06
1.10942e-05
-9.12746e-07
1.11658e-05
-1.75486e-07
1.09304e-05
4.41089e-07
1.04263e-05
9.7344e-07
9.69974e-06
1.41337e-06
8.7944e-06
1.76793e-06
7.74846e-06
2.0477e-06
6.59425e-06
2.264e-06
5.35858e-06
2.42737e-06
4.06353e-06
2.54692e-06
2.72728e-06
2.63001e-06
1.36501e-06
2.68222e-06
2.68993e-06
2.52888e-06
-7.08032e-06
5.21528e-06
-7.2722e-06
7.54232e-06
-6.36288e-06
9.40252e-06
-5.20827e-06
1.07423e-05
-3.89016e-06
1.15686e-05
-2.54333e-06
1.19276e-05
-1.27157e-06
1.18923e-05
-1.39998e-07
1.15318e-05
8.01816e-07
1.09073e-05
1.59812e-06
1.00741e-05
2.24671e-06
9.07884e-06
2.76341e-06
7.95964e-06
3.16716e-06
6.74719e-06
3.47664e-06
5.46594e-06
3.70866e-06
4.13538e-06
3.87742e-06
2.77111e-06
3.99422e-06
1.38594e-06
4.06739e-06
4.07586e-06
2.72918e-06
-9.80934e-06
6.01597e-06
-1.05588e-05
8.79816e-06
-9.14493e-06
1.08907e-05
-7.30066e-06
1.22764e-05
-5.27572e-06
1.30212e-05
-3.28794e-06
1.3223e-05
-1.4732e-06
1.30119e-05
7.12133e-08
1.24657e-05
1.34813e-06
1.16666e-05
2.39726e-06
1.06783e-05
3.23521e-06
9.5504e-06
3.89167e-06
8.32064e-06
4.39718e-06
7.01751e-06
4.77984e-06
5.66239e-06
5.06374e-06
4.2713e-06
5.26847e-06
2.85634e-06
5.40914e-06
1.42693e-06
5.49675e-06
5.50276e-06
2.6742e-06
-1.24834e-05
7.20943e-06
-1.50938e-05
1.07848e-05
-1.27203e-05
1.31702e-05
-9.68612e-06
1.45412e-05
-6.64651e-06
1.51e-05
-3.84645e-06
1.50162e-05
-1.38923e-06
1.45206e-05
5.66887e-07
1.36979e-05
2.17092e-06
1.265e-05
3.4453e-06
1.14483e-05
4.43717e-06
1.01432e-05
5.19708e-06
8.76925e-06
5.77122e-06
7.35032e-06
6.19882e-06
5.90243e-06
6.51164e-06
4.43635e-06
6.73446e-06
2.95934e-06
6.88603e-06
1.47628e-06
6.97972e-06
6.97904e-06
1.37606e-06
-1.38595e-05
8.75057e-06
-2.24683e-05
1.38351e-05
-1.78046e-05
1.65516e-05
-1.24026e-05
1.77313e-05
-7.82621e-06
1.78784e-05
-3.99368e-06
1.73673e-05
-8.78061e-07
1.64223e-05
1.51201e-06
1.52006e-05
3.39267e-06
1.38166e-05
4.82942e-06
1.2341e-05
5.9129e-06
1.08172e-05
6.72103e-06
9.27101e-06
7.31752e-06
7.71731e-06
7.75261e-06
6.16389e-06
8.06496e-06
4.61434e-06
8.2838e-06
3.0696e-06
8.43061e-06
1.52889e-06
8.52041e-06
8.50798e-06
4.26547e-07
-1.4286e-05
1.02662e-05
-3.23078e-05
1.82876e-05
-2.58262e-05
2.15377e-05
-1.56526e-05
2.21617e-05
-8.45028e-06
2.14776e-05
-3.30941e-06
2.02419e-05
3.57773e-07
1.86479e-05
3.10599e-06
1.68971e-05
5.14337e-06
1.50937e-05
6.63295e-06
1.32923e-05
7.71439e-06
1.15188e-05
8.49474e-06
9.78249e-06
9.05389e-06
8.08444e-06
9.45059e-06
6.42116e-06
9.72801e-06
4.78709e-06
9.91767e-06
3.17552e-06
1.00422e-05
1.57911e-06
1.01169e-05
1.00871e-05
1.31361e-05
-2.74221e-05
2.20891e-05
-4.12603e-05
2.7865e-05
-3.16017e-05
2.9437e-05
-1.72245e-05
2.82192e-05
-7.23246e-06
2.60655e-05
-1.1557e-06
2.36129e-05
2.81035e-06
2.10989e-05
5.61989e-06
1.86711e-05
7.57123e-06
1.63748e-05
8.92932e-06
1.42144e-05
9.87488e-06
1.21785e-05
1.05308e-05
1.02502e-05
1.09822e-05
8.41138e-06
1.12892e-05
6.64476e-06
1.14944e-05
4.93403e-06
1.16283e-05
3.26404e-06
1.17122e-05
1.62054e-06
1.17605e-05
1.17076e-05
3.79219e-06
-8.34337e-05
7.07067e-06
-8.99988e-05
1.04814e-05
-8.80972e-05
1.3975e-05
-8.86391e-05
1.74652e-05
-8.99353e-05
2.09383e-05
-9.15662e-05
2.43905e-05
-9.3537e-05
2.78132e-05
-9.5872e-05
3.11943e-05
-9.85884e-05
3.45155e-05
-0.000101702
3.77596e-05
-0.000105236
4.08774e-05
-0.000109193
4.38817e-05
-0.000113623
4.65941e-05
-0.0001186
4.91894e-05
-0.000122964
5.14056e-05
-0.000133494
4.7279e-05
-0.000135027
1.25711e-05
-5.40701e-05
-5.51353e-05
0.000155895
-7.65076e-05
0.000243449
-5.13552e-05
0.000365475
4.70046e-06
0.000533002
0.000472875
4.28818e-05
3.42834e-06
-8.68621e-05
6.29087e-06
-9.28614e-05
9.31926e-06
-9.11257e-05
1.24147e-05
-9.17345e-05
1.54933e-05
-9.30139e-05
1.85427e-05
-9.46155e-05
2.15565e-05
-9.65507e-05
2.45234e-05
-9.88389e-05
2.74291e-05
-0.000101494
3.02559e-05
-0.000104529
3.29818e-05
-0.000107962
3.55762e-05
-0.000111787
3.80246e-05
-0.000116071
4.01963e-05
-0.000120771
4.2309e-05
-0.000125076
4.38758e-05
-0.00013506
4.01296e-05
-0.000131281
-1.90013e-05
5.06089e-06
-6.3742e-05
0.000200636
-6.85015e-05
0.000248209
-2.75081e-05
0.000324482
5.9073e-05
0.000446421
0.000415524
0.000116424
3.05888e-06
-8.99209e-05
5.51998e-06
-9.53224e-05
8.16894e-06
-9.37746e-05
1.08704e-05
-9.4436e-05
1.35438e-05
-9.56873e-05
1.61776e-05
-9.72493e-05
1.87629e-05
-9.9136e-05
2.12868e-05
-0.000101363
2.37335e-05
-0.000103941
2.60853e-05
-0.00010688
2.83211e-05
-0.000110198
3.04178e-05
-0.000113884
3.23615e-05
-0.000118015
3.40645e-05
-0.000122474
3.57848e-05
-0.000126797
3.67305e-05
-0.000136006
2.93301e-05
-0.00012388
-4.03988e-05
7.47896e-05
-5.36284e-05
0.000213866
-4.26489e-05
0.000237229
8.21249e-07
0.000281011
9.5487e-05
0.000351755
0.000340173
0.000170838
2.69193e-06
-9.26129e-05
4.76952e-06
-9.74e-05
7.04774e-06
-9.60528e-05
9.36509e-06
-9.67533e-05
1.16455e-05
-9.79676e-05
1.3878e-05
-9.94818e-05
1.60517e-05
-0.00010131
1.81519e-05
-0.000103463
2.01619e-05
-0.000105951
2.2064e-05
-0.000108783
2.38381e-05
-0.000111972
2.54674e-05
-0.000115513
2.69368e-05
-0.000119484
2.81972e-05
-0.000123735
2.94736e-05
-0.000128073
3.00276e-05
-0.00013656
1.85381e-05
-0.000112391
-3.63056e-05
0.000129634
-3.17282e-05
0.000209288
-1.19255e-05
0.000217426
2.85516e-05
0.000240534
0.00010981
0.000270497
0.00026539
0.000184593
2.32812e-06
-9.4941e-05
4.04274e-06
-9.91147e-05
5.96058e-06
-9.79707e-05
7.90648e-06
-9.86992e-05
9.80833e-06
-9.98695e-05
1.16563e-05
-0.00010133
1.34373e-05
-0.000103091
1.51355e-05
-0.000105161
1.67326e-05
-0.000107548
1.821e-05
-0.00011026
1.95476e-05
-0.00011331
2.0733e-05
-0.000116699
2.17317e-05
-0.000120483
2.25416e-05
-0.000124545
2.32537e-05
-0.000128785
2.39844e-05
-0.000137291
1.00813e-05
-9.84875e-05
-1.92329e-05
0.000158948
-7.69048e-06
0.000197745
1.37254e-05
0.00019601
4.82832e-05
0.000205976
0.000105831
0.000212949
0.000207016
0.000164206
1.98063e-06
-9.69216e-05
3.35584e-06
-0.00010049
4.92813e-06
-9.9543e-05
6.51924e-06
-0.00010029
8.06418e-06
-0.000101414
9.55189e-06
-0.000102817
1.09677e-05
-0.000104507
1.22936e-05
-0.000106487
1.35089e-05
-0.000108763
1.4591e-05
-0.000111342
1.55137e-05
-0.000114233
1.62601e-05
-0.000117445
1.67349e-05
-0.000120958
1.69646e-05
-0.000124774
1.68358e-05
-0.000128656
1.78069e-05
-0.000138262
2.17768e-06
-8.28581e-05
-5.32584e-06
0.000166451
1.10241e-05
0.000181394
3.17946e-05
0.000175239
5.91395e-05
0.000178631
9.51419e-05
0.000176946
0.000169175
0.000132983
1.69484e-06
-9.86164e-05
2.73383e-06
-0.000101529
3.98611e-06
-0.000100795
5.24672e-06
-0.000101551
6.46702e-06
-0.000102635
7.63036e-06
-0.000103981
8.7199e-06
-0.000105596
9.71408e-06
-0.000107481
1.05865e-05
-0.000109636
1.13036e-05
-0.000112059
1.18205e-05
-0.00011475
1.20868e-05
-0.000117711
1.19046e-05
-0.000120775
1.12625e-05
-0.000124132
9.99994e-06
-0.000127394
9.18694e-06
-0.000137449
-1.18499e-05
-6.18214e-05
2.50485e-06
0.000152096
2.39204e-05
0.000159978
4.27137e-05
0.000156445
6.26966e-05
0.000158648
8.4162e-05
0.000155481
0.0001471
0.000106237
1.42994e-06
-0.000100046
2.13667e-06
-0.000102236
3.12338e-06
-0.000101782
4.09826e-06
-0.000102526
5.03466e-06
-0.000103571
5.91183e-06
-0.000104858
6.70994e-06
-0.000106394
7.40462e-06
-0.000108176
7.9618e-06
-0.000110193
8.33218e-06
-0.000112429
8.4501e-06
-0.000114867
8.20871e-06
-0.00011747
7.38369e-06
-0.00011995
5.76269e-06
-0.000122511
3.77114e-06
-0.000125402
-1.93116e-06
-0.000131747
-1.84155e-05
-4.53386e-05
1.52964e-05
0.000118384
3.72609e-05
0.000138014
5.03039e-05
0.000143402
6.24426e-05
0.000146509
7.45047e-05
0.000143419
0.000135177
8.64275e-05
1.13043e-06
-0.000101177
1.51839e-06
-0.000102624
2.22566e-06
-0.000102489
2.91525e-06
-0.000103215
3.55333e-06
-0.000104209
4.12632e-06
-0.000105431
4.61018e-06
-0.000106878
4.97842e-06
-0.000108544
5.195e-06
-0.000110409
5.20606e-06
-0.000112441
4.96247e-06
-0.000114624
4.37364e-06
-0.000116881
3.69995e-06
-0.000119277
2.63903e-06
-0.00012145
4.00058e-06
-0.000126764
-4.44267e-06
-0.000123303
1.20111e-05
-6.17926e-05
5.02554e-05
8.01403e-05
5.61376e-05
0.000132133
5.73191e-05
0.00014222
6.08627e-05
0.000142965
6.58403e-05
0.000138441
0.000129818
7.11995e-05
6.30067e-07
-0.000101807
6.81271e-07
-0.000102675
1.03314e-06
-0.000102841
1.33959e-06
-0.000103522
1.57121e-06
-0.000104441
1.72886e-06
-0.000105589
1.79121e-06
-0.00010694
1.74198e-06
-0.000108495
1.56629e-06
-0.000110234
1.24797e-06
-0.000112122
8.80027e-07
-0.000114256
5.92279e-07
-0.000116593
1.95085e-06
-0.000120635
5.56824e-06
-0.000125068
1.60503e-05
-0.000137246
1.76725e-05
-0.000124926
5.50046e-05
-9.9124e-05
9.41088e-05
4.10364e-05
8.50721e-05
0.000141169
6.61108e-05
0.000161181
5.82032e-05
0.000150873
5.67537e-05
0.00013989
0.000128956
5.76155e-05
-2.31689e-07
-0.000101575
-8.18249e-07
-0.000102088
-1.17386e-06
-0.000102485
-1.63463e-06
-0.000103061
-2.19762e-06
-0.000103878
-2.83639e-06
-0.00010495
-3.57347e-06
-0.000106203
-4.32415e-06
-0.000107744
-4.96164e-06
-0.000109596
-5.23813e-06
-0.000111845
-4.43594e-06
-0.000115058
-8.9329e-07
-0.000120136
6.90375e-06
-0.000128432
2.41406e-05
-0.000142304
3.32129e-05
-0.000146318
4.28059e-05
-0.000134519
4.62094e-05
-0.000102527
9.90894e-05
-1.18436e-05
9.38002e-05
0.000146458
6.75877e-05
0.000187393
5.12696e-05
0.000167191
4.48415e-05
0.000146319
0.000130494
4.33042e-05
-1.94156e-06
-9.96335e-05
-4.34962e-06
-9.96798e-05
-6.19571e-06
-0.000100639
-8.00242e-06
-0.000101254
-9.3244e-06
-0.000102556
-1.06949e-05
-0.000103579
-1.18466e-05
-0.000105052
-1.24463e-05
-0.000107145
-1.18033e-05
-0.00011024
-8.77425e-06
-0.000114875
-1.37276e-06
-0.00012246
1.30951e-05
-0.000134605
3.46047e-05
-0.000149943
5.7936e-05
-0.000165636
6.64877e-05
-0.00015487
5.37385e-05
-0.000121769
3.97548e-05
-8.85434e-05
5.5711e-05
-2.78e-05
6.53646e-05
0.000136804
4.65029e-05
0.000206255
3.31009e-05
0.000180594
2.72648e-05
0.000152155
0.000131156
2.66032e-05
-2.49252e-06
-9.7141e-05
-4.59793e-06
-9.75753e-05
-6.74552e-06
-9.84922e-05
-8.85583e-06
-9.91453e-05
-1.10054e-05
-0.000100407
-1.26608e-05
-0.000101925
-1.36386e-05
-0.000104075
-1.35899e-05
-0.000107193
-1.20403e-05
-0.000111789
-8.31326e-06
-0.000118602
-1.62898e-06
-0.000129144
9.30594e-06
-0.000145539
2.59739e-05
-0.00016661
4.3065e-05
-0.000182727
5.57329e-05
-0.000167538
4.57181e-05
-0.000111755
1.48107e-05
-5.76356e-05
3.37705e-06
-1.63664e-05
1.85616e-06
0.000138325
-7.24823e-07
0.000208837
-7.44031e-07
0.000180613
3.04215e-06
0.000148369
0.000127052
7.14581e-06
-3.18293e-06
-9.39586e-05
-5.61937e-06
-9.51389e-05
-8.35384e-06
-9.57584e-05
-1.09626e-05
-9.65358e-05
-1.35534e-05
-9.78168e-05
-1.58984e-05
-9.95805e-05
-1.79215e-05
-0.000102052
-1.95545e-05
-0.000105561
-2.08069e-05
-0.000110538
-2.17851e-05
-0.000117625
-2.27251e-05
-0.000128204
-2.3503e-05
-0.000144761
-2.31211e-05
-0.000166991
-2.23102e-05
-0.000183538
-1.77824e-05
-0.000172065
-1.7478e-05
-0.000112059
-2.96273e-05
-4.54863e-05
-6.70997e-05
2.11062e-05
-7.96468e-05
0.000150872
-5.736e-05
0.00018655
-3.6751e-05
0.000160004
-2.31053e-05
0.000134724
0.000117231
-1.32844e-05
-3.31111e-06
-9.06481e-05
-6.18045e-06
-9.22707e-05
-9.31964e-06
-9.26202e-05
-1.23932e-05
-9.34623e-05
-1.55602e-05
-9.46507e-05
-1.88048e-05
-9.63363e-05
-2.21991e-05
-9.86571e-05
-2.5917e-05
-0.000101844
-3.02897e-05
-0.000106165
-3.59446e-05
-0.00011197
-4.40166e-05
-0.000120132
-5.60355e-05
-0.000132742
-7.26787e-05
-0.000150348
-9.19143e-05
-0.000164302
-0.000107697
-0.000156283
-0.000109031
-0.000110725
-0.000120644
-3.38729e-05
-0.000154793
5.52552e-05
-0.000141606
0.000137686
-9.91812e-05
0.000144125
-6.70482e-05
0.000127871
-4.59793e-05
0.000113655
0.000102544
-3.12911e-05
-3.42684e-06
-8.72214e-05
-6.84128e-06
-8.88559e-05
-1.03059e-05
-8.91558e-05
-1.38925e-05
-8.98754e-05
-1.76655e-05
-9.08782e-05
-2.17325e-05
-9.22697e-05
-2.6251e-05
-9.4139e-05
-3.14888e-05
-9.66058e-05
-3.78706e-05
-9.97831e-05
-4.60802e-05
-0.00010376
-5.74965e-05
-0.000108716
-7.48496e-05
-0.000115389
-0.000100955
-0.000124243
-0.000134752
-0.000130505
-0.000169478
-0.000121557
-0.000194631
-8.55719e-05
-0.000207368
-2.1136e-05
-0.000202782
5.0669e-05
-0.000160597
9.55012e-05
-0.000115043
9.85704e-05
-8.3061e-05
9.58894e-05
-6.0741e-05
9.13351e-05
8.60697e-05
-4.42671e-05
-3.66061e-06
-8.3561e-05
-7.48783e-06
-8.50286e-05
-1.13037e-05
-8.53403e-05
-1.53331e-05
-8.58461e-05
-1.96242e-05
-8.65867e-05
-2.43144e-05
-8.75787e-05
-2.95921e-05
-8.88621e-05
-3.5739e-05
-9.04589e-05
-4.31478e-05
-9.23744e-05
-5.23477e-05
-9.45595e-05
-6.42866e-05
-9.6777e-05
-8.09827e-05
-9.8693e-05
-0.000105377
-9.98487e-05
-0.000137858
-9.80245e-05
-0.000172324
-8.70909e-05
-0.000198237
-5.96587e-05
-0.000203945
-1.54282e-05
-0.000183742
3.0466e-05
-0.000145969
5.77285e-05
-0.000112468
6.50687e-05
-8.69606e-05
7.03823e-05
-6.72273e-05
7.16017e-05
7.04707e-05
-5.16287e-05
-3.8472e-06
-7.97136e-05
-7.85021e-06
-8.10254e-05
-1.19338e-05
-8.12563e-05
-1.62266e-05
-8.15532e-05
-2.08261e-05
-8.19872e-05
-2.58628e-05
-8.2542e-05
-3.15179e-05
-8.32064e-05
-3.8038e-05
-8.39386e-05
-4.57481e-05
-8.4664e-05
-5.50659e-05
-8.52418e-05
-6.65099e-05
-8.53332e-05
-8.08071e-05
-8.43957e-05
-9.90114e-05
-8.16442e-05
-0.00012138
-7.56556e-05
-0.00014478
-6.36916e-05
-0.000161766
-4.26726e-05
-0.000163215
-1.39794e-05
-0.000146947
1.41982e-05
-0.000122921
3.37019e-05
-0.000102165
4.43127e-05
-8.38044e-05
5.20215e-05
-6.79554e-05
5.57524e-05
5.70604e-05
-5.45455e-05
-3.98452e-06
-7.57289e-05
-8.0851e-06
-7.69252e-05
-1.23374e-05
-7.70037e-05
-1.6781e-05
-7.71089e-05
-2.15295e-05
-7.72383e-05
-2.66995e-05
-7.73729e-05
-3.24357e-05
-7.74697e-05
-3.89169e-05
-7.74576e-05
-4.63592e-05
-7.72214e-05
-5.50301e-05
-7.65711e-05
-6.51761e-05
-7.5187e-05
-7.69127e-05
-7.2659e-05
-9.01794e-05
-6.83775e-05
-0.000104569
-6.12665e-05
-0.000118419
-4.98419e-05
-0.00012775
-3.33415e-05
-0.000128133
-1.35959e-05
-0.000119029
5.09329e-06
-0.000105257
1.99296e-05
-9.16615e-05
3.07168e-05
-7.81871e-05
3.85468e-05
-6.57451e-05
4.33102e-05
4.59588e-05
-5.46436e-05
-4.05068e-06
-7.16777e-05
-8.19193e-06
-7.27837e-05
-1.24859e-05
-7.27098e-05
-1.69637e-05
-7.26313e-05
-2.17162e-05
-7.24856e-05
-2.68395e-05
-7.22495e-05
-3.24403e-05
-7.18689e-05
-3.86369e-05
-7.12614e-05
-4.55529e-05
-7.03055e-05
-5.33091e-05
-6.88151e-05
-6.19753e-05
-6.65207e-05
-7.1531e-05
-6.31033e-05
-8.17458e-05
-5.81628e-05
-9.18999e-05
-5.11126e-05
-0.000100496
-4.12461e-05
-0.000105427
-2.84107e-05
-0.000105156
-1.38668e-05
-9.99584e-05
-1.05148e-07
-9.17928e-05
1.17636e-05
-8.2257e-05
2.11807e-05
-7.21276e-05
2.84174e-05
-6.23135e-05
3.34963e-05
3.68271e-05
-5.31815e-05
-4.03969e-06
-6.76378e-05
-8.17493e-06
-6.86483e-05
-1.24212e-05
-6.84637e-05
-1.6837e-05
-6.82159e-05
-2.14839e-05
-6.78386e-05
-2.64318e-05
-6.73006e-05
-3.17537e-05
-6.65476e-05
-3.75168e-05
-6.54982e-05
-4.37807e-05
-6.40415e-05
-5.05779e-05
-6.20182e-05
-5.78689e-05
-5.92296e-05
-6.55171e-05
-5.54553e-05
-7.32539e-05
-5.04261e-05
-8.05547e-05
-4.38119e-05
-8.6446e-05
-3.53549e-05
-8.96522e-05
-2.52047e-05
-8.93577e-05
-1.41616e-05
-8.60301e-05
-3.43306e-06
-8.04673e-05
6.20076e-06
-7.35842e-05
1.42978e-05
-6.59785e-05
2.0812e-05
-5.82665e-05
2.57846e-05
2.93686e-05
-5.08077e-05
-3.94707e-06
-6.36906e-05
-8.0068e-06
-6.45885e-05
-1.2143e-05
-6.43271e-05
-1.64219e-05
-6.39371e-05
-2.08835e-05
-6.33772e-05
-2.55737e-05
-6.26104e-05
-3.05358e-05
-6.1586e-05
-3.5801e-05
-6.02329e-05
-4.13839e-05
-5.84587e-05
-4.72636e-05
-5.61386e-05
-5.33629e-05
-5.31301e-05
-5.95316e-05
-4.92866e-05
-6.55093e-05
-4.44485e-05
-7.08659e-05
-3.84553e-05
-7.49804e-05
-3.12404e-05
-7.71832e-05
-2.30019e-05
-7.70807e-05
-1.42641e-05
-7.48403e-05
-5.67332e-06
-7.08852e-05
2.24594e-06
-6.57895e-05
9.20243e-06
-6.0007e-05
1.50298e-05
-5.39407e-05
1.97185e-05
2.33145e-05
-4.78864e-05
-3.7936e-06
-5.98973e-05
-7.70781e-06
-6.0675e-05
-1.16845e-05
-6.03506e-05
-1.57718e-05
-5.98495e-05
-1.99951e-05
-5.91537e-05
-2.43811e-05
-5.82253e-05
-2.89487e-05
-5.70185e-05
-3.37057e-05
-5.54757e-05
-3.86403e-05
-5.35243e-05
-4.37057e-05
-5.10732e-05
-4.88108e-05
-4.80248e-05
-5.38118e-05
-4.42857e-05
-5.84924e-05
-3.97679e-05
-6.25389e-05
-3.44086e-05
-6.55503e-05
-2.82286e-05
-6.7147e-05
-2.1405e-05
-6.7135e-05
-1.42759e-05
-6.55772e-05
-7.23085e-06
-6.27238e-05
-6.07125e-07
-5.88991e-05
5.37797e-06
-5.44384e-05
1.05692e-05
-4.96311e-05
1.49112e-05
1.83965e-05
-4.47131e-05
-3.60352e-06
-5.62936e-05
-7.32384e-06
-5.69543e-05
-1.1101e-05
-5.6574e-05
-1.49582e-05
-5.59924e-05
-1.89104e-05
-5.52019e-05
-2.29681e-05
-5.41678e-05
-2.71342e-05
-5.2852e-05
-3.14012e-05
-5.12087e-05
-3.57424e-05
-4.91833e-05
-4.01026e-05
-4.67129e-05
-4.43937e-05
-4.37335e-05
-4.84898e-05
-4.01894e-05
-5.22182e-05
-3.60393e-05
-5.53547e-05
-3.12717e-05
-5.76452e-05
-2.59377e-05
-5.88689e-05
-2.01811e-05
-5.89149e-05
-1.42298e-05
-5.78081e-05
-8.33742e-06
-5.56993e-05
-2.71582e-06
-5.27903e-05
2.46905e-06
-4.93166e-05
7.0954e-06
-4.54844e-05
1.10789e-05
1.43905e-05
-4.14785e-05
-3.39825e-06
-5.28956e-05
-6.89996e-06
-5.34527e-05
-1.0449e-05
-5.30252e-05
-1.40512e-05
-5.23904e-05
-1.77135e-05
-5.15402e-05
-2.14348e-05
-5.04462e-05
-2.52086e-05
-4.90781e-05
-2.90176e-05
-4.74001e-05
-3.28282e-05
-4.53728e-05
-3.65858e-05
-4.2955e-05
-4.02118e-05
-4.01073e-05
-4.36011e-05
-3.67998e-05
-4.66209e-05
-3.30191e-05
-4.91134e-05
-2.87788e-05
-5.09145e-05
-2.41363e-05
-5.18913e-05
-1.92041e-05
-5.19794e-05
-1.41416e-05
-5.11933e-05
-9.12338e-06
-4.96121e-05
-4.29695e-06
-4.73676e-05
2.24382e-07
-4.46327e-05
4.36037e-06
-4.15585e-05
8.00457e-06
1.11171e-05
-3.8285e-05
-3.18941e-06
-4.97061e-05
-6.46128e-06
-5.01814e-05
-9.76574e-06
-4.97207e-05
-1.31007e-05
-4.9056e-05
-1.64658e-05
-4.81751e-05
-1.98544e-05
-4.70574e-05
-2.32542e-05
-4.56788e-05
-2.66421e-05
-4.40123e-05
-2.99833e-05
-4.20312e-05
-3.32283e-05
-3.97098e-05
-3.63096e-05
-3.70259e-05
-3.91424e-05
-3.39668e-05
-4.16262e-05
-3.05349e-05
-4.36501e-05
-2.67546e-05
-4.51064e-05
-2.26799e-05
-4.59121e-05
-1.83983e-05
-4.6029e-05
-1.40247e-05
-4.54673e-05
-9.68502e-06
-4.42736e-05
-5.4907e-06
-4.25358e-05
-1.51349e-06
-4.03603e-05
2.18472e-06
-3.78772e-05
5.52138e-06
8.43155e-06
-3.51917e-05
-2.97981e-06
-4.67264e-05
-6.01687e-06
-4.71448e-05
-9.07038e-06
-4.66674e-05
-1.21352e-05
-4.59918e-05
-1.52058e-05
-4.51042e-05
-1.82736e-05
-4.39899e-05
-2.13225e-05
-4.26304e-05
-2.43278e-05
-4.10069e-05
-2.72567e-05
-3.9102e-05
-3.00656e-05
-3.69009e-05
-3.26982e-05
-3.43933e-05
-3.50875e-05
-3.15773e-05
-3.71583e-05
-2.84638e-05
-3.88323e-05
-2.50805e-05
-4.0037e-05
-2.1475e-05
-4.0719e-05
-1.77161e-05
-4.08545e-05
-1.38891e-05
-4.0453e-05
-1.00864e-05
-3.95503e-05
-6.39357e-06
-3.81927e-05
-2.87114e-06
-3.64595e-05
4.51335e-07
-3.44405e-05
3.50234e-06
6.2198e-06
-3.22287e-05
-2.76683e-06
-4.396e-05
-5.56862e-06
-4.43432e-05
-8.37177e-06
-4.38645e-05
-1.117e-05
-4.31936e-05
-1.39561e-05
-4.2318e-05
-1.67198e-05
-4.12267e-05
-1.94437e-05
-3.99067e-05
-2.21043e-05
-3.8346e-05
-2.46719e-05
-3.65342e-05
-2.71089e-05
-3.4464e-05
-2.93693e-05
-3.21329e-05
-3.14007e-05
-2.95456e-05
-3.31471e-05
-2.67172e-05
-3.45524e-05
-2.3675e-05
-3.55672e-05
-2.04601e-05
-3.61561e-05
-1.71271e-05
-3.63043e-05
-1.37408e-05
-3.60202e-05
-1.03705e-05
-3.53309e-05
-7.08292e-06
-3.42712e-05
-3.93101e-06
-3.28804e-05
-9.39526e-07
-3.12346e-05
1.85638e-06
4.39301e-06
-2.94079e-05
-2.54956e-06
-4.14105e-05
-5.11791e-06
-4.17751e-05
-7.67505e-06
-4.13074e-05
-1.02151e-05
-4.06536e-05
-1.27304e-05
-3.98032e-05
-1.52091e-05
-3.87481e-05
-1.76348e-05
-3.74808e-05
-1.99864e-05
-3.59943e-05
-2.22374e-05
-3.42833e-05
-2.43559e-05
-3.23456e-05
-2.63047e-05
-3.01838e-05
-2.80434e-05
-2.78065e-05
-2.953e-05
-2.52303e-05
-3.0724e-05
-2.24808e-05
-3.1591e-05
-1.95929e-05
-3.21071e-05
-1.66108e-05
-3.2263e-05
-1.35848e-05
-3.2065e-05
-1.05685e-05
-3.1534e-05
-7.61395e-06
-3.06995e-05
-4.76566e-06
-2.9587e-05
-2.05218e-06
-2.82446e-05
5.13826e-07
2.87917e-06
-2.6731e-05
-2.32992e-06
-3.90806e-05
-4.66772e-06
-3.94376e-05
-6.98556e-06
-3.89894e-05
-9.27836e-06
-3.83612e-05
-1.15377e-05
-3.75442e-05
-1.37516e-05
-3.65339e-05
-1.59053e-05
-3.53269e-05
-1.798e-05
-3.39196e-05
-1.99528e-05
-3.23106e-05
-2.17967e-05
-3.05014e-05
-2.34823e-05
-2.84978e-05
-2.49782e-05
-2.63103e-05
-2.62528e-05
-2.39556e-05
-2.72764e-05
-2.1457e-05
-2.80248e-05
-1.88444e-05
-2.84816e-05
-1.61538e-05
-2.86407e-05
-1.34256e-05
-2.85075e-05
-1.07018e-05
-2.80978e-05
-8.02364e-06
-2.74355e-05
-5.42813e-06
-2.65438e-05
-2.94397e-06
-2.54467e-05
-5.83391e-07
1.62486e-06
-2.41925e-05
-2.11052e-06
-3.69704e-05
-4.22209e-06
-3.7326e-05
-6.30914e-06
-3.69025e-05
-8.3664e-06
-3.63041e-05
-1.0385e-05
-3.55254e-05
-1.23538e-05
-3.45647e-05
-1.42597e-05
-3.34209e-05
-1.6086e-05
-3.20934e-05
-1.78128e-05
-3.05836e-05
-1.94183e-05
-2.88956e-05
-2.0879e-05
-2.70369e-05
-2.21704e-05
-2.50188e-05
-2.32685e-05
-2.28575e-05
-2.41515e-05
-2.05739e-05
-2.48019e-05
-1.81938e-05
-2.52085e-05
-1.57471e-05
-2.53674e-05
-1.32666e-05
-2.52829e-05
-1.07864e-05
-2.49669e-05
-8.33959e-06
-2.44379e-05
-5.9571e-06
-2.37174e-05
-3.66442e-06
-2.28223e-05
-1.47835e-06
5.87937e-07
-2.17852e-05
-1.89381e-06
-3.50768e-05
-3.78543e-06
-3.54341e-05
-5.65102e-06
-3.5037e-05
-7.48446e-06
-3.44705e-05
-9.27733e-06
-3.37322e-05
-1.10196e-05
-3.28223e-05
-1.26992e-05
-3.17415e-05
-1.43014e-05
-3.04913e-05
-1.58096e-05
-2.90752e-05
-1.72061e-05
-2.74989e-05
-1.84722e-05
-2.57708e-05
-1.95885e-05
-2.39025e-05
-2.05368e-05
-2.19091e-05
-2.13009e-05
-1.98097e-05
-2.18681e-05
-1.76264e-05
-2.22306e-05
-1.53845e-05
-2.23859e-05
-1.31113e-05
-2.23374e-05
-1.08348e-05
-2.20945e-05
-8.58236e-06
-2.16715e-05
-6.37979e-06
-2.10863e-05
-4.24925e-06
-2.03556e-05
-2.20862e-06
-2.68536e-07
-1.94987e-05
-1.68213e-06
-3.33945e-05
-3.36163e-06
-3.37546e-05
-5.01519e-06
-3.33834e-05
-6.63658e-06
-3.28489e-05
-8.21808e-06
-3.21507e-05
-9.75033e-06
-3.12904e-05
-1.12222e-05
-3.02698e-05
-1.26212e-05
-2.90924e-05
-1.39335e-05
-2.77627e-05
-1.51448e-05
-2.62875e-05
-1.624e-05
-2.46757e-05
-1.72039e-05
-2.29386e-05
-1.80225e-05
-2.10904e-05
-1.86837e-05
-1.91482e-05
-1.91784e-05
-1.71315e-05
-1.95008e-05
-1.5062e-05
-1.96494e-05
-1.29625e-05
-1.96272e-05
-1.08567e-05
-1.94416e-05
-8.76768e-06
-1.91037e-05
-6.71725e-06
-1.86275e-05
-4.72491e-06
-1.80289e-05
-2.80676e-06
-9.76687e-07
-1.73202e-05
-1.47757e-06
-3.1917e-05
-2.95321e-06
-3.22792e-05
-4.40432e-06
-3.19322e-05
-5.82513e-06
-3.14281e-05
-7.20824e-06
-3.07679e-05
-8.54485e-06
-2.9954e-05
-9.82509e-06
-2.89895e-05
-1.10384e-05
-2.78788e-05
-1.21737e-05
-2.66273e-05
-1.32189e-05
-2.52423e-05
-1.41619e-05
-2.37327e-05
-1.49908e-05
-2.21095e-05
-1.5695e-05
-2.0386e-05
-1.62653e-05
-1.85777e-05
-1.66949e-05
-1.67018e-05
-1.69798e-05
-1.4777e-05
-1.7119e-05
-1.28231e-05
-1.71151e-05
-1.08603e-05
-1.69739e-05
-8.90847e-06
-1.67043e-05
-6.98645e-06
-1.63175e-05
-5.11137e-06
-1.58264e-05
-3.29754e-06
-1.55987e-06
-1.52429e-05
-1.28127e-06
-3.06359e-05
-2.5614e-06
-3.09991e-05
-3.81967e-06
-3.06739e-05
-5.05051e-06
-3.01975e-05
-6.2467e-06
-2.95719e-05
-7.40022e-06
-2.88004e-05
-8.50269e-06
-2.78868e-05
-9.5453e-06
-2.68359e-05
-1.05187e-05
-2.56539e-05
-1.1413e-05
-2.43479e-05
-1.22185e-05
-2.2927e-05
-1.2926e-05
-2.14018e-05
-1.35272e-05
-1.97846e-05
-1.40154e-05
-1.80894e-05
-1.43854e-05
-1.63317e-05
-1.46342e-05
-1.4528e-05
-1.47615e-05
-1.26957e-05
-1.47695e-05
-1.08522e-05
-1.46628e-05
-9.01489e-06
-1.44488e-05
-7.20038e-06
-1.41363e-05
-5.42381e-06
-1.37356e-05
-3.69819e-06
-2.03604e-06
-1.32595e-05
-1.09319e-06
-2.95428e-05
-2.18627e-06
-2.99059e-05
-3.26083e-06
-2.95994e-05
-4.31121e-06
-2.91472e-05
-5.33062e-06
-2.85523e-05
-6.31214e-06
-2.78185e-05
-7.24868e-06
-2.69499e-05
-8.13278e-06
-2.59517e-05
-8.95656e-06
-2.483e-05
-9.71207e-06
-2.35923e-05
-1.03916e-05
-2.22472e-05
-1.09881e-05
-2.0805e-05
-1.14952e-05
-1.92772e-05
-1.19077e-05
-1.76767e-05
-1.22218e-05
-1.60175e-05
-1.24354e-05
-1.43143e-05
-1.25485e-05
-1.25825e-05
-1.2563e-05
-1.08377e-05
-1.24827e-05
-9.09523e-06
-1.23134e-05
-7.36986e-06
-1.20622e-05
-5.67528e-06
-1.17372e-05
-4.02339e-06
-2.42505e-06
-1.13485e-05
-9.12706e-07
-2.86299e-05
-1.82673e-06
-2.89918e-05
-2.72565e-06
-2.87006e-05
-3.60393e-06