/*--------------------------------*- C++ -*----------------------------------*\
| =========                 |                                                 |
| \\      /  F ield         | OpenFOAM: The Open Source CFD Toolbox           |
|  \\    /   O peration     | Version:  2206                                  |
|   \\  /    A nd           | Website:  www.openfoam.com                      |
|    \\/     M anipulation  |                                                 |
\*---------------------------------------------------------------------------*/
FoamFile
{
    version     2.0;
    format      ascii;
    arch        "LSB;label=32;scalar=64";
    class       surfaceScalarField;
    location    "0.225";
    object      alphaPhi0.water;
}
// * * * * * * * * * * * * * * * * * * * * * * * * * * * * * * * * * * * * * //

dimensions      [0 3 -1 0 0 0 0];

oriented        oriented;

internalField   nonuniform List<scalar> 
4432
(
1.22998e-06
-1.22998e-06
6.36523e-06
-5.13524e-06
1.25756e-05
-6.21037e-06
1.84177e-05
-5.84213e-06
2.36319e-05
-5.21412e-06
2.84162e-05
-4.78434e-06
3.30178e-05
-4.60157e-06
3.75939e-05
-4.57617e-06
4.21936e-05
-4.5997e-06
4.67814e-05
-4.58776e-06
5.12642e-05
-4.48283e-06
5.55031e-05
-4.23886e-06
5.93099e-05
-3.80683e-06
6.24212e-05
-3.11122e-06
6.44619e-05
-2.04072e-06
6.45701e-05
-1.08224e-07
6.10401e-05
3.53e-06
5.19832e-05
9.05685e-06
3.58096e-05
1.61737e-05
1.31728e-05
2.26367e-05
-8.47546e-06
2.24767e-05
-1.49046e-05
8.60738e-06
-1.63517e-05
1.28635e-06
-2.51633e-06
6.43585e-06
-1.02847e-05
1.26471e-05
-1.24216e-05
1.8491e-05
-1.16861e-05
2.37062e-05
-1.04293e-05
2.85001e-05
-9.57825e-06
3.31251e-05
-9.22657e-06
3.77349e-05
-9.18595e-06
4.23738e-05
-9.23868e-06
4.7006e-05
-9.2199e-06
5.1541e-05
-9.01782e-06
5.58439e-05
-8.54181e-06
5.973e-05
-7.69287e-06
6.2959e-05
-6.34026e-06
6.52059e-05
-4.28768e-06
6.64723e-05
-1.37457e-06
6.6998e-05
3.0043e-06
6.6101e-05
9.95389e-06
6.11405e-05
2.11341e-05
4.79606e-05
3.58167e-05
2.61286e-05
4.4384e-05
5.97541e-06
2.92836e-05
-1.06453e-05
1.36893e-06
-3.88526e-06
6.53062e-06
-1.54464e-05
1.2696e-05
-1.8587e-05
1.8476e-05
-1.7466e-05
2.36406e-05
-1.55939e-05
2.84133e-05
-1.4351e-05
3.30471e-05
-1.38603e-05
3.76864e-05
-1.38253e-05
4.23675e-05
-1.39197e-05
4.70522e-05
-1.39046e-05
5.16535e-05
-1.36191e-05
5.60428e-05
-1.29311e-05
6.00464e-05
-1.16965e-05
6.34385e-05
-9.7324e-06
6.59452e-05
-6.79436e-06
6.71633e-05
-2.59265e-06
6.68574e-05
3.31018e-06
6.53183e-05
1.1493e-05
6.33745e-05
2.30778e-05
5.97534e-05
3.94378e-05
4.83691e-05
5.57683e-05
2.52899e-05
5.23666e-05
1.24876e-05
1.4922e-06
-5.37745e-06
6.68301e-06
-2.06372e-05
1.27815e-05
-2.46855e-05
1.84631e-05
-2.31476e-05
2.35565e-05
-2.06873e-05
2.83069e-05
-1.91013e-05
3.29619e-05
-1.85154e-05
3.76509e-05
-1.85143e-05
4.23989e-05
-1.86677e-05
4.71657e-05
-1.86714e-05
5.18689e-05
-1.83223e-05
5.63894e-05
-1.74515e-05
6.05678e-05
-1.5875e-05
6.41952e-05
-1.33598e-05
6.7001e-05
-9.60013e-06
6.86309e-05
-4.22253e-06
6.87138e-05
3.22727e-06
6.70077e-05
1.31991e-05
6.40301e-05
2.60555e-05
6.12035e-05
4.22643e-05
5.49424e-05
6.20294e-05
3.52081e-05
7.21014e-05
4.64626e-05
1.65658e-06
-7.03403e-06
6.88349e-06
-2.58641e-05
1.28882e-05
-3.06901e-05
1.84388e-05
-2.86983e-05
2.34436e-05
-2.56921e-05
2.8172e-05
-2.38297e-05
3.28589e-05
-2.32023e-05
3.76125e-05
-2.32678e-05
4.24446e-05
-2.34998e-05
4.73136e-05
-2.35405e-05
5.21444e-05
-2.31531e-05
5.68311e-05
-2.21382e-05
6.12329e-05
-2.02768e-05
6.51598e-05
-1.72867e-05
6.83547e-05
-1.27951e-05
7.04804e-05
-6.3482e-06
7.11758e-05
2.53186e-06
7.01103e-05
1.42646e-05
6.69584e-05
2.92073e-05
6.23868e-05
4.6836e-05
5.59915e-05
6.84247e-05
3.86224e-05
8.94706e-05
8.57349e-05
1.86019e-06
-8.89422e-06
7.11928e-06
-3.11232e-05
1.29988e-05
-3.65697e-05
1.839e-05
-3.40895e-05
2.32942e-05
-3.05963e-05
2.80026e-05
-2.85381e-05
3.27293e-05
-2.7929e-05
3.75559e-05
-2.80945e-05
4.2481e-05
-2.84249e-05
4.74635e-05
-2.8523e-05
5.24386e-05
-2.81282e-05
5.73186e-05
-2.70182e-05
6.1985e-05
-2.49432e-05
6.62673e-05
-2.1569e-05
6.99212e-05
-1.6449e-05
7.26134e-05
-9.04045e-06
7.39791e-05
1.1662e-06
7.36627e-05
1.45809e-05
7.11719e-05
3.16981e-05
6.58818e-05
5.21261e-05
5.77116e-05
7.6595e-05
4.07771e-05
0.000106405
0.000127486
2.09558e-06
-1.09898e-05
7.37454e-06
-3.64022e-05
1.30964e-05
-4.22915e-05
1.83065e-05
-3.92995e-05
2.3105e-05
-3.53948e-05
2.77974e-05
-3.32305e-05
3.25689e-05
-3.27005e-05
3.74719e-05
-3.29974e-05
4.24924e-05
-3.34454e-05
4.75926e-05
-3.36232e-05
5.27225e-05
-3.3258e-05
5.78163e-05
-3.21121e-05
6.27796e-05
-2.99065e-05
6.74612e-05
-2.62505e-05
7.16313e-05
-2.06191e-05
7.49664e-05
-1.23755e-05
7.70888e-05
-9.56284e-07
7.76066e-05
1.40632e-05
7.60445e-05
3.32602e-05
7.13631e-05
5.68075e-05
6.22679e-05
8.56901e-05
4.62925e-05
0.000122381
0.000172921
2.35024e-06
-1.334e-05
7.62654e-06
-4.16785e-05
1.31668e-05
-4.78318e-05
1.81884e-05
-4.43211e-05
2.28842e-05
-4.00906e-05
2.7566e-05
-3.79123e-05
3.23845e-05
-3.7519e-05
3.73625e-05
-3.79754e-05
4.24766e-05
-3.85595e-05
4.76961e-05
-3.88427e-05
5.29904e-05
-3.85523e-05
5.83178e-05
-3.74396e-05
6.36073e-05
-3.51959e-05
6.87281e-05
-3.13713e-05
7.34704e-05
-2.53614e-05
7.75159e-05
-1.6421e-05
8.04849e-05
-3.92529e-06
8.19622e-05
1.25859e-05
8.14902e-05
3.37322e-05
7.82126e-05
6.00851e-05
6.95462e-05
9.43566e-05
5.31266e-05
0.0001388
0.000226047
5.28408e-26
-7.16397e-26
7.10059e-27
-1.84267e-26
6.56091e-28
-1.28909e-27
2.14708e-29
-1.15056e-28
4.33437e-31
-4.12326e-30
1.28856e-32
-1.06603e-31
4.95955e-34
-2.54218e-33
2.33957e-35
-6.36456e-35
1.04112e-36
-1.39718e-36
3.91294e-38
-1.83683e-39
1.2868e-39
5.98611e-40
3.48232e-41
3.85294e-41
7.5716e-43
1.54492e-42
1.27601e-44
4.56086e-44
1.58939e-46
9.9413e-46
1.33857e-48
1.6161e-47
6.38755e-51
1.80985e-49
2.16113e-51
1.17933e-51
1.66568e-52
-2.67086e-25
-1.19435e-24
3.29086e-25
-3.16028e-24
7.25999e-26
-6.36342e-25
3.90051e-27
-6.39158e-26
7.72245e-29
-1.76581e-27
2.31213e-30
-3.82789e-29
8.06621e-32
-8.25669e-31
3.20725e-33
-1.78202e-32
1.25926e-34
-3.23981e-34
4.42306e-36
-1.39916e-36
1.38359e-37
2.40869e-37
3.58995e-39
1.54128e-38
7.49601e-41
5.9852e-40
1.21315e-42
1.69443e-41
1.43784e-44
3.56896e-43
1.1443e-46
5.49034e-45
5.22985e-49
5.82775e-47
1.14283e-51
3.66841e-49
1.52312e-51
-1.59847e-23
-5.65411e-23
5.88882e-23
-5.61703e-22
8.89974e-24
-1.18629e-22
3.51445e-25
-8.92857e-24
6.83003e-27
-2.22106e-25
2.09707e-28
-5.08992e-27
6.68701e-30
-1.10444e-28
2.13873e-31
-2.14958e-30
6.76007e-33
-3.3531e-32
2.00553e-34
-1.31913e-34
5.57744e-36
1.63013e-35
1.32457e-37
9.37995e-37
2.55666e-39
3.3243e-38
3.8435e-41
8.65891e-40
4.28088e-43
1.70031e-41
3.25706e-45
2.46046e-43
1.4825e-47
2.52698e-45
3.49316e-50
1.60486e-47
9.20461e-50
-9.46737e-22
-3.69261e-21
4.80055e-21
-7.11229e-20
5.36782e-22
-1.49715e-20
1.73468e-23
-8.75539e-22
3.80562e-25
-1.80272e-23
1.30017e-26
-4.44117e-25
3.92814e-28
-9.75234e-27
1.08737e-29
-2.0629e-28
2.96761e-31
-2.52759e-30
7.58663e-33
-7.82302e-33
1.83882e-34
8.18164e-34
3.91998e-36
4.08424e-35
6.9981e-38
1.31055e-36
1.0045e-39
3.16982e-38
1.1099e-41
5.97802e-40
8.616e-44
8.65294e-42
3.94399e-46
8.91869e-44
9.99151e-49
5.61001e-46
3.81654e-48
-1.61331e-19
-1.88031e-20
9.99914e-20
-6.58616e-18
1.58253e-20
-4.56842e-19
6.4585e-22
-4.20424e-20
1.53001e-23
-8.77982e-22
5.68357e-25
-1.96831e-23
1.60739e-26
-5.15645e-25
3.96585e-28
-5.93892e-27
9.82216e-30
-8.42561e-29
2.36493e-31
-3.50626e-31
5.26711e-33
3.13917e-32
1.03535e-34
1.43562e-33
1.76506e-36
4.29291e-35
2.50145e-38
1.00094e-36
2.74979e-40
1.85846e-38
2.13229e-42
2.65223e-40
9.81479e-45
2.73276e-42
2.56927e-47
1.73265e-44
1.22985e-46
-4.9177e-18
1.7413e-18
5.52551e-21
-1.31931e-17
1.40819e-19
-5.33609e-18
1.43477e-20
-5.71598e-19
4.09194e-22
-1.83356e-20
1.53407e-23
-5.08955e-22
4.31512e-25
-9.37327e-24
8.66081e-27
-1.45617e-25
2.21479e-28
-1.49068e-27
6.01055e-30
-4.20618e-30
1.33141e-31
9.16233e-31
2.54156e-33
4.18414e-32
4.26462e-35
1.23838e-33
5.92914e-37
2.85182e-35
6.43797e-39
5.19359e-37
4.98077e-41
7.35231e-39
3.66154e-43
7.58282e-41
6.06141e-46
4.99808e-43
3.2439e-45
-1.17737e-16
7.14863e-17
-7.14411e-18
1.92022e-16
1.16697e-18
3.70612e-17
1.32289e-19
-6.25051e-18
9.02341e-21
-3.60087e-19
1.21829e-21
-1.73416e-20
1.08764e-22
-1.41628e-21
2.80502e-24
-6.2746e-23
1.65609e-26
-6.78683e-25
1.03178e-28
-3.85133e-28
4.66154e-30
2.27738e-29
6.4291e-32
1.13685e-30
1.10257e-33
3.54763e-32
1.5401e-35
8.34713e-34
1.66228e-37
1.53208e-35
1.79938e-39
2.16719e-37
1.5086e-41
2.25403e-39
1.4494e-44
1.52742e-41
7.66967e-44
-5.25152e-15
5.22929e-15
-4.90474e-16
-6.86015e-15
4.07728e-18
-9.01683e-16
5.46605e-18
-5.12457e-17
7.92785e-19
1.27808e-18
1.02944e-19
3.62297e-19
5.97063e-21
-1.03082e-20
1.7132e-22
-1.36992e-21
2.41738e-24
-1.86028e-23
3.51522e-27
2.00178e-28
9.39848e-29
8.71832e-28
2.01199e-30
4.1211e-29
3.40158e-32
1.24896e-30
4.87729e-34
2.96004e-32
6.55989e-36
5.54331e-34
8.84698e-38
8.06962e-36
6.27435e-40
8.66474e-38
8.61652e-43
6.04458e-40
2.42415e-42
5.73602e-06
-1.90761e-05
1.70412e-05
-5.29836e-05
2.8169e-05
-5.89597e-05
3.81833e-05
-5.43354e-05
4.78662e-05
-4.97735e-05
5.7819e-05
-4.7865e-05
6.82165e-05
-4.79166e-05
7.903e-05
-4.87888e-05
9.02053e-05
-4.97348e-05
0.000101726
-5.03636e-05
0.000113611
-5.04369e-05
0.00012585
-4.96787e-05
0.00013839
-4.77354e-05
0.000151054
-4.40356e-05
0.000163467
-3.77748e-05
0.000174862
-2.78153e-05
0.000184464
-1.35274e-05
0.000191146
5.9038e-06
0.0001943
3.05778e-05
0.000193168
6.12169e-05
0.000186824
0.000100701
0.000183672
0.000141952
0.000216125
0.000193593
6.84261e-06
-2.59187e-05
1.79493e-05
-6.40904e-05
2.81724e-05
-6.91827e-05
3.74237e-05
-6.35867e-05
4.67837e-05
-5.91336e-05
5.67492e-05
-5.78305e-05
6.73241e-05
-5.84915e-05
7.84027e-05
-5.98675e-05
8.99601e-05
-6.12922e-05
0.000102078
-6.24818e-05
0.000114889
-6.32472e-05
0.000128475
-6.32654e-05
0.000142992
-6.22526e-05
0.000158516
-5.9559e-05
0.000174877
-5.4136e-05
0.000190854
-4.37924e-05
0.000205764
-2.8437e-05
0.000218924
-7.25462e-06
0.000228967
2.05343e-05
0.000235181
5.50032e-05
0.000241795
9.40868e-05
0.000252552
0.000131195
0.000190883
0.000277794
7.90841e-06
-3.38271e-05
1.86308e-05
-7.48128e-05
2.78437e-05
-7.83956e-05
3.63983e-05
-7.21413e-05
4.55182e-05
-6.82535e-05
5.54817e-05
-6.7794e-05
6.61322e-05
-6.91419e-05
7.73369e-05
-7.10722e-05
8.91457e-05
-7.3101e-05
0.000101732
-7.50679e-05
0.000115274
-7.6789e-05
0.000129901
-7.78929e-05
0.000146243
-7.85936e-05
0.00016494
-7.82559e-05
0.000186286
-7.54809e-05
0.000207959
-6.54648e-05
0.000228747
-4.9227e-05
0.00024643
-2.49387e-05
0.000263721
3.10128e-06
0.000275833
4.28914e-05
0.000287736
8.21836e-05
0.000298411
0.00012052
0.00016571
0.000323584
8.83805e-06
-4.26651e-05
1.89872e-05
-8.49619e-05
2.71974e-05
-8.66058e-05
3.51833e-05
-8.01272e-05
4.41177e-05
-7.71878e-05
5.40014e-05
-7.76776e-05
6.45576e-05
-7.9698e-05
7.56668e-05
-8.21812e-05
8.7437e-05
-8.48708e-05
0.000100013
-8.76437e-05
0.000113507
-9.02808e-05
0.000128191
-9.25745e-05
0.000145768
-9.61629e-05
0.000167057
-9.95372e-05
0.000192145
-0.000100521
0.000215986
-8.92797e-05
0.00023695
-6.81546e-05
0.000247161
-3.3804e-05
0.000253276
-3.57201e-06
0.000269895
1.85425e-05
0.00028335
4.53402e-05
0.000309345
9.45244e-05
0.000141106
0.000333945
9.61425e-06
-5.22794e-05
1.89945e-05
-9.43418e-05
2.62476e-05
-9.38584e-05
3.3775e-05
-8.76541e-05
4.24903e-05
-8.59025e-05
5.20989e-05
-8.72857e-05
6.22323e-05
-8.98304e-05
7.27821e-05
-9.27288e-05
8.38291e-05
-9.59136e-05
9.54283e-05
-9.9235e-05
0.000107719
-0.000102552
0.000121515
-0.000106332
0.00013961
-0.000114137
0.000156094
-0.00011498
0.000147434
-7.15332e-05
0.000102496
-1.98413e-05
5.78577e-05
-5.21896e-06
2.87955e-05
-1.32011e-06
1.91511e-05
-2.27033e-07
2.95237e-05
4.09214e-07
6.13057e-05
2.29916e-06
0.000123264
4.93637e-06
1.40188e-05
0.000205579
1.02728e-05
-6.25518e-05
1.86064e-05
-0.00010267
2.48985e-05
-0.000100145
3.19756e-05
-9.47264e-05
4.02626e-05
-9.41841e-05
4.91858e-05
-9.6202e-05
5.83264e-05
-9.89592e-05
6.75888e-05
-0.000101967
7.70748e-05
-0.000105355
8.69473e-05
-0.000109024
9.80494e-05
-0.000113443
0.000109257
-0.000116001
0.000102234
-8.15374e-05
4.73929e-05
-2.13472e-05
2.536e-05
-4.69341e-06
6.54779e-06
-8.76496e-07
1.65044e-06
-3.40336e-07
3.79928e-07
-8.65348e-08
1.33933e-07
-9.62128e-09
4.98756e-07
1.94512e-08
2.60335e-06
1.58159e-07
6.77413e-06
7.87403e-07
2.80712e-06
1.79633e-05
1.08306e-05
-7.33766e-05
1.76823e-05
-0.000109475
2.28585e-05
-0.000105276
2.93174e-05
-0.00010114
3.67627e-05
-0.000101576
4.44343e-05
-0.000103806
5.20261e-05
-0.000106438
5.96721e-05
-0.00010938
6.79985e-05
-0.000113257
7.54518e-05
-0.000108873
7.00215e-05
-7.38233e-05
3.90364e-05
-1.83965e-05
2.57717e-05
-3.86307e-06
5.36699e-06
-7.05418e-07
9.04513e-07
-1.51512e-07
2.3104e-07
-1.41891e-07
1.19407e-07
-2.64687e-07
6.28246e-08
-5.85112e-08
3.43494e-08
-9.58921e-09
3.03157e-08
1.30311e-09
1.72738e-07
8.2381e-09
9.02698e-07
6.27042e-08
3.17839e-07
3.39208e-06
1.1435e-05
-8.47329e-05
1.59971e-05
-0.000113651
1.96817e-05
-0.000108587
2.53371e-05
-0.0001064
3.18773e-05
-0.000107638
3.83618e-05
-0.000108211
4.40447e-05
-9.8197e-05
4.5768e-05
-7.64066e-05
3.99285e-05
-4.58466e-05
2.24392e-05
-8.36081e-06
2.26722e-05
-1.50288e-06
4.63819e-06
-2.67455e-07
8.47334e-07
-5.49815e-08
1.59322e-07
-1.41788e-08
4.27798e-08
-6.52864e-09
1.77354e-07
-1.88676e-07
3.18469e-07
-5.72444e-07
1.17492e-07
-1.71726e-07
2.53655e-08
-1.13158e-08
1.2971e-08
2.84003e-09
1.53635e-08
7.84618e-10
7.36138e-08
2.94713e-09
3.94295e-08
3.52648e-07
1.24452e-05
-8.0294e-05
1.24678e-05
-6.39398e-05
1.43794e-05
-5.98952e-05
1.77954e-05
-5.33955e-05
1.98985e-05
-4.23898e-05
1.91794e-05
-2.67913e-05
1.44925e-05
-2.29228e-06
8.36653e-06
-2.59409e-07
1.01757e-05
-3.62962e-08
1.8288e-06
-5.67833e-09
3.22857e-07
-1.82203e-09
6.42777e-08
-1.03315e-08
1.85613e-08
-8.79137e-09
1.01153e-08
-5.68848e-09
1.42657e-08
-4.66411e-09
4.15291e-07
-3.29607e-07
5.76508e-07
-6.19803e-07
1.9007e-07
-3.21531e-07
1.07572e-08
-8.35658e-09
5.19754e-09
2.78798e-09
3.62572e-09
2.25104e-10
6.32906e-09
1.0048e-10
3.55871e-09
4.25341e-08
5.53273e-06
1.56605e-24
2.45621e-06
-4.54538e-23
3.1744e-06
-6.10558e-21
3.01821e-06
-4.63006e-19
2.03635e-06
-2.69544e-17
2.59469e-06
-3.17734e-16
3.02402e-07
-1.37513e-15
4.29936e-08
-1.83846e-14
6.69933e-09
-5.31243e-13
1.01664e-09
-2.25694e-11
1.95572e-09
-1.96717e-09
5.07684e-09
-1.15582e-08
9.62654e-09
-1.17037e-08
9.74519e-09
-5.35181e-09
1.32529e-08
-8.16752e-09
4.81133e-07
-4.20142e-07
5.06633e-07
-5.31442e-07
1.52238e-07
-4.03412e-07
6.13929e-10
-3.29934e-09
7.16656e-10
5.18852e-10
5.74964e-10
-3.61654e-11
9.2647e-10
-3.396e-11
2.20887e-10
4.53047e-09
-1.75433e-25
1.20273e-23
1.41939e-24
-1.83241e-23
2.80612e-22
-2.32418e-21
2.89781e-20
-1.86362e-19
1.10597e-18
-1.07944e-17
3.66699e-17
-1.44493e-16
2.2731e-16
-3.96605e-16
3.17296e-15
-9.03064e-15
9.42122e-14
-6.03536e-13
2.18473e-11
-4.36028e-11
3.59571e-09
-5.58896e-09
1.24473e-08
-2.12901e-08
2.48481e-08
-4.30422e-08
2.78234e-08
-8.24249e-09
6.90074e-08
-4.76019e-09
4.3342e-07
-2.54422e-07
4.23801e-07
-4.07962e-07
3.08788e-08
-1.81221e-07
-1.40556e-10
-5.66957e-10
1.94956e-11
-6.29935e-11
-4.37758e-11
-3.64079e-11
1.74223e-10
-7.60668e-12
7.6555e-11
5.4474e-10
-5.52743e-25
2.65101e-23
5.99595e-24
-2.83411e-23
8.5294e-22
-3.54753e-21
6.11587e-20
-2.58434e-19
4.08241e-18
-1.60497e-17
1.14688e-16
-7.72409e-16
3.56611e-16
-8.85275e-16
2.66548e-14
-3.63231e-14
1.8347e-12
-2.40791e-12
1.56158e-10
-1.97875e-10
2.11822e-08
-2.63725e-08
1.08241e-07
-1.37666e-07
7.56058e-08
-1.39472e-07
4.75569e-08
-1.71318e-08
5.98656e-08
-5.25521e-09
3.39823e-07
-1.7896e-07
2.84437e-07
-2.3457e-07
1.22985e-09
-2.2115e-08
1.59556e-10
-1.02973e-10
9.65964e-11
-2.48709e-11
6.85509e-11
-8.08114e-12
6.933e-11
-1.07745e-11
-6.59069e-10
2.42768e-09
-1.35854e-24
5.19981e-23
2.40592e-23
-2.1466e-22
4.33134e-21
-2.68428e-20
4.13027e-19
-1.9426e-18
2.83659e-17
-1.08292e-16
5.16636e-16
-2.55239e-15
2.5045e-15
-4.47659e-15
1.41327e-13
-1.74904e-13
8.75758e-12
-1.10554e-11
7.56853e-10
-9.47144e-10
4.75293e-08
-1.30186e-07
8.53443e-08
-1.65556e-07
8.64781e-08
-1.30957e-07
6.03891e-08
-1.6373e-08
6.34319e-08
-2.87803e-09
2.06254e-07
-1.53043e-07
5.09738e-08
-1.21081e-07
1.08975e-10
-1.98595e-13
2.18696e-11
-1.03302e-11
7.18226e-12
-6.37155e-12
9.46097e-12
-7.64095e-12
1.46251e-11
-9.84291e-12
-7.8221e-10
3.44042e-09
-3.02288e-24
9.48927e-23
9.39836e-23
-1.01115e-21
1.59589e-20
-1.16485e-19
1.39003e-18
-7.38841e-18
6.13105e-17
-2.44503e-16
7.79053e-16
-2.8767e-15
7.35343e-15
-9.30913e-15
6.07517e-13
-3.58566e-13
3.71996e-11
-4.47769e-11
2.6327e-09
-3.5467e-09
2.83398e-08
-1.61233e-07
2.58658e-08
-1.51788e-07
2.2628e-08
-1.1715e-07
1.02527e-08
-2.47065e-08
1.60918e-08
-2.47164e-08
7.88088e-08
-4.18008e-08
-1.04387e-12
-6.90542e-14
-2.67387e-13
5.9914e-15
6.52454e-14
-9.2385e-13
1.33274e-12
-3.55155e-12
5.31893e-12
-8.76625e-12
3.95378e-11
-4.13773e-11
-1.2145e-10
1.02068e-09
-4.26368e-24
1.61544e-22
1.61812e-22
-2.70109e-21
2.57893e-20
-3.28887e-19
2.00619e-18
-2.11953e-17
5.04975e-17
-4.41114e-16
3.53572e-16
-2.40331e-15
7.49879e-15
-1.20158e-14
3.25315e-13
-4.55388e-13
2.03813e-11
-1.80198e-11
-3.95804e-10
-6.65654e-10
-9.95385e-09
-9.72312e-09
-2.40941e-08
-8.31253e-08
6.23677e-10
-1.30162e-07
-1.33281e-08
-6.4507e-08
-2.96413e-08
-6.06036e-08
-2.1525e-13
-2.10423e-08
-2.14146e-13
-9.02641e-16
-2.39311e-13
-5.58052e-14
-8.15312e-14
-9.1516e-13
1.66039e-13
-2.34987e-12
-9.05206e-14
-6.99634e-12
1.41926e-11
-2.6237e-11
-5.28524e-10
4.87066e-10
-3.87707e-24
2.62085e-22
1.11977e-22
-3.56112e-21
1.59448e-20
-5.19015e-19
8.89104e-19
-4.32477e-17
2.69177e-19
-7.31218e-16
-6.02624e-17
-2.34398e-15
4.09951e-15
-7.32745e-15
-4.14711e-13
-3.01848e-14
-2.68299e-11
-5.4894e-13
-1.9347e-11
-8.27713e-12
-9.71809e-09
-2.39167e-11
-6.58417e-09
-4.31092e-11
-4.56326e-08
-3.45284e-10
-7.11112e-08
-1.65181e-09
-9.42706e-08
-8.73828e-09
-2.94866e-13
-2.09256e-09
-2.57348e-13
-5.92079e-15
-3.60205e-13
-7.17337e-14
-2.97143e-13
-3.64006e-13
-2.36797e-13
-1.07393e-12
2.21501e-12
-5.60921e-12
2.67626e-11
-3.91614e-11
-5.06093e-10
1.03834e-10
-1.02719e-24
4.16993e-22
-7.26532e-23
-2.94663e-21
-5.7999e-20
-5.14963e-19
-1.06297e-17
-5.13718e-17
-7.75156e-17
-9.11435e-16
-3.82875e-16
-2.87493e-15
-1.3146e-15
-5.49142e-15
-8.66108e-15
-2.80198e-14
-2.25895e-13
-3.5773e-13
-2.88395e-12
-5.51952e-12
-1.03557e-11
-1.69289e-11
-3.70111e-11
-1.59945e-11
-3.66229e-10
-1.48288e-11
-2.0179e-09
-8.06283e-14
-9.94852e-10
-3.7506e-15
-6.88688e-14
-1.14328e-14
-9.93979e-14
-9.50778e-15
-9.11759e-14
-5.84376e-14
-4.76036e-14
-1.67736e-13
4.86245e-13
-7.31164e-13
4.90706e-12
-4.65814e-12
4.2669e-11
-3.43124e-11
-3.74606e-10
5.17569e-11
-4.37586e-23
7.09264e-22
-2.09599e-22
-2.17294e-21
-1.58666e-19
-2.93338e-19
-2.32719e-17
-4.02684e-17
-2.07953e-16
-7.65378e-16
-4.86541e-16
-2.45956e-15
-1.30504e-15
-4.41605e-15
-1.60639e-15
-2.49384e-14
-1.39935e-14
-3.35035e-13
-6.15661e-12
-6.80204e-12
-1.02779e-11
-3.51793e-11
-3.49226e-12
-3.30667e-11
-1.67932e-14
-1.82413e-11
-1.50511e-15
-9.48614e-14
-4.6088e-15
-3.29941e-16
-1.38103e-14
-1.85446e-15
-3.58316e-14
-8.50007e-15
-5.67583e-14
-3.12451e-14
1.29297e-14
-1.14875e-13
8.47991e-13
-6.69054e-13
6.5042e-12
-4.86225e-12
3.90426e-11
-3.74675e-11
-2.60749e-10
1.49785e-10
-5.66693e-23
1.09841e-21
-4.36707e-21
2.13746e-21
-2.17265e-19
-6.21581e-20
-1.92714e-17
-6.42821e-18
-1.69444e-16
-1.93478e-16
-4.20483e-16
-9.13652e-16
-1.103e-15
-2.48404e-15
-1.292e-14
-1.23268e-14
-1.59802e-13
-1.96593e-13
-1.99947e-11
-2.64303e-12
-2.58182e-11
-1.84426e-11
-1.77113e-11
-2.54723e-11
-8.23298e-13
-1.57629e-11
-1.92445e-15
-9.15257e-13
-1.98472e-15
-1.89979e-16
-4.29877e-15
-9.07013e-16
-1.54834e-14
-7.03609e-15
-2.96849e-14
-2.2781e-14
4.66579e-14
-9.02618e-14
4.78279e-13
-5.74577e-13
2.90528e-12
-4.19542e-12
1.73423e-11
-3.14209e-11
-2.14567e-10
8.5364e-11
5.50188e-23
1.2919e-21
-4.15012e-21
1.08762e-20
-6.65453e-20
2.37113e-22
-2.86805e-18
-2.11343e-19
-3.53041e-17
-1.25979e-17
-1.97583e-16
-1.79773e-16
-7.44943e-16
-1.93397e-15
-1.39899e-15
-1.30116e-14
-1.60971e-13
-3.12638e-14
-2.39483e-12
-6.2364e-14
-1.3678e-11
-1.60922e-14
-2.29475e-11
-2.90705e-15
-6.38685e-12
-1.30608e-16
-6.6397e-16
-6.25128e-17
-8.25968e-16
-8.07073e-17
-2.8636e-15
-6.0458e-16
-1.04869e-14
-3.51602e-15
-2.24471e-14
-1.31595e-14
-1.80423e-14
-6.1551e-14
-3.40383e-14
-4.25337e-13
-1.8183e-13
-3.22026e-12
-1.82567e-12
-2.42241e-11
-1.69028e-10
-1.2194e-11
3.32097e-22
9.02877e-22
1.49781e-23
9.79969e-21
-2.4618e-20
2.6023e-20
-1.68609e-19
-2.74874e-20
-2.49773e-18
-1.10547e-18
-7.38221e-17
-3.77682e-17
-1.94093e-15
-8.77495e-16
-7.677e-15
-8.18475e-15
-4.14768e-15
-2.01776e-14
-6.90585e-16
-2.38781e-14
-2.23562e-16
-1.62246e-14
-3.57036e-17
-3.08017e-15
-3.34176e-17
-1.22669e-16
-5.9715e-17
-2.84136e-17
-1.40969e-16
-2.56882e-17
-9.92129e-16
-9.53116e-17
-4.09622e-15
-7.25543e-16
-1.24515e-14
-4.10565e-15
-4.97314e-14
-2.48885e-14
-3.16825e-13
-1.84414e-13
-2.06629e-12
-1.43943e-12
-1.52636e-11
-1.09764e-11
-7.78943e-11
-1.03479e-10
3.32941e-22
3.01757e-22
1.81486e-21
3.18863e-21
-4.01341e-21
7.93088e-21
-2.03263e-20
-1.11746e-20
-6.60874e-19
-4.36388e-19
-2.12685e-17
-1.79771e-17
-6.12014e-16
-3.58285e-16
-6.11631e-15
-1.73809e-15
-8.50348e-15
-3.04981e-15
-5.82626e-15
-2.58536e-15
-2.10912e-15
-1.66498e-15
-1.10512e-16
-7.4044e-16
-2.64014e-17
-1.233e-16
-1.76369e-17
-3.3319e-17
-2.19809e-17
-1.21848e-17
-1.22167e-16
-1.05043e-17
-8.1963e-16
-9.4617e-17
-4.34287e-15
-7.13332e-16
-2.806e-14
-5.10475e-15
-2.11551e-13
-4.02752e-14
-1.58781e-12
-3.48031e-13
-1.20718e-11
-2.81304e-12
-2.03046e-11
-8.77875e-11
1.16041e-22
5.1492e-23
5.89852e-22
5.55917e-22
-1.63019e-21
1.57014e-21
-1.17089e-20
-1.09583e-21
-3.92952e-19
-4.06099e-20
-1.38001e-17
-1.30436e-18
-1.88977e-16
-4.73438e-17
-7.32366e-16
-6.4103e-16
-1.1513e-15
-1.9014e-15
-1.07852e-15
-2.38822e-15
-6.52615e-16
-1.94478e-15
-1.69272e-16
-1.06578e-15
-4.32581e-17
-1.78234e-16
-9.89915e-18
-1.62971e-17
-4.70539e-18
-1.08186e-18
-1.48505e-17
-1.08803e-18
-1.11542e-16
-8.90617e-18
-8.24905e-16
-8.09667e-17
-5.84674e-15
-6.55914e-16
-5.28177e-14
-5.20602e-15
-4.44183e-13
-4.85076e-14
-3.53829e-12
-4.45577e-13
-3.31004e-12
-2.55797e-11
2.11198e-23
-4.68619e-29
1.21595e-22
-8.15168e-27
-1.35394e-22
-6.91674e-25
-1.19075e-21
-4.04705e-23
-3.90316e-20
-1.41863e-21
-1.23777e-18
-4.66965e-20
-3.82124e-17
-1.31664e-18
-3.90703e-16
-4.68765e-17
-9.0265e-16
-4.33337e-16
-1.01833e-15
-9.7868e-16
-8.47133e-16
-9.67917e-16
-2.15518e-16
-5.88688e-16
-2.33977e-17
-1.64035e-16
-8.47215e-19
-1.51494e-17
-3.24071e-19
-4.31998e-19
-1.72386e-18
3.11767e-19
-1.18755e-17
-7.89017e-19
-1.02606e-16
-6.5609e-18
-8.22959e-16
-5.93862e-17
-6.17122e-15
-4.90694e-16
-5.91694e-14
-3.95309e-15
-5.39085e-13
-4.03585e-14
-3.41271e-13
-4.05494e-12
-4.67722e-29
-8.96825e-32
-8.18248e-27
-1.59739e-29
-6.98464e-25
-1.39285e-27
-4.1068e-23
-4.80572e-26
-1.45685e-21
-1.7589e-24
-4.80135e-20
-5.976e-23
-1.35603e-18
-1.69119e-21
-3.88207e-17
-5.70587e-20
-2.27428e-16
-1.08112e-18
-3.15035e-16
-4.03674e-18
-2.76102e-16
-5.80136e-18
-1.46298e-16
-5.18021e-18
-2.12483e-17
-1.23016e-18
-6.02751e-19
5.24207e-20
3.00452e-19
3.23165e-19
-7.50593e-19
3.99654e-19
-1.74386e-18
2.04246e-19
-9.30205e-18
-4.56893e-19
-8.6586e-17
-4.30319e-18
-6.92924e-16
-3.83568e-17
-4.81548e-15
-3.01393e-16
-4.82314e-14
-2.32032e-15
-2.2023e-14
-4.2153e-13
-8.90342e-32
-3.08858e-34
-1.59515e-29
-5.71312e-32
-1.39933e-27
-5.17273e-30
-5.00675e-26
-1.84006e-28
-1.79569e-24
-7.11004e-27
-6.08806e-23
-2.53043e-25
-1.75229e-21
-7.44867e-24
-5.62941e-20
-2.2008e-22
-5.94483e-19
-6.15941e-21
-1.43212e-18
-3.69169e-20
-1.57522e-18
-8.56877e-20
-7.48759e-19
-1.08122e-19
3.92569e-20
-7.29536e-20
2.73197e-19
2.32549e-20
3.7927e-19
8.58345e-20
2.16926e-19
1.2436e-19
-5.63447e-19
1.11537e-19
-1.03929e-18
1.89534e-20
-6.27281e-18
-2.49438e-19
-6.33241e-17
-2.47369e-18
-5.42014e-16
-2.04728e-17
-3.89227e-15
-1.44694e-16
-9.75222e-16
-2.93452e-14
-3.09533e-34
6.75201e-37
-5.71881e-32
-6.70488e-35
-5.2043e-30
-1.44994e-32
-1.92706e-28
-5.6787e-31
-7.27592e-27
-2.15253e-29
-2.58525e-25
-7.74933e-28
-7.66188e-24
-2.38795e-26
-2.11403e-22
-6.34158e-25
-3.75275e-21
-1.94832e-23
-1.70373e-20
-4.07683e-22
-3.13012e-20
-1.76419e-21
-3.21527e-20
-2.54629e-21
1.70655e-20
2.25165e-22
7.1269e-20
5.39198e-21
1.16525e-19
1.43731e-20
1.17918e-19
2.27671e-20
2.26712e-20
2.43427e-20
-3.66835e-19
1.41065e-20
-5.98355e-19
-1.82556e-20
-4.24359e-18
-1.28591e-19
-4.46849e-17
-1.14728e-18
-3.22224e-16
-8.32946e-18
-4.7087e-17
-1.47692e-15
-6.85237e-37
5.37015e-36
-4.01324e-34
3.3268e-34
-2.43309e-32
9.28291e-33
-7.63992e-31
1.53423e-31
-2.38659e-29
1.57655e-30
-7.993e-28
8.85753e-30
-2.41551e-26
1.58267e-29
-6.44425e-25
-6.47691e-27
-2.14982e-23
4.16928e-26
-3.01641e-22
1.29266e-24
-6.95026e-22
1.26414e-23
1.42332e-22
6.79115e-23
3.87414e-21
2.45629e-22
1.1715e-20
6.65464e-22
2.10457e-20
1.41575e-21
2.55736e-20
2.36509e-21
1.69322e-20
2.9426e-21
-1.89158e-20
2.31244e-21
-3.72482e-20
7.6901e-23
-2.29889e-19
-5.40086e-21
-2.7092e-18
-5.47312e-20
-2.02232e-17
-4.17348e-19
-2.38721e-18
-8.91331e-17
1.26907e-35
4.78453e-36
7.17614e-34
3.5729e-34
1.80171e-32
1.2643e-32
2.50759e-31
2.85853e-31
1.79517e-30
4.6269e-30
3.93766e-30
5.69732e-29
-4.22289e-28
5.54e-28
1.46309e-26
4.36385e-27
5.27756e-25
2.83766e-26
5.95271e-24
1.54643e-25
3.66551e-23
7.15072e-25
1.51318e-22
2.83153e-24
4.66725e-22
9.63953e-24
1.12967e-21
2.80797e-23
2.15007e-21
6.87642e-23
3.05942e-21
1.36486e-22
2.77044e-21
2.05136e-22
1.07441e-22
2.02481e-22
-9.42177e-21
6.85546e-23
-1.42848e-20
-3.16751e-22
-1.35413e-19
-2.36239e-21
-1.08547e-18
-1.91222e-20
-1.15462e-19
-4.58298e-18
1.32294e-35
4.0662e-38
9.48593e-34
2.88694e-36
3.25737e-32
9.83274e-35
7.13927e-31
2.17353e-33
1.11969e-29
3.50677e-32
1.33596e-28
4.40503e-31
1.25985e-27
4.48782e-30
9.64303e-27
3.81401e-29
6.11231e-26
2.75838e-28
3.25986e-25
1.7212e-27
1.48023e-24
9.34281e-27
5.75741e-24
4.42262e-26
1.91292e-23
1.81871e-25
5.34495e-23
6.42301e-25
1.21369e-22
1.90668e-24
2.09831e-22
4.58792e-24
2.40395e-22
8.40565e-24
9.5858e-23
1.03501e-23
-3.93947e-22
5.53009e-24
-6.89642e-22
-1.36946e-23
-6.03831e-21
-9.12761e-23
-5.27725e-20
-7.90452e-22
-4.99213e-21
-2.27471e-19
1.02713e-37
6.40245e-41
7.09165e-36
5.1593e-39
2.38084e-34
2.00499e-37
5.2011e-33
5.09351e-36
8.32005e-32
9.52062e-35
1.03989e-30
1.39741e-33
1.05786e-29
1.67782e-32
9.0047e-29
1.69389e-31
6.53576e-28
1.46524e-30
4.09306e-27
1.09926e-29
2.22335e-26
7.19919e-29
1.04592e-25
4.12018e-28
4.22139e-25
2.05104e-27
1.43382e-24
8.78017e-27
3.9621e-24
3.16694e-26
8.39238e-24
9.30008e-26
1.20734e-23
2.09453e-25
7.65849e-24
3.2097e-25
-1.44539e-23
2.26304e-25
-2.74826e-23
-4.84938e-25
-2.36764e-22
-3.15751e-24
-2.28726e-21
-2.94339e-23
-1.94753e-22
-1.02766e-20
1.74524e-40
9.51408e-44
1.37574e-38
8.38e-42
5.30875e-37
3.59205e-40
1.34368e-35
1.01729e-38
2.51159e-34
2.1439e-37
3.69944e-33
3.58875e-36
4.4708e-32
4.96828e-35
4.55228e-31
5.84055e-34
3.97372e-30
5.93106e-33
3.00411e-29
5.25616e-32
1.97464e-28
4.08301e-31
1.12599e-27
2.77769e-30
5.51919e-27
1.64441e-29
2.28376e-26
8.36346e-29
7.72837e-26
3.57602e-28
2.02139e-25
1.2406e-27
3.63969e-25
3.28504e-27
3.07045e-25
5.87167e-27
-4.63837e-25
4.67207e-27
-9.32596e-25
-1.4535e-26
-8.16069e-24
-9.71108e-26
-8.80826e-23
-9.84933e-25
-6.97333e-24
-4.37736e-22
2.66495e-43
2.85244e-47
2.31836e-41
3.12225e-45
9.97462e-40
1.67976e-43
2.84676e-38
6.02473e-42
6.06895e-37
1.61781e-40
1.03079e-35
3.45848e-39
1.45073e-34
6.10323e-38
1.73458e-33
9.09291e-37
1.7893e-32
1.15971e-35
1.6055e-31
1.27622e-34
1.25562e-30
1.21558e-33
8.52621e-30
1.00082e-32
4.97432e-29
7.07887e-32
2.4459e-28
4.24906e-31
9.80905e-28
2.11959e-30
3.02833e-27
8.4851e-30
6.39317e-27
2.56243e-29
6.12614e-27
5.10861e-29
-1.29202e-26
3.58423e-29
-2.6597e-26
-3.68473e-28
-2.45023e-25
-2.6679e-27
-2.99628e-24
-2.97537e-26
-2.2796e-25
-1.7472e-23
9.2164e-47
2.5157e-51
1.00651e-44
3.84995e-49
5.48464e-43
2.83229e-47
1.99459e-41
1.35905e-45
5.43079e-40
4.77815e-44
1.1759e-38
1.3102e-42
2.09775e-37
2.91061e-41
3.15101e-36
5.36843e-40
4.03809e-35
8.35367e-39
4.44568e-34
1.10748e-37
4.21176e-33
1.25687e-36
3.42136e-32
1.22103e-35
2.35976e-31
1.01014e-34
1.35665e-30
7.03366e-34
6.29561e-30
4.03646e-33
2.2245e-29
1.83966e-32
5.26211e-29
6.17726e-32
4.47179e-29
1.18922e-31
-3.12625e-28
-1.97413e-31
-6.60741e-28
-8.21798e-30
-6.4368e-27
-6.50574e-29
-9.04173e-26
-8.07497e-28
-6.79013e-27
-5.54682e-25
1.03796e-50
1.02569e-56
1.55044e-48
1.86686e-54
1.13045e-46
1.62623e-52
5.3829e-45
9.21076e-51
1.88007e-43
3.81147e-49
5.12499e-42
1.22654e-47
1.13205e-40
3.18799e-46
2.07521e-39
6.85701e-45
3.20522e-38
1.23961e-43
4.20713e-37
1.90048e-42
4.70716e-36
2.47845e-41
4.47769e-35
2.73806e-40
3.5881e-34
2.52043e-39
2.37782e-33
1.84004e-38
1.25937e-32
8.71943e-38
4.96317e-32
-1.71338e-37
1.13819e-31
-1.17571e-35
-2.30027e-31
-2.46693e-34
-2.39875e-30
-9.33846e-33
-1.13153e-29
-1.41458e-31
-1.46682e-28
-1.38333e-30
-2.40176e-27
-1.94344e-29
-1.82435e-28
-1.57461e-26
4.49201e-56
-1.00737e-66
7.96242e-54
-4.79141e-64
6.85801e-52
-1.09976e-61
3.84496e-50
-1.67041e-59
1.57634e-48
-1.89371e-57
5.02841e-47
-1.71069e-55
1.29547e-45
-1.28319e-53
2.75963e-44
-8.222e-52
4.9309e-43
-4.59382e-50
7.44136e-42
-2.27326e-48
9.47507e-41
-1.00848e-46
1.00393e-39
-4.04934e-45
8.44617e-39
-1.48279e-43
4.62988e-38
-4.98121e-42
-1.05955e-37
-1.54205e-40
-6.00211e-36
-8.44583e-39
-1.76624e-35
-2.246e-37
-3.44908e-34
-4.32911e-36
-9.58699e-33
-1.16595e-34
-1.66103e-31
-1.89009e-33
-2.83701e-30
-2.53369e-32
-5.52198e-29
-4.12355e-31
-4.50543e-30
-4.07769e-28
-1.00679e-66
-5.85478e-70
-4.79798e-64
-3.49908e-67
-1.10357e-61
-9.89364e-65
-1.67961e-59
-1.83893e-62
-1.90796e-57
-2.54442e-60
-1.72697e-55
-2.80093e-58
-1.2979e-53
-2.55746e-56
-8.33186e-52
-1.99303e-54
-4.66361e-50
-1.35343e-52
-2.31176e-48
-8.13599e-51
-1.02722e-46
-4.38316e-49
-4.13069e-45
-2.13693e-47
-1.5146e-43
-9.50089e-46
-5.09391e-42
-3.87541e-44
-1.57224e-40
-1.4568e-42
-8.66599e-39
-4.94307e-41
-2.37708e-37
-1.56672e-39