/*--------------------------------*- C++ -*----------------------------------*\
| =========                 |                                                 |
| \\      /  F ield         | OpenFOAM: The Open Source CFD Toolbox           |
|  \\    /   O peration     | Version:  2206                                  |
|   \\  /    A nd           | Website:  www.openfoam.com                      |
|    \\/     M anipulation  |                                                 |
\*---------------------------------------------------------------------------*/
FoamFile
{
    version     2.0;
    format      ascii;
    arch        "LSB;label=32;scalar=64";
    class       volScalarField;
    location    "0.225";
    object      alpha.water;
}
// * * * * * * * * * * * * * * * * * * * * * * * * * * * * * * * * * * * * * //

dimensions      [0 0 0 0 0 0 0];

internalField   nonuniform List<scalar> 
2268
(
0.999999
0.999999
1
1
1
1
1
1
1
1
0.999999
0.999999
1
1
1
1
1
1
1
1
0.991021
0.800354
0.776967
0.999999
1
1
1
1
1
1
1
1
0.999999
0.999999
0.999999
1
1
1
1
1
1
1
1
0.99957
0.984462
0.848265
1
1
1
1
1
1
1
1
1
1
1
1
1
1
1
1
1
1
1
1
1
0.999963
0.924652
1
1
1
1
1
1
1
1
1
1
1
1
1
1
1
1
1
1
1
1
1
0.999996
0.926307
1
1
1
1
1
1
1
1
1
1
1
1
1
1
1
1
1
1
1
1
1
0.999999
0.940677
1
1
1
1
1
1
1
1
1
1
1
1
1
1
1
1
1
1
1
1
1
1
0.972015
1
1
1
1
1
1
1
1
1
1
1
1
1
1
1
1
1
1
1
1
1
1
0.996258
1
1
1
1
1
1
1
1
1
1
1
1
1
1
1
1
1
1
1
1
1
1
1
3.2637e-20
6.48728e-21
9.87173e-22
5.14755e-23
9.33582e-25
1.38971e-26
4.34216e-28
2.49239e-29
1.3727e-30
6.11694e-32
2.26755e-33
7.11439e-35
1.87167e-36
4.02318e-38
6.84645e-40
8.76231e-42
7.62914e-44
3.45176e-46
1.71773e-46
5.21458e-19
5.5752e-19
1.35843e-19
9.32758e-21
1.78811e-22
2.53146e-24
6.28867e-26
2.99471e-27
1.49828e-28
6.31268e-30
2.23094e-31
6.61122e-33
1.63011e-34
3.24881e-36
5.01084e-38
5.54462e-40
3.94286e-42
1.21231e-44
1.72554e-46
2.15162e-17
4.35163e-17
1.20926e-17
8.08798e-19
1.53762e-20
2.43441e-22
5.39601e-24
1.81121e-25
7.21654e-27
2.63844e-28
8.44783e-30
2.30062e-31
5.20857e-33
9.40638e-35
1.30884e-36
1.28173e-38
8.53785e-41
2.95862e-43
6.8701e-45
1.25588e-15
4.00993e-15
9.46839e-16
4.95955e-17
9.06683e-19
1.81511e-20
3.92114e-22
9.17886e-24
2.76049e-25
8.38435e-27
2.31895e-28
5.58541e-30
1.14228e-31
1.90983e-33
2.58918e-35
2.7275e-37
1.90717e-39
5.07035e-42
2.48993e-43
5.14654e-14
2.09996e-13
3.99782e-14
2.22154e-15
4.25172e-17
9.85295e-19
2.03919e-20
3.44302e-22
7.45156e-24
2.02867e-25
5.018e-27
1.05359e-28
1.97215e-30
3.28799e-32
4.58388e-34
4.7989e-36
3.2e-38
5.1088e-41
6.47933e-42
8.10964e-13
3.09608e-12
4.85007e-13
3.93903e-14
1.03371e-15
2.24767e-17
3.40201e-19
1.33752e-21
5.4657e-23
3.72418e-24
1.16076e-25
2.25072e-27
3.81947e-29
5.74001e-31
7.13896e-33
6.62522e-35
3.73304e-37
7.82199e-40
1.27515e-40
5.50322e-12
5.08014e-12
2.75794e-12
2.00511e-13
7.80872e-15
2.01419e-16
7.14171e-19
1.3423e-20
2.8152e-22
8.61951e-24
2.64148e-24
6.93362e-26
1.13897e-27
1.56866e-29
1.58868e-31
1.02354e-33
3.48355e-36
8.25117e-39
1.63326e-39
5.82634e-12
1.99724e-11
4.43254e-12
3.26815e-13
1.85863e-14
9.60029e-16
3.17382e-17
6.19167e-19
1.1139e-20
2.62668e-22
1.71294e-23
8.72844e-25
1.66207e-26
2.43852e-28
2.49963e-30
1.55203e-32
6.41594e-35
1.6133e-37
1.37004e-38
1
1
1
1
1
1
1
1
1
1
1
1
1
1
1
1
1
0.999999
1
1
1
1
1
1
1
1
1
1
1
1
1
1
1
1
1
1
1
0.999998
0.999998
0.999999
0.999995
1
1
1
1
1
1
1
1
1
1
1
1
1
1
1
0.999999
0.999998
0.999997
0.999982
0.999959
0.999936
0.999939
0.99997
0.999577
0.999999
1
1
0.999991
1
1
1
1
1
1
0.999999
0.999999
0.999998
0.999996
0.999988
0.999968
0.99991
0.999749
0.999254
0.998736
0.984494
0.940623
0.876116
0.889797
0.944543
0.999991
0.999978
1
0.999998
0.999997
0.999998
0.999997
0.999996
0.999993
0.999987
0.999973
0.999942
0.999863
0.999633
0.998887
0.995612
0.900039
0.700358
0.432416
0.219493
0.0572436
0.0711759
0.126387
0.229827
0.41072
0.999998
0.999974
0.999975
0.999976
0.999969
0.999956
0.999929
0.999864
0.999723
0.99941
0.998592
0.994878
0.908427
0.603418
0.142798
0.00101796
0.000476897
0.000231
0.00011974
8.18443e-05
0.000248722
0.00113788
0.00343602
0.999968
0.999767
0.999781
0.999773
0.999705
0.999576
0.999329
0.998736
0.997455
0.982434
0.881827
0.597748
0.171625
0.000467497
0.000132502
0.000372803
0.000231398
0.00012028
9.86682e-05
7.80578e-05
3.7017e-05
8.22068e-05
0.000412465
0.999585
0.998095
0.998192
0.998019
0.997394
0.994342
0.971166
0.896923
0.736649
0.453123
0.151966
0.000162153
4.65647e-05
3.0465e-05
3.63087e-05
0.000135166
0.00140904
0.00107626
0.000188019
4.17017e-05
1.97984e-05
1.08441e-05
5.03362e-05
0.964005
0.836059
0.833417
0.794738
0.710885
0.581032
0.389752
0.205436
0.0415904
2.9399e-06
3.01569e-06
1.03064e-05
2.32276e-05
2.93281e-05
3.17974e-05
0.00179295
0.00336383
0.00312018
0.000345299
2.03739e-05
8.69029e-06
2.64643e-06
6.31236e-06
0.348192
0.147413
0.137848
0.102094
0.0512782
0.00141372
-9.1187e-11
-5.48949e-13
-4.12667e-09
2.09936e-08
3.04191e-06
5.82001e-06
1.14227e-05
2.32333e-05
2.93548e-05
0.00301446
0.00336383
0.0033079
0.000307582
8.89256e-06
2.35573e-06
8.79499e-07
1.64911e-06
-1.35883e-20
-1.15318e-56
2.43199e-20
3.28759e-18
2.46502e-16
2.3182e-13
3.15477e-13
1.20785e-12
1.07917e-11
-6.85501e-10
-9.40251e-08
5.23301e-06
4.47494e-05
2.93553e-05
3.18043e-05
0.00268728
0.00336383
0.00211388
6.24276e-05
2.09847e-06
3.44333e-07
5.90052e-07
1.12381e-06
-9.3846e-20
4.58179e-21
5.37629e-19
2.08217e-17
2.02308e-15
7.04227e-13
9.12639e-13
2.79271e-13
-7.42904e-12
5.68397e-10
-2.11663e-07
0.000226768
0.000622268
0.000131342
5.91896e-05
0.00183218
0.00334761
0.000953131
2.75144e-06
1.44536e-07
6.18027e-08
1.02131e-07
1.26905e-05
-1.97762e-19
3.39768e-19
4.67876e-17
3.39127e-15
2.45223e-13
7.46501e-12
3.55957e-12
4.45594e-12
-4.34196e-11
2.41884e-09
0.000183463
0.000684408
0.000684408
0.000240484
0.00032046
0.00238057
0.00208571
0.000110448
1.09049e-08
2.88793e-08
4.93428e-08
1.44696e-07
2.18368e-05
-3.6899e-19
3.02238e-18
3.63066e-16
2.36441e-14
9.39805e-13
1.34729e-11
3.18855e-11
4.11047e-11
3.87582e-10
2.11566e-08
0.000640854
0.000681898
0.000683873
0.000260675
0.000279539
0.00237368
0.000701222
2.83925e-09
4.57449e-09
3.59654e-08
5.11881e-08
5.31111e-08
1.04658e-05
-6.36384e-19
1.00586e-17
1.19282e-15
7.23711e-14
1.77034e-12
1.39991e-11
3.25431e-11
9.80583e-10
3.67924e-08
4.09698e-06
0.000233907
0.000612517
0.000681355
0.000388257
0.000879881
0.00092854
4.02346e-10
2.49e-09
1.68952e-08
2.84622e-08
8.87912e-08
2.98874e-07
2.81901e-07
-1.03679e-18
1.78103e-17
2.28718e-15
1.68246e-13
3.00704e-12
1.15231e-11
2.90239e-11
5.51826e-11
1.23373e-08
9.28359e-07
1.60333e-08
7.22906e-06
0.00017336
0.000704024
0.0007559
0.000344936
2.23697e-10
2.11504e-09
1.08729e-08
1.57992e-08
3.51749e-08
4.40572e-08
1.46587e-07
-1.64264e-18
1.77459e-17
2.55697e-15
2.5498e-13
4.42e-12
1.22139e-11
2.9983e-11
3.99242e-11
1.09463e-10
6.132e-10
4.00716e-09
1.60333e-08
7.54353e-09
5.44443e-11
7.17159e-13
2.8714e-07
1.93662e-10
1.00442e-09
1.85964e-09
4.86625e-09
1.95653e-08
4.43853e-08
2.19549e-07
-2.60333e-18
4.17113e-18
1.09464e-15
2.74757e-13
5.12427e-12
1.53064e-11
1.96603e-11
2.86722e-11
1.23463e-10
1.52434e-08
6.36203e-08
5.76686e-08
5.44444e-11
5.9777e-12
2.94883e-12
6.87367e-12
1.29926e-10
5.29328e-10
9.43765e-10
3.12628e-09
1.58763e-08
1.08747e-07
2.55578e-07
-4.47204e-18
0
1.2473e-16
1.43068e-13
3.27187e-12
1.06596e-11
1.61225e-11
2.20887e-11
1.28869e-10
3.54984e-08
1.8384e-07
1.8384e-07
1.09852e-07
2.07644e-12
1.43683e-12
5.16932e-12
7.7215e-11
2.03966e-10
5.32861e-10
2.25276e-09
1.20405e-08
7.78301e-08
4.64985e-07
-7.06389e-18
-1.34249e-17
0
1.41511e-14
5.90718e-13
3.07758e-12
1.06341e-11
3.23832e-11
6.37335e-11
3.77467e-09
1.02225e-07
1.75146e-07
1.06689e-07
6.43892e-10
6.22923e-13
5.61567e-12
5.25266e-11
1.31989e-10
3.16717e-10
1.30225e-09
6.94104e-09
4.67104e-08
2.86145e-07
-8.53314e-18
-7.03544e-17
-1.52302e-18
5.69213e-17
2.7849e-14
4.70299e-13
9.90574e-12
7.5422e-11
1.25903e-10
3.96605e-11
1.37488e-12
3.22127e-13
2.63566e-13
2.22059e-13
2.19726e-13
2.89345e-12
1.73605e-11
5.16276e-11
1.44378e-10
6.51027e-10
3.67714e-09
2.61392e-08
1.74186e-07
-6.15552e-18
-6.556e-17
-1.73396e-16
-6.48002e-27
3.06977e-16
8.345e-14
3.40319e-12
3.70397e-11
1.22615e-10
1.29476e-10
7.47498e-11
1.3069e-11
6.63513e-13
2.10414e-13
1.2774e-13
1.87221e-13
2.12606e-12
9.93687e-12
3.92034e-11
2.14566e-10
1.28969e-09
9.54374e-09
6.76897e-08
-2.13107e-18
-2.21296e-17
-5.49545e-17
-5.03963e-28
1.55925e-16
5.58164e-14
1.47007e-12
7.66851e-12
1.61912e-11
1.95435e-11
1.24559e-11
5.7554e-12
1.21177e-12
2.92184e-13
6.84763e-14
9.28155e-15
1.63256e-13
1.27106e-12
7.13594e-12
4.24039e-11
2.41009e-10
1.74209e-09
1.18769e-08
-3.77631e-19
-4.01097e-18
-1.13325e-17
-3.90117e-30
7.00228e-18
5.23744e-16
1.29571e-13
2.81273e-12
1.09072e-11
1.5907e-11
1.58884e-11
8.8893e-12
1.53516e-12
1.43423e-13
5.44828e-15
0
5.59252e-15
1.0631e-13
9.32759e-13
5.71166e-12
3.18633e-11
1.83212e-10
1.27426e-09
0
0
-1.51787e-33
1.78213e-22
5.13784e-21
4.6539e-19
6.17644e-16
1.54023e-13
1.79299e-12
4.5295e-12
5.05679e-12
3.05701e-12
1.27323e-12
1.40581e-13
1.71045e-15
-3.43749e-15
8.76589e-32
3.25763e-15
7.6159e-14
7.76989e-13
4.40953e-12
2.0842e-11
1.21837e-10
7.26665e-31
1.32328e-28
1.19877e-26
-2.34341e-24
2.57111e-23
2.22859e-21
1.9796e-19
1.38729e-16
4.04674e-15
1.60398e-14
2.41887e-14
2.32502e-14
5.82383e-15
-5.41685e-16
-3.53209e-15
-4.62766e-15
-2.50837e-15
4.92663e-32
2.55033e-15
6.31258e-14
6.91648e-13
3.7961e-12
1.03019e-11
0
7.47933e-32
2.38916e-29
-1.10992e-26
8.0448e-26
6.74635e-24
2.60071e-22
3.27414e-19
2.37993e-17
1.5982e-16
3.92955e-16
5.22081e-16
3.6771e-16
-2.53052e-16
-9.87922e-16
-1.51958e-15
-1.45243e-15
-2.64276e-16
-6.16195e-32
3.27899e-15
5.86582e-14
3.54076e-13
8.40508e-13
-5.818e-33
-5.49339e-34
-2.69687e-31
-5.36877e-29
-1.82221e-41
-3.11161e-32
6.52859e-25
7.05944e-23
4.88542e-20
1.81217e-18
8.39943e-18
1.2416e-17
-2.45151e-18
-6.18371e-17
-1.74555e-16
-2.94397e-16
-3.37184e-16
-2.10939e-16
-2.00249e-32
1.10889e-16
3.49054e-15
2.26278e-14
5.40336e-14
-4.81746e-32
-2.94317e-30
-8.25602e-29
-1.37482e-27
-1.42769e-26
-8.13293e-26
-1.4789e-25
6.84635e-24
-4.08639e-22
-1.30687e-20
-1.32522e-19
-7.42281e-19
-2.81507e-18
-8.04341e-18
-1.81582e-17
-3.24085e-17
-4.34216e-17
-3.71256e-17
-1.36217e-18
-7.40466e-30
1.67067e-16
1.25048e-15
2.72799e-15
-4.4648e-32
-3.28831e-30
-1.17037e-28
-2.66813e-27
-4.36838e-26
-5.45947e-25
-5.40841e-24
-4.35804e-23
-2.91194e-22
-1.63855e-21
-7.8642e-21
-3.25019e-20
-1.16164e-19
-3.57489e-19
-9.31285e-19
-1.98205e-18
-3.22523e-18
-3.48894e-18
-1.31688e-18
-1.79375e-31
7.10633e-18
6.15626e-17
1.41962e-16
-3.94248e-34
-2.76069e-32
-9.46164e-31
-2.11019e-29
-3.44641e-28
-4.3978e-27
-4.56888e-26
-3.97596e-25
-2.9577e-24
-1.9076e-23
-1.07591e-22
-5.3221e-22
-2.30115e-21
-8.60264e-21
-2.72394e-20
-7.05446e-20
-1.40655e-19
-1.91153e-19
-1.149e-19
-1.36486e-37
2.65912e-19
2.68243e-18
7.06411e-18
-6.43994e-37
-5.11845e-35
-2.00229e-33
-5.13496e-32
-9.72245e-31
-1.45076e-29
-1.77773e-28
-1.83942e-27
-1.63816e-26
-1.27159e-25
-8.66288e-25
-5.18767e-24
-2.71962e-23
-1.23496e-22
-4.76443e-22
-1.51137e-21
-3.72248e-21
-6.33666e-21
-5.07097e-21
-1.5251e-33
8.73625e-21
1.03368e-19
3.35707e-19
-9.90966e-40
-8.60926e-38
-3.71589e-36
-1.06288e-34
-2.27031e-33
-3.86614e-32
-5.46659e-31
-6.5917e-30
-6.89794e-29
-6.33123e-28
-5.12183e-27
-3.6508e-26
-2.27987e-25
-1.23256e-24
-5.65207e-24
-2.12554e-23
-6.18287e-23
-1.23505e-22
-1.12406e-22
-7.73933e-25
2.50401e-22
3.50939e-21
1.40159e-20
-3.07002e-43
-3.31471e-41
-1.79612e-39
-6.50923e-38
-1.77249e-36
-3.85705e-35
-6.95667e-34
-1.06391e-32
-1.39947e-31
-1.59657e-30
-1.58545e-29
-1.36949e-28
-1.02345e-27
-6.54326e-27
-3.50953e-26
-1.52787e-25
-5.0896e-25
-1.14015e-24
-9.21409e-25
-1.9617e-26
6.21136e-24
1.05018e-22
4.30485e-22
-2.79113e-47
-4.21356e-45
-3.12272e-43
-1.51461e-41
-5.40231e-40
-1.5087e-38
-3.42755e-37
-6.49398e-36
-1.04303e-34
-1.43481e-33
-1.69946e-32
-1.73431e-31
-1.51827e-30
-1.12817e-29
-6.9779e-29
-3.46883e-28
-1.28961e-27
-2.80293e-27
-8.15155e-39
1.02764e-27
1.35199e-25
2.74332e-24
1.1959e-23
-1.16996e-52
-2.1007e-50
-1.84378e-48
-1.05593e-46
-4.43458e-45
-1.45407e-43
-3.86712e-42
-8.54947e-41
-1.59645e-39
-2.54177e-38
-3.46292e-37
-4.02338e-36
-3.92468e-35
-3.06298e-34
-1.56775e-33
-1.18152e-43
1.68736e-34
1.30207e-31
9.7879e-31
3.38857e-29
2.44485e-27
6.13887e-26
3.11137e-25
0
0
-2.26392e-73
-2.89782e-71
-6.63307e-64
-3.15925e-61
-7.25931e-59
-1.10338e-56
-1.25126e-54
-1.13015e-52
-8.47137e-51
-5.42083e-49
-3.02251e-47
-1.49129e-45
-6.58926e-44
2.77044e-37
9.94216e-36
3.36055e-34
1.07765e-32
2.03723e-31
3.48085e-29
1.15269e-27
7.34881e-27
1.63671e-70
1.32411e-67
4.9372e-65
1.19928e-62
2.16484e-60
3.11105e-58
3.71475e-56
3.79482e-54
3.3881e-52
2.68747e-50
1.91893e-48
1.24682e-46
7.43895e-45
4.10722e-43
2.11243e-41
1.02006e-39
4.63178e-38
1.92947e-36
7.43716e-35
-1.39246e-33
3.5209e-31
1.71178e-29
1.43718e-28
1.64311e-75
2.08034e-72
7.67333e-70
1.15054e-67
-3.2125e-69
-3.52697e-63
-8.07316e-61
-1.04668e-58
-8.16543e-57
-1.33652e-55
7.31649e-53
1.44836e-50
1.81219e-48
1.80624e-46
1.54205e-44
1.23036e-42
-7.83991e-43
-1.48066e-38
-9.03893e-37
5.00146e-36
1.86808e-33
1.81859e-31
2.1587e-30
2.20951e-82
-2.36969e-75
-2.71804e-72
-1.40749e-69
-4.71664e-67
-1.16752e-64
-2.28736e-62
-3.70054e-60
-5.08696e-58
-6.06474e-56
-6.36821e-54
-5.96022e-52
-5.01853e-50
-3.82811e-48
-2.66326e-46
-2.1802e-44
-9.19329e-42
-2.0496e-40
-1.08767e-38
4.87912e-38
5.16647e-36
1.07518e-33
2.13861e-32
-4.26298e-83
-1.10129e-79
-1.02503e-76
-5.89565e-74
-2.4683e-71
-8.13403e-69
-2.2076e-66
-5.08288e-64
-1.01365e-61
-1.77787e-59
-2.77489e-57
-3.88984e-55
-4.93317e-53
-5.69256e-51
-6.00157e-49
-5.34798e-47
3.24112e-49
8.98139e-47
2.34584e-44
5.77143e-42
1.70458e-39
8.64116e-37
5.77105e-35
0
4.32572e-107
-1.19938e-98
-1.17e-94
-5.7977e-91
-1.75675e-87
-3.50273e-84
-5.07341e-81
-5.69981e-78
-5.18989e-75
-3.94554e-72
-2.55437e-69
-1.42526e-66
-6.88317e-64
-2.86634e-61
-1.00707e-58
-2.0357e-56
-1.91653e-54
-3.33841e-52
-1.01204e-48
-4.71674e-47
1.47855e-42
-4.41357e-39
0.639861
0.000114281
7.50237e-09
5.13749e-09
0.963798
0.217238
5.45282e-07
8.08129e-09
0.999978
0.89101
0.157266
5.45272e-07
0.997075
0.993799
0.612379
0.0311008
0.911951
0.975935
0.947196
0.311492
0.114553
0.780989
0.90209
0.631081
0.00169268
0.369057
0.847486
0.79523
0.000181432
0.00169286
0.657259
0.728275
1.86355e-05
0.000171977
0.389208
0.692881
2.72916e-06
9.17935e-06
0.115444
0.629841
1.64911e-06
2.72916e-06
0.111931
0.586392
3.60386e-06
4.01375e-06
0.159642
0.538982
1.09111e-05
4.08581e-06
0.242282
0.467758
0.000181976
6.38922e-06
0.157102
0.385532
9.00842e-05
3.42992e-05
4.05142e-05
0.332449
8.8158e-05
0.0011794
0.000388982
0.289287
2.96863e-05
0.00052849
0.000537945
0.141385
2.53333e-06
7.21644e-05
0.0020521
0.00143285
2.76314e-06
4.77222e-05
0.000645207
0.000737874
1.95024e-06
9.67904e-06
9.171e-05
0.00196967
1.16516e-06
6.51135e-06
4.43737e-05
0.00111174
4.452e-07
2.66178e-06
1.76821e-05
0.000472748
7.47548e-08
5.31161e-07
3.65889e-06
0.00010352
8.36496e-09
6.68827e-08
5.41458e-07
1.17922e-05
8.39478e-10
7.1593e-09
9.39904e-08
8.55544e-07
7.46299e-11
6.69765e-10
7.05459e-09
6.12432e-08
9.75446e-12
6.60417e-11
5.37006e-10
4.24022e-09
1.71661e-12
1.16363e-11
4.44291e-11
3.79149e-10
1.2104e-13
9.97059e-13
3.46212e-12
3.2652e-11
6.23311e-15
4.74535e-14
3.0258e-13
7.61407e-12
3.06508e-16
2.15243e-15
1.51305e-14
7.74146e-13
1.38641e-17
8.39941e-17
8.84144e-16
3.90947e-14
5.50486e-19
2.88407e-18
4.77385e-17
2.10605e-15
2.03771e-20
1.29372e-19
2.39278e-18
1.0594e-16
6.89526e-22
5.33447e-21
1.11646e-19
4.93234e-18
2.07497e-23
2.01482e-22
4.8553e-21
2.12265e-19
4.32641e-25
6.78692e-24
1.96098e-22
8.40855e-21
7.20335e-27
1.94345e-25
6.91944e-24
3.04013e-22
9.82759e-29
4.81154e-27
2.13879e-25
9.8558e-24
1.51555e-30
9.82757e-29
5.81626e-27
2.73494e-25
1.09149e-32
1.51558e-30
1.34108e-28
7.92994e-27
5.79117e-35
1.0916e-32
2.1385e-30
2.0605e-28
2.07101e-11
1.39263e-09
1.25856e-10
8.58211e-12
6.72401e-13
4.8551e-14
1.2573e-15
2.98409e-17
5.9982e-19
1.1139e-20
6.17236e-22
1.83788e-23
3.26948e-25
4.53112e-27
5.29682e-29
5.54737e-31
3.78504e-33
1.3778e-35
3.68053e-37
8.56447e-08
4.60194e-08
4.44479e-09
2.21007e-10
1.68229e-11
1.04512e-12
4.45215e-14
1.31205e-15
2.98409e-17
5.9982e-19
8.27602e-20
2.31112e-21
3.83895e-23
5.44427e-25
4.81875e-27
4.3824e-29
4.69885e-31
2.90597e-33
1.1943e-35
1.12569e-05
1.50132e-06
1.703e-07
9.52289e-09
6.95803e-10
4.56026e-11
2.25839e-12
8.07196e-14
2.24245e-15
5.59217e-17
8.56878e-18
2.53734e-19
4.36582e-21
6.24416e-23
5.26061e-25
7.90183e-27
9.39152e-29
5.67797e-31
2.59868e-33
0.000269025
3.52996e-05
4.14857e-06
2.56068e-07
2.03043e-08
1.44976e-09
8.31717e-11
3.65018e-12
1.26869e-13
1.17335e-14
6.69375e-16
1.75269e-17
3.5424e-19
4.96387e-21
7.16547e-23
1.21282e-24
1.57468e-26
7.78678e-29
5.1331e-31
0.00714286
0.000428279
6.4952e-05
6.00103e-06
4.48986e-07
3.3095e-08
2.17144e-09
1.16554e-10
5.09775e-12
2.90972e-13
2.46902e-14
8.19692e-16
1.67e-17
3.08881e-19
7.05269e-21
1.33091e-22
1.3977e-24
5.06244e-27
7.98818e-29
0.106754
0.00488248
0.000574904
5.73526e-05
6.00036e-06
4.71568e-07
3.45789e-08
2.26185e-09
1.32992e-10
6.72501e-12
3.6727e-13
1.79849e-14
5.26062e-16
1.42592e-17
3.20302e-19
5.37534e-21
6.00939e-23
1.78463e-25
7.05811e-27
0.291346
0.0231367
0.00249627
0.000329197
3.70504e-05
3.6611e-06
3.1814e-07
2.45526e-08
1.66106e-09
9.83015e-11
5.0678e-12
2.55099e-13
9.28012e-15
2.79563e-16
6.72248e-18
1.21269e-19
1.44955e-21
5.51942e-24
3.40613e-25
0.580439
0.124151
0.00633902
0.0010814
0.000149355
1.73626e-05
1.7652e-06
1.53932e-07
1.155e-08
7.45004e-10
4.12814e-11
2.16228e-12
8.59117e-14
2.76286e-15
7.07055e-17
1.35547e-18
1.71095e-20
1.01174e-22
9.07124e-24
0.649253
0.256287
0.0177725
0.00237789
0.000405301
5.60596e-05
6.3402e-06
5.96215e-07
4.74205e-08
3.218e-09
1.87155e-10
9.53788e-12
4.2969e-13
1.46707e-14
3.89293e-16
7.82487e-18
1.04308e-19
8.11231e-22
1.19437e-22
0.603786
0.414034
0.0429583
0.00356424
0.000665852
9.43287e-05
1.07061e-05
1.01362e-06
8.13527e-08
5.64903e-09
3.39165e-10
1.75513e-11
8.82284e-13
5.33007e-14
1.74478e-15
3.43653e-17
4.23771e-19
2.45887e-21
8.2362e-22
0.585325
0.360855
0.029152
0.00302682
0.000515868
6.33853e-05
6.55362e-06
5.98432e-07
4.8527e-08
3.48215e-09
2.2173e-10
1.4215e-11
1.10525e-12
8.28365e-14
2.78814e-15
6.25777e-17
9.7588e-19
8.09448e-21
2.05251e-21
0.414578
0.166701
0.0106402
0.00162078
0.000191076
2.35794e-05
1.74679e-06
1.60718e-07
1.38979e-08
1.0942e-09
7.73686e-11
6.49051e-12
1.1725e-12
7.14948e-14
2.21427e-15
5.90359e-17
1.21459e-18
1.61173e-20
1.41405e-21
0.163015
0.01541
0.00476842
0.000737234
0.000220874
4.43162e-05
2.83059e-07
2.82834e-08
2.78823e-09
2.83761e-10
3.20974e-11
6.30671e-12
9.34348e-13
5.44987e-14
1.41353e-15
2.84734e-17
5.65847e-19
6.84329e-21
1.2421e-21
0.154961
0.00801184
0.0016247
0.000249278
9.30548e-05
7.06373e-05
1.35043e-05
2.44712e-08
4.57031e-09
4.25659e-10
4.03541e-11
5.82431e-12
7.37029e-13
6.62583e-14
1.93434e-15
1.85358e-17
2.78933e-19
2.76666e-21
1.2421e-21
0.302113
0.080023
0.00125811
0.000174739
6.0361e-05
5.51064e-05
2.53857e-05
1.1741e-06
1.33738e-08
1.83621e-09
1.57229e-10
1.60844e-11
1.26933e-12
6.47672e-14
1.56274e-15
2.72307e-17
3.77518e-19
2.70219e-21
1.2421e-21
0.29613
0.285992
0.0318476
0.00109142
0.000174296
6.4762e-05
3.26763e-05
2.95795e-06
2.05455e-07
1.47606e-08
9.37968e-10
6.83271e-11
8.04177e-12
3.32197e-13
1.00574e-14
2.08555e-16
2.84272e-18
2.1696e-20
2.72104e-21
0.285992
0.278545
0.250076
0.0450773
0.00109121
0.000224135
8.27193e-05
1.21084e-05
1.13143e-06
1.2139e-07
1.07427e-08
7.48913e-10
3.60425e-11
2.0596e-12
6.67119e-14
1.42628e-15
1.90824e-17
1.38031e-19
1.91012e-20
0.237425
0.266048
0.255819
0.138355
0.0104162
0.00128887
0.000271007
4.07496e-05
4.67031e-06
4.16158e-07
2.98045e-08
1.71378e-09
8.06402e-11
4.02295e-12
1.65668e-13
5.70274e-15
7.67238e-17
5.01824e-19
1.12696e-19
0.0542888
0.179716
0.203608
0.137989
0.0113496
0.0011355
0.000208678
2.97924e-05
3.35464e-06
3.01055e-07
2.14873e-08
1.24491e-09
5.9598e-11
4.2904e-12
4.75116e-13
1.56314e-14
2.57015e-16
2.90445e-18
7.4455e-20
0.00287212
0.0364008
0.0362071
0.024009
0.011199
0.00122193
0.000146768
1.78683e-05
1.52248e-06
1.1644e-07
8.43953e-09
4.88722e-10
3.10566e-11
5.82833e-12
4.0273e-13
1.0933e-14
2.08552e-16
2.60554e-18
2.20652e-20
0.00300124
0.00375146
0.00415848
0.00235686
0.00242339
0.000507386
6.12502e-05
7.23567e-06
6.10046e-07
4.2563e-08
2.53749e-09
1.60654e-10
2.53378e-11
3.07821e-12
1.29431e-13
3.50319e-15
7.14273e-17
9.57648e-19
5.20743e-21
0.00129598
0.000885316
0.00102693
0.000588045
0.000192416
3.49978e-05
5.18107e-06
7.45293e-07
1.02584e-07
1.1622e-08
9.49401e-10
9.3301e-11
1.21582e-11
6.61692e-13
2.34522e-14
6.5984e-16
1.35528e-17
1.81801e-19
1.15239e-21
0.000195381
0.000172316
0.000209015
0.000123925
4.16773e-05
7.77732e-06
1.05712e-06
1.2718e-07
1.2795e-08
1.17992e-09
2.37239e-10
3.21231e-11
2.37605e-12
1.03951e-13
3.81652e-15
1.08951e-16
2.2683e-18
3.08523e-20
2.01161e-22
2.31518e-05
2.81828e-05
3.55931e-05
2.21032e-05
7.64869e-06
1.56465e-06
2.02158e-07
2.27608e-08
2.1427e-09
1.82673e-10
2.83637e-11
5.03279e-12
2.99681e-13
1.38958e-14
5.18103e-16
1.4945e-17
3.15141e-19
4.33933e-21
2.81623e-23
1.92476e-06
3.96404e-06
5.19402e-06
3.40133e-06
1.22531e-06
2.85879e-07
3.58314e-08
3.87294e-09
3.48014e-10
3.03951e-11
6.34664e-12
6.58747e-13
3.78459e-14
1.73376e-15
6.35314e-17
1.82259e-18
3.87696e-20
5.38801e-22
3.45456e-24
2.18967e-07
4.88683e-07
6.64382e-07
4.59229e-07
1.73492e-07
4.27391e-08
5.8516e-09
6.19928e-10
5.52375e-11
5.4163e-12
1.27013e-12
8.89648e-14
4.9694e-15
2.24875e-16
8.16567e-18
2.32657e-19
4.92555e-21
6.85482e-23
4.38093e-25
2.30916e-08
5.36358e-08
7.5688e-08
5.52044e-08
2.21298e-08
5.66957e-09
8.82613e-10
9.35304e-11
9.10714e-12
1.57372e-12
1.69365e-13
1.15188e-14
6.43059e-16
2.91162e-17
1.05833e-18
3.01641e-20
6.38722e-22
8.94299e-24
5.68386e-26
2.1891e-09
5.30686e-09
7.76678e-09
6.02975e-09
2.56734e-09
6.88785e-10
1.21362e-10
1.37588e-11
1.75346e-12
2.72693e-13
2.08768e-14
1.43622e-15
8.04899e-17
3.65486e-18
1.33221e-19
3.81067e-21
8.11093e-23
1.14744e-24
7.21113e-27
1.90678e-10
4.78262e-10
7.31949e-10
6.05629e-10
2.73853e-10
7.74381e-11
1.43217e-11
1.86299e-12
2.93734e-13
3.02413e-14
2.49471e-15
1.73465e-16
9.7883e-18
4.46933e-19
1.63719e-20
4.70605e-22
1.0073e-23
1.44104e-25
8.92452e-28
1.78795e-11
4.31716e-11
6.43976e-11
5.67791e-11
2.8166e-11
8.51637e-12
1.66681e-12
2.50122e-13
3.41461e-14
3.42975e-15
2.88762e-16
2.03154e-17
1.15698e-18
5.32325e-20
1.96306e-21
5.67736e-23
1.22294e-24
1.77045e-26
1.07714e-28
4.25332e-12
7.05439e-12
6.47755e-12
5.6768e-12
2.76684e-12
8.46198e-13
1.71032e-13
2.79796e-14
3.64181e-15
3.78198e-16
3.23915e-17
2.30953e-18
1.32991e-19
6.17588e-21
2.29566e-22
6.68574e-24
1.45002e-25
2.12492e-27
1.2667e-29
4.10323e-13
9.1821e-13
8.99477e-13
6.8532e-13
2.75509e-13
8.21193e-14
1.74216e-14
2.85456e-15
3.80824e-16
4.04404e-17
3.52591e-18
2.55168e-19
1.48782e-20
6.98215e-22
2.61851e-23
7.68398e-25
1.67832e-26
2.48951e-28
1.45094e-30
2.22372e-14
6.88295e-14
7.93499e-14
6.68437e-14
2.63005e-14
7.78608e-15
1.6924e-15
2.81959e-16
3.86621e-17
4.19833e-18
3.73066e-19
2.74377e-20
1.62176e-21
7.69834e-23
2.91486e-24
8.62177e-26
1.8966e-27
2.8467e-29
1.61936e-31
1.17419e-15
4.27648e-15
5.43071e-15
5.09227e-15
2.22879e-15
6.96607e-16
1.57006e-16
2.70499e-17
3.81286e-18
4.23931e-19
3.84389e-20
2.87608e-21
1.72483e-22
8.28773e-24
3.16967e-25
9.45223e-27
2.09396e-28
3.1785e-30
1.76257e-32
5.82874e-17
2.56517e-16
3.67517e-16
3.64267e-16
1.78398e-16
5.96925e-17
1.41218e-17
2.5208e-18
3.65952e-19
4.17219e-20
3.86459e-21
2.94452e-22
1.79306e-23
8.72557e-25
3.37188e-26
1.01385e-27
2.26136e-29
3.46891e-31
1.87367e-33
2.9732e-18
1.45107e-17
2.39819e-17
2.51892e-17
1.37939e-17
4.9499e-18
1.233e-18
2.28667e-19
3.42606e-20
4.01133e-21
3.79995e-22
2.95084e-23
1.82574e-24
9.00184e-26
3.51561e-27
1.0658e-28
2.39281e-30
3.70605e-32
1.94904e-34
1.4436e-19
7.87412e-19
1.5016e-18
1.68589e-18
1.03111e-18
3.9818e-19
1.04792e-19
2.02462e-20
3.13704e-21
3.77757e-22
3.66364e-23
2.9019e-24
1.82527e-25
9.12129e-27
3.60055e-28
1.10049e-29
2.48598e-31
3.88356e-33
1.98866e-35
6.70795e-21
4.10665e-20
9.08955e-20
1.09501e-19
7.4831e-20
3.11929e-20
8.69951e-21
1.75528e-21
2.81794e-22
3.49481e-23
3.47349e-24
2.80832e-25
1.79659e-26
9.10167e-28
3.63163e-29
1.11892e-30
2.54227e-32
4.00107e-34
1.99572e-36
2.96704e-22
2.07466e-21
5.31941e-21
6.95044e-21
5.29679e-21
2.39006e-21
7.08208e-22
1.4955e-22
2.49178e-23
3.18672e-24
3.24873e-25
2.68274e-26
1.74623e-27
8.97014e-29
3.61782e-30
1.12345e-31
2.56624e-33
4.0638e-35
1.97597e-37
1.2641e-23
1.01907e-22
3.01689e-22
4.29291e-22
3.61852e-22
1.78644e-22
5.67442e-23
1.25787e-23
2.17801e-24
2.87509e-25
3.00839e-26
2.53854e-27
1.68172e-28
8.76024e-30
3.57107e-31
1.11741e-32
2.565e-34
4.08148e-36
1.77885e-38
5.24776e-25
4.69817e-24
1.48787e-23
2.37911e-23
2.2324e-23
1.19506e-23
4.02451e-24
9.7425e-25
1.82154e-25
2.53463e-26
2.76256e-27
2.39404e-28
1.61488e-29
8.53244e-31
3.51579e-32
1.10844e-33
2.55613e-35
4.08194e-37
1.72941e-39
1.08854e-26
2.94012e-25
2.07409e-24
8.04017e-24
8.70112e-24
2.75179e-24
6.14248e-25
1.06245e-25
1.40213e-26
1.52907e-27
1.36221e-28
1.11635e-29
7.69351e-31
4.13652e-32
1.72814e-33
5.50543e-35
1.27895e-36
2.05522e-38
1.72941e-39
)
;

boundaryField
{
    leftWall
    {
        type            zeroGradient;
    }
    rightWall
    {
        type            zeroGradient;
    }
    lowerWall
    {
        type            zeroGradient;
    }
    atmosphere
    {
        type            inletOutlet;
        inletValue      uniform 0;
        value           nonuniform List<scalar> 
46
(
0
0
0
0
0
0
0
0
0
0
0
0
0
0
0
0
0
0
0
0
0
0
0
5.79117e-35
1.0916e-32
2.1385e-30
2.0605e-28
1.08854e-26
2.94012e-25
2.07409e-24
8.04017e-24
8.70112e-24
2.75179e-24
6.14248e-25
1.06245e-25
1.40213e-26
1.52907e-27
1.36221e-28
1.11635e-29
7.69351e-31
4.13652e-32
1.72814e-33
5.50543e-35
1.27895e-36
2.05522e-38
1.72941e-39
)
;
    }
    defaultFaces
    {
        type            empty;
    }
}


// ************************************************************************* //
