/*--------------------------------*- C++ -*----------------------------------*\
| =========                 |                                                 |
| \\      /  F ield         | OpenFOAM: The Open Source CFD Toolbox           |
|  \\    /   O peration     | Version:  2206                                  |
|   \\  /    A nd           | Website:  www.openfoam.com                      |
|    \\/     M anipulation  |                                                 |
\*---------------------------------------------------------------------------*/
FoamFile
{
    version     2.0;
    format      ascii;
    arch        "LSB;label=32;scalar=64";
    class       volScalarField;
    location    "0.225";
    object      p;
}
// * * * * * * * * * * * * * * * * * * * * * * * * * * * * * * * * * * * * * //

dimensions      [1 -1 -2 0 0 0 0];

internalField   nonuniform List<scalar> 
2268
(
1818.48
1825.44
1827.75
1825.33
1819.42
1812.1
1804.62
1797.46
1790.98
1785.7
1782.38
1782.18
1786.79
1798.55
1820.51
1857.51
1912.21
1987.34
2078.14
2166.15
2216.24
2216.88
2258.16
1758.59
1765.46
1767.71
1765.23
1759.3
1751.98
1744.47
1737.24
1730.64
1725.2
1721.66
1721.2
1725.49
1736.79
1757.95
1791.55
1841.86
1911.65
1999.8
2091.69
2150.16
2144.28
2207.06
1697.69
1704.37
1706.5
1703.9
1697.93
1690.6
1683.02
1675.64
1668.81
1663.02
1659.05
1658.07
1661.71
1672.17
1692.1
1724.35
1772.08
1836.19
1914.89
1999.03
2071.32
2106.04
2184.33
1635.78
1642.21
1644.15
1641.36
1635.33
1627.97
1620.29
1612.68
1605.48
1599.18
1594.56
1592.78
1595.46
1604.7
1623.06
1653.29
1697.93
1757.61
1829.94
1907.22
1985.88
2057.05
2163.74
1572.91
1579.04
1580.71
1577.66
1571.54
1564.13
1556.3
1548.36
1540.64
1533.64
1528.14
1525.28
1526.65
1534.29
1550.65
1578.3
1619.5
1674.85
1742.72
1816.62
1895.96
1979.62
2102.42
1509.12
1514.91
1516.24
1512.86
1506.62
1499.13
1491.06
1482.68
1474.29
1466.38
1459.74
1455.49
1455.19
1460.8
1474.65
1499.22
1536.59
1587.42
1650.69
1721.2
1796.75
1874.63
1983.43
1444.49
1449.93
1450.76
1446.99
1440.61
1433
1424.62
1415.68
1406.45
1397.44
1389.41
1383.46
1381.1
1384.21
1395
1415.85
1448.75
1494.55
1552.25
1617.37
1683.9
1742.76
1791.27
1379.08
1384.08
1384.26
1380.03
1373.52
1365.78
1357.03
1347.4
1337.18
1326.88
1317.24
1309.32
1304.58
1304.77
1312.01
1328.45
1356.05
1395.86
1446.69
1503.76
1555.35
1587.6
1508.32
8.45147
8.43796
8.41704
8.39022
8.3586
8.32369
8.28665
8.2485
8.21014
8.17245
8.13615
8.10199
8.07059
8.04254
8.01835
7.99846
7.98326
7.973
7.96784
8.39613
8.38108
8.35976
8.33253
8.30055
8.26534
8.22804
8.18966
8.15109
8.11316
8.07668
8.04235
8.01079
7.98259
7.95829
7.93832
7.92304
7.91273
7.90754
8.3436
8.32672
8.30415
8.2761
8.24332
8.20751
8.16969
8.13084
8.09184
8.0535
8.01662
7.98192
7.95003
7.92154
7.89701
7.87684
7.86141
7.85099
7.84573
8.29459
8.27501
8.25004
8.22078
8.18683
8.15013
8.11156
8.07204
8.03239
7.99343
7.95596
7.92069
7.8883
7.85938
7.83448
7.814
7.79834
7.78775
7.7824
8.24863
8.22668
8.19717
8.16657
8.13105
8.09318
8.05364
8.01322
7.97273
7.93295
7.89468
7.85866
7.82559
7.79608
7.77067
7.74979
7.7338
7.72298
7.71752
8.21161
8.18147
8.14479
8.1134
8.07588
8.0366
7.99589
7.95439
7.91285
7.87205
7.8328
7.79583
7.76189
7.73161
7.70556
7.68416
7.66776
7.65666
7.65106
8.17496
8.13678
8.09414
8.06126
8.02119
7.98034
7.93828
7.89551
7.85275
7.81072
7.77028
7.73217
7.69716
7.66594
7.63909
7.61704
7.60016
7.58874
7.58298
8.14974
8.09348
8.04404
8.01041
7.96692
7.92434
7.8808
7.83661
7.79242
7.74891
7.70711
7.66765
7.63138
7.59904
7.57123
7.54841
7.53096
7.51916
7.51322
1275.6
1279.76
1278.89
1273.95
1267.11
1258.99
1249.45
1238.51
1226.45
1213.75
1201.13
1189.56
1180.39
1175.22
1175.96
1184.49
1202.51
1231.08
1268.76
1309.44
1326.37
1282.29
879.678
1131.79
1134.75
1132.36
1126.3
1118.63
1109.38
1098.04
1084.49
1068.94
1051.73
1033.39
1014.63
996.659
980.743
968.819
962.657
964.293
972.547
984.299
992.943
976.114
902.811
660.707
985.712
987.276
983.084
975.766
966.976
956.073
942.265
925.326
905.297
882.232
856.347
827.87
797.961
766.97
735.927
706.569
683.53
675.546
678.833
674.121
676.146
642.437
550.826
837.892
837.935
831.841
823.166
812.915
799.81
782.863
761.764
736.278
706.076
670.978
630.595
585.796
532.276
465.819
392.847
316.467
228.224
151.358
159.069
221.816
272.964
279.496
688.853
687.112
679.164
669.102
657.103
641.365
620.804
595.1
563.761
525.988
481.08
426.99
360.952
272.052
163.811
73.4099
32.7711
13.5205
1.75946
0.454608
5.65405
15.987
31.5298
539.372
535.368
525.801
514.539
500.748
482.283
458.022
427.887
391.138
345.544
289.19
216.464
132.249
50.5417
9.85932
0.0102637
-2.1911
-3.21838
-3.70683
-4.10782
-4.29689
-4.28714
-4.35765
390.642
384.502
373.802
361.362
345.825
324.784
296.465
261.566
219.04
164.306
103.606
39.7859
7.53976
-2.51409
-3.12846
-2.81715
-3.36735
-4.09014
-4.50883
-4.78453
-5.08351
-5.42945
-5.87369
243.185
234.8
223.155
208.986
191.549
168.704
136.572
101.445
65.7601
27.4039
5.70724
-3.54775
-3.99042
-3.67498
-3.58767
-3.42016
-3.97154
-4.95331
-5.42208
-5.61691
-5.79207
-6.11279
-6.4649
104.101
90.5744
80.7165
69.8241
56.9686
42.1469
21.9597
9.2481
-0.893206
-3.65892
-4.00305
-4.01299
-4.11917
-4.09791
-4.00496
-3.92615
-4.77182
-5.83644
-6.12007
-6.16284
-6.23827
-6.51141
-6.851
18.5296
5.98332
5.24627
2.92834
-0.407243
-3.14427
-3.42862
-3.64874
-3.77067
-3.93159
-4.16712
-4.36714
-4.51447
-4.56058
-4.48134
-4.48508
-5.40157
-6.30901
-6.50137
-6.46276
-6.5304
-6.80127
-7.17083
-3.54332
-3.52471
-3.54505
-3.58176
-3.6157
-3.60101
-3.65817
-3.77613
-3.9396
-4.16144
-4.44942
-4.77616
-5.06669
-5.18832
-5.08663
-5.07045
-5.81948
-6.5272
-6.66733
-6.64987
-6.75471
-7.05436
-7.45262
-3.67037
-3.65871
-3.67702
-3.70563
-3.73565
-3.76626
-3.82989
-3.94276
-4.13436
-4.41397
-4.79475
-5.28433
-5.76051
-5.94536
-5.76417
-5.62361
-6.21535
-6.6754
-6.73097
-6.76756
-6.92312
-7.2512
-7.64976
-3.81513
-3.81105
-3.8263
-3.85256
-3.88541
-3.93055
-4.0066
-4.12885
-4.3465
-4.6639
-5.14195
-5.819
-6.42987
-6.63405
-6.368
-6.12831
-6.56199
-6.76003
-6.76548
-6.85578
-7.05228
-7.38159
-7.78863
-3.96055
-3.97028
-3.9823
-4.00611
-4.0413
-4.09356
-4.17543
-4.30596
-4.54044
-4.88564
-5.4143
-6.14529
-6.77857
-6.95398
-6.68419
-6.54131
-6.70475
-6.75258
-6.80117
-6.92677
-7.15172
-7.48271
-7.90368
-4.101
-4.11672
-4.12985
-4.15499
-4.19274
-4.24853
-4.33206
-4.46388
-4.69497
-5.04089
-5.55325
-6.2123
-6.79957
-6.96127
-6.80557
-6.71389
-6.70854
-6.7379
-6.82374
-6.9821
-7.2265
-7.57004
-8.02244
-4.23737
-4.25454
-4.26915
-4.29619
-4.33645
-4.39194
-4.4739
-4.59988
-4.80788
-5.12186
-5.55346
-6.08007
-6.5521
-6.73254
-6.6803
-6.63814
-6.64162
-6.70607
-6.83423
-7.02104
-7.28247
-7.64233
-8.10195
-4.36744
-4.38221
-4.39881
-4.42696
-4.46792
-4.52448
-4.60254
-4.71579
-4.88881
-5.14339
-5.4813
-5.86304
-6.19458
-6.38622
-6.43912
-6.46849
-6.54909
-6.66887
-6.82818
-7.03526
-7.30611
-7.66697
-8.13716
-4.48845
-4.49982
-4.51825
-4.54701
-4.5882
-4.64417
-4.71859
-4.81944
-4.96095
-5.15762
-5.40988
-5.68793
-5.93664
-6.11521
-6.23249
-6.3403
-6.47182
-6.62301
-6.79932
-7.01495
-7.28388
-7.62968
-8.08214
-4.59874
-4.60864
-4.62744
-4.65628
-4.697
-4.7516
-4.82258
-4.91444
-5.03481
-5.19096
-5.38121
-5.58876
-5.78793
-5.9604
-6.10897
-6.25215
-6.40243
-6.56314
-6.74409
-6.95658
-7.21314
-7.53291
-7.9437
-4.69914
-4.70839
-4.72681
-4.75505
-4.79453
-4.84687
-4.91401
-4.99863
-5.10467
-5.23523
-5.3884
-5.55527
-5.72323
-5.88237
-6.03211
-6.17915
-6.32917
-6.48758
-6.66217
-6.86091
-7.09481
-7.37838
-7.73043
-4.79058
-4.79932
-4.81695
-4.84397
-4.88143
-4.93063
-4.99302
-5.07033
-5.16456
-5.2768
-5.40521
-5.54436
-5.68733
-5.82918
-5.96895
-6.10822
-6.24956
-6.39743
-6.55692
-6.73343
-6.93515
-7.17148
-7.45069
-4.8739
-4.88208
-4.89862
-4.92393
-4.95881
-5.00421
-5.06117
-5.1308
-5.21411
-5.31125
-5.42053
-5.5385
-5.66117
-5.7858
-5.91126
-6.03725
-6.16468
-6.29625
-6.4348
-6.58355
-6.74718
-6.93005
-7.13352
-4.94998
-4.95751
-4.97272
-4.99598
-5.02789
-5.06913
-5.1204
-5.18237
-5.25553
-5.33967
-5.43331
-5.53392
-5.63899
-5.74686
-5.8564
-5.96649
-6.07699
-6.18893
-6.30346
-6.42189
-6.54577
-6.67542
-6.80869
-5.01965
-5.02646
-5.0402
-5.06118
-5.0899
-5.12683
-5.1724
-5.22696
-5.2907
-5.36328
-5.44339
-5.52906
-5.61844
-5.71033
-5.80363
-5.89694
-5.98932
-6.08051
-6.17039
-6.25865
-6.34464
-6.42628
-6.49977
-5.08375
-5.0898
-5.10197
-5.12055
-5.14598
-5.17859
-5.21859
-5.26609
-5.32109
-5.38317
-5.45124
-5.52365
-5.59886
-5.67578
-5.75332
-5.83003
-5.90445
-5.97542
-6.04181
-6.10218
-6.1545
-6.19555
-6.22059
-5.14302
-5.14828
-5.15887
-5.17504
-5.1972
-5.22558
-5.26024
-5.30112
-5.34806
-5.40059
-5.45777
-5.5182
-5.58052
-5.64362
-5.7064
-5.76738
-5.82484
-5.87709
-5.92234
-5.95842
-5.98248
-5.99086
-5.9787
-5.19809
-5.20258
-5.21164
-5.22548
-5.24449
-5.26883
-5.29846
-5.33321
-5.37277
-5.41666
-5.464
-5.51361
-5.56422
-5.61474
-5.66404
-5.71061
-5.75265
-5.78823
-5.81522
-5.83105
-5.83254
-5.81603
-5.77704
-5.24955
-5.25332
-5.26094
-5.2726
-5.28865
-5.3092
-5.33416
-5.36329
-5.3962
-5.43232
-5.47085
-5.51076
-5.55087
-5.5901
-5.62733
-5.66111
-5.68961
-5.71083
-5.72253
-5.72209
-5.70639
-5.67197
-5.61493
-5.29792
-5.30105
-5.30736
-5.31706
-5.33038
-5.34743
-5.36811
-5.39214
-5.41907
-5.44831
-5.47907
-5.51039
-5.54123
-5.57054
-5.59722
-5.6199
-5.63684
-5.64609
-5.64546
-5.63249
-5.6043
-5.55782
-5.48981
-5.34371
-5.34628
-5.35146
-5.3594
-5.37028
-5.38415
-5.40094
-5.42035
-5.44196
-5.46514
-5.48913
-5.51301
-5.53581
-5.55655
-5.5742
-5.58751
-5.59488
-5.59448
-5.58432
-5.56214
-5.52542
-5.47161
-5.39814
-5.38738
-5.38948
-5.39369
-5.40011
-5.40885
-5.4199
-5.43318
-5.44845
-5.46532
-5.48319
-5.50133
-5.51885
-5.53482
-5.54833
-5.55845
-5.56404
-5.56371
-5.55582
-5.5386
-5.51007
-5.46812
-5.41069
-5.3358
-5.42937
-5.43106
-5.43445
-5.43959
-5.44648
-5.45506
-5.46526
-5.47686
-5.48953
-5.50275
-5.51585
-5.52799
-5.53829
-5.54586
-5.54985
-5.54929
-5.54298
-5.52954
-5.5074
-5.47493
-5.4304
-5.37216
-5.29871
-5.47007
-5.47141
-5.47412
-5.47817
-5.48348
-5.48996
-5.49748
-5.50588
-5.51489
-5.52407
-5.53285
-5.54048
-5.54612
-5.54893
-5.54813
-5.54286
-5.53215
-5.51482
-5.48962
-5.45519
-5.41015
-5.35322
-5.2833
-5.50985
-5.5109
-5.51301
-5.51613
-5.52011
-5.5248
-5.53006
-5.53574
-5.5416
-5.54732
-5.55242
-5.55628
-5.55814
-5.55724
-5.55283
-5.54417
-5.53045
-5.51074
-5.48402
-5.44924
-5.40532
-5.35128
-5.28633
-5.54906
-5.54984
-5.55142
-5.55373
-5.55657
-5.55975
-5.56313
-5.56652
-5.56975
-5.57256
-5.5746
-5.57535
-5.57419
-5.57045
-5.56344
-5.55253
-5.53703
-5.51621
-5.4893
-5.45547
-5.41392
-5.36395
-5.30497
-5.58798
-5.58851
-5.58961
-5.59117
-5.59301
-5.59493
-5.59674
-5.59827
-5.59935
-5.59979
-5.59933
-5.59758
-5.59405
-5.5882
-5.57944
-5.56722
-5.55097
-5.53012
-5.50408
-5.47227
-5.43409
-5.38906
-5.3369
-5.62682
-5.62713
-5.62775
-5.62864
-5.62957
-5.63038
-5.63089
-5.6309
-5.63027
-5.62885
-5.62643
-5.62275
-5.61746
-5.61014
-5.60031
-5.58754
-5.57137
-5.55135
-5.52705
-5.49807
-5.46399
-5.42449
-5.37939
-5.66567
-5.66577
-5.66594
-5.66618
-5.66628
-5.6661
-5.66548
-5.66426
-5.66228
-5.65942
-5.65555
-5.65048
-5.64398
-5.63577
-5.62548
-5.6128
-5.59736
-5.57886
-5.55698
-5.53145
-5.50201
-5.46847
-5.43072
-5.70503
-5.70497
-5.7047
-5.7043
-5.7036
-5.7025
-5.70087
-5.69857
-5.69548
-5.69152
-5.68659
-5.68057
-5.67334
-5.66471
-5.65446
-5.64236
-5.62817
-5.61169
-5.59272
-5.5711
-5.54671
-5.51943
-5.48923
-5.74627
-5.74606
-5.74538
-5.74436
-5.74287
-5.74086
-5.73826
-5.73496
-5.7309
-5.72603
-5.72027
-5.7136
-5.70593
-5.69719
-5.68726
-5.67603
-5.66337
-5.64917
-5.63336
-5.61591
-5.59677
-5.57594
-5.55342
-5.78785
-5.78754
-5.78651
-5.78492
-5.78269
-5.77983
-5.77634
-5.77217
-5.76731
-5.76175
-5.75546
-5.74844
-5.74068
-5.73216
-5.72286
-5.71278
-5.70189
-5.69021
-5.67777
-5.66463
-5.65088
-5.6366
-5.62187
-5.82076
-5.82063
-5.81933
-5.81725
-5.81442
-5.81091
-5.80675
-5.802
-5.7967
-5.79087
-5.78455
-5.77777
-5.77056
-5.76299
-5.75509
-5.74697
-5.7387
-5.73039
-5.72215
-5.71413
-5.7065
-5.69943
-5.69306
-57.3883
5.82577
8.48908
8.07464
81.2167
11.6914
9.08377
7.82951
244.56
22.7717
0.133661
7.67595
189.241
37.7414
-5.68503
7.25642
50.1779
3.83315
-15.9603
8.71353
-1.54957
-13.982
-40.3358
-18.156
-6.17374
3.46662
-61.824
-60.4342
-7.01557
-5.94861
-59.6563
-90.6821
-7.40341
-8.25084
-24.4988
-96.6028
-7.72745
-8.80832
-11.2356
-88.3868
-7.99944
-8.98828
-11.3015
-100.423
-8.18629
-9.14604
-11.077
-105.797
-8.28189
-9.24572
-10.3305
-95.9184
-8.26949
-9.0549
-6.5631
-69.3888
-8.41354
-9.16925
-7.97923
-41.0834
-8.61716
-9.46517
-12.1506
-17.6074
-8.78173
-9.53783
-12.3755
-9.12093
-8.72423
-9.54573
-11.4985
-11.371
-8.55659
-9.43669
-10.7793
-13.7051
-8.27081
-9.14224
-10.529
-13.5887
-7.87192
-8.59154
-9.73326
-11.6388
-7.42348
-7.89777
-8.56012
-9.1983
-6.98089
-7.21557
-7.41435
-7.2297
-6.57673
-6.63074
-6.54739
-6.0706
-6.22423
-6.15553
-5.92567
-5.37215
-5.92943
-5.78484
-5.48911
-4.95014
-5.69251
-5.50653
-5.19225
-4.70145
-5.5094
-5.30644
-4.99896
-4.56397
-5.37404
-5.17021
-4.88141
-4.50055
-5.27954
-5.08265
-4.81922
-4.48793
-5.21947
-5.03495
-4.79835
-4.51118
-5.18805
-5.01884
-4.80873
-4.56055
-5.18046
-5.02789
-4.84315
-4.6295
-5.19262
-5.05717
-4.89638
-4.71351
-5.22105
-5.10282
-4.96451
-4.80932
-5.26442
-5.16187
-5.04451
-4.91445
-5.31737
-5.2314
-5.13398
-5.02702
-5.3794
-5.30949
-5.23104
-5.14559
-5.44874
-5.3945
-5.33425
-5.26904
-5.52386
-5.48505
-5.4424
-5.39652
-5.60337
-5.57996
-5.55452
-5.5273
-5.6862
-5.67834
-5.6699
-5.66093
8.11585
8.02255
7.96841
7.92747
7.88179
7.83683
7.79102
7.74443
7.69773
7.65158
7.60729
7.56537
7.52682
7.49244
7.4629
7.43871
7.42022
7.40774
7.40147
7.93845
7.88957
7.85094
7.8077
7.76334
7.71702
7.6686
7.61854
7.56773
7.51736
7.46813
7.42171
7.37909
7.34116
7.30865
7.28207
7.26181
7.24814
7.24128
7.72762
7.74866
7.72264
7.68386
7.64247
7.59667
7.54624
7.49223
7.43619
7.37982
7.32476
7.2727
7.22497
7.18264
7.14649
7.11704
7.09464
7.07956
7.072
7.73789
7.63562
7.57394
7.55081
7.51878
7.47649
7.42489
7.3662
7.30337
7.23931
7.17658
7.11739
7.06335
7.0157
6.97525
6.94248
6.91765
6.90099
6.89265
8.05179
7.47757
7.389
7.39595
7.39132
7.35891
7.30678
7.24172
7.16953
7.0951
7.02242
6.95428
6.89265
6.83879
6.79347
6.75703
6.7296
6.71127
6.70213
5.60855
7.26666
7.22599
7.22427
7.26544
7.25199
7.19668
7.12068
7.03452
6.94579
6.86025
6.78122
6.71072
6.64994
6.59939
6.55914
6.52907
6.50909
6.49916
-3.30477
6.99503
7.19337
7.09341
7.15277
7.16728
7.10185
7.005
6.89732
6.78883
6.68686
6.59498
6.51472
6.44672
6.39096
6.34707
6.31457
6.2931
6.28246
-25.826
4.7211
6.82136
7.01202
7.06909
7.11153
7.02705
6.89496
6.75395
6.6191
6.49719
6.39105
6.30094
6.22626
6.166
6.1191
6.08467
6.06206
6.05087
-45.4851
-1.25046
5.87418
7.01066
7.11408
7.12215
6.99372
6.788
6.59536
6.42648
6.28288
6.16336
6.06514
5.98556
5.92236
5.87368
5.83818
5.81496
5.8035
-46.4842
-4.82006
6.30919
7.69201
7.54333
7.29202
6.97204
6.65177
6.39569
6.1932
6.03257
5.90488
5.803
5.72201
5.65839
5.60969
5.5743
5.5512
5.53981
-39.2014
3.30851
10.017
9.05494
8.03366
7.40067
6.83637
6.40958
6.11278
5.89693
5.73476
5.60978
5.5117
5.43424
5.37345
5.32683
5.29287
5.27067
5.25972
-32.2613
4.13046
8.51743
8.52475
7.62577
6.96874
6.38045
5.98011
5.71287
5.52467
5.38516
5.27736
5.1918
5.12316
5.06842
5.02583
4.99447
4.97383
4.96361
-22.3936
0.0530452
5.34251
6.47326
6.4261
5.98871
5.61439
5.37012
5.20662
5.08705
4.99281
4.91472
4.84854
4.79248
4.74584
4.70844
4.68034
4.66161
4.65229
-22.4685
-4.41612
2.71093
4.38627
4.67654
4.62466
4.62838
4.64875
4.64425
4.61758
4.5799
4.53618
4.49094
4.44784
4.4093
4.37703
4.35213
4.3353
4.32688
-27.2154
-8.42235
0.398375
2.41217
2.62401
3.07272
3.57931
3.94029
4.10487
4.16499
4.17572
4.15878
4.1289
4.09508
4.06236
4.03386
4.01145
3.99616
3.98846
-27.0642
-11.6263
-0.843419
2.10316
1.30902
1.83002
2.7632
3.41022
3.68371
3.7797
3.80563
3.79562
3.76939
3.73802
3.70726
3.68044
3.65941
3.6451
3.63792
-13.1753
-11.3473
-3.76644
3.30192
1.53379
1.66587
2.60668
3.23121
3.44218
3.48421
3.47667
3.44819
3.4123
3.37636
3.34396
3.31701
3.29646
3.2827
3.27585
-13.9748
-15.343
-5.76725
6.45518
3.56443
2.8845
3.17172
3.34009
3.31438
3.23371
3.16178
3.10063
3.0487
3.0054
2.97021
2.94271
2.92251
2.90928
2.90276
-16.0728
-20.2919
-10.2852
2.07895
3.96662
3.90305
3.58998
3.31364
3.08562
2.92279
2.80934
2.72715
2.66558
2.6187
2.58304
2.55643
2.53747
2.52527
2.51932
-16.9728
-17.7345
-6.67361
0.34468
2.89341
3.25303
3.1115
2.86052
2.65017
2.49887
2.39075
2.31257
2.25514
2.21256
2.18101
2.15799
2.14185
2.13156
2.12657
-13.3405
-11.3357
-4.92423
-0.653111
1.53658
2.21568
2.27628
2.17451
2.0717
1.98375
1.91358
1.85967
1.81882
1.78816
1.7654
1.7488
1.73716
1.72974
1.72616
-8.90307
-7.14148
-3.75473
-0.889396
0.513908
1.12065
1.35486
1.42
1.43387
1.42146
1.40147
1.38163
1.36447
1.35061
1.33984
1.33172
1.32589
1.32214
1.32034
-6.2822
-4.96918
-3.12959
-1.47548
-0.424223
0.185917
0.519531
0.700407
0.798955
0.851539
0.879147
0.894182
0.902284
0.906778
0.909255
0.910549
0.911192
0.911519
0.911785
-5.11677
-4.09531
-2.92154
-1.88135
-1.10041
-0.551834
-0.189605
0.0461452
0.199226
0.299342
0.365814
0.410767
0.441788
0.463557
0.478818
0.489307
0.496407
0.500764
0.503396
-4.57075
-3.80333
-2.97429
-2.22129
-1.60566
-1.13199
-0.782845
-0.530638
-0.349895
-0.220396
-0.12709
-0.0593282
-0.00979034
0.0265082
0.0529309
0.0717932
0.0847516
0.0928138
0.097692
-4.2915
-3.70535
-3.09068
-2.51403
-2.01596
-1.60798
-1.28585
-1.03699
-0.846954
-0.702654
-0.593247
-0.51027
-0.447442
-0.400087
-0.364777
-0.339036
-0.321064
-0.309749
-0.303207
-4.16008
-3.69774
-3.2214
-2.76684
-2.35891
-2.00925
-1.71935
-1.48433
-1.29653
-1.14787
-1.03094
-0.939439
-0.868269
-0.81339
-0.771663
-0.740734
-0.718859
-0.704947
-0.697284
-4.11619
-3.74303
-3.36196
-2.99428
-2.65614
-2.35688
-2.09979
-1.88376
-1.70514
-1.55921
-1.44114
-1.3464
-1.27106
-1.21184
-1.16606
-1.13166
-1.10708
-1.09131
-1.08297
-4.12692
-3.82044
-3.50902
-3.20621
-2.92294
-2.66647
-2.44036
-2.24521
-2.07957
-1.94087
-1.82605
-1.732
-1.6558
-1.5949
-1.54718
-1.51091
-1.48477
-1.46789
-1.45923
-4.17372
-3.9187
-3.66039
-3.40789
-3.16883
-2.94878
-2.75103
-2.57684
-2.42595
-2.29707
-2.18837
-2.09777
-2.02321
-1.96279
-1.91489
-1.87815
-1.85148
-1.83418
-1.82551
-4.24542
-4.03135
-3.81502
-3.60277
-3.4001
-3.21128
-3.03911
-2.88504
-2.7494
-2.63168
-2.53084
-2.44558
-2.37449
-2.31623
-2.26959
-2.23353
-2.20722
-2.19007
-2.18164
-4.33505
-4.15448
-3.97234
-3.79317
-3.62103
-3.45917
-3.30993
-3.17472
-3.05413
-2.9481
-2.85612
-2.77743
-2.71111
-2.65625
-2.61198
-2.57754
-2.55229
-2.53578
-2.52779
-4.43812
-4.2856
-4.13198
-3.9806
-3.83446
-3.6961
-3.56741
-3.44968
-3.34357
-3.2493
-3.16669
-3.09532
-3.03466
-2.98409
-2.94301
-2.91089
-2.88724
-2.87173
-2.86433
-4.55156
-4.42299
-4.29365
-4.16602
-4.04239
-3.9247
-3.8145
-3.71289
-3.62058
-3.53786
-3.46479
-3.40118
-3.34673
-3.30105
-3.26374
-3.23443
-3.21278
-3.19854
-3.19183
-4.67315
-4.56537
-4.45708
-4.35012
-4.24624
-4.14694
-4.05348
-3.9668
-3.88753
-3.81604
-3.75247
-3.69679
-3.64885
-3.60842
-3.57525
-3.5491
-3.52972
-3.51694
-3.51099
-4.8012
-4.71181
-4.62207
-4.5334
-4.4471
-4.36437
-4.2862
-4.21336
-4.14642
-4.08574
-4.03151
-3.98376
-3.94246
-3.90748
-3.87867
-3.85588
-3.83895
-3.82775
-3.8226
-4.93448
-4.86159
-4.7885
-4.71625
-4.64586
-4.57823
-4.51415
-4.45423
-4.39895
-4.34863
-4.30347
-4.26356
-4.22889
-4.19943
-4.1751
-4.15578
-4.1414
-4.13186
-4.12754
-5.07204
-5.01422
-4.9563
-4.89906
-4.84324
-4.78954
-4.73854
-4.69074
-4.64651
-4.60612
-4.56975
-4.5375
-4.50941
-4.48546
-4.46562
-4.44984
-4.43806
-4.43022
-4.42675
-5.21317
-5.16933
-5.12546
-5.08211
-5.03984
-4.99912
-4.9604
-4.92404
-4.89032
-4.85945
-4.83158
-4.8068
-4.78516
-4.76667
-4.75132
-4.73908
-4.72993
-4.72381
-4.7212
-5.35735
-5.32667
-5.29599
-5.26571
-5.23616
-5.2077
-5.1806
-5.15512
-5.13145
-5.10974
-5.0901
-5.07261
-5.0573
-5.04419
-5.03329
-5.02459
-5.01806
-5.01368
-5.01192
-5.50413
-5.48601
-5.46792
-5.45006
-5.43265
-5.41587
-5.39988
-5.38484
-5.37085
-5.358
-5.34637
-5.33599
-5.32689
-5.31909
-5.31259
-5.3074
-5.3035
-5.30084
-5.29991
-5.65332
-5.64738
-5.64146
-5.63562
-5.62992
-5.62443
-5.6192
-5.61428
-5.60969
-5.60548
-5.60166
-5.59824
-5.59525
-5.59268
-5.59053
-5.58881
-5.58753
-5.58663
-5.58637
)
;

boundaryField
{
    leftWall
    {
        type            calculated;
        value           nonuniform List<scalar> 
50
(
1818.48
1758.59
1697.69
1635.78
1572.91
1509.12
1444.49
1379.08
1275.6
1131.79
985.712
837.892
688.853
539.372
390.642
243.185
104.101
18.5296
-3.54332
-3.67037
-3.81513
-3.96055
-4.101
-4.23737
-4.36744
-4.48845
-4.59874
-4.69914
-4.79058
-4.8739
-4.94998
-5.01965
-5.08375
-5.14302
-5.19809
-5.24955
-5.29792
-5.34371
-5.38738
-5.42937
-5.47007
-5.50985
-5.54906
-5.58798
-5.62682
-5.66567
-5.70503
-5.74627
-5.78785
-5.82076
)
;
    }
    rightWall
    {
        type            calculated;
        value           nonuniform List<scalar> 
50
(
7.96784
7.90754
7.84573
7.7824
7.71752
7.65106
7.58298
7.51322
7.40147
7.24128
7.072
6.89265
6.70213
6.49916
6.28246
6.05087
5.8035
5.53981
5.25972
4.96361
4.65229
4.32688
3.98846
3.63792
3.27585
2.90276
2.51932
2.12657
1.72616
1.32034
0.911785
0.503396
0.097692
-0.303207
-0.697284
-1.08297
-1.45923
-1.82551
-2.18164
-2.52779
-2.86433
-3.19183
-3.51099
-3.8226
-4.12754
-4.42675
-4.7212
-5.01192
-5.29991
-5.58637
)
;
    }
    lowerWall
    {
        type            calculated;
        value           nonuniform List<scalar> 
62
(
1847.91
1854.87
1857.18
1854.76
1848.85
1841.53
1834.05
1826.89
1820.41
1815.13
1811.8
1811.61
1816.22
1827.98
1849.94
1886.94
1941.64
2016.77
2107.57
2195.58
2245.41
2240.44
2281.03
2258.16
2207.06
2184.33
2163.74
2102.42
1983.43
1791.27
1508.32
-17.3123
5.89551
8.55168
8.13723
8.45147
8.39613
8.3436
8.29459
8.24863
8.21161
8.17496
8.14974
8.4809
8.46739
8.44647
8.41965
8.38803
8.35312
8.31608
8.27793
8.23957
8.20188
8.16558
8.13142
8.10002
8.07197
8.04778
8.02789
8.01269
8.00243
7.99727
)
;
    }
    atmosphere
    {
        type            calculated;
        value           nonuniform List<scalar> 
46
(
-5.82901
-5.8294
-5.82792
-5.82565
-5.82262
-5.81893
-5.81463
-5.80982
-5.80457
-5.79894
-5.79299
-5.78677
-5.78035
-5.77379
-5.76721
-5.76072
-5.75445
-5.74852
-5.74309
-5.73829
-5.73432
-5.7314
-5.72962
-5.72904
-5.72904
-5.72904
-5.72904
-5.72904
-5.72904
-5.72904
-5.72904
-5.72904
-5.72904
-5.72904
-5.72904
-5.72904
-5.72904
-5.72904
-5.72904
-5.72904
-5.72904
-5.72904
-5.72904
-5.72904
-5.72904
-5.72904
)
;
    }
    defaultFaces
    {
        type            empty;
    }
}


// ************************************************************************* //
