/*--------------------------------*- C++ -*----------------------------------*\
| =========                 |                                                 |
| \\      /  F ield         | OpenFOAM: The Open Source CFD Toolbox           |
|  \\    /   O peration     | Version:  2206                                  |
|   \\  /    A nd           | Website:  www.openfoam.com                      |
|    \\/     M anipulation  |                                                 |
\*---------------------------------------------------------------------------*/
FoamFile
{
    version     2.0;
    format      ascii;
    arch        "LSB;label=32;scalar=64";
    class       volScalarField;
    location    "0.225";
    object      p_rgh;
}
// * * * * * * * * * * * * * * * * * * * * * * * * * * * * * * * * * * * * * //

dimensions      [1 -1 -2 0 0 0 0];

internalField   nonuniform List<scalar> 
2268
(
1847.91
1854.87
1857.18
1854.76
1848.85
1841.53
1834.05
1826.89
1820.41
1815.13
1811.8
1811.61
1816.22
1827.98
1849.94
1886.94
1941.64
2016.77
2107.57
2195.58
2245.41
2240.44
2281.03
1846.88
1853.75
1856
1853.52
1847.59
1840.27
1832.76
1825.52
1818.93
1813.48
1809.95
1809.48
1813.78
1825.08
1846.24
1879.83
1930.15
1999.94
2088.09
2179.98
2238.41
2231.2
2281.96
1844.83
1851.52
1853.65
1851.04
1845.08
1837.75
1830.17
1822.79
1815.95
1810.17
1806.2
1805.21
1808.86
1819.32
1839.25
1871.49
1919.22
1983.34
2062.03
2146.18
2218.47
2253.18
2320.4
1841.78
1848.22
1850.16
1847.36
1841.34
1833.98
1826.29
1818.69
1811.48
1805.18
1800.56
1798.78
1801.46
1810.7
1829.07
1859.29
1903.93
1963.61
2035.95
2113.23
2191.88
2263.05
2354.58
1837.77
1843.9
1845.57
1842.52
1836.4
1829
1821.16
1813.22
1805.51
1798.5
1793
1790.14
1791.51
1799.16
1815.51
1843.17
1884.36
1939.71
2007.59
2081.48
2160.82
2244.48
2351.58
1832.85
1838.64
1839.96
1836.58
1830.34
1822.85
1814.78
1806.4
1798.01
1790.11
1783.46
1779.22
1778.92
1784.52
1798.37
1822.94
1860.31
1911.15
1974.41
2044.92
2120.47
2198.35
2298.1
1827.07
1832.51
1833.34
1829.57
1823.19
1815.58
1807.21
1798.26
1789.04
1780.02
1771.99
1766.05
1763.69
1766.79
1777.59
1798.43
1831.33
1877.13
1934.83
1999.95
2066.48
2125.35
2172.42
1820.52
1825.52
1825.7
1821.47
1814.96
1807.22
1798.47
1788.84
1778.63
1768.32
1758.68
1750.76
1746.02
1746.21
1753.45
1769.89
1797.49
1837.3
1888.13
1945.2
1996.79
2029.04
1949.76
8.4809
8.46739
8.44647
8.41965
8.38803
8.35312
8.31608
8.27793
8.23957
8.20188
8.16558
8.13142
8.10002
8.07197
8.04778
8.02789
8.01269
8.00243
7.99727
8.48442
8.46937
8.44805
8.42082
8.38883
8.35363
8.31633
8.27795
8.23937
8.20144
8.16497
8.13063
8.09908
8.07088
8.04658
8.0266
8.01133
8.00102
7.99583
8.49075
8.47387
8.45129
8.42325
8.39046
8.35465
8.31683
8.27799
8.23898
8.20065
8.16377
8.12906
8.09717
8.06869
8.04415
8.02398
8.00855
7.99813
7.99288
8.5006
8.48101
8.45605
8.42679
8.39283
8.35613
8.31757
8.27804
8.23839
8.19944
8.16196
8.1267
8.0943
8.06539
8.04048
8.02001
8.00434
7.99375
7.98841
8.51349
8.49155
8.46204
8.43143
8.39592
8.35805
8.31851
8.27809
8.2376
8.19782
8.15954
8.12353
8.09045
8.06094
8.03554
8.01466
7.99867
7.98785
7.98239
8.53533
8.50519
8.46852
8.43712
8.39961
8.36033
8.31961
8.27811
8.23658
8.19578
8.15652
8.11956
8.08561
8.05533
8.02928
8.00788
7.99148
7.98038
7.97479
8.55755
8.51936
8.47672
8.44384
8.40377
8.36293
8.32086
8.2781
8.23533
8.1933
8.15287
8.11475
8.07974
8.04853
8.02167
7.99962
7.98274
7.97132
7.96556
8.59118
8.53492
8.48548
8.45185
8.40836
8.36578
8.32224
8.27805
8.23386
8.19035
8.14855
8.10909
8.07282
8.04048
8.01267
7.98985
7.9724
7.9606
7.95466
1809.06
1813.23
1812.36
1807.42
1800.58
1792.46
1782.92
1771.97
1759.91
1747.22
1734.6
1723.03
1713.86
1708.69
1709.43
1717.96
1735.98
1764.55
1802.23
1842.9
1859.84
1815.76
1413.15
1790.46
1793.41
1791.02
1784.97
1777.3
1768.04
1756.7
1743.15
1727.6
1710.4
1692.05
1673.3
1655.32
1639.4
1627.48
1621.32
1622.95
1631.21
1642.96
1651.6
1634.78
1561.47
1319.37
1769.57
1771.13
1766.94
1759.62
1750.83
1739.93
1726.12
1709.18
1689.15
1666.09
1640.2
1611.72
1581.81
1550.81
1519.75
1490.37
1467.34
1459.38
1462.36
1457.98
1460
1426.29
1334.67
1746.94
1746.99
1740.89
1732.22
1721.97
1708.86
1691.91
1670.81
1645.33
1615.12
1580.02
1539.62
1494.77
1441.1
1374.19
1300.75
1211.44
1083.35
947.904
968.04
1080.5
1182.01
1188.53
1723.1
1721.35
1713.41
1703.34
1691.35
1675.61
1655.04
1629.33
1597.98
1560.17
1515.18
1460.86
1394.05
1301.76
1094.78
798.062
480.582
241.338
61.9384
75.0286
137.272
254.481
456.924
1698.81
1694.78
1685.21
1673.95
1660.15
1641.67
1617.38
1587.17
1550.26
1504.3
1447
1369.97
1185.62
750.629
176.419
2.34879
-0.479283
-1.79138
-2.4087
-2.85358
-2.84936
-1.80971
0.781668
1675.24
1668.84
1658.16
1645.7
1630.08
1608.87
1580.24
1544.58
1500.41
1426.4
1236.58
808.191
229.079
-0.629497
-1.67378
-1.05408
-1.78575
-2.65114
-3.09757
-3.39972
-3.75137
-4.03931
-4.05972
1652.43
1641.95
1630.44
1616.03
1597.71
1570.56
1505.79
1366.1
1104.68
667.001
221.148
-1.90954
-2.51501
-2.22224
-2.12671
-1.81997
-0.577187
-2.02765
-3.74744
-4.14834
-4.35436
-4.68769
-4.98418
1583.93
1374.2
1360.29
1290.08
1148.64
934.688
621.174
325.816
64.4203
-2.11939
-2.4634
-2.46217
-2.54853
-2.51792
-2.42117
0.358339
1.92159
0.48334
-4.05553
-4.59657
-4.68992
-4.97233
-5.3063
597.686
252.136
235.535
173.918
86.3009
0.860678
-1.7684
-1.98852
-2.11046
-2.27133
-2.50185
-2.69727
-2.83531
-2.86183
-2.77244
2.17479
1.83775
0.837558
-4.33101
-4.7878
-4.86627
-5.1396
-5.50787
-1.75791
-1.7393
-1.75964
-1.79635
-1.83029
-1.8156
-1.87275
-1.99072
-2.15419
-2.37603
-2.66418
-2.98142
-3.20146
-3.35055
-3.24449
1.50807
1.96575
-0.97142
-4.77057
-4.86072
-4.96869
-5.2679
-5.6652
-1.75976
-1.7481
-1.76641
-1.79502
-1.82504
-1.85565
-1.91928
-2.03215
-2.22375
-2.50336
-2.88454
-2.94089
-2.66218
-3.78406
-3.74059
-0.215932
2.08483
-2.94556
-4.81511
-4.85667
-5.01239
-5.3404
-5.71494
-1.77933
-1.77524
-1.7905
-1.81676
-1.84961
-1.89474
-1.9708
-2.09305
-2.3107
-2.62809
-2.73303
-2.39127
-3.00214
-4.10917
-3.68046
0.749015
-0.284349
-4.4996
-4.72966
-4.81991
-5.01637
-5.34549
-5.70842
-1.79956
-1.80929
-1.82131
-1.84512
-1.8803
-1.93257
-2.01444
-2.14497
-2.37944
-2.72459
-1.8698
-2.51219
-3.14121
-4.23023
-3.91972
0.744064
-3.02994
-4.59158
-4.64016
-4.7657
-4.99062
-5.3216
-5.72009
-1.81481
-1.83053
-1.84366
-1.8688
-1.90655
-1.96233
-2.04587
-2.17768
-2.4087
-2.74534
-2.73284
-2.52717
-2.95723
-3.78833
-2.50982
-2.307
-4.42235
-4.45171
-4.53751
-4.69585
-4.94011
-5.28317
-5.7356
-1.82599
-1.84315
-1.85776
-1.88481
-1.92507
-1.98056
-2.06251
-2.18849
-2.39646
-2.70824
-3.14204
-3.65128
-3.7231
-2.62519
-2.44797
-3.39582
-4.23023
-4.29468
-4.42281
-4.60961
-4.871
-5.23084
-5.69021
-1.83086
-1.84563
-1.86223
-1.89038
-1.93134
-1.9879
-2.06596
-2.17921
-2.35223
-2.60681
-2.94471
-3.32642
-3.65798
-3.84964
-3.90254
-3.93118
-4.01251
-4.13228
-4.2916
-4.49867
-4.76949
-5.13028
-5.60003
-1.82667
-1.83804
-1.85648
-1.88523
-1.92642
-1.9824
-2.05682
-2.15766
-2.29917
-2.49581
-2.74794
-3.02601
-3.27487
-3.45344
-3.57072
-3.67853
-3.81005
-3.96124
-4.13754
-4.35317
-4.62206
-4.96762
-5.41969
-1.81177
-1.82167
-1.84047
-1.86931
-1.91003
-1.96463
-2.03561
-2.12748
-2.24785
-2.40389
-2.59373
-2.80128
-3.00065
-3.17343
-3.322
-3.46518
-3.61546
-3.77617
-3.95712
-4.16961
-4.42614
-4.74572
-5.15543
-1.78698
-1.79622
-1.81465
-1.84289
-1.88236
-1.93471
-2.00184
-2.08647
-2.19251
-2.32306
-2.47594
-2.64259
-2.81076
-2.9702
-3.11995
-3.26699
-3.41701
-3.57542
-3.75001
-3.94875
-4.18262
-4.46608
-4.81743
-1.75322
-1.76196
-1.77959
-1.80661
-1.84408
-1.89327
-1.95566
-2.03298
-2.1272
-2.23944
-2.36785
-2.507
-2.64998
-2.79183
-2.93159
-3.07086
-3.2122
-3.36007
-3.51956
-3.69607
-3.89778
-4.13405
-4.4128
-1.71135
-1.71953
-1.73607
-1.76138
-1.79626
-1.84165
-1.89861
-1.96825
-2.05156
-2.14869
-2.25798
-2.37594
-2.49862
-2.62325
-2.74871
-2.87469
-3.00213
-3.13369
-3.27224
-3.421
-3.58463
-3.76747
-3.97076
-1.66223
-1.66976
-1.68497
-1.70823
-1.74014
-1.78139
-1.83266
-1.89462
-1.96778
-2.05192
-2.14556
-2.24618
-2.35125
-2.45912
-2.56865
-2.67874
-2.78924
-2.90118
-3.01571
-3.13414
-3.25802
-3.38766
-3.5209
-1.60671
-1.61352
-1.62726
-1.64823
-1.67695
-1.71389
-1.75946
-1.81402
-1.87776
-1.95033
-2.03045
-2.11611
-2.2055
-2.29739
-2.39069
-2.484
-2.57637
-2.66757
-2.75745
-2.84571
-2.9317
-3.01334
-3.08682
-1.54562
-1.55166
-1.56384
-1.58242
-1.60785
-1.64046
-1.68046
-1.72796
-1.78296
-1.84504
-1.9131
-1.98551
-2.06073
-2.13764
-2.21519
-2.29189
-2.36631
-2.43729
-2.50368
-2.56404
-2.61637
-2.65741
-2.68246
-1.47969
-1.48495
-1.49554
-1.51171
-1.53387
-1.56225
-1.59691
-1.63779
-1.68473
-1.73726
-1.79444
-1.85487
-1.91719
-1.98029
-2.04307
-2.10405
-2.16151
-2.21376
-2.25901
-2.29509
-2.31915
-2.32753
-2.31537
-1.40957
-1.41406
-1.42311
-1.43696
-1.45596
-1.4803
-1.50993
-1.54468
-1.58425
-1.62814
-1.67548
-1.72508
-1.7757
-1.82621
-1.87551
-1.92209
-1.96412
-1.9997
-2.02669
-2.04252
-2.04401
-2.0275
-1.98852
-1.33583
-1.3396
-1.34722
-1.35889
-1.37493
-1.39548
-1.42044
-1.44958
-1.48248
-1.5186
-1.55714
-1.59704
-1.63715
-1.67638
-1.71361
-1.74739
-1.77589
-1.79711
-1.80881
-1.80838
-1.79267
-1.75825
-1.70121
-1.25901
-1.26213
-1.26845
-1.27814
-1.29146
-1.30851
-1.32919
-1.35322
-1.38016
-1.4094
-1.44016
-1.47148
-1.50232
-1.53163
-1.5583
-1.58099
-1.59793
-1.60717
-1.60655
-1.59358
-1.56539
-1.51891
-1.45089
-1.1796
-1.18217
-1.18735
-1.19529
-1.20617
-1.22005
-1.23683
-1.25624
-1.27785
-1.30103
-1.32502
-1.34891
-1.3717
-1.39244
-1.41009
-1.4234
-1.43077
-1.43037
-1.42021
-1.39803
-1.36131
-1.30751
-1.23403
-1.09808
-1.10017
-1.10438
-1.11081
-1.11955
-1.13059
-1.14387
-1.15915
-1.17601
-1.19389
-1.21202
-1.22955
-1.24551
-1.25903
-1.26915
-1.27474
-1.2744
-1.26652
-1.2493
-1.22077
-1.17881
-1.12139
-1.04649
-1.01487
-1.01656
-1.01996
-1.02509
-1.03198
-1.04057
-1.05076
-1.06236
-1.07503
-1.08826
-1.10135
-1.1135
-1.12379
-1.13136
-1.13536
-1.1348
-1.12849
-1.11504
-1.09291
-1.06043
-1.0159
-0.957665
-0.884215
-0.930379
-0.931721
-0.934424
-0.938477
-0.943791
-0.950268
-0.95779
-0.966192
-0.975196
-0.984381
-0.993161
-1.00078
-1.00642
-1.00923
-1.00843
-1.00317
-0.992454
-0.975132
-0.949929
-0.915497
-0.870456
-0.81353
-0.743608
-0.844967
-0.846012
-0.84812
-0.851244
-0.855225
-0.859916
-0.865177
-0.87085
-0.876709
-0.882429
-0.887537
-0.891392
-0.893258
-0.892353
-0.887942
-0.879285
-0.865564
-0.845851
-0.819137
-0.784356
-0.740429
-0.686395
-0.621446
-0.758977
-0.759759
-0.761338
-0.763645
-0.766485
-0.769671
-0.773044
-0.776441
-0.779668
-0.782481
-0.784517
-0.785266
-0.78411
-0.780367
-0.773361
-0.762448
-0.74695
-0.726131
-0.699214
-0.665389
-0.623843
-0.573871
-0.514885
-0.672706
-0.673239
-0.674331
-0.675899
-0.677739
-0.67965
-0.681461
-0.682993
-0.684074
-0.684516
-0.684051
-0.6823
-0.678779
-0.672928
-0.664167
-0.65194
-0.635691
-0.614841
-0.588806
-0.556991
-0.518811
-0.473783
-0.421622
-0.586355
-0.586657
-0.587282
-0.588166
-0.589104
-0.589914
-0.590417
-0.590433
-0.589803
-0.588378
-0.585957
-0.582277
-0.576989
-0.569666
-0.559844
-0.54707
-0.530896
-0.510878
-0.486585
-0.4576
-0.423518
-0.384017
-0.338922
-0.500003
-0.500105
-0.500278
-0.500514
-0.500614
-0.500438
-0.49982
-0.498592
-0.496611
-0.493756
-0.489882
-0.484812
-0.478318
-0.470101
-0.45982
-0.447133
-0.431699
-0.413193
-0.391314
-0.365784
-0.336349
-0.302809
-0.265057
-0.414171
-0.41411
-0.413844
-0.413444
-0.41274
-0.41164
-0.410008
-0.407709
-0.404625
-0.400664
-0.395728
-0.389711
-0.382479
-0.373848
-0.363597
-0.351496
-0.337312
-0.320829
-0.301858
-0.280242
-0.255848
-0.228573
-0.198371
-0.330212
-0.330008
-0.329327
-0.328302
-0.326813
-0.324807
-0.322202
-0.318907
-0.314849
-0.309972
-0.304221
-0.297542
-0.289876
-0.281135
-0.271208
-0.259973
-0.247312
-0.233117
-0.217311
-0.199852
-0.180716
-0.159886
-0.137369
-0.246602
-0.246296
-0.245265
-0.243668
-0.24144
-0.238584
-0.235088
-0.230924
-0.226065
-0.220498
-0.21421
-0.20719
-0.199428
-0.190909
-0.181615
-0.17153
-0.160645
-0.148966
-0.136519
-0.123378
-0.10963
-0.0953519
-0.0806221
-0.15432
-0.154191
-0.152885
-0.150806
-0.147982
-0.144467
-0.140312
-0.135562
-0.130255
-0.124427
-0.118108
-0.111326
-0.104122
-0.0965423
-0.0886512
-0.0805254
-0.072256
-0.0639437
-0.0557036
-0.0476853
-0.040059
-0.0329856
-0.0266151
284.148
6.42014
9.02255
8.60811
716.057
155.293
9.7428
8.48818
1028.4
721.281
124.068
8.46024
1095.64
941.161
551.351
36.4094
993.45
1013.21
963.727
331.585
132.294
891.782
1005.7
713.972
-2.71681
478.381
1027.08
961.408
-5.35021
-2.15452
867.45
936.444
-5.83981
-6.45209
573.882
967.458
-6.0627
-7.13288
181.896
957.901
-6.21109
-7.198
190.126
947.268
-6.2688
-7.22778
295.541
924.867
-6.2239
-7.20161
484.449
857.429
-5.71564
-6.88011
334.755
765.072
-5.92161
-6.80473
-5.6005
720.485
-5.9934
-4.21264
-8.80217
681.688
-6.16992
-5.66203
-8.47578
351.691
-6.05572
-6.69207
-3.37991
-4.89911
-5.76193
-6.51685
-6.19591
-8.86378
-5.35298
-6.20192
-7.35008
-4.94631
-4.83103
-5.53442
-6.56126
-5.22807
-4.25952
-4.72681
-5.3417
-4.54215
-3.6929
-3.92608
-4.11459
-3.60195
-3.16376
-3.21757
-3.13261
-2.61745
-2.6861
-2.61737
-2.3872
-1.83099
-2.2661
-2.12151
-1.82575
-1.28659
-1.90398
-1.71801
-1.40373
-0.912909
-1.59568
-1.39272
-1.08524
-0.650251
-1.33513
-1.13129
-0.842492
-0.461634
-1.11543
-0.918538
-0.655113
-0.323821
-0.930168
-0.745649
-0.509046
-0.22188
-0.77355
-0.604346
-0.394233
-0.146049
-0.640772
-0.488199
-0.303462
-0.0898048
-0.527736
-0.392279
-0.231497
-0.0486248
-0.430972
-0.312739
-0.174426
-0.0192346
-0.349149
-0.246597
-0.129238
0.000828253
-0.276897
-0.190927
-0.0935068
0.0134517
-0.213731
-0.143821
-0.0653788
0.0200765
-0.15788
-0.10364
-0.043386
0.0218146
-0.107804
-0.0689999
-0.0263457
0.019534
-0.0621251
-0.0387106
-0.0132701
0.013949
-0.0197588
-0.0118966
-0.00345984
0.0055118
8.64932
8.55602
8.50187
8.46093
8.41526
8.37029
8.32449
8.2779
8.23119
8.18505
8.14076
8.09884
8.06028
8.02591
7.99637
7.97217
7.95369
7.94121
7.93493
8.59716
8.54827
8.5096
8.46636
8.422
8.37568
8.32726
8.2772
8.22639
8.17602
8.12679
8.08037
8.03775
7.99983
7.96731
7.94073
7.92047
7.90681
7.89994
8.52029
8.53369
8.50663
8.46772
8.42633
8.38053
8.33009
8.27608
8.22005
8.16368
8.10862
8.05656
8.00883
7.9665
7.93035
7.90089
7.87849
7.86342
7.85585
8.89125
8.57672
8.48675
8.46009
8.42785
8.38555
8.33394
8.27525
8.21242
8.14836
8.08563
8.02644
7.9724
7.92475
7.8843
7.85153
7.8267
7.81004
7.8017
16.4661
8.95432
8.49036
8.43639
8.42602
8.39319
8.34103
8.27597
8.20377
8.12935
8.05666
7.98853
7.92689
7.87303
7.82772
7.79128
7.76384
7.74551
7.73637
130.419
14.0814
9.05133
8.45014
8.43183
8.41198
8.35616
8.28012
8.19396
8.10523
8.01968
7.94066
7.87016
7.80938
7.75883
7.71858
7.68851
7.66853
7.6586
371.879
37.9721
11.6816
8.80052
8.48495
8.45661
8.3869
8.28966
8.18195
8.07346
7.97149
7.87961
7.79936
7.73135
7.6756
7.6317
7.5992
7.57774
7.5671
793.085
180.988
17.1592
9.94492
8.68928
8.54581
8.43936
8.30501
8.16379
8.02893
7.90702
7.80088
7.71077
7.63609
7.57583
7.52893
7.4945
7.47189
7.4607
951.672
393.297
34.6632
12.1921
9.27063
8.74314
8.53847
8.32393
8.13046
7.96151
7.8179
7.69838
7.60016
7.52059
7.45739
7.40871
7.3732
7.34998
7.33852
956.591
683.539
79.2182
15.2637
10.3079
9.10869
8.65002
8.31367
8.05604
7.85342
7.69279
7.56509
7.46322
7.38223
7.31861
7.26991
7.23451
7.21141
7.20003
1006.59
648.725
63.7988
16.2391
10.7392
9.29914
8.63347
8.19606
7.89827
7.68235
7.52018
7.39519
7.29711
7.21965
7.15886
7.11224
7.07828
7.05609
7.04513
760.953
324.222
30.737
13.5289
9.90108
8.92435
8.29439
7.89102
7.6235
7.43528
7.29577
7.18796
7.10241
7.03377
6.97903
6.93644
6.90507
6.88444
6.87422
311.176
33.4291
17.0762
10.0084
8.91111
8.11464
7.65076
7.40598
7.24243
7.12286
7.02861
6.95052
6.88434
6.82828
6.78165
6.74425
6.71614
6.69742
6.68809
314.227
15.0411
8.37939
7.08541
7.03843
6.93815
6.81853
6.80979
6.80526
6.77858
6.7409
6.69717
6.65193
6.60884
6.5703
6.53802
6.51313
6.4963
6.48787
665.069
176.629
5.55796
5.09745
5.04806
5.48477
5.92347
6.22917
6.39109
6.45119
6.46192
6.44497
6.41509
6.38127
6.34855
6.32005
6.29764
6.28235
6.27466
688.716
679.732
78.288
7.14375
4.14028
4.39742
5.25331
5.82873
6.09559
6.19112
6.21702
6.20701
6.18078
6.1494
6.11865
6.09183
6.07079
6.05649
6.0493
714.077
697.035
632.475
120.066
6.83556
4.77042
5.35288
5.79847
5.98163
6.0211
6.01327
5.98477
5.94888
5.91294
5.88054
5.85359
5.83304
5.81928
5.81243
620.026
694.771
677.145
377.017
33.9241
8.97351
6.55414
6.11022
5.98858
5.89659
5.82363
5.76241
5.71047
5.66718
5.63198
5.60448
5.58429
5.57106
5.56454
137.864
482.857
559.382
389.052
38.3529
9.85145
6.95795
6.18355
5.88193
5.7106
5.59637
5.51412
5.45255
5.40567
5.37001
5.3434
5.32444
5.31224
5.30629
-5.70496
91.0767
101.574
73.105
38.3863
9.72008
6.45065
5.82467
5.56677
5.41138
5.30294
5.22473
5.1673
5.12472
5.09318
5.07016
5.05401
5.04372
5.03873
-1.19645
3.08482
10.7313
9.53571
11.9273
6.79261
5.49949
5.23382
5.11091
5.02123
4.95095
4.89703
4.85617
4.82552
4.80276
4.78616
4.77451
4.7671
4.76352
-1.64603
-1.18187
2.65228
4.13102
4.28438
4.39378
4.53378
4.5849
4.59674
4.58405
4.56403
4.54419
4.52702
4.51316
4.50239
4.49427
4.48844
4.48469
4.48289
-2.35274
-1.11547
0.844662
2.21929
3.00041
3.49921
3.81075
3.98857
4.08674
4.13929
4.16689
4.18193
4.19003
4.19452
4.197
4.1983
4.19894
4.19927
4.19953
-1.62489
-0.586283
0.612761
1.60695
2.33861
2.86644
3.22403
3.45916
3.61217
3.71228
3.77875
3.82371
3.85473
3.8765
3.89176
3.90225
3.90935
3.91371
3.91634
-1.02581
-0.251185
0.582207
1.32887
1.93681
2.40715
2.75542
3.00751
3.18824
3.31774
3.41105
3.47881
3.52835
3.56464
3.59107
3.60993
3.62289
3.63095
3.63583
-0.627371
-0.0402264
0.575086
1.15098
1.648
2.05551
2.3775
2.62634
2.81638
2.96068
3.07008
3.15306
3.21589
3.26324
3.29855
3.32429
3.34227
3.35358
3.36012
-0.371464
0.0909923
0.567409
1.0219
1.42969
1.7793
2.06918
2.3042
2.492
2.64065
2.75759
2.84909
2.92026
2.97513
3.01686
3.04779
3.06967
3.08358
3.09124
-0.202463
0.170707
0.551794
0.91946
1.25759
1.55684
1.81393
2.02996
2.20858
2.35451
2.47258
2.56732
2.64266
2.70188
2.74766
2.78206
2.80664
2.82241
2.83075
-0.0880026
0.218479
0.529899
0.832708
1.11597
1.37244
1.59855
1.79371
1.95934
2.09804
2.21286
2.30692
2.38312
2.44401
2.49173
2.52801
2.55415
2.57103
2.57969
-0.00961389
0.245408
0.503714
0.756222
0.995281
1.21533
1.41308
1.58727
1.73816
1.86704
1.97574
2.06634
2.1409
2.20131
2.24922
2.28596
2.31262
2.32993
2.3386
0.0438815
0.257949
0.474279
0.686531
0.889199
1.07803
1.25019
1.40426
1.5399
1.65762
1.75846
1.84373
1.91481
1.97307
2.01972
2.05578
2.08208
2.09923
2.10766
0.0794462
0.260016
0.44216
0.621326
0.793472
0.95533
1.10457
1.23977
1.36037
1.4664
1.55838
1.63707
1.70338
1.75824
1.80252
1.83696
1.86221
1.87872
1.88671
0.10157
0.254094
0.407713
0.559097
0.70523
0.843593
0.972279
1.09002
1.19612
1.29039
1.37301
1.44437
1.50503
1.5556
1.59668
1.62881
1.65245
1.66796
1.67536
0.113324
0.241901
0.371239
0.498863
0.622497
0.740187
0.850388
0.951992
1.04431
1.12702
1.20009
1.2637
1.31816
1.36384
1.40115
1.43046
1.45211
1.46635
1.47305
0.116936
0.224709
0.333003
0.439957
0.543843
0.643139
0.7366
0.823285
0.902555
0.974044
1.03761
1.09329
1.14124
1.18166
1.21483
1.24098
1.26036
1.27314
1.27909
0.114074
0.203468
0.293204
0.381879
0.468173
0.550903
0.629077
0.701913
0.768851
0.829532
0.883769
0.931514
0.972819
1.0078
1.0366
1.05939
1.07633
1.08753
1.09267
0.105992
0.178877
0.251971
0.324215
0.394607
0.462237
0.526325
0.586244
0.641522
0.691837
0.736996
0.776911
0.811575
0.841036
0.865374
0.884685
0.899071
0.908613
0.912927
0.0936278
0.151441
0.209363
0.266607
0.322423
0.376126
0.427122
0.474923
0.519154
0.559542
0.595911
0.628163
0.656259
0.680209
0.700047
0.715828
0.727609
0.735449
0.738916
0.0776884
0.121526
0.1654
0.208746
0.251023
0.291737
0.330456
0.366819
0.400541
0.43141
0.45928
0.484057
0.505698
0.524188
0.53954
0.551777
0.560931
0.567046
0.569657
0.0587068
0.0893863
0.120059
0.150347
0.17989
0.208355
0.235453
0.260936
0.284607
0.306316
0.325953
0.343446
0.358754
0.37186
0.382761
0.391467
0.39799
0.402372
0.404133
0.0371226
0.0552381
0.0733312
0.0911867
0.1086
0.125382
0.141366
0.15641
0.1704
0.183246
0.194882
0.205262
0.214359
0.222158
0.228655
0.233851
0.237751
0.24041
0.241334
0.0131248
0.0190619
0.024985
0.030826
0.0365205
0.0420089
0.0472383
0.0521636
0.0567479
0.0609619
0.0647838
0.068198
0.0711942
0.0737664
0.0759117
0.0776302
0.0789159
0.0798144
0.0800777
)
;

boundaryField
{
    leftWall
    {
        type            fixedFluxPressure;
        gradient        uniform 0;
        value           nonuniform List<scalar> 
50
(
1847.91
1846.88
1844.83
1841.78
1837.77
1832.85
1827.07
1820.52
1809.06
1790.46
1769.57
1746.94
1723.1
1698.81
1675.24
1652.43
1583.93
597.686
-1.75791
-1.75976
-1.77933
-1.79956
-1.81481
-1.82599
-1.83086
-1.82667
-1.81177
-1.78698
-1.75322
-1.71135
-1.66223
-1.60671
-1.54562
-1.47969
-1.40957
-1.33583
-1.25901
-1.1796
-1.09808
-1.01487
-0.930379
-0.844967
-0.758977
-0.672706
-0.586355
-0.500003
-0.414171
-0.330212
-0.246602
-0.15432
)
;
    }
    rightWall
    {
        type            fixedFluxPressure;
        gradient        uniform 0;
        value           nonuniform List<scalar> 
50
(
7.99727
7.99583
7.99288
7.98841
7.98239
7.97479
7.96556
7.95466
7.93493
7.89994
7.85585
7.8017
7.73637
7.6586
7.5671
7.4607
7.33852
7.20003
7.04513
6.87422
6.68809
6.48787
6.27466
6.0493
5.81243
5.56454
5.30629
5.03873
4.76352
4.48289
4.19953
3.91634
3.63583
3.36012
3.09124
2.83075
2.57969
2.3386
2.10766
1.88671
1.67536
1.47305
1.27909
1.09267
0.912927
0.738916
0.569657
0.404133
0.241334
0.0800777
)
;
    }
    lowerWall
    {
        type            fixedFluxPressure;
        gradient        uniform 0;
        value           nonuniform List<scalar> 
62
(
1847.91
1854.87
1857.18
1854.76
1848.85
1841.53
1834.05
1826.89
1820.41
1815.13
1811.8
1811.61
1816.22
1827.98
1849.94
1886.94
1941.64
2016.77
2107.57
2195.58
2245.41
2240.44
2281.03
2281.03
2281.96
2320.4
2354.58
2351.58
2298.1
2172.42
1949.76
284.148
6.42014
9.02255
8.60811
8.4809
8.48442
8.49075
8.5006
8.51349
8.53533
8.55755
8.59118
8.4809
8.46739
8.44647
8.41965
8.38803
8.35312
8.31608
8.27793
8.23957
8.20188
8.16558
8.13142
8.10002
8.07197
8.04778
8.02789
8.01269
8.00243
7.99727
)
;
    }
    atmosphere
    {
        type            totalPressure;
        rho             rho;
        psi             none;
        gamma           1;
        p0              uniform 0;
        value           nonuniform List<scalar> 
46
(
-0.0999653
-0.100356
-0.0988775
-0.0966076
-0.0935839
-0.0898865
-0.0855938
-0.0807849
-0.0755337
-0.0699048
-0.0639541
-0.0577345
-0.0513078
-0.0447535
-0.0381721
-0.031681
-0.0254078
-0.019485
-0.0140484
-0.00924975
-0.00527993
-0.00236047
-0.000578107
0
0
0
0
0
0
0
0
0
0
0
0
0
0
0
0
0
0
0
0
0
0
0
)
;
    }
    defaultFaces
    {
        type            empty;
    }
}


// ************************************************************************* //
