/*--------------------------------*- C++ -*----------------------------------*\
| =========                 |                                                 |
| \\      /  F ield         | OpenFOAM: The Open Source CFD Toolbox           |
|  \\    /   O peration     | Version:  2206                                  |
|   \\  /    A nd           | Website:  www.openfoam.com                      |
|    \\/     M anipulation  |                                                 |
\*---------------------------------------------------------------------------*/
FoamFile
{
    version     2.0;
    format      ascii;
    arch        "LSB;label=32;scalar=64";
    class       surfaceScalarField;
    location    "0.225";
    object      phi;
}
// * * * * * * * * * * * * * * * * * * * * * * * * * * * * * * * * * * * * * //

dimensions      [0 3 -1 0 0 0 0];

oriented        oriented;

internalField   nonuniform List<scalar> 
4432
(
1.12913e-06
-1.12913e-06
6.19783e-06
-5.0687e-06
1.23983e-05
-6.20048e-06
1.82489e-05
-5.8506e-06
2.34562e-05
-5.20733e-06
2.82073e-05
-4.75108e-06
3.27515e-05
-4.54422e-06
3.72528e-05
-4.50129e-06
4.17659e-05
-4.51304e-06
4.62587e-05
-4.49281e-06
5.06402e-05
-4.38148e-06
5.4773e-05
-4.13285e-06
5.84722e-05
-3.69915e-06
6.14762e-05
-3.00404e-06
6.34154e-05
-1.93915e-06
6.34339e-05
-1.85182e-08
5.9792e-05
3.64187e-06
5.06603e-05
9.13169e-06
3.44955e-05
1.61648e-05
1.20598e-05
2.24357e-05
-1.00599e-05
2.21198e-05
-1.90935e-05
9.03361e-06
-1.90935e-05
1.18613e-06
-2.31526e-06
6.27124e-06
-1.01538e-05
1.2473e-05
-1.24022e-05
1.83245e-05
-1.17021e-05
2.3532e-05
-1.04148e-05
2.82921e-05
-9.51118e-06
3.28597e-05
-9.11183e-06
3.7395e-05
-9.03664e-06
4.1948e-05
-9.06606e-06
4.64858e-05
-9.03058e-06
5.09196e-05
-8.81532e-06
5.51164e-05
-8.32957e-06
5.88936e-05
-7.47637e-06
6.20175e-05
-6.12794e-06
6.4169e-05
-4.09063e-06
6.53636e-05
-1.21315e-06
6.587e-05
3.13543e-06
6.49401e-05
1.00616e-05
5.98883e-05
2.12167e-05
4.65924e-05
3.57315e-05
2.49734e-05
4.37388e-05
5.64824e-06
2.83588e-05
-1.34453e-05
1.27098e-06
-3.58624e-06
6.37155e-06
-1.52544e-05
1.25285e-05
-1.85592e-05
1.83143e-05
-1.74879e-05
2.3469e-05
-1.55695e-05
2.82062e-05
-1.42484e-05
3.27821e-05
-1.36877e-05
3.73476e-05
-1.36021e-05
4.19437e-05
-1.36622e-05
4.65349e-05
-1.36218e-05
5.10351e-05
-1.33156e-05
5.53172e-05
-1.26117e-05
5.92104e-05
-1.13695e-05
6.24938e-05
-9.41133e-06
6.49014e-05
-6.49825e-06
6.60365e-05
-2.34823e-06
6.56915e-05
3.48045e-06
6.41862e-05
1.15668e-05
6.23461e-05
2.30568e-05
5.8765e-05
3.93126e-05
4.73423e-05
5.51615e-05
2.47467e-05
5.09544e-05
1.13014e-05
1.39797e-06
-4.98421e-06
6.53196e-06
-2.03884e-05
1.26232e-05
-2.46504e-05
1.83084e-05
-2.31731e-05
2.33885e-05
-2.06495e-05
2.81011e-05
-1.8961e-05
3.26977e-05
-1.82844e-05
3.73138e-05
-1.82182e-05
4.19783e-05
-1.83267e-05
4.66525e-05
-1.82959e-05
5.12545e-05
-1.79176e-05
5.56661e-05
-1.70233e-05
5.97306e-05
-1.5434e-05
6.32438e-05
-1.29245e-05
6.59437e-05
-9.19814e-06
6.74859e-05
-3.89045e-06
6.75156e-05
3.45082e-06
6.58139e-05
1.32685e-05
6.29572e-05
2.59135e-05
6.03462e-05
4.19236e-05
5.41903e-05
6.13173e-05
3.46351e-05
7.05096e-05
4.59365e-05
1.56735e-06
-6.55156e-06
6.74246e-06
-2.55635e-05
1.2741e-05
-3.0649e-05
1.82922e-05
-2.87243e-05
2.32794e-05
-2.56367e-05
2.79673e-05
-2.36489e-05
3.25956e-05
-2.29126e-05
3.72776e-05
-2.29002e-05
4.2028e-05
-2.3077e-05
4.68055e-05
-2.30734e-05
5.15346e-05
-2.26467e-05
5.61099e-05
-2.15987e-05
6.03926e-05
-1.97167e-05
6.41976e-05
-1.67295e-05
6.72777e-05
-1.22782e-05
6.93081e-05
-5.92094e-06
6.99422e-05
2.81678e-06
6.88633e-05
1.43473e-05
6.57777e-05
2.89992e-05
6.14293e-05
4.6272e-05
5.52936e-05
6.74531e-05
3.81172e-05
8.7686e-05
8.40537e-05
1.77686e-06
-8.32841e-06
6.98973e-06
-3.07763e-05
1.2864e-05
-3.65233e-05
1.8252e-05
-3.41123e-05
2.31341e-05
-3.05188e-05
2.77995e-05
-2.83143e-05
3.24677e-05
-2.75809e-05
3.72248e-05
-2.76573e-05
4.20704e-05
-2.79226e-05
4.69625e-05
-2.79655e-05
5.18351e-05
-2.75193e-05
5.66002e-05
-2.63637e-05
6.11407e-05
-2.42572e-05
6.52916e-05
-2.08804e-05
6.88193e-05
-1.58059e-05
7.14051e-05
-8.50672e-06
7.26952e-05
1.52664e-06
7.23503e-05
1.46922e-05
6.98883e-05
3.14612e-05
6.47551e-05
5.14052e-05
5.68931e-05
7.5315e-05
4.02386e-05
0.000104341
0.000124292
2.01884e-06
-1.03472e-05
7.2578e-06
-3.60153e-05
1.2975e-05
-4.22405e-05
1.81778e-05
-3.93151e-05
2.29496e-05
-3.52906e-05
2.75971e-05
-3.29618e-05
3.23112e-05
-3.2295e-05
3.71474e-05
-3.24934e-05
4.20912e-05
-3.28664e-05
4.71023e-05
-3.29767e-05
5.21287e-05
-3.25457e-05
5.71033e-05
-3.13384e-05
6.19328e-05
-2.90867e-05
6.64718e-05
-2.54193e-05
7.05019e-05
-1.98361e-05
7.37143e-05
-1.17191e-05
7.57406e-05
-4.99666e-07
7.62055e-05
1.42273e-05
7.46459e-05
3.30208e-05
7.00615e-05
5.59896e-05
6.12447e-05
8.41319e-05
4.56115e-05
0.000119974
0.000169904
2.28071e-06
-1.2628e-05
7.52397e-06
-4.12586e-05
1.30596e-05
-4.77761e-05
1.80697e-05
-4.43252e-05
2.27349e-05
-3.99558e-05
2.73709e-05
-3.75978e-05
3.21342e-05
-3.70583e-05
3.70491e-05
-3.74082e-05
4.20895e-05
-3.79068e-05
4.72214e-05
-3.81086e-05
5.24112e-05
-3.77354e-05
5.76151e-05
-3.65423e-05
6.2763e-05
-3.42346e-05
6.77292e-05
-3.03856e-05
7.23156e-05
-2.44225e-05
7.62186e-05
-1.56221e-05
7.90636e-05
-3.34465e-06
8.04536e-05
1.28373e-05
7.99465e-05
3.35279e-05
7.6716e-05
5.922e-05
6.82752e-05
9.25727e-05
5.2255e-05
0.000135994
0.000222159
1.84352e-06
-1.84352e-06
3.07276e-06
-1.22901e-06
3.63434e-06
-5.6165e-07
4.24284e-06
-6.08573e-07
4.95707e-06
-7.14172e-07
5.69729e-06
-7.40298e-07
6.31313e-06
-6.16119e-07
6.7283e-06
-4.15034e-07
6.92642e-06
-1.98279e-07
6.90356e-06
2.28426e-08
6.67035e-06
2.3335e-07
6.24491e-06
4.25113e-07
5.65367e-06
5.91461e-07
4.91703e-06
7.36534e-07
4.07166e-06
8.45556e-07
3.13234e-06
9.39307e-07
2.12379e-06
1.00854e-06
1.09132e-06
1.03287e-06
1.09143e-06
-4.48035e-08
-1.79886e-06
9.01636e-07
-2.17527e-06
2.08921e-06
-1.74916e-06
3.47764e-06
-1.99726e-06
4.68452e-06
-1.92125e-06
5.6626e-06
-1.71823e-06
6.41367e-06
-1.36754e-06
6.93551e-06
-9.36762e-07
7.20697e-06
-4.69808e-07
7.23273e-06
-3.20473e-09
7.02595e-06
4.4044e-07
6.60748e-06
8.43253e-07
6.00345e-06
1.19589e-06
5.24152e-06
1.49832e-06
4.34367e-06
1.74313e-06
3.34371e-06
1.93946e-06
2.26885e-06
2.08337e-06
1.1643e-06
2.13731e-06
2.25585e-06
6.90359e-08
-1.86797e-06
1.33878e-06
-3.44497e-06
2.483e-06
-2.89329e-06
3.71196e-06
-3.22632e-06
4.78382e-06
-2.99324e-06
5.72604e-06
-2.66022e-06
6.47363e-06
-2.11544e-06
6.98711e-06
-1.45024e-06
7.24992e-06
-7.326e-07
7.26479e-06
-1.82474e-08
7.04717e-06
6.58106e-07
6.61967e-06
1.27035e-06
6.00887e-06
1.80675e-06
5.24151e-06
2.26561e-06
4.34282e-06
2.64181e-06
3.34134e-06
2.94127e-06
2.26488e-06
3.15971e-06
1.16099e-06
3.24137e-06
3.41694e-06
1.02511e-07
-1.97047e-06
1.46025e-06
-4.80276e-06
2.50073e-06
-3.93367e-06
3.74885e-06
-4.47443e-06
4.8461e-06
-4.09057e-06
5.83408e-06
-3.64792e-06
6.6136e-06
-2.8952e-06
7.13853e-06
-1.97507e-06
7.40364e-06
-9.97756e-07
7.40895e-06
-2.38092e-08
7.17155e-06
8.95653e-07
6.73231e-06
1.7094e-06
6.10315e-06
2.43595e-06
5.31692e-06
3.0518e-06
4.40107e-06
3.55748e-06
3.38096e-06
3.96118e-06
2.29443e-06
4.24618e-06
1.17332e-06
4.36267e-06
4.59026e-06
-3.16897e-07
-1.65353e-06
1.11729e-06
-6.23707e-06
2.30962e-06
-5.12588e-06
3.72657e-06
-5.89125e-06
4.93143e-06
-5.29545e-06
5.99081e-06
-4.70696e-06
6.81615e-06
-3.72074e-06
7.36613e-06
-2.5249e-06
7.63265e-06
-1.26384e-06
7.6281e-06
-1.96648e-08
7.37782e-06
1.14577e-06
6.90916e-06
2.17775e-06
6.25412e-06
3.09096e-06
5.4406e-06
3.86548e-06
4.49419e-06
4.50394e-06
3.45684e-06
4.99847e-06
2.34224e-06
5.36113e-06
1.19479e-06
5.51001e-06
5.78495e-06
-7.59711e-07
-8.93766e-07
6.10578e-07
-7.60759e-06
2.01704e-06
-6.53217e-06
3.70647e-06
-7.5804e-06
5.03406e-06
-6.62305e-06
6.18853e-06
-5.86111e-06
7.07549e-06
-4.6076e-06
7.6555e-06
-3.10516e-06
7.9248e-06
-1.53307e-06
7.90381e-06
8.39958e-10
7.6337e-06
1.41625e-06
7.13494e-06
2.67689e-06
6.44634e-06
3.7796e-06
5.593e-06
4.71878e-06
4.6232e-06
5.47382e-06
3.54905e-06
6.07294e-06
2.4026e-06
6.50795e-06
1.22203e-06
6.69023e-06
7.00715e-06
-2.21951e-06
1.32578e-06
1.04793e-09
-9.82839e-06
1.59176e-06
-8.12272e-06
3.56817e-06
-9.55652e-06
5.10394e-06
-8.159e-06
6.40478e-06
-7.16211e-06
7.37149e-06
-5.57418e-06
7.99868e-06
-3.73226e-06
8.2758e-06
-1.80986e-06
8.24153e-06
3.49522e-08
7.93833e-06
1.71975e-06
7.40329e-06
3.21203e-06
6.67074e-06
4.51207e-06
5.78725e-06
5.60252e-06
4.77199e-06
6.48914e-06
3.65878e-06
7.18629e-06
2.47381e-06
7.69283e-06
1.25478e-06
7.90921e-06
8.26185e-06
-2.64289e-06
3.96872e-06
-8.54905e-07
-1.16165e-05
1.22876e-06
-1.02064e-05
3.14562e-06
-1.14735e-05
5.17567e-06
-1.01893e-05
6.70556e-06
-8.69187e-06
7.78781e-06
-6.65632e-06
8.44519e-06
-4.38978e-06
8.71366e-06
-2.07855e-06
8.65357e-06
9.50005e-08
8.30796e-06
2.06555e-06
7.72222e-06
3.79764e-06
6.95062e-06
5.28376e-06
6.0116e-06
6.54185e-06
4.947e-06
7.55362e-06
3.78643e-06
8.34704e-06
2.55576e-06
8.92324e-06
1.29206e-06
9.17335e-06
9.55409e-06
5.61872e-06
-1.82467e-05
1.68713e-05
-5.25111e-05
2.7992e-05
-5.88968e-05
3.79708e-05
-5.4304e-05
4.75799e-05
-4.95649e-05
5.74383e-05
-4.74562e-05
6.77301e-05
-4.73502e-05
7.84234e-05
-4.81015e-05
8.94542e-05
-4.89376e-05
0.000100795
-4.94497e-05
0.000112456
-4.93957e-05
0.000124417
-4.85039e-05
0.000136623
-4.644e-05
0.000148903
-4.26661e-05
0.000160914
-3.64334e-05
0.000171932
-2.66398e-05
0.00018117
-1.25831e-05
0.00018754
6.46728e-06
0.000190438
3.06299e-05
0.00018924
6.04182e-05
0.000183193
9.862e-05
0.00018066
0.000138527
0.00021112
0.000191698
6.76521e-06
-2.50119e-05
1.78494e-05
-6.35954e-05
2.80642e-05
-6.91116e-05
3.72674e-05
-6.35072e-05
4.6551e-05
-5.88485e-05
5.64342e-05
-5.73394e-05
6.69249e-05
-5.78409e-05
7.7907e-05
-5.90837e-05
8.93408e-05
-6.03714e-05
0.000101293
-6.14021e-05
0.000113881
-6.19833e-05
0.000127164
-6.17871e-05
0.000141276
-6.05516e-05
0.000156296
-5.76866e-05
0.000172115
-5.22526e-05
0.000187606
-4.2131e-05
0.000202047
-2.70236e-05
0.000214663
-6.14912e-06
0.000224337
2.09558e-05
0.000230319
5.4437e-05
0.000236861
9.20776e-05
0.000247933
0.000127455
0.000185141
0.000273913
7.87284e-06
-3.28847e-05
1.86026e-05
-7.43251e-05
2.78067e-05
-7.83157e-05
3.63071e-05
-7.20075e-05
4.53598e-05
-6.79012e-05
5.52653e-05
-6.72449e-05
6.5862e-05
-6.84376e-05
7.70008e-05
-7.02225e-05
8.8713e-05
-7.20835e-05
0.00010115
-7.38394e-05
0.000114467
-7.52998e-05
0.000128744
-7.60647e-05
0.000144594
-7.64012e-05
0.000162707
-7.57992e-05
0.000183486
-7.30324e-05
0.000204784
-6.34281e-05
0.000224894
-4.71343e-05
0.000241762
-2.30172e-05
0.000258075
4.64288e-06
0.000269069
4.3443e-05
0.000280783
8.03638e-05
0.000292038
0.0001162
0.000159308
0.000317871
8.84631e-06
-4.1731e-05
1.90311e-05
-8.45099e-05
2.7233e-05
-8.65175e-05
3.51678e-05
-7.99423e-05
4.40556e-05
-7.67891e-05
5.39125e-05
-7.71018e-05
6.44437e-05
-7.89688e-05
7.55089e-05
-8.12877e-05
8.71947e-05
-8.37693e-05
9.96235e-05
-8.62682e-05
0.000112893
-8.85694e-05
0.000127263
-9.04349e-05
0.000144558
-9.36957e-05
0.000165982
-9.72235e-05
0.000191739
-9.87892e-05
0.000217484
-8.91732e-05
0.000244785
-7.44355e-05
0.000271141
-4.93734e-05
0.000283673
-7.88931e-06
0.000292254
3.48629e-05
0.000300572
7.20454e-05
0.000310511
0.000106261
0.000139538
0.000330281
9.67496e-06
-5.1406e-05
1.9107e-05
-9.3942e-05
2.63446e-05
-9.37551e-05
3.38272e-05
-8.74249e-05
4.25173e-05
-8.54791e-05
5.21192e-05
-8.67037e-05
6.22306e-05
-8.90802e-05
7.27278e-05
-9.17848e-05
8.36943e-05
-9.47359e-05
9.52067e-05
-9.77805e-05
0.000107527
-0.000100889
0.000121777
-0.000104685
0.000141333
-0.000113252
0.000165089
-0.00012098
0.000192365
-0.000126065
0.000213195
-0.000110003
0.000233772
-9.50127e-05
0.000253955
-6.95567e-05
0.000261107
-1.50405e-05
0.000279239
1.67307e-05
0.000294537
5.67474e-05
0.000305448
9.53495e-05
0.000124015
0.000320971
1.03974e-05
-6.18034e-05
1.87688e-05
-0.000102313
2.50138e-05
-0.0001
3.20437e-05
-9.44548e-05
4.03141e-05
-9.37495e-05
4.92363e-05
-9.5626e-05
5.83521e-05
-9.8196e-05
6.76217e-05
-0.000101054
7.72807e-05
-0.000104395
8.77813e-05
-0.000108281
0.000100296
-0.000113404
0.000117405
-0.000121794
0.000142485
-0.000138331
0.000166504
-0.000144998
0.000186557
-0.000146119
0.000202157
-0.000125603
0.000232739
-0.000125594
0.000265145
-0.000101963
0.000286873
-3.6768e-05
0.000282401
2.12026e-05
0.00028555
5.35983e-05
0.000293528
8.73716e-05
0.000114582
0.000302961
1.10422e-05
-7.28456e-05
1.78981e-05
-0.000109169
2.29589e-05
-0.000105061
2.93787e-05
-0.000100875
3.68702e-05
-0.000101241
4.47168e-05
-0.000103473
5.26228e-05
-0.000106102
6.10179e-05
-0.000109449
7.0985e-05
-0.000114362
8.41663e-05
-0.000121462
0.000104354
-0.000133592
0.000131779
-0.00014922
0.000166376
-0.000172928
0.000188895
-0.000167518
0.000199892
-0.000157116
0.000236609
-0.00016232
0.000283299
-0.000172284
0.000312586
-0.00013125
0.000321662
-4.58445e-05
0.000315672
2.71927e-05
0.000305092
6.41788e-05
0.000300946
9.1517e-05
0.000120611
0.000294918
1.19409e-05
-8.47865e-05
1.66384e-05
-0.000113867
2.0141e-05
-0.000108564
2.59977e-05
-0.000106731
3.29574e-05
-0.000108201
4.06089e-05
-0.000111124
4.94118e-05
-0.000114905
6.13213e-05
-0.000121359
7.98837e-05
-0.000132924
0.000106287
-0.000147865
0.00014816
-0.000175465
0.00018705
-0.00018811
0.000214956
-0.000200833
0.000223922
-0.000176484
0.000210513
-0.000143707
0.000228967
-0.000180774
0.000248551
-0.000191868
0.000264265
-0.000146963
0.000266499
-4.80789e-05
0.000258993
3.46989e-05
0.000266356
5.6816e-05
0.000286718
7.11541e-05
0.000118403
0.000288927
1.42278e-05
-9.90143e-05
1.6115e-05
-0.000115754
1.83808e-05
-0.00011083
2.54139e-05
-0.000113764
3.49328e-05
-0.00011772
4.76281e-05
-0.000123819
6.47454e-05
-0.000132022
9.28679e-05
-0.000149482
0.000133347
-0.000173403
0.000177084
-0.000191602
0.000216199
-0.00021458
0.000248315
-0.000220226
0.000255274
-0.000207791
0.00023884
-0.00016005
0.000215207
-0.000120074
0.000202419
-0.000167986
0.000191658
-0.000181107
0.000185215
-0.00014052
0.000177953
-4.08163e-05
0.000180237
3.24145e-05
0.00020264
3.44129e-05
0.000241351
3.24432e-05
9.46004e-05
0.000265153
1.80154e-05
-0.00011703
1.94847e-05
-0.000117223
2.54254e-05
-0.00011677
3.90374e-05
-0.000127376
6.08856e-05
-0.000139568
8.6714e-05
-0.000149648
0.000117858
-0.000163166
0.000151568
-0.000183192
0.00018671
-0.000208545
0.000226823
-0.000231715
0.000258071
-0.000245828
0.00027878
-0.000240936
0.000281438
-0.000210449
0.000257184
-0.000135796
0.000217546
-8.04369e-05
0.00018382
-0.00013426
0.000158091
-0.000155378
0.000136298
-0.000118727
0.000124812
-2.93308e-05
0.000140733
1.64936e-05
0.000173492
1.65421e-06
0.000213727
-7.79226e-06
5.23264e-05
0.000256001
1.10813e-05
-0.000128111
2.87499e-05
-0.000134891
4.42241e-05
-0.000132244
6.0445e-05
-0.000143597
7.78063e-05
-0.000156929
9.96521e-05
-0.000171493
0.000125672
-0.000189186
0.00015468
-0.000212199
0.000185792
-0.000239657
0.000219141
-0.000265063
0.000248626
-0.000275313
0.00026519
-0.000257499
0.000265638
-0.000210897
0.000249216
-0.000119374
0.00020743
-3.86509e-05
0.000168105
-9.4936e-05
0.000136356
-0.000123628
0.000104771
-8.71422e-05
9.24823e-05
-1.70422e-05
0.00011595
-6.97446e-06
0.000151404
-3.37998e-05
0.000188643
-4.50313e-05
4.31141e-06
0.000236658
5.50975e-06
-0.000133621
2.16545e-05
-0.000151036
3.94755e-05
-0.000150065
5.4313e-05
-0.000158434
6.86866e-05
-0.000171302
8.4296e-05
-0.000187103
0.000102396
-0.000207286
0.000124646
-0.00023445
0.000152245
-0.000267256
0.000179582
-0.0002924
0.000199891
-0.000295622
0.0002078
-0.000265409
0.000203272
-0.000206368
0.000192253
-0.000108355
0.000167189
-1.35872e-05
0.000139687
-6.74336e-05
0.000106753
-9.06949e-05
6.73505e-05
-4.77392e-05
6.37371e-05
-1.34289e-05
8.97326e-05
-3.29702e-05
0.000120058
-6.41249e-05
0.000155194
-8.0167e-05
-4.05842e-05
0.000200089
7.13644e-06
-0.000140757
1.85063e-05
-0.000162406
2.96973e-05
-0.000161256
3.98483e-05
-0.000168585
4.958e-05
-0.000181034
5.96735e-05
-0.000197196
7.15749e-05
-0.000219187
8.74068e-05
-0.000250282
0.000106215
-0.000286064
0.000118957
-0.000305142
0.000125772
-0.000302437
0.000124278
-0.000263915
0.000115339
-0.00019743
0.0001038
-9.68158e-05
0.000104455
-1.42415e-05
9.30493e-05
-5.60283e-05
5.84775e-05
-5.6123e-05
2.54531e-05
-1.47149e-05
3.54968e-05
-2.34728e-05
5.8759e-05
-5.62324e-05
8.34524e-05
-8.88181e-05
0.000113431
-0.000110146
-8.55564e-05
0.000158403
8.29629e-06
-0.000149053
1.32739e-05
-0.000167383
1.92961e-05
-0.000167278
2.53961e-05
-0.000174685
3.07338e-05
-0.000186372
3.53757e-05
-0.000201838
4.01637e-05
-0.000223975
4.56229e-05
-0.000255741
4.86403e-05
-0.000289081
4.58305e-05
-0.000302332
3.91753e-05
-0.000295782
3.25673e-05
-0.000257307
2.41519e-05
-0.000189014
2.21947e-05
-9.48585e-05
4.32158e-05
-3.52625e-05
3.06504e-05
-4.34629e-05
-3.66005e-06
-2.18124e-05
-1.22737e-05
-6.10146e-06
7.29279e-06
-4.30392e-05
2.57714e-05
-7.4711e-05
4.52273e-05
-0.000108274
6.81961e-05
-0.000133115
-0.000122356
0.000104996
6.63271e-06
-0.000155686
7.70488e-06
-0.000168455
1.05329e-05
-0.000170106
1.29965e-05
-0.000177149
1.38653e-05
-0.000187241
1.27181e-05
-0.000200691
9.09696e-06
-0.000220354
1.84525e-06
-0.000248489
-1.06158e-05
-0.00027662
-2.50295e-05
-0.000287919
-3.97478e-05
-0.000281064
-4.91722e-05
-0.000247882
-5.3237e-05
-0.00018495
-4.45388e-05
-0.000103557
-3.42789e-05
-4.55224e-05
-5.45403e-05
-2.32015e-05
-6.46129e-05
-1.17398e-05
-4.06245e-05
-3.009e-05
-2.17714e-05
-6.18925e-05
-7.23189e-06
-8.92507e-05
6.42093e-06
-0.000121927
2.24004e-05
-0.000149094
-0.000156362
5.64062e-05
3.68185e-06
-0.000159368
2.84405e-06
-0.000167618
3.14839e-06
-0.000170411
2.39647e-06
-0.000176397
-3.70083e-07
-0.000184474
-6.28297e-06
-0.000194778
-1.70291e-05
-0.000209608
-3.43873e-05
-0.000231131
-5.76373e-05
-0.00025337
-8.03213e-05
-0.000265235
-0.000101999
-0.000259387
-0.000119099
-0.000230782
-0.000127193
-0.000176855
-0.000121669
-0.00010908
-0.000115952
-5.12397e-05
-0.000114517
-2.46369e-05
-9.08135e-05
-3.54431e-05
-6.26251e-05
-5.82782e-05
-4.78183e-05
-7.66992e-05
-3.74411e-05
-9.96279e-05
-3.09279e-05
-0.00012844
-2.35968e-05
-0.000156425
-0.000165876
-1.40835e-05
6.53315e-07
-0.000160021
-1.11094e-06
-0.000165853
-2.9174e-06
-0.000168604
-6.07991e-06
-0.000173235
-1.13685e-05
-0.000179185
-1.99062e-05
-0.00018624
-3.39462e-05
-0.000195568
-5.56415e-05
-0.000209435
-8.39392e-05
-0.000225073
-0.000114928
-0.000234247
-0.000145574
-0.00022874
-0.000172914
-0.000203442
-0.000190128
-0.000159642
-0.000188379
-0.000110829
-0.00016642
-7.3199e-05
-0.000132289
-5.87676e-05
-0.000100762
-6.69699e-05
-8.03897e-05
-7.8651e-05
-6.864e-05
-8.84488e-05
-6.15226e-05
-0.000106745
-5.97733e-05
-0.000130189
-5.95486e-05
-0.00015665
-0.000174197
-5.12271e-05
-1.44865e-06
-0.000158572
-4.26593e-06
-0.000163036
-7.57283e-06
-0.000165297
-1.21663e-05
-0.000168641
-1.85868e-05
-0.000172765
-2.76947e-05
-0.000177132
-4.13085e-05
-0.000181954
-6.18499e-05
-0.000188894
-8.9516e-05
-0.000197407
-0.000121344
-0.000202419
-0.000152349
-0.000197735
-0.000176019
-0.000179772
-0.000185155
-0.000150505
-0.000177028
-0.000118956
-0.000154394
-9.58331e-05
-0.000126083
-8.70786e-05
-0.000105033
-8.80199e-05
-9.29567e-05
-9.07271e-05
-8.41246e-05
-9.7281e-05
-8.01888e-05
-0.000110681
-8.19901e-05
-0.000128388
-8.78612e-05
-0.000150779
-0.000171278
-9.07809e-05
-2.89201e-06
-0.00015568
-6.55592e-06
-0.000159372
-1.08755e-05
-0.000160977
-1.62448e-05
-0.000163272
-2.30414e-05
-0.000165968
-3.16324e-05
-0.000168541
-4.29691e-05
-0.000170618
-5.89912e-05
-0.000172872
-8.05537e-05
-0.000175844
-0.000105385
-0.000177588
-0.000128956
-0.000174164
-0.000145938
-0.000162789
-0.000151715
-0.000144729
-0.000145619
-0.000125052
-0.00013173
-0.000109722
-0.000117332
-0.000101477
-0.000107323
-9.8029e-05
-0.000100344
-9.7706e-05
-9.52455e-05
-0.000102379
-9.44501e-05
-0.000111477
-9.87987e-05
-0.000124039
-0.000108574
-0.000141004
-0.000159828
-0.000120024
-3.83325e-06
-0.000151847
-8.17051e-06
-0.000155034
-1.30889e-05
-0.000156059
-1.88417e-05
-0.000157519
-2.56611e-05
-0.000159149
-3.36205e-05
-0.000160582
-4.28978e-05
-0.00016134
-5.43685e-05
-0.000161401
-6.89468e-05
-0.000161266
-8.5874e-05
-0.000160661
-0.000102386
-0.000157652
-0.000114991
-0.000150184
-0.000121239
-0.000138481
-0.000120983
-0.000125308
-0.000116568
-0.000114138
-0.000111521
-0.000106524
-0.000107454
-0.000102096
-0.0001041
-0.00010106
-0.000102638
-0.000103841
-0.000104618
-0.000109497
-0.000110733
-0.000117923
-0.000122044
-0.000129694
-0.000143947
-0.000137925
-4.42273e-06
-0.000147424
-9.22073e-06
-0.000150236
-1.44759e-05
-0.000150804
-2.03727e-05
-0.000151622
-2.70709e-05
-0.00015245
-3.45867e-05
-0.000153066
-4.27825e-05
-0.000153145
-5.1745e-05
-0.000152439
-6.20052e-05
-0.000151006
-7.37489e-05
-0.000148917
-8.58473e-05
-0.000145554
-9.62045e-05
-0.000139827
-0.000103165
-0.00013152
-0.000106462
-0.000122011
-0.000107178
-0.000113422
-0.000106706
-0.000106996
-0.00010592
-0.000102882
-0.000105608
-0.000101373
-0.00010713
-0.000102319
-0.00011138
-0.000105247
-0.000119084
-0.00011022
-0.000131385
-0.000117392
-0.000126027
-0.000149305
-4.76674e-06
-0.000142657
-9.82855e-06
-0.000145174
-1.52354e-05
-0.000145397
-2.11236e-05
-0.000145733
-2.76068e-05
-0.000145967
-3.47257e-05
-0.000145947
-4.2381e-05
-0.000145489
-5.0426e-05
-0.000144394
-5.8923e-05
-0.000142509
-6.80389e-05
-0.000139801
-7.74317e-05
-0.000136161
-8.60657e-05
-0.000131193
-9.28792e-05
-0.000124706
-9.74737e-05
-0.000117416
-0.000100251
-0.000110645
-0.000102004
-0.000105243
-0.000103447
-0.000101439
-0.000105531
-9.9289e-05
-0.000109175
-9.86754e-05
-0.000115048
-9.93736e-05
-0.000123873
-0.000101395
-0.000136596
-0.000104669
-0.000108368
-0.000154256
-4.9322e-06
-0.000137725
-1.00996e-05
-0.000140007
-1.55216e-05
-0.000139974
-2.12993e-05
-0.000139956
-2.7506e-05
-0.00013976
-3.41803e-05
-0.000139273
-4.12978e-05
-0.000138372
-4.87485e-05
-0.000136943
-5.63978e-05
-0.000134859
-6.41845e-05
-0.000132015
-7.19918e-05
-0.000128353
-7.93787e-05
-0.000123807
-8.56888e-05
-0.000118396
-9.05686e-05
-0.000112537
-9.42658e-05
-0.000106948
-9.7352e-05
-0.000102156
-0.000100439
-9.83523e-05
-0.000104179
-9.55491e-05
-0.000109188
-9.36671e-05
-0.000116028
-9.25333e-05
-0.000125346
-9.20776e-05
-0.000137847
-9.2168e-05
-9.20016e-05
-0.000154214
-4.96493e-06
-0.00013276
-1.0121e-05
-0.000134851
-1.54603e-05
-0.000134635
-2.10601e-05
-0.000134356
-2.69656e-05
-0.000133855
-3.3194e-05
-0.000133045
-3.97316e-05
-0.000131835
-4.65284e-05
-0.000130146
-5.34827e-05
-0.000127905
-6.046e-05
-0.000125037
-6.73096e-05
-0.000121504
-7.3794e-05
-0.000117322
-7.95999e-05
-0.000112591
-8.45662e-05
-0.00010757
-8.88614e-05
-0.000102653
-9.28584e-05
-9.81594e-05
-9.70051e-05
-9.42058e-05
-0.000101744
-9.08097e-05
-0.000107523
-8.78882e-05
-0.000114782
-8.52748e-05
-0.000124037
-8.28227e-05
-0.0001358
-8.04049e-05
-7.7355e-05
-0.000150446
-4.90167e-06
-0.000127858
-9.96015e-06
-0.000129792
-1.51487e-05
-0.000129446
-2.05264e-05
-0.000128978
-2.61225e-05
-0.000128259
-3.19436e-05
-0.000127224
-3.79694e-05
-0.000125809
-4.41613e-05
-0.000123954
-5.04571e-05
-0.00012161
-5.67571e-05
-0.000118737
-6.293e-05
-0.000115331
-6.88211e-05
-0.000111431
-7.42832e-05
-0.000107128
-7.92681e-05
-0.000102585
-8.39024e-05
-9.80187e-05
-8.84324e-05
-9.36295e-05
-9.31627e-05
-8.94758e-05
-9.84059e-05
-8.55665e-05
-0.000104489
-8.18055e-05
-0.000111751
-7.80124e-05
-0.000120543
-7.40308e-05
-0.000131209
-6.97385e-05
-6.46133e-05
-0.000143951
-4.76973e-06
-0.000123088
-9.66773e-06
-0.000124894
-1.46579e-05
-0.000124456
-1.97842e-05
-0.000123852
-2.50667e-05
-0.000122976
-3.05086e-05
-0.000121782
-3.60928e-05
-0.000120224
-4.17832e-05
-0.000118264
-4.7526e-05
-0.000115867
-5.32527e-05
-0.00011301
-5.88837e-05
-0.0001097
-6.43312e-05
-0.000105983
-6.95234e-05
-0.000101936
-7.44509e-05
-9.7658e-05
-7.92031e-05
-9.32664e-05
-8.3958e-05
-8.88745e-05
-8.89174e-05
-8.45164e-05
-9.43201e-05
-8.01638e-05
-0.000100379
-7.57464e-05
-0.000107353
-7.10381e-05
-0.000115442
-6.59421e-05
-0.000124859
-6.0322e-05
-5.38016e-05
-0.000135671
-4.58887e-06
-0.0001185
-9.28142e-06
-0.000120202
-1.40399e-05
-0.000119698
-1.88954e-05
-0.000118996
-2.38619e-05
-0.000118009
-2.89391e-05
-0.000116705
-3.41136e-05
-0.00011505
-3.93591e-05
-0.000113019
-4.46351e-05
-0.000110591
-4.98903e-05
-0.000107755
-5.50728e-05
-0.000104518
-6.01401e-05
-0.000100916
-6.50669e-05
-9.70095e-05
-6.98588e-05
-9.2866e-05
-7.45766e-05
-8.85488e-05
-7.93454e-05
-8.41058e-05
-8.43081e-05
-7.95534e-05
-8.96267e-05
-7.48452e-05
-9.54747e-05
-6.98987e-05
-0.000101956
-6.45566e-05
-0.000109231
-5.86678e-05
-0.000117371
-5.21817e-05
-4.47255e-05
-0.000126447
-4.37235e-06
-0.000114127
-8.82816e-06
-0.000115746
-1.33316e-05
-0.000115194
-1.79038e-05
-0.000114424
-2.25547e-05
-0.000113359
-2.7282e-05
-0.000111978
-3.20746e-05
-0.000110257
-3.69137e-05
-0.00010818
-4.17724e-05
-0.000105732
-4.66171e-05
-0.00010291
-5.14126e-05
-9.97221e-05
-5.61344e-05
-9.61944e-05
-6.0778e-05
-9.23661e-05
-6.53629e-05
-8.82807e-05
-6.99379e-05
-8.39736e-05
-7.45831e-05
-7.94608e-05
-7.93938e-05
-7.47425e-05
-8.4477e-05
-6.9762e-05
-8.99415e-05
-6.44342e-05
-9.58517e-05
-5.86464e-05
-0.000102286
-5.22335e-05
-0.000109244
-4.52236e-05
-3.72394e-05
-0.00011673
-4.12864e-06
-0.000109999
-8.32633e-06
-0.000111548
-1.25581e-05
-0.000110963
-1.6839e-05
-0.000110143
-2.11754e-05
-0.000109022
-2.55648e-05
-0.000107588
-2.99988e-05
-0.000105823
-3.4463e-05
-0.000103716
-3.89381e-05
-0.000101257
-4.34027e-05
-9.84458e-05
-4.78366e-05
-9.5288e-05
-5.22287e-05
-9.1802e-05
-5.65811e-05
-8.80138e-05
-6.09133e-05
-8.39485e-05
-6.52617e-05
-7.96247e-05
-6.96792e-05
-7.50434e-05
-7.42361e-05
-7.01855e-05
-7.89857e-05
-6.50123e-05
-8.39979e-05
-5.9422e-05
-8.9308e-05
-5.33361e-05
-9.49069e-05
-4.66347e-05
-0.0001008
-3.93302e-05
-3.11468e-05
-0.000106893
-3.86406e-06
-0.000106135
-7.78873e-06
-0.000107624
-1.17368e-05
-0.000107014
-1.57209e-05
-0.000106159
-1.97437e-05
-0.000104999
-2.3803e-05
-0.000103529
-2.78921e-05
-0.000101734
-3.20006e-05
-9.96069e-05
-3.61161e-05
-9.71414e-05
-4.02251e-05
-9.43369e-05
-4.43151e-05
-9.11979e-05
-4.83809e-05
-8.77361e-05
-5.24274e-05
-8.3967e-05
-5.64715e-05
-7.99043e-05
-6.05405e-05
-7.55555e-05
-6.46702e-05
-7.09137e-05
-6.89013e-05
-6.59543e-05
-7.32732e-05
-6.06403e-05
-7.7793e-05
-5.49022e-05
-8.24929e-05
-4.86361e-05
-8.73287e-05
-4.1799e-05
-9.22877e-05
-3.43714e-05
-2.61862e-05
-9.72482e-05
-3.58439e-06
-0.00010255
-7.22485e-06
-0.000103983
-1.0881e-05
-0.000103358
-1.45637e-05
-0.000102476
-1.82734e-05
-0.00010129
-2.20083e-05
-9.97937e-05
-2.57628e-05
-9.79795e-05
-2.95296e-05
-9.58399e-05
-3.33e-05
-9.33709e-05
-3.70653e-05
-9.05714e-05
-4.08188e-05
-8.74442e-05
-4.4559e-05
-8.39959e-05
-4.82905e-05
-8.02353e-05
-5.20255e-05
-7.61692e-05
-5.57824e-05
-7.17984e-05
-5.95832e-05
-6.71128e-05
-6.34518e-05
-6.20858e-05
-6.74031e-05
-5.66892e-05
-7.14539e-05
-5.08516e-05
-7.55667e-05
-4.45232e-05
-7.96997e-05
-3.7666e-05
-8.38608e-05
-3.02105e-05
-2.21586e-05
-8.78884e-05
-3.29504e-06
-9.92552e-05
-6.64284e-06
-0.000100635
-1.00008e-05
-0.0001
-1.33785e-05
-9.90986e-05
-1.67747e-05
-9.78938e-05
-2.01881e-05
-9.63806e-05
-2.36141e-05
-9.45534e-05
-2.70474e-05
-9.24064e-05
-3.04823e-05
-8.99361e-05
-3.39127e-05
-8.71409e-05
-3.73348e-05
-8.40217e-05
-4.07484e-05
-8.05822e-05
-4.41574e-05
-7.68263e-05
-4.75693e-05
-7.27571e-05
-5.09958e-05
-6.83719e-05
-5.44497e-05
-6.36591e-05
-5.79389e-05
-5.85966e-05
-6.14747e-05
-5.31535e-05
-6.50412e-05
-4.72851e-05
-6.86117e-05
-4.09527e-05
-7.21571e-05
-3.41205e-05
-7.56006e-05
-2.67671e-05
-1.89167e-05
-7.88424e-05
-3.00033e-06
-9.62549e-05
-6.04944e-06
-9.75861e-05
-9.10432e-06
-9.69454e-05
-1.21738e-05
-9.6029e-05
-1.52558e-05
-9.48118e-05
-1.83489e-05
-9.32876e-05
-2.14497e-05
-9.14525e-05
-2.45545e-05
-8.93015e-05
-2.7659e-05
-8.68316e-05
-3.07591e-05
-8.40407e-05
-3.38523e-05
-8.09283e-05
-3.69385e-05
-7.74957e-05
-4.00207e-05
-7.37443e-05
-4.31032e-05
-6.96744e-05
-4.61921e-05
-6.5283e-05
-4.92913e-05
-6.05601e-05
-5.24023e-05
-5.54858e-05
-5.5525e-05
-5.00308e-05
-5.86418e-05
-4.41683e-05
-6.17202e-05
-3.78743e-05
-6.47207e-05
-3.11201e-05
-6.75801e-05
-2.39079e-05
-1.62877e-05
-7.02091e-05
-2.70239e-06
-9.35526e-05
-5.44833e-06
-9.48403e-05
-8.19648e-06
-9.41972e-05
-1.09554e-05
-9.32701e-05
-1.37221e-05
-9.20451e-05
-1.64953e-05
-9.05144e-05
-1.92726e-05
-8.86751e-05
-2.20513e-05
-8.65228e-05
-2.48283e-05
-8.40546e-05
-2.76007e-05
-8.12681e-05
-3.03667e-05
-7.81622e-05
-3.31256e-05
-7.47366e-05
-3.5879e-05
-7.0991e-05
-3.86293e-05
-6.69243e-05
-4.13786e-05
-6.25338e-05
-4.41264e-05
-5.78124e-05
-4.68675e-05
-5.27447e-05
-4.95929e-05
-4.73055e-05
-5.22859e-05
-4.14753e-05
-5.49219e-05
-3.52384e-05
-5.74481e-05
-2.8594e-05
-5.98179e-05
-2.15383e-05
-1.41559e-05
-6.195e-05
-2.39969e-06
-9.11529e-05
-4.83906e-06
-9.24011e-05
-7.27832e-06
-9.1758e-05
-9.725e-06
-9.08237e-05
-1.21761e-05
-8.95942e-05
-1.46298e-05
-8.80606e-05
-1.70847e-05
-8.622e-05
-1.95387e-05
-8.40687e-05
-2.19898e-05
-8.16034e-05
-2.44359e-05
-7.88219e-05
-2.68757e-05
-7.57225e-05
-2.93081e-05
-7.23042e-05
-3.17331e-05
-6.85659e-05
-3.41516e-05
-6.45061e-05
-3.65631e-05
-6.01225e-05
-3.89648e-05
-5.54109e-05
-4.13482e-05
-5.03615e-05
-4.36988e-05
-4.49549e-05
-4.60023e-05
-3.91719e-05
-4.82325e-05
-3.30085e-05
-5.03504e-05
-2.64763e-05
-5.23058e-05
-1.95831e-05
-1.24161e-05
-5.40456e-05
-2.08612e-06
-8.90667e-05
-4.217e-06
-9.02705e-05
-6.3468e-06
-8.96283e-05
-8.48082e-06
-8.86898e-05
-1.06167e-05
-8.74584e-05
-1.27522e-05
-8.59248e-05
-1.48864e-05
-8.40857e-05
-1.70175e-05
-8.19375e-05
-1.91441e-05
-7.94768e-05
-2.1265e-05
-7.6701e-05
-2.33793e-05
-7.36084e-05
-2.54858e-05
-7.01977e-05
-2.75839e-05
-6.64678e-05
-2.96728e-05
-6.24174e-05
-3.17509e-05
-5.80446e-05
-3.38143e-05
-5.33476e-05
-3.58542e-05
-4.83217e-05
-3.78543e-05
-4.29549e-05
-3.97973e-05
-3.7229e-05
-4.16633e-05
-3.11427e-05
-4.34187e-05
-2.47211e-05
-4.50164e-05
-1.79855e-05
-1.10173e-05
-4.64152e-05
-1.7515e-06
-8.73153e-05
-3.57294e-06
-8.84491e-05
-5.39308e-06
-8.78081e-05
-7.21404e-06
-8.68688e-05