/*--------------------------------*- C++ -*----------------------------------*\
| =========                 |                                                 |
| \\      /  F ield         | OpenFOAM: The Open Source CFD Toolbox           |
|  \\    /   O peration     | Version:  2206                                  |
|   \\  /    A nd           | Website:  www.openfoam.com                      |
|    \\/     M anipulation  |                                                 |
\*---------------------------------------------------------------------------*/
FoamFile
{
    version     2.0;
    format      ascii;
    arch        "LSB;label=32;scalar=64";
    class       volVectorField;
    location    "0.225";
    object      U;
}
// * * * * * * * * * * * * * * * * * * * * * * * * * * * * * * * * * * * * * //

dimensions      [0 1 -1 0 0 0 0];

internalField   nonuniform List<vector> 
2268
(
(-0.00261466 -0.00299017 0)
(0.0349267 -0.0136608 0)
(0.104112 -0.0167253 0)
(0.175198 -0.0157495 0)
(0.239179 -0.0139896 0)
(0.295718 -0.0127501 0)
(0.34815 -0.0121822 0)
(0.399413 -0.0120544 0)
(0.45076 -0.0120771 0)
(0.502196 -0.0120157 0)
(0.55298 -0.0117069 0)
(0.601819 -0.0110241 0)
(0.646875 -0.00983961 0)
(0.685735 -0.00794534 0)
(0.714419 -0.00516387 0)
(0.73048 0.000796551 0)
(0.715562 0.0117993 0)
(0.651243 0.0302215 0)
(0.517047 0.0546209 0)
(0.297578 0.074266 0)
(0.00104327 0.0584024 0)
(-0.274456 -0.0573126 0)
(-0.102267 -0.1374 0)
(-0.00233418 -0.00926653 0)
(0.0359202 -0.0411577 0)
(0.105378 -0.0503254 0)
(0.176317 -0.047478 0)
(0.240056 -0.0422424 0)
(0.296569 -0.0385482 0)
(0.34921 -0.0368813 0)
(0.400829 -0.0365341 0)
(0.452616 -0.0366275 0)
(0.504551 -0.0364658 0)
(0.555901 -0.0355713 0)
(0.605408 -0.0335701 0)
(0.65131 -0.0300705 0)
(0.691198 -0.0245227 0)
(0.722566 -0.0161573 0)
(0.739619 -0.00229024 0)
(0.750156 0.0196443 0)
(0.753772 0.0545255 0)
(0.735897 0.105079 0)
(0.649143 0.164098 0)
(0.435735 0.188253 0)
(0.0736158 0.11741 0)
(0.101396 -0.110975 0)
(-0.00182061 -0.0158975 0)
(0.0373222 -0.0686211 0)
(0.106661 -0.0836921 0)
(0.176798 -0.0789349 0)
(0.23962 -0.0702456 0)
(0.295617 -0.0641771 0)
(0.348205 -0.0615226 0)
(0.400082 -0.0610416 0)
(0.452309 -0.0612529 0)
(0.504807 -0.0610248 0)
(0.556847 -0.0595911 0)
(0.607221 -0.0563449 0)
(0.654253 -0.0506399 0)
(0.695739 -0.0416508 0)
(0.72897 -0.0281468 0)
(0.750392 -0.00895348 0)
(0.755987 0.0181011 0)
(0.744433 0.0581322 0)
(0.725615 0.118996 0)
(0.705307 0.204984 0)
(0.648995 0.274762 0)
(0.399917 0.231484 0)
(0.23116 -0.00232541 0)
(-0.00101553 -0.023047 0)
(0.0394197 -0.096211 0)
(0.108491 -0.116768 0)
(0.177478 -0.109938 0)
(0.239068 -0.0978927 0)
(0.29442 -0.0896713 0)
(0.347022 -0.086245 0)
(0.399356 -0.0857779 0)
(0.452289 -0.0861963 0)
(0.505661 -0.0859732 0)
(0.558756 -0.0840879 0)
(0.610439 -0.0797224 0)
(0.659161 -0.0720061 0)
(0.702902 -0.0598464 0)
(0.739114 -0.0418018 0)
(0.764435 -0.0161821 0)
(0.775283 0.0194895 0)
(0.767076 0.0678821 0)
(0.739499 0.132449 0)
(0.699751 0.219806 0)
(0.682384 0.318484 0)
(0.540351 0.332518 0)
(0.315674 0.15858 0)
(0.000116972 -0.0309726 0)
(0.042163 -0.124018 0)
(0.110722 -0.149397 0)
(0.178176 -0.140268 0)
(0.238247 -0.125061 0)
(0.292864 -0.115026 0)
(0.345558 -0.111115 0)
(0.398507 -0.110842 0)
(0.452334 -0.111575 0)
(0.506791 -0.11145 0)
(0.561191 -0.109232 0)
(0.614508 -0.103921 0)
(0.665371 -0.0944506 0)
(0.711986 -0.0794758 0)
(0.752009 -0.0572362 0)
(0.782257 -0.0255617 0)
(0.799125 0.0180126 0)
(0.79829 0.0758313 0)
(0.777088 0.149429 0)
(0.725557 0.237725 0)
(0.678159 0.347227 0)
(0.57349 0.426714 0)
(0.354447 0.349503 0)
(0.00163937 -0.0400247 0)
(0.0454303 -0.15201 0)
(0.113167 -0.181398 0)
(0.178708 -0.16975 0)
(0.237034 -0.151664 0)
(0.290882 -0.140253 0)
(0.343744 -0.136206 0)
(0.397417 -0.136332 0)
(0.452242 -0.137503 0)
(0.507892 -0.137592 0)
(0.563743 -0.135211 0)
(0.618922 -0.129216 0)
(0.672292 -0.118374 0)
(0.722314 -0.101091 0)
(0.766841 -0.0752331 0)
(0.802793 -0.0381559 0)
(0.826495 0.0128703 0)
(0.833518 0.079867 0)
(0.820707 0.164904 0)
(0.77642 0.264383 0)
(0.703711 0.383851 0)
(0.587539 0.518716 0)
(0.371583 0.564099 0)
(0.00356295 -0.0502126 0)
(0.0490307 -0.180109 0)
(0.115612 -0.212707 0)
(0.178929 -0.198366 0)
(0.23537 -0.177694 0)
(0.288464 -0.165333 0)
(0.341571 -0.161475 0)
(0.396029 -0.162178 0)
(0.451886 -0.16388 0)
(0.508763 -0.164275 0)
(0.566133 -0.161877 0)
(0.623334 -0.155449 0)
(0.679501 -0.143624 0)
(0.733351 -0.124552 0)
(0.782925 -0.0957263 0)
(0.82527 -0.0540317 0)
(0.8567 0.00347211 0)
(0.872821 0.0790231 0)
(0.869073 0.175246 0)
(0.837913 0.291301 0)
(0.765114 0.430035 0)
(0.634941 0.604688 0)
(0.414774 0.783592 0)
(0.00578921 -0.0615507 0)
(0.0527177 -0.20849 0)
(0.117836 -0.243325 0)
(0.178765 -0.226144 0)
(0.233327 -0.203251 0)
(0.285743 -0.190355 0)
(0.339154 -0.18695 0)
(0.394407 -0.188348 0)
(0.451279 -0.19063 0)
(0.509371 -0.191373 0)
(0.568311 -0.189045 0)
(0.6277 -0.182352 0)
(0.686953 -0.169772 0)
(0.74502 -0.149144 0)
(0.800166 -0.117606 0)
(0.849581 -0.0716566 0)
(0.889572 -0.00818582 0)
(0.915843 0.0754209 0)
(0.923129 0.182023 0)
(0.906543 0.313561 0)
(0.849318 0.479233 0)
(0.731963 0.698306 0)
(0.421523 1.05892 0)
(0.00938467 -0.00806103 0)
(0.0291082 -0.00422144 0)
(0.0384166 -0.000856485 0)
(0.0438079 -0.000660139 0)
(0.0516835 -0.00127881 0)
(0.0603011 -0.00178972 0)
(0.0685275 -0.00155733 0)
(0.074547 -0.000988824 0)
(0.0781358 -0.000420236 0)
(0.0791532 0.000177066 0)
(0.077667 0.000746277 0)
(0.0738712 0.00128406 0)
(0.0680551 0.00175298 0)
(0.0604992 0.00214641 0)
(0.0514415 0.00245718 0)
(0.0411764 0.00271435 0)
(0.0300313 0.00290261 0)
(0.0183986 0.00296971 0)
(0.00626002 0.00317001 0)
(-0.00718856 -0.0120985 0)
(0.00315855 -0.0102222 0)
(0.016553 -0.00634672 0)
(0.0308986 -0.00711055 0)
(0.0466064 -0.00746128 0)
(0.0590182 -0.00709835 0)
(0.0689156 -0.0058086 0)
(0.0763482 -0.00396684 0)
(0.0809606 -0.00196691 0)
(0.0826757 5.75334e-05 0)
(0.0816467 0.00198016 0)
(0.0780547 0.00374386 0)
(0.0721776 0.00528233 0)
(0.0643487 0.00659393 0)
(0.0548403 0.00765057 0)
(0.0439865 0.00852093 0)
(0.0321208 0.00913654 0)
(0.0196659 0.00937289 0)
(0.00665842 0.00989633 0)
(-0.00782171 -0.0108583 0)
(0.00685995 -0.0163332 0)
(0.0217698 -0.0138775 0)
(0.0341059 -0.0157491 0)
(0.0481207 -0.0146817 0)
(0.0597623 -0.0128702 0)
(0.0696619 -0.0102481 0)
(0.0769991 -0.00705214 0)
(0.0814964 -0.0035423 0)
(0.0831017 -4.54694e-05 0)
(0.0819547 0.00326763 0)
(0.0782463 0.00629278 0)
(0.0722765 0.00892748 0)
(0.0643788 0.0111838 0)
(0.054837 0.0130249 0)
(0.0439657 0.0145141 0)
(0.0320866 0.0155766 0)
(0.0196313 0.0159768 0)
(0.00663396 0.0168504 0)
(-0.00759339 -0.0103467 0)
(0.00801572 -0.0239462 0)
(0.0231488 -0.0199005 0)
(0.0340691 -0.0225069 0)
(0.0487971 -0.0206596 0)
(0.0607797 -0.0184362 0)
(0.0711481 -0.0146863 0)
(0.078724 -0.0100525 0)
(0.0832779 -0.00506892 0)
(0.084823 -9.08663e-05 0)
(0.0835502 0.00460863 0)
(0.0796528 0.00885642 0)
(0.0734621 0.0126019 0)
(0.0653517 0.0157865 0)
(0.0556095 0.0184086 0)
(0.0445538 0.0204979 0)
(0.0324876 0.0219901 0)
(0.0198525 0.0225783 0)
(0.00670194 0.0237831 0)
(-0.0142579 -0.0151492 0)
(0.00118185 -0.0328996 0)
(0.0219703 -0.0258999 0)
(0.033022 -0.030014 0)
(0.0496856 -0.0274101 0)
(0.0622143 -0.0244827 0)
(0.0732833 -0.0194288 0)
(0.0812389 -0.0132172 0)
(0.0859198 -0.00663921 0)
(0.0874215 -8.75491e-05 0)
(0.0859603 0.00605007 0)
(0.0818164 0.0115486 0)
(0.0753515 0.0164074 0)
(0.0669333 0.0205399 0)
(0.0568888 0.0239358 0)
(0.0455258 0.0265998 0)
(0.0331654 0.0285232 0)
(0.0202442 0.0293086 0)
(0.00681975 0.0308095 0)
(-0.0192158 -0.00228411 0)
(-0.00803403 -0.0379016 0)
(0.0204083 -0.0340665 0)
(0.0306459 -0.0389607 0)
(0.0507112 -0.0347608 0)
(0.0640101 -0.0309734 0)
(0.0760301 -0.02447 0)
(0.0844663 -0.0165445 0)
(0.089299 -0.00820742 0)
(0.0907401 7.11744e-06 0)
(0.0890426 0.00761519 0)
(0.0845772 0.0144311 0)
(0.0777593 0.0204094 0)
(0.0689529 0.0255014 0)
(0.0585017 0.0296279 0)
(0.0467559 0.0328788 0)
(0.0340368 0.0352479 0)
(0.0207418 0.0362157 0)
(0.00696963 0.0379884 0)
(-0.0461699 -0.0137978 0)
(-0.0217521 -0.0565346 0)
(0.0157578 -0.0435796 0)
(0.0250568 -0.0498066 0)
(0.0511352 -0.0429688 0)
(0.0657994 -0.0381389 0)
(0.0792043 -0.029961 0)
(0.0883021 -0.0201765 0)
(0.0933607 -0.00985576 0)
(0.0947102 0.000121461 0)
(0.0927187 0.00929701 0)
(0.0878822 0.017465 0)
(0.080644 0.0246203 0)
(0.0713549 0.0306266 0)
(0.0604228 0.0355028 0)
(0.0482357 0.0393602 0)
(0.0350731 0.0421563 0)
(0.0213335 0.0433267 0)
(0.00715081 0.0453311 0)
(-0.0401016 0.0413215 0)
(-0.0447835 -0.0525659 0)
(0.0157234 -0.0504205 0)
(0.0157 -0.0604209 0)
(0.0516564 -0.0529961 0)
(0.0682855 -0.046151 0)
(0.0835264 -0.0357747 0)
(0.0933516 -0.0238366 0)
(0.0985669 -0.0114106 0)
(0.0996555 0.000373038 0)
(0.09722 0.0112028 0)
(0.0918787 0.0207495 0)
(0.0840879 0.0290201 0)
(0.0742011 0.0359683 0)
(0.0627064 0.0416061 0)
(0.0499757 0.0460357 0)
(0.0362912 0.0492417 0)
(0.0220285 0.0506314 0)
(0.00735735 0.0528319 0)
(0.00932731 -0.082829 0)
(0.0581371 -0.253452 0)
(0.120574 -0.288961 0)
(0.17776 -0.267203 0)
(0.229713 -0.24218 0)
(0.281347 -0.22971 0)
(0.335276 -0.22772 0)
(0.391649 -0.230554 0)
(0.449968 -0.234024 0)
(0.509939 -0.235725 0)
(0.571573 -0.234212 0)
(0.634922 -0.228082 0)
(0.699827 -0.215554 0)
(0.765721 -0.193965 0)
(0.831506 -0.159812 0)
(0.894432 -0.108434 0)
(0.950303 -0.0364501 0)
(0.994661 0.0583405 0)
(1.02117 0.181042 0)
(1.0333 0.333201 0)
(1.01065 0.529562 0)
(1.03865 0.756049 0)
(0.889114 1.27068 0)
(0.0140672 -0.115838 0)
(0.065271 -0.314011 0)
(0.123764 -0.34716 0)
(0.175771 -0.319336 0)
(0.224606 -0.293263 0)
(0.275613 -0.283014 0)
(0.330312 -0.283857 0)
(0.38804 -0.289113 0)
(0.448156 -0.29464 0)
(0.510703 -0.298425 0)
(0.576382 -0.299315 0)
(0.645676 -0.295708 0)
(0.718964 -0.285801 0)
(0.796791 -0.266305 0)
(0.880082 -0.232338 0)
(0.965768 -0.175957 0)
(1.04804 -0.0936915 0)
(1.12256 0.01471 0)
(1.18314 0.146247 0)
(1.23261 0.308478 0)
(1.24822 0.516054 0)
(1.3227 0.724761 0)
(1.34885 1.11887 0)
(0.0189462 -0.155458 0)
(0.0715321 -0.373071 0)
(0.125265 -0.399491 0)
(0.172079 -0.366822 0)
(0.218421 -0.342542 0)
(0.269129 -0.336437 0)
(0.324306 -0.340958 0)
(0.382746 -0.349078 0)
(0.443902 -0.357397 0)
(0.508418 -0.364714 0)
(0.57746 -0.370098 0)
(0.651164 -0.371648 0)
(0.731047 -0.3684 0)
(0.820779 -0.356238 0)
(0.925733 -0.328995 0)
(1.04109 -0.272282 0)
(1.1548 -0.185769 0)
(1.25806 -0.0580295 0)
(1.3446 0.126345 0)
(1.41999 0.326764 0)
(1.47751 0.522999 0)
(1.54175 0.698089 0)
(1.61405 0.928582 0)
(0.0235273 -0.20067 0)
(0.0763342 -0.429638 0)
(0.12482 -0.446298 0)
(0.167008 -0.410897 0)
(0.2116 -0.390852 0)
(0.261994 -0.389891 0)
(0.316973 -0.398284 0)
(0.375026 -0.409488 0)
(0.4358 -0.421393 0)
(0.500453 -0.4333 0)
(0.569411 -0.444014 0)
(0.642541 -0.451107 0)
(0.725553 -0.457335 0)
(0.827454 -0.460902 0)
(0.955011 -0.459482 0)
(1.09934 -0.422497 0)
(1.23923 -0.361903 0)
(1.37743 -0.261265 0)
(1.50052 -0.129228 0)
(1.56147 0.0356141 0)
(1.59369 0.254796 0)
(1.63784 0.502373 0)
(1.70591 0.754416 0)
(0.0276779 -0.250805 0)
(0.0796253 -0.482856 0)
(0.122333 -0.487909 0)
(0.160594 -0.452434 0)
(0.203838 -0.438534 0)
(0.253231 -0.442989 0)
(0.306549 -0.454901 0)
(0.361859 -0.468931 0)
(0.419252 -0.484142 0)
(0.479749 -0.4994 0)
(0.543123 -0.513389 0)
(0.61249 -0.525468 0)
(0.700129 -0.55379 0)
(0.815329 -0.596513 0)
(0.9504 -0.641297 0)
(1.08795 -0.615432 0)
(1.20391 -0.534549 0)
(1.30259 -0.369876 0)
(1.36978 -0.0483017 0)
(1.46482 0.202356 0)
(1.54941 0.37421 0)
(1.61546 0.531346 0)
(1.6663 0.686493 0)
(0.031507 -0.305324 0)
(0.0814489 -0.53188 0)
(0.117254 -0.524894 0)
(0.151975 -0.492076 0)
(0.193388 -0.485062 0)
(0.239977 -0.493939 0)
(0.288911 -0.50771 0)
(0.337946 -0.522793 0)
(0.388695 -0.539138 0)
(0.442082 -0.556008 0)
(0.502112 -0.575448 0)
(0.576335 -0.60727 0)
(0.682332 -0.685583 0)
(0.822367 -0.755678 0)
(0.948516 -0.786056 0)
(1.03367 -0.678456 0)
(1.14977 -0.558146 0)
(1.34537 -0.408535 0)
(1.52338 -0.0332071 0)
(1.53099 0.121606 0)
(1.51421 0.325255 0)
(1.55794 0.506692 0)
(1.5803 0.640182 0)
(0.0353629 -0.362884 0)
(0.0819488 -0.573069 0)
(0.108228 -0.555073 0)
(0.139298 -0.527789 0)
(0.177442 -0.527048 0)
(0.218987 -0.538345 0)
(0.261476 -0.55202 0)
(0.304011 -0.567478 0)
(0.352458 -0.587391 0)
(0.409773 -0.614715 0)
(0.492489 -0.658473 0)
(0.617125 -0.733551 0)
(0.782177 -0.848596 0)
(0.967992 -0.861008 0)
(1.08041 -0.809378 0)
(1.12751 -0.669068 0)
(1.35664 -0.731901 0)
(1.6395 -0.579912 0)
(1.75846 -0.227434 0)
(1.72898 0.0753291 0)
(1.65163 0.297659 0)
(1.62623 0.479753 0)
(1.59136 0.621906 0)
(0.0413821 -0.424572 0)
(0.0835065 -0.602785 0)
(0.0945364 -0.577034 0)
(0.122496 -0.559937 0)
(0.157908 -0.564999 0)
(0.196802 -0.578194 0)
(0.239038 -0.594021 0)
(0.290794 -0.617914 0)
(0.367324 -0.656139 0)
(0.483051 -0.716189 0)
(0.650261 -0.811296 0)
(0.902001 -0.902174 0)
(1.12983 -1.00382 0)
(1.20721 -0.929354 0)
(1.17326 -0.814667 0)
(1.17038 -0.942516 0)
(1.20968 -1.05186 0)
(1.37835 -0.826551 0)
(1.49485 -0.314948 0)
(1.42913 0.151172 0)
(1.35764 0.361241 0)
(1.47558 0.503817 0)
(1.59815 0.686054 0)
(0.051916 -0.494479 0)
(0.0924455 -0.626508 0)
(0.0833136 -0.59787 0)
(0.114425 -0.597097 0)
(0.158998 -0.609392 0)
(0.216698 -0.629717 0)
(0.291271 -0.660395 0)
(0.401941 -0.711494 0)
(0.585793 -0.806604 0)
(0.827272 -0.903703 0)
(1.08556 -1.05739 0)
(1.2617 -1.10533 0)
(1.38147 -1.1201 0)
(1.35885 -0.906702 0)
(1.24738 -0.722636 0)
(1.08897 -0.97889 0)
(1.0027 -1.03871 0)
(1.01442 -0.796154 0)
(1.02062 -0.227773 0)
(0.966909 0.227506 0)
(0.974416 0.276569 0)
(1.16809 0.300399 0)
(1.42592 0.60849 0)
(0.056847 -0.575619 0)
(0.114877 -0.651928 0)
(0.108614 -0.617841 0)
(0.164109 -0.646325 0)
(0.252977 -0.67977 0)
(0.39296 -0.737289 0)
(0.542147 -0.793652 0)
(0.721142 -0.896854 0)
(0.912433 -1.03461 0)
(1.11136 -1.13658 0)
(1.30558 -1.24466 0)
(1.4615 -1.24469 0)
(1.52409 -1.13072 0)
(1.49784 -0.785833 0)
(1.31534 -0.554745 0)
(1.02379 -0.829084 0)
(0.882273 -0.910663 0)
(0.79458 -0.699071 0)
(0.722028 -0.189995 0)
(0.702199 0.146308 0)
(0.800329 0.105807 0)
(1.03529 0.056145 0)
(1.26516 0.40039 0)
(0.0205409 -0.687056 0)
(0.103318 -0.667726 0)
(0.200193 -0.647806 0)
(0.279447 -0.719719 0)
(0.367439 -0.799838 0)
(0.474527 -0.857848 0)
(0.602697 -0.9417 0)
(0.750392 -1.06758 0)
(0.907716 -1.21065 0)
(1.08614 -1.34445 0)
(1.25931 -1.41662 0)
(1.39846 -1.35349 0)
(1.42577 -1.14441 0)
(1.43084 -0.681601 0)
(1.29215 -0.325011 0)
(0.956553 -0.61026 0)
(0.777226 -0.752012 0)
(0.663968 -0.562636 0)
(0.52851 -0.112851 0)
(0.536565 0.0380566 0)
(0.696958 -0.0872084 0)
(0.879696 -0.148017 0)
(1.17568 0.16268 0)
(0.00697908 -0.698764 0)
(0.0623007 -0.719418 0)
(0.166038 -0.753511 0)
(0.254595 -0.815222 0)
(0.33038 -0.888871 0)
(0.410872 -0.973412 0)
(0.498794 -1.07786 0)
(0.608132 -1.214 0)
(0.731376 -1.37752 0)
(0.902823 -1.52099 0)
(1.02126 -1.56499 0)
(1.10659 -1.43853 0)
(1.08324 -1.15492 0)
(1.0857 -0.644405 0)
(1.05757 -0.112445 0)
(0.785457 -0.410439 0)
(0.61584 -0.57681 0)
(0.504617 -0.383862 0)
(0.318603 -0.0605516 0)
(0.389635 -0.101621 0)
(0.566358 -0.269881 0)
(0.655354 -0.340617 0)
(1.06826 -0.104243 0)
(0.0202627 -0.736688 0)
(0.0663309 -0.857635 0)
(0.128083 -0.851528 0)
(0.188761 -0.890223 0)
(0.241707 -0.958602 0)
(0.294925 -1.04615 0)
(0.350211 -1.16087 0)
(0.430285 -1.32071 0)
(0.509211 -1.5146 0)
(0.640752 -1.64145 0)
(0.634614 -1.64365 0)
(0.674832 -1.45383 0)
(0.6073 -1.11253 0)
(0.599988 -0.590513 0)
(0.648143 -0.0703955 0)
(0.497614 -0.32867 0)
(0.391391 -0.39785 0)
(0.232797 -0.146371 0)
(0.119337 -0.0780365 0)
(0.251882 -0.246559 0)
(0.380451 -0.417807 0)
(0.474561 -0.516872 0)
(0.768621 -0.340578 0)
(0.0291107 -0.782949 0)
(0.0603262 -0.896278 0)
(0.085218 -0.891966 0)
(0.121624 -0.931944 0)
(0.153472 -0.99809 0)
(0.180768 -1.0853 0)
(0.205064 -1.2077 0)
(0.241416 -1.38415 0)
(0.249777 -1.57883 0)
(0.289386 -1.66176 0)
(0.188275 -1.62707 0)
(0.182731 -1.41078 0)
(0.106829 -1.0403 0)
(0.131767 -0.484245 0)
(0.229215 -0.0984404 0)
(0.182719 -0.284302 0)
(0.080744 -0.213467 0)
(-0.101723 0.000223163 0)
(-0.00582456 -0.17721 0)
(0.0887849 -0.357763 0)
(0.183826 -0.535278 0)
(0.286952 -0.660386 0)
(0.408525 -0.573903 0)
(0.0241156 -0.825765 0)
(0.0407636 -0.909096 0)
(0.0477946 -0.913625 0)
(0.0656947 -0.954283 0)
(0.0762816 -1.01422 0)
(0.0765207 -1.09404 0)
(0.0673922 -1.21044 0)
(0.0449749 -1.37737 0)
(-0.0224711 -1.54387 0)
(-0.0820587 -1.60349 0)
(-0.202498 -1.55968 0)
(-0.261933 -1.36183 0)
(-0.320819 -1.00246 0)
(-0.243724 -0.526038 0)
(-0.150423 -0.264068 0)
(-0.233211 -0.202972 0)
(-0.344504 -0.0335553 0)
(-0.296251 -0.0747324 0)
(-0.153502 -0.288368 0)
(-0.0757006 -0.447038 0)
(-0.000915646 -0.628546 0)
(0.0681691 -0.773842 0)
(0.124954 -0.783076 0)
(0.0139963 -0.854763 0)
(0.0191651 -0.908281 0)
(0.0163407 -0.921747 0)
(0.0179566 -0.957727 0)
(0.00952149 -1.00712 0)
(-0.0124261 -1.07194 0)
(-0.0495242 -1.1668 0)
(-0.121927 -1.30267 0)
(-0.241083 -1.43686 0)
(-0.371363 -1.50076 0)
(-0.501562 -1.46748 0)
(-0.631888 -1.29704 0)
(-0.692222 -0.965679 0)
(-0.636425 -0.545407 0)
(-0.614014 -0.206217 0)
(-0.626678 -0.0344221 0)
(-0.568416 -0.0927212 0)
(-0.39789 -0.245684 0)
(-0.289249 -0.378466 0)
(-0.221174 -0.515219 0)
(-0.174478 -0.684458 0)
(-0.161273 -0.8355 0)
(-0.132504 -0.868722 0)
(0.00408589 -0.865983 0)
(0.000301153 -0.899987 0)
(-0.00949983 -0.916751 0)
(-0.0211936 -0.945431 0)
(-0.0424902 -0.982997 0)
(-0.0771658 -1.02936 0)
(-0.13043 -1.09398 0)
(-0.224043 -1.18867 0)
(-0.36641 -1.29104 0)
(-0.534503 -1.34895 0)
(-0.710641 -1.31793 0)
(-0.87924 -1.16541 0)
(-1.00072 -0.892456 0)
(-1.03926 -0.572075 0)
(-0.955929 -0.31386 0)
(-0.788849 -0.216076 0)
(-0.615725 -0.278119 0)
(-0.472787 -0.382032 0)
(-0.395472 -0.448213 0)
(-0.339408 -0.559916 0)
(-0.314068 -0.702368 0)
(-0.323422 -0.852258 0)
(-0.334353 -0.932126 0)
(-0.00300817 -0.86145 0)
(-0.0142583 -0.888347 0)
(-0.0298616 -0.902117 0)
(-0.0503452 -0.923368 0)
(-0.078953 -0.950033 0)
(-0.118847 -0.979612 0)
(-0.174397 -1.01545 0)
(-0.26223 -1.06906 0)
(-0.396246 -1.1327 0)
(-0.565567 -1.16864 0)
(-0.746819 -1.13823 0)
(-0.905251 -1.02001 0)
(-0.996447 -0.823228 0)
(-0.991196 -0.607854 0)
(-0.892471 -0.457187 0)
(-0.74084 -0.412817 0)
(-0.606703 -0.436874 0)
(-0.525168 -0.463228 0)
(-0.469723 -0.504008 0)
(-0.431567 -0.588943 0)
(-0.42355 -0.699873 0)
(-0.448788 -0.834051 0)
(-0.500936 -0.941653 0)
(-0.00704845 -0.848803 0)
(-0.0245361 -0.870639 0)
(-0.0451794 -0.880888 0)
(-0.0705963 -0.895824 0)
(-0.102742 -0.913716 0)
(-0.14341 -0.931383 0)
(-0.193777 -0.947728 0)
(-0.263304 -0.969066 0)
(-0.366344 -0.997179 0)
(-0.499343 -1.01425 0)
(-0.638779 -0.99297 0)
(-0.755105 -0.918646 0)
(-0.818197 -0.802267 0)
(-0.810199 -0.676823 0)
(-0.744115 -0.580159 0)
(-0.660442 -0.531064 0)
(-0.597006 -0.513581 0)
(-0.554286 -0.512147 0)
(-0.519164 -0.541788 0)
(-0.501267 -0.601056 0)
(-0.508624 -0.681415 0)
(-0.545423 -0.788379 0)
(-0.618086 -0.89885 0)
(-0.00964501 -0.830188 0)
(-0.0315563 -0.848628 0)
(-0.0557672 -0.855542 0)
(-0.0839758 -0.865399 0)
(-0.11743 -0.876688 0)
(-0.157132 -0.886957 0)
(-0.202392 -0.893386 0)
(-0.255787 -0.897192 0)
(-0.325842 -0.902518 0)
(-0.415102 -0.905883 0)
(-0.511011 -0.892457 0)
(-0.59367 -0.84804 0)
(-0.64522 -0.773752 0)
(-0.656992 -0.689362 0)
(-0.637775 -0.619162 0)
(-0.609674 -0.572637 0)
(-0.586157 -0.545831 0)
(-0.56524 -0.539888 0)
(-0.549931 -0.55911 0)
(-0.550191 -0.597149 0)
(-0.570382 -0.652134 0)
(-0.615061 -0.728697 0)
(-0.690775 -0.819828 0)
(-0.0112942 -0.807561 0)
(-0.0360928 -0.823672 0)
(-0.0625958 -0.827807 0)
(-0.09221 -0.833713 0)
(-0.125793 -0.840039 0)
(-0.164076 -0.84529 0)
(-0.206329 -0.847215 0)
(-0.25173 -0.844644 0)
(-0.302817 -0.839174 0)
(-0.363481 -0.831487 0)
(-0.431001 -0.815536 0)
(-0.49434 -0.782635 0)
(-0.5414 -0.732064 0)
(-0.566796 -0.673464 0)
(-0.574882 -0.620209 0)
(-0.574395 -0.580586 0)
(-0.570114 -0.556427 0)
(-0.565347 -0.549071 0)
(-0.567262 -0.558056 0)
(-0.581863 -0.579822 0)
(-0.612757 -0.61476 0)
(-0.665105 -0.664328 0)
(-0.743011 -0.725314 0)
(-0.0122902 -0.782535 0)
(-0.03876 -0.796838 0)
(-0.0665093 -0.798844 0)
(-0.0965944 -0.801765 0)
(-0.129629 -0.804368 0)
(-0.166163 -0.805723 0)
(-0.206032 -0.804572 0)
(-0.248312 -0.799572 0)
(-0.292703 -0.790087 0)
(-0.340515 -0.776477 0)
(-0.391817 -0.757836 0)
(-0.441986 -0.730499 0)
(-0.484 -0.692414 0)
(-0.513861 -0.648281 0)
(-0.53259 -0.607032 0)
(-0.54367 -0.574841 0)
(-0.550832 -0.55351 0)
(-0.558994 -0.543317 0)
(-0.573635 -0.543262 0)
(-0.598386 -0.551977 0)
(-0.636787 -0.569877 0)
(-0.693941 -0.596641 0)
(-0.772814 -0.628269 0)
(-0.0128072 -0.756195 0)
(-0.0400295 -0.769093 0)
(-0.0681969 -0.7695 0)
(-0.0980968 -0.770206 0)
(-0.130158 -0.770105 0)
(-0.164722 -0.768497 0)
(-0.201837 -0.764619 0)
(-0.2412 -0.75771 0)
(-0.282115 -0.746959 0)
(-0.323981 -0.731891 0)
(-0.366492 -0.712212 0)
(-0.408163 -0.686979 0)
(-0.445486 -0.655801 0)
(-0.475336 -0.621358 0)
(-0.49762 -0.588596 0)
(-0.514835 -0.561226 0)
(-0.530381 -0.540578 0)
(-0.547903 -0.526818 0)
(-0.570847 -0.519355 0)
(-0.602015 -0.517422 0)
(-0.644518 -0.5208 0)
(-0.702664 -0.528837 0)
(-0.779282 -0.537022 0)
(-0.012953 -0.729383 0)
(-0.0402637 -0.741143 0)
(-0.0682349 -0.74039 0)
(-0.0974937 -0.739467 0)
(-0.128316 -0.737439 0)
(-0.160908 -0.733765 0)
(-0.195234 -0.727883 0)
(-0.231181 -0.71934 0)
(-0.268445 -0.707667 0)
(-0.306328 -0.69234 0)
(-0.343891 -0.673071 0)
(-0.380061 -0.649864 0)
(-0.413322 -0.623098 0)
(-0.442207 -0.594368 0)
(-0.4666 -0.56644 0)
(-0.488119 -0.541543 0)
(-0.509302 -0.520509 0)
(-0.532637 -0.503438 0)
(-0.560441 -0.489975 0)
(-0.59497 -0.479281 0)
(-0.638626 -0.470713 0)
(-0.69474 -0.463645 0)
(-0.766193 -0.454068 0)
(-0.0128203 -0.702699 0)
(-0.0397403 -0.713522 0)
(-0.0670769 -0.711944 0)
(-0.0953815 -0.709835 0)
(-0.124802 -0.706432 0)
(-0.155485 -0.701339 0)
(-0.187356 -0.694146 0)
(-0.220269 -0.684483 0)
(-0.25403 -0.672046 0)
(-0.288214 -0.656596 0)
(-0.322051 -0.638045 0)
(-0.354651 -0.616551 0)
(-0.385223 -0.592609 0)
(-0.413225 -0.567227 0)
(-0.438766 -0.541906 0)
(-0.462905 -0.517989 0)
(-0.487324 -0.496083 0)
(-0.513705 -0.476168 0)
(-0.543768 -0.457806 0)
(-0.579289 -0.440082 0)
(-0.62191 -0.42217 0)
(-0.673981 -0.403447 0)
(-0.737914 -0.380681 0)
(-0.0124857 -0.676566 0)
(-0.0386628 -0.686617 0)
(-0.0650634 -0.684457 0)
(-0.0921905 -0.681495 0)
(-0.120111 -0.677111 0)
(-0.148929 -0.671012 0)
(-0.178593 -0.662918 0)
(-0.208971 -0.652575 0)
(-0.239851 -0.639764 0)
(-0.270888 -0.624338 0)
(-0.301609 -0.606329 0)
(-0.331499 -0.585986 0)
(-0.36011 -0.563742 0)
(-0.387227 -0.540237 0)
(-0.413046 -0.51628 0)
(-0.43828 -0.492615 0)
(-0.464053 -0.469611 0)
(-0.491579 -0.447161 0)
(-0.522121 -0.424817 0)
(-0.556935 -0.401696 0)
(-0.597014 -0.376817 0)
(-0.643914 -0.349571 0)
(-0.699499 -0.317616 0)
(-0.0120142 -0.651288 0)
(-0.0371819 -0.660715 0)
(-0.0624434 -0.658143 0)
(-0.0882337 -0.654573 0)
(-0.114595 -0.649494 0)
(-0.141582 -0.642694 0)
(-0.169154 -0.633975 0)
(-0.197216 -0.623176 0)
(-0.225609 -0.610172 0)
(-0.254065 -0.594878 0)
(-0.28224 -0.577325 0)
(-0.309841 -0.557725 0)
(-0.336697 -0.536435 0)
(-0.362768 -0.513901 0)
(-0.388206 -0.490565 0)
(-0.413475 -0.466779 0)
(-0.439364 -0.442702 0)
(-0.466795 -0.418158 0)
(-0.496648 -0.392657 0)
(-0.529622 -0.365415 0)
(-0.56626 -0.33554 0)
(-0.607644 -0.302448 0)
(-0.655066 -0.264532 0)
(-0.0114536 -0.627086 0)
(-0.0354063 -0.636017 0)
(-0.0593894 -0.63315 0)
(-0.0837363 -0.62915 0)
(-0.1085 -0.623579 0)
(-0.133697 -0.6163 0)
(-0.159297 -0.607168 0)
(-0.185221 -0.596068 0)
(-0.211361 -0.582917 0)
(-0.237546 -0.567681 0)
(-0.263545 -0.550421 0)
(-0.289157 -0.531308 0)
(-0.314307 -0.510585 0)
(-0.339062 -0.488521 0)
(-0.363601 -0.465357 0)
(-0.388242 -0.441257 0)
(-0.413476 -0.416238 0)
(-0.439906 -0.390064 0)
(-0.468137 -0.362215 0)
(-0.498619 -0.331992 0)
(-0.531553 -0.298719 0)
(-0.567517 -0.261849 0)
(-0.607307 -0.220297 0)
(-0.0108328 -0.604132 0)
(-0.033413 -0.612664 0)
(-0.0560146 -0.609582 0)
(-0.0788504 -0.605276 0)
(-0.101992 -0.599357 0)
(-0.125436 -0.591745 0)
(-0.149157 -0.582332 0)
(-0.173099 -0.571044 0)
(-0.197176 -0.557832 0)
(-0.221271 -0.54268 0)
(-0.245244 -0.525624 0)
(-0.268987 -0.506778 0)
(-0.292476 -0.486318 0)
(-0.315775 -0.464425 0)
(-0.339044 -0.441226 0)
(-0.362522 -0.416743 0)
(-0.386517 -0.390894 0)
(-0.411398 -0.363457 0)
(-0.437569 -0.333986 0)
(-0.465254 -0.301834 0)
(-0.49439 -0.266425 0)
(-0.525243 -0.227359 0)
(-0.558233 -0.184004 0)
(-0.0101666 -0.582564 0)
(-0.0312603 -0.590756 0)
(-0.0523985 -0.587521 0)
(-0.0736811 -0.582992 0)
(-0.0951835 -0.576827 0)
(-0.116901 -0.568983 0)
(-0.138802 -0.559381 0)
(-0.16085 -0.547966 0)
(-0.182985 -0.534704 0)
(-0.205135 -0.519592 0)
(-0.227209 -0.502662 0)
(-0.249141 -0.483991 0)
(-0.270932 -0.463678 0)
(-0.292648 -0.441825 0)
(-0.314407 -0.418501 0)
(-0.336379 -0.393676 0)
(-0.358778 -0.3672 0)
(-0.381808 -0.338848 0)
(-0.405651 -0.308289 0)
(-0.43039 -0.274989 0)
(-0.455877 -0.238403 0)
(-0.482181 -0.198319 0)
(-0.509429 -0.154452 0)
(-0.00946273 -0.562479 0)
(-0.0289953 -0.57036 0)
(-0.0486026 -0.56702 0)
(-0.0683038 -0.562325 0)
(-0.088153 -0.555987 0)
(-0.10816 -0.547979 0)
(-0.128287 -0.538249 0)
(-0.14851 -0.526753 0)
(-0.168787 -0.513469 0)
(-0.189068 -0.498392 0)
(-0.2093 -0.481539 0)
(-0.229446 -0.462958 0)
(-0.249516 -0.442707 0)
(-0.269562 -0.420836 0)
(-0.28967 -0.397364 0)
(-0.309938 -0.372247 0)
(-0.330484 -0.345343 0)
(-0.35145 -0.316418 0)
(-0.372937 -0.285176 0)
(-0.394819 -0.251232 0)
(-0.416873 -0.214208 0)
(-0.43916 -0.173968 0)
(-0.461593 -0.130314 0)
(-0.00872776 -0.543933 0)
(-0.0266583 -0.551516 0)
(-0.0446809 -0.548109 0)
(-0.0627765 -0.54329 0)
(-0.0809611 -0.536833 0)
(-0.0992644 -0.528713 0)
(-0.117643 -0.518897 0)
(-0.136082 -0.507349 0)
(-0.154552 -0.494052 0)
(-0.17302 -0.478999 0)
(-0.191452 -0.462198 0)
(-0.209826 -0.443674 0)
(-0.228151 -0.423457 0)
(-0.246467 -0.40157 0)
(-0.264825 -0.378001 0)
(-0.283281 -0.352689 0)
(-0.301907 -0.325505 0)
(-0.320753 -0.296267 0)
(-0.339801 -0.264725 0)
(-0.35896 -0.230567 0)
(-0.378016 -0.193574 0)
(-0.396755 -0.153671 0)
(-0.415044 -0.110789 0)
(-0.00796888 -0.526958 0)
(-0.0242795 -0.534261 0)
(-0.0406786 -0.530812 0)
(-0.0571449 -0.525901 0)
(-0.0736558 -0.519364 0)
(-0.0902543 -0.511171 0)
(-0.106898 -0.501299 0)
(-0.123577 -0.489721 0)
(-0.14027 -0.476421 0)
(-0.156956 -0.46139 0)
(-0.17361 -0.444627 0)
(-0.190218 -0.426143 0)
(-0.206784 -0.405949 0)
(-0.223337 -0.38405 0)
(-0.239909 -0.360429 0)
(-0.256518 -0.335025 0)
(-0.273179 -0.307721 0)
(-0.289907 -0.278344 0)
(-0.306653 -0.246723 0)
(-0.323285 -0.212693 0)
(-0.339564 -0.176062 0)
(-0.355272 -0.136772 0)
(-0.370258 -0.0950058 0)
(-0.00719031 -0.511593 0)
(-0.0218723 -0.518642 0)
(-0.0366234 -0.515173 0)
(-0.0514387 -0.510193 0)
(-0.0662695 -0.503601 0)
(-0.0811602 -0.49536 0)
(-0.0960745 -0.485453 0)
(-0.111006 -0.473859 0)
(-0.125939 -0.460561 0)
(-0.140859 -0.445549 0)
(-0.155749 -0.428818 0)
(-0.170596 -0.410368 0)
(-0.185401 -0.390201 0)
(-0.200178 -0.36831 0)
(-0.214945 -0.344677 0)
(-0.229704 -0.319252 0)
(-0.244437 -0.291936 0)
(-0.259105 -0.262586 0)
(-0.273652 -0.231065 0)
(-0.287961 -0.19729 0)
(-0.30179 -0.161173 0)
(-0.314909 -0.12272 0)
(-0.327179 -0.0821404 0)
(-0.00638523 -0.497854 0)
(-0.0194277 -0.504685 0)
(-0.0325213 -0.50121 0)
(-0.0456666 -0.496183 0)
(-0.0588153 -0.489558 0)
(-0.0719968 -0.481291 0)
(-0.0851863 -0.471368 0)
(-0.0983774 -0.459768 0)
(-0.11156 -0.446477 0)
(-0.124723 -0.431483 0)
(-0.137856 -0.414778 0)
(-0.150949 -0.39636 0)
(-0.163996 -0.376222 0)
(-0.177 -0.354355 0)
(-0.189967 -0.330744 0)
(-0.202892 -0.305355 0)
(-0.215738 -0.278118 0)
(-0.228445 -0.248906 0)
(-0.24094 -0.217607 0)
(-0.253115 -0.184194 0)
(-0.264768 -0.14867 0)
(-0.275679 -0.111079 0)
(-0.285735 -0.0716365 0)
(-0.00552907 -0.485743 0)
(-0.016909 -0.492366 0)
(-0.0283569 -0.4889 0)
(-0.0398166 -0.483848 0)
(-0.0512864 -0.477212 0)
(-0.0627626 -0.468944 0)
(-0.0742353 -0.459026 0)
(-0.0856956 -0.447439 0)
(-0.0971364 -0.434167 0)
(-0.108551 -0.419197 0)
(-0.119933 -0.402522 0)
(-0.131274 -0.384134 0)
(-0.142568 -0.364029 0)
(-0.15381 -0.342197 0)
(-0.164996 -0.318626 0)
(-0.176116 -0.293298 0)
(-0.187135 -0.266173 0)
(-0.19798 -0.237163 0)
(-0.208569 -0.20616 0)
(-0.218803 -0.173155 0)
(-0.228508 -0.138246 0)
(-0.237487 -0.101506 0)
(-0.245641 -0.0631637 0)
(-0.00458533 -0.475321 0)
(-0.0142539 -0.481672 0)
(-0.0240858 -0.478215 0)
(-0.0338432 -0.473155 0)
(-0.0436349 -0.466521 0)
(-0.0534128 -0.458266 0)
(-0.063183 -0.44837 0)
(-0.0729328 -0.436813 0)
(-0.082654 -0.423577 0)
(-0.0923394 -0.408647 0)
(-0.101984 -0.392014 0)
(-0.111583 -0.37367 0)
(-0.12113 -0.353608 0)
(-0.130622 -0.331824 0)
(-0.140049 -0.30831 0)
(-0.1494 -0.283058 0)
(-0.158645 -0.256055 0)
(-0.16772 -0.227254 0)
(-0.17654 -0.196568 0)
(-0.185015 -0.163972 0)
(-0.192991 -0.129621 0)
(-0.200324 -0.0936906 0)
(-0.20699 -0.0563876 0)
(-0.0035411 -0.466604 0)
(-0.0114209 -0.472481 0)
(-0.0196556 -0.46903 0)
(-0.0276854 -0.463976 0)
(-0.0357782 -0.457346 0)
(-0.0438495 -0.449103 0)
(-0.0519211 -0.439229 0)
(-0.0599801 -0.427707 0)
(-0.0680157 -0.414518 0)
(-0.0760151 -0.399647 0)
(-0.0839671 -0.38308 0)
(-0.0918616 -0.364807 0)
(-0.0996916 -0.344819 0)
(-0.107454 -0.323114 0)
(-0.115143 -0.299686 0)
(-0.122754 -0.274535 0)
(-0.130268 -0.247665 0)
(-0.137642 -0.219067 0)
(-0.144802 -0.188686 0)
(-0.151665 -0.156474 0)
(-0.158122 -0.122587 0)
(-0.164058 -0.0873151 0)
(-0.169429 -0.0508731 0)
(-0.00245575 -0.459956 0)
(-0.00848536 -0.465007 0)
(-0.0151091 -0.461571 0)
(-0.0213911 -0.456538 0)
(-0.0277464 -0.449905 0)
(-0.0340792 -0.441657 0)
(-0.0404237 -0.431779 0)
(-0.0467759 -0.420259 0)
(-0.0531279 -0.407087 0)
(-0.0594657 -0.392249 0)
(-0.0657717 -0.375732 0)
(-0.0720255 -0.357525 0)
(-0.078208 -0.337615 0)
(-0.0843055 -0.315996 0)
(-0.0903096 -0.292664 0)
(-0.0962171 -0.267622 0)
(-0.102028 -0.240881 0)
(-0.107731 -0.21246 0)
(-0.113295 -0.182342 0)
(-0.118664 -0.15047 0)
(-0.12374 -0.11697 0)
(-0.128466 -0.0822042 0)
(-0.132768 -0.0463933 0)