/*--------------------------------*- C++ -*----------------------------------*\
| =========                 |                                                 |
| \\      /  F ield         | OpenFOAM: The Open Source CFD Toolbox           |
|  \\    /   O peration     | Version:  2206                                  |
|   \\  /    A nd           | Website:  www.openfoam.com                      |
|    \\/     M anipulation  |                                                 |
\*---------------------------------------------------------------------------*/
FoamFile
{
    version     2.0;
    format      ascii;
    arch        "LSB;label=32;scalar=64";
    class       volScalarField;
    location    "0.025";
    object      alpha.water;
}
// * * * * * * * * * * * * * * * * * * * * * * * * * * * * * * * * * * * * * //

dimensions      [0 0 0 0 0 0 0];

internalField   nonuniform List<scalar> 
2268
(
1
0.999999
1
1
0.999999
1
1
1
1
1
1
1
0.616895
0.0334177
0.00117348
0.000112888
8.348e-06
4.9344e-07
2.32774e-08
8.42964e-10
2.11559e-11
5.71877e-13
4.03945e-13
1
1
0.999999
1
0.999999
1
1
1
1
1
1
1
0.463366
0.013953
0.00106044
0.00010149
7.57051e-06
4.5351e-07
2.17599e-08
8.05626e-10
2.07872e-11
4.01207e-13
1.6464e-13
1
1
1
1
1
1
1
1
1
1
1
1
0.348498
0.00325287
0.000377766
3.48126e-05
2.60371e-06
1.58235e-07
7.76973e-09
2.97378e-10
8.0449e-12
1.63206e-13
6.79606e-14
1
1
1
1
1
1
1
1
1
1
1
1
0.294949
0.00150303
0.000142239
1.22291e-05
8.88087e-07
5.36162e-08
2.65869e-09
1.04507e-10
3.02149e-12
1.05275e-13
3.25542e-14
1
1
1
1
1
1
1
1
1
1
1
1
0.260992
0.000876203
6.91026e-05
5.33079e-06
3.62937e-07
2.11644e-08
1.03771e-09
4.11949e-11
1.31414e-12
8.8426e-14
1.90595e-14
1
1
1
1
1
1
1
1
1
1
1
1
0.234037
0.000599434
4.14272e-05
2.86967e-06
1.81195e-07
1.00714e-08
4.8237e-10
1.91943e-11
6.74701e-13
5.08727e-14
1.32242e-14
1
1
1
1
1
1
1
1
1
1
1
1
0.211581
0.000446287
2.79654e-05
1.7692e-06
1.04229e-07
5.52779e-09
2.58287e-10
1.06009e-11
3.96471e-13
3.1091e-14
1.06596e-14
1
1
1
1
1
1
1
1
1
1
1
1
0.19265
0.000336598
1.95607e-05
1.1502e-06
6.39086e-08
3.25649e-09
1.49336e-10
6.48694e-12
2.8308e-13
2.05887e-14
5.54969e-15
2.07061e-39
2.99538e-40
2.6097e-44
1.40581e-46
9.16716e-49
7.0646e-51
5.53363e-53
8.27514e-55
6.0258e-57
3.87026e-59
2.25328e-61
1.16005e-63
5.16693e-66
1.93807e-68
5.90409e-71
1.38418e-73
2.28384e-76
2.22988e-79
1.11874e-79
4.59997e-37
1.19168e-37
6.6941e-42
2.6097e-44
1.40581e-46
9.16716e-49
7.0646e-51
3.75795e-52
2.79829e-54
1.69977e-56
9.72479e-59
4.90244e-61
2.1248e-63
7.66771e-66
2.19916e-68
4.64471e-71
6.18994e-74
3.06715e-77
1.11817e-79
1.29922e-34
2.39454e-35
2.74983e-39
1.17541e-41
6.42792e-44
4.24078e-46
3.34263e-48
9.26512e-50
6.55437e-52
3.99921e-54
2.23724e-56
1.09791e-58
4.59147e-61
1.57189e-63
4.12931e-66
7.32033e-69
1.07605e-71
7.97504e-75
3.05954e-77
2.1196e-32
3.25899e-33
4.44452e-37
2.67052e-39
1.55721e-41
1.04395e-43
2.10422e-45
1.71832e-47
1.13639e-49
6.9266e-52
3.77362e-54
1.78726e-56
7.0928e-59
2.22735e-61
6.41956e-64
1.42433e-66
2.10783e-69
1.5321e-72
7.99607e-75
2.33519e-30
3.28258e-31
5.4577e-35
3.59961e-37
2.6743e-39
1.857e-41
3.16548e-43
2.50844e-45
1.6311e-47
9.69645e-50
5.10411e-52
2.29539e-54
9.46581e-57
3.49378e-59
1.03328e-61
2.29412e-64
3.39684e-67
2.12699e-70
1.56461e-72
1.87199e-28
2.54468e-29
5.34923e-33
3.95109e-35
3.27131e-37
2.70528e-39
3.98136e-41
3.04228e-43
1.94085e-45
1.11882e-47
5.60912e-50
2.88564e-52
1.27933e-54
4.73263e-57
1.40167e-59
3.11452e-62
4.61139e-65
3.30939e-68
2.53075e-70
2.14136e-25
3.51154e-27
4.30733e-31
3.6718e-33
3.36177e-35
3.14361e-37
4.2427e-39
3.11829e-41
1.94204e-43
1.08611e-45
6.42536e-48
3.33386e-50
1.48334e-52
5.5005e-55
1.63151e-57
3.6283e-60
5.37698e-63
3.99115e-66
3.44223e-68
6.66401e-24
2.13511e-25
6.28201e-28
3.55805e-30
8.22468e-33
5.961e-35
4.51634e-37
3.08563e-39
1.88063e-41
1.21168e-43
7.23176e-46
3.77222e-48
1.68455e-50
6.26163e-53
1.85999e-55
4.13975e-58
6.13798e-61
4.58771e-64
4.01809e-66
1
1
1
1
1
1
1
1
1
1
1
1
0.170176
0.000246602
1.2816e-05
6.70212e-07
3.3775e-08
1.6049e-09
7.10635e-11
3.26564e-12
2.64915e-13
1.55813e-14
8.75462e-16
1
1
1
1
1
1
1
1
1
1
1
1
0.143366
0.000155671
7.21087e-06
3.39273e-07
1.56673e-08
7.00365e-10
3.01129e-11
1.4093e-12
1.35878e-13
7.24652e-15
3.57444e-16
1
1
1
1
1
1
1
1
1
1
1
1
0.122181
9.87926e-05
4.03751e-06
1.69846e-07
7.12758e-09
2.95223e-10
1.22066e-11
5.65915e-13
5.71067e-14
2.68675e-15
1.07913e-16
1
1
1
1
1
1
1
1
1
1
1
1
0.104849
6.39572e-05
2.30781e-06
8.66575e-08
3.28502e-09
1.24552e-10
4.94991e-12
2.12691e-13
2.06659e-14
8.56609e-16
2.89761e-17
1
1
1
1
1
1
1
1
1
1
1
1
0.0903754
4.16444e-05
1.32573e-06
4.44659e-08
1.5187e-09
5.23398e-11
1.94815e-12
1.3521e-13
7.22418e-15
2.50792e-16
7.89473e-18
1
1
1
1
1
1
1
1
1
1
1
1
0.078151
2.7188e-05
7.54684e-07
2.27835e-08
6.98642e-10
2.17229e-11
7.47051e-13
6.19446e-14
2.41504e-15
7.31941e-17
2.09848e-18
1
1
1
1
1
1
1
1
1
1
1
1
0.0677437
1.77713e-05
4.2817e-07
1.15943e-08
3.18718e-10
8.89188e-12
2.79424e-13
2.38316e-14
7.74209e-16
2.08269e-17
5.41141e-19
1
1
1
1
1
1
1
1
1
1
1
1
0.0588365
1.16186e-05
2.44035e-07
5.84189e-09
1.43684e-10
3.59296e-12
1.05547e-13
8.55839e-15
2.39536e-16
5.76028e-18
1.35106e-19
1
1
1
1
1
1
1
1
1
1
1
1
0.0511913
7.59747e-06
1.42299e-07
2.92718e-09
6.40611e-11
1.43352e-12
3.93185e-14
2.94976e-15
7.2102e-17
1.54747e-18
3.25851e-20
1
1
1
1
1
1
1
1
1
1
1
1
0.0446287
4.97648e-06
8.11299e-08
1.45904e-09
2.84372e-11
5.78187e-13
2.63548e-14
1.00163e-15
2.05453e-17
4.03286e-19
7.5673e-21
1
1
1
1
1
1
1
1
1
1
1
1
0.0390163
3.28346e-06
4.66801e-08
7.57846e-10
1.21909e-11
2.33161e-13
1.35593e-14
3.34366e-16
5.85925e-18
1.01921e-19
1.68666e-21
1
1
1
1
1
1
1
1
1
1
1
1
0.0342679
2.21271e-06
2.75759e-08
4.0287e-10
5.92923e-12
9.08437e-14
5.80322e-15
1.10334e-16
1.65863e-18
2.5054e-20
3.60254e-22
1
1
1
1
1
1
1
1
1
1
1
1
0.0303394
1.57092e-06
1.77405e-08
2.40754e-10
3.05533e-12
4.27959e-14
2.35858e-15
3.66984e-17
4.7088e-19
6.04228e-21
7.38518e-23
1
1
1
1
1
1
1
1
1
1
1
1
0.0272752
1.26209e-06
1.09787e-08
1.42994e-10
1.97609e-12
2.15655e-14
8.78313e-16
1.2155e-17
1.35018e-19
1.44199e-21
1.45515e-23
1
1
1
1
1
1
1
1
1
1
1
1
0.0254589
1.5444e-06
1.37219e-08
-2.72492e-10
-2.37323e-12
1.67915e-14
2.86628e-16
4.455e-18
4.39593e-20
3.74208e-22
2.92388e-24
0.999999
0.999999
0.999999
0.999999
0.999999
0.999999
0.999999
0.999999
0.999998
0.999998
0.999998
0.999995
0.0251264
2.71523e-06
3.439e-08
3.94471e-10
-2.77319e-12
-8.15334e-14
1.07159e-16
2.52879e-18
2.05806e-20
1.17027e-22
6.00159e-25
0.999982
0.999982
0.999982
0.999981
0.99998
0.999979
0.999977
0.999975
0.999973
0.99997
0.999967
0.999924
0.0263284
9.54905e-06
1.59524e-07
1.56206e-09
8.86054e-12
-9.56143e-14
-1.35904e-16
2.72385e-18
9.3736e-21
2.37571e-23
6.69534e-26
0.999687
0.999684
0.999679
0.99967
0.999659
0.999643
0.999625
0.999601
0.999572
0.999526
0.999483
0.997993
0.113597
2.08883e-05
3.38681e-07
2.50878e-09
4.8731e-12
1.35635e-15
8.96909e-16
1.23696e-18
6.85908e-22
6.51563e-25
1.35248e-27
0.812249
0.811642
0.810489
0.808752
0.80641
0.803426
0.799717
0.795046
0.789751
0.778916
0.77386
0.523173
0.175512
0.000795235
2.02332e-05
3.91233e-08
2.11684e-14
4.85898e-17
8.90791e-20
2.65657e-20
7.56322e-24
9.8885e-27
2.54164e-29
1.22602e-26
2.06686e-26
3.47363e-24
5.89888e-22
6.53457e-20
5.28108e-18
3.30045e-16
1.65253e-14
6.80185e-13
2.34973e-11
7.09721e-10
2.10342e-08
7.0859e-07
0.00260424
0.000136498
1.46993e-07
-5.93817e-13
2.15482e-18
3.74018e-21
6.67076e-22
4.30302e-25
3.62521e-28
7.06223e-31
1.06369e-27
2.47278e-26
8.51984e-24
1.56319e-21
1.8987e-19
1.70624e-17
1.20067e-15
6.86669e-14
3.2774e-12
1.20082e-10
2.74802e-09
1.19682e-07
8.61588e-06
0.00011204
1.20633e-05
1.07966e-08
-1.60272e-12
-2.71126e-18
4.10127e-20
4.46267e-23
2.01592e-26
1.11337e-29
1.7864e-32
6.5227e-30
1.05747e-27
3.7264e-25
4.48575e-23
3.77336e-21
2.47618e-19
1.30827e-17
5.6584e-16
2.01505e-14
5.88421e-13
1.39464e-11
2.71803e-10
3.88537e-09
4.7783e-08
6.53041e-09
-1.56187e-09
-2.64577e-14
-6.33679e-18
2.37366e-22
3.03163e-25
1.77679e-28
1.71767e-31
3.81101e-34
8.78541e-34
3.05638e-31
5.06276e-29
4.89764e-27
3.17743e-25
1.22576e-23
4.51367e-23
-3.29004e-20
-3.62031e-18
-5.62164e-16
-3.79778e-14
-1.24137e-12
-1.32316e-11
1.30438e-11
-5.30071e-10
3.16808e-14
-5.54472e-14
-1.10594e-20
7.40589e-24
2.62231e-27
2.45421e-30
3.1167e-33
7.60919e-36
1.90583e-36
4.92195e-34
1.69202e-32
-2.95589e-30
-6.6371e-28
-7.05966e-26
-5.15747e-24
-2.92038e-22
-1.61507e-20
-1.99758e-18
-1.85629e-16
-3.4817e-15
3.23319e-15
-5.55454e-12
1.30138e-12
-1.18181e-13
-1.81158e-17
-4.1335e-22
4.22676e-27
1.52704e-29
3.32556e-32
4.97165e-35
1.34179e-37
-8.23923e-38
-5.38532e-35
-8.83773e-33
-9.82888e-31
-8.06928e-29
-5.15351e-27
-2.64752e-25
-1.10847e-23
-3.91203e-22
-1.224e-20
-2.36053e-19
1.86324e-19
1.53521e-15
4.57479e-14
-3.66744e-15
8.23634e-17
-8.31944e-20
1.20298e-25
-1.70205e-28
6.33448e-32
2.2367e-34
6.08564e-37
2.03786e-39
-1.15774e-41
-7.16659e-41
-7.32393e-39
-6.46508e-37
5.32256e-36
5.30402e-34
3.22197e-32
1.64649e-30
7.21517e-29
2.11481e-25
1.09555e-22
6.38478e-21
5.33764e-18
1.05942e-16
1.39956e-19
1.2831e-18
7.32301e-24
2.02375e-27
1.55795e-30
1.16544e-33
1.22335e-36
4.59622e-39
2.60951e-41
4.75407e-49
9.14834e-46
1.47341e-43
2.8599e-41
3.33696e-39
2.65622e-37
1.74431e-35
9.71426e-34
4.68961e-32
4.3714e-30
1.37906e-27
8.50437e-26
3.69402e-24
2.77258e-21
7.119e-20
3.3738e-21
8.16709e-26
2.67547e-29
2.2938e-32
1.7476e-36
1.86574e-38
3.84363e-41
2.71357e-43
2.04206e-54
-1.3548e-51
-1.02822e-48
-4.15617e-46
-8.20384e-44
-1.16416e-41
-1.28231e-39
-1.13397e-37
-7.88568e-36
1.88273e-33
9.44443e-31
6.5947e-29
3.25784e-27
3.42129e-24
1.03399e-22
4.86398e-27
6.63331e-28
2.74976e-31
2.79185e-34
1.06736e-38
2.75448e-40
5.47048e-43
2.17763e-45
-9.48885e-59
-7.44409e-56
-4.15062e-53
-9.44699e-51
-1.51271e-48
-1.85487e-46
-1.81143e-44
-1.44714e-42
-7.3074e-41
1.16305e-39
1.55925e-36
1.31586e-34
1.21555e-32
5.40077e-30
3.34033e-28
4.30756e-27
3.82174e-30
2.17374e-33
2.67395e-36
2.54348e-39
1.04211e-42
6.82915e-45
1.28745e-47
-1.86508e-62
-1.83113e-59
-4.77719e-57
-8.3596e-55
-1.1105e-52
-1.16848e-50
-1.00966e-48
-7.28983e-47
-4.59729e-45
8.3194e-44
1.93047e-40
2.04921e-38
1.40242e-36
7.87366e-35
1.27823e-31
5.47806e-30
1.49687e-32
1.30239e-35
2.05449e-38
2.31835e-41
1.58594e-44
7.4729e-47
1.5088e-49
-9.6194e-68
-2.89425e-66
-9.15342e-64
-2.05331e-61
-2.99193e-59
-2.71435e-57
-1.65745e-55
-1.25894e-53
-7.87438e-52
1.01387e-48
9.29763e-45
1.48739e-42
1.24156e-40
8.25395e-39
1.90531e-35
9.38809e-34
1.60093e-39
4.92581e-38
1.25635e-40
1.75407e-43
1.76131e-46
7.16228e-49
1.58585e-51
3.02694e-76
2.19703e-73
7.83971e-71
1.85599e-68
3.29276e-66
4.67842e-64
5.56959e-62
5.49311e-60
4.9297e-58
4.2698e-56
1.56659e-53
8.22961e-51
8.87397e-49
7.24087e-47
5.17943e-45
1.40606e-41
8.07037e-40
2.11119e-41
4.04989e-43
1.08924e-45
2.09835e-48
5.46058e-51
1.48826e-53
-7.03978e-84
-1.51899e-80
-8.21583e-78
-2.46668e-75
-5.06686e-73
-8.16433e-71
-1.26368e-68
-1.77187e-66
-2.35325e-64
-1.00281e-62
7.18676e-59
8.10676e-55
1.32364e-52
1.35233e-50
1.16405e-48
4.58352e-45
3.03067e-43
1.32232e-47
5.55194e-46
5.58776e-48
1.32813e-50
4.0793e-53
1.25413e-55
6.37744e-88
5.57442e-85
2.43908e-82
7.14781e-80
1.58156e-77
2.82475e-75
4.25399e-73
5.57441e-71
6.40312e-69
7.46939e-67
7.51821e-65
1.80204e-62
1.19964e-59
1.68024e-57
1.81035e-55
1.74952e-53
8.51776e-50
6.65276e-48
3.9652e-49
1.41446e-50
7.18559e-53
2.84164e-55
9.35099e-58
5.65682e-93
5.86922e-90
3.05009e-87
1.06174e-84
2.79404e-82
5.94789e-80
1.07091e-77
1.68465e-75
2.31507e-73
3.07204e-71
3.66295e-69
4.61339e-67
1.28732e-63
3.486e-61
5.02099e-59
6.05037e-57
4.49116e-53
4.10145e-51
7.35362e-53
2.22918e-53
2.34077e-55
1.34326e-57
6.39822e-60
5.2496e-100
5.56075e-97
3.03209e-94
1.14955e-91
3.43355e-89
8.64146e-87
1.90585e-84
3.7735e-82
6.8148e-80
9.49452e-78
1.75663e-75
2.58045e-73
5.04838e-70
1.22489e-65
3.01147e-63
4.87336e-61
5.99106e-57
6.46926e-55
3.42127e-58
2.46002e-56
5.50388e-58
4.69827e-60
3.69186e-62
5.3712e-105
8.33259e-102
6.46947e-99
3.3624e-96
1.32092e-93
4.19998e-91
1.13057e-88
2.66192e-86
5.53326e-84
1.08036e-81
1.9641e-79
3.34587e-77
5.49329e-75
9.16584e-73
1.46677e-69
4.00095e-67
7.70585e-65
1.2666e-60
1.71673e-58
1.79241e-59
1.07197e-60
1.44575e-62
1.53662e-64
1.86601e-110
3.64426e-107
3.5771e-104
2.36025e-101
1.18174e-98
4.80601e-96
1.65997e-93
5.02892e-91
1.3704e-88
3.4294e-86
8.01565e-84
1.78279e-81
3.81923e-79
7.98549e-77
1.73982e-74
5.31183e-71
1.80777e-68
6.00833e-64
1.01214e-61
7.82429e-63
1.74907e-63
3.9712e-65
5.8073e-67
-2.66176e-116
-5.20247e-113
-4.83675e-110
-2.77049e-107
-1.00605e-104
-1.57464e-102
7.89282e-100
8.37868e-97
4.65159e-94
1.66997e-91
6.38567e-89
2.48437e-86
7.52077e-84
2.22115e-81
6.48725e-79
2.00553e-76
1.43382e-72
1.55182e-67
3.40613e-65
1.71549e-66
2.43903e-66
9.92054e-68
2.04708e-69
-2.00546e-123
-6.03384e-120
-8.94322e-117
-8.7237e-114
-6.27661e-111
-3.51755e-108
-1.56159e-105
-5.29254e-103
-1.07523e-100
1.97631e-98
4.92284e-96
2.852e-92
1.44042e-89
7.1095e-87
3.47093e-84
1.6958e-81
8.61703e-79
9.74153e-72
3.71476e-69
4.59434e-69
2.99924e-69
2.30689e-70
6.85904e-72
-7.22377e-134
-5.03768e-130
-1.65739e-126
-3.49846e-123
-5.39371e-120
-6.52759e-117
-6.49185e-114
-5.47235e-111
-3.99151e-108
-2.54645e-105
-1.40878e-102
-7.79165e-100
-1.73329e-97
-2.24808e-95
2.37259e-91
3.47711e-88
5.15583e-85
2.98813e-80
1.85706e-74
5.30743e-72
3.39644e-72
5.34261e-73
2.82679e-74
-1.95481e-145
-3.6714e-141
-3.20511e-137
-1.66375e-133
-6.53998e-130
-2.08072e-126
-5.51878e-123
-1.25668e-119
-2.50257e-116
-4.39522e-113
-6.78102e-110
-8.87417e-107
-2.54897e-103
-1.70395e-102
-2.95342e-99
-4.77639e-99
-3.21855e-96
8.85366e-95
8.7573e-79
1.98638e-75
4.76333e-75
2.27236e-74
5.6456e-76
6.48622e-17
7.11012e-19
1.21527e-20
2.50185e-22
2.89925e-17
2.74459e-19
4.93356e-21
8.5665e-23
7.82288e-18
6.56357e-20
1.15819e-21
1.97407e-23
2.02406e-18
1.49864e-20
2.51758e-22
4.15359e-24
5.15824e-19
3.39346e-21
5.36172e-23
8.41398e-25
1.27704e-19
7.4717e-22
1.10145e-23
1.6264e-25
3.05834e-20
1.59048e-22
2.17423e-24
2.99308e-26
7.05878e-21
3.25543e-23
4.1019e-25
5.21857e-27
1.56312e-21
6.36694e-24
7.34477e-26
8.55861e-28
3.30213e-22
1.18071e-24
1.23701e-26
1.30814e-28
6.61535e-23
2.05725e-25
1.93789e-27
1.84048e-29
1.25004e-23
3.33414e-26
2.78687e-28
2.3477e-30
2.21791e-24
4.96893e-27
3.62047e-29
2.66411e-31
3.67127e-25
6.69851e-28
4.15343e-30
2.6197e-32
5.88276e-26
8.15351e-29
4.12711e-31
2.16987e-33
6.96915e-27
8.13324e-30
3.25357e-32
1.39856e-34
2.63314e-28
4.43355e-31
1.50166e-33
5.70615e-36
3.0796e-30
9.61063e-33
3.5243e-35
1.40463e-37
6.24145e-32
1.76379e-34
6.63748e-37
2.68098e-39
1.6058e-33
4.07668e-36
1.349e-38
4.79618e-41
3.7712e-35
9.08738e-38
2.79644e-40
9.23293e-43
8.35817e-37
1.90092e-39
5.52522e-42
1.71694e-44
1.70906e-38
3.71784e-41
1.03202e-43
3.04494e-46
3.18118e-40
6.74452e-43
1.81323e-45
5.13616e-48
5.34478e-42
1.12766e-44
2.98176e-47
8.20651e-50
8.05275e-44
1.72938e-46
4.57182e-49
1.23832e-51
1.08319e-45
2.42528e-48
6.51978e-51
1.76125e-53
1.29596e-47
3.10637e-50
8.63843e-53
2.35919e-55
1.38229e-49
3.63626e-52
1.06372e-54
2.9769e-57
1.31609e-51
3.90028e-54
1.21935e-56
3.54317e-59
1.13221e-53
3.84794e-56
1.30494e-58
3.98673e-61
8.88729e-56
3.51241e-58
1.30895e-60
4.25359e-63
6.4517e-58
2.99062e-60
1.23649e-62
4.31904e-65
4.38457e-60
2.39673e-62
1.10566e-64
4.19065e-67
2.84049e-62
1.82183e-64
9.41089e-67
3.9023e-69
1.76216e-64
1.3201e-66
7.66968e-69
3.50313e-71
1.18508e-66
9.16695e-69
6.01863e-71
3.04574e-73
6.04783e-69
6.1338e-71
4.57216e-73
2.57696e-75
3.33938e-71
3.97426e-73
3.38103e-75
2.13246e-77
1.77529e-73
2.50975e-75
2.4495e-77
1.73517e-79
9.10061e-76
1.54785e-77
1.74886e-79
1.39449e-81
8.93082e-78
9.64509e-80
7.60157e-82
7.34139e-84
3.87421e-24
2.19073e-25
2.41527e-27
2.61163e-29
2.85788e-31
2.78834e-33
2.50813e-35
2.06372e-37
1.54007e-39
1.03091e-41
6.10716e-44
3.14745e-46
1.37933e-48
4.98037e-51
1.4113e-53
2.88258e-56
3.49798e-59
2.20521e-62
4.58801e-64
1.18998e-24
6.37472e-26
9.17118e-28
1.20354e-29
1.52947e-31
1.72506e-33
1.73461e-35
1.56268e-37
1.26017e-39
9.05481e-42
5.75171e-44
3.19358e-46
1.52672e-48
6.14864e-51
2.02447e-53
5.21358e-56
9.78586e-59
1.17754e-61
4.74101e-63
2.46213e-25
1.38849e-26
2.21574e-28
3.16709e-30
4.24302e-32
5.05446e-34
5.37407e-36
5.10114e-38
4.31487e-40
3.23897e-42
2.14311e-44
1.23748e-46
6.14577e-49
2.57662e-51
8.8722e-54
2.40895e-56
4.83221e-59
6.30338e-62
1.13085e-63
4.75349e-26
2.76688e-27
4.53933e-29
6.60783e-31
8.99195e-33
1.08703e-34
1.17172e-36
1.12591e-38
9.62409e-41
7.28704e-43
4.85467e-45
2.81815e-47
1.40624e-49
5.91841e-52
2.04481e-54
5.57108e-57
1.12216e-59
1.46684e-62
1.89073e-64
8.59783e-27
5.10128e-28
8.37757e-30
1.22016e-31
1.66696e-33
2.02754e-35
2.20018e-37
2.12792e-39
1.82959e-41
1.39232e-43
9.3155e-46
5.42749e-48
2.71727e-50
1.14744e-52
3.97981e-55
1.08976e-57
2.21038e-60
2.93025e-63
2.52105e-65
1.46553e-27
8.74834e-29
1.40737e-30
2.01248e-32
2.71203e-34
3.26746e-36
3.52105e-38
3.387e-40
2.899e-42
2.19724e-44
1.46454e-46
8.50258e-49
4.24308e-51
1.78695e-53
6.18659e-56
1.69316e-58
3.43892e-61
4.58914e-64
2.72608e-66
2.34998e-28
1.39997e-29
2.17288e-31
3.00608e-33
3.93804e-35
4.6356e-37
4.89841e-39
4.63292e-41
3.90664e-43
2.92134e-45
1.92331e-47
1.10397e-49
5.45196e-52
2.27452e-54
7.81005e-57
2.12299e-59
4.29033e-62
5.71895e-65
2.41762e-67
3.52577e-29
2.08403e-30
3.08273e-32
4.07684e-34
5.12906e-36
5.82983e-38
5.97389e-40
5.49809e-42
4.52399e-44
3.30854e-46
2.13427e-48
1.20231e-50
5.83619e-53
2.39681e-55
8.11401e-58
2.17812e-60
4.3547e-63
5.76093e-66
1.77308e-68
4.90879e-30
2.86698e-31
3.999e-33
5.00319e-35
5.98179e-37
6.49807e-39
6.39409e-41
5.67388e-43
4.51671e-45
3.20505e-47
2.01114e-49
1.10454e-51
5.2381e-54
2.10575e-56
6.99138e-59
1.8441e-61
3.62973e-64
4.74053e-67
1.08288e-69
6.27099e-31
3.60879e-32
4.70072e-34
5.51206e-36
6.20505e-38
6.38471e-40
5.98173e-42
5.07697e-44
3.88119e-46
2.65417e-48
1.61009e-50
8.5731e-53
3.95186e-55
1.54794e-57
5.01892e-60
1.29561e-62
2.50105e-65
3.21197e-68
5.54489e-71
7.2474e-32
4.10136e-33
4.94318e-35
5.38661e-37
5.6629e-39
5.47687e-41
4.85072e-43
3.91214e-45
2.85503e-47
1.87159e-49
1.09241e-51
5.61554e-54
2.50675e-56
9.53549e-59
3.01033e-61
7.58498e-64
1.43249e-66
1.80451e-69
2.39854e-72
7.44645e-33
4.13855e-34
4.57435e-36
4.59693e-38
4.48169e-40
4.04883e-42
3.37143e-44
2.57148e-46
1.78418e-48
1.11727e-50
6.25621e-53
3.09723e-55
1.33618e-57
4.92778e-60
1.51265e-62
3.71588e-65
6.8593e-68
8.46782e-71
8.84224e-74
6.6559e-34
3.63081e-35
3.64938e-37
3.36056e-39
3.02232e-41
2.53992e-43
1.98213e-45
1.42637e-47
9.39297e-50
5.61231e-52
3.0128e-54
1.43596e-56
5.98675e-59
2.14097e-61
6.39253e-64
1.5318e-66
2.76544e-69
3.34765e-72
2.80633e-75
5.03144e-35
2.69504e-36
2.44619e-38
2.05634e-40
1.70208e-42
1.32942e-44
9.72447e-47
6.60799e-49
4.13566e-51
2.36175e-53
1.21774e-55
5.59899e-58
2.26052e-60
7.8553e-63
2.28608e-65
5.35426e-68
9.47238e-71
1.12645e-73
7.75745e-77
3.11097e-36
1.64142e-37
1.33902e-39
1.02801e-41
7.84844e-44
5.71813e-46
3.93795e-48
2.53888e-50
1.5174e-52
8.32076e-55
4.13913e-57
1.84358e-59
7.23621e-62
2.45235e-64
6.97989e-67
1.60288e-69
2.7869e-72
3.26437e-75
1.92511e-78
1.45573e-37
7.78659e-39
5.76273e-41
4.08756e-43
2.91096e-45
1.99967e-47
1.30948e-49
8.08244e-52
4.65038e-54
2.46633e-56
1.19127e-58
5.16953e-61
1.98278e-63
6.58352e-66
1.84017e-68
4.15888e-71
7.13049e-74
8.25125e-77
4.8048e-80
5.01457e-39
2.66041e-40
1.85587e-42
1.25962e-44
8.58077e-47
5.66826e-49
3.5852e-51
2.14553e-53
1.20088e-55
6.21381e-58
2.93599e-60
1.24928e-62
4.7084e-65
1.53917e-67
4.2432e-70
9.47408e-73
1.60725e-75
1.84299e-78
1.06612e-81
1.36464e-40
6.60268e-42
4.5422e-44
3.05802e-46
2.04408e-48
1.32396e-50
8.2127e-53
4.82388e-55
2.65297e-57
1.35058e-59
6.28679e-62
2.63897e-64
9.82465e-67
3.17655e-69
8.67202e-72
1.91973e-74
3.2327e-77
3.68356e-80
2.11823e-83
1.32037e-41
1.30077e-43
8.96575e-46
6.11188e-48
4.06933e-50
2.61797e-52
1.61032e-54
9.37114e-57
5.10497e-59
2.57463e-61
1.18779e-63
4.94439e-66
1.82665e-68
5.86499e-71
1.59125e-73
3.50355e-76
5.87255e-79
6.66613e-82
3.81845e-85
3.36549e-43
2.20654e-45
1.51866e-47
1.0417e-49
6.97219e-52
4.49405e-54
2.76212e-56
1.60351e-58
8.70586e-61
4.37373e-63
2.00959e-65
8.33154e-68
3.06618e-70
9.81011e-73
2.65323e-75
5.82595e-78
9.74372e-81
1.10419e-83
6.31091e-87
5.59165e-45
3.64085e-47
2.37633e-49
1.61161e-51
1.07232e-53
6.85979e-56
4.21955e-58
2.4569e-60
1.33619e-62
6.7171e-65
3.08579e-67
1.27872e-69
4.70292e-72
1.5037e-74
4.06445e-77
8.92084e-80
1.4917e-82
1.69064e-85
9.65394e-89
9.68763e-47
6.15712e-49
3.9024e-51
2.53202e-53
1.61284e-55
9.9144e-58
6.01459e-60
3.48307e-62
1.88332e-64
9.4398e-67
4.35038e-69
1.80765e-71
6.6624e-74
2.13428e-76
5.77752e-79
1.26992e-81
2.1267e-84
2.41422e-87
1.3786e-90
1.6238e-48
1.00814e-50
6.24373e-53
3.95621e-55
2.46275e-57
1.48151e-59
8.71867e-62
4.89344e-64
2.57227e-66
1.26509e-68
5.81308e-71
2.40864e-73
8.85523e-76
2.83142e-78
7.68583e-81
1.69475e-83
2.84662e-86
3.24081e-89
1.8517e-92
2.60466e-50
1.58786e-52
9.65403e-55
6.00742e-57
3.67419e-59
2.17291e-61
1.25734e-63
6.94476e-66
3.59712e-68
1.74047e-70
7.83191e-73
3.18647e-75
1.15345e-77
3.64058e-80
9.86847e-83
2.17707e-85
3.66046e-88
4.17424e-91
2.38532e-94
3.98732e-52
2.40115e-54
1.44068e-56
8.84242e-59
5.33369e-61
3.11169e-63
1.77735e-65
9.69723e-68
4.96551e-70
2.37686e-72
1.05888e-74
4.27e-77
1.53401e-79
4.8111e-82
1.29239e-84
2.83032e-87
4.73544e-90
5.38643e-93
3.07208e-96
5.81327e-54
3.47919e-56
2.07101e-58
1.25963e-60
7.52485e-63
4.34681e-65
2.45855e-67
1.32867e-69
6.74228e-72
3.20054e-74
1.41515e-76
5.66873e-79
2.02478e-81
6.31999e-84
1.69097e-86
3.69257e-89
6.16762e-92
7.01227e-95
3.99516e-98
8.06266e-56
4.82505e-58
2.86456e-60
1.73463e-62
1.03051e-64
5.91592e-67
3.32419e-69
1.78467e-71
8.99808e-74
4.24532e-76
1.8665e-78
7.43875e-81
2.64528e-83
8.22651e-86
2.19489e-88
4.78356e-91
7.98116e-94
9.07296e-97
5.16305e-100
1.06378e-57
6.40318e-60
3.81091e-62
2.30795e-64
1.36901e-66
7.83854e-69
4.38982e-71
2.34795e-73
1.17917e-75
5.54171e-78
2.42744e-80
9.64134e-83
3.4182e-85
1.06034e-87
2.82349e-90
6.14521e-93
1.02459e-95
1.1648e-98
6.6191e-102
1.33657e-59
8.13642e-62
4.87792e-64
2.96717e-66
1.7641e-68
1.01088e-70
5.65973e-73
3.02411e-75
1.5165e-77
7.11457e-80
3.11064e-82
1.23325e-84
4.36504e-87
1.35215e-89
3.5966e-92
7.82231e-95
1.30383e-97
1.48261e-100
8.41152e-104
1.60238e-61
9.91344e-64
6.01308e-66
3.68839e-68
2.20586e-70
1.26914e-72
7.12448e-75
3.81285e-77
1.91362e-79
8.98031e-82
3.92612e-84
1.55613e-86
5.50586e-89
1.70494e-91
4.53383e-94
9.85969e-97
1.64359e-99
1.86971e-102
1.05885e-105
1.83812e-63
1.16053e-65
7.14961e-68
4.43824e-70
2.67881e-72
1.55215e-74
8.76005e-77
4.70718e-79
2.36962e-81
1.1145e-83
4.88041e-86
1.93664e-88
6.85809e-91
2.12505e-93
5.65398e-96
1.23014e-98
2.05155e-101
2.33508e-104
1.31973e-107
2.02413e-65
1.30863e-67
8.21578e-70
5.17786e-72
3.16349e-74
1.85102e-76
1.05294e-78
5.69378e-81
2.88079e-83
1.36038e-85
5.97619e-88
2.37747e-90
8.43602e-93
2.61813e-95
6.97461e-98
1.51898e-100
2.53524e-103
2.88757e-106
1.62837e-109
2.14722e-67
1.42538e-69
9.1453e-72
5.86797e-74
3.6387e-76
2.15539e-78
1.2386e-80
6.7542e-83
3.44102e-85
1.63419e-87
7.21242e-90
2.88013e-92
1.02508e-94
3.18911e-97
8.51202e-100
1.85654e-102
3.10198e-105
3.53584e-108
1.98912e-111
2.20189e-69
1.50409e-71
9.88621e-74
6.47402e-76
4.0842e-78
2.45466e-80
1.42792e-82
7.867e-85
4.0426e-87
1.93371e-89
8.58532e-92
3.44523e-94
1.23112e-96
3.84245e-99
1.02818e-101
2.2468e-104
3.75906e-107
4.28856e-110
2.40625e-113
2.18982e-71
1.54217e-73
1.04065e-75
6.97026e-78
4.48307e-80
2.73923e-82
1.61604e-84
9.0105e-87
4.67728e-89
2.25644e-91
1.00899e-93
4.07301e-96
1.46253e-98
4.58257e-101
1.22997e-103
2.69391e-106
4.51415e-109
5.15482e-112
2.88417e-115
2.11854e-73
1.54097e-75
1.06962e-77
7.34222e-80
4.82357e-82
3.00165e-84
1.79889e-86
1.01656e-88
5.33765e-91
2.60012e-93
1.17219e-95
4.76413e-98
1.7203e-100
5.4146e-103
1.45842e-105
3.2026e-108
5.37594e-111
6.14492e-114
3.42785e-117
1.99963e-75
1.50506e-77
1.07662e-79
7.58746e-82
5.10018e-84
3.23738e-86
1.97367e-88
1.13188e-90
6.01845e-93
2.96334e-95
1.34808e-97
5.52062e-100
2.00592e-102
6.3454e-105
1.71583e-107
3.77872e-110
6.35508e-113
7.27141e-116
4.04341e-119
1.84692e-77
1.44135e-79
1.06448e-81
7.71472e-84
5.31384e-86
3.44525e-88
2.13928e-90
1.2464e-92
6.7179e-95
3.34621e-97
1.53723e-99
6.34702e-102
2.32184e-104
7.38483e-107
2.00536e-109
4.43004e-112
7.46549e-115
8.55057e-118
4.73893e-121
1.67483e-79
1.358e-81
1.03722e-83
7.7419e-86
5.4714e-88
3.62752e-90
2.29646e-92
1.36051e-94
7.43882e-97
3.75094e-99
1.74114e-101
7.25169e-104
2.67186e-106
8.54727e-109
2.33143e-111
5.16712e-114
8.72587e-117
1.00042e-119
5.52541e-123
1.49676e-81
1.26344e-83
9.99539e-86
7.69349e-88
5.58469e-90
3.78969e-92
2.44789e-94
1.47563e-96
8.18961e-99
4.1825e-101
1.96255e-103
8.24818e-106
3.06176e-108
9.85341e-111
2.70018e-113
6.0045e-116
1.01617e-118
1.16617e-121
6.34568e-125
1.32328e-83
1.16553e-85
9.56322e-88
7.59814e-90
5.66962e-92
3.94033e-94
2.59833e-96
1.59449e-98
8.98571e-101
4.64945e-103
2.20594e-105
9.35738e-108
3.50008e-110
1.13331e-112
3.12036e-115
6.96251e-118
1.18083e-120
1.35623e-123
7.33272e-127
6.38452e-86
5.21881e-88
4.46257e-90
3.67425e-92
2.82741e-94
2.01798e-96
1.36159e-98
8.52234e-101
4.88503e-103
2.56462e-105
1.2319e-107
5.28019e-110
1.99215e-112
6.496e-115
1.79851e-117
4.02986e-120
6.85434e-123
8.07421e-126
7.33272e-127
)
;

boundaryField
{
    leftWall
    {
        type            zeroGradient;
    }
    rightWall
    {
        type            zeroGradient;
    }
    lowerWall
    {
        type            zeroGradient;
    }
    atmosphere
    {
        type            inletOutlet;
        inletValue      uniform 0;
        value           nonuniform List<scalar> 
46
(
0
0
0
0
0
0
0
0
0
0
0
0
0
0
0
0
0
0
0
0
4.76333e-75
2.27236e-74
5.6456e-76
8.93082e-78
9.64509e-80
7.60157e-82
7.34139e-84
6.38452e-86
5.21881e-88
4.46257e-90
3.67425e-92
2.82741e-94
2.01798e-96
1.36159e-98
8.52234e-101
4.88503e-103
2.56462e-105
1.2319e-107
5.28019e-110
1.99215e-112
6.496e-115
1.79851e-117
4.02986e-120
6.85434e-123
8.07421e-126
7.33272e-127
)
;
    }
    defaultFaces
    {
        type            empty;
    }
}


// ************************************************************************* //
