/*--------------------------------*- C++ -*----------------------------------*\
| =========                 |                                                 |
| \\      /  F ield         | OpenFOAM: The Open Source CFD Toolbox           |
|  \\    /   O peration     | Version:  2206                                  |
|   \\  /    A nd           | Website:  www.openfoam.com                      |
|    \\/     M anipulation  |                                                 |
\*---------------------------------------------------------------------------*/
FoamFile
{
    version     2.0;
    format      ascii;
    arch        "LSB;label=32;scalar=64";
    class       surfaceScalarField;
    location    "0.025";
    object      alphaPhi0.water;
}
// * * * * * * * * * * * * * * * * * * * * * * * * * * * * * * * * * * * * * //

dimensions      [0 3 -1 0 0 0 0];

oriented        oriented;

internalField   nonuniform List<scalar> 
4432
(
1.48358e-06
-1.48358e-06
3.00333e-06
-1.51973e-06
4.57169e-06
-1.5683e-06
6.22657e-06
-1.65488e-06
8.00976e-06
-1.78318e-06
9.97791e-06
-1.96817e-06
1.22139e-05
-2.23606e-06
1.48502e-05
-2.63628e-06
1.81195e-05
-3.26935e-06
2.25229e-05
-4.40332e-06
2.8975e-05
-6.45212e-06
4.10036e-05
-1.20286e-05
8.19979e-06
-1.29443e-05
3.47044e-07
7.71854e-07
3.69735e-08
1.13552e-07
2.84393e-09
1.2663e-08
1.61692e-10
9.61909e-10
7.76853e-12
4.6388e-11
2.9903e-13
2.18432e-12
8.41407e-15
9.32208e-14
3.28889e-16
3.01255e-15
1.01809e-16
8.65386e-17
2.01525e-18
1.47894e-06
-2.9625e-06
2.99344e-06
-3.03427e-06
4.55558e-06
-3.13035e-06
6.20235e-06
-3.30163e-06
7.97415e-06
-3.55501e-06
9.92523e-06
-3.91922e-06
1.21334e-05
-4.44432e-06
1.47193e-05
-5.22215e-06
1.78828e-05
-6.43284e-06
2.19864e-05
-8.50686e-06
2.7562e-05
-1.20277e-05
3.65103e-05
-2.09769e-05
2.39792e-06
-1.68311e-05
2.75684e-07
1.3678e-07
3.07657e-08
1.68343e-07
2.1072e-09
2.10837e-08
1.31424e-10
1.32173e-09
6.60376e-12
6.96702e-11
2.59152e-13
3.48329e-12
7.319e-15
1.53241e-13
2.11702e-16
5.06934e-15
4.18343e-17
1.57316e-16
3.16678e-18
1.46776e-06
-4.4302e-06
2.96977e-06
-4.53634e-06
4.51744e-06
-4.67803e-06
6.14595e-06
-4.93017e-06
7.89301e-06
-5.30212e-06
9.80809e-06
-5.83428e-06
1.19596e-05
-6.59588e-06
1.44473e-05
-7.70977e-06
1.742e-05
-9.40546e-06
2.10876e-05
-1.21744e-05
2.57171e-05
-1.66574e-05
3.16077e-05
-2.68675e-05
3.87225e-07
-1.46318e-05
-4.16584e-08
7.20221e-08
-9.39335e-09
6.81681e-08
-4.63353e-10
5.22908e-09
-1.63983e-11
3.19589e-10
-7.13064e-13
1.85571e-11
-3.80812e-14
1.00552e-12
-1.53089e-15
4.58147e-14
-5.56323e-17
1.64291e-15
1.51605e-17
5.21641e-17
1.59136e-18
1.45117e-06
-5.88134e-06
2.93476e-06
-6.01995e-06
4.46112e-06
-6.20445e-06
6.06293e-06
-6.53199e-06
7.77411e-06
-7.01332e-06
9.63769e-06
-7.69783e-06
1.17099e-05
-8.66811e-06
1.40656e-05
-1.00654e-05
1.67991e-05
-1.21391e-05
1.99947e-05
-1.537e-05
2.36929e-05
-2.03557e-05
2.72437e-05
-3.04183e-05
2.98997e-07
-1.25418e-05
-7.66134e-10
1.47099e-07
-9.38702e-11
4.27716e-08
2.49198e-11
2.7405e-09
2.09302e-12
1.56521e-10
6.17848e-14
8.73529e-12
-1.5379e-15
4.57337e-13
-1.57799e-16
1.96724e-14
5.1189e-18
7.52531e-16
7.353e-18
2.59232e-17
9.77948e-19
1.42948e-06
-7.31085e-06
2.88908e-06
-7.47953e-06
4.38785e-06
-7.70328e-06
5.95534e-06
-8.09945e-06
7.62096e-06
-8.67892e-06
9.42031e-06
-9.49709e-06
1.13964e-05
-1.06441e-05
1.35988e-05
-1.22679e-05
1.60737e-05
-1.46141e-05
1.88158e-05
-1.81121e-05
2.17104e-05
-2.32502e-05
2.38331e-05
-3.2541e-05
1.90821e-07
-1.11626e-05
-1.54046e-09
2.12192e-07
-8.70349e-12
2.97175e-08
1.1947e-11
1.72307e-09
8.3265e-13
9.3749e-11
2.20859e-14
4.96374e-12
-2.06171e-16
2.44595e-13
-3.92184e-17
9.86249e-15
1.50247e-17
3.83226e-16
4.30363e-18
1.52626e-17
6.49237e-19
1.40309e-06
-8.714e-06
2.83361e-06
-8.90998e-06
4.29915e-06
-9.16885e-06
5.8257e-06
-9.62595e-06
7.43778e-06
-1.0291e-05
9.16319e-06
-1.12225e-05
1.10319e-05
-1.25129e-05
1.30711e-05
-1.43072e-05
1.52888e-05
-1.68318e-05
1.76227e-05
-2.0446e-05
1.98725e-05
-2.54999e-05
2.11916e-05
-3.38602e-05
1.13028e-07
-1.00677e-05
-1.28999e-09
2.41504e-07
-1.74145e-11
2.17385e-08
4.37016e-12
1.18002e-09
3.18557e-13
6.18269e-11
8.81029e-15
3.1371e-12
2.7121e-16
1.45603e-13
2.26887e-18
5.71827e-15
9.96611e-18
2.23766e-16
3.03692e-18
9.85812e-18
4.89751e-19
1.37247e-06
-1.00865e-05
2.76933e-06
-1.03068e-05
4.19674e-06
-1.05963e-05
5.67683e-06
-1.1106e-05
7.22909e-06
-1.18433e-05
8.87379e-06
-1.28672e-05
1.0629e-05
-1.42681e-05
1.25034e-05
-1.61816e-05
1.44772e-05
-1.88057e-05
1.64583e-05
-2.2427e-05
1.82064e-05
-2.7248e-05
1.90734e-05
-3.47272e-05
6.44082e-08
-9.07679e-06
-7.76523e-10
2.43695e-07
-1.58571e-11
1.64933e-08
1.41266e-12
8.45502e-10
1.12494e-13
4.27115e-11
3.15867e-15
2.08835e-12
3.1381e-16
9.14842e-14
8.9515e-18
3.60668e-15
6.58946e-18
1.43305e-16
2.44677e-18
6.49023e-18
3.71511e-19
1.33795e-06
-1.14245e-05
2.69698e-06
-1.16657e-05
4.08187e-06
-1.19812e-05
5.51072e-06
-1.25348e-05
6.99811e-06
-1.33308e-05
8.55714e-06
-1.44262e-05
1.01954e-05
-1.59063e-05
1.19068e-05
-1.7893e-05
1.36539e-05
-2.05528e-05
1.53338e-05
-2.41068e-05
1.66814e-05
-2.85956e-05
1.72862e-05
-3.53321e-05
2.88378e-08
-8.20397e-06
-6.16167e-10
2.25294e-07
-1.81029e-11
1.27439e-08
8.77356e-14
6.20983e-10
2.22292e-14
3.02892e-11
7.42185e-16
1.43008e-12
2.53293e-16
5.91668e-14
1.84659e-17
2.36146e-15
4.2741e-18
9.87646e-17
1.31806e-18
4.49021e-18
3.54074e-19
7.28965e-44
-5.62474e-43
2.0967e-45
-3.37969e-45
1.09395e-47
-1.05206e-45
3.45847e-50
-2.78384e-48
1.05668e-52
-5.03808e-51
1.27093e-55
-2.79027e-54
2.02594e-58
6.12004e-58
1.48698e-60
4.88657e-60
9.62701e-63
4.83187e-62
5.64548e-65
3.91108e-64
2.92851e-67
2.71433e-66
1.31608e-69
1.63525e-68
4.99296e-72
8.53358e-71
1.54454e-74
3.79644e-73
3.70273e-77
1.40108e-75
6.33697e-80
4.1237e-78
9.2841e-83
9.09056e-81
2.65632e-83
1.33709e-83
1.95494e-86
2.80666e-41
-1.37288e-40
7.66864e-43
-2.15571e-42
4.74406e-45
-4.23156e-43
1.62953e-47
-1.26935e-45
5.00192e-50
-2.40325e-48
4.90821e-53
-1.14378e-51
9.94994e-56
1.11499e-54
7.63929e-58
9.64599e-57
4.83782e-60
9.55946e-59
2.86784e-62
7.78434e-61
1.50328e-64
5.46539e-63
6.82645e-67
3.33747e-65
2.61699e-69
1.76073e-67
8.17916e-72
7.90173e-70
1.98067e-74
2.94345e-72
3.4239e-77
8.75707e-75
3.63421e-80
1.95258e-77
4.80768e-83
2.90303e-80
2.15662e-83
5.47922e-39
-3.62713e-38
1.39559e-40
-5.68209e-40
1.02965e-42
-8.32665e-41
3.95173e-45
-2.8901e-43
1.24085e-47
-5.78963e-46
8.21633e-51
-1.75846e-49
2.59584e-53
2.61994e-52
1.94109e-55
3.8125e-54
1.26068e-57
3.75491e-56
7.4847e-60
3.05664e-58
3.92702e-62
2.14513e-60
1.78398e-64
1.30845e-62
6.83881e-67
6.89798e-65
2.13684e-69
3.09652e-67
5.17398e-72
1.15501e-69
1.01996e-74
3.43586e-72
1.32489e-77
7.65293e-75
1.57124e-80
1.13701e-77
8.47485e-81
7.28246e-37
-5.75851e-36
1.66863e-38
-9.07129e-38
1.47737e-40
-1.04557e-38
6.48193e-43
-4.26329e-41
2.08357e-45
-8.99029e-44
5.76352e-49
1.30471e-49
5.10553e-51
7.30354e-50
3.69084e-53
1.00048e-51
2.44714e-55
9.76467e-54
1.45728e-57
7.93424e-56
7.66111e-60
5.56937e-58
3.48491e-62
3.40071e-60
1.33734e-64
1.79614e-62
4.53642e-67
8.07564e-65
1.23343e-69
3.01279e-67
2.49199e-72
8.96483e-70
3.32856e-75
1.99625e-72
4.10559e-78
2.97233e-75
2.21696e-78
7.21185e-35
-6.27081e-34
1.42869e-36
-9.93521e-36
1.52926e-38
-9.10107e-37
7.84175e-41
-4.40924e-39
2.4805e-43
-9.5349e-42
9.12036e-47
5.27525e-46
8.00969e-49
1.55184e-47
5.84588e-51
2.01884e-49
3.89762e-53
1.95136e-51
2.33009e-55
1.58382e-53
1.22832e-57
1.11326e-55
5.85732e-60
6.81566e-58
2.45245e-62
3.60586e-60
8.50367e-65
1.62336e-62
2.3432e-67
6.05939e-65
4.80771e-70
1.80314e-67
6.55682e-73
4.01527e-70
8.17061e-76
6.07376e-73
4.48076e-76
5.56826e-33
-5.01253e-32
8.85226e-35
-7.56749e-34
1.16405e-36
-5.51653e-35
7.22183e-39
-3.24471e-37
2.17607e-41
-6.9229e-40
1.21628e-44
1.63987e-43
1.05495e-46
2.6502e-45
7.7795e-49
3.28793e-47
5.22133e-51
3.14903e-49
3.13618e-53
2.55449e-51
1.79039e-55
1.79984e-53
8.88924e-58
1.10417e-55
3.75759e-60
5.8541e-58
1.31543e-62
2.63828e-60
3.66168e-65
9.85377e-63
7.59867e-68
2.93334e-65
1.06665e-70
6.53425e-68
1.32818e-73
9.9289e-71
7.32257e-74
3.48539e-31
-5.03609e-29
3.46866e-33
-4.93234e-31
5.88674e-35
-2.22646e-33
4.82154e-37
-1.6418e-35
1.40851e-39
-3.4744e-38
1.38761e-42
1.75825e-41
1.18989e-44
3.7499e-43
8.86643e-47
4.46346e-45
6.02555e-49
4.23923e-47
3.95511e-51
3.4387e-49
2.28339e-53
2.42769e-51
1.14341e-55
1.49277e-53
4.87192e-58
7.92721e-56
1.71887e-60
3.57682e-58
4.82347e-63
1.33698e-60
1.00985e-65
3.98214e-63
1.43776e-68
8.87408e-66
1.80859e-71
1.35121e-68
9.99304e-72
3.31881e-29
-1.63095e-27
2.47995e-32
-1.79291e-29
1.95396e-34
-1.35242e-31
2.0439e-36
-7.4114e-34
1.73671e-38
-3.81565e-37
1.57502e-40
2.95883e-39
1.30848e-42
4.98526e-41
9.8889e-45
5.73324e-43
7.2721e-47
5.40795e-45
4.82178e-49
4.38925e-47
2.80626e-51
3.10491e-49
1.41513e-53
1.91315e-51
6.06829e-56
1.0177e-53
2.15408e-58
4.598e-56
6.08213e-61
1.72033e-58
1.2817e-63
5.12738e-61
1.84091e-66
1.14316e-63
2.23664e-69
1.74337e-66
1.29347e-69
2.72084e-06
-1.41454e-05
5.47567e-06
-1.44205e-05
8.27006e-06
-1.47755e-05
1.11299e-05
-1.53946e-05
1.40716e-05
-1.62725e-05
1.71033e-05
-1.74578e-05
2.0215e-05
-1.90181e-05
2.33628e-05
-2.10407e-05
2.64402e-05
-2.36302e-05
2.92315e-05
-2.68981e-05
3.14944e-05
-3.08585e-05
3.22781e-05
-3.61158e-05
6.1507e-08
-7.00769e-06
2.53091e-10
2.10855e-07
9.09667e-12
8.53081e-09
2.01353e-13
3.7185e-10
-1.32629e-14
1.64075e-11
-3.6572e-17
7.03344e-13
2.60411e-16
2.56815e-14
7.55388e-17
9.61594e-16
5.61238e-18
4.06044e-17
2.64012e-19
1.86358e-18
1.08816e-19
5.24413e-20
2.52733e-06
-1.66727e-05
5.07462e-06
-1.69678e-05
7.64184e-06
-1.73427e-05
1.024e-05
-1.79927e-05
1.28699e-05
-1.89025e-05
1.55213e-05
-2.01092e-05
1.81643e-05
-2.1661e-05
2.07381e-05
-2.36145e-05
2.31356e-05
-2.60277e-05
2.51858e-05
-2.89483e-05
2.66721e-05
-3.23448e-05
2.71474e-05
-3.65911e-05
-3.54038e-09
-5.91782e-06
-7.40433e-10
1.59256e-07
-3.14154e-11
5.25615e-09
-1.32514e-12
2.08637e-10
-5.36517e-14
8.50181e-12
-1.18557e-16
3.34991e-13
1.72527e-16
1.12562e-14
4.59496e-17
4.00026e-16
2.65952e-18
1.62727e-17
1.27075e-19
6.71226e-19
2.93646e-20
1.99547e-20
2.3212e-06
-1.89939e-05
4.65006e-06
-1.92968e-05
6.98268e-06
-1.96754e-05
9.31842e-06
-2.03284e-05
1.16477e-05
-2.12318e-05
1.39497e-05
-2.24111e-05
1.61864e-05
-2.38978e-05
1.82962e-05
-2.57243e-05
2.0186e-05
-2.79176e-05
2.1727e-05
-3.04893e-05
2.27697e-05
-3.33875e-05
2.30728e-05
-3.68942e-05
-6.19618e-09
-5.02854e-06
-5.22883e-10
1.22265e-07
-2.5076e-11
3.30094e-09
-1.18491e-12
1.17201e-10
-5.03503e-14
4.31498e-12
-6.80518e-16
1.51398e-13
3.01484e-17
4.79164e-15
1.93005e-17
1.51317e-16
9.73703e-19
5.88709e-18
4.00825e-20
2.14098e-19
7.49542e-21
5.30749e-21
2.11118e-06
-2.11052e-05
4.22016e-06
-2.14058e-05
6.32072e-06
-2.17759e-05
8.40388e-06
-2.24116e-05
1.04539e-05
-2.32817e-05
1.24451e-05
-2.44023e-05
1.43386e-05
-2.57914e-05
1.60787e-05
-2.74645e-05
1.75902e-05
-2.94291e-05
1.87793e-05
-3.16783e-05
1.95485e-05
-3.41568e-05
1.97537e-05
-3.70994e-05
-9.75327e-09
-4.29675e-06
-3.66996e-10
9.23812e-08
-1.60876e-11
2.10583e-09
-7.04252e-13
6.69349e-11
-2.64855e-14
2.21614e-12
-4.14933e-16
6.83567e-14
6.28109e-18
2.01177e-15
6.93695e-18
5.94688e-17
3.10165e-19
2.06894e-18
1.12508e-20
6.77157e-20
2.13966e-21
1.36347e-21
1.90417e-06
-2.30093e-05
3.79879e-06
-2.33004e-05
5.67665e-06
-2.36537e-05
7.52335e-06
-2.42583e-05
9.32005e-06
-2.50784e-05
1.104e-05
-2.61224e-05
1.2647e-05
-2.73984e-05
1.40933e-05
-2.89108e-05
1.53203e-05
-3.06559e-05
1.62603e-05
-3.26183e-05
1.68496e-05
-3.47461e-05
1.69942e-05
-3.7244e-05
-1.00885e-08
-3.68406e-06
-2.84903e-10
6.91236e-08
-1.11861e-11
1.34243e-09
-4.3715e-13
3.81096e-11
-1.37824e-14
1.13012e-12
-2.21917e-16
3.06787e-14
3.09e-17
8.22906e-16
2.40646e-18
2.36112e-17
8.68525e-20
7.13827e-19
2.97391e-21
2.11703e-20
6.09212e-22
3.42504e-22
1.70507e-06
-2.47144e-05
3.39559e-06
-2.49909e-05
5.06433e-06
-2.53224e-05
6.6938e-06
-2.58879e-05
8.26424e-06
-2.66488e-05
9.7499e-06
-2.7608e-05
1.11184e-05
-2.87669e-05
1.23303e-05
-3.01227e-05
1.334e-05
-3.16656e-05
1.40986e-05
-3.33768e-05
1.45632e-05
-3.52107e-05
1.4668e-05
-3.73488e-05
-9.05638e-09
-3.16589e-06
-2.09616e-10
5.14423e-08
-7.42577e-12
8.59398e-10
-2.59542e-13
2.16097e-11
-7.00229e-15
5.70584e-13
-1.18279e-16
1.37274e-14
1.64535e-17
3.27927e-16
7.85355e-19
8.79342e-18
2.4176e-20
2.40263e-19
7.51864e-22
6.45487e-21
1.68939e-22
8.36558e-23
1.51703e-06
-2.62314e-05
3.01654e-06
-2.64904e-05
4.4919e-06
-2.67978e-05
5.92433e-06
-2.73204e-05
7.29445e-06
-2.80189e-05
8.57855e-06
-2.88922e-05
9.7485e-06
-2.99369e-05
1.07719e-05
-3.1146e-05
1.16131e-05
-3.25068e-05
1.22361e-05
-3.39997e-05
1.26109e-05
-3.55856e-05
1.26884e-05
-3.74264e-05
-7.64569e-09
-2.72477e-06
-1.49754e-10
3.81466e-08
-4.76055e-12
5.54216e-10
-1.4796e-13
1.22184e-11
-3.52567e-15
2.85266e-13
-5.79852e-17
6.11908e-15
6.5303e-18
1.28268e-16
2.42387e-19
3.21076e-18
6.51386e-21
7.88534e-20
1.82506e-22
1.9119e-21
4.53022e-23
1.97753e-23
1.34177e-06
-2.75732e-05
2.66463e-06
-2.78133e-05
3.96303e-06
-2.80961e-05
5.21816e-06
-2.85756e-05
6.41184e-06
-2.92126e-05
7.52282e-06
-3.00032e-05
8.52698e-06
-3.09411e-05
9.39758e-06
-3.20166e-05
1.01064e-05
-3.32156e-05
1.06259e-05
-3.45191e-05
1.09342e-05
-3.58939e-05
1.09923e-05
-3.74846e-05
-6.23639e-09
-2.34773e-06
-1.05201e-10
2.82114e-08
-2.97164e-12
3.60408e-10
-8.16179e-14
6.90923e-12
-1.75523e-15
1.41575e-13
-2.86735e-17
2.71604e-15
2.29869e-18
4.981e-17
7.15495e-20
1.14981e-18
1.69342e-21
2.52581e-20
4.25267e-23
5.49366e-22
1.17054e-23
4.50609e-24
1.17981e-06
-2.8753e-05
2.34054e-06
-2.8974e-05
3.47805e-06
-2.92336e-05
4.57434e-06
-2.96719e-05
5.61295e-06
-3.02512e-05
6.57523e-06
-3.09655e-05
7.44058e-06
-3.18064e-05
8.18673e-06
-3.27627e-05
8.79073e-06
-3.38195e-05
9.23042e-06
-3.49588e-05
9.48877e-06
-3.61522e-05
9.53289e-06
-3.75287e-05
-4.97333e-09
-2.025e-06
-7.40449e-11
2.08195e-08
-1.82072e-12
2.34629e-10
-4.37843e-14
3.91662e-12
-8.58103e-16
7.0074e-14
-1.34912e-17
1.20195e-15
7.57748e-19
1.98149e-17
2.03462e-20
4.04915e-19
4.24104e-22
7.90367e-21
9.48484e-24
1.52937e-22
2.90446e-24
9.85009e-25
1.03081e-06
-2.97838e-05
2.04325e-06
-2.99864e-05
3.03483e-06
-3.02252e-05
3.989e-06
-3.06261e-05
4.8913e-06
-3.11535e-05
5.72573e-06
-3.17999e-05
6.47474e-06
-3.25555e-05
7.11955e-06
-3.34076e-05
7.64073e-06
-3.43407e-05
8.01939e-06
-3.53375e-05
8.24057e-06
-3.63734e-05
8.27439e-06
-3.75625e-05
-3.89823e-09
-1.74916e-06
-5.43821e-11
1.5342e-08
-1.09229e-12
1.50601e-10
-2.28678e-14
2.24014e-12
-4.00404e-16
3.48967e-14
4.78453e-19
5.2954e-16
2.46664e-19
8.06074e-18
5.24375e-21
1.41141e-19
1.02081e-22
2.42419e-21
2.01505e-24
4.12615e-23
6.90151e-25
2.05329e-25
8.93747e-07
-3.06776e-05
1.77047e-06
-3.0863e-05
2.6295e-06
-3.10842e-05
3.45622e-06
-3.14529e-05
4.23839e-06
-3.19357e-05
4.96265e-06
-3.25242e-05
5.61432e-06
-3.32071e-05
6.17734e-06
-3.39706e-05
6.63457e-06
-3.4798e-05
6.96842e-06
-3.56714e-05
7.16375e-06
-3.65688e-05
7.18983e-06
-3.75887e-05
-2.99795e-09
-1.51495e-06
-3.745e-11
1.13055e-08
-6.31213e-13
9.61242e-11
-1.15416e-14
1.30414e-12
-1.81104e-16
1.80792e-14
1.77121e-18
2.36791e-16
7.89149e-20
3.26843e-18
1.36863e-21
4.94624e-20
2.35887e-23
7.36468e-22
4.05677e-25
1.08431e-23
1.57011e-25
4.05737e-26
7.6716e-07
-3.14447e-05
1.51899e-06
-3.16148e-05
2.25694e-06
-3.18222e-05
2.9686e-06
-3.21645e-05
3.64417e-06
-3.26113e-05
4.27313e-06
-3.31531e-05
4.84364e-06
-3.37776e-05
5.3422e-06
-3.44691e-05
5.75304e-06
-3.52088e-05
6.05819e-06
-3.59765e-05
6.23979e-06
-3.67504e-05
6.26022e-06
-3.76092e-05
-2.24236e-09
-1.31912e-06
-2.30984e-11
8.36555e-09
-3.38604e-13
6.2939e-11
-5.54277e-15
8.02758e-13
-7.88869e-17
9.95681e-15
9.70721e-19
1.14194e-16
2.48445e-20
1.39247e-18
3.55082e-22
1.79694e-20
5.24157e-24
2.26536e-22
7.70077e-26
2.81095e-24
3.43277e-26
7.55946e-27
6.49231e-07
-3.2094e-05
1.28503e-06
-3.22506e-05
1.91112e-06
-3.24483e-05
2.51753e-06
-3.27709e-05
3.09724e-06
-3.3191e-05
3.64287e-06
-3.36987e-05
4.14598e-06
-3.42807e-05
4.59597e-06
-3.49191e-05
4.97853e-06
-3.55914e-05
5.27385e-06
-3.62718e-05
5.45792e-06
-3.69344e-05
5.47435e-06
-3.76256e-05
-1.59658e-09
-1.15691e-06
-1.03875e-11
6.27528e-09
-1.48327e-13
4.60969e-11
-2.25824e-15
5.55956e-13
-3.03034e-17
6.35817e-15
4.41613e-19
6.32043e-17
7.94159e-21
6.71388e-19
9.25575e-23
7.16642e-21
1.12718e-24
7.35549e-23
1.37161e-26
7.37251e-25
7.28129e-27
1.3219e-27
5.37902e-07
-3.26319e-05
1.06433e-06
-3.27771e-05
1.58533e-06
-3.29693e-05
2.09341e-06
-3.3279e-05
2.58473e-06
-3.36823e-05
3.0557e-06
-3.41697e-05
3.50226e-06
-3.47272e-05
3.91831e-06
-3.53351e-05
4.29272e-06
-3.59658e-05
4.60435e-06
-3.65835e-05
4.81864e-06
-3.71487e-05
4.83087e-06
-3.76378e-05
-7.24842e-10
-1.03261e-06
3.53516e-13
5.15631e-09
7.51622e-15
4.23678e-11
-3.47567e-18
5.05873e-13
2.26157e-19
5.48021e-15
2.08702e-19
5.32082e-17
2.69445e-21
4.48707e-19
2.50559e-23
3.6639e-21
2.37427e-25
2.82703e-23
2.27506e-27
2.11109e-25
1.56063e-27
2.15642e-28
4.3134e-07
-3.30632e-05
8.52541e-07
-3.31983e-05
1.27249e-06
-3.33893e-05
1.68603e-06
-3.36925e-05
2.09259e-06
-3.40888e-05
2.49306e-06
-3.45701e-05
2.88943e-06
-3.51236e-05
3.28322e-06
-3.57289e-05
3.67069e-06
-3.63532e-05
4.03685e-06
-3.69496e-05
4.34505e-06
-3.74568e-05
4.33168e-06
-3.76242e-05
5.67637e-10
-1.04022e-06
2.5741e-11
5.2099e-09
3.93552e-13
6.1636e-11
3.05266e-15
9.92209e-13
1.36334e-17
9.9892e-15
1.25087e-19
5.88775e-17
1.21805e-21
4.34586e-19
8.14923e-24
2.61073e-21
5.34713e-26
1.35134e-23
3.65009e-28
6.63082e-26
3.25193e-28
3.42444e-29
3.2703e-07
-3.33898e-05
6.45811e-07
-3.35167e-05
9.66828e-07
-3.371e-05
1.28657e-06
-3.40118e-05
1.60779e-06
-3.44095e-05
1.93628e-06
-3.48981e-05
2.28213e-06
-3.54689e-05
2.65967e-06
-3.61058e-05
3.07894e-06
-3.67718e-05
3.54271e-06
-3.74127e-05
4.06787e-06
-3.79812e-05
4.08103e-06
-3.76356e-05
1.945e-09
-1.06585e-06
9.01267e-11
6.29902e-09
1.78455e-12
1.38065e-10
1.8103e-14
2.60276e-12
7.10599e-17
2.74054e-14
1.83409e-19
1.75933e-16
6.15929e-22
5.64036e-19
2.38242e-24
1.93678e-21
8.91368e-27
5.13903e-24
3.81007e-29
1.29599e-26
3.66209e-29
3.68031e-30
2.27202e-07
-3.36107e-05
4.46627e-07
-3.37297e-05
6.7026e-07
-3.3927e-05
8.96157e-07
-3.42308e-05
1.1288e-06
-3.4635e-05
1.37784e-06
-3.51395e-05
1.66221e-06
-3.57451e-05
2.01747e-06
-3.64523e-05
2.49252e-06
-3.72373e-05
3.15693e-06
-3.80664e-05
4.00194e-06
-3.88143e-05
2.22288e-06
-3.58331e-05
1.18452e-08
-3.87556e-06
7.57761e-10
1.51918e-08
1.5347e-11
8.28765e-10
9.43141e-14
1.72374e-11
2.88277e-16
1.17479e-13
1.99311e-19
4.83606e-16
1.30313e-22
8.40657e-19
1.9245e-25
6.87797e-22
1.63758e-28
3.87557e-25
5.27137e-31
3.75308e-28
7.81755e-31
7.39758e-32
1.36768e-07
-3.36502e-05
2.68614e-07
-3.37633e-05
4.04589e-07
-3.3963e-05
5.43533e-07
-3.42672e-05
6.88938e-07
-3.46743e-05
8.48191e-07
-3.51881e-05
1.0368e-06
-3.58174e-05
1.29006e-06
-3.65821e-05
1.73282e-06
-3.75481e-05
2.61481e-06
-3.88029e-05
4.69242e-06
-4.07323e-05
1.01557e-05
-4.05435e-05
7.04612e-09
-8.27892e-06
1.87738e-09
1.76462e-08
2.88674e-11
2.59096e-09
9.05694e-14
4.50679e-11
-2.04515e-16
2.05753e-13
-3.38634e-19
2.7874e-16
-8.83033e-24
6.00603e-20
-8.92663e-27
1.57033e-23
-1.25986e-29
5.06218e-27
-2.47788e-32
6.68144e-30
1.6546e-32
-4.68934e-35
-2.30515e-08
-6.33722e-30
-5.02213e-08
-4.43002e-27
-7.58248e-08
-7.54401e-25
-1.03266e-07
-8.38195e-23
-1.32088e-07
-6.80751e-21
-1.62053e-07
-4.28659e-19
-1.91855e-07
-2.16978e-17
-1.99858e-07
-8.96369e-16
-3.47016e-07
-3.04147e-14
1.42176e-07
-9.40713e-13
9.63231e-07
-2.84519e-11
8.75677e-06
-1.11836e-09
9.1056e-07
-2.95004e-07
8.32029e-08
6.55543e-07
1.88382e-09
7.56406e-08
2.64228e-12
1.90449e-09
-2.64397e-16
2.8483e-12
-6.03174e-20
1.43786e-17
-9.99662e-25
2.32479e-21
-7.87648e-28
1.742e-25
-1.06389e-30
1.61277e-28
-2.11574e-33
2.13428e-31
4.90266e-34
-4.55947e-36
-1.02299e-29
-2.49264e-30
-3.54572e-27
-9.05291e-28
-5.94335e-25
-1.65389e-25
-6.46825e-23
-2.00274e-23
-5.10562e-21
-1.79858e-21
-3.08948e-19
-1.27326e-19
-1.47781e-17
-7.37952e-18
-5.69362e-16
-3.48988e-16
-1.78259e-14
-1.34373e-14
-4.51069e-13
-5.16425e-13
-1.29645e-11
-1.61874e-11
-3.68326e-10
-7.69794e-10
-8.19022e-08
-2.51903e-08
-1.51359e-08
3.98174e-08
-1.75728e-09
7.42722e-09
-2.7613e-12
6.82492e-11
-1.39981e-17
8.73372e-14
-2.89476e-21
3.82541e-19
-1.00021e-25
1.26223e-23
-4.97271e-29
8.01036e-27
-5.74035e-32
5.86356e-30
-1.04649e-34
6.58841e-33
1.37449e-35
-2.1345e-37
-2.94534e-30
-1.01135e-31
-8.78739e-28
-4.21417e-29
-1.63154e-25
-7.3777e-27
-2.0097e-23
-8.56073e-25
-1.83487e-21
-7.35064e-23
-1.31948e-19
-4.95331e-21
-7.75725e-18
-2.71192e-19
-3.72116e-16
-1.22775e-17
-1.454e-14
-4.77763e-16
-5.53543e-13
-1.85618e-14
-1.08037e-11
-5.15967e-13
-4.5034e-10
-1.18397e-11
-2.91918e-08
-6.90348e-10
-2.12145e-09
5.7126e-10
-5.88087e-11
1.10222e-10
-8.27442e-14
3.52003e-12
-3.81339e-19
5.48437e-15
-3.4895e-23
1.85091e-20
-3.75568e-27
3.53059e-25
-2.48261e-30
2.66105e-28
-2.45442e-33
1.75694e-31
-4.09964e-36
1.80314e-34
3.52837e-37
-7.78703e-39
-1.0393e-31
-5.90958e-34
-4.25511e-29
-2.45044e-31
-7.56968e-27
-4.15772e-29
-8.8083e-25
-4.71151e-27
-7.57773e-23
-3.94619e-25
-5.11578e-21
-2.58439e-23
-2.80593e-19
-1.36711e-21
-1.27275e-17
-5.97385e-20
-4.95226e-16
-2.77389e-18
-1.89047e-14
-3.48807e-16
-5.26731e-13
-1.21634e-14
-1.22836e-11
-1.45539e-13
-6.75697e-10
-4.0283e-12
-1.09911e-10
2.332e-12
-4.34722e-12
1.46704e-12
-5.35643e-15
4.64058e-14
-2.15826e-20
1.42661e-16
-3.417e-25
5.79719e-22
-1.43285e-28
1.24104e-26
-9.0184e-32
6.08209e-30
-8.5498e-35
4.18987e-33
-1.35314e-37
4.33399e-36
8.21357e-39
-2.41481e-40
-5.91218e-34
-7.50827e-38
-2.45709e-31
-3.10766e-35
-4.18321e-29
-5.25921e-33
-4.75358e-27
-5.93128e-31
-3.99309e-25
-4.9375e-29
-2.62319e-23
-3.20682e-27
-1.39228e-21
-1.68117e-25
-6.1059e-20
-7.29019e-24
-2.83075e-18
-3.42651e-22
-3.51254e-16
-4.73068e-20
-1.2493e-14
-2.09212e-18
-1.5736e-13
-2.82207e-17
-4.17603e-12
-7.82148e-16
-1.80889e-12
-1.27026e-14
-4.60062e-14
1.07881e-14
-1.72608e-16
3.03502e-16
-5.77561e-22
8.77516e-19
-8.20377e-27
8.07249e-24
-4.62477e-30
2.07984e-28
-2.79983e-33
1.33835e-31
-2.54023e-36
9.17907e-35
-3.84522e-39
9.30804e-38
1.71748e-40
-6.52611e-42
-7.59814e-38
-1.52221e-40
-3.13853e-35
-6.35957e-38
-5.30582e-33
-1.08508e-35
-5.98941e-31
-1.23527e-33
-4.99577e-29
-1.03808e-31
-3.25634e-27
-6.81849e-30
-1.71693e-25
-3.61508e-28
-7.50602e-24
-1.57442e-26
-3.51858e-22
-5.71445e-25
-4.70525e-20
-1.79687e-23
-2.09846e-18
-4.63539e-22
-2.83818e-17
-1.04895e-20
-8.11174e-16
-9.82875e-19
-1.04051e-14
-1.6573e-17
-3.66775e-16
3.88146e-17
-8.82484e-19
3.26788e-18
-8.2796e-24
5.02442e-21
-2.01711e-28
2.31518e-26
-1.23478e-31
4.12728e-30
-7.2308e-35
2.64301e-33
-6.41386e-38
1.7032e-36
-9.44978e-41
1.7371e-39
3.1876e-42
-1.55027e-43
-1.06673e-40
-5.94e-44
-3.39904e-38
-1.94284e-41
-6.0177e-36
-3.5331e-39
-7.01125e-34
-4.229e-37
-6.02859e-32
-3.73789e-35
-4.06435e-30
-2.59325e-33
-2.2162e-28
-1.45917e-31
-9.97189e-27
-6.80078e-30
-3.71123e-25
-2.63717e-28
-1.18106e-23
-8.24276e-27
-3.43774e-22
-2.32408e-25
-1.09238e-20
-5.13026e-24
-1.8469e-18
-8.70416e-23
-4.41997e-17
-1.59004e-21
-3.19034e-18
3.74002e-20
-5.01926e-21
1.96162e-20
-2.28302e-26
5.14371e-23
-4.15899e-30
2.6365e-28
-2.56557e-33
6.45628e-32
-1.55528e-36
4.47772e-35
-1.37604e-39
2.87022e-38
-2.01027e-42
2.79923e-41
5.21522e-44
-3.2452e-45
-5.29978e-44
-3.60259e-49
-1.94418e-41
-1.38066e-46
-3.54852e-39
-2.6313e-44
-4.26097e-37
-3.30158e-42
-3.78089e-35
-3.0663e-40
-2.63139e-33
-2.23914e-38
-1.48565e-31
-1.33181e-36
-6.95019e-30
-6.59986e-35
-2.70704e-28
-2.74472e-33
-8.63723e-27
-9.31545e-32
-2.98538e-25
-2.85179e-30
-8.76003e-24
-7.08863e-29
-2.80012e-21
-1.44824e-27
-5.62291e-20
-2.29836e-26
-1.89127e-20
-1.53259e-25
-5.10555e-23
4.13396e-23
-2.59995e-28
3.77907e-25
-6.29451e-32
2.69221e-30
-4.35571e-35
7.98485e-34
-2.76289e-38
6.13899e-37
-2.5079e-41
4.23575e-40
-3.70015e-44
4.1436e-43
7.48537e-46
-5.98833e-47
-3.60402e-49
-1.21157e-52
-1.38885e-46
-4.94305e-50
-2.65237e-44
-9.99667e-48
-3.34264e-42
-1.33517e-45
-3.11691e-40
-1.32197e-43
-2.28399e-38
-1.03158e-41
-1.36363e-36
-6.58689e-40
-6.7863e-35
-3.52659e-38
-2.83681e-33
-1.59852e-36
-9.8315e-32
-5.9856e-35
-3.7039e-30
-2.0287e-33
-1.21536e-28
-5.8692e-32
-3.58017e-27
-1.4451e-30
-1.52363e-24
-2.8931e-29
-3.97847e-23
-6.29031e-28
-3.76116e-25
5.62991e-26
-2.65952e-30
1.74932e-27
-7.79289e-34
1.96518e-32
-6.06442e-37
7.51584e-36
-4.0847e-40
6.74112e-39
-3.88178e-43
5.1805e-42
-5.89611e-46
5.44802e-45
9.40711e-48
-9.73736e-49
-1.21158e-52
-7.73816e-59
-4.95509e-50
-3.39493e-56
-1.00456e-47
-7.38522e-54
-1.34498e-45
-1.0622e-51
-1.33496e-43
-1.13495e-49
-1.04428e-41
-9.58862e-48
-6.68417e-40
-6.65802e-46
-3.58711e-38
-3.89964e-44
-1.63e-36
-1.94933e-42
-6.25112e-35
-8.16412e-41
-2.60972e-33
-3.11833e-39
-9.74321e-32
-1.04659e-37
-3.32192e-30
-3.10111e-36
-1.88432e-27
-9.89817e-35
-5.80467e-26
-1.46487e-33
-1.74651e-27
-6.85589e-34
-1.94129e-32
2.46677e-30
-7.31735e-36
1.02112e-34
-6.67809e-39
5.44274e-38
-4.98065e-42
6.08526e-41
-5.09162e-45
5.24262e-44
-8.10827e-48
6.08187e-47
1.04332e-49
-1.39633e-50
-7.7323e-59
-5.96795e-63
-3.39825e-56
-2.84747e-60
-7.39553e-54
-6.72903e-58
-1.06426e-51
-1.05268e-55
-1.13711e-49
-1.22514e-53
-9.5988e-48
-1.13005e-51
-6.65338e-46
-8.59464e-50
-3.88617e-44
-5.53845e-48
-1.94817e-42
-3.08473e-46
-8.39946e-41
-1.48914e-44
-3.88921e-39
-6.46015e-43
-1.64297e-37
-2.5048e-41
-8.79026e-36
-8.67958e-40
-3.6194e-34
-2.64936e-38
-6.63523e-32
-6.64824e-37
-2.46161e-30
-1.75156e-35
-1.00653e-34
3.14287e-33
-5.2738e-38
3.58539e-37
-5.90701e-41
2.96002e-40
-5.14702e-44
4.27081e-43
-5.65457e-47
4.38622e-46
-9.6276e-50
5.76613e-49
1.08062e-51
-1.7626e-52
-5.95742e-63
-1.62577e-67
-2.84316e-60
-8.51802e-65
-6.73069e-58
-2.21439e-62
-1.05472e-55
-3.81522e-60
-1.22946e-53
-4.89938e-58
-1.1358e-51
-5.0006e-56
-8.65167e-50
-4.22476e-54
-5.58414e-48
-3.03943e-52
-3.11482e-46
-1.90138e-50
-1.5248e-44
-1.05025e-48
-7.68524e-43
-5.20455e-47
-3.72055e-41
-2.33429e-45
-1.68466e-39
-9.50032e-44
-7.19432e-38
-3.48693e-42
-7.17899e-35
-1.11136e-40
-3.13436e-33
-5.05967e-39
-3.51008e-37
5.36845e-37
-2.84003e-40
7.95036e-40
-4.12344e-43
1.198e-42
-4.27313e-46
2.37708e-45
-5.31442e-49
3.02808e-48
-9.89034e-52
4.64406e-51
9.71432e-54
-1.96193e-54
-1.62524e-67
-3.41802e-76
-8.53411e-65
-1.9927e-73
-2.22287e-62
-5.76289e-71
-3.83733e-60
-1.1059e-68
-4.93759e-58
-1.58473e-66
-5.04983e-56
-1.80962e-64
-4.27516e-54
-1.71647e-62
-3.08211e-52
-1.39244e-60
-1.93215e-50
-9.87355e-59
-1.07013e-48
-6.22064e-57
-5.82841e-47
-3.53699e-55
-3.2194e-45
-1.83811e-53
-1.67239e-43
-8.76346e-52
-8.24237e-42
-3.82876e-50
-1.07103e-38
-1.50084e-48
-5.37612e-37
-4.95938e-47
-7.68543e-40
-1.05356e-45
-1.12805e-42
4.62863e-43
-2.27274e-45
3.38954e-45
-2.91703e-48
1.03392e-47
-4.22301e-51
1.74195e-50
-8.77626e-54
3.18265e-53
7.59555e-56
-1.92373e-56
-3.41955e-76
-1.47385e-80
-1.99724e-73
-9.66338e-78
-5.78691e-71
-3.14382e-75
-1.11265e-68
-6.79343e-73
-1.59757e-66
-1.09798e-70
-1.82806e-64
-1.41739e-68
-1.73769e-62
-1.52436e-66
-1.41273e-60
-1.40709e-64
-1.00411e-58
-1.14027e-62
-6.34393e-57
-8.25302e-61
-3.68676e-55
-5.41873e-59
-2.3312e-53
-3.27041e-57
-1.39156e-51
-1.82712e-55
-7.97984e-50
-9.45934e-54
-4.44832e-48
-4.48577e-52
-7.82342e-45
-1.85739e-50
-4.54169e-43
-1.03742e-48
-3.17166e-45
1.64903e-46
-9.71722e-48
6.3549e-48
-1.62013e-50
3.54984e-50
-2.86728e-53
8.17926e-53
-6.73312e-56
1.86127e-55
5.1875e-58
-1.66607e-58
-1.47385e-80
-4.0044e-88
-9.67811e-78
-2.98757e-85
-3.15349e-75
-1.10657e-82
-6.82495e-73
-2.72445e-80
-1.1048e-70
-5.02427e-78
-1.42843e-68
-7.41503e-76
-1.53864e-66
-9.13949e-74
-1.42246e-64
-9.69744e-72
-1.15449e-62
-9.06496e-70
-8.36841e-61
-7.59839e-68
-5.50641e-59
-5.80333e-66
-3.77526e-57
-4.08795e-64
-2.599e-55
-2.68514e-62
-1.72157e-53
-1.64749e-60
-1.1106e-51
-9.38699e-59
-2.55365e-48
-4.81635e-57
-1.70914e-46
-2.0114e-55
-6.07871e-48
-3.21648e-54
-3.23892e-50
3.84142e-51
-7.42636e-53
8.87775e-53
-1.62962e-55
3.15193e-55
-4.47197e-58
9.37756e-58
3.1158e-60
-1.27651e-60
-4.00777e-88
-1.79441e-92
-2.99452e-85
-1.54475e-89
-1.11085e-82
-6.60404e-87
-2.73935e-80
-1.87802e-84
-5.06005e-78
-4.00519e-82
-7.48063e-76
-6.84682e-80
-9.23695e-74
-9.79463e-78
-9.81955e-72
-1.20908e-75
-9.19738e-70
-1.31845e-73
-7.73052e-68
-1.29386e-71
-5.92118e-66
-1.1605e-69
-4.24598e-64
-9.63397e-68
-3.39143e-62
-7.48226e-66
-2.61097e-60
-5.46629e-64
-1.96554e-58
-3.74375e-62
-1.46724e-56
-2.35714e-60
-4.70813e-53
-1.2747e-58
-3.70044e-51
-7.92208e-57
-8.1066e-53
2.18111e-54
-2.75088e-55
1.62187e-55
-7.78461e-58
9.62701e-58
-2.58808e-60
3.92013e-60
1.65689e-62
-8.68035e-63
-1.79471e-92
-1.60673e-97
-1.54685e-89
-1.62349e-94
-6.62112e-87
-8.14741e-92
-1.8852e-84
-2.72156e-89
-4.02553e-82
-6.8248e-87
-6.89025e-80
-1.37361e-84
-9.86925e-78
-2.31729e-82
-1.21985e-75
-3.37998e-80
-1.33189e-73
-4.36461e-78
-1.30884e-71
-5.08477e-76
-1.17557e-69
-5.4283e-74
-9.77657e-68
-5.37887e-72
-8.29292e-66
-4.99832e-70
-7.47971e-64
-4.38882e-68
-6.59699e-62
-3.63884e-66
-5.76762e-60
-2.81129e-64
-2.48837e-56
-1.93795e-62
-2.28776e-54
-1.9101e-60
-1.50475e-55
1.87141e-58
-8.33497e-58
1.87435e-58
-3.17281e-60
2.33632e-60
-1.29869e-62
1.35627e-62
7.74055e-65
-5.24368e-65
-1.60673e-97
-1.23683e-104
-1.6251e-94
-1.49943e-101
-8.16368e-92
-9.03148e-99
-2.72973e-89
-3.62302e-96
-6.85211e-87
-1.09191e-93
-1.38047e-84
-2.64399e-91
-2.3311e-82
-5.37352e-89
-3.40331e-80
-9.4569e-87
-4.39868e-78
-1.476e-84
-5.12881e-76
-2.08225e-82
-5.47969e-74
-2.69728e-80
-5.43381e-72
-3.25019e-78
-5.05545e-70
-3.68192e-76
-5.11784e-68
-3.94853e-74
-5.35684e-66
-4.02059e-72
-5.55938e-64
-3.85119e-70
-3.3224e-60
-3.35518e-68
-3.61023e-58
-2.37252e-66
-1.75681e-58
-6.84237e-65
-2.03697e-60
1.02006e-61
-1.09675e-62
4.54866e-63
-5.68613e-65
4.00429e-65
3.02337e-67
-2.82795e-67
-1.23712e-104
-1.42991e-109
-1.50111e-101
-2.14541e-106
-9.04992e-99
-1.60021e-103
-3.63386e-96
-7.95233e-101
-1.09625e-93
-2.97077e-98
-2.6572e-91
-8.92455e-96
-5.40615e-89
-2.25264e-93
-9.52526e-87
-4.92954e-91
-1.4885e-84
-9.57915e-89
-2.10297e-82
-1.68502e-86
-2.72895e-80
-2.72593e-84
-3.29566e-78
-4.1089e-82
-3.74481e-76
-5.83379e-80
-4.0361e-74
-7.85816e-78
-4.8744e-72