/*--------------------------------*- C++ -*----------------------------------*\
| =========                 |                                                 |
| \\      /  F ield         | OpenFOAM: The Open Source CFD Toolbox           |
|  \\    /   O peration     | Version:  2206                                  |
|   \\  /    A nd           | Website:  www.openfoam.com                      |
|    \\/     M anipulation  |                                                 |
\*---------------------------------------------------------------------------*/
FoamFile
{
    version     2.0;
    format      ascii;
    arch        "LSB;label=32;scalar=64";
    class       volScalarField;
    location    "0.025";
    object      p;
}
// * * * * * * * * * * * * * * * * * * * * * * * * * * * * * * * * * * * * * //

dimensions      [1 -1 -2 0 0 0 0];

internalField   nonuniform List<scalar> 
2268
(
1133.23
1123.37
1103.16
1072.4
1030.55
976.785
909.958
828.403
729.762
609.343
468.033
276.224
46.1502
6.51239
3.14448
2.83127
2.60605
2.40069
2.25912
2.15366
2.07617
2.02456
1.99849
1076.45
1066.62
1046.48
1015.82
974.119
920.57
854.037
772.898
674.86
555.38
416.033
222.582
16.8791
3.08578
2.74716
2.73878
2.52009
2.32818
2.19158
2.08791
2.01107
1.9595
1.93322
1021.76
1011.99
991.976
961.529
920.129
867.003
801.058
720.748
623.914
506.351
370.159
176.559
4.49538
2.56853
2.54291
2.58089
2.4038
2.24175
2.11487
2.01497
1.9395
1.88785
1.86091
969.146
959.465
939.644
909.507
868.554
816.055
750.979
671.89
576.816
462.032
329.964
140.706
3.29634
2.46037
2.42984
2.41855
2.28222
2.14699
2.03094
1.93579
1.86189
1.8098
1.78151
918.591
909.027
889.461
859.728
819.362
767.681
703.734
626.222
533.401
422.09
294.954
113.509
2.94907
2.27516
2.31464
2.27399
2.16303
2.04734
1.94157
1.85128
1.77872
1.72551
1.69467
870.073
860.651
841.398
812.161
772.51
721.822
659.242
583.619
493.467
386.156
264.574
93.0443
2.6022
2.09986
2.19358
2.14189
2.04613
1.94501
1.84818
1.76232
1.69059
1.63521
1.59973
823.56
814.304
795.417
766.76
727.941
678.403
617.394
543.923
456.763
353.823
238.186
77.4646
2.34586
1.96391
2.0716
2.01668
1.93164
1.84134
1.75193
1.66982
1.59822
1.53927
1.49543
778.993
769.925
751.451
723.446
685.56
637.305
578.034
506.922
422.987
324.64
215.012
65.2703
2.12507
1.86425
1.95089
1.89662
1.81945
1.73716
1.65378
1.57471
1.50255
1.43849
1.38076
1.03387
1.02962
1.02176
1.01144
0.999608
0.987079
0.974431
0.962075
0.950301
0.939308
0.929231
0.920161
0.912156
0.905253
0.899476
0.894843
0.891363
0.889041
0.887879
0.976111
0.971681
0.963549
0.952975
0.940939
0.928254
0.915495
0.903061
0.891234
0.880205
0.870104
0.861018
0.853001
0.846091
0.84031
0.835674
0.832191
0.829868
0.828706
0.919519
0.914684
0.905996
0.894898
0.882446
0.869451
0.856473
0.843887
0.831954
0.820853
0.810703
0.801584
0.793545
0.78662
0.78083
0.776187
0.772701
0.770375
0.769212
0.864193
0.858672
0.849093
0.837184
0.824102
0.810645
0.797347
0.784537
0.772451
0.761245
0.751024
0.741855
0.733784
0.726838
0.721033
0.716382
0.71289
0.710562
0.709398
0.810291
0.803697
0.792815
0.779784
0.76586
0.751817
0.738091
0.724992
0.71271
0.701371
0.691058
0.681828
0.673716
0.666742
0.66092
0.656258
0.65276
0.650428
0.649262
0.758048
0.749813
0.737114
0.722623
0.707651
0.692883
0.678664
0.665227
0.652714
0.641217
0.630799
0.621497
0.613336
0.606331
0.600489
0.595814
0.592309
0.589974
0.588806
0.707542
0.697047
0.681893
0.665586
0.649384
0.633795
0.619024
0.60521
0.592442
0.580772
0.570236
0.560855
0.552642
0.545602
0.539738
0.535049
0.531537
0.529197
0.528029
0.659647
0.645531
0.627003
0.608511
0.590936
0.574477
0.55912
0.54491
0.531871
0.520018
0.509358
0.499894
0.491626
0.48455
0.478664
0.473962
0.470442
0.468099
0.466929
712.348
703.605
685.847
658.968
622.689
576.632
520.315
453.164
374.563
283.64
182.856
50.1332
2.03356
1.72359
1.76518
1.71598
1.64739
1.57435
1.49857
1.42331
1.34943
1.27323
1.17739
630.149
621.935
605.314
580.214
546.453
503.794
451.965
390.684
319.733
238.844
150.499
36.8771
1.66755
1.49612
1.52804
1.48173
1.42047
1.35537
1.28665
1.21587
1.14296
1.06528
0.979827
555.889
548.256
532.874
509.702
478.641
439.58
392.417
337.095
273.679
202.282
125.33
27.6275
1.44593
1.29497
1.30178
1.25572
1.19943
1.13989
1.07678
1.01094
0.942476
0.870534
0.794269
489.017
481.997
467.908
446.735
418.449
383.037
340.527
291.02
234.759
172.076
105.217
20.9065
1.22184
1.09297
1.08224
1.03596
0.983117
0.927882
0.869636
0.808837
0.745675
0.679995
0.611689
428.951
422.555
409.772
390.604
365.077
333.252
295.245
251.259
201.638
146.814
88.7978
15.8859
0.994271
0.884994
0.865232
0.819859
0.770137
0.718721
0.664925
0.609015
0.55121
0.491686
0.430797
375.094
369.319
357.822
340.617
317.77
289.39
255.65
216.811
173.26
125.463
75.18
12.0693
0.767042
0.67326
0.649252
0.605914
0.559465
0.511734
0.462148
0.410905
0.358244
0.304474
0.25008
326.854
321.685
311.429
296.109
275.817
250.691
220.935
186.836
148.787
107.246
63.74
9.12981
0.540302
0.459427
0.434025
0.393487
0.350484
0.306394
0.260832
0.214005
0.166163
0.117649
0.068942
283.651
279.061
269.987
256.452
238.562
216.473
190.397
160.627
127.54
91.5664
54.0206
6.84052
0.314537
0.244783
0.219708
0.182372
0.14287
0.102339
0.0606069
0.0179257
-0.025449
-0.0691795
-0.112834
244.925
240.884
232.919
221.055
205.403
186.121
163.423
137.587
108.967
77.9535
45.6775
5.03915
0.0904214
0.0305185
0.00666586
-0.0273956
-0.0635118
-0.100663
-0.138807
-0.177634
-0.216883
-0.256242
-0.295335
210.145
206.617
199.685
189.372
175.789
159.09
139.478
117.214
92.6175
66.0399
38.4517
3.60923
-0.131435
-0.182394
-0.204675
-0.235673
-0.268708
-0.302781
-0.337648
-0.372934
-0.408378
-0.443709
-0.478618
178.808
175.757
169.782
160.903
149.225
134.896
118.103
99.0829
78.1249
55.5368
32.1486
2.46728
-0.350391
-0.393091
-0.41386
-0.442281
-0.472749
-0.504187
-0.53616
-0.568236
-0.600167
-0.631738
-0.662733
150.448
147.839
142.749
135.191
125.266
113.108
98.8899
82.8264
65.1736
46.1989
26.6075
1.55091
-0.565677
-0.600632
-0.620377
-0.647047
-0.675712
-0.70511
-0.734633
-0.763825
-0.792486
-0.820489
-0.847739
124.627
122.427
118.154
111.814
103.498
93.3292
81.4658
68.1016
53.4648
37.7853
21.6685
0.806569
-0.777104
-0.803736
-0.823623
-0.84987
-0.877812
-0.90592
-0.93346
-0.960044
-0.985593
-1.01013
-1.03371
100.957
99.1364
95.6178
90.4004
83.5637
75.2203
65.5131
54.6194
42.746
30.095
17.2086
0.190874
-0.981303
-1.00028
-1.02296
-1.0509
-1.07959
-1.10728
-1.13326
-1.15738
-1.17982
-1.20084
-1.2207
79.185
77.7104
74.8918
70.7152
65.249
58.5893
50.8629
42.2345
32.9059
23.0844
13.3061
-0.269432
-1.14863
-1.18789
-1.21815
-1.25092
-1.28225
-1.31037
-1.33499
-1.35652
-1.37559
-1.39283
-1.40876
58.3636
57.2059
55.0322
51.8133
47.5994
42.4673
36.5199
29.9029
22.8216
15.5822
9.03614
-0.796369
-1.3536
-1.37042
-1.41113
-1.45217
-1.48801
-1.51704
-1.53998
-1.55828
-1.57334
-1.58628
-1.5979
36.4799
35.6271
34.0429
31.6894
28.6056
24.8413
20.4634
15.5707
10.2546
4.95658
1.077
-3.40485
-1.64484
-1.545
-1.60356
-1.65824
-1.70047
-1.73001
-1.7499
-1.76355
-1.77344
-1.78123
-1.78798
26.6382
26.131
25.2484
23.9242
22.1895
20.0724
17.6144
14.8689
11.7097
8.56432
5.60166
-1.91096
-1.86121
-1.64114
-1.80308
-1.87776
-1.9262
-1.95324
-1.9666
-1.97299
-1.97593
-1.97747
-1.97868
46.3848
46.3518
46.2859
46.1868
46.0531
45.8827
45.6692
45.4015
45.092
44.6499
44.6891
29.2114
3.51892
-1.76474
-2.06655
-2.11449
-2.1757
-2.1912
-2.19142
-2.18645
-2.18021
-2.1743
-2.16936
-4.30223
-4.29683
-4.2892
-4.27766
-4.26237
-4.2436
-4.22205
-4.19845
-4.17651
-4.17095
-4.15865
-4.21782
-4.95801
-3.73294
-2.67799
-2.53471
-2.48176
-2.44832
-2.42285
-2.40192
-2.38462
-2.37045
-2.35904
-4.3401
-4.33579
-4.32774
-4.31569
-4.2996
-4.27951
-4.25556
-4.22771
-4.19834
-4.16618
-4.11708
-4.12677
-4.22615
-3.74744
-3.15916
-2.91131
-2.77905
-2.70225
-2.65146
-2.61456
-2.58632
-2.56413
-2.54651
-4.36273
-4.35834
-4.34969
-4.33668
-4.31918
-4.29704
-4.26998
-4.23755
-4.19974
-4.15233
-4.09153
-4.0311
-3.90554
-3.62767
-3.34955
-3.15673
-3.02337
-2.93193
-2.86706
-2.81907
-2.7823
-2.75347
-2.73051
-4.39214
-4.38765
-4.37859
-4.36489
-4.34635
-4.32264
-4.29324
-4.2574
-4.21387
-4.15921
-4.0922
-4.00679
-3.87451
-3.68699
-3.49801
-3.34501
-3.22614
-3.13545
-3.06619
-3.01264
-2.97057
-2.93705
-2.91006
-4.42614
-4.42153
-4.41221
-4.39807
-4.37884
-4.35414
-4.32335
-4.28559
-4.23944
-4.18256
-4.11302
-4.02484
-3.91006
-3.77213
-3.63208
-3.50756
-3.40332
-3.31843
-3.25004
-3.19498
-3.15045
-3.11422
-3.08456
-4.46503
-4.46037
-4.45097
-4.43667
-4.41721
-4.39218
-4.36102
-4.32289
-4.27664
-4.22073
-4.15351
-4.07201
-3.97475
-3.86604
-3.75589
-3.65338
-3.56301
-3.48582
-3.42101
-3.36703
-3.32218
-3.28489
-3.25383
-4.50882
-4.50421
-4.4949
-4.48072
-4.46145
-4.43674
-4.4061
-4.36887
-4.32422
-4.27122
-4.20889
-4.13624
-4.05377
-3.96476
-3.87469
-3.78891
-3.71068
-3.64152
-3.58156
-3.53019
-3.48647
-3.44939
-3.41799
-4.55746
-4.55298
-4.54392
-4.53014
-4.51145
-4.48757
-4.45814
-4.4227
-4.38071
-4.33167
-4.2752
-4.21125
-4.14079
-4.06619
-3.9908
-3.91796
-3.85007
-3.78852
-3.73382
-3.68587
-3.64423
-3.60828
-3.57735
-4.61084
-4.60655
-4.59785
-4.58468
-4.56688
-4.54425
-4.51652
-4.48341
-4.44464
-4.4
-4.34948
-4.29341
-4.23277
-4.16931
-4.10523
-4.04276
-3.98362
-3.92902
-3.87957
-3.83542
-3.7964
-3.76219
-3.73235
-4.66873
-4.66465
-4.65645
-4.64406
-4.62737
-4.60624
-4.58052
-4.55006
-4.51474
-4.47455
-4.42967
-4.38056
-4.32811
-4.27361
-4.21858
-4.16456
-4.11296
-4.06464
-4.02021
-3.97994
-3.94385
-3.91177
-3.88345
-4.73083
-4.72702
-4.71939
-4.70789
-4.69246
-4.67301
-4.64946
-4.62176
-4.58991
-4.55402
-4.51435
-4.47139
-4.42588
-4.37879
-4.33126
-4.28441
-4.23928
-4.19656
-4.15684
-4.12041
-4.08735
-4.05764
-4.03113
-4.79684
-4.79334
-4.78634
-4.77581
-4.76172
-4.74402
-4.7227
-4.69776
-4.6693
-4.63746
-4.60256
-4.56502
-4.52548
-4.4847
-4.44351
-4.40278
-4.36326
-4.32564
-4.29031
-4.25757
-4.22758
-4.20036
-4.17584
-4.86647
-4.8633
-4.85696
-4.84743
-4.83471
-4.81878
-4.79967
-4.77743
-4.7522
-4.72414
-4.69356
-4.66085
-4.62653
-4.59119
-4.5555
-4.5201
-4.48561
-4.45254
-4.42126
-4.39206
-4.36509
-4.3404
-4.318
-4.93941
-4.93657
-4.9309
-4.92237
-4.91101
-4.89683
-4.87987
-4.86023
-4.83804
-4.81349
-4.78684
-4.75845
-4.72874
-4.6982
-4.66733
-4.63665
-4.60665
-4.57773
-4.55023
-4.52438
-4.50035
-4.4782
-4.45796
-5.01532
-5.01281
-5.00779
-5.00025
-4.99022
-4.97774
-4.96286
-4.94568
-4.92634
-4.90503
-4.88198
-4.85749
-4.83192
-4.80564
-4.77908
-4.75263
-4.72669
-4.70159
-4.67761
-4.65495
-4.63376
-4.61412
-4.59607
-5.09384
-5.09166
-5.08727
-5.08069
-5.07196
-5.06111
-5.04821
-5.03337
-5.01671
-4.9984
-4.97866
-4.95772
-4.93589
-4.91347
-4.8908
-4.8682
-4.84598
-4.82441
-4.80372
-4.78409
-4.76564
-4.74847
-4.73261
-5.17463
-5.17275
-5.16898
-5.16334
-5.15585
-5.14657
-5.13557
-5.12294
-5.10879
-5.09329
-5.0766
-5.05893
-5.04053
-5.02164
-5.00253
-4.98346
-4.96468
-4.9464
-4.92881
-4.91207
-4.89628
-4.88152
-4.86784
-5.25733
-5.25575
-5.25258
-5.24784
-5.24156
-5.23379
-5.2246
-5.21406
-5.20229
-5.18941
-5.17557
-5.16094
-5.14571
-5.13009
-5.11428
-5.0985
-5.08293
-5.06775
-5.0531
-5.03913
-5.02591
-5.01352
-5.002
-5.34162
-5.34033
-5.33775
-5.33388
-5.32877
-5.32246
-5.315
-5.30646
-5.29694
-5.28654
-5.27538
-5.2636
-5.25135
-5.23878
-5.22607
-5.21338
-5.20084
-5.1886
-5.17677
-5.16546
-5.15475
-5.14468
-5.13529
-5.4272
-5.42619
-5.42418
-5.42116
-5.41719
-5.41228
-5.40648
-5.39987
-5.3925
-5.38446
-5.37585
-5.36677
-5.35734
-5.34768
-5.3379
-5.32814
-5.31849
-5.30907
-5.29996
-5.29124
-5.28297
-5.27518
-5.26791
-5.51379
-5.51306
-5.5116
-5.50942
-5.50654
-5.50299
-5.49882
-5.49405
-5.48876
-5.483
-5.47683
-5.47034
-5.46361
-5.45672
-5.44976
-5.44282
-5.43596
-5.42927
-5.4228
-5.41661
-5.41073
-5.40519
-5.40001
-5.6011
-5.60064
-5.59973
-5.59836
-5.59656
-5.59435
-5.59175
-5.5888
-5.58552
-5.58196
-5.57817
-5.57419
-5.57007
-5.56588
-5.56165
-5.55745
-5.55331
-5.54928
-5.5454
-5.54169
-5.53817
-5.53486
-5.53176
-5.68817
-5.68799
-5.68764
-5.68711
-5.68641
-5.68556
-5.68456
-5.68343
-5.68219
-5.68086
-5.67945
-5.67798
-5.67649
-5.67498
-5.67347
-5.672
-5.67056
-5.66918
-5.66786
-5.66661
-5.66545
-5.66435
-5.66332
0.978437
0.863194
0.762372
0.671428
0.84708
0.728444
0.63066
0.545421
0.69047
0.583064
0.491669
0.412357
0.525067
0.430142
0.346351
0.273096
0.355745
0.271678
0.195607
0.128302
0.183866
0.109095
0.0403576
-0.0211911
0.0100454
-0.0566553
-0.118591
-0.17462
-0.165388
-0.22494
-0.280587
-0.331341
-0.342227
-0.395318
-0.445116
-0.490825
-0.520329
-0.567464
-0.61177
-0.652632
-0.699596
-0.741129
-0.780208
-0.816387
-0.879961
-0.916122
-0.950157
-0.981774
-1.06137
-1.09227
-1.12137
-1.14851
-1.24377
-1.26941
-1.29361
-1.31633
-1.42706
-1.44736
-1.46666
-1.48497
-1.61112
-1.6259
-1.64024
-1.65417
-1.7957
-1.80476
-1.81409
-1.82366
-1.98043
-1.98358
-1.98788
-1.99315
-2.16479
-2.16192
-2.16123
-2.16232
-2.34806
-2.33927
-2.33378
-2.33087
-2.52944
-2.51509
-2.5051
-2.49848
-2.70812
-2.68883
-2.67483
-2.66486
-2.88342
-2.86003
-2.84261
-2.82976
-3.05488
-3.02834
-3.00819
-2.99296
-3.22229
-3.19358
-3.17139
-3.15431
-3.38564
-3.35565
-3.33212
-3.31372
-3.54505
-3.51462
-3.49038
-3.47116
-3.70079
-3.67059
-3.64621
-3.62663
-3.85316
-3.82375
-3.79971
-3.78018
-4.00249
-3.97433
-3.95104
-3.93192
-4.14912
-4.12255
-4.10034
-4.08194
-4.29339
-4.26866
-4.24781
-4.23038
-4.43558
-4.4129
-4.39361
-4.37736
-4.576
-4.55549
-4.53793
-4.52305
-4.71489
-4.69667
-4.68096
-4.66758
-4.8525
-4.83662
-4.82287
-4.8111
-4.98903
-4.97556
-4.96384
-4.95375
-5.1247
-5.11365
-5.10401
-5.09568
-5.25968
-5.25108
-5.24355
-5.23702
-5.39415
-5.388
-5.3826
-5.37792
-5.52825
-5.52456
-5.52132
-5.5185
-5.66215
-5.66092
-5.65984
-5.6589
0.598887
0.566965
0.541232
0.518898
0.499155
0.481259
0.464967
0.450129
0.436664
0.424521
0.413665
0.40407
0.395716
0.388586
0.382666
0.377945
0.374415
0.372067
0.370896
0.484295
0.448142
0.418814
0.393757
0.371837
0.352421
0.335063
0.319484
0.305507
0.293015
0.281924
0.272177
0.263726
0.256539
0.250588
0.245852
0.242316
0.239967
0.238795
0.357183
0.321136
0.290632
0.264299
0.241277
0.220962
0.202915
0.186834
0.172503
0.159769
0.148523
0.138679
0.130176
0.122964
0.117007
0.112275
0.108747
0.106405
0.105238
0.222069
0.187366
0.157105
0.130606
0.107273
0.0866262
0.0682939
0.0519924
0.0375084
0.0246801
0.0133841
0.00352541
-0.00496987
-0.0121592
-0.0180874
-0.0227894
-0.0262917
-0.0286142
-0.0297713
0.0808993
0.0480298
0.0188133
-0.0071149
-0.0301491
-0.0506411
-0.0688863
-0.0851248
-0.0995485
-0.112311
-0.123533
-0.133313
-0.141727
-0.148839
-0.154696
-0.159336
-0.16279
-0.165079
-0.166219
-0.0650781
-0.0958851
-0.123625
-0.14851
-0.170804
-0.190759
-0.208599
-0.224518
-0.238678
-0.251212
-0.262234
-0.271836
-0.280092
-0.287065
-0.292804
-0.297348
-0.300729
-0.302969
-0.304084
-0.215022
-0.24364
-0.269651
-0.293191
-0.314434
-0.333561
-0.350741
-0.366121
-0.379834
-0.391992
-0.402693
-0.412018
-0.420038
-0.426811
-0.432384
-0.436796
-0.440078
-0.442252
-0.443335
-0.368292
-0.394648
-0.418782
-0.440776
-0.460752
-0.478838
-0.495157
-0.509821
-0.522932
-0.534582
-0.54485
-0.553809
-0.561519
-0.568032
-0.573393
-0.577639
-0.580797
-0.58289
-0.583932
-0.524368
-0.54843
-0.570595
-0.590915
-0.609474
-0.626362
-0.641667
-0.655473
-0.667855
-0.678885
-0.688626
-0.697137
-0.704469
-0.71067
-0.715776
-0.719822
-0.722833
-0.724829
-0.725823
-0.682817
-0.704575
-0.724719
-0.743282
-0.760322
-0.7759
-0.790079
-0.802917
-0.814468
-0.824786
-0.833919
-0.841913
-0.848811
-0.854651
-0.859465
-0.863282
-0.866124
-0.868009
-0.868949
-0.843266
-0.862725
-0.880822
-0.897578
-0.91303
-0.927221
-0.940191
-0.951979
-0.962622
-0.972156
-0.980616
-0.988038
-0.994453
-0.999891
-1.00438
-1.00794
-1.0106
-1.01236
-1.01324
-1.00539
-1.02256
-1.0386
-1.05352
-1.06735
-1.0801
-1.0918
-1.10248
-1.11216
-1.12086
-1.12859
-1.1354
-1.14129
-1.1463
-1.15044
-1.15372
-1.15618
-1.15781
-1.15862
-1.16891
-1.1838
-1.19779
-1.21086
-1.22303
-1.23431
-1.24472
-1.25425
-1.26292
-1.27074
-1.27772
-1.28388
-1.28922
-1.29377
-1.29754
-1.30053
-1.30277
-1.30426
-1.305
-1.33354
-1.34618
-1.35811
-1.36934
-1.37985
-1.38965
-1.39874
-1.4071
-1.41475
-1.42167
-1.42787
-1.43335
-1.43813
-1.4422
-1.44558
-1.44828
-1.45029
-1.45163
-1.4523
-1.49902
-1.50943
-1.51933
-1.52872
-1.53759
-1.54591
-1.55367
-1.56087
-1.56747
-1.57349
-1.5789
-1.5837
-1.5879
-1.59149
-1.59447
-1.59686
-1.59864
-1.59983
-1.60042
-1.6651
-1.6733
-1.68121
-1.68879
-1.69603
-1.70288
-1.70934
-1.71537
-1.72094
-1.72605
-1.73067
-1.73479
-1.73841
-1.74151
-1.7441
-1.74617
-1.74772
-1.74875
-1.74927
-1.83152
-1.83755
-1.8435
-1.84932
-1.85496
-1.86038
-1.86556
-1.87044
-1.875
-1.87922
-1.88306
-1.88651
-1.88955
-1.89216
-1.89436
-1.89611
-1.89743
-1.89831
-1.89875
-1.998
-2.00194
-2.00598
-2.01009
-2.01418
-2.01822
-2.02215
-2.02592
-2.0295
-2.03285
-2.03593
-2.03872
-2.04119
-2.04334
-2.04514
-2.04659
-2.04768
-2.04841
-2.04878
-2.16428
-2.1662
-2.16843
-2.17089
-2.17351
-2.17621
-2.17895
-2.18166
-2.18429
-2.1868
-2.18915
-2.19131
-2.19324
-2.19492
-2.19635
-2.1975
-2.19838
-2.19896
-2.19925
-2.33008
-2.33009
-2.33061
-2.33152
-2.33274
-2.33419
-2.3358
-2.33751
-2.33924
-2.34096
-2.34261
-2.34416
-2.34557
-2.34682
-2.34789
-2.34876
-2.34942
-2.34987
-2.35009
-2.49515
-2.49339
-2.49231
-2.49178
-2.49171
-2.492
-2.49256
-2.49332
-2.49422
-2.4952
-2.49619
-2.49717
-2.4981
-2.49893
-2.49966
-2.50027
-2.50073
-2.50104
-2.5012
-2.65924
-2.65588
-2.65335
-2.65151
-2.65026
-2.64948
-2.64908
-2.64898
-2.64911
-2.6494
-2.64979
-2.65024
-2.65071
-2.65117
-2.65158
-2.65194
-2.65222
-2.65241
-2.65251
-2.82213
-2.81736
-2.81355
-2.81056
-2.80825
-2.80651
-2.80525
-2.80437
-2.8038
-2.80347
-2.80331
-2.80328
-2.80334
-2.80345
-2.80357
-2.8037
-2.80381
-2.80389
-2.80393
-2.98364
-2.97767
-2.97277
-2.96877
-2.96555
-2.96298
-2.96095
-2.95939
-2.9582
-2.95731
-2.95667
-2.95621
-2.95589
-2.95569
-2.95556
-2.95548
-2.95544
-2.95542
-2.95541
-3.14364
-3.13669
-3.13088
-3.12605
-3.12206
-3.11878
-3.11611
-3.11395
-3.11223
-3.11086
-3.10979
-3.10895
-3.10831
-3.10783
-3.10747
-3.10721
-3.10704
-3.10693
-3.10688
-3.30203
-3.29433
-3.28782
-3.28232
-3.2777
-3.27384
-3.27064
-3.26799
-3.26581
-3.26404
-3.2626
-3.26145
-3.26053
-3.25981
-3.25926
-3.25885
-3.25855
-3.25837
-3.25828
-3.45877
-3.45055
-3.44351
-3.43751
-3.43242
-3.42811
-3.42448
-3.42144
-3.4189
-3.4168
-3.41507
-3.41365
-3.4125
-3.41158
-3.41087
-3.41033
-3.40994
-3.40969
-3.40956
-3.61386
-3.60531
-3.59794
-3.5916
-3.58618
-3.58155
-3.57761
-3.57427
-3.57146
-3.5691
-3.56714
-3.56551
-3.56418
-3.56311
-3.56226
-3.56162
-3.56115
-3.56085
-3.5607
-3.76731
-3.75864
-3.7511
-3.74459
-3.73897
-3.73413
-3.72999
-3.72646
-3.72346
-3.72092
-3.71878
-3.71701
-3.71554
-3.71435
-3.71341
-3.71269
-3.71216
-3.71182
-3.71165
-3.9192
-3.91057
-3.90304
-3.89648
-3.89079
-3.88587
-3.88163
-3.87799
-3.87488
-3.87223
-3.86999
-3.86812
-3.86656
-3.8653
-3.86429
-3.86351
-3.86294
-3.86257
-3.86239
-4.06959
-4.06117
-4.05378
-4.04732
-4.04168
-4.03678
-4.03254
-4.02888
-4.02573
-4.02304
-4.02075
-4.01883
-4.01723
-4.01592
-4.01488
-4.01407
-4.01348
-4.01309
-4.0129
-4.21859
-4.21051
-4.2034
-4.19714
-4.19167
-4.18689
-4.18273
-4.17912
-4.17601
-4.17334
-4.17107
-4.16915
-4.16754
-4.16623
-4.16517
-4.16436
-4.16376
-4.16337
-4.16318
-4.3663
-4.35869
-4.35196
-4.34602
-4.3408
-4.33623
-4.33223
-4.32876
-4.32575
-4.32316
-4.32095
-4.31907
-4.3175
-4.31621
-4.31518
-4.31438
-4.31379
-4.3134
-4.31321
-4.51285
-4.50581
-4.49956
-4.49403
-4.48915
-4.48486
-4.4811
-4.47782
-4.47497
-4.47251
-4.47041
-4.46862
-4.46712
-4.46589
-4.4649
-4.46413
-4.46356
-4.46319
-4.46301
-4.65836
-4.65197
-4.64629
-4.64124
-4.63677
-4.63284
-4.62938
-4.62635
-4.62372
-4.62144
-4.61948
-4.61782
-4.61642
-4.61527
-4.61434
-4.61362
-4.61309
-4.61275
-4.61257
-4.80294
-4.79729
-4.79223
-4.78774
-4.78375
-4.78022
-4.77712
-4.7744
-4.77202
-4.76996
-4.76819
-4.76669
-4.76542
-4.76437
-4.76353
-4.76288
-4.76239
-4.76208
-4.76192
-4.94674
-4.94187
-4.93751
-4.93361
-4.93016
-4.92709
-4.92439
-4.92201
-4.91994
-4.91814
-4.91658
-4.91526
-4.91415
-4.91323
-4.91249
-4.91191
-4.91149
-4.91121
-4.91107
-5.08988
-5.08583
-5.0822
-5.07896
-5.07608
-5.07352
-5.07125
-5.06926
-5.06752
-5.066
-5.0647
-5.06358
-5.06265
-5.06187
-5.06125
-5.06076
-5.0604
-5.06016
-5.06005
-5.23247
-5.22929
-5.22643
-5.22388
-5.2216
-5.21958
-5.21778
-5.2162
-5.21482
-5.21362
-5.21258
-5.21169
-5.21095
-5.21033
-5.20983
-5.20944
-5.20916
-5.20897
-5.20887
-5.37465
-5.37236
-5.3703
-5.36846
-5.36681
-5.36535
-5.36405
-5.36291
-5.3619
-5.36103
-5.36028
-5.35963
-5.35909
-5.35864
-5.35828
-5.358
-5.35779
-5.35765
-5.35758
-5.51653
-5.51515
-5.51391
-5.51279
-5.5118
-5.51091
-5.51013
-5.50943
-5.50883
-5.5083
-5.50784
-5.50745
-5.50712
-5.50685
-5.50663
-5.50645
-5.50633
-5.50624
-5.5062
-5.65824
-5.65778
-5.65736
-5.65699
-5.65665
-5.65636
-5.65609
-5.65586
-5.65565
-5.65548
-5.65532
-5.65519
-5.65508
-5.65499
-5.65492
-5.65486
-5.65481
-5.65479
-5.65477
)
;

boundaryField
{
    leftWall
    {
        type            calculated;
        value           nonuniform List<scalar> 
50
(
1133.23
1076.45
1021.76
969.146
918.591
870.073
823.56
778.993
712.348
630.149
555.889
489.017
428.951
375.094
326.854
283.651
244.925
210.145
178.808
150.448
124.627
100.957
79.185
58.3636
36.4799
26.6382
46.3848
-4.30223
-4.3401
-4.36273
-4.39214
-4.42614
-4.46503
-4.50882
-4.55746
-4.61084
-4.66873
-4.73083
-4.79684
-4.86647
-4.93941
-5.01532
-5.09384
-5.17463
-5.25733
-5.34162
-5.4272
-5.51379
-5.6011
-5.68817
)
;
    }
    rightWall
    {
        type            calculated;
        value           nonuniform List<scalar> 
50
(
0.887879
0.828706
0.769212
0.709398
0.649262
0.588806
0.528029
0.466929
0.370896
0.238795
0.105238
-0.0297713
-0.166219
-0.304084
-0.443335
-0.583932
-0.725823
-0.868949
-1.01324
-1.15862
-1.305
-1.4523
-1.60042
-1.74927
-1.89875
-2.04878
-2.19925
-2.35009
-2.5012
-2.65251
-2.80393
-2.95541
-3.10688
-3.25828
-3.40956
-3.5607
-3.71165
-3.86239
-4.0129
-4.16318
-4.31321
-4.46301
-4.61257
-4.76192
-4.91107
-5.06005
-5.20887
-5.35758
-5.5062
-5.65477
)
;
    }
    lowerWall
    {
        type            calculated;
        value           nonuniform List<scalar> 
62
(
1162.66
1152.8
1132.59
1101.83
1059.98
1006.21
939.387
857.832
759.191
638.772
497.463
305.653
64.3163
7.5243
3.20841
2.86401
2.63573
2.43013
2.28855
2.18309
2.1056
2.05399
2.02792
1.99849
1.93322
1.86091
1.78151
1.69467
1.59973
1.49543
1.38076
1.04103
0.925791
0.82497
0.734026
1.03387
0.976111
0.919519
0.864193
0.810291
0.758048
0.707542
0.659647
1.0633
1.05905
1.05119
1.04087
1.02904
1.01651
1.00386
0.991505
0.979731
0.968737
0.958661
0.949591
0.941585
0.934682
0.928906
0.924272
0.920792
0.91847
0.917309
)
;
    }
    atmosphere
    {
        type            calculated;
        value           nonuniform List<scalar> 
46
(
-5.73131
-5.73129
-5.73122
-5.73113
-5.73101
-5.73086
-5.73069
-5.73051
-5.73032
-5.73013
-5.72994
-5.72976
-5.7296
-5.72945
-5.72932
-5.72922
-5.72914
-5.72908
-5.72905
-5.72904
-5.72904
-5.72904
-5.72904
-5.72904
-5.72904
-5.72904
-5.72904
-5.72904
-5.72904
-5.72904
-5.72904
-5.72904
-5.72904
-5.72904
-5.72904
-5.72904
-5.72904
-5.72904
-5.72904
-5.72904
-5.72904
-5.72904
-5.72904
-5.72904
-5.72904
-5.72904
)
;
    }
    defaultFaces
    {
        type            empty;
    }
}


// ************************************************************************* //
