/*--------------------------------*- C++ -*----------------------------------*\
| =========                 |                                                 |
| \\      /  F ield         | OpenFOAM: The Open Source CFD Toolbox           |
|  \\    /   O peration     | Version:  2206                                  |
|   \\  /    A nd           | Website:  www.openfoam.com                      |
|    \\/     M anipulation  |                                                 |
\*---------------------------------------------------------------------------*/
FoamFile
{
    version     2.0;
    format      ascii;
    arch        "LSB;label=32;scalar=64";
    class       volScalarField;
    location    "0.025";
    object      p_rgh;
}
// * * * * * * * * * * * * * * * * * * * * * * * * * * * * * * * * * * * * * //

dimensions      [1 -1 -2 0 0 0 0];

internalField   nonuniform List<scalar> 
2268
(
1162.66
1152.8
1132.59
1101.83
1059.98
1006.21
939.387
857.832
759.191
638.772
497.463
305.653
64.3163
7.5243
3.20841
2.86401
2.63573
2.43013
2.28855
2.18309
2.1056
2.05399
2.02792
1164.74
1154.91
1134.76
1104.11
1062.41
1008.86
942.325
861.186
763.149
643.668
504.321
310.87
57.8361
4.40472
2.92898
2.83602
2.60905
2.41651
2.27987
2.17619
2.09936
2.04779
2.0215
1168.91
1159.14
1139.12
1108.68
1067.28
1014.15
948.205
867.895
771.061
653.498
517.305
323.706
55.8716
3.19385
2.74558
2.73316
2.55133
2.38892
2.26201
2.16212
2.08664
2.03499
2.00805
1175.15
1165.47
1145.65
1115.51
1074.56
1022.06
956.984
877.895
782.821
668.037
535.97
346.712
64.2026
2.9757
2.66512
2.62707
2.48841
2.353
2.23695
2.1418
2.06789
2.01581
1.98751
1183.46
1173.89
1154.33
1124.59
1084.23
1032.55
968.599
891.086
798.266
686.954
559.818
378.373
72.2723
2.77187
2.59779
2.54026
2.42799
2.31221
2.20643
2.11615
2.04359
1.99037
1.95953
1193.8
1184.37
1165.12
1135.88
1096.23
1045.55
982.965
907.342
817.189
709.879
588.297
416.767
78.6135
2.61744
2.5307
2.46654
2.36991
2.26873
2.1719
2.08604
2.01431
1.95893
1.92345
1206.14
1196.89
1178
1149.34
1110.52
1060.98
999.975
926.505
839.345
736.404
620.768
460.046
83.5944
2.51706
2.46487
2.39994
2.31426
2.22392
2.13451
2.0524
1.9808
1.92185
1.87801
1220.43
1211.37
1192.89
1164.89
1127
1078.75
1019.47
948.362
864.428
766.08
656.452
506.711
87.5251
2.45413
2.40095
2.33857
2.26092
2.1786
2.09522
2.01615
1.94399
1.87993
1.8222
1.0633
1.05905
1.05119
1.04087
1.02904
1.01651
1.00386
0.991505
0.979731
0.968737
0.958661
0.949591
0.941585
0.934682
0.928906
0.924272
0.920792
0.91847
0.917309
1.0644
1.05997
1.05184
1.04126
1.02923
1.01654
1.00378
0.99135
0.979522
0.968493
0.958392
0.949306
0.941289
0.934379
0.928598
0.923962
0.920479
0.918156
0.916994
1.06667
1.06183
1.05314
1.04204
1.02959
1.0166
1.00362
0.991034
0.979101
0.968
0.95785
0.94873
0.940692
0.933767
0.927977
0.923334
0.919848
0.917522
0.916359
1.0702
1.06468
1.0551
1.04319
1.03011
1.01665
1.00335
0.990542
0.978456
0.967251
0.957029
0.947861
0.939789
0.932843
0.927039
0.922388
0.918896
0.916568
0.915403
1.07516
1.06856
1.05768
1.04465
1.03072
1.01668
1.00296
0.989856
0.977574
0.966235
0.955922
0.946692
0.93858
0.931606
0.925785
0.921122
0.917624
0.915293
0.914127
1.08177
1.07354
1.06084
1.04635
1.03137
1.01661
1.00239
0.98895
0.976437
0.96494
0.954522
0.94522
0.937059
0.930054
0.924212
0.919537
0.916032
0.913697
0.912529
1.09012
1.07963
1.06448
1.04817
1.03197
1.01638
1.00161
0.987792
0.975023
0.963353
0.952817
0.943437
0.935223
0.928184
0.922319
0.917631
0.914118
0.911779
0.91061
1.10109
1.08697
1.06844
1.04995
1.03238
1.01592
1.00056
0.98635
0.973312
0.961459
0.950799
0.941335
0.933066
0.925991
0.920104
0.915403
0.911882
0.90954
0.90837
1245.81
1237.07
1219.31
1192.44
1156.16
1110.1
1053.78
986.631
908.03
817.107
716.323
583.6
93.2596
2.38848
2.30548
2.2498
2.18088
2.10782
2.03203
1.95678
1.8829
1.8067
1.71085
1288.81
1280.6
1263.98
1238.88
1205.11
1162.46
1110.63
1049.35
978.395
897.506
809.16
695.539
96.6617
2.25721
2.19145
2.14062
2.07914
2.01403
1.94532
1.87453
1.80163
1.72394
1.63849
1339.74
1332.11
1316.73
1293.56
1262.5
1223.44
1176.27
1120.95
1057.53
986.138
909.186
811.484
97.9066
2.15619
2.0888
2.03971
1.98329
1.92375
1.86064
1.7948
1.72633
1.65439
1.57813
1398.07
1391.05
1376.96
1355.79
1327.5
1292.09
1249.58
1200.07
1143.81
1081.13
1014.27
929.957
97.3484
2.0601
1.99339
1.94509
1.89217
1.83693
1.77869
1.71789
1.65473
1.58905
1.52074
1463.2
1456.8
1444.02
1424.85
1399.32
1367.5
1329.49
1285.5
1235.88
1181.06
1123.04
1050.13
95.4053
1.96227
1.90085
1.85415
1.80438
1.75297
1.69917
1.64326
1.58546
1.52593
1.46504
1534.53
1528.76
1517.26
1500.06
1477.21
1448.83
1415.09
1376.25
1332.7
1284.9
1234.62
1171.51
92.4473
1.86419
1.80957
1.76538
1.71891
1.67117
1.62159
1.57034
1.51768
1.46391
1.40952
1611.49
1606.32
1596.06
1580.74
1560.45
1535.33
1505.57
1471.47
1433.42
1391.88
1348.37
1293.76
88.7638
1.76687
1.71921
1.67814
1.63512
1.59103
1.54547
1.49864
1.4508
1.40228
1.35358
1693.48
1688.89
1679.82
1666.28
1648.39
1626.3
1600.23
1570.46
1537.37
1501.4
1463.85
1416.67
84.5908
1.67098
1.62988
1.59221
1.5527
1.51217
1.47044
1.42775
1.38438
1.34065
1.297
1779.95
1775.91
1767.94
1756.08
1740.43
1721.14
1698.45
1672.61
1643.99
1612.98
1580.7
1540.06
80.1267
1.57719
1.54191
1.50763
1.47151
1.43436
1.39622
1.35739
1.31814
1.27878
1.23969
1870.36
1866.83
1859.9
1849.59
1836.01
1819.31
1799.7
1777.43
1752.84
1726.26
1698.67
1663.83
75.548
1.48608
1.45568
1.42455
1.39151
1.35744
1.32257
1.28728
1.25184
1.21651
1.1816
1964.22
1961.17
1955.19
1946.31
1934.64
1920.31
1903.51
1884.5
1863.54
1840.95
1817.56
1787.88
71.0256
1.39818
1.37164
1.34313
1.31266
1.28123
1.24925
1.21718
1.18525
1.15367
1.12268
2061.05
2058.45
2053.36
2045.8
2035.87
2023.71
2009.5
1993.43
1975.78
1956.81
1937.21
1912.16
66.7519
1.3142
1.29028
1.26356
1.23489
1.2055
1.17597
1.14678
1.11812
1.09012
1.06287
2160.43
2158.23
2153.96
2147.62
2139.3
2129.13
2117.27
2103.9
2089.27
2073.59
2057.47
2036.61
62.962
1.23526
1.21221
1.18593
1.15799
1.12988
1.10234
1.07576
1.05021
1.02567
1.00209
2261.95
2260.13
2256.61
2251.4
2244.56
2236.22
2226.51
2215.62
2203.74
2191.09
2178.2
2161.19
60.0624
1.16344
1.13806
1.1101
1.0814
1.05372
1.02774
1.00362
0.981177
0.960159
0.940299
2365.38
2363.9
2361.08
2356.91
2351.44
2344.78
2337.05
2328.42
2319.1
2309.27
2299.5
2285.92
59.2833
1.10183
1.06807
1.03527
1.00394
0.975825
0.951203
0.929675
0.910603
0.893362
0.877428
2469.75
2468.59
2466.41
2463.2
2458.98
2453.85
2447.9
2441.28
2434.2
2426.96
2420.42
2410.58
61.5866
1.0475
1.00034
0.959216
0.92337
0.894346
0.871405
0.853101
0.838041
0.825108
0.813485
2573.01
2572.16
2570.58
2568.22
2565.13
2561.37
2556.99
2552.09
2546.77
2541.46
2537.57
2532.98
67.609
1.01578
0.933422
0.878345
0.836106
0.80657
0.786675
0.773025
0.76314
0.755349
0.748596
2687.58
2687.07
2686.17
2684.82
2683.06
2680.9
2678.39
2675.58
2672.34
2669.08
2666
2654.53
302.867
1.07618
0.859596
0.784021
0.735577
0.708531
0.695175
0.688782
0.68584
0.684307
0.683094
2310.62
2308.9
2305.62
2300.69
2294.03
2285.55
2275.01
2261.74
2246.69
2216.08
2202.04
1488.61
494.963
3.23631
0.776754
0.672585
0.611273
0.595769
0.595552
0.600517
0.606754
0.61267
0.617614
-1.39006
-1.38466
-1.37703
-1.3655
-1.35021
-1.33144
-1.30989
-1.28629
-1.26434
-1.25879
-1.24648
-1.3056
-2.04379
6.75562
0.631277
0.377884
0.430407
0.463842
0.489316
0.510243
0.527547
0.541709
0.553122
-1.30274
-1.29843
-1.29038
-1.27834
-1.26224
-1.24215
-1.2182
-1.19035
-1.16098
-1.12882
-1.07972
-1.08905
-1.16265
-0.37012
-0.0851936
0.126081
0.25831
0.335107
0.385902
0.422799
0.451036
0.473223
0.490848
-1.20017
-1.19579
-1.18714
-1.17412
-1.15663
-1.13448
-1.10742
-1.07499
-1.03719
-0.989774
-0.928982
-0.868549
-0.742975
-0.464968
-0.186975
0.00581257
0.139178
0.230621
0.295488
0.343485
0.380248
0.409087
0.432039
-1.1044
-1.0999
-1.09085
-1.07715
-1.0586
-1.03489
-1.0055
-0.96965
-0.926124
-0.871462
-0.804451
-0.719042
-0.586767
-0.399246
-0.210265
-0.0572623
0.061605
0.152301
0.221557
0.275108
0.317174
0.350693
0.377688
-1.0132
-1.00859
-0.999271
-0.985129
-0.965904
-0.941197
-0.910413
-0.872647
-0.826495
-0.769618
-0.700082
-0.611899
-0.497122
-0.359189
-0.21914
-0.0946201
0.00962597
0.0945144
0.162902
0.217961
0.262488
0.298721
0.328379
-0.926899
-0.922233
-0.912832
-0.898533
-0.879071
-0.854043
-0.822882
-0.784755
-0.738502
-0.682598
-0.615378
-0.533877
-0.436612
-0.327906
-0.217758
-0.115243
-0.0248715
0.0523158
0.117121
0.171101
0.215955
0.253245
0.284302
-0.845485
-0.840875
-0.831566
-0.817393
-0.798124
-0.77341
-0.742766
-0.705538
-0.660894
-0.607891
-0.545558
-0.472914
-0.390441
-0.30143
-0.211358
-0.125577
-0.0473546
0.02181
0.0817731
0.133144
0.17686
0.213937
0.245339
-0.768933
-0.764453
-0.755392
-0.741614
-0.722921
-0.699047
-0.669615
-0.634173
-0.592186
-0.543147
-0.486674
-0.422724
-0.352261
-0.277666
-0.20228
-0.129439
-0.0615449
5.96686e-06
0.0547049
0.102651
0.144293
0.180247
0.211171
-0.697125
-0.692827
-0.684135
-0.670963
-0.653161
-0.630528
-0.602801
-0.569696
-0.530925
-0.486285
-0.435758
-0.379686
-0.319053
-0.255593
-0.191513
-0.129044
-0.0699009
-0.015304
0.0341479
0.0783038
0.117319
0.151532
0.181371
-0.629813
-0.62574
-0.617538
-0.605144
-0.588454
-0.567327
-0.541609
-0.511145
-0.475822
-0.435632
-0.390753
-0.34165
-0.2892
-0.234692
-0.179664
-0.125647
-0.0740488
-0.0257282
0.0187001
0.0589691
0.0950646
0.127143
0.155464
-0.56672
-0.562912
-0.55528
-0.543783
-0.528353
-0.508901
-0.485353
-0.45765
-0.4258
-0.389911
-0.350246
-0.307285
-0.261771
-0.214686
-0.167155
-0.120306
-0.0751667
-0.0324544
0.0072656
0.0437027
0.0767551
0.106465
0.132977
-0.507534
-0.504035
-0.497033
-0.486508
-0.472415
-0.454717
-0.433395
-0.408459
-0.379992
-0.34816
-0.313253
-0.27572
-0.236178
-0.195393
-0.15421
-0.113477
-0.0739608
-0.0363356
-0.00100228
0.0317338
0.061725
0.0889452
0.11346
-0.451971
-0.4488
-0.442459
-0.432934
-0.420208
-0.40428
-0.38517
-0.362937
-0.337699
-0.309646
-0.279064
-0.246355
-0.21203
-0.176694
-0.141
-0.105604
-0.071109
-0.0380406
-0.00676707
0.0224367
0.0494116
0.0740946
0.0965008
-0.399719
-0.39688
-0.391204
-0.382679
-0.371316
-0.357133
-0.34018
-0.32054
-0.298346
-0.273793
-0.247148
-0.218759
-0.189051
-0.158505
-0.127636
-0.0969589
-0.0669533
-0.0380366
-0.0105391
0.0153074
0.0393443
0.0614905
0.0817304
-0.350432
-0.347926
-0.342902
-0.335364
-0.325335
-0.312849
-0.29797
-0.280794
-0.261457
-0.240143
-0.217094
-0.192607
-0.167032
-0.140757
-0.114193
-0.0877476
-0.0618056
-0.0367034
-0.0127231
0.00993761
0.0311303
0.0507683
0.0688188
-0.303762
-0.301576
-0.297189
-0.290613
-0.281877
-0.271026
-0.258131
-0.243289
-0.226629
-0.208321
-0.188575
-0.167643
-0.145811
-0.123394
-0.100721
-0.0781197
-0.0558971
-0.0343262
-0.0136391
0.00599491
0.0244403
0.0416134
0.0574737
-0.259352
-0.257473
-0.253705
-0.248062
-0.240575
-0.231297
-0.220296
-0.207663
-0.193518
-0.17801
-0.16132
-0.143655
-0.125252
-0.106363
-0.0872547
-0.0681862
-0.0494026
-0.031123
-0.0135345
0.00320687
0.0189956
0.0337526
0.0474349
-0.216858
-0.215277
-0.212109
-0.207369
-0.20109
-0.193323
-0.184131
-0.173595
-0.161822
-0.14894
-0.135099
-0.120469
-0.105242
-0.0896202
-0.0738144
-0.0580296
-0.0424589
-0.0272766
-0.0126343
0.00134032
0.0145566
0.0269466
0.0384703
-0.175955
-0.174666
-0.172081
-0.168216
-0.163107
-0.156793
-0.149332
-0.140796
-0.131275
-0.120874
-0.109714
-0.0979332
-0.0856814
-0.0731194
-0.0604098
-0.0477112
-0.0351731
-0.0229317
-0.0111069
0.00020016
0.010916
0.0209845
0.0303722
-0.136342
-0.135335
-0.133316
-0.130305
-0.126327
-0.121418
-0.115625
-0.109008
-0.10164
-0.0936034
-0.0849923
-0.0759128
-0.0664805
-0.0568165
-0.0470426
-0.037277
-0.0276317
-0.0182093
-0.00910051
-0.000381787
0.00789286
0.0156798
0.0229536
-0.0977383
-0.097006
-0.0955429
-0.0933631
-0.0904862
-0.0869404
-0.0827634
-0.0780012
-0.0727076
-0.0669434
-0.0607776
-0.0542873
-0.0475555
-0.0406678
-0.0337095
-0.0267633
-0.0199073
-0.0132132
-0.00674396
-0.000552554
0.00532709
0.0108646
0.016044
-0.0598512
-0.059393
-0.0584776
-0.0571137
-0.0553156
-0.0531037
-0.0505043
-0.0475485
-0.0442716
-0.0407137
-0.0369199
-0.0329396
-0.028825
-0.024629
-0.0204037
-0.016199
-0.0120615
-0.00803315
-0.00414968
-0.0004387
0.00307423
0.00638486
0.00948466
-0.021726
-0.0215522
-0.0211966
-0.0206664
-0.0199695
-0.019116
-0.0181184
-0.0169912
-0.015751
-0.0144158
-0.0130055
-0.011541
-0.0100434
-0.00853334
-0.00703057
-0.00555309
-0.00411688
-0.00273525
-0.001418
-0.000170511
0.000994644
0.00209302
0.0031235
1.5119
1.39666
1.29584
1.2049
1.50574
1.38711
1.28932
1.20408
1.47433
1.36692
1.27553
1.19621
1.43412
1.33919
1.2554
1.18215
1.38999
1.30592
1.22985
1.16255
1.34331
1.26853
1.1998
1.13825
1.29468
1.22798
1.16604
1.11001
1.24444
1.18489
1.12924
1.07849
1.1928
1.13971
1.08991
1.0442
1.13989
1.09275
1.04845
1.00759
1.08582
1.04428
1.0052
0.969025
1.03065
0.994485
0.96045
0.928833
0.97443
0.94353
0.914432
0.887293
0.917231
0.891585
0.867381
0.84467
0.85913
0.838829
0.819534
0.801223
0.800269
0.78548
0.771142
0.757215
0.740883
0.731818
0.722489
0.712919
0.681346
0.678194
0.673899
0.668626
0.622181
0.625052
0.62574
0.624644
0.564099
0.572892
0.578387
0.581294
0.507914
0.52227
0.532254
0.538877
0.454432
0.473726
0.487725
0.497688
0.404328
0.427722
0.445137
0.457986
0.358057
0.384598
0.404752
0.419981
0.315842
0.34456
0.366745
0.383824
0.277695
0.307677
0.331207
0.349607
0.243474
0.273909
0.298148
0.317368
0.212931
0.243132
0.267514
0.287094
0.185758
0.215163
0.239201
0.258729
0.16162
0.189783
0.213071
0.232188
0.140179
0.166755
0.18896
0.207361
0.121111
0.145838
0.166692
0.18412
0.104108
0.126795
0.146084
0.162327
0.0888885
0.109393
0.126953
0.141837
0.0751919
0.0934143
0.109117
0.122504
0.0627804
0.0786515
0.0924006
0.10418
0.0514369
0.0649104
0.0766347
0.0867215
0.0409629
0.0520096
0.0616572
0.0699857
0.0311763
0.0397785
0.0473128
0.0538345
0.0219078
0.0280558
0.033452
0.0381322
0.0129979
0.0166871
0.0199299
0.0227462
0.00429279
0.00552234
0.00660442
0.00754527
1.13235
1.10043
1.0747
1.05237
1.03262
1.01473
0.998434
0.983596
0.970131
0.957988
0.947132
0.937537
0.929183
0.922053
0.916133
0.911412
0.907882
0.905534
0.904363
1.14296
1.1068
1.07748
1.05242
1.0305
1.01108
0.993724
0.978145
0.964168
0.951676
0.940586
0.930838
0.922388
0.915201
0.909249
0.904514
0.900977
0.898628
0.897457
1.14104
1.10499
1.07449
1.04816
1.02513
1.00482
0.986772
0.97069
0.956359
0.943626
0.932379
0.922535
0.914032
0.906821
0.900863
0.896131
0.892603
0.890261
0.889094
1.13112
1.09642
1.06616
1.03966
1.01632
0.995677
0.977345
0.961043
0.946559
0.933731
0.922435
0.912576
0.904081
0.896891
0.890963
0.886261
0.882759
0.880436
0.879279
1.11514
1.08227
1.05306
1.02713
1.0041
0.983604
0.965359
0.94912
0.934697
0.921935
0.910712
0.900932
0.892518
0.885406
0.87955
0.874909
0.871455
0.869166
0.868026
1.09436
1.06355
1.03582
1.01093
0.988635
0.968681
0.95084
0.934922
0.920762
0.908227
0.897205
0.887604
0.879348
0.872375
0.866636
0.862092
0.858711
0.856471
0.855356
1.06961
1.04099
1.01498
0.991444
0.970201
0.951073
0.933894
0.918513
0.9048
0.892642
0.881942
0.872616
0.864596
0.857824
0.85225
0.847838
0.844556
0.842382
0.841299
1.04154
1.01518
0.991047
0.969053
0.949077
0.930991
0.914672
0.900008
0.886897
0.875247
0.864979
0.85602
0.84831
0.841797
0.836435
0.83219
0.829032
0.826939
0.825897
1.01066
0.986593
0.964429
0.944109
0.92555
0.908661
0.893356
0.87955
0.867168
0.856139
0.846398
0.837887
0.830554
0.824354
0.819247
0.815201
0.81219
0.810194
0.8092
0.977401
0.955643
0.935499
0.916936
0.899896
0.884318
0.870139
0.857301
0.845749
0.835432
0.826299
0.818304
0.811407
0.805567
0.800753
0.796936
0.794093
0.792208
0.791269
0.942146
0.922687
0.90459
0.887834
0.872382
0.858191
0.845221
0.833433
0.82279
0.813256
0.804796
0.797375
0.79096
0.785521
0.781032
0.777469
0.774813
0.773051
0.772173
0.905213
0.888043
0.872004
0.857084
0.84326
0.830508
0.818803
0.808123
0.798447
0.789751
0.782012
0.775208
0.769314
0.764309
0.760171
0.756883
0.75443
0.752801
0.75199
0.866893
0.851998
0.838015
0.824943
0.812771
0.801488
0.791084
0.781551
0.772879
0.765059
0.758078
0.751923
0.746578
0.74203
0.738264
0.735268
0.73303
0.731543
0.730803
0.827458
0.814819
0.802885
0.79166
0.781146
0.771344
0.762258
0.753893
0.746249
0.739327
0.733126
0.727641
0.722866
0.718792
0.715412
0.712719
0.710705
0.709367
0.7087
0.787169
0.776765
0.766859
0.757468
0.748604
0.740282
0.732517
0.725324
0.718716
0.712703
0.707292
0.702488
0.698292
0.694703
0.691718
0.689335
0.687552
0.686365
0.685774
0.746284
0.738084
0.730178
0.722595
0.71536
0.708501
0.702045
0.696017
0.69044
0.685333
0.680713
0.67659
0.672975
0.669873
0.667287
0.665217
0.663666
0.662633
0.662118
0.705063
0.699025
0.693078
0.687263
0.681622
0.676196
0.671023
0.666139
0.661575
0.657361
0.65352
0.650072
0.647034
0.644415
0.642224
0.640467
0.639147
0.638267
0.637827
0.663773
0.659838
0.65579
0.651688
0.647591
0.643554
0.639625
0.635851
0.632272
0.628927
0.625846
0.623057
0.620582
0.618436
0.616634
0.615183
0.61409
0.61336
0.612995
0.622686
0.620772
0.618542
0.616081
0.613463
0.610755
0.608018
0.605308
0.602675
0.600165
0.597816
0.595663
0.593732
0.592045
0.590618
0.589464
0.588591
0.588006
0.587714
0.582079
0.582076
0.581557
0.580646
0.579423
0.57797
0.576359
0.574657
0.572921
0.571203
0.569551
0.568003
0.566592
0.565342
0.564274
0.563403
0.562741
0.562295
0.562072
0.542205
0.543969
0.54505
0.545575
0.545649
0.54536
0.544798
0.544036
0.543137
0.542162
0.541164
0.540185
0.539262
0.538425
0.537695
0.537091
0.536628
0.536313
0.536155
0.503312
0.506677
0.509206
0.511038
0.512292
0.513073
0.513472
0.513572
0.513445
0.513153
0.51276
0.512308
0.511839
0.511383
0.510968
0.510613
0.510333
0.510141
0.510043
0.465618
0.470391
0.474199
0.477192
0.4795
0.481236
0.482498
0.483376
0.483947
0.48428
0.484435
0.484464
0.484409
0.4843
0.484173
0.484045
0.483934
0.483854
0.483812
0.429301
0.435271
0.440175
0.44417
0.447394
0.449965
0.451987
0.453551
0.454741
0.455628
0.456274
0.456732
0.457047
0.457254
0.457383
0.45746
0.457501
0.457522
0.45753
0.394498
0.401443
0.407251
0.412083
0.416078
0.419357
0.422027
0.424183
0.425908
0.427276
0.42835
0.429185
0.429824
0.430307
0.430664
0.430921
0.431097
0.431206
0.431259
0.361299
0.368995
0.375514
0.381013
0.385631
0.389489
0.392694
0.395342
0.397517
0.399291
0.400728
0.401883
0.4028
0.403519
0.404072
0.404484
0.404776
0.404962
0.405053
0.329752
0.337979
0.345016
0.351014
0.356108
0.360416
0.364043
0.367084
0.36962
0.371724
0.373459
0.374877
0.376025
0.37694
0.377656
0.378198
0.378586
0.378837
0.378961
0.299862
0.308411
0.315782
0.322117
0.327543
0.332174
0.336111
0.339446
0.342258
0.344617
0.346583
0.348208
0.349538
0.35061
0.351456
0.352102
0.352568
0.352871
0.35302
0.271601
0.280278
0.287809
0.294326
0.299948
0.30478
0.30892
0.312454
0.315457
0.317996
0.320129
0.321906
0.323371
0.324559
0.325503
0.326228
0.326754
0.327096
0.327265
0.244911
0.253539
0.261072
0.267628
0.273315
0.278234
0.282474
0.286115
0.289229
0.291878
0.294116
0.295991
0.297544
0.298811
0.299821
0.3006
0.301167
0.301536
0.301719
0.219714
0.228134
0.235523
0.241986
0.247622
0.252521
0.256765
0.260428
0.263576
0.266266
0.26855
0.270472
0.27207
0.273379
0.274426
0.275234
0.275824
0.27621
0.2764
0.19591
0.203984
0.211101
0.217354
0.22283
0.22761
0.23177
0.235376
0.238487
0.241156
0.243431
0.245351
0.246953
0.248268
0.249323
0.250139
0.250736
0.251126
0.251319
0.173391
0.180998
0.18773
0.193668
0.198888
0.203463
0.207458
0.210933
0.213942
0.216533
0.218747
0.220621
0.222189
0.223478
0.224513
0.225316
0.225904
0.226288
0.226479
0.152037
0.159075
0.165326
0.170857
0.175737
0.180027
0.183786
0.187066
0.189914
0.192373
0.194479
0.196267
0.197764
0.198998
0.19999
0.20076
0.201324
0.201695
0.201878
0.131726
0.13811
0.143796
0.148843
0.153308
0.157245
0.160704
0.163731
0.166366
0.168645
0.170602
0.172266
0.173661
0.174812
0.17574
0.17646
0.176989
0.177336
0.177508
0.112332
0.11799
0.123042
0.127539
0.131527
0.135052
0.138156
0.140879
0.143254
0.145313
0.147084
0.148591
0.149856
0.150901
0.151744
0.152399
0.152881
0.153197
0.153355
0.0937281
0.0986023
0.102965
0.106855
0.110314
0.113377
0.116081
0.118456
0.120532
0.122334
0.123886
0.125208
0.126319
0.127238
0.127979
0.128557
0.128981
0.12926
0.129399
0.0757891
0.0798337
0.0834602
0.0867005
0.0895859
0.0921465
0.0944102
0.0964024
0.0981458
0.0996611
0.100967
0.10208
0.103017
0.103792
0.104418
0.104906
0.105265
0.105501
0.105619
0.05839
0.0615694
0.0644245
0.0669793
0.0692578
0.0712827
0.0730754
0.074655
0.0760388
0.0772424
0.0782803
0.0791658
0.0799114
0.0805286
0.0810276
0.0814171
0.0817038
0.0818929
0.081987
0.0414074
0.0436957
0.045753
0.047596
0.0492417
0.050706
0.0520037
0.0531482
0.0541515
0.0550246
0.0557779
0.0564209
0.0569626
0.0574114
0.0577744
0.058058
0.058267
0.0584049
0.0584734
0.0247195
0.0260993
0.0273408
0.0284541
0.029449
0.030335
0.0311208
0.0318142
0.0324223
0.0329517
0.0334086
0.0337987
0.0341276
0.0344001
0.0346208
0.0347933
0.0349204
0.0350044
0.035046
0.00820518
0.00866688
0.00908259
0.00945562
0.00978925
0.0100866
0.0103505
0.0105834
0.0107878
0.0109658
0.0111195
0.0112508
0.0113615
0.0114533
0.0115276
0.0115858
0.0116286
0.011657
0.011671
)
;

boundaryField
{
    leftWall
    {
        type            fixedFluxPressure;
        gradient        uniform 0;
        value           nonuniform List<scalar> 
50
(
1162.66
1164.74
1168.91
1175.15
1183.46
1193.8
1206.14
1220.43
1245.81
1288.81
1339.74
1398.07
1463.2
1534.53
1611.49
1693.48
1779.95
1870.36
1964.22
2061.05
2160.43
2261.95
2365.38
2469.75
2573.01
2687.58
2310.62
-1.39006
-1.30274
-1.20017
-1.1044
-1.0132
-0.926899
-0.845485
-0.768933
-0.697125
-0.629813
-0.56672
-0.507534
-0.451971
-0.399719
-0.350432
-0.303762
-0.259352
-0.216858
-0.175955
-0.136342
-0.0977383
-0.0598512
-0.021726
)
;
    }
    rightWall
    {
        type            fixedFluxPressure;
        gradient        uniform 0;
        value           nonuniform List<scalar> 
50
(
0.917309
0.916994
0.916359
0.915403
0.914127
0.912529
0.91061
0.90837
0.904363
0.897457
0.889094
0.879279
0.868026
0.855356
0.841299
0.825897
0.8092
0.791269
0.772173
0.75199
0.730803
0.7087
0.685774
0.662118
0.637827
0.612995
0.587714
0.562072
0.536155
0.510043
0.483812
0.45753
0.431259
0.405053
0.378961
0.35302
0.327265
0.301719
0.2764
0.251319
0.226479
0.201878
0.177508
0.153355
0.129399
0.105619
0.081987
0.0584734
0.035046
0.011671
)
;
    }
    lowerWall
    {
        type            fixedFluxPressure;
        gradient        uniform 0;
        value           nonuniform List<scalar> 
62
(
1162.66
1152.8
1132.59
1101.83
1059.98
1006.21
939.387
857.832
759.191
638.772
497.463
305.653
64.3163
7.5243
3.20841
2.86401
2.63573
2.43013
2.28855
2.18309
2.1056
2.05399
2.02792
2.02792
2.0215
2.00805
1.98751
1.95953
1.92345
1.87801
1.8222
1.5119
1.39666
1.29584
1.2049
1.0633
1.0644
1.06667
1.0702
1.07516
1.08177
1.09012
1.10109
1.0633
1.05905
1.05119
1.04087
1.02904
1.01651
1.00386
0.991505
0.979731
0.968737
0.958661
0.949591
0.941585
0.934682
0.928906
0.924272
0.920792
0.91847
0.917309
)
;
    }
    atmosphere
    {
        type            totalPressure;
        rho             rho;
        psi             none;
        gamma           1;
        p0              uniform 0;
        value           nonuniform List<scalar> 
46
(
-0.00227059
-0.00224885
-0.00218434
-0.00208935
-0.00196664
-0.00181989
-0.00165359
-0.00147296
-0.00128369
-0.00109173
-0.000903012
-0.000723143
-0.000557136
-0.000409165
-0.000282386
-0.000178842
-9.94402e-05
-4.4025e-05
-1.15116e-05
-7.31516e-08
0
0
0
0
0
0
0
0
0
0
0
0
0
0
0
0
0
0
0
0
0
0
0
0
0
0
)
;
    }
    defaultFaces
    {
        type            empty;
    }
}


// ************************************************************************* //
