/*--------------------------------*- C++ -*----------------------------------*\
| =========                 |                                                 |
| \\      /  F ield         | OpenFOAM: The Open Source CFD Toolbox           |
|  \\    /   O peration     | Version:  2206                                  |
|   \\  /    A nd           | Website:  www.openfoam.com                      |
|    \\/     M anipulation  |                                                 |
\*---------------------------------------------------------------------------*/
FoamFile
{
    version     2.0;
    format      ascii;
    arch        "LSB;label=32;scalar=64";
    class       surfaceScalarField;
    location    "0.025";
    object      phi;
}
// * * * * * * * * * * * * * * * * * * * * * * * * * * * * * * * * * * * * * //

dimensions      [0 3 -1 0 0 0 0];

oriented        oriented;

internalField   nonuniform List<scalar> 
4432
(
1.76375e-06
-1.76375e-06
3.57616e-06
-1.8124e-06
5.44174e-06
-1.86552e-06
7.40741e-06
-1.96566e-06
9.52116e-06
-2.11373e-06
1.18472e-05
-2.32604e-06
1.44783e-05
-2.63113e-06
1.75605e-05
-3.08213e-06
2.13436e-05
-3.78322e-06
2.6353e-05
-5.00944e-06
3.35367e-05
-7.18364e-06
4.57902e-05
-1.22535e-05
6.87478e-05
-2.29576e-05
6.69574e-05
1.79016e-06
5.07244e-05
1.6234e-05
3.82142e-05
1.25094e-05
2.73855e-05
1.08296e-05
2.08971e-05
6.48952e-06
1.6252e-05
4.64446e-06
1.22412e-05
4.01176e-06
8.35305e-06
3.88707e-06
4.29659e-06
4.0552e-06
4.29554e-06
1.75869e-06
-3.52238e-06
3.56523e-06
-3.61898e-06
5.42394e-06
-3.72416e-06
7.38063e-06
-3.92235e-06
9.48184e-06
-4.21498e-06
1.17892e-05
-4.63336e-06
1.43902e-05
-5.2322e-06
1.74188e-05
-6.11073e-06
2.1093e-05
-7.45743e-06
2.58105e-05
-9.72677e-06
3.20996e-05
-1.34728e-05
4.17722e-05
-2.19261e-05
5.84464e-05
-3.96319e-05
7.1318e-05
-1.10813e-05
5.98407e-05
2.77093e-05
3.85402e-05
3.38095e-05
2.76249e-05
2.1744e-05
2.13192e-05
1.27963e-05
1.66418e-05
9.32205e-06
1.26035e-05
8.05088e-06
8.66131e-06
7.82943e-06
4.49196e-06
8.22646e-06
8.78679e-06
1.7458e-06
-5.26812e-06
3.53776e-06
-5.411e-06
5.37979e-06
-5.5662e-06
7.31559e-06
-5.85817e-06
9.38871e-06
-6.28814e-06
1.16557e-05
-6.90028e-06
1.4194e-05
-7.77058e-06
1.71159e-05
-9.03259e-06
2.05881e-05
-1.09296e-05
2.48528e-05
-1.39915e-05
3.01906e-05
-1.88107e-05
3.73208e-05
-2.90562e-05
4.46504e-05
-4.69613e-05
4.79895e-05
-1.44213e-05
3.84873e-05
3.72133e-05
3.0298e-05
4.20014e-05
2.50178e-05
2.70234e-05
2.02762e-05
1.75367e-05
1.61726e-05
1.34253e-05
1.24318e-05
1.17909e-05
8.6648e-06
1.15937e-05
4.56739e-06
1.23259e-05
1.33543e-05
1.72664e-06
-6.99474e-06
3.49708e-06
-7.18148e-06
5.3145e-06
-7.38369e-06
7.21966e-06
-7.76333e-06
9.25193e-06
-8.32041e-06
1.14609e-05
-9.10914e-06
1.39109e-05
-1.02206e-05
1.66879e-05
-1.18096e-05
1.99023e-05
-1.4144e-05
2.36624e-05
-1.77517e-05
2.80386e-05
-2.31869e-05
3.27686e-05
-3.37862e-05
3.48732e-05
-4.90659e-05
3.05831e-05
-1.01311e-05
2.5864e-05
4.19325e-05
2.534e-05
4.25241e-05
2.28743e-05
2.94894e-05
1.92891e-05
2.11231e-05
1.57731e-05
1.6943e-05
1.23681e-05
1.51948e-05
8.81293e-06
1.51464e-05
4.77921e-06
1.63627e-05
1.81334e-05
1.70155e-06
-8.69633e-06
3.44393e-06
-8.92384e-06
5.22942e-06
-9.16924e-06
7.0951e-06
-9.62899e-06
9.07536e-06
-1.03006e-05
1.12116e-05
-1.12453e-05
1.35538e-05
-1.25629e-05
1.61611e-05
-1.44168e-05
1.90922e-05
-1.70752e-05
2.23582e-05
-2.10178e-05
2.58763e-05
-2.6705e-05
2.89591e-05
-3.6869e-05
3.01921e-05
-5.02987e-05
2.32703e-05
-3.2101e-06
2.14658e-05
4.3736e-05
2.25649e-05
4.14257e-05
2.10671e-05
3.09912e-05
1.83229e-05
2.38675e-05
1.53653e-05
1.98984e-05
1.23463e-05
1.82136e-05
9.07215e-06
1.842e-05
5.14169e-06
2.02959e-05
2.32747e-05
1.67099e-06
-1.03674e-05
3.3793e-06
-1.06321e-05
5.12626e-06
-1.09162e-05
6.94475e-06
-1.14474e-05
8.86367e-06
-1.22196e-05
1.09158e-05
-1.32974e-05
1.3137e-05
-1.47842e-05
1.55617e-05
-1.68416e-05
1.82067e-05
-1.97202e-05
2.102e-05
-2.3831e-05
2.38193e-05
-2.95042e-05
2.58687e-05
-3.89184e-05
2.66627e-05
-5.10924e-05
1.98055e-05
3.64676e-06
1.95418e-05
4.40016e-05
2.05353e-05
4.04324e-05
1.95186e-05
3.20087e-05
1.74148e-05
2.59706e-05
1.49756e-05
2.23371e-05
1.23833e-05
2.08071e-05
9.47744e-06
2.13252e-05
5.73543e-06
2.40382e-05
2.90095e-05
1.63546e-06
-1.20029e-05
3.30431e-06
-1.23008e-05
5.00696e-06
-1.26189e-05
6.77175e-06
-1.32122e-05
8.62192e-06
-1.40698e-05
1.05818e-05
-1.52573e-05
1.26741e-05
-1.68765e-05
1.49125e-05
-1.908e-05
1.72824e-05
-2.209e-05
1.96956e-05
-2.62442e-05
2.19089e-05
-3.17176e-05
2.33181e-05
-4.03276e-05
2.38111e-05
-5.15854e-05
1.77417e-05
9.71523e-06
1.81023e-05
4.36418e-05
1.8898e-05
3.96365e-05
1.81962e-05
3.27106e-05
1.65893e-05
2.75775e-05
1.46248e-05
2.43032e-05
1.24937e-05
2.29399e-05
1.00752e-05
2.37417e-05
6.70285e-06
2.74086e-05
3.57125e-05
1.59539e-06
-1.35983e-05
3.21977e-06
-1.39251e-05
4.87295e-06
-1.42721e-05
6.57836e-06
-1.49176e-05
8.3537e-06
-1.58452e-05
1.02152e-05
-1.71188e-05
1.21737e-05
-1.88351e-05
1.42262e-05
-2.11324e-05
1.63371e-05
-2.42009e-05
1.84036e-05
-2.83107e-05
2.01252e-05
-3.34392e-05
2.11245e-05
-4.13269e-05
2.08018e-05
-5.12626e-05
1.64228e-05
1.40942e-05
1.68803e-05
4.31846e-05
1.75616e-05
3.89552e-05
1.70682e-05
3.32056e-05
1.58502e-05
2.87964e-05
1.43159e-05
2.58377e-05
1.2672e-05
2.45845e-05
1.0894e-05
2.55185e-05
8.04368e-06
3.02571e-05
4.37562e-05
7.80078e-07
-7.80078e-07
1.42731e-06
-6.46866e-07
1.88078e-06
-4.53971e-07
2.15482e-06
-2.73714e-07
2.28374e-06
-1.2881e-07
2.305e-06
-2.11199e-08
2.25073e-06
5.43266e-08
2.14387e-06
1.06619e-07
2.0012e-06
1.42564e-07
1.8344e-06
1.67007e-07
1.65118e-06
1.83046e-07
1.45702e-06
1.93481e-07
1.25598e-06
2.00557e-07
1.05071e-06
2.05359e-07
8.42765e-07
2.08374e-07
6.33118e-07
2.10162e-07
4.22432e-07
2.11243e-07
2.11194e-07
2.11859e-07
2.11886e-07
8.24254e-07
-1.60488e-06
1.49362e-06
-1.31551e-06
1.94997e-06
-9.10629e-07
2.21794e-06
-5.41299e-07
2.33845e-06
-2.49188e-07
2.35185e-06
-3.46629e-08
2.29142e-06
1.14692e-07
2.17951e-06
2.18572e-07
2.03244e-06
2.8922e-07
1.8616e-06
3.36934e-07
1.67476e-06
3.69184e-07
1.47737e-06
3.90834e-07
1.27324e-06
4.05031e-07
1.06492e-06
4.14116e-07
8.54011e-07
4.19942e-07
6.41501e-07
4.23706e-07
4.28e-07
4.25975e-07
2.13955e-07
4.27124e-07
4.26278e-07
9.02155e-07
-2.50754e-06
1.59988e-06
-2.01265e-06
2.0492e-06
-1.36024e-06
2.29693e-06
-7.88782e-07
2.39652e-06
-3.48754e-07
2.39251e-06
-3.06473e-08
2.31918e-06
1.87628e-07
2.19793e-06
3.39012e-07
2.04451e-06
4.4219e-07
1.86944e-06
5.12082e-07
1.67976e-06
5.58929e-07
1.48041e-06
5.89889e-07
1.27498e-06
6.10167e-07
1.06588e-06
6.23462e-07
8.54536e-07
6.32148e-07
6.41741e-07
6.37569e-07
4.2806e-07
6.40594e-07
2.13958e-07
6.42028e-07
6.40577e-07
1.03362e-06
-3.54163e-06
1.77102e-06
-2.74958e-06
2.203e-06
-1.7925e-06
2.41602e-06
-1.00158e-06
2.48254e-06
-4.15499e-07
2.4521e-06
-4.53083e-10
2.36024e-06
2.79191e-07
2.22588e-06
4.73204e-07
2.06342e-06
6.04682e-07
1.8821e-06
6.93299e-07
1.68811e-06
7.52469e-07
1.48588e-06
7.91649e-07
1.27857e-06
8.1749e-07
1.06822e-06
8.34438e-07
8.55992e-07
8.45273e-07
6.4255e-07
8.51766e-07
4.28441e-07
8.55292e-07
2.141e-07
8.56992e-07
8.55031e-07
1.23983e-06
-4.7819e-06
2.02195e-06
-3.53127e-06
2.41643e-06
-2.1872e-06
2.57492e-06
-1.15999e-06
2.59323e-06
-4.33971e-07
2.53017e-06
6.25997e-08
2.41288e-06
3.96451e-07
2.26152e-06
6.24478e-07
2.08743e-06
7.78587e-07
1.89812e-06
8.82233e-07
1.69872e-06
9.51459e-07
1.49287e-06
9.97371e-07
1.28315e-06
1.02758e-06
1.07115e-06
1.04713e-06
8.57746e-07
1.05932e-06
6.435e-07
1.06645e-06
4.28899e-07
1.0703e-06
2.14287e-07
1.07222e-06
1.06973e-06
1.55421e-06
-6.33646e-06
2.37399e-06
-4.3507e-06
2.6946e-06
-2.50793e-06
2.77219e-06
-1.23781e-06
2.72786e-06
-3.89798e-07
2.62133e-06
1.69015e-07
2.47473e-06
5.42909e-07
2.30328e-06
7.95753e-07
2.11551e-06
9.66145e-07
1.91688e-06
1.0806e-06
1.71115e-06
1.15702e-06
1.50105e-06
1.2076e-06
1.28844e-06
1.24062e-06
1.07445e-06
1.26165e-06
8.59672e-07
1.27449e-06
6.4454e-07
1.28186e-06
4.29417e-07
1.28584e-06
2.14512e-07
1.28785e-06
1.28471e-06
2.01698e-06
-8.35366e-06
2.85515e-06
-5.18896e-06
3.0403e-06
-2.69333e-06
3.00313e-06
-1.20093e-06
2.87992e-06
-2.66885e-07
2.72311e-06
3.25492e-07
2.54328e-06
7.22475e-07
2.34945e-06
9.89445e-07
2.14652e-06
1.16902e-06
1.93758e-06
1.28949e-06
1.72486e-06
1.36975e-06
1.50999e-06
1.42261e-06
1.29414e-06
1.45677e-06
1.07792e-06
1.47818e-06
8.61667e-07
1.49097e-06
6.45613e-07
1.49817e-06
4.29959e-07
1.502e-06
2.14743e-07
1.50388e-06
1.49995e-06
3.04718e-06
-1.14011e-05
3.53856e-06
-5.68026e-06
3.45357e-06
-2.60847e-06
3.25934e-06
-1.0069e-06
3.04141e-06
-4.92143e-08
2.83121e-06
5.35401e-07
2.61588e-06
9.37613e-07
2.39831e-06
1.20701e-06
2.17932e-06
1.38814e-06
1.95946e-06
1.50949e-06
1.73928e-06
1.59004e-06
1.51933e-06
1.64269e-06
1.3e-06
1.67626e-06
1.08143e-06
1.69686e-06
8.63649e-07
1.70886e-06
6.46669e-07
1.71542e-06
4.30482e-07
1.71873e-06
2.14944e-07
1.7202e-06
1.71523e-06
3.24778e-06
-1.68461e-05
6.54314e-06
-1.72204e-05
9.88295e-06
-1.76119e-05
1.33021e-05
-1.83366e-05
1.68216e-05
-1.93648e-05
2.04539e-05
-2.07511e-05
2.41926e-05
-2.25738e-05
2.79953e-05
-2.4935e-05
3.17534e-05
-2.79591e-05
3.52323e-05
-3.17896e-05
3.82265e-05
-3.64335e-05
3.95822e-05
-4.26826e-05
4.07818e-05
-5.24621e-05
3.17608e-05
2.31147e-05
3.29677e-05
4.19805e-05
3.37385e-05
3.81846e-05
3.31016e-05
3.38427e-05
3.15246e-05
3.03738e-05
2.95318e-05
2.78293e-05
2.77179e-05
2.63984e-05
2.70213e-05
2.62147e-05
3.01285e-05
2.71492e-05
2.84888e-05
4.5396e-05
3.0215e-06
-1.98676e-05
6.07206e-06
-2.0271e-05
9.14559e-06
-2.06855e-05
1.22587e-05
-2.14497e-05
1.54144e-05
-2.25205e-05
1.86034e-05
-2.39401e-05
2.17954e-05
-2.57657e-05
2.49258e-05
-2.80654e-05
2.78785e-05
-3.09118e-05
3.04625e-05
-3.43736e-05
3.24411e-05
-3.84121e-05
3.32626e-05
-4.35041e-05
3.33163e-05
-5.25159e-05
2.8241e-05
2.81898e-05
2.91017e-05
4.11223e-05
2.97972e-05
3.74905e-05
2.96582e-05
3.39817e-05
2.89703e-05
3.10629e-05
2.81128e-05
2.86855e-05
2.76059e-05
2.69049e-05
2.82115e-05
2.56091e-05
3.10132e-05
2.43472e-05
2.24022e-05
3.71003e-05
2.77951e-06
-2.26472e-05
5.57152e-06
-2.3063e-05
8.36876e-06
-2.34827e-05
1.11732e-05
-2.42541e-05
1.39752e-05
-2.53225e-05
1.67529e-05
-2.67177e-05
1.94651e-05
-2.84779e-05
2.20434e-05
-3.06438e-05
2.43832e-05
-3.32516e-05
2.63349e-05
-3.63253e-05
2.7723e-05
-3.98002e-05
2.82475e-05
-4.40287e-05
2.81625e-05
-5.24307e-05
2.48536e-05
3.14983e-05
2.58356e-05
4.01406e-05
2.65697e-05
3.67571e-05
2.67413e-05
3.38091e-05
2.65728e-05
3.12324e-05
2.63129e-05
2.89452e-05
2.62717e-05
2.69464e-05
2.67716e-05
2.51092e-05
2.80037e-05
2.31143e-05
2.04547e-05
2.9951e-05
2.53187e-06
-2.51791e-05
5.06268e-06
-2.55939e-05
7.58528e-06
-2.60053e-05
1.00907e-05
-2.67595e-05
1.25619e-05
-2.77936e-05
1.49704e-05
-2.91263e-05
1.72728e-05
-3.07804e-05
1.94057e-05
-3.27766e-05
2.12819e-05
-3.51279e-05
2.27898e-05
-3.78331e-05
2.38111e-05
-4.08215e-05
2.41668e-05
-4.43844e-05
2.40339e-05
-5.22976e-05
2.22708e-05
3.32618e-05
2.31462e-05
3.92638e-05
2.38265e-05
3.60777e-05
2.41546e-05
3.348e-05
2.42589e-05
3.11285e-05
2.42798e-05
2.89241e-05
2.43795e-05
2.68466e-05
2.46851e-05
2.48025e-05
2.51907e-05
2.26081e-05
2.0033e-05
2.56131e-05
2.28666e-06
-2.74657e-05
4.56195e-06
-2.78691e-05
6.81974e-06
-2.82631e-05
9.04374e-06
-2.89836e-05
1.12127e-05
-2.99626e-05
1.32966e-05
-3.12102e-05
1.52538e-05
-3.27376e-05
1.70291e-05
-3.4552e-05
1.85533e-05
-3.66519e-05
1.97442e-05
-3.90239e-05
2.05233e-05
-4.16006e-05
2.07751e-05
-4.46362e-05
2.05961e-05
-5.21185e-05
1.98398e-05
3.40186e-05
2.07086e-05
3.83945e-05
2.13734e-05
3.54137e-05
2.17865e-05
3.30665e-05
2.20267e-05
3.08883e-05
2.21694e-05
2.87804e-05
2.2294e-05
2.67213e-05
2.24428e-05
2.46531e-05
2.25662e-05
2.24841e-05
2.01287e-05
2.24706e-05
2.04977e-06
-2.95155e-05
4.08092e-06
-2.99003e-05
6.0889e-06
-3.0271e-05
8.05297e-06
-3.09477e-05
9.95047e-06
-3.18601e-05
1.17519e-05
-3.30117e-05
1.34197e-05
-3.44054e-05
1.49075e-05
-3.60398e-05
1.61609e-05
-3.79052e-05
1.71197e-05
-3.99826e-05
1.77309e-05
-4.22119e-05
1.79142e-05
-4.48195e-05
1.76949e-05
-5.18991e-05
1.75538e-05
3.41601e-05
1.84552e-05
3.74932e-05
1.9128e-05
3.47413e-05
1.95884e-05
3.26053e-05
1.98922e-05
3.05845e-05
2.00808e-05
2.85911e-05
2.01928e-05
2.66086e-05
2.02393e-05
2.46061e-05
2.01795e-05
2.25439e-05
2.03983e-05
1.99105e-05
1.82509e-06
-3.13406e-05
3.62696e-06
-3.17022e-05
5.40294e-06
-3.2047e-05
7.13008e-06
-3.2675e-05
8.78588e-06
-3.35159e-05
1.03429e-05
-3.45687e-05
1.17681e-05
-3.58307e-05
1.30233e-05
-3.72948e-05
1.40655e-05
-3.89473e-05
1.485e-05
-4.07672e-05
1.53403e-05
-4.27021e-05
1.54765e-05
-4.49558e-05
1.52213e-05
-5.16438e-05
1.54561e-05
3.39257e-05
1.63825e-05
3.65664e-05
1.70639e-05
3.40602e-05
1.75467e-05
3.2122e-05
1.78741e-05
3.02572e-05
1.8072e-05
2.83922e-05
1.81627e-05
2.65172e-05
1.81499e-05
2.46189e-05
1.80097e-05
2.26845e-05
2.07164e-05
1.76922e-05
1.61481e-06
-3.29554e-05
3.20396e-06
-3.32913e-05
4.76678e-06
-3.36098e-05
6.27973e-06
-3.4188e-05
7.72155e-06
-3.49577e-05
9.06743e-06
-3.59146e-05
1.02889e-05
-3.70523e-05
1.13544e-05
-3.83602e-05
1.22297e-05
-3.98226e-05
1.28808e-05
-4.14184e-05
1.32812e-05
-4.31025e-05
1.3384e-05
-4.50587e-05
1.30949e-05
-5.13546e-05
1.35549e-05
3.3466e-05
1.44939e-05
3.56268e-05
1.51765e-05
3.33782e-05
1.56615e-05
3.16365e-05
1.59867e-05
2.99318e-05
1.61736e-05
2.82044e-05
1.62403e-05
2.64498e-05
1.61923e-05
2.46667e-05
1.60202e-05
2.28573e-05
2.10347e-05
1.57019e-05
1.41977e-06
-3.43751e-05
2.8131e-06
-3.46847e-05
4.18138e-06
-3.49781e-05
5.50161e-06
-3.55083e-05
6.75443e-06
-3.62105e-05
7.91793e-06
-3.70781e-05
8.96778e-06
-3.81021e-05
9.87755e-06
-3.927e-05
1.06198e-05
-4.05648e-05
1.11674e-05
-4.1966e-05
1.15001e-05
-4.34352e-05
1.15785e-05
-4.51371e-05
1.1256e-05
-5.10322e-05
1.18585e-05
3.2864e-05
1.27981e-05
3.46866e-05
1.34701e-05
3.27072e-05
1.39378e-05
3.11683e-05
1.42389e-05
2.96304e-05
1.4398e-05
2.80446e-05
1.44357e-05
2.64118e-05
1.4362e-05
2.474e-05
1.4178e-05
2.30419e-05
2.13366e-05
1.38766e-05
1.23976e-06
-3.56149e-05
2.45354e-06
-3.58984e-05
3.64478e-06
-3.61693e-05
4.79191e-06
-3.66554e-05
5.87778e-06
-3.72964e-05
6.88348e-06
-3.80838e-05
7.78832e-06
-3.9007e-05
8.57012e-06
-4.00518e-05
9.20598e-06
-4.12006e-05
9.67338e-06
-4.24334e-05
9.95493e-06
-4.37167e-05
1.00153e-05
-4.51975e-05
9.66082e-06
-5.06777e-05
1.03752e-05
3.215e-05
1.13088e-05
3.37527e-05
1.19553e-05
3.20618e-05
1.23824e-05
3.07405e-05
1.26349e-05
2.93772e-05
1.27465e-05
2.79325e-05
1.27445e-05
2.64141e-05
1.26448e-05
2.484e-05
1.24543e-05
2.32327e-05
2.16173e-05
1.21742e-05
1.07383e-06
-3.66887e-05
2.12295e-06
-3.69475e-05
3.15299e-06
-3.71994e-05
4.14435e-06
-3.76468e-05
5.08238e-06
-3.82344e-05
5.95116e-06
-3.89526e-05
6.73337e-06
-3.97892e-05
7.4103e-06
-4.07287e-05
7.96214e-06
-4.17525e-05
8.36875e-06
-4.284e-05
8.6135e-06
-4.39615e-05
8.66028e-06
-4.52443e-05
8.27809e-06
-5.02954e-05
9.12204e-06
3.13065e-05
1.00501e-05
3.28243e-05
1.06498e-05
3.14629e-05
1.10033e-05
3.0386e-05
1.1174e-05
2.92058e-05
1.12114e-05
2.78949e-05
1.11528e-05
2.64734e-05
1.10197e-05
2.49738e-05
1.08216e-05
2.34305e-05
2.18768e-05
1.05623e-05
9.20443e-07
-3.76092e-05
1.81798e-06
-3.7845e-05
2.70056e-06
-3.8082e-05
3.55098e-06
-3.84972e-05
4.35727e-06
-3.90407e-05
5.10667e-06
-3.9702e-05
5.78516e-06
-4.04676e-05
6.37714e-06
-4.13206e-05
6.86497e-06
-4.22403e-05
7.22904e-06
-4.32041e-05
7.45135e-06
-4.41838e-05
7.48803e-06
-4.52811e-05
7.09368e-06
-4.99012e-05
8.1431e-06
3.02578e-05
9.06905e-06
3.18977e-05
9.58249e-06
3.09499e-05
9.80911e-06
3.01592e-05
9.84855e-06
2.91664e-05
9.77513e-06
2.79686e-05
9.63712e-06
2.66119e-05
9.45959e-06
2.51522e-05
9.2512e-06
2.36392e-05
2.21156e-05
9.01217e-06
7.77675e-07
-3.83869e-05
1.5345e-06
-3.86019e-05
2.28093e-06
-3.88284e-05
3.00241e-06
-3.92187e-05
3.6899e-06
-3.97281e-05
4.33415e-06
-4.03462e-05
4.92479e-06
-4.10583e-05
5.44961e-06
-4.18454e-05
5.89308e-06
-4.26838e-05
6.23467e-06
-4.35457e-05
6.45201e-06
-4.44011e-05
6.48083e-06
-4.53099e-05
6.08511e-06
-4.95056e-05
7.55215e-06
2.87916e-05
8.46026e-06
3.09889e-05
8.79754e-06
3.06129e-05
8.80478e-06
3.01522e-05
8.63841e-06
2.93331e-05
8.40579e-06
2.82016e-05
8.16252e-06
2.68553e-05
7.93048e-06
2.53845e-05
7.71123e-06
2.38589e-05
2.23305e-05
7.49587e-06
6.43242e-07
-3.90301e-05
1.26782e-06
-3.92265e-05
1.88666e-06
-3.94473e-05
2.48795e-06
-3.98199e-05
3.06608e-06
-4.03062e-05
3.61575e-06
-4.08958e-05
4.13112e-06
-4.15736e-05
4.60466e-06
-4.2319e-05
5.0245e-06
-4.31036e-05
5.37043e-06
-4.38917e-05
5.61201e-06
-4.46428e-05
5.63137e-06
-4.53292e-05
5.36057e-06
-4.92348e-05
7.63237e-06
2.65205e-05
8.38727e-06
3.02333e-05
8.35185e-06
3.06482e-05
7.97787e-06
3.0526e-05
7.49844e-06
2.98125e-05
7.04891e-06
2.86514e-05
6.67762e-06
2.72263e-05
6.38899e-06
2.56725e-05
6.16637e-06
2.40815e-05
2.25112e-05
5.98571e-06
5.15332e-07
-3.95454e-05
1.01307e-06
-3.97243e-05
1.51001e-06
-3.99443e-05
1.99664e-06
-4.03066e-05
2.47083e-06
-4.07804e-05
2.93179e-06
-4.13568e-05
3.37971e-06
-4.20215e-05
3.81428e-06
-4.27536e-05
4.23008e-06
-4.35194e-05
4.61599e-06
-4.42775e-05
4.95227e-06
-4.49791e-05
4.9461e-06
-4.5323e-05
6.47989e-06
-5.07687e-05
9.09519e-06
2.39056e-05
9.09368e-06
3.02338e-05
8.29008e-06
3.14515e-05
7.26457e-06
3.15511e-05
6.33531e-06
3.07415e-05
5.61524e-06
2.93713e-05
5.11061e-06
2.77306e-05
4.7822e-06
2.60005e-05
4.57941e-06
2.42837e-05
2.26349e-05
4.45564e-06
3.90705e-07
-3.99362e-05
7.66515e-07
-4.01001e-05
1.14577e-06
-4.03236e-05
1.52046e-06
-4.06812e-05
1.89233e-06
-4.11523e-05
2.26579e-06
-4.17302e-05
2.6491e-06
-4.24048e-05
3.05405e-06
-4.31585e-05
3.48396e-06
-4.39493e-05
3.93797e-06
-4.47316e-05
4.46077e-06
-4.55019e-05
4.41123e-06
-4.52735e-05
7.17999e-06
-5.35373e-05
1.23789e-05
1.87061e-05
1.06716e-05
3.19404e-05
8.47635e-06
3.36467e-05
6.47831e-06
3.35489e-05
4.97576e-06
3.22434e-05
3.97054e-06
3.0376e-05
3.36807e-06
2.83329e-05
3.04923e-06
2.63191e-05
2.91312e-06
2.44196e-05
2.26641e-05
2.88389e-06
2.7536e-07
-4.02116e-05
5.36088e-07
-4.03609e-05
8.02722e-07
-4.05902e-05
1.06968e-06
-4.09482e-05
1.34049e-06
-4.14231e-05
1.62381e-06
-4.20135e-05
1.93743e-06
-4.27185e-05
2.31482e-06
-4.35359e-05
2.80063e-06
-4.44351e-05
3.44027e-06
-4.53712e-05
4.16519e-06
-4.62269e-05
2.33662e-06
-4.34448e-05
1.16354e-05
-6.28358e-05
1.89584e-05
1.13822e-05
1.32506e-05
3.7648e-05
8.58194e-06
3.83154e-05
5.25033e-06
3.68806e-05
3.14054e-06
3.43528e-05
1.9375e-06
3.15785e-05
1.34714e-06
2.89231e-05
1.13326e-06
2.65329e-05
1.13848e-06
2.44144e-05
2.25445e-05
1.25806e-06
1.75317e-07
-4.03869e-05
3.41719e-07
-4.05273e-05
5.14006e-07
-4.07625e-05
6.8861e-07
-4.11228e-05
8.684e-07
-4.16029e-05
1.05954e-06
-4.22046e-05
1.2746e-06
-4.29335e-05
1.54348e-06
-4.38049e-05
1.99339e-06
-4.4885e-05
2.8665e-06
-4.62443e-05
4.88159e-06
-4.82419e-05
1.53029e-05
-5.38662e-05
7.40606e-06
-5.49389e-05
2.05512e-05
-1.76297e-06
1.40633e-05
4.41357e-05
7.56134e-06
4.48175e-05
2.95251e-06
4.14896e-05
3.991e-07
3.69063e-05
-7.23997e-07
3.27015e-05
-1.07301e-06
2.9272e-05
-1.01082e-06
2.64708e-05
-7.53291e-07
2.41569e-05
2.2208e-05
-4.168e-07
-5.22083e-08
-4.03346e-05
-1.15562e-07
-4.0464e-05
-1.74411e-07
-4.07038e-05
-2.38302e-07
-4.10589e-05
-3.06125e-07
-4.15351e-05
-3.7779e-07
-4.2133e-05
-4.49909e-07
-4.28615e-05
-4.78936e-07
-4.3776e-05
-7.46925e-07
-4.46171e-05
2.1789e-07
-4.7209e-05
2.42269e-06
-5.04467e-05
3.94481e-05
-9.08917e-05
0.000126589
-0.00014208
7.15488e-05
5.32773e-05
2.83069e-05
8.7378e-05
5.76436e-06
6.73603e-05
-1.65301e-06
4.89071e-05
-3.83353e-06
3.90872e-05
-4.21969e-06
3.30877e-05
-3.91318e-06
2.89655e-05
-3.35567e-06
2.59134e-05
-2.72711e-06
2.35284e-05
2.15879e-05
-2.10718e-06
-1.71922e-06
-3.86154e-05
-3.52844e-06
-3.86545e-05
-5.34957e-06
-3.88819e-05
-7.21232e-06
-3.91953e-05
-9.1121e-06
-3.96343e-05
-1.09986e-05
-4.02454e-05
-1.27244e-05
-4.1135e-05
-1.40492e-05
-4.24505e-05
-1.40692e-05
-4.45963e-05
-1.11195e-05
-5.01583e-05
-6.03643e-06
-5.55296e-05
5.94805e-06
-0.000102876
-3.45278e-05
-0.000101604
-2.23828e-05
4.11325e-05
-1.89857e-05
8.39813e-05
-1.41291e-05
6.25041e-05
-1.17793e-05
4.65577e-05
-1.00045e-05
3.73127e-05
-8.42619e-06
3.15097e-05
-7.01916e-06
2.75587e-05
-5.77894e-06
2.46732e-05
-4.69499e-06
2.24443e-05
2.06456e-05
-3.75284e-06
-1.90906e-06
-3.67052e-05
-3.73935e-06
-3.68237e-05
-5.65805e-06
-3.6963e-05
-7.65997e-06
-3.71933e-05
-9.76374e-06
-3.75309e-05
-1.19903e-05
-3.80194e-05
-1.43801e-05
-3.87454e-05
-1.70162e-05
-3.98149e-05
-1.97593e-05
-4.18537e-05
-2.42584e-05
-4.56593e-05
-3.34846e-05
-4.63027e-05
-6.9248e-05
-6.71119e-05
-0.000121307
-4.95447e-05
-9.73507e-05
1.71767e-05
-5.40849e-05
4.07161e-05
-3.21493e-05
4.05692e-05
-2.17536e-05
3.61622e-05
-1.60806e-05
3.16399e-05
-1.24994e-05
2.79289e-05
-9.97225e-06
2.50318e-05
-8.05084e-06
2.27518e-05
-6.52096e-06
2.09143e-05
1.93941e-05
-5.26954e-06
-1.94482e-06
-3.47595e-05
-3.89151e-06
-3.48754e-05
-5.90379e-06
-3.49496e-05
-8.01844e-06
-3.50779e-05
-1.02797e-05
-3.52687e-05
-1.27551e-05
-3.55432e-05
-1.55609e-05
-3.59388e-05
-1.88747e-05
-3.65007e-05
-2.33351e-05
-3.73933e-05
-3.09494e-05
-3.80451e-05
-3.87681e-05
-3.84841e-05
-6.31549e-05
-4.27245e-05
-8.71771e-05
-2.55221e-05
-7.36492e-05
3.64923e-06
-5.23091e-05
1.93765e-05
-3.67243e-05
2.49849e-05
-2.65363e-05
2.59745e-05
-1.99312e-05
2.50352e-05
-1.54759e-05
2.3474e-05
-1.23007e-05
2.18567e-05
-9.9203e-06
2.03715e-05
-8.06363e-06
1.90576e-05
1.79029e-05
-6.5726e-06
-1.9691e-06
-3.27906e-05
-3.96745e-06
-3.28763e-05
-6.03219e-06
-3.2884e-05
-8.20996e-06
-3.28997e-05
-1.0556e-05
-3.29228e-05
-1.31561e-05
-3.29427e-05
-1.61376e-05
-3.29569e-05
-1.97032e-05
-3.29349e-05
-2.42441e-05
-3.28521e-05
-3.01256e-05
-3.21634e-05
-3.75446e-05
-3.10649e-05
-5.18013e-05
-2.84676e-05
-6.02599e-05
-1.70631e-05
-5.47789e-05
-1.83138e-06
-4.45933e-05
9.19101e-06
-3.50254e-05
1.54173e-05
-2.73224e-05
1.82721e-05
-2.14798e-05
1.91929e-05
-1.71116e-05
1.9106e-05
-1.38077e-05
1.85529e-05
-1.12536e-05
1.78175e-05
-9.2329e-06
1.70369e-05
1.62715e-05
-7.60148e-06
-1.96957e-06
-3.08208e-05
-3.97442e-06
-3.08707e-05
-6.0472e-06
-3.08106e-05
-8.23245e-06
-3.07135e-05
-1.05866e-05
-3.05682e-05
-1.31686e-05
-3.03604e-05
-1.60856e-05
-3.00402e-05
-1.94717e-05
-2.95486e-05
-2.35723e-05
-2.87514e-05
-2.83899e-05
-2.73455e-05
-3.43099e-05
-2.51445e-05
-4.16974e-05
-2.10799e-05
-4.54469e-05
-1.33133e-05
-4.33198e-05
-3.95835e-06
-3.79825e-05
3.85386e-06
-3.18839e-05
9.31904e-06
-2.6264e-05
1.26526e-05
-2.15153e-05
1.44445e-05
-1.76518e-05
1.52428e-05
-1.45451e-05
1.54464e-05
-1.20413e-05
1.53137e-05
-1.00057e-05
1.50013e-05
1.45992e-05
-8.33335e-06
-1.93909e-06
-2.88812e-05
-3.91168e-06
-2.88971e-05
-5.94689e-06
-2.87748e-05
-8.08083e-06
-2.85793e-05
-1.03559e-05
-2.82925e-05
-1.28303e-05
-2.78858e-05
-1.55627e-05
-2.73075e-05
-1.86299e-05
-2.64812e-05
-2.21052e-05
-2.52761e-05
-2.59598e-05
-2.34908e-05
-3.02143e-05
-2.08897e-05
-3.43371e-05
-1.69572e-05
-3.63276e-05
-1.13229e-05
-3.53347e-05
-4.95083e-06
-3.23464e-05
8.65881e-07
-2.84212e-05
5.39397e-06
-2.43878e-05
8.61941e-06
-2.06705e-05
1.07275e-05
-1.74264e-05
1.19989e-05
-1.46697e-05
1.26898e-05
-1.23528e-05
1.29968e-05
-1.04097e-05
1.30583e-05
1.29666e-05
-8.77693e-06
-1.87842e-06
-2.70023e-05
-3.78633e-06
-2.69888e-05
-5.74614e-06
-2.68145e-05
-7.78647e-06
-2.65388e-05
-9.9382e-06
-2.61404e-05
-1.22363e-05
-2.55876e-05
-1.47119e-05
-2.48317e-05
-1.73914e-05
-2.38015e-05
-2.02719e-05
-2.23955e-05
-2.32845e-05
-2.04781e-05
-2.62817e-05
-1.78924e-05
-2.8796e-05
-1.44431e-05
-2.99946e-05
-1.01242e-05
-2.95172e-05
-5.42788e-06
-2.77225e-05
-9.28631e-07
-2.51212e-05
2.79272e-06
-2.22242e-05
5.72247e-06
-1.93621e-05
7.86557e-06
-1.67133e-05
9.35031e-06
-1.43507e-05
1.03273e-05
-1.22858e-05
1.09319e-05
-1.04997e-05
1.12723e-05
1.14293e-05
-8.96224e-06
-1.79224e-06
-2.52095e-05
-3.60869e-06
-2.51715e-05
-5.46443e-06
-2.49582e-05
-7.37996e-06
-2.46228e-05
-9.37469e-06
-2.41455e-05
-1.14654e-05
-2.34966e-05
-1.3662e-05
-2.26349e-05
-1.59597e-05
-2.15039e-05
-1.83229e-05
-2.00322e-05
-2.06651e-05
-1.81361e-05
-2.28232e-05
-1.57342e-05
-2.44939e-05
-1.27722e-05
-2.52959e-05
-9.32222e-06
-2.50659e-05
-5.65785e-06
-2.38968e-05
-2.09764e-06
-2.21398e-05
1.03578e-06
-2.00419e-05
3.62463e-06
-1.78482e-05
5.67193e-06
-1.57162e-05
7.21828e-06
-1.37331e-05
8.34423e-06
-1.19377e-05
9.13658e-06
-1.03389e-05
9.67351e-06
1.00201e-05
-8.92951e-06
-1.68644e-06
-2.35229e-05
-3.39117e-06
-2.34662e-05
-5.12295e-06
-2.32259e-05
-6.89438e-06
-2.28508e-05
-8.71539e-06
-2.23243e-05
-1.05901e-05
-2.16215e-05
-1.25143e-05
-2.07105e-05
-1.44676e-05
-1.95507e-05
-1.64039e-05
-1.80957e-05
-1.82407e-05
-1.62994e-05
-1.98468e-05
-1.41281e-05
-2.10355e-05
-1.15835e-05
-2.16156e-05
-8.74215e-06
-2.15027e-05
-5.7708e-06
-2.07306e-05
-2.86973e-06
-1.95105e-05
-1.84287e-07
-1.79645e-05
2.07859e-06
-1.62783e-05
3.98568e-06
-1.45724e-05
5.51238e-06
-1.29279e-05
6.69975e-06
-1.1392e-05
7.60072e-06
-9.9874e-06
8.26895e-06
8.75373e-06
-8.72103e-06
-1.56689e-06
-2.19554e-05
-3.14614e-06
-2.18862e-05
-4.74197e-06
-2.16295e-05
-6.35996e-06
-2.12323e-05
-8.00272e-06
-2.06813e-05
-9.66681e-06
-1.99575e-05
-1.13399e-05
-1.90375e-05
-1.29956e-05
-1.78948e-05
-1.4589e-05
-1.65022e-05
-1.6051e-05
-1.48376e-05
-1.7286e-05
-1.28935e-05
-1.81786e-05
-1.06909e-05
-1.8626e-05
-8.2948e-06
-1.85824e-05
-5.8145e-06
-1.80753e-05
-3.37691e-06
-1.71726e-05
-1.08705e-06
-1.60321e-05
9.38018e-07
-1.47317e-05
2.68525e-06
-1.33693e-05
4.14994e-06
-1.20147e-05
5.34526e-06
-1.07147e-05
6.3007e-06
-9.49698e-06
7.0513e-06
7.63286e-06
-8.37609e-06
-1.43897e-06
-2.05161e-05
-2.88516e-06
-2.04392e-05
-4.3392e-06
-2.01753e-05
-5.80157e-06
-1.97697e-05
-7.2697e-06
-1.92127e-05
-8.73581e-06
-1.84912e-05
-1.01842e-05
-1.75893e-05
-1.15882e-05
-1.64909e-05
-1.29084e-05
-1.51821e-05
-1.40905e-05
-1.36557e-05
-1.50672e-05
-1.19171e-05
-1.57659e-05
-9.99224e-06
-1.61274e-05
-7.93333e-06
-1.61259e-05
-5.81617e-06
-1.57769e-05
-3.7261e-06
-1.51222e-05
-1.74182e-06
-1.42619e-05
7.76796e-08
-1.32495e-05
1.67292e-06
-1.21596e-05
3.06012e-06
-1.10476e-05
4.23334e-06
-9.95482e-06
5.20795e-06
-8.90935e-06
6.00584e-06
6.65217e-06
-7.92865e-06
-1.3069e-06
-1.92088e-05
-2.61742e-06
-1.91282e-05
-3.9285e-06
-1.88636e-05
-5.23786e-06
-1.84602e-05
-6.53974e-06
-1.79107e-05
-7.82394e-06
-1.72069e-05
-9.07429e-06
-1.63391e-05
-1.02665e-05
-1.52989e-05
-1.13679e-05
-1.4081e-05
-1.2337e-05
-1.26868e-05
-1.31269e-05
-1.11274e-05
-1.36908e-05
-9.42844e-06
-1.3993e-05
-7.63139e-06
-1.40183e-05
-5.7911e-06
-1.37766e-05
-3.96789e-06
-1.32994e-05
-2.21907e-06
-1.26365e-05
-5.85061e-07
-1.18462e-05
8.82796e-07
-1.0973e-05
2.18698e-06
-1.00618e-05
3.32214e-06
-9.14769e-06
4.29384e-06
-8.25666e-06
5.1148e-06
5.80207e-06
-7.40656e-06
-1.17419e-06
-1.80341e-05
-2.34949e-06
-1.79528e-05
-3.52021e-06
-1.76925e-05
-4.68223e-06
-1.72982e-05
-5.82821e-06
-1.67649e-05
-6.94712e-06
-1.60879e-05
-8.02365e-06
-1.52626e-05
-9.03708e-06
-1.42857e-05
-9.96088e-06
-1.31575e-05
-1.07641e-05
-1.18838e-05
-1.14136e-05
-1.04781e-05
-1.18787e-05
-8.9636e-06
-1.21369e-05
-7.37353e-06
-1.21791e-05
-5.74903e-06
-1.20125e-05
-4.1345e-06
-1.16591e-05
-2.57236e-06
-1.11471e-05
-1.09692e-06
-1.05265e-05
2.62311e-07
-9.82525e-06
1.48576e-06
-9.0793e-06
2.57618e-06
-8.31757e-06
3.53209e-06
-7.56282e-06
4.35999e-06
5.07101e-06
-6.83184e-06
-1.04354e-06
-1.69904e-05
-2.08621e-06
-1.69098e-05
-3.12134e-06
-1.66573e-05
-4.14322e-06
-1.62762e-05
-5.14418e-06
-1.57641e-05
-6.11344e-06
-1.51186e-05
-7.03723e-06
-1.43388e-05
-7.89828e-06
-1.34249e-05
-8.67556e-06
-1.23805e-05
-9.34587e-06
-1.12137e-05
-9.88588e-06
-9.93839e-06
-1.02748e-05
-8.57503e-06
-1.04979e-05
-7.15062e-06
-1.05499e-05
-5.69708e-06
-1.04361e-05
-4.24829e-06
-1.01715e-05
-2.83686e-06
-9.77723e-06
-1.4911e-06
-9.28696e-06
-2.27956e-07
-8.72279e-06
9.21542e-07
-8.11294e-06
1.96625e-06
-7.48061e-06
2.89965e-06
-6.84507e-06
3.72431e-06
4.4471e-06
-6.22133e-06
-9.16442e-07
-1.60739e-05
-1.83083e-06
-1.59951e-05
-2.73601e-06
-1.57522e-05
-3.62562e-06
-1.53865e-05
-4.49223e-06
-1.48975e-05
-5.32588e-06
-1.42851e-05
-6.11458e-06
-1.35502e-05
-6.84411e-06
-1.26957e-05
-7.49802e-06
-1.1727e-05
-8.05897e-06
-1.06531e-05
-8.51024e-06
-9.48739e-06
-8.8375e-06
-8.24802e-06
-9.03105e-06
-6.95724e-06
-9.08769e-06
-5.64052e-06
-9.0115e-06
-4.3245e-06
-8.81343e-06
-3.03494e-06
-8.51001e-06
-1.79457e-06
-8.11806e-06
-6.20003e-07
-7.66628e-06
4.69645e-07
-7.16938e-06
1.46919e-06
-6.64703e-06
2.37708e-06
-6.11542e-06
3.19243e-06
3.91898e-06
-5.58758e-06
-7.93801e-07
-1.528e-05
-1.58508e-06
-1.52037e-05
-2.36641e-06
-1.49708e-05
-3.13161e-06
-1.46212e-05
-3.8737e-06
-1.41556e-05
-4.58388e-06
-1.35751e-05
-5.25191e-06
-1.28825e-05
-5.86622e-06
-1.20817e-05
-6.41408e-06
-1.11794e-05
-6.88253e-06
-1.01848e-05
-7.25944e-06
-9.11074e-06
-7.53478e-06
-7.97293e-06
-7.70201e-06
-6.7902e-06
-7.75925e-06
-5.58342e-06
-7.70966e-06
-4.3742e-06
-7.56128e-06
-3.18345e-06
-7.32601e-06
-2.02999e-06
-7.01699e-06
-9.29191e-07
-6.65506e-06
1.07513e-07
-6.25164e-06
1.06551e-06
-5.8229e-06
1.94801e-06
-5.38194e-06
2.7511e-06
3.47636e-06
-4.93965e-06
-6.76132e-07
-1.46039e-05
-1.34954e-06
-1.45303e-05
-2.01316e-06
-1.43072e-05
-2.66128e-06
-1.39731e-05
-3.28756e-06
-1.35294e-05
-3.88448e-06
-1.29785e-05
-4.44347e-06
-1.23237e-05
-4.95528e-06
-1.15701e-05
-5.41013e-06
-1.07248e-05
-5.79829e-06
-9.79697e-06
-6.11091e-06
-8.79844e-06
-6.34087e-06
-7.74326e-06
-6.48373e-06
-6.64757e-06
-6.53839e-06
-5.52893e-06
-6.50739e-06
-4.40537e-06
-6.39666e-06
-3.29437e-06
-6.21495e-06
-2.21191e-06
-5.97265e-06
-1.17172e-06
-5.68418e-06
-1.81224e-07
-5.35954e-06
7.40537e-07
-5.01121e-06
1.59929e-06
-4.64968e-06
2.38915e-06
3.11025e-06
-4.28388e-06
-5.63375e-07
-1.40406e-05
-1.12397e-06
-1.39696e-05
-1.67565e-06
-1.37555e-05
-2.21322e-06
-1.34355e-05
-2.73118e-06
-1.30115e-05
-3.2233e-06
-1.24865e-05
-3.6826e-06
-1.18645e-05
-4.10179e-06
-1.11511e-05
-4.47341e-06
-1.03534e-05
-4.79017e-06
-9.48055e-06
-5.04558e-06
-8.54334e-06
-5.23461e-06
-7.55448e-06
-5.35423e-06
-6.52813e-06
-5.40385e-06
-5.47947e-06
-5.38547e-06
-4.42394e-06
-5.30356e-06
-3.3765e-06
-5.16471e-06
-2.35099e-06
-4.97725e-06
-1.35943e-06