/*--------------------------------*- C++ -*----------------------------------*\
| =========                 |                                                 |
| \\      /  F ield         | OpenFOAM: The Open Source CFD Toolbox           |
|  \\    /   O peration     | Version:  2206                                  |
|   \\  /    A nd           | Website:  www.openfoam.com                      |
|    \\/     M anipulation  |                                                 |
\*---------------------------------------------------------------------------*/
FoamFile
{
    version     2.0;
    format      ascii;
    arch        "LSB;label=32;scalar=64";
    class       volVectorField;
    location    "0.025";
    object      U;
}
// * * * * * * * * * * * * * * * * * * * * * * * * * * * * * * * * * * * * * //

dimensions      [0 1 -1 0 0 0 0];

internalField   nonuniform List<vector> 
2268
(
(0.0100732 -0.00476042 0)
(0.0304666 -0.00489105 0)
(0.0514572 -0.0050344 0)
(0.0733213 -0.00530499 0)
(0.0965967 -0.00570523 0)
(0.121923 -0.00627944 0)
(0.150195 -0.00710528 0)
(0.18274 -0.00832727 0)
(0.222233 -0.0102297 0)
(0.267904 -0.0135844 0)
(0.362103 -0.0195074 0)
(0.347165 -0.0358035 0)
(0.495645 -0.0667071 0)
(0.768671 -0.0384822 0)
(0.896939 0.0232175 0)
(0.509275 0.0314328 0)
(0.350151 0.0285149 0)
(0.274945 0.0175597 0)
(0.211435 0.0124882 0)
(0.162236 0.0107874 0)
(0.117472 0.0104302 0)
(0.0722608 0.0108865 0)
(0.0246141 0.0115806 0)
(0.0100429 -0.0142548 0)
(0.0303735 -0.0146478 0)
(0.0512902 -0.0150746 0)
(0.0730618 -0.0158795 0)
(0.0962118 -0.0170686 0)
(0.121356 -0.0187707 0)
(0.149343 -0.0212114 0)
(0.181404 -0.0248037 0)
(0.219922 -0.030343 0)
(0.263715 -0.0398417 0)
(0.352468 -0.0559723 0)
(0.316865 -0.0947434 0)
(0.44732 -0.17446 0)
(0.933845 -0.029472 0)
(0.898947 0.106188 0)
(0.472532 0.122965 0)
(0.355703 0.088597 0)
(0.278427 0.0524702 0)
(0.215507 0.0377307 0)
(0.166448 0.032558 0)
(0.121316 0.0316144 0)
(0.0752466 0.033132 0)
(0.0257923 0.0352849 0)
(0.00996854 -0.0237083 0)
(0.0301418 -0.0243557 0)
(0.0508793 -0.0250581 0)
(0.0724348 -0.026381 0)
(0.0953039 -0.0283316 0)
(0.120056 -0.031114 0)
(0.147453 -0.0350823 0)
(0.178554 -0.0408685 0)
(0.215276 -0.0496482 0)
(0.25598 -0.0641169 0)
(0.33606 -0.0874584 0)
(0.283838 -0.138777 0)
(0.399966 -0.236115 0)
(0.720699 -0.0510144 0)
(0.527665 0.187969 0)
(0.331573 0.208661 0)
(0.313394 0.133394 0)
(0.258916 0.0822276 0)
(0.207214 0.0614523 0)
(0.162993 0.0535346 0)
(0.120445 0.0524028 0)
(0.0757661 0.0554371 0)
(0.0262716 0.059699 0)
(0.00985853 -0.0330761 0)
(0.0297993 -0.0339672 0)
(0.0502729 -0.0349316 0)
(0.0715123 -0.0367446 0)
(0.0939732 -0.0394095 0)
(0.118162 -0.0431925 0)
(0.144726 -0.0485464 0)
(0.174509 -0.0562536 0)
(0.208913 -0.0677051 0)
(0.24588 -0.0857845 0)
(0.31593 -0.113661 0)
(0.252572 -0.170448 0)
(0.353749 -0.261213 0)
(0.51785 -0.0850564 0)
(0.301346 0.218252 0)
(0.27024 0.232409 0)
(0.279537 0.153547 0)
(0.241148 0.104515 0)
(0.199668 0.0820392 0)
(0.160492 0.072848 0)
(0.121028 0.0721497 0)
(0.0779853 0.0773794 0)
(0.0276203 0.0849159 0)
(0.00971485 -0.0423255 0)
(0.0293523 -0.0434454 0)
(0.0494834 -0.0446533 0)
(0.070315 -0.0469195 0)
(0.0922545 -0.0502373 0)
(0.115734 -0.0549185 0)
(0.141273 -0.0614813 0)
(0.169488 -0.0707881 0)
(0.201298 -0.0842954 0)
(0.23431 -0.104741 0)
(0.294729 -0.134919 0)
(0.225534 -0.191153 0)
(0.314968 -0.269504 0)
(0.429647 -0.0459677 0)
(0.216898 0.232685 0)
(0.243744 0.227663 0)
(0.253158 0.163283 0)
(0.225335 0.121546 0)
(0.192069 0.0995019 0)
(0.15815 0.090184 0)
(0.122496 0.0905776 0)
(0.0818372 0.0988909 0)
(0.0299726 0.111668 0)
(0.00954006 -0.0514215 0)
(0.028809 -0.0527519 0)
(0.0485259 -0.0541809 0)
(0.0688686 -0.0568559 0)
(0.0901902 -0.0607537 0)
(0.112843 -0.0662147 0)
(0.137219 -0.0737895 0)
(0.163716 -0.0843585 0)
(0.192846 -0.0993284 0)
(0.222003 -0.121113 0)
(0.273911 -0.151884 0)
(0.202373 -0.204767 0)
(0.283238 -0.274354 0)
(0.375897 0.00105811 0)
(0.1852 0.238035 0)
(0.224036 0.220635 0)
(0.231996 0.170008 0)
(0.211286 0.134604 0)
(0.184809 0.114047 0)
(0.156217 0.105337 0)
(0.125125 0.107271 0)
(0.0880891 0.11963 0)
(0.0339185 0.141056 0)
(0.00933709 -0.060325 0)
(0.0281788 -0.061845 0)
(0.0474179 -0.0634697 0)
(0.0672021 -0.0665044 0)
(0.0878269 -0.0709033 0)
(0.109565 -0.0770192 0)
(0.132686 -0.0854075 0)
(0.157398 -0.0969186 0)
(0.183889 -0.112835 0)
(0.209474 -0.135181 0)
(0.2541 -0.165308 0)
(0.182311 -0.213966 0)
(0.256786 -0.277055 0)
(0.336201 0.0380281 0)
(0.168533 0.236771 0)
(0.207723 0.215859 0)
(0.214453 0.174662 0)
(0.198974 0.144571 0)
(0.178178 0.125915 0)
(0.154885 0.118089 0)
(0.129226 0.12164 0)
(0.0980227 0.138776 0)
(0.0405808 0.173758 0)
(0.00910844 -0.0691127 0)
(0.0274686 -0.0708045 0)
(0.0461723 -0.0726019 0)
(0.0653368 -0.0759514 0)
(0.0851983 -0.080779 0)
(0.105953 -0.0874355 0)
(0.127757 -0.0964588 0)
(0.150658 -0.108636 0)
(0.174596 -0.125082 0)
(0.196984 -0.147433 0)
(0.235302 -0.17608 0)
(0.16439 -0.220552 0)
(0.233635 -0.278189 0)
(0.296241 0.0718228 0)
(0.160387 0.234469 0)
(0.194132 0.211809 0)
(0.199788 0.177792 0)
(0.188251 0.152166 0)
(0.172228 0.135373 0)
(0.154136 0.128335 0)
(0.134875 0.133099 0)
(0.113163 0.156269 0)
(0.0474949 0.217866 0)
(0.00447355 -0.00230957 0)
(0.0126477 -0.00190888 0)
(0.018927 -0.00134002 0)
(0.0230689 -0.000808156 0)
(0.0253576 -0.000380662 0)
(0.0262077 -6.354e-05 0)
(0.0260126 0.000159937 0)
(0.0250893 0.000314587 0)
(0.0236631 0.000420851 0)
(0.0218954 0.00049308 0)
(0.0198968 0.000540434 0)
(0.0177422 0.000571242 0)
(0.015486 0.000592154 0)
(0.0131665 0.000606358 0)
(0.0108078 0.000615267 0)
(0.0084241 0.000620536 0)
(0.00602482 0.000623721 0)
(0.00361697 0.000625554 0)
(0.00120459 0.000627724 0)
(0.00473149 -0.00708106 0)
(0.0132961 -0.00583057 0)
(0.0197106 -0.00405722 0)
(0.0238291 -0.00242481 0)
(0.0260326 -0.00112632 0)
(0.0267867 -0.000171106 0)
(0.0265132 0.000500761 0)
(0.0255264 0.000965988 0)
(0.0240459 0.00128329 0)
(0.0222298 0.00149805 0)
(0.0201871 0.00164175 0)
(0.0179932 0.00173724 0)
(0.0157009 0.00180056 0)
(0.0133463 0.0018419 0)
(0.0109532 0.00186822 0)
(0.00853619 0.00188474 0)
(0.00610448 0.00189471 0)
(0.0036649 0.00189996 0)
(0.00121927 0.00189686 0)
(0.00519719 -0.0122027 0)
(0.0143778 -0.0098798 0)
(0.0208967 -0.00674592 0)
(0.0248497 -0.00395371 0)
(0.0268147 -0.00177994 0)
(0.0273507 -0.000203103 0)
(0.0269028 0.000896167 0)
(0.025789 0.00165573 0)
(0.0242193 0.00217257 0)
(0.022343 0.00252216 0)
(0.0202602 0.00275727 0)
(0.018039 0.00291365 0)
(0.0157281 0.00301613 0)
(0.0133617 0.00308265 0)
(0.0109616 0.00312579 0)
(0.00854054 0.00315309 0)
(0.00610619 0.00316882 0)
(0.00366526 0.0031765 0)
(0.00121929 0.00316968 0)
(0.00599373 -0.0179458 0)
(0.0161651 -0.0141353 0)
(0.0227712 -0.00936662 0)
(0.0264105 -0.0053232 0)
(0.0279842 -0.00227649 0)
(0.0281805 -0.000124614 0)
(0.0274759 0.00138399 0)
(0.026182 0.00241191 0)
(0.0244862 0.00310964 0)
(0.0225229 0.00358084 0)
(0.02038 0.00389598 0)
(0.0181178 0.00410448 0)
(0.0157797 0.00424158 0)
(0.0133955 0.00433148 0)
(0.0109833 0.0043895 0)
(0.00855345 0.00442492 0)
(0.00611298 0.00444439 0)
(0.00366826 0.00445372 0)
(0.0012201 0.00444359 0)
(0.00726978 -0.0246767 0)
(0.0188894 -0.0186385 0)
(0.0254473 -0.0118262 0)
(0.028537 -0.0064297 0)
(0.0295201 -0.00253324 0)
(0.0292554 0.000148871 0)
(0.0282202 0.00200384 0)
(0.0266848 0.00325972 0)
(0.024826 0.00410891 0)
(0.022751 0.00468049 0)
(0.0205317 0.00506217 0)
(0.0182181 0.00531512 0)
(0.0158458 0.00548174 0)
(0.0134383 0.00559024 0)
(0.01101 0.00565868 0)
(0.00856888 0.00569918 0)
(0.00612102 0.00572113 0)
(0.00367194 0.0057319 0)
(0.00122117 0.00571868 0)
(0.00924476 -0.0327651 0)
(0.0229205 -0.0233628 0)
(0.0290723 -0.0139575 0)
(0.0312464 -0.00713749 0)
(0.0314095 -0.00246218 0)
(0.0305405 0.000671947 0)
(0.0290913 0.0027873 0)
(0.0272749 0.00421784 0)
(0.0252238 0.00518274 0)
(0.0230178 0.00583116 0)
(0.0207095 0.00626412 0)
(0.0183356 0.00655094 0)
(0.0159225 0.00673889 0)
(0.0134873 0.00685954 0)
(0.0110398 0.00693393 0)
(0.00858579 0.00697706 0)
(0.0061299 0.00700036 0)
(0.00367617 0.00701204 0)
(0.00122244 0.00699534 0)
(0.0121855 -0.0440247 0)
(0.0287654 -0.0283506 0)
(0.0338102 -0.0154956 0)
(0.0345216 -0.00727033 0)
(0.0335876 -0.00196786 0)
(0.0319845 0.00145835 0)
(0.030061 0.00375631 0)
(0.0279282 0.00530257 0)
(0.0256634 0.00634313 0)
(0.0233124 0.0070415 0)
(0.0209055 0.0075072 0)
(0.0184647 0.00781459 0)
(0.016006 0.00801426 0)
(0.0135395 0.00814037 0)
(0.0110709 0.00821651 0)
(0.00860328 0.00825985 0)
(0.00613912 0.00828304 0)
(0.00368058 0.00829461 0)
(0.00122375 0.00827362 0)
(0.0231609 -0.0619864 0)
(0.0381559 -0.0331015 0)
(0.0399237 -0.0159363 0)
(0.0382979 -0.00663699 0)
(0.0359597 -0.00108052 0)
(0.0335177 0.002538 0)
(0.0310894 0.00492695 0)
(0.0286199 0.00652433 0)
(0.0261285 0.00759747 0)
(0.0236238 0.00831654 0)
(0.0211123 0.00879456 0)
(0.0186 0.00910806 0)
(0.0160925 0.00930926 0)
(0.0135929 0.00943401 0)
(0.0111022 0.00950761 0)
(0.00862059 0.00954846 0)
(0.0061481 0.00956964 0)
(0.00368469 0.00957957 0)
(0.00122489 0.00955313 0)
(0.00871922 -0.0821259 0)
(0.0262637 -0.0840285 0)
(0.0440683 -0.0860212 0)
(0.0622049 -0.0897239 0)
(0.0808242 -0.0950095 0)
(0.100018 -0.102199 0)
(0.119805 -0.111767 0)
(0.140054 -0.124363 0)
(0.16046 -0.140837 0)
(0.178914 -0.162304 0)
(0.209547 -0.188711 0)
(0.141577 -0.22683 0)
(0.203328 -0.280563 0)
(0.275995 0.092936 0)
(0.157633 0.229443 0)
(0.175715 0.208046 0)
(0.180523 0.181099 0)
(0.17367 0.159985 0)
(0.163851 0.145195 0)
(0.153622 0.138002 0)
(0.146888 0.140214 0)
(0.152837 0.156441 0)
(0.198436 0.203423 0)
(0.00811189 -0.0990594 0)
(0.0243947 -0.101172 0)
(0.0408288 -0.103349 0)
(0.0574315 -0.107376 0)
(0.0742559 -0.113053 0)
(0.0912869 -0.120643 0)
(0.10842 -0.130511 0)
(0.125402 -0.143119 0)
(0.141822 -0.158994 0)
(0.155918 -0.178701 0)
(0.179446 -0.20215 0)
(0.117223 -0.232694 0)
(0.172268 -0.283488 0)
(0.233968 0.144088 0)
(0.139108 0.224689 0)
(0.155391 0.204099 0)
(0.160361 0.183074 0)
(0.157486 0.165923 0)
(0.15315 0.152681 0)
(0.149366 0.144051 0)
(0.149322 0.140122 0)
(0.157005 0.139375 0)
(0.185138 0.134718 0)
(0.00746237 -0.114711 0)
(0.0224043 -0.116934 0)
(0.0374042 -0.119187 0)
(0.0524384 -0.123338 0)
(0.0674871 -0.12912 0)
(0.0824671 -0.136728 0)
(0.0972106 -0.146418 0)
(0.111424 -0.158483 0)
(0.124698 -0.173215 0)
(0.135596 -0.190856 0)
(0.154268 -0.211122 0)
(0.0981523 -0.236233 0)
(0.147488 -0.283494 0)
(0.198417 0.163932 0)
(0.125968 0.219464 0)
(0.138876 0.200295 0)
(0.143634 0.182965 0)
(0.143166 0.16819 0)
(0.141884 0.155628 0)
(0.141003 0.145427 0)
(0.142138 0.136913 0)
(0.146624 0.127788 0)
(0.156107 0.113796 0)
(0.00679764 -0.129041 0)
(0.0203764 -0.131293 0)
(0.0339391 -0.133537 0)
(0.0474351 -0.13766 0)
(0.0607946 -0.14334 0)
(0.0738966 -0.150709 0)
(0.0865498 -0.15993 0)
(0.0984667 -0.171168 0)
(0.109284 -0.184554 0)
(0.117857 -0.200144 0)
(0.133055 -0.217571 0)
(0.0828596 -0.238564 0)
(0.127094 -0.282839 0)
(0.171313 0.175913 0)
(0.114629 0.214238 0)
(0.124793 0.196467 0)
(0.129163 0.181566 0)
(0.129984 0.168302 0)
(0.130239 0.15619 0)
(0.130531 0.14517 0)
(0.131585 0.13463 0)
(0.133774 0.123189 0)
(0.136517 0.10894 0)
(0.00613945 -0.142041 0)
(0.0183764 -0.144257 0)
(0.0305434 -0.146431 0)
(0.0425741 -0.150415 0)
(0.054368 -0.155851 0)
(0.065788 -0.162818 0)
(0.0766424 -0.171407 0)
(0.0866713 -0.181691 0)
(0.0955713 -0.193701 0)
(0.102435 -0.207394 0)
(0.115037 -0.222396 0)
(0.0703634 -0.240178 0)
(0.109972 -0.281937 0)
(0.148328 0.182198 0)
(0.103355 0.209504 0)
(0.112009 0.192842 0)
(0.116119 0.179539 0)
(0.117623 0.167335 0)
(0.118603 0.155701 0)
(0.119308 0.144523 0)
(0.120028 0.133394 0)
(0.120782 0.121579 0)
(0.120957 0.108252 0)
(0.00550357 -0.153738 0)
(0.0164514 -0.155872 0)
(0.027293 -0.157936 0)
(0.0379562 -0.161708 0)
(0.048324 -0.166815 0)
(0.0582569 -0.17329 0)
(0.0675754 -0.181173 0)
(0.0760541 -0.190478 0)
(0.0834458 -0.201174 0)
(0.0890298 -0.213172 0)
(0.0996212 -0.226127 0)
(0.0600075 -0.241337 0)
(0.0953954 -0.280828 0)
(0.128355 0.184358 0)
(0.0924574 0.204714 0)
(0.100196 0.189239 0)
(0.104125 0.177164 0)
(0.105988 0.165844 0)
(0.107284 0.154778 0)
(0.108086 0.143864 0)
(0.108502 0.132866 0)
(0.108483 0.121433 0)
(0.107647 0.109285 0)
(0.00490044 -0.16419 0)
(0.0146313 -0.166208 0)
(0.0242352 -0.16814 0)
(0.0336399 -0.171661 0)
(0.0427231 -0.176393 0)
(0.0513507 -0.182342 0)
(0.0593612 -0.189507 0)
(0.0665627 -0.197864 0)
(0.0727557 -0.207352 0)
(0.0773626 -0.21786 0)
(0.0863524 -0.229085 0)
(0.0513334 -0.24219 0)
(0.0828646 -0.279532 0)
(0.110954 0.183892 0)
(0.0822136 0.19977 0)
(0.0892882 0.185586 0)
(0.0930586 0.174606 0)
(0.0950891 0.164127 0)
(0.0964857 0.153717 0)
(0.0972575 0.143306 0)
(0.0974579 0.132775 0)
(0.0970575 0.121988 0)
(0.0958536 0.110893 0)
(0.00433603 -0.173468 0)
(0.0129327 -0.175353 0)
(0.0213935 -0.177143 0)
(0.0296513 -0.180398 0)
(0.037585 -0.184744 0)
(0.0450711 -0.190165 0)
(0.0519671 -0.196638 0)
(0.0581113 -0.204114 0)
(0.0633415 -0.212514 0)
(0.0671891 -0.221723 0)
(0.0748785 -0.23148 0)
(0.0440092 -0.242829 0)
(0.0720211 -0.278068 0)
(0.0957324 0.181916 0)
(0.0727621 0.194727 0)
(0.079299 0.181906 0)
(0.0828996 0.171986 0)
(0.0849618 0.162358 0)
(0.0863308 0.152667 0)
(0.087009 0.142874 0)
(0.0870498 0.132941 0)
(0.0864645 0.122841 0)
(0.0851626 0.112618 0)
(0.00381256 -0.181652 0)
(0.011361 -0.183395 0)
(0.0187738 -0.185046 0)
(0.0259922 -0.188037 0)
(0.0329011 -0.192008 0)
(0.0393898 -0.196929 0)
(0.0453345 -0.202759 0)
(0.0505991 -0.209436 0)
(0.0550502 -0.216871 0)
(0.0583011 -0.224951 0)
(0.0649225 -0.233453 0)
(0.0377878 -0.243315 0)
(0.0625998 -0.276444 0)
(0.0824101 0.179006 0)
(0.0642199 0.189651 0)
(0.0702768 0.178254 0)
(0.0736696 0.169408 0)
(0.0756437 0.160662 0)
(0.0768783 0.151726 0)
(0.0774031 0.142589 0)
(0.0772959 0.13327 0)
(0.0766062 0.12381 0)
(0.0753121 0.114296 0)
(0.00332937 -0.188824 0)
(0.00991329 -0.190425 0)
(0.0163687 -0.191948 0)
(0.022647 -0.19469 0)
(0.0286429 -0.198313 0)
(0.0342594 -0.202777 0)
(0.0393904 -0.208028 0)
(0.0439215 -0.213994 0)
(0.0477405 -0.220583 0)
(0.0505221 -0.227685 0)
(0.0562647 -0.235106 0)
(0.0324818 -0.243687 0)
(0.0543958 -0.27467 0)
(0.0707945 0.175443 0)
(0.0566912 0.184593 0)
(0.0622959 0.174701 0)
(0.0654134 0.166987 0)
(0.0671639 0.159162 0)
(0.0681425 0.150988 0)
(0.0684322 0.142491 0)
(0.068148 0.133738 0)
(0.067369 0.124825 0)
(0.0661112 0.115871 0)
(0.0028838 -0.195064 0)
(0.00858075 -0.196528 0)
(0.0141613 -0.197938 0)
(0.0195886 -0.200456 0)
(0.024769 -0.20377 0)
(0.0296206 -0.207829 0)
(0.0340542 -0.212574 0)
(0.0379738 -0.217924 0)
(0.0412837 -0.223781 0)
(0.0437031 -0.230036 0)
(0.0487309 -0.236519 0)
(0.0279482 -0.243974 0)
(0.0472391 -0.272776 0)
(0.0607919 0.17126 0)
(0.0503175 0.17957 0)
(0.0554775 0.171341 0)
(0.0581989 0.16487 0)
(0.0595416 0.158009 0)
(0.060101 0.150578 0)
(0.0600388 0.142652 0)
(0.0595132 0.134366 0)
(0.0586234 0.125872 0)
(0.0573981 0.117328 0)
(0.0024718 -0.200442 0)
(0.00735041 -0.201776 0)
(0.0121281 -0.203095 0)
(0.0167807 -0.205421 0)
(0.0212288 -0.208471 0)
(0.0254056 -0.212189 0)
(0.0292395 -0.216508 0)
(0.0326521 -0.221339 0)
(0.0355608 -0.226577 0)
(0.0377164 -0.232105 0)
(0.0421864 -0.23777 0)
(0.0240824 -0.244196 0)
(0.0409972 -0.270846 0)
(0.0524789 0.16619 0)
(0.0453671 0.174567 0)
(0.0500333 0.168335 0)
(0.0521259 0.163292 0)
(0.0527797 0.15743 0)
(0.0526861 0.150668 0)
(0.0521116 0.14318 0)
(0.051256 0.135204 0)
(0.0502192 0.126966 0)
(0.0490183 0.118671 0)
(0.00208827 -0.205026 0)
(0.00620623 -0.206242 0)
(0.0102406 -0.207492 0)
(0.0141809 -0.209664 0)
(0.0179632 -0.212503 0)
(0.0215382 -0.215952 0)
(0.0248529 -0.219935 0)
(0.0278487 -0.224354 0)
(0.0304574 -0.229091 0)
(0.0324499 -0.234009 0)
(0.0365378 -0.238956 0)
(0.0208197 -0.244374 0)
(0.0355822 -0.26913 0)
(0.0460271 0.159539 0)
(0.0424349 0.169616 0)
(0.0463461 0.166008 0)
(0.047325 0.162647 0)
(0.0468358 0.157763 0)
(0.0457579 0.151493 0)
(0.0444709 0.144211 0)
(0.0431905 0.136314 0)
(0.0419791 0.128123 0)
(0.0408112 0.119896 0)
(0.0017271 -0.208884 0)
(0.00512958 -0.209992 0)
(0.00846625 -0.211199 0)
(0.0117406 -0.213257 0)
(0.0149058 -0.215942 0)
(0.0179322 -0.219198 0)
(0.02079 -0.222944 0)
(0.0234446 -0.227072 0)
(0.0258509 -0.231443 0)
(0.027797 -0.235888 0)
(0.0317496 -0.240223 0)
(0.0181523 -0.244527 0)
(0.0310095 -0.268228 0)
(0.0426446 0.14983 0)
(0.0427825 0.165099 0)
(0.0450139 0.165032 0)
(0.0439107 0.163605 0)
(0.0415517 0.159494 0)
(0.0390458 0.153331 0)
(0.0368318 0.14587 0)
(0.0350607 0.137722 0)
(0.0336907 0.129321 0)
(0.0326072 0.120966 0)
(0.00138325 -0.211806 0)
(0.00410251 -0.212822 0)
(0.00677104 -0.214008 0)
(0.00940967 -0.215985 0)
(0.0119879 -0.218568 0)
(0.0144954 -0.221702 0)
(0.016932 -0.225308 0)
(0.019298 -0.229271 0)
(0.0215877 -0.233422 0)
(0.0236144 -0.23755 0)
(0.0278565 -0.241444 0)
(0.0161674 -0.244533 0)
(0.0276507 -0.267706 0)
(0.0535823 0.137051 0)
(0.0489847 0.162946 0)
(0.0467323 0.167098 0)
(0.0418214 0.167299 0)
(0.0364931 0.163263 0)
(0.032045 0.156475 0)
(0.028759 0.148229 0)
(0.0265311 0.139385 0)
(0.0251117 0.13047 0)
(0.0242363 0.12179 0)
(0.00104397 -0.213907 0)
(0.00310409 -0.214828 0)
(0.00513387 -0.216022 0)
(0.0071533 -0.217959 0)
(0.00915581 -0.220502 0)
(0.0111523 -0.223608 0)
(0.0131761 -0.227211 0)
(0.0152824 -0.231202 0)
(0.0175242 -0.235358 0)
(0.0197239 -0.239426 0)
(0.0248143 -0.243062 0)
(0.0149053 -0.244048 0)
(0.0238739 -0.285288 0)
(0.0676765 0.122628 0)
(0.0626237 0.166861 0)
(0.0513782 0.174975 0)
(0.0401141 0.175379 0)
(0.0306493 0.169804 0)
(0.0239109 0.161131 0)
(0.0196289 0.151222 0)
(0.0171841 0.141137 0)
(0.0159789 0.131388 0)
(0.0155408 0.122206 0)
(0.000737359 -0.221515 0)
(0.00217997 -0.222382 0)
(0.00359096 -0.223657 0)
(0.00502335 -0.22567 0)
(0.00646477 -0.228334 0)
(0.00794775 -0.231631 0)
(0.00953751 -0.235536 0)
(0.0113877 -0.240005 0)
(0.0135798 -0.244846 0)
(0.0163602 -0.249878 0)
(0.0228856 -0.254541 0)
(0.0146217 -0.245661 0)
(0.0301577 -0.394994 0)
(0.0923469 0.0758392 0)
(0.087342 0.186322 0)
(0.0575114 0.193493 0)
(0.0366952 0.189775 0)
(0.0221363 0.179576 0)
(0.0133374 0.167113 0)
(0.00863164 0.154461 0)
(0.00656484 0.142588 0)
(0.00605693 0.13175 0)
(0.0064109 0.121969 0)
(0.000440488 -0.219204 0)
(0.00140087 -0.219974 0)
(0.00229144 -0.221177 0)
(0.003225 -0.223042 0)
(0.00417622 -0.225519 0)
(0.0051712 -0.228608 0)
(0.00626429 -0.232322 0)
(0.00764589 -0.2367 0)
(0.00908039 -0.24193 0)
(0.0129468 -0.247853 0)
(0.0220372 -0.256874 0)
(0.0199942 -0.238036 0)
(0.161374 -0.281107 0)
(-0.00805564 0.0668235 0)
(0.113851 0.224275 0)
(0.0581415 0.222263 0)
(0.0264014 0.211166 0)
(0.00780886 0.192205 0)
(-0.00136468 0.173433 0)
(-0.00504714 0.157027 0)
(-0.00566762 0.143019 0)
(-0.00476918 0.131054 0)
(-0.00315878 0.120747 0)
(-8.83671e-05 -0.134878 0)
(-0.000471187 -0.13536 0)
(-0.000769607 -0.136242 0)
(-0.00110202 -0.13757 0)
(-0.00145493 -0.13935 0)
(-0.00182828 -0.141601 0)
(-0.00222233 -0.14437 0)
(-0.00260629 -0.147764 0)
(-0.00257617 -0.152065 0)
(-0.00585698 -0.158237 0)
(0.0112436 -0.166382 0)
(0.0167252 -0.239799 0)
(0.312939 -0.192483 0)
(0.747656 0.0117392 0)
(0.295142 0.329894 0)
(0.0468816 0.305133 0)
(0.00687443 0.244436 0)
(-0.0158564 0.205269 0)
(-0.0220434 0.177638 0)
(-0.0219595 0.157208 0)
(-0.0195623 0.14138 0)
(-0.0163489 0.12868 0)
(-0.0129824 0.118173 0)
(-0.00224439 -0.302172 0)
(-0.0148953 -0.302863 0)
(-0.0237923 -0.304642 0)
(-0.0336851 -0.307192 0)
(-0.0437842 -0.310671 0)
(-0.0539502 -0.315218 0)
(-0.0640804 -0.321189 0)
(-0.0718618 -0.329198 0)
(-0.0686465 -0.338513 0)
(-0.100725 -0.36527 0)
(0.0155038 -0.392582 0)
(0.0264286 -0.752552 0)
(-0.249684 -0.979677 0)
(0.121458 0.304904 0)
(-0.240121 0.48739 0)
(-0.10249 0.354627 0)
(-0.0709623 0.259212 0)
(-0.0592368 0.206795 0)
(-0.049705 0.174586 0)
(-0.0415249 0.152649 0)
(-0.0343695 0.136556 0)
(-0.0281123 0.124071 0)
(-0.0226619 0.113963 0)
(-0.00511518 -0.19052 0)
(-0.0151444 -0.190717 0)
(-0.0251979 -0.191557 0)
(-0.0357005 -0.192828 0)
(-0.0467098 -0.194707 0)
(-0.0583228 -0.197482 0)
(-0.0708005 -0.201755 0)
(-0.0831363 -0.208376 0)
(-0.0974101 -0.221049 0)
(-0.130648 -0.250868 0)
(-0.0929805 -0.267782 0)
(-0.28387 -0.385767 0)
(-0.603981 -0.383801 0)
(-0.537714 0.237155 0)
(-0.420181 0.35568 0)
(-0.225921 0.283468 0)
(-0.143482 0.225019 0)
(-0.101313 0.186742 0)
(-0.0765869 0.160675 0)
(-0.0602412 0.142034 0)
(-0.0483213 0.128024 0)
(-0.0390735 0.117016 0)
(-0.0316099 0.108043 0)
(-0.00521324 -0.193661 0)
(-0.015648 -0.194338 0)
(-0.0262559 -0.194935 0)
(-0.0373178 -0.19594 0)
(-0.0490455 -0.197414 0)
(-0.0617339 -0.19953 0)
(-0.075834 -0.202628 0)
(-0.0917963 -0.207142 0)
(-0.113156 -0.215062 0)
(-0.143623 -0.226062 0)
(-0.171944 -0.232877 0)
(-0.27588 -0.300972 0)
(-0.418947 -0.216823 0)
(-0.441804 0.0106609 0)
(-0.336178 0.153571 0)
(-0.235839 0.176242 0)
(-0.168287 0.167902 0)
(-0.124063 0.153139 0)
(-0.0947233 0.138823 0)
(-0.0743917 0.126582 0)
(-0.0595474 0.116387 0)
(-0.0482084 0.107864 0)
(-0.0392273 0.100635 0)
(-0.00527908 -0.182142 0)
(-0.0159165 -0.182682 0)
(-0.0268006 -0.182901 0)
(-0.0381798 -0.183288 0)
(-0.0503 -0.183862 0)
(-0.0635431 -0.184648 0)
(-0.0784146 -0.18574 0)
(-0.0956035 -0.187168 0)
(-0.117391 -0.189149 0)
(-0.144321 -0.189214 0)
(-0.178686 -0.184715 0)
(-0.242289 -0.183633 0)
(-0.305627 -0.116618 0)
(-0.311031 -0.0049282 0)
(-0.266708 0.0709175 0)
(-0.213203 0.106773 0)
(-0.166757 0.118756 0)
(-0.130563 0.119172 0)
(-0.103313 0.114849 0)
(-0.0828225 0.109023 0)
(-0.0671591 0.103036 0)
(-0.0549151 0.0973831 0)
(-0.0451178 0.0922 0)
(-0.00527591 -0.171592 0)
(-0.0159349 -0.17195 0)
(-0.0268649 -0.171811 0)
(-0.0382805 -0.171588 0)
(-0.0504075 -0.171252 0)
(-0.0636173 -0.170735 0)
(-0.0783527 -0.169887 0)
(-0.0952175 -0.168462 0)
(-0.115269 -0.165973 0)
(-0.138969 -0.160342 0)
(-0.168112 -0.150681 0)
(-0.205171 -0.132535 0)
(-0.235516 -0.0827366 0)
(-0.23907 -0.0178768 0)
(-0.21842 0.0333521 0)
(-0.187444 0.065593 0)
(-0.155866 0.0828742 0)
(-0.128029 0.0905041 0)
(-0.104953 0.0925636 0)
(-0.0862886 0.0916794 0)
(-0.0712657 0.0893616 0)
(-0.0591073 0.0864227 0)
(-0.0491564 0.0832769 0)
(-0.00519055 -0.161032 0)
(-0.0156861 -0.16121 0)
(-0.0264337 -0.160717 0)
(-0.0376126 -0.159924 0)
(-0.0494334 -0.15875 0)
(-0.0621617 -0.157079 0)
(-0.0761132 -0.154634 0)
(-0.0916584 -0.151041 0)
(-0.109204 -0.145578 0)
(-0.128879 -0.13689 0)
(-0.150851 -0.123629 0)
(-0.17375 -0.102121 0)
(-0.190312 -0.066821 0)
(-0.19273 -0.0251001 0)
(-0.181817 0.0117492 0)
(-0.16312 0.0390536 0)
(-0.141674 0.0569982 0)
(-0.120838 0.0676894 0)
(-0.102152 0.0733738 0)
(-0.0860584 0.0758415 0)
(-0.0724574 0.0763402 0)
(-0.0610387 0.0756777 0)
(-0.0514378 0.0743534 0)
(-0.00503126 -0.150727 0)
(-0.0151926 -0.150736 0)
(-0.0255644 -0.149933 0)
(-0.0362939 -0.148657 0)
(-0.0475373 -0.146802 0)
(-0.0594697 -0.144202 0)
(-0.072274 -0.140586 0)
(-0.0861065 -0.13555 0)
(-0.101036 -0.12847 0)
(-0.116888 -0.118434 0)
(-0.133121 -0.104378 0)
(-0.148064 -0.0845618 0)
(-0.158087 -0.0579878 0)
(-0.159933 -0.028317 0)
(-0.153736 -0.000854253 0)
(-0.141865 0.0216907 0)
(-0.127058 0.0384246 0)
(-0.111573 0.0499875 0)
(-0.09677 0.0574879 0)
(-0.0833191 0.0620287 0)
(-0.0714415 0.0645129 0)
(-0.0611131 0.0656115 0)
(-0.052186 0.0657968 0)
(-0.00480423 -0.140828 0)
(-0.0144884 -0.140688 0)
(-0.0243353 -0.139638 0)
(-0.0344554 -0.137985 0)
(-0.0449457 -0.135616 0)
(-0.0559048 -0.132366 0)
(-0.0674107 -0.127991 0)
(-0.0794764 -0.122144 0)
(-0.0919975 -0.114362 0)
(-0.104656 -0.104057 0)
(-0.116787 -0.0905992 0)
(-0.127124 -0.0733666 0)
(-0.133788 -0.0525246 0)
(-0.135287 -0.0300509 0)
(-0.131474 -0.0086118 0)
(-0.123592 0.0100654 0)
(-0.113214 0.0250355 0)
(-0.101676 0.0363933 0)
(-0.0900551 0.0446101 0)
(-0.0790057 0.0503115 0)
(-0.0688649 0.0540993 0)
(-0.0597583 0.0564784 0)
(-0.0516761 0.0578454 0)
(-0.00452081 -0.131445 0)
(-0.0136222 -0.131185 0)
(-0.0228396 -0.129959 0)
(-0.0322422 -0.128039 0)
(-0.0418815 -0.125326 0)
(-0.0517974 -0.121674 0)
(-0.0619947 -0.116884 0)
(-0.0724068 -0.110695 0)
(-0.0828568 -0.102792 0)
(-0.0930035 -0.092827 0)
(-0.102272 -0.0805 0)
(-0.1098 -0.0656816 0)
(-0.114559 -0.0487619 0)
(-0.115797 -0.0308963 0)
(-0.11339 -0.0135567 0)
(-0.108027 0.00199939 0)
(-0.100585 0.0152602 0)
(-0.0918968 0.0259612 0)
(-0.0827846 0.0342754 0)
(-0.0737876 0.0405345 0)
(-0.0652501 0.0451162 0)
(-0.057359 0.0483772 0)
(-0.0501816 0.0506269 0)
(-0.00419798 -0.122664 0)
(-0.0126445 -0.122321 0)
(-0.0211646 -0.120978 0)
(-0.0297899 -0.118893 0)
(-0.0385399 -0.115983 0)
(-0.0474139 -0.112131 0)
(-0.0563723 -0.107187 0)
(-0.0653112 -0.100971 0)
(-0.0740397 -0.0932863 0)
(-0.0822529 -0.0839516 0)
(-0.0895068 -0.0728603 0)
(-0.0952302 -0.0600759 0)
(-0.098831 -0.0459742 0)
(-0.0999075 -0.0312879 0)
(-0.0984124 -0.0169124 0)
(-0.0946138 -0.00367852 0)
(-0.0891244 0.00804257 0)
(-0.0825637 0.0179285 0)
(-0.0754108 0.0260137 0)
(-0.0681147 0.0324534 0)
(-0.0609881 0.0374708 0)
(-0.054231 0.0413055 0)
(-0.0479465 0.0441877 0)
(-0.00385347 -0.114549 0)
(-0.0116022 -0.114153 0)
(-0.0193871 -0.112749 0)
(-0.027213 -0.110582 0)
(-0.0350771 -0.10759 0)
(-0.0429519 -0.103689 0)
(-0.0507759 -0.0987718 0)
(-0.0584355 -0.0927244 0)
(-0.0657528 -0.0854373 0)
(-0.0724766 -0.0768327 0)
(-0.0782791 -0.0669068 0)
(-0.0827821 -0.0557864 0)
(-0.0856292 -0.0437842 0)
(-0.0865916 -0.0313947 0)
(-0.0856415 -0.0191938 0)
(-0.0829371 -0.00770937 0)
(-0.0788682 0.00263803 0)
(-0.0738355 0.0117057 0)
(-0.0681891 0.0194104 0)
(-0.0622766 0.0258078 0)
(-0.0563576 0.0310208 0)
(-0.0506188 0.0352032 0)
(-0.0451738 0.0385199 0)
(-0.00350002 -0.107141 0)
(-0.0105314 -0.106716 0)
(-0.0175681 -0.105289 0)
(-0.0245991 -0.103105 0)
(-0.0316069 -0.100119 0)
(-0.0385477 -0.0962723 0)
(-0.0453516 -0.0914974 0)
(-0.0519103 -0.0857282 0)
(-0.0580701 -0.078914 0)
(-0.0636319 -0.071039 0)
(-0.0683579 -0.0621492 0)
(-0.0719948 -0.0523828 0)
(-0.0743198 -0.041991 0)
(-0.075196 -0.0313235 0)
(-0.0746101 -0.0207747 0)
(-0.0726739 -0.0107175 0)
(-0.0696102 -0.00146698 0)
(-0.0657079 0.00685243 0)
(-0.0612399 0.0141238 0)
(-0.0564486 0.0203566 0)
(-0.0515484 0.0256114 0)
(-0.0467036 0.0299821 0)
(-0.0420248 0.0335829 0)
(-0.00314638 -0.10045 0)
(-0.00945822 -0.100013 0)
(-0.0157536 -0.0985957 0)
(-0.0220127 -0.0964422 0)
(-0.0282069 -0.0935204 0)
(-0.0342859 -0.0897944 0)
(-0.0401794 -0.0852267 0)
(-0.0457908 -0.0797859 0)
(-0.0509929 -0.0734591 0)
(-0.0556309 -0.0662655 0)
(-0.0595327 -0.0582721 0)
(-0.0625262 -0.04961 0)
(-0.0644674 -0.0404795 0)
(-0.0652718 -0.0311383 0)
(-0.064935 -0.0218696 0)
(-0.0635351 -0.0129444 0)
(-0.0612086 -0.00458895 0)
(-0.0581685 0.00304903 0)
(-0.0546183 0.00988305 0)
(-0.0507327 0.0158914 0)
(-0.0466853 0.0210944 0)
(-0.0426153 0.025545 0)
(-0.0386232 0.0293194 0)
(-0.00279843 -0.0944701 0)
(-0.00840231 -0.0940327 0)
(-0.0139759 -0.0926483 0)
(-0.0194958 -0.0905553 0)
(-0.0249248 -0.0877342 0)
(-0.0302131 -0.0841663 0)
(-0.0352948 -0.079836 0)
(-0.0400866 -0.0747363 0)
(-0.0444855 -0.0688774 0)
(-0.0483726 -0.0622967 0)
(-0.0516227 -0.0550682 0)
(-0.0541166 -0.0473094 0)
(-0.0557591 -0.039182 0)
(-0.0564963 -0.0308823 0)
(-0.0563284 -0.0226219 0)
(-0.0553099 -0.0146037 0)
(-0.0535388 -0.00700195 0)
(-0.0511645 4.23889e-05 0)
(-0.0483332 0.00647339 0)
(-0.0451811 0.0122377 0)
(-0.0418466 0.0173367 0)
(-0.0384439 0.0217965 0)
(-0.0350606 0.025666 0)
(-0.0024592 -0.0891848 0)
(-0.00737624 -0.088754 0)
(-0.0122556 -0.0874166 0)
(-0.0170725 -0.0854013 0)
(-0.0217861 -0.0826999 0)
(-0.0263498 -0.0793066 0)
(-0.0307048 -0.0752208 0)
(-0.0347806 -0.0704513 0)
(-0.0384948 -0.0650223 0)
(-0.0417565 -0.0589799 0)
(-0.0444742 -0.0523979 0)
(-0.0465642 -0.0453799 0)
(-0.0479618 -0.0380584 0)
(-0.0486323 -0.0305879 0)
(-0.0485784 -0.0231317 0)
(-0.0478407 -0.0158477 0)
(-0.0464929 -0.0088751 0)
(-0.0446253 -0.00232771 0)
(-0.042361 0.00373419 0)
(-0.0398138 0.00925458 0)
(-0.0370778 0.0142236 0)
(-0.0342492 0.018649 0)
(-0.0314031 0.0225599 0)
(-0.00213085 -0.0845712 0)
(-0.0063873 -0.084152 0)
(-0.0106036 -0.0828678 0)
(-0.0147547 -0.0809378 0)
(-0.0188003 -0.0783626 0)
(-0.0226984 -0.075145 0)
(-0.0263979 -0.0712946 0)
(-0.0298403 -0.0668303 0)
(-0.0329602 -0.0617842 0)
(-0.0356886 -0.0562061 0)
(-0.037958 -0.0501662 0)
(-0.0397088 -0.0437558 0)
(-0.0408964 -0.0370855 0)
(-0.0414982 -0.0302799 0)
(-0.0415177 -0.0234694 0)
(-0.0409853 -0.01678 0)
(-0.0399544 -0.0103243 0)
(-0.0384923 -0.00419412 0)
(-0.0366921 0.00153569 0)
(-0.0346372 0.00682711 0)
(-0.0324035 0.0116586 0)
(-0.0300694 0.0160254 0)
(-0.0276969 0.0199426 0)
(-0.00181506 -0.0806048 0)
(-0.00543875 -0.0802 0)
(-0.00902321 -0.0789695 0)
(-0.0125443 -0.0771251 0)
(-0.0159649 -0.0746726 0)
(-0.0192482 -0.071621 0)
(-0.0223509 -0.0679867 0)
(-0.0252253 -0.0637948 0)
(-0.0278202 -0.0590815 0)
(-0.0300832 -0.0538973 0)
(-0.0319643 -0.0483079 0)
(-0.0334206 -0.0423938 0)
(-0.034421 -0.0362493 0)
(-0.0349507 -0.0299777 0)
(-0.0350135 -0.023686 0)
(-0.0346324 -0.0174779 0)
(-0.0338466 -0.0114476 0)
(-0.0327077 -0.00567525 0)
(-0.0312834 -0.000227797 0)
(-0.0296377 0.00486298 0)
(-0.0278312 0.00956209 0)
(-0.0259262 0.01386 0)
(-0.0239727 0.0177622 0)
(-0.00151205 -0.0772605 0)
(-0.00453007 -0.0768702 0)
(-0.00751215 -0.0756907 0)
(-0.0104361 -0.0739263 0)
(-0.0132692 -0.0715863 0)
(-0.0159803 -0.0686844 0)
(-0.0185341 -0.0652409 0)
(-0.0208922 -0.0612846 0)
(-0.0230149 -0.0568536 0)
(-0.0248627 -0.0519975 0)
(-0.0263985 -0.0467771 0)
(-0.0275914 -0.0412646 0)
(-0.0284196 -0.0355416 0)
(-0.0288735 -0.0296963 0)
(-0.0289569 -0.023819 0)
(-0.0286872 -0.0179973 0)
(-0.0280942 -0.0123119 0)
(-0.0272179 -0.00683284 0)
(-0.0260996 -0.00161871 0)
(-0.0247958 0.00329357 0)
(-0.023359 0.0078705 0)
(-0.0218298 0.0120977 0)
(-0.0202497 0.0159737 0)
(-0.00122091 -0.0745127 0)
(-0.00365803 -0.0741362 0)
(-0.00606415 -0.0730023 0)
(-0.00841952 -0.0713085 0)
(-0.0106971 -0.0690669 0)
(-0.0128715 -0.066294 0)
(-0.0149146 -0.0630127 0)
(-0.0167965 -0.0592535 0)
(-0.018487 -0.0550552 0)
(-0.0199565 -0.0504654 0)
(-0.0211779 -0.045541 0)
(-0.022129 -0.0403475 0)
(-0.022795 -0.0349574 0)