/*--------------------------------*- C++ -*----------------------------------*\
| =========                 |                                                 |
| \\      /  F ield         | OpenFOAM: The Open Source CFD Toolbox           |
|  \\    /   O peration     | Version:  2206                                  |
|   \\  /    A nd           | Website:  www.openfoam.com                      |
|    \\/     M anipulation  |                                                 |
\*---------------------------------------------------------------------------*/
FoamFile
{
    version     2.0;
    format      ascii;
    arch        "LSB;label=32;scalar=64";
    class       surfaceScalarField;
    location    "0.325";
    object      alphaPhi0.water;
}
// * * * * * * * * * * * * * * * * * * * * * * * * * * * * * * * * * * * * * //

dimensions      [0 3 -1 0 0 0 0];

oriented        oriented;

internalField   nonuniform List<scalar> 
4432
(
-2.3127e-06
2.31269e-06
1.18512e-06
-3.49782e-06
5.92989e-06
-4.74478e-06
9.76453e-06
-3.83464e-06
1.23368e-05
-2.57225e-06
1.40218e-05
-1.68503e-06
1.52278e-05
-1.20596e-06
1.61661e-05
-9.38359e-07
1.68743e-05
-7.08174e-07
1.7299e-05
-4.24679e-07
1.73787e-05
-7.9757e-08
1.70368e-05
3.41899e-07
1.6212e-05
8.24826e-07
1.48768e-05
1.33523e-06
1.30218e-05
1.85501e-06
1.06674e-05
2.35441e-06
7.91608e-06
2.75128e-06
4.89892e-06
3.01715e-06
1.9262e-06
2.97272e-06
-3.42996e-07
2.2692e-06
-1.13788e-06
7.94884e-07
6.61597e-07
-1.82423e-06
5.75485e-07
-2.05179e-06
4.36449e-06
1.36993e-06
-6.91953e-06
6.09392e-06
-9.46877e-06
9.99517e-06
-7.73588e-06
1.27148e-05
-5.29185e-06
1.46113e-05
-3.5816e-06
1.60695e-05
-2.66411e-06
1.72837e-05
-2.15259e-06
1.82946e-05
-1.71906e-06
1.90781e-05
-1.20823e-06
1.95805e-05
-5.82089e-07
1.9773e-05
1.49396e-07
1.97133e-05
8.84473e-07
1.9378e-05
1.67059e-06
1.875e-05
2.48299e-06
1.78096e-05
3.29481e-06
1.65155e-05
4.04531e-06
1.48992e-05
4.63345e-06
1.29477e-05
4.92429e-06
1.05471e-05
4.66907e-06
7.67232e-06
3.66884e-06
4.00017e-06
1.84791e-06
4.54426e-06
-1.37881e-06
5.74329e-06
1.8162e-06
-1.01145e-05
6.48367e-06
-1.41362e-05
1.05216e-05
-1.17738e-05
1.35196e-05
-8.28987e-06
1.57765e-05
-5.8385e-06
1.76145e-05
-4.50207e-06
1.91808e-05
-3.71892e-06
2.04882e-05
-3.0265e-06
2.1496e-05
-2.21605e-06
2.21633e-05
-1.24935e-06
2.24613e-05
-1.48622e-07
2.23659e-05
9.79918e-07
2.19003e-05
2.13619e-06
2.10847e-05
3.29851e-06
1.99474e-05
4.43211e-06
1.85132e-05
5.47952e-06
1.67898e-05
6.35684e-06
1.46541e-05
7.06e-06
1.17011e-05
7.6219e-06
7.61339e-06
7.75576e-06
2.89295e-06
6.56833e-06
7.53638e-06
-2.68532e-07
6.01182e-06
2.80706e-06
-1.31901e-05
7.40844e-06
-1.87376e-05
1.16178e-05
-1.59831e-05
1.49993e-05
-1.16714e-05
1.77645e-05
-8.60371e-06
2.01492e-05
-6.88684e-06
2.22463e-05
-5.81603e-06
2.40438e-05
-4.82399e-06
2.54882e-05
-3.66042e-06
2.65187e-05
-2.27987e-06
2.70834e-05
-7.13294e-07
2.71294e-05
9.3389e-07
2.666e-05
2.60559e-06
2.5648e-05
4.31057e-06
2.40852e-05
5.99486e-06
2.19762e-05
7.58859e-06
1.93469e-05
8.98613e-06
1.62272e-05
1.01797e-05
1.25038e-05
1.13452e-05
8.07689e-06
1.21828e-05
3.66111e-06
1.09841e-05
1.1243e-05
1.18801e-06
4.82382e-06
4.57029e-06
-1.65724e-05
9.20034e-06
-2.33677e-05
1.35787e-05
-2.03615e-05
1.73659e-05
-1.54586e-05
2.07103e-05
-1.19481e-05
2.37408e-05
-9.91734e-06
2.64732e-05
-8.5484e-06
2.88604e-05
-7.21125e-06
3.0841e-05
-5.64093e-06
3.2356e-05
-3.79495e-06
3.33437e-05
-1.70101e-06
3.3686e-05
5.91667e-07
3.34333e-05
2.85823e-06
3.2518e-05
5.22592e-06
3.08929e-05
7.61997e-06
2.85112e-05
9.97022e-06
2.53292e-05
1.21682e-05
2.13546e-05
1.41543e-05
1.6658e-05
1.60418e-05
1.12949e-05
1.75458e-05
5.78461e-06
1.64945e-05
1.70276e-05
2.92703e-06
1.89679e-06
7.15708e-06
-2.08025e-05
1.19893e-05
-2.81999e-05
1.65656e-05
-2.49378e-05
2.07873e-05
-1.96803e-05
2.47916e-05
-1.59524e-05
2.85914e-05
-1.37171e-05
3.20993e-05
-1.20563e-05
3.52121e-05
-1.03241e-05
3.78414e-05
-8.27019e-06
3.99167e-05
-5.87023e-06
4.1396e-05
-3.18033e-06
4.22278e-05
-2.40147e-07
4.22925e-05
2.79347e-06
4.15301e-05
5.98837e-06
3.98541e-05
9.29596e-06
3.72147e-05
1.26096e-05
3.35769e-05
1.5806e-05
2.89585e-05
1.87727e-05
2.34792e-05
2.15211e-05
1.69192e-05
2.41059e-05
8.78331e-06
2.46304e-05
2.58109e-05
5.68567e-06
-3.78889e-06
1.12433e-05
-2.636e-05
1.60502e-05
-3.30064e-05
2.05161e-05
-2.94035e-05
2.50931e-05
-2.42571e-05
2.98495e-05
-2.07088e-05
3.45844e-05
-1.8452e-05
3.90733e-05
-1.65452e-05
4.31678e-05
-1.44185e-05
4.67683e-05
-1.18707e-05
4.97734e-05
-8.87534e-06
5.20404e-05
-5.44732e-06
5.3412e-05
-1.61171e-06
5.39173e-05
2.28813e-06
5.35182e-05
6.38754e-06
5.22034e-05
1.06107e-05
4.9971e-05
1.4842e-05
4.67458e-05
1.90312e-05
4.2272e-05
2.32465e-05
3.62597e-05
2.75334e-05
2.81057e-05
3.22599e-05
1.70284e-05
3.57077e-05
4.28393e-05
1.29834e-05
-1.67719e-05
2.1239e-05
-3.46056e-05
2.3161e-05
-3.49143e-05
2.55608e-05
-3.17918e-05
3.01267e-05
-2.88148e-05
3.591e-05
-2.64863e-05
4.19107e-05
-2.44483e-05
4.76261e-05
-2.22576e-05
5.28555e-05
-1.96461e-05
5.75189e-05
-1.65331e-05
6.15806e-05
-1.29366e-05
6.50441e-05
-8.91078e-06
6.7909e-05
-4.47662e-06
6.96032e-05
5.90589e-07
6.9715e-05
6.27569e-06
6.8076e-05
1.22497e-05
6.50619e-05
1.78561e-05
6.12864e-05
2.28067e-05
5.67797e-05
2.77532e-05
5.11357e-05
3.31773e-05
4.26415e-05
4.07542e-05
2.87765e-05
4.95727e-05
7.16158e-05
3.02491e-25
-1.48463e-23
4.26763e-26
-1.97582e-25
1.61565e-27
-3.52124e-26
4.08384e-29
-2.39327e-27
4.46374e-31
-2.97148e-29
3.10074e-33
-1.88695e-31
1.69697e-35
-7.88219e-34
6.00709e-38
-1.76742e-36
4.02548e-41
3.62414e-41
4.58e-43
7.59309e-43
4.29115e-45
1.31418e-44
3.63565e-47
1.7417e-46
2.6718e-49
1.92432e-48
1.63446e-51
1.787e-50
7.86954e-54
1.37537e-52
2.73347e-56
8.44264e-55
7.85419e-59
3.87137e-57
2.3662e-59
1.17173e-59
4.68033e-62
1.11967e-22
-5.74623e-22
2.02863e-23
-1.14788e-22
6.81074e-25
-1.35532e-23
2.01628e-26
-1.09478e-24
2.58816e-28
-1.63204e-26
2.13029e-30
-1.24439e-28
1.314e-32
-6.12376e-31
4.81663e-35
-1.53776e-33
2.92664e-38
9.33797e-38
4.10263e-40
2.15323e-39
3.44556e-42
3.90252e-41
3.04156e-44
5.40864e-43
2.33775e-46
6.25282e-45
1.49701e-48
6.08678e-47
7.55037e-51
4.90826e-49
2.74977e-53
3.15666e-51
6.17448e-56
1.51837e-53
1.0004e-58
4.82964e-56
7.64719e-59
2.66995e-20
-1.65288e-19
4.67502e-21
-3.68695e-20
1.54453e-22
-3.29257e-21
5.21071e-24
-2.5013e-22
7.72221e-26
-4.36079e-24
7.53642e-28
-3.9449e-26
5.41113e-30
-2.289e-28
1.9943e-32
-6.0893e-31
1.39944e-35
7.67203e-35
1.92173e-37
1.57593e-36
1.76642e-39
2.89933e-38
1.60549e-41
4.12268e-40
1.26616e-43
4.89679e-42
8.30046e-46
4.89021e-44
4.27818e-48
4.03932e-46
1.59003e-50
2.65652e-48
4.87095e-53
1.30488e-50
7.92392e-56
4.24592e-53
6.87116e-56
4.48773e-18
-1.07725e-17
7.42856e-19
-2.98781e-18
2.38884e-20
-5.37536e-19
8.82765e-22
-3.57663e-20
1.49898e-23
-7.13055e-22
1.74033e-25
-7.60608e-24
1.48278e-27
-5.18969e-26
5.17891e-30
-1.34584e-28
5.62937e-33
4.56503e-32
7.99293e-35
8.52279e-34
7.86902e-37
1.61311e-35
7.54958e-39
2.40069e-37
6.26355e-41
2.99386e-39
4.30908e-43
3.13833e-41
2.32735e-45
2.71675e-43
1.08797e-47
1.87157e-45
3.6572e-50
9.64444e-48
6.18362e-53
3.28835e-50
5.57136e-53
6.4668e-16
-1.28982e-15
8.35275e-17
1.12327e-16
2.54642e-18
-5.62884e-17
1.01656e-19
-3.41402e-18
1.9963e-21
-7.62194e-20
2.76086e-23
-9.50771e-22
2.78639e-25
-7.49987e-24
7.74672e-28
-1.54643e-26
1.92017e-30
1.11783e-29
2.85556e-32
3.62359e-31
3.02729e-34
7.14141e-33
3.10788e-36
1.1268e-34
2.74911e-38
1.49242e-36
2.01196e-40
1.66287e-38
1.2554e-42
1.52895e-40
6.78266e-45
1.11871e-42
2.41492e-47
6.11982e-45
4.32516e-50
2.2116e-47
3.96575e-50
6.17482e-14
-1.14442e-13
1.00845e-14
1.30662e-14
2.3809e-16
-1.98404e-15
8.35822e-18
-2.29107e-16
1.74169e-19
-4.79763e-18
2.68403e-21
-6.22765e-20
2.80753e-23
-4.80977e-22
3.42373e-26
3.83093e-27
6.22064e-28
4.32002e-27
8.15187e-30
1.27909e-28
1.02373e-31
2.63952e-30
1.13662e-33
4.45241e-32
1.08124e-35
6.32105e-34
8.48619e-38
7.54627e-36
6.45259e-40
7.42777e-38
3.73347e-42
5.82561e-40
1.42013e-44
3.40761e-42
2.7199e-47
1.31674e-44
2.52326e-47
1.47664e-12
-5.03528e-12
4.57636e-13
-1.24909e-11
1.87779e-14
-1.49296e-13
5.36693e-16
-1.43628e-14
1.11676e-17
-2.61128e-16
1.89904e-19
-3.3731e-18
1.93739e-21
-2.45997e-20
5.31139e-24
1.43964e-23
1.03425e-25
8.6745e-25
1.48252e-27
2.53688e-26
2.03231e-29
5.54281e-28
2.45104e-31
1.00345e-29
2.522e-33
1.53489e-31
2.44228e-35
1.97342e-33
2.02353e-37
2.09484e-35
1.25408e-39
1.76788e-37
4.92674e-42
1.11152e-39
1.04887e-44
4.61227e-42
9.49649e-45
5.47252e-10
-3.01341e-09
-1.10085e-11
-7.4879e-10
-1.14681e-13
-5.53376e-11
3.93364e-15
-1.61613e-12
1.30921e-16
-2.50741e-14
4.39798e-18
-3.21065e-16
4.76872e-20
-1.8011e-18
7.33663e-22
2.85217e-21
1.43326e-23
1.44895e-22
2.35438e-25
4.2752e-24
3.53376e-27
9.95186e-26
4.63799e-29
1.93981e-27
5.25015e-31
3.20253e-29
5.88509e-33
4.44359e-31
5.26675e-35
5.09662e-33
3.5174e-37
4.63586e-35
1.48749e-39
3.13991e-37
3.41354e-42
1.40345e-39
3.1109e-42
1.36123e-05
-1.62967e-05
1.31575e-05
-1.21005e-05
1.11865e-05
-8.93883e-06
1.13545e-05
-9.2233e-06
1.35276e-05
-9.24579e-06
1.66906e-05
-9.02418e-06
2.01548e-05
-8.73792e-06
2.37494e-05
-8.38644e-06
2.75445e-05
-7.92634e-06
3.16195e-05
-7.32705e-06
3.58931e-05
-6.48547e-06
4.0091e-05
-5.2238e-06
4.38248e-05
-3.25064e-06
4.68636e-05
-3.63578e-07
4.7302e-05
5.83721e-06
4.5619e-05
1.39327e-05
4.39513e-05
1.95238e-05
4.29404e-05
2.38175e-05
4.19027e-05
2.87909e-05
4.11661e-05
3.39139e-05
4.15977e-05
4.03226e-05
4.44463e-05
4.67241e-05
6.20939e-05
5.39682e-05
2.14044e-06
3.94736e-21
5.03893e-07
1.34166e-20
3.9629e-07
4.65407e-20
4.45993e-07
5.42328e-19
4.93351e-07
3.59236e-18
6.26085e-07
1.32937e-17
8.65539e-07
2.51401e-17
1.19597e-06
3.55075e-17
1.69845e-06
3.62815e-17
2.52065e-06
2.16983e-17
3.90923e-06
8.37753e-18
6.22321e-06
2.41896e-18
1.00715e-05
-1.26587e-16
1.63902e-05
-1.75793e-17
2.68942e-05
3.57376e-08
4.03967e-05
1.51022e-06
4.75921e-05
8.20767e-06
5.17532e-05
1.96565e-05
5.18253e-05
2.87189e-05
5.27292e-05
3.301e-05
5.64192e-05
3.66326e-05
6.34774e-05
3.96659e-05
4.84813e-05
7.70899e-05
2.12732e-21
7.34125e-21
6.40135e-21
3.12088e-20
-6.50606e-21
1.33197e-19
-1.24726e-19
1.34421e-18
-9.0719e-19
8.15108e-18
-3.73498e-18
3.02478e-17
-8.12662e-18
5.8875e-17
-1.36092e-17
7.88709e-17
-1.68884e-17
8.01651e-17
-1.27251e-17
4.81817e-17
-6.3237e-18
1.76542e-17
-2.45708e-18
4.95153e-18
3.32391e-18
-1.32368e-16
7.56003e-19
-9.22416e-18
3.48018e-08
9.35802e-10
1.18155e-06
-8.90644e-10
7.56989e-06
2.13614e-08
2.24983e-05
-5.67101e-08
4.17668e-05
2.52068e-06
5.3465e-05
1.43015e-05
6.3433e-05
2.66644e-05
7.15923e-05
3.15066e-05
3.56021e-05
8.44715e-05
9.57974e-21
3.63256e-21
3.45313e-20
1.96638e-20
-6.10337e-23
1.71485e-19
-1.66385e-19
1.60981e-18
-1.28063e-18
9.46389e-18
-5.55537e-18
3.48039e-17
-1.26343e-17
6.84361e-17
-1.95629e-17
9.35033e-17
-2.29607e-17
9.63762e-17
-1.56064e-17
5.79737e-17
-6.78267e-18
1.8113e-17
-2.36854e-18
4.74931e-18
1.48975e-16
-3.05842e-16
2.32263e-15
-2.17131e-15
9.30839e-10
4.97504e-12
3.91929e-11
-4.82228e-13
2.10112e-08
3.05453e-10
-3.93703e-08
1.2923e-09
8.58898e-07
-2.49685e-08
1.04844e-05
-1.04866e-07
3.2722e-05
1.09897e-07
5.89757e-05
5.2828e-06
1.61028e-05
7.84714e-05
3.21084e-21
8.58536e-22
1.11973e-20
7.44722e-21
-7.4928e-21
1.33956e-19
-1.90218e-19
1.29473e-18
-1.65497e-18
7.71974e-18
-7.81005e-18
2.79928e-17
-1.88424e-17
5.48474e-17
-3.07695e-17
7.53873e-17
-3.78138e-17
7.87649e-17
-2.71116e-17
4.73552e-17
-1.04644e-17
5.51388e-18
-3.60728e-18
-5.15666e-19
2.37824e-15
-3.66187e-18
2.45053e-14
-6.83728e-15
5.16086e-12
-1.29457e-13
3.57257e-12
-5.68695e-16
2.78424e-10
2.90841e-11
9.6463e-10
7.60114e-10
-2.05177e-08
3.05653e-10
-1.04147e-07
-1.27859e-08
-5.24041e-07
-7.43481e-09
4.0234e-06
-2.5502e-07
-5.37142e-07
2.26307e-05
4.40892e-22
1.90644e-22
1.28247e-21
4.03291e-21
-8.43652e-21
7.7217e-20
-1.79261e-19
8.04363e-19
-1.64249e-18
4.86778e-18
-7.95568e-18
1.74262e-17
-1.96007e-17
3.384e-17
-3.31217e-17
4.62326e-17
-4.24606e-17
4.77587e-17
-3.18644e-17
2.71732e-17
-4.80828e-18
-1.41952e-17
4.45698e-18
-9.78094e-18
3.64949e-16
-1.1665e-17
4.58436e-14
-9.99199e-15
8.0097e-14
-1.36106e-14
1.45776e-14
-2.19516e-15
2.81943e-11
8.40504e-13
7.37614e-10
5.41018e-11
1.1945e-09
6.17251e-11
1.97197e-09
-3.25564e-12
-4.73864e-09
5.50953e-10
-2.59833e-07
-1.66835e-10
5.02117e-09
-8.41068e-07
7.5924e-23
7.64428e-23
-9.0158e-23
1.78613e-21
-6.70149e-21
3.58714e-20
-1.30182e-19
3.91784e-19
-1.17808e-18
2.38888e-18
-5.61558e-18
8.44306e-18
-1.37457e-17
1.62352e-17
-2.32371e-17
2.18603e-17
-2.97043e-17
2.17866e-17
-2.12744e-17
1.15828e-17
2.62536e-17
-1.91381e-17
3.64471e-17
-7.43483e-17
4.26432e-16
-1.12368e-16
4.12905e-14
-7.83285e-16
1.13074e-13
-6.13865e-15
1.64162e-13
-6.01411e-15
1.02515e-12
5.00967e-15
5.3738e-11
1.47914e-12
1.19447e-10
3.588e-12
4.5069e-10
1.55489e-11
1.04046e-09
3.20621e-11
4.94105e-10
1.4154e-11
4.46929e-10
5.48415e-09
-9.90135e-25
3.5432e-23
-8.90203e-23
6.38458e-22
-3.95432e-21
1.33148e-20
-7.3764e-20
1.49185e-19
-6.5337e-19
9.07909e-19
-3.03377e-18
3.15559e-18
-7.31084e-18
5.99314e-18
-1.21532e-17
7.86944e-18
-1.49726e-17
7.29251e-18
-9.98096e-18
3.22781e-18
4.49697e-17
-1.36589e-17
1.72394e-16
-9.81662e-17
3.81853e-16
-1.82774e-16
3.51999e-15
-2.24788e-16
8.08667e-14
-1.08797e-15
1.63333e-13
-4.74293e-15
2.32503e-13
-6.07344e-15
1.77863e-12
-1.61429e-14
5.37238e-12
5.13446e-14
2.09089e-11
4.87075e-13
5.36174e-11
1.2615e-12
5.57942e-11
1.92381e-12
4.82886e-11
4.66349e-10
-1.72427e-24
1.25393e-23
-4.47898e-23
1.79605e-22
-1.72129e-21
3.8142e-21
-3.14054e-20
4.32741e-20
-2.72378e-19
2.61256e-19
-1.23033e-18
8.89049e-19
-2.90764e-18
1.65794e-18
-4.6867e-18
2.07237e-18
-5.33504e-18
1.60687e-18
-2.93012e-18
9.55259e-20
2.59022e-17
-8.91337e-18
2.28875e-16
-7.50737e-17
4.83501e-16
-2.0077e-16
8.11517e-16
-2.63546e-16
4.0259e-15
-4.94878e-16
4.05607e-14
-1.67942e-15
1.26823e-13
-5.60699e-15
1.62504e-13
-1.07713e-14
2.1991e-13
-9.12587e-15
6.86068e-13
-2.76492e-15
1.95256e-12
-3.62501e-15
3.89315e-12
1.49711e-16
-2.90321e-15
5.2195e-11
-8.88103e-25
3.18363e-24
-1.52141e-23
3.71667e-23
-5.49579e-22
7.93915e-22
-9.8469e-21
9.04172e-21
-8.35233e-20
5.38854e-20
-3.66043e-19
1.78611e-19
-8.43115e-19
3.22936e-19
-1.28404e-18
3.58498e-19
-1.21206e-18
1.14469e-19
-8.82515e-20
-7.329e-19
1.53669e-17
-5.79899e-18
1.28905e-16
-3.19063e-17
4.28204e-16
-1.04865e-16
8.34546e-16
-2.00295e-16
2.10397e-15
-3.8386e-16
1.00361e-14
-1.03544e-15
4.93496e-14
-3.35473e-15
1.36621e-13
-1.02813e-14
1.60263e-13
-1.7056e-14
1.51574e-13
-1.53856e-14
1.01485e-13
-1.29704e-14
1.16503e-13
-8.37877e-15
-9.78606e-15
1.29306e-13
-2.70076e-25
5.18957e-25
-3.53836e-24
5.01804e-24
-1.23034e-22
1.0705e-22
-2.1674e-21
1.21705e-21
-1.79575e-20
7.12623e-21
-7.60873e-20
2.28196e-20
-1.6871e-19
3.82221e-20
-2.26383e-19
2.60169e-20
-8.71335e-20
-5.87377e-20
1.29228e-18
-7.1611e-19
9.00898e-18
-3.91475e-18
5.25534e-17
-1.71345e-17
1.97794e-16
-5.91257e-17
4.96299e-16
-1.45576e-16
1.34164e-15
-3.2529e-16
4.73393e-15
-6.85504e-16
1.91542e-14
-1.28632e-15
7.54091e-14
-3.48996e-15
1.53357e-13
-1.13887e-14
1.6264e-13
-1.87328e-14
1.32018e-13
-1.55363e-14
1.37781e-13
-1.17707e-14
-1.36246e-14
1.49049e-13
-4.93618e-26
4.13859e-26
-5.16768e-25
3.33777e-25
-1.73927e-23
7.05824e-24
-3.00946e-22
7.95546e-23
-2.42914e-21
4.53336e-22
-9.88271e-21
1.34967e-21
-2.01729e-20
1.26055e-21
-1.64724e-20
-4.72699e-21
9.71082e-20
-6.82873e-20
1.00736e-18
-5.72952e-19
6.04401e-18
-3.16722e-18
2.9995e-17
-1.35162e-17
1.19224e-16
-4.76825e-17
3.5808e-16
-1.30463e-16
9.81586e-16
-3.15003e-16
2.43157e-15
-6.75135e-16
5.51268e-15
-1.16252e-15
1.74192e-14
-2.14522e-15
6.28933e-14
-5.79367e-15
9.729e-14
-1.41273e-14
1.00396e-13
-1.69352e-14
1.11456e-13
-1.51387e-14
-1.6133e-14
1.20976e-13
-4.2791e-27
1.5887e-28
-3.63209e-26
7.43857e-28
-1.18053e-24
5.65103e-27
-1.99708e-23
-4.58225e-26
-1.55695e-22
-1.54046e-24
-5.85767e-22
-2.89982e-23
-6.63096e-22
-4.39362e-22
6.21127e-21
-5.73227e-21
9.22958e-20
-6.19155e-20
7.72633e-19
-4.88438e-19
4.94216e-18
-2.83506e-18
2.39456e-17
-1.21538e-17
9.63498e-17
-4.38664e-17
3.08834e-16
-1.29881e-16
8.5676e-16
-3.14842e-16
2.05676e-15
-6.67252e-16
4.19498e-15
-1.23272e-15
9.66726e-15
-2.27929e-15
2.9949e-14
-5.39326e-15
7.41949e-14
-1.51543e-14
8.68089e-14
-2.05927e-14
9.79465e-14
-1.92646e-14
-1.88575e-14
1.06514e-13
-1.74502e-29
1.86721e-30
-8.41416e-29
-2.65142e-29
-9.60249e-28
-1.46874e-27
2.36307e-26
-5.05861e-26
1.00417e-24
-1.22271e-24
2.32757e-23
-2.32532e-23
4.19623e-22
-3.63449e-22
6.47819e-21
-4.81705e-21
7.17832e-20
-5.35286e-20
6.6271e-19
-4.48624e-19
4.38283e-18
-2.73398e-18
2.121e-17
-1.18962e-17
8.66644e-17
-4.38401e-17
2.91114e-16
-1.37484e-16
7.85469e-16
-3.40177e-16
1.82964e-15
-6.93374e-16
3.92909e-15
-1.3292e-15
8.92809e-15
-2.59614e-15
2.49089e-14
-5.45596e-15
6.86398e-14
-1.31811e-14
8.48154e-14
-2.36097e-14
8.96371e-14
-2.30926e-14
-2.1587e-14
9.70519e-14
-2.13128e-31
-2.27586e-30
6.57499e-30
-1.92827e-29
4.90659e-28
-9.73297e-28
2.44396e-26
-3.60935e-26
6.59081e-25
-9.25443e-25
1.58231e-23
-1.84674e-23
2.99036e-22
-3.00115e-22
4.69695e-21
-4.14333e-21
6.21448e-20
-4.87431e-20
5.99769e-19
-4.2972e-19
4.1296e-18
-2.75121e-18
2.03169e-17
-1.25108e-17
8.41581e-17
-4.72566e-17
2.91406e-16
-1.52264e-16
7.81184e-16
-3.80721e-16
1.75528e-15
-7.74775e-16
3.8492e-15
-1.49491e-15
8.91107e-15
-3.03676e-15
2.20786e-14
-6.40103e-15
5.46983e-14
-1.2934e-14
7.91835e-14
-2.28405e-14
9.17137e-14
-2.58521e-14
-2.38863e-14
9.70613e-14
2.64232e-31
-2.84705e-30
2.89814e-30
-1.17966e-29
2.51337e-28
-6.10801e-28
1.38073e-26
-2.43644e-26
4.94036e-25
-6.62209e-25
1.23689e-23
-1.39196e-23
2.42465e-22
-2.38226e-22
3.97558e-21
-3.47814e-21
5.47327e-20
-4.38611e-20
5.56134e-19
-4.14876e-19
4.01039e-18
-2.79967e-18
2.06054e-17
-1.36523e-17
8.63038e-17
-5.37967e-17
3.01188e-16
-1.72269e-16
8.05438e-16
-4.3224e-16
1.79759e-15
-9.06293e-16
3.95854e-15
-1.82167e-15
9.50164e-15
-3.816e-15
2.30367e-14
-8.32677e-15
5.00899e-14
-1.64224e-14
8.40888e-14
-2.62113e-14
9.42102e-14
-2.79122e-14
-2.63369e-14
9.87075e-14
3.29689e-31
-2.01929e-30
1.39928e-30
-6.0674e-30
1.57247e-28
-3.40593e-28
9.18005e-27
-1.47891e-26
3.32057e-25
-4.31922e-25
8.73726e-24
-9.6701e-24
1.80718e-22
-1.7594e-22
3.14152e-21
-2.7481e-21
4.66995e-20
-3.76152e-20
5.12019e-19
-3.90706e-19
3.90455e-18
-2.82922e-18
2.14542e-17
-1.47109e-17
9.54815e-17
-6.27983e-17
3.27673e-16
-2.05003e-16
8.75938e-16
-5.20841e-16
2.04756e-15
-1.14118e-15
4.8352e-15
-2.45065e-15
1.2419e-14
-5.27367e-15
3.20037e-14
-1.18419e-14
6.42565e-14
-2.28065e-14
8.76901e-14
-3.09959e-14
9.42001e-14
-3.17107e-14
-2.99664e-14
9.94743e-14
1.68506e-31
-1.0614e-30
6.74691e-31
-2.82404e-30
8.25516e-29
-1.71751e-28
5.20474e-27
-8.12529e-27
2.03185e-25
-2.55509e-25
5.68414e-24
-6.1337e-24
1.2496e-22
-1.19639e-22
2.32607e-21
-2.01642e-21
3.7518e-20
-3.01025e-20
4.54156e-19
-3.49723e-19
3.74713e-18
-2.8119e-18
2.17995e-17
-1.53022e-17
1.07652e-16
-7.62378e-17
3.90686e-16
-2.87619e-16
1.04314e-15
-7.54621e-16
2.35251e-15
-1.3821e-15
6.00292e-15
-2.81835e-15
1.83509e-14
-8.0379e-15
4.99455e-14
-2.38409e-14
8.52729e-14
-4.02442e-14
9.55066e-14
-4.44154e-14
1.02481e-13
-4.10141e-14
-3.77521e-14
1.07742e-13
8.57012e-32
-5.69131e-31
2.85082e-31
-1.20191e-30
3.96077e-29
-7.82594e-29
2.69701e-27
-4.04276e-27
1.1232e-25
-1.37523e-25
3.36099e-24
-3.56929e-24
7.92387e-23
-7.5358e-23
1.59195e-21
-1.38088e-21
2.8022e-20
-2.26368e-20
3.80888e-19
-2.96829e-19
3.51676e-18
-2.73605e-18
2.14622e-17
-1.55415e-17
1.30602e-16
-9.93953e-17
5.70436e-16
-4.87779e-16
1.35671e-15
-1.15525e-15
2.4259e-15
-1.41463e-15
7.43214e-15
-3.97947e-15
4.52793e-14
-3.24578e-14
1.51953e-13
-1.63398e-13
1.74781e-13
-1.74548e-13
1.4178e-13
-1.14342e-13
1.53687e-13
-5.49855e-14
-7.04388e-14
1.87339e-13
4.28267e-32
-2.61994e-31
1.00978e-31
-4.62278e-31
1.70727e-29
-3.26332e-29
1.26004e-27
-1.8414e-27
5.64614e-26
-6.80381e-26
1.82389e-24
-1.92521e-24
4.65767e-23
-4.44545e-23
1.01758e-21
-8.92343e-22
1.96932e-20
-1.61948e-20
3.03176e-19
-2.41937e-19
3.21312e-18
-2.58273e-18
2.0797e-17
-1.57607e-17
1.62484e-16
-1.23816e-16
8.48954e-16
-7.95543e-16
1.47009e-15
-1.33767e-15
2.09518e-15
-1.33295e-15
2.8571e-14
-2.76035e-14
2.71546e-13
-2.45942e-13
4.82729e-13
-3.97884e-13
4.69054e-13
-3.82105e-13
2.20892e-13
-1.84876e-13
2.23752e-13
-9.64578e-14
-2.30979e-13
4.30555e-13
1.78548e-32
-1.05994e-31
3.33914e-32
-1.63227e-31
6.72459e-30
-1.25702e-29
5.38426e-28
-7.74733e-28
2.60695e-26
-3.12551e-26
9.16859e-25
-9.71852e-25
2.56143e-23
-2.47435e-23
6.12789e-22
-5.4696e-22
1.31296e-20
-1.10161e-20
2.31041e-19
-1.89822e-19
2.82156e-18
-2.31722e-18
1.99392e-17
-1.58352e-17
1.83437e-16
-1.36381e-16
9.29104e-16
-9.37217e-16
1.41001e-15
-1.36945e-15
1.91548e-15
-1.45613e-15
1.5751e-13
-9.22116e-14
4.43955e-13
-4.05639e-13
6.41589e-13
-4.45275e-13
7.00868e-13
-3.81482e-13
3.05867e-13
-2.2337e-13
5.23352e-13
-4.48202e-13
-1.63204e-12
2.42374e-12
6.5685e-33
-3.82207e-32
1.10472e-32
-5.33746e-32
2.43736e-30
-4.49753e-30
2.11886e-28
-3.02924e-28
1.11516e-26
-1.34117e-26
4.3017e-25
-4.60192e-25
1.32345e-23
-1.29548e-23
3.47994e-22
-3.15612e-22
8.2574e-21
-7.04413e-21
1.67378e-19
-1.39616e-19
2.3239e-18
-1.9271e-18
1.85867e-17
-1.51525e-17
1.87262e-16
-1.4122e-16
1.05217e-15
-1.03227e-15
1.41972e-15
-1.50575e-15
2.23726e-15
-1.97553e-15
2.55508e-13
-8.47919e-14
5.4444e-13
-4.45784e-13
6.45177e-13
-3.95658e-13
6.20241e-13
-3.53815e-13
4.03594e-13
-2.8704e-13
4.02692e-12
-4.06669e-12
-1.83248e-11
2.3108e-11
2.14516e-33
-1.23373e-32
3.37086e-33
-1.61743e-32
8.16389e-31
-1.49053e-30
7.7155e-29
-1.09981e-28
4.43636e-27
-5.362e-27
1.88221e-25
-2.02722e-25
6.38209e-24
-6.28885e-24
1.84256e-22
-1.68222e-22
4.82605e-21
-4.14098e-21
1.11664e-19
-9.2944e-20
1.74842e-18
-1.44931e-18
1.59995e-17
-1.30204e-17
1.68848e-16
-1.28026e-16
1.066e-15
-1.09828e-15
1.46119e-15
-1.74715e-15
4.36625e-15
-4.75313e-15
1.51822e-13
-2.79775e-14
4.8006e-13
-1.83255e-13
4.97151e-13
-3.44162e-13
5.37921e-13
-3.45316e-13
7.95991e-13
-2.21461e-13
2.96097e-11
-3.16484e-11
-1.19415e-10
1.53869e-10
6.25742e-34
-3.62447e-33
9.47402e-34
-4.51641e-33
2.51734e-31
-4.53609e-31
2.59421e-29
-3.68379e-29
1.63422e-27
-1.97811e-27
7.60348e-26
-8.18852e-26
2.82748e-24
-2.77859e-24
8.91679e-23
-8.10484e-23
2.56101e-21
-2.18158e-21
6.64651e-20
-5.45676e-20
1.17254e-18
-9.58139e-19
1.21123e-17
-9.79724e-18
1.36755e-16
-1.10267e-16
1.08142e-15
-1.17013e-15
1.88752e-15
-2.02418e-15
6.92825e-15
-2.38089e-15
4.91336e-14
-2.49194e-14
2.67528e-13
-1.68192e-13
3.84609e-13
-4.6189e-13
5.42709e-13
-3.62311e-13
1.91243e-12
-3.61776e-14
2.05351e-10
-2.27025e-10
-6.97446e-10
9.41535e-10
1.65937e-34
-9.81395e-34
2.43933e-34
-1.1502e-33
7.08866e-32
-1.25787e-31
8.00356e-30
-1.13037e-29
5.52074e-28
-6.66473e-28
2.79733e-26
-2.99767e-26
1.13166e-24
-1.10301e-24
3.86898e-23
-3.47892e-23
1.20664e-21
-1.0128e-21
3.45913e-20
-2.78101e-20
6.84714e-19
-5.48707e-19
8.05168e-18
-6.55402e-18
1.03949e-16
-7.63871e-17
7.45919e-16
-1.15422e-15
1.46566e-15
-1.83065e-15
1.92495e-15
-9.03701e-16
5.70908e-14
-6.42476e-14
3.25784e-13
-5.0043e-13
4.88633e-13
-5.88863e-13
5.31554e-13
-4.06807e-13
3.0165e-13
1.52376e-12
1.29523e-09
-1.47757e-09
-3.34885e-09
4.9546e-09
4.04759e-35
-2.45473e-34
5.70387e-35
-2.65558e-34
1.81272e-32
-3.18248e-32
2.25334e-30
-3.17353e-30
1.696e-28
-2.0429e-28
9.29007e-27
-9.92301e-27
4.05368e-25
-3.92599e-25
1.4896e-23
-1.32649e-23
4.98776e-22
-4.1224e-22
1.55688e-20
-1.22386e-20
3.45779e-19
-2.7244e-19
4.72661e-18
-3.87053e-18
5.94828e-17
-3.81085e-17
8.70771e-16
-8.81503e-16
1.24373e-15
-1.45767e-15
1.58529e-15
-8.18112e-16
2.17294e-13
-2.8108e-13
4.74089e-13
-6.8485e-13
5.08943e-13
-5.79501e-13
3.80069e-13
-3.3878e-13
-1.61904e-12
4.84522e-12
3.21471e-09
-4.46184e-09
-1.20592e-08
1.09707e-08
9.09342e-36
-5.58867e-35
1.20701e-35
-5.58486e-35
4.22477e-33
-7.44193e-33
5.7923e-31
-8.20034e-31
4.73045e-29
-5.72011e-29
2.78619e-27
-2.98797e-27
1.30075e-25
-1.26094e-25
5.09081e-24
-4.52055e-24
1.80619e-22
-1.47744e-22
6.05013e-21
-4.66833e-21
1.51309e-19
-1.17059e-19
2.41272e-18
-1.95499e-18
2.6016e-17
-2.03818e-17
4.99927e-16
-3.82458e-16
6.96114e-16
-8.93124e-16
1.0449e-15
-7.37756e-16
1.92396e-13
-3.06053e-13
4.89865e-13
-6.26488e-13
2.31376e-13
-3.26276e-13
2.5947e-13
-2.77525e-13
-4.16759e-12
3.74977e-12
4.15519e-08
-2.66578e-08
-3.49903e-08
4.2029e-08
1.85352e-36
-1.12351e-35
2.32618e-36
-1.08427e-35
9.09318e-34
-1.63388e-33
1.36768e-31
-1.96239e-31
1.20347e-29
-1.47086e-29
7.59421e-28
-8.22915e-28
3.76479e-26
-3.67842e-26
1.55526e-24
-1.38856e-24
5.76306e-23
-4.70647e-23
2.04006e-21
-1.55493e-21
5.7184e-20
-4.34916e-20
1.06022e-18
-8.42522e-19
1.25757e-17
-1.07469e-17
1.96852e-16
-1.30336e-16
3.85697e-16
-5.81488e-16
8.83959e-16
-8.04936e-16
2.71299e-13
-2.18522e-13
3.85161e-13
-2.84717e-13
2.75271e-14
-3.58134e-14
2.39167e-13
-2.20923e-13
-2.61137e-12
-1.23097e-12
3.27017e-08
-4.12532e-08
-3.38647e-08
3.98183e-08
3.33055e-37
-1.92194e-36
4.13177e-37
-1.9535e-36
1.82977e-34
-3.36708e-34
2.97639e-32
-4.32424e-32
2.8007e-30
-3.45715e-30
1.88624e-28
-2.06089e-28
9.86843e-27
-9.72265e-27
4.27469e-25
-3.85435e-25
1.63365e-23
-1.34473e-23
6.00677e-22
-4.56702e-22
1.86529e-20
-1.40041e-20
3.99294e-19
-3.1313e-19
5.70202e-18
-4.81072e-18
6.53997e-17
-5.09887e-17
2.92059e-16
-3.90802e-16
1.4057e-15
-1.49299e-15
7.02903e-14
-5.46446e-14
5.80299e-14
-3.51353e-14
5.2925e-14
-1.13933e-14
1.07766e-12
-1.17565e-12
4.49862e-12
-3.85993e-12
2.53012e-08
-4.31708e-08
-3.09322e-08
3.04934e-08
5.09931e-38
-2.70007e-37
6.76416e-38
-3.18614e-37
3.41914e-35
-6.3277e-35
5.90548e-33
-8.56061e-33
5.90496e-31
-7.26831e-31
4.22362e-29
-4.59398e-29
2.32617e-27
-2.29226e-27
1.05513e-25
-9.5812e-26
4.13618e-24
-3.45492e-24
1.55505e-22
-1.1943e-22
5.25328e-21
-3.91923e-21
1.29095e-19
-1.00524e-19
2.16143e-18
-1.79937e-18
2.38836e-17
-2.0988e-17
2.0938e-16
-2.10293e-16
1.28804e-15
-2.45688e-15
1.38672e-14
-1.47537e-14
8.25956e-15
-1.5267e-14
9.78112e-15
-1.03786e-14
3.30745e-12
-4.46966e-12
1.13679e-11
-9.12692e-12
1.50196e-08
-2.27299e-08
-2.72638e-08
1.99322e-08
6.43564e-39
-3.0158e-38
9.89629e-39
-4.45873e-38
5.73106e-36
-1.03275e-35
1.03731e-33
-1.46557e-33
1.09827e-31
-1.32e-31
8.30652e-30
-8.83517e-30
4.8309e-28
-4.69942e-28
2.30591e-26
-2.08926e-26
9.32832e-25
-7.91133e-25
3.55749e-23
-2.79328e-23
1.27647e-21
-9.57503e-22
3.57246e-20
-2.77249e-20
6.89833e-19
-5.81597e-19
8.63216e-18
-7.96177e-18
9.49575e-17
-8.119e-17
1.53697e-15
-2.1672e-15
5.03187e-15
-1.50166e-14
7.77819e-15
-1.29966e-14
1.1313e-14
-9.75116e-15
1.09127e-11
-5.31579e-11
2.41818e-11
-2.4465e-11
7.94064e-09
-1.53203e-09
-2.34924e-08
1.37632e-08
6.48115e-40
-2.58982e-39
1.4593e-39
-5.09321e-39
8.1927e-37
-1.39333e-36
1.54957e-34
-2.08366e-34
1.73578e-32
-1.99373e-32
1.38742e-30
-1.42052e-30
8.59077e-29
-8.14412e-29
4.35414e-27
-3.89042e-27
1.84853e-25
-1.58103e-25
7.18928e-24
-5.80412e-24
2.6778e-22
-2.04514e-22
8.39793e-21
-6.55249e-21
1.89133e-19
-1.60521e-19
2.7506e-18
-2.61548e-18
3.02271e-17
-2.76441e-17
4.96027e-16
-5.3389e-16
4.39897e-15
-1.28836e-14
5.67504e-15
-8.66312e-15
1.03412e-14
-7.94907e-15
2.47062e-11
-6.17998e-11
4.95518e-11
-5.09449e-11
2.26391e-09
-8.79761e-11
-3.57667e-09
1.25766e-08
5.0225e-41
-1.6389e-40
1.71116e-40
-4.57295e-40
9.52906e-38
-1.4913e-37
1.89247e-35
-2.36942e-35
2.24585e-33
-2.4204e-33
1.90771e-31
-1.8575e-31
1.27114e-29
-1.16099e-29
6.90896e-28
-6.01992e-28
3.14466e-26
-2.67759e-26
1.2707e-24
-1.04799e-24
4.8459e-23
-3.79862e-23
1.67017e-21
-1.31835e-21
4.36457e-20
-3.73231e-20
7.45509e-19
-7.11473e-19
8.39314e-18
-9.03049e-18
1.56841e-16
-1.10531e-16
3.22075e-15
-7.57896e-15
3.18471e-15
-4.3156e-15
9.07983e-15
-8.26249e-15
1.5565e-11
-5.21868e-11
1.34191e-11
-6.18204e-11
1.38086e-11
-6.34778e-11
-7.94132e-11
2.24259e-10
2.85726e-42
-7.16982e-42
1.49586e-41
-3.16996e-41
8.68697e-39
-1.2164e-38
1.82505e-36
-2.07444e-36
2.30531e-34
-2.28857e-34
2.10521e-32
-1.9209e-32
1.52565e-30
-1.32328e-30
8.98039e-29
-7.53715e-29
4.46425e-27
-3.71487e-27
1.92094e-25
-1.58466e-25
7.52399e-24
-6.02283e-24
2.79337e-22
-2.22786e-22
8.37993e-21
-7.17755e-21
1.66279e-19
-1.5868e-19
2.21009e-18
-2.49964e-18
2.74812e-17
-3.19968e-17
9.3358e-16
-9.59405e-16
1.66475e-15
-3.08035e-15
1.49976e-14
-2.04853e-14
6.03837e-12
-5.29916e-12
2.61525e-12
-6.86936e-14
7.46683e-12
-2.39686e-11
-5.45519e-11
2.02882e-11
1.11373e-43
-1.95452e-43
9.69768e-43
-1.61757e-42
5.97712e-40
-7.14772e-40
1.34108e-37
-1.33335e-37
1.82378e-35
-1.62117e-35
1.81678e-33
-1.50889e-33
1.44707e-31
-1.1621e-31
9.33483e-30
-7.38598e-30
5.12715e-28
-4.05661e-28
2.39969e-26
-1.91193e-26
9.85376e-25
-7.84407e-25
3.88486e-23
-3.08125e-23
1.31868e-21
-1.10953e-21
3.02635e-20
-2.86879e-20
4.9127e-19
-5.17976e-19
6.47377e-18
-7.89872e-18
1.52611e-16
-7.45137e-17
8.74947e-16
-2.77004e-15
7.20781e-15
-5.21919e-14
1.11584e-13
-1.10075e-14
1.11439e-15
4.17784e-14
1.45233e-12
5.52145e-14
2.30195e-14
1.33042e-11
2.67043e-45
-2.9549e-45
4.4405e-44
-5.37185e-44
2.93192e-41
-2.76639e-41
7.1565e-39
-5.83848e-39
1.06907e-36
-8.01673e-37
1.17734e-34
-8.41036e-35
1.04561e-32
-7.41422e-33
7.50817e-31
-5.33521e-31
4.5824e-29
-3.28713e-29
2.36479e-27
-1.72917e-27
1.04805e-25
-7.85225e-26
4.38224e-24
-3.32413e-24
1.65719e-22
-1.32428e-22
4.43766e-21
-3.99793e-21
8.195e-20
-8.4757e-20
1.22166e-18
-1.30328e-18
1.18042e-17
-5.77889e-18
3.12667e-16
-1.37744e-15
5.98e-15
-4.39051e-14
1.99867e-16
-5.2279e-15
-1.03132e-15
4.93742e-14
-8.71745e-16
5.47102e-14
3.20183e-14
-7.88455e-16
3.48834e-47
-1.54259e-47
1.26297e-45
-1.04297e-45
9.32243e-43
-6.14839e-43
2.55897e-40
-1.50815e-40
4.30261e-38
-2.42127e-38
5.32677e-36
-2.97523e-36
5.40061e-34
-3.06037e-34
4.37837e-32
-2.5002e-32
2.99173e-30
-1.76786e-30
1.72087e-28
-1.05738e-28
8.43774e-27
-5.4025e-27
3.80727e-25
-2.56321e-25
1.59396e-23
-1.1436e-23
4.99319e-22
-4.05343e-22
1.08203e-20
-1.0008e-20
1.51671e-19
-1.43103e-19
1.0435e-18
-8.26577e-19
2.13085e-16
-2.0769e-16
4.9379e-15
-1.78882e-14
4.42846e-16
-2.02743e-15
-2.94892e-15
3.31306e-14
-1.34045e-15
3.41341e-14
3.30756e-14
-3.90752e-15
1.5338e-49
-9.79216e-51
2.0062e-47
-6.98977e-48
1.65354e-44
-3.99856e-45