/*--------------------------------*- C++ -*----------------------------------*\
| =========                 |                                                 |
| \\      /  F ield         | OpenFOAM: The Open Source CFD Toolbox           |
|  \\    /   O peration     | Version:  2206                                  |
|   \\  /    A nd           | Website:  www.openfoam.com                      |
|    \\/     M anipulation  |                                                 |
\*---------------------------------------------------------------------------*/
FoamFile
{
    version     2.0;
    format      ascii;
    arch        "LSB;label=32;scalar=64";
    class       volScalarField;
    location    "0.325";
    object      p_rgh;
}
// * * * * * * * * * * * * * * * * * * * * * * * * * * * * * * * * * * * * * //

dimensions      [1 -1 -2 0 0 0 0];

internalField   nonuniform List<scalar> 
2268
(
1599.04
1599.71
1600.58
1601.55
1602.6
1603.99
1605.79
1608.01
1610.61
1613.57
1616.84
1620.33
1623.97
1627.65
1631.26
1634.68
1637.75
1640.31
1642.25
1643.37
1643.29
1640.05
1626.45
1596.46
1597.17
1598.27
1599.42
1600.65
1602.2
1604.15
1606.51
1609.27
1612.38
1615.8
1619.49
1623.39
1627.4
1631.43
1635.37
1639.08
1642.44
1645.35
1647.69
1649.77
1651.08
1626.76
1591.24
1592.08
1593.64
1595.14
1596.71
1598.56
1600.8
1603.47
1606.59
1610.12
1614.02
1618.22
1622.68
1627.29
1631.95
1636.57
1641.03
1645.24
1649.17
1652.66
1656.08
1658.1
1638.78
1583.59
1584.47
1586.59
1588.59
1590.58
1592.79
1595.39
1598.47
1602.06
1606.15
1610.72
1615.7
1621.03
1626.62
1632.34
1638.06
1643.64
1648.93
1653.85
1658.11
1662.05
1664
1666.27
1573.61
1574.46
1576.93
1579.4
1581.8
1584.37
1587.37
1590.92
1595.1
1599.9
1605.31
1611.28
1617.75
1624.64
1631.79
1639.03
1646.16
1652.92
1659.14
1664.41
1668.86
1671.22
1673.62
1561.24
1561.84
1564.15
1566.92
1569.65
1572.51
1575.83
1579.81
1584.56
1590.14
1596.56
1603.8
1611.76
1620.39
1629.47
1638.78
1648.05
1656.9
1664.96
1671.76
1677.24
1680.61
1682.93
1546.97
1546.43
1548.09
1550.85
1553.61
1556.6
1560.14
1564.42
1569.59
1575.7
1582.83
1591.08
1600.59
1611.55
1623.55
1636.12
1648.85
1661.03
1671.91
1680.76
1687.34
1690.48
1691.53
1530.25
1527.27
1526.6
1528.33
1530.08
1532.61
1536.13
1540.67
1546.46
1553.74
1562.57
1572.85
1584.36
1596.88
1610.87
1626.64
1643.69
1660.57
1675.33
1686.67
1693.58
1696.04
1679.85
2.55853
2.55364
2.54368
2.52951
2.5119
2.49174
2.46992
2.44729
2.42456
2.40236
2.38119
2.3615
2.34364
2.32788
2.31444
2.3035
2.29519
2.28961
2.28681
2.56367
2.55855
2.54803
2.53311
2.51461
2.49354
2.47084
2.44738
2.4239
2.40106
2.37936
2.35924
2.34103
2.325
2.31135
2.30025
2.29182
2.28616
2.28332
2.57428
2.56863
2.55691
2.54039
2.52005
2.49708
2.47259
2.44749
2.42258
2.39848
2.37572
2.3547
2.33575
2.31913
2.30501
2.29354
2.28485
2.27902
2.2761
2.59046
2.58418
2.57062
2.55151
2.5282
2.50223
2.47495
2.44733
2.42024
2.39427
2.36992
2.34759
2.32756
2.31007
2.29527
2.28329
2.27422
2.26815
2.26511
2.61244
2.60626
2.59
2.56673
2.53886
2.50859
2.47744
2.4464
2.41642
2.388
2.36159
2.33756
2.31616
2.29756
2.2819
2.26926
2.25973
2.25336
2.25017
2.6471
2.63706
2.61546
2.58595
2.55164
2.51563
2.47953
2.44407
2.41054
2.37909
2.3502
2.32415
2.30113
2.28124
2.26458
2.25119
2.24113
2.23441
2.23105
2.69255
2.67327
2.6449
2.60809
2.56545
2.52216
2.4801
2.43987
2.40176
2.36678
2.33507
2.30677
2.28196
2.26068
2.24294
2.22875
2.21811
2.21102
2.20748
2.58958
2.70737
2.68867
2.63459
2.57924
2.52688
2.47767
2.43142
2.38876
2.35007
2.31539
2.28475
2.25811
2.2354
2.21657
2.20157
2.19034
2.18287
2.17915
1357.04
1067.01
1003.53
1039.11
1057.02
1071.94
1091.17
1114.92
1146.08
1188.35
1244.91
1316.65
1400.72
1491.84
1588.49
1612.35
1638.74
1662.77
1680.91
1693.22
1694.42
1680.97
1610.29
203.502
58.566
43.4168
47.0915
42.3013
43.9626
50.778
60.964
75.3815
96.844
129.773
179.957
252.354
347.086
518.449
868.298
1321.85
1664.67
1688.57
1706.84
1711.52
1700.97
1661.74
1.22132
1.22688
1.23992
1.23478
1.23698
1.23607
1.23263
1.22869
1.22542
1.22339
1.22336
1.22754
1.23909
1.2702
1.28623
22.7421
130.043
410.485
904.991
1510.72
1745.77
1750.43
1742.4
1.2117
1.21911
1.22325
1.21866
1.21769
1.2168
1.21526
1.21351
1.21216
1.21152
1.21182
1.21326
1.21526
1.21569
1.21161
1.17363
1.20349
1.54662
40.3967
246.943
680.795
1317.68
1823.8
1.1893
1.19177
1.19614
1.19562
1.19531
1.19496
1.19448
1.19399
1.19372
1.19376
1.194
1.19395
1.19224
1.18631
1.17316
1.13093
1.13248
1.10896
1.02199
1.0317
7.74487
138.748
435.876
1.16307
1.16562
1.17105
1.17222
1.1728
1.17313
1.1734
1.17371
1.17406
1.17437
1.17429
1.17314
1.16962
1.16196
1.14915
1.12818
1.10369
1.04848
0.910324
0.923033
0.839872
0.62793
1.09162
1.13863
1.14138
1.14627
1.14845
1.14962
1.15052
1.1514
1.15226
1.15301
1.15343
1.15312
1.15132
1.14687
1.13821
1.12393
1.10166
1.07721
1.03534
0.938718
0.850199
0.709111
0.582507
0.555712
1.11361
1.11643
1.12085
1.12363
1.12532
1.1267
1.12807
1.12938
1.13046
1.13103
1.13067
1.12868
1.12406
1.11549
1.10167
1.08178
1.05625
1.02225
0.963174
0.890119
0.802053
0.725415
0.643132
1.08766
1.09054
1.09459
1.09763
1.09969
1.10146
1.10323
1.10492
1.10629
1.10704
1.10676
1.10485
1.10048
1.09257
1.08001
1.06188
1.03789
1.00704
0.964809
0.91398
0.862454
0.813224
0.76514
1.06013
1.06311
1.06696
1.07011
1.07244
1.07454
1.07665
1.07866
1.08032
1.08129
1.0812
1.07955
1.07567
1.06876
1.05789
1.04221
1.02117
0.994416
0.961058
0.921955
0.879504
0.838465
0.806399
1.03061
1.03373
1.03751
1.04071
1.04326
1.04563
1.04804
1.05035
1.05228
1.05351
1.0537
1.05243
1.04922
1.04345
1.03444
1.02153
1.00421
0.982241
0.955578
0.924921
0.892337
0.860924
0.834552
0.998861
1.00212
1.00589
1.00912
1.01184
1.01445
1.01712
1.0197
1.0219
1.02341
1.02393
1.02316
1.02072
1.01619
1.00907
0.998885
0.985289
0.96815
0.947557
0.924025
0.898943
0.874349
0.852433
0.964704
0.968087
0.971806
0.975033
0.977892
0.980722
0.983627
0.986441
0.988882
0.990673
0.991573
0.99136
0.989793
0.986579
0.981374
0.973839
0.963754
0.951109
0.936081
0.918997
0.900568
0.881876
0.864288
0.928005
0.931458
0.935033
0.938202
0.941167
0.944173
0.947265
0.95027
0.952922
0.95498
0.956264
0.956641
0.955985
0.954134
0.950868
0.945958
0.939265
0.930844
0.920949
0.909947
0.898354
0.886742
0.876003
0.888629
0.89208
0.895376
0.898417
0.90143
0.90455
0.907766
0.910904
0.91372
0.91601
0.917651
0.918594
0.918824
0.918299
0.916921
0.914565
0.911176
0.906865
0.901945
0.896918
0.892476
0.889234
0.887758
0.846444
0.849804
0.85268
0.855507
0.858493
0.861642
0.864896
0.868086
0.870994
0.873451
0.875385
0.876817
0.877825
0.878479
0.878798
0.878773
0.878449
0.878031
0.877947
0.878887
0.881807
0.887511
0.896719
0.801334
0.804504
0.806827
0.80935
0.812217
0.81529
0.818474
0.821609
0.824503
0.827021
0.829133
0.830913
0.832507
0.834069
0.835729
0.837599
0.839847
0.842782
0.846984
0.853443
0.863458
0.877913
0.897767
0.753215
0.756081
0.757737
0.75987
0.762516
0.765397
0.768385
0.771334
0.77407
0.776484
0.778583
0.78048
0.782359
0.78442
0.786876
0.789959
0.793992
0.799388
0.806821
0.817595
0.833389
0.855087
0.883437
0.702037
0.704479
0.705386
0.707053
0.709371
0.711936
0.714597
0.717207
0.7196
0.721682
0.723483
0.72514
0.726851
0.728816
0.731282
0.734573
0.739202
0.745713
0.75484
0.768097
0.787336
0.813301
0.846558
0.647802
0.649706
0.649823
0.650962
0.65285
0.654975
0.65717
0.659278
0.661115
0.662577
0.663698
0.664629
0.665549
0.666607
0.668013
0.670103
0.67354
0.679006
0.68734
0.700144
0.718999
0.744216
0.777542
0.590585
0.591859
0.59119
0.591758
0.59312
0.594686
0.596278
0.597711
0.598756
0.599268
0.599258
0.598869
0.598232
0.597418
0.596483
0.595669
0.595603
0.597005
0.600678
0.608016
0.61959
0.635387
0.662187
0.530552
0.531135
0.529728
0.529705
0.530456
0.531351
0.532203
0.532784
0.532792
0.532003
0.530368
0.527997
0.524957
0.521227
0.51661
0.51117
0.505223
0.499411
0.494104
0.489956
0.485647
0.480401
0.48769
0.467955
0.46783
0.465771
0.465154
0.465227
0.465354
0.465333
0.464881
0.4636
0.461157
0.457408
0.452384
0.446081
0.438363
0.428757
0.417073
0.403106
0.387342
0.36936
0.349067
0.323237
0.289621
0.264382
0.403132
0.402323
0.399728
0.398533
0.397883
0.397158
0.396137
0.394471
0.391657
0.387233
0.380927
0.372644
0.362291
0.349557
0.333748
0.314246
0.290284
0.261812
0.227375
0.18635
0.133328
0.0661097
0.0073981
0.336482
0.335051
0.332048
0.330315
0.328931
0.327295
0.325161
0.322106
0.317531
0.310845
0.301632
0.289635
0.274629
0.256065
0.233051
0.204332
0.168598
0.124442
0.0691293
-8.18551e-05
-0.0937461
-0.214124
-0.321124
0.268442
0.266472
0.263195
0.260991
0.258896
0.256325
0.25299
0.248398
0.241871
0.232713
0.220377
0.204427
0.184474
0.159687
0.12893
0.0902046
0.0415638
-0.0204451
-0.100034
-0.205203
-0.354135
-0.550292
-0.723084
0.199453
0.197047
0.193619
0.19103
0.188289
0.184795
0.180214
0.173984
0.165376
0.153633
0.138112
0.11823
0.0934281
0.0625854
0.0242941
-0.0241467
-0.0854874
-0.165158
-0.269035
-0.411927
-0.61715
-0.549874
-0.265627
0.129962
0.127225
0.123753
0.120879
0.117584
0.113217
0.107392
0.0994912
0.0887624
0.0744395
0.0558463
0.0323046
0.00313728
-0.0330364
-0.0778099
-0.134475
-0.206462
-0.300431
-0.424168
-0.596928
-0.844876
-0.177165
-0.42218
0.0604232
0.057444
0.0540195
0.0509556
0.047213
0.0420446
0.0350282
0.0254999
0.0127191
-0.00403768
-0.0254147
-0.0521155
-0.0848625
-0.125227
-0.1748
-0.237291
-0.316181
-0.418591
-0.55357
-0.739773
-1.01158
-0.40333
-0.561232
-0.00872439
-0.0118922
-0.0151886
-0.0183774
-0.0224702
-0.0283588
-0.0364787
-0.0475209
-0.0621773
-0.0810772
-0.104775
-0.133937
-0.169271
-0.21245
-0.264874
-0.330399
-0.4118
-0.516004
-0.651181
-0.832159
-1.10321
-0.918226
-0.515498
-0.0770932
-0.0804478
-0.0835413
-0.0868418
-0.0912201
-0.0977603
-0.106882
-0.119277
-0.135548
-0.156183
-0.181601
-0.212377
-0.249172
-0.293667
-0.346975
-0.412778
-0.492861
-0.59319
-0.71935
-0.882389
-1.12275
-1.14284
-0.343508
-0.144356
-0.147948
-0.150773
-0.154234
-0.158883
-0.166033
-0.176064
-0.189631
-0.207214
-0.229117
-0.255592
-0.287081
-0.324195
-0.368488
-0.42079
-0.484278
-0.560048
-0.652324
-0.765734
-0.907081
-1.10246
-1.27177
-0.389824
-0.210208
-0.214127
-0.216639
-0.220358
-0.225312
-0.23306
-0.243923
-0.258481
-0.277059
-0.299757
-0.326646
-0.35802
-0.394448
-0.437202
-0.486902
-0.545779
-0.614675
-0.695549
-0.795123
-0.915884
-1.07198
-1.23313
-1.30823
-0.274322
-0.278666
-0.280856
-0.284944
-0.290273
-0.298617
-0.310237
-0.325593
-0.344838
-0.367866
-0.394587
-0.425169
-0.460162
-0.500459
-0.546573
-0.599324
-0.65957
-0.726415
-0.808871
-0.905108
-1.02612
-1.20638
-1.33786
-0.336456
-0.341296
-0.343189
-0.347736
-0.353516
-0.362446
-0.374725
-0.39066
-0.410231
-0.433159
-0.459228
-0.488534
-0.521598
-0.558981
-0.601106
-0.647366
-0.698668
-0.751301
-0.813453
-0.879859
-0.951962
-1.10312
-1.18193
-0.396831
-0.402212
-0.403867
-0.408925
-0.415231
-0.424719
-0.437541
-0.453839
-0.473439
-0.49595
-0.52109
-0.54893
-0.579916
-0.614361
-0.652391
-0.692481
-0.735109
-0.775852
-0.818356
-0.858792
-0.883482
-0.938873
-0.870317
-0.456102
-0.462098
-0.463622
-0.469199
-0.476104
-0.48613
-0.499396
-0.515891
-0.535338
-0.557314
-0.581559
-0.608173
-0.637501
-0.669616
-0.704009
-0.738641
-0.772461
-0.802744
-0.824765
-0.848015
-0.835258
-0.799038
-0.722764
-0.513723
-0.520446
-0.52201
-0.52807
-0.535631
-0.546173
-0.55979
-0.57636
-0.595572
-0.617071
-0.640728
-0.666739
-0.695379
-0.726446
-0.758746
-0.789892
-0.81695
-0.838347
-0.838727
-0.841451
-0.791867
-0.71091
-0.647921
-0.566694
-0.574107
-0.575969
-0.582454
-0.590692
-0.601706
-0.615562
-0.632105
-0.65108
-0.672302
-0.69584
-0.721999
-0.75097
-0.782322
-0.814638
-0.845809
-0.872751
-0.893464
-0.886973
-0.872455
-0.791541
-0.605999
-0.462276
-0.613332
-0.620984
-0.623574
-0.630489
-0.639386
-0.650806
-0.664805
-0.681284
-0.700141
-0.721397
-0.745276
-0.772079
-0.80186
-0.83415
-0.868051
-0.902793
-0.937515
-0.97097
-0.989503
-0.999867
-0.963238
-0.683741
-0.517874
-0.660395
-0.66799
-0.67184
-0.679219
-0.688679
-0.700441
-0.714587
-0.731138
-0.750131
-0.771683
-0.795993
-0.823265
-0.853576
-0.886869
-0.923223
-0.963311
-1.00854
-1.06061
-1.12029
-1.19822
-1.30447
-1.23154
-1.70263
-0.721588
-0.731365
-0.736107
-0.743953
-0.753891
-0.766062
-0.780583
-0.797568
-0.817108
-0.839259
-0.86407
-0.891673
-0.922411
-0.956938
-0.996218
-1.04158
-1.09529
-1.16216
-1.25217
-1.39122
-1.61828
-1.92745
-3.55579
1338.54
156.738
8.17064
4.26438
1578.4
1281.24
349.778
4.856
1705.08
1675.58
1528.9
542.632
1812.37
1791.82
1780.8
1612.83
1074.62
1841.8
1897.3
1876.07
114.192
317.423
1309.8
1969.09
0.62256
0.867857
31.5953
1155.01
0.510381
0.564411
0.29248
0.0540963
0.745489
0.669058
0.49016
0.56413
0.775216
1.05651
0.909417
0.819831
0.813833
1.27767
1.05185
0.935957
1.09559
1.40217
1.25542
0.817592
1.14043
1.43405
1.40114
0.831533
0.863662
1.39327
1.4358
0.877366
0.888307
1.0853
1.42678
0.964265
0.912004
0.96293
1.14877
1.06481
0.927397
0.977
1.05129
1.1247
0.923092
0.988307
1.07812
1.24132
0.892345
0.957449
1.00231
1.09275
0.829587
0.899706
1.00136
1.04933
0.720277
0.817786
0.995392
1.15464
0.685507
1.92926
1.39016
0.977201
1.9098
3.3086
3.32603
0.973466
2.39399
2.98071
3.04774
0.932159
0.621273
2.65538
2.05135
0.522018
-0.819171
1.9231
-0.154161
-0.0807994
-0.588495
-1.02316
-1.27134
-0.869278
-0.795932
-1.71242
-1.69752
54.8785
-1.14336
-1.88889
-1.84611
44.9499
-1.19022
-1.78098
-1.76833
4.21282
-0.906307
-1.44884
-1.43082
-0.948613
-0.777596
-1.20498
-1.18056
0.986062
-1.27798
-1.21134
-1.15194
24.1096
-1.46755
2.87458
-1.4768
473.729
-1.43036
13.131
20.9871
972.186
-1.04859
-1.0701
413.957
1021.62
-0.486292
-0.503145
1018.63
1052.63
-0.190255
-0.00445983
968.771
1077.19
0.000367238
0.392327
647.895
1099.35
0.444234
1.07962
756.148
1113.13
-0.237539
79.4034
841.916
977.022
-4.57193
23.6225
409.155
58.6867
2.92893
2.77417
2.73172
2.65611
2.5861
2.52609
2.47125
2.42044
2.37413
2.33251
2.29553
2.2631
2.23509
2.21132
2.19169
2.17608
2.16443
2.15669
2.15283
2.93257
2.68865
2.69315
2.65307
2.58673
2.52298
2.46439
2.41033
2.36135
2.31762
2.27901
2.24533
2.21637
2.19188
2.1717
2.1557
2.14375
2.13583
2.13189
3.23165
2.68935
2.68504
2.65378
2.58621
2.51769
2.45507
2.39776
2.34616
2.30041
2.26027
2.22542
2.19558
2.17044
2.14978
2.13341
2.12122
2.11314
2.10912
353.82
2.70255
2.69383
2.65826
2.58598
2.51042
2.44311
2.38244
2.32827
2.28063
2.23909
2.20321
2.1726
2.1469
2.12582
2.10915
2.09676
2.08856
2.08448
1145.81
46.2288
2.85885
2.67508
2.58265
2.50035
2.42788
2.36389
2.30734
2.258
2.21527
2.17853
2.14729
2.12114
2.09975
2.08286
2.07032
2.06203
2.05791
1717.4
345.353
3.1222
2.68205
2.57437
2.48607
2.40892
2.34162
2.28299
2.23228
2.18861
2.15123
2.11956
2.0931
2.07149
2.05447
2.04184
2.03351
2.02937
1744.36
922.638
28.0038
2.77893
2.57104
2.46523
2.38488
2.31503
2.25484
2.2032
2.15894
2.12119
2.08929
2.06269
2.04101
2.02395
2.01131
2.00297
1.99883
1425.53
1201.87
96.2721
2.98154
2.56839
2.43964
2.3548
2.28343
2.22251
2.17051
2.12608
2.08829
2.0564
2.02985
2.00824
1.99126
1.97868
1.97039
1.96627
704.549
1204.61
346.202
3.55336
2.55514
2.40192
2.31739
2.24625
2.18567
2.13402
2.08991
2.05244
2.02083
1.99455
1.97317
1.95638
1.94395
1.93574
1.93167
377.062
1153.37
556.401
8.66895
2.56593
2.35898
2.27311
2.20322
2.14415
2.09361
2.05036
2.01358
1.98256
1.95676
1.93578
1.9193
1.9071
1.89904
1.89504
156.289
1119.78
683.864
26.6408
2.57614
2.30582
2.21979
2.15426
2.09798
2.04927
2.00742
1.97173
1.94158
1.91647
1.89605
1.88001
1.86813
1.86027
1.85637
0.595196
1048.64
748.507
47.4114
2.54775
2.2412
2.15766
2.09949
2.04732
2.00109
1.96117
1.92694
1.89793
1.87373
1.85401
1.83852
1.82705
1.81945
1.81568
0.559358
857.263
746.574
65.4462
2.47522
2.16824
2.08975
2.0399
1.99252
1.94929
1.91173
1.87931
1.8517
1.82859
1.80972
1.79487
1.78389
1.77661
1.77299
0.701818
792.537
717.122
72.9841
2.39234
2.09272
2.01886
1.97675
1.93411
1.89419
1.85931
1.82897
1.80298
1.78113
1.76322
1.74912
1.73867
1.73177
1.72833
0.85543
745.984
747.451
131.527
2.36422
2.02009
1.94675
1.91112
1.87259
1.8361
1.80411
1.77605
1.75188
1.73144
1.71461
1.70132
1.69148
1.68498
1.68175
1.0384
620.855
775.689
182.894
2.40979
1.94791
1.87491
1.84346
1.80832
1.77538
1.74637
1.72072
1.69851
1.67963
1.66398
1.65156
1.64236
1.6363
1.6333
1.2501
425.338
771.216
150.129
2.34289
1.86819
1.80376
1.77336
1.74158
1.71233
1.68633
1.66319
1.64303
1.6258
1.61143
1.59995
1.59142
1.58582
1.58304
1.521
479.479
294.583
27.4666
1.99103
1.77714
1.72835
1.70006
1.67267
1.64719
1.62425
1.60367
1.58561
1.5701
1.55707
1.54657
1.53875
1.53361
1.53107
13.2986
640.198
562.479
48.8297
1.85073
1.69031
1.64801
1.62451
1.6018
1.58011
1.56032
1.54237
1.52643
1.51266
1.50101
1.49155
1.48445
1.47977
1.47747
150.862
692.826
696.692
196.046
1.95304
1.61065
1.56515
1.54804
1.52916
1.51125
1.49472
1.47945
1.46567
1.45365
1.44341
1.43499
1.42862
1.42442
1.42235
30.4713
722.69
719.905
312.381
2.31008
1.54425
1.48719
1.47106
1.45484
1.4408
1.42763
1.41509
1.40349
1.39323
1.38438
1.37702
1.3714
1.36767
1.36583
1.25586
271.194
518.398
204.03
3.90043
1.46125
1.40639
1.39031
1.37879
1.36895
1.35923
1.34948
1.34007
1.33154
1.32407
1.31777
1.31289
1.30963
1.30802
1.20427
2.14111
42.5407
22.7364
4.92375
1.33055
1.30863
1.30458
1.30089
1.2959
1.28979
1.28284
1.2756
1.26877
1.26263
1.25736
1.25322
1.25043
1.24905
3.59896
56.1308
15.0829
1.63863
1.44056
1.19329
1.20713
1.21796
1.22195
1.22215
1.21962
1.2154
1.2103
1.20508
1.2002
1.19592
1.19251
1.19018
1.18903
17.0314
567.302
80.8777
1.1407
0.995794
1.06709
1.11381
1.13341
1.14345
1.1483
1.14902
1.14739
1.14432
1.14065
1.13695
1.13359
1.13088
1.12901
1.12807
256.653
706.881
554.857
33.7246
0.952484
0.973787
1.02921
1.05278
1.06655
1.07481
1.07825
1.07897
1.07782
1.07561
1.07301
1.07052
1.06845
1.06702
1.0663
711.507
731.771
725.705
84.1105
1.07338
0.911736
0.954827
0.976185
0.991428
1.00188
1.00755
1.01032
1.01094
1.01008
1.00852
1.00682
1.00536
1.00433
1.00382
746.068
749.102
556.672
43.4748
1.01186
0.851419
0.881911
0.900766
0.917327
0.929479
0.937068
0.941628
0.943792
0.944184
0.943576
0.94262
0.941714
0.941059
0.940735
738.442
768.044
163.687
6.25322
0.801117
0.767238
0.800466
0.824241
0.843403
0.857491
0.866926
0.873045
0.876545
0.87804
0.878303
0.878023
0.877618
0.877295
0.877138
506.652
295.056
6.72177
1.27479
0.648194
0.671931
0.716184
0.747171
0.769685
0.786039
0.797251
0.804732
0.809348
0.811779
0.812809
0.813131
0.813167
0.813133
0.813121
25.4188
5.67995
1.00604
0.484526
0.519933
0.580993
0.63468
0.671215
0.696967
0.715452
0.728212
0.73683
0.742338
0.745526
0.747199
0.748036
0.748448
0.748657
0.748764
1.73763
1.04111
0.290743
0.326597
0.422212
0.499022
0.557886
0.59797
0.626121
0.64613
0.660011
0.669466
0.675631
0.679391
0.68157
0.682821
0.683537
0.68394
0.684139
1.00526
-0.140717
0.0562881
0.221227
0.340679
0.425649
0.486574
0.528371
0.55771
0.578408
0.592844
0.602758
0.609319
0.61346
0.616001
0.617557
0.618499
0.619042
0.619308
374.087
13.7576
-0.0444167
0.144629
0.275979
0.36245
0.42151
0.462812
0.491956
0.512457
0.52684
0.536798
0.543475
0.547798
0.550551
0.552299
0.553385
0.554018
0.554324
965.861
100.374
0.0428538
0.11869
0.233456
0.310259
0.362833
0.401249
0.428784
0.448259
0.462025
0.471627
0.478141
0.482445
0.48526
0.487086
0.488236
0.488907
0.489231
1005.14
168.258
0.29829
0.132795
0.208874
0.266662
0.309633
0.343177
0.367901
0.385654
0.398326
0.407223
0.41332
0.417417
0.420148
0.421943
0.42308
0.423745
0.424064
1048.82
122.53
0.357367
0.143022
0.186507
0.226204
0.259909
0.287711
0.30889
0.324403
0.335605
0.343514
0.348978
0.3527
0.355215
0.35688
0.357935
0.358552
0.358849
734.255
31.518
0.202
0.124525
0.153604
0.184895
0.211577
0.233907
0.251301
0.264247
0.273694
0.280394
0.285054
0.288259
0.290443
0.291894
0.292811
0.293347
0.293605
291.811
1.27026
0.0621429
0.0817774
0.112606
0.142205
0.163555
0.181075
0.1947
0.204904
0.212396
0.217727
0.221451
0.22403
0.225795
0.226967
0.227702
0.228133
0.228342
173.495
0.0299183
-0.0160047
0.0342465
0.0720439
0.0996288
0.11602
0.128985
0.138827
0.146171
0.151568
0.15541
0.158102
0.159973
0.161252
0.162098
0.162624
0.162932
0.163084
81.826
-0.121473
-0.0927173
-0.0012494
0.0368271
0.0582055
0.0689424
0.0771475
0.0831509
0.0875923
0.0908426
0.0931533
0.0947743
0.0959023
0.096671
0.0971744
0.0974843
0.097667
0.0977613
-1.2217
-0.42372
-0.117011
-0.0117754
0.00889393
0.0192308
0.0233719
0.0263428
0.0283292
0.0297509
0.0307654
0.0314716
0.0319569
0.0322856
0.0325009
0.0326343
0.0327104
0.0327542
0.0327767
)
;

boundaryField
{
    leftWall
    {
        type            fixedFluxPressure;
        gradient        uniform 0;
        value           nonuniform List<scalar> 
50
(
1599.04
1596.46
1591.24
1583.59
1573.61
1561.24
1546.97
1530.25
1357.04
203.502
1.22132
1.2117
1.1893
1.16307
1.13863
1.11361
1.08766
1.06013
1.03061
0.998861
0.964704
0.928005
0.888629
0.846444
0.801334
0.753215
0.702037
0.647802
0.590585
0.530552
0.467955
0.403132
0.336482
0.268442
0.199453
0.129962
0.0604232
-0.00872439
-0.0770932
-0.144356
-0.210208
-0.274322
-0.336456
-0.396831
-0.456102
-0.513723
-0.566694
-0.613332
-0.660395
-0.721588
)
;
    }
    rightWall
    {
        type            fixedFluxPressure;
        gradient        uniform 0;
        value           nonuniform List<scalar> 
50
(
2.28681
2.28332
2.2761
2.26511
2.25017
2.23105
2.20748
2.17915
2.15283
2.13189
2.10912
2.08448
2.05791
2.02937
1.99883
1.96627
1.93167
1.89504
1.85637
1.81568
1.77299
1.72833
1.68175
1.6333
1.58304
1.53107
1.47747
1.42235
1.36583
1.30802
1.24905
1.18903
1.12807
1.0663
1.00382
0.940735
0.877138
0.813121
0.748764
0.684139
0.619308
0.554324
0.489231
0.424064
0.358849
0.293605
0.228342
0.163084
0.0977613
0.0327767
)
;
    }
    lowerWall
    {
        type            fixedFluxPressure;
        gradient        uniform 0;
        value           nonuniform List<scalar> 
62
(
1599.04
1599.71
1600.58
1601.55
1602.6
1603.99
1605.79
1608.01
1610.61
1613.57
1616.84
1620.33
1623.97
1627.65
1631.26
1634.68
1637.75
1640.31
1642.25
1643.37
1643.29
1640.05
1626.45
1626.45
1626.76
1638.78
1666.27
1673.62
1682.93
1691.53
1679.85
1338.54
156.738
8.17064
4.26438
2.55853
2.56367
2.57428
2.59046
2.61244
2.6471
2.69255
2.58958
2.55853
2.55364
2.54368
2.52951
2.5119
2.49174
2.46992
2.44729
2.42456
2.40236
2.38119
2.3615
2.34364
2.32788
2.31444
2.3035
2.29519
2.28961
2.28681
)
;
    }
    atmosphere
    {
        type            totalPressure;
        rho             rho;
        psi             none;
        gamma           1;
        p0              uniform 0;
        value           nonuniform List<scalar> 
46
(
-0.763969
-0.779341
-0.782717
-0.790758
-0.800923
-0.813349
-0.828174
-0.845532
-0.865501
-0.888058
-0.913145
-0.940861
-0.971688
-1.00658
-1.04674
-1.09341
-1.14849
-1.2168
-1.30868
-1.45114
-1.62611
-1.97357
-3.24263
-4.64053
0
0
0
0
0
0
0
0
0
0
0
0
0
0
0
0
0
0
0
0
0
0
)
;
    }
    defaultFaces
    {
        type            empty;
    }
}


// ************************************************************************* //
