/*--------------------------------*- C++ -*----------------------------------*\
| =========                 |                                                 |
| \\      /  F ield         | OpenFOAM: The Open Source CFD Toolbox           |
|  \\    /   O peration     | Version:  2206                                  |
|   \\  /    A nd           | Website:  www.openfoam.com                      |
|    \\/     M anipulation  |                                                 |
\*---------------------------------------------------------------------------*/
FoamFile
{
    version     2.0;
    format      ascii;
    arch        "LSB;label=32;scalar=64";
    class       volScalarField;
    location    "0.475";
    object      p_rgh;
}
// * * * * * * * * * * * * * * * * * * * * * * * * * * * * * * * * * * * * * //

dimensions      [1 -1 -2 0 0 0 0];

internalField   nonuniform List<scalar> 
2268
(
1447.4
1447.82
1448.95
1450.8
1453.18
1456.49
1460.47
1464.95
1469.83
1475.03
1480.42
1485.91
1491.38
1496.69
1501.75
1506.43
1510.6
1514.18
1517.13
1519.19
1520.31
1517.58
1505.53
1444.28
1444.62
1445.85
1447.83
1450.61
1454.21
1458.51
1463.36
1468.64
1474.24
1480.06
1485.98
1491.88
1497.65
1503.17
1508.35
1513.06
1517.18
1520.8
1523.04
1525.54
1525.53
1495.16
1437.63
1438.09
1439.57
1441.93
1445.26
1449.5
1454.51
1460.12
1466.21
1472.65
1479.33
1486.12
1492.88
1499.51
1505.88
1511.87
1517.39
1522.33
1526.77
1530.27
1533.47
1533.81
1510.11
1426.87
1427.65
1429.66
1432.74
1436.97
1442.23
1448.32
1455.09
1462.42
1470.16
1478.17
1486.3
1494.4
1502.35
1509.91
1517.05
1523.66
1529.64
1534.96
1539.39
1543.27
1546.09
1547.05
1411.01
1411.94
1414.99
1419.53
1425.4
1432.59
1439.92
1448.23
1457.26
1466.79
1476.62
1486.53
1496.36
1505.89
1515.31
1524.1
1532.15
1539.39
1545.76
1551.03
1555.44
1558.52
1560.73
1390.84
1389.85
1394.99
1401.99
1409.17
1417
1426.99
1437.84
1449.48
1461.74
1474.35
1487.04
1499.57
1511.73
1523.1
1533.79
1543.62
1552.44
1560.13
1566.55
1571.78
1575.42
1577.8
1369.11
1366.99
1371.84
1384.26
1395.62
1403.72
1414.79
1427.67
1441.91
1457.07
1472.7
1488.27
1503.63
1518.72
1533.04
1546.28
1558.43
1569.34
1578.86
1586.86
1593.19
1597.71
1599.94
769.918
719.566
709.215
761.98
845.389
937.393
1059.15
1167.13
1272.36
1372.31
1453.91
1490.3
1509.21
1527.58
1545.46
1562.04
1577.07
1590.48
1602.44
1613.72
1620.68
1632.84
1638.82
13.865
13.87
14.0992
15.356
18.2105
18.8246
16.2558
13.9441
12.5997
11.8473
11.3383
10.9575
10.6751
10.4657
10.3085
10.1919
10.1091
10.0563
10.0308
13.6412
13.4566
13.2444
13.4662
16.0526
17.7262
15.5519
13.0468
11.8867
11.4563
11.1097
10.8009
10.5608
10.3774
10.2359
10.1289
10.0522
10.0028
9.97887
13.2746
12.9649
12.7169
12.2988
27.6348
18.4932
17.0667
11.7437
10.8483
10.8179
10.6844
10.489
10.3184
10.178
10.0634
9.97393
9.90871
9.86643
9.8461
13.0358
12.8534
11.7384
80.9754
244.609
134.395
21.3098
10.7316
10.285
10.2734
10.2224
10.1132
10.0048
9.90497
9.81739
9.7464
9.69342
9.65863
9.6418
13.1824
13.2558
13.6665
412.933
474.72
379.274
61.3108
11.8419
10.2954
9.9236
9.80988
9.72996
9.65451
9.58125
9.51514
9.46046
9.41886
9.39117
9.37761
13.2453
13.4858
377.581
580.894
572.59
572.332
282.68
20.6288
10.6061
9.59618
9.37928
9.32698
9.27056
9.21327
9.16328
9.12217
9.0906
9.06943
9.05897
13.2996
277.346
647.666
672.007
681.28
649.578
530.239
133.993
11.561
9.32034
8.91794
8.89291
8.84959
8.80112
8.76419
8.73477
8.71222
8.69719
8.68979
625.026
748.28
646.201
346.558
210.717
404.998
568.575
320.065
19.5665
9.1072
8.52322
8.44534
8.38951
8.34519
8.31981
8.30116
8.28757
8.27902
8.27496
0.559308
0.541843
9.40793
20.7585
20.1493
17.6449
39.257
85.2236
175.901
321.375
534.715
814.355
1065.51
1324.84
1549.98
1580.26
1596.98
1611.41
1623.77
1635.5
1645.08
1655.66
1664.58
0.522173
0.516035
0.503413
0.510404
0.559679
0.582689
0.559557
0.547719
0.587096
11.0348
39.6917
79.0286
159.929
330.876
630.854
965.857
1202.25
1440.97
1552.83
1597.88
1638.44
1667.25
1682.42
0.488787
0.482519
0.473128
0.480625
0.477039
0.458128
0.412786
0.368638
0.266447
0.0406401
-0.106949
-0.0733518
-0.0543741
-0.0631882
-0.127776
0.0523334
78.3959
228.922
403.187
522.552
669.833
870.95
1058.85
0.456827
0.453364
0.452172
0.449655
0.44358
0.4216
0.377581
0.317098
0.231884
0.106404
0.000417062
-0.0283638
-0.0492422
-0.0843469
-0.133853
-0.234059
-0.337128
-0.324965
-0.337752
-0.399365
-0.467994
-0.519395
-0.574372
0.428078
0.42643
0.428045
0.423946
0.41324
0.390479
0.353132
0.304034
0.242956
0.16682
0.0877876
0.0322522
-0.00542208
-0.040127
-0.0780772
-0.135934
-0.236264
-0.30058
-0.331543
-0.376806
-0.432204
-0.481185
-0.533307
0.400995
0.400063
0.40243
0.398118
0.386191
0.36441
0.332005
0.289698
0.238671
0.178663
0.11766
0.0627757
0.0157608
-0.02788
-0.0720088
-0.124053
-0.18949
-0.242887
-0.28092
-0.323794
-0.374891
-0.427076
-0.479719
0.375199
0.374726
0.377106
0.373162
0.361605
0.341556
0.313178
0.277264
0.234861
0.187155
0.136972
0.0874547
0.0406607
-0.00436491
-0.0499725
-0.099591
-0.155209
-0.209006
-0.255227
-0.299918
-0.347518
-0.396743
-0.446773
0.351003
0.350453
0.352556
0.349126
0.338503
0.320486
0.295776
0.265171
0.229391
0.189228
0.145953
0.101178
0.0561503
0.0110372
-0.034719
-0.0821685
-0.131596
-0.180107
-0.225034
-0.268728
-0.31424
-0.361509
-0.409344
0.327903
0.327428
0.328969
0.32593
0.316341
0.30037
0.278939
0.252716
0.222066
0.187357
0.149223
0.108549
0.0661696
0.0225826
-0.0219995
-0.0675784
-0.113907
-0.159707
-0.203605
-0.246265
-0.289386
-0.333449
-0.377735
0.305381
0.305117
0.306193
0.303432
0.294816
0.280755
0.262207
0.239636
0.213098
0.182627
0.148493
0.111222
0.0714537
0.0297994
-0.0131507
-0.0568026
-0.100468
-0.14329
-0.184677
-0.225109
-0.265806
-0.30737
-0.349168
0.283246
0.283067
0.283969
0.281486
0.273757
0.26141
0.245349
0.225811
0.202601
0.175524
0.144628
0.110249
0.0729333
0.033358
-0.00768827
-0.0493274
-0.0906605
-0.130939
-0.169882
-0.207969
-0.246164
-0.285034
-0.324087
0.261613
0.261419
0.262224
0.259993
0.253051
0.242206
0.228257
0.211215
0.19069
0.166345
0.138113
0.106223
0.0711667
0.0336532
-0.00541869
-0.045016
-0.0841134
-0.121953
-0.158354
-0.193861
-0.229432
-0.265681
-0.302211
0.240587
0.24039
0.24101
0.2389
0.232618
0.223067
0.210893
0.195891
0.177528
0.155394
0.129373
0.0996444
0.0666637
0.0311476
-0.00595032
-0.0435122
-0.0804433
-0.115972
-0.149962
-0.183005
-0.216067
-0.24977
-0.283752
0.220182
0.220062
0.22036
0.218166
0.212383
0.203918
0.193219
0.179881
0.163267
0.142944
0.118783
0.0909466
0.0598652
0.0262478
-0.00893099
-0.0445129
-0.0793666
-0.112716
-0.144452
-0.175209
-0.205976
-0.237351
-0.268939
0.200318
0.200349
0.200197
0.197704
0.192246
0.184661
0.175164
0.163171
0.14798
0.129158
0.106587
0.0804203
0.0510679
0.0192232
-0.0141332
-0.0478245
-0.0807006
-0.111989
-0.141618
-0.170274
-0.198992
-0.228348
-0.257844
0.180809
0.181026
0.180322
0.177358
0.172073
0.165184
0.156642
0.145715
0.131672
0.114102
0.0929031
0.0682183
0.0404351
0.0102269
-0.0214282
-0.0533418
-0.084352
-0.11369
-0.14132
-0.168001
-0.194849
-0.222464
-0.250248
0.161397
0.161792
0.160462
0.156936
0.151732
0.145387
0.137583
0.127478
0.11435
0.0978241
0.0778134
0.0544468
0.0280845
-0.000621817
-0.0307039
-0.060967
-0.0902375
-0.117744
-0.143477
-0.168266
-0.193332
-0.219369
-0.245758
0.141812
0.142338
0.140342
0.136259
0.131118
0.125207
0.117956
0.108464
0.0960522
0.0803967
0.0614213
0.0392336
0.0141624
-0.0131652
-0.0417953
-0.0705359
-0.0982076
-0.124032
-0.148006
-0.171003
-0.194339
-0.218847
-0.244003
0.121752
0.122369
0.119746
0.1152
0.110155
0.104602
0.0977518
0.0887014
0.076851
0.0619289
0.0438639
0.0227388
-0.0011491
-0.0271995
-0.0544801
-0.0818135
-0.108029
-0.132347
-0.154756
-0.176138
-0.197854
-0.220863
-0.24483
0.101106
0.101698
0.0985571
0.093711
0.0888172
0.0835488
0.0769666
0.068226
0.0568226
0.0425331
0.0252821
0.00512633
-0.0176643
-0.0425154
-0.0685218
-0.0945363
-0.119417
-0.142405
-0.163485
-0.183516
-0.203848
-0.225497
-0.248335
0.079868
0.0802878
0.0767708
0.0718041
0.0670948
0.0620267
0.0556006
0.0470733
0.0360384
0.0223075
0.0057942
-0.0134673
-0.0352279
-0.0589354
-0.083716
-0.108467
-0.1321
-0.153901
-0.173878
-0.192865
-0.212163
-0.232777
-0.254721
0.0581525
0.0582707
0.054474
0.0495292
0.044994
0.0400296
0.033667
0.0252855
0.014564
0.00133267
-0.0145083
-0.0329398
-0.0537251
-0.0763304
-0.0999152
-0.123432
-0.145863
-0.166569
-0.185607
-0.203822
-0.222469
-0.242511
-0.264009
0.0361597
0.0359047
0.0318067
0.0269461
0.0225294
0.0175692
0.0111978
0.00291531
-0.00753669
-0.0203221
-0.0355514
-0.0532117
-0.0730708
-0.0946095
-0.117022
-0.139322
-0.160574
-0.180231
-0.198427
-0.216051
-0.234352
-0.254277
-0.275859
0.0140776
0.0134364
0.00890095
0.00410094
-0.000277643
-0.00532444
-0.0117584
-0.019977
-0.0302001
-0.042592
-0.0572675
-0.0742114
-0.0931907
-0.113699
-0.134967
-0.156074
-0.176173
-0.194819
-0.212228
-0.22936
-0.247488
-0.267594
-0.289669
-0.00800648
-0.00903255
-0.0141714
-0.0189838
-0.0234066
-0.0286114
-0.0351465
-0.0433298
-0.0533637
-0.0654126
-0.0795876
-0.0958652
-0.114009
-0.133524
-0.153684
-0.173638
-0.192634
-0.21034
-0.227039
-0.243768
-0.261796
-0.282184
-0.304912
-0.0301477
-0.0315878
-0.0374206
-0.0423125
-0.0468459
-0.0522537
-0.058913
-0.067084
-0.0769652
-0.0887166
-0.102438
-0.118093
-0.13544
-0.153999
-0.173091
-0.191949
-0.209925
-0.226816
-0.242952
-0.25945
-0.277465
-0.29817
-0.321509
-0.0525172
-0.0544404
-0.0609134
-0.0659102
-0.0705935
-0.0762206
-0.0830099
-0.0911838
-0.100942
-0.112432
-0.125738
-0.140805
-0.157386
-0.175022
-0.19309
-0.210918
-0.227985
-0.244234
-0.26003
-0.276601
-0.294794
-0.316004
-0.339854
-0.0753254
-0.0778126
-0.0847231
-0.0898083
-0.0946492
-0.100485
-0.107393
-0.115574
-0.125226
-0.136479
-0.149394
-0.163898
-0.179739
-0.196485
-0.213574
-0.230447
-0.246723
-0.262519
-0.278237
-0.295266
-0.313929
-0.336092
-0.360322
-0.0987431
-0.101843
-0.108888
-0.114025
-0.119002
-0.125013
-0.132015
-0.140195
-0.149743
-0.160767
-0.173304
-0.187262
-0.202389
-0.218282
-0.234447
-0.250446
-0.266045
-0.281553
-0.297427
-0.315259
-0.334722
-0.358393
-0.38278
-0.12285
-0.126551
-0.133397
-0.138548
-0.143622
-0.149757
-0.156817
-0.164977
-0.17441
-0.185201
-0.197364
-0.210791
-0.225236
-0.240328
-0.25564
-0.270856
-0.285878
-0.301216
-0.317383
-0.336205
-0.356739
-0.382313
-0.4068
-0.147613
-0.151856
-0.158204
-0.163339
-0.168459
-0.174662
-0.18174
-0.189854
-0.199155
-0.209704
-0.221492
-0.234406
-0.248207
-0.262562
-0.277116
-0.291654
-0.306203
-0.321435
-0.337909
-0.357677
-0.379336
-0.406813
-0.431803
-0.172903
-0.177593
-0.183227
-0.188325
-0.193441
-0.199656
-0.206716
-0.214761
-0.223914
-0.234211
-0.245627
-0.258044
-0.271247
-0.284945
-0.298855
-0.312848
-0.327049
-0.342204
-0.35891
-0.379325
-0.401835
-0.430718
-0.456695
-0.198499
-0.203516
-0.208336
-0.213376
-0.218444
-0.224627
-0.231641
-0.239596
-0.248589
-0.258629
-0.269677
-0.281623
-0.29428
-0.307414
-0.320816
-0.334417
-0.348413
-0.363496
-0.380318
-0.400854
-0.423676
-0.452969
-0.479973
-0.224113
-0.229338
-0.233331
-0.238297
-0.243289
-0.249402
-0.256346
-0.264197
-0.273021
-0.282807
-0.293504
-0.305016
-0.317194
-0.329868
-0.342898
-0.356263
-0.370176
-0.385181
-0.401958
-0.421956
-0.444421
-0.472634
-0.500093
-0.249502
-0.25483
-0.258046
-0.262922
-0.267824
-0.27384
-0.280701
-0.28844
-0.297098
-0.306646
-0.31703
-0.328167
-0.339952
-0.352278
-0.36507
-0.37834
-0.392265
-0.407197
-0.423721
-0.442607
-0.463974
-0.489445
-0.516344
-0.274566
-0.279924
-0.282469
-0.287239
-0.292066
-0.297983
-0.304764
-0.312408
-0.320928
-0.330285
-0.340426
-0.351286
-0.362802
-0.374925
-0.387634
-0.400956
-0.414987
-0.429883
-0.445971
-0.463485
-0.483079
-0.504899
-0.53013
-0.299232
-0.304607
-0.306636
-0.311291
-0.316086
-0.32193
-0.328666
-0.33626
-0.344703
-0.353956
-0.363969
-0.374701
-0.386126
-0.398242
-0.411064
-0.424606
-0.438856
-0.453762
-0.469312
-0.485452
-0.502823
-0.521246
-0.543841
-0.323066
-0.328504
-0.330195
-0.334707
-0.33951
-0.345319
-0.352046
-0.359643
-0.368085
-0.377333
-0.387351
-0.398119
-0.409643
-0.421954
-0.435077
-0.448978
-0.463509
-0.478394
-0.4933
-0.507997
-0.522796
-0.538027
-0.556432
-0.345185
-0.350656
-0.352193
-0.356507
-0.361324
-0.367112
-0.373838
-0.381453
-0.389928
-0.399229
-0.409332
-0.42024
-0.431979
-0.444589
-0.458076
-0.472335
-0.487076
-0.501816
-0.515967
-0.529076
-0.540999
-0.552046
-0.563172
-0.365121
-0.370353
-0.371999
-0.376119
-0.380954
-0.38673
-0.393447
-0.401075
-0.409587
-0.418964
-0.429199
-0.440304
-0.452305
-0.465228
-0.47904
-0.493576
-0.508463
-0.523109
-0.536798
-0.548845
-0.558573
-0.565164
-0.566872
-0.384473
-0.389397
-0.391564
-0.395625
-0.40054
-0.406387
-0.413187
-0.420938
-0.429642
-0.439298
-0.449913
-0.461497
-0.474059
-0.487593
-0.502042
-0.517249
-0.53291
-0.548546
-0.563512
-0.576989
-0.58781
-0.593947
-0.591483
-0.407412
-0.413883
-0.416465
-0.420679
-0.425825
-0.431968
-0.439139
-0.447369
-0.456695
-0.467151
-0.478763
-0.491548
-0.505512
-0.520639
-0.536902
-0.554258
-0.572642
-0.59191
-0.611739
-0.631453
-0.649799
-0.664677
-0.672572
1668.47
1665.95
1641.9
1591.08
1687.59
1679.87
1628.92
1490.12
1052.78
911.305
637.748
176.861
-0.646469
-0.749892
-0.868432
-0.957241
-0.604289
-0.689404
-0.778567
-0.863376
-0.544268
-0.618545
-0.689765
-0.75643
-0.50243
-0.562893
-0.621795
-0.677636
-0.460857
-0.515438
-0.567523
-0.614954
-0.424443
-0.472354
-0.51722
-0.557792
-0.392723
-0.436191
-0.475715
-0.510694
-0.364613
-0.404472
-0.439862
-0.470231
-0.340122
-0.377152
-0.409487
-0.436324
-0.319
-0.353378
-0.383246
-0.407465
-0.301567
-0.333273
-0.36076
-0.382807
-0.288055
-0.317104
-0.342071
-0.361994
-0.278464
-0.30513
-0.32753
-0.345134
-0.272489
-0.297336
-0.317494
-0.332821
-0.269685
-0.293452
-0.312204
-0.325991
-0.269721
-0.293105
-0.311667
-0.325456
-0.272571
-0.296087
-0.315746
-0.331604
-0.278475
-0.30251
-0.324344
-0.344435
-0.287638
-0.312607
-0.33734
-0.363363
-0.299916
-0.326312
-0.354245
-0.386848
-0.314739
-0.342984
-0.373853
-0.412259
-0.331322
-0.361489
-0.394329
-0.436617
-0.349145
-0.380858
-0.414163
-0.457823
-0.368332
-0.401238
-0.433198
-0.474517
-0.389591
-0.424011
-0.452073
-0.40644
-0.413449
-0.449405
-0.475486
1.83819
-0.439727
-0.474855
-0.500067
3.26046
-0.467535
-0.500814
-0.285667
3.19527
-0.494799
-0.528902
-0.521393
2.42654
-0.519235
-0.557207
-0.600663
-0.0871991
-0.53849
-0.579499
-0.625754
-0.689394
-0.550853
-0.592705
-0.634346
-0.710202
-0.558616
-0.602236
-0.632333
-0.719079
-0.567649
-0.613787
-0.633814
-0.75899
-0.577128
-0.619808
-0.640156
-0.773548
-0.575777
-0.599961
-0.619647
-0.640294
-0.562274
-0.550204
-0.544987
-0.400039
-0.573523
-0.526128
-0.445389
-0.252278
-0.666988
-0.627661
-0.507909
-0.187869
1460.36
852.342
0.267923
-1.50818
-1.28272
-1.21704
176.564
225.368
42.8473
9.25441
8.34983
8.09858
7.99132
7.94737
7.9312
7.922
7.91743
7.91562
7.91514
726.896
-1.60457
-1.38447
-1.21369
-1.13749
-0.697252
14.8598
36.7209
30.5096
10.662
8.17316
7.81297
7.67171
7.63518
7.62805
7.62778
7.63161
7.63584
7.63848
-1.86457
-1.51071
-1.26177
-1.09486
-1.02158
0.504641
6.1698
19.8934
12.8514
9.51402
8.0049
7.47269
7.31107
7.29905
7.30649
7.31877
7.33298
7.34421
7.35032
-1.10286
-1.16612
-1.13172
-1.02885
-0.94224
-0.307012
61.8486
90.8088
31.7949
9.95275
7.73403
7.0227
6.89615
6.93567
6.96692
6.99742
7.02455
7.04368
7.05356
-0.971371
-1.03874
-1.00795
-0.962147
-0.924397
84.9243
256.954
270.588
162.373
15.6786
7.14381
6.36512
6.41282
6.54202
6.6101
6.6661
6.70891
6.73674
6.75058
-0.834982
-0.889272
-0.880816
-0.88413
-0.881557
197.049
280.798
283.328
286.015
66.9977
6.35392
5.55357
5.88016
6.12491
6.24116
6.32887
6.38913
6.4261
6.44397
-0.742609
-0.78387
-0.787723
-0.79878
-0.80013
48.1744
294.092
298.235
298.911
162.389
6.79674
4.69889
5.3627
5.70323
5.87136
5.99199
6.06913
6.11508
6.13692
-0.667988
-0.701833
-0.706511
-0.721984
-0.75417
-0.77205
234.54
310.533
313.86
187.025
6.44353
4.06851
4.93187
5.30366
5.516
5.66242
5.75303
5.80695
5.83246
-0.603341
-0.638051
-0.644543
-0.64693
-0.678678
-0.658844
80.403
318.084
323.804
66.4671
3.94154
4.16084
4.6402
4.9575
5.18922
5.34593
5.44433
5.50428
5.53283
-0.549547
-0.580239
-0.586648
-0.577018
-0.602104
-0.565098
65.4102
318.223
142.318
8.30383
6.36873
4.5979
4.44112
4.67875
4.89555
5.0456
5.14546
5.20869
5.23927
-0.503498
-0.529605
-0.533717
-0.519095
-0.532584
-0.439148
119.365
315.909
31.5668
6.38158
5.58013
4.86333
4.29591
4.44602
4.62726
4.76106
4.85734
4.92091
4.95228
-0.464708
-0.486289
-0.489159
-0.47719
-0.460365
1.07928
274.857
165.77
17.8247
5.73338
4.79641
4.39259
4.12527
4.22522
4.37155
4.48918
4.57939
4.64098
4.67191
-0.431456
-0.447826
-0.448451
-0.439499
-0.423464
74.0524
305.868
307.6
179.41
11.4302
4.41356
3.88001
3.8899
3.99583
4.11973
4.2263
4.31025
4.36855
4.39806
-0.402761
-0.413149
-0.408245
-0.391224
-0.385129
99.7118
315.964
317.894
317.447
53.9392
3.75045
3.51124
3.62175
3.75103
3.86878
3.96986
4.04863
4.10324
4.13074
-0.378448
-0.383113
-0.370685
-0.339275
-0.351445
-0.436883
263.829
326.797
319.787
97.2926
2.9303
3.10122
3.34934
3.49895
3.62005
3.71892
3.79378
3.84484
3.87012
-0.358484
-0.358809
-0.341094
-0.295281
-0.276381
-0.289456
40.2017
321.024
327.903
70.6547
2.6689
2.83578
3.09935
3.25527
3.3779
3.47396
3.54548
3.59326
3.61647
-0.343266
-0.341454
-0.322679
-0.269542
-0.239177
-0.24056
1.09068
80.0886
50.072
18.4057
3.92146
2.8205
2.90012
3.03334
3.14612
3.23589
3.30375
3.34852
3.37003
-0.334317
-0.333421
-0.317219
-0.261561
-0.230542
-0.185924
0.541777
8.4521
16.6497
16.0683
4.886
2.74407
2.73484
2.8306
2.92422
3.00478
3.06844
3.11057
3.13092
-0.333885
-0.338141
-0.330328
-0.275194
-0.235584
-0.0723544
22.6197
25.6934
15.1422
13.3979
3.94919
2.58801
2.57209
2.63314
2.70757
2.77939
2.83912
2.87931
2.89915
-0.343755
-0.358334
-0.366607
-0.322158
-0.247283
0.186537
272.94
309.825
66.5445
10.4284
2.89351
2.47754
2.39137
2.42773
2.49063
2.55774
2.61519
2.65467
2.6747
-0.364495
-0.394318
-0.423439
-0.399583
-0.295399
123.581
400.276
401.097
165.146
4.82077
2.93898
2.2909
2.17711
2.20626
2.26925
2.33803
2.39618
2.43664
2.45763
-0.394858
-0.443366
-0.494428
-0.487433
-0.393292
261.319
411.237
412.012
311.91
14.2409
2.51553
1.92851
1.90704
1.96256
2.04149
2.11952
2.18207
2.22542
2.2482
-0.432072
-0.497511
-0.518622
-0.558484
-0.484335
146.235
418.87
421.077
418.211
52.5301
1.49022
1.39007
1.57807
1.69723
1.80907
1.90325
1.9736
2.02146
2.04686
-0.473488
-0.385449
-0.295514
-0.55641
-0.578289
15.2904
247.469
429.618
407.609
81.3723
0.401607
0.829057
1.22253
1.42382
1.57861
1.69244
1.77249
1.82556
1.85445
-0.515318
-0.361055
-0.297678
-0.555425
-0.559063
-0.653153
-0.828423
95.5809
130.18
58.5174
0.721479
0.427124
0.895907
1.16624
1.35991
1.49178
1.58126
1.63874
1.67217
-0.545818
-0.590049
-0.343221
-0.598705
-0.570719
-0.572436
-0.82793
-1.05549
-1.48639
31.1513
2.09956
0.19819
0.638874
0.944153
1.16176
1.30599
1.40268
1.46217
1.50121
-0.480546
-0.58918
-0.357175
-0.4773
-0.50732
-0.403555
-0.67374
-1.07838
9.4258
31.0166
2.90685
0.0110841
0.446184
0.762782
0.988325
1.13819
1.23833
1.29832
1.34174
1.64923
-0.106098
-0.31742
-0.442093
-0.418898
-0.298241
-0.428861
-1.05683
1.34626
29.3407
2.24091
-0.220073
0.294579
0.618132
0.840195
0.989451
1.08956
1.14792
1.19335
2.94421
1.86967
-0.43253
-0.366422
-0.480321
-0.272552
0.166362
-0.800221
-0.974283
14.505
1.41636
-0.243243
0.202729
0.509036
0.716486
0.859389
0.956087
1.01132
1.05613
2.99999
2.76788
-0.461133
-0.58064
3.29047
14.5513
2.11258
-0.484597
-0.69119
-0.526103
0.183944
-0.168236
0.169506
0.43269
0.615522
0.746669
0.836931
0.888052
0.93009
3.12136
0.0702303
-0.494004
-0.672545
5.87313
219.383
198.859
-0.20833
-0.0556833
-0.345034
-0.379627
-0.0572535
0.173536
0.379474
0.53351
0.649052
0.730733
0.777138
0.814855
2.75187
-0.22428
-0.404763
-0.546704
-0.742582
306.85
530.554
98.99
0.756047
0.171697
-0.069174
0.0325171
0.182242
0.336501
0.464422
0.563505
0.635782
0.677261
0.709735
-0.579631
7.66296
0.154103
-0.411322
-0.530047
373.174
551.903
370.763
3.75481
0.419396
0.0792108
0.0719722
0.17551
0.29454
0.402517
0.487025
0.550266
0.586991
0.613854
-0.611642
14.274
0.120926
-0.407103
49.2746
552.795
565.188
462.771
13.3137
0.23041
0.0468612
0.0536841
0.148194
0.2498
0.344357
0.417372
0.472564
0.50496
0.526278
-0.796511
8.91601
72.581
72.8696
502.884
585.752
582.16
238.937
3.24005
-0.195111
-0.111378
-0.00741886
0.105184
0.202847
0.288997
0.353271
0.401437
0.429992
0.446089
-0.547093
-0.471092
296.023
592.943
596.378
597.691
407.407
55.1947
3.91447
-0.515392
-0.276273
-0.0751434
0.0580764
0.157117
0.237055
0.294164
0.336003
0.361111
0.372422
-0.00454389
-0.546814
5.5124
512.565
614.827
559.702
105.965
3.47018
3.70264
-0.600683
-0.345406
-0.114435
0.020439
0.117125
0.189757
0.23987
0.275612
0.297495
0.304465
-0.00404263
-0.565257
-1.01518
8.06029
79.7446
1.99759
0.907008
-0.492909
-1.01474
-0.533275
-0.320835
-0.118615
-0.000748644
0.0855449
0.147895
0.190168
0.219642
0.23835
0.241447
0.157058
-0.639165
-0.873211
-1.00239
-1.0064
-1.06968
-1.17485
-0.914537
-0.819178
-0.417382
-0.25283
-0.0999585
-0.00734295
0.0619554
0.111316
0.144625
0.167476
0.182935
0.182668
0.293434
-0.593418
-0.690594
-0.744025
-0.76047
-0.762626
-0.777081
-0.744371
-0.56432
-0.292873
-0.177233
-0.0722344
-0.0063215
0.0430598
0.0782156
0.101903
0.117922
0.129958
0.127241
-0.0482144
-0.565004
-0.486745
-0.435037
-0.433724
-0.423136
-0.446275
-0.417356
-0.30036
-0.159588
-0.0978362
-0.0383168
-0.000217407
0.0282069
0.0485638
0.0621946
0.07125
0.0795408
0.0751807
0.0951533
-0.56223
-0.338906
-0.17009
-0.116796
-0.10656
-0.126849
-0.119576
-0.0973068
-0.0586566
-0.0385944
-0.018726
-0.00501641
0.0050495
0.0124844
0.0174789
0.0204835
0.0239277
0.0222226
)
;

boundaryField
{
    leftWall
    {
        type            fixedFluxPressure;
        gradient        uniform 0;
        value           nonuniform List<scalar> 
50
(
1447.4
1444.28
1437.63
1426.87
1411.01
1390.84
1369.11
769.918
0.559308
0.522173
0.488787
0.456827
0.428078
0.400995
0.375199
0.351003
0.327903
0.305381
0.283246
0.261613
0.240587
0.220182
0.200318
0.180809
0.161397
0.141812
0.121752
0.101106
0.079868
0.0581525
0.0361597
0.0140776
-0.00800648
-0.0301477
-0.0525172
-0.0753254
-0.0987431
-0.12285
-0.147613
-0.172903
-0.198499
-0.224113
-0.249502
-0.274566
-0.299232
-0.323066
-0.345185
-0.365121
-0.384473
-0.407412
)
;
    }
    rightWall
    {
        type            fixedFluxPressure;
        gradient        uniform 0;
        value           nonuniform List<scalar> 
50
(
10.0308
9.97887
9.8461
9.6418
9.37761
9.05897
8.68979
8.27496
7.91514
7.63848
7.35032
7.05356
6.75058
6.44397
6.13692
5.83246
5.53283
5.23927
4.95228
4.67191
4.39806
4.13074
3.87012
3.61647
3.37003
3.13092
2.89915
2.6747
2.45763
2.2482
2.04686
1.85445
1.67217
1.50121
1.34174
1.19335
1.05613
0.93009
0.814855
0.709735
0.613854
0.526278
0.446089
0.372422
0.304465
0.241447
0.182668
0.127241
0.0751807
0.0222226
)
;
    }
    lowerWall
    {
        type            fixedFluxPressure;
        gradient        uniform 0;
        value           nonuniform List<scalar> 
62
(
1447.4
1447.82
1448.95
1450.8
1453.18
1456.49
1460.47
1464.95
1469.83
1475.03
1480.42
1485.91
1491.38
1496.69
1501.75
1506.43
1510.6
1514.18
1517.13
1519.19
1520.31
1517.58
1505.53
1505.53
1495.16
1510.11
1547.05
1560.73
1577.8
1599.94
1638.82
1668.47
1665.95
1641.9
1591.08
13.865
13.6412
13.2746
13.0358
13.1824
13.2453
13.2996
625.026
13.865
13.87
14.0992
15.356
18.2105
18.8246
16.2558
13.9441
12.5997
11.8473
11.3383
10.9575
10.6751
10.4657
10.3085
10.1919
10.1091
10.0563
10.0308
)
;
    }
    atmosphere
    {
        type            totalPressure;
        rho             rho;
        psi             none;
        gamma           1;
        p0              uniform 0;
        value           nonuniform List<scalar> 
46
(
-0.421644
-0.432318
-0.433926
-0.438319
-0.443707
-0.45016
-0.457725
-0.466449
-0.47639
-0.487607
-0.500152
-0.514058
-0.529339
-0.546
-0.564056
-0.583564
-0.604633
-0.627385
-0.65181
-0.67758
-0.703847
-0.72928
-0.752098
-0.771095
-0.775189
-0.734992
-0.405261
-0.0178176
-0.499858
-0.329845
-0.0822816
-0.0272825
0
0
0
0
0
0
0
0
0
0
0
0
0
0
)
;
    }
    defaultFaces
    {
        type            empty;
    }
}


// ************************************************************************* //
