/*--------------------------------*- C++ -*----------------------------------*\
| =========                 |                                                 |
| \\      /  F ield         | OpenFOAM: The Open Source CFD Toolbox           |
|  \\    /   O peration     | Version:  2206                                  |
|   \\  /    A nd           | Website:  www.openfoam.com                      |
|    \\/     M anipulation  |                                                 |
\*---------------------------------------------------------------------------*/
FoamFile
{
    version     2.0;
    format      ascii;
    arch        "LSB;label=32;scalar=64";
    class       volScalarField;
    location    "0.625";
    object      p_rgh;
}
// * * * * * * * * * * * * * * * * * * * * * * * * * * * * * * * * * * * * * //

dimensions      [1 -1 -2 0 0 0 0];

internalField   nonuniform List<scalar> 
2268
(
539.152
537.699
538.865
543.481
552.912
567.653
586.224
605.161
623.459
642.101
662.086
683.423
705.659
728.282
750.809
772.74
792.713
809.768
821.754
825.904
825.276
843.119
878.832
538.9
536.909
537.859
542.336
551.579
566.342
585.261
604.542
623
641.705
661.654
683.008
705.318
728.016
750.592
772.553
792.916
810.685
824.613
825.78
817.621
830.959
873.455
537.92
535.481
536.241
540.279
548.942
563.661
583.295
603.32
622.127
640.968
661.086
682.58
704.975
727.717
750.235
771.949
792.285
810.593
826.234
829.786
814.169
816.928
869.567
536.811
533.804
534.078
537.389
545.063
559.666
580.418
601.612
620.97
639.994
660.282
681.974
704.551
727.473
750.1
771.785
792.05
810.53
826.092
836.592
818.443
820.705
872.629
536.086
532.28
531.68
533.608
540.357
555.068
577.215
599.648
619.588
638.849
659.352
681.257
704.071
727.298
750.204
772.042
792.433
811.157
827.26
839.615
836.73
847.287
885.198
535.803
531.397
528.97
529.68
536.381
551.557
574.509
597.542
617.807
637.389
658.356
680.462
703.543
727.183
750.522
772.612
793.23
812.342
829.37
843.898
855.206
866.446
897.253
535.722
531.894
527.502
527.781
534.366
549.782
572.477
595.025
615.302
635.236
656.976
679.535
702.995
727.205
751.132
773.509
794.355
813.841
831.733
847.919
862.743
876.947
904.986
533.259
520.704
499.457
492.374
501.027
524.604
564.123
591.374
612.097
632.94
655.363
678.356
702.248
727.173
751.934
774.696
795.791
815.653
834.28
851.729
869.056
890.081
916.629
805.903
777.216
917.984
1116.45
1198.81
1154.67
1203.37
1103.8
661.094
369.114
255.339
233.988
248.138
261.281
297.353
514.264
1004.17
1357.33
1237.12
784.029
731.96
870.63
1084.9
1168.47
1139.18
1185.76
1008.2
426.549
203.244
199.023
206.262
216.613
235.394
274.058
443.608
889.855
1304.19
1237.38
755.166
734.685
842.107
1050.81
1127.19
1157.71
1186.04
663.367
201.866
148.54
140.724
138.352
140.137
146.089
161.463
236.925
587.449
1184.12
1227.11
741.222
741.497
823.937
1007.53
1075.32
1174.51
1192.79
396.28
157.641
144.023
140.136
137.496
136.099
136.119
137.813
154.558
292.118
936.638
1203.78
836.034
766.251
814.969
959.091
1008.52
1121.08
1130.8
254.306
149.824
142.737
139.714
137.127
135.764
135.505
136.408
143.054
193.66
578.725
1161.57
904.761
796.602
812.989
908.875
927.645
1001.18
963.071
218.228
147.653
142.446
139.494
136.706
135.357
135.055
135.688
139.012
160.308
361.004
1103.04
928.258
828.952
816.381
853.138
819.383
838.963
811.149
219.673
145.66
141.512
138.827
136.109
134.755
134.49
135.112
137.068
144.419
268.087
1026.03
938.075
865.579
822.357
778.164
609.117
584.557
617.245
377.529
149.493
139.601
137.687
135.254
133.898
133.714
134.476
135.978
138.352
233.807
934.832
301.308
249.059
201.868
212.517
238.659
293.984
378.306
463.358
534.426
596.513
649.6
675.907
700.996
727.742
753.99
777.146
798.34
818.578
838.231
857.086
876.011
896.505
923.825
1.8055
1.68822
1.49042
7.97758
35.5672
62.4616
76.6348
90.5215
127.226
196.021
299.84
421.025
525.472
648.476
757.355
782.445
803.438
822.778
843.137
862.919
882.994
906.448
939.211
1.56959
1.52699
1.40537
1.36914
1.41778
1.39978
1.37782
1.36336
1.35349
1.35155
1.49637
20.1937
71.529
159.867
292.254
451.173
559.048
665.571
783.714
839.78
864.756
890.145
928.056
1.48816
1.4482
1.32657
1.29198
1.37588
1.3586
1.31938
1.29975
1.31799
1.36121
1.40028
1.4073
1.47933
1.56025
1.66924
9.26342
41.9635
70.8986
142.942
235.381
305.111
374.144
482.436
1.42302
1.40898
1.35543
1.35006
1.37258
1.34365
1.31873
1.30558
1.3022
1.31809
1.35714
1.40058
1.46866
1.52893
1.61426
1.71743
1.81024
1.92654
2.029
2.15704
2.37318
2.55682
24.4651
1.36541
1.35885
1.33913
1.32019
1.31734
1.31809
1.31183
1.31354
1.32687
1.34807
1.37998
1.41779
1.45906
1.52829
1.62202
1.69369
1.7622
1.84897
1.99717
2.19303
2.48035
2.77598
2.85569
1.31657
1.31076
1.30263
1.29395
1.29504
1.29037
1.2902
1.29491
1.30523
1.32382
1.35524
1.39478
1.43622
1.49633
1.57899
1.6708
1.73541
1.83036
2.0375
2.38193
2.63061
2.76296
2.93028
1.27328
1.26888
1.26578
1.26193
1.26284
1.2621
1.26518
1.27312
1.28736
1.30899
1.33647
1.36865
1.40786
1.45497
1.5076
1.57135
1.63893
1.71322
1.90284
2.31378
2.51701
2.70589
2.73811
1.23046
1.22846
1.22788
1.22562
1.22722
1.22986
1.2354
1.24464
1.25839
1.27733
1.30207
1.33227
1.36836
1.41078
1.45901
1.51353
1.5728
1.63811
1.71184
1.79468
2.28074
2.42835
2.50813
1.18905
1.18838
1.18881
1.1886
1.1911
1.19484
1.20125
1.2108
1.22415
1.24192
1.26438
1.29123
1.32261
1.35885
1.39953
1.44451
1.49334
1.54491
1.59854
1.65161
1.87969
2.19597
2.02648
1.14802
1.14799
1.14902
1.15011
1.15312
1.15749
1.16412
1.17348
1.18605
1.20214
1.22187
1.2452
1.27218
1.30277
1.3365
1.37299
1.4118
1.4523
1.49349
1.53038
1.78146
2.06329
1.68234
1.10687
1.10727
1.10855
1.1102
1.11334
1.11784
1.12422
1.13283
1.14399
1.15793
1.17476
1.19443
1.21681
1.24172
1.26879
1.29759
1.32763
1.35827
1.3887
1.41337
1.54391
1.9667
1.96555
1.06544
1.06601
1.06732
1.06914
1.07212
1.0763
1.082
1.08947
1.09895
1.11057
1.12436
1.14021
1.15793
1.17729
1.19787
1.21926
1.24089
1.26195
1.28113
1.2938
1.301
1.53397
1.83694
1.02358
1.02416
1.02534
1.02705
1.02964
1.03322
1.03797
1.04407
1.05165
1.06077
1.07141
1.08341
1.09657
1.11056
1.12495
1.13923
1.15281
1.16484
1.17349
1.17382
1.16185
1.14291
1.41431
0.981264
0.981763
0.982715
0.984107
0.986148
0.98892
0.992541
0.997105
1.00267
1.00923
1.0167
1.02491
1.03358
1.04235
1.05075
1.05817
1.0639
1.06705
1.06585
1.05589
1.03233
0.993198
0.955523
0.938527
0.938896
0.939552
0.940513
0.941893
0.943748
0.946133
0.949083
0.952594
0.956605
0.960982
0.965502
0.969847
0.97359
0.976199
0.976989
0.975089
0.969435
0.958307
0.937982
0.902944
0.84836
0.762942
0.895469
0.895685
0.896016
0.896481
0.897142
0.898023
0.89913
0.900452
0.901934
0.903472
0.90488
0.905889
0.906138
0.905145
0.902291
0.896808
0.887699
0.873684
0.852895
0.82207
0.775748
0.707296
0.604626
0.852234
0.852288
0.852286
0.852233
0.852156
0.852055
0.851898
0.851632
0.851164
0.850349
0.84897
0.846719
0.843187
0.837847
0.830016
0.818841
0.803231
0.781768
0.752448
0.712248
0.65645
0.57839
0.46829
0.808989
0.808883
0.808554
0.807986
0.807187
0.806132
0.804765
0.802998
0.80071
0.79772
0.793785
0.788573
0.781647
0.77244
0.760233
0.744119
0.722953
0.695272
0.659092
0.611602
0.548795
0.465022
0.352422
0.765903
0.765647
0.765007
0.763945
0.762467
0.760522
0.758034
0.754888
0.750943
0.745998
0.739785
0.73196
0.722075
0.709548
0.693648
0.673456
0.647824
0.615322
0.574102
0.521704
0.454814
0.36871
0.257804
0.723146
0.722753
0.721829
0.720311
0.718212
0.715459
0.711962
0.707591
0.702185
0.695532
0.687356
0.677304
0.66493
0.649664
0.63079
0.607417
0.578452
0.542556
0.498066
0.44292
0.37495
0.289681
0.183564
0.680873
0.68036
0.679183
0.67726
0.674612
0.671152
0.666777
0.661352
0.654703
0.64661
0.636799
0.624923
0.610549
0.593131
0.571998
0.546319
0.515095
0.477122
0.430937
0.374458
0.308805
0.225928
0.126483
0.639225
0.63861
0.637213
0.634943
0.631829
0.627773
0.622666
0.616368
0.608702
0.599448
0.588337
0.575038
0.559146
0.540149
0.51744
0.490273
0.457775
0.418896
0.372756
0.317524
0.25243
0.174645
0.083129
0.598321
0.597623
0.596044
0.593486
0.589996
0.585459
0.57977
0.572785
0.564329
0.55419
0.542107
0.527776
0.510829
0.490788
0.467134
0.439205
0.406345
0.36753
0.322026
0.268681
0.2065
0.134113
0.0506912
0.558274
0.557485
0.555778
0.552989
0.54922
0.54432
0.538196
0.530704
0.521678
0.510916
0.498171
0.483167
0.465617
0.445001
0.421001
0.392912
0.360218
0.322205
0.278195
0.227388
0.169027
0.102332
0.0268534
0.519194
0.518244
0.516507
0.513515
0.50958
0.504434
0.498014
0.490185
0.480794
0.469661
0.456536
0.441148
0.423526
0.402716
0.378708
0.350985
0.319058
0.282391
0.240435
0.192643
0.138503
0.0775717
0.00968032
0.48108
0.479996
0.478338
0.475056
0.471146
0.465849
0.45926
0.451252
0.441681
0.430436
0.417224
0.401854
0.384127
0.36362
0.340076
0.313132
0.282401
0.247481
0.207957
0.163467
0.113687
0.0583903
-0.00240924
0.444012
0.442844
0.441302
0.43745
0.434057
0.42858
0.421946
0.413909
0.404356
0.393138
0.380054
0.364917
0.347514
0.327566
0.304816
0.278985
0.249774
0.216882
0.180025
0.138966
0.0935198
0.0436086
-0.0106431
0.407951
0.406687
0.405044
0.401788
0.397884
0.392562
0.386017
0.378097
0.368707
0.357714
0.344955
0.330264
0.313454
0.29431
0.272614
0.248154
0.220701
0.190036
0.155976
0.118373
0.0771411
0.0323012
-0.015965
0.372929
0.371637
0.370032
0.366955
0.363028
0.357826
0.35146
0.343768
0.334674
0.324065
0.311802
0.297742
0.281729
0.26359
0.243158
0.220262
0.194736
0.166427
0.13522
0.101033
0.0638523
0.0237446
-0.0190825
0.338935
0.337673
0.336111
0.333158
0.329345
0.324329
0.318217
0.31085
0.302169
0.292074
0.28045
0.267174
0.25212
0.23515
0.216136
0.194947
0.171463
0.145583
0.117237
0.0863933
0.0530765
0.0173775
-0.0204974
0.30593
0.304732
0.303217
0.300404
0.296769
0.292002
0.286219
0.279263
0.271093
0.261619
0.250747
0.238379
0.224409
0.208735
0.191254
0.171869
0.150498
0.127077
0.101568
0.0739723
0.0443367
0.0127591
-0.0205723
0.273859
0.272742
0.271288
0.268643
0.265232
0.260771
0.255382
0.24891
0.241331
0.232566
0.222541
0.211176
0.198388
0.184098
0.168229
0.150709
0.131486
0.110521
0.0878034
0.0633531
0.0372283
0.00951867
-0.0196076
0.242651
0.241637
0.240252
0.237801
0.234656
0.230547
0.225607
0.219677
0.212755
0.204771
0.195668
0.185381
0.173846
0.161001
0.146791
0.131169
0.114101
0.0955679
0.0755785
0.0541614
0.031376
0.00730218
-0.0179089
0.212221
0.211344
0.210032
0.207799
0.204954
0.201232
0.196787
0.191447
0.185236
0.178091
0.169967
0.160814
0.150579
0.139219
0.126694
0.112978
0.0980491
0.0819057
0.0645619
0.0460508
0.0264309
0.00577621
-0.0157826
0.182487
0.181774
0.180551
0.178556
0.176036
0.172735
0.168824
0.164115
0.15866
0.152397
0.145294
0.137309
0.128405
0.118552
0.107724
0.0959043
0.0830837
0.0692676
0.0544731
0.0387375
0.0221169
0.00467722
-0.0134774
0.153368
0.152825
0.151718
0.149982
0.14781
0.144962
0.141621
0.137575
0.13291
0.127559
0.121504
0.114714
0.107161
0.0988271
0.0896933
0.079749
0.068994
0.0574374
0.0450999
0.0320173
0.0182401
0.00382212
-0.0111575
0.124756
0.124382
0.123418
0.121959
0.120159
0.117782
0.115052
0.111688
0.107836
0.103423
0.0984419
0.0928669
0.0866806
0.0798685
0.0724177
0.0643239
0.0555917
0.0462335
0.0362696
0.0257277
0.0146516
0.00308242
-0.0089133
0.0965321
0.0963268
0.0955214
0.0943587
0.0929479
0.0910497
0.088994
0.0863004
0.083288
0.0798374
0.0759488
0.0716033
0.066789
0.0614968
0.0557188
0.0494547
0.0427098
0.035495
0.0278274
0.019731
0.0112426
0.00239104
-0.00676526
0.0686275
0.068579
0.0679467
0.0670968
0.0660768
0.064632
0.0634258
0.06129
0.0591552
0.0566795
0.0538941
0.0507875
0.0473478
0.0435723
0.0394567
0.0350012
0.030212
0.0250967
0.0196674
0.0139467
0.00795956
0.00172687
-0.00471323
0.0410198
0.0410699
0.0406411
0.0401254
0.0395128
0.038636
0.0379158
0.0366659
0.0353556
0.0338602
0.0321819
0.0303146
0.0282521
0.0259904
0.0235286
0.0208649
0.0180054
0.0149564
0.0117215
0.00831961
0.00476238
0.00106452
-0.00275151
0.0135903
0.0136876
0.0135183
0.0133455
0.0131417
0.012845
0.0126085
0.0121885
0.0117525
0.0112514
0.0106886
0.0100641
0.00937684
0.00862523
0.00780742
0.00692167
0.00597151
0.00496348
0.00388733
0.00276585
0.00159046
0.000369131
-0.000891255
940.148
959.003
979.575
990.29
970.383
991.144
1011.23
1028.5
972.108
1003.15
1033.85
1059.3
628.637
771.683
840.101
770.738
105.716
147.53
230.951
396.235
3.70805
4.23752
14.7231
87.4131
2.9321
2.93367
3.06938
4.7333
2.69852
2.66689
2.59399
2.72675
2.5571
2.48273
2.34005
2.40091
2.02262
2.07847
2.13467
2.24984
1.75349
1.837
1.95631
2.08664
1.72803
1.6978
1.77352
1.87748
1.85268
1.74483
1.50866
1.54639
1.61161
1.56825
1.34386
1.08168
1.35487
1.28966
0.979839
0.530448
0.738164
0.731121
0.426385
0.131824
0.470945
0.353856
0.195833
-0.00766546
0.343472
0.241852
0.114536
-0.0411898
0.23635
0.148253
0.0452895
-0.074595
0.150144
0.0717437
-0.0162341
-0.114562
0.0852051
0.0153006
-0.0612688
-0.144671
0.0379891
-0.0237916
-0.0903662
-0.161771
0.00401564
-0.050447
-0.108393
-0.169861
-0.0197753
-0.0677587
-0.118293
-0.17141
-0.0356896
-0.077909
-0.121999
-0.167974
-0.0456735
-0.0827682
-0.121231
-0.161056
-0.0512877
-0.0838373
-0.117387
-0.15191
-0.053733
-0.0822696
-0.111532
-0.141484
-0.0539113
-0.078924
-0.104463
-0.130489
-0.0524681
-0.0743907
-0.0967034
-0.119366
-0.0498252
-0.0690283
-0.0885301
-0.108293
-0.0462482
-0.0630272
-0.080044
-0.0972652
-0.0419514
-0.0565339
-0.0713123
-0.0862588
-0.0371845
-0.0497518
-0.062478
-0.0753457
-0.0322195
-0.0429222
-0.0537497
-0.0646955
-0.0272832
-0.0362594
-0.0453327
-0.0545037
-0.0225207
-0.0298999
-0.0373556
-0.0448902
-0.0179923
-0.0238827
-0.0298341
-0.0358474
-0.0136846
-0.0181741
-0.0227112
-0.0272928
-0.00957618
-0.012731
-0.0159175
-0.0191344
-0.0056283
-0.00749463
-0.00938059
-0.0112843
-0.00184073
-0.00245628
-0.00307766
-0.00370377
992.588
933.009
837.825
644.917
126.637
81.5091
272.441
356.746
139.101
135.903
135.52
133.404
132.187
132.208
133.22
134.687
136.071
233.675
826.904
1046.59
1009.03
894.952
309.157
-36.6206
67.2075
165.533
101.132
129.118
131.191
131.561
130.174
129.558
130.037
131.407
133.16
134.702
252.342
800.264
1089.25
1050.96
775.775
125.836
189.153
404.53
301.174
109.689
124.128
128.139
128.146
127.494
127.438
128.363
130.087
132.053
133.576
310.97
847.705
851.401
918.822
270.447
127.947
123.591
140.094
116.197
122.216
125.652
126.963
126.223
125.968
126.17
127.512
129.574
131.744
133.245
353.562
945.277
510.802
431.758
136.607
129.731
128.336
124.521
126.295
127.042
127.563
127.262
126.11
125.432
125.674
127.437
129.997
132.627
134.534
429.321
1062.54
182.847
277.617
127.978
132.327
136.72
134.33
131.947
130.254
129.584
128.545
127.214
126.016
125.524
126.632
129.81
134.489
138.929
561.533
1200.86
112.172
573.182
649.253
349.747
137.781
137.679
135.393
132.762
131.699
130.666
129.573
127.988
125.671
122.563
124.154
133.586
145.143
763.634
1350.06
3.40512
201.591
707.76
759.691
460.243
138.855
137.512
134.864
134.167
134.584
134.11
131.744
128.498
159.029
231.553
182.159
141.024
1027.34
1475.15
2.5243
3.38577
181.919
722.938
778.782
457.581
183.25
138.406
137.895
139.221
140.73
158.734
465.67
926.114
1059.65
865.693
602.297
1294.11
1549.48
2.40827
2.63522
3.44381
175.745
734.228
803.72
820.081
459.397
245.166
173.827
284.189
865.636
1449.92
1508.22
1406.01
1309.92
906.21
802.157
1464.23
2.29438
2.63506
3.07208
3.41377
46.2904
545.363
1056.19
1285.74
1184
1074.98
1361.7
1438.37
1372.86
1597.61
1509.07
903.833
439.246
456.934
1168.18
2.08818
2.48118
3.21752
6.63607
195.317
789.51
1314.66
1373.9
1427.88
1429.57
1013.74
395.425
249.843
917.611
1674.08
1308.37
490.469
564.184
1519.57
1.71625
2.1034
4.44933
94.629
987.243
1339.06
1344.47
1393.21
1251.28
295.558
181.04
182.098
170.554
508.074
1804.7
1790.51
1330.26
1069.03
1932.96
1.49652
5.54899
4.32003
-1.46101
-2.35049
226.222
622.407
669.772
198.71
106.712
143.366
172.726
197.681
493.211
1614.51
1930.81
1995.09
2040.25
2064.37
0.868063
0.437373
-1.33292
-1.9375
-2.12072
-2.35856
2.24253
-1.32202
-1.02068
66.5485
203.967
217.524
196.854
140.314
609.514
2006.12
2150.47
2193.96
2070.62
-0.211467
-1.20289
-1.68301
-1.89357
-1.91921
-1.77823
-1.75806
-2.31057
-2.48436
-2.16524
-2.25454
1.92251
-1.01862
0.103785
1.33445
645.491
2079.66
2330.22
2080.92
-0.423033
-1.0744
-1.50626
-1.7119
-1.81033
-1.8924
-1.93633
-2.18729
-2.57722
-2.6901
-2.6546
-2.7967
-2.76242
-2.82141
-2.33046
2.10921
376.637
1818.27
2155.19
-0.347236
-0.843313
-1.23472
-1.47181
-1.61336
-1.72967
-1.88436
-2.21517
-2.672
-2.90981
-2.98357
-3.13369
-3.2738
-3.26625
-2.88729
-1.29317
7.98519
303.584
2066.89
-0.302213
-0.674168
-1.00944
-1.26236
-1.44991
-1.61277
-1.81058
-2.12419
-2.53135
-2.88386
-3.15984
-3.43166
-3.66049
-3.5806
-3.12539
-2.14268
1.55068
120.422
885.925
-0.29524
-0.585929
-0.867581
-1.10939
-1.31404
-1.50404
-1.71062
-1.97354
-2.31044
-2.70031
-3.09247
-3.34548
-3.65672
-3.61926
-3.21464
-2.42224
-0.794719
105.54
419.581
-0.294736
-0.531032
-0.768824
-0.988252
-1.18774
-1.37851
-1.57781
-1.80776
-2.08735
-2.42565
-2.8136
-3.10485
-3.25837
-3.26058
-2.97674
-2.41684
-1.71043
48.6013
419.894
-0.288675
-0.485164
-0.687383
-0.882756
-1.06805
-1.24782
-1.4313
-1.63095
-1.85839
-2.11869
-2.41043
-2.68106
-2.70255
-2.71573
-2.46689
-2.15318
-1.74659
20.9915
415.103
-0.278128
-0.443706
-0.616078
-0.787308
-0.954005
-1.11751
-1.28231
-1.45397
-1.63664
-1.82872
-2.02151
-2.1929
-2.17037
-2.03323
-1.84431
-1.75366
-1.50519
13.204
138.472
-0.264227
-0.404564
-0.551142
-0.698935
-0.8453
-0.990487
-1.13636
-1.28424
-1.43378
-1.57818
-1.70102
-1.77853
-1.77954
-1.6423
-1.27395
-1.31195
-1.15426
12.834
115.524
-0.247732
-0.366897
-0.491092
-0.617183
-0.743584
-0.870727
-0.999477
-1.12701
-1.25346
-1.36503
-1.44373
-1.46534
-1.40662
-1.26355
-1.04149
-0.916259
0.269492
15.1624
341.535
-0.229696
-0.33101
-0.435967
-0.542673
-0.650691
-0.761494
-0.876235
-0.992431
-1.10177
-1.19165
-1.23869
-1.22611
-1.13784
-0.973957
-0.770358
-0.655901
8.41859
9.80771
353.796
-0.211058
-0.297321
-0.385939
-0.475825
-0.567747
-0.664756
-0.768777
-0.877089
-0.980794
-1.05521
-1.07962
-1.04413
-0.943238
-0.782256
-0.604649
-0.499927
11.0284
1.43103
365.363
-0.192546
-0.266194
-0.34112
-0.416774
-0.495165
-0.581302
-0.677731
-0.781391
-0.884261
-0.954957
-0.96037
-0.908173
-0.800245
-0.632859
-0.497149
0.0564639
11.5569
0.170002
373.453
-0.174683
-0.237852
-0.301495
-0.365358
-0.432384
-0.50984
-0.599987
-0.701302
-0.808149
-0.87673
-0.873837
-0.804301
-0.688747
-0.518547
-0.406799
1.12201
11.1782
-0.0502004
383.661
-0.157735
-0.212232
-0.266717
-0.320899
-0.37801
-0.44683
-0.529038
-0.626039
-0.737064
-0.803041
-0.790666
-0.712614
-0.59413
-0.429136
-0.328441
1.95218
0.348155
-0.127827
388.625
-0.14169
-0.188956
-0.236013
-0.282329
-0.330918
-0.388871
-0.459923
-0.545495
-0.653537
-0.714
-0.696423
-0.619628
-0.488553
-0.361854
-0.267666
0.0188355
-0.0895491
-0.070766
145.966
-0.126343
-0.167456
-0.208375
-0.248521
-0.289576
-0.335935
-0.385666
-0.458505
-0.550202
-0.598334
-0.585613
-0.51564
-0.388455
-0.30062
-0.233719
-0.197193
-0.10209
-0.0327616
2.31954
-0.111496
-0.147213
-0.182846
-0.21785
-0.252754
-0.289498
-0.317291
-0.365667
-0.433737
-0.466016
-0.457311
-0.404697
-0.323077
-0.272508
-0.217785
-0.188528
-0.13419
-0.175664
332.397
-0.0970854
-0.127924
-0.158798
-0.189301
-0.219274
-0.249687
-0.265747
-0.287221
-0.319711
-0.342657
-0.333485
-0.321671
-0.290163
-0.243314
-0.196284
-0.165789
-0.120197
-0.123643
609.401
-0.0832048
-0.10953
-0.13597
-0.162203
-0.187956
-0.213064
-0.235588
-0.234261
-0.24605
-0.251653
-0.257171
-0.260545
-0.245577
-0.2015
-0.129513
-0.119005
-0.101547
-0.116788
629.675
-0.0700236
-0.0921391
-0.114388
-0.136463
-0.158231
-0.179172
-0.198402
-0.214124
-0.207779
-0.209929
-0.20984
-0.214004
-0.199418
-0.0820821
-0.0399739
-0.104274
-0.0946215
-0.130907
647.623
-0.0576438
-0.0758259
-0.0941168
-0.112215
-0.130106
-0.14712
-0.162403
-0.175288
-0.184518
-0.187025
-0.187505
-0.180904
-0.117042
-0.0128318
-0.0174798
-0.125717
-0.116586
1.91352
667.217
-0.0460281
-0.060528
-0.0751001
-0.0894678
-0.103718
-0.117176
-0.128884
-0.1389
-0.146803
-0.151787
-0.151494
-0.144801
-0.00877772
0.0204677
-0.084572
-0.105447
-0.112891
6.77477
683.619
-0.0350547
-0.0460959
-0.0571902
-0.0680151
-0.0789835
-0.0895382
-0.0981895
-0.105888
-0.112678
-0.11733
-0.114805
-0.0683294
0.0237971
0.00806569
-0.0674603
-0.0842664
-0.082028
7.53594
693.64
-0.024596
-0.0323788
-0.0402805
-0.0483508
-0.0557426
-0.0635855
-0.0701716
-0.0760197
-0.0822781
-0.0873169
-0.0828695
-0.0508132
0.0541199
-0.038629
-0.0736604
-0.0945851
-0.0899003
8.26568
149.186
-0.0145237
-0.0191423
-0.023846
-0.0286978
-0.033469
-0.0386654
-0.0440353
-0.0486186
-0.0581939
-0.0603588
-0.0659924
-0.00757166
-0.025153
-0.0332224
-0.0800564
-0.107107
-0.146707
-0.2989
-0.223914
-0.0047729
-0.00630003
-0.00787113
-0.00958361
-0.0117103
-0.0144041
-0.0184231
-0.0232804
-0.0359475
-0.0316126
-0.0652564
-0.00219261
0.00427384
-0.0598812
-0.0890042
-0.113241
-0.128012
-0.254545
-0.208455
)
;

boundaryField
{
    leftWall
    {
        type            fixedFluxPressure;
        gradient        uniform 0;
        value           nonuniform List<scalar> 
50
(
539.152
538.9
537.92
536.811
536.086
535.803
535.722
533.259
301.308
1.8055
1.56959
1.48816
1.42302
1.36541
1.31657
1.27328
1.23046
1.18905
1.14802
1.10687
1.06544
1.02358
0.981264
0.938527
0.895469
0.852234
0.808989
0.765903
0.723146
0.680873
0.639225
0.598321
0.558274
0.519194
0.48108
0.444012
0.407951
0.372929
0.338935
0.30593
0.273859
0.242651
0.212221
0.182487
0.153368
0.124756
0.0965321
0.0686275
0.0410198
0.0135903
)
;
    }
    rightWall
    {
        type            fixedFluxPressure;
        gradient        uniform 0;
        value           nonuniform List<scalar> 
50
(
1237.12
1237.38
1227.11
1203.78
1161.57
1103.04
1026.03
934.832
826.904
800.264
847.705
945.277
1062.54
1200.86
1350.06
1475.15
1549.48
1464.23
1168.18
1519.57
1932.96
2064.37
2070.62
2080.92
2155.19
2066.89
885.925
419.581
419.894
415.103
138.472
115.524
341.535
353.796
365.363
373.453
383.661
388.625
145.966
2.31954
332.397
609.401
629.675
647.623
667.217
683.619
693.64
149.186
-0.223914
-0.208455
)
;
    }
    lowerWall
    {
        type            fixedFluxPressure;
        gradient        uniform 0;
        value           nonuniform List<scalar> 
62
(
539.152
537.699
538.865
543.481
552.912
567.653
586.224
605.161
623.459
642.101
662.086
683.423
705.659
728.282
750.809
772.74
792.713
809.768
821.754
825.904
825.276
843.119
878.832
878.832
873.455
869.567
872.629
885.198
897.253
904.986
916.629
940.148
959.003
979.575
990.29
805.903
784.029
755.166
741.222
836.034
904.761
928.258
938.075
805.903
777.216
917.984
1116.45
1198.81
1154.67
1203.37
1103.8
661.094
369.114
255.339
233.988
248.138
261.281
297.353
514.264
1004.17
1357.33
1237.12
)
;
    }
    atmosphere
    {
        type            totalPressure;
        rho             rho;
        psi             none;
        gamma           1;
        p0              uniform 0;
        value           nonuniform List<scalar> 
46
(
0
0
0
0
0
0
0
0
0
0
0
0
0
0
0
0
0
0
0
0
0
0
0
0
0
0
0
0
0
0
-6.06436e-05
-0.00105094
-0.00269605
-0.00604986
-0.0120065
-0.0239006
-0.0152949
-0.0610947
0
0
-0.0681714
-0.100991
-0.109159
-0.121436
-0.287103
-0.0656966
)
;
    }
    defaultFaces
    {
        type            empty;
    }
}


// ************************************************************************* //
