/*--------------------------------*- C++ -*----------------------------------*\
| =========                 |                                                 |
| \\      /  F ield         | OpenFOAM: The Open Source CFD Toolbox           |
|  \\    /   O peration     | Version:  2206                                  |
|   \\  /    A nd           | Website:  www.openfoam.com                      |
|    \\/     M anipulation  |                                                 |
\*---------------------------------------------------------------------------*/
FoamFile
{
    version     2.0;
    format      ascii;
    arch        "LSB;label=32;scalar=64";
    class       surfaceScalarField;
    location    "0.625";
    object      phi;
}
// * * * * * * * * * * * * * * * * * * * * * * * * * * * * * * * * * * * * * //

dimensions      [0 3 -1 0 0 0 0];

oriented        oriented;

internalField   nonuniform List<scalar> 
4432
(
-3.13447e-06
3.13447e-06
-5.91729e-06
2.78283e-06
-6.79655e-06
8.79262e-07
-6.41466e-06
-3.8189e-07
-4.86421e-06
-1.55044e-06
-1.98318e-06
-2.88103e-06
1.79594e-06
-3.77912e-06
5.33226e-06
-3.53632e-06
7.78872e-06
-2.45646e-06
8.96657e-06
-1.17786e-06
9.01835e-06
-5.1778e-08
8.14808e-06
8.70265e-07
6.61733e-06
1.53075e-06
4.56773e-06
2.04959e-06
1.94706e-06
2.62067e-06
-1.4368e-06
3.38386e-06
-5.73215e-06
4.29534e-06
-9.51997e-06
3.78783e-06
-1.2284e-05
2.76404e-06
-1.73226e-05
5.03858e-06
-2.18481e-05
4.5255e-06
-1.61384e-05
-5.70972e-06
-1.61384e-05
-3.72075e-06
6.85523e-06
-5.748e-06
4.81008e-06
-6.17047e-06
1.30174e-06
-5.94618e-06
-6.06183e-07
-4.73782e-06
-2.75879e-06
-2.06549e-06
-5.55336e-06
1.72362e-06
-7.56823e-06
5.36704e-06
-7.17975e-06
7.88871e-06
-4.97812e-06
9.09283e-06
-2.38198e-06
9.3415e-06
-3.00445e-07
9.04913e-06
1.16262e-06
8.42327e-06
2.15661e-06
7.57321e-06
2.89965e-06
6.47417e-06
3.71971e-06
4.82065e-06
5.03737e-06
2.04609e-06
7.06989e-06
-2.64839e-06
8.48232e-06
-8.94438e-06
9.06001e-06
-1.46037e-05
1.06979e-05
-1.65096e-05
6.43147e-06
-1.11547e-05
-1.10646e-05
-2.72931e-05
-2.77388e-06
9.62911e-06
-4.24519e-06
6.2814e-06
-4.86335e-06
1.9199e-06
-5.13846e-06
-3.31068e-07
-4.51196e-06
-3.38529e-06
-2.22245e-06
-7.84287e-06
1.40212e-06
-1.11928e-05
5.01668e-06
-1.07943e-05
7.52983e-06
-7.49127e-06
8.67899e-06
-3.53115e-06
8.77587e-06
-3.97328e-07
8.25702e-06
1.68147e-06
7.46891e-06
2.94471e-06
6.67465e-06
3.69391e-06
6.08784e-06
4.30651e-06
5.83456e-06
5.29066e-06
5.7474e-06
7.15703e-06
4.43978e-06
9.78996e-06
1.38375e-06
1.2116e-05
-2.96948e-06
1.50511e-05
-5.96139e-06
9.42338e-06
-3.91337e-06
-1.31127e-05
-3.12064e-05
-1.33322e-06
1.09623e-05
-1.99398e-06
6.94217e-06
-2.61221e-06
2.53813e-06
-2.94953e-06
6.25074e-09
-2.39064e-06
-3.94417e-06
-3.75527e-07
-9.85799e-06
2.3661e-06
-1.39344e-05
5.15288e-06
-1.35811e-05
7.11262e-06
-9.45101e-06
8.00565e-06
-4.42418e-06
8.0109e-06
-4.02572e-07
7.45102e-06
2.24134e-06
6.63135e-06
3.76438e-06
5.82355e-06
4.50171e-06
5.23842e-06
4.89164e-06
5.05679e-06
5.47229e-06
5.65201e-06
6.56181e-06
6.78932e-06
8.65265e-06
7.71736e-06
1.1188e-05
8.26644e-06
1.4502e-05
6.78351e-06
1.09063e-05
4.24964e-06
-1.05788e-05
-2.69568e-05
6.27558e-07
1.03348e-05
1.33997e-06
6.22976e-06
1.46522e-06
2.41289e-06
2.00482e-06
-5.33354e-07
3.24812e-06
-5.18746e-06
4.761e-06
-1.13709e-05
6.05526e-06
-1.52287e-05
6.8559e-06
-1.43818e-05
7.24132e-06
-9.83642e-06
7.29778e-06
-4.48065e-06
7.04485e-06
-1.49643e-07
6.48784e-06
2.79835e-06
5.76222e-06
4.49001e-06
5.11269e-06
5.15124e-06
4.71522e-06
5.2891e-06
4.61112e-06
5.57639e-06
5.03988e-06
6.13304e-06
6.49592e-06
7.19662e-06
9.18335e-06
8.50055e-06
1.27163e-05
1.09691e-05
1.37431e-05
9.8795e-06
9.09115e-06
-5.92688e-06
-1.78656e-05
3.10753e-06
7.22725e-06
5.90579e-06
3.43149e-06
7.78667e-06
5.32016e-07
1.01789e-05
-2.9256e-06
1.24001e-05
-7.40866e-06
1.30272e-05
-1.19979e-05
1.19874e-05
-1.41889e-05
1.01355e-05
-1.25299e-05
8.33468e-06
-8.03555e-06
6.96634e-06
-3.11231e-06
6.11788e-06
6.98828e-07
5.43439e-06
3.48184e-06
4.79744e-06
5.12695e-06
4.35126e-06
5.59742e-06
4.24003e-06
5.40033e-06
4.38931e-06
5.42713e-06
4.85072e-06
5.67162e-06
6.01643e-06
6.03092e-06
8.31081e-06
6.20617e-06
1.22384e-05
7.04142e-06
1.46465e-05
7.47147e-06
1.06219e-05
-1.90227e-06
-7.24379e-06
5.35743e-06
1.86982e-06
1.10003e-05
-2.21137e-06
1.64611e-05
-4.92884e-06
2.11217e-05
-7.58617e-06
2.28525e-05
-9.13949e-06
2.10103e-05
-1.01557e-05
1.72318e-05
-1.04103e-05
1.32549e-05
-8.55307e-06
9.92399e-06
-4.70464e-06
7.33277e-06
-5.2109e-07
5.64723e-06
2.38437e-06
4.54159e-06
4.58748e-06
3.81006e-06
5.85848e-06
3.53746e-06
5.87002e-06
3.75932e-06
5.17847e-06
4.19571e-06
4.99074e-06
4.83087e-06
5.03646e-06
5.9603e-06
4.90148e-06
7.6214e-06
4.54507e-06
1.04941e-05
4.16871e-06
1.32043e-05
4.76124e-06
1.1134e-05
1.68002e-07
3.89026e-06
8.46213e-06
-6.59231e-06
1.84702e-05
-1.22194e-05
2.61768e-05
-1.26355e-05
2.92674e-05
-1.06767e-05
2.75844e-05
-7.45646e-06
2.28024e-05
-5.37371e-06
1.7703e-05
-5.31091e-06
1.35661e-05
-4.41624e-06
1.04124e-05
-1.55088e-06
8.06436e-06
1.82694e-06
6.18063e-06
4.2681e-06
4.5553e-06
6.21281e-06
3.31323e-06
7.10054e-06
2.79835e-06
6.3849e-06
3.15632e-06
4.82049e-06
3.80223e-06
4.34483e-06
4.62269e-06
4.21599e-06
5.94261e-06
3.58155e-06
7.6143e-06
2.87339e-06
9.57103e-06
2.21198e-06
1.12587e-05
3.07358e-06
1.00603e-05
1.36639e-06
1.39506e-05
-3.82819e-05
3.82819e-05
-4.78964e-05
9.61445e-06
-2.65382e-05
-2.13582e-05
2.81089e-06
-2.93491e-05
3.6559e-05
-3.37481e-05
6.02553e-05
-2.36964e-05
5.14362e-05
8.81915e-06
-3.33718e-05
8.4808e-05
-0.00011422
8.08483e-05
-0.000143514
2.92936e-05
-0.000148217
4.70374e-06
-0.000149805
1.58751e-06
-0.000149901
9.63229e-08
-0.00014599
-3.91101e-06
-0.000135768
-1.02219e-05
-0.000115507
-2.02618e-05
-6.98296e-05
-4.5677e-05
-6.36334e-06
-6.34662e-05
-6.36334e-06
-3.06088e-05
6.88907e-05
-2.95174e-05
8.52305e-06
-8.02272e-06
-4.28529e-05
1.22959e-05
-4.96677e-05
3.43862e-05
-5.58384e-05
5.45236e-05
-4.38338e-05
1.08663e-05
5.24765e-05
-0.000110788
0.000206462
-0.000191743
0.000161803
-0.000199678
3.72285e-05
-0.000192616
-2.35779e-06
-0.000188771
-2.25741e-06
-0.000184457
-4.21821e-06
-0.000175632
-1.27358e-05
-0.000159314
-2.65401e-05
-0.00013407
-4.55059e-05
-8.87527e-05
-9.09941e-05
-2.3999e-05
-0.00012822
-3.03624e-05
-9.42185e-06
7.83126e-05
-5.19517e-06
4.29635e-06
9.93575e-06
-5.79838e-05
2.92902e-05
-6.90221e-05
4.45486e-05
-7.10968e-05
3.72092e-05
-3.64944e-05
-2.78185e-05
0.000117504
-0.000119489
0.000298132
-0.000179308
0.000221622
-0.000236624
9.45452e-05
-0.00026759
2.86075e-05
-0.000268342
-1.50495e-06
-0.000257198
-1.53629e-05
-0.000236181
-3.37523e-05
-0.000203238
-5.94828e-05
-0.000162323
-8.64213e-05
-0.000106336
-0.000146981
-3.89257e-05
-0.000195631
-6.9288e-05
6.62945e-06
7.16831e-05
1.30182e-05
-2.09242e-06
2.62625e-05
-7.12281e-05
4.23994e-05
-8.5159e-05
5.39511e-05
-8.26484e-05
3.86727e-05
-2.1216e-05
-2.54058e-05
0.000181583
-7.56975e-05
0.000348424
-0.000139913
0.000285838
-0.00017895
0.000133582
-0.00021394
6.35976e-05
-0.000247955
3.25103e-05
-0.000260579
-2.73908e-06
-0.000250136
-4.41947e-05
-0.000223267
-8.63514e-05
-0.000182076
-0.000127612
-0.000118705
-0.000210352
-4.89715e-05
-0.000265364
-0.00011826
1.17492e-05
5.99339e-05
2.58047e-05
-1.61479e-05
4.05736e-05
-8.5997e-05
5.38265e-05
-9.84119e-05
6.28853e-05
-9.17072e-05
5.46114e-05
-1.29421e-05
3.28334e-05
0.000203361
1.84807e-05
0.000362777
-5.31371e-05
0.000357455
-0.000103118
0.000183563
-0.000161951
0.00012243
-0.000210964
8.15243e-05
-0.000230758
1.7055e-05
-0.000221924
-5.30288e-05
-0.000201227
-0.000107049
-0.000168905
-0.000159934
-0.000121232
-0.000258025
-5.08331e-05
-0.000335763
-0.000169093
1.60744e-05
4.38595e-05
3.75968e-05
-3.76703e-05
5.17314e-05
-0.000100132
6.29206e-05
-0.000109601
7.02701e-05
-9.90567e-05
6.55137e-05
-8.18576e-06
6.13121e-05
0.000207562
7.01633e-05
0.000353926
2.63699e-05
0.000401249
-5.67417e-05
0.000266674
-0.000134805
0.000200493
-0.000187536
0.000134256
-0.000205738
3.52567e-05
-0.000188484
-7.02832e-05
-0.000153236
-0.000142297
-0.0001234
-0.000189769
-9.26317e-05
-0.000288794
-4.54067e-05
-0.000382988
-0.000214499
2.37836e-05
2.00758e-05
4.80964e-05
-6.1983e-05
5.91431e-05
-0.000111178
6.99033e-05
-0.000120361
7.68731e-05
-0.000106027
7.20287e-05
-3.34136e-06
6.74434e-05
0.000212148
7.39393e-05
0.00034743
5.82273e-05
0.000416961
-3.58302e-05
0.000360732
-0.000125176
0.000289839
-0.000185174
0.000194255
-0.00020088
5.09625e-05
-0.000176054
-9.5109e-05
-0.000126229
-0.000192122
-8.15242e-05
-0.000234474
-5.4257e-05
-0.000316061
-3.63721e-05
-0.000400873
-0.000250871
3.74399e-05
-1.73641e-05
5.44371e-05
-7.89801e-05
6.17747e-05
-0.000118516
7.37734e-05
-0.00013236
8.14383e-05
-0.000113691
7.72892e-05
8.07728e-07
7.60092e-05
0.000213428
7.08351e-05
0.000352604
6.27815e-05
0.000425014
-2.72124e-05
0.000450725
-0.000130278
0.000392905
-0.000187974
0.00025195
-0.000196328
5.93162e-05
-0.000170685
-0.000120751
-0.000120864
-0.000241943
-6.01857e-05
-0.000295152
-2.34025e-05
-0.000352844
-2.60146e-05
-0.000398261
-0.000276886
2.28194e-05
-2.94118e-05
3.57159e-05
-2.51159e-05
3.09952e-05
-7.91476e-06
2.33148e-05
-2.99639e-06
1.87283e-05
-2.86996e-06
1.56376e-05
-2.28297e-06
1.39531e-05
-3.62639e-06
1.27885e-05
-3.25168e-06
1.21808e-05
-9.43222e-07
1.23114e-05
1.69634e-06
1.22783e-05
4.30125e-06
1.05791e-05
7.91199e-06
8.07141e-06
9.60824e-06
7.01402e-06
7.4423e-06
8.11678e-06
3.71772e-06
8.94617e-06
3.51545e-06
9.76128e-06
3.40088e-06
1.19658e-05
1.37706e-06
1.58859e-05
-1.04671e-06
2.043e-05
-2.33214e-06
2.64051e-05
-2.9015e-06
3.36312e-05
-5.8598e-06
-1.05603e-06
4.86378e-05
-2.30024e-05
-6.40936e-06
-8.79152e-05
3.97969e-05
-0.000120144
2.43137e-05
-9.02752e-05
-3.28647e-05
-5.83413e-05
-3.48039e-05
-4.72949e-05
-1.33294e-05
-4.68089e-05
-4.11241e-06
-4.32655e-05
-6.79502e-06
-3.30718e-05
-1.1137e-05
-2.16878e-05
-9.68761e-06
-1.16813e-05
-5.70527e-06
-3.4832e-06
-2.86125e-07
3.5903e-06
2.53474e-06
9.19387e-06
1.83873e-06
1.2294e-05
6.17635e-07
1.21535e-05
3.65591e-06
1.10591e-05
4.4953e-06
1.23929e-05
4.32288e-08
1.62615e-05
-4.91533e-06
2.01976e-05
-6.26818e-06
2.39215e-05
-6.62543e-06
2.627e-05
-8.20835e-06
-8.63722e-06
3.38512e-05
-1.56949e-05
9.28556e-06
-4.21332e-05
6.62353e-05
-6.77786e-05
4.9959e-05
-8.87282e-05
-1.1915e-05
-0.000113441
-1.00909e-05
-0.00013977
1.29995e-05
-0.000162443
1.85603e-05
-0.000178768
9.53061e-06
-0.000182811
-7.09368e-06
-0.000167333
-2.51654e-05
-0.000143056
-2.99828e-05
-0.000101179
-4.21635e-05
-6.24648e-05
-3.6179e-05
-3.98272e-05
-2.07988e-05
-2.19623e-05
-1.72473e-05
-6.34934e-06
-1.1957e-05
3.60849e-06
-5.46253e-06
1.34253e-05
-9.77358e-06
2.13392e-05
-1.28292e-05
2.61969e-05
-1.11258e-05
3.01944e-05
-1.0623e-05
3.35125e-05
-1.15264e-05
-9.92029e-06
3.47956e-05
-1.44657e-05
2.37513e-05
-3.10592e-06
5.48756e-05
-4.93772e-06
5.17909e-05
-2.61393e-05
9.28665e-06
-4.56942e-05
9.46403e-06
-6.12069e-05
2.85123e-05
-6.78026e-05
2.51561e-05
-7.38007e-05
1.55288e-05
-8.6533e-05
5.63862e-06
-0.000107902
-3.79593e-06
-0.00013134
-6.54562e-06
-0.000156865
-1.66379e-05
-0.000164978
-2.80669e-05
-0.000157214
-2.85622e-05
-0.00014062
-3.38421e-05
-0.000111681
-4.08957e-05
-7.91696e-05
-3.79738e-05
-5.76284e-05
-3.13148e-05
-3.18181e-05
-3.86395e-05
-1.48761e-05
-2.80678e-05
-8.40716e-06
-1.70919e-05
-3.98111e-06
-1.59525e-05
-1.27839e-05
-1.1175e-06
-1.105e-05
3.48014e-05
6.14938e-06
3.76762e-05
1.28882e-05
4.50521e-05
5.39436e-06
1.67806e-05
-4.17094e-07
1.52756e-05
-1.67035e-06
2.97657e-05
-2.48631e-08
2.35107e-05
3.82786e-06
1.16762e-05
5.98896e-06
3.47752e-06
1.20071e-06
9.9232e-07
-1.29179e-05
7.57298e-06
-4.00349e-05
1.0479e-05
-6.18255e-05
-6.27632e-06
-8.12286e-05
-9.15917e-06
-9.36875e-05
-2.13832e-05
-0.000109442
-2.51415e-05
-0.000132465
-1.49509e-05
-0.000151759
-1.20209e-05
-0.000173242
-1.71558e-05
-0.000184662
-1.66478e-05
-0.000173812
-2.79421e-05
-0.000147969
-4.17952e-05
-3.24945e-05
-0.000128259
-3.77413e-06
3.85756e-05
5.74947e-06
2.81527e-05
1.4791e-05
3.60107e-05
8.13107e-06
2.34406e-05
-2.27622e-08
2.34295e-05
2.59801e-06
2.7145e-05
2.16616e-06
2.39426e-05
-4.40872e-06
1.82511e-05
-1.20816e-05
1.11505e-05
-1.38848e-05
2.79548e-06
-7.25992e-06
9.48083e-07
-1.06694e-06
4.28596e-06
-9.49649e-06
2.15319e-06
-2.74601e-05
8.80443e-06
-4.09629e-05
-7.88039e-06
-5.16404e-05
-1.44641e-05
-6.35116e-05
-3.0797e-06
-7.64702e-05
9.37687e-07
-8.88102e-05
-4.81571e-06
-9.71634e-05
-8.29452e-06
-0.000120373
-4.7322e-06
-0.000167225
5.0564e-06
3.04188e-05
-0.000230138
-1.74022e-06
4.03158e-05
2.60908e-06
2.38035e-05
6.88164e-06
3.17382e-05
3.15078e-06
2.71715e-05
-1.30225e-07
2.67106e-05
7.58949e-08
2.6939e-05
-7.97561e-07
2.48161e-05
-3.87183e-06
2.13254e-05
-8.88976e-06
1.61684e-05
-1.74151e-05
1.13209e-05
-2.46631e-05
8.19602e-06
-2.70831e-05
6.70598e-06
-3.12088e-05
6.27889e-06
-3.26069e-05
1.02025e-05
-4.16639e-05
1.17652e-06
-5.34317e-05
-2.69627e-06
-5.93147e-05
2.80329e-06
-6.09127e-05
2.53563e-06
-6.03097e-05
-5.41865e-06
-5.31711e-05
-1.54329e-05
-4.8759e-05
-9.14425e-06
-7.36531e-05
2.99506e-05
8.42048e-05
-0.000127439
-1.73684e-06
4.20527e-05
-8.79722e-08
2.21546e-05
1.81983e-06
2.98304e-05
5.61605e-07
2.84298e-05
-5.87879e-07
2.78602e-05
-1.06206e-06
2.74132e-05
-2.61242e-06
2.63665e-05
-5.71648e-06
2.44295e-05
-1.059e-05
2.1042e-05
-1.57106e-05
1.64415e-05
-1.9634e-05
1.21194e-05
-2.21136e-05
9.18559e-06
-2.4202e-05
8.36726e-06
-2.47976e-05
1.0798e-05
-3.08531e-05
7.23192e-06
-3.77528e-05
4.20339e-06
-4.21936e-05
7.24414e-06
-4.52353e-05
5.57725e-06
-4.59037e-05
-4.75027e-06
-4.67682e-05
-1.45684e-05
-4.1123e-05
-1.47894e-05
-2.56978e-05
1.45255e-05
8.34372e-05
-2.49303e-05
-2.17149e-06
4.42242e-05
-1.45401e-06
2.14371e-05
-1.08662e-07
2.84851e-05
-6.89113e-07
2.90103e-05
-1.49029e-06
2.86614e-05
-2.01187e-06
2.79348e-05
-2.9618e-06
2.73165e-05
-4.709e-06
2.61767e-05
-7.61742e-06
2.39504e-05
-1.1864e-05
2.06881e-05
-1.69521e-05
1.72075e-05
-2.17647e-05
1.39982e-05
-2.51386e-05
1.17412e-05
-2.54652e-05
1.11246e-05
-2.74039e-05
9.17065e-06
-3.17716e-05
8.571e-06
-3.39119e-05
9.38449e-06
-3.41071e-05
5.77243e-06
-3.5666e-05
-3.19134e-06
-3.81754e-05
-1.2059e-05
-3.41995e-05
-1.87654e-05
-2.1402e-05
1.72796e-06
6.47717e-05
-2.73653e-06
-2.02704e-06
4.62512e-05
-1.82454e-06
2.12346e-05
-1.07511e-06
2.77357e-05
-1.57388e-06
2.95091e-05
-2.1559e-06
2.92434e-05
-2.73792e-06
2.85168e-05
-3.37518e-06
2.79538e-05
-4.3978e-06
2.71994e-05
-6.23406e-06
2.57867e-05
-9.02272e-06
2.34767e-05
-1.23972e-05
2.0582e-05
-1.61387e-05
1.77397e-05
-2.00694e-05
1.56718e-05
-2.36421e-05
1.46973e-05
-2.81644e-05
1.36929e-05
-3.25393e-05
1.29458e-05
-3.51645e-05
1.20096e-05
-3.66738e-05
7.28166e-06
-3.92463e-05
-6.18841e-07
-4.27749e-05
-8.53037e-06
-4.58236e-05
-1.57169e-05
-4.28498e-05
-1.24591e-06
5.77716e-05
-3.58497e-05
-1.68116e-06
4.79324e-05
-1.90771e-06
2.14611e-05
-1.73152e-06
2.75595e-05
-2.21476e-06
2.99923e-05
-2.80081e-06
2.98295e-05
-3.47623e-06
2.91923e-05
-4.17992e-06
2.86575e-05
-5.02945e-06
2.80489e-05
-6.30819e-06
2.70654e-05
-8.29756e-06
2.54661e-05
-1.11393e-05
2.34238e-05
-1.48047e-05
2.14051e-05
-1.901e-05
1.98771e-05
-2.32566e-05
1.89439e-05
-2.78769e-05
1.83132e-05
-3.27208e-05
1.77897e-05
-3.68084e-05
1.6097e-05
-4.10545e-05
1.15277e-05
-4.708e-05
5.40662e-06
-5.59895e-05
3.789e-07
-6.98616e-05
-1.84476e-06
-8.55948e-05
1.44872e-05
6.41997e-05
-9.20231e-05
-1.34481e-06
4.92771e-05
-1.85356e-06
2.19698e-05
-2.07573e-06
2.77816e-05
-2.64643e-06
3.0563e-05
-3.34153e-06
3.05245e-05
-4.15057e-06
3.00013e-05
-5.02533e-06
2.95323e-05
-6.00341e-06
2.90271e-05
-7.27093e-06
2.8333e-05
-9.12815e-06
2.73234e-05
-1.17838e-05
2.60795e-05
-1.52435e-05
2.48648e-05
-1.93432e-05
2.39767e-05
-2.38506e-05
2.34511e-05
-2.86732e-05
2.31356e-05
-3.36403e-05
2.27567e-05
-3.89427e-05
2.13993e-05
-4.54768e-05
1.80618e-05
-5.40692e-05
1.39989e-05
-6.57516e-05
1.20612e-05
-8.41648e-05
1.65684e-05
-0.000106034
3.6356e-05
7.61133e-05
-0.000117947
-1.04934e-06
5.03264e-05
-1.73966e-06
2.26601e-05
-2.25078e-06
2.82927e-05
-2.93429e-06
3.12464e-05
-3.72616e-06
3.13164e-05
-4.65402e-06
3.09292e-05
-5.70895e-06
3.05873e-05
-6.91605e-06
3.02342e-05
-8.38637e-06
2.98033e-05
-1.03205e-05
2.92575e-05
-1.28907e-05
2.86497e-05
-1.61391e-05
2.81131e-05
-1.99669e-05
2.78045e-05
-2.42358e-05
2.772e-05
-2.88784e-05
2.77782e-05
-3.40045e-05
2.78827e-05
-4.017e-05
2.75647e-05
-4.80971e-05
2.59888e-05
-5.75577e-05
2.34596e-05
-6.87437e-05
2.32471e-05
-8.46367e-05
3.24613e-05
-0.000105632
5.73516e-05
9.36336e-05
-0.000123153
-8.27395e-07
5.11538e-05
-1.62167e-06
2.34544e-05
-2.32633e-06
2.89973e-05
-3.10456e-06
3.20246e-05
-3.96746e-06
3.21792e-05
-4.96799e-06
3.19298e-05
-6.13008e-06
3.17495e-05
-7.48594e-06
3.15901e-05
-9.09978e-06
3.14172e-05
-1.10882e-05
3.1246e-05
-1.35615e-05
3.1123e-05
-1.6569e-05
3.11206e-05
-2.00743e-05
3.13097e-05
-2.40638e-05
3.17094e-05
-2.85954e-05
3.23097e-05
-3.38702e-05
3.31574e-05
-4.04657e-05
3.41601e-05
-4.92765e-05
3.47994e-05
-6.05751e-05
3.47581e-05
-7.36332e-05
3.63053e-05
-8.75873e-05
4.64154e-05
-0.000102987
7.27515e-05
0.000113954
-0.000123308
-6.80292e-07
5.18341e-05
-1.52167e-06
2.42957e-05
-2.34009e-06
2.98157e-05
-3.17448e-06
3.28589e-05
-4.07527e-06
3.308e-05
-5.10201e-06
3.29565e-05
-6.28976e-06
3.29372e-05
-7.67285e-06
3.29732e-05
-9.30477e-06
3.30492e-05
-1.12454e-05
3.31866e-05
-1.35606e-05
3.34382e-05
-1.62949e-05
3.3855e-05
-1.94788e-05
3.44935e-05
-2.31766e-05
3.5407e-05
-2.75164e-05
3.66495e-05
-3.26591e-05
3.83e-05
-3.89267e-05
4.04276e-05
-4.71464e-05
4.30191e-05
-5.83942e-05
4.60058e-05
-7.23187e-05
5.02298e-05
-8.58837e-05
5.99804e-05
-9.65669e-05
8.34348e-05
0.000126632
-0.000109244
-5.8644e-07
5.24205e-05
-1.44122e-06
2.51505e-05
-2.30969e-06
3.06841e-05
-3.15933e-06
3.37085e-05
-4.06468e-06
3.39853e-05
-5.07924e-06
3.39711e-05
-6.23536e-06
3.40934e-05
-7.56663e-06
3.43046e-05
-9.11157e-06
3.45942e-05
-1.0915e-05
3.49901e-05
-1.30157e-05
3.5539e-05
-1.54551e-05
3.62944e-05
-1.82783e-05
3.73168e-05
-2.15528e-05
3.86815e-05
-2.53865e-05
4.04831e-05
-2.99091e-05
4.28226e-05
-3.52956e-05
4.58142e-05
-4.19592e-05
4.96826e-05
-5.0747e-05
5.47936e-05
-6.22337e-05
6.17165e-05
-7.45219e-05
7.22686e-05
-8.26356e-05
9.15487e-05
0.000127527
-8.35307e-05
-5.26511e-07
5.2947e-05
-1.36611e-06
2.599e-05
-2.23858e-06
3.15564e-05
-3.07332e-06
3.45431e-05
-3.95099e-06
3.4863e-05
-4.92228e-06
3.49424e-05
-6.01082e-06
3.5182e-05
-7.24386e-06
3.55377e-05
-8.65087e-06
3.60013e-05
-1.02636e-05
3.66031e-05
-1.21134e-05
3.73889e-05
-1.42306e-05
3.84116e-05
-1.66507e-05
3.9737e-05
-1.94158e-05
4.14467e-05
-2.25816e-05
4.36489e-05
-2.62312e-05
4.64721e-05
-3.04873e-05
5.00702e-05
-3.54867e-05
5.4682e-05
-4.14377e-05
6.07446e-05
-4.8674e-05
6.89528e-05
-5.67258e-05
8.03205e-05
-6.20349e-05
9.68578e-05
0.000122741
-5.72495e-05
-4.80233e-07
5.34272e-05
-1.28891e-06
2.67986e-05
-2.13259e-06
3.24e-05
-2.92571e-06
3.53361e-05
-3.74822e-06
3.56854e-05
-4.6492e-06
3.58434e-05
-5.64682e-06
3.61796e-05
-6.75595e-06
3.66469e-05
-7.99792e-06
3.72433e-05
-9.39472e-06
3.8e-05
-1.09681e-05
3.89625e-05
-1.27354e-05
4.01791e-05
-1.4716e-05
4.17175e-05
-1.6927e-05
4.36577e-05
-1.93846e-05
4.61064e-05
-2.21082e-05
4.91957e-05
-2.51243e-05
5.30863e-05
-2.84327e-05
5.79904e-05
-3.19134e-05
6.42252e-05
-3.53309e-05
7.23702e-05
-3.82532e-05
8.32428e-05
-3.90741e-05
9.76786e-05
0.000116474
-3.28068e-05
-4.35029e-07
5.38622e-05
-1.20396e-06
2.75673e-05
-1.99496e-06
3.31909e-05
-2.72189e-06
3.6063e-05
-3.47213e-06
3.64356e-05
-4.28374e-06
3.6655e-05
-5.16807e-06
3.7064e-05
-6.13525e-06
3.76141e-05
-7.19608e-06
3.83043e-05
-8.36258e-06
3.91666e-05
-9.64343e-06
4.02434e-05
-1.10451e-05
4.15808e-05
-1.25681e-05
4.32406e-05
-1.42068e-05
4.52963e-05
-1.59439e-05
4.78435e-05
-1.7748e-05
5.09998e-05
-1.95633e-05
5.49016e-05
-2.12894e-05
5.97165e-05
-2.27134e-05
6.56492e-05
-2.33739e-05
7.30306e-05
-2.25025e-05
8.23715e-05
-1.89997e-05
9.41758e-05
0.000108259
-1.07844e-05
-3.83353e-07
5.42455e-05
-1.10445e-06
2.82883e-05
-1.82791e-06
3.39142e-05
-2.47761e-06
3.67126e-05
-3.13824e-06
3.70961e-05
-3.84597e-06
3.73627e-05
-4.60394e-06
3.7822e-05
-5.41566e-06
3.84259e-05
-6.28475e-06
3.91735e-05
-7.21274e-06
4.00948e-05
-8.19913e-06
4.12298e-05
-9.23692e-06
4.26185e-05
-1.03121e-05
4.43157e-05
-1.13988e-05
4.63829e-05
-1.24543e-05
4.8899e-05
-1.34127e-05
5.19581e-05
-1.41745e-05
5.56634e-05
-1.45836e-05
6.01256e-05
-1.43986e-05
6.54641e-05
-1.31791e-05
7.18112e-05
-1.01502e-05
7.93426e-05
-4.27162e-06
8.82973e-05
9.8416e-05
5.57127e-06
-3.22939e-07
5.45684e-05
-9.90077e-07
2.89553e-05
-1.63641e-06
3.45604e-05
-2.19895e-06
3.7275e-05
-2.76271e-06
3.76599e-05
-3.35698e-06
3.79569e-05
-3.9804e-06
3.84455e-05
-4.6303e-06
3.90758e-05
-5.30446e-06
3.98476e-05
-5.9977e-06
4.07881e-05
-6.69856e-06
4.19307e-05
-7.39208e-06
4.3312e-05
-8.05156e-06
4.49751e-05
-8.63795e-06
4.69693e-05
-9.09276e-06
4.93538e-05
-9.3313e-06
5.21966e-05
-9.23445e-06
5.55665e-05
-8.63225e-06
5.95233e-05
-7.28763e-06
6.41194e-05
-4.85912e-06
6.93828e-05
-7.31761e-07
7.52153e-05
5.86121e-06
8.17044e-05
8.8654e-05
1.56232e-05
-2.53748e-07
5.4822e-05
-8.61753e-07
2.95632e-05
-1.42468e-06
3.51233e-05
-1.8953e-06
3.77455e-05
-2.35855e-06
3.81231e-05
-2.83688e-06
3.84352e-05
-3.3242e-06
3.89327e-05
-3.81401e-06
3.95656e-05
-4.2987e-06
4.03323e-05
-4.76718e-06
4.12566e-05
-5.20266e-06
4.23662e-05
-5.5818e-06
4.36912e-05
-5.87119e-06
4.52645e-05
-6.02376e-06
4.71218e-05
-5.97348e-06
4.93036e-05
-5.63037e-06
5.18535e-05
-4.87395e-06
5.481e-05
-3.53907e-06
5.81885e-05
-1.40984e-06
6.19902e-05
1.80868e-06
6.61642e-05
6.35278e-06
7.06712e-05
1.28033e-05
7.52539e-05
7.9784e-05
2.16732e-05
-1.76505e-07
5.49985e-05
-7.20006e-07
3.01067e-05
-1.19556e-06
3.55988e-05
-1.57391e-06
3.81238e-05
-1.93652e-06
3.84857e-05
-2.3005e-06
3.87992e-05
-2.65597e-06
3.92881e-05
-2.99295e-06
3.99025e-05
-3.30024e-06
4.06396e-05
-3.56257e-06
4.15189e-05
-3.75912e-06
4.25628e-05
-3.86204e-06
4.37941e-05
-3.83385e-06
4.52363e-05
-3.62457e-06
4.69126e-05
-3.16755e-06
4.88467e-05
-2.37534e-06
5.10614e-05
-1.14086e-06
5.35755e-05
6.99094e-07
5.63485e-05
3.28592e-06
5.94034e-05
6.80736e-06
6.26429e-05
1.15344e-05
6.59442e-05
1.77082e-05
6.90802e-05
7.19189e-05
2.55732e-05
-9.21906e-08
5.50907e-05
-5.66136e-07
3.05806e-05
-9.51654e-07
3.59843e-05
-1.24012e-06
3.84123e-05
-1.50519e-06
3.87507e-05
-1.7597e-06
3.90537e-05
-1.99117e-06
3.95196e-05
-2.18726e-06
4.00986e-05
-2.33413e-06
4.07865e-05
-2.41383e-06
4.15987e-05
-2.40307e-06
4.25521e-05
-2.27228e-06
4.36633e-05
-1.98211e-06
4.49462e-05
-1.48302e-06
4.64136e-05
-7.12149e-07
4.80759e-05
4.17431e-07
4.99319e-05
2.00848e-06
5.19845e-05
4.12048e-06
5.42365e-05
6.94266e-06
5.65812e-05
1.06089e-05
5.89766e-05
1.52685e-05
6.12845e-05
2.10443e-05
6.33043e-05
6.48879e-05
2.80753e-05
1.33881e-09
5.50893e-05
-4.03976e-07
3.0986e-05
-6.96593e-07
3.62768e-05
-8.9932e-07
3.86149e-05
-1.07138e-06
3.89228e-05
-1.22318e-06
3.92054e-05
-1.3408e-06
3.96372e-05
-1.41056e-06
4.01684e-05
-1.41692e-06
4.0793e-05
-1.34031e-06
4.15222e-05
-1.15618e-06
4.2368e-05
-8.35921e-07
4.33431e-05
-3.39223e-07
4.44495e-05
3.85778e-07
4.56886e-05
1.39141e-06
4.70703e-05
2.73209e-06
4.85912e-05
4.4954e-06
5.02211e-05
6.79137e-06
5.19405e-05
9.71206e-06
5.36606e-05
1.3361e-05
5.53278e-05
1.78286e-05
5.68169e-05
2.31792e-05
5.79537e-05
5.85876e-05
2.94796e-05
1.02343e-07
5.4987e-05
-2.41635e-07
3.13299e-05
-4.35396e-07
3.64705e-05
-5.59014e-07
3.87385e-05
-6.41955e-07
3.90057e-05
-6.98446e-07
3.92619e-05
-7.1322e-07
3.96519e-05
-6.71814e-07
4.0127e-05
-5.58194e-07
4.06794e-05
-3.51523e-07
4.13156e-05
-2.54798e-08
4.2042e-05
4.51852e-07
4.28657e-05
1.10983e-06
4.37914e-05
1.97894e-06
4.48194e-05
3.12002e-06
4.59292e-05
4.59908e-06
4.71121e-05
6.4757e-06
4.83445e-05
8.83116e-06
4.95851e-05
1.17149e-05
5.07769e-05
1.52266e-05
5.18161e-05
1.94306e-05
5.26129e-05
2.43456e-05
5.30386e-05
5.29623e-05
2.9971e-05
2.2077e-07
5.47662e-05
-7.9186e-08
3.16298e-05
-1.72498e-07
3.65637e-05
-2.31427e-07
3.87975e-05
-2.24806e-07
3.89991e-05
-1.93612e-07
3.92307e-05
-1.16883e-07
3.95752e-05
2.27389e-08
3.99873e-05
2.39603e-07
4.04626e-05
5.50417e-07
4.10048e-05
9.83411e-07
4.16089e-05
1.5619e-06
4.22872e-05
2.31982e-06
4.30335e-05
3.29692e-06
4.38423e-05
4.5362e-06
4.469e-05
6.08031e-06
4.5568e-05
7.97896e-06
4.64458e-05
1.02942e-05
4.72698e-05
1.30814e-05
4.79897e-05
1.63875e-05
4.851e-05
2.02549e-05
4.87455e-05
2.46944e-05
4.85991e-05
4.7962e-05
2.96947e-05
3.62304e-07
5.44039e-05
9.40148e-08
3.1898e-05
5.16133e-08
3.6606e-05
9.32732e-08
3.87558e-05
1.73022e-07
3.89193e-05
2.8143e-07
3.91224e-05
4.43271e-07
3.94133e-05
6.64206e-07
3.97664e-05
9.65469e-07
4.01613e-05
1.36814e-06
4.06021e-05
1.88153e-06
4.10956e-05
2.54088e-06
4.16279e-05
3.37344e-06
4.2201e-05
4.41627e-06
4.27996e-05
5.68798e-06
4.34183e-05
7.23923e-06
4.40167e-05
9.11395e-06
4.45711e-05
1.13384e-05
4.50454e-05
1.39527e-05
4.53754e-05
1.69963e-05
4.54665e-05
2.04897e-05
4.5252e-05
2.44438e-05
4.4645e-05
4.35825e-05
2.88232e-05
5.26554e-07
5.38773e-05
2.44671e-07
3.21797e-05
2.63669e-07
3.65869e-05
3.74819e-07
3.86446e-05
5.27363e-07
3.87668e-05
7.07487e-07
3.89424e-05
9.38412e-07
3.91824e-05
1.23563e-06
3.94692e-05
1.61e-06
3.97869e-05
2.07854e-06
4.01336e-05
2.66438e-06
4.05098e-05
3.38631e-06
4.0906e-05
4.26788e-06
4.13196e-05
5.33739e-06
4.17301e-05
6.62355e-06
4.21321e-05
8.15343e-06
4.24868e-05
9.9529e-06
4.27716e-05
1.20568e-05
4.29415e-05
1.44842e-05
4.2948e-05
1.72436e-05
4.2707e-05
2.03546e-05
4.2141e-05
2.38155e-05
4.11841e-05
3.98037e-05
2.75943e-05
7.13649e-07
5.31636e-05
3.93574e-07
3.24997e-05
4.49111e-07
3.65314e-05
6.18136e-07
3.84755e-05
8.28614e-07
3.85563e-05
1.06568e-06
3.87053e-05
1.35891e-06
3.88893e-05
1.71515e-06
3.9113e-05
2.15172e-06
3.93503e-05
2.68215e-06
3.96033e-05
3.32402e-06
3.98681e-05
4.09329e-06
4.01368e-05
5.01339e-06
4.03995e-05
6.0974e-06
4.06461e-05
7.37723e-06
4.08522e-05
8.87076e-06
4.09932e-05
1.05977e-05
4.10446e-05
1.25719e-05
4.09673e-05
1.48095e-05
4.07104e-05
1.73087e-05
4.02079e-05
2.00687e-05
3.93812e-05
2.30785e-05
3.81743e-05
3.65769e-05
2.63054e-05
9.0041e-07
5.22631e-05
5.36811e-07
3.28633e-05
5.98295e-07
3.64699e-05
8.08356e-07
3.82654e-05
1.05792e-06
3.83067e-05
1.33906e-06
3.84241e-05
1.67322e-06
3.85552e-05
2.07459e-06
3.87116e-05
2.55373e-06
3.88712e-05
3.12591e-06
3.90312e-05
3.80511e-06
3.9189e-05
4.6085e-06
3.93335e-05
5.54751e-06
3.94605e-05
6.64413e-06
3.95494e-05
7.91347e-06
3.95829e-05
9.36687e-06
3.95398e-05
1.10223e-05
3.93892e-05
1.28901e-05
3.90997e-05
1.4971e-05
3.86295e-05
1.72583e-05
3.79208e-05
1.97348e-05
3.69047e-05
2.23861e-05
3.55232e-05
3.37856e-05
2.51776e-05
1.07436e-06
5.11888e-05
6.64408e-07
3.32731e-05
7.03323e-07
3.6431e-05
9.31521e-07
3.80371e-05
1.19831e-06
3.80398e-05
1.49373e-06
3.81287e-05
1.8489e-06
3.82001e-05
2.26848e-06
3.8292e-05
2.76768e-06
3.8372e-05
3.35803e-06
3.84409e-05
4.05274e-06
3.84943e-05
4.86186e-06
3.85243e-05
5.80313e-06
3.85192e-05
6.88932e-06
3.84632e-05
8.13208e-06
3.83401e-05
9.54613e-06
3.81259e-05
1.11358e-05
3.77997e-05
1.29102e-05
3.73254e-05
1.48685e-05
3.66714e-05
1.70021e-05
3.57872e-05
1.92845e-05
3.46224e-05
2.16915e-05
3.31163e-05
3.12873e-05
2.41898e-05
1.23825e-06
4.99505e-05
7.69633e-07
3.37416e-05
7.57745e-07
3.64428e-05
9.78999e-07
3.78157e-05
1.23341e-06
3.77853e-05
1.51943e-06
3.78427e-05
1.86259e-06
3.7857e-05
2.27108e-06
3.78835e-05
2.75688e-06
3.78863e-05
3.33083e-06
3.7867e-05
4.00474e-06
3.78204e-05
4.78861e-06
3.77405e-05
5.69581e-06
3.7612e-05
6.73831e-06
3.74208e-05
7.92824e-06
3.71503e-05
9.27142e-06
3.67828e-05
1.07798e-05
3.62914e-05
1.24556e-05
3.56497e-05
1.4298e-05
3.4829e-05
1.62989e-05
3.37864e-05
1.84374e-05
3.24839e-05
2.06812e-05
3.08727e-05
2.89673e-05
2.30012e-05
1.3876e-06
4.85628e-05
8.52261e-07
3.42767e-05
7.6743e-07
3.65275e-05
9.53004e-07
3.76301e-05
1.16407e-06
3.75742e-05
1.414e-06
3.75928e-05
1.71594e-06
3.75551e-05
2.08045e-06
3.75191e-05
2.51853e-06
3.74483e-05
3.0399e-06
3.73457e-05
3.65286e-06
3.72075e-05
4.36936e-06
3.7024e-05
5.19949e-06
3.6782e-05
6.15275e-06
3.64676e-05
7.24287e-06
3.60603e-05
8.47454e-06
3.55512e-05
9.85675e-06
3.49092e-05
1.13919e-05
3.41146e-05
1.30847e-05
3.31363e-05
1.49248e-05
3.19465e-05
1.69019e-05
3.0507e-05
1.89886e-05
2.87862e-05
2.68046e-05
2.11515e-05
1.4984e-06
4.70642e-05
9.0516e-07
3.48696e-05
7.40688e-07
3.66917e-05
8.64541e-07
3.75061e-05
1.01151e-06
3.74272e-05
1.2005e-06
3.74039e-05
1.43765e-06
3.73179e-05
1.73484e-06
3.72219e-05
2.099e-06
3.70842e-05
2.53618e-06
3.69086e-05
3.05597e-06
3.66877e-05
3.66774e-06
3.64124e-05
4.3809e-06
3.60689e-05
5.20494e-06
3.56436e-05
6.14567e-06
3.51196e-05
7.21608e-06
3.44808e-05
8.4203e-06
3.37051e-05
9.76287e-06
3.27722e-05
1.12448e-05
3.16545e-05
1.28652e-05
3.03263e-05
1.46135e-05
2.87588e-05
1.64733e-05
2.69264e-05
2.48613e-05
1.84166e-05
1.54747e-06
4.55165e-05
9.18527e-07
3.54983e-05
6.83565e-07
3.69265e-05
7.36431e-07
3.74531e-05
8.08606e-07
3.7355e-05
9.26206e-07
3.72861e-05
1.09006e-06
3.7154e-05
1.30413e-06
3.70079e-05
1.57866e-06
3.68097e-05
1.91585e-06
3.65714e-05
2.32367e-06
3.62799e-05
2.81114e-06
3.59249e-05
3.3842e-06
3.54959e-05
4.05134e-06
3.49765e-05
4.82005e-06
3.43508e-05
5.69766e-06
3.36033e-05
6.68858e-06
3.27143e-05
7.79866e-06
3.16623e-05
9.0258e-06
3.04274e-05
1.03705e-05
2.89815e-05
1.18273e-05
2.73021e-05
1.33871e-05
2.53665e-05
2.32254e-05
1.50231e-05
1.52988e-06
4.39865e-05
8.87713e-07
3.61404e-05
6.02532e-07
3.72116e-05
5.90638e-07
3.74649e-05
5.87685e-07
3.73578e-05
6.38263e-07
3.72355e-05
7.26161e-07
3.70661e-05
8.60443e-07
3.68737e-05
1.04528e-06
3.66249e-05
1.28404e-06
3.63326e-05
1.58251e-06
3.59814e-05
1.94369e-06
3.55637e-05
2.37735e-06
3.50621e-05
2.88815e-06
3.44656e-05
3.48106e-06
3.37579e-05
4.16285e-06
3.29215e-05
4.93728e-06
3.19399e-05
5.80752e-06
3.0792e-05
6.77121e-06
2.94637e-05
7.83108e-06
2.79217e-05
8.97948e-06
2.61538e-05
1.02097e-05
2.41365e-05
2.19322e-05
1.15031e-05
1.4439e-06
4.25425e-05
8.18251e-07
3.67658e-05
5.09802e-07
3.75198e-05
4.45688e-07
3.75289e-05
3.84552e-07
3.74189e-05
3.79578e-07