/*--------------------------------*- C++ -*----------------------------------*\
| =========                 |                                                 |
| \\      /  F ield         | OpenFOAM: The Open Source CFD Toolbox           |
|  \\    /   O peration     | Version:  2206                                  |
|   \\  /    A nd           | Website:  www.openfoam.com                      |
|    \\/     M anipulation  |                                                 |
\*---------------------------------------------------------------------------*/
FoamFile
{
    version     2.0;
    format      ascii;
    arch        "LSB;label=32;scalar=64";
    class       volVectorField;
    location    "0.625";
    object      U;
}
// * * * * * * * * * * * * * * * * * * * * * * * * * * * * * * * * * * * * * //

dimensions      [0 1 -1 0 0 0 0];

internalField   nonuniform List<vector> 
2268
(
(-0.0199544 0.00829445 0)
(-0.0561704 0.00843829 0)
(-0.0793218 0.00304128 0)
(-0.0782516 -0.00106085 0)
(-0.0674155 -0.00445977 0)
(-0.0413725 -0.0079529 0)
(-0.00177833 -0.0101624 0)
(0.0416498 -0.00942856 0)
(0.0771342 -0.00651823 0)
(0.0986323 -0.00308046 0)
(0.106211 0.000230684 0)
(0.100755 0.00306181 0)
(0.0863836 0.00530316 0)
(0.0658841 0.00718636 0)
(0.0399297 0.00935644 0)
(0.00645245 0.0123071 0)
(-0.038533 0.0149933 0)
(-0.0918916 0.00786154 0)
(-0.118901 0.00144295 0)
(-0.158303 0.0153149 0)
(-0.259462 0.0147155 0)
(-0.245902 -0.0203298 0)
(-0.0888865 -0.0531871 0)
(-0.0308357 0.0268927 0)
(-0.0593493 0.0208096 0)
(-0.071835 0.00584853 0)
(-0.0712916 -0.0034928 0)
(-0.0643288 -0.0126332 0)
(-0.0418486 -0.0232587 0)
(-0.00305357 -0.0306931 0)
(0.0415767 -0.0289158 0)
(0.0781502 -0.0201892 0)
(0.100099 -0.00982606 0)
(0.107461 -0.000960895 0)
(0.106699 0.00562983 0)
(0.101058 0.010356 0)
(0.0924429 0.0140644 0)
(0.0816741 0.0181545 0)
(0.0677997 0.0242927 0)
(0.0452444 0.0333678 0)
(0.00224683 0.0360292 0)
(-0.0590416 0.0317336 0)
(-0.136453 0.0410038 0)
(-0.221799 0.0264703 0)
(-0.171268 -0.0530962 0)
(-0.049698 -0.13243 0)
(-0.0267999 0.0449252 0)
(-0.0413761 0.0297945 0)
(-0.0548449 0.00804945 0)
(-0.058814 -0.00350905 0)
(-0.0593484 -0.0175224 0)
(-0.0419431 -0.0368974 0)
(-0.00597473 -0.0513328 0)
(0.037589 -0.0490296 0)
(0.0741498 -0.0340212 0)
(0.0957782 -0.0162503 0)
(0.102398 -0.00207805 0)
(0.0989617 0.00739981 0)
(0.0907096 0.013438 0)
(0.081133 0.0174667 0)
(0.0726482 0.0214034 0)
(0.0678082 0.0280209 0)
(0.067141 0.039752 0)
(0.0661285 0.0524481 0)
(0.0375372 0.0610974 0)
(0.00101613 0.0708399 0)
(-0.0803773 0.0388594 0)
(-0.0723444 -0.0764163 0)
(0.00623082 -0.172032 0)
(-0.0168933 0.0568144 0)
(-0.0172152 0.0365409 0)
(-0.0277184 0.0120667 0)
(-0.0340303 -0.00057912 0)
(-0.0354865 -0.0203635 0)
(-0.0184018 -0.0498207 0)
(0.0108223 -0.0705306 0)
(0.0433864 -0.0680678 0)
(0.0713648 -0.0471444 0)
(0.0888196 -0.0221812 0)
(0.0939569 -0.00244968 0)
(0.0899543 0.01048 0)
(0.0813189 0.0181031 0)
(0.0714992 0.022172 0)
(0.0629777 0.0249027 0)
(0.0580739 0.0291613 0)
(0.0586574 0.0372974 0)
(0.0727624 0.0513241 0)
(0.0840925 0.0672031 0)
(0.101183 0.0862179 0)
(0.0738778 0.0616671 0)
(0.0618558 -0.0609143 0)
(0.0585543 -0.161821 0)
(-0.00364829 0.0603035 0)
(0.0152504 0.0363221 0)
(0.0154061 0.0152927 0)
(0.0159559 2.58284e-05 0)
(0.0271295 -0.0255073 0)
(0.049415 -0.0603011 0)
(0.0656483 -0.0825786 0)
(0.0737457 -0.0790135 0)
(0.079548 -0.0546216 0)
(0.0833665 -0.0253123 0)
(0.0832085 -0.00201851 0)
(0.0785219 0.0135835 0)
(0.07073 0.022504 0)
(0.0623793 0.0264348 0)
(0.0560003 0.0279238 0)
(0.0529798 0.0302187 0)
(0.0534338 0.0343364 0)
(0.0637874 0.042674 0)
(0.0858094 0.0543722 0)
(0.128758 0.0733767 0)
(0.15404 0.0635871 0)
(0.139236 -0.0415726 0)
(0.0964052 -0.119517 0)
(0.0109282 0.0511535 0)
(0.0544744 0.0293226 0)
(0.0767997 0.00807057 0)
(0.0979772 -0.00767108 0)
(0.131466 -0.0335968 0)
(0.15525 -0.0647165 0)
(0.149477 -0.0823396 0)
(0.12552 -0.0756329 0)
(0.102415 -0.0508889 0)
(0.0853989 -0.0223724 0)
(0.073977 0.00071784 0)
(0.0661574 0.0167053 0)
(0.0588873 0.0256371 0)
(0.0523803 0.0286582 0)
(0.0488706 0.0287078 0)
(0.0490556 0.0298089 0)
(0.0520493 0.0321397 0)
(0.060449 0.0358003 0)
(0.0777289 0.0391746 0)
(0.113508 0.0483156 0)
(0.162315 0.0480714 0)
(0.154654 -0.0169344 0)
(0.115638 -0.0623003 0)
(0.024641 0.0287393 0)
(0.0912351 0.0127406 0)
(0.15431 -0.00049668 0)
(0.21836 -0.0188727 0)
(0.262128 -0.0408153 0)
(0.263319 -0.0598392 0)
(0.223107 -0.067569 0)
(0.171032 -0.0575955 0)
(0.128355 -0.0350096 0)
(0.0958585 -0.0121884 0)
(0.0721767 0.00666317 0)
(0.0570449 0.0214482 0)
(0.0472926 0.0306311 0)
(0.0416684 0.0327591 0)
(0.0413388 0.0302062 0)
(0.0452785 0.0289601 0)
(0.0511028 0.028902 0)
(0.0606146 0.0289785 0)
(0.0761585 0.0278804 0)
(0.0973332 0.0278847 0)
(0.140917 0.0307369 0)
(0.146161 -0.00678086 0)
(0.134582 -0.0237744 0)
(0.0413753 -0.011196 0)
(0.14327 -0.0398864 0)
(0.268807 -0.0580781 0)
(0.330886 -0.0627924 0)
(0.336968 -0.0553792 0)
(0.296213 -0.0462803 0)
(0.230116 -0.0417875 0)
(0.173455 -0.0323357 0)
(0.13376 -0.012303 0)
(0.10356 0.00813487 0)
(0.0800352 0.0200903 0)
(0.0603493 0.0281254 0)
(0.0441427 0.0315374 0)
(0.0337489 0.0288106 0)
(0.0329594 0.0242314 0)
(0.039366 0.0245189 0)
(0.0476661 0.0261519 0)
(0.0592412 0.0250144 0)
(0.077074 0.0220545 0)
(0.0955711 0.0177267 0)
(0.118997 0.0215265 0)
(0.132098 0.0119773 0)
(0.119245 0.0754117 0)
(-0.388346 0.0797715 0)
(-0.604326 -0.00773773 0)
(-0.401943 -0.100083 0)
(-0.128933 -0.133965 0)
(0.180326 -0.136392 0)
(0.56497 -0.0954071 0)
(1.00128 -0.0242836 0)
(0.109816 0.224272 0)
(-1.01108 0.246979 0)
(-1.57477 0.121076 0)
(-1.67111 0.069084 0)
(-1.69776 0.0618626 0)
(-1.71272 0.0538436 0)
(-1.71495 0.0337877 0)
(-1.66737 0.0143977 0)
(-1.47365 -0.0139352 0)
(-1.03915 -0.0867105 0)
(-0.417915 -0.15257 0)
(0.191094 0.00475199 0)
(-0.391966 0.257918 0)
(-0.432104 0.0645953 0)
(-0.177162 -0.149988 0)
(0.0385826 -0.184342 0)
(0.215026 -0.219187 0)
(0.534853 -0.190242 0)
(0.912907 0.0879245 0)
(-0.693638 0.647073 0)
(-2.04091 0.381261 0)
(-2.26161 0.0512332 0)
(-2.21879 -0.0451227 0)
(-2.17609 -0.0520048 0)
(-2.135 -0.0577605 0)
(-2.08003 -0.0787023 0)
(-1.96356 -0.113469 0)
(-1.71794 -0.181611 0)
(-1.26522 -0.337076 0)
(-0.637126 -0.448254 0)
(-0.0288737 -0.0646415 0)
(-0.171198 0.373373 0)
(-0.117172 0.0322294 0)
(0.0235827 -0.249318 0)
(0.256512 -0.294621 0)
(0.367878 -0.313333 0)
(0.676514 -0.191211 0)
(0.379896 0.463092 0)
(-1.23639 1.14064 0)
(-1.97125 0.806 0)
(-2.15881 0.229474 0)
(-2.9247 0.0605098 0)
(-3.08254 0.0226472 0)
(-3.01148 -0.00998398 0)
(-2.8503 -0.0952234 0)
(-2.58509 -0.219389 0)
(-2.14442 -0.386598 0)
(-1.48049 -0.656915 0)
(-0.774896 -0.781913 0)
(-0.210986 -0.222587 0)
(-0.0100179 0.382248 0)
(0.0985763 0.018001 0)
(0.23304 -0.308958 0)
(0.430106 -0.380246 0)
(0.486344 -0.378811 0)
(0.808188 -0.12293 0)
(0.276483 0.748844 0)
(-1.13728 1.63901 0)
(-1.21444 1.26456 0)
(-1.56135 0.599924 0)
(-2.21272 0.151479 0)
(-2.69171 -0.0109278 0)
(-2.95164 -0.0868575 0)
(-2.96731 -0.217066 0)
(-2.84122 -0.377373 0)
(-2.42204 -0.566377 0)
(-1.60487 -0.955519 0)
(-0.8059 -1.15039 0)
(-0.300988 -0.449047 0)
(-0.00646221 0.327753 0)
(0.212186 -0.0384226 0)
(0.41007 -0.382243 0)
(0.57101 -0.450682 0)
(0.611345 -0.428673 0)
(0.90558 -0.0852544 0)
(0.415233 0.934976 0)
(-0.14256 1.8344 0)
(0.0548035 1.71439 0)
(-0.549402 0.868776 0)
(-1.57902 0.476511 0)
(-2.2056 0.299948 0)
(-2.59361 0.0641056 0)
(-2.64475 -0.182915 0)
(-2.56685 -0.425366 0)
(-2.2896 -0.659336 0)
(-1.59527 -1.14944 0)
(-0.747539 -1.50114 0)
(-0.292089 -0.702083 0)
(-0.0268115 0.25475 0)
(0.331794 -0.123548 0)
(0.551437 -0.453704 0)
(0.672501 -0.50483 0)
(0.729381 -0.458815 0)
(0.931145 -0.051046 0)
(0.588646 1.01862 0)
(0.520807 1.74098 0)
(0.874286 1.91836 0)
(0.0470469 1.12198 0)
(-1.25345 0.781181 0)
(-1.92825 0.512153 0)
(-2.33782 0.130943 0)
(-2.32418 -0.275967 0)
(-2.09492 -0.578789 0)
(-1.7068 -0.834182 0)
(-1.14885 -1.33348 0)
(-0.628674 -1.77434 0)
(-0.224867 -0.940274 0)
(0.0116267 0.199747 0)
(0.470443 -0.236386 0)
(0.644669 -0.51773 0)
(0.73875 -0.553312 0)
(0.828428 -0.492811 0)
(0.927609 -0.0209864 0)
(0.759656 1.02717 0)
(0.679293 1.6879 0)
(1.01856 2.00839 0)
(0.30919 1.51956 0)
(-1.07919 1.17052 0)
(-1.88404 0.807766 0)
(-2.33115 0.233553 0)
(-2.21612 -0.381596 0)
(-1.8379 -0.772212 0)
(-1.22575 -0.983032 0)
(-0.63968 -1.50862 0)
(-0.489342 -1.9245 0)
(-0.14625 -1.14567 0)
(0.236086 -0.0350755 0)
(0.582693 -0.364596 0)
(0.669391 -0.56214 0)
(0.764111 -0.622101 0)
(0.890455 -0.561334 0)
(0.927325 -0.0220287 0)
(0.895203 1.00021 0)
(0.82927 1.69047 0)
(0.896351 2.01814 0)
(0.481565 1.93242 0)
(-1.09014 1.65522 0)
(-2.00364 1.09674 0)
(-2.31052 0.258178 0)
(-2.13348 -0.550652 0)
(-1.73044 -1.0728 0)
(-1.02838 -1.23883 0)
(-0.294771 -1.57419 0)
(-0.345124 -1.94869 0)
(-0.0785696 -1.30568 0)
(0.0554814 -0.0785897 0)
(0.17717 -0.133936 0)
(0.188571 -0.113806 0)
(0.148511 -0.0680152 0)
(0.111333 -0.0241414 0)
(0.094242 -0.00690007 0)
(0.0769095 -0.014457 0)
(0.0676961 -0.0179253 0)
(0.0661737 -0.0077518 0)
(0.0672135 0.00837425 0)
(0.0675555 0.0249853 0)
(0.0631396 0.0450178 0)
(0.0507549 0.0563581 0)
(0.0394112 0.0504734 0)
(0.0397337 0.0313119 0)
(0.0457703 0.0214936 0)
(0.049689 0.0138087 0)
(0.056773 0.00597437 0)
(0.0731216 0.00104456 0)
(0.0981879 -0.0018203 0)
(0.122267 0.0010498 0)
(0.16546 -0.0126704 0)
(0.21013 0.0456067 0)
(0.0202574 -0.157639 0)
(-0.26223 -0.0461913 0)
(-0.763402 0.0673446 0)
(-0.521003 0.0216161 0)
(-0.348198 -0.010341 0)
(-0.260672 -0.0120722 0)
(-0.25818 -0.0179398 0)
(-0.258624 -0.012417 0)
(-0.208708 -0.00298662 0)
(-0.140652 0.00751 0)
(-0.0882061 0.0167619 0)
(-0.0395942 0.0330012 0)
(0.00314459 0.0398371 0)
(0.0392568 0.0259251 0)
(0.0646084 0.00957119 0)
(0.0700251 0.0181092 0)
(0.061279 0.0249733 0)
(0.0577943 0.00744265 0)
(0.0755161 -0.0137219 0)
(0.0973398 -0.0244344 0)
(0.118291 -0.0306326 0)
(0.131174 -0.0433762 0)
(0.159168 -0.0533025 0)
(-0.0533187 0.0268806 0)
(-0.0967366 0.363505 0)
(-0.409655 0.14305 0)
(-0.346356 -0.298522 0)
(-0.534399 -0.292177 0)
(-0.701227 -0.0861938 0)
(-0.813958 -0.0111192 0)
(-0.925989 -0.0506817 0)
(-0.992662 -0.10464 0)
(-0.994876 -0.113642 0)
(-0.861628 -0.078836 0)
(-0.607061 -0.035837 0)
(-0.398515 -0.0154053 0)
(-0.24618 -0.00303496 0)
(-0.166471 0.000652289 0)
(-0.0621424 0.0279479 0)
(-0.00545901 0.0297074 0)
(0.0447969 -0.00600042 0)
(0.100607 -0.0339537 0)
(0.131397 -0.0406754 0)
(0.149105 -0.0427265 0)
(0.169821 -0.0511465 0)
(0.18353 -0.0493774 0)
(-0.118492 0.0963425 0)
(-0.0151154 0.390122 0)
(-0.0403851 0.360758 0)
(-0.0236879 0.116232 0)
(-0.193647 0.137408 0)
(-0.327638 0.181535 0)
(-0.359593 0.173989 0)
(-0.381148 0.130406 0)
(-0.40819 0.0176063 0)
(-0.501285 -0.136831 0)
(-0.643459 -0.248273 0)
(-0.791175 -0.37353 0)
(-0.883607 -0.314527 0)
(-0.899145 -0.206473 0)
(-0.822611 -0.197638 0)
(-0.669882 -0.158452 0)
(-0.489193 -0.0986814 0)
(-0.375007 -0.109059 0)
(-0.222609 -0.0946983 0)
(-0.108911 -0.0697584 0)
(-0.0555173 -0.0714787 0)
(-0.0351352 -0.0826765 0)
(-0.01443 -0.0776697 0)
(-0.0924217 0.152529 0)
(-0.0126021 0.214231 0)
(0.0618233 0.263238 0)
(0.0738472 0.0242298 0)
(0.00305682 -0.011977 0)
(-0.0118492 0.15059 0)
(-0.00866131 0.128101 0)
(0.00930305 0.0640236 0)
(0.0289234 0.0425051 0)
(0.0277526 0.0775357 0)
(-0.00846271 0.166232 0)
(-0.137677 0.151827 0)
(-0.273633 -0.039583 0)
(-0.411917 -0.124961 0)
(-0.460308 -0.171312 0)
(-0.526242 -0.254121 0)
(-0.654661 -0.238928 0)
(-0.763597 -0.205158 0)
(-0.882353 -0.258809 0)
(-0.986613 -0.190207 0)
(-0.983274 -0.146137 0)
(-0.872644 -0.136342 0)
(-0.746568 -0.0386419 0)
(-0.0434493 0.211625 0)
(0.0030898 0.176207 0)
(0.0541078 0.201576 0)
(0.092745 0.12348 0)
(0.00102712 0.147002 0)
(0.000616744 0.15392 0)
(0.0230099 0.118682 0)
(-0.000999496 0.0690226 0)
(-0.0471204 0.0110808 0)
(-0.0815149 -0.0563188 0)
(-0.0654964 -0.0587455 0)
(-0.0115382 -0.0151759 0)
(-0.0022327 -0.017754 0)
(-0.0933658 0.0458314 0)
(-0.200908 -0.0325691 0)
(-0.238995 -0.0593399 0)
(-0.314692 0.0198472 0)
(-0.379337 0.0491752 0)
(-0.454586 0.0244463 0)
(-0.499329 -0.0125461 0)
(-0.533049 -0.0861052 0)
(-0.676485 -0.213408 0)
(-1.12347 -0.153921 0)
(-0.0222992 0.21353 0)
(0.00123192 0.132168 0)
(0.0264367 0.177096 0)
(0.0409737 0.138278 0)
(-0.00150567 0.131682 0)
(-0.00108253 0.146597 0)
(0.00186407 0.13333 0)
(-0.0108502 0.113261 0)
(-0.0321181 0.089443 0)
(-0.0677453 0.0748546 0)
(-0.115747 0.0644192 0)
(-0.140998 0.0518496 0)
(-0.164807 0.038345 0)
(-0.158405 0.0383316 0)
(-0.193621 -0.04794 0)
(-0.252856 -0.0694064 0)
(-0.314828 -0.0296848 0)
(-0.332516 -0.0268066 0)
(-0.336683 -0.0574042 0)
(-0.305542 -0.0814295 0)
(-0.259657 0.000498978 0)
(-0.246021 0.239316 0)
(-0.500748 0.357466 0)
(-0.0161582 0.220851 0)
(-0.00534787 0.125653 0)
(0.00525684 0.166063 0)
(0.0118691 0.149521 0)
(-0.00433548 0.145338 0)
(-0.00354428 0.14447 0)
(-0.00873073 0.137974 0)
(-0.0204436 0.123071 0)
(-0.0418891 0.0961267 0)
(-0.0711389 0.0610843 0)
(-0.0965912 0.0345539 0)
(-0.112615 0.0257678 0)
(-0.127872 0.0343748 0)
(-0.130219 0.0734077 0)
(-0.139498 0.0574439 0)
(-0.184925 0.0242056 0)
(-0.220952 0.0509736 0)
(-0.241144 0.0436329 0)
(-0.249351 -0.0240852 0)
(-0.247945 -0.103611 0)
(-0.240138 -0.0924379 0)
(-0.184806 0.0980402 0)
(-0.085435 0.487788 0)
(-0.0151592 0.234024 0)
(-0.0100828 0.116359 0)
(-0.00357655 0.156315 0)
(0.00161908 0.155496 0)
(-0.00775032 0.154332 0)
(-0.00926827 0.149201 0)
(-0.0130166 0.144638 0)
(-0.0195373 0.137008 0)
(-0.0317987 0.123795 0)
(-0.05104 0.106151 0)
(-0.0767061 0.0877207 0)
(-0.105656 0.0685696 0)
(-0.130348 0.052001 0)
(-0.136773 0.0443645 0)
(-0.134678 0.0272817 0)
(-0.1584 0.0262942 0)
(-0.1814 0.0384131 0)
(-0.182087 0.0268705 0)
(-0.18471 -0.0169245 0)
(-0.202458 -0.0641342 0)
(-0.196323 -0.0965957 0)
(-0.170919 0.0434819 0)
(-0.0658425 0.375726 0)
(-0.0128578 0.245076 0)
(-0.0100058 0.114718 0)
(-0.00812252 0.150939 0)
(-0.00507761 0.157728 0)
(-0.0107684 0.156197 0)
(-0.0133965 0.152293 0)
(-0.0165489 0.149215 0)
(-0.0204314 0.144818 0)
(-0.0275063 0.135882 0)
(-0.0398157 0.12065 0)
(-0.0567614 0.102007 0)
(-0.0765305 0.085317 0)
(-0.0978575 0.07542 0)
(-0.116787 0.0728512 0)
(-0.136531 0.0673805 0)
(-0.163736 0.0609786 0)
(-0.183683 0.056774 0)
(-0.19086 0.0309468 0)
(-0.198673 -0.0161254 0)
(-0.211052 -0.0616064 0)
(-0.243086 -0.100756 0)
(-0.264777 -0.0316819 0)
(-0.230934 0.2876 0)
(-0.00936451 0.254916 0)
(-0.00918717 0.115131 0)
(-0.0103127 0.148878 0)
(-0.00968613 0.16035 0)
(-0.0137974 0.159021 0)
(-0.0170854 0.155321 0)
(-0.0208356 0.152303 0)
(-0.0246785 0.148665 0)
(-0.0298503 0.142222 0)
(-0.0382397 0.131633 0)
(-0.0510522 0.118425 0)
(-0.0688461 0.105087 0)
(-0.09039 0.0944801 0)
(-0.112589 0.087747 0)
(-0.135898 0.0833865 0)
(-0.162901 0.081685 0)
(-0.186385 0.0742451 0)
(-0.20594 0.0482061 0)
(-0.229252 0.00935327 0)
(-0.264088 -0.0275634 0)
(-0.335056 -0.0564463 0)
(-0.438748 0.0352365 0)
(-0.502872 0.358679 0)
(-0.00621909 0.263002 0)
(-0.008308 0.117056 0)
(-0.0110182 0.149032 0)
(-0.0123251 0.163239 0)
(-0.0162397 0.162637 0)
(-0.0202494 0.159358 0)
(-0.0248421 0.156449 0)
(-0.0296586 0.153311 0)
(-0.0352722 0.148793 0)
(-0.043185 0.141974 0)
(-0.0550462 0.133311 0)
(-0.0716101 0.124611 0)
(-0.0920327 0.118233 0)
(-0.115012 0.114513 0)
(-0.140132 0.111978 0)
(-0.16668 0.108832 0)
(-0.192787 0.0993167 0)
(-0.222477 0.0767051 0)
(-0.259925 0.049779 0)
(-0.311178 0.0346774 0)
(-0.401802 0.0440207 0)
(-0.521343 0.134681 0)
(-0.617953 0.374745 0)
(-0.00386255 0.269228 0)
(-0.00734563 0.120369 0)
(-0.0110787 0.151085 0)
(-0.0138353 0.166607 0)
(-0.0179413 0.166665 0)
(-0.0225425 0.16412 0)
(-0.0278809 0.161791 0)
(-0.0338602 0.15932 0)
(-0.0407774 0.156188 0)
(-0.04954 0.152039 0)
(-0.061376 0.147169 0)
(-0.0769884 0.142678 0)
(-0.096033 0.13963 0)
(-0.117728 0.138022 0)
(-0.141674 0.137216 0)
(-0.16747 0.136126 0)
(-0.196055 0.131131 0)
(-0.232404 0.117645 0)
(-0.278311 0.0996246 0)
(-0.332703 0.0934869 0)
(-0.408867 0.131038 0)
(-0.515648 0.24954 0)
(-0.619685 0.433917 0)
(-0.00227028 0.274099 0)
(-0.00651748 0.124411 0)
(-0.0108811 0.154425 0)
(-0.0146165 0.170559 0)
(-0.0189915 0.171142 0)
(-0.0239676 0.169378 0)
(-0.0297366 0.167899 0)
(-0.0364207 0.166411 0)
(-0.0442269 0.164713 0)
(-0.053649 0.162804 0)
(-0.0654257 0.160955 0)
(-0.0800686 0.159676 0)
(-0.0975018 0.1594 0)
(-0.117483 0.160166 0)
(-0.140197 0.161791 0)
(-0.166018 0.164267 0)
(-0.196471 0.166249 0)
(-0.23582 0.163422 0)
(-0.288418 0.15491 0)
(-0.35632 0.159247 0)
(-0.434526 0.218382 0)
(-0.510279 0.36267 0)
(-0.59795 0.563927 0)
(-0.00132402 0.278008 0)
(-0.00586841 0.128811 0)
(-0.0105811 0.158574 0)
(-0.0148845 0.17492 0)
(-0.0194394 0.175929 0)
(-0.0245824 0.174898 0)
(-0.0304713 0.174332 0)
(-0.0372947 0.173961 0)
(-0.0452768 0.173683 0)
(-0.0547146 0.173631 0)
(-0.0659907 0.174055 0)
(-0.0794373 0.175257 0)
(-0.0951988 0.177541 0)
(-0.11346 0.181088 0)
(-0.134757 0.186033 0)
(-0.159903 0.1928 0)
(-0.189814 0.201694 0)
(-0.226613 0.211416 0)
(-0.276384 0.219878 0)
(-0.346558 0.233838 0)
(-0.428416 0.286014 0)
(-0.491334 0.426316 0)
(-0.5385 0.669479 0)
(-0.000838289 0.281305 0)
(-0.00535274 0.133385 0)
(-0.0102456 0.163156 0)
(-0.014763 0.1795 0)
(-0.0193506 0.18084 0)
(-0.0244733 0.180448 0)
(-0.0302501 0.180712 0)
(-0.0368538 0.181383 0)
(-0.0444848 0.182373 0)
(-0.0533679 0.183853 0)
(-0.0637345 0.186062 0)
(-0.0758053 0.189283 0)
(-0.0897961 0.19383 0)
(-0.105987 0.200077 0)
(-0.124821 0.20846 0)
(-0.146993 0.219402 0)
(-0.173231 0.2334 0)
(-0.204446 0.251475 0)
(-0.243792 0.274954 0)
(-0.297999 0.306263 0)
(-0.367878 0.359014 0)
(-0.428256 0.47205 0)
(-0.445669 0.696978 0)
(-0.000622939 0.284244 0)
(-0.00492933 0.137946 0)
(-0.00984692 0.167877 0)
(-0.0143234 0.184086 0)
(-0.0188038 0.185677 0)
(-0.0237369 0.185839 0)
(-0.0292257 0.186812 0)
(-0.0353979 0.188354 0)
(-0.0424097 0.190406 0)
(-0.0504318 0.193134 0)
(-0.0596343 0.196782 0)
(-0.0701807 0.201642 0)
(-0.0822482 0.208058 0)
(-0.0960436 0.216463 0)
(-0.111803 0.227427 0)
(-0.129881 0.241599 0)
(-0.150822 0.259727 0)
(-0.175252 0.283149 0)
(-0.203897 0.314405 0)
(-0.238438 0.357106 0)
(-0.281317 0.41731 0)
(-0.323607 0.511329 0)
(-0.330306 0.674936 0)
(-0.000524612 0.286942 0)
(-0.00453449 0.14239 0)
(-0.00937285 0.172515 0)
(-0.0136231 0.188489 0)
(-0.0178608 0.190287 0)
(-0.0224533 0.190922 0)
(-0.0275211 0.192478 0)
(-0.0331297 0.194713 0)
(-0.0393809 0.197597 0)
(-0.0463965 0.2013 0)
(-0.0542963 0.206063 0)
(-0.0631854 0.21218 0)
(-0.073162 0.219996 0)
(-0.084326 0.229961 0)
(-0.0967639 0.242663 0)
(-0.110557 0.258837 0)
(-0.125813 0.279377 0)
(-0.142631 0.305512 0)
(-0.160844 0.339349 0)
(-0.179478 0.38458 0)
(-0.196958 0.446182 0)
(-0.209591 0.529989 0)
(-0.200837 0.645139 0)
(-0.000448296 0.289412 0)
(-0.00412301 0.146643 0)
(-0.00881317 0.176935 0)
(-0.0126871 0.192601 0)
(-0.0165747 0.194551 0)
(-0.0207307 0.195574 0)
(-0.0252638 0.197588 0)
(-0.0301989 0.200351 0)
(-0.0355977 0.203848 0)
(-0.041526 0.208254 0)
(-0.0480399 0.213802 0)
(-0.0551861 0.22077 0)
(-0.0629824 0.229489 0)
(-0.0714142 0.240387 0)
(-0.0804306 0.25402 0)
(-0.089908 0.271076 0)
(-0.0996061 0.292384 0)
(-0.10911 0.318962 0)
(-0.117723 0.35223 0)
(-0.123926 0.394601 0)
(-0.124299 0.449829 0)
(-0.113454 0.521313 0)
(-0.0838463 0.60856 0)
(-0.000346046 0.291628 0)
(-0.00365993 0.150663 0)
(-0.00814715 0.181038 0)
(-0.0115643 0.196338 0)
(-0.0150255 0.198375 0)
(-0.0186651 0.199695 0)
(-0.0225856 0.202049 0)
(-0.0267707 0.20518 0)
(-0.0312505 0.209085 0)
(-0.0360427 0.213935 0)
(-0.0411469 0.219946 0)
(-0.046546 0.227372 0)
(-0.0521884 0.236512 0)
(-0.0579677 0.247739 0)
(-0.0637108 0.261531 0)
(-0.0691408 0.278468 0)
(-0.0738179 0.29921 0)
(-0.0770648 0.324499 0)
(-0.0778772 0.355194 0)
(-0.0746683 0.392413 0)
(-0.064357 0.437935 0)
(-0.0415079 0.493816 0)
(0.000337727 0.558775 0)
(-0.000195945 0.293547 0)
(-0.00314992 0.154414 0)
(-0.00738169 0.184745 0)
(-0.0102877 0.199621 0)
(-0.0132775 0.201695 0)
(-0.0163533 0.203224 0)
(-0.0196183 0.205795 0)
(-0.023017 0.209144 0)
(-0.0265505 0.21327 0)
(-0.0302005 0.218328 0)
(-0.0339217 0.224514 0)
(-0.0376469 0.232048 0)
(-0.0412687 0.241184 0)
(-0.0446135 0.252227 0)
(-0.0474283 0.26555 0)
(-0.0493434 0.281594 0)
(-0.0498201 0.300823 0)
(-0.0480923 0.323694 0)
(-0.0430986 0.350651 0)
(-0.0333969 0.382038 0)
(-0.0166357 0.417899 0)
(0.0108291 0.459021 0)
(0.0547291 0.504278 0)
(7.54885e-06 0.295118 0)
(-0.00260054 0.157865 0)
(-0.00652336 0.188015 0)
(-0.00888845 0.202415 0)
(-0.0113879 0.204476 0)
(-0.0138836 0.206128 0)
(-0.0164787 0.208802 0)
(-0.0190894 0.212231 0)
(-0.021693 0.216408 0)
(-0.0242416 0.22147 0)
(-0.026659 0.227586 0)
(-0.028841 0.234936 0)
(-0.0306405 0.243725 0)
(-0.0318442 0.254183 0)
(-0.0321578 0.266577 0)
(-0.0311728 0.281209 0)
(-0.0283301 0.298365 0)
(-0.0228758 0.318239 0)
(-0.0138078 0.340958 0)
(-0.000125706 0.366427 0)
(0.0201344 0.394146 0)
(0.0491322 0.423516 0)
(0.0903876 0.453632 0)
(0.000255762 0.296293 0)
(-0.00201485 0.160986 0)
(-0.00557226 0.190825 0)
(-0.00739476 0.20471 0)
(-0.00940462 0.20671 0)
(-0.0113236 0.208408 0)
(-0.0132629 0.211083 0)
(-0.0151149 0.214467 0)
(-0.0168394 0.218547 0)
(-0.0183661 0.223442 0)
(-0.0195983 0.229286 0)
(-0.0204078 0.236222 0)
(-0.0206235 0.244402 0)
(-0.0200141 0.253986 0)
(-0.0182744 0.265144 0)
(-0.0150001 0.278053 0)
(-0.00967345 0.292863 0)
(-0.00161481 0.3095 0)
(0.0100139 0.328011 0)
(0.0261592 0.347977 0)
(0.0480597 0.368893 0)
(0.0767505 0.389373 0)
(0.114584 0.408646 0)
(0.000527911 0.297028 0)
(-0.00139202 0.163747 0)
(-0.00453534 0.193156 0)
(-0.00582776 0.206512 0)
(-0.00736471 0.208406 0)
(-0.00872595 0.21008 0)
(-0.0100434 0.212669 0)
(-0.0111886 0.215905 0)
(-0.01211 0.219769 0)
(-0.0127217 0.224357 0)
(-0.0129145 0.229773 0)
(-0.0125475 0.236124 0)
(-0.0114398 0.243512 0)
(-0.00935683 0.25203 0)
(-0.00600298 0.26177 0)
(-0.000996192 0.272785 0)
(0.00603885 0.285132 0)
(0.0158312 0.298695 0)
(0.0290479 0.313244 0)
(0.0462875 0.328388 0)
(0.0685078 0.343393 0)
(0.0961857 0.35706 0)
(0.130728 0.368603 0)
(0.000803001 0.297287 0)
(-0.000725309 0.166124 0)
(-0.00343826 0.194989 0)
(-0.00420898 0.207838 0)
(-0.0053014 0.209587 0)
(-0.00613169 0.211177 0)
(-0.00687229 0.21361 0)
(-0.00737584 0.216619 0)
(-0.00758529 0.220176 0)
(-0.00740546 0.224353 0)
(-0.00671861 0.229229 0)
(-0.00538229 0.234883 0)
(-0.00321875 0.241355 0)
(5.22331e-06 0.248683 0)
(0.00454266 0.25692 0)
(0.0107499 0.266045 0)
(0.0190203 0.275986 0)
(0.0298258 0.28669 0)
(0.0437116 0.297615 0)
(0.0611725 0.308506 0)
(0.0828676 0.318639 0)
(0.109079 0.326975 0)
(0.140531 0.3327 0)
(0.00109163 0.297029 0)
(8.25917e-07 0.168129 0)
(-0.00233775 0.196303 0)
(-0.00256508 0.208722 0)
(-0.00325457 0.210277 0)
(-0.00357932 0.21174 0)
(-0.00379221 0.213967 0)
(-0.00372311 0.216692 0)
(-0.00331583 0.21988 0)
(-0.00246973 0.223577 0)
(-0.00105769 0.227835 0)
(0.0010408 0.232706 0)
(0.00398488 0.238206 0)
(0.00804204 0.244337 0)
(0.0134484 0.251072 0)
(0.0204414 0.25837 0)
(0.0293826 0.266082 0)
(0.040608 0.274051 0)
(0.0545848 0.281849 0)
(0.0716775 0.289075 0)
(0.0922907 0.295145 0)
(0.116645 0.299227 0)
(0.145139 0.300523 0)
(0.00142466 0.296181 0)
(0.000783042 0.169828 0)
(-0.00129359 0.19708 0)
(-0.000922123 0.20922 0)
(-0.00128441 0.210487 0)
(-0.00111097 0.21181 0)
(-0.000848889 0.213801 0)
(-0.000272849 0.2162 0)
(0.000664583 0.218983 0)
(0.00205791 0.222173 0)
(0.00403924 0.225773 0)
(0.00673095 0.229836 0)
(0.0102828 0.234357 0)
(0.0149058 0.239321 0)
(0.0208164 0.244604 0)
(0.0282265 0.25016 0)
(0.0374185 0.255834 0)
(0.0486652 0.261372 0)
(0.0622933 0.266478 0)
(0.0785335 0.270605 0)
(0.0976906 0.273286 0)
(0.119952 0.273918 0)
(0.145515 0.271833 0)
(0.00188544 0.294666 0)
(0.00161489 0.171288 0)
(-0.000345463 0.197439 0)
(0.00068758 0.209269 0)
(0.00050784 0.210258 0)
(0.00122914 0.211435 0)
(0.00189466 0.213156 0)
(0.0029194 0.215231 0)
(0.00432813 0.217583 0)
(0.00617093 0.220243 0)
(0.00860703 0.22321 0)
(0.0117615 0.226483 0)
(0.0157401 0.230047 0)
(0.0207095 0.233849 0)
(0.0268859 0.237798 0)
(0.0344602 0.241771 0)
(0.0435804 0.245615 0)
(0.0545121 0.249075 0)
(0.0674929 0.251855 0)
(0.082601 0.253424 0)
(0.100063 0.25337 0)
(0.120039 0.251221 0)
(0.142624 0.246504 0)
(0.00254373 0.292334 0)
(0.00258982 0.172731 0)
(0.00042531 0.197478 0)
(0.00215445 0.208853 0)
(0.00213393 0.20963 0)
(0.00334652 0.210652 0)
(0.00436642 0.212094 0)
(0.00578842 0.213832 0)
(0.00757897 0.215755 0)
(0.00983138 0.217886 0)
(0.0126451 0.220239 0)
(0.0161406 0.222748 0)
(0.0204185 0.225414 0)
(0.0256278 0.228141 0)
(0.031923 0.230882 0)
(0.0394497 0.233443 0)
(0.0483433 0.235685 0)
(0.0587868 0.237384 0)
(0.0709218 0.238237 0)
(0.0847982 0.237757 0)
(0.100503 0.23555 0)
(0.118113 0.231217 0)
(0.137747 0.224499 0)
(0.00339925 0.289 0)
(0.00364509 0.174424 0)
(0.00107216 0.19725 0)
(0.00342095 0.20809 0)
(0.00351396 0.208644 0)
(0.00516555 0.209522 0)
(0.00644642 0.210673 0)
(0.00820312 0.212056 0)
(0.0103201 0.213562 0)
(0.0129039 0.215186 0)
(0.0160233 0.216923 0)
(0.0197968 0.218726 0)
(0.0242996 0.220549 0)
(0.0296606 0.222326 0)
(0.0359998 0.223959 0)
(0.0434157 0.225283 0)
(0.052015 0.226168 0)
(0.0619271 0.22639 0)
(0.0732303 0.225676 0)
(0.0859307 0.223618 0)
(0.100008 0.219772 0)
(0.115439 0.21383 0)
(0.132375 0.205684 0)
(0.00432414 0.284627 0)
(0.00467454 0.176289 0)
(0.00164317 0.196913 0)
(0.00442452 0.207058 0)
(0.0045741 0.207389 0)
(0.00656272 0.208115 0)
(0.00798698 0.208966 0)
(0.0100048 0.209998 0)
(0.0123537 0.21108 0)
(0.0151724 0.212203 0)
(0.0185169 0.21335 0)
(0.0224747 0.214478 0)
(0.0271315 0.215521 0)
(0.0325877 0.216431 0)
(0.0389049 0.217078 0)
(0.0461935 0.217333 0)
(0.0545281 0.217061 0)
(0.0639724 0.216055 0)
(0.0745661 0.214066 0)
(0.0862933 0.210772 0)
(0.0990767 0.205748 0)
(0.112785 0.198699 0)
(0.127577 0.189621 0)
(0.00522172 0.279301 0)
(0.00563079 0.178349 0)
(0.00208155 0.196619 0)
(0.00510806 0.205857 0)
(0.00521104 0.205979 0)
(0.00741563 0.206532 0)
(0.00884944 0.207092 0)
(0.0110013 0.207759 0)
(0.0134478 0.208413 0)
(0.016364 0.209037 0)
(0.0197924 0.209613 0)
(0.0238127 0.210089 0)
(0.028503 0.21042 0)
(0.0339369 0.210516 0)
(0.0401637 0.210275 0)
(0.0472811 0.209594 0)
(0.0553312 0.208307 0)
(0.0643503 0.206243 0)
(0.074362 0.203196 0)
(0.0853561 0.198899 0)
(0.0972239 0.193003 0)
(0.109756 0.185199 0)
(0.12312 0.175549 0)
(0.00611471 0.273069 0)
(0.00650592 0.180706 0)
(0.00233392 0.196513 0)
(0.00545043 0.204608 0)
(0.00536891 0.204545 0)
(0.00763537 0.204923 0)
(0.0089176 0.205177 0)
(0.0110448 0.205483 0)
(0.0134224 0.205707 0)
(0.0162594 0.205845 0)
(0.0195891 0.205867 0)
(0.0234885 0.205733 0)
(0.0280193 0.20538 0)
(0.0332422 0.204722 0)
(0.0392144 0.20366 0)
(0.046003 0.20211 0)
(0.0536403 0.199896 0)
(0.0621741 0.196897 0)
(0.0716091 0.192916 0)
(0.0819363 0.187747 0)
(0.0930693 0.181094 0)
(0.104774 0.172708 0)
(0.117247 0.162657 0)
(0.00702474 0.26595 0)
(0.00725138 0.183434 0)
(0.00243964 0.196743 0)
(0.00546909 0.203465 0)
(0.00505527 0.203237 0)
(0.0072139 0.203432 0)
(0.00819262 0.203378 0)
(0.0101433 0.203344 0)
(0.0122728 0.203157 0)
(0.01484 0.202829 0)
(0.0178701 0.202329 0)
(0.0214295 0.201618 0)
(0.0255667 0.200617 0)
(0.0303392 0.199257 0)
(0.035811 0.197433 0)
(0.0420216 0.195064 0)
(0.0490182 0.192001 0)
(0.056845 0.188143 0)
(0.0654972 0.183283 0)
(0.0749772 0.177284 0)
(0.0852443 0.169899 0)
(0.0960798 0.160948 0)
(0.107722 0.150499 0)
(0.00785698 0.258103 0)
(0.00773572 0.186551 0)
(0.00243801 0.197463 0)
(0.00521344 0.202641 0)
(0.00435262 0.202271 0)
(0.00627321 0.202265 0)
(0.00684155 0.201928 0)
(0.00849349 0.201571 0)
(0.0102187 0.201005 0)
(0.0123633 0.200249 0)
(0.0149231 0.199275 0)
(0.0179504 0.198031 0)
(0.0214939 0.196443 0)
(0.0256007 0.19444 0)
(0.0303263 0.191927 0)
(0.0357096 0.188807 0)
(0.0417997 0.184978 0)
(0.0486232 0.180309 0)
(0.0561911 0.17464 0)
(0.0645105 0.167844 0)
(0.0735653 0.159741 0)
(0.0831668 0.150174 0)
(0.0936009 0.139269 0)
(0.00845344 0.249852 0)
(0.00787234 0.189918 0)
(0.00231691 0.198625 0)
(0.00475882 0.202224 0)
(0.0034172 0.201738 0)
(0.00503184 0.201507 0)
(0.00513777 0.200901 0)
(0.00642056 0.200256 0)
(0.00767212 0.199343 0)
(0.00931214 0.198212 0)
(0.0113068 0.196816 0)
(0.0136985 0.195108 0)
(0.016533 0.193012 0)
(0.0198504 0.190453 0)
(0.0236905 0.187336 0)
(0.0280925 0.183573 0)
(0.0330954 0.17907 0)
(0.0387189 0.173694 0)
(0.0449785 0.167325 0)
(0.0518772 0.159816 0)
(0.0594094 0.15104 0)
(0.0674093 0.140863 0)
(0.0761783 0.129495 0)
(0.00874248 0.241478 0)
(0.00765322 0.193332 0)
(0.00206068 0.200032 0)
(0.00418343 0.202116 0)
(0.0024095 0.201557 0)
(0.00369276 0.201042 0)
(0.00337763 0.200229 0)
(0.00429049 0.19931 0)
(0.00505252 0.198109 0)
(0.00619765 0.196671 0)
(0.00762929 0.194924 0)
(0.00938886 0.192827 0)
(0.0115162 0.190311 0)
(0.0140378 0.187295 0)
(0.0169867 0.183683 0)
(0.0203997 0.179392 0)
(0.0242991 0.174324 0)
(0.0287081 0.168366 0)
(0.0336182 0.161413 0)
(0.0390315 0.153324 0)
(0.0449763 0.144006 0)
(0.0512704 0.133291 0)
(0.0581932 0.121547 0)
(0.00864154 0.233206 0)
(0.00707229 0.196682 0)
(0.00173818 0.201528 0)
(0.00354922 0.202195 0)
(0.00146268 0.201633 0)
(0.00246434 0.200804 0)
(0.00182253 0.199823 0)
(0.00238646 0.198647 0)
(0.00276207 0.197224 0)
(0.00347492 0.195526 0)
(0.00440121 0.193496 0)
(0.00559996 0.191085 0)
(0.00709665 0.188225 0)
(0.00890727 0.184832 0)
(0.011057 0.180824 0)
(0.0135714 0.17611 0)
(0.0164677 0.1706 0)
(0.0197738 0.164189 0)
(0.0234651 0.156761 0)
(0.0275592 0.148242 0)
(0.032033 0.138504 0)
(0.0367538 0.127392 0)
(0.0419893 0.115353 0)
(0.00794114 0.225711 0)
(0.00603617 0.200003 0)
(0.00138881 0.203243 0)
(0.00290252 0.202679 0)
(0.000744073 0.202135 0)
(0.00147382 0.201015 0)
(0.000653673 0.199869 0)
(0.000968058 0.198477 0)
(0.00104566 0.196867 0)
(0.00141621 0.194938 0)
(0.00195372 0.192672 0)
(0.00269675 0.190007 0)
(0.00366718 0.18687 0)
(0.00488592 0.183176 0)
(0.00636605 0.178849 0)
(0.00812374 0.1738 0)
(0.0101717 0.167948 0)
(0.0125112 0.161198 0)
(0.015152 0.15342 0)
(0.0180982 0.144576 0)