/*--------------------------------*- C++ -*----------------------------------*\
| =========                 |                                                 |
| \\      /  F ield         | OpenFOAM: The Open Source CFD Toolbox           |
|  \\    /   O peration     | Version:  2206                                  |
|   \\  /    A nd           | Website:  www.openfoam.com                      |
|    \\/     M anipulation  |                                                 |
\*---------------------------------------------------------------------------*/
FoamFile
{
    version     2.0;
    format      ascii;
    arch        "LSB;label=32;scalar=64";
    class       volScalarField;
    location    "0.55";
    object      p_rgh;
}
// * * * * * * * * * * * * * * * * * * * * * * * * * * * * * * * * * * * * * //

dimensions      [1 -1 -2 0 0 0 0];

internalField   nonuniform List<scalar> 
2268
(
604.206
600.845
601.501
606.3
616.249
628.735
640.784
651.353
662.008
674.598
689.908
707.804
727.831
749.599
772.699
796.529
820.004
841.026
856.619
864.891
857.276
862.461
900.451
604.123
599.999
600.261
604.828
614.692
627.457
639.778
650.496
661.234
673.91
689.23
707.05
727.033
748.775
771.811
795.597
819.295
841.217
858.625
868.051
853.883
849.564
895.158
603.544
598.66
598.215
601.986
611.683
624.933
637.805
648.827
659.724
672.576
688.096
706.11
726.211
747.996
770.935
794.41
817.535
839.431
857.764
872.854
852.104
840.137
892.966
603.172
597.194
595.391
597.851
607.276
621.164
634.939
646.454
657.589
670.684
686.463
704.698
724.965
746.892
769.933
793.394
816.379
838.079
856.512
871.1
853.793
846.513
900.454
603.707
595.991
592.114
592.815
601.535
616.352
631.357
643.497
654.921
668.323
684.414
702.904
723.39
745.564
768.86
792.528
815.737
837.611
856.46
871.614
875.81
877.907
915.69
605.487
596.171
589.004
587.72
595.935
611.618
627.554
640.122
651.773
665.497
681.988
700.748
721.468
743.998
767.709
791.758
815.403
837.785
857.483
873.915
886.114
895.351
929.634
608.839
598.005
586.521
583.34
591.853
607.954
623.755
636.238
648.118
662.186
679.097
698.328
719.387
742.359
766.583
791.108
815.314
838.387
859.035
876.722
891.672
904.826
931.699
613.548
602.142
582.931
576.023
585.983
603.22
618.693
630.844
643.381
658.283
675.641
695.256
716.488
740.114
765.244
790.507
815.582
839.581
861.135
879.846
895.731
911.074
926.662
919.864
946.833
892.228
687.212
637.813
621.406
561.424
349.077
245.976
238.383
244.08
249.277
262.52
284.643
301.318
368.08
701.049
1206.5
1174.88
918.813
943.293
851.895
647.068
633.723
596.371
370.997
231.946
214.682
210.092
207.597
211.634
223.311
237.598
255.168
300.537
567.397
1110.6
1162.08
883.339
970.892
866.628
614.117
637.173
528.083
249.002
218.44
213.339
210.307
207.749
206.356
207.144
210.093
213.561
224.834
323.892
827.966
1125.55
843.736
873.494
835.6
578.673
641.763
380.65
225.287
216.665
213.112
210.053
207.376
206.11
206.976
209.704
212.865
219.176
257.16
500.081
1073.11
750.972
773.827
824.064
594.004
653.152
282.772
217.438
216.435
212.991
209.727
206.87
205.568
206.473
209.259
212.571
217.47
234.828
334.444
1009.65
703.084
723.983
815.863
756.45
661.997
234.796
214.345
216.05
212.546
209.107
206.075
204.673
205.592
208.602
212.324
216.672
224.742
271.444
931.198
644.762
709.103
813.221
755.021
581.269
226.381
214.294
215.251
211.717
208.063
204.801
203.194
204.085
207.463
211.799
216.095
220.849
244.41
833.738
572.011
724.968
825.858
735.546
483.865
216.781
214.426
214.086
210.53
206.588
203.046
201.133
201.854
205.528
210.493
215.262
219.769
232.651
743.208
611.126
557.403
462.294
400.372
424.375
482.741
540.732
577.3
609.104
640.964
668.422
690.747
712.453
737.42
763.709
789.769
816.015
841.62
864.695
884.968
899.631
904.635
871.451
213.073
107.6
24.1119
18.6549
59.5724
115.952
145.282
166.096
204.225
266.746
351.385
449.519
559.849
671.511
760.119
788.419
818.427
847.104
871.915
895.611
918.317
936.966
955.93
0.79848
0.75223
0.772825
0.773972
0.786291
0.785399
0.787697
0.790726
0.799308
0.823636
0.890781
7.36966
52.3237
124.054
248.483
417.391
630.432
837.471
881.205
907.063
929.752
944.348
954.658
0.803517
0.783039
0.788429
0.744428
0.712706
0.729265
0.72484
0.722761
0.732486
0.756325
0.765973
0.743765
0.670506
0.630159
0.777316
17.0277
50.7862
157.918
338.928
577.23
806.145
904.09
930.607
0.785026
0.776675
0.767561
0.746755
0.743774
0.735273
0.725318
0.718102
0.711176
0.696973
0.679797
0.654881
0.623555
0.622706
0.656382
0.734197
0.813777
0.849591
0.955702
3.31928
48.2148
126.504
208.505
0.739363
0.736311
0.731056
0.720024
0.709059
0.708554
0.706307
0.70338
0.703288
0.709141
0.703988
0.686721
0.656982
0.643604
0.685655
0.759304
0.796143
0.777311
0.831584
0.856459
0.829813
0.912309
0.982125
0.722766
0.717261
0.714027
0.704303
0.69637
0.691136
0.686462
0.681413
0.675558
0.665847
0.660137
0.654651
0.649294
0.657631
0.684797
0.765252
0.755968
0.770104
0.821314
0.849643
0.829001
0.849051
0.879227
0.691723
0.688677
0.684182
0.676762
0.674494
0.67136
0.668129
0.665401
0.664136
0.666693
0.660265
0.654226
0.650133
0.655216
0.662018
0.677866
0.703422
0.722907
0.795417
1.03341
1.096
1.0888
0.960537
0.664825
0.663532
0.661528
0.658504
0.654361
0.651239
0.648414
0.645643
0.642629
0.638026
0.6389
0.63957
0.641514
0.648423
0.657526
0.667604
0.682432
0.695115
0.762071
1.02761
1.14079
1.09774
0.926228
0.639698
0.639204
0.638038
0.635653
0.633146
0.630782
0.62863
0.626672
0.624949
0.623661
0.623567
0.624962
0.627039
0.633415
0.641155
0.65072
0.661656
0.671351
0.690031
0.667584
1.02249
1.09053
0.860024
0.615861
0.615746
0.615053
0.613446
0.61174
0.610063
0.60856
0.607323
0.606475
0.606286
0.607051
0.60903
0.61237
0.617953
0.624932
0.632866
0.641411
0.649188
0.653014
0.648897
0.648379
1.0657
1.09339
0.592928
0.592949
0.592511
0.591458
0.590299
0.589158
0.588182
0.587496
0.587209
0.587719
0.589015
0.59134
0.594869
0.599828
0.605984
0.612954
0.620403
0.627564
0.632397
0.631152
0.617238
0.632186
1.14092
0.570555
0.570612
0.570311
0.569622
0.56884
0.56809
0.567504
0.567218
0.567371
0.568114
0.569601
0.571968
0.575323
0.579753
0.585154
0.591297
0.597976
0.604751
0.610421
0.611926
0.604515
0.588183
0.580723
0.548536
0.548574
0.548344
0.547878
0.547344
0.546852
0.546516
0.546467
0.546863
0.547601
0.549025
0.551192
0.554168
0.557991
0.562607
0.567902
0.573739
0.579871
0.585692
0.589409
0.588523
0.583495
0.579442
0.526724
0.526722
0.526523
0.526183
0.525794
0.525444
0.525224
0.525235
0.525573
0.526282
0.527504
0.529309
0.531748
0.534841
0.538557
0.542829
0.547539
0.55251
0.557417
0.561424
0.563741
0.565113
0.56772
0.505024
0.504984
0.504794
0.504512
0.504186
0.503884
0.503677
0.503639
0.503844
0.504353
0.505236
0.506549
0.508325
0.510566
0.513242
0.516294
0.519629
0.523107
0.526454
0.529145
0.530691
0.531722
0.532731
0.483392
0.483326
0.483142
0.482858
0.48253
0.482203
0.481928
0.481758
0.481748
0.481946
0.482392
0.483117
0.484133
0.485427
0.486963
0.488671
0.490453
0.49218
0.493644
0.494603
0.494121
0.492899
0.491204
0.461819
0.461729
0.461522
0.461216
0.460845
0.460439
0.460035
0.459669
0.459378
0.459191
0.459127
0.459196
0.459392
0.459681
0.460008
0.460288
0.460405
0.460196
0.459387
0.457535
0.454954
0.450791
0.444875
0.440311
0.440202
0.439965
0.439609
0.43916
0.438636
0.438059
0.437451
0.436833
0.436216
0.435601
0.434976
0.434316
0.433575
0.432675
0.431512
0.429949
0.427801
0.424829
0.420712
0.415222
0.407853
0.398071
0.418887
0.418761
0.418487
0.418063
0.417513
0.416843
0.416065
0.415187
0.414215
0.413143
0.411958
0.410634
0.409123
0.407363
0.405261
0.402694
0.399507
0.395503
0.390428
0.383964
0.375756
0.365366
0.352227
0.39757
0.397429
0.397114
0.39661
0.395943
0.395112
0.394117
0.392955
0.391621
0.390095
0.388348
0.386339
0.384007
0.381272
0.378026
0.374131
0.369416
0.36367
0.356633
0.347985
0.337346
0.324292
0.308295
0.376388
0.376233
0.375874
0.375284
0.374496
0.373497
0.372282
0.370838
0.369148
0.367181
0.364899
0.362244
0.359142
0.355502
0.351201
0.346091
0.339988
0.332673
0.323882
0.3133
0.300554
0.285234
0.266863
0.355368
0.355204
0.3548
0.354124
0.353215
0.352051
0.350623
0.348909
0.346882
0.344505
0.341729
0.338483
0.334685
0.330231
0.324991
0.318806
0.311486
0.302809
0.29251
0.28028
0.265763
0.24857
0.228262
0.33454
0.334369
0.333925
0.333166
0.332144
0.330827
0.329203
0.327242
0.32491
0.322163
0.318945
0.315178
0.31077
0.30561
0.299563
0.292463
0.284118
0.274307
0.262766
0.249192
0.233246
0.214564
0.19273
0.313935
0.313759
0.313283
0.31245
0.311325
0.309874
0.308077
0.3059
0.303302
0.300237
0.29664
0.29243
0.287509
0.281763
0.275052
0.26721
0.258044
0.247335
0.234825
0.220221
0.203197
0.183409
0.160457
0.293582
0.2934
0.292903
0.292008
0.290797
0.289232
0.28729
0.284933
0.282116
0.278788
0.274883
0.270316
0.264988
0.258782
0.251558
0.243152
0.233374
0.222008
0.208807
0.193486
0.175737
0.15523
0.131576
0.273512
0.273316
0.272817
0.271867
0.270591
0.268936
0.26688
0.264381
0.261395
0.257867
0.253729
0.248895
0.243269
0.236733
0.22915
0.220359
0.210176
0.198394
0.184776
0.169052
0.150928
0.13009
0.10616
0.253766
0.253524
0.253053
0.252056
0.250738
0.249018
0.246881
0.244282
0.241177
0.237512
0.233217
0.22821
0.222394
0.215658
0.207865
0.198863
0.188477
0.176512
0.162743
0.146918
0.128762
0.107978
0.0842064
0.234383
0.234045
0.233636
0.232597
0.23126
0.229501
0.227315
0.224659
0.221488
0.217749
0.213373
0.208282
0.202385
0.19557
0.187713
0.178666
0.168268
0.156338
0.142669
0.127029
0.109165
0.0888053
0.0656141
0.215359
0.214926
0.214577
0.213503
0.212171
0.210397
0.208196
0.205525
0.202341
0.19859
0.194208
0.189121
0.183242
0.176467
0.168677
0.15974
0.149507
0.137815
0.124476
0.109282
0.0920048
0.0724048
0.0501855
0.196668
0.196196
0.195878
0.194783
0.193477
0.19171
0.189529
0.186885
0.183739
0.180038
0.175722
0.170721
0.164955
0.158327
0.150729
0.142043
0.132136
0.120861
0.108054
0.0935339
0.0770993
0.0585481
0.0376396
0.178318
0.177837
0.177537
0.176437
0.175173
0.173437
0.171311
0.168737
0.165679
0.162086
0.157903
0.153066
0.147499
0.141119
0.133829
0.125523
0.116083
0.105381
0.0932769
0.0796198
0.0642419
0.0469766
0.0276471
0.160309
0.159837
0.159545
0.158453
0.157246
0.155568
0.15353
0.151067
0.148143
0.144713
0.140726
0.136126
0.130844
0.124805
0.117927
0.110114
0.101266
0.0912704
0.0800129
0.0673727
0.0532191
0.037419
0.0198605
0.142611
0.142174
0.141874
0.14081
0.139675
0.138079
0.136163
0.133845
0.131099
0.127884
0.124155
0.11986
0.11494
0.109329
0.102954
0.0957349
0.0875832
0.0784086
0.0681201
0.0566209
0.0438141
0.0296044
0.0139358
0.125189
0.124812
0.124492
0.123475
0.122431
0.120941
0.119178
0.117041
0.114516
0.111566
0.10815
0.104223
0.0997324
0.0946225
0.088831
0.0822903
0.0749269
0.066669
0.0574431
0.0471794
0.0358077
0.0232669
0.00954667
0.108027
0.107751
0.107339
0.10642
0.105492
0.104134
0.102553
0.100632
0.0983674
0.0957262
0.0926725
0.0891662
0.0851639
0.0806189
0.0754794
0.0696888
0.0631889
0.0559216
0.0478301
0.0388673
0.0289882
0.0181579
0.00639475
0.091079
0.0908729
0.0904529
0.0896329
0.0888288
0.0876262
0.0862537
0.0845782
0.0826086
0.0803127
0.0776618
0.0746227
0.0711594
0.0672337
0.0628029
0.0578211
0.0522423
0.046022
0.0391182
0.0314983
0.0231394
0.0140271
0.00419752
0.0742871
0.0741376
0.073747
0.0730466
0.0723755
0.0713531
0.0702056
0.068803
0.0671562
0.0652382
0.0630252
0.0604917
0.0576096
0.0543477
0.0506706
0.0465417
0.0419252
0.0367902
0.0311097
0.02486
0.0180301
0.0106228
0.00268284
0.0575925
0.057497
0.0571657
0.0566019
0.0560792
0.0552532
0.0543516
0.0532392
0.0519374
0.0504223
0.0486755
0.0466778
0.0444078
0.0418402
0.0389482
0.0357052
0.0320852
0.0280638
0.0236252
0.0187579
0.0134579
0.00772807
0.00162562
0.0410029
0.0409597
0.0407113
0.0402959
0.0399293
0.0393211
0.0386718
0.037868
0.0369267
0.035828
0.0345645
0.0331239
0.031488
0.0296374
0.0275539
0.0252198
0.0226185
0.0197333
0.016549
0.0130664
0.00928357
0.00520964
0.000888239
0.0245386
0.0245313
0.0243769
0.0241219
0.0239045
0.0235311
0.0231414
0.0226544
0.0220849
0.0214191
0.020653
0.0197815
0.0187935
0.0176777
0.0164225
0.0150151
0.0134459
0.0117067
0.00979001
0.00769675
0.00542542
0.0029862
0.000405692
0.00815578
0.0081682
0.00811139
0.00802396
0.00795275
0.00782146
0.00769759
0.00753045
0.00734119
0.00711893
0.00686209
0.00656879
0.00623672
0.00586353
0.00544574
0.0049769
0.0044518
0.00386924
0.00322909
0.0025308
0.00177278
0.000959657
9.95166e-05
772.502
783.115
812.196
806.576
957.471
955.171
951.216
948.863
958.213
961.41
967.571
976.157
949.253
967.11
994.496
1023.01
276.437
342.203
437.409
566.558
0.896809
0.80607
0.84765
1.42754
0.79984
0.784029
0.7101
0.692957
0.888831
0.866239
0.841838
0.803417
0.849982
0.828952
0.739232
0.829386
0.655658
0.653431
0.700336
0.814851
0.813951
0.706683
0.745033
0.831422
1.21623
1.23447
1.26751
1.103
1.06599
1.02431
0.607507
0.665894
0.579791
0.584449
0.594195
0.606892
0.571832
0.576476
0.582407
0.58772
0.534573
0.535355
0.535565
0.535034
0.488903
0.486556
0.482886
0.477484
0.438362
0.433146
0.42662
0.41847
0.388268
0.380833
0.372033
0.361704
0.339814
0.330732
0.320345
0.308515
0.293765
0.283377
0.27177
0.258837
0.250615
0.239179
0.226599
0.21278
0.210617
0.19833
0.184963
0.170425
0.173978
0.161011
0.14701
0.131889
0.140887
0.127414
0.112942
0.0973872
0.111505
0.0977248
0.0829729
0.0671686
0.0859326
0.0720735
0.0572704
0.0414491
0.0641819
0.0504851
0.0358845
0.0203136
0.0461504
0.032861
0.0187247
0.00368366
0.0316206
0.0189727
0.00555364
-0.0086851
0.0202719
0.00847356
-0.00400287
-0.0171928
0.0117092
0.00092117
-0.0104403
-0.0223923
0.00550515
-0.00416863
-0.0143068
-0.0249131
0.00124251
-0.00726593
-0.0161331
-0.0253591
-0.00146161
-0.00879959
-0.0164041
-0.0242765
-0.00295354
-0.00915209
-0.0155379
-0.0221073
-0.00355315
-0.00867162
-0.013921
-0.0193009
-0.00353581
-0.00762879
-0.0118103
-0.0160834
-0.00312454
-0.00624334
-0.00941746
-0.0126513
-0.00246102
-0.00465421
-0.00687503
-0.00912838
-0.0015875
-0.00288959
-0.00420237
-0.00552991
-0.000563238
-0.000996936
-0.00143126
-0.00186769
755.966
810.803
864.058
686.715
388.847
211.243
213.63
211.729
208.158
203.853
200.016
197.528
197.654
201.535
207.337
213.206
218.531
220.606
690.016
932.548
929.324
944.102
636.463
357.301
209.261
210.802
208.31
204.884
200.389
196.356
193.115
192.167
196.285
203.189
210.068
215.855
212.772
777.709
989.705
1005.38
1025.75
607.973
229.464
220.137
209.567
206.972
203.429
199.15
194.986
192.093
190.978
193.921
202.338
209.49
213.93
274.552
914.448
1045.28
1072.25
1112.86
678.49
212.445
222.439
220.6
209.671
204.308
200.519
197.116
195.001
195.703
198.129
205.847
212.859
217.224
454.618
1082.89
794.267
1081.52
1173.33
955.868
218.657
237.198
234.22
217.889
209.049
204.652
202.01
202.315
203.814
206.793
212.485
219.182
227.263
653.887
1253.09
118.012
502.805
1173.71
1189.41
261.669
254.735
242.702
224.177
214.228
210.681
210.981
212.683
215.352
217.081
219.92
226.369
240.001
881.5
1421.3
0.561355
1.20967
470.426
1227.32
1341.8
821.667
243.685
226.457
217.461
215.923
217.171
219.883
222.997
224.5
226.034
239.993
296.833
1256.81
1607.51
0.880735
1.12439
1.04506
353.869
1337.19
1423.9
1047.17
522.152
213.88
216.648
220.53
225.111
228.052
228.457
297.013
787.135
1267.33
1682.83
1842.39
0.975279
1.14859
1.26829
1.3165
195.718
1042.99
1229.14
1266.64
1040.1
561.946
220.501
230.295
231.42
255.407
1163.58
1709.12
1762.7
1893.1
2085.62
1.02234
1.18266
1.32354
1.41846
1.34239
59.2993
513.606
1064.01
1170.07
1210.99
866.494
805.689
1047.57
1511.24
1656.28
1643.68
1540.02
1792.46
2197.89
1.00446
1.42266
1.70846
1.46093
1.28385
0.724996
0.333145
105.25
493.895
836.741
1310.48
1614.4
1722.09
1664.92
925.659
629.255
653.983
943.382
2066.76
1.47901
1.60513
1.48326
1.33237
1.23048
2.03925
5.44758
0.955473
10.1414
187.106
719.572
1434.13
1767.04
1628.34
917.31
653.878
617.807
1017.27
2103.25
0.768337
0.814309
0.869997
0.948045
1.03963
0.913132
-0.36468
-0.955538
-0.8165
2.40445
396.862
1117.16
1394.46
1667.12
1877.52
1891.81
1414.86
1779.84
2174.03
0.63404
0.672622
0.692969
0.651511
0.41571
-0.252151
-0.883542
-0.922015
-0.207035
1.63635
1.12631
1.91477
5.16081
467.335
1748.87
2200.71
2230.48
2240.08
2251.69
0.593744
0.59455
0.574765
0.491293
0.254202
-0.129932
-0.45116
-0.494115
-0.241608
1.75844
2.49785
1.33395
1.7161
4.01851
263.087
2060.33
2309.21
2313.9
2083.35
0.532688
0.515048
0.473435
0.391589
0.239004
0.023811
-0.17029
-0.242376
-0.191132
0.549628
2.67134
1.22204
1.29162
1.92509
40.9799
1084.57
2323.09
2339.26
1989.85
0.465831
0.436804
0.387119
0.310606
0.201177
0.0683296
-0.0479977
-0.0939526
-0.0346929
0.125448
0.539497
0.794282
1.17307
1.64613
62.4658
330.566
1338.5
2358.44
2048.38
0.401904
0.366438
0.314976
0.245757
0.160331
0.0695495
-0.00269052
-0.024764
0.0322547
0.17732
0.422808
0.735772
1.01948
2.47504
39.1808
63.6357
560.812
2170.69
2371.18
0.341833
0.303433
0.252625
0.190367
0.120613
0.0528551
0.0022585
-0.0137497
0.0231868
0.130629
0.311052
0.522945
1.24089
66.4727
149.715
136.534
410.992
1976.38
2485.91
0.286321
0.246277
0.196492
0.138881
0.0778398
0.0205887
-0.0236412
-0.0457988
-0.0378194
0.0111366
0.106079
0.224912
0.649472
159.676
690.014
717.38
504.571
813.318
1606.42
0.235016
0.193828
0.144555
0.0891682
0.0315783
-0.0231078
-0.0703983
-0.107463
-0.133038
-0.148089
-0.157486
-0.22796
0.0132636
170.285
759.747
781.222
824.802
533.715
563.5
0.187645
0.14541
0.0959902
0.0409912
-0.0166785
-0.0739192
-0.129169
-0.186536
-0.24907
-0.332198
-0.473377
-0.75105
-1.2176
-1.94952
80.7786
573.078
864.846
929.658
600.472
0.14419
0.100861
0.0507449
-0.00505802
-0.0647572
-0.127497
-0.193659
-0.269198
-0.367675
-0.507364
-0.728379
-1.12081
-1.60898
-2.38926
-2.29259
-1.02856
265.411
1007.15
1042.66
0.104746
0.0603275
0.0091519
-0.0482104
-0.110365
-0.179108
-0.257988
-0.352466
-0.473618
-0.645236
-0.904081
-1.31511
-1.76282
-2.25529
-2.31916
-2.04054
-0.578997
283.251
1057.82
0.0695478
0.0241727
-0.0282537
-0.0879614
-0.151371
-0.228605
-0.319673
-0.429551
-0.565864
-0.749352
-1.01259
-1.41112
-1.72517
-2.00773
-2.30872
-2.11307
-1.69457
26.7259
1087.6
0.0389323
-0.00702854
-0.0604335
-0.122748
-0.186211
-0.273274
-0.374744
-0.495281
-0.641666
-0.818828
-1.05211
-1.38129
-1.66542
-1.81963
-2.24632
-2.07521
-1.69381
39.5861
1119.74
0.0132185
-0.032641
-0.0858712
-0.147667
-0.216978
-0.307857
-0.419728
-0.549922
-0.699119
-0.858231
-1.04111
-1.28193
-1.51979
-1.51986
-1.96636
-1.92253
-1.60443
-1.03294
1007.05
-0.00743633
-0.0523957
-0.104453
-0.165163
-0.239815
-0.328187
-0.446569
-0.585444
-0.735879
-0.868693
-0.997959
-1.14594
-1.25659
-1.16103
-1.56286
-1.64138
-1.44027
7.87585
233.901
-0.0230759
-0.0662353
-0.115975
-0.174088
-0.245997
-0.335235
-0.448074
-0.584818
-0.741756
-0.844145
-0.919987
-0.987163
-0.957073
-1.1517
-1.19092
-1.32682
-1.20199
28.8547
231.808
-0.0339563
-0.074433
-0.120793
-0.174603
-0.240157
-0.321586
-0.423544
-0.551669
-0.68783
-0.771624
-0.808121
-0.821198
-0.783919
-0.931387
-0.953634
-1.06732
-0.772714
40.8481
592.431
-0.0405239
-0.0775274
-0.119439
-0.16724
-0.223137
-0.290245
-0.368124
-0.470003
-0.580531
-0.646309
-0.660061
-0.650653
-0.681348
-0.755634
-0.853202
-0.827302
26.2591
46.8456
614.889
-0.0434344
-0.0764095
-0.113041
-0.153647
-0.198014
-0.244455
-0.300484
-0.371794
-0.445204
-0.490772
-0.504846
-0.515716
-0.569411
-0.662545
-0.725914
9.0825
68.5661
33.119
636.996
-0.0434753
-0.072216
-0.103527
-0.137187
-0.172405
-0.207541
-0.233331
-0.267075
-0.323973
-0.362871
-0.393426
-0.423411
-0.476862
-0.550807
-0.588558
56.348
71.4409
19.8251
649.356
-0.0413993
-0.0659283
-0.0923184
-0.119706
-0.147509
-0.172953
-0.190544
-0.192477
-0.221111
-0.265965
-0.306985
-0.354588
-0.378357
-0.40121
3.55199
71.4912
73.2638
17.5924
629.565
-0.0378835
-0.0584095
-0.0805629
-0.10237
-0.123861
-0.143147
-0.158624
-0.161696
-0.163967
-0.188095
-0.218326
-0.259501
-0.263062
-0.257162
18.372
72.0917
63.5281
14.9966
644.739
-0.033367
-0.0497241
-0.0690106
-0.0856227
-0.101954
-0.116528
-0.128194
-0.138298
-0.138409
-0.14984
-0.166587
-0.17677
-0.172277
-0.151973
-0.153329
66.7193
34.1051
13.6172
680.597
-0.028488
-0.0417567
-0.0566322
-0.0694817
-0.0816563
-0.0920578
-0.100179
-0.107317
-0.113654
-0.12027
-0.12412
-0.117078
-0.113352
-0.0992834
-0.083369
8.86739
18.8167
13.2007
752.966
-0.023353
-0.0335488
-0.044955
-0.0543848
-0.0630181
-0.0701263
-0.0740331
-0.0786667
-0.0829249
-0.0861549
-0.0885738
-0.0757192
0.0198536
-0.0266671
-0.106253
-0.225743
3.42517
13.6415
810.759
-0.0181366
-0.0255389
-0.0339713
-0.0404826
-0.0461167
-0.0509632
-0.0510141
-0.0536278
-0.055684
-0.0568008
-0.0574626
0.135241
0.206334
0.0162752
-0.101234
-0.247019
2.775
2.79317
756.511
-0.0129498
-0.0179457
-0.0236743
-0.0277891
-0.0310267
-0.0341719
-0.0320668
-0.0333071
-0.0332721
-0.0312304
-0.0164388
0.274795
0.25459
-0.0293101
-0.0966428
-0.166756
4.12142
48.1839
747.938
-0.00778115
-0.0106635
-0.013918
-0.0161142
-0.0176481
-0.0190968
-0.0167232
-0.0161592
-0.0132608
-0.0101827
-0.0260266
0.191408
0.0378198
-0.0891879
-0.133974
0.0124069
0.571328
0.878556
513.451
-0.00260999
-0.00353549
-0.0045692
-0.00521259
-0.00568731
-0.00602041
-0.00608683
-0.00431823
-0.0192476
-0.00117265
-0.0775873
0.0957635
0.0576191
-0.221546
-0.258868
-0.239987
-0.691868
-0.932932
21.0358
)
;

boundaryField
{
    leftWall
    {
        type            fixedFluxPressure;
        gradient        uniform 0;
        value           nonuniform List<scalar> 
50
(
604.206
604.123
603.544
603.172
603.707
605.487
608.839
613.548
611.126
213.073
0.79848
0.803517
0.785026
0.739363
0.722766
0.691723
0.664825
0.639698
0.615861
0.592928
0.570555
0.548536
0.526724
0.505024
0.483392
0.461819
0.440311
0.418887
0.39757
0.376388
0.355368
0.33454
0.313935
0.293582
0.273512
0.253766
0.234383
0.215359
0.196668
0.178318
0.160309
0.142611
0.125189
0.108027
0.091079
0.0742871
0.0575925
0.0410029
0.0245386
0.00815578
)
;
    }
    rightWall
    {
        type            fixedFluxPressure;
        gradient        uniform 0;
        value           nonuniform List<scalar> 
50
(
1174.88
1162.08
1125.55
1073.11
1009.65
931.198
833.738
743.208
690.016
777.709
914.448
1082.89
1253.09
1421.3
1607.51
1842.39
2085.62
2197.89
2066.76
2103.25
2174.03
2251.69
2083.35
1989.85
2048.38
2371.18
2485.91
1606.42
563.5
600.472
1042.66
1057.82
1087.6
1119.74
1007.05
233.901
231.808
592.431
614.889
636.996
649.356
629.565
644.739
680.597
752.966
810.759
756.511
747.938
513.451
21.0358
)
;
    }
    lowerWall
    {
        type            fixedFluxPressure;
        gradient        uniform 0;
        value           nonuniform List<scalar> 
62
(
604.206
600.845
601.501
606.3
616.249
628.735
640.784
651.353
662.008
674.598
689.908
707.804
727.831
749.599
772.699
796.529
820.004
841.026
856.619
864.891
857.276
862.461
900.451
900.451
895.158
892.966
900.454
915.69
929.634
931.699
926.662
772.502
783.115
812.196
806.576
919.864
918.813
883.339
843.736
750.972
703.084
644.762
572.011
919.864
946.833
892.228
687.212
637.813
621.406
561.424
349.077
245.976
238.383
244.08
249.277
262.52
284.643
301.318
368.08
701.049
1206.5
1174.88
)
;
    }
    atmosphere
    {
        type            totalPressure;
        rho             rho;
        psi             none;
        gamma           1;
        p0              uniform 0;
        value           nonuniform List<scalar> 
46
(
0
0
0
0
0
0
0
0
0
0
0
0
0
0
0
0
0
0
0
0
0
0
0
0
0
0
0
0
0
0
0
0
0
0
-0.00163498
-0.00525061
-0.00281066
-0.12288
0
-0.00231426
-0.284312
-0.291954
-0.258728
-0.502303
-1.14424
0
)
;
    }
    defaultFaces
    {
        type            empty;
    }
}


// ************************************************************************* //
