/*--------------------------------*- C++ -*----------------------------------*\
| =========                 |                                                 |
| \\      /  F ield         | OpenFOAM: The Open Source CFD Toolbox           |
|  \\    /   O peration     | Version:  2206                                  |
|   \\  /    A nd           | Website:  www.openfoam.com                      |
|    \\/     M anipulation  |                                                 |
\*---------------------------------------------------------------------------*/
FoamFile
{
    version     2.0;
    format      ascii;
    arch        "LSB;label=32;scalar=64";
    class       volScalarField;
    location    "0.5";
    object      p_rgh;
}
// * * * * * * * * * * * * * * * * * * * * * * * * * * * * * * * * * * * * * //

dimensions      [1 -1 -2 0 0 0 0];

internalField   nonuniform List<scalar> 
2268
(
674.696
671.455
674.327
681.493
691.751
700.143
705.96
710.629
716.529
725.067
736.557
750.866
767.704
786.732
807.702
830.134
852.859
873.803
888.299
894.917
879.772
873.753
915.756
674.339
670.356
672.955
679.933
690.191
698.809
704.805
709.599
715.635
724.306
735.878
750.097
766.77
785.612
806.317
828.488
851.276
873.109
889.68
900.596
877.799
861.206
909.362
673.324
668.536
670.444
676.881
687.146
696.196
702.544
707.579
713.88
722.819
734.603
749.035
765.818
784.687
805.255
826.956
848.862
869.871
887.04
899.773
874.666
853.471
907.334
672.233
666.278
666.915
672.477
682.72
692.425
699.296
704.683
711.367
720.685
732.764
747.397
764.341
783.269
803.836
825.421
846.982
867.263
883.926
895.76
881.76
871.438
915.536
671.732
664.052
662.663
666.798
676.969
687.629
695.203
701.02
708.193
717.992
730.423
745.299
762.452
781.501
802.197
823.885
845.524
865.691
882.316
894.309
898.244
894.018
929.713
672.536
662.623
658.142
660.141
670.285
682.139
690.495
696.711
704.398
714.751
727.595
742.776
760.206
779.398
800.347
822.335
844.331
864.812
881.946
894.791
903.095
907.656
941.499
675.392
662.402
654.173
653.627
663.662
676.419
685.327
691.931
700.147
711.01
724.202
739.685
757.644
776.98
798.295
820.755
843.342
864.4
882.257
895.939
905.811
912.837
935.432
680.462
665.637
652.493
647.44
656.77
669.941
678.996
686.321
695.585
707.171
720.616
736.048
753.066
773.98
795.949
819.263
842.831
864.673
883.256
897.573
906.865
912.315
913.881
309.955
296.491
283.668
280.685
280.622
280.775
281.339
281.65
281.399
280.941
281.303
282.179
285.69
283.415
284.65
328.452
649.071
1320.34
1674.18
309.457
295.204
282.361
279.769
279.826
280.399
281.278
281.802
281.326
280.769
280.503
274.4
260.133
256.428
259.796
276.405
409.627
1000.81
1569.6
344.548
285.496
278.682
277.709
277.631
278.696
280.917
282.119
281.155
279.692
275.882
258.942
253.269
255.142
258.764
263.812
309.39
624.488
1407.85
416.895
277.61
277.534
277.347
276.982
277.336
279.64
282.63
281.314
278.259
265.282
251.488
250.888
254.417
258.405
261.861
279.649
412.341
1223.8
437.806
277.396
277.447
277.204
276.817
276.658
278.854
282.758
282.173
276.197
256.072
247.233
249.244
253.817
258.188
261.172
266.994
313.767
994.076
450.601
277.295
277.202
277.084
276.659
276.407
278.372
281.785
282.888
272.359
248.977
243.202
247.689
253.277
258.006
260.794
262.765
281.538
705.955
492.06
461.239
276.863
277.089
276.545
276.266
277.721
280.138
280.89
267.954
242.879
239.94
246.522
253.088
257.84
260.296
261.836
270.953
447.554
474.859
637.601
309.125
277.2
276.491
276.293
277.195
278.477
277.602
264.937
240.122
238.667
246.531
253.31
257.742
259.883
261.281
262.743
586.865
691.141
674.47
641.195
603.927
616.377
643.549
660.941
673.005
686.404
700.365
715.157
731.753
750.16
769.612
791.778
816.077
841.569
865.239
885.428
901.157
907.767
897.764
824.563
641.342
461.981
268.43
172.184
212.412
282.88
323.888
359.103
412.285
476.442
541.004
607.561
673.679
734.882
783.709
813.015
843.763
870.095
892.749
912.01
923.477
924.256
918.201
77.6411
0.988751
0.635349
0.81308
0.820268
0.847699
0.876423
0.899003
0.999025
13.436
39.4371
76.998
131.495
212.036
342.098
546.176
801.631
876.586
905.588
932.066
948.649
960.958
973.495
0.71699
0.697421
0.676283
0.746388
0.777092
0.804092
0.811503
0.827245
0.842648
0.805024
0.768716
0.759035
0.749964
0.743948
0.861882
20.3026
85.2404
246.914
522.578
887.36
982.549
995.519
1010.14
0.745091
0.772207
0.766677
0.759551
0.760487
0.771104
0.777644
0.774539
0.753777
0.711009
0.697285
0.697602
0.708982
0.71861
0.723646
0.729902
0.766161
5.07115
37.178
95.9063
231.882
481.905
857.203
0.738319
0.737971
0.73447
0.738529
0.744412
0.750546
0.753535
0.751804
0.742113
0.723808
0.711371
0.701869
0.685305
0.665146
0.661378
0.752657
0.796874
0.796291
0.852245
0.854816
1.78421
14.7098
44.3517
0.720919
0.722117
0.725537
0.724028
0.725103
0.727445
0.727787
0.724421
0.716487
0.706531
0.698561
0.692443
0.688238
0.6876
0.706712
0.802154
0.791629
0.748255
0.777488
0.868163
0.814305
0.820498
0.92814
0.703987
0.704839
0.706563
0.705921
0.706171
0.706467
0.705511
0.702305
0.696707
0.690135
0.68425
0.678867
0.6732
0.667057
0.65598
0.680119
0.663562
0.67533
0.712005
0.738792
0.75566
0.875536
0.869404
0.685218
0.686138
0.687478
0.687138
0.686972
0.686515
0.685196
0.682541
0.678538
0.673891
0.669638
0.666171
0.664114
0.663214
0.659082
0.652964
0.655289
0.657226
0.756819
0.942647
0.84582
0.718537
0.650462
0.666471
0.667541
0.66849
0.668278
0.667961
0.667311
0.666078
0.664064
0.6613
0.658135
0.655109
0.652563
0.651411
0.65004
0.648034
0.64575
0.645246
0.644592
0.749895
0.976444
1.01326
0.880055
0.551862
0.648093
0.649015
0.649673
0.649541
0.649226
0.648633
0.647665
0.646262
0.644483
0.642528
0.640699
0.639248
0.63845
0.637803
0.63706
0.635903
0.63442
0.631894
0.622058
0.686416
1.02192
0.976136
0.828009
0.629891
0.630604
0.63104
0.630977
0.63074
0.630308
0.629654
0.628784
0.627763
0.626723
0.625835
0.62524
0.62502
0.624944
0.624901
0.624403
0.623208
0.620807
0.613009
0.595578
0.583711
0.903303
1.2059
0.61175
0.612274
0.612558
0.612557
0.612434
0.612198
0.611855
0.611434
0.610999
0.61064
0.610462
0.610539
0.610884
0.61139
0.611924
0.612129
0.611783
0.610345
0.605747
0.595314
0.57548
0.547001
0.593429
0.593591
0.593956
0.594156
0.59422
0.594225
0.594192
0.594135
0.594094
0.594122
0.594287
0.594655
0.595272
0.596136
0.597196
0.59833
0.599343
0.600049
0.600029
0.598392
0.593764
0.584574
0.572709
0.567278
0.575342
0.575594
0.575764
0.5759
0.576037
0.576196
0.576397
0.576678
0.577083
0.577666
0.578475
0.57954
0.580867
0.582424
0.584138
0.585909
0.58759
0.588902
0.589447
0.588717
0.586439
0.584452
0.587605
0.556962
0.557147
0.557324
0.557537
0.557803
0.558138
0.558567
0.55912
0.559839
0.560764
0.561935
0.563377
0.5651
0.567088
0.569303
0.571689
0.574155
0.576573
0.578787
0.580654
0.582373
0.585303
0.591836
0.538428
0.538584
0.538791
0.539081
0.539467
0.539962
0.540587
0.541372
0.54235
0.543557
0.545026
0.546781
0.548834
0.551185
0.553818
0.556708
0.559813
0.56309
0.566513
0.570125
0.574243
0.579776
0.588001
0.519726
0.519878
0.520127
0.520492
0.520987
0.521621
0.522415
0.523393
0.524586
0.526024
0.527734
0.529742
0.532062
0.534702
0.537662
0.540936
0.544518
0.548415
0.552658
0.557341
0.562726
0.569369
0.57801
0.500843
0.501007
0.501303
0.501737
0.502328
0.503081
0.504016
0.505155
0.506522
0.508145
0.510049
0.512256
0.514783
0.517642
0.520841
0.524386
0.528286
0.532567
0.537275
0.542511
0.548478
0.555504
0.564008
0.481768
0.481953
0.482297
0.482791
0.483463
0.484316
0.485367
0.486634
0.48814
0.489908
0.491962
0.494321
0.497002
0.500016
0.503377
0.507096
0.511188
0.51568
0.520618
0.526075
0.532179
0.539114
0.547115
0.462493
0.462701
0.463089
0.463633
0.464372
0.465304
0.466446
0.467813
0.469426
0.471306
0.473472
0.475941
0.478728
0.481845
0.485304
0.489115
0.493294
0.497863
0.502851
0.508301
0.514282
0.520869
0.52818
0.443005
0.44324
0.443665
0.444248
0.445037
0.44603
0.44724
0.448683
0.450374
0.452334
0.454579
0.457122
0.459976
0.463151
0.466655
0.470499
0.47469
0.479243
0.48417
0.489485
0.495214
0.501326
0.507857
0.423294
0.423554
0.424011
0.424623
0.425448
0.426483
0.427742
0.429237
0.430982
0.432994
0.435288
0.437875
0.440762
0.443959
0.44747
0.451302
0.455456
0.459934
0.464734
0.469851
0.475327
0.480879
0.48674
0.40335
0.403633
0.404115
0.404745
0.405595
0.406658
0.407948
0.409474
0.411251
0.413292
0.415609
0.418212
0.421106
0.424296
0.427786
0.431577
0.435663
0.440036
0.444676
0.449529
0.454512
0.459836
0.465133
0.383163
0.383466
0.38397
0.384612
0.385475
0.386554
0.387859
0.389399
0.391188
0.393236
0.395554
0.39815
0.401027
0.40419
0.407639
0.411372
0.415379
0.419642
0.424131
0.428805
0.433603
0.438513
0.443345
0.362733
0.363048
0.363574
0.36422
0.36509
0.366172
0.367479
0.369018
0.3708
0.372837
0.375136
0.377705
0.380548
0.383667
0.387061
0.390727
0.394649
0.398814
0.403187
0.407717
0.412345
0.41701
0.421549
0.342068
0.342379
0.342931
0.343574
0.344443
0.345519
0.346815
0.348338
0.350099
0.352106
0.35437
0.356895
0.359687
0.362748
0.366077
0.369669
0.373515
0.377595
0.381877
0.386311
0.390837
0.39539
0.399819
0.321191
0.321469
0.32205
0.322683
0.323544
0.324604
0.325877
0.32737
0.329094
0.331056
0.333268
0.335733
0.338457
0.341448
0.344705
0.348222
0.351991
0.355997
0.360213
0.364598
0.369096
0.373653
0.37814
0.300132
0.300326
0.300943
0.301557
0.302403
0.303435
0.304675
0.306125
0.307796
0.309696
0.31183
0.314224
0.316876
0.319787
0.322958
0.32639
0.330079
0.334017
0.338184
0.342551
0.347078
0.35173
0.356408
0.278863
0.278999
0.279627
0.28021
0.281032
0.282025
0.283218
0.284609
0.286201
0.288028
0.290097
0.292407
0.294965
0.297777
0.300845
0.304177
0.307776
0.31164
0.315761
0.320123
0.324704
0.329495
0.334448
0.257399
0.2575
0.258118
0.258658
0.259449
0.260383
0.261503
0.262826
0.264364
0.266113
0.268087
0.270293
0.272738
0.275432
0.27838
0.281593
0.285082
0.288853
0.292911
0.297257
0.301886
0.306818
0.312059
0.235763
0.235837
0.236427
0.236901
0.237637
0.238523
0.239592
0.240845
0.242295
0.243946
0.24581
0.247896
0.250212
0.252768
0.255577
0.258651
0.262006
0.265655
0.269617
0.273913
0.278557
0.28359
0.289072
0.213968
0.21402
0.214567
0.214966
0.215666
0.216479
0.217476
0.218644
0.219996
0.221538
0.223281
0.225233
0.227404
0.229806
0.232453
0.235363
0.238555
0.242052
0.245882
0.250079
0.25468
0.259743
0.265371
0.192011
0.192052
0.192497
0.192854
0.193509
0.194243
0.195162
0.196235
0.19748
0.198904
0.200513
0.202318
0.204329
0.206558
0.209024
0.211744
0.214744
0.218054
0.221709
0.225752
0.230235
0.235237
0.240891
0.169903
0.169955
0.170322
0.170603
0.1712
0.171851
0.172681
0.173653
0.174782
0.176074
0.177538
0.179181
0.181014
0.183052
0.185313
0.187818
0.190595
0.193678
0.197106
0.200933
0.205218
0.210053
0.215593
0.147651
0.147724
0.148008
0.148213
0.148748
0.14931
0.150045
0.150909
0.151913
0.153064
0.15437
0.155838
0.157479
0.159307
0.16134
0.163603
0.166123
0.168937
0.172084
0.17562
0.179617
0.18417
0.18944
0.125246
0.125342
0.125529
0.125666
0.126145
0.126616
0.127255
0.128006
0.128876
0.129878
0.131015
0.132296
0.133728
0.135327
0.13711
0.139101
0.141327
0.143824
0.146633
0.149802
0.153408
0.15755
0.162386
0.102643
0.102629
0.102849
0.102961
0.103374
0.103759
0.104301
0.104927
0.105664
0.106509
0.107467
0.108543
0.109751
0.111102
0.112611
0.114299
0.11619
0.118316
0.120717
0.123442
0.126556
0.130151
0.134386
0.0799318
0.0798777
0.0801029
0.0801539
0.0804957
0.0807957
0.0812262
0.0817285
0.0823159
0.0829855
0.0837464
0.0846058
0.0855708
0.0866499
0.0878568
0.0892085
0.0907271
0.0924357
0.0943656
0.096568
0.0990923
0.10202
0.105483
0.0571566
0.0571018
0.0572579
0.0572856
0.0575508
0.0577643
0.0580789
0.0584467
0.0588738
0.059358
0.0599106
0.060539
0.0612441
0.0620318
0.0629133
0.0639
0.0650087
0.0662638
0.0676773
0.0692925
0.0711453
0.0733043
0.0758652
0.0343331
0.0343193
0.0343916
0.0344099
0.0345764
0.0347006
0.0348974
0.0351155
0.0353771
0.035676
0.0360106
0.0363887
0.0368157
0.0372978
0.0378385
0.0384429
0.0391209
0.0398846
0.0407495
0.0417365
0.0428709
0.0441958
0.0457678
0.0114718
0.0114757
0.0114865
0.0114876
0.0115621
0.0115833
0.01166
0.0117286
0.0118167
0.0119182
0.0120339
0.0121613
0.0123044
0.0124657
0.0126481
0.0128557
0.0130883
0.0133468
0.0136401
0.0139752
0.0143636
0.0148165
0.0153496
665.148
660.648
672.42
650.281
895.691
884.232
871.107
854.737
967.266
961.397
960.68
963.618
1017.38
1021.92
1029.17
1040.07
1046.37
1069.78
1087.85
1108.8
93.6542
151.018
256.852
520.943
1.0257
1.04516
2.11156
1.20721
0.895535
0.74096
0.643186
0.542215
0.645515
0.566507
0.554599
0.54766
0.534058
0.538281
0.586917
0.646792
0.633486
0.644026
0.678981
0.694604
1.26538
1.28392
1.31115
1.3361
0.672143
0.744117
0.957983
1.01121
0.572048
0.577913
0.587982
0.603068
0.595309
0.601956
0.610933
0.622225
0.599982
0.606342
0.613953
0.622713
0.596403
0.602532
0.6094
0.616944
0.586026
0.591657
0.597736
0.604193
0.571434
0.576521
0.581873
0.587417
0.553807
0.558305
0.562926
0.567627
0.534088
0.537959
0.541902
0.545816
0.512952
0.516302
0.519608
0.522798
0.491139
0.49395
0.49667
0.499224
0.468951
0.471332
0.473577
0.47562
0.446726
0.448796
0.450702
0.452386
0.42467
0.426563
0.428285
0.429783
0.402868
0.404725
0.406425
0.407916
0.381286
0.383231
0.385055
0.386708
0.359785
0.361916
0.363977
0.365922
0.338145
0.340525
0.342891
0.345214
0.316103
0.318752
0.321452
0.324193
0.293425
0.296322
0.299334
0.302469
0.269949
0.273038
0.276297
0.279747
0.245582
0.24878
0.252192
0.255836
0.220263
0.223471
0.226919
0.230625
0.193936
0.19704
0.200398
0.204023
0.166547
0.169431
0.172564
0.175959
0.138054
0.1406
0.143374
0.146391
0.108499
0.110599
0.112895
0.115395
0.0781037
0.0796666
0.081381
0.083256
0.047146
0.0481096
0.049172
0.0503413
0.0158209
0.0161524
0.0165187
0.0169215
582.815
709.493
546.962
281.167
276.397
276.259
276.437
276.173
274.027
263.791
244.516
242.419
248.271
254.296
257.883
259.613
260.513
258.7
692.592
825.514
879.537
874.183
340.678
275.845
275.599
275.249
274.078
271.063
263.946
255.227
252.827
253.978
256.864
258.892
260.047
260.585
260.111
798.28
971.385
1008.96
1029.85
382.577
275.083
274.549
273.983
272.702
270.191
266.021
261.368
258.495
258.071
258.968
259.941
260.71
260.948
260.624
900.239
1062.48
1107.27
1158.96
413.017
273.997
273.365
272.884
271.63
269.561
266.824
263.825
261.543
260.568
260.517
260.843
261.269
261.389
273.924
1068.01
1138.36
1184.38
1261.24
796.747
277.069
272.598
272.316
270.927
269.003
266.997
265.001
263.281
262.011
261.552
261.475
261.501
261.783
623.54
1267.57
1061.14
1240.57
1312.13
1362.13
712.97
271.694
273.369
269.801
268.367
267.171
265.803
264.085
262.676
262.215
261.862
261.6
261.995
1060.37
1467
61.8524
552.327
1298.05
1394.77
1451.08
1269.78
823.889
270.994
267.578
267.106
266.334
280.901
291.847
408.047
361.18
260.502
467.685
1405.19
1696
0.29434
0.619358
155.259
755.156
1448.2
1500.62
1542.51
1422.55
999.341
566.912
576.651
893.072
1093.33
1270.69
1264.72
1202.38
1386.73
1722.67
1962.81
0.452678
0.819164
0.862235
24.5224
263.084
735.626
1282.61
1418.51
1477.3
1528.64
1548.45
1543.03
1543.51
1551.72
1590.39
1666.28
1791.81
1983.01
2189.07
0.717476
0.814396
0.843625
0.871987
0.936765
7.56326
114.329
403.335
699.309
943.482
1142.15
1217.15
1202.55
1137.81
1080.96
1223.7
1676.17
2095.26
2281.5
0.804078
1.08711
1.56269
1.46639
0.854439
0.869664
0.851259
0.851827
3.37711
34.1226
92.9123
118.597
114.613
107.29
118.495
166.979
615.128
1885.81
2208.8
1.43825
1.55459
1.59892
1.0151
0.829192
0.900167
0.920162
1.04301
1.38164
1.93906
2.13897
2.74313
8.61238
23.715
58.0049
179.873
818.53
1910.04
2145.58
0.845713
0.770266
0.732285
0.758324
0.814133
0.883858
0.94169
1.03063
1.2256
1.44563
1.30893
0.875497
3.04941
236.481
1037.9
1499.48
1845.63
2062.86
2115.64
0.631189
0.664933
0.711361
0.760286
0.81173
0.868347
0.933571
1.0189
1.13195
1.21805
0.979268
0.241584
2.50051
628.676
1749.43
2081.78
2175.08
2201.03
1867.22
0.644132
0.679859
0.711247
0.748492
0.792224
0.842121
0.901195
0.97111
1.03914
1.03507
0.737989
2.12223
6.41119
-1.768
171.366
1414.38
2271.78
2294.78
1921.74
0.639225
0.667129
0.696743
0.729161
0.76584
0.80771
0.854887
0.903554
0.935564
0.879563
0.574664
0.240739
1.32622
0.901129
3.11703
241.056
1939.65
2345.84
1962.19
0.630826
0.653414
0.677822
0.704646
0.734607
0.768397
0.80455
0.836355
0.846998
0.795206
0.586313
0.153064
0.298768
2.08601
1.12479
459.849
1496.05
2255.07
2211.73
0.615862
0.634795
0.654942
0.67653
0.700404
0.727226
0.755175
0.777256
0.780113
0.744771
0.659387
0.486309
0.374678
0.492627
1.12749
758.569
1532.92
1502.61
2380.36
0.597278
0.612797
0.628995
0.645955
0.664603
0.685725
0.707662
0.72446
0.726559
0.705253
0.678445
0.659248
0.641387
0.73653
7.62034
783.094
1110.13
658.081
2492.31
0.575842
0.588359
0.601009
0.61392
0.628075
0.644385
0.661486
0.674652
0.678183
0.671232
0.667954
0.71978
0.764496
0.901352
11.5399
495.628
712.275
279.155
1168.79
0.552513
0.562327
0.571822
0.581161
0.591262
0.603067
0.615434
0.625115
0.629597
0.633415
0.647702
0.705194
0.80804
0.964965
5.53503
336.746
636.091
235.361
244.176
0.528125
0.535521
0.542205
0.548332
0.554515
0.560948
0.567309
0.574128
0.575547
0.586591
0.615971
0.671846
0.790355
0.938656
0.98708
153.714
434.121
250.945
251.761
0.50337
0.508665
0.512862
0.516026
0.518273
0.51861
0.517098
0.51251
0.512102
0.524859
0.559638
0.626789
0.750918
0.940282
1.1772
160.767
887.666
1000.78
370.384
0.478819
0.482394
0.484452
0.484825
0.482681
0.477693
0.466028
0.449696
0.438719
0.442335
0.473261
0.535245
0.653746
0.795809
1.72949
387.109
1056.9
1065.88
1066.63
0.454916
0.457255
0.457723
0.455873
0.449949
0.437543
0.414655
0.384291
0.354879
0.341719
0.353058
0.381656
0.401475
0.260302
0.471998
98.066
613.983
1097.21
1096.22
0.431958
0.433658
0.433292
0.430104
0.421144
0.400994
0.368544
0.32192
0.268478
0.230469
0.211506
0.190522
0.11417
0.4489
0.678971
-0.626016
7.33163
1122.57
1125.72
0.410081
0.411827
0.411536
0.408179
0.398065
0.375484
0.336895
0.276292
0.198758
0.133059
0.0928822
0.0525249
-0.00899635
-0.0359852
-0.465314
-0.551568
1.47707
446.65
1156.74
0.389202
0.39172
0.392461
0.390241
0.38195
0.363359
0.329439
0.267299
0.177482
0.0930746
0.0446906
0.0143978
-0.0282099
-0.192303
-0.37705
-0.395333
0.17797
49.5713
1189.84
0.369001
0.372839
0.375397
0.375431
0.372046
0.364079
0.346429
0.30376
0.222497
0.135249
0.0827787
0.0635203
0.030305
-0.11859
-0.287614
-0.279447
0.169265
31.573
1155.78
0.349052
0.354493
0.35937
0.362392
0.364931
0.368777
0.371098
0.355685
0.306584
0.235417
0.181001
0.157907
0.0783717
-0.0775482
-0.194301
-0.104681
0.0039092
96.0377
883.265
0.328873
0.335991
0.343414
0.349968
0.357678
0.370713
0.387525
0.393389
0.37508
0.325036
0.261621
0.190444
0.0864599
-0.0123875
0.636174
0.225086
-0.0743665
239.176
924.269
0.307963
0.316661
0.326494
0.336805
0.348771
0.367439
0.391582
0.427608
0.422834
0.364526
0.294497
0.207923
0.13423
0.115687
1.86738
1.53125
2.13063
225.41
950.392
0.285896
0.295891
0.307639
0.321037
0.336519
0.358588
0.385958
0.429984
0.44836
0.410486
0.327761
0.267649
0.248923
0.307791
0.422729
34.807
34.7202
23.2945
968.384
0.262405
0.273288
0.286337
0.301822
0.319757
0.343115
0.373468
0.406998
0.451262
0.440944
0.389182
0.361591
0.391373
0.491132
0.655657
91.0569
66.2343
24.1533
956.115
0.237349
0.248679
0.262435
0.279334
0.297793
0.321707
0.350706
0.383624
0.408918
0.418368
0.414439
0.41631
0.442363
0.559437
29.6306
113.976
63.9237
24.6669
970.344
0.210636
0.221939
0.235671
0.252789
0.271774
0.296005
0.323811
0.353723
0.380784
0.401896
0.418542
0.42916
0.421968
16.6587
115.874
117.46
67.0599
27.7683
1007.96
0.182183
0.192994
0.206072
0.223297
0.241318
0.265702
0.294309
0.323596
0.353357
0.38301
0.414932
0.440569
0.40798
111.9
118.25
120.096
44.8877
11.3323
1027.95
0.151942
0.161752
0.173412
0.190514
0.206586
0.230024
0.260986
0.289824
0.32285
0.357662
0.409567
0.480629
0.565301
92.0777
120.287
95.8199
7.20427
5.64081
666.619
0.119991
0.128136
0.13716
0.154733
0.1678
0.188781
0.220006
0.246414
0.284547
0.32038
0.395646
0.514771
0.661923
1.43657
115.037
80.387
5.91857
5.71757
646.524
0.0867099
0.0928939
0.100012
0.113711
0.124432
0.141381
0.169021
0.191836
0.233435
0.26124
0.378547
1.66006
0.723902
0.113686
7.38549
69.8866
33.3178
13.7104
824.685
0.0524942
0.0563903
0.0611002
0.0695694
0.0769589
0.0884011
0.106475
0.11841
0.145269
0.157266
0.187695
1.91677
0.501547
-0.245145
-0.0581004
6.02451
22.4723
2.70419
828.577
0.0176656
0.0190314
0.0207359
0.0236263
0.0264202
0.0306978
0.0359231
0.0345362
0.0299097
0.0104289
-0.225121
0.812944
0.0912919
-0.667746
-0.53021
-0.594906
-1.16526
-0.84421
240.585
)
;

boundaryField
{
    leftWall
    {
        type            fixedFluxPressure;
        gradient        uniform 0;
        value           nonuniform List<scalar> 
50
(
674.696
674.339
673.324
672.233
671.732
672.536
675.392
680.462
691.141
641.342
77.6411
0.71699
0.745091
0.738319
0.720919
0.703987
0.685218
0.666471
0.648093
0.629891
0.61175
0.593591
0.575342
0.556962
0.538428
0.519726
0.500843
0.481768
0.462493
0.443005
0.423294
0.40335
0.383163
0.362733
0.342068
0.321191
0.300132
0.278863
0.257399
0.235763
0.213968
0.192011
0.169903
0.147651
0.125246
0.102643
0.0799318
0.0571566
0.0343331
0.0114718
)
;
    }
    rightWall
    {
        type            fixedFluxPressure;
        gradient        uniform 0;
        value           nonuniform List<scalar> 
50
(
1674.18
1569.6
1407.85
1223.8
994.076
705.955
447.554
586.865
692.592
798.28
900.239
1068.01
1267.57
1467
1696
1962.81
2189.07
2281.5
2208.8
2145.58
2115.64
1867.22
1921.74
1962.19
2211.73
2380.36
2492.31
1168.79
244.176
251.761
370.384
1066.63
1096.22
1125.72
1156.74
1189.84
1155.78
883.265
924.269
950.392
968.384
956.115
970.344
1007.96
1027.95
666.619
646.524
824.685
828.577
240.585
)
;
    }
    lowerWall
    {
        type            fixedFluxPressure;
        gradient        uniform 0;
        value           nonuniform List<scalar> 
62
(
674.696
671.455
674.327
681.493
691.751
700.143
705.96
710.629
716.529
725.067
736.557
750.866
767.704
786.732
807.702
830.134
852.859
873.803
888.299
894.917
879.772
873.753
915.756
915.756
909.362
907.334
915.536
929.713
941.499
935.432
913.881
665.148
660.648
672.42
650.281
309.955
309.457
344.548
416.895
437.806
450.601
492.06
474.859
309.955
296.491
283.668
280.685
280.622
280.775
281.339
281.65
281.399
280.941
281.303
282.179
285.69
283.415
284.65
328.452
649.071
1320.34
1674.18
)
;
    }
    atmosphere
    {
        type            totalPressure;
        rho             rho;
        psi             none;
        gamma           1;
        p0              uniform 0;
        value           nonuniform List<scalar> 
46
(
0
0
0
0
0
0
0
0
0
0
0
0
0
0
0
0
0
0
0
0
0
0
0
0
0
0
0
0
0
0
0
0
0
-0.00168517
-0.00955896
-0.0178137
-0.0534514
-0.433304
0
-0.20935
-0.821819
-0.647868
-0.605483
-0.0294877
0
0
)
;
    }
    defaultFaces
    {
        type            empty;
    }
}


// ************************************************************************* //
