/*--------------------------------*- C++ -*----------------------------------*\
| =========                 |                                                 |
| \\      /  F ield         | OpenFOAM: The Open Source CFD Toolbox           |
|  \\    /   O peration     | Version:  2206                                  |
|   \\  /    A nd           | Website:  www.openfoam.com                      |
|    \\/     M anipulation  |                                                 |
\*---------------------------------------------------------------------------*/
FoamFile
{
    version     2.0;
    format      ascii;
    arch        "LSB;label=32;scalar=64";
    class       volScalarField;
    location    "0.925";
    object      p;
}
// * * * * * * * * * * * * * * * * * * * * * * * * * * * * * * * * * * * * * //

dimensions      [1 -1 -2 0 0 0 0];

internalField   nonuniform List<scalar> 
2268
(
668.904
668.894
669.023
669.217
669.309
669.292
669.258
669.37
669.724
670.324
671.121
672.074
673.157
674.353
675.635
676.966
678.279
679.532
680.487
681.165
681.868
682.892
683.74
609.961
609.914
610.027
610.174
610.237
610.191
610.145
610.265
610.625
611.226
612.042
613.025
614.134
615.345
616.641
617.996
619.351
620.587
621.48
621.961
622.624
623.713
624.822
550.89
550.83
550.896
550.983
550.973
550.848
550.772
550.924
551.35
552.011
552.864
553.87
554.995
556.213
557.509
558.864
560.241
561.564
562.726
563.739
564.797
565.835
566.936
491.687
491.61
491.572
491.566
491.481
491.318
491.226
491.411
491.913
492.656
493.565
494.608
495.76
497.002
498.325
499.721
501.175
502.66
504.143
505.597
507.055
508.441
509.543
432.274
432.016
431.695
431.449
431.395
431.449
431.579
431.888
432.44
433.234
434.189
435.264
436.443
437.716
439.079
440.54
442.106
443.779
445.553
447.4
449.281
451.03
452.341
372.601
371.936
370.909
370.253
370.358
370.977
371.725
372.424
373.07
373.845
374.788
375.868
377.061
378.352
379.747
381.261
382.928
384.788
386.868
389.152
391.558
393.844
395.524
312.821
311.66
309.658
308.572
308.994
310.327
311.776
312.995
313.829
314.527
315.376
316.411
317.597
318.894
320.305
321.839
323.566
325.59
327.992
330.784
333.885
337.013
339.444
253.926
252.322
249.468
248.071
248.949
250.713
252.266
253.516
254.479
255.182
255.932
256.893
258.043
259.303
260.717
262.206
263.889
265.99
268.688
272.054
276.084
280.725
284.596
993.605
951.978
920.648
870.997
728.54
537.022
495.563
600.219
714.73
759.763
746.084
751.959
780.572
817.846
866.327
905.036
934.111
978.982
997.07
975.728
924.879
876.105
815.172
682.617
453.24
388.771
513.388
646.284
706.278
700.812
700.212
715.631
750.096
807.593
846.722
865.684
909.356
935.779
962.343
905.822
843.618
755.627
629.216
352.605
266.573
428.843
583.375
664.741
671.619
656.194
658.911
696.634
757.768
794.621
804.351
834.975
871.116
952.548
873.327
792.649
704.089
568.264
243.863
154.743
368.216
528.739
618.672
629.357
613.611
613.995
651.426
709.972
743.344
748.917
765.023
806.211
949.732
829.047
695.995
629.95
509.307
201.211
111.229
333.07
484.864
567.558
579.679
565.654
571.843
607.681
658.752
684.969
689.699
703.427
742.141
949.076
778.111
574.741
538.884
475.15
255.076
172.764
308.463
442.264
508.026
527.121
520.393
531.493
562.749
602.391
624.335
626.723
638.276
677.268
942.462
733.542
496.55
484.736
479.969
343.776
229.055
280.649
392.151
455.892
480.449
480.37
494.557
519.181
542.082
561.076
565.572
569.527
611.786
900.74
685.674
445.666
445.275
489.482
400.847
261.234
248.862
343.56
422.903
444.241
448.852
460.64
472.415
479.994
496.12
505.081
506.446
548.095
162.824
161.131
158.635
156.986
157.211
158.54
159.561
160.212
160.931
161.712
162.556
163.602
164.848
166.161
167.448
168.868
170.417
172.48
175.508
179.55
184.846
192.585
203.681
55.8853
55.0215
53.7327
51.7582
50.2777
50.7259
52.2833
53.011
53.0443
53.0976
53.5042
54.3036
55.0585
55.1087
54.123
52.7043
52.2887
54.1488
56.9632
59.6762
61.4128
63.5693
73.8417
4.17817
4.25995
4.51744
4.87475
5.54294
6.37601
7.05014
7.47883
7.49617
7.22064
7.04287
7.22169
7.34199
7.45963
7.4956
7.23363
6.90037
7.23784
8.51753
9.57186
9.626
9.54389
10.1754
3.78701
3.78026
3.77089
3.76825
3.75844
3.71932
3.68316
3.68866
3.66553
3.51048
3.29585
3.07821
3.07745
3.48218
4.11364
4.73612
5.24473
5.71888
6.3485
7.03979
7.52975
7.58147
6.79456
3.46309
3.45673
3.4494
3.44362
3.42886
3.40949
3.38324
3.34277
3.28453
3.2433
3.26756
3.24816
3.22822
3.30127
3.51828
3.83984
4.2508
4.74852
5.3881
6.29526
7.49901
8.70063
10.0163
3.10235
3.09547
3.08903
3.08075
3.05666
3.01025
2.95291
2.89005
2.81268
2.73629
2.6698
2.62646
2.58989
2.59568
2.69927
2.92077
3.27679
3.76545
4.42429
5.59939
8.12897
12.1724
15.4083
2.70937
2.69773
2.68418
2.66526
2.63354
2.584
2.52257
2.4544
2.38062
2.30539
2.23007
2.15272
2.07984
2.04685
2.08552
2.20044
2.38195
2.58268
2.66722
2.61211
3.03957
4.31175
6.15082
2.30447
2.29126
2.2723
2.2457
2.2104
2.16625
2.11517
2.05807
1.9972
1.93438
1.86712
1.79392
1.72308
1.66922
1.64229
1.66324
1.71702
1.59615
0.806886
-1.20317
-4.73154
-11.1048
-20.7926
1.9026
1.89053
1.87275
1.84728
1.81454
1.77618
1.73328
1.68564
1.63361
1.57812
1.51974
1.45909
1.39968
1.34817
1.31218
1.29003
1.2539
1.15093
0.890634
0.40491
0.434534
0.845873
-11.7429
1.5152
1.50532
1.49106
1.46999
1.44258
1.41018
1.37337
1.33216
1.28677
1.23776
1.18578
1.13131
1.07512
1.01818
0.959707
0.894946
0.827473
0.773562
0.765801
0.875605
1.21339
1.76492
3.43061
1.14812
1.14043
1.12951
1.11255
1.08997
1.06286
1.03145
0.995774
0.956062
0.912625
0.865813
0.815874
0.762988
0.706483
0.646283
0.585019
0.529673
0.480666
0.435285
0.455361
0.712606
0.846292
0.763299
0.802821
0.796051
0.787533
0.773829
0.755049
0.732171
0.705333
0.674527
0.639931
0.601702
0.560097
0.515284
0.466907
0.413625
0.355979
0.298745
0.238098
0.172129
0.0994893
0.0337189
-0.00399074
0.0166283
0.0206159
0.475289
0.470278
0.463066
0.45167
0.435851
0.41643
0.393493
0.367047
0.337229
0.304063
0.267656
0.227785
0.182901
0.133333
0.083463
0.0374016
-0.00780667
-0.0539874
-0.100088
-0.140899
-0.166271
-0.184106
-0.235426
0.161724
0.159101
0.152671
0.143036
0.129614
0.113147
0.0936683
0.0712246
0.0458982
0.0176251
-0.0136735
-0.0488435
-0.088961
-0.131486
-0.171078
-0.205884
-0.235909
-0.262352
-0.288356
-0.315365
-0.340343
-0.365399
-0.40798
-0.13969
-0.141493
-0.147041
-0.155236
-0.166656
-0.18058
-0.197015
-0.215866
-0.23712
-0.260909
-0.287569
-0.318084
-0.352498
-0.38743
-0.420109
-0.449783
-0.475093
-0.496585
-0.517555
-0.540365
-0.563069
-0.587152
-0.621093
-0.431837
-0.433765
-0.438544
-0.445729
-0.455589
-0.467515
-0.481503
-0.497417
-0.515281
-0.535273
-0.557883
-0.583881
-0.612441
-0.641424
-0.67006
-0.697202
-0.721693
-0.743705
-0.76475
-0.785858
-0.805703
-0.824844
-0.847999
-0.717061
-0.719174
-0.723431
-0.730023
-0.738821
-0.7494
-0.761689
-0.775527
-0.790941
-0.808111
-0.827469
-0.849488
-0.873527
-0.898812
-0.924481
-0.949471
-0.973091
-0.995405
-1.01703
-1.03843
-1.05867
-1.07716
-1.09569
-0.996351
-0.998617
-1.00258
-1.00893
-1.01716
-1.02704
-1.03839
-1.05106
-1.06503
-1.08045
-1.09766
-1.11693
-1.13824
-1.16114
-1.18491
-1.20881
-1.23236
-1.25545
-1.27842
-1.3017
-1.32473
-1.34654
-1.36916
-1.27027
-1.27257
-1.27647
-1.28281
-1.29088
-1.30058
-1.31169
-1.32404
-1.33758
-1.35239
-1.36869
-1.38677
-1.40677
-1.42851
-1.45161
-1.47566
-1.50027
-1.52519
-1.55064
-1.57702
-1.60362
-1.63004
-1.66311
-1.5392
-1.54146
-1.54543
-1.55183
-1.55995
-1.5698
-1.58112
-1.59378
-1.60769
-1.62284
-1.63938
-1.65753
-1.67748
-1.69927
-1.7228
-1.74795
-1.77447
-1.80213
-1.8311
-1.86169
-1.89273
-1.9251
-1.97226
-1.80324
-1.80544
-1.8095
-1.81587
-1.82407
-1.83412
-1.84584
-1.8591
-1.87381
-1.88993
-1.90752
-1.92672
-1.94771
-1.97066
-1.99565
-2.02277
-2.05203
-2.08326
-2.11673
-2.15282
-2.19003
-2.23066
-2.29369
-2.0621
-2.06425
-2.06834
-2.07462
-2.08283
-2.09303
-2.10511
-2.11901
-2.13467
-2.15204
-2.17114
-2.19204
-2.21489
-2.23989
-2.26723
-2.29715
-2.32987
-2.3654
-2.40414
-2.44672
-2.49181
-2.54227
-2.61922
-2.31508
-2.31721
-2.32129
-2.32745
-2.33565
-2.34595
-2.35833
-2.37279
-2.38934
-2.40794
-2.42863
-2.45147
-2.47657
-2.50413
-2.53438
-2.56764
-2.60427
-2.6445
-2.68883
-2.73817
-2.79191
-2.85258
-2.93886
-2.56116
-2.56329
-2.56738
-2.5735
-2.58173
-2.59214
-2.60479
-2.61973
-2.63702
-2.6567
-2.67882
-2.70346
-2.73076
-2.76091
-2.79414
-2.83081
-2.87136
-2.91618
-2.96573
-3.02106
-3.08245
-3.15168
-3.24281
-2.7991
-2.80128
-2.80543
-2.81162
-2.81999
-2.83061
-2.84357
-2.85897
-2.8769
-2.89745
-2.92075
-2.9469
-2.97607
-3.00847
-3.04436
-3.08408
-3.12813
-3.17698
-3.23103
-3.29125
-3.35865
-3.43463
-3.52834
-3.0277
-3.03009
-3.03434
-3.04068
-3.04928
-3.06017
-3.07349
-3.08933
-3.10782
-3.12909
-3.1533
-3.18061
-3.21121
-3.24536
-3.28335
-3.32553
-3.37241
-3.42456
-3.48241
-3.5467
-3.61899
-3.70093
-3.79789
-3.24619
-3.24902
-3.25326
-3.25978
-3.2686
-3.27976
-3.29339
-3.3096
-3.32852
-3.3503
-3.37513
-3.40321
-3.43476
-3.47007
-3.50947
-3.55336
-3.60225
-3.65681
-3.71765
-3.78532
-3.86147
-3.94871
-4.04998
-3.4544
-3.45759
-3.46193
-3.46853
-3.47749
-3.48881
-3.50261
-3.51901
-3.53814
-3.56017
-3.58527
-3.61368
-3.64564
-3.68147
-3.72153
-3.76625
-3.81618
-3.87203
-3.93466
-4.00474
-4.0835
-4.17419
-4.27979
-3.65269
-3.65604
-3.6603
-3.66692
-3.67587
-3.68718
-3.70094
-3.71727
-3.7363
-3.7582
-3.78314
-3.81137
-3.84312
-3.87873
-3.91856
-3.96308
-4.01284
-4.06855
-4.13118
-4.20167
-4.28089
-4.37159
-4.47758
-3.84145
-3.84476
-3.84886
-3.85535
-3.86412
-3.87517
-3.88862
-3.90456
-3.92311
-3.94444
-3.96871
-3.99615
-4.027
-4.06156
-4.10018
-4.14332
-4.1915
-4.24538
-4.30583
-4.37394
-4.45052
-4.53715
-4.63791
-4.02131
-4.02442
-4.02829
-4.03451
-4.0429
-4.05346
-4.0663
-4.0815
-4.09918
-4.11948
-4.14255
-4.16859
-4.19782
-4.2305
-4.26694
-4.30753
-4.35274
-4.40312
-4.45938
-4.52248
-4.59334
-4.67264
-4.764
-4.19305
-4.19584
-4.19943
-4.20525
-4.21307
-4.22292
-4.23489
-4.24904
-4.26548
-4.28433
-4.30571
-4.32979
-4.35676
-4.38682
-4.42024
-4.45731
-4.4984
-4.54396
-4.59452
-4.65078
-4.71363
-4.78337
-4.86278
-4.35755
-4.35995
-4.3632
-4.36851
-4.37562
-4.38459
-4.39547
-4.40833
-4.42324
-4.4403
-4.45961
-4.4813
-4.50551
-4.53241
-4.56219
-4.59505
-4.63127
-4.67115
-4.71508
-4.7635
-4.81709
-4.87599
-4.94209
-4.51576
-4.51772
-4.5206
-4.52531
-4.53163
-4.53958
-4.54923
-4.56062
-4.57381
-4.58886
-4.60585
-4.62487
-4.64603
-4.66944
-4.69523
-4.72353
-4.75451
-4.78837
-4.82534
-4.86566
-4.90975
-4.95767
-5.01052
-4.66864
-4.67013
-4.67261
-4.6767
-4.68215
-4.68903
-4.69738
-4.7072
-4.71856
-4.73149
-4.74605
-4.76229
-4.78028
-4.8001
-4.82181
-4.8455
-4.87126
-4.89918
-4.92939
-4.962
-4.9972
-5.035
-5.07594
-4.81711
-4.81816
-4.82023
-4.82368
-4.82826
-4.83404
-4.84105
-4.8493
-4.85881
-4.86961
-4.88173
-4.8952
-4.91007
-4.92637
-4.94414
-4.96341
-4.98422
-5.00661
-5.03061
-5.05627
-5.08366
-5.11273
-5.1437
-4.96205
-4.96268
-4.96437
-4.96718
-4.9709
-4.97561
-4.98132
-4.98802
-4.99573
-5.00446
-5.01423
-5.02506
-5.03695
-5.04994
-5.06401
-5.0792
-5.0955
-5.11291
-5.13143
-5.15105
-5.17179
-5.19357
-5.21649
-5.10428
-5.10455
-5.10587
-5.10807
-5.11099
-5.11467
-5.11913
-5.12436
-5.13037
-5.13716
-5.14473
-5.15308
-5.16223
-5.17217
-5.1829
-5.19441
-5.2067
-5.21974
-5.23351
-5.24799
-5.26318
-5.27898
-5.29546
-5.24445
-5.24444
-5.24543
-5.24707
-5.24922
-5.25195
-5.25524
-5.2591
-5.26352
-5.2685
-5.27404
-5.28014
-5.28678
-5.29398
-5.30171
-5.30997
-5.31873
-5.32798
-5.3377
-5.34784
-5.35841
-5.36931
-5.38063
-5.38345
-5.38327
-5.38395
-5.38507
-5.38654
-5.3884
-5.39062
-5.39323
-5.39621
-5.39956
-5.40328
-5.40736
-5.41179
-5.41656
-5.42168
-5.42711
-5.43286
-5.43889
-5.44519
-5.45173
-5.4585
-5.46544
-5.4726
-5.52112
-5.52086
-5.52119
-5.52185
-5.52269
-5.52371
-5.52493
-5.52636
-5.528
-5.52983
-5.53186
-5.53408
-5.53649
-5.53907
-5.54183
-5.54475
-5.54782
-5.55103
-5.55437
-5.55783
-5.5614
-5.56506
-5.56889
-5.66155
-5.66144
-5.66154
-5.66181
-5.66208
-5.66242
-5.66286
-5.66336
-5.66392
-5.66455
-5.66525
-5.666
-5.6668
-5.66766
-5.66856
-5.6695
-5.67048
-5.67148
-5.67251
-5.67353
-5.67457
-5.67557
-5.67657
244.06
376.431
478.039
482.823
116.263
263.419
407.081
465.058
12.7496
113.594
282.843
310.174
2.58683
31.0539
133.614
114.566
14.6376
35.4165
63.6172
25.2974
24.0635
48.6815
48.1868
13.4546
11.4043
28.0906
28.1848
7.1785
-33.6921
-22.5885
-1.94026
-2.15782
-39.6704
-39.9462
-11.7406
-0.105229
-6.6
-9.7917
3.77276
6.05481
4.18301
14.2156
9.73666
-0.366224
-0.381202
-0.0110481
-0.664936
0.0680207
-0.396754
-0.448609
-0.423406
0.0359897
-0.528475
-0.654113
-0.501661
-0.0697812
-0.705985
-0.777122
-0.609362
-0.2166
-0.903276
-0.92715
-0.753875
-0.454882
-1.14027
-1.161
-0.977188
-0.81529
-1.42968
-1.47896
-1.30339
-1.36344
-1.75938
-1.85487
-1.8104
-2.06487
-2.11081
-2.23468
-2.38086
-2.82098
-2.47536
-2.62244
-2.79936
-3.23692
-2.84019
-3.04716
-3.23529
-3.46321
-3.18576
-3.45728
-3.52988
-3.66758
-3.49798
-3.81301
-3.79683
-3.92991
-3.78635
-4.14465
-4.144
-4.27101
-4.0629
-4.49627
-4.56579
-4.67833
-4.32548
-4.86454
-5.02417
-5.13601
-4.56216
-5.19452
-5.49418
-5.6289
-4.75601
-5.42197
-5.88133
-6.08577
-4.89557
-5.53283
-6.09202
-6.42923
-4.99056
-5.55752
-6.15382
-6.60819
-5.0542
-5.52619
-6.09092
-6.55901
-5.09825
-5.46365
-5.93548
-6.34729
-5.13414
-5.40047
-5.75448
-6.08621
-5.1713
-5.35883
-5.60565
-5.84755
-5.2155
-5.34546
-5.50943
-5.67103
-5.26915
-5.35834
-5.46383
-5.56564
-5.33284
-5.39315
-5.45958
-5.52147
-5.40601
-5.44549
-5.48629
-5.52281
-5.4884
-5.51243
-5.53603
-5.55645
-5.5775
-5.58981
-5.60145
-5.61144
-5.67847
-5.68118
-5.68322
-5.68462
708.094
574.129
373.117
371.06
469.345
413.071
242.57
181.23
265.433
356.588
389.345
398.121
394.659
374.736
365.013
391.298
406.568
421.042
458.604
472.894
343.59
234.949
233.414
294.718
267.463
183.269
145.167
194.205
258.216
271.825
253.122
225.356
172.652
159.674
223.32
263.647
310.288
352.523
216.157
91.6289
50.3014
62.8113
110.554
126.1
104.856
98.0561
125.748
153.822
151.765
108.83
55.1331
33.8745
54.8778
94.5992
138.833
203.822
262.563
64.7567
21.9071
6.19501
1.75092
11.0517
26.008
30.4593
29.7881
39.7356
55.0145
43.9448
15.1336
8.39526
13.0365
27.5693
53.2681
87.0557
104.505
186.716
19.488
5.85033
0.727248
-0.733377
-0.981978
-0.95634
-0.915992
1.38054
5.07293
2.05769
1.64203
1.95715
2.88567
5.74316
12.8703
32.1759
61.4692
35.6506
102.79
6.95024
0.916669
-1.18187
-1.6772
-1.61263
-1.29463
-0.788128
-0.297582
-0.165773
-0.290385
0.184849
0.62118
1.22736
2.40688
4.60201
15.8218
31.2867
19.8961
34.3675
1.80392
-0.409617
-1.60717
-1.90208
-1.703
-1.31147
-0.819917
-0.392347
-0.117201
0.0699416
0.207153
0.335578
0.632956
1.06748
2.27745
7.14756
14.2786
13.3003
9.14655
-0.219159
-0.601342
-1.38323
-1.64217
-1.58761
-1.29881
-0.892211
-0.51862
-0.284081
-0.188458
-0.133152
-0.0272931
0.188628
0.343601
1.0662
3.61601
11.2753
10.5904
7.96052
-0.602717
-0.429299
-1.0634
-1.42539
-1.48863
-1.29569
-0.983007
-0.699532
-0.519641
-0.446108
-0.406689
-0.305668
-0.138238
-0.126223
-0.213219
0.34114
8.23214
6.40074
4.49817
0.219402
-0.170779
-0.75353
-1.17672
-1.386
-1.34255
-1.14474
-0.940116
-0.795444
-0.70405
-0.605834
-0.470003
-0.321997
-0.326587
-0.714724
-1.48109
3.86695
-0.176289
0.0731471
0.249466
-0.00179762
-0.480934
-0.944426
-1.32223
-1.47801
-1.39668
-1.2299
-1.07741
-0.946304
-0.803698
-0.63782
-0.463702
-0.364963
-0.353411
-0.984438
-1.08998
-5.29295
-3.10472
0.296352
0.0966576
-0.289122
-0.800973
-1.41876
-1.81851
-1.81019
-1.59624
-1.38488
-1.21896
-1.05024
-0.847498
-0.603821
-0.355533
-0.0589804
-0.831106
-4.06026
-6.31273
-4.19371
0.293435
0.161913
-0.205911
-0.83048
-1.86352
-2.51417
-2.47278
-2.09736
-1.75723
-1.53843
-1.34103
-1.09819
-0.75995
-0.314993
0.288497
-0.619182
-3.49209
-5.16658
-3.90099
0.22564
0.115946
-0.349099
-1.23566
-2.87392
-3.69115
-3.35254
-2.74577
-2.2121
-1.9165
-1.68939
-1.42046
-0.980539
-0.250101
0.570017
-0.559293
-2.98249
-3.64405
-3.32849
0.0269249
-0.250607
-1.00961
-2.12769
-4.30914
-5.38344
-4.41486
-3.48795
-2.72359
-2.34566
-2.10073
-1.86597
-1.39664
-0.32568
0.0967972
-2.12499
-3.3879
-3.11698
-3.08321
-0.438092
-1.21449
-2.30491
-3.3131
-5.58991
-7.08711
-5.678
-4.21354
-3.23237
-2.80471
-2.57297
-2.47016
-2.34877
-1.42
-1.53783
-3.14365
-3.68994
-3.25484
-3.29333
-1.26042
-2.57671
-3.59985
-4.32648
-6.53132
-8.19122
-6.57366
-4.73652
-3.67475
-3.25617
-3.04878
-3.08003
-3.49997
-4.20907
-4.3893
-3.33889
-3.68585
-3.42781
-3.462
-2.33764
-3.63729
-4.23702
-4.83044
-6.67018
-8.15022
-6.67645
-5.01424
-4.03568
-3.62001
-3.45599
-3.53966
-4.14438
-5.27411
-5.32429
-3.40515
-3.57338
-3.48606
-3.49828
-3.20922
-4.03766
-4.52857
-5.09703
-6.46055
-7.33108
-6.37198
-5.06861
-4.25206
-3.88985
-3.74694
-3.80105
-4.22618
-5.01224
-4.75986
-3.65545
-3.56992
-3.52102
-3.51029
-3.61543
-4.26789
-4.77601
-5.28502
-6.30028
-6.62807
-5.93571
-4.95455
-4.34344
-4.05465
-3.91729
-3.9111
-4.1145
-4.59143
-4.04518
-3.68543
-3.62658
-3.57659
-3.55009
-3.84357
-4.4545
-4.95853
-5.42379
-6.02216
-6.07151
-5.49259
-4.7827
-4.35809
-4.13346
-4.00077
-3.95417
-4.01589
-4.16477
-3.89154
-3.71627
-3.69245
-3.65238
-3.62136
-4.00826
-4.58375
-5.06076
-5.44212
-5.71409
-5.57144
-5.10127
-4.62323
-4.33504
-4.16146
-4.04688
-3.98789
-3.96862
-3.89781
-3.92407
-3.77961
-3.76817
-3.74388
-3.71271
-4.15571
-4.67199
-5.09961
-5.36901
-5.40304
-5.1767
-4.81562
-4.49831
-4.29911
-4.17186
-4.09275
-4.05296
-3.994
-3.86121
-3.91903
-3.89425
-3.86646
-3.85193
-3.81695
-4.34818
-4.75864
-5.07133
-5.21839
-5.13872
-4.90395
-4.63011
-4.4083
-4.26798
-4.18507
-4.15474
-4.17801
-4.19393
-4.14209
-3.97233
-4.04441
-3.98343
-3.972
-3.93028
-4.60131
-4.88444
-5.04368
-5.05837
-4.93538
-4.7289
-4.51815
-4.35007
-4.25124
-4.20736
-4.2258
-4.32812
-4.49002
-4.52768
-4.09304
-4.15985
-4.1074
-4.09615
-4.04996
-4.9149
-5.07848
-5.1021
-4.99496
-4.82969
-4.63959
-4.46178
-4.32187
-4.25032
-4.23898
-4.29238
-4.44622
-4.70539
-4.90146
-4.24626
-4.26049
-4.23327
-4.22026
-4.17402
-5.29391
-5.33359
-5.23299
-5.03053
-4.81381
-4.61793
-4.44655
-4.3166
-4.26471
-4.27681
-4.35036
-4.52186
-4.74866
-5.00442
-4.45767
-4.36633
-4.35826
-4.34314
-4.30074
-5.71104
-5.63065
-5.42731
-5.15133
-4.87033
-4.64489
-4.46091
-4.33137
-4.29568
-4.33107
-4.4023
-4.55912
-4.72352
-4.93688
-4.63726
-4.47945
-4.47727
-4.46189
-4.42813
-6.11767
-5.93852
-5.64749
-5.34061
-5.02153
-4.76203
-4.53455
-4.38232
-4.35293
-4.40465
-4.46443
-4.57331
-4.69238
-4.86684
-4.70927
-4.58779
-4.58659
-4.57604
-4.5543
-6.48691
-6.22738
-5.85421
-5.52419
-5.21624
-4.96289
-4.73102
-4.5288
-4.46057
-4.49703
-4.53602
-4.6015
-4.6852
-4.79547
-4.74881
-4.68941
-4.69172
-4.68781
-4.67762
-6.70418
-6.43399
-6.01332
-5.65789
-5.36289
-5.13073
-4.93989
-4.75374
-4.65846
-4.60104
-4.61193
-4.6507
-4.73063
-4.80881
-4.81403
-4.79166
-4.79912
-4.80116
-4.79778
-6.68187
-6.46559
-6.08428
-5.73213
-5.43942
-5.23936
-5.09206
-4.95027
-4.87241
-4.73044
-4.67153
-4.70194
-4.80818
-4.88146
-4.89777
-4.89839
-4.9112
-4.91675
-4.91778
-6.47501
-6.34872
-6.06217
-5.74276
-5.47165
-5.27616
-5.18313
-5.10371
-5.04583
-4.86688
-4.73199
-4.768
-4.90542
-4.98215
-4.99774
-5.01145
-5.02827
-5.03545
-5.03901
-6.21703
-6.15592
-5.95469
-5.69724
-5.47099
-5.3051
-5.22152
-5.21131
-5.18811
-5.04136
-4.89665
-4.90342
-5.04182
-5.08632
-5.11348
-5.13103
-5.14994
-5.15736
-5.16219
-5.95907
-5.93383
-5.80622
-5.6245
-5.45733
-5.33484
-5.2827
-5.28734
-5.34262
-5.26799
-5.15707
-5.1067
-5.19397
-5.21079
-5.24294
-5.25538
-5.27526
-5.28218
-5.28752
-5.75189
-5.74597
-5.6723
-5.55785
-5.4487
-5.37008
-5.35467
-5.36935
-5.45398
-5.43181
-5.34245
-5.33572
-5.34816
-5.34289
-5.37791
-5.38278
-5.40354
-5.40989
-5.41532
-5.61873
-5.62075
-5.58199
-5.51711
-5.45371
-5.41124
-5.42156
-5.44245
-5.52238
-5.5229
-5.49192
-5.51984
-5.4873
-5.47073
-5.5136
-5.51309
-5.53465
-5.54079
-5.54608
-5.55439
-5.55851
-5.53993
-5.50696
-5.47467
-5.45777
-5.48304
-5.51323
-5.57479
-5.59752
-5.56258
-5.61525
-5.61741
-5.59256
-5.64802
-5.64597
-5.66789
-5.6743
-5.67927
-5.5425
-5.54672
-5.53957
-5.52423
-5.5101
-5.50871
-5.54086
-5.58013
-5.62276
-5.64423
-5.60458
-5.64282
-5.74782
-5.71439
-5.78106
-5.78017
-5.80123
-5.80819
-5.8127
-5.56768
-5.57119
-5.56994
-5.56437
-5.55846
-5.56312
-5.59781
-5.64842
-5.68341
-5.72678
-5.73038
-5.67647
-5.88966
-5.84474
-5.91301
-5.91513
-5.93382
-5.94131
-5.94531
-5.61717
-5.61969
-5.62105
-5.62248
-5.61742
-5.62271
-5.65958
-5.72355
-5.77362
-5.91194
-6.05734
-5.77638
-6.03921
-5.98945
-6.04969
-6.05581
-6.07139
-6.07907
-6.08259
-5.68514
-5.68504
-5.68419
-5.67954
-5.68194
-5.69178
-5.73556
-5.80159
-5.87966
-6.15123
-6.37068
-5.96063
-6.2066
-6.15855
-6.20503
-6.21097
-6.22408
-6.23144
-6.23426
)
;

boundaryField
{
    leftWall
    {
        type            calculated;
        value           nonuniform List<scalar> 
50
(
668.904
609.961
550.89
491.687
432.274
372.601
312.821
253.926
162.824
55.8853
4.17817
3.78701
3.46309
3.10235
2.70937
2.30447
1.9026
1.5152
1.14812
0.802821
0.475289
0.161724
-0.13969
-0.431837
-0.717061
-0.996351
-1.27027
-1.5392
-1.80324
-2.0621
-2.31508
-2.56116
-2.7991
-3.0277
-3.24619
-3.4544
-3.65269
-3.84145
-4.02131
-4.19305
-4.35755
-4.51576
-4.66864
-4.81711
-4.96205
-5.10428
-5.24445
-5.38345
-5.52112
-5.66155
)
;
    }
    rightWall
    {
        type            calculated;
        value           nonuniform List<scalar> 
50
(
997.07
935.779
871.116
806.211
742.141
677.268
611.786
548.095
458.604
352.523
262.563
186.716
102.79
34.3675
9.14655
7.96052
4.49817
0.0731471
-3.10472
-4.19371
-3.90099
-3.32849
-3.08321
-3.29333
-3.462
-3.49828
-3.51029
-3.55009
-3.62136
-3.71271
-3.81695
-3.93028
-4.04996
-4.17402
-4.30074
-4.42813
-4.5543
-4.67762
-4.79778
-4.91778
-5.03901
-5.16219
-5.28752
-5.41532
-5.54608
-5.67927
-5.8127
-5.94531
-6.08259
-6.23426
)
;
    }
    lowerWall
    {
        type            calculated;
        value           nonuniform List<scalar> 
62
(
698.333
698.323
698.452
698.647
698.738
698.721
698.688
698.799
699.154
699.754
700.551
701.503
702.586
703.782
705.065
706.395
707.709
708.961
709.917
710.594
711.297
712.321
713.169
683.74
624.822
566.936
509.543
452.341
395.524
339.444
284.596
306.657
439.029
528.738
517.5
993.605
975.728
962.343
952.548
949.732
949.076
942.462
900.74
1002.75
965.654
940.283
896.043
756.253
564.527
522.065
626.722
741.362
787.347
774.033
779.908
808.521
845.792
894.259
932.977
962.075
1006.95
1025.04
)
;
    }
    atmosphere
    {
        type            calculated;
        value           nonuniform List<scalar> 
46
(
-5.72904
-5.72904
-5.72904
-5.72904
-5.72904
-5.72904
-5.72904
-5.72904
-5.72904
-5.72904
-5.72904
-5.72904
-5.72904
-5.72904
-5.72904
-5.72904
-5.72904
-5.72904
-5.72904
-5.72904
-5.72904
-5.72904
-5.72904
-5.72904
-5.72904
-5.72904
-5.72904
-5.72904
-5.72904
-5.72904
-5.72904
-5.72909
-5.73747
-5.78585
-5.83606
-5.92155
-6.2342
-6.43732
-6.09866
-6.33009
-6.25155
-6.29846
-6.29928
-6.31229
-6.31952
-6.32162
)
;
    }
    defaultFaces
    {
        type            empty;
    }
}


// ************************************************************************* //
