/*--------------------------------*- C++ -*----------------------------------*\
| =========                 |                                                 |
| \\      /  F ield         | OpenFOAM: The Open Source CFD Toolbox           |
|  \\    /   O peration     | Version:  2206                                  |
|   \\  /    A nd           | Website:  www.openfoam.com                      |
|    \\/     M anipulation  |                                                 |
\*---------------------------------------------------------------------------*/
FoamFile
{
    version     2.0;
    format      ascii;
    arch        "LSB;label=32;scalar=64";
    class       surfaceScalarField;
    location    "0.925";
    object      phi;
}
// * * * * * * * * * * * * * * * * * * * * * * * * * * * * * * * * * * * * * //

dimensions      [0 3 -1 0 0 0 0];

oriented        oriented;

internalField   nonuniform List<scalar> 
4432
(
-6.14839e-07
6.14839e-07
-6.44513e-07
2.96749e-08
6.99354e-09
-6.51505e-07
1.02361e-06
-1.01662e-06
2.16967e-06
-1.14606e-06
3.17048e-06
-1.00081e-06
3.88257e-06
-7.12097e-07
4.27876e-06
-3.96182e-07
4.38181e-06
-1.03056e-07
4.23697e-06
1.44839e-07
3.90609e-06
3.30886e-07
3.46928e-06
4.36802e-07
2.97534e-06
4.93939e-07
2.42439e-06
5.50954e-07
1.77792e-06
6.4647e-07
9.83582e-07
7.94333e-07
-2.75163e-09
9.86332e-07
-1.24034e-06
1.23758e-06
-2.50845e-06
1.26811e-06
-3.30733e-06
7.98889e-07
-3.20172e-06
-1.05609e-07
-1.95087e-06
-1.25085e-06
-1.95087e-06
-7.27196e-07
1.34204e-06
-6.93784e-07
-3.73535e-09
-6.65377e-08
-1.27875e-06
9.07874e-07
-1.99103e-06
2.063e-06
-2.30118e-06
3.10698e-06
-2.04479e-06
3.84356e-06
-1.44867e-06
4.26671e-06
-8.19329e-07
4.4516e-06
-2.87947e-07
4.46475e-06
1.31688e-07
4.34877e-06
4.4686e-07
4.12806e-06
6.57508e-07
3.83764e-06
7.84361e-07
3.50692e-06
8.81677e-07
3.13782e-06
1.01557e-06
2.69349e-06
1.23866e-06
2.11747e-06
1.56235e-06
1.42391e-06
1.93114e-06
6.81318e-07
2.01071e-06
5.27524e-10
1.47968e-06
-6.56331e-07
5.51253e-07
-7.17306e-07
-1.18987e-06
-2.66817e-06
-7.63864e-07
2.1059e-06
-8.7331e-07
1.05711e-07
-6.20985e-07
-1.53108e-06
2.60814e-08
-2.6381e-06
1.14171e-06
-3.41681e-06
2.38019e-06
-3.28327e-06
3.3285e-06
-2.39698e-06
3.87263e-06
-1.36346e-06
4.11327e-06
-5.28592e-07
4.16797e-06
7.69894e-08
4.08778e-06
5.27051e-07
3.92506e-06
8.2022e-07
3.71792e-06
9.91504e-07
3.50647e-06
1.09313e-06
3.32865e-06
1.19338e-06
3.21466e-06
1.35265e-06
3.17387e-06
1.60314e-06
3.19564e-06
1.90937e-06
3.11313e-06
2.09322e-06
2.75893e-06
1.83389e-06
2.25271e-06
1.05747e-06
1.18169e-06
-1.1884e-07
-1.48648e-06
-9.12507e-07
3.01841e-06
-1.51811e-06
7.11316e-07
-2.05599e-06
-9.93198e-07
-1.9275e-06
-2.76659e-06
-9.89074e-07
-4.35524e-06
4.69402e-07
-4.74174e-06
1.91641e-06
-3.84399e-06
2.90274e-06
-2.34978e-06
3.43812e-06
-1.06396e-06
3.67744e-06
-1.62331e-07
3.74827e-06
4.5622e-07
3.71065e-06
8.57844e-07
3.60947e-06
1.09268e-06
3.48361e-06
1.21899e-06
3.37153e-06
1.30546e-06
3.31279e-06
1.41139e-06
3.34777e-06
1.56816e-06
3.48872e-06
1.76842e-06
3.63642e-06
1.94552e-06
3.538e-06
1.93231e-06
2.93689e-06
1.65859e-06
1.67711e-06
1.14095e-06
1.90625e-07
-1.18929e-06
4.2077e-06
-2.50269e-06
2.02471e-06
-3.68352e-06
1.87634e-07
-3.98478e-06
-2.46533e-06
-3.41297e-06
-4.92705e-06
-2.11361e-06
-6.0411e-06
-3.48768e-07
-5.60883e-06
1.25369e-06
-3.95224e-06
2.29437e-06
-2.10464e-06
2.88505e-06
-7.53015e-07
3.21256e-06
1.28719e-07
3.38073e-06
6.89674e-07
3.45174e-06
1.02167e-06
3.46204e-06
1.2087e-06
3.44074e-06
1.32676e-06
3.41191e-06
1.44022e-06
3.39652e-06
1.58355e-06
3.40881e-06
1.75613e-06
3.4238e-06
1.93053e-06
3.29981e-06
2.0563e-06
2.8082e-06
2.15019e-06
1.72341e-06
2.22575e-06
1.91403e-06
-1.30495e-06
5.51265e-06
-2.86171e-06
3.58148e-06
-4.10411e-06
1.43003e-06
-4.561e-06
-2.00844e-06
-4.45125e-06
-5.0368e-06
-3.76897e-06
-6.72338e-06
-2.39552e-06
-6.98228e-06
-6.28853e-07
-5.7189e-06
8.52104e-07
-3.5856e-06
1.83523e-06
-1.73614e-06
2.46556e-06
-5.01607e-07
2.88656e-06
2.68681e-07
3.17298e-06
7.35255e-07
3.36557e-06
1.0161e-06
3.48611e-06
1.20623e-06
3.54744e-06
1.37889e-06
3.55367e-06
1.57732e-06
3.49745e-06
1.81235e-06
3.3557e-06
2.07228e-06
3.06741e-06
2.34459e-06
2.5256e-06
2.692e-06
1.54647e-06
3.20487e-06
3.4605e-06
-8.07471e-07
6.32012e-06
-1.80274e-06
4.57674e-06
-2.50411e-06
2.1314e-06
-2.68165e-06
-1.8309e-06
-2.81047e-06
-4.90797e-06
-2.98868e-06
-6.54517e-06
-2.73088e-06
-7.24008e-06
-1.73552e-06
-6.71426e-06
-4.41697e-07
-4.87942e-06
7.05407e-07
-2.88324e-06
1.58296e-06
-1.37916e-06
2.24585e-06
-3.94203e-07
2.76468e-06
2.16424e-07
3.16877e-06
6.12022e-07
3.47847e-06
8.96518e-07
3.68825e-06
1.16912e-06
3.78879e-06
1.47677e-06
3.76755e-06
1.83359e-06
3.6092e-06
2.23063e-06
3.2973e-06
2.65649e-06
2.76328e-06
3.22601e-06
1.97591e-06
3.99224e-06
5.43641e-06
2.36358e-07
6.08376e-06
8.76802e-08
4.72542e-06
5.51305e-07
1.66778e-06
1.21453e-06
-2.49413e-06
1.18039e-06
-4.87383e-06
3.19343e-07
-5.68413e-06
-7.08808e-07
-6.21192e-06
-1.08346e-06
-6.3396e-06
-7.26121e-07
-5.23676e-06
5.08872e-09
-3.61445e-06
8.28755e-07
-2.20282e-06
1.61562e-06
-1.18107e-06
2.32656e-06
-4.94505e-07
2.92562e-06
1.29649e-08
3.43832e-06
3.83818e-07
3.83201e-06
7.75429e-07
4.07497e-06
1.23381e-06
4.13241e-06
1.77616e-06
4.01016e-06
2.35288e-06
3.69085e-06
2.9758e-06
2.99878e-06
3.91808e-06
1.94382e-06
5.04721e-06
7.38022e-06
2.42304e-05
-2.42304e-05
8.04743e-06
1.61829e-05
-2.67206e-05
3.4768e-05
-4.0147e-05
1.34264e-05
-5.61522e-05
1.60052e-05
-9.29052e-05
3.6753e-05
-0.000115431
2.25255e-05
-0.000104068
-1.13628e-05
-8.05323e-05
-2.35356e-05
-5.99129e-05
-2.06194e-05
-5.28953e-05
-7.01757e-06
-6.4548e-05
1.16526e-05
-8.29302e-05
1.83822e-05
-8.77155e-05
4.7853e-06
-7.50053e-05
-1.27102e-05
-5.75728e-05
-1.74325e-05
-4.08797e-05
-1.66931e-05
-1.83772e-05
-2.25025e-05
-1.83772e-05
6.45081e-06
-3.06812e-05
-2.44713e-06
2.50809e-05
-4.19984e-05
7.43194e-05
-8.31526e-05
5.45805e-05
-0.000110092
4.29451e-05
-0.000130033
5.66939e-05
-0.000132051
2.45427e-05
-0.000118912
-2.45016e-05
-0.000108025
-3.44222e-05
-0.000101078
-2.75667e-05
-0.000101155
-6.94003e-06
-0.000103236
1.37331e-05
-9.72879e-05
1.24342e-05
-8.03509e-05
-1.21518e-05
-6.07646e-05
-3.22965e-05
-4.42408e-05
-3.39563e-05
-3.03159e-05
-3.0618e-05
-1.51776e-05
-3.76408e-05
-3.35548e-05
3.77964e-06
-3.44608e-05
2.26813e-05
6.17926e-06
-5.9553e-06
0.000102956
-7.09739e-05
0.000119599
-0.000109149
8.11204e-05
-0.000116097
6.36416e-05
-0.000109313
1.77588e-05
-9.92041e-05
-3.46105e-05
-9.80693e-05
-3.5557e-05
-9.76273e-05
-2.80088e-05
-9.71183e-05
-7.449e-06
-9.14666e-05
8.08139e-06
-7.55635e-05
-3.46883e-06
-5.46302e-05
-3.30851e-05
-3.47812e-05
-5.21456e-05
-1.88891e-05
-4.98483e-05
-9.8259e-06
-3.96812e-05
-5.58533e-06
-4.18813e-05
-3.91402e-05
1.54745e-05
-4.99353e-05
5.08605e-05
-2.92068e-05
5.18312e-05
0.000101985
-1.34661e-05
0.000184896
-7.51604e-05
0.000142815
-7.74827e-05
6.59639e-05
-5.85078e-05
-1.21615e-06
-4.91056e-05
-4.40127e-05
-6.57293e-05
-1.89333e-05
-7.6224e-05
-1.7514e-05
-7.55666e-05
-8.10645e-06
-6.65688e-05
-9.1638e-07
-4.9253e-05
-2.07847e-05
-2.80551e-05
-5.4283e-05
-9.0727e-06
-7.11279e-05
3.19491e-06
-6.21159e-05
9.18638e-06
-4.56727e-05
5.76887e-06
-3.84638e-05
-3.33713e-05
3.05998e-06
-5.29953e-05
9.41803e-06
-3.55648e-05
3.54058e-05
7.59975e-05
3.47031e-05
0.000185599
-8.18732e-06
0.000185705
-2.08942e-05
7.86707e-05
2.49252e-06
-2.46028e-05
7.03858e-06
-4.85587e-05
-2.05394e-05
8.64468e-06
-4.93443e-05
1.12909e-05
-5.3612e-05
-3.83869e-06
-4.36324e-05
-1.0896e-05
-2.63345e-05
-3.80826e-05
-8.67578e-06
-7.19417e-05
5.14716e-06
-8.49509e-05
1.53808e-05
-7.23495e-05
1.96956e-05
-4.99876e-05
1.24391e-05
-3.12073e-05
-2.09321e-05
-2.6529e-05
-2.64663e-05
-2.98779e-05
-3.22159e-05
3.27731e-06
4.28423e-05
4.02028e-05
0.000148674
4.29817e-05
0.000182926
4.02454e-05
8.1407e-05
4.66433e-05
-3.10007e-05
3.37845e-05
-3.56999e-05
7.09521e-06
3.5334e-05
-2.23592e-05
4.07453e-05
-3.21775e-05
5.97957e-06
-2.39028e-05
-1.91707e-05
-1.00345e-05
-5.19508e-05
-1.35052e-06
-8.06257e-05
3.54206e-06
-8.98435e-05
1.25173e-05
-8.13248e-05
1.92665e-05
-5.67367e-05
1.36572e-05
-2.5598e-05
-7.27491e-06
-5.15805e-05
2.51142e-05
-5.9083e-05
-2.47135e-05
-2.75148e-05
1.1274e-05
2.58707e-05
9.52881e-05
6.11896e-05
0.000147607
7.80506e-05
6.4546e-05
7.54358e-05
-2.83859e-05
5.19668e-05
-1.2231e-05
2.47719e-05
6.25289e-05
-2.49741e-06
6.80147e-05
-1.3737e-05
1.72191e-05
-9.59705e-06
-2.33106e-05
-5.86824e-06
-5.56796e-05
-9.61084e-06
-7.68831e-05
-9.49545e-06
-8.99588e-05
3.39968e-07
-9.11603e-05
1.14569e-05
-6.78537e-05
1.00034e-05
-2.41446e-05
2.7285e-06
-7.21425e-05
9.72567e-05
-8.91142e-05
-7.74173e-06
-7.14437e-05
-6.39648e-06
-1.57981e-05
3.96425e-05
4.67509e-05
8.50584e-05
7.43654e-05
3.69315e-05
5.91482e-05
-1.31688e-05
2.6842e-05
2.00753e-05
1.24432e-05
7.69277e-05
5.18545e-06
7.52724e-05
-1.97207e-06
2.43767e-05
-6.7956e-06
-1.84871e-05
-1.74325e-05
-4.50427e-05
-2.73287e-05
-6.69869e-05
-2.54655e-05
-9.18221e-05
-1.3264e-05
-0.000103362
4.9271e-07
-8.16103e-05
4.61203e-06
-2.82639e-05
7.34053e-06
5.81708e-06
2.66685e-07
1.00837e-05
4.58757e-07
1.33438e-05
-1.59228e-06
1.48789e-05
-4.02922e-06
1.43002e-05
-4.29513e-06
1.16757e-05
-3.0596e-06
8.13296e-06
-2.66921e-06
5.30176e-06
-3.5084e-06
3.78436e-06
-3.71936e-06
3.29835e-06
-3.12844e-06
3.66368e-06
-2.56816e-06
4.66706e-06
-2.18445e-06
6.05076e-06
-1.8782e-06
7.60607e-06
-1.54234e-06
9.04532e-06
-1.05543e-06
1.02126e-05
-3.91823e-07
1.11069e-05
3.39506e-07
1.14971e-05
1.38598e-06
1.17517e-05
2.09826e-06
1.21587e-05
2.56874e-06
1.29481e-05
3.12874e-06
1.42435e-05
3.75178e-06
5.28555e-06
1.63382e-05
5.79226e-06
-5.52557e-06
1.15291e-05
-5.27808e-06
1.57924e-05
-5.8556e-06
1.74612e-05
-5.69798e-06
1.69028e-05
-3.73678e-06
1.53125e-05
-1.46928e-06
1.45123e-05
-1.86905e-06
1.37604e-05
-2.75647e-06
1.28936e-05
-2.85255e-06
1.22555e-05
-2.49032e-06
1.16326e-05
-1.94528e-06
1.10344e-05
-1.58623e-06
1.07966e-05
-1.64046e-06
1.13638e-05
-2.10946e-06
1.264e-05
-2.33168e-06
1.41333e-05
-1.88512e-06
1.50501e-05
-5.77301e-07
1.54605e-05
9.75555e-07
1.59872e-05
1.57164e-06
1.72643e-05
1.29163e-06
1.93588e-05
1.03419e-06
2.01365e-05
2.97409e-06
6.96471e-06
1.84573e-05
-1.51927e-05
9.66708e-06
-3.65745e-05
1.61037e-05
-4.97577e-05
7.32764e-06
-4.76988e-05
-7.75695e-06
-3.17332e-05
-1.97023e-05
-1.86633e-05
-1.45393e-05
-1.78897e-05
-2.64263e-06
-2.16662e-05
1.02003e-06
-2.21166e-05
-2.40215e-06
-1.89398e-05
-5.66716e-06
-2.0023e-05
-8.62127e-07
-2.67812e-05
5.17192e-06
-3.93961e-05
1.09744e-05
-5.53447e-05
1.38391e-05
-7.36879e-05
1.60115e-05
-9.04002e-05
1.48272e-05
-9.94887e-05
8.51122e-06
-0.000100479
1.9662e-06
-9.77276e-05
-1.18003e-06
-9.13862e-05
-5.04971e-06
-8.33776e-05
-6.97436e-06
-7.89047e-05
-1.49884e-06
8.28971e-06
-8.02297e-05
-1.40626e-05
2.37296e-05
-3.29122e-05
3.49531e-05
-5.53101e-05
2.97254e-05
-8.06905e-05
1.76234e-05
-0.000112205
1.18126e-05
-0.000145436
1.86914e-05
-0.000171029
2.29497e-05
-0.000184983
1.49747e-05
-0.000192811
5.42565e-06
-0.000202543
4.06519e-06
-0.000213052
9.64648e-06
-0.000223903
1.6023e-05
-0.000232006
1.90767e-05
-0.000238425
2.02587e-05
-0.0002409
1.84862e-05
-0.000237359
1.12862e-05
-0.000231506
2.65869e-06
-0.000224875
-4.66544e-06
-0.000214104
-1.1951e-05
-0.000201189
-1.79642e-05
-0.00019043
-1.77333e-05
-0.000183531
-8.39824e-06
4.80302e-06
-0.000180045
-1.34714e-05
3.72007e-05
-2.42516e-05
4.57332e-05
-4.3408e-05
4.88817e-05
-7.2959e-05
4.71742e-05
-0.0001107
4.95532e-05
-0.000144275
5.22666e-05
-0.000171186
4.98608e-05
-0.000196622
4.04104e-05
-0.000220149
2.89525e-05
-0.000241421
2.53374e-05
-0.000261032
2.92566e-05
-0.000278422
3.34132e-05
-0.000289603
3.02572e-05
-0.000291137
2.17936e-05
-0.000284844
1.21932e-05
-0.000275271
1.71258e-06
-0.000266007
-6.60535e-06
-0.000258597
-1.20754e-05
-0.00025474
-1.58069e-05
-0.000255894
-1.6811e-05
-0.000259138
-1.44889e-05
-0.000261561
-5.97507e-06
5.1704e-06
-0.000261929
-1.40603e-05
5.12609e-05
-2.41517e-05
5.58244e-05
-3.75563e-05
6.22861e-05
-5.79839e-05
6.76017e-05
-8.11915e-05
7.27607e-05
-0.000103604
7.46786e-05
-0.000126005
7.22619e-05
-0.000151121
6.55272e-05
-0.000178711
5.65427e-05
-0.000204812
5.14375e-05
-0.000226619
5.10642e-05
-0.000241403
4.81972e-05
-0.000247906
3.67596e-05
-0.000247066
2.09535e-05
-0.000239849
4.97655e-06
-0.000229591
-8.54532e-06
-0.000218709
-1.74884e-05
-0.000209298
-2.14857e-05
-0.000204329
-2.07759e-05
-0.000206499
-1.46416e-05
-0.000215177
-5.81106e-06
-0.000224749
3.5972e-06
1.20038e-05
-0.000231582
-1.36183e-05
6.48792e-05
-2.41843e-05
6.63903e-05
-3.38827e-05
7.19844e-05
-4.49729e-05
7.86918e-05
-5.55677e-05
8.33555e-05
-6.56909e-05
8.48019e-05
-7.7379e-05
8.39501e-05
-9.28328e-05
8.09808e-05
-0.000112872
7.65812e-05
-0.000134605
7.31712e-05
-0.000153969
7.0428e-05
-0.000169362
6.35899e-05
-0.000181299
4.86959e-05
-0.000187589
2.72439e-05
-0.000186952
4.33978e-06
-0.000182184
-1.33136e-05
-0.000175498
-2.41734e-05
-0.000167875
-2.91091e-05
-0.000161302
-2.7349e-05
-0.000156564
-1.93798e-05
-0.000152429
-9.94568e-06
-0.000149283
4.51302e-07
1.15773e-05
-0.000148857
-1.22839e-05
7.71631e-05
-2.13388e-05
7.54452e-05
-2.80137e-05
7.86592e-05
-3.35023e-05
8.41804e-05
-3.7582e-05
8.74353e-05
-4.08911e-05
8.81111e-05
-4.47713e-05
8.78305e-05
-5.0969e-05
8.71788e-05
-6.04084e-05
8.60208e-05
-7.18504e-05
8.46133e-05
-8.41441e-05
8.27217e-05
-9.85226e-05
7.79683e-05
-0.000116862
6.7035e-05
-0.000137615
4.79973e-05
-0.00015596
2.26842e-05
-0.000167952
-1.32138e-06
-0.000174621
-1.75045e-05
-0.000177198
-2.65326e-05
-0.000176079
-2.84674e-05
-0.000171344
-2.41154e-05
-0.000167791
-1.34986e-05
-0.000167116
-2.24141e-07
1.11651e-05
-0.000166703
-1.0659e-05
8.78221e-05
-1.77414e-05
8.25276e-05
-2.17046e-05
8.26223e-05
-2.39678e-05
8.64435e-05
-2.51214e-05
8.85889e-05
-2.5733e-05
8.87228e-05
-2.63736e-05
8.84712e-05
-2.76787e-05
8.84839e-05
-3.02349e-05
8.8577e-05
-3.40104e-05
8.83887e-05
-3.90395e-05
8.77506e-05
-4.70705e-05
8.59993e-05
-6.15798e-05
8.15444e-05
-8.56048e-05
7.20224e-05
-0.000118395
5.54745e-05
-0.00015319
3.3474e-05
-0.000181948
1.12531e-05
-0.000202536
-5.94402e-06
-0.000213445
-1.75582e-05
-0.000215923
-2.16376e-05
-0.000212385
-1.7037e-05
-0.000205339
-7.27021e-06
7.37092e-06
-0.000201544
-8.51165e-06
9.63337e-05
-1.43401e-05
8.8356e-05
-1.65363e-05
8.48185e-05
-1.71307e-05
8.7038e-05
-1.71094e-05
8.85676e-05
-1.69073e-05
8.85209e-05
-1.67792e-05
8.83433e-05
-1.67401e-05
8.84452e-05
-1.68034e-05
8.86405e-05
-1.69365e-05
8.85219e-05
-1.72537e-05
8.80678e-05
-1.8743e-05
8.74885e-05
-2.38033e-05
8.66046e-05
-3.59136e-05
8.41325e-05
-5.84087e-05
7.79696e-05
-9.20797e-05
6.7145e-05
-0.000130717
4.98904e-05
-0.000167292
3.06304e-05
-0.000197909
1.30595e-05
-0.00021861
-9.36627e-07
-0.000227801
-7.84667e-06
-0.000230608
-4.46291e-06
3.82966e-06
-0.000227067
-5.13155e-06
0.000101465
-1.05838e-05
9.38082e-05
-1.22642e-05
8.64987e-05
-1.24832e-05
8.7257e-05
-1.23864e-05
8.84708e-05
-1.22941e-05
8.84287e-05
-1.23308e-05
8.83801e-05
-1.23204e-05
8.84349e-05
-1.19679e-05
8.82881e-05
-1.10002e-05
8.75542e-05
-9.25389e-06
8.63215e-05
-6.92741e-06
8.51621e-05
-4.91123e-06
8.45885e-05
-5.63081e-06
8.48523e-05
-1.35535e-05
8.58926e-05
-3.32312e-05
8.68227e-05
-6.42862e-05
8.09455e-05
-0.000101238
6.75819e-05
-0.000138672
5.04943e-05
-0.000172087
3.24779e-05
-0.000196507
1.65733e-05
-0.000214641
1.3672e-05
1.56525e-05
-0.000226464
-1.13596e-06
0.000102601
-6.26232e-06
9.89346e-05
-8.28375e-06
8.85201e-05
-9.09668e-06
8.80697e-05
-9.60732e-06
8.89814e-05
-1.01115e-05
8.89328e-05
-1.06396e-05
8.89083e-05
-1.09948e-05
8.87902e-05
-1.08439e-05
8.81372e-05
-9.83275e-06
8.6543e-05
-7.62292e-06
8.41117e-05
-4.0041e-06
8.15433e-05
6.17518e-07
7.99668e-05
4.1818e-06
8.1288e-05
4.12594e-06
8.59485e-05
-1.07512e-06
9.20237e-05
-1.3564e-05
9.34342e-05
-3.26665e-05
8.66844e-05
-5.49223e-05
7.275e-05
-7.77069e-05
5.52625e-05
-0.000103604
4.24706e-05
-0.000126904
3.6972e-05
3.02156e-05
-0.000141467
1.30385e-06
0.000101297
-2.4677e-06
0.000102706
-4.94799e-06
9.10005e-05
-6.73235e-06
8.98542e-05
-8.10994e-06
9.03592e-05
-9.37979e-06
9.02028e-05
-1.05271e-05
9.00558e-05
-1.13907e-05
8.9654e-05
-1.17265e-05
8.84729e-05
-1.12467e-05
8.60632e-05
-9.65922e-06
8.25242e-05
-6.83177e-06
7.8716e-05
-3.7054e-06
7.68405e-05
-1.51596e-06
7.90985e-05
-3.17142e-07
8.47497e-05
3.9602e-07
9.13107e-05
-1.5095e-06
9.53395e-05
-8.15423e-06
9.3329e-05
-1.98324e-05
8.44284e-05
-3.63528e-05
7.17828e-05
-5.59243e-05
6.20423e-05
-7.61451e-05
5.71926e-05
5.24742e-05
-9.84037e-05
1.28168e-06
0.000100016
-4.92698e-07
0.000104481
-3.13242e-06
9.36399e-05
-5.69537e-06
9.2417e-05
-7.84882e-06
9.25126e-05
-9.84492e-06
9.21989e-05
-1.16592e-05
9.18701e-05
-1.31922e-05
9.1187e-05
-1.43253e-05
8.96058e-05
-1.49355e-05
8.66732e-05
-1.49814e-05
8.25701e-05
-1.47662e-05
7.85009e-05
-1.52277e-05
7.73022e-05
-1.62119e-05
8.00827e-05
-1.63653e-05
8.49028e-05
-1.51808e-05
9.01261e-05
-1.38558e-05
9.40146e-05
-1.45219e-05
9.39951e-05
-1.89737e-05
8.88802e-05
-2.81256e-05
8.09348e-05
-4.09978e-05
7.49147e-05
-5.58997e-05
7.20943e-05
6.94076e-05
-7.28329e-05
3.34702e-08
9.99823e-05
-4.14693e-07
0.000104929
-3.04191e-06
9.62674e-05
-6.00156e-06
9.53768e-05
-8.68275e-06
9.5194e-05
-1.12593e-05
9.47756e-05
-1.37113e-05
9.43221e-05
-1.60095e-05
9.34849e-05
-1.8161e-05
9.17571e-05
-2.02356e-05
8.87477e-05
-2.24529e-05
8.47875e-05
-2.5349e-05
8.13969e-05
-2.89263e-05
8.08794e-05
-3.20275e-05
8.31839e-05
-3.36129e-05
8.64881e-05
-3.34837e-05
8.99966e-05
-3.21908e-05
9.27214e-05
-3.12542e-05
9.30584e-05
-3.27326e-05
9.03583e-05
-3.80417e-05
8.62438e-05
-4.65083e-05
8.33813e-05
-5.65168e-05
8.21026e-05
8.04751e-05
-6.75841e-05
-1.29614e-06
0.000101278
-1.44396e-06
0.000105077
-4.08669e-06
9.89101e-05
-7.16179e-06
9.84521e-05
-1.01323e-05
9.81647e-05
-1.31036e-05
9.77472e-05
-1.60682e-05
9.72869e-05
-1.90603e-05
9.64769e-05
-2.2192e-05
9.48887e-05
-2.56797e-05
9.22353e-05
-2.98468e-05
8.89547e-05
-3.49421e-05
8.64923e-05
-4.0203e-05
8.61403e-05
-4.44706e-05
8.74514e-05
-4.73673e-05
8.93848e-05
-4.88734e-05
9.15026e-05
-4.93091e-05
9.31571e-05
-4.97533e-05
9.35025e-05
-5.17876e-05
9.23925e-05
-5.63613e-05
9.08174e-05
-6.28632e-05
8.98833e-05
-7.01277e-05
8.9367e-05
8.81989e-05
-7.78515e-05
-2.19942e-06
0.000103478
-2.78736e-06
0.000105665
-5.48648e-06
0.000101609
-8.54101e-06
0.000101507
-1.16348e-05
0.000101258
-1.48278e-05
0.00010094
-1.81285e-05
0.000100587
-2.16134e-05
9.99616e-05
-2.54569e-05
9.8732e-05
-2.99295e-05
9.67077e-05
-3.52791e-05
9.43042e-05
-4.13288e-05
9.25419e-05
-4.72293e-05
9.20407e-05
-5.22967e-05
9.25185e-05
-5.64245e-05
9.35123e-05
-5.96784e-05
9.47564e-05
-6.23428e-05
9.58214e-05
-6.5146e-05
9.63055e-05
-6.89641e-05
9.62106e-05
-7.41427e-05
9.5996e-05
-8.02294e-05
9.597e-05
-8.67839e-05
9.59216e-05
9.54348e-05
-9.40197e-05
-2.58473e-06
0.000106063
-3.87563e-06
0.000106956
-6.61742e-06
0.000104351
-9.59535e-06
0.000104485
-1.26924e-05
0.000104356
-1.59439e-05
0.000104192
-1.93726e-05
0.000104016
-2.3071e-05
0.00010366
-2.72265e-05
0.000102888
-3.20897e-05
0.000101571
-3.77776e-05
9.99922e-05
-4.39729e-05
9.87371e-05
-5.00757e-05
9.81436e-05
-5.57089e-05
9.81517e-05
-6.08317e-05
9.86351e-05
-6.5525e-05
9.94498e-05
-7.00166e-05
0.000100313
-7.47059e-05
0.000100995
-7.99668e-05
0.000101471
-8.58778e-05
0.000101907
-9.23351e-05
0.000102427
-9.95853e-05
0.000103172
0.000104065
-0.000108215
-2.58413e-06
0.000108647
-4.45557e-06
0.000108827
-7.18992e-06
0.000107086
-1.00645e-05
0.00010736
-1.30786e-05
0.00010737
-1.62565e-05
0.00010737
-1.96282e-05
0.000107388
-2.32802e-05
0.000107312
-2.7377e-05
0.000106984
-3.21175e-05
0.000106312
-3.75539e-05
0.000105429
-4.34483e-05
0.000104632
-4.94334e-05
0.000104129
-5.52831e-05
0.000104001
-6.09414e-05
0.000104293
-6.64653e-05
0.000104974
-7.19986e-05
0.000105847
-7.77336e-05
0.00010673
-8.38157e-05
0.000107554
-9.03293e-05
0.000108421
-9.75223e-05
0.00010962
-0.000106041
0.00011169
0.000114356
-0.000116332
-2.35147e-06
0.000110998
-4.52628e-06
0.000111002
-7.1762e-06
0.000109736
-9.90508e-06
0.000110088
-1.27568e-05
0.000110222
-1.57521e-05
0.000110365
-1.89215e-05
0.000110557
-2.23347e-05
0.000110725
-2.61185e-05
0.000110768
-3.04217e-05
0.000110615
-3.52964e-05
0.000110303
-4.06247e-05
0.00010996
-4.621e-05
0.000109714
-5.19008e-05
0.000109692
-5.76205e-05
0.000110013
-6.33787e-05
0.000110732
-6.92597e-05
0.000111728
-7.53633e-05
0.000112834
-8.17842e-05
0.000113975
-8.87034e-05
0.00011534
-9.65911e-05
0.000117508
-0.000106155
0.000121255
0.00012552
-0.000117319
-2.00961e-06
0.000113008
-4.21788e-06
0.00011321
-6.69363e-06
0.000112212
-9.21384e-06
0.000112609
-1.18268e-05
0.000112835
-1.45528e-05
0.000113091
-1.74179e-05
0.000113423
-2.04737e-05
0.000113781
-2.38098e-05
0.000114104
-2.75357e-05
0.000114341
-3.17167e-05
0.000114484
-3.63308e-05
0.000114574
-4.12964e-05
0.00011468
-4.65177e-05
0.000114914
-5.19165e-05
0.000115412
-5.74658e-05
0.000116281
-6.32138e-05
0.000117476
-6.92271e-05
0.000118847
-7.56098e-05
0.000120357
-8.26073e-05
0.000122337
-9.07537e-05
0.000125655
-0.000100589
0.00013109
0.000136525
-0.000111593
-1.63407e-06
0.000114642
-3.67384e-06
0.00011525
-5.88516e-06
0.000114423
-8.12342e-06
0.000114847
-1.04262e-05
0.000115138
-1.28129e-05
0.000115478
-1.53038e-05
0.000115913
-1.7935e-05
0.000116412
-2.07673e-05
0.000116937
-2.3879e-05
0.000117452
-2.73382e-05
0.000117944
-3.11774e-05
0.000118413
-3.53878e-05
0.000118891
-3.9925e-05
0.000119451
-4.47301e-05
0.000120217
-4.97619e-05
0.000121313
-5.50362e-05
0.00012275
-6.0607e-05
0.000124418
-6.65752e-05
0.000126326
-7.31688e-05
0.000128931
-8.08377e-05
0.000133324
-8.992e-05
0.000140172
0.000146308
-9.97035e-05
-1.25708e-06
0.000115899
-2.99525e-06
0.000116988
-4.86155e-06
0.000116289
-6.74634e-06
0.000116732
-8.67531e-06
0.000117067
-1.06648e-05
0.000117468
-1.27295e-05
0.000117978
-1.48946e-05
0.000118578
-1.72008e-05
0.000119243
-1.9702e-05
0.000119954
-2.24571e-05
0.000120699
-2.55173e-05
0.000121474
-2.8913e-05
0.000122286
-3.26412e-05
0.000123179
-3.66709e-05
0.000124247
-4.09624e-05
0.000125605
-4.55086e-05
0.000127296
-5.03518e-05
0.000129261
-5.55594e-05
0.000131533
-6.12719e-05
0.000134644
-6.77812e-05
0.000139833
-7.5297e-05
0.000147688
0.00015428
-8.32691e-05
-8.81644e-07
0.000116781
-2.23798e-06
0.000118344
-3.6969e-06
0.000117748
-5.1693e-06
0.000118205
-6.67228e-06
0.00011857
-8.21741e-06
0.000119013
-9.8143e-06
0.000119575
-1.14809e-05
0.000120244
-1.32445e-05
0.000121007
-1.51415e-05
0.000121851
-1.72154e-05
0.000122773
-1.9514e-05
0.000123772
-2.20807e-05
0.000124853
-2.49378e-05
0.000126037
-2.8078e-05
0.000127387
-3.1473e-05
0.000129
-3.51113e-05
0.000130935
-3.90208e-05
0.000133171
-4.32289e-05
0.000135741
-4.77634e-05
0.000139178
-5.27501e-05
0.00014482
-5.83791e-05
0.000153317
0.000160469
-6.45686e-05
-4.9913e-07
0.00011728
-1.42941e-06
0.000119274
-2.43912e-06
0.000118758
-3.45786e-06
0.000119224
-4.49662e-06
0.000119609
-5.56144e-06
0.000120077
-6.65777e-06
0.000120671
-7.79764e-06
0.000121384
-8.99957e-06
0.000122209
-1.02875e-05
0.000123139
-1.16899e-05
0.000124175
-1.32412e-05
0.000125324
-1.498e-05
0.000126592
-1.69368e-05
0.000127994
-1.91195e-05
0.00012957
-2.15146e-05
0.000131395
-2.41134e-05
0.000133533
-2.69357e-05
0.000135993
-2.99841e-05
0.00013879
-3.31776e-05
0.000142372
-3.64491e-05
0.000148091
-4.00091e-05
0.000156877
0.000164845
-4.43852e-05
-9.01002e-08
0.00011737
-5.88814e-07
0.000119773
-1.12572e-06
0.000119295
-1.66652e-06
0.000119765
-2.21734e-06
0.000120159
-2.77854e-06
0.000120638
-3.35165e-06
0.000121244
-3.9432e-06
0.000121976
-4.56452e-06
0.00012283
-5.23059e-06
0.000123805
-5.95792e-06
0.000124902
-6.76595e-06
0.000126132
-7.67933e-06
0.000127506
-8.72293e-06
0.000129037
-9.90927e-06
0.000130757
-1.12338e-05
0.000132719
-1.26898e-05
0.00013499
-1.4291e-05
0.000137594
-1.60354e-05
0.000140534
-1.77699e-05
0.000144106
-1.91943e-05
0.000149516
-2.03962e-05
0.000158079
0.000166936
-2.24869e-05
3.75834e-07
0.000116994
2.66936e-07
0.000119882
2.06595e-07
0.000119355
1.52071e-07
0.000119819
9.77827e-08
0.000120214
4.93156e-08
0.000120687
9.02284e-09
0.000121285
-2.40301e-08
0.000122009
-5.42e-08
0.00012286
-8.88289e-08
0.00012384
-1.35418e-07
0.000124949
-2.00838e-07
0.000126198
-2.93955e-07
0.000127599
-4.25918e-07
0.000129169
-6.03207e-07
0.000130934
-8.20012e-07
0.000132936
-1.06685e-06
0.000135237
-1.34581e-06
0.000137873
-1.65727e-06
0.000140846
-1.84687e-06
0.000144296
-1.44094e-06
0.00014911
-1.85056e-07
0.000156823
0.000166156
5.94556e-07
8.79109e-07
0.000116114
1.10481e-06
0.000119656
1.51433e-06
0.000118946
1.94275e-06
0.00011939
2.37965e-06
0.000119777
2.83826e-06
0.000120229
3.3254e-06
0.000120798
3.84571e-06
0.000121488
4.40195e-06
0.000122304
4.99437e-06
0.000123247
5.62307e-06
0.000124321
6.29044e-06
0.00012553
7.0009e-06
0.000126888
7.75909e-06
0.000128411
8.57183e-06
0.000130121
9.45279e-06
0.000132056
1.04238e-05
0.000134266
1.15009e-05
0.000136796
1.26933e-05
0.000139653
1.41166e-05
0.000142872
1.62683e-05
0.000146958
1.97958e-05
0.000153295
0.000162167
2.37851e-05
1.36292e-06
0.000114751
1.91611e-06
0.000119103
2.7635e-06
0.000118098
3.65038e-06
0.000118504
4.5548e-06
0.000118873
5.49674e-06
0.000119287
6.48745e-06
0.000119807
7.53646e-06
0.000120439
8.65302e-06
0.000121187
9.84494e-06
0.000122055
1.11195e-05
0.000123046
1.24863e-05
0.000124164
1.39589e-05
0.000125416
1.55547e-05
0.000126815
1.72951e-05
0.000128381
1.92093e-05
0.000130141
2.13336e-05
0.000132141
2.37047e-05
0.000134425
2.63515e-05
0.000137007
2.93532e-05
0.00013987
3.31011e-05
0.00014321
3.84372e-05
0.000147959
0.000155337
4.52673e-05
1.79348e-06
0.000112958
2.66514e-06
0.000118231
3.90998e-06
0.000116853
5.21801e-06
0.000117196
6.5516e-06
0.000117539
7.9364e-06
0.000117902
9.38829e-06
0.000118355
1.09208e-05
0.000118907
1.25485e-05
0.00011956
1.42859e-05
0.000120318
1.61473e-05
0.000121185
1.81482e-05
0.000122163
2.03085e-05
0.000123255
2.26536e-05
0.00012447
2.52156e-05
0.000125819
2.8035e-05
0.000127322
3.11637e-05
0.000129012
3.46571e-05
0.000130932
3.85637e-05
0.0001331
4.29426e-05
0.000135492
4.80307e-05
0.000138121
5.45676e-05
0.000141422
0.00014668
6.32245e-05
2.15118e-06
0.000110807
3.32677e-06
0.000117056
4.91739e-06
0.000115262
6.59625e-06
0.000115517
8.30744e-06
0.000115828
1.00804e-05
0.000116129
1.19351e-05
0.0001165
1.38884e-05
0.000116953
1.59584e-05
0.00011749
1.81646e-05
0.000118112
2.05271e-05
0.000118822
2.30667e-05
0.000119623
2.58072e-05
0.000120515
2.87779e-05
0.0001215
3.20155e-05
0.000122581
3.55667e-05
0.000123771
3.94909e-05
0.000125088
4.38566e-05
0.000126566
4.87286e-05
0.000128228
5.41628e-05
0.000130057
6.02801e-05
0.000132004
6.7546e-05
0.000134156
0.000137263
7.69632e-05
2.42423e-06
0.000108383
3.87929e-06
0.0001156
5.75625e-06
0.000113386
7.74525e-06
0.000113528
9.77201e-06
0.000113801
1.18671e-05
0.000114034
1.40543e-05
0.000114313
1.63521e-05
0.000114655
1.87809e-05
0.000115061
2.13631e-05
0.000115529
2.41222e-05
0.000116063
2.7083e-05
0.000116662
3.02719e-05
0.000117326
3.37192e-05
0.000118052
3.74614e-05
0.000118839
4.15449e-05
0.000119687
4.60287e-05
0.000120604
5.0985e-05
0.00012161
5.64889e-05
0.000122724
6.2603e-05
0.000123943
6.93943e-05
0.000125213
7.70688e-05
0.000126481
0.000127861
8.6471e-05
2.60581e-06
0.000105777
4.30628e-06
0.0001139
6.40557e-06
0.000111286
8.63668e-06
0.000111296
1.09098e-05
0.000111528
1.32539e-05
0.000111689
1.5695e-05
0.000111872
1.82529e-05
0.000112097
2.09486e-05
0.000112365
2.38052e-05
0.000112673
2.68476e-05
0.000113021
3.0102e-05
0.000113408
3.35959e-05
0.000113832
3.73592e-05
0.000114289
4.14256e-05
0.000114773
4.58361e-05
0.000115277
5.06428e-05
0.000115798
5.59114e-05
0.000116341
6.17168e-05
0.000116919
6.81262e-05
0.000117534
7.51919e-05
0.000118147
8.29738e-05
0.000118699
0.000118911
9.19232e-05
2.69429e-06
0.000103082
4.59818e-06
0.000111995
6.85484e-06
0.000109029
9.25619e-06
0.000108895
1.17026e-05
0.000109081
1.42191e-05
0.000109173
1.68326e-05
0.000109258
1.95634e-05
0.000109367
2.24318e-05
0.000109497
2.54599e-05
0.000109645
2.86721e-05
0.000109808
3.20938e-05
0.000109986
3.57517e-05
0.000110174
3.96739e-05
0.000110367
4.38901e-05
0.000110557
4.8434e-05
0.000110733
5.33467e-05
0.000110885
5.86801e-05
0.000111008
6.44974e-05
0.000111101
7.0862e-05
0.000111169
7.78216e-05
0.000111188
8.53915e-05
0.000111129
0.000110624
9.36792e-05
2.69318e-06
0.000100389
4.75292e-06
0.000109936
7.10433e-06
0.000106678
9.6038e-06
0.000106395
1.21501e-05
0.000106535
1.47626e-05
0.00010656
1.74682e-05
0.000106552
2.02864e-05
0.000106548
2.32363e-05
0.000106547
2.63382e-05
0.000106543
2.9614e-05
0.000106533
3.3087e-05
0.000106513
3.67812e-05
0.00010648
4.07216e-05
0.000106427
4.49334e-05
0.000106345
4.94431e-05
0.000106223
5.42801e-05
0.000106048
5.94807e-05
0.000105807
6.50903e-05
0.000105492
7.1159e-05
0.0001051
7.77276e-05
0.000104619
8.48116e-05
0.000104045
0.000103087
9.23485e-05
2.61051e-06
9.77783e-05
4.77598e-06
0.00010777
7.16421e-06
0.000104289
9.69285e-06
0.000103867
1.22679e-05
0.00010396
1.49035e-05
0.000103925
1.7625e-05
0.000103831
2.04509e-05
0.000103722
2.33984e-05
0.000103599
2.64855e-05
0.000103456
2.97309e-05
0.000103287
3.31547e-05
0.00010309
3.67772e-05
0.000102858
4.06194e-05
0.000102585
4.47017e-05
0.000102263
4.90443e-05
0.000101881
5.36671e-05
0.000101426
5.85927e-05
0.000100882
6.38484e-05
0.000100236
6.94676e-05
9.94809e-05
7.54798e-05
9.86063e-05
8.19044e-05
9.76203e-05
9.6339e-05
8.86519e-05
2.45884e-06
9.53193e-05
4.68052e-06
0.000105548
7.05336e-06
0.000101917
9.54778e-06
0.000101372
1.20851e-05
0.000101422
1.4676e-05
0.000101333
1.7344e-05
0.000101163
2.0106e-05
0.00010096
2.29769e-05
0.000100728
2.59722e-05
0.00010046
2.91075e-05
0.000100152
3.23991e-05
9.97981e-05
3.58634e-05
9.93932e-05
3.95169e-05
9.8931e-05
4.33756e-05
9.84039e-05
4.74541e-05
9.78023e-05
5.17655e-05
9.71141e-05
5.63221e-05
9.63249e-05
6.11378e-05
9.54202e-05
6.62296e-05
9.43888e-05
7.16149e-05
9.32208e-05
7.73086e-05
9.19265e-05
9.03948e-05
8.32527e-05
2.25489e-06
9.30644e-05
4.48394e-06
0.000103319
6.79582e-06
9.96046e-05