/*--------------------------------*- C++ -*----------------------------------*\
| =========                 |                                                 |
| \\      /  F ield         | OpenFOAM: The Open Source CFD Toolbox           |
|  \\    /   O peration     | Version:  2206                                  |
|   \\  /    A nd           | Website:  www.openfoam.com                      |
|    \\/     M anipulation  |                                                 |
\*---------------------------------------------------------------------------*/
FoamFile
{
    version     2.0;
    format      ascii;
    arch        "LSB;label=32;scalar=64";
    class       volScalarField;
    location    "0.175";
    object      p;
}
// * * * * * * * * * * * * * * * * * * * * * * * * * * * * * * * * * * * * * //

dimensions      [1 -1 -2 0 0 0 0];

internalField   nonuniform List<scalar> 
2268
(
2590.58
2595.45
2600.82
2608.72
2619.3
2632.68
2648.89
2667.88
2689.64
2714.1
2741.16
2770.68
2802.47
2836.04
2870.67
2905.53
2939.65
2971.88
3000.93
3025.72
3045.78
3058.23
3063.28
2398.92
2403.66
2409.25
2417.3
2428.06
2441.67
2458.16
2477.56
2499.85
2524.98
2552.86
2583.32
2616.16
2651.42
2688.35
2726.27
2764.31
2801.43
2836.28
2867.14
2892.92
2910.36
2925.54
2194.56
2199.11
2204.95
2213.18
2224.16
2238.07
2255
2275.04
2298.3
2324.83
2354.65
2387.7
2423.76
2462.32
2504.75
2548.69
2593.52
2638.22
2681.42
2721.09
2756.16
2783.09
2808.91
1977.41
1981.69
1987.57
1995.79
2006.79
2020.78
2037.92
2058.41
2082.48
2110.37
2142.29
2178.41
2218.87
2263.73
2312.05
2364.55
2420.24
2477.9
2535.76
2590.95
2641.57
2682.98
2723.73
1747.42
1751.22
1756.72
1764.5
1774.98
1788.39
1804.94
1824.98
1848.9
1877.13
1910.18
1948.57
1992.76
2042.99
2098.89
2162.3
2232.26
2308.25
2388.54
2469.82
2549.13
2621.32
2688.97
1504.95
1507.93
1512.44
1519.05
1528.09
1539.71
1554.16
1571.91
1593.47
1619.5
1650.81
1688.38
1733.29
1786.76
1849.84
1921.94
2004.63
2099.61
2207.69
2328.5
2462.09
2600.3
2714.44
1251.15
1253.03
1255.91
1260.47
1266.86
1275.06
1285.29
1297.98
1313.61
1332.84
1356.56
1385.97
1422.72
1469.18
1528.1
1602.44
1693.96
1801.04
1929.52
2090.43
2287.79
2497.77
2657.23
988.33
989.01
989.809
991.534
994.104
997.316
1001.23
1006.02
1011.83
1018.83
1027.24
1037.27
1049.47
1064.34
1082.87
1107.6
1140.26
1192.3
1274.22
1393.53
1627.19
1858.18
1943.58
0.374729
0.369767
0.36038
0.347474
0.332049
0.315116
0.297566
0.280137
0.263383
0.247712
0.233398
0.220605
0.209425
0.199892
0.192006
0.185746
0.181084
0.177993
0.176434
0.201195
0.195642
0.185267
0.171214
0.15465
0.136708
0.118332
0.100266
0.0830419
0.0670446
0.0525278
0.0396258
0.0284014
0.0188671
0.0110035
0.00477596
0.000146063
-0.00292025
-0.00446573
0.0334167
0.0266197
0.0141623
-0.00226546
-0.0211694
-0.0411757
-0.0612449
-0.0806209
-0.0987797
-0.115398
-0.130287
-0.143378
-0.154663
-0.164178
-0.171979
-0.178129
-0.182685
-0.185698
-0.187213
-0.126963
-0.136305
-0.152635
-0.173141
-0.19586
-0.219107
-0.241739
-0.263019
-0.28249
-0.299933
-0.315281
-0.328566
-0.339867
-0.349295
-0.356961
-0.362965
-0.367391
-0.370307
-0.371771
-0.279328
-0.292727
-0.315326
-0.341997
-0.370259
-0.397988
-0.424016
-0.447678
-0.468691
-0.487019
-0.502779
-0.516151
-0.527343
-0.536557
-0.543966
-0.549716
-0.553933
-0.556698
-0.558084
-0.415004
-0.437427
-0.472644
-0.509178
-0.545486
-0.579134
-0.609333
-0.635665
-0.658207
-0.67725
-0.693187
-0.706395
-0.717233
-0.726013
-0.732983
-0.738342
-0.742243
-0.744786
-0.746058
-0.548375
-0.579514
-0.631568
-0.679535
-0.725172
-0.765414
-0.799799
-0.828491
-0.852083
-0.871327
-0.886932
-0.899526
-0.90964
-0.917683
-0.923972
-0.928754
-0.932207
-0.934447
-0.935562
-0.694101
-0.708031
-0.795439
-0.854841
-0.912037
-0.959443
-0.997629
-1.02776
-1.05139
-1.06989
-1.08437
-1.09571
-1.10459
-1.1115
-1.11681
-1.1208
-1.12366
-1.1255
-1.12641
776.876
776.375
775.352
774.485
773.457
771.934
769.808
766.97
763.155
758.01
750.83
740.716
726.172
702.733
664.59
587.516
428.173
196.469
76.319
175.082
414.521
600.474
283.697
621.997
620.4
618.135
615.396
611.735
606.763
600.282
592.022
581.436
567.751
549.567
525.393
491.716
441.398
362.709
222.76
60.3544
11.2807
8.07121
17.3327
64.4434
110.488
21.2869
468.432
466.035
462.692
458.164
452.075
443.91
433.364
420.033
403.056
380.962
350.956
310.401
255.572
181.331
90.3771
16.7236
3.04557
0.693024
-0.309289
0.0388401
6.97412
16.616
36.246
316.22
313.03
308.695
302.014
293.224
281.322
265.736
245.992
221.295
190.229
149.204
101.148
52.0203
16.0016
0.103435
-2.0143
-0.337087
-1.09654
-1.78567
-2.2837
-0.725658
5.78183
31.0436
157.912
150.417
146.171
138.117
127.605
113.995
96.9682
76.9705
55.1792
33.5708
15.0152
4.24205
-3.07094
-3.55893
-3.10598
-2.79422
-2.24552
-2.79953
-3.38182
-3.87989
-3.67129
0.724824
9.12015
30.1912
20.8592
20.1646
17.7786
14.3565
10.5133
6.33964
2.1548
-1.88032
-4.07394
-4.06191
-4.09235
-3.98883
-3.84885
-3.67585
-3.57478
-3.8218
-4.21679
-4.77729
-5.02186
-5.31884
-2.39695
5.19957
-3.95196
-4.02414
-4.04968
-4.07649
-4.11688
-4.16918
-4.23332
-4.30694
-4.36864
-4.3221
-4.30438
-4.31069
-4.30078
-4.25752
-4.20894
-4.19066
-4.46115
-4.58455
-5.53444
-5.50091
-5.9886
-4.31112
1.36531
-4.18187
-4.17307
-4.18714
-4.2132
-4.24982
-4.29714
-4.35359
-4.41583
-4.47445
-4.51097
-4.54657
-4.59079
-4.64037
-4.68646
-4.72281
-4.75653
-4.83319
-5.0792
-5.84734
-5.64469
-6.28464
-5.98819
-1.32053
-4.31655
-4.31573
-4.33259
-4.36054
-4.39816
-4.44625
-4.50395
-4.56934
-4.63935
-4.71112
-4.79325
-4.89319
-5.02559
-5.18475
-5.31769
-5.43722
-5.51465
-5.76751
-5.97517
-5.91688
-6.65909
-7.23463
-1.7705
-4.45211
-4.4599
-4.47742
-4.50646
-4.54632
-4.59743
-4.66015
-4.73479
-4.82221
-4.92537
-5.05386
-5.22002
-5.45925
-5.74546
-5.99188
-6.25335
-6.37599
-6.40332
-6.41595
-6.56638
-7.25886
-8.11623
-2.03262
-4.5817
-4.59369
-4.61322
-4.64446
-4.68775
-4.74397
-4.81452
-4.90159
-5.00847
-5.14164
-5.31397
-5.54834
-5.89536
-6.29728
-6.69479
-7.2278
-7.47763
-7.36768
-7.3144
-7.57962
-8.00829
-8.66005
-2.57089
-4.70353
-4.71776
-4.73924
-4.77306
-4.82009
-4.88187
-4.96074
-5.06017
-5.18512
-5.34384
-5.55207
-5.84306
-6.26651
-6.76626
-7.31013
-8.11168
-8.53251
-8.34746
-8.35224
-8.73548
-8.82958
-9.14898
-3.12774
-4.81485
-4.82986
-4.85298
-4.88907
-4.93944
-5.00624
-5.09212
-5.20213
-5.34181
-5.51929
-5.75046
-6.07059
-6.54045
-7.10565
-7.67866
-8.53615
-9.12765
-9.06324
-9.31732
-9.98192
-9.8153
-9.88289
-4.26419
-4.91362
-4.92825
-4.95251
-4.99018
-5.04311
-5.11409
-5.20355
-5.32135
-5.47102
-5.66008
-5.90384
-6.23883
-6.70736
-7.28821
-7.89382
-8.56126
-9.10378
-9.62879
-10.4808
-11.2746
-10.9287
-10.839
-7.38571
-4.99841
-5.01188
-5.0366
-5.07474
-5.12844
-5.20037
-5.29372
-5.41426
-5.56733
-5.75996
-6.00593
-6.33342
-6.77928
-7.36025
-8.0418
-8.74236
-9.38185
-10.1235
-11.1364
-11.938
-11.718
-11.4999
-9.14282
-5.0682
-5.08048
-5.10476
-5.14223
-5.19509
-5.26609
-5.35874
-5.47767
-5.62811
-5.81677
-6.05519
-6.364
-6.7721
-7.30483
-7.96317
-8.71515
-9.55823
-10.5217
-11.4892
-12.1634
-12.11
-11.5794
-9.93133
-5.123
-5.13439
-5.15733
-5.19291
-5.24319
-5.31079
-5.39894
-5.51145
-5.65291
-5.82947
-6.0507
-6.33209
-6.69538
-7.16238
-7.7441
-8.44898
-9.32244
-10.3722
-11.3758
-12.1564
-12.35
-11.9367
-12.045
-5.16406
-5.17443
-5.19534
-5.22789
-5.27394
-5.3358
-5.41611
-5.51776
-5.64434
-5.80085
-5.99496
-6.23789
-6.54445
-6.93094
-7.41352
-8.01607
-8.78334
-9.7559
-10.7836
-11.6645
-12.2708
-12.9154
-11.2497
-5.19301
-5.20211
-5.22045
-5.24904
-5.2895
-5.34372
-5.41359
-5.50105
-5.60842
-5.73921
-5.89891
-6.09488
-6.33542
-6.62957
-6.98984
-7.43843
-8.01501
-8.79534
-9.77034
-10.6899
-11.6021
-11.1339
-8.07849
-5.21177
-5.21941
-5.23478
-5.25877
-5.2927
-5.33796
-5.39574
-5.46698
-5.55277
-5.65503
-5.77688
-5.92195
-6.09315
-6.29289
-6.52449
-6.79371
-7.11614
-7.54423
-8.1199
-8.57134
-8.15331
-5.80425
-3.73033
-5.22242
-5.22848
-5.24068
-5.25974
-5.28668
-5.32237
-5.36734
-5.42166
-5.48535
-5.55888
-5.64327
-5.73893
-5.84458
-5.95754
-6.07338
-6.18345
-6.27712
-6.34935
-6.36512
-6.15695
-5.25725
-3.67313
-1.95727
-5.22709
-5.23157
-5.24061
-5.25474
-5.27465
-5.3008
-5.33315
-5.37108
-5.41374
-5.4605
-5.51079
-5.56282
-5.6127
-5.65469
-5.68033
-5.67542
-5.62086
-5.49286
-5.24335
-4.74336
-3.8735
-2.69438
-1.41452
-5.22791
-5.2309
-5.23694
-5.24638
-5.25964
-5.27682
-5.29745
-5.32043
-5.34431
-5.36769
-5.38893
-5.40507
-5.41118
-5.40048
-5.36342
-5.28541
-5.14754
-4.92494
-4.5858
-4.06908
-3.34815
-2.47379
-1.64083
-5.22685
-5.22849
-5.23183
-5.23704
-5.2443
-5.25343
-5.26371
-5.27374
-5.28178
-5.28599
-5.28413
-5.2728
-5.247
-5.20039
-5.1244
-5.00695
-4.83385
-4.58997
-4.24981
-3.80068
-3.24831
-2.647
-2.12567
-5.22564
-5.22613
-5.22714
-5.2287
-5.2308
-5.23306
-5.23459
-5.23393
-5.22923
-5.21855
-5.19951
-5.16874
-5.12169
-5.05303
-4.9561
-4.82217
-4.64161
-4.40642
-4.10653
-3.74289
-3.33255
-2.92044
-2.58252
-5.22574
-5.22527
-5.22434
-5.22291
-5.22079
-5.21747
-5.21198
-5.20289
-5.18845
-5.16679
-5.13575
-5.09238
-5.03281
-4.95284
-4.84782
-4.71219
-4.54037
-4.32946
-4.07713
-3.79
-3.48551
-3.1956
-2.96413
-5.22829
-5.22705
-5.2246
-5.22081
-5.21539
-5.20777
-5.197
-5.1817
-5.16028
-5.13109
-5.09233
-5.04168
-4.97614
-4.89256
-4.78795
-4.65938
-4.50473
-4.32148
-4.11343
-3.88793
-3.65923
-3.44878
-3.28199
-5.23416
-5.23234
-5.22875
-5.2232
-5.21532
-5.20453
-5.18999
-5.17049
-5.14461
-5.11089
-5.06791
-5.01399
-4.94703
-4.86484
-4.76564
-4.64807
-4.51158
-4.35645
-4.18654
-4.00879
-3.83405
-3.67645
-3.55106
-5.24398
-5.24175
-5.23738
-5.23061
-5.221
-5.20804
-5.19101
-5.16892
-5.14059
-5.10476
-5.06035
-5.00615
-4.94083
-4.86306
-4.77187
-4.66692
-4.54861
-4.41836
-4.27974
-4.1385
-4.00255
-3.88123
-3.78374
-5.25812
-5.25567
-5.25083
-5.2433
-5.23262
-5.21831
-5.19982
-5.17641
-5.14715
-5.11104
-5.0672
-5.01483
-4.95315
-4.88148
-4.79943
-4.70723
-4.60577
-4.49681
-4.38342
-4.27012
-4.16257
-4.06702
-3.98928
-5.27679
-5.27425
-5.2692
-5.26131
-5.25012
-5.2352
-5.21613
-5.19239
-5.1633
-5.12814
-5.08624
-5.03707
-4.98023
-4.91545
-4.84275
-4.76266
-4.67623
-4.58517
-4.49207
-4.40035
-4.31406
-4.23747
-4.17435
-5.30008
-5.29752
-5.29243
-5.28447
-5.27322
-5.25831
-5.2394
-5.21613
-5.18806
-5.1547
-5.11559
-5.07041
-5.01898
-4.96132
-4.89766
-4.82866
-4.75537
-4.67933
-4.6026
-4.5278
-4.45782
-4.39561
-4.34374
-5.32788
-5.32537
-5.32034
-5.31252
-5.30155
-5.28712
-5.26895
-5.2468
-5.22038
-5.1894
-5.1536
-5.1128
-5.06698
-5.01629
-4.96111
-4.90208
-4.8402
-4.77675
-4.71338
-4.65205
-4.59489
-4.54395
-4.50101
-5.35999
-5.35757
-5.35269
-5.34515
-5.3347
-5.32107
-5.30407
-5.2835
-5.25919
-5.23101
-5.1988
-5.16253
-5.12227
-5.07824
-5.03086
-4.98073
-4.92873
-4.87592
-4.82359
-4.77322
-4.72636
-4.68449
-4.64886
-5.39609
-5.39379
-5.38915
-5.38203
-5.37226
-5.35967
-5.3441
-5.32542
-5.30354
-5.27838
-5.24992
-5.21818
-5.18331
-5.14554
-5.10528
-5.0631
-5.0197
-4.97596
-4.93289
-4.89159
-4.85322
-4.81884
-4.78936
-5.43574
-5.43361
-5.42929
-5.42272
-5.41379
-5.4024
-5.38845
-5.37186
-5.35257
-5.33057
-5.30589
-5.2786
-5.24887
-5.21695
-5.18321
-5.14812
-5.11228
-5.07639
-5.0412
-5.00758
-4.97636
-4.94832
-4.92411
-5.47844
-5.47652
-5.47262
-5.46672
-5.45878
-5.44873
-5.43653
-5.42214
-5.40553
-5.38673
-5.3658
-5.34283
-5.31799
-5.29153
-5.26375
-5.23506
-5.20594
-5.17692
-5.14859
-5.12159
-5.09652
-5.07396
-5.05439
-5.52374
-5.52206
-5.51867
-5.51356
-5.50671
-5.49812
-5.48777
-5.47564
-5.46176
-5.44615
-5.42889
-5.41009
-5.3899
-5.36854
-5.34626
-5.3234
-5.30032
-5.27742
-5.25516
-5.23398
-5.21434
-5.19663
-5.1812
-5.57121
-5.56983
-5.567
-5.56277
-5.55712
-5.55008
-5.54163
-5.53182
-5.52065
-5.50819
-5.49451
-5.47972
-5.46395
-5.44738
-5.43023
-5.41273
-5.39517
-5.37785
-5.36106
-5.34513
-5.33036
-5.31704
-5.30539
-5.62042
-5.61936
-5.61716
-5.61387
-5.60949
-5.60405
-5.59756
-5.59007
-5.58161
-5.57225
-5.56206
-5.55113
-5.5396
-5.52758
-5.51525
-5.50278
-5.49036
-5.47819
-5.46645
-5.45535
-5.44507
-5.4358
-5.42767
-5.67083
-5.67014
-5.66861
-5.66632
-5.66325
-5.65945
-5.65494
-5.64978
-5.64402
-5.63772
-5.63094
-5.62379
-5.61634
-5.6087
-5.60099
-5.5933
-5.58577
-5.57848
-5.57153
-5.56498
-5.55892
-5.55347
-5.54868
-5.72017
-5.72001
-5.71923
-5.718
-5.71635
-5.71431
-5.71193
-5.70925
-5.70633
-5.70322
-5.69998
-5.69668
-5.69338
-5.69014
-5.68702
-5.68407
-5.68133
-5.67883
-5.67652
-5.67437
-5.67238
-5.67059
-5.66902
-5.87306
-0.624209
-1.4113
-1.30346
-0.664327
-1.48907
-0.979543
-0.898371
0.0880022
-2.07456
-0.741525
-0.830023
0.861462
-0.113209
-0.587324
-0.766012
-0.708381
0.151796
-0.715099
-0.833901
-1.7003
-0.236739
-0.885167
-0.945712
-1.74085
-0.461276
-0.993039
-1.07503
-1.61816
-0.435195
-1.11268
-1.26943
-1.65998
-0.480504
-1.43294
-1.64924
-2.05541
-1.17593
-2.13887
-2.33607
-3.23001
-2.71848
-3.34948
-3.46226
-5.25047
-5.50133
-5.18422
-5.03331
-6.66563
-8.27953
-6.92899
-6.53783
-3.06663
-8.32312
-7.35528
-7.2874
0.594591
-7.11116
-6.61824
-7.0254
-7.72803
-9.62946
-7.47371
-6.9895
-10.1822
-10.6638
-9.76504
-7.1982
-9.58979
-5.56499
-6.98189
-6.20553
-5.4032
-3.6683
-4.31644
-4.77334
-2.54607
-2.63186
-3.09609
-3.64743
-0.922339
-1.71194
-2.49466
-2.99522
-0.663336
-1.32145
-2.12203
-2.64992
-1.16613
-1.56159
-2.12564
-2.57795
-1.83414
-2.02124
-2.35006
-2.67813
-2.38935
-2.45759
-2.64058
-2.86183
-2.82392
-2.83239
-2.93352
-3.0776
-3.17341
-3.1547
-3.20858
-3.29942
-3.46394
-3.43486
-3.45823
-3.51477
-3.71212
-3.67962
-3.68552
-3.71928
-3.92949
-3.89693
-3.89276
-3.91205
-4.12397
-4.09311
-4.08382
-4.09268
-4.30108
-4.27268
-4.26077
-4.26313
-4.46483
-4.43923
-4.42634
-4.42463
-4.61825
-4.59559
-4.58284
-4.57909
-4.76362
-4.74391
-4.73194
-4.72715
-4.90272
-4.88588
-4.8751
-4.86999
-5.03691
-5.02288
-5.01352
-5.00859
-5.16732
-5.156
-5.14822
-5.14383
-5.29485
-5.28616
-5.28006
-5.27643
-5.4203
-5.41416
-5.40979
-5.40711
-5.54433
-5.54069
-5.53807
-5.53644
-5.66759
-5.66639
-5.66553
-5.66498
-0.854051
-0.823702
-0.931886
-1.00436
-1.0706
-1.1218
-1.16106
-1.19069
-1.21298
-1.22981
-1.24255
-1.25226
-1.25968
-1.26535
-1.26964
-1.27282
-1.27509
-1.27654
-1.27725
-0.770307
-0.912374
-1.02754
-1.12035
-1.19196
-1.24502
-1.28393
-1.31221
-1.33276
-1.34779
-1.35884
-1.36705
-1.37319
-1.3778
-1.38124
-1.38377
-1.38555
-1.38669
-1.38725
-0.819632
-1.01052
-1.14539
-1.24753
-1.32191
-1.37452
-1.41136
-1.437
-1.45486
-1.46741
-1.4763
-1.48269
-1.48734
-1.49074
-1.49323
-1.49503
-1.49629
-1.49709
-1.49747
-0.920206
-1.13049
-1.28082
-1.38812
-1.46171
-1.51095
-1.54361
-1.5651
-1.57923
-1.58857
-1.59481
-1.59907
-1.60201
-1.60405
-1.6055
-1.60652
-1.60722
-1.60766
-1.60786
-1.06061
-1.27967
-1.43845
-1.54427
-1.61235
-1.65471
-1.68072
-1.69638
-1.70566
-1.71107
-1.71421
-1.71602
-1.71705
-1.71763
-1.71796
-1.71815
-1.71827
-1.71833
-1.71835
-1.22558
-1.46127
-1.62099
-1.71768
-1.7744
-1.8058
-1.82241
-1.83047
-1.8338
-1.83462
-1.83423
-1.83334
-1.83231
-1.83134
-1.8305
-1.82984
-1.82935
-1.82903
-1.82886
-1.42423
-1.68049
-1.83169
-1.90953
-1.94781
-1.96369
-1.96801
-1.96678
-1.96314
-1.9588
-1.95456
-1.95078
-1.9476
-1.94502
-1.94299
-1.94146
-1.94037
-1.93968
-1.93932
-1.68945
-1.94989
-2.07446
-2.12022
-2.13169
-2.12717
-2.11651
-2.10441
-2.09302
-2.0831
-2.07481
-2.06807
-2.0627
-2.05851
-2.05531
-2.05294
-2.05126
-2.05021
-2.04966
-2.07649
-2.2873
-2.35224
-2.34827
-2.32384
-2.29424
-2.26636
-2.24225
-2.22257
-2.20695
-2.19461
-2.18491
-2.1774
-2.17165
-2.16733
-2.16415
-2.16193
-2.16053
-2.15982
-2.64669
-2.70704
-2.66302
-2.58886
-2.52025
-2.46206
-2.41552
-2.37894
-2.35089
-2.32974
-2.31348
-2.30099
-2.29146
-2.28428
-2.27892
-2.27501
-2.27229
-2.27058
-2.26972
-3.43822
-3.20047
-2.99382
-2.83269
-2.71514
-2.62707
-2.56164
-2.51288
-2.47696
-2.45085
-2.43104
-2.416
-2.40468
-2.39623
-2.38997
-2.38543
-2.38228
-2.3803
-2.37931
-4.38569
-3.71461
-3.31744
-3.06622
-2.90186
-2.78527
-2.7022
-2.64254
-2.59971
-2.56979
-2.54689
-2.52964
-2.51685
-2.50737
-2.50038
-2.49533
-2.49183
-2.48963
-2.48855
-5.25548
-4.15885
-3.59914
-3.27409
-3.07474
-2.9324
-2.83494
-2.76706
-2.71913
-2.68519
-2.66015
-2.64155
-2.62777
-2.61757
-2.61006
-2.60464
-2.60089
-2.59853
-2.59738
-5.78055
-4.45944
-3.82174
-3.454
-3.21782
-3.06181
-2.95675
-2.88432
-2.8335
-2.7974
-2.7711
-2.75172
-2.73738
-2.72677
-2.71896
-2.71333
-2.70943
-2.70697
-2.70578
-6.01909
-4.67722
-3.9621
-3.58
-3.33404
-3.17385
-3.06718
-2.99398
-2.94267
-2.90612
-2.87958
-2.86006
-2.84563
-2.83493
-2.82706
-2.82137
-2.81743
-2.81494
-2.81374
-6.05488
-4.75378
-4.02556
-3.65511
-3.42117
-3.26818
-3.16621
-3.09607
-3.04669
-3.01132
-2.98556
-2.96659
-2.95252
-2.94207
-2.93435
-2.92877
-2.92488
-2.92244
-2.92126
-5.88853
-4.66331
-4.01123
-3.68516
-3.48125
-3.34599
-3.25464
-3.19109
-3.14586
-3.11315
-3.08915
-3.07136
-3.0581
-3.0482
-3.04086
-3.03553
-3.03181
-3.02946
-3.02833
-5.31272
-4.4063
-3.92797
-3.67931
-3.5195
-3.4101
-3.33408
-3.28
-3.24079
-3.21198
-3.19057
-3.17453
-3.16247
-3.15341
-3.14664
-3.1417
-3.13824
-3.13604
-3.13498
-4.52652
-4.07808
-3.80869
-3.65185
-3.54346
-3.4645
-3.40678
-3.36414
-3.33229
-3.3083
-3.29014
-3.27632
-3.26579
-3.25779
-3.25176
-3.24732
-3.2442
-3.24221
-3.24125
-3.83189
-3.77306
-3.68724
-3.61866
-3.5614
-3.51367
-3.47533
-3.44506
-3.42131
-3.40274
-3.38826
-3.37698
-3.36822
-3.36147
-3.35631
-3.35248
-3.34976
-3.34801
-3.34717
-3.36497
-3.53892
-3.58724
-3.59265
-3.58071
-3.56194
-3.54231
-3.52436
-3.50888
-3.49595
-3.48536
-3.47682
-3.46999
-3.46459
-3.4604
-3.45723
-3.45496
-3.4535
-3.45278
-3.10233
-3.3902
-3.52301
-3.58261
-3.60698
-3.61288
-3.61001
-3.60352
-3.59596
-3.58857
-3.5819
-3.57613
-3.57128
-3.56731
-3.56413
-3.56168
-3.55989
-3.55873
-3.55815
-3.00886
-3.32504
-3.49932
-3.59393
-3.64391
-3.66913
-3.68024
-3.68378
-3.68342
-3.68121
-3.67827
-3.67521
-3.67233
-3.66978
-3.66763
-3.66591
-3.66461
-3.66375
-3.66333
-3.03382
-3.33036
-3.51498
-3.62692
-3.69373
-3.73238
-3.75434
-3.76614
-3.77198
-3.77438
-3.77487
-3.77434
-3.77333
-3.77216
-3.77101
-3.77
-3.7692
-3.76865
-3.76836
-3.13339
-3.38881
-3.56473
-3.68093
-3.75603
-3.80357
-3.83313
-3.8513
-3.8622
-3.86853
-3.87202
-3.87377
-3.87447
-3.87458
-3.87438
-3.87405
-3.87372
-3.87346
-3.87332
-3.27569
-3.48442
-3.64166
-3.75345
-3.83052
-3.8825
-3.917
-3.93968
-3.95446
-3.96396
-3.96997
-3.97369
-3.97591
-3.97717
-3.97783
-3.97813
-3.97824
-3.97826
-3.97825
-3.43958
-3.6043
-3.73896
-3.84125
-3.91588
-3.96891
-4.00594
-4.03149
-4.049
-4.0609
-4.06892
-4.07426
-4.07777
-4.08003
-4.08145
-4.08232
-4.08282
-4.08309
-4.08321
-3.61193
-3.73882
-3.85073
-3.9411
-4.01049
-4.06211
-4.09971
-4.12672
-4.14592
-4.15949
-4.16901
-4.17562
-4.18017
-4.18326
-4.18532
-4.18667
-4.18752
-4.18801
-4.18824
-3.78526
-3.88124
-3.97224
-4.05002
-4.11266
-4.1612
-4.1979
-4.22519
-4.24522
-4.25976
-4.2703
-4.27783
-4.28317
-4.28691
-4.2895
-4.29124
-4.29238
-4.29306
-4.29337
-3.95562
-4.02709
-4.09988
-4.16554
-4.22078
-4.26525
-4.30002
-4.32666
-4.34677
-4.36178
-4.37283
-4.38094
-4.38683
-4.39104
-4.39402
-4.39607
-4.39743
-4.39826
-4.39864
-4.121
-4.17359
-4.23107
-4.28563
-4.33347
-4.37336
-4.40552
-4.43083
-4.4504
-4.46534
-4.47657
-4.48496
-4.49116
-4.49568
-4.49892
-4.50119
-4.50271
-4.50364
-4.50408
-4.2809
-4.31912
-4.36397
-4.40873
-4.44954
-4.4847
-4.51385
-4.53736
-4.55594
-4.57039
-4.58147
-4.58987
-4.59617
-4.60082
-4.60421
-4.60661
-4.60823
-4.60923
-4.60971
-4.4354
-4.46272
-4.49739
-4.53371
-4.56806
-4.59857
-4.62452
-4.64592
-4.66317
-4.67682
-4.68746
-4.69564
-4.70183
-4.70648
-4.70989
-4.71234
-4.714
-4.71503
-4.71553
-4.58449
-4.60394
-4.63053
-4.65971
-4.68828
-4.71435
-4.73707
-4.75619
-4.77187
-4.78448
-4.79444
-4.80219
-4.80815
-4.81263
-4.81597
-4.81837
-4.82002
-4.82105
-4.82154
-4.72915
-4.74275
-4.76296
-4.78616
-4.80961
-4.83157
-4.85111
-4.86786
-4.88183
-4.8932
-4.90231
-4.90947
-4.91503
-4.91924
-4.92241
-4.92471
-4.92629
-4.92728
-4.92776
-4.86992
-4.87927
-4.89446
-4.91268
-4.93165
-4.94983
-4.96632
-4.98069
-4.99284
-5.00286
-5.01096
-5.0174
-5.02244
-5.02631
-5.0292
-5.03132
-5.0328
-5.03372
-5.03416
-5.0074
-5.01371
-5.02496
-5.03904
-5.0541
-5.06883
-5.08242
-5.09444
-5.10472
-5.11329
-5.12029
-5.1259
-5.13032
-5.13374
-5.13629
-5.13819
-5.13951
-5.14034
-5.14074
-5.14214
-5.14636
-5.15449
-5.16511
-5.17675
-5.18835
-5.1992
-5.20891
-5.21731
-5.22438
-5.23019
-5.23489
-5.23861
-5.2415
-5.2437
-5.24529
-5.24642
-5.24713
-5.24748
-5.27468
-5.27751
-5.28316
-5.29085
-5.29948
-5.3082
-5.31647
-5.32394
-5.33045
-5.33598
-5.34055
-5.34427
-5.34723
-5.34954
-5.3513
-5.35258
-5.35349
-5.35407
-5.35435
-5.4057
-5.40736
-5.41109
-5.4163
-5.42222
-5.42829
-5.43409
-5.43938
-5.44402
-5.44798
-5.45128
-5.45397
-5.45611
-5.4578
-5.45908
-5.46003
-5.4607
-5.46112
-5.46132
-5.53553
-5.53637
-5.53849
-5.5415
-5.54495
-5.54852
-5.55196
-5.55511
-5.55789
-5.56027
-5.56226
-5.56389
-5.5652
-5.56622
-5.56701
-5.5676
-5.568
-5.56825
-5.56838
-5.66466
-5.66491
-5.66558
-5.66656
-5.66768
-5.66885
-5.66998
-5.67102
-5.67195
-5.67274
-5.67341
-5.67396
-5.6744
-5.67474
-5.67501
-5.67521
-5.67535
-5.67544
-5.67548
)
;

boundaryField
{
    leftWall
    {
        type            calculated;
        value           nonuniform List<scalar> 
50
(
2590.58
2398.92
2194.56
1977.41
1747.42
1504.95
1251.15
988.33
776.876
621.997
468.432
316.22
157.912
30.1912
-3.95196
-4.18187
-4.31655
-4.45211
-4.5817
-4.70353
-4.81485
-4.91362
-4.99841
-5.0682
-5.123
-5.16406
-5.19301
-5.21177
-5.22242
-5.22709
-5.22791
-5.22685
-5.22564
-5.22574
-5.22829
-5.23416
-5.24398
-5.25812
-5.27679
-5.30008
-5.32788
-5.35999
-5.39609
-5.43574
-5.47844
-5.52374
-5.57121
-5.62042
-5.67083
-5.72017
)
;
    }
    rightWall
    {
        type            calculated;
        value           nonuniform List<scalar> 
50
(
0.176434
-0.00446573
-0.187213
-0.371771
-0.558084
-0.746058
-0.935562
-1.12641
-1.27725
-1.38725
-1.49747
-1.60786
-1.71835
-1.82886
-1.93932
-2.04966
-2.15982
-2.26972
-2.37931
-2.48855
-2.59738
-2.70578
-2.81374
-2.92126
-3.02833
-3.13498
-3.24125
-3.34717
-3.45278
-3.55815
-3.66333
-3.76836
-3.87332
-3.97825
-4.08321
-4.18824
-4.29337
-4.39864
-4.50408
-4.60971
-4.71553
-4.82154
-4.92776
-5.03416
-5.14074
-5.24748
-5.35435
-5.46132
-5.56838
-5.67548
)
;
    }
    lowerWall
    {
        type            calculated;
        value           nonuniform List<scalar> 
62
(
2680.09
2684.97
2690.33
2698.24
2708.82
2722.2
2738.4
2757.4
2779.16
2803.61
2830.67
2860.2
2891.99
2925.56
2960.18
2995.05
3029.16
3061.39
3090.45
3115.23
3135.3
3147.33
3137.36
3063.28
2925.54
2808.91
2723.73
2688.97
2714.44
2657.23
1943.58
1.74193
-0.573057
-1.36014
-1.25231
0.374729
0.201195
0.0334167
-0.126963
-0.279328
-0.415004
-0.548375
-0.694101
0.464246
0.459283
0.449897
0.43699
0.421565
0.404632
0.387082
0.369654
0.352899
0.337228
0.322915
0.310122
0.298941
0.289408
0.281522
0.275262
0.2706
0.267509
0.26595
)
;
    }
    atmosphere
    {
        type            calculated;
        value           nonuniform List<scalar> 
46
(
-5.74356
-5.74391
-5.74349
-5.74283
-5.74196
-5.7409
-5.73968
-5.73836
-5.73698
-5.73558
-5.73423
-5.73296
-5.73182
-5.73084
-5.73006
-5.7295
-5.72916
-5.72904
-5.72904
-5.72904
-5.72904
-5.72904
-5.72904
-5.72904
-5.72904
-5.72904
-5.72904
-5.72904
-5.72904
-5.72904
-5.72904
-5.72904
-5.72904
-5.72904
-5.72904
-5.72904
-5.72904
-5.72904
-5.72904
-5.72904
-5.72904
-5.72904
-5.72904
-5.72904
-5.72905
-5.72905
)
;
    }
    defaultFaces
    {
        type            empty;
    }
}


// ************************************************************************* //
