/*--------------------------------*- C++ -*----------------------------------*\
| =========                 |                                                 |
| \\      /  F ield         | OpenFOAM: The Open Source CFD Toolbox           |
|  \\    /   O peration     | Version:  2206                                  |
|   \\  /    A nd           | Website:  www.openfoam.com                      |
|    \\/     M anipulation  |                                                 |
\*---------------------------------------------------------------------------*/
FoamFile
{
    version     2.0;
    format      ascii;
    arch        "LSB;label=32;scalar=64";
    class       volScalarField;
    location    "0.175";
    object      p_rgh;
}
// * * * * * * * * * * * * * * * * * * * * * * * * * * * * * * * * * * * * * //

dimensions      [1 -1 -2 0 0 0 0];

internalField   nonuniform List<scalar> 
2268
(
2680.09
2684.97
2690.33
2698.24
2708.82
2722.2
2738.4
2757.4
2779.16
2803.61
2830.67
2860.2
2891.99
2925.56
2960.18
2995.05
3029.16
3061.39
3090.45
3115.23
3135.3
3147.33
3137.36
2667.47
2672.21
2677.8
2685.85
2696.61
2710.22
2726.71
2746.11
2768.4
2793.53
2821.41
2851.86
2884.71
2919.97
2956.9
2994.82
3032.86
3069.98
3104.83
3135.65
3161.42
3178.91
3160.88
2642.14
2646.7
2652.53
2660.76
2671.74
2685.65
2702.58
2722.62
2745.88
2772.41
2802.23
2835.28
2871.34
2909.91
2952.33
2996.28
3041.1
3085.81
3129
3168.65
3203.68
3230.67
3235.47
2604.02
2608.3
2614.18
2622.41
2633.41
2647.4
2664.53
2685.02
2709.1
2736.98
2768.9
2805.03
2845.48
2890.34
2938.67
2991.17
3046.85
3104.51
3162.38
3217.56
3268.19
3309.59
3350.35
2553.07
2556.86
2562.37
2570.14
2580.63
2594.03
2610.59
2630.63
2654.54
2682.78
2715.83
2754.22
2798.41
2848.64
2904.53
2967.95
3037.91
3113.89
3194.19
3275.47
3354.77
3426.97
3494.62
2489.63
2492.61
2497.12
2503.73
2512.77
2524.38
2538.84
2556.59
2578.15
2604.18
2635.49
2673.06
2717.97
2771.44
2834.52
2906.62
2989.31
3084.29
3192.37
3313.18
3446.77
3584.98
3699.12
2414.86
2416.74
2419.62
2424.19
2430.58
2438.77
2449
2461.69
2477.32
2496.55
2520.27
2549.68
2586.43
2632.89
2691.81
2766.15
2857.67
2964.76
3093.23
3254.14
3451.5
3661.48
3820.94
2331.07
2331.75
2332.55
2334.28
2336.85
2340.06
2343.98
2348.77
2354.57
2361.58
2369.99
2380.01
2392.21
2407.08
2425.62
2450.33
2482.99
2535.04
2612.71
2736.28
2969.94
3196.97
3286.07
0.464246
0.459283
0.449897
0.43699
0.421565
0.404632
0.387082
0.369654
0.352899
0.337228
0.322915
0.310122
0.298941
0.289408
0.281522
0.275262
0.2706
0.267509
0.26595
0.469744
0.464191
0.453815
0.439763
0.423199
0.405257
0.386881
0.368814
0.351591
0.335593
0.321077
0.308175
0.29695
0.287416
0.279552
0.273325
0.268695
0.265629
0.264083
0.480998
0.474201
0.461744
0.445316
0.426412
0.406406
0.386336
0.36696
0.348802
0.332184
0.317294
0.304204
0.292919
0.283403
0.275602
0.269452
0.264897
0.261883
0.260369
0.499651
0.490308
0.473979
0.453473
0.430753
0.407507
0.384874
0.363595
0.344123
0.32668
0.311332
0.298048
0.286746
0.277319
0.269652
0.263648
0.259223
0.256307
0.254842
0.526318
0.51292
0.49032
0.463649
0.435387
0.407658
0.38163
0.357968
0.336955
0.318627
0.302867
0.289495
0.278303
0.26909
0.26168
0.25593
0.251714
0.248949
0.247562
0.569675
0.547252
0.512035
0.475501
0.439193
0.405545
0.375346
0.349014
0.326472
0.307429
0.291491
0.278284
0.267445
0.258666
0.251695
0.246337
0.242436
0.239892
0.238621
0.615337
0.584197
0.532143
0.484176
0.438539
0.398297
0.363912
0.33522
0.311628
0.292384
0.276779
0.264185
0.254072
0.246029
0.239739
0.234957
0.231504
0.229265
0.228149
0.648643
0.634713
0.547304
0.487903
0.430706
0.3833
0.345115
0.31498
0.291352
0.272852
0.258372
0.247034
0.238158
0.231245
0.22593
0.221939
0.219085
0.217242
0.21633
2260.29
2259.79
2258.76
2257.9
2256.87
2255.35
2253.22
2250.38
2246.57
2241.42
2234.24
2224.12
2209.57
2186.12
2147.88
2070.5
1910.01
1496.86
886.502
1057.62
1576.82
2050.88
1766.3
2207.71
2206.11
2203.85
2201.11
2197.45
2192.48
2185.99
2177.73
2167.14
2153.44
2135.23
2110.98
2077.12
2026.32
1945.73
1755.66
1016.41
140.93
17.6462
65.4073
210.68
1447.68
1600.88
2156.44
2154.02
2150.68
2146.15
2140.05
2131.87
2121.29
2107.91
2090.85
2068.61
2038.27
1996.79
1939.82
1812.03
1435.55
535.276
8.18252
5.21678
3.69056
5.80323
21.1693
1070.69
1696.67
2106.34
2102.9
2098.62
2091.9
2082.99
2070.88
2054.94
2034.6
2008.93
1972.25
1877.32
1660.5
1254.53
662.392
104.452
-0.151653
3.37499
3.1458
2.45686
1.62694
5.2088
741.89
1752.71
2046.12
2021.13
2017.54
1996.56
1959.02
1896.76
1796.98
1645.13
1422.55
1105.16
693.314
321.964
24.7407
-1.66273
-1.2127
-0.901366
7.28735
12.108
1.36061
-0.209961
0.313791
421.09
1747.2
1209.21
960.829
955.147
860.435
726.662
575.968
413.004
252.272
104.474
-2.07901
-2.06698
-2.09741
-1.9939
-1.85392
-1.68079
-1.57966
10.6927
13.9363
2.34857
-1.39387
-1.81219
49.1504
1764.58
2.99211
-1.9269
-1.95245
-1.97925
-2.01964
-2.07194
-2.13608
-2.2097
-2.2714
-2.22486
-2.20714
-2.21345
-2.20355
-2.16028
-2.1117
-2.09332
-0.731776
14.4995
1.94156
-1.88591
-2.53046
-0.621022
1779.64
-1.98233
-1.97352
-1.9876
-2.01365
-2.05028
-2.09759
-2.15405
-2.21629
-2.2749
-2.31142
-2.34703
-2.39125
-2.44083
-2.48691
-2.52327
-2.55688
-2.63311
9.01847
1.7171
-2.0178
-2.71931
-2.36131
1789.38
-2.01471
-2.01388
-2.03074
-2.0587
-2.09632
-2.14441
-2.20211
-2.26749
-2.33751
-2.40927
-2.49141
-2.59135
-2.72374
-2.88291
-3.01584
-3.13462
-3.21202
-1.54941
2.02862
-2.18091
-2.93196
-3.50347
1814.39
-2.04795
-2.05575
-2.07327
-2.10231
-2.14217
-2.19328
-2.25599
-2.33064
-2.41806
-2.52122
-2.64971
-2.81583
-3.0551
-3.3413
-3.56185
-3.83961
-3.96912
-3.27701
2.13523
-2.35536
-3.36608
-4.22345
1843.87
-2.07524
-2.08724
-2.10676
-2.138
-2.1813
-2.23752
-2.30807
-2.39513
-2.50202
-2.63519
-2.80752
-3.04176
-3.38889
-3.79081
-3.06379
-2.17568
-4.76561
-3.8118
1.9886
-2.90823
-3.94986
-4.58493
1840.46
-2.09477
-2.109
-2.13048
-2.1643
-2.21133
-2.27312
-2.35198
-2.45141
-2.57636
-2.73508
-2.94331
-3.23416
-3.65761
-4.15743
-2.76298
-1.62893
-5.08181
-4.79531
1.78875
-3.4849
-4.58814
-4.93009
1811.4
-2.10379
-2.1188
-2.14191
-2.178
-2.22837
-2.29517
-2.38106
-2.49106
-2.63075
-2.80822
-3.03939
-3.35948
-3.82917
-4.39441
-4.68966
-1.79917
-5.4011
-3.50273
1.80222
-1.17769
-5.43096
-5.55689
1852.44
-2.10025
-2.11489
-2.13915
-2.17681
-2.22974
-2.30072
-2.39018
-2.50798
-2.65765
-2.84671
-3.09047
-3.42547
-3.89397
-4.47468
-5.07971
-3.80501
1.3617
1.89992
0.960594
0.13311
-6.38468
-6.36023
1869.17
-2.08274
-2.09621
-2.12093
-2.15907
-2.21277
-2.28469
-2.37805
-2.49859
-2.65166
-2.84429
-3.09025
-3.41775
-3.86356
-4.44434
-5.12574
-5.82586
-6.46375
-5.47124
-2.70985
-3.70646
-7.25223
-6.92876
1596.74
-2.05022
-2.0625
-2.08678
-2.12426
-2.17711
-2.24811
-2.34076
-2.4597
-2.61013
-2.79879
-3.03721
-3.34602
-3.75411
-4.28675
-4.94481
-5.69539
-6.50311
-7.41497
-8.28744
-8.60551
-8.02834
-6.98749
730.583
-2.00272
-2.01411
-2.03705
-2.07263
-2.12291
-2.19051
-2.27865
-2.39116
-2.53263
-2.70919
-2.93042
-3.21181
-3.57509
-4.04197
-4.62301
-5.32229
-6.15726
-7.15779
-8.00403
-8.06616
-5.72126
-4.48472
32.9532
-1.94148
-1.95184
-1.97275
-2.0053
-2.05135
-2.11322
-2.19352
-2.29518
-2.42175
-2.57827
-2.77237
-3.0153
-3.32185
-3.70824
-4.19007
-4.78832
-5.53577
-6.42901
-7.2619
-6.11821
16.2591
41.9748
36.4008
-1.86812
-1.87722
-1.89556
-1.92415
-1.96462
-2.01883
-2.0887
-2.17617
-2.28353
-2.41432
-2.57402
-2.76999
-3.01052
-3.30461
-3.66439
-4.10998
-4.67114
-5.37998
-6.10474
-5.2107
23.5456
50.2424
30.7366
-1.78458
-1.79221
-1.80758
-1.83157
-1.86551
-1.91077
-1.96854
-2.03978
-2.12557
-2.22783
-2.34969
-2.49476
-2.66596
-2.86566
-3.097
-3.36458
-3.678
-4.06371
-4.46987
-4.01968
8.16943
20.3549
16.9616
-1.69292
-1.69898
-1.71118
-1.73025
-1.75718
-1.79287
-1.83784
-1.89216
-1.95585
-2.02938
-2.11378
-2.20943
-2.31508
-2.42803
-2.5438
-2.65341
-2.74454
-2.80472
-2.76945
-2.25966
-0.731327
2.06824
6.18928
-1.59529
-1.59977
-1.60881
-1.62293
-1.64285
-1.669
-1.70135
-1.73928
-1.78194
-1.8287
-1.87899
-1.93102
-1.9809
-2.02289
-2.04852
-2.04355
-1.9886
-1.85855
-1.59889
-1.04499
-0.0347838
1.4991
3.4428
-1.4938
-1.49679
-1.50283
-1.51227
-1.52553
-1.54271
-1.56334
-1.58632
-1.6102
-1.63358
-1.65483
-1.67097
-1.67707
-1.66638
-1.62931
-1.5513
-1.41338
-1.19051
-0.849779
-0.325139
0.426134
1.37628
2.34316
-1.39044
-1.39208
-1.39542
-1.40063
-1.40789
-1.41702
-1.4273
-1.43733
-1.44537
-1.44958
-1.44772
-1.43638
-1.41059
-1.36398
-1.28798
-1.17054
-0.997436
-0.753521
-0.413171
0.0369578
0.59344
1.20658
1.7504
-1.28693
-1.28742
-1.28842
-1.28999
-1.29208
-1.29435
-1.29588
-1.29521
-1.29052
-1.27983
-1.2608
-1.23002
-1.18297
-1.11431
-1.01738
-0.883451
-0.702894
-0.4677
-0.167798
0.19595
0.606788
1.02039
1.36118
-1.18472
-1.18425
-1.18332
-1.18189
-1.17977
-1.17645
-1.17096
-1.16187
-1.14743
-1.12577
-1.09473
-1.05136
-0.991791
-0.911825
-0.806796
-0.671168
-0.499354
-0.288439
-0.0361043
0.251028
0.555572
0.845629
1.07739
-1.08497
-1.08373
-1.08128
-1.07749
-1.07207
-1.06445
-1.05367
-1.03837
-1.01696
-0.987766
-0.949006
-0.898358
-0.832816
-0.749237
-0.64463
-0.516055
-0.361407
-0.17816
0.0298902
0.255396
0.484096
0.694564
0.861374
-0.988534
-0.986712
-0.983123
-0.977572
-0.969687
-0.958905
-0.944366
-0.924864
-0.898979
-0.865262
-0.822285
-0.768359
-0.701398
-0.619214
-0.520008
-0.40244
-0.265954
-0.110824
0.0590924
0.236837
0.411581
0.569176
0.694566
-0.896045
-0.893819
-0.889449
-0.882676
-0.873069
-0.860104
-0.843073
-0.820991
-0.792653
-0.756831
-0.712414
-0.658215
-0.592898
-0.515123
-0.423937
-0.318984
-0.200675
-0.0704296
0.0681904
0.20943
0.345384
0.466701
0.564193
-0.807886
-0.805435
-0.800598
-0.793068
-0.782384
-0.768073
-0.749579
-0.726176
-0.696918
-0.660804
-0.61696
-0.564593
-0.502918
-0.431241
-0.349196
-0.256996
-0.155538
-0.0465694
0.0668155
0.180119
0.287669
0.383215
0.460954
-0.724251
-0.721705
-0.716657
-0.708769
-0.697575
-0.682663
-0.66359
-0.639845
-0.610757
-0.5756
-0.533699
-0.484534
-0.427687
-0.362904
-0.290211
-0.210115
-0.123685
-0.0326317
0.0604727
0.152194
0.238477
0.315075
0.378193
-0.645233
-0.642675
-0.637582
-0.629629
-0.618378
-0.603467
-0.584557
-0.561287
-0.533211
-0.499852
-0.460746
-0.415569
-0.36414
-0.30647
-0.242817
-0.173815
-0.100529
-0.0244853
0.0522419
0.12705
0.197025
0.259231
0.311108
-0.570731
-0.568224
-0.56319
-0.55537
-0.544404
-0.529967
-0.511805
-0.48965
-0.463229
-0.432254
-0.396452
-0.355654
-0.309833
-0.259144
-0.203959
-0.144934
-0.0830495
-0.0195996
0.0437705
0.105095
0.162258
0.213196
0.256139
-0.500536
-0.498118
-0.493238
-0.485699
-0.475245
-0.461617
-0.444616
-0.424044
-0.399741
-0.371552
-0.339348
-0.30308
-0.262819
-0.21879
-0.171404
-0.12128
-0.0692778
-0.0164653
0.0358683
0.0862377
0.133095
0.174963
0.210593
-0.434334
-0.432036
-0.427393
-0.420269
-0.410499
-0.397907
-0.382341
-0.363662
-0.341779
-0.316624
-0.288162
-0.256427
-0.221548
-0.183782
-0.143526
-0.101338
-0.0579437
-0.0142055
0.0288709
0.0701652
0.108536
0.142913
0.172401
-0.371683
-0.369549
-0.365232
-0.358657
-0.349725
-0.33834
-0.32439
-0.307795
-0.288506
-0.266507
-0.241823
-0.214537
-0.184805
-0.152886
-0.119144
-0.0840563
-0.0482214
-0.0123239
0.0228574
0.0564808
0.0877026
0.115743
0.139953
-0.312078
-0.310152
-0.306255
-0.300357
-0.292409
-0.282367
-0.270167
-0.255771
-0.239165
-0.220366
-0.199429
-0.176461
-0.151626
-0.125162
-0.097386
-0.0686965
-0.0395724
-0.0105519
0.0177752
0.0447812
0.0698461
0.0924027
0.111981
-0.255066
-0.253391
-0.249995
-0.244885
-0.238043
-0.229452
-0.219097
-0.206972
-0.193086
-0.177477
-0.160216
-0.141415
-0.121228
-0.0998653
-0.0775917
-0.0547272
-0.0316446
-0.00875406
0.0135094
0.0346872
0.0543323
0.0720387
0.0874714
-0.200236
-0.198854
-0.196026
-0.191794
-0.186149
-0.179101
-0.170659
-0.16084
-0.149675
-0.137214
-0.123535
-0.108743
-0.0929758
-0.0764095
-0.0592552
-0.041759
-0.0241984
-0.00687163
0.00991667
0.0258487
0.0406159
0.0539385
0.0655848
-0.147138
-0.146081
-0.143879
-0.140593
-0.136213
-0.130766
-0.12428
-0.116786
-0.10833
-0.0989676
-0.0887772
-0.0778545
-0.0663164
-0.0543017
-0.0419699
-0.0294982
-0.0170781
-0.00490662
0.00682901
0.0179323
0.0282097
0.0374838
0.0456066
-0.0952422
-0.0945534
-0.0930283
-0.090733
-0.0876657
-0.0838614
-0.079357
-0.0741976
-0.0684353
-0.0621317
-0.0553602
-0.0482042
-0.0407562
-0.0331188
-0.0254019
-0.0177187
-0.010182
-0.00289873
0.00405668
0.0106076
0.0166589
0.022117
0.0269019
-0.0422834
-0.0421245
-0.0413395
-0.040113
-0.038461
-0.0364243
-0.0340434
-0.0313655
-0.028443
-0.0253328
-0.022096
-0.0187961
-0.0154958
-0.0122565
-0.00913585
-0.00618448
-0.00344284
-0.000940991
0.00136288
0.0035189
0.00550464
0.00729385
0.00886293
214.962
0.859203
0.072115
0.179948
268.816
0.0966474
0.606174
0.687347
342.183
-0.451947
0.946495
0.857998
459.405
1.51877
1.20299
1.02431
534.733
1.82345
1.17737
1.05873
559.569
1.69573
1.10832
1.04922
568.436
1.76307
1.09316
1.02221
596.85
2.19957
1.07497
0.930133
641.013
2.0822
0.86898
0.652642
663.591
1.2965
0.266663
0.0686695
609
-0.180912
-0.832915
-0.943485
440.16
-2.874
-2.55994
-2.38981
576.645
0.990651
-4.20179
-3.78612
1433.28
23.4858
-4.52518
-4.43023
1561.54
70.4332
-3.35682
-4.0602
1104.78
349.93
6.96849
-3.77062
500.406
346.939
37.7105
-3.57895
81.3564
127.507
32.8215
-2.40895
41.7757
16.1272
7.08068
-1.10587
18.9972
7.84805
1.42349
-0.0919486
8.64252
4.88593
1.45995
0.572089
4.54979
2.83946
1.61743
0.990584
2.88987
2.24933
1.62473
1.15781
2.05366
1.82634
1.48852
1.15852
1.55588
1.48248
1.29837
1.07691
1.21777
1.20876
1.10753
0.963421
0.969966
0.988633
0.934746
0.843906
0.781689
0.810769
0.787398
0.730856
0.635813
0.668308
0.662411
0.628648
0.520746
0.553306
0.557481
0.538187
0.428568
0.459429
0.468722
0.459863
0.353768
0.382166
0.394075
0.391715
0.292317
0.317916
0.330814
0.332523
0.241202
0.263861
0.276618
0.280366
0.198133
0.217848
0.229818
0.234608
0.161346
0.178177
0.188963
0.194076
0.129456
0.143487
0.152844
0.157772
0.101352
0.112674
0.120448
0.124845
0.0761206
0.0848143
0.090915
0.0945405
0.0529833
0.0591196
0.0634902
0.0661673
0.0312572
0.034898
0.0375152
0.0391484
0.0102935
0.0114932
0.0123604
0.0129093
0.629361
0.65971
0.551526
0.479054
0.412817
0.361616
0.322356
0.292727
0.270429
0.253604
0.240858
0.231153
0.223735
0.218066
0.213774
0.210588
0.208327
0.206873
0.206159
0.815409
0.673342
0.558179
0.465366
0.393754
0.340694
0.301782
0.273507
0.252955
0.237931
0.226879
0.218666
0.212525
0.207916
0.204473
0.201944
0.200164
0.199023
0.198469
0.868389
0.677497
0.542627
0.440487
0.366111
0.313504
0.276657
0.251023
0.233158
0.220612
0.211724
0.205327
0.20068
0.197284
0.194793
0.19299
0.191733
0.190931
0.190548
0.870119
0.659839
0.509506
0.402204
0.328614
0.279373
0.246712
0.225227
0.211098
0.201755
0.19551
0.191253
0.188316
0.186272
0.184823
0.183804
0.183106
0.182665
0.182461
0.832019
0.612959
0.454175
0.348361
0.280277
0.237919
0.211907
0.196253
0.186972
0.181556
0.178417
0.176607
0.175575
0.174997
0.174666
0.174475
0.174363
0.174297
0.17428
0.769353
0.533664
0.373948
0.277257
0.220537
0.189134
0.172527
0.164461
0.161135
0.160317
0.1607
0.161594
0.16262
0.163596
0.164432
0.165098
0.165587
0.165902
0.166075
0.673016
0.41675
0.265551
0.187713
0.149433
0.133553
0.129224
0.130459
0.134099
0.138441
0.14268
0.146458
0.149639
0.152218
0.154245
0.155774
0.156863
0.157556
0.157918
0.510093
0.249648
0.125078
0.0793209
0.0678519
0.0723733
0.0830359
0.0951321
0.106527
0.11644
0.124728
0.13147
0.13684
0.14103
0.144231
0.146605
0.148278
0.149337
0.149879
0.22536
0.0145489
-0.0503983
-0.0464262
-0.0219948
0.00760803
0.0354903
0.059593
0.0792738
0.0948916
0.107241
0.116933
0.12445
0.130196
0.134521
0.137695
0.139917
0.14132
0.142029
-0.238719
-0.302891
-0.258874
-0.184709
-0.116098
-0.0579088
-0.0113714
0.0252103
0.0532598
0.0744149
0.0906664
0.103164
0.112686
0.119876
0.125234
0.12914
0.13186
0.133573
0.13443
-0.901768
-0.694013
-0.487369
-0.326236
-0.208682
-0.120613
-0.0551896
-0.0064287
0.0294925
0.0556006
0.0754159
0.0904594
0.101772
0.110228
0.116487
0.121027
0.124176
0.12616
0.127141
-1.72207
-1.1052
-0.708677
-0.457463
-0.293102
-0.176511
-0.0934377
-0.0337784
0.00904913
0.0389656
0.0618719
0.0791176
0.091905
0.10139
0.108376
0.113433
0.116932
0.119134
0.120211
-2.48759
-1.44562
-0.888079
-0.563025
-0.363674
-0.221337
-0.123878
-0.0559989
-0.00806259
0.0258741
0.0509113
0.069511
0.0832925
0.0934966
0.101002
0.106424
0.110176
0.112537
0.113682
-2.92327
-1.64429
-1.00837
-0.64063
-0.404455
-0.248438
-0.143379
-0.070949
-0.0201358
0.0159685
0.0422652
0.0616496
0.0759897
0.0866003
0.0944041
0.100039
0.103941
0.106395
0.107583
-3.07714
-1.76034
-1.04641
-0.664328
-0.41837
-0.258181
-0.151509
-0.0783035
-0.0270027
0.00954746
0.0360898
0.0556075
0.0700457
0.0807374
0.0886102
0.0943008
0.098245
0.100728
0.101928
-3.01078
-1.73379
-1.0075
-0.637127
-0.403198
-0.250202
-0.148238
-0.0780891
-0.0287115
0.00665861
0.0324138
0.0513897
0.0654613
0.0759093
0.0836223
0.0892109
0.0930916
0.0955384
0.0967209
-2.71266
-1.53988
-0.890804
-0.56487
-0.360965
-0.225708
-0.134362
-0.070805
-0.0255819
0.00713183
0.0311323
0.0489221
0.0621847
0.0720804
0.0794167
0.0847522
0.0884682
0.0908167
0.0919526
-2.032
-1.17975
-0.705191
-0.456718
-0.296914
-0.187513
-0.111493
-0.0574123
-0.0182045
0.0106099
0.0320198
0.0480544
0.0601135
0.0691792
0.0759429
0.0808885
0.0843474
0.0865405
0.087603
-1.16812
-0.750833
-0.483684
-0.326954
-0.218567
-0.139611
-0.0818895
-0.0392487
-0.00739682
0.016585
0.0347521
0.0485724
0.0591015
0.0671038
0.0731282
0.0775663
0.0806882
0.0826756
0.0836411
-0.392347
-0.345011
-0.260002
-0.191462
-0.134205
-0.0864814
-0.0481382
-0.0178689
0.00587989
0.024449
0.0389343
0.0502126
0.0589687
0.0657279
0.070882
0.0747181
0.0774378
0.0791787
0.0800273
0.167776
-0.00921161
-0.0577312
-0.0631554
-0.0512091
-0.0324424
-0.0128123
0.00513346
0.0206159
0.0335477
0.044133
0.0526819
0.0595125
0.0649082
0.0690999
0.0722655
0.0745346
0.075998
0.0767146
0.530139
0.241646
0.108798
0.0491886
0.0248199
0.0189233
0.021797
0.0282853
0.0358406
0.0432313
0.0499071
0.0556759
0.0605189
0.0644915
0.0676691
0.0701228
0.0719104
0.0730762
0.0736509
0.725359
0.409074
0.234782
0.140175
0.0901935
0.0649776
0.0538634
0.0503253
0.0506875
0.0528989
0.0558358
0.0588967
0.0617746
0.0643224
0.0664737
0.0682007
0.0694939
0.0703526
0.0707804
0.802609
0.506054
0.321427
0.209492
0.142685
0.104032
0.0820688
0.0702675
0.0644324
0.0620276
0.0615406
0.0620683
0.0630766
0.06425
0.0653994
0.0664104
0.0672127
0.0677654
0.0680465
0.80533
0.549907
0.373986
0.257783
0.182684
0.135148
0.10559
0.0874159
0.0765179
0.0701893
0.0666984
0.0649483
0.0642415
0.0641339
0.0643378
0.064666
0.0649968
0.0652538
0.0653927
0.765328
0.556596
0.399359
0.287572
0.210502
0.158523
0.12402
0.10134
0.0865578
0.0770608
0.0710505
0.0673323
0.0651104
0.0638496
0.0631901
0.0628878
0.0627796
0.0627596
0.062765
0.703747
0.539019
0.404359
0.30207
0.227439
0.174411
0.137383
0.11183
0.0943203
0.0824204
0.0744021
0.0690586
0.0655505
0.0632903
0.0618698
0.0610045
0.0605008
0.0602294
0.0601132
0.633701
0.506806
0.394896
0.304533
0.235133
0.183516
0.145921
0.118907
0.0997063
0.0861403
0.0766188
0.0700067
0.0654591
0.0623691
0.0603038
0.0589547
0.0581069
0.0576154
0.0573922
0.562673
0.466694
0.375695
0.29791
0.235276
0.186729
0.150029
0.122744
0.102711
0.0881691
0.0776276
0.0700981
0.0647613
0.0610192
0.0584338
0.0566872
0.0555531
0.0548766
0.0545629
0.494613
0.423146
0.350354
0.284697
0.229455
0.184985
0.150214
0.123576
0.103469
0.0884535
0.0774034
0.0692922
0.0634098
0.0591934
0.0562165
0.0541625
0.0528032
0.0519792
0.0515931
0.431543
0.378948
0.321475
0.266912
0.219073
0.179182
0.147022
0.121711
0.102136
0.0872044
0.0759672
0.0675802
0.0613827
0.0568643
0.0536225
0.0513522
0.0498297
0.0488974
0.0484573
0.373949
0.335726
0.290871
0.246111
0.2053
0.170142
0.140996
0.117483
0.0989005
0.0844509
0.073372
0.0649764
0.0586795
0.0540214
0.0506364
0.0482384
0.0466145
0.0456128
0.0451375
0.321751
0.294427
0.25976
0.22344
0.189086
0.158583
0.132634
0.111228
0.0939761
0.0803263
0.0696914
0.0615119
0.0553186
0.0506692
0.0472549
0.044814
0.0431482
0.042115
0.0416227
0.274963
0.255513
0.228923
0.199743
0.171178
0.145101
0.122387
0.103267
0.0875821
0.0749768
0.0650169
0.0572613
0.0513076
0.046824
0.0434855
0.041081
0.0394294
0.0384005
0.0379087
0.232612
0.219006
0.1988
0.175595
0.152147
0.130186
0.110646
0.0938936
0.0799314
0.068553
0.0594507
0.0522854
0.0467327
0.0425189
0.0393464
0.0370501
0.0354643
0.034473
0.0339979
0.194139
0.184793
0.169604
0.151382
0.132412
0.114229
0.0977397
0.0833706
0.0712247
0.0612037
0.0530997
0.0466586
0.0416226
0.0377475
0.0348623
0.0327394
0.031266
0.0303422
0.0298986
0.158966
0.152656
0.141411
0.12733
0.11227
0.0975332
0.0839417
0.0719274
0.0616464
0.0530726
0.0460731
0.0404636
0.036046
0.0326308
0.0300719
0.0281732
0.0268534
0.0260236
0.0256243
0.126535
0.122316
0.114178
0.103564
0.0919236
0.0803255
0.0694723
0.0597611
0.0513632
0.0442953
0.0384785
0.0337842
0.0300649
0.0271737
0.0249749
0.023379
0.0222495
0.0215373
0.0211938
0.0962955
0.0934616
0.0878179
0.0801211
0.0714968
0.0627724
0.0545087
0.0470393
0.040524
0.0349987
0.0304212
0.026706
0.0237478
0.0214386
0.0196789
0.0183984
0.017483
0.0169072
0.0166297
0.0675834
0.0659231
0.0621887
0.0569839
0.0510568
0.0449915
0.03919
0.033904
0.0292617
0.0253012
0.0220031
0.0193141
0.0171647
0.0154812
0.0141943
0.0132487
0.0125837
0.0121617
0.0119581
0.0400579
0.0392154
0.0370886
0.0340869
0.0306301
0.0270623
0.0236261
0.0204766
0.0176963
0.015314
0.0133225
0.0116933
0.0103871
0.00936109
0.00857339
0.00798404
0.00758789
0.0073324
0.00720733
0.0132261
0.0129825
0.0123087
0.0113293
0.0102077
0.00903995
0.00790817
0.0068655
0.00594086
0.00514542
0.00447809
0.00393046
0.00349017
0.00314334
0.00287603
0.00267534
0.00254019
0.00245205
0.00240644
)
;

boundaryField
{
    leftWall
    {
        type            fixedFluxPressure;
        gradient        uniform 0;
        value           nonuniform List<scalar> 
50
(
2680.09
2667.47
2642.14
2604.02
2553.07
2489.63
2414.86
2331.07
2260.29
2207.71
2156.44
2106.34
2046.12
1209.21
2.99211
-1.98233
-2.01471
-2.04795
-2.07524
-2.09477
-2.10379
-2.10025
-2.08274
-2.05022
-2.00272
-1.94148
-1.86812
-1.78458
-1.69292
-1.59529
-1.4938
-1.39044
-1.28693
-1.18472
-1.08497
-0.988534
-0.896045
-0.807886
-0.724251
-0.645233
-0.570731
-0.500536
-0.434334
-0.371683
-0.312078
-0.255066
-0.200236
-0.147138
-0.0952422
-0.0422834
)
;
    }
    rightWall
    {
        type            fixedFluxPressure;
        gradient        uniform 0;
        value           nonuniform List<scalar> 
50
(
0.26595
0.264083
0.260369
0.254842
0.247562
0.238621
0.228149
0.21633
0.206159
0.198469
0.190548
0.182461
0.17428
0.166075
0.157918
0.149879
0.142029
0.13443
0.127141
0.120211
0.113682
0.107583
0.101928
0.0967209
0.0919526
0.087603
0.0836411
0.0800273
0.0767146
0.0736509
0.0707804
0.0680465
0.0653927
0.062765
0.0601132
0.0573922
0.0545629
0.0515931
0.0484573
0.0451375
0.0416227
0.0379087
0.0339979
0.0298986
0.0256243
0.0211938
0.0166297
0.0119581
0.00720733
0.00240644
)
;
    }
    lowerWall
    {
        type            fixedFluxPressure;
        gradient        uniform 0;
        value           nonuniform List<scalar> 
62
(
2680.09
2684.97
2690.33
2698.24
2708.82
2722.2
2738.4
2757.4
2779.16
2803.61
2830.67
2860.2
2891.99
2925.56
2960.18
2995.05
3029.16
3061.39
3090.45
3115.23
3135.3
3147.33
3137.36
3137.36
3160.88
3235.47
3350.35
3494.62
3699.12
3820.94
3286.07
214.962
0.859203
0.072115
0.179948
0.464246
0.469744
0.480998
0.499651
0.526318
0.569675
0.615337
0.648643
0.464246
0.459283
0.449897
0.43699
0.421565
0.404632
0.387082
0.369654
0.352899
0.337228
0.322915
0.310122
0.298941
0.289408
0.281522
0.275262
0.2706
0.267509
0.26595
)
;
    }
    atmosphere
    {
        type            totalPressure;
        rho             rho;
        psi             none;
        gamma           1;
        p0              uniform 0;
        value           nonuniform List<scalar> 
46
(
-0.0145186
-0.0148701
-0.0144484
-0.013795
-0.0129207
-0.0118584
-0.0106448
-0.00932273
-0.00793945
-0.00654463
-0.00518795
-0.00391707
-0.00277561
-0.00180104
-0.00102259
-0.000459515
-0.000119953
-4.30903e-07
0
0
0
0
0
0
0
0
0
0
0
0
0
0
0
0
0
0
0
0
0
0
0
0
0
-1.70829e-06
-5.3354e-06
-1.30216e-05
)
;
    }
    defaultFaces
    {
        type            empty;
    }
}


// ************************************************************************* //
