/*--------------------------------*- C++ -*----------------------------------*\
| =========                 |                                                 |
| \\      /  F ield         | OpenFOAM: The Open Source CFD Toolbox           |
|  \\    /   O peration     | Version:  2206                                  |
|   \\  /    A nd           | Website:  www.openfoam.com                      |
|    \\/     M anipulation  |                                                 |
\*---------------------------------------------------------------------------*/
FoamFile
{
    version     2.0;
    format      ascii;
    arch        "LSB;label=32;scalar=64";
    class       surfaceScalarField;
    location    "0.475";
    object      alphaPhi0.water;
}
// * * * * * * * * * * * * * * * * * * * * * * * * * * * * * * * * * * * * * //

dimensions      [0 3 -1 0 0 0 0];

oriented        oriented;

internalField   nonuniform List<scalar> 
4432
(
-4.71077e-07
4.71078e-07
2.06392e-07
-6.77469e-07
1.53834e-06
-1.33195e-06
3.06333e-06
-1.52499e-06
4.48913e-06
-1.4258e-06
5.67713e-06
-1.18799e-06
6.59864e-06
-9.21515e-07
7.28546e-06
-6.86816e-07
7.78846e-06
-5.03002e-07
8.15054e-06
-3.62083e-07
8.39222e-06
-2.41677e-07
8.50837e-06
-1.16154e-07
8.47181e-06
3.65641e-08
8.20427e-06
2.67541e-07
7.63485e-06
5.69417e-07
6.68468e-06
9.50166e-07
5.3025e-06
1.38219e-06
3.51626e-06
1.78624e-06
1.49966e-06
2.01659e-06
-4.27805e-07
1.92747e-06
-1.66174e-06
1.23393e-06
-1.53287e-06
-1.28873e-07
-1.53287e-06
-5.1066e-07
9.81738e-07
1.50675e-07
-1.3388e-06
1.48969e-06
-2.67096e-06
3.04969e-06
-3.08499e-06
4.52978e-06
-2.90589e-06
5.77488e-06
-2.43309e-06
6.74437e-06
-1.89101e-06
7.46657e-06
-1.40901e-06
7.99565e-06
-1.03209e-06
8.38234e-06
-7.48765e-07
8.66228e-06
-5.21621e-07
8.85721e-06
-3.11089e-07
8.97032e-06
-7.65365e-08
9.02541e-06
2.12449e-07
9.01477e-06
5.80055e-07
8.89078e-06
1.07415e-06
8.54725e-06
1.72572e-06
7.82927e-06
2.50422e-06
6.60285e-06
3.243e-06
4.90715e-06
3.62316e-06
2.97985e-06
3.16124e-06
1.11793e-06
1.73305e-06
-4.14937e-07
-5.77291e-07
1.55903e-06
2.94445e-08
-1.94554e-06
1.35249e-06
-3.99401e-06
2.95293e-06
-4.68542e-06
4.50557e-06
-4.45853e-06
5.82684e-06
-3.75436e-06
6.85666e-06
-2.92082e-06
7.61737e-06
-2.16973e-06
8.16797e-06
-1.58268e-06
8.56888e-06
-1.14967e-06
8.86282e-06
-8.15566e-07
9.06746e-06
-5.15731e-07
9.18517e-06
-1.94246e-07
9.21589e-06
1.81734e-07
9.153e-06
6.42948e-07
9.02215e-06
1.205e-06
8.85432e-06
1.89355e-06
8.63183e-06
2.7267e-06
8.20042e-06
3.67441e-06
7.25937e-06
4.56422e-06
5.45478e-06
4.96583e-06
2.86843e-06
4.3194e-06
2.45349e-06
-6.77322e-07
2.23635e-06
-1.47467e-07
-2.47539e-06
1.16396e-06
-5.30544e-06
2.81945e-06
-6.34091e-06
4.46305e-06
-6.10213e-06
5.88167e-06
-5.17298e-06
6.99344e-06
-4.03258e-06
7.81192e-06
-2.98821e-06
8.39936e-06
-2.17012e-06
8.82591e-06
-1.57623e-06
9.14537e-06
-1.13502e-06
9.38752e-06
-7.57884e-07
9.56194e-06
-3.68666e-07
9.65224e-06
9.14328e-08
9.64775e-06
6.47442e-07
9.52599e-06
1.32676e-06
9.28604e-06
2.1335e-06
8.94514e-06
3.0676e-06
8.48743e-06
4.13212e-06
7.73284e-06
5.31881e-06
6.23921e-06
6.45946e-06
3.59268e-06
6.96593e-06
6.04617e-06
-8.02572e-07
3.03892e-06
-3.64089e-07
-2.91387e-06
9.55588e-07
-6.62511e-06
2.66632e-06
-8.05165e-06
4.39346e-06
-7.82926e-06
5.90723e-06
-6.68675e-06
7.10754e-06
-5.2329e-06
7.99751e-06
-3.87818e-06
8.63947e-06
-2.81208e-06
9.11066e-06
-2.04741e-06
9.47448e-06
-1.49884e-06
9.76927e-06
-1.05268e-06
1.00083e-05
-6.07739e-07
1.01883e-05
-8.84995e-08
1.0284e-05
5.51704e-07
1.02658e-05
1.34497e-06
1.00892e-05
2.31009e-06
9.70644e-06
3.45038e-06
9.07866e-06
4.7599e-06
8.14599e-06
6.25147e-06
6.65015e-06
7.9553e-06
4.02342e-06
9.59266e-06
1.00696e-05
-9.42804e-07
3.98173e-06
-5.86889e-07
-3.26979e-06
7.2426e-07
-7.93626e-06
2.48248e-06
-9.80987e-06
4.28376e-06
-9.63054e-06
5.87804e-06
-8.28103e-06
7.15794e-06
-6.5128e-06
8.12365e-06
-4.84388e-06
8.8368e-06
-3.52523e-06
9.3766e-06
-2.58721e-06
9.81081e-06
-1.93305e-06
1.01834e-05
-1.42528e-06
1.05134e-05
-9.37726e-07
1.07995e-05
-3.74646e-07
1.10224e-05
3.28894e-07
1.11489e-05
1.21842e-06
1.11263e-05
2.33265e-06
1.08734e-05
3.70335e-06
1.02748e-05
5.35849e-06
9.2018e-06
7.32446e-06
7.45922e-06
9.69789e-06
4.51587e-06
1.2536e-05
1.45855e-05
-1.10703e-06
5.08875e-06
-8.96477e-07
-3.48034e-06
3.12552e-07
-9.14529e-06
2.13954e-06
-1.16369e-05
4.07508e-06
-1.15661e-05
5.76977e-06
-9.97573e-06
7.11759e-06
-7.86062e-06
8.14945e-06
-5.87574e-06
8.94209e-06
-4.31787e-06
9.57472e-06
-3.21984e-06
1.01118e-05
-2.47015e-06
1.05969e-05
-1.9104e-06
1.10521e-05
-1.39284e-06
1.14802e-05
-8.02781e-07
1.1864e-05
-5.48767e-08
1.21809e-05
9.01448e-07
1.23796e-05
2.13401e-06
1.23831e-05
3.69977e-06
1.20561e-05
5.68553e-06
1.1223e-05
8.15751e-06
9.58483e-06
1.13361e-05
6.8049e-06
1.53159e-05
2.13904e-05
-1.30037e-06
6.38912e-06
-1.36662e-06
-3.41408e-06
-3.97417e-07
-1.01145e-05
1.49735e-06
-1.35316e-05
3.67441e-06
-1.37431e-05
5.54667e-06
-1.1848e-05
6.97826e-06
-9.29222e-06
8.06645e-06
-6.96393e-06
8.93542e-06
-5.18684e-06
9.67452e-06
-3.95894e-06
1.03415e-05
-3.13716e-06
1.09731e-05
-2.54192e-06
1.15893e-05
-2.00906e-06
1.21963e-05
-1.40984e-06
1.27903e-05
-6.48791e-07
1.33504e-05
3.41346e-07
1.38437e-05
1.64071e-06
1.42061e-05
3.33731e-06
1.42945e-05
5.59718e-06
1.3857e-05
8.59502e-06
1.22291e-05
1.2964e-05
8.66715e-06
1.88779e-05
3.00575e-05
-2.14187e-06
2.14334e-06
-2.13753e-05
1.92349e-05
-3.24824e-05
1.11193e-05
-3.19039e-05
5.59723e-07
-2.61714e-05
-1.13953e-06
-2.12212e-05
-2.1053e-06
-2.01265e-05
-5.78611e-06
4.12557e-06
-2.78248e-05
4.31449e-05
-4.09398e-05
6.42775e-05
-2.17033e-05
6.88476e-05
-2.56274e-06
5.34334e-05
1.61647e-05
2.19682e-05
3.19707e-05
-3.54611e-06
3.04066e-05
-1.37855e-05
9.42708e-06
-2.70666e-05
8.01951e-06
-5.20478e-05
1.27524e-05
-4.59023e-05
-6.10912e-06
-4.58675e-05
-1.65139e-05
1.86588e-05
-1.25616e-05
1.39336e-05
-4.21283e-06
2.25878e-06
-3.27642e-06
-5.39914e-07
-2.54238e-06
-2.10971e-06
-2.11816e-06
-2.79409e-06
6.25216e-06
-1.23698e-05
6.65223e-05
-8.89157e-05
9.78467e-05
-7.22384e-05
0.000111683
-3.54964e-05
0.000115268
-6.10013e-06
0.000109684
2.18304e-05
8.77268e-05
5.39548e-05
4.42418e-05
7.47504e-05
-1.59395e-07
6.38704e-05
-2.58199e-05
2.89977e-05
-4.25962e-05
1.46134e-05
-3.48811e-05
-1.37889e-05
-8.07098e-05
-9.14674e-06
2.91681e-05
-2.58334e-06
5.137e-06
-1.11918e-06
6.31397e-07
-6.08781e-08
-1.76145e-06
7.45672e-07
-3.07948e-06
7.55531e-06
-9.76181e-06
7.15662e-05
-7.53411e-05
9.94862e-05
-0.000116461
0.000112052
-8.47532e-05
0.000119832
-4.32294e-05
0.000122354
-8.57506e-06
0.000121112
2.31182e-05
0.000114024
6.10886e-05
8.96438e-05
9.91829e-05
3.98257e-05
0.000113795
-4.85579e-06
7.28364e-05
-2.1448e-05
2.96702e-05
-2.65656e-05
-1.4515e-05
-0.000105227
-6.30509e-07
2.9675e-05
7.21765e-07
3.54619e-06
1.39983e-06
-2.18103e-07
2.04032e-06
-2.56516e-06
7.63764e-06
-8.82429e-06
5.83422e-05
-6.23115e-05
0.000101063
-0.000118725
0.000108456
-0.000123722
0.000116173
-9.24085e-05
0.000122209
-4.92221e-05
0.000124825
-1.11457e-05
0.000123781
2.42085e-05
0.000120633
6.42827e-05
0.000110278
0.000109584
8.05576e-05
0.000143568
2.81511e-05
0.000136484
-6.51107e-06
6.35595e-05
-1.82655e-05
-4.0408e-06
-0.00012955
4.25911e-06
1.19232e-05
2.17785e-06
5.14417e-06
2.81038e-06
-1.03027e-06
6.97756e-06
-6.89746e-06
5.02842e-05
-5.24545e-05
9.68513e-05
-0.000109241
0.000106805
-0.000128173
0.00011194
-0.000128536
0.000118607
-9.89356e-05
0.000123949
-5.45027e-05
0.000127081
-1.41668e-05
0.000126618
2.47169e-05
0.000123146
6.7801e-05
0.000117913
0.000114863
0.000102672
0.000158855
6.31032e-05
0.000176106
1.55683e-05
0.000110519
-4.69835e-07
1.0717e-05
-0.000131892
2.29332e-06
1.02101e-05
5.42479e-06
4.48189e-06
5.88685e-06
-1.68253e-06
4.36322e-05
-4.3531e-05
9.02586e-05
-9.84829e-05
0.000102739
-0.000121226
0.000108402
-0.000133306
0.000112759
-0.000132351
0.000112898
-9.60404e-05
0.000100108
-3.44257e-05
9.82669e-05
-6.13149e-06
0.000112396
1.23764e-05
0.000121262
5.89808e-05
0.000119593
0.000116577
0.000112505
0.000165997
9.09824e-05
0.000197686
4.18364e-05
0.000170944
1.29598e-05
3.83133e-05
-0.000114451
3.9491e-06
1.12676e-05
1.11896e-05
-1.45034e-06
4.73267e-05
-3.67751e-05
8.8252e-05
-8.39085e-05
0.000100392
-0.000110238
0.000104951
-0.000125295
0.00010753
-0.000135391
9.19135e-05
-0.000109871
3.18744e-05
-2.26708e-05
1.27727e-05
-3.85239e-06
1.12482e-05
-4.72969e-07
2.65076e-05
6.70566e-07
7.70524e-05
7.92483e-06
0.000111145
8.00849e-05
0.000113813
0.000163386
0.000104761
0.000206808
7.51865e-05
0.000200607
2.92832e-05
9.18652e-05
-8.28386e-05
2.07109e-05
-1.0633e-05
5.53188e-05
-3.53966e-05
8.71314e-05
-6.72301e-05
9.71985e-05
-9.37615e-05
0.000101897
-0.000114638
0.000102241
-0.000125254
8.54769e-05
-0.000115417
2.30537e-05
-3.25069e-05
4.02619e-06
-3.40569e-06
6.23212e-07
-4.12575e-07
1.73936e-07
-1.81726e-08
8.16916e-07
2.68678e-08
7.76829e-06
9.45478e-07
6.60702e-05
1.28986e-05
0.000104352
0.000122907
0.000107876
0.000203372
9.0279e-05
0.000218118
5.0393e-05
0.000133097
-3.2158e-05
-2.78861e-06
9.17773e-06
-3.55855e-06
-2.64415e-06
-2.26098e-06
-1.14121e-05
1.72609e-06
-1.75186e-05
6.71207e-06
-1.8729e-05
1.10602e-05
-1.61961e-05
1.43174e-05
-1.25494e-05
1.67968e-05
-9.44333e-06
1.88874e-05
-7.27744e-06
2.08189e-05
-5.89039e-06
2.26971e-05
-5.01535e-06
2.45714e-05
-4.41625e-06
2.64706e-05
-3.90827e-06
2.84175e-05
-3.35674e-06
3.04386e-05
-2.66991e-06
3.25667e-05
-1.78678e-06
3.48803e-05
-6.72854e-07
3.74882e-05
7.29428e-07
4.05865e-05
2.49888e-06
4.46357e-05
4.54574e-06
5.04563e-05
7.14339e-06
6.02362e-05
9.09798e-06
1.52972e-05
7.49966e-05
-4.33847e-08
9.22111e-06
2.22026e-07
-2.90957e-06
2.09633e-06
-1.32862e-05
4.99307e-06
-2.04138e-05
8.2211e-06
-2.19554e-05
1.14424e-05
-1.94169e-05
1.42565e-05
-1.53634e-05
1.67185e-05
-1.19052e-05
1.90789e-05
-9.63777e-06
2.14864e-05
-8.29789e-06
2.39794e-05
-7.50834e-06
2.65528e-05
-6.98965e-06
2.92038e-05
-6.55926e-06
3.19525e-05
-6.10541e-06
3.48493e-05
-5.56673e-06
3.79781e-05
-4.91566e-06
4.1452e-05
-4.14672e-06
4.54494e-05
-3.26801e-06
5.02256e-05
-2.27729e-06
5.60141e-05
-1.24271e-06
6.31094e-05
4.80999e-08
7.15968e-05
6.10546e-07
3.33004e-06
8.3564e-05
8.27805e-06
9.43054e-07
1.80182e-05
-1.26498e-05
2.30966e-05
-1.764e-05
2.07181e-05
-1.58546e-05
1.71744e-05
-1.65947e-05
1.55647e-05
-1.73803e-05
1.58178e-05
-1.56112e-05
1.73545e-05
-1.34385e-05
1.96602e-05
-1.19413e-05
2.24069e-05
-1.10431e-05
2.53835e-05
-1.04838e-05
2.84701e-05
-1.00754e-05
3.16181e-05
-9.70645e-06
3.48308e-05
-9.31734e-06
3.81475e-05
-8.88284e-06
4.16322e-05
-8.39985e-06
4.53672e-05
-7.88125e-06
4.9455e-05
-7.35555e-06
5.40362e-05
-6.85833e-06
5.92566e-05
-6.46287e-06
6.54929e-05
-6.18811e-06
7.24136e-05
-6.31015e-06
-6.36945e-06
8.21132e-05
1.57705e-05
-8.05087e-06
2.34695e-05
-9.38047e-06
1.83186e-05
-9.09088e-07
1.53834e-05
-7.12263e-07
1.42992e-05
-2.22005e-06
1.22657e-05
-3.191e-06
1.10181e-05
-3.27447e-06
1.16073e-05
-3.38712e-06
1.33302e-05
-3.5196e-06
1.56087e-05
-3.63298e-06
1.8213e-05
-3.74124e-06
2.10504e-05
-3.86536e-06
2.40691e-05
-4.00021e-06
2.72472e-05
-4.1338e-06
3.0589e-05
-4.25993e-06
3.41075e-05
-4.37606e-06
3.78135e-05
-4.48223e-06
4.17186e-05
-4.58695e-06
4.58506e-05
-4.70366e-06
5.02407e-05
-4.86268e-06
5.48922e-05
-5.11348e-06
5.94504e-05
-5.39507e-06
-5.78075e-06
6.43595e-05
3.0247e-06
-6.03102e-11
8.97608e-07
-2.55265e-09
4.69706e-09
-4.84111e-10
-8.96355e-08
2.67364e-09
2.76363e-07
6.8573e-18
1.8461e-07
2.36109e-17
1.40396e-07
6.65469e-17
1.52635e-07
2.24891e-16
2.23386e-07
6.75071e-16
3.38802e-07
1.6754e-15
5.18886e-07
3.53448e-15
7.8072e-07
6.39641e-15
1.13316e-06
9.82624e-15
1.58312e-06
1.31408e-14
2.13895e-06
1.57155e-14
2.80354e-06
1.73382e-14
3.56604e-06
1.80009e-14
4.40075e-06
1.66508e-14
5.26534e-06
1.19647e-14
6.10286e-06
5.87701e-15
6.79628e-06
-4.65967e-14
7.19016e-06
-2.92457e-13
-2.3822e-13
7.15142e-06
-5.75037e-11
-1.3892e-12
-2.54179e-09
-4.37004e-11
-2.67323e-09
4.68692e-11
6.96982e-18
1.09313e-18
1.29944e-17
1.26622e-17
7.76262e-18
5.92609e-17
-3.4115e-17
2.00962e-16
-1.90654e-16
6.08258e-16
-7.02622e-16
1.64806e-15
-2.07e-15
3.86932e-15
-5.11414e-15
7.79397e-15
-1.06222e-14
1.34404e-14
-1.85775e-14
1.99353e-14
-2.82589e-14
2.60319e-14
-3.83297e-14
3.07282e-14
-4.77683e-14
3.35453e-14
-5.58301e-14
3.43144e-14
-5.7644e-14
2.5588e-14
-4.55302e-14
-2.22869e-15
-2.40859e-14
-2.32255e-14
7.6126e-15
-7.82952e-14
5.45309e-14
-3.41162e-13
-2.86063e-13
7.24991e-14
-1.3892e-12
3.16689e-21
-4.68692e-11
9.35202e-21
2.7326e-21
9.03334e-20
-4.34353e-19
1.6408e-18
-3.56661e-18
1.68667e-17
-2.21678e-17
8.73131e-17
-1.18648e-16
3.40877e-16
-4.84354e-16
1.0731e-15
-1.57941e-15
2.81862e-15
-4.27044e-15
6.28021e-15
-9.77221e-15
1.19606e-14
-1.89686e-14
1.94188e-14
-3.14192e-14
2.69581e-14
-4.55925e-14
3.28892e-14
-5.96523e-14
3.6303e-14
-7.20095e-14
3.70275e-14
-8.12161e-14
3.49148e-14
-6.6532e-14
-2.42731e-15
1.34807e-14
-9.69624e-14
1.09437e-13
-1.19182e-13
3.62286e-13
-3.3293e-13
1.16616e-12
-1.17491e-12
-6.56512e-13
1.46536e-12
2.64536e-21
3.734e-21
-4.12896e-21
2.87397e-20
-1.12912e-19
3.67509e-19
-8.78788e-19
3.67917e-18
-7.84488e-18
2.57244e-17
-4.27453e-17
1.30186e-16
-1.92128e-16
5.07266e-16
-7.10996e-16
1.57249e-15
-2.16851e-15
3.98049e-15
-5.52196e-15
8.40134e-15
-1.18629e-14
1.49556e-14
-2.15085e-14
2.2409e-14
-3.30995e-14
2.83241e-14
-4.4588e-14
3.12608e-14
-5.4294e-14
3.11351e-14
-6.10823e-14
2.84305e-14
-6.38986e-14
2.29915e-14
1.9684e-14
-8.59796e-14
4.56525e-13
-5.56216e-13
2.07382e-12
-1.77057e-12
6.74258e-12
-5.03191e-12
1.99429e-11
-1.50258e-11
-4.10501e-12
2.26975e-11
-7.63224e-22
5.22238e-22
-5.45426e-21
2.92957e-20
-1.12293e-19
5.36847e-19
-1.14094e-18
5.28347e-18
-8.926e-18
3.58135e-17
-5.29937e-17
1.76841e-16
-2.40093e-16
6.66273e-16
-8.57767e-16
1.98191e-15
-2.47738e-15
4.7624e-15
-5.89059e-15
9.40506e-15
-1.16774e-14
1.54207e-14
-1.93162e-14
2.09072e-14
-2.682e-14
2.34215e-14
-3.24647e-14
2.26524e-14
-3.5441e-14
1.95432e-14
-3.5369e-14
1.49305e-14
-3.10827e-14
8.65247e-15
5.23646e-13
-6.39217e-13
5.55639e-12
-5.591e-12
1.79156e-11
-1.47983e-11
7.24321e-11
-5.93754e-11
2.47067e-10
-6.44747e-10
-3.6115e-10
2.53646e-10
-1.03562e-22
3.60982e-22
-4.42892e-21
3.72377e-20
-1.06867e-19
6.76666e-19
-1.32917e-18
6.58295e-18
-1.07493e-17
4.3448e-17
-6.23517e-17
2.08658e-16
-2.70054e-16
7.58091e-16
-9.07179e-16
2.14744e-15
-2.43056e-15
4.84307e-15
-5.29111e-15
8.82394e-15
-9.46666e-15
1.30886e-14
-1.38994e-14
1.56726e-14
-1.67792e-14
1.50153e-14
-1.74167e-14
1.21363e-14
-1.6022e-14
8.39633e-15
-1.29271e-14
4.54167e-15
-7.8466e-15
9.62034e-16
4.81684e-12
-5.46276e-12
5.71398e-11
-5.80623e-11
3.86709e-10
-5.76952e-10
1.49073e-09
-1.36446e-09
1.72498e-09
-1.37797e-09
-8.92699e-10
2.81436e-10
-6.13458e-23
5.22873e-22
-5.27108e-21
4.34467e-20
-1.19532e-19
7.60662e-19
-1.47134e-18
7.26892e-18
-1.14721e-17
4.65793e-17
-6.30316e-17
2.15323e-16
-2.5772e-16
7.4665e-16
-8.09464e-16
1.99303e-15
-1.99585e-15
4.16557e-15
-3.922e-15
6.88846e-15
-6.19474e-15
9.03861e-15
-7.80515e-15
9.25685e-15
-7.76967e-15
7.19612e-15
-6.41892e-15
4.4711e-15
-4.44701e-15
2.04134e-15
-2.3633e-15
4.05838e-16
-4.87501e-16
3.24783e-17
1.08971e-10
-1.19089e-10
7.24218e-10
-1.26304e-09
7.00058e-10
-1.48272e-09
8.26108e-10
-1.48857e-09
8.54386e-10
-1.40381e-09
-6.65613e-10
1.85604e-10
-7.54619e-23
6.97937e-22
-5.44527e-21
4.48863e-20
-1.15399e-19
7.53475e-19
-1.36006e-18
6.99753e-18
-1.02921e-17
4.32632e-17
-5.43471e-17
1.91136e-16
-2.10448e-16
6.26904e-16
-6.15235e-16
1.5605e-15
-1.3826e-15
2.98316e-15
-2.41539e-15
4.39704e-15
-3.28918e-15
4.97051e-15
-3.42286e-15
4.18297e-15
-2.62344e-15
2.44746e-15
-1.53923e-15
9.84396e-16
-6.30105e-16
6.22787e-17
-1.06849e-16
-3.77493e-17
-7.02567e-18
-1.31682e-17
1.30603e-10
-3.68502e-10
2.34437e-10
-1.36507e-09
2.00144e-10
-1.4465e-09
1.69042e-10
-1.45554e-09
1.29303e-10
-1.36168e-09
-3.11207e-10
-1.22962e-12
-7.98415e-23
7.76576e-22
-4.70807e-21
3.99922e-20
-9.71155e-20
6.42217e-19
-1.10921e-18
5.74481e-18
-8.07975e-18
3.39794e-17
-4.06886e-17
1.42366e-16
-1.48353e-16
4.37873e-16
-4.01884e-16
1.00634e-15
-8.19888e-16
1.73808e-15
-1.26518e-15
2.2447e-15
-1.46579e-15
2.12847e-15
-1.22781e-15
1.40758e-15
-6.82396e-16
5.58785e-16
-2.42764e-16
7.93992e-17
-1.23432e-17
-2.32989e-16
8.83141e-18
-7.13577e-17
1.45409e-16
-1.49746e-16
2.06923e-11
-2.45929e-10
-5.65809e-11
-1.28228e-09
-1.35982e-10
-1.36529e-09
-2.00013e-10
-1.38922e-09
-1.35422e-10
-1.42188e-09
-6.68159e-10
-6.76601e-11
-6.89341e-23
7.02298e-22
-3.46744e-21
2.97423e-20
-7.02287e-20
4.54512e-19
-7.77469e-19
3.88311e-18
-5.43636e-18
2.18005e-17
-2.60612e-17
8.59558e-17
-8.94798e-17
2.45887e-16
-2.24945e-16
5.17264e-16
-4.1746e-16
7.99811e-16
-5.69471e-16
8.95845e-16
-5.59614e-16
7.02237e-16
-3.73934e-16
3.53693e-16
-1.44207e-16
8.41427e-17
-1.8753e-17
-2.82065e-17
6.71373e-17
-5.5613e-16
1.16972e-16
-1.44951e-15
1.68534e-15
-1.73779e-15
2.28791e-11
-1.08547e-14
-1.78878e-11
-4.98243e-11
-1.23706e-10
-1.2319e-09
-2.03075e-10
-1.30546e-09
-2.85432e-10
-1.31221e-09
-8.40256e-10
-1.82643e-10
-4.81225e-23
4.97233e-22
-2.14263e-21
1.75859e-20
-4.25777e-20
2.53794e-19
-4.55076e-19
2.05402e-18
-3.04821e-18
1.08664e-17
-1.38844e-17
4.00522e-17
-4.48059e-17
1.05909e-16
-1.04388e-16
2.02989e-16
-1.76123e-16
2.80696e-16
-2.12418e-16
2.74738e-16
-1.76889e-16
1.82374e-16
-9.32412e-17
7.24487e-17
-2.27773e-17
9.28244e-18
3.39018e-17
-5.87192e-17
3.23604e-16
-9.32259e-16
7.12914e-16
-5.98364e-15
3.94865e-16
-8.16357e-15
4.40804e-16
-1.74078e-14
5.89693e-12
-2.47371e-14
8.68004e-11
-3.62976e-14
2.68206e-11
-4.10996e-10
3.21455e-12
-7.64791e-12
-1.76358e-13
6.30903e-12
-2.65648e-23
2.57041e-22
-1.06551e-21
7.64855e-21
-2.06129e-20
1.03341e-19
-2.11695e-19
7.86953e-19
-1.35221e-18
3.90386e-18
-5.82335e-18
1.34153e-17
-1.75754e-17
3.2816e-17
-3.77904e-17
5.76566e-17
-5.7878e-17
7.23548e-17
-6.2068e-17
6.35297e-17
-4.46772e-17
3.70547e-17
-1.90727e-17
1.16909e-17
-2.6078e-18
5.70662e-20
3.78036e-17
-5.24436e-17
5.58086e-16
-9.00207e-16
3.2978e-15
-7.15246e-15
5.36585e-15
-3.14622e-14
5.07829e-15
-3.88529e-14
5.11242e-15
-4.16583e-14
4.75913e-15
-5.08058e-14
7.66753e-12
-6.19011e-14
1.42707e-13
-3.9651e-14
-5.41827e-14
1.05461e-14
-1.09604e-23
8.47277e-23
-3.97299e-22
2.13899e-21
-7.39048e-21
2.69633e-20
-7.24004e-20
1.92904e-19
-4.38496e-19
8.98363e-19
-1.77831e-18
2.89001e-18
-5.01253e-18
6.5939e-18
-9.97502e-18
1.07637e-17
-1.40027e-17
1.25053e-17
-1.36159e-17
1.01104e-17
-8.70944e-18
5.26788e-18
-2.98625e-18
8.87719e-19
-1.5749e-20
-2.20423e-18
2.48771e-17
-1.58763e-17
5.16851e-16
-3.51152e-16
4.90299e-15
-5.80073e-15
1.78074e-14
-3.43723e-14
2.17768e-14
-8.94211e-14
1.49698e-14
-1.00162e-13
1.24311e-14
-6.46945e-14
1.22417e-14
-5.84974e-14
1.22015e-14
-5.31828e-14
-6.68741e-14
1.39969e-14
-2.97657e-24
1.31308e-23
-9.74541e-23
2.8616e-22
-1.72803e-21
3.37609e-21
-1.60774e-20
2.27712e-20
-9.21876e-20
1.00154e-19
-3.52504e-19
3.04114e-19
-9.32649e-19
6.54741e-19
-1.73411e-18
1.00822e-18
-2.26519e-18
1.10464e-18
-2.0383e-18
8.36844e-19
-1.17043e-18
3.57477e-19
-2.1508e-19
-2.74036e-19
1.15199e-18
-1.59677e-18
5.05634e-18
-3.65393e-18
1.53667e-16
-3.21269e-17
3.3855e-15
-1.39178e-15
2.25868e-14
-2.18809e-14
3.32741e-14
-9.24033e-14
3.73825e-14
-9.96921e-14
2.43771e-14
-1.02619e-13
1.88057e-14
-9.31579e-14
2.20996e-14
-8.86451e-14
-9.40246e-14
2.89038e-14
-3.93073e-25
3.27975e-27
-1.1696e-23
4.12157e-26
-1.97156e-22
2.49484e-25
-1.7426e-21
8.02827e-25
-9.48818e-21
1.34e-24
-3.43898e-20
3.8029e-25
-8.61462e-20
-8.94086e-24
-1.51485e-19
-6.61679e-23
-1.86935e-19
-1.56223e-22
-1.57836e-19
-4.19685e-22
-7.4433e-20
-1.2314e-20
1.45736e-19
-1.62193e-19
4.17436e-19
-6.49856e-19
1.01441e-18
-1.78748e-18
1.12194e-17
-2.55851e-18
6.66994e-16
-1.00932e-16
9.95798e-15
-2.95396e-15
3.01089e-14
-2.4459e-14
3.50226e-14
-7.52465e-14
3.7297e-14
-7.50956e-14
3.39053e-14
-8.7009e-14
3.41837e-14
-7.45589e-14
-6.68207e-14
3.66062e-14
-8.65077e-29
1.11961e-27
-1.54291e-27
1.35731e-26
-1.34746e-26
8.60466e-26
-5.70477e-26
3.03306e-25
-1.18173e-25
6.12483e-25
-4.00958e-26
4.24388e-25
1.68245e-24
-6.88946e-24
1.34005e-23
-3.68413e-23
3.42885e-23
-6.01355e-23
1.18814e-22
-7.03477e-23
4.40501e-21
-7.11813e-22
3.6686e-20
-2.0751e-20
1.53948e-19
-2.03783e-19
4.19143e-19
-8.78206e-19
7.22145e-19
-1.8616e-18
3.13082e-17
-2.26288e-18
9.32121e-16
-5.25627e-17
7.34603e-15
-4.08784e-16
2.42432e-14
-1.11531e-14
2.48255e-14
-2.52249e-14
1.82936e-14
-1.61768e-14
1.78157e-14
-1.03527e-14
-1.62646e-14
2.42941e-14
-2.67636e-29
2.50292e-28
-4.7234e-28
2.95093e-27
-4.34023e-27
1.9675e-26
-2.01526e-26
7.63239e-26
-5.05212e-26
1.88131e-25
-4.18404e-26
2.91129e-25
1.15546e-24
2.35214e-25
3.82079e-24
1.65841e-26
5.31505e-24
7.3411e-28
6.48829e-24
-3.24781e-27
1.25429e-22
-4.04331e-23
4.31514e-21
-2.89403e-21
4.62438e-20
-3.79369e-20
2.05306e-19
-2.18662e-19
4.11344e-19
-7.55787e-19
5.14952e-19
-1.61433e-18
9.53259e-18
-8.88205e-19
3.67518e-17
-7.78138e-19
2.11409e-15
-1.94544e-18
3.47602e-15
-2.55777e-16
1.68209e-15
-6.96297e-18
1.43337e-15
-5.51542e-19
-3.13906e-19
2.4744e-15
-5.52381e-30
2.67024e-29
-9.61656e-29
3.02035e-28
-9.30191e-28
2.03895e-27
-4.75027e-27
8.04982e-27
-1.45211e-26
2.02536e-26
-2.68224e-26
3.21259e-26
-2.51849e-26
2.6838e-26
-2.02328e-27
1.71119e-27
-1.00518e-28
6.8522e-29
6.05764e-28
-9.77397e-30
6.89678e-24
-3.70854e-26
5.50369e-22
-1.3966e-22
7.53162e-21
-3.70606e-21
4.4645e-20
-3.39046e-20
1.61606e-19
-1.65767e-19
3.05721e-19
-5.56487e-19
1.81092e-19
-8.82777e-19
1.60098e-19
-8.62336e-19
1.62425e-19
-6.42682e-19
6.27975e-18
-4.32851e-19
2.38366e-19
-3.4326e-19
7.45248e-20
-3.39823e-19
-2.91976e-19
6.96415e-20
-5.48284e-31
1.45305e-36
-9.2178e-30
2.10661e-36
-9.01658e-29
4.01791e-38
-4.67854e-28
5.98749e-40
-1.45739e-27
-2.3124e-32
-2.75443e-27
-8.98973e-31
-2.6693e-27
-2.49642e-30
-1.93565e-28
-1.49489e-31
-8.68272e-30
-9.08346e-33
1.09878e-29
-2.56503e-31
5.70693e-27
-1.77479e-29
2.3508e-23
-3.89662e-25
6.66659e-22
-1.51266e-22
6.34179e-21
-2.68645e-21
3.19515e-20
-2.06909e-20
9.31991e-20
-9.15611e-20
2.02137e-19
-4.39164e-19
2.04144e-19
-5.42406e-19
1.30326e-19
-5.08314e-19
8.99643e-20
-3.86082e-19
9.39122e-20
-3.67873e-19
9.68666e-20
-3.43259e-19
-2.94466e-19
8.08473e-20
-2.77122e-38
1.42399e-45
-5.98603e-38
1.11713e-45
-1.65093e-39
1.93082e-47
-3.22746e-41
2.60602e-49
3.0325e-33
-8.5258e-43
7.12246e-32
-6.8282e-38
2.29051e-31
-8.66906e-36
1.71058e-33
-8.32008e-37
9.86057e-34
-4.6132e-35
3.22822e-32
-2.24956e-33
2.49171e-30
-1.33695e-31
5.96365e-26
-4.85628e-29
2.48166e-23
-8.91503e-25
4.58317e-22
-7.68537e-23
3.60082e-21
-1.11789e-21
1.71333e-20
-7.24052e-21
7.24281e-20
-2.19482e-20
7.69032e-20
-6.852e-20
8.15642e-20
-3.47061e-20
9.35199e-20
-2.39826e-20
8.98533e-20
-3.74654e-20
8.3219e-20
-4.6382e-20
-5.87717e-20
7.13944e-20
-2.50505e-47
1.24936e-45
-2.92975e-47
1.15295e-45
-7.30573e-49
1.74785e-47
-1.29128e-50
2.07075e-49
5.21429e-44
-2.89241e-48
4.94744e-39
-4.41549e-44
7.2767e-37
-3.5507e-42
3.95833e-38
-7.35947e-41
4.81505e-36
-1.14798e-38
2.59967e-34
-9.40999e-37
1.70215e-32
-8.23561e-35
6.73433e-30
-1.34034e-32
1.33007e-25
-4.05385e-28
1.20859e-23
-1.12835e-24
1.77342e-22
-1.89161e-23
1.08703e-21
-1.04081e-22
3.22491e-21
-3.4173e-22
7.23302e-21
-8.46219e-22
3.78604e-21
-1.47744e-21
5.24113e-21
-1.52915e-21
4.44148e-21
-1.08083e-21
6.42956e-21
-1.09343e-21
-1.237e-21
7.73621e-21
-2.00961e-47
6.53364e-46
-2.76316e-47
7.46926e-46
-6.02902e-49
9.77658e-48
-9.33885e-51
1.00205e-49
1.72518e-49
-1.01216e-50
2.89363e-45
-5.96269e-47
2.62341e-43
-5.73197e-45
6.17424e-42
-1.48308e-43
1.09348e-39
-2.1044e-41
9.85027e-38
-1.66171e-39
9.4343e-36
-1.45678e-37
1.67061e-33
-1.70406e-35
5.44685e-29
-4.75131e-32
1.58462e-25
-6.31456e-28
2.59339e-24
-2.84461e-26
1.35897e-23
-2.4878e-25
4.31313e-23
-1.05273e-24
1.01214e-22
-2.8672e-24
1.43861e-22
-5.62921e-24
1.51312e-22
-8.42098e-24
1.1153e-22
-1.01853e-23
1.17481e-22
-1.0597e-23
-9.94065e-24
1.37418e-22
-9.49975e-48
1.33955e-46
-1.61549e-47
2.31868e-46
-3.03823e-49
2.57454e-48
-4.06712e-51
2.24516e-50
5.49208e-51
1.85612e-52
3.51374e-48
9.98665e-55
3.82276e-46
-9.42004e-52
1.12046e-44
-2.8164e-50
1.79357e-42
-3.79557e-48
1.55475e-40
-4.03565e-46
1.48787e-38
-5.17159e-44
1.89048e-36
-6.75948e-42
5.68041e-33
-2.94694e-35
7.97633e-29
-9.71443e-31
3.60955e-27
-8.30909e-29
3.02758e-26
-7.55109e-28
1.21365e-25
-2.77863e-27
3.11919e-25
-6.22264e-27
5.75391e-25
-1.0659e-26
8.11815e-25
-1.56069e-26
9.3491e-25
-2.0313e-26
9.82521e-25
-2.38387e-26
-2.56682e-26
9.02e-25
-1.73402e-48
1.85941e-53
-4.45341e-48
1.19337e-55
-7.10145e-50
6.24942e-58
-8.08756e-52
3.41101e-60
-8.23037e-54
-4.68483e-58
-5.24499e-56
-4.10714e-55
5.71866e-53
-3.48913e-53
1.92367e-51
-1.05558e-51
2.93316e-49
-1.78358e-49
3.38944e-47
-1.03003e-47
4.69458e-45
-5.50097e-46
6.62923e-43
-3.77409e-44
3.10078e-36
-3.0799e-42
1.08303e-31
-1.4154e-38
9.29452e-30
-5.62402e-35
7.9013e-29
-1.08389e-33
2.66528e-28
-1.23284e-31
5.59382e-28
-2.7159e-30
9.2542e-28
-1.89186e-29
1.3314e-27
-6.33335e-29
1.71138e-27
-1.35195e-28
1.98775e-27
-2.2002e-28
-3.06248e-28
2.13514e-27
-2.08868e-55
1.44851e-72
-1.98836e-57
-4.31227e-69
-1.50066e-59
-3.06803e-71
-1.07184e-61
-1.00082e-72
3.63283e-59
-4.84662e-61
3.71582e-56
-2.28007e-58
1.82932e-54
-1.77663e-56
6.30588e-53
-1.07538e-54
1.19944e-50
-9.54169e-53
7.476e-49
-7.16093e-51
4.31364e-47
-6.75143e-49
3.19205e-45
-7.78235e-47
2.80041e-43
-1.10813e-44
1.39903e-39
-5.08568e-40
5.65013e-36
-4.9476e-37
1.14024e-34
-6.21363e-36
1.35943e-32
-1.20527e-34
2.9207e-31
-8.24654e-33
1.88222e-30
-1.15161e-31
5.73432e-30
-5.67346e-31
1.1347e-29
-1.49274e-30
1.76386e-29
-2.71659e-30
-3.81718e-30
2.4493e-29
-1.36515e-74
4.56308e-72
6.07949e-71
1.30172e-74
2.40797e-74
3.09367e-77
2.61884e-74
2.38368e-75
1.61096e-62
-3.86871e-66
8.93082e-60
-8.86544e-63
7.96849e-58
-8.68724e-61
5.45231e-56
-7.44521e-59
5.38279e-54
-7.80766e-57
4.43302e-52
-8.07586e-55
4.54779e-50
-8.564e-53
5.65163e-48
-1.45326e-50
8.63511e-46
-2.1985e-48
4.28572e-41
-1.68987e-43
4.17133e-38
-1.38553e-39
5.37487e-37
-3.22007e-38
1.11864e-35
-2.28067e-37
7.86301e-34
-4.74373e-36
1.03516e-32
-1.96482e-34
4.58847e-32
-1.91232e-33
1.08807e-31
-7.2673e-33
1.81053e-31
-1.51089e-32
-1.763e-32
2.3714e-31
-3.52264e-74
5.34446e-72
-1.53915e-76
1.52347e-74
-5.36976e-79
4.06504e-77
-5.45925e-77
3.08479e-75
1.09518e-67
-1.4223e-75
2.961e-64
-6.41576e-72
3.32429e-62
-3.9337e-68
3.21418e-60
-5.7052e-66
3.74306e-58
-6.06242e-64
4.23911e-56
-1.01358e-61
4.87767e-54
-1.74503e-59
8.89536e-52
-3.25399e-57
1.43705e-49
-4.24433e-55
1.17202e-44
-1.32318e-48
9.89797e-41
-1.73652e-43
2.24922e-39
-3.55113e-41
1.65151e-38
-3.52853e-40
3.75347e-37
-1.75926e-39
1.54977e-35
-5.3132e-38
1.37145e-34
-1.46087e-36
4.51109e-34
-9.60936e-36
7.38707e-34
-2.26039e-35
-2.73983e-35
8.55083e-34
-3.46209e-74
3.00079e-72
-1.57298e-76
7.36156e-75
-6.13545e-79
1.75839e-77
-6.1083e-77
4.45626e-80
1.44314e-76
-1.49855e-75
2.1726e-73
-1.9538e-72
1.29696e-69
-3.33625e-70
2.10305e-67
-5.27341e-68
2.47209e-65
-6.94544e-66
4.50401e-63
-7.48344e-64
8.34905e-61
-7.01295e-62
1.65993e-58
-6.7998e-60
2.29988e-56
-7.18618e-58
7.56575e-50
-8.18193e-56
1.03546e-44
-9.86773e-52
2.09162e-42
-1.91623e-47
1.96472e-41
-6.56193e-46
1.03054e-40
-1.04239e-45
3.43983e-39
-2.80163e-45
8.961e-38
-2.78981e-43
4.90103e-37
-4.57392e-41
8.75241e-37
-1.14776e-38
-1.02262e-36
1.08606e-36
-1.7982e-74
2.52228e-98
-7.39645e-77
1.76058e-95
-2.48532e-79
7.04436e-96
-8.0357e-82
6.07935e-89
6.51996e-77
-1.71655e-77
5.81565e-74
-9.23299e-75
9.59253e-72
-2.72069e-72
1.68779e-69
-5.75629e-70
2.43617e-67
-9.86934e-68
2.83144e-65
-1.29885e-65
2.83652e-63
-1.47186e-63
2.91894e-61
-1.70643e-61
3.24333e-59
-1.81155e-59
3.86021e-57
-1.83535e-57
4.78759e-53
-2.02265e-55
9.42269e-49
-2.82105e-53
2.28353e-47
-4.0915e-51
3.51857e-47
-5.89514e-49
1.21559e-46
-1.27591e-46
1.50396e-44
-2.90612e-44
2.45143e-42
-6.02933e-42
5.90208e-40
-1.44219e-39
-2.17325e-37
5.32275e-38
-1.59072e-100
6.6544e-98
-1.95077e-97
4.14022e-95
-1.02344e-97
2.08131e-95
-1.07077e-90
1.43918e-88
3.54956e-79
-1.20784e-79
2.1623e-76
-6.17135e-77
7.09408e-74
-1.89681e-74
1.64318e-71
-4.11143e-72
3.04294e-69
-7.15557e-70
4.27762e-67
-1.09105e-67
5.1337e-65
-1.50704e-65
6.24672e-63
-1.95637e-63
6.88871e-61
-2.51732e-61
7.19275e-59
-3.37053e-59
8.04122e-57
-4.82915e-57
1.1416e-54
-8.82262e-55
1.6722e-52
-1.68045e-52
2.41632e-50
-3.06414e-50
5.28118e-48
-7.64564e-48
1.19458e-45
-1.69638e-45
2.39968e-43
-4.93384e-43
5.34344e-41
-1.58456e-40
-1.34087e-38
7.40244e-39
-4.83758e-100
1.25077e-97
-5.3634e-97
6.4391e-95
-3.27794e-97
4.69484e-95
-2.59491e-90
1.85917e-88
2.44991e-81
-7.07757e-83
1.37868e-78
-5.17115e-80
4.60412e-76
-1.8338e-77
1.07136e-73
-5.1045e-75
1.98079e-71
-1.19238e-72
3.1798e-69
-2.60763e-70
4.58467e-67
-5.12949e-68
6.15837e-65
-9.51782e-66
8.13691e-63
-1.75268e-63
1.11023e-60
-3.25837e-61
1.60856e-58
-6.77735e-59
2.94377e-56
-1.67767e-56
5.55139e-54
-3.80898e-54
9.93452e-52
-9.90326e-52
2.38356e-49
-2.89222e-49
4.93495e-47
-6.77273e-47
1.32048e-44
-2.96447e-44
3.66896e-42
-8.5388e-42
-1.15386e-41
2.40334e-40
-1.1313e-99
1.48887e-97
-9.63468e-97
5.12702e-95
-7.97336e-97
7.1469e-95
-3.43822e-90
4.74224e-90
1.41102e-84
-4.4977e-87
1.10306e-81
-8.22228e-84
4.15265e-79
-4.22454e-81
1.21843e-76
-1.64693e-78
2.97814e-74
-5.22234e-76
6.76399e-72
-1.46898e-73
1.37124e-69
-4.6505e-71
2.60165e-67
-1.44722e-68
4.85739e-65
-4.20384e-66
9.07389e-63
-1.38209e-63
1.87797e-60
-4.60482e-61
4.56181e-58
-1.32677e-58
1.00192e-55
-4.80975e-56
2.48061e-53
-1.60119e-53
6.70604e-51
-4.51135e-51
1.41671e-48
-2.32696e-48
5.26645e-46
-7.29386e-46
9.04297e-44
-2.97428e-43
-7.56691e-41
1.63208e-43
-1.83328e-99
8.33915e-98
-8.55333e-97
1.23089e-96
-1.26287e-96
5.50731e-95
-8.72843e-92
4.25465e-90
8.60295e-89
-4.12416e-92
1.63156e-85
-4.16219e-88
8.687e-83
-2.8094e-85
3.50062e-80
-1.48814e-82
1.14276e-77
-6.54984e-80
3.29386e-75
-2.64096e-77
1.06216e-72
-1.41436e-74
3.34139e-70
-6.75083e-72
9.72979e-68
-3.32483e-69
3.17577e-65
-1.95213e-66
1.03726e-62
-8.57785e-64
2.88657e-60
-5.1069e-61
9.92772e-58
-2.18018e-58
3.05602e-55
-9.71788e-56
7.70474e-53
-5.31023e-53