/*--------------------------------*- C++ -*----------------------------------*\
| =========                 |                                                 |
| \\      /  F ield         | OpenFOAM: The Open Source CFD Toolbox           |
|  \\    /   O peration     | Version:  2206                                  |
|   \\  /    A nd           | Website:  www.openfoam.com                      |
|    \\/     M anipulation  |                                                 |
\*---------------------------------------------------------------------------*/
FoamFile
{
    version     2.0;
    format      ascii;
    arch        "LSB;label=32;scalar=64";
    class       volScalarField;
    location    "0.475";
    object      p;
}
// * * * * * * * * * * * * * * * * * * * * * * * * * * * * * * * * * * * * * //

dimensions      [1 -1 -2 0 0 0 0];

internalField   nonuniform List<scalar> 
2268
(
940.046
940.47
941.359
942.132
942.727
943.166
943.607
944.193
945.01
946.103
947.489
949.176
951.162
953.43
955.927
958.587
961.294
963.867
966.078
967.731
968.845
969.819
970.823
880.774
881.177
882.103
882.89
883.507
883.968
884.423
885.021
885.85
886.953
888.344
890.012
891.937
894.123
896.552
899.184
901.934
904.645
907.065
908.911
910.132
911.141
912.555
821.058
821.438
822.428
823.235
823.9
824.405
824.894
825.519
826.376
827.51
828.931
830.638
832.617
834.83
837.25
839.823
842.475
845.11
847.628
849.936
852.005
853.912
855.4
760.882
761.307
762.198
763.116
763.867
764.443
764.991
765.669
766.577
767.763
769.239
770.998
773.019
775.272
777.726
780.326
783.007
785.685
788.301
790.858
793.401
795.844
797.777
700.151
700.582
701.48
702.492
703.348
704.028
704.667
705.431
706.425
707.696
709.253
711.088
713.181
715.501
718.018
720.683
723.439
726.217
728.953
731.611
734.223
736.738
738.849
638.788
639.244
640.171
641.306
642.295
643.116
643.888
644.777
645.894
647.285
648.954
650.892
653.08
655.49
658.086
660.827
663.652
666.497
669.289
671.952
674.422
676.618
678.227
576.685
577.205
578.214
579.558
580.722
581.711
582.652
583.71
584.992
586.535
588.342
590.401
592.696
595.201
597.876
600.687
603.551
606.388
609.087
611.489
613.33
614.196
613.52
513.662
514.207
515.291
516.887
518.449
519.755
520.932
522.217
523.722
525.466
527.444
529.647
532.062
534.666
537.422
540.258
543.1
545.828
548.261
550.185
551.019
550.633
541.578
381.145
302.891
242.567
232.666
257.175
290.925
368.857
572.65
781.967
733.6
637.298
656.82
776.86
879.099
924.655
888.446
771.043
797.257
1122.89
373.715
264.266
215.213
218.524
244.675
280.286
347.813
500.599
688.108
640.204
550.092
570.706
697.475
822.394
888.863
858.854
709.106
692.788
1052.89
356.965
238.893
206.806
214.741
242.108
276.609
321.141
426.485
551.555
508.51
435.418
453.855
570.103
714.201
818.578
816.74
663.051
587.375
965.626
327.205
234.324
205.904
212.998
239.63
264.521
280.574
340.467
411.467
373.939
320.858
333.868
430.138
571.261
696.91
746.247
620.909
488.464
871.378
309.081
238.629
208.5
213.133
233.045
236.904
229.046
251.36
272.772
228.289
192.386
207.85
290.892
422.962
555.22
639.832
576.91
446.463
803.174
306.125
247.353
213.463
210.116
211.212
192.444
171.666
160.585
132.501
75.5996
44.6831
61.2454
134.315
268.129
411.549
520.992
531.156
473.427
791.893
308.079
252.409
209.502
188.324
172.187
143.641
113.565
73.4369
28.379
7.89093
2.7192
4.34673
18.6921
107.947
264.373
405.563
489.168
524.104
846.433
296.394
236.553
182.916
153.016
132.213
96.9026
59.7632
16.1193
2.85862
0.540013
0.132293
0.320434
1.69892
16.533
122.279
292.156
446.678
592.086
937.876
413.538
413.567
414.241
416.522
419.547
421.936
423.729
425.448
427.342
429.432
431.702
434.148
436.76
439.512
442.352
445.191
447.875
450.14
451.439
450.91
445.712
432.5
392.929
275.938
271.009
271.201
275.947
282.766
287.399
290.196
292.545
294.935
297.433
300.042
302.764
305.588
308.478
311.366
314.132
316.589
318.465
319.325
318.566
315.487
309.639
301.466
147.619
141.99
136.997
139.314
147.035
151.695
154.03
156.714
159.691
162.67
165.69
168.803
171.994
175.224
178.434
181.532
184.374
186.767
188.452
189.044
188.096
184.362
178.069
61.6327
48.0644
33.046
29.3439
37.0995
39.4888
39.4237
40.7787
42.6769
44.5173
46.4078
48.5048
50.8029
53.2441
55.778
58.3438
60.8501
63.1725
65.1481
66.5851
67.2966
66.7422
64.7083
5.39836
-0.152454
-0.687981
-0.0906084
0.963466
0.182724
-0.305954
-0.359447
-0.271395
-0.0739198
0.220389
0.602764
1.05898
1.57355
2.13544
2.73321
3.34787
3.95206
4.50288
4.94833
5.30431
5.32282
4.96378
-1.10491
-1.13605
-1.18427
-1.15524
-1.14407
-1.12122
-1.10325
-1.09878
-1.09869
-1.09975
-1.10125
-1.10302
-1.10472
-1.10625
-1.10777
-1.10952
-1.11168
-1.11441
-1.1177
-1.12155
-1.12584
-1.12842
-1.12521
-1.19357
-1.19235
-1.2068
-1.26205
-1.25375
-1.24694
-1.24188
-1.23984
-1.23952
-1.2399
-1.24061
-1.24155
-1.24259
-1.24361
-1.24463
-1.2458
-1.2473
-1.24931
-1.25196
-1.25521
-1.25876
-1.26182
-1.26234
-1.35625
-1.36149
-1.36673
-1.38379
-1.3864
-1.38619
-1.38614
-1.38599
-1.38596
-1.38622
-1.38667
-1.38724
-1.38789
-1.38861
-1.38947
-1.39064
-1.3924
-1.39502
-1.39863
-1.40317
-1.40831
-1.4132
-1.41722
-1.51845
-1.51915
-1.52032
-1.52436
-1.5275
-1.52906
-1.53003
-1.53079
-1.53142
-1.53203
-1.53268
-1.53337
-1.53411
-1.53496
-1.53609
-1.53781
-1.54053
-1.54459
-1.55009
-1.5571
-1.56517
-1.57324
-1.58187
-1.66693
-1.66746
-1.66894
-1.6709
-1.67281
-1.67436
-1.67565
-1.67684
-1.67796
-1.67905
-1.68014
-1.68127
-1.68247
-1.68387
-1.68573
-1.68846
-1.69253
-1.69815
-1.70543
-1.71479
-1.72567
-1.73666
-1.74767
-1.81554
-1.81599
-1.81696
-1.81816
-1.81955
-1.82099
-1.82242
-1.82386
-1.82533
-1.82685
-1.82844
-1.83012
-1.83194
-1.83406
-1.83673
-1.84035
-1.84529
-1.85158
-1.85971
-1.87043
-1.88245
-1.89466
-1.90563
-1.96262
-1.96309
-1.96398
-1.96505
-1.96631
-1.96774
-1.96931
-1.97099
-1.97281
-1.97477
-1.97689
-1.97918
-1.98169
-1.98454
-1.98792
-1.99211
-1.99733
-2.00357
-2.01155
-2.02173
-2.03273
-2.04388
-2.05389
-2.10885
-2.10939
-2.11027
-2.11133
-2.11261
-2.11412
-2.11584
-2.11777
-2.11992
-2.12229
-2.1249
-2.12777
-2.13094
-2.13448
-2.13849
-2.14313
-2.14846
-2.15455
-2.16181
-2.16995
-2.17857
-2.18728
-2.19464
-2.2543
-2.25486
-2.25572
-2.25679
-2.25813
-2.25974
-2.26161
-2.26376
-2.26618
-2.2689
-2.27192
-2.27527
-2.27898
-2.28309
-2.28764
-2.29271
-2.29833
-2.30453
-2.31131
-2.31807
-2.32484
-2.33167
-2.33818
-2.39877
-2.3993
-2.40013
-2.40122
-2.40262
-2.40432
-2.40633
-2.40865
-2.41129
-2.41426
-2.41758
-2.42127
-2.42535
-2.42984
-2.43477
-2.44017
-2.44605
-2.45241
-2.45911
-2.46582
-2.47229
-2.47881
-2.48525
-2.54205
-2.54254
-2.54335
-2.54446
-2.54591
-2.54769
-2.5498
-2.55226
-2.55507
-2.55823
-2.56175
-2.56566
-2.56995
-2.57466
-2.57979
-2.58534
-2.59132
-2.5977
-2.6044
-2.61134
-2.61825
-2.62489
-2.63174
-2.68402
-2.68449
-2.68528
-2.68642
-2.68791
-2.68976
-2.69197
-2.69453
-2.69747
-2.70077
-2.70445
-2.70851
-2.71297
-2.71782
-2.72307
-2.72872
-2.73477
-2.74118
-2.74791
-2.75492
-2.76208
-2.76932
-2.77675
-2.82471
-2.82515
-2.82595
-2.82711
-2.82864
-2.83055
-2.83283
-2.83548
-2.83852
-2.84194
-2.84575
-2.84995
-2.85454
-2.85953
-2.86492
-2.8707
-2.87687
-2.88342
-2.89031
-2.89754
-2.90504
-2.9128
-2.9208
-2.96411
-2.96454
-2.96534
-2.96652
-2.9681
-2.97005
-2.9724
-2.97513
-2.97826
-2.98178
-2.98571
-2.99003
-2.99476
-2.9999
-3.00544
-3.01139
-3.01773
-3.02447
-3.0316
-3.03911
-3.04696
-3.05517
-3.06371
-3.1022
-3.10262
-3.10343
-3.10463
-3.10624
-3.10824
-3.11064
-3.11344
-3.11665
-3.12027
-3.12429
-3.12874
-3.1336
-3.13888
-3.14459
-3.15071
-3.15726
-3.16423
-3.17162
-3.17943
-3.18764
-3.19627
-3.20531
-3.2389
-3.23932
-3.24015
-3.24137
-3.243
-3.24504
-3.24749
-3.25035
-3.25363
-3.25733
-3.26145
-3.266
-3.27099
-3.2764
-3.28226
-3.28856
-3.29531
-3.30251
-3.31016
-3.31827
-3.32684
-3.33587
-3.34537
-3.37414
-3.37456
-3.3754
-3.37664
-3.37829
-3.38037
-3.38286
-3.38577
-3.38911
-3.39288
-3.39709
-3.40173
-3.40682
-3.41236
-3.41836
-3.42482
-3.43175
-3.43915
-3.44705
-3.45543
-3.46431
-3.47371
-3.48363
-3.50785
-3.50827
-3.50912
-3.51037
-3.51205
-3.51415
-3.51667
-3.51962
-3.52301
-3.52683
-3.5311
-3.53582
-3.54099
-3.54663
-3.55274
-3.55933
-3.56641
-3.57399
-3.58209
-3.5907
-3.59985
-3.60956
-3.61983
-3.63996
-3.6404
-3.64124
-3.64251
-3.6442
-3.64631
-3.64886
-3.65183
-3.65525
-3.65911
-3.66342
-3.66819
-3.67342
-3.67912
-3.68531
-3.69199
-3.69918
-3.70689
-3.71513
-3.72392
-3.73328
-3.74322
-3.75378
-3.77046
-3.77089
-3.77174
-3.77301
-3.7747
-3.77682
-3.77937
-3.78235
-3.78578
-3.78965
-3.79397
-3.79876
-3.80402
-3.80975
-3.81598
-3.82271
-3.82995
-3.83773
-3.84606
-3.85495
-3.86443
-3.87453
-3.88526
-3.89931
-3.89975
-3.90059
-3.90185
-3.90354
-3.90565
-3.90818
-3.91115
-3.91456
-3.91842
-3.92273
-3.9275
-3.93274
-3.93846
-3.94468
-3.9514
-3.95864
-3.96642
-3.97476
-3.98368
-3.99319
-4.00334
-4.01415
-4.02652
-4.02696
-4.0278
-4.02904
-4.0307
-4.03279
-4.03529
-4.03823
-4.04159
-4.0454
-4.04966
-4.05438
-4.05956
-4.06522
-4.07137
-4.07802
-4.0852
-4.09291
-4.10118
-4.11003
-4.11948
-4.12957
-4.14032
-4.15211
-4.15254
-4.15336
-4.15458
-4.15621
-4.15825
-4.1607
-4.16357
-4.16687
-4.1706
-4.17478
-4.1794
-4.18447
-4.19002
-4.19605
-4.20258
-4.20961
-4.21718
-4.22529
-4.23397
-4.24326
-4.25317
-4.26374
-4.27609
-4.27652
-4.27731
-4.2785
-4.28008
-4.28206
-4.28444
-4.28723
-4.29043
-4.29405
-4.2981
-4.30258
-4.30751
-4.31289
-4.31874
-4.32507
-4.3319
-4.33924
-4.34711
-4.35553
-4.36454
-4.37416
-4.38442
-4.39852
-4.39893
-4.39969
-4.40083
-4.40235
-4.40425
-4.40654
-4.40922
-4.4123
-4.41578
-4.41967
-4.42397
-4.4287
-4.43387
-4.43949
-4.44557
-4.45211
-4.45915
-4.4667
-4.47477
-4.4834
-4.49261
-4.50243
-4.51946
-4.51984
-4.52057
-4.52165
-4.52309
-4.5249
-4.52708
-4.52963
-4.53255
-4.53586
-4.53955
-4.54364
-4.54814
-4.55304
-4.55837
-4.56413
-4.57034
-4.577
-4.58414
-4.59178
-4.59993
-4.60864
-4.61791
-4.63897
-4.63931
-4.64
-4.64101
-4.64237
-4.64407
-4.64611
-4.64851
-4.65126
-4.65436
-4.65783
-4.66167
-4.66589
-4.67049
-4.67548
-4.68088
-4.68668
-4.69291
-4.69958
-4.7067
-4.7143
-4.7224
-4.73102
-4.75712
-4.75742
-4.75805
-4.75899
-4.76025
-4.76183
-4.76373
-4.76595
-4.7685
-4.77138
-4.7746
-4.77816
-4.78206
-4.78632
-4.79094
-4.79592
-4.80128
-4.80702
-4.81315
-4.8197
-4.82667
-4.83408
-4.84197
-4.874
-4.87425
-4.87483
-4.87569
-4.87684
-4.87829
-4.88003
-4.88206
-4.8844
-4.88704
-4.88998
-4.89323
-4.8968
-4.90068
-4.90489
-4.90942
-4.91429
-4.91949
-4.92505
-4.93097
-4.93725
-4.94393
-4.95102
-4.98976
-4.98995
-4.99048
-4.99125
-4.99229
-4.9936
-4.99516
-4.997
-4.99911
-5.00149
-5.00414
-5.00706
-5.01027
-5.01375
-5.01752
-5.02157
-5.02592
-5.03056
-5.0355
-5.04076
-5.04633
-5.05223
-5.05847
-5.10446
-5.10457
-5.10506
-5.10574
-5.10666
-5.10782
-5.10921
-5.11085
-5.11271
-5.11482
-5.11717
-5.11975
-5.12258
-5.12565
-5.12896
-5.13252
-5.13632
-5.14038
-5.14469
-5.14925
-5.15408
-5.15918
-5.16457
-5.21808
-5.21813
-5.21853
-5.21915
-5.21994
-5.22096
-5.22217
-5.2236
-5.22522
-5.22705
-5.22908
-5.23131
-5.23375
-5.23639
-5.23924
-5.24229
-5.24554
-5.249
-5.25266
-5.25653
-5.26061
-5.26491
-5.26942
-5.33068
-5.33075
-5.33106
-5.33162
-5.3323
-5.33318
-5.33422
-5.33543
-5.3368
-5.33835
-5.34006
-5.34193
-5.34398
-5.34618
-5.34855
-5.35109
-5.35378
-5.35664
-5.35965
-5.36282
-5.36616
-5.36965
-5.3733
-5.44269
-5.44291
-5.44316
-5.44367
-5.44425
-5.44499
-5.44586
-5.44686
-5.44799
-5.44926
-5.45065
-5.45217
-5.45382
-5.45559
-5.45749
-5.45952
-5.46166
-5.46392
-5.46629
-5.46878
-5.47138
-5.47409
-5.47691
-5.55453
-5.55497
-5.55514
-5.55561
-5.55611
-5.55673
-5.55744
-5.55825
-5.55916
-5.56015
-5.56124
-5.56242
-5.56369
-5.56504
-5.56649
-5.56802
-5.56963
-5.57132
-5.57308
-5.57492
-5.57682
-5.5788
-5.58083
-5.6657
-5.66622
-5.66641
-5.66687
-5.66734
-5.66787
-5.66844
-5.66907
-5.66974
-5.67047
-5.67125
-5.67208
-5.67297
-5.67391
-5.6749
-5.67594
-5.67703
-5.67816
-5.67933
-5.68053
-5.68177
-5.68302
-5.68431
-5.77401
-5.77545
-5.77583
-5.77632
-5.77674
-5.77714
-5.77754
-5.77793
-5.77834
-5.77875
-5.77918
-5.77963
-5.78009
-5.78057
-5.78106
-5.78156
-5.78208
-5.7826
-5.78312
-5.78365
-5.78416
-5.78466
-5.78514
254.736
384.851
386.875
322.298
267.367
261.749
253.782
210.02
151.001
129.704
116.529
90.2483
55.3119
37.3037
23.6866
12.5407
1.79687
-0.79695
-0.796049
-0.830448
-1.10813
-1.01679
-0.952912
-1.01864
-1.26282
-1.17746
-1.1572
-1.28919
-1.42287
-1.39587
-1.41976
-1.56505
-1.58905
-1.60216
-1.64393
-1.74937
-1.75388
-1.75584
-1.81114
-1.87976
-1.91202
-1.91349
-1.95829
-2.00938
-2.06104
-2.07228
-2.10857
-2.1473
-2.20619
-2.22557
-2.25713
-2.28987
-2.35204
-2.37586
-2.40599
-2.43587
-2.49982
-2.52562
-2.5556
-2.5849
-2.64737
-2.67498
-2.70589
-2.73641
-2.79383
-2.82366
-2.85653
-2.88978
-2.93927
-2.9715
-3.00714
-3.04431
-3.08351
-3.11831
-3.15728
-3.19925
-3.22635
-3.2638
-3.30642
-3.35377
-3.36756
-3.40764
-3.45403
-3.50699
-3.50687
-3.54942
-3.59948
-3.65799
-3.64399
-3.68875
-3.74219
-3.80587
-3.77865
-3.82524
-3.88154
-3.94972
-3.91063
-3.95854
-4.01701
-4.08875
-4.03972
-4.08836
-4.14817
-4.22224
-4.1658
-4.21449
-4.27471
-4.34972
-4.28881
-4.33686
-4.39647
-4.47093
-4.40876
-4.45548
-4.51342
-4.58586
-4.52573
-4.57044
-4.62576
-4.69473
-4.63988
-4.68197
-4.73381
-4.79803
-4.75142
-4.79037
-4.838
-4.89639
-4.86061
-4.896
-4.93884
-4.99074
-4.96774
-4.99927
-5.03698
-5.08194
-5.07317
-5.10068
-5.13306
-5.17093
-5.1772
-5.2006
-5.22767
-5.25854
-5.27999
-5.29929
-5.32117
-5.34536
-5.38181
-5.39711
-5.414
-5.43193
-5.48344
-5.4949
-5.50708
-5.51925
-5.5855
-5.59339
-5.60124
-5.60824
-5.68719
-5.6917
-5.69556
-5.69794
-5.78613
-5.78715
-5.78704
-5.78505
242.986
184.354
137.016
102.97
73.8778
41.7765
18.7256
0.68192
0.0309819
-0.12022
-0.0844513
0.036557
0.250038
1.29575
17.5641
128.425
357.311
664.501
1056.04
154.564
109.209
70.2472
40.155
19.9158
-0.172628
-0.684483
-0.298739
-0.338518
-0.285874
-0.206128
-0.123229
-0.0051293
0.204548
1.46608
19.1138
176.932
565.247
1013.12
57.8209
38.2645
17.3388
-0.881117
-1.03779
-0.621321
-0.684582
-0.609435
-0.554025
-0.504913
-0.437107
-0.32706
-0.189887
-0.0531529
0.252341
1.87237
36.3053
334.04
803.407
1.39284
-1.02523
-1.24693
-1.02417
-0.969709
-0.858385
-0.81059
-0.781397
-0.752034
-0.717561
-0.635787
-0.504178
-0.354854
-0.209184
-0.00984338
0.321316
3.84749
105.885
547.501
-0.932273
-1.14277
-1.2717
-1.20087
-1.08889
-0.995166
-0.936528
-0.916283
-0.907221
-0.884815
-0.808261
-0.671301
-0.515778
-0.373805
-0.239011
-0.158189
-1.52675
3.10626
349.98
-1.17818
-1.35016
-1.42736
-1.35578
-1.22585
-1.12976
-1.07226
-1.0401
-1.02052
-0.996778
-0.930944
-0.809228
-0.663848
-0.532501
-0.428855
-0.101097
-0.388661
7.71943
228.742
-1.47476
-1.60607
-1.60925
-1.49979
-1.37702
-1.28512
-1.21823
-1.16577
-1.122
-1.07777
-1.01089
-0.910394
-0.781735
-0.666242
-0.561295
-0.110464
-0.407552
20.1156
150.841
-1.69455
-1.75464
-1.73016
-1.62693
-1.52343
-1.4364
-1.3635
-1.29642
-1.23027
-1.1608
-1.08017
-0.984384
-0.86653
-0.762688
-0.679954
-0.179978
1.15488
19.2121
95.3346
-1.82704
-1.84275
-1.81166
-1.7378
-1.65821
-1.58168
-1.50723
-1.43086
-1.34915
-1.25988
-1.1623
-1.05621
-0.937646
-0.838264
-0.789714
-0.386146
1.04575
14.1898
56.5443
-1.92482
-1.9332
-1.90964
-1.85802
-1.79506
-1.72659
-1.65272
-1.57133
-1.48002
-1.37747
-1.26538
-1.1464
-1.02521
-0.95385
-1.01466
-1.01705
-1.66152
14.1382
37.469
-2.04087
-2.04646
-2.02855
-1.98937
-1.93717
-1.87524
-1.80333
-1.72002
-1.62341
-1.51352
-1.39241
-1.26335
-1.14267
-1.0871
-1.23136
-1.67015
-0.769689
10.5187
27.7521
-2.17057
-2.17469
-2.16117
-2.13051
-2.08647
-2.03056
-1.96179
-1.87874
-1.78016
-1.6661
-1.53884
-1.40841
-1.28342
-1.22168
-1.27274
-1.73974
2.76765
8.01644
20.5322
-2.30884
-2.31374
-2.30452
-2.28097
-2.24426
-2.19463
-2.13043
-2.04976
-1.95207
-1.83644
-1.70571
-1.57163
-1.43415
-1.34257
-1.31508
-1.6212
-1.7844
-4.23195
17.4048
-2.45406
-2.46124
-2.45685
-2.44031
-2.4113
-2.36906
-2.31136
-2.23576
-2.14137
-2.02618
-1.89302
-1.75523
-1.59924
-1.46195
-1.35322
-1.52606
-1.41889
-2.11648
20.9078
-2.60467
-2.61552
-2.617
-2.60823
-2.58807
-2.55503
-2.50631
-2.43872
-2.35068
-2.23798
-2.10282
-1.96231
-1.78451
-1.5761
-1.36044
-1.26293
-1.07749
-1.14281
24.6696
-2.75953
-2.77538
-2.78401
-2.7843
-2.77473
-2.75337
-2.71683
-2.66107
-2.58392
-2.47697
-2.3413
-2.20275
-2.00309
-1.70203
-1.3763
-1.08813
-0.834949
-0.571627
29.4236
-2.91766
-2.93978
-2.95692
-2.96791
-2.97116
-2.96456
-2.94423
-2.9056
-2.84569
-2.7513
-2.61987
-2.49488
-2.27126
-1.85639
-1.42044
-1.00364
-0.697551
-0.240179
32.4849
-3.07807
-3.10764
-3.13467
-3.15819
-3.17684
-3.18864
-3.18959
-3.17513
-3.14069
-3.071
-2.9557
-2.86473
-2.63874
-2.07077
-1.49948
-0.981264
-0.658175
-0.112525
34.7818
-3.23977
-3.27778
-3.31602
-3.35394
-3.39076
-3.42504
-3.4534
-3.47186
-3.4741
-3.44839
-3.37543
-3.33068
-3.23828
-2.60506
-1.796
-1.09238
-0.772494
-0.101157
37.0724
-3.40167
-3.44889
-3.49945
-3.55352
-3.61129
-3.67236
-3.73503
-3.79676
-3.85182
-3.89396
-3.90329
-3.90581
-3.98336
-3.61156
-2.55838
-1.53674
-1.16181
-0.332424
39.3611
-3.5626
-3.6195
-3.68316
-3.75478
-3.83601
-3.92808
-4.03221
-4.14909
-4.27555
-4.41542
-4.55193
-4.62324
-4.72196
-4.53204
-3.61753
-2.42485
-1.90695
-1.10915
41.5982
-3.72129
-3.78794
-3.86501
-3.95505
-4.06159
-4.18833
-4.34079
-4.52497
-4.74191
-5.0198
-5.31412
-5.49423
-5.58882
-5.41691
-4.7907
-3.59005
-2.87927
-2.62886
43.8096
-3.8764
-3.95243
-4.04264
-4.15114
-4.2838
-4.44771
-4.65432
-4.9168
-5.24772
-5.71106
-6.17001
-6.47508
-6.73198
-6.85994
-6.50464
-5.18965
-3.89933
-4.4996
46.7453
-4.02665
-4.11113
-4.21347
-4.33946
-4.49753
-4.69914
-4.96324
-5.31323
-5.7876
-6.4772
-7.10985
-7.68098
-8.65903
-9.42002
-8.81046
-7.26899
-4.79971
-6.65918
49.2853
-4.17082
-4.26225
-4.37489
-4.51609
-4.697
-4.93399
-5.25436
-5.69676
-6.33922
-7.27674
-8.19358
-9.42121
-11.2962
-11.9918
-10.9945
-9.2577
-4.99315
-8.7493
51.3181
-4.30788
-4.40423
-4.52446
-4.67727
-4.87638
-5.14283
-5.51189
-6.04188
-6.84624
-8.01299
-9.39447
-11.4574
-13.2763
-13.7485
-12.6938
-10.539
-5.73808
-14.1344
50.5933
-4.43705
-4.53589
-4.66023
-4.81986
-5.03044
-5.317
-5.72064
-6.31864
-7.24263
-8.62453
-10.6507
-12.9581
-14.3683
-14.8484
-13.8424
-11.2881
-6.8026
-14.5101
46.2001
-4.55787
-4.65652
-4.78103
-4.94177
-5.15545
-5.45042
-5.86981
-6.50225
-7.48906
-9.03805
-11.5947
-13.35
-14.6944
-15.2503
-13.9734
-10.6038
-5.68849
-11.6049
43.5863
-4.67032
-4.76603
-4.88661
-5.04214
-5.24944
-5.53991
-5.95419
-6.57773
-7.58089
-9.26345
-11.6495
-13.0275
-14.0934
-14.4798
-13.1889
-9.23538
-4.29729
-20.2295
28.5657
-4.77475
-4.86495
-4.97774
-5.12152
-5.31243
-5.57593
-5.94889
-6.53436
-7.52778
-9.25924
-11.3463
-12.308
-12.9104
-13.1881
-12.3032
-8.63042
-2.77044
-27.2381
-2.16897
-4.87184
-4.95402
-5.05556
-5.18324
-5.34947
-5.57355
-5.88518
-6.38724
-7.23557
-8.67021
-11.2076
-11.7999
-11.963
-12.3443
-11.5468
-7.68428
0.236554
-10.7469
-8.5701
-4.96266
-5.03526
-5.12316
-5.23109
-5.36747
-5.54447
-5.78151
-6.16761
-6.80482
-7.7052
-10.2607
-12.6955
-11.3662
-11.0897
-10.2996
-7.14474
-0.0162819
-3.11738
-6.98807
-5.04855
-5.11052
-5.1835
-5.27001
-5.37455
-5.5026
-5.66242
-5.90959
-6.30237
-6.73512
-8.13634
-11.1854
-12.3114
-9.48428
-2.83521
-2.88315
-1.13312
-5.60482
-5.76355
-5.13084
-5.18181
-5.23963
-5.30486
-5.37862
-5.46123
-5.55258
-5.67639
-5.85112
-5.9178
-5.79341
-6.46931
-7.77529
-6.21037
-1.45734
-2.30354
-5.05121
-5.42567
-5.5992
-5.2109
-5.25106
-5.29439
-5.33988
-5.3862
-5.43045
-5.46814
-5.50274
-5.52473
-5.42175
-5.07093
-5.06105
-4.18513
-4.62335
-4.72496
-4.87899
-5.20965
-5.48092
-5.56308
-5.28992
-5.31995
-5.35012
-5.37837
-5.40188
-5.41627
-5.41564
-5.39513
-5.34082
-5.21691
-5.013
-4.80758
-4.69103
-5.01341
-5.18477
-5.17467
-5.33161
-5.48334
-5.52835
-5.36876
-5.38968
-5.40846
-5.42248
-5.42827
-5.42115
-5.39553
-5.345
-5.25959
-5.13353
-4.9824
-4.8051
-4.71479
-4.88333
-5.1575
-5.26794
-5.37762
-5.46948
-5.51561
-5.44812
-5.4611
-5.47043
-5.47338
-5.46644
-5.44536
-5.40575
-5.34318
-5.25326
-5.14013
-5.01989
-4.9134
-4.89165
-5.01524
-5.19972
-5.31002
-5.40698
-5.48398
-5.52135
-5.52902
-5.53524
-5.53696
-5.53172
-5.51648
-5.48785
-5.44306
-5.38047
-5.30037
-5.20835
-5.11911
-5.05369
-5.05285
-5.14448
-5.2757
-5.37403
-5.45507
-5.51505
-5.54262
-5.61247
-5.61312
-5.60896
-5.59798
-5.57793
-5.54664
-5.50336
-5.44916
-5.38596
-5.31929
-5.26025
-5.2242
-5.23157
-5.29329
-5.38378
-5.45952
-5.5196
-5.56127
-5.58082
-5.69751
-5.69384
-5.68561
-5.6713
-5.64943
-5.61916
-5.58217
-5.54289
-5.50157
-5.46145
-5.42906
-5.41307
-5.42265
-5.45989
-5.51181
-5.55774
-5.59484
-5.62052
-5.63318
-5.78057
-5.77361
-5.76302
-5.74797
-5.72789
-5.70319
-5.67753
-5.6581
-5.6422
-5.6274
-5.61716
-5.61478
-5.62243
-5.63899
-5.65824
-5.67438
-5.68712
-5.69441
-5.69537
)
;

boundaryField
{
    leftWall
    {
        type            calculated;
        value           nonuniform List<scalar> 
50
(
940.046
880.774
821.058
760.882
700.151
638.788
576.685
513.662
413.538
275.938
147.619
61.6327
5.39836
-1.10491
-1.19357
-1.35625
-1.51845
-1.66693
-1.81554
-1.96262
-2.10885
-2.2543
-2.39877
-2.54205
-2.68402
-2.82471
-2.96411
-3.1022
-3.2389
-3.37414
-3.50785
-3.63996
-3.77046
-3.89931
-4.02652
-4.15211
-4.27609
-4.39852
-4.51946
-4.63897
-4.75712
-4.874
-4.98976
-5.10446
-5.21808
-5.33068
-5.44269
-5.55453
-5.6657
-5.77401
)
;
    }
    rightWall
    {
        type            calculated;
        value           nonuniform List<scalar> 
50
(
1122.89
1052.89
965.626
871.378
803.174
791.893
846.433
937.876
1056.04
1013.12
803.407
547.501
349.98
228.742
150.841
95.3346
56.5443
37.469
27.7521
20.5322
17.4048
20.9078
24.6696
29.4236
32.4849
34.7818
37.0724
39.3611
41.5982
43.8096
46.7453
49.2853
51.3181
50.5933
46.2001
43.5863
28.5657
-2.16897
-8.5701
-6.98807
-5.76355
-5.5992
-5.56308
-5.52835
-5.51561
-5.52135
-5.54262
-5.58082
-5.63318
-5.69537
)
;
    }
    lowerWall
    {
        type            calculated;
        value           nonuniform List<scalar> 
62
(
969.476
969.899
970.788
971.561
972.156
972.596
973.036
973.622
974.44
975.532
976.918
978.605
980.591
982.859
985.356
988.017
990.724
993.297
995.507
997.16
998.275
999.249
1000.25
970.823
912.555
855.4
797.777
738.849
678.227
613.52
541.578
317.333
447.448
449.472
384.895
381.145
373.715
356.965
327.205
309.081
306.125
308.079
296.394
389.78
311.526
251.199
240.995
265.046
298.999
380.643
591.412
803.811
757.026
661.761
682.773
802.447
900.602
938.577
902.763
796.694
823.092
1148.72
)
;
    }
    atmosphere
    {
        type            calculated;
        value           nonuniform List<scalar> 
46
(
-5.82408
-5.82972
-5.82928
-5.82965
-5.82994
-5.83022
-5.83047
-5.83071
-5.83094
-5.83116
-5.83137
-5.83158
-5.83179
-5.83199
-5.83219
-5.83238
-5.83256
-5.83272
-5.83287
-5.833
-5.8331
-5.83316
-5.83318
-5.83308
-5.83216
-5.82991
-5.82573
-5.81942
-5.8112
-5.80017
-5.78603
-5.76888
-5.75013
-5.73404
-5.72904
-5.72904
-5.72904
-5.72904
-5.72906
-5.72924
-5.73012
-5.72998
-5.72921
-5.72905
-5.72904
-5.72904
)
;
    }
    defaultFaces
    {
        type            empty;
    }
}


// ************************************************************************* //
