/*--------------------------------*- C++ -*----------------------------------*\
| =========                 |                                                 |
| \\      /  F ield         | OpenFOAM: The Open Source CFD Toolbox           |
|  \\    /   O peration     | Version:  2206                                  |
|   \\  /    A nd           | Website:  www.openfoam.com                      |
|    \\/     M anipulation  |                                                 |
\*---------------------------------------------------------------------------*/
FoamFile
{
    version     2.0;
    format      ascii;
    arch        "LSB;label=32;scalar=64";
    class       volScalarField;
    location    "0.475";
    object      p_rgh;
}
// * * * * * * * * * * * * * * * * * * * * * * * * * * * * * * * * * * * * * //

dimensions      [1 -1 -2 0 0 0 0];

internalField   nonuniform List<scalar> 
2268
(
969.476
969.899
970.788
971.561
972.156
972.596
973.036
973.622
974.44
975.532
976.918
978.605
980.591
982.859
985.356
988.017
990.724
993.297
995.507
997.16
998.275
999.249
1000.25
969.062
969.465
970.391
971.178
971.795
972.256
972.711
973.309
974.138
975.241
976.632
978.3
980.225
982.412
984.84
987.472
990.222
992.934
995.353
997.199
998.42
999.429
1000.84
968.204
968.585
969.575
970.382
971.047
971.551
972.041
972.666
973.523
974.656
976.078
977.784
979.764
981.977
984.397
986.97
989.622
992.257
994.775
997.083
999.151
1001.06
1002.55
966.888
967.312
968.204
969.122
969.872
970.449
970.997
971.674
972.583
973.769
975.245
977.003
979.024
981.278
983.731
986.332
989.013
991.691
994.307
996.864
999.407
1001.85
1003.78
965.015
965.447
966.344
967.356
968.213
968.892
969.532
970.295
971.289
972.56
974.117
975.952
978.045
980.366
982.882
985.547
988.303
991.082
993.817
996.476
999.087
1001.6
1003.71
962.511
962.967
963.894
965.029
966.018
966.839
967.611
968.5
969.617
971.008
972.677
974.615
976.803
979.213
981.809
984.55
987.375
990.22
993.012
995.675
998.145
1000.34
1001.95
959.266
959.786
960.796
962.14
963.304
964.293
965.233
966.292
967.574
969.117
970.924
972.983
975.278
977.782
980.458
983.268
986.133
988.969
991.669
994.07
995.912
996.777
996.102
955.103
955.647
956.732
958.327
959.89
961.195
962.373
963.657
965.162
966.907
968.885
971.088
973.503
976.107
978.863
981.698
984.541
987.268
989.701
991.626
992.46
992.073
983.018
389.78
311.526
251.199
240.995
265.046
298.999
380.643
591.412
803.811
757.026
661.761
682.773
802.447
900.602
938.577
902.763
796.694
823.092
1148.72
399.62
288.428
218.574
220.753
246.947
282.632
352.901
560.628
774.61
726.91
636.832
657.311
783.74
906.67
953.895
902.456
776.06
770.292
1130.4
399.371
249.076
210.52
218.455
245.823
280.628
395.799
568.711
696.006
653.077
580.006
598.453
714.702
858.77
962.898
891.244
742.077
695.824
1093.77
385.089
239.745
211.165
218.198
245.069
327.168
463.65
542.03
613.636
576.334
523.294
536.307
632.576
773.699
899.306
914.696
732.903
600.187
1043.72
376.343
246.142
215.342
220.127
297.076
466.343
484.468
508.535
531.952
488.219
452.571
468.125
551.17
683.235
815.489
900.03
720.836
590.107
1043.35
327.108
265.619
222.116
276.823
490.542
504.687
482.432
472.776
440.816
349.799
285.676
333.514
452.409
586.235
729.569
838.894
763.369
648.992
1085.95
349.637
297.775
332.249
532.948
546.878
514.778
482.58
419.362
209.03
70.7586
30.099
50.4212
167.834
471.585
640.076
780.295
862.973
782.009
1200.6
490.213
501.789
614.896
589.603
565.94
529.238
464.975
188.184
5.22884
1.26167
0.613629
0.784921
2.64449
159.24
543.612
723.47
875.205
1014.55
1361.81
947.005
947.034
947.708
949.987
953.013
955.403
957.196
958.915
960.809
962.899
965.169
967.615
970.227
972.979
975.819
978.658
981.342
983.607
984.906
984.377
979.179
965.967
926.396
934.599
929.67
929.856
934.585
941.406
946.049
948.853
951.205
953.595
956.093
958.703
961.425
964.249
967.14
970.028
972.793
975.251
977.127
977.986
977.227
974.149
968.301
960.127
931.475
925.846
917.572
908.708
921.694
934.302
937.686
940.444
943.463
946.463
949.495
952.616
955.814
959.049
962.266
965.369
968.217
970.614
972.303
972.896
971.952
968.218
961.925
889.177
737.257
514.174
403.649
475.611
565.46
595.648
618.556
641.621
660.679
677.572
694.846
713.159
732.156
751.374
770.353
788.512
805.179
819.538
830.798
839.733
841.718
838.44
113.556
10.3242
0.380799
18.2322
38.5645
21.0885
10.1726
9.89955
11.7925
15.3554
20.5968
27.4231
35.5044
44.5567
54.4228
64.9215
75.7214
86.3571
96.0716
103.897
110.476
111.033
105.634
0.054532
0.0234514
-0.023738
0.00420146
0.0153657
0.0382187
0.0561912
0.0606582
0.0607517
0.0596945
0.0581847
0.0564223
0.0547199
0.053189
0.0516661
0.0499166
0.0477536
0.0450334
0.0417384
0.0378941
0.0336009
0.0310166
0.0342332
0.0910673
0.0922895
0.0778305
0.0225826
0.0308887
0.0376967
0.0427528
0.0447957
0.0451153
0.0447299
0.0440195
0.0430838
0.0420431
0.0410206
0.040001
0.0388355
0.0373367
0.035324
0.0326706
0.0294203
0.0258769
0.02281
0.0222989
0.0535788
0.0483341
0.0430975
0.02604
0.0234327
0.0236377
0.0236837
0.0238437
0.0238723
0.0236127
0.0231543
0.0225863
0.0219398
0.0212182
0.0203582
0.0191839
0.0174264
0.0148084
0.0111978
0.00665536
0.00151897
-0.00336355
-0.00738615
0.0165693
0.0158762
0.0147058
0.0106672
0.00752349
0.00596653
0.0049965
0.00423603
0.00360693
0.00299592
0.00234504
0.00165494
0.000915869
6.46343e-05
-0.00106817
-0.00279113
-0.00550829
-0.00956547
-0.0150678
-0.0220666
-0.0300951
-0.0333014
-0.0446125
-0.00670841
-0.0072457
-0.00872391
-0.0106845
-0.0125901
-0.0141376
-0.0154351
-0.0166244
-0.0177473
-0.0188356
-0.0199281
-0.0210526
-0.0222536
-0.0236529
-0.0255136
-0.0282472
-0.0323141
-0.0379352
-0.0451731
-0.0518904
-0.049389
-0.020931
-0.0423737
-0.0301279
-0.0305815
-0.0315494
-0.0327516
-0.0341408
-0.035579
-0.0370094
-0.0384497
-0.0399218
-0.0414408
-0.0430266
-0.0447055
-0.0465323
-0.048646
-0.0513163
-0.0549361
-0.0598732
-0.0660628
-0.0567253
-0.0337795
-0.0372457
-0.049494
-0.0669376
-0.0520179
-0.0524832
-0.0533756
-0.0544439
-0.0557078
-0.0571375
-0.0586997
-0.0603875
-0.0622076
-0.0641681
-0.0662812
-0.0685705
-0.0710854
-0.0739337
-0.0773114
-0.0815075
-0.0867238
-0.0825683
-0.0369789
-0.0471373
-0.0581349
-0.06929
-0.12653
-0.0730519
-0.0735876
-0.0744687
-0.0755271
-0.0768115
-0.0783188
-0.0800399
-0.0819713
-0.084118
-0.0864886
-0.0890972
-0.091969
-0.0951416
-0.0986767
-0.102685
-0.107325
-0.11266
-0.0997823
-0.058019
-0.0659881
-0.0745863
-0.0833384
-0.143575
-0.093304
-0.0938643
-0.0947235
-0.0957976
-0.097138
-0.0987442
-0.100619
-0.102764
-0.105189
-0.107902
-0.110922
-0.114273
-0.117985
-0.122092
-0.126649
-0.131719
-0.137329
-0.136412
-0.108124
-0.0850089
-0.0915209
-0.0988305
-0.132033
-0.112576
-0.113114
-0.113941
-0.115033
-0.11643
-0.11813
-0.120137
-0.122458
-0.125099
-0.128072
-0.131393
-0.135079
-0.139156
-0.143647
-0.148581
-0.15398
-0.15986
-0.166218
-0.172924
-0.15306
-0.119394
-0.158407
-0.171345
-0.130661
-0.13116
-0.131965
-0.133076
-0.134524
-0.136303
-0.138419
-0.140876
-0.143681
-0.14684
-0.150366
-0.154271
-0.158568
-0.163274
-0.168402
-0.173958
-0.179936
-0.186311
-0.193017
-0.199955
-0.206863
-0.213506
-0.220355
-0.147445
-0.147907
-0.148704
-0.149839
-0.151333
-0.153181
-0.155388
-0.157955
-0.160887
-0.164189
-0.167869
-0.171932
-0.176386
-0.181236
-0.186489
-0.192142
-0.198184
-0.204593
-0.211331
-0.218337
-0.225499
-0.232735
-0.24017
-0.16294
-0.163378
-0.164175
-0.165332
-0.166867
-0.168773
-0.171053
-0.17371
-0.176747
-0.180168
-0.183976
-0.188176
-0.19277
-0.197759
-0.203146
-0.208927
-0.215095
-0.221634
-0.228531
-0.235755
-0.243264
-0.251018
-0.259025
-0.177145
-0.17757
-0.178376
-0.179556
-0.181127
-0.183083
-0.185428
-0.188163
-0.19129
-0.194814
-0.198737
-0.203063
-0.207793
-0.212929
-0.218471
-0.224417
-0.230762
-0.2375
-0.244628
-0.252129
-0.259987
-0.268192
-0.276738
-0.190036
-0.190454
-0.191267
-0.192469
-0.194072
-0.196073
-0.198474
-0.201277
-0.204486
-0.208102
-0.212131
-0.216575
-0.221436
-0.226718
-0.232422
-0.238548
-0.245096
-0.252065
-0.259453
-0.267258
-0.275476
-0.284106
-0.293147
-0.201547
-0.201965
-0.202788
-0.20401
-0.205641
-0.20768
-0.21013
-0.212993
-0.216272
-0.219971
-0.224094
-0.228645
-0.233628
-0.239047
-0.244905
-0.251207
-0.257956
-0.265155
-0.272806
-0.280913
-0.28948
-0.298511
-0.308014
-0.211591
-0.212012
-0.212845
-0.214086
-0.215742
-0.217815
-0.220307
-0.223221
-0.22656
-0.230329
-0.234533
-0.239177
-0.244266
-0.249807
-0.255804
-0.262264
-0.269195
-0.276602
-0.284493
-0.292875
-0.301758
-0.311153
-0.321073
-0.220101
-0.220528
-0.221369
-0.222624
-0.2243
-0.226399
-0.228923
-0.231877
-0.235263
-0.239087
-0.243355
-0.248072
-0.253246
-0.258885
-0.264995
-0.271586
-0.278667
-0.286248
-0.29434
-0.302955
-0.312106
-0.321811
-0.332087
-0.227022
-0.227455
-0.228302
-0.229566
-0.231255
-0.23337
-0.235914
-0.238892
-0.242308
-0.246168
-0.250477
-0.255244
-0.260475
-0.266181
-0.27237
-0.279054
-0.286243
-0.293951
-0.302193
-0.310982
-0.320337
-0.330281
-0.340836
-0.23232
-0.232757
-0.233606
-0.234873
-0.236565
-0.238684
-0.241233
-0.244218
-0.247643
-0.251514
-0.255838
-0.260624
-0.265879
-0.271615
-0.277842
-0.284571
-0.291817
-0.299595
-0.307921
-0.316815
-0.326297
-0.336393
-0.347129
-0.23598
-0.236419
-0.237263
-0.238524
-0.240208
-0.242316
-0.244854
-0.247824
-0.251234
-0.255089
-0.259397
-0.264167
-0.269407
-0.275129
-0.281345
-0.288067
-0.29531
-0.303091
-0.311429
-0.320345
-0.329862
-0.340009
-0.350816
-0.237999
-0.238436
-0.239271
-0.240516
-0.242179
-0.244261
-0.246767
-0.249701
-0.253069
-0.256878
-0.261136
-0.265851
-0.271033
-0.276694
-0.282845
-0.2895
-0.296674
-0.304385
-0.312653
-0.3215
-0.330953
-0.341042
-0.351796
-0.238388
-0.238822
-0.23964
-0.24086
-0.242489
-0.244528
-0.246982
-0.249855
-0.253154
-0.256885
-0.261056
-0.265676
-0.270755
-0.276303
-0.282333
-0.288858
-0.295893
-0.303457
-0.311569
-0.320254
-0.329536
-0.339449
-0.350023
-0.237177
-0.237603
-0.238398
-0.239582
-0.241163
-0.243142
-0.245523
-0.248312
-0.251513
-0.255134
-0.259182
-0.263665
-0.268593
-0.273977
-0.279828
-0.28616
-0.292986
-0.300324
-0.308195
-0.316621
-0.325627
-0.335247
-0.345507
-0.234411
-0.234822
-0.235587
-0.236725
-0.238244
-0.240146
-0.242434
-0.245114
-0.24819
-0.251668
-0.255557
-0.259863
-0.264596
-0.269765
-0.275381
-0.281457
-0.288005
-0.295042
-0.302587
-0.310661
-0.319289
-0.328501
-0.338324
-0.230155
-0.230538
-0.231265
-0.232347
-0.233791
-0.2356
-0.237775
-0.240323
-0.243247
-0.246553
-0.250248
-0.254339
-0.258833
-0.26374
-0.269068
-0.27483
-0.281036
-0.2877
-0.294841
-0.302478
-0.310632
-0.319333
-0.328603
-0.224473
-0.224817
-0.225499
-0.226515
-0.227871
-0.229571
-0.231616
-0.23401
-0.236758
-0.239864
-0.243335
-0.247175
-0.251392
-0.255993
-0.260986
-0.26638
-0.272186
-0.278415
-0.285083
-0.292205
-0.299802
-0.3079
-0.316518
-0.217429
-0.217728
-0.218358
-0.219299
-0.220557
-0.222136
-0.224034
-0.226257
-0.228807
-0.231689
-0.234907
-0.238467
-0.242372
-0.24663
-0.251247
-0.256229
-0.261585
-0.267324
-0.273459
-0.280004
-0.286974
-0.294393
-0.302276
-0.209118
-0.209365
-0.209947
-0.210803
-0.211957
-0.213403
-0.215142
-0.217178
-0.219513
-0.222151
-0.225094
-0.228347
-0.231913
-0.235796
-0.240001
-0.244534
-0.2494
-0.254606
-0.260162
-0.266079
-0.272368
-0.279048
-0.286133
-0.199674
-0.199864
-0.200401
-0.201169
-0.202208
-0.203515
-0.205083
-0.206922
-0.209028
-0.211405
-0.214055
-0.216981
-0.220185
-0.22367
-0.227438
-0.231493
-0.235839
-0.24048
-0.245423
-0.250675
-0.256244
-0.262146
-0.26839
-0.189186
-0.189299
-0.189784
-0.190468
-0.191383
-0.192547
-0.193939
-0.195571
-0.197439
-0.199545
-0.20189
-0.204475
-0.207302
-0.210371
-0.213684
-0.217243
-0.221048
-0.225103
-0.229412
-0.233977
-0.238806
-0.243908
-0.249293
-0.177614
-0.177658
-0.178064
-0.178677
-0.179471
-0.180491
-0.181705
-0.183126
-0.18475
-0.186577
-0.188608
-0.190842
-0.19328
-0.195922
-0.198768
-0.201817
-0.20507
-0.208528
-0.212191
-0.216061
-0.22014
-0.224436
-0.228953
-0.165017
-0.165083
-0.165397
-0.165956
-0.166639
-0.167516
-0.168554
-0.169762
-0.171138
-0.172681
-0.174392
-0.176269
-0.178311
-0.180518
-0.182889
-0.185422
-0.188117
-0.190972
-0.193987
-0.19716
-0.200491
-0.203982
-0.207639
-0.151835
-0.152052
-0.152301
-0.152813
-0.153394
-0.154132
-0.155
-0.156
-0.157133
-0.158396
-0.159789
-0.161311
-0.16296
-0.164735
-0.166635
-0.168657
-0.1708
-0.17306
-0.175435
-0.177924
-0.180523
-0.183233
-0.186055
-0.138474
-0.138915
-0.139089
-0.139553
-0.140056
-0.140674
-0.14139
-0.1422
-0.143104
-0.144099
-0.145187
-0.146365
-0.147633
-0.148991
-0.150435
-0.151964
-0.153575
-0.155264
-0.157028
-0.158865
-0.16077
-0.162742
-0.16478
-0.124455
-0.124973
-0.125157
-0.125621
-0.126093
-0.126619
-0.127194
-0.127818
-0.128492
-0.129219
-0.129999
-0.130833
-0.131721
-0.132661
-0.133652
-0.134693
-0.13578
-0.136909
-0.138079
-0.139283
-0.140518
-0.141776
-0.143061
-0.107567
-0.109011
-0.109384
-0.109877
-0.110299
-0.1107
-0.111094
-0.11149
-0.111893
-0.112309
-0.112739
-0.113185
-0.113647
-0.114124
-0.114616
-0.115121
-0.115637
-0.116158
-0.116681
-0.117203
-0.117719
-0.118222
-0.1187
788.203
918.318
920.341
855.76
926.029
920.409
912.437
868.661
934.834
913.406
887.819
824.046
785.969
588.415
377.019
204.824
48.3739
0.243112
0.300466
0.311072
0.0513142
0.142652
0.261658
0.490499
0.0218184
0.282176
1.30018
1.17026
-0.0130432
1.14399
1.24221
1.13409
-0.0539888
0.126254
0.631921
0.0350102
-0.0745505
-0.0956119
-0.150918
-0.219542
-0.12657
-0.128073
-0.172879
-0.223964
-0.150433
-0.161668
-0.19796
-0.236693
-0.167578
-0.18977
-0.221329
-0.25407
-0.17654
-0.21486
-0.244993
-0.274879
-0.197196
-0.239347
-0.269413
-0.298706
-0.235983
-0.263332
-0.294498
-0.325027
-0.257249
-0.286943
-0.319934
-0.353202
-0.277493
-0.309729
-0.345367
-0.382534
-0.296531
-0.331337
-0.370307
-0.412278
-0.314181
-0.351637
-0.39426
-0.441604
-0.330205
-0.370278
-0.416668
-0.46963
-0.344319
-0.386869
-0.436931
-0.495441
-0.356244
-0.401007
-0.45444
-0.518121
-0.365713
-0.412303
-0.4686
-0.536782
-0.37249
-0.420404
-0.478876
-0.55061
-0.376388
-0.425026
-0.484838
-0.55891
-0.377275
-0.42597
-0.486185
-0.561197
-0.375089
-0.423145
-0.482748
-0.557209
-0.369842
-0.416561
-0.474511
-0.546944
-0.36162
-0.406331
-0.461651
-0.530624
-0.350576
-0.392668
-0.444502
-0.508727
-0.336923
-0.375876
-0.423506
-0.481893
-0.320914
-0.356309
-0.399144
-0.45105
-0.302851
-0.334384
-0.372089
-0.417056
-0.283084
-0.310596
-0.342982
-0.380849
-0.261928
-0.28532
-0.312393
-0.343268
-0.239515
-0.258815
-0.280698
-0.304893
-0.216148
-0.231442
-0.248334
-0.266268
-0.192585
-0.204042
-0.216223
-0.228389
-0.16945
-0.177332
-0.185189
-0.192181
-0.145944
-0.150451
-0.154314
-0.156688
-0.11969
-0.12071
-0.120595
-0.118604
776.436
717.754
670.213
635.201
595.89
448.94
202.945
1.52853
0.603525
0.418494
0.449432
0.570534
0.808375
2.43897
143.179
598.632
870.444
1176.81
1568.34
813.142
767.537
712.157
560.702
272.368
0.787103
-0.00526138
0.36237
0.320462
0.372723
0.452592
0.535422
0.654155
0.896182
2.95259
152.537
736.485
1197.49
1645.66
710.203
542.374
259.064
-0.0259921
-0.24562
0.163304
0.0988699
0.174005
0.229815
0.278943
0.346749
0.456797
0.59399
0.732309
1.11134
3.97174
473.045
1085.44
1555.84
30.9958
-0.0554784
-0.31443
-0.111989
-0.0599538
0.0507318
0.0984658
0.127653
0.157017
0.19149
0.273264
0.404873
0.554198
0.699957
0.90542
1.39466
158.344
937.605
1419.32
0.171054
-0.0815185
-0.231915
-0.165849
-0.0545954
0.0390864
0.0977178
0.117963
0.127025
0.14943
0.225984
0.362945
0.518468
0.660443
0.795772
0.898379
0.353855
832.857
1340.7
0.698712
0.641705
0.170731
-0.191146
-0.066252
0.0296806
0.0871775
0.119341
0.138916
0.162662
0.228496
0.350212
0.495592
0.626939
0.730654
1.06177
12.2006
911.858
1337.63
0.984693
0.844559
0.225419
-0.21489
-0.0923887
-0.000480947
0.0664031
0.11887
0.162634
0.206869
0.273742
0.37424
0.5029
0.618395
0.723534
1.18201
44.9362
1088.98
1378.25
0.647179
-0.127231
-0.320334
-0.217096
-0.113598
-0.026576
0.0463296
0.113414
0.179559
0.249034
0.329663
0.425446
0.543303
0.647337
0.734985
1.33133
66.1712
1151.72
1442.48
-0.292021
-0.307724
-0.276633
-0.202776
-0.123182
-0.0466557
0.0277915
0.104162
0.185873
0.275145
0.372726
0.478813
0.597418
0.69783
0.768214
1.50983
136.239
966.028
1523.36
-0.2646
-0.272982
-0.249422
-0.1978
-0.134846
-0.0663686
0.0075004
0.0888924
0.180194
0.282751
0.394834
0.513818
0.635043
0.707711
0.679405
5.22546
595.184
1186.98
1623.93
-0.255462
-0.261052
-0.243134
-0.203958
-0.151759
-0.0898287
-0.0179165
0.0653916
0.162005
0.271891
0.393002
0.522059
0.642766
0.698788
0.573458
1.37644
693.209
1702.11
1733.84
-0.25996
-0.264081
-0.250565
-0.219907
-0.175867
-0.119954
-0.0511828
0.031864
0.130447
0.244503
0.371772
0.502199
0.627185
0.689537
0.78845
4.62257
202.343
1791.41
1843.59
-0.27304
-0.277938
-0.268723
-0.245164
-0.208457
-0.158832
-0.094627
-0.0139585
0.0837294
0.199358
0.330086
0.464175
0.601648
0.693317
0.736072
4.5037
0.295244
1081.33
1959.22
-0.293062
-0.300246
-0.295857
-0.279312
-0.250302
-0.208065
-0.150361
-0.074763
0.0196228
0.134811
0.26798
0.405764
0.561759
0.69904
0.807801
0.642479
0.74947
206.844
2081.05
-0.318478
-0.329325
-0.330812
-0.32204
-0.301877
-0.268841
-0.220123
-0.152532
-0.0644939
0.0482124
0.18337
0.323882
0.501683
0.710089
0.925755
1.0244
1.21045
124.075
2202.65
-0.348148
-0.363995
-0.372626
-0.372919
-0.363345
-0.341989
-0.305442
-0.249684
-0.172538
-0.0655871
0.0700879
0.20863
0.408299
0.70936
1.03509
1.32342
1.57708
166.857
2325.13
-0.381077
-0.403199
-0.420341
-0.431334
-0.434578
-0.427983
-0.407652
-0.36902
-0.309111
-0.214715
-0.0832875
0.0417033
0.265319
0.680194
1.11614
1.53296
1.83959
220.609
2445.7
-0.416296
-0.445861
-0.472898
-0.49642
-0.515065
-0.526862
-0.527813
-0.513356
-0.478911
-0.409226
-0.293928
-0.202958
0.407725
1.24976
1.19241
1.68169
2.00466
270.281
2565.54
-0.452802
-0.490809
-0.529047
-0.566974
-0.603796
-0.63807
-0.666426
-0.684886
-0.687127
-0.661423
-0.588465
-0.543714
0.845871
4.16123
2.34983
1.70341
2.01624
318.731
2685.37
-0.489511
-0.536727
-0.587285
-0.641359
-0.69913
-0.760198
-0.822871
-0.884596
-0.939657
-0.981794
-0.991126
-0.993645
-0.90651
3.74999
4.96115
1.89655
1.75957
354.773
2805.11
-0.525244
-0.582138
-0.645797
-0.717424
-0.798648
-0.890724
-0.994856
-1.11173
-1.2382
-1.37806
-1.51457
-1.58589
-1.6846
0.453388
4.48419
2.23162
1.17792
392.461
2924.62
-0.558734
-0.62539
-0.702462
-0.792494
-0.899036
-1.02578
-1.17824
-1.36241
-1.57936
-1.85724
-2.15156
-2.33167
-2.42428
-1.48118
4.01542
1.32436
0.409759
443.817
3043.91
-0.588657
-0.664688
-0.754894
-0.863397
-0.996058
-1.15996
-1.36657
-1.62905
-1.95997
-2.42331
-2.88206
-2.66087
-3.12673
1.31207
2.78445
-0.601049
-0.398971
463.317
3163.73
-0.613705
-0.698188
-0.800527
-0.926516
-1.08459
-1.2862
-1.5503
-1.90029
-2.37466
-3.06423
-3.69428
-2.3201
0.469906
0.225335
0.817939
0.758852
-1.10566
467.442
3256.74
-0.63268
-0.724112
-0.836752
-0.977955
-1.15886
-1.39585
-1.71623
-2.15863
-2.80108
-3.73839
-4.61136
-1.81351
-2.14412
-3.85245
-1.00462
0.66881
-1.11047
497.847
3263.15
-0.644551
-0.740902
-0.861133
-1.01394
-1.21305
-1.4795
-1.84856
-2.37855
-3.18288
-4.34854
-3.1924
-2.6172
-7.36956
-8.82608
-2.41603
-3.87034
-1.69907
552.27
3299.63
-0.648524
-0.747363
-0.871705
-1.03134
-1.24191
-1.52847
-1.93212
-2.53011
-3.45395
-3.89547
0.513933
-6.04436
-9.82521
-10.0847
-3.36212
-5.53078
-1.53556
521.937
3411.73
-0.644153
-0.7428
-0.867309
-1.02805
-1.24173
-1.5367
-1.95606
-2.58823
-3.57419
-2.06796
3.87842
-8.69513
-10.0369
-10.4012
-6.9673
-4.74339
0.266913
462.439
3517.01
-0.631402
-0.727121
-0.847694
-1.00323
-1.21053
-1.501
-1.91518
-2.53635
-3.49918
-0.243749
4.75235
-8.22293
-9.29002
-9.6527
-8.22169
-3.74018
1.91355
702.823
2919.11
-0.610638
-0.700839
-0.813635
-0.957416
-1.14832
-1.41182
-1.78473
-2.36917
-3.2834
1.97829
5.1828
-7.35551
-7.95745
-8.20707
-7.18197
-2.96472
12.7392
806.529
410.206
-0.582533
-0.664715
-0.766261
-0.893941
-1.06017
-1.28424
-1.5958
-2.09573
-2.90587
3.52009
29.1549
-3.10111
-6.8322
-7.10407
-5.73755
0.872417
630.934
841.25
12.1559
-0.548159
-0.620761
-0.708663
-0.816595
-0.952969
-1.12996
-1.36684
-1.7491
-2.32666
-1.58405
73.1245
100.572
-2.741
-5.10405
61.1006
495.429
688.107
637.573
7.80839
-0.508853
-0.570828
-0.643804
-0.730319
-0.834862
-0.962901
-1.12253
-1.36565
-1.69859
-1.5377
51.3107
238.977
245.388
230.782
474.456
502.016
452.146
38.2124
-0.0128965
-0.465955
-0.516923
-0.574746
-0.639974
-0.713738
-0.796336
-0.887615
-1.00921
-1.15443
-0.917309
9.37292
175.96
293.013
327.304
355.361
234.733
26.2042
-0.447075
-0.890781
-0.420816
-0.460981
-0.504313
-0.549804
-0.596123
-0.64037
-0.678027
-0.712135
-0.725055
-0.533111
1.03282
33.419
158.476
194.027
51.475
11.8234
1.38304
-0.646147
-0.766778
-0.374641
-0.404674
-0.434842
-0.463093
-0.486603
-0.500991
-0.500359
-0.479737
-0.423915
-0.28125
0.21823
1.47898
7.06801
15.615
4.86312
1.91629
-0.0882523
-0.55842
-0.61188
-0.328292
-0.349212
-0.367985
-0.38201
-0.387797
-0.380681
-0.355055
-0.304511
-0.218862
-0.0897988
0.0965089
0.514488
1.39614
1.94415
1.13046
0.311755
-0.263742
-0.427427
-0.474879
-0.282452
-0.295439
-0.304763
-0.307714
-0.300773
-0.279691
-0.240087
-0.177509
-0.0875616
0.0260087
0.152132
0.312399
0.480924
0.52981
0.244216
-0.0259558
-0.225923
-0.317981
-0.355626
-0.238159
-0.244382
-0.246102
-0.240864
-0.225622
-0.196989
-0.152196
-0.0896133
-0.00950925
0.0825724
0.172719
0.246815
0.274768
0.219694
0.0724512
-0.0593973
-0.161198
-0.224112
-0.251746
-0.196415
-0.197068
-0.192905
-0.18193
-0.161872
-0.130586
-0.0873086
-0.0331037
0.0300912
0.0967709
0.155935
0.193245
0.190658
0.136176
0.043573
-0.0390185
-0.102988
-0.145198
-0.164764
-0.156261
-0.152595
-0.144358
-0.130051
-0.108181
-0.0779155
-0.0409222
-0.00164064
0.0396746
0.0798026
0.1122
0.128361
0.119633
0.0843101
0.032083
-0.0156745
-0.0534914
-0.0792718
-0.0919312
-0.114126
-0.107165
-0.0965729
-0.0815289
-0.0614432
-0.0367513
-0.0110881
0.00833938
0.0242431
0.0390428
0.049283
0.0516827
0.0442104
0.0285225
0.00912413
-0.00776523
-0.0206586
-0.0279647
-0.0289261
)
;

boundaryField
{
    leftWall
    {
        type            fixedFluxPressure;
        gradient        uniform 0;
        value           nonuniform List<scalar> 
50
(
969.476
969.062
968.204
966.888
965.015
962.511
959.266
955.103
947.005
934.599
931.475
889.177
113.556
0.054532
0.0910673
0.0535788
0.0165693
-0.00670841
-0.0301279
-0.0520179
-0.0730519
-0.093304
-0.112576
-0.130661
-0.147445
-0.16294
-0.177145
-0.190036
-0.201547
-0.211591
-0.220101
-0.227022
-0.23232
-0.23598
-0.237999
-0.238388
-0.237177
-0.234411
-0.230155
-0.224473
-0.217429
-0.209118
-0.199674
-0.189186
-0.177614
-0.165017
-0.151835
-0.138474
-0.124455
-0.107567
)
;
    }
    rightWall
    {
        type            fixedFluxPressure;
        gradient        uniform 0;
        value           nonuniform List<scalar> 
50
(
1148.72
1130.4
1093.77
1043.72
1043.35
1085.95
1200.6
1361.81
1568.34
1645.66
1555.84
1419.32
1340.7
1337.63
1378.25
1442.48
1523.36
1623.93
1733.84
1843.59
1959.22
2081.05
2202.65
2325.13
2445.7
2565.54
2685.37
2805.11
2924.62
3043.91
3163.73
3256.74
3263.15
3299.63
3411.73
3517.01
2919.11
410.206
12.1559
7.80839
-0.0128965
-0.890781
-0.766778
-0.61188
-0.474879
-0.355626
-0.251746
-0.164764
-0.0919312
-0.0289261
)
;
    }
    lowerWall
    {
        type            fixedFluxPressure;
        gradient        uniform 0;
        value           nonuniform List<scalar> 
62
(
969.476
969.899
970.788
971.561
972.156
972.596
973.036
973.622
974.44
975.532
976.918
978.605
980.591
982.859
985.356
988.017
990.724
993.297
995.507
997.16
998.275
999.249
1000.25
1000.25
1000.84
1002.55
1003.78
1003.71
1001.95
996.102
983.018
788.203
918.318
920.341
855.76
389.78
399.62
399.371
385.089
376.343
327.108
349.637
490.213
389.78
311.526
251.199
240.995
265.046
298.999
380.643
591.412
803.811
757.026
661.761
682.773
802.447
900.602
938.577
902.763
796.694
823.092
1148.72
)
;
    }
    atmosphere
    {
        type            totalPressure;
        rho             rho;
        psi             none;
        gamma           1;
        p0              uniform 0;
        value           nonuniform List<scalar> 
46
(
-0.095041
-0.100684
-0.100239
-0.100605
-0.100905
-0.101178
-0.101431
-0.101669
-0.101897
-0.102118
-0.102334
-0.102545
-0.102751
-0.102953
-0.103149
-0.103337
-0.103516
-0.103682
-0.10383
-0.103957
-0.104056
-0.104119
-0.104138
-0.104035
-0.103119
-0.100874
-0.0966858
-0.0903786
-0.08216
-0.0711332
-0.0569945
-0.0398362
-0.0210904
-0.00500202
0
0
0
0
0
0
0
0
0
0
0
0
)
;
    }
    defaultFaces
    {
        type            empty;
    }
}


// ************************************************************************* //
