/*--------------------------------*- C++ -*----------------------------------*\
| =========                 |                                                 |
| \\      /  F ield         | OpenFOAM: The Open Source CFD Toolbox           |
|  \\    /   O peration     | Version:  2206                                  |
|   \\  /    A nd           | Website:  www.openfoam.com                      |
|    \\/     M anipulation  |                                                 |
\*---------------------------------------------------------------------------*/
FoamFile
{
    version     2.0;
    format      ascii;
    arch        "LSB;label=32;scalar=64";
    class       surfaceScalarField;
    location    "0.4";
    object      phi;
}
// * * * * * * * * * * * * * * * * * * * * * * * * * * * * * * * * * * * * * //

dimensions      [0 3 -1 0 0 0 0];

oriented        oriented;

internalField   nonuniform List<scalar> 
4432
(
-3.27383e-06
3.27383e-06
-2.41249e-06
-8.61344e-07
2.21805e-06
-4.63055e-06
8.61363e-06
-6.39558e-06
1.51471e-05
-6.53346e-06
2.0846e-05
-5.69888e-06
2.53814e-05
-4.53543e-06
2.88063e-05
-3.42495e-06
3.13222e-05
-2.51585e-06
3.31438e-05
-1.82162e-06
3.44328e-05
-1.28897e-06
3.52636e-05
-8.30851e-07
3.55943e-05
-3.30689e-07
3.5188e-05
4.06355e-07
3.35676e-05
1.62038e-06
3.01096e-05
3.45803e-06
2.39608e-05
6.14873e-06
1.45423e-05
9.41855e-06
3.2186e-06
1.13237e-05
-7.00476e-06
1.02234e-05
-1.56884e-05
8.68363e-06
-1.64685e-05
7.80114e-07
-1.64685e-05
-3.33796e-06
6.61179e-06
-2.17104e-06
-2.02828e-06
2.53302e-06
-9.33461e-06
8.9318e-06
-1.27944e-05
1.5413e-05
-1.30146e-05
2.10408e-05
-1.13268e-05
2.55148e-05
-9.00945e-06
2.89076e-05
-6.81768e-06
3.14303e-05
-5.03862e-06
3.32956e-05
-3.68689e-06
3.4655e-05
-2.64837e-06
3.55853e-05
-1.76114e-06
3.61196e-05
-8.65006e-07
3.63147e-05
2.11292e-07
3.62841e-05
1.65094e-06
3.58739e-05
3.86823e-06
3.44715e-05
7.55113e-06
3.03825e-05
1.35076e-05
2.11617e-05
2.05445e-05
6.51707e-06
2.4868e-05
-7.18495e-06
2.23856e-05
-8.88941e-06
2.48459e-06
-2.53579e-05
-3.0214e-06
9.63319e-06
-1.72649e-06
-3.32319e-06
3.05265e-06
-1.41138e-05
9.39305e-06
-1.91348e-05
1.57115e-05
-1.93331e-05
2.11384e-05
-1.67537e-05
2.54334e-05
-1.33044e-05
2.87083e-05
-1.00926e-05
3.11887e-05
-7.51898e-06
3.30801e-05
-5.57837e-06
3.45176e-05
-4.08584e-06
3.55582e-05
-2.80177e-06
3.61848e-05
-1.49154e-06
3.63484e-05
4.76908e-08
3.59712e-05
2.02809e-06
3.51348e-05
4.70468e-06
3.41802e-05
8.50566e-06
3.33252e-05
1.43626e-05
3.07823e-05
2.30873e-05
2.34108e-05
3.22395e-05
1.24535e-05
3.33429e-05
3.78794e-06
1.11502e-05
-2.157e-05
-2.60513e-06
1.22383e-05
-1.05269e-06
-4.87563e-06
3.77003e-06
-1.89365e-05
9.99394e-06
-2.53587e-05
1.60709e-05
-2.54101e-05
2.12149e-05
-2.18976e-05
2.52714e-05
-1.73609e-05
2.84054e-05
-1.32266e-05
3.08543e-05
-9.96797e-06
3.28071e-05
-7.53108e-06
3.43695e-05
-5.6483e-06
3.55704e-05
-4.00266e-06
3.63804e-05
-2.30157e-06
3.67284e-05
-3.00249e-07
3.65307e-05
2.22578e-06
3.57378e-05
5.49755e-06
3.44759e-05
9.76755e-06
3.34727e-05
1.53658e-05
3.33957e-05
2.31644e-05
3.23989e-05
3.32364e-05
2.68267e-05
3.89152e-05
1.47057e-05
2.32711e-05
-6.86429e-06
-2.06368e-06
1.4302e-05
-1.14484e-07
-6.82483e-06
4.63172e-06
-2.36827e-05
1.06726e-05
-3.13996e-05
1.64498e-05
-3.11874e-05
2.1257e-05
-2.67048e-05
2.50401e-05
-2.11441e-05
2.80274e-05
-1.62138e-05
3.04649e-05
-1.24055e-05
3.2514e-05
-9.58011e-06
3.42412e-05
-7.37555e-06
3.56407e-05
-5.40217e-06
3.66609e-05
-3.3218e-06
3.72283e-05
-8.67591e-07
3.72766e-05
2.17745e-06
3.67713e-05
6.00289e-06
3.57321e-05
1.08068e-05
3.44189e-05
1.6679e-05
3.3905e-05
2.36783e-05
3.46163e-05
3.2525e-05
3.25381e-05
4.09934e-05
2.07721e-05
3.50371e-05
1.39078e-05
-1.38662e-06
1.56886e-05
7.77074e-07
-8.98852e-06
5.53366e-06
-2.84393e-05
1.13289e-05
-3.71948e-05
1.67785e-05
-3.6637e-05
2.12466e-05
-3.11728e-05
2.47714e-05
-2.46689e-05
2.76435e-05
-1.90859e-05
3.01109e-05
-1.48729e-05
3.22982e-05
-1.17674e-05
3.4226e-05
-9.30337e-06
3.585e-05
-7.02613e-06
3.70948e-05
-4.56668e-06
3.78804e-05
-1.65319e-06
3.81494e-05
1.9085e-06
3.78936e-05
6.25871e-06
3.7152e-05
1.15483e-05
3.59918e-05
1.78392e-05
3.47794e-05
2.48907e-05
3.45937e-05
3.27107e-05
3.34442e-05
4.21429e-05
2.33484e-05
4.51329e-05
3.72563e-05
-5.82058e-07
1.62707e-05
1.86537e-06
-1.1436e-05
6.44815e-06
-3.30221e-05
1.18858e-05
-4.26324e-05
1.69681e-05
-4.17193e-05
2.11171e-05
-3.53218e-05
2.44369e-05
-2.79888e-05
2.72611e-05
-2.19101e-05
2.9824e-05
-1.74358e-05
3.22041e-05
-1.41475e-05
3.43735e-05
-1.14728e-05
3.62514e-05
-8.90405e-06
3.77416e-05
-6.05686e-06
3.87571e-05
-2.66876e-06
3.92332e-05
1.43247e-06
3.91731e-05
6.31879e-06
3.86191e-05
1.21023e-05
3.76776e-05
1.87807e-05
3.63172e-05
2.62511e-05
3.50266e-05
3.40014e-05
3.33575e-05
4.3812e-05
2.52498e-05
5.32406e-05
6.2506e-05
4.1439e-07
1.58563e-05
3.26114e-06
-1.42827e-05
7.64258e-06
-3.74035e-05
1.25674e-05
-4.75573e-05
1.71436e-05
-4.62955e-05
2.09276e-05
-3.91059e-05
2.40641e-05
-3.11253e-05
2.68832e-05
-2.47292e-05
2.95769e-05
-2.01294e-05
3.21681e-05
-1.67387e-05
3.45844e-05
-1.38891e-05
3.67196e-05
-1.10393e-05
3.84658e-05
-7.80302e-06
3.97334e-05
-3.93638e-06
4.04809e-05
6.84951e-07
4.06603e-05
6.13944e-06
4.02833e-05
1.24793e-05
3.94679e-05
1.9596e-05
3.8229e-05
2.749e-05
3.64931e-05
3.57373e-05
3.40177e-05
4.62873e-05
2.66925e-05
6.05659e-05
8.91985e-05
2.20613e-05
-2.20613e-05
3.8575e-05
-1.65136e-05
3.42652e-05
4.30987e-06
2.49205e-05
9.34479e-06
1.68252e-05
8.09525e-06
9.23927e-06
7.58607e-06
1.61083e-06
7.62854e-06
-5.06774e-06
6.67833e-06
-1.07894e-05
5.7216e-06
-1.5379e-05
4.58969e-06
-1.86884e-05
3.30928e-06
-2.08183e-05
2.13006e-06
-2.16201e-05
8.0199e-07
-2.09734e-05
-6.46817e-07
-1.89236e-05
-2.04974e-06
-1.54675e-05
-3.4559e-06
-1.05549e-05
-4.91289e-06
-4.4955e-06
-6.0594e-06
-4.49541e-06
2.23802e-05
-4.44414e-05
4.34295e-05
-3.75629e-05
4.01891e-05
7.55031e-06
2.74929e-05
2.20411e-05
1.52929e-05
2.02953e-05
5.26387e-06
1.76149e-05
-2.62851e-06
1.55211e-05
-8.44941e-06
1.24991e-05
-1.28999e-05
1.01718e-05
-1.61768e-05
7.86683e-06
-1.82815e-05
5.41415e-06
-1.94979e-05
3.34645e-06
-1.98206e-05
1.12488e-06
-1.90544e-05
-1.41308e-06
-1.71336e-05
-3.97075e-06
-1.39778e-05
-6.61149e-06
-9.46817e-06
-9.42258e-06
-3.93493e-06
-1.1593e-05
-8.43031e-06
2.04064e-05
-6.48476e-05
4.40576e-05
-6.12142e-05
4.11717e-05
1.04362e-05
2.74369e-05
3.57761e-05
1.50023e-05
3.273e-05
5.24594e-06
2.73711e-05
-2.23408e-06
2.30012e-05
-7.8153e-06
1.80803e-05
-1.24114e-05
1.47678e-05
-1.6093e-05
1.15486e-05
-1.85813e-05
7.90254e-06
-2.01644e-05
4.92945e-06
-2.07152e-05
1.67578e-06
-1.99917e-05
-2.13645e-06
-1.80128e-05
-5.94976e-06
-1.4708e-05
-9.91642e-06
-9.96373e-06
-1.41668e-05
-4.16375e-06
-1.73931e-05
-1.25941e-05
1.67629e-05
-8.16104e-05
4.11634e-05
-8.56146e-05
3.99382e-05
1.16614e-05
2.70868e-05
4.86276e-05
1.51464e-05
4.46707e-05
5.57788e-06
3.69395e-05
-2.14495e-06
3.07239e-05
-7.98175e-06
2.39171e-05
-1.28126e-05
1.95986e-05
-1.67209e-05
1.54571e-05
-1.92301e-05
1.04118e-05
-2.09114e-05
6.61066e-06
-2.16159e-05
2.38051e-06
-2.09495e-05
-2.80271e-06
-1.89617e-05
-7.93754e-06
-1.55363e-05
-1.33419e-05
-1.0541e-05
-1.91622e-05
-4.42025e-06
-2.35139e-05
-1.70144e-05
1.19674e-05
-9.35779e-05
3.66897e-05
-0.000110337
3.4967e-05
1.33841e-05
2.49528e-05
5.86418e-05
1.45567e-05
5.5067e-05
4.78073e-06
4.67154e-05
-3.04439e-06
3.85491e-05
-8.85536e-06
2.9728e-05
-1.36264e-05
2.43695e-05
-1.76244e-05
1.94552e-05
-1.99836e-05
1.27712e-05
-2.17136e-05
8.34074e-06
-2.25852e-05
3.25208e-06
-2.19576e-05
-3.43035e-06
-1.99521e-05
-9.94313e-06
-1.6394e-05
-1.69001e-05
-1.11255e-05
-2.44309e-05
-4.66793e-06
-2.99714e-05
-2.16824e-05
1.35911e-05
-0.000107169
3.6539e-05
-0.000133285
2.84898e-05
2.14333e-05
2.06393e-05
6.64924e-05
1.28107e-05
6.28956e-05
3.28141e-06
5.62447e-05
-4.47846e-06
4.6309e-05
-1.00676e-05
3.5317e-05
-1.46666e-05
2.89685e-05
-1.87921e-05
2.35807e-05
-2.08967e-05
1.48758e-05
-2.26732e-05
1.01172e-05
-2.38104e-05
4.38939e-06
-2.32145e-05
-4.02647e-06
-2.11796e-05
-1.19781e-05
-1.74415e-05
-2.06383e-05
-1.18323e-05
-3.00403e-05
-4.96457e-06
-3.6839e-05
-2.6647e-05
2.69809e-05
-0.00013415
3.98618e-05
-0.000146165
2.26433e-05
3.86519e-05
1.54574e-05
7.36784e-05
1.10846e-05
6.72685e-05
1.50307e-06
6.58263e-05
-6.3116e-06
5.41237e-05
-1.15568e-05
4.05623e-05
-1.58219e-05
3.32335e-05
-2.01219e-05
2.78807e-05
-2.18108e-05
1.65647e-05
-2.36495e-05
1.1956e-05
-2.51981e-05
5.93804e-06
-2.46455e-05
-4.5793e-06
-2.26544e-05
-1.39692e-05
-1.87374e-05
-2.45552e-05
-1.27071e-05
-3.60708e-05
-5.33571e-06
-4.42104e-05
-3.19827e-05
3.99293e-05
-0.000174079
3.24717e-05
-0.000138708
1.26202e-05
5.85035e-05
9.24023e-06
7.70586e-05
1.07415e-05
6.57673e-05
2.57889e-07
7.631e-05
-7.57818e-06
6.19596e-05
-1.25379e-05
4.5522e-05
-1.67959e-05
3.74915e-05
-2.13972e-05
3.24819e-05
-2.25364e-05
1.77039e-05
-2.43485e-05
1.3768e-05
-2.6476e-05
8.06561e-06
-2.59748e-05
-5.08065e-06
-2.41987e-05
-1.57455e-05
-2.02706e-05
-2.84832e-05
-1.37846e-05
-4.2557e-05
-5.80799e-06
-5.21872e-05
-3.77906e-05
5.74461e-06
1.01117e-05
1.45502e-05
-2.30883e-05
2.38981e-05
-4.67514e-05
3.18628e-05
-5.5522e-05
3.87231e-05
-5.31558e-05
4.4969e-05
-4.53518e-05
5.10089e-05
-3.71652e-05
5.71199e-05
-3.08402e-05
6.3321e-05
-2.63305e-05
6.94128e-05
-2.28304e-05
7.51076e-05
-1.95839e-05
8.01394e-05
-1.60711e-05
8.43174e-05
-1.1981e-05
8.75222e-05
-7.14115e-06
8.96862e-05
-1.4791e-06
9.08749e-05
4.95073e-06
9.09351e-05
1.24192e-05
8.99511e-05
2.058e-05
8.82267e-05
2.92144e-05
8.57358e-05
3.82283e-05
8.33402e-05
4.86829e-05
8.44533e-05
5.94528e-05
7.83276e-05
9.53241e-05
1.42619e-05
-4.15025e-06
3.13766e-05
-4.0203e-05
4.11894e-05
-5.65643e-05
4.33639e-05
-5.76964e-05
4.42451e-05
-5.4037e-05
4.7405e-05
-4.85116e-05
5.28955e-05
-4.26557e-05
5.97031e-05
-3.76478e-05
6.69598e-05
-3.35871e-05
7.40417e-05
-2.99124e-05
8.04616e-05
-2.60038e-05
8.58717e-05
-2.14813e-05
9.01268e-05
-1.62361e-05
9.33397e-05
-1.03541e-05
9.56838e-05
-3.82319e-06
9.69994e-05
3.63511e-06
9.74209e-05
1.19977e-05
9.7124e-05
2.08769e-05
9.68555e-05
2.94829e-05
9.69316e-05
3.81521e-05
9.82595e-05
4.73551e-05
0.000102457
5.52556e-05
6.71249e-05
0.000113659
2.55658e-05
-2.97161e-05
5.29679e-05
-6.76051e-05
6.06321e-05
-6.42285e-05
5.33337e-05
-5.0398e-05
4.65451e-05
-4.72485e-05
4.66425e-05
-4.8609e-05
5.182e-05
-4.78332e-05
5.94482e-05
-4.52761e-05
6.79433e-05
-4.20822e-05
7.65485e-05
-3.85176e-05
8.47768e-05
-3.42321e-05
9.22187e-05
-2.89232e-05
9.83955e-05
-2.24128e-05
0.000102773
-1.47317e-05
0.000105149
-6.1993e-06
0.000105615
3.1689e-06
0.000103511
1.41026e-05
0.00010146
2.29275e-05
0.000101302
2.96413e-05
0.000102496
3.69572e-05
0.000104444
4.54075e-05
0.000106493
5.32066e-05
6.08942e-05
0.000112724
3.5381e-05
-6.50971e-05
6.29445e-05
-9.51685e-05
5.65202e-05
-5.78042e-05
3.9347e-05
-3.32248e-05
2.88289e-05
-3.67304e-05
2.61788e-05
-4.59589e-05
2.70264e-05
-4.86808e-05
3.07149e-05
-4.89646e-05
3.64532e-05
-4.78204e-05
4.40608e-05
-4.61253e-05
5.35224e-05
-4.36936e-05
6.48761e-05
-4.02769e-05
7.76118e-05
-3.51485e-05
9.13962e-05
-2.85162e-05
0.000105479
-2.02823e-05
0.000115345
-6.69679e-06
0.000118627
1.08209e-05
0.000118499
2.30553e-05
0.000117876
3.02644e-05
0.000115537
3.92959e-05
0.000113404
4.75404e-05
0.000112972
5.36393e-05
5.89924e-05
0.000114873
2.35846e-05
-8.86818e-05
1.23061e-05
-8.38901e-05
5.0644e-06
-5.05625e-05
1.05336e-06
-2.92138e-05
-1.70358e-06
-3.39735e-05
-4.73053e-06
-4.2932e-05
-8.90647e-06
-4.45049e-05
-1.32626e-05
-4.46084e-05
-1.62604e-05
-4.48227e-05
-1.68174e-05
-4.55682e-05
-1.43592e-05
-4.61518e-05
-9.6299e-06
-4.50063e-05
-5.04371e-06
-3.97348e-05
-1.85055e-06
-3.17094e-05
-3.76327e-06
-1.83696e-05
1.06637e-05
-2.11237e-05
4.6889e-05
-2.54044e-05
9.42081e-05
-2.42639e-05
0.000113288
1.11846e-05
0.000118558
3.40257e-05
0.000120788
4.53105e-05
0.000123009
5.1418e-05
5.80927e-05
0.000123909
-2.13194e-05
-6.73624e-05
-3.28044e-05
-7.24052e-05
-3.12192e-05
-5.21479e-05
-1.60932e-05
-4.43399e-05
-9.66796e-06
-4.03987e-05
-1.05104e-05
-4.20895e-05
-1.28919e-05
-4.21234e-05
-1.57204e-05
-4.17798e-05
-1.80247e-05
-4.25183e-05
-1.88082e-05
-4.47847e-05
-1.74255e-05
-4.75346e-05
-1.47798e-05
-4.76521e-05
-1.33919e-05
-4.11227e-05
-1.6588e-05
-2.85133e-05
-1.62956e-05
-1.8662e-05
-1.6194e-06
-3.57998e-05
2.67504e-05
-5.37741e-05
5.63354e-05
-5.38489e-05
8.91112e-05
-2.15913e-05
0.000101737
2.14002e-05
0.00010209
4.49567e-05
0.000114986
3.85226e-05
4.89512e-05
0.000124127
-2.42455e-05
-4.3117e-05
-2.5157e-05
-7.14938e-05
-1.92744e-05
-5.80305e-05
-1.57384e-05
-4.78759e-05
-1.31744e-05
-4.29627e-05
-1.31093e-05
-4.21546e-05
-1.401e-05
-4.12226e-05
-1.52363e-05
-4.05534e-05
-1.64006e-05
-4.13539e-05
-1.71014e-05
-4.40839e-05
-1.69957e-05
-4.76403e-05
-1.58363e-05
-4.88115e-05
-1.40796e-05
-4.28794e-05
-1.29208e-05
-2.96721e-05
-8.0809e-06
-2.35019e-05
9.70132e-06
-5.3582e-05
3.31293e-05
-7.72021e-05
5.59542e-05
-7.66738e-05
9.14335e-05
-5.70706e-05
0.000127554
-1.472e-05
0.000143311
2.91997e-05
0.000131672
5.01608e-05
6.04607e-05
0.000120163
-9.94264e-06
-3.31744e-05
-1.24028e-05
-6.90336e-05
-1.35853e-05
-5.68481e-05
-1.32221e-05
-4.82391e-05
-1.20371e-05
-4.41478e-05
-1.15563e-05
-4.26352e-05
-1.16715e-05
-4.11074e-05
-1.2395e-05
-3.98298e-05
-1.37691e-05
-3.99798e-05
-1.5692e-05
-4.21609e-05
-1.76547e-05
-4.56777e-05
-1.84831e-05
-4.79832e-05
-1.65156e-05
-4.48469e-05
-1.02636e-05
-3.59241e-05
4.84304e-07
-3.42498e-05
1.03129e-05
-6.34107e-05
2.01301e-05
-8.70193e-05
3.68922e-05
-9.3436e-05
6.4459e-05
-8.46374e-05
0.000106139
-5.64005e-05
0.000144045
-8.70635e-06
0.000152705
4.15013e-05
6.68728e-05
0.000146293
-5.48928e-06
-2.76851e-05
-9.13836e-06
-6.53845e-05
-1.03434e-05
-5.5643e-05
-1.06256e-05
-4.79569e-05
-1.01347e-05
-4.46386e-05
-9.78651e-06
-4.29834e-05
-9.63936e-06
-4.12544e-05
-9.90036e-06
-3.95687e-05
-1.08958e-05
-3.89842e-05
-1.27199e-05
-4.03368e-05
-1.50912e-05
-4.33063e-05
-1.67623e-05
-4.63121e-05
-1.51154e-05
-4.6494e-05
-7.49206e-06
-4.35475e-05
2.78414e-06
-4.4526e-05
2.69149e-06
-6.33181e-05
-7.6185e-07
-8.3566e-05
6.12245e-07
-9.48101e-05
1.46195e-05
-9.86447e-05
4.51857e-05
-8.69667e-05
8.1511e-05
-4.50318e-05
0.000109699
1.33132e-05
5.34477e-05
0.000123124
-3.2446e-06
-2.44405e-05
-6.25783e-06
-6.23713e-05
-7.66763e-06
-5.42331e-05
-8.27531e-06
-4.73492e-05
-8.26752e-06
-4.46464e-05
-8.07341e-06
-4.31774e-05
-7.72323e-06
-4.16045e-05
-7.33997e-06
-3.99518e-05
-7.30929e-06
-3.90148e-05
-8.00301e-06
-3.9643e-05
-9.4612e-06
-4.18481e-05
-1.0969e-05
-4.48043e-05
-1.04484e-05
-4.70146e-05
-5.90039e-06
-4.80956e-05
2.04125e-07
-5.06305e-05
-1.21535e-06
-6.18986e-05
-9.49438e-06
-7.5287e-05
-1.81226e-05
-8.6182e-05
-2.24424e-05
-9.4325e-05
-2.15773e-05
-8.78319e-05
-4.45807e-06
-6.21511e-05
2.16245e-05
-1.27694e-05
2.90737e-05
4.59984e-05
-1.63267e-06
-2.28078e-05
-4.10675e-06
-5.98973e-05
-5.68182e-06
-5.26581e-05
-6.43124e-06
-4.65997e-05
-6.6304e-06
-4.44472e-05
-6.53029e-06
-4.32774e-05
-6.08488e-06
-4.20498e-05
-5.29317e-06
-4.07434e-05
-4.44585e-06
-3.98621e-05
-4.00932e-06
-4.00795e-05
-4.23397e-06
-4.16235e-05
-4.89065e-06
-4.41477e-05
-5.01453e-06
-4.68907e-05
-3.47219e-06
-4.96379e-05
-9.15878e-07
-5.31867e-05
-2.90258e-06
-5.99118e-05
-1.01484e-05
-6.80411e-05
-2.04292e-05
-7.59012e-05
-3.30418e-05
-8.17124e-05
-4.77231e-05
-7.31508e-05
-5.7813e-05
-5.20614e-05
-4.78255e-05
-2.2757e-05
8.35741e-06
-2.71093e-05
-8.41074e-07
-2.19668e-05
-2.7926e-06
-5.79458e-05
-4.21931e-06
-5.12315e-05
-4.98834e-06
-4.58308e-05
-5.32045e-06
-4.41151e-05
-5.33702e-06
-4.32608e-05
-4.99042e-06
-4.23963e-05
-4.22265e-06
-4.15111e-05
-3.17858e-06
-4.09061e-05
-2.24903e-06
-4.1009e-05
-1.79287e-06
-4.20797e-05
-1.93772e-06
-4.40028e-05
-2.4185e-06
-4.64099e-05
-2.93347e-06
-4.91228e-05
-3.80145e-06
-5.23186e-05
-7.07804e-06
-5.66351e-05
-1.3677e-05
-6.14421e-05
-2.24326e-05
-6.71457e-05
-3.18871e-05
-7.22581e-05
-3.75592e-05
-6.74788e-05
-3.98593e-05
-4.97615e-05
-3.64152e-05
-2.62012e-05
-4.57182e-06
-2.3486e-05
-4.33529e-07
-2.15333e-05
-1.96636e-06
-5.64132e-05
-3.20488e-06
-4.99931e-05
-3.9413e-06
-4.50945e-05
-4.32483e-06
-4.37317e-05
-4.45641e-06
-4.31293e-05
-4.32069e-06
-4.2532e-05
-3.853e-06
-4.19787e-05
-3.1185e-06
-4.16405e-05
-2.38807e-06
-4.17394e-05
-1.99983e-06
-4.24679e-05
-2.19787e-06
-4.38047e-05
-3.05021e-06
-4.55574e-05
-4.63034e-06
-4.75425e-05
-7.1531e-06
-4.97956e-05
-1.14365e-05
-5.23515e-05
-1.82761e-05
-5.46025e-05
-2.92094e-05
-5.62125e-05
-4.44482e-05
-5.70195e-05
-5.81863e-05
-5.37409e-05
-6.32316e-05
-4.47164e-05
-5.79432e-05
-3.14896e-05
-1.69258e-05
-4.55892e-05
-2.50292e-07
-2.12831e-05
-1.44954e-06
-5.52142e-05
-2.4883e-06
-4.89546e-05
-3.16651e-06
-4.44165e-05
-3.57926e-06
-4.3319e-05
-3.8061e-06
-4.29025e-05
-3.85832e-06
-4.24798e-05
-3.72926e-06
-4.21077e-05
-3.45778e-06
-4.1912e-05
-3.19495e-06
-4.20022e-05
-3.19873e-06
-4.2464e-05
-3.70284e-06
-4.33005e-05
-4.83851e-06
-4.44216e-05
-6.68964e-06
-4.56911e-05
-9.44613e-06
-4.70389e-05
-1.34409e-05
-4.83565e-05
-1.87531e-05
-4.92903e-05
-2.55776e-05
-4.93881e-05
-3.47071e-05
-4.78902e-05
-4.47248e-05
-4.37233e-05
-5.26652e-05
-3.6776e-05
-5.64463e-05
-2.77084e-05
-1.68494e-05
-5.65226e-05
-1.78173e-07
-2.11051e-05
-1.11573e-06
-5.42769e-05
-1.9908e-06
-4.80797e-05
-2.60154e-06
-4.38059e-05
-3.02085e-06
-4.28998e-05
-3.30663e-06
-4.26168e-05
-3.49296e-06
-4.22934e-05
-3.59941e-06
-4.20012e-05
-3.67153e-06
-4.18398e-05
-3.80638e-06
-4.18672e-05
-4.16332e-06
-4.2107e-05
-4.90383e-06
-4.25598e-05
-6.1556e-06
-4.31696e-05
-8.00541e-06
-4.3841e-05
-1.0582e-05
-4.4462e-05
-1.40541e-05
-4.48843e-05
-1.85175e-05
-4.48268e-05
-2.39303e-05
-4.39753e-05
-3.00348e-05
-4.17858e-05
-3.60454e-05
-3.77127e-05
-4.11298e-05
-3.16916e-05
-4.46885e-05
-2.41496e-05
-1.54503e-05
-4.60876e-05
-1.468e-07
-2.09585e-05
-8.96477e-07
-5.35275e-05
-1.63972e-06
-4.73367e-05
-2.18526e-06
-4.32606e-05
-2.59548e-06
-4.24898e-05
-2.91917e-06
-4.22932e-05
-3.18141e-06
-4.20312e-05
-3.41731e-06
-4.17653e-05
-3.67695e-06
-4.158e-05
-4.03441e-06
-4.15096e-05
-4.57447e-06
-4.15668e-05
-5.41355e-06
-4.17206e-05
-6.64919e-06
-4.19338e-05
-8.36432e-06
-4.21257e-05
-1.06371e-05
-4.2189e-05
-1.35595e-05
-4.19618e-05
-1.71167e-05
-4.12696e-05
-2.12887e-05
-3.98033e-05
-2.5793e-05
-3.72814e-05
-3.00314e-05
-3.34742e-05
-3.33363e-05
-2.83866e-05
-3.52326e-05
-2.22532e-05
-1.53451e-05
-3.53378e-05
-1.25942e-07
-2.08327e-05
-7.35788e-07
-5.29179e-05
-1.38029e-06
-4.66924e-05
-1.86663e-06
-4.27744e-05
-2.25625e-06
-4.21003e-05
-2.59465e-06
-4.19549e-05
-2.90219e-06
-4.17236e-05
-3.20588e-06
-4.14614e-05
-3.55006e-06
-4.12356e-05
-3.9914e-06
-4.10681e-05
-4.60109e-06
-4.0957e-05
-5.44219e-06
-4.08794e-05
-6.59124e-06
-4.07847e-05
-8.10651e-06
-4.06103e-05
-1.00375e-05
-4.02578e-05
-1.23942e-05
-3.9605e-05
-1.51777e-05
-3.8486e-05
-1.82554e-05
-3.67256e-05
-2.14038e-05
-3.4133e-05
-2.42556e-05
-3.06224e-05
-2.64035e-05
-2.62387e-05
-2.75076e-05
-2.11489e-05
-1.55402e-05
-2.73126e-05
-9.18189e-08
-2.0741e-05
-6.08816e-07
-5.2401e-05
-1.17771e-06
-4.61236e-05
-1.60988e-06
-4.23423e-05
-1.97032e-06
-4.17399e-05
-2.30533e-06
-4.16199e-05
-2.63067e-06
-4.13982e-05
-2.96666e-06
-4.11253e-05
-3.34536e-06
-4.08567e-05
-3.81021e-06
-4.06031e-05
-4.41072e-06
-4.03564e-05
-5.20297e-06
-4.00872e-05
-6.22714e-06
-3.97605e-05
-7.52154e-06
-3.93159e-05
-9.11143e-06
-3.86678e-05
-1.09959e-05
-3.77204e-05
-1.3105e-05
-3.63769e-05
-1.5356e-05
-3.44746e-05
-1.75445e-05
-3.19445e-05
-1.94332e-05
-2.87336e-05
-2.07547e-05
-2.49172e-05
-2.12727e-05
-2.0631e-05
-1.59488e-05
-2.08642e-05
-4.42346e-08
-2.06969e-05
-5.00149e-07
-5.1945e-05
-1.00886e-06
-4.56149e-05
-1.39007e-06
-4.19611e-05
-1.71478e-06
-4.14153e-05
-2.03034e-06
-4.13043e-05
-2.3492e-06
-4.10792e-05
-2.68608e-06
-4.07882e-05
-3.06418e-06
-4.04784e-05
-3.51621e-06
-4.01509e-05
-4.07637e-06
-3.97962e-05
-4.77273e-06
-3.93909e-05
-5.64039e-06
-3.88928e-05
-6.7014e-06
-3.82548e-05
-7.95421e-06
-3.74149e-05
-9.37982e-06
-3.62946e-05
-1.09391e-05
-3.48176e-05
-1.25167e-05
-3.2897e-05
-1.39819e-05
-3.04794e-05
-1.51626e-05
-2.75528e-05
-1.58846e-05
-2.41952e-05
-1.59966e-05
-2.05189e-05
-1.65272e-05
-1.54183e-05
9.56374e-09
-2.07064e-05
-4.02258e-07
-5.1533e-05
-8.61978e-07
-4.51551e-05
-1.19004e-06
-4.16331e-05
-1.47391e-06
-4.11314e-05
-1.75978e-06
-4.10184e-05
-2.05671e-06
-4.07821e-05
-2.37124e-06
-4.04734e-05
-2.71951e-06
-4.01299e-05
-3.11855e-06
-3.97519e-05
-3.59716e-06
-3.93177e-05
-4.17913e-06
-3.8809e-05
-4.87941e-06
-3.81926e-05
-5.70555e-06
-3.74286e-05
-6.64577e-06
-3.64745e-05
-7.67917e-06
-3.52611e-05
-8.76095e-06
-3.37357e-05
-9.80575e-06
-3.18522e-05
-1.07172e-05
-2.95681e-05
-1.13711e-05
-2.68989e-05
-1.1654e-05
-2.39123e-05
-1.14661e-05
-2.07069e-05
-1.72316e-05
-1.07619e-05
8.13281e-08
-2.07876e-05
-3.05207e-07
-5.11462e-05
-7.18554e-07
-4.47416e-05
-9.96802e-07
-4.13549e-05
-1.23433e-06
-4.0894e-05
-1.47674e-06
-4.0776e-05
-1.72927e-06
-4.05294e-05
-1.99745e-06
-4.0205e-05
-2.29172e-06
-3.98355e-05
-2.62711e-06
-3.94164e-05
-3.01493e-06
-3.89299e-05
-3.46856e-06
-3.83555e-05
-3.99556e-06
-3.76656e-05
-4.59619e-06
-3.68278e-05
-5.26565e-06
-3.58049e-05
-5.96481e-06
-3.45619e-05
-6.64946e-06
-3.30512e-05
-7.26896e-06
-3.12328e-05
-7.73885e-06
-2.90982e-05
-7.98094e-06
-2.66569e-05
-7.92408e-06
-2.39693e-05
-7.50147e-06
-2.11296e-05
-1.80467e-05
-6.68643e-06
1.62332e-07
-2.09498e-05
-2.0476e-07
-5.07789e-05
-5.77976e-07
-4.43683e-05
-8.05081e-07
-4.11278e-05
-9.93524e-07
-4.07056e-05
-1.18805e-06
-4.05814e-05
-1.39044e-06
-4.03269e-05
-1.60213e-06
-3.99931e-05
-1.82944e-06
-3.9608e-05
-2.08073e-06
-3.91652e-05
-2.36272e-06
-3.8648e-05
-2.68084e-06
-3.80374e-05
-3.03619e-06
-3.73102e-05
-3.42348e-06
-3.64404e-05
-3.82865e-06
-3.53996e-05
-4.23158e-06
-3.41589e-05
-4.59409e-06
-3.26887e-05
-4.86191e-06
-3.09651e-05
-4.99404e-06
-2.89662e-05
-4.92306e-06
-2.6728e-05
-4.58661e-06
-2.43059e-05
-3.97023e-06
-2.17462e-05
-1.89681e-05
-3.04899e-06
2.47262e-07
-2.11969e-05
-1.00807e-07
-5.04306e-05
-4.32994e-07
-4.40361e-05
-6.08943e-07
-4.0952e-05
-7.46473e-07
-4.05682e-05
-8.88963e-07
-4.04389e-05
-1.03489e-06
-4.01808e-05
-1.1826e-06
-3.98452e-05
-1.33487e-06
-3.94557e-05
-1.49543e-06
-3.90046e-05
-1.66683e-06
-3.84766e-05
-1.84969e-06
-3.78545e-05
-2.04115e-06
-3.71187e-05
-2.23341e-06
-3.6248e-05
-2.41206e-06
-3.52209e-05
-2.55986e-06
-3.40111e-05
-2.64751e-06
-3.26011e-05
-2.6361e-06
-3.09767e-05
-2.46413e-06
-2.91384e-05
-2.11801e-06
-2.70744e-05
-1.56905e-06
-2.4855e-05
-7.73459e-07
-2.25418e-05
-1.99984e-05
2.56848e-07
3.31039e-07
-2.15278e-05
2.17888e-09
-5.01017e-05
-2.80253e-07
-4.37538e-05
-4.03181e-07
-4.08292e-05
-4.89158e-07
-4.04823e-05
-5.77333e-07
-4.03507e-05
-6.63491e-07
-4.00945e-05
-7.43657e-07
-3.97649e-05
-8.17741e-07
-3.93815e-05
-8.86132e-07
-3.89362e-05
-9.48043e-07
-3.84147e-05
-1.00097e-06
-3.78016e-05
-1.03971e-06
-3.70799e-05
-1.05589e-06
-3.62318e-05
-1.03736e-06
-3.52393e-05
-9.5748e-07
-3.40909e-05
-7.91707e-07
-3.27669e-05
-5.1683e-07
-3.12517e-05
-1.10615e-07
-2.95448e-05
4.63829e-07
-2.7649e-05
1.22268e-06
-2.5614e-05
2.16761e-06
-2.34868e-05
-2.11429e-05
3.31206e-06
4.15604e-07
-2.19433e-05
1.23796e-07
-4.98099e-05
-1.09409e-07
-4.35207e-05
-1.81497e-07
-4.07573e-05
-2.17127e-07
-4.04469e-05
-2.5053e-07
-4.03173e-05
-2.76089e-07
-4.00689e-05
-2.8822e-07
-3.97527e-05
-2.84582e-07
-3.93851e-05
-2.63e-07
-3.89578e-05
-2.20059e-07
-3.84577e-05
-1.50654e-07
-3.7871e-05
-4.72231e-08
-3.71833e-05
1.00664e-07
-3.63796e-05
3.07005e-07
-3.54456e-05
5.85364e-07
-3.43692e-05
9.55919e-07
-3.31375e-05
1.44384e-06
-3.17398e-05
2.06813e-06
-3.01694e-05
2.84762e-06
-2.84288e-05
3.78987e-06
-2.65565e-05
4.8948e-06
-2.45918e-05
-2.24157e-05
6.16762e-06
5.03571e-07
-2.24468e-05
2.6166e-07
-4.95681e-05
8.28483e-08
-4.33421e-05
5.69679e-08
-4.07316e-05
7.13375e-08
-4.04613e-05
9.20668e-08
-4.0338e-05
1.26379e-07
-4.01031e-05
1.80803e-07
-3.9807e-05
2.59204e-07
-3.94635e-05
3.65764e-07
-3.90644e-05
5.06023e-07
-3.8598e-05
6.87156e-07
-3.80523e-05
9.18259e-07
-3.74145e-05
1.21046e-06
-3.66718e-05
1.57681e-06
-3.58119e-05
2.03126e-06
-3.48236e-05
2.59031e-06
-3.36966e-05
3.27198e-06
-3.24217e-05
4.09204e-06
-3.09897e-05
5.06165e-06
-2.93986e-05
6.18162e-06
-2.76766e-05
7.44882e-06
-2.58591e-05
-2.38327e-05
8.86578e-06
6.00257e-07
-2.30471e-05
4.12523e-07
-4.93805e-05
2.8161e-07
-4.32113e-05
3.02708e-07
-4.07528e-05
3.66048e-07
-4.05246e-05
4.40853e-07
-4.04128e-05
5.34529e-07
-4.01966e-05
6.54323e-07
-3.99267e-05
8.05274e-07
-3.96144e-05
9.93076e-07
-3.92522e-05
1.22485e-06
-3.88299e-05
1.50938e-06
-3.83369e-05
1.857e-06
-3.77621e-05
2.27959e-06
-3.70943e-05
2.7903e-06
-3.63225e-05
3.40281e-06
-3.54361e-05
4.13155e-06
-3.44255e-05
4.99086e-06
-3.32812e-05
5.99335e-06
-3.19924e-05
7.14628e-06
-3.05517e-05
8.44592e-06
-2.89763e-05
9.88632e-06
-2.72996e-05
-2.54162e-05
1.14697e-05
7.10616e-07
-2.37578e-05
5.69892e-07
-4.92399e-05
4.78635e-07
-4.31201e-05
5.44594e-07
-4.08189e-05
6.563e-07
-4.06364e-05
7.84364e-07
-4.05408e-05
9.36708e-07
-4.03489e-05
1.12113e-06
-4.0111e-05
1.34351e-06
-3.98368e-05
1.61064e-06
-3.95194e-05
1.9308e-06
-3.91502e-05
2.31396e-06
-3.87202e-05
2.77148e-06
-3.82197e-05
3.31607e-06
-3.76389e-05
3.96142e-06
-3.69678e-05
4.72155e-06
-3.61963e-05
5.61044e-06
-3.53145e-05
6.6411e-06
-3.43121e-05
7.82481e-06
-3.31763e-05
9.16769e-06
-3.18946e-05
1.06642e-05
-3.04728e-05
1.23055e-05
-2.89409e-05
-2.72052e-05
1.40945e-05
8.35777e-07
-2.45936e-05
7.21923e-07
-4.91261e-05
6.58574e-07
-4.30569e-05
7.67031e-07
-4.09274e-05
9.25176e-07
-4.07945e-05
1.10413e-06
-4.07197e-05
1.31317e-06
-4.05578e-05
1.56068e-06
-4.03584e-05
1.85328e-06
-4.01293e-05
2.1986e-06
-3.98647e-05
2.60583e-06
-3.95575e-05
3.08579e-06
-3.92002e-05
3.65078e-06
-3.87847e-05
4.31445e-06
-3.83025e-05
5.09154e-06
-3.77449e-05
5.99734e-06
-3.71021e-05
7.04701e-06
-3.63643e-05
8.25458e-06
-3.55197e-05
9.63262e-06
-3.45543e-05
1.11895e-05
-3.34516e-05
1.29221e-05
-3.22055e-05
1.48202e-05
-3.08389e-05
-2.92726e-05
1.68875e-05
9.729e-07
-2.55665e-05
8.54621e-07
-4.90079e-05
8.05884e-07
-4.30082e-05
9.52657e-07
-4.10742e-05
1.15205e-06
-4.09939e-05
1.3759e-06
-4.09435e-05
1.63584e-06
-4.08177e-05
1.941e-06
-4.06636e-05
2.29878e-06
-4.04871e-05
2.7176e-06
-4.02836e-05
3.20748e-06
-4.00475e-05
3.78001e-06
-3.97728e-05
4.44854e-06
-3.94532e-05
5.22799e-06
-3.9082e-05
6.13481e-06
-3.86517e-05
7.1866e-06
-3.8154e-05
8.40128e-06
-3.7579e-05
9.79642e-06
-3.69149e-05
1.13891e-05
-3.6147e-05
1.31943e-05
-3.52568e-05
1.52172e-05
-3.42284e-05
1.74516e-05
-3.30732e-05
-3.17254e-05
1.99045e-05
1.11812e-06
-2.66847e-05
9.55065e-07
-4.88449e-05
9.06222e-07
-4.29595e-05
1.08327e-06
-4.12514e-05
1.31305e-06
-4.12238e-05
1.56992e-06
-4.12005e-05
1.86831e-06
-4.11161e-05
2.21815e-06
-4.10134e-05
2.62763e-06
-4.08965e-05
3.10601e-06
-4.0762e-05
3.66413e-06
-4.06056e-05
4.31454e-06
-4.04232e-05
5.07183e-06
-4.02105e-05
5.95273e-06
-3.99629e-05
6.97608e-06
-3.96751e-05
8.16268e-06
-3.93407e-05
9.53466e-06
-3.8951e-05
1.11153e-05
-3.84955e-05
1.29295e-05
-3.79611e-05
1.50029e-05
-3.73301e-05
1.73553e-05
-3.65808e-05
1.99933e-05
-3.5711e-05
-3.46671e-05
2.29352e-05
1.26851e-06
-2.79533e-05
1.01317e-06
-4.85897e-05
9.48043e-07
-4.28944e-05
1.14191e-06
-4.14454e-05
1.38436e-06
-4.14664e-05
1.65545e-06
-4.14717e-05
1.97191e-06
-4.14326e-05
2.34414e-06
-4.13856e-05
2.78097e-06
-4.13334e-05
3.29247e-06
-4.12735e-05
3.89026e-06
-4.12034e-05
4.58794e-06
-4.11208e-05
5.40152e-06
-4.10241e-05
6.34973e-06
-4.09111e-05
7.45424e-06
-4.07797e-05
8.73951e-06
-4.0626e-05
1.02327e-05
-4.04442e-05
1.19642e-05
-4.0227e-05
1.39687e-05
-3.99655e-05
1.62845e-05
-3.96459e-05
1.895e-05
-3.92462e-05
2.19934e-05
-3.87542e-05
-3.81284e-05
2.54549e-05
1.41777e-06
-2.93711e-05
1.02206e-06
-4.81941e-05
9.26242e-07
-4.27987e-05
1.1183e-06
-4.16375e-05
1.35049e-06
-4.16988e-05
1.61194e-06
-4.17332e-05
1.92032e-06
-4.17411e-05
2.28575e-06
-4.17511e-05
2.71737e-06
-4.1765e-05
3.22578e-06
-4.17819e-05
3.82323e-06
-4.18009e-05
4.5242e-06
-4.18218e-05
5.34583e-06
-4.18457e-05
6.30864e-06
-4.1874e-05
7.43683e-06
-4.1908e-05
8.75827e-06
-4.19475e-05
1.03049e-05
-4.19908e-05
1.21142e-05
-4.20361e-05
1.42299e-05
-4.20811e-05
1.67029e-05
-4.21187e-05
1.95895e-05
-4.21327e-05
2.29445e-05
-4.2109e-05
-4.20207e-05
2.6837e-05
1.54877e-06
-3.09199e-05
9.79539e-07
-4.76248e-05
8.46407e-07
-4.26657e-05
1.01586e-06
-4.18071e-05
1.21467e-06
-4.18977e-05
1.44281e-06
-4.19614e-05
1.71711e-06
-4.20154e-05
2.04649e-06
-4.20805e-05
2.43999e-06
-4.21586e-05
2.90828e-06
-4.22503e-05
3.46394e-06
-4.23565e-05
4.12187e-06
-4.24797e-05
4.89971e-06
-4.26235e-05
5.81908e-06
-4.27934e-05
6.9058e-06
-4.29948e-05
8.19012e-06
-4.32318e-05
9.70746e-06
-4.35082e-05
1.15001e-05
-4.38287e-05
1.36188e-05
-4.41996e-05
1.61231e-05
-4.46229e-05
1.90842e-05
-4.50936e-05
2.25812e-05
-4.56058e-05
-4.61527e-05
2.67132e-05
1.63751e-06
-3.25574e-05
8.91755e-07
-4.68791e-05
7.2562e-07
-4.24996e-05
8.55195e-07
-4.19368e-05
1.00404e-06
-4.20465e-05
1.18215e-06
-4.21394e-05
1.40377e-06
-4.2237e-05
1.67613e-06
-4.23529e-05
2.00762e-06
-4.24902e-05
2.40864e-06
-4.26513e-05
2.89176e-06
-4.28395e-05
3.47175e-06
-4.30596e-05
4.16611e-06
-4.33179e-05
4.99659e-06
-4.3624e-05
5.98935e-06
-4.39877e-05
7.17546e-06
-4.4418e-05
8.59172e-06
-4.49243e-05
1.02825e-05
-4.55193e-05
1.23012e-05
-4.62182e-05
1.47119e-05
-4.70335e-05
1.75937e-05
-4.79753e-05
2.10421e-05
-4.90542e-05
-5.02896e-05
2.5179e-05
1.66804e-06
-3.42254e-05
7.73144e-07
-4.59842e-05
5.86823e-07
-4.23133e-05
6.68462e-07
-4.20184e-05
7.6196e-07
-4.21399e-05
8.84422e-07
-4.22618e-05
1.04647e-06
-4.2399e-05
1.25374e-06
-4.25602e-05
1.51375e-06
-4.27503e-05
1.83634e-06
-4.29738e-05
2.23362e-06
-4.32367e-05
2.71978e-06
-4.35456e-05
3.31168e-06
-4.39098e-05
4.03019e-06
-4.43426e-05
4.90051e-06
-4.48581e-05
5.95286e-06
-4.54703e-05
7.2234e-06
-4.61948e-05
8.75584e-06
-4.70517e-05
1.06025e-05
-4.80648e-05
1.28271e-05
-4.92581e-05
1.55087e-05
-5.06569e-05
1.87469e-05
-5.22924e-05
-5.42099e-05
2.26673e-05
1.628e-06
-3.58534e-05
6.38284e-07
-4.49946e-05
4.49432e-07
-4.21245e-05
4.85552e-07