/*--------------------------------*- C++ -*----------------------------------*\
| =========                 |                                                 |
| \\      /  F ield         | OpenFOAM: The Open Source CFD Toolbox           |
|  \\    /   O peration     | Version:  2206                                  |
|   \\  /    A nd           | Website:  www.openfoam.com                      |
|    \\/     M anipulation  |                                                 |
\*---------------------------------------------------------------------------*/
FoamFile
{
    version     2.0;
    format      ascii;
    arch        "LSB;label=32;scalar=64";
    class       surfaceScalarField;
    location    "0.15";
    object      alphaPhi0.water;
}
// * * * * * * * * * * * * * * * * * * * * * * * * * * * * * * * * * * * * * //

dimensions      [0 3 -1 0 0 0 0];

oriented        oriented;

internalField   nonuniform List<scalar> 
4432
(
4.37617e-06
-4.37617e-06
1.12098e-05
-6.83365e-06
1.7962e-05
-6.75219e-06
2.43798e-05
-6.41777e-06
3.07496e-05
-6.36986e-06
3.72793e-05
-6.52967e-06
4.40677e-05
-6.78842e-06
5.11526e-05
-7.08487e-06
5.85505e-05
-7.39787e-06
6.62599e-05
-7.70944e-06
7.42586e-05
-7.99867e-06
8.24944e-05
-8.23582e-06
9.08441e-05
-8.34967e-06
9.90571e-05
-8.21303e-06
0.000106733
-7.67561e-06
0.000113299
-6.56635e-06
0.000117785
-4.4859e-06
0.00011804
-2.55331e-07
0.000109444
8.5909e-06
8.58336e-05
2.36045e-05
4.63624e-05
3.94648e-05
5.07346e-06
3.9691e-05
3.58395e-06
4.41151e-06
-8.78771e-06
1.12254e-05
-1.36476e-05
1.79792e-05
-1.3506e-05
2.44085e-05
-1.28471e-05
3.07846e-05
-1.27459e-05
3.73202e-05
-1.30654e-05
4.41155e-05
-1.35837e-05
5.12086e-05
-1.41779e-05
5.86177e-05
-1.4807e-05
6.63424e-05
-1.54341e-05
7.43587e-05
-1.6015e-05
8.2623e-05
-1.65001e-05
9.10343e-05
-1.67609e-05
9.93677e-05
-1.65465e-05
0.000107238
-1.55461e-05
0.000114072
-1.34005e-05
0.00011907
-9.4838e-06
0.000121459
-2.64448e-06
0.000120637
9.41349e-06
0.000113317
3.08937e-05
9.05172e-05
6.225e-05
4.50624e-05
8.51313e-05
4.23481e-05
4.43565e-06
-1.32234e-05
1.1206e-05
-2.04179e-05
1.79152e-05
-2.02152e-05
2.43147e-05
-1.92466e-05
3.06675e-05
-1.90986e-05
3.71843e-05
-1.95823e-05
4.39639e-05
-2.03633e-05
5.10443e-05
-2.12583e-05
5.84467e-05
-2.22094e-05
6.61736e-05
-2.3161e-05
7.42074e-05
-2.40489e-05
8.25197e-05
-2.48124e-05
9.10305e-05
-2.52718e-05
9.9543e-05
-2.50589e-05
0.000107719
-2.37226e-05
0.000115061
-2.07417e-05
0.00012083
-1.52535e-05
0.000123703
-5.51755e-06
0.000121899
1.12179e-05
0.000114125
3.86686e-05
9.77034e-05
7.86527e-05
6.07007e-05
0.00012212
9.71826e-05
4.46517e-06
-1.76885e-05
1.1185e-05
-2.71378e-05
1.78293e-05
-2.68594e-05
2.41813e-05
-2.55986e-05
3.05019e-05
-2.54192e-05
3.69959e-05
-2.60763e-05
4.3758e-05
-2.71253e-05
5.08263e-05
-2.83266e-05
5.82262e-05
-2.96092e-05
6.59658e-05
-3.09006e-05
7.40403e-05
-3.21234e-05
8.24406e-05
-3.32127e-05
9.11058e-05
-3.3937e-05
9.98773e-05
-3.38304e-05
0.000108503
-3.23485e-05
0.000116592
-2.88302e-05
0.000123442
-2.21043e-05
0.000127882
-9.95693e-06
0.00012774
1.13598e-05
0.000119815
4.65937e-05
0.000101191
9.72729e-05
6.49083e-05
0.000158399
0.000164022
4.50071e-06
-2.21892e-05
1.1161e-05
-3.37981e-05
1.7722e-05
-3.34205e-05
2.40115e-05
-3.18881e-05
3.02929e-05
-3.17006e-05
3.67619e-05
-3.25453e-05
4.35062e-05
-3.38697e-05
5.05644e-05
-3.53848e-05
5.79667e-05
-3.70115e-05
6.57289e-05
-3.86628e-05
7.38637e-05
-4.02582e-05
8.23825e-05
-4.17315e-05
9.12408e-05
-4.27952e-05
0.000100333
-4.29228e-05
0.00010953
-4.15452e-05
0.000118557
-3.78574e-05
0.00012678
-3.03273e-05
0.000133169
-1.63458e-05
0.000135992
8.53637e-06
0.000131396
5.11864e-05
0.000111072
0.000117533
7.17365e-05
0.000197719
0.000245939
4.54704e-06
-2.67363e-05
1.11347e-05
-4.03858e-05
1.75928e-05
-3.98786e-05
2.38066e-05
-3.81018e-05
3.00431e-05
-3.79371e-05
3.64837e-05
-3.89859e-05
4.32071e-05
-4.05931e-05
5.02516e-05
-4.24293e-05
5.76531e-05
-4.4413e-05
6.54367e-05
-4.64463e-05
7.36358e-05
-4.84574e-05
8.22811e-05
-5.03768e-05
9.13416e-05
-5.18557e-05
0.000100779
-5.236e-05
0.000110609
-5.1375e-05
0.00012068
-4.79293e-05
0.00013045
-4.00967e-05
0.000139272
-2.51675e-05
0.000146397
1.41138e-06
0.000147823
4.88971e-05
0.000127591
0.000137618
8.1949e-05
0.000243046
0.000327418
4.6061e-06
-3.13424e-05
1.10997e-05
-4.68794e-05
1.74334e-05
-4.62123e-05
2.35582e-05
-4.42267e-05
2.97409e-05
-4.41197e-05
3.61438e-05
-4.53888e-05
4.2835e-05
-4.72843e-05
4.98533e-05
-4.94476e-05
5.72408e-05
-5.18006e-05
6.50335e-05
-5.4239e-05
7.32871e-05
-5.6711e-05
8.20492e-05
-5.91388e-05
9.13091e-05
-6.11157e-05
0.000101108
-6.21585e-05
0.000111601
-6.18679e-05
0.000122766
-5.90951e-05
0.000134218
-5.15481e-05
0.000145911
-3.68618e-05
0.000158316
-1.09941e-05
0.000164118
3.74825e-05
0.000141793
0.000138255
8.97811e-05
0.000291637
0.00041391
4.67057e-06
-3.60129e-05
1.10396e-05
-5.32485e-05
1.72344e-05
-5.24071e-05
2.32586e-05
-5.02509e-05
2.9374e-05
-5.02351e-05
3.57242e-05
-5.17391e-05
4.23669e-05
-5.3927e-05
4.93426e-05
-5.64233e-05
5.67004e-05
-5.91584e-05
6.44882e-05
-6.20268e-05
7.27818e-05
-6.50046e-05
8.16426e-05
-6.79995e-05
9.10962e-05
-7.05694e-05
0.000101271
-7.23333e-05
0.000112415
-7.30116e-05
0.000124655
-7.13357e-05
0.000137892
-6.47857e-05
0.000152276
-5.12619e-05
0.000167791
-2.65838e-05
0.000153847
2.0418e-05
0.000110319
6.7857e-05
8.13594e-05
0.000258905
0.000487349
-1.14139e-25
2.72294e-25
-4.84988e-26
3.86352e-26
-4.5102e-27
4.05064e-27
-1.12328e-28
-2.55923e-29
-1.9403e-30
-1.49336e-29
-5.5516e-32
-3.70991e-31
-2.06275e-33
-1.26685e-32
-6.87677e-35
-5.53611e-34
-1.90565e-36
-2.11437e-35
-4.49331e-38
-6.5391e-37
-9.09698e-40
-1.68765e-38
-1.56046e-41
-3.65746e-40
-2.20031e-43
-6.71023e-42
-2.4712e-45
-1.00368e-43
-2.04436e-47
-1.26996e-45
-1.13469e-49
-1.20922e-47
-2.30395e-52
-7.204e-50
-3.53573e-53
-1.73563e-52
-3.61048e-53
-1.1397e-23
3.834e-23
-1.10115e-23
2.18785e-23
-1.19495e-24
3.35082e-24
-2.27027e-26
-4.37106e-26
-3.25175e-28
-5.00214e-27
-6.9489e-30
-1.12991e-28
-1.94967e-31
-2.92967e-30
-5.41812e-33
-9.05816e-32
-1.33825e-34
-2.76032e-33
-2.8893e-36
-7.52861e-35
-5.3797e-38
-1.78968e-36
-8.42011e-40
-3.62711e-38
-1.0681e-41
-6.2117e-40
-1.04393e-43
-8.70126e-42
-7.38216e-46
-9.25603e-44
-3.21582e-48
-6.4123e-46
-5.23227e-51
-3.11549e-48
-1.93663e-53
-8.0656e-51
-1.0758e-52
-1.6218e-21
4.27045e-21
-1.41341e-21
3.98572e-21
-1.24887e-22
4.72737e-22
-2.02343e-24
-1.33582e-23
-2.7631e-26
-7.03961e-25
-4.81411e-28
-1.45823e-26
-9.92855e-30
-3.07411e-28
-2.18886e-31
-6.88725e-30
-4.71356e-33
-1.6195e-31
-9.3439e-35
-3.7662e-33
-1.63102e-36
-8.10448e-35
-2.4128e-38
-1.5266e-36
-2.87655e-40
-2.42097e-38
-2.59596e-42
-2.91667e-40
-1.58113e-44
-2.74503e-42
-6.45789e-47
-1.97022e-44
-1.29518e-49
-1.00498e-46
-6.83989e-52
-3.28139e-49
-6.00787e-51
-3.39998e-19
4.3348e-19
-2.03267e-19
8.80438e-19
-9.88358e-21
4.84864e-20
-1.20232e-22
-3.03599e-21
-1.49309e-24
-6.79796e-23
-2.24116e-26
-1.17053e-24
-3.66955e-28
-2.04731e-26
-6.51913e-30
-3.6055e-28
-1.18892e-31
-6.75563e-30
-2.09274e-33
-1.30217e-31
-3.35829e-35
-2.4298e-33
-4.54763e-37
-4.08875e-35
-4.92261e-39
-5.71226e-37
-4.26016e-41
-6.75724e-39
-2.87708e-43
-6.68683e-41
-1.2897e-45
-5.1035e-43
-2.27887e-48
-2.68133e-45
-2.09045e-50
-4.83675e-48
-2.39346e-49
-3.42345e-17
4.72981e-17
-1.62763e-17
7.46885e-17
-5.354e-19
1.1302e-18
-4.86521e-21
-3.26031e-19
-5.22112e-23
-4.18075e-21
-6.97387e-25
-5.59755e-23
-9.95459e-27
-8.54187e-25
-1.50463e-28
-1.31612e-26
-2.3407e-30
-2.10693e-28
-3.57948e-32
-3.43456e-30
-5.07159e-34
-5.42625e-32
-6.32051e-36
-8.06394e-34
-6.93961e-38
-1.10027e-35
-6.3101e-40
-1.34605e-37
-4.31503e-42
-1.35266e-39
-1.78152e-44
-1.03528e-41
-2.01062e-47
-5.16322e-44
-4.12357e-49
-8.49735e-47
-6.46484e-48
-5.45182e-16
1.20274e-15
-2.64713e-16
8.14645e-16
-1.13746e-17
-4.16868e-17
-1.07406e-19
-8.14123e-18
-1.01954e-21
-1.10342e-19
-1.31277e-23
-1.26799e-21
-1.80754e-25
-1.83579e-23
-2.52298e-27
-2.67002e-25
-3.50624e-29
-3.88698e-27
-4.75892e-31
-5.63241e-29
-6.16294e-33
-8.143e-31
-7.59451e-35
-1.1772e-32
-8.28365e-37
-1.65273e-34
-7.39033e-39
-2.06322e-36
-4.58432e-41
-2.11273e-38
-1.7857e-43
-1.58994e-40
-2.29843e-46
-7.72233e-43
-5.52274e-48
-1.50391e-45
-1.29478e-46
-1.82832e-15
6.22863e-15
-9.41284e-16
1.52476e-15
-7.13385e-17
-1.97224e-16
-1.02644e-18
-4.59252e-17
-9.80194e-21
-1.1084e-18
-1.34635e-22
-1.25721e-20
-1.989e-24
-2.25914e-22
-2.77083e-26
-4.0168e-24
-3.6906e-28
-5.99495e-26
-4.76227e-30
-7.99297e-28
-6.04876e-32
-1.03382e-29
-7.22939e-34
-1.35472e-31
-7.61591e-36
-1.71112e-33
-6.0321e-38
-1.96494e-35
-3.43195e-40
-1.85425e-37
-1.17e-42
-1.32321e-39
-1.50311e-45
-6.24301e-42
-4.33535e-47
-1.33281e-44
-2.1454e-45
-2.22637e-15
1.16112e-14
-1.27836e-15
2.08612e-15
-1.61197e-16
-1.62263e-16
-4.21778e-18
-8.63944e-17
-4.79498e-20
-4.00943e-18
-8.05847e-22
-5.25663e-20
-1.4894e-23
-1.62187e-21
-2.42604e-25
-5.6667e-23
-3.5116e-27
-1.52183e-24
-4.53542e-29
-3.43533e-26
-5.51701e-31
-6.62745e-28
-6.01672e-33
-1.08682e-29
-5.1409e-35
-1.48694e-31
-3.34164e-37
-1.57105e-33
-1.34553e-39
-1.20552e-35
-2.18444e-42
-5.68944e-38
2.64718e-46
-8.38116e-41
1.62435e-47
1.40179e-43
1.33475e-44
9.97257e-06
-4.59855e-05
2.32211e-05
-6.6497e-05
3.58395e-05
-6.50255e-05
4.82322e-05
-6.26436e-05
6.09583e-05
-6.29612e-05
7.42214e-05
-6.50021e-05
8.81145e-05
-6.782e-05
0.000102733
-7.10416e-05
0.000118207
-7.46326e-05
0.000134675
-7.84948e-05
0.000152347
-8.26772e-05
0.000171389
-8.7041e-05
0.000192007
-9.11878e-05
0.000214682
-9.50079e-05
0.000239917
-9.82463e-05
0.000268415
-9.98351e-05
0.000301102
-9.74954e-05
0.000328809
-7.94872e-05
0.00025023
-3.16252e-05
7.21275e-05
3.85776e-06
4.97537e-05
9.87455e-06
0.000103186
4.85335e-05
0.000438865
0.000117633
1.00743e-05
-5.60598e-05
2.26229e-05
-7.90455e-05
3.44922e-05
-7.68948e-05
4.63132e-05
-7.44647e-05
5.85855e-05
-7.52335e-05
7.14334e-05
-7.78501e-05
8.49199e-05
-8.13065e-05
9.9154e-05
-8.52757e-05
0.000114298
-8.97767e-05
0.000130532
-9.47286e-05
0.00014811
-0.000100255
0.000167248
-0.000106179
0.000188331
-0.00011227
0.000211912
-0.000118589
0.00023846
-0.000124795
0.000267854
-0.000129239
0.000281449
-0.000111413
0.000141519
-4.92522e-05
9.05202e-06
-6.16201e-06
1.08928e-05
1.06921e-07
1.64535e-05
2.42699e-06
4.41247e-05
1.64597e-05
0.000250121
0.000132051
1.00851e-05
-6.61449e-05
2.18025e-05
-9.0763e-05
3.2818e-05
-8.79102e-05
4.3991e-05
-8.56377e-05
5.57065e-05
-8.6949e-05
6.80013e-05
-9.01448e-05
8.09228e-05
-9.4228e-05
9.45964e-05
-9.89492e-05
0.000109211
-0.000104391
0.000124964
-0.000110482
0.000142128
-0.000117419
0.000160996
-0.000125047
0.000181968
-0.000133243
0.000205315
-0.000141936
0.000231514
-0.000150994
0.000243033
-0.000140899
0.000107134
-7.37159e-05
8.12148e-06
-8.7682e-06
1.70622e-06
-6.18063e-07
1.52691e-06
2.84603e-08
3.11739e-06
4.2413e-07
1.45752e-05
3.77022e-06
2.4773e-05
7.15495e-05
9.968e-06
-7.61129e-05
2.07349e-05
-0.00010153
3.08405e-05
-9.80158e-05
4.12968e-05
-9.6094e-05
5.23429e-05
-9.79951e-05
6.394e-05
-0.000101742
7.61338e-05
-0.000106422
8.90649e-05
-0.00011188
0.00010294
-0.000118266
0.000117942
-0.000125484
0.000134376
-0.000133852
0.000152591
-0.000143262
0.000172673
-0.000153326
0.000194729
-0.000163991
0.000214478
-0.000170752
0.000126922
-0.000123781
9.13144e-06
-1.44925e-05
8.10327e-07
-1.30827e-06
1.12861e-07
4.84676e-09
1.06886e-07
3.90736e-09
3.86943e-07
5.76661e-08
2.94482e-06
8.61893e-07
6.12666e-06
2.03601e-05
9.71338e-06
-8.58263e-05
1.94225e-05
-0.000111239
2.858e-05
-0.000107173
3.82501e-05
-0.000105764
4.85077e-05
-0.000108253
5.92605e-05
-0.000112495
7.05611e-05
-0.000117722
8.25627e-05
-0.000123882
9.54765e-05
-0.00013118
0.000109456
-0.000139463
0.000124909
-0.000149305
0.000142044
-0.000160397
0.000160447
-0.000171728
0.000180097
-0.000183641
0.000161594
-0.00016005
1.43696e-05
-3.0017e-05
1.34494e-06
-2.09796e-06
5.74853e-09
-4.3981e-08
2.41879e-09
1.08039e-09
1.19778e-09
1.16309e-09
3.65622e-08
5.79561e-09
6.67743e-07
1.44438e-07
1.37332e-06
5.07304e-06
9.31689e-06
-9.51431e-05
1.78818e-05
-0.000119804
2.6066e-05
-0.000115357
3.48783e-05
-0.000114576
4.42282e-05
-0.000117603
5.39951e-05
-0.000122262
6.42428e-05
-0.00012797
7.51328e-05
-0.000134772
8.68615e-05
-0.000142909
9.95721e-05
-0.000152174
0.000113831
-0.000163564
0.00012938
-0.000175946
0.000145854
-0.000188202
0.000152724
-0.000190518
3.24603e-05
-9.27824e-05
2.00691e-06
-4.49363e-06
5.28309e-08
-2.30713e-07
-2.41389e-10
2.77054e-09
-8.09894e-10
7.65883e-10
-5.77015e-10
2.37155e-10
1.65671e-10
1.36227e-09
1.14637e-07
1.36125e-08
1.95093e-07
1.20505e-06
8.77228e-06
-0.000103915
1.61399e-05
-0.000127172
2.3338e-05
-0.000122556
3.12211e-05
-0.00012246
3.95524e-05
-0.000125934
4.82067e-05
-0.000130916
5.72587e-05
-0.000137022
6.68712e-05
-0.000144384
7.72009e-05
-0.000153238
8.84348e-05
-0.000163408
0.000101107
-0.000176235
0.000114377
-0.000189216
0.000128252
-0.000202073
9.45765e-05
-0.000168283
4.14484e-06
-1.5095e-05
2.42453e-07
-7.19244e-07
-1.2748e-09
3.86275e-09
-7.5532e-10
1.19107e-09
-1.8119e-10
9.7317e-11
-1.07991e-10
4.1703e-11
7.78446e-11
3.07999e-10
3.0713e-09
3.20829e-09
2.33986e-08
1.54344e-07
8.09308e-06
-0.000112008
1.42416e-05
-0.00013332
2.04523e-05
-0.000128766
2.73438e-05
-0.000129351
3.45674e-05
-0.000133158
4.20102e-05
-0.000138359
4.97498e-05
-0.000144762
5.79291e-05
-0.000152564
6.66387e-05
-0.000161948
7.61225e-05
-0.00017289
8.63995e-05
-0.00018651
9.67765e-05
-0.000199585
0.000102739
-0.000207975
1.30912e-05
-7.82782e-05
6.5615e-07
-2.16904e-06
-1.57306e-09
-6.37565e-08
-1.01555e-09
2.439e-09
-1.016e-10
1.46148e-10
-2.4115e-11
9.79445e-12
-1.04623e-11
6.5511e-12
6.02439e-11
6.3404e-11
7.21208e-10
7.59916e-10
4.18695e-09
1.15968e-08
7.31548e-06
-0.000119324
1.22632e-05
-0.000138267
1.7504e-05
-0.000134007
2.3366e-05
-0.000135213
2.94301e-05
-0.000139221
3.55954e-05
-0.000144523
4.19122e-05
-0.000151078
4.84449e-05
-0.000159095
5.51667e-05
-0.000168665
6.22179e-05
-0.000179931
6.88397e-05
-0.000193109
7.59861e-05
-0.00020667
6.16237e-05
-0.000196818
1.84749e-06
-1.59641e-05
6.18547e-08
-3.92514e-07
-2.32324e-09
4.88515e-10
-1.36265e-10
1.70984e-10
-1.03827e-11
1.02196e-11
-2.66085e-12
9.98516e-13
-4.28121e-13
9.97746e-13
2.53747e-11
9.42879e-12
2.0605e-10
7.94839e-11
8.205e-10
8.42697e-10
6.50049e-06
-0.000125823
1.02904e-05
-0.000142054
1.45915e-05
-0.000138305
1.94054e-05
-0.000140023
2.42621e-05
-0.000144073
2.90466e-05
-0.000149301
3.37183e-05
-0.00015574
3.82059e-05
-0.000163566
4.23074e-05
-0.000172726
4.59259e-05
-0.00018346
4.82233e-05
-0.000195232
5.02628e-05
-0.000208248
1.2923e-05
-0.000145028
3.19804e-07
-2.65308e-06
-3.72881e-10
-7.2068e-08
-1.38449e-10
2.6665e-10
-8.55512e-12
3.52391e-11
-8.40379e-13
1.73107e-12
-2.55932e-13
2.46253e-13
7.18294e-15
2.90265e-13
3.11711e-12
1.0015e-12
1.97885e-11
5.86326e-12
1.24177e-10
2.45978e-10
5.67526e-06
-0.000131479
8.28631e-06
-0.000144634
1.16285e-05
-0.000141616
1.5313e-05
-0.000143671
1.88092e-05
-0.000147523
2.19534e-05
-0.000152385
2.45783e-05
-0.000158284
2.65933e-05
-0.000165437
2.7865e-05
-0.000173654
2.89066e-05
-0.000183774
3.04747e-05
-0.000192107
3.04279e-05
-0.000164892
-3.08719e-07
-6.18763e-05
1.15498e-08
-3.03284e-06
1.40946e-10
-6.19097e-08
-7.42121e-12
4.16554e-10
-4.00867e-13
2.7433e-11
-1.30743e-13
1.73539e-12
-4.00514e-14
5.35739e-13
-1.58525e-14
1.99257e-13
2.03078e-13
8.85804e-14
2.97133e-13
1.25762e-12
1.56984e-11
5.6161e-11
4.69292e-06
-0.000135967
5.94201e-06
-0.000145576
8.19457e-06
-0.000143559
1.05657e-05
-0.000145677
1.2525e-05
-0.000149033
1.39863e-05
-0.000153278
1.4832e-05
-0.000155963
1.52258e-05
-0.000146714
1.53257e-05
-0.000123971
1.49722e-05
-8.79951e-05
1.39661e-05
-4.77667e-05
6.69398e-06
-3.35337e-06
-3.62661e-07
-2.58816e-07
-1.99621e-07
-4.48043e-06
8.7437e-09
-2.80805e-07
5.08074e-10
8.03747e-09
5.21281e-12
5.26317e-10
-1.49413e-14
7.37549e-12
-1.05377e-14
5.86609e-13
-5.7031e-15
1.88306e-13
5.42341e-15
8.77035e-14
3.61755e-13
1.99496e-13
1.81809e-12
8.06611e-12
3.16711e-06
-9.13627e-05
2.91729e-06
-8.44641e-05
3.96838e-06
-8.11394e-05
4.8723e-06
-7.38439e-05
5.30344e-06
-6.41352e-05
5.41856e-06
-5.21415e-05
5.46785e-06
-3.77729e-05
5.20733e-06
-9.27473e-07
4.51672e-06
-3.45528e-08
2.65932e-06
-1.97675e-09
3.60909e-06
-1.06507e-10
2.59027e-07
-2.2766e-09
1.42962e-08
-5.6238e-10
1.2421e-06
-2.09294e-06
3.8686e-08
-1.45701e-06
5.75806e-09
3.74581e-08
1.47223e-10
6.03513e-09
4.69071e-13
1.53179e-10
-1.03881e-15
1.21143e-12
-1.98659e-15
1.38791e-13
-1.06783e-16
5.7061e-14
4.82629e-14
3.29874e-14
2.24227e-13
8.40239e-13
5.54043e-07
-1.06521e-25
2.93679e-07
6.50256e-25
4.8203e-07
-5.97676e-23
5.97627e-07
-6.96048e-21
6.28785e-07
-3.25079e-19
5.07165e-07
-1.60535e-17
9.64065e-07
-3.35169e-16
3.65923e-08
-1.66342e-14
2.04017e-09
-6.80683e-13
7.87077e-11
-1.70694e-11
5.03379e-11
-8.47503e-11
2.25857e-10
-1.38265e-09
1.88284e-09
-1.18558e-09
5.8712e-07
-3.79937e-09
6.48281e-07
-1.33784e-06
6.88488e-09
1.14105e-07
1.39555e-10
1.26924e-08
9.61726e-13
2.91844e-10
-9.83608e-15
2.26721e-12
-1.97987e-15
6.21084e-14
-6.28303e-16
2.27491e-14
1.72745e-15
1.13722e-14
3.53163e-14
6.15776e-14
1.20949e-28
-1.06642e-25
-2.14935e-26
3.25355e-24
3.84483e-25
-6.01736e-23
7.61755e-23
-7.04277e-21
5.6347e-21
-3.31453e-19
2.27282e-19
-1.63178e-17
2.24199e-17
-3.59537e-16
7.90969e-16
-1.74834e-14
4.01679e-14
-7.21424e-13
2.86368e-12
-1.99628e-11
1.30724e-10
-2.14386e-10
6.22394e-10
-1.93434e-09
1.08265e-09
-1.5004e-09
1.33951e-09
-4.89817e-09
2.18192e-07
-1.64529e-06
3.80633e-09
1.64219e-07
-1.65236e-10
1.67733e-08
-2.20167e-12
1.28898e-10
-1.85326e-14
3.21233e-13
-1.73125e-15
1.50829e-14
-5.69375e-16
6.71447e-15
-4.17707e-16
2.5817e-15
7.41237e-15
1.97064e-15
1.28279e-27
1.46688e-26
-1.35292e-25
1.41243e-23
7.12907e-24
-1.87887e-22
1.08361e-21
-2.06374e-20
6.35485e-20
-8.98896e-19
3.8464e-18
-4.27885e-17
2.29287e-16
-1.63029e-15
2.49481e-14
-4.29093e-14
1.0025e-12
-1.71206e-12
2.92569e-11
-4.83663e-11
8.15507e-10
-1.38229e-09
3.62047e-09
-5.07617e-09
7.17076e-09
-6.42354e-09
4.51154e-08
-2.74198e-08
4.57868e-08
-4.05373e-07
-1.40671e-08
1.24502e-07
-1.07621e-10
2.8299e-09
-2.75623e-13
2.12498e-11
-5.35864e-15
4.65289e-14
-8.30277e-16
1.35146e-15
-2.07698e-16
1.57419e-15
-2.42596e-16
4.14139e-16
1.27783e-15
-8.19007e-16
-1.32835e-28
1.7075e-24
-2.78248e-25
5.35378e-23
1.89623e-23
-4.87582e-22
3.14094e-21
-7.51331e-20
2.0714e-19
-4.69653e-18
1.23226e-17
-2.24784e-16
1.10173e-15
-7.17134e-15
9.34459e-14
-2.1568e-13
3.51849e-12
-7.97645e-12
1.61011e-10
-2.14627e-10
2.77426e-09
-5.95426e-09
6.63112e-09
-1.00131e-07
3.41393e-09
-1.77781e-07
-2.51971e-08
-7.13135e-08
-8.83678e-08
-1.79646e-09
-2.43183e-09
4.80113e-08
-1.85042e-11
4.18737e-10
-4.03356e-14
2.7886e-12
-6.22569e-16
5.42788e-15
-2.61932e-16
1.71755e-16
-5.45261e-17
3.16348e-16
-6.23392e-17
5.96838e-17
1.36728e-16
-2.40441e-16
2.42985e-25
7.51564e-24
-5.65251e-24
1.83821e-22
-3.13308e-23
-5.60259e-22
-5.17453e-21
-1.25712e-19
-5.05155e-19
-8.8474e-18
-1.84629e-17
-3.57885e-16
6.10292e-15
-1.73149e-14
4.75177e-13
-7.38073e-13
1.50967e-11
-2.41389e-11
4.58359e-10
-5.55951e-10
-5.82898e-10
-8.13429e-09
-9.7101e-08
-1.52414e-07
-1.14009e-07
-1.45084e-07
-1.27808e-07
-4.28642e-08
-4.33333e-08
4.62174e-09
-3.79903e-10
5.07086e-09
-2.53587e-12
4.16592e-11
-5.06077e-15
2.53197e-13
-8.04812e-17
4.79004e-16
-7.48042e-17
4.4428e-17
-1.09963e-17
5.90729e-17
-1.109e-17
7.41267e-18
1.20095e-17
-3.59592e-17
3.12137e-24
2.17189e-23
-3.65905e-23
5.85582e-22
-3.3751e-22
5.65295e-23
-3.77979e-20
-9.80088e-20
-1.64118e-18
-6.44482e-18
5.92792e-17
-2.31777e-16
-1.05256e-14
-7.06468e-15
-5.5298e-13
-2.09546e-13
-2.04258e-11
-4.76685e-12
-5.08196e-10
-7.96167e-11
-7.5435e-09
-1.12171e-09
-1.41009e-07
-2.74485e-08
-2.2628e-07
-4.4825e-08
-1.28407e-07
-6.20664e-09
-4.78018e-09
2.37088e-09
-3.82587e-11
3.3036e-10
-2.32794e-13
3.66972e-12
-4.61765e-16
2.07719e-14
-2.14012e-17
3.3235e-17
-1.93118e-17
1.64862e-17
-1.7587e-18
1.2205e-17
-1.5863e-18
7.88079e-19
9.55891e-19
-3.91317e-18
1.62304e-23
4.7239e-23
3.21203e-24
1.5709e-21
-1.4193e-20
1.47328e-20
-3.12165e-20
-9.5286e-20
-2.19133e-18
-7.09613e-18
-1.0096e-16
-2.96228e-16
2.47156e-15
-1.8844e-14
1.48114e-13
-2.85386e-13
-2.43003e-12
-9.75085e-13
-8.1699e-11
-1.74852e-13
-6.87732e-10
-2.40493e-13
-1.28414e-08
-3.02075e-12
-2.03934e-08
-1.77264e-11
-2.77158e-09
-7.48473e-11
-3.21546e-10
7.14248e-11
-3.41898e-12
1.23985e-11
-1.90375e-14
2.71922e-13
-3.70875e-17
1.49923e-15
-1.07695e-17
4.1858e-18
-7.27095e-18
7.93495e-18
-2.37457e-19
3.09183e-18
-1.83276e-19
7.0421e-20
6.63498e-20
-3.49305e-19
5.87228e-23
7.02257e-23
1.12776e-21
2.7642e-21
-2.01718e-20
4.77618e-20
-5.84922e-19
4.69465e-19
-1.04364e-17
2.75536e-18
-4.91756e-16
9.00063e-18
-6.54835e-14
1.05412e-17
-8.27804e-14
-1.75614e-16
-1.31163e-14
-1.58479e-15
-3.48865e-14
-6.37158e-15
-2.52599e-13
-3.26291e-14
-2.86787e-12
-4.04493e-13
-1.80251e-11
-1.71453e-12
-8.63656e-11
-9.03542e-13
-1.24061e-11
1.20616e-12
-2.67457e-13
2.7398e-13
-1.47096e-15
6.05907e-15
-5.00045e-18
2.3349e-17
-6.10994e-18
2.44312e-18
-2.81616e-18
3.63212e-18
-2.57589e-20
8.28318e-19
-1.70692e-20
4.9492e-21
3.99518e-21
-2.63947e-20
1.25931e-22
5.56355e-23
4.43907e-21
2.17008e-21
6.70766e-20
3.72105e-20
5.43841e-19
3.63099e-19
2.32897e-18
2.12445e-18
3.48196e-18
6.88833e-18
-8.19539e-18
6.02505e-18
-1.40404e-16
-4.34059e-17
-1.17332e-15
-5.64438e-16
-5.85857e-15
-2.04486e-15
-4.06033e-14
-2.85061e-15
-7.36038e-13
-3.68719e-15
-3.696e-12
-3.59132e-15
-1.5077e-12
-3.77038e-15
-2.74943e-13
3.39821e-15
-6.00438e-15
5.71901e-15
-2.41902e-17
8.99411e-17
-1.8402e-18
1.20923e-18
-2.47185e-18
1.24993e-18
-7.91741e-19
8.94022e-19
-2.05278e-21
1.37316e-19
-1.28899e-21
2.60038e-22
2.08616e-22
-1.71251e-21
1.13221e-22
1.98384e-23
3.95147e-21
7.74197e-22
5.92355e-20
1.32902e-20
4.77982e-19
1.29185e-19
2.0277e-18
7.38e-19
2.25854e-18
2.09532e-18
-2.0517e-17
-1.53655e-18
-8.68783e-17
-2.68165e-17
-1.43166e-15
-5.93389e-16
-3.28782e-15
-3.43656e-15
-2.36882e-15
-6.01181e-15
-1.84648e-15
-4.56905e-15
-1.76778e-15
-1.66784e-15
-9.24958e-15
-2.63344e-16
-5.79967e-15
-8.5401e-18
-8.68752e-17
2.9643e-17
-8.27724e-19
4.30368e-18
2.32684e-19
1.46808e-19
-4.32254e-19
-1.17973e-19
-1.00264e-19
5.57191e-20
-1.20124e-22
7.14704e-21
-7.63433e-23
1.06972e-23
9.45227e-24
-9.61619e-23
4.43928e-23
1.1836e-28
1.54978e-21
-1.1548e-27
2.31351e-20
-1.12301e-25
1.82118e-19
-7.14795e-24
6.75558e-19
-3.32072e-22
-6.29658e-19
-1.19184e-20
-4.89794e-18
-5.85504e-19
-7.36066e-17
-7.16861e-18
-1.5483e-15
-2.04527e-16
-6.0308e-15
-2.13331e-15
-8.21066e-15
-5.06197e-15
-6.26045e-15
-5.23977e-15
-1.8087e-15
-3.66743e-15
-9.59078e-17
-1.46133e-15
-2.86262e-17
-5.32927e-17
-1.50481e-18
2.70708e-18
2.63986e-18
1.59011e-19
1.66459e-18
-8.27761e-19
-2.67177e-20
-7.25769e-19
-4.46233e-21
9.09982e-22
-5.4207e-24
1.35557e-22
-3.86139e-24
3.76128e-25
3.70657e-25
-4.70203e-24
-7.05567e-29
-7.62544e-33
-1.22247e-27
-2.89033e-30
-1.13236e-25
-2.86821e-28
-7.24249e-24
-1.87051e-26
-3.38418e-22
-8.95736e-25
-1.22234e-20
-3.33997e-23
-5.82688e-19
-9.98806e-22
-8.63099e-18
-1.25933e-20
-3.77113e-16
-3.05795e-19
-3.66484e-15
-7.52176e-18
-8.24908e-15
-6.05472e-17
-8.96746e-15
-1.5082e-16
-6.57348e-15
-7.79914e-17
-1.57256e-15
-4.17419e-17
-7.13039e-19
-2.71571e-18
1.99124e-18
2.80367e-21
2.67774e-18
-2.83352e-19
1.46156e-18
-6.89088e-19
-9.03183e-22
-5.47436e-19
-1.20712e-22
2.09948e-23
-2.05225e-25
5.27599e-24
-1.66857e-25
1.14903e-26
1.25883e-26
-2.00868e-25
-7.56166e-33
-6.37779e-35
-2.88965e-30
-1.3303e-32
-2.88807e-28
-1.37591e-30
-1.8931e-26
-9.37432e-29
-9.11455e-25
-4.71e-27
-3.41832e-23
-1.85319e-25
-1.02892e-21
-5.89125e-24
-1.35892e-20
-8.18495e-23
-4.33174e-19
-2.14359e-21
-1.15592e-17
-5.34643e-20
-7.963e-17
-4.42039e-19
-1.79389e-16
-1.17655e-18
-1.18969e-16
-1.38893e-18
-2.35707e-17
-9.4037e-19
2.20077e-19
-2.00837e-19
9.15348e-19
-2.43197e-21
1.18128e-18
-8.82587e-20
6.37971e-19
-2.45623e-19
-2.45013e-23
-2.04648e-19
-5.10389e-24
4.18047e-25
-9.04173e-27
1.32663e-25
-6.04269e-27
3.0394e-28
3.7067e-28
-7.47677e-27
-6.37644e-35
-2.56879e-38
-1.33637e-32
-5.66754e-36
-1.38893e-30
-6.19548e-34
-9.51026e-29
-4.47914e-32
-4.80332e-27
-2.39858e-30
-1.90037e-25
-1.01141e-28
-6.07896e-24
-3.47118e-27
-8.57317e-23
-5.22095e-26
-3.30286e-21
-1.30018e-24
-8.92912e-20
-3.20869e-23
-5.81771e-19
-7.59336e-22
-1.32905e-18
-7.04842e-21
-1.55587e-18
-2.0161e-20
-1.02634e-18
-2.29288e-20
-2.79772e-19
-1.36685e-20
1.21968e-19
-5.93955e-22
2.86247e-19
-6.42968e-21
1.60556e-19
-4.65204e-20
-5.42958e-25
-4.37937e-20
-1.29441e-25
5.37637e-27
-2.69632e-28
1.89848e-27
-1.8365e-28
7.10621e-30
9.56411e-30
-2.44155e-28
-2.57455e-38
-1.93305e-41
-5.69048e-36
-5.9705e-39
-6.23376e-34
-7.21122e-37
-4.52323e-32
-5.80621e-35
-2.43146e-30
-3.46259e-33
-1.02958e-28
-1.62778e-31
-2.69696e-27
-4.75582e-30
-5.67256e-26
-1.16082e-28
-1.37201e-24
-3.11869e-27
-5.17831e-23
-7.97379e-26
-1.63491e-21
-2.3012e-24
-1.32961e-20
-3.1375e-23
-3.25312e-20
-1.12745e-22
-3.51654e-20
-1.31978e-22
-1.74322e-20
-3.11896e-23
1.81013e-20
4.14116e-23
3.95283e-20
-1.97179e-22
2.46509e-20
-4.75306e-21
-1.17989e-26
-5.64402e-21
-1.81225e-27
1.70851e-28
-4.98943e-30
3.37655e-29
-4.88426e-30
1.52205e-31
2.14504e-31
-6.97849e-30
-6.86494e-41
2.22594e-42
-5.65732e-39
1.63082e-41
-6.839e-37
-3.89978e-40
-5.54525e-35
-3.30509e-38
-3.33042e-33
-2.07731e-36
-1.57673e-31
-1.03517e-34
-5.87485e-30
-4.19163e-33
-1.22015e-28
-1.18569e-31
-3.25446e-27
-3.5173e-30
-1.14175e-25
-1.03242e-28
-5.60816e-24
-3.89662e-27
-6.82657e-23
-3.81257e-26
-1.70092e-22
-4.84481e-26
-1.49408e-22
1.33543e-25
3.68558e-22
7.25944e-25
1.28934e-21
1.74845e-24
3.03321e-21
1.26403e-24
2.36148e-21
-2.4123e-22
-2.63404e-28
-4.44417e-22
-3.20176e-29
3.10439e-30
-1.18689e-31
4.98472e-31
-1.14832e-31
3.19712e-33
4.23168e-33
-1.75132e-31
1.04444e-42
1.07235e-47
-4.13434e-41
2.81935e-45
-4.31682e-40
3.60911e-43
-3.3513e-38
3.04135e-41
-2.11272e-36
1.89469e-39
-1.05723e-34
9.28846e-38
-4.30108e-33
3.72294e-36
-1.22995e-31
1.25077e-34
-3.65044e-30
3.57856e-33
-2.13925e-28
8.78231e-32
-1.61073e-26
1.73725e-30
-4.06571e-26
2.48119e-29
3.06822e-25
2.37694e-28
2.48763e-24
1.54795e-27
1.10159e-23
7.03394e-27
3.84838e-23
2.22517e-26
1.20119e-22
3.86404e-26
1.40924e-22
-4.82209e-24
-5.87665e-30
-2.11183e-23
-4.71423e-31
6.65423e-32
-2.92502e-33
2.84524e-33
-2.45308e-33
7.14569e-35
7.44469e-35
-3.87281e-33
1.75289e-46
3.89817e-49
4.56297e-44
8.58295e-47
5.89116e-42
9.31288e-45
5.03223e-40
6.67973e-43
3.19632e-38
3.52716e-41
1.6078e-36
1.44934e-39
6.65855e-35
4.78341e-38
2.3283e-33
1.29142e-36
6.97569e-32
2.8774e-35
1.69463e-30
5.29335e-34
3.01342e-29
7.97265e-33
3.68081e-28
9.65751e-32
3.18081e-27
9.18176e-31
2.05934e-26
6.74842e-30
1.07646e-25
3.82665e-29
4.91044e-25
1.65217e-28
2.13777e-24
4.76616e-28
5.10817e-24
-2.0376e-27
-1.48791e-31
-5.77194e-25
-6.3194e-33
1.46038e-33
-7.79285e-35
3.87677e-35
-5.12613e-35
1.80477e-36
1.19233e-36
-7.5687e-35
5.11192e-48
1.11524e-49
1.12838e-45
1.81621e-47
1.23925e-43
1.40215e-45
8.9652e-42
6.95276e-44
4.7664e-40
2.48713e-42
1.97024e-38
6.83652e-41
6.53842e-37
1.50184e-39
1.77355e-35
2.70802e-38
3.9619e-34
4.08566e-37
7.27448e-33
5.23206e-36
1.0859e-31
5.74864e-35
1.29743e-30
5.46181e-34
1.23855e-29
4.50802e-33
9.65864e-29
3.23207e-32
6.40856e-28
1.99572e-31
3.77308e-27
1.03222e-30
2.04477e-26
4.08336e-30
1.05348e-25
6.87315e-30
-2.88357e-33
-8.08739e-27
-1.12876e-34
1.55588e-35
-2.69668e-36
1.11409e-36
-8.97372e-37
4.68203e-38
1.81225e-38
-1.31564e-36
1.0215e-48
1.20547e-53
1.60604e-46
2.35356e-51
1.21907e-44
2.17177e-49
5.97017e-43
1.28503e-47
2.12057e-41
5.47718e-46
5.82326e-40
1.79105e-44
1.28721e-38
4.67173e-43
2.35572e-37
9.97661e-42
3.6454e-36
1.77653e-40
4.85079e-35
2.6727e-39
5.62919e-34
3.42933e-38
5.76781e-33
3.77722e-37
5.27701e-32
3.58568e-36
4.35779e-31
2.9391e-35
3.28698e-30
2.0817e-34
2.30353e-29
1.27631e-33
1.54845e-28
6.738e-33
1.05979e-27
2.5608e-32
-3.32546e-35
-4.28993e-29
-1.96731e-36
9.16632e-38
-7.50677e-38
1.14845e-38
-1.46027e-38
9.70494e-40
2.76553e-40
-2.05228e-38
1.23144e-52
-7.08953e-66
2.31673e-50
-3.29089e-63
2.09818e-48
-7.44327e-61
1.22353e-46
-1.11795e-58
5.16382e-45
-1.2575e-56
1.68063e-43
-1.13256e-54
4.38872e-42
-8.52778e-53
9.44772e-41
-5.53514e-51
1.70999e-39
-3.16977e-49
2.64177e-38
-1.62901e-47
3.52666e-37
-7.60557e-46
4.11291e-36
-3.26663e-44
4.23934e-35
-1.30332e-42
3.92681e-34
-4.82515e-41
3.37593e-33
-1.28166e-39
2.88571e-32
-9.4041e-39
2.75282e-31
1.26809e-38
3.19395e-30
6.58367e-37
-2.79044e-37
-9.7813e-33
-3.07466e-38
5.14983e-40
-1.60469e-39
1.46891e-40
-2.39724e-40
1.69616e-41
4.59092e-42
-2.9332e-40
-7.08952e-66
-7.86726e-72
-3.29797e-63
-4.27424e-69
-7.47624e-61
-1.13205e-66
-1.12543e-58
-1.99164e-64
-1.26875e-56
-2.62645e-62
-1.14525e-54
-2.77667e-60
-8.64228e-53
-2.45784e-58
-5.62155e-51
-1.87869e-56
-3.25629e-49
-1.20748e-54
-1.70393e-47
-6.40165e-53
-8.12148e-46
-3.09691e-51
-3.57972e-44
-1.38047e-49
-1.6985e-42
-5.3309e-48
-2.42034e-40
-2.45401e-46
-2.07261e-38
-1.20023e-44
4.25488e-38
-3.44946e-43
4.48361e-36
-4.51168e-42
2.07859e-34
-1.02896e-41
-1.95339e-39
-2.54553e-42
-3.89194e-40
2.46134e-42
-3.01137e-41
1.62167e-42
-4.21823e-42
2.9143e-43
8.55914e-44
-3.99487e-42
-7.86694e-72
-5.74493e-76
-4.2819e-69
-3.7242e-73
-1.13626e-66
-1.17682e-70
-2.00286e-64
-2.47036e-68
-2.64627e-62
-3.88937e-66
-2.80288e-60
-4.91321e-64
-2.48561e-58
-5.20229e-62
-1.90332e-56
-4.76259e-60
-1.22637e-54
-3.67403e-58
-6.52375e-53
-2.34345e-56
-3.16213e-51
-1.36404e-54
-1.41232e-49
-7.32711e-53
-5.48075e-48
-3.42557e-51
-2.90957e-46
-1.88158e-49
-3.30051e-44
-1.06791e-47
-3.1951e-42
-7.09808e-46
-4.05321e-41
-1.78813e-44
-5.88076e-41
-6.57188e-44
-1.04056e-41
-1.73511e-44
-4.39182e-42
7.44766e-45
-5.10958e-43
1.91838e-44
-7.75942e-44
4.71377e-45
1.67983e-45
-5.53318e-44
-5.74491e-76
-3.34661e-81
-3.72993e-73
-2.67303e-78
-1.18054e-70
-1.03889e-75
-2.48214e-68
-2.68167e-73
-3.91412e-66
-5.19502e-71
-4.95223e-64
-8.08266e-69
-5.25164e-62
-1.05531e-66
-4.81489e-60
-1.19291e-64
-3.72198e-58
-1.13866e-62
-2.38051e-56
-9.00771e-61
-1.38775e-54
-6.50562e-59
-7.46554e-53
-4.34191e-57