/*--------------------------------*- C++ -*----------------------------------*\
| =========                 |                                                 |
| \\      /  F ield         | OpenFOAM: The Open Source CFD Toolbox           |
|  \\    /   O peration     | Version:  2206                                  |
|   \\  /    A nd           | Website:  www.openfoam.com                      |
|    \\/     M anipulation  |                                                 |
\*---------------------------------------------------------------------------*/
FoamFile
{
    version     2.0;
    format      ascii;
    arch        "LSB;label=32;scalar=64";
    class       volScalarField;
    location    "0.15";
    object      alpha.water;
}
// * * * * * * * * * * * * * * * * * * * * * * * * * * * * * * * * * * * * * //

dimensions      [0 0 0 0 0 0 0];

internalField   nonuniform List<scalar> 
2268
(
0.999999
1
1
1
1
1
1
1
1
1
1
1
1
1
1
1
1
1
0.999985
0.999951
0.999949
0.964225
0.681201
0.999999
1
1
1
1
1
1
1
1
1
1
1
1
1
1
1
1
1
0.999998
0.999887
0.999948
0.999933
0.720235
1
1
1
1
1
1
1
1
1
1
1
1
1
1
1
1
1
1
1
0.999989
0.999979
0.999971
0.732907
1
1
1
1
1
1
1
1
1
1
1
1
1
1
1
1
1
1
1
1
0.999999
0.999995
0.774389
1
1
1
1
1
1
1
1
1
1
1
1
1
1
1
1
1
1
1
1
0.999952
0.999973
0.939775
1
1
1
1
1
1
1
1
1
1
1
1
1
1
1
1
1
1
1
0.998322
0.999471
0.999674
0.999624
1
1
1
1
1
1
1
1
1
1
1
1
1
1
1
1
1
0.999999
1
0.984591
0.987433
0.997528
0.994512
1
1
1
1
1
1
1
1
1
1
1
1
1
1
1
1
0.999995
0.99997
0.999951
0.924693
0.773563
0.945848
0.986961
3.99586e-20
1.05309e-20
2.70329e-21
1.94098e-22
3.82105e-24
6.6408e-26
2.34338e-27
1.11402e-28
4.67433e-30
1.63397e-31
4.92014e-33
1.29126e-34
2.90366e-36
5.44561e-38
8.23421e-40
9.52627e-42
7.71743e-44
3.26074e-46
1.55848e-46
1.3548e-18
1.52036e-18
6.39855e-19
4.94782e-20
7.88844e-22
1.13975e-23
3.00085e-25
1.12485e-26
4.13481e-28
1.35065e-29
3.90318e-31
9.88727e-33
2.1434e-34
3.84952e-36
5.47991e-38
5.75814e-40
3.86691e-42
1.0562e-44
1.55966e-46
9.20862e-17
1.83395e-16
7.1525e-17
4.57233e-18
6.61387e-20
9.62375e-22
2.05647e-23
5.61034e-25
1.65234e-26
4.74638e-28
1.26451e-29
3.00635e-31
6.14359e-33
1.03428e-34
1.34944e-36
1.2159e-38
7.65314e-41
2.54367e-43
5.35718e-45
6.15369e-15
2.98878e-14
7.9755e-15
3.10492e-16
3.75722e-18
5.3268e-20
9.8579e-22
2.10356e-23
4.9864e-25
1.22872e-26
2.9404e-28
6.44216e-30
1.22273e-31
1.88186e-33
2.3748e-35
2.40243e-37
1.6517e-39
5.07119e-42
1.83136e-43
4.64202e-13
2.211e-12
5.02617e-13
1.53708e-14
1.52995e-16
1.97124e-18
3.26897e-20
6.01846e-22
1.20982e-23
2.55493e-25
5.37454e-27
1.0592e-28
1.86796e-30
2.97418e-32
4.02857e-34
4.14761e-36
2.79123e-38
5.60921e-41
4.44762e-42
9.08103e-12
2.65894e-11
6.90527e-12
3.02724e-13
3.39651e-15
4.03648e-17
6.57635e-19
1.17493e-20
2.1869e-22
4.15378e-24
7.81092e-26
1.43988e-27
2.57921e-29
4.19909e-31
5.66109e-33
5.74467e-35
3.76512e-37
9.05518e-40
8.31307e-41
5.58338e-11
7.43279e-11
2.30731e-11
1.79224e-12
3.16417e-14
3.95206e-16
7.11509e-18
1.37961e-19
2.60684e-21
4.80905e-23
8.82063e-25
1.63943e-26
2.96922e-28
4.81604e-30
6.43437e-32
6.4536e-34
4.15592e-36
1.11666e-38
1.25037e-39
5.64952e-11
8.34948e-11
3.07067e-11
3.89278e-12
1.25717e-13
1.90443e-15
4.47246e-17
1.14653e-18
2.60527e-20
5.2795e-22
1.00136e-23
1.8346e-25
3.1432e-27
4.77377e-29
6.02784e-31
5.80485e-33
3.60916e-35
9.93825e-38
1.5306e-38
1
1
1
1
1
1
1
1
1
1
1
1
1
1
1
0.999999
0.999944
0.99939
0.902001
0.511843
0.0944122
0.266796
0.943337
1
1
1
1
1
1
1
1
1
1
1
1
1
1
0.999999
0.999977
0.999141
0.772883
0.188923
0.00504327
0.00487321
0.0125196
0.819588
1
1
1
1
1
1
1
1
1
1
1
1
1
1
0.999994
0.999679
0.74477
0.110731
0.00303983
0.000676166
0.00100363
0.00352691
0.304599
1
1
1
1
1
1
1
1
1
1
1
1
1
1
0.999913
0.863046
0.155154
0.00303806
0.00034444
8.10746e-05
0.000197757
0.000928356
0.00352214
1
1
1
1
1
1
1
1
1
1
1
1
1
0.999991
0.999152
0.304587
0.00347452
0.000344781
3.33391e-05
1.15575e-05
3.77424e-05
0.000197413
0.000925103
1
1
1
1
1
1
1
1
1
1
1
1
0.999997
0.999935
0.572367
0.0150289
0.000363257
2.99512e-05
4.49222e-06
1.78937e-06
8.2192e-06
3.75772e-05
0.000213084
1
1
1
1
1
1
1
1
1
1
0.999999
0.999997
0.999981
0.954223
0.154694
0.000875956
3.26878e-05
3.82662e-06
4.38319e-07
2.95465e-07
1.86716e-06
2.19102e-05
5.19635e-05
1
1
1
1
1
1
1
0.999999
0.999999
0.999996
0.999992
0.999977
0.999822
0.439713
0.00191172
5.10616e-05
3.27094e-06
3.43987e-07
5.22862e-08
4.82229e-08
3.97438e-07
6.24316e-06
1.9868e-05
1
0.999999
0.999999
0.999999
0.999998
0.999998
0.999996
0.999994
0.999987
0.999969
0.999926
0.999822
0.979867
0.120482
0.000228629
3.66369e-06
3.42272e-07
4.17307e-08
9.10197e-09
8.15811e-09
6.45259e-08
1.15647e-06
5.1624e-06
0.999995
0.99999
0.99999
0.999988
0.999984
0.999977
0.999965
0.999942
0.999884
0.999736
0.999424
0.99866
0.622781
0.01468
8.1773e-06
3.54248e-07
3.78543e-08
7.95332e-09
4.43871e-09
2.21638e-09
1.03328e-08
9.84971e-08
7.48448e-07
0.999942
0.999902
0.999902
0.99988
0.999841
0.999777
0.999674
0.999482
0.999014
0.997852
0.993026
0.945108
0.323103
0.0022846
1.34544e-06
3.74217e-08
7.36743e-09
4.32583e-09
3.73527e-09
1.36439e-09
1.87824e-09
8.34853e-09
8.55176e-08
0.999363
0.999043
0.999023
0.998814
0.998461
0.997911
0.995181
0.977314
0.921195
0.786539
0.572277
0.301762
0.0736539
0.0140703
3.1947e-05
8.55578e-07
1.14953e-08
2.38729e-09
3.41669e-09
1.24129e-09
6.91526e-10
1.45412e-09
1.08802e-08
0.906382
0.866815
0.856362
0.820703
0.765748
0.68557
0.574079
0.415504
0.256031
0.105312
0.00429701
9.62191e-07
3.23914e-06
0.0189151
0.0068697
1.15059e-05
2.84799e-07
-2.06137e-09
7.81326e-10
9.71951e-10
4.47934e-10
3.15109e-10
1.48224e-09
0.21587
0.166582
0.154002
0.12054
0.0816003
0.041094
0.00371146
5.99095e-12
2.35739e-10
6.97066e-09
1.54616e-07
2.76515e-07
9.62192e-07
0.0100096
0.0110823
0.00081175
6.6826e-07
6.11149e-09
2.47174e-10
5.35696e-10
2.20045e-10
9.62798e-11
2.7672e-10
-5.50489e-39
-4.47943e-21
-1.56928e-60
2.07562e-20
2.44165e-18
1.15779e-16
5.61324e-15
2.23812e-13
5.58545e-12
2.33598e-10
6.97066e-09
1.95919e-07
1.33298e-06
4.3503e-06
0.0109898
0.00213362
3.39493e-07
1.34748e-10
1.19992e-10
1.81748e-10
7.62704e-11
2.89462e-11
4.82726e-11
4.45728e-22
-2.20677e-20
2.94935e-19
2.82126e-17
9.69063e-16
4.04162e-14
1.59188e-12
1.89127e-12
4.32668e-11
1.30829e-09
3.9643e-07
1.12586e-06
4.29206e-06
6.62456e-06
0.00709811
0.00173946
5.22625e-08
1.11583e-11
1.54584e-11
2.18351e-11
2.06704e-11
6.05162e-12
1.22896e-11
-9.9442e-23
-9.36221e-20
2.01372e-18
2.57131e-16
1.27703e-14
5.6524e-13
1.71709e-11
3.05596e-10
8.95819e-09
1.20107e-07
7.10774e-06
0.000201692
0.000437767
0.000389664
0.00193179
0.000482463
6.78273e-09
1.59505e-11
2.01195e-12
1.38965e-12
4.73765e-12
9.97304e-13
2.06683e-12
-1.14715e-20
-3.51064e-19
2.80516e-18
4.72193e-16
2.80489e-14
1.12529e-12
2.66903e-11
5.32352e-10
1.73119e-08
2.76097e-07
1.04577e-05
0.000650004
0.0011907
0.00119189
0.000992787
1.34335e-07
1.03643e-09
-9.90349e-12
2.9421e-13
4.36671e-13
9.8341e-13
1.44439e-13
2.1344e-13
-5.07284e-20
-1.21057e-18
1.70798e-19
3.67887e-16
2.39773e-14
3.64046e-13
3.32799e-12
8.80431e-11
3.35676e-09
9.08692e-08
2.18035e-06
0.000566728
0.00119155
0.00103857
5.41733e-05
1.71821e-08
-5.09391e-11
3.0571e-13
4.46956e-14
1.86494e-13
2.1682e-13
1.83737e-14
1.864e-14
-1.49193e-19
-3.92755e-18
-3.71229e-19
1.09819e-16
9.5364e-15
2.03086e-13
1.45539e-11
4.03239e-10
1.52047e-09
1.10981e-10
3.78281e-07
1.31234e-09
3.17827e-05
7.23067e-05
1.77634e-07
1.71378e-09
-6.04755e-12
-1.04196e-12
3.58903e-14
1.00939e-13
5.75104e-14
2.03839e-15
1.44216e-15
-3.33977e-19
-1.08656e-17
-1.00162e-16
-8.70418e-32
-3.20605e-31
1.58942e-13
1.10553e-10
1.09705e-09
8.22989e-10
9.48623e-11
9.16326e-11
2.61848e-10
1.31251e-09
7.7166e-09
4.0063e-09
1.15024e-10
5.78099e-13
-3.16195e-14
3.39267e-14
5.94574e-14
1.8732e-14
1.8233e-16
9.73218e-17
-5.16216e-19
-1.99263e-17
-3.3984e-16
-3.27635e-15
-1.87624e-14
-5.95719e-14
-6.77408e-14
0
6.1553e-14
2.39414e-12
1.2717e-11
2.43418e-10
1.05652e-08
1.87674e-08
2.99807e-11
5.4199e-12
4.02555e-14
1.05096e-15
1.75563e-14
2.48505e-14
4.93293e-15
1.16577e-17
5.68596e-18
-4.2889e-19
-1.64426e-17
-2.79503e-16
-2.69409e-15
-1.55358e-14
-4.96342e-14
-4.2901e-14
8.93304e-14
4.13056e-12
1.97846e-11
2.70464e-11
1.42686e-11
9.20464e-12
7.47404e-12
4.07733e-13
1.80688e-13
1.56964e-15
-3.76917e-19
-2.15488e-15
4.07778e-15
5.68004e-16
4.96614e-19
2.91015e-19
-1.61506e-19
-6.20714e-18
-1.06083e-16
-1.0253e-15
-5.82664e-15
-1.65e-14
-3.12979e-24
8.72163e-14
4.62677e-12
3.10268e-11
6.12867e-11
6.76881e-11
3.18711e-11
7.2761e-12
4.05288e-13
5.00591e-16
7.33019e-31
-2.38355e-14
-1.68624e-14
1.4475e-16
1.53538e-17
1.59796e-20
1.29795e-20
-1.02315e-24
-1.37622e-39
0
-1.91658e-33
-1.65448e-30
-4.99081e-25
2.52555e-18
2.01958e-15
7.84542e-13
1.39521e-11
5.35132e-11
7.78494e-11
7.83032e-11
5.62958e-11
6.86276e-12
-1.84713e-31
-1.85706e-14
-2.70348e-14
-1.62741e-14
5.3371e-19
1.19954e-20
4.5419e-22
5.07232e-22
0
3.50436e-29
3.63118e-27
2.48738e-25
1.26278e-23
5.05748e-22
1.66359e-20
4.62172e-19
4.06563e-16
3.21782e-14
3.5741e-13
1.19208e-12
1.82502e-12
7.5169e-13
1.21124e-13
-2.21904e-15
-9.67744e-15
-1.33557e-14
-7.84235e-15
7.35051e-21
1.07694e-22
1.00284e-23
1.68864e-23
7.20754e-35
1.59559e-32
1.75384e-30
9.49465e-29
3.68004e-27
7.73061e-26
3.34455e-25
-1.68683e-21
3.7683e-18
2.89852e-16
3.12678e-15
1.02332e-14
1.61963e-14
1.7532e-14
7.5823e-15
1.23351e-15
-1.45721e-15
-3.62374e-15
-2.18624e-15
1.36096e-22
3.37788e-24
2.75971e-25
5.27003e-25
5.95281e-38
1.83564e-35
-6.97227e-33
-7.8741e-31
-5.83199e-29
-3.14464e-27
-7.89557e-25
2.66287e-25
6.36543e-23
6.33269e-20
5.04861e-18
6.94775e-17
2.65273e-16
4.32639e-16
4.54604e-16
5.19461e-17
-2.44315e-16
-5.60807e-16
-3.72807e-16
3.5808e-23
1.3077e-25
1.15553e-26
1.44736e-26
9.77843e-54
-2.25982e-36
-2.61153e-34
-2.06054e-32
-1.20159e-30
-5.51194e-29
-8.90991e-28
8.62532e-28
5.36231e-26
8.36259e-23
1.50131e-20
3.32761e-19
1.56156e-18
2.51873e-18
8.75091e-19
-5.4664e-18
-1.96637e-17
-4.8256e-17
-3.97688e-17
1.85571e-24
3.28163e-27
4.85879e-28
3.59956e-28
-2.69009e-38
-1.95404e-37
0
-5.48196e-45
-3.5414e-41
-2.90402e-38
-3.86861e-36
-3.75013e-34
7.80283e-30
1.74647e-25
3.5591e-23
4.4448e-22
6.94693e-22
-5.16858e-21
-4.15435e-20
-1.85441e-19
-6.63207e-19
-2.14882e-18
-2.65168e-18
6.05931e-26
8.17257e-29
2.09345e-29
8.61807e-30
-1.38544e-43
-3.6121e-41
-4.68237e-39
-4.02368e-37
-2.5774e-35
-1.3117e-33
-5.52052e-32
-1.97436e-30
-6.1142e-29
-1.65776e-27
-3.71666e-26
-6.2135e-25
-7.26442e-24
-6.11347e-23
-3.91844e-22
-2.05933e-21
-9.58124e-21
-4.31137e-20
-1.07796e-19
2.21072e-27
7.86099e-30
8.72481e-31
2.03867e-31
-5.37323e-45
-1.17316e-42
-1.29019e-40
-9.4476e-39
-5.13652e-37
-2.19412e-35
-7.61239e-34
-2.18901e-32
-5.27672e-31
-1.07022e-29
-1.81859e-28
-2.55751e-27
-2.92789e-26
-2.72168e-25
-2.09871e-24
-1.39694e-23
-8.36296e-23
-4.66732e-22
-2.50504e-21
4.76556e-29
7.37571e-31
3.4795e-32
5.00972e-33
-1.63548e-45
-2.64091e-43
-2.06774e-41
-1.04764e-39
-3.86208e-38
-1.1045e-36
-2.55198e-35
-4.901e-34
-7.9921e-33
-1.12567e-31
-1.38919e-30
-1.52106e-29
-1.49441e-28
-1.33117e-27
-1.08585e-26
-8.20108e-26
-5.82906e-25
-4.02206e-24
-2.85776e-23
5.22986e-31
2.04767e-32
1.05277e-33
1.27031e-34
-1.8741e-49
-3.62796e-47
-3.39651e-45
-2.05459e-43
-9.02968e-42
-3.07331e-40
-8.4321e-39
-1.91699e-37
-3.68476e-36
-6.08186e-35
-8.72797e-34
-1.10058e-32
-1.23136e-31
-1.23548e-30
-1.12939e-29
-9.70699e-29
-8.39679e-28
-8.19941e-27
-9.84499e-26
4.87653e-33
4.07149e-34
2.4637e-35
3.33145e-36
0
0
0
0
-2.74127e-63
-1.2748e-60
-2.88771e-58
-4.34072e-56
1.28299e-47
2.6598e-45
2.33769e-43
1.59287e-41
1.45846e-39
7.11651e-37
7.02636e-35
6.9351e-34
-1.43807e-33
-1.54754e-31
-7.40344e-30
4.4076e-35
6.33345e-36
5.40027e-37
8.93181e-38
2.69097e-72
1.72829e-69
5.53287e-67
1.18549e-64
1.91998e-62
2.51631e-60
2.79041e-58
2.70386e-56
2.34736e-54
1.8635e-52
1.37664e-50
9.61096e-49
8.02444e-47
1.65911e-43
9.88058e-41
1.85349e-38
4.78448e-37
2.00086e-36
2.45679e-36
2.94672e-37
9.77058e-38
1.11627e-38
2.27799e-39
1.62757e-77
1.2885e-74
3.16782e-72
1.05978e-70
-1.21182e-67
-3.81468e-65
-6.87402e-63
-9.05944e-61
-9.28157e-59
-7.2523e-57
-3.4313e-55
4.61266e-54
3.80584e-51
2.51194e-48
4.93009e-44
1.92928e-41
8.91011e-40
5.62673e-39
8.91904e-39
1.4502e-39
1.53869e-39
2.07368e-40
5.40973e-41
4.72183e-83
-6.94297e-78
-5.51983e-75
-2.13358e-72
-5.48036e-70
-1.05676e-67
-1.63664e-65
-2.12737e-63
-2.35233e-61
-2.05563e-59
-1.33083e-57
-7.13105e-56
-8.23707e-55
7.69614e-53
9.14918e-50
1.04459e-45
2.46867e-43
6.42886e-42
2.74896e-41
3.72302e-41
1.05684e-41
3.54011e-42
1.22113e-42
-3.5778e-84
-3.8298e-81
-1.97159e-78
-6.71583e-76
-1.7137e-73
-3.50781e-71
-6.01981e-69
-8.93653e-67
-1.06068e-64
-9.15815e-63
-6.63844e-61
-3.64774e-59
8.65628e-59
2.32842e-56
3.36952e-54
5.04452e-51
3.08796e-47
5.82663e-45
9.7014e-44
2.48468e-43
8.31938e-44
5.57923e-44
2.70822e-44
4.27138e-96
1.23121e-92
1.56442e-89
1.2911e-86
7.97689e-84
3.97232e-81
1.66844e-78
6.11671e-76
2.00726e-73
6.01628e-71
1.67586e-68
4.40702e-66
1.10866e-63
4.93219e-61
1.22713e-58
1.04063e-55
9.86527e-51
7.76787e-48
3.08782e-46
1.21545e-45
8.83352e-46
7.97919e-46
6.33112e-46
7.63242e-110
9.20408e-106
3.80619e-102
-9.34224e-95
-2.56205e-91
-4.84261e-88
-4.38108e-85
-2.73474e-82
-1.3427e-79
-5.56909e-77
-1.89841e-74
-4.04459e-72
-5.83684e-70
-3.23981e-69
2.5497e-65
1.87049e-62
1.04111e-56
7.99399e-52
2.35157e-49
3.96459e-48
9.28499e-48
1.38314e-47
1.23299e-47
0
0
-6.81096e-108
-5.58159e-104
-2.60547e-100
-6.96927e-97
-1.3336e-93
-2.00217e-90
-2.51627e-87
-2.73511e-84
-2.27925e-81
-1.19865e-78
-6.84156e-76
-1.0634e-74
-7.17131e-81
-2.31193e-78
-2.13262e-75
8.72085e-60
3.9912e-54
2.4321e-51
9.39386e-50
2.38913e-48
4.97941e-48
0.135459
2.67345e-06
6.10094e-07
4.19245e-09
0.238368
3.55838e-06
2.40608e-06
6.78721e-07
0.304765
0.0132843
0.000141125
2.22867e-05
0.173662
0.0586648
0.000202221
9.14804e-05
0.0177701
0.0524675
0.00859088
6.59975e-05
0.00328177
0.00781218
0.00281852
4.40029e-05
0.000912642
0.000553309
0.000273195
1.9409e-05
0.000212685
0.000116404
3.20452e-05
2.42192e-06
4.2381e-05
1.97073e-05
3.14081e-06
3.18253e-07
6.91075e-06
2.83651e-06
3.61119e-07
4.22669e-08
9.58757e-07
3.61451e-07
4.79281e-08
5.3111e-09
1.19792e-07
4.14546e-08
5.38042e-09
5.76441e-10
1.38756e-08
4.36755e-09
5.82402e-10
6.64062e-11
1.48605e-09
4.28413e-10
6.73451e-11
9.35648e-12
1.64901e-10
5.01822e-11
9.19946e-12
1.27717e-12
1.93873e-11
6.79405e-12
1.28387e-12
1.03502e-13
3.44848e-12
8.59995e-13
9.94637e-14
6.53239e-15
3.81447e-13
6.6736e-14
5.93553e-15
3.86191e-16
2.77413e-14
4.23557e-15
3.46438e-16
2.07451e-17
1.83351e-15
2.53928e-16
1.9278e-17
1.02684e-18
1.10507e-16
1.38986e-17
9.9482e-19
4.88352e-20
5.9483e-18
6.90959e-19
4.72578e-20
2.18895e-21
2.84921e-19
3.11028e-20
2.06468e-21
9.13801e-23
1.2109e-20
1.26525e-21
8.28149e-23
3.55007e-24
4.55949e-22
4.64782e-23
3.04672e-24
1.28274e-25
1.52512e-23
1.54253e-24
1.02832e-25
4.31196e-27
4.52716e-25
4.63458e-26
3.18939e-27
1.35092e-28
1.19766e-26
1.26578e-27
9.12306e-29
3.96062e-30
2.83445e-28
3.16469e-29
2.42297e-30
1.09517e-31
6.08269e-30
7.33034e-31
6.0486e-32
2.89869e-33
1.21669e-31
1.60715e-32
1.45159e-33
7.54831e-35
2.37286e-33
3.46752e-34
3.48543e-35
2.02635e-36
4.85008e-35
7.81642e-36
8.89827e-37
5.96642e-38
1.11021e-36
1.96856e-37
2.56958e-38
2.01763e-39
2.83657e-38
5.73628e-39
8.54896e-40
7.78946e-41
7.76934e-40
1.88541e-40
3.15666e-41
3.27921e-42
2.23203e-41
6.57762e-42
1.22752e-42
1.43809e-43
6.75465e-43
2.3148e-43
4.85272e-44
6.39236e-45
2.04094e-44
8.03385e-45
1.91813e-45
2.84548e-46
5.75715e-46
2.73049e-46
7.53474e-47
1.26435e-47
1.41935e-47
8.76769e-48
2.87075e-48
5.50136e-49
2.14319e-48
5.83619e-49
1.16802e-49
1.95515e-50
4.04498e-11
1.40329e-11
9.68256e-12
4.77153e-12
2.95404e-13
7.41787e-15
2.20601e-16
7.64742e-18
2.50515e-19
7.38347e-21
1.94526e-22
4.52921e-24
9.06671e-26
1.4978e-27
1.93669e-29
1.79316e-31
9.61847e-34
2.15828e-36
2.0444e-37
4.19245e-09
8.15188e-11
2.54024e-12
1.37565e-12
4.10012e-13
1.82465e-14
4.44427e-16
1.30807e-17
4.23513e-19
1.29296e-20
3.57511e-22
8.7614e-24
1.86032e-25
3.33287e-27
4.82878e-29
5.26429e-31
3.83258e-33
1.52595e-35
1.8055e-36
1.85453e-06
7.65752e-08
1.6152e-09
2.31559e-11
1.26799e-12
4.95395e-14
8.51212e-16
1.73064e-17
4.57388e-19
1.28651e-20
3.47143e-22
8.55544e-24
1.85431e-25
3.41756e-27
5.1709e-29
6.17888e-31
5.4481e-33
3.0427e-35
1.41737e-36
1.05068e-05
5.92808e-07
1.90801e-08
3.14918e-10
7.32117e-12
2.87561e-13
6.58773e-15
8.78835e-17
1.18494e-18
1.78439e-20
3.17257e-22
6.45927e-24
1.33177e-25
2.48346e-27
3.90934e-29
4.87275e-31
4.44771e-33
2.58428e-35
6.08157e-37
4.46238e-06
2.09878e-07
7.52842e-09
2.18397e-10
8.17882e-12
3.26874e-13
3.45382e-14
7.13867e-16
8.88606e-18
1.02988e-19
1.02983e-21
9.84322e-24
1.0375e-25
1.35303e-27
1.89807e-29
2.34838e-31
2.21533e-33
1.35782e-35
1.74973e-37
4.34027e-06
3.08574e-07
1.64524e-08
6.82098e-10
2.26449e-11
8.30047e-13
4.54872e-14
1.2541e-15
2.15393e-17
3.10184e-19
3.75951e-21
3.76746e-23
3.11874e-25
2.21828e-27
1.47265e-29
1.05288e-31
7.96093e-34
4.65977e-36
1.22126e-37
1.2817e-06
1.07377e-07
6.97252e-09
3.57649e-10
1.55799e-11
6.34727e-13
3.84461e-14
1.14547e-15
2.24658e-17
3.74195e-19
5.22268e-21
6.053e-23
5.77259e-25
4.44051e-27
2.73045e-29
1.33319e-31
5.34608e-34
1.73928e-36
1.04805e-37
2.18063e-07
1.89571e-08
1.32315e-09
7.47603e-11
4.16205e-12
2.44273e-13
1.25238e-14
3.51885e-16
7.8547e-18
1.50774e-19
2.44978e-21
3.33277e-23
3.74006e-25
3.36883e-27
2.37406e-29
1.26862e-31
4.90002e-34
1.22769e-36
5.51424e-38
2.91102e-08
2.43655e-09
1.69529e-10
1.14117e-11
8.52072e-13
6.30912e-14
2.30434e-15
6.36516e-17
1.54284e-18
3.2178e-20
5.74454e-22
8.65487e-24
1.08688e-25
1.11957e-27
9.24173e-30
5.90672e-32
2.76693e-34
8.48556e-37
1.35476e-38
4.06227e-09
3.29322e-10
2.72923e-11
2.27707e-12
2.28698e-13
1.05931e-14
3.50132e-16
1.03731e-17
2.63393e-19
5.71045e-21
1.05252e-22
1.63753e-24
2.12744e-26
2.27216e-28
1.94943e-30
1.29741e-32
6.3323e-35
2.024e-37
2.47537e-39
5.06858e-10
5.2208e-11
5.31733e-12
6.06018e-13
3.40758e-14
1.34743e-15
4.77283e-17
1.45488e-18
3.8064e-20
8.52423e-22
1.62655e-23
2.62595e-25
3.54874e-27
3.95215e-29
3.54447e-31
2.47187e-33
1.26651e-35
4.2651e-38
3.42351e-40
6.3712e-11
1.13785e-11
1.19592e-12
7.55957e-14
3.58218e-15
1.49817e-16
5.39407e-18
1.67086e-19
4.45181e-21
1.018e-22
1.9891e-24
3.2974e-26
4.5885e-28
5.27718e-30
4.9028e-32
3.55436e-34
1.90083e-36
6.7296e-39
3.662e-41
6.65947e-12
1.64684e-12
1.31949e-13
6.81328e-15
3.33008e-16
1.4016e-17
5.07507e-19
1.58412e-20
4.26242e-22
9.86603e-24
1.95598e-25
3.2981e-27
4.68022e-29
5.50429e-31
5.24582e-33
3.91631e-35
2.16801e-37
8.01699e-40
3.17571e-42
7.43319e-13
1.44067e-13
1.01594e-14
5.50028e-16
2.68922e-17
1.12935e-18
4.08758e-20
1.27782e-21
3.45038e-23
8.03149e-25
1.6048e-26
2.7336e-28
3.92866e-30
4.69276e-32
4.55841e-34
3.48524e-36
1.99024e-38
7.68643e-41
2.32175e-43
7.06662e-14
1.05214e-14
7.18198e-16
3.94738e-17
1.91393e-18
7.9795e-20
2.87286e-21
8.95092e-23
2.41371e-24
5.62261e-26
1.12678e-27
1.92955e-29
2.79533e-31
3.37678e-33
3.33196e-35
2.60514e-37
1.53782e-39
6.2508e-42
1.53895e-44
5.32538e-15
7.05244e-16
4.64016e-17
2.53866e-18
1.21421e-19
5.00521e-21
1.78571e-22
5.52493e-24
1.48257e-25
3.44408e-27
6.89881e-29
1.18388e-30
1.72408e-32
2.10242e-34
2.10733e-36
1.69081e-38
1.04153e-40
4.53257e-43
1.03997e-45
3.75326e-16
4.27872e-17
2.71962e-18
1.47085e-19
6.91799e-21
2.81194e-22
9.91586e-24
3.03912e-25
8.09631e-27
1.87149e-28
3.73962e-30
6.42125e-32
9.39467e-34
1.15791e-35
1.18452e-37
9.85768e-40
6.459e-42
3.08825e-44
7.98754e-47
2.41326e-17
2.34707e-18
1.44772e-19
7.70857e-21
3.55998e-22
1.42481e-23
4.95924e-25
1.50368e-26
3.97217e-28
9.12763e-30
1.81856e-31
3.1259e-33
4.6052e-35
5.76995e-37
6.09565e-39
5.37096e-41
3.85202e-43
2.07813e-45
6.1296e-48
1.40412e-18
1.16483e-19
7.00962e-21
3.66658e-22
1.66255e-23
6.55043e-25
2.24977e-26
6.74661e-28
1.76715e-29
4.03852e-31
8.03382e-33
1.38684e-34
2.07125e-36
2.67214e-38
2.97957e-40
2.86561e-42
2.31688e-44
1.42609e-46
4.70134e-49
7.39322e-20
5.23525e-21
3.09564e-22
1.58927e-23
7.07948e-25
2.74725e-26
9.3165e-28
2.7657e-29
7.19263e-31
1.63844e-32
3.26768e-34
5.70829e-36
8.7627e-38
1.191e-39
1.44706e-41
1.56746e-43
1.44721e-45
1.00211e-47
3.57783e-50
3.27159e-21
2.15888e-22
1.25045e-23
6.30225e-25
2.76317e-26
1.05758e-27
3.54607e-29
1.04404e-30
2.70351e-32
6.168e-34
1.24373e-35
2.23142e-37
3.60609e-39
5.3365e-41
7.29826e-43
9.02812e-45
9.38571e-47
7.09417e-49
2.66349e-51
1.34457e-22
8.43336e-24
4.7e-25
2.30243e-26
9.93436e-28
3.76043e-29
1.2502e-30
3.66377e-32
9.499e-34
2.19007e-35
4.53378e-37
8.56286e-39
1.50649e-40
2.50845e-42
3.91543e-44
5.45241e-46
6.18818e-48
4.95718e-50
1.91511e-52
5.24993e-24
3.19193e-25
1.70305e-26
7.96097e-28
3.34942e-29
1.24609e-30
4.12034e-32
1.21004e-33
3.17472e-35
7.52647e-37
1.64225e-38
3.38019e-40
6.69174e-42
1.27035e-43
2.22837e-45
3.38267e-47
4.06447e-49
3.37934e-51
1.32502e-53
1.92687e-25
1.14631e-26
5.96192e-28
2.70954e-29
1.09784e-30
3.96481e-32
1.3e-33
3.84526e-35
1.04022e-36
2.61384e-38
6.24644e-40
1.45094e-41
3.27828e-43
6.98276e-45
1.33174e-46
2.13391e-48
2.6532e-50
2.259e-52
8.92965e-55
6.63999e-27
3.89515e-28
1.99374e-29
8.91438e-31
3.55454e-32
1.26665e-33
4.11567e-35
1.23739e-36
3.54271e-38
9.78477e-40
2.65396e-41
7.04086e-43
1.78319e-44
4.11883e-46
8.26828e-48
1.3669e-49
1.73398e-51
1.50042e-53
5.96198e-56
2.15058e-28
1.25477e-29
6.37539e-31
2.83275e-32
1.12833e-33
4.0612e-35
1.35825e-36
4.32226e-38
1.35427e-39
4.22046e-41
1.30135e-42
3.84383e-44
1.0507e-45
2.54644e-47
5.26201e-49
8.85885e-51
1.13833e-52
9.97648e-55
3.9786e-57
6.56303e-30
3.84405e-31
1.95951e-32
8.77181e-34
3.55772e-35
1.3315e-36
4.77287e-38
1.685e-39
5.99439e-41
2.11407e-42
7.17936e-44
2.26867e-45
6.47584e-47
1.61164e-48
3.38698e-50
5.77055e-52
7.48727e-54
6.63531e-56
2.65214e-58
1.89671e-31
1.12754e-32
5.84835e-34
2.69131e-35
1.14464e-36
4.63482e-38
1.85626e-39
7.46422e-41
3.00402e-42
1.16535e-43
4.21627e-45
1.38672e-46
4.05767e-48
1.02611e-49
2.18112e-51
3.74989e-53
4.90571e-55
4.39134e-57
1.75667e-59
5.24e-33
3.20868e-34
1.72901e-35
8.42989e-37
3.91213e-38
1.78503e-39
8.16901e-41
3.71113e-42
1.63851e-43
6.75709e-45
2.53897e-46
8.55268e-48
2.54269e-49
6.50381e-51
1.39511e-52
2.41768e-54
3.18616e-56
2.8773e-58
1.15015e-60
1.40829e-34
9.08113e-36
5.24348e-37
2.81861e-38
1.48358e-39
7.77312e-41
4.01747e-42
1.9977e-43
9.36047e-45
4.0052e-46
1.54013e-47
5.26953e-49
1.58456e-50
4.0899e-52
8.8415e-54
1.54293e-55
2.04652e-57
1.86208e-59
7.42708e-62
3.80156e-36
2.66646e-37
1.71542e-38
1.05349e-39
6.37772e-41
3.77615e-42
2.13225e-43
1.1235e-44
5.45924e-46
2.39057e-47
9.33722e-49
3.23179e-50
9.80827e-52
2.55153e-53
5.55403e-55
9.75206e-57
1.30067e-58
1.19076e-60
4.7337e-63
1.08598e-37
8.59998e-39
6.35013e-40
4.48611e-41
3.05913e-42
1.97571e-43
1.18037e-44
6.44642e-46
3.20641e-47
1.42684e-48
5.64014e-50
1.97109e-51
6.0314e-53
1.58021e-54
3.46113e-56
6.11004e-58
8.18704e-60
7.53154e-62
2.98096e-64
3.49655e-39
3.18851e-40
2.69375e-41
2.131e-42
1.57784e-43
1.07664e-44
6.66372e-46
3.72619e-47
1.88463e-48
8.4935e-50
3.3921e-51
1.19586e-52
3.68701e-54
9.72299e-56
2.14148e-57
3.79802e-59
5.10827e-61
4.71598e-63
1.85647e-65
1.31527e-40
1.3584e-41
1.27118e-42
1.08493e-43
8.46187e-45
5.97973e-46
3.79098e-47
2.15721e-48
1.10599e-49
5.04018e-51
2.03209e-52
7.22282e-54
2.24259e-55
5.94914e-57
1.31674e-58
2.34444e-60
3.16242e-62
2.9263e-64
1.14456e-66
5.66415e-42
6.38367e-43
6.38978e-44
5.72471e-45
4.62048e-46
3.34698e-47
2.16163e-48
1.24825e-49
6.47842e-51
2.98336e-52
1.2137e-53
4.34735e-55
1.35862e-56
3.62358e-58
8.05447e-60
1.43866e-61
1.94467e-63
1.80149e-65
6.99425e-68
2.65206e-43
3.16289e-44
3.31188e-45
3.06936e-46
2.54178e-47
1.87859e-48
1.23314e-49
7.2184e-51
3.79042e-52
1.76321e-53
7.23529e-55
2.61055e-56
8.20776e-58
2.19967e-59
4.90727e-61
8.78707e-63
1.18931e-64
1.10175e-66
4.24223e-69
1.29207e-44
1.6043e-45
1.73896e-46
1.65651e-47
1.4025e-48
1.05576e-49
7.03844e-51
4.17509e-52
2.21761e-53
1.04174e-54
4.31029e-56
1.5659e-57
4.95072e-59
1.33248e-60
2.98171e-62
5.34889e-64
7.24365e-66
6.70345e-68
2.55773e-70
6.39015e-46
8.21075e-47
9.17787e-48
8.96657e-49
7.75384e-50
5.94292e-51
4.02349e-52
2.4183e-53
1.29905e-54
6.16089e-56
2.56943e-57
9.39502e-59
2.98543e-60
8.06548e-62
1.80929e-63
3.24958e-65
4.40013e-67
4.06394e-69
1.5354e-71
3.17348e-47
4.21613e-48
4.85681e-49
4.86578e-50
4.2982e-51
3.35487e-52
2.30678e-53
1.40477e-54
7.63021e-56
3.65237e-57
1.53482e-58
5.64596e-60
1.80239e-61
4.88517e-63
1.09796e-64
1.9732e-66
2.66982e-68
2.45884e-70
9.19618e-73
1.57792e-48
2.17098e-49
2.57896e-50
2.65095e-51
2.39297e-52
1.90239e-53
1.32844e-54
8.19497e-56
4.49972e-57
2.1732e-58
9.19808e-60
3.40253e-61
1.0907e-62
2.96429e-64
6.67157e-66
1.19904e-67
1.62019e-69
1.48676e-71
5.5074e-74
7.72123e-50
1.11042e-50
1.37167e-51
1.45503e-52
1.34799e-53
1.09486e-54
7.78148e-56
4.87011e-57
2.70337e-58
1.3171e-59
5.61329e-61
2.0874e-62
6.71641e-64
1.82962e-65
4.12167e-67
7.40449e-69
9.98682e-71
9.12459e-73
1.4724e-75
2.78382e-51
3.73616e-52
4.41909e-53
4.57543e-54
4.18032e-55
3.37592e-56
2.39638e-57
1.50127e-58
8.41745e-60
4.13742e-61
1.77547e-62
6.63634e-64
2.14289e-65
5.84947e-67
1.31857e-68
2.36697e-70
3.18544e-72
2.89705e-74
1.14792e-75
)
;

boundaryField
{
    leftWall
    {
        type            zeroGradient;
    }
    rightWall
    {
        type            zeroGradient;
    }
    lowerWall
    {
        type            zeroGradient;
    }
    atmosphere
    {
        type            inletOutlet;
        inletValue      uniform 0;
        value           nonuniform List<scalar> 
46
(
0
0
0
0
0
0
0
0
0
0
0
0
0
0
0
0
0
0
0
0
9.39386e-50
2.38913e-48
4.97941e-48
2.14319e-48
5.83619e-49
1.16802e-49
1.95515e-50
2.78382e-51
3.73616e-52
4.41909e-53
4.57543e-54
4.18032e-55
3.37592e-56
2.39638e-57
1.50127e-58
8.41745e-60
4.13742e-61
1.77547e-62
6.63634e-64
2.14289e-65
5.84947e-67
1.31857e-68
2.36697e-70
3.18544e-72
2.89705e-74
1.14792e-75
)
;
    }
    defaultFaces
    {
        type            empty;
    }
}


// ************************************************************************* //
