/*--------------------------------*- C++ -*----------------------------------*\
| =========                 |                                                 |
| \\      /  F ield         | OpenFOAM: The Open Source CFD Toolbox           |
|  \\    /   O peration     | Version:  2206                                  |
|   \\  /    A nd           | Website:  www.openfoam.com                      |
|    \\/     M anipulation  |                                                 |
\*---------------------------------------------------------------------------*/
FoamFile
{
    version     2.0;
    format      ascii;
    arch        "LSB;label=32;scalar=64";
    class       volScalarField;
    location    "0.15";
    object      p;
}
// * * * * * * * * * * * * * * * * * * * * * * * * * * * * * * * * * * * * * //

dimensions      [1 -1 -2 0 0 0 0];

internalField   nonuniform List<scalar> 
2268
(
2493.6
2497.64
2492.7
2481.35
2466.07
2447.12
2423.89
2395.94
2363.06
2325.22
2282.91
2237.42
2191.36
2149.57
2120.5
2118.11
2164.35
2294.94
2536.21
2912.12
3378.22
3786.6
4061.43
2433.45
2437.43
2432.39
2421.03
2405.74
2386.73
2363.38
2335.27
2302.13
2263.91
2221.04
2174.74
2127.48
2083.91
2052.16
2045.59
2084.69
2194.71
2415.04
2771.04
3252.91
3726.81
4097.43
2372.01
2375.87
2370.66
2359.26
2343.94
2324.81
2301.23
2272.78
2239.14
2200.17
2156.2
2108.28
2058.63
2011.5
1974.42
1959.77
1986.52
2081.01
2279.26
2606
3070.26
3602.37
4101.9
2309.3
2312.97
2307.53
2296.06
2280.69
2261.37
2237.48
2208.53
2174.13
2134.05
2088.46
2038.16
1984.96
1932.54
1887.61
1861.12
1870.35
1941.19
2109.93
2407.57
2850.91
3408.95
4022.09
2245.34
2248.79
2243.05
2231.5
2216.04
2196.49
2172.17
2142.57
2107.2
2065.68
2017.97
1964.55
1906.71
1847.39
1792.15
1750.09
1735.96
1773.74
1900.37
2154.32
2569.51
3136.97
3826.3
2180.17
2183.36
2177.29
2165.61
2150.05
2130.21
2105.38
2075
2038.45
1995.18
1944.91
1887.7
1824.22
1756.5
1688.68
1627.38
1583.88
1578.37
1645.92
1826.46
2181.3
2747.73
3483.99
2113.82
2116.69
2110.24
2098.4
2082.71
2062.55
2037.15
2005.86
1967.94
1922.67
1869.46
1807.88
1737.9
1660.51
1578.06
1494.15
1415.69
1356.6
1343.03
1403.78
1616.84
2150.48
2905.5
2046.38
2048.76
2041.9
2029.91
2014.07
1993.55
1967.5
1935.19
1895.76
1848.26
1791.78
1725.39
1648.25
1560.18
1461.46
1352.4
1234.2
1109.16
983.259
868.051
847.731
1310.12
2002.68
-3.8172
-3.7698
-3.68173
-3.56252
-3.42597
-3.28212
-3.13955
-3.00387
-2.87843
-2.76498
-2.66424
-2.57629
-2.50082
-2.43738
-2.38545
-2.34455
-2.31425
-2.29425
-2.28431
-3.89102
-3.84102
-3.74956
-3.62701
-3.48699
-3.34084
-3.19676
-3.06016
-2.93421
-2.82054
-2.71976
-2.63185
-2.55648
-2.49316
-2.44135
-2.40054
-2.37033
-2.35038
-2.34047
-3.98247
-3.92517
-3.82597
-3.696
-3.54987
-3.39919
-3.25213
-3.11373
-2.98682
-2.87274
-2.77188
-2.68408
-2.60892
-2.54585
-2.49428
-2.45369
-2.42365
-2.40382
-2.39396
-4.09464
-4.02369
-3.91165
-3.76986
-3.61429
-3.45684
-3.30539
-3.16438
-3.03611
-2.92147
-2.82053
-2.73294
-2.65812
-2.59543
-2.54423
-2.50397
-2.47419
-2.45454
-2.44478
-4.23507
-4.13911
-4.00727
-3.84833
-3.67968
-3.51323
-3.35608
-3.21178
-3.08185
-2.96658
-2.86565
-2.77839
-2.70406
-2.64192
-2.59124
-2.55142
-2.52199
-2.50259
-2.49295
-4.41783
-4.27544
-4.11435
-3.93085
-3.74515
-3.56754
-3.4036
-3.25552
-3.12378
-3.00792
-2.90713
-2.82039
-2.74674
-2.68533
-2.6353
-2.59605
-2.56708
-2.548
-2.5385
-4.676
-4.43787
-4.23084
-4.01565
-3.80932
-3.61872
-3.44721
-3.29509
-3.16157
-3.04528
-2.94489
-2.85889
-2.78612
-2.72565
-2.67646
-2.63791
-2.60949
-2.59079
-2.58148
-4.99961
-4.61091
-4.35214
-4.10085
-3.87078
-3.66567
-3.48609
-3.33001
-3.19492
-3.07849
-2.97885
-2.89386
-2.82221
-2.76296
-2.71476
-2.67703
-2.64927
-2.63104
-2.62194
1939.32
1940.72
1933.37
1921.09
1904.92
1883.77
1856.61
1822.58
1780.57
1729.26
1667.24
1592.64
1503.31
1397.03
1271.15
1120.94
933.479
680.289
354.523
141.779
216.267
358.558
343.58
1789.43
1789.65
1781.55
1768.88
1752.17
1729.99
1701.15
1664.57
1618.74
1561.78
1491.49
1404.64
1297.01
1164.36
1001.53
792.785
505.571
177.661
32.7205
24.5306
39.4534
78.7896
103.946
1636.11
1635.04
1626.18
1613.2
1595.95
1572.75
1542.31
1503.3
1453.78
1391.42
1313.23
1214.37
1089.2
933.964
738.38
467.675
150.396
16.9948
2.55638
2.93687
5.02584
13.0958
41.6568
1480.15
1477.78
1468.31
1455.13
1437.41
1413.34
1381.57
1340.53
1287.92
1221.03
1136.01
1026.32
887.1
715.33
484.63
179.429
17.7401
0.696834
-0.85857
-0.78974
-0.459158
0.525716
5.1532
1322.4
1318.77
1308.92
1295.65
1277.62
1252.96
1220.33
1177.95
1123.24
1053.31
962.987
844.872
697.259
507.639
237.834
25.9233
1.2655
-0.996508
-1.21018
-1.17214
-1.04458
-0.880738
-0.397562
1163.7
1158.98
1148.98
1135.79
1117.64
1092.79
1059.94
1017.1
961.688
890.628
797.023
675.263
523.922
309.307
54.7266
2.52438
-0.69617
-1.13628
-1.14437
-1.08506
-0.936214
-0.769761
-0.851697
1004.88
999.238
989.385
976.4
958.402
933.816
901.439
859.167
804.722
734.548
640.795
522.649
367.231
136.836
6.38627
-0.452215
-1.13
-1.11039
-1.08024
-1.00418
-0.861709
-0.704841
-0.703957
846.591
840.19
830.758
818.133
800.578
776.753
745.592
705.004
653.3
585.984
496.805
388.206
224.63
21.4992
0.151159
-1.06549
-1.15574
-1.10374
-1.05521
-0.965855
-0.83299
-0.683384
-0.490181
689.591
682.643
673.878
661.739
644.916
622.292
592.954
555.011
507.38
444.806
364.971
265.408
102.56
2.42645
-0.653249
-1.13118
-1.0765
-1.08816
-1.05051
-0.975129
-0.845226
-0.668101
-0.422684
534.772
527.376
519.433
507.813
491.882
470.651
443.345
408.316
365.201
309.419
241.556
148.894
17.1194
-0.487424
-0.836032
-0.934056
-1.03707
-1.10159
-1.09676
-1.04709
-0.933439
-0.763375
-0.545136
381.958
374.054
367.019
355.91
341.053
321.493
296.628
264.475
226.169
179.352
128.219
57.3173
-0.730796
-0.7283
-0.582732
-0.763589
-1.0556
-1.18268
-1.21825
-1.18878
-1.09785
-0.963904
-0.794988
230.844
222.114
216.281
205.815
192.264
174.945
154.058
125.338
94.0814
63.3954
43.8398
15.0312
1.16734
-0.368377
-0.43639
-0.830525
-1.22392
-1.38157
-1.42329
-1.39544
-1.31726
-1.20977
-1.08307
90.0757
81.487
78.3303
70.9366
61.7118
51.0015
40.5666
23.5035
12.9182
2.57347
-3.0561
-3.26204
-3.04492
-1.9113
-1.24007
-1.34699
-1.68739
-1.73528
-1.71766
-1.65767
-1.57268
-1.47126
-1.3715
11.158
8.0697
7.23173
5.08308
2.52874
-0.246218
-2.49132
-2.86163
-3.15207
-3.45828
-3.56338
-3.61982
-3.55651
-3.52305
-3.11945
-2.64573
-2.52919
-2.23793
-2.08242
-1.95694
-1.84164
-1.73665
-1.64736
-2.53364
-2.53722
-2.57112
-2.62285
-2.70015
-2.80251
-2.88566
-2.99718
-3.20482
-3.47123
-3.74532
-4.03072
-4.19219
-4.3582
-4.31254
-4.32787
-3.36523
-2.7337
-2.45579
-2.25361
-2.10455
-1.98919
-1.90308
-2.65978
-2.67031
-2.69656
-2.73805
-2.79661
-2.87238
-2.96143
-3.0834
-3.27316
-3.55778
-3.95338
-4.44423
-4.75999
-4.77367
-5.0539
-5.01778
-3.8103
-3.11808
-2.7631
-2.51133
-2.34185
-2.21952
-2.13487
-2.7768
-2.78831
-2.80858
-2.84071
-2.88561
-2.94515
-3.02413
-3.1384
-3.31765
-3.62555
-4.11783
-4.77326
-5.25106
-5.17546
-5.54642
-5.07171
-3.95929
-3.34059
-2.96868
-2.71164
-2.54187
-2.42199
-2.34196
-2.88513
-2.89389
-2.90942
-2.93321
-2.96649
-3.01149
-3.07417
-3.16693
-3.31804
-3.61031
-4.12829
-4.8276
-5.34549
-5.3971
-5.28634
-4.6738
-3.86018
-3.39378
-3.07567
-2.85426
-2.7035
-2.59658
-2.52589
-2.98555
-2.99129
-3.00236
-3.01897
-3.04179
-3.07263
-3.1157
-3.17819
-3.2823
-3.50442
-3.91951
-4.44838
-4.8341
-4.88902
-4.65936
-4.18011
-3.65818
-3.3519
-3.12195
-2.95491
-2.83487
-2.74806
-2.6903
-3.08086
-3.08445
-3.09142
-3.10183
-3.11583
-3.13435
-3.15961
-3.19421
-3.25091
-3.37602
-3.6103
-3.90419
-4.13185
-4.16611
-4.02391
-3.75041
-3.48025
-3.30208
-3.15255
-3.03662
-2.94882
-2.88379
-2.84006
-3.17415
-3.1761
-3.17981
-3.18528
-3.19244
-3.20173
-3.21425
-3.23071
-3.25641
-3.31261
-3.4218
-3.56348
-3.66901
-3.67958
-3.6135
-3.50027
-3.38359
-3.28561
-3.19349
-3.11701
-3.05653
-3.01082
-2.98002
-3.26754
-3.26822
-3.26956
-3.27141
-3.27373
-3.27673
-3.28111
-3.28729
-3.29746
-3.31971
-3.36361
-3.42387
-3.47118
-3.48071
-3.4548
-3.41367
-3.36282
-3.30822
-3.25289
-3.20419
-3.1644
-3.13406
-3.114
-3.36269
-3.36248
-3.36221
-3.36167
-3.36085
-3.35993
-3.35941
-3.35973
-3.36233
-3.3711
-3.3901
-3.41725
-3.44169
-3.45303
-3.44671
-3.42523
-3.39592
-3.36324
-3.33013
-3.29999
-3.27502
-3.25621
-3.24453
-3.46078
-3.46009
-3.4588
-3.45684
-3.45418
-3.45107
-3.44786
-3.44501
-3.4436
-3.44597
-3.45405
-3.46623
-3.47793
-3.4855
-3.48595
-3.47663
-3.46023
-3.44106
-3.42156
-3.40362
-3.38898
-3.37854
-3.37314
-3.56263
-3.56172
-3.55989
-3.55718
-3.55363
-3.54945
-3.54498
-3.54064
-3.53726
-3.53627
-3.53882
-3.54418
-3.55005
-3.55435
-3.55527
-3.55147
-3.54372
-3.53377
-3.5232
-3.5135
-3.50602
-3.50153
-3.50071
-3.66876
-3.66777
-3.66572
-3.66272
-3.65885
-3.65432
-3.64944
-3.64463
-3.64053
-3.63806
-3.63788
-3.63977
-3.64268
-3.64523
-3.64612
-3.64466
-3.64141
-3.63701
-3.63226
-3.62815
-3.62562
-3.62531
-3.62774
-3.77915
-3.77814
-3.77607
-3.77305
-3.76919
-3.7647
-3.75987
-3.75506
-3.7508
-3.74769
-3.74615
-3.74617
-3.74733
-3.74885
-3.74991
-3.75009
-3.74926
-3.74806
-3.74695
-3.74651
-3.74732
-3.74986
-3.75452
-3.8934
-3.8924
-3.89043
-3.88754
-3.88388
-3.87964
-3.87507
-3.87053
-3.8664
-3.86313
-3.86103
-3.86018
-3.86036
-3.8612
-3.86223
-3.86317
-3.86391
-3.8647
-3.86586
-3.86774
-3.87072
-3.87512
-3.88122
-4.01098
-4.01004
-4.00821
-4.00553
-4.00215
-3.99825
-3.99405
-3.98985
-3.98598
-3.98277
-3.98047
-3.9792
-3.97891
-3.97938
-3.98035
-3.98166
-3.98328
-3.9853
-3.98785
-3.99117
-3.99548
-4.00101
-4.00795
-4.13142
-4.13056
-4.12888
-4.12644
-4.12336
-4.11981
-4.116
-4.11217
-4.1086
-4.10556
-4.10326
-4.10183
-4.10128
-4.10155
-4.10248
-4.10399
-4.10607
-4.10871
-4.11207
-4.11621
-4.12128
-4.12741
-4.13474
-4.25429
-4.25352
-4.25199
-4.24977
-4.24699
-4.24377
-4.24032
-4.23685
-4.23357
-4.23073
-4.22851
-4.22704
-4.22638
-4.22652
-4.22741
-4.229
-4.23125
-4.2341
-4.23794
-4.24248
-4.24788
-4.25423
-4.26161
-4.37925
-4.37856
-4.37716
-4.37515
-4.37262
-4.3697
-4.36657
-4.3634
-4.3604
-4.35775
-4.35564
-4.35418
-4.35346
-4.35351
-4.35432
-4.35589
-4.35823
-4.36141
-4.3651
-4.36967
-4.37509
-4.38138
-4.38857
-4.50599
-4.50537
-4.50408
-4.50224
-4.49993
-4.49727
-4.4944
-4.49149
-4.48871
-4.48623
-4.48421
-4.48277
-4.482
-4.48196
-4.48267
-4.48413
-4.48636
-4.48935
-4.49304
-4.49751
-4.50276
-4.50879
-4.51561
-4.63427
-4.63369
-4.6325
-4.63079
-4.62866
-4.6262
-4.62355
-4.62084
-4.61823
-4.61588
-4.61393
-4.61249
-4.61166
-4.6115
-4.61206
-4.61336
-4.61539
-4.61815
-4.62163
-4.62584
-4.63077
-4.6364
-4.64273
-4.76386
-4.76331
-4.7622
-4.7606
-4.75861
-4.7563
-4.7538
-4.75124
-4.74876
-4.74649
-4.74456
-4.74309
-4.74218
-4.74188
-4.74225
-4.74332
-4.74509
-4.74757
-4.75074
-4.75457
-4.75906
-4.76419
-4.76994
-4.89457
-4.89406
-4.893
-4.89149
-4.88959
-4.88739
-4.885
-4.88254
-4.88012
-4.87789
-4.87595
-4.87441
-4.87338
-4.87291
-4.87306
-4.87386
-4.87533
-4.87744
-4.88021
-4.8836
-4.88759
-4.89215
-4.89725
-5.02619
-5.02569
-5.02469
-5.02324
-5.02142
-5.0193
-5.01698
-5.01457
-5.01218
-5.00994
-5.00796
-5.00633
-5.00514
-5.00447
-5.00437
-5.00486
-5.00597
-5.00769
-5.01001
-5.0129
-5.01633
-5.02027
-5.02466
-5.15857
-5.15808
-5.15711
-5.15571
-5.15394
-5.15186
-5.14958
-5.1472
-5.14481
-5.14253
-5.14047
-5.13872
-5.13736
-5.13646
-5.13608
-5.13625
-5.13698
-5.13827
-5.1401
-5.14245
-5.14529
-5.14855
-5.15222
-5.29177
-5.29131
-5.29035
-5.28897
-5.2872
-5.28514
-5.28285
-5.28044
-5.27801
-5.27565
-5.27347
-5.27156
-5.27
-5.26885
-5.26817
-5.26798
-5.2683
-5.26914
-5.27047
-5.27226
-5.27446
-5.27704
-5.27994
-5.42571
-5.42528
-5.42433
-5.42296
-5.42119
-5.4191
-5.41678
-5.41431
-5.41179
-5.40931
-5.40697
-5.40487
-5.40306
-5.40163
-5.40061
-5.40005
-5.39995
-5.40031
-5.40111
-5.40232
-5.40389
-5.40576
-5.40787
-5.56013
-5.55974
-5.55881
-5.55744
-5.55567
-5.55355
-5.55118
-5.54864
-5.54602
-5.54341
-5.5409
-5.53858
-5.53652
-5.53478
-5.53341
-5.53245
-5.53191
-5.53179
-5.53206
-5.53269
-5.53362
-5.53475
-5.53605
-5.69536
-5.69514
-5.69423
-5.69284
-5.69102
-5.68885
-5.68641
-5.68376
-5.681
-5.67821
-5.67549
-5.67291
-5.67055
-5.66846
-5.6667
-5.66531
-5.66429
-5.66365
-5.66337
-5.66343
-5.66373
-5.66412
-5.66456
-13.3928
-8.02837
-9.55801
-8.1128
7.73681
-11.2721
-12.0995
-8.81067
21.6686
-20.2053
-16.1847
-10.4062
-3.77455
-26.4142
-21.5946
-10.9729
-4.27254
-17.5869
-20.3619
-9.13187
-1.28491
-3.15323
-4.61421
-5.24005
-0.0225418
0.29927
-0.928211
-2.92538
0.288114
0.673463
-0.456334
-1.90277
0.192499
0.328303
-0.47245
-1.48422
-0.156929
-0.127872
-0.665889
-1.39361
-0.563416
-0.569198
-0.936663
-1.46027
-0.93973
-0.95838
-1.21521
-1.59556
-1.27454
-1.29486
-1.47841
-1.75971
-1.57206
-1.58789
-1.72182
-1.93361
-1.83699
-1.84646
-1.94587
-2.10799
-2.07368
-2.07734
-2.15246
-2.27853
-2.28562
-2.28552
-2.344
-2.44346
-2.47675
-2.47352
-2.52336
-2.60224
-2.65064
-2.64959
-2.68815
-2.75454
-2.81063
-2.81236
-2.84491
-2.90096
-2.96029
-2.96522
-2.9943
-3.04257
-3.10262
-3.11073
-3.13765
-3.18005
-3.23987
-3.25074
-3.27622
-3.31406
-3.37364
-3.38666
-3.41105
-3.44524
-3.50501
-3.51958
-3.54298
-3.57414
-3.63473
-3.65027
-3.67269
-3.70125
-3.76331
-3.77932
-3.80072
-3.82696
-3.8911
-3.90717
-3.92747
-3.9516
-4.01837
-4.03415
-4.05328
-4.07544
-4.14528
-4.1605
-4.1784
-4.19868
-4.27195
-4.2864
-4.30301
-4.3215
-4.39847
-4.412
-4.42726
-4.44403
-4.52489
-4.53738
-4.55127
-4.56636
-4.65128
-4.66263
-4.67513
-4.68858
-4.77765
-4.78782
-4.79891
-4.81075
-4.90406
-4.91299
-4.92266
-4.93291
-5.03053
-5.03818
-5.04643
-5.05512
-5.1571
-5.16344
-5.17025
-5.17739
-5.28381
-5.28881
-5.29416
-5.29975
-5.41069
-5.41432
-5.41819
-5.42222
-5.53778
-5.54
-5.54236
-5.54481
-5.66516
-5.66592
-5.66672
-5.66756
-5.85453
-4.97602
-4.56873
-4.23369
-3.95929
-3.72985
-3.53774
-3.37619
-3.23941
-3.12354
-3.02585
-2.94295
-2.87345
-2.81665
-2.77024
-2.73405
-2.70745
-2.68996
-2.68126
-6.44669
-5.44716
-4.81228
-4.3659
-4.03322
-3.77639
-3.57351
-3.4103
-3.27541
-3.16316
-3.07214
-2.99378
-2.92889
-2.87581
-2.83304
-2.79975
-2.77534
-2.7592
-2.75118
-7.10383
-5.72629
-4.91051
-4.38837
-4.02734
-3.76391
-3.56498
-3.41185
-3.28557
-3.18264
-3.09835
-3.02811
-2.96999
-2.92243
-2.88424
-2.8546
-2.83297
-2.81818
-2.81094
-7.02327
-5.58741
-4.7637
-4.25432
-3.92129
-3.6855
-3.51061
-3.37596
-3.26805
-3.18018
-3.10789
-3.04797
-2.99839
-2.95772
-2.92502
-2.89954
-2.88013
-2.86796
-2.86187
-5.8793
-4.83419
-4.30249
-3.95486
-3.71583
-3.54378
-3.41333
-3.31089
-3.22808
-3.15986
-3.10309
-3.0557
-3.01615
-2.98347
-2.95687
-2.93579
-2.92061
-2.91066
-2.9057
-4.32903
-3.89288
-3.71291
-3.57359
-3.45723
-3.36481
-3.2892
-3.22607
-3.17264
-3.12698
-3.08785
-3.05434
-3.02591
-3.00171
-2.98193
-2.96641
-2.95495
-2.94738
-2.94361
-3.13342
-3.13999
-3.18968
-3.20692
-3.19797
-3.17993
-3.15777
-3.13408
-3.11049
-3.08786
-3.06677
-3.04741
-3.02994
-3.01505
-3.00248
-2.99234
-2.98471
-2.97961
-2.97706
-2.39324
-2.62298
-2.79506
-2.9072
-2.97416
-3.01385
-3.03604
-3.04676
-3.05014
-3.04872
-3.04444
-3.0387
-3.03243
-3.0262
-3.02045
-3.0155
-3.01161
-3.00893
-3.00757
-2.02975
-2.31256
-2.53051
-2.69007
-2.80224
-2.88076
-2.93536
-2.97283
-2.9981
-3.01489
-3.02558
-3.03204
-3.03562
-3.03732
-3.03783
-3.0377
-3.0373
-3.03689
-3.03665
-1.86439
-2.14814
-2.3751
-2.55154
-2.68531
-2.78601
-2.86149
-2.91779
-2.9596
-2.99053
-3.01327
-3.02986
-3.04186
-3.05044
-3.05646
-3.0606
-3.06331
-3.06494
-3.0657
-1.84181
-2.09349
-2.30582
-2.47969
-2.61891
-2.72921
-2.81599
-2.8839
-2.93683
-2.97795
-3.00976
-3.03427
-3.05303
-3.06726
-3.07789
-3.08563
-3.091
-3.09438
-3.09601
-1.89898
-2.11184
-2.3
-2.46106
-2.59576
-2.7069
-2.79769
-2.87133
-2.9307
-2.97836
-3.01642
-3.04665
-3.07049
-3.08908
-3.10334
-3.11396
-3.12149
-3.1263
-3.12864
-2.00003
-2.17646
-2.33854
-2.48255
-2.60742
-2.71396
-2.80375
-2.87871
-2.94083
-2.99196
-3.03378
-3.06773
-3.09505
-3.11677
-3.1337
-3.1465
-3.15568
-3.16159
-3.16448
-2.12446
-2.26958
-2.4072
-2.53336
-2.6461
-2.74504
-2.83067
-2.90393
-2.96602
-3.01822
-3.06174
-3.09771
-3.12712
-3.15083
-3.16955
-3.18386
-3.19421
-3.20091
-3.2042
-2.26048
-2.37974
-2.49585
-2.6051
-2.70524
-2.79525
-2.87492
-2.94453
-3.00468
-3.05616
-3.09979
-3.13639
-3.16673
-3.19148
-3.21121
-3.22643
-3.23751
-3.24472
-3.24827
-2.40138
-2.49967
-2.59747
-2.69152
-2.77959
-2.86037
-2.93325
-2.99808
-3.05506
-3.10458
-3.14715
-3.18333
-3.21366
-3.23866
-3.25877
-3.27438
-3.28581
-3.29329
-3.29698
-2.54335
-2.62478
-2.70729
-2.78808
-2.86508
-2.93694
-3.00284
-3.06237
-3.11546
-3.16222
-3.20293
-3.23791
-3.26753
-3.29215
-3.31212
-3.32772
-3.33919
-3.34673
-3.35046
-2.68425
-2.75219
-2.82207
-2.89149
-2.95863
-3.0222
-3.08132
-3.13543
-3.1843
-3.22785
-3.26617
-3.29942
-3.32784
-3.35164
-3.37107
-3.38633
-3.3976
-3.40503
-3.40871
-2.82292
-2.88016
-2.93966
-2.99944
-3.05796
-3.11403
-3.16678
-3.21562
-3.2602
-3.30033
-3.33598
-3.36718
-3.39405
-3.41671
-3.43531
-3.45
-3.46089
-3.46808
-3.47165
-2.959
-3.0077
-3.05867
-3.11034
-3.1614
-3.21079
-3.2577
-3.30156
-3.34196
-3.37866
-3.41151
-3.44049
-3.46561
-3.48692
-3.50451
-3.51845
-3.52882
-3.53569
-3.53911
-3.09233
-3.13427
-3.17825
-3.22312
-3.26776
-3.31126
-3.35291
-3.39217
-3.42861
-3.46195
-3.49202
-3.51871
-3.54198
-3.56183
-3.57828
-3.59137
-3.60114
-3.60762
-3.61085
-3.22327
-3.25959
-3.29778
-3.3371
-3.37618
-3.41454
-3.4515
-3.48656
-3.51932
-3.54948
-3.57684
-3.60126
-3.62267
-3.641
-3.65626
-3.66844
-3.67755
-3.68361
-3.68663
-3.35202
-3.3838
-3.41726
-3.4516
-3.48602
-3.51995
-3.55275
-3.58404
-3.61341
-3.6406
-3.6654
-3.68763
-3.7072
-3.72403
-3.73807
-3.74932
-3.75775
-3.76338
-3.76617
-3.47889
-3.50693
-3.53639
-3.56661
-3.59698
-3.62698
-3.65614
-3.68405
-3.71035
-3.73481
-3.7572
-3.77735
-3.79515
-3.81051
-3.82337
-3.83369
-3.84144
-3.84662
-3.84919
-3.6042
-3.6291
-3.65517
-3.68189
-3.70878
-3.73537
-3.76129
-3.78616
-3.80968
-3.83168
-3.85182
-3.87002
-3.88614
-3.9001
-3.91181
-3.92123
-3.92831
-3.93305
-3.9354
-3.72825
-3.75047
-3.77366
-3.79737
-3.82123
-3.84485
-3.8679
-3.89007
-3.9111
-3.93077
-3.94887
-3.96528
-3.97984
-3.99247
-4.00308
-4.01164
-4.01809
-4.02242
-4.02451
-3.85132
-3.87123
-3.8919
-3.91301
-3.93422
-3.95523
-3.97574
-3.9955
-4.01428
-4.03187
-4.0481
-4.06283
-4.07593
-4.08731
-4.0969
-4.10465
-4.11049
-4.11447
-4.11624
-3.97362
-3.9915
-4.00999
-4.02881
-4.04769
-4.06638
-4.08464
-4.10224
-4.11898
-4.13469
-4.14921
-4.1624
-4.17416
-4.18439
-4.19302
-4.19999
-4.20526
-4.2088
-4.21049
-4.09536
-4.11143
-4.12797
-4.14476
-4.16158
-4.17822
-4.19446
-4.21012
-4.22503
-4.23903
-4.25198
-4.26376
-4.27428
-4.28344
-4.29118
-4.29743
-4.30216
-4.30534
-4.30689
-4.21668
-4.23112
-4.24593
-4.2609
-4.27587
-4.29066
-4.30509
-4.319
-4.33225
-4.3447
-4.35622
-4.36672
-4.37609
-4.38426
-4.39117
-4.39676
-4.40098
-4.40382
-4.40522
-4.33773
-4.35068
-4.36389
-4.37723
-4.39053
-4.40365
-4.41644
-4.42877
-4.44051
-4.45154
-4.46176
-4.47107
-4.47939
-4.48665
-4.49279
-4.49776
-4.50152
-4.50404
-4.50529
-4.45859
-4.47016
-4.48192
-4.49376
-4.50553
-4.51713
-4.52844
-4.53932
-4.54968
-4.55942
-4.56844
-4.57666
-4.58401
-4.59043
-4.59585
-4.60025
-4.60357
-4.60581
-4.60692
-4.57935
-4.58963
-4.60005
-4.6105
-4.62088
-4.63108
-4.64101
-4.65057
-4.65967
-4.66821
-4.67613
-4.68335
-4.6898
-4.69543
-4.70019
-4.70405
-4.70698
-4.70894
-4.70992
-4.70008
-4.70914
-4.71829
-4.72745
-4.73653
-4.74545
-4.75411
-4.76244
-4.77037
-4.77781
-4.7847
-4.79099
-4.7966
-4.80151
-4.80566
-4.80902
-4.81156
-4.81327
-4.81414
-4.82081
-4.82871
-4.83667
-4.84462
-4.85248
-4.86019
-4.86767
-4.87486
-4.8817
-4.88811
-4.89405
-4.89946
-4.9043
-4.90852
-4.91209
-4.91499
-4.91718
-4.91865
-4.91941
-4.94158
-4.94837
-4.9552
-4.96199
-4.96871
-4.97527
-4.98165
-4.98776
-4.99357
-4.99902
-5.00406
-5.00865
-5.01276
-5.01634
-5.01937
-5.02183
-5.02369
-5.02494
-5.02558
-5.06243
-5.06814
-5.07387
-5.07956
-5.08518
-5.09066
-5.09598
-5.10107
-5.10591
-5.11044
-5.11464
-5.11846
-5.12187
-5.12485
-5.12737
-5.12941
-5.13095
-5.13199
-5.13254
-5.18337
-5.18803
-5.19269
-5.19732
-5.20187
-5.20632
-5.21062
-5.21474
-5.21865
-5.22231
-5.22569
-5.22877
-5.23152
-5.23392
-5.23596
-5.2376
-5.23885
-5.23968
-5.24013
-5.30441
-5.30804
-5.31165
-5.31524
-5.31876
-5.3222
-5.32552
-5.3287
-5.33171
-5.33453
-5.33713
-5.3395
-5.34162
-5.34346
-5.34503
-5.34629
-5.34725
-5.34789
-5.34825
-5.42556
-5.42816
-5.43075
-5.43331
-5.43582
-5.43827
-5.44063
-5.44289
-5.44503
-5.44703
-5.44887
-5.45055
-5.45205
-5.45336
-5.45447
-5.45537
-5.45605
-5.45649
-5.45676
-5.54683
-5.5484
-5.54996
-5.5515
-5.55301
-5.55448
-5.5559
-5.55725
-5.55853
-5.55973
-5.56083
-5.56184
-5.56273
-5.56351
-5.56418
-5.56471
-5.56512
-5.56538
-5.56555
-5.66824
-5.66877
-5.6693
-5.66982
-5.67033
-5.67082
-5.67129
-5.67175
-5.67217
-5.67257
-5.67294
-5.67328
-5.67357
-5.67383
-5.67405
-5.67423
-5.67437
-5.67445
-5.67451
)
;

boundaryField
{
    leftWall
    {
        type            calculated;
        value           nonuniform List<scalar> 
50
(
2493.6
2433.45
2372.01
2309.3
2245.34
2180.17
2113.82
2046.38
1939.32
1789.43
1636.11
1480.15
1322.4
1163.7
1004.88
846.591
689.591
534.772
381.958
230.844
90.0757
11.158
-2.53364
-2.65978
-2.7768
-2.88513
-2.98555
-3.08086
-3.17415
-3.26754
-3.36269
-3.46078
-3.56263
-3.66876
-3.77915
-3.8934
-4.01098
-4.13142
-4.25429
-4.37925
-4.50599
-4.63427
-4.76386
-4.89457
-5.02619
-5.15857
-5.29177
-5.42571
-5.56013
-5.69536
)
;
    }
    rightWall
    {
        type            calculated;
        value           nonuniform List<scalar> 
50
(
-2.28431
-2.34047
-2.39396
-2.44478
-2.49295
-2.5385
-2.58148
-2.62194
-2.68126
-2.75118
-2.81094
-2.86187
-2.9057
-2.94361
-2.97706
-3.00757
-3.03665
-3.0657
-3.09601
-3.12864
-3.16448
-3.2042
-3.24827
-3.29698
-3.35046
-3.40871
-3.47165
-3.53911
-3.61085
-3.68663
-3.76617
-3.84919
-3.9354
-4.02451
-4.11624
-4.21049
-4.30689
-4.40522
-4.50529
-4.60692
-4.70992
-4.81414
-4.91941
-5.02558
-5.13254
-5.24013
-5.34825
-5.45676
-5.56555
-5.67451
)
;
    }
    lowerWall
    {
        type            calculated;
        value           nonuniform List<scalar> 
62
(
2523.03
2527.07
2522.12
2510.78
2495.5
2476.55
2453.32
2425.37
2392.49
2354.65
2312.34
2266.85
2220.78
2179
2149.93
2147.54
2193.78
2324.37
2565.64
2941.55
3407.65
3814.98
4081.49
4061.43
4097.43
4101.9
4022.09
3826.3
3483.99
2905.5
2002.68
-4.85929
-7.9656
-9.49538
-8.0502
-3.8172
-3.89102
-3.98247
-4.09464
-4.23507
-4.41783
-4.676
-4.99961
-3.78777
-3.74037
-3.6523
-3.53309
-3.39655
-3.25269
-3.11012
-2.97444
-2.849
-2.73555
-2.63481
-2.54686
-2.47139
-2.40795
-2.35602
-2.31512
-2.28482
-2.26482
-2.25488
)
;
    }
    atmosphere
    {
        type            calculated;
        value           nonuniform List<scalar> 
46
(
-5.76345
-5.76354
-5.76258
-5.76115
-5.75929
-5.75707
-5.75456
-5.75183
-5.74897
-5.74606
-5.7432
-5.74046
-5.73792
-5.73563
-5.73365
-5.732
-5.73072
-5.72981
-5.72925
-5.72904
-5.72904
-5.72904
-5.72904
-5.72904
-5.72904
-5.72904
-5.72904
-5.72904
-5.72904
-5.72904
-5.72904
-5.72904
-5.72904
-5.72904
-5.72904
-5.72904
-5.72904
-5.72904
-5.72904
-5.72904
-5.72904
-5.72904
-5.72904
-5.72904
-5.72904
-5.72904
)
;
    }
    defaultFaces
    {
        type            empty;
    }
}


// ************************************************************************* //
