/*--------------------------------*- C++ -*----------------------------------*\
| =========                 |                                                 |
| \\      /  F ield         | OpenFOAM: The Open Source CFD Toolbox           |
|  \\    /   O peration     | Version:  2206                                  |
|   \\  /    A nd           | Website:  www.openfoam.com                      |
|    \\/     M anipulation  |                                                 |
\*---------------------------------------------------------------------------*/
FoamFile
{
    version     2.0;
    format      ascii;
    arch        "LSB;label=32;scalar=64";
    class       volScalarField;
    location    "0.15";
    object      p_rgh;
}
// * * * * * * * * * * * * * * * * * * * * * * * * * * * * * * * * * * * * * //

dimensions      [1 -1 -2 0 0 0 0];

internalField   nonuniform List<scalar> 
2268
(
2523.03
2527.07
2522.12
2510.78
2495.5
2476.55
2453.32
2425.37
2392.49
2354.65
2312.34
2266.85
2220.78
2179
2149.93
2147.54
2193.78
2324.37
2565.64
2941.55
3407.65
3814.98
4081.49
2521.74
2525.72
2520.68
2509.32
2494.03
2475.02
2451.67
2423.56
2390.41
2352.2
2309.33
2263.03
2215.77
2172.2
2140.45
2133.88
2172.98
2283
2503.33
2859.31
3341.2
3815.09
4161.04
2519.16
2523.01
2517.8
2506.41
2491.09
2471.95
2448.38
2419.93
2386.28
2347.31
2303.35
2255.43
2205.78
2158.64
2121.57
2106.91
2133.67
2228.16
2426.41
2753.14
3217.41
3749.51
4209.79
2515.3
2518.98
2513.53
2502.07
2486.7
2467.38
2443.48
2414.53
2380.14
2340.06
2294.47
2244.16
2190.96
2138.55
2093.61
2067.12
2076.36
2147.2
2315.94
2613.57
3056.92
3614.95
4181.66
2510.2
2513.66
2507.92
2496.36
2480.91
2461.35
2437.03
2407.44
2372.06
2330.54
2282.84
2229.41
2171.57
2112.26
2057.02
2014.95
2000.82
2038.61
2165.23
2419.19
2834.37
3401.82
4075.22
2503.89
2507.08
2501.01
2489.33
2473.77
2453.93
2429.11
2398.72
2362.17
2318.9
2268.64
2211.43
2147.94
2080.22
2012.4
1951.11
1907.61
1902.09
1969.65
2149.64
2504.85
3071.34
3807.6
2496.41
2499.27
2492.82
2480.99
2465.29
2445.13
2419.73
2388.44
2350.52
2305.25
2252.04
2190.47
2120.49
2043.09
1960.64
1876.73
1798.27
1739.19
1725.62
1780.48
1994.62
2532.12
3285.98
2487.82
2490.2
2483.34
2471.35
2455.51
2434.99
2408.94
2376.63
2337.2
2289.7
2233.22
2166.83
2089.69
2001.62
1902.9
1793.84
1675.64
1550.59
1424.68
1276.28
1189.31
1727.68
2438.37
-3.78777
-3.74037
-3.6523
-3.53309
-3.39655
-3.25269
-3.11012
-2.97444
-2.849
-2.73555
-2.63481
-2.54686
-2.47139
-2.40795
-2.35602
-2.31512
-2.28482
-2.26482
-2.25488
-3.80273
-3.75273
-3.66127
-3.53872
-3.3987
-3.25255
-3.10847
-2.97187
-2.84592
-2.73226
-2.63147
-2.54356
-2.4682
-2.40487
-2.35306
-2.31226
-2.28205
-2.2621
-2.25218
-3.83533
-3.77802
-3.67882
-3.54886
-3.40272
-3.25204
-3.10499
-2.96659
-2.83968
-2.7256
-2.62473
-2.53693
-2.46178
-2.3987
-2.34713
-2.30654
-2.2765
-2.25667
-2.24681
-3.88864
-3.81768
-3.70564
-3.56385
-3.40828
-3.25083
-3.09938
-2.95838
-2.8301
-2.71546
-2.61453
-2.52693
-2.45211
-2.38943
-2.33823
-2.29797
-2.26819
-2.24854
-2.23877
-3.97021
-3.87424
-3.7424
-3.58347
-3.41482
-3.24836
-3.09121
-2.94692
-2.81699
-2.70172
-2.60078
-2.51352
-2.4392
-2.37706
-2.32637
-2.28655
-2.25713
-2.23773
-2.22808
-4.0941
-3.95172
-3.79062
-3.60713
-3.42142
-3.24382
-3.07988
-2.93179
-2.80006
-2.6842
-2.58341
-2.49666
-2.42301
-2.3616
-2.31158
-2.27233
-2.24336
-2.22427
-2.21478
-4.29341
-4.05529
-3.84826
-3.63307
-3.42674
-3.23614
-3.06463
-2.91251
-2.77899
-2.6627
-2.56231
-2.47631
-2.40354
-2.34307
-2.29388
-2.25533
-2.22691
-2.20821
-2.1989
-4.55817
-4.16947
-3.9107
-3.65941
-3.42934
-3.22423
-3.04465
-2.88857
-2.75348
-2.63705
-2.53741
-2.45242
-2.38077
-2.32152
-2.27332
-2.23559
-2.20783
-2.1896
-2.1805
2472.79
2474.18
2466.84
2454.55
2438.39
2417.24
2390.08
2356.04
2314.03
2262.73
2200.7
2126.11
2036.77
1930.5
1804.62
1654.41
1466.92
1213.43
835.763
415.09
267.116
501.276
846.85
2448.09
2448.31
2440.21
2427.54
2410.83
2388.65
2359.82
2323.23
2277.4
2220.44
2150.15
2063.3
1955.67
1823.02
1660.19
1451.43
1163.67
686.879
157.691
28.5078
43.3187
87.6862
643.896
2419.96
2418.89
2410.04
2397.06
2379.81
2356.61
2326.17
2287.15
2237.64
2175.28
2097.08
1998.22
1873.06
1717.82
1522.23
1251.28
734.388
104.489
5.72064
4.25021
6.59561
16.6415
280.964
2389.2
2386.83
2377.36
2364.18
2346.46
2322.39
2290.62
2249.58
2196.97
2130.08
2045.06
1935.37
1796.15
1624.38
1393.6
964.106
159.551
4.36487
0.363281
0.192938
0.629484
2.27784
9.26085
2356.64
2353.02
2343.16
2329.9
2311.86
2287.2
2254.58
2212.19
2157.48
2087.55
1997.23
1879.12
1731.5
1541.88
1271.2
341.66
5.88966
0.393969
-0.141486
-0.125955
0.0286581
0.357476
1.59251
2323.14
2318.42
2308.42
2295.23
2277.08
2252.23
2219.38
2176.54
2121.13
2050.07
1956.46
1834.7
1683.36
1468.67
718.847
21.0915
0.884023
0.0578544
0.0202703
0.0764521
0.232746
0.433204
0.554554
2289.52
2283.87
2274.02
2261.03
2243.04
2218.45
2186.07
2143.8
2089.36
2019.18
1925.43
1807.28
1651.84
1362.72
206.198
1.95658
0.196588
0.179152
0.204956
0.280835
0.425321
0.607912
0.647364
2256.42
2250.02
2240.59
2227.96
2210.41
2186.58
2155.42
2114.83
2063.13
1995.81
1906.62
1798
1634.21
642.209
4.25349
0.41626
0.258691
0.306575
0.354696
0.444041
0.577398
0.735238
0.94763
2224.61
2217.66
2208.9
2196.76
2179.94
2157.31
2127.97
2090.02
2042.38
1979.78
1899.88
1800.16
1606.71
188.719
1.23237
0.409458
0.459044
0.446929
0.484528
0.559906
0.689896
0.868696
1.12026
2194.98
2187.58
2179.64
2168.01
2152.07
2130.83
2103.5
2068.44
2025.23
1969.2
1900.82
1806.89
1051.7
25.5205
0.837748
0.72675
0.623215
0.558636
0.563465
0.613136
0.726796
0.897006
1.11632
2167.27
2159.29
2152.26
2141.11
2126.18
2106.51
2081.46
2048.96
2009.82
1960.93
1901.19
1744.82
577.349
5.13199
1.20508
1.02189
0.729827
0.602744
0.567169
0.596635
0.687562
0.821523
0.990577
2140.24
2130.89
2125.02
2114.16
2099.93
2081.56
2055.47
1992.64
1854.27
1566.57
1138.05
592.914
143.661
28.3981
1.53519
1.08171
0.686709
0.529041
0.48732
0.51517
0.593352
0.70084
0.827555
1935.48
1846.42
1822.01
1742.09
1621.1
1447.33
1210.15
870.576
535.66
218.789
7.7188
-1.22428
-1.00253
38.5933
14.7671
0.712216
0.348991
0.300516
0.318147
0.378134
0.463122
0.56454
0.664307
479.346
369.853
341.857
267.471
180.851
90.6299
7.6821
-0.700636
-0.99107
-1.29727
-1.40205
-1.45823
-1.39344
20.2469
22.9663
1.2677
-0.366754
-0.0769235
0.0785758
0.204061
0.319355
0.424348
0.51364
-0.247448
-0.251033
-0.284925
-0.336664
-0.413963
-0.516318
-0.599466
-0.710987
-0.918633
-1.18504
-1.45911
-1.74408
-1.90296
-2.06208
23.0733
2.8313
-1.07826
-0.447505
-0.169602
0.0325764
0.181645
0.297004
0.383113
-0.248397
-0.258926
-0.285175
-0.326669
-0.385223
-0.460994
-0.550043
-0.672017
-0.861771
-1.14639
-1.54104
-2.03013
-2.33827
-2.34633
14.4566
1.58392
-1.39879
-0.706694
-0.351715
-0.0999441
0.0695364
0.191864
0.276514
-0.240225
-0.251733
-0.272001
-0.304134
-0.34903
-0.408569
-0.487552
-0.601821
-0.781051
-1.08867
-1.56324
-1.72559
-1.60516
-1.65146
1.8854
-1.31255
-1.4227
-0.804006
-0.432096
-0.175062
-0.00529233
0.114586
0.19462
-0.223353
-0.232112
-0.247644
-0.271433
-0.30472
-0.349716
-0.4124
-0.505159
-0.656217
-0.947798
-1.43871
-0.437386
0.482492
0.434034
0.0153636
-2.01167
-1.19841
-0.732004
-0.413894
-0.192491
-0.0417245
0.0651927
0.135881
-0.198586
-0.204321
-0.215396
-0.232
-0.254824
-0.285657
-0.328727
-0.391217
-0.495321
-0.717202
-1.12647
-0.0835342
1.27037
0.789522
-1.72156
-1.3931
-0.871215
-0.564928
-0.334985
-0.167945
-0.0478984
0.0389123
0.0966645
-0.168694
-0.172291
-0.179256
-0.189671
-0.203663
-0.222183
-0.247447
-0.282048
-0.33874
-0.463857
-0.697038
-0.992024
-1.12722
-1.04359
-1.11123
-0.838238
-0.568085
-0.38992
-0.24039
-0.124459
-0.0366587
0.0283767
0.0720987
-0.136794
-0.138745
-0.142457
-0.147918
-0.155087
-0.164368
-0.176891
-0.19335
-0.219052
-0.275251
-0.384446
-0.52612
-0.631649
-0.642196
-0.576132
-0.462916
-0.346232
-0.248256
-0.15613
-0.0796491
-0.0191716
0.0265384
0.0573361
-0.104985
-0.105666
-0.107007
-0.108857
-0.111176
-0.114179
-0.118553
-0.124734
-0.134906
-0.157155
-0.20106
-0.261316
-0.308592
-0.318097
-0.292252
-0.251119
-0.200267
-0.14567
-0.0903403
-0.0416381
-0.00185166
0.0284934
0.0485564
-0.0749386
-0.0747365
-0.0744624
-0.0739242
-0.0731
-0.0721864
-0.0716603
-0.0719854
-0.0745869
-0.0833508
-0.102355
-0.129501
-0.153947
-0.165282
-0.158962
-0.13748
-0.108173
-0.0754909
-0.0423819
-0.0122432
0.0127246
0.0315359
0.0432209
-0.0478418
-0.0471458
-0.0458579
-0.0438943
-0.0412432
-0.038124
-0.0349179
-0.0320665
-0.0306549
-0.0330253
-0.0411059
-0.0532861
-0.0649885
-0.0725634
-0.0730117
-0.0636898
-0.0472859
-0.0281153
-0.00861569
0.00931745
0.0239587
0.0344011
0.0398031
-0.0244921
-0.0235848
-0.0217512
-0.0190477
-0.0154946
-0.0113125
-0.00684452
-0.00250801
0.000878404
0.00186655
-0.000680658
-0.00603908
-0.0119108
-0.0162149
-0.0171362
-0.0133313
-0.00558794
0.00436959
0.0149365
0.024634
0.032114
0.0366027
0.0374255
-0.00542752
-0.00444168
-0.00238931
0.000607611
0.00447744
0.00901144
0.0138874
0.0186996
0.0227975
0.0252685
0.0254519
0.0235636
0.0206545
0.0181049
0.0172123
0.0186659
0.0219245
0.0263214
0.031069
0.0351779
0.0377057
0.0380201
0.0355899
0.0093781
0.0103889
0.0124579
0.0154785
0.0193326
0.0238231
0.0286562
0.0334609
0.0377216
0.0408352
0.0423795
0.0423517
0.0411922
0.0396785
0.0386174
0.0384306
0.0392632
0.0404652
0.0415751
0.042018
0.0412032
0.0386657
0.0340055
0.0203229
0.0213195
0.0232929
0.026182
0.0298422
0.0340843
0.0386448
0.043194
0.0473211
0.0505897
0.0526873
0.0535442
0.0533544
0.0525234
0.0514926
0.0505506
0.0498105
0.049019
0.0478582
0.0459749
0.0429944
0.0385968
0.032497
0.0279299
0.0288722
0.0307002
0.0333792
0.0367609
0.040667
0.044863
0.0490617
0.0529322
0.0561438
0.0584414
0.0597089
0.0600018
0.0595326
0.0585642
0.0572513
0.0556319
0.0536133
0.051062
0.0477471
0.0434315
0.0379033
0.0309661
0.0326914
0.0335514
0.035224
0.0376673
0.0407458
0.0442958
0.0481086
0.0519364
0.0555053
0.0585486
0.0608504
0.0622829
0.0628259
0.0625623
0.0616279
0.0601154
0.0580413
0.0554031
0.0520382
0.0478935
0.0428248
0.0366935
0.0293684
0.0350169
0.0357869
0.0373136
0.0395296
0.042317
0.0455292
0.0489802
0.0524567
0.0557279
0.0585697
0.0607918
0.0622628
0.062923
0.0627823
0.0618938
0.0603074
0.0580539
0.0552055
0.051367
0.0468217
0.04142
0.0350696
0.027689
0.0352509
0.0359404
0.0373379
0.0393524
0.0418808
0.044794
0.0479266
0.0510939
0.0540974
0.0567433
0.0588612
0.060321
0.0610419
0.0609924
0.0601757
0.0586045
0.0562692
0.0530893
0.0494001
0.0448267
0.0394053
0.0331168
0.0259254
0.0336975
0.034323
0.0356087
0.0374528
0.0397622
0.0424238
0.0452907
0.0482008
0.0509806
0.0534591
0.0554821
0.0569233
0.0576924
0.0577352
0.0570269
0.0555609
0.0533337
0.0503381
0.0466506
0.0421838
0.0369366
0.0309053
0.0240797
0.0306194
0.0311972
0.0323889
0.0340938
0.0362258
0.0386854
0.0413411
0.0440487
0.0466544
0.0490054
0.050961
0.0524005
0.0532301
0.0533845
0.0528242
0.051531
0.0495004
0.0467352
0.043259
0.0390449
0.0341181
0.0284851
0.0221523
0.0262236
0.0267674
0.0278829
0.0294789
0.0314751
0.033782
0.0362809
0.0388415
0.0413258
0.0435957
0.0455218
0.0469897
0.0479059
0.0482004
0.0478264
0.0467581
0.0449863
0.0425131
0.0393449
0.0355141
0.0310191
0.025887
0.0201388
0.0207009
0.02122
0.0222743
0.023787
0.0256837
0.0278817
0.0302728
0.0327382
0.0351523
0.037389
0.0393278
0.0408607
0.0418962
0.0423633
0.0422118
0.0414114
0.0399498
0.0378306
0.0350654
0.031676
0.0276854
0.0231266
0.0180289
0.0142786
0.0147791
0.0157839
0.0172312
0.0190544
0.0211749
0.0234941
0.025903
0.0282863
0.0305276
0.0325146
0.0341448
0.0353301
0.0359998
0.0361026
0.0356058
0.0344955
0.0327751
0.0304589
0.0275686
0.0241376
0.0202046
0.0158056
0.00709521
0.00758034
0.00855173
0.00995348
0.0117292
0.0138025
0.0160828
0.0184691
0.0208548
0.0231315
0.0251945
0.0269472
0.0283056
0.029201
0.0295822
0.0294157
0.0286864
0.0273969
0.0255629
0.0232103
0.0203789
0.0171098
0.0134453
-0.000911437
-0.000447955
0.000510156
0.00189281
0.00365473
0.005721
0.00800684
0.0104172
0.0128514
0.0152075
0.0173866
0.0192974
0.0208601
0.0220084
0.0226926
0.0228798
0.022555
0.02172
0.0203921
0.0185999
0.016396
0.0138187
0.0109176
-0.00966111
-0.00923035
-0.00827962
-0.00690295
-0.00513534
-0.00304931
-0.000725628
0.00174514
0.00426711
0.00674309
0.0090788
0.0111868
0.0129899
0.0144239
0.0154401
0.0160064
0.0161081
0.0157476
0.0149435
0.0137318
0.0121621
0.0102956
0.00818314
-0.0188768
-0.0184917
-0.0175619
-0.0161931
-0.0144169
-0.0123045
-0.00993437
-0.00739285
-0.00477095
-0.00216098
0.000347101
0.00266919
0.00473038
0.00646794
0.00783366
0.00879543
0.00933802
0.00946319
0.00919049
0.00855868
0.00763121
0.00649358
0.00519753
-0.0289152
-0.0286947
-0.0277826
-0.0263953
-0.0245813
-0.022412
-0.0199626
-0.0173146
-0.0145543
-0.0117694
-0.00904626
-0.00646623
-0.00410263
-0.00201764
-0.000259918
0.00113703
0.00215565
0.00279469
0.00306911
0.00300823
0.00270839
0.00231991
0.00187787
59.3313
-7.49347
-9.02422
-7.57933
165.242
-10.6111
-11.4393
-8.15156
261.105
-9.01889
-15.2903
-9.60492
154.844
27.7708
-20.5019
-9.98076
15.122
37.6574
-10.4515
-8.02944
3.67574
7.0549
-0.190138
-4.02964
2.43333
2.29399
0.707028
-1.61584
1.99749
2.24724
0.998627
-0.489533
1.79251
1.89355
1.06739
0.0512892
1.51475
1.53705
0.994928
0.266677
1.22371
1.21686
0.848835
0.325153
0.971105
0.952306
0.695403
0.315043
0.76129
0.740955
0.557392
0.276096
0.588941
0.573108
0.439178
0.227385
0.449205
0.439734
0.340325
0.178204
0.337709
0.33404
0.25893
0.132853
0.250962
0.251064
0.192577
0.0931182
0.185021
0.188254
0.138413
0.0595381
0.136328
0.137374
0.0988154
0.0324265
0.101536
0.0998039
0.0672569
0.0112036
0.0770705
0.0721352
0.0430571
-0.00521405
0.0599365
0.0518248
0.0249061
-0.017499
0.047879
0.0370111
0.0115282
-0.0263124
0.0393053
0.0262769
0.00189445
-0.0322954
0.0331262
0.0185579
-0.00484247
-0.0360033
0.0286004
0.0130642
-0.00936019
-0.0379154
0.0252167
0.00920864
-0.0121916
-0.0384316
0.022616
0.00655239
-0.0137532
-0.0378798
0.0205459
0.00476729
-0.0143689
-0.0365243
0.018832
0.00360952
-0.0142887
-0.034576
0.017355
0.00289855
-0.0137047
-0.0322014
0.0160309
0.00249973
-0.0127645
-0.0295313
0.0147984
0.00231102
-0.0115822
-0.0266681
0.0136104
0.00225339
-0.0102468
-0.0236922
0.0124274
0.00226386
-0.00882823
-0.0206662
0.0112142
0.00229054
-0.00738255
-0.0176387
0.00993678
0.00228903
-0.00595519
-0.0146477
0.00856082
0.00221971
-0.00458408
-0.011723
0.0070504
0.0020459
-0.00330161
-0.00888802
0.00536562
0.00173103
-0.00213766
-0.0061628
0.00346738
0.00124385
-0.00111431
-0.00355851
0.00128507
0.000523997
-0.000281568
-0.00111369
-5.32107
-4.44255
-4.03526
-3.70022
-3.42582
-3.19638
-3.00427
-2.84272
-2.70595
-2.59007
-2.49239
-2.40949
-2.33998
-2.28319
-2.23678
-2.20058
-2.17398
-2.15649
-2.1478
-5.78803
-4.78849
-4.15362
-3.70724
-3.37456
-3.11773
-2.91485
-2.75164
-2.61675
-2.5045
-2.41348
-2.33512
-2.27023
-2.21715
-2.17438
-2.14109
-2.11667
-2.10054
-2.09251
-6.31852
-4.94238
-4.12665
-3.60451
-3.24349
-2.98005
-2.78112
-2.62799
-2.50171
-2.39878
-2.31449
-2.24425
-2.18613
-2.13858
-2.10038
-2.07075
-2.04911
-2.03432
-2.02708
-6.10468
-4.67782
-3.85464
-3.34527
-3.01224
-2.77645
-2.60156
-2.46691
-2.359
-2.27113
-2.19884
-2.13892
-2.08934
-2.04867
-2.01597
-1.99049
-1.97108
-1.95891
-1.95282
-4.84045
-3.79972
-3.26824
-2.92061
-2.68159
-2.50954
-2.37909
-2.27664
-2.19383
-2.12561
-2.06885
-2.02145
-1.9819
-1.94923
-1.92263
-1.90155
-1.88637
-1.87641
-1.87146
-3.16457
-2.73309
-2.55345
-2.41415
-2.29779
-2.20537
-2.12976
-2.06663
-2.0132
-1.96754
-1.92841
-1.8949
-1.86647
-1.84227
-1.82249
-1.80697
-1.79551
-1.78794
-1.78417
-1.84714
-1.85522
-1.90504
-1.92228
-1.91333
-1.89529
-1.87313
-1.84945
-1.82586
-1.80322
-1.78214
-1.76278
-1.7453
-1.73042
-1.71785
-1.70771
-1.70008
-1.69498
-1.69242
-0.983103
-1.21313
-1.38523
-1.49737
-1.56433
-1.60402
-1.62621
-1.63693
-1.64031
-1.63889
-1.63461
-1.62887
-1.6226
-1.61638
-1.61062
-1.60567
-1.60178
-1.5991
-1.59774
-0.494678
-0.777536
-0.995486
-1.15504
-1.26721
-1.34574
-1.40034
-1.43781
-1.46308
-1.47987
-1.49056
-1.49701
-1.5006
-1.50229
-1.50281
-1.50268
-1.50228
-1.50187
-1.50162
-0.204162
-0.487926
-0.714884
-0.891321
-1.02509
-1.12579
-1.20127
-1.25757
-1.29938
-1.33031
-1.35305
-1.36964
-1.38164
-1.39022
-1.39625
-1.40038
-1.4031
-1.40473
-1.40549
-0.0563945
-0.308078
-0.52041
-0.694274
-0.833493
-0.943794
-1.03058
-1.09849
-1.15142
-1.19253
-1.22435
-1.24886
-1.26762
-1.28185
-1.29248
-1.30022
-1.30559
-1.30897
-1.3106
0.0116304
-0.201229
-0.389395
-0.550451
-0.685157
-0.796289
-0.887084
-0.960718
-1.0201
-1.06775
-1.10581
-1.13604
-1.15988
-1.17847
-1.19273
-1.20336
-1.21089
-1.2157
-1.21803
0.0357701
-0.140658
-0.302742
-0.446752
-0.571622
-0.678154
-0.767945
-0.842912
-0.905029
-0.956159
-0.997974
-1.03193
-1.05925
-1.08096
-1.0979
-1.1107
-1.11988
-1.12579
-1.12868
0.0365357
-0.108584
-0.246205
-0.372362
-0.485104
-0.584049
-0.669671
-0.742931
-0.805027
-0.857223
-0.900743
-0.936712
-0.966125
-0.989836
-1.00856
-1.02287
-1.03321
-1.03992
-1.04321
0.0257068
-0.0935509
-0.209657
-0.318906
-0.419046
-0.509064
-0.58873
-0.658336
-0.718491
-0.769969
-0.813601
-0.850204
-0.88054
-0.905285
-0.925024
-0.94024
-0.951315
-0.958531
-0.962083
0.0100008
-0.0882851
-0.186087
-0.280137
-0.368201
-0.448986
-0.521867
-0.5867
-0.643677
-0.693197
-0.73577
-0.771947
-0.802277
-0.82727
-0.847381
-0.862995
-0.874425
-0.881904
-0.885594
-0.00677175
-0.088199
-0.170711
-0.251498
-0.328499
-0.400359
-0.466257
-0.525793
-0.578879
-0.625643
-0.666346
-0.701326
-0.730949
-0.755575
-0.775541
-0.79114
-0.802615
-0.810151
-0.813877
-0.0224736
-0.0904171
-0.160295
-0.229715
-0.296859
-0.36043
-0.419542
-0.47366
-0.522524
-0.566076
-0.604394
-0.63765
-0.666062
-0.689866
-0.709293
-0.724555
-0.73583
-0.743257
-0.746938
-0.0359564
-0.093194
-0.152691
-0.212471
-0.270991
-0.327062
-0.37981
-0.42865
-0.473227
-0.513361
-0.549008
-0.580211
-0.607077
-0.629739
-0.648342
-0.663027
-0.673917
-0.681112
-0.684683
-0.0468399
-0.0955377
-0.146512
-0.198178
-0.249235
-0.298626
-0.345542
-0.3894
-0.4298
-0.466492
-0.499348
-0.528325
-0.553443
-0.574756
-0.592343
-0.606284
-0.616657
-0.623527
-0.626943
-0.0549722
-0.0969118
-0.140888
-0.185765
-0.230398
-0.273902
-0.315557
-0.35481
-0.391251
-0.424594
-0.454661
-0.481352
-0.504623
-0.524473
-0.540924
-0.554014
-0.563783
-0.570267
-0.573495
-0.0607206
-0.0970343
-0.135232
-0.174543
-0.213627
-0.251983
-0.288945
-0.324005
-0.356763
-0.386925
-0.414286
-0.438711
-0.460114
-0.478452
-0.493709
-0.505889
-0.515002
-0.521062
-0.524082
-0.0642704
-0.0960578
-0.129516
-0.163852
-0.198277
-0.232202
-0.265008
-0.296288
-0.325664
-0.352858
-0.37765
-0.399884
-0.419451
-0.436279
-0.450328
-0.461575
-0.470008
-0.475629
-0.478428
-0.0659447
-0.0939869
-0.123446
-0.153665
-0.184041
-0.214041
-0.243197
-0.271112
-0.297411
-0.321873
-0.344258
-0.364409
-0.382208
-0.397568
-0.410427
-0.420747
-0.428499
-0.433676
-0.436248
-0.0660626
-0.0909606
-0.117035
-0.143756
-0.17064
-0.197238
-0.22315
-0.24802
-0.271544
-0.293544
-0.313684
-0.331882
-0.348008
-0.361961
-0.373673
-0.383091
-0.390176
-0.394919
-0.397261
-0.0649224
-0.0871437
-0.110325
-0.13404
-0.157895
-0.181518
-0.204567
-0.226738
-0.24777
-0.267443
-0.285545
-0.301948
-0.316513
-0.329135
-0.339753
-0.348311
-0.354756
-0.359086
-0.36118
-0.062792
-0.0827002
-0.10338
-0.124485
-0.145696
-0.166702
-0.187215
-0.206976
-0.225752
-0.243343
-0.259573
-0.274301
-0.287405
-0.298788
-0.308376
-0.316129
-0.321965
-0.325946
-0.327713
-0.0599018
-0.0777804
-0.0962688
-0.115086
-0.133969
-0.152662
-0.17092
-0.188522
-0.205265
-0.220972
-0.235488
-0.24868
-0.260437
-0.270667
-0.279298
-0.286273
-0.291538
-0.295085
-0.296775
-0.056444
-0.0725155
-0.0890608
-0.10585
-0.122669
-0.139301
-0.155544
-0.171207
-0.186116
-0.200115
-0.213066
-0.224851
-0.235367
-0.244528
-0.252264
-0.25852
-0.263247
-0.266423
-0.267973
-0.0525764
-0.0670161
-0.0818174
-0.0967917
-0.111761
-0.126547
-0.140979
-0.154893
-0.168142
-0.180589
-0.192112
-0.202607
-0.21198
-0.220153
-0.22706
-0.232648
-0.236874
-0.239712
-0.241111
-0.048426
-0.0613737
-0.0745916
-0.087924
-0.101224
-0.114342
-0.127135
-0.139465
-0.151205
-0.162237
-0.172455
-0.181766
-0.190086
-0.197346
-0.203485
-0.208454
-0.212214
-0.214738
-0.215991
-0.0440942
-0.055662
-0.0674266
-0.0792591
-0.0910374
-0.102637
-0.113938
-0.124823
-0.135185
-0.144922
-0.153942
-0.162164
-0.169514
-0.175929
-0.181356
-0.18575
-0.189076
-0.191308
-0.192424
-0.039661
-0.0499395
-0.0603564
-0.070805
-0.0811839
-0.0913895
-0.101321
-0.11088
-0.119976
-0.128521
-0.136437
-0.143653
-0.150105
-0.155737
-0.160503
-0.164362
-0.167284
-0.169245
-0.170233
-0.035189
-0.0442508
-0.0534056
-0.0625651
-0.0716449
-0.0805594
-0.0892241
-0.0975575
-0.105482
-0.112924
-0.119817
-0.1261
-0.131717
-0.13662
-0.14077
-0.144131
-0.146676
-0.148383
-0.149251
-0.0307257
-0.0386292
-0.0465909
-0.0545379
-0.0624008
-0.0701086
-0.0775917
-0.0847822
-0.0916151
-0.0980293
-0.103968
-0.109379
-0.114217
-0.11844
-0.122013
-0.124907
-0.127099
-0.128569
-0.129325
-0.0263073
-0.0330984
-0.0399217
-0.0467176
-0.0534295
-0.0599994
-0.0663703
-0.0724862
-0.0782937
-0.0837421
-0.0887843
-0.0933774
-0.0974825
-0.101066
-0.104097
-0.106553
-0.108413
-0.10966
-0.110309
-0.0219601
-0.0276739
-0.0334012
-0.0390942
-0.0447072
-0.0501938
-0.055508
-0.0606046
-0.0654404
-0.0699744
-0.0741682
-0.0779871
-0.0813993
-0.0843771
-0.0868964
-0.0889373
-0.0904833
-0.0915183
-0.0920664
-0.0177031
-0.0223651
-0.0270279
-0.0316541
-0.0362082
-0.0406536
-0.0449544
-0.0490753
-0.0529821
-0.0566427
-0.060027
-0.0631075
-0.0658592
-0.0682602
-0.0702914
-0.0719367
-0.0731832
-0.074016
-0.0744669
-0.0135496
-0.0171759
-0.0207955
-0.0243806
-0.0279044
-0.0313398
-0.0346597
-0.0378377
-0.0408483
-0.0436673
-0.0462723
-0.0486426
-0.0507593
-0.0526058
-0.0541678
-0.0554329
-0.0563916
-0.0570295
-0.0573859
-0.00950933
-0.0121075
-0.014696
-0.0172556
-0.0197678
-0.0222139
-0.0245753
-0.0268337
-0.0289715
-0.030972
-0.0328198
-0.0345004
-0.0360008
-0.0373095
-0.0384163
-0.0393127
-0.0399922
-0.0404406
-0.0407036
-0.00558313
-0.00715241
-0.00871292
-0.0102535
-0.0117636
-0.013232
-0.0146481
-0.0160012
-0.017281
-0.018478
-0.0195831
-0.0205878
-0.0214845
-0.0222664
-0.0229276
-0.023463
-0.0238691
-0.0241316
-0.0243013
-0.0018002
-0.00233125
-0.00285796
-0.00337678
-0.00388421
-0.00437674
-0.00485089
-0.00530329
-0.00573069
-0.00613001
-0.00649834
-0.00683299
-0.0071315
-0.00739166
-0.00761154
-0.00778948
-0.00792517
-0.00800988
-0.0080707
)
;

boundaryField
{
    leftWall
    {
        type            fixedFluxPressure;
        gradient        uniform 0;
        value           nonuniform List<scalar> 
50
(
2523.03
2521.74
2519.16
2515.3
2510.2
2503.89
2496.41
2487.82
2472.79
2448.09
2419.96
2389.2
2356.64
2323.14
2289.52
2256.42
2224.61
2194.98
2167.27
2140.24
1935.48
479.346
-0.247448
-0.248397
-0.240225
-0.223353
-0.198586
-0.168694
-0.136794
-0.104985
-0.0749386
-0.0478418
-0.0244921
-0.00542752
0.0093781
0.0203229
0.0279299
0.0326914
0.0350169
0.0352509
0.0336975
0.0306194
0.0262236
0.0207009
0.0142786
0.00709521
-0.000911437
-0.00966111
-0.0188768
-0.0289152
)
;
    }
    rightWall
    {
        type            fixedFluxPressure;
        gradient        uniform 0;
        value           nonuniform List<scalar> 
50
(
-2.25488
-2.25218
-2.24681
-2.23877
-2.22808
-2.21478
-2.1989
-2.1805
-2.1478
-2.09251
-2.02708
-1.95282
-1.87146
-1.78417
-1.69242
-1.59774
-1.50162
-1.40549
-1.3106
-1.21803
-1.12868
-1.04321
-0.962083
-0.885594
-0.813877
-0.746938
-0.684683
-0.626943
-0.573495
-0.524082
-0.478428
-0.436248
-0.397261
-0.36118
-0.327713
-0.296775
-0.267973
-0.241111
-0.215991
-0.192424
-0.170233
-0.149251
-0.129325
-0.110309
-0.0920664
-0.0744669
-0.0573859
-0.0407036
-0.0243013
-0.0080707
)
;
    }
    lowerWall
    {
        type            fixedFluxPressure;
        gradient        uniform 0;
        value           nonuniform List<scalar> 
62
(
2523.03
2527.07
2522.12
2510.78
2495.5
2476.55
2453.32
2425.37
2392.49
2354.65
2312.34
2266.85
2220.78
2179
2149.93
2147.54
2193.78
2324.37
2565.64
2941.55
3407.65
3814.98
4081.49
4081.49
4161.04
4209.79
4181.66
4075.22
3807.6
3285.98
2438.37
59.3313
-7.49347
-9.02422
-7.57933
-3.78777
-3.80273
-3.83533
-3.88864
-3.97021
-4.0941
-4.29341
-4.55817
-3.78777
-3.74037
-3.6523
-3.53309
-3.39655
-3.25269
-3.11012
-2.97444
-2.849
-2.73555
-2.63481
-2.54686
-2.47139
-2.40795
-2.35602
-2.31512
-2.28482
-2.26482
-2.25488
)
;
    }
    atmosphere
    {
        type            totalPressure;
        rho             rho;
        psi             none;
        gamma           1;
        p0              uniform 0;
        value           nonuniform List<scalar> 
46
(
-0.0344103
-0.0344984
-0.0335419
-0.0321113
-0.0302527
-0.0280301
-0.025515
-0.022786
-0.0199268
-0.0170236
-0.0141616
-0.0114217
-0.00887662
-0.00658857
-0.00460649
-0.00296488
-0.00168339
-0.000767681
-0.000211772
-2.61627e-06
0
0
0
0
0
0
0
0
0
0
0
0
0
0
0
0
0
0
0
0
0
0
0
0
0
0
)
;
    }
    defaultFaces
    {
        type            empty;
    }
}


// ************************************************************************* //
