/*--------------------------------*- C++ -*----------------------------------*\
| =========                 |                                                 |
| \\      /  F ield         | OpenFOAM: The Open Source CFD Toolbox           |
|  \\    /   O peration     | Version:  2206                                  |
|   \\  /    A nd           | Website:  www.openfoam.com                      |
|    \\/     M anipulation  |                                                 |
\*---------------------------------------------------------------------------*/
FoamFile
{
    version     2.0;
    format      ascii;
    arch        "LSB;label=32;scalar=64";
    class       surfaceScalarField;
    location    "0.15";
    object      phi;
}
// * * * * * * * * * * * * * * * * * * * * * * * * * * * * * * * * * * * * * //

dimensions      [0 3 -1 0 0 0 0];

oriented        oriented;

internalField   nonuniform List<scalar> 
4432
(
4.31397e-06
-4.31397e-06
1.11388e-05
-6.82483e-06
1.78997e-05
-6.76086e-06
2.4314e-05
-6.41435e-06
3.06649e-05
-6.35085e-06
3.7165e-05
-6.50016e-06
4.39166e-05
-6.75157e-06
5.09571e-05
-7.0405e-06
5.82996e-05
-7.3425e-06
6.59376e-05
-7.63799e-06
7.38417e-05
-7.90405e-06
8.19507e-05
-8.10904e-06
9.01324e-05
-8.18174e-06
9.8125e-05
-7.99259e-06
0.000105505
-7.37987e-06
0.00011166
-6.15486e-06
0.000115572
-3.91178e-06
0.000115104
4.67804e-07
0.000105619
9.48428e-06
8.15281e-05
2.40914e-05
4.24539e-05
3.90742e-05
2.93483e-06
3.95191e-05
2.93483e-06
4.34997e-06
-8.66395e-06
1.11552e-05
-1.36301e-05
1.79176e-05
-1.35232e-05
2.43437e-05
-1.28404e-05
3.0701e-05
-1.27082e-05
3.72077e-05
-1.30069e-05
4.3967e-05
-1.35109e-05
5.10167e-05
-1.40902e-05
5.83717e-05
-1.46975e-05
6.60269e-05
-1.52932e-05
7.39515e-05
-1.58287e-05
8.2092e-05
-1.62495e-05
9.03369e-05
-1.64267e-05
9.84509e-05
-1.61066e-05
0.00010603
-1.4959e-05
0.000112471
-1.25962e-05
0.000116958
-8.39874e-06
0.000118821
-1.39474e-06
0.000117621
1.06841e-05
0.000109929
3.17834e-05
8.68745e-05
6.21287e-05
4.36203e-05
8.27732e-05
4.65552e-05
4.37546e-06
-1.30394e-05
1.11377e-05
-2.03923e-05
1.78549e-05
-2.02404e-05
2.42508e-05
-1.92363e-05
3.0585e-05
-1.90424e-05
3.70737e-05
-1.94956e-05
4.38188e-05
-2.02559e-05
5.08577e-05
-2.11291e-05
5.82084e-05
-2.20481e-05
6.58691e-05
-2.29538e-05
7.38156e-05
-2.37753e-05
8.20093e-05
-2.44431e-05
9.03598e-05
-2.47773e-05
9.866e-05
-2.44069e-05
0.000106554
-2.2853e-05
0.000113513
-1.95548e-05
0.000118776
-1.36625e-05
0.000121003
-3.6212e-06
0.00011864
1.30468e-05
0.000110713
3.97102e-05
9.45326e-05
7.83096e-05
5.85162e-05
0.00011879
0.000105071
4.40708e-06
-1.74465e-05
1.11197e-05
-2.71049e-05
1.77713e-05
-2.6892e-05
2.4119e-05
-2.5584e-05
3.04214e-05
-2.53448e-05
3.68887e-05
-2.59629e-05
4.36185e-05
-2.69857e-05
5.06483e-05
-2.81589e-05
5.80001e-05
-2.93999e-05
6.56782e-05
-3.0632e-05
7.36716e-05
-3.17686e-05
8.1961e-05
-3.27326e-05
9.04764e-05
-3.32926e-05
9.90472e-05
-3.29777e-05
0.000107401
-3.12064e-05
0.000115115
-2.72692e-05
0.000121455
-2.00028e-05
0.000125202
-7.36786e-06
0.000124288
1.39607e-05
0.000115774
4.8224e-05
9.73752e-05
9.67085e-05
6.20757e-05
0.000154089
0.000167147
4.44552e-06
-2.1892e-05
1.10998e-05
-3.37592e-05
1.76673e-05
-3.34596e-05
2.39515e-05
-3.18682e-05
3.02152e-05
-3.16085e-05
3.66592e-05
-3.24069e-05
4.33741e-05
-3.37005e-05
5.03972e-05
-3.51821e-05
5.77559e-05
-3.67586e-05
6.54623e-05
-3.83384e-05
7.3523e-05
-3.98293e-05
8.1941e-05
-4.11506e-05
9.06633e-05
-4.20149e-05
9.95696e-05
-4.1884e-05
0.000108506
-4.01426e-05
0.000117174
-3.59374e-05
0.0001249
-2.77284e-05
0.000130557
-1.30252e-05
0.000132352
1.21658e-05
0.000126485
5.4091e-05
0.000105916
0.000117277
6.7769e-05
0.000192237
0.000234916
4.49554e-06
-2.63875e-05
1.10784e-05
-4.03421e-05
1.75417e-05
-3.99228e-05
2.37489e-05
-3.80754e-05
2.99681e-05
-3.78276e-05
3.63857e-05
-3.88246e-05
4.30826e-05
-4.03974e-05
5.00959e-05
-4.21953e-05
5.74586e-05
-4.41213e-05
6.51927e-05
-4.60725e-05
7.33259e-05
-4.79626e-05
8.18828e-05
-4.97075e-05
9.08256e-05
-5.09576e-05
0.000100096
-5.11548e-05
0.000109685
-4.97313e-05
0.000119429
-4.56813e-05
0.000128737
-3.70367e-05
0.00013677
-2.10584e-05
0.00014251
6.42593e-06
0.000142071
5.45307e-05
0.000121239
0.000138108
7.76866e-05
0.000235789
0.000312603
4.55881e-06
-3.09463e-05
1.10488e-05
-4.68321e-05
1.73858e-05
-4.62598e-05
2.35027e-05
-4.41923e-05
2.96684e-05
-4.39933e-05
3.60505e-05
-4.52067e-05
4.27185e-05
-4.70654e-05
4.97098e-05
-4.91867e-05
5.70643e-05
-5.14758e-05
6.4815e-05
-5.38232e-05
7.30128e-05
-5.61603e-05
8.17014e-05
-5.83961e-05
9.08655e-05
-6.01217e-05
0.000100525
-6.0814e-05
0.00011081
-6.00165e-05
0.000121703
-5.6574e-05
0.000132766
-4.80999e-05
0.000143658
-3.19509e-05
0.000154503
-4.41905e-06
0.000161134
4.79001e-05
0.000139261
0.000159981
8.88587e-05
0.000286192
0.000401461
4.62777e-06
-3.55741e-05
1.09944e-05
-5.31987e-05
1.71906e-05
-5.24561e-05
2.32056e-05
-5.02072e-05
2.93048e-05
-5.00926e-05
3.56368e-05
-5.15387e-05
4.226e-05
-5.36886e-05
4.92136e-05
-5.61402e-05
5.65448e-05
-5.8807e-05
6.42995e-05
-6.15778e-05
7.25493e-05
-6.44102e-05
8.13538e-05
-6.72006e-05
9.07345e-05
-6.95024e-05
0.000100802
-7.08816e-05
0.000111788
-7.10027e-05
0.000123835
-6.86203e-05
0.000136844
-6.11099e-05
0.000150872
-4.59785e-05
0.000166865
-2.04124e-05
0.000177891
3.68747e-05
0.000146352
0.00019152
8.99704e-05
0.000342573
0.000491432
-7.47042e-06
7.47042e-06
-1.16952e-05
4.22463e-06
-1.3598e-05
1.90271e-06
-1.37942e-05
1.96143e-07
-1.29628e-05
-8.31634e-07
-1.1598e-05
-1.36474e-06
-1.00345e-05
-1.56367e-06
-8.476e-06
-1.55843e-06
-7.03035e-06
-1.44564e-06
-5.7387e-06
-1.29178e-06
-4.61413e-06
-1.12447e-06
-3.66191e-06
-9.52205e-07
-2.86169e-06
-8.00346e-07
-2.19866e-06
-6.62852e-07
-1.62896e-06
-5.69494e-07
-1.1495e-06
-4.7948e-07
-7.37145e-07
-4.12261e-07
-3.64331e-07
-3.7253e-07
-3.64117e-07
-8.19875e-06
1.56693e-05
-1.23327e-05
8.35844e-06
-1.38517e-05
3.42133e-06
-1.37478e-05
9.21859e-08
-1.26943e-05
-1.88531e-06
-1.11566e-05
-2.90227e-06
-9.45628e-06
-3.2643e-06
-7.79334e-06
-3.22154e-06
-6.28496e-06
-2.95365e-06
-4.98008e-06
-2.59664e-06
-3.88588e-06
-2.21872e-06
-2.98734e-06
-1.85043e-06
-2.25827e-06
-1.52913e-06
-1.66984e-06
-1.25116e-06
-1.20746e-06
-1.03171e-06
-8.34869e-07
-8.51746e-07
-5.25565e-07
-7.21186e-07
-2.60745e-07
-6.37033e-07
-6.2474e-07
-9.55232e-06
2.52215e-05
-1.37477e-05
1.25537e-05
-1.48433e-05
4.51687e-06
-1.43275e-05
-4.23573e-07
-1.2979e-05
-3.23409e-06
-1.12571e-05
-4.62424e-06
-9.46495e-06
-5.05622e-06
-7.76987e-06
-4.91654e-06
-6.26126e-06
-4.46195e-06
-4.96192e-06
-3.89586e-06
-3.87285e-06
-3.30766e-06
-2.98263e-06
-2.7404e-06
-2.25752e-06
-2.25418e-06
-1.67413e-06
-1.83452e-06
-1.21088e-06
-1.49472e-06
-8.37017e-07
-1.22532e-06
-5.31363e-07
-1.0266e-06
-2.62891e-07
-9.05263e-07
-8.87533e-07
-1.21257e-05
3.73472e-05
-1.62446e-05
1.66726e-05
-1.63852e-05
4.65726e-06
-1.51614e-05
-1.64727e-06
-1.33745e-05
-5.02094e-06
-1.13899e-05
-6.60884e-06
-9.43481e-06
-7.01134e-06
-7.67343e-06
-6.6782e-06
-6.12707e-06
-6.00824e-06
-4.82593e-06
-5.19688e-06
-3.76424e-06
-4.36948e-06
-2.87397e-06
-3.63071e-06
-2.16622e-06
-2.96175e-06
-1.60186e-06
-2.39866e-06
-1.15518e-06
-1.94119e-06
-8.02156e-07
-1.57815e-06
-5.01188e-07
-1.3274e-06
-2.4856e-07
-1.15767e-06
-1.136e-06
-1.63472e-05
5.36945e-05
-1.99537e-05
2.0279e-05
-1.85012e-05
3.2045e-06
-1.61972e-05
-3.95114e-06
-1.38208e-05
-7.39747e-06
-1.14949e-05
-8.93496e-06
-9.35329e-06
-9.15305e-06
-7.49184e-06
-8.53977e-06
-5.915e-06
-7.585e-06
-4.61052e-06
-6.50131e-06
-3.5507e-06
-5.42949e-06
-2.6979e-06
-4.48355e-06
-2.01847e-06
-3.64104e-06
-1.48292e-06
-2.93412e-06
-1.07111e-06
-2.35292e-06
-7.26747e-07
-1.92236e-06
-4.55077e-07
-1.5989e-06
-2.25868e-07
-1.3867e-06
-1.36178e-06
-2.17851e-05
7.54796e-05
-2.40939e-05
2.25876e-05
-2.09868e-05
9.72964e-08
-1.7369e-05
-7.56883e-06
-1.42631e-05
-1.05033e-05
-1.15515e-05
-1.16463e-05
-9.1992e-06
-1.15049e-05
-7.23908e-06
-1.04998e-05
-5.63026e-06
-9.19378e-06
-4.34383e-06
-7.78757e-06
-3.29657e-06
-6.47662e-06
-2.47508e-06
-5.30488e-06
-1.83217e-06
-4.28381e-06
-1.34465e-06
-3.42163e-06
-9.43561e-07
-2.754e-06
-6.39422e-07
-2.22635e-06
-3.97926e-07
-1.84022e-06
-1.97841e-07
-1.58667e-06
-1.55954e-06
-2.71127e-05
0.000102592
-2.7105e-05
2.25799e-05
-2.31816e-05
-3.82599e-06
-1.86074e-05
-1.21426e-05
-1.46699e-05
-1.44409e-05
-1.15149e-05
-1.48015e-05
-8.99168e-06
-1.40282e-05
-6.89549e-06
-1.25962e-05
-5.26314e-06
-1.08262e-05
-3.98335e-06
-9.06733e-06
-2.98531e-06
-7.47466e-06
-2.20685e-06
-6.08333e-06
-1.62273e-06
-4.86791e-06
-1.15041e-06
-3.89396e-06
-8.01702e-07
-3.10267e-06
-5.36234e-07
-2.4917e-06
-3.3143e-07
-2.04488e-06
-1.63928e-07
-1.75409e-06
-1.72339e-06
-2.96832e-05
0.000132275
-2.95861e-05
2.24829e-05
-2.52941e-05
-8.11817e-06
-1.98281e-05
-1.76087e-05
-1.50919e-05
-1.91771e-05
-1.13603e-05
-1.85331e-05
-8.57929e-06
-1.68091e-05
-6.43854e-06
-1.47367e-05
-4.83708e-06
-1.24275e-05
-3.55687e-06
-1.03475e-05
-2.61672e-06
-8.41483e-06
-1.90971e-06
-6.79039e-06
-1.34108e-06
-5.43657e-06
-9.38693e-07
-4.29633e-06
-6.39033e-07
-3.40228e-06
-4.19957e-07
-2.71073e-06
-2.58237e-07
-2.20651e-06
-1.27291e-07
-1.88497e-06
-1.85063e-06
9.89593e-06
-4.547e-05
2.31451e-05
-6.64478e-05
3.57607e-05
-6.50716e-05
4.81299e-05
-6.25765e-05
6.08262e-05
-6.27888e-05
7.40607e-05
-6.47732e-05
8.79261e-05
-6.7554e-05
0.000102515
-7.07295e-05
0.000117957
-7.42483e-05
0.000134386
-7.80076e-05
0.000152011
-8.20346e-05
0.000170994
-8.61836e-05
0.000191537
-9.00452e-05
0.00021411
-9.34544e-05
0.000239222
-9.61156e-05
0.000267575
-9.69729e-05
0.000300855
-9.43898e-05
0.000339118
-8.42416e-05
0.000371598
-5.28927e-05
0.000356083
5.23906e-05
0.000291967
0.000255636
0.000223273
0.000411267
0.00054835
0.000166354
1.00189e-05
-5.5489e-05
2.25718e-05
-7.90007e-05
3.44311e-05
-7.69309e-05
4.62268e-05
-7.43722e-05
5.84766e-05
-7.50385e-05
7.13098e-05
-7.76064e-05
8.47875e-05
-8.10318e-05
9.90174e-05
-8.49594e-05
0.000114163
-8.93935e-05
0.000130406
-9.42505e-05
0.000148001
-9.96298e-05
0.00016717
-0.000105353
0.000188303
-0.000111177
0.000211968
-0.00011712
0.000238692
-0.00012284
0.000269563
-0.000127843
0.000304669
-0.000129496
0.000339229
-0.000118803
0.000352568
-6.62316e-05
0.000320424
8.45349e-05
0.00028116
0.0002949
0.00023713
0.000455298
0.000598877
0.000186603
1.0051e-05
-6.554e-05
2.17738e-05
-9.07235e-05
3.27712e-05
-8.79283e-05
4.39184e-05
-8.55194e-05
5.56193e-05
-8.67394e-05
6.79121e-05
-8.98992e-05
8.08417e-05
-9.39614e-05
9.45335e-05
-9.86512e-05
0.000109181
-0.000104041
0.000124989
-0.000110058
0.000142231
-0.000116872
0.000161215
-0.000124338
0.000182363
-0.000132324
0.000205957
-0.000140714
0.000233052
-0.000149935
0.000264636
-0.000159427
0.000297929
-0.000162789
0.000311399
-0.000132273
0.000291836
-4.66687e-05
0.000273742
0.000102629
0.000244997
0.000323644
0.00021184
0.000488455
0.000600733
0.000209983
9.95375e-06
-7.54938e-05
2.07239e-05
-0.000101494
3.08035e-05
-9.80079e-05
4.12348e-05
-9.59507e-05
5.22734e-05
-9.7778e-05
6.38783e-05
-0.000101504
7.60925e-05
-0.000106176
8.90593e-05
-0.000111618
0.000102994
-0.000117976
0.00011809
-0.000125154
0.000134656
-0.000133438
0.000153075
-0.000142756
0.000173445
-0.000152695
0.000195924
-0.000163193
0.000222693
-0.000176704
0.000252626
-0.00018936
0.000266597
-0.000176759
0.000243766
-0.000109442
0.000187802
9.29488e-06
0.000152494
0.000137938
0.000165066
0.000311072
0.000183862
0.000469659
0.000565638
0.000218957
9.71631e-06
-8.52101e-05
1.94234e-05
-0.000111201
2.85476e-05
-0.000107132
3.8194e-05
-0.000105597
4.84488e-05
-0.000108033
5.92141e-05
-0.000112269
7.05411e-05
-0.000117503
8.25882e-05
-0.000123665
9.55799e-05
-0.000130968
0.00010968
-0.000139254
0.000125315
-0.000149073
0.000142747
-0.000160188
0.000161548
-0.000171496
0.000182857
-0.000184502
0.0002072
-0.000201048
0.000227805
-0.000209965
0.000205379
-0.000154334
0.000133176
-3.7238e-05
5.50569e-05
8.74128e-05
2.39436e-05
0.000169051
6.88651e-05
0.000266151
0.00014112
0.000397404
0.000502251
0.000204507
9.33366e-06
-9.45437e-05
1.78882e-05
-0.000119755
2.60331e-05
-0.000115277
3.48225e-05
-0.000114386
4.41705e-05
-0.000117381
5.39489e-05
-0.000122048
6.42217e-05
-0.000127775
7.51578e-05
-0.000134601
8.69692e-05
-0.000142779
9.98102e-05
-0.000152095
0.000114284
-0.000163547
0.000130176
-0.00017608
0.000147241
-0.000188561
0.000168158
-0.000205419
0.000192686
-0.000225576
0.000182932
-0.00020021
0.00011966
-9.10613e-05
2.30005e-05
5.94208e-05
-3.49828e-05
0.000145396
-4.7734e-05
0.000181803
-6.27772e-06
0.000224694
8.65935e-05
0.000304534
0.000431329
0.000157516
8.7993e-06
-0.000103343
1.61464e-05
-0.000127102
2.33005e-05
-0.000122431
3.11607e-05
-0.000122247
3.94875e-05
-0.000125708
4.81472e-05
-0.000130707
5.72159e-05
-0.000136844
6.68651e-05
-0.000144251
7.72636e-05
-0.000153177
8.86124e-05
-0.000163444
0.000101472
-0.000176406
0.000115053
-0.000189661
0.000130851
-0.000204359
0.000149059
-0.000223627
0.000160901
-0.000237418
0.00012416
-0.000163471
2.70895e-05
6.01063e-06
-4.59782e-05
0.000132488
-6.77345e-05
0.000167152
-6.99812e-05
0.00018405
-4.68255e-05
0.000201538
1.88656e-05
0.000238842
0.000366618
8.35764e-05
8.12688e-06
-0.00011147
1.42455e-05
-0.000133221
2.04106e-05
-0.000128596
2.72791e-05
-0.000129115
3.44937e-05
-0.000132922
4.19328e-05
-0.000138147
4.96744e-05
-0.000144586
5.78648e-05
-0.000152441
6.65943e-05
-0.000161907
7.61142e-05
-0.000172964
8.64295e-05
-0.000186722
9.71723e-05
-0.000200403
0.000112882
-0.000220069
0.000132245
-0.00024299
0.000114975
-0.000220148
3.94635e-05
-8.79598e-05
-4.53935e-05
9.08673e-05
-6.67702e-05
0.000153864
-6.77317e-05
0.000168113
-6.61021e-05
0.000182421
-5.8806e-05
0.000194242
-3.2042e-05
0.000212078
0.000311931
2.26457e-05
7.35632e-06
-0.000118826
1.22669e-05
-0.000138132
1.74639e-05
-0.000133793
2.33037e-05
-0.000134955
2.93521e-05
-0.000138971
3.54981e-05
-0.000144293
4.17852e-05
-0.000150873
4.82656e-05
-0.000158921
5.48967e-05
-0.000168538
6.18209e-05
-0.000179888
6.8324e-05
-0.000193225
7.66049e-05
-0.000208684
9.05066e-05
-0.00023397
9.81297e-05
-0.000250613
6.44107e-05
-0.000186429
-2.19881e-05
-1.56076e-06
-5.93613e-05
0.00012824
-5.72581e-05
0.00015176
-5.43705e-05
0.000165226
-5.19774e-05
0.000180027
-5.14283e-05
0.000193693
-4.48249e-05
0.000205474
0.000266601
5.04594e-07
6.55048e-06
-0.000125377
1.02915e-05
-0.000141873
1.45481e-05
-0.00013805
1.93336e-05
-0.00013974
2.41545e-05
-0.000143792
2.88822e-05
-0.00014902
3.34614e-05
-0.000155452
3.77934e-05
-0.000163253
4.16866e-05
-0.000172431
4.51515e-05
-0.000183353
4.79541e-05
-0.000196027
5.63389e-05
-0.000217069
6.96498e-05
-0.000247281
5.7171e-05
-0.000238135
1.25593e-05
-0.000141818
-3.891e-05
4.9908e-05
-4.43362e-05
0.000133667
-3.76743e-05
0.000145098
-3.70911e-05
0.000164642
-3.50947e-05
0.00017803
-3.35438e-05
0.000192142
-2.93875e-05
0.000201318
0.000233222
3.99182e-06
5.72752e-06
-0.000131104
8.26345e-06
-0.000144408
1.15485e-05
-0.000141335
1.5186e-05
-0.000143378
1.86124e-05
-0.000147218
2.16612e-05
-0.000152069
2.41998e-05
-0.000157991
2.61207e-05
-0.000165174
2.74894e-05
-0.0001738
2.90023e-05
-0.000184866
3.33761e-05
-0.000200401
4.61544e-05
-0.000229847
5.41748e-05
-0.000255302
4.53147e-05
-0.000229275
1.12431e-05
-0.000107747
-1.07215e-05
7.18723e-05
-1.32301e-05
0.000136176
-1.71392e-05
0.000149007
-2.04324e-05
0.000167935
-2.01975e-05
0.000177796
-1.66296e-05
0.000188574
-9.90193e-06
0.000194591
0.000208811
1.45094e-05
4.77412e-06
-0.000135878
5.93192e-06
-0.000145566
8.14577e-06
-0.000143549
1.05244e-05
-0.000145756
1.24689e-05
-0.000149163
1.39203e-05
-0.00015352
1.5054e-05
-0.000159124
1.63049e-05
-0.000166425
1.9393e-05
-0.000176888
2.70328e-05
-0.000192506
4.50889e-05
-0.000218457
6.59749e-05
-0.000250733
6.93103e-05
-0.000258637
6.65708e-05
-0.000226535
7.21327e-05
-0.000113309
4.85428e-05
9.54616e-05
2.09138e-05
0.000163804
1.58151e-06
0.000168339
-6.87286e-06
0.000176389
-9.81284e-06
0.000180736
-6.35449e-06
0.000185116
1.31616e-06
0.00018692
0.00019074
1.93867e-05
3.60062e-06
-0.000139479
3.37153e-06
-0.000145337
4.68704e-06
-0.000144864
6.27293e-06
-0.000147342
7.75206e-06
-0.000150642
9.80426e-06
-0.000155573
1.38673e-05
-0.000163187
2.11267e-05
-0.000173685
3.71762e-05
-0.000192938
7.13142e-05
-0.000226643
0.000113326
-0.000260469
0.000122858
-0.000260266
8.10253e-05
-0.000216804
6.29279e-05
-0.000208437
8.7601e-05
-0.000137982
9.17072e-05
9.13554e-05
4.37778e-05
0.000211734
1.28479e-05
0.000199269
-5.19027e-07
0.000189756
-5.41798e-06
0.000185635
-3.0553e-06
0.000182753
4.17977e-06
0.000179684
0.000177143
1.77772e-05
2.64311e-06
-0.000142122
2.03516e-06
-0.000144729
3.77875e-06
-0.000146608
6.79308e-06
-0.000150357
1.18662e-05
-0.000155715
2.26211e-05
-0.000166327
4.0871e-05
-0.000181437
6.54681e-05
-0.000198282
9.60949e-05
-0.000223565
0.000123631
-0.00025418
0.000140539
-0.000277376
0.000137971
-0.000257698
9.88853e-05
-0.000177718
5.88914e-05
-0.000168444
5.37275e-05
-0.000132818
7.91757e-05
6.59073e-05
3.94927e-05
0.000251417
1.03676e-05
0.000228394
-3.84348e-06
0.000203967
-8.19228e-06
0.000189984
-5.81241e-06
0.000180374
1.02484e-06
0.000172847
0.000166203
1.19648e-05
2.8344e-06
-0.000144956
5.91971e-06
-0.000147814
1.09539e-05
-0.000151642
1.80146e-05
-0.000157418
2.75906e-05
-0.000165291
3.93506e-05
-0.000178088
5.3615e-05
-0.000195701
7.15833e-05
-0.00021625
9.27613e-05
-0.000244742
0.000117024
-0.000278443
0.000134939
-0.000295291
0.000139091
-0.000261851
0.000127259
-0.000165885
6.8552e-05
-0.000109737
3.8861e-05
-0.000103127
3.04756e-05
7.42929e-05
6.75346e-06
0.000275139
-1.12861e-05
0.000246434
-1.77826e-05
0.000210464
-1.78212e-05
0.000190022
-1.35463e-05
0.000176099
-6.11512e-06
0.000165416
0.000156327
3.76134e-06
2.88169e-06
-0.000147838
6.55911e-06
-0.000151492
1.07711e-05
-0.000155854
1.57157e-05
-0.000162362
2.2004e-05
-0.000171579
2.8876e-05
-0.00018496
3.62679e-05
-0.000203094
4.62322e-05
-0.000226214
6.10231e-05
-0.000259533
8.14759e-05
-0.000298896
9.71776e-05
-0.000310992
9.65826e-05
-0.000261256
8.8735e-05
-0.000158038
5.94719e-05
-8.04739e-05
5.6821e-06
-4.93374e-05
-3.86389e-05
0.000118614
-4.77457e-05
0.000284245
-4.3888e-05
0.000242576
-3.90104e-05
0.000205586
-3.25682e-05
0.00018358
-2.47151e-05
0.000168246
-1.56467e-05
0.000156348
0.000146366
-5.68621e-06
1.40594e-06
-0.000149244
3.01145e-06
-0.000153097
4.57536e-06
-0.000157418
6.11151e-06
-0.000163898
7.86244e-06
-0.00017333
9.24415e-06
-0.000186342
1.00196e-05
-0.000203869
1.20611e-05
-0.000228256
1.77315e-05
-0.000265204
2.49401e-05
-0.000306104
2.44378e-05
-0.00031049
9.60765e-06
-0.000246426
-9.69777e-07
-0.00014746
-2.05802e-05
-6.08635e-05
-7.97958e-05
9.87819e-06
-0.000129461
0.000168279
-0.000106951
0.000261735
-8.04816e-05
0.000216107
-6.29572e-05
0.000188062
-4.93737e-05
0.000169997
-3.73651e-05
0.000156237
-2.61376e-05
0.000145121
0.000135641
-1.54126e-05
-6.99695e-07
-0.000148544
-1.44967e-06
-0.000152347
-2.66305e-06
-0.000156204
-4.34913e-06
-0.000162212
-6.83092e-06
-0.000170848
-1.06164e-05
-0.000182556
-1.63538e-05
-0.000198132
-2.38489e-05
-0.000220761
-3.3728e-05
-0.000255325
-4.8545e-05
-0.000291287
-6.85783e-05
-0.000290457
-8.93076e-05
-0.000225696
-0.000107684
-0.000129084
-0.000130975
-3.75727e-05
-0.000185306
6.42097e-05
-0.000196761
0.000179734
-0.000147171
0.000212145
-0.000108763
0.000177699
-8.3514e-05
0.000162813
-6.461e-05
0.000151093
-4.92426e-05
0.00014087
-3.61351e-05
0.000132013
0.000124055
-2.45493e-05
-2.63138e-06
-0.000145913
-5.48674e-06
-0.000149492
-8.98037e-06
-0.000152711
-1.33742e-05
-0.000157818
-1.92602e-05
-0.000164962
-2.73886e-05
-0.000174427
-3.89446e-05
-0.000186576
-5.61473e-05
-0.000203558
-8.27976e-05
-0.000228675
-0.000119484
-0.000254601
-0.000156923
-0.000253019
-0.000182871
-0.000199748
-0.000202322
-0.000109633
-0.000233218
-6.67629e-06
-0.000253599
8.45902e-05
-0.000221502
0.000147638
-0.000162361
0.000153003
-0.000123984
0.000139321
-9.67505e-05
0.000135579
-7.56441e-05
0.000129986
-5.86362e-05
0.000123862
-4.44943e-05
0.000117871
0.00011195
-3.23894e-05
-4.2154e-06
-0.000141698
-8.84464e-06
-0.000144863
-1.41663e-05
-0.000147389
-2.06543e-05
-0.00015133
-2.89541e-05
-0.000156663
-3.99696e-05
-0.000163412
-5.50964e-05
-0.000171449
-7.75376e-05
-0.000181117
-0.000112373
-0.000193839
-0.000160779
-0.000206195
-0.000213267
-0.000200531
-0.000254761
-0.000158254
-0.000279294
-8.51005e-05
-0.000283224
-2.74569e-06
-0.000260918
6.22835e-05
-0.000210355
9.70745e-05
-0.000160176
0.000102825
-0.000128017
0.000107162
-0.000102466
0.000110028
-8.1808e-05
0.000109329
-6.4831e-05
0.000106885
-5.06199e-05
0.00010366
9.98496e-05
-3.85194e-05
-5.49719e-06
-0.000136201
-1.14566e-05
-0.000138903
-1.81296e-05
-0.000140716
-2.60196e-05
-0.00014344
-3.57254e-05
-0.000146957
-4.80443e-05
-0.000151093
-6.40536e-05
-0.00015544
-8.58889e-05
-0.000159282
-0.000117449
-0.000162279
-0.000160971
-0.000162673
-0.000209383
-0.000152118
-0.000247377
-0.000120261
-0.000264473
-6.80044e-05
-0.000255547
-1.16721e-05
-0.000225107
3.18437e-05
-0.000183773
5.57402e-05
-0.000150154
6.92055e-05
-0.000124764
8.17723e-05
-0.000102541
8.78048e-05
-8.38311e-05
9.06188e-05
-6.7983e-05
9.10368e-05
-5.44567e-05
9.01338e-05
8.82325e-05
-4.28396e-05
-6.40862e-06
-0.000129792
-1.32465e-05
-0.000132065
-2.07659e-05
-0.000133197
-2.9401e-05
-0.000134805
-3.96483e-05
-0.00013671
-5.21005e-05
-0.000138641
-6.74067e-05
-0.000140134
-8.63562e-05
-0.000140332
-0.000110437
-0.000138198
-0.000140984
-0.000132126
-0.000174617
-0.000118485
-0.000201653
-9.32247e-05
-0.000212302
-5.73553e-05
-0.000203793
-2.01803e-05
-0.000181612
9.66178e-06
-0.000157522
3.16511e-05
-0.000136937
4.86203e-05
-0.000117266
6.21011e-05
-9.89868e-05
6.95255e-05
-8.28349e-05
7.44668e-05
-6.86711e-05
7.68729e-05
-5.62864e-05
7.77491e-05
7.74285e-05
-4.54825e-05
-6.96539e-06
-0.000122826
-1.4301e-05
-0.000124729
-2.22405e-05
-0.000125257
-3.11145e-05
-0.000125931
-4.1297e-05
-0.000126527
-5.31786e-05
-0.000126759
-6.71351e-05
-0.000126177
-8.33705e-05
-0.000124096
-0.000101938
-0.000119631
-0.000122607
-0.000111457
-0.000143457
-9.76343e-05
-0.000159831
-7.68504e-05
-0.000166486
-5.07008e-05
-0.000162552
-2.41139e-05
-0.000151211
-1.67936e-06
-0.00013755
1.79899e-05
-0.000123324
3.43949e-05
-0.000108018
4.67944e-05
-9.3415e-05
5.49226e-05
-7.98508e-05
6.09026e-05
-6.75479e-05
6.457e-05
-5.65118e-05
6.6713e-05
6.76129e-05
-4.66962e-05
-7.21957e-06
-0.000115607
-1.4747e-05
-0.000117201
-2.27729e-05
-0.00011723
-3.15353e-05
-0.000117168
-4.12869e-05
-0.000116775
-5.22525e-05
-0.000115793
-6.46033e-05
-0.000113826
-7.83591e-05
-0.000110341
-9.32589e-05
-0.000104731
-0.000108538
-9.61782e-05
-0.000122599
-8.35727e-05
-0.000133023
-6.64267e-05
-0.000137556
-4.6167e-05
-0.000135931
-2.57398e-05
-0.000130279
-7.33096e-06
-0.000121427
9.13772e-06
-0.000110576
2.35442e-05
-9.86403e-05
3.48585e-05
-8.69707e-05
4.3253e-05
-7.57068e-05
4.96387e-05
-6.51928e-05
5.40559e-05
-5.55298e-05
5.705e-05
5.8841e-05
-4.67579e-05
-7.22195e-06
-0.000108385
-1.46998e-05
-0.000109723
-2.25544e-05
-0.000109376
-3.09617e-05
-0.000108761
-4.00754e-05
-0.000107661
-5.00133e-05
-0.000105855
-6.08137e-05
-0.000103026
-7.23788e-05
-9.87754e-05
-8.4417e-05
-9.26926e-05
-9.62705e-05
-8.43247e-05
-0.0001067
-7.31435e-05
-0.000114119
-5.90073e-05
-0.000117423
-4.28623e-05
-0.000116729
-2.64342e-05
-0.000113068
-1.09916e-05
-0.000106936
3.0053e-06
-9.8837e-05
1.54452e-05
-8.96636e-05
2.56852e-05
-8.02872e-05
3.38765e-05
-7.0969e-05
4.03204e-05
-6.20538e-05
4.51408e-05
-5.368e-05
4.86762e-05
5.10904e-05
-4.59295e-05
-7.03528e-06
-0.000101349
-1.42847e-05
-0.000102474
-2.17953e-05
-0.000101865
-2.96972e-05
-0.000100859
-3.80718e-05
-9.92867e-05
-4.69643e-05
-9.69626e-05
-5.63388e-05
-9.36512e-05
-6.60326e-05
-8.90816e-05
-7.57384e-05
-8.29867e-05
-8.49712e-05
-7.50918e-05
-9.29613e-05
-6.51533e-05
-9.87228e-05
-5.32458e-05
-0.00010154
-4.00452e-05
-0.000101418
-2.65564e-05
-9.88641e-05
-1.3545e-05
-9.43209e-05
-1.53779e-06
-8.82293e-05
9.35369e-06
-8.11681e-05
1.86241e-05
-7.36393e-05
2.63476e-05
-6.59616e-05
3.26427e-05
-5.84381e-05
3.76173e-05
-5.12284e-05
4.14665e-05
4.42983e-05
-4.44362e-05
-6.7123e-06
-9.46366e-05
-1.35995e-05
-9.55865e-05
-2.06581e-05
-9.48058e-05
-2.79741e-05
-9.35433e-05
-3.55832e-05
-9.16776e-05
-4.34828e-05
-8.90631e-05
-5.16034e-05
-8.55306e-05
-5.97859e-05
-8.08991e-05
-6.77677e-05
-7.5005e-05
-7.51527e-05
-6.77068e-05
-8.13879e-05
-5.89179e-05
-8.58776e-05
-4.8756e-05
-8.82455e-05
-3.76772e-05
-8.84736e-05
-2.63281e-05
-8.67636e-05
-1.52548e-05
-8.34609e-05
-4.84036e-06
-7.87783e-05
4.67115e-06
-7.32431e-05
1.30888e-05
-6.71841e-05
2.02886e-05
-6.08709e-05
2.63295e-05
-5.45464e-05
3.12926e-05
-4.83712e-05
3.52913e-05
3.83854e-05
-4.24582e-05
-6.3028e-06
-8.83339e-05
-1.27389e-05
-8.91502e-05
-1.92841e-05
-8.82605e-05
-2.59804e-05
-8.68471e-05
-3.28371e-05
-8.48209e-05
-3.98242e-05
-8.2076e-05
-4.68591e-05
-7.84958e-05
-5.37922e-05
-7.3966e-05
-6.04063e-05
-6.83909e-05
-6.64096e-05
-6.17034e-05
-7.14287e-05
-5.38987e-05
-7.5074e-05
-4.51104e-05
-7.70961e-05
-3.56549e-05
-7.74692e-05
-2.59549e-05
-7.63214e-05
-1.64025e-05
-7.3873e-05
-7.28872e-06
-7.02798e-05
1.0779e-06
-6.59232e-05
8.73216e-06
-6.10292e-05
1.53944e-05
-5.58311e-05
2.11314e-05
-5.05248e-05
2.59863e-05
-4.52564e-05
3.0023e-05
3.3266e-05
-4.0137e-05
-5.84343e-06
-8.24906e-05
-1.17798e-05
-8.32136e-05
-1.77809e-05
-8.22595e-05
-2.38545e-05
-8.07735e-05
-2.99932e-05
-7.86822e-05
-3.61534e-05
-7.59158e-05
-4.22521e-05
-7.23972e-05
-4.81604e-05
-6.80576e-05
-5.37034e-05
-6.28478e-05
-5.86588e-05
-5.67479e-05
-6.27668e-05
-4.97906e-05
-6.57778e-05
-4.20993e-05
-6.7529e-05
-3.39036e-05
-6.79876e-05
-2.54962e-05
-6.7228e-05
-1.7162e-05
-6.5376e-05
-9.14072e-06
-6.26615e-05
-1.63666e-06
-5.91846e-05
5.25528e-06
-5.52146e-05
1.14244e-05
-5.09278e-05
1.68446e-05
-4.64797e-05
2.15383e-05
-4.19975e-05
2.55409e-05
2.8853e-05
-3.75844e-05
-5.35873e-06
-7.71318e-05
-1.0777e-05
-7.77952e-05
-1.62253e-05
-7.68113e-05
-2.1692e-05
-7.53065e-05
-2.71581e-05
-7.3216e-05
-3.25753e-05
-7.04986e-05
-3.78662e-05
-6.71064e-05
-4.29217e-05
-6.3002e-05
-4.76029e-05
-5.81665e-05
-5.17439e-05
-5.26068e-05
-5.51625e-05
-4.6372e-05
-5.76911e-05
-3.95707e-05
-5.92197e-05
-3.2375e-05
-5.97197e-05
-2.49962e-05
-5.92332e-05
-1.76485e-05
-5.7851e-05
-1.05229e-05
-5.57196e-05
-3.76794e-06
-5.29577e-05
2.4934e-06
-4.97385e-05
8.20527e-06
-4.62024e-05
1.33085e-05
-4.24781e-05
1.7814e-05
-3.86746e-05
2.17374e-05
2.50635e-05
-3.4885e-05
-4.86203e-06
-7.22696e-05
-9.76302e-06
-7.28941e-05
-1.46657e-05
-7.19084e-05
-1.95524e-05
-7.04196e-05
-2.43951e-05
-6.83733e-05
-2.91461e-05
-6.57476e-05
-3.37362e-05
-6.25163e-05
-3.80748e-05
-5.86634e-05
-4.20524e-05
-5.41889e-05
-4.55442e-05
-4.91151e-05
-4.84205e-05
-4.34956e-05
-5.05667e-05
-3.74245e-05
-5.19064e-05
-3.10353e-05
-5.24158e-05
-2.44867e-05
-5.21218e-05
-1.79424e-05
-5.10918e-05
-1.15528e-05
-4.94207e-05
-5.43895e-06
-4.72092e-05
2.82004e-07
-4.45921e-05
5.58828e-06
-4.16741e-05
1.03906e-05
-3.85602e-05
1.47002e-05
-3.53416e-05
1.85189e-05
2.18221e-05
-3.21002e-05
-4.36323e-06
-6.79063e-05
-8.75734e-06
-6.84998e-05
-1.31326e-05
-6.75329e-05
-1.74708e-05
-6.60813e-05
-2.17388e-05
-6.41053e-05
-2.58918e-05
-6.15945e-05
-2.98696e-05
-5.85385e-05
-3.35975e-05
-5.49355e-05
-3.69892e-05
-5.07972e-05
-3.99509e-05
-4.61534e-05
-4.23889e-05
-4.10576e-05
-4.42229e-05
-3.55905e-05
-4.53992e-05
-2.98589e-05
-4.58997e-05
-2.39861e-05
-4.57417e-05
-1.81002e-05
-4.4972e-05
-1.23224e-05
-4.36548e-05
-6.75611e-06
-4.18959e-05
-1.47681e-06
-3.97571e-05
3.44953e-06
-3.73481e-05
7.98162e-06
-3.47492e-05
1.21012e-05
-3.20345e-05
1.58043e-05
1.90617e-05
-2.92742e-05
-3.87153e-06
-6.40347e-05
-7.77403e-06
-6.4597e-05
-1.16453e-05
-6.36614e-05
-1.54675e-05
-6.22591e-05
-1.92061e-05
-6.03666e-05
-2.282e-05
-5.79805e-05
-2.62575e-05
-5.51011e-05
-2.94575e-05
-5.17355e-05
-3.23523e-05
-4.79024e-05
-3.48707e-05
-4.36349e-05
-3.69444e-05
-3.89838e-05
-3.85159e-05
-3.40189e-05
-3.95472e-05
-2.88275e-05
-4.00249e-05
-2.35083e-05
-3.99609e-05
-1.81643e-05
-3.93888e-05
-1.28945e-05
-3.836e-05
-7.78501e-06
-3.69383e-05
-2.89854e-06
-3.52006e-05
1.71178e-06
-3.32173e-05
5.99828e-06
-3.10552e-05
9.93909e-06
-2.87756e-05
1.35247e-05
1.67237e-05
-2.64377e-05
-3.39638e-06
-6.06381e-05
-6.82466e-06
-6.11683e-05
-1.02166e-05
-6.02693e-05
-1.35538e-05
-5.89218e-05
-1.68031e-05
-5.71171e-05
-1.99273e-05
-5.48562e-05
-2.28826e-05
-5.21458e-05
-2.56193e-05
-4.89987e-05
-2.80842e-05
-4.54374e-05
-3.02233e-05
-4.14957e-05
-3.19859e-05
-3.72211e-05
-3.33306e-05
-3.26742e-05
-3.423e-05
-2.79281e-05
-3.46746e-05
-2.30638e-05
-3.46733e-05
-1.81657e-05
-3.42522e-05
-1.33157e-05
-3.345e-05
-8.58739e-06
-3.23107e-05
-4.03795e-06
-3.08992e-05
3.00184e-07
-2.92698e-05
4.36877e-06
-2.74797e-05
8.14891e-06
-2.55772e-05
1.16221e-05
1.47577e-05
-2.36113e-05
-2.94288e-06
-5.76949e-05
-5.91606e-06
-5.8195e-05
-8.85255e-06
-5.73327e-05
-1.17332e-05
-5.60409e-05
-1.45278e-05
-5.43224e-05
-1.72033e-05
-5.21806e-05
-1.97229e-05
-4.9626e-05
-2.20466e-05
-4.66748e-05
-2.41326e-05
-4.33512e-05
-2.59397e-05
-3.96887e-05
-2.74301e-05
-3.57306e-05
-2.85737e-05
-3.15307e-05
-2.9351e-05
-2.7151e-05
-2.97552e-05
-2.26596e-05
-2.97939e-05
-1.81271e-05
-2.9487e-05
-1.36227e-05
-2.88639e-05
-9.21055e-06
-2.79591e-05
-4.94287e-06
-2.68158e-05
-8.43256e-07
-2.54874e-05
3.04028e-06
-2.40176e-05
6.67902e-06
-2.24444e-05
1.00488e-05
1.31211e-05
-2.08079e-05
-2.51148e-06
-5.51833e-05
-5.04884e-06
-5.56575e-05
-7.55177e-06
-5.48295e-05
-1.00012e-05
-5.35913e-05
-1.23703e-05
-5.19533e-05
-1.46307e-05
-4.99201e-05
-1.6752e-05
-4.75046e-05
-1.8702e-05
-4.47247e-05
-2.04481e-05
-4.16051e-05
-2.19587e-05
-3.8178e-05
-2.32059e-05
-3.44835e-05
-2.41674e-05
-3.05692e-05
-2.48293e-05
-2.64891e-05
-2.51874e-05
-2.23016e-05
-2.52478e-05
-1.80668e-05
-2.50262e-05
-1.38443e-05
-2.45462e-05
-9.69057e-06
-2.38359e-05
-5.65324e-06
-2.29206e-05
-1.75859e-06
-2.1851e-05
1.97059e-06
-2.06597e-05
5.4876e-06
-1.93768e-05
8.76582e-06
1.17789e-05
-1.80347e-05
-2.09954e-06
-5.30837e-05
-4.21981e-06
-5.35372e-05