/*--------------------------------*- C++ -*----------------------------------*\
| =========                 |                                                 |
| \\      /  F ield         | OpenFOAM: The Open Source CFD Toolbox           |
|  \\    /   O peration     | Version:  2206                                  |
|   \\  /    A nd           | Website:  www.openfoam.com                      |
|    \\/     M anipulation  |                                                 |
\*---------------------------------------------------------------------------*/
FoamFile
{
    version     2.0;
    format      ascii;
    arch        "LSB;label=32;scalar=64";
    class       volVectorField;
    location    "0.15";
    object      U;
}
// * * * * * * * * * * * * * * * * * * * * * * * * * * * * * * * * * * * * * //

dimensions      [0 1 -1 0 0 0 0];

internalField   nonuniform List<vector> 
2268
(
(0.0217094 -0.0116277 0)
(0.0855477 -0.0184405 0)
(0.164826 -0.0182623 0)
(0.241458 -0.0172973 0)
(0.314208 -0.0171182 0)
(0.386967 -0.0175237 0)
(0.462349 -0.0182038 0)
(0.540974 -0.0189825 0)
(0.622983 -0.0197932 0)
(0.708418 -0.0205884 0)
(0.797029 -0.0213084 0)
(0.888332 -0.0218563 0)
(0.981353 -0.0220208 0)
(1.07391 -0.0214499 0)
(1.16204 -0.0197337 0)
(1.23972 -0.016426 0)
(1.29817 -0.0104985 0)
(1.32572 0.00209145 0)
(1.28861 0.0281996 0)
(1.12257 0.074732 0)
(0.779298 0.122973 0)
(0.246611 0.120553 0)
(-0.131819 -0.0633056 0)
(0.0217797 -0.0349794 0)
(0.0858853 -0.0552282 0)
(0.165249 -0.0547853 0)
(0.241759 -0.0519781 0)
(0.314483 -0.0514411 0)
(0.387327 -0.0526537 0)
(0.462823 -0.0546935 0)
(0.541548 -0.0570346 0)
(0.623676 -0.059484 0)
(0.709302 -0.0618859 0)
(0.798162 -0.0640435 0)
(0.88976 -0.0657118 0)
(0.983294 -0.0663442 0)
(1.07692 -0.0649165 0)
(1.16695 -0.0601047 0)
(1.24764 -0.0503518 0)
(1.31128 -0.0328598 0)
(1.34583 -0.000613161 0)
(1.35198 0.0568938 0)
(1.32588 0.155956 0)
(1.20807 0.281701 0)
(0.811881 0.344409 0)
(0.328308 0.127339 0)
(0.0218345 -0.0585447 0)
(0.0859914 -0.0918779 0)
(0.165004 -0.0912061 0)
(0.24089 -0.0866264 0)
(0.313195 -0.0857244 0)
(0.385826 -0.0877438 0)
(0.461173 -0.0911499 0)
(0.539757 -0.095064 0)
(0.621792 -0.0991749 0)
(0.707435 -0.103215 0)
(0.796456 -0.106855 0)
(0.888465 -0.109752 0)
(0.982891 -0.111069 0)
(1.07818 -0.10911 0)
(1.17104 -0.101645 0)
(1.25641 -0.0860793 0)
(1.32717 -0.0584915 0)
(1.37269 -0.0116253 0)
(1.37698 0.0663816 0)
(1.32063 0.195124 0)
(1.21234 0.382456 0)
(0.968331 0.546832 0)
(0.523396 0.409377 0)
(0.0219686 -0.0822504 0)
(0.086161 -0.128266 0)
(0.16462 -0.12732 0)
(0.239665 -0.121053 0)
(0.311416 -0.11985 0)
(0.383772 -0.122721 0)
(0.458942 -0.127522 0)
(0.537385 -0.133034 0)
(0.619367 -0.13885 0)
(0.705115 -0.144598 0)
(0.794484 -0.149844 0)
(0.887283 -0.154187 0)
(0.983196 -0.156523 0)
(1.08092 -0.154552 0)
(1.17781 -0.145336 0)
(1.26995 -0.125422 0)
(1.35135 -0.0894324 0)
(1.41103 -0.0277292 0)
(1.43522 0.0763457 0)
(1.38994 0.24214 0)
(1.24811 0.475233 0)
(0.981856 0.738449 0)
(0.58544 0.724274 0)
(0.022196 -0.106066 0)
(0.0863988 -0.164283 0)
(0.16408 -0.162948 0)
(0.238093 -0.155098 0)
(0.309187 -0.153716 0)
(0.381226 -0.157517 0)
(0.456211 -0.163758 0)
(0.534525 -0.170913 0)
(0.6165 -0.178503 0)
(0.702439 -0.186069 0)
(0.792319 -0.193115 0)
(0.886216 -0.199215 0)
(0.984056 -0.202988 0)
(1.08477 -0.201659 0)
(1.18663 -0.191899 0)
(1.28743 -0.169517 0)
(1.38226 -0.127339 0)
(1.46046 -0.0528836 0)
(1.50937 0.0746927 0)
(1.49644 0.283506 0)
(1.37605 0.581818 0)
(1.03928 0.934412 0)
(0.643389 1.07905 0)
(0.0225892 -0.130163 0)
(0.086747 -0.199956 0)
(0.163369 -0.198063 0)
(0.236167 -0.188753 0)
(0.306523 -0.187346 0)
(0.378204 -0.19217 0)
(0.452967 -0.199895 0)
(0.531115 -0.208737 0)
(0.613051 -0.218176 0)
(0.699152 -0.227683 0)
(0.789556 -0.236763 0)
(0.884655 -0.244976 0)
(0.984556 -0.25062 0)
(1.08844 -0.250671 0)
(1.19579 -0.241833 0)
(1.30637 -0.219166 0)
(1.41643 -0.173322 0)
(1.51622 -0.0897243 0)
(1.59737 0.0558297 0)
(1.63423 0.299341 0)
(1.57106 0.681793 0)
(1.18801 1.14138 0)
(0.713856 1.46741 0)
(0.0232047 -0.154679 0)
(0.0871662 -0.235295 0)
(0.162385 -0.232705 0)
(0.233798 -0.222094 0)
(0.303317 -0.220825 0)
(0.374541 -0.22676 0)
(0.448964 -0.236007 0)
(0.526811 -0.246572 0)
(0.608568 -0.257929 0)
(0.69469 -0.269498 0)
(0.78551 -0.280852 0)
(0.881728 -0.291526 0)
(0.983613 -0.299464 0)
(1.09077 -0.301691 0)
(1.20403 -0.295428 0)
(1.32499 -0.274841 0)
(1.45162 -0.2277 0)
(1.57556 -0.138889 0)
(1.69529 0.0119479 0)
(1.79628 0.273905 0)
(1.79615 0.74492 0)
(1.37365 1.35085 0)
(0.782353 1.89855 0)
(0.0239585 -0.179468 0)
(0.087485 -0.270213 0)
(0.160995 -0.266749 0)
(0.23091 -0.255024 0)
(0.299472 -0.254084 0)
(0.370072 -0.261218 0)
(0.443979 -0.272024 0)
(0.521342 -0.284352 0)
(0.602741 -0.297701 0)
(0.688723 -0.311467 0)
(0.779829 -0.32534 0)
(0.876998 -0.338808 0)
(0.980667 -0.349504 0)
(1.09119 -0.354809 0)
(1.2107 -0.352739 0)
(1.34202 -0.336475 0)
(1.4855 -0.291902 0)
(1.63567 -0.208796 0)
(1.78889 -0.0768076 0)
(1.93705 0.174258 0)
(1.9633 0.741961 0)
(1.40447 1.58519 0)
(0.78111 2.38803 0)
(-0.0482489 0.0223343 0)
(-0.114343 0.0129396 0)
(-0.144868 0.00608556 0)
(-0.156476 0.000988454 0)
(-0.152326 -0.00225851 0)
(-0.139674 -0.0039205 0)
(-0.122927 -0.0045281 0)
(-0.10528 -0.00452698 0)
(-0.0882519 -0.00428162 0)
(-0.0726715 -0.00388375 0)
(-0.0589271 -0.00342877 0)
(-0.0471236 -0.00293625 0)
(-0.037139 -0.00250243 0)
(-0.0287198 -0.00213148 0)
(-0.0217014 -0.00183994 0)
(-0.0158137 -0.00158693 0)
(-0.0107432 -0.00140117 0)
(-0.00626678 -0.00127071 0)
(-0.00210845 -0.00119496 0)
(-0.0545743 0.0685611 0)
(-0.123461 0.037704 0)
(-0.149808 0.0161659 0)
(-0.157403 0.00114203 0)
(-0.150342 -0.00802276 0)
(-0.135556 -0.012679 0)
(-0.117185 -0.0143453 0)
(-0.0980218 -0.0141875 0)
(-0.0799728 -0.0130628 0)
(-0.0639978 -0.0115552 0)
(-0.0503542 -0.00994356 0)
(-0.0390257 -0.00833503 0)
(-0.0298007 -0.00693033 0)
(-0.0223175 -0.00572296 0)
(-0.0163402 -0.00477222 0)
(-0.0115685 -0.0039797 0)
(-0.00767767 -0.00340298 0)
(-0.0044284 -0.00302088 0)
(-0.00155031 -0.00298116 0)
(-0.0641818 0.121283 0)
(-0.141241 0.0628104 0)
(-0.163164 0.0243539 0)
(-0.166056 -0.000576687 0)
(-0.15511 -0.0151018 0)
(-0.137666 -0.0223613 0)
(-0.117735 -0.0247844 0)
(-0.0979381 -0.0242658 0)
(-0.079734 -0.0220801 0)
(-0.0637901 -0.0193201 0)
(-0.0501951 -0.0164371 0)
(-0.0389362 -0.0136518 0)
(-0.0297777 -0.0112471 0)
(-0.0223448 -0.00917223 0)
(-0.01639 -0.00750998 0)
(-0.0116138 -0.00617447 0)
(-0.00772185 -0.00519605 0)
(-0.00445579 -0.00458593 0)
(-0.00156096 -0.00449822 0)
(-0.083157 0.185422 0)
(-0.174457 0.0881598 0)
(-0.185165 0.0289385 0)
(-0.178836 -0.00547733 0)
(-0.161859 -0.0244091 0)
(-0.140571 -0.0334051 0)
(-0.118257 -0.0359099 0)
(-0.097141 -0.0345001 0)
(-0.0783511 -0.0311439 0)
(-0.0622565 -0.0270436 0)
(-0.0486886 -0.0228291 0)
(-0.0375915 -0.0189441 0)
(-0.0286477 -0.0155065 0)
(-0.0214143 -0.0125835 0)
(-0.015655 -0.0102135 0)
(-0.0110535 -0.00833276 0)
(-0.00734326 -0.00699676 0)
(-0.0042358 -0.00613201 0)
(-0.00148178 -0.0060144 0)
(-0.115815 0.269994 0)
(-0.22669 0.112355 0)
(-0.216899 0.0260021 0)
(-0.195486 -0.0156933 0)
(-0.169926 -0.0367607 0)
(-0.14374 -0.0462883 0)
(-0.11845 -0.0481231 0)
(-0.0956845 -0.0452847 0)
(-0.0761537 -0.0404414 0)
(-0.0598141 -0.0347919 0)
(-0.0463507 -0.0291391 0)
(-0.0354892 -0.0241274 0)
(-0.0268055 -0.0196325 0)
(-0.0198874 -0.0158541 0)
(-0.0144253 -0.0127684 0)
(-0.0101312 -0.0104065 0)
(-0.00670905 -0.00869949 0)
(-0.00384931 -0.00756572 0)
(-0.00135256 -0.00742736 0)
(-0.162009 0.384569 0)
(-0.286121 0.129105 0)
(-0.254852 0.00960091 0)
(-0.215492 -0.0339488 0)
(-0.17867 -0.0530314 0)
(-0.146595 -0.0612749 0)
(-0.117906 -0.0615138 0)
(-0.0933708 -0.0566489 0)
(-0.0731154 -0.049917 0)
(-0.0565784 -0.0424954 0)
(-0.0433161 -0.0354063 0)
(-0.0327978 -0.0291061 0)
(-0.0244689 -0.0235802 0)
(-0.0179422 -0.0188961 0)
(-0.0128941 -0.0151903 0)
(-0.00898598 -0.0123339 0)
(-0.00589281 -0.0102247 0)
(-0.00336497 -0.00886006 0)
(-0.00119294 -0.00869432 0)
(-0.207407 0.50721 0)
(-0.333675 0.124924 0)
(-0.287388 -0.0126476 0)
(-0.236254 -0.0591732 0)
(-0.187542 -0.0739843 0)
(-0.148618 -0.078515 0)
(-0.116218 -0.0759015 0)
(-0.0899095 -0.0686688 0)
(-0.069053 -0.0595212 0)
(-0.0524929 -0.0501112 0)
(-0.0395773 -0.0414777 0)
(-0.0294978 -0.0338575 0)
(-0.0216233 -0.0272259 0)
(-0.015622 -0.0217482 0)
(-0.0110833 -0.0174174 0)
(-0.00759521 -0.0140255 0)
(-0.00492672 -0.0115505 0)
(-0.00279239 -0.00995194 0)
(-0.000999542 -0.00976835 0)
(-0.163026 0.798513 0)
(-0.398807 0.172011 0)
(-0.316518 -0.0291056 0)
(-0.258498 -0.0891889 0)
(-0.196683 -0.100688 0)
(-0.149422 -0.0995208 0)
(-0.113192 -0.091945 0)
(-0.0852006 -0.0814458 0)
(-0.0637819 -0.0692468 0)
(-0.0474463 -0.0577916 0)
(-0.0350692 -0.0472798 0)
(-0.0255539 -0.0382932 0)
(-0.018304 -0.0306479 0)
(-0.0129431 -0.0243502 0)
(-0.00895223 -0.0193377 0)
(-0.00598383 -0.0154588 0)
(-0.00379974 -0.0126487 0)
(-0.00212753 -0.0108132 0)
(-0.000781314 -0.0106187 0)
(0.0249642 -0.218748 0)
(0.0874189 -0.323567 0)
(0.157963 -0.317981 0)
(0.225368 -0.305015 0)
(0.292185 -0.305141 0)
(0.361458 -0.31435 0)
(0.434168 -0.327653 0)
(0.510377 -0.342832 0)
(0.590818 -0.359497 0)
(0.676195 -0.37706 0)
(0.767329 -0.395468 0)
(0.865322 -0.414062 0)
(0.970981 -0.430433 0)
(1.08618 -0.443009 0)
(1.21421 -0.450064 0)
(1.35666 -0.444692 0)
(1.51432 -0.419367 0)
(1.68806 -0.375226 0)
(1.85727 -0.286237 0)
(1.95571 0.0805082 0)
(1.85387 1.14257 0)
(1.45154 2.04656 0)
(0.896168 2.96292 0)
(0.0259584 -0.272595 0)
(0.0866901 -0.393765 0)
(0.152938 -0.384595 0)
(0.21652 -0.370658 0)
(0.280665 -0.372858 0)
(0.347763 -0.385115 0)
(0.418395 -0.401879 0)
(0.492565 -0.421052 0)
(0.571222 -0.442488 0)
(0.6553 -0.46569 0)
(0.7459 -0.490989 0)
(0.844104 -0.517488 0)
(0.951491 -0.543441 0)
(1.07203 -0.568607 0)
(1.20803 -0.590164 0)
(1.35436 -0.605824 0)
(1.50407 -0.622292 0)
(1.66368 -0.599822 0)
(1.8189 -0.404843 0)
(1.86357 0.193581 0)
(1.6274 1.44914 0)
(1.51443 2.36649 0)
(1.02091 3.2523 0)
(0.026755 -0.32686 0)
(0.0850734 -0.459335 0)
(0.146349 -0.446224 0)
(0.2057 -0.432533 0)
(0.266742 -0.437515 0)
(0.331004 -0.45299 0)
(0.398747 -0.473232 0)
(0.469956 -0.496507 0)
(0.545808 -0.52302 0)
(0.627485 -0.552374 0)
(0.715981 -0.585257 0)
(0.812117 -0.620786 0)
(0.919577 -0.658309 0)
(1.04258 -0.696984 0)
(1.17361 -0.736012 0)
(1.29961 -0.784314 0)
(1.44247 -0.816114 0)
(1.60379 -0.73291 0)
(1.67851 -0.367331 0)
(1.56434 0.626675 0)
(1.31533 1.87575 0)
(1.32557 2.60607 0)
(1.09495 3.26646 0)
(0.0271767 -0.380969 0)
(0.0823604 -0.52016 0)
(0.138194 -0.503125 0)
(0.193071 -0.490817 0)
(0.250555 -0.499003 0)
(0.311254 -0.517646 0)
(0.375262 -0.541275 0)
(0.442538 -0.568664 0)
(0.514529 -0.600409 0)
(0.592645 -0.636094 0)
(0.677032 -0.67681 0)
(0.76916 -0.722192 0)
(0.876164 -0.771068 0)
(0.99381 -0.821342 0)
(1.09894 -0.884338 0)
(1.20936 -0.958395 0)
(1.35541 -0.953638 0)
(1.43277 -0.702641 0)
(1.27352 -0.0978707 0)
(0.853628 0.877039 0)
(0.744417 2.02463 0)
(0.996674 2.7427 0)
(1.08819 3.1436 0)
(0.027162 -0.434196 0)
(0.0785178 -0.575503 0)
(0.128541 -0.554933 0)
(0.178755 -0.545034 0)
(0.232177 -0.556571 0)
(0.288548 -0.578149 0)
(0.347961 -0.604953 0)
(0.410279 -0.636333 0)
(0.477371 -0.673276 0)
(0.55062 -0.715112 0)
(0.628574 -0.763898 0)
(0.716572 -0.81949 0)
(0.821531 -0.876944 0)
(0.918304 -0.939334 0)
(0.993595 -1.02992 0)
(1.11241 -1.08927 0)
(1.2195 -0.95291 0)
(1.05032 -0.458484 0)
(0.506148 0.315344 0)
(0.109895 0.917125 0)
(0.14446 1.65504 0)
(0.599919 2.48394 0)
(0.977192 2.94199 0)
(0.0266775 -0.485745 0)
(0.0735748 -0.624812 0)
(0.117524 -0.601485 0)
(0.162915 -0.594807 0)
(0.211738 -0.609551 0)
(0.263025 -0.633685 0)
(0.317014 -0.66335 0)
(0.373346 -0.698479 0)
(0.43463 -0.740373 0)
(0.501361 -0.787942 0)
(0.570944 -0.845393 0)
(0.656607 -0.910074 0)
(0.751084 -0.973432 0)
(0.814111 -1.05415 0)
(0.894895 -1.15707 0)
(1.03031 -1.15062 0)
(0.977462 -0.722324 0)
(0.40177 0.111919 0)
(-0.108687 0.696773 0)
(-0.277655 0.973978 0)
(-0.219375 1.30664 0)
(0.182835 1.89617 0)
(0.709967 2.52618 0)
(0.0257472 -0.534736 0)
(0.0676504 -0.667656 0)
(0.105345 -0.642652 0)
(0.145775 -0.639709 0)
(0.18946 -0.657272 0)
(0.234988 -0.683487 0)
(0.282799 -0.715617 0)
(0.332221 -0.754154 0)
(0.386952 -0.800503 0)
(0.444956 -0.853426 0)
(0.50567 -0.919899 0)
(0.588393 -0.989952 0)
(0.655155 -1.06118 0)
(0.697158 -1.16345 0)
(0.795911 -1.24799 0)
(0.860397 -1.03394 0)
(0.550696 -0.240342 0)
(-0.183098 0.588013 0)
(-0.33773 0.882197 0)
(-0.390899 0.996445 0)
(-0.344486 1.12111 0)
(-0.153628 1.39955 0)
(0.307538 2.157 0)
(0.0243966 -0.580567 0)
(0.0609292 -0.704018 0)
(0.0923149 -0.678599 0)
(0.127682 -0.679542 0)
(0.165765 -0.69932 0)
(0.205022 -0.72704 0)
(0.246039 -0.7611 0)
(0.287826 -0.802467 0)
(0.335106 -0.852361 0)
(0.381595 -0.910249 0)
(0.434148 -0.9837 0)
(0.504368 -1.05509 0)
(0.53063 -1.14454 0)
(0.592754 -1.26039 0)
(0.701752 -1.27738 0)
(0.608918 -0.737617 0)
(-0.099685 0.350296 0)
(-0.36315 0.818715 0)
(-0.362172 0.919895 0)
(-0.368643 0.991343 0)
(-0.332102 1.05299 0)
(-0.316504 1.18134 0)
(-0.0621663 1.82131 0)
(0.0226937 -0.622544 0)
(0.0537306 -0.733769 0)
(0.0789147 -0.709249 0)
(0.109238 -0.713861 0)
(0.141421 -0.735104 0)
(0.174107 -0.763665 0)
(0.207801 -0.798955 0)
(0.241188 -0.842172 0)
(0.279053 -0.894144 0)
(0.310678 -0.955576 0)
(0.353514 -1.03002 0)
(0.392869 -1.10594 0)
(0.393459 -1.22727 0)
(0.478762 -1.3303 0)
(0.527876 -1.14031 0)
(0.227492 -0.186173 0)
(-0.370579 0.646165 0)
(-0.302798 0.848114 0)
(-0.302412 0.900352 0)
(-0.289686 0.978126 0)
(-0.262318 1.04414 0)
(-0.299529 1.11223 0)
(-0.190203 1.53214 0)
(0.0208454 -0.659636 0)
(0.0464759 -0.756625 0)
(0.0655678 -0.734283 0)
(0.0909709 -0.742139 0)
(0.116989 -0.764147 0)
(0.142672 -0.792921 0)
(0.16809 -0.828558 0)
(0.191426 -0.872068 0)
(0.216344 -0.923754 0)
(0.230306 -0.984815 0)
(0.258682 -1.05408 0)
(0.262419 -1.14927 0)
(0.290538 -1.30452 0)
(0.372451 -1.35293 0)
(0.301517 -0.896955 0)
(-0.133559 0.203693 0)
(-0.296275 0.739196 0)
(-0.188511 0.801571 0)
(-0.208125 0.886537 0)
(-0.195771 0.964437 0)
(-0.174411 1.04237 0)
(-0.188889 1.0942 0)
(-0.124553 1.32514 0)
(0.0189864 -0.692648 0)
(0.0390948 -0.773596 0)
(0.0517812 -0.754731 0)
(0.0721385 -0.765181 0)
(0.0912513 -0.786953 0)
(0.108813 -0.814713 0)
(0.124325 -0.848697 0)
(0.135671 -0.889574 0)
(0.146195 -0.937113 0)
(0.147279 -0.993476 0)
(0.168789 -1.06086 0)
(0.182286 -1.19205 0)
(0.276765 -1.34886 0)
(0.325346 -1.25628 0)
(0.21172 -0.540223 0)
(-0.114333 0.391927 0)
(-0.0464055 0.735706 0)
(-0.0760735 0.782689 0)
(-0.103097 0.893735 0)
(-0.112856 0.956398 0)
(-0.0972878 1.02653 0)
(-0.0816385 1.06856 0)
(-0.0186129 1.17959 0)
(0.0168597 -0.722664 0)
(0.0304988 -0.785052 0)
(0.0360069 -0.770916 0)
(0.0508783 -0.78262 0)
(0.0624036 -0.802216 0)
(0.0715069 -0.826619 0)
(0.0784863 -0.856113 0)
(0.0830328 -0.892163 0)
(0.0923487 -0.93738 0)
(0.112677 -0.998833 0)
(0.180493 -1.09345 0)
(0.297304 -1.26712 0)
(0.391854 -1.37741 0)
(0.37507 -1.21297 0)
(0.424093 -0.505316 0)
(0.253203 0.476855 0)
(0.217991 0.786181 0)
(0.0386255 0.841138 0)
(-0.0151037 0.922913 0)
(-0.0540312 0.962091 0)
(-0.0467077 1.005 0)
(-0.0198841 1.02779 0)
(0.0425512 1.07001 0)
(0.0143298 -0.745986 0)
(0.0200276 -0.788639 0)
(0.0194434 -0.780562 0)
(0.0298915 -0.792471 0)
(0.0374957 -0.809336 0)
(0.0454239 -0.83144 0)
(0.0604215 -0.861271 0)
(0.0871714 -0.903724 0)
(0.139939 -0.969875 0)
(0.255635 -1.07742 0)
(0.501624 -1.28286 0)
(0.710926 -1.41415 0)
(0.575263 -1.3539 0)
(0.368551 -1.19916 0)
(0.351742 -0.800271 0)
(0.52006 0.580117 0)
(0.404008 0.996025 0)
(0.114828 0.975078 0)
(0.025787 0.979183 0)
(-0.0277203 0.983448 0)
(-0.0282639 0.988838 0)
(-0.0022018 0.986305 0)
(0.0530458 0.987254 0)
(0.0134474 -0.760895 0)
(0.0112321 -0.782838 0)
(0.0132974 -0.785179 0)
(0.0264771 -0.79994 0)
(0.0463214 -0.819367 0)
(0.0803668 -0.852824 0)
(0.158468 -0.915832 0)
(0.279808 -0.991492 0)
(0.429737 -1.12506 0)
(0.585769 -1.32848 0)
(0.737857 -1.4882 0)
(0.768302 -1.41113 0)
(0.713439 -1.0523 0)
(0.376672 -1.05243 0)
(0.280289 -0.790327 0)
(0.352157 0.329575 0)
(0.392029 1.2354 0)
(0.0898172 1.14786 0)
(0.000438557 1.05621 0)
(-0.0434585 1.01081 0)
(-0.043581 0.977595 0)
(-0.017343 0.949167 0)
(0.0313924 0.92334 0)
(0.0173716 -0.773423 0)
(0.0171005 -0.78134 0)
(0.0448619 -0.799853 0)
(0.0743851 -0.826254 0)
(0.120283 -0.863625 0)
(0.176039 -0.934345 0)
(0.246164 -1.02642 0)
(0.335241 -1.13077 0)
(0.43713 -1.27589 0)
(0.551593 -1.44725 0)
(0.698532 -1.54737 0)
(0.716693 -1.40292 0)
(0.807251 -0.916624 0)
(0.53511 -0.715965 0)
(0.224293 -0.670884 0)
(0.20054 0.276987 0)
(0.163543 1.39809 0)
(-0.0683085 1.28897 0)
(-0.0849544 1.1202 0)
(-0.105994 1.02678 0)
(-0.0899673 0.962232 0)
(-0.0563033 0.912393 0)
(-0.00869041 0.868981 0)
(0.0110243 -0.790027 0)
(0.0218868 -0.809361 0)
(0.0471362 -0.831852 0)
(0.0698283 -0.866611 0)
(0.100354 -0.914278 0)
(0.136851 -0.986616 0)
(0.174895 -1.08517 0)
(0.220681 -1.20411 0)
(0.282905 -1.3705 0)
(0.376917 -1.57323 0)
(0.494939 -1.66081 0)
(0.491715 -1.45024 0)
(0.53962 -0.911882 0)
(0.511287 -0.512808 0)
(0.0597407 -0.437401 0)
(-0.0455739 0.453572 0)
(-0.246431 1.54145 0)
(-0.300107 1.33907 0)
(-0.221336 1.13367 0)
(-0.20212 1.01394 0)
(-0.157969 0.932159 0)
(-0.110894 0.869563 0)
(-0.0588114 0.816841 0)
(0.00355077 -0.804935 0)
(0.0115116 -0.825522 0)
(0.0210679 -0.849433 0)
(0.0288395 -0.885021 0)
(0.0381854 -0.936375 0)
(0.0480766 -1.00884 0)
(0.0543655 -1.10694 0)
(0.0604851 -1.23858 0)
(0.0826898 -1.4358 0)
(0.121463 -1.66554 0)
(0.141753 -1.72148 0)
(0.0607608 -1.41428 0)
(0.00741638 -0.855692 0)
(0.029331 -0.41285 0)
(-0.326284 -0.118387 0)
(-0.546645 0.833883 0)
(-0.675725 1.53219 0)
(-0.525478 1.26532 0)
(-0.375876 1.07725 0)
(-0.308938 0.962375 0)
(-0.234124 0.880254 0)
(-0.171688 0.815887 0)
(-0.112062 0.761969 0)
(-0.00217888 -0.806427 0)
(-0.0053443 -0.826657 0)
(-0.0101625 -0.849102 0)
(-0.0176875 -0.883341 0)
(-0.0279558 -0.933023 0)
(-0.0432656 -1.00103 0)
(-0.0673677 -1.09215 0)
(-0.100936 -1.22396 0)
(-0.13737 -1.42662 0)
(-0.20503 -1.64247 0)
(-0.325074 -1.64891 0)
(-0.473138 -1.27651 0)
(-0.50767 -0.762524 0)
(-0.607198 -0.31265 0)
(-0.870995 0.222904 0)
(-1.06902 1.03234 0)
(-0.939548 1.32439 0)
(-0.68318 1.08254 0)
(-0.50455 0.959385 0)
(-0.400782 0.874207 0)
(-0.303936 0.806417 0)
(-0.229041 0.750454 0)
(-0.162308 0.702123 0)
(-0.0067276 -0.795796 0)
(-0.0212667 -0.816131 0)
(-0.0377884 -0.83518 0)
(-0.0580898 -0.865587 0)
(-0.0846408 -0.908612 0)
(-0.120422 -0.966437 0)
(-0.170963 -1.04223 0)
(-0.240821 -1.1522 0)
(-0.342842 -1.31847 0)
(-0.524365 -1.48637 0)
(-0.770095 -1.46573 0)
(-0.963882 -1.12208 0)
(-1.03097 -0.598877 0)
(-1.14343 -0.0435567 0)
(-1.35707 0.501653 0)
(-1.3163 0.942049 0)
(-1.01386 0.995335 0)
(-0.759407 0.859226 0)
(-0.58191 0.811114 0)
(-0.462325 0.763235 0)
(-0.357005 0.717585 0)
(-0.275606 0.676289 0)
(-0.204862 0.637975 0)
(-0.0107642 -0.776893 0)
(-0.034443 -0.795245 0)
(-0.0605385 -0.810799 0)
(-0.0913672 -0.835364 0)
(-0.129896 -0.86919 0)
(-0.180046 -0.912955 0)
(-0.247843 -0.967223 0)
(-0.340097 -1.0381 0)
(-0.479019 -1.13841 0)
(-0.713333 -1.23945 0)
(-1.02159 -1.21729 0)
(-1.29446 -0.957666 0)
(-1.47007 -0.497778 0)
(-1.53912 0.0142278 0)
(-1.48302 0.446575 0)
(-1.27208 0.672209 0)
(-0.968166 0.673011 0)
(-0.769146 0.659526 0)
(-0.609656 0.662724 0)
(-0.492522 0.646857 0)
(-0.389747 0.623793 0)
(-0.308035 0.598671 0)
(-0.23721 0.572088 0)
(-0.0143111 -0.750568 0)
(-0.0448275 -0.766395 0)
(-0.0781163 -0.778111 0)
(-0.116524 -0.796035 0)
(-0.162686 -0.819759 0)
(-0.220409 -0.848769 0)
(-0.295009 -0.881268 0)
(-0.391345 -0.914875 0)
(-0.523922 -0.951509 0)
(-0.728206 -0.980443 0)
(-1.0031 -0.937268 0)
(-1.26246 -0.744441 0)
(-1.41331 -0.409187 0)
(-1.42455 -0.03625 0)
(-1.30494 0.246615 0)
(-1.08868 0.385678 0)
(-0.879537 0.442254 0)
(-0.73651 0.502591 0)
(-0.602786 0.530313 0)
(-0.497859 0.537927 0)
(-0.403991 0.533436 0)
(-0.326583 0.522719 0)
(-0.258946 0.507433 0)
(-0.0167851 -0.717957 0)
(-0.0521084 -0.731282 0)
(-0.0900993 -0.739194 0)
(-0.13291 -0.750711 0)
(-0.18275 -0.765037 0)
(-0.242662 -0.780885 0)
(-0.316513 -0.795775 0)
(-0.40672 -0.80474 0)
(-0.517455 -0.802656 0)
(-0.663577 -0.781414 0)
(-0.850362 -0.714779 0)
(-1.03426 -0.569061 0)
(-1.14145 -0.349393 0)
(-1.13547 -0.113017 0)
(-1.03994 0.0755951 0)
(-0.904595 0.202828 0)
(-0.785848 0.301589 0)
(-0.681609 0.380761 0)
(-0.575401 0.419405 0)
(-0.485944 0.442483 0)
(-0.403837 0.451339 0)
(-0.333442 0.451983 0)
(-0.271081 0.446383 0)
(-0.0182 -0.681535 0)
(-0.0565301 -0.692714 0)
(-0.0970963 -0.697135 0)
(-0.141756 -0.703107 0)
(-0.192319 -0.70952 0)
(-0.250898 -0.714819 0)
(-0.319905 -0.716484 0)
(-0.400538 -0.710332 0)
(-0.492965 -0.690848 0)
(-0.599119 -0.650439 0)
(-0.717236 -0.577045 0)
(-0.827415 -0.45859 0)
(-0.893713 -0.299938 0)
(-0.894604 -0.133601 0)
(-0.844673 0.00620535 0)
(-0.774873 0.117486 0)
(-0.700872 0.213568 0)
(-0.620379 0.286369 0)
(-0.537944 0.330448 0)
(-0.463499 0.361844 0)
(-0.39357 0.379401 0)
(-0.331327 0.388314 0)
(-0.27523 0.390381 0)
(-0.0188911 -0.643104 0)
(-0.0585037 -0.652511 0)
(-0.0999415 -0.653909 0)
(-0.144623 -0.655376 0)
(-0.193934 -0.655605 0)
(-0.249218 -0.653114 0)
(-0.311666 -0.645576 0)
(-0.381589 -0.629766 0)
(-0.458572 -0.601763 0)
(-0.541343 -0.555672 0)
(-0.62425 -0.483671 0)
(-0.694181 -0.382844 0)
(-0.735557 -0.261998 0)
(-0.741457 -0.138863 0)
(-0.718393 -0.028122 0)
(-0.677235 0.0674511 0)
(-0.623794 0.15014 0)
(-0.561201 0.214242 0)
(-0.496995 0.260365 0)
(-0.435592 0.294993 0)
(-0.376804 0.317743 0)
(-0.32274 0.332288 0)
(-0.273101 0.340042 0)
(-0.0190473 -0.603837 0)
(-0.0584707 -0.611778 0)
(-0.0994052 -0.610799 0)
(-0.142797 -0.608809 0)
(-0.189571 -0.604525 0)
(-0.240577 -0.596652 0)
(-0.296259 -0.583259 0)
(-0.356322 -0.561814 0)
(-0.41994 -0.529668 0)
(-0.485529 -0.48396 0)
(-0.54818 -0.421061 0)
(-0.598396 -0.339285 0)
(-0.627323 -0.24399 0)
(-0.6332 -0.146172 0)
(-0.620288 -0.0541049 0)
(-0.592812 0.0291392 0)
(-0.553423 0.100971 0)
(-0.505971 0.159204 0)
(-0.455696 0.204707 0)
(-0.405321 0.239961 0)
(-0.356167 0.26552 0)
(-0.309694 0.283662 0)
(-0.26624 0.295419 0)
(-0.0186988 -0.5654 0)
(-0.056949 -0.57204 0)
(-0.096388 -0.569354 0)
(-0.137627 -0.564834 0)
(-0.181153 -0.557422 0)
(-0.227471 -0.546007 0)
(-0.276593 -0.529117 0)
(-0.327949 -0.505025 0)
(-0.380392 -0.471944 0)
(-0.432169 -0.427891 0)
(-0.480008 -0.371017 0)
(-0.518381 -0.30167 0)
(-0.54175 -0.224261 0)
(-0.548342 -0.145344 0)
(-0.540287 -0.0695369 0)
(-0.520442 0.0008774 0)
(-0.491142 0.0634875 0)
(-0.455088 0.116484 0)
(-0.415461 0.159874 0)
(-0.374348 0.194624 0)
(-0.33337 0.221466 0)
(-0.293688 0.241761 0)
(-0.25593 0.256227 0)
(-0.0178862 -0.528302 0)
(-0.0543266 -0.533827 0)
(-0.0916124 -0.529994 0)
(-0.130152 -0.523743 0)
(-0.170124 -0.51431 0)
(-0.211773 -0.500794 0)
(-0.254884 -0.482119 0)
(-0.298829 -0.457092 0)
(-0.342587 -0.42461 0)
(-0.384553 -0.383727 0)
(-0.422077 -0.333748 0)
(-0.451651 -0.27511 0)
(-0.470302 -0.210516 0)
(-0.47701 -0.144224 0)
(-0.472593 -0.0798263 0)
(-0.458548 -0.0194858 0)
(-0.436483 0.0351809 0)
(-0.408589 0.0830493 0)
(-0.377097 0.123633 0)
(-0.343607 0.157229 0)
(-0.30951 0.184352 0)
(-0.275795 0.205802 0)
(-0.243179 0.22203 0)
(-0.0167512 -0.493174 0)
(-0.0509829 -0.497842 0)
(-0.0857259 -0.493277 0)
(-0.121257 -0.485961 0)
(-0.157605 -0.475346 0)
(-0.194802 -0.460755 0)
(-0.232558 -0.441437 0)
(-0.270237 -0.416626 0)
(-0.306904 -0.385649 0)
(-0.341258 -0.347987 0)
(-0.37145 -0.303499 0)
(-0.395206 -0.252953 0)
(-0.410598 -0.198312 0)
(-0.416889 -0.1422 0)
(-0.414536 -0.0869976 0)
(-0.404503 -0.0344803 0)
(-0.38785 0.0138855 0)
(-0.366163 0.0569305 0)
(-0.341035 0.0944802 0)
(-0.313718 0.126468 0)
(-0.285361 0.153182 0)
(-0.256811 0.175072 0)
(-0.228771 0.192357 0)
(-0.0154667 -0.460328 0)
(-0.0472222 -0.464409 0)
(-0.0792173 -0.459396 0)
(-0.111617 -0.451512 0)
(-0.144407 -0.440325 0)
(-0.177463 -0.425373 0)
(-0.210477 -0.406147 0)
(-0.242871 -0.382172 0)
(-0.273853 -0.353088 0)
(-0.302371 -0.318707 0)
(-0.32708 -0.279146 0)
(-0.346501 -0.235089 0)
(-0.359425 -0.187939 0)
(-0.365298 -0.139543 0)
(-0.364275 -0.0916536 0)
(-0.357034 -0.0456501 0)
(-0.344512 -0.00267173 0)
(-0.327596 0.0362835 0)
(-0.307379 0.0709545 0)
(-0.285042 0.101171 0)
(-0.261454 0.127076 0)
(-0.237329 0.148914 0)
(-0.213314 0.16674 0)
(-0.0141605 -0.430047 0)
(-0.0432629 -0.433759 0)
(-0.0724245 -0.428506 0)
(-0.101709 -0.420402 0)
(-0.131083 -0.409071 0)
(-0.160343 -0.394229 0)
(-0.18918 -0.37555 0)
(-0.21709 -0.352763 0)
(-0.243413 -0.325701 0)
(-0.267329 -0.294354 0)
(-0.28787 -0.258968 0)
(-0.304034 -0.220168 0)
(-0.315024 -0.178992 0)
(-0.320449 -0.136737 0)
(-0.320356 -0.0947198 0)
(-0.315161 -0.0540838 0)
(-0.30554 -0.0157001 0)
(-0.292206 0.0197937 0)
(-0.275976 0.0518521 0)
(-0.257706 0.0803122 0)
(-0.238099 0.105221 0)
(-0.217754 0.126705 0)
(-0.197256 0.144715 0)
(-0.0128823 -0.402474 0)
(-0.0392364 -0.405952 0)
(-0.0655568 -0.400618 0)
(-0.0918325 -0.392519 0)
(-0.117976 -0.381329 0)
(-0.143776 -0.366888 0)
(-0.168929 -0.349007 0)
(-0.193008 -0.327553 0)
(-0.215472 -0.302487 0)
(-0.235687 -0.273902 0)
(-0.252947 -0.242086 0)
(-0.266561 -0.20758 0)
(-0.275988 -0.171184 0)
(-0.280945 -0.133861 0)
(-0.281444 -0.096595 0)
(-0.277757 -0.0602901 0)
(-0.270372 -0.0256788 0)
(-0.259812 0.00669597 0)
(-0.246713 0.0363352 0)
(-0.231753 0.063098 0)
(-0.215467 0.0869361 0)
(-0.198349 0.10789 0)
(-0.180914 0.125847 0)
(-0.0116294 -0.377647 0)
(-0.0352231 -0.380941 0)
(-0.058752 -0.375653 0)
(-0.0821655 -0.367701 0)
(-0.105286 -0.35683 0)
(-0.127939 -0.34296 0)
(-0.14983 -0.325999 0)
(-0.170601 -0.305907 0)
(-0.189818 -0.282724 0)
(-0.20699 -0.256597 0)
(-0.221597 -0.227821 0)
(-0.233154 -0.196862 0)
(-0.241282 -0.164352 0)
(-0.245782 -0.13103 0)
(-0.246651 -0.0976621 0)
(-0.244069 -0.0649681 0)
(-0.238367 -0.0335496 0)
(-0.230011 -0.00385542 0)
(-0.219441 0.0236911 0)
(-0.20716 0.0488913 0)
(-0.193643 0.0716633 0)
(-0.17928 0.0919978 0)
(-0.164508 0.109746 0)
(-0.0103881 -0.355502 0)
(-0.031283 -0.358616 0)
(-0.0521132 -0.353466 0)
(-0.0728161 -0.345749 0)
(-0.0931232 -0.3353 0)
(-0.112904 -0.322085 0)
(-0.131886 -0.306081 0)
(-0.149771 -0.287308 0)
(-0.16621 -0.265853 0)
(-0.180824 -0.241889 0)
(-0.193229 -0.2157 0)
(-0.203075 -0.187687 0)
(-0.210094 -0.158363 0)
(-0.214145 -0.128313 0)
(-0.215223 -0.098147 0)
(-0.213456 -0.0684496 0)
(-0.209078 -0.0397237 0)
(-0.202426 -0.0123546 0)
(-0.193875 0.0133769 0)
(-0.183826 0.0371756 0)
(-0.172644 0.0589366 0)
(-0.160639 0.0786235 0)
(-0.148185 0.0960729 0)
(-0.0091591 -0.335933 0)
(-0.027468 -0.338863 0)
(-0.0457185 -0.333899 0)
(-0.0638515 -0.326467 0)
(-0.0815389 -0.316487 0)
(-0.0986862 -0.303954 0)
(-0.115048 -0.288888 0)
(-0.13038 -0.271349 0)
(-0.144401 -0.251448 0)
(-0.156819 -0.22937 0)
(-0.167347 -0.205378 0)
(-0.17573 -0.179821 0)
(-0.181777 -0.153124 0)
(-0.185385 -0.125764 0)
(-0.186554 -0.0982356 0)
(-0.185378 -0.0710182 0)
(-0.182034 -0.0445386 0)
(-0.176773 -0.0191299 0)
(-0.169881 0.00497722 0)
(-0.16166 0.0275377 0)
(-0.152446 0.0483716 0)
(-0.142468 0.0674256 0)
(-0.13204 0.0845326 0)
(-0.00795621 -0.31886 0)
(-0.0238126 -0.321613 0)
(-0.0396101 -0.316849 0)
(-0.0553008 -0.309719 0)
(-0.0705408 -0.300213 0)
(-0.085256 -0.288342 0)
(-0.0992357 -0.274155 0)
(-0.112277 -0.257733 0)
(-0.124157 -0.239203 0)
(-0.13465 -0.218748 0)
(-0.143539 -0.196612 0)
(-0.150639 -0.1731 0)
(-0.155812 -0.148572 0)
(-0.158983 -0.123424 0)
(-0.160157 -0.0980657 0)
(-0.159408 -0.0729001 0)
(-0.156872 -0.0482983 0)
(-0.152735 -0.024555 0)
(-0.147207 -0.00184767 0)
(-0.140527 0.0196396 0)
(-0.132991 0.0396556 0)
(-0.124772 0.0581191 0)
(-0.116123 0.0748747 0)
(-0.0067912 -0.304191 0)
(-0.0203242 -0.306792 0)
(-0.0337894 -0.302224 0)
(-0.0471517 -0.295393 0)
(-0.0600925 -0.286339 0)
(-0.0725442 -0.275083 0)
(-0.0843325 -0.261691 0)
(-0.0952908 -0.246255 0)
(-0.105243 -0.228909 0)
(-0.114016 -0.209831 0)
(-0.121446 -0.189244 0)
(-0.127395 -0.167421 0)
(-0.131765 -0.14467 0)
(-0.134503 -0.121329 0)
(-0.135616 -0.0977449 0)
(-0.135164 -0.0742594 0)
(-0.133256 -0.0511973 0)
(-0.130033 -0.0288275 0)
(-0.125652 -0.00731048 0)
(-0.120297 0.0132286 0)
(-0.114204 0.0325388 0)
(-0.107526 0.0504716 0)
(-0.100456 0.0668904 0)
(-0.00566513 -0.291671 0)
(-0.0169871 -0.294154 0)
(-0.0282357 -0.289774 0)
(-0.0393731 -0.283234 0)
(-0.0501412 -0.274605 0)
(-0.0604687 -0.263915 0)
(-0.0702177 -0.251235 0)
(-0.079254 -0.236664 0)
(-0.0874411 -0.220335 0)
(-0.0946459 -0.202419 0)
(-0.100747 -0.183122 0)
(-0.105643 -0.162686 0)
(-0.109263 -0.141384 0)
(-0.111572 -0.119509 0)
(-0.112577 -0.0973601 0)
(-0.112325 -0.0752359 0)
(-0.110906 -0.0534214 0)
(-0.108431 -0.0321655 0)
(-0.105027 -0.0116331 0)
(-0.100836 0.00808679 0)
(-0.0960012 0.0268191 0)
(-0.0906894 0.0442967 0)
(-0.0850379 0.0604097 0)
(-0.0045578 -0.281168 0)
(-0.0137582 -0.283555 0)
(-0.0229158 -0.279336 0)
(-0.0319299 -0.27306 0)
(-0.0406403 -0.264806 0)
(-0.0489661 -0.254609 0)
(-0.0568036 -0.242544 0)
(-0.0640469 -0.228711 0)
(-0.070592 -0.21324 0)
(-0.0763397 -0.196292 0)
(-0.0812018 -0.178058 0)
(-0.085107 -0.158757 0)
(-0.0880066 -0.138632 0)
(-0.089879 -0.117941 0)
(-0.0907327 -0.0969471 0)
(-0.0906075 -0.0759131 0)
(-0.0895726 -0.055093 0)
(-0.0877212 -0.0347219 0)
(-0.0851586 -0.014979 0)
(-0.0819787 0.0040723 0)
(-0.0782679 0.0223464 0)
(-0.0742021 0.0394527 0)
(-0.0698519 0.0553005 0)
(-0.00342516 -0.273193 0)
(-0.0105401 -0.275431 0)
(-0.0177192 -0.271327 0)
(-0.0246968 -0.265259 0)
(-0.0314431 -0.257294 0)
(-0.0378734 -0.247475 0)
(-0.0439141 -0.235879 0)
(-0.0494842 -0.222607 0)
(-0.0545048 -0.207787 0)
(-0.0589014 -0.191573 0)
(-0.0626097 -0.174144 0)
(-0.0655798 -0.155703 0)
(-0.0677803 -0.13647 0)
(-0.0692014 -0.116679 0)
(-0.0698562 -0.0965665 0)
(-0.069781 -0.0763676 0)
(-0.0690341 -0.0563081 0)
(-0.0676944 -0.0366031 0)
(-0.0658495 -0.017437 0)
(-0.0635702 0.00111595 0)
(-0.060907 0.0190236 0)
(-0.0580012 0.0358443 0)
(-0.0548731 0.0514687 0)
(-0.00225114 -0.267911 0)
(-0.0072453 -0.269775 0)
(-0.0124699 -0.265785 0)