/*--------------------------------*- C++ -*----------------------------------*\
| =========                 |                                                 |
| \\      /  F ield         | OpenFOAM: The Open Source CFD Toolbox           |
|  \\    /   O peration     | Version:  2206                                  |
|   \\  /    A nd           | Website:  www.openfoam.com                      |
|    \\/     M anipulation  |                                                 |
\*---------------------------------------------------------------------------*/
FoamFile
{
    version     2.0;
    format      ascii;
    arch        "LSB;label=32;scalar=64";
    class       surfaceScalarField;
    location    "0.125";
    object      alphaPhi0.water;
}
// * * * * * * * * * * * * * * * * * * * * * * * * * * * * * * * * * * * * * //

dimensions      [0 3 -1 0 0 0 0];

oriented        oriented;

internalField   nonuniform List<scalar> 
4432
(
4.8388e-06
-4.8388e-06
1.13874e-05
-6.5486e-06
1.77156e-05
-6.3282e-06
2.38916e-05
-6.17599e-06
3.01832e-05
-6.29168e-06
3.67216e-05
-6.53833e-06
4.35755e-05
-6.85389e-06
5.07895e-05
-7.21398e-06
5.84268e-05
-7.63729e-06
6.65357e-05
-8.1089e-06
7.5167e-05
-8.63133e-06
8.43409e-05
-9.17392e-06
9.4031e-05
-9.6901e-06
0.00010427
-1.02393e-05
0.000115192
-1.09219e-05
0.00012667
-1.1478e-05
0.000137666
-1.09958e-05
0.000145938
-8.2716e-06
0.000148618
-2.8862e-06
0.000142902
5.51992e-06
0.000123154
1.95265e-05
6.26892e-05
4.01e-05
3.42147e-05
4.86603e-06
-9.70483e-06
1.13956e-05
-1.30781e-05
1.77261e-05
-1.26588e-05
2.39092e-05
-1.23591e-05
3.02019e-05
-1.25844e-05
3.67393e-05
-1.30758e-05
4.35896e-05
-1.37041e-05
5.08017e-05
-1.44261e-05
5.84354e-05
-1.52711e-05
6.65333e-05
-1.62068e-05
7.51547e-05
-1.72527e-05
8.43527e-05
-1.83719e-05
9.40972e-05
-1.94346e-05
0.000104356
-2.04986e-05
0.000115189
-2.17545e-05
0.000126483
-2.27721e-05
0.000137425
-2.19379e-05
0.000146655
-1.75019e-05
0.000153023
-9.25326e-06
0.00015455
2.27877e-06
0.000152641
2.11868e-05
0.000101006
6.76771e-05
0.000106746
4.87484e-06
-1.45797e-05
1.13601e-05
-1.95634e-05
1.76539e-05
-1.89526e-05
2.38107e-05
-1.85158e-05
3.00765e-05
-1.88503e-05
3.65856e-05
-1.95849e-05
4.34049e-05
-2.05234e-05
5.05858e-05
-2.1607e-05
5.81871e-05
-2.28723e-05
6.62498e-05
-2.42695e-05
7.4846e-05
-2.5849e-05
8.40484e-05
-2.75742e-05
9.38239e-05
-2.92101e-05
0.00010412
-3.07948e-05
0.000114987
-3.26211e-05
0.000126333
-3.41183e-05
0.000137452
-3.30569e-05
0.000147255
-2.73052e-05
0.000155729
-1.77282e-05
0.000159503
-4.57219e-06
0.000129742
1.50359e-05
8.41721e-05
5.22832e-05
0.000134912
4.88098e-06
-1.94607e-05
1.13109e-05
-2.59934e-05
1.75503e-05
-2.51919e-05
2.36657e-05
-2.46312e-05
2.98937e-05
-2.50783e-05
3.63642e-05
-2.60554e-05
4.31422e-05
-2.73014e-05
5.02812e-05
-2.8746e-05
5.78403e-05
-3.04315e-05
6.5864e-05
-3.22932e-05
7.44368e-05
-3.44218e-05
8.36394e-05
-3.67768e-05
9.34471e-05
-3.90177e-05
0.000103845
-4.11925e-05
0.000114908
-4.36841e-05
0.00012654
-4.57509e-05
0.00013821
-4.47269e-05
0.000149122
-3.82178e-05
0.000158632
-2.72507e-05
0.00015201
-1.43406e-05
8.45595e-05
9.34925e-06
4.85004e-05
9.51289e-06
0.000112968
4.8843e-06
-2.43449e-05
1.12472e-05
-3.23563e-05
1.74169e-05
-3.13617e-05
2.3478e-05
-3.06922e-05
2.96588e-05
-3.12592e-05
3.60828e-05
-3.24793e-05
4.28124e-05
-3.40311e-05
4.99035e-05
-3.5837e-05
5.74165e-05
-3.79445e-05
6.5401e-05
-4.02777e-05
7.39561e-05
-4.29768e-05
8.31681e-05
-4.59888e-05
9.30348e-05
-4.88844e-05
0.000103607
-5.17645e-05
0.000114952
-5.50289e-05
0.00012695
-5.77495e-05
0.000139434
-5.72105e-05
0.000151775
-5.05694e-05
0.000145591
-4.00513e-05
7.31045e-05
-1.33879e-05
1.85448e-05
2.4985e-07
1.46937e-05
3.15409e-06
5.43678e-05
4.88881e-06
-2.92337e-05
1.11724e-05
-3.86399e-05
1.72587e-05
-3.7448e-05
2.3256e-05
-3.66896e-05
2.93841e-05
-3.73872e-05
3.5757e-05
-3.88523e-05
4.24342e-05
-4.07083e-05
4.94732e-05
-4.2876e-05
5.69371e-05
-4.54084e-05
6.48811e-05
-4.82217e-05
7.34147e-05
-5.15104e-05
8.26224e-05
-5.51965e-05
9.25432e-05
-5.88052e-05
0.000103309
-6.25305e-05
0.00011494
-6.66594e-05
0.000127389
-7.0199e-05
0.000141099
-7.09227e-05
0.000146105
-6.22327e-05
7.20479e-05
-3.45181e-05
8.53771e-06
-4.27215e-06
5.77125e-06
1.75943e-07
6.35085e-06
1.00725e-06
5.57013e-06
4.89965e-06
-3.41334e-05
1.10852e-05
-4.48254e-05
1.70732e-05
-4.34361e-05
2.29979e-05
-4.26143e-05
2.9066e-05
-4.34553e-05
3.53794e-05
-4.51657e-05
4.19941e-05
-4.7323e-05
4.89678e-05
-4.98497e-05
5.63662e-05
-5.28068e-05
6.42515e-05
-5.6107e-05
7.27394e-05
-5.99984e-05
8.18995e-05
-6.43566e-05
9.18189e-05
-6.87246e-05
0.000102711
-7.34222e-05
0.000114565
-7.85132e-05
0.00012755
-8.3185e-05
0.000140134
-8.35267e-05
9.01557e-05
-6.7938e-05
9.25071e-06
-1.28024e-05
2.02572e-06
-7.74228e-07
1.75899e-06
9.50662e-08
1.26457e-06
4.61248e-07
-5.86437e-07
4.9132e-06
-3.90466e-05
1.09728e-05
-5.0885e-05
1.68497e-05
-4.93129e-05
2.26891e-05
-4.84537e-05
2.8682e-05
-4.94482e-05
3.4918e-05
-5.14017e-05
4.1449e-05
-5.3854e-05
4.83338e-05
-5.67345e-05
5.56382e-05
-6.01112e-05
6.34317e-05
-6.39005e-05
7.18365e-05
-6.84031e-05
8.09078e-05
-7.3428e-05
9.07651e-05
-7.85818e-05
0.000101662
-8.43195e-05
0.000113657
-9.05077e-05
0.000126715
-9.62478e-05
0.000123183
-9.24536e-05
2.22508e-05
-4.19093e-05
1.69619e-06
-3.40623e-06
4.60652e-07
-1.76927e-08
4.00261e-07
5.48818e-08
3.79504e-07
3.44616e-07
-4.83175e-07
2.04177e-26
-3.12737e-26
2.8127e-26
-9.60082e-26
5.85153e-27
-2.83601e-26
1.06967e-28
-1.26119e-27
1.55176e-30
-1.76035e-29
3.76565e-32
-1.82906e-31
1.50775e-33
-1.4873e-33
6.66251e-35
1.4329e-35
2.334e-36
1.47956e-36
6.72301e-38
7.41893e-38
1.65814e-39
2.78267e-39
3.45952e-41
8.4647e-41
5.91754e-43
2.11937e-42
7.97933e-45
4.32892e-44
8.00564e-47
7.03612e-46
5.424e-49
8.70039e-48
2.00758e-51
7.5486e-50
4.82558e-52
3.64288e-52
1.16985e-52
7.40159e-25
-3.60857e-24
8.87768e-24
-3.32411e-23
1.55905e-24
-9.68718e-24
2.29414e-26
-3.96377e-25
2.86101e-28
-5.14456e-27
6.09962e-30
-5.25317e-29
1.8131e-31
-3.83547e-31
6.49805e-33
4.96171e-33
2.10764e-34
5.25768e-34
5.91753e-36
2.52526e-35
1.43468e-37
9.18682e-37
2.93499e-39
2.72776e-38
4.89579e-41
6.66842e-40
6.36484e-43
1.32279e-41
6.01705e-45
2.06028e-43
3.65634e-47
2.37282e-45
1.09306e-49
1.79988e-47
5.66936e-52
6.67992e-50
3.18348e-52
1.98826e-23
-2.12418e-22
9.55105e-22
-6.41683e-21
1.35944e-22
-1.54244e-21
1.78001e-24
-5.08415e-23
2.30391e-26
-6.09924e-25
4.63578e-28
-5.98215e-27
1.06977e-29
-3.67585e-29
2.85397e-31
4.7481e-31
7.76854e-33
3.61384e-32
1.97728e-34
1.46267e-33
4.48618e-36
4.76863e-35
8.67791e-38
1.30901e-36
1.36813e-39
2.99888e-38
1.66033e-41
5.57878e-40
1.41226e-43
8.03458e-42
7.56571e-46
8.19327e-44
2.31062e-48
5.84643e-46
6.90275e-51
2.37021e-48
2.98187e-50
-1.43913e-20
-1.35802e-20
7.1077e-20
-1.36709e-18
7.48716e-21
-2.167e-19
8.62771e-23
-4.35459e-21
1.19141e-24
-4.42598e-23
2.32223e-26
-4.04183e-25
4.66751e-28
-2.04786e-27
1.00207e-29
3.10005e-29
2.2554e-31
1.72231e-30
4.99252e-33
5.75821e-32
1.02557e-34
1.63071e-33
1.83704e-36
4.03005e-35
2.68255e-38
8.4746e-37
3.0344e-40
1.44451e-38
2.66099e-42
2.00125e-40
1.61593e-44
2.19037e-42
5.06272e-47
1.66175e-44
2.1092e-49
6.492e-47
1.34699e-48
-2.92606e-18
1.17805e-18
3.02352e-18
-1.0151e-16
2.82489e-19
-1.4731e-17
2.8142e-21
-2.36918e-19
4.05151e-23
-1.97987e-21
7.77972e-25
-1.64739e-23
1.46946e-26
-6.5624e-26
2.81466e-28
1.39329e-27
5.45481e-30
6.08984e-29
1.04133e-31
1.72891e-30
1.88256e-33
4.23103e-32
3.04884e-35
9.21753e-34
4.29482e-37
1.76746e-35
5.16638e-39
3.00731e-37
4.75065e-41
4.32118e-39
2.86518e-43
4.78525e-41
8.29511e-46
3.59724e-43
4.75692e-48
1.16184e-45
4.07989e-47
-4.82572e-17
1.0574e-16
4.64223e-17
-1.01659e-15
5.48704e-18
-2.00894e-16
6.19905e-20
-4.6454e-18
8.23595e-22
-3.87943e-20
1.57947e-23
-2.98285e-22
3.01531e-25
-7.8474e-25
5.60184e-27
3.86334e-26
1.00659e-28
1.45121e-27
1.73755e-30
3.74403e-29
2.84483e-32
8.26756e-31
4.4155e-34
1.66319e-32
6.31075e-36
3.12087e-34
7.58695e-38
5.27349e-36
6.87216e-40
7.48054e-38
4.08088e-42
8.17458e-40
1.1947e-44
6.03264e-42
8.96275e-47
2.14248e-44
9.22246e-46
2.41529e-16
8.12072e-17
3.1679e-16
-1.95334e-15
4.09207e-17
-6.57053e-16
6.65291e-19
-2.47184e-17
8.42838e-21
-2.62793e-19
1.65265e-22
-2.02838e-21
3.39704e-24
5.98832e-26
6.57266e-26
5.51357e-25
1.19098e-27
1.95222e-26
2.0361e-29
4.98373e-28
3.33503e-31
1.0972e-29
5.25475e-33
2.23408e-31
7.5314e-35
4.23256e-33
8.97773e-37
7.14685e-35
8.0554e-39
1.00824e-36
4.73098e-41
1.09277e-38
1.39704e-43
7.97421e-41
1.35875e-45
2.98616e-43
1.62845e-44
1.12803e-15
-7.52413e-16
1.08814e-15
-1.05054e-15
1.29432e-16
-5.55708e-16
2.87622e-18
-4.6638e-17
4.24432e-20
-7.53737e-19
9.13222e-22
-7.00747e-21
2.09304e-23
3.86607e-23
4.47279e-25
4.20283e-24
8.76312e-27
1.5368e-25
1.59846e-28
4.19541e-27
2.81564e-30
9.96397e-29
4.69785e-32
2.17893e-30
6.912e-34
4.334e-32
8.29519e-36
7.50715e-34
7.42278e-38
1.06913e-35
4.32257e-40
1.15751e-37
1.27405e-42
8.36996e-40
1.67632e-44
3.18102e-42
2.27164e-43
1.03371e-05
-4.93837e-05
2.28839e-05
-6.34318e-05
3.49227e-05
-6.13517e-05
4.69714e-05
-6.05024e-05
5.93915e-05
-6.18683e-05
7.231e-05
-6.43201e-05
8.58306e-05
-6.73746e-05
0.000100069
-7.09726e-05
0.000115179
-7.52218e-05
0.000131315
-8.00359e-05
0.000148746
-8.58347e-05
0.000167577
-9.22585e-05
0.000188068
-9.90733e-05
0.00021099
-0.000107241
0.000237639
-0.000117156
0.000253336
-0.000112038
0.00010815
-6.52602e-05
4.50937e-06
-7.30119e-06
2.58242e-07
-2.22173e-07
7.64366e-08
2.16173e-08
8.02833e-08
1.11384e-08
1.67119e-07
1.67839e-07
-2.864e-08
2.22237e-06
1.02071e-05
-5.95909e-05
2.20646e-05
-7.52893e-05
3.34618e-05
-7.27489e-05
4.49655e-05
-7.20061e-05
5.68588e-05
-7.37615e-05
6.92241e-05
-7.66854e-05
8.21472e-05
-8.02977e-05
9.5746e-05
-8.45714e-05
0.000110167
-8.96428e-05
0.000125563
-9.54323e-05
0.00014221
-0.000102481
0.000160186
-0.000110235
0.000179811
-0.000118698
0.000202073
-0.000129504
0.000225966
-0.000141052
0.000136667
-0.000113509
7.76637e-06
-1.44111e-05
4.32139e-07
-1.05522e-06
1.95842e-08
2.11831e-08
9.07149e-09
4.99432e-09
1.03683e-08
3.39668e-09
1.15935e-07
4.77312e-08
4.27928e-07
1.24992e-06
9.9911e-06
-6.9582e-05
2.10607e-05
-8.63589e-05
3.17262e-05
-8.34143e-05
4.2601e-05
-8.28809e-05
5.38663e-05
-8.50269e-05
6.55591e-05
-8.83782e-05
7.77525e-05
-9.2491e-05
9.05592e-05
-9.73781e-05
0.000104111
-0.000103195
0.000118544
-0.000109865
0.000134125
-0.000118063
0.00015083
-0.00012694
0.000168991
-0.000136859
0.000190093
-0.000150606
0.000186633
-0.000137617
1.54485e-05
-4.48775e-05
1.21396e-06
-2.21605e-06
1.25202e-08
-1.41746e-08
-2.89439e-10
7.21792e-09
6.77896e-10
5.6004e-10
2.41643e-09
5.20559e-10
3.87483e-08
7.57617e-09
8.03808e-08
3.67547e-07
9.67154e-06
-7.92535e-05
1.98716e-05
-9.65589e-05
2.97487e-05
-9.32915e-05
3.99196e-05
-9.30518e-05
5.04613e-05
-9.55686e-05
6.13736e-05
-9.92904e-05
7.27197e-05
-0.000103837
8.46016e-05
-0.00010926
9.71281e-05
-0.000115721
0.000110412
-0.000123149
0.000124693
-0.000132344
0.000139766
-0.000142013
0.000156199
-0.000153292
0.000174042
-0.000168449
6.94475e-05
-0.000127402
2.06398e-06
-8.74014e-06
4.69781e-08
-4.33872e-07
-4.47864e-09
1.48418e-08
-6.84052e-11
4.33576e-10
2.15143e-11
2.52233e-11
3.18978e-10
5.11829e-11
6.48694e-09
7.93967e-10
9.97395e-09
7.30625e-08
9.24967e-06
-8.85032e-05
1.85134e-05
-0.000105823
2.75613e-05
-0.000102339
3.6963e-05
-0.000102453
4.66968e-05
-0.000105302
5.67366e-05
-0.00010933
6.71369e-05
-0.000114237
7.79848e-05
-0.000120108
8.93597e-05
-0.000127096
0.000101354
-0.000135144
0.000114151
-0.00014514
0.000127375
-0.000155236
0.000142037
-0.000167954
0.000142091
-0.000168504
8.32538e-06
-6.18845e-05
4.66946e-07
-1.98196e-06
-1.12539e-08
5.71981e-09
-1.42307e-10
1.25314e-09
-6.07047e-11
1.51648e-10
-1.66331e-12
-5.50579e-11
2.94766e-11
2.7446e-12
6.71575e-10
7.02206e-11
1.08053e-09
8.9496e-09
8.72929e-06
-9.72325e-05
1.70081e-05
-0.000114101
2.51981e-05
-0.000110529
3.37746e-05
-0.00011103
4.26295e-05
-0.000114157
5.17222e-05
-0.000118423
6.10991e-05
-0.000123614
7.08293e-05
-0.000129838
8.09612e-05
-0.000137228
9.15732e-05
-0.000145756
0.000102762
-0.000156328
0.000114122
-0.000166596
0.000127116
-0.000180948
7.60017e-05
-0.000167657
1.57564e-06
-1.71007e-05
1.36549e-08
-5.32074e-07
-2.22651e-09
1.78019e-08
-1.5869e-10
9.76715e-10
-1.47773e-11
2.06374e-11
-8.54813e-14
-9.92398e-12
3.18865e-12
-3.19747e-13
5.68835e-11
6.86488e-12
1.08708e-10
9.47015e-10
8.11347e-06
-0.000105346
1.53817e-05
-0.00012137
2.26956e-05
-0.000117843
3.04006e-05
-0.000118735
3.83205e-05
-0.000122077
4.64097e-05
-0.000126512
5.47065e-05
-0.000131911
6.32614e-05
-0.000138393
7.20957e-05
-0.000146063
8.12765e-05
-0.000154936
9.07945e-05
-0.000165846
0.00010028
-0.000176082
0.000109717
-0.000190384
2.14319e-05
-0.000121509
4.98821e-07
-3.68602e-06
-1.45566e-08
-3.73758e-08
-8.7708e-10
3.65738e-09
-2.54558e-11
1.01647e-10
-1.51369e-12
2.18998e-12
9.62897e-14
3.51681e-13
5.39123e-13
5.47777e-14
5.68574e-12
6.949e-13
1.01065e-11
9.46216e-11
7.41632e-06
-0.000112762
1.3665e-05
-0.000127618
2.00918e-05
-0.00012427
2.6889e-05
-0.000125532
3.38328e-05
-0.000129021
4.08794e-05
-0.000133559
4.80589e-05
-0.000139091
5.54048e-05
-0.000145739
6.29195e-05
-0.000153577
7.06697e-05
-0.000162686
7.85545e-05
-0.000173731
8.62985e-05
-0.000183826
8.45985e-05
-0.000188684
2.62553e-06
-6.25205e-05
5.66062e-08
-1.19386e-06
-2.82434e-09
2.06082e-08
-9.9413e-11
8.8892e-10
-2.21075e-12
2.32028e-12
-6.53856e-14
4.27058e-13
3.09952e-14
2.30536e-13
1.69085e-13
3.69157e-13
6.28205e-13
2.42471e-13
9.19506e-13
8.74694e-12
6.6558e-06
-0.000119418
1.18883e-05
-0.000132851
1.74234e-05
-0.000129805
2.3287e-05
-0.000131396
2.92287e-05
-0.000134963
3.52101e-05
-0.00013954
4.12525e-05
-0.000145133
4.73754e-05
-0.000151862
5.35723e-05
-0.000159774
5.99157e-05
-0.00016903
6.62112e-05
-0.000180026
7.2437e-05
-0.000190051
4.92814e-05
-0.000179489
9.01404e-07
-1.93322e-05
-1.28337e-08
-2.9429e-07
-8.17704e-10
8.46976e-09
-1.12109e-11
8.35787e-11
-3.10361e-13
1.09277e-12
3.20721e-16
7.68396e-13
1.80443e-14
2.01011e-13
6.85032e-14
2.30148e-13
9.07765e-14
1.57936e-13
1.03161e-13
7.54798e-13
5.84859e-06
-0.000125267
1.00869e-05
-0.000137089
1.47362e-05
-0.000134454
1.96565e-05
-0.000136316
2.45913e-05
-0.000139897
2.9508e-05
-0.000144457
3.44173e-05
-0.000150042
3.93206e-05
-0.000156765
4.42076e-05
-0.000164661
4.90997e-05
-0.000173921
5.36094e-05
-0.000184534
5.80509e-05
-0.000194488
1.53468e-05
-0.000129879
2.7804e-07
-2.74366e-06
-7.68833e-09
-9.17022e-09
-7.75318e-11
8.44142e-10
-8.53331e-13
6.21282e-12
-6.62445e-14
5.03632e-13
1.03306e-14
6.32652e-13
1.29491e-14
1.85796e-13
2.38532e-14
1.15691e-13
2.3782e-14
8.10167e-14
-9.77036e-16
5.93764e-14
5.02964e-06
-0.000130296
8.32517e-06
-0.000140384
1.21185e-05
-0.000138247
1.61171e-05
-0.000140314
2.00763e-05
-0.000143856
2.39627e-05
-0.000148342
2.77655e-05
-0.000153843
3.14474e-05
-0.000160444
3.4972e-05
-0.00016818
3.81542e-05
-0.000177094
4.03331e-05
-0.000186698
4.15312e-05
-0.000195651
2.04373e-06
-8.54372e-05
8.92603e-09
-5.47426e-07
-7.9776e-10
5.15952e-10
-5.13574e-12
5.05412e-11
-6.02082e-14
1.11633e-12
3.83684e-16
3.85007e-13
1.37038e-14
2.6671e-13
7.92875e-15
1.33558e-13
8.66302e-15
5.81659e-14
7.2718e-15
3.12003e-14
7.40836e-15
4.89821e-15
4.25588e-06
-0.000134548
6.66022e-06
-0.000142784
9.64916e-06
-0.000141232
1.27694e-05
-0.000143429
1.57895e-05
-0.00014687
1.86592e-05
-0.000151201
2.13154e-05
-0.000156481
2.36638e-05
-0.000162762
2.5599e-05
-0.000170068
2.67418e-05
-0.000178158
2.63977e-05
-0.000186232
2.39175e-05
-0.000192884
-9.58297e-08
-7.03153e-05
-2.85986e-11
-6.48303e-07
-1.27579e-11
5.01164e-10
-1.28222e-13
3.84061e-11
3.05355e-14
5.20342e-12
6.59747e-15
3.11918e-13
7.4244e-15
9.82237e-14
4.78099e-15
6.35434e-14
2.86724e-15
2.40784e-14
1.6957e-15
9.12438e-15
3.27639e-15
8.36417e-16
3.49309e-06
-0.000138002
4.99075e-06
-0.000144233
7.18032e-06
-0.000143373
9.39477e-06
-0.000145587
1.13997e-05
-0.0001488
1.31088e-05
-0.000152793
1.43954e-05
-0.000157584
1.51574e-05
-0.000163241
1.53098e-05
-0.000169793
1.51514e-05
-0.000177324
1.5199e-05
-0.000184289
1.5618e-05
-0.000162942
-6.92566e-07
-6.37535e-05
5.02413e-09
-2.84144e-06
9.95447e-10
3.1402e-09
2.38889e-11
9.7841e-10
7.94051e-14
2.8589e-11
1.8968e-15
4.38584e-13
4.1689e-15
6.01363e-14
1.91291e-15
2.45011e-14
6.84186e-16
7.73798e-15
2.9503e-16
2.11497e-15
5.94497e-16
1.30694e-16
2.47912e-06
-0.000139472
2.98668e-06
-0.00014239
4.26197e-06
-0.000141362
5.41654e-06
-0.000140382
6.22323e-06
-0.000137429
6.58558e-06
-0.00013168
6.48021e-06
-0.000122923
6.0061e-06
-0.000111119
5.53806e-06
-9.67231e-05
6.08504e-06
-7.42964e-05
8.5181e-06
-5.28004e-05
6.14019e-06
-2.78278e-06
7.5582e-07
-2.17173e-05
-2.83553e-08
-6.58514e-06
1.22246e-08
-5.03259e-08
4.73461e-10
1.21098e-08
7.99194e-12
4.80916e-10
1.86306e-14
8.2393e-12
1.02237e-16
6.15021e-14
4.55989e-16
7.44582e-15
9.49936e-17
2.0894e-15
3.15074e-17
4.27932e-16
8.6717e-17
1.27429e-17
6.60474e-07
-3.68452e-05
3.07404e-07
-3.39184e-05
4.17912e-07
-2.98117e-05
4.2659e-07
-1.52023e-05
3.2791e-07
-4.20322e-07
2.5717e-07
-5.61984e-18
3.72744e-07
-2.11245e-16
6.7782e-07
-1.88976e-15
1.19532e-06
-4.44249e-14
1.19231e-06
-1.44571e-12
2.85135e-06
-3.77806e-11
6.91609e-08
-6.40678e-10
1.16222e-06
-1.59922e-09
2.18735e-06
-2.56281e-06
2.58566e-08
-5.60627e-07
1.76391e-09
3.2267e-08
2.85817e-11
2.13254e-09
1.67268e-13
3.59593e-11
-1.99231e-15
2.24783e-13
-7.46069e-18
8.04127e-16
-2.99294e-18
5.20384e-16
4.43686e-19
8.22606e-17
1.20064e-17
5.38399e-19
-9.8673e-09
-1.08775e-24
-3.10524e-08
-2.20706e-24
-2.0282e-08
-2.18357e-22
-1.05544e-09
-1.81004e-20
-2.40404e-20
-8.12373e-19
-6.2484e-20
-2.61399e-18
1.00012e-18
-8.48279e-17
2.4746e-17
-1.77558e-15
1.13707e-15
-4.39772e-14
6.2433e-14
-1.46727e-12
2.12068e-12
-3.91521e-11
4.26748e-11
-6.83421e-10
3.39804e-10
-1.95243e-09
6.71675e-07
-3.39275e-08
1.27573e-07
-8.1448e-07
-2.96957e-10
5.28671e-08
-1.92895e-11
1.89618e-09
-1.17844e-13
1.68228e-11
-5.62818e-16
3.33936e-14
-2.78817e-17
8.53942e-17
-6.88565e-18
1.43755e-16
-7.31233e-19
1.60463e-17
1.67712e-18
-6.92521e-20
-5.29951e-27
-1.54957e-24
-2.54728e-25
-2.41234e-24
-1.88507e-23
-2.00174e-22
-3.16648e-22
-1.78083e-20
5.65618e-22
-7.04782e-19
1.00556e-19
-1.00674e-17
9.01569e-18
-3.20559e-16
4.43005e-16
-6.33888e-15
4.94724e-14
-1.53115e-13
1.85334e-12
-4.42504e-12
4.05039e-11
-1.02611e-10
5.01239e-10
-1.94146e-09
1.28022e-09
-2.94145e-09
1.64679e-09
-3.61712e-08
-1.12873e-08
-4.29791e-07
-3.15289e-09
6.36245e-08
-2.68879e-11
5.13419e-10
-2.48399e-14
2.10322e-12
-6.55347e-17
2.31535e-15
-1.7316e-17
1.6402e-17
-3.04813e-18
4.11097e-17
-2.38144e-19
3.25839e-18
2.27313e-19
-2.31011e-20
-9.04932e-27
-1.18786e-24
-5.82738e-26
-2.10396e-24
-1.42852e-23
-3.90201e-22
-9.91095e-22
-3.79597e-20
-3.12735e-20
-1.29581e-18
-1.01741e-18
-3.63062e-17
-1.52414e-17
-1.04027e-15
2.83983e-16
-1.85767e-14
3.20481e-14
-4.00969e-13
2.68756e-12
-1.32477e-11
1.04462e-10
-2.26639e-10
7.01499e-10
-5.79643e-09
7.57143e-11
-4.11364e-08
-7.70038e-08
-8.6813e-08
-5.64675e-08
-2.44741e-09
-6.34755e-10
7.88336e-09
-3.87509e-12
1.13038e-10
-1.93408e-15
8.81633e-13
-9.6912e-18
3.83143e-16
-8.56139e-18
1.21393e-17
-1.03704e-18
1.49285e-17
-5.31378e-20
6.44541e-19
2.87365e-20
-4.30806e-21
-2.28012e-26
-1.00548e-24
-2.01642e-25
9.07098e-25
-8.69096e-23
-3.46587e-22
-6.15922e-21
-4.62631e-20
-2.2961e-19
-1.50118e-18
-1.04889e-17
-4.22174e-17
-8.47252e-17
-1.45153e-15
3.71121e-14
-6.05998e-14
1.53758e-12
-1.97903e-12
4.08501e-11
-4.83111e-11
9.27614e-10
-1.00304e-09
6.50016e-09
-1.1923e-08
-1.36305e-08
-9.3684e-08
-2.31011e-07
-1.00542e-07
-7.12745e-09
2.18184e-08
-1.02446e-10
8.6991e-10
-8.02931e-13
1.16571e-11
-3.6076e-16
7.64286e-14
-6.17758e-18
2.89114e-17
-5.5155e-18
1.00008e-17
-2.86117e-19
7.72952e-18
-9.35569e-21
1.06391e-19
3.13542e-21
-6.19386e-22
2.41978e-26
8.89037e-25
-2.57634e-23
3.60039e-23
-1.44817e-22
1.70623e-22
-1.20052e-20
-3.35652e-20
-4.8869e-19
-8.27597e-19
-1.06718e-17
-3.04275e-17
-2.02752e-16
-1.29116e-15
-1.31584e-14
-4.90059e-14
-4.777e-13
-1.58258e-12
3.33992e-12
-6.04519e-11
-5.05528e-10
-4.88744e-10
-2.52794e-08
-4.87331e-10
-1.32768e-07
-4.24566e-10
-1.09e-07
-2.4684e-09
-8.38239e-10
2.87537e-09
-1.09423e-11
4.38438e-11
-7.09539e-14
8.09429e-13
-3.34924e-17
4.66425e-15
-6.02864e-18
6.63712e-19
-4.56526e-18
6.65832e-18
-5.61699e-20
3.69798e-18
-1.26998e-21
1.19704e-20
2.71044e-22
-7.26513e-23
1.22771e-24
3.02434e-24
1.17563e-23
1.56758e-22
-1.88456e-21
3.68193e-21
-2.26028e-21
5.30399e-20
-1.23326e-18
5.19421e-19
-3.50537e-17
3.39294e-18
-1.33772e-15
1.15094e-17
-5.03526e-14
9.02871e-18
-1.63232e-12
-6.23896e-16
-1.06666e-10
-1.54369e-14
-4.97942e-11
-2.0507e-13
-2.90942e-11
-1.0727e-12
-4.43821e-10
-9.55528e-12
-2.88188e-09
-2.39909e-11
-4.38782e-11
4.01385e-11
-7.93062e-13
8.54515e-13
-4.57632e-15
2.28478e-14
-2.97387e-18
7.37679e-17
-3.48132e-18
1.76595e-19
-2.33163e-18
2.01861e-18
-6.84661e-21
9.10665e-19
-1.29645e-22
8.01609e-22
1.8263e-23
-7.11417e-24
6.47828e-24
4.26434e-24
3.09468e-22
2.37788e-22
6.79127e-21
6.02868e-21
9.09344e-20
9.14139e-20
7.68801e-19
9.00151e-19
3.28138e-18
5.85333e-18
3.19111e-18
2.42968e-17
-3.48982e-17
5.68797e-17
-7.02225e-16
4.34302e-17
-1.56966e-14
-4.84961e-16
-2.17822e-13
-3.05683e-15
-1.28232e-12
-6.87814e-15
-1.14274e-11
-3.8328e-14
-4.04453e-11
-7.26141e-13
-8.62913e-13
7.35159e-13
-2.24932e-14
1.92057e-14
-6.66442e-17
5.13199e-16
-2.00609e-19
6.9864e-18
-7.58968e-19
1.32193e-19
-4.5031e-19
1.59721e-19
-5.11964e-22
6.05092e-20
-1.02337e-23
3.51424e-23
1.0119e-24
-5.93275e-25
1.13032e-23
2.21662e-24
5.81779e-22
1.2594e-22
1.34737e-20
3.27941e-21
1.81794e-19
5.13547e-20
1.53443e-18
5.27694e-19
8.03243e-18
3.63439e-18
2.34057e-17
1.62697e-17
2.22219e-17
4.05926e-17
-3.56401e-17
4.65531e-18
-1.48837e-16
-3.71764e-16
-9.39634e-16
-2.30848e-15
-5.56402e-15
-2.96522e-15
-4.20598e-14
-2.34843e-15
-7.5811e-13
-5.11694e-15
-1.97172e-14
1.36773e-16
-5.10051e-16
1.16903e-16
-2.84262e-18
9.71714e-18
3.85613e-18
2.87641e-19
-6.74927e-20
-2.06918e-18
-2.73245e-20
4.24844e-21
-2.70448e-23
1.22289e-21
-6.57548e-25
1.23717e-24
4.84154e-26
-4.28388e-26
6.63882e-24
2.61639e-28
3.50433e-22
4.29506e-27
8.39872e-21
6.73986e-27
1.18366e-19
-2.8777e-25
1.05928e-18
-1.65193e-23
5.98515e-18
-7.30425e-22
1.86045e-17
-2.56697e-20
2.65672e-18
-7.31615e-19
-2.6673e-16
-1.69494e-17
-1.30131e-15
-2.76081e-16
-5.56524e-15
-2.80687e-15
-6.27531e-15
-8.09692e-15
-3.58903e-15
-8.11882e-15
-1.00825e-15
-4.21611e-15
-1.147e-16
-4.15222e-16
-4.449e-18
7.76893e-18
4.68937e-18
5.7877e-19
5.22707e-18
-1.54627e-18
-3.35277e-21
-2.35199e-18
-8.70412e-22
9.66648e-23
-1.11462e-24
2.57533e-23
-3.55167e-26
3.60885e-26
2.02118e-27
-2.713e-27
2.43203e-28
-3.79099e-34
7.73957e-28
-9.3532e-32
-5.05057e-26
-1.1287e-29
-3.36582e-25
-1.69367e-27
-1.67574e-23
-9.84935e-26
-7.42732e-22
-4.45034e-24
-2.63338e-20
-1.60034e-22
-7.81539e-19
-4.0518e-21
-2.26441e-17
-6.05529e-20
-9.17875e-16
-1.64353e-18
-8.17604e-15
-3.13384e-17
-1.74365e-14
-1.80424e-16
-1.76139e-14
-1.5303e-16
-1.20329e-14
-2.0748e-16
-7.02044e-18
-2.27728e-17
7.37504e-19
1.0988e-20
3.23661e-18
-1.0828e-19
2.79778e-18
-8.48194e-19
-1.13112e-22
-1.05496e-18
-2.4986e-23
1.86249e-24
-3.58675e-26
6.65925e-25
-1.61082e-27
8.84205e-28
7.36937e-29
-1.52564e-28
-3.75639e-34
-3.45962e-36
-9.30257e-32
-8.81967e-34
-1.12701e-29
-1.09958e-31
-1.70109e-27
-8.844e-30
-9.99501e-26
-5.33542e-28
-4.53828e-24
-2.51332e-26
-1.64107e-22
-9.49191e-25
-4.20525e-21
-2.56105e-23
-6.7095e-20
-4.15361e-22
-2.8459e-18
-1.21254e-20
-5.40815e-17
-2.59937e-19
-2.92552e-16
-1.62123e-18
-3.58271e-16
-3.06098e-18
-1.73043e-16
-2.50302e-18
-3.88411e-18
-7.22289e-19
2.05041e-19
-2.20041e-20
1.06568e-18
-1.9248e-20
7.91068e-19
-2.17974e-19
-3.0778e-24
-2.49203e-19
-6.50644e-25
5.44384e-26
-1.01602e-27
1.52838e-26
-6.23582e-29
2.14804e-29
2.4806e-30
-7.70468e-30
-3.45933e-36
-9.70247e-40
-8.85362e-34
-2.37546e-37
-1.10834e-31
-3.10267e-35
-8.95404e-30
-2.62024e-33
-5.42443e-28
-1.66226e-31
-2.56684e-26
-8.29983e-30
-9.74513e-25
-3.34689e-28
-2.65726e-23
-9.7746e-27
-4.52589e-22
-1.71771e-25
-2.30394e-20
-4.30168e-24
-4.91571e-19
-1.15625e-22
-2.25148e-18
-2.42271e-21
-3.5861e-18
-1.70497e-20
-2.96594e-18
-3.42057e-20
-8.18809e-19
-2.65637e-20
-4.01734e-19
-6.20701e-21
2.03801e-19
1.00451e-20
1.31777e-19
-3.12068e-20
-1.12857e-25
-3.43994e-20
-1.50118e-26
4.03668e-27
-2.95727e-29
2.85682e-28
-2.41415e-30
7.12849e-31
8.70699e-32
-3.53264e-31
-1.08574e-39
1.15495e-40
-2.38734e-37
1.02881e-40
-3.12558e-35
-3.64495e-38
-2.6506e-33
-3.2186e-36
-1.67861e-31
-2.20871e-34
-8.41021e-30
-1.21744e-32
-3.40374e-28
-5.43058e-31
-1.00197e-26
-1.77859e-29
-1.81473e-25
-3.71807e-28
-4.6591e-24
-1.02362e-26
-2.34029e-22
-2.85964e-25
-6.23694e-21
-7.65499e-24
-3.6377e-20
-8.04605e-23
-6.28511e-20
-2.16325e-22
-5.55291e-20
-1.99389e-22
1.07872e-21
-3.77249e-23
2.17454e-20
8.93136e-25
1.36205e-20
-2.30884e-21
-5.28967e-27
-2.89724e-21
-2.82694e-28
1.39291e-28
-1.0994e-30
4.18847e-30
-9.70707e-32
3.25019e-32
3.49396e-33
-1.49309e-32
6.36091e-42
2.34174e-42
-2.40834e-39
5.10034e-41
-3.90381e-38
2.58555e-40
-2.98499e-36
-1.05543e-39
-2.07103e-34
-7.79825e-38
-1.15059e-32
-4.54225e-36
-5.18874e-31
-2.17132e-34
-1.74491e-29
-8.37264e-33
-3.89439e-28
-2.43002e-31
-1.07546e-26
-7.40322e-30
-5.21383e-25
-2.19791e-28
-2.17525e-23
-7.22622e-27
-1.9102e-22
-1.09028e-25
-3.78159e-22
-3.23324e-25
-3.05749e-22
-2.15335e-25
3.725e-22
2.43828e-25
1.22374e-21
4.42728e-25
8.91896e-22
-7.55655e-23
-1.84899e-28
-1.5019e-22
-4.24781e-30
3.11135e-30
-4.75886e-32
3.16051e-32
-4.29757e-33
1.35392e-33
1.49361e-34
-6.09646e-34
3.11298e-42
-1.16312e-50
3.20787e-41
-3.86698e-48
-1.63562e-40
-6.31037e-46
-1.2189e-39
-8.84418e-44
-7.92071e-38
-6.77792e-42
-4.62183e-36
-4.33036e-40
-2.21774e-34
-2.28156e-38
-8.59543e-33
-9.75556e-37
-2.51647e-31
-3.16909e-35
-7.6878e-30
-1.07563e-33
-3.56499e-28
-3.31148e-32
-2.48936e-26
-1.06708e-30
-3.49379e-25
-4.12725e-29
-3.53276e-25
-3.29427e-28
1.36384e-24
-1.70377e-28
8.52929e-24
1.91762e-27
3.33553e-23
6.93644e-27
3.68951e-23
-6.42717e-25
-5.90954e-30
-4.68811e-24
-8.40585e-32
8.22159e-32
-2.33208e-33
1.93772e-33
-1.87048e-34
5.38068e-35
5.64228e-36
-2.47297e-35
-1.1622e-50
-9.18607e-54
-3.87543e-48
-3.17239e-51
-6.34373e-46
-5.39715e-49
-8.90881e-44
-4.41777e-47
-6.86871e-42
-3.5623e-45
-4.40056e-40
-2.40229e-43
-2.32657e-38
-1.35625e-41
-9.99408e-37
-6.32476e-40
-3.27225e-35
-2.28443e-38
-1.11152e-33
-8.60876e-37
-3.50753e-32
-2.97733e-35
-3.49175e-30
-1.02447e-33
-3.1924e-28
-5.14561e-32
-3.2232e-28
-6.13541e-31
8.3265e-27
-3.27883e-31
6.83267e-26
7.31887e-30
3.61882e-25
4.19011e-29
9.3744e-25
5.28262e-29
-1.76726e-31
-8.20818e-26
-3.32699e-33
1.68568e-33
-1.00959e-34
4.56121e-35
-6.98384e-36
1.96793e-36
1.73493e-37
-9.55168e-37
-1.4285e-53
5.09897e-54
-4.48635e-51
1.29967e-51
-7.03342e-49
1.59141e-49
-5.7518e-47
1.26399e-47
-4.35057e-45
7.30748e-46
-2.77219e-43
3.27152e-44
-1.50112e-41
1.17775e-42
-6.81946e-40
3.49428e-41
-2.43685e-38
8.68581e-40
-9.03589e-37
1.8284e-38
-3.10049e-35
3.27964e-37
-2.80933e-33
5.02355e-36
-5.31409e-31
6.55829e-35
-5.37735e-31
7.24967e-34
2.57121e-29
6.69883e-33
2.746e-28
5.04412e-32
2.06224e-27
2.88857e-31
1.36045e-26
8.92916e-31
-3.40511e-33
-6.64737e-28
-9.5198e-35
1.58232e-35
-3.73277e-36
8.32401e-37
-2.22306e-37
5.53207e-38
4.68155e-39
-3.37939e-38
7.03221e-53
1.04409e-58
1.75197e-50
3.45638e-56
2.12923e-48
5.50624e-54
1.68473e-46
5.71285e-52
9.74398e-45
4.33549e-50
4.38388e-43
2.56204e-48
1.59399e-41
1.22483e-46
4.80396e-40
4.85607e-45
1.2211e-38
1.62281e-43
2.64947e-37
4.61664e-42
4.94685e-36
1.12292e-40
7.98929e-35
2.33218e-39
1.11994e-33
4.10332e-38
1.36778e-32
6.01999e-37
1.46597e-31
7.18647e-36
1.39679e-30
6.76246e-35
1.20104e-29
4.77473e-34
9.38914e-29
2.12827e-33
-3.7954e-35
-9.39001e-31
-2.46513e-36
8.70822e-38
-9.96422e-38
1.57514e-38
-6.18271e-39
1.06813e-39
1.1647e-40
-1.09162e-39
1.74189e-57
-2.10827e-67
5.65505e-55
-1.12444e-64
8.97764e-53
-2.92876e-62
9.31949e-51
-5.06047e-60
7.10696e-49
-6.53847e-58
4.23878e-47
-6.75193e-56
2.0545e-45
-5.81649e-54
8.29672e-44
-4.30895e-52
2.83745e-42
-2.80921e-50
8.29925e-41
-1.64049e-48
2.08462e-39
-8.6864e-47
4.48973e-38
-4.22484e-45
8.23207e-37
-1.90735e-43
1.27127e-35
-8.03823e-42
1.64297e-34
-2.93162e-40
1.7916e-33
-5.38467e-39
1.6827e-32
-1.96265e-38
1.377e-31
-1.48021e-38
-3.07593e-37
6.17955e-41
-4.08343e-38
4.32255e-40
-2.0468e-39
1.70857e-40
-1.55939e-40
1.79241e-41
2.77563e-42
-3.23888e-41
-2.10827e-67
-2.64142e-73
-1.12655e-64
-1.64494e-70
-2.94002e-62
-5.00385e-68
-5.08986e-60
-1.00994e-65
-6.58936e-58
-1.52569e-63
-6.81781e-56
-1.84452e-61
-5.88465e-54
-1.86348e-59
-4.36778e-52
-1.62223e-57
-2.86078e-50
-1.21194e-55
-1.70091e-48
-7.29675e-54
-9.20304e-47
-4.00622e-52
-4.59288e-45
-2.02931e-50
-2.12736e-43
-8.97659e-49
-1.78452e-41
-4.4277e-47
-2.24878e-39
-2.263e-45
-4.28882e-38
-1.29158e-43
-8.03171e-38
-4.30138e-42
1.76508e-39
-1.08139e-41
-2.02662e-39
-6.34865e-42
-4.97732e-40
1.5975e-42
-3.68416e-41
1.66218e-42
-3.66922e-42
2.92618e-43
6.29199e-44
-8.82004e-43
-2.64146e-73
-2.2833e-77
-1.6476e-70
-1.69212e-74
-5.02038e-68
-6.12741e-72
-1.01497e-65
-1.47237e-69
-1.53586e-63
-2.64994e-67
-1.85991e-61
-3.82062e-65
-1.88212e-59
-4.60888e-63
-1.6411e-57
-4.79774e-61
-1.22842e-55
-4.29449e-59
-7.42077e-54
-3.10756e-57
-4.08179e-52
-2.05099e-55
-2.07143e-50
-1.251e-53
-9.19532e-49
-6.67773e-52
-4.74169e-47
-3.96349e-50
-3.96212e-45
-2.40634e-48
-6.89817e-43
-1.69698e-46
-2.57351e-41
-8.57023e-45
-7.32029e-41
-6.68016e-44
-9.59802e-42
-3.18058e-44
-5.06541e-42
2.86401e-45
-5.88133e-43
1.65606e-44
-7.69004e-44
4.37655e-45
1.28888e-45
-2.19299e-44
-2.28334e-77
4.22252e-82
-1.69442e-74
-1.90699e-80
-6.14434e-72
-6.51919e-77
-1.4785e-69
-1.92329e-74
-2.66468e-67
-4.25075e-72
-3.84717e-65
-7.53478e-70
-4.64718e-63
-1.11901e-67
-4.84397e-61
-1.43627e-65
-4.34266e-59
-1.58826e-63
-3.15076e-57
-1.42396e-61
-2.08234e-55
-1.16506e-59
-1.27176e-53
-8.82293e-58
-6.80503e-52
-5.86365e-56
-4.03225e-50
-4.32472e-54
-3.25932e-48
-3.16926e-52
-7.61139e-46
-2.4324e-50
-4.77726e-44
-2.16339e-48
-2.1569e-43