/*--------------------------------*- C++ -*----------------------------------*\
| =========                 |                                                 |
| \\      /  F ield         | OpenFOAM: The Open Source CFD Toolbox           |
|  \\    /   O peration     | Version:  2206                                  |
|   \\  /    A nd           | Website:  www.openfoam.com                      |
|    \\/     M anipulation  |                                                 |
\*---------------------------------------------------------------------------*/
FoamFile
{
    version     2.0;
    format      ascii;
    arch        "LSB;label=32;scalar=64";
    class       volScalarField;
    location    "0.125";
    object      alpha.water;
}
// * * * * * * * * * * * * * * * * * * * * * * * * * * * * * * * * * * * * * //

dimensions      [0 0 0 0 0 0 0];

internalField   nonuniform List<scalar> 
2268
(
1
1
0.999999
1
1
1
1
1
1
1
1
1
1
1
1
1
1
1
0.998935
0.998861
0.998731
0.822721
0.449977
0.999999
1
1
1
1
1
0.999999
1
1
1
1
1
1
1
1
0.999999
0.999999
0.999999
0.999997
0.991062
0.998527
0.951488
0.449977
1
1
1
1
1
0.999999
0.999999
1
1
1
1
1
1
1
1
1
1
1
0.999999
0.999978
0.891773
0.816461
0.680841
1
1
1
1
1
1
1
1
1
1
1
1
1
1
1
1
1
0.999999
0.999979
0.98132
0.732654
0.415645
0.59924
1
0.999999
1
1
1
1
1
1
1
1
1
1
1
1
1
1
1
0.999984
0.98025
0.716331
0.260436
0.0387692
0.409372
1
0.999999
1
1
1
1
1
1
1
1
1
1
1
1
1
1
0.999993
0.999775
0.736946
0.21119
0.0131229
0.0107306
0.191461
1
1
1
1
1
1
1
1
1
1
1
1
1
1
1
0.999999
0.999921
0.851869
0.270044
0.0146515
0.00319468
0.00617719
0.0216837
1
1
1
1
1
1
1
1
1
1
1
1
1
1
1
0.999993
0.999178
0.511162
0.0316647
0.00304523
0.000720633
0.00101046
0.00364573
4.12821e-20
1.08678e-20
2.69346e-21
1.57692e-22
2.95234e-24
5.70698e-26
2.14482e-27
1.00422e-28
4.03589e-30
1.38152e-31
4.1497e-33
1.09402e-34
2.48129e-36
4.71475e-38
7.24721e-40
8.55016e-42
7.0808e-44
3.09844e-46
1.51505e-46
1.5921e-18
1.49334e-18
5.84124e-19
3.47721e-20
5.09286e-22
8.45606e-24
2.43249e-25
9.41013e-27
3.39608e-28
1.09738e-29
3.18513e-31
8.16982e-33
1.80176e-34
3.3055e-36
4.82323e-38
5.20693e-40
3.58855e-42
9.92706e-45
1.51505e-46
1.15308e-16
1.58501e-16
5.56417e-17
2.86031e-18
3.86711e-20
6.43483e-22
1.49033e-23
4.35216e-25
1.3173e-26
3.83567e-28
1.03737e-29
2.51344e-31
5.25203e-33
9.07035e-35
1.21473e-36
1.1218e-38
7.35776e-41
2.53028e-43
5.6715e-45
6.16462e-15
1.91358e-14
4.36289e-15
1.58886e-16
1.92618e-18
3.11254e-20
6.34341e-22
1.48512e-23
3.77209e-25
9.71303e-27
2.40116e-28
5.41652e-30
1.05764e-31
1.67213e-33
2.19205e-35
2.30687e-37
1.63988e-39
5.19149e-42
1.98644e-43
5.40897e-13
1.58216e-12
2.51455e-13
6.22395e-15
6.52852e-17
1.00217e-18
1.87195e-20
3.87097e-22
8.57522e-24
1.94648e-25
4.32752e-27
8.89737e-29
1.63033e-30
2.71347e-32
3.82086e-34
4.07358e-36
2.84223e-38
5.84364e-41
4.93472e-42
1.89595e-11
2.40951e-11
4.3219e-12
1.27042e-13
1.33301e-15
1.9447e-17
3.62173e-19
7.26182e-21
1.49166e-22
3.07986e-24
6.19573e-26
1.21257e-27
2.29432e-29
3.90359e-31
5.46893e-33
5.76675e-35
3.93251e-37
9.94982e-40
9.4239e-41
1.01995e-10
7.9382e-11
1.92956e-11
9.15767e-13
1.27634e-14
1.94096e-16
3.96072e-18
8.39747e-20
1.74071e-21
3.51196e-23
6.98565e-25
1.39815e-26
2.68401e-28
4.5552e-30
6.3394e-32
6.62392e-34
4.45106e-36
1.27173e-38
1.44655e-39
1.02073e-10
1.01721e-10
3.37097e-11
2.44184e-12
5.26571e-14
1.01496e-15
2.38014e-17
5.67548e-19
1.28471e-20
2.73977e-22
5.8212e-24
1.2342e-25
2.43334e-27
4.15969e-29
5.78072e-31
5.99665e-33
3.97547e-35
1.18242e-37
1.8108e-38
1
1
1
1
1
1
1
1
1
1
1
1
1
1
1
0.999923
0.746142
0.119777
0.00304504
0.000495817
0.000140005
0.000242602
0.00321836
1
1
1
1
1
1
1
1
1
1
1
1
1
1
0.999996
0.87809
0.178049
0.00313979
0.000495863
9.40349e-05
2.15764e-05
5.08767e-05
0.00106077
1
1
1
1
1
1
1
1
1
1
1
1
1
1
0.999929
0.394761
0.00491574
0.000541486
9.21277e-05
1.36183e-05
3.51843e-06
9.22132e-06
5.10034e-05
1
1
1
1
1
1
1
1
1
1
1
1
1
1
0.775005
0.0708869
0.000773223
7.68597e-05
1.18216e-05
2.07792e-06
5.32984e-07
1.36939e-06
9.23705e-06
1
1
1
1
1
1
1
1
1
1
1
1
1
0.999993
0.389555
0.0025124
0.000130282
9.35166e-06
1.63659e-06
4.25229e-07
7.92543e-08
1.77383e-07
1.37142e-06
1
1
1
1
1
1
1
1
1
1
1
1
1
0.901103
0.124969
0.000441557
1.55885e-05
2.19228e-06
2.09647e-07
1.49864e-07
1.7028e-08
2.23711e-08
1.77548e-07
1
1
1
1
1
1
1
1
1
1
1
1
1
0.624214
0.0216786
6.14252e-05
1.55372e-06
1.2935e-07
2.46253e-08
2.98548e-08
6.92835e-09
3.80497e-09
2.23741e-08
1
1
1
1
1
1
1
1
1
1
1
1
0.999999
0.343178
0.000506545
5.14068e-06
1.46401e-07
1.95633e-08
9.33498e-09
2.07911e-09
4.61021e-09
1.70863e-09
3.80497e-09
1
1
1
1
1
1
1
1
1
1
0.999999
0.999999
0.941528
0.137092
9.4408e-05
4.7437e-07
2.36582e-08
1.86978e-08
7.54344e-09
1.52929e-09
2.56107e-09
1.42287e-09
1.62807e-09
1
1
1
1
1
1
1
0.999999
0.999999
0.999997
0.999995
0.999989
0.676076
0.0290502
6.51372e-06
4.67903e-08
8.76584e-09
9.28276e-09
6.48869e-09
1.47769e-09
1.28061e-09
8.8195e-10
3.16622e-10
0.999999
0.999998
0.999998
0.999998
0.999998
0.999997
0.999995
0.999992
0.999987
0.999975
0.999957
0.999904
0.426232
0.000536584
5.28845e-07
9.52865e-09
5.38051e-09
5.12133e-09
3.68366e-09
1.20719e-09
6.62201e-10
4.05783e-10
7.3334e-11
0.999986
0.999982
0.999982
0.999979
0.999974
0.999965
0.999949
0.999922
0.999876
0.99978
0.999632
0.999223
0.311706
1.10474e-05
5.67979e-08
1.66956e-08
1.75701e-08
3.05741e-09
1.41487e-09
7.11054e-10
3.07039e-10
1.42911e-10
4.12941e-11
0.999842
0.999805
0.999801
0.999774
0.999727
0.999642
0.999498
0.999255
0.998862
0.998076
0.996237
0.965033
0.285159
0.00173056
2.05652e-06
4.59076e-08
1.26019e-09
5.87106e-10
5.56831e-10
3.13342e-10
1.13424e-10
3.87453e-11
1.26003e-11
0.99783
0.996645
0.995929
0.992924
0.986901
0.974284
0.951803
0.914535
0.857918
0.749677
0.614615
0.363535
0.192722
0.0225328
3.23066e-05
1.24288e-06
2.42452e-08
3.96973e-10
1.20439e-10
1.15472e-10
3.4212e-11
8.64295e-12
2.18059e-12
0.609291
0.576488
0.557838
0.513879
0.456055
0.388263
0.312942
0.235143
0.161228
0.0766653
0.0162461
2.15756e-07
0.00718373
0.0341729
0.00457341
6.89724e-06
1.45977e-07
1.27655e-09
2.1935e-11
1.63947e-11
8.68061e-12
1.73789e-12
3.20445e-13
0.0119261
0.00362187
0.000477645
6.73674e-18
2.63242e-16
3.76161e-15
6.59307e-15
7.3199e-14
6.98808e-13
1.48535e-11
4.68077e-10
1.20751e-08
2.15756e-07
0.0141342
0.0105141
0.000122678
8.85217e-08
1.50375e-10
8.12362e-11
3.57685e-13
2.33413e-12
3.40805e-13
4.60324e-14
5.41674e-21
5.17753e-21
5.41674e-21
7.6339e-20
5.92877e-18
5.3788e-15
2.84737e-13
5.11295e-12
7.92709e-11
1.38636e-09
5.56423e-08
7.67069e-07
7.29235e-07
5.63452e-06
0.00804577
0.000336474
7.58955e-07
1.39473e-11
4.54804e-12
1.14448e-13
6.57894e-13
7.00042e-14
6.56591e-15
5.60064e-21
8.53964e-21
1.05094e-18
1.04073e-16
4.01657e-15
1.16466e-13
3.4068e-12
5.28815e-11
8.37947e-10
2.36334e-08
3.57702e-07
1.53026e-05
7.01358e-05
0.000299319
0.00322744
3.23952e-07
1.05735e-08
1.2e-09
4.52678e-14
9.28077e-14
2.02037e-13
1.49362e-14
9.12055e-16
8.68532e-21
9.44514e-21
1.88036e-18
2.49188e-16
7.75756e-15
1.96768e-13
5.0843e-12
6.25801e-11
7.0472e-10
2.23186e-08
1.17594e-07
1.58169e-05
0.000476245
0.00154973
0.00218645
4.0408e-08
1.90439e-10
-2.86351e-12
1.62095e-14
8.84633e-14
9.97623e-14
2.96766e-15
1.16104e-16
4.19993e-21
-6.55898e-21
7.2498e-19
2.6615e-16
6.97716e-15
7.92095e-14
3.05567e-13
9.22907e-12
3.21438e-10
3.0136e-08
2.73893e-07
3.14805e-05
0.000622328
0.000809195
0.000152655
4.11836e-09
2.16248e-11
-1.22472e-12
2.61256e-15
7.51948e-14
5.66666e-14
4.55788e-16
1.22549e-17
-6.72173e-21
-2.67328e-19
-1.24913e-18
3.66428e-17
-3.33923e-31
2.13711e-29
0
4.37679e-26
2.49639e-13
2.50967e-07
7.63395e-07
2.23019e-07
5.78165e-09
4.59883e-08
2.13089e-08
3.08579e-10
1.22982e-12
-1.83991e-14
1.78194e-15
4.00289e-14
2.25816e-14
4.39981e-17
1.0068e-18
-2.36886e-20
-1.20712e-18
-2.80253e-17
-3.96284e-16
-3.78524e-15
-2.39587e-14
-7.8303e-14
-5.89249e-14
-8.04986e-20
1.99602e-13
2.56745e-12
6.68926e-12
1.40707e-09
4.40516e-08
1.08724e-09
1.57182e-11
1.00656e-13
-9.00536e-16
1.68589e-15
8.24265e-15
3.64133e-15
2.43268e-18
6.60695e-20
-3.48668e-20
-1.91478e-18
-4.81202e-17
-7.20038e-16
-6.96941e-15
-4.4411e-14
-1.80329e-13
-4.13565e-13
-3.11625e-13
-6.89605e-23
1.99602e-13
2.33041e-12
1.20321e-11
1.4014e-11
5.11257e-12
4.87647e-13
2.94213e-15
-1.89375e-20
-3.77687e-14
4.77194e-16
1.43308e-16
8.83839e-20
3.72554e-21
-1.9043e-20
-1.0673e-18
-2.76368e-17
-4.29441e-16
-4.37225e-15
-2.98374e-14
-1.32614e-13
-3.30504e-13
-3.83473e-14
2.38602e-12
2.44328e-11
4.80683e-11
4.47706e-11
1.47154e-11
1.30076e-12
3.28722e-15
-2.67138e-30
-4.3451e-14
-5.52388e-14
1.27569e-17
1.23076e-18
2.37529e-21
1.88202e-22
-2.37464e-24
-3.85074e-23
-6.02935e-23
-3.43458e-35
-4.14974e-32
-1.03919e-29
1.74099e-19
1.00817e-16
1.06993e-14
1.95611e-12
3.05994e-11
1.08529e-10
1.52582e-10
1.49929e-10
6.23784e-11
6.74206e-31
-6.92817e-15
-3.33416e-14
-3.21852e-14
1.81745e-19
8.7285e-22
3.53629e-23
8.4496e-24
0
7.65296e-44
9.79579e-42
2.42639e-26
1.47428e-24
7.03436e-23
2.73692e-21
8.92621e-20
5.97753e-18
4.45354e-15
1.69005e-13
1.28646e-12
3.23197e-12
3.48911e-12
9.63612e-13
1.80285e-14
-2.18745e-15
-1.22625e-14
-9.983e-15
3.38046e-21
1.6398e-23
6.65726e-25
3.50384e-25
2.52346e-36
6.76835e-34
8.87087e-32
7.69318e-30
4.94188e-28
4.5072e-27
-7.64363e-26
-1.45858e-23
1.32606e-20
3.58565e-17
1.66669e-15
1.30911e-14
3.1966e-14
4.05189e-14
2.47017e-14
6.33813e-15
2.61297e-15
-2.62325e-15
-1.83506e-15
8.05351e-22
5.03773e-25
6.46489e-26
1.53423e-26
-1.19474e-56
0
1.09432e-34
9.86921e-33
-3.18272e-30
-1.88716e-28
-9.48975e-27
-3.58232e-25
3.51318e-25
4.36006e-22
3.90004e-19
2.03091e-17
2.09585e-16
6.09031e-16
8.15804e-16
5.46973e-16
-1.47421e-17
-3.13575e-16
-2.10149e-16
6.31039e-23
1.78992e-26
6.62144e-27
7.90434e-28
-1.34485e-36
-1.18887e-36
-2.97837e-37
-1.10985e-33
-7.07206e-32
-3.8339e-30
-1.6539e-28
-4.16717e-27
1.92901e-27
3.46755e-25
7.10191e-22
6.51785e-20
1.05146e-18
3.91665e-18
5.63572e-18
2.14244e-18
-5.76167e-18
-1.97888e-17
-1.52995e-17
2.35045e-24
7.99793e-28
4.49449e-28
4.42154e-29
-2.90795e-38
-6.29039e-37
-3.21935e-36
1.80328e-53
3.79322e-38
2.49893e-36
1.37412e-34
6.48805e-33
2.69724e-31
6.98898e-29
3.58219e-25
6.25037e-23
1.53752e-21
5.94394e-21
5.77076e-21
-2.33059e-20
-1.49264e-19
-6.0657e-19
-7.06383e-19
8.76383e-26
3.6822e-28
2.38947e-29
2.24268e-30
0
0
-1.08755e-57
1.88144e-43
1.74846e-41
1.30376e-39
7.96895e-38
4.20432e-36
1.94659e-34
1.28785e-32
1.46733e-30
4.13025e-27
6.13856e-25
6.23706e-24
4.43828e-24
-1.6198e-22
-1.35521e-21
-7.42036e-21
-2.01143e-20
3.11086e-27
3.36187e-29
1.16831e-30
9.23309e-32
0
1.03717e-63
0
-8.67327e-48
-1.80579e-47
-2.28749e-43
-1.93636e-41
-1.54368e-39
-8.50882e-38
-1.99093e-37
-9.93518e-41
2.5927e-30
7.99224e-28
1.18851e-26
8.27191e-27
-5.70665e-25
-6.19175e-24
-4.78613e-23
-3.28793e-22
6.33991e-29
1.11361e-30
4.81789e-32
3.23891e-33
-7.61419e-50
-1.92883e-47
-2.39233e-45
-1.93803e-43
-1.15196e-41
-5.35013e-40
-2.01877e-38
-6.35385e-37
-1.69945e-35
-3.91526e-34
-7.84541e-33
-1.37657e-31
-2.12414e-30
-2.89044e-29
-3.47898e-28
-3.72746e-27
-3.5978e-26
-3.17247e-25
-2.57251e-24
7.09839e-31
3.34544e-32
1.39653e-33
1.01703e-34
-1.64889e-54
-5.4257e-52
-8.75981e-50
-9.27684e-48
-7.24425e-46
-4.44446e-44
-2.22824e-42
-9.37214e-41
-3.36759e-39
-1.04646e-37
-2.83292e-36
-6.69831e-35
-1.37969e-33
-2.45592e-32
-3.73481e-31
-4.81731e-30
-5.30881e-29
-5.09781e-28
-4.31197e-27
6.62544e-33
6.2388e-34
3.19484e-35
2.98118e-36
0
0
-6.03712e-74
0
-7.42709e-65
-3.96761e-62
-1.0348e-59
-1.78967e-57
5.57527e-49
2.09523e-46
2.19402e-44
1.71164e-42
1.25496e-40
3.97007e-38
9.45454e-36
3.69247e-34
2.0218e-33
2.82007e-33
-6.38615e-35
5.5251e-35
8.99026e-36
6.78313e-37
8.34826e-38
1.07645e-73
7.92895e-71
2.90726e-68
7.12514e-66
1.3179e-63
1.96901e-61
2.48398e-59
2.73197e-57
2.68557e-55
2.40813e-53
2.00457e-51
1.57333e-49
1.18099e-47
2.23718e-44
8.94947e-42
2.82548e-39
2.03961e-37
1.7878e-36
3.10678e-36
3.28528e-37
1.25107e-37
1.31841e-38
2.11018e-39
0
1.49409e-76
2.52563e-73
4.58751e-71
3.63082e-69
-3.6158e-67
-1.63701e-64
-2.89434e-62
-3.35361e-60
-2.25469e-58
5.89638e-57
4.62595e-54
7.11561e-52
2.30089e-49
4.14555e-45
3.02258e-42
3.82956e-40
4.96675e-39
1.0965e-38
1.37131e-39
1.63821e-39
2.2908e-40
4.85597e-41
-7.97727e-78
-3.23292e-80
-2.301e-76
-1.21632e-73
-3.57263e-71
-7.86624e-69
-1.3891e-66
-2.05505e-64
-2.60432e-62
-2.68357e-60
-1.9927e-58
-1.23915e-56
-5.84226e-55
1.59153e-53
5.25882e-51
1.53667e-46
7.83097e-44
4.12554e-42
2.62678e-41
4.03399e-41
1.12904e-41
3.62693e-42
1.04984e-42
0
-2.2992e-84
-1.11325e-79
-4.3851e-77
-1.2657e-74
-2.9285e-72
-5.6776e-70
-9.51444e-68
-1.33485e-65
-1.31506e-63
-1.10205e-61
-7.32673e-60
-7.90858e-59
5.52643e-57
9.04192e-55
2.39562e-52
5.34499e-48
2.3352e-45
7.51556e-44
2.67422e-43
8.29463e-44
5.29228e-44
2.24624e-44
4.03452e-97
1.21506e-93
1.68486e-90
1.50454e-87
8.1078e-85
5.77412e-82
2.68873e-79
1.09218e-76
3.96928e-74
1.3174e-71
4.06419e-69
1.18353e-66
3.29895e-64
1.5931e-61
4.47233e-59
1.44363e-56
1.00358e-51
2.73315e-48
2.2554e-46
1.25928e-45
8.48076e-46
7.0876e-46
5.2333e-46
1.22416e-110
-4.67833e-104
-9.97786e-97
-1.68522e-92
-1.29779e-92
-2.2927e-89
-2.66376e-86
-2.02461e-83
-1.13227e-80
-5.18518e-78
-1.70124e-75
-4.46158e-73
-1.00639e-70
6.54318e-69
1.41321e-65
1.17066e-62
1.50899e-57
2.74326e-52
1.65085e-49
3.77456e-48
8.42068e-48
1.25327e-47
1.0211e-47
-2.52122e-126
-2.38061e-110
-1.30378e-105
-4.62592e-105
-2.74457e-101
-8.56988e-98
-1.89883e-94
-3.22114e-91
-4.46961e-88
-5.29342e-85
-4.80041e-82
-3.54389e-79
-1.38306e-76
-1.40717e-75
-9.37833e-82
-2.32116e-80
0
5.67022e-60
3.427e-54
2.42488e-51
7.09106e-50
2.3086e-48
5.00163e-48
0.00698941
1.87382e-06
1.82498e-08
6.39321e-10
0.00660158
0.0012583
4.2314e-07
4.21991e-08
0.00269023
0.00125109
3.17367e-06
1.79675e-07
6.38966e-05
0.000205359
2.81826e-05
7.94707e-08
9.66777e-06
6.85922e-06
1.27689e-06
7.02939e-09
1.22214e-06
5.37947e-07
2.77265e-08
8.85039e-10
1.32661e-07
2.88066e-08
1.70859e-09
1.05064e-10
1.28781e-08
1.99982e-09
1.80325e-10
2.34882e-11
1.19379e-09
2.76161e-10
5.10189e-11
1.01819e-11
1.68637e-10
8.04546e-11
1.98687e-11
1.76855e-12
4.33965e-11
2.4163e-11
3.28964e-12
1.84842e-13
1.69305e-11
3.61834e-12
3.12449e-13
1.98267e-14
3.1767e-12
3.82654e-13
3.19588e-14
2.14311e-15
3.97938e-13
4.21919e-14
3.40177e-15
2.27214e-16
4.97885e-14
4.7126e-15
3.57596e-16
2.33604e-17
6.06777e-15
5.05932e-16
3.62845e-17
2.30821e-18
7.10052e-16
5.17773e-17
3.51879e-18
2.16587e-19
7.86718e-17
5.09999e-18
3.26118e-19
1.91426e-20
8.02599e-18
4.76738e-19
2.90372e-20
1.6178e-21
7.35687e-19
4.15979e-20
2.45017e-21
1.30716e-22
6.0313e-20
3.3629e-21
1.94603e-22
1.00697e-23
4.465e-21
2.52159e-22
1.45948e-23
7.41711e-25
3.01268e-22
1.76011e-23
1.0366e-24
5.23458e-26
1.86338e-23
1.14725e-24
6.97509e-26
3.53828e-27
1.06554e-24
7.00999e-26
4.45184e-27
2.29109e-28
5.67032e-26
4.03719e-27
2.70326e-28
1.4239e-29
2.80431e-27
2.20209e-28
1.5669e-29
8.51675e-31
1.29286e-28
1.1409e-29
8.69356e-31
4.91464e-32
5.92454e-30
5.61006e-31
4.62708e-32
2.74185e-33
2.76089e-31
2.6316e-32
2.36689e-33
1.48164e-34
1.21639e-32
1.19131e-33
1.16456e-34
7.76902e-36
4.87273e-34
5.21404e-35
5.52297e-36
3.95983e-37
1.79653e-35
2.18206e-36
2.5349e-37
1.96536e-38
6.17794e-37
8.78543e-38
1.12852e-38
9.51633e-40
1.98158e-38
3.43513e-39
4.88178e-40
4.50408e-41
5.95611e-40
1.30828e-40
2.05426e-41
2.08813e-42
1.7766e-41
4.82922e-42
8.4281e-43
9.50414e-44
5.40404e-43
1.72081e-43
3.38272e-44
4.25789e-45
1.60309e-44
5.93709e-45
1.3328e-45
1.88333e-46
4.40778e-46
1.98786e-46
5.17094e-47
8.25511e-48
1.07691e-47
6.25535e-48
1.92645e-48
3.50184e-49
2.13761e-48
5.52785e-49
9.96206e-50
1.51859e-50
5.28625e-11
2.59247e-11
2.42171e-11
3.87965e-12
1.44474e-13
4.28855e-15
1.5165e-16
5.41295e-18
1.79277e-19
5.42645e-21
1.48468e-22
3.6003e-24
7.51431e-26
1.29562e-27
1.75153e-29
1.6992e-31
9.56962e-34
2.33055e-36
2.28086e-37
6.27703e-10
1.42609e-11
3.21224e-12
1.93695e-12
2.23082e-13
7.81031e-15
2.41183e-16
8.34504e-18
2.82438e-19
8.87162e-21
2.5324e-22
6.42026e-24
1.41389e-25
2.63647e-27
3.9928e-29
4.57429e-31
3.53709e-33
1.52427e-35
1.89602e-36
7.4419e-09
3.14422e-10
1.56642e-11
7.77079e-13
1.74324e-13
8.59185e-15
2.34016e-16
7.62311e-18
2.50192e-19
7.80412e-21
2.25484e-22
5.86859e-24
1.33518e-25
2.57834e-27
4.08286e-29
5.11732e-31
4.75554e-33
2.81961e-35
1.34883e-36
4.38255e-09
1.90597e-10
1.06065e-11
9.01801e-13
1.07377e-13
4.02874e-15
1.24362e-16
4.2012e-18
1.38897e-19
4.39126e-21
1.29647e-22
3.47644e-24
8.23277e-26
1.66838e-27
2.79789e-29
3.69296e-31
3.56739e-33
2.19665e-35
5.18823e-37
3.96204e-10
2.93812e-11
3.40575e-12
5.23039e-13
2.64967e-14
9.4697e-16
3.5565e-17
1.29504e-18
4.51228e-20
1.48538e-21
4.5279e-23
1.24815e-24
3.03466e-26
6.33028e-28
1.09786e-29
1.51147e-31
1.53311e-33
9.97161e-36
1.43394e-37
5.86984e-11
8.97275e-12
1.54406e-12
1.00659e-13
4.33803e-15
1.91043e-16
7.98052e-18
3.1542e-19
1.17058e-20
4.02335e-22
1.26087e-23
3.53809e-25
8.70924e-27
1.83628e-28
3.21666e-30
4.48578e-32
4.65569e-34
3.151e-36
3.55544e-38
8.27951e-12
3.07073e-12
3.33765e-13
1.6538e-14
8.22736e-16
3.93992e-17
1.75635e-18
7.32423e-20
2.83029e-21
1.00116e-22
3.20204e-24
9.12259e-26
2.27368e-27
4.8485e-29
8.58879e-31
1.21217e-32
1.27725e-34
8.8694e-37
8.07427e-39
1.09913e-12
4.16395e-13
4.44372e-14
2.63312e-15
1.45817e-16
7.4157e-18
3.48835e-19
1.52086e-20
6.08017e-22
2.20744e-23
7.20698e-25
2.08909e-26
5.28909e-28
1.14512e-29
2.06049e-31
2.95735e-33
3.17347e-35
2.25453e-37
1.65886e-39
1.49457e-13
4.73127e-14
5.89119e-15
3.988e-16
2.36321e-17
1.2612e-18
6.18778e-20
2.7915e-21
1.14657e-22
4.25538e-24
1.41537e-25
4.17063e-27
1.07221e-28
2.35663e-30
4.30692e-32
6.28536e-34
6.8683e-36
4.98391e-38
3.07499e-40
8.92433e-15
5.72349e-15
7.77566e-16
5.71787e-17
3.54687e-18
1.95941e-19
9.90649e-21
4.58145e-22
1.92105e-23
7.2576e-25
2.45208e-26
7.3294e-28
1.91e-29
4.2548e-31
7.88418e-33
1.16764e-34
1.29668e-36
9.58769e-39
5.15743e-41
9.99517e-16
6.99208e-16
9.75745e-17
7.64e-18
4.92457e-19
2.78887e-20
1.44152e-21
6.79432e-23
2.89647e-24
1.11061e-25
3.80325e-27
1.15115e-28
3.03619e-30
6.84516e-32
1.2842e-33
1.92705e-35
2.17098e-37
1.63217e-39
7.86391e-42
1.68272e-16
8.47548e-17
1.14877e-17
9.5658e-19
6.32254e-20
3.64564e-21
1.9175e-22
9.17603e-24
3.96579e-25
1.54001e-26
5.33611e-28
1.63318e-29
4.35442e-31
9.92445e-33
1.88298e-34
2.85972e-36
3.26426e-38
2.49123e-40
1.09484e-42
3.06321e-17
1.00812e-17
1.32277e-18
1.12843e-19
7.52002e-21
4.39567e-22
2.34439e-23
1.13563e-24
4.96416e-26
1.94863e-27
6.82146e-29
2.10846e-30
5.67653e-32
1.30661e-33
2.50477e-35
3.84638e-37
4.44399e-39
3.43849e-41
1.39786e-43
4.61856e-18
1.16905e-18
1.47791e-19
1.24733e-20
8.3077e-22
4.90873e-23
2.64669e-24
1.29453e-25
5.71221e-27
2.26292e-28
7.9924e-30
2.49203e-31
6.76815e-33
1.57198e-34
3.04229e-36
4.72001e-38
5.51517e-40
4.32172e-42
1.66833e-44
6.34746e-19
1.31131e-19
1.56623e-20
1.28524e-21
8.54078e-23
5.09232e-24
2.76899e-25
1.3649e-26
6.07013e-28
2.42367e-29
8.62714e-31
2.71103e-32
7.42195e-34
1.73826e-35
3.39414e-37
5.31696e-39
6.27896e-41
4.97861e-43
1.89845e-45
8.22187e-20
1.4055e-20
1.55423e-21
1.23232e-22
8.18537e-24
4.91831e-25
2.69221e-26
1.33561e-27
5.98009e-29
2.40429e-30
8.61842e-32
2.7278e-33
7.52378e-35
1.77606e-36
3.49746e-38
5.52958e-40
6.59653e-42
5.28908e-44
2.04727e-46
1.00051e-20
1.4186e-21
1.43167e-22
1.10017e-23
7.32462e-25
4.42986e-26
2.43823e-27
1.21653e-28
5.48029e-30
2.21745e-31
8.00123e-33
2.54986e-34
7.08383e-36
1.68508e-37
3.3458e-39
5.33747e-41
6.4301e-43
5.21123e-45
2.05546e-47
1.128e-21
1.32524e-22
1.21794e-23
9.1642e-25
6.12683e-26
3.72599e-27
2.06133e-28
1.03417e-29
4.68659e-31
1.90819e-32
6.93038e-34
2.22372e-35
6.22242e-37
1.49155e-38
2.98597e-40
4.80585e-42
5.84554e-44
4.78716e-46
1.91098e-48
1.07098e-22
1.12259e-23
9.61034e-25
7.13191e-26
4.79072e-27
2.9302e-28
1.63035e-29
8.22757e-31
3.75179e-32
1.53756e-33
5.62225e-35
1.81678e-36
5.12156e-38
1.23732e-39
2.4977e-41
4.0558e-43
4.98032e-45
4.12045e-47
1.65629e-49
9.0821e-24
8.7254e-25
7.14957e-26
5.24028e-27
3.52373e-28
2.16252e-29
1.20849e-30
6.13985e-32
2.82009e-33
1.16422e-34
4.28876e-36
1.39632e-37
3.96712e-39
9.66249e-41
1.96719e-42
3.22306e-44
3.99537e-46
3.33888e-48
1.34931e-50
7.00637e-25
6.35075e-26
5.1013e-27
3.71395e-28
2.48352e-29
1.51997e-30
8.49064e-32
4.33353e-33
2.0021e-34
8.31731e-36
3.0863e-37
1.01333e-38
2.90368e-40
7.1337e-42
1.46528e-43
2.42277e-45
3.03191e-47
2.55888e-49
1.03882e-51
4.99816e-26
4.41342e-27
3.51805e-28
2.55092e-29
1.69926e-30
1.03864e-31
5.7982e-33
2.95229e-34
1.36473e-35
5.68155e-37
2.11739e-38
7.00118e-40
2.02147e-41
5.00593e-43
1.03682e-44
1.72963e-46
2.18492e-48
1.86228e-50
7.58298e-53
3.38061e-27
2.9657e-28
2.36015e-29
1.71001e-30
1.13905e-31
6.96522e-33
3.88389e-34
1.97148e-35
9.11896e-37
3.80169e-38
1.41793e-39
4.69389e-41
1.36047e-42
3.38595e-44
7.05533e-46
1.18546e-47
1.50977e-49
1.29861e-51
5.29986e-54
2.19819e-28
1.93336e-29
1.54461e-30
1.12392e-31
7.51482e-33
4.60636e-34
2.5694e-35
1.30366e-36
6.037e-38
2.51791e-39
9.3859e-41
3.10709e-42
9.03272e-44
2.25677e-45
4.7239e-47
7.97676e-49
1.02163e-50
8.84887e-53
3.61831e-55
1.37841e-29
1.22308e-30
9.86058e-32
7.23621e-33
4.87256e-34
3.00256e-35
1.68097e-36
8.55419e-38
3.97104e-39
1.65846e-40
6.18703e-42
2.05091e-43
5.97819e-45
1.49786e-46
3.14542e-48
5.33112e-50
6.85838e-52
5.97778e-54
2.44669e-56
8.35529e-31
7.52214e-32
6.14308e-33
4.55913e-34
3.09921e-35
1.92476e-36
1.08443e-37
5.54841e-39
2.58732e-40
1.0845e-41
4.05927e-43
1.34998e-44
3.9479e-46
9.92309e-48
2.0909e-49
3.5576e-51
4.59781e-53
4.03382e-55
1.65157e-57
4.91598e-32
4.51056e-33
3.74138e-34
2.8138e-35
1.93449e-36
1.21289e-37
6.88812e-39
3.54864e-40
1.66499e-41
7.01643e-43
2.63923e-44
8.81776e-46
2.59002e-47
6.53774e-49
1.38356e-50
2.36494e-52
3.07175e-54
2.71317e-56
1.11031e-58
2.81892e-33
2.64395e-34
2.23202e-35
1.704e-36
1.18657e-37
7.52049e-39
4.31031e-40
2.23847e-41
1.05784e-42
4.48599e-44
1.69706e-45
5.70024e-47
1.6829e-48
4.26878e-50
9.07728e-52
1.55909e-53
2.03509e-55
1.80905e-57
7.39147e-60
1.58037e-34
1.51818e-35
1.30655e-36
1.014e-37
7.16085e-39
4.5934e-40
2.65996e-41
1.39392e-42
6.64005e-44
2.83566e-45
1.07949e-46
3.64692e-48
1.08254e-49
2.75983e-51
5.89679e-53
1.01752e-54
1.33426e-56
1.19288e-58
4.86092e-61
8.68453e-36
8.55509e-37
7.5156e-38
5.9367e-39
4.25669e-40
2.76647e-41
1.62028e-42
8.57557e-44
4.12089e-45
1.77338e-46
6.79717e-48
2.31049e-49
6.89693e-51
1.76729e-52
3.79382e-54
6.57507e-56
8.65753e-58
7.77884e-60
3.15826e-62
4.68788e-37
4.73882e-38
4.25435e-39
3.42409e-40
2.49523e-41
1.64462e-42
9.7508e-44
5.21636e-45
2.53034e-46
1.09792e-47
4.23895e-49
1.45025e-50
4.35408e-52
1.12143e-53
2.4184e-55
4.20855e-57
5.56199e-59
5.0187e-61
2.02826e-63
2.49022e-38
2.58412e-39
2.3732e-40
1.94803e-41
1.44409e-42
9.66118e-44
5.8031e-45
3.14005e-46
1.53846e-47
6.734e-49
2.61989e-50
9.02362e-52
2.72513e-53
7.05477e-55
1.52814e-56
2.66943e-58
3.53935e-60
3.20474e-62
1.28803e-64
1.3037e-39
1.38916e-40
1.30631e-41
1.0946e-42
8.26162e-44
5.61471e-45
3.41918e-46
1.87246e-47
9.2709e-49
4.09523e-50
1.60598e-51
5.5697e-53
1.69206e-54
4.40258e-56
9.57698e-58
1.6788e-59
2.23206e-61
2.02652e-63
8.0929e-66
6.73439e-41
7.37135e-42
7.10464e-43
6.08266e-44
4.67822e-45
3.23222e-46
1.99686e-47
1.10736e-48
5.54305e-50
2.47188e-51
9.77337e-53
3.41336e-54
1.04316e-55
2.72767e-57
5.95744e-59
1.0476e-60
1.39605e-62
1.26996e-64
5.035e-67
3.43542e-42
3.8656e-43
3.82287e-44
3.3474e-45
2.62567e-46
1.8456e-47
1.15745e-48
6.50294e-50
3.29223e-51
1.48256e-52
5.91104e-54
2.07912e-55
6.39168e-57
1.67938e-58
3.68179e-60
6.49242e-62
8.6677e-64
7.89434e-66
3.10487e-68
1.73199e-43
2.00583e-44
2.03794e-45
1.82697e-46
1.4628e-47
1.04683e-48
6.66827e-50
3.79733e-51
1.94502e-52
8.84689e-54
3.55735e-55
1.26016e-56
3.89672e-58
1.02861e-59
2.26304e-61
4.00033e-63
5.3479e-65
4.87312e-67
1.89994e-69
8.63688e-45
1.03127e-45
1.078e-46
9.90537e-48
8.10278e-49
5.90774e-50
3.82438e-51
2.20828e-52
1.14467e-53
5.25971e-55
2.1331e-56
7.60999e-58
2.3667e-59
6.27524e-61
1.38509e-62
2.45348e-64
3.28296e-66
2.99093e-68
1.15522e-70
4.26506e-46
5.26223e-47
5.66828e-48
5.34469e-49
4.47071e-50
3.32312e-51
2.18723e-52
1.28101e-53
6.72119e-55
3.1202e-56
1.27627e-57
4.58516e-59
1.43395e-60
3.8182e-62
8.45256e-64
1.49982e-65
2.00784e-67
1.82771e-69
6.98939e-72
2.08935e-47
2.67047e-48
2.96895e-49
2.87605e-50
2.46206e-51
1.86681e-52
1.24976e-53
7.4258e-55
3.94414e-56
1.84991e-57
7.63122e-59
2.76048e-60
8.6796e-62
2.32035e-63
5.1503e-65
9.15109e-67
1.22517e-68
1.11366e-70
4.21687e-73
1.01823e-48
1.35193e-49
1.55347e-50
1.54748e-51
1.35654e-52
1.0496e-53
7.14821e-55
4.30919e-56
2.31694e-57
1.09783e-58
4.56666e-60
1.66295e-61
5.25561e-63
1.4102e-64
3.13742e-66
5.5802e-68
7.46851e-70
6.77526e-72
2.51094e-74
4.82261e-50
6.71749e-51
8.05839e-52
8.31289e-53
7.50293e-54
5.94807e-55
4.13363e-56
2.53407e-57
1.37966e-58
6.60424e-60
2.76997e-61
1.01529e-62
3.22466e-64
8.68258e-66
1.93568e-67
3.4452e-69
4.60798e-71
4.16975e-73
7.5655e-76
2.05722e-51
2.56823e-52
2.83612e-53
2.76548e-54
2.39591e-55
1.84962e-56
1.26354e-57
7.65951e-59
4.21566e-60
2.03973e-61
8.62942e-63
3.18459e-64
1.01667e-65
2.74727e-67
6.13772e-69
1.09319e-70
1.46114e-72
1.31892e-74
6.46538e-76
)
;

boundaryField
{
    leftWall
    {
        type            zeroGradient;
    }
    rightWall
    {
        type            zeroGradient;
    }
    lowerWall
    {
        type            zeroGradient;
    }
    atmosphere
    {
        type            inletOutlet;
        inletValue      uniform 0;
        value           nonuniform List<scalar> 
46
(
0
0
0
0
0
0
0
0
0
0
0
0
0
0
0
0
0
0
0
0
7.09106e-50
2.3086e-48
5.00163e-48
2.13761e-48
5.52785e-49
9.96206e-50
1.51859e-50
2.05722e-51
2.56823e-52
2.83612e-53
2.76548e-54
2.39591e-55
1.84962e-56
1.26354e-57
7.65951e-59
4.21566e-60
2.03973e-61
8.62942e-63
3.18459e-64
1.01667e-65
2.74727e-67
6.13772e-69
1.09319e-70
1.46114e-72
1.31892e-74
6.46538e-76
)
;
    }
    defaultFaces
    {
        type            empty;
    }
}


// ************************************************************************* //
