/*--------------------------------*- C++ -*----------------------------------*\
| =========                 |                                                 |
| \\      /  F ield         | OpenFOAM: The Open Source CFD Toolbox           |
|  \\    /   O peration     | Version:  2206                                  |
|   \\  /    A nd           | Website:  www.openfoam.com                      |
|    \\/     M anipulation  |                                                 |
\*---------------------------------------------------------------------------*/
FoamFile
{
    version     2.0;
    format      ascii;
    arch        "LSB;label=32;scalar=64";
    class       volScalarField;
    location    "0.125";
    object      p;
}
// * * * * * * * * * * * * * * * * * * * * * * * * * * * * * * * * * * * * * //

dimensions      [1 -1 -2 0 0 0 0];

internalField   nonuniform List<scalar> 
2268
(
2246.83
2245.91
2233.42
2212.09
2183.63
2147.52
2102.75
2048.43
1983.52
1906.94
1817.5
1713.84
1595.14
1461.55
1314.28
1156.02
993.467
844.493
751.041
776.868
1001.98
1462.35
1974.32
2187.49
2186.53
2173.97
2152.66
2124.21
2088.08
2043.26
1988.87
1923.84
1847.1
1757.41
1653.39
1534.11
1399.59
1250.83
1090.31
924.308
768.923
657.19
640.952
789.179
1218.47
1878.88
2127.67
2126.62
2113.96
2092.66
2064.23
2028.05
1983.15
1928.62
1863.38
1786.3
1696.12
1591.36
1470.95
1334.65
1183.1
1018.23
845.388
678.264
544.201
483.052
528.133
763.205
1461
2067.39
2066.21
2053.4
2032.13
2003.71
1967.46
1922.43
1867.7
1802.14
1724.58
1633.68
1527.82
1405.71
1266.88
1111.38
940.21
757.518
573.806
410.064
288.798
238.473
301.141
775.595
2006.67
2005.33
1992.36
1971.1
1942.69
1906.37
1861.18
1806.19
1740.22
1662.05
1570.21
1462.91
1338.61
1196.47
1035.78
856.445
661.3
456.528
258.953
108.491
60.5582
120.868
269.453
1945.54
1944
1930.87
1909.62
1881.23
1844.81
1799.45
1744.16
1677.71
1598.81
1505.86
1396.81
1269.88
1123.78
956.856
767.651
556.255
323.628
113.37
22.9927
20.7332
42.3766
67.5282
1884
1882.22
1868.91
1847.68
1819.3
1782.8
1737.23
1681.6
1614.61
1534.87
1440.63
1329.56
1199.57
1049.01
875.448
674.729
439.856
182.234
28.3288
5.06913
7.24217
14.2794
21.9839
1822.11
1819.97
1806.49
1785.28
1756.91
1720.31
1674.52
1618.51
1550.89
1470.21
1374.51
1261.11
1127.63
972.338
791.951
575.848
311.185
71.3286
5.96943
1.18016
2.78674
6.24208
11.4818
0.0811155
0.0971335
0.113606
0.132638
0.151604
0.169207
0.184898
0.198522
0.210084
0.219772
0.227796
0.234359
0.239664
0.243881
0.247166
0.24965
0.251433
0.252592
0.253168
0.0193357
0.0364206
0.053798
0.0736134
0.09301
0.110821
0.126575
0.140171
0.151708
0.161349
0.16932
0.17583
0.181086
0.185263
0.188514
0.190972
0.192738
0.193885
0.194458
-0.0454692
-0.0263597
-0.00690417
0.0145187
0.0347551
0.0529587
0.0688481
0.0824377
0.0938708
0.103382
0.11122
0.117608
0.122757
0.126845
0.130025
0.132429
0.134155
0.135276
0.135834
-0.113474
-0.0919449
-0.0683492
-0.0444732
-0.0230477
-0.00430933
0.0117371
0.0252695
0.0365435
0.0458542
0.0534883
0.0596886
0.0646746
0.0686284
0.0717015
0.0740219
0.0756872
0.0767686
0.077307
-0.187052
-0.159654
-0.13018
-0.10313
-0.080245
-0.0608925
-0.0447105
-0.0312979
-0.0202669
-0.0112395
-0.00388503
0.00206344
0.00683255
0.0106069
0.0135365
0.0157462
0.0173308
0.0183598
0.0188723
-0.268102
-0.230416
-0.191998
-0.161187
-0.136649
-0.116672
-0.100441
-0.0872432
-0.0765569
-0.0679045
-0.0609087
-0.0552787
-0.0507816
-0.0472315
-0.0444806
-0.0424083
-0.0409229
-0.0399583
-0.0394777
-0.353762
-0.302294
-0.253183
-0.218308
-0.192062
-0.171526
-0.155394
-0.142542
-0.132326
-0.12415
-0.117597
-0.112354
-0.108184
-0.104901
-0.102363
-0.100452
-0.0990841
-0.0981957
-0.0977531
-0.456058
-0.373651
-0.313041
-0.274032
-0.246243
-0.225353
-0.209383
-0.197177
-0.187584
-0.179995
-0.17397
-0.169182
-0.165392
-0.162419
-0.160124
-0.1584
-0.157165
-0.156364
-0.155966
1724.97
1722.07
1708.48
1687.3
1658.92
1622.17
1576.02
1519.37
1450.73
1368.47
1270.29
1152.84
1013.52
851.031
657.107
405.334
124.936
10.5952
0.912907
0.108368
0.404295
1.07827
3.26918
1591.97
1588.25
1574.45
1553.4
1525.07
1488.18
1441.66
1384.27
1314.31
1229.96
1128.31
1005.02
858.233
686.168
463.346
174.166
15.6424
0.737079
-0.218838
-0.171351
0.0659656
0.0646469
-0.630194
1458.69
1454.12
1440.18
1419.39
1391.24
1354.38
1307.75
1249.9
1179.03
1093.1
988.403
860.07
708.677
525.029
265.316
29.0285
1.46858
-0.653219
-0.59613
-0.366692
-0.0641538
0.230179
-0.180851
1325.76
1320.4
1306.49
1286.11
1258.34
1221.82
1175.47
1117.71
1046.64
960.08
853.334
722.479
569.973
368.098
97.7928
3.96254
-0.349439
-0.852178
-0.691221
-0.495764
-0.206724
0.112432
0.148107
1193.79
1187.75
1174.07
1154.28
1127.15
1091.37
1045.85
988.885
918.627
832.661
725.467
595.919
444.019
226.015
13.312
-0.0926776
-1.00535
-0.916629
-0.756447
-0.584095
-0.325302
-0.158408
-0.0221953
1063.36
1056.78
1043.56
1024.59
998.417
963.842
919.8
864.513
796.285
712.337
606.943
482.502
328.897
105.688
2.10744
-0.762636
-1.14606
-0.958695
-0.838963
-0.690516
-0.471094
-0.372447
-0.211833
935.019
928.059
915.565
897.624
872.78
839.948
798.104
745.453
680.557
600.13
499.317
382.989
227.164
26.0877
-0.248706
-1.19166
-1.16353
-1.05289
-0.936737
-0.808141
-0.649148
-0.545487
-0.389099
809.226
802.05
790.512
773.835
750.686
720.127
681.19
632.13
571.803
496.305
402.878
296.002
142.548
2.14232
-1.09806
-1.44488
-1.21239
-1.15668
-1.04689
-0.945679
-0.826107
-0.733145
-0.617577
686.034
678.792
668.414
653.209
632.106
604.322
568.977
524.455
469.887
400.761
317.204
218.285
71.808
-0.0824996
-1.33514
-1.46176
-1.32192
-1.26027
-1.17409
-1.09548
-1.00632
-0.931927
-0.852784
565.657
558.548
549.508
535.969
517.257
492.744
461.678
422.673
375.065
314.068
242.541
149.546
20.4265
-1.0191
-1.62778
-1.45711
-1.41051
-1.3607
-1.31342
-1.25335
-1.18932
-1.13014
-1.07188
448.929
442.139
434.543
422.744
406.592
385.587
359.131
326.127
286.022
234.456
175.753
92.0232
0.592202
-1.39137
-1.52622
-1.45472
-1.49046
-1.46752
-1.46475
-1.4212
-1.37544
-1.32751
-1.28101
334.481
327.886
321.7
311.5
297.767
280.111
258.157
231.184
198.834
157.898
112.095
46.1442
-1.27475
-1.14228
-1.205
-1.40733
-1.57091
-1.60599
-1.62523
-1.60191
-1.56693
-1.52546
-1.48471
220.619
214.032
209.45
201.081
190.152
176.487
160.087
140.688
118.614
92.4044
64.8209
22.0533
-3.97273
-1.03208
-1.13377
-1.48491
-1.72159
-1.79168
-1.81786
-1.80054
-1.76626
-1.725
-1.68466
114.372
108.252
105.734
99.8428
92.4618
83.926
74.4044
63.9247
53.6583
43.8744
39.133
17.6613
0.371936
-1.20337
-1.07302
-1.73716
-2.01478
-2.04834
-2.05214
-2.02005
-1.97456
-1.92638
-1.88168
34.8449
31.4815
30.7868
28.395
25.1355
20.8442
16.0448
11.0393
6.15308
0.404051
-3.25903
-4.45767
-4.2658
-2.181
-2.09739
-2.55151
-2.51842
-2.39528
-2.33108
-2.25811
-2.18944
-2.12797
-2.07519
-2.52809
-3.02921
-3.25184
-3.41449
-3.497
-3.55668
-3.64151
-3.76903
-3.95525
-4.19704
-4.41148
-4.67744
-4.81513
-4.65908
-5.05582
-3.81885
-3.16216
-2.80063
-2.63558
-2.50186
-2.40323
-2.32541
-2.26322
-3.43312
-3.44099
-3.47471
-3.52899
-3.57809
-3.63575
-3.71465
-3.82465
-3.98137
-4.19467
-4.49522
-4.92328
-5.20319
-5.52774
-5.71465
-4.50281
-3.65709
-3.15799
-2.90524
-2.72685
-2.60455
-2.51305
-2.44306
-3.53177
-3.54075
-3.56488
-3.6002
-3.64103
-3.69111
-3.75851
-3.85058
-3.98548
-4.17577
-4.52558
-5.08374
-5.45377
-5.71504
-5.63745
-4.64952
-3.88344
-3.39142
-3.11115
-2.91669
-2.78386
-2.68575
-2.61185
-3.61417
-3.62217
-3.63952
-3.66426
-3.69529
-3.73425
-3.78559
-3.85589
-3.9569
-4.12256
-4.46376
-5.01108
-5.53714
-5.82586
-5.36043
-4.47516
-3.89349
-3.494
-3.24439
-3.06443
-2.93695
-2.84117
-2.76835
-3.68898
-3.69492
-3.70657
-3.72326
-3.74467
-3.77154
-3.80571
-3.85114
-3.91342
-4.02033
-4.25651
-4.64799
-5.02987
-5.16663
-4.84936
-4.2337
-3.80358
-3.51675
-3.32482
-3.17721
-3.06672
-2.98057
-2.91323
-3.7597
-3.76335
-3.77024
-3.78037
-3.79335
-3.80907
-3.82804
-3.85144
-3.87968
-3.92557
-4.03127
-4.21475
-4.38711
-4.39636
-4.22067
-3.92636
-3.69671
-3.51957
-3.38345
-3.27079
-3.1812
-3.10808
-3.04876
-3.82764
-3.82938
-3.83268
-3.83756
-3.8436
-3.85031
-3.85758
-3.86531
-3.87233
-3.8833
-3.91595
-3.97761
-4.02111
-3.97905
-3.87337
-3.75253
-3.64277
-3.53677
-3.44276
-3.35934
-3.28878
-3.22858
-3.17787
-3.89487
-3.89522
-3.89601
-3.89694
-3.89768
-3.89774
-3.89678
-3.89421
-3.8891
-3.8834
-3.88366
-3.89061
-3.88616
-3.8498
-3.78601
-3.71964
-3.65167
-3.58049
-3.51325
-3.45069
-3.39509
-3.34593
-3.30316
-3.96392
-3.9634
-3.96242
-3.96061
-3.95763
-3.95315
-3.94679
-3.93795
-3.92613
-3.9126
-3.90026
-3.88804
-3.86865
-3.83854
-3.80066
-3.75316
-3.70076
-3.64706
-3.59583
-3.54728
-3.50279
-3.46246
-3.42647
-4.0356
-4.0346
-4.03242
-4.02881
-4.02345
-4.01611
-4.00649
-3.99418
-3.97896
-3.96171
-3.94371
-3.92421
-3.90061
-3.87274
-3.84218
-3.80751
-3.76848
-3.72766
-3.68749
-3.64881
-3.61264
-3.57925
-3.54891
-4.11063
-4.10931
-4.10635
-4.10164
-4.09493
-4.08601
-4.07472
-4.06087
-4.04443
-4.02601
-4.00632
-3.98524
-3.96203
-3.93675
-3.90978
-3.88074
-3.84976
-3.81772
-3.78564
-3.75435
-3.72461
-3.69676
-3.67108
-4.18941
-4.18782
-4.18439
-4.17909
-4.17172
-4.16213
-4.15024
-4.13601
-4.11956
-4.1013
-4.08168
-4.06087
-4.03895
-4.0161
-3.99239
-3.96764
-3.94174
-3.91538
-3.88906
-3.86329
-3.83855
-3.81515
-3.79333
-4.27198
-4.27019
-4.26656
-4.26102
-4.25345
-4.24376
-4.23195
-4.21805
-4.20225
-4.18488
-4.1663
-4.14677
-4.12653
-4.10581
-4.0847
-4.06315
-4.04111
-4.01887
-3.99678
-3.97516
-3.95431
-3.93448
-3.91585
-4.35828
-4.35641
-4.35275
-4.34722
-4.33976
-4.33035
-4.31901
-4.30584
-4.29104
-4.27489
-4.25769
-4.23975
-4.22133
-4.20264
-4.18378
-4.16478
-4.14571
-4.12666
-4.10782
-4.08942
-4.07167
-4.05473
-4.03875
-4.44819
-4.44636
-4.4428
-4.43744
-4.43028
-4.42135
-4.41069
-4.39844
-4.38479
-4.36998
-4.35428
-4.33798
-4.32133
-4.30452
-4.28768
-4.27087
-4.25416
-4.23764
-4.2214
-4.2056
-4.19036
-4.1758
-4.16204
-4.54154
-4.53982
-4.53642
-4.53134
-4.5246
-4.51625
-4.50637
-4.4951
-4.48263
-4.46916
-4.45494
-4.44022
-4.42524
-4.41016
-4.39513
-4.38023
-4.36552
-4.35108
-4.33698
-4.32331
-4.31016
-4.2976
-4.28571
-4.63807
-4.63649
-4.63329
-4.62854
-4.62227
-4.61454
-4.60547
-4.59518
-4.58384
-4.57166
-4.55883
-4.5456
-4.53215
-4.51866
-4.50526
-4.49204
-4.47907
-4.46642
-4.45412
-4.44226
-4.43087
-4.42001
-4.40975
-4.73743
-4.73598
-4.73301
-4.72861
-4.72283
-4.71574
-4.70746
-4.69811
-4.68785
-4.67686
-4.66533
-4.65346
-4.64143
-4.62939
-4.61747
-4.60576
-4.59433
-4.58322
-4.5725
-4.56219
-4.55234
-4.54296
-4.53411
-4.83924
-4.83792
-4.83519
-4.83114
-4.82585
-4.8194
-4.81187
-4.80341
-4.79416
-4.78428
-4.77394
-4.76333
-4.75259
-4.74188
-4.73131
-4.72096
-4.71091
-4.7012
-4.69186
-4.68293
-4.67443
-4.66637
-4.65877
-4.94316
-4.94196
-4.93946
-4.93577
-4.93097
-4.92511
-4.91831
-4.91069
-4.90237
-4.89352
-4.88428
-4.87482
-4.86528
-4.85578
-4.84645
-4.83735
-4.82856
-4.82011
-4.81203
-4.80434
-4.79705
-4.79016
-4.7837
-5.0489
-5.0478
-5.04554
-5.0422
-5.03786
-5.03258
-5.02645
-5.01961
-5.01216
-5.00426
-4.99604
-4.98764
-4.9792
-4.97084
-4.96265
-4.95471
-4.94708
-4.93979
-4.93286
-4.9263
-4.92012
-4.91431
-4.90887
-5.15613
-5.15513
-5.15311
-5.15011
-5.14621
-5.14148
-5.136
-5.12989
-5.12326
-5.11624
-5.10896
-5.10156
-5.09415
-5.08684
-5.07972
-5.07286
-5.06631
-5.06009
-5.05424
-5.04875
-5.04358
-5.03877
-5.03429
-5.26458
-5.26368
-5.26187
-5.25921
-5.25573
-5.25152
-5.24666
-5.24125
-5.2354
-5.22922
-5.22284
-5.21637
-5.20993
-5.20362
-5.19751
-5.19167
-5.18613
-5.18094
-5.17608
-5.17155
-5.16739
-5.16353
-5.15995
-5.37422
-5.37343
-5.37183
-5.36946
-5.36638
-5.36266
-5.35837
-5.3536
-5.34847
-5.34307
-5.33753
-5.33196
-5.32644
-5.32106
-5.31591
-5.31104
-5.30648
-5.30226
-5.29837
-5.2948
-5.29156
-5.28859
-5.28586
-5.48509
-5.48442
-5.483
-5.48092
-5.4782
-5.47491
-5.47114
-5.46696
-5.46249
-5.45781
-5.45304
-5.44828
-5.44361
-5.43912
-5.43488
-5.43092
-5.42729
-5.424
-5.42104
-5.41841
-5.41606
-5.41395
-5.41205
-5.5967
-5.59616
-5.59494
-5.59313
-5.59076
-5.58791
-5.58463
-5.58103
-5.57719
-5.5732
-5.56918
-5.5652
-5.56135
-5.5577
-5.55432
-5.55125
-5.54852
-5.54613
-5.54409
-5.54237
-5.54091
-5.53966
-5.53854
-5.70834
-5.70804
-5.70703
-5.7055
-5.7035
-5.70109
-5.69834
-5.69533
-5.69215
-5.68888
-5.68562
-5.68244
-5.67942
-5.67663
-5.67412
-5.67194
-5.6701
-5.66863
-5.6675
-5.6667
-5.66617
-5.66576
-5.6654
-12.7564
-5.03731
-2.23741
-0.683079
-6.31613
-5.39449
-1.91922
-0.767117
-1.50661
-2.07686
-1.39705
-0.666861
-0.2151
-0.757369
-0.842205
-0.594761
-0.0330055
-0.381047
-0.566428
-0.574589
-0.135503
-0.314362
-0.509732
-0.613434
-0.312925
-0.424558
-0.58674
-0.701255
-0.555378
-0.617094
-0.727298
-0.823962
-0.800381
-0.825158
-0.894553
-0.968684
-1.02643
-1.03087
-1.07259
-1.12584
-1.24022
-1.23216
-1.25386
-1.28942
-1.44551
-1.42794
-1.43465
-1.45581
-1.64373
-1.61811
-1.61329
-1.62277
-1.83607
-1.80308
-1.78895
-1.78888
-2.02281
-1.98304
-1.96111
-1.95321
-2.20319
-2.15799
-2.12934
-2.11512
-2.37751
-2.32622
-2.29311
-2.27413
-2.54331
-2.48874
-2.45245
-2.42989
-2.70032
-2.64509
-2.60725
-2.58244
-2.849
-2.79541
-2.75758
-2.7317
-2.99056
-2.94035
-2.90377
-2.87783
-3.12659
-3.08078
-3.04633
-3.0211
-3.25869
-3.21764
-3.18583
-3.16183
-3.38819
-3.35179
-3.32283
-3.30039
-3.51602
-3.48397
-3.45785
-3.43713
-3.64283
-3.6147
-3.59131
-3.57237
-3.76904
-3.7444
-3.72356
-3.70637
-3.89492
-3.87337
-3.85487
-3.83937
-4.02067
-4.00183
-3.98547
-3.97158
-4.1464
-4.12994
-4.11552
-4.10314
-4.27217
-4.25783
-4.24516
-4.23419
-4.39803
-4.38557
-4.3745
-4.36483
-4.524
-4.51323
-4.50361
-4.49517
-4.6501
-4.64084
-4.63257
-4.62527
-4.77633
-4.76846
-4.76142
-4.75519
-4.9027
-4.89612
-4.89022
-4.88499
-5.02922
-5.02384
-5.01901
-5.01472
-5.15592
-5.15165
-5.14784
-5.14444
-5.28282
-5.2796
-5.27673
-5.27417
-5.40994
-5.40772
-5.40574
-5.40397
-5.53731
-5.53603
-5.53488
-5.53386
-5.665
-5.66459
-5.66423
-5.66391
-0.639885
-0.486128
-0.402328
-0.357251
-0.328239
-0.307708
-0.292589
-0.281564
-0.273194
-0.266714
-0.261654
-0.257683
-0.254568
-0.252139
-0.250271
-0.248873
-0.247874
-0.247226
-0.246905
-0.650662
-0.557718
-0.490817
-0.452321
-0.429128
-0.412753
-0.401449
-0.393444
-0.387595
-0.383201
-0.379852
-0.377276
-0.375286
-0.373752
-0.372584
-0.371716
-0.371099
-0.370699
-0.370499
-0.603566
-0.585868
-0.554767
-0.533617
-0.520837
-0.512762
-0.507132
-0.503305
-0.500669
-0.498795
-0.497444
-0.496459
-0.495733
-0.495198
-0.494806
-0.494523
-0.494327
-0.494199
-0.494133
-0.591895
-0.61246
-0.612427
-0.609677
-0.61022
-0.610983
-0.611696
-0.61252
-0.613389
-0.614225
-0.614994
-0.615681
-0.616276
-0.616778
-0.61719
-0.617514
-0.617752
-0.617904
-0.617975
-0.620108
-0.658062
-0.678674
-0.691773
-0.702502
-0.710902
-0.717418
-0.722622
-0.726845
-0.73029
-0.73311
-0.735416
-0.737292
-0.738802
-0.739995
-0.740908
-0.741569
-0.741994
-0.742196
-0.68117
-0.727048
-0.759272
-0.782638
-0.800834
-0.815031
-0.826142
-0.834959
-0.84203
-0.847738
-0.852364
-0.856113
-0.85914
-0.861561
-0.863464
-0.864916
-0.865964
-0.866637
-0.866961
-0.772754
-0.819799
-0.85632
-0.884637
-0.907069
-0.924894
-0.9391
-0.950499
-0.959701
-0.967163
-0.973227
-0.978149
-0.982126
-0.985308
-0.987812
-0.989722
-0.991099
-0.991986
-0.992415
-0.889062
-0.932555
-0.968474
-0.997754
-1.02163
-1.04106
-1.05688
-1.06978
-1.08032
-1.08896
-1.09602
-1.10179
-1.10648
-1.11024
-1.11321
-1.11547
-1.11711
-1.11817
-1.11868
-1.02297
-1.06046
-1.09301
-1.12067
-1.14392
-1.16334
-1.17951
-1.19293
-1.20407
-1.2133
-1.22093
-1.22721
-1.23234
-1.23648
-1.23976
-1.24227
-1.24409
-1.24527
-1.24584
-1.16846
-1.19916
-1.22701
-1.25157
-1.27286
-1.29111
-1.30664
-1.31979
-1.33089
-1.3402
-1.34798
-1.35445
-1.35977
-1.3641
-1.36754
-1.37019
-1.37211
-1.37335
-1.37396
-1.32115
-1.34513
-1.36783
-1.38859
-1.40714
-1.42348
-1.43771
-1.45
-1.46053
-1.4695
-1.47709
-1.48346
-1.48875
-1.49308
-1.49655
-1.49922
-1.50117
-1.50244
-1.50306
-1.47793
-1.49568
-1.5133
-1.53005
-1.54553
-1.55954
-1.57203
-1.58305
-1.59266
-1.60097
-1.6081
-1.61414
-1.61921
-1.62339
-1.62675
-1.62936
-1.63127
-1.63251
-1.63312
-1.63663
-1.6488
-1.66168
-1.67454
-1.68687
-1.69839
-1.70893
-1.71844
-1.72689
-1.73431
-1.74077
-1.74631
-1.75101
-1.75491
-1.75807
-1.76054
-1.76235
-1.76353
-1.76412
-1.79572
-1.80304
-1.81167
-1.82089
-1.83019
-1.83922
-1.84775
-1.85563
-1.8628
-1.8692
-1.87486
-1.87978
-1.88399
-1.88752
-1.8904
-1.89267
-1.89434
-1.89543
-1.89597
-1.95418
-1.95733
-1.96223
-1.96819
-1.97469
-1.98136
-1.98791
-1.99417
-1.99999
-2.00532
-2.01011
-2.01433
-2.01798
-2.02108
-2.02363
-2.02565
-2.02714
-2.02812
-2.02861
-2.11125
-2.11091
-2.11262
-2.11572
-2.11971
-2.12421
-2.12891
-2.1336
-2.13812
-2.14236
-2.14625
-2.14974
-2.15281
-2.15544
-2.15762
-2.15936
-2.16066
-2.16152
-2.16194
-2.2664
-2.26322
-2.26227
-2.26294
-2.26474
-2.26731
-2.27033
-2.27357
-2.27685
-2.28004
-2.28305
-2.28582
-2.28829
-2.29044
-2.29224
-2.29369
-2.29478
-2.2955
-2.29586
-2.41929
-2.41387
-2.41077
-2.40943
-2.40939
-2.41029
-2.41182
-2.41375
-2.4159
-2.41812
-2.4203
-2.42237
-2.42426
-2.42593
-2.42736
-2.42852
-2.4294
-2.42999
-2.43028
-2.56968
-2.56261
-2.55787
-2.55492
-2.55336
-2.55286
-2.55312
-2.55391
-2.55504
-2.55638
-2.5578
-2.55922
-2.56057
-2.56179
-2.56286
-2.56374
-2.56441
-2.56487
-2.56509
-2.7176
-2.70937
-2.7034
-2.69921
-2.69646
-2.69482
-2.69402
-2.69383
-2.69409
-2.69466
-2.6954
-2.69623
-2.69708
-2.69789
-2.69862
-2.69924
-2.69972
-2.70004
-2.7002
-2.86305
-2.85412
-2.84731
-2.84224
-2.83858
-2.83604
-2.83437
-2.83338
-2.8329
-2.83283
-2.83296
-2.83327
-2.83368
-2.83412
-2.83454
-2.83492
-2.83522
-2.83543
-2.83553
-3.00618
-2.99691
-2.98961
-2.98395
-2.97964
-2.97642
-2.97409
-2.97247
-2.97139
-2.97074
-2.97038
-2.97025
-2.97027
-2.97038
-2.97054
-2.9707
-2.97085
-2.97096
-2.97099
-3.14719
-3.13788
-3.13037
-3.12437
-3.11963
-3.11594
-3.11312
-3.111
-3.10945
-3.10835
-3.10759
-3.10709
-3.10678
-3.10661
-3.10653
-3.10651
-3.10652
-3.10655
-3.10651
-3.28633
-3.27721
-3.2697
-3.26356
-3.25858
-3.25459
-3.25144
-3.24896
-3.24706
-3.2456
-3.24452
-3.24372
-3.24314
-3.24274
-3.24247
-3.24229
-3.24218
-3.24214
-3.24205
-3.42383
-3.41508
-3.40773
-3.40161
-3.39655
-3.39241
-3.38905
-3.38634
-3.38418
-3.38247
-3.38113
-3.3801
-3.37932
-3.37873
-3.3783
-3.37799
-3.37779
-3.37767
-3.37755
-3.55995
-3.55166
-3.54461
-3.53864
-3.53362
-3.52944
-3.52598
-3.52313
-3.52081
-3.51892
-3.51741
-3.51621
-3.51527
-3.51454
-3.51398
-3.51357
-3.51329
-3.51311
-3.51298
-3.6949
-3.68715
-3.68047
-3.67474
-3.66986
-3.66574
-3.66227
-3.65937
-3.65696
-3.65497
-3.65335
-3.65203
-3.65098
-3.65014
-3.64949
-3.64901
-3.64866
-3.64844
-3.6483
-3.82887
-3.8217
-3.81545
-3.81003
-3.80537
-3.80137
-3.79796
-3.79508
-3.79265
-3.79062
-3.78894
-3.78756
-3.78643
-3.78553
-3.78482
-3.78427
-3.78388
-3.78363
-3.78349
-3.96203
-3.95546
-3.94968
-3.94462
-3.94021
-3.93639
-3.93311
-3.9303
-3.92791
-3.92589
-3.9242
-3.92279
-3.92164
-3.92069
-3.91994
-3.91936
-3.91894
-3.91867
-3.91853
-4.09453
-4.08856
-4.08326
-4.07858
-4.07447
-4.07089
-4.06777
-4.06508
-4.06278
-4.06081
-4.05915
-4.05775
-4.05659
-4.05563
-4.05487
-4.05427
-4.05384
-4.05356
-4.05342
-4.22649
-4.22111
-4.2163
-4.21202
-4.20824
-4.20491
-4.202
-4.19946
-4.19728
-4.1954
-4.19379
-4.19243
-4.1913
-4.19036
-4.1896
-4.189
-4.18857
-4.18829
-4.18816
-4.358
-4.3532
-4.34888
-4.34501
-4.34157
-4.33852
-4.33584
-4.33349
-4.33145
-4.32968
-4.32816
-4.32687
-4.32578
-4.32487
-4.32413
-4.32356
-4.32314
-4.32286
-4.32274
-4.48916
-4.48492
-4.48108
-4.47763
-4.47453
-4.47178
-4.46934
-4.4672
-4.46532
-4.46369
-4.46228
-4.46107
-4.46005
-4.45919
-4.45849
-4.45795
-4.45755
-4.45729
-4.45718
-4.62004
-4.61634
-4.61297
-4.60993
-4.60719
-4.60474
-4.60256
-4.60064
-4.59895
-4.59746
-4.59618
-4.59507
-4.59412
-4.59333
-4.59269
-4.59219
-4.59182
-4.59158
-4.59148
-4.7507
-4.74752
-4.74461
-4.74197
-4.73959
-4.73745
-4.73554
-4.73385
-4.73235
-4.73103
-4.72987
-4.72888
-4.72803
-4.72732
-4.72673
-4.72628
-4.72595
-4.72573
-4.72565
-4.88121
-4.87852
-4.87606
-4.87382
-4.87179
-4.86996
-4.86832
-4.86686
-4.86556
-4.86441
-4.8634
-4.86253
-4.86178
-4.86116
-4.86065
-4.86025
-4.85995
-4.85976
-4.85969
-5.01162
-5.0094
-5.00737
-5.00552
-5.00384
-5.00231
-5.00094
-4.99971
-4.99862
-4.99764
-4.99679
-4.99605
-4.99541
-4.99487
-4.99444
-4.9941
-4.99385
-4.99368
-4.99363
-5.14197
-5.14021
-5.13859
-5.13711
-5.13577
-5.13454
-5.13344
-5.13244
-5.13155
-5.13076
-5.13006
-5.12945
-5.12893
-5.12849
-5.12813
-5.12785
-5.12765
-5.12751
-5.12747
-5.27231
-5.27098
-5.26976
-5.26864
-5.26762
-5.26669
-5.26584
-5.26508
-5.26439
-5.26378
-5.26324
-5.26277
-5.26236
-5.26202
-5.26174
-5.26153
-5.26137
-5.26126
-5.26124
-5.40269
-5.40177
-5.40092
-5.40014
-5.39943
-5.39878
-5.39819
-5.39766
-5.39717
-5.39674
-5.39636
-5.39602
-5.39573
-5.39549
-5.3953
-5.39514
-5.39503
-5.39495
-5.39494
-5.53312
-5.53259
-5.5321
-5.53165
-5.53124
-5.53086
-5.53051
-5.5302
-5.52991
-5.52966
-5.52943
-5.52923
-5.52906
-5.52892
-5.5288
-5.52871
-5.52864
-5.52859
-5.5286
-5.66368
-5.66351
-5.66336
-5.66321
-5.66308
-5.66296
-5.66285
-5.66275
-5.66266
-5.66258
-5.6625
-5.66244
-5.66238
-5.66234
-5.6623
-5.66227
-5.66225
-5.66223
-5.66224
)
;

boundaryField
{
    leftWall
    {
        type            calculated;
        value           nonuniform List<scalar> 
50
(
2246.83
2187.49
2127.67
2067.39
2006.67
1945.54
1884
1822.11
1724.97
1591.97
1458.69
1325.76
1193.79
1063.36
935.019
809.226
686.034
565.657
448.929
334.481
220.619
114.372
34.8449
-2.52809
-3.43312
-3.53177
-3.61417
-3.68898
-3.7597
-3.82764
-3.89487
-3.96392
-4.0356
-4.11063
-4.18941
-4.27198
-4.35828
-4.44819
-4.54154
-4.63807
-4.73743
-4.83924
-4.94316
-5.0489
-5.15613
-5.26458
-5.37422
-5.48509
-5.5967
-5.70834
)
;
    }
    rightWall
    {
        type            calculated;
        value           nonuniform List<scalar> 
50
(
0.253168
0.194458
0.135834
0.077307
0.0188723
-0.0394777
-0.0977531
-0.155966
-0.246905
-0.370499
-0.494133
-0.617975
-0.742196
-0.866961
-0.992415
-1.11868
-1.24584
-1.37396
-1.50306
-1.63312
-1.76412
-1.89597
-2.02861
-2.16194
-2.29586
-2.43028
-2.56509
-2.7002
-2.83553
-2.97099
-3.10651
-3.24205
-3.37755
-3.51298
-3.6483
-3.78349
-3.91853
-4.05342
-4.18816
-4.32274
-4.45718
-4.59148
-4.72565
-4.85969
-4.99363
-5.12747
-5.26124
-5.39494
-5.5286
-5.66224
)
;
    }
    lowerWall
    {
        type            calculated;
        value           nonuniform List<scalar> 
62
(
2276.26
2275.34
2262.85
2241.52
2213.06
2176.95
2132.18
2077.86
2012.94
1936.37
1846.93
1743.27
1624.57
1490.98
1343.7
1185.45
1022.9
873.922
780.439
806.263
1031.37
1486.56
1987.58
1974.32
1878.88
1461
775.595
269.453
67.5282
21.9839
11.4818
-12.2567
-4.97459
-2.17481
-0.620482
0.0811155
0.0193357
-0.0454692
-0.113474
-0.187052
-0.268102
-0.353762
-0.456058
0.110545
0.126563
0.143035
0.162068
0.181033
0.198637
0.214327
0.227951
0.239513
0.249201
0.257226
0.263788
0.269093
0.273311
0.276596
0.279079
0.280863
0.282022
0.282597
)
;
    }
    atmosphere
    {
        type            calculated;
        value           nonuniform List<scalar> 
46
(
-5.76379
-5.7638
-5.76287
-5.76147
-5.75967
-5.75751
-5.75505
-5.75238
-5.74957
-5.74669
-5.74385
-5.7411
-5.73853
-5.7362
-5.73415
-5.73243
-5.73106
-5.73005
-5.72939
-5.72907
-5.72904
-5.72904
-5.72904
-5.72904
-5.72904
-5.72904
-5.72904
-5.72904
-5.72904
-5.72904
-5.72904
-5.72904
-5.72904
-5.72904
-5.72904
-5.72904
-5.72904
-5.72904
-5.72904
-5.72904
-5.72904
-5.72904
-5.72904
-5.72904
-5.72904
-5.72904
)
;
    }
    defaultFaces
    {
        type            empty;
    }
}


// ************************************************************************* //
