/*--------------------------------*- C++ -*----------------------------------*\
| =========                 |                                                 |
| \\      /  F ield         | OpenFOAM: The Open Source CFD Toolbox           |
|  \\    /   O peration     | Version:  2206                                  |
|   \\  /    A nd           | Website:  www.openfoam.com                      |
|    \\/     M anipulation  |                                                 |
\*---------------------------------------------------------------------------*/
FoamFile
{
    version     2.0;
    format      ascii;
    arch        "LSB;label=32;scalar=64";
    class       volScalarField;
    location    "0.125";
    object      p_rgh;
}
// * * * * * * * * * * * * * * * * * * * * * * * * * * * * * * * * * * * * * //

dimensions      [1 -1 -2 0 0 0 0];

internalField   nonuniform List<scalar> 
2268
(
2276.26
2275.34
2262.85
2241.52
2213.06
2176.95
2132.18
2077.86
2012.94
1936.37
1846.93
1743.27
1624.57
1490.98
1343.7
1185.45
1022.9
873.922
780.439
806.263
1031.37
1486.56
1987.58
2275.78
2274.82
2262.26
2240.95
2212.5
2176.37
2131.55
2077.16
2012.13
1935.39
1845.7
1741.68
1622.4
1487.88
1339.12
1178.6
1012.6
857.211
745.478
728.452
877.337
1302.48
1918.66
2274.82
2273.77
2261.11
2239.81
2211.38
2175.2
2130.29
2075.76
2010.52
1933.45
1843.27
1738.51
1618.09
1481.8
1330.25
1165.37
992.535
825.41
691.347
630.196
659.37
883.372
1561.24
2273.4
2272.21
2259.41
2238.13
2209.71
2173.47
2128.44
2073.7
2008.15
1930.59
1839.69
1733.82
1611.72
1472.88
1317.38
1146.22
963.524
779.811
616.066
490.96
389.459
386.887
899.124
2271.54
2270.19
2257.22
2235.96
2207.56
2171.23
2126.04
2071.05
2005.09
1926.91
1835.08
1727.77
1603.47
1461.34
1300.65
1121.31
926.164
721.388
518.592
298.296
129.734
131.391
378.038
2269.26
2267.73
2254.59
2233.34
2204.95
2168.54
2123.17
2067.88
2001.43
1922.53
1829.58
1720.54
1593.6
1447.5
1280.58
1091.37
879.976
647.279
352.021
91.6152
25.3009
46.1706
129.77
2266.58
2264.8
2251.49
2230.26
2201.88
2165.38
2119.82
2064.19
1997.19
1917.45
1823.21
1712.14
1582.15
1431.59
1258.03
1057.31
822.408
508.2
131.922
11.0515
8.84575
17.0229
30.6539
2263.55
2261.41
2247.93
2226.72
2198.36
2161.75
2115.97
2059.95
1992.33
1911.65
1815.95
1702.55
1569.07
1413.78
1233.39
1017.29
752.263
297.192
20.375
2.96455
3.54598
7.12913
13.531
0.110545
0.126563
0.143035
0.162068
0.181033
0.198637
0.214327
0.227951
0.239513
0.249201
0.257226
0.263788
0.269093
0.273311
0.276596
0.279079
0.280863
0.282022
0.282597
0.107624
0.124709
0.142086
0.161902
0.181298
0.199109
0.214863
0.228459
0.239996
0.249637
0.257608
0.264118
0.269374
0.273551
0.276802
0.27926
0.281026
0.282173
0.282746
0.101678
0.120787
0.140243
0.161666
0.181902
0.200106
0.215995
0.229584
0.241018
0.250529
0.258367
0.264755
0.269904
0.273992
0.277172
0.279576
0.281302
0.282423
0.282981
0.0925318
0.114061
0.137656
0.161532
0.182958
0.201696
0.217743
0.231275
0.242549
0.25186
0.259494
0.265694
0.27068
0.274634
0.277707
0.280027
0.281693
0.282774
0.283312
0.0778123
0.105211
0.134684
0.161734
0.184619
0.203972
0.220154
0.233566
0.244597
0.253625
0.260979
0.266928
0.271697
0.275471
0.278401
0.28061
0.282195
0.283224
0.283737
0.0556212
0.093307
0.131725
0.162536
0.187074
0.207051
0.223282
0.23648
0.247166
0.255819
0.262814
0.268444
0.272941
0.276491
0.279242
0.281315
0.2828
0.283765
0.284245
0.0288194
0.0802879
0.129399
0.164274
0.19052
0.211055
0.227188
0.24004
0.250256
0.258432
0.264985
0.270228
0.274398
0.27768
0.280219
0.282129
0.283498
0.284386
0.284829
-0.0146177
0.0677898
0.1284
0.167408
0.195197
0.216087
0.232058
0.244264
0.253857
0.261445
0.26747
0.272258
0.276048
0.279021
0.281316
0.283041
0.284275
0.285076
0.285475
2258.43
2255.54
2241.95
2220.77
2192.39
2155.63
2109.49
2052.84
1984.2
1901.94
1803.76
1686.31
1546.99
1384.5
1190.57
938.76
523.113
74.9621
3.06918
0.906073
1.01238
1.74103
5.51782
2250.63
2246.91
2233.11
2212.07
2183.73
2146.84
2100.33
2042.93
1972.97
1888.62
1786.97
1663.68
1516.9
1344.83
1122.01
752.611
133.458
3.46173
0.766103
0.549186
0.738825
0.756786
0.72646
2242.54
2237.98
2224.04
2203.25
2175.1
2138.24
2091.61
2033.76
1962.88
1876.96
1772.26
1643.93
1492.53
1308.88
1049.12
338.939
6.10181
0.554659
0.259869
0.427828
0.722457
1.02126
0.642944
2234.81
2229.45
2215.54
2195.16
2167.39
2130.87
2084.52
2026.76
1955.69
1869.13
1762.38
1631.53
1479.02
1277.15
802.516
69.247
1.26181
0.126672
0.228566
0.415174
0.70281
1.02273
1.06555
2228.04
2221.99
2208.31
2188.53
2161.4
2125.61
2080.09
2023.13
1952.87
1866.91
1759.71
1630.16
1478.26
1260.25
416.838
3.5374
0.163503
0.127279
0.279489
0.45059
0.709025
0.876021
1.01347
2222.8
2216.22
2203
2184.03
2157.86
2123.28
2079.24
2023.95
1955.72
1871.78
1766.38
1641.94
1488.34
1150.58
148.015
0.90825
0.0314308
0.203284
0.32072
0.469097
0.688365
0.787019
0.947812
2219.65
2212.69
2200.2
2182.26
2157.41
2124.58
2082.74
2030.09
1965.19
1884.76
1783.95
1667.62
1511.8
828.458
28.8572
0.171807
0.123099
0.23191
0.347929
0.476531
0.635495
0.739152
0.895564
2219.06
2211.88
2200.34
2183.66
2160.51
2129.96
2091.02
2041.96
1981.63
1906.13
1812.71
1705.83
1552.38
486.891
1.0252
-0.0278111
0.197643
0.25318
0.362951
0.464153
0.583728
0.676686
0.792257
2221.06
2213.81
2203.44
2188.23
2167.13
2139.35
2104
2059.48
2004.91
1935.78
1852.23
1753.31
1517.16
211.681
0.344658
0.0739945
0.213137
0.274778
0.360945
0.439542
0.528703
0.603098
0.682242
2225.87
2218.77
2209.73
2196.19
2177.47
2152.96
2121.9
2082.89
2035.28
1974.28
1902.75
1809.74
1143.4
48.8226
0.0432444
0.203186
0.249719
0.299536
0.346804
0.406866
0.470903
0.530081
0.588342
2234.34
2227.55
2219.95
2208.15
2192
2170.99
2144.53
2111.53
2071.41
2019.82
1961.09
1877.26
762.616
1.35111
0.260138
0.330714
0.294964
0.317905
0.320673
0.364215
0.409969
0.457904
0.504406
2245.06
2238.46
2232.27
2222.07
2208.32
2190.65
2168.67
2141.64
2109.2
2068.09
2022
1955.27
595.587
0.789415
0.705716
0.503308
0.339725
0.304618
0.285375
0.308695
0.343677
0.385148
0.425896
2256.1
2249.44
2244.85
2236.42
2225.4
2211.56
2194.87
2174.97
2152.1
2124.29
2092.97
1986.74
578.01
4.52328
0.906214
0.550983
0.314212
0.244124
0.217938
0.235265
0.269539
0.310801
0.351138
2270.68
2262.01
2257.94
2245.56
2225.18
2189.41
2131.35
2040.42
1907.92
1664.46
1368.15
804.635
418.588
49.6022
1.15772
0.426516
0.14627
0.112655
0.108859
0.140942
0.186432
0.234618
0.279318
1428.69
1350.41
1307.12
1204.33
1069.01
909.885
733.061
550.37
376.669
177.786
36.1316
-2.17098
14.4273
78.1527
10.634
-0.249571
-0.231897
-0.10909
-0.0448865
0.0280816
0.0967542
0.158219
0.210996
28.6129
8.10717
0.310185
-1.00311
-1.08561
-1.1453
-1.23012
-1.35765
-1.54386
-1.78565
-2.0001
-2.26603
-2.40323
31.8012
22.6838
-1.11194
-0.750557
-0.389244
-0.224191
-0.0904768
0.00815873
0.0859734
0.148162
-0.896542
-0.904414
-0.93813
-0.992413
-1.04151
-1.09917
-1.17807
-1.28807
-1.44479
-1.65809
-1.9585
-2.38475
-2.66476
-2.97688
17.2103
-1.11359
-1.11858
-0.621409
-0.368659
-0.190266
-0.0679671
0.0235333
0.0935155
-0.869992
-0.87898
-0.903102
-0.938431
-0.979257
-1.02934
-1.09673
-1.18881
-1.3237
-1.51394
-1.86286
-2.38127
-2.60549
-2.25735
5.60644
-1.98689
-1.22164
-0.729646
-0.449375
-0.254918
-0.122083
-0.0239787
0.0499235
-0.827197
-0.835202
-0.85255
-0.877295
-0.908322
-0.947277
-0.998618
-1.06892
-1.16993
-1.33553
-1.67646
-2.18007
-1.42422
1.27585
3.51401
-1.68807
-1.10652
-0.707035
-0.457418
-0.277464
-0.149983
-0.0542034
0.0186218
-0.776814
-0.782759
-0.794404
-0.811096
-0.83251
-0.859372
-0.893542
-0.938979
-1.00125
-1.10808
-1.34355
-1.64425
-0.307196
0.0996897
-1.49308
-1.32153
-0.891413
-0.604587
-0.412658
-0.265046
-0.154555
-0.0684063
-0.0010628
-0.722341
-0.725995
-0.732886
-0.74301
-0.755996
-0.771715
-0.790685
-0.814084
-0.842323
-0.887448
-0.991594
-1.17671
-1.34973
-1.35886
-1.18325
-0.888998
-0.659348
-0.482209
-0.346091
-0.233436
-0.143843
-0.07072
-0.0114036
-0.665092
-0.66683
-0.670132
-0.675005
-0.681044
-0.687754
-0.695031
-0.702755
-0.709779
-0.720743
-0.753401
-0.81506
-0.858555
-0.816357
-0.710817
-0.589979
-0.48022
-0.374215
-0.280208
-0.196787
-0.126229
-0.0660243
-0.0153196
-0.607128
-0.607477
-0.608259
-0.609195
-0.609934
-0.609993
-0.609033
-0.606468
-0.601354
-0.595655
-0.595911
-0.602864
-0.59841
-0.562048
-0.498264
-0.431891
-0.363922
-0.292748
-0.225499
-0.162944
-0.107347
-0.0581837
-0.0154165
-0.550974
-0.550454
-0.549477
-0.547664
-0.544693
-0.540208
-0.533851
-0.525013
-0.513185
-0.499663
-0.487315
-0.475097
-0.455714
-0.425602
-0.387721
-0.34022
-0.287817
-0.234119
-0.182893
-0.134343
-0.08985
-0.0495139
-0.013532
-0.497463
-0.496464
-0.494285
-0.490669
-0.485319
-0.477972
-0.468357
-0.456046
-0.440829
-0.423574
-0.405571
-0.386072
-0.362475
-0.334608
-0.304043
-0.269375
-0.230345
-0.189529
-0.149357
-0.110678
-0.0745008
-0.0411163
-0.0107714
-0.447301
-0.445979
-0.443018
-0.438305
-0.431595
-0.422675
-0.411391
-0.397535
-0.381104
-0.362678
-0.342987
-0.321905
-0.298703
-0.273419
-0.246447
-0.217411
-0.186425
-0.154385
-0.122314
-0.0910242
-0.0612764
-0.0334277
-0.00774711
-0.400883
-0.399291
-0.395869
-0.390567
-0.383198
-0.373601
-0.361713
-0.347483
-0.331034
-0.312777
-0.293152
-0.272342
-0.250425
-0.227577
-0.203864
-0.179113
-0.15322
-0.126855
-0.100539
-0.0747684
-0.0500265
-0.0266203
-0.00480132
-0.358257
-0.35647
-0.352838
-0.347298
-0.33973
-0.330042
-0.318227
-0.304332
-0.288533
-0.271163
-0.25258
-0.233052
-0.212815
-0.192091
-0.170978
-0.149426
-0.127388
-0.105152
-0.0830605
-0.0614384
-0.0405952
-0.0207575
-0.00213065
-0.319366
-0.317498
-0.31384
-0.308308
-0.300848
-0.291434
-0.280092
-0.266926
-0.252128
-0.235976
-0.21878
-0.200836
-0.182417
-0.16373
-0.144868
-0.125865
-0.106793
-0.0877419
-0.0689054
-0.0505079
-0.032757
-0.0158118
0.000168543
-0.284083
-0.282251
-0.278688
-0.273331
-0.266176
-0.257241
-0.246583
-0.234333
-0.220681
-0.205871
-0.190176
-0.173875
-0.157221
-0.140416
-0.123573
-0.106758
-0.0900541
-0.0735274
-0.0572965
-0.0414926
-0.0262542
-0.0116927
0.00207099
-0.25224
-0.25052
-0.247121
-0.242039
-0.2353
-0.226948
-0.217069
-0.205801
-0.193324
-0.179855
-0.165638
-0.150921
-0.135933
-0.12086
-0.105829
-0.0909237
-0.0762186
-0.0617795
-0.0476804
-0.0340101
-0.0208566
-0.00829424
0.00358856
-0.223577
-0.221992
-0.218797
-0.214041
-0.207769
-0.200046
-0.190972
-0.180683
-0.169345
-0.157158
-0.144337
-0.1311
-0.117652
-0.104163
-0.0907636
-0.0775442
-0.064577
-0.0519232
-0.0396268
-0.0277584
-0.0163724
-0.00551626
0.00474782
-0.197742
-0.196291
-0.193322
-0.188915
-0.183133
-0.17605
-0.167769
-0.158419
-0.148158
-0.137168
-0.12564
-0.113769
-0.101734
-0.0896943
-0.077774
-0.0660653
-0.0546335
-0.0435329
-0.0328067
-0.0224989
-0.0126434
-0.00326978
0.00558032
-0.174357
-0.173032
-0.1703
-0.166252
-0.160965
-0.154509
-0.146988
-0.138526
-0.129272
-0.119392
-0.109057
-0.0984396
-0.087703
-0.0769905
-0.0664187
-0.0560754
-0.0460224
-0.0363097
-0.0269763
-0.0180469
-0.00954211
-0.00147898
0.00611709
-0.153084
-0.151875
-0.14938
-0.145692
-0.140887
-0.135033
-0.128232
-0.120604
-0.112289
-0.103435
-0.0941994
-0.0847368
-0.0751945
-0.0657024
-0.056368
-0.0472736
-0.0384791
-0.0300279
-0.021949
-0.0142591
-0.00696784
-8.24351e-05
0.00638443
-0.133627
-0.132524
-0.130264
-0.126927
-0.122583
-0.117301
-0.111179
-0.104333
-0.0968884
-0.0889844
-0.0807631
-0.0723664
-0.0639275
-0.0555641
-0.0473744
-0.0394349
-0.0318013
-0.0245097
-0.0175809
-0.0110289
-0.00484404
0.000966635
0.00640129
-0.115665
-0.114664
-0.112636
-0.10964
-0.10574
-0.101005
-0.0955288
-0.0894174
-0.0827889
-0.0757708
-0.0684949
-0.0610911
-0.0536805
-0.04637
-0.0392491
-0.0323878
-0.025836
-0.0196233
-0.013766
-0.0082832
-0.00311353
0.00170062
0.00617752
-0.0989131
-0.0980135
-0.0962086
-0.0935411
-0.0900679
-0.0858585
-0.0809983
-0.0755857
-0.0697309
-0.0635523
-0.0571719
-0.0507079
-0.04427
-0.0379552
-0.0318447
-0.0260019
-0.0204703
-0.0152733
-0.0104161
-0.00588538
-0.00172634
0.0021381
0.00571279
-0.0833634
-0.0825705
-0.0809679
-0.0786033
-0.0755249
-0.0718003
-0.0675089
-0.0627438
-0.0576089
-0.0522155
-0.0466753
-0.041096
-0.0355769
-0.0302055
-0.025055
-0.0201817
-0.0156228
-0.0113975
-0.0075076
-0.0039434
-0.000695871
0.00227413
0.00499482
-0.0690391
-0.0683658
-0.0669507
-0.0648643
-0.062146
-0.0588609
-0.0550856
-0.0509097
-0.0464326
-0.0417581
-0.03699
-0.0322272
-0.0275609
-0.0230712
-0.0188241
-0.0148695
-0.0112389
-0.00794634
-0.00499009
-0.00235297
-6.22204e-06
0.00209918
0.00400285
-0.0554487
-0.0549086
-0.0536905
-0.0518807
-0.0495144
-0.0466569
-0.0433833
-0.0397792
-0.0359377
-0.0319553
-0.0279278
-0.023947
-0.0200972
-0.0164524
-0.013073
-0.0100034
-0.00727096
-0.00488621
-0.00284283
-0.00111717
0.000335723
0.00159232
0.00270933
-0.0419
-0.0415951
-0.0405872
-0.0390569
-0.0370537
-0.0346426
-0.0318945
-0.028888
-0.0257075
-0.0224404
-0.019174
-0.0159924
-0.0129729
-0.0101828
-0.00767697
-0.0054952
-0.00366166
-0.00218465
-0.0010572
-0.000259241
0.000271426
0.000684487
0.00104752
-8.49805
-4.50284
-1.70393
-0.149612
-1.31361
-3.90786
-1.26028
-0.108428
1.38389
-0.313309
-0.610711
0.117136
0.751978
0.338176
0.0924394
0.314362
1.01123
0.660286
0.469136
0.459664
1.02535
0.8457
0.64974
0.546007
0.97188
0.860113
0.697897
0.583379
0.854469
0.792737
0.682531
0.585866
0.734644
0.709865
0.64047
0.56634
0.633793
0.629344
0.587626
0.534376
0.54519
0.553257
0.531557
0.495993
0.465093
0.482671
0.475958
0.454799
0.392068
0.417692
0.422514
0.413035
0.324924
0.357919
0.372048
0.372121
0.263376
0.303152
0.325079
0.332984
0.208191
0.253392
0.28204
0.29627
0.159067
0.210361
0.243469
0.262452
0.118464
0.173034
0.20932
0.231882
0.0866487
0.141883
0.179716
0.204528
0.0631589
0.11675
0.154584
0.180459
0.0467998
0.097004
0.133589
0.159526
0.0359646
0.0817721
0.116225
0.141457
0.0290533
0.0701093
0.101919
0.125917
0.024752
0.0611465
0.0901085
0.112549
0.0221126
0.0541701
0.0802847
0.101003
0.0204983
0.0486329
0.0720197
0.0909637
0.0194875
0.0441274
0.0649664
0.0821556
0.0187982
0.040352
0.0588479
0.0743455
0.018245
0.0370846
0.0534453
0.067338
0.0177127
0.0341636
0.0485868
0.0609722
0.0171329
0.0314727
0.0441387
0.0551163
0.0164657
0.0289277
0.0399967
0.0496625
0.0156884
0.0264668
0.0360786
0.0445221
0.0147878
0.024043
0.0323178
0.0396208
0.0137545
0.0216183
0.0286589
0.0348945
0.0125787
0.0191592
0.0250532
0.0302869
0.0112474
0.0166339
0.0214566
0.0257469
0.00974324
0.0140109
0.0178279
0.0212279
0.00804317
0.0112573
0.0141278
0.0166867
0.00611848
0.00833854
0.0103177
0.012083
0.00393859
0.00522273
0.00636496
0.00738385
0.00144152
0.00184933
0.00220969
0.0025303
-0.106418
0.0473393
0.131139
0.176216
0.205228
0.225759
0.240878
0.251903
0.260273
0.266753
0.271813
0.275784
0.278899
0.281328
0.283196
0.284594
0.285593
0.286241
0.286562
0.00800026
0.100944
0.167845
0.206341
0.229534
0.245909
0.257213
0.265218
0.271067
0.275461
0.278809
0.281386
0.283376
0.284909
0.286077
0.286946
0.287563
0.287963
0.288162
0.180296
0.197988
0.229089
0.250239
0.263019
0.271094
0.276724
0.280551
0.283187
0.285061
0.286412
0.287398
0.288123
0.288658
0.28905
0.289333
0.289529
0.289657
0.289724
0.31716
0.296591
0.296623
0.299373
0.298831
0.298068
0.297355
0.296531
0.295662
0.294826
0.294056
0.29337
0.292775
0.292273
0.291861
0.291537
0.291298
0.291146
0.291076
0.414137
0.376184
0.355571
0.342472
0.331743
0.323344
0.316827
0.311623
0.3074
0.303955
0.301135
0.298829
0.296953
0.295444
0.29425
0.293337
0.292676
0.292252
0.292049
0.47827
0.432392
0.400167
0.376801
0.358606
0.344409
0.333297
0.324481
0.31741
0.311701
0.307076
0.303326
0.3003
0.297879
0.295975
0.294523
0.293476
0.292803
0.292479
0.511881
0.464835
0.428314
0.399998
0.377565
0.35974
0.345534
0.334136
0.324933
0.317471
0.311408
0.306486
0.302509
0.299326
0.296822
0.294913
0.293535
0.292648
0.292219
0.520767
0.477274
0.441354
0.412074
0.388203
0.368771
0.352953
0.340052
0.329506
0.320871
0.313804
0.308034
0.303351
0.29959
0.296623
0.294356
0.292719
0.291662
0.29115
0.512052
0.474559
0.442012
0.41435
0.391101
0.37168
0.355518
0.342092
0.330952
0.32172
0.314091
0.307812
0.302683
0.298542
0.295263
0.292749
0.290929
0.289753
0.289181
0.491758
0.461056
0.433211
0.408646
0.387362
0.369112
0.353577
0.340423
0.329332
0.320018
0.312235
0.30577
0.300447
0.296121
0.292679
0.290031
0.288109
0.286863
0.286255
0.464262
0.44028
0.417583
0.396821
0.378268
0.361932
0.347704
0.335417
0.324882
0.315909
0.308319
0.301949
0.296659
0.292329
0.288865
0.286189
0.284239
0.282972
0.282352
0.432675
0.414928
0.39731
0.380553
0.365079
0.35107
0.338572
0.327557
0.317945
0.309634
0.302511
0.296467
0.291399
0.287221
0.283858
0.281247
0.279338
0.278093
0.277482
0.399176
0.387001
0.374117
0.361262
0.348933
0.337415
0.326869
0.317366
0.308915
0.301487
0.295033
0.289489
0.284796
0.280895
0.277733
0.275266
0.273454
0.272268
0.271685
0.365273
0.357957
0.34933
0.340105
0.330803
0.321773
0.313244
0.305361
0.2982
0.291792
0.286136
0.281217
0.277007
0.273476
0.270594
0.268331
0.266661
0.265565
0.265025
0.332013
0.328857
0.32396
0.317999
0.311498
0.304833
0.298279
0.292024
0.286196
0.280868
0.276085
0.271863
0.268206
0.265109
0.26256
0.260545
0.259051
0.258066
0.25758
0.300138
0.300472
0.298767
0.295663
0.291671
0.287176
0.282474
0.277785
0.273265
0.269024
0.265135
0.261643
0.258576
0.255947
0.253763
0.252024
0.250727
0.249869
0.249445
0.270176
0.273361
0.274314
0.273643
0.271835
0.26927
0.266251
0.263013
0.259731
0.256538
0.253526
0.250762
0.24829
0.246142
0.244337
0.242887
0.241798
0.241075
0.240716
0.242481
0.247908
0.251003
0.252343
0.252384
0.251487
0.249952
0.24802
0.245874
0.243656
0.241474
0.239408
0.237516
0.23584
0.234411
0.233251
0.232372
0.231786
0.231494
0.217286
0.224356
0.229103
0.232053
0.233607
0.234109
0.233849
0.23306
0.231925
0.230588
0.229167
0.22775
0.226403
0.225176
0.224109
0.22323
0.222556
0.222103
0.221877
0.194564
0.202789
0.208763
0.212949
0.215699
0.21734
0.218147
0.218331
0.21807
0.217503
0.216763
0.215934
0.215085
0.214275
0.213545
0.212928
0.212448
0.212121
0.211959
0.174303
0.183242
0.190047
0.195117
0.198777
0.201321
0.202989
0.203977
0.204461
0.204529
0.204393
0.204083
0.203679
0.203242
0.202818
0.202441
0.202138
0.201928
0.201827
0.156372
0.165645
0.172941
0.178602
0.182915
0.186131
0.188461
0.190087
0.191164
0.191816
0.192169
0.192299
0.19228
0.192169
0.192016
0.191853
0.191707
0.191595
0.191566
0.140556
0.149863
0.157375
0.163381
0.168121
0.171808
0.174627
0.176742
0.178293
0.179397
0.180158
0.180658
0.180966
0.181136
0.181214
0.181235
0.181227
0.181196
0.181241
0.126615
0.135729
0.14324
0.149386
0.154361
0.158348
0.161505
0.163976
0.165885
0.167337
0.168424
0.169223
0.169798
0.1702
0.170472
0.170648
0.170758
0.170806
0.170895
0.114303
0.123059
0.130403
0.136524
0.141581
0.145724
0.149089
0.151799
0.15396
0.155668
0.157004
0.158035
0.15882
0.159408
0.159838
0.160143
0.16035
0.160468
0.160582
0.103379
0.111668
0.118722
0.124693
0.129708
0.13389
0.137353
0.140201
0.142525
0.144407
0.145919
0.147121
0.148064
0.148795
0.149348
0.149757
0.150044
0.150219
0.150348
0.0936257
0.101375
0.108054
0.113782
0.11866
0.122788
0.126259
0.129159
0.131568
0.133553
0.135178
0.136494
0.13755
0.138384
0.139031
0.139518
0.139867
0.140086
0.140225
0.0848489
0.0920186
0.0982658
0.103685
0.108354
0.112353
0.115759
0.118643
0.121069
0.123097
0.124778
0.126161
0.127287
0.12819
0.128902
0.129445
0.129838
0.130089
0.130233
0.0768803
0.083452
0.0892332
0.0942972
0.0987049
0.10252
0.105803
0.108612
0.111001
0.113019
0.114711
0.116119
0.117278
0.11822
0.118971
0.11955
0.119971
0.120242
0.120386
0.0695763
0.0755476
0.0808447
0.0855246
0.0896338
0.0932219
0.096337
0.0990258
0.101332
0.103298
0.104962
0.106359
0.107521
0.108475
0.10924
0.109835
0.110269
0.11055
0.11069
0.0628156
0.0681947
0.0730015
0.0772798
0.0810647
0.0843946
0.087307
0.0898392
0.0920276
0.0939071
0.0955106
0.0968683
0.0980064
0.0989469
0.0997071
0.1003
0.100734
0.101014
0.101146
0.0564962
0.0612978
0.0656159
0.0694839
0.0729279
0.075977
0.0786608
0.081009
0.0830517
0.0848179
0.0863352
0.0876288
0.0887202
0.0896271
0.090363
0.0909381
0.0913597
0.0916327
0.0917546
0.0505314
0.0547742
0.0586104
0.0620654
0.0651584
0.0679117
0.0703483
0.0724923
0.0743682
0.0760001
0.0774107
0.0786202
0.0796458
0.0805012
0.0811972
0.0817418
0.0821413
0.0824003
0.0825099
0.0448466
0.048551
0.0519157
0.0549595
0.0576969
0.060145
0.0623219
0.0642474
0.0659412
0.067423
0.0687105
0.0698198
0.0707638
0.0715532
0.0721965
0.0727001
0.0730697
0.0733098
0.0734059
0.0393764
0.0425635
0.0454689
0.0481069
0.0504885
0.0526269
0.0545371
0.0562347
0.0577357
0.0590553
0.0602073
0.0612034
0.0620535
0.0627655
0.0633461
0.0638008
0.0641346
0.0643522
0.0644337
0.0340621
0.036753
0.0392131
0.0414535
0.0434826
0.0453114
0.0469517
0.0484162
0.0497173
0.0508664
0.0518734
0.0527466
0.0534933
0.0541193
0.05463
0.0550301
0.055324
0.0555164
0.0555826
0.0288504
0.0310662
0.0330965
0.0349498
0.0366333
0.0381558
0.0395268
0.0407563
0.0418535
0.0428263
0.0436816
0.044425
0.0450615
0.0455955
0.0460313
0.0463729
0.046624
0.0467894
0.0468397
0.0236929
0.0254548
0.0270719
0.0285511
0.0298983
0.0311208
0.0322259
0.0332211
0.0341128
0.0349062
0.0356055
0.0362145
0.0367363
0.0371745
0.0375322
0.0378128
0.0380193
0.0381564
0.0381905
0.0185455
0.019875
0.0210969
0.0222168
0.0232394
0.0241703
0.0250151
0.0257787
0.0264654
0.0270781
0.0276194
0.0280914
0.0284963
0.0288364
0.0291143
0.0293326
0.0294933
0.0296015
0.0296194
0.0133675
0.0142866
0.0151325
0.0159092
0.0166203
0.0172698
0.0178613
0.0183978
0.0188818
0.0193146
0.0196977
0.0200322
0.0203193
0.0205607
0.0207581
0.0209133
0.0210278
0.0211071
0.0211096
0.00812665
0.00865795
0.00914765
0.0095982
0.0100118
0.0103908
0.0107371
0.0110521
0.011337
0.0115924
0.0118187
0.0120164
0.0121863
0.0123293
0.0124464
0.0125385
0.0126066
0.0126578
0.0126467
0.00276423
0.00293135
0.0030857
0.0032281
0.00335932
0.00348006
0.00359089
0.00369218
0.00378409
0.00386673
0.00394012
0.00400439
0.00405971
0.00410635
0.00414461
0.00417483
0.00419689
0.00421574
0.00420669
)
;

boundaryField
{
    leftWall
    {
        type            fixedFluxPressure;
        gradient        uniform 0;
        value           nonuniform List<scalar> 
50
(
2276.26
2275.78
2274.82
2273.4
2271.54
2269.26
2266.58
2263.55
2258.43
2250.63
2242.54
2234.81
2228.04
2222.8
2219.65
2219.06
2221.06
2225.87
2234.34
2245.06
2256.1
2270.68
1428.69
28.6129
-0.896542
-0.869992
-0.827197
-0.776814
-0.722341
-0.665092
-0.607128
-0.550974
-0.497463
-0.447301
-0.400883
-0.358257
-0.319366
-0.284083
-0.25224
-0.223577
-0.197742
-0.174357
-0.153084
-0.133627
-0.115665
-0.0989131
-0.0833634
-0.0690391
-0.0554487
-0.0419
)
;
    }
    rightWall
    {
        type            fixedFluxPressure;
        gradient        uniform 0;
        value           nonuniform List<scalar> 
50
(
0.282597
0.282746
0.282981
0.283312
0.283737
0.284245
0.284829
0.285475
0.286562
0.288162
0.289724
0.291076
0.292049
0.292479
0.292219
0.29115
0.289181
0.286255
0.282352
0.277482
0.271685
0.265025
0.25758
0.249445
0.240716
0.231494
0.221877
0.211959
0.201827
0.191566
0.181241
0.170895
0.160582
0.150348
0.140225
0.130233
0.120386
0.11069
0.101146
0.0917546
0.0825099
0.0734059
0.0644337
0.0555826
0.0468397
0.0381905
0.0296194
0.0211096
0.0126467
0.00420669
)
;
    }
    lowerWall
    {
        type            fixedFluxPressure;
        gradient        uniform 0;
        value           nonuniform List<scalar> 
62
(
2276.26
2275.34
2262.85
2241.52
2213.06
2176.95
2132.18
2077.86
2012.94
1936.37
1846.93
1743.27
1624.57
1490.98
1343.7
1185.45
1022.9
873.922
780.439
806.263
1031.37
1486.56
1987.58
1987.58
1918.66
1561.24
899.124
378.038
129.77
30.6539
13.531
-8.49805
-4.50284
-1.70393
-0.149612
0.110545
0.107624
0.101678
0.0925318
0.0778123
0.0556212
0.0288194
-0.0146177
0.110545
0.126563
0.143035
0.162068
0.181033
0.198637
0.214327
0.227951
0.239513
0.249201
0.257226
0.263788
0.269093
0.273311
0.276596
0.279079
0.280863
0.282022
0.282597
)
;
    }
    atmosphere
    {
        type            totalPressure;
        rho             rho;
        psi             none;
        gamma           1;
        p0              uniform 0;
        value           nonuniform List<scalar> 
46
(
-0.0347463
-0.0347619
-0.0338271
-0.0324344
-0.0306284
-0.028466
-0.0260121
-0.0233394
-0.0205263
-0.0176547
-0.0148065
-0.0120607
-0.00948973
-0.00715647
-0.00511175
-0.00339276
-0.0020223
-0.00100933
-0.000350681
-3.49143e-05
0
0
0
0
0
0
0
0
0
0
0
0
0
0
0
0
0
0
0
0
0
0
0
0
0
0
)
;
    }
    defaultFaces
    {
        type            empty;
    }
}


// ************************************************************************* //
