/*--------------------------------*- C++ -*----------------------------------*\
| =========                 |                                                 |
| \\      /  F ield         | OpenFOAM: The Open Source CFD Toolbox           |
|  \\    /   O peration     | Version:  2206                                  |
|   \\  /    A nd           | Website:  www.openfoam.com                      |
|    \\/     M anipulation  |                                                 |
\*---------------------------------------------------------------------------*/
FoamFile
{
    version     2.0;
    format      ascii;
    arch        "LSB;label=32;scalar=64";
    class       surfaceScalarField;
    location    "0.125";
    object      phi;
}
// * * * * * * * * * * * * * * * * * * * * * * * * * * * * * * * * * * * * * //

dimensions      [0 3 -1 0 0 0 0];

oriented        oriented;

internalField   nonuniform List<scalar> 
4432
(
4.82845e-06
-4.82845e-06
1.14163e-05
-6.58787e-06
1.77875e-05
-6.37117e-06
2.3994e-05
-6.20654e-06
3.03084e-05
-6.31432e-06
3.68663e-05
-6.55795e-06
4.37379e-05
-6.87164e-06
5.09672e-05
-7.22922e-06
5.86142e-05
-7.64703e-06
6.67257e-05
-8.11148e-06
7.53495e-05
-8.62385e-06
8.45048e-05
-9.15525e-06
9.41576e-05
-9.65286e-06
0.000104313
-1.01554e-05
0.000115076
-1.0763e-05
0.000126356
-1.12804e-05
0.000137242
-1.08859e-05
0.000145554
-8.31189e-06
0.000148235
-2.68092e-06
0.000141584
6.65148e-06
0.000119576
2.20078e-05
7.01998e-05
4.9376e-05
7.01998e-05
4.85615e-06
-9.68463e-06
1.14249e-05
-1.31566e-05
1.77984e-05
-1.27447e-05
2.40124e-05
-1.24206e-05
3.03281e-05
-1.263e-05
3.68856e-05
-1.31154e-05
4.37541e-05
-1.37402e-05
5.09818e-05
-1.44569e-05
5.86262e-05
-1.52914e-05
6.67282e-05
-1.62135e-05
7.53424e-05
-1.7238e-05
8.45195e-05
-1.83323e-05
9.42288e-05
-1.93622e-05
0.000104421
-2.03473e-05
0.000115126
-2.1468e-05
0.000126247
-2.24016e-05
0.000137038
-2.16772e-05
0.000146132
-1.74057e-05
0.000152356
-8.90489e-06
0.000155124
3.88337e-06
0.000151575
2.55565e-05
0.000117058
8.38933e-05
0.000187258
4.86582e-06
-1.45505e-05
1.13901e-05
-1.96808e-05
1.77263e-05
-1.9081e-05
2.39139e-05
-1.86081e-05
3.0203e-05
-1.89191e-05
3.67326e-05
-1.9645e-05
4.35708e-05
-2.05784e-05
5.07682e-05
-2.16542e-05
5.83814e-05
-2.29046e-05
6.64499e-05
-2.42821e-05
7.504e-05
-2.58281e-05
8.42219e-05
-2.75142e-05
9.39658e-05
-2.91062e-05
0.000104206
-3.05878e-05
0.000114966
-3.22281e-05
0.000126166
-3.36007e-05
0.000137154
-3.26652e-05
0.000146769
-2.7021e-05
0.00015473
-1.68658e-05
0.000161042
-2.42869e-06
0.000159912
2.66863e-05
0.000124805
0.000119
0.000312063
4.87326e-06
-1.94237e-05
1.13422e-05
-2.61497e-05
1.76233e-05
-2.53621e-05
2.37692e-05
-2.47541e-05
3.00209e-05
-2.51708e-05
3.65126e-05
-2.61367e-05
4.33108e-05
-2.73766e-05
5.04676e-05
-2.8811e-05
5.80406e-05
-3.04777e-05
6.60725e-05
-3.23141e-05
7.46418e-05
-3.43974e-05
8.38277e-05
-3.67001e-05
9.36086e-05
-3.88871e-05
0.000103957
-4.09363e-05
0.000114927
-4.31981e-05
0.000126428
-4.51011e-05
0.000137954
-4.41921e-05
0.000148705
-3.77715e-05
0.000158468
-2.66288e-05
0.000167977
-1.19376e-05
0.000166138
2.85247e-05
0.00011976
0.000165378
0.000431823
4.87836e-06
-2.43021e-05
1.12803e-05
-3.25517e-05
1.74909e-05
-3.15727e-05
2.35822e-05
-3.08454e-05
2.97872e-05
-3.13758e-05
3.62336e-05
-3.25832e-05
4.2985e-05
-3.41279e-05
5.00958e-05
-3.59217e-05
5.76252e-05
-3.80071e-05
6.56211e-05
-4.03099e-05
7.41761e-05
-4.29524e-05
8.33755e-05
-4.58995e-05
9.32191e-05
-4.87306e-05
0.000103747
-5.14638e-05
0.000115015
-5.44662e-05
0.000126892
-5.69781e-05
0.000139179
-5.64792e-05
0.000151809
-5.04014e-05
0.000164308
-3.91284e-05
0.000173988
-2.1617e-05
0.000165063
3.74494e-05
0.000112779
0.000217662
0.000544602
4.88523e-06
-2.91873e-05
1.12078e-05
-3.88742e-05
1.73338e-05
-3.76987e-05
2.33609e-05
-3.68726e-05
2.95137e-05
-3.75286e-05
3.59104e-05
-3.89798e-05
4.2611e-05
-4.08285e-05
4.96717e-05
-4.29824e-05
5.71543e-05
-4.54898e-05
6.51125e-05
-4.82681e-05
7.36499e-05
-5.14898e-05
8.28491e-05
-5.50988e-05
9.27471e-05
-5.86286e-05
0.000103471
-6.21879e-05
0.000115043
-6.60384e-05
0.000127356
-6.92905e-05
0.000140904
-7.00276e-05
0.000156049
-6.55466e-05
0.000170775
-5.38541e-05
0.000176447
-2.72886e-05
0.000159407
5.44896e-05
0.000116218
0.000260851
0.00066082
4.89883e-06
-3.40861e-05
1.1123e-05
-4.50984e-05
1.7149e-05
-4.37247e-05
2.31028e-05
-4.28263e-05
2.91961e-05
-4.36219e-05
3.55343e-05
-4.5318e-05
4.21737e-05
-4.74679e-05
4.91706e-05
-4.99793e-05
5.65898e-05
-5.2909e-05
6.44918e-05
-5.61701e-05
7.29879e-05
-5.99859e-05
8.2146e-05
-6.42568e-05
9.20457e-05
-6.85283e-05
0.000102903
-7.30449e-05
0.000114714
-7.78493e-05
0.000127581
-8.21583e-05
0.000142812
-8.52581e-05
0.000160399
-8.31332e-05
0.000174048
-6.75031e-05
0.00017111
-2.43507e-05
0.000149779
7.58206e-05
7.95505e-05
0.000331079
0.00074037
4.91525e-06
-3.90014e-05
1.1013e-05
-5.11961e-05
1.6926e-05
-4.96377e-05
2.27935e-05
-4.86939e-05
2.8812e-05
-4.96404e-05
3.50738e-05
-5.15799e-05
4.16309e-05
-5.4025e-05
4.85409e-05
-5.68892e-05
5.58688e-05
-6.0237e-05
6.36827e-05
-6.3984e-05
7.21012e-05
-6.84044e-05
8.11798e-05
-7.33354e-05
9.10289e-05
-7.83774e-05
0.000101908
-8.3924e-05
0.000113867
-8.98081e-05
0.00012735
-9.56418e-05
0.000143827
-0.000101735
0.000162982
-0.000102288
0.00016535
-6.98709e-05
0.000150032
-9.03342e-06
0.000111326
0.000114527
3.69416e-05
0.000405464
0.000777312
3.48255e-07
-3.48255e-07
2.16489e-06
-1.81656e-06
3.95757e-06
-1.79262e-06
5.37212e-06
-1.41451e-06
6.33207e-06
-9.59936e-07
6.87132e-06
-5.39231e-07
7.05855e-06
-1.87242e-07
6.9706e-06
8.79534e-08
6.68854e-06
2.8208e-07
6.26641e-06
4.22083e-07
5.74046e-06
5.25905e-07
5.13764e-06
6.02776e-07
4.47842e-06
6.59252e-07
3.77819e-06
7.00287e-07
3.04859e-06
7.2964e-07
2.29849e-06
7.50082e-07
1.53489e-06
7.63534e-07
7.64226e-07
7.70584e-07
7.64182e-07
2.95305e-07
-6.43482e-07
2.33439e-06
-3.85555e-06
4.34798e-06
-3.80614e-06
5.89958e-06
-2.96607e-06
6.92299e-06
-1.98334e-06
7.49897e-06
-1.1152e-06
7.72624e-06
-4.14514e-07
7.68362e-06
1.30532e-07
7.41463e-06
5.51018e-07
6.97114e-06
8.6551e-07
6.39929e-06
1.09778e-06
5.73409e-06
1.26803e-06
5.00156e-06
1.39185e-06
4.22092e-06
1.48096e-06
3.40637e-06
1.54413e-06
2.56849e-06
1.58785e-06
1.71518e-06
1.61673e-06
8.51988e-07
1.63371e-06
1.61614e-06
1.70647e-08
-6.60486e-07
2.20638e-06
-6.0448e-06
4.48192e-06
-6.08164e-06
6.13612e-06
-4.62024e-06
7.15601e-06
-3.00323e-06
7.68784e-06
-1.64705e-06
7.85388e-06
-5.80573e-07
7.74223e-06
2.42171e-07
7.42234e-06
8.70945e-07
6.94758e-06
1.34025e-06
6.35856e-06
1.68683e-06
5.68587e-06
1.94073e-06
4.9525e-06
2.12523e-06
4.17552e-06
2.25794e-06
3.36757e-06
2.35202e-06
2.53816e-06
2.41719e-06
1.69445e-06
2.46038e-06
8.41846e-07
2.48626e-06
2.45796e-06
-7.08178e-07
4.77354e-08
1.88803e-06
-8.64096e-06
4.70706e-06
-8.90063e-06
6.5268e-06
-6.43998e-06
7.5171e-06
-3.99353e-06
7.97779e-06
-2.10775e-06
8.07456e-06
-6.77335e-07
7.90228e-06
4.14428e-07
7.53392e-06
1.2393e-06
7.023e-06
1.85115e-06
6.40807e-06
2.30177e-06
5.71741e-06
2.63141e-06
4.97187e-06
2.87077e-06
4.18688e-06
3.0429e-06
3.3739e-06
3.16497e-06
2.54147e-06
3.24957e-06
1.69609e-06
3.30573e-06
8.42761e-07
3.33955e-06
3.3007e-06
-1.99492e-06
2.04269e-06
1.32619e-06
-1.1962e-05
5.0619e-06
-1.26363e-05
7.11639e-06
-8.49445e-06
8.02946e-06
-4.9066e-06
8.37231e-06
-2.45061e-06
8.37199e-06
-6.77016e-07
8.1229e-06
6.63515e-07
7.69577e-06
1.66644e-06
7.1408e-06
2.4061e-06
6.49324e-06
2.94929e-06
5.77861e-06
3.34602e-06
5.01553e-06
3.63381e-06
4.21774e-06
3.84069e-06
3.39532e-06
3.98737e-06
2.55582e-06
4.08906e-06
1.70493e-06
4.15659e-06
8.47069e-07
4.19736e-06
4.14774e-06
-2.36574e-06
4.40845e-06
1.45722e-06
-1.5785e-05
5.76285e-06
-1.69419e-05
7.94303e-06
-1.06746e-05
8.70496e-06
-5.6685e-06
8.87103e-06
-2.61664e-06
8.73806e-06
-5.43995e-07
8.39201e-06
1.0096e-06
7.89254e-06
2.16593e-06
7.28394e-06
3.01466e-06
6.59688e-06
3.6363e-06
5.85326e-06
4.0896e-06
5.06896e-06
4.41809e-06
4.25558e-06
4.65407e-06
3.42164e-06
4.82132e-06
2.57345e-06
4.93724e-06
1.71579e-06
5.01422e-06
8.52306e-07
5.0608e-06
5.00003e-06
1.98446e-06
2.424e-06
4.61815e-06
-1.84186e-05
7.4386e-06
-1.97624e-05
9.05076e-06
-1.22867e-05
9.52511e-06
-6.14282e-06
9.4644e-06
-2.5559e-06
9.16603e-06
-2.45573e-07
8.70324e-06
1.4724e-06
8.11894e-06
2.75023e-06
7.44824e-06
3.68533e-06
6.71575e-06
4.36875e-06
5.93887e-06
4.86646e-06
5.1302e-06
5.22675e-06
4.29893e-06
5.48534e-06
3.45174e-06
5.6685e-06
2.5936e-06
5.79537e-06
1.7282e-06
5.8796e-06
8.58284e-07
5.93069e-06
5.85831e-06
9.58795e-06
-7.16395e-06
1.07955e-05
-1.96262e-05
1.03126e-05
-1.92795e-05
1.04724e-05
-1.24464e-05
1.04495e-05
-6.11994e-06
1.0125e-05
-2.23138e-06
9.64151e-06
2.37877e-07
9.0476e-06
2.06628e-06
8.36947e-06
3.42832e-06
7.63002e-06
4.42474e-06
6.84722e-06
5.15152e-06
6.03355e-06
5.68012e-06
5.19794e-06
6.06235e-06
4.34685e-06
6.33641e-06
3.48501e-06
6.53034e-06
2.61584e-06
6.66454e-06
1.74191e-06
6.75353e-06
8.64918e-07
6.80769e-06
6.72325e-06
1.03494e-05
-4.93508e-05
2.29782e-05
-6.3825e-05
3.50872e-05
-6.17467e-05
4.71931e-05
-6.07998e-05
5.96702e-05
-6.21174e-05
7.26486e-05
-6.45583e-05
8.62314e-05
-6.76079e-05
0.000100533
-7.11909e-05
0.000115707
-7.54107e-05
0.000131904
-8.01808e-05
0.00014939
-8.58904e-05
0.000168275
-9.22206e-05
0.000188811
-9.89132e-05
0.000211696
-0.00010681
0.000238299
-0.000116411
0.000269559
-0.000126902
0.000302628
-0.000134804
0.000314002
-0.000113661
0.00027557
-3.14392e-05
0.000203157
6.33791e-05
0.000104954
0.00021273
5.27077e-05
0.00045771
0.000662323
0.000167696
1.02318e-05
-5.95826e-05
2.21682e-05
-7.57613e-05
3.36285e-05
-7.3207e-05
4.5188e-05
-7.23592e-05
5.71419e-05
-7.40713e-05
6.9574e-05
-7.69905e-05
8.2569e-05
-8.06029e-05
9.62447e-05
-8.48666e-05
0.000110749
-8.99147e-05
0.000126235
-9.56667e-05
0.000142974
-0.00010263
0.000161062
-0.000110308
0.000180806
-0.000118657
0.000203083
-0.000129087
0.00022998
-0.000143308
0.000261011
-0.000157932
0.000279327
-0.00015312
0.000251192
-8.55264e-05
0.000183483
3.62699e-05
0.000104508
0.000142355
4.70893e-05
0.000270149
9.27324e-05
0.000412067
0.000548922
0.000206134
1.00279e-05
-6.96105e-05
2.11711e-05
-8.69046e-05
3.18917e-05
-8.39276e-05
4.28208e-05
-8.32883e-05
5.41498e-05
-8.54003e-05
6.59149e-05
-8.87556e-05
7.81883e-05
-9.28763e-05
9.10843e-05
-9.77625e-05
0.000104738
-0.000103569
0.000119288
-0.000110216
0.000135002
-0.000118344
0.000151887
-0.000127193
0.000170236
-0.000137006
0.000191557
-0.000150408
0.000217056
-0.000168808
0.000242673
-0.000183549
0.000226175
-0.000136622
0.000162552
-2.19032e-05
8.74709e-05
0.000111351
3.95286e-05
0.000190297
4.09329e-05
0.000268744
0.00012334
0.000329659
0.00046195
0.000210312
9.71862e-06
-7.93291e-05
1.99848e-05
-9.71708e-05
2.9909e-05
-9.38518e-05
4.01324e-05
-9.35118e-05
5.07396e-05
-9.60075e-05
6.17276e-05
-9.97436e-05
7.31594e-05
-0.000104308
8.51403e-05
-0.000109743
9.77847e-05
-0.000116213
0.000111207
-0.000123638
0.000125658
-0.000132795
0.000140971
-0.000142507
0.000157625
-0.00015366
0.000178023
-0.000170805
0.000201435
-0.00019222
0.000203548
-0.000185662
0.000156206
-8.92805e-05
7.0996e-05
6.33065e-05
1.86583e-05
0.000163688
3.83894e-06
0.000205117
3.11017e-05
0.000241482
0.000105765
0.000254996
0.000378825
0.00018889
9.30476e-06
-8.86339e-05
1.86249e-05
-0.000106491
2.77116e-05
-0.000102938
3.71634e-05
-0.000102964
4.69621e-05
-0.000105806
5.70778e-05
-0.000109859
6.75659e-05
-0.000114796
7.85182e-05
-0.000120696
9.00206e-05
-0.000127716
0.000102169
-0.000135787
0.000115164
-0.00014579
0.000128655
-0.000155998
0.000143534
-0.00016854
0.000161355
-0.000188626
0.000177328
-0.000208192
0.000154677
-0.000163012
7.50389e-05
-9.64197e-06
7.28839e-06
0.000131057
-1.19857e-05
0.000182962
-6.56395e-06
0.000199696
1.96005e-05
0.000215317
6.49996e-05
0.000209597
0.000302302
0.000141523
8.7897e-06
-9.74236e-05
1.71128e-05
-0.000114814
2.53332e-05
-0.000111159
3.3956e-05
-0.000111586
4.28722e-05
-0.000114722
5.20372e-05
-0.000119024
6.14994e-05
-0.000124259
7.13334e-05
-0.00013053
8.15947e-05
-0.000137977
9.23651e-05
-0.000146557
0.000103769
-0.000157194
0.000115389
-0.000167617
0.000128789
-0.00018194
0.000143686
-0.000203523
0.000146398
-0.000210904
9.66445e-05
-0.000113258
1.29325e-05
7.40705e-05
-2.00501e-05
0.00016404
-1.72818e-05
0.000180194
-4.82775e-06
0.000187241
1.47044e-05
0.000195785
3.61585e-05
0.000188143
0.000240517
9.79437e-05
8.17571e-06
-0.000105599
1.54745e-05
-0.000122113
2.28101e-05
-0.000118494
3.05558e-05
-0.000119332
3.853e-05
-0.000122697
4.66837e-05
-0.000127178
5.50583e-05
-0.000132633
6.37102e-05
-0.000139181
7.26671e-05
-0.000146934
8.20018e-05
-0.000155892
9.17381e-05
-0.000166931
0.000101459
-0.000177338
0.000113004
-0.000193485
0.00012461
-0.000215129
0.000110638
-0.000196932
3.33711e-05
-3.59914e-05
-2.28022e-05
0.000130244
-2.38948e-05
0.000165133
-1.31691e-05
0.000169468
-8.82227e-08
0.000174161
1.57463e-05
0.00017995
2.83913e-05
0.000175498
0.000196572
7.23364e-05
7.47695e-06
-0.000113076
1.37412e-05
-0.000128377
2.01808e-05
-0.000124934
2.70104e-05
-0.000126162
3.39981e-05
-0.000129684
4.10974e-05
-0.000134277
4.83419e-05
-0.000139878
5.57719e-05
-0.000146611
6.33952e-05
-0.000154557
7.12888e-05
-0.000163785
7.93742e-05
-0.000175016
8.73028e-05
-0.000185267
9.6668e-05
-0.00020285
0.000102783
-0.000221244
7.22659e-05
-0.000166414
-6.59868e-06
4.28731e-05
-2.95628e-05
0.000153208
-1.79599e-05
0.00015353
-7.26347e-06
0.000158772
4.66692e-06
0.00016223
1.85596e-05
0.000166058
3.04807e-05
0.000163576
0.000168366
5.86871e-05
6.71178e-06
-0.000119788
1.19442e-05
-0.00013361
1.74827e-05
-0.000130472
2.33684e-05
-0.000132047
2.93404e-05
-0.000135656
3.5359e-05
-0.000140296
4.14494e-05
-0.000145968
4.76375e-05
-0.0001528
5.39225e-05
-0.000160842
6.03901e-05
-0.000170253
6.68392e-05
-0.000181465
7.32295e-05
-0.000191657
8.1046e-05
-0.000210666
8.37522e-05
-0.000223951
3.08916e-05
-0.000113554
-2.831e-05
0.000102075
-2.39638e-05
0.000148861
-1.17373e-05
0.000141303
-2.34552e-06
0.00014938
7.85324e-06
0.000152032
1.97177e-05
0.000154193
3.10757e-05
0.000152219
0.000150646
4.87949e-05
5.89796e-06
-0.000125686
1.01222e-05
-0.000137834
1.47667e-05
-0.000135117
1.9698e-05
-0.000136979
2.46492e-05
-0.000140607
2.95865e-05
-0.000145233
3.45242e-05
-0.000150906
3.94674e-05
-0.000157743
4.44098e-05
-0.000165785
4.93758e-05
-0.000175219
5.39343e-05
-0.000186024
5.87387e-05
-0.000196462
6.49086e-05
-0.000216836
5.90945e-05
-0.000218137
-1.10523e-05
-4.34071e-05
-3.0957e-05
0.00012198
-1.44334e-05
0.000132338
-6.58307e-06
0.000133453
1.53202e-06
0.000141265
9.58855e-06
0.000143975
1.88272e-05
0.000144955
2.82873e-05
0.000142758
0.000138946
3.99875e-05
5.0748e-06
-0.000130761
8.34501e-06
-0.000141104
1.2128e-05
-0.0001389
1.61285e-05
-0.000140979
2.00907e-05
-0.00014457
2.39795e-05
-0.000149122
2.77834e-05
-0.00015471
3.14634e-05
-0.000161423
3.49806e-05
-0.000169302
3.81352e-05
-0.000178374
4.02421e-05
-0.000188131
4.30905e-05
-0.00019931
4.48305e-05
-0.000218576
1.36386e-05
-0.000186945
-3.37887e-05
4.02005e-06
-2.23902e-05
0.000110581
-5.08887e-06
0.000115036
-1.1283e-06
0.000129492
4.78659e-06
0.00013535
1.03169e-05
0.000138445
1.68315e-05
0.00013844
2.39381e-05
0.000135652
0.000130903
3.19808e-05
4.29893e-06
-0.00013506
6.66338e-06
-0.000143469
9.63554e-06
-0.000141872
1.27451e-05
-0.000144089
1.57461e-05
-0.000147571
1.85842e-05
-0.00015196
2.11878e-05
-0.000157313
2.34588e-05
-0.000163694
2.52874e-05
-0.00017113
2.63446e-05
-0.000179431
2.61899e-05
-0.000187976
2.82476e-05
-0.000201368
2.37076e-05
-0.000214036
8.08453e-06
-0.000171322
-7.5315e-07
1.28575e-05
5.61062e-06
0.000104217
7.01029e-06
0.000113637
7.13365e-06
0.000129369
7.9534e-06
0.00013453
1.02908e-05
0.000136107
1.41495e-05
0.000134581
1.90172e-05
0.000130784
0.000125333
2.4587e-05
3.52343e-06
-0.000138583
4.95673e-06
-0.000144902
7.11591e-06
-0.000144031
9.30145e-06
-0.000146274
1.12588e-05
-0.000149528
1.29014e-05
-0.000153603
1.41021e-05
-0.000158514
1.47751e-05
-0.000164367
1.48581e-05
-0.000171213
1.48126e-05
-0.000179385
1.62153e-05
-0.000189379
2.39747e-05
-0.000209127
2.2562e-05
-0.000212624
3.94399e-05
-0.0001882
4.53921e-05
6.90539e-06
3.88607e-05
0.000110749
2.18455e-05
0.000130651
1.38987e-05
0.000137315
9.82029e-06
0.000138609
8.96555e-06
0.000136962
1.05083e-05
0.000133038
1.35666e-05
0.000127726
0.000121431
1.7469e-05
2.49756e-06
-0.000141081
2.91594e-06
-0.00014532
4.16039e-06
-0.000145276
5.30032e-06
-0.000147414
6.09487e-06
-0.000150323
6.49694e-06
-0.000154005
6.55274e-06
-0.00015857
6.49386e-06
-0.000164308
7.05899e-06
-0.000171779
1.0781e-05
-0.000183107
2.29083e-05
-0.000201506
4.08178e-05
-0.000227037
5.15427e-05
-0.000223348
5.86117e-05
-0.000195269
9.96806e-05
-3.41634e-05
6.80856e-05
0.000142344
3.33999e-05
0.000165337
1.70648e-05
0.00015365
8.66286e-06
0.000147011
5.36402e-06
0.000140261
5.37732e-06
0.000133025
7.31893e-06
0.000125784
0.000118465
1.02849e-05
9.91606e-07
-0.000142072
3.06543e-07
-0.000144635
4.64003e-07
-0.000145433
5.81626e-07
-0.000147532
5.29476e-07
-0.00015027
6.62001e-07
-0.000154137
1.81671e-06
-0.000159724
5.03343e-06
-0.000167525
1.40071e-05
-0.000180752
3.49436e-05
-0.000204044
7.20278e-05
-0.00023859
8.21301e-05
-0.000237139
7.70143e-05
-0.000218233
6.47768e-05
-0.000183031
0.000109099
-7.84861e-05
7.71561e-05
0.000174287
3.43125e-05
0.00020818
1.30216e-05
0.000174941
2.47792e-06
0.000157554
-1.33625e-06
0.000144075
-1.65939e-06
0.000133348
3.79459e-08
0.000124087
0.000115712
2.79123e-06
-6.95225e-07
-0.000141377
-2.9752e-06
-0.000142355
-3.65487e-06
-0.000144753
-3.16207e-06
-0.000148025
-1.814e-06
-0.000151619
2.43443e-06
-0.000158386
1.11583e-05
-0.000168448
2.49235e-05
-0.00018129
4.59654e-05
-0.000201794
7.33816e-05
-0.00023146
9.7275e-05
-0.000262484
0.000108551
-0.000248415
8.24499e-05
-0.000192132
5.21401e-05
-0.000152722
4.54149e-05
-7.1761e-05
4.34404e-05
0.000176261
1.36937e-05
0.000237927
-3.92483e-06
0.00019256
-1.0381e-05
0.00016401
-1.20182e-05
0.000145712
-1.09455e-05
0.000132276
-8.37476e-06
0.000121516
0.000112446
-5.10832e-06
-6.79268e-07
-0.000140698
-9.46678e-07
-0.000142088
-4.04947e-07
-0.000145295
5.01258e-07
-0.000148931
3.19701e-06
-0.000154314
7.14713e-06
-0.000162336
1.33127e-05
-0.000174614
2.24194e-05
-0.000190397
3.57458e-05
-0.00021512
5.53324e-05
-0.000251047
7.34404e-05
-0.000280592
8.60208e-05
-0.000260995
6.95319e-05
-0.000175643
2.25812e-05
-0.000105771
-7.25081e-06
-4.19289e-05
-2.47704e-05
0.000193781
-2.92197e-05
0.000242377
-2.98478e-05
0.000193188
-2.8609e-05
0.000162772
-2.57329e-05
0.000142836
-2.19051e-05
0.000128448
-1.76143e-05
0.000117225
0.000108068
-1.32363e-05
-1.33261e-06
-0.000139365
-2.01044e-06
-0.00014141
-2.91658e-06
-0.000144389
-3.48686e-06
-0.00014836
-3.57241e-06
-0.000154229
-3.21315e-06
-0.000162695
-3.00345e-06
-0.000174824
-1.96789e-06
-0.000191432
5.71649e-07
-0.00021766
4.41634e-06
-0.000254891
6.79066e-06
-0.000282966
5.84167e-06
-0.000260046
-7.37963e-06
-0.000162421
-3.87176e-05
-7.4433e-05
-9.22297e-05
1.15833e-05
-0.000103343
0.000204894
-7.89106e-05
0.000217945
-6.13831e-05
0.000175661
-4.98329e-05
0.000151221
-4.10354e-05
0.000134038
-3.3598e-05
0.000121011
-2.70774e-05
0.000110705
0.000102264
-2.1274e-05
-2.56633e-06
-0.000136799
-4.72061e-06
-0.000139256
-7.39576e-06
-0.000141714
-1.02255e-05
-0.000145531
-1.33994e-05
-0.000151055
-1.72403e-05
-0.000158854
-2.27176e-05
-0.000169347
-3.01789e-05
-0.000183971
-4.08394e-05
-0.000207
-5.54035e-05
-0.000240327
-7.29884e-05
-0.000265381
-9.14907e-05
-0.000241544
-9.75119e-05
-0.0001564
-0.000120797
-5.11484e-05
-0.000170622
6.14087e-05
-0.000159644
0.000193916
-0.000116511
0.000174811
-8.8036e-05
0.000147186
-6.90091e-05
0.000132194
-5.52057e-05
0.000120235
-4.45176e-05
0.000110323
-3.58986e-05
0.000102086
9.50776e-05
-2.8712e-05
-3.64821e-06
-0.00013315
-7.26554e-06
-0.000135639
-1.13518e-05
-0.000137627
-1.59809e-05
-0.000140902
-2.15106e-05
-0.000145525
-2.85475e-05
-0.000151817
-3.79852e-05
-0.000159909
-5.14967e-05
-0.000170459
-7.25389e-05
-0.000185957
-0.000104561
-0.000208305
-0.000144192
-0.00022575
-0.000178074
-0.000207662
-0.000199893
-0.000134581
-0.000226285
-2.47569e-05
-0.000241161
7.62851e-05
-0.000186504
0.000139258
-0.00013532
0.000123628
-0.000104409
0.000116275
-8.23613e-05
0.000110147
-6.59498e-05
0.000103824
-5.3297e-05
9.76699e-05
-4.32495e-05
9.20385e-05
8.6879e-05
-3.50507e-05
-4.59673e-06
-0.000128554
-9.44293e-06
-0.000130792
-1.47092e-05
-0.000132361
-2.0723e-05
-0.000134888
-2.79125e-05
-0.000138335
-3.69411e-05
-0.000142788
-4.86509e-05
-0.000148199
-6.46787e-05
-0.000154431
-8.89339e-05
-0.000161702
-0.00012669
-0.000170548
-0.00017738
-0.000175061
-0.000227598
-0.000157444
-0.000259281
-0.000102898
-0.000262919
-2.11183e-05
-0.000237158
5.05234e-05
-0.000180658
8.27587e-05
-0.000138567
8.15364e-05
-0.00011061
8.83184e-05
-8.90709e-05
8.8608e-05
-7.23992e-05
8.71523e-05
-5.92317e-05
8.45026e-05
-4.86274e-05
8.14344e-05
7.82015e-05
-3.99498e-05
-5.39728e-06
-0.000123157
-1.11138e-05
-0.000125076
-1.72728e-05
-0.000126202
-2.42523e-05
-0.000127908
-3.24485e-05
-0.000130139
-4.24394e-05
-0.000132798
-5.49143e-05
-0.000135723
-7.08942e-05
-0.000138451
-9.2467e-05
-0.000140129
-0.000123127
-0.000139888
-0.000163456
-0.000134731
-0.000204449
-0.000116451
-0.000229908
-7.74378e-05
-0.000226347
-2.468e-05
-0.000196794
2.09711e-05
-0.000158698
4.46626e-05
-0.000131531
5.43699e-05
-0.000108982
6.57689e-05
-9.02317e-05
6.98579e-05
-7.49092e-05
7.18299e-05
-6.23375e-05
7.19311e-05
-5.19422e-05
7.10392e-05
6.95555e-05
-4.32962e-05
-5.94886e-06
-0.000117207
-1.21886e-05
-0.000118836
-1.88807e-05
-0.00011951
-2.63415e-05
-0.000120447
-3.4921e-05
-0.000121559
-4.50533e-05
-0.000122665
-5.72711e-05
-0.000123506
-7.21647e-05
-0.000123558
-9.02978e-05
-0.000121996
-0.000112451
-0.000117735
-0.000138606
-0.000108576
-0.000164322
-9.07352e-05
-0.00017982
-6.19399e-05
-0.0001773
-2.71997e-05
-0.000158394
2.06503e-06
-0.000137127
2.33954e-05
-0.00012006
3.73037e-05
-0.00010288
4.85884e-05
-8.76566e-05
5.46346e-05
-7.44234e-05
5.85968e-05
-6.30838e-05
6.05915e-05
-5.34107e-05
6.13662e-05
6.13201e-05
-4.51753e-05
-6.27179e-06
-0.000110936
-1.27898e-05
-0.000112318
-1.97353e-05
-0.000112564
-2.73316e-05
-0.000112851
-3.58575e-05
-0.000113033
-4.5599e-05
-0.000112924
-5.6879e-05
-0.000112226
-6.99851e-05
-0.000110451
-8.50019e-05
-0.000106979
-0.000101695
-0.000101042
-0.000119131
-9.11407e-05
-0.000134639
-7.52273e-05
-0.000143519
-5.30596e-05
-0.000142345
-2.8374e-05
-0.000133677
-6.60291e-06
-0.000121092
1.08106e-05
-0.000108494
2.47057e-05
-9.52732e-05
3.53677e-05
-8.31008e-05
4.24621e-05
-7.19918e-05
4.74878e-05
-6.20986e-05
5.06982e-05
-5.33956e-05
5.26632e-05
5.37192e-05
-4.57947e-05
-6.36884e-06
-0.000104567
-1.29488e-05
-0.000105738
-1.98914e-05
-0.000105622
-2.73597e-05
-0.000105383
-3.55495e-05
-0.000104843
-4.46412e-05
-0.000103832
-5.47931e-05
-0.000102074
-6.60758e-05
-9.91686e-05
-7.84138e-05
-9.4641e-05
-9.14904e-05
-8.7965e-05
-0.0001043
-7.83307e-05
-0.000114716
-6.48118e-05
-0.000120166
-4.76097e-05
-0.000119597
-2.89425e-05
-0.000114571
-1.16288e-05
-0.000106854
3.09341e-06
-9.75636e-05
1.54148e-05
-8.74747e-05
2.52787e-05
-7.77028e-05
3.26901e-05
-6.84537e-05
3.82387e-05
-5.99578e-05
4.22022e-05
-5.22777e-05
4.4983e-05
4.68486e-05
-4.54072e-05
-6.29183e-06
-9.82751e-05
-1.27733e-05
-9.92564e-05
-1.95225e-05
-9.88727e-05
-2.66785e-05
-9.82266e-05
-3.43587e-05
-9.71634e-05
-4.26649e-05
-9.5526e-05
-5.16549e-05
-9.30838e-05
-6.12803e-05
-8.95432e-05
-7.13396e-05
-8.45818e-05
-8.14649e-05
-7.78397e-05
-9.09471e-05
-6.88485e-05
-9.84953e-05
-5.72636e-05
-0.000102615
-4.34899e-05
-0.000102709
-2.88487e-05
-9.95311e-05
-1.48065e-05
-9.41197e-05
-2.31797e-06
-8.73402e-05
8.63526e-06
-7.9716e-05
1.76545e-05
-7.1923e-05
2.48969e-05
-6.42878e-05
3.06035e-05
-5.70649e-05
3.49791e-05
-5.03705e-05
3.82886e-05
4.07271e-05
-4.4249e-05
-6.0755e-06
-9.21995e-05
-1.23225e-05
-9.30096e-05
-1.87524e-05
-9.2443e-05
-2.5477e-05
-9.15019e-05
-3.25601e-05
-9.00805e-05
-4.00451e-05
-8.80411e-05
-4.79238e-05
-8.52051e-05
-5.61031e-05
-8.1364e-05
-6.43837e-05
-7.63011e-05
-7.24289e-05
-6.97944e-05
-7.96617e-05
-6.16157e-05
-8.5246e-05
-5.16793e-05
-8.8402e-05
-4.03338e-05
-8.88545e-05
-2.83963e-05
-8.69001e-05
-1.67609e-05
-8.3182e-05
-6.03612e-06
-7.80856e-05
3.53885e-06
-7.22312e-05
1.18e-05
-6.60285e-05
1.86942e-05
-5.97694e-05
2.43442e-05
-5.36823e-05
2.8892e-05
-4.79056e-05
3.25118e-05
3.53349e-05
-4.25135e-05
-5.76404e-06
-8.64354e-05
-1.16702e-05
-8.71035e-05
-1.77019e-05
-8.64114e-05
-2.39287e-05
-8.52751e-05
-3.03828e-05
-8.36265e-05
-3.70691e-05
-8.13546e-05
-4.3946e-05
-7.83283e-05
-5.09044e-05
-7.44056e-05
-5.77572e-05
-6.94483e-05
-6.42241e-05
-6.33275e-05
-6.98915e-05
-5.59483e-05
-7.42279e-05
-4.73429e-05
-7.67704e-05
-3.77914e-05
-7.73566e-05
-2.781e-05
-7.61514e-05
-1.79662e-05
-7.35143e-05
-8.67332e-06
-6.97089e-05
-2.6664e-07
-6.51905e-05
7.28155e-06
-6.02403e-05
1.37439e-05
-5.51157e-05
1.92196e-05
-5.00122e-05
2.37884e-05
-4.50643e-05
2.75638e-05
3.06283e-05
-4.03577e-05
-5.39222e-06
-8.10434e-05
-1.0889e-05
-8.16069e-05
-1.64737e-05
-8.08269e-05
-2.21729e-05
-7.9576e-05
-2.79994e-05
-7.78e-05
-3.39351e-05
-7.54189e-05
-3.9923e-05
-7.23404e-05
-4.58575e-05
-6.84711e-05
-5.15773e-05
-6.37284e-05
-5.68571e-05
-5.80477e-05
-6.13981e-05
-5.14072e-05
-6.48609e-05
-4.38802e-05
-6.69679e-05
-3.56843e-05
-6.76142e-05
-2.71638e-05
-6.68854e-05
-1.8695e-05
-6.49708e-05
-1.0588e-05
-6.21698e-05
-3.06776e-06
-5.86351e-05
3.74676e-06
-5.46703e-05
9.77897e-06
-5.04732e-05
1.50224e-05
-4.62056e-05
1.95208e-05
-4.19888e-05
2.33471e-05
2.65486e-05
-3.79092e-05
-4.98636e-06
-7.60571e-05
-1.00394e-05
-7.65538e-05
-1.515e-05
-7.57164e-05
-2.03162e-05
-7.44097e-05
-2.55365e-05
-7.25797e-05
-3.07808e-05
-7.01747e-05
-3.59884e-05
-6.71328e-05
-4.10632e-05
-6.33963e-05
-4.58709e-05
-5.89208e-05
-5.02361e-05
-5.36825e-05
-5.39463e-05
-4.76971e-05
-5.67789e-05
-4.10475e-05
-5.85605e-05
-3.39028e-05
-5.92214e-05
-2.6503e-05
-5.88059e-05
-1.91106e-05
-5.74356e-05
-1.19584e-05
-5.52902e-05
-5.21322e-06
-5.25365e-05
9.93e-07
-4.93593e-05
6.60161e-06
-4.59225e-05
1.15856e-05
-4.23615e-05
1.59598e-05
-3.87824e-05
1.97679e-05
2.30326e-05
-3.52665e-05
-4.55832e-06
-7.14988e-05
-9.15795e-06
-7.19543e-05
-1.37857e-05
-7.10887e-05
-1.84294e-05
-6.9766e-05
-2.30757e-05
-6.79336e-05
-2.76896e-05
-6.55608e-05
-3.22128e-05
-6.26096e-05
-3.65615e-05
-5.90476e-05
-4.06262e-05
-5.48561e-05
-4.42727e-05
-5.00361e-05
-4.73489e-05
-4.46209e-05
-4.97061e-05
-3.86904e-05
-5.12315e-05
-3.23775e-05
-5.1877e-05
-2.58575e-05
-5.16674e-05
-1.93202e-05
-5.06849e-05
-1.2941e-05
-4.90405e-05
-6.85764e-06
-4.68801e-05
-1.16745e-06
-4.4325e-05
4.04651e-06
-4.15096e-05
8.77013e-06
-3.85437e-05
1.29939e-05
-3.5517e-05
1.67412e-05
2.00182e-05
-3.25026e-05
-4.11701e-06
-6.73818e-05
-8.26476e-06
-6.78067e-05
-1.24153e-05
-6.69383e-05
-1.65563e-05
-6.56252e-05
-2.06655e-05
-6.38244e-05
-2.47075e-05
-6.15189e-05
-2.86289e-05
-5.86881e-05
-3.23586e-05
-5.5318e-05
-3.58085e-05
-5.14061e-05
-3.88766e-05
-4.6968e-05
-4.14536e-05
-4.20439e-05
-4.34376e-05
-3.67065e-05
-4.4753e-05
-3.10621e-05
-4.53671e-05
-2.52435e-05
-4.52948e-05
-1.93926e-05
-4.45905e-05
-1.36452e-05
-4.33317e-05
-8.11636e-06
-4.16228e-05
-2.87642e-06
-3.95637e-05
1.98751e-06
-3.72574e-05
6.46379e-06
-3.4792e-05
1.05285e-05
-3.22419e-05
1.41913e-05
1.74473e-05
-2.9671e-05
-3.67114e-06
-6.37108e-05
-7.37404e-06
-6.4104e-05
-1.10619e-05
-6.32505e-05
-1.47238e-05
-6.19634e-05
-1.83335e-05
-6.02148e-05
-2.18564e-05
-5.79959e-05
-2.52454e-05
-5.52991e-05
-2.84411e-05
-5.21223e-05
-3.13735e-05
-4.84737e-05
-3.39651e-05
-4.43763e-05
-3.61367e-05
-3.98723e-05
-3.7817e-05
-3.50261e-05
-3.89545e-05
-2.99246e-05
-3.95266e-05
-2.46713e-05
-3.95423e-05
-1.93767e-05
-3.90391e-05
-1.41484e-05
-3.80756e-05
-9.07979e-06
-3.67165e-05
-4.23546e-06
-3.50592e-05
3.30336e-07
-3.31722e-05
4.57683e-06
-3.11285e-05
8.48488e-06
-2.89896e-05
1.20523e-05
1.52673e-05
-2.68096e-05
-3.2324e-06
-6.04784e-05
-6.4995e-06
-6.0837e-05
-9.74256e-06
-6.00075e-05
-1.295e-05
-5.8756e-05
-1.60947e-05
-5.707e-05
-1.91443e-05
-5.49463e-05
-2.20578e-05
-5.23856e-05
-2.47864e-05
-4.93936e-05
-2.72749e-05
-4.59851e-05
-2.94643e-05
-4.21868e-05
-3.12967e-05
-3.80398e-05
-3.27215e-05
-3.36012e-05
-3.37028e-05
-2.89432e-05
-3.42249e-05
-2.41491e-05
-3.42942e-05
-1.93073e-05
-3.39383e-05
-1.45042e-05
-3.32003e-05
-9.81765e-06
-3.21269e-05
-5.30879e-06
-3.07936e-05
-1.00298e-06
-2.92506e-05
3.03388e-06
-2.75632e-05
6.79751e-06
-2.57795e-05
1.02687e-05
1.34323e-05
-2.39444e-05
-2.80879e-06
-5.76696e-05
-5.65207e-06
-5.79938e-05
-8.46867e-06
-5.7191e-05
-1.1245e-05
-5.59796e-05
-1.39553e-05
-5.43597e-05
-1.65699e-05
-5.23317e-05
-1.90539e-05
-4.99015e-05
-2.13677e-05
-4.70797e-05
-2.34679e-05
-4.38849e-05
-2.53096e-05
-4.0345e-05
-2.68501e-05
-3.64992e-05
-2.80533e-05
-3.2398e-05
-2.88938e-05
-2.81026e-05
-2.9361e-05
-2.36818e-05
-2.94602e-05
-1.92081e-05
-2.92118e-05
-1.47526e-05
-2.8648e-05
-1.03814e-05
-2.78069e-05
-6.14986e-06
-2.67305e-05
-2.07932e-06
-2.54791e-05
1.78249e-06
-2.40966e-05
5.41493e-06
-2.26218e-05
8.79392e-06
1.19026e-05
-2.10921e-05
-2.40314e-06
-5.52665e-05
-4.83677e-06
-5.55603e-05
-7.24451e-06
-5.47833e-05
-9.61109e-06
-5.3613e-05
-1.1913e-05
-5.20578e-05
-1.41243e-05
-5.01205e-05
-1.62158e-05
-4.78099e-05
-1.81555e-05
-4.51399e-05
-1.99095e-05
-4.21308e-05
-2.14438e-05
-3.88107e-05
-2.27269e-05
-3.52161e-05
-2.37326e-05
-3.13922e-05
-2.44432e-05
-2.73919e-05
-2.48516e-05
-2.32733e-05
-2.49623e-05
-1.90973e-05
-2.47908e-05
-1.4924e-05
-2.43618e-05
-1.08103e-05
-2.37063e-05
-6.80542e-06
-2.2849e-05
-2.93658e-06
-2.18442e-05
7.77604e-07
-2.07238e-05
4.29456e-06
-1.952e-05
7.59007e-06
1.06452e-05
-1.82626e-05
-2.0147e-06
-5.32519e-05
-4.05299e-06
-5.3522e-05
-6.0678e-06
-5.27684e-05
-8.04309e-06
-5.16377e-05
-9.95858e-06
-5.01423e-05
-1.17923e-05
-4.82868e-05
-1.35204e-05
-4.60818e-05
-1.51175e-05
-4.35429e-05
-1.65574e-05
-4.0691e-05
-1.78144e-05
-3.75537e-05
-1.88654e-05
-3.41652e-05
-1.96914e-05
-3.05662e-05
-2.02802e-05