/*--------------------------------*- C++ -*----------------------------------*\
| =========                 |                                                 |
| \\      /  F ield         | OpenFOAM: The Open Source CFD Toolbox           |
|  \\    /   O peration     | Version:  2206                                  |
|   \\  /    A nd           | Website:  www.openfoam.com                      |
|    \\/     M anipulation  |                                                 |
\*---------------------------------------------------------------------------*/
FoamFile
{
    version     2.0;
    format      ascii;
    arch        "LSB;label=32;scalar=64";
    class       volVectorField;
    location    "0.125";
    object      U;
}
// * * * * * * * * * * * * * * * * * * * * * * * * * * * * * * * * * * * * * //

dimensions      [0 1 -1 0 0 0 0];

internalField   nonuniform List<vector> 
2268
(
(0.0263202 -0.0130357 0)
(0.0914547 -0.0178128 0)
(0.166137 -0.017219 0)
(0.238759 -0.016754 0)
(0.310033 -0.0170419 0)
(0.383102 -0.0177021 0)
(0.459666 -0.0185539 0)
(0.539941 -0.0195193 0)
(0.62479 -0.0206492 0)
(0.714591 -0.0219168 0)
(0.809762 -0.0232989 0)
(0.911137 -0.0246847 0)
(1.01851 -0.0259751 0)
(1.13103 -0.0273889 0)
(1.2493 -0.0292717 0)
(1.37479 -0.0309583 0)
(1.50371 -0.0297229 0)
(1.61972 -0.0215682 0)
(1.69037 -0.00607228 0)
(1.67781 0.0209475 0)
(1.53908 0.0716232 0)
(1.20885 0.162043 0)
(0.645947 0.24563 0)
(0.0263443 -0.0391219 0)
(0.0916344 -0.0532906 0)
(0.166369 -0.0516037 0)
(0.238907 -0.0502663 0)
(0.310158 -0.0511228 0)
(0.383236 -0.0530976 0)
(0.459802 -0.0556371 0)
(0.540023 -0.058537 0)
(0.624861 -0.0619201 0)
(0.714642 -0.0656732 0)
(0.809661 -0.0698105 0)
(0.911032 -0.0741597 0)
(1.01899 -0.0782895 0)
(1.13238 -0.0824141 0)
(1.25081 -0.0871728 0)
(1.37496 -0.0909968 0)
(1.50178 -0.0876581 0)
(1.61875 -0.0682628 0)
(1.70917 -0.0272395 0)
(1.7573 0.036212 0)
(1.76382 0.129485 0)
(1.69802 0.327934 0)
(1.23888 0.639729 0)
(0.026298 -0.0653717 0)
(0.0914791 -0.0886539 0)
(0.165878 -0.0859348 0)
(0.237919 -0.083767 0)
(0.308805 -0.0851676 0)
(0.381585 -0.0884417 0)
(0.457841 -0.0926531 0)
(0.537701 -0.0974953 0)
(0.622193 -0.103126 0)
(0.711631 -0.109337 0)
(0.806282 -0.116267 0)
(0.907512 -0.123748 0)
(1.01574 -0.130781 0)
(1.12968 -0.137342 0)
(1.24874 -0.144618 0)
(1.37358 -0.150688 0)
(1.50155 -0.14604 0)
(1.62146 -0.119397 0)
(1.71945 -0.068861 0)
(1.80243 0.00910744 0)
(1.8496 0.137058 0)
(1.73348 0.479334 0)
(1.4068 1.20011 0)
(0.0262725 -0.0916774 0)
(0.091258 -0.123763 0)
(0.165128 -0.120031 0)
(0.236488 -0.117094 0)
(0.306875 -0.119048 0)
(0.379245 -0.123615 0)
(0.455078 -0.129485 0)
(0.534464 -0.136263 0)
(0.618498 -0.14414 0)
(0.7075 -0.152812 0)
(0.801792 -0.162592 0)
(0.902924 -0.173336 0)
(1.01138 -0.183479 0)
(1.12606 -0.192845 0)
(1.24694 -0.203165 0)
(1.37473 -0.211856 0)
(1.50643 -0.206481 0)
(1.63406 -0.172848 0)
(1.74991 -0.117234 0)
(1.85127 -0.0485896 0)
(1.93887 0.097363 0)
(1.70527 0.592461 0)
(1.3444 1.884 0)
(0.0262697 -0.117936 0)
(0.0909674 -0.158446 0)
(0.164116 -0.153698 0)
(0.234639 -0.150077 0)
(0.304416 -0.152622 0)
(0.376284 -0.158487 0)
(0.451611 -0.166006 0)
(0.530449 -0.174718 0)
(0.613981 -0.184844 0)
(0.702515 -0.196005 0)
(0.796488 -0.20873 0)
(0.897628 -0.222876 0)
(1.00645 -0.236388 0)
(1.12234 -0.249186 0)
(1.24615 -0.263286 0)
(1.37771 -0.274891 0)
(1.51344 -0.270109 0)
(1.65034 -0.23677 0)
(1.79171 -0.183845 0)
(1.9225 -0.112885 0)
(1.9843 0.113458 0)
(1.65629 0.929132 0)
(1.17498 2.59459 0)
(0.0263368 -0.144216 0)
(0.090659 -0.192699 0)
(0.162876 -0.186904 0)
(0.23244 -0.182692 0)
(0.301539 -0.185881 0)
(0.372854 -0.193054 0)
(0.447622 -0.202212 0)
(0.525866 -0.212863 0)
(0.608857 -0.225249 0)
(0.696882 -0.238946 0)
(0.790535 -0.254741 0)
(0.891614 -0.27241 0)
(1.00056 -0.289523 0)
(1.11776 -0.306422 0)
(1.24488 -0.324948 0)
(1.37967 -0.340172 0)
(1.51885 -0.340027 0)
(1.66892 -0.316268 0)
(1.83906 -0.267823 0)
(1.98977 -0.164018 0)
(1.97751 0.184097 0)
(1.77228 1.25231 0)
(0.967901 3.20457 0)
(0.0265387 -0.170732 0)
(0.0903546 -0.226668 0)
(0.16137 -0.219818 0)
(0.229861 -0.215127 0)
(0.29821 -0.219017 0)
(0.368885 -0.227505 0)
(0.442978 -0.238293 0)
(0.520496 -0.250885 0)
(0.602779 -0.265549 0)
(0.69008 -0.281832 0)
(0.783192 -0.300803 0)
(0.883866 -0.322058 0)
(0.992352 -0.343064 0)
(1.11036 -0.364698 0)
(1.24013 -0.387645 0)
(1.37627 -0.407355 0)
(1.5174 -0.420118 0)
(1.68472 -0.412665 0)
(1.88286 -0.351575 0)
(2.03115 -0.165273 0)
(1.93284 0.329888 0)
(1.50146 1.66475 0)
(0.493391 4.05854 0)
(0.0268297 -0.19732 0)
(0.0899354 -0.260192 0)
(0.159477 -0.252285 0)
(0.226775 -0.247258 0)
(0.294225 -0.251926 0)
(0.364067 -0.261738 0)
(0.437264 -0.274154 0)
(0.513801 -0.288679 0)
(0.595094 -0.30564 0)
(0.681334 -0.324564 0)
(0.773507 -0.346797 0)
(0.87328 -0.371667 0)
(0.980911 -0.396833 0)
(1.0992 -0.423804 0)
(1.22974 -0.451733 0)
(1.36372 -0.479387 0)
(1.50527 -0.510956 0)
(1.68163 -0.514463 0)
(1.90441 -0.400562 0)
(1.91796 -0.114378 0)
(1.57905 0.548278 0)
(0.897507 2.08814 0)
(0.135292 4.33042 0)
(-0.000540464 -0.000896244 0)
(0.0121879 -0.00502403 0)
(0.0353712 -0.00497924 0)
(0.0540407 -0.00396326 0)
(0.0675497 -0.00271147 0)
(0.076029 -0.0015355 0)
(0.0800605 -0.000493179 0)
(0.0803883 0.000266231 0)
(0.078156 0.000796322 0)
(0.074073 0.0011855 0)
(0.0686184 0.00147618 0)
(0.0621468 0.00169295 0)
(0.0549239 0.00185384 0)
(0.0471516 0.00197209 0)
(0.0389818 0.00205772 0)
(0.03053 0.00211814 0)
(0.0218853 0.00215853 0)
(0.013133 0.0021799 0)
(0.00433793 0.00221043 0)
(-0.00178887 -0.00295647 0)
(0.0121557 -0.01664 0)
(0.0388144 -0.0164897 0)
(0.0595191 -0.0129822 0)
(0.074077 -0.00877226 0)
(0.0829788 -0.00496064 0)
(0.0873552 -0.00180908 0)
(0.0883582 0.000641687 0)
(0.0864911 0.00247232 0)
(0.082329 0.00382833 0)
(0.0764628 0.00482998 0)
(0.0693535 0.00556581 0)
(0.0613423 0.00610294 0)
(0.052683 0.00649113 0)
(0.0435627 0.00676758 0)
(0.0341204 0.00695973 0)
(0.0244597 0.00708685 0)
(0.0146739 0.00715899 0)
(0.00480981 0.00707268 0)
(-0.00559125 -0.00402197 0)
(0.00797635 -0.0289663 0)
(0.0393733 -0.0289769 0)
(0.0619936 -0.0224166 0)
(0.0768713 -0.0148401 0)
(0.0854457 -0.00827749 0)
(0.0892183 -0.00306176 0)
(0.0893794 0.0010437 0)
(0.0868148 0.00418674 0)
(0.0822001 0.00653082 0)
(0.0760714 0.00825964 0)
(0.0688303 0.00952494 0)
(0.0607776 0.0104438 0)
(0.0521383 0.0111045 0)
(0.043079 0.0115725 0)
(0.0337243 0.0118964 0)
(0.0241673 0.0121105 0)
(0.0144982 0.0122376 0)
(0.00475081 0.0120998 0)
(-0.0127523 -0.00289685 0)
(-0.000193231 -0.0429372 0)
(0.040051 -0.0436799 0)
(0.0661696 -0.032616 0)
(0.0813258 -0.0208583 0)
(0.0891597 -0.0112845 0)
(0.0921041 -0.00384608 0)
(0.0915224 0.0018905 0)
(0.0883384 0.00622939 0)
(0.0832454 0.00945533 0)
(0.0767685 0.0118332 0)
(0.0692826 0.0135732 0)
(0.0610616 0.0148366 0)
(0.0523096 0.0157447 0)
(0.0431775 0.0163883 0)
(0.033778 0.0168341 0)
(0.0241947 0.0171296 0)
(0.0145126 0.0173073 0)
(0.00475683 0.0171081 0)
(-0.02503 0.00462751 0)
(-0.0133244 -0.0595419 0)
(0.0408235 -0.0627137 0)
(0.0727016 -0.0439563 0)
(0.0878291 -0.0265683 0)
(0.0942721 -0.0137671 0)
(0.0959776 -0.00417168 0)
(0.0944299 0.00312467 0)
(0.0904876 0.00858292 0)
(0.0848175 0.0126156 0)
(0.0779107 0.0155795 0)
(0.0701071 0.017745 0)
(0.0616529 0.019316 0)
(0.0527303 0.0204452 0)
(0.0434731 0.0212456 0)
(0.0339805 0.0218003 0)
(0.0243259 0.0221685 0)
(0.0145873 0.0223905 0)
(0.0047816 0.0221278 0)
(-0.0306585 0.0187851 0)
(-0.0138755 -0.0818483 0)
(0.0452764 -0.0881095 0)
(0.082375 -0.0570382 0)
(0.0966567 -0.031621 0)
(0.10081 -0.0153844 0)
(0.100783 -0.00383541 0)
(0.0979877 0.00487191 0)
(0.0931015 0.011325 0)
(0.0867262 0.0160651 0)
(0.0792983 0.0195398 0)
(0.0711106 0.0220743 0)
(0.0623746 0.0239112 0)
(0.0532452 0.0252308 0)
(0.0438355 0.026166 0)
(0.034229 0.0268141 0)
(0.0244871 0.0272443 0)
(0.0146785 0.0275043 0)
(0.0048114 0.0271766 0)
(0.0200044 0.0413701 0)
(0.0390376 -0.104964 0)
(0.0663907 -0.113088 0)
(0.0964129 -0.070072 0)
(0.107676 -0.0356109 0)
(0.108631 -0.0156714 0)
(0.106418 -0.00254509 0)
(0.102124 0.00727389 0)
(0.0961146 0.0145428 0)
(0.0889175 0.0198643 0)
(0.0808891 0.023756 0)
(0.0722606 0.0265912 0)
(0.0632013 0.0286439 0)
(0.0538345 0.0301175 0)
(0.0442497 0.0311613 0)
(0.0345126 0.0318843 0)
(0.0246709 0.0323643 0)
(0.0147826 0.032655 0)
(0.00484525 0.0322597 0)
(0.12795 -0.0146645 0)
(0.129859 -0.121106 0)
(0.108851 -0.121421 0)
(0.115567 -0.0764015 0)
(0.12035 -0.0377327 0)
(0.117465 -0.0148512 0)
(0.112661 -0.000347037 0)
(0.106697 0.0103331 0)
(0.099451 0.0182497 0)
(0.0913416 0.0240336 0)
(0.0826477 0.0282519 0)
(0.0735318 0.0313197 0)
(0.064115 0.0335376 0)
(0.0544856 0.0351272 0)
(0.0447071 0.0362514 0)
(0.0348256 0.037029 0)
(0.0248737 0.0375443 0)
(0.0148976 0.0378571 0)
(0.00488269 0.0373909 0)
(0.0271038 -0.23855 0)
(0.0887435 -0.310989 0)
(0.155696 -0.301195 0)
(0.220869 -0.295999 0)
(0.286549 -0.302084 0)
(0.354649 -0.313937 0)
(0.425981 -0.328823 0)
(0.500471 -0.346283 0)
(0.579682 -0.366783 0)
(0.663663 -0.389849 0)
(0.753521 -0.417264 0)
(0.850881 -0.447819 0)
(0.956965 -0.479635 0)
(1.07378 -0.515612 0)
(1.19737 -0.55674 0)
(1.32244 -0.605787 0)
(1.46754 -0.649322 0)
(1.62733 -0.60802 0)
(1.71346 -0.281075 0)
(1.37507 0.185067 0)
(0.935671 1.12051 0)
(0.146854 2.68361 0)
(0.708395 3.89808 0)
(0.0271121 -0.294274 0)
(0.0864793 -0.377803 0)
(0.149656 -0.36529 0)
(0.211494 -0.360293 0)
(0.274369 -0.368459 0)
(0.339657 -0.382994 0)
(0.407981 -0.401066 0)
(0.47917 -0.422346 0)
(0.555 -0.447484 0)
(0.63531 -0.476032 0)
(0.72109 -0.510397 0)
(0.814153 -0.548561 0)
(0.917837 -0.589361 0)
(1.02921 -0.638063 0)
(1.13197 -0.703364 0)
(1.24709 -0.77939 0)
(1.40181 -0.800706 0)
(1.51627 -0.596528 0)
(1.32928 -0.0123747 0)
(0.720388 0.580578 0)
(0.48946 1.42903 0)
(0.0914186 2.58119 0)
(0.912893 3.32457 0)
(0.026909 -0.349025 0)
(0.0834661 -0.440107 0)
(0.14233 -0.42511 0)
(0.200413 -0.420965 0)
(0.26 -0.431296 0)
(0.321873 -0.448302 0)
(0.386505 -0.46926 0)
(0.45361 -0.494057 0)
(0.525219 -0.523484 0)
(0.600768 -0.557107 0)
(0.680803 -0.598049 0)
(0.768627 -0.643097 0)
(0.868122 -0.692096 0)
(0.961776 -0.755889 0)
(1.0389 -0.848493 0)
(1.16035 -0.924833 0)
(1.30633 -0.8389 0)
(1.20632 -0.349353 0)
(0.692728 0.420629 0)
(0.244201 0.949863 0)
(0.202516 1.52508 0)
(0.324303 2.02826 0)
(0.965246 2.77005 0)
(0.0264036 -0.402406 0)
(0.0796316 -0.497946 0)
(0.133806 -0.48084 0)
(0.187829 -0.478096 0)
(0.243672 -0.49057 0)
(0.30156 -0.509792 0)
(0.36188 -0.533326 0)
(0.424207 -0.561296 0)
(0.49088 -0.594577 0)
(0.560603 -0.632733 0)
(0.633541 -0.679651 0)
(0.716221 -0.730186 0)
(0.807068 -0.786452 0)
(0.871268 -0.869185 0)
(0.943706 -0.979191 0)
(1.0731 -1.01921 0)
(1.10558 -0.65246 0)
(0.679511 0.14455 0)
(0.177521 0.799942 0)
(0.00613842 1.11519 0)
(0.0512126 1.39894 0)
(0.30341 1.5124 0)
(0.84029 2.20811 0)
(0.0255835 -0.453817 0)
(0.0750163 -0.550809 0)
(0.124217 -0.532112 0)
(0.173938 -0.531195 0)
(0.225623 -0.545663 0)
(0.279025 -0.566769 0)
(0.334498 -0.592505 0)
(0.391466 -0.623208 0)
(0.452625 -0.659764 0)
(0.515497 -0.701756 0)
(0.580673 -0.753761 0)
(0.658577 -0.807831 0)
(0.732552 -0.871453 0)
(0.767385 -0.973162 0)
(0.849951 -1.07845 0)
(0.949039 -0.983715 0)
(0.787007 -0.311193 0)
(0.141458 0.575732 0)
(-0.0613619 0.980183 0)
(-0.0787126 1.11124 0)
(0.0214423 1.21755 0)
(0.159062 1.21103 0)
(0.571287 1.81632 0)
(0.0244536 -0.502737 0)
(0.0696911 -0.598431 0)
(0.113717 -0.578802 0)
(0.158948 -0.579995 0)
(0.206106 -0.596206 0)
(0.254602 -0.618838 0)
(0.304791 -0.646377 0)
(0.355944 -0.679332 0)
(0.411138 -0.718514 0)
(0.466261 -0.763601 0)
(0.523891 -0.819575 0)
(0.59654 -0.875358 0)
(0.645423 -0.94796 0)
(0.669691 -1.06236 0)
(0.760262 -1.13649 0)
(0.78039 -0.785196 0)
(0.324113 0.230076 0)
(-0.125088 0.841929 0)
(-0.111347 0.998573 0)
(-0.079478 1.04614 0)
(0.0386376 1.09885 0)
(0.0837195 1.06123 0)
(0.344715 1.45065 0)
(0.0230432 -0.54859 0)
(0.0637618 -0.640558 0)
(0.10248 -0.62074 0)
(0.143076 -0.624159 0)
(0.185398 -0.641782 0)
(0.228659 -0.665558 0)
(0.273227 -0.694481 0)
(0.318246 -0.72917 0)
(0.367138 -0.7703 0)
(0.413844 -0.81774 0)
(0.464857 -0.876426 0)
(0.52964 -0.932566 0)
(0.549265 -1.01497 0)
(0.58229 -1.13015 0)
(0.662201 -1.12671 0)
(0.54983 -0.458768 0)
(-0.105447 0.605239 0)
(-0.150183 0.915592 0)
(-0.10059 0.945981 0)
(-0.0450557 0.973469 0)
(0.056848 1.01223 0)
(0.0892837 0.97805 0)
(0.250167 1.14715 0)
(0.0213823 -0.590766 0)
(0.057346 -0.677001 0)
(0.0906981 -0.657758 0)
(0.126549 -0.66337 0)
(0.16379 -0.682039 0)
(0.201576 -0.706598 0)
(0.240284 -0.736509 0)
(0.278978 -0.772448 0)
(0.321333 -0.81492 0)
(0.359287 -0.864103 0)
(0.405184 -0.924376 0)
(0.457812 -0.980018 0)
(0.452762 -1.07009 0)
(0.504253 -1.17353 0)
(0.549952 -1.00157 0)
(0.250966 0.0661841 0)
(-0.261705 0.795319 0)
(-0.103083 0.867695 0)
(-0.0739382 0.882925 0)
(-0.00940555 0.905292 0)
(0.0690586 0.931475 0)
(0.11927 0.91309 0)
(0.228936 0.963074 0)
(0.0195065 -0.629117 0)
(0.0505697 -0.708027 0)
(0.0785644 -0.690105 0)
(0.109594 -0.697742 0)
(0.141578 -0.71708 0)
(0.173742 -0.742077 0)
(0.206442 -0.772589 0)
(0.238735 -0.809307 0)
(0.274378 -0.852563 0)
(0.303611 -0.903008 0)
(0.345894 -0.963845 0)
(0.38079 -1.01893 0)
(0.365631 -1.11565 0)
(0.429937 -1.19774 0)
(0.437942 -0.806561 0)
(-0.0534403 0.450523 0)
(-0.194039 0.837763 0)
(-0.0802807 0.791812 0)
(-0.0412672 0.828919 0)
(0.0147568 0.845342 0)
(0.0752714 0.860588 0)
(0.132279 0.84973 0)
(0.211589 0.851574 0)
(0.0174494 -0.663527 0)
(0.0435858 -0.733792 0)
(0.0663226 -0.717852 0)
(0.0925187 -0.727187 0)
(0.119187 -0.746757 0)
(0.145718 -0.771774 0)
(0.172403 -0.802395 0)
(0.198363 -0.839292 0)
(0.227082 -0.882685 0)
(0.247921 -0.933713 0)
(0.286269 -0.993563 0)
(0.295859 -1.0493 0)
(0.287504 -1.15504 0)
(0.342103 -1.20202 0)
(0.253548 -0.477781 0)
(-0.298794 0.641545 0)
(-0.0766924 0.768994 0)
(-0.0682728 0.736608 0)
(-0.00734442 0.782555 0)
(0.0290134 0.796084 0)
(0.0759348 0.803753 0)
(0.125562 0.792986 0)
(0.183356 0.776314 0)
(0.015329 -0.692551 0)
(0.0367102 -0.753275 0)
(0.0543941 -0.739849 0)
(0.0759201 -0.750516 0)
(0.097412 -0.769981 0)
(0.118497 -0.794721 0)
(0.139325 -0.825116 0)
(0.159036 -0.861764 0)
(0.180346 -0.904906 0)
(0.19293 -0.955465 0)
(0.222987 -1.01182 0)
(0.202448 -1.07019 0)
(0.213291 -1.18031 0)
(0.20706 -1.13033 0)
(-0.0119949 0.0304026 0)
(-0.277759 0.649912 0)
(-0.00352939 0.662331 0)
(-0.0380471 0.707215 0)
(0.0222915 0.743865 0)
(0.0389548 0.759075 0)
(0.0725773 0.761567 0)
(0.109402 0.748296 0)
(0.150797 0.724558 0)
(0.0133206 -0.716944 0)
(0.0302532 -0.767765 0)
(0.0430802 -0.757412 0)
(0.0602366 -0.769231 0)
(0.0767354 -0.788577 0)
(0.092471 -0.813073 0)
(0.107321 -0.843172 0)
(0.120203 -0.879262 0)
(0.132898 -0.921616 0)
(0.13638 -0.969498 0)
(0.152864 -1.01914 0)
(0.115353 -1.08187 0)
(0.155289 -1.17301 0)
(0.103813 -0.928826 0)
(0.00126797 0.0736481 0)
(-0.0275627 0.583517 0)
(0.0716615 0.605234 0)
(0.0229967 0.695213 0)
(0.045967 0.724193 0)
(0.0475858 0.737472 0)
(0.0653229 0.733775 0)
(0.0890006 0.716326 0)
(0.1176 0.688859 0)
(0.0112816 -0.740944 0)
(0.0237259 -0.781083 0)
(0.0316277 -0.774341 0)
(0.0443726 -0.78668 0)
(0.0555786 -0.805164 0)
(0.0653461 -0.828329 0)
(0.0733102 -0.856291 0)
(0.0780345 -0.889248 0)
(0.0813679 -0.927179 0)
(0.0764898 -0.968176 0)
(0.0867942 -1.0104 0)
(0.0765937 -1.08762 0)
(0.16107 -1.14312 0)
(0.181362 -0.963676 0)
(0.152335 0.0762088 0)
(0.250989 0.575053 0)
(0.170997 0.648516 0)
(0.0882431 0.712847 0)
(0.06464 0.732329 0)
(0.0485995 0.733462 0)
(0.051459 0.719526 0)
(0.0642561 0.695455 0)
(0.0834714 0.664079 0)
(0.0085562 -0.756496 0)
(0.0153855 -0.784644 0)
(0.0182305 -0.7816 0)
(0.0258165 -0.792907 0)
(0.03106 -0.808654 0)
(0.0342652 -0.828146 0)
(0.035521 -0.851248 0)
(0.0345556 -0.878918 0)
(0.0355122 -0.911476 0)
(0.0387867 -0.953191 0)
(0.0803824 -1.011 0)
(0.163422 -1.13464 0)
(0.251825 -1.14502 0)
(0.344609 -1.03422 0)
(0.365801 0.0615044 0)
(0.49643 0.698826 0)
(0.277353 0.784005 0)
(0.122081 0.776758 0)
(0.0655956 0.766092 0)
(0.0344932 0.745043 0)
(0.0271062 0.715895 0)
(0.0331914 0.682574 0)
(0.0469569 0.646183 0)
(0.00531389 -0.755834 0)
(0.00334094 -0.773084 0)
(0.0013368 -0.774711 0)
(0.00312725 -0.785404 0)
(0.00306625 -0.799756 0)
(0.00253516 -0.818562 0)
(0.00457039 -0.843288 0)
(0.0146845 -0.876138 0)
(0.0402437 -0.923258 0)
(0.107698 -1.00717 0)
(0.265495 -1.16378 0)
(0.474372 -1.29835 0)
(0.440181 -1.22547 0)
(0.389361 -1.03766 0)
(0.398918 -0.491522 0)
(0.590525 0.853919 0)
(0.311535 0.994639 0)
(0.0953645 0.878481 0)
(0.0330207 0.817764 0)
(-0.00221623 0.765199 0)
(-0.0114115 0.717574 0)
(-0.00592022 0.673458 0)
(0.00688426 0.631345 0)
(0.00379378 -0.768376 0)
(-0.0130039 -0.777912 0)
(-0.018351 -0.788158 0)
(-0.0211884 -0.801736 0)
(-0.0138809 -0.81988 0)
(-0.00308035 -0.847617 0)
(0.0308976 -0.890686 0)
(0.0932846 -0.948803 0)
(0.178325 -1.04617 0)
(0.310596 -1.20086 0)
(0.472753 -1.39559 0)
(0.535102 -1.2988 0)
(0.638978 -1.13759 0)
(0.279648 -0.922298 0)
(0.283609 -0.484064 0)
(0.273709 0.87254 0)
(0.161296 1.2001 0)
(-0.0143893 0.991783 0)
(-0.041279 0.866877 0)
(-0.0665403 0.78195 0)
(-0.0650878 0.716891 0)
(-0.05357 0.662863 0)
(-0.037116 0.615748 0)
(0.00367194 -0.771817 0)
(-0.00822487 -0.776231 0)
(-0.00387187 -0.790563 0)
(-0.000785776 -0.809413 0)
(0.00828171 -0.832303 0)
(0.0255912 -0.87337 0)
(0.0521171 -0.935998 0)
(0.0945498 -1.01514 0)
(0.1494 -1.1412 0)
(0.243727 -1.32117 0)
(0.356084 -1.48858 0)
(0.374334 -1.4032 0)
(0.61745 -1.00772 0)
(0.103213 -0.687432 0)
(0.0975774 -0.329481 0)
(-0.147646 0.963593 0)
(-0.138391 1.31454 0)
(-0.19719 1.05017 0)
(-0.159575 0.887124 0)
(-0.152968 0.781689 0)
(-0.130929 0.705432 0)
(-0.107631 0.645422 0)
(-0.083626 0.595797 0)
(-0.00267931 -0.760379 0)
(-0.00996771 -0.769496 0)
(-0.0128628 -0.78672 0)
(-0.0178483 -0.807913 0)
(-0.0186933 -0.83903 0)
(-0.0176249 -0.884228 0)
(-0.0157449 -0.952358 0)
(-0.0127952 -1.04268 0)
(-0.00595367 -1.18559 0)
(0.0214383 -1.39312 0)
(0.0344079 -1.56039 0)
(-0.00646857 -1.45829 0)
(0.0921996 -0.951871 0)
(-0.181178 -0.511998 0)
(-0.23486 -0.0671245 0)
(-0.644641 1.13112 0)
(-0.47372 1.28399 0)
(-0.397836 1.0156 0)
(-0.296495 0.857851 0)
(-0.249187 0.752916 0)
(-0.201751 0.676579 0)
(-0.163744 0.617136 0)
(-0.130122 0.568865 0)
(-0.00705165 -0.747457 0)
(-0.0194041 -0.759845 0)
(-0.0320993 -0.774439 0)
(-0.0467449 -0.795862 0)
(-0.0623687 -0.827303 0)
(-0.0799582 -0.872319 0)
(-0.10362 -0.934126 0)
(-0.136471 -1.02139 0)
(-0.177205 -1.16107 0)
(-0.234654 -1.36061 0)
(-0.349284 -1.50591 0)
(-0.479291 -1.36878 0)
(-0.545799 -0.888293 0)
(-0.569049 -0.382297 0)
(-0.646296 0.176688 0)
(-1.05364 1.15219 0)
(-0.701123 1.09611 0)
(-0.557044 0.889681 0)
(-0.415103 0.775739 0)
(-0.335222 0.692689 0)
(-0.267037 0.62822 0)
(-0.215749 0.576633 0)
(-0.173047 0.534029 0)
(-0.00958796 -0.728004 0)
(-0.0290171 -0.741854 0)
(-0.0494526 -0.753718 0)
(-0.0721376 -0.773144 0)
(-0.0989161 -0.801033 0)
(-0.131512 -0.839474 0)
(-0.173783 -0.890078 0)
(-0.23176 -0.958846 0)
(-0.312474 -1.06521 0)
(-0.44316 -1.21849 0)
(-0.666692 -1.33051 0)
(-0.913653 -1.1958 0)
(-1.04734 -0.714796 0)
(-1.13699 -0.093291 0)
(-1.27117 0.491533 0)
(-1.21141 0.945597 0)
(-0.812535 0.816155 0)
(-0.648932 0.718748 0)
(-0.492557 0.66092 0)
(-0.396983 0.609543 0)
(-0.31795 0.564486 0)
(-0.258082 0.52592 0)
(-0.209082 0.492336 0)
(-0.0119723 -0.706496 0)
(-0.0373411 -0.71948 0)
(-0.0640673 -0.729092 0)
(-0.0938361 -0.744939 0)
(-0.128618 -0.766864 0)
(-0.170971 -0.795909 0)
(-0.225073 -0.832274 0)
(-0.2969 -0.876657 0)
(-0.39378 -0.935164 0)
(-0.547652 -1.01573 0)
(-0.80343 -1.0743 0)
(-1.11938 -0.982615 0)
(-1.36399 -0.641257 0)
(-1.44007 -0.105408 0)
(-1.35774 0.388115 0)
(-1.12752 0.600309 0)
(-0.819748 0.54231 0)
(-0.671226 0.551226 0)
(-0.527001 0.538058 0)
(-0.430853 0.517313 0)
(-0.350553 0.493213 0)
(-0.287789 0.469331 0)
(-0.236184 0.446315 0)
(-0.0142579 -0.679903 0)
(-0.0438511 -0.691042 0)
(-0.075333 -0.698329 0)
(-0.110295 -0.70971 0)
(-0.15034 -0.724908 0)
(-0.198094 -0.743803 0)
(-0.257433 -0.76588 0)
(-0.332691 -0.788936 0)
(-0.427367 -0.809439 0)
(-0.558624 -0.825759 0)
(-0.758172 -0.818187 0)
(-1.00879 -0.72124 0)
(-1.20907 -0.479016 0)
(-1.2582 -0.137405 0)
(-1.14935 0.163169 0)
(-0.946206 0.30822 0)
(-0.763249 0.347544 0)
(-0.644997 0.409974 0)
(-0.527695 0.425056 0)
(-0.440476 0.428207 0)
(-0.365658 0.422083 0)
(-0.304799 0.411647 0)
(-0.253884 0.398961 0)
(-0.0157034 -0.64802 0)
(-0.0482014 -0.657462 0)
(-0.0826459 -0.662391 0)
(-0.120338 -0.669431 0)
(-0.162807 -0.678295 0)
(-0.212252 -0.688154 0)
(-0.271622 -0.697817 0)
(-0.343876 -0.704469 0)
(-0.430412 -0.70304 0)
(-0.535778 -0.687101 0)
(-0.669914 -0.644963 0)
(-0.82494 -0.552537 0)
(-0.949349 -0.385616 0)
(-0.97937 -0.165718 0)
(-0.907229 0.029339 0)
(-0.789455 0.152171 0)
(-0.687077 0.232041 0)
(-0.597383 0.300279 0)
(-0.507254 0.331118 0)
(-0.432788 0.349449 0)
(-0.366825 0.35634 0)
(-0.310893 0.356656 0)
(-0.262947 0.35286 0)
(-0.016376 -0.615695 0)
(-0.0507665 -0.623735 0)
(-0.0867355 -0.626227 0)
(-0.125436 -0.629412 0)
(-0.168292 -0.632679 0)
(-0.216857 -0.635012 0)
(-0.272987 -0.634785 0)
(-0.338101 -0.629216 0)
(-0.412832 -0.614721 0)
(-0.498111 -0.586406 0)
(-0.593577 -0.533479 0)
(-0.688989 -0.441114 0)
(-0.759425 -0.306596 0)
(-0.779049 -0.152737 0)
(-0.745816 -0.0172855 0)
(-0.683747 0.0812574 0)
(-0.616072 0.159 0)
(-0.546215 0.219392 0)
(-0.476786 0.257274 0)
(-0.414749 0.28331 0)
(-0.358293 0.298489 0)
(-0.308552 0.306592 0)
(-0.264802 0.309758 0)
(-0.0166825 -0.580945 0)
(-0.0515364 -0.587901 0)
(-0.0877095 -0.588159 0)
(-0.126117 -0.588166 0)
(-0.167849 -0.586988 0)
(-0.213987 -0.583657 0)
(-0.265558 -0.57661 0)
(-0.322938 -0.563424 0)
(-0.386058 -0.540989 0)
(-0.454995 -0.50593 0)
(-0.527566 -0.453377 0)
(-0.593822 -0.37692 0)
(-0.637957 -0.275484 0)
(-0.649893 -0.161637 0)
(-0.632514 -0.0551988 0)
(-0.59618 0.0332034 0)
(-0.54927 0.103846 0)
(-0.496263 0.159235 0)
(-0.442416 0.199368 0)
(-0.391298 0.228781 0)
(-0.343591 0.248883 0)
(-0.300162 0.262254 0)
(-0.261041 0.270538 0)
(-0.0166926 -0.546832 0)
(-0.0509387 -0.552726 0)
(-0.0863101 -0.551271 0)
(-0.1235 -0.54877 0)
(-0.163109 -0.544282 0)
(-0.205901 -0.536899 0)
(-0.252332 -0.525238 0)
(-0.302323 -0.507486 0)
(-0.35529 -0.481583 0)
(-0.410164 -0.445105 0)
(-0.464518 -0.39465 0)
(-0.512384 -0.327486 0)
(-0.544744 -0.246011 0)
(-0.555435 -0.15893 0)
(-0.545766 -0.0758218 0)
(-0.521536 -0.00183273 0)
(-0.487998 0.0612712 0)
(-0.448519 0.112753 0)
(-0.406652 0.152878 0)
(-0.365011 0.183728 0)
(-0.325031 0.206693 0)
(-0.287579 0.223521 0)
(-0.253073 0.235446 0)
(-0.0162659 -0.513515 0)
(-0.0492086 -0.518308 0)
(-0.0830869 -0.51565 0)
(-0.118379 -0.511248 0)
(-0.155298 -0.504404 0)
(-0.194358 -0.494303 0)
(-0.23565 -0.479841 0)
(-0.278842 -0.459679 0)
(-0.323251 -0.43238 0)
(-0.367691 -0.396491 0)
(-0.409777 -0.350462 0)
(-0.445304 -0.293321 0)
(-0.469309 -0.226774 0)
(-0.478723 -0.156154 0)
(-0.474041 -0.087656 0)
(-0.458084 -0.0250927 0)
(-0.433736 0.0299214 0)
(-0.403829 0.0769198 0)
(-0.371082 0.115515 0)
(-0.337382 0.146545 0)
(-0.304111 0.17097 0)
(-0.272129 0.189963 0)
(-0.242022 0.204404 0)
(-0.0154185 -0.48162 0)
(-0.0466579 -0.485487 0)
(-0.0785982 -0.482034 0)
(-0.111526 -0.476334 0)
(-0.14549 -0.467943 0)
(-0.18075 -0.45618 0)
(-0.217229 -0.440218 0)
(-0.254493 -0.419135 0)
(-0.291803 -0.392004 0)
(-0.328006 -0.35792 0)
(-0.361234 -0.316132 0)
(-0.388732 -0.266654 0)
(-0.407519 -0.211125 0)
(-0.415793 -0.152828 0)
(-0.413755 -0.0954415 0)
(-0.402995 -0.0416254 0)
(-0.385252 0.00708421 0)
(-0.362525 0.0495686 0)
(-0.336813 0.0858312 0)
(-0.309558 0.116105 0)
(-0.281972 0.140953 0)
(-0.254842 0.161131 0)
(-0.228793 0.177207 0)
(-0.0143242 -0.451429 0)
(-0.0435935 -0.454649 0)
(-0.0733062 -0.450651 0)
(-0.103599 -0.444153 0)
(-0.134518 -0.434839 0)
(-0.166097 -0.422197 0)
(-0.198177 -0.405637 0)
(-0.230307 -0.384538 0)
(-0.261797 -0.358328 0)
(-0.291645 -0.326536 0)
(-0.318414 -0.288917 0)
(-0.340274 -0.24579 0)
(-0.355426 -0.198436 0)
(-0.362771 -0.149048 0)
(-0.362304 -0.100047 0)
(-0.354929 -0.0533434 0)
(-0.341993 -0.0102071 0)
(-0.324695 0.0283545 0)
(-0.304341 0.0621721 0)
(-0.282265 0.0912353 0)
(-0.259426 0.115857 0)
(-0.236509 0.136524 0)
(-0.214111 0.153573 0)
(-0.0131712 -0.423318 0)
(-0.0402573 -0.426145 0)
(-0.0675594 -0.421772 0)
(-0.0951211 -0.414846 0)
(-0.123013 -0.405072 0)
(-0.151121 -0.392106 0)
(-0.179245 -0.375545 0)
(-0.20696 -0.354996 0)
(-0.233652 -0.330132 0)
(-0.2585 -0.300745 0)
(-0.280436 -0.266854 0)
(-0.298226 -0.228893 0)
(-0.310736 -0.187867 0)
(-0.317278 -0.145274 0)
(-0.317797 -0.102777 0)
(-0.312804 -0.0618203 0)
(-0.303173 -0.0234442 0)
(-0.289831 0.011732 0)
(-0.273741 0.0431951 0)
(-0.255858 0.0708725 0)
(-0.236975 0.0949099 0)
(-0.217681 0.115613 0)
(-0.198521 0.133161 0)
(-0.0120521 -0.397545 0)
(-0.0367873 -0.400131 0)
(-0.0615784 -0.395529 0)
(-0.0864388 -0.38842 0)
(-0.111395 -0.378511 0)
(-0.136279 -0.36559 0)
(-0.160865 -0.349399 0)
(-0.184775 -0.329705 0)
(-0.207486 -0.306351 0)
(-0.228343 -0.279293 0)
(-0.246557 -0.248679 0)
(-0.261284 -0.214949 0)
(-0.271784 -0.178896 0)
(-0.277608 -0.141597 0)
(-0.278697 -0.104229 0)
(-0.275352 -0.0678687 0)
(-0.268165 -0.0333639 0)
(-0.25783 -0.00128631 0)
(-0.245037 0.0279539 0)
(-0.230526 0.0541919 0)
(-0.214929 0.0774498 0)
(-0.198734 0.0979032 0)
(-0.182418 0.115624 0)
(-0.010965 -0.374216 0)
(-0.0332519 -0.376617 0)
(-0.0555092 -0.371923 0)
(-0.0777643 -0.364794 0)
(-0.0999247 -0.35497 0)
(-0.121837 -0.342329 0)
(-0.143265 -0.326722 0)
(-0.163878 -0.308029 0)
(-0.183246 -0.286204 0)
(-0.200853 -0.2613 0)
(-0.216118 -0.233522 0)
(-0.228452 -0.203279 0)
(-0.237359 -0.171202 0)
(-0.242538 -0.138097 0)
(-0.243939 -0.104831 0)
(-0.241758 -0.0722306 0)
(-0.236392 -0.0409839 0)
(-0.228341 -0.0115672 0)
(-0.218122 0.0156811 0)
(-0.206336 0.0405271 0)
(-0.193468 0.0629235 0)
(-0.179914 0.0829581 0)
(-0.166085 0.100631 0)
(-0.00987588 -0.353309 0)
(-0.0297013 -0.355523 0)
(-0.0494682 -0.350855 0)
(-0.0692319 -0.343817 0)
(-0.088759 -0.334223 0)
(-0.107938 -0.322004 0)
(-0.126535 -0.307089 0)
(-0.144269 -0.289442 0)
(-0.16079 -0.269082 0)
(-0.175696 -0.246118 0)
(-0.188557 -0.220774 0)
(-0.198957 -0.193418 0)
(-0.206553 -0.164561 0)
(-0.21114 -0.134823 0)
(-0.212685 -0.104872 0)
(-0.211317 -0.0753526 0)
(-0.207301 -0.0468228 0)
(-0.201003 -0.0196827 0)
(-0.192845 0.00578465 0)
(-0.183271 0.0293363 0)
(-0.172677 0.0508645 0)
(-0.161377 0.0703952 0)
(-0.149716 0.0878829 0)
(-0.00876755 -0.334743 0)
(-0.0261909 -0.336756 0)
(-0.0435573 -0.332193 0)
(-0.0609365 -0.325324 0)
(-0.077992 -0.316044 0)
(-0.0946494 -0.304323 0)
(-0.110692 -0.290143 0)
(-0.125883 -0.27352 0)
(-0.13994 -0.254517 0)
(-0.152552 -0.23327 0)
(-0.163398 -0.210006 0)
(-0.172181 -0.185049 0)
(-0.178661 -0.15882 0)
(-0.182696 -0.131813 0)
(-0.184261 -0.104557 0)
(-0.183451 -0.0775625 0)
(-0.180455 -0.05129 0)
(-0.17555 -0.0260988 0)
(-0.16906 -0.00221845 0)
(-0.161277 0.0201798 0)
(-0.152579 0.0408852 0)
(-0.143205 0.0598864 0)
(-0.133438 0.0771116 0)
(-0.00765209 -0.318453 0)
(-0.0227753 -0.320266 0)
(-0.037849 -0.315845 0)
(-0.0529402 -0.309186 0)
(-0.0676718 -0.30026 0)
(-0.0819906 -0.28906 0)
(-0.095706 -0.275606 0)
(-0.10862 -0.259944 0)
(-0.120506 -0.242164 0)
(-0.131126 -0.222416 0)
(-0.14024 -0.200916 0)
(-0.147632 -0.177951 0)
(-0.153131 -0.153876 0)
(-0.156641 -0.129095 0)
(-0.158146 -0.104034 0)
(-0.157716 -0.0791138 0)
(-0.155497 -0.0547213 0)
(-0.151695 -0.0311776 0)
(-0.146532 -0.00866404 0)
(-0.140235 0.0127117 0)
(-0.133144 0.0326718 0)
(-0.125432 0.0511566 0)
(-0.117326 0.0680859 0)
(-0.00655095 -0.304408 0)
(-0.019486 -0.306044 0)
(-0.0323723 -0.301769 0)
(-0.0452632 -0.295335 0)
(-0.0577994 -0.286767 0)
(-0.0699342 -0.276073 0)
(-0.0815069 -0.263295 0)
(-0.0923538 -0.248499 0)
(-0.102296 -0.231793 0)
(-0.11115 -0.213327 0)
(-0.118737 -0.193305 0)
(-0.124899 -0.171984 0)
(-0.129515 -0.149667 0)
(-0.132518 -0.126693 0)
(-0.133901 -0.103415 0)
(-0.133718 -0.0801842 0)
(-0.132082 -0.0573301 0)
(-0.129146 -0.0351383 0)
(-0.125078 -0.0137781 0)
(-0.120054 0.00667173 0)
(-0.114325 0.0259728 0)
(-0.108057 0.0439794 0)
(-0.101419 0.06061 0)
(-0.00547879 -0.292449 0)
(-0.0163257 -0.293945 0)
(-0.0271181 -0.289815 0)
(-0.0378885 -0.28361 0)
(-0.0483377 -0.275388 0)
(-0.0584163 -0.265169 0)
(-0.0679939 -0.253006 0)
(-0.0769383 -0.238978 0)
(-0.0851099 -0.223198 0)
(-0.092368 -0.205815 0)
(-0.0985799 -0.18702 0)
(-0.103631 -0.167044 0)
(-0.107435 -0.146151 0)
(-0.109946 -0.124632 0)
(-0.111163 -0.102788 0)
(-0.111128 -0.08092 0)
(-0.109929 -0.0593117 0)
(-0.107684 -0.0382182 0)
(-0.104528 -0.0178152 0)
(-0.100605 0.00182556 0)
(-0.0960534 0.0205822 0)
(-0.091053 0.0381716 0)
(-0.0857277 0.0545231 0)
(-0.0044362 -0.282322 0)
(-0.0132778 -0.283717 0)
(-0.0220684 -0.279719 0)
(-0.0307977 -0.273735 0)
(-0.0392565 -0.265836 0)
(-0.0473869 -0.256051 0)
(-0.0550881 -0.244439 0)
(-0.0622563 -0.231084 0)
(-0.068785 -0.2161 0)
(-0.0745696 -0.199631 0)
(-0.0795134 -0.181856 0)
(-0.0835346 -0.162981 0)
(-0.0865739 -0.143242 0)
(-0.0886005 -0.122893 0)
(-0.0896162 -0.102197 0)
(-0.0896569 -0.0814138 0)
(-0.08879 -0.0607966 0)
(-0.0871087 -0.0405786 0)
(-0.0847268 -0.0209469 0)
(-0.0817402 -0.00196751 0)
(-0.0782211 0.0163503 0)
(-0.0743693 0.0335934 0)
(-0.0702419 0.0496983 0)
(-0.0033971 -0.274425 0)
(-0.0102861 -0.275735 0)
(-0.0171742 -0.271827 0)
(-0.0239466 -0.26602 0)
(-0.0305058 -0.258375 0)
(-0.0367879 -0.24893 0)
(-0.042719 -0.237747 0)
(-0.04822 -0.224916 0)
(-0.053212 -0.21055 0)
(-0.0576189 -0.194789 0)
(-0.0613725 -0.1778 0)
(-0.0644169 -0.159776 0)
(-0.0667137 -0.140927 0)
(-0.0682458 -0.121482 0)
(-0.0690199 -0.101672 0)
(-0.0690668 -0.0817299 0)
(-0.0684406 -0.0618776 0)
(-0.0672169 -0.0423263 0)
(-0.0654849 -0.0232639 0)
(-0.0633149 -0.00477488 0)
(-0.0607486 0.0131754 0)
(-0.0579527 0.0301461 0)
(-0.0549408 0.0460423 0)
(-0.00232296 -0.269457 0)
(-0.00724043 -0.270589 0)
(-0.0122687 -0.266751 0)
(-0.0171301 -0.261078 0)
(-0.0218375 -0.253611 0)
(-0.0263357 -0.244398 0)
(-0.0305754 -0.233504 0)