/*--------------------------------*- C++ -*----------------------------------*\
| =========                 |                                                 |
| \\      /  F ield         | OpenFOAM: The Open Source CFD Toolbox           |
|  \\    /   O peration     | Version:  2206                                  |
|   \\  /    A nd           | Website:  www.openfoam.com                      |
|    \\/     M anipulation  |                                                 |
\*---------------------------------------------------------------------------*/
FoamFile
{
    version     2.0;
    format      ascii;
    arch        "LSB;label=32;scalar=64";
    class       volScalarField;
    location    "0.65";
    object      p;
}
// * * * * * * * * * * * * * * * * * * * * * * * * * * * * * * * * * * * * * //

dimensions      [1 -1 -2 0 0 0 0];

internalField   nonuniform List<scalar> 
2268
(
756.831
756.794
757.019
757.418
757.822
758.188
758.566
759.06
759.738
760.616
761.664
762.842
764.115
765.454
766.823
768.18
769.459
770.569
771.347
771.781
772.075
772.691
773.622
697.776
697.682
697.911
698.304
698.715
699.086
699.474
699.988
700.691
701.588
702.655
703.851
705.137
706.481
707.855
709.226
710.538
711.669
712.421
712.639
712.724
713.344
714.473
638.424
638.322
638.533
638.905
639.334
639.714
640.13
640.691
641.457
642.426
643.562
644.818
646.15
647.521
648.899
650.249
651.521
652.657
653.588
654.281
654.956
655.699
656.605
578.753
578.66
578.85
579.214
579.645
580.043
580.507
581.156
582.032
583.118
584.362
585.707
587.11
588.538
589.961
591.349
592.664
593.871
594.95
595.921
596.878
597.857
598.9
518.67
518.59
518.754
519.162
519.66
520.114
520.629
521.392
522.427
523.68
525.075
526.545
528.049
529.559
531.054
532.511
533.906
535.213
536.413
537.521
538.612
539.715
540.799
457.988
457.798
457.864
458.361
459.161
459.885
460.564
461.462
462.691
464.151
465.73
467.356
468.983
470.594
472.176
473.716
475.197
476.599
477.904
479.113
480.26
481.369
482.308
396.47
395.733
395.327
395.782
397.207
398.815
400.153
401.398
402.892
404.592
406.374
408.165
409.925
411.645
413.321
414.949
416.516
418
419.375
420.604
421.635
422.393
422.703
334.276
332.576
331.274
331.366
333.509
336.562
339.152
341.203
343.12
345.107
347.087
349.022
350.902
352.724
354.493
356.21
357.86
359.421
360.855
362.135
363.106
363.925
361.793
286.829
268.33
227.779
197.799
203.158
223.179
255.468
323.5
433.591
491.942
525.327
589.401
627.45
656.544
660.977
566.931
479.706
637.708
883.34
269.145
243.999
199.629
181.746
192.196
214.73
245.911
290.252
382.048
427.48
460.165
533.487
582.824
621.145
620.866
504.187
385.924
533.24
810.568
262.967
224.323
188.23
176.906
189.097
210.95
228.833
239.956
287.378
308.107
341.33
434.274
523.916
590.117
594.362
435.922
275.022
401.662
720.813
254.972
212.352
185.623
174.728
186.148
198.571
186.618
164.803
165.485
172.545
209.914
313.431
434.879
538.568
548.958
366.056
171.106
262.464
619.88
240.983
208.369
185.981
174.407
178.435
166.299
128.239
83.232
48.661
25.3427
59.8816
174.067
322.994
455.976
474.31
295.58
86.9595
140.971
518.557
229.114
208.739
187.174
170.521
152.434
117.142
66.2578
22.6083
8.30284
5.27543
7.84814
45.7129
193.638
349.994
380.495
223.7
24.3033
55.916
434.395
222.91
204.886
177.82
142.799
109.587
64.2594
19.2421
4.75921
4.5379
4.81261
5.32949
9.11374
78.7783
238.285
289.714
163.681
-10.8236
19.5314
384.273
198.089
181.421
145.997
101.668
66.8194
21.3315
4.07741
4.02372
4.33977
4.75165
5.20378
6.03475
18.6459
135.715
213.107
121.32
-16.2084
27.4921
374.694
237.402
233.996
231.145
230.717
235.373
240.576
244.554
247.51
250.031
252.344
254.546
256.66
258.687
260.637
262.528
264.353
266.069
267.602
268.778
269.343
268.386
265.03
253.388
114.866
112.176
110.358
111.208
114.813
118.649
120.792
122.163
124.397
126.575
128.58
130.621
132.725
134.854
136.986
139.072
141.037
142.769
144.103
144.774
144.474
142.515
138.656
29.5659
28.9047
26.7472
24.6557
25.3407
27.5016
28.5497
28.8423
30.5122
32.6739
33.9562
34.6086
35.2828
36.2631
37.4195
38.6477
39.8591
40.9838
41.9426
42.5551
42.7117
42.3487
41.1529
1.89637
1.85103
1.77235
1.87487
2.31955
2.44508
1.99444
1.8348
1.79196
1.79168
1.80678
1.81483
1.81583
1.81889
1.82702
1.83873
1.85247
1.86733
1.88257
1.89787
1.91243
1.92453
1.93469
1.55041
1.5254
1.48603
1.53837
1.56546
1.57287
1.58282
1.60369
1.6165
1.62675
1.64309
1.65648
1.66656
1.67959
1.69359
1.7081
1.72307
1.73827
1.75353
1.76854
1.78272
1.79585
1.80855
1.41123
1.39638
1.37838
1.39569
1.42084
1.43833
1.45925
1.47781
1.4936
1.50974
1.52249
1.53307
1.54284
1.55243
1.56297
1.57469
1.58744
1.60092
1.61484
1.62891
1.64305
1.65715
1.67157
1.32674
1.33085
1.32868
1.32584
1.32906
1.33351
1.33962
1.34754
1.35634
1.36701
1.37685
1.38678
1.39743
1.40886
1.42093
1.43354
1.44667
1.46028
1.4743
1.48871
1.50262
1.51582
1.52845
1.1884
1.19345
1.19049
1.18804
1.1892
1.19352
1.19968
1.20708
1.21544
1.22457
1.23416
1.24411
1.25452
1.26556
1.27725
1.28958
1.30247
1.3158
1.32941
1.34533
1.35862
1.37127
1.38364
1.043
1.04379
1.0457
1.047
1.04939
1.05317
1.05818
1.06433
1.07149
1.07953
1.08833
1.09782
1.10798
1.11881
1.13031
1.14246
1.15523
1.16854
1.1824
1.19687
1.211
1.22449
1.23732
0.897422
0.899136
0.899394
0.900643
0.903093
0.906699
0.9114
0.917127
0.923808
0.931371
0.93975
0.948894
0.958769
0.969349
0.980612
0.992537
1.00508
1.0182
1.03185
1.04611
1.0614
1.07681
1.0917
0.746092
0.746918
0.747801
0.749525
0.752243
0.755933
0.760571
0.766136
0.772597
0.779918
0.788063
0.796997
0.806687
0.817106
0.828229
0.840032
0.852488
0.865564
0.879262
0.893539
0.909063
0.925636
0.942141
0.590869
0.59171
0.592801
0.594758
0.597627
0.601384
0.606024
0.611542
0.617923
0.625148
0.633194
0.642037
0.651653
0.66202
0.673121
0.684939
0.697465
0.710694
0.724636
0.739329
0.754461
0.771066
0.788287
0.432321
0.43313
0.434349
0.436451
0.439429
0.443263
0.447948
0.453485
0.459865
0.467079
0.475111
0.483947
0.49357
0.503964
0.515118
0.527021
0.539668
0.553055
0.567185
0.582064
0.597691
0.614161
0.631611
0.27038
0.271187
0.272515
0.274725
0.277792
0.2817
0.286447
0.292034
0.298457
0.30571
0.313783
0.322666
0.332348
0.342818
0.354068
0.366092
0.378885
0.392445
0.406771
0.421865
0.437729
0.454362
0.471753
0.105071
0.105884
0.107311
0.109611
0.112758
0.116742
0.121562
0.127218
0.133709
0.141031
0.149179
0.158145
0.167921
0.1785
0.189875
0.202044
0.215003
0.228747
0.243273
0.258575
0.274648
0.29148
0.309053
-0.0636129
-0.0627838
-0.0612699
-0.0588908
-0.0556678
-0.0516072
-0.0467085
-0.0409711
-0.0343956
-0.0269836
-0.0187387
-0.0096656
0.000230002
0.010943
0.0224696
0.0348067
0.0479515
0.0619
0.0766466
0.0921841
0.108505
0.125598
0.143452
-0.235678
-0.234826
-0.233239
-0.23079
-0.227495
-0.223358
-0.218378
-0.212553
-0.205884
-0.19837
-0.190013
-0.180816
-0.170782
-0.159915
-0.148218
-0.135691
-0.122338
-0.108163
-0.0931692
-0.0773646
-0.0607559
-0.0433517
-0.0251599
-0.411152
-0.410276
-0.408627
-0.406115
-0.402753
-0.398541
-0.393479
-0.387564
-0.380796
-0.373173
-0.364695
-0.355363
-0.345179
-0.334145
-0.322261
-0.309529
-0.295951
-0.281527
-0.266263
-0.250164
-0.233234
-0.215479
-0.196906
-0.590063
-0.589164
-0.587465
-0.584898
-0.581474
-0.577192
-0.57205
-0.566046
-0.559178
-0.551444
-0.542842
-0.533371
-0.523031
-0.511823
-0.499745
-0.486797
-0.47298
-0.458295
-0.442743
-0.426328
-0.40905
-0.390916
-0.371927
-0.772447
-0.771531
-0.769791
-0.767178
-0.763698
-0.759351
-0.754136
-0.748047
-0.741084
-0.733241
-0.724516
-0.714907
-0.704413
-0.69303
-0.680757
-0.667592
-0.653532
-0.638578
-0.62273
-0.605986
-0.588347
-0.569812
-0.550385
-0.958345
-0.957417
-0.955646
-0.952995
-0.949469
-0.945066
-0.939785
-0.93362
-0.926569
-0.918625
-0.909785
-0.900046
-0.889404
-0.877854
-0.865393
-0.852017
-0.83772
-0.822501
-0.806357
-0.789284
-0.771279
-0.752337
-0.732461
-1.1478
-1.14686
-1.14507
-1.14239
-1.13883
-1.13438
-1.12905
-1.12282
-1.11569
-1.10766
-1.09872
-1.08886
-1.07809
-1.06639
-1.05375
-1.04018
-1.02566
-1.01019
-0.993767
-0.976377
-0.958015
-0.938676
-0.918355
-1.34084
-1.33991
-1.3381
-1.3354
-1.33182
-1.32734
-1.32196
-1.31568
-1.3085
-1.3004
-1.29138
-1.28143
-1.27054
-1.25871
-1.24593
-1.23219
-1.21748
-1.20179
-1.1851
-1.16742
-1.14873
-1.12902
-1.10828
-1.5375
-1.53657
-1.53476
-1.53206
-1.52846
-1.52397
-1.51857
-1.51226
-1.50504
-1.4969
-1.48782
-1.47781
-1.46684
-1.45492
-1.44203
-1.42816
-1.41329
-1.39742
-1.38052
-1.36259
-1.34362
-1.32358
-1.30247
-1.73781
-1.73689
-1.73508
-1.73238
-1.72879
-1.72429
-1.7189
-1.71259
-1.70536
-1.6972
-1.6881
-1.67806
-1.66706
-1.65509
-1.64214
-1.62818
-1.61321
-1.59721
-1.58016
-1.56205
-1.54285
-1.52255
-1.50113
-1.94176
-1.94084
-1.93905
-1.93637
-1.9328
-1.92833
-1.92295
-1.91667
-1.90947
-1.90133
-1.89226
-1.88224
-1.87125
-1.85929
-1.84633
-1.83236
-1.81735
-1.8013
-1.78417
-1.76595
-1.74662
-1.72614
-1.7045
-2.14934
-2.14844
-2.14666
-2.14401
-2.14048
-2.13606
-2.13074
-2.12451
-2.11738
-2.10931
-2.10031
-2.09037
-2.07945
-2.06756
-2.05467
-2.04075
-2.0258
-2.00977
-1.99266
-1.97444
-1.95507
-1.93453
-1.91279
-2.36052
-2.35963
-2.35789
-2.35528
-2.35181
-2.34746
-2.34223
-2.3361
-2.32907
-2.32113
-2.31226
-2.30245
-2.29168
-2.27993
-2.26718
-2.25342
-2.2386
-2.22272
-2.20574
-2.18763
-2.16836
-2.14789
-2.1262
-2.57524
-2.57436
-2.57266
-2.57012
-2.56673
-2.56248
-2.55737
-2.55138
-2.54451
-2.53674
-2.52807
-2.51846
-2.50791
-2.49639
-2.48389
-2.47037
-2.45581
-2.44019
-2.42346
-2.40561
-2.38658
-2.36635
-2.34487
-2.79342
-2.79256
-2.79091
-2.78845
-2.78517
-2.78105
-2.77609
-2.77029
-2.76363
-2.75609
-2.74768
-2.73835
-2.7281
-2.71691
-2.70475
-2.69159
-2.67741
-2.66218
-2.64586
-2.62841
-2.6098
-2.58999
-2.56892
-3.01496
-3.01412
-3.01253
-3.01016
-3.007
-3.00305
-2.99829
-2.99272
-2.98632
-2.97908
-2.97099
-2.96203
-2.95218
-2.94141
-2.9297
-2.91702
-2.90335
-2.88865
-2.87289
-2.85603
-2.83803
-2.81883
-2.7984
-3.2397
-3.23889
-3.23737
-3.23511
-3.2321
-3.22834
-3.22381
-3.21852
-3.21245
-3.20557
-3.19789
-3.18937
-3.18
-3.16976
-3.15862
-3.14655
-3.13353
-3.11952
-3.10448
-3.08838
-3.07118
-3.05282
-3.03327
-3.46746
-3.46669
-3.46524
-3.4631
-3.46027
-3.45673
-3.45249
-3.44753
-3.44183
-3.43539
-3.42819
-3.4202
-3.41141
-3.4018
-3.39134
-3.38
-3.36777
-3.3546
-3.34046
-3.32531
-3.30912
-3.29183
-3.27339
-3.698
-3.69728
-3.69592
-3.69394
-3.69131
-3.68805
-3.68413
-3.67955
-3.6743
-3.66835
-3.6617
-3.65432
-3.64621
-3.63733
-3.62766
-3.61719
-3.60588
-3.5937
-3.58062
-3.56661
-3.55163
-3.53563
-3.51857
-3.93104
-3.93041
-3.92917
-3.92738
-3.925
-3.92205
-3.91851
-3.91436
-3.9096
-3.90421
-3.89818
-3.8915
-3.88414
-3.87609
-3.86733
-3.85783
-3.84758
-3.83653
-3.82468
-3.81198
-3.79839
-3.7839
-3.76844
-4.1663
-4.16576
-4.16468
-4.16312
-4.16102
-4.15842
-4.15529
-4.15162
-4.14741
-4.14264
-4.1373
-4.13138
-4.12486
-4.11773
-4.10996
-4.10155
-4.09246
-4.08268
-4.07218
-4.06094
-4.04892
-4.03611
-4.02246
-4.40357
-4.40314
-4.40222
-4.40092
-4.39914
-4.39692
-4.39425
-4.3911
-4.38749
-4.38339
-4.3788
-4.3737
-4.36809
-4.36195
-4.35526
-4.34802
-4.3402
-4.33179
-4.32277
-4.31312
-4.30282
-4.29184
-4.28016
-4.64277
-4.64251
-4.64178
-4.64077
-4.63932
-4.63752
-4.63533
-4.63274
-4.62976
-4.62638
-4.62258
-4.61837
-4.61373
-4.60865
-4.60313
-4.59714
-4.59068
-4.58374
-4.5763
-4.56834
-4.55987
-4.55085
-4.54128
-4.88343
-4.88343
-4.88286
-4.88215
-4.88105
-4.87967
-4.87797
-4.87597
-4.87365
-4.87102
-4.86806
-4.86477
-4.86115
-4.85718
-4.85287
-4.84819
-4.84315
-4.83774
-4.83194
-4.82575
-4.81916
-4.81216
-4.80475
-5.12453
-5.12471
-5.12425
-5.12379
-5.12303
-5.12206
-5.12086
-5.11944
-5.11779
-5.11591
-5.1138
-5.11145
-5.10886
-5.10602
-5.10292
-5.09958
-5.09597
-5.09209
-5.08794
-5.08352
-5.07881
-5.07383
-5.06856
-5.36625
-5.36642
-5.36611
-5.3659
-5.36548
-5.36493
-5.36424
-5.36341
-5.36245
-5.36134
-5.36008
-5.35869
-5.35714
-5.35545
-5.3536
-5.3516
-5.34944
-5.34713
-5.34465
-5.34201
-5.33921
-5.33624
-5.33311
-5.61273
-5.61333
-5.61328
-5.61336
-5.61334
-5.61327
-5.61315
-5.61298
-5.61276
-5.6125
-5.61219
-5.61185
-5.61146
-5.61103
-5.61056
-5.61005
-5.6095
-5.60891
-5.60827
-5.6076
-5.60689
-5.60614
-5.60536
208.263
230.948
217.506
183.515
120.87
103.516
88.9894
73.1986
32.0389
20.3099
14.8614
10.4462
1.96549
2.05258
2.15743
2.29181
1.83936
1.91644
2.00745
2.13393
1.70381
1.7764
1.87231
1.97758
1.55632
1.62244
1.7215
1.8203
1.40801
1.47264
1.5768
1.66968
1.26618
1.33276
1.42378
1.5128
1.12568
1.19319
1.27526
1.35979
0.979531
1.04777
1.1251
1.20642
0.827447
0.896315
0.971901
1.05208
0.671244
0.740688
0.816304
0.896639
0.511938
0.582159
0.658651
0.740019
0.349716
0.421093
0.499011
0.582076
0.184824
0.257457
0.337178
0.422553
0.0170326
0.0912403
0.173162
0.26147
-0.153789
-0.0777149
0.00673833
0.0983876
-0.327797
-0.249628
-0.162357
-0.066997
-0.50518
-0.424744
-0.334419
-0.235019
-0.686151
-0.603341
-0.509782
-0.406071
-0.870948
-0.785724
-0.688824
-0.580594
-1.05983
-0.97223
-0.871959
-0.759081
-1.25306
-1.16322
-1.05965
-0.942078
-1.45093
-1.35907
-1.25237
-1.13019
-1.65371
-1.56017
-1.45068
-1.32411
-1.86168
-1.76694
-1.65513
-1.52457
-2.0751
-1.97977
-1.86631
-1.73242
-2.2942
-2.19905
-2.08483
-1.94854
-2.51915
-2.42511
-2.31127
-2.17388
-2.75007
-2.65822
-2.54617
-2.4094
-2.98695
-2.89853
-2.78991
-2.65598
-3.2297
-3.14603
-3.04275
-2.91436
-3.47812
-3.40057
-3.30466
-3.18494
-3.73182
-3.66168
-3.57517
-3.46744
-3.99015
-3.92855
-3.85319
-3.76054
-4.25258
-4.20039
-4.13752
-4.06231
-4.51872
-4.47651
-4.42682
-4.37008
-4.78733
-4.75516
-4.71843
-4.67921
-5.05618
-5.03367
-5.0088
-4.98438
-5.32579
-5.31264
-5.29859
-5.2861
-5.60355
-5.60046
-5.59762
-5.59624
139.053
115.147
87.7747
50.9365
29.6554
5.03781
3.60905
3.82602
4.21174
4.64333
5.13972
5.64127
7.2702
32.9579
110.355
81.2369
12.0394
103.954
417.782
52.962
41.5611
21.1626
3.18269
2.98109
3.21943
3.37721
3.62895
3.98712
4.4421
5.02408
5.89983
7.37876
10.9059
48.4027
73.1914
100.793
262.243
515.284
3.5001
2.6003
2.64657
2.8174
2.8738
2.99177
3.14634
3.36662
3.69004
4.13909
4.68721
5.74094
7.93187
12.2022
20.4949
49.6268
110.419
312.698
544.102
2.43257
2.47457
2.52949
2.662
2.71504
2.78754
2.91089
3.07583
3.32002
3.6154
3.49784
2.80899
4.80155
12.1652
25.5551
38.2043
56.8664
243.61
476.178
2.26093
2.32813
2.3843
2.47423
2.53389
2.60299
2.70199
2.8104
2.9306
2.97907
2.18124
-0.935884
-5.55606
1.44641
26.4178
40.0072
33.1634
147.694
363.596
2.08475
2.1551
2.22186
2.296
2.36225
2.43119
2.50151
2.56056
2.57754
2.4303
1.42238
-1.2207
-2.4495
0.652971
13.4263
33.5296
27.6434
117.98
273.121
1.91426
1.98695
2.06066
2.13142
2.19473
2.24947
2.29765
2.32351
2.28314
2.05393
1.16978
-0.731009
-1.7472
0.219598
3.75989
19.6722
40.6029
131.798
219.019
1.75189
1.82651
1.89793
1.96487
2.02412
2.06826
2.09939
2.10427
2.03998
1.79459
1.08519
-0.305994
-1.34145
-0.779553
-2.74219
11.3547
63.6437
143.879
193.483
1.59446
1.66731
1.73624
1.79912
1.85051
1.89118
1.9115
1.90328
1.83282
1.61546
1.06492
0.12751
-0.45707
0.173228
-0.170451
0.493436
70.4584
145.932
177.725
1.43856
1.50944
1.57637
1.63697
1.68696
1.72292
1.73784
1.72375
1.65674
1.48577
1.13376
0.553662
0.315252
0.707157
0.999558
-1.51549
67.3255
140.7
164.296
1.28336
1.35287
1.41867
1.47857
1.52841
1.56396
1.57937
1.56796
1.51433
1.39471
1.21108
0.908626
0.825042
1.09791
1.33861
0.260746
60.1453
134.357
152.228
1.12834
1.19749
1.26376
1.32399
1.37535
1.41373
1.43444
1.4327
1.4003
1.32951
1.25458
1.13299
1.10997
1.3596
1.69524
1.75194
50.5738
128.8
140.516
0.973214
1.04287
1.11035
1.17272
1.2273
1.2708
1.29983
1.31146
1.3029
1.27395
1.26146
1.22831
1.22781
1.48206
1.79971
1.8585
35.3726
119.269
128.315
0.817807
0.888769
0.958748
1.02428
1.08335
1.13338
1.17212
1.1982
1.21182
1.21716
1.2363
1.23863
1.25432
1.47207
1.74343
2.19875
18.726
102.006
116.405
0.661969
0.736299
0.808583
0.878026
0.942462
0.99979
1.04854
1.08843
1.12033
1.14912
1.18752
1.20696
1.2338
1.38374
1.56481
1.97478
8.27405
84.1356
105.763
0.505043
0.582329
0.659043
0.733231
0.803661
0.868715
0.927184
0.979546
1.02597
1.07002
1.11952
1.15313
1.18028
1.26485
1.34092
1.36303
3.38936
64.0649
94.4287
0.347345
0.428063
0.509188
0.589007
0.666166
0.739195
0.80676
0.87076
0.928598
0.983098
1.03862
1.08349
1.10905
1.14306
1.17027
1.02075
1.79674
29.3019
81.7864
0.188114
0.272963
0.359202
0.44519
0.529522
0.610793
0.687862
0.760738
0.828758
0.892014
0.951748
1.00404
1.03365
1.0528
1.05062
0.93743
1.18447
3.61131
69.843
0.0270502
0.116573
0.208528
0.301172
0.393074
0.482772
0.568996
0.650984
0.728133
0.799416
0.864453
0.921852
0.960309
0.987171
0.995509
0.970451
0.975467
-0.704122
59.0185
-0.136201
-0.041345
0.0566709
0.156446
0.25636
0.354793
0.450268
0.54158
0.627831
0.707479
0.779442
0.842611
0.890724
0.926483
0.93871
0.896142
0.8707
-0.00710085
49.2809
-0.302115
-0.201544
-0.0969196
0.0105171
0.118951
0.226562
0.331647
0.432699
0.528541
0.617453
0.697974
0.768739
0.826068
0.868467
0.897785
0.839632
0.889371
0.692856
40.6312
-0.471202
-0.364616
-0.252815
-0.137133
-0.0195916
0.0977655
0.212991
0.32439
0.430597
0.529889
0.620549
0.700816
0.768478
0.816928
0.879561
0.791235
0.940586
0.529524
32.2696
-0.643995
-0.531009
-0.411562
-0.287058
-0.159748
-0.0319765
0.0940302
0.216476
0.333971
0.444867
0.547287
0.638972
0.719477
0.772898
0.876154
0.754713
0.970248
0.48542
23.6353
-0.821101
-0.701355
-0.5736
-0.439841
-0.302046
-0.163137
-0.0256805
0.108512
0.238263
0.362087
0.477963
0.582908
0.67835
0.73773
0.875929
0.741023
0.993731
0.535476
15.3677
-1.00323
-0.876462
-0.740106
-0.596237
-0.447113
-0.296303
-0.146791
-0.000280836
0.142641
0.280831
0.411984
0.532067
0.643811
0.713515
0.875216
0.756541
1.01859
0.576226
9.04094
-1.19117
-1.05718
-0.911689
-0.756735
-0.595689
-0.432217
-0.270215
-0.111131
0.0457121
0.199878
0.348413
0.485797
0.615326
0.699708
0.879997
0.814161
1.06658
0.640857
1.44633
-1.38586
-1.24454
-1.08946
-0.922861
-0.74863
-0.571704
-0.397143
-0.225839
-0.0546549
0.117352
0.285912
0.44317
0.592249
0.693703
0.88856
0.909132
1.1463
1.0153
5.0307
-1.58833
-1.43977
-1.27467
-1.09549
-0.906746
-0.715728
-0.529345
-0.347219
-0.16185
0.0302822
0.222353
0.402555
0.572526
0.690042
0.878513
0.999403
1.23614
0.550609
21.0893
-1.7998
-1.64433
-1.46892
-1.27609
-1.07109
-0.865067
-0.669626
-0.480277
-0.282011
-0.0666424
0.153991
0.361554
0.553625
0.684132
0.813326
0.981969
0.304755
-6.63809
-6.91026
-2.02165
-1.86004
-1.67425
-1.46663
-1.24307
-1.02148
-0.823191
-0.633786
-0.42525
-0.182666
0.0730373
0.315341
0.533789
0.681234
0.775911
0.914567
0.848396
-10.0771
-8.50068
-2.25544
-2.08904
-1.89337
-1.66981
-1.42354
-1.18617
-0.993518
-0.822084
-0.60699
-0.330372
-0.0302791
0.257712
0.510946
0.674489
0.762065
0.860622
0.847962
-10.7777
-8.63703
-2.50283
-2.33397
-2.13013
-1.88988
-1.61446
-1.36645
-1.20919
-1.07127
-0.85022
-0.535897
-0.181447
0.173426
0.481374
0.672402
0.76099
0.809528
0.773353
-8.41705
-8.01107
-2.76547
-2.5979
-2.38957
-2.13404
-1.82272
-1.57593
-1.49824
-1.43426
-1.20503
-0.852251
-0.432774
0.0221528
0.427568
0.666572
0.764617
0.778588
0.403615
-2.75654
-6.23289
-3.04482
-2.88416
-2.67744
-2.41377
-2.0449
-1.82565
-1.89856
-1.87018
-1.58221
-1.19707
-0.751996
-0.227686
0.325372
0.64755
0.763942
0.696226
-2.06977
-4.49714
-5.7716
-3.34144
-3.19554
-3.00277
-2.75501
-2.27519
-2.15685
-2.8252
-2.94232
-2.52433
-1.94114
-1.13689
-0.593252
0.148475
0.593242
0.757025
0.0485842
-5.80048
-6.12916
-5.97658
-3.65411
-3.53188
-3.37301
-3.20016
-2.61317
-3.20616
-5.58896
-6.10637
-6.3934
-5.01401
-2.25696
-1.31358
-0.152393
0.489372
0.732628
0.376184
-4.83301
-6.27206
-5.94825
-3.97987
-3.88876
-3.77654
-3.67007
-3.29047
-4.49797
-6.94996
-7.76446
-8.94842
-9.5584
-4.83323
-2.54227
-0.699842
0.232566
0.258619
-2.93899
-3.507
-6.05757
-5.95548
-4.31383
-4.26031
-4.22637
-4.19142
-4.34756
-5.3171
-8.38467
-9.11452
-9.67274
-11.1488
-7.08249
-3.98707
-1.55825
-0.267947
-0.350208
-5.92699
-6.92246
-6.03574
-6.0403
-4.64685
-4.62706
-4.65349
-4.705
-5.26586
-5.58988
-8.20281
-9.40533
-9.93321
-11.9539
-8.87509
-5.79309
-3.01647
-1.04381
-0.926129
-7.15871
-7.11296
-6.09803
-6.05616
-4.96961
-4.97211
-5.02786
-5.16459
-5.6608
-6.256
-7.08784
-8.60592
-9.80164
-12.4591
-10.7171
-9.14682
-7.26385
-4.62899
-3.53468
-3.42031
-5.73376
-5.99058
-6.01349
-5.28208
-5.29322
-5.34611
-5.46556
-5.78755
-6.2269
-6.80201
-7.29495
-8.69694
-11.5776
-11.7628
-13.1285
-24.9112
-10.5914
-2.08954
-5.74244
-5.81277
-6.04652
-6.06371
-5.59921
-5.60974
-5.64003
-5.70085
-5.85614
-6.08825
-6.53445
-6.71248
-7.17609
-10.9797
-13.4726
-13.5913
-48.7956
-20.1751
-7.731
-6.57893
-6.11932
-6.14403
-6.11664
)
;

boundaryField
{
    leftWall
    {
        type            calculated;
        value           nonuniform List<scalar> 
50
(
756.831
697.776
638.424
578.753
518.67
457.988
396.47
334.276
237.402
114.866
29.5659
1.89637
1.55041
1.41123
1.32674
1.1884
1.043
0.897422
0.746092
0.590869
0.432321
0.27038
0.105071
-0.0636129
-0.235678
-0.411152
-0.590063
-0.772447
-0.958345
-1.1478
-1.34084
-1.5375
-1.73781
-1.94176
-2.14934
-2.36052
-2.57524
-2.79342
-3.01496
-3.2397
-3.46746
-3.698
-3.93104
-4.1663
-4.40357
-4.64277
-4.88343
-5.12453
-5.36625
-5.61273
)
;
    }
    rightWall
    {
        type            calculated;
        value           nonuniform List<scalar> 
50
(
883.34
810.568
720.813
619.88
518.557
434.395
384.273
374.694
417.782
515.284
544.102
476.178
363.596
273.121
219.019
193.483
177.725
164.296
152.228
140.516
128.315
116.405
105.763
94.4287
81.7864
69.843
59.0185
49.2809
40.6312
32.2696
23.6353
15.3677
9.04094
1.44633
5.0307
21.0893
-6.91026
-8.50068
-8.63703
-8.01107
-6.23289
-5.7716
-5.97658
-5.94825
-5.95548
-6.0403
-6.05616
-6.01349
-6.06371
-6.11664
)
;
    }
    lowerWall
    {
        type            calculated;
        value           nonuniform List<scalar> 
62
(
786.26
786.224
786.448
786.847
787.251
787.617
787.996
788.49
789.168
790.045
791.093
792.271
793.545
794.883
796.253
797.609
798.888
799.999
800.776
801.21
801.504
802.121
803.051
773.622
714.473
656.605
598.9
540.799
482.308
422.703
361.793
270.86
293.543
280.087
246.07
286.829
269.145
262.967
254.972
240.983
229.114
222.91
198.089
295.405
276.906
236.354
205.712
209.848
230.161
262.231
334.806
446.973
508.735
549.677
613.051
646.883
675.977
684.122
593.398
506.293
664.221
909.68
)
;
    }
    atmosphere
    {
        type            calculated;
        value           nonuniform List<scalar> 
46
(
-5.74013
-5.74269
-5.74244
-5.74265
-5.74285
-5.74304
-5.74324
-5.74345
-5.74367
-5.74391
-5.74416
-5.74444
-5.74473
-5.74505
-5.7454
-5.74577
-5.74616
-5.74659
-5.74705
-5.74754
-5.74807
-5.74864
-5.74926
-5.7507
-5.7536
-5.75735
-5.76231
-5.76859
-5.77654
-5.79001
-5.8071
-5.87549
-5.97074
-6.37604
-6.56721
-6.7337
-13.0453
-12.6228
-10.7881
-113.116
-33.2646
-6.70584
-6.1274
-6.01006
-6.12134
-6.12504
)
;
    }
    defaultFaces
    {
        type            empty;
    }
}


// ************************************************************************* //
