/*--------------------------------*- C++ -*----------------------------------*\
| =========                 |                                                 |
| \\      /  F ield         | OpenFOAM: The Open Source CFD Toolbox           |
|  \\    /   O peration     | Version:  2206                                  |
|   \\  /    A nd           | Website:  www.openfoam.com                      |
|    \\/     M anipulation  |                                                 |
\*---------------------------------------------------------------------------*/
FoamFile
{
    version     2.0;
    format      ascii;
    arch        "LSB;label=32;scalar=64";
    class       volScalarField;
    location    "0.65";
    object      p_rgh;
}
// * * * * * * * * * * * * * * * * * * * * * * * * * * * * * * * * * * * * * //

dimensions      [1 -1 -2 0 0 0 0];

internalField   nonuniform List<scalar> 
2268
(
786.26
786.224
786.448
786.847
787.251
787.617
787.996
788.49
789.168
790.045
791.093
792.271
793.545
794.883
796.253
797.609
798.888
799.999
800.776
801.21
801.504
802.121
803.051
786.065
785.97
786.199
786.592
787.003
787.374
787.763
788.276
788.979
789.876
790.943
792.139
793.425
794.769
796.143
797.514
798.826
799.957
800.709
800.927
801.012
801.631
802.761
785.57
785.469
785.679
786.052
786.481
786.861
787.277
787.838
788.604
789.573
790.709
791.965
793.297
794.668
796.046
797.396
798.667
799.804
800.735
801.428
802.103
802.845
803.751
784.758
784.666
784.856
785.219
785.651
786.048
786.513
787.162
788.038
789.124
790.367
791.713
793.116
794.543
795.966
797.354
798.67
799.877
800.956
801.927
802.883
803.862
804.905
783.535
783.455
783.618
784.026
784.524
784.978
785.493
786.256
787.292
788.544
789.939
791.409
792.914
794.424
795.918
797.375
798.771
800.077
801.277
802.386
803.476
804.579
805.663
781.711
781.521
781.587
782.084
782.884
783.608
784.287
785.185
786.414
787.874
789.453
791.079
792.707
794.317
795.899
797.439
798.92
800.322
801.627
802.836
803.983
805.092
806.031
779.052
778.315
777.909
778.364
779.789
781.396
782.735
783.98
785.474
787.174
788.956
790.746
792.507
794.227
795.902
797.53
799.097
800.582
801.956
803.185
804.217
804.975
805.285
775.717
774.016
772.714
772.807
774.949
778.002
780.593
782.643
784.56
786.547
788.527
790.463
792.342
794.164
795.934
797.65
799.3
800.861
802.296
803.575
804.546
805.366
803.233
295.405
276.906
236.354
205.712
209.848
230.161
262.231
334.806
446.973
508.735
549.677
613.051
646.883
675.977
684.122
593.398
506.293
664.221
909.68
294.873
269.725
211.967
185.224
195.689
218.245
249.554
331.535
454.608
512.415
545.498
618.674
649.942
679.522
695.73
583.95
465.966
613.576
893.199
305.833
266.88
193.976
182.652
194.843
216.797
292.269
375.33
429.499
450.328
483.565
576.52
666.145
695.6
702.948
568.669
407.74
524.41
859.782
314.901
259.306
193.748
182.772
194.273
268.135
365.89
360.001
363.412
371.542
409.054
512.569
634.023
733.995
707.759
541.011
309.622
404.307
814.437
317.718
222.68
196.579
184.852
245.384
391.336
369.36
326.957
240.575
178.94
272.622
430.101
578.907
711.575
711.309
530.678
261.267
315.754
768.684
285.18
224.297
200.377
242.835
428.664
409.844
355.42
174.247
38.9454
5.68907
30.1027
268.08
506.041
661.808
691.726
517.592
237.345
268.958
738.332
292.156
260.857
316.673
487.32
463.381
414.708
211.318
8.9183
5.00646
5.19972
5.75412
33.3167
403.409
606.103
656.439
422.908
240.953
277.469
745.964
467.143
509.978
568.295
519.48
479.431
264.486
10.0206
4.53079
4.78354
5.19326
5.64644
6.52469
210.555
558.241
635.429
479.541
274.613
416.441
795.602
770.869
767.463
764.612
764.184
768.832
774.033
778.015
780.974
783.497
785.81
788.013
790.127
792.154
794.104
795.995
797.82
799.536
801.069
802.245
802.81
801.853
798.497
786.855
773.528
770.837
762.689
750.176
738.781
746.288
760.995
768.985
776.351
782.165
785.494
788.139
790.67
793.14
795.513
797.722
799.696
801.428
802.762
803.434
803.135
801.177
797.317
376.398
368.802
339.59
299.275
299.417
327.579
351.022
364.89
389.613
418.093
435.169
444.663
454.136
467.138
482.413
498.624
514.586
529.294
541.685
549.31
550.899
544.228
528.665
2.80572
2.76092
2.68194
4.80268
16.4743
18.6202
9.26463
2.74385
2.70101
2.70074
2.71584
2.72388
2.72488
2.72794
2.73607
2.74778
2.76152
2.77638
2.79162
2.80692
2.82148
2.83358
2.84374
2.58494
2.55974
2.52027
2.57262
2.5997
2.60712
2.61707
2.63794
2.65075
2.66099
2.67734
2.69072
2.70081
2.71383
2.72783
2.74235
2.75731
2.77252
2.78778
2.80278
2.81696
2.8301
2.84279
2.57099
2.55583
2.53782
2.55513
2.58028
2.59777
2.61869
2.63725
2.65304
2.66918
2.68193
2.69251
2.70228
2.71187
2.72241
2.73413
2.74688
2.76036
2.77428
2.78835
2.80249
2.81659
2.83134
2.6115
2.61548
2.61332
2.61047
2.6137
2.61815
2.62425
2.63217
2.64097
2.65165
2.66149
2.67141
2.68206
2.69349
2.70556
2.71817
2.73131
2.74491
2.75893
2.77334
2.78872
2.81211
2.83804
2.59823
2.60328
2.60032
2.59787
2.59903
2.60335
2.60951
2.61691
2.62527
2.6344
2.64398
2.65394
2.66435
2.67538
2.68708
2.69941
2.7123
2.72562
2.73924
2.7629
2.79967
2.82655
2.83893
2.57803
2.57881
2.58072
2.58202
2.58441
2.58819
2.59321
2.59935
2.60651
2.61455
2.62335
2.63284
2.643
2.65384
2.66534
2.67749
2.69025
2.70356
2.7176
2.76911
2.79554
2.80903
2.82176
2.55764
2.55935
2.55961
2.56086
2.56331
2.56692
2.57162
2.57735
2.58403
2.59159
2.59997
2.60911
2.61899
2.62957
2.64083
2.65275
2.6653
2.67841
2.69229
2.74453
2.77517
2.79055
2.77233
2.5315
2.53233
2.53321
2.53494
2.53766
2.54135
2.54598
2.55155
2.55801
2.56533
2.57348
2.58241
2.5921
2.60252
2.61364
2.62544
2.6379
2.65098
2.66468
2.68075
2.73366
2.75551
2.73296
2.50148
2.50232
2.50341
2.50537
2.50823
2.51199
2.51663
2.52215
2.52853
2.53575
2.5438
2.55264
2.56226
2.57263
2.58373
2.59555
2.60807
2.62133
2.63526
2.64994
2.66507
2.68167
2.70387
2.46812
2.46893
2.47015
2.47225
2.47523
2.47906
2.48375
2.48929
2.49567
2.50288
2.51091
2.51975
2.52937
2.53977
2.55092
2.56282
2.57547
2.58889
2.60302
2.61787
2.63349
2.64996
2.66741
2.43138
2.43218
2.43351
2.43572
2.43879
2.4427
2.44744
2.45303
2.45945
2.46671
2.47478
2.48366
2.49334
2.50381
2.51506
2.52709
2.53988
2.55344
2.56777
2.58286
2.59873
2.61536
2.63275
2.39126
2.39207
2.3935
2.3958
2.39895
2.40293
2.40775
2.41341
2.4199
2.42722
2.43537
2.44434
2.45411
2.46469
2.47607
2.48823
2.50119
2.51494
2.52946
2.54477
2.56084
2.57767
2.59525
2.34777
2.3486
2.35012
2.35249
2.35572
2.35978
2.36468
2.37041
2.37699
2.3844
2.39265
2.40172
2.41161
2.42233
2.43385
2.44619
2.45934
2.47329
2.48803
2.50357
2.51989
2.53699
2.55484
2.3009
2.30175
2.30334
2.30579
2.30908
2.31322
2.3182
2.32403
2.3307
2.33821
2.34657
2.35576
2.3658
2.37666
2.38836
2.40089
2.41424
2.42842
2.44341
2.45922
2.47582
2.49323
2.51142
2.25062
2.2515
2.25315
2.25566
2.25902
2.26323
2.2683
2.27421
2.28098
2.2886
2.29708
2.30641
2.31659
2.32763
2.33951
2.35224
2.36582
2.38025
2.39551
2.41161
2.42854
2.4463
2.46487
2.19691
2.1978
2.1995
2.20207
2.20549
2.20978
2.21492
2.22092
2.22779
2.23552
2.24413
2.2536
2.26394
2.27515
2.28722
2.30017
2.31399
2.32867
2.34423
2.36064
2.37792
2.39605
2.41504
2.13972
2.14063
2.14237
2.14499
2.14847
2.15281
2.15803
2.16412
2.17108
2.17892
2.18765
2.19726
2.20775
2.21913
2.23141
2.24457
2.25863
2.27358
2.28943
2.30618
2.32382
2.34235
2.36178
2.07901
2.07994
2.08171
2.08436
2.08789
2.09229
2.09757
2.10374
2.11079
2.11873
2.12757
2.13731
2.14795
2.1595
2.17196
2.18534
2.19964
2.21486
2.231
2.24807
2.26608
2.28502
2.3049
2.01476
2.01569
2.01748
2.02016
2.02372
2.02817
2.03351
2.03974
2.04686
2.05489
2.06384
2.07369
2.08447
2.09617
2.1088
2.12237
2.13689
2.15236
2.16879
2.18618
2.20454
2.22388
2.2442
1.94691
1.94784
1.94965
1.95234
1.95593
1.96041
1.96579
1.97206
1.97925
1.98735
1.99637
2.00632
2.01721
2.02903
2.04181
2.05555
2.07027
2.08596
2.10264
2.12032
2.13901
2.15872
2.17946
1.87544
1.87637
1.87818
1.88088
1.88448
1.88897
1.89437
1.90068
1.9079
1.91604
1.92512
1.93513
1.9461
1.95802
1.97091
1.98478
1.99965
2.01553
2.03242
2.05035
2.06932
2.08936
2.11048
1.80033
1.80125
1.80306
1.80575
1.80935
1.81384
1.81924
1.82555
1.83278
1.84094
1.85003
1.86007
1.87107
1.88304
1.896
1.90995
1.92492
1.94092
1.95797
1.97609
1.99528
2.01558
2.037
1.72157
1.72249
1.72428
1.72696
1.73053
1.735
1.74038
1.74666
1.75386
1.762
1.77107
1.78109
1.79208
1.80404
1.817
1.83097
1.84598
1.86203
1.87916
1.89738
1.91672
1.93719
1.95883
1.63918
1.64009
1.64186
1.64451
1.64804
1.65247
1.65779
1.66401
1.67115
1.67921
1.68821
1.69816
1.70907
1.72097
1.73386
1.74777
1.76273
1.77875
1.79586
1.81409
1.83346
1.85399
1.87573
1.5532
1.55409
1.55583
1.55844
1.56191
1.56626
1.57149
1.57762
1.58465
1.59259
1.60146
1.61127
1.62204
1.63379
1.64654
1.6603
1.67512
1.691
1.70798
1.72609
1.74536
1.76583
1.78752
1.46367
1.46456
1.46625
1.46879
1.47218
1.47643
1.48154
1.48753
1.4944
1.50217
1.51085
1.52045
1.531
1.54252
1.55503
1.56855
1.5831
1.59873
1.61545
1.63331
1.65233
1.67256
1.69404
1.37069
1.37155
1.3732
1.37566
1.37894
1.38306
1.38802
1.39382
1.40048
1.40801
1.41643
1.42576
1.436
1.4472
1.45936
1.47252
1.4867
1.50193
1.51825
1.5357
1.55431
1.57412
1.59518
1.27435
1.27519
1.27677
1.27914
1.2823
1.28625
1.29101
1.29659
1.30298
1.31022
1.31831
1.32727
1.33712
1.34789
1.3596
1.37228
1.38595
1.40065
1.41641
1.43327
1.45128
1.47047
1.4909
1.1748
1.17561
1.17712
1.17939
1.1824
1.18616
1.19068
1.19598
1.20205
1.20892
1.21661
1.22513
1.23449
1.24474
1.25588
1.26795
1.28097
1.29498
1.31002
1.32611
1.34332
1.36167
1.38123
1.07223
1.073
1.07445
1.07659
1.07943
1.08296
1.0872
1.09216
1.09786
1.1043
1.11151
1.11949
1.12828
1.13789
1.14835
1.15969
1.17192
1.18509
1.19923
1.21438
1.23057
1.24786
1.2663
0.96689
0.967605
0.968965
0.970944
0.973575
0.976837
0.980753
0.985333
0.99059
0.996537
1.00319
1.01056
1.01868
1.02756
1.03722
1.0477
1.05901
1.07119
1.08426
1.09827
1.11326
1.12926
1.14632
0.859041
0.859673
0.86091
0.862696
0.86508
0.868031
0.871575
0.875721
0.880482
0.885869
0.891897
0.898582
0.905939
0.913988
0.922751
0.932248
0.942505
0.953547
0.965403
0.978105
0.991686
1.00619
1.02164
0.748977
0.749514
0.750598
0.752156
0.754256
0.756859
0.759987
0.763652
0.767863
0.772632
0.777972
0.783894
0.790414
0.797548
0.805313
0.81373
0.822818
0.8326
0.843097
0.854339
0.866351
0.879166
0.892815
0.6369
0.637334
0.638247
0.639546
0.641331
0.643549
0.646224
0.649366
0.652981
0.657081
0.661674
0.666771
0.672384
0.678525
0.685209
0.692452
0.700271
0.708681
0.717701
0.727352
0.737654
0.748631
0.760305
0.522899
0.523157
0.523889
0.524898
0.52634
0.528148
0.53034
0.532923
0.535903
0.539286
0.543081
0.547294
0.551934
0.557012
0.562539
0.568526
0.574985
0.581928
0.589369
0.597321
0.605799
0.614817
0.624385
0.407425
0.407425
0.407997
0.408711
0.409806
0.411194
0.412886
0.41489
0.417207
0.419842
0.422801
0.426089
0.429712
0.433677
0.437992
0.442666
0.447707
0.453122
0.45892
0.46511
0.4717
0.478697
0.486105
0.291528
0.291346
0.291808
0.292261
0.293022
0.293996
0.295192
0.296613
0.298261
0.300141
0.302254
0.304605
0.307198
0.310038
0.31313
0.316478
0.320088
0.323964
0.328112
0.332535
0.337239
0.342226
0.347498
0.174999
0.174825
0.17514
0.175351
0.17577
0.176321
0.177008
0.177835
0.178802
0.179911
0.181163
0.182562
0.184107
0.185802
0.187648
0.189647
0.191804
0.194119
0.196595
0.199235
0.202038
0.205005
0.208135
0.053717
0.0531129
0.0531624
0.0530798
0.0530992
0.0531721
0.053296
0.0534675
0.0536848
0.0539462
0.0542508
0.0545974
0.0549853
0.055414
0.0558834
0.0563935
0.0569446
0.0575366
0.0581692
0.0588418
0.0595528
0.0603004
0.0610819
741.73
764.398
750.838
716.626
777.224
738.966
701.886
656.712
407.669
248.415
173.222
111.366
2.87454
2.96163
3.06649
3.20088
2.87361
2.9507
3.0417
3.23351
2.86518
2.93601
3.03177
3.35015
2.87458
2.91482
3.0135
3.13828
2.86326
2.89963
2.98663
3.07951
2.80842
2.86779
2.9588
3.04782
2.7859
2.85341
2.93548
3.02001
2.77129
2.83348
2.91051
2.99183
2.74595
2.80853
2.88251
2.96269
2.70896
2.77751
2.85213
2.93244
2.67294
2.74316
2.81969
2.90103
2.63591
2.70728
2.78521
2.86827
2.59621
2.66884
2.74856
2.83394
2.55361
2.62782
2.70974
2.79805
2.50799
2.58406
2.66851
2.76016
2.45917
2.53734
2.62461
2.71997
2.40698
2.48742
2.57774
2.67714
2.35121
2.43402
2.52758
2.63129
2.2916
2.37683
2.47373
2.58196
2.22792
2.31552
2.41579
2.52867
2.15988
2.24972
2.3533
2.47086
2.08721
2.17907
2.28576
2.40794
2.00962
2.10316
2.21265
2.33922
1.92684
2.02158
2.1334
2.26395
1.83862
1.93395
2.04741
2.1813
1.74471
1.83986
1.95408
2.09038
1.64495
1.73899
1.85283
1.99023
1.53924
1.63108
1.74314
1.87991
1.42755
1.51597
1.62458
1.75852
1.30999
1.39367
1.49694
1.62534
1.18676
1.26432
1.36022
1.47995
1.05827
1.1284
1.21491
1.32264
0.92513
0.986724
1.06208
1.15474
0.787895
0.84008
0.902949
0.978159
0.646941
0.689154
0.738843
0.79558
0.503533
0.535695
0.572433
0.611651
0.359873
0.382379
0.407249
0.431669
0.215455
0.228611
0.242659
0.255144
0.0628931
0.0659793
0.0688259
0.0702009
671.735
646.521
607.418
487.692
262.426
18.2431
4.14341
4.35942
4.74523
5.17697
5.67341
6.17621
8.13398
331.313
619.897
582.758
441.435
591.498
926.884
579.215
453.77
215.26
3.84529
3.64182
3.87852
4.03588
4.28761
4.6458
5.10079
5.68298
6.56597
8.16009
18.4434
377.785
693.556
728.914
890.821
1143.93
13.8955
3.3902
3.43511
3.60371
3.65864
3.77564
3.93019
4.15048
4.4739
4.92297
5.47208
6.54516
8.83475
13.5913
39.7862
351.6
822.796
1060.86
1292.49
3.34208
3.38671
3.47746
3.62378
3.69198
3.72332
3.81994
3.98488
4.22909
4.52489
4.41523
4.32529
9.40912
16.2773
36.0982
54.8849
553.344
1105.96
1344.86
3.44428
3.55241
3.61031
3.6798
3.63869
3.63723
3.73623
3.84465
3.9649
4.01448
3.23495
0.312843
25.3111
102.746
60.3648
63.0201
245.371
1046.05
1352.67
3.45854
3.52879
3.39036
3.45544
3.52169
3.59063
3.66095
3.72
3.73701
3.5905
2.59478
0.0921242
10.4614
266.242
543.725
233.412
441.765
1142.36
1382.01
3.31994
3.28233
3.3453
3.41605
3.47937
3.53411
3.58229
3.60814
3.56779
3.33932
2.5252
0.98581
-0.113324
74.8186
867.071
986.371
714.989
1349.97
1447.65
3.16172
3.23634
3.30776
3.3747
3.43395
3.47809
3.50922
3.5141
3.44981
3.20487
2.56164
1.5291
0.295083
1.01356
268.551
1208.84
1039.34
1492.26
1541.86
3.12948
3.20234
3.27126
3.33415
3.38553
3.42621
3.44652
3.43831
3.36785
3.15049
2.61983
1.85815
1.29216
1.86459
69.0269
1325.5
1532.32
1614.07
1645.84
3.09878
3.16966
3.23659
3.29718
3.34718
3.38314
3.39805
3.38396
3.31696
3.14599
2.79887
2.2617
1.99817
2.38686
27.2982
996.039
1655.21
1728.58
1752.01
3.06877
3.13829
3.20408
3.26398
3.31383
3.34937
3.36479
3.35337
3.29974
3.18012
2.99813
2.69529
2.61119
2.88457
7.85256
811.071
1767.77
1841.98
1859.84
3.03895
3.10809
3.17437
3.23459
3.28595
3.32433
3.34504
3.34331
3.31091
3.24012
3.16519
3.04376
3.02067
4.27938
4.92586
662.436
1877.94
1956.17
1967.88
3.00902
3.07867
3.14615
3.20852
3.26311
3.3066
3.33563
3.34726
3.3387
3.30975
3.29726
3.26414
3.26366
4.72322
5.01737
362.006
1967.61
2066.37
2075.42
2.9788
3.04976
3.11974
3.18527
3.24435
3.29437
3.33312
3.35919
3.37281
3.37816
3.3973
3.39963
3.41535
4.25762
4.33437
169.407
1737.85
2168.85
2183.25
2.94816
3.02249
3.09477
3.16422
3.22865
3.28598
3.33473
3.37462
3.40652
3.43531
3.47371
3.49315
3.60368
3.72694
3.89385
41.5037
1264.27
2270.72
2292.35
2.91643
2.99371
3.07043
3.14462
3.21505
3.2801
3.33857
3.39093
3.43735
3.4814
3.5309
3.56452
3.69689
3.69583
3.76363
4.21089
609.617
2370.39
2400.75
2.88392
2.96464
3.04577
3.12559
3.20275
3.27577
3.34334
3.40734
3.46518
3.51968
3.5752
3.62007
3.71121
3.68662
3.70737
3.5722
150.199
2030.43
2507.85
2.84989
2.93474
3.02098
3.10696
3.1913
3.27257
3.34964
3.42251
3.49053
3.55379
3.61352
3.66582
3.6957
3.71471
3.71256
3.59975
33.4068
1558.89
2615.65
2.81402
2.90354
2.9955
3.08814
3.18004
3.26974
3.35596
3.43795
3.5151
3.58639
3.65142
3.70882
3.74728
3.77428
3.78265
3.75759
15.9285
1435.36
2724.56
2.77596
2.87082
2.96883
3.06861
3.16852
3.26696
3.36243
3.45374
3.53999
3.61964
3.69161
3.75477
3.80289
3.83892
3.85106
3.80849
7.23216
1378.4
2834.56
2.73524
2.83581
2.94044
3.04787
3.15631
3.26392
3.369
3.47006
3.5659
3.65481
3.73533
3.8061
3.86359
3.90613
3.93534
3.8772
3.92694
1197.49
2945.64
2.69135
2.79794
2.90974
3.02542
3.14296
3.26032
3.37554
3.48694
3.59315
3.69244
3.7831
3.86337
3.93116
3.97961
4.04224
3.9552
4.10336
1061.75
3056.98
2.64375
2.75674
2.87618
3.00069
3.128
3.25577
3.38178
3.50422
3.62172
3.73261
3.83503
3.92672
4.00723
4.06065
4.24583
4.04276
4.25824
953.116
3167.84
2.59184
2.71159
2.83934
2.9731
3.1109
3.2498
3.38726
3.52145
3.6512
3.77503
3.8909
3.99585
4.09129
4.15067
4.40139
4.18924
4.40694
866.525
3256.49
2.53491
2.66167
2.79803
2.9419
3.09102
3.24183
3.39134
3.53785
3.68078
3.81897
3.95012
4.0702
4.18195
4.25165
4.52906
4.57428
4.55727
789.951
3312.93
2.47216
2.60615
2.75164
2.90659
3.06764
3.23111
3.39312
3.5522
3.70904
3.86321
4.01174
4.14913
4.27866
4.36304
4.60124
4.76637
4.73255
686.461
3403.91
2.40267
2.54398
2.69906
2.86566
3.0399
3.21682
3.39138
3.56269
3.73387
3.90588
4.07444
4.23169
4.38077
4.48223
4.67709
4.98902
4.94833
632.235
3501.29
2.32539
2.47395
2.63904
2.81823
3.00697
3.19799
3.38437
3.5665
3.75187
3.944
4.13607
4.31627
4.48625
4.60376
4.79223
5.06924
5.244
726.346
2377.44
2.23912
2.39458
2.57
2.76283
2.96782
3.17385
3.36929
3.55864
3.7569
3.97227
4.19291
4.40047
4.59255
4.72305
4.85163
5.03569
96.3819
795.035
120.639
2.14246
2.30407
2.48986
2.69748
2.92104
3.14263
3.34092
3.53032
3.73886
3.98144
4.23715
4.47945
4.6979
4.84534
4.93974
5.09659
251.979
818.16
35.6064
2.03386
2.20026
2.39593
2.61949
2.86577
3.10313
3.29579
3.46722
3.68231
3.96466
4.26332
4.54705
4.80025
4.96379
5.05141
5.18278
263.491
837.775
36.8264
1.91167
2.08053
2.28436
2.52462
2.80004
3.04813
3.20533
3.34323
3.56698
3.88842
4.24287
4.5917
4.89588
5.08694
5.17597
5.30419
379.4
860.708
42.4213
1.77422
1.94179
2.15013
2.40565
2.71698
2.9656
3.04262
3.11031
3.33806
3.69265
4.11289
4.56362
4.96737
5.20639
5.30518
5.39689
271.098
643.342
50.8559
1.62007
1.78073
1.98745
2.25112
2.62003
2.86211
2.80123
2.96131
3.08622
3.4691
3.91331
4.4374
4.99045
5.31249
5.43298
16.0567
342.851
127.679
11.5069
1.44864
1.59454
1.78731
2.03507
2.51563
5.19306
17.0659
17.4567
21.8748
2.85347
3.65445
4.19726
4.93876
5.38418
5.59001
126.883
590.172
-1.15597
-1.00299
1.26116
1.38339
1.54227
1.71508
4.69249
63.0586
80.4788
79.6004
78.6269
70.5359
6.02198
3.6116
4.76393
5.41498
6.02101
278.694
606.742
5.01237
-0.886063
1.0606
1.15171
1.26393
1.37037
22.9857
83.8148
81.3916
68.915
25.203
67.5826
33.7646
2.71342
4.35147
5.33732
38.384
588.393
621.652
18.8612
-0.85614
0.851839
0.905352
0.93929
0.97424
30.6251
85.2163
81.9917
-1.09096
-1.64551
24.9292
34.0892
1.79184
3.68109
5.18308
84.0222
592.048
121.305
8.23918
-0.865214
0.644011
0.663795
0.637367
0.585855
8.05015
64.2098
69.6304
-0.174452
-1.71537
-2.78144
32.0725
0.379445
2.56609
5.45031
426.702
596.266
-1.73015
-0.802404
-0.756384
0.446449
0.443944
0.388197
0.251459
-0.24475
-0.839948
2.49791
7.93815
-1.26256
11.993
30.1337
-2.60979
-0.616004
290.696
433.338
269.329
20.7022
-0.57453
-0.59744
0.259165
0.248024
0.19514
0.0756866
-0.246307
-0.685656
-1.26076
0.232709
1.94873
15.2629
12.9548
-5.51692
81.2706
281.166
188.087
-0.201194
-0.271519
-0.505269
-0.522467
0.0672334
0.0566994
0.0264149
-0.0344108
-0.1897
-0.421805
-0.86801
-1.04604
-0.515973
1.92306
-0.987681
-2.92104
63.0847
12.726
-2.06456
-0.912488
-0.452874
-0.477587
-0.450196
)
;

boundaryField
{
    leftWall
    {
        type            fixedFluxPressure;
        gradient        uniform 0;
        value           nonuniform List<scalar> 
50
(
786.26
786.065
785.57
784.758
783.535
781.711
779.052
775.717
770.869
773.528
376.398
2.80572
2.58494
2.57099
2.6115
2.59823
2.57803
2.55764
2.5315
2.50148
2.46812
2.43138
2.39126
2.34777
2.3009
2.25062
2.19691
2.13972
2.07901
2.01476
1.94691
1.87544
1.80033
1.72157
1.63918
1.5532
1.46367
1.37069
1.27435
1.1748
1.07223
0.96689
0.859041
0.748977
0.6369
0.522899
0.407425
0.291528
0.174999
0.053717
)
;
    }
    rightWall
    {
        type            fixedFluxPressure;
        gradient        uniform 0;
        value           nonuniform List<scalar> 
50
(
909.68
893.199
859.782
814.437
768.684
738.332
745.964
795.602
926.884
1143.93
1292.49
1344.86
1352.67
1382.01
1447.65
1541.86
1645.84
1752.01
1859.84
1967.88
2075.42
2183.25
2292.35
2400.75
2507.85
2615.65
2724.56
2834.56
2945.64
3056.98
3167.84
3256.49
3312.93
3403.91
3501.29
2377.44
120.639
35.6064
36.8264
42.4213
50.8559
11.5069
-1.00299
-0.886063
-0.85614
-0.865214
-0.756384
-0.59744
-0.522467
-0.450196
)
;
    }
    lowerWall
    {
        type            fixedFluxPressure;
        gradient        uniform 0;
        value           nonuniform List<scalar> 
62
(
786.26
786.224
786.448
786.847
787.251
787.617
787.996
788.49
789.168
790.045
791.093
792.271
793.545
794.883
796.253
797.609
798.888
799.999
800.776
801.21
801.504
802.121
803.051
803.051
802.761
803.751
804.905
805.663
806.031
805.285
803.233
741.73
764.398
750.838
716.626
295.405
294.873
305.833
314.901
317.718
285.18
292.156
467.143
295.405
276.906
236.354
205.712
209.848
230.161
262.231
334.806
446.973
508.735
549.677
613.051
646.883
675.977
684.122
593.398
506.293
664.221
909.68
)
;
    }
    atmosphere
    {
        type            totalPressure;
        rho             rho;
        psi             none;
        gamma           1;
        p0              uniform 0;
        value           nonuniform List<scalar> 
46
(
-0.0110943
-0.0136495
-0.0133984
-0.01361
-0.0138052
-0.0140013
-0.0142023
-0.014412
-0.0146336
-0.0148704
-0.0151249
-0.0153991
-0.0156949
-0.0160135
-0.0163563
-0.0167252
-0.0171222
-0.0175495
-0.0180092
-0.0185034
-0.019034
-0.019604
-0.0202169
-0.0216639
-0.0245565
-0.0283113
-0.0332665
-0.039554
-0.0475003
-0.0609669
-0.0780646
-0.146452
-0.241695
-0.647004
-0.838167
0
0
0
0
0
0
-0.976802
-0.39836
-0.281022
-0.392304
-0.395996
)
;
    }
    defaultFaces
    {
        type            empty;
    }
}


// ************************************************************************* //
