/*--------------------------------*- C++ -*----------------------------------*\
| =========                 |                                                 |
| \\      /  F ield         | OpenFOAM: The Open Source CFD Toolbox           |
|  \\    /   O peration     | Version:  2206                                  |
|   \\  /    A nd           | Website:  www.openfoam.com                      |
|    \\/     M anipulation  |                                                 |
\*---------------------------------------------------------------------------*/
FoamFile
{
    version     2.0;
    format      ascii;
    arch        "LSB;label=32;scalar=64";
    class       surfaceScalarField;
    location    "0.65";
    object      phi;
}
// * * * * * * * * * * * * * * * * * * * * * * * * * * * * * * * * * * * * * //

dimensions      [0 3 -1 0 0 0 0];

oriented        oriented;

internalField   nonuniform List<scalar> 
4432
(
-1.03932e-06
1.03932e-06
-1.17063e-06
1.31318e-07
-5.51054e-07
-6.1958e-07
4.55241e-07
-1.00629e-06
1.56172e-06
-1.10647e-06
2.54871e-06
-9.86991e-07
3.29441e-06
-7.45701e-07
3.76651e-06
-4.72101e-07
3.99452e-06
-2.28008e-07
4.03538e-06
-4.08587e-08
3.94764e-06
8.77393e-08
3.76723e-06
1.80406e-07
3.50346e-06
2.63772e-07
3.13063e-06
3.72829e-07
2.59614e-06
5.34487e-07
1.83714e-06
7.59002e-07
8.08658e-07
1.02848e-06
-4.69604e-07
1.27826e-06
-1.91027e-06
1.44066e-06
-3.10026e-06
1.18999e-06
-3.30212e-06
2.01859e-07
-2.2611e-06
-1.04103e-06
-2.2611e-06
-1.13927e-06
2.17859e-06
-1.27582e-06
2.6787e-07
-6.82567e-07
-1.21283e-06
3.29807e-07
-2.01867e-06
1.47306e-06
-2.24973e-06
2.51314e-06
-2.02706e-06
3.31891e-06
-1.55147e-06
3.84871e-06
-1.0019e-06
4.12989e-06
-5.09194e-07
4.22999e-06
-1.40956e-07
4.21938e-06
9.8341e-08
4.16038e-06
2.39414e-07
4.08705e-06
3.37098e-07
4.01484e-06
4.45032e-07
3.93418e-06
6.15148e-07
3.79507e-06
8.98111e-07
3.51399e-06
1.30955e-06
3.00262e-06
1.78963e-06
2.27386e-06
2.16942e-06
1.42672e-06
2.03713e-06
3.81764e-07
1.24681e-06
-3.34131e-07
-3.25133e-07
-2.59523e-06
-1.20704e-06
3.38563e-06
-1.44848e-06
5.09313e-07
-9.14717e-07
-1.7466e-06
7.07e-08
-3.00408e-06
1.23953e-06
-3.41856e-06
2.32622e-06
-3.11376e-06
3.18721e-06
-2.41246e-06
3.77375e-06
-1.58843e-06
4.1029e-06
-8.38351e-07
4.23185e-06
-2.69907e-07
4.23516e-06
9.50325e-08
4.17208e-06
3.02491e-07
4.08937e-06
4.19809e-07
4.01663e-06
5.17776e-07
3.97801e-06
6.53762e-07
4.00651e-06
8.69609e-07
4.11834e-06
1.19772e-06
4.26914e-06
1.63883e-06
4.32219e-06
2.11637e-06
3.96625e-06
2.39307e-06
3.05158e-06
2.16147e-06
1.70856e-06
1.01788e-06
-8.86669e-07
-1.32764e-06
4.71327e-06
-1.71046e-06
8.92135e-07
-1.34931e-06
-2.10775e-06
-4.80425e-07
-3.87297e-06
7.60793e-07
-4.65978e-06
1.97219e-06
-4.32515e-06
2.91925e-06
-3.35953e-06
3.57637e-06
-2.24555e-06
3.97673e-06
-1.23871e-06
4.175e-06
-4.68178e-07
4.23746e-06
3.2572e-08
4.22497e-06
3.14975e-07
4.18648e-06
4.58295e-07
4.15201e-06
5.52246e-07
4.13621e-06
6.69566e-07
4.14977e-06
8.5604e-07
4.21445e-06
1.13304e-06
4.34943e-06
1.50385e-06
4.50621e-06
1.95958e-06
4.45468e-06
2.4446e-06
3.824e-06
2.79215e-06
2.24926e-06
2.59262e-06
1.36259e-06
-1.51924e-06
6.23251e-06
-2.23301e-06
1.60591e-06
-2.3968e-06
-1.94395e-06
-1.81693e-06
-4.45285e-06
-3.9203e-07
-6.08467e-06
1.19306e-06
-5.91024e-06
2.37926e-06
-4.54573e-06
3.16566e-06
-3.03194e-06
3.66517e-06
-1.73823e-06
3.96473e-06
-7.67737e-07
4.12534e-06
-1.28043e-07
4.20558e-06
2.34735e-07
4.24926e-06
4.14617e-07
4.29081e-06
5.10694e-07
4.3459e-06
6.14468e-07
4.41226e-06
7.89685e-07
4.47456e-06
1.07073e-06
4.51339e-06
1.46502e-06
4.50731e-06
1.96565e-06
4.37572e-06
2.57619e-06
3.84861e-06
3.31926e-06
2.44967e-06
3.99155e-06
3.81226e-06
-1.80658e-06
8.03909e-06
-3.14364e-06
2.94296e-06
-4.0844e-06
-1.0032e-06
-3.84427e-06
-4.69297e-06
-2.30201e-06
-7.62693e-06
-3.22795e-07
-7.88945e-06
1.33364e-06
-6.20217e-06
2.40237e-06
-4.10067e-06
3.08431e-06
-2.42017e-06
3.53486e-06
-1.21829e-06
3.84017e-06
-4.33353e-07
4.05971e-06
1.51988e-08
4.22708e-06
2.47249e-07
4.37976e-06
3.58006e-07
4.53781e-06
4.56415e-07
4.70298e-06
6.24518e-07
4.85357e-06
9.20144e-07
4.94028e-06
1.37831e-06
4.88742e-06
2.01851e-06
4.6087e-06
2.85491e-06
3.9483e-06
3.97965e-06
2.52411e-06
5.41573e-06
6.33638e-06
-2.0199e-06
1.0059e-05
-3.97086e-06
4.89392e-06
-5.3034e-06
3.29345e-07
-5.31749e-06
-4.67888e-06
-4.08445e-06
-8.85998e-06
-2.1626e-06
-9.8113e-06
-2.29946e-07
-8.13482e-06
1.22328e-06
-5.5539e-06
2.19297e-06
-3.38986e-06
2.859e-06
-1.88433e-06
3.35454e-06
-9.28889e-07
3.74754e-06
-3.77799e-07
4.08696e-06
-9.21755e-08
4.39726e-06
4.77034e-08
4.70264e-06
1.51038e-07
5.00958e-06
3.17577e-07
5.30498e-06
6.24739e-07
5.54907e-06
1.13422e-06
5.65386e-06
1.91372e-06
5.51234e-06
2.99643e-06
4.93714e-06
4.55485e-06
3.71084e-06
6.64203e-06
1.00472e-05
-1.87977e-06
1.19388e-05
-3.63545e-06
6.6496e-06
-4.52071e-06
1.2146e-06
-4.71024e-06
-4.48934e-06
-4.21939e-06
-9.35083e-06
-3.10696e-06
-1.09237e-05
-1.53275e-06
-9.70903e-06
1.45405e-08
-7.10119e-06
1.20787e-06
-4.58319e-06
2.07946e-06
-2.75591e-06
2.74735e-06
-1.59678e-06
3.30849e-06
-9.38942e-07
3.82263e-06
-6.06311e-07
4.31981e-06
-4.49484e-07
4.81456e-06
-3.43712e-07
5.31556e-06
-1.83419e-07
5.81679e-06
1.23503e-07
6.28603e-06
6.64976e-07
6.63047e-06
1.56927e-06
6.68786e-06
2.93905e-06
6.08288e-06
5.15983e-06
4.46775e-06
8.25716e-06
1.4515e-05
2.10062e-05
-2.10062e-05
-1.4392e-05
3.53982e-05
-6.63921e-05
5.20001e-05
-8.65601e-05
2.0168e-05
-8.08214e-05
-5.73871e-06
-6.92685e-05
-1.15528e-05
-5.06096e-05
-1.86589e-05
-1.55976e-05
-3.5012e-05
1.85725e-05
-3.41701e-05
2.89341e-05
-1.03617e-05
1.6149e-05
1.27852e-05
-8.96153e-06
2.51105e-05
-2.22282e-05
1.32666e-05
-1.00055e-05
-1.22227e-05
-1.26476e-05
2.64219e-06
-4.47923e-05
3.21446e-05
-6.88025e-05
2.40102e-05
-4.84638e-05
-2.03387e-05
-4.84638e-05
-1.14687e-05
-9.53743e-06
-5.54215e-05
7.93509e-05
-9.24419e-05
8.90205e-05
-8.99883e-05
1.77145e-05
-6.18626e-05
-3.38645e-05
-2.99368e-05
-4.34786e-05
1.6643e-05
-6.52387e-05
5.79223e-05
-7.62914e-05
7.5631e-05
-5.18788e-05
7.85509e-05
-1.32815e-05
6.46652e-05
2.66708e-05
3.37818e-05
5.59939e-05
-3.07416e-06
5.01226e-05
-2.62274e-05
1.09305e-05
-4.16518e-05
1.80666e-05
-6.37357e-05
5.42285e-05
-7.01729e-05
3.04474e-05
-4.38743e-05
-4.66373e-05
-9.23381e-05
-2.97064e-05
2.01689e-05
-5.15794e-05
0.000101224
-3.36525e-05
7.10937e-05
3.55752e-06
-1.94956e-05
2.27998e-05
-5.31068e-05
5.49227e-05
-7.56015e-05
7.86628e-05
-8.89787e-05
9.07614e-05
-8.83899e-05
9.78411e-05
-5.89585e-05
9.82891e-05
-1.37295e-05
8.9481e-05
3.54789e-05
6.76093e-05
7.78656e-05
2.81026e-05
8.96293e-05
-1.51114e-05
5.41445e-05
-4.20871e-05
4.50423e-05
-5.80866e-05
7.02279e-05
-6.245e-05
3.48108e-05
-3.98837e-05
-6.92035e-05
-0.000132222
-2.40268e-05
4.41958e-05
-1.66567e-05
9.38538e-05
2.45479e-05
2.98891e-05
5.23771e-05
-4.73248e-05
7.13333e-05
-7.20631e-05
8.49517e-05
-8.92198e-05
9.40674e-05
-9.80945e-05
9.99818e-05
-9.43044e-05
0.000104417
-6.3394e-05
0.000104582
-1.38943e-05
9.90073e-05
4.10537e-05
8.56081e-05
9.12648e-05
5.51425e-05
0.000120095
6.73811e-06
0.000102549
-2.86955e-05
8.04759e-05
-4.36969e-05
8.52294e-05
-5.07606e-05
4.18745e-05
-3.41328e-05
-8.58313e-05
-0.000166355
-2.98893e-06
4.71847e-05
3.21743e-05
5.86905e-05
6.99476e-05
-7.88418e-06
7.74636e-05
-5.48407e-05
8.46179e-05
-7.92174e-05
9.07688e-05
-9.53707e-05
9.7507e-05
-0.000104833
0.000102624
-9.94219e-05
0.000106573
-6.73423e-05
0.00010589
-1.32112e-05
0.000101711
4.52321e-05
9.3107e-05
9.98691e-05
7.25137e-05
0.000140688
3.12798e-05
0.000143783
-7.56978e-06
0.000119326
-2.56319e-05
0.000103292
-3.30242e-05
4.92667e-05
-2.4454e-05
-9.44016e-05
-0.000190808
1.71304e-05
3.00544e-05
5.76578e-05
1.81631e-05
7.4736e-05
-2.49623e-05
7.83517e-05
-5.84564e-05
8.47061e-05
-8.55718e-05
9.24615e-05
-0.000103126
9.79397e-05
-0.000110311
9.71534e-05
-9.86355e-05
9.12058e-05
-6.13947e-05
8.6211e-05
-8.2164e-06
9.34026e-05
3.80405e-05
9.26844e-05
0.000100587
8.16529e-05
0.00015172
5.30484e-05
0.000172387
1.82601e-05
0.000154114
-4.85519e-06
0.000126407
-1.22653e-05
5.66768e-05
-1.06147e-05
-9.60522e-05
-0.000201423
1.62367e-05
1.38176e-05
4.69115e-05
-1.25116e-05
6.47523e-05
-4.28031e-05
7.69222e-05
-7.06263e-05
8.69095e-05
-9.55591e-05
9.27253e-05
-0.000108942
9.21326e-05
-0.000109718
7.90432e-05
-8.55462e-05
6.29294e-05
-4.52809e-05
6.44515e-05
-9.73846e-06
6.89456e-05
3.35464e-05
7.93719e-05
9.0161e-05
8.36943e-05
0.000147397
6.82888e-05
0.000187793
4.16167e-05
0.000180786
2.09988e-05
0.000147025
1.07978e-05
6.68778e-05
4.59269e-06
-8.98471e-05
-0.00019683
3.22223e-05
-1.84047e-05
5.42726e-05
-3.45619e-05
7.03106e-05
-5.88411e-05
8.08768e-05
-8.11926e-05
8.7218e-05
-0.0001019
8.628e-05
-0.000108004
7.33935e-05
-9.68316e-05
5.51925e-05
-6.73452e-05
3.54832e-05
-2.55716e-05
2.79374e-05
-2.19271e-06
3.93915e-05
2.20922e-05
5.0145e-05
7.94074e-05
7.66368e-05
0.000120905
7.71726e-05
0.000187257
6.2224e-05
0.000195735
4.58095e-05
0.000163439
3.28511e-05
7.98362e-05
1.57907e-05
-7.27866e-05
-0.00018104
1.29131e-06
1.06475e-05
6.2781e-07
7.3131e-06
7.74776e-07
1.06764e-06
1.04821e-06
-4.76277e-06
-5.00949e-07
-7.80168e-06
-2.4675e-06
-8.95718e-06
-2.83983e-06
-9.33669e-06
-1.51828e-06
-8.42275e-06
4.68412e-07
-6.56988e-06
2.45003e-06
-4.73753e-06
4.23251e-06
-3.37927e-06
5.87265e-06
-2.57908e-06
7.46627e-06
-2.19994e-06
9.07395e-06
-2.05716e-06
1.07429e-05
-2.01265e-06
1.252e-05
-1.96056e-06
1.44688e-05
-1.82528e-06
1.66915e-05
-1.55773e-06
1.93592e-05
-1.09843e-06
2.27207e-05
-4.22451e-07
2.72111e-05
6.69453e-07
3.39632e-05
1.5051e-06
4.90221e-06
4.35759e-05
7.79744e-06
2.85003e-06
1.47959e-05
3.1462e-07
2.0839e-05
-4.97547e-06
2.15479e-05
-5.47164e-06
1.68688e-05
-3.12259e-06
9.6724e-06
-1.76078e-06
3.64537e-06
-3.30966e-06
4.41878e-07
-5.21925e-06
-1.82011e-07
-5.94599e-06
8.91025e-07
-5.81057e-06
2.68646e-06
-5.1747e-06
4.7101e-06
-4.60272e-06
6.83579e-06
-4.32563e-06
9.05561e-06
-4.27698e-06
1.13719e-05
-4.32897e-06
1.38234e-05
-4.41204e-06
1.64883e-05
-4.49022e-06
1.94757e-05
-4.54505e-06
2.29319e-05
-4.55471e-06
2.70715e-05
-4.56199e-06
3.22245e-05
-4.48358e-06
3.85286e-05
-4.79899e-06
-4.11773e-06
4.75485e-05
1.16844e-05
-8.83438e-06
2.03444e-05
-8.34534e-06
2.08532e-05
-5.48431e-06
1.84178e-05
-3.03625e-06
1.40948e-05
1.20041e-06
1.20932e-05
2.40827e-07
1.18513e-05
-3.06781e-06
9.18319e-06
-2.5511e-06
6.10589e-06
-2.86869e-06
4.52794e-06
-4.23262e-06
3.65454e-06
-4.3013e-06
3.7138e-06
-4.66197e-06
4.93769e-06
-5.54952e-06
6.94305e-06
-6.28234e-06
9.43092e-06
-6.81684e-06
1.22359e-05
-7.21705e-06
1.52808e-05
-7.53507e-06
1.85756e-05
-7.83987e-06
2.22518e-05
-8.23093e-06
2.65013e-05
-8.81148e-06
3.14489e-05
-9.43121e-06
3.72768e-05
-1.06269e-05
-1.28826e-05
4.60416e-05
-2.94951e-05
2.06608e-05
-5.9591e-05
2.17507e-05
-6.66874e-05
1.61214e-06
-4.34061e-05
-2.63174e-05
-8.77851e-06
-3.34272e-05
2.03426e-05
-2.88803e-05
3.4074e-05
-1.67992e-05
3.75924e-05
-6.06947e-06
3.66683e-05
-1.9447e-06
2.69726e-05
5.46304e-06
1.40377e-05
8.63349e-06
3.42888e-06
5.94682e-06
-1.91182e-06
-2.08859e-07
-3.63627e-06
-4.55791e-06
-2.25287e-06
-8.20023e-06
9.48231e-07
-1.04181e-05
5.36105e-06
-1.19478e-05
1.0597e-05
-1.30758e-05
1.65304e-05
-1.41641e-05
2.37568e-05
-1.60377e-05
3.12468e-05
-1.69211e-05
3.90984e-05
-1.84784e-05
-1.70936e-05
4.33095e-05
-6.77842e-06
2.7439e-05
-1.75082e-05
3.24803e-05
-1.81861e-05
2.28992e-06
-1.62716e-05
-2.82319e-05
-1.91479e-05
-3.05508e-05
-2.22971e-05
-2.5731e-05
-2.30479e-05
-1.60483e-05
-1.75764e-05
-1.15408e-05
-1.06746e-05
-8.84631e-06
-3.68721e-06
-1.52429e-06
2.80219e-06
2.14408e-06
8.07944e-06
6.69484e-07
1.1936e-05
-4.06557e-06
1.50063e-05
-7.62851e-06
1.64906e-05
-9.68481e-06
1.70799e-05
-1.10078e-05
1.73046e-05
-1.21729e-05
1.76001e-05
-1.33716e-05
1.80208e-05
-1.45852e-05
1.80509e-05
-1.60681e-05
1.86319e-05
-1.75023e-05
1.92356e-05
-1.90821e-05
-1.99478e-05
2.20898e-05
1.07827e-05
1.66564e-05
1.75421e-05
2.5721e-05
1.83313e-05
1.50067e-06
6.65177e-06
-1.65524e-05
-6.31861e-06
-1.75805e-05
-1.44993e-05
-1.75504e-05
-1.48352e-05
-1.57125e-05
-1.36327e-05
-1.27434e-05
-1.25727e-05
-9.90637e-06
-6.42747e-06
-7.66964e-06
1.92214e-06
-6.20557e-06
8.93424e-06
-6.34262e-06
1.20024e-05
-7.13368e-06
1.25132e-05
-8.13929e-06
1.21239e-05
-9.29538e-06
1.17061e-05
-1.05899e-05
1.15751e-05
-1.20418e-05
1.18251e-05
-1.36215e-05
1.25338e-05
-1.52937e-05
1.36498e-05
-1.71839e-05
1.54191e-05
-1.92715e-05
1.72356e-05
-2.08986e-05
-2.21609e-05
1.94486e-05
3.10396e-06
1.35525e-05
1.66215e-05
1.22036e-05
2.18415e-05
-3.71919e-06
1.71801e-05
-1.18909e-05
1.2839e-05
-1.32393e-05
7.57278e-06
-1.2284e-05
2.98674e-06
-1.11263e-05
2.85729e-07
-1.00424e-05
-5.10746e-07
-9.10993e-06
1.5929e-07
-8.33976e-06
1.75521e-06
-7.80161e-06
3.17358e-06
-7.76115e-06
4.16766e-06
-8.12794e-06
4.76082e-06
-8.73264e-06
5.03009e-06
-9.56486e-06
5.12811e-06
-1.06882e-05
5.19631e-06
-1.21101e-05
5.21183e-06
-1.36372e-05
5.30021e-06
-1.53822e-05
6.1266e-06
-1.80104e-05
7.80552e-06
-2.09505e-05
9.93568e-06
-2.30288e-05
-2.37586e-05
1.15334e-05
1.83132e-07
1.33693e-05
9.22206e-06
3.16463e-06
1.15432e-05
-6.04034e-06
9.27013e-06
-9.61785e-06
6.04637e-06
-1.00156e-05
3.39351e-06
-9.63119e-06
1.64222e-06
-9.37505e-06
7.71955e-07
-9.17214e-06
5.46238e-07
-8.88424e-06
7.88172e-07
-8.58172e-06
1.34195e-06
-8.35539e-06
1.85761e-06
-8.27679e-06
2.11103e-06
-8.38132e-06
2.08525e-06
-8.7068e-06
1.84684e-06
-9.3264e-06
1.4466e-06
-1.02879e-05
8.40951e-07
-1.15045e-05
-1.06109e-07
-1.26901e-05
-1.02834e-06
-1.446e-05
-9.52727e-07
-1.80861e-05
-2.63944e-07
-2.16393e-05
1.33592e-07
-2.34265e-05
-2.28754e-05
-7.49714e-07
1.62301e-06
1.17464e-05
4.50722e-06
2.80585e-07
5.86452e-06
-7.3975e-06
5.23193e-06
-8.98514e-06
4.0669e-06
-8.85045e-06
3.20004e-06
-8.76429e-06
2.58311e-06
-8.75815e-06
2.09563e-06
-8.68473e-06
1.75542e-06
-8.54415e-06
1.55509e-06
-8.38151e-06
1.43674e-06
-8.23714e-06
1.3075e-06
-8.14762e-06
1.08284e-06
-8.15669e-06
7.05929e-07
-8.32992e-06
1.24815e-07
-8.74532e-06
-7.40407e-07
-9.42276e-06
-1.99509e-06
-1.02499e-05
-3.65692e-06
-1.10284e-05
-5.37719e-06
-1.27399e-05
-6.73411e-06
-1.67293e-05
-8.26969e-06
-2.01039e-05
-1.03972e-05
-2.1299e-05
-1.9905e-05
-1.33677e-05
1.85476e-06
9.8916e-06
4.14523e-06
-2.00985e-06
4.71027e-06
-7.96249e-06
4.42774e-06
-8.70256e-06
3.92425e-06
-8.34692e-06
3.37398e-06
-8.21401e-06
2.84967e-06
-8.23387e-06
2.40608e-06
-8.24122e-06
2.05792e-06
-8.19607e-06
1.78519e-06
-8.10885e-06
1.54995e-06
-8.00192e-06
1.30858e-06
-7.90622e-06
1.01386e-06
-7.86192e-06
6.03149e-07
-7.91914e-06
-1.56581e-08
-8.12648e-06
-9.4354e-07
-8.49488e-06
-2.22214e-06
-8.97133e-06
-3.75229e-06
-9.49831e-06
-5.64542e-06
-1.08468e-05
-8.6348e-06
-1.374e-05
-1.19987e-05
-1.67401e-05
-1.54733e-05
-1.78246e-05
-1.63749e-05
-1.90035e-05
1.72242e-06
8.16928e-06
3.2593e-06
-3.54657e-06
3.48659e-06
-8.18966e-06
3.20197e-06
-8.41786e-06
2.92222e-06
-8.06712e-06
2.7003e-06
-7.9921e-06
2.49434e-06
-8.02798e-06
2.29516e-06
-8.04216e-06
2.11109e-06
-8.01212e-06
1.94668e-06
-7.94453e-06
1.79824e-06
-7.8535e-06
1.65535e-06
-7.76329e-06
1.49623e-06
-7.70272e-06
1.2745e-06
-7.69734e-06
9.15369e-07
-7.76731e-06
3.48918e-07
-7.92845e-06
-4.34232e-07
-8.18825e-06
-1.36653e-06
-8.56612e-06
-2.85441e-06
-9.35908e-06
-5.79662e-06
-1.0798e-05
-9.55678e-06
-1.29801e-05
-1.32625e-05
-1.4119e-05
-1.349e-05
-1.61475e-05
1.40299e-06
6.76634e-06
2.54154e-06
-4.68501e-06
2.67176e-06
-8.31979e-06
2.5316e-06
-8.27763e-06
2.43398e-06
-7.96949e-06
2.36087e-06
-7.91902e-06
2.28254e-06
-7.94974e-06
2.20365e-06
-7.96338e-06
2.13616e-06
-7.94475e-06
2.08803e-06
-7.89648e-06
2.06176e-06
-7.82725e-06
2.05461e-06
-7.75609e-06
2.05788e-06
-7.7059e-06
2.05218e-06
-7.69157e-06
2.00364e-06
-7.71874e-06
1.87148e-06
-7.79633e-06
1.62553e-06
-7.94237e-06
1.25098e-06
-8.19167e-06
4.76458e-07
-8.58468e-06
-1.14945e-06
-9.17223e-06
-3.93803e-06
-1.01917e-05
-6.98977e-06
-1.10674e-05
-1.13182e-05
-9.16161e-06
1.12854e-06
5.63789e-06
1.95256e-06
-5.50891e-06
2.04385e-06
-8.41099e-06
2.00386e-06
-8.23757e-06
2.01241e-06
-7.978e-06
2.03894e-06
-7.94557e-06
2.06162e-06
-7.97249e-06
2.08401e-06
-7.98588e-06
2.11576e-06
-7.97662e-06
2.16492e-06
-7.94568e-06
2.23494e-06
-7.89725e-06
2.32369e-06
-7.84476e-06
2.42633e-06
-7.80845e-06
2.53854e-06
-7.80372e-06
2.6535e-06
-7.8337e-06
2.75171e-06
-7.89458e-06
2.79563e-06
-7.98637e-06
2.72732e-06
-8.12345e-06
2.45353e-06
-8.31098e-06
1.83481e-06
-8.55364e-06
5.57728e-07
-8.91472e-06
-1.18833e-06
-9.32138e-06
-9.65754e-06
-2.84908e-06
8.55699e-07
4.78225e-06
1.47215e-06
-6.1253e-06
1.5823e-06
-8.5211e-06
1.6316e-06
-8.28683e-06
1.71743e-06
-8.06383e-06
1.81331e-06
-8.04149e-06
1.90618e-06
-8.06544e-06
1.9988e-06
-8.07861e-06
2.09772e-06
-8.07564e-06
2.20913e-06
-8.05715e-06
2.33588e-06
-8.024e-06
2.47469e-06
-7.98352e-06
2.61781e-06
-7.95151e-06
2.75921e-06
-7.94509e-06
2.89742e-06
-7.97193e-06
3.02861e-06
-8.02583e-06
3.13556e-06
-8.09338e-06
3.17772e-06
-8.16565e-06
3.11034e-06
-8.24366e-06
2.88694e-06
-8.33033e-06
2.40312e-06
-8.43098e-06
1.62637e-06
-8.54468e-06
-8.6778e-06
6.46612e-07
6.27388e-07
4.15492e-06
1.1131e-06
-6.61098e-06
1.26363e-06
-8.67158e-06
1.38484e-06
-8.40798e-06
1.52875e-06
-8.20768e-06
1.6767e-06
-8.18943e-06
1.82129e-06
-8.21007e-06
1.96435e-06
-8.22175e-06
2.10976e-06
-8.22111e-06
2.26159e-06
-8.20902e-06
2.42228e-06
-8.18467e-06
2.5889e-06
-8.1501e-06
2.75178e-06
-8.11437e-06
2.89867e-06
-8.092e-06
3.02174e-06
-8.09505e-06
3.1203e-06
-8.12446e-06
3.1949e-06
-8.16801e-06
3.23661e-06
-8.20738e-06
3.22252e-06
-8.2296e-06
3.12497e-06
-8.23285e-06
2.91451e-06
-8.22058e-06
2.56588e-06
-8.19611e-06
-8.17847e-06
2.06654e-06
4.52895e-07
3.70204e-06
8.67449e-07
-7.02558e-06
1.06536e-06
-8.86951e-06
1.24436e-06
-8.58696e-06
1.43434e-06
-8.39763e-06
1.62421e-06
-8.37928e-06
1.8099e-06
-8.39578e-06
1.99234e-06
-8.40424e-06
2.17342e-06
-8.40225e-06
2.35543e-06
-8.39107e-06
2.5404e-06
-8.36964e-06
2.72736e-06
-8.33706e-06
2.90914e-06
-8.29616e-06
3.07259e-06
-8.2555e-06
3.2042e-06
-8.22673e-06
3.29728e-06
-8.21759e-06
3.35425e-06
-8.22499e-06
3.38109e-06
-8.23421e-06
3.37778e-06
-8.22629e-06
3.33409e-06
-8.1892e-06
3.23641e-06
-8.12294e-06
3.07356e-06
-8.03331e-06
-7.93785e-06
2.83293e-06
3.3295e-07
3.36909e-06
7.17962e-07
-7.41068e-06
9.61579e-07
-9.11315e-06
1.1871e-06
-8.81245e-06
1.41551e-06
-8.62597e-06
1.64106e-06
-8.60477e-06
1.86149e-06
-8.61618e-06
2.07716e-06
-8.61993e-06
2.28884e-06
-8.61396e-06
2.49753e-06
-8.59979e-06
2.70463e-06
-8.57675e-06
2.91073e-06
-8.54318e-06
3.11295e-06
-8.49842e-06
3.30265e-06
-8.44527e-06
3.46691e-06
-8.39106e-06
3.5942e-06
-8.34491e-06
3.68072e-06
-8.31149e-06
3.73193e-06
-8.28537e-06
3.75726e-06
-8.2516e-06
3.76164e-06
-8.1936e-06
3.74165e-06
-8.10297e-06
3.68975e-06
-7.98147e-06
-7.84424e-06
3.59609e-06
2.62331e-07
3.1067e-06
6.43216e-07
-7.79172e-06
9.26415e-07
-9.39641e-06
1.18944e-06
-9.07544e-06
1.45075e-06
-8.88719e-06
1.70771e-06
-8.86165e-06
1.95878e-06
-8.86721e-06
2.20412e-06
-8.86527e-06
2.44409e-06
-8.85396e-06
2.67908e-06
-8.8348e-06
2.90981e-06
-8.8075e-06
3.13725e-06
-8.77066e-06
3.36136e-06
-8.7226e-06
3.57878e-06
-8.66278e-06
3.78143e-06
-8.59377e-06
3.95847e-06
-8.52196e-06
4.10173e-06
-8.4547e-06
4.21079e-06
-8.39437e-06
4.29327e-06
-8.33406e-06
4.35918e-06
-8.25954e-06
4.41369e-06
-8.15746e-06
4.45489e-06
-8.02269e-06
-7.86468e-06
4.47523e-06
2.32148e-07
2.87446e-06
6.22237e-07
-8.18199e-06
9.36764e-07
-9.711e-06
1.22977e-06
-9.3684e-06
1.51945e-06
-9.17676e-06
1.80449e-06
-9.14657e-06
2.08347e-06
-9.1461e-06
2.35644e-06
-9.13822e-06
2.62375e-06
-9.12129e-06
2.8857e-06
-9.09677e-06
3.14266e-06
-9.06448e-06
3.39535e-06
-9.02339e-06
3.64467e-06
-8.97199e-06
3.8904e-06
-8.90861e-06
4.12933e-06
-8.83276e-06
4.35451e-06
-8.74712e-06
4.55773e-06
-8.65785e-06
4.7345e-06
-8.57109e-06
4.88761e-06
-8.4872e-06
5.02588e-06
-8.39784e-06
5.15813e-06
-8.28969e-06
5.28809e-06
-8.15258e-06
-7.98906e-06
5.41239e-06
2.31403e-07
2.64293e-06
6.36417e-07
-8.58722e-06
9.74281e-07
-1.00489e-05
1.29117e-06
-9.68522e-06
1.60547e-06
-9.49092e-06
1.91578e-06
-9.45673e-06
2.22053e-06
-9.45076e-06
2.51979e-06
-9.43744e-06
2.81399e-06
-9.4155e-06
3.10354e-06
-9.38634e-06
3.3888e-06
-9.34976e-06
3.6703e-06
-9.30493e-06
3.94893e-06
-9.2507e-06
4.22565e-06
-9.18542e-06
4.50021e-06
-9.10736e-06
4.76953e-06
-9.01643e-06
5.02783e-06
-8.9161e-06
5.26959e-06
-8.81284e-06
5.49395e-06
-8.71163e-06
5.70652e-06
-8.61051e-06
5.91631e-06
-8.49948e-06
6.13028e-06
-8.36645e-06
-8.20838e-06
6.34955e-06
2.4951e-07
2.39329e-06
6.70046e-07
-9.00794e-06
1.02439e-06
-1.04033e-05
1.36047e-06
-1.00212e-05
1.69645e-06
-9.82674e-06
2.02978e-06
-9.78991e-06
2.35857e-06
-9.77946e-06
2.68296e-06
-9.7618e-06
3.00355e-06
-9.73609e-06
3.32088e-06
-9.70367e-06
3.63545e-06
-9.66433e-06
3.94778e-06
-9.61728e-06
4.25866e-06
-9.56164e-06
4.56927e-06
-9.49611e-06
4.8807e-06
-9.41885e-06
5.19261e-06
-9.32832e-06
5.50203e-06
-9.22548e-06
5.80436e-06
-9.11518e-06
6.09679e-06
-9.00418e-06
6.38169e-06
-8.89557e-06
6.66638e-06
-8.78422e-06
6.95903e-06
-8.65897e-06
-8.51367e-06
7.26432e-06
2.77886e-07
2.11526e-06
7.109e-07
-9.44111e-06
1.07581e-06
-1.07682e-05
1.4276e-06
-1.03729e-05
1.78292e-06
-1.01819e-05
2.13731e-06
-1.01441e-05
2.48847e-06
-1.01305e-05
2.83668e-06
-1.011e-05
3.18271e-06
-1.00821e-05
3.52729e-06
-1.00482e-05
3.87106e-06
-1.00081e-05
4.21468e-06
-9.9609e-06
4.55893e-06
-9.90594e-06
4.90499e-06
-9.84226e-06
5.25445e-06
-9.76836e-06
5.60851e-06
-9.68236e-06
5.96659e-06
-9.58352e-06
6.32589e-06
-9.4745e-06
6.68318e-06
-9.36158e-06
7.03825e-06
-9.25079e-06
7.39578e-06
-9.14183e-06
7.76344e-06
-9.02653e-06
-8.89823e-06
8.14806e-06
3.10771e-07
1.80437e-06
7.50261e-07
-9.88071e-06
1.12088e-06
-1.11388e-05
1.48613e-06
-1.0738e-05
1.85874e-06
-1.05543e-05
2.23201e-06
-1.05173e-05
2.60341e-06
-1.05019e-05
2.97346e-06
-1.048e-05
3.34316e-06
-1.04518e-05
3.71342e-06
-1.04185e-05
4.08506e-06
-1.03797e-05
4.45891e-06
-1.03347e-05
4.8359e-06
-1.0283e-05
5.21723e-06
-1.02237e-05
5.60461e-06
-1.01558e-05
5.99994e-06
-1.00777e-05
6.40434e-06
-9.98791e-06
6.81695e-06
-9.88712e-06
7.23524e-06
-9.77996e-06
7.65751e-06
-9.67318e-06
8.08571e-06
-9.57009e-06
8.52574e-06
-9.46646e-06
-9.35721e-06
8.98482e-06
3.43386e-07
1.4609e-06
7.83162e-07
-1.03205e-05
1.15771e-06
-1.15133e-05
1.5354e-06
-1.11156e-05
1.92317e-06
-1.0942e-05
2.31256e-06
-1.09066e-05
2.70128e-06
-1.08906e-05
3.09025e-06
-1.0869e-05
3.48073e-06
-1.08423e-05
3.87384e-06
-1.08116e-05
4.27059e-06
-1.07764e-05
4.67201e-06
-1.07361e-05
5.07924e-06
-1.06902e-05
5.4936e-06
-1.06381e-05
5.91684e-06
-1.05791e-05
6.35112e-06
-1.05121e-05
6.79846e-06
-1.04353e-05
7.25964e-06
-1.03483e-05
7.73344e-06
-1.02538e-05
8.21781e-06
-1.01576e-05
8.71257e-06
-1.00649e-05
9.22129e-06
-9.97512e-06
-9.88596e-06
9.75013e-06
3.70626e-07
1.09022e-06
8.10558e-07
-1.07605e-05
1.19305e-06
-1.18958e-05
1.58317e-06
-1.15056e-05
1.9833e-06
-1.1342e-05
2.38526e-06
-1.13086e-05
2.78762e-06
-1.1293e-05
3.19172e-06
-1.12732e-05
3.59908e-06
-1.12497e-05
4.01101e-06
-1.12234e-05
4.4287e-06
-1.1194e-05
4.85342e-06
-1.11607e-05
5.28652e-06
-1.11232e-05
5.72951e-06
-1.10811e-05
6.18422e-06
-1.10339e-05
6.65285e-06
-1.09807e-05
7.13782e-06
-1.09203e-05
7.64101e-06
-1.08516e-05
8.16264e-06
-1.07755e-05
8.70121e-06
-1.06962e-05
9.25539e-06
-1.06191e-05
9.82662e-06
-1.05463e-05
-1.04784e-05
1.04191e-05
3.89279e-07
7.00908e-07
8.41397e-07
-1.12126e-05
1.24178e-06
-1.22961e-05
1.64387e-06
-1.19076e-05
2.05224e-06
-1.17504e-05
2.46236e-06
-1.17187e-05
2.87408e-06
-1.17048e-05
3.28897e-06
-1.16881e-05
3.70865e-06
-1.16694e-05
4.13457e-06
-1.16493e-05
4.56811e-06
-1.16274e-05
5.01071e-06
-1.16032e-05
5.46393e-06
-1.15764e-05
5.92949e-06
-1.15467e-05
6.40927e-06
-1.15137e-05
6.90547e-06
-1.1477e-05
7.42061e-06
-1.14355e-05
7.95721e-06
-1.13883e-05
8.51672e-06
-1.13351e-05
9.09878e-06
-1.12782e-05
9.70194e-06
-1.12222e-05
1.03262e-05
-1.11706e-05
-1.11258e-05
1.09736e-05
4.00196e-07
3.00704e-07
8.89017e-07
-1.17014e-05
1.31871e-06
-1.27257e-05
1.72958e-06
-1.23184e-05
2.14028e-06
-1.21611e-05
2.55338e-06
-1.21318e-05
2.96983e-06
-1.21213e-05
3.39092e-06
-1.21093e-05
3.81816e-06
-1.20966e-05
4.25305e-06
-1.20841e-05
4.69708e-06
-1.20713e-05
5.15182e-06
-1.20578e-05
5.61895e-06
-1.20434e-05
6.10031e-06
-1.2028e-05
6.59785e-06
-1.20112e-05
7.11372e-06
-1.19928e-05
7.65037e-06
-1.19722e-05
8.21056e-06
-1.19485e-05
8.79665e-06
-1.19212e-05
9.40958e-06
-1.18911e-05
1.00487e-05
-1.18612e-05
1.07134e-05
-1.18353e-05
-1.18166e-05
1.14041e-05
4.07744e-07
-1.07036e-07
9.61419e-07
-1.2255e-05
1.42579e-06
-1.31901e-05
1.83821e-06
-1.27309e-05
2.24409e-06
-1.2567e-05
2.65469e-06
-1.25425e-05
3.071e-06
-1.25377e-05
3.4936e-06
-1.25319e-05
3.92365e-06
-1.25266e-05
4.36258e-06
-1.25229e-05
4.8119e-06
-1.25205e-05
5.2732e-06
-1.2519e-05
5.74822e-06
-1.25184e-05
6.23879e-06
-1.25185e-05
6.74687e-06
-1.25192e-05
7.27453e-06
-1.25204e-05
7.82408e-06
-1.25217e-05
8.39823e-06
-1.25226e-05
8.99983e-06
-1.25227e-05
9.63089e-06
-1.25221e-05
1.02919e-05
-1.25222e-05
1.09828e-05
-1.25262e-05
-1.25369e-05
1.17031e-05
4.17703e-07
-5.24722e-07
1.05321e-06
-1.28905e-05
1.54505e-06
-1.36819e-05
1.94888e-06
-1.31347e-05
2.34334e-06
-1.29616e-05
2.74649e-06
-1.29457e-05
3.15784e-06
-1.2949e-05
3.57703e-06
-1.29511e-05
4.00491e-06
-1.29544e-05
4.44277e-06
-1.29607e-05
4.89207e-06
-1.29697e-05
5.35435e-06
-1.29813e-05
5.83129e-06
-1.29953e-05
6.32467e-06
-1.30119e-05
6.83637e-06
-1.30309e-05
7.36834e-06
-1.30523e-05
7.92276e-06
-1.3076e-05
8.50215e-06
-1.3102e-05
9.1094e-06
-1.31299e-05
9.74718e-06
-1.31598e-05
1.04171e-05
-1.3192e-05
1.112e-05
-1.3229e-05
-1.32723e-05
1.18554e-05
4.36323e-07
-9.61017e-07
1.14795e-06
-1.3602e-05
1.64612e-06
-1.41801e-05
2.03131e-06
-1.352e-05
2.41037e-06
-1.33407e-05
2.80233e-06
-1.33377e-05
3.20404e-06
-1.33508e-05
3.61458e-06
-1.33616e-05
4.03478e-06
-1.33746e-05
4.46585e-06
-1.33917e-05
4.90917e-06
-1.3413e-05
5.36621e-06
-1.34383e-05
5.83855e-06
-1.34677e-05
6.32788e-06
-1.35012e-05
6.83598e-06
-1.35389e-05
7.36469e-06
-1.35809e-05
7.91603e-06
-1.36273e-05
8.49232e-06
-1.36782e-05
9.09628e-06
-1.37339e-05
9.73071e-06
-1.37941e-05
1.03979e-05
-1.38592e-05
1.10995e-05
-1.39307e-05
-1.40086e-05
1.1836e-05
4.7408e-07
-1.43506e-06
1.23125e-06
-1.43592e-05
1.70501e-06
-1.46538e-05
2.06409e-06
-1.38791e-05
2.42663e-06
-1.37033e-05
2.80448e-06
-1.37156e-05
3.19191e-06
-1.37382e-05
3.58827e-06
-1.37579e-05
3.99475e-06
-1.3781e-05
4.41261e-06
-1.38095e-05
4.84316e-06
-1.38435e-05
5.28783e-06
-1.3883e-05
5.74815e-06
-1.3928e-05
6.2257e-06
-1.39787e-05
6.72218e-06
-1.40353e-05
7.23931e-06
-1.40979e-05
7.779e-06
-1.41669e-05
8.34335e-06
-1.42426e-05
8.93482e-06
-1.43253e-05
9.55602e-06
-1.44152e-05
1.02094e-05
-1.45127e-05
1.08972e-05
-1.46186e-05
-1.4732e-05
1.16207e-05
5.48185e-07
-1.98321e-06
1.3023e-06
-1.51133e-05
1.71879e-06
-1.50703e-05
2.04707e-06
-1.42074e-05
2.39244e-06
-1.40487e-05
2.75252e-06
-1.40757e-05
3.12047e-06
-1.4106e-05
3.49679e-06
-1.41341e-05
3.8832e-06
-1.41673e-05
4.28103e-06
-1.42073e-05
4.69159e-06
-1.42541e-05
5.11629e-06
-1.43077e-05
5.55661e-06
-1.43683e-05
6.01407e-06
-1.44362e-05
6.49028e-06
-1.45114e-05
6.98687e-06
-1.45944e-05
7.50557e-06
-1.46855e-05
8.04829e-06
-1.47853e-05
8.61719e-06
-1.48941e-05
9.21454e-06
-1.50125e-05
9.84263e-06
-1.51407e-05
1.05036e-05
-1.52798e-05
-1.5428e-05
1.11997e-05
6.78446e-07
-2.66163e-06
1.37316e-06
-1.5808e-05
1.70373e-06
-1.54009e-05
1.99729e-06
-1.4501e-05
2.32186e-06
-1.43733e-05
2.65803e-06
-1.44118e-05
3.00011e-06
-1.4448e-05
3.35002e-06
-1.44839e-05
3.7098e-06
-1.4527e-05
4.0808e-06
-1.45782e-05
4.46427e-06
-1.46376e-05
4.86155e-06
-1.47051e-05
5.27406e-06
-1.47809e-05
5.70325e-06
-1.48653e-05
6.1506e-06
-1.49587e-05
6.61759e-06
-1.50613e-05
7.10575e-06
-1.51737e-05
7.61675e-06
-1.52963e-05
8.15245e-06
-1.54298e-05
8.71479e-06
-1.55747e-05
9.30567e-06
-1.57315e-05
9.92695e-06
-1.59012e-05
-1.60821e-05
1.05812e-05
8.75378e-07
-3.537e-06
1.4547e-06
-1.63873e-05
1.67862e-06
-1.56249e-05
1.93256e-06
-1.4755e-05
2.22825e-06
-1.46689e-05
2.53186e-06
-1.47153e-05
2.84056e-06
-1.47566e-05
3.15726e-06
-1.48005e-05
3.4838e-06
-1.48534e-05
3.82136e-06
-1.49158e-05
4.17104e-06
-1.49873e-05
4.53403e-06
-1.50681e-05
4.91157e-06
-1.51585e-05
5.30496e-06
-1.52587e-05
5.71549e-06
-1.53691e-05
6.14442e-06
-1.54901e-05
6.59298e-06
-1.56222e-05
7.06251e-06
-1.57659e-05
7.55457e-06
-1.59219e-05
8.07083e-06
-1.60908e-05
8.61284e-06
-1.62734e-05
9.18205e-06
-1.64706e-05
-1.6681e-05
9.78109e-06
1.11789e-06
-4.6549e-06
1.53532e-06
-1.68047e-05
1.64618e-06
-1.57358e-05
1.85674e-06
-1.49655e-05
2.11356e-06
-1.49257e-05
2.37577e-06
-1.49774e-05
2.64381e-06
-1.50245e-05
2.92072e-06
-1.50773e-05
3.20777e-06
-1.51404e-05
3.50579e-06
-1.52138e-05
3.81563e-06
-1.52971e-05
4.13818e-06
-1.53907e-05
4.47444e-06
-1.54948e-05
4.82542e-06
-1.56097e-05
5.19216e-06
-1.57358e-05
5.5756e-06
-1.58735e-05
5.97659e-06
-1.60231e-05
6.39608e-06
-1.61854e-05
6.83522e-06
-1.63611e-05
7.29535e-06
-1.65509e-05
7.77761e-06
-1.67556e-05
8.28292e-06
-1.6976e-05
-1.72119e-05
8.81377e-06
1.35001e-06
-6.00493e-06
1.57952e-06
-1.70342e-05
1.59236e-06
-1.57486e-05
1.75972e-06
-1.51328e-05
1.96962e-06
-1.51355e-05
2.18396e-06
-1.51916e-05
2.40587e-06
-1.52463e-05
2.63779e-06
-1.53092e-05
2.88028e-06
-1.53829e-05
3.13378e-06
-1.54672e-05
3.39878e-06
-1.55622e-05
3.67584e-06
-1.56678e-05
3.96556e-06
-1.57846e-05
4.26866e-06
-1.59129e-05
4.58582e-06
-1.60529e-05
4.91763e-06
-1.62052e-05
5.2646e-06
-1.637e-05
5.62727e-06
-1.65481e-05
6.00637e-06
-1.67403e-05
6.40274e-06
-1.69473e-05
6.81697e-06
-1.71698e-05
7.24927e-06
-1.74084e-05
-1.76637e-05
7.70113e-06
1.53634e-06
-7.54126e-06
1.56192e-06
-1.70597e-05
1.50232e-06
-1.56889e-05
1.6265e-06
-1.52569e-05
1.7838e-06
-1.52927e-05
1.94664e-06
-1.53544e-05
2.11927e-06
-1.5419e-05
2.3029e-06
-1.54928e-05
2.49734e-06
-1.55774e-05
2.70257e-06
-1.56725e-05
2.91868e-06
-1.57783e-05
3.14585e-06
-1.58951e-05
3.38436e-06
-1.60232e-05
3.63451e-06
-1.6163e-05
3.89665e-06
-1.6315e-05
4.17102e-06
-1.64794e-05
4.45782e-06
-1.66567e-05
4.75728e-06
-1.68476e-05
5.06975e-06
-1.70529e-05