/*--------------------------------*- C++ -*----------------------------------*\
| =========                 |                                                 |
| \\      /  F ield         | OpenFOAM: The Open Source CFD Toolbox           |
|  \\    /   O peration     | Version:  2206                                  |
|   \\  /    A nd           | Website:  www.openfoam.com                      |
|    \\/     M anipulation  |                                                 |
\*---------------------------------------------------------------------------*/
FoamFile
{
    version     2.0;
    format      ascii;
    arch        "LSB;label=32;scalar=64";
    class       volVectorField;
    location    "0.65";
    object      U;
}
// * * * * * * * * * * * * * * * * * * * * * * * * * * * * * * * * * * * * * //

dimensions      [0 1 -1 0 0 0 0];

internalField   nonuniform List<vector> 
2268
(
(-0.00944108 0.00562182 0)
(-0.0152429 0.000829899 0)
(-0.0109277 -0.0032427 0)
(-0.00113046 -0.00526586 0)
(0.0114549 -0.00574718 0)
(0.0236465 -0.00506891 0)
(0.03379 -0.00376269 0)
(0.0409069 -0.00230751 0)
(0.0449125 -0.00102285 0)
(0.0463595 -3.53489e-05 0)
(0.0459819 0.000703407 0)
(0.0443632 0.00129451 0)
(0.0418726 0.00193298 0)
(0.0384066 0.00285838 0)
(0.0334843 0.00423622 0)
(0.0263928 0.00606929 0)
(0.0163533 0.00809211 0)
(0.00287516 0.00961293 0)
(-0.0134702 0.00928731 0)
(-0.0310746 0.00351333 0)
(-0.0415959 -0.00767434 0)
(-0.0346756 -0.0182504 0)
(-0.0138196 -0.0201653 0)
(-0.0113184 0.0173215 0)
(-0.0159034 0.00198609 0)
(-0.012435 -0.00990296 0)
(-0.00261792 -0.0162012 0)
(0.0102173 -0.0179205 0)
(0.022938 -0.0160536 0)
(0.0337514 -0.0121959 0)
(0.041554 -0.00779483 0)
(0.0461925 -0.00387471 0)
(0.0482244 -0.000918289 0)
(0.0485459 0.00106621 0)
(0.0480196 0.00237741 0)
(0.0471733 0.00344971 0)
(0.0463343 0.0047791 0)
(0.0455928 0.00680522 0)
(0.0446564 0.00981916 0)
(0.0427269 0.013869 0)
(0.0385441 0.0183873 0)
(0.0310149 0.0217198 0)
(0.0198483 0.0201398 0)
(0.0108578 0.0106962 0)
(-0.00271475 -0.00713848 0)
(-0.00350245 -0.0321614 0)
(-0.0112828 0.0299977 0)
(-0.0174702 0.00396703 0)
(-0.0148267 -0.0159047 0)
(-0.00551204 -0.0270187 0)
(0.00732803 -0.0303543 0)
(0.0205373 -0.0274546 0)
(0.0319362 -0.0211056 0)
(0.0404019 -0.0137175 0)
(0.0456633 -0.00705725 0)
(0.048154 -0.00206354 0)
(0.0487191 0.00111994 0)
(0.0482186 0.00293848 0)
(0.0472859 0.00403687 0)
(0.046342 0.00507463 0)
(0.0456581 0.00666303 0)
(0.0455378 0.00934998 0)
(0.0463572 0.0135223 0)
(0.0480862 0.0189864 0)
(0.0497043 0.0242588 0)
(0.0482317 0.0257485 0)
(0.0417798 0.0191752 0)
(0.0283277 0.0015829 0)
(0.0131912 -0.020729 0)
(-0.0117018 0.0436925 0)
(-0.0197529 0.00732211 0)
(-0.0185762 -0.0212268 0)
(-0.0117081 -0.0375736 0)
(0.000998416 -0.0434237 0)
(0.0159273 -0.0398135 0)
(0.0285109 -0.0309231 0)
(0.0377766 -0.0205016 0)
(0.0438418 -0.0110086 0)
(0.0471551 -0.00378058 0)
(0.0484512 0.000893689 0)
(0.048553 0.00348502 0)
(0.048144 0.00487899 0)
(0.0476791 0.00593743 0)
(0.0473863 0.00733089 0)
(0.0473536 0.00949488 0)
(0.0477004 0.0126498 0)
(0.0486971 0.0168672 0)
(0.0505383 0.021881 0)
(0.0519702 0.0262095 0)
(0.049717 0.0270469 0)
(0.0378272 0.0201068 0)
(0.0164343 0.00280746 0)
(-0.0125844 0.058967 0)
(-0.0231435 0.0127253 0)
(-0.0274167 -0.0230188 0)
(-0.026625 -0.044935 0)
(-0.0141965 -0.0566857 0)
(0.00509212 -0.0536947 0)
(0.0214606 -0.0418163 0)
(0.0326017 -0.028132 0)
(0.0397773 -0.0158587 0)
(0.0441933 -0.00644098 0)
(0.0466401 -0.000220691 0)
(0.0478264 0.00324675 0)
(0.0483962 0.00496065 0)
(0.0488165 0.00597315 0)
(0.0493629 0.00717181 0)
(0.0500949 0.00913142 0)
(0.0508803 0.0121021 0)
(0.0514526 0.0160563 0)
(0.0515999 0.0209113 0)
(0.0510139 0.0266512 0)
(0.0488663 0.0327976 0)
(0.0393524 0.0353408 0)
(0.0193999 0.0265593 0)
(-0.0136578 0.0766924 0)
(-0.0287869 0.0234135 0)
(-0.0434055 -0.0166832 0)
(-0.0489688 -0.0481671 0)
(-0.0375316 -0.0717543 0)
(-0.0150696 -0.0718517 0)
(0.0073887 -0.0558072 0)
(0.0227936 -0.0374045 0)
(0.0323685 -0.0219228 0)
(0.0384802 -0.0103663 0)
(0.0425721 -0.00267281 0)
(0.0453912 0.00177886 0)
(0.0474593 0.00395886 0)
(0.0492067 0.00507063 0)
(0.0509614 0.00616775 0)
(0.0528394 0.00804191 0)
(0.0547343 0.0111836 0)
(0.0562473 0.0157935 0)
(0.0566483 0.0218562 0)
(0.0548864 0.0294949 0)
(0.0503534 0.0397441 0)
(0.0404033 0.0525706 0)
(0.0194082 0.0585791 0)
(-0.0137569 0.0965755 0)
(-0.0345732 0.0401455 0)
(-0.0570928 -0.00412929 0)
(-0.0637921 -0.0513777 0)
(-0.055483 -0.0908482 0)
(-0.0368798 -0.0967001 0)
(-0.0129728 -0.076958 0)
(0.00740329 -0.0512527 0)
(0.0208747 -0.0307815 0)
(0.0296864 -0.016352 0)
(0.0359529 -0.00697125 0)
(0.0408311 -0.00148268 0)
(0.0448924 0.001261 0)
(0.0485299 0.00255212 0)
(0.0520168 0.00360722 0)
(0.0555314 0.00541132 0)
(0.0590527 0.00870021 0)
(0.0622985 0.0139985 0)
(0.0646573 0.0216988 0)
(0.064785 0.0317373 0)
(0.0615665 0.0450413 0)
(0.0519205 0.061033 0)
(0.0319588 0.0797431 0)
(-0.0129202 0.11788 0)
(-0.0331502 0.0632868 0)
(-0.0518136 0.0102952 0)
(-0.0537234 -0.0534914 0)
(-0.0508795 -0.106165 0)
(-0.0429607 -0.119885 0)
(-0.0277257 -0.101667 0)
(-0.00809114 -0.070163 0)
(0.00812563 -0.0432158 0)
(0.0196741 -0.0247564 0)
(0.0280425 -0.0132426 0)
(0.0348099 -0.00663687 0)
(0.0408355 -0.00319322 0)
(0.0465488 -0.00148575 0)
(0.0521995 -0.000243842 0)
(0.0579163 0.00161397 0)
(0.0636964 0.00507578 0)
(0.0694143 0.0110284 0)
(0.07434 0.020735 0)
(0.0777526 0.0352956 0)
(0.0745306 0.0579289 0)
(0.0701811 0.091612 0)
(0.0243796 0.149808 0)
(0.271891 -0.106819 0)
(0.208671 0.0155757 0)
(-0.578947 0.0633367 0)
(-0.97645 0.00768072 0)
(-0.964491 -0.00112884 0)
(-0.885734 -0.00534657 0)
(-0.733081 -0.0126949 0)
(-0.388105 -0.0388453 0)
(0.0904871 -0.0584527 0)
(0.299087 0.00324329 0)
(0.322862 0.0588778 0)
(0.0806735 0.0628847 0)
(-0.294428 -0.0169959 0)
(-0.196121 -0.0736757 0)
(0.00203027 -0.0292681 0)
(-0.334989 0.0632417 0)
(-0.783277 0.0517242 0)
(-0.718187 -0.0433368 0)
(-0.264961 -0.0992661 0)
(-0.0361058 -0.0819649 0)
(-0.243884 0.210502 0)
(-1.10113 0.255027 0)
(-1.12812 0.100961 0)
(-0.822927 -0.0575308 0)
(-0.598509 -0.0882134 0)
(-0.120808 -0.149251 0)
(0.558147 -0.239564 0)
(0.80614 -0.184082 0)
(0.900672 -0.0695449 0)
(0.869941 0.0568206 0)
(0.63474 0.152061 0)
(0.136195 0.124326 0)
(-0.199408 -0.0179806 0)
(-0.357577 0.0474725 0)
(-0.650443 0.169976 0)
(-0.900801 0.104508 0)
(-0.650891 -0.127648 0)
(-0.234999 -0.267894 0)
(-0.22392 0.0337159 0)
(-0.516386 0.36576 0)
(-0.784169 0.35446 0)
(-0.00454076 0.0300681 0)
(0.126065 -0.168552 0)
(0.456228 -0.24451 0)
(0.790789 -0.311103 0)
(0.996154 -0.321394 0)
(1.09105 -0.216672 0)
(1.12891 -0.0474778 0)
(1.09894 0.115408 0)
(0.963504 0.244066 0)
(0.588117 0.262892 0)
(0.0764894 0.117904 0)
(-0.386792 0.114247 0)
(-0.639698 0.232919 0)
(-0.784513 0.105439 0)
(-0.616302 -0.233124 0)
(-0.176829 -0.424392 0)
(-0.220482 0.12513 0)
(-0.399039 0.410583 0)
(-0.0545051 0.216613 0)
(0.570882 -0.155691 0)
(0.744888 -0.25055 0)
(0.898636 -0.313322 0)
(1.02698 -0.351883 0)
(1.11417 -0.34082 0)
(1.17209 -0.235103 0)
(1.20172 -0.0483462 0)
(1.17661 0.159555 0)
(1.09615 0.332255 0)
(0.867584 0.398543 0)
(0.414823 0.29304 0)
(-0.229379 0.220004 0)
(-0.481839 0.286752 0)
(-0.625005 0.134897 0)
(-0.528504 -0.310225 0)
(-0.123772 -0.567894 0)
(-0.135997 0.176925 0)
(0.0379151 0.300232 0)
(0.67061 0.0416859 0)
(0.919892 -0.187202 0)
(0.932074 -0.274535 0)
(0.991789 -0.340142 0)
(1.07433 -0.37689 0)
(1.14899 -0.367952 0)
(1.19335 -0.274716 0)
(1.21638 -0.108875 0)
(1.20123 0.0895527 0)
(1.13761 0.33058 0)
(0.999605 0.489331 0)
(0.677784 0.462934 0)
(0.0631619 0.360692 0)
(-0.263277 0.342974 0)
(-0.414533 0.15945 0)
(-0.371566 -0.358642 0)
(-0.0624512 -0.681768 0)
(-0.0682032 0.145722 0)
(0.411984 0.131914 0)
(0.873532 -0.0817065 0)
(0.872217 -0.197589 0)
(0.921324 -0.299642 0)
(1.01087 -0.368134 0)
(1.09537 -0.405388 0)
(1.13115 -0.386094 0)
(1.08101 -0.258088 0)
(0.935038 -0.0518232 0)
(1.07029 0.163142 0)
(1.10791 0.353391 0)
(1.04289 0.537943 0)
(0.846964 0.593535 0)
(0.379364 0.509556 0)
(0.00967796 0.417477 0)
(-0.163724 0.190217 0)
(-0.154815 -0.364704 0)
(0.00658666 -0.748097 0)
(-0.056333 0.116253 0)
(0.401586 0.00328338 0)
(0.65576 -0.125348 0)
(0.815586 -0.238039 0)
(0.944538 -0.337568 0)
(1.03762 -0.398512 0)
(1.06781 -0.419033 0)
(1.0061 -0.364396 0)
(0.814515 -0.218827 0)
(0.611848 0.0168734 0)
(0.726942 0.155642 0)
(0.909805 0.354294 0)
(1.01434 0.564915 0)
(0.937998 0.67879 0)
(0.635281 0.62979 0)
(0.29673 0.503985 0)
(0.108393 0.226528 0)
(0.0953072 -0.347879 0)
(0.076866 -0.753582 0)
(0.217661 -0.0437451 0)
(0.506251 -0.106757 0)
(0.725134 -0.193549 0)
(0.874311 -0.284989 0)
(0.977726 -0.369476 0)
(1.00181 -0.411022 0)
(0.933705 -0.393529 0)
(0.758974 -0.277329 0)
(0.510295 -0.0894387 0)
(0.297388 -0.0162642 0)
(0.265252 0.130986 0)
(0.472602 0.304667 0)
(0.848806 0.520902 0)
(0.962166 0.708489 0)
(0.822772 0.715131 0)
(0.580175 0.588977 0)
(0.397183 0.275562 0)
(0.31789 -0.296455 0)
(0.139872 -0.703609 0)
(0.00245717 0.141132 0)
(0.0084961 0.0772303 0)
(-0.00298907 0.0127746 0)
(0.00962117 -0.0512028 0)
(0.00440197 -0.0981045 0)
(-0.00849345 -0.117837 0)
(-0.0180575 -0.113705 0)
(-0.0134747 -0.0900085 0)
(-0.00326691 -0.0616323 0)
(0.00801386 -0.0391615 0)
(0.018224 -0.0245171 0)
(0.0272807 -0.0164906 0)
(0.0358434 -0.0128108 0)
(0.0444061 -0.0113596 0)
(0.0531908 -0.0106131 0)
(0.0624649 -0.00942253 0)
(0.0724351 -0.00683586 0)
(0.0838393 -0.00202978 0)
(0.0965761 0.00622211 0)
(0.114382 0.018486 0)
(0.132402 0.0392229 0)
(0.170779 0.0610694 0)
(0.19351 0.129164 0)
(0.0235722 0.0892926 0)
(0.0531244 0.0844742 0)
(0.101905 0.0152013 0)
(0.124053 -0.0378651 0)
(0.1133 -0.0546367 0)
(0.0718534 -0.0618309 0)
(0.0289674 -0.0782915 0)
(0.00765315 -0.0856946 0)
(-0.00189956 -0.0761608 0)
(-4.51649e-07 -0.061448 0)
(0.00887059 -0.0477426 0)
(0.0200514 -0.0383129 0)
(0.0310009 -0.0334614 0)
(0.0426565 -0.0317282 0)
(0.054826 -0.0315713 0)
(0.0675971 -0.0317903 0)
(0.081267 -0.0316483 0)
(0.0963566 -0.0308488 0)
(0.113596 -0.029139 0)
(0.133682 -0.0269441 0)
(0.158653 -0.0224634 0)
(0.187522 -0.0234338 0)
(0.230413 -0.00799295 0)
(0.0250712 -0.0199678 0)
(0.099863 -0.0745598 0)
(0.112519 -0.114435 0)
(0.10134 -0.0905377 0)
(0.0961814 -0.026493 0)
(0.0674116 0.0138098 0)
(0.0608576 -0.00347222 0)
(0.0600402 -0.0373134 0)
(0.0411 -0.0603009 0)
(0.0267957 -0.0682867 0)
(0.0201852 -0.0674486 0)
(0.0177455 -0.0654248 0)
(0.0223503 -0.0648055 0)
(0.0313973 -0.0651826 0)
(0.0436753 -0.0656359 0)
(0.0579737 -0.066029 0)
(0.0737048 -0.0663894 0)
(0.0906839 -0.0668174 0)
(0.109301 -0.0675207 0)
(0.130417 -0.0688888 0)
(0.154932 -0.0711748 0)
(0.183603 -0.076565 0)
(0.22038 -0.0815089 0)
(0.00336593 -0.0896001 0)
(-0.324272 -0.0265496 0)
(-0.398111 0.0207076 0)
(-0.286713 -0.00479784 0)
(-0.124184 0.0481034 0)
(0.0378219 -0.00594137 0)
(0.144542 -0.0702288 0)
(0.199372 -0.033928 0)
(0.21371 -2.3108e-05 0)
(0.192904 0.00147862 0)
(0.126711 -0.000956373 0)
(0.0322732 -0.0116341 0)
(-0.00319877 -0.0349728 0)
(-0.0202955 -0.0637881 0)
(-0.0186292 -0.0851641 0)
(-0.00540403 -0.0983377 0)
(0.0167241 -0.108363 0)
(0.0435761 -0.11657 0)
(0.0726708 -0.125561 0)
(0.108402 -0.139547 0)
(0.145616 -0.149971 0)
(0.18497 -0.168955 0)
(0.225945 -0.192588 0)
(0.0714262 0.388076 0)
(-0.151293 0.348108 0)
(-0.0913688 -0.0155786 0)
(-0.0463178 -0.517162 0)
(-0.124314 -0.649032 0)
(-0.10316 -0.506414 0)
(-0.134256 -0.237053 0)
(-0.104352 -0.0922813 0)
(-0.085594 -0.0574563 0)
(-0.0358845 0.0818061 0)
(0.00229907 0.144057 0)
(0.0248014 0.107969 0)
(0.0550955 0.0246043 0)
(0.0746714 -0.0477282 0)
(0.0858504 -0.090889 0)
(0.0905195 -0.116293 0)
(0.0920974 -0.133405 0)
(0.0931261 -0.146562 0)
(0.0951586 -0.159411 0)
(0.0966257 -0.181776 0)
(0.0987807 -0.193745 0)
(0.101809 -0.212785 0)
(0.108833 -0.192917 0)
(0.0653015 0.280925 0)
(0.0373167 0.424156 0)
(0.119893 0.0869098 0)
(0.0976715 -0.12475 0)
(-0.0128029 -0.131759 0)
(-0.0645811 -0.15861 0)
(-0.082851 -0.162067 0)
(-0.0790443 -0.137289 0)
(-0.0729898 -0.113818 0)
(-0.0555231 -0.0990997 0)
(-0.0134811 -0.0821655 0)
(0.0311197 -0.0857967 0)
(0.058775 -0.092601 0)
(0.067413 -0.0984374 0)
(0.0665266 -0.106371 0)
(0.0637962 -0.117077 0)
(0.0621327 -0.130269 0)
(0.0624421 -0.145561 0)
(0.0649425 -0.162022 0)
(0.0695982 -0.178198 0)
(0.0771828 -0.194404 0)
(0.0871299 -0.206122 0)
(0.099197 -0.219713 0)
(-0.0155178 0.127855 0)
(0.0559051 0.194476 0)
(0.112088 -0.0362931 0)
(0.110589 -0.176455 0)
(0.081684 -0.200512 0)
(0.0537754 -0.184034 0)
(0.0273515 -0.156087 0)
(0.00662019 -0.12839 0)
(-0.0027681 -0.105538 0)
(-0.00224011 -0.0838063 0)
(0.00473924 -0.0704874 0)
(0.0132519 -0.0697058 0)
(0.0199291 -0.078076 0)
(0.0242437 -0.0895999 0)
(0.0264803 -0.101975 0)
(0.0273239 -0.115704 0)
(0.027728 -0.131803 0)
(0.0281201 -0.149575 0)
(0.0280497 -0.168505 0)
(0.0299136 -0.192189 0)
(0.0364473 -0.219675 0)
(0.0471815 -0.242073 0)
(0.0591486 -0.256708 0)
(-0.025997 0.13609 0)
(0.0303647 0.038389 0)
(0.0589196 -0.0687106 0)
(0.058093 -0.113473 0)
(0.0423744 -0.113717 0)
(0.0251391 -0.104306 0)
(0.0126524 -0.0999503 0)
(0.00589174 -0.0983075 0)
(0.00321182 -0.0956961 0)
(0.00336326 -0.0923281 0)
(0.00562946 -0.0899476 0)
(0.00866071 -0.0896166 0)
(0.0108368 -0.0914967 0)
(0.0114766 -0.0958971 0)
(0.0107428 -0.103596 0)
(0.00910643 -0.115281 0)
(0.00656157 -0.130411 0)
(0.00260211 -0.145815 0)
(-0.00370155 -0.164681 0)
(-0.00648064 -0.198968 0)
(-0.00383837 -0.235948 0)
(0.000438835 -0.258746 0)
(5.78146e-05 -0.259842 0)
(-0.00262428 0.143133 0)
(0.0199456 0.0241042 0)
(0.029315 -0.0677012 0)
(0.0304887 -0.0946231 0)
(0.0249828 -0.097831 0)
(0.0193191 -0.0992409 0)
(0.0154725 -0.0995286 0)
(0.0125664 -0.0978 0)
(0.010332 -0.0950507 0)
(0.00888004 -0.0922823 0)
(0.00805429 -0.0901725 0)
(0.00743843 -0.0892543 0)
(0.00654829 -0.0899067 0)
(0.00501556 -0.092721 0)
(0.00254879 -0.0986081 0)
(-0.00108891 -0.10791 0)
(-0.0067286 -0.119259 0)
(-0.0145799 -0.129616 0)
(-0.0246123 -0.149133 0)
(-0.0320672 -0.19328 0)
(-0.0401594 -0.231436 0)
(-0.0489942 -0.246348 0)
(-0.0641392 -0.232289 0)
(0.00532169 0.11594 0)
(0.0171448 -0.0157698 0)
(0.0246827 -0.0869557 0)
(0.024807 -0.0983131 0)
(0.0224909 -0.0941416 0)
(0.0196765 -0.0915737 0)
(0.0167232 -0.0910852 0)
(0.0140723 -0.0907518 0)
(0.0119602 -0.089927 0)
(0.0103253 -0.0887251 0)
(0.00898869 -0.0874361 0)
(0.00773849 -0.0864294 0)
(0.00635405 -0.0861983 0)
(0.00456569 -0.0874289 0)
(0.00195827 -0.0908186 0)
(-0.00197879 -0.0964335 0)
(-0.00805894 -0.103225 0)
(-0.0156821 -0.109945 0)
(-0.0243579 -0.127613 0)
(-0.0366744 -0.16671 0)
(-0.0549292 -0.200973 0)
(-0.0731541 -0.210908 0)
(-0.0945095 -0.192437 0)
(0.00549836 0.0965653 0)
(0.0143315 -0.0304618 0)
(0.0188662 -0.0868361 0)
(0.0181001 -0.0914225 0)
(0.0163343 -0.0876964 0)
(0.0150541 -0.0869262 0)
(0.0139713 -0.0874412 0)
(0.0128847 -0.0876272 0)
(0.0118468 -0.0872257 0)
(0.0109123 -0.0863629 0)
(0.0100776 -0.0852436 0)
(0.0093062 -0.0841695 0)
(0.00853123 -0.0835016 0)
(0.00758825 -0.0836125 0)
(0.00615347 -0.0848288 0)
(0.00377429 -0.0873095 0)
(1.37708e-05 -0.0909334 0)
(-0.00455188 -0.0957097 0)
(-0.00976185 -0.106876 0)
(-0.0216443 -0.129271 0)
(-0.0400413 -0.158935 0)
(-0.0611291 -0.171259 0)
(-0.0814383 -0.159239 0)
(0.00475453 0.0798714 0)
(0.0113762 -0.0455514 0)
(0.0144869 -0.0894811 0)
(0.0140206 -0.0900382 0)
(0.013261 -0.0864355 0)
(0.0128559 -0.0857399 0)
(0.0124806 -0.086047 0)
(0.0120539 -0.086146 0)
(0.0116515 -0.0858385 0)
(0.0113374 -0.0851679 0)
(0.0111395 -0.0842559 0)
(0.0110551 -0.0833349 0)
(0.0110575 -0.0826633 0)
(0.0110815 -0.0824093 0)
(0.0109938 -0.082672 0)
(0.0105557 -0.0836275 0)
(0.00954388 -0.0855451 0)
(0.00793533 -0.0888446 0)
(0.0052276 -0.0944599 0)
(-0.0006204 -0.103914 0)
(-0.0123683 -0.120498 0)
(-0.0291475 -0.133281 0)
(-0.0448593 -0.133683 0)
(0.00407753 0.0660574 0)
(0.00879844 -0.0556624 0)
(0.0110526 -0.0902396 0)
(0.0108829 -0.0888422 0)
(0.0107288 -0.0858271 0)
(0.0108632 -0.0854142 0)
(0.0110133 -0.0857192 0)
(0.0111297 -0.0858518 0)
(0.0112667 -0.0856905 0)
(0.0114787 -0.0852527 0)
(0.0117994 -0.0846068 0)
(0.0122306 -0.0839309 0)
(0.0127477 -0.0834565 0)
(0.0133262 -0.0833297 0)
(0.0139458 -0.0835693 0)
(0.0145417 -0.0841856 0)
(0.0149784 -0.0852983 0)
(0.0149779 -0.0872147 0)
(0.0141122 -0.0900251 0)
(0.0119788 -0.0938121 0)
(0.00727375 -0.100069 0)
(-0.000995834 -0.106866 0)
(-0.0113155 -0.111502 0)
(0.00316376 0.0554206 0)
(0.00655878 -0.0632627 0)
(0.00840591 -0.0912911 0)
(0.00863019 -0.0889721 0)
(0.00895458 -0.0864099 0)
(0.00946956 -0.0861306 0)
(0.00998531 -0.0863984 0)
(0.0104799 -0.0865343 0)
(0.0109885 -0.0864664 0)
(0.0115482 -0.0862019 0)
(0.0121875 -0.0857649 0)
(0.0129074 -0.0852686 0)
(0.0136726 -0.0849174 0)
(0.0144383 -0.0848967 0)
(0.0151838 -0.0852545 0)
(0.0159094 -0.0858981 0)
(0.0165761 -0.0867154 0)
(0.0170247 -0.0877116 0)
(0.0169998 -0.0889903 0)
(0.0162768 -0.090561 0)
(0.0145642 -0.0925296 0)
(0.0112943 -0.0947207 0)
(0.00638632 -0.0971438 0)
(0.0022898 0.0475819 0)
(0.00482768 -0.0689962 0)
(0.00651116 -0.0926441 0)
(0.00710838 -0.0899124 0)
(0.0077974 -0.0876649 0)
(0.00860001 -0.0874573 0)
(0.00938951 -0.0876956 0)
(0.0101594 -0.0878289 0)
(0.0109308 -0.0878143 0)
(0.0117251 -0.0876591 0)
(0.0125628 -0.0873592 0)
(0.0134479 -0.0869605 0)
(0.0143463 -0.086601 0)
(0.0151905 -0.086466 0)
(0.0159175 -0.0866729 0)
(0.0165058 -0.0871817 0)
(0.016967 -0.0878177 0)
(0.0172934 -0.0883939 0)
(0.0174038 -0.0888372 0)
(0.0171349 -0.0891905 0)
(0.0163667 -0.0894764 0)
(0.0148958 -0.0896598 0)
(0.0127654 -0.0900033 0)
(0.0015722 0.0419491 0)
(0.00359698 -0.0736979 0)
(0.00527677 -0.0945086 0)
(0.00620254 -0.0915543 0)
(0.00717456 -0.0894789 0)
(0.00820758 -0.0892896 0)
(0.00921856 -0.0894906 0)
(0.0102054 -0.0896008 0)
(0.0111801 -0.0895913 0)
(0.0121526 -0.0894744 0)
(0.0131356 -0.0892373 0)
(0.0141368 -0.0888792 0)
(0.015138 -0.0884584 0)
(0.0160819 -0.088104 0)
(0.0168874 -0.08796 0)
(0.0174915 -0.0880868 0)
(0.0178843 -0.0883954 0)
(0.0181001 -0.088679 0)
(0.0181704 -0.0887309 0)
(0.0180607 -0.0884666 0)
(0.0177139 -0.0879346 0)
(0.0170016 -0.0871949 0)
(0.016074 -0.0864494 0)
(0.00104153 0.0378791 0)
(0.0028149 -0.0779168 0)
(0.00457584 -0.0968957 0)
(0.00577345 -0.0937552 0)
(0.00697599 -0.0917443 0)
(0.00820337 -0.0915358 0)
(0.00940282 -0.0916877 0)
(0.010573 -0.0917553 0)
(0.01172 -0.0917152 0)
(0.0128474 -0.0915832 0)
(0.0139613 -0.0913499 0)
(0.0150697 -0.090997 0)
(0.0161705 -0.0905278 0)
(0.0172352 -0.0899984 0)
(0.0182019 -0.0895176 0)
(0.0189955 -0.0891925 0)
(0.0195681 -0.0890447 0)
(0.0199258 -0.0889625 0)
(0.0201203 -0.0887423 0)
(0.0201974 -0.0882066 0)
(0.0201752 -0.0873057 0)
(0.0199716 -0.0860969 0)
(0.0196903 -0.084767 0)
(0.000693358 0.0347993 0)
(0.0023985 -0.0820002 0)
(0.00427249 -0.0997592 0)
(0.00568553 -0.0964121 0)
(0.00708016 -0.0943983 0)
(0.00847809 -0.0941475 0)
(0.00984321 -0.0942388 0)
(0.0111753 -0.0942484 0)
(0.012478 -0.0941551 0)
(0.0137525 -0.0939756 0)
(0.0150011 -0.0937055 0)
(0.0162288 -0.0933272 0)
(0.0174406 -0.0928232 0)
(0.0186311 -0.0921981 0)
(0.0197705 -0.0915022 0)
(0.0208033 -0.090826 0)
(0.0216703 -0.0902485 0)
(0.0223432 -0.0897641 0)
(0.0228449 -0.0892521 0)
(0.0232307 -0.0885308 0)
(0.0235579 -0.087467 0)
(0.0238071 -0.0860402 0)
(0.0240464 -0.084391 0)
(0.000510842 0.032222 0)
(0.0022577 -0.0861412 0)
(0.00423976 -0.103011 0)
(0.00582065 -0.0994328 0)
(0.00737355 -0.0973834 0)
(0.00892268 -0.0970811 0)
(0.0104376 -0.0971066 0)
(0.0119182 -0.0970511 0)
(0.0133681 -0.0968958 0)
(0.0147883 -0.0966567 0)
(0.0161801 -0.0963317 0)
(0.0175462 -0.0959084 0)
(0.0188915 -0.0953681 0)
(0.0202205 -0.0946942 0)
(0.0215267 -0.0938923 0)
(0.0227826 -0.0930104 0)
(0.0239424 -0.0921283 0)
(0.0249648 -0.0913035 0)
(0.0258428 -0.0905065 0)
(0.0266117 -0.089611 0)
(0.0273308 -0.088461 0)
(0.0280264 -0.0869656 0)
(0.0287535 -0.0851877 0)
(0.000461936 0.0297738 0)
(0.00230376 -0.0904322 0)
(0.00437435 -0.106558 0)
(0.00608451 -0.102743 0)
(0.00776864 -0.100654 0)
(0.00945128 -0.100303 0)
(0.011103 -0.100264 0)
(0.0127231 -0.100145 0)
(0.0143151 -0.0999301 0)
(0.0158812 -0.0996345 0)
(0.0174231 -0.0992562 0)
(0.0189428 -0.0987858 0)
(0.020444 -0.0982093 0)
(0.0219326 -0.097507 0)
(0.023413 -0.0966629 0)
(0.0248779 -0.0956872 0)
(0.0263022 -0.0946328 0)
(0.02765 -0.0935752 0)
(0.0288984 -0.0925514 0)
(0.0300612 -0.0915077 0)
(0.0311821 -0.0903115 0)
(0.0323126 -0.088834 0)
(0.033492 -0.0870664 0)
(0.000502406 0.0272063 0)
(0.00246137 -0.094898 0)
(0.00459458 -0.110315 0)
(0.00640101 -0.10628 0)
(0.00819729 -0.104173 0)
(0.00999981 -0.103784 0)
(0.0117776 -0.10369 0)
(0.0135294 -0.103517 0)
(0.0152593 -0.103253 0)
(0.0169703 -0.102913 0)
(0.018665 -0.102495 0)
(0.0203461 -0.10199 0)
(0.0220168 -0.101389 0)
(0.0236824 -0.100674 0)
(0.0253502 -0.0998241 0)
(0.0270244 -0.0988275 0)
(0.0286967 -0.097706 0)
(0.0303444 -0.0965239 0)
(0.0319412 -0.0953517 0)
(0.0334854 -0.0942009 0)
(0.0349988 -0.0929877 0)
(0.0365449 -0.0915795 0)
(0.0381411 -0.0899191 0)
(0.000594416 0.0243691 0)
(0.00267261 -0.0995262 0)
(0.00483503 -0.114218 0)
(0.00671298 -0.110005 0)
(0.00860697 -0.107913 0)
(0.0105187 -0.107504 0)
(0.0124127 -0.107368 0)
(0.0142881 -0.107155 0)
(0.0161498 -0.106858 0)
(0.0180018 -0.106492 0)
(0.0198475 -0.106054 0)
(0.0216906 -0.105535 0)
(0.0235348 -0.104928 0)
(0.0253851 -0.10422 0)
(0.0272491 -0.103393 0)
(0.0291358 -0.102426 0)
(0.0310485 -0.101317 0)
(0.032978 -0.100107 0)
(0.034903 -0.0988713 0)
(0.0368141 -0.0976649 0)
(0.0387108 -0.0964609 0)
(0.0406589 -0.0951508 0)
(0.0426483 -0.0936585 0)
(0.000719266 0.0211862 0)
(0.00289281 -0.104263 0)
(0.00504835 -0.118205 0)
(0.00698452 -0.113885 0)
(0.00896516 -0.111851 0)
(0.0109746 -0.111442 0)
(0.0129733 -0.111279 0)
(0.014961 -0.111043 0)
(0.0169444 -0.110732 0)
(0.0189283 -0.110361 0)
(0.0209173 -0.109925 0)
(0.0229159 -0.109418 0)
(0.0249288 -0.10883 0)
(0.0269615 -0.108155 0)
(0.0290217 -0.107378 0)
(0.0311195 -0.106479 0)
(0.0332646 -0.105444 0)
(0.035459 -0.104289 0)
(0.0376905 -0.103075 0)
(0.0399493 -0.101876 0)
(0.0422166 -0.100714 0)
(0.0445552 -0.0995197 0)
(0.0469222 -0.0982262 0)
(0.000860997 0.0176397 0)
(0.00308576 -0.109029 0)
(0.00521845 -0.122231 0)
(0.00721065 -0.1179 0)
(0.00926954 -0.115966 0)
(0.0113623 -0.115571 0)
(0.01345 -0.115396 0)
(0.0155345 -0.115155 0)
(0.0176239 -0.114851 0)
(0.0197244 -0.114496 0)
(0.0218416 -0.114087 0)
(0.0239811 -0.113617 0)
(0.0261488 -0.113079 0)
(0.0283511 -0.112466 0)
(0.0305961 -0.111769 0)
(0.0328941 -0.110972 0)
(0.0352571 -0.110058 0)
(0.0376949 -0.109026 0)
(0.0402041 -0.107914 0)
(0.0427807 -0.106794 0)
(0.0453939 -0.105716 0)
(0.0481028 -0.104658 0)
(0.0508296 -0.103576 0)
(0.000984998 0.0137614 0)
(0.0032324 -0.11377 0)
(0.00537663 -0.126302 0)
(0.00743283 -0.122047 0)
(0.00955995 -0.120231 0)
(0.0117179 -0.119858 0)
(0.0138747 -0.119683 0)
(0.0160361 -0.119453 0)
(0.0182109 -0.119176 0)
(0.0204067 -0.11886 0)
(0.0226302 -0.118502 0)
(0.0248879 -0.118096 0)
(0.0271871 -0.117636 0)
(0.0295355 -0.117116 0)
(0.0319417 -0.116531 0)
(0.0344161 -0.11587 0)
(0.0369713 -0.115116 0)
(0.0396209 -0.11426 0)
(0.0423692 -0.113319 0)
(0.0452202 -0.112348 0)
(0.0481384 -0.11141 0)
(0.0511816 -0.110515 0)
(0.0542383 -0.109655 0)
(0.00104484 0.00962755 0)
(0.00334954 -0.118539 0)
(0.00560085 -0.130499 0)
(0.00773214 -0.126331 0)
(0.00990924 -0.124615 0)
(0.0121089 -0.124262 0)
(0.0143117 -0.124097 0)
(0.0165269 -0.123895 0)
(0.0187635 -0.123661 0)
(0.0210294 -0.123403 0)
(0.0233325 -0.123119 0)
(0.0256803 -0.122801 0)
(0.0280812 -0.122444 0)
(0.0305439 -0.122047 0)
(0.0330777 -0.121604 0)
(0.0356934 -0.121108 0)
(0.0384031 -0.120547 0)
(0.041222 -0.119908 0)
(0.0441594 -0.119194 0)
(0.0472282 -0.118439 0)
(0.0503935 -0.117699 0)
(0.0537167 -0.117008 0)
(0.0570563 -0.116385 0)
(0.0010102 0.00533775 0)
(0.00348802 -0.123545 0)
(0.00597708 -0.134959 0)
(0.00818048 -0.130741 0)
(0.010376 -0.129063 0)
(0.0125877 -0.128729 0)
(0.0148107 -0.12859 0)
(0.0170557 -0.128429 0)
(0.019329 -0.128254 0)
(0.0216389 -0.128072 0)
(0.0239938 -0.127878 0)
(0.0264021 -0.127668 0)
(0.0288726 -0.127438 0)
(0.0314148 -0.127186 0)
(0.0340387 -0.12691 0)
(0.0367548 -0.126604 0)
(0.0395749 -0.12626 0)
(0.0425139 -0.125868 0)
(0.0455841 -0.125422 0)
(0.0488056 -0.124937 0)
(0.0521482 -0.124454 0)
(0.055681 -0.124016 0)
(0.0592397 -0.123657 0)
(0.000887568 0.000963181 0)
(0.00369957 -0.129109 0)
(0.00653124 -0.139794 0)
(0.00877387 -0.135221 0)
(0.0109432 -0.133502 0)
(0.013136 -0.133202 0)
(0.0153514 -0.13311 0)
(0.0176012 -0.133007 0)
(0.0198859 -0.132905 0)
(0.0222139 -0.132812 0)
(0.0245937 -0.132724 0)
(0.0270335 -0.132638 0)
(0.0295427 -0.132551 0)
(0.0321308 -0.132462 0)
(0.0348078 -0.132369 0)
(0.0375838 -0.13227 0)
(0.0404702 -0.132159 0)
(0.043481 -0.13203 0)
(0.046629 -0.131875 0)
(0.049939 -0.131699 0)
(0.0533868 -0.131524 0)
(0.0570517 -0.131389 0)
(0.0607541 -0.131329 0)
(0.000720608 -0.00348999 0)
(0.00400215 -0.135516 0)
(0.00718306 -0.145005 0)
(0.00940386 -0.139668 0)
(0.0114979 -0.13785 0)
(0.0136478 -0.137619 0)
(0.0158279 -0.137602 0)
(0.0180567 -0.137576 0)
(0.0203266 -0.137561 0)
(0.0226454 -0.13757 0)
(0.0250222 -0.1376 0)
(0.0274647 -0.13765 0)
(0.0299817 -0.137718 0)
(0.0325826 -0.137803 0)
(0.0352769 -0.137905 0)
(0.0380743 -0.138022 0)
(0.0409855 -0.138153 0)
(0.0440232 -0.138293 0)
(0.0472 -0.13844 0)
(0.0505418 -0.138592 0)
(0.0540294 -0.138757 0)
(0.0577513 -0.138966 0)
(0.0615204 -0.139243 0)
(0.000582238 -0.00807813 0)
(0.00438104 -0.142847 0)
(0.00777444 -0.150435 0)
(0.00990563 -0.143964 0)
(0.0118833 -0.142043 0)
(0.0139795 -0.14193 0)
(0.0160999 -0.142014 0)
(0.0182798 -0.14208 0)
(0.0205068 -0.142164 0)
(0.0227863 -0.142287 0)
(0.0251288 -0.142446 0)
(0.0275412 -0.142642 0)
(0.0300319 -0.142873 0)
(0.0326098 -0.143139 0)
(0.0352837 -0.143442 0)
(0.0380628 -0.143781 0)
(0.0409571 -0.144156 0)
(0.0439783 -0.144568 0)
(0.0471381 -0.145017 0)
(0.050461 -0.145501 0)
(0.0539313 -0.146022 0)
(0.0576426 -0.1466 0)
(0.0614052 -0.147245 0)
(0.000578484 -0.0129409 0)
(0.00483357 -0.150906 0)
(0.00816574 -0.15579 0)
(0.0101591 -0.148014 0)
(0.0119941 -0.146063 0)
(0.0140336 -0.146109 0)
(0.016074 -0.146302 0)
(0.018175 -0.146466 0)
(0.0203286 -0.146659 0)
(0.0225355 -0.146903 0)
(0.0248082 -0.147199 0)
(0.0271534 -0.147547 0)
(0.0295787 -0.147946 0)
(0.0320928 -0.148399 0)
(0.0347041 -0.148906 0)
(0.037421 -0.149469 0)
(0.0402531 -0.15009 0)
(0.0432112 -0.150772 0)
(0.046306 -0.151518 0)
(0.0495594 -0.152329 0)
(0.0529574 -0.153206 0)
(0.0565938 -0.154162 0)
(0.0602795 -0.155191 0)
(0.00084548 -0.0183602 0)
(0.00540513 -0.15923 0)
(0.00831873 -0.1607 0)
(0.0101601 -0.151751 0)
(0.0118363 -0.149902 0)
(0.0138067 -0.150118 0)
(0.0157465 -0.150407 0)
(0.0177366 -0.150665 0)
(0.019784 -0.150968 0)
(0.0218835 -0.151336 0)
(0.0240487 -0.151772 0)
(0.0262867 -0.152274 0)
(0.0286049 -0.152843 0)
(0.0310115 -0.153483 0)
(0.0335145 -0.154194 0)
(0.0361221 -0.15498 0)
(0.0388429 -0.155845 0)
(0.0416869 -0.156792 0)
(0.0446639 -0.157828 0)
(0.0477926 -0.158955 0)
(0.0510603 -0.160176 0)
(0.054555 -0.161501 0)
(0.0580927 -0.162914 0)
(0.00151482 -0.0248086 0)
(0.00617493 -0.167198 0)
(0.00829885 -0.16479 0)
(0.0100004 -0.155107 0)
(0.0115004 -0.15352 0)
(0.0133638 -0.153882 0)
(0.0151744 -0.154243 0)
(0.0170192 -0.154587 0)
(0.0189251 -0.154997 0)
(0.0208821 -0.155489 0)
(0.0229024 -0.156062 0)
(0.0249943 -0.156716 0)
(0.0271644 -0.157453 0)
(0.0294207 -0.158276 0)
(0.0317706 -0.159187 0)
(0.0342215 -0.160191 0)
(0.0367813 -0.161292 0)
(0.0394586 -0.162496 0)
(0.0422624 -0.163809 0)
(0.0452076 -0.165235 0)
(0.0482845 -0.16678 0)
(0.0515697 -0.168453 0)
(0.0548907 -0.170235 0)
(0.00264016 -0.0330185 0)
(0.00717874 -0.174227 0)
(0.00820024 -0.167837 0)
(0.0097762 -0.158092 0)
(0.0110744 -0.156912 0)
(0.0127686 -0.157377 0)
(0.0144105 -0.157793 0)
(0.0160739 -0.158221 0)
(0.0178015 -0.158738 0)
(0.0195809 -0.15935 0)
(0.021421 -0.160057 0)
(0.0233304 -0.160859 0)
(0.0253149 -0.161758 0)
(0.0273814 -0.162758 0)
(0.0295367 -0.163862 0)
(0.0317872 -0.165074 0)
(0.0341392 -0.1664 0)
(0.0365996 -0.167845 0)
(0.0391761 -0.169417 0)
(0.04188 -0.171121 0)
(0.0447061 -0.172966 0)
(0.0477162 -0.17496 0)
(0.0507558 -0.177088 0)
(0.00407652 -0.0437833 0)
(0.00828429 -0.179788 0)
(0.00804377 -0.169726 0)
(0.00950511 -0.160702 0)
(0.0105721 -0.160021 0)
(0.0120339 -0.160554 0)
(0.0134642 -0.161026 0)
(0.014912 -0.161545 0)
(0.0164264 -0.16217 0)
(0.0179949 -0.162903 0)
(0.0196227 -0.163741 0)
(0.0213169 -0.164685 0)
(0.0230824 -0.165738 0)
(0.0249246 -0.166905 0)
(0.0268491 -0.168187 0)
(0.0288606 -0.169591 0)
(0.0309637 -0.171121 0)
(0.0331629 -0.172783 0)
(0.0354643 -0.174586 0)
(0.0378755 -0.176536 0)
(0.0403956 -0.178642 0)
(0.0430686 -0.180915 0)
(0.045762 -0.183347 0)
(0.00546869 -0.0571285 0)
(0.0092081 -0.183225 0)
(0.00775128 -0.17023 0)
(0.00912871 -0.162636 0)
(0.00993831 -0.162457 0)
(0.0111244 -0.16304 0)
(0.0123097 -0.163585 0)
(0.0135157 -0.164207 0)
(0.0147893 -0.164945 0)
(0.0161198 -0.165796 0)
(0.0175085 -0.16676 0)
(0.0189605 -0.167837 0)
(0.0204793 -0.169032 0)
(0.0220686 -0.170348 0)
(0.0237321 -0.17179 0)
(0.0254728 -0.173361 0)
(0.0272932 -0.175065 0)
(0.0291959 -0.176911 0)
(0.0311846 -0.178905 0)
(0.033264 -0.181056 0)
(0.0354358 -0.183373 0)
(0.0377227 -0.185862 0)
(0.0400245 -0.188528 0)
(0.00655945 -0.0725123 0)
(0.00977461 -0.184353 0)
(0.00723613 -0.169607 0)
(0.00856781 -0.163912 0)
(0.00909416 -0.164154 0)
(0.00998138 -0.164791 0)
(0.0109019 -0.165433 0)
(0.0118506 -0.166171 0)
(0.0128653 -0.167027 0)
(0.0139378 -0.167997 0)
(0.0150663 -0.169083 0)
(0.0162533 -0.170287 0)
(0.017501 -0.171614 0)
(0.0188112 -0.173067 0)
(0.0201858 -0.174651 0)
(0.0216257 -0.176369 0)
(0.0231316 -0.178224 0)
(0.0247039 -0.180226 0)
(0.0263449 -0.182382 0)
(0.028057 -0.184701 0)
(0.0298423 -0.18719 0)
(0.0317097 -0.189855 0)
(0.0335963 -0.192701 0)
(0.00733516 -0.090416 0)
(0.00992027 -0.183978 0)
(0.00641157 -0.169159 0)
(0.00769697 -0.165566 0)
(0.00792563 -0.16612 0)
(0.00850686 -0.166831 0)
(0.00915066 -0.167594 0)