/*--------------------------------*- C++ -*----------------------------------*\
| =========                 |                                                 |
| \\      /  F ield         | OpenFOAM: The Open Source CFD Toolbox           |
|  \\    /   O peration     | Version:  2206                                  |
|   \\  /    A nd           | Website:  www.openfoam.com                      |
|    \\/     M anipulation  |                                                 |
\*---------------------------------------------------------------------------*/
FoamFile
{
    version     2.0;
    format      ascii;
    arch        "LSB;label=32;scalar=64";
    class       surfaceScalarField;
    location    "0.225";
    object      phi;
}
// * * * * * * * * * * * * * * * * * * * * * * * * * * * * * * * * * * * * * //

dimensions      [0 3 -1 0 0 0 0];

oriented        oriented;

internalField   nonuniform List<scalar> 
4432
(
1.14806e-06
-1.14806e-06
6.23052e-06
-5.08245e-06
1.24509e-05
-6.2204e-06
1.83283e-05
-5.87736e-06
2.35582e-05
-5.22994e-06
2.8327e-05
-4.76874e-06
3.28884e-05
-4.56147e-06
3.74102e-05
-4.52173e-06
4.1949e-05
-4.53881e-06
4.64741e-05
-4.52513e-06
5.08955e-05
-4.4214e-06
5.50772e-05
-4.18169e-06
5.88359e-05
-3.75874e-06
6.19099e-05
-3.07397e-06
6.39274e-05
-2.01747e-06
6.40335e-05
-1.06137e-07
6.0495e-05
3.53852e-06
5.14558e-05
9.03913e-06
3.53555e-05
1.61004e-05
1.29313e-05
2.24242e-05
-9.65526e-06
2.25865e-05
-1.89604e-05
9.30519e-06
-1.89605e-05
1.20454e-06
-2.3526e-06
6.30511e-06
-1.0183e-05
1.25265e-05
-1.24418e-05
1.84023e-05
-1.17532e-05
2.36316e-05
-1.04592e-05
2.84094e-05
-9.54651e-06
3.2994e-05
-9.14609e-06
3.75492e-05
-9.07688e-06
4.21269e-05
-9.11653e-06
4.66955e-05
-9.09373e-06
5.11673e-05
-8.89319e-06
5.54106e-05
-8.42502e-06
5.92445e-05
-7.59263e-06
6.24379e-05
-6.26735e-06
6.4675e-05
-4.25465e-06
6.59645e-05
-1.39557e-06
6.65488e-05
2.95422e-06
6.57144e-05
9.87353e-06
6.07077e-05
2.1107e-05
4.7358e-05
3.57739e-05
2.56331e-05
4.43114e-05
6.09638e-06
2.88419e-05
-1.28641e-05
1.2887e-06
-3.6413e-06
6.4044e-06
-1.52987e-05
1.25809e-05
-1.86183e-05
1.83896e-05
-1.75619e-05
2.3565e-05
-1.56346e-05
2.83196e-05
-1.43011e-05
3.29121e-05
-1.37386e-05
3.74965e-05
-1.36613e-05
4.21159e-05
-1.37359e-05
4.67358e-05
-1.37136e-05
5.12713e-05
-1.34287e-05
5.5597e-05
-1.27507e-05
5.95443e-05
-1.15399e-05
6.28947e-05
-9.61779e-06
6.53819e-05
-6.74189e-06
6.66048e-05
-2.61847e-06
6.63513e-05
3.20779e-06
6.49243e-05
1.13006e-05
6.31557e-05
2.28756e-05
5.95794e-05
3.93502e-05
4.81109e-05
5.57799e-05
2.53471e-05
5.16057e-05
1.2483e-05
1.41481e-06
-5.05611e-06
6.56283e-06
-2.04467e-05
1.26733e-05
-2.47288e-05
1.83802e-05
-2.32688e-05
2.34798e-05
-2.07342e-05
2.82091e-05
-1.90303e-05
3.28217e-05
-1.83512e-05
3.74556e-05
-1.82952e-05
4.21415e-05
-1.84218e-05
4.68417e-05
-1.84138e-05
5.14754e-05
-1.80625e-05
5.59267e-05
-1.7202e-05
6.00413e-05
-1.56545e-05
6.36178e-05
-1.31942e-05
6.63956e-05
-9.5197e-06
6.80321e-05
-4.25494e-06
6.81676e-05
3.07223e-06
6.65582e-05
1.291e-05
6.37812e-05
2.56526e-05
6.12343e-05
4.18972e-05
5.50937e-05
6.19205e-05
3.52648e-05
7.14346e-05
4.77478e-05
1.58278e-06
-6.63889e-06
6.77069e-06
-2.56347e-05
1.27879e-05
-3.0746e-05
1.83596e-05
-2.88405e-05
2.3365e-05
-2.57397e-05
2.80686e-05
-2.37339e-05
3.27119e-05
-2.29944e-05
3.74102e-05
-2.29936e-05
4.21797e-05
-2.31912e-05
4.69798e-05
-2.32139e-05
5.17364e-05
-2.28191e-05
5.63463e-05
-2.18119e-05
6.06738e-05
-1.9982e-05
6.45373e-05
-1.70577e-05
6.7694e-05
-1.26764e-05
6.98225e-05
-6.38343e-06
7.05716e-05
2.32309e-06
6.96119e-05
1.38697e-05
6.66272e-05
2.86373e-05
6.23761e-05
4.61482e-05
5.63199e-05
6.79767e-05
3.88915e-05
8.8863e-05
8.66393e-05
1.79021e-06
-8.4291e-06
7.01474e-06
-3.08592e-05
1.29073e-05
-3.66386e-05
1.83147e-05
-3.42479e-05
2.32136e-05
-3.06385e-05
2.78935e-05
-2.84139e-05
3.25756e-05
-2.76765e-05
3.73476e-05
-2.77656e-05
4.22099e-05
-2.80536e-05
4.71212e-05
-2.81252e-05
5.20167e-05
-2.77146e-05
5.68107e-05
-2.66059e-05
6.13894e-05
-2.45607e-05
6.55928e-05
-2.12611e-05
6.9194e-05
-1.62776e-05
7.18793e-05
-9.06874e-06
7.32952e-05
9.07231e-07
7.30911e-05
1.40738e-05
7.07678e-05
3.09605e-05
6.57626e-05
5.11534e-05
5.80304e-05
7.57089e-05
4.11496e-05
0.000105744
0.000127789
2.02961e-06
-1.04587e-05
7.27927e-06
-3.61089e-05
1.30152e-05
-4.23745e-05
1.82365e-05
-3.94692e-05
2.30237e-05
-3.54258e-05
2.76848e-05
-3.30749e-05
3.24121e-05
-3.24039e-05
3.72622e-05
-3.26157e-05
4.2221e-05
-3.30123e-05
4.72483e-05
-3.31525e-05
5.22932e-05
-3.27595e-05
5.7291e-05
-3.16037e-05
6.2152e-05
-2.94217e-05
6.67374e-05
-2.58465e-05
7.08379e-05
-2.03782e-05
7.41494e-05
-1.23802e-05
7.63069e-05
-1.25027e-06
7.6928e-05
1.34527e-05
7.55466e-05
3.2342e-05
7.11514e-05
5.55486e-05
6.25221e-05
8.43382e-05
4.69876e-05
0.000121278
0.000174776
2.28772e-06
-1.27464e-05
7.54278e-06
-4.13639e-05
1.3098e-05
-4.79297e-05
1.81255e-05
-4.44967e-05
2.28049e-05
-4.01052e-05
2.74536e-05
-3.77236e-05
3.22296e-05
-3.71799e-05
3.71576e-05
-3.75437e-05
4.22114e-05
-3.80661e-05
4.73565e-05
-3.82977e-05
5.25604e-05
-3.79634e-05
5.77821e-05
-3.68254e-05
6.29567e-05
-3.45963e-05
6.79669e-05
-3.08567e-05
7.26247e-05
-2.5036e-05
7.66284e-05
-1.63839e-05
7.96052e-05
-4.22711e-06
8.1156e-05
1.1902e-05
8.08559e-05
3.2642e-05
7.78644e-05
5.85401e-05
6.97862e-05
9.24164e-05
5.34227e-05
0.000137642
0.000228199
5.03022e-06
-5.03022e-06
6.71938e-06
-1.6889e-06
6.98532e-06
-2.66064e-07
7.12929e-06
-1.44007e-07
7.43559e-06
-3.06117e-07
8.02487e-06
-5.8946e-07
8.74735e-06
-7.22249e-07
9.41188e-06
-6.64648e-07
9.92653e-06
-5.14598e-07
1.01644e-05
-2.37675e-07
1.00697e-05
9.45103e-08
9.63411e-06
4.35771e-07
8.87451e-06
7.59572e-07
7.83097e-06
1.04349e-06
6.55207e-06
1.27893e-06
5.07466e-06
1.47741e-06
3.45925e-06
1.61542e-06
1.74775e-06
1.71134e-06
1.74779e-06
3.61261e-06
-8.64296e-06
5.65698e-06
-3.73302e-06
6.45457e-06
-1.06365e-06
7.03497e-06
-7.24616e-07
7.6045e-06
-8.75227e-07
8.39716e-06
-1.38241e-06
9.30707e-06
-1.63192e-06
1.01745e-05
-1.53195e-06
1.08071e-05
-1.14737e-06
1.11251e-05
-5.55361e-07
1.10737e-05
1.45526e-07
1.0643e-05
8.66728e-07
9.8508e-06
1.55191e-06
8.72193e-06
2.1721e-06
7.31181e-06
2.68916e-06
5.6753e-06
3.11387e-06
3.86793e-06
3.42272e-06
1.95211e-06
3.62735e-06
3.69992e-06
4.41267e-06
-1.30558e-05
6.2726e-06
-5.59286e-06
6.71086e-06
-1.50181e-06
7.03302e-06
-1.047e-06
7.514e-06
-1.35583e-06
8.317e-06
-2.18565e-06
9.25789e-06
-2.5727e-06
1.01425e-05
-2.41639e-06
1.08096e-05
-1.81467e-06
1.11396e-05
-8.85234e-07
1.10918e-05
1.93159e-07
1.06532e-05
1.30542e-06
9.84933e-06
2.35594e-06
8.71593e-06
3.30539e-06
7.29931e-06
4.10601e-06
5.66405e-06
4.74909e-06
3.85752e-06
5.22939e-06
1.94691e-06
5.53779e-06
5.64696e-06
5.40325e-06
-1.84591e-05
6.79383e-06
-6.98342e-06
6.83981e-06
-1.54763e-06
6.93692e-06
-1.14432e-06
7.35953e-06
-1.77815e-06
8.21321e-06
-3.03953e-06
9.24856e-06
-3.60796e-06
1.02146e-05
-3.38233e-06
1.09268e-05
-2.52703e-06
1.12835e-05
-1.24179e-06
1.12446e-05
2.32038e-07
1.07969e-05
1.75314e-06
9.96694e-06
3.18598e-06
8.81621e-06
4.45605e-06
7.37784e-06
5.54446e-06
5.71686e-06
6.41029e-06
3.89667e-06
7.04957e-06
1.9657e-06
7.4684e-06
7.61293e-06
6.49263e-06
-2.49518e-05
7.32761e-06
-7.81846e-06
6.87741e-06
-1.0972e-06
6.69381e-06
-9.6092e-07
7.12453e-06
-2.20861e-06
8.07799e-06
-3.99313e-06
9.24608e-06
-4.77597e-06
1.03381e-05
-4.47417e-06
1.11366e-05
-3.32578e-06
1.15342e-05
-1.63922e-06
1.15034e-05
2.62806e-07
1.10452e-05
2.21125e-06
1.01923e-05
4.03902e-06
8.99587e-06
5.65256e-06
7.52491e-06
7.0154e-06
5.82968e-06
8.10539e-06
3.97026e-06
8.90894e-06
2.0023e-06
9.43613e-06
9.61534e-06
8.74686e-06
-3.36987e-05
8.34467e-06
-7.41637e-06
6.66047e-06
5.87255e-07
6.13047e-06
-4.31111e-07
6.71264e-06
-2.79062e-06
7.85923e-06
-5.13978e-06
9.22853e-06
-6.14526e-06
1.04919e-05
-5.73743e-06
1.14024e-05
-4.23656e-06
1.1852e-05
-2.08859e-06
1.18288e-05
2.86008e-07
1.13501e-05
2.68984e-06
1.04725e-05
4.91658e-06
9.23753e-06
6.8874e-06
7.71429e-06
8.53863e-06
5.97339e-06
9.84618e-06
4.06423e-06
1.0818e-05
2.04901e-06
1.14514e-05
1.16643e-05
1.12628e-05
-4.49614e-05
9.43135e-06
-5.58502e-06
5.85267e-06
4.16612e-06
5.1002e-06
3.21185e-07
6.0182e-06
-3.70851e-06
7.50777e-06
-6.6293e-06
9.19643e-06
-7.83394e-06
1.06771e-05
-7.21801e-06
1.17216e-05
-5.28125e-06
1.22569e-05
-2.62364e-06
1.22444e-05
2.98367e-07
1.17448e-05
3.18926e-06
1.08175e-05
5.84403e-06
9.51883e-06
8.18603e-06
7.94779e-06
1.01097e-05
6.13987e-06
1.16542e-05
4.17773e-06
1.27803e-05
2.10592e-06
1.35233e-05
1.377e-05
7.32588e-06
-5.22873e-05
8.43971e-06
-6.69898e-06
4.35585e-06
8.25012e-06
3.89841e-06
7.78497e-07
5.31368e-06
-5.12367e-06
7.17678e-06
-8.49236e-06
9.19835e-06
-9.85562e-06
1.09421e-05
-8.96164e-06
1.2147e-05
-6.48604e-06
1.27447e-05
-3.22135e-06
1.27336e-05
3.09426e-07
1.2201e-05
3.72193e-06
1.12188e-05
6.82635e-06
9.86764e-06
9.53705e-06
8.21322e-06
1.17641e-05
6.34498e-06
1.35225e-05
4.31008e-06
1.48152e-05
2.1703e-06
1.56631e-05
1.594e-05
5.6508e-06
-1.83972e-05
1.69145e-05
-5.26276e-05
2.80692e-05
-5.90844e-05
3.80822e-05
-5.45097e-05
4.77173e-05
-4.97403e-05
5.75996e-05
-4.76059e-05
6.79164e-05
-4.74967e-05
7.86339e-05
-4.82612e-05
8.96851e-05
-4.91173e-05
0.000101041
-4.9654e-05
0.000112714
-4.9636e-05
0.000124694
-4.88055e-05
0.000136936
-4.6838e-05
0.000149289
-4.32103e-05
0.000161442
-3.71885e-05
0.000172676
-2.76182e-05
0.000182202
-1.37529e-05
0.000188943
5.16089e-06
0.000192341
2.92441e-05
0.00019196
5.89214e-05
0.000187547
9.68295e-05
0.000187145
0.000138043
0.00020309
0.000212255
6.7861e-06
-2.51833e-05
1.78858e-05
-6.37273e-05
2.81273e-05
-6.93259e-05
3.73538e-05
-6.37361e-05
4.66564e-05
-5.90429e-05
5.65592e-05
-5.75087e-05
6.70702e-05
-5.80078e-05
7.80693e-05
-5.92602e-05
8.95127e-05
-6.05607e-05
0.000101466
-6.16069e-05
0.000114048
-6.2218e-05
0.000127319
-6.20767e-05
0.000141391
-6.09106e-05
0.000156353
-5.81721e-05
0.000172185
-5.30205e-05
0.000187775
-4.32077e-05
0.000202477
-2.84549e-05
0.000215577
-7.93872e-06
0.000225883
1.89373e-05
0.000233176
5.16288e-05
0.000241761
8.82442e-05
0.000255714
0.000124091
0.000170303
0.000288501
7.88317e-06
-3.30665e-05
1.86305e-05
-7.44746e-05
2.78564e-05
-7.85519e-05
3.63717e-05
-7.22514e-05
4.54396e-05
-6.81107e-05
5.5366e-05
-6.74352e-05
6.59875e-05
-6.86292e-05
7.71499e-05
-7.04227e-05
8.88781e-05
-7.22889e-05
0.00010131
-7.40385e-05
0.000114576
-7.54844e-05
0.000128686
-7.61863e-05
0.000144146
-7.63714e-05
0.000161701
-7.5727e-05
0.000182087
-7.34064e-05
0.000203167
-6.42878e-05
0.00022316
-4.84482e-05
0.000240418
-2.51962e-05
0.000257775
1.58014e-06
0.000269774
3.96297e-05
0.000282636
7.53825e-05
0.000295032
0.000111694
0.00014701
0.000318325
8.84439e-06
-4.19109e-05
1.90539e-05
-8.46841e-05
2.72777e-05
-8.67758e-05
3.52252e-05
-8.01989e-05
4.41328e-05
-7.70183e-05
5.40224e-05
-7.73248e-05
6.45915e-05
-7.91983e-05
7.56847e-05
-8.15159e-05
8.73525e-05
-8.39567e-05
9.96552e-05
-8.63412e-05
0.000112595
-8.84245e-05
0.000126272
-8.98626e-05
0.000142487
-9.25864e-05
0.000162818
-9.60582e-05
0.000188229
-9.88176e-05
0.000214098
-9.01567e-05
0.000241869
-7.62192e-05
0.000269469
-5.27962e-05
0.000283503
-1.24541e-05
0.000293315
2.9818e-05
0.000301619
6.70785e-05
0.000311967
0.000101346
0.000131445
0.000327532
9.65746e-06
-5.15684e-05
1.91279e-05
-9.41546e-05
2.63921e-05
-9.40399e-05
3.38847e-05
-8.76914e-05
4.25907e-05
-8.57244e-05
5.22089e-05
-8.69429e-05
6.23036e-05
-8.92929e-05
7.26987e-05
-9.1911e-05
8.33882e-05
-9.46463e-05
9.43671e-05
-9.73201e-05
0.000105853
-9.99104e-05
0.000119125
-0.000103134
0.000138237
-0.000111699
0.000162971
-0.000120792
0.000193648
-0.000129494
0.000218053
-0.000114562
0.000243764
-0.000101929
0.000268778
-7.7811e-05
0.000276331
-2.00062e-05
0.000289374
1.67742e-05
0.000300778
5.56746e-05
0.000309741
9.23828e-05
0.00012019
0.000320996
1.03367e-05
-6.1905e-05
1.87277e-05
-0.000102546
2.49836e-05
-0.000100296
3.19781e-05
-9.46859e-05
4.01743e-05
-9.39206e-05
4.89546e-05
-9.57232e-05
5.77959e-05
-9.81342e-05
6.66149e-05
-0.00010073
7.5626e-05
-0.000103657
8.55279e-05
-0.000107222
9.80445e-05
-0.000112427
0.000116666
-0.000121756
0.000146492
-0.000141525
0.000178994
-0.000153294
0.000211266
-0.000161767
0.000234733
-0.00013803
0.00027253
-0.000139726
0.00031213
-0.00011741
0.000334769
-4.26449e-05
0.000322859
2.86837e-05
0.0003132
6.53334e-05
0.000310416
9.51669e-05
0.000116525
0.000314081
1.08436e-05
-7.27486e-05
1.7612e-05
-0.000109314
2.26007e-05
-0.000105284
2.88437e-05
-0.000100929
3.60571e-05
-0.000101134
4.35298e-05
-0.000103196
5.10214e-05
-0.000105626
5.91761e-05
-0.000108885
6.96397e-05
-0.000114121
8.47045e-05
-0.000122287
0.000109883
-0.000137606
0.000146293
-0.000158165
0.000194153
-0.000189385
0.00022802
-0.00018716
0.000238715
-0.000172463
0.000264318
-0.000163632
0.000304039
-0.000179447
0.000336281
-0.000149652
0.000357954
-6.43181e-05
0.000359366
2.72717e-05
0.000349578
7.51214e-05
0.000341118
0.000103627
0.000124958
0.000332686
1.15459e-05
-8.42946e-05
1.61671e-05
-0.000113935
1.94644e-05
-0.000108582
2.5111e-05
-0.000106575
3.19857e-05
-0.000108009
3.99095e-05
-0.00011112
4.97077e-05
-0.000115424
6.40558e-05
-0.000123233
8.76769e-05
-0.000137742
0.000122281
-0.000156891
0.000175168
-0.000190493
0.0002246
-0.000207597
0.000257701
-0.000222486
0.00026421
-0.000193669
0.000233114
-0.000141366
0.000237661
-0.00016818
0.000248362
-0.000190147
0.000262834
-0.000164125
0.000280381
-8.18654e-05
0.000283357
2.4296e-05
0.000293935
6.45429e-05
0.000320765
7.67973e-05
0.000101483
0.000344239
1.42657e-05
-9.85602e-05
1.67916e-05
-0.000116461
1.91761e-05
-0.000110966
2.68974e-05
-0.000114297
3.81775e-05
-0.000119289
5.3898e-05
-0.00012684
7.56372e-05
-0.000137163
0.000112782
-0.000160377
0.000161478
-0.000186439
0.000211065
-0.000206478
0.000253345
-0.000232772
0.000285259
-0.000239512
0.000287217
-0.000224444
0.000265304
-0.000171757
0.000230299
-0.000106361
0.00021271
-0.000150591
0.000198997
-0.000176434
0.000189216
-0.000154344
0.000183281
-7.59314e-05
0.000186081
2.14965e-05
0.000210523
4.01008e-05
0.000254278
3.30426e-05
4.92002e-05
0.000306561
1.97531e-05
-0.000118313
2.40986e-05
-0.000120807
3.21373e-05
-0.000119005
4.87847e-05
-0.000130944
7.69552e-05
-0.000147459
0.00010805
-0.000157935
0.000141283
-0.000170396
0.000173449
-0.000192543
0.000206849
-0.000219839
0.000245993
-0.000245622
0.000276203
-0.000262983
0.000295482
-0.000258791
0.000297148
-0.000226111
0.000276479
-0.000151088
0.000237054
-6.69353e-05
0.00019963
-0.000113167
0.000173238
-0.000150042
0.000149845
-0.00013095
0.00012947
-5.55567e-05
0.000137812
1.31543e-05
0.000164573
1.33399e-05
0.000199931
-2.3155e-06
5.63633e-06
0.000243495
1.40078e-05
-0.000132321
3.4477e-05
-0.000141276
5.26025e-05
-0.000137131
7.00614e-05
-0.000148403
8.58061e-05
-0.000163204
0.000105915
-0.000178044
0.000131218
-0.000195699
0.000158485
-0.000219811
0.00018839
-0.000249744
0.000221382
-0.000278614
0.000250452
-0.000292052
0.000266313
-0.000274651
0.000266989
-0.000226787
0.000255622
-0.000139722
0.000224026
-3.53392e-05
0.000184427
-7.35684e-05
0.000153241
-0.000118856
0.00012284
-0.000100549
0.000101286
-3.40027e-05
0.000115528
-1.08761e-06
0.000141951
-1.30831e-05
0.000169987
-3.03512e-05
-2.91365e-05
0.00020476
5.87126e-06
-0.000138192
2.20599e-05
-0.000157465
4.06951e-05
-0.000155766
5.59527e-05
-0.000163661
6.95945e-05
-0.000176846
8.42986e-05
-0.000192748
0.000101755
-0.000213155
0.000123389
-0.000241445
0.00015009
-0.000276445
0.000175084
-0.000303609
0.000192855
-0.000309824
0.000199534
-0.00028133
0.00019517
-0.000222422
0.000184391
-0.000128943
0.000170128
-2.10756e-05
0.00015211
-5.55509e-05
0.000123235
-8.99803e-05
8.77818e-05
-6.50963e-05
7.88049e-05
-2.50255e-05
0.0001017
-2.39823e-05
0.000132721
-4.41044e-05
0.000166116
-6.37467e-05
-6.87717e-05
0.000205752
7.59827e-06
-0.000145791
1.92275e-05
-0.000169094
3.06914e-05
-0.00016723
4.11984e-05
-0.000174168
5.08628e-05
-0.00018651
6.06194e-05
-0.000202505
7.18084e-05
-0.000224344
8.58939e-05
-0.00025553
0.000101129
-0.00029168
0.000108762
-0.000311242
0.000111445
-0.000312506
0.000109246
-0.000279131
0.000101617
-0.000214793
9.1277e-05
-0.000118603
9.9386e-05
-2.91846e-05
0.000100195
-5.63604e-05
7.6339e-05
-6.61238e-05
4.79337e-05
-3.66908e-05
5.82891e-05
-3.53809e-05
8.87762e-05
-5.44693e-05
0.000123983
-7.93104e-05
0.000164912
-0.000104676
-0.000119106
0.000215246
9.09813e-06
-0.000154889
1.4479e-05
-0.000174475
2.09487e-05
-0.0001737
2.74962e-05
-0.000180715
3.30131e-05
-0.000192027
3.73708e-05
-0.000206863
4.10223e-05
-0.000227995
4.37724e-05
-0.00025828
4.24192e-05
-0.000290327
3.56205e-05
-0.000304444
2.53932e-05
-0.000302279
1.86337e-05
-0.000272372
1.2884e-05
-0.000209043
1.43768e-05
-0.000120096
3.85473e-05
-5.33551e-05
3.56588e-05
-5.34719e-05
1.37813e-05
-4.42461e-05
1.21916e-05
-3.51011e-05
3.95017e-05
-6.26912e-05
7.0228e-05
-8.51954e-05
0.000104097
-0.000113179
0.000144942
-0.000145522
-0.000171649
0.000197486
7.4772e-06
-0.000162366
9.12415e-06
-0.000176122
1.25583e-05
-0.000177134
1.56342e-05
-0.000183791
1.69654e-05
-0.000193358
1.59311e-05
-0.000205828
1.18181e-05
-0.000223882
2.97979e-06
-0.000249442
-1.17875e-05
-0.000275559
-2.80373e-05
-0.000288194
-4.42322e-05
-0.000286084
-5.53823e-05
-0.000261221
-5.9064e-05
-0.000205361
-5.07678e-05
-0.000128392
-3.76758e-05
-6.64471e-05
-4.36643e-05
-4.74833e-05
-3.94261e-05
-4.84842e-05
-1.00165e-05
-6.45109e-05
1.75721e-05
-9.02799e-05
4.42036e-05
-0.000111827
7.20669e-05
-0.000141042
0.000102532
-0.000175986
-0.000210999
0.000141882
4.63345e-06
-0.000167
4.47864e-06
-0.000175967
5.594e-06
-0.000178249
5.68969e-06
-0.000183887
3.76976e-06
-0.000191438
-1.04215e-06
-0.000201016
-1.09455e-05
-0.000213978
-2.76168e-05
-0.00023277
-5.02587e-05
-0.000252917
-7.31416e-05
-0.000265311
-9.6178e-05
-0.000263047
-0.000116659
-0.00024074
-0.000127403
-0.000194617
-0.000121437
-0.000134358
-0.000105859
-8.20252e-05
-8.95446e-05
-6.37975e-05
-5.96852e-05
-7.83438e-05
-2.74972e-05
-9.66989e-05
-5.4178e-06
-0.000112359
1.64836e-05
-0.000133728
3.62515e-05
-0.00016081
5.48276e-05
-0.000194562
-0.000233657
7.74857e-05
1.80361e-06
-0.000168803
8.15826e-07
-0.000174979
-5.29145e-08
-0.000177381
-2.11773e-06
-0.000181822
-6.09916e-06
-0.000187457
-1.30875e-05
-0.000194028
-2.49366e-05
-0.000202129
-4.38389e-05
-0.000213868
-6.92506e-05
-0.000227505
-9.81192e-05
-0.000236442
-0.000127489
-0.000233677
-0.000153661
-0.000214568
-0.000168384
-0.000179895
-0.000162332
-0.00014041
-0.00013407
-0.000110287
-9.73335e-05
-0.000100534
-6.71823e-05
-0.000108495
-4.50263e-05
-0.000118855
-2.7042e-05
-0.000130343
-1.08677e-05
-0.000149902
2.47253e-06
-0.000174151
1.33152e-05
-0.000205405
-0.000243712
2.33695e-05
-3.78584e-07
-0.000168425
-2.28533e-06
-0.000173072
-4.45761e-06
-0.000175208
-7.81668e-06
-0.000178463
-1.27767e-05
-0.000182497
-2.00324e-05
-0.000186772
-3.09494e-05
-0.000191212
-4.77002e-05
-0.000197117
-7.07792e-05
-0.000204426
-9.76797e-05
-0.000209542
-0.000123825
-0.000207532
-0.000143266
-0.000195127
-0.000149617
-0.000173544
-0.000140318
-0.000149709
-0.000118324
-0.000132281
-9.28611e-05
-0.000125997
-7.35928e-05
-0.000127764
-5.94416e-05
-0.000133006
-4.61095e-05
-0.000143675
-3.53119e-05
-0.0001607
-2.75724e-05
-0.00018189
-2.32976e-05
-0.00020968
-0.000246333
-2.06767e-05
-1.8236e-06
-0.000166601
-4.48456e-06
-0.000170411
-7.6626e-06
-0.000172031
-1.17643e-05
-0.000174362
-1.7105e-05
-0.000177156
-2.39299e-05
-0.000179947
-3.28458e-05
-0.000182296
-4.53524e-05
-0.00018461
-6.22583e-05
-0.00018752
-8.18453e-05
-0.000189955
-0.000100483
-0.000188894
-0.000113867
-0.000181743
-0.000118317
-0.000169094
-0.000113243
-0.000154783
-0.000101905
-0.000143619
-8.96667e-05
-0.000138236
-7.95837e-05
-0.000137846
-7.0607e-05
-0.000141983
-6.25934e-05
-0.000151689
-5.72474e-05
-0.000166046
-5.48986e-05
-0.000184239
-5.67304e-05
-0.000207848
-0.000240462
-6.2602e-05
-2.80459e-06
-0.000163796
-6.10841e-06
-0.000167107
-9.91582e-06
-0.000168223
-1.44458e-05
-0.000169832
-1.9903e-05
-0.000171699
-2.63281e-05
-0.000173522
-3.37487e-05
-0.000174875
-4.27033e-05
-0.000175656
-5.39384e-05
-0.000176285
-6.71113e-05
-0.000176782
-8.02625e-05
-0.000175743
-9.06581e-05
-0.000171348
-9.62418e-05
-0.00016351
-9.66493e-05
-0.000154375
-9.33662e-05
-0.000146902
-8.87199e-05
-0.000142882
-8.39852e-05
-0.000142581
-7.95469e-05
-0.000146421
-7.66039e-05
-0.000154632
-7.61129e-05
-0.000166537
-7.8623e-05
-0.000181729
-8.55755e-05
-0.000200896
-0.000227572
-9.84653e-05
-3.44621e-06
-0.00016035
-7.24389e-06
-0.00016331
-1.14474e-05
-0.00016402
-1.6211e-05
-0.000165069
-2.16766e-05
-0.000166234
-2.78661e-05
-0.000167333
-3.4637e-05
-0.000168105
-4.19635e-05
-0.000168329
-5.02293e-05
-0.000168019
-5.97264e-05
-0.000167285
-6.97376e-05
-0.000165732
-7.8603e-05
-0.000162482
-8.4861e-05
-0.000157252
-8.80792e-05
-0.000151157
-8.88674e-05
-0.000146114
-8.82943e-05
-0.000143455
-8.72897e-05
-0.000143586
-8.68714e-05
-0.000146839
-8.81475e-05
-0.000153356
-9.17884e-05
-0.000162896
-9.84158e-05
-0.000175101
-0.000109168
-0.000190144
-0.000210893
-0.000125848
-3.85459e-06
-0.000156495
-7.98504e-06
-0.00015918
-1.24242e-05
-0.000159581
-1.72921e-05
-0.000160201
-2.26892e-05
-0.000160837
-2.86604e-05
-0.000161361
-3.51374e-05
-0.000161628
-4.19856e-05
-0.000161481
-4.92119e-05
-0.000160793
-5.69587e-05
-0.000159538
-6.50336e-05
-0.000157657
-7.26456e-05
-0.00015487
-7.88561e-05
-0.000151042
-8.3207e-05
-0.000146806
-8.59774e-05
-0.000143344
-8.7918e-05
-0.000141514
-8.98476e-05
-0.000141656
-9.26633e-05
-0.000144024
-9.72267e-05
-0.000148793
-0.000104233
-0.000155889
-0.000114457
-0.000164877
-0.00012908
-0.000175521
-0.000189645
-0.000150328
-4.09839e-06
-0.000152397
-8.42056e-06
-0.000154857
-1.29753e-05
-0.000155026
-1.7857e-05
-0.000155319
-2.31329e-05
-0.000155561
-2.88417e-05
-0.000155653
-3.49758e-05
-0.000155494
-4.14594e-05
-0.000154997
-4.81803e-05
-0.000154072
-5.50797e-05
-0.000152638
-6.20749e-05
-0.000150662
-6.88263e-05
-0.000148119
-7.47934e-05
-0.000145075
-7.96792e-05
-0.000141921
-8.37179e-05
-0.000139305
-8.7486e-05
-0.000137746
-9.16121e-05
-0.00013753
-9.67898e-05
-0.000138846
-0.000103729
-0.000141854
-0.000113144
-0.000146474
-0.000125879
-0.000152142
-0.000143087
-0.000158312
-0.00016567
-0.000167062
-4.21988e-06
-0.000148177
-8.62612e-06
-0.000150451
-1.32067e-05
-0.000150445
-1.8038e-05
-0.000150487
-2.31658e-05
-0.000150433
-2.86116e-05
-0.000150207
-3.43715e-05
-0.000149734
-4.0418e-05
-0.000148951
-4.66848e-05
-0.000147805
-5.30719e-05
-0.000146251
-5.94585e-05
-0.000144275
-6.56638e-05
-0.000141914
-7.14592e-05
-0.00013928
-7.67519e-05
-0.000136628
-8.17351e-05
-0.000134322
-8.68056e-05
-0.000132676
-9.24444e-05
-0.000131891
-9.9191e-05
-0.000132099
-0.00010766
-0.000133385
-0.000118536
-0.000135598
-0.000132519
-0.000138159
-0.000150567
-0.000140265
-0.000141843
-0.000174394
-4.25166e-06
-0.000143926
-8.65951e-06
-0.000146043
-1.31993e-05
-0.000145905
-1.79328e-05
-0.000145754
-2.28949e-05
-0.000145471
-2.81004e-05
-0.000145001
-3.35424e-05
-0.000144292
-3.91995e-05
-0.000143293
-4.50348e-05
-0.00014197
-5.09849e-05
-0.000140301
-5.69614e-05
-0.000138299
-6.28616e-05
-0.000136013
-6.85986e-05
-0.000133543
-7.41805e-05
-0.000131046
-7.9772e-05
-0.00012873
-8.56622e-05
-0.000126786
-9.2226e-05
-0.000125328
-9.98951e-05
-0.00012443
-0.00010919
-0.000124091
-0.000120689
-0.000124099
-0.000134957
-0.000123891
-0.000152676
-0.000122546
-0.000119499
-0.000175021
-4.21645e-06
-0.000139709
-8.56289e-06
-0.000141697
-1.30112e-05
-0.000141457
-1.76105e-05
-0.000141154
-2.23897e-05
-0.000140692
-2.73624e-05
-0.000140029
-3.25264e-05
-0.000139128
-3.78636e-05
-0.000137956
-4.33445e-05
-0.000136489
-4.89321e-05
-0.000134714
-5.45852e-05
-0.000132646
-6.02635e-05
-0.000130335
-6.59465e-05
-0.00012786
-7.1676e-05
-0.000125317
-7.7589e-05
-0.000122817
-8.3916e-05
-0.000120458
-9.09434e-05
-0.0001183
-9.90265e-05
-0.000116347
-0.000108578
-0.000114539
-0.000120029
-0.000112649
-0.000133791
-0.000110129
-0.000150248
-0.000106089
-9.97351e-05
-0.000170012
-4.1297e-06
-0.00013558
-8.36664e-06
-0.00013746
-1.2684e-05
-0.00013714
-1.71204e-05
-0.000136718
-2.1701e-05
-0.000136111
-2.64376e-05
-0.000135292
-3.13318e-05
-0.000134234
-3.63755e-05
-0.000132913
-4.15521e-05
-0.000131313
-4.68394e-05
-0.000129426
-5.22196e-05
-0.000127265
-5.76893e-05
-0.000124866
-6.32669e-05
-0.000122282
-6.9009e-05
-0.000119575
-7.5029e-05
-0.000116797
-8.15042e-05
-0.000113983
-8.86597e-05
-0.000111145
-9.67648e-05
-0.000108242
-0.000106131
-0.000105173
-0.000117057
-0.000101722
-0.000129811
-9.73746e-05
-0.000144537
-9.13631e-05
-8.2854e-05
-0.000161418
-4.00121e-06
-0.000131578
-8.0916e-06
-0.000133369
-1.22464e-05
-0.000132985
-1.64969e-05
-0.000132467
-2.08652e-05
-0.000131743
-2.53627e-05
-0.000130795
-2.99938e-05
-0.000129602
-3.47573e-05
-0.000128149
-3.96477e-05
-0.000126422
-4.46573e-05
-0.000124417
-4.97827e-05
-0.00012214
-5.50344e-05
-0.000119614
-6.04462e-05
-0.00011687
-6.60811e-05
-0.00011394
-7.20351e-05
-0.000110843
-7.84417e-05
-0.000107577
-8.54682e-05
-0.000104118
-9.33182e-05
-0.000100392
-0.000102192
-9.62988e-05
-0.000112317
-9.15969e-05
-0.000123782
-8.59105e-05
-0.000136619
-7.8526e-05
-6.87595e-05
-0.000150713
-3.83744e-06
-0.000127741
-7.75175e-06
-0.000129455
-1.17181e-05
-0.000129018
-1.57633e-05
-0.000128422
-1.99063e-05
-0.0001276
-2.41588e-05
-0.000126542
-2.85282e-05
-0.000125233
-3.30174e-05
-0.00012366
-3.76271e-05
-0.000121813
-4.23587e-05
-0.000119685
-4.72199e-05
-0.000117279
-5.22298e-05
-0.000114604
-5.74241e-05
-0.000111676
-6.28599e-05
-0.000108504
-6.86155e-05
-0.000105087
-7.47912e-05
-0.000101401
-8.1512e-05
-9.73973e-05
-8.89051e-05
-9.29989e-05
-9.71186e-05
-8.80852e-05
-0.000106255
-8.24604e-05
-0.000116366
-7.58e-05
-0.000127324
-6.75676e-05
-5.71782e-05
-0.000138905
-3.64377e-06
-0.000124097
-7.35744e-06
-0.000125741
-1.11134e-05
-0.000125262
-1.4936e-05
-0.000124599
-1.88407e-05
-0.000123695
-2.28396e-05
-0.000122543
-2.69415e-05
-0.000121131
-3.11528e-05
-0.000119449
-3.54792e-05
-0.000117486
-3.99277e-05
-0.000115237
-4.45099e-05
-0.000112697
-4.92468e-05
-0.000109867
-5.41722e-05
-0.00010675
-5.93341e-05
-0.000103342
-6.47937e-05
-9.96272e-05
-7.06248e-05
-9.55699e-05
-7.69113e-05
-9.11109e-05
-8.37372e-05
-8.6173e-05
-9.11824e-05
-8.06401e-05
-9.92911e-05
-7.43517e-05
-0.000108046
-6.70449e-05
-0.000117282
-5.83322e-05
-4.77596e-05
-0.000126701
-3.42559e-06
-0.000120671
-6.91731e-06
-0.000122249
-1.04438e-05
-0.000121736
-1.40278e-05
-0.000121015
-1.76815e-05
-0.000120041
-2.1417e-05
-0.000118808
-2.52438e-05
-0.000117305
-2.91701e-05
-0.000115523
-3.32042e-05
-0.000113452
-3.73557e-05
-0.000111085
-4.16385e-05
-0.000108414
-4.60728e-05
-0.000105433
-5.06873e-05
-0.000102136
-5.552e-05
-9.85092e-05
-6.06164e-05
-9.45309e-05
-6.60269e-05
-9.01595e-05
-7.18041e-05
-8.53336e-05
-7.79969e-05
-7.998e-05
-8.46416e-05
-7.39954e-05
-9.17343e-05
-6.72592e-05
-9.92262e-05
-5.9553e-05
-0.000106937
-5.06214e-05
-4.01253e-05
-0.000114571
-3.18827e-06
-0.000117483
-6.43943e-06
-0.000118998
-9.71963e-06
-0.000118455
-1.30497e-05
-0.000117685
-1.64394e-05
-0.000116651
-1.99004e-05
-0.000115347
-2.34419e-05
-0.000113763
-2.70733e-05
-0.000111891
-3.0804e-05
-0.000109722
-3.46445e-05
-0.000107245
-3.86085e-05
-0.00010445
-4.27139e-05
-0.000101328
-4.6984e-05
-9.78656e-05
-5.14468e-05
-9.40464e-05
-5.61339e-05
-8.98439e-05
-6.10769e-05
-8.52164e-05
-6.6305e-05
-8.01055e-05
-7.18439e-05
-7.44411e-05
-7.76937e-05
-6.81455e-05
-8.38352e-05
-6.11176e-05
-9.01812e-05
-5.32069e-05
-9.65773e-05
-4.42253e-05
-3.39363e-05
-0.000102766
-2.93627e-06
-0.000114547
-5.93083e-06
-0.000116003
-8.94955e-06
-0.000115437
-1.20116e-05
-0.000114623
-1.51246e-05
-0.000113538
-1.82994e-05
-0.000112172
-2.15448e-05
-0.000110518
-2.48702e-05
-0.000108566
-2.82851e-05
-0.000106307
-3.18001e-05
-0.000103729
-3.54275e-05
-0.000100823
-3.9182e-05
-9.75732e-05
-4.30818e-05
-9.39657e-05
-4.71472e-05
-8.99809e-05
-5.13986e-05
-8.55925e-05
-5.58527e-05
-8.07622e-05
-6.05212e-05
-7.54368e-05
-6.54093e-05
-6.95528e-05
-7.05045e-05
-6.30504e-05
-7.57674e-05
-5.58547e-05
-8.11066e-05
-4.78676e-05
-8.63834e-05
-3.89484e-05
-2.89397e-05
-9.13801e-05
-2.67177e-06
-0.000111875
-5.39581e-06
-0.000113279
-8.13981e-06
-0.000112693
-1.0921e-05
-0.000111842
-1.37458e-05
-0.000110714
-1.66232e-05
-0.000109295
-1.95617e-05
-0.000107579
-2.25701e-05
-0.000105558
-2.56575e-05
-0.000103219
-2.88338e-05
-0.000100553
-3.21094e-05
-9.75469e-05
-3.54961e-05
-9.41862e-05
-3.90073e-05
-9.04544e-05
-4.26567e-05
-8.63314e-05
-4.64568e-05
-8.17923e-05
-5.04143e-05
-7.68045e-05
-5.45282e-05
-7.13228e-05
-5.87894e-05
-6.52916e-05
-6.31788e-05
-5.86609e-05
-6.76494e-05
-5.13841e-05
-7.2116e-05
-4.3401e-05
-7.64515e-05
-3.46129e-05
-2.4912e-05
-8.04792e-05
-2.39285e-06
-0.000109482
-4.83466e-06
-0.000110838
-7.29292e-06
-0.000110234
-9.78263e-06
-0.000109352
-1.23091e-05
-0.000108187
-1.48795e-05
-0.000106724
-1.75015e-05
-0.000104957
-2.01831e-05
-0.000102876
-2.29326e-05
-0.00010047
-2.57588e-05
-9.77268e-05
-2.86706e-05
-9.4635e-05
-3.16771e-05
-9.11796e-05
-3.47875e-05
-8.73439e-05
-3.80106e-05
-8.31082e-05
-4.13528e-05
-7.845e-05
-4.48151e-05
-7.3342e-05
-4.83892e-05
-6.77486e-05
-5.20568e-05
-6.16239e-05
-5.57946e-05
-5.4923e-05
-5.9557e-05
-4.76217e-05
-6.32663e-05
-3.96917e-05
-6.68128e-05
-3.10665e-05
-2.16723e-05
-7.00525e-05
-2.09289e-06
-0.000107389
-4.24297e-06
-0.000108687
-6.4069e-06
-0.000108071
-8.59637e-06
-0.000107163
-1.08165e-05
-0.000105967
-1.30724e-05
-0.000104468
-1.53708e-05
-0.000102659
-1.77182e-05
-0.000100528
-2.0122e-05
-9.80657e-05
-2.25897e-05
-9.52592e-05
-2.51286e-05
-9.2096e-05
-2.77459e-05
-8.85621e-05
-3.04481e-05
-8.46416e-05
-3.32401e-05
-8.03161e-05
-3.61243e-05
-7.55656e-05
-3.90987e-05
-7.03675e-05
-4.21519e-05
-6.46953e-05
-4.52619e-05
-5.85139e-05
-4.84003e-05
-5.17847e-05
-5.15311e-05
-4.44909e-05
-5.45908e-05
-3.6632e-05
-5.74764e-05
-2.81808e-05
-1.90686e-05
-6.00801e-05
-1.76241e-06
-0.000105627
-3.61259e-06
-0.000106837
-5.47437e-06
-0.000106209
-7.3552e-06