/*--------------------------------*- C++ -*----------------------------------*\
| =========                 |                                                 |
| \\      /  F ield         | OpenFOAM: The Open Source CFD Toolbox           |
|  \\    /   O peration     | Version:  2206                                  |
|   \\  /    A nd           | Website:  www.openfoam.com                      |
|    \\/     M anipulation  |                                                 |
\*---------------------------------------------------------------------------*/
FoamFile
{
    version     2.0;
    format      ascii;
    arch        "LSB;label=32;scalar=64";
    class       surfaceScalarField;
    location    "0.925";
    object      alphaPhi0.water;
}
// * * * * * * * * * * * * * * * * * * * * * * * * * * * * * * * * * * * * * //

dimensions      [0 3 -1 0 0 0 0];

oriented        oriented;

internalField   nonuniform List<scalar> 
4432
(
8.09265e-07
-8.09266e-07
-1.92238e-06
2.73164e-06
-7.4856e-06
5.56322e-06
-1.23589e-05
4.8733e-06
-1.39152e-05
1.55631e-06
-1.37365e-05
-1.78731e-07
-1.41939e-05
4.57385e-07
-1.55779e-05
1.38404e-06
-1.73636e-05
1.78565e-06
-1.89832e-05
1.61969e-06
-1.94678e-05
4.84551e-07
-1.80534e-05
-1.39181e-06
-1.58476e-05
-1.91223e-06
-1.64813e-05
7.35339e-07
-2.14143e-05
4.57036e-06
-2.62545e-05
4.85178e-06
-2.50799e-05
-1.16219e-06
-1.87318e-05
-6.19459e-06
-1.17515e-05
-6.5351e-06
-6.19647e-06
-5.6154e-06
-1.38234e-06
-4.88098e-06
8.00247e-07
-2.18584e-06
8.00166e-07
-5.01389e-06
4.20462e-06
-1.09014e-05
8.61915e-06
-1.54895e-05
1.01513e-05
-1.66337e-05
6.01748e-06
-1.54277e-05
3.50315e-07
-1.43909e-05
-1.21554e-06
-1.49379e-05
1.00435e-06
-1.68147e-05
3.2609e-06
-1.90985e-05
4.06942e-06
-2.10448e-05
3.56605e-06
-2.25454e-05
1.98546e-06
-2.37294e-05
1.43585e-07
-2.47189e-05
-3.65874e-09
-2.64403e-05
2.41908e-06
-2.60615e-05
4.1494e-06
-2.16292e-05
2.21398e-07
-1.48612e-05
-7.57555e-06
-9.44116e-06
-1.19373e-05
-4.9618e-06
-1.16643e-05
-6.22674e-07
-1.03081e-05
3.21967e-06
-8.80897e-06
3.55335e-06
-2.51101e-06
4.35326e-06
-7.52412e-06
1.17287e-05
-1.37067e-05
1.48018e-05
-1.7036e-05
1.34806e-05
-1.76007e-05
6.58215e-06
-1.63992e-05
-8.51226e-07
-1.51629e-05
-2.45178e-06
-1.5187e-05
1.02847e-06
-1.6462e-05
4.53583e-06
-1.80627e-05
5.67015e-06
-1.93771e-05
4.88043e-06
-2.03286e-05
2.93705e-06
-2.11276e-05
9.69025e-07
-2.08746e-05
4.80175e-07
-1.95226e-05
1.42183e-06
-1.57554e-05
3.32391e-07
-1.04877e-05
-5.13302e-06
-6.9661e-06
-1.20143e-05
-4.75646e-06
-1.458e-05
-2.31816e-06
-1.41026e-05
1.31782e-06
-1.39441e-05
5.22946e-06
-1.27206e-05
5.48842e-06
-2.77e-06
9.84153e-06
-7.48457e-06
1.92133e-05
-1.32152e-05
2.05324e-05
-1.65286e-05
1.67941e-05
-1.76102e-05
7.66375e-06
-1.67485e-05
-1.71296e-06
-1.56715e-05
-3.52879e-06
-1.59003e-05
1.25734e-06
-1.72027e-05
5.83816e-06
-1.87218e-05
7.18934e-06
-1.97178e-05
5.87635e-06
-1.96938e-05
2.91303e-06
-1.83846e-05
-3.39278e-07
-1.56326e-05
-2.22672e-06
-1.15181e-05
-2.59825e-06
-7.27402e-06
-3.96113e-06
-4.63421e-06
-7.98662e-06
-4.14347e-06
-1.25051e-05
-4.11048e-06
-1.4613e-05
-2.79697e-06
-1.54161e-05
9.35891e-08
-1.68346e-05
3.56174e-06
-1.61888e-05
4.95035e-06
-4.15862e-06
1.47921e-05
-6.28883e-06
2.55021e-05
-1.13723e-05
2.56159e-05
-1.46633e-05
2.00851e-05
-1.59653e-05
8.96571e-06
-1.55682e-05
-2.11008e-06
-1.53667e-05
-3.73021e-06
-1.64416e-05
2.33216e-06
-1.82827e-05
7.67929e-06
-2.0178e-05
9.08466e-06
-2.13996e-05
7.09795e-06
-2.11345e-05
2.64796e-06
-1.88075e-05
-2.66632e-06
-1.45496e-05
-6.48462e-06
-9.5542e-06
-7.59368e-06
-5.77512e-06
-7.7402e-06
-4.47851e-06
-9.28323e-06
-4.81671e-06
-1.21669e-05
-4.68846e-06
-1.47412e-05
-3.28341e-06
-1.68212e-05
-1.44814e-06
-1.86699e-05
1.36424e-07
-1.77733e-05
2.92942e-06
-6.95164e-06
1.77217e-05
-4.54377e-06
3.00459e-05
-8.65333e-06
2.97254e-05
-1.14202e-05
2.2852e-05
-1.26764e-05
1.02219e-05
-1.29524e-05
-1.83415e-06
-1.41713e-05
-2.51126e-06
-1.66553e-05
4.81613e-06
-1.9327e-05
1.0351e-05
-2.17333e-05
1.1491e-05
-2.33182e-05
8.68289e-06
-2.31525e-05
2.4822e-06
-2.04614e-05
-5.35737e-06
-1.55194e-05
-1.14266e-05
-1.01513e-05
-1.29618e-05
-6.50853e-06
-1.1383e-05
-5.21136e-06
-1.05804e-05
-4.95662e-06
-1.24216e-05
-4.07087e-06
-1.5627e-05
-2.5552e-06
-1.83368e-05
-1.701e-06
-1.95241e-05
-1.52331e-06
-1.7951e-05
1.33786e-06
-9.81294e-06
1.90594e-05
-2.44317e-06
3.24891e-05
-5.40296e-06
3.26852e-05
-7.42798e-06
2.4877e-05
-8.07954e-06
1.08736e-05
-8.64556e-06
-1.26685e-06
-1.21472e-05
9.89469e-07
-1.66217e-05
9.28872e-06
-2.03196e-05
1.40489e-05
-2.33508e-05
1.45221e-05
-2.53174e-05
1.06495e-05
-2.50945e-05
2.25921e-06
-2.13372e-05
-9.11465e-06
-1.45996e-05
-1.8164e-05
-8.03986e-06
-1.95215e-05
-4.29561e-06
-1.51273e-05
-3.30664e-06
-1.15694e-05
-3.22461e-06
-1.25036e-05
-2.43402e-06
-1.64176e-05
-9.37965e-07
-1.98328e-05
2.8069e-07
-2.07428e-05
3.11743e-07
-1.7982e-05
6.97618e-07
-1.01988e-05
1.97568e-05
-4.29545e-07
3.29186e-05
-1.9612e-06
3.42169e-05
-2.25465e-06
2.51704e-05
-4.27703e-07
9.04669e-06
-2.47067e-06
7.77194e-07
-9.49986e-06
8.016e-06
-1.60814e-05
1.58643e-05
-2.07165e-05
1.86841e-05
-2.43502e-05
1.81558e-05
-2.66798e-05
1.29792e-05
-2.5985e-05
1.56445e-06
-2.05197e-05
-1.45794e-05
-1.20084e-05
-2.66709e-05
-4.72022e-06
-2.68063e-05
-1.26126e-06
-1.85862e-05
-8.80532e-07
-1.19503e-05
-1.48184e-06
-1.19022e-05
-1.23595e-06
-1.66628e-05
6.66737e-07
-2.17341e-05
3.80589e-06
-2.37901e-05
5.91783e-06
-1.99056e-05
2.43706e-06
-6.68e-06
2.21936e-05
9.32684e-06
-9.33046e-06
1.73143e-05
-7.9911e-06
2.29339e-05
-5.13411e-06
2.41795e-05
-1.17082e-06
2.21044e-05
2.16791e-06
1.37679e-05
3.619e-06
7.91613e-06
5.16896e-06
4.34511e-06
6.30125e-06
-7.31229e-06
6.97695e-06
-1.48497e-05
7.53744e-06
-8.86322e-06
-5.98639e-06
5.00274e-06
-1.38659e-05
-5.95223e-07
5.59882e-06
-3.55709e-05
3.49774e-05
-6.29227e-05
2.50414e-05
-6.50228e-05
3.21698e-07
-4.61153e-05
-1.9161e-05
-1.84894e-05
-2.76268e-05
-1.84883e-05
2.91703e-06
-1.22511e-05
1.28186e-05
-1.76965e-05
2.44758e-05
-1.67544e-05
3.39857e-05
-1.06602e-05
3.35567e-05
-1.44148e-06
2.49297e-05
4.46779e-06
1.96686e-05
9.93415e-06
1.63452e-05
8.96359e-06
1.16073e-05
1.44042e-05
-2.6313e-06
1.9493e-05
-1.2235e-05
3.6174e-06
-1.36705e-05
-1.24307e-05
-3.17294e-05
2.36594e-05
-4.09869e-05
4.19036e-05
-3.44673e-05
1.76291e-05
-2.81861e-05
-4.79922e-06
-2.58377e-05
-2.03696e-05
-1.11654e-05
-4.39734e-05
-2.96529e-05
1.33706e-06
-1.40763e-05
1.81669e-05
-3.44001e-05
3.36064e-05
-3.21125e-05
4.36436e-05
-2.06691e-05
3.53293e-05
-7.04888e-06
4.07488e-05
3.03475e-06
3.81047e-05
2.03797e-05
2.95409e-05
2.37463e-05
2.22103e-05
2.46054e-05
1.27338e-05
2.72991e-05
-4.34259e-06
2.02244e-05
-2.16917e-05
4.91024e-06
-3.03036e-05
2.80688e-05
-2.0161e-05
2.73512e-05
-1.56084e-05
1.30237e-05
-1.08526e-05
-9.61139e-06
-7.39579e-06
-2.39331e-05
1.88351e-06
-5.63183e-05
-2.77453e-05
4.69039e-06
-1.86978e-05
1.92321e-05
-4.88212e-05
2.92111e-05
-4.19141e-05
3.47226e-05
-2.60581e-05
3.06764e-05
-6.79534e-06
3.47823e-05
3.87816e-06
4.75828e-05
1.90185e-05
3.95583e-05
3.31171e-05
2.75664e-05
3.77039e-05
1.70501e-05
3.6314e-05
4.62763e-06
3.14121e-05
-8.74866e-06
1.69809e-05
-9.60421e-06
2.07113e-05
-8.21472e-06
2.59089e-05
-3.67031e-06
8.40567e-06
1.06335e-06
-1.43979e-05
8.04664e-06
-4.01632e-05
1.05125e-05
-6.00215e-05
-1.72001e-05
6.92154e-06
-2.55815e-05
1.29686e-05
-5.4844e-05
1.11335e-05
-1.75657e-05
6.55781e-06
-2.62444e-06
8.06211e-06
-6.60285e-07
1.8269e-05
9.32769e-07
3.17852e-05
1.46358e-05
3.41689e-05
3.19722e-05
3.14461e-05
4.07111e-05
1.88866e-05
4.77045e-05
1.2935e-05
5.55308e-05
2.83564e-06
3.53132e-05
-9.88744e-08
2.35291e-05
1.68371e-06
2.40527e-05
5.76957e-06
4.24621e-06
9.65029e-06
-1.83522e-05
2.24568e-05
-5.81665e-05
1.3953e-05
-5.14851e-05
-3.20952e-06
8.81571e-06
-3.43482e-05
6.3791e-06
-2.49837e-05
2.20839e-06
-4.13541e-06
9.94444e-07
-1.47827e-06
5.1498e-07
-2.25757e-07
6.54823e-07
1.16209e-06
8.23063e-06
1.38955e-05
1.88456e-05
2.37282e-05
2.41453e-05
3.54568e-05
2.74538e-05
5.29294e-05
2.42502e-05
5.90395e-05
1.1829e-05
5.06278e-05
6.70013e-06
3.59462e-05
1.02301e-05
2.04549e-05
1.26057e-05
1.79707e-06
2.28094e-05
-2.76277e-05
2.28312e-05
-5.78204e-05
1.10717e-05
-3.96894e-05
7.89459e-06
9.79599e-06
-3.80425e-05
2.11306e-06
-8.92235e-06
1.03991e-06
-3.13e-06
3.30089e-07
-8.4892e-07
-5.61693e-07
5.983e-07
-1.65862e-06
2.18467e-06
4.49528e-07
1.13842e-05
7.82725e-06
1.63959e-05
1.44088e-05
2.89192e-05
2.3323e-05
4.40606e-05
2.65635e-05
5.59e-05
2.0386e-05
5.69884e-05
1.51467e-05
5.45195e-05
1.16649e-05
2.39792e-05
1.47633e-05
7.03057e-07
2.77384e-05
-3.44512e-05
1.55993e-05
-4.58853e-05
5.15455e-06
-2.93856e-05
1.23903e-05
4.23126e-06
-1.96752e-05
8.00712e-07
-4.10836e-06
1.63333e-07
-2.5731e-06
-6.59378e-07
-1.06684e-07
-1.15281e-06
1.01123e-06
-3.02814e-06
2.79136e-06
-7.47801e-06
4.98198e-06
-6.66406e-06
1.02611e-05
1.05445e-06
2.1246e-05
1.15622e-05
3.3596e-05
2.08642e-05
4.67214e-05
2.23551e-05
5.56593e-05
2.11646e-05
5.58931e-05
2.11252e-05
4.10319e-05
2.73917e-05
1.47603e-06
1.6711e-05
-2.35485e-05
2.67047e-06
-3.1798e-05
5.69581e-07
-2.74941e-05
9.66823e-06
9.36931e-06
2.35493e-05
1.01142e-05
3.3472e-05
1.05407e-05
2.4744e-05
6.32397e-06
1.32634e-05
-6.47839e-06
1.35798e-05
-2.03546e-05
2.1896e-05
-3.13249e-05
2.68378e-05
-4.15774e-05
2.89365e-05
-5.14634e-05
2.80418e-05
-5.97287e-05
2.12445e-05
-6.30992e-05
4.93636e-06
-5.72327e-05
-2.02472e-05
-4.06652e-05
-3.64653e-05
-2.53732e-05
-3.54881e-05
-1.70762e-05
-1.99811e-05
-1.46855e-05
-1.1227e-05
-1.33475e-05
-1.16655e-05
-9.52556e-06
-1.76941e-05
-3.55951e-07
-2.77035e-05
1.31693e-05
-3.61988e-05
2.55286e-05
-3.19263e-05
3.28028e-05
-1.39547e-05
9.64307e-06
4.53535e-05
2.46021e-05
-1.04168e-06
2.81819e-05
2.98921e-05
2.08338e-05
3.20921e-05
5.30852e-06
2.87887e-05
-8.55292e-06
2.74413e-05
-1.73513e-05
3.06943e-05
-3.21682e-05
4.16547e-05
-5.05429e-05
4.73113e-05
-7.16848e-05
4.91837e-05
-9.96687e-05
4.923e-05
-0.000120775
2.60687e-05
-0.000120104
-1.54804e-05
-8.89625e-05
-4.92373e-05
-5.57532e-05
-3.59641e-05
-4.04218e-05
-2.02301e-05
-3.6358e-05
-1.24419e-05
-3.27403e-05
-1.54437e-05
-2.70976e-05
-2.63964e-05
-2.22768e-05
-4.5894e-05
-1.39879e-05
-5.05736e-05
-3.69429e-06
-4.36468e-05
8.40117e-06
-2.62418e-05
-3.80415e-06
2.18486e-05
3.06777e-05
-3.201e-05
3.73526e-05
2.33963e-05
1.99813e-05
4.94634e-05
-1.68069e-05
6.55768e-05
-4.83755e-05
5.901e-05
-5.72268e-05
3.56209e-05
-8.06406e-05
2.08274e-05
-0.000134274
2.95091e-05
-0.000181722
4.82906e-05
-0.000175879
3.56635e-05
-0.000165674
9.49922e-06
-0.000177588
-4.31067e-05
-0.000129266
-7.67633e-05
-9.13491e-05
-5.37243e-05
-8.37952e-05
-3.75848e-05
-8.0619e-05
-2.54188e-05
-7.54853e-05
-2.96374e-05
-0.000115865
-4.17191e-05
-0.000118059
-3.67689e-05
-0.000119305
-4.21785e-05
-0.000114938
-4.25971e-05
-0.000106024
-3.42447e-05
-4.36959e-06
-0.000105487
-2.25092e-05
-9.50184e-06
-4.91825e-05
4.99478e-05
-6.8175e-05
6.84599e-05
-7.76627e-05
5.44172e-05
-5.2225e-05
1.07024e-05
-2.97308e-05
-2.09177e-06
-3.00317e-05
5.95122e-06
-5.54085e-05
6.55711e-06
-6.58712e-05
1.53341e-06
-8.05111e-05
1.17716e-06
-0.000160031
3.79276e-06
-0.000194796
-3.88856e-05
-0.000185254
-7.56925e-05
-0.000169427
-7.08833e-05
-0.000149113
-4.39309e-05
-0.000167596
-3.57679e-05
-0.000165758
-1.2962e-05
-0.000178717
-7.67578e-06
-0.000135661
-1.78299e-06
-0.000110273
-3.79455e-06
-0.00010591
-5.87494e-06
-0.000126042
-6.63858e-06
-4.45902e-06
-0.000126538
-7.34195e-05
6.39494e-05
-8.75544e-05
6.04804e-05
-6.30868e-05
1.22089e-05
-3.69778e-05
2.80021e-06
-2.32513e-05
-2.72125e-06
-1.39018e-05
-1.29728e-07
-1.11814e-05
3.90915e-07
-6.54792e-06
3.47547e-07
-7.61505e-06
2.75821e-06
-6.86543e-06
3.56488e-07
-7.00678e-06
-6.41609e-08
-9.94959e-05
-8.67226e-06
-0.000179782
-5.52513e-05
-0.000181862
-7.1379e-05
-0.000177255
-4.43844e-05
-0.000180223
-9.6089e-06
-4.82823e-05
-2.10173e-06
-1.49245e-05
-1.32873e-06
-1.57496e-05
-1.13891e-06
-1.61705e-05
-3.54058e-06
-1.60633e-05
-6.1975e-06
-1.54957e-05
-6.5096e-06
-4.15177e-06
-1.40072e-05
-5.73933e-05
0.000121912
-1.7235e-05
1.62091e-05
-7.25018e-06
1.92297e-06
-5.29757e-06
5.36766e-07
-1.06074e-05
-2.06328e-07
-1.24339e-05
1.37816e-06
-1.44216e-05
2.23158e-06
-3.42213e-06
2.31297e-06
-1.23984e-06
5.04726e-07
-8.91211e-07
1.92671e-07
-9.23566e-07
1.33214e-08
-8.97587e-06
-6.29232e-07
-0.000108574
-4.9628e-06
-0.000149569
-2.26177e-05
-7.25857e-05
-3.14161e-05
-2.00318e-05
-7.55584e-06
-1.80026e-05
-5.14928e-07
-1.51944e-05
-1.02948e-08
-1.41881e-05
-2.08445e-06
-1.41031e-05
-3.84102e-06
-1.28095e-05
-6.79455e-06
-9.76556e-06
-7.95332e-06
-4.96587e-06
-7.37287e-06
-1.09582e-05
0.000129692
-2.27991e-06
7.22816e-06
-1.05089e-06
6.08124e-07
-6.95011e-07
1.16456e-07
-1.01667e-06
9.84702e-09
-6.50085e-06
-1.15621e-07
-1.09086e-05
6.72509e-07
-4.40203e-06
1.46045e-06
-3.62165e-07
3.31793e-07
-1.06308e-07
8.57397e-08
-1.15086e-07
1.00533e-08
-6.76709e-07
-6.66279e-08
-4.87804e-06
-7.72234e-07
-2.43505e-05
-3.09892e-06
-3.78649e-05
-1.84035e-05
-2.55099e-05
-1.35444e-05
-1.63819e-05
-6.52652e-06
-1.008e-05
-2.82487e-06
-8.19966e-06
-1.48358e-06
-1.7413e-05
-2.20709e-05
-2.35736e-05
-2.41001e-05
-2.34388e-05
-2.56123e-05
-1.8819e-05
-6.37862e-06
-5.12237e-06
0.000114789
-5.79841e-07
2.60199e-06
-1.64756e-07
1.67069e-07
-8.62476e-08
2.36223e-08
-9.41548e-08
2.36059e-09
-3.39812e-07
-1.0252e-08
-1.08474e-06
-5.45988e-08
-1.22127e-06
-1.71556e-08
-3.41055e-07
2.46731e-07
-5.82029e-08
2.16536e-08
-5.41969e-08
3.68692e-09
-1.17767e-07
-7.83438e-09
-8.2216e-07
-1.66397e-07
-3.49345e-06
-9.04179e-07
-5.75981e-05
-6.25568e-06
-4.94209e-05
-1.41116e-05
-3.01786e-05
-1.5922e-05
-2.17101e-05
-1.50564e-05
-2.80363e-05
-1.72637e-05
-2.27397e-05
-2.29507e-05
-1.98541e-05
-2.3271e-05
-1.49592e-05
-2.27089e-05
-1.01211e-05
-3.95511e-06
-1.924e-06
0.000128426
-1.31605e-07
7.82288e-07
-2.44961e-08
5.07546e-08
-8.60663e-09
5.12142e-09
-9.42875e-09
6.08412e-10
-2.31218e-08
-4.66696e-10
-8.39869e-08
-2.40388e-09
-1.1296e-07
5.68357e-10
-5.91964e-08
4.2868e-09
-1.55989e-08
6.30072e-09
-1.22396e-08
2.07247e-10
-1.9246e-08
-1.9261e-11
-1.73704e-07
-1.36165e-08
-9.84177e-07
-1.00896e-07
-1.33199e-05
-4.4513e-07
-4.60542e-05
-4.07394e-06
-4.31083e-05
-6.51089e-06
-3.48649e-05
-9.81514e-06
-2.82075e-05
-1.56642e-05
-2.43802e-05
-1.95808e-05
-7.8179e-06
-1.37239e-06
-1.1711e-06
-1.22563e-06
-2.48941e-06
-2.11229e-06
-5.79816e-07
0.000159793
-3.30993e-08
2.2622e-07
-4.14006e-09
1.88735e-08
-1.11163e-09
1.44507e-09
-1.10858e-09
1.90292e-10
-2.45379e-09
3.12266e-11
-6.15995e-09
-7.5642e-11
-7.44301e-09
2.27332e-10
-4.9329e-09
6.56968e-10
-7.1781e-10
2.6947e-10
-6.52185e-10
3.65859e-11
-9.73354e-10
1.29717e-12
-1.44643e-08
-9.4717e-11
-1.14317e-07
-1.05682e-09
-5.49171e-07
-5.94368e-09
-4.5791e-06
-4.47016e-08
-1.56907e-05
-2.27153e-07
-2.16462e-05
-1.0374e-06
-8.56336e-06
-4.1602e-06
-1.70089e-07
-3.62992e-06
-9.2755e-08
-8.98332e-07
-4.43753e-07
-4.51959e-07
-1.17105e-06
-8.99605e-07
-1.287e-07
0.000176034
-1.25475e-08
1.2025e-07
-1.18174e-09
6.8338e-09
-2.24071e-10
3.37175e-10
-1.90306e-10
6.13236e-11
-3.29122e-10
3.11304e-11
-6.5962e-10
3.09628e-11
-7.3739e-10
6.36913e-11
-3.23801e-10
9.18106e-11
-6.13759e-11
2.64526e-11
-2.6036e-11
2.62597e-12
-2.35065e-11
2.52873e-13
-1.17376e-10
-1.57026e-13
-1.12007e-09
-1.7276e-11
-6.67648e-09
-3.98605e-10
-4.54835e-08
-6.22873e-09
-2.02392e-07
-7.11174e-08
-5.93475e-07
-6.53142e-07
-6.78647e-07
-4.11518e-06
-3.83091e-07
-4.75488e-06
-1.06658e-07
-8.17905e-07
-1.59217e-07
-3.52921e-08
-2.40141e-09
-2.7495e-08
-3.92215e-07
0.000149362
-6.09369e-09
1.26001e-07
-2.75522e-10
8.74589e-10
-5.54218e-11
7.82147e-11
-4.47445e-11
2.66822e-11
-6.55806e-11
2.02729e-11
-9.44409e-11
2.14501e-11
-8.66992e-11
2.04838e-11
-2.86793e-11
1.56653e-11
-4.68063e-12
3.54664e-12
-1.11606e-12
1.70308e-13
-6.5728e-13
4.992e-14
-7.04694e-13
3.51764e-14
-1.70096e-11
-9.15953e-14
-3.97738e-10
-2.76666e-11
-5.37365e-09
-1.33421e-09
-4.16005e-08
-3.67516e-08
-4.17842e-07
-6.26471e-07
-1.23363e-06
-3.84069e-06
-2.56845e-06
-4.90307e-06
-2.6419e-07
-3.38333e-06
-5.05707e-10
-2.99188e-07
-2.66769e-09
-4.50315e-10
3.50667e-07
6.48728e-06
-6.58458e-10
1.87314e-07
-4.55895e-11
2.23076e-10
-1.60939e-11
4.02996e-11
-1.50445e-11
1.82307e-11
-2.00056e-11
1.67483e-11
-2.02607e-11
1.39039e-11
-1.44161e-11
8.64492e-12
-3.69192e-12
3.33657e-12
-7.49452e-13
9.48456e-13
-1.76317e-13
2.48768e-13
-4.43576e-14
1.18485e-13
-1.29035e-14
3.21775e-14
-5.00386e-14
-1.86128e-16
-2.72307e-11
-4.26657e-14
-1.34701e-09
-2.06385e-11
-3.51105e-08
-3.71358e-09
-1.12744e-06
-1.05248e-07
-2.17873e-06
-2.51104e-06
-2.12289e-06
-4.68056e-06
-9.469e-07
-4.28097e-06
-3.4e-09
-1.01965e-06
-2.76339e-09
-3.51518e-09
-8.51539e-08
8.93044e-08
-3.04502e-11
4.58179e-08
-1.28962e-11
1.91748e-10
-7.63801e-12
3.1094e-11
-7.91619e-12
1.49345e-11
-8.41004e-12
1.41993e-11
-6.34097e-12
8.9185e-12
-3.08771e-12
3.83035e-12
-1.04237e-12
1.50826e-12
-4.82212e-13
5.71933e-13
-2.37006e-13
1.62754e-13
-3.03022e-14
6.06683e-14
1.37046e-14
4.44229e-15
3.14328e-14
-1.26951e-14
2.52918e-14
-3.30046e-14
-2.0319e-11
-6.3872e-14
-3.43709e-09
-2.99179e-10
-8.6044e-08
-2.31533e-08
-1.793e-06
-8.43631e-07
-1.92311e-06
-4.27209e-06
-1.72644e-06
-4.18809e-06
-1.23418e-08
-2.03154e-06
-1.67403e-09
-9.1833e-09
-2.66402e-08
1.20979e-07
-1.16537e-10
1.9294e-08
-4.91181e-12
7.63359e-11
-4.84894e-12
2.76311e-11
-6.05918e-12
1.35915e-11
-6.51374e-12
1.63217e-11
-4.9493e-12
1.37648e-11
-3.56765e-12
5.19285e-12
-6.70008e-12
3.57946e-12
-8.12489e-13
-5.42884e-12
-1.85634e-13
-4.18698e-13
-5.59366e-14
-2.92405e-14
1.43673e-15
-3.87302e-14
2.96686e-14
-4.11485e-14
3.83684e-14
-4.17118e-14
2.59726e-14
-5.14486e-14
-2.9906e-10
-7.58977e-14
-2.16523e-08
-1.96675e-09
-8.05424e-07
-6.8791e-08
-1.97101e-06
-2.58969e-06
-2.01835e-06
-3.70544e-06
-1.79118e-08
-2.75825e-06
-4.8796e-11
-1.2796e-08
3.18658e-08
1.06466e-07
-4.82803e-11
5.52162e-08
-6.25321e-11
9.32433e-11
-5.45035e-10
5.06361e-10
-3.97061e-09
3.4591e-09
-2.37436e-08
5.91044e-08
-2.55196e-09
5.27491e-08
-4.18913e-09
7.67305e-09
-4.18265e-10
-1.74617e-09
-4.62422e-11
-3.63474e-10
-1.75426e-12
-4.52635e-11
-8.89476e-14
-1.6961e-12
-8.31207e-15
-9.13953e-14
1.66064e-14
-6.03918e-14
2.74548e-14
-5.28212e-14
2.46476e-14
-4.86486e-14
1.44735e-15
-5.29538e-14
-1.62127e-09
-3.44705e-10
-4.60731e-08
-2.48343e-08
-1.57874e-06
-9.37694e-07
-1.75314e-06
-2.91063e-06
-1.90084e-09
-7.14478e-07
4.50674e-10
-1.98479e-09
5.30588e-08
5.07071e-08
5.98082e-09
1.20077e-07
-2.42731e-11
4.92484e-09
-8.30188e-10
1.49557e-09
-7.06933e-09
8.21949e-09
-4.31128e-08
8.76434e-08
-7.81637e-08
8.73426e-08
-8.76066e-08
2.07492e-08
-1.65595e-08
-3.0137e-08
-9.19388e-10
-1.62934e-08
-2.89357e-11
-9.44982e-10
-3.45327e-13
-3.25346e-11
4.98478e-15
-4.66089e-13
1.86314e-14
-7.39177e-14
2.34501e-14
-5.60147e-14
2.72503e-14
-5.34468e-14
1.19392e-14
-3.77464e-14
-3.05347e-10
-3.87381e-11
-1.89442e-08
-6.54356e-09
-7.46975e-07
-1.72068e-07
-5.7039e-07
-4.09359e-07
-1.6881e-09
-6.13792e-08
6.10643e-10
-1.60335e-09
2.37553e-08
9.86104e-09
2.31175e-08
5.35879e-08
3.36632e-09
6.63092e-08
7.33449e-10
4.25751e-09
2.68718e-09
6.71059e-09
-2.61778e-09
2.62652e-08
-1.4012e-08
7.56144e-08
-1.5386e-08
2.4671e-08
-1.16051e-08
-3.137e-08
-4.03436e-09
-5.35304e-08
-6.36097e-11
-8.35222e-09
-4.14523e-12
-1.73381e-10
-1.64314e-13
-4.88355e-12
2.92404e-14
-2.80577e-13
3.32546e-14
-6.0673e-14
4.97765e-14
-4.21505e-14
3.36652e-14
-2.21113e-14
-2.83441e-11
-1.03459e-11
-2.06876e-08
-1.7177e-09
-3.0993e-08
-1.45852e-07
-3.36572e-08
-2.91945e-07
-2.67688e-09
-2.17078e-09
4.79278e-10
-2.68668e-09
8.24414e-09
8.96835e-10
3.62447e-08
2.62335e-08
2.59007e-08
8.07009e-08
7.1129e-09
1.90157e-08
4.29645e-09
1.08535e-08
1.28128e-08
1.73712e-08
4.61955e-08
2.12076e-08
5.29915e-08
1.75381e-08
4.42782e-08
-1.89645e-08
2.82302e-08
-4.80778e-08
-1.14695e-09
-1.58432e-08
-5.8316e-11
-1.29812e-09
-2.1911e-12
-6.29951e-11
-2.92176e-14
-2.54764e-12
3.44309e-14
-1.25347e-13
6.37863e-14
-2.40523e-14
4.77412e-14
-2.8688e-15
-1.69524e-11
6.76182e-12
-4.46728e-09
-2.78237e-10
-1.22789e-07
-9.20973e-08
-2.31285e-08
-2.322e-07
-2.0018e-09
-2.30748e-08
1.86647e-10
-1.48812e-09
8.54616e-10
2.38705e-11
2.04796e-08
2.51027e-09
3.6448e-08
3.14704e-08
1.48305e-08
4.16728e-08
8.81681e-09
1.64895e-08
1.24274e-08
1.4791e-08
2.12468e-08
1.2601e-08
1.02578e-07
3.07111e-08
8.10199e-08
5.61223e-09
5.10405e-08
-3.1054e-08
1.13866e-10
-1.28652e-08
-8.84465e-12
-1.37925e-09
-1.0825e-12
-8.67425e-11
-5.36005e-14
-4.52954e-12
-5.21743e-15
-1.74714e-13
5.17152e-14
2.9899e-16
1.13805e-13
1.91616e-14
6.57677e-12
2.73618e-13
-1.44089e-09
1.16833e-09
-1.76479e-07
-6.21179e-08
-9.88539e-08
-2.57471e-07
-1.1159e-09
-6.45739e-08
4.09972e-11
-7.21173e-10
2.71323e-11
-9.6632e-13
2.30962e-09
2.10554e-10
2.14912e-08
7.41576e-09
2.88428e-08
8.69604e-08
3.82859e-08
1.09979e-07
2.71728e-08
4.89681e-08
4.13904e-08
3.50207e-08
1.33087e-07
7.44931e-08
1.13513e-07
3.44163e-08
5.2344e-08
3.99468e-10
1.24693e-09
-3.76286e-09
9.40893e-11
-6.06173e-10
6.74778e-12
-3.81803e-11
4.77895e-13
-1.43649e-12
6.63732e-14
5.25391e-14
4.97209e-14
3.37284e-14
6.39845e-14
3.76629e-14
3.07966e-13
1.63391e-14
5.42343e-10
6.26543e-10
-1.80293e-07
2.02537e-09
-2.22341e-07
-1.63068e-07
-4.20341e-09
-1.765e-07
-3.19474e-09
-7.06269e-10
3.07866e-12
-7.71729e-13
2.16521e-10
-6.13403e-13
6.57051e-09
9.26299e-10
1.18674e-07
1.08113e-07
1.33111e-07
1.54512e-07
1.40486e-07
1.55881e-07
1.51356e-07
1.26425e-07
1.45691e-07
9.72768e-08
1.3285e-07
5.98763e-08
3.61687e-08
1.06534e-08
1.19839e-09
4.78887e-10
1.06909e-10
3.35099e-11
8.79795e-12
7.28066e-12
6.87215e-13
1.69113e-12
8.47434e-14
2.66703e-13
4.59878e-14
5.49617e-14
5.40895e-14
3.42462e-14
4.92131e-14
8.48888e-15
5.76866e-10
4.97156e-11
-1.8983e-08
4.89892e-09
-1.85605e-07
-4.4613e-08
-8.16869e-08
-2.1088e-07
-4.96505e-08
-1.06906e-09
-6.06754e-14
-3.30796e-13
7.30874e-13
-1.53136e-13
9.13761e-10
3.47967e-11
5.8001e-08
4.92261e-08
9.40141e-08
1.19808e-07
1.1444e-07
1.44151e-07
1.2492e-07
1.2725e-07
1.25523e-07
1.06848e-07
1.06178e-07
6.70604e-08
2.83522e-09
2.64629e-09
2.29503e-10
3.88963e-10
2.39818e-11
4.95607e-11
1.51306e-12
6.78329e-12
-4.04465e-14
8.86278e-13
-6.15596e-14
1.36364e-13
4.45768e-14
4.22169e-14
4.31442e-14
2.53254e-14
3.28312e-14
7.17862e-15
4.60401e-11
3.74011e-12
4.46916e-09
4.69678e-10
-7.67737e-08
1.62717e-08
-1.70556e-07
-4.62973e-08
-1.24733e-07
-6.12263e-09
-1.35661e-12
5.22093e-14
-5.2276e-12
4.41429e-12
-1.59487e-10
1.98222e-10
5.34871e-09
6.29251e-09
3.92214e-08
9.39508e-08
6.65434e-08
1.26439e-07
8.40119e-08
1.20936e-07
7.80622e-08
8.49375e-08
7.20403e-09
5.69207e-09
9.92074e-11
2.27537e-10
2.28185e-11
7.55501e-11
2.47714e-12
1.33539e-11
1.48845e-13
2.00687e-12
3.57682e-14
3.02242e-13
5.62284e-14
6.03269e-14
5.36441e-14
4.1644e-14
3.19159e-14
2.09586e-14
2.31307e-14
5.64823e-15
3.53653e-12
2.19022e-13
4.3785e-10
3.49318e-11
1.58296e-08
8.6402e-10
1.35463e-08
1.8276e-08
-1.35214e-08
-1.32206e-08
-2.85642e-13
9.59023e-14
-1.16513e-12
4.64429e-12
4.59512e-10
7.27457e-11
-2.406e-09
-3.8191e-10
2.92798e-09
3.00391e-09
2.14468e-08
2.21128e-08
2.05262e-08
1.82007e-08
4.8772e-09
5.29438e-11
3.63482e-10
-2.84893e-10
3.99004e-11
1.68243e-11
3.45441e-12
9.87709e-12
2.83183e-13
2.25603e-12
1.02442e-13
4.0294e-13
1.69368e-14
7.06594e-14
6.19541e-14
2.86479e-14
5.08363e-14
2.49874e-14
2.19007e-14
1.5594e-14
1.35893e-14
4.46157e-15
2.21786e-13
9.5279e-15
3.3358e-11
1.76521e-12
8.60729e-10
3.58741e-11
1.88518e-08
3.22848e-10
7.54836e-10
6.9036e-08
6.11281e-14
1.15177e-14
4.28716e-12
3.52022e-13
2.9513e-11
6.56954e-12
-4.29969e-10
-2.5373e-11
-8.60683e-10
6.65411e-11
1.13475e-09
6.56477e-10
1.96465e-09
5.42029e-10
7.50292e-10
-1.91971e-11
1.13477e-10
-2.88666e-11
1.44368e-11
-2.28222e-12
1.31173e-12
5.98845e-13
1.27817e-13
2.86309e-13
2.72906e-14
7.06576e-14
3.61833e-14
1.78318e-14
3.11277e-14
1.11132e-14
2.42879e-14
8.64678e-15
1.4187e-14
6.80267e-15
5.84513e-15
3.41812e-15
1.38539e-14
4.17504e-16
1.70234e-12
6.66087e-14
3.63878e-11
1.21071e-12
3.53767e-10
1.10553e-11
7.86511e-12
1.11735e-09
1.05067e-14
2.47814e-15
2.90992e-13
2.1845e-14
1.16464e-12
6.11072e-14
-3.81001e-11
3.35545e-13
-9.77917e-11
1.79567e-11
1.6493e-10
7.33557e-11
3.00307e-10
6.1479e-11
1.01043e-10
-3.1223e-14
1.94517e-11
-3.30426e-12
2.89222e-12
-5.5798e-13
3.79412e-13
6.52387e-15
6.29669e-14
3.72285e-14
2.13799e-14
1.59062e-14
1.16381e-14
5.17313e-15
8.85158e-15
2.45858e-15
7.76831e-15
1.9923e-15
6.17699e-15
1.75628e-15
2.69629e-15
1.32315e-15
1.66024e-15
2.43221e-16
6.80547e-14
3.29872e-16
1.26318e-12
1.86785e-14
1.24032e-11
9.80047e-14
-6.64381e-14
2.05496e-11
-6.48877e-17
7.18552e-16
1.26196e-14
1.39508e-14
-4.13456e-14
3.53266e-14
-2.02188e-12
2.54073e-13
7.57865e-13
2.51114e-12
2.53845e-11
7.99907e-12
3.60628e-11
6.43855e-12
1.30247e-11
-6.07745e-14
2.83124e-12
-3.52567e-13
4.86023e-13
-5.52968e-14
7.89684e-14
8.88186e-15
1.99612e-14
1.32187e-14
6.11792e-15
4.13807e-15
2.33523e-15
8.96031e-16
1.84953e-15
4.19625e-16
1.74884e-15
3.50348e-16
1.60815e-15
3.08102e-16
1.08869e-15
2.52611e-16
3.87003e-16
1.48482e-16
5.89402e-16
2.00374e-17
1.9468e-14
2.42318e-16
1.20148e-13
5.74108e-16
-5.59822e-16
5.51719e-14
-1.21074e-16
1.28985e-16
-5.38152e-16
6.99498e-15
-2.82344e-15
8.8645e-15
4.4069e-15
4.28675e-14
8.78472e-13
2.86544e-13
3.4815e-12
8.12019e-13
4.23427e-12
6.41445e-13
1.52188e-12
1.04343e-14
3.64296e-13
-1.32824e-14
7.12326e-14
1.05382e-15
1.70375e-14
9.90976e-15
4.80054e-15
3.5169e-15
9.80524e-16
6.50073e-16
3.61769e-16
1.19665e-16
3.07568e-16
6.17022e-17
2.99036e-16
5.11943e-17
2.81938e-16
4.23591e-17
2.26644e-16
3.22777e-17
1.1609e-16
2.40072e-17
4.18645e-17
6.52693e-18
2.79356e-16
1.29807e-18
8.76273e-16
1.96214e-18
-2.69173e-18
7.89684e-16
-1.17657e-17
2.0796e-17
-2.41145e-18
1.07472e-15
5.54938e-16
2.60217e-15
1.24166e-14
6.06996e-15
1.3125e-13
3.69714e-14
3.84093e-13
8.67803e-14
4.29314e-13
7.1526e-14
1.63872e-13
1.44119e-14
4.14667e-14
-6.00608e-16
1.08683e-14
6.56045e-15
3.26179e-15
2.41435e-15
6.36694e-16
4.705e-16
1.182e-16
7.27302e-17
4.96092e-17
1.47707e-17
4.34826e-17
8.23995e-18
4.22247e-17
6.63812e-18
3.8522e-17
5.13582e-18
3.01317e-17
3.37337e-18
1.93856e-17
2.01803e-18
6.1763e-18
7.33903e-19
3.70075e-18
7.0095e-20
6.55377e-18
3.89656e-21
-5.38034e-19
4.47023e-17
5.31243e-20
3.17532e-18
2.5044e-17
1.43145e-16
1.77314e-16
4.51325e-16
1.75348e-15
1.64057e-15
1.41726e-14
4.72556e-15
3.71e-14
9.55201e-15
4.27644e-14
7.07531e-15
1.55925e-14
5.28734e-15
5.06761e-15
3.36754e-15
1.77428e-15
1.31586e-15
3.58392e-16
2.71132e-16
6.56448e-17
4.64456e-17
1.32457e-17
7.56821e-18
6.19086e-18
1.68354e-18
5.48582e-18
1.01135e-18
5.23048e-18
7.8943e-19
4.52886e-18
5.7461e-19
3.13443e-18
3.29932e-19
1.81709e-18
1.49349e-19
6.44629e-19
5.16631e-20
1.11405e-19
7.63441e-21
5.76983e-20
2.17627e-22
-6.87803e-20
7.69318e-18
2.75054e-20
4.56468e-19
5.88201e-18
1.92558e-17
3.20321e-17
5.06088e-17
2.47513e-16
2.44891e-16
1.60181e-15
9.93067e-16
3.5206e-15
2.03062e-15
4.05032e-15
1.95025e-15
1.9476e-15
1.27305e-15
6.45351e-16
5.50606e-16
1.59744e-16
1.2152e-16
3.3545e-17
2.43389e-17
6.35661e-18
4.34199e-18
1.36318e-18
7.2071e-19
7.06114e-19
1.7821e-19
6.31131e-19
1.1338e-19
5.87835e-19
8.66491e-20
4.75547e-19
5.9209e-20
2.897e-19
3.08562e-20
1.38777e-19
1.14646e-20
4.86582e-20
3.15118e-21
8.54219e-21
4.68716e-22
3.46372e-21
8.53792e-24
-7.22057e-21
8.03398e-19
5.59419e-21
6.04924e-20
9.64841e-19
2.48982e-18
4.22038e-18
5.39429e-18
3.0384e-17
2.26708e-17
1.88035e-16
1.19957e-16
3.80181e-16
2.77751e-16
4.32336e-16
2.62667e-16
1.94452e-16
1.33244e-16
5.66612e-17
4.14959e-17
1.39485e-17
1.01834e-17
2.96047e-18
2.10134e-18
5.63734e-19
3.74909e-19
1.29665e-19
6.32081e-20
7.38966e-20
1.7721e-20
6.63076e-20
1.16974e-20
5.99795e-20
8.72073e-21
4.4927e-20
5.57834e-21
2.45403e-20
2.66796e-21
9.79995e-21
8.70298e-22
2.90761e-21
1.91101e-22
4.98129e-22
2.31722e-23
1.97723e-22
4.48967e-25
-8.13118e-22
7.48475e-20
8.67517e-22
7.46225e-21
1.32334e-19
3.01594e-19
4.79949e-19
5.62686e-19
3.08962e-18
2.06535e-18
1.84068e-17
9.90145e-18
3.6068e-17
2.25489e-17
3.80799e-17
2.01108e-17
1.60284e-17
1.01734e-17
4.68268e-18
3.32022e-18
1.14584e-18
8.26293e-19
2.40883e-19
1.69429e-19
4.5948e-20
3.00002e-20
1.15445e-20
5.17757e-21
7.14666e-21
1.67801e-21
6.37951e-21
1.12301e-21
5.55916e-21
8.09857e-22
3.81875e-21
4.80909e-22
1.86756e-21
2.07721e-22
6.35147e-22
5.97199e-23
1.52736e-22
1.0928e-23
2.58569e-23
9.64919e-25
1.55571e-23
7.56199e-26
-5.43806e-23
7.58669e-21
1.15559e-22
8.64583e-22
1.59995e-20
3.42349e-20
4.94723e-20
5.59827e-20
2.87503e-19
1.85646e-19
1.59092e-18
8.21737e-19
2.97359e-18
1.74866e-18
3.00586e-18
1.54198e-18
1.25402e-18
7.8689e-19
3.62848e-19
2.5649e-19
8.74563e-20
6.3212e-20
1.81277e-20
1.27961e-20
3.47409e-21
2.24504e-21
9.74314e-22
4.02611e-22
6.45489e-22
1.52022e-22
5.66042e-22
1.01851e-22
4.69647e-22
6.97202e-23
2.90427e-22
3.74116e-23
1.23638e-22
1.39434e-23
3.5251e-23
3.33527e-24
6.55598e-24
4.67163e-25
2.67707e-24
3.73208e-26
3.65277e-24
2.34882e-26
-3.48391e-24
4.57989e-22
1.38574e-23
9.45847e-23
1.74815e-21
3.66633e-21
4.68857e-21
5.28925e-21
2.50442e-20
1.60617e-20
1.29237e-19
6.68951e-20
2.31134e-19
1.35275e-19
2.23812e-19
1.16654e-19
9.21884e-20
5.85476e-20
2.63007e-20
1.88356e-20
6.22599e-21
4.57558e-21
1.26962e-21
9.11734e-22
2.46309e-22
1.58541e-22
7.83169e-23
3.02665e-23
5.50847e-23
1.30535e-23
4.69702e-23
8.72656e-24
3.54995e-23
5.33622e-24
1.86876e-23
2.32741e-24
6.3606e-24
6.45223e-25
1.32795e-24
1.11193e-25
1.95371e-25
9.47244e-27
1.23461e-25
2.50531e-26
7.73522e-25
2.56331e-27
-1.78948e-25
2.63297e-23
1.53003e-24
9.78242e-24
1.75345e-22
3.72807e-22
4.12459e-22
4.77018e-22
2.05372e-21
1.3343e-21
9.93794e-21
5.25126e-21
1.70579e-20
1.00986e-20
1.57737e-20
8.49126e-21
6.38513e-21
4.17238e-21
1.79151e-21
1.32051e-21
4.15489e-22
3.15245e-22
8.32599e-23
6.16841e-23
1.6589e-23
1.06659e-23
5.99024e-24
2.23442e-24
4.34189e-24
1.03407e-24
3.48635e-24
6.21412e-25
2.10233e-24
2.79056e-25
7.34815e-25
8.064e-26
1.49074e-25
3.34564e-25
2.04221e-26
5.56387e-26
1.55084e-26
5.22035e-27
-6.30889e-27
-1.2313e-27