/*--------------------------------*- C++ -*----------------------------------*\
| =========                 |                                                 |
| \\      /  F ield         | OpenFOAM: The Open Source CFD Toolbox           |
|  \\    /   O peration     | Version:  2206                                  |
|   \\  /    A nd           | Website:  www.openfoam.com                      |
|    \\/     M anipulation  |                                                 |
\*---------------------------------------------------------------------------*/
FoamFile
{
    version     2.0;
    format      ascii;
    arch        "LSB;label=32;scalar=64";
    class       volScalarField;
    location    "0.925";
    object      alpha.water;
}
// * * * * * * * * * * * * * * * * * * * * * * * * * * * * * * * * * * * * * //

dimensions      [0 0 0 0 0 0 0];

internalField   nonuniform List<scalar> 
2268
(
0.999999
1
1
1
1
1
1
1
1
1
1
0.999861
0.99357
0.978143
0.976499
0.991089
0.991099
0.986883
0.977714
0.979891
0.994747
0.999714
0.999813
1
1
1
1
1
1
1
1
1
1
0.999996
0.996894
0.955919
0.949157
0.949151
0.95432
0.960198
0.963855
0.970972
0.9804
0.986576
0.999888
0.999825
1
1
1
1
1
1
1
1
1
1
0.999999
0.999888
0.982905
0.950221
0.949239
0.949289
0.973862
0.995863
1
1
1
1
0.999832
1
1
1
1
1
1
1
1
1
1
1
0.999995
0.999319
0.994514
0.990387
0.996825
1
1
1
1
1
1
0.999887
1
1
1
1
1
1
1
1
1
1
1
1
1
1
1
1
1
1
1
1
1
0.999999
0.999989
1
1
1
1
0.999999
1
1
1
1
1
1
1
1
1
1
1
1
1
1
1
1
0.999996
0.999996
1
1
1
0.999999
0.999916
0.999841
0.999983
1
1
1
1
1
0.999999
0.999998
0.999999
1
1
1
0.999999
0.999999
0.999998
0.999996
0.999986
1
1
1
1
0.999863
0.999481
0.999722
1
1
1
1
0.999997
0.999969
0.999931
0.999961
0.999988
0.999994
0.999991
0.999973
0.999696
0.997198
0.99888
0.999975
0.573452
0.573452
0.590651
0.600623
0.600469
0.573629
0.444162
0.450306
0.619916
0.891901
0.891901
0.891901
0.891896
0.891892
0.872926
0.768245
0.814112
0.81567
0.81567
0.573452
0.588207
0.600366
0.600491
0.600527
0.465376
0.44334
0.444162
0.457441
0.868748
0.891901
0.891895
0.891892
0.844856
0.420956
0.366492
0.595805
0.786338
0.81567
0.578366
0.598875
0.600079
0.600366
0.564477
0.339725
0.571718
0.596622
0.461159
0.531159
0.854791
0.891687
0.850436
0.441717
0.280516
0.281358
0.282358
0.66974
0.815709
0.59826
0.598346
0.598754
0.599066
0.519224
0.318229
0.573819
0.82736
0.592439
0.530931
0.535719
0.658748
0.458176
0.280516
0.279797
0.280516
0.349299
0.810352
0.815855
0.59837
0.598178
0.455409
0.225498
0.112626
0.173275
0.450877
0.846719
0.869254
0.535719
0.617897
0.634623
0.282389
0.279797
0.279797
0.279797
0.752252
0.815855
0.815918
0.598031
0.400567
0.027683
0.0252284
0.0254692
0.0370994
0.237574
0.84697
0.872494
0.806088
0.869446
0.855094
0.313103
0.279836
0.279797
0.341322
0.812039
0.815916
0.815915
0.577561
0.0442307
0.0252284
0.0251525
0.0252282
0.0255374
0.421903
0.872494
0.872675
0.872494
0.872027
0.871678
0.768074
0.281409
0.279836
0.758211
0.813683
0.815159
0.815917
0.182165
0.0291911
0.0251525
0.0251525
0.0251517
0.0413448
0.55879
0.860055
0.872598
0.87262
0.872154
0.871727
0.871678
0.578558
0.730339
0.795216
0.808837
0.813684
0.794343
1
1
1
1
0.999993
0.999958
0.999971
1
1
1
0.999996
0.999741
0.974554
0.944503
0.939646
0.963791
0.984607
0.989156
0.97293
0.968343
0.983214
0.995393
0.999972
0.999985
1
1
1
1
1
1
1
1
0.999995
0.999905
0.933497
0.784923
0.593029
0.509234
0.53487
0.631328
0.708468
0.827868
0.941947
0.988378
0.997636
0.999967
0.98934
0.997516
1
1
1
0.937858
0.716316
0.748817
0.868154
0.800411
0.628505
0.667024
0.780174
0.508065
0.507785
0.507785
0.508011
0.675187
0.94887
0.959299
0.974206
0.993592
0.999566
0.990469
0.999418
0.999957
0.940547
0.535127
0.21201
0.119373
0.162468
0.248017
0.258266
0.480068
0.7199
0.769485
0.74689
0.684915
0.711139
0.770684
0.768138
0.573195
0.412317
0.390715
0.4954
0.574035
0.990514
0.877726
0.396805
0.188178
0.0812989
0.0519229
0.0386837
0.0224105
0.00653878
0.00318723
0.00869131
0.182068
0.61392
0.744193
0.725481
0.694728
0.370048
0.0590071
0.0511245
0.0510623
0.0511586
0.0505738
0.0482108
0.934502
0.340658
0.00493205
0.00273071
0.00973461
0.0525118
0.0527895
0.029147
0.00318733
0.000733832
0.000400329
0.00117336
0.142694
0.554775
0.554015
0.0845391
0.0547611
0.0533665
0.0510444
0.0511586
0.0505738
0.0466515
0.0423842
0.836121
0.00495387
0.00125375
0.000526344
0.000442888
0.0190205
0.0422286
0.0312573
0.00184506
0.000297495
0.000122099
0.000400335
0.00117174
0.00451866
0.136557
0.193901
0.0591432
0.0546914
0.0538206
0.128205
0.194661
0.201968
0.122892
0.679985
0.00125583
0.000342095
0.000105796
6.44132e-05
0.000211815
0.00263588
0.00527854
0.00350959
0.000115725
2.91591e-05
9.95812e-05
0.000430046
0.00201218
0.0933875
0.239375
0.239375
0.187736
0.157332
0.251574
0.25227
0.248224
0.143565
0.497504
0.000343391
9.16148e-05
2.12779e-05
1.05078e-05
1.53492e-05
2.75666e-05
4.23062e-05
0.000369253
0.000138842
2.74141e-06
5.18664e-06
1.89188e-05
9.89619e-05
0.0108946
0.168126
0.239375
0.238528
0.243704
0.246789
0.152977
0.0458525
0.00774746
0.49949
9.16403e-05
2.15467e-05
4.42237e-06
1.87297e-06
2.73065e-06
4.53014e-06
5.75903e-06
5.18599e-06
4.06985e-06
5.41569e-07
1.30335e-06
1.06228e-07
1.04243e-06
-1.98118e-06
2.64991e-05
0.0136124
0.101354
0.1145
0.0176242
0.00177102
0.00132698
0.00590022
0.517496
0.000161115
4.42555e-06
9.2107e-07
3.83477e-07
4.70429e-07
6.9431e-07
8.04947e-07
6.40107e-07
1.63217e-07
2.54414e-08
1.25755e-08
1.59566e-08
6.42879e-08
9.8716e-07
5.89626e-06
2.90341e-05
0.000127817
0.000527165
0.00342512
0.0014845
0.0011545
0.00314427
0.517678
0.000159065
8.90337e-07
2.13016e-07
9.76403e-08
1.04517e-07
1.18184e-07
1.13128e-07
7.37228e-08
1.97894e-08
6.26713e-09
3.42423e-09
2.43129e-09
4.23624e-09
1.54063e-07
1.73493e-06
1.8422e-05
0.000946527
0.0112715
0.0176366
0.0133108
1.59934e-05
1.59934e-05
0.266016
0.000287185
2.11259e-07
6.57666e-08
3.97438e-08
3.78834e-08
3.39005e-08
2.39998e-08
1.21151e-08
5.46655e-09
4.22635e-09
2.77664e-09
1.75016e-09
1.35897e-09
6.95336e-10
2.03543e-08
5.90115e-06
0.00270518
0.0188853
0.0188853
0.0188853
0.00117198
1.59934e-05
0.00650597
5.62212e-05
6.71068e-08
3.56879e-08
2.87206e-08
2.64115e-08
2.11205e-08
1.21729e-08
6.12618e-09
4.99238e-09
4.84836e-09
4.75355e-09
1.71997e-09
1.32601e-09
1.22968e-09
9.77207e-10
-8.26295e-09
7.22897e-06
0.00493757
0.0188853
0.0186607
0.0117347
1.19901e-05
2.25667e-05
1.20599e-07
3.57979e-08
2.87841e-08
2.64144e-08
2.18989e-08
1.70583e-08
1.554e-08
1.10197e-08
4.18969e-09
2.00717e-09
1.93481e-09
1.78413e-09
1.43849e-09
1.22663e-09
1.22604e-09
1.1901e-09
5.65486e-07
0.000916958
0.017475
0.0182469
0.0162533
6.67238e-06
5.30616e-05
1.9795e-05
1.11616e-07
3.58015e-08
6.84365e-07
3.38357e-05
7.42854e-05
1.70583e-08
4.3216e-06
2.58661e-08
3.96332e-09
1.55739e-09
1.46299e-09
1.45216e-09
1.30095e-09
1.22514e-09
1.22524e-09
-9.73987e-10
5.67641e-06
0.00294561
0.0180091
0.0101854
6.47857e-06
0.00018752
0.000172083
1.35342e-06
4.88617e-07
2.97219e-06
0.000266201
0.000435567
0.000449299
0.00024548
1.19462e-06
4.49641e-08
5.13921e-09
1.43482e-09
1.28639e-09
1.27853e-09
1.22617e-09
1.22524e-09
-8.49591e-10
1.97693e-06
0.0020919
0.00972035
0.0011469
6.04194e-06
4.37396e-05
0.000283637
3.20412e-05
1.40758e-06
5.689e-06
0.000169335
0.000450375
0.000450375
0.000450375
0.000263337
1.2697e-05
2.24277e-07
3.18264e-09
1.36312e-09
1.28587e-09
1.47075e-09
1.22592e-09
1.20369e-09
4.32259e-05
0.000397668
0.000124014
0.000105127
5.91252e-06
1.62433e-06
0.000209726
0.000195892
1.81717e-05
9.30554e-06
1.31268e-05
5.44407e-05
0.000389458
0.000447986
0.000441524
8.61241e-05
2.63152e-07
1.82807e-08
2.27787e-09
1.39697e-09
1.4406e-09
1.22752e-09
7.12361e-10
3.19655e-06
0.00087499
0.00146972
5.14983e-06
4.75526e-06
5.04063e-08
3.02282e-05
0.000177238
1.73032e-05
1.31268e-05
1.73129e-05
2.25776e-05
0.000144005
0.000441524
0.00043357
0.000115848
9.03039e-07
7.65405e-08
6.56453e-09
1.75355e-09
1.42004e-09
1.24238e-09
3.02001e-10
4.55149e-09
0.00103018
0.00245438
0.00037774
4.4834e-06
2.46861e-08
4.93116e-08
8.19064e-06
6.34006e-05
1.86786e-05
2.25776e-05
3.02219e-05
0.000275466
0.000421104
0.000417035
8.79824e-05
1.35008e-06
1.38393e-07
1.26736e-08
2.03916e-09
1.31342e-09
1.22157e-09
1.47651e-10
-6.91938e-10
0.000763943
0.00245438
0.00223894
4.07217e-06
2.33947e-08
1.93993e-08
3.28841e-07
0.000172212
0.000330011
0.000267557
0.000314088
0.000404894
0.000404826
0.000378934
4.68518e-05
1.11973e-06
1.27775e-07
1.28933e-08
1.88435e-09
1.00279e-09
9.14138e-10
1.15396e-10
1.29466e-10
8.38495e-05
0.00219656
0.00287817
0.000410168
1.45874e-08
1.48343e-08
1.93993e-08
0.000333689
0.0004018
0.00040848
0.000409602
0.000407851
0.000404894
0.000183573
4.42399e-06
4.28655e-07
5.20223e-08
6.18638e-09
1.35078e-09
7.67481e-10
5.65907e-10
9.58876e-11
-1.34383e-10
2.53961e-08
0.000574268
0.00286061
0.00266273
5.92371e-09
1.03366e-08
1.8931e-07
0.00017601
0.00040848
0.000410802
0.00040848
0.000409594
0.000229336
1.23703e-05
8.59996e-07
1.23095e-07
1.61765e-08
2.56367e-09
1.04898e-09
8.2106e-10
4.24786e-10
7.93302e-11
6.32438e-11
9.48303e-10
2.86986e-07
0.00151552
0.0027599
1.07552e-09
4.3371e-09
2.29768e-07
1.67823e-05
0.000204623
0.000347494
0.000328114
0.000165907
1.31421e-05
1.25869e-06
2.25113e-07
3.04408e-08
4.27537e-09
1.05756e-09
6.42036e-10
5.94094e-10
3.39679e-10
7.10898e-11
9.4744e-12
-1.76121e-10
2.13839e-08
8.0547e-07
0.000814286
1.57216e-10
7.88726e-10
1.88158e-07
4.04183e-07
5.35184e-06
2.80167e-05
2.22124e-05
2.78541e-06
8.50197e-07
2.36957e-07
4.58857e-08
6.68743e-09
1.09698e-09
2.99874e-10
3.00347e-10
2.74661e-10
1.90331e-10
6.80634e-11
5.95529e-12
-5.79219e-11
1.37448e-09
2.99527e-08
5.83433e-08
3.90485e-11
1.48666e-10
8.00375e-09
5.43801e-08
3.69328e-07
9.33173e-07
8.3569e-07
3.91366e-07
1.20703e-07
3.05054e-08
6.4352e-09
1.23895e-09
2.41746e-10
1.07386e-10
8.88571e-11
8.14454e-11
6.88704e-11
4.07102e-11
5.51035e-12
2.931e-12
5.41571e-11
6.30729e-10
3.71993e-10
1.48391e-11
1.05716e-10
5.1221e-10
7.2322e-09
4.3337e-08
1.15591e-07
1.05335e-07
4.95655e-08
1.51773e-08
3.90811e-09
9.06746e-10
2.07404e-10
7.12248e-11
2.60477e-11
1.8145e-11
1.75754e-11
1.64845e-11
1.30041e-11
4.80011e-12
4.89989e-13
1.57001e-12
6.95614e-12
2.51981e-12
3.75877e-12
7.99245e-11
1.30018e-10
8.0438e-10
4.68897e-09
1.28667e-08
1.19019e-08
5.67517e-09
1.82629e-09
5.40834e-10
1.44115e-10
5.91358e-11
1.65597e-11
4.11207e-12
3.02103e-12
3.01815e-12
2.87487e-12
2.48393e-12
1.63476e-12
4.43607e-13
7.68991e-14
1.15075e-13
1.32858e-12
6.56137e-13
2.50039e-11
3.85494e-11
1.08991e-10
5.23248e-10
1.32853e-09
1.24252e-09
6.42865e-10
2.54387e-10
8.29703e-11
4.06546e-11
1.22985e-11
2.2368e-12
5.54061e-13
4.48983e-13
4.44624e-13
4.11912e-13
3.39179e-13
2.51831e-13
1.03518e-13
1.35372e-14
1.95238e-15
2.1733e-13
1.048e-13
3.63458e-12
9.90059e-12
2.28357e-11
7.40494e-11
1.67399e-10
1.56982e-10
8.87515e-11
3.90266e-11
2.28094e-11
7.44945e-12
1.42312e-12
2.47568e-13
7.07578e-14
6.14768e-14
5.90599e-14
5.26035e-14
3.92119e-14
2.53464e-14
1.19998e-14
2.66121e-15
2.87116e-16
3.95005e-14
1.57546e-14
4.8931e-13
1.452e-12
5.34724e-12
1.39477e-11
2.07307e-11
2.05406e-11
1.9743e-11
1.04356e-11
3.4846e-12
7.45136e-13
1.39951e-13
2.56632e-14
8.50616e-15
7.70898e-15
7.22517e-15
6.1348e-15
4.18263e-15
2.25622e-15
9.87418e-16
2.62023e-16
3.0584e-17
4.64787e-15
2.19624e-15
6.53991e-14
1.59761e-13
6.90854e-13
2.68223e-12
4.92572e-12
4.78192e-12
3.35472e-12
1.29256e-12
3.1289e-13
6.74041e-14
1.29484e-14
2.46262e-15
9.62807e-16
8.85892e-16
8.104e-16
6.51642e-16
4.11358e-16
1.93367e-16
7.06289e-17
1.76877e-17
1.99084e-18
4.9187e-16
2.84973e-16
8.36158e-15
1.72396e-14
6.39489e-14
2.92147e-13
6.25699e-13
5.69885e-13
3.11873e-13
1.03392e-13
2.65626e-14
5.78012e-15
1.10914e-15
2.21088e-16
1.03457e-16
9.39446e-17
8.33888e-17
6.29807e-17
3.6521e-17
1.52456e-17
4.68142e-18
9.40153e-19
2.01381e-19
5.75113e-17
3.46819e-17
1.00478e-15
1.81043e-15
5.91761e-15
2.44701e-14
4.99767e-14
4.43666e-14
2.45634e-14
8.35503e-15
2.14887e-15
4.62633e-16
8.84683e-17
1.89236e-17
1.06044e-17
9.29444e-18
7.92385e-18
5.53322e-18
2.86503e-18
1.03695e-18
2.62586e-19
3.57895e-20
5.27015e-20
4.08472e-18
3.98331e-18
1.13659e-16
1.81114e-16
5.37868e-16
2.06831e-15
3.97649e-15
3.49015e-15
1.91357e-15
6.44805e-16
1.63671e-16
3.47243e-17
6.63727e-18
1.57724e-18
1.02324e-18
8.74423e-19
6.90493e-19
4.22705e-19
1.8026e-19
5.02995e-20
7.87771e-21
1.84124e-21
8.60614e-21
2.88612e-19
4.33048e-19
1.21761e-17
1.72419e-17
4.70168e-17
1.70728e-16
3.11858e-16
2.6772e-16
1.42717e-16
4.7247e-17
1.1792e-17
2.46123e-18
4.73751e-19
1.30793e-19
9.16902e-20
7.48172e-20
4.91932e-20
2.06832e-20
4.5009e-21
6.14296e-22
2.08647e-23
-1.4026e-22
1.85824e-22
1.65921e-20
4.43394e-20
1.24213e-18
1.56944e-18
3.95201e-18
1.35916e-17
2.35873e-17
1.97379e-17
1.01887e-17
3.30232e-18
8.08084e-19
1.65859e-19
3.26443e-20
1.07389e-20
7.1043e-21
4.16112e-21
1.0973e-21
1.25313e-22
-6.81517e-22
-2.55783e-21
-2.3024e-21
-1.24535e-21
-3.97994e-22
6.388e-22
4.10468e-21
1.21199e-19
1.37178e-19
3.20799e-19
1.04629e-18
1.72412e-18
1.40318e-18
6.99449e-19
2.21238e-19
5.29464e-20
1.07079e-20
2.20488e-21
7.55145e-22
2.00566e-22
2.81912e-23
-5.29807e-22
-2.4059e-21
-3.55761e-21
-3.21071e-21
-1.97301e-21
-8.60881e-22
-2.67956e-22
-3.72865e-23
2.61995e-22
1.13371e-20
1.1592e-20
2.5319e-20
7.83541e-20
1.22572e-19
9.66454e-20
4.63413e-20
1.42544e-20
3.32939e-21
6.66576e-22
1.36348e-22
1.02134e-23
1.76324e-39
-5.62614e-22
-1.76199e-21
-2.79001e-21
-2.81386e-21
-1.98069e-21
-9.99202e-22
-3.64793e-22
-9.60673e-23
-1.77889e-23
3.67593e-24
1.0177e-21
6.94405e-22
1.63023e-21
5.23321e-21
6.87373e-21
5.75289e-21
2.83055e-21
8.66216e-22
2.00174e-22
3.97015e-23
2.57359e-24
-6.46325e-24
-2.00256e-22
-7.59355e-22
-1.49351e-21
-1.81742e-21
-1.5045e-21
-8.94851e-22
-3.83589e-22
-1.17833e-22
-2.5493e-23
-3.75268e-24
-3.24345e-23
4.35361e-23
1.91743e-22
2.80138e-22
5.32182e-22
1.49016e-21
7.81182e-22
2.31309e-22
5.22911e-23
9.61775e-24
1.03678e-24
-5.55364e-42
-4.04185e-23
-2.19914e-22
-5.78306e-22
-8.97908e-22
-9.0499e-22
-6.31613e-22
-3.16771e-22
-1.12012e-22
-2.70726e-23
-4.22214e-24
-3.69729e-25
0.999968
0.999967
0.999967
0.763236
0.999966
0.999967
0.843036
0.216268
0.999966
0.869975
0.317098
0.23765
0.572832
0.415431
0.311964
0.396185
0.059861
0.094286
0.31407
0.397688
0.0412359
0.0538411
0.103312
0.0422347
0.0295105
0.0235519
0.0175442
0.0159412
0.0245725
0.0235091
0.016837
0.0159166
0.040677
0.040677
0.040677
0.0345105
0.02523
0.0281491
0.0118511
4.79198e-05
1.65924e-05
2.22567e-05
3.77163e-05
4.77228e-05
1.59806e-05
1.65924e-05
3.88778e-05
3.77163e-05
1.65163e-05
3.0203e-05
0.00033812
0.00051648
1.37118e-05
2.44503e-05
0.000141615
0.002993
7.00905e-06
7.68784e-06
0.00099845
0.00430678
6.67238e-06
7.00481e-06
7.68318e-06
1.08069e-05
6.55199e-06
6.74812e-06
7.29313e-06
9.45973e-06
1.21501e-05
1.02284e-05
8.93633e-06
9.55202e-06
1.19906e-05
8.39604e-06
1.06764e-05
1.38578e-05
4.245e-06
4.82224e-06
2.72602e-06
4.17751e-06
4.0115e-06
3.57375e-06
1.40589e-06
1.06462e-06
4.07217e-06
3.92826e-06
1.48565e-05
2.9446e-06
4.36061e-06
6.9974e-05
0.000130011
4.77831e-06
0.000700671
0.000943838
0.000163593
1.70472e-07
0.00125562
0.00103627
6.10619e-05
2.83307e-09
9.92833e-06
7.48512e-10
7.03381e-11
9.54619e-12
1.4301e-10
8.18482e-11
1.50811e-11
5.51969e-12
1.04962e-10
1.35657e-10
1.27171e-10
8.42288e-11
3.91127e-10
5.44947e-10
4.13533e-10
1.57393e-10
7.06273e-12
4.85861e-11
5.76657e-11
5.36037e-11
1.51287e-12
6.72154e-12
6.58024e-12
4.28251e-12
2.31117e-13
6.96957e-13
5.95137e-13
3.02626e-13
2.14481e-14
4.0402e-14
3.05312e-14
1.22276e-14
1.28839e-15
1.60124e-15
1.05125e-15
2.95102e-16
4.86452e-17
4.83194e-17
2.35824e-17
1.63753e-17
1.61598e-18
1.28142e-18
6.90642e-19
2.82396e-18
4.86072e-20
2.85482e-20
7.37407e-20
1.21309e-18
1.2815e-21
5.89634e-22
2.54674e-20
7.48846e-19
2.34832e-23
1.0575e-23
5.69988e-21
3.85423e-19
-1.36983e-24
6.04633e-26
8.04034e-22
8.43474e-20
-2.91785e-25
9.97877e-28
6.15275e-23
1.66151e-21
-1.36764e-26
9.51849e-28
3.59275e-26
4.03132e-26
0.0738034
0.0737749
0.0428801
0.024767
0.0256487
0.0989893
0.180228
0.194389
0.306945
0.517708
0.730068
0.833863
0.862092
0.846879
0.710282
0.638211
0.517195
0.570386
0.628613
0.207526
0.159219
0.0242237
0.0243137
0.0248192
0.0271243
0.057124
0.453863
0.683073
0.684845
0.67833
0.676847
0.733974
0.790323
0.535991
0.105428
0.0312
0.194992
0.466948
0.390731
0.124599
0.0242114
0.0242237
0.0243766
0.0251329
0.0475577
0.477415
0.684845
0.684908
0.685445
0.686589
0.61782
0.222965
0.0310639
0.000285904
0.000276832
0.000271854
0.0002982
0.398677
0.231179
0.0242179
0.0242016
0.0242369
0.0246677
0.165328
0.602135
0.683073
0.684845
0.678671
0.407259
0.0496691
0.00165625
0.000442037
0.000276832
0.000259515
0.000250009
0.000635623
0.398677
0.398677
0.0795531
0.0242369
0.0243213
0.105339
0.597668
0.626681
0.620614
0.471203
0.164614
0.0110554
0.0013781
0.000771245
0.00053415
0.000505862
0.000246616
0.000251166
0.000923115
0.374888
0.396522
0.346869
0.0243213
0.121884
0.556553
0.58893
0.384646
0.00180726
0.00121169
0.00378433
0.000995392
0.00117103
0.00105884
0.00103142
0.00112849
0.000219349
3.11864e-05
0.000530946
0.0364693
0.365548
0.376775
0.355797
0.102031
0.558287
0.194326
0.00111495
0.00112658
0.00101557
0.000788963
0.000670634
0.00121205
0.00153134
0.00153819
0.000387436
1.68123e-06
2.25899e-06
2.61845e-06
0.0160069
0.0711455
0.306328
0.491777
0.106152
0.353645
0.049854
0.00112357
0.00103865
0.00101901
0.000670634
0.000622874
0.00103276
0.00153746
0.000600724
1.67012e-06
1.6525e-06
1.68123e-06
2.30708e-06
0.0160346
0.000992131
0.0143404
0.43605
0.365106
0.119721
0.00117809
0.00116632
0.00125469
0.00163677
0.00153621
0.000573743
0.000767665
0.000569294
1.68017e-06
1.6525e-06
1.69731e-06
2.58011e-05
8.31409e-06
0.00677873
0.00022016
0.000257492
0.0240573
0.352395
0.269834
0.0289778
0.00107043
0.0018038
0.00144342
0.000380132
0.000161225
1.09077e-05
1.89569e-06
1.76643e-06
1.68017e-06
1.74967e-06
6.41629e-05
5.7978e-05
4.79193e-05
5.66714e-05
8.72629e-05
0.00016745
0.191577
0.270952
0.0594571
0.00086713
0.000633827
9.84612e-05
9.5727e-07
1.87151e-06
2.4267e-06
2.19054e-06
1.89574e-06
1.76643e-06
1.9167e-06
6.41869e-05
6.41629e-05
4.77293e-05
4.79381e-05
5.54956e-05
8.72629e-05
0.14516
0.160591
0.0261474
4.38101e-05
5.27862e-06
8.47568e-07
5.61959e-07
4.07888e-06
3.26453e-06
5.34871e-06
2.74638e-06
2.31159e-06
8.73566e-06
6.41629e-05
2.84816e-05
4.78241e-05
4.7747e-05
5.25149e-05
0.0613643
0.0732543
0.00245541
0.000663497
5.22496e-06
7.69381e-07
4.61321e-07
5.4605e-07
5.73798e-06
5.75497e-06
1.18625e-05
0.000173712
7.43952e-05
4.67137e-05
6.40302e-05
1.12678e-05
0.0124721
0.0196389
0.0200534
0.0200064
0.000267421
0.000102276
8.73264e-06
5.66191e-07
4.60321e-07
4.55892e-07
4.56924e-07
1.15275e-06
8.54743e-07
2.4172e-05
0.000365736
0.000323074
4.51387e-05
4.61319e-05
1.12678e-05
0.00457367
0.00366967
0.00277809
0.00011348
8.29162e-05
3.7859e-05
1.21472e-06
4.66147e-07
4.55843e-07
4.5459e-07
4.54591e-07
4.54591e-07
4.58944e-07
4.53062e-05
0.000365964
0.000242469
1.48044e-05
1.13285e-05
1.12678e-05
2.30088e-05
0.000239957
0.000113649
8.29162e-05
6.60655e-05
6.18679e-05
4.01727e-05
1.63388e-06
9.81404e-07
6.31324e-07
4.54591e-07
4.82333e-07
1.67183e-06
0.000232904
0.000357342
1.84293e-05
1.71457e-05
2.81671e-05
1.13282e-05
0.000164617
0.000556293
0.000556293
0.000552925
0.000499104
0.000569627
0.000549579
0.000241278
4.83511e-05
6.39555e-07
1.07335e-06
2.43928e-06
5.99416e-06
0.000346525
0.000325118
1.84779e-05
4.8904e-05
0.000563395
1.20362e-05
7.0792e-05
0.000472332
0.000558299
0.000560883
0.000567206
0.000571368
0.000567206
0.000559103
0.000137857
1.00883e-06
3.19768e-06
3.2048e-06
7.12243e-07
0.000346688
0.000344476
1.90525e-05
9.144e-05
0.000795422
3.48625e-05
4.54383e-05
3.21065e-05
0.000181044
0.000307909
0.000403512
0.000419135
0.000320568
0.000149787
3.02001e-05
1.25931e-06
3.78973e-06
1.66318e-06
7.15129e-07
0.000324138
0.000342192
2.40088e-05
0.000139673
0.000798498
8.55968e-05
1.20129e-05
3.1487e-06
6.5394e-11
6.51538e-11
6.49603e-11
6.51538e-11
6.54495e-11
6.81425e-11
1.58129e-10
1.24884e-06
3.80181e-06
1.95458e-06
7.12244e-07
8.53902e-05
0.000234982
2.59825e-05
0.000471502
0.000799535
0.000234423
1.11541e-10
6.81018e-11
6.55622e-11
6.49603e-11
6.4843e-11
6.49603e-11
6.55013e-11
6.69436e-11
6.98196e-11
1.38641e-06
3.81473e-06
3.7699e-06
8.9528e-07
2.17202e-07
2.75285e-07
3.29779e-07
0.00077394
0.000799466
0.000558943
3.97167e-10
8.57399e-11
7.92369e-11
7.23456e-11
6.5351e-11
7.28749e-11
7.687e-11
7.18124e-11
7.17215e-11
2.77507e-06
3.8224e-06
3.81846e-06
1.45615e-06
1.72603e-07
1.10643e-06
3.78426e-07
0.000418844
0.000799466
0.000630892
2.37818e-09
2.38376e-10
9.62734e-11
8.59251e-11
5.82335e-11
8.96305e-11
1.88307e-10
1.06339e-10
7.16632e-11
2.84692e-06
3.81473e-06
3.81916e-06
5.81829e-07
1.12261e-07
8.24178e-06
4.64883e-07
4.58029e-05
0.000789887
0.000306641
9.74116e-09
6.12188e-10
7.72011e-11
5.74186e-11
2.95344e-11
8.37376e-11
6.95284e-10
6.76252e-10
7.43332e-11
3.1959e-07
3.56251e-06
1.85755e-06
5.08556e-09
8.8422e-08
8.34167e-06
8.86837e-07
2.26146e-05
0.00075767
0.00030534
1.26781e-08
1.50687e-08
2.8469e-09
1.77659e-11
1.62279e-11
5.20598e-11
1.35355e-09
2.31059e-09
1.08238e-09
5.40883e-10
8.59656e-08
3.08794e-08
2.45586e-09
1.73338e-07
5.82626e-06
9.12955e-07
0.000192526
0.00074873
0.000303952
1.28335e-08
4.13731e-08
1.04381e-08
2.35543e-12
2.75771e-12
2.35763e-11
1.55376e-09
2.93713e-09
2.93713e-09
1.03446e-09
3.06491e-10
3.1621e-10
2.45275e-09
2.65342e-06
9.23458e-07
8.95007e-07
0.000350827
0.00073865
0.000298042
3.02255e-12
2.4785e-12
2.35543e-12
2.35062e-12
2.81546e-12
1.72028e-11
7.12348e-10
2.61058e-09
2.86908e-09
1.87975e-09
2.99183e-10
2.77717e-10
3.31329e-10
2.13801e-06
9.80937e-07
8.76386e-07
0.000276533
0.000732529
0.000267571
2.98376e-11
9.84375e-12
2.59962e-12
2.34639e-12
3.86261e-12
1.72871e-11
8.88282e-11
7.15268e-10
1.2456e-09
8.44508e-10
2.13459e-10
2.2383e-10
7.73795e-10
5.46679e-08
6.33164e-07
8.58427e-07
1.55791e-06
0.000592108
0.000214947
4.78821e-11
1.62267e-11
2.89934e-12
1.6252e-12
4.2151e-12
5.93233e-12
1.25587e-11
3.94896e-11
1.70987e-10
1.96373e-10
2.08822e-10
2.08822e-10
7.66646e-09
8.34668e-06
4.62779e-06
8.95007e-07
6.30241e-06
9.5976e-05
0.000177889
3.86333e-11
1.32387e-11
1.15142e-12
6.22562e-13
2.53447e-12
1.97638e-12
1.20517e-12
7.05977e-12
2.53536e-10
6.28768e-10
2.08557e-10
2.43457e-10
6.05249e-06
4.38891e-05
3.06074e-05
1.20387e-06
1.19129e-05
0.000193122
0.000289802
1.65131e-12
3.55144e-13
7.4526e-14
1.36092e-13
4.44674e-13
3.25236e-13
3.25236e-13
9.81883e-09
1.69823e-08
5.77519e-09
2.43816e-10
3.76007e-10
3.95384e-05
4.40859e-05
3.41089e-05
2.86296e-06
0.000110775
0.000492156
0.000351804
7.70896e-14
9.23202e-15
2.26294e-14
9.6323e-14
2.29117e-13
2.79373e-13
2.20035e-10
4.56874e-08
4.94352e-08
1.1899e-08
4.49834e-10
2.27962e-05
4.40859e-05
4.40859e-05
3.1523e-05
3.80013e-06
0.000224768
0.000494472
0.000199394
2.08208e-15
8.30188e-16
1.29278e-13
3.14507e-13
9.00387e-13
3.26592e-13
1.88772e-08
4.92191e-08
4.9488e-08
1.02852e-08
9.262e-10
4.30951e-05
4.39571e-05
4.40859e-05
2.01925e-05
4.77895e-06
0.000370649
0.000494454
0.000137528
1.87524e-16
1.96011e-16
6.03802e-13
1.14041e-12
1.39987e-11
4.86995e-13
2.69248e-08
4.89328e-08
3.03392e-08
1.13379e-09
1.57241e-09
2.69147e-05
4.38283e-05
2.58733e-05
1.15144e-05
0.000132743
0.000475547
0.000477126
3.48718e-05
5.06726e-17
2.88099e-17
1.10944e-12
2.54303e-12
7.50121e-11
3.44068e-12
5.75347e-09
2.68844e-08
9.0707e-12
6.14592e-10
9.59171e-08
5.11808e-06
3.931e-05
5.50793e-06
1.15161e-05
0.000208392
0.000461342
0.00013122
1.01806e-09
1.89452e-17
7.86506e-19
1.30064e-12
5.74324e-12
1.50708e-10
5.157e-10
7.44138e-12
7.03069e-12
7.42203e-12
2.19652e-09
2.25862e-07
1.1349e-07
7.19996e-07
5.21502e-07
8.76391e-05
0.000159411
-1.21169e-28
0
0
6.06155e-18
6.86888e-19
1.34757e-12
1.22867e-11
1.83053e-10
5.94847e-10
1.15195e-10
6.32795e-12
4.45995e-11
3.67463e-09
1.40652e-10
1.31334e-10
6.62011e-10
3.60688e-07
-3.76718e-15
-8.80598e-15
-1.36806e-14
-5.12275e-15
-5.01914e-16
2.20001e-18
6.03046e-19
1.30167e-12
1.65802e-11
7.08715e-11
2.07152e-10
5.43398e-11
6.12571e-12
9.88108e-12
6.18638e-12
9.36211e-11
3.16502e-09
5.13911e-09
5.91868e-28
-7.73188e-15
-1.72297e-14
-2.93113e-14
-9.17067e-15
-8.87159e-16
5.05572e-19
5.12237e-19
8.15041e-13
1.46315e-11
8.8114e-12
2.11162e-14
1.98811e-14
4.20741e-12
5.5002e-13
6.70594e-13
6.62835e-12
1.1945e-08
3.66926e-08
2.49713e-08
-3.84379e-15
-1.09096e-14
-2.23394e-14
-5.93396e-15
-5.59984e-16
5.14654e-20
4.95016e-18
1.70061e-13
2.51852e-12
1.08845e-12
1.61174e-13
1.94972e-14
2.15295e-12
2.11059e-13
3.21985e-12
4.90074e-12
6.05839e-09
3.36102e-08
3.34473e-08
0
8.06337e-18
8.74775e-17
3.03327e-18
9.93096e-19
7.75016e-22
1.82689e-17
9.47078e-15
1.11925e-13
1.27084e-13
3.87422e-14
1.84799e-15
3.34409e-13
1.80627e-14
4.27393e-12
1.04272e-10
8.30491e-12
4.60203e-30
1.12748e-08
-1.1824e-18
-4.9586e-18
-3.59014e-19
-1.52082e-20
1.29426e-21
2.1061e-26
1.11355e-17
2.08516e-19
0
5.51013e-41
0
1.66829e-18
1.23921e-15
2.99227e-17
2.77378e-14
6.61399e-12
1.62722e-11
-1.55172e-21
-1.5843e-20
-1.67035e-19
-1.85386e-18
-1.7539e-19
-7.43591e-21
-1.18192e-22
)
;

boundaryField
{
    leftWall
    {
        type            zeroGradient;
    }
    rightWall
    {
        type            zeroGradient;
    }
    lowerWall
    {
        type            zeroGradient;
    }
    atmosphere
    {
        type            inletOutlet;
        inletValue      uniform 0;
        value           nonuniform List<scalar> 
46
(
-3.24345e-23
4.35361e-23
1.91743e-22
2.80138e-22
5.32182e-22
1.49016e-21
7.81182e-22
2.31309e-22
5.22911e-23
9.61775e-24
1.03678e-24
-5.55364e-42
-4.04185e-23
-2.19914e-22
-5.78306e-22
-8.97908e-22
-9.0499e-22
-6.31613e-22
-3.16771e-22
-1.12012e-22
-2.70726e-23
-4.22214e-24
-3.69729e-25
0
0
0
0
0
0
0
0
0
0
0
0
0
0
0
0
0
0
0
0
0
0
0
)
;
    }
    defaultFaces
    {
        type            empty;
    }
}


// ************************************************************************* //
