/*--------------------------------*- C++ -*----------------------------------*\
| =========                 |                                                 |
| \\      /  F ield         | OpenFOAM: The Open Source CFD Toolbox           |
|  \\    /   O peration     | Version:  2206                                  |
|   \\  /    A nd           | Website:  www.openfoam.com                      |
|    \\/     M anipulation  |                                                 |
\*---------------------------------------------------------------------------*/
FoamFile
{
    version     2.0;
    format      ascii;
    arch        "LSB;label=32;scalar=64";
    class       volScalarField;
    location    "0.925";
    object      p;
}
// * * * * * * * * * * * * * * * * * * * * * * * * * * * * * * * * * * * * * //

dimensions      [1 -1 -2 0 0 0 0];

internalField   nonuniform List<scalar> 
2268
(
1061.02
1056
1050.74
1046.61
1044.83
1045.97
1050.3
1057.51
1065.55
1071.61
1072.87
1066.22
1049.11
1026.76
1004.65
984.66
969.834
961.306
952.197
939.863
927.407
915.46
909.817
1003.48
997.552
990.846
985.759
984.21
986.072
991.052
998.682
1007.12
1013.54
1015.17
1009.21
993.752
971.722
947.592
924.503
909.658
902.026
892.564
879.772
866.838
854.774
849.463
945.884
938.382
929.272
923.351
922.922
925.635
930.989
939.257
948.811
956.587
959.271
954.079
940.303
917.725
891.046
867.171
851.829
842.223
831.553
818.04
804.267
791.793
786.828
886.834
877.601
866.29
859.582
860.341
864.418
870.469
879.587
890.823
900.8
905.355
900.897
885.768
861.598
833.694
809.365
793.147
781.636
769.454
755.041
740.22
726.838
721.644
826.106
815.359
802.272
794.768
797.046
802.641
809.426
819.572
833.049
846.046
853.296
850.029
832.681
804.507
774.104
749.327
733.027
720.79
707.437
691.741
675.923
660.915
654.886
764.851
752.393
737.824
729.484
733.351
740.418
747.617
758.879
775.223
792.213
802.967
801.347
780.656
746.204
711.86
687.15
672.014
660.048
645.634
628.244
611.539
594.462
588.36
704.393
689.571
673.849
665.06
671.044
677.682
684.36
696.956
717.011
739.31
754.615
755.533
729.168
685.727
646.648
623.134
610.753
599.868
584.279
564.786
546.365
528.63
521.377
646.295
627.724
610.932
601.779
606.609
612.354
617.942
632.607
657.542
687.308
708.556
712.029
677.953
622.291
576.802
556.482
549.686
541.23
525.075
502.677
480.79
464.826
451.521
479.831
471.426
456.064
423.765
394.452
392.574
425.07
476.601
517.317
541.145
548.46
532.921
498.303
469.937
368.78
342.378
464.292
625.456
648.005
438.848
432.91
419.772
384.972
351.448
349.919
392.425
449.659
487.934
492.382
487.536
479.79
433.061
376.767
254.43
241.09
362.247
533.746
583.801
394.853
387.529
370.469
324.41
291.326
296.389
346.883
415.955
455.496
455.112
455.253
462.949
415.585
298.381
187.585
189.711
306.225
453.102
518.059
349.59
328.123
290.088
237.158
210.737
228.333
282.018
369.171
408.297
418.029
423.832
430.972
392.18
263.606
155.035
156.038
271.49
386.403
447.036
302.11
264.823
209.94
183.384
175.611
182.14
225.297
319.417
351.435
371.584
385.692
387.247
367.06
250.504
151.017
147.984
235.373
317.832
366.648
260.486
208.114
179.93
172.141
170.492
174.535
199.803
277.57
295.44
319.919
338.924
341.199
335.693
248.441
173.063
162.398
208.096
244.336
277.395
229.735
187.215
172.862
168.219
168.045
173.228
189.252
242.789
250.119
274.456
294.684
300.459
299.435
250.488
196.592
175.222
184.844
177.836
202.78
210.592
182.071
169.107
164.982
165.649
171.577
185
209.996
217.43
237.958
255.554
263.162
266.27
250.737
210.459
183.077
161.215
126.404
145.478
556.306
532.149
514.87
510.227
509.417
505.251
507.591
528.185
563.401
607.866
638.657
655.605
606.484
521.123
464.13
451.263
455.385
453.181
437.679
406.389
371.287
346.083
326.172
458.862
422.931
394.912
384.517
370.045
344.905
333.863
363.504
421.737
516.543
637.491
640.749
524.348
398.64
345.759
340.87
349.922
345.968
316.082
258.461
191.656
139.467
131.895
303.395
249.033
244.838
252.067
221.415
160.598
144.215
179.966
231.522
305.584
417.712
443.752
373.355
291.665
256.865
256.128
259.189
234.096
184.108
117.927
39.6753
-34.2143
-72.9688
218.718
117.02
102.538
106.076
81.1305
48.7291
41.5957
44.2677
44.4045
46.7245
73.8966
147.321
169.717
165.831
157.69
154.326
149.629
119.737
94.5709
75.5693
58.979
51.6655
56.8292
279.424
111.975
49.0443
32.2473
26.3992
22.2644
24.0984
20.7528
10.1688
5.47164
5.63899
13.7052
38.0797
75.575
95.2173
76.2791
64.3542
52.588
46.5704
43.0993
42.3145
46.605
50.9102
246.398
53.6531
13.1888
5.29737
4.17823
7.40162
11.6913
9.95399
2.34025
-0.752896
-1.29142
-1.4075
3.25622
21.0062
46.2005
46.4706
43.2992
39.8418
33.0056
28.9168
31.0836
40.6497
48.4808
79.4848
13.4329
3.02787
0.225996
-0.41524
-0.327341
0.276166
-0.53861
-1.24302
-2.20689
-2.48086
-2.59189
-3.11469
-3.84548
5.28721
29.6327
35.4674
34.7121
27.9353
21.381
19.7018
27.0856
35.3214
14.5441
0.426696
-0.455848
-1.29318
-1.61283
-1.83822
-2.15072
-2.4524
-2.4268
-2.7397
-2.91197
-3.07054
-3.29771
-3.39661
-1.27847
16.299
21.5538
22.4583
21.1702
18.0124
11.3633
14.7968
17.8616
3.39896
-1.5204
-1.34246
-1.82051
-2.01244
-2.19903
-2.42314
-2.70985
-2.96504
-3.18935
-3.38905
-3.53968
-3.72195
-3.85497
-3.22102
4.30696
12.3865
21.9143
25.5517
28.442
11.1685
4.36078
5.69792
1.2552
-1.75208
-1.58137
-2.1223
-2.27168
-2.50368
-2.73772
-2.97942
-3.24635
-3.52371
-3.76371
-3.93705
-4.09234
-4.21715
-4.32319
-4.5538
-2.58007
6.49526
14.4646
5.16464
1.86314
1.15961
1.51448
1.36558
-2.40004
-1.8425
-2.46453
-2.56647
-2.82971
-3.07363
-3.31391
-3.54635
-3.79091
-4.01911
-4.20531
-4.3671
-4.49738
-4.60541
-4.65173
-4.25506
-2.45521
1.51262
1.7663
0.633921
-0.027807
-0.658889
2.43593
-3.30091
-2.18947
-2.81231
-2.90318
-3.17667
-3.40257
-3.61307
-3.80224
-3.99311
-4.18319
-4.35776
-4.51525
-4.64994
-4.7261
-4.70872
-4.46106
-3.68552
-2.30405
-0.90349
-0.539802
-0.8322
-1.20951
3.91833
-3.0729
-2.67154
-3.11767
-3.24936
-3.54147
-3.75877
-3.92427
-4.04523
-4.16116
-4.28517
-4.41073
-4.52766
-4.62238
-4.6653
-4.63289
-4.48417
-4.20641
-3.46123
-2.12955
-1.19085
-1.08721
-1.34448
-3.37126
-3.32018
-2.90827
-3.36892
-3.64339
-4.00495
-4.23512
-4.34487
-4.37046
-4.38403
-4.41382
-4.45737
-4.50347
-4.53336
-4.55008
-4.50215
-4.38758
-4.25293
-3.99777
-3.21188
-2.13126
-1.21031
-1.45269
-3.02736
-3.24035
-3.28228
-3.77824
-4.2445
-4.75059
-5.03497
-5.05808
-4.90895
-4.75329
-4.6421
-4.57534
-4.53294
-4.50951
-4.46528
-4.38945
-4.27297
-4.14829
-4.01765
-3.74189
-2.60745
-1.39855
-1.75564
-2.88174
-3.3845
-3.71036
-4.40063
-5.22231
-6.03611
-6.4336
-6.31367
-5.87215
-5.39706
-5.01379
-4.77043
-4.61816
-4.51635
-4.42349
-4.32025
-4.1993
-4.06576
-3.96391
-3.84565
-2.99488
-2.47331
-2.49977
-2.80553
-3.38239
-4.13783
-5.18886
-6.5475
-7.97518
-8.62555
-8.26732
-7.27715
-6.21402
-5.43851
-4.96964
-4.69629
-4.53151
-4.3944
-4.26796
-4.13787
-3.99781
-3.87893
-3.74244
-3.40531
-3.2468
-3.1595
-2.98273
-3.35646
-4.46186
-5.88404
-7.6496
-9.56552
-10.5174
-10.0435
-8.5999
-6.90836
-5.73595
-5.0921
-4.73256
-4.51375
-4.35419
-4.21815
-4.08761
-3.94957
-3.82796
-3.71296
-3.6048
-3.37049
-3.40322
-3.42269
-3.64536
-4.60332
-6.18267
-8.06508
-9.94263
-10.9128
-10.5119
-8.98015
-7.12315
-5.77505
-5.05197
-4.67466
-4.45286
-4.29771
-4.17046
-4.0532
-3.93546
-3.83903
-3.70512
-3.52793
-3.40774
-3.48519
-3.96697
-4.0611
-4.68265
-6.00692
-7.55977
-8.9975
-9.73346
-9.38059
-8.13706
-6.59452
-5.46233
-4.84482
-4.5354
-4.35773
-4.23365
-4.13245
-4.04158
-3.95592
-3.89558
-3.80602
-3.67048
-3.521
-3.60478
-4.47245
-4.56666
-5.04326
-5.8309
-6.60752
-7.30052
-7.64566
-7.364
-6.51732
-5.60927
-4.92476
-4.54811
-4.3621
-4.25517
-4.17763
-4.11239
-4.05488
-4.00886
-3.9856
-4.00573
-3.92338
-3.69408
-3.7295
-4.86538
-5.06735
-5.49266
-5.8991
-5.93436
-5.81729
-5.68765
-5.42733
-5.0245
-4.6426
-4.40734
-4.27451
-4.21072
-4.17322
-4.14238
-4.11366
-4.08971
-4.08085
-4.09496
-4.19354
-4.17323
-3.95073
-3.86527
-5.05187
-5.27974
-5.7229
-5.93033
-5.63583
-5.00872
-4.50151
-4.23797
-4.11645
-4.0676
-4.07401
-4.09646
-4.11476
-4.12752
-4.13317
-4.13426
-4.1368
-4.15179
-4.18706
-4.28182
-4.38402
-4.29779
-4.10652
-5.0503
-5.20728
-5.51135
-5.60332
-5.28536
-4.61896
-4.07397
-3.83077
-3.78776
-3.84396
-3.94079
-4.01977
-4.07726
-4.1187
-4.14715
-4.16769
-4.18691
-4.21359
-4.2577
-4.34683
-4.48247
-4.54515
-4.41799
-4.95294
-5.03204
-5.15975
-5.14987
-4.87212
-4.38793
-3.99151
-3.79415
-3.7691
-3.84327
-3.93786
-4.021
-4.08815
-4.13972
-4.17843
-4.20853
-4.23529
-4.2648
-4.30495
-4.36937
-4.47834
-4.58535
-4.60042
-4.85025
-4.86887
-4.87894
-4.79956
-4.57778
-4.28301
-4.03169
-3.89861
-3.88256
-3.9307
-4.00011
-4.07022
-4.13169
-4.18207
-4.22217
-4.25427
-4.28158
-4.30758
-4.33646
-4.37179
-4.42421
-4.4892
-4.51911
-4.78406
-4.77774
-4.74208
-4.64512
-4.47792
-4.28424
-4.12813
-4.04167
-4.02184
-4.04638
-4.09312
-4.14588
-4.19588
-4.23946
-4.27566
-4.30501
-4.32892
-4.34894
-4.3667
-4.38224
-4.396
-4.40879
-4.40748
-4.75446
-4.74115
-4.69763
-4.61296
-4.49247
-4.35442
-4.24877
-4.18351
-4.16059
-4.17011
-4.19868
-4.23535
-4.27304
-4.30775
-4.33757
-4.36191
-4.38094
-4.39507
-4.40469
-4.40942
-4.40769
-4.39893
-4.38238
-4.75224
-4.73773
-4.69884
-4.63307
-4.53809
-4.44544
-4.36807
-4.31645
-4.29299
-4.29275
-4.30807
-4.33178
-4.35838
-4.38421
-4.40704
-4.42571
-4.43971
-4.44888
-4.4531
-4.4522
-4.44548
-4.43217
-4.4101
-4.771
-4.75739
-4.72527
-4.6728
-4.60618
-4.53881
-4.48099
-4.43971
-4.41715
-4.41121
-4.41756
-4.4315
-4.44897
-4.46691
-4.48319
-4.49645
-4.50587
-4.51099
-4.51148
-4.50708
-4.49734
-4.48161
-4.45899
-4.80671
-4.79494
-4.76961
-4.72976
-4.68135
-4.63181
-4.58801
-4.55477
-4.5341
-4.52524
-4.52577
-4.53267
-4.54305
-4.55449
-4.56513
-4.57366
-4.57915
-4.58102
-4.57882
-4.57224
-4.561
-4.54487
-4.52397
-4.85618
-4.84645
-4.82676
-4.79691
-4.76117
-4.72427
-4.69072
-4.66392
-4.64554
-4.63547
-4.63241
-4.63443
-4.63955
-4.64591
-4.652
-4.65665
-4.65897
-4.65834
-4.65433
-4.64665
-4.63516
-4.61987
-4.60101
-4.91661
-4.9085
-4.89339
-4.87108
-4.84446
-4.81666
-4.79073
-4.76908
-4.75305
-4.7428
-4.73767
-4.73648
-4.73786
-4.74045
-4.74307
-4.74472
-4.74462
-4.74221
-4.73709
-4.72903
-4.71795
-4.70393
-4.68713
-4.98547
-4.97874
-4.96722
-4.95053
-4.93056
-4.90942
-4.88923
-4.87171
-4.8579
-4.84808
-4.84195
-4.83878
-4.83766
-4.83761
-4.83771
-4.83719
-4.83538
-4.83179
-4.82608
-4.81806
-4.80768
-4.79505
-4.78034
-5.06088
-5.05534
-5.04659
-5.03408
-5.01901
-5.00283
-4.98702
-4.97285
-4.9611
-4.95207
-4.94564
-4.94141
-4.93875
-4.93698
-4.93541
-4.93342
-4.93049
-4.92621
-4.9203
-4.91261
-4.90312
-4.89193
-4.87922
-5.14138
-5.13687
-5.13025
-5.12086
-5.10946
-5.09703
-5.08466
-5.07324
-5.06337
-5.05534
-5.04911
-5.04447
-5.04101
-5.03824
-5.03567
-5.03282
-5.02927
-5.02471
-5.01891
-5.01177
-5.00327
-4.99354
-4.9827
-5.22584
-5.22221
-5.21724
-5.21024
-5.20163
-5.19212
-5.18249
-5.17338
-5.16525
-5.15831
-5.15263
-5.14806
-5.14434
-5.14115
-5.13811
-5.13487
-5.13113
-5.12663
-5.1212
-5.11476
-5.10733
-5.09901
-5.08995
-5.31341
-5.31052
-5.30685
-5.3017
-5.29528
-5.2881
-5.28072
-5.2736
-5.26707
-5.26131
-5.25638
-5.25222
-5.24866
-5.24546
-5.24238
-5.23916
-5.23556
-5.2314
-5.22655
-5.22097
-5.21466
-5.20775
-5.2004
-5.40335
-5.40109
-5.39849
-5.39482
-5.39016
-5.38491
-5.37944
-5.37407
-5.36904
-5.36449
-5.36048
-5.35697
-5.35387
-5.35101
-5.34822
-5.34532
-5.34215
-5.33857
-5.3345
-5.3299
-5.3248
-5.31932
-5.31364
-5.49514
-5.49343
-5.49172
-5.48927
-5.4861
-5.4825
-5.47871
-5.47494
-5.47135
-5.46804
-5.46505
-5.46238
-5.45995
-5.45768
-5.45544
-5.45312
-5.45062
-5.44783
-5.44471
-5.44124
-5.43745
-5.43345
-5.42942
-5.58805
-5.58682
-5.58593
-5.58456
-5.5827
-5.58058
-5.57834
-5.57608
-5.57391
-5.57188
-5.57002
-5.56833
-5.56677
-5.56529
-5.56383
-5.56231
-5.56069
-5.5589
-5.55691
-5.55471
-5.55235
-5.5499
-5.54752
-5.68242
-5.6819
-5.68157
-5.6811
-5.68047
-5.67976
-5.67898
-5.67818
-5.67739
-5.67664
-5.67594
-5.67527
-5.67465
-5.67404
-5.67343
-5.6728
-5.67212
-5.67139
-5.67058
-5.66969
-5.66872
-5.66771
-5.66672
290.937
373.447
444.496
388.372
149.109
267.997
364.145
348.044
-7.72335
125.634
231.737
240.672
58.6734
73.2121
106.957
120.988
49.6961
47.6989
43.1955
52.7152
45.9903
37.8077
27.7926
33.0004
33.8646
28.7164
22.6143
27.593
23.1596
21.4286
17.3754
16.3
10.2194
11.0066
7.53177
0.949204
1.36293
0.638336
-1.98264
-3.09792
-1.22208
-2.015
-3.43228
-4.11508
-1.45743
-2.43538
-4.05457
-4.7306
-1.59835
-2.7504
-4.42392
-5.02888
-1.77828
-2.86654
-4.38923
-5.68131
-2.18814
-2.98682
-3.72525
-4.35732
-2.92191
-3.40687
-3.38094
-3.19893
-3.5703
-3.86402
-3.60108
-3.09332
-3.77933
-3.95015
-3.63036
-3.12294
-3.75883
-3.87409
-3.62575
-3.23124
-3.74755
-3.80811
-3.66365
-3.36815
-3.87059
-3.93739
-3.81801
-3.52414
-4.06139
-4.10955
-3.97329
-3.66218
-4.18827
-4.25436
-4.10273
-3.7788
-4.34003
-4.43666
-4.20412
-3.86717
-4.49032
-4.47868
-4.22756
-3.91661
-4.47686
-4.38282
-4.17729
-3.94142
-4.37645
-4.29273
-4.15119
-3.98875
-4.34684
-4.27474
-4.17437
-4.0621
-4.37294
-4.31214
-4.2351
-4.15056
-4.42448
-4.37315
-4.312
-4.24642
-4.49342
-4.45009
-4.40061
-4.34838
-4.57427
-4.53764
-4.4971
-4.45495
-4.66394
-4.6331
-4.59977
-4.56553
-4.76045
-4.73462
-4.70724
-4.67943
-4.86236
-4.84091
-4.8186
-4.79631
-4.96857
-4.95105
-4.93328
-4.91592
-5.07837
-5.06446
-5.05088
-5.03808
-5.19124
-5.18076
-5.17113
-5.16254
-5.30683
-5.29962
-5.29369
-5.28904
-5.42481
-5.42064
-5.41824
-5.41737
-5.54471
-5.54349
-5.54469
-5.54755
-5.66645
-5.66856
-5.67342
-5.67998
228.867
176.679
163.196
161.452
162.147
165.711
176.198
190.353
204.094
210.924
210.317
205.763
212.295
229.421
234.837
172.299
101.801
72.6241
79.0528
230.279
167.116
158.935
156.784
153.926
151.005
153.551
163.108
175.98
176.681
157.232
132.06
117.107
113.583
72.1543
20.3014
9.71218
17.8865
37.4023
193.023
164.371
157.218
151.612
145.7
142.032
139.938
137.438
131.765
121.621
101.704
67.0367
32.7387
14.7286
7.53192
5.85055
5.03871
4.8564
5.87928
147.218
158.73
154.999
147.839
142.073
139.167
132.82
111.166
76.6984
46.7065
18.6635
13.3053
1.3989
2.22439
3.89779
4.03058
3.68453
3.53211
4.67231
102.967
131.421
147.915
143.36
140.968
134.525
112.096
68.9278
30.0691
23.4232
4.58586
-0.481544
0.525131
1.98904
3.00503
3.24951
3.01441
2.8743
3.43177
63.9427
85.8426
127.907
139.912
130.294
100.263
56.8687
24.7055
4.93889
1.94684
0.328026
-0.170684
-0.011743
0.864243
1.95802
2.315
2.32333
2.40666
2.44576
24.912
15.539
69.7637
127.057
88.5579
31.5619
2.46745
2.16678
2.56814
1.94277
1.05484
0.158027
-0.419841
-0.0882778
0.996617
1.53374
1.72571
1.89349
1.89994
10.4474
6.78738
5.72581
69.9895
63.9246
-0.489035
1.81569
2.13186
1.86382
1.35754
0.796531
0.233819
-0.138237
0.122287
0.743896
1.11044
1.27294
1.39845
1.4375
0.55216
-0.780366
-2.48033
12.993
47.4198
1.02143
1.83957
2.214
1.60327
1.07553
0.615658
0.342153
0.23598
0.298863
0.527708
0.798133
0.905526
0.999281
1.04172
-3.01666
-3.29961
-3.65552
-3.31348
28.8212
-0.972638
2.48102
1.88454
1.14885
0.678029
0.436455
0.342895
0.27597
0.278442
0.382776
0.521135
0.602779
0.672967
0.703902
-4.1248
-4.01588
-3.71001
-3.40503
-3.34388
-10.3123
1.65608
0.922977
0.489689
0.316166
0.233212
0.190785
0.161136
0.156968
0.206494
0.274822
0.329328
0.379627
0.392687
-4.54172
-4.11883
-3.36803
-3.30142
-5.68154
-5.59469
-0.772228
-0.0979278
-0.0206518
-0.0329451
-0.0655109
-0.0820713
-0.0730458
-0.0595786
-0.00156527
0.0372113
0.0738307
0.109771
0.107087
-4.60902
-4.01048
-3.23935
-3.21943
-4.2023
-4.98994
-2.06219
-0.773992
-0.52788
-0.428273
-0.399938
-0.368398
-0.335152
-0.300173
-0.242436
-0.206157
-0.176982
-0.152531
-0.16512
-5.50495
-4.67598
-3.85032
-2.9288
-3.05372
-2.55783
-1.78086
-1.15457
-0.945727
-0.794129
-0.708646
-0.654587
-0.612357
-0.569494
-0.519653
-0.476037
-0.433113
-0.422943
-0.441849
-4.56947
-3.78592
-2.69357
-2.42711
-2.04725
-1.66817
-1.39251
-1.25201
-1.15346
-1.03948
-0.971799
-0.924578
-0.886859
-0.840358
-0.806823
-0.771609
-0.709383
-0.690031
-0.723685
-2.95204
-2.67209
-2.34361
-2.06742
-1.77647
-1.47959
-1.3025
-1.29684
-1.31045
-1.26228
-1.22344
-1.18896
-1.16226
-1.11593
-1.08691
-1.06106
-1.00578
-0.961816
-1.00791
-2.67752
-2.38288
-2.17896
-2.01932
-1.82291
-1.65928
-1.55263
-1.52278
-1.52724
-1.50019
-1.4696
-1.44918
-1.43609
-1.40512
-1.36902
-1.35912
-1.33304
-1.26807
-1.28654
-2.7849
-2.57119
-2.3966
-2.25185
-2.1069
-1.98101
-1.88516
-1.82843
-1.79278
-1.75378
-1.72367
-1.70447
-1.69691
-1.68787
-1.6443
-1.66199
-1.67038
-1.59985
-1.55144
-2.94773
-2.7701
-2.61874
-2.49059
-2.37706
-2.26947
-2.18719
-2.1209
-2.05222
-2.00176
-1.96583
-1.94228
-1.93638
-1.94273
-1.91045
-1.92574
-1.96451
-1.89652
-1.79151
-3.10272
-2.92523
-2.78433
-2.66944
-2.56993
-2.47973
-2.39776
-2.32154
-2.2522
-2.20104
-2.16952
-2.1534
-2.14891
-2.1596
-2.14949
-2.15871
-2.1871
-2.13921
-2.00929
-3.25545
-3.07702
-2.93518
-2.82045
-2.72291
-2.63572
-2.55682
-2.48646
-2.42768
-2.38505
-2.35894
-2.34593
-2.33906
-2.34149
-2.34163
-2.3487
-2.38388
-2.32463
-2.22938
-3.39525
-3.22036
-3.08197
-2.97116
-2.8777
-2.7955
-2.72259
-2.65898
-2.6061
-2.56697
-2.5418
-2.52759
-2.51697
-2.50946
-2.50489
-2.50609
-2.53883
-2.475
-2.42417
-3.51814
-3.35168
-3.22294
-3.12013
-3.03363
-2.95799
-2.89107
-2.83275
-2.78409
-2.74648
-2.72004
-2.70256
-2.68768
-2.67241
-2.65866
-2.64571
-2.64709
-2.60076
-2.56214
-3.62229
-3.47184
-3.35773
-3.26569
-3.18741
-3.11864
-3.05758
-3.004
-2.9585
-2.92183
-2.89393
-2.87298
-2.85382
-2.83224
-2.80878
-2.7835
-2.75453
-2.71843
-2.67652
-3.70825
-3.58412
-3.48831
-3.40861
-3.33917
-3.27728
-3.22175
-3.17239
-3.12951
-3.09348
-3.06436
-3.04053
-3.01784
-2.99178
-2.96165
-2.93022
-2.89016
-2.84808
-2.80797
-3.78867
-3.69528
-3.61742
-3.54941
-3.48854
-3.43334
-3.38313
-3.33778
-3.29747
-3.2624
-3.23257
-3.20682
-3.18166
-3.15294
-3.11957
-3.08563
-3.04891
-2.99456
-2.95484
-3.88019
-3.80933
-3.74571
-3.68781
-3.6349
-3.58622
-3.54134
-3.50017
-3.46286
-3.42952
-3.40008
-3.37364
-3.34719
-3.31714
-3.28244
-3.24655
-3.21572
-3.15744
-3.11687
-3.98121
-3.92504
-3.87258
-3.82362
-3.77816
-3.73585
-3.69642
-3.65986
-3.62629
-3.59582
-3.56831
-3.54285
-3.51658
-3.48587
-3.44983
-3.41057
-3.37559
-3.33408
-3.28907
-4.08689
-4.04133
-3.99808
-3.95708
-3.91853
-3.88235
-3.84847
-3.81699
-3.78805
-3.76183
-3.7383
-3.71627
-3.69255
-3.66241
-3.62454
-3.5807
-3.53606
-3.49849
-3.46016
-4.19562
-4.15847
-4.12283
-4.0887
-4.05636
-4.02595
-3.9976
-3.97157
-3.94813
-3.92773
-3.91087
-3.89606
-3.87933
-3.85408
-3.81514
-3.76599
-3.71428
-3.66525
-3.64001
-4.30727
-4.27679
-4.24735
-4.21905
-4.19219
-4.16709
-4.14414
-4.12379
-4.10662
-4.09386
-4.08711
-4.08488
-4.0825
-4.06745
-4.02903
-3.97296
-3.91263
-3.86627
-3.8476
-4.42148
-4.3964
-4.3721
-4.34875
-4.32669
-4.30639
-4.28848
-4.27373
-4.26324
-4.25982
-4.26672
-4.28318
-4.30156
-4.29836
-4.25961
-4.19425
-4.12117
-4.08203
-4.0655
-4.53817
-4.51754
-4.49759
-4.4785
-4.46059
-4.44442
-4.4308
-4.42077
-4.41616
-4.42183
-4.4431
-4.48046
-4.51935
-4.52488
-4.48031
-4.40105
-4.32824
-4.29586
-4.28006
-4.65721
-4.64044
-4.6243
-4.60891
-4.59449
-4.58161
-4.57108
-4.56401
-4.56272
-4.5733
-4.60249
-4.65162
-4.7018
-4.71074
-4.66524
-4.57522
-4.52162
-4.50359
-4.49071
-4.77863
-4.76533
-4.75256
-4.74035
-4.72883
-4.71844
-4.70982
-4.70393
-4.70284
-4.71201
-4.73853
-4.78372
-4.82824
-4.83274
-4.79056
-4.72974
-4.70038
-4.68515
-4.66959
-4.90237
-4.89222
-4.88245
-4.873
-4.86394
-4.85557
-4.84833
-4.84285
-4.84048
-4.84422
-4.8608
-4.89058
-4.91998
-4.92222
-4.89344
-4.85919
-4.85091
-4.83809
-4.8247
-5.02831
-5.021
-5.01391
-5.00698
-5.00022
-4.99381
-4.98804
-4.9832
-4.97973
-4.97941
-4.98542
-4.99838
-5.01049
-5.0115
-5.00342
-4.99231
-4.98035
-4.96915
-4.96291
-5.15623
-5.15154
-5.14697
-5.14246
-5.13799
-5.13366
-5.12962
-5.12595
-5.12269
-5.12053
-5.12065
-5.12336
-5.12611
-5.12594
-5.12303
-5.11877
-5.11381
-5.10869
-5.10576
-5.28598
-5.28378
-5.28166
-5.27953
-5.27731
-5.27503
-5.27269
-5.27029
-5.26777
-5.26538
-5.26348
-5.26217
-5.26108
-5.25983
-5.25831
-5.25621
-5.25342
-5.25044
-5.24834
-5.41743
-5.41763
-5.41785
-5.41797
-5.41786
-5.41746
-5.41666
-5.41538
-5.41354
-5.41124
-5.40864
-5.40595
-5.40344
-5.40119
-5.39905
-5.39687
-5.39475
-5.39287
-5.39087
-5.55063
-5.55316
-5.55565
-5.55795
-5.55991
-5.56136
-5.5621
-5.56193
-5.56077
-5.55848
-5.55527
-5.55149
-5.54769
-5.54428
-5.54135
-5.53886
-5.53681
-5.53531
-5.53341
-5.68617
-5.69112
-5.69603
-5.70074
-5.70503
-5.70864
-5.71125
-5.71252
-5.7122
-5.70996
-5.70594
-5.70056
-5.69476
-5.68949
-5.68517
-5.68184
-5.67939
-5.67785
-5.6759
)
;

boundaryField
{
    leftWall
    {
        type            calculated;
        value           nonuniform List<scalar> 
50
(
1061.02
1003.48
945.884
886.834
826.106
764.851
704.393
646.295
556.306
458.862
303.395
218.718
279.424
246.398
79.4848
14.5441
3.39896
1.2552
1.36558
2.43593
3.91833
-3.37126
-3.02736
-2.88174
-2.80553
-2.98273
-3.42269
-3.96697
-4.47245
-4.86538
-5.05187
-5.0503
-4.95294
-4.85025
-4.78406
-4.75446
-4.75224
-4.771
-4.80671
-4.85618
-4.91661
-4.98547
-5.06088
-5.14138
-5.22584
-5.31341
-5.40335
-5.49514
-5.58805
-5.68242
)
;
    }
    rightWall
    {
        type            calculated;
        value           nonuniform List<scalar> 
50
(
648.005
583.801
518.059
447.036
366.648
277.395
202.78
145.478
79.0528
37.4023
5.87928
4.67231
3.43177
2.44576
1.89994
1.4375
1.04172
0.703902
0.392687
0.107087
-0.16512
-0.441849
-0.723685
-1.00791
-1.28654
-1.55144
-1.79151
-2.00929
-2.22938
-2.42417
-2.56214
-2.67652
-2.80797
-2.95484
-3.11687
-3.28907
-3.46016
-3.64001
-3.8476
-4.0655
-4.28006
-4.49071
-4.66959
-4.8247
-4.96291
-5.10576
-5.24834
-5.39087
-5.53341
-5.6759
)
;
    }
    lowerWall
    {
        type            calculated;
        value           nonuniform List<scalar> 
62
(
1090.45
1085.43
1080.17
1076.04
1074.26
1075.4
1079.73
1086.94
1094.98
1101.04
1102.3
1095.65
1078.35
1055.55
1033.39
1013.83
999.002
990.35
980.971
968.701
956.682
944.881
939.241
909.817
849.463
786.828
721.644
654.886
588.36
521.377
451.521
353.532
436.042
507.092
436.163
479.831
438.848
394.853
349.59
302.11
260.486
229.735
210.592
496.72
488.315
473.458
441.453
412.135
409.468
438.158
489.869
535.572
567.396
574.712
559.172
524.554
496.188
394.473
364.994
488.256
649.466
672.015
)
;
    }
    atmosphere
    {
        type            calculated;
        value           nonuniform List<scalar> 
46
(
-5.72904
-5.72904
-5.72904
-5.72904
-5.72904
-5.72904
-5.72904
-5.72904
-5.72904
-5.72904
-5.72904
-5.72904
-5.72904
-5.72904
-5.72904
-5.72904
-5.72904
-5.72904
-5.72904
-5.72904
-5.72904
-5.72904
-5.72904
-5.7294
-5.73266
-5.73904
-5.74747
-5.75537
-5.76168
-5.76801
-5.77416
-5.7799
-5.78493
-5.78884
-5.79114
-5.79144
-5.78931
-5.78463
-5.77782
-5.77015
-5.76326
-5.75783
-5.75381
-5.75103
-5.74953
-5.74712
)
;
    }
    defaultFaces
    {
        type            empty;
    }
}


// ************************************************************************* //
