/*--------------------------------*- C++ -*----------------------------------*\
| =========                 |                                                 |
| \\      /  F ield         | OpenFOAM: The Open Source CFD Toolbox           |
|  \\    /   O peration     | Version:  2206                                  |
|   \\  /    A nd           | Website:  www.openfoam.com                      |
|    \\/     M anipulation  |                                                 |
\*---------------------------------------------------------------------------*/
FoamFile
{
    version     2.0;
    format      ascii;
    arch        "LSB;label=32;scalar=64";
    class       volScalarField;
    location    "0.925";
    object      p_rgh;
}
// * * * * * * * * * * * * * * * * * * * * * * * * * * * * * * * * * * * * * //

dimensions      [1 -1 -2 0 0 0 0];

internalField   nonuniform List<scalar> 
2268
(
1090.45
1085.43
1080.17
1076.04
1074.26
1075.4
1079.73
1086.94
1094.98
1101.04
1102.3
1095.65
1078.35
1055.55
1033.39
1013.83
999.002
990.35
980.971
968.701
956.682
944.881
939.241
1091.76
1085.84
1079.13
1074.05
1072.5
1074.36
1079.34
1086.97
1095.41
1101.83
1103.46
1097.22
1078.15
1055.53
1031.4
1008.76
994.436
987.127
978.292
966.331
953.942
943.052
937.736
1093.03
1085.53
1076.42
1070.5
1070.07
1072.78
1078.14
1086.4
1095.96
1103.73
1106.42
1101.21
1084.94
1057.55
1030.73
1006.86
995.133
988.762
978.7
965.187
951.413
938.94
933.95
1092.84
1083.61
1072.3
1065.59
1066.35
1070.42
1076.47
1085.59
1096.83
1106.81
1111.36
1106.9
1091.63
1066.47
1037.72
1014.72
999.153
987.642
975.459
961.046
946.225
932.844
927.627
1090.97
1080.22
1067.14
1059.63
1061.91
1067.51
1074.29
1084.44
1097.91
1110.91
1118.16
1114.89
1097.55
1069.37
1038.97
1014.19
997.891
985.654
972.302
956.605
940.788
925.779
919.748
1088.57
1076.12
1061.55
1053.21
1057.07
1064.14
1071.34
1082.6
1098.95
1115.94
1126.69
1125.07
1104.38
1069.93
1035.58
1010.87
995.737
983.77
969.357
951.967
935.262
918.184
912.082
1086.98
1072.15
1056.43
1047.64
1053.59
1060.2
1066.94
1079.54
1099.59
1121.89
1137.2
1138.11
1111.75
1068.31
1029.23
1005.72
993.334
982.449
966.86
947.367
928.946
911.211
903.954
1087.74
1069.16
1052.37
1043.22
1047.99
1053.57
1059.26
1074.05
1098.98
1128.75
1150
1153.47
1119.38
1063.7
1018.23
997.918
991.123
982.667
966.503
943.983
920.995
905.773
892.951
496.72
488.315
473.458
441.453
412.135
409.468
438.158
489.869
535.572
567.396
574.712
559.172
524.554
496.188
394.473
364.994
488.256
649.466
672.015
489.514
484.878
472.812
438.024
404.502
391.054
431.616
488.922
528.369
569.093
566.29
558.543
511.814
451.372
291.647
273.503
414.885
603.189
655.831
480.02
475.711
458.828
412.811
374.451
346.475
431.073
503.806
523.434
533.339
581.054
594.174
540.746
363.46
228.968
231.217
347.879
551.7
638.115
472.918
451.468
413.517
360.651
317.799
294.03
400.316
539.648
530.426
527.501
534.289
566.748
486.678
321.542
212.823
213.973
343.582
553.379
615.144
460.704
423.366
330.706
243.316
205.677
228.254
344.864
543.724
581.704
513.6
549.452
555.433
442.044
324.803
225.316
222.282
434.684
533.971
582.804
454.212
337.981
189.207
180.623
179.053
186.857
276.958
551.803
577.928
580.931
620.426
618.059
437.274
339.264
263.873
273.105
471.033
508.526
541.585
450.861
204.503
182.887
178.215
178.07
183.371
350.885
576.638
584.038
608.305
628.354
633.996
593.375
358.424
303.928
465.392
496.215
489.772
515.005
291.368
195.385
180.64
176.515
177.183
190.252
431.867
589.721
602.686
623.225
640.614
648.034
651.121
506.322
532.979
534.208
518.352
485.68
496.224
1089.77
1065.62
1048.34
1043.69
1042.88
1038.7
1041.04
1061.65
1096.87
1141.33
1172.12
1188.93
1126.39
1025.01
965.432
965.433
980.649
980.869
956.72
922.985
895.808
877.095
859.624
1117.51
1081.59
1053.57
1043.18
1028.71
1003.57
992.525
1022.17
1080.4
1175.2
1296.09
1255.65
1041.49
789.514
681.495
693.475
765.996
812.8
861.48
878.924
842.67
796.573
790.536
1078.9
1030.94
1028.69
1035.92
1005.27
895.792
705.926
767.127
912.133
933.148
910.661
966.864
985.071
690.301
655.281
654.545
657.782
763.6
927.926
869.912
803.333
744.624
710.548
1119.11
1025.54
1011.55
961.135
568.01
242.173
150.912
192.721
270.548
282.175
510.775
802.002
869.428
845.023
780.598
801.05
850.428
818.224
616.022
450.92
414.712
502.468
579.044
1303.87
1019.89
460.062
227.709
111.432
76.9459
65.1011
44.9418
17.9589
9.79896
15.6532
202.854
673.423
845.518
845.826
795.114
447.726
114.589
100.427
96.8916
96.2064
99.8926
101.756
1329.97
449.39
20.0609
9.61974
16.6131
69.3844
73.9958
44.8739
7.19151
1.25653
0.331709
1.11102
169.696
664.75
689.065
145.55
107.887
102.815
93.2888
89.3323
90.8217
95.8447
98.7331
1153.81
21.0751
5.9215
2.18611
1.43777
25.3673
55.7548
40.8601
2.40948
-0.540469
-1.03953
-0.793491
-0.326302
3.23818
181.822
279.761
112.653
106.185
98.2906
187.198
270.804
287.566
194.319
973.658
3.60526
1.43579
0.265652
-0.112285
-0.130066
2.97152
6.39183
3.926
-1.16688
-1.46108
-1.52046
-1.28219
0.847212
131.66
354.849
360.104
288.28
244.169
373.745
368.075
365.81
221.471
767.851
0.541212
0.333052
-0.252856
-0.461303
-0.640467
-0.84584
-1.10995
-0.863776
-1.44141
-1.84982
-1.99671
-2.15792
-2.16819
15.0208
263.661
381.001
389.23
400.804
408.425
247.292
76.2101
19.1136
831.348
0.0601287
0.114581
-0.45475
-0.608355
-0.838931
-1.06999
-1.30965
-1.57753
-1.85675
-2.10259
-2.27467
-2.43194
-2.5552
-2.66625
-2.84963
21.6571
176.256
206.029
36.0556
6.4607
5.02071
12.9606
926.17
-0.327256
-0.0491921
-0.677479
-0.780378
-1.04346
-1.28698
-1.52706
-1.7598
-2.0052
-2.23366
-2.41987
-2.58166
-2.71185
-2.81824
-2.85581
-2.41786
-0.441817
4.2383
9.66085
5.06712
3.81681
6.73473
992.437
-1.08669
-0.277165
-0.901294
-0.992387
-1.26586
-1.49174
-1.70225
-1.8915
-2.08247
-2.27257
-2.44715
-2.60464
-2.73933
-2.8152
-2.7948
-2.51529
0.0317235
21.1205
34.6701
26.7771
1.10893
0.731628
546.969
-0.453029
-0.635313
-1.08173
-1.21347
-1.50559
-1.7229
-1.88842
-2.0094
-2.12535
-2.24936
-2.37492
-2.49185
-2.58658
-2.6295
-2.59705
-2.43636
3.33109
36.9829
38.3146
39.2533
3.33212
0.723851
12.8351
-1.03781
-0.747127
-1.20784
-1.48233
-1.8439
-2.07408
-2.18385
-2.20945
-2.22302
-2.25281
-2.29637
-2.34247
-2.37236
-2.38908
-2.34116
-2.2266
-2.07633
8.82263
39.7194
40.3152
26.2839
0.734186
-0.689631
-0.953886
-0.996005
-1.49198
-1.95825
-2.46435
-2.74874
-2.77186
-2.62274
-2.46709
-2.3559
-2.28914
-2.24674
-2.22331
-2.17909
-2.10325
-1.98677
-1.86081
0.362786
38.4554
41.3528
38.0087
0.545785
-0.342528
-0.925429
-1.29871
-1.98916
-2.80927
-3.54322
-3.84327
-3.90224
-3.45036
-2.98561
-2.6024
-2.35904
-2.20677
-2.10497
-2.01211
-1.90886
-1.78791
-1.65438
-1.53885
5.66163
42.7999
24.4744
-0.0727769
0.206231
-0.409742
-1.59782
-2.65105
-4.00339
-4.76403
-4.98522
-4.5922
-4.11852
-3.67442
-2.90182
-2.43304
-2.15971
-1.99492
-1.85782
-1.73138
-1.60129
-1.46123
-1.33734
4.0951
23.7631
2.19608
-0.607607
-0.204651
0.0595425
-1.71488
-3.21852
-4.9727
-6.45347
-6.65803
-6.18413
-4.74053
-3.54634
-3.04041
-2.42972
-2.07078
-1.85198
-1.69241
-1.55637
-1.42583
-1.2878
-1.05124
0.00625734
-0.613265
-0.429173
-0.72572
-0.631198
-0.274475
-1.27095
-3.34511
-5.2522
-7.11911
-7.97428
-6.64062
-4.94591
-3.1069
-2.74829
-2.26426
-1.88764
-1.66589
-1.51074
-1.38349
-1.26623
-1.14849
-1.04316
1.51798
3.35101
-0.606434
-0.684977
-1.05466
-1.061
-1.25486
-3.04442
-4.60942
-6.03497
-6.75561
-6.04948
-3.9404
-2.42099
-2.21313
-1.93003
-1.62301
-1.44555
-1.32148
-1.22029
-1.12942
-1.04376
-0.983405
2.10319
6.38208
0.490101
-0.679572
-1.43502
-1.52915
-1.98105
-2.60117
-3.51348
-4.19465
-4.5166
-3.49079
-2.20219
-1.30649
-1.62044
-1.50666
-1.32433
-1.21777
-1.14027
-1.07503
-1.01752
-0.971506
-0.948242
1.34968
6.56134
6.13694
-0.679782
-1.70275
-1.90473
-2.32907
-2.19247
-1.72917
-1.80942
-1.53277
-0.985557
-0.582941
-0.282846
-1.09677
-1.10842
-1.04776
-1.01063
-0.979824
-0.9511
-0.92716
-0.918298
-0.93241
-0.766073
5.92912
8.30508
0.593163
-1.76408
-1.99194
-2.43509
-1.5466
-1.02839
-0.379339
0.13156
0.389349
0.501158
-0.17691
-0.771737
-0.807306
-0.826838
-0.83975
-0.845419
-0.846514
-0.849052
-0.864042
-0.899317
-0.993991
0.789886
8.3855
7.92686
-1.63733
-1.7943
-2.09776
-1.59027
-0.479691
0.19462
0.731692
0.97869
0.407106
-0.388846
-0.524917
-0.606407
-0.66426
-0.705747
-0.734201
-0.754745
-0.773963
-0.800649
-0.844757
-0.933883
-1.06855
4.035
8.4049
-1.4148
-1.49389
-1.62081
-1.55241
-0.610724
0.378457
0.706376
0.3304
-0.184515
-0.300687
-0.39893
-0.482752
-0.550002
-0.601579
-0.640291
-0.670394
-0.697158
-0.726659
-0.766812
-0.831231
-0.94013
-1.04437
1.81589
-1.18692
-1.20554
-1.21492
-1.13475
-0.894866
-0.517147
-0.287067
-0.225087
-0.216118
-0.266498
-0.33661
-0.406864
-0.468354
-0.518741
-0.558842
-0.590935
-0.618246
-0.644245
-0.673131
-0.708458
-0.760874
-0.825763
-0.855561
-0.995534
-0.989217
-0.953528
-0.856386
-0.687995
-0.492186
-0.336447
-0.251661
-0.232854
-0.257744
-0.30457
-0.357346
-0.407356
-0.450937
-0.487134
-0.516489
-0.540398
-0.560412
-0.578171
-0.593718
-0.607473
-0.620266
-0.618958
-0.840745
-0.827426
-0.78391
-0.699213
-0.578578
-0.440244
-0.334637
-0.269597
-0.246806
-0.256377
-0.284956
-0.321626
-0.35932
-0.394033
-0.423852
-0.448193
-0.467218
-0.481346
-0.49097
-0.4957
-0.493973
-0.48521
-0.468661
-0.713329
-0.698816
-0.659924
-0.594158
-0.499157
-0.406475
-0.329111
-0.277518
-0.254065
-0.253832
-0.269156
-0.292861
-0.319466
-0.345292
-0.368125
-0.386799
-0.400801
-0.409963
-0.414188
-0.413283
-0.406571
-0.393258
-0.371182
-0.606887
-0.593283
-0.561161
-0.508689
-0.442069
-0.374694
-0.316878
-0.275595
-0.253043
-0.247105
-0.253454
-0.267391
-0.284864
-0.302805
-0.319084
-0.332343
-0.341762
-0.346879
-0.34737
-0.342967
-0.333235
-0.317498
-0.294878
-0.517404
-0.505637
-0.480306
-0.440461
-0.392048
-0.34251
-0.298703
-0.265471
-0.244797
-0.235938
-0.236467
-0.243365
-0.253744
-0.265182
-0.275826
-0.284352
-0.289848
-0.291715
-0.289521
-0.28294
-0.271697
-0.255571
-0.234664
-0.441683
-0.431952
-0.412266
-0.38241
-0.346668
-0.309774
-0.27622
-0.249425
-0.231043
-0.220977
-0.217908
-0.219936
-0.225048
-0.23141
-0.237502
-0.242148
-0.244468
-0.243843
-0.239835
-0.232155
-0.220662
-0.205371
-0.186516
-0.376917
-0.368806
-0.353694
-0.331387
-0.30477
-0.276972
-0.251038
-0.229393
-0.213354
-0.203108
-0.19798
-0.196791
-0.198168
-0.200762
-0.203376
-0.205024
-0.204929
-0.20252
-0.197402
-0.189341
-0.178261
-0.164243
-0.147441
-0.320588
-0.313856
-0.302334
-0.285642
-0.265676
-0.244537
-0.224342
-0.206826
-0.193015
-0.183198
-0.177063
-0.173894
-0.172771
-0.17272
-0.172828
-0.172302
-0.170489
-0.166899
-0.16119
-0.153172
-0.142797
-0.130164
-0.115449
-0.270799
-0.265261
-0.256509
-0.243994
-0.228929
-0.212745
-0.196943
-0.182771
-0.171018
-0.161987
-0.155564
-0.151327
-0.148667
-0.146894
-0.145324
-0.143337
-0.140407
-0.136128
-0.130218
-0.122529
-0.113037
-0.10185
-0.0891386
-0.2261
-0.221592
-0.21497
-0.205584
-0.194184
-0.181758
-0.169385
-0.157966
-0.148098
-0.14006
-0.133839
-0.129197
-0.125735
-0.122969
-0.120396
-0.117542
-0.113996
-0.109436
-0.103639
-0.0964936
-0.0879976
-0.0782598
-0.0674201
-0.185371
-0.181741
-0.176771
-0.169766
-0.161159
-0.151652
-0.142021
-0.132913
-0.124775
-0.117844
-0.112158
-0.107586
-0.103871
-0.100677
-0.097639
-0.0944038
-0.0906587
-0.0861565
-0.0807278
-0.0742925
-0.0668612
-0.0585384
-0.0494755
-0.147742
-0.144856
-0.14119
-0.136035
-0.129614
-0.122437
-0.115059
-0.107937
-0.101401
-0.0956416
-0.0907143
-0.0865527
-0.0829915
-0.0798001
-0.0767203
-0.0734954
-0.0698949
-0.0657342
-0.0608882
-0.0553021
-0.0489979
-0.042084
-0.0347304
-0.112492
-0.110233
-0.107632
-0.103959
-0.0993041
-0.0940491
-0.0885805
-0.0832114
-0.0781799
-0.073631
-0.0696189
-0.0661122
-0.0630065
-0.060148
-0.0573599
-0.0544627
-0.0512922
-0.0477155
-0.0436433
-0.039042
-0.0339437
-0.0284605
-0.0227848
-0.0790838
-0.0773759
-0.0756666
-0.0732201
-0.0700502
-0.0664469
-0.062657
-0.0588859
-0.055295
-0.0519845
-0.0489985
-0.0463236
-0.0438969
-0.041622
-0.0393852
-0.0370687
-0.0345633
-0.0317795
-0.0286582
-0.025183
-0.0213916
-0.0173918
-0.013365
-0.0468003
-0.0455763
-0.0446815
-0.0433146
-0.0414567
-0.0393365
-0.0370889
-0.0348329
-0.0326614
-0.030632
-0.0287737
-0.0270813
-0.0255214
-0.0240416
-0.0225789
-0.0210666
-0.0194416
-0.0176512
-0.0156609
-0.0134647
-0.0110975
-0.00864934
-0.00627308
-0.0159732
-0.0154565
-0.0151273
-0.014655
-0.0140294
-0.0133158
-0.0125327
-0.0117344
-0.0109511
-0.0102004
-0.00949377
-0.00883069
-0.00820227
-0.00759323
-0.006984
-0.00635324
-0.00568016
-0.00494649
-0.00413837
-0.0032485
-0.00228031
-0.00126649
-0.000281034
824.387
906.897
977.946
795.659
807.749
926.638
919.524
491.008
776.106
807.671
480.832
427.553
579.795
451.391
391.174
481.688
112.579
146.15
368.73
464.645
94.9125
101.33
148.616
83.0795
73.0216
60.2263
46.4143
49.3358
59.1779
55.9492
42.4988
40.1271
74.1321
74.9193
71.4445
55.4056
44.8686
48.9854
19.3334
-1.35822
0.592923
-0.189893
-1.5796
-2.24455
0.483677
-0.493106
-2.06976
-2.748
0.471044
-0.653169
-1.70046
-1.94268
0.412315
-0.652761
-1.92252
2.94108
0.114058
-0.683071
0.841307
7.76514
-0.494447
-0.978611
-0.951047
-0.761512
-1.01712
-1.31034
-1.04602
-0.532773
-1.08525
-1.26118
-0.944821
-0.435765
-0.938473
-1.06374
-0.809058
-0.405684
-0.823036
-0.88192
-0.743554
-0.443834
-0.821061
-0.889193
-0.776388
-0.483553
-0.885975
-0.934584
-0.763804
-0.490323
-0.886201
-0.736784
-0.387967
-0.475355
1.46187
2.19432
-0.233399
-0.45365
3.48592
2.72227
-0.473592
-0.378463
-0.777194
-0.719487
-0.513964
-0.278093
-0.587922
-0.504207
-0.362662
-0.200226
-0.433124
-0.361016
-0.260655
-0.148376
-0.334025
-0.273223
-0.19618
-0.111641
-0.260376
-0.209041
-0.147891
-0.0823083
-0.204119
-0.160783
-0.111303
-0.0590748
-0.159774
-0.123142
-0.0825991
-0.0404542
-0.124248
-0.0934043
-0.0600767
-0.0258351
-0.0955664
-0.0697378
-0.0423533
-0.0145463
-0.0722748
-0.0508258
-0.0285208
-0.00622512
-0.0532988
-0.0357699
-0.0180002
-0.000643866
-0.0379015
-0.0239917
-0.0104148
0.00239293
-0.0255786
-0.0150956
-0.00546431
0.0031247
-0.0159693
-0.00875693
-0.00283381
0.00181572
-0.00875657
-0.00458583
-0.00218803
-0.00131933
-0.00346148
-0.00223731
-0.00344108
-0.00630164
-7.16388e-06
-0.00211591
-0.00697963
-0.0135386
268.733
216.53
186.582
175.184
176.349
219
272.781
294.483
368.209
487.361
599.928
650.69
672.266
681.285
613.903
512.957
377.965
377.135
414.595
367.491
272.541
175.533
173.441
170.916
169.512
191.797
462.41
626.102
627.969
604.233
578.086
600.723
634.277
425.497
90.3323
30.9005
146.85
345.314
499.777
262.726
176.961
171.365
165.572
162.496
177.963
512.073
668.832
658.737
639.24
605.469
517.32
190.11
32.6411
6.85829
6.03935
5.85313
6.89664
510.182
369.582
177.901
170.726
164.993
162.478
283.871
658.899
697.934
669.552
635.902
384.063
47.4145
4.63754
5.20827
5.19104
4.82926
4.6682
6.1586
515.918
544.373
231.144
169.436
167.132
244.396
730.647
717.456
672.328
511.309
175.701
11.9752
2.98324
3.82015
4.59116
4.80642
4.30346
4.16805
5.41979
499.327
546.286
530.838
169.242
272.629
746.066
740.174
471.393
8.19164
4.50976
5.87078
2.1417
2.50407
3.25012
4.31212
4.78156
3.73683
3.60223
4.22019
72.9994
485.95
554.582
584.953
220.784
749.324
253.14
4.88229
5.29857
4.53073
3.35199
2.30332
2.42027
3.1616
4.25528
3.31559
3.0125
3.18103
3.18793
34.4017
108.4
438.574
764.027
214.841
499.001
73.4409
5.12415
4.7365
4.20256
3.15089
2.52092
2.72616
3.69751
2.9998
2.52262
2.68509
2.81064
2.85058
26.676
2.27608
21.0455
683.205
608.841
186.147
5.18118
5.53757
5.06234
5.12052
4.50645
2.757
2.94821
2.70689
2.06531
2.33569
2.44315
2.57387
2.58949
9.88647
-1.27424
-1.56823
38.2472
614.949
448.223
52.2027
5.32012
5.80077
4.73225
2.72714
2.27051
1.95428
1.9418
2.04592
2.18414
2.2659
2.4396
2.46028
-2.25392
-2.12939
-1.76895
-1.32095
340.143
474.751
109.491
4.25503
3.40561
2.2772
2.02033
1.97954
1.95088
1.94629
1.99529
2.06338
2.11816
2.27952
2.29254
-2.54001
-2.11672
-1.3515
-1.22425
273.295
302.835
51.0458
1.8963
1.90003
1.87928
1.84617
1.83632
1.84379
1.86124
1.91428
1.95223
2.00111
2.14285
2.07206
-2.47596
-1.87757
-1.09675
123.617
146.816
2.03959
1.32301
1.27244
1.50949
1.60847
1.63697
1.67907
1.71235
1.75975
2.14666
1.98095
1.95382
2.01349
1.8936
23.5814
39.8822
41.6027
42.4227
-0.315406
-0.176033
0.398993
1.00765
1.21626
1.36785
1.45334
1.5089
1.55048
1.64369
2.43091
2.38242
1.82533
1.83764
1.74347
8.16255
6.88145
5.93752
0.11826
0.42831
0.704491
0.896459
1.03525
1.13377
1.24775
1.31543
1.36265
1.40038
1.54931
2.31519
2.06836
1.61062
1.62203
1.58824
-0.485224
0.317349
0.341552
0.543708
0.794069
1.08083
1.20566
1.11848
1.1033
1.15062
1.18904
1.22359
1.25315
1.85651
2.1853
1.39472
1.44691
1.51742
1.43076
0.276201
1.56337
1.76729
1.9184
1.97842
2.32076
2.37661
1.6252
1.13186
1.03801
1.0697
1.09358
1.11568
2.00957
1.99142
1.22428
1.32746
2.69617
1.28054
0.0651186
1.34657
1.74976
1.90138
2.06314
2.2001
2.28488
2.32006
1.23557
0.910676
0.946607
0.965826
0.96676
1.89579
1.93347
1.05045
1.23454
3.17704
1.20304
-0.0342491
0.106254
0.672283
1.15366
1.53335
1.68445
1.4923
1.0831
0.818831
0.788717
0.831694
0.849323
0.852579
1.7467
1.82925
0.928074
1.21133
3.11361
1.23377
-0.155609
-0.00390186
0.127829
0.242719
0.342231
0.432432
0.514401
0.590622
0.659963
0.714752
0.753702
0.764451
0.765329
1.00099
1.4463
0.829046
2.09678
3.099
1.58487
-0.218096
-0.0396606
0.102178
0.216911
0.314448
0.401637
0.480537
0.550894
0.609675
0.65651
0.689989
0.70287
0.701011
0.69653
0.696567
0.689659
3.00185
3.13857
2.50399
-0.232697
-0.0578108
0.0805857
0.191393
0.284851
0.36705
0.439959
0.503573
0.556455
0.604347
0.632829
0.64703
0.650179
0.653635
0.66116
0.657654
1.94702
3.21338
2.73161
-0.230382
-0.0639312
0.0648044
0.167622
0.254121
0.329759
0.396682
0.455002
0.50366
0.550614
0.580235
0.597732
0.601976
0.615701
0.656153
0.643564
0.79109
3.28134
1.73276
-0.209319
-0.0588937
0.0552108
0.147254
0.225527
0.294297
0.355364
0.408939
0.454439
0.492203
0.531154
0.546297
0.559138
0.581001
0.632603
0.632466
0.735515
3.27781
1.77749
-0.170064
-0.0459323
0.0498335
0.129526
0.198965
0.260855
0.316393
0.365756
0.408631
0.444654
0.474078
0.497717
0.520305
0.546968
0.597078
0.611143
1.32848
3.33652
1.80451
-0.125292
-0.0317937
0.0459473
0.113923
0.17479
0.22999
0.280209
0.32556
0.365866
0.400932
0.430762
0.456509
0.48168
0.520098
0.547145
0.580979
1.89833
3.37198
1.79922
-0.0916615
-0.0208091
0.0428197
0.100717
0.153621
0.202304
0.247192
0.288361
0.325678
0.359017
0.388444
0.414889
0.441338
0.479472
0.509802
0.545295
1.61941
3.40351
1.68434
-0.0674881
-0.0113217
0.041141
0.0900998
0.135557
0.17787
0.217299
0.253861
0.287435
0.317907
0.345408
0.370872
0.397138
0.428066
0.466366
0.506502
0.544217
2.89467
1.46505
-0.0479778
-0.00241531
0.0408297
0.0818317
0.120388
0.156567
0.190441
0.221926
0.250862
0.277086
0.300619
0.32264
0.346395
0.410186
0.433047
0.461823
0.528287
0.927672
1.29651
-0.0315128
0.00564106
0.0412788
0.0754057
0.107749
0.138163
0.166504
0.192534
0.215975
0.236379
0.253238
0.268047
0.309955
0.49261
0.476295
0.403126
0.499382
1.30223
1.72965
-0.0179679
0.0125162
0.0419526
0.0702574
0.0971139
0.122213
0.145166
0.165551
0.182757
0.195467
0.202199
0.20442
0.376223
0.410762
0.406429
0.328607
0.851341
2.53193
1.94919
-0.00698493
0.0180955
0.0424013
0.0657508
0.0878047
0.10811
0.126018
0.140971
0.151478
0.154733
0.147781
0.231846
0.307359
0.310563
0.293901
0.237006
1.28457
2.51312
1.22834
0.00152276
0.0221513
0.0421053
0.0611902
0.0790988
0.0952745
0.108982
0.119149
0.123751
0.117904
0.0965948
0.254673
0.219697
0.214753
0.150956
0.160315
1.8924
2.48626
0.883346
0.00767628
0.0244438
0.0405861
0.055978
0.0703921
0.0832727
0.0939346
0.101102
0.102307
0.0915885
0.0624045
0.138699
0.167332
0.074726
0.0533036
0.70828
2.35942
2.38481
0.336683
0.0114558
0.0247542
0.0375209
0.0497292
0.0612522
0.0716441
0.0802883
0.0862818
0.0872368
0.0780762
0.0520139
0.030854
0.149951
-0.0162994
0.0546295
1.05756
2.29736
0.73286
0.120493
0.0129024
0.0230526
0.0328301
0.0422724
0.0513318
0.059707
0.0669489
0.0724293
0.0747946
0.0710668
0.0555853
0.0252512
-0.00116751
-0.00438076
0.45218
0.838845
0.0643676
0.0771866
0.0905741
0.0121633
0.0194683
0.0265591
0.0334896
0.0402535
0.0466613
0.0524326
0.0572698
0.0607401
0.0610807
0.0550474
0.0420873
0.0299832
0.0307897
0.0370462
0.0481631
0.060117
0.0713196
0.077559
0.00943829
0.0141262
0.0186937
0.0232018
0.0276715
0.0320016
0.0360471
0.0397149
0.042971
0.0451358
0.0450142
0.0423161
0.039586
0.0397275
0.0426346
0.0468928
0.0518509
0.0569747
0.0599038
0.00488231
0.00707428
0.00919576
0.0113331
0.0135477
0.0158326
0.0181662
0.0205705
0.0230898
0.0254752
0.0273835
0.0287507
0.0299681
0.0311623
0.0325539
0.034645
0.0374363
0.0404149
0.0425146
-0.00137434
-0.00157991
-0.00179868
-0.00191185
-0.00180819
-0.00140265
-0.000608919
0.000678628
0.0025101
0.00480983
0.00741521
0.0101408
0.0128001
0.0150461
0.0170044
0.0191806
0.0213048
0.0231884
0.0251811
-0.00938537
-0.0119102
-0.0143999
-0.0167054
-0.0186662
-0.020112
-0.0208535
-0.0206844
-0.0195207
-0.0172316
-0.0140242
-0.0102429
-0.00644206
-0.00297172
-0.000105547
0.00238787
0.00443462
0.00593528
0.00784074
-0.0197279
-0.0246751
-0.0295892
-0.034295
-0.0385827
-0.0421931
-0.0448103
-0.0460815
-0.0457561
-0.0435201
-0.0394927
-0.0341179
-0.028315
-0.0230445
-0.018731
-0.0153982
-0.0129459
-0.011404
-0.00945743
)
;

boundaryField
{
    leftWall
    {
        type            fixedFluxPressure;
        gradient        uniform 0;
        value           nonuniform List<scalar> 
50
(
1090.45
1091.76
1093.03
1092.84
1090.97
1088.57
1086.98
1087.74
1089.77
1117.51
1078.9
1119.11
1303.87
1329.97
1153.81
973.658
767.851
831.348
926.17
992.437
546.969
12.8351
-0.689631
-0.342528
0.206231
-0.204651
-0.631198
-1.05466
-1.43502
-1.70275
-1.76408
-1.63733
-1.4148
-1.18692
-0.995534
-0.840745
-0.713329
-0.606887
-0.517404
-0.441683
-0.376917
-0.320588
-0.270799
-0.2261
-0.185371
-0.147742
-0.112492
-0.0790838
-0.0468003
-0.0159732
)
;
    }
    rightWall
    {
        type            fixedFluxPressure;
        gradient        uniform 0;
        value           nonuniform List<scalar> 
50
(
672.015
655.831
638.115
615.144
582.804
541.585
515.005
496.224
414.595
345.314
6.89664
6.1586
5.41979
4.22019
3.18793
2.85058
2.58949
2.46028
2.29254
2.07206
1.8936
1.74347
1.58824
1.43076
1.28054
1.20304
1.23377
1.58487
2.50399
2.73161
1.73276
1.77749
1.80451
1.79922
1.68434
1.46505
1.29651
1.72965
1.94919
1.22834
0.883346
0.336683
0.120493
0.0905741
0.077559
0.0599038
0.0425146
0.0251811
0.00784074
-0.00945743
)
;
    }
    lowerWall
    {
        type            fixedFluxPressure;
        gradient        uniform 0;
        value           nonuniform List<scalar> 
62
(
1090.45
1085.43
1080.17
1076.04
1074.26
1075.4
1079.73
1086.94
1094.98
1101.04
1102.3
1095.65
1078.35
1055.55
1033.39
1013.83
999.002
990.35
980.971
968.701
956.682
944.881
939.241
939.241
937.736
933.95
927.627
919.748
912.082
903.954
892.951
824.387
906.897
977.946
795.659
496.72
489.514
480.02
472.918
460.704
454.212
450.861
291.368
496.72
488.315
473.458
441.453
412.135
409.468
438.158
489.869
535.572
567.396
574.712
559.172
524.554
496.188
394.473
364.994
488.256
649.466
672.015
)
;
    }
    atmosphere
    {
        type            totalPressure;
        rho             rho;
        psi             none;
        gamma           1;
        p0              uniform 0;
        value           nonuniform List<scalar> 
46
(
0
0
0
0
0
0
0
0
0
0
0
0
0
0
0
0
0
0
0
0
0
0
0
-0.000356377
-0.00361772
-0.0100041
-0.0184292
-0.0263339
-0.0326443
-0.0389669
-0.0451169
-0.0508619
-0.0558912
-0.059795
-0.0621049
-0.0624033
-0.060267
-0.0555942
-0.0487799
-0.0411141
-0.0342188
-0.0287929
-0.0247696
-0.0219897
-0.0204925
-0.0180804
)
;
    }
    defaultFaces
    {
        type            empty;
    }
}


// ************************************************************************* //
