/*--------------------------------*- C++ -*----------------------------------*\
| =========                 |                                                 |
| \\      /  F ield         | OpenFOAM: The Open Source CFD Toolbox           |
|  \\    /   O peration     | Version:  2206                                  |
|   \\  /    A nd           | Website:  www.openfoam.com                      |
|    \\/     M anipulation  |                                                 |
\*---------------------------------------------------------------------------*/
FoamFile
{
    version     2.0;
    format      ascii;
    arch        "LSB;label=32;scalar=64";
    class       surfaceScalarField;
    location    "0.925";
    object      phi;
}
// * * * * * * * * * * * * * * * * * * * * * * * * * * * * * * * * * * * * * //

dimensions      [0 3 -1 0 0 0 0];

oriented        oriented;

internalField   nonuniform List<scalar> 
4432
(
8.77085e-07
-8.77085e-07
-1.85784e-06
2.73493e-06
-7.45475e-06
5.59691e-06
-1.23431e-05
4.88835e-06
-1.39233e-05
1.58016e-06
-1.38065e-05
-1.16795e-07
-1.43268e-05
5.2039e-07
-1.57327e-05
1.40583e-06
-1.74892e-05
1.75651e-06
-1.90095e-05
1.52036e-06
-1.93116e-05
3.02042e-07
-1.77261e-05
-1.58546e-06
-1.57325e-05
-1.99362e-06
-1.65981e-05
8.65578e-07
-2.14533e-05
4.8552e-06
-2.62524e-05
4.79906e-06
-2.48731e-05
-1.37928e-06
-1.85383e-05
-6.33473e-06
-1.17235e-05
-6.81484e-06
-6.00416e-06
-5.71935e-06
-1.17954e-06
-4.82462e-06
8.96829e-07
-2.07637e-06
8.96842e-07
-4.96166e-06
4.08458e-06
-1.08278e-05
8.6011e-06
-1.54222e-05
1.01912e-05
-1.65837e-05
6.04991e-06
-1.54211e-05
4.17555e-07
-1.44763e-05
-1.06165e-06
-1.51222e-05
1.1663e-06
-1.7049e-05
3.33268e-06
-1.9302e-05
4.00945e-06
-2.11415e-05
3.35984e-06
-2.25065e-05
1.66712e-06
-2.39213e-05
-1.70696e-07
-2.5793e-05
-1.21877e-07
-2.75043e-05
2.57689e-06
-2.69307e-05
4.2816e-06
-2.21686e-05
3.69468e-08
-1.53565e-05
-8.19145e-06
-9.46741e-06
-1.22238e-05
-4.78315e-06
-1.14991e-05
-3.63497e-07
-1.0139e-05
3.43148e-06
-8.61959e-06
3.64502e-06
-2.28993e-06
4.54187e-06
-7.50914e-06
1.15937e-05
-1.36871e-05
1.47791e-05
-1.70052e-05
1.35094e-05
-1.75651e-05
6.60979e-06
-1.63964e-05
-7.51134e-07
-1.52389e-05
-2.21921e-06
-1.5352e-05
1.2794e-06
-1.66718e-05
4.65247e-06
-1.82451e-05
5.58275e-06
-1.94636e-05
4.57834e-06
-2.02775e-05
2.48105e-06
-2.09573e-05
5.09099e-07
-2.1282e-05
2.0279e-07
-2.00662e-05
1.36115e-06
-1.60492e-05
2.64608e-07
-1.05799e-05
-5.43238e-06
-6.72727e-06
-1.20441e-05
-4.4966e-06
-1.44544e-05
-2.08383e-06
-1.39119e-05
1.51613e-06
-1.3739e-05
5.37567e-06
-1.24791e-05
5.55992e-06
-2.47419e-06
1.01018e-05
-7.49096e-06
1.90847e-05
-1.32257e-05
2.05139e-05
-1.65266e-05
1.68102e-05
-1.76021e-05
7.68534e-06
-1.67685e-05
-1.58473e-06
-1.57672e-05
-3.22049e-06
-1.60801e-05
1.59225e-06
-1.74241e-05
5.99642e-06
-1.89091e-05
7.06783e-06
-1.97866e-05
5.45586e-06
-1.9577e-05
2.27143e-06
-1.80524e-05
-1.01555e-06
-1.51762e-05
-2.67338e-06
-1.10747e-05
-2.74041e-06
-6.85913e-06
-3.95094e-06
-4.33212e-06
-7.95939e-06
-3.94258e-06
-1.24336e-05
-3.91485e-06
-1.44822e-05
-2.57851e-06
-1.52482e-05
2.79e-07
-1.65965e-05
3.67962e-06
-1.58797e-05
5.01168e-06
-3.80626e-06
1.51135e-05
-6.2971e-06
2.53818e-05
-1.1391e-05
2.56077e-05
-1.46832e-05
2.01024e-05
-1.59967e-05
8.99881e-06
-1.56304e-05
-1.95097e-06
-1.55066e-05
-3.34432e-06
-1.66653e-05
2.75091e-06
-1.85553e-05
7.88646e-06
-2.04205e-05
8.93299e-06
-2.15005e-05
6.53589e-06
-2.09979e-05
1.76885e-06
-1.83896e-05
-3.62388e-06
-1.39618e-05
-7.10125e-06
-8.99257e-06
-7.70959e-06
-5.38004e-06
-7.56347e-06
-4.24043e-06
-9.099e-06
-4.62502e-06
-1.2049e-05
-4.44983e-06
-1.46573e-05
-3.00881e-06
-1.66893e-05
-1.21261e-06
-1.83927e-05
2.95974e-07
-1.73883e-05
3.0032e-06
-6.51348e-06
1.81167e-05
-4.5421e-06
2.99239e-05
-8.66959e-06
2.97352e-05
-1.14596e-05
2.28924e-05
-1.27503e-05
1.02895e-05
-1.30659e-05
-1.63531e-06
-1.4368e-05
-2.04229e-06
-1.69399e-05
5.32286e-06
-1.96714e-05
1.0618e-05
-2.20575e-05
1.1319e-05
-2.34799e-05
7.95838e-06
-2.30227e-05
1.3116e-06
-1.99515e-05
-6.69507e-06
-1.47876e-05
-1.22651e-05
-9.48758e-06
-1.30096e-05
-6.06556e-06
-1.09855e-05
-4.92961e-06
-1.02349e-05
-4.70068e-06
-1.2278e-05
-3.76461e-06
-1.55934e-05
-2.21253e-06
-1.82413e-05
-1.37414e-06
-1.92311e-05
-1.316e-06
-1.74464e-05
1.46583e-06
-9.2953e-06
1.95825e-05
-2.42523e-06
3.23491e-05
-5.40846e-06
3.27185e-05
-7.47758e-06
2.49615e-05
-8.1747e-06
1.09866e-05
-8.79043e-06
-1.01959e-06
-1.24011e-05
1.56841e-06
-1.69826e-05
9.90435e-06
-2.07597e-05
1.4395e-05
-2.37843e-05
1.43436e-05
-2.55535e-05
9.7275e-06
-2.49345e-05
6.92588e-07
-2.05788e-05
-1.10507e-05
-1.35523e-05
-1.92917e-05
-7.18387e-06
-1.9378e-05
-3.78564e-06
-1.43837e-05
-3.0015e-06
-1.10191e-05
-2.934e-06
-1.23455e-05
-2.09082e-06
-1.64366e-05
-5.34357e-07
-1.97978e-05
7.34584e-07
-2.05e-05
7.36754e-07
-1.74486e-05
9.7048e-07
-9.52904e-06
2.0553e-05
-3.87364e-07
3.27365e-05
-1.94336e-06
3.42744e-05
-2.31707e-06
2.53352e-05
-5.34415e-07
9.20395e-06
-2.62683e-06
1.07281e-06
-9.79223e-06
8.73381e-06
-1.6533e-05
1.66452e-05
-2.12921e-05
1.91541e-05
-2.49495e-05
1.80011e-05
-2.70003e-05
1.17783e-05
-2.57256e-05
-5.82069e-07
-1.95274e-05
-1.7249e-05
-1.08745e-05
-2.79445e-05
-3.95464e-06
-2.62978e-05
-8.9096e-07
-1.74474e-05
-6.66008e-07
-1.1244e-05
-1.2594e-06
-1.17521e-05
-9.09278e-07
-1.67867e-05
1.15514e-06
-2.18622e-05
4.39306e-06
-2.37379e-05
6.43752e-06
-1.9493e-05
2.73999e-06
-5.83151e-06
2.3293e-05
1.54991e-05
-1.54991e-05
2.95646e-05
-1.40655e-05
3.89668e-05
-9.40221e-06
4.10516e-05
-2.08477e-06
3.70522e-05
3.99935e-06
2.58809e-05
1.11713e-05
1.43773e-05
1.15036e-05
4.76688e-06
9.6104e-06
-9.03106e-06
1.3798e-05
-1.66719e-05
7.64084e-06
-9.54662e-06
-7.12529e-06
5.95394e-06
-1.55006e-05
-1.10332e-06
7.05725e-06
-4.18552e-05
4.07519e-05
-7.96187e-05
3.77635e-05
-7.93549e-05
-2.63803e-07
-5.56156e-05
-2.37393e-05
-2.18616e-05
-3.3754e-05
-2.18616e-05
4.61514e-06
-2.01142e-05
2.15824e-05
-3.10328e-05
4.06455e-05
-2.84653e-05
5.617e-05
-1.76093e-05
6.22775e-05
-2.10819e-06
5.45036e-05
1.89452e-05
4.27227e-05
2.32846e-05
3.30711e-05
1.92619e-05
1.74544e-05
2.94147e-05
-3.24592e-06
2.83411e-05
-1.34452e-05
3.07395e-06
-1.49509e-05
-1.39948e-05
-3.74239e-05
2.95302e-05
-7.08201e-05
7.41482e-05
-8.23396e-05
4.9283e-05
-6.58036e-05
-1.67998e-05
-3.85272e-05
-5.10158e-05
-1.29364e-05
-5.93447e-05
-3.47981e-05
2.3922e-06
-2.25064e-05
2.95194e-05
-5.816e-05
5.51923e-05
-5.41382e-05
7.29062e-05
-3.53232e-05
8.05947e-05
-9.79663e-06
7.34148e-05
2.61251e-05
6.03956e-05
3.63038e-05
5.03028e-05
2.93547e-05
3.94516e-05
4.0266e-05
1.79762e-05
4.98165e-05
-5.23328e-06
2.62834e-05
-2.50744e-05
5.84635e-06
-4.53291e-05
4.97849e-05
-5.97211e-05
8.85401e-05
-5.34308e-05
4.29927e-05
-3.62565e-05
-3.39741e-05
-1.29177e-05
-7.43546e-05
2.74189e-06
-7.50042e-05
-3.20562e-05
7.92663e-06
-3.04331e-05
3.14237e-05
-8.16571e-05
4.93325e-05
-7.2047e-05
6.30587e-05
-4.90494e-05
7.07894e-05
-1.75273e-05
6.83418e-05
2.85727e-05
5.90517e-05
4.55939e-05
5.20187e-05
3.63876e-05
4.64108e-05
4.58739e-05
3.14975e-05
6.47297e-05
7.96782e-06
4.98131e-05
-1.4459e-05
2.82732e-05
-2.63093e-05
6.16352e-05
-2.84705e-05
9.07013e-05
-1.33215e-05
2.78436e-05
3.98704e-06
-5.12825e-05
1.38338e-05
-8.42015e-05
1.29109e-05
-7.40813e-05
-1.91453e-05
1.24531e-05
-4.28862e-05
2.61721e-05
-9.5376e-05
3.69975e-05
-8.28723e-05
4.62922e-05
-5.83442e-05
5.29604e-05
-2.41955e-05
4.89656e-05
3.25675e-05
4.18068e-05
5.27527e-05
4.06142e-05
3.75803e-05
4.02601e-05
4.6228e-05
3.63001e-05
6.86897e-05
2.15514e-05
6.45618e-05
5.0572e-06
4.47674e-05
-1.96107e-07
6.68885e-05
6.19673e-06
8.43085e-05
2.06501e-05
1.33902e-05
2.82924e-05
-5.89248e-05
2.89085e-05
-8.48176e-05
1.67512e-05
-6.1924e-05
-2.39412e-06
1.78686e-05
-6.07548e-05
3.36929e-05
-0.0001112
4.27573e-05
-9.19368e-05
3.72157e-05
-5.28026e-05
1.83059e-05
-5.28574e-06
2.97184e-06
4.79015e-05
1.26667e-05
4.30579e-05
2.24176e-05
2.78293e-05
2.84883e-05
4.01573e-05
3.43845e-05
6.27935e-05
3.00931e-05
6.88532e-05
1.74213e-05
5.74392e-05
2.10501e-05
6.32597e-05
3.55995e-05
6.9759e-05
4.42279e-05
4.76183e-06
4.07195e-05
-5.54164e-05
2.79618e-05
-7.206e-05
1.30468e-05
-4.70089e-05
1.06526e-05
2.61736e-05
-8.69283e-05
4.36622e-05
-0.000128689
3.70084e-05
-8.5283e-05
1.20616e-05
-2.78557e-05
-1.82025e-05
2.49784e-05
-2.28001e-05
5.24992e-05
4.13398e-07
1.98443e-05
9.23141e-06
1.90113e-05
1.70671e-05
3.23216e-05
2.75139e-05
5.23467e-05
3.12377e-05
6.51295e-05
2.42517e-05
6.44251e-05
2.5284e-05
6.22274e-05
4.05373e-05
5.45057e-05
4.4382e-05
9.17152e-07
3.55623e-05
-4.65967e-05
1.8049e-05
-5.45468e-05
5.8676e-06
-3.48275e-05
1.65202e-05
3.00026e-05
-0.000116931
3.02903e-05
-0.000128977
4.89401e-06
-5.98868e-05
-2.47003e-05
1.73859e-06
-3.63401e-05
3.66182e-05
-2.11564e-05
3.73154e-05
-1.09696e-05
9.65754e-06
-6.82791e-06
1.48696e-05
2.37763e-06
2.31161e-05
1.45917e-05
4.01326e-05
2.50829e-05
5.46382e-05
2.62376e-05
6.32705e-05
2.65403e-05
6.19247e-05
3.60493e-05
4.49968e-05
3.58412e-05
1.1252e-06
2.0045e-05
-3.08005e-05
2.53994e-06
-3.70417e-05
4.80128e-07
-3.27677e-05
1.70004e-05
9.50442e-06
2.3232e-05
1.01204e-05
3.36584e-05
1.03696e-05
2.50861e-05
6.33313e-06
1.32404e-05
-6.46948e-06
1.38754e-05
-2.07811e-05
2.30455e-05
-3.24609e-05
2.83249e-05
-4.32094e-05
2.99027e-05
-5.33072e-05
2.80988e-05
-6.08779e-05
1.93489e-05
-6.36973e-05
2.23733e-06
-5.66182e-05
-2.43281e-05
-4.10811e-05
-4.34816e-05
-2.62473e-05
-4.11316e-05
-1.81572e-05
-2.55375e-05
-1.54437e-05
-1.39575e-05
-1.36658e-05
-1.353e-05
-9.39184e-06
-2.10607e-05
5.67008e-07
-3.1821e-05
1.44414e-05
-3.76123e-05
2.61902e-05
-3.12419e-05
3.29832e-05
-1.26245e-05
1.14088e-05
4.48674e-05
2.4915e-05
-1.683e-06
2.86475e-05
2.9926e-05
2.12637e-05
3.24699e-05
6.16817e-06
2.83359e-05
-7.48945e-06
2.7533e-05
-1.70486e-05
3.26046e-05
-3.28871e-05
4.41634e-05
-5.20187e-05
4.90343e-05
-7.46792e-05
5.07593e-05
-0.000104604
4.92736e-05
-0.000126303
2.39367e-05
-0.000124711
-2.59203e-05
-0.00010798
-6.02127e-05
-9.16026e-05
-5.75089e-05
-8.0868e-05
-3.62721e-05
-7.13473e-05
-2.34782e-05
-5.8446e-05
-2.64312e-05
-4.39631e-05
-3.55436e-05
-2.88791e-05
-4.6905e-05
-1.61425e-05
-5.03489e-05
-4.73307e-06
-4.26513e-05
7.63819e-06
-2.49957e-05
-2.60136e-06
2.16484e-05
3.1415e-05
-3.3098e-05
3.82656e-05
2.30754e-05
2.16115e-05
4.91239e-05
-1.43755e-05
6.43229e-05
-4.85325e-05
6.169e-05
-7.55185e-05
5.95905e-05
-0.000115164
8.38094e-05
-0.000167168
0.000101037
-0.000218907
0.000102499
-0.000256698
8.7065e-05
-0.000255059
2.22971e-05
-0.000225044
-5.59348e-05
-0.000196293
-8.89641e-05
-0.000178656
-7.51454e-05
-0.000165486
-4.94424e-05
-0.0001539
-3.50642e-05
-0.00014249
-3.7841e-05
-0.00013446
-4.35741e-05
-0.000131437
-4.99279e-05
-0.000128431
-5.33551e-05
-0.000119183
-5.18988e-05
-0.000106454
-3.77251e-05
-3.445e-06
-0.00010561
-2.0031e-05
-1.30671e-05
-4.48216e-05
4.7866e-05
-6.82586e-05
7.25609e-05
-9.13433e-05
8.74076e-05
-0.000124649
9.49962e-05
-0.000169909
0.00010485
-0.000221917
0.000135818
-0.000269582
0.000148703
-0.000304096
0.000137013
-0.00030992
9.28885e-05
-0.000295747
8.12434e-06
-0.000267664
-8.40181e-05
-0.000246683
-0.000109945
-0.000231592
-9.02365e-05
-0.000221686
-5.93487e-05
-0.00022002
-3.67296e-05
-0.000229212
-2.86494e-05
-0.0002479
-2.48863e-05
-0.000262621
-3.52067e-05
-0.000262556
-5.34198e-05
-0.000250119
-6.43362e-05
-0.000233657
-5.41874e-05
-1.69448e-05
-0.000220157
-7.29724e-05
5.99054e-05
-0.000126976
0.000101869
-0.000175127
0.000120712
-0.000229044
0.000141325
-0.000254058
0.00012001
-0.000248534
9.93256e-05
-0.000245152
0.000132436
-0.000261339
0.00016489
-0.00030496
0.000180633
-0.000316366
0.000104295
-0.000307221
-1.02036e-06
-0.000287044
-0.000104195
-0.000272755
-0.000124233
-0.000261228
-0.000101764
-0.000256463
-6.41134e-05
-0.000265213
-2.798e-05
-0.000279368
-1.44946e-05
-0.000293521
-1.07325e-05
-0.000304663
-2.40651e-05
-0.000306634
-5.14484e-05
-0.000297284
-7.36865e-05
-0.000277699
-7.3772e-05
-4.64912e-05
-0.000248153
-7.64145e-05
0.00013632
-0.000141589
0.000167044
-0.00024065
0.000219773
-0.000279817
0.000180492
-0.000279984
0.000120177
-0.000256381
7.57231e-05
-0.000218898
9.49526e-05
-0.00019216
0.000138152
-0.000211251
0.000199724
-0.000254626
0.00014767
-0.000264603
8.95533e-06
-0.0002794
-8.93973e-05
-0.000278863
-0.00012477
-0.000270154
-0.000110473
-0.000261655
-7.26122e-05
-0.00026109
-2.85454e-05
-0.000268826
-6.75843e-06
-0.000260971
-1.85876e-05
-0.00024425
-4.07861e-05
-0.000223565
-7.21337e-05
-0.000200852
-9.63991e-05
-0.000170885
-0.000103738
-8.48963e-05
-0.00013248
-4.11737e-05
0.000177494
-0.000123882
0.000249752
-0.000209039
0.000304931
-0.000241972
0.000213424
-0.000246982
0.000125187
-0.000243078
7.18194e-05
-0.00022437
7.62439e-05
-0.00020119
0.000114972
-0.000176818
0.000175352
-0.000195835
0.000166687
-0.000231087
4.42084e-05
-0.00025462
-6.58645e-05
-0.000269576
-0.000109815
-0.000270693
-0.000109356
-0.000254516
-8.87894e-05
-0.000228158
-5.49037e-05
-0.000205069
-2.98466e-05
-0.0001838
-3.98573e-05
-0.000157336
-6.72503e-05
-0.000134688
-9.47813e-05
-0.000117576
-0.000113511
-9.10208e-05
-0.000130294
-0.000126254
-4.96632e-05
-4.19379e-05
0.000219431
-9.94671e-05
0.000307281
-0.000140138
0.000345602
-0.000155812
0.000229098
-0.00017132
0.000140695
-0.000196658
9.7157e-05
-0.000216331
9.59164e-05
-0.000222927
0.000121568
-0.000208562
0.000160986
-0.00020006
0.000158185
-0.000221204
6.53526e-05
-0.000254904
-3.21647e-05
-0.000273437
-9.12815e-05
-0.000266141
-0.000116651
-0.000238177
-0.000116754
-0.000199634
-9.34462e-05
-0.000159213
-7.02678e-05
-0.000129556
-6.95145e-05
-0.000109274
-8.75323e-05
-9.50491e-05
-0.000109006
-7.72333e-05
-0.000131327
-5.66994e-05
-0.000150828
-0.00014442
-3.85338e-05
-4.21044e-05
0.000261536
-7.91685e-05
0.000344345
-8.62668e-05
0.0003527
-9.40371e-05
0.000236869
-0.000117054
0.000163712
-0.000155422
0.000135526
-0.000187186
0.00012768
-0.000206174
0.000140557
-0.000205433
0.000160245
-0.000193132
0.000145884
-0.000205224
7.74439e-05
-0.000239336
1.94746e-06
-0.000271716
-5.89026e-05
-0.000280717
-0.00010765
-0.000267397
-0.000130074
-0.000221243
-0.0001396
-0.000180013
-0.000111498
-0.000147046
-0.000102482
-0.000117068
-0.00011751
-8.02815e-05
-0.000145793
-5.14226e-05
-0.000160185
-5.40583e-05
-0.000148192
-0.000139911
-5.85663e-05
-3.95857e-05
0.000301122
-6.43178e-05
0.000369077
-5.19293e-05
0.000340312
-5.96628e-05
0.000244602
-8.62941e-05
0.000190343
-0.000122227
0.000171459
-0.000153259
0.000158711
-0.000168457
0.000155755
-0.000164862
0.00015665
-0.000156257
0.000137279
-0.000167032
8.82187e-05
-0.000198182
3.30975e-05
-0.000239105
-1.79804e-05
-0.000280612
-6.6142e-05
-0.000293011
-0.000117675
-0.000283099
-0.000149511
-0.000246077
-0.00014852
-0.000189764
-0.000158795
-0.000122575
-0.000184699
-4.93762e-05
-0.000218992
-4.02099e-05
-0.000169352
-7.10661e-05
-0.000117336
-0.000144703
-6.62745e-05
-2.97887e-05
0.00033091
-7.59378e-05
0.000415227
-5.06153e-05
0.000314989
-5.08176e-05
0.000244804
-7.42043e-05
0.00021373
-9.8224e-05
0.000195479
-0.000117205
0.000177692
-0.000124751
0.000163301
-0.000118188
0.000150087
-0.000109299
0.00012839
-0.000115308
9.4228e-05
-0.000137436
5.52256e-05
-0.00017037
1.49535e-05
-0.000210035
-2.64771e-05
-0.000252781
-7.49291e-05
-0.00027582
-0.000126473
-0.000248835
-0.000175506
-0.000190031
-0.000217598
-0.000123737
-0.000250993
-9.10871e-05
-0.000251641
-5.34912e-05
-0.000206948
-4.11866e-05
-0.000129641
-0.00014775
-3.81401e-05
-9.54751e-06
0.000340458
-6.30873e-05
0.000468766
-5.26234e-05
0.000304525
-5.91856e-05
0.000251366
-7.97237e-05
0.000234268
-9.49399e-05
0.000210695
-0.000101664
0.000184416
-9.75633e-05
0.0001592
-8.35674e-05
0.00013609
-6.77321e-05
0.000112554
-6.02138e-05
8.671e-05
-6.36368e-05
5.86486e-05
-7.5462e-05
2.67787e-05
-9.41141e-05
-7.82462e-06
-0.00011509
-5.39534e-05
-0.000134174
-0.000107388
-0.00014291
-0.00016677
-0.000132181
-0.000228327
-0.000124838
-0.000258335
-0.000115839
-0.000260641
-8.13543e-05
-0.000241432
-3.20872e-05
-0.000178908
-0.000154926
-2.49109e-05
1.43159e-05
0.000326142
-2.03122e-05
0.000503394
-4.55221e-05
0.000329735
-7.44405e-05
0.000280284
-0.000102443
0.00026227
-0.00011865
0.000226902
-0.000119835
0.000185601
-0.000106119
0.000145484
-8.19132e-05
0.000111885
-5.4649e-05
8.52902e-05
-3.10988e-05
6.31601e-05
-1.50141e-05
4.2564e-05
-9.1251e-06
2.08901e-05
-1.50534e-05
-1.89614e-06
-3.27379e-05
-3.62688e-05
-5.89887e-05
-8.11368e-05
-8.91796e-05
-0.000136579
-0.00010831
-0.000209197
-0.000116405
-0.000250241
-0.00012263
-0.000254416
-0.000124059
-0.000240003
-0.000103851
-0.000199116
-0.000132767
-0.000126009
-2.1676e-05
0.000347818
5.2578e-06
0.000476461
-4.58768e-05
0.000380869
-0.000100002
0.000334409
-0.000144427
0.000306696
-0.00017093
0.000253405
-0.000172546
0.000187218
-0.00015089
0.000123829
-0.000114657
7.56515e-05
-7.54063e-05
4.60395e-05
-3.95213e-05
2.72753e-05
-9.71065e-06
1.27533e-05
1.18493e-05
-6.69806e-07
2.34019e-05
-1.34487e-05
1.84793e-05
-3.13461e-05
-4.42927e-06
-5.82281e-05
-4.32396e-05
-9.77687e-05
-8.91032e-05
-0.000163333
-0.000109199
-0.000230145
-0.000119591
-0.000244023
-0.000133179
-0.000226416
-0.000156213
-0.000176081
-7.17806e-05
-0.0002172
-1.26728e-05
0.000360491
-1.15045e-05
0.000475293
-6.4748e-05
0.000434113
-0.000136686
0.000406347
-0.000201724
0.000371735
-0.000242222
0.000293902
-0.000247575
0.00019257
-0.000221034
9.72878e-05
-0.000168912
2.35303e-05
-0.000112565
-1.03082e-05
-6.47464e-05
-2.0543e-05
-2.80543e-05
-2.39386e-05
-8.3388e-07
-2.789e-05
1.86768e-05
-3.29595e-05
2.53304e-05
-3.8e-05
1.51448e-05
-4.80427e-05
-1.60346e-05
-6.65893e-05
-6.65188e-05
-0.000112849
-0.000101711
-0.000194953
-0.000114958
-0.000230776
-0.000132216
-0.000209158
-0.000173161
-0.000135136
9.91182e-06
-0.000254853
5.48391e-06
0.000355006
-1.82966e-05
0.000499074
-7.2591e-05
0.000488407
-0.000146971
0.000480727
-0.000222027
0.000446791
-0.000273901
0.000345776
-0.000290429
0.000209099
-0.000268624
7.54831e-05
-0.000212008
-3.30865e-05
-0.000140837
-8.14791e-05
-7.76411e-05
-8.37387e-05
-3.50537e-05
-6.65262e-05
-8.64963e-06
-5.4294e-05
8.26666e-06
-4.98759e-05
1.71144e-05
-4.68478e-05
1.44718e-05
-4.54002e-05
-3.22432e-06
-4.88932e-05
-4.41679e-05
-7.19059e-05
-8.76299e-05
-0.000151492
-0.000111073
-0.000207333
-0.000127653
-0.000192578
-0.000174253
-8.85355e-05
7.99505e-05
-0.000244292
6.2447e-05
0.00029256
3.86873e-05
0.000522833
-2.49088e-05
0.000552004
-9.05743e-05
0.000546392
-0.000152305
0.000508521
-0.000197605
0.000391076
-0.000214268
0.000225761
-0.000206942
6.81575e-05
-0.00017954
-6.0489e-05
-0.000125808
-0.000135211
-6.65879e-05
-0.000142959
-2.45164e-05
-0.000108598
-2.20606e-07
-7.85901e-05
1.06204e-05
-6.07171e-05
1.41493e-05
-5.03768e-05
1.10645e-05
-4.23157e-05
-1.49952e-06
-3.63294e-05
-3.1395e-05
-4.20106e-05
-7.53766e-05
-0.00010751
-0.000103973
-0.000178736
-0.00012616
-0.000170392
-0.000162412
-5.22835e-05
0.000102925
-0.000185386
0.000106035
0.000186525
0.000146963
0.000481905
0.000106839
0.000592128
4.84635e-05
0.000604767
-3.35362e-06
0.000560338
-4.27625e-05
0.000430486
-6.38242e-05
0.000246823
-6.54473e-05
6.97802e-05
-6.01491e-05
-6.5787e-05
-4.74563e-05
-0.000147904
-2.14676e-05
-0.000168948
6.65288e-06
-0.000136719
2.12165e-05
-9.31541e-05
2.45287e-05
-6.40296e-05
2.11537e-05
-4.70021e-05
1.34627e-05
-3.46248e-05
3.28044e-07
-2.3195e-05
-2.47911e-05
-1.68917e-05
-6.89854e-05
-6.33162e-05
-0.000104269
-0.000143453
-0.00013331
-0.000141351
-0.000140034
-4.55601e-05
8.05742e-05
-0.000117683
9.5966e-05
9.0559e-05
0.000221538
0.000356333
0.000266285
0.000547381
0.000248058
0.000622995
0.000210573
0.000597823
0.000167739
0.00047332
0.000130682
0.00028388
0.000106315
9.41476e-05
8.62627e-05
-4.5735e-05
6.78479e-05
-0.000129489
5.71153e-05
-0.000158215
5.40099e-05
-0.000133613
5.147e-05
-9.06145e-05
4.5274e-05
-5.78337e-05
3.52905e-05
-3.70186e-05
2.23721e-05
-2.17064e-05
6.31023e-06
-7.13338e-06
-1.90284e-05
8.44669e-06
-6.56309e-05
-1.6714e-05
-0.000103156
-0.000105927
-0.000119293
-0.000125214
-0.000111023
-5.38303e-05
3.97698e-05
-7.02182e-05
6.33262e-05
2.72326e-05
0.000219322
0.000200338
0.00034849
0.000418213
0.00040666
0.000564826
0.000413083
0.000591401
0.000387263
0.00049914
0.000342933
0.000328208
0.000289378
0.000147704
0.000232249
1.13936e-05
0.000179514
-7.67536e-05
0.000136348
-0.00011505
0.000105567
-0.000102833
8.47282e-05
-6.97754e-05
6.84247e-05
-4.15303e-05
5.30276e-05
-2.16214e-05
3.69435e-05
-5.62248e-06
1.96242e-05
1.01857e-05
-2.65788e-06
3.07285e-05
-4.86699e-05
2.9298e-05
-9.47114e-05
-5.98859e-05
-0.0001152
-0.000104726
-9.70666e-05
-7.19636e-05
1.27208e-05
-7.00176e-05
3.9358e-05
-1.21254e-05
0.000161319
7.83772e-05
0.000316495
0.000263037
0.000433722
0.000447599
0.000495042
0.00053008
0.00050311
0.000491073
0.00046675
0.000364569
0.000401796
0.000212658
0.000327863
8.53257e-05
0.000255269
-4.15892e-06
0.000193364
-5.31458e-05
0.00014572
-5.51881e-05
0.000112841
-3.68967e-05
8.95578e-05
-1.82471e-05
7.09525e-05
-3.01624e-06
5.4066e-05
1.12638e-05
3.78276e-05
2.64239e-05
2.11632e-05
4.73927e-05
-1.64472e-05
6.69085e-05
-7.56182e-05
-7.14803e-07
-0.000103871
-7.64725e-05
-0.000102926
-7.29092e-05
-4.40186e-06
-8.58029e-05
1.96881e-05
-3.18133e-05
8.70652e-05
1.10006e-05
0.000209864
0.000140239
0.000333531
0.000323931
0.000423303
0.000440308
0.000463658
0.000450717
0.000453861
0.000374365
0.000406722
0.000259797
0.000343149
0.000148898
0.00027772
6.12699e-05
0.000215421
9.15379e-06
0.000165412
-5.17947e-06
0.000130001
-1.48586e-06
0.000105108
6.6457e-06
8.63183e-05
1.57734e-05
7.10208e-05
2.65612e-05
5.79955e-05
3.94492e-05
4.87573e-05
5.66309e-05
3.33231e-05
8.23428e-05
-2.93785e-05
6.19869e-05
-7.93117e-05
-2.65393e-05
-9.14352e-05
-6.07857e-05
-3.26445e-05
-6.31925e-05
-5.79788e-06
-2.60151e-05
9.56149e-06
-4.35863e-06
8.08976e-05
6.89025e-05
0.00018218
0.000222649
0.000273038
0.00034945
0.0003322
0.000391555
0.000351079
0.000355486
0.000335902
0.000274975
0.000300901
0.000183899
0.000255435
0.000106736
0.000206918
5.76701e-05
0.000166087
3.56522e-05
0.000135844
2.87564e-05
0.000113908
2.85818e-05
9.75975e-05
3.20838e-05
8.5436e-05
3.87225e-05
7.66052e-05
4.828e-05
7.26204e-05
6.06157e-05
7.26455e-05
8.23178e-05
3.89029e-05
9.57295e-05
-2.82919e-05
4.06557e-05
-6.20454e-05
-2.70321e-05
-4.52145e-05
-4.94754e-05
-2.53151e-05
-6.99812e-07
-4.0472e-05
1.07982e-05
-2.36881e-05
5.21185e-05
4.21727e-05
0.000156788
0.000119831
0.000271792
0.000186509
0.000324877
0.000228339
0.000313656
0.000243633
0.00025968
0.000236418
0.000191114
0.000213194
0.00012996
0.000183281
8.75833e-05
0.000155668
6.32653e-05
0.000133604
5.08205e-05
0.000116793
4.53921e-05
0.000104333
4.45437e-05
9.58552e-05
4.72004e-05
9.12534e-05
5.28818e-05
9.14012e-05
6.0468e-05
0.000101232
7.24869e-05
0.000105068
9.18938e-05
6.4311e-05
8.14127e-05
1.05177e-05
2.67612e-05
-1.75243e-05
-1.71725e-05
-3.07927e-05
3.00929e-05
-6.42873e-05
4.42929e-05
-7.70364e-05
6.48675e-05
-4.70031e-05
0.000126755
1.5604e-05
0.000209185
8.04794e-05
0.000260001
0.000133154
0.000260982
0.000165199
0.000227635
0.000176118
0.000180195
0.000170551
0.000135527
0.000156466
0.000101668
0.000140727
7.90038e-05
0.000126654
6.48932e-05
0.000115271
5.67759e-05
0.000106886
5.29286e-05
0.000101845
5.22411e-05
0.000100638
5.40891e-05
0.000103711
5.73946e-05
0.000115145
6.10535e-05
0.000136444
7.05942e-05
0.000142632
7.52253e-05
0.000117757
5.16359e-05
1.08066e-05
8.94265e-05
-2.46302e-05
5.47231e-05
-5.6093e-05
7.57559e-05
-7.63222e-05
8.50968e-05
-6.84856e-05
0.000118919
-2.82132e-05
0.000168913
2.64578e-05
0.00020533
7.7094e-05
0.000210346
0.000113222
0.000191507
0.000131851
0.000161565
0.000136327
0.000131051
0.000132511
0.000105485
0.000125284
8.62311e-05
0.000117559
7.26176e-05
0.000110852
6.34832e-05
0.000106016
5.77647e-05
0.000103693
5.45638e-05
0.000104579
5.32032e-05
0.000109103
5.28709e-05
0.000118478
5.16784e-05
0.000138397
5.06757e-05
0.000162528
5.10936e-05
0.000174038
4.01262e-05
1.39871e-05
0.000170858
-1.54033e-05
7.01265e-05
-3.59578e-05
9.63104e-05
-5.00902e-05
9.92292e-05
-4.78664e-05
0.000116695
-2.33978e-05
0.000144444
1.54538e-05
0.000166479
5.44276e-05
0.000171372
8.44797e-05
0.000161455
0.000102863
0.000143181
0.00011124
0.000122675
0.000112943
0.000103782
0.000111078
8.80959e-05
0.00010786
7.58352e-05
0.000104725
6.66182e-05
0.000102618
5.98724e-05
0.000102217
5.49648e-05
0.000104139
5.12813e-05
0.000108857
4.81523e-05
0.000116144
4.43921e-05
0.000128338
3.84819e-05
0.000147403
3.20281e-05
0.000165407
2.21222e-05
4.14172e-06
0.000175253
-8.44963e-06
7.85761e-05
-1.87547e-05
0.000106616
-2.47659e-05
0.00010524
-2.15239e-05
0.000113453
-5.62165e-06
0.000128542
1.95094e-05
0.000141348
4.61112e-05
0.00014477
6.83625e-05
0.000139204
8.39062e-05
0.000127638
9.30347e-05
0.000113547
9.73324e-05
9.94846e-05
9.85989e-05
8.68296e-05
9.83489e-05
7.60853e-05
9.77177e-05
6.72494e-05
9.75275e-05
6.00628e-05
9.83742e-05
5.41182e-05
0.000100713
4.89428e-05
0.000104913
4.39523e-05
0.000110708
3.85968e-05
0.000117775
3.14153e-05
0.000127521
2.22823e-05
0.000138713
1.09299e-05
-4.19528e-06
0.000147051
-4.29021e-06
8.28663e-05
-7.89848e-06
0.000110224
-8.67641e-06
0.000106018
-4.00285e-06
0.00010878
7.09325e-06
0.000117446
2.37839e-05
0.000124657
4.19418e-05
0.000126613
5.82379e-05
0.000122908
7.08643e-05
0.000115011
7.95209e-05
0.00010489
8.4839e-05
9.41665e-05
8.77979e-05
8.38708e-05
8.93666e-05
7.45167e-05
9.0361e-05
6.62552e-05
9.14185e-05
5.90053e-05
9.3014e-05
5.2523e-05
9.5475e-05
4.64818e-05
9.90147e-05
4.04128e-05
0.000103625
3.39864e-05
0.000108658
2.63821e-05
0.000113953
1.69871e-05
0.000119172
5.71158e-06
-7.34596e-06
0.000122323
-1.78801e-06
8.46544e-05
-1.66337e-06
0.000110099
2.17454e-07
0.000104137
5.11154e-06
0.000103885
1.39166e-05
0.000108641
2.57782e-05
0.000112795
3.88216e-05
0.000113569
5.11106e-05
0.000110619
6.13684e-05
0.000104754
6.91618e-05
9.70969e-05
7.46833e-05
8.86451e-05
7.84403e-05
8.0114e-05
8.10238e-05
7.19334e-05
8.29864e-05
6.42928e-05
8.4791e-05
5.72009e-05
8.67919e-05
5.05222e-05
8.92314e-05
4.40425e-05
9.22148e-05
3.74294e-05
9.57857e-05
3.04156e-05
9.95737e-05
2.25942e-05
0.000103002
1.35586e-05
0.000105553
3.16064e-06
-8.34925e-06
0.000106557
-1.40012e-07
8.47944e-05
1.97377e-06
0.000107985
5.17561e-06
0.000100935
1.00645e-05
9.89964e-05
1.71751e-05
0.00010153
2.61874e-05
0.000103783
3.60737e-05
0.000103683
4.56566e-05
0.000101036
5.40719e-05
9.63387e-05
6.09325e-05
9.02364e-05
6.62481e-05
8.33298e-05
7.02644e-05
7.60979e-05
7.33276e-05
6.88703e-05
7.5796e-05
6.18247e-05
7.79899e-05
5.50072e-05
8.01602e-05
4.83521e-05
8.24793e-05
4.17235e-05
8.49994e-05
3.49094e-05
8.77095e-05
2.77055e-05
9.04156e-05
1.98881e-05
9.27116e-05
1.12627e-05
9.41746e-05
1.69778e-06
-8.62166e-06
9.44471e-05
9.33028e-07
8.38612e-05
4.11941e-06
0.000104798
7.91541e-06
9.71393e-05
1.25627e-05
9.4349e-05
1.85261e-05
9.55665e-05
2.57117e-05
9.65975e-05
3.35148e-05
9.58796e-05
4.11953e-05
9.33559e-05
4.81771e-05
8.9357e-05
5.41577e-05
8.4256e-05
5.90774e-05
7.84103e-05
6.30411e-05
7.21344e-05
6.62426e-05
6.56691e-05
6.89045e-05
5.91629e-05
7.12387e-05
5.26731e-05
7.34144e-05
4.61766e-05
7.55459e-05
3.95922e-05
7.76628e-05
3.27926e-05
7.97261e-05
2.56423e-05
8.16096e-05
1.80047e-05
8.3085e-05
9.78748e-06
8.38746e-05
9.08358e-07
-8.46072e-06
8.37138e-05
1.58954e-06
8.22716e-05
5.32027e-06
0.000101068
9.30561e-06
9.31539e-05
1.36424e-05
9.00122e-05
1.87708e-05
9.04381e-05
2.46985e-05
9.06698e-05
3.10486e-05
8.95296e-05
3.73439e-05
8.70607e-05
4.32011e-05
8.35e-05
4.83945e-05
7.90628e-05
5.28454e-05
7.39595e-05
5.65856e-05
6.83943e-05
5.97159e-05
6.25389e-05
6.23683e-05
5.65106e-05
6.46762e-05
5.03655e-05
6.67488e-05
4.41041e-05
6.86578e-05
3.76834e-05
7.04213e-05
3.10293e-05
7.20033e-05
2.40604e-05
7.33129e-05
1.66953e-05
7.42099e-05
8.89062e-06
7.45084e-05
6.09955e-07
-7.9846e-06
7.40324e-05
1.95804e-06
8.03135e-05
5.8933e-06
9.71326e-05
9.84275e-06
8.92046e-05
1.38502e-05
8.6005e-05
1.83332e-05
8.59551e-05
2.33437e-05
8.56595e-05
2.86339e-05
8.42394e-05
3.38884e-05
8.18063e-05
3.88501e-05
7.85384e-05
4.33542e-05
7.45589e-05
4.73239e-05
6.99899e-05
5.07543e-05
6.49639e-05
5.36913e-05
5.9602e-05
5.62083e-05
5.39938e-05
5.83844e-05
4.81895e-05
6.02871e-05
4.22016e-05
6.19594e-05
3.60113e-05
6.34104e-05
2.95784e-05
6.46134e-05
2.28575e-05
6.55036e-05
1.58052e-05
6.59874e-05
8.40684e-06
6.59505e-05
6.46882e-07
-7.34154e-06
6.53075e-05
2.14003e-06
7.81736e-05
6.05836e-06
9.32144e-05
9.84285e-06
8.54202e-05
1.35186e-05
8.23293e-05
1.74766e-05
8.19971e-05
2.1783e-05
8.13531e-05
2.62664e-05
7.97561e-05
3.07126e-05
7.73602e-05
3.49474e-05
7.43037e-05
3.8851e-05
7.06554e-05
4.23558e-05
6.64851e-05
4.54404e-05
6.18793e-05
4.81191e-05
5.69233e-05
5.0428e-05
5.16849e-05
5.24108e-05
4.62067e-05
5.41061e-05
4.05063e-05
5.5538e-05
3.45793e-05
5.67096e-05
2.84068e-05
5.76015e-05
2.19656e-05
5.81721e-05
1.52346e-05
5.83653e-05
8.21366e-06
5.81171e-05
8.95083e-07
-6.62084e-06
5.73964e-05
2.20628e-06
7.59673e-05
5.96945e-06
8.94513e-05
9.51374e-06
8.1876e-05
1.28615e-05
7.89816e-05
1.63729e-05
7.84857e-05
2.0113e-05
7.76131e-05
2.39564e-05
7.59129e-05
2.7754e-05
7.35627e-05
3.13861e-05
7.06717e-05
3.47653e-05
6.7276e-05
3.78351e-05
6.34154e-05
4.05674e-05
5.91469e-05
4.29593e-05
5.45314e-05
4.50243e-05
4.96199e-05
4.6783e-05
4.4448e-05
4.8255e-05
3.90342e-05
4.94521e-05
3.33822e-05
5.03739e-05
2.7485e-05
5.10079e-05
2.13315e-05
5.13307e-05
1.49118e-05
5.13147e-05
8.22966e-06
5.09258e-05
1.28397e-06
-5.83914e-06
5.01441e-05
2.20163e-06
7.37658e-05
5.72995e-06
8.59231e-05
8.99025e-06
7.86159e-05
1.20154e-05
7.59564e-05
1.51332e-05
7.5368e-05
1.83987e-05
7.43478e-05
2.17152e-05
7.25965e-05
2.49763e-05
7.03017e-05
2.80985e-05
6.75495e-05
3.10177e-05
6.43568e-05
3.36871e-05
6.07459e-05
3.60779e-05
5.67561e-05
3.8178e-05
5.24312e-05
3.99873e-05
4.78105e-05
4.15121e-05
4.29231e-05
4.27592e-05
3.7787e-05
4.37319e-05
3.24095e-05
4.44274e-05
2.67895e-05
4.48369e-05
2.09221e-05
4.49463e-05
1.48023e-05
4.47407e-05
8.43533e-06
4.41998e-05
1.82475e-06
-4.96031e-06
4.3321e-05