/*--------------------------------*- C++ -*----------------------------------*\
| =========                 |                                                 |
| \\      /  F ield         | OpenFOAM: The Open Source CFD Toolbox           |
|  \\    /   O peration     | Version:  2206                                  |
|   \\  /    A nd           | Website:  www.openfoam.com                      |
|    \\/     M anipulation  |                                                 |
\*---------------------------------------------------------------------------*/
FoamFile
{
    version     2.0;
    format      ascii;
    arch        "LSB;label=32;scalar=64";
    class       volVectorField;
    location    "0.925";
    object      U;
}
// * * * * * * * * * * * * * * * * * * * * * * * * * * * * * * * * * * * * * //

dimensions      [0 1 -1 0 0 0 0];

internalField   nonuniform List<vector> 
2268
(
(0.011888 -0.0121053 0)
(0.00572478 0.00214793 0)
(-0.0512555 0.0175195 0)
(-0.124229 0.0187846 0)
(-0.160184 0.00821259 0)
(-0.158406 0.000318743 0)
(-0.157634 0.0010004 0)
(-0.169981 0.00309015 0)
(-0.188525 0.00403469 0)
(-0.20896 0.00339177 0)
(-0.221984 -0.00172486 0)
(-0.214133 -0.0113448 0)
(-0.189026 -0.0167615 0)
(-0.174103 -0.00606186 0)
(-0.207173 0.0190628 0)
(-0.286345 0.0267566 0)
(-0.315776 0.00534411 0)
(-0.248703 -0.0194945 0)
(-0.16797 -0.0243256 0)
(-0.0995942 -0.0208379 0)
(-0.0376349 -0.0179803 0)
(0.00623804 -0.0109049 0)
(0.0138056 -0.0011147 0)
(-0.028073 0.00402902 0)
(-0.0916838 0.0301438 0)
(-0.161124 0.0450788 0)
(-0.196379 0.0320599 0)
(-0.184026 0.00707585 0)
(-0.16617 -0.00204403 0)
(-0.165399 0.00505872 0)
(-0.181316 0.013013 0)
(-0.207307 0.0157835 0)
(-0.231651 0.0132081 0)
(-0.248356 0.00443507 0)
(-0.261618 -0.00599381 0)
(-0.28235 -0.00409794 0)
(-0.307738 0.016441 0)
(-0.322073 0.0337355 0)
(-0.299228 0.0197301 0)
(-0.211971 -0.0232507 0)
(-0.130655 -0.0531124 0)
(-0.0793534 -0.0530819 0)
(-0.0309889 -0.0446901 0)
(0.0225695 -0.0366656 0)
(0.0507966 -0.0124527 0)
(0.0308836 0.0116153 0)
(-0.0481467 0.0414664 0)
(-0.130245 0.0630326 0)
(-0.18896 0.0637173 0)
(-0.204982 0.033122 0)
(-0.194105 -0.00202701 0)
(-0.178351 -0.00872957 0)
(-0.171413 0.0070732 0)
(-0.181018 0.0222436 0)
(-0.199254 0.0268652 0)
(-0.215506 0.0228078 0)
(-0.226076 0.0134042 0)
(-0.233861 0.00393966 0)
(-0.241302 0.00320089 0)
(-0.242673 0.0123456 0)
(-0.219503 0.0108691 0)
(-0.155913 -0.0196872 0)
(-0.0888057 -0.0608387 0)
(-0.0584637 -0.0764161 0)
(-0.0397174 -0.0713388 0)
(-0.00850799 -0.0660481 0)
(0.0424949 -0.0582494 0)
(0.0730326 -0.0125555 0)
(0.0538808 0.0378342 0)
(-0.0504128 0.0824159 0)
(-0.127648 0.0949632 0)
(-0.181471 0.080807 0)
(-0.201992 0.0371161 0)
(-0.196531 -0.0071241 0)
(-0.182564 -0.0162886 0)
(-0.179997 0.00661616 0)
(-0.190212 0.0281309 0)
(-0.207635 0.0337866 0)
(-0.2221 0.0270766 0)
(-0.226348 0.01386 0)
(-0.21696 0.00137934 0)
(-0.191874 -0.00235594 0)
(-0.15256 0.000455382 0)
(-0.104307 -0.00757021 0)
(-0.0599785 -0.0350662 0)
(-0.0410423 -0.0652175 0)
(-0.0444886 -0.0772829 0)
(-0.0412989 -0.0782263 0)
(-0.0174845 -0.0828669 0)
(0.0238158 -0.0786794 0)
(0.0535722 -0.0160009 0)
(0.0637184 0.068109 0)
(-0.0431243 0.120065 0)
(-0.107537 0.12437 0)
(-0.159767 0.0987965 0)
(-0.182666 0.0436791 0)
(-0.177428 -0.0110739 0)
(-0.173655 -0.0196375 0)
(-0.183955 0.0106023 0)
(-0.201147 0.0370995 0)
(-0.222884 0.0431252 0)
(-0.241135 0.0323599 0)
(-0.245793 0.0111328 0)
(-0.228659 -0.0119425 0)
(-0.187164 -0.0259027 0)
(-0.130887 -0.0284273 0)
(-0.0791669 -0.0323238 0)
(-0.0501598 -0.0473641 0)
(-0.0480356 -0.0663667 0)
(-0.0533532 -0.0780954 0)
(-0.0449156 -0.0863582 0)
(-0.0236316 -0.0964512 0)
(-0.00232646 -0.0925685 0)
(0.00765519 -0.0286185 0)
(0.0650352 0.0894618 0)
(-0.0314562 0.150527 0)
(-0.0791759 0.149788 0)
(-0.125574 0.115746 0)
(-0.144265 0.0501807 0)
(-0.13951 -0.0123484 0)
(-0.151115 -0.01645 0)
(-0.182349 0.0200137 0)
(-0.210686 0.0491225 0)
(-0.238982 0.0541717 0)
(-0.262067 0.0387789 0)
(-0.2692 0.00814846 0)
(-0.249633 -0.0276677 0)
(-0.200948 -0.0511004 0)
(-0.137981 -0.0545194 0)
(-0.0855991 -0.0494097 0)
(-0.0590944 -0.05193 0)
(-0.0535209 -0.0653811 0)
(-0.0490059 -0.0814902 0)
(-0.0340119 -0.0946022 0)
(-0.016997 -0.102636 0)
(-0.0117556 -0.0963068 0)
(-0.0250637 -0.0464704 0)
(0.0616488 0.108968 0)
(-0.0166804 0.169021 0)
(-0.0454206 0.169284 0)
(-0.0837681 0.129608 0)
(-0.095345 0.059231 0)
(-0.0806833 -0.00183691 0)
(-0.113493 -0.00291107 0)
(-0.176694 0.0395 0)
(-0.218645 0.0672848 0)
(-0.255746 0.0695068 0)
(-0.284308 0.0482604 0)
(-0.293312 0.00640105 0)
(-0.266327 -0.0444819 0)
(-0.197822 -0.0813189 0)
(-0.116006 -0.0863041 0)
(-0.0575334 -0.0685051 0)
(-0.0340738 -0.0574372 0)
(-0.032005 -0.067002 0)
(-0.0293514 -0.08776 0)
(-0.0160804 -0.1044 0)
(0.0022076 -0.107569 0)
(0.0155733 -0.092045 0)
(-0.00078585 -0.0523972 0)
(0.024172 0.105335 0)
(-0.00160399 0.18223 0)
(-0.0112345 0.18272 0)
(-0.0365643 0.13732 0)
(-0.0212235 0.0513602 0)
(0.0122832 -0.0128227 0)
(-0.0682079 0.0195322 0)
(-0.165289 0.0676867 0)
(-0.22031 0.0878258 0)
(-0.266114 0.0846425 0)
(-0.300238 0.0559796 0)
(-0.308787 0.000524372 0)
(-0.265342 -0.0778975 0)
(-0.174489 -0.133569 0)
(-0.0814549 -0.12672 0)
(-0.0206824 -0.0876051 0)
(-0.00146882 -0.061211 0)
(-0.0086889 -0.0657915 0)
(-0.0150178 -0.0904064 0)
(-0.00410169 -0.110922 0)
(0.0285641 -0.112579 0)
(0.0687198 -0.0890918 0)
(0.0802692 -0.0329781 0)
(-0.0230553 0.130239 0)
(0.0447151 -0.0790681 0)
(0.289725 -0.085664 0)
(0.407299 -0.0433644 0)
(0.444804 0.00502622 0)
(0.455219 0.0327887 0)
(0.384837 0.0508704 0)
(0.235115 0.0406398 0)
(0.134298 0.0369199 0)
(-0.0136756 0.0502356 0)
(-0.206248 -0.015986 0)
(-0.171213 -0.0739991 0)
(-0.0330002 -0.118182 0)
(0.148948 -0.0801314 0)
(-0.162438 0.100074 0)
(-0.867818 0.10051 0)
(-1.01326 -0.0203243 0)
(-0.743115 -0.106744 0)
(-0.421779 -0.141056 0)
(-0.13637 -0.0872427 0)
(-0.0712737 -0.119976 0)
(0.169316 -0.0848538 0)
(0.346021 -0.0548084 0)
(0.542912 -0.0194789 0)
(0.70102 0.024519 0)
(0.713892 0.0956681 0)
(0.5683 0.101183 0)
(0.444791 0.0830282 0)
(0.329277 0.136279 0)
(0.0335622 0.113042 0)
(-0.112428 -0.0336838 0)
(-0.161867 -0.0984368 0)
(-0.209722 0.135826 0)
(-0.604887 0.342021 0)
(-1.10876 0.272923 0)
(-0.832505 -0.01159 0)
(-0.570991 -0.235588 0)
(-0.211845 -0.310271 0)
(-0.110846 -0.200333 0)
(-0.144047 -0.117617 0)
(0.202732 -0.260558 0)
(0.484139 -0.258302 0)
(0.734133 -0.179344 0)
(0.905467 -0.0432284 0)
(0.925787 0.134899 0)
(0.78622 0.176118 0)
(0.623025 0.141904 0)
(0.537865 0.207123 0)
(0.332552 0.239521 0)
(0.0696455 0.0902259 0)
(-0.164306 -0.027163 0)
(-0.391698 0.268961 0)
(-0.673804 0.507354 0)
(-0.796978 0.283209 0)
(-0.460759 -0.16668 0)
(-0.281255 -0.383782 0)
(0.0518439 -0.417301 0)
(0.0022319 -0.215956 0)
(-0.0853024 -0.145833 0)
(0.265203 -0.445011 0)
(0.452616 -0.408976 0)
(0.634719 -0.285306 0)
(0.786244 -0.111554 0)
(0.827031 0.132338 0)
(0.762689 0.235822 0)
(0.619528 0.195411 0)
(0.564312 0.254751 0)
(0.482795 0.348297 0)
(0.232926 0.228505 0)
(-0.0220407 0.0910504 0)
(-0.259619 0.336235 0)
(-0.416619 0.547876 0)
(-0.334966 0.226014 0)
(0.00520903 -0.260952 0)
(0.139826 -0.477922 0)
(0.206446 -0.453892 0)
(0.106872 -0.154408 0)
(0.0476392 -0.22167 0)
(0.224105 -0.535913 0)
(0.3468 -0.488587 0)
(0.473108 -0.341917 0)
(0.573818 -0.131624 0)
(0.61124 0.149613 0)
(0.556029 0.284962 0)
(0.451088 0.233755 0)
(0.448898 0.28243 0)
(0.475493 0.405702 0)
(0.353041 0.347973 0)
(0.149558 0.214563 0)
(0.0144217 0.375489 0)
(-0.0517022 0.53797 0)
(0.137534 0.125749 0)
(0.330112 -0.333918 0)
(0.414545 -0.514589 0)
(0.266752 -0.411038 0)
(0.140091 -0.0673793 0)
(0.128332 -0.307014 0)
(0.243761 -0.611721 0)
(0.477281 -0.535404 0)
(0.50103 -0.349925 0)
(0.351486 -0.105877 0)
(-0.0425512 0.277699 0)
(0.16167 0.323704 0)
(0.194835 0.212534 0)
(0.2803 0.266004 0)
(0.383442 0.404188 0)
(0.402458 0.413331 0)
(0.286134 0.314776 0)
(0.167579 0.381286 0)
(0.251045 0.470558 0)
(0.485083 0.0805768 0)
(0.545102 -0.333583 0)
(0.442432 -0.472875 0)
(0.19652 -0.332781 0)
(0.130073 0.0231924 0)
(0.100536 -0.406133 0)
(0.432058 -0.725963 0)
(0.544967 -0.542365 0)
(0.34698 -0.251731 0)
(-0.0690534 0.0603632 0)
(-0.405428 0.346952 0)
(-0.0177025 0.20804 0)
(0.0410605 0.125352 0)
(0.141893 0.209513 0)
(0.264738 0.343494 0)
(0.364798 0.40506 0)
(0.349622 0.370247 0)
(0.22106 0.373282 0)
(0.35043 0.353563 0)
(0.52195 -0.0366689 0)
(0.520496 -0.306065 0)
(0.31883 -0.374069 0)
(0.0660198 -0.241519 0)
(0.0967145 0.0941876 0)
(0.149464 -0.620177 0)
(0.44331 -0.805684 0)
(0.255039 -0.42811 0)
(-0.112681 -0.0535625 0)
(-0.419598 0.231359 0)
(-0.355611 0.277587 0)
(-0.0998724 0.07086 0)
(-0.142766 0.117343 0)
(-0.03244 0.194892 0)
(0.0914775 0.293866 0)
(0.242145 0.372675 0)
(0.332138 0.400729 0)
(0.271501 0.388295 0)
(0.343201 0.314065 0)
(0.452754 0.0521047 0)
(0.370434 -0.21009 0)
(0.0965402 -0.246623 0)
(-0.0615077 -0.164258 0)
(0.0833516 0.118119 0)
(0.0325551 0.145381 0)
(0.0546624 0.178816 0)
(0.0492565 0.140833 0)
(0.0657812 0.0640312 0)
(0.00861694 0.0495953 0)
(-0.0850141 0.110235 0)
(-0.15032 0.141587 0)
(-0.20436 0.146044 0)
(-0.259999 0.134902 0)
(-0.308496 0.0864273 0)
(-0.336717 -0.0229892 0)
(-0.325338 -0.140233 0)
(-0.270451 -0.186709 0)
(-0.187936 -0.167163 0)
(-0.116679 -0.112029 0)
(-0.0797663 -0.0685184 0)
(-0.0716188 -0.0629184 0)
(-0.0642757 -0.0868328 0)
(-0.0315852 -0.120431 0)
(0.0357282 -0.146114 0)
(0.11 -0.128394 0)
(0.170931 -0.0387541 0)
(0.197875 0.102374 0)
(0.0834543 0.148483 0)
(0.155926 0.228219 0)
(0.146889 0.152383 0)
(0.0896633 0.0738933 0)
(-0.0183412 0.0937516 0)
(-0.0706386 0.142835 0)
(-0.131452 0.170702 0)
(-0.227549 0.170316 0)
(-0.333698 0.166195 0)
(-0.472575 0.151872 0)
(-0.621356 0.082647 0)
(-0.692198 -0.0623733 0)
(-0.655485 -0.232764 0)
(-0.548845 -0.254539 0)
(-0.458269 -0.158511 0)
(-0.395946 -0.0816996 0)
(-0.33649 -0.0757235 0)
(-0.266839 -0.123378 0)
(-0.195012 -0.211782 0)
(-0.125828 -0.267635 0)
(-0.0619291 -0.240183 0)
(0.0029503 -0.129362 0)
(0.081614 0.0104803 0)
(0.0677634 -0.178225 0)
(0.223956 0.0446725 0)
(0.207625 0.183067 0)
(0.0423962 0.252672 0)
(-0.194149 0.223926 0)
(-0.356798 0.188476 0)
(-0.486523 0.259559 0)
(-0.736099 0.320609 0)
(-1.04438 0.3563 0)
(-1.31628 0.350743 0)
(-1.41467 0.148818 0)
(-1.29359 -0.237998 0)
(-1.13401 -0.443102 0)
(-1.00519 -0.377509 0)
(-0.924569 -0.235448 0)
(-0.843446 -0.169302 0)
(-0.77654 -0.209971 0)
(-0.735282 -0.277755 0)
(-0.713301 -0.323065 0)
(-0.710999 -0.315826 0)
(-0.682685 -0.274207 0)
(-0.614926 -0.200791 0)
(-0.553273 -0.0691296 0)
(-0.132089 -0.213071 0)
(-0.142281 0.200194 0)
(-0.315463 0.351004 0)
(-0.410953 0.409448 0)
(-0.569976 0.403853 0)
(-0.785425 0.454811 0)
(-1.04672 0.628893 0)
(-1.32457 0.684426 0)
(-1.56795 0.635638 0)
(-1.71666 0.433466 0)
(-1.63518 -0.0366937 0)
(-1.47899 -0.437428 0)
(-1.36942 -0.563748 0)
(-1.28179 -0.460119 0)
(-1.20886 -0.319427 0)
(-1.16974 -0.231991 0)
(-1.18329 -0.217229 0)
(-1.27848 -0.197986 0)
(-1.38837 -0.195219 0)
(-1.4303 -0.210646 0)
(-1.39013 -0.203571 0)
(-1.29861 -0.102866 0)
(-1.20397 0.0829859 0)
(-0.331587 0.116194 0)
(-0.571168 0.39457 0)
(-0.80638 0.473071 0)
(-1.05533 0.551087 0)
(-1.38357 0.599291 0)
(-1.35471 0.659381 0)
(-1.27235 0.873685 0)
(-1.33908 0.995214 0)
(-1.55179 0.84037 0)
(-1.73182 0.429633 0)
(-1.6828 -0.0425105 0)
(-1.54169 -0.555019 0)
(-1.48893 -0.636131 0)
(-1.42414 -0.507556 0)
(-1.37212 -0.309007 0)
(-1.38671 -0.151354 0)
(-1.46087 -0.0860586 0)
(-1.54766 -0.0837883 0)
(-1.60665 -0.19776 0)
(-1.66027 -0.363619 0)
(-1.6378 -0.468874 0)
(-1.54293 -0.434476 0)
(-1.41523 -0.231109 0)
(-0.356343 0.497978 0)
(-0.632633 0.667908 0)
(-1.0546 0.793658 0)
(-1.43539 0.802338 0)
(-1.51129 0.538837 0)
(-1.44663 0.404246 0)
(-1.26489 0.547767 0)
(-1.07535 0.788673 0)
(-1.06639 1.13408 0)
(-1.25367 0.733993 0)
(-1.40015 0.0333663 0)
(-1.46334 -0.563705 0)
(-1.4948 -0.664556 0)
(-1.46694 -0.562092 0)
(-1.41604 -0.360763 0)
(-1.38996 -0.128229 0)
(-1.42596 -0.0462088 0)
(-1.44078 -0.0307811 0)
(-1.37439 -0.0850365 0)
(-1.2687 -0.249576 0)
(-1.14224 -0.412185 0)
(-0.985596 -0.461562 0)
(-0.802626 -0.349226 0)
(-0.390781 0.853649 0)
(-0.32297 1.06344 0)
(-0.894186 1.43515 0)
(-1.23684 1.12459 0)
(-1.27556 0.69834 0)
(-1.31987 0.390335 0)
(-1.25342 0.469166 0)
(-1.14798 0.674209 0)
(-1.00229 1.03136 0)
(-0.946032 0.971249 0)
(-1.1383 0.258469 0)
(-1.29327 -0.396741 0)
(-1.45131 -0.650216 0)
(-1.4805 -0.578874 0)
(-1.39474 -0.424834 0)
(-1.29313 -0.203621 0)
(-1.14608 -0.0490084 0)
(-1.05936 -0.155789 0)
(-0.93793 -0.335309 0)
(-0.774467 -0.518555 0)
(-0.685786 -0.611624 0)
(-0.564945 -0.665068 0)
(-0.37518 -0.603122 0)
(-0.468145 1.09872 0)
(-0.145312 1.54004 0)
(-0.769954 1.88721 0)
(-0.804815 1.29239 0)
(-0.827816 0.801505 0)
(-0.960538 0.430615 0)
(-1.1541 0.437081 0)
(-1.20494 0.65238 0)
(-1.17728 0.899739 0)
(-1.05659 0.896387 0)
(-1.098 0.332814 0)
(-1.26516 -0.250468 0)
(-1.47353 -0.560157 0)
(-1.51021 -0.621199 0)
(-1.32903 -0.514584 0)
(-1.15935 -0.386299 0)
(-0.962156 -0.276927 0)
(-0.757471 -0.30409 0)
(-0.617558 -0.428937 0)
(-0.569079 -0.511968 0)
(-0.476716 -0.620436 0)
(-0.352153 -0.73357 0)
(-0.243212 -0.746779 0)
(-0.573401 1.30056 0)
(-0.0180074 1.86207 0)
(-0.64191 1.98511 0)
(-0.419822 1.29403 0)
(-0.53114 0.839567 0)
(-0.723007 0.63684 0)
(-0.937299 0.569132 0)
(-1.08611 0.672056 0)
(-1.13239 0.871882 0)
(-1.06071 0.824613 0)
(-1.02483 0.387062 0)
(-1.16336 -0.0967551 0)
(-1.40601 -0.4383 0)
(-1.56064 -0.661258 0)
(-1.48159 -0.702772 0)
(-1.28348 -0.582991 0)
(-1.05755 -0.437989 0)
(-0.862802 -0.388868 0)
(-0.718263 -0.450527 0)
(-0.53176 -0.582822 0)
(-0.340428 -0.717689 0)
(-0.227641 -0.841229 0)
(-0.359828 -0.792946 0)
(-0.688119 1.53852 0)
(0.1184 1.92929 0)
(-0.579908 1.91038 0)
(-0.142985 1.29922 0)
(-0.395883 0.953457 0)
(-0.556164 0.842691 0)
(-0.756702 0.781997 0)
(-0.887976 0.786448 0)
(-0.91534 0.834639 0)
(-0.856568 0.750533 0)
(-0.832979 0.445322 0)
(-0.956215 0.101393 0)
(-1.17007 -0.215624 0)
(-1.39269 -0.511277 0)
(-1.58515 -0.766508 0)
(-1.6236 -0.870518 0)
(-1.41026 -0.741684 0)
(-1.14759 -0.694111 0)
(-0.836905 -0.769802 0)
(-0.511222 -1.00452 0)
(-0.102215 -0.962804 0)
(-0.277444 -0.720684 0)
(-0.419523 -0.758128 0)
(-0.766352 1.74835 0)
(0.277144 2.00268 0)
(-0.737163 1.75543 0)
(-0.0334194 1.32167 0)
(-0.385343 1.09935 0)
(-0.45735 1.00909 0)
(-0.592548 0.932612 0)
(-0.666283 0.882014 0)
(-0.663845 0.835635 0)
(-0.603323 0.720639 0)
(-0.578638 0.504765 0)
(-0.660712 0.255204 0)
(-0.818342 0.0111391 0)
(-1.00459 -0.22662 0)
(-1.24783 -0.508432 0)
(-1.52723 -0.799089 0)
(-1.55974 -0.943912 0)
(-1.13669 -1.12322 0)
(-0.724156 -1.3244 0)
(-0.643021 -1.36165 0)
(-0.399489 -0.970851 0)
(-0.1813 -0.633411 0)
(-0.262456 -0.819446 0)
(-0.788575 1.87196 0)
(0.483415 2.44357 0)
(-0.740907 1.62892 0)
(-0.0817028 1.33287 0)
(-0.438806 1.21678 0)
(-0.466518 1.1138 0)
(-0.542791 1.0027 0)
(-0.544666 0.899469 0)
(-0.490818 0.80004 0)
(-0.40053 0.679184 0)
(-0.330953 0.525056 0)
(-0.321318 0.347911 0)
(-0.369083 0.143839 0)
(-0.453671 -0.0809026 0)
(-0.560865 -0.321104 0)
(-0.710529 -0.616658 0)
(-0.814054 -0.929737 0)
(-0.707031 -1.19986 0)
(-0.644081 -1.34644 0)
(-0.655546 -1.37399 0)
(-0.574018 -1.2424 0)
(-0.313263 -0.83671 0)
(-0.0822125 -0.794103 0)
(-0.753007 1.87313 0)
(0.600179 2.71515 0)
(-0.455512 1.67874 0)
(-0.188651 1.41408 0)
(-0.540163 1.33879 0)
(-0.602383 1.1927 0)
(-0.660498 1.02168 0)
(-0.614171 0.851494 0)
(-0.506637 0.698819 0)
(-0.36438 0.563994 0)
(-0.226278 0.440662 0)
(-0.11771 0.319802 0)
(-0.0558622 0.183044 0)
(-0.0560137 0.00967174 0)
(-0.121577 -0.222043 0)
(-0.246558 -0.511101 0)
(-0.410997 -0.848259 0)
(-0.550618 -1.22084 0)
(-0.586069 -1.36678 0)
(-0.636022 -1.39804 0)
(-0.667634 -1.32266 0)
(-0.645359 -1.06327 0)
(-0.521009 -0.837169 0)
(-0.629537 1.71921 0)
(0.421015 2.65029 0)
(-0.287968 1.89155 0)
(-0.332023 1.6311 0)
(-0.717227 1.51952 0)
(-0.873242 1.29529 0)
(-0.951697 1.03119 0)
(-0.876918 0.771226 0)
(-0.712317 0.550994 0)
(-0.508703 0.385703 0)
(-0.309554 0.2608 0)
(-0.131216 0.165247 0)
(0.0130132 0.0786388 0)
(0.107489 -0.0113566 0)
(0.123755 -0.141705 0)
(0.0615386 -0.33188 0)
(-0.103977 -0.593932 0)
(-0.389726 -0.997809 0)
(-0.552799 -1.29902 0)
(-0.601474 -1.33988 0)
(-0.674453 -1.26377 0)
(-0.735765 -1.02795 0)
(-0.941914 -0.561024 0)
(-0.367158 1.85936 0)
(0.196766 2.50952 0)
(-0.252335 2.19776 0)
(-0.506982 1.97353 0)
(-0.969664 1.80494 0)
(-1.24193 1.47341 0)
(-1.35409 1.03494 0)
(-1.2665 0.613257 0)
(-1.04492 0.310929 0)
(-0.750333 0.130814 0)
(-0.472308 0.0326072 0)
(-0.248541 -0.0366183 0)
(-0.0705138 -0.088006 0)
(0.0572988 -0.131513 0)
(0.128278 -0.182819 0)
(0.126933 -0.273064 0)
(0.039037 -0.420689 0)
(-0.216139 -0.736891 0)
(-0.506988 -1.17989 0)
(-0.575603 -1.27595 0)
(-0.648562 -1.17401 0)
(-0.74642 -0.832663 0)
(-1.10191 -0.143553 0)
(-0.125818 2.0068 0)
(0.120906 2.58514 0)
(-0.257716 2.47315 0)
(-0.555233 2.38645 0)
(-1.05826 2.16991 0)
(-1.39201 1.65988 0)
(-1.54392 1.00837 0)
(-1.51623 0.426493 0)
(-1.27881 -0.0719324 0)
(-0.94772 -0.284185 0)
(-0.576357 -0.289299 0)
(-0.293185 -0.250235 0)
(-0.106813 -0.234778 0)
(0.00318344 -0.239317 0)
(0.0713332 -0.240054 0)
(0.0980799 -0.253172 0)
(0.0566778 -0.303189 0)
(-0.0875582 -0.47601 0)
(-0.402022 -0.941183 0)
(-0.556649 -1.18878 0)
(-0.610535 -1.07685 0)
(-0.740328 -0.616899 0)
(-1.10733 0.197818 0)
(0.222798 1.84907 0)
(0.393661 2.83847 0)
(0.0215209 2.77986 0)
(-0.288677 2.75231 0)
(-0.723732 2.554 0)
(-1.02522 1.90482 0)
(-1.11317 1.05783 0)
(-1.08515 0.25667 0)
(-0.993068 -0.385574 0)
(-0.849566 -0.671215 0)
(-0.520431 -0.661515 0)
(-0.232101 -0.49152 0)
(-0.0539114 -0.369616 0)
(0.0316248 -0.309027 0)
(0.065953 -0.272504 0)
(0.0722529 -0.243716 0)
(0.0406389 -0.22994 0)
(-0.0468131 -0.299063 0)
(-0.302732 -0.698584 0)
(-0.511445 -1.06371 0)
(-0.593149 -0.984872 0)
(-0.74769 -0.342204 0)
(-0.938829 0.592285 0)
(0.351726 1.28892 0)
(0.80997 2.82787 0)
(0.721303 3.17038 0)
(0.421914 3.1079 0)
(0.0650878 2.87398 0)
(-0.218196 2.20217 0)
(-0.27913 1.23319 0)
(-0.361062 0.330356 0)
(-0.258079 -0.385469 0)
(-0.292789 -0.82906 0)
(-0.221521 -0.899725 0)
(-0.043341 -0.694589 0)
(0.0739671 -0.477974 0)
(0.122962 -0.345382 0)
(0.121818 -0.268898 0)
(0.0929228 -0.213044 0)
(0.0424941 -0.162701 0)
(-0.029248 -0.155382 0)
(-0.232475 -0.452348 0)
(-0.500735 -0.868793 0)
(-0.645929 -0.829979 0)
(-0.731965 -0.234829 0)
(-0.708223 0.575771 0)
(0.125392 0.654587 0)
(0.955052 2.3493 0)
(1.40128 3.24159 0)
(1.42184 3.42906 0)
(1.20703 3.18079 0)
(0.957521 2.47985 0)
(0.775854 1.4676 0)
(0.70566 0.455803 0)
(0.59767 -0.308594 0)
(0.463269 -0.762872 0)
(0.285484 -0.913508 0)
(0.257399 -0.758834 0)
(0.268913 -0.513211 0)
(0.255815 -0.337302 0)
(0.214708 -0.23112 0)
(0.154392 -0.15492 0)
(0.0774927 -0.0838229 0)
(-0.00204145 -0.0211438 0)
(-0.213593 -0.221672 0)
(-0.496682 -0.676504 0)
(-0.595425 -0.724965 0)
(-0.657576 -0.23902 0)
(-0.496417 0.321387 0)
(0.00100069 0.2711 0)
(0.745896 1.49038 0)
(1.59159 2.69474 0)
(2.10254 3.33982 0)
(2.23528 3.33026 0)
(2.14915 2.71608 0)
(1.96374 1.71239 0)
(1.74827 0.680044 0)
(1.45267 -0.0926957 0)
(1.13229 -0.554899 0)
(0.815194 -0.746506 0)
(0.604183 -0.654334 0)
(0.48715 -0.44581 0)
(0.402565 -0.274916 0)
(0.322724 -0.161809 0)
(0.24132 -0.0753966 0)
(0.151171 0.00725308 0)
(0.0656423 0.107929 0)
(-0.0989386 0.0365919 0)
(-0.43573 -0.457666 0)
(-0.569379 -0.629922 0)
(-0.610705 -0.364354 0)
(-0.470428 0.104711 0)
(0.0531388 0.0137403 0)
(0.402442 0.621966 0)
(1.27145 1.78239 0)
(2.09156 2.76645 0)
(2.56676 3.10384 0)
(2.72957 2.7516 0)
(2.64755 1.93433 0)
(2.37224 1.02467 0)
(1.98547 0.290259 0)
(1.57083 -0.202509 0)
(1.18142 -0.447242 0)
(0.872975 -0.42929 0)
(0.668785 -0.292625 0)
(0.531937 -0.164594 0)
(0.426187 -0.0684026 0)
(0.334861 0.0146231 0)
(0.247201 0.0984944 0)
(0.160398 0.213667 0)
(0.0930457 0.272099 0)
(-0.299407 -0.218487 0)
(-0.494775 -0.510131 0)
(-0.562865 -0.404224 0)
(-0.525082 0.0347189 0)
(0.0468793 -0.138508 0)
(0.14821 0.160762 0)
(0.717685 1.00229 0)
(1.50584 2.03256 0)
(2.11055 2.61218 0)
(2.45072 2.56928 0)
(2.51976 2.04017 0)
(2.34711 1.3186 0)
(2.02415 0.667744 0)
(1.66912 0.177799 0)
(1.31004 -0.102983 0)
(0.996402 -0.154543 0)
(0.772454 -0.0997671 0)
(0.620239 -0.0299759 0)
(0.508648 0.0349976 0)
(0.420296 0.102984 0)
(0.347606 0.179163 0)
(0.27921 0.284085 0)
(0.274036 0.421661 0)
(0.0213788 0.192925 0)
(-0.333299 -0.306448 0)
(-0.46643 -0.373471 0)
(-0.441278 -0.0942549 0)
(-0.0188301 -0.169765 0)
(-0.0726271 -0.0261572 0)
(0.136516 0.519941 0)
(0.716816 1.44684 0)
(1.28825 2.10873 0)
(1.69117 2.27013 0)
(1.8838 1.98391 0)
(1.87162 1.46927 0)
(1.72112 0.926364 0)
(1.50183 0.473203 0)
(1.23316 0.196534 0)
(0.986456 0.0959753 0)
(0.796961 0.0817226 0)
(0.662089 0.0993548 0)
(0.562887 0.131901 0)
(0.488117 0.178849 0)
(0.434662 0.240144 0)
(0.393693 0.320465 0)
(0.40375 0.460886 0)
(0.363894 0.476054 0)
(-0.00280094 0.00649989 0)
(-0.260731 -0.296277 0)
(-0.350193 -0.251446 0)
(-0.0582496 -0.0759493 0)
(-0.245866 -0.00402099 0)
(-0.285782 0.310748 0)
(0.00700411 1.00214 0)
(0.471397 1.67265 0)
(0.869785 1.93273 0)
(1.14797 1.81438 0)
(1.29027 1.45907 0)
(1.30828 1.02667 0)
(1.21551 0.650608 0)
(1.06405 0.408225 0)
(0.903009 0.280315 0)
(0.768982 0.22349 0)
(0.666618 0.205265 0)
(0.58945 0.210972 0)
(0.53372 0.235711 0)
(0.499646 0.277516 0)
(0.48655 0.331287 0)
(0.506415 0.425209 0)
(0.5848 0.548224 0)
(0.49538 0.398203 0)
(0.178977 -0.00261873 0)
(-0.0420468 -0.224121 0)
(-0.0626677 0.0850653 0)
(-0.289435 0.143959 0)
(-0.449039 0.296636 0)
(-0.391807 0.72866 0)
(-0.0820723 1.27997 0)
(0.279463 1.57247 0)
(0.597828 1.55102 0)
(0.823582 1.31737 0)
(0.933093 1.00555 0)
(0.942824 0.727053 0)
(0.881738 0.523107 0)
(0.796059 0.39424 0)
(0.714464 0.31987 0)
(0.64604 0.281325 0)
(0.593028 0.267559 0)
(0.556789 0.272387 0)
(0.539452 0.292929 0)
(0.545668 0.322545 0)
(0.574378 0.361756 0)
(0.672449 0.453107 0)
(0.773787 0.485827 0)
(0.713567 0.277347 0)
(0.576413 0.0172276 0)
(-0.0462236 0.2374 0)
(-0.23135 0.32866 0)
(-0.389165 0.394419 0)
(-0.431906 0.631832 0)
(-0.280819 0.977822 0)
(0.000975234 1.2255 0)
(0.293358 1.25145 0)
(0.52844 1.11926 0)
(0.674773 0.920746 0)
(0.731321 0.724065 0)
(0.726714 0.565856 0)
(0.693055 0.452656 0)
(0.650928 0.376815 0)
(0.611199 0.329236 0)
(0.579617 0.302685 0)
(0.559882 0.291639 0)
(0.554955 0.29255 0)
(0.570157 0.300491 0)
(0.60335 0.304033 0)
(0.674985 0.320778 0)
(0.808768 0.353695 0)
(0.912118 0.296521 0)
(0.940585 0.118999 0)
(-0.0284943 0.344313 0)
(-0.145373 0.474433 0)
(-0.24674 0.499636 0)
(-0.286944 0.623637 0)
(-0.212742 0.817652 0)
(-0.0247047 0.973699 0)
(0.19572 1.00755 0)
(0.385452 0.939648 0)
(0.514865 0.817469 0)
(0.583138 0.685037 0)
(0.606478 0.567863 0)
(0.603257 0.474446 0)
(0.587806 0.40452 0)
(0.569609 0.35457 0)
(0.554761 0.320431 0)
(0.547398 0.297988 0)
(0.550637 0.283613 0)
(0.568124 0.273479 0)
(0.600562 0.258655 0)
(0.646834 0.231916 0)
(0.732219 0.207535 0)
(0.841465 0.160917 0)
(0.92711 0.0536369 0)
(-0.0179377 0.405737 0)
(-0.0777008 0.556187 0)
(-0.125339 0.556711 0)
(-0.136909 0.618515 0)
(-0.0865573 0.725525 0)
(0.0326419 0.814386 0)
(0.179726 0.838591 0)
(0.314208 0.801529 0)
(0.415886 0.725932 0)
(0.480616 0.636393 0)
(0.514661 0.549703 0)
(0.527797 0.474221 0)
(0.529159 0.412401 0)
(0.5258 0.363549 0)
(0.522884 0.325598 0)
(0.524045 0.295795 0)
(0.532135 0.271096 0)
(0.549061 0.248013 0)
(0.576867 0.222302 0)
(0.6104 0.18349 0)
(0.654024 0.132202 0)
(0.713059 0.0679224 0)
(0.773897 -0.0161968 0)
(-0.0120888 0.437944 0)
(-0.0361804 0.589893 0)
(-0.0488456 0.572822 0)
(-0.0414568 0.598639 0)
(0.00109742 0.658485 0)
(0.0803671 0.709317 0)
(0.177665 0.723953 0)
(0.272369 0.701037 0)
(0.350659 0.651179 0)
(0.407307 0.588096 0)
(0.443801 0.522734 0)
(0.464927 0.461647 0)
(0.476137 0.407746 0)
(0.482255 0.361601 0)
(0.4872 0.3224 0)
(0.493835 0.288431 0)
(0.504497 0.25751 0)
(0.520205 0.226656 0)
(0.542523 0.193773 0)
(0.569156 0.152947 0)
(0.596816 0.100556 0)
(0.625419 0.0370021 0)
(0.651841 -0.035717 0)
(-0.00748815 0.453308 0)
(-0.0122261 0.59661 0)
(-0.00566182 0.56804 0)
(0.011311 0.572859 0)
(0.0480733 0.606827 0)
(0.105003 0.636083 0)
(0.173757 0.643298 0)
(0.243177 0.626204 0)
(0.304317 0.590387 0)
(0.352681 0.543708 0)
(0.387921 0.492968 0)
(0.412184 0.442797 0)
(0.428583 0.395781 0)
(0.440243 0.352912 0)
(0.449939 0.314056 0)
(0.459807 0.278219 0)
(0.471582 0.243966 0)
(0.485996 0.209114 0)
(0.503694 0.172082 0)
(0.524087 0.130095 0)
(0.544231 0.0803424 0)
(0.560683 0.0216729 0)
(0.572152 -0.0444305 0)
(-0.00345665 0.457879 0)
(0.00239065 0.589265 0)
(0.0186977 0.553547 0)
(0.0395163 0.546491 0)
(0.071458 0.565073 0)
(0.115427 0.5816 0)
(0.167219 0.583211 0)
(0.220365 0.568453 0)
(0.269132 0.540637 0)
(0.310173 0.504274 0)
(0.342615 0.463477 0)
(0.367292 0.421387 0)
(0.385899 0.380048 0)
(0.400381 0.340477 0)
(0.412599 0.302853 0)
(0.424085 0.266659 0)
(0.436034 0.230975 0)
(0.449017 0.194372 0)
(0.463158 0.155537 0)
(0.47807 0.112933 0)
(0.492199 0.0651149 0)
(0.502767 0.0111954 0)
(0.508536 -0.047572 0)
(-0.000391797 0.455303 0)
(0.0115346 0.574352 0)
(0.0323906 0.534207 0)
(0.054346 0.520831 0)
(0.0824788 0.530371 0)
(0.118136 0.538788 0)
(0.159008 0.536413 0)
(0.201122 0.522616 0)
(0.240788 0.49953 0)
(0.275648 0.469755 0)
(0.304794 0.435754 0)
(0.328428 0.399608 0)
(0.347414 0.362836 0)
(0.362914 0.326324 0)
(0.376125 0.290363 0)
(0.38809 0.254734 0)
(0.399594 0.218864 0)
(0.411039 0.181868 0)
(0.422404 0.142819 0)
(0.433248 0.100763 0)
(0.442719 0.0550431 0)
(0.449154 0.00532083 0)
(0.45161 -0.0474175 0)
(0.00164669 0.448231 0)
(0.0169588 0.555293 0)
(0.0396314 0.512972 0)
(0.0613707 0.496649 0)
(0.086422 0.500762 0)
(0.116304 0.503901 0)
(0.149663 0.498771 0)
(0.183953 0.485372 0)
(0.216778 0.465188 0)
(0.246503 0.439725 0)
(0.272343 0.410439 0)
(0.294212 0.378688 0)
(0.312504 0.345566 0)
(0.327876 0.311786 0)
(0.341065 0.277659 0)
(0.352742 0.243136 0)
(0.363412 0.207889 0)
(0.373321 0.171394 0)
(0.38244 0.133086 0)
(0.390391 0.0924006 0)
(0.396612 0.0490417 0)
(0.400059 0.00291658 0)
(0.400167 -0.0452343 0)
(0.00293224 0.438497 0)
(0.0198238 0.534367 0)
(0.0427494 0.491452 0)
(0.0635741 0.474188 0)
(0.0860334 0.475026 0)
(0.111641 0.474688 0)
(0.139556 0.467699 0)
(0.168081 0.454507 0)
(0.195639 0.436205 0)
(0.221099 0.413659 0)
(0.243829 0.387722 0)
(0.26363 0.359273 0)
(0.280634 0.329088 0)
(0.295185 0.297718 0)
(0.307709 0.265451 0)
(0.318616 0.232331 0)
(0.328217 0.198198 0)
(0.336653 0.162762 0)
(0.343891 0.125701 0)
(0.349658 0.0867064 0)
(0.353565 0.0456554 0)
(0.354919 0.00253881 0)
(0.353481 -0.0420319 0)
(0.00373095 0.427352 0)
(0.0210141 0.513037 0)
(0.0432401 0.470535 0)
(0.0627875 0.453502 0)
(0.082983 0.452376 0)
(0.105249 0.449738 0)
(0.129025 0.441543 0)
(0.153139 0.42853 0)
(0.17653 0.411537 0)
(0.198416 0.391055 0)
(0.218303 0.367575 0)
(0.23596 0.341669 0)
(0.251383 0.313882 0)
(0.264721 0.284634 0)
(0.276203 0.254176 0)
(0.28606 0.222594 0)
(0.294472 0.189835 0)
(0.301511 0.155749 0)
(0.307142 0.120168 0)
(0.31118 0.0829325 0)
(0.313388 0.0440214 0)
(0.313326 0.00347055 0)
(0.310968 -0.0381613 0)
(0.00422399 0.415583 0)
(0.0211684 0.49224 0)
(0.0421032 0.450742 0)
(0.0601904 0.434587 0)
(0.0783435 0.432305 0)
(0.0978655 0.428148 0)
(0.118354 0.419215 0)
(0.13896 0.406418 0)
(0.158964 0.390414 0)
(0.177817 0.371469 0)
(0.195136 0.349863 0)
(0.210699 0.325972 0)
(0.224432 0.300182 0)
(0.236371 0.27281 0)
(0.246619 0.244066 0)
(0.255292 0.214051 0)
(0.26248 0.182771 0)
(0.268214 0.150161 0)
(0.272464 0.11614 0)
(0.275116 0.0806341 0)
(0.276046 0.0436687 0)
(0.275008 0.00529105 0)
(0.272048 -0.0340182 0)
(0.00452112 0.403679 0)
(0.0207084 0.472553 0)
(0.0399987 0.432389 0)
(0.056538 0.417426 0)
(0.0727974 0.414483 0)
(0.0899755 0.409336 0)
(0.107747 0.4 0)
(0.125468 0.387473 0)
(0.142643 0.372275 0)
(0.158887 0.354538 0)
(0.1739 0.33442 0)
(0.187483 0.312174 0)
(0.199532 0.288077 0)
(0.210018 0.262369 0)
(0.218967 0.235224 0)
(0.226418 0.206744 0)
(0.232403 0.176961 0)
(0.236924 0.145859 0)
(0.239952 0.113402 0)
(0.241411 0.0795552 0)
(0.241239 0.0443532 0)
(0.239279 0.00783398 0)
(0.235633 -0.0295946 0)
(0.00468223 0.391898 0)
(0.0198831 0.454235 0)
(0.0373397 0.415615 0)
(0.0522875 0.401963 0)
(0.066749 0.398645 0)
(0.0818594 0.392864 0)
(0.0973027 0.383361 0)
(0.112571 0.371154 0)
(0.127326 0.356653 0)
(0.141288 0.339911 0)
(0.154226 0.321018 0)
(0.165966 0.30015 0)
(0.176391 0.277512 0)
(0.18544 0.25329 0)
(0.193087 0.227628 0)
(0.199319 0.200622 0)
(0.204122 0.172316 0)
(0.207465 0.142718 0)
(0.209301 0.111812 0)
(0.209554 0.0795832 0)
(0.208167 0.0460594 0)
(0.205007 0.0112735 0)
(0.200228 -0.024395 0)
(0.004738 0.380598 0)
(0.0188603 0.437605 0)
(0.0344318 0.400659 0)
(0.0477559 0.388294 0)
(0.0604831 0.384754 0)
(0.0737318 0.378583 0)
(0.0871249 0.369078 0)
(0.100251 0.357232 0)
(0.112886 0.34336 0)
(0.124823 0.327466 0)
(0.135879 0.309607 0)
(0.145905 0.289917 0)
(0.154783 0.268552 0)
(0.162428 0.245664 0)
(0.168778 0.221376 0)
(0.173777 0.19578 0)
(0.177362 0.168929 0)
(0.17946 0.140843 0)
(0.17998 0.111525 0)
(0.178815 0.0809684 0)
(0.175885 0.0491914 0)
(0.171086 0.0161967 0)
(0.164657 -0.0177082 0)
(0.00468556 0.369309 0)
(0.0175988 0.42201 0)
(0.0312311 0.387072 0)
(0.0428649 0.375958 0)
(0.0538498 0.372232 0)
(0.0653245 0.365818 0)
(0.0767854 0.356428 0)
(0.0879204 0.344977 0)
(0.0985845 0.331691 0)
(0.108616 0.316551 0)
(0.117875 0.299605 0)
(0.126228 0.280961 0)
(0.13356 0.260752 0)
(0.139772 0.239108 0)
(0.14477 0.216146 0)
(0.148459 0.191958 0)
(0.150736 0.166607 0)
(0.151479 0.140128 0)
(0.150557 0.112533 0)
(0.147835 0.0838087 0)
(0.143235 0.0539175 0)
(0.136761 0.0227503 0)
(0.128715 -0.00964174 0)
(0.00460753 0.360626 0)
(0.0166185 0.410133 0)
(0.0286705 0.376931 0)
(0.0387508 0.366782 0)
(0.0482413 0.362909 0)
(0.0582742 0.356395 0)
(0.0681531 0.347174 0)
(0.0776533 0.336096 0)
(0.0866932 0.323304 0)
(0.0951428 0.308775 0)
(0.102896 0.292558 0)
(0.109835 0.274749 0)
(0.115847 0.25547 0)
(0.12082 0.234849 0)
(0.124636 0.213004 0)