/*--------------------------------*- C++ -*----------------------------------*\
| =========                 |                                                 |
| \\      /  F ield         | OpenFOAM: The Open Source CFD Toolbox           |
|  \\    /   O peration     | Version:  2206                                  |
|   \\  /    A nd           | Website:  www.openfoam.com                      |
|    \\/     M anipulation  |                                                 |
\*---------------------------------------------------------------------------*/
FoamFile
{
    version     2.0;
    format      ascii;
    arch        "LSB;label=32;scalar=64";
    class       surfaceScalarField;
    location    "0.875";
    object      alphaPhi0.water;
}
// * * * * * * * * * * * * * * * * * * * * * * * * * * * * * * * * * * * * * //

dimensions      [0 3 -1 0 0 0 0];

oriented        oriented;

internalField   nonuniform List<scalar> 
4432
(
-6.45822e-07
6.45822e-07
-6.72244e-07
2.64196e-08
-1.43625e-08
-6.57884e-07
1.01082e-06
-1.02518e-06
2.15646e-06
-1.14564e-06
3.15889e-06
-1.00243e-06
3.88578e-06
-7.26892e-07
4.30573e-06
-4.1996e-07
4.43848e-06
-1.32747e-07
4.33593e-06
1.02544e-07
4.06209e-06
2.73841e-07
3.69011e-06
3.71972e-07
3.2576e-06
4.32507e-07
2.756e-06
5.01606e-07
2.14167e-06
6.14328e-07
1.35848e-06
7.83183e-07
3.62863e-07
9.95614e-07
-8.98695e-07
1.26156e-06
-2.23047e-06
1.33177e-06
-3.12162e-06
8.91149e-07
-3.08189e-06
-3.97412e-08
-1.91722e-06
-1.16466e-06
-1.91723e-06
-7.69639e-07
1.41546e-06
-7.45004e-07
1.78035e-09
-9.6139e-08
-1.30675e-06
9.20551e-07
-2.04188e-06
2.0854e-06
-2.31049e-06
3.11608e-06
-2.03311e-06
3.85693e-06
-1.46775e-06
4.30683e-06
-8.69861e-07
4.521e-06
-3.46918e-07
4.55568e-06
6.78606e-08
4.4626e-06
3.66921e-07
4.27763e-06
5.56928e-07
4.03875e-06
6.71383e-07
3.77037e-06
7.6999e-07
3.46751e-06
9.17182e-07
3.0889e-06
1.16178e-06
2.57096e-06
1.51355e-06
1.91391e-06
1.91861e-06
1.18397e-06
2.06171e-06
4.58245e-07
1.61686e-06
-3.38608e-07
7.57108e-07
-5.82619e-07
-9.20657e-07
-2.49985e-06
-8.12341e-07
2.2278e-06
-9.00445e-07
8.98813e-08
-5.17281e-07
-1.68992e-06
2.63609e-07
-2.82277e-06
1.43962e-06
-3.48651e-06
2.6333e-06
-3.2268e-06
3.49931e-06
-2.33376e-06
4.00558e-06
-1.37614e-06
4.25297e-06
-5.94305e-07
4.32857e-06
-7.74665e-09
4.26943e-06
4.26057e-07
4.1309e-06
6.95457e-07
3.95609e-06
8.46194e-07
3.7849e-06
9.41179e-07
3.65282e-06
1.04926e-06
3.58843e-06
1.22617e-06
3.59773e-06
1.50425e-06
3.66029e-06
1.85604e-06
3.60078e-06
2.12122e-06
3.21709e-06
2.00055e-06
2.582e-06
1.39219e-06
1.39145e-06
2.69883e-07
-1.1084e-06
-9.52777e-07
3.18057e-06
-1.46034e-06
5.97444e-07
-1.78379e-06
-1.36647e-06
-1.46112e-06
-3.14544e-06
-3.48091e-07
-4.59954e-06
1.16499e-06
-4.73988e-06
2.46676e-06
-3.63554e-06
3.28236e-06
-2.19174e-06
3.72513e-06
-1.03707e-06
3.93747e-06
-2.20093e-07
4.01011e-06
3.53419e-07
3.98532e-06
7.20244e-07
3.90545e-06
9.26057e-07
3.80852e-06
1.03811e-06
3.7296e-06
1.12817e-06
3.70323e-06
1.25254e-06
3.76594e-06
1.44153e-06
3.92723e-06
1.69474e-06
4.08505e-06
1.9634e-06
3.97604e-06
2.10955e-06
3.32273e-06
2.0455e-06
1.89639e-06
1.69622e-06
7.87989e-07
-1.24346e-06
4.42403e-06
-2.47396e-06
1.82794e-06
-3.55281e-06
-2.87631e-07
-3.65104e-06
-3.0472e-06
-2.79801e-06
-5.45258e-06
-1.25948e-06
-6.27841e-06
5.3916e-07
-5.43417e-06
1.93558e-06
-3.58816e-06
2.78587e-06
-1.88736e-06
3.27431e-06
-7.08538e-07
3.56429e-06
6.34313e-08
3.72587e-06
5.58663e-07
3.80448e-06
8.47447e-07
3.83307e-06
1.00951e-06
3.83994e-06
1.1213e-06
3.84766e-06
1.24482e-06
3.87219e-06
1.417e-06
3.91803e-06
1.6489e-06
3.94925e-06
1.93217e-06
3.8194e-06
2.23941e-06
3.27326e-06
2.59163e-06
2.02289e-06
2.94658e-06
2.81087e-06
-1.47994e-06
5.90397e-06
-3.1896e-06
3.53759e-06
-4.48363e-06
1.0064e-06
-4.85953e-06
-2.67131e-06
-4.50309e-06
-5.80901e-06
-3.41962e-06
-7.36188e-06
-1.68219e-06
-7.1716e-06
1.45614e-07
-5.41596e-06
1.47788e-06
-3.21962e-06
2.33408e-06
-1.56474e-06
2.90116e-06
-5.03644e-07
3.30172e-06
1.58095e-07
3.58512e-06
5.64044e-07
3.78428e-06
8.10354e-07
3.92326e-06
9.82313e-07
4.02395e-06
1.14412e-06
4.09526e-06
1.34569e-06
4.12131e-06
1.62284e-06
4.05093e-06
2.00255e-06
3.78902e-06
2.50132e-06
3.18768e-06
3.19297e-06
1.99198e-06
4.14228e-06
4.80285e-06
-1.16684e-06
7.07082e-06
-2.55883e-06
4.92957e-06
-3.51923e-06
1.9668e-06
-3.80734e-06
-2.3832e-06
-3.91998e-06
-5.69636e-06
-3.73391e-06
-7.54796e-06
-2.85825e-06
-8.04726e-06
-1.37883e-06
-6.89537e-06
8.745e-08
-4.6859e-06
1.23085e-06
-2.70814e-06
2.07616e-06
-1.34896e-06
2.72326e-06
-4.89005e-07
3.23771e-06
4.96001e-08
3.64137e-06
4.06688e-07
3.95227e-06
6.71415e-07
4.1932e-06
9.03183e-07
4.38002e-06
1.15887e-06
4.50706e-06
1.4958e-06
4.52128e-06
1.98832e-06
4.33834e-06
2.68425e-06
3.81247e-06
3.71885e-06
2.80696e-06
5.14778e-06
7.60981e-06
-2.67045e-07
7.33786e-06
-8.4569e-07
5.50822e-06
-7.66139e-07
1.88724e-06
-4.92324e-07
-2.65701e-06
-7.55709e-07
-5.43298e-06
-1.49803e-06
-6.80565e-06
-1.96417e-06
-7.58113e-06
-1.63678e-06
-7.22275e-06
-7.59017e-07
-5.56365e-06
2.86945e-07
-3.75409e-06
1.27216e-06
-2.33418e-06
2.12481e-06
-1.34166e-06
2.85033e-06
-6.75923e-07
3.45036e-06
-1.93339e-07
3.93149e-06
1.90287e-07
4.33185e-06
5.0282e-07
4.6746e-06
8.16122e-07
4.96948e-06
1.20091e-06
5.16306e-06
1.79474e-06
5.11553e-06
2.73178e-06
4.54384e-06
4.29053e-06
3.28217e-06
6.40945e-06
1.0892e-05
1.31995e-06
-1.45615e-06
-6.54379e-06
3.7746e-06
-2.06198e-05
8.70886e-06
-3.7228e-05
5.48232e-06
-6.16723e-05
2.86837e-06
-7.84988e-05
6.85974e-06
-0.000100771
1.78241e-05
-0.000107312
1.29092e-05
-9.84576e-05
-1.00831e-05
-7.39943e-05
-2.60281e-05
-4.93942e-05
-2.63021e-05
-4.03265e-05
-1.28774e-05
-4.97334e-05
9.40828e-06
-7.23795e-05
2.26474e-05
-8.50193e-05
1.26412e-05
-7.81289e-05
-6.89699e-06
-5.95267e-05
-1.86132e-05
-2.84462e-05
-3.10804e-05
-2.84462e-05
-1.26044e-05
6.90078e-06
-1.43803e-05
7.21243e-06
-8.94649e-06
4.34519e-06
1.95679e-07
-5.44902e-06
-1.89113e-05
1.11704e-05
-9.4917e-05
3.25804e-05
-0.000116171
3.89379e-05
-0.00011986
1.64877e-05
-0.00011198
-1.80267e-05
-9.8312e-05
-3.97179e-05
-8.73866e-05
-3.72527e-05
-8.68234e-05
-1.34485e-05
-9.36781e-05
1.62644e-05
-9.56985e-05
2.46692e-05
-8.59997e-05
3.26034e-06
-7.25445e-05
-1.89597e-05
-5.54856e-05
-3.56267e-05
-2.74708e-05
-5.9095e-05
-5.59169e-05
-1.32533e-05
1.67698e-05
-1.01786e-05
1.39609e-05
5.4469e-07
-7.61062e-06
2.08447e-05
-4.69658e-05
1.15956e-05
1.24508e-05
-1.77876e-05
5.10308e-05
-8.60609e-05
5.77868e-05
-9.8748e-05
2.90569e-05
-9.64099e-05
-2.04324e-05
-9.17172e-05
-4.44354e-05
-8.96996e-05
-3.92917e-05
-9.13142e-05
-1.18592e-05
-9.07713e-05
1.57137e-05
-7.58867e-05
1.41855e-05
-5.64029e-05
-5.89122e-06
-4.36177e-05
-2.53139e-05
-3.67677e-05
-4.2942e-05
-2.01689e-05
-7.80545e-05
-7.60856e-05
-8.99892e-06
2.60397e-05
-5.76502e-06
8.64239e-06
3.86651e-06
-1.85407e-05
2.18436e-05
-7.10533e-05
3.24993e-05
1.70561e-05
2.27671e-05
8.1155e-05
4.84744e-06
4.38491e-05
-2.07317e-05
3.11943e-05
-4.59696e-05
8.00172e-07
-6.33871e-05
-2.70855e-05
-7.20131e-05
-3.0656e-05
-7.52742e-05
-8.54403e-06
-6.9082e-05
1.19496e-05
-4.59428e-05
4.67495e-06
-3.67122e-05
-1.52074e-05
-2.60414e-05
-3.60574e-05
-1.77455e-05
-5.13129e-05
-8.27256e-06
-9.00756e-05
-8.43574e-05
-8.11489e-06
4.10369e-05
-7.16094e-06
4.87641e-06
-2.99341e-06
-4.47293e-05
-1.22579e-05
-5.884e-05
1.09234e-05
-2.03394e-06
3.1569e-05
6.34536e-05
3.35961e-05
4.9174e-05
2.65576e-05
2.90581e-05
1.75383e-05
1.22208e-05
-1.94724e-05
1.0441e-05
-4.66983e-05
-4.10082e-06
-5.32009e-05
-1.74688e-06
-4.6954e-05
7.62082e-06
-2.8029e-05
-3.79686e-06
-1.69641e-05
-2.63333e-05
-6.18313e-06
-4.69579e-05
2.26119e-06
-5.99387e-05
4.36339e-06
-8.97322e-05
-7.99895e-05
-1.03809e-05
5.0864e-05
-2.99621e-05
1.1081e-05
-4.38066e-05
-7.60343e-05
-2.91213e-05
-5.71479e-05
-1.72621e-05
-2.03793e-05
1.24282e-05
1.98254e-05
2.68302e-05
3.88752e-05
2.73728e-05
2.79185e-05
2.36514e-05
2.07365e-05
9.67284e-06
2.97245e-05
-1.9981e-05
2.50213e-05
-2.81568e-05
9.43948e-06
-2.0892e-05
4.26866e-06
-1.02365e-05
-1.48097e-05
1.47278e-06
-3.81729e-05
1.15118e-05
-5.71784e-05
1.59749e-05
-6.45497e-05
1.33508e-05
-8.34073e-05
-6.66114e-05
-2.16183e-05
7.06178e-05
-5.91497e-05
2.38143e-05
-7.95794e-05
-5.48256e-05
-7.64328e-05
-5.54173e-05
-3.39925e-05
-3.89579e-05
-1.12647e-05
-2.6992e-06
8.32129e-06
1.9302e-05
1.47209e-05
2.087e-05
1.2987e-05
2.22505e-05
1.84454e-05
3.51117e-05
-1.3561e-07
4.35585e-05
-9.62682e-06
1.90189e-05
-5.44694e-06
7.1055e-07
5.65175e-06
-2.86161e-05
1.63002e-05
-5.43173e-05
2.30664e-05
-6.41405e-05
2.64316e-05
-6.79222e-05
1.81946e-05
-7.43233e-05
-4.83243e-05
-2.99794e-05
9.79568e-05
-7.52496e-05
4.18716e-05
-0.00010169
-2.76987e-05
-0.000111154
-4.51749e-05
-9.32278e-05
-5.60259e-05
-3.45325e-05
-2.68654e-05
-1.64481e-05
1.33229e-06
-5.34219e-06
9.4879e-06
5.26894e-07
1.58865e-05
7.53024e-06
3.9156e-05
7.24317e-06
4.39337e-05
7.0738e-06
1.92764e-05
1.19266e-05
-4.05406e-06
1.91936e-05
-3.5708e-05
2.34156e-05
-6.16493e-05
2.46226e-05
-6.25438e-05
3.04721e-05
-6.89947e-05
1.77926e-05
-5.79844e-05
-3.03312e-05
5.19953e-06
2.13833e-06
8.32596e-06
2.38178e-06
1.02691e-05
-5.5896e-08
1.13757e-05
-3.76043e-06
1.0707e-05
-4.76296e-06
7.80556e-06
-3.90443e-06
4.23224e-06
-4.00804e-06
1.92687e-06
-4.91688e-06
1.21331e-06
-4.84952e-06
1.67509e-06
-4.21552e-06
2.95708e-06
-3.61596e-06
4.62055e-06
-3.00503e-06
6.38115e-06
-2.43649e-06
8.03804e-06
-1.85023e-06
9.48142e-06
-1.2531e-06
1.07711e-05
-7.86872e-07
1.2068e-05
-4.80772e-07
1.35183e-05
-2.49411e-07
1.52411e-05
7.19483e-08
1.71681e-05
8.04759e-07
1.98975e-05
1.56123e-06
2.45451e-05
1.7618e-06
2.73132e-06
3.27058e-05
5.25228e-06
-1.31145e-06
1.11265e-05
-1.64448e-06
1.49452e-05
-2.12818e-06
1.53382e-05
-2.41316e-06
1.39275e-05
-1.65583e-06
1.24904e-05
-6.41714e-07
1.12852e-05
-7.55163e-07
9.82127e-06
-1.31408e-06
8.40418e-06
-1.48579e-06
7.50238e-06
-1.44764e-06
7.20969e-06
-1.40898e-06
7.41095e-06
-1.30259e-06
8.14686e-06
-1.27781e-06
9.08369e-06
-1.10999e-06
9.80073e-06
-7.71406e-07
1.03633e-05
-5.35119e-07
1.12578e-05
-6.26496e-07
1.32398e-05
-1.03268e-06
1.56978e-05
-8.75175e-07
1.71843e-05
-1.67059e-07
1.85825e-05
1.67628e-07
2.02928e-05
-5.2706e-08
-2.14516e-07
2.36682e-05
3.74281e-07
-2.47031e-12
4.14678e-07
-1.63458e-09
-5.25425e-08
-1.01001e-08
-8.19719e-07
1.16383e-08
-9.49411e-07
-4.36166e-13
-2.30242e-07
-4.68306e-11
4.14124e-07
-3.69545e-10
6.70169e-07
-2.04944e-09
8.35817e-07
-9.02655e-09
8.72157e-07
-3.2466e-08
4.87376e-07
-4.78529e-09
-2.9466e-08
-6.15479e-08
-3.30157e-07
-1.91721e-08
-6.53832e-07
-8.16685e-08
-1.19187e-06
-1.23631e-07
-2.14776e-06
-3.05818e-08
-3.10964e-06
1.00484e-07
-2.69969e-06
1.03525e-07
-5.90166e-07
4.54472e-08
-2.74774e-07
3.20903e-08
-1.73594e-07
1.36701e-08
-2.28108e-07
-6.77044e-09
-2.25024e-08
-4.58907e-07
-7.56076e-12
-4.67446e-12
-1.62917e-09
-2.25681e-11
-1.11391e-08
-8.14572e-10
-1.05346e-12
4.98424e-10
-5.89752e-12
-1.84551e-14
-5.60652e-11
-1.13429e-12
-4.2944e-10
-5.71135e-12
-2.50877e-09
-1.29948e-11
-1.15562e-08
-1.57779e-10
-4.37993e-08
-8.28586e-10
-6.52181e-08
-2.8116e-09
-2.36201e-07
-3.75748e-09
-3.39966e-07
-1.24784e-08
-3.43873e-07
-1.1913e-08
-3.97734e-07
-1.65077e-08
-3.99827e-07
5.38465e-09
-2.99696e-07
1.19959e-08
-2.13997e-07
1.11441e-08
-1.83445e-07
4.70838e-09
-1.71405e-07
-3.24241e-09
-1.31455e-07
-3.21036e-08
-7.97974e-08
-5.36861e-08
-4.92259e-08
-6.34572e-08
-1.80493e-11
1.56487e-12
-1.06526e-10
1.35414e-11
-4.93387e-10
-4.94087e-11
-1.99273e-11
2.41302e-11
-2.82793e-11
3.98216e-12
-4.79451e-12
2.09021e-11
-1.68051e-11
6.38059e-11
-4.16028e-11
4.03944e-11
-1.37907e-10
1.39198e-11
-9.91515e-10
-1.1711e-11
-4.31294e-09
-1.26128e-10
-9.46667e-09
-2.08522e-10
-4.36096e-08
-4.10282e-10
-1.32089e-07
-1.17527e-09
-1.39361e-07
2.44464e-09
-9.03097e-08
5.41961e-10
-8.17741e-08
9.15863e-09
-8.39839e-08
3.70268e-09
-8.88827e-08
-1.78285e-09
-7.67168e-08
-2.55458e-08
-1.2158e-07
-7.35592e-08
-1.78597e-07
-1.54575e-07
-1.87032e-07
-1.13787e-08
-9.09093e-12
3.03622e-12
-1.26869e-11
8.1369e-14
-2.67508e-11
3.80131e-13
-2.41858e-11
2.67396e-12
-1.23422e-10
3.25282e-11
-1.57247e-10
7.95567e-11
-1.20807e-10
5.76923e-11
-3.9223e-11
8.49359e-12
-4.00809e-11
3.50756e-12
-1.18946e-10
3.19541e-12
-4.04426e-10
3.26616e-12
-1.01637e-09
1.75168e-11
-2.24986e-09
6.20773e-11
-2.13762e-08
1.9212e-10
-5.74742e-08
1.06622e-09
-4.13284e-08
1.44119e-08
-4.64048e-08
6.32087e-09
-5.06107e-08
3.06264e-09
-6.67755e-08
-1.08825e-09
-1.02224e-07
-2.69328e-08
-1.33496e-07
-9.36586e-08
-2.36566e-07
-2.3692e-07
-4.55824e-07
-4.4169e-08
-6.42988e-13
2.9122e-14
-1.14823e-12
4.03963e-13
-1.34209e-12
9.39842e-14
-3.80492e-12
4.71298e-13
-6.01688e-11
1.72007e-11
-9.93748e-11
3.7748e-11
-1.73106e-11
3.31595e-12
-1.02559e-11
6.57466e-13
-1.02535e-11
5.41715e-13
-1.93541e-11
1.04421e-12
-5.32395e-11
3.52235e-12
-1.33337e-10
1.27711e-11
-3.04144e-10
4.7174e-11
-7.40585e-10
2.39794e-10
-7.73304e-09
8.2764e-10
-1.55868e-08
1.54062e-09
-9.03029e-09
6.88816e-09
-6.30336e-09
2.29152e-10
-1.62208e-08
2.16796e-09
-6.69346e-08
-3.1387e-09
-2.08071e-07
-3.50348e-08
-5.2667e-07
-1.1686e-07
-2.98704e-07
-1.15196e-06
-1.60835e-13
1.3125e-12
-9.17724e-14
2.26917e-13
-1.21837e-13
3.43861e-14
-4.54863e-12
4.15136e-13
-9.33615e-12
-2.39851e-13
-3.95335e-12
5.27643e-13
-1.01588e-12
3.35393e-13
-6.83235e-13
1.06097e-13
-1.03289e-12
1.67983e-13
-2.81043e-12
4.52971e-13
-7.98139e-12
2.21771e-12
-1.88602e-11
8.8672e-12
-4.42344e-11
3.58103e-11
-1.04973e-10
1.33519e-10
-3.52789e-10
6.29641e-10
-2.62345e-09
1.04939e-09
-3.55789e-09
5.99016e-10
-1.47939e-09
7.65089e-10
-6.85794e-10
2.30561e-10
-7.45262e-09
6.174e-10
-5.29733e-08
6.02024e-10
-2.03555e-07
-8.83646e-09
-3.8534e-08
-5.9165e-07
-1.53762e-13
3.73219e-12
-4.60866e-14
3.53582e-13
-7.76021e-14
2.63907e-14
-2.76202e-13
-5.96757e-15
-7.07815e-13
1.40809e-14
-4.17948e-13
5.35204e-14
-1.3096e-13
2.56591e-14
-1.15672e-13
3.05626e-14
-1.72123e-13
7.93942e-14
-4.54423e-13
2.92612e-13
-1.53973e-12
1.0933e-12
-4.32241e-12
5.36296e-12
-1.27749e-11
2.94002e-11
-3.83957e-11
1.25018e-10
-5.51711e-10
1.13691e-09
-9.22822e-10
1.17003e-09
-2.93685e-10
8.01705e-10
-1.13396e-10
2.20185e-10
-1.82518e-10
1.32711e-10
-4.50694e-10
2.18285e-10
-2.06558e-09
3.49659e-10
-1.96323e-08
-4.46978e-11
1.54802e-09
-8.19422e-08
4.50309e-14
3.85694e-12
-2.85371e-14
1.22477e-12
-1.15263e-14
7.18749e-15
-3.31181e-14
3.7073e-15
-5.10737e-14
6.4844e-15
-2.86119e-14
1.08526e-14
-1.58857e-14
5.58718e-15
-2.42812e-14
1.53283e-14
-4.97957e-14
4.52075e-14
-1.31441e-13
2.24637e-13
-4.77773e-13
1.0911e-12
-2.81286e-12
7.06588e-12
-1.84098e-11
4.59592e-11
-3.33553e-10
7.0338e-10
-4.19265e-10
1.52589e-09
-6.95694e-10
1.17093e-09
-1.49935e-10
2.59367e-10
-3.93257e-11
7.54562e-11
-3.23945e-11
5.2937e-11
-8.28432e-11
9.40286e-11
-3.78003e-10
1.87204e-10
-2.16275e-09
2.44245e-10
9.61708e-10
-6.67044e-09
7.83627e-14
3.94511e-12
-6.6081e-15
1.3559e-12
-1.27342e-15
1.47942e-15
-3.15091e-15
1.55482e-15
-5.09482e-15
2.75376e-15
-3.11671e-15
2.8273e-15
-4.64451e-15
3.117e-15
-1.06355e-14
9.82127e-15
-2.598e-14
4.15173e-14
-2.24581e-13
3.82766e-13
-3.00716e-12
3.74971e-12
-3.08562e-11
3.40649e-11
-5.23577e-10
3.52791e-10
-1.5441e-09
1.28251e-09
-1.19987e-09
1.44683e-09
-2.61539e-10
7.05757e-10
-5.892e-11
4.95524e-11
-2.71459e-11
3.0864e-11
-2.26172e-11
2.70989e-11
-2.9348e-11
4.14505e-11
-7.04605e-11
7.98858e-11
-3.75228e-10
1.22891e-10
3.67571e-10
-1.18918e-09
-9.29613e-14
1.61204e-12
-1.34039e-15
8.24447e-13
-1.91621e-16
2.74911e-16
-5.31219e-16
3.24439e-16
-8.08935e-16
6.98103e-16
-8.62943e-16
7.21621e-16
-1.67393e-15
1.44579e-15
-3.19161e-15
7.2225e-15
-3.97255e-14
6.55621e-14
-4.78818e-13
7.31759e-13
-4.32098e-12
6.71383e-12
-3.30929e-11
5.44153e-11
-1.50049e-09
5.49307e-10
-1.73589e-09
1.28427e-09
-6.37496e-10
7.78178e-10
-4.96649e-11
1.10724e-10
-2.46761e-11
1.76491e-11
-1.81156e-11
1.7211e-11
-1.82949e-11
2.19364e-11
-2.07466e-11
2.66172e-11
-3.85559e-11
3.97255e-11
-1.10184e-10
4.71664e-11
1.2023e-10
-2.78268e-10
-4.74305e-14
4.20321e-14
-2.60121e-16
1.37516e-13
-3.6454e-17
5.12222e-17
-7.23569e-17
2.72698e-16
-1.09986e-16
6.12422e-16
-2.11978e-16
5.43932e-16
-9.82409e-16
8.24971e-16
-3.35947e-15
7.10527e-15
-2.40727e-14
7.37323e-14
-2.79795e-13
8.65884e-13
-2.49273e-12
7.77445e-12
1.92486e-12
4.01212e-11
-7.16997e-10
2.79016e-10
-1.48235e-09
4.47293e-10
-9.67023e-11
9.49102e-11
-1.52611e-11
2.23721e-11
-1.61395e-11
1.16055e-11
-1.86546e-11
1.26708e-11
-2.09781e-11
2.19736e-11
-2.12433e-11
2.82127e-11
-3.23465e-11
3.08613e-11
-4.75098e-11
1.80879e-11
4.20399e-11
-9.36609e-11
-8.44838e-15
1.8938e-14
1.89324e-19
1.67889e-14
1.69162e-18
-2.12809e-18
2.71205e-18
-1.13492e-17
-1.60302e-17
-1.24617e-17
-3.06323e-16
5.59616e-17
-3.74296e-16
6.97794e-16
-1.47146e-15
6.1695e-15
-5.35629e-15
6.62933e-14
-6.5661e-15
7.43683e-13
2.49769e-12
4.15582e-12
-1.03372e-10
4.62256e-11
-1.65405e-10
-3.28329e-12
-8.67761e-11
1.75417e-11
-2.13089e-11
2.10957e-11
-2.19876e-11
1.65479e-11
-4.08358e-11
2.35344e-11
-5.8511e-11
5.36136e-11
-8.14273e-11
6.40308e-11
-3.69251e-11
5.40866e-11
-4.20904e-11
2.28324e-11
-2.59573e-11
6.68865e-12
1.89462e-11
-4.20429e-11
-1.46925e-15
1.24016e-14
3.09592e-18
5.98647e-15
2.16681e-17
-3.14825e-17
6.64802e-17
-1.40985e-16
8.79685e-17
-3.1268e-16
-2.88448e-16
-3.22492e-16
-3.83697e-16
5.49241e-16
4.99374e-16
4.39842e-15
1.54471e-14
4.19005e-14
3.36353e-13
3.24804e-13
-7.64033e-12
3.51882e-12
-1.57017e-11
2.63272e-13
-2.19807e-11
1.50081e-12
-1.53608e-11
5.15758e-12
-1.07857e-11
6.93124e-12
-2.39859e-11
2.10132e-11
-7.62601e-11
5.61903e-11
-9.0588e-11
7.17818e-11
-9.54477e-11
7.40342e-11
-1.03635e-10
7.02233e-11
-4.02537e-11
4.74982e-11
-2.01796e-11
1.16403e-11
9.52713e-12
-2.31808e-11
-3.75884e-16
5.6863e-15
4.07365e-18
1.99623e-15
2.70509e-17
-4.24384e-17
8.43332e-17
-1.82197e-16
1.29541e-16
-4.17474e-16
-1.73313e-16
-5.05284e-16
-3.15459e-16
4.79381e-16
-1.08283e-15
2.99523e-15
1.70324e-14
2.1571e-14
-2.69787e-13
1.76521e-13
-1.66059e-12
6.62068e-13
-3.00469e-12
1.25773e-13
-3.70059e-12
7.52299e-13
-2.47108e-12
1.65366e-12
-7.05235e-12
5.35487e-12
-7.41152e-11
3.14771e-11
-9.16746e-11
7.76142e-11
-9.72938e-11
8.10066e-11
-9.94992e-11
8.00657e-11
-9.5822e-11
7.16534e-11
-1.86651e-11
4.75584e-11
-1.12858e-11
3.83097e-12
3.9178e-12
-1.04163e-11
-9.3467e-17
1.97537e-15
3.73358e-18
5.60329e-16
2.44796e-17
-4.22931e-17
7.81653e-17
-1.77264e-16
1.33596e-16
-4.15909e-16
-3.44192e-17
-5.6141e-16
-7.9658e-16
1.19443e-16
-1.13813e-15
1.62895e-15
-6.37655e-15
1.52225e-14
-1.66592e-13
1.15808e-13
-3.36569e-13
9.15884e-14
-6.44643e-13
1.17368e-13
-6.1274e-13
2.73922e-13
-7.67202e-13
7.54972e-13
-7.62341e-13
3.09034e-12
-6.81221e-11
2.12137e-11
-8.75535e-11
8.01383e-11
-9.11766e-11
8.7557e-11
-9.07686e-11
8.30473e-11
-6.88259e-11
6.03891e-11
-4.45724e-12
1.47961e-11
-3.54529e-12
1.59811e-12
1.92862e-12
-3.80231e-12
-2.3311e-17
6.54556e-16
2.94851e-18
1.50808e-16
1.92337e-17
-3.68097e-17
6.28212e-17
-1.51798e-16
1.15941e-16
-3.63042e-16
3.80614e-17
-5.28934e-16
-6.06923e-16
-1.43483e-16
-9.37316e-16
8.84137e-16
-1.43118e-14
1.00636e-14
-5.5827e-14
4.68244e-14
-9.04414e-14
5.93439e-14
-1.25393e-13
6.14201e-14
-1.589e-13
1.27584e-13
-2.30566e-13
3.70577e-13
4.61424e-13
1.34526e-12
-1.26044e-11
4.67156e-12
-7.9676e-11
3.49605e-11
-7.97802e-11
9.11129e-11
-6.37003e-11
6.88196e-11
-1.14941e-11
1.99939e-11
-1.23346e-12
3.3762e-12
-1.90738e-12
1.07878e-12
1.75037e-12
-2.93224e-12
-6.17785e-18
2.14051e-16
2.16376e-18
3.93927e-17
1.39578e-17
-2.95533e-17
4.6329e-17
-1.20256e-16
9.03779e-17
-2.91989e-16
6.23171e-17
-4.49591e-16
-2.76511e-16
-2.56202e-16
-5.6654e-16
4.20448e-16
-6.94119e-15
4.3682e-15
-2.20212e-14
1.85649e-14
-3.06248e-14
3.30381e-14
-3.82703e-14
4.1624e-14
-5.58257e-14
6.54503e-14
-5.5735e-14
1.73451e-13
2.71955e-13
5.62686e-13
6.88299e-13
2.4256e-12
-2.54508e-11
2.55172e-12
-6.38473e-11
1.13367e-11
-1.82438e-11
8.67776e-12
-2.07595e-12
3.1008e-12
-1.65266e-12
1.48824e-12
-3.23775e-12
1.52216e-12
4.50487e-12
-7.59857e-12
-1.77459e-18
6.97209e-17
1.50872e-18
9.40902e-18
9.56353e-18
-2.23952e-17
3.20583e-17
-9.00377e-17
6.51477e-17
-2.21216e-16
6.09748e-17
-3.55096e-16
-1.08392e-16
-2.74756e-16
-2.48399e-16
1.95565e-16
-2.4546e-15
1.7e-15
-7.78298e-15
7.22899e-15
-1.29732e-14
1.54301e-14
-1.82264e-14
2.46981e-14
-2.36275e-14
3.83234e-14
-1.05029e-14
9.42147e-14
-1.23074e-14
3.33288e-13
-1.88279e-12
1.18868e-12
-4.64593e-12
-1.11426e-13
-5.66679e-12
8.39279e-13
-1.97577e-12
1.68422e-12
-1.29997e-12
1.45087e-12
-2.42898e-12
1.40225e-12
-5.58725e-12
3.22243e-12
1.36756e-11
-1.7943e-11
-5.58781e-19
2.26756e-17
9.99977e-19
2.13023e-18
6.21865e-18
-1.61826e-17
2.09745e-17
-6.43745e-17
4.39694e-17
-1.59667e-16
4.8827e-17
-2.64725e-16
-3.66384e-17
-2.43143e-16
-9.96751e-17
1.41362e-16
-8.32145e-16
6.17213e-16
-2.74526e-15
2.80817e-15
-5.22298e-15
6.50947e-15
-8.61315e-15
1.16933e-14
-1.47691e-14
2.33161e-14
-3.35783e-14
6.64178e-14
-2.36834e-13
2.34188e-13
-4.91643e-13
2.29658e-13
-1.26582e-12
1.31577e-13
-1.37844e-12
3.55114e-13
-7.50423e-13
5.4821e-13
-9.80609e-13
8.37645e-13
-2.26512e-12
1.71312e-12
-6.92313e-12
6.25336e-12
3.04348e-11
-2.93182e-11
-1.96176e-19
7.3506e-18
6.26931e-19
7.41322e-19
3.83349e-18
-1.12028e-17
1.29916e-17
-4.41848e-17
2.79223e-17
-1.10481e-16
3.48302e-17
-1.88056e-16
-1.8099e-18
-1.94129e-16
-1.1179e-16
8.60105e-18
-2.72055e-16
2.1234e-16
-9.42767e-16
1.06854e-15
-1.96048e-15
2.66305e-15
-3.87324e-15
5.4208e-15
-1.03012e-14
1.38008e-14
-4.37486e-14
4.78686e-14
-1.07677e-13
1.19176e-13
-1.77268e-13
1.30856e-13
-2.90064e-13
1.17582e-13
-2.94958e-13
1.6933e-13
-3.41946e-13
3.11268e-13
-8.04217e-13
7.2135e-13
-2.06502e-12
2.1295e-12
-7.63066e-12
9.64983e-12
4.9614e-11
-3.59206e-11
-6.43083e-20
2.3611e-18
3.69992e-19
3.07021e-19
2.23316e-18
-7.44722e-18
7.60422e-18
-2.91956e-17
1.66879e-17
-7.3555e-17
2.259e-17
-1.28002e-16
8.31882e-18
-1.43482e-16
-3.91577e-17
-4.50619e-17
-8.36998e-17
6.913e-17
-3.08882e-16
3.91802e-16
-7.16438e-16
1.07859e-15
-1.77724e-15
2.58432e-15
-6.63891e-15
8.18025e-15
-2.61695e-14
2.88949e-14
-5.2019e-14
6.3952e-14
-6.88511e-14
8.46274e-14
-8.50767e-14
8.86071e-14
-9.90795e-14
9.58267e-14
-1.44761e-13
1.93162e-13
-2.44535e-13
5.10968e-13
-9.44642e-13
2.22467e-12
-4.66546e-12
1.11827e-11
5.69434e-11
-2.1458e-11
1.38729e-21
7.51615e-19
2.04553e-19
-6.85307e-20
1.22359e-18
-4.76006e-18
4.18883e-18
-1.86002e-17
9.36135e-18
-4.72218e-17
1.34521e-17
-8.3782e-17
8.39929e-18
-9.97665e-17
-1.08973e-17
-5.31525e-17
-2.33333e-17
2.21516e-17
-9.59424e-17
1.37398e-16
-2.58005e-16
4.35491e-16
-8.17537e-16
1.25402e-15
-3.64195e-15
4.66393e-15
-1.24929e-14
1.61142e-14
-2.37193e-14
3.41887e-14
-3.16951e-14
4.83566e-14
-3.55607e-14
5.73835e-14
-3.99702e-14
6.17044e-14
-6.01867e-14
1.16677e-13
-6.53493e-14
3.61798e-13
-1.21386e-13
1.84179e-12
-1.32657e-12
1.01677e-11
5.32142e-11
-5.09991e-12
2.56301e-21
2.37557e-19
1.0523e-19
-1.50375e-19
6.26103e-19
-2.92778e-18
2.15656e-18
-1.14356e-17
4.89968e-18
-2.92729e-17
7.37181e-18
-5.28642e-17
5.83281e-18
-6.59739e-17
-2.82663e-18
-4.45818e-17
-6.26268e-18
1.76976e-17
-2.80815e-17
4.61497e-17
-9.04805e-17
1.74401e-16
-3.56833e-16
6.00465e-16
-1.70935e-15
2.47133e-15
-5.4162e-15
8.35358e-15
-9.84063e-15
1.74192e-14
-1.32464e-14
2.49095e-14
-1.57428e-14
3.0295e-14
-1.87428e-14
3.74783e-14
-1.95492e-14
6.50867e-14
2.89843e-14
2.13867e-13
4.23901e-13
1.12484e-12
2.3834e-12
6.74165e-12
3.52076e-11
1.35113e-11
1.80715e-21
7.35854e-20
4.98103e-20
-1.319e-19
2.95653e-19
-1.734e-18
1.02538e-18
-6.78856e-18
2.36564e-18
-1.75369e-17
3.69409e-18
-3.22077e-17
3.37322e-18
-4.17787e-17
-5.86121e-20
-3.26335e-17
-4.82526e-18
4.95526e-19
-7.65592e-18
1.49956e-17
-2.9916e-17
6.82103e-17
-1.39469e-16
2.73881e-16
-6.81611e-16
1.19166e-15
-2.06854e-15
3.96657e-15
-3.69364e-15
8.2571e-15
-4.97348e-15
1.19731e-14
-6.23218e-15
1.48861e-14
-8.33849e-15
1.95572e-14
-8.62818e-15
3.55491e-14
3.93435e-14
1.08661e-13
3.88684e-13
5.77154e-13
1.39726e-12
4.05199e-12
1.7681e-11
1.47364e-11
9.44924e-22
2.21708e-20
2.12481e-20
-9.17652e-20
1.26052e-19
-9.89467e-19
4.40361e-19
-3.89284e-18
1.03044e-18
-1.01591e-17
1.65952e-18
-1.89675e-17
1.67079e-18
-2.54386e-17
4.49111e-19
-2.19721e-17
-1.2313e-18
-5.17893e-18
-1.88229e-18
4.53286e-18
-8.8338e-18
2.55016e-17
-4.60796e-17
1.15742e-16
-2.24439e-16
5.18678e-16
-6.66302e-16
1.71818e-15
-1.18765e-15
3.6182e-15
-1.6077e-15
5.35874e-15
-2.06398e-15
6.80996e-15
-3.04022e-15
9.26911e-15
-4.60394e-15
1.86257e-14
8.99082e-15
5.78292e-14
8.95759e-14
3.0186e-13
4.44314e-13
2.02147e-12
6.99678e-12
8.88676e-12
3.91787e-22
6.50338e-21
7.80633e-21
-5.66838e-20
4.62738e-20
-5.44347e-19
1.62677e-19
-2.1573e-18
3.85208e-19
-5.69325e-18
6.35817e-19
-1.08048e-17
6.86137e-19
-1.49296e-17
3.1108e-19
-1.39088e-17
-2.30625e-19
-5.57085e-18
-3.74708e-19
1.28024e-18
-2.12285e-18
8.92587e-18
-1.18222e-17
4.46581e-17
-5.67889e-17
2.04286e-16
-1.6659e-16
6.82786e-16
-2.97131e-16
1.47235e-15
-4.00934e-16
2.23912e-15
-5.12e-16
2.90198e-15
-7.7596e-16
4.01261e-15
-1.51289e-15
8.58656e-15
-2.98067e-16
3.03359e-14
8.57917e-15
1.52175e-13
8.95566e-14
9.02726e-13
2.88376e-12
2.50297e-12
1.16901e-22
1.88027e-21
2.15965e-21
-3.23671e-20
1.26936e-20
-2.88943e-19
4.45739e-20
-1.15591e-18
1.05877e-19
-3.08783e-18
1.76746e-19
-5.95656e-18
1.98665e-19
-8.45816e-18
1.13655e-19
-8.37108e-18
-2.81917e-20
-4.33423e-18
-5.21493e-20
9.47198e-19
-3.18707e-19
2.90414e-18
-1.78058e-18
1.57049e-17
-8.09347e-18
7.34793e-17
-2.24366e-17
2.51023e-16
-3.74117e-17
5.59914e-16
-4.55236e-17
8.78849e-16
-4.97144e-17
1.16077e-15
-5.97295e-17
1.60796e-15
-9.27321e-17
3.4486e-15
-7.39061e-17
1.36347e-14
1.63452e-15
7.08405e-14
3.76577e-14
3.62725e-13
1.27198e-12
3.25063e-13
6.39333e-24
5.43077e-22
1.53905e-22
-1.74192e-20
7.19421e-22
-1.48126e-19
1.97071e-21
-5.99217e-19
3.3235e-21
-1.62158e-18
2.69065e-21
-3.17935e-18
-1.22441e-21
-4.63029e-18
-7.58659e-21
-4.81928e-18
-1.00578e-20
-2.93092e-18
6.13175e-22
1.69206e-20
3.10013e-20
8.78009e-19
2.24145e-19
5.1132e-18
1.38893e-18
2.45786e-17
5.79039e-18
8.63004e-17
1.48875e-17
1.99912e-16
2.71824e-17
3.25057e-16
4.39282e-17
4.38681e-16
7.94459e-17
6.089e-16
2.51098e-16
1.27948e-15
1.61991e-15
5.20398e-15
1.46058e-14
2.82704e-14
1.05037e-13
1.24241e-13
3.90255e-13
5.1282e-13
1.29102e-24
1.53969e-22
-4.30814e-23
-9.03502e-21
-5.71371e-22
-7.39338e-20
-3.28463e-21
-3.02197e-19
-1.18008e-20
-8.2727e-19
-2.96788e-20
-1.645e-18
-5.45781e-20
-2.44764e-18
-7.20079e-20
-2.6542e-18
-5.90028e-20
-1.80799e-18
-1.07508e-20
-2.76212e-19
5.40419e-20
2.24419e-19
3.00192e-19
1.58572e-18
1.61709e-18
7.80218e-18
6.08487e-18
2.80356e-17
1.46469e-17
6.72579e-17
2.53053e-17
1.13426e-16
3.85806e-17
1.56938e-16
6.51104e-17
2.19457e-16
1.8758e-16
4.56518e-16
1.09463e-15
1.94215e-15
8.32811e-15
1.16337e-14
4.94118e-14
4.94531e-14
1.24516e-13
2.61786e-13
7.5162e-25
4.12781e-23
-4.49042e-23
-4.55017e-21
-5.6233e-22
-3.59892e-20
-3.20219e-21
-1.48412e-19
-1.14193e-20
-4.10303e-19
-2.85236e-20
-8.25729e-19
-5.23286e-20
-1.25126e-18
-6.9878e-20
-1.40391e-18
-6.09588e-20
-1.04164e-18
-1.94329e-20
-2.8499e-19
3.15871e-20
6.46598e-20
1.57549e-19
4.73437e-19
8.3317e-19
2.36841e-18
3.14347e-18
8.66439e-18
7.69624e-18
2.14305e-17
1.35029e-17
3.74326e-17
2.06348e-17
5.31694e-17
3.43688e-17
7.52801e-17
9.6258e-17
1.58137e-16
5.6529e-16
7.28013e-16
4.20195e-15
4.88037e-15
2.10058e-14
2.17173e-14
4.42845e-14
8.11637e-14
2.86848e-25
1.00266e-23
-3.17687e-23
-2.22947e-21
-3.83178e-22
-1.70882e-20
-2.18549e-21
-7.10025e-20
-7.81312e-21
-1.97957e-19
-1.95916e-20
-4.02475e-19
-3.62545e-20
-6.19453e-19
-4.94483e-20
-7.15213e-19
-4.57642e-20
-5.67486e-19
-1.95456e-20
-2.09755e-19
1.52666e-20
2.98476e-20
6.401e-20
1.34076e-19
3.34237e-19
6.90257e-19
1.27556e-18
2.562e-18
3.20248e-18
6.5027e-18
5.76439e-18
1.1727e-17
8.93688e-18
1.70905e-17
1.49538e-17
2.46406e-17
4.23738e-17
5.37966e-17
2.68084e-16
2.7947e-16
2.12105e-15
2.11499e-15
9.56893e-15
9.90581e-15
1.96944e-14
2.71956e-14
8.66151e-26
2.98285e-24
-1.90266e-23
-1.06411e-21
-2.22396e-22
-7.91564e-21
-1.27162e-21
-3.31034e-20
-4.56087e-21
-9.29669e-20
-1.14924e-20
-1.90664e-19
-2.14676e-20
-2.97367e-19
-2.9876e-20
-3.51734e-19
-2.90623e-20
-2.94572e-19
-1.49771e-20
-1.31954e-19
2.56991e-21
3.24003e-21
2.16227e-20
3.40809e-20
1.16593e-19
1.94001e-19
4.49146e-19
7.28735e-19
1.1554e-18
1.88915e-18
2.13607e-18
3.50302e-18
3.37382e-18
5.22743e-18
5.73983e-18
7.71665e-18
1.70735e-17
1.80369e-17
1.20902e-16
1.07706e-16
1.05074e-15
9.0933e-16
4.84055e-15
4.57334e-15
9.79245e-15
1.08716e-14
2.056e-26
1.73875e-24
-1.02824e-23
-4.95131e-22
-1.16734e-22
-3.57795e-21
-6.68451e-22
-1.50482e-20
-2.40335e-21
-4.25317e-20
-6.08121e-21
-8.78743e-20
-1.1455e-20
-1.38603e-19
-1.62247e-20
-1.67322e-19
-1.64484e-20
-1.4645e-19
-9.67796e-21
-7.51131e-20
-9.27679e-22
-6.32263e-21
6.73402e-21
7.37514e-21
3.70065e-20
5.28871e-20
1.42903e-19
2.00486e-19
3.75372e-19
5.28351e-19
7.11364e-19
1.00273e-18
1.14607e-18
1.52787e-18
2.00178e-18
2.32128e-18
6.44463e-18
5.94673e-18
5.11846e-17
4.02066e-17
4.82943e-16
3.64589e-16
2.38002e-15
2.02546e-15
4.33581e-15
4.87861e-15
-2.33164e-27
-1.85659e-25
-5.14881e-24
-2.24713e-22
-5.68083e-23
-1.57867e-21
-3.25249e-22
-6.67447e-21
-1.17079e-21
-1.89732e-20
-2.97172e-21
-3.94475e-20
-5.63694e-21
-6.28135e-20
-8.10394e-21
-7.71413e-20
-8.50095e-21
-7.00129e-20
-5.51999e-21
-3.97121e-20
-1.05879e-21
-6.70286e-21
2.10392e-21
2.25133e-21
1.0939e-20
1.40556e-20
4.19746e-20
5.36124e-20
1.12121e-19
1.43024e-19
2.17082e-19
2.76522e-19
3.56698e-19
4.28943e-19
6.44769e-19
6.74098e-19
2.28824e-18
1.91563e-18
1.98456e-17
1.41324e-17
1.96398e-16
1.31371e-16
1.05832e-15
7.99529e-16
1.77311e-15
2.40141e-15
-6.63809e-27
-5.18028e-25
-2.41637e-24
-9.95181e-23
-2.59153e-23
-6.80284e-22
-1.48092e-22
-2.89127e-21
-5.3316e-22
-8.26282e-21
-1.35626e-21
-1.72712e-20
-2.5872e-21
-2.77203e-20
-3.766e-21
-3.45346e-20
-4.06331e-21
-3.22932e-20
-2.84585e-21
-1.97882e-20
-7.67652e-22
-4.70417e-21
6.84068e-22
7.99606e-22
3.03441e-21
3.6137e-21
1.15269e-20
1.39907e-20
3.11938e-20
3.7673e-20
6.1472e-20
7.38671e-20
1.02957e-19
1.16342e-19
1.93961e-19