/*--------------------------------*- C++ -*----------------------------------*\
| =========                 |                                                 |
| \\      /  F ield         | OpenFOAM: The Open Source CFD Toolbox           |
|  \\    /   O peration     | Version:  2206                                  |
|   \\  /    A nd           | Website:  www.openfoam.com                      |
|    \\/     M anipulation  |                                                 |
\*---------------------------------------------------------------------------*/
FoamFile
{
    version     2.0;
    format      ascii;
    arch        "LSB;label=32;scalar=64";
    class       volScalarField;
    location    "0.875";
    object      p;
}
// * * * * * * * * * * * * * * * * * * * * * * * * * * * * * * * * * * * * * //

dimensions      [1 -1 -2 0 0 0 0];

internalField   nonuniform List<scalar> 
2268
(
680.69
680.559
680.474
680.394
680.057
679.516
678.865
678.262
677.801
677.496
677.306
677.196
677.151
677.164
677.224
677.311
677.386
677.386
677.206
676.852
676.701
677.059
677.593
621.841
621.664
621.578
621.429
621.071
620.503
619.84
619.242
618.787
618.481
618.303
618.215
618.183
618.195
618.247
618.33
618.407
618.381
618.083
617.474
617.253
617.644
618.396
562.953
562.773
562.636
562.406
561.971
561.324
560.634
560.067
559.671
559.421
559.272
559.197
559.164
559.157
559.172
559.203
559.232
559.216
559.096
558.936
559.007
559.325
559.998
504.016
503.833
503.598
503.277
502.747
502.019
501.298
500.767
500.455
500.28
500.186
500.137
500.109
500.093
500.086
500.09
500.102
500.121
500.156
500.249
500.533
501.049
501.694
444.947
444.616
444.148
443.63
443.101
442.513
441.928
441.486
441.241
441.138
441.094
441.066
441.043
441.017
440.993
440.979
440.985
441.025
441.124
441.329
441.731
442.337
443.011
385.641
384.885
383.795
382.891
382.533
382.495
382.47
382.353
382.177
382.083
382.045
382.021
381.989
381.943
381.891
381.846
381.824
381.85
381.963
382.218
382.678
383.321
383.967
326.185
324.821
322.722
321.387
321.368
322.119
322.919
323.347
323.316
323.167
323.072
323.007
322.946
322.868
322.777
322.685
322.607
322.571
322.635
322.875
323.327
323.907
324.354
267.598
265.427
262.526
260.748
261.289
262.566
263.663
264.36
264.507
264.343
264.17
264.033
263.914
263.78
263.636
263.484
263.316
263.151
263.063
263.225
263.681
264.421
263.959
1343.21
1308.72
1245.24
1144.29
1011.71
860.846
650.794
581.588
710.532
924.278
1031.84
1041.43
1068.45
1106.65
1127.51
1176.3
1302.64
1468.59
1529.55
1329.78
1285.8
1221.87
1122.41
992.484
819.38
578.623
495.015
623.27
850.155
976.487
997.423
1018.58
1041.71
1055
1106.99
1225.82
1389.33
1463.01
1315.53
1274.65
1214.56
1084.26
945.384
752.598
484.44
381.244
519.505
779.609
937.985
977.089
981.133
977.381
991.153
1046.07
1145.69
1295.02
1386.93
1295.15
1271.29
1201.41
996.304
802.983
661.522
436.812
328.647
454.19
725.876
901.238
946.099
938.914
924.356
941.391
997.319
1081.28
1204.56
1305.71
1269.46
1273.15
1181.03
856.012
572.518
538.848
423.818
355.561
467.015
695.516
860.191
903.038
891.143
880.665
900.954
953.629
1027.6
1124.65
1224.6
1236.9
1263.96
1135.79
758.068
513.615
462.623
428.567
402.386
479.375
655.032
807.21
849.616
849.16
845.109
866.229
912.824
977.845
1053.25
1146.71
1180.56
1217.76
1054.37
698.745
477.776
436.906
428.32
422.333
474.982
610.988
750.195
793.357
805.024
814.495
839.813
877.761
930.147
983.497
1068.19
1074.06
1130.46
963.678
648.443
438.765
404.343
413.041
414.685
458.858
575.368
695.46
746.559
772.128
797.619
823.434
850.394
881.387
909.735
985.824
177.1
174.838
171.684
169.561
169.474
170.569
171.543
172.132
172.297
172.147
171.947
171.754
171.576
171.415
171.255
171.096
170.804
170.296
169.635
169.283
169.306
168.947
164.927
68.2938
67.4844
65.1255
61.8698
59.6291
59.4358
60.7236
61.6425
61.7554
61.5405
61.1046
60.2672
59.1488
57.9714
57.0967
57.0539
57.112
55.1392
51.178
49.6171
51.2717
52.8625
54.1673
5.5462
5.53192
5.86551
6.37478
6.88585
7.52871
7.88449
7.96315
8.21138
8.54501
8.41828
7.64362
6.34697
5.2294
4.79696
5.09399
5.48359
4.87133
3.13518
2.6443
2.85164
2.95777
2.84943
1.41586
1.41521
1.42068
1.43244
1.44467
1.4575
1.47172
1.48801
1.4939
1.47766
1.45976
1.42953
1.37823
1.26243
1.06481
0.999476
1.16509
1.38057
1.53108
1.68894
1.84316
1.94713
1.99631
1.28372
1.27717
1.27584
1.27654
1.27678
1.27393
1.27137
1.26651
1.25768
1.2477
1.23597
1.21337
1.1866
1.17839
1.17586
1.11698
1.05501
1.0568
1.12764
1.19625
1.20562
1.12939
0.937191
1.13751
1.12553
1.11642
1.11093
1.10792
1.10342
1.09413
1.08125
1.0655
1.04712
1.02431
0.992114
0.949072
0.898317
0.849413
0.79173
0.690966
0.608305
0.583432
0.588193
0.522266
0.267808
-0.273821
0.959154
0.948642
0.938772
0.929815
0.921283
0.91181
0.900047
0.886578
0.870911
0.851669
0.827511
0.797573
0.76114
0.716299
0.658607
0.578687
0.479169
0.398437
0.359973
0.355555
0.343679
0.214259
-0.167565
0.751934
0.744936
0.739371
0.733023
0.723937
0.712818
0.700587
0.687455
0.672858
0.655759
0.63556
0.612339
0.586201
0.556172
0.519475
0.471978
0.417353
0.36979
0.358241
0.38482
0.435798
0.500281
0.539686
0.540587
0.536463
0.534848
0.531918
0.525324
0.516346
0.506034
0.494507
0.481694
0.467289
0.451357
0.434319
0.416603
0.398179
0.378326
0.356766
0.336153
0.323484
0.326021
0.351325
0.400574
0.473242
0.554189
0.339229
0.336337
0.336133
0.334805
0.330139
0.323377
0.315396
0.306163
0.295849
0.284519
0.272472
0.260166
0.248014
0.235877
0.222788
0.210319
0.204167
0.210196
0.226952
0.252431
0.283432
0.320513
0.365017
0.142162
0.141487
0.141226
0.140171
0.136708
0.131678
0.125737
0.118845
0.111249
0.103101
0.0946543
0.086161
0.0776501
0.0684636
0.0583772
0.0498755
0.0482005
0.0565103
0.0759345
0.102775
0.130884
0.156728
0.180647
-0.0551342
-0.054392
-0.0545182
-0.055287
-0.0576205
-0.0609823
-0.0649764
-0.069559
-0.0744713
-0.0795585
-0.084663
-0.0897563
-0.0952024
-0.101447
-0.108276
-0.112677
-0.112635
-0.106668
-0.0928522
-0.0722803
-0.0489199
-0.0276461
-0.0130023
-0.252524
-0.251993
-0.252073
-0.252492
-0.253839
-0.255744
-0.258013
-0.260536
-0.263096
-0.265553
-0.26781
-0.269961
-0.2725
-0.275571
-0.278953
-0.280397
-0.27939
-0.274876
-0.265895
-0.2526
-0.236311
-0.220415
-0.210479
-0.451858
-0.451929
-0.451972
-0.452131
-0.452751
-0.453579
-0.454534
-0.455492
-0.456288
-0.456799
-0.456955
-0.456866
-0.456959
-0.457462
-0.457709
-0.457345
-0.455588
-0.45162
-0.44495
-0.435521
-0.423628
-0.411268
-0.402344
-0.655049
-0.655448
-0.655228
-0.655173
-0.655256
-0.65536
-0.655448
-0.655403
-0.655096
-0.65442
-0.65331
-0.651827
-0.650232
-0.648713
-0.647211
-0.645416
-0.642756
-0.638681
-0.632818
-0.624868
-0.614692
-0.603461
-0.593576
-0.861991
-0.86232
-0.861894
-0.861719
-0.861504
-0.861255
-0.860931
-0.860436
-0.859668
-0.858528
-0.856949
-0.854945
-0.852641
-0.850215
-0.847707
-0.844936
-0.841526
-0.837127
-0.831443
-0.824075
-0.814621
-0.80366
-0.792666
-1.07185
-1.07197
-1.07155
-1.07138
-1.07114
-1.07088
-1.07056
-1.07011
-1.06943
-1.06845
-1.06708
-1.0653
-1.06314
-1.0607
-1.05802
-1.05502
-1.05146
-1.04711
-1.04174
-1.03495
-1.02627
-1.01574
-1.0041
-1.28421
-1.28421
-1.28395
-1.28388
-1.28382
-1.28381
-1.2838
-1.28375
-1.28359
-1.28324
-1.28263
-1.28168
-1.28037
-1.27871
-1.27673
-1.27438
-1.27153
-1.26801
-1.26364
-1.25811
-1.25096
-1.24181
-1.23058
-1.49881
-1.4988
-1.49877
-1.49891
-1.49918
-1.49957
-1.50008
-1.50068
-1.50134
-1.50198
-1.50252
-1.50289
-1.50304
-1.50291
-1.50248
-1.50173
-1.5006
-1.49898
-1.49674
-1.4937
-1.48957
-1.48358
-1.47457
-1.71515
-1.71524
-1.71547
-1.71592
-1.71662
-1.71756
-1.71876
-1.72021
-1.7219
-1.72378
-1.7258
-1.72789
-1.72998
-1.73201
-1.73395
-1.73576
-1.73744
-1.73895
-1.74022
-1.74127
-1.74212
-1.74168
-1.73726
-1.93252
-1.93276
-1.93329
-1.93415
-1.9354
-1.93702
-1.93906
-1.94153
-1.94444
-1.94778
-1.95152
-1.95562
-1.96005
-1.96475
-1.96971
-1.97491
-1.98041
-1.98623
-1.99239
-1.99913
-2.00694
-2.01453
-2.01739
-2.15003
-2.15045
-2.15133
-2.15267
-2.15456
-2.15699
-2.16001
-2.16365
-2.16795
-2.17292
-2.17857
-2.18491
-2.19193
-2.19964
-2.20806
-2.21724
-2.22727
-2.23828
-2.25036
-2.26392
-2.27999
-2.29735
-2.31
-2.36668
-2.3673
-2.36854
-2.37043
-2.37303
-2.37636
-2.38046
-2.38538
-2.39118
-2.39789
-2.40558
-2.41427
-2.42403
-2.4349
-2.44698
-2.46037
-2.47525
-2.49182
-2.51025
-2.53106
-2.55566
-2.5832
-2.60716
-2.58141
-2.58222
-2.58384
-2.58629
-2.58964
-2.59389
-2.59911
-2.60536
-2.61269
-2.62119
-2.63092
-2.64198
-2.65445
-2.66845
-2.68413
-2.70165
-2.72127
-2.74329
-2.76792
-2.79571
-2.82825
-2.86526
-2.9006
-2.79318
-2.79419
-2.79616
-2.79915
-2.80321
-2.80836
-2.81467
-2.82219
-2.83101
-2.84121
-2.85289
-2.86617
-2.88119
-2.89809
-2.91708
-2.93837
-2.96229
-2.98919
-3.0194
-3.05339
-3.09272
-3.13782
-3.18348
-3.00108
-3.00224
-3.00454
-3.008
-3.01271
-3.01866
-3.02593
-3.0346
-3.04474
-3.05645
-3.06986
-3.08509
-3.10231
-3.12172
-3.14353
-3.16801
-3.1955
-3.22643
-3.2612
-3.30026
-3.34488
-3.39611
-3.45034
-3.20429
-3.20559
-3.20814
-3.212
-3.21722
-3.22383
-3.2319
-3.24149
-3.25271
-3.26565
-3.28044
-3.29723
-3.3162
-3.33756
-3.36155
-3.38846
-3.41865
-3.45254
-3.49063
-3.53336
-3.58164
-3.63677
-3.69716
-3.40219
-3.40359
-3.40632
-3.41047
-3.41607
-3.42315
-3.43178
-3.44204
-3.45402
-3.46783
-3.48359
-3.50146
-3.52163
-3.5443
-3.56972
-3.5982
-3.63009
-3.6658
-3.70586
-3.75078
-3.80116
-3.85816
-3.922
-3.59433
-3.59579
-3.59864
-3.60295
-3.60877
-3.61612
-3.62507
-3.6357
-3.6481
-3.66237
-3.67864
-3.69707
-3.71782
-3.74111
-3.76717
-3.79632
-3.82887
-3.86524
-3.90593
-3.95149
-4.00251
-4.05972
-4.1242
-3.78037
-3.78202
-3.78487
-3.78921
-3.79507
-3.80248
-3.8115
-3.82219
-3.83466
-3.849
-3.86533
-3.88378
-3.90452
-3.92775
-3.9537
-3.98263
-4.01486
-4.05077
-4.0908
-4.13553
-4.18556
-4.24145
-4.3041
-3.96039
-3.96219
-3.96497
-3.96921
-3.97497
-3.98224
-3.9911
-4.00159
-4.01381
-4.02783
-4.04378
-4.06176
-4.08193
-4.10446
-4.12956
-4.15745
-4.18841
-4.22278
-4.26096
-4.30342
-4.35076
-4.4035
-4.46221
-4.13461
-4.13643
-4.13905
-4.14313
-4.14864
-4.15561
-4.16409
-4.17413
-4.1858
-4.19917
-4.21435
-4.23142
-4.25052
-4.27178
-4.29538
-4.32151
-4.3504
-4.38231
-4.41758
-4.45659
-4.4998
-4.54773
-4.6008
-4.30332
-4.30503
-4.30745
-4.31127
-4.31644
-4.32296
-4.33088
-4.34025
-4.35112
-4.36356
-4.37763
-4.39343
-4.41104
-4.43059
-4.45219
-4.476
-4.50219
-4.53095
-4.56254
-4.59724
-4.63537
-4.67733
-4.72352
-4.46689
-4.46843
-4.47061
-4.47411
-4.47884
-4.48479
-4.49201
-4.50054
-4.51041
-4.52169
-4.53442
-4.54866
-4.56449
-4.58199
-4.60124
-4.62234
-4.64542
-4.67061
-4.69806
-4.72798
-4.76057
-4.79603
-4.83479
-4.62583
-4.62713
-4.62907
-4.6322
-4.63641
-4.64171
-4.64813
-4.65569
-4.66443
-4.67439
-4.6856
-4.69811
-4.71196
-4.72721
-4.7439
-4.7621
-4.78188
-4.80332
-4.82649
-4.85152
-4.87853
-4.90757
-4.939
-4.78068
-4.78174
-4.78343
-4.78615
-4.7898
-4.79439
-4.79993
-4.80646
-4.81398
-4.82253
-4.83213
-4.84281
-4.85459
-4.8675
-4.88156
-4.89682
-4.91329
-4.93102
-4.95003
-4.97036
-4.99209
-5.01519
-5.03991
-4.93203
-4.93287
-4.9343
-4.93659
-4.93966
-4.94351
-4.94815
-4.9536
-4.95987
-4.96698
-4.97494
-4.98376
-4.99346
-5.00404
-5.01552
-5.02791
-5.0412
-5.0554
-5.07051
-5.08653
-5.10348
-5.1213
-5.14016
-5.08048
-5.08116
-5.08233
-5.08418
-5.08666
-5.08976
-5.09349
-5.09786
-5.10288
-5.10856
-5.1149
-5.1219
-5.12957
-5.13791
-5.14692
-5.15659
-5.16691
-5.17786
-5.18942
-5.20158
-5.21433
-5.2276
-5.24147
-5.22659
-5.22722
-5.22808
-5.2295
-5.23141
-5.23376
-5.2366
-5.23991
-5.24371
-5.24799
-5.25276
-5.25802
-5.26376
-5.26997
-5.27666
-5.2838
-5.29138
-5.29938
-5.30778
-5.31653
-5.32563
-5.33501
-5.34471
-5.37108
-5.37172
-5.37221
-5.37324
-5.37457
-5.3762
-5.37818
-5.38048
-5.38311
-5.38608
-5.38936
-5.39298
-5.39691
-5.40116
-5.40571
-5.41056
-5.41567
-5.42105
-5.42664
-5.43244
-5.43842
-5.44453
-5.45078
-5.51417
-5.51494
-5.515
-5.5157
-5.51643
-5.51736
-5.5185
-5.51981
-5.52131
-5.523
-5.52486
-5.5269
-5.52912
-5.5315
-5.53405
-5.53675
-5.53959
-5.54255
-5.54563
-5.54878
-5.55202
-5.5553
-5.55867
-5.65863
-5.6584
-5.65829
-5.65872
-5.65894
-5.65929
-5.6597
-5.66016
-5.66069
-5.66128
-5.66194
-5.66265
-5.66343
-5.66426
-5.66514
-5.66606
-5.66703
-5.66802
-5.66905
-5.67008
-5.67111
-5.67213
-5.67312
149.025
186.516
323.789
268.073
44.8515
45.29
171.1
319.503
2.58604
4.07309
39.7216
235.243
2.12595
2.10424
4.48234
97.4155
0.360427
-0.672701
-7.18011
-4.16155
-2.15072
-11.7354
-67.9767
-86.4976
-1.8013
-11.358
-67.1955
-85.44
0.369026
-1.91037
-9.51272
-10.6085
0.642236
0.231183
-3.46248
-3.27346
0.440437
0.136983
-0.35659
-0.554633
0.22525
0.148332
-0.0165989
-0.258913
0.00831571
-0.0124634
-0.110748
-0.313715
-0.197015
-0.184567
-0.202142
-0.273236
-0.384997
-0.337611
-0.269632
-0.204849
-0.569528
-0.495856
-0.367052
-0.196332
-0.763714
-0.674914
-0.508295
-0.259575
-0.972904
-0.880105
-0.693882
-0.388791
-1.20061
-1.11853
-0.937071
-0.605381
-1.45056
-1.40111
-1.26351
-0.93989
-1.72479
-1.73575
-1.67826
-1.36254
-2.02292
-2.11952
-2.19133
-2.00399
-2.33966
-2.52311
-2.74744
-2.96666
-2.66485
-2.92148
-3.23456
-3.68975
-2.98656
-3.30478
-3.65514
-4.17271
-3.29491
-3.6706
-4.13151
-4.59196
-3.5824
-3.99704
-4.59142
-4.83515
-3.84423
-4.25906
-4.90822
-5.06631
-4.07901
-4.4692
-5.14859
-5.36109
-4.28456
-4.66091
-5.32854
-5.69772
-4.46077
-4.8172
-5.45031
-5.96625
-4.60852
-4.93246
-5.49935
-6.0767
-4.73167
-5.01272
-5.4869
-6.04645
-4.83583
-5.06862
-5.437
-5.91034
-4.92747
-5.1124
-5.37986
-5.7335
-5.01296
-5.15488
-5.34041
-5.5816
-5.09723
-5.20314
-5.32884
-5.48392
-5.18335
-5.26031
-5.34431
-5.43977
-5.27294
-5.32712
-5.38238
-5.43926
-5.36656
-5.40296
-5.4383
-5.47127
-5.46472
-5.48729
-5.50848
-5.52666
-5.56623
-5.57789
-5.58865
-5.59741
-5.67517
-5.67823
-5.68064
-5.68202
811.175
944.948
804.739
545.342
365.039
332.611
356.352
363.541
406.195
505.576
611.444
682.499
733.218
773.499
792.434
799.084
797.742
800.445
859.028
571.612
608.092
458.287
269.079
189.992
205.175
239.659
273.363
321.571
401.115
485.882
550.361
607.484
654.577
677.984
690.89
684.867
676.931
710.574
359.727
297.687
142.295
51.0484
35.2077
55.6757
102.929
156.188
204.195
275.383
346.31
402.47
446.051
479.692
515.29
555.809
568.55
566.125
579.238
216.107
164.004
40.3507
9.15607
1.78919
1.00319
15.0619
38.0808
64.117
126.265
183.413
233.555
251.918
247.009
283.565
365.982
409.989
433.362
456.641
115.326
90.6939
9.84211
1.9753
0.722392
0.266795
-0.0950704
-0.800675
2.28086
20.0714
27.5721
30.3862
28.0793
49.3156
115.721
201.522
252.305
275.164
349.903
42.4953
25.6926
1.88465
0.381658
0.103782
-0.0977657
-0.18048
-0.346128
-0.718044
-1.52427
-2.44607
-3.14623
-1.9019
10.2392
55.1678
132.172
183.871
146.436
260.02
4.67315
2.12495
-0.0395314
-0.0490707
-0.293071
-0.420718
-0.482747
-0.683048
-1.12036
-1.81939
-2.54312
-3.14664
-2.82396
2.16188
23.8572
83.4864
126.113
69.1612
140.806
2.49168
-0.272108
-0.394969
-0.375111
-0.59516
-0.641492
-0.64853
-0.867914
-1.39487
-2.13503
-2.90519
-3.49479
-3.47164
-1.71894
4.08101
38.7445
62.7138
35.9301
30.941
-1.76227
-0.599894
-0.571777
-0.6634
-0.819049
-0.838206
-0.852368
-1.0653
-1.53518
-2.18813
-2.94653
-3.42975
-3.44202
-2.66885
-1.39483
8.8493
25.5125
18.8116
13.859
-0.536945
-0.675092
-0.727768
-0.846105
-0.974998
-1.02079
-1.07813
-1.27944
-1.65636
-2.18421
-2.77037
-3.11249
-3.05786
-2.3852
-1.73799
-0.365756
14.7097
14.2155
12.2173
-0.539363
-0.709041
-0.804091
-0.928306
-1.07318
-1.1772
-1.29186
-1.48914
-1.77135
-2.1196
-2.46383
-2.64105
-2.48776
-1.86865
-1.3112
-0.416388
9.96238
12.7124
11.1413
-0.500233
-0.651006
-0.775874
-0.940499
-1.1475
-1.32818
-1.49125
-1.6738
-1.87844
-2.08025
-2.23809
-2.2788
-2.05507
-1.49509
-0.922672
-0.310486
2.79217
11.3817
10.0364
-0.362554
-0.479619
-0.642929
-0.922076
-1.23389
-1.49387
-1.68926
-1.85112
-1.99573
-2.11039
-2.17529
-2.13573
-1.87035
-1.32598
-0.700835
-0.282165
1.15517
8.75952
8.53417
-0.198085
-0.290411
-0.519591
-0.910057
-1.34773
-1.68959
-1.90505
-2.04042
-2.13251
-2.18869
-2.20222
-2.12648
-1.84747
-1.3122
-0.577533
-0.0357464
0.871329
5.28095
6.99923
-0.0970657
-0.147261
-0.400312
-0.905243
-1.50828
-1.94597
-2.16632
-2.25608
-2.29256
-2.30525
-2.29243
-2.21284
-1.95399
-1.47662
-0.634953
-0.0400914
0.512404
3.53222
5.46152
-0.0649403
-0.0304431
-0.296476
-0.947081
-1.77436
-2.30484
-2.5046
-2.5107
-2.4824
-2.45788
-2.43326
-2.36899
-2.16595
-1.77607
-1.04854
-0.566258
0.0170535
0.946548
2.42743
-0.0966872
0.0319576
-0.284235
-1.24602
-2.31962
-2.89447
-2.97302
-2.81855
-2.70547
-2.64421
-2.61101
-2.56327
-2.4315
-2.26251
-2.1003
-2.70201
-1.38804
-0.96842
-1.11716
-0.237592
-0.126939
-0.64479
-2.09131
-3.36429
-3.74447
-3.60334
-3.18909
-2.96559
-2.86239
-2.81711
-2.76664
-2.67897
-2.65623
-2.92038
-3.99721
-2.52799
-2.2724
-2.11346
-0.621663
-0.735894
-1.63995
-3.23602
-4.99898
-4.95329
-4.34832
-3.60402
-3.26059
-3.11045
-3.03731
-2.96927
-2.87602
-2.80876
-2.72298
-3.19411
-2.64614
-2.77071
-2.48509
-1.3626
-1.79768
-2.83975
-4.2571
-6.63071
-6.36435
-4.97097
-3.9919
-3.57284
-3.37363
-3.26881
-3.17994
-3.05747
-2.866
-2.44077
-2.83897
-2.63956
-2.84599
-2.70186
-2.2139
-2.97864
-3.94253
-5.11637
-7.49263
-6.91066
-5.28634
-4.31995
-3.86294
-3.63039
-3.5055
-3.41025
-3.27666
-2.96888
-2.3303
-2.82776
-2.97155
-2.96337
-2.89595
-3.20232
-4.00185
-4.69462
-5.65088
-7.47873
-6.74479
-5.41348
-4.55277
-4.10019
-3.86024
-3.7344
-3.66414
-3.58301
-3.20205
-2.93457
-3.40561
-3.48827
-3.18333
-3.10857
-4.05191
-4.54521
-4.98448
-5.81513
-7.23089
-6.37204
-5.35196
-4.66189
-4.26611
-4.04862
-3.9425
-3.93806
-4.05285
-4.04856
-4.74211
-3.41588
-3.58576
-3.39729
-3.31836
-4.45189
-4.70187
-5.12232
-5.81234
-6.76768
-6.20766
-5.27607
-4.69261
-4.36783
-4.18916
-4.11073
-4.15248
-4.40094
-4.91631
-5.85987
-3.61294
-3.70408
-3.59583
-3.52228
-4.56766
-4.80687
-5.20372
-5.74442
-6.20154
-5.94071
-5.1625
-4.67707
-4.42174
-4.28545
-4.23072
-4.27757
-4.49781
-4.76785
-5.08752
-3.8204
-3.83711
-3.79413
-3.72844
-4.74714
-4.95233
-5.26933
-5.63086
-5.7352
-5.44336
-4.94825
-4.62672
-4.44316
-4.3484
-4.31228
-4.34091
-4.46501
-4.50961
-4.53549
-4.28313
-4.04168
-3.9934
-3.93342
-5.03828
-5.17799
-5.37455
-5.5494
-5.42713
-5.06782
-4.76001
-4.57162
-4.4483
-4.39155
-4.37544
-4.39157
-4.42946
-4.28206
-4.40864
-4.37916
-4.24618
-4.18653
-4.12722
-5.39027
-5.46997
-5.51688
-5.51825
-5.29696
-4.89794
-4.66419
-4.53267
-4.45091
-4.42654
-4.43822
-4.47504
-4.48437
-4.31987
-4.46331
-4.52132
-4.40899
-4.36394
-4.30644
-5.78142
-5.79503
-5.66126
-5.46254
-5.19385
-4.83239
-4.61747
-4.50619
-4.4569
-4.46005
-4.50802
-4.60633
-4.70636
-4.91741
-4.82141
-4.67189
-4.56839
-4.53143
-4.47774
-6.1298
-6.10222
-5.81477
-5.4201
-5.08816
-4.74982
-4.54513
-4.47499
-4.46046
-4.49499
-4.57318
-4.71928
-4.88623
-5.13385
-4.93714
-4.80573
-4.72666
-4.68612
-4.64346
-6.35821
-6.33685
-5.94109
-5.43912
-5.06225
-4.75523
-4.54548
-4.47098
-4.47595
-4.53834
-4.62948
-4.77787
-4.90303
-5.05362
-5.08151
-4.92315
-4.86343
-4.82872
-4.80116
-6.38124
-6.37256
-5.98773
-5.47738
-5.0792
-4.8336
-4.68559
-4.57822
-4.54637
-4.61038
-4.69771
-4.80295
-4.88091
-5.08751
-5.15708
-5.03384
-4.98866
-4.96449
-4.94738
-6.21658
-6.22976
-5.94315
-5.50556
-5.13848
-4.9314
-4.86831
-4.78382
-4.75243
-4.73421
-4.79156
-4.84506
-4.94896
-5.28982
-5.22516
-5.13766
-5.11148
-5.09619
-5.08666
-5.9828
-6.00835
-5.82836
-5.50706
-5.19954
-5.02597
-5.0377
-4.97787
-4.99228
-4.94314
-4.86184
-4.89447
-5.04896
-5.3157
-5.29306
-5.24388
-5.23515
-5.22647
-5.22221
-5.76199
-5.80129
-5.69156
-5.46871
-5.23658
-5.09484
-5.10442
-5.13573
-5.15451
-5.05362
-4.89792
-4.94722
-5.14345
-5.3391
-5.36871
-5.35347
-5.35889
-5.35653
-5.35624
-5.59888
-5.62887
-5.56065
-5.41901
-5.26306
-5.16686
-5.17169
-5.21615
-5.29907
-5.19078
-5.0036
-5.0752
-5.31765
-5.41128
-5.45996
-5.47025
-5.48568
-5.48811
-5.49081
-5.50581
-5.52035
-5.47749
-5.39073
-5.29586
-5.24056
-5.26573
-5.31388
-5.44848
-5.37091
-5.25846
-5.26466
-5.45976
-5.52834
-5.57816
-5.59558
-5.61741
-5.62294
-5.62749
-5.47449
-5.47848
-5.44986
-5.39739
-5.34532
-5.32222
-5.365
-5.40691
-5.56221
-5.49148
-5.48757
-5.53175
-5.61443
-5.65343
-5.71404
-5.72948
-5.75436
-5.76153
-5.76678
-5.48901
-5.48802
-5.46864
-5.43688
-5.41139
-5.40958
-5.46048
-5.50318
-5.64038
-5.56865
-5.53494
-5.66395
-5.797
-5.78809
-5.86185
-5.87129
-5.89486
-5.90235
-5.90731
-5.535
-5.53263
-5.52044
-5.50144
-5.49012
-5.49813
-5.54957
-5.59881
-5.70724
-5.61792
-5.62988
-5.76056
-6.00299
-5.94824
-6.0165
-6.0172
-6.03607
-6.0431
-6.04726
-5.60095
-5.59942
-5.59374
-5.58405
-5.57883
-5.58495
-5.63191
-5.6826
-5.79377
-5.80528
-6.33497
-6.00845
-6.23056
-6.12923
-6.17237
-6.16686
-6.18089
-6.18781
-6.1914
-5.68181
-5.68036
-5.6779
-5.67368
-5.6732
-5.67759
-5.71438
-5.75064
-5.8825
-6.18458
-7.87279
-6.36469
-6.44394
-6.30836
-6.33318
-6.32688
-6.34017
-6.34849
-6.35222
)
;

boundaryField
{
    leftWall
    {
        type            calculated;
        value           nonuniform List<scalar> 
50
(
680.69
621.841
562.953
504.016
444.947
385.641
326.185
267.598
177.1
68.2938
5.5462
1.41586
1.28372
1.13751
0.959154
0.751934
0.540587
0.339229
0.142162
-0.0551342
-0.252524
-0.451858
-0.655049
-0.861991
-1.07185
-1.28421
-1.49881
-1.71515
-1.93252
-2.15003
-2.36668
-2.58141
-2.79318
-3.00108
-3.20429
-3.40219
-3.59433
-3.78037
-3.96039
-4.13461
-4.30332
-4.46689
-4.62583
-4.78068
-4.93203
-5.08048
-5.22659
-5.37108
-5.51417
-5.65863
)
;
    }
    rightWall
    {
        type            calculated;
        value           nonuniform List<scalar> 
50
(
1529.55
1463.01
1386.93
1305.71
1224.6
1146.71
1068.19
985.824
859.028
710.574
579.238
456.641
349.903
260.02
140.806
30.941
13.859
12.2173
11.1413
10.0364
8.53417
6.99923
5.46152
2.42743
-1.11716
-2.11346
-2.48509
-2.70186
-2.89595
-3.10857
-3.31836
-3.52228
-3.72844
-3.93342
-4.12722
-4.30644
-4.47774
-4.64346
-4.80116
-4.94738
-5.08666
-5.22221
-5.35624
-5.49081
-5.62749
-5.76678
-5.90731
-6.04726
-6.1914
-6.35222
)
;
    }
    lowerWall
    {
        type            calculated;
        value           nonuniform List<scalar> 
62
(
710.119
709.989
709.903
709.823
709.486
708.946
708.295
707.691
707.231
706.926
706.735
706.625
706.581
706.594
706.653
706.74
706.816
706.816
706.635
706.282
706.13
706.489
707.022
677.593
618.396
559.998
501.694
443.011
383.967
324.354
263.959
211.622
248.974
386.161
300.689
1343.21
1329.78
1315.53
1295.15
1269.46
1236.9
1180.56
1074.06
1351.81
1320.99
1257.93
1156.74
1032.72
887.077
678.649
608.031
736.402
950.199
1057.91
1068.41
1096.4
1134.6
1155.47
1204.26
1330.6
1496.56
1557.52
)
;
    }
    atmosphere
    {
        type            calculated;
        value           nonuniform List<scalar> 
46
(
-5.72904
-5.72904
-5.72904
-5.72904
-5.72904
-5.72904
-5.72904
-5.72904
-5.72904
-5.72904
-5.72904
-5.72904
-5.72904
-5.72904
-5.72904
-5.72904
-5.72904
-5.72904
-5.72904
-5.72904
-5.72904
-5.72904
-5.72904
-5.72904
-5.72904
-5.72904
-5.72904
-5.72904
-5.72904
-5.72904
-5.72904
-5.72904
-5.72983
-5.76387
-5.77473
-5.89685
-6.20254
-8.95456
-6.51982
-6.52523
-6.38024
-6.42013
-6.41396
-6.43143
-6.44196
-6.44597
)
;
    }
    defaultFaces
    {
        type            empty;
    }
}


// ************************************************************************* //
