/*--------------------------------*- C++ -*----------------------------------*\
| =========                 |                                                 |
| \\      /  F ield         | OpenFOAM: The Open Source CFD Toolbox           |
|  \\    /   O peration     | Version:  2206                                  |
|   \\  /    A nd           | Website:  www.openfoam.com                      |
|    \\/     M anipulation  |                                                 |
\*---------------------------------------------------------------------------*/
FoamFile
{
    version     2.0;
    format      ascii;
    arch        "LSB;label=32;scalar=64";
    class       volScalarField;
    location    "0.325";
    object      alpha.water;
}
// * * * * * * * * * * * * * * * * * * * * * * * * * * * * * * * * * * * * * //

dimensions      [0 0 0 0 0 0 0];

internalField   nonuniform List<scalar> 
2268
(
1
1
1
1
1
1
1
1
1
1
1
1
1
1
1
1
1
0.999999
0.999999
0.999999
0.999999
1
1
1
1
1
1
1
1
1
1
1
1
1
1
1
1
1
1
0.999999
0.999999
1
0.999999
0.999999
0.999999
1
1
1
1
1
1
1
1
1
1
1
1
1
1
1
1
1
1
1
1
1
0.999999
0.999999
1
1
1
1
1
1
1
1
1
1
1
1
1
1
1
1
1
1
1
1
1
1
0.999999
1
1
1
1
1
1
1
1
1
1
1
1
1
1
1
1
1
1
1
1
1
1
1
1
1
1
1
1
1
1
1
1
1
1
1
1
0.999999
0.999999
1
1
1
1
1
1
1
1
1
1
1
0.999999
0.999999
1
1
1
1
1
1
1
1
0.999999
0.999999
0.999999
0.999999
1
1
1
1
1
1
1
1
0.999999
0.999999
0.999999
1
1
1
1
1
1
1
1
1
0.999999
0.999999
0.999999
1
1
1
1
1
1
1
0.221411
0.221411
0.209098
0.191019
0.283063
0.377363
0.443579
0.578887
0.732219
0.823373
0.866017
0.899621
0.894926
0.90969
0.941408
0.653469
0.123927
0.123275
0.165909
0.198677
0.0252498
0.00493553
0.00500109
0.00542624
0.00703254
0.0293935
0.598834
0.978469
0.984008
0.985197
0.985505
0.985486
0.985339
0.985445
0.970713
0.240335
0.144862
0.615325
0.087503
0.00493553
0.00493553
0.00493553
0.00529691
0.00910219
0.530699
0.968552
0.983427
0.985135
0.985505
0.985609
0.985644
0.98568
0.985668
0.985477
0.832338
0.217034
0.67834
0.00677323
0.00580547
0.00493553
0.00518508
0.00817225
0.321308
0.907342
0.980684
0.984258
0.985013
0.985477
0.985642
0.98568
0.98568
0.98568
0.985668
0.985269
0.377195
0.679291
0.00717083
0.00687391
0.00518465
0.00777607
0.289856
0.905265
0.979253
0.979237
0.98181
0.984467
0.985003
0.985463
0.985642
0.98568
0.985668
0.985642
0.985526
0.82499
0.846238
0.00698722
0.00727116
0.00777299
0.313879
0.933694
0.986835
0.983002
0.979186
0.979294
0.98182
0.983417
0.973757
0.94825
0.973889
0.985676
0.985528
0.984889
0.983045
0.947542
0.00708935
0.0572576
0.455753
0.988302
0.992829
0.989561
0.986839
0.983108
0.9739
0.88779
0.685475
0.480775
0.357673
0.289914
0.473158
0.925944
0.983048
0.96841
0.95289
0.53851
0.834418
0.999398
0.997517
0.994719
0.99283
0.988112
0.971208
0.726951
0.352376
0.0212217
0.000227852
2.26603e-05
2.40364e-06
0.00153358
0.237778
0.903266
0.952892
0.949313
0.999999
0.999999
0.999999
1
1
1
1
1
1
1
1
1
1
1
0.999999
0.999999
0.999999
1
1
1
1
1
1
0.999999
0.999999
0.999999
1
1
1
1
1
1
1
1
1
1
1
1
1
1
1
1
1
1
1
1
0.999999
0.999999
0.999999
0.999999
1
1
1
1
1
1
1
1
1
1
1
1
1
1
1
1
1
1
1
0.999999
0.999999
0.999989
0.999991
0.999994
0.999996
0.999996
0.999997
0.999997
0.999997
0.999997
0.999997
0.999997
0.999997
0.999997
0.999997
0.999997
0.999997
0.999998
1.00001
1
0.999995
0.999995
0.999999
0.999967
0.999844
0.999869
0.999904
0.999923
0.999932
0.999935
0.999936
0.999935
0.999934
0.999931
0.999928
0.999924
0.999919
0.999913
0.999904
0.999893
0.999866
0.999848
0.999827
0.999775
0.999712
0.999967
0.998947
0.997633
0.998371
0.998663
0.998815
0.99886
0.99881
0.998248
0.997535
0.996659
0.994675
0.991655
0.987264
0.981107
0.972703
0.961486
0.946801
0.927805
0.903675
0.873602
0.838402
0.79084
0.927931
0.701952
0.60804
0.637861
0.645008
0.641031
0.631481
0.616369
0.59511
0.56749
0.536485
0.504792
0.468663
0.430956
0.391014
0.349823
0.307694
0.264206
0.21962
0.175119
0.133918
0.0920417
0.0169032
0.196382
0.0660697
0.0217023
0.0257649
0.0181847
0.0127197
0.00838528
0.00254861
-7.14008e-15
-1.38778e-18
-2.74991e-24
0
-1.35525e-21
4.23516e-23
5.29396e-24
-6.61744e-25
0
-9.30147e-11
-1.0731e-10
-7.08435e-11
-3.24567e-11
-1.85299e-22
-8.38848e-12
-3.04816e-17
-1.62195e-16
-5.72938e-16
-7.11188e-15
-7.84534e-14
-6.23307e-13
-3.77587e-12
-2.08545e-11
-8.94923e-11
-3.1958e-10
-8.81467e-10
-1.7623e-09
-2.49707e-09
-2.77117e-09
-2.64654e-09
-2.3242e-09
-1.91392e-09
-1.49198e-09
-1.06946e-09
-6.22667e-10
-2.39412e-10
-2.11459e-12
-6.7552e-11
-6.76185e-17
-4.44229e-16
-2.33662e-15
-2.29638e-14
-2.24735e-13
-1.70749e-12
-1.00876e-11
-4.87333e-11
-1.95077e-10
-6.41804e-10
-1.67835e-09
-3.19925e-09
-4.15178e-09
-4.28302e-09
-3.83947e-09
-3.13592e-09
-2.39928e-09
-1.73237e-09
-1.09896e-09
-3.85358e-10
-1.35881e-12
-1.85212e-11
-2.03733e-08
-3.82249e-17
-2.59541e-16
-3.5242e-15
-4.63821e-14
-4.44777e-13
-3.2574e-12
-1.831e-11
-8.2967e-11
-3.09492e-10
-9.3944e-10
-2.2579e-09
-3.92508e-09
-4.51943e-09
-4.1599e-09
-3.34475e-09
-2.4564e-09
-1.68732e-09
-1.0576e-09
-4.44349e-10
-3.74386e-12
7.02012e-11
5.39224e-10
-8.99548e-08
-8.88365e-18
-2.92306e-16
-6.69932e-15
-8.76405e-14
-8.10851e-13
-5.61234e-12
-2.97202e-11
-1.25471e-10
-4.28821e-10
-1.17804e-09
-2.52819e-09
-3.86303e-09
-3.738e-09
-2.91878e-09
-2.00618e-09
-1.25903e-09
-7.16088e-10
-2.64938e-10
-3.753e-12
1.51691e-10
9.48823e-10
5.5908e-09
0.0002863
-7.33958e-18
-5.28088e-16
-1.21503e-14
-1.54677e-13
-1.35433e-12
-8.76296e-12
-4.32305e-11
-1.6752e-10
-5.15638e-10
-1.25243e-09
-2.32999e-09
-3.01306e-09
-2.31679e-09
-1.4593e-09
-8.08264e-10
-3.84859e-10
-8.48363e-11
4.88452e-12
3.59931e-10
2.00043e-08
8.22159e-09
5.23568e-08
0.0010977
-1.32089e-17
-9.18112e-16
-2.02701e-14
-2.46851e-13
-2.03572e-12
-1.22159e-11
-5.52697e-11
-1.92911e-10
-5.22687e-10
-1.08964e-09
-1.69139e-09
-1.76685e-09
-1.02432e-09
-4.91728e-10
-1.88747e-10
1.61559e-28
1.23311e-10
1.07532e-09
9.31735e-09
8.8559e-08
4.22907e-07
5.21043e-07
0.000899895
-2.37101e-17
-1.47021e-15
-2.97348e-14
-3.43542e-13
-2.64988e-12
-1.46441e-11
-6.00141e-11
-1.8524e-10
-4.30319e-10
-7.3952e-10
-9.01687e-10
-7.13408e-10
-3.2048e-10
-1.08373e-10
0
7.69789e-11
3.93187e-10
2.20144e-09
1.7033e-08
4.069e-08
4.5198e-06
6.55891e-05
7.1974e-05
-3.70212e-17
-1.78182e-15
-3.32298e-14
-3.57378e-13
-2.55215e-12
-1.2909e-11
-4.76344e-11
-1.29435e-10
-2.5711e-10
-3.64272e-10
-3.50977e-10
-2.12393e-10
-7.28125e-11
-6.5472e-12
1.90715e-11
1.3989e-10
3.63278e-10
2.40953e-09
1.585e-08
1.01788e-07
9.58896e-06
2.21861e-05
9.89764e-06
-3.70367e-17
-1.52657e-15
-2.61814e-14
-2.60281e-13
-1.71073e-12
-7.8825e-12
-2.61202e-11
-6.25828e-11
-1.07239e-10
-1.27839e-10
-1.01015e-10
-4.88134e-11
-1.09522e-11
4.85662e-13
1.96647e-11
7.84677e-11
5.47649e-10
4.03137e-09
2.92586e-08
2.01603e-07
9.08559e-06
1.97787e-05
2.6021e-05
-2.23928e-17
-8.10601e-16
-1.28193e-14
-1.17791e-13
-7.12448e-13
-2.99731e-12
-8.97869e-12
-1.92251e-11
-2.90795e-11
-3.0222e-11
-2.05441e-11
-8.14527e-12
-7.60599e-15
0
7.00971e-12
7.38602e-11
5.22445e-10
3.92793e-09
2.51498e-08
2.83531e-07
2.52899e-05
4.82494e-05
4.82494e-05
-6.17693e-18
-1.9999e-16
-2.92944e-15
-2.4985e-14
-1.39934e-13
-5.42807e-13
-1.49192e-12
-2.91694e-12
-4.01253e-12
-3.78004e-12
-2.30831e-12
-7.53177e-13
1.49645e-14
5.37442e-13
4.4436e-12
1.55445e-11
1.37063e-10
1.61052e-09
3.84341e-09
4.59485e-09
1.88564e-07
1.2629e-05
2.17874e-05
-4.82765e-22
-8.10225e-21
-5.86129e-20
-2.22305e-19
-4.136e-19
-6.78536e-20
7.70372e-35
-4.27231e-53
1.2326e-33
-1.29306e-51
6.43712e-17
7.90234e-15
9.11964e-14
5.66389e-13
3.10837e-12
1.98253e-11
3.21692e-10
2.37318e-09
4.68024e-09
4.85484e-09
3.02339e-09
8.45056e-10
4.04425e-10
-2.59092e-22
-4.3348e-21
-3.26059e-20
-1.32156e-19
-2.64529e-19
0
3.48307e-18
5.51491e-17
1.45023e-16
2.30271e-16
7.79026e-16
8.21943e-15
5.01608e-14
2.41314e-13
8.53017e-13
2.08402e-12
1.05773e-11
2.16161e-09
1.32886e-08
1.53862e-08
1.52948e-08
9.32444e-09
9.3575e-09
-9.22349e-23
-1.57564e-21
-1.28242e-20
-6.1373e-20
-1.90522e-19
-3.90719e-19
-4.88789e-19
-1.93492e-19
-1.39214e-30
6.05822e-19
8.6802e-17
3.02237e-15
3.11587e-14
1.30095e-13
2.40319e-13
2.29212e-13
1.35019e-13
3.42183e-12
2.95535e-09
1.18953e-08
1.50928e-08
1.44145e-08
1.39275e-08
-1.5313e-23
-2.59963e-22
-2.1526e-21
-1.05499e-20
-3.37305e-20
-7.16471e-20
-9.35795e-20
-4.18568e-20
-5.22178e-31
8.12207e-20
4.21369e-18
5.7265e-16
1.01816e-14
5.78498e-14
1.44778e-13
2.00518e-13
1.73115e-13
7.7139e-14
4.70994e-14
4.17056e-14
2.69946e-14
1.39456e-14
7.18799e-15
-1.87377e-30
-5.25394e-30
-2.52234e-45
-5.32718e-42
-4.00977e-39
1.55346e-25
8.38788e-24
1.00995e-23
5.74191e-23
3.10216e-21
8.52361e-20
6.69581e-18
7.18725e-16
1.10544e-14
5.98652e-14
1.47995e-13
1.98432e-13
1.98424e-13
1.71874e-13
7.135e-14
3.44935e-14
1.24404e-14
4.36145e-15
0
-8.55285e-51
2.07556e-35
1.95342e-33
1.37828e-31
9.38938e-30
7.91688e-28
3.15783e-26
5.30837e-25
3.0866e-23
9.39112e-22
3.26762e-20
1.00969e-17
4.84901e-16
5.79532e-15
3.08334e-14
8.85503e-14
1.2804e-13
1.34581e-13
1.41621e-13
1.41621e-13
1.39509e-13
1.14264e-13
1.30506e-55
4.73799e-41
9.33878e-39
9.52459e-37
5.16501e-35
3.60581e-33
4.55338e-31
2.16109e-29
-9.94857e-27
8.54508e-27
8.42757e-25
2.2462e-23
7.21327e-21
4.56036e-18
1.38744e-16
1.28307e-15
5.49364e-15
1.42504e-14
2.65826e-14
3.73998e-14
2.90969e-14
2.60975e-14
3.45137e-14
-2.41198e-40
8.15645e-57
4.99008e-42
-5.16293e-39
-5.09369e-37
-1.47524e-35
4.37064e-34
2.18083e-32
-2.62315e-30
1.78853e-29
1.09865e-27
3.18362e-26
2.34578e-24
2.56869e-21
1.64159e-19
2.30152e-18
1.36318e-17
4.68181e-17
1.15203e-16
2.20782e-16
3.30813e-16
3.99823e-16
4.2573e-16
-1.32983e-40
-4.00708e-40
-6.34434e-43
-7.1453e-41
-6.20443e-39
2.2204e-41
1.34967e-39
1.2979e-37
3.21122e-36
1.3077e-34
4.80631e-33
3.19858e-31
1.59592e-28
1.58971e-24
3.06001e-22
5.75194e-21
3.66789e-20
1.15519e-19
2.38276e-19
3.84943e-19
5.34236e-19
6.62776e-19
7.46398e-19
-1.97802e-47
0
2.29266e-50
3.07232e-48
3.07529e-46
2.46131e-44
3.37689e-42
2.10307e-40
4.70163e-39
2.86032e-37
1.80206e-35
6.29532e-34
4.62572e-32
4.7695e-29
2.8683e-27
4.457e-26
5.55577e-25
8.88884e-24
1.01419e-22
5.64326e-22
1.70851e-21
3.45397e-21
5.4401e-21
0
4.41377e-56
9.68094e-54
1.38205e-51
1.61556e-49
1.42199e-47
2.14784e-45
1.46054e-43
3.67405e-42
2.84961e-40
1.69392e-38
6.76983e-37
2.3986e-35
1.44787e-32
8.26096e-30
1.7986e-28
1.83569e-27
2.12173e-26
3.52715e-25
3.32518e-24
1.42734e-23
3.44739e-23
5.82333e-23
8.40246e-63
4.33776e-60
-6.4783e-57
-8.52336e-57
3.0238e-55
-1.34696e-51
2.6888e-49
2.66654e-47
-2.40678e-44
3.95932e-44
4.21749e-42
1.86894e-40
7.36585e-39
4.55595e-36
7.5389e-33
3.87224e-31
4.7919e-30
3.44101e-29
3.75072e-28
6.01356e-27
4.59735e-26
1.5714e-25
3.12895e-25
0
3.0795e-67
-5.54672e-60
-5.75274e-58
-8.84469e-56
-7.1179e-54
2.37491e-56
1.85195e-54
-1.28831e-48
7.69324e-51
4.22049e-49
3.57285e-47
1.89014e-45
9.63984e-43
2.79012e-37
1.75662e-34
4.14026e-33
3.24028e-32
1.81822e-31
2.27994e-30
3.39299e-29
1.97721e-28
5.19612e-28
-2.6067e-66
-3.26807e-68
-3.36599e-66
-6.05624e-64
-8.01609e-62
1.2947e-62
1.32083e-60
2.41785e-58
8.86448e-57
6.05466e-55
7.33532e-53
4.2511e-51
2.17446e-49
1.00158e-47
2.61397e-45
1.60948e-41
2.43678e-39
4.51785e-38
2.7275e-37
8.93297e-37
2.38666e-36
4.2891e-36
1.83215e-37
0
7.27009e-76
2.52918e-73
5.86209e-71
1.01717e-68
1.4147e-66
2.13776e-64
3.4006e-62
1.41719e-60
1.09881e-58
1.5481e-56
9.83543e-55
5.71789e-53
3.08307e-51
1.50979e-49
1.985e-46
3.30557e-43
1.38994e-41
1.31125e-40
5.39728e-40
1.62591e-39
3.21181e-39
9.26617e-41
9.49377e-84
8.15938e-81
3.36977e-78
5.19914e-76
1.71603e-73
2.79298e-71
3.85164e-69
9.66731e-67
4.68304e-65
-7.20095e-63
6.76647e-61
5.01416e-59
3.36386e-57
2.09284e-55
1.18651e-53
3.25974e-50
1.1398e-46
8.13919e-45
9.0383e-44
3.42164e-43
7.76499e-43
1.22417e-42
3.84426e-44
3.26964e-89
4.13684e-86
-8.17881e-82
-6.2199e-80
-9.51359e-78
-3.95545e-75
-2.56298e-74
1.79759e-71
-1.30104e-67
4.13936e-68
2.12085e-65
1.87186e-63
1.48742e-61
1.09497e-59
7.3629e-58
2.61847e-55
4.43828e-51
1.14227e-48
2.06778e-47
9.64914e-47
2.14057e-46
2.95095e-46
4.02126e-47
-5.58101e-105
-5.69373e-89
-6.32761e-86
-1.35272e-83
-4.17043e-81
-7.98352e-79
4.5237e-79
1.6763e-76
-6.56674e-73
1.61476e-72
3.87647e-70
4.31228e-68
4.24874e-66
3.86872e-64
3.27842e-62
2.55334e-60
2.33496e-56
8.20935e-53
4.74843e-51
4.29921e-50
1.22138e-49
1.41427e-49
4.24991e-50
-6.32664e-92
-1.89031e-93
-7.86541e-91
-3.72362e-88
-1.18077e-85
8.3422e-89
2.44743e-86
5.93656e-84
1.23013e-81
2.23157e-79
3.60243e-77
1.11658e-74
1.4889e-72
1.79744e-70
2.01358e-68
2.0746e-66
1.50997e-62
1.2288e-57
6.7865e-55
1.43334e-53
5.15708e-53
1.06267e-53
-5.43848e-53
-5.34319e-144
0
3.66021e-104
7.97807e-101
7.3282e-98
4.56011e-95
2.09876e-92
1.52331e-89
2.43477e-87
6.56267e-85
2.62791e-82
7.13912e-80
1.37256e-77
2.42524e-75
3.96859e-73
6.05232e-71
8.64817e-69
1.16313e-66
1.4783e-64
1.78187e-62
2.04332e-60
2.27517e-58
-3.90048e-55
-1.27535e-143
-3.49559e-124
-6.43366e-114
-8.16435e-107
-4.45436e-104
-2.85262e-101
-3.88045e-98
-1.64355e-97
1.34848e-94
-4.88184e-89
2.30097e-89
1.91978e-86
6.32579e-84
1.91112e-81
5.34826e-79
1.39564e-76
3.41458e-74
7.86827e-72
1.71421e-69
3.54246e-67
6.96289e-65
1.32176e-62
-3.75152e-58
0
-1.10945e-123
-4.18577e-118
-7.78196e-114
-1.36723e-110
-3.91584e-107
-7.95207e-105
5.81288e-110
-1.74358e-97
-2.76383e-97
1.50886e-100
1.61966e-97
2.99972e-94
2.77717e-91
2.2922e-88
1.76688e-85
1.27924e-82
8.74109e-80
5.65978e-77
3.48404e-74
2.04419e-71
1.15423e-68
-1.65202e-64
0
-7.54264e-124
-2.51792e-125
-8.66325e-127
-6.34758e-123
-1.34256e-119
-1.97212e-127
-7.46138e-124
-4.10847e-110
-5.09829e-117
-1.10505e-115
-2.06266e-113
-1.85159e-106
-2.38259e-107
0
0
-1.16118e-98
-1.18905e-95
-1.82637e-92
-9.35103e-90
-6.38364e-87
-4.90263e-84
-6.69878e-70
1
1
1
1
1
1
1
0.999998
1
0.999996
0.999985
0.999937
0.999981
0.999876
0.999534
0.985116
0.999115
0.945837
0.740436
0.402814
0.595857
0.232574
1.28965e-05
1.35971e-06
4.67111e-07
1.40148e-06
4.13529e-07
7.87852e-08
1.72857e-08
3.7479e-07
8.38938e-08
1.34082e-08
1.80094e-07
1.18491e-06
4.27673e-07
5.10547e-07
1.94621e-06
7.91831e-05
4.48022e-05
2.90081e-06
0.000615903
0.00139772
0.000293728
2.90171e-10
0.00164092
0.00164092
0.000409558
1.65338e-10
0.00163319
0.00164117
0.000203588
3.30134e-11
0.00161645
0.00140301
3.30134e-11
1.84023e-11
0.000504432
0.000116998
1.84023e-11
1.37436e-11
6.97476e-06
6.12654e-06
8.80215e-12
1.11302e-11
3.28615e-05
3.62187e-05
1.48651e-12
9.15305e-12
4.82494e-05
3.88885e-05
1.29381e-12
9.18541e-12
2.10867e-05
2.23858e-06
1.14974e-12
4.40231e-12
7.83621e-11
1.14974e-12
9.91684e-13
1.00416e-12
9.28863e-09
3.13415e-09
6.37397e-14
5.93376e-14
1.38818e-08
1.00897e-08
1.19485e-10
2.53265e-16
4.51404e-12
9.14304e-10
2.16966e-09
2.54422e-16
3.6667e-16
3.52746e-17
3.53183e-17
1.11442e-17
7.18605e-14
1.40847e-14
3.24006e-17
7.37364e-19
3.80237e-14
1.25871e-14
3.43507e-17
3.0593e-20
3.36721e-16
2.6824e-17
9.22552e-20
9.92969e-22
8.00115e-19
4.86111e-19
2.53765e-20
3.24444e-23
1.00843e-20
1.65096e-20
1.97227e-20
1.32128e-24
1.03126e-22
1.47702e-22
8.86028e-23
3.38886e-26
6.281e-25
9.58945e-25
6.81249e-25
9.4489e-28
1.2605e-27
2.07614e-27
1.70799e-27
1.87482e-29
7.4385e-33
6.41507e-32
2.01836e-31
3.83399e-31
7.83255e-36
2.25302e-34
1.60649e-33
5.48865e-33
1.77101e-39
3.34767e-37
7.52107e-36
5.85434e-35
6.39592e-45
9.90702e-41
1.91537e-38
4.57106e-37
3.00782e-48
4.75689e-45
3.44409e-41
2.4616e-39
2.88191e-51
1.9166e-48
3.6864e-44
8.69505e-42
1.5123e-54
7.32621e-52
1.52801e-47
2.17071e-44
2.37498e-58
1.99446e-55
1.93218e-51
3.26179e-47
1.59417e-63
4.80444e-60
5.70747e-55
2.41104e-50
-3.88615e-69
3.05145e-62
5.6096e-57
6.32374e-55
0.999998
0.999983
0.999899
0.9994
0.997518
0.990001
0.847933
0.53202
0.130485
0.000226826
3.69465e-05
5.83713e-06
5.58444e-07
7.00273e-08
1.53188e-06
0.00122779
0.244809
0.872879
0.946613
0.999983
0.9999
0.999402
0.997522
0.893524
0.610146
0.0788315
0.000270514
3.07926e-05
3.21334e-06
1.70617e-05
4.46026e-06
1.04345e-08
1.2618e-09
-1.41134e-07
1.7108e-05
0.00160881
0.75565
0.936949
0.999667
0.998667
0.903704
0.642615
0.116716
0.000253632
2.93117e-05
3.52467e-06
3.84574e-07
3.26789e-08
1.62853e-07
5.67232e-08
1.10172e-09
1.55491e-10
-1.03665e-08
3.24358e-07
0.000157747
0.367046
0.906295
0.861437
0.59455
0.118702
0.000104657
7.4797e-06
5.06263e-09
2.09372e-07
-3.13963e-08
7.44761e-10
7.03818e-10
7.08028e-10
8.72946e-10
1.14099e-09
5.17845e-10
6.53982e-10
1.42486e-08
1.66056e-05
0.0449437
0.878505
0.0345425
1.95499e-05
-1.39035e-07
-4.85786e-07
4.30106e-08
-7.35805e-08
-1.18944e-08
4.28254e-10
3.02344e-10
4.34941e-10
5.47024e-10
7.89648e-10
8.28688e-10
5.05725e-10
5.2928e-10
1.27484e-09
2.06257e-06
0.00710241
0.864689
-1.93814e-07
-1.11809e-07
5.40609e-09
-8.39644e-09
1.68514e-09
9.56722e-10
3.49502e-10
4.02597e-10
4.13818e-10
4.30814e-10
5.53446e-10
6.16379e-10
5.10227e-10
5.04237e-10
5.05922e-10
1.16081e-09
2.29983e-07
0.0121646
0.841339
1.40196e-08
4.29062e-09
4.10737e-09
6.7174e-09
7.40859e-09
1.19754e-08
2.88187e-09
4.0049e-10
4.13626e-10
4.77788e-10
5.61834e-10
5.37269e-10
4.67614e-10
4.77423e-10
3.3397e-08
2.20025e-08
5.9565e-08
0.0203614
0.757892
4.67097e-09
3.50969e-09
4.06873e-09
7.2258e-09
1.05187e-08
6.53001e-09
3.99091e-10
3.98703e-10
4.17979e-10
4.48085e-10
4.53443e-10
3.90055e-10
3.71415e-10
4.40394e-10
2.86251e-08
3.37621e-08
4.878e-08
0.0254839
0.69882
1.64909e-08
2.73503e-09
4.0753e-09
2.22139e-09
1.27774e-09
4.67857e-10
4.17707e-10
3.98255e-10
3.73344e-10
3.48421e-10
3.24854e-10
3.12402e-10
3.37273e-10
1.27902e-09
2.01501e-08
4.878e-08
7.971e-08
0.0302327
0.718302
2.90171e-10
2.21804e-09
4.06688e-10
3.36994e-10
3.5668e-10
3.90734e-10
3.92171e-10
3.09109e-10
2.63604e-10
2.3579e-10
2.33194e-10
2.37684e-10
4.90983e-10
6.21017e-08
6.59704e-06
1.41115e-06
2.10658e-07
0.0347927
0.720085
2.81452e-10
3.85658e-10
3.292e-10
3.37808e-10
3.21033e-10
2.97092e-10
2.56147e-10
1.93948e-10
1.6659e-10
1.6877e-10
1.70572e-10
2.34204e-10
2.58237e-09
9.53795e-06
5.17293e-05
5.08604e-06
3.87959e-07
0.0366226
0.714538
2.70069e-10
3.43097e-10
2.96168e-10
2.59024e-10
2.27893e-10
1.93398e-10
1.49158e-10
1.11803e-10
1.04915e-10
1.12594e-10
1.42515e-10
8.86229e-10
1.98658e-08
4.34304e-05
0.000128969
5.93166e-06
6.60763e-06
0.0458916
0.443334
2.53791e-10
3.38005e-10
2.30566e-10
1.86967e-10
1.53633e-10
1.17118e-10
7.76623e-11
5.82684e-11
6.15933e-11
9.46027e-11
5.59449e-10
2.3474e-08
9.13866e-07
0.000111272
0.000208244
1.02456e-05
0.00341453
0.0666278
0.0608445
2.25207e-10
2.61779e-10
1.63417e-10
1.24316e-10
9.00854e-11
5.5652e-11
3.35609e-11
3.35597e-11
4.3057e-11
2.43071e-10
3.17576e-09
4.62911e-08
2.92919e-06
0.000148193
0.000294786
0.000242244
0.00248088
0.0459992
0.0106832
1.93922e-10
1.54873e-10
9.79468e-11
6.49002e-11
3.82576e-11
1.84615e-11
9.88703e-12
1.23343e-11
5.62882e-11
7.23355e-10
1.09641e-08
1.73903e-07
2.58104e-06
0.000109469
0.00102011
0.00231491
0.00730645
0.0069174
0.00290801
1.41161e-10
7.59549e-11
4.40125e-11
2.33887e-11
1.0357e-11
4.32182e-12
3.90164e-12
7.93077e-12
9.53273e-11
1.45286e-09
2.60218e-08
4.03523e-07
5.06942e-06
6.90571e-05
0.00372899
0.00752846
0.0083776
0.00190043
0.000682325
7.70949e-11
2.78749e-11
1.30979e-11
5.39784e-12
1.77676e-12
6.18087e-13
8.95755e-13
6.51195e-12
9.64481e-11
1.69033e-09
2.82621e-08
4.0342e-07
4.66066e-06
4.11852e-05
0.00283955
0.00703636
0.00752846
0.000653121
0.000137992
2.68812e-11
6.7714e-12
2.35762e-12
7.67851e-13
2.05562e-13
6.59731e-14
2.65662e-13
3.14132e-12
5.06026e-11
8.31332e-10
1.31166e-08
1.76553e-07
1.93395e-06
1.67667e-05
0.000768301
0.00387723
0.00463281
0.000137974
2.46779e-05
6.04854e-12
1.04471e-12
2.53053e-13
7.13639e-14
1.85659e-14
9.33423e-15
7.05369e-14
9.02468e-13
1.45524e-11
2.08404e-10
3.17156e-09
4.09752e-08
4.50702e-07
9.65631e-06
9.15935e-05
0.00022955
0.000371141
2.85032e-05
4.07946e-06
9.0357e-13
1.13269e-13
1.88284e-14
5.59476e-15
1.6868e-15
1.34178e-15
1.47633e-14
2.68688e-13
3.047e-12
3.82859e-11
5.72417e-10
7.45234e-09
8.23467e-08
1.15837e-06
1.03408e-05
2.90133e-05
3.34154e-05
4.0763e-06
6.39655e-07
8.93348e-14
9.6434e-15
1.34974e-15
4.85629e-16
1.65878e-16
1.73306e-16
2.43136e-15
5.31727e-14
8.33595e-13
7.94639e-12
9.14134e-11
1.20004e-09
1.37961e-08
1.64372e-07
1.28923e-06
5.3868e-06
7.36352e-06
6.39522e-07
9.54328e-08
4.57401e-15
6.88947e-16
1.08864e-16
4.47269e-17
1.62464e-17
1.97582e-17
3.5278e-16
7.83401e-15
1.6168e-13
2.18878e-12
1.77529e-11
1.97235e-10
2.21973e-09
2.49609e-08
2.18849e-07
8.81713e-07
1.47054e-06
9.54945e-08
1.34546e-08
1.4234e-16
5.40579e-17
8.65073e-18
3.81602e-18
1.44527e-18
2.24948e-18
4.45347e-17
1.00641e-15
2.16391e-14
4.20064e-13
4.88888e-12
3.31088e-11
3.4976e-10
3.71662e-09
2.9131e-08
1.28463e-07
2.65278e-07
1.34694e-08
1.78543e-09
1.0974e-17
2.31426e-18
6.25389e-19
2.90074e-19
1.14776e-19
2.24958e-19
4.82405e-18
1.12866e-16
2.42907e-15
4.64582e-14
7.87584e-13
8.05931e-12
5.40027e-11
5.31768e-10
3.50487e-09
1.68402e-08
3.95581e-08
1.78629e-09
2.23433e-10
6.13059e-19
1.11669e-19
4.03526e-20
2.01882e-20
8.32867e-21
1.97092e-20
4.49577e-19
1.07153e-17
2.09407e-16
3.79508e-15
6.8046e-14
1.20287e-12
1.28611e-11
7.69854e-11
4.60381e-10
2.01575e-09
5.00421e-09
2.23433e-10
3.27506e-11
2.4789e-20
4.88143e-21
2.44687e-21
1.30054e-21
5.6764e-22
1.52798e-21
3.63883e-20
7.66384e-19
1.43169e-17
2.75681e-16
5.10781e-15
9.69495e-14
1.96181e-12
1.68561e-11
6.35842e-11
2.62527e-10
5.78384e-10
2.92619e-11
6.77359e-12
6.54471e-22
2.30179e-22
1.37876e-22
7.82342e-23
3.61571e-23
1.04139e-22
2.46737e-21
4.53356e-20
9.00883e-19
1.76712e-17
3.57479e-16
7.36694e-15
1.67718e-13
2.47266e-12
1.4144e-11
3.66056e-11
7.87692e-11
1.86743e-11
1.00723e-12
2.19668e-23
1.1062e-23
7.1328e-24
4.3944e-24
2.15626e-24
6.34014e-24
1.20234e-22
2.35262e-21
4.50232e-20
9.08537e-19
2.09447e-17
5.2573e-16
1.26724e-14
2.14579e-13
1.9835e-12
7.97823e-12
9.65038e-12
8.33818e-12
9.71701e-14
7.02828e-25
4.84296e-25
3.46786e-25
2.29366e-25
1.20863e-25
3.39742e-25
5.57515e-24
9.98916e-23
2.35598e-21
5.53353e-20
1.17676e-18
3.36684e-17
8.98043e-16
1.71231e-14
1.56072e-13
9.46331e-13
1.67338e-12
1.06401e-12
8.18929e-15
2.64017e-26
1.9177e-26
1.58563e-26
1.11739e-26
6.38372e-27
1.54612e-26
2.13325e-25
5.08356e-24
1.38777e-22
3.4682e-21
7.81609e-20
1.95396e-18
6.03406e-17
1.28283e-15
1.17555e-14
7.09371e-14
1.67131e-13
7.47078e-14
6.55417e-16
9.35379e-28
7.21869e-28
6.69543e-28
5.13631e-28
3.16994e-28
4.914e-28
8.10442e-27
2.5663e-25
7.54351e-24
2.00749e-22
4.80711e-21
1.03928e-19
3.95659e-18
8.94143e-17
8.36916e-16
5.18882e-15
1.21511e-14
6.10638e-15
4.90352e-17
2.65522e-29
2.46487e-29
2.62208e-29
2.23225e-29
1.48491e-29
1.48691e-29
3.48942e-28
1.19522e-26
3.77443e-25
1.07518e-23
2.74575e-22
6.2325e-21
2.42741e-19
5.8245e-18
5.58037e-17
3.57719e-16
8.72563e-16
4.80912e-16
3.43948e-18
5.77988e-31
7.76161e-31
9.0801e-31
9.30617e-31
6.5776e-31
4.823e-31
1.36323e-29
5.08515e-28
1.73767e-26
5.33191e-25
1.45915e-23
3.53107e-22
1.39586e-20
3.56171e-19
3.49849e-18
2.31866e-17
5.91693e-17
3.53092e-17
2.27404e-19
1.2351e-32
2.1267e-32
2.95226e-32
3.3617e-32
2.8056e-32
1.54285e-32
4.823e-31
1.97364e-29
7.35782e-28
2.44961e-26
7.22513e-25
1.87107e-23
7.55831e-22
2.05352e-20
2.0711e-19
1.41759e-18
3.79335e-18
2.43304e-18
1.42475e-20
2.17013e-34
5.00422e-34
8.30706e-34
1.08449e-33
1.17584e-33
4.45996e-34
1.54285e-32
6.97822e-31
2.86465e-29
1.04327e-27
3.33848e-26
9.29471e-25
3.87313e-23
1.12105e-21
1.16325e-20
8.22064e-20
2.30923e-19
1.58481e-19
8.50455e-22
2.96204e-36
9.63e-36
2.10352e-35
3.48662e-35
4.30578e-35
1.16681e-35
4.45996e-34
2.24347e-32
1.02496e-30
4.12122e-29
1.44163e-27
4.33872e-26
1.88817e-24
5.81976e-23
6.22738e-22
4.54502e-21
1.3414e-20
9.81357e-21
4.8631e-23
2.95207e-38
1.55068e-37
4.83131e-37
1.02394e-36
1.41086e-36
2.76748e-37
1.16681e-35
6.53829e-34
3.36603e-32
1.51034e-30
5.8255e-29
1.90739e-27
8.80653e-26
2.88557e-24
3.19218e-23
2.40659e-22
7.47657e-22
5.8078e-22
2.67887e-24
1.99995e-40
1.99193e-39
9.44115e-39
2.65712e-38
4.55823e-38
6.01165e-39
2.76748e-37
1.71823e-35
1.01205e-33
5.13224e-32
2.20482e-30
7.91283e-29
3.95309e-27
1.37243e-25
1.57414e-24
1.22645e-23
4.02056e-23
3.3033e-23
1.42967e-25
9.02548e-43
1.92757e-41
1.5314e-40
6.28842e-40
1.42408e-39
1.35616e-40
6.01165e-39
4.03818e-37
2.77398e-35
1.61456e-33
7.81847e-32
3.10283e-30
1.71884e-28
6.28915e-27
7.50295e-26
6.04342e-25
2.09829e-24
1.81583e-24
7.43502e-27
2.28318e-45
1.31733e-43
2.02692e-42
1.32937e-41
4.15025e-41
2.52535e-41
1.2334e-40
8.36363e-39
6.86849e-37
4.67967e-35
2.59272e-33
1.15018e-31
7.27813e-30
2.78725e-28
3.47182e-27
2.89172e-26
1.06947e-25
9.70362e-26
3.62897e-28
2.48756e-48
5.86153e-46
2.11613e-44
2.41742e-43
1.09221e-42
1.57346e-42
2.0541e-42
1.52669e-40
1.54481e-38
1.25753e-36
8.09014e-35
4.05408e-33
3.03173e-31
1.20456e-29
1.55804e-28
1.32273e-27
4.93993e-27
5.08111e-27
1.7284e-29
5.71756e-54
6.34775e-49
9.24741e-47
2.44216e-45
1.82991e-44
5.20648e-44
7.86242e-44
2.0541e-42
2.73697e-40
2.84774e-38
2.2304e-36
1.30357e-34
5.7682e-33
2.63137e-31
5.02345e-30
6.30517e-29
5.03417e-28
1.33221e-28
1.72745e-29
)
;

boundaryField
{
    leftWall
    {
        type            zeroGradient;
    }
    rightWall
    {
        type            zeroGradient;
    }
    lowerWall
    {
        type            zeroGradient;
    }
    atmosphere
    {
        type            inletOutlet;
        inletValue      uniform 0;
        value           nonuniform List<scalar> 
46
(
0
0
0
0
0
0
0
0
0
0
0
0
0
0
0
0
0
0
0
0
0
0
0
0
0
0
0
0
0
0
0
1.82991e-44
5.20648e-44
7.86242e-44
2.0541e-42
2.73697e-40
2.84774e-38
2.2304e-36
1.30357e-34
5.7682e-33
2.63137e-31
5.02345e-30
6.30517e-29
5.03417e-28
1.33221e-28
1.72745e-29
)
;
    }
    defaultFaces
    {
        type            empty;
    }
}


// ************************************************************************* //
