/*--------------------------------*- C++ -*----------------------------------*\
| =========                 |                                                 |
| \\      /  F ield         | OpenFOAM: The Open Source CFD Toolbox           |
|  \\    /   O peration     | Version:  2206                                  |
|   \\  /    A nd           | Website:  www.openfoam.com                      |
|    \\/     M anipulation  |                                                 |
\*---------------------------------------------------------------------------*/
FoamFile
{
    version     2.0;
    format      ascii;
    arch        "LSB;label=32;scalar=64";
    class       surfaceScalarField;
    location    "0.325";
    object      alphaPhi0.water;
}
// * * * * * * * * * * * * * * * * * * * * * * * * * * * * * * * * * * * * * //

dimensions      [0 3 -1 0 0 0 0];

oriented        oriented;

internalField   nonuniform List<scalar> 
4432
(
4.21989e-07
-4.21989e-07
1.82013e-06
-1.39814e-06
3.48052e-06
-1.66038e-06
5.03964e-06
-1.55911e-06
6.40325e-06
-1.36361e-06
7.59384e-06
-1.19059e-06
8.65567e-06
-1.06182e-06
9.6166e-06
-9.60927e-07
1.0482e-05
-8.65448e-07
1.12405e-05
-7.5841e-07
1.18692e-05
-6.2876e-07
1.23328e-05
-4.63556e-07
1.25836e-05
-2.50868e-07
1.25598e-05
2.37979e-08
1.21139e-05
4.45925e-07
1.11703e-05
9.43672e-07
9.67329e-06
1.49696e-06
7.64038e-06
2.0329e-06
5.24545e-06
2.39493e-06
2.82963e-06
2.41583e-06
8.89322e-07
1.94031e-06
-5.4492e-08
9.43818e-07
-5.44889e-08
4.09323e-07
-8.31304e-07
1.8151e-06
-2.8039e-06
3.50474e-06
-3.35e-06
5.10275e-06
-3.15712e-06
6.50222e-06
-2.76307e-06
7.72139e-06
-2.40975e-06
8.80673e-06
-2.14716e-06
9.7902e-06
-1.94439e-06
1.06807e-05
-1.75599e-06
1.14699e-05
-1.54761e-06
1.21394e-05
-1.2982e-06
1.26715e-05
-9.95638e-07
1.30523e-05
-6.3174e-07
1.32665e-05
-1.9037e-07
1.33619e-05
3.50562e-07
1.32912e-05
1.0143e-06
1.29393e-05
1.84888e-06
1.21292e-05
2.84304e-06
1.06624e-05
3.8617e-06
8.44982e-06
4.62842e-06
5.63494e-06
4.7552e-06
2.63222e-06
3.94654e-06
2.57773e-06
3.74105e-07
-1.2054e-06
1.77734e-06
-4.20713e-06
3.50089e-06
-5.07354e-06
5.14896e-06
-4.80517e-06
6.59379e-06
-4.2079e-06
7.84586e-06
-3.66181e-06
8.95487e-06
-3.25616e-06
9.95987e-06
-2.94938e-06
1.08762e-05
-2.67232e-06
1.16997e-05
-2.37111e-06
1.24147e-05
-2.01318e-06
1.29987e-05
-1.57965e-06
1.34224e-05
-1.05542e-06
1.36572e-05
-4.25218e-07
1.36903e-05
3.17424e-07
1.35166e-05
1.188e-06
1.31595e-05
2.20604e-06
1.26068e-05
3.39572e-06
1.17238e-05
4.74467e-06
1.02145e-05
6.1378e-06
7.73177e-06
7.23789e-06
4.17532e-06
7.503e-06
6.75305e-06
3.24703e-07
-1.5301e-06
1.72696e-06
-5.60938e-06
3.49912e-06
-6.8457e-06
5.21804e-06
-6.52409e-06
6.72827e-06
-5.71811e-06
8.02942e-06
-4.96296e-06
9.17481e-06
-4.40155e-06
1.02128e-05
-3.98735e-06
1.11672e-05
-3.62677e-06
1.20394e-05
-3.24331e-06
1.2816e-05
-2.78977e-06
1.34753e-05
-2.23895e-06
1.39921e-05
-1.57218e-06
1.4339e-05
-7.72113e-07
1.44735e-05
1.82896e-07
1.43603e-05
1.30121e-06
1.39606e-05
2.60572e-06
1.32601e-05
4.0962e-06
1.22306e-05
5.77418e-06
1.07286e-05
7.63986e-06
8.37811e-06
9.58834e-06
4.73734e-06
1.11438e-05
1.14904e-05
2.65676e-07
-1.79577e-06
1.66768e-06
-7.01137e-06
3.49883e-06
-8.67685e-06
5.30277e-06
-8.32802e-06
6.89264e-06
-7.30798e-06
8.25598e-06
-6.3263e-06
9.44977e-06
-5.59532e-06
1.05325e-05
-5.07013e-06
1.15381e-05
-4.63228e-06
1.24743e-05
-4.17952e-06
1.33313e-05
-3.64683e-06
1.40894e-05
-2.99701e-06
1.47229e-05
-2.20574e-06
1.52017e-05
-1.2509e-06
1.54902e-05
-1.05623e-07
1.55392e-05
1.25223e-06
1.52825e-05
2.86243e-06
1.46324e-05
4.74633e-06
1.34952e-05
6.91139e-06
1.17718e-05
9.36328e-06
9.24037e-06
1.21197e-05
5.39536e-06
1.49888e-05
1.68858e-05
1.97714e-07
-1.99348e-06
1.6022e-06
-8.41585e-06
3.50183e-06
-1.05765e-05
5.39886e-06
-1.0225e-05
7.07526e-06
-8.98438e-06
8.50879e-06
-7.75983e-06
9.76093e-06
-6.84746e-06
1.09003e-05
-6.20948e-06
1.19704e-05
-5.70237e-06
1.29862e-05
-5.19538e-06
1.39424e-05
-4.60298e-06
1.48214e-05
-3.87606e-06
1.55993e-05
-2.9836e-06
1.62468e-05
-1.89841e-06
1.67295e-05
-5.88345e-07
1.69972e-05
9.8462e-07
1.69823e-05
2.87733e-06
1.65723e-05
5.15635e-06
1.55929e-05
7.89079e-06
1.3817e-05
1.11391e-05
1.09534e-05
1.49834e-05
6.46257e-06
1.94796e-05
2.33483e-05
1.25062e-07
-2.11854e-06
1.54039e-06
-9.83117e-06
3.51506e-06
-1.25512e-05
5.50281e-06
-1.22128e-05
7.26203e-06
-1.07436e-05
8.76699e-06
-9.26478e-06
1.00848e-05
-8.16531e-06
1.12925e-05
-7.41715e-06
1.24413e-05
-6.85119e-06
1.35526e-05
-6.30666e-06
1.46257e-05
-5.67606e-06
1.56473e-05
-4.8977e-06
1.65977e-05
-3.93394e-06
1.74524e-05
-2.75311e-06
1.81805e-05
-1.31647e-06
1.87378e-05
4.27339e-07
1.90641e-05
2.55103e-06
1.90545e-05
5.16595e-06
1.85223e-05
8.42302e-06
1.71993e-05
1.24621e-05
1.45754e-05
1.76073e-05
1.01667e-05
2.38884e-05
3.35151e-05
6.99417e-08
-2.18848e-06
1.50928e-06
-1.12705e-05
3.55458e-06
-1.45965e-05
5.6143e-06
-1.42725e-05
7.43987e-06
-1.25692e-05
9.0104e-06
-1.08353e-05
1.0399e-05
-9.55389e-06
1.16871e-05
-8.70531e-06
1.29299e-05
-8.094e-06
1.41524e-05
-7.52915e-06
1.53583e-05
-6.88196e-06
1.65399e-05
-6.07925e-06
1.76843e-05
-5.07841e-06
1.87762e-05
-3.84496e-06
1.97957e-05
-2.33592e-06
2.07175e-05
-4.94519e-07
2.14956e-05
1.77301e-06
2.20492e-05
4.61233e-06
2.21797e-05
8.29249e-06
2.15352e-05
1.31066e-05
1.90906e-05
2.00519e-05
1.354e-05
2.94389e-05
4.70551e-05
-2.59501e-05
2.1783e-05
-3.21797e-05
7.50916e-06
-2.84992e-05
-3.2306e-08
-2.71972e-05
-5.1546e-07
-3.40236e-05
-1.24475e-06
-3.21938e-05
-2.86543e-06
-2.31397e-05
-6.69708e-06
3.11766e-06
-2.59955e-05
5.5752e-05
-5.14494e-05
9.14877e-05
-3.49465e-05
0.000112043
-1.98411e-05
0.000122104
-1.00434e-05
0.000120323
1.81477e-06
9.64073e-05
2.2999e-05
4.69692e-05
4.99508e-05
-2.38832e-06
5.75108e-05
-9.81193e-06
5.65415e-06
-1.98642e-05
8.14816e-06
-3.16745e-05
-1.31367e-05
1.69964e-05
-9.34595e-07
4.1825e-07
-8.66353e-07
-1.37519e-07
-9.25097e-07
-3.46239e-07
-1.27352e-06
-7.95166e-07
-1.91418e-06
-2.28465e-06
5.96423e-06
-1.48119e-05
7.9448e-05
-0.000102654
0.000121907
-9.43433e-05
0.00014576
-5.8792e-05
0.00015958
-3.36396e-05
0.000166511
-1.69559e-05
0.000168212
1.75991e-07
0.000162943
2.82971e-05
0.000137544
7.53748e-05
6.73649e-05
0.000129154
-1.3033e-06
7.87986e-05
-2.35679e-05
2.62642e-05
-7.20841e-05
-4.58308e-07
5.09708e-06
-1.62179e-07
8.51494e-08
-1.67924e-07
-1.68745e-07
-6.14965e-08
-4.89638e-07
5.61214e-07
-1.46035e-06
9.00039e-06
-1.07924e-05
8.8567e-05
-9.10793e-05
0.000125896
-0.000139351
0.000143593
-0.000111987
0.000157796
-7.29647e-05
0.000167572
-4.33975e-05
0.0001731
-2.24648e-05
0.000174329
-1.03531e-06
0.000171555
3.10893e-05
0.000164236
8.27122e-05
0.00013672
0.000156692
4.72795e-05
0.000177194
3.86433e-06
7.13906e-05
-6.74011e-05
5.20364e-07
4.31889e-06
3.30304e-07
8.00121e-08
4.36735e-07
-3.12147e-07
1.33897e-06
-1.41649e-06
9.08348e-06
-9.2122e-06
7.59891e-05
-7.47229e-05
0.000128405
-0.000141642
0.00013896
-0.000149861
0.000150927
-0.000123939
0.000162786
-8.48021e-05
0.000171529
-5.2124e-05
0.000177081
-2.80012e-05
0.000179326
-3.26271e-06
0.000176742
3.36908e-05
0.000171166
8.83053e-05
0.000161735
0.000166142
0.000111087
0.000227879
2.40053e-05
0.000159203
-4.24471e-05
8.30128e-07
3.1079e-06
7.26398e-07
-9.42461e-08
1.43165e-06
-1.0421e-06
8.89532e-06
-8.82009e-06
6.94858e-05
-6.93028e-05
0.000125613
-0.000130122
0.000139348
-0.000155239
0.000146471
-0.00015693
0.000155759
-0.000133188
0.000165042
-9.40744e-05
0.00017206
-5.91221e-05
0.000177192
-3.31209e-05
0.000180498
-6.55293e-06
0.000180295
3.39113e-05
0.000175298
9.33211e-05
0.000169992
0.000171465
0.000144038
0.000253853
7.25069e-05
0.000244024
1.75698e-05
8.1401e-07
1.7485e-06
1.55153e-06
-1.23179e-06
9.0226e-06
-8.45396e-06
7.12517e-05
-6.99446e-05
0.00012178
-0.000118852
0.000137624
-0.000145871
0.000144447
-0.000161937
0.000149379
-0.000161723
0.000154279
-0.000138033
0.000158495
-9.82514e-05
0.000160976
-6.15774e-05
0.000161626
-3.33738e-05
0.000162869
-8.10847e-06
0.000169007
2.23727e-05
0.000172069
9.02719e-05
0.000169874
0.000173681
0.000153803
0.000269818
9.97869e-05
0.000297902
0.000117107
8.26696e-07
3.58723e-07
1.76313e-05
-1.81884e-05
8.12209e-05
-6.80021e-05
0.000120483
-0.000108311
0.000135
-0.000133325
0.000142455
-0.000153248
0.000144963
-0.000164351
0.000145223
-0.000161859
0.00013917
-0.000131805
0.000116592
-7.23049e-05
7.89909e-05
-1.79525e-05
5.35469e-05
-3.92073e-06
4.31462e-05
-5.95383e-07
4.80692e-05
7.89785e-07
0.00010104
9.12893e-06
0.000145316
0.000103644
0.00014754
0.000267454
0.000101595
0.00034233
0.000216843
4.32254e-05
-3.99486e-05
9.31706e-05
-6.67578e-05
0.000120236
-9.50616e-05
0.000131615
-0.000119664
0.000137792
-0.000139466
0.000140781
-0.000156192
0.000137858
-0.000161339
0.000122951
-0.000145975
6.83397e-05
-7.03634e-05
1.8777e-05
-1.52197e-05
4.53261e-06
-1.12148e-06
6.64569e-07
-5.21417e-08
7.70852e-08
-7.9943e-09
8.66347e-07
-1.67688e-09
8.64426e-06
1.03503e-06
6.35603e-05
1.453e-05
0.00012438
0.000189255
9.68591e-05
0.000367989
0.000312598
1.37704e-07
-2.32619e-06
3.33833e-06
-1.44711e-05
7.86125e-06
-1.91194e-05
1.23776e-05
-1.87889e-05
1.6386e-05
-1.65775e-05
1.98949e-05
-1.43443e-05
2.30854e-05
-1.27444e-05
2.61297e-05
-1.17496e-05
2.91364e-05
-1.11007e-05
3.21559e-05
-1.05487e-05
3.52034e-05
-9.92949e-06
3.82804e-05
-9.1562e-06
4.13887e-05
-8.18672e-06
4.45389e-05
-6.99514e-06
4.77568e-05
-5.55382e-06
5.10865e-05
-3.82428e-06
5.46234e-05
-1.76378e-06
5.85702e-05
6.65543e-07
6.31797e-05
3.68298e-06
6.91606e-05
7.12569e-06
7.78443e-05
1.13682e-05
9.26843e-05
1.4599e-05
2.36856e-05
0.000116054
3.60893e-07
-2.68708e-06
3.79051e-06
-1.79007e-05
8.46335e-06
-2.37922e-05
1.3024e-05
-2.33495e-05
1.70821e-05
-2.06356e-05
2.07553e-05
-1.80174e-05
2.426e-05
-1.62491e-05
2.77467e-05
-1.52363e-05
3.12866e-05
-1.46406e-05
3.49052e-05
-1.41672e-05
3.86142e-05
-1.36385e-05
4.24309e-05
-1.29729e-05
4.63879e-05
-1.21437e-05
5.05393e-05
-1.11466e-05
5.49682e-05
-9.98275e-06
5.97979e-05
-8.65395e-06
6.51965e-05
-7.1624e-06
7.13835e-05
-5.52141e-06
7.87846e-05
-3.7181e-06
8.77491e-05
-1.83887e-06
9.86921e-05
4.25216e-07
0.000111652
1.63909e-06
5.97782e-06
0.00012936
8.16691e-07
-3.50375e-06
4.53784e-06
-2.16219e-05
9.32373e-06
-2.85781e-05
1.37948e-05
-2.78205e-05
1.77527e-05
-2.45935e-05
2.14933e-05
-2.1758e-05
2.52692e-05
-2.00249e-05
2.91738e-05
-1.91409e-05
3.3207e-05
-1.86738e-05
3.7348e-05
-1.83082e-05
4.15914e-05
-1.7882e-05
4.59559e-05
-1.73374e-05
5.04815e-05
-1.66693e-05
5.52255e-05
-1.58905e-05
6.02595e-05
-1.50168e-05
6.5669e-05
-1.40635e-05
7.1554e-05
-1.30474e-05
7.80258e-05
-1.19932e-05
8.52377e-05
-1.093e-05
9.3333e-05
-9.93411e-06
0.000102791
-9.03301e-06
0.000113063
-8.63322e-06
-8.11648e-06
0.000127158
1.33407e-06
-4.8378e-06
5.34009e-06
-2.56279e-05
1.02755e-05
-3.35128e-05
1.46394e-05
-3.21838e-05
1.84788e-05
-2.84325e-05
2.2303e-05
-2.55819e-05
2.63645e-05
-2.40863e-05
3.06592e-05
-2.34354e-05
3.5105e-05
-2.31194e-05
3.96429e-05
-2.2846e-05
4.42591e-05
-2.2498e-05
4.89746e-05
-2.20527e-05
5.38313e-05
-2.15258e-05
5.88817e-05
-2.09407e-05
6.4183e-05
-2.0318e-05
6.97972e-05
-1.96774e-05
7.57889e-05
-1.9039e-05
8.22232e-05
-1.84273e-05
8.91706e-05
-1.78772e-05
9.6677e-05
-1.74411e-05
0.000104809
-1.71649e-05
0.000113354
-1.71775e-05
-1.73008e-05
0.000122538
2.31593e-06
-7.1537e-06
6.80373e-06
-3.01131e-05
1.16152e-05
-3.83149e-05
1.56073e-05
-3.61674e-05
1.93049e-05
-3.21238e-05
2.33021e-05
-2.95743e-05
2.76959e-05
-2.84762e-05
3.23352e-05
-2.80716e-05
3.70769e-05
-2.7858e-05
4.18592e-05
-2.76248e-05
4.66778e-05
-2.73124e-05
5.15578e-05
-2.69277e-05
5.6539e-05
-2.65015e-05
6.16612e-05
-2.60572e-05
6.69656e-05
-2.56163e-05
7.2488e-05
-2.51932e-05
7.82568e-05
-2.48006e-05
8.42923e-05
-2.44552e-05
9.0614e-05
-2.41888e-05
9.7235e-05
-2.40528e-05
0.000104182
-2.41015e-05
0.000111439
-2.44218e-05
-2.50806e-05
0.000119231
6.12715e-06
-1.32782e-05
1.24004e-05
-3.63251e-05
1.47572e-05
-4.0376e-05
1.66601e-05
-3.79668e-05
1.97339e-05
-3.51112e-05
2.38208e-05
-3.35859e-05
2.84108e-05
-3.29961e-05
3.31197e-05
-3.26974e-05
3.78384e-05
-3.22944e-05
4.2546e-05
-3.17951e-05
4.72609e-05
-3.11744e-05
5.1909e-05
-3.02842e-05
5.65482e-05
-2.91097e-05
6.1157e-05
-2.78361e-05
6.57036e-05
-2.6434e-05
7.01231e-05
-2.49202e-05
7.43096e-05
-2.32891e-05
7.813e-05
-2.15266e-05
8.13927e-05
-1.96319e-05
8.39215e-05
-1.76717e-05
8.55184e-05
-1.57864e-05
8.55274e-05
-1.37643e-05
-9.7542e-06
8.22373e-05
1.40535e-05
-1.79682e-05
1.47373e-05
-1.62494e-05
1.21968e-05
-9.78918e-06
1.10709e-05
-1.03634e-05
1.23057e-05
-1.04552e-05
1.45997e-05
-1.0073e-05
1.6891e-05
-9.57973e-06
1.88718e-05
-8.9792e-06
2.04395e-05
-7.30359e-06
2.17119e-05
-4.22751e-06
2.26003e-05
-7.42258e-07
2.30788e-05
-4.79794e-08
2.30121e-05
-3.3799e-09
2.26809e-05
-2.58719e-10
2.19372e-05
-2.19835e-11
2.08373e-05
-2.00288e-12
1.93435e-05
-1.40865e-13
1.74388e-05
3.32364e-15
1.52007e-05
3.84763e-15
1.27125e-05
2.56153e-15
9.78064e-06
1.20766e-15
6.62248e-06
-2.29825e-15
-1.49927e-11
5.34344e-06
5.20285e-06
1.88319e-21
9.38435e-07
7.56692e-21
5.29652e-07
1.09643e-20
4.32918e-07
2.1584e-19
3.38604e-07
3.06433e-18
3.25842e-07
2.51847e-17
2.90967e-07
1.51811e-16
4.68398e-07
8.32718e-16
3.83068e-07
3.53718e-15
2.66779e-07
1.25215e-14
5.16428e-08
3.36998e-14
3.66326e-09
6.92679e-14
2.83259e-10
9.79319e-14
2.44288e-11
1.11627e-13
2.33769e-12
1.07616e-13
2.39299e-13
9.55115e-14
1.88485e-14
7.95851e-14
-5.76715e-15
6.31436e-14
-7.43452e-15
4.61298e-14
-5.46448e-15
2.74044e-14
-2.75804e-15
1.07855e-14
4.96814e-16
-3.22571e-15
-1.84703e-11
3.48878e-12
6.81509e-22
3.89344e-21
5.14589e-21
1.86014e-20
-6.7212e-22
6.84439e-20
-5.01085e-20
8.31794e-19
-7.11979e-19
9.23419e-18
-6.69873e-18
7.18463e-17
-4.74856e-17
4.2403e-16
-3.0827e-16
2.05343e-15
-1.5787e-15
8.26814e-15
-6.67393e-15
2.7228e-14
-2.24783e-14
7.19159e-14
-5.23366e-14
1.39175e-13
-8.65524e-14
1.83435e-13
-1.09053e-13
1.92617e-13
-1.17865e-13
1.76022e-13
-1.16592e-13
1.4652e-13
-1.07859e-13
1.14621e-13
-9.42434e-14
8.51175e-14
-7.56011e-14
5.5671e-14
-4.89867e-14
2.00358e-14
-2.07631e-14
-7.87854e-15
2.97434e-14
-5.40899e-14
-9.93673e-11
8.09249e-11
6.43755e-21
1.64704e-21
3.79688e-20
1.04116e-20
7.21298e-20
1.49427e-19
-1.12836e-19
2.05365e-18
-1.81778e-18
1.96877e-17
-1.75544e-17
1.44203e-16
-1.281e-16
8.13932e-16
-7.47699e-16
3.71526e-15
-3.54546e-15
1.3994e-14
-1.38119e-14
4.29982e-14
-4.2168e-14
1.04887e-13
-9.25079e-14
1.85631e-13
-1.36886e-13
2.18005e-13
-1.59514e-13
2.04857e-13
-1.60744e-13
1.68804e-13
-1.4798e-13
1.27845e-13
-1.28228e-13
9.11639e-14
-1.04856e-13
5.94551e-14
-7.46455e-14
2.57961e-14
-2.88177e-14
-2.85925e-14
2.72479e-14
-6.36577e-14
3.70255e-13
-3.93517e-13
-6.80746e-10
5.8288e-10
1.47752e-21
3.32208e-22
1.67391e-22
1.33762e-20
-1.42189e-20
3.11403e-19
-2.61739e-19
4.02145e-18
-3.20791e-18
3.71643e-17
-2.91694e-17
2.58237e-16
-1.99851e-16
1.37942e-15
-1.08396e-15
5.88837e-15
-4.77345e-15
2.04009e-14
-1.69173e-14
5.69631e-14
-4.69873e-14
1.24527e-13
-9.34709e-14
1.94298e-13
-1.22352e-13
1.9249e-13
-1.28179e-13
1.54655e-13
-1.18164e-13
1.10307e-13
-1.00533e-13
7.25766e-14
-8.02734e-14
4.34494e-14
-5.77141e-14
1.67477e-14
-2.69446e-14
-1.95863e-14
5.22959e-14
-1.08334e-13
2.95617e-13
-3.14275e-13
3.79902e-12
-3.87142e-12
-7.62631e-09
6.96016e-09
-6.24038e-24
2.79621e-22
-6.0766e-22
2.48925e-20
-1.76303e-20
5.71492e-19
-3.02392e-19
7.22407e-18
-3.69382e-18
6.35705e-17
-3.28532e-17
4.14583e-16
-2.14883e-16
2.06598e-15
-1.09567e-15
8.11341e-15
-4.45454e-15
2.53847e-14
-1.43885e-14
6.28473e-14
-3.60225e-14
1.19504e-13
-6.39139e-14
1.58467e-13
-7.19768e-14
1.25583e-13
-6.61969e-14
8.23194e-14
-5.45399e-14
4.80834e-14
-4.13198e-14
2.4353e-14
-2.79004e-14
5.66872e-15
-1.17528e-14
-1.91294e-14
4.70935e-14
-7.8127e-14
4.74335e-13
-5.48239e-13
2.30616e-12
-2.22372e-12
3.96241e-11
-4.10309e-11
-5.29168e-08
2.49735e-08
-6.66398e-24
5.15225e-22
-4.0824e-22
4.31533e-20
-9.86387e-21
9.54201e-19
-2.06637e-19
1.16584e-17
-2.59544e-18
9.67365e-17
-2.23701e-17
5.85719e-16
-1.41608e-16
2.68129e-15
-6.84516e-16
9.49956e-15
-2.58242e-15
2.62138e-14
-7.61061e-15
5.58425e-14
-1.70717e-14
8.88654e-14
-2.66211e-14
9.55889e-14
-2.5054e-14
5.75511e-14
-1.98101e-14
2.9096e-14
-1.39587e-14
1.19259e-14
-8.28776e-15
-1.19461e-16
-2.15831e-15
-1.67698e-14
1.86617e-14
-4.17982e-14
2.44316e-13
-3.66506e-13
3.04819e-12
-4.01872e-12
1.43122e-11
-1.41272e-11
3.64995e-10
-3.91839e-10
-7.63274e-08
3.74987e-08
-6.28717e-24
9.36112e-22
-7.99466e-23
6.85311e-20
3.69194e-20
1.39271e-18
5.51632e-19
1.61833e-17
4.1618e-18
1.25736e-16
2.00808e-17
7.01814e-16
6.47246e-17
2.91313e-15
1.35646e-16
9.13591e-15
1.48528e-16
2.16343e-14
-3.21993e-17
3.8022e-14
-4.34306e-16
4.75792e-14
-1.123e-15
3.88665e-14
-1.36234e-15
1.82286e-14
-1.21586e-15
6.5364e-15
-7.44565e-16
-2.78922e-16
6.74433e-17
-9.33528e-15
3.98746e-15
-3.10159e-14
4.87102e-14
-1.66802e-13
4.28625e-13
-1.28552e-12
2.92278e-12
-8.09516e-12
4.98306e-11
-1.3869e-10
3.16795e-09
-3.54911e-09
-2.81744e-08
1.68073e-08
3.92629e-23
1.46067e-21
1.88234e-20
8.19762e-20
4.25928e-19
1.53625e-18
4.93226e-18
1.66131e-17
3.62533e-17
1.19532e-16
1.85993e-16
6.10614e-16
6.93954e-16
2.28141e-15
1.91019e-15
6.294e-15
3.8487e-15
1.27295e-14
5.46879e-15
1.84153e-14
5.00932e-15
1.81842e-14
2.58077e-15
1.13521e-14
9.92079e-16
4.06129e-15
-4.49445e-17
3.86607e-16
-8.83419e-16
-2.21735e-15
-1.29152e-15
-1.36714e-14
1.40371e-14
-6.71958e-14
1.92869e-13
-4.86181e-13
2.57683e-12
-3.83962e-12
3.84622e-11
-3.88545e-11
-2.83744e-10
-5.40783e-10
-2.08588e-10
-1.47651e-09
-2.49297e-09
-1.1301e-08
7.98334e-22
1.44469e-21
4.55626e-20
6.88235e-20
8.46795e-19
1.18426e-18
8.70105e-18
1.18288e-17
5.80772e-17
7.8259e-17
2.69739e-16
3.63683e-16
8.96336e-16
1.21803e-15
2.13906e-15
2.95592e-15
3.60209e-15
5.14118e-15
4.09723e-15
6.23453e-15
2.91307e-15
5.02741e-15
1.1714e-15
2.49321e-15
1.24142e-16
5.79417e-16
-1.07246e-15
-3.998e-16
-1.73339e-15
-3.2514e-15
2.34327e-15
-2.36488e-14
1.04837e-13
-1.91527e-13
7.98356e-13
-1.40237e-12
4.45558e-12
-9.05249e-12
1.15761e-11
-5.32755e-11
-5.00719e-10
-4.09681e-10
-8.70168e-10
-1.57147e-09
-1.52253e-09
-7.13466e-10
1.24569e-21
8.55203e-22
5.44057e-20
3.55223e-20
8.87555e-19
5.62781e-19
8.21881e-18
5.18894e-18
4.95183e-17
3.15392e-17
2.05516e-16
1.33537e-16
6.00433e-16
4.03196e-16
1.23322e-15
8.71415e-16
1.74279e-15
1.33209e-15
1.62097e-15
1.40093e-15
9.18242e-16
9.65658e-16
2.41553e-16
3.89606e-16
-1.87678e-16
3.72228e-19
-3.4669e-16
-2.55396e-16
-1.1949e-15
-2.64363e-15
-6.18006e-16
-2.89111e-14
5.17627e-14
-2.75297e-13
6.61136e-13
-2.25386e-12
6.06668e-12
-1.71617e-11
3.33102e-11
-1.02112e-10
-3.30749e-10
-1.14909e-09
-7.93955e-10
-2.21927e-09
-2.08562e-09
-1.82775e-09
9.24039e-22
2.28861e-22
3.41828e-20
8.45868e-21
5.01559e-19
1.23943e-19
4.21481e-18
1.05922e-18
2.29665e-17
5.95033e-18
8.54973e-17
2.31738e-17
2.21604e-16
6.40057e-17
3.98732e-16
1.25843e-16
4.87157e-16
1.74149e-16
3.86225e-16
1.65092e-16
1.77734e-16
1.01529e-16
1.92347e-19
3.34141e-17
-2.07183e-16
-5.21844e-18
-3.91712e-16
-7.08663e-17
-2.50112e-15
-5.529e-16
-3.1577e-14
-4.12043e-15
-3.02458e-13
-3.92704e-14
-2.23697e-12
-3.40895e-13
-1.67844e-11
-2.55204e-12
-1.51951e-10
-1.47799e-11
-3.88965e-09
-2.23216e-10
-4.455e-09
-5.95432e-10
-7.95132e-10
-4.68717e-09
2.78131e-22
1.72157e-26
9.09409e-21
3.28806e-25
1.21654e-19
2.37646e-24
9.36316e-19
9.01945e-24
4.66324e-18
1.68015e-23
1.58002e-17
2.76116e-24
3.7087e-17
-2.43114e-22
6.01406e-17
-2.32946e-21
6.59262e-17
-6.60089e-21
4.64127e-17
-2.26138e-20
1.73472e-17
-5.33342e-20
-3.05797e-18
-6.1776e-19
-5.03272e-18
-4.80016e-18
-7.81583e-17
-3.74494e-17
-4.84696e-16
-2.87822e-16
-2.45724e-15
-2.05175e-15
-2.00664e-14
-2.08451e-14
-2.5326e-13
-1.44587e-13
-2.26871e-12
-5.54124e-13
-1.62642e-11
-7.1202e-13
-2.49191e-10
-7.36682e-13
-1.03071e-09
-3.91833e-13
-3.5512e-13
-1.45358e-09
1.26711e-26
8.83416e-27
1.98703e-25
1.67999e-25
1.16678e-24
1.26142e-24
2.95715e-24
5.11062e-24
6.18204e-25
1.0227e-23
-6.49786e-24
-3.38784e-24
-7.27784e-23
-1.76834e-22
-2.38017e-22
-2.16422e-21
-1.119e-21
-5.71991e-21
-1.32305e-20
-1.05023e-20
-3.73922e-20
-3.87178e-20
-6.76031e-19
-4.16437e-19
-5.92443e-18
-2.89435e-18
-4.19283e-17
-1.62607e-17
-2.84693e-16
-9.62593e-17
-2.50159e-15
-6.835e-16
-4.48112e-14
-6.89227e-15
-1.94557e-13
-9.31282e-14
-2.54799e-13
-5.03929e-13
-1.79633e-13
-8.65409e-13
-8.51122e-14
-7.66252e-13
-6.88698e-14
-4.11612e-13
-3.82232e-13
-4.55166e-14
7.20773e-27
2.99153e-27
1.15315e-25
5.81129e-26
7.16655e-25
4.71936e-25
1.94073e-24
2.25592e-24
-8.14267e-25
6.99359e-24
-1.85214e-23
1.43193e-23
-3.02244e-22
1.78781e-23
-1.51975e-21
7.05939e-24
-2.83815e-21
-1.78542e-23
-6.31121e-21
-4.59305e-22
-5.09015e-20
-1.15744e-20
-4.40272e-19
-2.01572e-19
-2.75094e-18
-1.56887e-18
-1.54588e-17
-6.44696e-18
-7.66448e-17
-1.5551e-17
-5.37717e-16
-6.61613e-17
-6.84465e-15
-8.3475e-16
-2.71284e-13
-1.15567e-14
-6.35142e-13
-2.21606e-13
-7.69411e-13
-4.12771e-13
-6.98159e-13
-5.04381e-13
-6.07893e-13
-4.00389e-13
-3.68997e-13
-5.62775e-13
2.66959e-27
4.70716e-28
4.56395e-26
9.10326e-27
3.32674e-25
7.52089e-26
1.39023e-24
3.6799e-25
3.5933e-24
1.17408e-24
5.43901e-24
2.4874e-24
2.53413e-24
3.23849e-24
-8.44112e-24
1.44285e-24
-2.29968e-23
-3.29861e-24
-4.0852e-22
-7.533e-23
-1.23746e-20
-1.76539e-21
-2.41643e-19
-4.87914e-20
-1.82995e-18
-5.9794e-19
-5.79652e-18
-2.87163e-18
-1.06029e-17
-6.40661e-18
-5.87659e-17
-7.85436e-18
-8.82618e-16
-6.82233e-18
-1.31994e-14
-8.42973e-18
-2.31589e-13
-7.02865e-18
-4.27526e-13
-3.41348e-18
-6.05425e-13
-1.82828e-17
-6.69565e-13
-2.03599e-16
-2.1173e-15
-6.90303e-13
4.33876e-28
5.44721e-35
7.48676e-27
1.74477e-34
5.56585e-26
-5.42258e-35
2.3878e-25
-4.46459e-33
6.37189e-25
-2.75376e-31
1.00353e-24
-1.35896e-29
5.26312e-25
-4.24055e-28
-1.35556e-24
-5.44949e-27
-4.46459e-24
-1.89572e-25
-7.47818e-23
-3.91574e-24
-1.82273e-21
-9.47088e-23
-5.90537e-20
-2.21756e-21
-6.80475e-19
-5.89103e-20
-2.89231e-18
-6.55011e-19
-5.64529e-18
-2.85833e-18
-5.89248e-18
-5.50767e-18
-2.63103e-18
-5.85758e-18
-1.81495e-18
-5.77188e-18
-1.68364e-18
-5.03981e-18
-2.58703e-18
-1.98964e-18
-1.99643e-17
-1.35322e-18
-2.21143e-16
-2.27683e-18
-2.5387e-18
-2.33584e-15
8.41133e-36
-5.5238e-42
-5.43352e-36
-1.70849e-39
-5.92385e-35
-4.20827e-37
-4.48707e-33
-3.67529e-35
-2.77457e-31
-2.40535e-33
-3.0724e-29
-6.35031e-32
-1.61151e-28
-2.77685e-30
-2.35247e-27
-1.03066e-28
-1.85233e-25
-4.13938e-27
-3.90232e-24
-9.82554e-26
-9.42133e-23
-2.57592e-24
-2.40913e-21
-6.17481e-23
-6.82694e-20
-1.62041e-21
-7.162e-19
-3.56518e-20
-2.99584e-18
-3.42824e-19
-5.49185e-18
-1.57492e-18
-5.84634e-18
-2.61276e-18
-5.25053e-18
-3.47437e-18
-3.21897e-18
-4.30021e-18
-1.66041e-18
-3.67616e-18
-7.37498e-19
-3.57122e-18
-2.94844e-19
-3.40049e-18
-2.69021e-18
-1.04738e-19
-5.47054e-42
-5.32553e-44
-1.69759e-39
-1.63757e-41
-4.1788e-37
-2.28425e-39
-3.67555e-35
-2.14857e-37
-2.41432e-33
-1.51367e-35
-6.48051e-32
-4.37074e-34
-2.7709e-30
-2.06016e-32
-1.03261e-28
-8.33036e-31
-4.18019e-27
-3.51312e-29
-1.00327e-25
-9.41215e-28
-2.62145e-24
-2.68095e-26
-6.33199e-23
-6.95162e-25
-1.795e-21
-1.67835e-23
-3.7787e-20
-4.88161e-22
-3.39103e-19
-9.0063e-21
-1.64223e-18
-7.23938e-20
-3.27093e-18
-2.91304e-19
-3.72654e-18
-7.12318e-19
-4.22144e-18
-1.22393e-18
-4.39606e-18
-9.1683e-19
-4.49184e-18
-8.90719e-19
-4.16674e-18
-1.12035e-18
-1.33798e-18
-3.55564e-18
-5.91825e-44
5.92721e-45
-1.64169e-41
-1.06964e-44
-2.29861e-39
-9.78447e-43
-2.16957e-37
-9.96503e-41
-1.53415e-35
-7.62265e-39
-4.51883e-34
-2.4361e-37
-2.10125e-32
-1.22873e-35
-8.5226e-31
-5.37421e-34
-3.64974e-29
-2.30762e-32
-9.76667e-28
-7.06805e-31
-2.77364e-26
-2.17622e-29
-7.21724e-25
-6.1056e-28
-1.76093e-23
-1.58191e-26
-5.62409e-22
-4.43484e-25
-9.49777e-21
-1.13667e-23
-6.52843e-20
-1.30264e-22
-2.33495e-19
-7.20076e-22
-5.5444e-19
-2.38446e-21
-1.01513e-18
-5.68984e-21
-8.93643e-19
-1.05781e-20
-7.90873e-19
-1.53757e-20
-1.03936e-18
-1.80321e-20
-1.85777e-20
-1.21965e-18
-1.20837e-46
3.09836e-45
-2.16375e-44
1.08203e-44
-9.99043e-43
-4.96569e-46
-1.01186e-40
-5.82541e-44
-7.76958e-39
-5.14229e-42
-2.52597e-37
-2.00387e-40
-1.25032e-35
-1.09553e-38
-5.48235e-34
-5.21441e-37
-2.37518e-32
-2.36909e-35
-7.29245e-31
-8.0752e-34
-2.24315e-29
-2.70454e-32
-6.31462e-28
-8.2553e-31
-1.64445e-26
-2.31913e-29
-4.95302e-25
-6.4329e-28
-1.22081e-23
-2.14016e-26
-1.19862e-22
-3.07582e-25
-5.79614e-22
-1.81802e-24
-1.81326e-21
-5.54324e-24
-4.26883e-21
-1.11672e-23
-7.68386e-21
-1.76044e-23
-1.05856e-20
-2.37729e-23
-1.21534e-20
-2.86555e-23
-3.13369e-23
-1.2796e-20
4.65056e-46
4.37904e-52
-2.48655e-47
-7.68448e-54
-5.90001e-46
-1.88436e-51
-6.5674e-44
-2.24708e-49
-5.73489e-42
-2.03514e-47
-2.06119e-40
-1.10764e-45
-1.11612e-38
-6.56585e-44
-5.32589e-37
-3.40639e-42
-2.42231e-35
-1.68194e-40
-8.31728e-34
-6.27969e-39
-2.78767e-32
-2.28735e-37
-8.53386e-31
-7.6008e-36
-2.40549e-29
-2.33191e-34
-7.22837e-28
-7.67244e-33
-2.5083e-26
-2.12546e-31
-3.00629e-25
-3.06685e-30
-1.43844e-24
-3.75749e-29
-3.81895e-24
-4.96287e-28
-7.24896e-24
-4.83339e-27
-1.13106e-23
-2.5021e-26
-1.54694e-23
-7.27056e-26
-1.9091e-23
-1.42546e-25
-2.20166e-25
-2.16362e-23
-3.14108e-55
-1.13425e-59
-7.98806e-54
-1.05328e-56
-1.88804e-51
-1.5001e-54
-2.26055e-49
-1.96482e-52
-2.05263e-47
-1.95444e-50
-1.1247e-45
-1.17254e-48
-6.6458e-44
-7.62355e-47
-3.4539e-42
-4.34203e-45
-1.71101e-40
-2.3355e-43
-6.42643e-39
-9.60826e-42
-2.33925e-37
-3.8441e-40
-7.79555e-36
-1.40051e-38
-2.39387e-34
-4.69045e-37
-7.05421e-33
-1.48501e-35
-1.54007e-31
-5.96415e-34
-2.13349e-30
-1.05175e-32
-3.40578e-29
-1.11807e-31
-5.62937e-28
-1.28722e-30
-5.17404e-27
-1.72491e-29
-2.27343e-26
-1.4332e-28
-5.81109e-26
-5.82384e-28
-1.07264e-25
-1.3599e-27
-2.24595e-27
-1.66238e-25
-1.13352e-59
-7.28664e-63
-1.05349e-56
-3.94146e-60
-1.50895e-54
-6.21888e-58
-1.97755e-52
-8.98369e-56
-1.97173e-50
-9.86403e-54
-1.19041e-48
-6.55431e-52
-7.72363e-47
-4.69303e-50
-4.40717e-45
-2.94822e-48
-2.37565e-43
-1.73823e-46
-9.82485e-42
-7.95676e-45
-3.93179e-40
-3.508e-43
-1.43606e-38
-1.40826e-41
-4.8221e-37
-5.19452e-40
-1.52074e-35
-1.78653e-38
-5.04859e-34
-7.24162e-37
-6.82502e-33
-2.06494e-35
-7.68974e-32
-2.37761e-34
-1.3115e-30
-1.86737e-33
-2.05909e-29
-2.0205e-32
-1.46767e-28
-2.63005e-31
-4.92938e-28
-1.82413e-30
-1.03794e-27
-5.9797e-30
-1.16504e-29
-1.70878e-27
-7.285e-63
-6.19451e-67
-3.94788e-60
-3.72421e-64
-6.25874e-58
-6.50061e-62
-9.04581e-56
-1.04548e-59
-9.95358e-54
-1.27484e-57
-6.65447e-52
-9.44631e-56
-4.75732e-50
-7.50072e-54
-2.9937e-48
-5.22326e-52
-1.78067e-46
-3.32782e-50
-8.13133e-45
-1.72667e-48
-3.5868e-43
-8.43231e-47
-1.44313e-41
-3.74964e-45
-5.33531e-40
-1.53162e-43
-1.84634e-38
-5.79162e-42
-7.70142e-37
-2.09913e-40
-1.60985e-35
-1.01456e-38
-1.38532e-34
-1.87371e-37
-1.27635e-33
-1.44838e-36
-2.26779e-32
-9.25908e-36
-3.15156e-31
-1.08703e-34
-1.7522e-30
-1.33714e-33
-4.75483e-30
-7.28297e-33
-1.87108e-32
-8.77596e-30
-6.195e-67
4.82479e-71
-3.73041e-64
-2.47875e-71
-6.60011e-62
-5.11392e-69
-1.05767e-59
-9.36134e-67
-1.29313e-57
-1.29095e-64
-9.6344e-56
-1.10025e-62
-7.59706e-54
-9.79083e-61
-5.29923e-52
-7.59627e-59
-3.38757e-50
-5.35644e-57
-1.76054e-48
-3.11813e-55
-8.60836e-47
-1.69594e-53
-3.83572e-45
-8.40412e-52
-1.56998e-43
-3.82536e-50
-5.94873e-42
-1.6113e-48
-2.25846e-40
-6.33333e-47
-1.03798e-38
-2.64122e-45
-1.27921e-37
-1.18041e-43
-7.57922e-37
-1.81341e-42
-6.76429e-36
-1.04066e-41
-1.36554e-34
-3.33539e-41
-1.5397e-33
-9.24797e-41
-6.42155e-33
-3.59533e-40
-4.71583e-39
-1.43694e-32
-4.29323e-73
-6.24983e-79
-2.83338e-71
-6.13784e-76
-5.42208e-69
-1.63293e-73
-9.86906e-67
-3.27764e-71
-1.35479e-64
-4.97982e-69
-1.11366e-62
-5.27488e-67
-9.90088e-61
-5.25699e-65
-7.69364e-59
-4.57649e-63
-5.43259e-57
-3.6185e-61
-3.17197e-55
-2.3673e-59
-1.72726e-53
-1.44535e-57
-8.57484e-52
-8.04316e-56
-3.9102e-50
-4.11198e-54
-1.65003e-48
-1.94568e-52
-6.5052e-47
-8.57644e-51
-3.04863e-45
-3.58432e-49
-1.28923e-43
-1.98031e-47
-1.4493e-42
-5.57604e-46
-6.29683e-42
-4.85641e-45
-1.907e-41
-1.95046e-44
-6.00584e-41
-6.23615e-44
-3.15747e-40
-3.12928e-43
-8.7256e-42
-5.01985e-39
-6.24915e-79
-6.78726e-83
-6.14307e-76
-3.92683e-80
-1.63875e-73
-1.18321e-77
-3.29333e-71
-2.69272e-75
-5.01161e-69
-4.64262e-73
-5.32358e-67
-5.58801e-71
-5.30875e-65
-6.31456e-69
-4.62742e-63
-6.23953e-67
-3.66362e-61
-5.59233e-65
-2.40312e-59
-4.15562e-63
-1.46863e-57
-2.88068e-61
-8.18576e-56
-1.8199e-59
-4.19166e-54
-1.05651e-57
-1.98657e-52
-5.67832e-56
-8.77073e-51
-2.84374e-54
-3.71836e-49
-1.34295e-52
-2.36994e-47
-7.93786e-51
-4.9003e-46
-3.16055e-49
-2.95199e-45
-3.20172e-48
-1.04824e-44
-1.17935e-47
-3.9488e-44
-2.83516e-47
-2.78298e-43
-1.27843e-46
-4.63236e-45
-8.99769e-42
-6.78711e-83
-6.06682e-88
-3.9335e-80
-4.2854e-85
-1.1871e-77
-1.53337e-82
-2.70448e-75
-4.09718e-80
-4.66948e-73
-8.24678e-78
-5.63443e-71
-1.15553e-75
-6.37055e-69
-1.51327e-73
-6.30264e-67
-1.73099e-71
-5.65498e-65
-1.79159e-69
-4.21224e-63
-1.54164e-67
-2.92247e-61
-1.23383e-65
-1.84891e-59
-8.99484e-64
-1.07487e-57
-6.02426e-62
-5.7851e-56
-3.73499e-60
-2.90124e-54
-2.15771e-58
-1.38377e-52
-1.16956e-56
-1.01444e-50
-6.73972e-55
-3.00755e-49
-4.53227e-53
-1.90713e-48
-7.13091e-52
-5.26078e-48
-3.21733e-51
-1.39085e-47
-7.68266e-51
-1.08285e-46
-3.98592e-50
-1.87296e-48
-4.73833e-45
-6.06677e-88
-2.03371e-93
-4.2914e-85
-2.11828e-90
-1.53763e-82
-1.00226e-87
-4.11314e-80
-3.38448e-85
-8.28863e-78
-8.39984e-83
-1.16407e-75
-1.43354e-80
-1.52491e-73
-2.26684e-78
-1.74612e-71
-3.10979e-76
-1.81308e-69
-3.79591e-74
-1.55971e-67
-3.93769e-72
-1.24932e-65
-3.74593e-70
-9.1189e-64
-3.24059e-68
-6.11483e-62
-2.57198e-66
-3.79574e-60
-1.88758e-64
-2.19542e-58
-1.28962e-62
-1.19293e-56
-8.2508e-61
-8.34774e-55
-5.0164e-59
-4.75912e-53
-4.19127e-57
-4.45196e-52
-1.64142e-55
-1.31704e-51
-1.39356e-54
-3.08052e-51
-4.41456e-54
-3.34206e-50
-3.0643e-53
-1.85924e-51
-1.90423e-48
-2.03471e-93
1.00274e-96
-2.12617e-90
-2.64237e-96
-1.01001e-87
-2.11913e-93
-3.40472e-85
-1.03535e-90
-8.46165e-83
-3.48447e-88
-1.44688e-80
-7.86835e-86
-2.28127e-78
-1.61039e-83
-3.13249e-76
-2.8091e-81
-3.82937e-74