/*--------------------------------*- C++ -*----------------------------------*\
| =========                 |                                                 |
| \\      /  F ield         | OpenFOAM: The Open Source CFD Toolbox           |
|  \\    /   O peration     | Version:  2206                                  |
|   \\  /    A nd           | Website:  www.openfoam.com                      |
|    \\/     M anipulation  |                                                 |
\*---------------------------------------------------------------------------*/
FoamFile
{
    version     2.0;
    format      ascii;
    arch        "LSB;label=32;scalar=64";
    class       volScalarField;
    location    "0.325";
    object      p;
}
// * * * * * * * * * * * * * * * * * * * * * * * * * * * * * * * * * * * * * //

dimensions      [1 -1 -2 0 0 0 0];

internalField   nonuniform List<scalar> 
2268
(
1389.79
1390.32
1390.53
1390.4
1389.97
1389.38
1388.77
1388.22
1387.8
1387.57
1387.57
1387.88
1388.56
1389.71
1391.34
1393.4
1395.81
1398.4
1400.93
1403.1
1404.81
1406.15
1407.15
1330.57
1331.12
1331.35
1331.23
1330.8
1330.21
1329.59
1329.03
1328.6
1328.36
1328.35
1328.61
1329.2
1330.14
1331.52
1333.4
1335.75
1338.46
1341.3
1343.96
1346.23
1348.04
1349.25
1270.99
1271.56
1271.82
1271.74
1271.32
1270.71
1270.07
1269.5
1269.05
1268.79
1268.75
1268.98
1269.53
1270.45
1271.75
1273.45
1275.54
1277.96
1280.64
1283.53
1286.46
1289.17
1291.11
1211.02
1211.63
1211.94
1211.9
1211.5
1210.88
1210.21
1209.61
1209.14
1208.85
1208.78
1208.97
1209.44
1210.26
1211.42
1212.96
1214.86
1217.08
1219.56
1222.3
1225.33
1228.45
1230.89
1150.63
1151.3
1151.66
1151.68
1151.3
1150.67
1149.97
1149.34
1148.84
1148.52
1148.4
1148.52
1148.91
1149.6
1150.6
1151.93
1153.6
1155.55
1157.75
1160.13
1162.66
1165.24
1167.4
1089.78
1090.52
1090.95
1091.04
1090.68
1090.03
1089.31
1088.64
1088.1
1087.74
1087.56
1087.6
1087.87
1088.4
1089.19
1090.23
1091.53
1093.03
1094.66
1096.3
1097.8
1098.93
1099.37
1028.42
1029.26
1029.78
1029.94
1029.61
1028.95
1028.2
1027.5
1026.92
1026.49
1026.24
1026.16
1026.27
1026.58
1027.06
1027.71
1028.46
1029.21
1029.78
1029.88
1028.96
1026.14
1020.36
966.519
967.471
968.106
968.352
968.049
967.404
966.651
965.931
965.311
964.819
964.465
964.245
964.153
964.169
964.258
964.35
964.32
963.963
962.909
960.658
955.876
948.048
921.267
439.743
331.579
308.404
314.389
327.691
356.457
453.345
742.367
1080.61
1026.29
791.168
670.635
740.562
967.869
1314.47
1611.02
1589.48
1533.39
1947.51
383.603
297.22
299.684
306.751
316.226
342.338
427.237
667.8
973.224
913.328
697.43
586.537
642.818
844
1182.73
1515.9
1582
1452.17
1882.27
338.736
293.318
299.403
306.203
315.334
339.631
396.651
591.907
811.121
755.118
577.103
483.112
526.274
685.933
967.926
1295.31
1525.39
1376.75
1821.51
336.266
293.66
298.21
305.908
314.544
326.839
360.365
498.54
642.628
592.957
450.076
370.816
398.228
513.676
732.791
1023.55
1355.37
1371.83
1860.93
340.035
297.841
297.404
306.245
307.783
301.163
314.959
402.315
481.385
426.399
310.214
244.875
255.794
326.412
493.409
752.47
1121.97
1389.52
2026.46
343
302.793
296.816
299.583
284.354
262.453
262.586
306.436
325.364
252.894
156.42
106.887
94.0516
113.581
220.661
459.162
860.712
1354.65
2281.86
344.786
306.799
283.631
273.187
246.202
219.841
205.645
212.067
177.497
91.7752
26.0051
11.7424
7.66224
6.01428
19.985
152.969
553.919
1218
2385.07
330.081
283.819
256.033
237.771
206.366
173.765
143.539
121.431
64.9298
11.6646
-1.78675
-2.77046
-2.94438
-2.84913
-1.33822
19.4866
258.274
977.128
2302.03
868.856
869.92
870.741
871.118
870.895
870.295
869.563
868.829
868.145
867.529
866.978
866.471
865.972
865.421
864.717
863.688
862.019
859.137
853.783
843.931
822.962
782.22
678.104
733.46
734.456
735.538
736.084
735.959
735.432
734.735
733.959
733.124
732.228
731.251
730.149
728.851
727.244
725.15
722.284
718.201
712.229
703.321
689.876
670.035
642.384
608.671
595.582
596.517
597.742
598.339
598.246
597.767
597.092
596.242
595.193
593.926
592.417
590.624
588.472
585.847
582.579
578.429
573.068
566.057
556.837
544.59
528.412
506.289
479.172
455.07
455.912
457.198
457.894
457.87
457.449
456.749
455.726
454.333
452.56
450.406
447.844
444.812
441.209
436.89
431.659
425.263
417.384
407.642
395.572
380.737
362.564
341.576
311.342
311.758
313.739
315.08
315.147
314.725
313.892
312.52
310.58
308.121
305.195
301.816
297.938
293.451
288.239
282.147
274.995
266.586
256.714
245.166
231.776
216.275
198.767
168.553
167.538
167.987
169.32
168.69
167.662
166.298
164.173
161.234
157.628
153.595
149.391
144.857
139.825
134.139
127.777
120.63
112.655
103.824
94.1378
83.6285
72.175
58.5891
59.4114
52.6181
43.2491
44.1654
44.1394
43.317
42.0381
40.1355
37.7987
35.1293
32.2748
30.1047
27.8377
25.4821
22.9863
20.4037
17.7615
15.0298
12.2214
9.42121
6.80388
3.98115
-0.0680657
10.7144
2.40789
0.0415217
0.0943804
-0.401625
-0.715191
-0.984129
-1.30439
-1.51107
-1.6251
-1.68579
-1.69413
-1.68825
-1.68434
-1.68475
-1.68986
-1.69878
-1.71062
-1.72578
-1.74472
-1.76746
-1.78844
-1.79028
-1.77329
-1.7779
-1.72444
-1.71474
-1.71544
-1.71668
-1.72039
-1.72703
-1.74271
-1.76479
-1.78426
-1.79685
-1.80474
-1.81123
-1.81832
-1.82704
-1.83829
-1.85238
-1.86954
-1.89018
-1.91446
-1.94237
-1.97078
-1.87784
-1.86788
-1.85423
-1.85692
-1.86193
-1.86719
-1.87317
-1.88092
-1.89115
-1.90317
-1.91538
-1.92716
-1.93825
-1.94928
-1.96117
-1.97439
-1.98982
-2.00812
-2.02969
-2.05417
-2.0804
-2.10737
-2.13148
-2.00863
-2.00787
-2.00981
-2.01123
-2.0147
-2.01944
-2.0254
-2.03265
-2.04126
-2.05107
-2.06177
-2.07309
-2.08511
-2.09798
-2.11223
-2.12855
-2.14777
-2.17038
-2.19645
-2.22389
-2.25024
-2.27247
-2.28467
-2.15735
-2.15777
-2.15853
-2.16031
-2.16334
-2.16763
-2.17314
-2.17983
-2.18766
-2.19663
-2.20671
-2.21795
-2.2305
-2.24466
-2.26105
-2.28061
-2.30441
-2.33271
-2.36462
-2.39547
-2.42417
-2.44389
-2.45583
-2.29833
-2.29917
-2.30076
-2.3032
-2.30657
-2.31098
-2.31641
-2.3229
-2.33049
-2.33926
-2.34933
-2.36086
-2.37414
-2.38969
-2.40842
-2.43167
-2.46057
-2.49467
-2.53126
-2.56474
-2.59658
-2.61477
-2.64448
-2.43725
-2.43836
-2.44004
-2.44261
-2.44608
-2.45046
-2.45577
-2.46208
-2.46949
-2.47815
-2.48816
-2.49985
-2.51354
-2.52994
-2.55034
-2.57642
-2.60905
-2.64699
-2.68679
-2.72467
-2.76155
-2.77874
-2.82978
-2.5732
-2.57429
-2.57601
-2.57854
-2.58191
-2.5861
-2.59117
-2.59721
-2.60433
-2.61267
-2.6224
-2.63376
-2.64716
-2.66338
-2.68389
-2.71037
-2.74345
-2.782
-2.82374
-2.8656
-2.90186
-2.93354
-2.99994
-2.70612
-2.70705
-2.70876
-2.71118
-2.71434
-2.71827
-2.72304
-2.72873
-2.73543
-2.74324
-2.75231
-2.76284
-2.77517
-2.79001
-2.80859
-2.83225
-2.86172
-2.89679
-2.93589
-2.97504
-3.01179
-3.05319
-3.11142
-2.83623
-2.83707
-2.83862
-2.84082
-2.84373
-2.84739
-2.85184
-2.85714
-2.86335
-2.87053
-2.87879
-2.88825
-2.89914
-2.91193
-2.92739
-2.94643
-2.9698
-2.99778
-3.02937
-3.06201
-3.09495
-3.13351
-3.18265
-2.96378
-2.96447
-2.96582
-2.96782
-2.97051
-2.97392
-2.97808
-2.98301
-2.98875
-2.99535
-3.00287
-3.01137
-3.02101
-3.03201
-3.04474
-3.05971
-3.07749
-3.09847
-3.12212
-3.14689
-3.17276
-3.20332
-3.24101
-3.08888
-3.08947
-3.09071
-3.09258
-3.09512
-3.09833
-3.10222
-3.10683
-3.11216
-3.11826
-3.12516
-3.13293
-3.14164
-3.15142
-3.16241
-3.17485
-3.18907
-3.20538
-3.2236
-3.24288
-3.26312
-3.28637
-3.31457
-3.21193
-3.21251
-3.21371
-3.2155
-3.21791
-3.22093
-3.22457
-3.22886
-3.23382
-3.23945
-3.24581
-3.25292
-3.26087
-3.2697
-3.27949
-3.29033
-3.30239
-3.31585
-3.33063
-3.34631
-3.36289
-3.38156
-3.40305
-3.3334
-3.33398
-3.33514
-3.33684
-3.33909
-3.3419
-3.34528
-3.34924
-3.3538
-3.35897
-3.36478
-3.37125
-3.37844
-3.38638
-3.39512
-3.40468
-3.41515
-3.42659
-3.43894
-3.45198
-3.46578
-3.48095
-3.49772
-3.45346
-3.45401
-3.45508
-3.45664
-3.45871
-3.46129
-3.46438
-3.468
-3.47215
-3.47684
-3.4821
-3.48794
-3.49438
-3.50146
-3.50919
-3.51759
-3.5267
-3.53653
-3.54703
-3.55806
-3.56966
-3.58214
-3.5955
-3.57205
-3.57252
-3.57347
-3.57488
-3.57675
-3.57908
-3.58188
-3.58516
-3.58891
-3.59314
-3.59786
-3.60308
-3.60882
-3.61507
-3.62186
-3.62918
-3.63705
-3.64547
-3.65439
-3.66374
-3.67351
-3.68385
-3.69471
-3.68918
-3.68958
-3.69041
-3.69167
-3.69335
-3.69546
-3.69798
-3.70092
-3.70429
-3.70808
-3.71229
-3.71693
-3.72199
-3.72748
-3.7334
-3.73974
-3.7465
-3.75367
-3.76123
-3.76911
-3.7773
-3.78586
-3.79478
-3.80505
-3.8054
-3.80615
-3.80728
-3.80879
-3.81067
-3.81293
-3.81557
-3.81857
-3.82193
-3.82566
-3.82974
-3.83418
-3.83897
-3.8441
-3.84955
-3.85533
-3.86141
-3.86777
-3.87438
-3.8812
-3.88828
-3.8956
-3.91997
-3.9203
-3.92097
-3.92198
-3.92332
-3.925
-3.927
-3.92932
-3.93197
-3.93493
-3.93819
-3.94175
-3.9456
-3.94973
-3.95413
-3.95878
-3.96368
-3.9688
-3.97412
-3.97962
-3.98527
-3.99108
-3.99707
-4.03411
-4.03441
-4.03502
-4.03591
-4.03709
-4.03856
-4.0403
-4.04233
-4.04462
-4.04718
-4.05
-4.05306
-4.05636
-4.05988
-4.06361
-4.06754
-4.07165
-4.07592
-4.08034
-4.08487
-4.08951
-4.09424
-4.09911
-4.1475
-4.14776
-4.14829
-4.14906
-4.15008
-4.15134
-4.15285
-4.15458
-4.15655
-4.15873
-4.16113
-4.16372
-4.16651
-4.16947
-4.1726
-4.17587
-4.17928
-4.18281
-4.18644
-4.19015
-4.19391
-4.19774
-4.20166
-4.26011
-4.26033
-4.26078
-4.26143
-4.26229
-4.26336
-4.26463
-4.26609
-4.26775
-4.26959
-4.27159
-4.27377
-4.27609
-4.27855
-4.28114
-4.28384
-4.28665
-4.28953
-4.29249
-4.29549
-4.29851
-4.30157
-4.30469
-4.37195
-4.37214
-4.3725
-4.37305
-4.37376
-4.37465
-4.37571
-4.37693
-4.3783
-4.37983
-4.38149
-4.38328
-4.38519
-4.38722
-4.38934
-4.39154
-4.39382
-4.39615
-4.39853
-4.40094
-4.40334
-4.40575
-4.4082
-4.48314
-4.48328
-4.48358
-4.48402
-4.48461
-4.48534
-4.48621
-4.48721
-4.48834
-4.48958
-4.49094
-4.4924
-4.49395
-4.49559
-4.49731
-4.49908
-4.50091
-4.50277
-4.50467
-4.50656
-4.50845
-4.51032
-4.51221
-4.59382
-4.59394
-4.59417
-4.59452
-4.595
-4.59559
-4.59629
-4.59709
-4.598
-4.599
-4.60009
-4.60126
-4.60251
-4.60382
-4.60518
-4.60658
-4.60802
-4.60949
-4.61097
-4.61244
-4.61389
-4.61531
-4.61673
-4.70416
-4.70425
-4.70443
-4.70471
-4.70509
-4.70555
-4.7061
-4.70674
-4.70745
-4.70824
-4.70909
-4.71001
-4.71099
-4.71201
-4.71307
-4.71416
-4.71526
-4.71639
-4.71751
-4.71862
-4.7197
-4.72075
-4.72178
-4.8143
-4.81436
-4.8145
-4.81472
-4.815
-4.81535
-4.81578
-4.81626
-4.81681
-4.81741
-4.81806
-4.81876
-4.8195
-4.82027
-4.82107
-4.82188
-4.8227
-4.82352
-4.82435
-4.82515
-4.82592
-4.82665
-4.82735
-4.92433
-4.92437
-4.92447
-4.92462
-4.92483
-4.92508
-4.92539
-4.92575
-4.92615
-4.92658
-4.92706
-4.92757
-4.9281
-4.92865
-4.92922
-4.92979
-4.93037
-4.93094
-4.93149
-4.93203
-4.93253
-4.93299
-4.93342
-5.03429
-5.03431
-5.03437
-5.03447
-5.03461
-5.03478
-5.03499
-5.03523
-5.0355
-5.0358
-5.03612
-5.03646
-5.03681
-5.03718
-5.03754
-5.03791
-5.03827
-5.03862
-5.03896
-5.03926
-5.03953
-5.03977
-5.03997
-5.14424
-5.14424
-5.14426
-5.14431
-5.14439
-5.14449
-5.14461
-5.14476
-5.14492
-5.14509
-5.14527
-5.14546
-5.14566
-5.14585
-5.14605
-5.14624
-5.14641
-5.14657
-5.14671
-5.14683
-5.1469
-5.14695
-5.14695
-5.25419
-5.25417
-5.25416
-5.25418
-5.25421
-5.25425
-5.2543
-5.25436
-5.25442
-5.25448
-5.25454
-5.2546
-5.25466
-5.25471
-5.25475
-5.25478
-5.25479
-5.25479
-5.25476
-5.25471
-5.25462
-5.2545
-5.25434
-5.3641
-5.36408
-5.36407
-5.36407
-5.36406
-5.36405
-5.36404
-5.36402
-5.364
-5.36397
-5.36392
-5.36387
-5.36381
-5.36373
-5.36364
-5.36353
-5.3634
-5.36325
-5.36308
-5.36288
-5.36265
-5.36239
-5.3621
-5.47398
-5.47401
-5.47398
-5.47398
-5.47394
-5.4739
-5.47385
-5.47377
-5.47368
-5.47356
-5.47343
-5.47329
-5.47312
-5.47293
-5.47272
-5.47249
-5.47224
-5.47197
-5.47167
-5.47135
-5.471
-5.47063
-5.47022
-5.58388
-5.58394
-5.58392
-5.58396
-5.58392
-5.58386
-5.58376
-5.58364
-5.58348
-5.58329
-5.58308
-5.58284
-5.58258
-5.58229
-5.58198
-5.58164
-5.58128
-5.5809
-5.58049
-5.58006
-5.57961
-5.57913
-5.57863
-5.69286
-5.6933
-5.69337
-5.69343
-5.69339
-5.69331
-5.69318
-5.693
-5.69277
-5.69252
-5.69223
-5.6919
-5.69155
-5.69117
-5.69076
-5.69033
-5.68987
-5.68939
-5.68888
-5.68836
-5.68782
-5.68727
-5.68669
329.074
573.676
596.92
459.497
499.994
465.232
452.602
361.836
391.685
328.217
303.836
241.858
287.283
223.698
175.805
119.793
155.626
96.1105
47.2281
22.9154
36.2599
12.6259
-1.76224
-2.23803
-1.72496
-2.02987
-2.11123
-2.28955
-1.90366
-2.11627
-2.25407
-2.38573
-2.0409
-2.24495
-2.41436
-2.50997
-2.19024
-2.4002
-2.56489
-2.6326
-2.34947
-2.62688
-2.74213
-2.764
-2.58329
-2.92627
-2.95392
-2.89876
-2.85915
-3.19303
-3.11445
-3.02882
-3.08036
-3.34931
-3.21237
-3.13888
-3.21336
-3.38524
-3.27435
-3.22879
-3.26738
-3.35658
-3.31098
-3.30422
-3.28979
-3.34894
-3.35037
-3.37256
-3.31976
-3.37506
-3.40497
-3.43941
-3.37519
-3.42862
-3.47007
-3.50776
-3.44932
-3.4991
-3.5425
-3.57879
-3.53419
-3.57941
-3.61976
-3.65277
-3.62489
-3.66475
-3.70041
-3.72959
-3.71879
-3.75316
-3.78387
-3.80904
-3.81467
-3.84385
-3.86981
-3.89097
-3.91204
-3.93646
-3.95802
-3.97529
-4.01057
-4.03073
-4.04829
-4.06191
-4.1101
-4.12647
-4.14047
-4.15076
-4.2105
-4.22357
-4.23441
-4.24175
-4.31171
-4.32193
-4.33003
-4.33481
-4.4137
-4.42147
-4.42722
-4.42984
-4.51643
-4.52213
-4.52591
-4.52674
-4.61987
-4.62385
-4.62598
-4.62539
-4.72401
-4.72655
-4.72736
-4.72566
-4.82881
-4.83018
-4.82994
-4.82743
-4.93425
-4.93466
-4.93362
-4.93056
-5.04027
-5.03993
-5.0383
-5.03491
-5.14683
-5.1459
-5.14386
-5.14034
-5.25386
-5.25249
-5.2502
-5.24672
-5.36134
-5.35964
-5.35722
-5.3539
-5.46923
-5.46729
-5.46484
-5.46177
-5.57744
-5.57533
-5.57292
-5.57019
-5.68537
-5.6832
-5.68096
-5.67869
290.509
238.52
217.842
187.013
142.724
102.091
58.1518
32.2278
6.80066
-2.30522
-2.84528
-2.88293
-2.91006
-2.9084
-2.64804
-0.59548
38.6613
532.665
1906.19
247.947
184.556
144.064
103.001
56.9179
30.7889
2.71427
-2.48253
-2.68388
-2.82439
-2.92626
-2.98654
-3.02259
-3.01718
-2.89882
-2.56728
2.23545
80.2531
1107.36
156.719
100.797
58.7778
33.5489
4.65235
-2.72788
-2.73436
-2.82889
-2.92277
-2.99772
-3.07861
-3.14839
-3.18611
-3.17976
-3.07712
-2.98693
-2.75478
1.03755
414.36
57.5737
32.0969
4.91168
-2.56805
-2.71166
-2.8198
-2.8993
-2.97665
-3.06368
-3.15372
-3.24256
-3.31717
-3.35882
-3.37337
-3.27503
-3.19831
-3.13204
-6.60716
77.4254
0.230758
-2.48051
-2.52858
-2.68155
-2.82327
-2.92665
-3.01619
-3.10459
-3.20063
-3.30159
-3.39883
-3.49012
-3.56284
-3.61281
-3.54063
-3.55141
-3.26148
-6.94776
33.4639
-2.26392
-2.47324
-2.62357
-2.77609
-2.92026
-3.03645
-3.13264
-3.22083
-3.32026
-3.43002
-3.55031
-3.67666
-3.7993
-3.90317
-3.90529
-4.05221
-3.75321
-6.10149
104.193
-2.39995
-2.54673
-2.71189
-2.87097
-3.015
-3.12793
-3.22888
-3.31782
-3.42414
-3.55457
-3.7093
-3.88791
-4.0694
-4.25149
-4.36112
-4.52698
-4.13271
-4.44442
126.932
-2.50709
-2.63619
-2.79249
-2.94429
-3.08084
-3.19102
-3.28455
-3.3943
-3.52081
-3.67781
-3.87161
-4.1065
-4.37425
-4.67777
-4.93262
-5.13468
-4.60313
-4.58863
110.695
-2.60887
-2.72601
-2.87442
-3.00948
-3.13367
-3.24357
-3.34749
-3.46873
-3.61323
-3.79578
-4.0311
-4.33474
-4.71818
-5.2117
-5.69544
-6.03036
-5.36108
-5.80105
93.494
-2.71846
-2.8277
-2.95216
-3.07402
-3.1893
-3.29825
-3.40959
-3.5389
-3.69775
-3.90113
-4.17718
-4.55907
-5.09427
-5.86965
-6.71241
-7.31177
-6.52258
-7.22655
94.5171
-2.838
-2.92917
-3.03426
-3.14112
-3.24697
-3.353
-3.46655
-3.6
-3.76756
-3.98701
-4.29608
-4.75386
-5.4609
-6.60182
-7.98691
-8.97839
-7.99597
-9.34065
89.4134
-2.95727
-3.0281
-3.1156
-3.20862
-3.30476
-3.40524
-3.51627
-3.64862
-3.81746
-4.04615
-4.37221
-4.88329
-5.72443
-7.22408
-9.23085
-10.6289
-9.46616
-13.6116
77.7611
-3.06676
-3.12153
-3.19409
-3.2744
-3.36044
-3.45306
-3.55745
-3.68295
-3.8444
-4.0668
-4.39551
-4.92459
-5.77566
-7.44892
-9.89029
-11.0818
-10.0102
-19.6168
33.2734
-3.16667
-3.20822
-3.26852
-3.33742
-3.41303
-3.49583
-3.58991
-3.70296
-3.84817
-4.04881
-4.34467
-4.81725
-5.67137
-7.30227
-9.36038
-9.81482
-6.57597
-5.45817
11.3343
-3.25157
-3.2877
-3.33866
-3.3974
-3.4624
-3.53383
-3.6146
-3.71039
-3.83161
-3.99642
-4.23339
-4.61448
-5.34998
-6.72066
-8.39159
-7.83854
-3.95106
-0.615211
3.97695
-3.32794
-3.36143
-3.40499
-3.45459
-3.50897
-3.56801
-3.63336
-3.7085
-3.80021
-3.91943
-4.08107
-4.3398
-4.8592
-5.80811
-7.27796
-6.28389
-2.51935
0.168513
1.77171
-3.39925
-3.43104
-3.46845
-3.50966
-3.55359
-3.59979
-3.64867
-3.70154
-3.76128
-3.8315
-3.91414
-4.03915
-4.30451
-4.67196
-4.9514
-3.90505
-1.34438
-0.2661
0.697058
-3.46836
-3.49821
-3.53012
-3.56353
-3.59737
-3.63085
-3.66326
-3.69402
-3.72253
-3.74657
-3.7595
-3.7681
-3.80597
-3.7277
-3.12777
-2.08975
-1.02416
-0.632692
-0.0406813
-3.53718
-3.56444
-3.59115
-3.61723
-3.64154
-3.66291
-3.67977
-3.69003
-3.69057
-3.67546
-3.63403
-3.55871
-3.43932
-3.15876
-2.44782
-1.62275
-1.08629
-0.898901
-0.567482
-3.60693
-3.63094
-3.65259
-3.6718
-3.6873
-3.6976
-3.70048
-3.69285
-3.6701
-3.62458
-3.54431
-3.41608
-3.21362
-2.86082
-2.26881
-1.59448
-1.19439
-1.11544
-0.955863
-3.67834
-3.69863
-3.71538
-3.72821
-3.73577
-3.73628
-3.72716
-3.70477
-3.66392
-3.5966
-3.49112
-3.33501
-3.10172
-2.75096
-2.26814
-1.76529
-1.44796
-1.36534
-1.28384
-3.7518
-3.76821
-3.78026
-3.78728
-3.78785
-3.78003
-3.76107
-3.7272
-3.67325
-3.59193
-3.47436
-3.30574
-3.07167
-2.75385
-2.36038
-1.97343
-1.71972
-1.63194
-1.58514
-3.82755
-3.84012
-3.84778
-3.84965
-3.84427
-3.82961
-3.80296
-3.76071
-3.69812
-3.60924
-3.4857
-3.31843
-3.09863
-2.8214
-2.50228
-2.1983
-1.98966
-1.90166
-1.86983
-3.90574
-3.91467
-3.91836
-3.91578
-3.90547
-3.88545
-3.85314
-3.80529
-3.73795
-3.64574
-3.523
-3.36395
-3.1646
-2.9267
-2.66691
-2.42507
-2.25169
-2.16683
-2.14128
-3.98647
-3.99208
-3.99226
-3.98596
-3.97173
-3.94771
-3.91156
-3.86058
-3.79117
-3.6995
-3.58164
-3.43444
-3.25714
-3.05445
-2.84137
-2.64608
-2.50132
-2.42282
-2.40012
-4.0698
-4.07244
-4.06964
-4.06032
-4.04312
-4.01634
-3.97788
-3.92563
-3.85657
-3.76799
-3.65746
-3.52368
-3.36779
-3.19551
-3.01948
-2.85982
-2.73849
-2.66799
-2.64691
-4.15571
-4.15578
-4.15052
-4.13887
-4.11958
-4.09115
-4.05196
-3.99972
-3.93268
-3.84887
-3.74696
-3.62686
-3.49075
-3.34433
-3.19796
-3.06622
-2.96429
-2.90215
-2.88246
-4.24416
-4.24208
-4.23487
-4.22153
-4.20091
-4.17172
-4.1326
-4.08183
-4.01803
-3.94001
-3.84723
-3.74039
-3.62207
-3.49753
-3.37514
-3.26565
-3.17989
-3.12582
-3.10765
-4.33508
-4.33126
-4.32258
-4.30811
-4.28685
-4.25766
-4.21952
-4.17104
-4.11128
-4.03958
-3.95597
-3.86156
-3.75903
-3.65302
-3.55023
-3.45876
-3.38655
-3.33992
-3.32341
-4.42836
-4.4232
-4.4135
-4.39842
-4.37712
-4.34871
-4.31205
-4.26645
-4.21121
-4.14605
-4.07135
-3.9884
-3.89978
-3.8095
-3.72293
-3.64626
-3.58543
-3.54548
-3.53072
-4.52389
-4.51776
-4.50743
-4.49219
-4.4713
-4.44402
-4.40951
-4.36722
-4.31676
-4.25812
-4.19189
-4.11941
-4.04304
-3.96619
-3.89318
-3.8288
-3.77759
-3.74354
-3.73051
-4.62151
-4.61475
-4.60417
-4.58915
-4.56906
-4.54332
-4.5113
-4.47259
-4.42702
-4.37475
-4.31647
-4.2535
-4.18792
-4.12261
-4.06105
-4.00698
-3.96393
-3.93504
-3.92369
-4.72108
-4.71399
-4.70347
-4.689
-4.67004
-4.64617
-4.61688
-4.5819
-4.5412
-4.49507
-4.4442
-4.38983
-4.33379
-4.27847
-4.22667
-4.18135
-4.14525
-4.12086
-4.11108
-4.82242
-4.81528
-4.80511
-4.79146
-4.77386
-4.75213
-4.72573
-4.69454
-4.65864
-4.61836
-4.57437
-4.52781
-4.48023
-4.43361
-4.39021
-4.35237
-4.32224
-4.30179
-4.29345
-4.92538
-4.91842
-4.90883
-4.89627
-4.88045
-4.86082
-4.83739
-4.81001
-4.77878
-4.74405
-4.70646
-4.66699
-4.62695
-4.58797
-4.55188
-4.5205
-4.49554
-4.47852
-4.47153
-5.02977
-5.02319
-5.01438
-5.00308
-4.98901
-4.97182
-4.95145
-4.92785
-4.90115
-4.8717
-4.84004
-4.80704
-4.77378
-4.74158
-4.71189
-4.68616
-4.66572
-4.65173
-4.64598
-5.13543
-5.12939
-5.12153
-5.11164
-5.09946
-5.08479
-5.06752
-5.04768
-5.02536
-5.00091
-4.9748
-4.94774
-4.92063
-4.8945
-4.8705
-4.84976
-4.8333
-4.82201
-4.81739
-5.24218
-5.23682
-5.23005
-5.22168
-5.21153
-5.19943
-5.18529
-5.16914
-5.15108
-5.13141
-5.11051
-5.08896
-5.06747
-5.04685
-5.02797
-5.01169
-4.99879
-4.98991
-4.98635
-5.34986
-5.34529
-5.33971
-5.33298
-5.32494
-5.31546
-5.30445
-5.29195
-5.27804
-5.26294
-5.24698
-5.2306
-5.21431
-5.19875
-5.18453
-5.17231
-5.16263
-5.15595
-5.15336
-5.45832
-5.45461
-5.4503
-5.44528
-5.43943
-5.43261
-5.42475
-5.41585
-5.40599
-5.39532
-5.38409
-5.37259
-5.3612
-5.35035
-5.34046
-5.33197
-5.32526
-5.3206
-5.3189
-5.56738
-5.56458
-5.56159
-5.55834
-5.55476
-5.55064
-5.54592
-5.5406
-5.53472
-5.52837
-5.5217
-5.51489
-5.50817
-5.50178
-5.49596
-5.49098
-5.48705
-5.48427
-5.48339
-5.67666
-5.6749
-5.67332
-5.67195
-5.67072
-5.66934
-5.66777
-5.666
-5.66406
-5.66196
-5.65977
-5.65754
-5.65535
-5.65326
-5.65137
-5.64975
-5.64849
-5.64758
-5.64733
)
;

boundaryField
{
    leftWall
    {
        type            calculated;
        value           nonuniform List<scalar> 
50
(
1389.79
1330.57
1270.99
1211.02
1150.63
1089.78
1028.42
966.519
868.856
733.46
595.582
455.07
311.342
168.553
59.4114
10.7144
-1.77329
-1.87784
-2.00863
-2.15735
-2.29833
-2.43725
-2.5732
-2.70612
-2.83623
-2.96378
-3.08888
-3.21193
-3.3334
-3.45346
-3.57205
-3.68918
-3.80505
-3.91997
-4.03411
-4.1475
-4.26011
-4.37195
-4.48314
-4.59382
-4.70416
-4.8143
-4.92433
-5.03429
-5.14424
-5.25419
-5.3641
-5.47398
-5.58388
-5.69286
)
;
    }
    rightWall
    {
        type            calculated;
        value           nonuniform List<scalar> 
50
(
1947.51
1882.27
1821.51
1860.93
2026.46
2281.86
2385.07
2302.03
1906.19
1107.36
414.36
77.4254
33.4639
104.193
126.932
110.695
93.494
94.5171
89.4134
77.7611
33.2734
11.3343
3.97695
1.77171
0.697058
-0.0406813
-0.567482
-0.955863
-1.28384
-1.58514
-1.86983
-2.14128
-2.40012
-2.64691
-2.88246
-3.10765
-3.32341
-3.53072
-3.73051
-3.92369
-4.11108
-4.29345
-4.47153
-4.64598
-4.81739
-4.98635
-5.15336
-5.3189
-5.48339
-5.64733
)
;
    }
    lowerWall
    {
        type            calculated;
        value           nonuniform List<scalar> 
62
(
1419.21
1419.75
1419.96
1419.83
1419.39
1418.81
1418.2
1417.65
1417.23
1417
1417
1417.31
1417.99
1419.14
1420.77
1422.83
1425.24
1427.83
1430.36
1432.52
1434.24
1435.58
1436.58
1407.15
1349.25
1291.11
1230.89
1167.4
1099.37
1020.36
921.267
391.672
636.273
659.517
522.094
439.743
383.603
338.736
336.266
340.035
343
344.786
330.081
446.282
338.118
314.581
320.035
336.042
367.581
466.416
759.416
1102.17
1050.53
816.658
697.113
766.902
994.644
1342.18
1630.27
1593.16
1537.05
1952.42
)
;
    }
    atmosphere
    {
        type            calculated;
        value           nonuniform List<scalar> 
46
(
-5.74592
-5.74793
-5.74778
-5.74778
-5.74771
-5.74759
-5.74742
-5.74721
-5.74695
-5.74665
-5.74632
-5.74596
-5.74556
-5.74514
-5.74468
-5.7442
-5.7437
-5.74318
-5.74264
-5.74209
-5.74152
-5.74093
-5.74034
-5.73897
-5.73683
-5.73475
-5.73283
-5.73129
-5.73015
-5.72938
-5.72906
-5.72904
-5.72904
-5.72904
-5.72904
-5.72904
-5.72904
-5.72904
-5.72904
-5.72904
-5.72904
-5.72904
-5.72904
-5.72904
-5.72904
-5.72904
)
;
    }
    defaultFaces
    {
        type            empty;
    }
}


// ************************************************************************* //
