/*--------------------------------*- C++ -*----------------------------------*\
| =========                 |                                                 |
| \\      /  F ield         | OpenFOAM: The Open Source CFD Toolbox           |
|  \\    /   O peration     | Version:  2206                                  |
|   \\  /    A nd           | Website:  www.openfoam.com                      |
|    \\/     M anipulation  |                                                 |
\*---------------------------------------------------------------------------*/
FoamFile
{
    version     2.0;
    format      ascii;
    arch        "LSB;label=32;scalar=64";
    class       volScalarField;
    location    "0.325";
    object      p_rgh;
}
// * * * * * * * * * * * * * * * * * * * * * * * * * * * * * * * * * * * * * //

dimensions      [1 -1 -2 0 0 0 0];

internalField   nonuniform List<scalar> 
2268
(
1419.21
1419.75
1419.96
1419.83
1419.39
1418.81
1418.2
1417.65
1417.23
1417
1417
1417.31
1417.99
1419.14
1420.77
1422.83
1425.24
1427.83
1430.36
1432.52
1434.24
1435.58
1436.58
1418.86
1419.41
1419.63
1419.52
1419.09
1418.5
1417.87
1417.32
1416.89
1416.65
1416.63
1416.9
1417.49
1418.43
1419.8
1421.68
1424.04
1426.75
1429.58
1432.25
1434.52
1436.33
1437.54
1418.14
1418.71
1418.97
1418.88
1418.46
1417.86
1417.22
1416.64
1416.2
1415.94
1415.9
1416.13
1416.68
1417.59
1418.9
1420.6
1422.68
1425.1
1427.79
1430.67
1433.61
1436.32
1438.26
1417.03
1417.64
1417.95
1417.91
1417.5
1416.88
1416.22
1415.62
1415.15
1414.86
1414.79
1414.97
1415.45
1416.26
1417.43
1418.97
1420.87
1423.09
1425.57
1428.31
1431.33
1434.46
1436.9
1415.5
1416.16
1416.53
1416.55
1416.16
1415.53
1414.84
1414.2
1413.7
1413.38
1413.26
1413.39
1413.78
1414.46
1415.46
1416.8
1418.46
1420.42
1422.62
1424.99
1427.53
1430.1
1432.26
1413.5
1414.24
1414.68
1414.76
1414.4
1413.76
1413.03
1412.36
1411.83
1411.46
1411.28
1411.32
1411.59
1412.12
1412.91
1413.96
1415.25
1416.75
1418.38
1420.03
1421.52
1422.65
1423.09
1411
1411.84
1412.36
1412.53
1412.19
1411.54
1410.79
1410.08
1409.5
1409.08
1408.82
1408.74
1408.85
1409.16
1409.65
1410.29
1411.04
1411.79
1412.37
1412.46
1411.54
1408.72
1402.94
1407.96
1408.91
1409.55
1409.79
1409.49
1408.84
1408.09
1407.37
1406.75
1406.26
1405.91
1405.69
1405.59
1405.61
1405.7
1405.79
1405.76
1405.4
1404.35
1402.1
1397.32
1389.49
1362.71
446.282
338.118
314.581
320.035
336.042
367.581
466.416
759.416
1102.17
1050.53
816.658
697.113
766.902
994.644
1342.18
1630.27
1593.16
1537.05
1952.42
401.215
299.535
300.207
307.281
316.793
343.046
429.918
720.705
1059.61
1000.21
784.412
673.547
729.826
930.995
1269.73
1601.6
1603.29
1465.03
1936.63
351.746
294.191
300.276
307.075
316.26
341.116
474.811
734.431
955.831
900.08
722.119
628.143
671.31
830.975
1112.97
1440.32
1647.89
1408.8
1921.37
337.866
295.061
299.432
307.181
316.432
393.17
547.302
700.571
845.394
795.879
653.092
573.866
601.287
716.735
935.849
1226.61
1558.34
1449.66
2000.93
342.197
299.925
299.04
308.568
384.743
540.96
574.334
661.686
741.437
687.154
571.11
505.893
516.859
587.488
754.48
1013.53
1383.01
1608.07
2250.64
345.583
305.468
299.653
401.415
586.634
581.919
580.812
623.428
642.391
570.738
474.78
422.123
401.039
428.86
539.752
778.205
1179.55
1672.89
2588.61
347.879
329.065
458.202
651.297
626.043
598.433
583.196
588.193
550.104
431.47
288.375
195.877
144.747
117.202
201.208
507.247
930.022
1588.51
2749.64
568.004
652.238
697.208
678.116
645.478
612.044
579.737
550.174
385.956
167.504
8.01341
-2.22853
-2.49294
-2.40663
-0.220475
124.788
657.055
1397.79
2721.12
1402.32
1403.39
1404.21
1404.59
1404.36
1403.76
1403.03
1402.3
1401.61
1401
1400.44
1399.94
1399.44
1398.89
1398.18
1397.15
1395.49
1392.6
1387.25
1377.4
1356.43
1315.69
1211.57
1392.12
1393.12
1394.2
1394.75
1394.62
1394.09
1393.4
1392.62
1391.79
1390.89
1389.91
1388.81
1387.51
1385.91
1383.81
1380.95
1376.86
1370.89
1361.98
1348.54
1328.7
1301.05
1267.33
1379.44
1380.37
1381.6
1382.19
1382.1
1381.62
1380.95
1380.1
1379.05
1377.78
1376.27
1374.48
1372.33
1369.7
1366.44
1362.28
1356.92
1349.91
1340.69
1328.45
1312.27
1290.14
1263.03
1364.12
1364.96
1366.24
1366.94
1366.91
1366.5
1365.8
1364.77
1363.38
1361.61
1359.45
1356.89
1353.86
1350.26
1345.94
1340.71
1334.31
1326.43
1316.69
1304.63
1289.79
1271.61
1250.62
1345.59
1345.97
1347.82
1349.19
1349.29
1348.89
1348.07
1346.7
1344.76
1342.3
1339.37
1335.99
1332.11
1327.62
1322.4
1316.3
1309.14
1300.72
1290.82
1279.25
1265.84
1250.29
1232.71
1327.95
1325.76
1324.69
1326.87
1326.58
1325.73
1324.42
1322.23
1318.64
1314.21
1309.17
1302.66
1294.63
1284.51
1271.7
1255.6
1235.46
1210.48
1179.64
1142.01
1096.66
1044.44
975.763
1251.56
954.753
824.861
864.048
873.195
867.269
853.734
832.437
802.817
764.702
722.057
679.214
630.581
579.834
526.079
470.634
413.925
355.384
295.356
235.445
179.952
123.387
22.9093
288.712
96.8715
32.0173
37.7919
26.6199
18.6093
12.2357
3.69495
-0.101241
-0.215268
-0.275966
-0.284297
-0.278422
-0.274507
-0.274921
-0.280027
-0.28895
-0.300796
-0.315955
-0.33489
-0.357631
-0.378606
-0.38045
-0.238266
-0.242873
-0.189417
-0.179719
-0.180413
-0.18166
-0.185367
-0.192005
-0.207686
-0.229766
-0.249237
-0.261833
-0.269723
-0.276209
-0.283302
-0.292016
-0.303271
-0.317363
-0.334521
-0.355157
-0.37944
-0.40735
-0.435761
-0.217626
-0.20766
-0.194007
-0.196707
-0.201715
-0.206974
-0.212955
-0.220702
-0.230932
-0.242949
-0.255161
-0.266943
-0.278037
-0.289067
-0.30096
-0.314181
-0.329603
-0.34791
-0.369474
-0.393948
-0.420184
-0.44715
-0.471293
-0.223214
-0.222453
-0.224395
-0.225814
-0.229287
-0.234027
-0.239983
-0.247235
-0.255846
-0.265663
-0.276364
-0.287684
-0.299704
-0.312571
-0.326825
-0.343139
-0.362362
-0.384973
-0.411042
-0.438473
-0.464825
-0.487053
-0.499417
-0.246747
-0.247163
-0.247922
-0.249706
-0.252728
-0.257022
-0.26253
-0.269225
-0.277056
-0.286023
-0.296112
-0.307355
-0.3199
-0.334062
-0.350448
-0.370003
-0.393802
-0.422103
-0.454009
-0.484863
-0.513562
-0.533277
0.00123317
-0.262524
-0.263374
-0.26496
-0.2674
-0.270764
-0.275176
-0.280608
-0.287099
-0.29469
-0.30346
-0.313528
-0.325064
-0.338344
-0.35389
-0.372621
-0.395872
-0.424769
-0.458865
-0.495454
-0.528898
-0.560767
-0.578865
1.62378
-0.276257
-0.27736
-0.279044
-0.281614
-0.285084
-0.289463
-0.294772
-0.301084
-0.308498
-0.317153
-0.327169
-0.338857
-0.352546
-0.368947
-0.389343
-0.415428
-0.448049
-0.485991
-0.525769
-0.563487
-0.599636
-0.616617
1.27395
-0.287014
-0.288101
-0.289815
-0.292353
-0.295715
-0.299906
-0.30498
-0.311022
-0.318145
-0.326485
-0.336211
-0.347571
-0.360965
-0.377194
-0.397697
-0.424175
-0.457261
-0.495804
-0.537509
-0.579317
-0.605346
-0.497549
-0.549369
-0.294736
-0.295663
-0.297373
-0.299792
-0.302951
-0.306884
-0.311659
-0.317347
-0.324041
-0.331854
-0.340926
-0.351456
-0.363787
-0.378627
-0.397201
-0.420866
-0.450332
-0.485396
-0.524462
-0.563413
-0.577301
-0.588361
-0.676194
-0.299653
-0.300492
-0.302036
-0.304237
-0.30715
-0.310808
-0.315263
-0.320564
-0.326769
-0.333954
-0.342209
-0.351666
-0.36256
-0.375354
-0.390814
-0.409847
-0.433219
-0.461194
-0.49272
-0.524923
-0.53535
-0.546812
-0.580131
-0.302008
-0.302692
-0.304045
-0.306043
-0.308738
-0.312149
-0.316305
-0.321237
-0.326981
-0.33358
-0.341092
-0.349597
-0.359231
-0.370232
-0.38297
-0.397939
-0.415715
-0.436684
-0.460279
-0.484363
-0.443735
-0.413244
-0.450934
-0.301913
-0.302498
-0.303738
-0.305613
-0.308152
-0.311359
-0.315254
-0.319857
-0.325193
-0.331292
-0.338195
-0.345961
-0.354675
-0.364451
-0.375444
-0.38788
-0.402097
-0.418403
-0.436616
-0.455904
-0.475629
-0.464238
-0.466937
-0.299768
-0.300342
-0.301544
-0.30334
-0.305746
-0.308765
-0.312412
-0.316701
-0.321652
-0.327289
-0.333642
-0.34076
-0.348702
-0.357536
-0.367326
-0.378165
-0.390225
-0.40368
-0.41845
-0.434134
-0.450718
-0.469393
-0.490883
-0.29604
-0.296623
-0.297787
-0.299483
-0.301734
-0.304545
-0.307926
-0.311886
-0.316442
-0.321611
-0.327417
-0.333893
-0.341082
-0.349027
-0.357761
-0.367322
-0.377789
-0.389225
-0.401541
-0.41458
-0.428376
-0.443568
-0.460337
-0.290906
-0.291455
-0.292532
-0.294092
-0.296159
-0.298737
-0.30183
-0.305445
-0.309595
-0.314291
-0.319548
-0.325387
-0.331832
-0.338909
-0.346639
-0.355041
-0.364149
-0.373981
-0.384464
-0.395468
-0.407063
-0.419542
-0.432906
-0.284299
-0.284771
-0.285724
-0.287129
-0.289
-0.291336
-0.294137
-0.29741
-0.301159
-0.305392
-0.310116
-0.315338
-0.321071
-0.327325
-0.334109
-0.34143
-0.349301
-0.357722
-0.366643
-0.375989
-0.385768
-0.396106
-0.406967
-0.276238
-0.276636
-0.277472
-0.278731
-0.280413
-0.282515
-0.285037
-0.287982
-0.291347
-0.295136
-0.299348
-0.303985
-0.30905
-0.314542
-0.320459
-0.326798
-0.333558
-0.340732
-0.348285
-0.356167
-0.364361
-0.372923
-0.381834
-0.266915
-0.267267
-0.268013
-0.269144
-0.270653
-0.272538
-0.274799
-0.277431
-0.280432
-0.283797
-0.287523
-0.291608
-0.296048
-0.300835
-0.305962
-0.311416
-0.31719
-0.323271
-0.329635
-0.336241
-0.343067
-0.35014
-0.357465
-0.256641
-0.256968
-0.257641
-0.258649
-0.259991
-0.261666
-0.263669
-0.265995
-0.268639
-0.271596
-0.274859
-0.27842
-0.282271
-0.286402
-0.290801
-0.295454
-0.300349
-0.305469
-0.310794
-0.316292
-0.321939
-0.327748
-0.333742
-0.245586
-0.24589
-0.246494
-0.247385
-0.248565
-0.250031
-0.251778
-0.253802
-0.256099
-0.258659
-0.261476
-0.264538
-0.267835
-0.271356
-0.275087
-0.279013
-0.283121
-0.287394
-0.291813
-0.296349
-0.300982
-0.305718
-0.310586
-0.233777
-0.234044
-0.234571
-0.235342
-0.236361
-0.237624
-0.239126
-0.240863
-0.242828
-0.245012
-0.247407
-0.250002
-0.252788
-0.25575
-0.258876
-0.262152
-0.265562
-0.269093
-0.272724
-0.276431
-0.280193
-0.284019
-0.287938
-0.221195
-0.221419
-0.221864
-0.222516
-0.223377
-0.224444
-0.225714
-0.227181
-0.228836
-0.230673
-0.232681
-0.234852
-0.237175
-0.239637
-0.242227
-0.244929
-0.247731
-0.250619
-0.253574
-0.256573
-0.259597
-0.262655
-0.265775
-0.207844
-0.208029
-0.208396
-0.208938
-0.209656
-0.210545
-0.211603
-0.212822
-0.214196
-0.215718
-0.21738
-0.219173
-0.221086
-0.223109
-0.225228
-0.227432
-0.229709
-0.232046
-0.234426
-0.236827
-0.23923
-0.241643
-0.244094
-0.193835
-0.193981
-0.194276
-0.194719
-0.195308
-0.19604
-0.196908
-0.197907
-0.199032
-0.200277
-0.201634
-0.203095
-0.204651
-0.206291
-0.208004
-0.209778
-0.211604
-0.213471
-0.215364
-0.217261
-0.219144
-0.221019
-0.222909
-0.179325
-0.179438
-0.179672
-0.180027
-0.180502
-0.181091
-0.18179
-0.182596
-0.183502
-0.184503
-0.185594
-0.186766
-0.188011
-0.18932
-0.190681
-0.192087
-0.193527
-0.194993
-0.196472
-0.197944
-0.199392
-0.200816
-0.202237
-0.164469
-0.164556
-0.164741
-0.165021
-0.165394
-0.165858
-0.166409
-0.167044
-0.167758
-0.168546
-0.169403
-0.170322
-0.171297
-0.172318
-0.173377
-0.174465
-0.175573
-0.176695
-0.17782
-0.178931
-0.180012
-0.181061
-0.182089
-0.149413
-0.149475
-0.149616
-0.14983
-0.150114
-0.150468
-0.150889
-0.151374
-0.15192
-0.152521
-0.153174
-0.153873
-0.154612
-0.155383
-0.156179
-0.156991
-0.157813
-0.158638
-0.159459
-0.16026
-0.161029
-0.161762
-0.162461
-0.134247
-0.134289
-0.134386
-0.134539
-0.134744
-0.135003
-0.135311
-0.135666
-0.136064
-0.136503
-0.136978
-0.137484
-0.138018
-0.138571
-0.139138
-0.139711
-0.140286
-0.140855
-0.141413
-0.141948
-0.142449
-0.142914
-0.143338
-0.119018
-0.119039
-0.119095
-0.119195
-0.119331
-0.119505
-0.119714
-0.119956
-0.120227
-0.120525
-0.120844
-0.121183
-0.121537
-0.1219
-0.122268
-0.122635
-0.122997
-0.123348
-0.12368
-0.123986
-0.124259
-0.124496
-0.124691
-0.103769
-0.103768
-0.103788
-0.103842
-0.103918
-0.104021
-0.104144
-0.104287
-0.104446
-0.104618
-0.104801
-0.104992
-0.105188
-0.105385
-0.105579
-0.105766
-0.105942
-0.106104
-0.106244
-0.106356
-0.106434
-0.106478
-0.106482
-0.0885283
-0.0885012
-0.088499
-0.0885196
-0.0885472
-0.0885891
-0.0886386
-0.0886946
-0.0887546
-0.0888166
-0.0888788
-0.0889393
-0.0889958
-0.0890453
-0.0890851
-0.0891129
-0.0891267
-0.0891236
-0.0890977
-0.0890421
-0.0889534
-0.0888328
-0.0886746
-0.0732415
-0.0732175
-0.0732063
-0.0732068
-0.0731967
-0.0731904
-0.0731792
-0.0731626
-0.0731387
-0.0731064
-0.073065
-0.0730132
-0.0729494
-0.0728715
-0.0727777
-0.0726673
-0.0725397
-0.0723932
-0.0722234
-0.0720243
-0.0717933
-0.0715332
-0.0712408
-0.0579307
-0.0579533
-0.057928
-0.0579228
-0.0578891
-0.0578495
-0.0577923
-0.0577174
-0.0576237
-0.0575113
-0.0573805
-0.0572316
-0.0570639
-0.0568764
-0.0566679
-0.0564379
-0.056187
-0.0559152
-0.0556202
-0.0552983
-0.0549477
-0.0545714
-0.0541677
-0.0426332
-0.0426959
-0.0426706
-0.0427084
-0.0426704
-0.0426094
-0.0425156
-0.0423897
-0.0422326
-0.0420464
-0.0418335
-0.0415957
-0.0413335
-0.0410463
-0.0407333
-0.0403949
-0.0400327
-0.0396487
-0.039243
-0.0388133
-0.0383581
-0.0378798
-0.0373788
-0.0264171
-0.0268584
-0.0269252
-0.0269824
-0.0269518
-0.0268677
-0.0267327
-0.0265527
-0.0263318
-0.0260742
-0.0257832
-0.0254611
-0.0251093
-0.0247284
-0.0243191
-0.0238832
-0.0234236
-0.0229428
-0.0224422
-0.0219215
-0.0213811
-0.0208243
-0.0202519
862.542
1107.14
1130.39
992.963
1158.66
1123.89
1111.26
1020.5
1175.54
1112.07
1087.68
1025.66
1196.32
1132.64
1084.43
1015.33
1188.96
1074.39
813.289
440.141
727.589
283.172
-0.58786
-1.07701
-0.439727
-0.743433
-0.826068
-1.00482
-0.493812
-0.705913
-0.844128
-0.975881
-0.505602
-0.708106
-0.878681
-0.97416
-0.526796
-0.60865
-0.830367
-0.967566
0.534483
1.65153
-0.43282
-0.978586
2.45934
2.11636
-0.261593
-0.988149
2.49818
2.18054
-0.664603
-0.993016
2.57029
1.84055
-1.05138
-0.977885
0.224903
-0.831839
-0.988155
-0.942598
-0.839191
-0.930434
-0.899592
-0.892833
-0.669933
-0.720577
-0.813788
-0.835981
-0.529685
-0.609881
-0.743198
-0.77764
-0.529516
-0.63542
-0.6831
-0.720789
-0.537154
-0.586934
-0.630337
-0.666624
-0.496801
-0.542045
-0.582398
-0.615414
-0.462297
-0.502169
-0.53786
-0.567039
-0.431041
-0.465415
-0.496113
-0.521291
-0.401734
-0.430911
-0.456866
-0.478026
-0.373904
-0.398322
-0.419882
-0.43715
-0.347244
-0.367397
-0.384964
-0.39858
-0.321571
-0.337945
-0.351942
-0.362233
-0.296779
-0.309848
-0.320692
-0.328031
-0.272801
-0.283013
-0.291115
-0.295894
-0.249592
-0.257363
-0.263116
-0.265731
-0.227122
-0.232829
-0.236603
-0.237436
-0.205371
-0.209348
-0.211485
-0.21089
-0.184315
-0.186857
-0.187667
-0.18597
-0.163926
-0.165291
-0.165052
-0.162545
-0.144169
-0.144581
-0.143538
-0.140479
-0.124996
-0.124653
-0.12302
-0.119634
-0.106356
-0.105429
-0.10339
-0.0998719
-0.0881976
-0.0868272
-0.0845385
-0.0810538
-0.0704802
-0.0687803
-0.0663639
-0.0630432
-0.0531748
-0.0512352
-0.048784
-0.045721
-0.036193
-0.0340852
-0.0316752
-0.0289413
-0.0189286
-0.0167558
-0.0145126
-0.0122521
823.975
771.978
751.255
720.16
674.868
630.229
510.577
316.293
76.8738
-1.65087
-2.29213
-2.34635
-2.37629
-2.3749
-2.11376
0.592315
169.662
998.385
2411.21
906.598
843.152
802.332
760.032
645.518
432.925
55.2443
-1.64586
-2.00496
-2.16362
-2.25638
-2.32494
-2.36392
-2.35852
-2.24025
-1.89736
3.95272
578.131
1724.53
940.314
883.609
767.227
537.547
96.8335
-1.74541
-1.92755
-2.04227
-2.13861
-2.21384
-2.29462
-2.36449
-2.40226
-2.3959
-2.29328
-2.20282
-1.8474
289.245
1124.84
840.789
572.941
113.619
-1.56395
-1.79581
-1.91074
-1.99006
-2.06763
-2.15463
-2.24467
-2.33351
-2.40811
-2.44977
-2.46432
-2.36598
-2.28925
-2.20791
35.1172
876.142
36.9547
-1.42607
-1.49448
-1.64781
-1.78898
-1.89248
-1.98196
-2.07034
-2.16638
-2.26735
-2.36459
-2.45587
-2.5286
-2.57856
-2.50638
-2.51717
-2.2251
1.42478
927.904
-1.1047
-1.31393
-1.46412
-1.61666
-1.76082
-1.87701
-1.9732
-2.06139
-2.16082
-2.27058
-2.39087
-2.51722
-2.63986
-2.74373
-2.74585
-2.89277
-2.5935
9.14794
1079.86
-1.1153
-1.26209
-1.42725
-1.58633
-1.73036
-1.84328
-1.94424
-2.03319
-2.1395
-2.26994
-2.42467
-2.60328
-2.78477
-2.96685
-3.07644
-3.24231
-2.848
22.9711
1100.86
-1.09725
-1.22636
-1.38265
-1.53446
-1.671
-1.78118
-1.87472
-1.98447
-2.11098
-2.26799
-2.46178
-2.69667
-2.96442
-3.26794
-3.52275
-3.7248
-3.19323
32.7132
1096.34
-1.07382
-1.19098
-1.33939
-1.47446
-1.59865
-1.70855
-1.81246
-1.93371
-2.07821
-2.26076
-2.49608
-2.79972
-3.18316
-3.67668
-4.16038
-4.49526
-3.82593
42.0955
1196.54
-1.05824
-1.16748
-1.29194
-1.4138
-1.52909
-1.63803
-1.74938
-1.87868
-2.03753
-2.24091
-2.51696
-2.89886
-3.43405
-4.20933
-5.04125
-5.64921
-4.86201
52.1393
1290.48
-1.05259
-1.14375
-1.24885
-1.3557
-1.46155
-1.56759
-1.68113
-1.81459
-1.98215
-2.2016
-2.51067
-2.96845
-3.67548
-4.7994
-6.10923
-7.1839
-6.20987
57.7658
1365.67
-1.04666
-1.11749
-1.205
-1.29801
-1.39416
-1.49463
-1.60567
-1.73801
-1.90685
-2.13554
-2.4616
-2.97268
-3.81379
-5.23058
-7.07408
-8.70696
-7.54294
75.8922
925.862
-1.03096
-1.08573
-1.15829
-1.23859
-1.32464
-1.41726
-1.52165
-1.64715
-1.80859
-2.031
-2.35971
-2.88874
-3.738
-5.18682
-7.43097
-9.02513
-1.03006
117.924
159.053
-1.00567
-1.04722
-1.10753
-1.17643
-1.25203
-1.33484
-1.42891
-1.54196
-1.68718
-1.88781
-2.18367
-2.65616
-3.50405
-4.82135
-6.56299
-7.13086
0.940833
96.0076
36.5587
-0.965382
-1.00151
-1.05247
-1.11121
-1.17621
-1.24764
-1.32841
-1.4242
-1.54542
-1.71023
-1.94718
-2.32789
-3.05789
-4.18445
-3.77557
-0.265323
15.0224
17.4696
12.9048
-0.91655
-0.950043
-0.993608
-1.04321
-1.09758
-1.15663
-1.22197
-1.29712
-1.38883
-1.50804
-1.66962
-1.92744
-2.4356
-3.23036
4.11646
14.2634
20.0735
7.15799
5.8268
-0.862665
-0.894461
-0.931868
-0.97308
-1.01701
-1.06321
-1.11209
-1.16497
-1.22471
-1.29492
-1.37749
-1.50155
-1.75612
-2.03101
4.78073
16.462
20.2697
3.92552
3.58331
-0.806587
-0.83644
-0.868347
-0.901753
-0.935597
-0.969075
-1.00149
-1.03225
-1.06076
-1.08479
-1.09769
-1.10586
-1.13905
-1.02134
1.577
10.882
13.9568
2.39597
2.68671
-0.750216
-0.777473
-0.804182
-0.830258
-0.854569
-0.875946
-0.892804
-0.903064
-0.903599
-0.888488
-0.847058
-0.771629
-0.651096
-0.344905
0.594162
1.80333
2.734
1.96743
2.23084
-0.694772
-0.718775
-0.740432
-0.759637
-0.77514
-0.785436
-0.788314
-0.780684
-0.75794
-0.712414
-0.632146
-0.503897
-0.30122
0.0547126
0.673432
1.40209
1.81499
1.80858
1.95816
-0.640985
-0.661276
-0.678024
-0.690855
-0.69841
-0.698921
-0.689801
-0.667417
-0.626563
-0.559244
-0.45376
-0.297645
-0.0643229
0.286898
0.773129
1.28841
1.61174
1.67396
1.7538
-0.589252
-0.605658
-0.617705
-0.624729
-0.625301
-0.61748
-0.598518
-0.564647
-0.510697
-0.429378
-0.311805
-0.143185
0.0908875
0.408785
0.802863
1.1919
1.44748
1.53092
1.57746
-0.539807
-0.552372
-0.560032
-0.561904
-0.556519
-0.541866
-0.515216
-0.472963
-0.410374
-0.321491
-0.19795
-0.0306811
0.189116
0.46636
0.785558
1.08987
1.29896
1.38613
1.41792
-0.492802
-0.501731
-0.505416
-0.50284
-0.49253
-0.47251
-0.440199
-0.392353
-0.325011
-0.232801
-0.11006
0.0489917
0.248346
0.486241
0.746042
0.987928
1.16139
1.24612
1.27166
-0.448339
-0.453939
-0.454127
-0.447823
-0.433594
-0.409574
-0.373425
-0.322445
-0.253032
-0.16136
-0.0435033
0.103695
0.280994
0.483687
0.696766
0.892058
1.03683
1.11532
1.13801
-0.406468
-0.409105
-0.406305
-0.39699
-0.379793
-0.353007
-0.314545
-0.262296
-0.19324
-0.104661
0.005866
0.139655
0.295541
0.467824
0.643852
0.803508
0.924842
0.995345
1.01642
-0.367184
-0.367257
-0.361992
-0.350348
-0.331056
-0.302623
-0.263432
-0.211193
-0.144155
-0.0603419
0.0415683
0.161662
0.297774
0.444192
0.590565
0.72231
0.824239
0.886376
0.906061
-0.330439
-0.328361
-0.321146
-0.307807
-0.28719
-0.257999
-0.218882
-0.168108
-0.104312
-0.0262873
0.0664877
0.173332
0.29165
0.416187
0.53858
0.648069
0.733826
0.787895
0.806068
-0.296162
-0.292346
-0.283663
-0.2692
-0.247939
-0.218745
-0.180606
-0.132126
-0.0723612
-0.000667101
0.0829393
0.177351
0.27988
0.385896
0.488683
0.580149
0.652364
0.698993
0.715499
-0.264253
-0.259094
-0.249389
-0.234316
-0.213008
-0.184606
-0.147946
-0.102345
-0.0470975
0.0180614
0.0927633
0.175711
0.264324
0.354608
0.44118
0.517851
0.578678
0.618626
0.633389
-0.234584
-0.228453
-0.218131
-0.202891
-0.181998
-0.154717
-0.120206
-0.0779192
-0.0274588
0.03118
0.0974126
0.169894
0.246261
0.323111
0.396126
0.460506
0.511717
0.545765
0.55879
-0.207012
-0.20025
-0.189673
-0.174649
-0.154563
-0.128825
-0.096803
-0.0580949
-0.0125251
0.0397457
0.0980267
0.161002
0.22658
0.291887
0.353451
0.407515
0.450569
0.479454
0.49081
-0.181384
-0.174297
-0.163783
-0.149306
-0.130346
-0.106475
-0.0771844
-0.0422035
-0.00151101
0.0446259
0.0954961
0.149858
0.205903
0.261223
0.313024
0.358344
0.394443
0.418828
0.428615
-0.157535
-0.150393
-0.140223
-0.126578
-0.108977
-0.0872413
-0.0608405
-0.0296554
0.00624577
0.0465282
0.0905157
0.137073
0.184659
0.231277
0.274676
0.312515
0.342643
0.363101
0.371432
-0.135296
-0.128334
-0.11875
-0.106193
-0.0903657
-0.0707427
-0.0473101
-0.0199318
0.0113023
0.046026
0.0836255
0.123094
0.163133
0.202107
0.238205
0.269579
0.29454
0.311559
0.318547
-0.114493
-0.10791
-0.0991075
-0.0878084
-0.073732
-0.0565439
-0.03617
-0.012579
0.0141266
0.0435803
0.0752395
0.10824
0.141499
0.173695
0.203385
0.229112
0.249559
0.263548
0.269298
-0.0949564
-0.0889156
-0.0810604
-0.071168
-0.0589942
-0.0443204
-0.0270505
-0.00720584
0.0151106
0.0395591
0.0656712
0.0927277
0.119844
0.145969
0.169968
0.190708
0.207169
0.218465
0.223075
-0.0765152
-0.0711537
-0.064381
-0.0560195
-0.0458677
-0.0337672
-0.0196232
-0.00347475
0.014583
0.0342575
0.0551566
0.0767039
0.0981959
0.118818
0.137699
0.153976
0.166876
0.175756
0.179315
-0.0590032
-0.0544305
-0.0488484
-0.0421171
-0.034079
-0.0246005
-0.0135923
-0.00109085
0.0128229
0.0279162
0.0438766
0.0602641
0.076545
0.0921127
0.106326
0.118553
0.128226
0.134913
0.137502
-0.0422649
-0.0385564
-0.0342445
-0.029225
-0.0233748
-0.0165595
-0.0086922
0.0002041
0.0100679
0.0207317
0.0319674
0.0434652
0.0548514
0.0657075
0.0755955
0.0840863
0.0907909
0.0954577
0.0971564
-0.0261274
-0.0233311
-0.0203377
-0.0170968
-0.0135068
-0.00939603
-0.00467466
0.000647857
0.00653264
0.012879
0.0195475
0.0263539
0.0330774
0.0394728
0.0452865
0.0502724
0.0542015
0.0569763
0.0578575
-0.0102157
-0.00845373
-0.00687598
-0.00550786
-0.00427287
-0.00290055
-0.00132758
0.000439131
0.00238568
0.00447839
0.00667034
0.00890068
0.0110972
0.0131804
0.0150694
0.0166878
0.0179517
0.0188644
0.0191161
)
;

boundaryField
{
    leftWall
    {
        type            fixedFluxPressure;
        gradient        uniform 0;
        value           nonuniform List<scalar> 
50
(
1419.21
1418.86
1418.14
1417.03
1415.5
1413.5
1411
1407.96
1402.32
1392.12
1379.44
1364.12
1345.59
1327.95
1251.56
288.712
-0.238266
-0.217626
-0.223214
-0.246747
-0.262524
-0.276257
-0.287014
-0.294736
-0.299653
-0.302008
-0.301913
-0.299768
-0.29604
-0.290906
-0.284299
-0.276238
-0.266915
-0.256641
-0.245586
-0.233777
-0.221195
-0.207844
-0.193835
-0.179325
-0.164469
-0.149413
-0.134247
-0.119018
-0.103769
-0.0885283
-0.0732415
-0.0579307
-0.0426332
-0.0264171
)
;
    }
    rightWall
    {
        type            fixedFluxPressure;
        gradient        uniform 0;
        value           nonuniform List<scalar> 
50
(
1952.42
1936.63
1921.37
2000.93
2250.64
2588.61
2749.64
2721.12
2411.21
1724.53
1124.84
876.142
927.904
1079.86
1100.86
1096.34
1196.54
1290.48
1365.67
925.862
159.053
36.5587
12.9048
5.8268
3.58331
2.68671
2.23084
1.95816
1.7538
1.57746
1.41792
1.27166
1.13801
1.01642
0.906061
0.806068
0.715499
0.633389
0.55879
0.49081
0.428615
0.371432
0.318547
0.269298
0.223075
0.179315
0.137502
0.0971564
0.0578575
0.0191161
)
;
    }
    lowerWall
    {
        type            fixedFluxPressure;
        gradient        uniform 0;
        value           nonuniform List<scalar> 
62
(
1419.21
1419.75
1419.96
1419.83
1419.39
1418.81
1418.2
1417.65
1417.23
1417
1417
1417.31
1417.99
1419.14
1420.77
1422.83
1425.24
1427.83
1430.36
1432.52
1434.24
1435.58
1436.58
1436.58
1437.54
1438.26
1436.9
1432.26
1423.09
1402.94
1362.71
862.542
1107.14
1130.39
992.963
446.282
401.215
351.746
337.866
342.197
345.583
347.879
568.004
446.282
338.118
314.581
320.035
336.042
367.581
466.416
759.416
1102.17
1050.53
816.658
697.113
766.902
994.644
1342.18
1630.27
1593.16
1537.05
1952.42
)
;
    }
    atmosphere
    {
        type            totalPressure;
        rho             rho;
        psi             none;
        gamma           1;
        p0              uniform 0;
        value           nonuniform List<scalar> 
46
(
-0.0168754
-0.0188896
-0.0187371
-0.0187418
-0.018671
-0.0185504
-0.0183805
-0.0181658
-0.0179094
-0.0176143
-0.0172829
-0.0169177
-0.0165211
-0.0160953
-0.0156424
-0.0151647
-0.0146641
-0.0141429
-0.013603
-0.0130466
-0.0124755
-0.0118917
-0.0112967
-0.00993057
-0.00778895
-0.00571103
-0.00379094
-0.00225171
-0.0011052
-0.000338866
-1.58931e-05
0
0
0
0
0
0
0
0
0
0
0
0
0
0
0
)
;
    }
    defaultFaces
    {
        type            empty;
    }
}


// ************************************************************************* //
