/*--------------------------------*- C++ -*----------------------------------*\
| =========                 |                                                 |
| \\      /  F ield         | OpenFOAM: The Open Source CFD Toolbox           |
|  \\    /   O peration     | Version:  2206                                  |
|   \\  /    A nd           | Website:  www.openfoam.com                      |
|    \\/     M anipulation  |                                                 |
\*---------------------------------------------------------------------------*/
FoamFile
{
    version     2.0;
    format      ascii;
    arch        "LSB;label=32;scalar=64";
    class       surfaceScalarField;
    location    "0.325";
    object      phi;
}
// * * * * * * * * * * * * * * * * * * * * * * * * * * * * * * * * * * * * * //

dimensions      [0 3 -1 0 0 0 0];

oriented        oriented;

internalField   nonuniform List<scalar> 
4432
(
4.04697e-07
-4.04697e-07
1.79265e-06
-1.38796e-06
3.4524e-06
-1.65975e-06
5.01519e-06
-1.56279e-06
6.38145e-06
-1.36626e-06
7.57128e-06
-1.18983e-06
8.62911e-06
-1.05783e-06
9.58408e-06
-9.5496e-07
1.04428e-05
-8.58758e-07
1.11946e-05
-7.51813e-07
1.18173e-05
-6.22668e-07
1.22754e-05
-4.58111e-07
1.25217e-05
-2.46223e-07
1.2493e-05
2.86295e-08
1.20437e-05
4.49329e-07
1.10975e-05
9.46229e-07
9.59923e-06
1.49826e-06
7.56639e-06
2.03285e-06
5.17334e-06
2.39305e-06
2.76143e-06
2.41191e-06
8.30392e-07
1.93104e-06
-9.64144e-08
9.26812e-07
-9.64091e-08
3.91398e-07
-7.96097e-07
1.78659e-06
-2.78315e-06
3.47551e-06
-3.34867e-06
5.07757e-06
-3.16485e-06
6.48029e-06
-2.76898e-06
7.6992e-06
-2.40874e-06
8.78077e-06
-2.1394e-06
9.75824e-06
-1.93243e-06
1.06419e-05
-1.74246e-06
1.14244e-05
-1.53424e-06
1.20876e-05
-1.2859e-06
1.26144e-05
-9.84848e-07
1.29909e-05
-6.2272e-07
1.32023e-05
-1.8282e-07
1.3296e-05
3.55638e-07
1.32247e-05
1.01757e-06
1.28725e-05
1.85043e-06
1.20624e-05
2.843e-06
1.05965e-05
3.85897e-06
8.38787e-06
4.62052e-06
5.58354e-06
4.73539e-06
2.60465e-06
3.90571e-06
2.50824e-06
3.5511e-07
-1.15121e-06
1.74694e-06
-4.17498e-06
3.46956e-06
-5.07129e-06
5.12227e-06
-4.81756e-06
6.57133e-06
-4.21803e-06
7.82391e-06
-3.66132e-06
8.92944e-06
-3.24493e-06
9.9283e-06
-2.93128e-06
1.08374e-05
-2.65151e-06
1.16536e-05
-2.35047e-06
1.23619e-05
-1.99422e-06
1.29401e-05
-1.56306e-06
1.3359e-05
-1.04156e-06
1.35906e-05
-4.14403e-07
1.36216e-05
3.24569e-07
1.34482e-05
1.19107e-06
1.30938e-05
2.20476e-06
1.2547e-05
3.38987e-06
1.16721e-05
4.73382e-06
1.01725e-05
6.12014e-06
7.70036e-06
7.20752e-06
4.15724e-06
7.44882e-06
6.66549e-06
3.04217e-07
-1.45542e-06
1.69392e-06
-5.56468e-06
3.46477e-06
-6.84213e-06
5.18906e-06
-6.54186e-06
6.70479e-06
-5.73376e-06
8.00755e-06
-4.96408e-06
9.14994e-06
-4.38732e-06
1.01816e-05
-3.96296e-06
1.11283e-05
-3.59815e-06
1.19925e-05
-3.21472e-06
1.27618e-05
-2.76349e-06
1.34147e-05
-2.216e-06
1.39262e-05
-1.55306e-06
1.42691e-05
-7.57262e-07
1.44011e-05
1.92588e-07
1.42871e-05
1.30502e-06
1.38895e-05
2.60243e-06
1.31947e-05
4.08463e-06
1.21754e-05
5.75313e-06
1.06875e-05
7.60806e-06
8.35218e-06
9.54281e-06
4.72488e-06
1.10761e-05
1.13904e-05
2.43285e-07
-1.69871e-06
1.63132e-06
-6.95272e-06
3.4607e-06
-8.67151e-06
5.27077e-06
-8.35192e-06
6.86749e-06
-7.33048e-06
8.23362e-06
-6.33021e-06
9.42497e-06
-5.57866e-06
1.05013e-05
-5.03933e-06
1.14985e-05
-4.59528e-06
1.24259e-05
-4.14219e-06
1.32749e-05
-3.61243e-06
1.40259e-05
-2.96698e-06
1.46535e-05
-2.18071e-06
1.51277e-05
-1.23143e-06
1.54126e-05
-9.2348e-08
1.54599e-05
1.25773e-06
1.52037e-05
2.85866e-06
1.45571e-05
4.73116e-06
1.3428e-05
6.88231e-06
1.17181e-05
9.31788e-06
9.20475e-06
1.20562e-05
5.37807e-06
1.49028e-05
1.67684e-05
1.73105e-07
-1.87181e-06
1.56208e-06
-8.34169e-06
3.45952e-06
-1.0569e-05
5.36331e-06
-1.02557e-05
7.0477e-06
-9.01488e-06
8.48506e-06
-7.76756e-06
9.7353e-06
-6.82891e-06
1.08682e-05
-6.17222e-06
1.19294e-05
-5.65644e-06
1.29357e-05
-5.14852e-06
1.38829e-05
-4.55958e-06
1.47539e-05
-3.83806e-06
1.5525e-05
-2.95175e-06
1.61668e-05
-1.87323e-06
1.66451e-05
-5.70686e-07
1.69096e-05
9.93208e-07
1.68934e-05
2.87486e-06
1.64846e-05
5.14001e-06
1.55101e-05
7.85682e-06
1.37449e-05
1.1083e-05
1.09001e-05
1.4901e-05
6.43439e-06
1.93686e-05
2.32028e-05
9.85917e-08
-1.9704e-06
1.49686e-06
-9.73997e-06
3.46886e-06
-1.2541e-05
5.46356e-06
-1.22504e-05
7.23127e-06
-1.07826e-05
8.74061e-06
-9.27691e-06
1.00569e-05
-8.14524e-06
1.12582e-05
-7.37347e-06
1.23978e-05
-6.79604e-06
1.3499e-05
-6.24969e-06
1.45623e-05
-5.62289e-06
1.5575e-05
-4.85081e-06
1.65175e-05
-3.89422e-06
1.73653e-05
-2.72103e-06
1.80874e-05
-1.29282e-06
1.86398e-05
4.40804e-07
1.89625e-05
2.55221e-06
1.89511e-05
5.15141e-06
1.84199e-05
8.38803e-06
1.71023e-05
1.24006e-05
1.4493e-05
1.75104e-05
1.01102e-05
2.37513e-05
3.3313e-05
4.305e-08
-2.01345e-06
1.46364e-06
-1.11606e-05
3.50557e-06
-1.45829e-05
5.5716e-06
-1.43164e-05
7.4052e-06
-1.26162e-05
8.9799e-06
-1.08516e-05
1.0367e-05
-9.5323e-06
1.16488e-05
-8.65532e-06
1.28824e-05
-8.02966e-06
1.40946e-05
-7.4619e-06
1.52903e-05
-6.8186e-06
1.64623e-05
-6.02279e-06
1.75979e-05
-5.02981e-06
1.86815e-05
-3.80461e-06
1.96932e-05
-2.30453e-06
2.06076e-05
-4.73642e-07
2.13789e-05
1.78097e-06
2.19267e-05
4.60362e-06
2.20536e-05
8.26112e-06
2.14094e-05
1.30448e-05
1.89755e-05
1.99442e-05
1.3456e-05
2.92709e-05
4.6769e-05
-0.000110289
0.000110289
-0.000148336
3.8047e-05
-0.000146074
-2.26154e-06
-0.000130382
-1.56922e-05
-0.000114039
-1.63428e-05
-8.97194e-05
-2.43201e-05
-5.85317e-05
-3.11876e-05
3.45501e-06
-6.19867e-05
6.49487e-05
-6.14937e-05
0.000102637
-3.76882e-05
0.000123121
-2.04842e-05
0.000132953
-9.83143e-06
0.000130126
2.8269e-06
0.000104957
2.51685e-05
5.2388e-05
5.25691e-05
-1.91939e-05
7.15819e-05
-5.8448e-05
3.92541e-05
-9.59291e-05
3.74812e-05
-9.59292e-05
-0.000163976
0.000274265
-0.000177308
5.13782e-05
-0.000153322
-2.62472e-05
-0.000122835
-4.61796e-05
-8.72001e-05
-5.19768e-05
-5.04245e-05
-6.10958e-05
2.00312e-05
-0.000101643
8.82317e-05
-0.000130187
0.000125473
-9.87351e-05
0.000147729
-5.99443e-05
0.00016079
-3.35448e-05
0.000167254
-1.62959e-05
0.000168645
1.43585e-06
0.000163132
3.06821e-05
0.000137123
7.85775e-05
7.49058e-05
0.000133799
-9.17806e-06
0.000123338
-4.45431e-05
7.28462e-05
-0.000140472
-2.95609e-05
0.000303826
-2.6041e-05
4.7858e-05
-3.18938e-05
-2.03935e-05
-6.84908e-06
-7.12244e-05
2.61833e-05
-8.50089e-05
7.16781e-05
-0.000106591
0.000111153
-0.000141118
0.000129291
-0.000148326
0.000145446
-0.00011489
0.000159196
-7.3694e-05
0.000168737
-4.30858e-05
0.000174039
-2.15983e-05
0.000175002
4.73132e-07
0.000172028
3.36558e-05
0.000164061
8.65444e-05
0.000136826
0.000161034
6.84816e-05
0.000191683
9.02145e-06
0.000132306
-0.000131451
2.35697e-05
0.000280257
6.00421e-05
1.13852e-05
7.35283e-05
-3.38789e-05
8.40062e-05
-8.17025e-05
0.000104355
-0.000105358
0.000124816
-0.000127052
0.00013537
-0.000151672
0.000141686
-0.000154641
0.000152435
-0.000125639
0.000163985
-8.52443e-05
0.000172699
-5.18e-05
0.000178106
-2.70049e-05
0.000180145
-1.56662e-06
0.000177275
3.65267e-05
0.000171467
9.23521e-05
0.000161615
0.000170886
0.000118846
0.000234452
5.31415e-05
0.000198011
-7.83092e-05
4.6484e-05
0.000233773
8.43126e-05
-2.64438e-05
0.000108405
-5.79712e-05
0.000117755
-9.10522e-05
0.000125148
-0.00011275
0.000135776
-0.000137679
0.000142378
-0.000158274
0.000148343
-0.000160606
0.000157498
-0.000134794
0.000166789
-9.45353e-05
0.00017374
-5.87506e-05
0.000178604
-3.18689e-05
0.000181739
-4.70222e-06
0.000181111
3.71549e-05
0.000175771
9.76926e-05
0.000170147
0.00017651
0.000145088
0.00025951
8.66165e-05
0.000256482
8.30723e-06
8.23136e-05
0.00015146
0.000104058
-4.81883e-05
0.000114959
-6.88726e-05
0.000120657
-9.67497e-05
0.000130996
-0.00012309
0.000140719
-0.000147402
0.000146736
-0.000164291
0.000151853
-0.000165723
0.000157768
-0.00014071
0.000162519
-9.92864e-05
0.00016536
-6.15916e-05
0.000168013
-3.45216e-05
0.000171549
-8.23821e-06
0.000174826
3.38776e-05
0.000174107
9.84123e-05
0.000170847
0.00017977
0.000154336
0.000276022
0.000102051
0.000308767
0.000110358
0.000115058
3.64015e-05
0.000103925
-3.70555e-05
0.000113523
-7.84708e-05
0.000125727
-0.000108953
0.000136324
-0.000133687
0.00014354
-0.000154618
0.000147487
-0.000168238
0.000149946
-0.000168182
0.000149861
-0.000140625
0.000146558
-9.59826e-05
0.000140206
-5.52399e-05
0.000134025
-2.83402e-05
0.00013417
-8.3835e-06
0.000146124
2.19239e-05
0.000158145
8.63907e-05
0.000162507
0.000175408
0.000152234
0.000286295
0.000104956
0.000356045
0.000215314
7.5473e-05
-3.90713e-05
0.000104712
-6.62944e-05
0.000121016
-9.47747e-05
0.00013151
-0.000119447
0.000138092
-0.000140269
0.000142479
-0.000159005
0.00014405
-0.000169808
0.000141502
-0.000165634
0.000132254
-0.000131377
0.000116351
-8.00798e-05
9.41872e-05
-3.30759e-05
7.05877e-05
-4.74074e-06
7.1743e-05
-9.53875e-06
9.92048e-05
-5.538e-06
0.000123482
6.21135e-05
0.000142018
0.000156871
0.000142643
0.00028567
0.000101848
0.00039684
0.000317162
8.0097e-08
-2.09356e-06
3.23776e-06
-1.43182e-05
7.75163e-06
-1.90968e-05
1.22789e-05
-1.88437e-05
1.63002e-05
-1.66375e-05
1.9814e-05
-1.43654e-05
2.2999e-05
-1.27172e-05
2.60294e-05
-1.16858e-05
2.90173e-05
-1.10176e-05
3.20159e-05
-1.04604e-05
3.50419e-05
-9.84463e-06
3.80975e-05
-9.07835e-06
4.11844e-05
-8.11677e-06
4.43128e-05
-6.93304e-06
4.7508e-05
-5.4997e-06
5.08133e-05
-3.77894e-06
5.43234e-05
-1.72911e-06
5.82377e-05
6.8924e-07
6.28098e-05
3.68909e-06
6.87424e-05
7.11214e-06
7.73584e-05
1.13282e-05
9.20882e-05
1.45411e-05
2.35757e-05
0.000115282
3.02383e-07
-2.39594e-06
3.68611e-06
-1.7702e-05
8.35166e-06
-2.37623e-05
1.29213e-05
-2.34134e-05
1.69846e-05
-2.07008e-05
2.06535e-05
-1.80343e-05
2.41467e-05
-1.62104e-05
2.76178e-05
-1.51569e-05
3.11402e-05
-1.454e-05
3.47403e-05
-1.40605e-05
3.84296e-05
-1.3534e-05
4.2225e-05
-1.28738e-05
4.61585e-05
-1.20503e-05
5.02838e-05
-1.10583e-05
5.46832e-05
-9.89911e-06
5.94792e-05
-8.57493e-06
6.48387e-05
-7.08858e-06
7.09815e-05
-5.45354e-06
7.83279e-05
-3.65737e-06
8.72251e-05
-1.78503e-06
9.80919e-05
4.61314e-07
0.000110958
1.67488e-06
5.99136e-06
0.000128542
7.50221e-07
-3.14616e-06
4.41609e-06
-2.13678e-05
9.20858e-06
-2.85548e-05
1.36977e-05
-2.79025e-05
1.76557e-05
-2.46588e-05
2.13825e-05
-2.17611e-05
2.5141e-05
-1.99688e-05
2.90296e-05
-1.90455e-05
3.30484e-05
-1.85588e-05
3.71748e-05
-1.8187e-05
4.14017e-05
-1.77608e-05
4.57463e-05
-1.72183e-05
5.02479e-05
-1.65519e-05
5.49633e-05
-1.57737e-05
5.99641e-05
-1.48999e-05
6.53354e-05
-1.39462e-05
7.11767e-05
-1.29299e-05
7.7599e-05
-1.18759e-05
8.47549e-05
-1.08133e-05
9.27883e-05
-9.81841e-06
0.000102169
-8.91919e-06
0.000112363
-8.51905e-06
-8.00461e-06
0.000126359
1.26111e-06
-4.40727e-06
5.1998e-06
-2.53065e-05
1.01571e-05
-3.35121e-05
1.45524e-05
-3.22978e-05
1.83934e-05
-2.84998e-05
2.22032e-05
-2.5571e-05
2.62511e-05
-2.40167e-05
3.05371e-05
-2.33315e-05
3.49761e-05
-2.29978e-05
3.95054e-05
-2.27162e-05
4.41086e-05
-2.2364e-05
4.88059e-05
-2.19156e-05
5.36391e-05
-2.13851e-05
5.86606e-05
-2.07952e-05
6.39281e-05
-2.01674e-05
6.95033e-05
-1.95215e-05
7.54514e-05
-1.88779e-05
8.18367e-05
-1.82613e-05
8.87296e-05
-1.77062e-05
9.6178e-05
-1.72668e-05
0.000104247
-1.6988e-05
0.000112727
-1.69991e-05
-1.71254e-05
0.000121848
2.39615e-06
-6.80342e-06
6.91776e-06
-2.98281e-05
1.16836e-05
-3.8278e-05
1.56151e-05
-3.62293e-05
1.9275e-05
-3.21597e-05
2.32577e-05
-2.95536e-05
2.76539e-05
-2.84129e-05
3.23049e-05
-2.79825e-05
3.70588e-05
-2.77518e-05
4.18485e-05
-2.75059e-05
4.66704e-05
-2.7186e-05
5.1552e-05
-2.67973e-05
5.65349e-05
-2.6368e-05
6.16598e-05
-2.592e-05
6.69707e-05
-2.54783e-05
7.25069e-05
-2.50577e-05
7.83001e-05
-2.46712e-05
8.43754e-05
-2.43365e-05
9.07521e-05
-2.40829e-05
9.74408e-05
-2.39554e-05
0.000104458
-2.40055e-05
0.000111757
-2.42978e-05
-2.48598e-05
0.000119491
6.83928e-06
-1.36427e-05
1.37675e-05
-3.67563e-05
1.56546e-05
-4.01651e-05
1.70813e-05
-3.76561e-05
2.00166e-05
-3.50949e-05
2.41109e-05
-3.36479e-05
2.87468e-05
-3.30488e-05
3.35601e-05
-3.27958e-05
3.83873e-05
-3.2579e-05
4.31983e-05
-3.23168e-05
4.80135e-05
-3.20012e-05
5.28821e-05
-3.16658e-05
5.78112e-05
-3.12972e-05
6.28489e-05
-3.09576e-05
6.80227e-05
-3.06521e-05
7.33529e-05
-3.03879e-05
7.88486e-05
-3.0167e-05
8.45204e-05
-3.00083e-05
9.03618e-05
-2.99242e-05
9.63969e-05
-2.99905e-05
0.000102757
-3.03657e-05
0.000109711
-3.1252e-05
-3.15843e-05
0.000116436
1.82175e-05
-3.18602e-05
2.8358e-05
-4.68968e-05
2.04907e-05
-3.22978e-05
1.66767e-05
-3.38421e-05
1.86105e-05
-3.70288e-05
2.25324e-05
-3.75698e-05
2.68127e-05
-3.73291e-05
3.10988e-05
-3.70819e-05
3.53721e-05
-3.68523e-05
3.96836e-05
-3.66283e-05
4.39159e-05
-3.62335e-05
4.83572e-05
-3.61071e-05
5.28075e-05
-3.57475e-05
5.74497e-05
-3.55999e-05
6.22435e-05
-3.54459e-05
6.72384e-05
-3.53828e-05
7.24569e-05
-3.53855e-05
7.79311e-05
-3.54825e-05
8.36335e-05
-3.56267e-05
8.95399e-05
-3.58969e-05
9.63971e-05
-3.72228e-05
0.00010664
-4.14946e-05
-3.4634e-05
0.000109689
3.14979e-05
-6.33581e-05
3.23002e-05
-4.76991e-05
1.62501e-05
-1.62477e-05
1.1555e-05
-2.91469e-05
1.2948e-05
-3.84218e-05
1.51158e-05
-3.97376e-05
1.72818e-05
-3.94951e-05
1.89091e-05
-3.87091e-05
2.07278e-05
-3.8671e-05
2.34022e-05
-3.93027e-05
2.61476e-05
-3.89788e-05
2.98873e-05
-3.98466e-05
3.37525e-05
-3.96125e-05
3.85107e-05
-4.0358e-05
4.37326e-05
-4.06678e-05
4.93825e-05
-4.10327e-05
5.54853e-05
-4.14884e-05
6.22018e-05
-4.21991e-05
6.96013e-05
-4.30264e-05
7.76181e-05
-4.39138e-05
8.53271e-05
-4.49318e-05
8.99444e-05
-4.61118e-05
-4.68257e-05
0.000102136
-7.01957e-06
-5.63385e-05
-1.37509e-05
-4.09676e-05
-6.79813e-07
-2.93185e-05
6.5739e-06
-3.64007e-05
8.97954e-06
-4.08275e-05
1.09284e-05
-4.16865e-05
1.30356e-05
-4.16027e-05
1.60193e-05
-4.16931e-05
1.94044e-05
-4.20562e-05
2.24578e-05
-4.23563e-05
2.63973e-05
-4.29185e-05
3.01737e-05
-4.36232e-05
3.4851e-05
-4.42901e-05
3.94957e-05
-4.5003e-05
4.46602e-05
-4.58326e-05
5.03061e-05
-4.66788e-05
5.65439e-05
-4.77262e-05
6.34328e-05
-4.9088e-05
7.10174e-05
-5.06108e-05
7.90298e-05
-5.19261e-05
8.70725e-05
-5.29743e-05
9.37631e-05
-5.28023e-05
-5.24924e-05
9.94298e-05
-1.47829e-05
-4.15556e-05
-1.54248e-05
-4.03257e-05
-2.23783e-06
-4.25055e-05
5.36547e-06
-4.4004e-05
8.44767e-06
-4.39096e-05
1.06836e-05
-4.39224e-05
1.32081e-05
-4.41271e-05
1.60015e-05
-4.44863e-05
1.89283e-05
-4.49828e-05
2.21856e-05
-4.56134e-05
2.56298e-05
-4.63624e-05
2.92318e-05
-4.72251e-05
3.31242e-05
-4.81824e-05
3.73119e-05
-4.91908e-05
4.19062e-05
-5.04271e-05
4.72595e-05
-5.20324e-05
5.35797e-05
-5.40467e-05
6.07215e-05
-5.623e-05
6.81017e-05
-5.7991e-05
7.48119e-05
-5.86362e-05
7.96892e-05
-5.78514e-05
8.06264e-05
-5.37395e-05
-5.42418e-05
8.23759e-05
-4.73804e-06
-3.68174e-05
5.52124e-07
-4.56159e-05
4.23333e-06
-4.61869e-05
5.76116e-06
-4.5532e-05
7.34768e-06
-4.54965e-05
9.1301e-06
-4.57052e-05
1.11284e-05
-4.61257e-05
1.33093e-05
-4.66673e-05
1.5669e-05
-4.73425e-05
1.82134e-05
-4.81579e-05
2.09435e-05
-4.90925e-05
2.38775e-05
-5.01592e-05
2.7081e-05
-5.13861e-05
3.08068e-05
-5.29168e-05
3.53572e-05
-5.49777e-05
4.10243e-05
-5.76996e-05
4.77182e-05
-6.07408e-05
5.46827e-05
-6.31945e-05
6.06171e-05
-6.39254e-05
6.40538e-05
-6.20728e-05
6.37015e-05
-5.74989e-05
5.8173e-05
-4.82108e-05
-5.63405e-05
6.02717e-05
9.00585e-07
-3.77179e-05
2.08365e-06
-4.67988e-05
2.5852e-06
-4.66883e-05
3.45818e-06
-4.64049e-05
4.60722e-06
-4.66457e-05
5.92946e-06
-4.70275e-05
7.32377e-06
-4.752e-05
8.83447e-06
-4.81781e-05
1.04871e-05
-4.89953e-05
1.22985e-05
-4.99693e-05
1.43095e-05
-5.11035e-05
1.65849e-05
-5.24347e-05
1.929e-05
-5.40915e-05
2.27383e-05
-5.63654e-05
2.72834e-05
-5.95231e-05
3.29256e-05
-6.33421e-05
3.89983e-05
-6.68137e-05
4.42415e-05
-6.84379e-05
4.73376e-05
-6.70216e-05
4.7336e-05
-6.20712e-05
4.42129e-05
-5.43758e-05
3.95995e-05
-4.35974e-05
-6.38963e-05
4.71554e-05
9.43459e-07
-3.86615e-05
8.22407e-07
-4.66779e-05
8.97108e-07
-4.67631e-05
1.431e-06
-4.69392e-05
2.02131e-06
-4.72362e-05
2.66565e-06
-4.76718e-05
3.3937e-06
-4.82481e-05
4.20621e-06
-4.89908e-05
5.12398e-06
-4.99131e-05
6.17851e-06
-5.10238e-05
7.40676e-06
-5.23318e-05
8.89188e-06
-5.39199e-05
1.08517e-05
-5.60515e-05
1.35896e-05
-5.91035e-05
1.72249e-05
-6.31586e-05
2.13555e-05
-6.7473e-05
2.50585e-05
-7.0517e-05
2.73589e-05
-7.07384e-05
2.77925e-05
-6.74552e-05
2.67186e-05
-6.09972e-05
2.57733e-05
-5.34305e-05
2.9209e-05
-4.7033e-05
-6.82341e-05
3.35468e-05
5.14788e-07
-3.91762e-05
1.62171e-07
-4.63252e-05
-4.51033e-08
-4.6556e-05
-1.55681e-07
-4.68289e-05
-2.14918e-07
-4.7177e-05
-2.29914e-07
-4.76571e-05
-1.99534e-07
-4.82788e-05
-1.28278e-07
-4.90621e-05
-1.99748e-08
-5.00215e-05
1.19582e-07
-5.11634e-05
3.08501e-07
-5.25208e-05
6.3922e-07
-5.42508e-05
1.26845e-06
-5.66808e-05
2.30717e-06
-6.01424e-05
3.61246e-06
-6.44641e-05
4.72292e-06
-6.85838e-05
5.12529e-06
-7.09197e-05
4.7247e-06
-7.03381e-05
4.05978e-06
-6.67904e-05
4.4286e-06
-6.13661e-05
7.62187e-06
-5.66237e-05
1.46169e-05
-5.40279e-05
-6.32113e-05
9.59421e-06
6.08691e-09
-3.91823e-05
-5.70106e-07
-4.57492e-05
-1.15266e-06
-4.59737e-05
-1.75405e-06
-4.62275e-05
-2.35375e-06
-4.65774e-05
-2.96862e-06
-4.70425e-05
-3.61422e-06
-4.76333e-05
-4.31412e-06
-4.83622e-05
-5.09692e-06
-4.92387e-05
-5.98673e-06
-5.02737e-05
-6.98471e-06
-5.1523e-05
-8.07611e-06
-5.31594e-05
-9.2712e-06
-5.54858e-05
-1.0679e-05
-5.87346e-05
-1.25036e-05
-6.26398e-05
-1.48911e-05
-6.61965e-05
-1.76849e-05
-6.81262e-05
-2.02852e-05
-6.77379e-05
-2.17369e-05
-6.53389e-05
-2.10691e-05
-6.2034e-05
-1.88796e-05
-5.88132e-05
-1.64667e-05
-5.64406e-05
-5.5258e-05
-2.44199e-05
-4.17051e-07
-3.87653e-05
-1.31518e-06
-4.48512e-05
-2.2899e-06
-4.49989e-05
-3.3076e-06
-4.52097e-05
-4.37923e-06
-4.5506e-05
-5.52884e-06
-4.58929e-05
-6.78235e-06
-4.63798e-05
-8.17439e-06
-4.69702e-05
-9.74755e-06
-4.76656e-05
-1.1545e-05
-4.84763e-05
-1.36095e-05
-4.94585e-05
-1.60239e-05
-5.0745e-05
-1.89693e-05
-5.25404e-05
-2.26959e-05
-5.50082e-05
-2.73539e-05
-5.79819e-05
-3.27923e-05
-6.07582e-05
-3.84869e-05
-6.24317e-05
-4.36909e-05
-6.25339e-05
-4.78117e-05
-6.1218e-05
-5.09505e-05
-5.88951e-05
-5.37628e-05
-5.60006e-05
-5.73096e-05
-5.28936e-05
-4.90491e-05
-6.35183e-05
-7.87241e-07
-3.79781e-05
-2.02155e-06
-4.36171e-05
-3.32638e-06
-4.36942e-05
-4.69461e-06
-4.38417e-05
-6.14729e-06
-4.40534e-05
-7.70974e-06
-4.43304e-05
-9.41416e-06
-4.46754e-05
-1.12999e-05
-4.50845e-05
-1.34151e-05
-4.55505e-05
-1.58136e-05
-4.60779e-05
-1.85664e-05
-4.67056e-05
-2.18062e-05
-4.75051e-05
-2.57773e-05
-4.85692e-05
-3.07877e-05
-4.99978e-05
-3.70052e-05
-5.17645e-05
-4.42391e-05
-5.35244e-05
-5.19566e-05
-5.47143e-05
-5.95698e-05
-5.49208e-05
-6.67235e-05
-5.40642e-05
-7.33107e-05
-5.23078e-05
-7.93897e-05
-4.99213e-05
-8.53699e-05
-4.69131e-05
-4.29503e-05
-9.14685e-05
-1.10941e-06
-3.68688e-05
-2.60402e-06
-4.21224e-05
-4.16364e-06
-4.21347e-05
-5.78909e-06
-4.22163e-05
-7.50236e-06
-4.234e-05
-9.32866e-06
-4.25041e-05
-1.12985e-05
-4.27056e-05
-1.34468e-05
-4.29362e-05
-1.58151e-05
-4.31823e-05
-1.8453e-05
-4.34399e-05
-2.14268e-05
-4.37318e-05
-2.48417e-05
-4.40901e-05
-2.88843e-05
-4.45266e-05
-3.38267e-05
-4.50553e-05
-3.98906e-05
-4.57005e-05
-4.7028e-05
-4.63869e-05
-5.48736e-05
-4.68687e-05
-6.29334e-05
-4.68608e-05
-7.07775e-05
-4.62199e-05
-7.80985e-05
-4.49866e-05
-8.47106e-05
-4.3309e-05
-9.04753e-05
-4.11482e-05
-3.81372e-05
-9.52882e-05
-1.35744e-06
-3.55114e-05
-3.03527e-06
-4.04446e-05
-4.76318e-06
-4.04069e-05
-6.54699e-06
-4.04324e-05
-8.40722e-06
-4.04797e-05
-1.03651e-05
-4.05462e-05
-1.24444e-05
-4.06264e-05
-1.46698e-05
-4.07108e-05
-1.70687e-05
-4.07834e-05
-1.9675e-05
-4.08335e-05
-2.25326e-05
-4.08742e-05
-2.56921e-05
-4.09307e-05
-2.92272e-05
-4.09915e-05
-3.32765e-05
-4.1006e-05
-3.80255e-05
-4.09515e-05
-4.35648e-05
-4.08476e-05
-4.97591e-05
-4.06743e-05
-5.6287e-05
-4.03328e-05
-6.27864e-05
-3.97204e-05
-6.89539e-05
-3.88189e-05
-7.45923e-05
-3.76704e-05
-7.9507e-05
-3.62333e-05
-3.42766e-05
-8.33676e-05
-1.52816e-06
-3.39832e-05
-3.31561e-06
-3.86573e-05
-5.13337e-06
-3.85891e-05
-6.99246e-06
-3.85733e-05
-8.90952e-06
-3.85627e-05
-1.09008e-05
-3.8555e-05
-1.29826e-05
-3.85446e-05
-1.51701e-05
-3.85232e-05
-1.74772e-05
-3.84763e-05
-1.99214e-05
-3.83894e-05
-2.25289e-05
-3.82668e-05
-2.5323e-05
-3.81365e-05
-2.83065e-05
-3.8008e-05
-3.14826e-05
-3.78299e-05
-3.49087e-05
-3.75255e-05
-3.86828e-05
-3.70735e-05
-4.28415e-05
-3.65156e-05
-4.7285e-05
-3.58894e-05
-5.18161e-05
-3.51892e-05
-5.62369e-05
-3.43981e-05
-6.03912e-05
-3.35161e-05
-6.41287e-05
-3.24957e-05
-3.11818e-05
-6.72235e-05
-1.62433e-06
-3.23589e-05
-3.45706e-06
-3.68247e-05
-5.30048e-06
-3.67457e-05
-7.17004e-06
-3.67038e-05
-9.07786e-06
-3.66549e-05
-1.10357e-05
-3.6597e-05
-1.30543e-05
-3.6526e-05
-1.51424e-05
-3.64352e-05
-1.73053e-05
-3.63136e-05
-1.95479e-05
-3.6147e-05
-2.18842e-05
-3.59306e-05
-2.43353e-05
-3.56854e-05
-2.69019e-05
-3.54414e-05
-2.95437e-05
-3.51882e-05
-3.22135e-05
-3.48559e-05
-3.4915e-05
-3.43721e-05
-3.77013e-05
-3.37295e-05
-4.06065e-05
-3.29842e-05
-4.3594e-05
-3.22017e-05
-4.65717e-05
-3.14204e-05
-4.94432e-05
-3.06447e-05
-5.21143e-05
-2.98245e-05
-2.88322e-05
-5.44641e-05
-1.65318e-06
-3.07059e-05
-3.47524e-06
-3.50028e-05
-5.29351e-06
-3.49275e-05
-7.12528e-06
-3.4872e-05
-8.97881e-06
-3.48012e-05
-1.08619e-05
-3.47139e-05
-1.27812e-05
-3.46068e-05
-1.47415e-05
-3.44751e-05
-1.67441e-05
-3.43112e-05
-1.87869e-05
-3.41044e-05
-2.08721e-05
-3.38456e-05
-2.30154e-05
-3.35421e-05
-2.52349e-05
-3.3222e-05
-2.75159e-05
-3.29073e-05
-2.97981e-05
-3.25739e-05
-3.20158e-05
-3.21547e-05
-3.41514e-05
-3.15939e-05
-3.62377e-05
-3.08979e-05
-3.83103e-05
-3.01291e-05
-4.03719e-05
-2.93589e-05
-4.23979e-05
-2.86188e-05
-4.43496e-05
-2.78729e-05
-2.70247e-05
-4.61573e-05
-1.62701e-06
-2.90789e-05
-3.39356e-06
-3.32365e-05
-5.14842e-06
-3.31728e-05
-6.90822e-06
-3.31122e-05
-8.67837e-06
-3.3031e-05
-1.04634e-05
-3.29289e-05
-1.2267e-05
-3.28033e-05
-1.40916e-05
-3.26506e-05
-1.59372e-05
-3.24657e-05
-1.78e-05
-3.22417e-05
-1.96751e-05
-3.19705e-05
-2.1567e-05
-3.16502e-05
-2.34936e-05
-3.12955e-05
-2.54682e-05
-3.09328e-05
-2.74693e-05
-3.05729e-05
-2.94381e-05
-3.01859e-05
-3.1317e-05
-2.97151e-05
-3.30888e-05
-2.9126e-05
-3.47775e-05
-2.84404e-05
-3.64167e-05
-2.77198e-05
-3.80245e-05
-2.70113e-05
-3.95939e-05
-2.63035e-05
-2.55334e-05
-4.10852e-05
-1.56019e-06
-2.75188e-05
-3.23995e-06
-3.15568e-05
-4.90506e-06
-3.15076e-05
-6.57039e-06
-3.14468e-05
-8.23906e-06
-3.13623e-05
-9.91342e-06
-3.12546e-05
-1.15953e-05
-3.11216e-05
-1.32856e-05
-3.09604e-05
-1.49839e-05
-3.07675e-05
-1.66871e-05
-3.05386e-05
-1.83895e-05
-3.02682e-05
-2.00879e-05
-2.99518e-05
-2.17899e-05
-2.95935e-05
-2.35114e-05
-2.92112e-05
-2.52582e-05
-2.88262e-05
-2.7006e-05
-2.84381e-05
-2.87086e-05
-2.80124e-05
-3.03285e-05
-2.7506e-05
-3.18597e-05
-2.69091e-05
-3.33206e-05
-2.6259e-05
-3.47309e-05
-2.5601e-05
-3.60932e-05
-2.49412e-05
-2.42408e-05
-3.73858e-05
-1.46627e-06
-2.60527e-05
-3.04101e-06
-2.99822e-05
-4.60036e-06
-2.99482e-05
-6.15806e-06
-2.9889e-05
-7.71517e-06
-2.98051e-05
-9.27293e-06
-2.96967e-05
-1.08322e-05
-2.95623e-05
-1.2393e-05
-2.93997e-05
-1.39543e-05
-2.92063e-05
-1.55137e-05
-2.89793e-05
-1.70664e-05
-2.87154e-05
-1.86076e-05
-2.84105e-05
-2.01372e-05
-2.80639e-05
-2.1664e-05
-2.76843e-05
-2.3199e-05
-2.72913e-05
-2.47374e-05
-2.68995e-05
-2.62526e-05
-2.64971e-05
-2.7712e-05
-2.60465e-05
-2.91017e-05
-2.55194e-05
-3.04313e-05
-2.49294e-05
-3.17151e-05
-2.43173e-05
-3.29524e-05
-2.37038e-05
-2.30666e-05
-3.41264e-05
-1.35757e-06
-2.46952e-05
-2.81882e-06
-2.85211e-05
-4.26456e-06
-2.85026e-05
-5.70849e-06
-2.84451e-05
-7.15036e-06
-2.83632e-05
-8.59082e-06
-2.82561e-05
-1.00301e-05
-2.81231e-05
-1.14675e-05
-2.79624e-05
-1.29016e-05
-2.77722e-05
-1.43304e-05
-2.75506e-05
-1.575e-05
-2.72957e-05
-1.71555e-05
-2.70049e-05
-1.85434e-05
-2.66758e-05
-1.99171e-05
-2.63105e-05
-2.12869e-05
-2.59215e-05
-2.26581e-05
-2.55283e-05
-2.40172e-05
-2.51379e-05
-2.53354e-05
-2.47281e-05
-2.65923e-05
-2.42625e-05
-2.77912e-05
-2.37304e-05
-2.89486e-05
-2.31599e-05
-3.00706e-05
-2.25818e-05
-2.19905e-05
-3.11466e-05
-1.24437e-06
-2.34509e-05
-2.58982e-06
-2.71757e-05
-3.92068e-06
-2.71718e-05
-5.25034e-06
-2.71154e-05
-6.57817e-06
-2.70353e-05
-7.90424e-06
-2.69301e-05
-9.2281e-06
-2.67994e-05
-1.05487e-05
-2.6642e-05
-1.18646e-05
-2.64565e-05
-1.31737e-05
-2.62416e-05
-1.44731e-05
-2.59963e-05
-1.57585e-05
-2.57194e-05
-1.70254e-05
-2.54089e-05
-1.82725e-05
-2.50633e-05
-1.95064e-05
-2.46876e-05
-2.07371e-05
-2.42975e-05
-2.19644e-05
-2.39105e-05
-2.31687e-05
-2.35237e-05
-2.43246e-05
-2.31064e-05
-2.54241e-05
-2.2631e-05
-2.64785e-05
-2.21056e-05
-2.74995e-05
-2.15609e-05
-2.10053e-05
-2.84847e-05
-1.13335e-06
-2.23176e-05
-2.36509e-06
-2.59441e-05
-3.58444e-06
-2.59524e-05
-4.80325e-06
-2.58964e-05
-6.02119e-06
-2.58173e-05
-7.2375e-06
-2.57139e-05
-8.45137e-06
-2.55857e-05
-9.66161e-06
-2.54319e-05
-1.08667e-05
-2.52515e-05
-1.20647e-05
-2.50437e-05
-1.32533e-05
-2.48078e-05
-1.44294e-05
-2.45433e-05
-1.55891e-05
-2.42493e-05
-1.67288e-05
-2.39236e-05
-1.78498e-05
-2.35666e-05
-1.89603e-05
-2.31869e-05
-2.00674e-05
-2.28033e-05
-2.11637e-05
-2.24272e-05
-2.22274e-05
-2.20427e-05
-2.32421e-05
-2.16163e-05
-2.42113e-05
-2.11365e-05
-2.51474e-05
-2.06249e-05
-2.00995e-05
-2.60533e-05
-1.02833e-06
-2.12894e-05
-2.15113e-06
-2.48215e-05
-3.26391e-06
-2.48396e-05
-4.37687e-06
-2.47835e-05
-5.48967e-06
-2.47046e-05
-6.60112e-06
-2.46025e-05
-7.71022e-06
-2.44766e-05
-8.81584e-06
-2.43263e-05
-9.91642e-06
-2.4151e-05
-1.10102e-05
-2.395e-05
-1.20951e-05
-2.37229e-05
-1.3169e-05
-2.34695e-05
-1.42289e-05
-2.31894e-05
-1.52712e-05
-2.28814e-05
-1.62942e-05
-2.25436e-05
-1.73019e-05
-2.21791e-05
-1.83027e-05
-2.18023e-05
-1.92983e-05
-2.14316e-05
-2.02743e-05
-2.10667e-05
-2.12116e-05
-2.06792e-05
-2.21053e-05
-2.02429e-05
-2.29654e-05
-1.97648e-05
-1.92663e-05
-2.37988e-05
-9.29916e-07
-2.03595e-05
-1.94962e-06
-2.38019e-05
-2.96077e-06
-2.38286e-05
-3.97287e-06
-2.37715e-05
-4.98498e-06
-2.36925e-05
-5.99614e-06
-2.35914e-05
-7.00525e-06
-2.34676e-05
-8.01122e-06
-2.33205e-05
-9.01261e-06
-2.31498e-05
-1.00078e-05
-2.2955e-05
-1.0995e-05
-2.27358e-05
-1.19726e-05
-2.2492e-05
-1.29384e-05
-2.22237e-05
-1.38898e-05
-2.19301e-05
-1.48237e-05
-2.16096e-05
-1.57407e-05
-2.1262e-05
-1.66471e-05
-2.08959e-05
-1.75487e-05
-2.053e-05
-1.84396e-05
-2.01759e-05
-1.93024e-05
-1.98165e-05
-2.01261e-05
-1.94192e-05
-2.09161e-05
-1.89748e-05
-1.85013e-05
-2.16812e-05
-8.3838e-07
-1.95213e-05
-1.76066e-06
-2.28797e-05
-2.67486e-06
-2.29145e-05
-3.5906e-06
-2.28558e-05
-4.50632e-06
-2.27768e-05
-5.42143e-06
-2.26763e-05
-6.33492e-06
-2.25542e-05
-7.24564e-06
-2.24099e-05
-8.15232e-06
-2.22432e-05
-9.05359e-06
-2.20538e-05
-9.94801e-06
-2.18414e-05
-1.08341e-05
-2.1606e-05
-1.17103e-05
-2.13476e-05
-1.25744e-05
-2.10661e-05
-1.34239e-05
-2.07602e-05
-1.4257e-05
-2.04288e-05
-1.50771e-05
-2.00758e-05
-1.58909e-05
-1.97163e-05
-1.66989e-05
-1.93681e-05
-1.74885e-05
-1.90271e-05
-1.82456e-05
-1.8662e-05
-1.89702e-05
-1.82501e-05
-1.78004e-05
-1.9671e-05
-7.56306e-07
-1.87651e-05
-1.58652e-06
-2.20497e-05
-2.40853e-06
-2.20926e-05
-3.2319e-06
-2.20325e-05
-4.05545e-06
-2.19533e-05
-4.87856e-06
-2.18533e-05
-5.70038e-06
-2.17325e-05
-6.51978e-06
-2.15906e-05
-7.33564e-06
-2.14274e-05
-8.14682e-06
-2.12426e-05
-8.95213e-06
-2.10362e-05
-9.75027e-06
-2.0808e-05
-1.05398e-05
-2.05582e-05
-1.13192e-05
-2.02869e-05
-1.2086e-05
-1.99934e-05
-1.28382e-05
-1.96766e-05
-1.35767e-05
-1.93373e-05
-1.43071e-05
-1.89859e-05
-1.5034e-05
-1.86414e-05
-1.57507e-05
-1.83104e-05
-1.64431e-05
-1.79697e-05
-1.71055e-05
-1.75874e-05
-1.71607e-05
-1.77451e-05
-6.85709e-07
-1.80794e-05
-1.429e-06
-2.13065e-05
-2.16335e-06
-2.13583e-05
-2.89845e-06
-2.12975e-05
-3.63404e-06
-2.12178e-05
-4.36924e-06
-2.11183e-05
-5.10327e-06
-2.09986e-05
-5.83509e-06
-2.08589e-05
-6.56366e-06
-2.06989e-05
-7.28797e-06
-2.05183e-05
-8.00703e-06
-2.03172e-05
-8.71973e-06
-2.00955e-05
-9.42482e-06
-1.98534e-05
-1.01209e-05
-1.9591e-05
-1.08061e-05
-1.93083e-05
-1.14783e-05
-1.90043e-05
-1.2137e-05
-1.86786e-05
-1.27863e-05
-1.83367e-05
-1.34328e-05
-1.7995e-05
-1.4076e-05
-1.76674e-05
-1.47039e-05
-1.73418e-05
-1.53066e-05
-1.69845e-05
-1.65796e-05
-1.58875e-05
-6.22198e-07
-1.74573e-05
-1.28285e-06
-2.0646e-05
-1.93319e-06
-2.0708e-05
-2.58435e-06
-2.06464e-05
-3.23623e-06
-2.05661e-05
-3.88793e-06
-2.04667e-05
-4.53845e-06
-2.03482e-05
-5.18677e-06
-2.02106e-05
-5.83188e-06
-2.00538e-05
-6.47281e-06
-1.98775e-05
-7.10869e-06
-1.96814e-05
-7.73854e-06
-1.94658e-05
-8.36132e-06
-1.92308e-05
-8.97584e-06
-1.89767e-05
-9.5807e-06
-1.87035e-05
-1.01741e-05
-1.84109e-05
-1.07546e-05
-1.8098e-05
-1.13245e-05
-1.77668e-05
-1.18911e-05
-1.74286e-05
-1.24588e-05
-1.70998e-05
-1.30205e-05
-1.67802e-05
-1.3564e-05
-1.64411e-05
-1.60559e-05
-1.40876e-05
-5.51707e-07
-1.69057e-05
-1.13194e-06
-2.00658e-05
-1.70164e-06
-2.01384e-05
-2.27332e-06
-2.00748e-05
-2.84605e-06
-1.99935e-05
-3.419e-06
-1.98939e-05
-3.99085e-06
-1.97765e-05
-4.56041e-06
-1.96412e-05
-5.12663e-06
-1.94877e-05
-5.68859e-06
-1.93156e-05
-6.24543e-06
-1.91247e-05
-6.79627e-06
-1.8915e-05
-7.34019e-06
-1.8687e-05
-7.87626e-06
-1.84407e-05
-8.40344e-06
-1.81764e-05
-8.92039e-06
-1.7894e-05
-9.4256e-06
-1.75928e-05
-9.9196e-06
-1.72729e-05
-1.04081e-05
-1.69402e-05
-1.0899e-05
-1.66091e-05
-1.13912e-05
-1.6288e-05
-1.18737e-05
-1.59588e-05
-1.55899e-05
-1.23399e-05
-4.51511e-07
-1.64542e-05
-9.50281e-07
-1.95671e-05
-1.44471e-06
-1.96441e-05
-1.94227e-06
-1.95774e-05
-2.44125e-06
-1.94947e-05
-2.94054e-06
-1.93948e-05
-3.43866e-06
-1.92786e-05
-3.93434e-06
-1.91458e-05
-4.42655e-06
-1.89957e-05
-4.91444e-06
-1.88278e-05
-5.39719e-06
-1.86419e-05
-5.87401e-06
-1.84382e-05
-6.34408e-06
-1.82169e-05
-6.80661e-06
-1.79782e-05
-7.26081e-06
-1.77222e-05
-7.7058e-06
-1.74489e-05
-8.14037e-06
-1.71582e-05
-8.5639e-06
-1.68495e-05
-8.97953e-06
-1.65247e-05
-9.39533e-06
-1.61934e-05
-9.81606e-06
-1.58672e-05
-1.02348e-05
-1.55402e-05
-1.5183e-05