/*--------------------------------*- C++ -*----------------------------------*\
| =========                 |                                                 |
| \\      /  F ield         | OpenFOAM: The Open Source CFD Toolbox           |
|  \\    /   O peration     | Version:  2206                                  |
|   \\  /    A nd           | Website:  www.openfoam.com                      |
|    \\/     M anipulation  |                                                 |
\*---------------------------------------------------------------------------*/
FoamFile
{
    version     2.0;
    format      ascii;
    arch        "LSB;label=32;scalar=64";
    class       volVectorField;
    location    "0.325";
    object      U;
}
// * * * * * * * * * * * * * * * * * * * * * * * * * * * * * * * * * * * * * //

dimensions      [0 1 -1 0 0 0 0];

internalField   nonuniform List<vector> 
2268
(
(-6.17651e-05 -0.0021564 0)
(0.0107459 -0.007415 0)
(0.0295687 -0.00884172 0)
(0.0484952 -0.00829745 0)
(0.0653465 -0.00723994 0)
(0.0798933 -0.00630276 0)
(0.0926443 -0.00560259 0)
(0.104103 -0.00505159 0)
(0.114474 -0.00453021 0)
(0.123712 -0.00394694 0)
(0.131612 -0.00324385 0)
(0.137894 -0.00234675 0)
(0.141991 -0.00116581 0)
(0.143856 0.000737131 0)
(0.141429 0.00352157 0)
(0.133771 0.0070666 0)
(0.12009 0.0110074 0)
(0.0999177 0.0145654 0)
(0.0739554 0.0164142 0)
(0.0450216 0.0147233 0)
(0.0185156 0.00816985 0)
(0.000867622 -0.00199238 0)
(-0.00269729 -0.0104955 0)
(-0.000243506 -0.00650078 0)
(0.0105871 -0.0224848 0)
(0.0297173 -0.0269368 0)
(0.0490382 -0.0253862 0)
(0.0663021 -0.0222 0)
(0.0812156 -0.0193349 0)
(0.094264 -0.0171926 0)
(0.105977 -0.0155267 0)
(0.11661 -0.0139741 0)
(0.126159 -0.012256 0)
(0.134477 -0.0101965 0)
(0.141317 -0.00765578 0)
(0.146598 -0.00448785 0)
(0.149635 -0.000379216 0)
(0.151548 0.00489998 0)
(0.152041 0.011473 0)
(0.15019 0.0192957 0)
(0.144286 0.0278443 0)
(0.131861 0.0356502 0)
(0.110798 0.0398816 0)
(0.0812692 0.0369276 0)
(0.0472147 0.0249266 0)
(0.0149496 0.00899819 0)
(-0.000586311 -0.0105457 0)
(0.0100402 -0.0374834 0)
(0.02948 -0.0452587 0)
(0.0492995 -0.0428476 0)
(0.0671128 -0.0374963 0)
(0.082483 -0.0325968 0)
(0.0958532 -0.0289351 0)
(0.107809 -0.0261391 0)
(0.118694 -0.0235944 0)
(0.128572 -0.0208214 0)
(0.137325 -0.0175244 0)
(0.144737 -0.0135317 0)
(0.150518 -0.00870879 0)
(0.154344 -0.00305764 0)
(0.1559 0.00361033 0)
(0.155086 0.0116579 0)
(0.15205 0.0214734 0)
(0.147049 0.0332305 0)
(0.139596 0.0463002 0)
(0.127273 0.0584122 0)
(0.105843 0.0651603 0)
(0.0717407 0.0616234 0)
(0.026502 0.0488305 0)
(-0.00106878 -0.014103 0)
(0.00928466 -0.0524646 0)
(0.029144 -0.0640468 0)
(0.0496772 -0.0609899 0)
(0.0682937 -0.0534134 0)
(0.084338 -0.0463117 0)
(0.0981939 -0.040999 0)
(0.110525 -0.0370338 0)
(0.121792 -0.0335444 0)
(0.132148 -0.0298203 0)
(0.14152 -0.0254227 0)
(0.149706 -0.0200981 0)
(0.156434 -0.0136698 0)
(0.161408 -0.0059588 0)
(0.164266 0.00322234 0)
(0.164539 0.0140012 0)
(0.161735 0.0264501 0)
(0.155505 0.0406348 0)
(0.145784 0.0566413 0)
(0.132199 0.074156 0)
(0.112308 0.0907928 0)
(0.0802212 0.100678 0)
(0.0314036 0.098616 0)
(-0.00164248 -0.0170731 0)
(0.0083751 -0.067478 0)
(0.0287379 -0.083476 0)
(0.0501335 -0.0800507 0)
(0.0697264 -0.0701905 0)
(0.0866049 -0.0606895 0)
(0.101088 -0.053562 0)
(0.113929 -0.0483716 0)
(0.125717 -0.0439859 0)
(0.136708 -0.0394284 0)
(0.146889 -0.0340771 0)
(0.156086 -0.0275739 0)
(0.164038 -0.0196821 0)
(0.17043 -0.0101885 0)
(0.174889 0.00110752 0)
(0.176974 0.0144895 0)
(0.176048 0.0301867 0)
(0.171196 0.0482781 0)
(0.161314 0.0687063 0)
(0.145372 0.0915485 0)
(0.122461 0.116684 0)
(0.0885924 0.139878 0)
(0.0372246 0.150681 0)
(-0.00231329 -0.0193779 0)
(0.00732461 -0.0824812 0)
(0.0283039 -0.103603 0)
(0.0506686 -0.100124 0)
(0.0713216 -0.087939 0)
(0.0891124 -0.0758647 0)
(0.104322 -0.0667867 0)
(0.117796 -0.0603451 0)
(0.13025 -0.0551471 0)
(0.142043 -0.0499189 0)
(0.153227 -0.0438224 0)
(0.163665 -0.036372 0)
(0.173118 -0.0272575 0)
(0.181284 -0.0162085 0)
(0.187809 -0.00291476 0)
(0.192236 0.0130035 0)
(0.193926 0.0319746 0)
(0.191926 0.0544566 0)
(0.184665 0.0808037 0)
(0.169777 0.1113 0)
(0.144426 0.146701 0)
(0.104998 0.187753 0)
(0.0410158 0.222871 0)
(-0.00312239 -0.02081 0)
(0.00626422 -0.0974205 0)
(0.0279652 -0.124403 0)
(0.0513103 -0.121122 0)
(0.072975 -0.106542 0)
(0.0916493 -0.0917319 0)
(0.107629 -0.0805921 0)
(0.12185 -0.0728946 0)
(0.135125 -0.0669836 0)
(0.147893 -0.0612639 0)
(0.160271 -0.0546585 0)
(0.172171 -0.0465425 0)
(0.183402 -0.0365306 0)
(0.193713 -0.0243005 0)
(0.202804 -0.00947162 0)
(0.210266 0.00842878 0)
(0.215539 0.0301858 0)
(0.217741 0.056695 0)
(0.21545 0.089084 0)
(0.205955 0.128105 0)
(0.185743 0.175091 0)
(0.146541 0.228021 0)
(0.0746078 0.2901 0)
(-0.0039213 -0.0213837 0)
(0.00559352 -0.112457 0)
(0.0279932 -0.145946 0)
(0.0521463 -0.142979 0)
(0.0745994 -0.125905 0)
(0.0940138 -0.108224 0)
(0.110753 -0.094934 0)
(0.125824 -0.0859675 0)
(0.140088 -0.0794078 0)
(0.154019 -0.0733249 0)
(0.167776 -0.0663883 0)
(0.181328 -0.0578247 0)
(0.194553 -0.047174 0)
(0.207294 -0.0340671 0)
(0.219367 -0.018059 0)
(0.230524 0.00140137 0)
(0.24038 0.0253199 0)
(0.248385 0.0551176 0)
(0.252985 0.0933575 0)
(0.252315 0.143045 0)
(0.23702 0.211655 0)
(0.21113 0.307047 0)
(0.0640188 0.462112 0)
(-1.14229 0.0923613 0)
(-1.62011 -0.0864729 0)
(-1.74748 -0.152913 0)
(-1.57061 -0.12633 0)
(-1.42255 -0.10001 0)
(-1.24097 -0.0812196 0)
(-0.907527 -0.0753421 0)
(-0.289109 -0.118356 0)
(0.430446 -0.141756 0)
(0.94013 -0.090065 0)
(1.2968 -0.0476178 0)
(1.49055 -0.0221171 0)
(1.55493 0.0106067 0)
(1.42164 0.0626157 0)
(1.03237 0.130587 0)
(0.296943 0.154573 0)
(-0.74391 0.0481168 0)
(-1.124 0.0681472 0)
(-0.221583 -0.307606 0)
(-1.9727 0.560903 0)
(-2.17301 0.194062 0)
(-1.74635 0.0924076 0)
(-1.65777 -0.0267126 0)
(-1.4089 -0.0609479 0)
(-0.91675 -0.120612 0)
(-0.0967522 -0.222085 0)
(0.848241 -0.410275 0)
(1.26494 -0.345854 0)
(1.54872 -0.215245 0)
(1.76437 -0.11992 0)
(1.89249 -0.0603018 0)
(1.93033 0.00133825 0)
(1.91983 0.0973047 0)
(1.83237 0.243344 0)
(1.35304 0.393875 0)
(0.4349 0.311112 0)
(-0.925212 0.0262585 0)
(0.403265 -0.572285 0)
(-1.75404 1.12702 0)
(0.407448 0.175024 0)
(-0.345479 -0.167318 0)
(-0.316027 -0.277431 0)
(0.0363137 -0.295507 0)
(0.63745 -0.340988 0)
(1.15404 -0.486611 0)
(1.43389 -0.540981 0)
(1.57032 -0.4145 0)
(1.72197 -0.252924 0)
(1.87119 -0.140081 0)
(1.96981 -0.0662565 0)
(2.00743 0.00803164 0)
(1.98658 0.121839 0)
(1.95465 0.308252 0)
(1.81234 0.556612 0)
(1.36969 0.595457 0)
(-0.131117 0.416839 0)
(0.553276 -0.571545 0)
(-1.33907 1.19361 0)
(1.15672 0.129562 0)
(0.985725 -0.0815882 0)
(0.839699 -0.291109 0)
(1.06761 -0.363287 0)
(1.32593 -0.440363 0)
(1.51512 -0.54608 0)
(1.59587 -0.563726 0)
(1.67042 -0.446419 0)
(1.79289 -0.294465 0)
(1.92154 -0.176413 0)
(2.01254 -0.0912885 0)
(2.05705 -0.00305964 0)
(2.05317 0.128738 0)
(1.99963 0.327858 0)
(1.91919 0.618889 0)
(1.81619 0.79944 0)
(0.753049 0.650773 0)
(0.700436 -0.409686 0)
(-0.856266 1.01035 0)
(1.14512 0.0641367 0)
(1.364 -0.160984 0)
(1.29529 -0.315914 0)
(1.3553 -0.391861 0)
(1.49246 -0.488886 0)
(1.59913 -0.575738 0)
(1.66503 -0.586319 0)
(1.74078 -0.485635 0)
(1.84344 -0.337194 0)
(1.94435 -0.207703 0)
(2.01737 -0.110562 0)
(2.06317 -0.00669822 0)
(2.07985 0.148415 0)
(2.05548 0.37175 0)
(1.95477 0.661532 0)
(1.95366 0.932311 0)
(1.30114 0.862515 0)
(0.907436 -0.0937167 0)
(-0.308063 0.774968 0)
(1.37985 -0.215817 0)
(1.36174 -0.264641 0)
(1.3203 -0.33666 0)
(1.42662 -0.431068 0)
(1.55869 -0.529295 0)
(1.65088 -0.600192 0)
(1.70984 -0.607077 0)
(1.76716 -0.516775 0)
(1.82414 -0.373069 0)
(1.87338 -0.243798 0)
(1.90405 -0.147832 0)
(1.93317 -0.0526202 0)
(1.97168 0.0765332 0)
(2.01233 0.304684 0)
(1.95681 0.638095 0)
(1.95247 0.999761 0)
(1.53524 1.05822 0)
(1.02597 0.238034 0)
(0.813718 0.317802 0)
(1.14857 -0.0917285 0)
(1.23683 -0.247162 0)
(1.36413 -0.373892 0)
(1.50353 -0.47973 0)
(1.60706 -0.564611 0)
(1.66884 -0.619775 0)
(1.70766 -0.624511 0)
(1.71796 -0.537508 0)
(1.69074 -0.394263 0)
(1.64477 -0.260983 0)
(1.56756 -0.148572 0)
(1.49527 -0.0377222 0)
(1.55262 0.110339 0)
(1.74989 0.315696 0)
(1.84182 0.611755 0)
(1.87895 1.02691 0)
(1.57395 1.23446 0)
(1.0408 0.597091 0)
(0.617859 -0.113985 0)
(1.07911 -0.219304 0)
(1.31207 -0.326533 0)
(1.45502 -0.429347 0)
(1.54573 -0.512687 0)
(1.60655 -0.585629 0)
(1.64552 -0.633145 0)
(1.65005 -0.630592 0)
(1.57528 -0.522369 0)
(1.42512 -0.342448 0)
(1.21346 -0.164211 0)
(0.948543 -0.0452575 0)
(0.66049 -0.00596955 0)
(0.928286 0.0712534 0)
(1.28991 0.291797 0)
(1.56654 0.607724 0)
(1.74013 1.04524 0)
(1.52035 1.38904 0)
(1.0141 0.978505 0)
(-0.00449236 -0.0219816 0)
(0.00602804 -0.137115 0)
(0.0291815 -0.181327 0)
(0.0540336 -0.178634 0)
(0.0771114 -0.157531 0)
(0.0972911 -0.135556 0)
(0.115117 -0.119276 0)
(0.131652 -0.10873 0)
(0.147724 -0.101551 0)
(0.163764 -0.0953171 0)
(0.179936 -0.0883558 0)
(0.196273 -0.0797215 0)
(0.212778 -0.0689004 0)
(0.229489 -0.0555254 0)
(0.24649 -0.0391767 0)
(0.26405 -0.0192336 0)
(0.282394 0.00517779 0)
(0.302799 0.0352067 0)
(0.325241 0.0729967 0)
(0.357116 0.120031 0)
(0.3898 0.186128 0)
(0.475638 0.255648 0)
(0.501958 0.435655 0)
(-0.00419875 -0.0235036 0)
(0.00840919 -0.172227 0)
(0.0322068 -0.231016 0)
(0.0574402 -0.228146 0)
(0.0806142 -0.20158 0)
(0.101235 -0.174496 0)
(0.120289 -0.155198 0)
(0.138869 -0.143488 0)
(0.1576 -0.136266 0)
(0.176713 -0.130517 0)
(0.196278 -0.124258 0)
(0.216358 -0.116469 0)
(0.237083 -0.106713 0)
(0.258682 -0.0948072 0)
(0.281517 -0.0806129 0)
(0.306131 -0.0639526 0)
(0.333284 -0.0445679 0)
(0.364088 -0.0223236 0)
(0.399816 0.00336888 0)
(0.442967 0.031278 0)
(0.49456 0.0658144 0)
(0.556664 0.0852347 0)
(0.640897 0.150153 0)
(-0.00281004 -0.028826 0)
(0.0120832 -0.210114 0)
(0.0367411 -0.281925 0)
(0.0619957 -0.277234 0)
(0.0844231 -0.245246 0)
(0.104782 -0.214748 0)
(0.124708 -0.194626 0)
(0.145195 -0.183548 0)
(0.166451 -0.177422 0)
(0.188347 -0.17281 0)
(0.210773 -0.167714 0)
(0.233758 -0.161279 0)
(0.257461 -0.153286 0)
(0.282146 -0.143783 0)
(0.30816 -0.132889 0)
(0.335918 -0.120737 0)
(0.365929 -0.107499 0)
(0.39872 -0.0934681 0)
(0.435107 -0.0790434 0)
(0.47554 -0.0653182 0)
(0.522361 -0.052521 0)
(0.57333 -0.0455465 0)
(0.638181 -0.0347664 0)
(-0.000481008 -0.0392009 0)
(0.0153944 -0.250631 0)
(0.0417669 -0.334312 0)
(0.067106 -0.325231 0)
(0.0885903 -0.287288 0)
(0.108716 -0.255249 0)
(0.129709 -0.236648 0)
(0.152149 -0.227749 0)
(0.175669 -0.223338 0)
(0.199796 -0.21991 0)
(0.224311 -0.21581 0)
(0.249242 -0.210544 0)
(0.274775 -0.204163 0)
(0.30117 -0.196875 0)
(0.328727 -0.188905 0)
(0.357765 -0.180466 0)
(0.388627 -0.171787 0)
(0.421655 -0.163162 0)
(0.457223 -0.154953 0)
(0.49559 -0.147818 0)
(0.53724 -0.142166 0)
(0.581283 -0.140428 0)
(0.629143 -0.139175 0)
(0.00171747 -0.0571527 0)
(0.024451 -0.296444 0)
(0.0519115 -0.389458 0)
(0.0736354 -0.371972 0)
(0.0933075 -0.327488 0)
(0.113603 -0.296022 0)
(0.136202 -0.280921 0)
(0.160683 -0.274924 0)
(0.186066 -0.272049 0)
(0.211719 -0.26933 0)
(0.237502 -0.265766 0)
(0.263506 -0.261291 0)
(0.289942 -0.256148 0)
(0.317021 -0.250619 0)
(0.344985 -0.244938 0)
(0.374057 -0.23932 0)
(0.404429 -0.233977 0)
(0.43625 -0.229152 0)
(0.469642 -0.225218 0)
(0.504648 -0.222707 0)
(0.541487 -0.222203 0)
(0.579608 -0.224448 0)
(0.620139 -0.228842 0)
(0.00631466 -0.104672 0)
(0.0659988 -0.353379 0)
(0.0845921 -0.436573 0)
(0.0843867 -0.409863 0)
(0.097389 -0.366993 0)
(0.117644 -0.342428 0)
(0.141505 -0.333012 0)
(0.167074 -0.329834 0)
(0.19308 -0.327901 0)
(0.218935 -0.325535 0)
(0.244724 -0.322448 0)
(0.270678 -0.318854 0)
(0.296982 -0.315013 0)
(0.323635 -0.311209 0)
(0.351035 -0.307729 0)
(0.379198 -0.304693 0)
(0.408237 -0.3022 0)
(0.438195 -0.300367 0)
(0.469092 -0.299473 0)
(0.50089 -0.300043 0)
(0.533964 -0.302715 0)
(0.569363 -0.307991 0)
(0.60627 -0.316667 0)
(0.0390554 -0.202485 0)
(0.155449 -0.440005 0)
(0.140092 -0.43794 0)
(0.0876524 -0.413251 0)
(0.090137 -0.401588 0)
(0.109969 -0.3952 0)
(0.132318 -0.392035 0)
(0.155383 -0.390275 0)
(0.178286 -0.388206 0)
(0.201354 -0.385692 0)
(0.224278 -0.382813 0)
(0.247431 -0.379933 0)
(0.271275 -0.376867 0)
(0.295683 -0.37433 0)
(0.320864 -0.372243 0)
(0.347177 -0.370526 0)
(0.37457 -0.369027 0)
(0.403168 -0.368092 0)
(0.433125 -0.367681 0)
(0.464284 -0.368571 0)
(0.497632 -0.372843 0)
(0.541218 -0.385071 0)
(0.579693 -0.39011 0)
(0.0826041 -0.433732 0)
(0.207573 -0.58116 0)
(0.142995 -0.287169 0)
(0.0551463 -0.330764 0)
(0.0634927 -0.410119 0)
(0.0762537 -0.429668 0)
(0.0867659 -0.428096 0)
(0.0973836 -0.424376 0)
(0.105491 -0.420635 0)
(0.117058 -0.417833 0)
(0.130706 -0.413174 0)
(0.151423 -0.413546 0)
(0.168806 -0.408318 0)
(0.195275 -0.407428 0)
(0.219665 -0.404843 0)
(0.250044 -0.403165 0)
(0.282585 -0.401981 0)
(0.316867 -0.402239 0)
(0.35431 -0.403254 0)
(0.39556 -0.405516 0)
(0.438075 -0.419256 0)
(0.472789 -0.467045 0)
(0.514269 -0.391981 0)
(-0.0277403 -0.847303 0)
(-0.0707434 -0.474201 0)
(-0.0342786 -0.120021 0)
(0.0165337 -0.303037 0)
(0.0435 -0.408584 0)
(0.0541026 -0.419863 0)
(0.0633027 -0.4157 0)
(0.0779713 -0.407613 0)
(0.0945337 -0.408522 0)
(0.111662 -0.416591 0)
(0.130836 -0.41447 0)
(0.151302 -0.426391 0)
(0.173966 -0.427232 0)
(0.19934 -0.438023 0)
(0.225901 -0.446238 0)
(0.25443 -0.454196 0)
(0.286082 -0.463981 0)
(0.321341 -0.478053 0)
(0.360322 -0.494175 0)
(0.402193 -0.511117 0)
(0.446224 -0.5293 0)
(0.487457 -0.542843 0)
(0.51903 -0.546074 0)
(-0.0722621 -0.49055 0)
(-0.0956325 -0.343858 0)
(-0.0467971 -0.394976 0)
(0.0152172 -0.448933 0)
(0.0380327 -0.457861 0)
(0.0512653 -0.45835 0)
(0.0640569 -0.459157 0)
(0.0780196 -0.462449 0)
(0.0934703 -0.468373 0)
(0.110103 -0.474249 0)
(0.128055 -0.482841 0)
(0.147064 -0.492862 0)
(0.167126 -0.503373 0)
(0.188626 -0.513698 0)
(0.212004 -0.524852 0)
(0.238418 -0.537904 0)
(0.26938 -0.554131 0)
(0.305977 -0.573322 0)
(0.34569 -0.592977 0)
(0.384756 -0.608101 0)
(0.41766 -0.615579 0)
(0.4355 -0.59982 0)
(0.433044 -0.587493 0)
(-0.0300954 -0.409871 0)
(-0.0144184 -0.497083 0)
(0.0196387 -0.500874 0)
(0.0265944 -0.489919 0)
(0.0349397 -0.485159 0)
(0.0438285 -0.485733 0)
(0.0542266 -0.489528 0)
(0.0654431 -0.494719 0)
(0.0775945 -0.50097 0)
(0.0907669 -0.509099 0)
(0.104912 -0.518216 0)
(0.120044 -0.528313 0)
(0.136381 -0.539393 0)
(0.154667 -0.552124 0)
(0.176405 -0.568281 0)
(0.203667 -0.590201 0)
(0.237038 -0.617652 0)
(0.275267 -0.645224 0)
(0.310328 -0.662989 0)
(0.338657 -0.661139 0)
(0.346814 -0.635111 0)
(0.33282 -0.559844 0)
(0.307893 -0.58076 0)
(0.000157165 -0.405202 0)
(0.00962706 -0.505364 0)
(0.013172 -0.501739 0)
(0.0152548 -0.495643 0)
(0.0214537 -0.498006 0)
(0.0282314 -0.501956 0)
(0.0354076 -0.506855 0)
(0.0432959 -0.513345 0)
(0.0517441 -0.521537 0)
(0.0609739 -0.531116 0)
(0.0712127 -0.542201 0)
(0.0826161 -0.555076 0)
(0.0957131 -0.570324 0)
(0.111848 -0.590297 0)
(0.13304 -0.618335 0)
(0.160732 -0.654783 0)
(0.192953 -0.692801 0)
(0.225064 -0.718388 0)
(0.246379 -0.717014 0)
(0.260373 -0.67909 0)
(0.24237 -0.606273 0)
(0.231871 -0.480359 0)
(0.223963 -0.649835 0)
(0.0046424 -0.412812 0)
(0.00549016 -0.504251 0)
(0.00353187 -0.50408 0)
(0.00624604 -0.505173 0)
(0.00916991 -0.508159 0)
(0.0125796 -0.512684 0)
(0.0162205 -0.518603 0)
(0.0203459 -0.526283 0)
(0.0249859 -0.535803 0)
(0.0302477 -0.547345 0)
(0.0363397 -0.560877 0)
(0.0435046 -0.576896 0)
(0.0524893 -0.597646 0)
(0.064912 -0.627043 0)
(0.0822809 -0.667544 0)
(0.103807 -0.713987 0)
(0.12525 -0.75153 0)
(0.141574 -0.761774 0)
(0.147123 -0.732947 0)
(0.151704 -0.663324 0)
(0.124385 -0.570218 0)
(0.172373 -0.465106 0)
(0.159707 -0.728425 0)
(0.00322199 -0.422112 0)
(0.00177259 -0.502568 0)
(0.000135769 -0.504576 0)
(-0.000539243 -0.507537 0)
(-0.00103495 -0.511092 0)
(-0.00119112 -0.516111 0)
(-0.00113552 -0.522756 0)
(-0.000849958 -0.531227 0)
(-0.00034957 -0.541721 0)
(0.0002821 -0.554271 0)
(0.00113751 -0.5691 0)
(0.00248572 -0.587569 0)
(0.00503169 -0.613116 0)
(0.00978839 -0.649957 0)
(0.0166826 -0.697494 0)
(0.0232718 -0.744977 0)
(0.0264522 -0.774116 0)
(0.025236 -0.769444 0)
(0.0214173 -0.727421 0)
(0.0222636 -0.658318 0)
(0.0128111 -0.591444 0)
(0.0969022 -0.552796 0)
(0.0534258 -0.719895 0)
(0.00139204 -0.424283 0)
(-0.00147993 -0.497334 0)
(-0.00450041 -0.500244 0)
(-0.00778522 -0.503159 0)
(-0.0109596 -0.507082 0)
(-0.0141877 -0.512383 0)
(-0.0175187 -0.519145 0)
(-0.0210787 -0.527568 0)
(-0.0249929 -0.537781 0)
(-0.0294264 -0.54989 0)
(-0.0344613 -0.564414 0)
(-0.0399722 -0.583326 0)
(-0.0457477 -0.610309 0)
(-0.0521077 -0.648369 0)
(-0.0605031 -0.694504 0)
(-0.0726849 -0.736563 0)
(-0.0882316 -0.758554 0)
(-0.104189 -0.751378 0)
(-0.116911 -0.71864 0)
(-0.122444 -0.674902 0)
(-0.106209 -0.638557 0)
(-0.068171 -0.6244 0)
(-0.118341 -0.64405 0)
(2.16147e-05 -0.421351 0)
(-0.00462676 -0.489671 0)
(-0.00956207 -0.491619 0)
(-0.0149475 -0.494168 0)
(-0.0204784 -0.497762 0)
(-0.0264166 -0.502466 0)
(-0.0328007 -0.508418 0)
(-0.0398351 -0.515689 0)
(-0.0477093 -0.524345 0)
(-0.0566741 -0.534512 0)
(-0.0669348 -0.546855 0)
(-0.0786709 -0.563153 0)
(-0.0924458 -0.586237 0)
(-0.109696 -0.618131 0)
(-0.132264 -0.656074 0)
(-0.160423 -0.690432 0)
(-0.191754 -0.709673 0)
(-0.222907 -0.708567 0)
(-0.249983 -0.690346 0)
(-0.26664 -0.662165 0)
(-0.27354 -0.630347 0)
(-0.289965 -0.598973 0)
(-0.331128 -0.566005 0)
(-0.00106687 -0.414782 0)
(-0.00752461 -0.477886 0)
(-0.0142037 -0.47909 0)
(-0.0214248 -0.481032 0)
(-0.0289195 -0.483791 0)
(-0.0369808 -0.487399 0)
(-0.0456875 -0.491913 0)
(-0.0552491 -0.49733 0)
(-0.0659024 -0.503606 0)
(-0.0779233 -0.51083 0)
(-0.0916003 -0.519532 0)
(-0.107348 -0.530791 0)
(-0.1261 -0.546171 0)
(-0.149616 -0.567134 0)
(-0.179732 -0.592732 0)
(-0.216581 -0.617379 0)
(-0.257995 -0.633216 0)
(-0.30072 -0.635339 0)
(-0.341164 -0.623571 0)
(-0.376092 -0.600651 0)
(-0.406575 -0.570446 0)
(-0.440814 -0.534046 0)
(-0.483499 -0.4879 0)
(-0.00200651 -0.404371 0)
(-0.00996141 -0.462958 0)
(-0.0180113 -0.463397 0)
(-0.0266106 -0.464615 0)
(-0.0355076 -0.466406 0)
(-0.0449696 -0.468757 0)
(-0.0551071 -0.471661 0)
(-0.0660974 -0.475042 0)
(-0.0781501 -0.478779 0)
(-0.0915009 -0.482875 0)
(-0.106435 -0.487638 0)
(-0.123351 -0.493523 0)
(-0.142959 -0.500957 0)
(-0.166572 -0.510587 0)
(-0.195864 -0.522741 0)
(-0.231613 -0.535546 0)
(-0.272757 -0.544661 0)
(-0.31679 -0.546027 0)
(-0.36026 -0.538202 0)
(-0.399766 -0.522003 0)
(-0.435623 -0.498973 0)
(-0.471651 -0.468657 0)
(-0.506449 -0.42882 0)
(-0.00270985 -0.390848 0)
(-0.0118109 -0.445645 0)
(-0.0208128 -0.44547 0)
(-0.0302678 -0.446022 0)
(-0.0399989 -0.446906 0)
(-0.0502105 -0.448098 0)
(-0.0610077 -0.449543 0)
(-0.0725189 -0.451139 0)
(-0.0848844 -0.452718 0)
(-0.0982569 -0.454196 0)
(-0.11284 -0.455758 0)
(-0.128895 -0.457651 0)
(-0.146712 -0.459705 0)
(-0.166788 -0.46158 0)
(-0.190078 -0.463473 0)
(-0.217629 -0.465619 0)
(-0.249609 -0.466979 0)
(-0.284726 -0.465405 0)
(-0.320393 -0.459294 0)
(-0.353773 -0.448721 0)
(-0.384337 -0.4348 0)
(-0.414707 -0.416654 0)
(-0.443841 -0.390567 0)
(-0.00324254 -0.375114 0)
(-0.0130751 -0.42683 0)
(-0.0225892 -0.426221 0)
(-0.032477 -0.426242 0)
(-0.0425726 -0.426393 0)
(-0.0530358 -0.426648 0)
(-0.0639396 -0.426946 0)
(-0.0753733 -0.427186 0)
(-0.0874138 -0.427198 0)
(-0.10013 -0.426837 0)
(-0.113633 -0.426206 0)
(-0.128097 -0.425607 0)
(-0.14362 -0.424977 0)
(-0.160126 -0.423585 0)
(-0.177669 -0.420772 0)
(-0.196784 -0.416737 0)
(-0.218171 -0.412059 0)
(-0.241794 -0.4067 0)
(-0.26632 -0.399985 0)
(-0.289923 -0.391436 0)
(-0.31229 -0.381192 0)
(-0.335026 -0.3691 0)
(-0.357165 -0.353059 0)
(-0.00361814 -0.358002 0)
(-0.013763 -0.407219 0)
(-0.0234342 -0.406384 0)
(-0.0334241 -0.406038 0)
(-0.0435295 -0.405671 0)
(-0.053888 -0.405258 0)
(-0.0645412 -0.404749 0)
(-0.0755491 -0.404061 0)
(-0.0869506 -0.403054 0)
(-0.0987605 -0.401563 0)
(-0.111011 -0.399577 0)
(-0.123823 -0.397397 0)
(-0.137322 -0.395297 0)
(-0.151393 -0.39291 0)
(-0.16567 -0.389269 0)
(-0.179983 -0.383738 0)
(-0.194664 -0.376644 0)
(-0.210117 -0.368796 0)
(-0.226084 -0.360691 0)
(-0.241786 -0.352384 0)
(-0.257157 -0.343758 0)
(-0.27315 -0.334318 0)
(-0.288923 -0.322637 0)
(-0.00380568 -0.340206 0)
(-0.013908 -0.387398 0)
(-0.0234781 -0.386533 0)
(-0.0333037 -0.385978 0)
(-0.0431702 -0.385295 0)
(-0.0531882 -0.384466 0)
(-0.0633813 -0.383451 0)
(-0.0737851 -0.382189 0)
(-0.0844203 -0.380582 0)
(-0.095279 -0.378488 0)
(-0.106341 -0.375817 0)
(-0.117652 -0.372717 0)
(-0.129348 -0.36956 0)
(-0.141488 -0.366493 0)
(-0.153832 -0.362991 0)
(-0.165958 -0.358147 0)
(-0.177654 -0.351499 0)
(-0.189026 -0.343457 0)
(-0.20016 -0.334913 0)
(-0.21099 -0.326587 0)
(-0.221785 -0.318637 0)
(-0.233188 -0.310527 0)
(-0.244574 -0.301044 0)
(-0.00380607 -0.322372 0)
(-0.0136069 -0.367918 0)
(-0.0228895 -0.367153 0)
(-0.0323437 -0.36651 0)
(-0.0418028 -0.365666 0)
(-0.0513374 -0.364615 0)
(-0.0609614 -0.363324 0)
(-0.0706937 -0.361749 0)
(-0.0805444 -0.359825 0)
(-0.0905036 -0.357459 0)
(-0.100537 -0.354548 0)
(-0.110628 -0.351101 0)
(-0.120846 -0.34735 0)
(-0.131314 -0.34362 0)
(-0.142038 -0.339919 0)
(-0.152783 -0.335711 0)
(-0.163197 -0.330274 0)
(-0.173045 -0.323348 0)
(-0.18227 -0.315394 0)
(-0.19099 -0.307215 0)
(-0.199596 -0.299307 0)
(-0.208568 -0.291476 0)
(-0.217509 -0.282918 0)
(-0.00367161 -0.305066 0)
(-0.0129892 -0.349241 0)
(-0.0218454 -0.348629 0)
(-0.0307923 -0.347969 0)
(-0.0397311 -0.347064 0)
(-0.0486993 -0.345917 0)
(-0.0577022 -0.344502 0)
(-0.0667502 -0.342785 0)
(-0.0758453 -0.340721 0)
(-0.0849797 -0.338255 0)
(-0.0941269 -0.335313 0)
(-0.103253 -0.331848 0)
(-0.112361 -0.327943 0)
(-0.121526 -0.323847 0)
(-0.130838 -0.319781 0)
(-0.140269 -0.31563 0)
(-0.149617 -0.3109 0)
(-0.158605 -0.305116 0)
(-0.167041 -0.298296 0)
(-0.174936 -0.290952 0)
(-0.182559 -0.283587 0)
(-0.190258 -0.276205 0)
(-0.197849 -0.268317 0)
(-0.00346877 -0.288687 0)
(-0.0121802 -0.331661 0)
(-0.0205048 -0.331216 0)
(-0.0288751 -0.33057 0)
(-0.0372263 -0.329658 0)
(-0.0455845 -0.328484 0)
(-0.0539472 -0.327032 0)
(-0.0623205 -0.325272 0)
(-0.0707008 -0.323174 0)
(-0.0790799 -0.320702 0)
(-0.0874392 -0.317808 0)
(-0.0957488 -0.314445 0)
(-0.103986 -0.310618 0)
(-0.112171 -0.306469 0)
(-0.120376 -0.302234 0)
(-0.128645 -0.298019 0)
(-0.1369 -0.293577 0)
(-0.144945 -0.288448 0)
(-0.152592 -0.282407 0)
(-0.159802 -0.275738 0)
(-0.166747 -0.268925 0)
(-0.173674 -0.262124 0)
(-0.1805 -0.255011 0)
(-0.0032342 -0.273461 0)
(-0.0112828 -0.315305 0)
(-0.0190054 -0.315027 0)
(-0.0267712 -0.3144 0)
(-0.0345076 -0.313504 0)
(-0.0422433 -0.312338 0)
(-0.0499706 -0.31089 0)
(-0.0576915 -0.309139 0)
(-0.0654001 -0.307061 0)
(-0.073087 -0.304634 0)
(-0.0807374 -0.30183 0)
(-0.0883269 -0.298612 0)
(-0.0958266 -0.294957 0)
(-0.103228 -0.290915 0)
(-0.110574 -0.286671 0)
(-0.117932 -0.282437 0)
(-0.125299 -0.278205 0)
(-0.132544 -0.273628 0)
(-0.139471 -0.268313 0)
(-0.145996 -0.262265 0)
(-0.152244 -0.255886 0)
(-0.158453 -0.249483 0)
(-0.164646 -0.242909 0)
(-0.00297153 -0.259472 0)
(-0.0103649 -0.300199 0)
(-0.0174609 -0.300081 0)
(-0.0246182 -0.299464 0)
(-0.0317444 -0.298588 0)
(-0.0388674 -0.29744 0)
(-0.0459796 -0.296013 0)
(-0.0530778 -0.294292 0)
(-0.0601556 -0.29226 0)
(-0.0672037 -0.289901 0)
(-0.074209 -0.287199 0)
(-0.0811532 -0.284138 0)
(-0.0880098 -0.280688 0)
(-0.0947551 -0.276845 0)
(-0.101399 -0.272696 0)
(-0.108 -0.268449 0)
(-0.114614 -0.264264 0)
(-0.121191 -0.26001 0)
(-0.127559 -0.255295 0)
(-0.133572 -0.24988 0)
(-0.139277 -0.243972 0)
(-0.144891 -0.237932 0)
(-0.150517 -0.231782 0)
(-0.00268726 -0.246676 0)
(-0.0094643 -0.286308 0)
(-0.015953 -0.286333 0)
(-0.0225118 -0.285723 0)
(-0.0290514 -0.284862 0)
(-0.0355843 -0.283734 0)
(-0.0421078 -0.282333 0)
(-0.048615 -0.28065 0)
(-0.0550992 -0.278673 0)
(-0.0615514 -0.27639 0)
(-0.0679601 -0.273792 0)
(-0.0743117 -0.270874 0)
(-0.0805874 -0.267617 0)
(-0.0867622 -0.264 0)
(-0.0928224 -0.260041 0)
(-0.0987957 -0.255872 0)
(-0.104747 -0.251711 0)
(-0.110694 -0.247624 0)
(-0.116531 -0.243346 0)
(-0.12209 -0.238514 0)
(-0.127348 -0.233101 0)
(-0.132479 -0.227412 0)
(-0.137624 -0.221604 0)
(-0.00241228 -0.235001 0)
(-0.00859915 -0.273592 0)
(-0.0145233 -0.273736 0)
(-0.0205034 -0.273131 0)
(-0.0264809 -0.272277 0)
(-0.0324509 -0.271168 0)
(-0.0384116 -0.269795 0)
(-0.0443572 -0.268153 0)
(-0.0502803 -0.266233 0)
(-0.056172 -0.264028 0)
(-0.062022 -0.261531 0)
(-0.0678193 -0.25874 0)
(-0.0735511 -0.255649 0)
(-0.0791987 -0.25224 0)
(-0.0847411 -0.248495 0)
(-0.0901797 -0.244475 0)
(-0.0955608 -0.240364 0)
(-0.100936 -0.236346 0)
(-0.106263 -0.232337 0)
(-0.111395 -0.227982 0)
(-0.116254 -0.223055 0)
(-0.120965 -0.217723 0)
(-0.125678 -0.212215 0)
(-0.00217731 -0.224411 0)
(-0.00777493 -0.262022 0)
(-0.013174 -0.262264 0)
(-0.0186067 -0.261657 0)
(-0.0240408 -0.260805 0)
(-0.0294735 -0.259709 0)
(-0.0348961 -0.258362 0)
(-0.040306 -0.256759 0)
(-0.0456955 -0.254894 0)
(-0.0510562 -0.252761 0)
(-0.0563789 -0.250356 0)
(-0.0616546 -0.247679 0)
(-0.066874 -0.244727 0)
(-0.0720243 -0.241491 0)
(-0.0770868 -0.237949 0)
(-0.0820489 -0.234111 0)
(-0.0869322 -0.230097 0)
(-0.0917896 -0.226125 0)
(-0.0966268 -0.222269 0)
(-0.101339 -0.218275 0)
(-0.105824 -0.213801 0)
(-0.110151 -0.208834 0)
(-0.114465 -0.203602 0)
(-0.00198355 -0.214875 0)
(-0.00700441 -0.251554 0)
(-0.0118977 -0.251886 0)
(-0.0168178 -0.251262 0)
(-0.0217294 -0.25041 0)
(-0.0266461 -0.249323 0)
(-0.0315547 -0.247998 0)
(-0.036452 -0.246428 0)
(-0.0413314 -0.244609 0)
(-0.0461857 -0.242539 0)
(-0.0510071 -0.240215 0)
(-0.0557878 -0.237635 0)
(-0.06052 -0.234799 0)
(-0.0651945 -0.231704 0)
(-0.0697972 -0.228335 0)
(-0.0743118 -0.224679 0)
(-0.0787414 -0.2208 0)
(-0.0831251 -0.216885 0)
(-0.0874931 -0.21311 0)
(-0.0917887 -0.209361 0)
(-0.0959114 -0.205275 0)
(-0.0998838 -0.200667 0)
(-0.103825 -0.195698 0)
(-0.00180909 -0.206304 0)
(-0.00631499 -0.242112 0)
(-0.0107118 -0.242532 0)
(-0.0151406 -0.241888 0)
(-0.0195581 -0.241035 0)
(-0.023978 -0.239955 0)
(-0.0283946 -0.238646 0)
(-0.0328005 -0.237103 0)
(-0.0371909 -0.235325 0)
(-0.0415593 -0.233309 0)
(-0.0458996 -0.231054 0)
(-0.050205 -0.228557 0)
(-0.0544682 -0.225821 0)
(-0.0586818 -0.222845 0)
(-0.0628348 -0.21962 0)
(-0.0669125 -0.216131 0)
(-0.0709091 -0.2124 0)
(-0.0748475 -0.208565 0)
(-0.0787647 -0.204836 0)
(-0.0826451 -0.201237 0)
(-0.0864097 -0.197459 0)
(-0.0900447 -0.19319 0)
(-0.0936322 -0.188473 0)
(-0.00163992 -0.198562 0)
(-0.0057138 -0.233635 0)
(-0.00963415 -0.234143 0)
(-0.013582 -0.233489 0)
(-0.0175342 -0.232631 0)
(-0.0214791 -0.231555 0)
(-0.0254249 -0.230258 0)
(-0.0293602 -0.22874 0)
(-0.0332811 -0.226998 0)
(-0.0371819 -0.22503 0)
(-0.0410573 -0.222834 0)
(-0.0449017 -0.220411 0)
(-0.0487086 -0.217762 0)
(-0.0524714 -0.214889 0)
(-0.0561814 -0.211788 0)
(-0.0598261 -0.208446 0)
(-0.0633965 -0.204864 0)
(-0.0669029 -0.201126 0)
(-0.0703792 -0.197428 0)
(-0.0738413 -0.193897 0)
(-0.0772446 -0.190334 0)
(-0.0805527 -0.186366 0)
(-0.0838025 -0.181891 0)
(-0.00148364 -0.191525 0)
(-0.00515746 -0.226083 0)
(-0.00863413 -0.226692 0)
(-0.0121144 -0.226034 0)
(-0.015624 -0.225171 0)
(-0.0191193 -0.224099 0)
(-0.022617 -0.222814 0)
(-0.0261044 -0.221318 0)
(-0.0295772 -0.219609 0)
(-0.0330301 -0.217685 0)
(-0.0364582 -0.215543 0)
(-0.0398567 -0.213186 0)
(-0.04322 -0.210615 0)
(-0.0465426 -0.207832 0)
(-0.0498174 -0.204838 0)
(-0.0530348 -0.201626 0)
(-0.0561857 -0.198187 0)
(-0.059271 -0.194557 0)
(-0.0623148 -0.190888 0)
(-0.0653526 -0.187361 0)
(-0.0683809 -0.18391 0)
(-0.0713602 -0.180179 0)
(-0.0742803 -0.17593 0)
(-0.00132273 -0.185148 0)
(-0.00454371 -0.219398 0)
(-0.007622 -0.220129 0)
(-0.0106524 -0.21946 0)
(-0.0137418 -0.218591 0)
(-0.0168133 -0.21752 0)
(-0.019889 -0.21625 0)
(-0.0229537 -0.214779 0)
(-0.0260035 -0.213106 0)
(-0.0290326 -0.211227 0)
(-0.0320365 -0.209141 0)
(-0.0350105 -0.206848 0)
(-0.0379499 -0.204352 0)
(-0.0408498 -0.201655 0)
(-0.0437049 -0.198759 0)
(-0.0465085 -0.195662 0)
(-0.0492532 -0.192355 0)
(-0.051935 -0.188845 0)
(-0.054564 -0.185221 0)
(-0.057179 -0.181663 0)
(-0.059815 -0.178226 0)
(-0.0624511 -0.174648 0)
(-0.0650395 -0.170597 0)
(-0.00107136 -0.179579 0)
(-0.00372008 -0.213535 0)
(-0.00646578 -0.21437 0)
(-0.00906833 -0.213671 0)
(-0.011769 -0.212788 0)
(-0.0144426 -0.211715 0)
(-0.0171237 -0.210458 0)
(-0.0197916 -0.209016 0)
(-0.0224443 -0.207382 0)
(-0.0250758 -0.205553 0)
(-0.0276819 -0.203525 0)
(-0.0302582 -0.201301 0)
(-0.0328005 -0.198883 0)
(-0.0353045 -0.196273 0)
(-0.0377659 -0.193473 0)
(-0.0401801 -0.190483 0)
(-0.0425423 -0.187298 0)
(-0.0448475 -0.183914 0)
(-0.0470938 -0.180367 0)
(-0.0493081 -0.176788 0)
(-0.0515472 -0.173304 0)
(-0.0538232 -0.169787 0)
(-0.0560713 -0.16589 0)
(-0.000633036 -0.17536 0)
(-0.00256504 -0.208603 0)
(-0.00503855 -0.209417 0)
(-0.00724608 -0.208674 0)
(-0.00959552 -0.207774 0)
(-0.0118919 -0.206697 0)
(-0.0141974 -0.205452 0)
(-0.0164848 -0.204034 0)
(-0.0187561 -0.202435 0)
(-0.021007 -0.200648 0)
(-0.0232341 -0.198673 0)
(-0.0254341 -0.19651 0)
(-0.0276036 -0.194162 0)
(-0.0297391 -0.191631 0)
(-0.031837 -0.188917 0)
(-0.0338935 -0.186021 0)
(-0.0359057 -0.182942 0)
(-0.0378695 -0.179676 0)
(-0.0397775 -0.176228 0)
(-0.0416385 -0.172668 0)
(-0.0435064 -0.169126 0)
(-0.045422 -0.165596 0)
(-0.0473304 -0.161797 0)
(-2.07172e-06 -0.173167 0)
(-0.00113632 -0.204789 0)
(-0.00336103 -0.20526 0)
(-0.00519628 -0.204492 0)
(-0.00722065 -0.203597 0)
(-0.00914151 -0.202535 0)
(-0.0110685 -0.201311 0)
(-0.0129697 -0.199919 0)
(-0.0148528 -0.198349 0)
(-0.0167164 -0.196598 0)
(-0.0185594 -0.194662 0)
(-0.0203805 -0.192545 0)
(-0.0221781 -0.190249 0)
(-0.0239505 -0.187775 0)
(-0.0256956 -0.185124 0)
(-0.0274106 -0.182298 0)
(-0.0290934 -0.179297 0)
(-0.0307414 -0.176121 0)
(-0.032347 -0.172766 0)
(-0.0339065 -0.169257 0)
(-0.0354525 -0.165681 0)
(-0.0370345 -0.1621 0)
(-0.0386265 -0.158344 0)
(0.00074235 -0.173036 0)
(0.000297258 -0.202025 0)
(-0.00172959 -0.201626 0)
(-0.00315895 -0.200889 0)
(-0.00486049 -0.200051 0)
(-0.00639222 -0.199045 0)
(-0.00792516 -0.197873 0)
(-0.00942374 -0.196528 0)
(-0.0108989 -0.195003 0)
(-0.0123525 -0.193294 0)