/*--------------------------------*- C++ -*----------------------------------*\
| =========                 |                                                 |
| \\      /  F ield         | OpenFOAM: The Open Source CFD Toolbox           |
|  \\    /   O peration     | Version:  2206                                  |
|   \\  /    A nd           | Website:  www.openfoam.com                      |
|    \\/     M anipulation  |                                                 |
\*---------------------------------------------------------------------------*/
FoamFile
{
    version     2.0;
    format      ascii;
    arch        "LSB;label=32;scalar=64";
    class       surfaceScalarField;
    location    "0.85";
    object      phi;
}
// * * * * * * * * * * * * * * * * * * * * * * * * * * * * * * * * * * * * * //

dimensions      [0 3 -1 0 0 0 0];

oriented        oriented;

internalField   nonuniform List<scalar> 
4432
(
-4.8045e-06
4.8045e-06
-1.06997e-05
5.8952e-06
-1.72151e-05
6.51542e-06
-2.36373e-05
6.42216e-06
-2.75775e-05
3.9402e-06
-2.76116e-05
3.4166e-08
-2.56502e-05
-1.96145e-06
-2.37429e-05
-1.90725e-06
-2.22255e-05
-1.51743e-06
-2.07727e-05
-1.45284e-06
-1.93725e-05
-1.40018e-06
-1.82001e-05
-1.17237e-06
-1.72679e-05
-9.32267e-07
-1.62552e-05
-1.0127e-06
-1.48688e-05
-1.38634e-06
-1.4608e-05
-2.60793e-07
-1.8214e-05
3.60599e-06
-2.41713e-05
5.9573e-06
-2.69148e-05
2.74346e-06
-2.32708e-05
-3.64394e-06
-1.59098e-05
-7.36104e-06
-7.24038e-06
-8.66941e-06
-7.24038e-06
-9.06287e-06
1.38674e-05
-1.75712e-05
1.44036e-05
-2.47074e-05
1.36516e-05
-2.9365e-05
1.10798e-05
-3.04775e-05
5.05268e-06
-2.89301e-05
-1.5132e-06
-2.63875e-05
-4.5041e-06
-2.41821e-05
-4.11265e-06
-2.24889e-05
-3.21061e-06
-2.08136e-05
-3.12816e-06
-1.89404e-05
-3.27342e-06
-1.71027e-05
-3.01006e-06
-1.57941e-05
-2.2408e-06
-1.5604e-05
-1.20284e-06
-1.70402e-05
4.98107e-08
-1.98897e-05
2.58876e-06
-2.26983e-05
6.41454e-06
-2.3185e-05
6.444e-06
-1.97837e-05
-6.578e-07
-1.46416e-05
-8.7861e-06
-9.57005e-06
-1.24325e-05
-4.182e-06
-1.40575e-05
-1.14224e-05
-9.57977e-06
2.34471e-05
-1.78041e-05
2.26279e-05
-2.447e-05
2.03176e-05
-2.91624e-05
1.57722e-05
-3.10391e-05
6.92929e-06
-2.99409e-05
-2.61133e-06
-2.74992e-05
-6.94584e-06
-2.52234e-05
-6.38847e-06
-2.33221e-05
-5.11187e-06
-2.13245e-05
-5.12579e-06
-1.89462e-05
-5.65173e-06
-1.6321e-05
-5.63521e-06
-1.38614e-05
-4.70046e-06
-1.21129e-05
-2.95136e-06
-1.17363e-05
-3.26698e-07
-1.25564e-05
3.40884e-06
-1.2715e-05
6.57309e-06
-1.07696e-05
4.49862e-06
-7.49874e-06
-3.92861e-06
-4.3946e-06
-1.18902e-05
-2.25111e-06
-1.4576e-05
-4.69941e-07
-1.58386e-05
-1.18923e-05
-8.70892e-06
3.21561e-05
-1.62725e-05
3.01915e-05
-2.27704e-05
2.68155e-05
-2.77311e-05
2.07329e-05
-3.00148e-05
9.213e-06
-2.95781e-05
-3.04804e-06
-2.80181e-05
-8.50588e-06
-2.64243e-05
-7.9823e-06
-2.46998e-05
-6.83631e-06
-2.26032e-05
-7.22242e-06
-2.00444e-05
-8.21049e-06
-1.71807e-05
-8.49899e-06
-1.43354e-05
-7.54575e-06
-1.17099e-05
-5.57677e-06
-9.30043e-06
-2.73621e-06
-6.85723e-06
9.6563e-07
-4.03155e-06
3.74741e-06
-1.50802e-06
1.97509e-06
8.8926e-08
-5.52556e-06
9.24063e-07
-1.27254e-05
1.13161e-06
-1.47836e-05
1.20776e-06
-1.59148e-05
-1.06845e-05
-7.42064e-06
3.95767e-05
-1.41681e-05
3.69389e-05
-2.00223e-05
3.26697e-05
-2.43971e-05
2.51076e-05
-2.65768e-05
1.13927e-05
-2.71485e-05
-2.47633e-06
-2.74233e-05
-8.23107e-06
-2.73622e-05
-8.04344e-06
-2.62797e-05
-7.91871e-06
-2.41174e-05
-9.38479e-06
-2.12055e-05
-1.11224e-05
-1.79845e-05
-1.17199e-05
-1.49035e-05
-1.06268e-05
-1.21385e-05
-8.34173e-06
-9.45683e-06
-5.4179e-06
-6.39089e-06
-2.10031e-06
-2.9706e-06
3.27125e-07
-4.61349e-07
-5.34165e-07
1.73417e-07
-6.16032e-06
3.49693e-07
-1.29016e-05
7.24494e-07
-1.51584e-05
1.35973e-06
-1.655e-05
-9.3248e-06
-5.81822e-06
4.53949e-05
-1.14159e-05
4.25366e-05
-1.61063e-05
3.73601e-05
-1.94434e-05
2.84448e-05
-2.1486e-05
1.34353e-05
-2.33563e-05
-6.06069e-07
-2.6089e-05
-5.49834e-06
-2.80837e-05
-6.04875e-06
-2.79642e-05
-8.03824e-06
-2.57743e-05
-1.15746e-05
-2.22073e-05
-1.46894e-05
-1.81592e-05
-1.57681e-05
-1.44987e-05
-1.42873e-05
-1.15569e-05
-1.12835e-05
-9.0236e-06
-7.95117e-06
-6.50467e-06
-4.61923e-06
-4.05221e-06
-2.12534e-06
-2.39788e-06
-2.1885e-06
-1.97672e-06
-6.58148e-06
-1.27117e-06
-1.36072e-05
3.26257e-07
-1.67558e-05
1.91175e-06
-1.81355e-05
-7.41306e-06
-4.00208e-06
4.9397e-05
-8.50153e-06
4.7036e-05
-1.20102e-05
4.08688e-05
-1.40147e-05
3.04493e-05
-1.56397e-05
1.50603e-05
-1.92046e-05
2.95879e-06
-2.50211e-05
3.18116e-07
-2.89994e-05
-2.07037e-06
-2.95435e-05
-7.49421e-06
-2.67306e-05
-1.43875e-05
-2.16334e-05
-1.97866e-05
-1.61173e-05
-2.12842e-05
-1.17463e-05
-1.86583e-05
-8.829e-06
-1.42009e-05
-6.67312e-06
-1.0107e-05
-4.78883e-06
-6.50352e-06
-3.34261e-06
-3.57157e-06
-2.63236e-06
-2.89874e-06
-2.34779e-06
-6.86604e-06
-9.53409e-07
-1.50016e-05
2.00127e-06
-1.97105e-05
3.88817e-06
-2.00224e-05
-3.52488e-06
-1.9268e-06
5.13238e-05
-4.56736e-06
4.96766e-05
-5.85017e-06
4.21516e-05
-5.64099e-06
3.02402e-05
-7.7221e-06
1.71414e-05
-1.55335e-05
1.07702e-05
-2.47739e-05
9.55853e-06
-2.9911e-05
3.06676e-06
-3.012e-05
-7.28525e-06
-2.58283e-05
-1.86792e-05
-1.93716e-05
-2.62433e-05
-1.32674e-05
-2.73884e-05
-8.81126e-06
-2.31144e-05
-6.03617e-06
-1.6976e-05
-4.00237e-06
-1.21408e-05
-2.31423e-06
-8.19167e-06
-1.59243e-06
-4.29337e-06
-1.48507e-06
-3.0061e-06
-1.29849e-06
-7.05261e-06
5.14098e-07
-1.68142e-05
4.6581e-06
-2.38545e-05
7.05718e-06
-2.24215e-05
3.5323e-06
-1.24296e-05
1.24296e-05
-3.56973e-05
2.32677e-05
-4.08169e-05
5.11958e-06
-2.33203e-05
-1.74966e-05
1.07963e-06
-2.43999e-05
1.37513e-05
-1.26716e-05
2.2907e-06
1.14606e-05
-2.30876e-05
2.53783e-05
-2.14441e-05
-1.6435e-06
3.00338e-07
-2.17444e-05
1.12748e-05
-1.09745e-05
1.56475e-05
-4.37269e-06
1.32099e-05
2.43758e-06
4.02313e-06
9.18681e-06
-1.36745e-05
1.76977e-05
-2.84072e-05
1.47327e-05
-3.1135e-05
2.72778e-06
-2.19483e-05
-9.18677e-06
-2.19483e-05
-2.47843e-05
3.72139e-05
-4.01489e-05
3.86323e-05
-3.48462e-05
-1.83204e-07
-1.80297e-05
-3.4313e-05
-2.94426e-06
-3.94854e-05
-1.14293e-05
-4.18662e-06
-3.20526e-05
3.20839e-05
-2.96302e-05
2.29559e-05
-1.05267e-05
-2.0747e-05
1.85654e-06
-3.41277e-05
1.07418e-05
-1.98597e-05
1.57367e-05
-9.36762e-06
1.8848e-05
-6.73669e-07
1.62799e-05
1.17549e-05
3.09876e-06
3.08788e-05
-1.98018e-05
3.76333e-05
-3.33257e-05
1.62517e-05
-2.30092e-05
-1.95032e-05
-4.49575e-05
-2.23738e-05
5.95877e-05
-3.04768e-05
4.67353e-05
-2.62517e-05
-4.40826e-06
-1.70619e-05
-4.35029e-05
-1.67098e-05
-3.98375e-05
-3.47457e-05
1.38492e-05
-4.27882e-05
4.01264e-05
-2.97963e-05
9.96403e-06
-2.7945e-05
-2.25983e-05
-2.91317e-05
-3.2941e-05
-1.64941e-05
-3.24974e-05
-4.98512e-06
-2.08765e-05
3.01027e-06
-8.66907e-06
5.17561e-06
9.58951e-06
5.21231e-06
3.08421e-05
-1.57063e-06
4.44162e-05
-1.12379e-05
2.59189e-05
-2.9123e-06
-2.78289e-05
-4.78698e-05
-1.59714e-05
7.55591e-05
-2.14845e-05
5.22484e-05
-1.92044e-05
-6.68841e-06
-1.49872e-05
-4.772e-05
-2.4267e-05
-3.05577e-05
-4.01289e-05
2.97112e-05
-4.2407e-05
4.24045e-05
-4.64997e-05
1.40567e-05
-6.66357e-05
-2.46232e-06
-7.23322e-05
-2.72445e-05
-6.14709e-05
-4.33587e-05
-4.05072e-05
-4.18402e-05
-2.02811e-05
-2.88952e-05
-1.03564e-05
-3.35216e-07
-5.46787e-06
2.59536e-05
-2.4467e-07
3.9193e-05
3.03823e-06
2.2636e-05
7.91627e-06
-3.27069e-05
-3.99535e-05
-9.31882e-06
8.4878e-05
-1.24072e-05
5.53368e-05
-9.2456e-06
-9.85005e-06
-9.76949e-06
-4.71962e-05
-2.39813e-05
-1.63459e-05
-3.65214e-05
4.22513e-05
-4.53342e-05
5.12174e-05
-6.94246e-05
3.81471e-05
-9.32616e-05
2.13747e-05
-0.000104199
-1.63069e-05
-0.000107302
-4.02555e-05
-9.37347e-05
-5.54079e-05
-6.32452e-05
-5.93847e-05
-3.73764e-05
-2.6204e-05
-2.51917e-05
1.37689e-05
-1.50922e-05
2.90935e-05
-2.48865e-06
1.00325e-05
7.30045e-07
-3.59256e-05
-3.92235e-05
-2.96644e-06
8.78444e-05
-1.60981e-06
5.39802e-05
2.55044e-06
-1.40103e-05
-4.05274e-06
-4.0593e-05
-2.21749e-05
1.77634e-06
-3.36268e-05
5.37031e-05
-5.24829e-05
7.00735e-05
-8.67042e-05
7.23683e-05
-0.000102859
3.75291e-05
-0.000108547
-1.06184e-05
-0.000117914
-3.08884e-05
-0.000124988
-4.83343e-05
-0.000110527
-7.38457e-05
-7.9983e-05
-5.67477e-05
-5.3879e-05
-1.23352e-05
-3.75015e-05
1.2716e-05
-2.2084e-05
-5.38501e-06
-1.06638e-05
-4.73458e-05
-4.98873e-05
4.50522e-06
8.33392e-05
1.01801e-05
4.83053e-05
1.31569e-05
-1.69872e-05
-5.24748e-07
-2.69113e-05
-2.26032e-05
2.38547e-05
-3.77931e-05
6.8893e-05
-7.05852e-05
0.000102866
-0.000103672
0.000105455
-0.000107285
4.11419e-05
-9.91098e-05
-1.87932e-05
-0.000103206
-2.67922e-05
-0.000124777
-2.67633e-05
-0.000137679
-6.09439e-05
-0.000130105
-6.43216e-05
-0.000108867
-3.3573e-05
-8.13624e-05
-1.47887e-05
-4.27856e-05
-4.39618e-05
-7.68243e-06
-8.24489e-05
-5.75697e-05
1.06527e-05
7.26865e-05
1.98298e-05
3.91282e-05
2.15301e-05
-1.86874e-05
8.5578e-07
-6.23698e-06
-2.50466e-05
4.97572e-05
-4.9535e-05
9.33814e-05
-9.54862e-05
0.000148817
-0.000114761
0.00012473
-0.000102989
2.93696e-05
-8.98458e-05
-3.19363e-05
-8.67517e-05
-2.98863e-05
-9.76597e-05
-1.58553e-05
-0.000116079
-4.2525e-05
-0.000119988
-6.04123e-05
-0.000101806
-5.1755e-05
-6.68664e-05
-4.97284e-05
-3.08328e-05
-7.99953e-05
-3.71386e-06
-0.000109568
-6.12836e-05
6.33094e-06
4.49929e-05
3.02472e-06
5.29828e-05
-3.48907e-06
4.86654e-05
-1.53036e-05
4.20547e-05
-3.32691e-05
3.51068e-05
-5.23905e-05
2.98917e-05
-6.5543e-05
2.2711e-05
-7.16357e-05
9.15948e-06
-7.12875e-05
-7.63341e-06
-6.64255e-05
-2.35412e-05
-5.95191e-05
-3.31497e-05
-4.96382e-05
-3.72693e-05
-3.82156e-05
-3.45371e-05
-2.8197e-05
-2.69945e-05
-1.89699e-05
-2.1368e-05
-9.66837e-06
-1.74932e-05
-5.19637e-06
-8.76537e-06
-5.22063e-06
-2.98182e-06
-8.26426e-06
-4.009e-06
-6.65566e-06
-1.84228e-05
1.03587e-05
-4.08688e-05
3.15063e-05
-4.35691e-05
8.46651e-06
2.6572e-05
-1.95431e-05
6.4536e-05
-3.91805e-05
7.26202e-05
-5.78456e-05
6.73305e-05
-7.03538e-05
5.45629e-05
-7.58586e-05
4.06116e-05
-8.03845e-05
3.44176e-05
-8.88984e-05
3.12249e-05
-0.000102722
2.29835e-05
-0.00012079
1.04341e-05
-0.000138056
-6.27512e-06
-0.000144019
-2.71869e-05
-0.000131161
-5.01275e-05
-0.000109192
-5.65053e-05
-8.88402e-05
-4.73467e-05
-6.99059e-05
-4.03023e-05
-5.0284e-05
-3.7115e-05
-4.20303e-05
-1.70191e-05
-5.44896e-05
9.47749e-06
-7.14676e-05
1.2969e-05
-5.7251e-05
-3.26393e-05
-3.41013e-06
-9.47096e-05
4.76708e-05
-9.46501e-05
1.75167e-06
5.43857e-05
-0.000140324
0.00020486
-0.000193797
0.000126093
-0.000212731
8.62641e-05
-0.000218172
6.00046e-05
-0.000222781
4.52205e-05
-0.000230682
4.23183e-05
-0.000247665
4.82079e-05
-0.00027306
4.83789e-05
-0.000297382
3.47554e-05
-0.000306133
2.47612e-06
-0.00029371
-3.96093e-05
-0.000264593
-7.92451e-05
-0.000233646
-8.74523e-05
-0.000213928
-6.70642e-05
-0.000223098
-3.11319e-05
-0.000254489
-5.72411e-06
-0.00028862
1.71115e-05
-0.000275747
-3.39495e-06
-0.000214892
-4.78864e-05
-0.000129963
-0.000117569
-4.71013e-05
-0.000177571
5.22189e-06
-0.000146973
1.56609e-05
-8.68731e-06
-0.000305706
0.000510566
-0.000370754
0.000191141
-0.000378004
9.35141e-05
-0.00036749
4.94906e-05
-0.000357798
3.55288e-05
-0.000352787
3.73069e-05
-0.000362315
5.77363e-05
-0.000386116
7.21797e-05
-0.000396769
4.54087e-05
-0.000387314
-6.97975e-06
-0.000348133
-7.87901e-05
-0.000310449
-0.000116929
-0.000282294
-0.000115607
-0.000256242
-9.31166e-05
-0.000233167
-5.42064e-05
-0.000222669
-1.62223e-05
-0.00021759
1.20319e-05
-0.0001933
-2.76847e-05
-0.000143308
-9.78781e-05
-0.000102892
-0.000157985
-9.35998e-05
-0.000186863
-9.71029e-05
-0.00014347
5.18265e-05
-0.000133269
-0.00028513
0.000795696
-0.000386153
0.000292164
-0.000418717
0.000126078
-0.00041453
4.5304e-05
-0.000401839
2.28384e-05
-0.000396591
3.20583e-05
-0.000401325
6.24704e-05
-0.000395592
6.6447e-05
-0.000380731
3.05478e-05
-0.00036793
-1.97813e-05
-0.000349578
-9.71421e-05
-0.000332959
-0.000133548
-0.000312834
-0.000135732
-0.000280958
-0.000124992
-0.000238151
-9.70142e-05
-0.000185801
-6.85718e-05
-0.000130286
-4.34835e-05
-0.000109272
-4.86986e-05
-0.000109249
-9.79008e-05
-0.000117712
-0.000149521
-0.000128052
-0.000176524
-0.000149942
-0.00012158
8.58257e-05
-0.000183941
-0.000171081
0.000966777
-0.000266963
0.000388046
-0.000320171
0.000179285
-0.000360897
8.60304e-05
-0.000383366
4.53069e-05
-0.000390321
3.90136e-05
-0.000377318
4.94675e-05
-0.000356236
4.53644e-05
-0.000342342
1.66537e-05
-0.000329423
-3.27005e-05
-0.000329531
-9.70335e-05
-0.00033268
-0.000130399
-0.000324508
-0.000143904
-0.000298297
-0.000151203
-0.000267238
-0.000128073
-0.000227188
-0.000108622
-0.000184101
-8.6571e-05
-0.000157642
-7.51576e-05
-0.000153426
-0.000102117
-0.000155295
-0.000147652
-0.000161946
-0.000169873
-0.000175423
-0.000108103
0.00010245
-0.000192047
-9.07896e-05
0.00105757
-0.000187637
0.000484894
-0.000239372
0.00023102
-0.000271314
0.000117972
-0.000294526
6.85189e-05
-0.000309397
5.38857e-05
-0.000307983
4.80532e-05
-0.000298682
3.60638e-05
-0.00029263
1.0601e-05
-0.000297939
-2.73912e-05
-0.000319904
-7.50685e-05
-0.000337135
-0.000113168
-0.000336923
-0.000144116
-0.00033172
-0.000156406
-0.000313349
-0.000146444
-0.000281006
-0.000140965
-0.000253062
-0.000114515
-0.000235668
-9.25517e-05
-0.00021439
-0.000123394
-0.000195244
-0.000166798
-0.000196582
-0.000168534
-0.000195821
-0.000108864
6.4045e-05
-0.000157416
-3.92806e-05
0.00109685
-0.000141252
0.000586865
-0.000167943
0.000257711
-0.000185245
0.000135274
-0.000191754
7.50279e-05
-0.00019202
5.41519e-05
-0.00019003
4.60632e-05
-0.000191445
3.74782e-05
-0.000200565
1.97209e-05
-0.00022095
-7.00559e-06
-0.000255676
-4.03427e-05
-0.000295329
-7.35155e-05
-0.000333019
-0.000106426
-0.000364874
-0.000124551
-0.000379299
-0.000132019
-0.000384221
-0.000136043
-0.00036119
-0.000137546
-0.000298171
-0.000155571
-0.000235462
-0.000186104
-0.000209904
-0.000192356
-0.000220762
-0.000157676
-0.000217284
-0.000112342
-2.57878e-06
-0.00015066
2.48754e-05
0.00107197
-8.81898e-05
0.00069993
-0.000113888
0.000283409
-0.000130696
0.000152083
-0.000133904
7.82354e-05
-0.000121075
4.13229e-05
-0.000101797
2.67854e-05
-8.80563e-05
2.37372e-05
-8.76959e-05
1.93605e-05
-0.000102725
8.02327e-06
-0.000134086
-8.98173e-06
-0.00017374
-3.38607e-05
-0.000220213
-5.99535e-05
-0.000263021
-8.17428e-05
-0.000296919
-9.81214e-05
-0.000321543
-0.000111418
-0.000328505
-0.000130584
-0.000314101
-0.000169975
-0.000282576
-0.00021763
-0.000251292
-0.00022364
-0.000245309
-0.000163659
-0.000253323
-0.000104328
-3.46006e-05
-0.000221301
8.64941e-05
0.000985478
-1.0594e-05
0.000797018
-7.50911e-05
0.000347906
-9.6213e-05
0.000173205
-0.000104576
8.65981e-05
-9.28318e-05
2.95789e-05
-6.60569e-05
1.04554e-08
-3.72765e-05
-5.04322e-06
-2.03113e-05
2.39545e-06
-2.04013e-05
8.11345e-06
-3.48506e-05
5.46753e-06
-6.41057e-05
-4.60571e-06
-0.000104087
-1.99727e-05
-0.000149311
-3.6519e-05
-0.000194507
-5.2925e-05
-0.000238959
-6.69663e-05
-0.000281568
-8.79751e-05
-0.000313519
-0.000138024
-0.000321355
-0.000209794
-0.000303777
-0.000241218
-0.000279591
-0.000187845
-0.00026766
-0.00011626
-3.99048e-05
-0.000262355
0.000134021
0.000851457
8.12967e-05
0.000849742
-2.09107e-05
0.000450114
-6.20407e-05
0.000214335
-7.58866e-05
0.000100444
-7.11272e-05
2.48196e-05
-5.00677e-05
-2.10491e-05
-2.00937e-05
-3.50171e-05
7.76134e-06
-2.54596e-05
2.28574e-05
-6.98277e-06
2.11336e-05
7.19138e-06
4.99455e-06
1.15332e-05
-2.21422e-05
7.16382e-06
-5.83066e-05
-3.54735e-07
-0.000101024
-1.02074e-05
-0.000145584
-2.2407e-05
-0.000196983
-3.65753e-05
-0.00025914
-7.58669e-05
-0.000314452
-0.000154482
-0.0003338
-0.00022187
-0.000304606
-0.000217038
-0.000270239
-0.000150627
-9.11793e-05
-0.000218965
0.00017521
0.000676247
0.000181337
0.000843615
6.97244e-05
0.000561726
-3.33249e-06
0.000287392
-3.05211e-05
0.000127633
-3.34138e-05
2.77124e-05
-2.16667e-05
-3.27964e-05
2.7426e-07
-5.6958e-05
2.31557e-05
-4.8341e-05
4.0622e-05
-2.44491e-05
4.87606e-05
-9.473e-07
4.53147e-05
1.49788e-05
3.01355e-05
2.23428e-05
5.81635e-06
2.39642e-05
-2.74761e-05
2.3085e-05
-6.4987e-05
1.51044e-05
-0.000101693
1.31071e-07
-0.000157009
-2.0551e-05
-0.000238213
-7.32782e-05
-0.000315121
-0.000144962
-0.000351211
-0.000180948
-0.000333636
-0.000168203
-0.000115413
-0.000309402
0.00019349
0.000482758
0.00026235
0.000774755
0.000192857
0.000631219
0.000102234
0.000378014
4.95035e-05
0.000180364
2.83195e-05
4.88964e-05
2.6907e-05
-3.13836e-05
3.61256e-05
-6.61766e-05
4.72701e-05
-5.94857e-05
5.64423e-05
-3.36215e-05
6.30345e-05
-7.53951e-06
6.5288e-05
1.27252e-05
6.05308e-05
2.71e-05
4.8321e-05
3.61739e-05
2.98669e-05
4.15392e-05
2.83651e-06
4.2135e-05
-2.35174e-05
2.6485e-05
-4.6407e-05
2.33854e-06
-9.60555e-05
-2.36298e-05
-0.000171783
-6.92349e-05
-0.000237196
-0.000115535
-0.000271936
-0.000133463
-0.000124938
-0.000262411
0.000179798
0.000302959
0.000298666
0.000655887
0.000291588
0.000638298
0.000223245
0.000446357
0.000159529
0.00024408
0.000118827
8.95984e-05
9.64362e-05
-8.99234e-06
8.65506e-05
-5.62911e-05
8.14748e-05
-5.441e-05
7.82949e-05
-3.04419e-05
7.67053e-05
-5.95001e-06
7.68287e-05
1.26018e-05
7.64944e-05
2.74343e-05
7.31081e-05
3.95599e-05
6.62626e-05
4.83849e-05
5.32791e-05
5.51184e-05
2.81999e-05
5.15642e-05
6.1152e-06
2.44231e-05
-1.14617e-05
-6.05311e-06
-4.82663e-05
-3.24304e-05
-0.000100988
-6.28127e-05
-0.000145304
-8.91475e-05
-0.000104325
-0.000165917
0.000136094
0.000166865
0.000274109
0.000517873
0.000323594
0.000588813
0.000300834
0.000469117
0.000251767
0.000293147
0.000204919
0.000136446
0.000169038
2.68896e-05
0.000139534
-2.67871e-05
0.000117915
-3.2792e-05
0.000102446
-1.49728e-05
9.24629e-05
4.03306e-06
8.73095e-05
1.77552e-05
8.6031e-05
2.8713e-05
8.63812e-05
3.92098e-05
8.64809e-05
4.82851e-05
8.54191e-05
5.61801e-05
7.55137e-05
6.14694e-05
4.9581e-05
5.03556e-05
2.51886e-05
1.83391e-05
9.63279e-06
-1.68746e-05
-1.27464e-05
-4.04335e-05
-4.13433e-05
-6.05508e-05
-8.0876e-05
-6.47919e-05
7.6498e-05
9.03672e-05
0.000203048
0.000391323
0.000287248
0.000504614
0.000309157
0.000447208
0.000290414
0.000311891
0.000255217
0.000171643
0.000215695
6.64116e-05
0.00017727
1.16375e-05
0.000145093
-6.14527e-07
0.000122194
7.92579e-06
0.000107153
1.90744e-05
9.80925e-05
2.68151e-05
9.41409e-05
3.26643e-05
9.44168e-05
3.89339e-05
9.71685e-05
4.55334e-05
0.000101791
5.15571e-05
0.000105338
5.79229e-05
9.71795e-05
5.85138e-05
7.19857e-05
4.3533e-05
4.61711e-05
8.93997e-06
3.04383e-05
-2.47007e-05
2.21196e-05
-5.22323e-05
-7.12303e-05
1.24738e-05
2.04678e-05
6.98996e-05
0.000118291
0.0002935
0.000210914
0.000411991
0.000262998
0.000395123
0.00027502
0.000299869
0.000259356
0.000187306
0.000227302
9.84662e-05
0.000189746
4.91928e-05
0.000156716
3.24157e-05
0.000132974
3.16674e-05
0.00011738
3.46679e-05
0.000107388
3.68075e-05
0.000101882
3.817e-05
0.000100761
4.00545e-05
0.000103347
4.29478e-05
0.000108914
4.59895e-05
0.000117695
4.91426e-05
0.000124614
5.15945e-05
0.000121071
4.70755e-05
0.000100674
2.93376e-05
7.81986e-05
-2.22565e-06
6.04438e-05
-3.44775e-05
-6.3338e-05
5.25515e-05
-1.60729e-05
8.59725e-05
4.70853e-05
0.000230342
0.000130717
0.00032836
0.000195904
0.000329936
0.000228578
0.000267196
0.000230207
0.000185677
0.000209938
0.000118735
0.000180932
7.81982e-05
0.000154369
5.89792e-05
0.000134882
5.11538e-05
0.000121821
4.77288e-05
0.000113165
4.5463e-05
0.000107847
4.3488e-05
0.000105857
4.2045e-05
0.000107286
4.15183e-05
0.000111717
4.15586e-05
0.000119565
4.12946e-05
0.000130812
4.03478e-05
0.000140431
3.74566e-05
0.000141971
2.77969e-05
0.000131321
8.42433e-06
0.000112713
-1.58697e-05
-4.79982e-05
9.73735e-05
-2.73025e-05
0.000113275
6.33912e-06
0.0001967
7.27255e-05
0.000261974
0.000136077
0.000266585
0.000175708
0.000227564
0.000187338
0.000174047
0.00017841
0.000127663
0.000160823
9.57854e-05
0.000143586
7.62155e-05
0.000130275
6.44653e-05
0.000120924
5.70791e-05
0.00011454
5.18472e-05
0.000110432
4.7596e-05
0.000108509
4.3968e-05
0.000109028
4.09989e-05
0.000112012
3.85746e-05
0.000117388
3.59183e-05
0.000125868
3.18677e-05
0.000136986
2.63387e-05
0.000146964
1.78188e-05
0.000150578
4.81039e-06
0.00014827
-1.35618e-05
-3.82826e-05
0.000138554
-2.00179e-05
0.000133293
-4.48993e-06
0.000181173
4.33613e-05
0.000214122
9.5186e-05
0.00021476
0.000131182
0.000191568
0.000146323
0.000158907
0.000146025
0.000127961
0.000138526
0.000103284
0.000129641
8.51008e-05
0.00012194
7.2166e-05
0.000116072
6.29466e-05
0.000111915
5.60048e-05
0.000109205
5.03059e-05
0.000107855
4.53179e-05
0.000108026
4.08271e-05
0.000109929
3.66722e-05
0.000113458
3.23884e-05
0.000118467
2.68586e-05
0.00012538
1.94259e-05
0.000133325
9.87403e-06
0.000140242
-2.10627e-06
0.000143452
-1.67718e-05
-3.52347e-05
0.000140404
-7.17486e-06
0.000140468
1.03854e-06
0.000172959
3.40703e-05
0.000181091
7.16406e-05
0.00017719
9.97392e-05
0.000163469
0.000114709
0.000143936
0.000119551
0.00012312
0.000118752
0.000104082
0.000115611
8.82419e-05
0.000111997
7.57799e-05
0.000108835
6.61085e-05
0.000106465
5.8375e-05
0.000104926
5.1845e-05
0.000104209
4.60346e-05
0.000104397
4.06394e-05
0.00010566
3.54091e-05
0.000108015
3.00329e-05
0.000111024
2.38496e-05
0.000114382
1.60676e-05
0.000117829
6.42685e-06
0.000120985
-5.26158e-06
0.000121908
-1.76948e-05
-3.16538e-05
0.000118327
2.43017e-06
0.000138038
1.09123e-05
0.000164477
3.34337e-05
0.00015857
5.9045e-05
0.000151579
7.96219e-05
0.000142893
9.28312e-05
0.000130727
9.97894e-05
0.000116162
0.000102497
0.000101375
0.000102719
8.80203e-05
0.000101777
7.67213e-05
0.000100551
6.73352e-05
9.9512e-05
5.94136e-05
9.88563e-05
5.25008e-05
9.866e-05
4.62308e-05
9.89876e-05
4.03117e-05
9.99223e-05
3.44742e-05
0.000101495
2.84605e-05
0.000103417
2.19268e-05
0.00010513
1.43547e-05
0.000106127
5.43067e-06
0.000105879
-5.01441e-06
0.000103948
-1.57634e-05
-2.69063e-05
9.92002e-05
6.48272e-06
0.000131556
1.70207e-05
0.00015394
3.36714e-05
0.000141919
5.14679e-05
0.000133782
6.65737e-05
0.000127787
7.76965e-05
0.000119604
8.50055e-05
0.000108853
8.9229e-05
9.71511e-05
9.12732e-05
8.59762e-05
9.20123e-05
7.59822e-05
9.21323e-05
6.72153e-05
9.20759e-05
5.94701e-05
9.20876e-05
5.24893e-05
9.22944e-05
4.60241e-05
9.27656e-05
3.98403e-05
9.35305e-05
3.37091e-05
9.45733e-05
2.74176e-05
9.57365e-05
2.07636e-05
9.66077e-05
1.34836e-05
9.66628e-05
5.37563e-06
9.52604e-05
-3.6121e-06
9.23475e-05
-1.28506e-05
-2.20886e-05
8.75299e-05
7.2983e-06
0.000124257
1.87863e-05
0.000142452
3.23147e-05
0.00012839
4.55695e-05
0.000120528
5.71554e-05
0.000116201
6.65094e-05
0.000110251
7.34818e-05
0.00010188
7.82461e-05
9.2387e-05
8.12432e-05
8.29792e-05
8.30186e-05
7.42068e-05
8.40604e-05
6.61736e-05
8.47264e-05
5.88041e-05
8.52493e-05
5.19664e-05
8.5767e-05
4.55064e-05
8.63488e-05
3.92585e-05
8.7004e-05
3.30539e-05
8.76875e-05
2.67343e-05
8.82843e-05
2.0167e-05
8.85417e-05
1.32262e-05
8.80798e-05
5.83745e-06
8.6531e-05
-2.06331e-06
8.37249e-05
-1.00446e-05
-1.78898e-05
7.9526e-05
7.08488e-06
0.000117173
1.82684e-05
0.000131269
2.97724e-05
0.000116887
4.03208e-05
0.00010998
4.96826e-05
0.000106839
5.77018e-05
0.000102231
6.41612e-05
9.54207e-05
6.90175e-05
8.75308e-05
7.2472e-05
7.95248e-05
7.48565e-05
7.1822e-05
7.65039e-05
6.45263e-05
7.76823e-05
5.76258e-05
7.8584e-05
5.10648e-05
7.93323e-05
4.47582e-05
7.99894e-05
3.86014e-05
8.05616e-05
3.24818e-05
8.1004e-05
2.6292e-05
8.12249e-05
1.99462e-05
8.10718e-05
1.33793e-05
8.03362e-05
6.57295e-06
7.87634e-05
-4.9067e-07
7.6303e-05
-7.58429e-06
-1.44422e-05
7.28554e-05
6.66323e-06
0.000110509
1.69612e-05
0.000120971
2.68657e-05
0.000106982
3.56231e-05
0.000101222
4.34963e-05
9.89657e-05
5.05033e-05
9.52244e-05
5.64284e-05
8.94957e-05
6.11557e-05
8.28036e-05
6.47698e-05
7.59107e-05
6.74724e-05
6.91194e-05
6.94848e-05
6.25139e-05
7.09984e-05
5.61124e-05
7.21593e-05
4.99039e-05
7.30668e-05
4.38508e-05
7.37742e-05
3.78941e-05
7.42906e-05
3.19654e-05
7.4585e-05
2.59978e-05
7.45922e-05
1.9939e-05
7.42153e-05
1.37561e-05
7.33354e-05
7.45274e-06
7.17952e-05
1.04948e-06
6.95709e-05
-5.36005e-06
-1.1479e-05
6.66075e-05
6.19005e-06
0.000104319
1.54554e-05
0.000111705
2.40204e-05
9.84173e-05
3.14774e-05
9.37656e-05
3.82734e-05
9.21697e-05
4.44763e-05
8.90217e-05
4.98855e-05
8.40866e-05
5.43719e-05
7.83173e-05
5.79654e-05
7.23172e-05
6.07893e-05
6.62956e-05
6.29885e-05
6.03148e-05
6.46949e-05
5.44061e-05
6.60146e-05
4.85843e-05
6.70237e-05
4.28418e-05
6.77664e-05
3.71515e-05
6.82555e-05
3.14765e-05
6.84735e-05
2.57798e-05
6.83785e-05
2.0034e-05
6.79076e-05
1.42269e-05
6.69859e-05
8.37437e-06
6.55273e-05
2.50802e-06
6.35065e-05
-3.33927e-06
-8.89567e-06
6.09231e-05
5.69815e-06
9.86213e-05
1.3946e-05
0.000103458
2.13812e-05
9.09824e-05
2.78351e-05
8.73118e-05
3.37987e-05
8.62061e-05
3.93348e-05
8.34858e-05
4.42599e-05
7.91617e-05
4.84533e-05
7.41238e-05
5.19211e-05
6.88494e-05
5.47388e-05
6.3478e-05
5.70002e-05
5.80535e-05
5.87942e-05
5.26122e-05
6.0196e-05
4.71825e-05
6.12628e-05
4.17751e-05
6.20302e-05
3.63841e-05
6.25122e-05
3.09946e-05
6.27011e-05
2.55908e-05
6.25718e-05
2.01633e-05
6.20851e-05
1.47136e-05
6.1196e-05
9.26348e-06
5.98601e-05
3.84403e-06
5.80337e-05
-1.51292e-06
-6.64026e-06
5.57782e-05
5.21684e-06
9.34046e-05
1.25148e-05
9.61597e-05
1.89905e-05
8.45069e-05
2.46358e-05
8.16666e-05
2.99216e-05
8.09204e-05
3.48864e-05
7.85214e-05
3.93623e-05
7.46859e-05
4.32443e-05
7.02418e-05
4.65284e-05
6.55654e-05
4.9261e-05
6.07455e-05
5.15021e-05
5.58125e-05
5.33106e-05
5.08037e-05
5.47391e-05
4.57541e-05
5.58296e-05
4.06848e-05
5.66102e-05
3.56036e-05
5.70942e-05
3.05107e-05
5.72804e-05
2.54047e-05
5.71551e-05
2.02885e-05
5.66963e-05
1.51725e-05
5.58789e-05
1.0081e-05
5.46801e-05
5.04296e-06
5.30673e-05
9.98339e-08
-4.6687e-06
5.10957e-05
4.7692e-06
8.86354e-05
1.11995e-05
8.97294e-05
1.68546e-05
7.88521e-05
2.18254e-05
7.66956e-05
2.65367e-05
7.62093e-05
3.09993e-05
7.4059e-05
3.50599e-05
7.06253e-05
3.86293e-05
6.66723e-05
4.17002e-05
6.24948e-05
4.43008e-05
5.81451e-05
4.64686e-05
5.36448e-05
4.8242e-05
4.90304e-05
4.96571e-05
4.43391e-05
5.07442e-05
3.95978e-05
5.15251e-05
3.48227e-05
5.20122e-05
3.00237e-05
5.22078e-05
2.52091e-05
5.2107e-05
2.03895e-05
5.16991e-05
1.55804e-05
5.09722e-05
1.08079e-05
4.99156e-05
6.09964e-06
4.85153e-05
1.50008e-06
-2.96191e-06
4.68084e-05
4.36961e-06
8.42658e-05
1.00126e-05
8.40864e-05
1.496e-05
7.39047e-05
1.93548e-05
7.23007e-05
2.35659e-05
7.19983e-05
2.75797e-05
7.00453e-05
3.12561e-05
6.69489e-05
3.4521e-05
6.34077e-05
3.73658e-05
5.96503e-05
3.98074e-05
5.57037e-05
4.18685e-05
5.15838e-05
4.35733e-05
4.73256e-05
4.4946e-05
4.29665e-05
4.60085e-05
3.85355e-05
4.67776e-05
3.40536e-05
4.72647e-05
2.95368e-05
4.74748e-05
2.4999e-05
4.74087e-05
2.04556e-05
4.7064e-05
1.59251e-05
4.64383e-05
1.14337e-05
4.55302e-05
7.00767e-06
4.43417e-05
2.6885e-06
-1.5133e-06
4.2893e-05
4.02698e-06
8.02388e-05
8.95315e-06
7.91603e-05
1.32825e-05
6.95753e-05
1.71767e-05
6.84066e-05
2.09463e-05
6.82289e-05
2.45556e-05
6.64362e-05
2.78771e-05
6.36274e-05
3.08499e-05
6.04351e-05
3.34659e-05
5.70345e-05
3.57346e-05
5.34351e-05
3.76689e-05
4.96495e-05
3.92834e-05
4.57111e-05
4.05943e-05
4.16557e-05
4.1617e-05
3.75128e-05
4.23652e-05
3.33054e-05
4.28492e-05
2.90527e-05
4.30764e-05
2.47719e-05
4.30516e-05
2.04805e-05
4.27786e-05
1.61982e-05
4.22625e-05
1.19498e-05
4.15106e-05
7.75958e-06
4.05346e-05
3.66441e-06
-3.3714e-07
3.93582e-05
3.74536e-06
7.64934e-05
8.0165e-06
7.48891e-05
1.17944e-05
6.57975e-05
1.52474e-05
6.49537e-05
1.86243e-05
6.48521e-05
2.18671e-05
6.31933e-05
2.4861e-05
6.06335e-05
2.75566e-05
5.77397e-05
2.99472e-05
5.46439e-05
3.20378e-05
5.13445e-05
3.3835e-05
4.78524e-05
3.5347e-05
4.41992e-05
3.65842e-05
4.04186e-05
3.75582e-05
3.65389e-05
3.828e-05
3.25837e-05
3.87595e-05
2.85732e-05
3.90053e-05
2.4526e-05
3.90256e-05
2.04603e-05
3.88285e-05
1.63952e-05
3.8425e-05
1.23533e-05
3.78292e-05
8.35535e-06
3.70616e-05
4.43185e-06
5.87676e-07
3.61366e-05
3.52092e-06
7.29724e-05
7.19892e-06
7.1211e-05
1.04724e-05
6.25241e-05
1.35289e-05
6.18972e-05
1.6552e-05
6.18288e-05
1.94603e-05
6.02849e-05
2.21506e-05
5.79433e-05
2.45839e-05
5.53064e-05
2.67557e-05
5.24722e-05
2.86683e-05
4.94319e-05
3.03241e-05
4.61966e-05
3.17272e-05
4.27963e-05
3.28841e-05
3.92618e-05
3.38032e-05
3.56199e-05
3.44936e-05
3.18934e-05
3.49643e-05
2.81025e-05
3.52247e-05
2.42657e-05
3.5284e-05
2.0401e-05
3.51529e-05
1.65263e-05
3.48449e-05
1.26612e-05
3.43767e-05
8.82351e-06
3.37697e-05
5.03879e-06
1.30805e-06
3.30492e-05
3.33992e-06
6.96323e-05
6.4951e-06
6.80558e-05
9.2997e-06
5.97196e-05
1.19891e-05
5.92076e-05
1.46852e-05
5.91324e-05
1.72829e-05
5.76872e-05
1.96884e-05
5.55379e-05
2.18717e-05
5.31231e-05
2.38307e-05
5.05132e-05
2.55662e-05
4.76965e-05
2.70776e-05
4.46854e-05
2.83658e-05
4.15084e-05
2.94342e-05
3.81935e-05
3.02886e-05
3.47656e-05
3.09356e-05
3.12463e-05
3.13829e-05
2.76552e-05
3.16386e-05
2.40101e-05
3.17112e-05
2.03284e-05
3.16108e-05
1.66266e-05
3.13503e-05
1.29218e-05
3.09451e-05
9.22876e-06
3.04145e-05
5.56941e-06
1.94e-06
2.97826e-05
3.18165e-06
6.64506e-05
5.89195e-06
6.53456e-05
8.25793e-06
5.73534e-05
1.05963e-05
5.6869e-05
1.29804e-05
5.67481e-05
1.52819e-05
5.53857e-05
1.74139e-05
5.3406e-05
1.9354e-05
5.11831e-05
2.1102e-05
4.87653e-05
2.26574e-05
4.61413e-05
2.40168e-05
4.33262e-05
2.51784e-05
4.03469e-05
2.61429e-05
3.72291e-05
2.69127e-05
3.39957e-05
2.74919e-05
3.06671e-05
2.78854e-05
2.72617e-05
2.80985e-05
2.3797e-05
2.81374e-05
2.02895e-05
2.80096e-05
1.67545e-05
2.77253e-05
1.32062e-05
2.72973e-05
9.65689e-06
2.67424e-05
6.12439e-06
2.59985e-06
2.60828e-05
3.02549e-06
6.34252e-05
5.36773e-06
6.30033e-05
7.32245e-06
5.53985e-05
9.3173e-06
5.4874e-05
1.13945e-05
5.46708e-05
1.34048e-05
5.33755e-05
1.52667e-05
5.1544e-05
1.69633e-05
4.94866e-05
1.84959e-05
4.72328e-05
1.98618e-05
4.47754e-05
2.10549e-05
4.21331e-05
2.20708e-05
3.9331e-05
2.29073e-05
3.63925e-05
2.35637e-05
3.33392e-05
2.40411e-05
3.01897e-05
2.4341e-05
2.69618e-05
2.44658e-05
2.36722e-05
2.44189e-05
2.03364e-05
2.42059e-05
1.69676e-05
2.38355e-05
1.35767e-05
2.33199e-05
1.01726e-05
2.26779e-05
6.76654e-06
3.34287e-06
2.1935e-05
2.85403e-06
6.05712e-05
4.89229e-06
6.09649e-05
6.46243e-06
5.38282e-05
8.1192e-06