/*--------------------------------*- C++ -*----------------------------------*\
| =========                 |                                                 |
| \\      /  F ield         | OpenFOAM: The Open Source CFD Toolbox           |
|  \\    /   O peration     | Version:  2206                                  |
|   \\  /    A nd           | Website:  www.openfoam.com                      |
|    \\/     M anipulation  |                                                 |
\*---------------------------------------------------------------------------*/
FoamFile
{
    version     2.0;
    format      ascii;
    arch        "LSB;label=32;scalar=64";
    class       volVectorField;
    location    "0.825";
    object      U;
}
// * * * * * * * * * * * * * * * * * * * * * * * * * * * * * * * * * * * * * //

dimensions      [0 1 -1 0 0 0 0];

internalField   nonuniform List<vector> 
2268
(
(-0.0272586 0.0116616 0)
(-0.0927715 0.015845 0)
(-0.16161 0.0168637 0)
(-0.233603 0.0174866 0)
(-0.297221 0.0133106 0)
(-0.324349 0.00356952 0)
(-0.311453 -0.00358552 0)
(-0.290044 -0.00409632 0)
(-0.274655 -0.00255068 0)
(-0.264921 -0.00176216 0)
(-0.255899 -0.00169431 0)
(-0.245988 -0.00160526 0)
(-0.23578 -0.00201158 0)
(-0.224893 -0.00459246 0)
(-0.208066 -0.0100126 0)
(-0.183876 -0.0120855 0)
(-0.173646 0.00118405 0)
(-0.216576 0.0204415 0)
(-0.291489 0.0190034 0)
(-0.302742 -0.00337041 0)
(-0.230607 -0.024659 0)
(-0.139289 -0.0327675 0)
(-0.044653 -0.0269774 0)
(-0.0515656 0.0488307 0)
(-0.143969 0.0521324 0)
(-0.224566 0.0499699 0)
(-0.295993 0.0458039 0)
(-0.339279 0.0297083 0)
(-0.341718 0.0035249 0)
(-0.323018 -0.0137924 0)
(-0.296947 -0.0146897 0)
(-0.278353 -0.00905747 0)
(-0.267383 -0.00657113 0)
(-0.256844 -0.00719244 0)
(-0.242091 -0.00818587 0)
(-0.223745 -0.00825515 0)
(-0.206988 -0.00804485 0)
(-0.19921 -0.00855659 0)
(-0.207223 -0.00409766 0)
(-0.231937 0.0161098 0)
(-0.26155 0.0325359 0)
(-0.258177 0.0172467 0)
(-0.195167 -0.0234993 0)
(-0.13824 -0.0553986 0)
(-0.0840413 -0.0712755 0)
(-0.0226211 -0.0640807 0)
(-0.0550879 0.0952388 0)
(-0.140618 0.0924136 0)
(-0.21521 0.0839191 0)
(-0.286937 0.072663 0)
(-0.33636 0.0431587 0)
(-0.348247 0.000900421 0)
(-0.331936 -0.0267301 0)
(-0.308345 -0.0272894 0)
(-0.289356 -0.0166116 0)
(-0.276466 -0.0119873 0)
(-0.263099 -0.0142891 0)
(-0.242607 -0.0182208 0)
(-0.214404 -0.0197074 0)
(-0.182943 -0.0171467 0)
(-0.155956 -0.00991855 0)
(-0.140684 0.00352909 0)
(-0.139362 0.0217588 0)
(-0.136113 0.0255325 0)
(-0.103382 -0.00484055 0)
(-0.0533993 -0.0472792 0)
(-0.0246388 -0.0703693 0)
(-0.0182757 -0.0839222 0)
(0.0069023 -0.0755081 0)
(-0.049193 0.138819 0)
(-0.122096 0.129739 0)
(-0.192665 0.116766 0)
(-0.264664 0.100452 0)
(-0.315609 0.0590821 0)
(-0.328633 0.00131672 0)
(-0.320668 -0.0366609 0)
(-0.312781 -0.0370604 0)
(-0.303064 -0.0234254 0)
(-0.292064 -0.0179932 0)
(-0.278736 -0.022881 0)
(-0.257484 -0.0311407 0)
(-0.226689 -0.0364233 0)
(-0.189477 -0.0355285 0)
(-0.149587 -0.0270294 0)
(-0.108048 -0.00985617 0)
(-0.0656859 0.0105407 0)
(-0.0252734 0.0140201 0)
(0.013531 -0.0140145 0)
(0.0348 -0.0519317 0)
(0.0421503 -0.0683863 0)
(0.0144845 -0.0819274 0)
(0.0234499 -0.067068 0)
(-0.0394459 0.175647 0)
(-0.0989975 0.163387 0)
(-0.162302 0.148252 0)
(-0.224495 0.12817 0)
(-0.265696 0.0770903 0)
(-0.274807 0.00684156 0)
(-0.28266 -0.0365439 0)
(-0.30356 -0.0367475 0)
(-0.314447 -0.0249139 0)
(-0.311229 -0.0223787 0)
(-0.297963 -0.0309011 0)
(-0.274135 -0.0439241 0)
(-0.24001 -0.0533964 0)
(-0.199666 -0.0550312 0)
(-0.15661 -0.0484345 0)
(-0.110151 -0.0342536 0)
(-0.0585567 -0.017646 0)
(-0.00575791 -0.0124448 0)
(0.0332916 -0.0309722 0)
(0.03949 -0.0586117 0)
(0.0423371 -0.0657177 0)
(0.0116781 -0.0772147 0)
(0.0269511 -0.0585174 0)
(-0.0270944 0.203435 0)
(-0.0693902 0.190377 0)
(-0.12041 0.17208 0)
(-0.166532 0.146859 0)
(-0.194772 0.0883889 0)
(-0.200275 0.0146191 0)
(-0.228935 -0.0230722 0)
(-0.285796 -0.0227953 0)
(-0.322398 -0.0177311 0)
(-0.331951 -0.0243656 0)
(-0.320516 -0.0406606 0)
(-0.292716 -0.0596708 0)
(-0.252225 -0.072362 0)
(-0.205208 -0.074799 0)
(-0.15753 -0.0684891 0)
(-0.110309 -0.0557615 0)
(-0.0627217 -0.0407695 0)
(-0.0175452 -0.031729 0)
(0.0152357 -0.040332 0)
(0.0178946 -0.0586198 0)
(0.0240119 -0.0616067 0)
(0.00583939 -0.0756214 0)
(0.0261911 -0.0532006 0)
(-0.0124791 0.221405 0)
(-0.0370704 0.210313 0)
(-0.0754635 0.19184 0)
(-0.103547 0.163392 0)
(-0.114941 0.102554 0)
(-0.115779 0.0295664 0)
(-0.179082 -0.0026879 0)
(-0.27275 0.00162276 0)
(-0.331521 -0.00173842 0)
(-0.354656 -0.0210778 0)
(-0.34598 -0.0489047 0)
(-0.310369 -0.0757919 0)
(-0.255213 -0.0933855 0)
(-0.194904 -0.0974695 0)
(-0.14107 -0.0907898 0)
(-0.0932187 -0.0776314 0)
(-0.0482195 -0.061197 0)
(-0.0101421 -0.0459285 0)
(0.0151216 -0.0455735 0)
(0.0187725 -0.0585417 0)
(0.0237679 -0.0608965 0)
(0.0206185 -0.0765307 0)
(0.0296389 -0.0449735 0)
(0.00115291 0.22815 0)
(0.00274494 0.225647 0)
(-0.00613062 0.200815 0)
(-0.00508811 0.162936 0)
(-0.000251107 0.101745 0)
(-0.0344472 0.0519976 0)
(-0.161555 0.0532917 0)
(-0.273538 0.0501572 0)
(-0.341373 0.0232879 0)
(-0.374548 -0.0185818 0)
(-0.364483 -0.0645657 0)
(-0.308452 -0.108694 0)
(-0.229843 -0.134697 0)
(-0.158933 -0.134399 0)
(-0.105756 -0.120775 0)
(-0.06175 -0.104262 0)
(-0.0191767 -0.0842453 0)
(0.0137515 -0.0618979 0)
(0.0334754 -0.0536238 0)
(0.0369454 -0.060631 0)
(0.0409072 -0.0654755 0)
(0.0452387 -0.0810407 0)
(0.0450236 -0.0132232 0)
(-0.0384391 0.0320525 0)
(-0.373603 0.0685176 0)
(-0.599346 0.0299534 0)
(-0.531722 -0.0314717 0)
(-0.305965 -0.0714593 0)
(-0.0524508 -0.0759437 0)
(0.0841916 -0.0530458 0)
(-0.103066 0.0597496 0)
(-0.555933 0.107834 0)
(-0.424741 -0.00919235 0)
(0.00166117 -0.0730411 0)
(0.17614 -0.0446998 0)
(0.250459 0.00532812 0)
(0.24734 0.045443 0)
(0.155694 0.0715328 0)
(-0.0422444 0.0125128 0)
(-0.192161 -0.0182496 0)
(-0.278346 0.00873636 0)
(-0.0167644 0.0186584 0)
(-0.172646 0.144667 0)
(-0.517049 0.168761 0)
(-0.543501 0.0421136 0)
(-0.407983 -0.0943053 0)
(-0.226224 -0.174759 0)
(-0.0798846 -0.116805 0)
(-0.303239 0.0863357 0)
(-0.719595 0.20463 0)
(-0.598004 0.0214912 0)
(-0.00834423 -0.245392 0)
(0.161663 -0.175392 0)
(0.232901 -0.0822391 0)
(0.285925 -0.0266627 0)
(0.370165 -0.0104467 0)
(0.383093 0.068379 0)
(0.332026 0.146665 0)
(0.011127 0.117944 0)
(-0.432846 -0.0572523 0)
(-0.163074 -0.172593 0)
(-0.191829 0.266807 0)
(-0.411714 0.23093 0)
(-0.359323 0.0192161 0)
(-0.309552 -0.147224 0)
(-0.169653 -0.228996 0)
(-0.234895 -0.0351213 0)
(-0.64117 0.236955 0)
(-0.808275 0.183198 0)
(-0.269517 -0.170015 0)
(-0.143739 -0.338344 0)
(-0.0897336 -0.205398 0)
(0.0021318 -0.100507 0)
(0.0743207 -0.0422457 0)
(0.135877 -0.00938528 0)
(0.206035 0.0468255 0)
(0.31649 0.17481 0)
(0.252633 0.248485 0)
(-0.140294 0.0781695 0)
(0.0489258 -0.283149 0)
(-0.15786 0.369115 0)
(-0.282012 0.273445 0)
(-0.254209 0.020362 0)
(-0.191609 -0.172349 0)
(-0.118706 -0.218504 0)
(-0.371744 0.0859884 0)
(-0.743389 0.328451 0)
(-0.616009 0.0782288 0)
(-0.296843 -0.286532 0)
(-0.461075 -0.359954 0)
(-0.399364 -0.235324 0)
(-0.307549 -0.155137 0)
(-0.189856 -0.0903959 0)
(-0.0735211 -0.0523945 0)
(0.0582323 0.0132527 0)
(0.137777 0.14921 0)
(0.241283 0.281101 0)
(0.13809 0.127536 0)
(0.30579 -0.156725 0)
(-0.105294 0.438063 0)
(-0.153638 0.29452 0)
(-0.12857 -0.00315633 0)
(-0.0378068 -0.18907 0)
(-0.0670682 -0.156192 0)
(-0.449432 0.209918 0)
(-0.732325 0.371187 0)
(-0.491989 -0.00574399 0)
(-0.574742 -0.28784 0)
(-0.885995 -0.322606 0)
(-1.13841 -0.161952 0)
(-1.13812 -0.171518 0)
(-0.723098 -0.167071 0)
(-0.410222 -0.145039 0)
(-0.182952 -0.0503402 0)
(-0.0655825 0.142356 0)
(0.0747219 0.26821 0)
(0.17125 0.0765865 0)
(0.248203 -0.112583 0)
(-0.0447397 0.474062 0)
(-0.00971904 0.297782 0)
(0.0412539 -0.0167493 0)
(0.117127 -0.18499 0)
(-0.0293629 -0.0522983 0)
(-0.497866 0.333381 0)
(-0.705011 0.382954 0)
(-0.513434 -0.0207124 0)
(-0.943035 -0.0691634 0)
(-1.50499 -0.0898265 0)
(-1.65803 -0.119669 0)
(-1.58565 -0.289831 0)
(-1.33407 -0.36045 0)
(-1.00458 -0.311778 0)
(-0.661508 -0.182389 0)
(-0.350103 0.0185527 0)
(-0.196246 0.13301 0)
(0.0112343 0.0708575 0)
(-0.177768 -0.0205164 0)
(0.0133347 0.458328 0)
(0.10559 0.287278 0)
(0.226921 -0.035589 0)
(0.209199 -0.142554 0)
(-0.033604 0.083141 0)
(-0.542014 0.455711 0)
(-0.70337 0.411921 0)
(-0.648867 0.0993572 0)
(-1.33913 0.15372 0)
(-1.87827 0.0433462 0)
(-2.0033 -0.117698 0)
(-1.84927 -0.368505 0)
(-1.65568 -0.465036 0)
(-1.55744 -0.425947 0)
(-1.32466 -0.25782 0)
(-1.01773 0.030629 0)
(-1.05761 0.184435 0)
(-0.790078 0.038011 0)
(-0.186328 -0.216882 0)
(0.0491886 0.409301 0)
(0.15973 0.244492 0)
(0.370095 -0.0871363 0)
(0.230925 -0.0646631 0)
(-0.0890959 0.241298 0)
(-0.592399 0.579898 0)
(-0.767211 0.449919 0)
(-0.977794 0.299176 0)
(-1.75739 0.396701 0)
(-2.1755 0.193282 0)
(-2.14026 -0.148947 0)
(-1.86411 -0.449265 0)
(-1.7487 -0.49556 0)
(-1.82142 -0.450525 0)
(-1.87885 -0.315683 0)
(-1.76635 -0.051591 0)
(-1.33173 -0.0432829 0)
(-0.516911 -0.393118 0)
(0.0172039 -0.432272 0)
(0.0255032 0.181506 0)
(0.0339449 0.19076 0)
(0.00761854 0.184981 0)
(-0.0430968 0.17469 0)
(-0.123639 0.146044 0)
(-0.208364 0.122075 0)
(-0.273934 0.111819 0)
(-0.330197 0.0985163 0)
(-0.379552 0.0690294 0)
(-0.407203 0.0031693 0)
(-0.386866 -0.0926674 0)
(-0.333677 -0.169981 0)
(-0.27136 -0.192856 0)
(-0.205249 -0.176248 0)
(-0.144251 -0.152691 0)
(-0.0859442 -0.133814 0)
(-0.0253707 -0.109497 0)
(0.020805 -0.0806758 0)
(0.0450227 -0.0612352 0)
(0.0456731 -0.0587665 0)
(0.0425508 -0.0720359 0)
(0.0598038 -0.0989738 0)
(0.111183 -0.0277713 0)
(-0.249145 0.20177 0)
(-0.305371 0.250031 0)
(-0.420257 0.262631 0)
(-0.472415 0.253398 0)
(-0.504173 0.214984 0)
(-0.491315 0.178461 0)
(-0.469818 0.15451 0)
(-0.465617 0.118378 0)
(-0.48725 0.0598667 0)
(-0.537332 -0.0170677 0)
(-0.611366 -0.090428 0)
(-0.674716 -0.147676 0)
(-0.642495 -0.195108 0)
(-0.525881 -0.203946 0)
(-0.398455 -0.196455 0)
(-0.279316 -0.197467 0)
(-0.159734 -0.18227 0)
(-0.0585573 -0.140174 0)
(-0.025531 -0.097728 0)
(-0.0504136 -0.0704289 0)
(-0.103925 -0.0616487 0)
(-0.0195025 -0.0920678 0)
(0.205959 -0.0454223 0)
(-1.25141 0.843569 0)
(-1.54105 0.493641 0)
(-1.52308 0.332525 0)
(-1.45823 0.228284 0)
(-1.41208 0.120814 0)
(-1.39745 0.059055 0)
(-1.3934 0.0857518 0)
(-1.41128 0.172242 0)
(-1.46032 0.228402 0)
(-1.50278 0.173773 0)
(-1.51017 -0.00617631 0)
(-1.47443 -0.227505 0)
(-1.36615 -0.375591 0)
(-1.16863 -0.408437 0)
(-0.939509 -0.390265 0)
(-0.803 -0.41652 0)
(-0.656427 -0.351374 0)
(-0.627882 -0.176612 0)
(-0.954664 -0.0139522 0)
(-1.02587 0.0865821 0)
(-0.780728 -0.0902344 0)
(-0.244157 -0.690373 0)
(-0.00389964 -0.560445 0)
(-1.21403 2.32568 0)
(-1.95014 0.522268 0)
(-2.30782 0.209819 0)
(-2.42548 0.19486 0)
(-2.41352 0.206862 0)
(-2.29375 0.171549 0)
(-2.21102 0.166586 0)
(-2.11214 0.141384 0)
(-2.0259 0.0514945 0)
(-1.99045 -0.071683 0)
(-2.02396 -0.198979 0)
(-2.02289 -0.391366 0)
(-1.84478 -0.613226 0)
(-1.60357 -0.666867 0)
(-1.37621 -0.597898 0)
(-1.26274 -0.523708 0)
(-1.14881 -0.261183 0)
(-1.18927 0.219775 0)
(-1.56578 0.215676 0)
(-1.27564 -0.166885 0)
(-0.624579 -0.850881 0)
(-0.549189 -1.12751 0)
(-0.547593 -0.886735 0)
(-0.726376 3.72293 0)
(-1.08527 1.70466 0)
(-1.69184 0.795294 0)
(-2.1378 0.314101 0)
(-2.38357 -0.0271504 0)
(-2.41075 -0.116139 0)
(-2.38235 -0.0557629 0)
(-2.3106 0.0744807 0)
(-2.21215 0.14562 0)
(-2.15392 0.17492 0)
(-2.16041 0.0103031 0)
(-1.98562 -0.420233 0)
(-1.86266 -0.805213 0)
(-1.74349 -0.873488 0)
(-1.58393 -0.793323 0)
(-1.44586 -0.668547 0)
(-1.29085 -0.433732 0)
(-0.96383 0.00872958 0)
(-0.635516 0.123374 0)
(-0.331438 -0.219857 0)
(-0.457572 -0.836043 0)
(-0.628787 -1.02168 0)
(-0.741915 -0.910227 0)
(-0.418552 4.33875 0)
(-0.465284 2.35109 0)
(-1.02068 1.32486 0)
(-1.2271 0.82888 0)
(-1.45578 0.411883 0)
(-1.5845 0.120227 0)
(-1.74133 -0.00118663 0)
(-1.82997 -0.0878059 0)
(-1.83906 -0.11663 0)
(-1.82815 -0.0571702 0)
(-1.7851 -0.0646033 0)
(-1.71103 -0.366712 0)
(-1.73452 -0.84114 0)
(-1.74583 -0.957756 0)
(-1.68242 -0.947137 0)
(-1.56001 -0.826281 0)
(-1.38057 -0.659607 0)
(-1.10833 -0.447526 0)
(-0.735358 -0.324322 0)
(-0.522085 -0.450008 0)
(-0.549819 -0.679864 0)
(-0.676875 -0.886299 0)
(-0.817094 -0.917583 0)
(-0.22307 4.4821 0)
(-0.0880496 2.55198 0)
(-0.599821 1.5275 0)
(-0.663683 0.940689 0)
(-0.752656 0.508737 0)
(-0.832304 0.266791 0)
(-0.954627 0.19637 0)
(-1.1033 0.1625 0)
(-1.26232 0.0949623 0)
(-1.37384 -0.0185574 0)
(-1.4128 -0.177709 0)
(-1.47374 -0.388978 0)
(-1.59961 -0.664027 0)
(-1.71497 -0.910615 0)
(-1.75216 -0.997373 0)
(-1.68359 -0.977933 0)
(-1.53073 -0.901291 0)
(-1.30503 -0.707918 0)
(-1.04978 -0.578754 0)
(-0.886341 -0.565408 0)
(-0.863376 -0.670559 0)
(-0.847998 -0.790994 0)
(-0.904421 -0.807451 0)
(-0.0489031 4.40084 0)
(0.180609 2.79585 0)
(-0.359871 1.65778 0)
(-0.348103 1.00214 0)
(-0.420703 0.51466 0)
(-0.421444 0.28395 0)
(-0.425593 0.237539 0)
(-0.469812 0.248249 0)
(-0.576726 0.225691 0)
(-0.718652 0.143936 0)
(-0.864781 -0.0347911 0)
(-1.03715 -0.292664 0)
(-1.27763 -0.543541 0)
(-1.53287 -0.774765 0)
(-1.70886 -0.943194 0)
(-1.78963 -0.991684 0)
(-1.80852 -0.98021 0)
(-1.67694 -0.842543 0)
(-1.51429 -0.718946 0)
(-1.47213 -0.642729 0)
(-1.47586 -0.769994 0)
(-1.15772 -0.889088 0)
(-1.02891 -0.77718 0)
(0.130947 4.12729 0)
(0.420636 3.14 0)
(-0.123902 1.81624 0)
(-0.10452 1.0905 0)
(-0.191726 0.550159 0)
(-0.181542 0.262602 0)
(-0.136851 0.199324 0)
(-0.0836899 0.251958 0)
(-0.07943 0.299449 0)
(-0.15133 0.271995 0)
(-0.28191 0.170668 0)
(-0.453054 -0.000155138 0)
(-0.708821 -0.23732 0)
(-1.04118 -0.498248 0)
(-1.36261 -0.745505 0)
(-1.60627 -0.932564 0)
(-1.8243 -1.02553 0)
(-2.05527 -0.929845 0)
(-2.17129 -0.731888 0)
(-1.95734 -0.699975 0)
(-1.59864 -1.05759 0)
(-1.40998 -1.18011 0)
(-1.23583 -0.829224 0)
(0.297721 3.64777 0)
(0.657031 3.40052 0)
(0.226412 2.05196 0)
(0.127183 1.16938 0)
(0.0423457 0.584384 0)
(0.025346 0.241566 0)
(0.0595521 0.135619 0)
(0.123884 0.183897 0)
(0.190056 0.285739 0)
(0.204049 0.334361 0)
(0.140909 0.293888 0)
(0.0140369 0.183302 0)
(-0.156431 0.0411131 0)
(-0.399535 -0.127245 0)
(-0.741181 -0.362233 0)
(-1.07012 -0.565928 0)
(-1.36145 -0.667731 0)
(-1.63457 -0.703837 0)
(-1.82839 -0.74475 0)
(-1.91297 -0.88436 0)
(-1.93381 -1.18448 0)
(-1.80238 -1.37863 0)
(-1.57377 -1.06132 0)
(0.404799 2.98864 0)
(0.851524 3.45059 0)
(0.621125 2.32173 0)
(0.417995 1.31024 0)
(0.292282 0.643811 0)
(0.2381 0.24381 0)
(0.236878 0.0873748 0)
(0.268698 0.112646 0)
(0.320478 0.221394 0)
(0.366714 0.320993 0)
(0.367166 0.35024 0)
(0.303349 0.303317 0)
(0.179308 0.207856 0)
(0.0104926 0.0938739 0)
(-0.212894 -0.0401763 0)
(-0.548619 -0.233674 0)
(-0.862148 -0.348383 0)
(-1.15003 -0.382076 0)
(-1.45831 -0.480077 0)
(-1.75661 -0.746507 0)
(-1.99575 -1.15805 0)
(-2.10594 -1.52091 0)
(-1.96627 -1.46657 0)
(0.410182 2.25101 0)
(0.943401 3.25667 0)
(0.938252 2.52353 0)
(0.74577 1.52663 0)
(0.578172 0.77245 0)
(0.483239 0.294497 0)
(0.432962 0.0830746 0)
(0.411063 0.0864389 0)
(0.411034 0.184656 0)
(0.429532 0.287225 0)
(0.447192 0.351943 0)
(0.432997 0.362123 0)
(0.366301 0.324367 0)
(0.24596 0.259142 0)
(0.0850637 0.186192 0)
(-0.172151 0.0656146 0)
(-0.477215 -0.0831778 0)
(-0.711961 -0.0986969 0)
(-1.01054 -0.112056 0)
(-1.38836 -0.39218 0)
(-1.72751 -0.890902 0)
(-2.03094 -1.36644 0)
(-2.2424 -1.63942 0)
(0.310864 1.56223 0)
(0.892954 2.87229 0)
(1.08422 2.56521 0)
(1.00397 1.71903 0)
(0.862458 0.93888 0)
(0.746496 0.398882 0)
(0.642764 0.142696 0)
(0.555955 0.12292 0)
(0.498461 0.205339 0)
(0.468698 0.287218 0)
(0.463353 0.345794 0)
(0.462688 0.381008 0)
(0.438161 0.389422 0)
(0.371488 0.371884 0)
(0.266358 0.346082 0)
(0.125299 0.316244 0)
(-0.147162 0.184954 0)
(-0.356725 0.0863709 0)
(-0.470009 0.141564 0)
(-0.732689 -0.013213 0)
(-1.09416 -0.518814 0)
(-1.43139 -0.99763 0)
(-1.76892 -1.29659 0)
(0.134785 1.04904 0)
(0.703772 2.40652 0)
(1.02532 2.42044 0)
(1.09553 1.78499 0)
(1.04635 1.06521 0)
(0.945584 0.525134 0)
(0.805854 0.258552 0)
(0.668935 0.218513 0)
(0.570467 0.274059 0)
(0.507214 0.327024 0)
(0.472708 0.360623 0)
(0.460136 0.390017 0)
(0.451752 0.417529 0)
(0.427476 0.434134 0)
(0.375495 0.44233 0)
(0.309118 0.462853 0)
(0.182371 0.42784 0)
(-0.067035 0.231754 0)
(-0.150301 0.175236 0)
(-0.11679 0.212193 0)
(-0.309127 -0.0934064 0)
(-0.610782 -0.617665 0)
(-0.921854 -0.932904 0)
(-0.0503756 0.782414 0)
(0.434772 1.9622 0)
(0.806204 2.1328 0)
(1.00689 1.69732 0)
(1.06571 1.10533 0)
(1.00467 0.63837 0)
(0.863359 0.401056 0)
(0.715567 0.345558 0)
(0.608012 0.365269 0)
(0.537319 0.38664 0)
(0.490578 0.39486 0)
(0.46449 0.405322 0)
(0.455101 0.427386 0)
(0.452016 0.455009 0)
(0.441538 0.481168 0)
(0.421499 0.519879 0)
(0.403414 0.55729 0)
(0.27597 0.442334 0)
(0.0879602 0.203558 0)
(0.041454 0.118997 0)
(0.202816 0.0362438 0)
(-0.0204004 -0.277377 0)
(-0.288941 -0.650765 0)
(-0.151179 0.714837 0)
(0.179295 1.57687 0)
(0.53779 1.77812 0)
(0.810341 1.50201 0)
(0.940644 1.07104 0)
(0.922242 0.721815 0)
(0.813553 0.533138 0)
(0.695128 0.465049 0)
(0.608126 0.449949 0)
(0.550489 0.443902 0)
(0.509603 0.433754 0)
(0.481707 0.42698 0)
(0.469289 0.433224 0)
(0.471835 0.453082 0)
(0.483288 0.480712 0)
(0.494354 0.516631 0)
(0.524003 0.571743 0)
(0.526396 0.568625 0)
(0.417744 0.372838 0)
(0.232664 0.090747 0)
(0.204606 -0.0221538 0)
(0.280794 -0.161429 0)
(0.169624 -0.360585 0)
(-0.140349 0.75312 0)
(0.0267889 1.28264 0)
(0.328386 1.43888 0)
(0.59857 1.27508 0)
(0.746871 0.999624 0)
(0.763127 0.76748 0)
(0.70494 0.624008 0)
(0.635132 0.548328 0)
(0.581816 0.50936 0)
(0.54579 0.484974 0)
(0.519794 0.463988 0)
(0.500513 0.446671 0)
(0.490791 0.438753 0)
(0.494367 0.443876 0)
(0.511977 0.461202 0)
(0.539505 0.485149 0)
(0.582424 0.520635 0)
(0.647867 0.558842 0)
(0.665582 0.494267 0)
(0.558702 0.263851 0)
(0.381811 -0.0173868 0)
(0.316742 -0.192393 0)
(0.291391 -0.325617 0)
(-0.0792812 0.81721 0)
(-0.00317413 1.09893 0)
(0.215652 1.17158 0)
(0.431242 1.07611 0)
(0.562665 0.918374 0)
(0.602433 0.772977 0)
(0.590649 0.6641 0)
(0.564984 0.589371 0)
(0.542459 0.540152 0)
(0.52681 0.506444 0)
(0.51629 0.479786 0)
(0.509128 0.457186 0)
(0.506768 0.440585 0)
(0.512903 0.433083 0)
(0.530816 0.436303 0)
(0.562614 0.446167 0)
(0.607046 0.456592 0)
(0.679749 0.473659 0)
(0.764737 0.477642 0)
(0.792162 0.368734 0)
(0.720155 0.166732 0)
(0.561959 -0.03085 0)
(0.479762 -0.235283 0)
(-0.0213238 0.842372 0)
(0.0291819 0.994754 0)
(0.17224 0.987583 0)
(0.324256 0.926157 0)
(0.428804 0.83952 0)
(0.479579 0.748081 0)
(0.497219 0.6654 0)
(0.500252 0.598575 0)
(0.498927 0.548671 0)
(0.498278 0.511708 0)
(0.499706 0.482214 0)
(0.50296 0.456948 0)
(0.508607 0.435779 0)
(0.519007 0.420173 0)
(0.537405 0.41136 0)
(0.567835 0.407653 0)
(0.610317 0.400987 0)
(0.670027 0.386666 0)
(0.755976 0.37777 0)
(0.848936 0.33697 0)
(0.890385 0.229384 0)
(0.863919 0.0216412 0)
(0.808498 -0.218042 0)
(0.00975361 0.819458 0)
(0.0620231 0.919835 0)
(0.158702 0.864915 0)
(0.263598 0.81864 0)
(0.344237 0.769061 0)
(0.395951 0.708978 0)
(0.426738 0.645949 0)
(0.444568 0.589297 0)
(0.455696 0.543026 0)
(0.46471 0.506024 0)
(0.47398 0.475268 0)
(0.48421 0.44843 0)
(0.495865 0.424675 0)
(0.510314 0.404149 0)
(0.529959 0.386916 0)
(0.558038 0.371804 0)
(0.596413 0.353678 0)
(0.643902 0.322989 0)
(0.705279 0.28288 0)
(0.787372 0.236771 0)
(0.868076 0.165044 0)
(0.918736 0.0408802 0)
(0.913898 -0.12436 0)
(0.0189137 0.776104 0)
(0.0748733 0.850321 0)
(0.150083 0.77732 0)
(0.226782 0.739541 0)
(0.290188 0.708986 0)
(0.338034 0.667084 0)
(0.37261 0.618084 0)
(0.397029 0.570689 0)
(0.414959 0.529174 0)
(0.429798 0.493663 0)
(0.443786 0.462703 0)
(0.458036 0.434902 0)
(0.473218 0.40938 0)
(0.490277 0.38558 0)
(0.510771 0.362779 0)
(0.536652 0.339538 0)
(0.569618 0.313006 0)
(0.608165 0.276453 0)
(0.649741 0.224226 0)
(0.698018 0.160361 0)
(0.752197 0.0844434 0)
(0.798655 -0.0142511 0)
(0.80928 -0.137994 0)
(0.0194301 0.730252 0)
(0.0741224 0.785025 0)
(0.138528 0.708376 0)
(0.199309 0.677655 0)
(0.251429 0.657824 0)
(0.294596 0.626797 0)
(0.329187 0.587532 0)
(0.356223 0.547589 0)
(0.377718 0.510694 0)
(0.395944 0.477363 0)
(0.412681 0.446968 0)
(0.429089 0.418746 0)
(0.445979 0.391979 0)
(0.464138 0.365893 0)
(0.484514 0.339495 0)
(0.508093 0.311329 0)
(0.535613 0.279501 0)
(0.566402 0.240602 0)
(0.596705 0.189675 0)
(0.623912 0.125849 0)
(0.647733 0.0511283 0)
(0.664601 -0.0332643 0)
(0.658871 -0.128926 0)
(0.0183739 0.687126 0)
(0.0687373 0.725277 0)
(0.125308 0.650542 0)
(0.176234 0.626362 0)
(0.220844 0.613234 0)
(0.259906 0.589047 0)
(0.293235 0.556609 0)
(0.320955 0.522481 0)
(0.344122 0.489696 0)
(0.364196 0.458775 0)
(0.382489 0.429459 0)
(0.400008 0.401332 0)
(0.417539 0.373869 0)
(0.435736 0.346358 0)
(0.455164 0.317864 0)
(0.476214 0.287187 0)
(0.498947 0.252947 0)
(0.522881 0.213405 0)
(0.545626 0.166161 0)
(0.563822 0.109893 0)
(0.574652 0.0451616 0)
(0.576136 -0.0253564 0)
(0.561165 -0.099377 0)
(0.017273 0.647331 0)
(0.0627021 0.671474 0)
(0.112551 0.600715 0)
(0.156483 0.582269 0)
(0.19567 0.57358 0)
(0.231239 0.553914 0)
(0.262815 0.526396 0)
(0.290156 0.4968 0)
(0.3138 0.467531 0)
(0.334676 0.438981 0)
(0.353707 0.411024 0)
(0.371675 0.383434 0)
(0.389218 0.355851 0)
(0.406826 0.327726 0)
(0.424825 0.298326 0)
(0.443297 0.266757 0)
(0.462017 0.23205 0)
(0.480417 0.193196 0)
(0.497064 0.149107 0)
(0.509717 0.0992127 0)
(0.515338 0.0435148 0)
(0.512509 -0.0164044 0)
(0.497156 -0.0776549 0)
(0.0160922 0.610848 0)
(0.0569401 0.623356 0)
(0.100971 0.557217 0)
(0.139517 0.543565 0)
(0.174474 0.537898 0)
(0.206975 0.521348 0)
(0.236583 0.497484 0)
(0.262918 0.471451 0)
(0.286245 0.445139 0)
(0.30716 0.418783 0)
(0.326287 0.392304 0)
(0.34418 0.365582 0)
(0.361298 0.33839 0)
(0.377972 0.310345 0)
(0.394369 0.280927 0)
(0.41044 0.249512 0)
(0.425876 0.215446 0)
(0.440107 0.178124 0)
(0.452121 0.137009 0)
(0.460556 0.0920225 0)
(0.463443 0.0434489 0)
(0.459733 -0.00724965 0)
(0.44676 -0.0586667 0)
(0.0148431 0.577558 0)
(0.0515962 0.580366 0)
(0.0905858 0.518866 0)
(0.124793 0.509143 0)
(0.156262 0.505567 0)
(0.186009 0.491253 0)
(0.213577 0.470192 0)
(0.238548 0.447009 0)
(0.261042 0.423179 0)
(0.28144 0.398809 0)
(0.300155 0.373834 0)
(0.317551 0.348202 0)
(0.333931 0.321787 0)
(0.349495 0.294341 0)
(0.364313 0.26552 0)
(0.378284 0.234913 0)
(0.391108 0.202106 0)
(0.402288 0.166757 0)
(0.411066 0.128639 0)
(0.41656 0.0878815 0)
(0.417605 0.0448934 0)
(0.413303 0.000778233 0)
(0.401909 -0.043434 0)
(0.013641 0.547245 0)
(0.0467247 0.541956 0)
(0.081303 0.484831 0)
(0.111881 0.478275 0)
(0.140353 0.476153 0)
(0.167592 0.463506 0)
(0.193132 0.444666 0)
(0.216553 0.423814 0)
(0.237897 0.402094 0)
(0.257409 0.379516 0)
(0.275351 0.356022 0)
(0.291951 0.331609 0)
(0.307392 0.306222 0)
(0.321785 0.27972 0)
(0.335138 0.251888 0)
(0.347335 0.222479 0)
(0.358114 0.191258 0)
(0.367069 0.158063 0)
(0.373632 0.122851 0)
(0.377188 0.0858255 0)
(0.37693 0.0473563 0)
(0.372434 0.00825737 0)
(0.362397 -0.0304229 0)
(0.0125613 0.519636 0)
(0.0423382 0.507647 0)
(0.0730304 0.454513 0)
(0.100478 0.450469 0)
(0.126296 0.449347 0)
(0.151222 0.437982 0)
(0.174785 0.420956 0)
(0.196577 0.402053 0)
(0.216599 0.382151 0)
(0.235006 0.361193 0)
(0.251953 0.33913 0)
(0.267577 0.315991 0)
(0.281979 0.291775 0)
(0.295207 0.266416 0)
(0.307234 0.2398 0)
(0.317944 0.211797 0)
(0.327115 0.182299 0)
(0.334431 0.151262 0)
(0.339469 0.118741 0)
(0.341796 0.084967 0)
(0.340846 0.0502722 0)
(0.33643 0.0153508 0)
(0.327592 -0.0190955 0)
(0.0116292 0.494444 0)
(0.0384195 0.477013 0)
(0.0656683 0.427445 0)
(0.0903622 0.42537 0)
(0.113784 0.42492 0)
(0.136559 0.414565 0)
(0.158216 0.399054 0)
(0.178363 0.381807 0)
(0.196983 0.36349 0)
(0.214169 0.344 0)
(0.230006 0.323299 0)
(0.244563 0.301438 0)
(0.257888 0.278454 0)
(0.269989 0.254337 0)
(0.280821 0.229045 0)
(0.290273 0.202531 0)
(0.298165 0.17477 0)
(0.304253 0.145793 0)
(0.308228 0.115708 0)
(0.309793 0.0847523 0)
(0.308553 0.0532297 0)
(0.304441 0.0217227 0)
(0.296691 -0.00927319 0)
(0.0108517 0.471377 0)
(0.0349497 0.449695 0)
(0.0591072 0.403241 0)
(0.081357 0.402697 0)
(0.102591 0.402682 0)
(0.123358 0.393139 0)
(0.143192 0.378917 0)
(0.161721 0.363097 0)
(0.178917 0.346174 0)
(0.194834 0.328015 0)
(0.209508 0.308595 0)
(0.222964 0.287982 0)
(0.235212 0.266236 0)
(0.246238 0.243389 0)
(0.255988 0.219449 0)
(0.264362 0.194425 0)
(0.271218 0.168346 0)
(0.276371 0.141287 0)
(0.279601 0.113386 0)
(0.280706 0.084876 0)
(0.279415 0.0560299 0)
(0.275736 0.0273293 0)
(0.269003 -0.000890234 0)
(0.0102358 0.450138 0)
(0.0319225 0.425404 0)
(0.0532271 0.381583 0)
(0.0733064 0.382221 0)
(0.0925371 0.382469 0)
(0.111433 0.37359 0)
(0.129541 0.360481 0)
(0.146502 0.345904 0)
(0.16229 0.330214 0)
(0.176934 0.313264 0)
(0.190434 0.295041 0)
(0.202789 0.275622 0)
(0.213985 0.255086 0)
(0.223993 0.23349 0)
(0.232761 0.210876 0)
(0.240205 0.18729 0)
(0.246212 0.162796 0)
(0.250648 0.137494 0)
(0.253359 0.111534 0)
(0.254214 0.0851359 0)
(0.253032 0.0585463 0)
(0.249856 0.0321634 0)
(0.244212 0.00620919 0)
(0.00979304 0.430421 0)
(0.0293417 0.403932 0)
(0.0479111 0.362224 0)
(0.0660677 0.36374 0)
(0.0834605 0.364118 0)
(0.100624 0.355799 0)
(0.117109 0.343665 0)
(0.132569 0.330183 0)
(0.146993 0.315591 0)
(0.160388 0.29974 0)
(0.172736 0.282626 0)
(0.184017 0.264335 0)
(0.194206 0.244955 0)
(0.203266 0.224559 0)
(0.21115 0.20321 0)
(0.217792 0.180977 0)
(0.223106 0.157945 0)
(0.227 0.134224 0)
(0.229372 0.109965 0)
(0.230147 0.0853722 0)
(0.229219 0.060665 0)
(0.226671 0.036176 0)
(0.22219 0.0120585 0)
(0.00953237 0.411912 0)
(0.0272004 0.385117 0)
(0.0430835 0.344999 0)
(0.0595225 0.347077 0)
(0.0752125 0.347472 0)
(0.0907798 0.339645 0)
(0.105743 0.328381 0)
(0.119775 0.315868 0)
(0.132892 0.302259 0)
(0.145086 0.287404 0)
(0.156326 0.271312 0)
(0.166582 0.254073 0)
(0.175824 0.235778 0)
(0.184016 0.216508 0)
(0.191115 0.19634 0)
(0.19707 0.175354 0)
(0.201823 0.153643 0)
(0.205313 0.131321 0)
(0.20748 0.108531 0)
(0.208293 0.0854552 0)
(0.207708 0.0622836 0)
(0.205837 0.0392894 0)
(0.202492 0.0165588 0)
(0.00943962 0.39432 0)
(0.0254521 0.368774 0)
(0.0387314 0.329814 0)
(0.0535817 0.332094 0)
(0.0676552 0.332396 0)
(0.0817434 0.325016 0)
(0.0952672 0.314537 0)
(0.10794 0.302889 0)
(0.11981 0.290159 0)
(0.130855 0.276203 0)
(0.141036 0.261043 0)
(0.150323 0.24477 0)
(0.15868 0.227478 0)
(0.166072 0.209248 0)
(0.172462 0.190163 0)
(0.177813 0.170306 0)
(0.182084 0.149774 0)
(0.185237 0.128676 0)
(0.187243 0.107141 0)
(0.188098 0.0853268 0)
(0.187798 0.063393 0)
(0.186468 0.0415609 0)
(0.18399 0.0198629 0)
(0.00946045 0.377435 0)
(0.0240021 0.354647 0)
(0.0348606 0.316613 0)
(0.0481616 0.318717 0)
(0.0606529 0.318805 0)
(0.0733436 0.31183 0)
(0.0854785 0.302064 0)
(0.0968401 0.291188 0)
(0.107506 0.279238 0)
(0.117436 0.266086 0)
(0.126592 0.251767 0)
(0.13494 0.236374 0)
(0.14244 0.219997 0)
(0.149057 0.202718 0)
(0.154757 0.184617 0)
(0.159509 0.16578 0)
(0.163281 0.146298 0)
(0.166049 0.126275 0)
(0.167795 0.105826 0)
(0.168527 0.0850808 0)
(0.168258 0.0641722 0)
(0.167105 0.0432794 0)
(0.164978 0.0223991 0)
(0.00950973 0.361156 0)
(0.0227322 0.342421 0)
(0.0314279 0.305342 0)
(0.0431571 0.306929 0)
(0.0540617 0.306666 0)
(0.0653922 0.300048 0)
(0.0761462 0.290926 0)
(0.0862133 0.280736 0)
(0.095684 0.269472 0)
(0.104498 0.257033 0)
(0.112621 0.243469 0)
(0.120011 0.228874 0)
(0.126624 0.213332 0)
(0.132421 0.196923 0)
(0.137369 0.179725 0)
(0.141433 0.16182 0)
(0.144583 0.143297 0)
(0.146797 0.124249 0)
(0.148059 0.104778 0)
(0.148375 0.0849918 0)
(0.147764 0.064995 0)
(0.146328 0.0449335 0)
(0.143985 0.0247795 0)
(0.00950102 0.345492 0)
(0.0215276 0.331785 0)
(0.0283376 0.295947 0)
(0.0384501 0.296744 0)
(0.0477388 0.295987 0)
(0.0577043 0.289672 0)
(0.0670455 0.281126 0)
(0.0758042 0.27154 0)
(0.0840538 0.260877 0)
(0.0917128 0.249069 0)
(0.0987506 0.236188 0)
(0.105118 0.222322 0)
(0.110762 0.207552 0)
(0.115642 0.191954 0)
(0.119718 0.175602 0)
(0.122953 0.158576 0)
(0.125313 0.140957 0)
(0.126773 0.122835 0)
(0.12732 0.104292 0)
(0.126959 0.0854135 0)
(0.125717 0.0662811 0)
(0.123693 0.0470041 0)
(0.120834 0.0275318 0)
(0.00935778 0.330513 0)
(0.0202607 0.322438 0)
(0.0254701 0.28836 0)
(0.0339306 0.288178 0)
(0.0415661 0.286803 0)
(0.0501372 0.280735 0)
(0.0580124 0.272693 0)
(0.065438 0.263633 0)
(0.0724229 0.253492 0)
(0.0788726 0.242251 0)
(0.084763 0.229994 0)
(0.0900323 0.216804 0)
(0.0946251 0.202758 0)
(0.0984973 0.187928 0)
(0.101605 0.172385 0)
(0.103909 0.156201 0)
(0.105378 0.139455 0)
(0.105988 0.122221 0)
(0.105738 0.104566 0)
(0.104641 0.0865495 0)
(0.102748 0.0682278 0)
(0.100164 0.0496569 0)
(0.0969041 0.0307637 0)
(0.00903835 0.316462 0)
(0.0188401 0.314257 0)
(0.022745 0.282511 0)
(0.0295376 0.281241 0)
(0.035501 0.279174 0)
(0.0426603 0.273301 0)
(0.0490337 0.265683 0)
(0.055125 0.257074 0)
(0.0608208 0.247388 0)
(0.0660365 0.23666 0)
(0.070752 0.224977 0)
(0.0748943 0.212414 0)
(0.0784124 0.199047 0)
(0.0812622 0.184941 0)
(0.0834007 0.170161 0)
(0.0847933 0.154773 0)
(0.085416 0.138847 0)
(0.0852597 0.12244 0)
(0.0843384 0.105597 0)
(0.0826819 0.0883523 0)
(0.0803664 0.0707297 0)
(0.0775022 0.0527154 0)
(0.0741605 0.0342369 0)
(0.00843655 0.303203 0)
(0.0169964 0.30682 0)
(0.0198968 0.278207 0)
(0.0250776 0.275833 0)
(0.0294027 0.27306 0)
(0.0351525 0.267297 0)
(0.0400163 0.260014 0)
(0.0448018 0.25177 0)
(0.0492128 0.242475 0)
(0.0532162 0.23221 0)
(0.0567848 0.221047 0)
(0.0598433 0.209059 0)
(0.0623518 0.196314 0)
(0.0642703 0.182872 0)
(0.0655634 0.168789 0)
(0.0662075 0.154124 0)
(0.0661907 0.138931 0)
(0.0655191 0.12325 0)
(0.0642179 0.107101 0)
(0.062327 0.0904939 0)
(0.0599278 0.073411 0)
(0.0571075 0.0557817 0)
(0.0539425 0.0375665 0)
(0.00791393 0.292676 0)
(0.015417 0.301302 0)
(0.0174643 0.275496 0)
(0.021161 0.272097 0)
(0.0240791 0.268755 0)
(0.0286267 0.263082 0)
(0.0321838 0.256043 0)
(0.0358756 0.24809 0)
(0.0391919 0.239106 0)
(0.0421869 0.229222 0)
(0.0448124 0.218484 0)
(0.0469993 0.206963 0)
(0.04872 0.194724 0)
(0.0499395 0.181818 0)
(0.0506301 0.168296 0)
(0.0507743 0.154205 0)
(0.0503653 0.139587 0)