/*--------------------------------*- C++ -*----------------------------------*\
| =========                 |                                                 |
| \\      /  F ield         | OpenFOAM: The Open Source CFD Toolbox           |
|  \\    /   O peration     | Version:  2206                                  |
|   \\  /    A nd           | Website:  www.openfoam.com                      |
|    \\/     M anipulation  |                                                 |
\*---------------------------------------------------------------------------*/
FoamFile
{
    version     2.0;
    format      ascii;
    arch        "LSB;label=32;scalar=64";
    class       volScalarField;
    location    "1";
    object      alpha.water;
}
// * * * * * * * * * * * * * * * * * * * * * * * * * * * * * * * * * * * * * //

dimensions      [0 0 0 0 0 0 0];

internalField   nonuniform List<scalar> 
2268
(
1
1
1
1
1
1
1
1
1
1
1
1
1
1
1
1
1
1
1
1
1
1
1
1
1
1
1
1
1
1
1
1
1
1
1
1
1
1
1
1
1
1
1
1
1
1
1
1
1
1
1
1
1
1
1
1
1
1
1
1
1
1
1
1
1
1
1
1
1
1
1
1
1
1
1
1
1
1
1
1
1
1
1
1
1
1
1
1
1
1
1
1
1
1
1
1
1
1
1
1
1
1
1
1
1
1
1
1
1
1
1
1
1
1
1
1
1
1
1
1
1
1
1
1
1
1
1
1
1
1
1
1
1
1
1
1
1
1
1
1
1
1
1
1
1
1
1
1
1
1
1
1
1
1
1
1
1
1
1
1
1
1
1
1
1
1
1
1
1
1
1
1
1
1
1
1
1
1
1
1
1
0.999999
0.999995
0.999993
0.281824
0.379633
0.700072
0.874144
0.906059
0.944834
0.9492
0.949206
0.9492
0.949194
0.949083
0.935694
0.910741
0.908954
0.941624
0.949763
0.950137
0.950159
0.950159
0.281838
0.432767
0.932421
0.947152
0.948407
0.948729
0.949206
0.949198
0.948668
0.907822
0.793624
0.725636
0.724807
0.724807
0.729621
0.796247
0.886439
0.950137
0.950159
0.282163
0.636226
0.946399
0.946586
0.947373
0.948435
0.948957
0.895923
0.731385
0.725873
0.725873
0.72534
0.725701
0.753901
0.706401
0.706313
0.706329
0.86193
0.95007
0.29822
0.860001
0.946299
0.946478
0.94655
0.947367
0.869919
0.896158
0.787551
0.729189
0.742421
0.803914
0.91755
0.932477
0.896518
0.706361
0.706313
0.706361
0.881912
0.310999
0.905421
0.946291
0.946299
0.946204
0.858962
0.78948
0.843523
0.931704
0.932523
0.93261
0.93261
0.93261
0.932607
0.932478
0.822971
0.706361
0.70635
0.842583
0.530099
0.729066
0.946137
0.945898
0.757365
0.446074
0.370443
0.409368
0.889108
0.932477
0.932605
0.932614
0.932607
0.932554
0.932218
0.93095
0.744479
0.744018
0.924783
0.675125
0.493328
0.945758
0.703961
0.396038
0.36289
0.358882
0.35453
0.427994
0.851062
0.932477
0.932605
0.932554
0.932218
0.931029
0.927213
0.921886
0.85145
0.924783
0.747735
0.492996
0.623429
0.432729
0.405627
0.557507
0.35453
0.353143
0.353408
0.523964
0.912246
0.932468
0.914738
0.81945
0.779177
0.921939
0.919856
0.890937
0.924783
1
1
1
1
0.999191
0.999087
1
1
1
1
1
1
1
1
1
1
1
1
1
0.999999
0.99891
0.995415
0.996162
0.633491
0.634763
0.632923
0.610319
0.561759
0.566016
0.600964
0.62997
0.623318
0.620927
0.628134
0.650686
0.684374
0.729816
0.78233
0.837976
0.891392
0.939633
0.961796
0.957986
0.937318
0.937194
0.940109
0.000174932
0.000167454
0.000327326
0.00965346
0.0296023
0.0485408
0.080504
0.107458
0.101573
0.0682034
0.0678309
0.0678312
0.0697881
0.0731916
0.0967883
0.131157
0.140026
0.184356
0.543792
0.919699
0.963668
0.965422
0.969268
0.000174276
0.000312403
0.00109471
0.00416356
0.0182688
0.025383
0.0222032
0.028353
0.0366249
0.0522085
0.164602
0.369451
0.383107
0.183248
0.105753
0.310252
0.762306
0.885802
0.911692
0.945614
0.961454
0.964074
0.966004
0.00014903
0.00023888
0.00078301
0.00211567
0.00469388
0.00765374
0.0132849
0.0223652
0.0386129
0.0685233
0.416701
0.773108
0.873451
0.874227
0.869481
0.868862
0.902302
0.929079
0.933724
0.944863
0.95689
0.956229
0.924775
0.000109291
0.00014903
0.000404079
0.000949672
0.00199638
0.00401623
0.00775202
0.0149034
0.0292972
0.0593432
0.421995
0.749396
0.868096
0.878697
0.887119
0.895043
0.902505
0.916488
0.929177
0.933896
0.909121
0.501788
0.227644
6.89087e-05
9.78552e-05
0.00020912
0.000510213
0.00113444
0.00259765
0.00509647
0.0109019
0.024517
0.135804
0.491686
0.733063
0.690695
0.500338
0.48946
0.478433
0.544132
0.839733
0.913792
0.900038
0.719992
0.189608
0.0179499
4.92448e-05
6.89087e-05
0.000206144
0.000895451
0.00179427
0.00202956
0.0031603
0.00741711
0.0202998
0.201623
0.541275
0.64823
0.69204
0.572977
0.478435
0.478433
0.478433
0.48424
0.536778
0.759596
0.760472
0.602355
0.145404
3.61316e-05
7.12587e-05
0.00061205
0.00204634
0.00238956
0.00142333
0.00134842
0.00276465
0.0069099
0.0265591
0.302751
0.598796
0.643507
0.630637
0.641644
0.546968
0.483582
0.486591
0.492739
0.694436
0.710888
0.70981
0.548614
2.83552e-05
0.000137606
0.00180959
0.0020891
0.00222555
0.00094456
0.000569761
0.000885303
0.00192533
0.0036396
0.0126058
0.293634
0.587242
0.64166
0.677077
0.615203
0.489804
0.694855
0.710147
0.711503
0.710888
0.711036
0.697103
1.52518e-05
0.00014531
0.00179639
0.00201875
0.0020049
0.000942823
0.000354597
0.000238649
0.000431249
0.000907449
0.00184437
0.00333118
0.0714152
0.500049
0.696901
0.705545
0.697392
0.703001
0.706077
0.710147
0.711638
0.708807
0.70048
6.49117e-06
8.89665e-05
0.000755085
0.00158084
0.00134125
0.00104857
0.000290706
0.000103767
9.89965e-05
0.000149718
0.000292226
0.00160254
0.00191388
0.000805953
0.0244498
0.414459
0.678108
0.701903
0.703001
0.706148
0.709793
0.571399
0.49545
2.0737e-06
4.83874e-06
5.35318e-05
0.000337563
0.000158692
0.000469807
0.000273226
5.98425e-05
3.06546e-05
3.57554e-05
6.11854e-05
9.77538e-05
0.000113627
0.000171426
0.000242374
7.42757e-05
0.000373238
0.035498
0.111575
0.136686
0.0939551
0.0501829
0.0351567
7.96194e-07
2.01948e-06
1.30688e-05
5.05711e-05
5.20928e-05
4.50627e-05
0.000116448
3.50504e-05
1.09776e-05
9.53613e-06
1.18231e-05
1.61076e-05
2.39668e-05
3.47551e-05
2.41216e-05
1.42917e-05
1.37163e-05
7.7363e-06
2.438e-06
4.77729e-06
1.04006e-05
2.13159e-05
3.9051e-05
3.32003e-07
7.96826e-07
5.99329e-06
2.00252e-05
2.05768e-05
1.69036e-05
1.26429e-05
1.1074e-05
4.01253e-06
2.92986e-06
3.07119e-06
4.04633e-06
7.30904e-06
1.19556e-05
8.74567e-06
5.94832e-06
4.95716e-06
2.78306e-06
1.6312e-06
4.4626e-06
1.08746e-05
1.71065e-05
2.19718e-05
1.67676e-07
4.77948e-07
2.85321e-06
7.37325e-06
7.26222e-06
6.54612e-06
4.45205e-06
3.28429e-06
1.48577e-06
9.67884e-07
9.17791e-07
1.25119e-06
3.37957e-06
6.4075e-06
4.00509e-06
2.45264e-06
2.17042e-06
1.0847e-06
8.78676e-07
1.68163e-06
3.06025e-06
6.64793e-06
1.07721e-05
1.07545e-07
5.1159e-07
1.32952e-06
2.53522e-06
2.5006e-06
2.19141e-06
1.7298e-06
1.10175e-06
5.18946e-07
3.27661e-07
3.13801e-07
5.37711e-07
1.89987e-06
3.13591e-06
2.33617e-06
1.35594e-06
1.19101e-06
5.4177e-07
3.94995e-07
9.27822e-07
1.65034e-06
3.11366e-06
6.99668e-06
7.39455e-08
3.38687e-07
5.44899e-07
8.38892e-07
8.33082e-07
7.02536e-07
5.49749e-07
3.49558e-07
1.71993e-07
1.23284e-07
1.74796e-07
3.13863e-07
1.0278e-05
7.45938e-06
1.59218e-06
8.07263e-07
1.26343e-06
4.07188e-07
3.0606e-07
8.44164e-07
1.08749e-06
1.80543e-06
6.61396e-06
6.4277e-08
1.08615e-07
1.94938e-07
2.70117e-07
2.69914e-07
2.27896e-07
1.71555e-07
1.07054e-07
6.228e-08
5.84673e-08
1.23301e-07
2.13856e-06
1.45962e-05
1.07817e-05
1.55076e-06
6.21827e-07
1.24548e-06
3.39169e-07
2.27726e-07
5.46348e-07
6.61278e-07
1.59447e-06
8.20494e-06
6.10338e-08
4.46599e-08
6.32808e-08
8.56134e-08
8.61282e-08
7.29598e-08
5.34789e-08
3.33656e-08
2.73393e-08
3.92839e-08
5.84674e-08
1.22706e-05
1.45962e-05
8.96599e-06
1.45444e-06
5.73773e-07
4.26587e-07
1.79861e-07
1.66472e-07
1.9796e-07
3.66924e-07
1.68783e-06
1.35945e-05
6.20835e-08
2.72618e-08
2.09697e-08
2.71069e-08
2.75206e-08
2.35131e-08
1.71764e-08
1.22901e-08
1.82397e-08
2.73393e-08
2.78836e-06
1.45197e-05
1.45962e-05
4.10091e-06
1.2997e-06
5.07413e-07
5.61059e-08
7.59616e-08
9.36826e-08
1.42391e-07
5.29879e-07
6.21627e-06
0.000261672
6.28166e-08
2.25928e-08
7.30002e-09
8.79934e-09
9.04845e-09
7.89416e-09
6.0626e-09
5.83056e-09
1.36577e-08
2.72367e-07
1.08243e-05
1.43897e-05
9.37499e-06
1.33421e-06
8.46756e-07
3.64333e-07
3.63194e-08
5.53553e-08
7.40768e-08
1.65355e-07
9.57941e-07
1.44862e-05
0.000315546
5.98651e-08
1.96883e-08
3.13522e-09
3.1765e-09
3.41483e-09
3.13693e-09
2.44481e-09
3.8674e-09
3.20613e-08
1.47152e-06
9.47365e-06
1.10766e-05
2.21259e-06
1.1137e-06
6.42861e-07
1.12847e-07
2.9603e-08
3.59935e-08
5.38214e-08
1.81934e-07
1.02984e-06
7.41247e-06
0.000119463
2.38283e-08
1.36461e-08
1.48784e-09
1.34316e-09
1.47111e-09
1.37352e-09
1.14885e-09
3.31104e-09
1.38163e-07
2.07559e-06
1.74123e-06
1.51239e-06
1.06814e-06
1.32252e-06
7.37691e-07
2.77964e-08
2.57472e-08
2.9298e-08
5.12423e-08
2.24459e-07
1.36126e-06
1.23637e-05
0.000332077
2.47562e-09
4.87606e-09
8.08966e-10
6.67638e-10
7.63821e-10
7.5492e-10
7.36408e-10
6.73166e-09
3.36336e-07
1.00161e-06
1.77762e-07
3.60466e-07
9.07658e-07
1.37091e-06
9.22099e-07
2.39061e-08
2.18686e-08
2.57465e-08
5.88445e-08
3.67263e-07
2.78332e-06
0.000170064
0.000758526
1.3728e-09
1.6186e-09
3.99925e-10
3.64356e-10
4.33215e-10
4.29881e-10
5.8737e-10
1.63083e-08
3.26535e-07
6.1538e-08
6.38163e-08
2.52162e-07
1.25752e-06
1.37967e-06
1.00037e-06
2.18686e-08
1.99898e-08
2.18685e-08
5.1662e-08
3.65395e-07
7.12839e-06
0.000425583
0.000754638
1.08608e-09
9.29166e-10
1.67229e-10
1.73718e-10
2.1447e-10
2.08741e-10
3.86582e-10
2.30913e-08
7.36908e-08
2.14714e-08
3.10094e-08
2.05949e-07
1.37967e-06
1.38152e-06
1.26953e-06
2.98024e-08
1.99898e-08
2.35784e-08
1.29964e-07
1.00737e-06
8.45369e-06
0.00039508
0.000750325
7.37013e-10
5.67311e-10
7.30332e-11
7.15881e-11
9.19083e-11
9.08895e-11
2.26686e-10
2.09459e-08
8.24483e-09
8.94307e-09
1.30756e-08
1.15978e-07
1.3332e-06
1.38104e-06
1.38104e-06
1.1408e-07
1.99898e-08
2.01617e-08
1.29394e-07
1.21326e-06
7.64884e-06
0.000227276
0.000654504
4.22338e-10
3.20577e-10
3.47849e-11
2.86897e-11
3.81266e-11
4.07158e-11
2.84041e-10
1.01243e-08
3.76653e-09
4.14759e-09
6.20912e-09
1.48538e-08
6.74087e-07
1.38153e-06
1.37244e-06
4.35603e-07
2.01617e-08
2.23873e-08
2.26894e-08
2.1985e-07
1.10147e-06
4.38633e-05
0.000132793
2.2292e-10
1.72613e-10
1.84314e-11
1.10146e-11
1.51212e-11
2.10509e-11
3.30791e-10
2.44457e-09
2.31328e-09
2.43787e-09
2.64862e-09
3.58166e-09
1.15196e-08
1.29516e-06
1.36585e-06
1.20459e-06
6.09943e-08
2.29305e-08
1.94451e-08
2.51142e-08
6.69532e-08
6.97039e-07
9.612e-06
1.11871e-10
9.02127e-11
1.06051e-11
3.91319e-12
5.5436e-12
1.21382e-11
2.64109e-10
9.34169e-10
1.62669e-09
1.85272e-09
1.58571e-09
1.46554e-09
3.5371e-09
4.34028e-07
1.36225e-06
1.28454e-06
1.09563e-07
1.95797e-08
1.67788e-08
1.43046e-08
2.78338e-08
2.71978e-07
2.85541e-06
5.32658e-11
4.56823e-11
6.27915e-12
1.25916e-12
1.7642e-12
6.97563e-12
1.46006e-10
5.37408e-10
1.10639e-09
1.427e-09
1.25926e-09
7.98789e-10
1.44648e-09
8.332e-09
5.7243e-07
7.30486e-07
1.98201e-07
1.67688e-08
1.38271e-08
9.25547e-09
1.82379e-08
7.43556e-08
7.98135e-07
2.39135e-11
2.22608e-11
3.62819e-12
3.1205e-13
3.74981e-13
3.49025e-12
6.14664e-11
2.7517e-10
6.13679e-10
9.2663e-10
9.25448e-10
5.86293e-10
7.41887e-10
2.59278e-09
2.30892e-08
4.71155e-08
1.57278e-07
3.54804e-08
9.72119e-09
6.73192e-09
7.8972e-09
2.477e-08
1.9531e-07
1.00948e-11
1.03763e-11
1.95131e-12
3.35029e-14
2.58205e-14
1.24996e-12
2.35603e-11
1.19965e-10
2.91647e-10
4.88061e-10
5.97549e-10
4.62123e-10
4.38976e-10
9.56151e-10
5.03242e-09
8.75344e-09
3.37819e-08
3.3503e-08
1.18684e-08
4.82447e-09
3.72126e-09
6.45652e-09
4.8132e-08
4.0083e-12
4.62463e-12
9.24699e-13
0
-7.09838e-14
1.68279e-13
8.51119e-12
4.70899e-11
1.25199e-10
2.26874e-10
3.22425e-10
3.33944e-10
2.9086e-10
4.54623e-10
1.57645e-09
2.50094e-09
2.81647e-09
1.29843e-08
9.37935e-09
4.57962e-09
2.18051e-09
3.23589e-09
1.13502e-08
1.5006e-12
1.96825e-12
3.97619e-13
-1.01705e-13
-2.1279e-13
0
2.84636e-12
1.69444e-11
4.92291e-11
9.63238e-11
1.47634e-10
1.87988e-10
1.84435e-10
2.41244e-10
5.77846e-10
1.00183e-09
1.10896e-09
1.5255e-09
4.96192e-09
3.58441e-09
1.8438e-09
1.4235e-09
2.58854e-09
5.31748e-13
7.99691e-13
1.53125e-13
-1.4432e-13
-2.56813e-13
-3.42697e-14
7.5333e-13
5.57291e-12
1.78252e-11
3.76101e-11
6.10849e-11
8.44225e-11
1.06752e-10
1.32602e-10
2.22759e-10
4.35008e-10
6.97982e-10
8.14874e-10
1.3853e-09
2.15474e-09
1.56194e-09
9.26334e-10
7.5924e-10
1.79319e-13
3.10714e-13
4.60221e-14
-1.41337e-13
-2.44065e-13
-1.08937e-13
7.63281e-14
1.68908e-12
5.98305e-12
1.35368e-11
2.33233e-11
3.36054e-11
4.57717e-11
6.58889e-11
1.07817e-10
2.19764e-10
3.74854e-10
4.72015e-10
5.80313e-10
8.51348e-10
9.66797e-10
7.34219e-10
4.32386e-10
5.77259e-14
1.15409e-13
5.28918e-15
-1.17458e-13
-2.04056e-13
-1.34632e-13
0
4.70741e-13
1.85456e-12
4.52149e-12
8.25125e-12
1.23783e-11
1.73587e-11
2.62098e-11
4.71432e-11
9.02535e-11
1.52797e-10
2.13313e-10
2.61151e-10
3.38351e-10
4.41115e-10
4.28628e-10
3.08024e-10
1.84797e-14
4.09481e-14
0
-8.83429e-14
-1.56247e-13
-1.2868e-13
-2.15762e-15
8.57286e-14
5.23225e-13
1.41175e-12
2.72317e-12
4.27819e-12
6.15336e-12
9.28656e-12
1.63264e-11
3.0307e-11
5.22489e-11
7.99022e-11
1.0711e-10
1.33717e-10
1.70183e-10
1.92784e-10
1.7791e-10
2.92462e-15
1.45602e-14
-6.16531e-15
-6.1794e-14
-1.11688e-13
-1.06954e-13
-3.37341e-14
3.21471e-15
1.40148e-13
4.27112e-13
8.68861e-13
1.37065e-12
1.97347e-12
3.02495e-12
5.34728e-12
9.97827e-12
1.74339e-11
2.7457e-11
3.82275e-11
4.69856e-11
5.36307e-11
5.91471e-11
5.78402e-11
2.64852e-15
2.97545e-15
-7.11262e-15
-4.08861e-14
-7.55977e-14
-8.08607e-14
-4.16016e-14
-1.27214e-31
1.65804e-14
6.72011e-14
1.61436e-13
3.03773e-13
4.86726e-13
7.41244e-13
1.19919e-12
2.13237e-12
3.8067e-12
6.35133e-12
9.61743e-12
1.30732e-11
1.67818e-11
2.0808e-11
2.44078e-11
0.995859
0.885433
0.745024
0.746258
0.992835
0.948858
0.807525
0.752785
0.981937
0.914632
0.78683
0.770472
0.941967
0.479618
0.206345
0.188353
0.490433
0.00417742
0.000707714
0.000105465
0.0733769
0.000609342
8.08791e-05
7.65839e-06
0.00351699
8.08823e-05
7.88602e-06
1.21972e-06
0.0236805
1.11351e-05
1.25013e-06
8.13294e-07
0.13257
2.77363e-06
8.7514e-07
8.01878e-07
0.481133
0.0169199
0.00183935
7.97499e-07
0.688948
0.437646
0.00799006
8.01881e-07
0.413645
0.197342
0.0230777
8.01881e-07
0.0165531
0.000281013
0.000620086
0.000233543
7.41406e-05
0.000167959
0.000551639
0.00181995
3.90507e-05
0.000447844
0.00227581
0.00219808
4.05399e-05
0.00115836
0.00233036
0.00107614
9.54141e-05
0.00185799
0.00232808
2.99542e-05
0.000339348
0.00186395
0.0010096
3.28313e-05
0.000513203
0.00184644
1.46093e-05
7.01162e-05
0.000595964
0.00136429
9.31963e-06
7.14262e-05
0.000696511
0.000457169
5.95186e-06
3.26259e-05
0.000680391
0.000259426
5.10137e-06
4.6014e-06
0.000334216
0.000461032
5.95186e-06
5.10136e-06
0.000758526
0.000543109
7.5103e-06
2.05468e-05
0.000758526
0.000758526
0.000252459
0.000340876
0.000758526
0.000517158
2.99888e-05
0.000577364
0.000754638
4.55668e-05
1.59169e-05
1.49597e-05
0.000630101
0.000115359
1.49597e-05
1.37158e-05
0.000140011
0.00058718
0.000142574
3.14976e-05
5.77765e-05
0.000629561
0.000647023
0.000650852
1.90233e-05
0.000647023
0.000650852
0.000651047
2.63802e-06
0.000638224
0.000650971
0.000650852
7.61457e-07
0.000172447
0.000605762
0.000394864
2.01062e-07
7.62701e-07
6.47949e-05
2.95832e-05
4.79477e-08
2.01219e-07
1.37409e-06
3.45479e-06
1.04954e-08
4.79477e-08
1.95526e-07
4.92684e-07
2.23475e-09
1.04954e-08
2.608e-08
4.91052e-08
6.56072e-10
2.45258e-09
3.61072e-09
4.3515e-09
2.206e-10
6.72167e-10
7.0639e-10
9.78412e-10
1.23333e-10
1.99324e-10
2.35698e-10
4.36993e-10
4.90915e-11
7.86845e-11
1.74173e-10
3.12876e-10
2.69536e-11
3.62721e-11
1.054e-10
2.10506e-10
0.809636
0.581865
0.435134
0.431684
0.674302
0.790733
0.444955
0.353143
0.353143
0.554354
0.911297
0.852594
0.469329
0.21799
0.184909
0.54315
0.912298
0.921355
0.923285
0.810901
0.80973
0.783252
0.805065
0.805065
0.80251
0.621434
0.377591
0.597368
0.769934
0.69656
0.0735797
0.00379374
0.00586312
0.00669391
0.00836605
0.356171
0.915015
0.922039
0.81067
0.81067
0.774197
0.749945
0.756403
0.782719
0.77455
0.767589
0.75966
0.508707
0.0490025
0.00191315
0.00176246
0.00646118
0.0130981
0.0109266
0.00962919
0.290852
0.892525
0.249846
0.253555
0.1515
0.0978732
0.154799
0.350897
0.511208
0.456791
0.190101
0.0336466
0.00168622
0.000420915
0.000457831
0.0123989
0.0243097
0.0228465
0.00899615
0.00962919
0.212318
4.3123e-05
-6.21834e-06
-8.92173e-06
5.96496e-06
2.30423e-05
8.47929e-05
0.000293164
0.0167664
0.00154773
0.00107854
0.000332938
5.27247e-05
0.00010152
0.00524847
0.0243485
0.0122195
0.00294266
0.0114927
0.0120294
4.55791e-07
9.47418e-07
5.00441e-07
2.50796e-06
6.82995e-06
2.31304e-05
7.51145e-05
0.000364319
0.000254569
0.000187796
4.32024e-05
1.30685e-06
2.82435e-05
0.00214889
0.0242655
0.000785949
0.000124298
0.00556332
0.0116411
8.17685e-07
9.02843e-07
9.8469e-07
1.26384e-06
2.67086e-06
1.10706e-05
8.53462e-05
7.57731e-05
7.30328e-05
3.03949e-05
1.35899e-06
6.65023e-07
1.26864e-06
0.00573421
0.0237785
0.000113987
0.000113933
0.000545857
0.0118953
8.20437e-07
8.20371e-07
9.02024e-07
3.34848e-06
3.2353e-05
7.45905e-05
5.71863e-05
5.79031e-05
3.84893e-05
4.49253e-06
6.7387e-07
6.76727e-07
7.41079e-07
0.0145831
0.0201537
0.000112116
0.000114035
0.000125131
0.00766263
8.13296e-07
8.22943e-07
1.22594e-06
3.19094e-06
0.000134573
0.0027742
0.00222953
0.000156293
9.36703e-06
1.72566e-06
8.01962e-07
6.76727e-07
7.02997e-07
0.0115824
0.00356301
0.000108101
0.000170744
0.000282155
0.00708447
8.01881e-07
8.33018e-07
2.39505e-06
1.19989e-05
0.00262513
0.0044069
0.00441423
0.0032053
0.00013018
9.27397e-06
1.58542e-06
8.01383e-07
7.16581e-07
0.00114481
4.94515e-05
7.52705e-05
0.000535863
0.00168488
0.0072919
8.01841e-07
3.86735e-06
0.000113772
0.00156675
0.004295
0.00440541
0.00443294
0.00442255
0.00198226
6.02404e-05
7.59043e-06
1.39234e-06
8.21286e-07
1.39234e-06
2.67906e-05
4.94515e-05
0.000657533
0.00363184
0.00451535
6.69448e-06
0.000817819
0.00208866
0.00355549
0.00362192
0.00336999
0.00440832
0.00443294
0.00433478
0.000443327
1.42516e-05
2.94119e-06
1.81772e-06
2.93938e-06
3.09136e-05
5.86485e-05
0.000392489
0.00465022
0.0044382
0.00155047
0.0023696
0.00237045
0.00176174
2.20445e-05
1.05478e-05
0.00337778
0.00440832
0.00432936
0.00147866
1.70189e-05
5.43253e-06
5.05246e-06
2.57619e-05
0.000121365
8.26296e-05
1.71267e-05
0.00161369
0.00461528
0.00229765
0.0023696
0.00149364
5.51827e-06
5.96047e-06
7.60773e-06
0.000580739
0.00432936
0.00429198
0.00212695
1.88672e-05
1.34875e-05
3.70202e-05
0.00223224
0.000253708
0.000216604
2.0416e-06
0.000291843
0.00301508
0.00140927
6.75913e-05
3.5881e-06
4.08744e-06
5.05672e-06
5.96165e-06
5.28701e-05
0.00248578
0.00402619
0.00122489
2.52242e-05
1.88683e-05
0.000185415
0.00366332
0.000256009
0.000192994
6.48054e-08
5.04918e-05
0.00139683
6.96145e-06
3.58852e-06
2.59801e-06
3.75507e-06
8.53952e-06
3.40975e-05
2.81082e-05
0.000146061
0.000561235
0.000160345
1.71631e-05
2.0077e-05
0.000477559
0.00366474
0.00027708
1.25408e-05
1.66845e-09
8.41749e-07
0.000103929
2.37635e-05
2.23073e-05
1.90581e-06
4.23372e-06
4.26918e-05
4.33718e-05
2.84293e-05
2.29489e-05
1.18539e-05
1.17016e-05
1.00522e-05
1.4715e-05
0.000834783
0.00366469
0.00204154
1.66845e-09
1.66845e-09
1.80163e-09
1.93208e-09
6.67854e-05
5.93434e-05
3.28119e-07
1.02556e-06
2.55137e-05
4.16913e-05
1.9079e-05
1.54849e-06
2.04575e-06
3.6622e-06
4.73435e-06
9.29331e-06
0.00105262
0.00366473
0.00361227
1.87851e-09
1.63336e-09
3.97655e-09
1.73026e-08
7.06231e-05
1.6017e-05
2.63435e-07
2.11656e-07
1.76968e-07
1.27565e-07
6.63132e-08
4.70797e-07
3.57485e-07
8.35525e-07
1.84666e-06
5.57677e-06
0.000943748
0.00363378
0.00135643
3.16684e-09
1.29285e-09
2.22805e-09
1.74822e-08
4.20894e-05
4.66616e-07
3.28119e-07
3.80438e-07
3.65942e-07
1.1508e-07
5.55319e-08
4.6092e-08
6.51517e-08
1.6604e-07
4.71936e-07
5.03337e-06
0.00046481
0.00188433
1.21461e-07
7.45328e-09
4.28768e-10
3.58467e-10
9.39995e-10
5.90238e-06
6.08996e-07
4.66616e-07
4.883e-07
1.93928e-07
5.69998e-08
4.37916e-08
3.95017e-08
3.31277e-08
4.85252e-08
1.10648e-07
4.45783e-06
0.000119291
1.9095e-06
4.93027e-07
3.09502e-08
3.45541e-10
2.61908e-10
2.48479e-10
3.50177e-06
9.68018e-07
9.65117e-07
9.66867e-07
5.46004e-07
1.69172e-07
3.91024e-08
3.31292e-08
3.04817e-08
3.05251e-08
4.53815e-08
2.70545e-07
3.731e-05
5.23785e-06
1.57803e-06
1.61557e-07
7.05572e-08
1.49905e-10
2.3751e-10
4.6009e-06
2.74489e-06
3.77048e-06
4.09448e-06
2.96736e-06
1.21237e-06
1.24705e-07
2.93326e-08
2.97605e-08
2.86702e-08
2.91126e-08
3.08154e-08
2.16986e-05
4.72901e-06
5.06466e-06
6.4055e-07
1.09586e-06
9.17689e-11
8.71226e-11
5.57384e-05
8.3427e-05
0.000127257
0.000144364
7.59945e-05
1.20216e-05
1.42207e-06
3.34712e-08
2.85889e-08
2.85852e-08
2.84742e-08
2.85562e-08
4.30524e-07
8.84246e-07
0.000112342
5.08528e-05
1.22845e-06
2.49877e-09
6.21241e-11
0.00088239
0.000995625
0.00114918
0.00127842
0.0011373
0.000657464
9.87504e-05
3.21201e-07
2.94492e-08
2.8473e-08
2.84742e-08
2.84742e-08
2.85562e-08
7.91519e-05
0.000329974
0.000141693
2.22051e-08
6.38619e-11
5.92713e-11
0.00117419
0.00125144
0.00132365
0.00136629
0.00137443
0.00138338
0.00126174
0.000144176
9.47928e-08
2.97615e-08
2.8474e-08
2.85562e-08
3.38677e-08
0.000322586
0.000329974
0.00014598
1.39218e-08
8.43427e-11
4.68787e-11
1.48838e-05
0.00016678
0.000488921
0.000906795
0.00138338
0.00139851
0.0013954
0.00137191
2.15245e-06
9.52423e-08
3.81401e-08
3.38677e-08
4.87111e-05
0.000326368
0.000329974
4.67203e-05
6.04616e-09
-9.21015e-13
8.72913e-12
4.99552e-06
2.57821e-06
2.42039e-07
5.44053e-07
0.000222596
0.00130687
0.00139905
0.00138837
0.000926032
1.3896e-06
2.56144e-07
1.21611e-07
0.000295478
0.000322762
0.000248997
6.02706e-06
1.12792e-09
-1.48046e-11
3.98724e-13
9.95677e-05
9.48116e-07
1.48036e-07
5.18778e-08
2.77844e-07
1.48738e-05
0.00134602
0.00137722
0.00137722
0.000198503
3.22606e-06
3.42374e-06
0.000304974
0.00032223
1.49836e-07
2.08814e-09
1.78954e-11
-3.38083e-13
1.95062e-14
0.000624395
7.94018e-05
5.18778e-08
3.30749e-08
2.41771e-08
7.00314e-08
6.91308e-05
0.00137
0.00135682
0.0012903
0.000405718
0.000148262
0.000152198
5.89681e-05
8.68657e-11
-1.06239e-11
-2.38129e-13
2.93007e-13
6.90473e-16
0.000650852
0.000152691
8.65013e-08
2.81052e-08
1.62145e-08
1.89676e-09
7.61474e-10
0.000122847
0.00117898
0.00126797
0.00121659
0.000296677
2.7637e-09
2.20104e-10
2.5499e-12
-7.39254e-15
-3.77352e-16
9.58079e-16
9.86178e-17
0.00038718
4.52307e-06
6.87205e-08
2.68709e-08
2.73247e-08
9.46944e-10
6.24466e-10
2.48359e-10
1.28003e-10
0.000722101
0.00117176
5.29616e-05
4.31517e-10
1.77426e-11
4.22658e-13
6.92971e-14
2.98587e-15
4.25471e-17
2.39459e-18
1.00255e-05
3.79493e-07
6.21016e-08
3.15081e-08
4.72462e-08
8.82659e-09
6.45236e-10
1.28003e-10
9.4041e-11
9.81928e-11
0.000174786
1.01105e-08
2.6071e-09
4.01702e-10
9.63927e-11
1.01008e-12
8.36315e-15
2.01401e-17
7.32243e-19
7.85514e-06
1.35649e-07
1.98404e-08
3.89278e-09
1.92412e-09
5.69892e-09
2.44296e-09
1.19031e-09
3.13987e-10
9.40409e-11
1.00881e-10
2.07082e-10
1.16694e-08
2.46192e-08
2.51525e-10
2.12706e-13
4.11569e-15
2.18539e-18
4.4785e-19
1.93814e-06
3.8407e-08
4.00546e-09
1.72953e-09
1.21112e-09
1.21569e-09
2.14726e-09
2.13877e-09
9.0282e-10
1.0088e-10
1.19783e-10
7.89534e-10
5.56248e-07
5.03415e-08
2.90878e-12
2.09264e-14
6.13275e-16
4.73746e-19
2.14027e-19
2.76634e-07
1.2133e-08
1.64342e-09
1.21112e-09
1.10609e-09
1.19046e-09
2.00398e-09
1.987e-09
8.58951e-10
1.19738e-10
1.38888e-10
2.02033e-06
2.1169e-06
5.08662e-08
3.05774e-12
1.82281e-14
1.03199e-16
2.13828e-19
5.31136e-20
3.14447e-08
2.82421e-09
1.08264e-09
1.20357e-09
1.07522e-09
1.18719e-09
1.22209e-09
8.33219e-10
2.01349e-10
8.21315e-11
1.36118e-10
6.03012e-06
1.81546e-06
1.53978e-10
1.17313e-12
6.34098e-15
3.40954e-17
5.17897e-20
8.99431e-21
3.58528e-09
1.33579e-09
1.03013e-09
7.59845e-10
5.67442e-10
6.69127e-10
5.20137e-10
1.85624e-10
4.96729e-13
6.35193e-12
1.79954e-08
6.25001e-06
5.89393e-07
4.93529e-11
3.24709e-13
1.5421e-15
7.23774e-18
8.00415e-21
7.88845e-22
9.94001e-10
8.80938e-10
7.92103e-10
5.6329e-10
4.13969e-10
3.54056e-10
1.76156e-10
2.0617e-11
2.40998e-14
4.96723e-13
1.51901e-06
6.35188e-06
2.05801e-07
1.09088e-11
6.45285e-14
-2.04088e-16
8.21471e-19
7.14283e-22
3.01143e-23
5.99362e-10
5.93449e-10
5.1793e-10
3.43341e-10
2.49594e-10
1.53365e-10
3.57779e-11
8.30334e-13
4.61559e-16
2.40949e-14
4.24958e-05
6.44532e-06
2.90253e-10
1.22237e-12
-1.02044e-13
1.96955e-17
4.30496e-20
2.86551e-23
5.18471e-25
4.34707e-10
4.17162e-10
3.23629e-10
1.94486e-10
1.04351e-10
3.49675e-11
2.87391e-12
4.06386e-15
6.5304e-20
1.52059e-07
5.42983e-05
2.23097e-06
6.40797e-11
2.38711e-13
-3.80162e-14
1.04558e-18
1.31918e-21
5.2086e-25
8.0254e-29
2.44276e-10
2.16374e-10
1.19546e-10
4.48808e-11
1.22486e-11
5.83146e-13
8.99046e-17
2.60825e-38
-3.11338e-29
3.58043e-07
3.75761e-05
2.64223e-07
-4.18173e-13
-5.32413e-14
1.23055e-17
-5.76727e-34
2.89476e-37
1.95339e-41
4.97807e-45
)
;

boundaryField
{
    leftWall
    {
        type            zeroGradient;
    }
    rightWall
    {
        type            zeroGradient;
    }
    lowerWall
    {
        type            zeroGradient;
    }
    atmosphere
    {
        type            inletOutlet;
        inletValue      uniform 0;
        value           nonuniform List<scalar> 
46
(
2.64852e-15
2.97545e-15
-7.11262e-15
-4.08861e-14
-7.55977e-14
-8.08607e-14
-4.16016e-14
-1.27214e-31
1.65804e-14
6.72011e-14
1.61436e-13
3.03773e-13
4.86726e-13
7.41244e-13
1.19919e-12
2.13237e-12
3.8067e-12
6.35133e-12
9.61743e-12
1.30732e-11
1.67818e-11
2.0808e-11
2.44078e-11
2.69536e-11
3.62721e-11
1.054e-10
2.10506e-10
2.44276e-10
2.16374e-10
0
0
0
0
0
0
0
0
0
0
0
0
0
0
0
0
0
)
;
    }
    defaultFaces
    {
        type            empty;
    }
}


// ************************************************************************* //
