/*--------------------------------*- C++ -*----------------------------------*\
| =========                 |                                                 |
| \\      /  F ield         | OpenFOAM: The Open Source CFD Toolbox           |
|  \\    /   O peration     | Version:  2206                                  |
|   \\  /    A nd           | Website:  www.openfoam.com                      |
|    \\/     M anipulation  |                                                 |
\*---------------------------------------------------------------------------*/
FoamFile
{
    version     2.0;
    format      ascii;
    arch        "LSB;label=32;scalar=64";
    class       surfaceScalarField;
    location    "1";
    object      alphaPhi0.water;
}
// * * * * * * * * * * * * * * * * * * * * * * * * * * * * * * * * * * * * * //

dimensions      [0 3 -1 0 0 0 0];

oriented        oriented;

internalField   nonuniform List<scalar> 
4432
(
-8.57434e-07
8.57433e-07
-1.17757e-06
3.20142e-07
-8.40972e-07
-3.36597e-07
-1.54774e-07
-6.86198e-07
6.58573e-07
-8.13347e-07
1.306e-06
-6.47424e-07
1.64045e-06
-3.3445e-07
1.64781e-06
-7.35372e-09
1.36827e-06
2.79547e-07
8.43601e-07
5.2467e-07
1.49572e-07
6.94032e-07
-6.24046e-07
7.73618e-07
-1.40954e-06
7.85495e-07
-2.18051e-06
7.70966e-07
-2.95692e-06
7.76409e-07
-3.76452e-06
8.07603e-07
-4.64845e-06
8.83929e-07
-5.60273e-06
9.54269e-07
-6.31549e-06
7.12759e-07
-6.24052e-06
-7.497e-08
-5.1989e-06
-1.04162e-06
-2.87462e-06
-2.32428e-06
-2.87462e-06
-9.62879e-07
1.82032e-06
-1.20533e-06
5.62595e-07
-9.28579e-07
-6.13345e-07
-3.30181e-07
-1.2846e-06
4.70449e-07
-1.61397e-06
1.18419e-06
-1.36116e-06
1.57659e-06
-7.26844e-07
1.63305e-06
-6.3805e-08
1.44596e-06
4.66639e-07
1.09918e-06
8.71462e-07
6.294e-07
1.16381e-06
6.40605e-08
1.33895e-06
-5.50598e-07
1.40015e-06
-1.16173e-06
1.3821e-06
-1.73869e-06
1.35337e-06
-2.29294e-06
1.36185e-06
-2.80466e-06
1.39564e-06
-3.21456e-06
1.36417e-06
-3.40076e-06
8.98963e-07
-3.4393e-06
-3.64237e-08
-2.95087e-06
-1.53005e-06
-1.84583e-06
-3.42933e-06
-4.72045e-06
-9.94089e-07
2.81441e-06
-1.42627e-06
9.94778e-07
-1.65932e-06
-3.80299e-07
-1.50449e-06
-1.43942e-06
-8.32811e-07
-2.28565e-06
1.02838e-07
-2.2968e-06
8.15268e-07
-1.43927e-06
1.08634e-06
-3.34874e-07
1.01366e-06
5.39322e-07
7.14117e-07
1.17101e-06
2.91228e-07
1.58669e-06
-1.99876e-07
1.83005e-06
-7.12853e-07
1.91313e-06
-1.20054e-06
1.86979e-06
-1.58765e-06
1.74048e-06
-1.8061e-06
1.58029e-06
-1.81678e-06
1.40633e-06
-1.59942e-06
1.14681e-06
-1.2925e-06
5.92051e-07
-8.53174e-07
-4.75755e-07
-4.05905e-07
-1.97732e-06
-2.26209e-07
-3.60903e-06
-4.94666e-06
-1.1605e-06
3.97491e-06
-2.18541e-06
2.01969e-06
-3.24743e-06
6.81718e-07
-3.6325e-06
-1.05434e-06
-3.22523e-06
-2.69292e-06
-2.2166e-06
-3.30544e-06
-1.00015e-06
-2.65571e-06
-1.58791e-07
-1.17623e-06
1.56991e-07
2.23537e-07
9.98767e-08
1.22812e-06
-1.76914e-07
1.86348e-06
-5.7348e-07
2.22661e-06
-1.02737e-06
2.36702e-06
-1.47513e-06
2.31755e-06
-1.85293e-06
2.11827e-06
-2.0797e-06
1.80706e-06
-2.06267e-06
1.3893e-06
-1.75403e-06
8.38171e-07
-1.22271e-06
6.07207e-08
-6.3945e-07
-1.05903e-06
-2.02633e-07
-2.41414e-06
-2.42748e-08
-3.78738e-06
-4.97093e-06
-1.4316e-06
5.40651e-06
-3.09603e-06
3.68411e-06
-4.6559e-06
2.24159e-06
-5.4405e-06
-2.69743e-07
-5.44703e-06
-2.6864e-06
-4.71571e-06
-4.03676e-06
-3.40856e-06
-3.96286e-06
-2.01682e-06
-2.56798e-06
-1.14285e-06
-6.50437e-07
-8.04612e-07
8.89869e-07
-8.17922e-07
1.87678e-06
-1.04207e-06
2.45076e-06
-1.38639e-06
2.71134e-06
-1.79204e-06
2.72319e-06
-2.2015e-06
2.52773e-06
-2.54247e-06
2.14803e-06
-2.72354e-06
1.57038e-06
-2.65358e-06
7.68201e-07
-2.3175e-06
-2.75349e-07
-1.7427e-06
-1.63383e-06
-1.07395e-06
-3.08288e-06
-4.07579e-07
-4.45375e-06
-5.37851e-06
-1.402e-06
6.80851e-06
-3.06801e-06
5.35012e-06
-4.52801e-06
3.70159e-06
-5.34214e-06
5.44392e-07
-5.694e-06
-2.33454e-06
-5.62464e-06
-4.10613e-06
-4.97874e-06
-4.60877e-06
-3.76105e-06
-3.78568e-06
-2.57425e-06
-1.83724e-06
-1.87221e-06
1.87832e-07
-1.6104e-06
1.61497e-06
-1.63746e-06
2.47781e-06
-1.8461e-06
2.91997e-06
-2.18519e-06
3.06229e-06
-2.61573e-06
2.95826e-06
-3.07347e-06
2.60577e-06
-3.47263e-06
1.96953e-06
-3.69898e-06
9.94561e-07
-3.69403e-06
-2.80306e-07
-3.31954e-06
-2.00832e-06
-2.48134e-06
-3.92107e-06
-1.12287e-06
-5.81216e-06
-6.50137e-06
-7.13354e-07
7.52186e-06
-1.68839e-06
6.32516e-06
-2.35934e-06
4.37253e-06
-2.73418e-06
9.19233e-07
-3.08063e-06
-1.9881e-06
-3.68918e-06
-3.49758e-06
-4.2616e-06
-4.03636e-06
-4.16143e-06
-3.88584e-06
-3.50425e-06
-2.49442e-06
-2.83761e-06
-4.78819e-07
-2.45152e-06
1.22887e-06
-2.32123e-06
2.34751e-06
-2.39675e-06
2.99549e-06
-2.66058e-06
3.32611e-06
-3.10489e-06
3.40258e-06
-3.69907e-06
3.19995e-06
-4.35023e-06
2.6207e-06
-4.94764e-06
1.59197e-06
-5.1874e-06
-4.05444e-08
-4.96512e-06
-2.23058e-06
-3.93204e-06
-4.95415e-06
-1.7462e-06
-7.998e-06
-8.24756e-06
5.04668e-07
7.01719e-06
5.77959e-07
6.25187e-06
1.13856e-06
3.81193e-06
1.56995e-06
4.87839e-07
1.52965e-06
-1.9478e-06
4.90653e-07
-2.45859e-06
-1.13485e-06
-2.41085e-06
-2.43624e-06
-2.58446e-06
-2.97195e-06
-1.95871e-06
-3.04829e-06
-4.0249e-07
-3.01329e-06
1.19387e-06
-2.93051e-06
2.26473e-06
-2.93367e-06
2.99865e-06
-3.13725e-06
3.52969e-06
-3.61774e-06
3.88306e-06
-4.3588e-06
3.941e-06
-5.27021e-06
3.53211e-06
-6.17986e-06
2.50162e-06
-6.94005e-06
7.19659e-07
-7.31134e-06
-1.85929e-06
-6.69349e-06
-5.57189e-06
-4.5436e-06
-1.01475e-05
-1.27908e-05
2.94095e-06
-2.70086e-06
8.94748e-06
-1.01271e-06
5.99859e-06
6.11801e-06
-2.43635e-05
3.33249e-05
-6.38299e-05
3.99431e-05
-7.85796e-05
1.09786e-05
-6.7232e-05
-1.13365e-05
-5.78532e-05
-9.36774e-06
-5.81833e-05
3.40422e-07
-6.71259e-05
8.95126e-06
-7.6512e-05
9.41289e-06
-7.28504e-05
-1.64245e-06
-5.9529e-05
-1.01269e-05
-4.7473e-05
-1.04987e-05
-3.84386e-05
-9.2551e-06
-3.14674e-05
-6.97648e-06
-2.56063e-05
-5.85797e-06
-1.51837e-05
-1.04197e-05
-1.51808e-05
1.22389e-06
-4.03075e-06
-7.59741e-06
6.59019e-06
-4.23408e-05
4.091e-05
-8.49829e-05
7.56344e-05
-0.000104868
5.94945e-05
-9.92501e-05
5.11849e-06
-9.42954e-05
-1.62801e-05
-9.6386e-05
-7.26595e-06
-9.74475e-05
1.58032e-06
-8.53935e-05
3.97883e-06
-6.23117e-05
-4.34909e-06
-4.31229e-05
-1.83884e-05
-2.96311e-05
-2.40967e-05
-2.04954e-05
-2.03643e-05
-1.47562e-05
-1.51585e-05
-1.42232e-05
-7.37087e-06
-1.51355e-05
-5.21332e-06
-1.12242e-05
-1.43279e-05
-2.64021e-05
-3.33741e-06
-9.67341e-07
-4.44046e-05
4.25103e-05
-8.14688e-05
7.79579e-05
-0.000100602
9.4761e-05
-8.92438e-05
4.78007e-05
-7.42963e-05
-1.01615e-05
-7.72308e-05
-1.33264e-05
-7.37105e-05
1.76813e-07
-6.36163e-05
-5.5446e-08
-5.50059e-05
-5.40539e-06
-4.03424e-05
-1.97864e-05
-2.69811e-05
-3.23577e-05
-1.79043e-05
-3.41714e-05
-9.83279e-06
-3.42459e-05
-1.97701e-06
-2.30228e-05
2.05765e-06
-1.14155e-05
1.58464e-06
-4.75004e-06
-6.74454e-07
-8.78378e-06
-2.70706e-05
-1.19515e-05
7.59504e-06
-6.55011e-05
8.58499e-05
-9.09395e-05
0.000103405
-8.35633e-05
8.73545e-05
-4.57668e-05
1.00164e-05
-2.09068e-05
-3.53543e-05
-3.83549e-05
2.98195e-06
-5.36166e-05
2.23662e-05
-5.0293e-05
-1.1255e-06
-3.83922e-05
-1.80712e-05
-2.53016e-05
-4.12675e-05
-2.00938e-05
-5.03761e-05
-1.88588e-05
-4.51641e-05
-1.55219e-05
-3.7572e-05
-5.49903e-06
-3.48294e-05
4.23738e-06
-2.11627e-05
7.94137e-06
-8.46398e-06
4.31689e-06
-5.17011e-06
-2.0332e-05
-1.74198e-05
2.37697e-05
-6.96089e-05
0.000105572
-8.11525e-05
0.000114946
-5.53527e-05
6.15633e-05
-4.88873e-06
-4.04498e-05
2.21303e-05
-5.09362e-05
5.94949e-06
1.14688e-05
-3.24243e-05
3.71757e-05
-4.51242e-05
1.07067e-05
-3.46523e-05
-2.92608e-05
-2.08228e-05
-5.51886e-05
-1.86301e-05
-5.25651e-05
-2.54054e-05
-3.83845e-05
-2.74583e-05
-3.5515e-05
-1.87808e-05
-4.34963e-05
-3.63808e-06
-3.87774e-05
5.03135e-06
-1.71442e-05
5.10147e-06
-5.25066e-06
-1.35013e-05
-1.22297e-05
6.64847e-05
-6.14526e-05
8.55385e-05
-6.20495e-05
0.000115578
-1.77611e-05
1.72702e-05
1.97721e-05
-6.149e-05
2.0629e-05
-4.15095e-05
1.71782e-05
1.47891e-05
-1.79939e-06
4.0359e-05
-2.42926e-05
2.25685e-05
-2.07055e-05
-3.28485e-05
-1.54475e-05
-6.04434e-05
-2.35123e-05
-4.44957e-05
-3.57005e-05
-2.61921e-05
-3.87851e-05
-3.24198e-05
-3.21207e-05
-5.01256e-05
-1.47801e-05
-5.59783e-05
-1.5608e-06
-3.50707e-05
4.17984e-06
-9.75634e-06
-9.25885e-06
-8.28423e-06
9.47227e-05
-3.97069e-05
0.000104178
-3.02451e-05
0.000105936
6.51014e-06
-1.92848e-05
1.89904e-05
-7.22609e-05
2.06831e-05
-4.38009e-05
1.79495e-05
1.71839e-05
8.80208e-06
4.90836e-05
-3.14434e-06
2.35408e-05
-8.12227e-06
-2.31285e-05
-1.52673e-05
-5.32991e-05
-3.15067e-05
-2.82531e-05
-4.39767e-05
-1.37115e-05
-4.69253e-05
-2.94363e-05
-4.19692e-05
-5.499e-05
-2.80447e-05
-6.97817e-05
-9.8724e-06
-5.30378e-05
7.35704e-07
-2.06026e-05
-8.4605e-06
-1.03165e-05
0.000110986
-9.47499e-06
9.07256e-05
-1.41187e-07
5.89084e-05
1.24577e-05
-3.53413e-05
1.11313e-05
-7.03798e-05
1.02618e-05
-5.63189e-05
1.09814e-05
1.62143e-05
1.11668e-05
4.8666e-05
4.66493e-06
2.98298e-05
-3.61319e-06
-1.06876e-05
-2.02358e-05
-3.78787e-05
-4.01186e-05
-8.36788e-06
-4.89846e-05
-9.60302e-07
-4.86222e-05
-1.59902e-05
-4.88244e-05
-4.01007e-05
-3.63045e-05
-8.20999e-05
-1.86894e-05
-7.04775e-05
-4.70929e-06
-3.974e-05
-1.31158e-05
5.33127e-06
1.68592e-06
1.01946e-05
1.38852e-06
1.4151e-05
-1.44472e-07
1.5943e-05
-1.30411e-06
1.47294e-05
-7.20648e-07
1.17286e-05
4.52843e-07
7.58789e-06
1.72986e-06
3.535e-06
1.46843e-06
2.94083e-07
1.28221e-06
-2.01325e-06
1.90484e-06
-3.38938e-06
2.56999e-06
-4.07596e-06
2.95131e-06
-4.54488e-06
3.46756e-06
-5.56782e-06
4.55263e-06
-7.63886e-06
5.95411e-06
-1.08069e-05
7.10909e-06
-1.47711e-05
7.49625e-06
-1.91116e-05
6.84212e-06
-2.32332e-05
4.84131e-06
-2.6753e-05
1.66084e-06
-2.98991e-05
-2.17602e-06
-3.24775e-05
-7.11543e-06
-9.51895e-06
-3.54842e-05
2.77899e-06
-3.60375e-09
5.19408e-06
-1.14347e-07
5.97837e-06
-3.14253e-07
5.49003e-06
-2.64973e-07
5.31519e-06
-1.36179e-07
4.90342e-06
2.10408e-07
4.41971e-06
4.64173e-07
4.27522e-06
2.94608e-07
4.1471e-06
2.33349e-07
3.59818e-06
6.76425e-07
2.79622e-06
2.53271e-06
3.02805e-06
1.4795e-06
3.88086e-06
1.4136e-06
2.96225e-06
2.84295e-06
-3.25834e-07
3.73294e-06
-5.41817e-06
6.00145e-06
-1.2618e-05
9.49545e-06
-2.16773e-05
1.10371e-05
-2.92296e-05
1.07278e-05
-3.41248e-05
6.97719e-06
-4.05702e-05
4.20525e-06
-5.17439e-05
3.75578e-06
5.75946e-06
-6.74188e-05
-2.13418e-08
5.70404e-10
-1.47854e-07
-3.40802e-09
-4.89215e-07
-3.57051e-10
-1.63572e-06
9.73628e-10
-3.04066e-06
-2.84541e-08
-5.70456e-06
-1.2245e-07
-1.12279e-05
-2.17544e-08
-1.3926e-05
3.26998e-07
-1.10177e-05
1.72542e-07
-8.87998e-06
-3.83924e-07
-8.41366e-06
-1.57792e-06
-7.27411e-06
-3.31316e-06
-6.41624e-06
-3.09118e-06
-7.08876e-06
-7.68735e-08
-8.22567e-06
2.20352e-06
-8.91496e-06
3.61844e-06
-7.60565e-06
4.73183e-06
-1.13566e-05
5.71806e-06
-6.36727e-05
8.6165e-06
-9.69458e-05
1.40869e-05
-0.000112672
1.84528e-05
-0.000134061
2.38101e-05
2.85904e-05
-0.000158376
-7.28251e-08
5.17099e-08
-2.5485e-07
1.33236e-07
-6.61048e-07
2.39301e-07
-1.47929e-06
2.95423e-07
-2.92744e-06
2.85642e-07
-5.40166e-06
2.90672e-07
-7.72433e-06
2.93895e-07
-1.03415e-05
5.09263e-08
-1.2461e-05
-1.62265e-06
-1.39126e-05
-5.17668e-06
-4.45752e-05
-1.32214e-05
-7.77901e-05
-3.02279e-05
-7.61452e-05
-2.84741e-05
-3.5191e-05
-1.56318e-05
-2.55727e-05
-1.61446e-06
-6.84771e-05
5.28078e-06
-0.000122042
1.29395e-05
-0.000142872
1.75335e-05
-0.000159063
2.24921e-05
-0.000178406
2.75093e-05
-0.000196019
3.37154e-05
-0.000212212
3.83716e-05
4.15006e-05
-0.00022632
-7.73583e-09
3.82741e-08
1.43292e-08
7.34005e-08
-1.69258e-08
1.38635e-07
-2.63931e-07
2.24485e-07
-8.97034e-07
2.94696e-07
-2.03755e-06
4.18844e-07
-3.79773e-06
3.63414e-07
-6.05052e-06
-5.43672e-07
-9.92614e-06
-2.82184e-06
-1.70626e-05
-7.40287e-06
-0.000130322
-1.88577e-05
-0.000210902
-4.19161e-05
-0.000223225
-3.58534e-05
-0.000216814
-2.21837e-05
-0.000209574
-6.9184e-06
-0.000210836
6.3919e-06
-0.000215588
1.23757e-05
-0.000221596
1.93432e-05
-0.000228299
2.59613e-05
-0.00023661
3.25517e-05
-0.000244434
3.89278e-05
-0.000245641
3.82125e-05
3.28234e-05
-0.000228796
-1.80488e-09
2.42479e-08
-5.3967e-10
5.09636e-08
-3.10807e-08
9.82107e-08
-1.38029e-07
1.73722e-07
-4.1904e-07
2.86035e-07
-9.51345e-07
4.13662e-07
-1.90319e-06
3.2902e-07
-3.79113e-06
-5.44374e-07
-7.36578e-06
-3.14083e-06
-1.53369e-05
-7.71655e-06
-0.000121593
-2.42287e-05
-0.000202044
-3.49194e-05
-0.000233456
-3.01222e-05
-0.000244501
-1.37825e-05
-0.000248423
-5.64002e-06
-0.000247597
2.66548e-06
-0.00024957
1.04706e-05
-0.000253582
1.80619e-05
-0.000253608
2.35054e-05
-0.000252633
2.83273e-05
-0.000237004
3.27592e-05
-0.000139333
1.56173e-05
4.82835e-06
-7.51935e-05
-1.3744e-09
1.93491e-08
-2.45733e-09
4.05388e-08
-1.28568e-08
8.32299e-08
-3.61167e-08
2.0452e-07
-8.74731e-08
3.28018e-07
-2.54011e-07
4.14686e-07
-8.68618e-07
4.13775e-07
-2.49925e-06
-2.98762e-07
-6.10163e-06
-2.824e-06
-3.97614e-05
-9.40317e-06
-9.594e-05
-2.88709e-05
-0.000147753
-3.07454e-05
-0.000133137
-2.27382e-05
-0.000133098
-8.86598e-06
-0.000141081
-1.12315e-06
-0.000143097
3.44359e-06
-0.000168247
7.78792e-06
-0.000225156
1.32254e-05
-0.00022633
1.78729e-05
-0.000216567
1.96119e-05
-0.000144955
2.2387e-05
-3.51303e-05
1.18483e-05
3.83955e-06
-1.20104e-05
-1.17766e-09
1.65934e-08
-3.8449e-09
3.68646e-08
-2.86345e-09
1.16346e-07
-2.69319e-09
3.37674e-07
2.65004e-08
3.82778e-07
-1.65651e-08
2.97916e-07
-3.79881e-07
3.79117e-07
-1.99536e-06
2.32018e-07
-6.71797e-06
-1.15265e-06
-5.86549e-05
-5.31807e-06
-0.000115757
-2.49476e-05
-0.000132915
-2.6318e-05
-0.000146008
-2.00032e-05
-0.000131096
-7.58619e-06
-0.000106462
1.10258e-06
-0.000111524
5.5385e-06
-0.000115101
8.39867e-06
-0.000117013
9.97294e-06
-0.000131896
1.11781e-05
-0.000161293
1.4817e-05
-0.00014281
1.77971e-05
-9.81119e-05
1.91677e-05
1.54145e-05
-3.43932e-05
-2.30174e-10
1.35955e-08
2.38749e-09
4.4461e-08
-1.31076e-08
3.39412e-07
-5.81505e-08
3.91734e-07
-2.41363e-08
3.02769e-07
-1.86966e-08
1.93016e-07
2.77777e-08
1.40945e-07
-2.6139e-07
1.57806e-07
-2.54679e-06
1.0027e-07
-1.22641e-05
-9.83624e-07
-8.16884e-05
-6.68812e-06
-0.000119604
-2.14096e-05
-0.000128841
-2.12493e-05
-0.000127626
-1.31772e-05
-0.000129931
-3.64333e-06
-9.57387e-05
4.44572e-06
-9.55725e-05
7.29919e-06
-9.91974e-05
9.4367e-06
-0.000104027
1.15897e-05
-0.000132747
1.45594e-05
-0.000120686
1.74059e-05
-0.000113788
1.82476e-05
1.93216e-05
-8.22349e-05
8.47773e-11
1.07742e-08
-1.87024e-08
7.33785e-08
-7.16837e-08
4.01995e-07
-9.67679e-08
3.61228e-07
-9.1453e-08
2.06639e-07
-4.62516e-08
1.26497e-07
-2.54315e-08
6.81861e-08
-3.70023e-08
4.08325e-08
-2.34957e-07
4.08061e-08
-1.73419e-06
3.32866e-08
-1.02619e-05
-4.28182e-07
-8.45805e-05
-4.08086e-06
-0.000126667
-9.95294e-06
-0.00013191
-1.49921e-05
-0.000131134
-1.167e-05
-0.000113774
-4.1277e-06
-0.000100205
3.2776e-06
-0.00011753
8.64739e-06
-0.000121026
1.16934e-05
-0.000121023
1.42667e-05
-0.000114176
1.61189e-05
-0.000113231
1.65396e-05
1.71396e-05
-0.000112499
3.95151e-09
4.79837e-09
1.78018e-08
6.03404e-08
-2.06503e-08
2.67354e-07
-5.43029e-08
3.25368e-07
-6.42326e-08
1.50639e-07
-1.88849e-08
1.30212e-07
-1.38129e-08
3.74474e-08
-1.9991e-08
1.82929e-08
-5.13062e-08
1.25949e-08
-1.29258e-07
-2.93424e-10
-7.0819e-07
-1.98321e-08
-5.2404e-06
-9.2329e-09
-3.92542e-05
-6.24346e-07
-0.000117893
-5.03371e-06
-0.000144788
-7.2199e-06
-0.000144861
-6.94178e-06
-0.000136485
-3.88085e-06
-0.000130602
2.39463e-06
-0.000127799
7.40064e-06
-0.000127623
1.10608e-05
-0.000125142
1.32965e-05
-0.000124666
1.33532e-05
1.37496e-05
-0.000121667
2.06906e-09
1.86199e-09
2.96602e-08
1.61929e-08
7.38625e-08
5.39471e-08
3.02095e-08
1.05025e-07
3.01467e-09
2.15675e-08
3.57874e-09
8.46789e-08
1.24658e-09
3.4772e-08
-1.03589e-10
7.8351e-09
-7.42004e-09
7.40496e-09
-2.66467e-08
4.73555e-09
-8.81296e-08
2.39233e-09
-3.66647e-07
-1.12257e-08
-9.47938e-07
-3.56212e-08
-5.96328e-06
-4.40312e-08
-2.19174e-05
-1.52294e-08
-0.000110011
-1.46269e-06
-0.000143578
-3.47599e-06
-0.000140478
-1.19472e-06
-0.00013414
6.92265e-07
-0.000129606
5.01809e-06
-0.000125117
5.7234e-06
-0.000106259
3.71689e-06
2.35098e-06
-9.23806e-05
9.39101e-10
6.18281e-10
9.57718e-09
6.89741e-09
3.05886e-08
2.05143e-08
3.0013e-08
1.33864e-08
2.0191e-08
5.21668e-09
1.30686e-08
1.79665e-09
3.31956e-09
2.11105e-08
3.38791e-09
4.03647e-09
4.22103e-09
2.89473e-09
2.93492e-09
2.15149e-09
-2.74005e-09
1.83077e-09
-2.01484e-08
8.20814e-10
-5.52418e-08
-5.32285e-10
-1.03229e-07
-3.0364e-09
-1.49797e-07
-5.98544e-09
-1.60224e-06
-1.26389e-08
-5.14328e-06
-2.56999e-08
-1.40694e-05
2.1247e-08
-2.26904e-05
-4.42313e-09
-2.28379e-05
-1.28398e-08
-1.33695e-05
-4.07762e-08
-7.89016e-06
3.06327e-09
3.23212e-08
-5.02048e-06
3.3217e-10
1.74763e-10
4.85819e-09
2.08803e-09
1.66973e-08
7.15431e-09
1.67717e-08
6.15024e-09
1.24064e-08
2.78805e-09
7.40661e-09
1.08541e-09
4.60766e-09
4.92964e-10
1.69801e-09
1.75969e-09
2.35005e-09
8.56786e-10
2.80641e-09
7.46133e-10
2.97851e-09
6.67773e-10
2.19128e-09
6.4289e-10
2.67709e-11
3.38309e-10
-2.23652e-09
-9.05737e-10
-4.41684e-09
-1.09204e-09
-1.16309e-08
-9.29299e-10
-2.3672e-08
-7.58699e-10
-1.57801e-09
-7.72386e-11
-5.83075e-09
-1.60128e-11
-1.85758e-08
-9.67305e-11
-5.96795e-08
-8.36635e-12
-5.6328e-08
-8.07186e-10
1.23683e-10
-2.45446e-08
7.11995e-11
6.13079e-11
1.37681e-09
6.7117e-10
5.52495e-09
2.29504e-09
6.26094e-09
2.29126e-09
4.78541e-09
1.21758e-09
2.86319e-09
7.4554e-10
1.31704e-09
2.61595e-10
7.96599e-10
4.69261e-10
7.99463e-10
3.17008e-10
9.63014e-10
2.72233e-10
1.14942e-09
2.72213e-10
1.29442e-09
3.2378e-10
1.1424e-09
3.33282e-10
6.01756e-10
-3.62015e-10
7.03825e-11
-2.19546e-10
-3.03648e-10
-1.44951e-10
-5.09228e-10
-1.80453e-10
-2.29971e-10
-1.10085e-10
-1.29357e-10
9.36767e-12
-3.35122e-10
2.20362e-11
-1.15284e-09
7.06905e-11
-2.76298e-09
6.09835e-11
4.11821e-10
-2.92637e-09
1.44668e-11
2.91255e-11
3.97984e-10
2.73517e-10
1.61349e-09
7.17144e-10
1.88364e-09
7.83383e-10
1.50548e-09
5.09624e-10
9.85721e-10
3.19029e-10
4.48144e-10
2.05135e-10
2.62769e-10
1.62556e-10
2.40614e-10
1.15718e-10
3.0137e-10
1.01506e-10
3.66207e-10
1.40316e-10
5.0077e-10
2.18658e-10
6.00388e-10
3.14233e-10
3.47257e-10
9.67642e-11
9.37888e-11
5.84394e-11
4.37178e-11
1.23277e-12
-5.9705e-12
-2.55944e-11
-4.13624e-11
1.80673e-13
-1.00706e-11
5.6333e-12
-9.00538e-13
2.76322e-11
3.11494e-11
6.43559e-11
-1.00069e-10
2.65112e-10
1.29832e-09
-1.185e-09
4.22673e-12
1.61959e-11
1.07965e-10
1.25567e-10
3.98855e-10
2.26607e-10
4.87906e-10
2.53377e-10
4.20446e-10
1.8923e-10
2.82564e-10
1.21054e-10
1.44767e-10
8.29266e-11
7.63094e-11
5.85174e-11
6.97721e-11
4.24728e-11
8.82902e-11
4.29442e-11
1.21242e-10
8.11751e-11
1.95844e-10
1.90469e-10
3.90942e-10
7.07317e-10
1.08132e-10
6.39519e-10
2.73299e-11
1.64008e-10
1.30337e-11
5.36699e-11
7.34866e-12
3.60632e-11
-4.65924e-12
2.75894e-11
-1.90979e-12
1.46443e-11
1.47396e-11
5.08395e-11
8.80405e-11
1.13178e-10
5.65829e-11
3.95916e-10
1.84689e-09
-6.90072e-10
1.71349e-12
1.08522e-11
2.70633e-11
3.51585e-11
8.97642e-11
7.19273e-11
1.13716e-10
7.94828e-11
1.04368e-10
6.47697e-11
7.3953e-11
4.41484e-11
4.0873e-11
3.06729e-11
2.13811e-11
2.14387e-11
2.00459e-11
1.79664e-11
2.69057e-11
2.02392e-11
3.97427e-11
4.90159e-11
1.14233e-10
8.97657e-11
4.89591e-10
1.47617e-09
5.16755e-11
1.17856e-09
1.06078e-12
1.98583e-10
-2.66314e-13
6.43168e-11
8.225e-12
7.25296e-11
-1.04506e-12
3.35525e-11
-7.16061e-14
2.07586e-11
1.04462e-11
5.66854e-11
2.2176e-11
1.2955e-10
-1.39658e-10
5.29782e-10
3.07048e-09
-1.77869e-09
7.82225e-13
9.16598e-12
6.61797e-12
1.02674e-11
1.98259e-11
2.15053e-11
2.53288e-11
2.47263e-11
2.45187e-11
2.1123e-11
1.76755e-11
1.52754e-11
1.03539e-11
1.08278e-11
6.24085e-12
7.92291e-12
6.39296e-12
8.76316e-12
1.12135e-11
1.18158e-11
2.05266e-11
2.3851e-11
2.86123e-10
8.90929e-10
4.03565e-10
1.61315e-09
5.36856e-11
1.10192e-09
3.29231e-12
2.09025e-10
-9.60486e-13
6.69328e-11
2.60038e-12
5.98787e-11
-3.87587e-12
2.73274e-11
-5.28614e-14
1.91538e-11
1.35036e-11
4.72563e-11
-1.80611e-11
1.66458e-10
-3.50139e-10
8.45107e-10
4.16543e-09
-1.68062e-09
3.49959e-13
8.80473e-12
1.6677e-12
4.48632e-12
4.47662e-12
6.67196e-12
5.61316e-12
7.78713e-12
5.50321e-12
6.82667e-12
3.95613e-12
5.20655e-12
2.45509e-12
3.81671e-12
1.8794e-12
3.33e-12
2.63936e-12
5.41195e-12
3.86276e-12
9.43352e-12
5.17473e-11
4.88209e-11
3.13382e-10
1.67591e-09
3.43644e-10
1.8373e-09
3.86813e-12
7.17449e-10
-3.27248e-12
1.83668e-10
-2.25428e-13
6.7132e-11
-3.6516e-12
1.62844e-11
-4.07522e-12
1.27289e-11
-4.5994e-12
1.81047e-11
-5.29364e-12
4.88336e-11
-9.76389e-11
2.64225e-10
-5.15e-10
1.26896e-09
7.90373e-09
-5.53082e-09
1.28565e-13
8.6023e-12
4.14379e-13
3.37689e-12
9.94189e-13
2.19271e-12
1.24588e-12
2.54704e-12
1.19004e-12
2.28527e-12
8.47547e-13
1.81432e-12
5.90171e-13
1.4293e-12
6.07891e-13
1.48833e-12
9.32921e-13
3.62347e-12
5.97615e-12
6.13806e-12
1.11087e-10
9.80653e-10
1.79977e-10
1.77772e-09
9.20679e-11
1.8066e-09
-1.10861e-12
2.50429e-10
-1.39522e-11
1.33533e-10
-6.49505e-12
5.5366e-11
-3.45966e-12
1.12919e-11
-2.3466e-12
9.55499e-12
-5.7599e-12
1.91728e-11
-5.31884e-11
9.47088e-11
-4.50276e-10
6.48394e-10
-3.4236e-09
3.06718e-09
2.26374e-08
-5.92178e-08
4.98306e-14
8.21958e-12
8.61856e-14
3.14972e-12
1.94925e-13
8.56471e-13
2.70096e-13
8.83597e-13
2.46282e-13
8.49511e-13
1.76542e-13
7.40154e-13
1.41584e-13
6.08213e-13
2.22721e-13
9.06354e-13
8.1117e-13
2.75025e-12
3.89052e-11
8.72636e-11
3.8266e-11
1.36192e-09
-6.9663e-12
1.95275e-09
-5.304e-11
4.93486e-10
-3.39968e-11
1.51958e-10
-2.45336e-11
9.10874e-11
-5.84211e-12
3.16913e-11
-3.60177e-12
7.74834e-12
-5.34646e-12
9.50862e-12
-1.70886e-11
2.9102e-11
-9.66619e-11
1.69196e-10
-5.23828e-10
1.02498e-09
-3.51523e-09
4.13639e-09
2.20988e-08
-2.54859e-08
1.59968e-14
4.95183e-12
1.49363e-14
2.50203e-12
3.71276e-14
3.68144e-13
5.79387e-14
3.71913e-13
5.1497e-14
3.75356e-13
3.58253e-14
3.37275e-13
3.81771e-14
2.94971e-13
7.39019e-14
6.40709e-13
1.21661e-12
7.9645e-12
-2.5037e-12
2.61742e-10
-4.07246e-11
4.81328e-10
-9.40588e-11
4.23694e-10
-5.8323e-11
1.3831e-10
-4.67797e-11
1.78633e-10
-2.00861e-11
1.11256e-10
-3.06941e-12
2.0031e-11
-2.11863e-12
5.52555e-12
-3.56871e-12
9.53816e-12
-1.24339e-11
3.64535e-11
-5.76332e-11
2.08428e-10
-1.75103e-10
1.09691e-09
-6.73391e-10
3.75351e-09
1.872e-08
-7.56266e-09
6.85186e-15
4.75083e-13
1.49706e-14
1.10799e-12
9.10217e-15
2.07112e-13
1.33289e-14
1.74254e-13
1.13085e-14
1.86713e-13
7.36034e-15
1.80011e-13
7.46186e-15
1.69785e-13
8.69331e-15
6.04634e-13
-1.61727e-12
3.61207e-11
-5.18076e-12
1.96422e-10
-2.03837e-11
2.8961e-11
-2.86508e-11
6.88212e-11
-4.83881e-11
1.39775e-10
-5.93639e-11
2.07615e-10
-1.12676e-11
1.44147e-10
-1.77905e-12
9.97148e-12
-2.15675e-12
4.60889e-12
-4.48158e-12
1.06671e-11
-1.94505e-11
4.92351e-11
-1.38753e-10
3.17825e-10
-9.75722e-10
1.86628e-09
-8.44574e-09
9.08686e-09
3.76742e-08
-6.21237e-08
3.33568e-15
2.41576e-13
1.11685e-14
3.43519e-13
3.31266e-15
1.08425e-13
3.89186e-15
9.51195e-14
3.45651e-15
1.0665e-13
2.68227e-15
1.03823e-13
3.51528e-15
1.16532e-13
4.44014e-14
1.60023e-12
-1.4901e-12
4.83086e-11
-3.44339e-12
1.10981e-11
-6.99816e-12
1.28699e-11
-9.15232e-12
4.07017e-11
-2.57552e-11
1.7204e-10
-2.94466e-11
2.15175e-10
-4.9276e-12
1.74742e-10
-1.34355e-12
5.79187e-12
-2.38711e-12
4.52245e-12
-6.14581e-12
1.30869e-11
-3.48966e-11
7.44307e-11
-3.59948e-10
6.1601e-10
-2.55006e-09
3.85458e-09
-5.33277e-08
4.39432e-08
7.06277e-08
-8.19726e-08
2.6769e-15
1.99868e-13
4.86302e-15
1.91329e-13
1.53844e-15
4.55237e-14
1.74334e-15
4.70657e-14
1.84769e-15
5.51619e-14
2.23835e-15
5.30567e-14
1.68077e-14
8.50727e-14
9.21478e-14
3.26642e-12
-2.16276e-13
1.91703e-11
-6.82036e-13
4.15568e-12
-5.23498e-13
5.86392e-12
-5.59262e-12
3.4556e-11
-1.86144e-11
2.03906e-10
-2.18639e-11
2.21002e-10
-1.43969e-12
1.96842e-10
-8.27719e-13
4.05662e-12
-1.45e-12
4.14889e-12
2.63094e-13
1.01835e-11
-4.58137e-12
7.4991e-11
-1.05751e-10
6.78974e-10
-3.08925e-09
5.03284e-09
-5.54752e-08
5.79059e-08
8.34111e-08
-6.46155e-08
2.61662e-15
1.38278e-13
2.74001e-15
1.18643e-13
7.71841e-16
1.92938e-14
9.58455e-16
1.94581e-14
1.22296e-15
2.39282e-14
2.08689e-15
2.34222e-14
4.79492e-14
5.58901e-14
2.94605e-13
3.37249e-12
2.90765e-13
1.25857e-12
1.12035e-13
1.89859e-12
2.7015e-14
3.00449e-12
-3.72271e-12
2.67113e-11
-7.01597e-12
2.09776e-10
-9.09013e-12
2.24951e-10
-5.63782e-12
2.19672e-10
-2.16871e-13
8.45214e-12
-5.9e-13
3.52855e-12
1.55151e-12
6.07612e-12
1.65218e-11
4.56425e-11
1.98804e-10
4.34009e-10
3.57285e-10
4.05387e-09
-3.23811e-08
4.57123e-08
9.07762e-08
-3.68387e-08
2.32565e-15
8.14012e-14
1.81724e-15
6.82922e-14
4.25694e-16
8.60015e-15
5.40365e-16
7.85021e-15
7.90654e-16
1.00365e-14
1.69634e-15
1.03097e-14
6.14501e-14
4.72474e-14
3.03019e-13
2.05527e-12
2.0996e-13
5.07688e-13
3.04061e-13
8.33215e-13
7.97191e-13
1.44971e-12
6.78543e-12
1.08815e-11
8.54224e-12
1.46014e-10
9.41554e-12
2.26135e-10
6.78307e-12
2.24217e-10
1.21318e-12
5.15314e-11
1.8093e-13
3.57648e-12
1.03477e-12
4.74274e-12
1.54686e-11
1.75665e-11
1.54152e-10
1.98762e-10
1.28553e-09
1.8335e-09
-1.93067e-09
1.74314e-08
3.67322e-08
-6.61474e-09
1.73481e-15
4.31458e-14
1.27561e-15
3.72085e-14
2.27372e-16
4.17606e-15
2.94877e-16
3.07229e-15
4.90761e-16
4.06761e-15
1.39524e-15
4.863e-15
3.90715e-14
5.42861e-14
1.80124e-13
5.78084e-13
1.33113e-13
4.04741e-13
2.02298e-13
4.67644e-13
5.56962e-13
6.32203e-13
6.62276e-12
2.73325e-12
1.49379e-11
3.69451e-11
2.82147e-11
2.14585e-10
3.03528e-11
2.25001e-10
4.35716e-12
1.64367e-10
9.77338e-13
6.5012e-12
9.64023e-13
4.35116e-12
7.94789e-12
9.37637e-12
9.39587e-11
6.38483e-11
1.05217e-09
5.68833e-10
5.5784e-09
4.38927e-09
6.45597e-09
4.03938e-09
1.12061e-15
2.15977e-14
8.75481e-16
1.96331e-14
1.14746e-16
2.22166e-15
1.47294e-16
1.14409e-15
2.80242e-16
1.55717e-15
9.12734e-16
2.58007e-15
1.90361e-14
5.0757e-14
8.19505e-14
1.95497e-13
8.65157e-14
2.88597e-13
1.18883e-13
3.18086e-13
2.79118e-13
3.19174e-13
1.67723e-12
1.04676e-12
2.53933e-11
1.17282e-11
4.1652e-11
1.37249e-10
5.30675e-11
2.16904e-10
1.7994e-11
1.87668e-10
3.61564e-12
1.64463e-11
1.75625e-12
4.87403e-12
4.45066e-12
5.10212e-12
4.48693e-11
2.13588e-11
4.24283e-10
1.83196e-10
3.10336e-09
1.62813e-09
3.40775e-09
5.01726e-09
6.43398e-16
1.02163e-14
5.71754e-16
1.00294e-14
5.47285e-17
1.25231e-15
6.59006e-17
3.97326e-16
1.36556e-16
5.42737e-16
5.8555e-16
1.44837e-15
1.29065e-14
3.21551e-14
4.97629e-14
1.12957e-13
6.67913e-14
2.04616e-13
7.92332e-14
2.41472e-13
1.48237e-13
2.19658e-13
7.8574e-13
3.26957e-13
9.17584e-12
3.03655e-12
3.70876e-11
2.17441e-11
5.45779e-11
1.55419e-10
3.17587e-11
1.271e-10
4.16522e-12
3.04506e-11
1.89665e-12
5.5348e-12
2.43386e-12
3.10584e-12
1.53675e-11
7.26944e-12
1.41739e-10
5.45189e-11
1.21773e-09
5.1682e-10
1.38267e-09
2.89957e-09
3.32201e-16
4.54149e-15
3.52523e-16
4.92848e-15
2.58352e-17
7.09265e-16
2.63287e-17
1.25769e-16
5.40842e-17
1.59092e-16
3.51426e-16
7.66498e-16
7.56487e-15
1.42921e-14
3.03047e-14
6.03445e-14
5.08977e-14
1.21425e-13
5.96555e-14
1.67413e-13
7.46191e-14
1.59664e-13
2.46317e-13
1.35122e-13
2.43064e-12
7.57459e-13
1.90108e-11
4.29155e-12
4.81855e-11
1.23612e-11
2.01909e-11
1.21835e-11
3.29079e-12
2.66411e-11
2.48239e-12
4.88205e-12
1.81094e-12
2.40701e-12
5.39391e-12
2.77051e-12
4.38148e-11
1.40427e-11
4.18405e-10
1.31645e-10
3.91513e-10
1.31246e-09
1.55088e-16
1.89232e-15
2.0463e-16
2.31518e-15
1.23936e-17
3.83823e-16
8.89802e-18
3.73541e-17
1.49626e-17
3.99957e-17
1.8609e-16
3.30363e-16
3.65855e-15
5.67973e-15
1.63154e-14
2.72849e-14
3.24085e-14
6.02027e-14
4.20842e-14
9.36777e-14
5.00742e-14
1.05157e-13
8.58333e-14
7.88545e-14
5.82657e-13
2.1849e-13
3.32294e-12
1.30742e-12
8.73048e-12
3.20164e-12
8.38035e-12
2.06408e-12
5.2121e-12
8.04695e-12
1.51458e-12
5.56165e-12
1.18956e-12
1.75164e-12
2.10885e-12
1.22521e-12
1.18648e-11
3.39503e-12
1.12851e-10
2.75541e-11
8.2575e-11
3.98238e-10
6.57128e-17
7.39684e-16
1.09437e-16
1.03594e-15
6.34355e-18
1.89998e-16
2.87596e-18
2.81415e-17
3.0129e-18
3.00861e-17
7.44519e-17
9.25941e-17
1.57236e-15
2.12584e-15
7.68779e-15
1.1009e-14
1.73298e-14
2.67008e-14
2.69696e-14
4.51696e-14
3.22297e-14
5.97669e-14
3.90804e-14
5.57616e-14
1.8052e-13
6.94756e-14
1.11881e-12
2.90183e-13
2.96397e-12
8.28308e-13
3.0528e-12
7.83516e-13
3.02649e-12
5.11323e-13
1.43898e-12
2.57229e-12
8.59331e-13
1.39107e-12
1.06937e-12
6.77246e-13
3.24277e-12
8.94294e-13
2.44006e-11
5.85848e-12
1.89862e-11
8.20187e-11
2.53598e-17
2.72087e-16
5.02416e-17
4.41645e-16
1.16676e-17
8.41826e-17
3.30083e-19
2.40577e-18
-1.59222e-18
-9.20619e-18
1.94815e-17
2.49399e-17
6.17935e-16
7.37745e-16
3.23613e-15
4.06537e-15
8.08357e-15
1.07782e-14
1.41606e-14
1.96593e-14
1.86115e-14
2.85613e-14
2.25487e-14
3.40094e-14
4.948e-14
3.31083e-14
2.37476e-13
8.10136e-14
7.03847e-13
2.35559e-13
9.86849e-13
2.47869e-13
9.38909e-13
2.22328e-13
1.12358e-12
2.6498e-13
6.81238e-13
8.94042e-13
6.60176e-13
4.87975e-13
1.10924e-12
3.05023e-13
5.62506e-12
1.03547e-12
3.43281e-12
1.97873e-11
8.95202e-18
9.46264e-17
2.13941e-17
1.79253e-16
6.45707e-18
3.4139e-17
-1.8264e-18
-1.27753e-17
-4.81405e-18
-2.66053e-17
7.65808e-18
1.24677e-17
2.19454e-16
2.26965e-16
1.23101e-15
1.38036e-15
3.36899e-15
3.987e-15
6.42586e-15
7.82923e-15
9.65539e-15
1.20259e-14
1.24781e-14
1.59263e-14
1.86673e-14
1.94016e-14
5.98249e-14
2.91651e-14
1.80878e-13
6.41417e-14
2.50722e-13
9.42353e-14
3.01558e-13
1.20441e-13
3.84044e-13
1.24129e-13
5.03633e-13
2.44422e-13
3.68628e-13
3.40055e-13
4.23104e-13
1.89787e-13
1.13642e-12
1.96682e-13
5.70562e-13
3.70917e-12
2.90308e-18
3.13004e-17
8.47921e-18
6.93972e-17
2.586e-18
1.18729e-17
-2.5504e-18
-1.74905e-17
-5.72774e-18
-3.092e-17
-9.26352e-19
-4.12245e-18
6.52046e-17
5.23593e-17
4.25616e-16
4.31296e-16
1.26909e-15
1.36099e-15
2.60182e-15
2.86162e-15
4.20869e-15
4.65189e-15
5.9762e-15
6.43474e-15
8.75934e-15
8.58404e-15
1.89493e-14
1.27895e-14
5.02554e-14
2.43135e-14
8.58398e-14
4.39449e-14
1.15045e-13
6.4715e-14
1.46356e-13
7.51682e-14
2.14556e-13
9.025e-14
2.35293e-13
1.33703e-13
1.9218e-13
1.34066e-13
2.56372e-13
8.42721e-14
1.01456e-13
6.62592e-13
8.70021e-19
9.90993e-18
3.14056e-18
2.56702e-17
8.49666e-19