/*--------------------------------*- C++ -*----------------------------------*\
| =========                 |                                                 |
| \\      /  F ield         | OpenFOAM: The Open Source CFD Toolbox           |
|  \\    /   O peration     | Version:  2206                                  |
|   \\  /    A nd           | Website:  www.openfoam.com                      |
|    \\/     M anipulation  |                                                 |
\*---------------------------------------------------------------------------*/
FoamFile
{
    version     2.0;
    format      ascii;
    arch        "LSB;label=32;scalar=64";
    class       volScalarField;
    location    "1";
    object      p;
}
// * * * * * * * * * * * * * * * * * * * * * * * * * * * * * * * * * * * * * //

dimensions      [1 -1 -2 0 0 0 0];

internalField   nonuniform List<scalar> 
2268
(
707.828
708.405
709.757
711.858
714.68
718.159
722.41
727.552
733.496
740.183
747.471
755.241
763.335
771.621
779.961
788.179
796.078
803.4
809.885
815.41
820.387
824.626
826.853
648.296
648.836
650.171
652.259
655.052
658.506
662.749
667.921
673.943
680.72
688.109
695.971
704.21
712.629
721.138
729.558
737.635
745.013
751.37
756.863
761.901
765.828
768.407
588.008
588.563
589.87
591.932
594.663
598.114
602.282
607.57
613.755
620.698
628.251
636.3
644.734
653.422
662.252
671.053
679.596
687.579
694.719
700.931
705.727
709.287
711.554
526.947
527.514
528.819
530.783
533.466
536.924
541.255
546.622
553.011
560.177
567.953
576.237
584.957
594.036
603.371
612.801
622.092
630.931
638.92
645.728
650.955
654.434
656.206
464.958
465.364
466.352
468.188
470.997
474.856
479.623
485.303
491.871
499.22
507.212
515.756
524.819
534.381
544.383
554.673
564.986
574.95
584.092
591.702
597.485
601.064
602.342
401.948
402.025
402.33
403.662
406.958
411.653
417.3
423.602
430.461
437.951
446.107
454.851
464.218
474.291
485.084
496.455
508.077
519.471
530.059
538.849
545.475
549.311
550.139
338.114
337.79
337.5
338.499
342.071
347.753
354.397
361.521
368.827
376.403
384.668
393.492
403.026
413.555
425.247
437.983
451.34
464.73
477.504
487.365
494.857
498.492
496.938
274.38
273.774
273.256
273.724
277.595
283.931
291.247
298.982
306.804
314.441
322.849
331.526
340.904
351.669
364.269
378.565
393.916
409.31
423.304
436.725
445.805
448.017
439.355
789.164
791.619
766.397
741.51
745.483
705.135
631.268
549.521
504
519.204
554.665
583.92
610.869
629.762
635.307
631.31
634.846
660.523
690.373
770.71
768.476
716.32
669.188
656.756
614.824
562.861
494.589
446.015
461.683
497.203
528.885
560.592
578.942
582.485
577.36
576.366
597.148
632.185
754.768
752.926
660.865
568.855
530.293
518.072
502.501
444.386
400.472
413.151
452.356
484.297
511.27
526.571
533.582
529.484
527.203
539.861
575.653
739.455
727.102
598.055
465.251
436.554
449.533
451.34
386.474
341.248
363.952
407.381
434.258
452.438
464.158
475.178
481.598
482.411
493.921
523.981
723.36
675.241
517.49
380.432
378.506
365.14
360.48
315.976
282
307.645
357.73
378.451
386.729
394.958
410.741
428.61
436.57
451.888
477.429
686.679
600.199
425.318
319.037
317.576
274.734
256.846
248.712
224.566
253.704
307.159
320.71
321.144
325.24
342.891
368.739
389.351
407.964
429.65
596.688
530.457
352.449
294.292
276.023
194.99
160.926
198.111
198.978
220.522
263.437
265.218
255.574
252.324
271.08
304.038
336.175
362.406
380.68
464.048
488.792
346.682
294.809
270.679
124.838
75.7704
152.339
196.097
210.748
226.947
209.161
188.374
170.471
195.895
234.997
276.399
314.904
333.794
174.39
174.153
174.058
174.849
178.622
184.038
191.796
200.177
208.849
217.806
226.372
234.435
242.638
253.466
268.266
286.502
306.668
327.171
346.386
361.782
373.059
376.068
373.301
59.3874
59.0069
58.8257
59.0294
60.194
65.0777
74.6532
83.3454
89.5044
98.14
110.339
117.495
114.454
114.401
127.214
151.039
181.874
216.256
250.74
274.867
288.317
298.003
305.608
20.0387
19.9337
19.4965
18.844
19.584
23.3703
30.797
43.9626
59.1678
68.1243
73.3612
71.5605
63.783
61.4442
67.1418
82.0266
104.582
128.593
151.353
176.803
199.262
211.277
214.878
19.1331
18.9403
18.4314
17.5789
16.989
16.9587
17.2414
20.1253
26.6768
35.4145
44.7512
47.5914
33.9996
27.0696
33.1713
41.5517
53.2891
67.8356
76.8991
84.7107
96.7337
109.466
115.354
15.1224
14.6454
13.9059
12.9195
11.7877
10.57
9.29595
9.33802
11.5683
15.1097
17.9727
16.8862
2.05024
-9.81254
-12.4401
-11.261
-4.53618
8.09328
19.9151
29.3097
38.414
44.6427
47.2148
10.5766
10.2142
9.62795
8.77905
7.57478
5.97533
4.48662
4.31466
6.47255
12.4792
24.7883
50.6217
71.3556
70.4579
62.208
53.2723
49.1005
48.6044
49.749
51.6558
51.1232
43.2571
29.0923
7.27592
7.0451
6.64473
6.00829
4.99149
3.71272
2.68591
2.4082
3.42659
6.64084
18.3352
53.9301
91.9118
109.134
109.449
102.663
96.4083
91.6736
85.8226
74.9825
50.8424
28.5457
19.2588
4.98415
4.84352
4.61719
4.11283
3.25084
2.33026
1.5813
1.06367
1.21866
2.52375
7.00508
25.9979
51.7785
72.8964
85.685
92.6096
92.662
87.4298
80.3461
74.4547
66.1186
47.634
29.8174
2.9817
2.87766
2.72251
2.19503
1.48146
0.794756
0.240437
-0.120214
-0.263253
-0.341227
1.47302
8.29665
23.6363
41.4025
54.5151
61.0167
63.87
64.7693
63.1104
62.7915
68.2542
66.2295
43.5048
1.10562
0.792833
0.593125
0.204132
-0.188373
-0.583097
-0.924123
-1.13881
-1.2728
-1.38624
-1.27108
2.90454
5.97862
12.7063
22.4515
30.708
38.3166
39.1734
38.6917
39.0363
41.2208
41.7366
34.8527
-0.348387
-0.792184
-1.10656
-1.31021
-1.43948
-1.57837
-1.75434
-1.87613
-1.96911
-2.01989
-1.96555
-1.75599
0.471899
9.97137
7.8632
5.50716
8.16111
10.6733
13.1733
15.762
17.9739
17.9611
16.4746
-1.14222
-1.4814
-1.87037
-2.08998
-2.13961
-2.13569
-2.20939
-2.2903
-2.3612
-2.39542
-2.40435
-2.36542
-2.26156
-2.16366
0.0808055
16.7845
29.7014
30.1468
28.2844
25.4887
23.9858
23.1371
22.3467
-1.52696
-1.66411
-1.94485
-2.17189
-2.27685
-2.31486
-2.36606
-2.43256
-2.49025
-2.52292
-2.54025
-2.53653
-2.49509
-2.4437
-2.41262
-2.4085
-1.76534
0.0192507
4.60557
6.38094
3.62316
1.14272
0.164658
-1.72411
-1.7105
-1.83613
-2.01736
-2.15013
-2.23758
-2.30638
-2.37103
-2.42141
-2.45296
-2.46565
-2.45968
-2.44243
-2.42811
-2.41517
-2.33933
-2.26709
-2.26881
-2.23327
-2.17384
-2.12004
-2.08442
-2.09565
-1.81965
-1.75006
-1.77288
-1.88508
-2.00754
-2.11041
-2.19268
-2.25794
-2.30721
-2.33988
-2.35777
-2.36249
-2.35577
-2.34079
-2.32099
-2.29515
-2.283
-2.28104
-2.25828
-2.21254
-2.17342
-2.16865
-2.2294
-1.89246
-1.83216
-1.82855
-1.89053
-1.97556
-2.05836
-2.13213
-2.19473
-2.245
-2.28219
-2.30662
-2.31919
-2.32131
-2.31439
-2.30124
-2.28284
-2.2657
-2.25053
-2.23102
-2.21319
-2.20645
-2.23403
-2.31748
-2.01172
-1.97873
-1.97634
-2.01036
-2.06187
-2.11625
-2.16912
-2.21852
-2.26179
-2.29696
-2.32313
-2.3401
-2.34807
-2.34789
-2.34033
-2.32604
-2.30965
-2.29767
-2.29082
-2.29487
-2.31009
-2.35002
-2.42555
-2.18691
-2.17249
-2.17263
-2.19186
-2.2212
-2.25345
-2.287
-2.32056
-2.35192
-2.37899
-2.4006
-2.41628
-2.4262
-2.43058
-2.42835
-2.41981
-2.40853
-2.40156
-2.40366
-2.41724
-2.44011
-2.48009
-2.54196
-2.39149
-2.38399
-2.38535
-2.39721
-2.41397
-2.43286
-2.45332
-2.47447
-2.49492
-2.51339
-2.52911
-2.54171
-2.55162
-2.55777
-2.55817
-2.55321
-2.5446
-2.53802
-2.54149
-2.55448
-2.57478
-2.60733
-2.65416
-2.60442
-2.59841
-2.60086
-2.60871
-2.61903
-2.63097
-2.64405
-2.6577
-2.67109
-2.6837
-2.69518
-2.70582
-2.71587
-2.72263
-2.72424
-2.7211
-2.71176
-2.7053
-2.70634
-2.71387
-2.72682
-2.74732
-2.77216
-2.81619
-2.81085
-2.81441
-2.8203
-2.82809
-2.83705
-2.84672
-2.85671
-2.86655
-2.87624
-2.88587
-2.89626
-2.90672
-2.91425
-2.91768
-2.91686
-2.91208
-2.90771
-2.90794
-2.91259
-2.92287
-2.93959
-2.95279
-3.02419
-3.02042
-3.02465
-3.02984
-3.03705
-3.04521
-3.05402
-3.06316
-3.07237
-3.08184
-3.09197
-3.10357
-3.1154
-3.12521
-3.13285
-3.13753
-3.13963
-3.14185
-3.14651
-3.15446
-3.16882
-3.18955
-3.20364
-3.22771
-3.22622
-3.2308
-3.23621
-3.24369
-3.2521
-3.26148
-3.27152
-3.28214
-3.29352
-3.30616
-3.32042
-3.33531
-3.34987
-3.364
-3.37693
-3.38888
-3.40127
-3.41543
-3.43229
-3.45345
-3.47392
-3.48017
-3.42646
-3.42721
-3.43208
-3.43827
-3.44643
-3.45576
-3.46646
-3.47835
-3.49148
-3.50602
-3.52248
-3.54088
-3.56089
-3.58249
-3.60542
-3.62925
-3.65397
-3.68054
-3.7106
-3.74475
-3.77926
-3.80254
-3.81006
-3.61877
-3.62154
-3.6268
-3.63394
-3.64309
-3.65386
-3.66648
-3.6809
-3.69727
-3.71574
-3.73669
-3.76048
-3.78737
-3.81763
-3.85134
-3.88855
-3.92962
-3.9763
-4.03228
-4.09959
-4.16923
-4.22381
-4.25899
-3.80239
-3.80716
-3.81272
-3.82071
-3.83102
-3.84357
-3.85852
-3.87596
-3.89605
-3.91893
-3.945
-3.97491
-4.0093
-4.0488
-4.09405
-4.14585
-4.20543
-4.27594
-4.36378
-4.47363
-4.59495
-4.70521
-4.78685
-3.97646
-3.98268
-3.98827
-3.99702
-4.00848
-4.02278
-4.04003
-4.06044
-4.08417
-4.11137
-4.14245
-4.17822
-4.21952
-4.2673
-4.32272
-4.38722
-4.46274
-4.55312
-4.6658
-4.8074
-4.96883
-5.12833
-5.25105
-4.14019
-4.1471
-4.15264
-4.16208
-4.1745
-4.19019
-4.20929
-4.23205
-4.25865
-4.28929
-4.32441
-4.36474
-4.41119
-4.46483
-4.52709
-4.59969
-4.68484
-4.78599
-4.90964
-5.0637
-5.24289
-5.43154
-5.58333
-4.29274
-4.29973
-4.30543
-4.31541
-4.32847
-4.34502
-4.36522
-4.38933
-4.41757
-4.45021
-4.48765
-4.53055
-4.57974
-4.63621
-4.70141
-4.777
-4.86507
-4.96836
-5.09164
-5.24263
-5.42225
-5.62074
-5.80059
-4.4342
-4.44087
-4.44692
-4.45712
-4.47036
-4.48712
-4.50755
-4.53189
-4.5604
-4.5934
-4.63126
-4.67453
-4.72394
-4.78034
-4.84496
-4.91928
-5.0051
-5.10462
-5.22114
-5.36046
-5.52686
-5.71841
-5.91338
-4.56576
-4.57177
-4.57808
-4.58804
-4.6009
-4.61717
-4.63695
-4.66047
-4.688
-4.71985
-4.75639
-4.79809
-4.84553
-4.89945
-4.96077
-5.03075
-5.1108
-5.20265
-5.30852
-5.43204
-5.57751
-5.74713
-5.93372
-4.68889
-4.69394
-4.70016
-4.70942
-4.72137
-4.73649
-4.75487
-4.77669
-4.8022
-4.8317
-4.86552
-4.90406
-4.94779
-4.99729
-5.05329
-5.11668
-5.18858
-5.27032
-5.36343
-5.47016
-5.59367
-5.73819
-5.90286
-4.80468
-4.80856
-4.81429
-4.82248
-4.83311
-4.8466
-4.86301
-4.88249
-4.90526
-4.93155
-4.96165
-4.99588
-5.03461
-5.07829
-5.12744
-5.1827
-5.24489
-5.31501
-5.39412
-5.48376
-5.58577
-5.70419
-5.83933
-4.91392
-4.91655
-4.92145
-4.92839
-4.93745
-4.94903
-4.96316
-4.97994
-4.99953
-5.02213
-5.04794
-5.0772
-5.11019
-5.14723
-5.18867
-5.23497
-5.28663
-5.34434
-5.4088
-5.481
-5.56186
-5.65386
-5.75767
-5.01745
-5.01887
-5.02275
-5.02838
-5.03581
-5.04539
-5.05713
-5.0711
-5.08738
-5.10613
-5.12749
-5.1516
-5.17867
-5.20888
-5.24247
-5.27969
-5.32085
-5.36632
-5.41648
-5.47184
-5.53289
-5.60043
-5.67573
-5.11637
-5.11669
-5.11951
-5.12387
-5.12974
-5.13739
-5.14681
-5.15802
-5.17111
-5.18613
-5.20318
-5.22236
-5.24375
-5.26749
-5.29367
-5.32244
-5.35393
-5.38828
-5.42566
-5.46622
-5.51023
-5.55747
-5.6095
-5.21193
-5.21136
-5.21317
-5.21638
-5.22083
-5.2267
-5.23397
-5.24265
-5.25277
-5.26437
-5.27748
-5.29216
-5.30845
-5.32639
-5.34604
-5.36742
-5.39058
-5.41554
-5.44233
-5.47091
-5.50141
-5.5333
-5.56779
-5.30552
-5.30427
-5.30522
-5.30744
-5.31065
-5.31496
-5.32033
-5.32676
-5.33425
-5.34282
-5.35248
-5.36325
-5.37512
-5.38812
-5.40224
-5.41748
-5.43382
-5.45124
-5.46971
-5.48912
-5.5095
-5.53041
-5.55247
-5.39816
-5.39644
-5.39669
-5.39809
-5.40027
-5.40324
-5.40696
-5.41143
-5.41665
-5.42261
-5.42931
-5.43674
-5.44489
-5.45376
-5.46334
-5.47359
-5.48449
-5.496
-5.50806
-5.52059
-5.53357
-5.54673
-5.56029
-5.49145
-5.48953
-5.48935
-5.49015
-5.49152
-5.49342
-5.49579
-5.49864
-5.50197
-5.50577
-5.51003
-5.51473
-5.51986
-5.52542
-5.53138
-5.53772
-5.5444
-5.55139
-5.55864
-5.5661
-5.57371
-5.58136
-5.58904
-5.58431
-5.58188
-5.58141
-5.5818
-5.58251
-5.58347
-5.58464
-5.58606
-5.58773
-5.58963
-5.59177
-5.59413
-5.5967
-5.59947
-5.60244
-5.60558
-5.60888
-5.6123
-5.61584
-5.61946
-5.62316
-5.6269
-5.63071
-5.68384
-5.68393
-5.68426
-5.68442
-5.68465
-5.68501
-5.68543
-5.68592
-5.68648
-5.68711
-5.68779
-5.68851
-5.68928
-5.69009
-5.69091
-5.69175
-5.69259
-5.6934
-5.69418
-5.6949
-5.69554
-5.69606
-5.6964
381.185
381.199
312.809
88.8198
313.552
291.354
234.597
101.897
220.847
186.511
123.305
59.2492
113.461
58.4791
20.5925
11.4787
32.36
7.23726
1.71541
-0.381292
6.3701
1.84933
0.0245532
-0.648981
4.3708
0.960299
-0.408212
-0.951172
3.9579
0.832441
-0.464176
-1.09151
1.81237
0.730718
-0.443128
-1.01731
7.22816
0.203714
-0.584339
-0.87205
15.267
-6.58402
-0.550768
-0.711667
21.2783
10.4496
-0.015112
-0.598241
-1.35397
-1.66036
-1.06009
-0.664656
-2.18998
-1.94756
-1.30605
-0.993441
-2.35914
-2.08714
-1.62428
-1.71402
-2.48306
-2.35994
-2.13764
-2.46051
-2.56228
-2.529
-2.61134
-2.83372
-2.65427
-2.68661
-2.94579
-3.04146
-2.75076
-2.84334
-3.11763
-3.23409
-2.83689
-3.00268
-3.25279
-3.43524
-2.98351
-3.20858
-3.45432
-3.66686
-3.21914
-3.44364
-3.71304
-3.93343
-3.49785
-3.73619
-4.02681
-4.23944
-3.83863
-4.10969
-4.3924
-4.59322
-4.32537
-4.61322
-4.90072
-5.0819
-4.9076
-5.18617
-5.48394
-5.743
-5.41317
-5.62852
-5.97136
-6.28258
-5.80513
-5.9868
-6.38114
-6.69677
-6.09239
-6.33593
-6.76173
-7.09583
-6.26741
-6.6561
-7.14641
-7.52913
-6.34337
-6.90854
-7.45852
-7.88173
-6.32055
-6.99911
-7.57554
-7.89947
-6.20118
-6.84061
-7.37465
-7.60838
-6.02911
-6.54014
-6.97868
-7.18249
-5.85805
-6.2238
-6.55821
-6.7216
-5.72564
-5.95972
-6.1896
-6.30671
-5.64161
-5.78159
-5.92454
-6.0033
-5.59959
-5.682
-5.76574
-5.81446
-5.58972
-5.63774
-5.68478
-5.71325
-5.60567
-5.63211
-5.65674
-5.67156
-5.63956
-5.65209
-5.66319
-5.66938
-5.69669
-5.69774
-5.69817
-5.69695
246.437
434.567
416.554
332.19
257.31
45.1052
-9.59569
101.688
192.891
194.55
175.214
110.634
68.3586
67.3841
111.657
142.409
175.442
236.244
264.677
173.045
361.194
425.822
314.93
171.205
7.38365
-13.237
75.3178
140.851
116.19
66.6874
22.5532
24.5427
39.5713
67.8921
88.6426
73.8105
117.478
169.925
80.5339
149.239
162.022
124.269
70.2923
-9.62413
-22.9698
32.8753
53.5579
28.2414
7.64871
5.88045
9.66818
23.3514
48.0805
62.1671
41.2167
37.685
77.9543
13.6707
16.6895
12.7111
9.20456
11.8673
20.0445
17.998
7.99923
0.993981
-1.99195
-0.708256
-0.548688
0.934011
6.72039
27.3446
36.1821
22.6086
16.0807
23.6499
-0.71656
0.453847
1.54
1.70427
1.52096
1.05945
0.00521537
-0.527764
-2.79424
-2.49246
-1.93736
-2.21982
-2.08939
-0.854265
11.3138
11.6063
8.06238
8.78176
10.0095
-0.492819
0.157506
0.71547
0.902273
0.991748
1.42796
1.93885
1.60738
0.318227
-1.17766
-1.9947
-2.39755
-2.53544
-2.19191
3.25563
3.65426
4.34295
3.46206
5.64135
-0.763944
-0.155746
0.323491
0.508357
0.730532
1.45504
2.3959
2.41593
1.09122
-0.918963
-2.1227
-2.36713
-2.45169
-2.64533
1.68622
1.90674
2.74859
1.33136
2.49505
-0.995049
-0.475452
-0.0204348
0.160028
0.425869
1.34574
2.65926
2.68535
1.09208
-1.08523
-2.27393
-2.27947
-2.18987
-2.58174
0.735681
1.07785
1.49092
0.353462
1.23785
-1.05236
-0.727967
-0.328164
-0.167406
0.0541758
0.83585
2.46337
2.39731
0.851129
-1.20485
-2.19623
-2.03123
-1.76301
-1.47017
-0.0923381
0.451386
0.537847
-0.364218
0.549483
-1.00666
-0.895441
-0.622886
-0.487411
-0.478414
-0.169255
1.0966
1.3416
0.0573627
-1.40715
-1.93682
-1.60606
-1.26486
-0.703941
-0.336704
0.0405647
-0.128408
-0.747111
0.590461
-0.944878
-0.989939
-0.908261
-0.939625
-1.47061
-1.55908
-0.835389
-0.990883
-1.59766
-1.86606
-1.69836
-1.14612
-0.823874
-0.463022
-0.364197
-0.172397
-0.453487
-0.856768
0.528671
-0.858945
-1.11957
-1.36907
-1.87249
-2.79606
-3.06146
-2.63067
-3.37194
-3.78859
-2.69558
-1.72295
-0.884272
-0.52933
-0.311987
-0.384326
-0.281037
-0.468161
-0.997445
0.36783
-1.03779
-1.60042
-2.19388
-2.92535
-3.45375
-3.6108
-3.81933
-5.27617
-5.81176
-3.81339
-2.07384
-0.916037
-0.388957
-0.262502
-0.449031
-0.428263
-0.47458
-0.645483
0.273375
-1.63472
-2.37515
-2.93069
-3.39045
-3.713
-3.89041
-4.46376
-6.2848
-7.30858
-4.90497
-2.62296
-1.28036
-0.490699
-0.467093
-0.592561
-0.661757
-0.597728
-0.482082
-0.0779247
-2.38212
-2.89401
-3.31465
-3.66608
-3.9749
-4.22919
-4.80381
-6.39051
-7.54329
-5.44361
-3.18094
-1.9362
-1.01148
-0.962503
-0.819557
-0.969523
-0.834796
-0.712932
-0.639931
-2.808
-3.16474
-3.53741
-3.87927
-4.18397
-4.47384
-5.01404
-6.24903
-6.73563
-5.317
-3.62093
-2.70111
-1.92889
-1.59261
-1.09514
-1.27306
-1.12127
-1.03912
-1.05406
-3.05952
-3.36892
-3.6977
-4.00233
-4.28043
-4.58138
-5.07616
-5.74937
-5.7973
-4.83283
-3.81273
-3.36837
-3.03658
-2.4052
-1.47362
-1.56243
-1.42593
-1.33312
-1.32018
-3.2676
-3.52925
-3.79581
-4.04389
-4.26841
-4.5159
-4.85282
-5.11647
-4.94338
-4.30798
-3.8134
-3.7797
-3.8351
-3.16786
-2.02212
-1.86617
-1.72983
-1.60406
-1.56415
-3.451
-3.66869
-3.87548
-4.05533
-4.20137
-4.33861
-4.47427
-4.49826
-4.28801
-3.91914
-3.73477
-3.91577
-4.2307
-3.55696
-2.58141
-2.18062
-2.01665
-1.86602
-1.80427
-3.64204
-3.82125
-3.97192
-4.08095
-4.14862
-4.18634
-4.1806
-4.08214
-3.88836
-3.68142
-3.64602
-3.87857
-4.22655
-3.57828
-2.84496
-2.4757
-2.27311
-2.11658
-2.03823
-3.85577
-3.99966
-4.09592
-4.1385
-4.13329
-4.08957
-4.00234
-3.86227
-3.68681
-3.54956
-3.56657
-3.79738
-4.0596
-3.66911
-3.00479
-2.68781
-2.49338
-2.35314
-2.26556
-4.09861
-4.20526
-4.24599
-4.22345
-4.14812
-4.03379
-3.89334
-3.73676
-3.57967
-3.46966
-3.49084
-3.69758
-3.92536
-3.69746
-3.13069
-2.85141
-2.68842
-2.5752
-2.4863
-4.37153
-4.43681
-4.42232
-4.33593
-4.19242
-4.01193
-3.82346
-3.65278
-3.50866
-3.41618
-3.42965
-3.60311
-3.79214
-3.67516
-3.24402
-2.99146
-2.86603
-2.78324
-2.70044
-4.68716
-4.71317
-4.64769
-4.49595
-4.27947
-4.03271
-3.80071
-3.61761
-3.48343
-3.40369
-3.41442
-3.53564
-3.67227
-3.61823
-3.33329
-3.12272
-3.03179
-2.97784
-2.90841
-5.14666
-5.12669
-5.00029
-4.77612
-4.47115
-4.13036
-3.83777
-3.6452
-3.52222
-3.44899
-3.44352
-3.51837
-3.60277
-3.5772
-3.4155
-3.26343
-3.19679
-3.1608
-3.11014
-5.81533
-5.70836
-5.47219
-5.14925
-4.76377
-4.35575
-3.98952
-3.7366
-3.61046
-3.53996
-3.51407
-3.5583
-3.60254
-3.59682
-3.51359
-3.41736
-3.36385
-3.33606
-3.30594
-6.34068
-6.18994
-5.88797
-5.50528
-5.08876
-4.65385
-4.25788
-3.92189
-3.72771
-3.64497
-3.60668
-3.63785
-3.6622
-3.67612
-3.63242
-3.57305
-3.5325
-3.51066
-3.49184
-6.72635
-6.53914
-6.18446
-5.75555
-5.33285
-4.92567
-4.52823
-4.1821
-3.88952
-3.75205
-3.70681
-3.73584
-3.76212
-3.7828
-3.77162
-3.72751
-3.70072
-3.68358
-3.67146
-7.09857
-6.85081
-6.42313
-5.91572
-5.45153
-5.07605
-4.75363
-4.41869
-4.10837
-3.88925
-3.81964
-3.85373
-3.8913
-3.91453
-3.9141
-3.88594
-3.86845
-3.85492
-3.84696
-7.46948
-7.09303
-6.59366
-6.0297
-5.52677
-5.13956
-4.87981
-4.63936
-4.3794
-4.12464
-4.00161
-4.01893
-4.05208
-4.06903
-4.06369
-4.04798
-4.03628
-4.02513
-4.01971
-7.6936
-7.20586
-6.66859
-6.08111
-5.58093
-5.20318
-4.95678
-4.80228
-4.64236
-4.46456
-4.29242
-4.23814
-4.23424
-4.23238
-4.22686
-4.2124
-4.20404
-4.19436
-4.1905
-7.6645
-7.17683
-6.63386
-6.07794
-5.61063
-5.26603
-5.04389
-4.91477
-4.83541
-4.74821
-4.58905
-4.46542
-4.41893
-4.40102
-4.39364
-4.37753
-4.37123
-4.36258
-4.35971
-7.41952
-7.00618
-6.50303
-6.0149
-5.61382
-5.32059
-5.13304
-5.01693
-4.95293
-4.90965
-4.78747
-4.65485
-4.59473
-4.56881
-4.55975
-4.54251
-4.53745
-4.52971
-4.52754
-7.05086
-6.71588
-6.30302
-5.91447
-5.59786
-5.3648
-5.2141
-5.11431
-5.05225
-5.00346
-4.91208
-4.81963
-4.76054
-4.7312
-4.72254
-4.70623
-4.70232
-4.69571
-4.69412
-6.62707
-6.38578
-6.08898
-5.80682
-5.57468
-5.40074
-5.28458
-5.20503
-5.14803
-5.09984
-5.02812
-4.9604
-4.9142
-4.88821
-4.88186
-4.86827
-4.86585
-4.86068
-4.85965
-6.25151
-6.09928
-5.9044
-5.71435
-5.55518
-5.43278
-5.34764
-5.28958
-5.24212
-5.19974
-5.14677
-5.0875
-5.05831
-5.04085
-5.03884
-5.02906
-5.02855
-5.02507
-5.02462
-5.97577
-5.88756
-5.76845
-5.64911
-5.54659
-5.46568
-5.40721
-5.37037
-5.33403
-5.30203
-5.2686
-5.21226
-5.20051
-5.19168
-5.19546
-5.18969
-5.19122
-5.1896
-5.18969
-5.79812
-5.75178
-5.68394
-5.61393
-5.5522
-5.50299
-5.46682
-5.45039
-5.42574
-5.41145
-5.39589
-5.33775
-5.34941
-5.34327
-5.35276
-5.35077
-5.35421
-5.35447
-5.35506
-5.71001
-5.67994
-5.6438
-5.60678
-5.57329
-5.54676
-5.52931
-5.53238
-5.52113
-5.53348
-5.53116
-5.46576
-5.50356
-5.49601
-5.50949
-5.51136
-5.51649
-5.51855
-5.51962
-5.66952
-5.6548
-5.63848
-5.62218
-5.60806
-5.59877
-5.59916
-5.61957
-5.62285
-5.66055
-5.66325
-5.60041
-5.6501
-5.64816
-5.66436
-5.67056
-5.67726
-5.68089
-5.68243
-5.66644
-5.65859
-5.65102
-5.64903
-5.65452
-5.66394
-5.68268
-5.71632
-5.73373
-5.78151
-5.76847
-5.74066
-5.78997
-5.80285
-5.82229
-5.83268
-5.8409
-5.84574
-5.84765
-5.69147
-5.67707
-5.67303
-5.69325
-5.7188
-5.74289
-5.77836
-5.8255
-5.85896
-5.91756
-5.82965
-5.87559
-5.94916
-5.9704
-5.99497
-6.00806
-6.01797
-6.02383
-6.02581
)
;

boundaryField
{
    leftWall
    {
        type            calculated;
        value           nonuniform List<scalar> 
50
(
707.828
648.296
588.008
526.947
464.958
401.948
338.114
274.38
174.39
59.3874
20.0387
19.1331
15.1224
10.5766
7.27592
4.98415
2.9817
1.10562
-0.348387
-1.14222
-1.52696
-1.72411
-1.81965
-1.89246
-2.01172
-2.18691
-2.39149
-2.60442
-2.81619
-3.02419
-3.22771
-3.42646
-3.61877
-3.80239
-3.97646
-4.14019
-4.29274
-4.4342
-4.56576
-4.68889
-4.80468
-4.91392
-5.01745
-5.11637
-5.21193
-5.30552
-5.39816
-5.49145
-5.58431
-5.68384
)
;
    }
    rightWall
    {
        type            calculated;
        value           nonuniform List<scalar> 
50
(
690.373
632.185
575.653
523.981
477.429
429.65
380.68
333.794
264.677
169.925
77.9543
23.6499
10.0095
5.64135
2.49505
1.23785
0.549483
0.590461
0.528671
0.36783
0.273375
-0.0779247
-0.639931
-1.05406
-1.32018
-1.56415
-1.80427
-2.03823
-2.26556
-2.4863
-2.70044
-2.90841
-3.11014
-3.30594
-3.49184
-3.67146
-3.84696
-4.01971
-4.1905
-4.35971
-4.52754
-4.69412
-4.85965
-5.02462
-5.18969
-5.35506
-5.51962
-5.68243
-5.84765
-6.02581
)
;
    }
    lowerWall
    {
        type            calculated;
        value           nonuniform List<scalar> 
62
(
737.257
737.834
739.186
741.287
744.109
747.588
751.84
756.981
762.926
769.612
776.901
784.671
792.765
801.051
809.39
817.609
825.507
832.829
839.314
844.84
849.816
854.055
856.283
826.853
768.407
711.554
656.206
602.342
550.139
496.938
439.355
443.523
436.632
359.461
135.549
789.164
770.71
754.768
739.455
723.36
686.679
596.688
464.048
797.479
802.81
787.009
767.239
772.15
732.942
659.204
577.457
531.936
547.14
582.597
611.459
637.674
656.515
663.02
659.262
662.809
688.487
718.337
)
;
    }
    atmosphere
    {
        type            calculated;
        value           nonuniform List<scalar> 
46
(
-5.72904
-5.72904
-5.72904
-5.72904
-5.72904
-5.72904
-5.72904
-5.72904
-5.72904
-5.72904
-5.72904
-5.72904
-5.72904
-5.72904
-5.72904
-5.72904
-5.72904
-5.72904
-5.72904
-5.72904
-5.72904
-5.72904
-5.72904
-5.72904
-5.72904
-5.72904
-5.72904
-5.72904
-5.72904
-5.73454
-5.74619
-5.75884
-5.78165
-5.82873
-5.88698
-5.93092
-6.02037
-5.82061
-5.93705
-6.05544
-6.06453
-6.09401
-6.10687
-6.11787
-6.12433
-6.12596
)
;
    }
    defaultFaces
    {
        type            empty;
    }
}


// ************************************************************************* //
