/*--------------------------------*- C++ -*----------------------------------*\
| =========                 |                                                 |
| \\      /  F ield         | OpenFOAM: The Open Source CFD Toolbox           |
|  \\    /   O peration     | Version:  2206                                  |
|   \\  /    A nd           | Website:  www.openfoam.com                      |
|    \\/     M anipulation  |                                                 |
\*---------------------------------------------------------------------------*/
FoamFile
{
    version     2.0;
    format      ascii;
    arch        "LSB;label=32;scalar=64";
    class       volScalarField;
    location    "1";
    object      p_rgh;
}
// * * * * * * * * * * * * * * * * * * * * * * * * * * * * * * * * * * * * * //

dimensions      [1 -1 -2 0 0 0 0];

internalField   nonuniform List<scalar> 
2268
(
737.257
737.834
739.186
741.287
744.109
747.588
751.84
756.981
762.926
769.612
776.901
784.671
792.765
801.051
809.39
817.609
825.507
832.829
839.314
844.84
849.816
854.055
856.283
736.584
737.124
738.459
740.547
743.34
746.795
751.037
756.21
762.232
769.008
776.398
784.26
792.498
800.917
809.426
817.846
825.923
833.301
839.658
845.151
850.189
854.116
856.695
735.155
735.71
737.017
739.079
741.809
745.261
749.428
754.717
760.902
767.845
775.398
783.447
791.881
800.569
809.399
818.2
826.743
834.726
841.866
848.078
852.874
856.434
858.701
732.953
733.52
734.825
736.789
739.472
742.929
747.261
752.628
759.017
766.182
773.958
782.243
790.963
800.042
809.377
818.807
828.098
836.937
844.926
851.734
856.96
860.44
862.212
729.823
730.229
731.216
733.052
735.862
739.721
744.487
750.167
756.736
764.084
772.077
780.621
789.683
799.245
809.247
819.537
829.851
839.815
848.957
856.567
862.35
865.928
867.207
725.671
725.749
726.053
727.385
730.681
735.376
741.023
747.325
754.184
761.674
769.83
778.574
787.942
798.014
808.807
820.178
831.801
843.194
853.782
862.572
869.198
873.034
873.862
720.696
720.372
720.082
721.081
724.653
730.334
736.979
744.103
751.409
758.985
767.25
776.074
785.608
796.137
807.829
820.565
833.922
847.312
860.086
869.947
877.438
881.074
879.519
715.82
715.215
714.696
715.165
719.036
725.371
732.687
740.423
748.245
755.881
764.289
772.967
782.344
793.11
805.71
820.006
835.356
850.751
864.745
878.165
887.245
889.456
880.792
797.479
802.81
787.009
767.239
772.15
732.942
659.204
577.457
531.936
547.14
582.597
611.459
637.674
656.515
663.02
659.262
662.809
688.487
718.337
795.656
806.734
798.648
752.815
740.494
698.59
646.669
578.397
529.776
541.841
567.289
592.974
624.609
642.958
646.926
647.677
654.638
681.039
716.078
796.393
846.598
800.133
708.15
669.704
657.639
642.145
576.234
508.133
520.001
559.206
591.069
618.095
637.541
637.57
633.459
631.181
666.711
715.46
801.035
904.296
793.009
660.242
631.56
644.707
630.575
571.109
503.532
514.225
560.377
599.909
641.475
656.267
659.887
627.173
627.976
639.496
705.684
805.915
915.08
768.143
631.087
629.136
592.685
569.641
539.437
528.793
554.655
604.762
625.483
633.762
641.99
657.739
646.633
623.738
639.053
700.641
858.437
836.302
731.622
625.264
562.831
419.317
376.971
381.425
512.427
555.591
609.086
622.64
623.072
627.151
644.693
670.131
630.439
648.903
729.047
855.103
719.389
714.299
563.728
427.771
334.069
298.473
333.995
362.939
546.179
620.212
622.041
612.377
609
627.301
658.8
688.902
688.212
734.513
794.24
706.644
622.054
486.084
450.001
371.14
232.559
308.516
352.391
442.257
629.688
620.82
592.214
532.289
539.953
642.013
682.496
708.248
742.064
707.857
707.621
707.525
708.317
711.658
717.019
725.263
733.645
742.316
751.273
759.839
767.902
776.105
786.933
801.733
819.969
840.135
860.638
879.853
895.249
905.945
907.091
904.722
476.885
477.342
475.95
461.279
430.492
438.176
470.748
498.526
500.308
507.37
524.312
546.307
565.433
595.281
642.648
703.088
769.071
835.196
884.263
905.883
905.734
915.339
924.861
20.9596
20.8487
20.5366
27.1872
43.5485
62.1652
94.6214
128.894
139.491
122.316
127.262
125.461
119.216
119.542
143.718
185.516
215.016
273.741
577.966
897.778
954.667
968.056
974.669
20.2004
20.133
20.3346
22.269
34.4887
40.9191
38.3141
46.7829
60.8464
83.7363
195.142
384.015
382.824
194.394
130.119
324.214
746.48
873.179
905.753
944.371
970.779
985.89
993.531
16.3106
15.9264
15.7492
16.1397
17.6717
19.5122
24.0563
33.4803
52.4978
86.943
449.547
816.704
905.543
894.482
886.952
887.49
928.766
969.062
985.683
1006.59
1028.12
1033.66
1003.74
11.8626
11.5463
11.2554
11.0385
11.0466
11.7867
14.6251
22.7365
41.5663
82.3747
514.736
919.792
1078.01
1089.4
1090.9
1091.14
1095.61
1111.31
1127.16
1134.53
1105.3
625.628
293.928
8.64899
8.45531
8.19774
7.94771
7.732
8.33104
10.5111
17.6838
36.1751
182.21
650.624
995.991
979.6
752.528
738.881
717.945
796.005
1170.63
1259.82
1231.33
976.128
273.163
43.5794
6.46334
6.3504
6.31736
6.78382
7.18774
6.59856
7.44215
12.9199
31.2191
287.904
770.757
940.387
1027.87
881.298
760.931
767.854
767.906
770.853
837.765
1145.69
1138.59
897.413
236.017
4.57213
4.52196
5.1961
6.8681
6.68085
4.51243
3.84324
5.65436
11.868
41.9219
467.273
928.078
1011.98
1010.01
1040
901.321
806.972
812.485
820.255
1129.24
1159.93
1156.25
886.332
2.81287
2.68128
5.25465
5.32925
5.16305
2.64373
1.68108
1.98973
3.58069
6.31047
21.2965
491.574
981.613
1078.6
1147.08
1052.72
852.345
1193.29
1218.17
1220.77
1221.93
1222.69
1192.7
1.46423
1.25241
3.88294
4.0759
3.92192
1.88869
0.663546
0.334945
0.585491
1.38408
3.10952
5.971
129.635
903.658
1252.66
1265.72
1253.83
1266.35
1274.34
1284.19
1289.06
1283.99
1267.65
0.780775
0.599015
1.48147
2.83796
2.33104
1.77632
0.256091
-0.181631
-0.261637
-0.199048
0.0640289
2.60395
3.30207
1.28526
48.6587
809.771
1325.91
1371.78
1372.01
1375.22
1380.67
1115.68
969.921
0.513063
0.381536
0.199819
0.550434
0.0816898
0.676417
0.225419
-0.275055
-0.392107
-0.414398
-0.380009
-0.301916
-0.228196
-0.0592617
0.116116
-0.221641
1.02954
74.2497
233.559
286.405
196.742
105.239
73.701
0.438602
0.454855
0.353084
0.252812
0.123328
0.0207022
0.106007
-0.134364
-0.236715
-0.271379
-0.279131
-0.26391
-0.229696
-0.192083
-0.202103
-0.147479
-0.0764784
-0.0911085
-0.0670068
-0.00253089
0.0634082
0.122597
0.149648
0.467296
0.537947
0.526998
0.446845
0.32565
0.214391
0.122388
0.0535388
-0.0118575
-0.0469992
-0.0645675
-0.0670559
-0.0528865
-0.0272971
-0.0148253
0.00462829
0.0145138
0.0115105
0.0316335
0.0838476
0.137606
0.156609
0.10697
0.519333
0.580374
0.589712
0.538613
0.453318
0.36879
0.289982
0.224568
0.169963
0.131522
0.106975
0.0952041
0.0982138
0.112433
0.119793
0.134457
0.150916
0.163471
0.18248
0.202249
0.212306
0.193374
0.119854
0.52513
0.559148
0.563605
0.532648
0.481045
0.42588
0.37184
0.320853
0.2761
0.240446
0.214245
0.197844
0.193321
0.196633
0.202171
0.21398
0.229944
0.240281
0.246764
0.244064
0.230671
0.194453
0.128758
0.475058
0.490184
0.490592
0.472146
0.442793
0.410195
0.376234
0.342139
0.310308
0.283108
0.261638
0.246324
0.262903
0.25103
0.237659
0.244107
0.256607
0.261299
0.25893
0.246775
0.224553
0.186488
0.137403
0.39566
0.403282
0.402157
0.390514
0.373751
0.354746
0.334128
0.312795
0.292224
0.27374
0.258206
0.251212
0.275985
0.259215
0.233116
0.235485
0.245835
0.249892
0.246108
0.234014
0.214027
0.18408
0.155654
0.307917
0.313884
0.311483
0.303706
0.293386
0.28141
0.268266
0.254561
0.241154
0.228582
0.217156
0.242045
0.238762
0.215619
0.192152
0.192732
0.201642
0.207389
0.206311
0.198873
0.186407
0.16975
0.179557
0.22136
0.226591
0.223011
0.217139
0.209354
0.200375
0.190685
0.180685
0.170862
0.161198
0.159945
0.185154
0.174926
0.135552
0.123624
0.122035
0.125447
0.129875
0.1297
0.125203
0.116098
0.116633
0.878561
0.138559
0.142202
0.137925
0.132743
0.125526
0.117372
0.10855
0.0994071
0.0902205
0.0815749
0.10478
0.104448
0.0767752
0.041558
0.0323771
0.0261703
0.023039
0.0208798
0.0162791
0.00861227
-0.00324626
0.0187673
0.955844
0.0602312
0.0615939
0.0569523
0.0515474
0.0440657
0.0356554
0.0262754
0.0162359
0.0057154
-0.000936432
0.0126976
0.00370446
-0.0402949
-0.0584702
-0.0741408
-0.0888123
-0.101038
-0.113403
-0.127505
-0.143947
-0.162326
-0.16183
0.199947
-0.0134423
-0.0142254
-0.0191288
-0.02532
-0.0334864
-0.0428112
-0.0535175
-0.0654011
-0.0780648
-0.0859988
-0.103602
-0.12278
-0.144303
-0.165039
-0.189968
-0.216214
-0.240937
-0.267497
-0.297483
-0.331048
-0.361676
-0.347447
0.73511
-0.0806208
-0.0833862
-0.0886627
-0.0957985
-0.104947
-0.115721
-0.12834
-0.142742
-0.15795
-0.174066
-0.197931
-0.221067
-0.246024
-0.274653
-0.309948
-0.350332
-0.391405
-0.438071
-0.49394
-0.560161
-0.62126
-0.0845701
1.96023
-0.139052
-0.143822
-0.14939
-0.157383
-0.167691
-0.180243
-0.195189
-0.21257
-0.231524
-0.255375
-0.281433
-0.310655
-0.341365
-0.380423
-0.42706
-0.482443
-0.542022
-0.612532
-0.700257
-0.808958
-0.905529
0.515606
1.63821
-0.187932
-0.194153
-0.199744
-0.208499
-0.219956
-0.23425
-0.251506
-0.27183
-0.295367
-0.322759
-0.353809
-0.388913
-0.425775
-0.47355
-0.529386
-0.598579
-0.674141
-0.764502
-0.876787
-1.01506
-1.14831
0.155472
1.37726
-0.226469
-0.233378
-0.238921
-0.248363
-0.260781
-0.27647
-0.295569
-0.318245
-0.344894
-0.375537
-0.410636
-0.450563
-0.492258
-0.54571
-0.607966
-0.685526
-0.771046
-0.872192
-0.995414
-1.14524
-1.29926
-0.629215
0.889377
-0.25382
-0.260814
-0.266521
-0.276501
-0.289558
-0.306111
-0.326306
-0.350372
-0.378638
-0.411276
-0.448715
-0.491575
-0.538103
-0.591723
-0.656954
-0.736325
-0.826071
-0.929358
-1.05263
-1.20283
-1.3789
-1.40485
-1.22587
-0.270087
-0.276757
-0.28281
-0.293009
-0.306248
-0.323012
-0.343435
-0.367768
-0.396284
-0.429278
-0.46714
-0.510412
-0.559779
-0.610846
-0.675169
-0.750162
-0.840739
-0.940421
-1.05695
-1.19625
-1.36247
-1.5514
-1.70928
-0.27646
-0.282468
-0.288775
-0.298734
-0.311599
-0.327869
-0.347648
-0.371166
-0.398693
-0.430542
-0.467084
-0.508783
-0.556214
-0.608283
-0.665633
-0.735938
-0.821024
-0.913266
-1.01915
-1.14267
-1.28809
-1.45666
-1.63218
-0.274396
-0.279444
-0.285667
-0.29492
-0.306871
-0.321994
-0.34037
-0.362188
-0.3877
-0.417199
-0.45102
-0.48956
-0.533289
-0.582759
-0.636264
-0.698958
-0.773211
-0.855752
-0.948871
-1.05562
-1.17909
-1.32337
-1.48484
-0.264991
-0.268868
-0.274597
-0.282791
-0.293416
-0.306904
-0.323319
-0.3428
-0.365563
-0.391855
-0.421954
-0.456185
-0.494918
-0.538586
-0.58764
-0.642797
-0.704488
-0.775154
-0.854388
-0.944042
-1.04604
-1.16438
-1.29875
-0.249035
-0.251661
-0.256565
-0.263502
-0.272565
-0.284142
-0.298274
-0.315054
-0.334646
-0.357241
-0.383048
-0.412311
-0.445303
-0.482337
-0.523765
-0.57004
-0.621591
-0.679298
-0.74386
-0.816093
-0.896959
-0.988946
-1.09256
-0.22737
-0.228787
-0.232672
-0.238294
-0.245731
-0.255309
-0.267054
-0.281014
-0.297303
-0.316052
-0.337405
-0.361522
-0.388585
-0.418796
-0.452378
-0.4896
-0.53076
-0.576174
-0.62635
-0.681737
-0.742799
-0.810336
-0.88559
-0.201091
-0.201418
-0.204235
-0.208594
-0.214467
-0.22211
-0.231532
-0.242749
-0.255829
-0.270854
-0.287906
-0.30708
-0.328478
-0.352211
-0.378396
-0.407163
-0.438649
-0.473
-0.510364
-0.550928
-0.594946
-0.642191
-0.694213
-0.171461
-0.170888
-0.172698
-0.175909
-0.18036
-0.186225
-0.1935
-0.202179
-0.212298
-0.223896
-0.237013
-0.251693
-0.267981
-0.285923
-0.305564
-0.326945
-0.350105
-0.375065
-0.401858
-0.43043
-0.460936
-0.492826
-0.527317
-0.139855
-0.13861
-0.139554
-0.141773
-0.14499
-0.149294
-0.154666
-0.161092
-0.168585
-0.177157
-0.186819
-0.197583
-0.209458
-0.222454
-0.236574
-0.251812
-0.268157
-0.285576
-0.304044
-0.323446
-0.343832
-0.364743
-0.386807
-0.107303
-0.105584
-0.105832
-0.107229
-0.109409
-0.112378
-0.116104
-0.120573
-0.125789
-0.131749
-0.138446
-0.145876
-0.154032
-0.162905
-0.172479
-0.182732
-0.193634
-0.205138
-0.217203
-0.229728
-0.242705
-0.255867
-0.269425
-0.0753991
-0.0734789
-0.0732975
-0.0740982
-0.0754712
-0.0773632
-0.0797383
-0.0825897
-0.0859189
-0.0897173
-0.0939728
-0.0986743
-0.103811
-0.109367
-0.115326
-0.121662
-0.128345
-0.135333
-0.142588
-0.150041
-0.157659
-0.165306
-0.172982
-0.0430611
-0.0406337
-0.0401619
-0.040554
-0.0412665
-0.042218
-0.0433945
-0.0448113
-0.046477
-0.0483837
-0.0505204
-0.0528783
-0.0554494
-0.0582239
-0.0611897
-0.0643306
-0.0676277
-0.0710562
-0.0745953
-0.0782159
-0.0819075
-0.0856486
-0.0894581
-0.0173957
-0.0174915
-0.0178218
-0.0179732
-0.0182114
-0.0185651
-0.0189885
-0.0194792
-0.0200398
-0.0206635
-0.0213427
-0.0220707
-0.0228403
-0.0236435
-0.0244707
-0.0253097
-0.0261459
-0.0269615
-0.0277389
-0.0284574
-0.0290936
-0.0296123
-0.0299528
912.445
853.609
710.39
487.059
967.499
916.364
766.609
597.89
990.559
903.517
740.233
663.369
969.81
494.95
208.892
183.439
540.115
12.5877
3.48088
0.761921
92.5205
3.71456
1.27767
0.519329
10.169
2.34873
0.886543
0.335028
38.7197
2.25795
0.947414
0.319469
206.642
2.27
1.09324
0.51894
806.876
29.9265
4.12654
0.78949
1245.88
775.798
15.4859
1.07518
812.712
389.026
45.9439
1.3139
34.347
0.946958
2.23682
1.84612
0.131069
0.576036
2.04584
5.09653
0.0162352
1.22188
5.85964
5.59237
0.025987
2.8419
5.88753
2.54325
0.216079
4.7158
5.8247
-0.221235
0.909865
4.93162
2.40062
-0.292381
1.46506
5.08445
-0.289982
-0.251909
1.80908
3.87854
-0.313509
-0.315282
2.16728
1.21598
-0.398903
-0.530508
2.09304
0.538536
-0.534367
-0.756337
0.887617
1.06579
-0.719512
-0.934937
2.16052
1.15499
-0.953854
-1.11023
1.89385
1.606
-0.470247
-0.338902
1.53168
0.369792
-1.71086
0.0332892
1.23146
-1.66754
-2.12259
-2.43743
0.572166
-1.62205
-2.40893
-2.72942
-1.48855
0.072179
-2.14754
-2.92983
-1.86295
0.126944
-0.290719
-0.657515
-1.97255
0.153264
-0.38031
-0.802681
-1.89442
0.230011
-0.290208
-0.614661
-1.65803
-1.51884
-0.087733
-1.27792
-1.36329
-1.8717
-2.01183
-2.37974
-1.06774
-1.43275
-1.76155
-1.91498
-0.81031
-1.04421
-1.27337
-1.38901
-0.601133
-0.741071
-0.883943
-0.962582
-0.433926
-0.516326
-0.600056
-0.648774
-0.298863
-0.346877
-0.393917
-0.422383
-0.18962
-0.216051
-0.240686
-0.255499
-0.0983086
-0.110845
-0.121944
-0.128132
-0.0302453
-0.0312979
-0.0317272
-0.030502
678.453
745.196
648.985
562.782
617.202
467.047
228.069
290.424
381.627
490.517
661.409
565.543
319.013
184.092
210.734
432.405
662.17
727.799
757.26
707.278
894.658
941.863
845.323
701.599
536.096
396.327
324.432
534.58
623.467
525.684
71.6275
27.6977
44.088
72.9554
94.8061
308.831
720.22
777.288
716.131
784.836
769.058
712.314
663.394
604.086
584.343
634.737
649.211
427.38
46.805
8.16244
11.8322
29.1948
59.1211
71.5073
49.5409
266.227
777.649
241.475
247.863
151.204
98.9963
153.356
339.618
483.156
423.739
174.542
29.473
1.73212
0.742614
2.25884
18.8894
50.3303
57.839
31.6874
25.7344
217.374
0.36224
1.48167
2.56503
2.74468
2.57902
2.1813
1.34236
17.8297
-0.160867
-0.343865
-0.559121
-1.1311
-0.950256
5.60276
37.5053
25.2659
12.137
21.6904
23.4727
0.667148
1.31804
1.87549
2.06462
2.1591
2.6142
3.18529
3.1888
1.77253
0.199296
-0.785216
-1.23659
-1.34329
1.45655
32.5214
5.72404
5.64636
11.0654
20.2844
0.52174
1.13005
1.60939
1.79461
2.01859
2.75388
3.79006
3.79781
2.46958
0.404678
-0.836317
-1.08164
-1.16542
5.99831
33.4869
3.33766
4.17944
3.31652
19.0455
0.415936
0.935532
1.39066
1.57457
1.88126
2.86062
4.14963
4.17673
2.55611
0.330922
-0.86315
-0.868691
-0.778993
19.3672
30.5304
2.64559
3.06135
1.93953
13.4399
0.483912
0.808318
1.20874
1.37251
1.79557
6.62507
7.41735
4.17201
2.40052
0.332818
-0.659979
-0.495164
-0.226909
17.8263
6.90652
2.15218
2.3347
1.60349
12.9485
0.654889
0.766159
1.0413
1.19271
5.53573
8.80005
10.0781
8.31799
1.93349
0.268451
-0.273978
0.0554908
0.396546
2.85501
1.40553
1.82562
2.42057
3.70758
14.3447
0.841965
0.802371
1.08008
3.64029
7.97548
8.08394
8.85674
8.68271
3.72336
0.0268016
0.10059
0.641778
0.963003
1.32487
1.469
1.70122
2.50472
7.4065
10.3678
1.06444
2.352
4.52816
6.82447
6.0277
5.28143
7.69408
6.99981
6.3958
0.0612062
0.214861
1.03195
1.38475
1.60423
1.58529
1.74151
2.19159
9.78902
10.7496
4.15131
5.25459
4.66285
2.69341
-1.37312
-1.55354
5.08609
5.72512
5.02894
1.22966
-0.00342398
1.13081
1.65712
1.82569
1.8336
1.77559
1.59605
4.67219
11.6956
5.48652
4.90142
2.45482
-1.21754
-1.53914
-1.71299
-1.04904
5.22256
4.11809
1.84776
-0.421228
0.90975
1.75022
6.51293
2.11615
1.96685
1.56768
2.30895
8.59213
3.1227
-0.453452
-1.02027
-1.37056
-1.67716
-1.92938
-2.39687
1.57298
3.93832
-0.359888
-0.837138
0.393082
1.69818
9.69037
2.05133
1.75745
1.45154
1.68858
4.83648
-0.37985
-0.744711
-1.11976
-1.45884
-1.75201
-1.98032
-2.53494
-3.48579
-2.97224
-2.51935
-1.1682
-0.241356
1.63293
9.64704
1.98373
1.16853
1.29012
1.3743
1.60769
-0.46272
-0.775811
-1.1563
-1.45502
-1.63567
-1.93489
-2.46754
-3.15464
-3.23068
-2.2666
-1.25068
-0.794506
1.61538
9.41788
6.2363
0.974155
1.11065
1.20346
1.2164
-0.42824
-0.709675
-1.13316
-1.37939
-1.53879
-1.74326
-2.14031
-2.45058
-2.27616
-1.63647
-1.13904
-1.09321
1.62571
9.23884
10.2451
0.79561
0.931945
1.05772
1.09767
-0.467404
-0.837127
-1.08778
-1.26777
-1.41391
-1.55129
-1.68711
-1.70998
-1.50004
-1.12985
-0.942655
-1.11327
1.18383
9.3471
3.98211
0.606358
0.770319
0.920958
0.98275
-0.607426
-0.907732
-1.05881
-1.16768
-1.2354
-1.27384
-1.26827
-1.16984
-0.976008
-0.768777
-0.732488
-0.951768
0.0378639
4.81587
0.0675614
0.436489
0.639056
0.795587
0.873933
-0.800501
-0.960456
-1.05715
-1.09966
-1.09535
-1.05204
-0.964852
-0.82479
-0.649349
-0.512055
-0.528874
-0.746501
-0.660281
-0.625956
0.0340622
0.349637
0.543974
0.684215
0.771794
-0.92499
-1.03965
-1.08039
-1.05784
-0.983842
-0.870703
-0.730664
-0.574101
-0.417023
-0.307007
-0.328139
-0.534174
-0.644928
-0.518361
0.0368483
0.311652
0.474354
0.587354
0.676248
-1.06867
-1.14005
-1.12219
-1.03473
-0.894923
-0.720206
-0.535304
-0.364942
-0.220815
-0.128338
-0.141809
-0.315258
-0.43312
-0.371877
0.0603628
0.298388
0.425312
0.504502
0.587305
-1.08418
-1.01578
-0.800866
-0.590799
-0.607421
-0.578786
-0.382921
-0.204558
-0.0703939
0.00935351
-0.00137726
-0.122605
-0.25786
-0.202272
0.462688
0.463604
0.385336
0.435112
0.50453
1.51037
1.93058
2.59973
3.28073
3.08688
1.73165
0.0494123
-0.105933
0.016018
0.0892485
0.0947164
0.0198677
-0.0645368
0.240707
1.28897
0.775529
0.341423
0.377341
0.427998
2.14514
2.53481
3.03524
3.51424
3.92952
4.37029
4.29138
0.45437
0.0532131
0.123474
0.149361
0.105139
0.0609108
1.24706
1.35733
0.780212
0.299529
0.327274
0.357393
-2.49582
-1.7702
-0.249002
1.71522
3.93549
4.42767
4.81187
5.05893
0.0689567
0.143919
0.18199
0.150804
0.310687
1.34763
1.40497
0.392301
0.256052
0.277862
0.29668
-2.7931
-2.61534
-2.2698
-1.8397
-0.548817
4.09765
4.85552
5.15988
3.6448
0.167098
0.207907
0.178359
1.30686
1.39285
1.11564
0.209776
0.213005
0.230137
0.242263
-2.65792
-2.80807
-2.38362
-1.8766
-1.4115
-0.977118
4.71631
5.17715
5.48747
0.9506
0.232287
0.198994
1.37814
1.42454
0.125422
0.152985
0.170463
0.183996
0.191958
-0.707927
-2.59862
-2.42933
-1.86546
-1.36256
-0.975165
-0.428123
5.22389
5.429
5.40704
1.85027
0.761938
0.745161
0.340387
0.100418
0.116131
0.127828
0.138976
0.144401
-0.615386
-2.26227
-2.37891
-1.79169
-1.29156
-0.913868
-0.667474
0.0134185
4.69889
5.258
5.20999
1.32242
0.0550727
0.056927
0.062446
0.0769033
0.0852672
0.0949406
0.0988078
-1.5425
-2.74238
-2.21906
-1.66332
-1.19601
-0.851528
-0.629393
-0.500269
-0.420916
2.85082
4.993
0.182646
-0.00443458
0.013473
0.0208609
0.0369721
0.043267
0.0519183
0.0547916
-2.83436
-2.46477
-1.96305
-1.47506
-1.07391
-0.780854
-0.593347
-0.477238
-0.413238
-0.369957
0.544902
-0.115114
-0.0550254
-0.0291145
-0.0200615
-0.00282296
0.0022433
0.00998069
0.0121549
-2.34937
-2.05037
-1.63804
-1.24957
-0.932966
-0.699891
-0.549201
-0.449419
-0.387357
-0.338569
-0.247198
-0.154738
-0.0955969
-0.0661944
-0.0576497
-0.0413441
-0.0374356
-0.0308192
-0.0292308
-1.82772
-1.59552
-1.29888
-1.01673
-0.784589
-0.610657
-0.494484
-0.414941
-0.357942
-0.30976
-0.238035
-0.170311
-0.121455
-0.0978892
-0.0917789
-0.0781867
-0.0757731
-0.0705953
-0.0695725
-1.33488
-1.18394
-0.989118
-0.799064
-0.639903
-0.517502
-0.432359
-0.374292
-0.326836
-0.284464
-0.231496
-0.162302
-0.132642
-0.125323
-0.123561
-0.113786
-0.11327
-0.109798
-0.109342
-0.935145
-0.847076
-0.727972
-0.608632
-0.506113
-0.425201
-0.366737
-0.3299
-0.293557
-0.261563
-0.228127
-0.141428
-0.150899
-0.151205
-0.154985
-0.149216
-0.150753
-0.149134
-0.149222
-0.632437
-0.586104
-0.51827
-0.448259
-0.386535
-0.337323
-0.301149
-0.28472
-0.260073
-0.245786
-0.230128
-0.139834
-0.180709
-0.177609
-0.187098
-0.185105
-0.188545
-0.188803
-0.189397
-0.419142
-0.389072
-0.352933
-0.31592
-0.282428
-0.255896
-0.238448
-0.241524
-0.230274
-0.242616
-0.232276
-0.141324
-0.211615
-0.205148
-0.218634
-0.220503
-0.225634
-0.22769
-0.228766
-0.253461
-0.238745
-0.222428
-0.206127
-0.192006
-0.182713
-0.18311
-0.203517
-0.206796
-0.244492
-0.0172689
-0.149486
-0.234044
-0.23211
-0.248305
-0.254503
-0.26121
-0.264834
-0.266374
-0.125188
-0.11734
-0.109774
-0.107783
-0.113275
-0.122696
-0.141435
-0.175074
-0.192484
-0.239415
0.0733578
-0.187062
-0.248721
-0.261601
-0.281041
-0.291427
-0.299649
-0.304495
-0.306404
-0.0250225
-0.01063
-0.0065874
-0.0268074
-0.0523601
-0.0764506
-0.111919
-0.159058
-0.192519
-0.249095
0.0495045
-0.207654
-0.282716
-0.303961
-0.328531
-0.341621
-0.351526
-0.357391
-0.359364
)
;

boundaryField
{
    leftWall
    {
        type            fixedFluxPressure;
        gradient        uniform 0;
        value           nonuniform List<scalar> 
50
(
737.257
736.584
735.155
732.953
729.823
725.671
720.696
715.82
707.857
476.885
20.9596
20.2004
16.3106
11.8626
8.64899
6.46334
4.57213
2.81287
1.46423
0.780775
0.513063
0.438602
0.467296
0.519333
0.52513
0.475058
0.39566
0.307917
0.22136
0.138559
0.0602312
-0.0134423
-0.0806208
-0.139052
-0.187932
-0.226469
-0.25382
-0.270087
-0.27646
-0.274396
-0.264991
-0.249035
-0.22737
-0.201091
-0.171461
-0.139855
-0.107303
-0.0753991
-0.0430611
-0.0173957
)
;
    }
    rightWall
    {
        type            fixedFluxPressure;
        gradient        uniform 0;
        value           nonuniform List<scalar> 
50
(
718.337
716.078
715.46
705.684
700.641
729.047
734.513
742.064
757.26
777.288
777.649
217.374
23.4727
20.2844
19.0455
13.4399
12.9485
14.3447
10.3678
10.7496
11.6956
8.59213
4.83648
1.60769
1.2164
1.09767
0.98275
0.873933
0.771794
0.676248
0.587305
0.50453
0.427998
0.357393
0.29668
0.242263
0.191958
0.144401
0.0988078
0.0547916
0.0121549
-0.0292308
-0.0695725
-0.109342
-0.149222
-0.189397
-0.228766
-0.266374
-0.306404
-0.359364
)
;
    }
    lowerWall
    {
        type            fixedFluxPressure;
        gradient        uniform 0;
        value           nonuniform List<scalar> 
62
(
737.257
737.834
739.186
741.287
744.109
747.588
751.84
756.981
762.926
769.612
776.901
784.671
792.765
801.051
809.39
817.609
825.507
832.829
839.314
844.84
849.816
854.055
856.283
856.283
856.695
858.701
862.212
867.207
873.862
879.519
880.792
912.445
853.609
710.39
487.059
797.479
795.656
796.393
801.035
805.915
858.437
855.103
794.24
797.479
802.81
787.009
767.239
772.15
732.942
659.204
577.457
531.936
547.14
582.597
611.459
637.674
656.515
663.02
659.262
662.809
688.487
718.337
)
;
    }
    atmosphere
    {
        type            totalPressure;
        rho             rho;
        psi             none;
        gamma           1;
        p0              uniform 0;
        value           nonuniform List<scalar> 
46
(
0
0
0
0
0
0
0
0
0
0
0
0
0
0
0
0
0
0
0
0
0
0
0
0
0
0
0
0
0
-0.00550142
-0.0171492
-0.0298037
-0.0526073
-0.0996863
-0.157939
-0.201884
-0.291329
-0.0915665
-0.208015
-0.326397
-0.335494
-0.36497
-0.377832
-0.388832
-0.395293
-0.396919
)
;
    }
    defaultFaces
    {
        type            empty;
    }
}


// ************************************************************************* //
