/*--------------------------------*- C++ -*----------------------------------*\
| =========                 |                                                 |
| \\      /  F ield         | OpenFOAM: The Open Source CFD Toolbox           |
|  \\    /   O peration     | Version:  2206                                  |
|   \\  /    A nd           | Website:  www.openfoam.com                      |
|    \\/     M anipulation  |                                                 |
\*---------------------------------------------------------------------------*/
FoamFile
{
    version     2.0;
    format      ascii;
    arch        "LSB;label=32;scalar=64";
    class       surfaceScalarField;
    location    "1";
    object      phi;
}
// * * * * * * * * * * * * * * * * * * * * * * * * * * * * * * * * * * * * * //

dimensions      [0 3 -1 0 0 0 0];

oriented        oriented;

internalField   nonuniform List<scalar> 
4432
(
-8.84444e-07
8.84444e-07
-1.23402e-06
3.49577e-07
-9.28902e-07
-3.05113e-07
-2.75007e-07
-6.53897e-07
5.0472e-07
-7.79731e-07
1.11746e-06
-6.12739e-07
1.41636e-06
-2.98897e-07
1.39177e-06
2.45906e-08
1.0816e-06
3.10173e-07
5.30996e-07
5.5061e-07
-1.84264e-07
7.15261e-07
-9.74825e-07
7.9056e-07
-1.77023e-06
7.95399e-07
-2.5449e-06
7.74676e-07
-3.3175e-06
7.72595e-07
-4.11347e-06
7.95962e-07
-4.97803e-06
8.64555e-07
-5.90137e-06
9.23329e-07
-6.56214e-06
6.60768e-07
-6.42627e-06
-1.35869e-07
-5.31222e-06
-1.11404e-06
-2.91955e-06
-2.39268e-06
-2.91955e-06
-9.90607e-07
1.87505e-06
-1.26238e-06
6.21348e-07
-1.01833e-06
-5.49166e-07
-4.54175e-07
-1.21805e-06
3.11691e-07
-1.5456e-06
9.93258e-07
-1.2943e-06
1.35057e-06
-6.56202e-07
1.37483e-06
3.39618e-10
1.15793e-06
5.27075e-07
7.84449e-07
9.24094e-07
2.91284e-07
1.20842e-06
-2.9237e-07
1.37421e-06
-9.22461e-07
1.42548e-06
-1.54207e-06
1.39428e-06
-2.11983e-06
1.35035e-06
-2.66466e-06
1.34078e-06
-3.15331e-06
1.3532e-06
-3.52208e-06
1.2921e-06
-3.65389e-06
7.92574e-07
-3.63531e-06
-1.54439e-07
-3.07047e-06
-1.67889e-06
-1.89625e-06
-3.56691e-06
-4.8158e-06
-1.02222e-06
2.89727e-06
-1.48613e-06
1.08526e-06
-1.75705e-06
-2.78249e-07
-1.63871e-06
-1.3364e-06
-1.00309e-06
-2.18121e-06
-1.05607e-07
-2.19179e-06
5.78952e-07
-1.34076e-06
8.19932e-07
-2.40637e-07
7.18662e-07
6.28348e-07
3.94433e-07
1.24832e-06
-4.95678e-08
1.65242e-06
-5.59023e-07
1.88366e-06
-1.08567e-06
1.95213e-06
-1.58099e-06
1.88959e-06
-1.96736e-06
1.73673e-06
-2.17478e-06
1.54819e-06
-2.16192e-06
1.34034e-06
-1.9102e-06
1.04038e-06
-1.55959e-06
4.41968e-07
-1.05122e-06
-6.62814e-07
-5.45228e-07
-2.18489e-06
-3.02722e-07
-3.80941e-06
-5.11852e-06
-1.19186e-06
4.08914e-06
-2.25466e-06
2.14806e-06
-3.35164e-06
8.18728e-07
-3.77448e-06
-9.13566e-07
-3.40526e-06
-2.55042e-06
-2.43057e-06
-3.16648e-06
-1.24656e-06
-2.52477e-06
-4.33128e-07
-1.05407e-06
-1.43705e-07
3.38919e-07
-2.27188e-07
1.3318e-06
-5.28136e-07
1.95336e-06
-9.4593e-07
2.30145e-06
-1.4172e-06
2.4234e-06
-1.87701e-06
2.34941e-06
-2.25807e-06
2.11778e-06
-2.47585e-06
1.76596e-06
-2.43571e-06
1.3002e-06
-2.08982e-06
6.94471e-07
-1.51251e-06
-1.35347e-07
-8.6697e-07
-1.30836e-06
-3.59495e-07
-2.69236e-06
-9.74219e-08
-4.07148e-06
-5.21594e-06
-1.46493e-06
5.55407e-06
-3.1644e-06
3.84752e-06
-4.7622e-06
2.41653e-06
-5.58287e-06
-9.28926e-08
-5.62949e-06
-2.5038e-06
-4.93452e-06
-3.86146e-06
-3.66173e-06
-3.79756e-06
-2.3004e-06
-2.41541e-06
-1.45263e-06
-5.08859e-07
-1.14046e-06
1.01962e-06
-1.17881e-06
1.9917e-06
-1.42769e-06
2.55032e-06
-1.7962e-06
2.79192e-06
-2.22265e-06
2.77586e-06
-2.6446e-06
2.53973e-06
-2.98449e-06
2.10585e-06
-3.14715e-06
1.46287e-06
-3.04072e-06
5.88035e-07
-2.64299e-06
-5.33076e-07
-2.00004e-06
-1.95131e-06
-1.24658e-06
-3.44582e-06
-4.7683e-07
-4.84123e-06
-5.69277e-06
-1.43358e-06
6.98765e-06
-3.13018e-06
5.54413e-06
-4.62057e-06
3.90691e-06
-5.48635e-06
7.72887e-07
-5.87338e-06
-2.11678e-06
-5.84173e-06
-3.89311e-06
-5.23193e-06
-4.40737e-06
-4.04645e-06
-3.6009e-06
-2.88698e-06
-1.66833e-06
-2.21228e-06
3.44921e-07
-1.97727e-06
1.75668e-06
-2.03364e-06
2.60669e-06
-2.27577e-06
3.03405e-06
-2.64877e-06
3.14886e-06
-3.10568e-06
2.99664e-06
-3.57394e-06
2.5741e-06
-3.96146e-06
1.85039e-06
-4.1532e-06
7.79775e-07
-4.07251e-06
-6.13767e-07
-3.60883e-06
-2.41499e-06
-2.65168e-06
-4.40297e-06
-1.15247e-06
-6.34043e-06
-6.84524e-06
-7.43744e-07
7.7314e-06
-1.75068e-06
6.55107e-06
-2.45294e-06
4.60917e-06
-2.86514e-06
1.18509e-06
-3.2552e-06
-1.72674e-06
-3.90514e-06
-3.24318e-06
-4.51609e-06
-3.79643e-06
-4.44877e-06
-3.66822e-06
-3.81842e-06
-2.29868e-06
-3.18291e-06
-2.90596e-07
-2.82062e-06
1.39437e-06
-2.72285e-06
2.50892e-06
-2.84454e-06
3.15572e-06
-3.16223e-06
3.46655e-06
-3.65458e-06
3.489e-06
-4.27756e-06
3.19709e-06
-4.93065e-06
2.50348e-06
-5.49855e-06
1.34769e-06
-5.61702e-06
-4.95294e-07
-5.29274e-06
-2.73928e-06
-4.09783e-06
-5.59789e-06
-1.75413e-06
-8.68414e-06
-8.59936e-06
4.73409e-07
7.25799e-06
5.13515e-07
6.51097e-06
1.03132e-06
4.09137e-06
1.44979e-06
7.6661e-07
1.35916e-06
-1.63611e-06
2.66193e-07
-2.15022e-06
-1.40089e-06
-2.12934e-06
-2.73447e-06
-2.33465e-06
-3.29153e-06
-1.74161e-06
-3.41149e-06
-1.70646e-07
-3.38466e-06
1.36753e-06
-3.33116e-06
2.45541e-06
-3.39662e-06
3.22118e-06
-3.68301e-06
3.75293e-06
-4.23968e-06
4.04566e-06
-5.02834e-06
3.98575e-06
-5.94358e-06
3.41872e-06
-6.79966e-06
2.20377e-06
-7.54406e-06
2.49097e-07
-7.74582e-06
-2.53752e-06
-6.97049e-06
-6.37322e-06
-4.68393e-06
-1.09707e-05
-1.32833e-05
9.30316e-06
-9.30316e-06
1.47434e-05
-5.44018e-06
6.67964e-06
8.06371e-06
-2.98345e-05
3.65142e-05
-7.05378e-05
4.07033e-05
-8.03336e-05
9.79584e-06
-6.86547e-05
-1.1679e-05
-6.01447e-05
-8.50997e-06
-6.20471e-05
1.90239e-06
-7.22964e-05
1.02493e-05
-8.17528e-05
9.45637e-06
-7.8026e-05
-3.72674e-06
-6.35387e-05
-1.44873e-05
-4.97492e-05
-1.37895e-05
-3.9851e-05
-9.89827e-06
-3.27494e-05
-7.10162e-06
-2.67594e-05
-5.98992e-06
-1.60081e-05
-1.07513e-05
-1.60081e-05
4.40575e-06
-1.37089e-05
-8.40029e-06
7.36586e-06
-4.54719e-05
4.51353e-05
-8.94423e-05
8.04846e-05
-0.000108944
6.02053e-05
-0.000102901
3.75267e-06
-9.8863e-05
-1.57171e-05
-0.000101594
-5.77859e-06
-0.000103037
3.34501e-06
-9.67222e-05
3.93453e-06
-7.88558e-05
-8.4101e-06
-5.6696e-05
-2.58865e-05
-3.89545e-05
-3.22287e-05
-2.68062e-05
-2.59378e-05
-1.94445e-05
-1.72599e-05
-1.69633e-05
-9.5828e-06
-1.60006e-05
-6.95265e-06
-1.1804e-05
-1.49479e-05
-2.78121e-05
-1.07502e-05
-2.95871e-06
-4.71299e-05
4.37455e-05
-8.59143e-05
8.39198e-05
-0.000104816
9.93867e-05
-9.17072e-05
4.7096e-05
-7.69495e-05
-1.1005e-05
-8.16947e-05
-1.09719e-05
-8.91301e-05
1.65672e-06
-8.64222e-05
6.37122e-07
-7.35694e-05
-8.91821e-06
-5.26128e-05
-2.93667e-05
-3.48168e-05
-4.36825e-05
-2.2919e-05
-4.41265e-05
-1.33578e-05
-3.54991e-05
-2.66275e-06
-2.7955e-05
3.05691e-06
-1.53025e-05
2.2619e-06
-6.15763e-06
-7.24378e-07
-1.19617e-05
-2.85365e-05
-2.27099e-05
1.97512e-05
-6.9947e-05
9.09825e-05
-9.58761e-05
0.000109849
-8.58446e-05
8.93551e-05
-4.46726e-05
5.92409e-06
-2.26741e-05
-3.30035e-05
-4.35512e-05
9.90521e-06
-6.73179e-05
2.54234e-05
-6.47802e-05
-1.90056e-06
-5.06776e-05
-2.30208e-05
-3.28336e-05
-4.72108e-05
-2.26641e-05
-5.38519e-05
-2.07223e-05
-4.60684e-05
-1.80016e-05
-3.82198e-05
-8.03556e-06
-3.7921e-05
5.46576e-06
-2.88038e-05
1.09299e-05
-1.16217e-05
5.9527e-06
-6.98449e-06
-2.25838e-05
-2.97167e-05
4.94679e-05
-7.55281e-05
0.000136794
-8.57171e-05
0.000120038
-5.59389e-05
5.95769e-05
-1.08452e-06
-4.89303e-05
2.94147e-05
-6.35027e-05
5.98937e-06
3.33305e-05
-3.72651e-05
6.86779e-05
-4.81433e-05
8.97764e-06
-3.56946e-05
-3.54694e-05
-2.15655e-05
-6.134e-05
-2.06696e-05
-5.47478e-05
-2.84995e-05
-3.82385e-05
-3.0591e-05
-3.61282e-05
-2.23798e-05
-4.61322e-05
-5.79275e-06
-4.53908e-05
6.46162e-06
-2.38761e-05
6.79888e-06
-7.32175e-06
-1.57849e-05
-3.41515e-05
8.36194e-05
-6.8211e-05
0.000170853
-6.53699e-05
0.000117197
-1.67938e-05
1.10008e-05
3.86655e-05
-0.00010439
5.768e-05
-8.25172e-05
3.91049e-05
5.19056e-05
-4.58947e-06
0.000112372
-2.6569e-05
3.09572e-05
-2.13188e-05
-4.07197e-05
-1.67938e-05
-6.58649e-05
-2.65942e-05
-4.49474e-05
-3.95291e-05
-2.53036e-05
-4.25338e-05
-3.31236e-05
-3.52956e-05
-5.33703e-05
-1.95613e-05
-6.11251e-05
-2.77022e-06
-4.06672e-05
5.00609e-06
-1.50981e-05
-1.07788e-05
-3.15171e-05
0.000115136
-4.92713e-05
0.000188608
-4.069e-05
0.000108615
1.41723e-05
-4.38615e-05
4.8711e-05
-0.000138928
5.21998e-05
-8.6006e-05
4.76073e-05
5.64981e-05
2.12728e-05
0.000138707
-5.21608e-06
5.74461e-05
-9.03987e-06
-3.68959e-05
-1.74072e-05
-5.74977e-05
-3.51721e-05
-2.71825e-05
-4.84162e-05
-1.20595e-05
-5.22053e-05
-2.93344e-05
-4.6422e-05
-5.91537e-05
-3.11489e-05
-7.63982e-05
-1.22939e-05
-5.95222e-05
5.1561e-07
-2.79076e-05
-1.02632e-05
-2.32982e-05
0.000138435
-2.06995e-05
0.000186009
-2.0831e-06
8.9999e-05
2.97187e-05
-7.56633e-05
2.11131e-05
-0.000130323
1.81931e-05
-8.30861e-05
3.15657e-05
4.31256e-05
3.07103e-05
0.000139562
1.10239e-05
7.71325e-05
-5.6495e-06
-2.02225e-05
-2.37645e-05
-3.93826e-05
-4.49333e-05
-6.01371e-06
-5.83359e-05
1.34308e-06
-6.43639e-05
-2.33065e-05
-5.70981e-05
-6.64194e-05
-4.09662e-05
-9.25302e-05
-2.30542e-05
-7.74342e-05
-5.50514e-06
-4.54566e-05
-1.57683e-05
5.22224e-06
2.03575e-06
9.97423e-06
1.75898e-06
1.3934e-05
1.31574e-07
1.56413e-05
-9.40664e-07
1.43995e-05
-3.94289e-07
1.11727e-05
1.0765e-06
6.91934e-06
2.12405e-06
2.7886e-06
1.79609e-06
-5.27997e-07
1.57498e-06
-2.83108e-06
2.13243e-06
-4.17186e-06
2.70831e-06
-4.87668e-06
3.16023e-06
-5.60074e-06
3.94523e-06
-7.00444e-06
5.15664e-06
-9.40247e-06
6.4437e-06
-1.2757e-05
7.34027e-06
-1.67612e-05
7.42297e-06
-2.09891e-05
6.43166e-06
-2.47863e-05
4.0463e-06
-2.80398e-05
7.15939e-07
-3.07788e-05
-3.63417e-06
-3.29202e-05
-8.82935e-06
-1.05097e-05
-3.56938e-05
4.40642e-06
-2.37067e-06
8.20601e-06
-2.04059e-06
9.63777e-06
-1.30017e-06
9.3111e-06
-6.13996e-07
8.65491e-06
2.61904e-07
6.89583e-06
2.83558e-06
5.78263e-06
3.23725e-06
5.89481e-06
1.68391e-06
5.43782e-06
2.03196e-06
4.10639e-06
3.46385e-06
3.47492e-06
3.33977e-06
4.82167e-06
1.81348e-06
5.19708e-06
3.56981e-06
2.16593e-06
8.18779e-06
-3.15264e-06
1.17623e-05
-9.58945e-06
1.37771e-05
-1.72349e-05
1.50684e-05
-2.58417e-05
1.50385e-05
-3.2665e-05
1.08696e-05
-3.80619e-05
6.11283e-06
-4.54486e-05
3.75256e-06
-5.79013e-05
3.62327e-06
6.11831e-06
-7.45293e-05
-4.50281e-05
4.26574e-05
-7.54164e-05
2.83477e-05
-9.12105e-05
1.4494e-05
-9.98445e-05
8.02008e-06
-0.000109137
9.55479e-06
-0.000122817
1.65152e-05
-0.000135881
1.63011e-05
-0.000143959
9.76239e-06
-0.000142538
6.10608e-07
-0.000130519
-8.55551e-06
-0.000112266
-1.49131e-05
-9.27704e-05
-1.76817e-05
-7.9321e-05
-9.87959e-06
-7.6786e-05
5.65277e-06
-8.37865e-05
1.87628e-05
-9.13222e-05
2.13128e-05
-9.38741e-05
1.76203e-05
-9.46999e-05
1.58643e-05
-9.83943e-05
1.4564e-05
-0.000107736
1.5454e-05
-0.000123773
1.97904e-05
-0.000145611
2.54608e-05
3.01405e-05
-0.000169633
-0.000125888
0.000168546
-0.000217146
0.000119606
-0.00028292
8.02675e-05
-0.00033411
5.92106e-05
-0.000369284
4.47283e-05
-0.000387626
3.4858e-05
-0.000386821
1.54957e-05
-0.00036785
-9.20907e-06
-0.000335271
-3.19676e-05
-0.000295649
-4.81777e-05
-0.000257728
-5.28346e-05
-0.000230605
-4.48044e-05
-0.000211351
-2.91339e-05
-0.000194428
-1.12705e-05
-0.000178608
2.94294e-06
-0.000167604
1.0309e-05
-0.00016446
1.44767e-05
-0.000168017
1.94208e-05
-0.000178207
2.47541e-05
-0.000193252
3.04988e-05
-0.000210349
3.6888e-05
-0.000227633
4.27444e-05
4.68345e-05
-0.000244327
-8.78433e-05
0.000256389
-0.000173793
0.000205556
-0.000248826
0.0001553
-0.000305407
0.000115792
-0.000340998
8.03199e-05
-0.000349077
4.29369e-05
-0.000337625
4.04373e-06
-0.000316242
-3.05927e-05
-0.000294567
-5.36423e-05
-0.000278883
-6.38617e-05
-0.000269695
-6.20221e-05
-0.000262417
-5.20833e-05
-0.000254538
-3.70121e-05
-0.000246786
-1.90231e-05
-0.000241384
-2.4589e-06
-0.000240189
9.11424e-06
-0.000241683
1.59705e-05
-0.00024489
2.26282e-05
-0.000250066
2.99299e-05
-0.000256992
3.74248e-05
-0.000264755
4.46509e-05
-0.000273157
5.11468e-05
5.5668e-05
-0.000281991
-4.82201e-05
0.000304609
-0.000104316
0.000261651
-0.000160967
0.000211951
-0.000207569
0.000162393
-0.000244429
0.00011718
-0.000266909
6.54165e-05
-0.000270459
7.59362e-06
-0.000266116
-3.49357e-05
-0.000263779
-5.59789e-05
-0.000267355
-6.02856e-05
-0.000273377
-5.59999e-05
-0.000279108
-4.63531e-05
-0.00028247
-3.36494e-05
-0.000282227
-1.9266e-05
-0.00027941
-5.27607e-06
-0.000277224
6.92748e-06
-0.000277037
1.57835e-05
-0.000276926
2.2518e-05
-0.000276145
2.9149e-05
-0.00027516
3.64393e-05
-0.000275071
4.45617e-05
-0.000277697
5.37731e-05
6.2689e-05
-0.000284718
-2.85413e-05
0.000333151
-5.9038e-05
0.000292148
-8.6308e-05
0.000239221
-0.000115332
0.000191417
-0.000156087
0.000157936
-0.000196066
0.000105395
-0.00021494
2.64679e-05
-0.000221511
-2.8364e-05
-0.000227286
-5.0204e-05
-0.000231144
-5.64283e-05
-0.000235817
-5.13265e-05
-0.00024319
-3.898e-05
-0.000253603
-2.32371e-05
-0.000264203
-8.66579e-06
-0.000270361
8.82486e-07
-0.000271843
8.40945e-06
-0.000270496
1.44362e-05
-0.000266766
1.87883e-05
-0.000260677
2.30597e-05
-0.000252473
2.82353e-05
-0.000243037
3.5126e-05
-0.000233577
4.43127e-05
5.6545e-05
-0.000227433
-2.70756e-05
0.000360226
-4.60689e-05
0.000311142
-5.08183e-05
0.00024397
-6.56476e-05
0.000206246
-9.63901e-05
0.000188678
-0.000137715
0.000146719
-0.000173085
6.18384e-05
-0.000199644
-1.80494e-06
-0.000214756
-3.50928e-05
-0.000219516
-5.16679e-05
-0.000220302
-5.05403e-05
-0.000219723
-3.9559e-05
-0.000219909
-2.30514e-05
-0.000222147
-6.42751e-06
-0.000226842
5.57703e-06
-0.00023124
1.28075e-05
-0.000233363
1.65593e-05
-0.000232794
1.82197e-05
-0.000229514
1.97797e-05
-0.000223349
2.20704e-05
-0.00021449
2.62672e-05
-0.00020278
3.26027e-05
4.22002e-05
-0.000188436
-2.91306e-05
0.000389357
-4.68527e-05
0.000328864
-4.14224e-05
0.00023854
-4.42491e-05
0.000209073
-5.40841e-05
0.000198513
-8.01853e-05
0.000172821
-0.000122934
0.000104587
-0.000166831
4.20918e-05
-0.00019969
-2.23403e-06
-0.00022005
-3.13071e-05
-0.000223515
-4.70762e-05
-0.000220502
-4.25717e-05
-0.000212975
-3.05779e-05
-0.000203917
-1.54856e-05
-0.000196862
-1.47849e-06
-0.000193114
9.05967e-06
-0.000191924
1.53691e-05
-0.000191297
1.75933e-05
-0.000190802
1.92838e-05
-0.000189798
2.10664e-05
-0.000187161
2.36308e-05
-0.000181286
2.67272e-05
3.01042e-05
-0.00016919
-1.02413e-05
0.000399598
-3.60139e-05
0.000354636
-3.95668e-05
0.000242093
-3.68424e-05
0.000206349
-3.05005e-05
0.000192171
-3.81774e-05
0.000180498
-7.4887e-05
0.000141297
-0.000119816
8.70212e-05
-0.00016315
4.10999e-05
-0.000198765
4.3078e-06
-0.000225712
-2.01295e-05
-0.000227466
-4.08174e-05
-0.000221011
-3.70331e-05
-0.000210456
-2.604e-05
-0.000198599
-1.3336e-05
-0.000188095
-1.44377e-06
-0.000179836
7.10976e-06
-0.000174298
1.20553e-05
-0.000170977
1.5963e-05
-0.000168988
1.90773e-05
-0.000166936
2.15784e-05
-0.000163628
2.34196e-05
2.51365e-05
-0.000158661
2.85191e-05
0.000371079
8.39609e-07
0.000382316
-2.34872e-05
0.00026642
-2.82029e-05
0.000211064
-2.16231e-05
0.000185592
-1.53746e-05
0.000174249
-3.29659e-05
0.000158888
-6.77155e-05
0.000121771
-0.000107833
8.12177e-05
-0.000149635
4.6109e-05
-0.000186367
1.66024e-05
-0.000220034
-7.15044e-06
-0.000235692
-2.1375e-05
-0.000227431
-3.43007e-05
-0.000214979
-2.57879e-05
-0.000203231
-1.3192e-05
-0.000193202
-2.91908e-06
-0.000186419
5.27206e-06
-0.000181725
1.12691e-05
-0.000178321
1.56739e-05
-0.000175403
1.86599e-05
-0.000172556
2.05723e-05
2.16543e-05
-0.000169073
5.63047e-05
0.000314774
5.22942e-05
0.000386326
2.14081e-05
0.000297306
3.89676e-06
0.000228576
-1.04228e-06
0.000190531
4.05538e-06
0.000169152
4.14281e-06
0.000158801
-1.22076e-05
0.000138121
-4.02098e-05
0.00010922
-7.52048e-05
8.11041e-05
-0.000114095
5.5493e-05
-0.00015262
3.13746e-05
-0.000189047
1.50519e-05
-0.000227244
3.89599e-06
-0.000246066
-6.96612e-06
-0.000227811
-3.14468e-05
-0.000210433
-2.02972e-05
-0.000197627
-7.53346e-06
-0.000189253
2.89449e-06
-0.000182493
8.91424e-06
-0.000175367
1.15343e-05
-0.000167311
1.25155e-05
1.25859e-05
-0.000158242
6.16093e-05
0.000253165
8.74401e-05
0.000360496
7.55733e-05
0.000309173
5.81446e-05
0.000246005
4.54664e-05
0.000203209
4.06079e-05
0.00017401
4.23763e-05
0.000157033
3.83756e-05
0.000142122
2.38898e-05
0.000123705
1.44663e-06
0.000103547
-2.65153e-05
8.34547e-05
-5.96483e-05
6.45076e-05
-9.41299e-05
4.95336e-05
-0.000125247
3.5013e-05
-0.000143857
1.16437e-05
-0.00017736
2.0566e-06
-0.000202167
4.50978e-06
-0.000204614
-5.08632e-06
-0.000186429
-1.52908e-05
-0.000167567
-9.94751e-06
-0.000152168
-3.86488e-06
-0.000141562
1.90966e-06
2.05809e-06
-0.000131034
4.60083e-05
0.000207157
8.90424e-05
0.000317462
0.000104361
0.000293854
0.000103121
0.000247244
9.59997e-05
0.000210331
8.75528e-05
0.000182457
8.29255e-05
0.00016166
7.92511e-05
0.000145796
7.14602e-05
0.000131496
5.77373e-05
0.00011727
3.82984e-05
0.000102894
1.42117e-05
8.85943e-05
-1.13301e-05
7.50753e-05
-3.92112e-05
6.28942e-05
-7.62666e-05
4.86993e-05
-0.000110737
3.65272e-05
-0.000133062
2.68348e-05
-0.000148278
1.01294e-05
-0.000160257
-3.3124e-06
-0.000164985
-5.21868e-06
-0.000168046
-8.04513e-07
-0.000170867
4.73082e-06
6.42665e-06
-0.000175236
2.47885e-05
0.000182369
6.89762e-05
0.000273274
9.99769e-05
0.000262854
0.000114602
0.00023262
0.000118068
0.000206864
0.000114757
0.000185769
0.000109304
0.000167113
0.000103936
0.000151164
9.75924e-05
0.00013784
8.86193e-05
0.000126243
7.61172e-05
0.000115396
6.00206e-05
0.000104691
4.11643e-05
9.39315e-05
2.02384e-05
8.38204e-05
-4.62269e-06
7.35604e-05
-3.09171e-05
6.28216e-05
-5.47887e-05
5.07066e-05
-7.92781e-05
3.46189e-05
-0.000104692
2.21022e-05
-0.000128607
1.8696e-05
-0.000148808
1.93966e-05
-0.000165339
2.12618e-05
2.10581e-05
-0.00017997
1.03758e-05
0.000171993
4.60118e-05
0.000237638
7.84623e-05
0.000230403
9.92079e-05
0.000211874
0.000109702
0.00019637
0.0001129
0.000182571
0.000111538
0.000168475
0.000107923
0.000154779
0.00010301
0.000142754
9.66685e-05
0.000132584
8.84484e-05
0.000123616
7.80021e-05
0.000115137
6.53142e-05
0.000106619
5.09652e-05
9.81693e-05
3.44242e-05
9.01011e-05
1.46785e-05
8.25672e-05
-8.36835e-06
7.37533e-05
-3.37995e-05
6.00499e-05
-5.86888e-05
4.69914e-05
-8.26663e-05
4.26734e-05
-0.000104687
4.14174e-05
-0.000123059
3.96336e-05
3.39405e-05
-0.000135941
4.67356e-06
0.000167319
2.902e-05
0.000213292
5.47991e-05
0.000204624
7.38916e-05
0.000192781
8.61472e-05
0.000184115
9.30611e-05
0.000175657
9.57428e-05
0.000165793
9.52448e-05
0.000155277
9.25596e-05
0.000145439
8.83237e-05
0.00013682
8.27883e-05
0.000129152
7.60415e-05
0.000121884
6.80975e-05
0.000114563
5.86988e-05
0.000107568
4.70522e-05
0.000101748
3.20069e-05
9.76126e-05
1.29028e-05
9.28574e-05
-9.47076e-06
8.24236e-05
-3.13173e-05
6.8838e-05
-5.19943e-05
6.33502e-05
-7.13287e-05
6.07517e-05
-8.77408e-05
5.60457e-05
4.47511e-05
-9.85514e-05
3.71562e-06
0.000163604
1.85519e-05
0.000198455
3.6099e-05
0.000187077
5.06261e-05
0.000178255
6.14378e-05
0.000173303
6.8995e-05
0.0001681
7.34318e-05
0.000161356
7.4936e-05
0.000153773
7.40655e-05
0.000146309
7.15467e-05
0.000139339
6.79825e-05
0.000132716
6.39102e-05
0.000125956
5.922e-05
0.000119253
5.28584e-05
0.000113929
4.37689e-05
0.000110837
3.14373e-05
0.000109944
1.60284e-05
0.000108266
-1.63392e-06
0.000100086
-2.01894e-05
8.73933e-05
-3.83186e-05
8.14792e-05
-5.54702e-05
7.79032e-05
-6.98265e-05
7.04018e-05
5.32517e-05
-7.8327e-05
3.73942e-06
0.000159864
1.26919e-05
0.000189503
2.37753e-05
0.000175993
3.37642e-05
0.000168266
4.19238e-05
0.000165143
4.82175e-05
0.000161806
5.23744e-05
0.0001572
5.42523e-05
0.000151895
5.41685e-05
0.000146393
5.27613e-05
0.000140746
5.07164e-05
0.000134761
4.85386e-05
0.000128134
4.53939e-05
0.000122398
3.98968e-05
0.000119426
3.14561e-05
0.000119278
2.04388e-05
0.000120961
8.00727e-06
0.000120698
-5.49131e-06
0.000113584
-2.13141e-05
0.000103216
-3.79433e-05
9.81083e-05
-5.38592e-05
9.38191e-05
-6.60773e-05
8.26198e-05
5.91833e-05
-7.20089e-05
3.25158e-06
0.000156613
9.54232e-06
0.000183213
1.65295e-05
0.000169007
2.28935e-05
0.000161902
2.82884e-05
0.000159749
3.25948e-05
0.0001575
3.54601e-05
0.000154334
3.6729e-05
0.000150625
3.66616e-05
0.00014646
3.57839e-05
0.000141624
3.46362e-05
0.000135908
3.29922e-05
0.000129778
2.94537e-05
0.000125936
2.31739e-05
0.000125706
1.45191e-05
0.000127933
4.64448e-06
0.000130836
-5.28218e-06
0.000130624
-1.62955e-05
0.000124597
-3.06301e-05
0.00011755
-4.66126e-05
0.000114091
-6.15135e-05
0.00010872
-7.12889e-05
9.2395e-05
6.24692e-05
-7.45749e-05
2.28823e-06
0.000154325
7.72292e-06
0.000177778
1.23382e-05
0.000164391
1.60059e-05
0.000158234
1.90461e-05
0.000156709
2.14175e-05
0.000155129
2.28113e-05
0.00015294
2.31612e-05
0.000150276
2.2718e-05
0.000146904
2.18443e-05
0.000142498
2.0646e-05
0.000137106
1.80556e-05
0.000132368
1.29554e-05
0.000131037
5.62336e-06
0.000133038
-2.92861e-06
0.000136485
-1.14629e-05
0.00013937
-1.97249e-05
0.000138886
-3.00162e-05
0.000134889
-4.39977e-05
0.000131532
-5.95363e-05
0.000129629
-7.26652e-05
0.000121849
-7.96664e-05
9.93961e-05
6.48481e-05
-8.20454e-05
1.35298e-06
0.000152972
6.44075e-06
0.00017269
9.60249e-06
0.00016123
1.137e-05
0.000156467
1.26682e-05
0.00015541
1.35132e-05
0.000154283
1.36762e-05
0.000152777
1.31666e-05
0.000150785
1.2179e-05
0.000147891
1.08168e-05
0.00014386
8.59178e-06
0.000139331
4.34716e-06
0.000136613
-2.06523e-06
0.000137449
-9.62353e-06
0.000140596
-1.73887e-05
0.00014425
-2.4766e-05
0.000146747
-3.26298e-05
0.00014675
-4.32481e-05
0.000145507
-5.72034e-05
0.000145487
-7.17069e-05
0.000144133
-8.23955e-05
0.000132537
-8.75069e-05
0.000104507
6.86008e-05
-9.12595e-05
7.74865e-07
0.000152197
5.32321e-06
0.000168142
7.44729e-06
0.000159106
8.01762e-06
0.000155897
8.22206e-06
0.000155206
8.06339e-06
0.000154442
7.3912e-06
0.000153449
6.22887e-06
0.000151948
4.64721e-06
0.000149473
2.45753e-06
0.000146049
-1.11919e-06
0.000142908
-6.60826e-06
0.000142102
-1.33209e-05
0.000144162
-2.03165e-05
0.000147592
-2.71443e-05
0.000151077
-3.3964e-05
0.000153567
-4.20984e-05
0.000154884
-5.31822e-05
0.000156591
-6.69105e-05
0.000159215
-8.02438e-05
0.000157466
-8.94795e-05
0.000141773
-9.43969e-05
0.000109425
7.32234e-05
-9.90195e-05
6.10428e-07
0.000151587
4.32882e-06
0.000164423
5.68058e-06
0.000157754
5.65871e-06
0.000155919
5.33708e-06
0.000155527
4.67771e-06
0.000155102
3.58455e-06
0.000154543
2.03691e-06
0.000153495
-4.73091e-08
0.000151557
-3.03073e-06
0.000149033
-7.46288e-06
0.00014734
-1.31869e-05
0.000147826
-1.93449e-05
0.00015032
-2.54452e-05
0.000153692
-3.14952e-05
0.000157127
-3.80637e-05
0.000160136
-4.63665e-05
0.000163187
-5.74336e-05
0.000167658
-7.07373e-05
0.000172519
-8.37982e-05
0.000170527
-9.37895e-05
0.000151765
-0.000100328
0.000115964
8.04891e-05
-0.000107594
7.96607e-07
0.00015079
3.57378e-06
0.000161646
4.45076e-06
0.000156877
4.31737e-06
0.000156052
3.9183e-06
0.000155926
3.19529e-06
0.000155825
2.07613e-06
0.000155662
4.73334e-07
0.000155098
-1.80537e-06
0.000153836
-5.09199e-06
0.00015232
-9.51586e-06
0.000151764
-1.46041e-05
0.000152914
-1.97336e-05
0.000155449
-2.47793e-05
0.000158738
-2.99787e-05
0.000162327
-3.59174e-05
0.000166074
-4.343e-05
0.0001707
-5.31664e-05
0.000177394
-6.50304e-05
0.000184383
-7.78692e-05
0.000183366
-8.96271e-05
0.000163523
-9.87128e-05
0.000125049
9.1754e-05
-0.000109978
1.29969e-06
0.00014949
3.21516e-06
0.000159731
3.95017e-06
0.000156142
4.05036e-06
0.000155952
3.9104e-06
0.000156066
3.48205e-06
0.000156253
2.69803e-06
0.000156446
1.42457e-06
0.000156371
-5.67048e-07
0.000155827
-3.46976e-06
0.000155222
-7.12939e-06
0.000155424
-1.10508e-05
0.000156835
-1.48537e-05
0.000159252
-1.85688e-05
0.000162453
-2.24467e-05
0.000166205
-2.68659e-05
0.000170493
-3.21781e-05
0.000176012
-3.86957e-05
0.000183912
-4.69885e-05
0.000192676
-5.79211e-05
0.000194299
-7.12245e-05
0.000176826
-8.42489e-05
0.000138074
0.000105927
-9.84215e-05
2.09288e-06
0.000147397
3.35685e-06
0.000158467
4.23363e-06
0.000155265
4.79256e-06
0.000155393
5.15047e-06
0.000155709
5.28401e-06
0.000156119
5.13079e-06
0.000156599
4.55005e-06
0.000156952
3.33532e-06
0.000157042
1.40941e-06
0.000157148
-9.79067e-07
0.000157812
-3.42632e-06
0.000159283
-5.67951e-06
0.000161505
-7.73992e-06
0.000164513
-9.76446e-06
0.000168229
-1.19067e-05
0.000172636
-1.41064e-05
0.000178212
-1.62532e-05
0.000186059
-1.91803e-05
0.000195603
-2.56071e-05
0.000200725
-3.8636e-05
0.000189855
-5.65519e-05
0.00015599
0.00012336
-7.39849e-05
3.05334e-06
0.000144344
3.98449e-06
0.000157536
5.19159e-06
0.000154058
6.34075e-06
0.000154243
7.34591e-06
0.000154703
8.20861e-06
0.000155257
8.8822e-06
0.000155925
9.24924e-06
0.000156585
9.1508e-06
0.000157141
8.56158e-06
0.000157738
7.70184e-06
0.000158672
6.87524e-06
0.000160109
6.28895e-06
0.000162092
6.04258e-06
0.00016476
6.10572e-06
0.000168166
6.46181e-06
0.00017228
7.36297e-06
0.000177311
9.29259e-06
0.000184129
1.18189e-05
0.000193077
1.18018e-05
0.000200742
3.4375e-06
0.000198219
-1.61627e-05
0.00017559
0.000144633
-3.74361e-05
4.02357e-06
0.00014032
4.98725e-06
0.000156572
6.61399e-06
0.000152431
8.41051e-06
0.000152447
1.01317e-05
0.000152982
1.17929e-05
0.000153596
1.33742e-05
0.000154344
1.47969e-05
0.000155162
1.59536e-05
0.000155984
1.68304e-05
0.000156861
1.7573e-05
0.00015793
1.8389e-05
0.000159293
1.9457e-05
0.000161024
2.09535e-05
0.000163263
2.29734e-05
0.000166146
2.55744e-05
0.000169679
2.90015e-05
0.000173884
3.38748e-05
0.000179256
4.04418e-05
0.00018651
4.66232e-05
0.000194561
4.66502e-05
0.000198192
3.37153e-05
0.000188525
0.000166033
1.23158e-05
4.87257e-06
0.000135448
6.1923e-06
0.000155252
8.26097e-06
0.000150362
1.07001e-05
0.000150008
1.31375e-05
0.000150545
1.55842e-05
0.000151149
1.80503e-05
0.000151878
2.04979e-05
0.000152715
2.28661e-05
0.000153616
2.51425e-05
0.000154584
2.74039e-05
0.000155668
2.97771e-05
0.00015692
3.24023e-05
0.000158399
3.54615e-05
0.000160204
3.91318e-05
0.000162476
4.35305e-05
0.00016528
4.88338e-05
0.00016858
5.55478e-05
0.000172542
6.43141e-05
0.000177743
7.45159e-05
0.000184359
8.22909e-05
0.000190417
8.05166e-05
0.000190299
0.000180166
6.63837e-05
5.51808e-06
0.00012993
7.4099e-06
0.00015336
9.90967e-06
0.000147863
1.29378e-05
0.00014698
1.60383e-05
0.000147444
1.91983e-05
0.000147989
2.24529e-05
0.000148624
2.57988e-05
0.000149369
2.92128e-05
0.000150202
3.26893e-05
0.000151108
3.62643e-05
0.000152093
4.0008e-05
0.000153176
4.40174e-05
0.000154389
4.84346e-05
0.000155787
5.34444e-05
0.000157466
5.92083e-05
0.000159516
6.5862e-05
0.000161927
7.37046e-05
0.000164699
8.33384e-05
0.00016811
9.5092e-05
0.000172606
0.00010745
0.000178059
0.000115689
0.00018206
0.000182231
0.000113624
5.92312e-06
0.000124007
8.47661e-06
0.000150807
1.13811e-05
0.000144958
1.49112e-05
0.00014345
1.85838e-05
0.000143772
2.2348e-05
0.000144225
2.62534e-05
0.000144718
3.03221e-05
0.0001453
3.45584e-05
0.000145966
3.89687e-05
0.000146698
4.35751e-05
0.000147487
4.84181e-05
0.000148333
5.35606e-05
0.000149247
5.90991e-05
0.000150249
6.51778e-05
0.000151388
7.19616e-05
0.000152733
7.95839e-05
0.000154304
8.8207e-05
0.000156076
9.82056e-05
0.000158111
0.00011014
0.000160671
0.00012403
0.00016417
0.000138197
0.000167893
0.000172546
0.000147881
6.08314e-06
0.000117924
9.28024e-06
0.00014761
1.25522e-05
0.000141686
1.64793e-05
0.000139523
2.0609e-05
0.000139642
2.48486e-05
0.000139985
2.92494e-05
0.000140317
3.38503e-05
0.000140699
3.86729e-05
0.000141143
4.37355e-05
0.000141635
4.90607e-05
0.000142162
5.46797e-05
0.000142715
6.06366e-05
0.00014329
6.6996e-05
0.000143889
7.38568e-05
0.000144527
8.13536e-05
0.000145236
8.96191e-05
0.000146039
9.87728e-05
0.000146923
0.000109011
0.000147873
0.000120741
0.000148941
0.000134454
0.000150456
0.000150216
0.000152131
0.00015598
0.000166782
6.01391e-06
0.00011191
9.76354e-06
0.00014386
1.33552e-05
0.000138094
1.75698e-05
0.000135308
2.203e-05
0.000135182
2.66084e-05
0.000135407
3.13478e-05
0.000135578
3.62957e-05
0.000135752
4.14831e-05
0.000135956
4.69361e-05
0.000136182
5.26811e-05
0.000136417
5.87483e-05
0.000136647
6.5175e-05
0.000136863
7.20086e-05
0.000137056
7.93162e-05
0.000137219
8.71946e-05
0.000137358
9.57567e-05
0.000137477
0.000105111
0.000137568
0.000115375
0.000137609
0.000126763
0.000137553
0.000139681
0.000137538
0.000154494
0.000137319
0.000138191
0.000172283
5.74473e-06
0.000106165
9.9164e-06
0.000139688
1.37703e-05
0.000134241
1.81673e-05
0.000130911
2.28299e-05
0.000130519
2.76118e-05
0.000130625
3.25412e-05
0.000130649
3.76674e-05
0.000130625
4.30256e-05
0.000130597
4.86442e-05
0.000130564
5.45511e-05
0.00013051
6.07761e-05
0.000130422
6.73524e-05
0.000130287
7.43185e-05
0.00013009
8.17219e-05
0.000129816
8.96269e-05
0.000129452
9.81153e-05
0.000128988
0.000107275
0.000128408
0.000117194
0.000127691
0.00012797
0.000126776
0.000139831
0.000125678
0.000152898
0.000124252
0.000122618
0.000168471
5.31649e-06
0.000100848
9.7646e-06
0.00013524
1.38151e-05
0.00013019
1.82979e-05
0.000126428
2.30413e-05
0.000125776
2.78989e-05
0.000125767
3.28834e-05
0.000125664
3.80412e-05
0.000125468
4.34072e-05
0.000125231
4.90087e-05
0.000124962
5.48718e-05
0.000124647
6.1023e-05
0.000124271
6.74905e-05
0.000123819
7.43044e-05
0.000123276
8.14985e-05
0.000122622
8.91133e-05
0.000121838
9.71986e-05
0.000120903
0.000105812
0.000119795
0.000115013
0.000118489
0.000124847
0.000116943
0.000135415
0.000115109
0.000146684
0.000112982
0.000110097
0.000159206
4.7725e-06
9.60758e-05
9.35536e-06
0.000130657
1.35315e-05
0.000126014
1.80143e-05
0.000121945
2.27284e-05
0.000121062
2.75459e-05
0.00012095
3.24677e-05
0.000120743
3.75333e-05
0.000120402
4.27751e-05
0.00011999
4.82172e-05
0.00011952
5.38814e-05
0.000118983
5.97892e-05
0.000118363
6.59621e-05
0.000117647
7.24216e-05
0.000116816
7.91894e-05
0.000115854
8.62882e-05
0.000114739
9.37431e-05
0.000113448
0.000101581
0.000111957
0.000109832
0.000110238
0.00011851
0.000108266
0.000127643
0.000105976
0.000137196
0.00010343
0.000100171
0.000147122
4.16151e-06
9.19142e-05
8.75064e-06
0.000126068
1.29763e-05
0.000121788
1.73817e-05
0.00011754