/*--------------------------------*- C++ -*----------------------------------*\
| =========                 |                                                 |
| \\      /  F ield         | OpenFOAM: The Open Source CFD Toolbox           |
|  \\    /   O peration     | Version:  2206                                  |
|   \\  /    A nd           | Website:  www.openfoam.com                      |
|    \\/     M anipulation  |                                                 |
\*---------------------------------------------------------------------------*/
FoamFile
{
    version     2.0;
    format      ascii;
    arch        "LSB;label=32;scalar=64";
    class       volVectorField;
    location    "1";
    object      U;
}
// * * * * * * * * * * * * * * * * * * * * * * * * * * * * * * * * * * * * * //

dimensions      [0 1 -1 0 0 0 0];

internalField   nonuniform List<vector> 
2268
(
(-0.00706626 0.00473656 0)
(-0.0139863 0.00222819 0)
(-0.0136167 -0.00144407 0)
(-0.0073756 -0.00336054 0)
(0.00127113 -0.00399205 0)
(0.00947943 -0.00307544 0)
(0.0149589 -0.00147842 0)
(0.0167732 0.000253091 0)
(0.0150863 0.00196033 0)
(0.010074 0.00344778 0)
(0.00252123 0.00445385 0)
(-0.00639164 0.00483636 0)
(-0.0155621 0.00478723 0)
(-0.0244607 0.00471216 0)
(-0.0331467 0.00494215 0)
(-0.0419475 0.00546916 0)
(-0.051195 0.00615087 0)
(-0.0615058 0.00574738 0)
(-0.0728754 0.00157401 0)
(-0.078245 -0.00557682 0)
(-0.0697455 -0.0141762 0)
(-0.0477295 -0.0204943 0)
(-0.0165943 -0.0200127 0)
(-0.00951464 0.0148001 0)
(-0.0141252 0.00522394 0)
(-0.0140343 -0.00519499 0)
(-0.00895365 -0.0109951 0)
(-0.00131008 -0.0129291 0)
(0.00764427 -0.0101477 0)
(0.0140576 -0.00493475 0)
(0.0163394 0.000226194 0)
(0.015104 0.00454726 0)
(0.0117014 0.00807373 0)
(0.00670447 0.0106138 0)
(0.00037927 0.0119616 0)
(-0.00675615 0.0122656 0)
(-0.0139776 0.0120039 0)
(-0.0208369 0.0118572 0)
(-0.0271191 0.0121808 0)
(-0.0328974 0.0129951 0)
(-0.0382514 0.0135435 0)
(-0.0421129 0.0104038 0)
(-0.0431276 0.00166331 0)
(-0.0380692 -0.0127841 0)
(-0.0308434 -0.0355523 0)
(-0.0092755 -0.0468118 0)
(-0.00968374 0.0257294 0)
(-0.0145644 0.00840488 0)
(-0.0188088 -0.0061875 0)
(-0.0207314 -0.014682 0)
(-0.0165265 -0.0200974 0)
(-0.00668964 -0.0182222 0)
(0.00366895 -0.00987418 0)
(0.00934149 -0.000492724 0)
(0.00982089 0.00678274 0)
(0.0070068 0.0119297 0)
(0.00242038 0.0155385 0)
(-0.00317211 0.0176739 0)
(-0.00931808 0.018327 0)
(-0.0153157 0.0178382 0)
(-0.0204258 0.0168382 0)
(-0.0239231 0.0159572 0)
(-0.0250248 0.0152519 0)
(-0.023488 0.0138037 0)
(-0.0198972 0.0085499 0)
(-0.0154938 -0.00451702 0)
(-0.00825368 -0.0214065 0)
(-0.0046076 -0.0392375 0)
(-0.00139444 -0.0549252 0)
(-0.00966252 0.0375971 0)
(-0.0183268 0.0158548 0)
(-0.032897 0.00141987 0)
(-0.0430134 -0.012139 0)
(-0.043292 -0.0251199 0)
(-0.0351696 -0.0281076 0)
(-0.0209238 -0.0195364 0)
(-0.00775479 -0.00546068 0)
(-0.00162849 0.00658407 0)
(-0.00113593 0.0146643 0)
(-0.00373667 0.019876 0)
(-0.00806233 0.0228902 0)
(-0.0133236 0.023871 0)
(-0.0188163 0.0230929 0)
(-0.0237902 0.0209766 0)
(-0.0273637 0.0180205 0)
(-0.0284968 0.0143513 0)
(-0.0262924 0.00945453 0)
(-0.0205739 0.00176479 0)
(-0.0134331 -0.0102564 0)
(-0.00577821 -0.0255913 0)
(-0.0024089 -0.0416328 0)
(0.000332192 -0.0551081 0)
(-0.00935825 0.0512765 0)
(-0.0250097 0.031106 0)
(-0.048145 0.0165803 0)
(-0.0613856 -0.00624901 0)
(-0.0658277 -0.0285464 0)
(-0.0624427 -0.039099 0)
(-0.050623 -0.0344843 0)
(-0.033273 -0.0178484 0)
(-0.0193297 0.000481539 0)
(-0.0133384 0.0137562 0)
(-0.0123905 0.0219646 0)
(-0.0143801 0.02667 0)
(-0.0181205 0.0285422 0)
(-0.0228251 0.0279815 0)
(-0.0277939 0.0253549 0)
(-0.0322572 0.0209517 0)
(-0.0352444 0.0147175 0)
(-0.0357159 0.00642775 0)
(-0.0326616 -0.00432865 0)
(-0.0266421 -0.0181252 0)
(-0.0179875 -0.0331592 0)
(-0.0101079 -0.047462 0)
(-0.00120737 -0.059221 0)
(-0.00784105 0.0676767 0)
(-0.0258111 0.0505382 0)
(-0.0484834 0.0336526 0)
(-0.0592654 0.00283132 0)
(-0.0647859 -0.0276928 0)
(-0.0675644 -0.0459624 0)
(-0.0650511 -0.04805 0)
(-0.0543902 -0.0342347 0)
(-0.0387707 -0.0117037 0)
(-0.0275251 0.00797063 0)
(-0.0228355 0.0210104 0)
(-0.0222342 0.0285368 0)
(-0.0242059 0.0320296 0)
(-0.0278663 0.0324246 0)
(-0.0326748 0.0301586 0)
(-0.0380379 0.0253229 0)
(-0.0430099 0.0176826 0)
(-0.0463642 0.0068148 0)
(-0.0471045 -0.00766353 0)
(-0.044187 -0.0244827 0)
(-0.0361192 -0.041893 0)
(-0.0231973 -0.0572046 0)
(-0.00436062 -0.0624266 0)
(-0.0036289 0.0791471 0)
(-0.01429 0.0650088 0)
(-0.0286493 0.0465611 0)
(-0.0307917 0.0127148 0)
(-0.0321476 -0.0219618 0)
(-0.0390455 -0.0413709 0)
(-0.0489659 -0.0488798 0)
(-0.0535122 -0.0430891 0)
(-0.0489589 -0.0231669 0)
(-0.0397178 -0.000330024 0)
(-0.0333964 0.0172335 0)
(-0.0309136 0.0281366 0)
(-0.0313155 0.0340778 0)
(-0.033931 0.0364506 0)
(-0.0385827 0.0357671 0)
(-0.0449793 0.0319025 0)
(-0.0523306 0.0242707 0)
(-0.059397 0.0124102 0)
(-0.06349 -0.0039059 0)
(-0.0627678 -0.0256666 0)
(-0.0548135 -0.051794 0)
(-0.0356883 -0.0782858 0)
(-0.00891206 -0.0793509 0)
(0.00342872 0.0890178 0)
(0.00620284 0.0751754 0)
(0.00378495 0.0506956 0)
(0.0155844 0.0110378 0)
(0.0213924 -0.0173571 0)
(0.0129061 -0.0277073 0)
(-0.00642717 -0.0319934 0)
(-0.0254291 -0.0351287 0)
(-0.0369522 -0.0246705 0)
(-0.0399476 -0.00513349 0)
(-0.0392554 0.0123201 0)
(-0.0381089 0.0247889 0)
(-0.0380672 0.0327231 0)
(-0.0399676 0.0371009 0)
(-0.0446028 0.0380924 0)
(-0.0522669 0.0349333 0)
(-0.0621337 0.0265916 0)
(-0.0723408 0.0123908 0)
(-0.0816393 -0.00845211 0)
(-0.0873446 -0.036863 0)
(-0.0837511 -0.0727651 0)
(-0.0675714 -0.116924 0)
(-0.0543821 -0.129941 0)
(0.0126907 -0.0361763 0)
(0.203974 -0.0386025 0)
(0.141858 -0.0311041 0)
(-0.0128802 0.0414225 0)
(-0.642634 0.099729 0)
(-0.970158 0.0243673 0)
(-0.859384 -0.0544051 0)
(-0.717279 -0.0564432 0)
(-0.67346 -0.0191229 0)
(-0.738536 0.0270388 0)
(-0.90105 0.0437961 0)
(-0.966852 0.0116952 0)
(-0.812762 -0.0261424 0)
(-0.628112 -0.0298169 0)
(-0.50489 -0.0226281 0)
(-0.420978 -0.0186971 0)
(-0.345561 -0.0181658 0)
(-0.242851 -0.0273422 0)
(-0.100944 -0.0327415 0)
(0.00958254 -0.049403 0)
(0.113401 -0.0173262 0)
(-0.312344 0.0936649 0)
(-0.767379 0.234054 0)
(-1.25854 0.198468 0)
(-1.23299 0.0278189 0)
(-1.10534 -0.0492071 0)
(-1.15621 -0.0113897 0)
(-1.18211 0.0317623 0)
(-1.16362 0.0478348 0)
(-1.03566 0.0180247 0)
(-0.769721 -0.0442568 0)
(-0.517923 -0.0836427 0)
(-0.358535 -0.0701541 0)
(-0.251038 -0.0453812 0)
(-0.210501 -0.0310928 0)
(-0.19935 -0.0341103 0)
(-0.149956 -0.0662023 0)
(-0.0925422 -0.0947391 0)
(0.0582996 -0.0389054 0)
(-0.27642 0.0958567 0)
(-0.811989 0.255238 0)
(-1.17855 0.350153 0)
(-1.2135 0.201973 0)
(-0.87338 -0.016363 0)
(-0.850347 -0.0642642 0)
(-1.02912 -0.0208953 0)
(-1.02799 0.00181844 0)
(-0.941082 -0.0132768 0)
(-0.726073 -0.0767164 0)
(-0.480471 -0.137493 0)
(-0.308182 -0.151325 0)
(-0.204494 -0.121528 0)
(-0.0947 -0.0851197 0)
(0.024602 -0.0380301 0)
(0.0361397 -0.0121793 0)
(0.0153916 -0.0512092 0)
(-0.0227827 -0.117135 0)
(0.0347614 0.0231212 0)
(-0.551044 0.25199 0)
(-1.05894 0.376298 0)
(-1.16617 0.375661 0)
(-0.791127 0.138419 0)
(-0.210092 -0.0405328 0)
(-0.259557 0.0171709 0)
(-0.769972 0.0345498 0)
(-0.797267 -0.00304052 0)
(-0.670511 -0.0581536 0)
(-0.472089 -0.144962 0)
(-0.285314 -0.189524 0)
(-0.231484 -0.180536 0)
(-0.235232 -0.148713 0)
(-0.170572 -0.128828 0)
(-0.0140196 -0.0804288 0)
(0.123377 -0.0299634 0)
(0.1141 -0.0280585 0)
(0.0462787 -0.0945124 0)
(-0.0411571 0.150833 0)
(-0.665573 0.419977 0)
(-1.07367 0.432107 0)
(-0.927656 0.279708 0)
(-0.32251 -0.0717624 0)
(0.30064 -0.189476 0)
(0.408392 0.0523465 0)
(-0.286936 0.156465 0)
(-0.602147 -0.0106142 0)
(-0.493016 -0.122093 0)
(-0.30421 -0.211903 0)
(-0.196301 -0.214336 0)
(-0.28054 -0.165558 0)
(-0.368862 -0.140181 0)
(-0.326397 -0.15568 0)
(-0.174642 -0.138928 0)
(0.0326378 -0.0625175 0)
(0.108451 -0.021265 0)
(0.071565 -0.0689507 0)
(-0.153717 0.232674 0)
(-0.629677 0.569755 0)
(-0.956333 0.435413 0)
(-0.582604 0.139977 0)
(0.24864 -0.292548 0)
(0.612158 -0.29294 0)
(0.722171 0.183842 0)
(0.210064 0.35399 0)
(-0.32922 0.061478 0)
(-0.279303 -0.158417 0)
(-0.180216 -0.250869 0)
(-0.214357 -0.19512 0)
(-0.40056 -0.118082 0)
(-0.503244 -0.124672 0)
(-0.466898 -0.185032 0)
(-0.329733 -0.200123 0)
(-0.123856 -0.119216 0)
(0.0575473 -0.0400443 0)
(0.0743445 -0.0470896 0)
(-0.275102 0.351874 0)
(-0.415051 0.675366 0)
(-0.764684 0.40866 0)
(-0.204036 -0.070481 0)
(0.576518 -0.51539 0)
(0.483693 -0.350169 0)
(0.673267 0.171775 0)
(0.501688 0.469781 0)
(-0.0499212 0.164981 0)
(-0.0716858 -0.137683 0)
(-0.109373 -0.237139 0)
(-0.301966 -0.134928 0)
(-0.510044 -0.0613962 0)
(-0.599208 -0.106849 0)
(-0.592324 -0.204579 0)
(-0.458933 -0.251533 0)
(-0.251725 -0.182955 0)
(-0.0321186 -0.0753344 0)
(0.0488486 -0.0367221 0)
(-0.372474 0.481761 0)
(-0.0959383 0.741108 0)
(-0.442843 0.410271 0)
(0.400557 -0.246082 0)
(0.358514 -0.496748 0)
(0.0441267 -0.305579 0)
(0.300536 0.193775 0)
(0.52904 0.522434 0)
(0.193206 0.27741 0)
(0.0227178 -0.10484 0)
(-0.139442 -0.178489 0)
(-0.419226 -0.0540818 0)
(-0.615519 -0.00603548 0)
(-0.730864 -0.104912 0)
(-0.732315 -0.229926 0)
(-0.560636 -0.310016 0)
(-0.37564 -0.252669 0)
(-0.145925 -0.125015 0)
(0.0236657 -0.0414277 0)
(0.0146682 0.053067 0)
(0.0390367 0.0597537 0)
(0.0627589 0.036365 0)
(0.0838402 0.00627673 0)
(0.0863239 -0.0070318 0)
(0.0720531 -0.00322183 0)
(0.0487334 0.00376464 0)
(0.0248555 -0.00025365 0)
(0.00491348 -0.00228662 0)
(-0.0106706 0.00992749 0)
(-0.0202369 0.0249816 0)
(-0.0249013 0.0367242 0)
(-0.0282192 0.0471677 0)
(-0.0333572 0.0585939 0)
(-0.043025 0.0694574 0)
(-0.0582824 0.0762303 0)
(-0.0778675 0.074771 0)
(-0.100159 0.0614599 0)
(-0.122215 0.0338262 0)
(-0.140304 -0.00511404 0)
(-0.156748 -0.052853 0)
(-0.176235 -0.105265 0)
(-0.190932 -0.128834 0)
(0.0117292 -0.0171012 0)
(0.0371195 -0.0290489 0)
(0.0524 -0.036401 0)
(0.04613 -0.0352166 0)
(0.0466367 -0.010098 0)
(0.0457026 0.0187468 0)
(0.0361971 0.0313216 0)
(0.0313325 0.0280824 0)
(0.029198 0.0220972 0)
(0.0245168 0.0188895 0)
(0.0212615 0.0169997 0)
(0.02246 0.0171397 0)
(0.0267505 0.02116 0)
(0.0197674 0.0297244 0)
(-0.00157909 0.0430458 0)
(-0.0319114 0.0570678 0)
(-0.0689767 0.0684133 0)
(-0.112672 0.0724985 0)
(-0.154058 0.062684 0)
(-0.186509 0.0309627 0)
(-0.223233 -0.0202781 0)
(-0.274079 -0.0753484 0)
(-0.342558 -0.0823766 0)
(-0.084939 0.0765221 0)
(-0.327315 0.103958 0)
(-0.512442 0.0692977 0)
(-0.55404 0.0109766 0)
(-0.568867 0.00373509 0)
(-0.609932 0.0346748 0)
(-0.699499 0.0459764 0)
(-0.744812 0.0402402 0)
(-0.766276 0.0625908 0)
(-0.749305 0.116261 0)
(-0.635429 0.0979295 0)
(-0.556335 0.0270303 0)
(-0.481973 0.0549657 0)
(-0.408065 0.187218 0)
(-0.440472 0.263604 0)
(-0.473324 0.278764 0)
(-0.490886 0.241335 0)
(-0.497068 0.196234 0)
(-0.504924 0.121665 0)
(-0.536809 0.0763451 0)
(-0.608934 0.0920429 0)
(-0.717775 0.14782 0)
(-0.847051 0.204252 0)
(-0.389718 1.04541 0)
(-0.949734 0.606643 0)
(-1.37902 0.313433 0)
(-1.70401 0.228024 0)
(-1.90457 0.263206 0)
(-2.06447 0.372962 0)
(-2.12089 0.311561 0)
(-2.04595 0.115838 0)
(-1.89208 -0.13151 0)
(-1.68785 -0.365373 0)
(-1.45623 -0.49497 0)
(-1.29856 -0.448866 0)
(-1.18447 -0.293271 0)
(-1.0948 -0.0964694 0)
(-1.00037 0.0712434 0)
(-0.916971 0.120571 0)
(-0.88036 0.133923 0)
(-0.880691 0.169585 0)
(-0.921715 0.209006 0)
(-0.993308 0.257495 0)
(-1.08107 0.324349 0)
(-1.17447 0.389811 0)
(-1.26818 0.437462 0)
(-0.282482 2.23914 0)
(-0.717511 1.69193 0)
(-1.15565 1.19902 0)
(-1.53223 0.8905 0)
(-1.77187 0.624329 0)
(-1.89267 0.338765 0)
(-1.88068 0.00784842 0)
(-1.76102 -0.308089 0)
(-1.62287 -0.543008 0)
(-1.52145 -0.666681 0)
(-1.46009 -0.645333 0)
(-1.42691 -0.52565 0)
(-1.3899 -0.346389 0)
(-1.34436 -0.149292 0)
(-1.305 0.00818836 0)
(-1.28859 0.10303 0)
(-1.29015 0.166557 0)
(-1.30194 0.237181 0)
(-1.32509 0.315853 0)
(-1.35949 0.393775 0)
(-1.39881 0.467925 0)
(-1.4423 0.532377 0)
(-1.48801 0.576686 0)
(-0.153802 3.09792 0)
(-0.400055 2.60838 0)
(-0.714864 2.06242 0)
(-1.00493 1.54092 0)
(-1.23944 1.03228 0)
(-1.42412 0.52028 0)
(-1.48565 0.0329321 0)
(-1.44518 -0.357074 0)
(-1.41025 -0.596066 0)
(-1.41596 -0.676437 0)
(-1.44112 -0.647197 0)
(-1.47323 -0.553603 0)
(-1.50692 -0.409024 0)
(-1.52022 -0.217899 0)
(-1.50825 -0.0231719 0)
(-1.49086 0.120025 0)
(-1.486 0.207581 0)
(-1.4872 0.274768 0)
(-1.48483 0.347855 0)
(-1.47887 0.428308 0)
(-1.47335 0.509773 0)
(-1.47811 0.586549 0)
(-1.50572 0.64101 0)
(-0.0928436 3.50779 0)
(-0.230729 3.07432 0)
(-0.383098 2.54309 0)
(-0.536271 1.99072 0)
(-0.735792 1.51562 0)
(-0.984662 0.920606 0)
(-1.14766 0.175865 0)
(-1.17228 -0.365145 0)
(-1.19969 -0.589268 0)
(-1.23124 -0.623531 0)
(-1.24303 -0.560677 0)
(-1.27326 -0.442593 0)
(-1.32282 -0.30929 0)
(-1.39234 -0.183129 0)
(-1.44397 -0.0706591 0)
(-1.46151 0.0452783 0)
(-1.45914 0.150373 0)
(-1.44465 0.22851 0)
(-1.41855 0.296088 0)
(-1.37846 0.36739 0)
(-1.3334 0.452039 0)
(-1.28106 0.55682 0)
(-1.22712 0.680549 0)
(-0.0965761 3.73775 0)
(-0.207518 3.28839 0)
(-0.250002 2.6768 0)
(-0.31531 2.18162 0)
(-0.426292 1.92029 0)
(-0.626619 1.3815 0)
(-0.860418 0.413091 0)
(-1.01465 -0.252941 0)
(-1.11596 -0.499625 0)
(-1.17265 -0.5858 0)
(-1.18242 -0.536991 0)
(-1.17874 -0.39883 0)
(-1.17475 -0.204996 0)
(-1.18137 -0.0298561 0)
(-1.20251 0.070294 0)
(-1.2311 0.116652 0)
(-1.25059 0.144531 0)
(-1.25601 0.168043 0)
(-1.24637 0.199255 0)
(-1.21844 0.241927 0)
(-1.17565 0.309298 0)
(-1.123 0.407078 0)
(-1.05993 0.547809 0)
(-0.108931 4.02513 0)
(-0.223798 3.42653 0)
(-0.246765 2.58695 0)
(-0.232421 2.25498 0)
(-0.253667 2.13521 0)
(-0.337011 1.75256 0)
(-0.546425 0.873888 0)
(-0.773393 0.187928 0)
(-0.999259 -0.252968 0)
(-1.15085 -0.493787 0)
(-1.19918 -0.520674 0)
(-1.19753 -0.438516 0)
(-1.16473 -0.286111 0)
(-1.11614 -0.105353 0)
(-1.07045 0.0502954 0)
(-1.04225 0.15358 0)
(-1.03112 0.201218 0)
(-1.02843 0.206963 0)
(-1.028 0.20934 0)
(-1.02266 0.22321 0)
(-1.00923 0.256006 0)
(-0.988814 0.30518 0)
(-0.968527 0.373146 0)
(-0.0304767 4.34405 0)
(-0.128744 3.60953 0)
(-0.228435 2.52506 0)
(-0.210745 2.23404 0)
(-0.177732 2.13413 0)
(-0.154016 1.9596 0)
(-0.280572 1.36161 0)
(-0.519897 0.704386 0)
(-0.759572 0.205108 0)
(-0.990552 -0.190631 0)
(-1.17109 -0.416533 0)
(-1.21884 -0.422398 0)
(-1.20801 -0.343912 0)
(-1.16097 -0.219625 0)
(-1.09574 -0.0814654 0)
(-1.03397 0.0419819 0)
(-0.98292 0.129497 0)
(-0.947772 0.173749 0)
(-0.924696 0.205835 0)
(-0.911519 0.226648 0)
(-0.901104 0.244337 0)
(-0.887737 0.258938 0)
(-0.86994 0.275392 0)
(0.107486 4.27094 0)
(0.100529 4.0332 0)
(-0.0917885 2.68821 0)
(-0.1585 2.21218 0)
(-0.130911 2.01338 0)
(-0.0880914 1.94142 0)
(-0.0952905 1.69365 0)
(-0.261928 1.17067 0)
(-0.464525 0.668228 0)
(-0.691145 0.250123 0)
(-0.909519 -0.0875588 0)
(-1.12615 -0.350596 0)
(-1.23634 -0.349792 0)
(-1.22863 -0.282465 0)
(-1.18541 -0.175627 0)
(-1.11897 -0.0657685 0)
(-1.05818 0.0150255 0)
(-1.014 0.0756792 0)
(-0.985575 0.130841 0)
(-0.964706 0.177632 0)
(-0.948463 0.214266 0)
(-0.934833 0.241759 0)
(-0.919541 0.263752 0)
(0.210081 3.76873 0)
(0.342802 4.25741 0)
(0.182521 3.08158 0)
(0.042652 2.36091 0)
(0.0113049 2.00365 0)
(0.00127033 1.83502 0)
(0.0401098 1.7524 0)
(-0.00651611 1.46272 0)
(-0.129119 1.07017 0)
(-0.298322 0.712577 0)
(-0.51175 0.394385 0)
(-0.722334 0.0889982 0)
(-0.899635 -0.145141 0)
(-1.16754 -0.296437 0)
(-1.31541 -0.241679 0)
(-1.23365 -0.144268 0)
(-1.15327 -0.0401807 0)
(-1.08238 0.0655337 0)
(-1.0322 0.143202 0)
(-0.996904 0.18955 0)
(-0.96163 0.2167 0)
(-0.920177 0.231517 0)
(-0.876346 0.234737 0)
(0.212527 3.04843 0)
(0.455494 4.10893 0)
(0.448485 3.36534 0)
(0.346432 2.6022 0)
(0.2839 2.13326 0)
(0.218662 1.83501 0)
(0.221494 1.69558 0)
(0.227199 1.53775 0)
(0.178465 1.30351 0)
(0.0790835 1.04495 0)
(-0.0624181 0.797205 0)
(-0.230209 0.568119 0)
(-0.406194 0.405775 0)
(-0.592328 0.22142 0)
(-0.746483 -0.0487433 0)
(-0.84239 -0.378348 0)
(-1.05279 -0.265521 0)
(-1.11056 -0.161398 0)
(-1.03319 -0.0642569 0)
(-0.944923 0.0354289 0)
(-0.859685 0.0710299 0)
(-0.785901 0.0725437 0)
(-0.729994 0.0657431 0)
(0.1295 2.42703 0)
(0.402943 3.68177 0)
(0.536704 3.32319 0)
(0.562209 2.72351 0)
(0.542338 2.26975 0)
(0.491643 1.93739 0)
(0.451053 1.71407 0)
(0.437147 1.553 0)
(0.411567 1.39342 0)
(0.354939 1.22174 0)
(0.264525 1.04283 0)
(0.147096 0.864955 0)
(0.00996306 0.706537 0)
(-0.131891 0.573805 0)
(-0.306767 0.407471 0)
(-0.505789 0.259114 0)
(-0.659516 0.219655 0)
(-0.780958 0.00684902 0)
(-0.830197 -0.255891 0)
(-0.873672 -0.25522 0)
(-0.889354 -0.158811 0)
(-0.90345 -0.0623793 0)
(-0.935974 -0.0501074 0)
(0.038038 2.05549 0)
(0.268786 3.1735 0)
(0.46866 3.02278 0)
(0.587709 2.61917 0)
(0.635671 2.27975 0)
(0.63052 2.01067 0)
(0.601133 1.78617 0)
(0.571835 1.60649 0)
(0.543201 1.45816 0)
(0.504366 1.32428 0)
(0.447106 1.19392 0)
(0.370505 1.06277 0)
(0.274307 0.931853 0)
(0.169068 0.81246 0)
(0.0486951 0.687392 0)
(-0.0921375 0.560278 0)
(-0.235045 0.432585 0)
(-0.363392 0.271051 0)
(-0.493119 0.143058 0)
(-0.626511 0.108843 0)
(-0.735362 0.121582 0)
(-0.840339 0.154001 0)
(-0.96343 0.171617 0)
(-0.010095 1.8887 0)
(0.150303 2.72533 0)
(0.343869 2.64621 0)
(0.488396 2.39734 0)
(0.57094 2.18373 0)
(0.604929 2.00058 0)
(0.60593 1.82373 0)
(0.590419 1.65948 0)
(0.567382 1.51945 0)
(0.538077 1.40187 0)
(0.499591 1.297 0)
(0.449995 1.19629 0)
(0.387445 1.09471 0)
(0.314117 0.994795 0)
(0.233637 0.896075 0)
(0.138947 0.796538 0)
(0.0219331 0.678173 0)
(-0.112768 0.509552 0)
(-0.248468 0.374819 0)
(-0.38104 0.335674 0)
(-0.492049 0.330491 0)
(-0.610901 0.330025 0)
(-0.741107 0.30175 0)
(-0.0161053 1.82285 0)
(0.082499 2.40042 0)
(0.230017 2.32104 0)
(0.353 2.16893 0)
(0.436716 2.04838 0)
(0.486996 1.93492 0)
(0.511148 1.80885 0)
(0.515517 1.67838 0)
(0.506006 1.55924 0)
(0.487096 1.45738 0)
(0.460805 1.36846 0)
(0.427775 1.28572 0)
(0.388344 1.2028 0)
(0.34207 1.11941 0)
(0.287844 1.04284 0)
(0.219387 0.979091 0)
(0.128773 0.905794 0)
(0.0120415 0.774007 0)
(-0.111042 0.624009 0)
(-0.227076 0.570328 0)
(-0.32248 0.549988 0)
(-0.428181 0.515224 0)
(-0.539942 0.427059 0)
(-0.00374879 1.78378 0)
(0.0522446 2.19906 0)
(0.147752 2.09112 0)
(0.236676 1.98676 0)
(0.305016 1.91983 0)
(0.354012 1.8507 0)
(0.386005 1.76411 0)
(0.40142 1.66812 0)
(0.402285 1.57557 0)
(0.392393 1.49212 0)
(0.375509 1.41615 0)
(0.354301 1.34245 0)
(0.331028 1.26754 0)
(0.303466 1.1996 0)
(0.263616 1.15002 0)
(0.207512 1.12324 0)
(0.134098 1.09179 0)
(0.0423365 0.9959 0)
(-0.0590131 0.849816 0)
(-0.160411 0.78554 0)
(-0.245938 0.751888 0)
(-0.340453 0.687787 0)
(-0.428157 0.535535 0)
(0.00758166 1.74386 0)
(0.0386797 2.082 0)
(0.0968928 1.94434 0)
(0.156381 1.85774 0)
(0.20537 1.81729 0)
(0.244369 1.77369 0)
(0.272776 1.71452 0)
(0.288907 1.64683 0)
(0.293107 1.57847 0)
(0.288194 1.51176 0)
(0.278301 1.44508 0)
(0.266212 1.37314 0)
(0.253342 1.30386 0)
(0.232707 1.25716 0)
(0.195402 1.24023 0)
(0.142844 1.24781 0)
(0.0797025 1.2428 0)
(0.0107015 1.16228 0)
(-0.070139 1.03511 0)
(-0.160589 0.973332 0)
(-0.24328 0.931361 0)
(-0.330205 0.834233 0)
(-0.390682 0.615215 0)
(0.0103255 1.70489 0)
(0.0302654 2.00705 0)
(0.0696556 1.85305 0)
(0.106966 1.77265 0)
(0.138447 1.74531 0)
(0.164969 1.71648 0)
(0.184629 1.67591 0)
(0.195716 1.62887 0)
(0.198472 1.57832 0)
(0.195095 1.52307 0)
(0.189447 1.4605 0)
(0.182136 1.38953 0)
(0.170262 1.33506 0)
(0.145041 1.3179 0)
(0.103517 1.33191 0)
(0.0522462 1.36114 0)
(-0.000743341 1.36147 0)
(-0.0528316 1.28858 0)
(-0.122479 1.19313 0)
(-0.207074 1.14623 0)
(-0.291176 1.09732 0)
(-0.368773 0.954593 0)
(-0.400699 0.6679 0)
(0.00590831 1.6746 0)
(0.0236627 1.94657 0)
(0.0557809 1.79393 0)
(0.0767633 1.72089 0)
(0.0946371 1.70145 0)
(0.109672 1.6815 0)
(0.120064 1.6535 0)
(0.124667 1.62028 0)
(0.124047 1.58072 0)
(0.120016 1.53139 0)
(0.114952 1.47039 0)
(0.10594 1.40908 0)
(0.0863688 1.38072 0)
(0.0522865 1.39299 0)
(0.00774103 1.42713 0)
(-0.0389645 1.46079 0)
(-0.0821439 1.45563 0)
(-0.127686 1.39883 0)
(-0.194549 1.34283 0)
(-0.277374 1.31586 0)
(-0.360773 1.2496 0)
(-0.422793 1.0407 0)
(-0.432498 0.681321 0)
(-0.000750568 1.65566 0)
(0.0189226 1.88966 0)
(0.0470162 1.75343 0)
(0.0565618 1.69351 0)
(0.0649756 1.67985 0)
(0.071022 1.66556 0)
(0.0739273 1.64616 0)
(0.0728597 1.62169 0)
(0.0686244 1.58827 0)
(0.0624099 1.5423 0)
(0.0539727 1.48691 0)
(0.0374901 1.44584 0)
(0.00837365 1.44543 0)
(-0.0307113 1.47629 0)
(-0.0730344 1.51657 0)
(-0.113448 1.54517 0)
(-0.151347 1.53989 0)
(-0.197934 1.51034 0)
(-0.265969 1.49395 0)
(-0.346984 1.47989 0)
(-0.422699 1.37774 0)
(-0.467478 1.10028 0)
(-0.471523 0.714641 0)
(-0.00563029 1.64523 0)
(0.0161175 1.83661 0)
(0.0388668 1.72556 0)
(0.0415144 1.6826 0)
(0.0441117 1.67339 0)
(0.0442546 1.66326 0)
(0.0422227 1.65003 0)
(0.0371657 1.63137 0)
(0.0298396 1.60218 0)
(0.020346 1.561 0)
(0.00607771 1.51866 0)
(-0.0185381 1.501 0)
(-0.052678 1.51933 0)
(-0.0904956 1.55641 0)
(-0.127896 1.595 0)
(-0.163425 1.62028 0)
(-0.200627 1.62562 0)
(-0.250653 1.62844 0)
(-0.319812 1.64462 0)
(-0.397863 1.62989 0)
(-0.465495 1.48249 0)
(-0.501614 1.15628 0)
(-0.506582 0.769114 0)
(-0.00734209 1.63865 0)
(0.014743 1.79139 0)
(0.0307659 1.70747 0)
(0.0304235 1.6811 0)
(0.0300781 1.67538 0)
(0.0273223 1.66894 0)
(0.022839 1.66065 0)
(0.015704 1.64679 0)
(0.00626471 1.62247 0)
(-0.00653908 1.5897 0)
(-0.0259191 1.56412 0)
(-0.0542668 1.56432 0)
(-0.0873049 1.5904 0)
(-0.12048 1.62733 0)
(-0.152799 1.66392 0)
(-0.185286 1.69236 0)
(-0.222902 1.71559 0)
(-0.274056 1.7499 0)
(-0.341972 1.7909 0)
(-0.418392 1.76891 0)
(-0.485863 1.57994 0)
(-0.52525 1.21122 0)
(-0.543807 0.81385 0)
(-0.00630161 1.63203 0)
(0.0143106 1.7564 0)
(0.0241579 1.69637 0)
(0.023679 1.6831 0)
(0.0226128 1.68036 0)
(0.0195137 1.67752 0)
(0.014782 1.67364 0)
(0.0075605 1.66477 0)
(-0.00241274 1.64714 0)
(-0.0167744 1.62531 0)
(-0.0376598 1.6142 0)
(-0.0643229 1.62434 0)
(-0.0923075 1.65198 0)
(-0.119447 1.68768 0)
(-0.146439 1.72504 0)
(-0.17518 1.7613 0)
(-0.209655 1.80368 0)
(-0.255033 1.86546 0)
(-0.314479 1.92868 0)
(-0.385905 1.9065 0)
(-0.456893 1.68914 0)
(-0.508602 1.28127 0)
(-0.545997 0.913461 0)
(-0.00302815 1.62168 0)
(0.015131 1.73152 0)
(0.0205328 1.68863 0)
(0.0217793 1.68409 0)
(0.0217502 1.68408 0)
(0.0202599 1.68464 0)
(0.0171709 1.68489 0)
(0.0118439 1.68144 0)
(0.00350741 1.67168 0)
(-0.00939684 1.66059 0)
(-0.0275278 1.65951 0)
(-0.0486906 1.67395 0)
(-0.0696123 1.70078 0)
(-0.08948 1.73575 0)
(-0.109405 1.77545 0)
(-0.130985 1.8195 0)
(-0.156165 1.87613 0)
(-0.186773 1.95759 0)
(-0.226329 2.04324 0)
(-0.280504 2.04045 0)
(-0.349141 1.82493 0)
(-0.422724 1.39984 0)
(-0.482079 1.05126 0)
(0.00185904 1.60408 0)
(0.0175907 1.71519 0)
(0.0205051 1.68067 0)
(0.0246138 1.68106 0)
(0.0269386 1.68348 0)
(0.0283873 1.68689 0)
(0.0284365 1.69071 0)
(0.0267086 1.69244 0)
(0.0222157 1.69032 0)
(0.0137997 1.68816 0)
(0.00169234 1.69336 0)
(-0.0118196 1.70915 0)
(-0.0245309 1.73423 0)
(-0.035858 1.76803 0)
(-0.0465094 1.80892 0)
(-0.0574186 1.85692 0)
(-0.0688857 1.91874 0)
(-0.0796629 2.00695 0)
(-0.0917771 2.10944 0)
(-0.115952 2.14605 0)
(-0.166146 1.98291 0)
(-0.262014 1.57286 0)
(-0.348981 1.22992 0)
(0.00742343 1.57665 0)
(0.0215879 1.70445 0)
(0.0238243 1.66987 0)
(0.0313431 1.67217 0)
(0.0368758 1.67652 0)
(0.0420348 1.68193 0)
(0.0462082 1.6884 0)
(0.0492289 1.69424 0)
(0.0501701 1.69825 0)
(0.0482619 1.70261 0)
(0.0439784 1.71162 0)
(0.0391148 1.72741 0)
(0.0351801 1.75015 0)
(0.0330044 1.78115 0)
(0.0326622 1.82034 0)
(0.0338471 1.86737 0)
(0.036858 1.9259 0)
(0.0445557 2.00725 0)
(0.0582999 2.11146 0)
(0.0679056 2.1866 0)
(0.0535621 2.11685 0)
(-0.0302477 1.79769 0)
(-0.14781 1.4369 0)
(0.0126421 1.53837 0)
(0.0265768 1.6953 0)
(0.0296863 1.65477 0)
(0.040656 1.65643 0)
(0.0498239 1.66199 0)
(0.0590006 1.66849 0)
(0.0677207 1.67643 0)
(0.075955 1.68482 0)
(0.083018 1.69281 0)
(0.0884238 1.70133 0)
(0.0925198 1.71249 0)
(0.0964753 1.72771 0)
(0.101353 1.74777 0)
(0.108099 1.77442 0)
(0.117524 1.80887 0)
(0.129907 1.85085 0)
(0.145624 1.90126 0)
(0.167281 1.96762 0)
(0.198916 2.05738 0)
(0.236176 2.14889 0)
(0.261895 2.16511 0)
(0.22777 1.994 0)
(0.120866 1.68245 0)
(0.0167705 1.48993 0)
(0.0318335 1.68375 0)
(0.0369988 1.63486 0)
(0.0511064 1.63354 0)
(0.0639758 1.63954 0)
(0.0771119 1.64628 0)
(0.090295 1.65451 0)
(0.103585 1.66381 0)
(0.116592 1.67359 0)
(0.129036 1.68405 0)
(0.141082 1.69601 0)
(0.153371 1.71029 0)
(0.166624 1.72765 0)
(0.181657 1.74946 0)
(0.199565 1.77739 0)
(0.221147 1.81187 0)
(0.246893 1.85247 0)
(0.278351 1.90237 0)
(0.319674 1.96948 0)
(0.372217 2.05227 0)
(0.427477 2.11536 0)
(0.450416 2.07738 0)
(0.402636 1.89963 0)
(0.019488 1.43325 0)
(0.0366639 1.66683 0)
(0.0446117 1.61018 0)
(0.0613816 1.60387 0)
(0.0777237 1.60949 0)
(0.0944923 1.61582 0)
(0.11169 1.62336 0)
(0.129446 1.63217 0)
(0.147625 1.64189 0)
(0.166113 1.6524 0)
(0.184977 1.6639 0)
(0.204527 1.67672 0)
(0.225213 1.69134 0)
(0.247634 1.7086 0)
(0.27271 1.72981 0)
(0.301487 1.75597 0)
(0.334658 1.78672 0)
(0.373017 1.82247 0)
(0.419221 1.86776 0)
(0.47667 1.92797 0)
(0.544982 1.99624 0)
(0.606761 2.03265 0)
(0.631021 1.99289 0)
(0.0208153 1.37089 0)
(0.0405169 1.64294 0)
(0.0515261 1.58097 0)
(0.0704596 1.56825 0)
(0.0898175 1.5727 0)
(0.109709 1.57816 0)
(0.130261 1.58436 0)
(0.151659 1.59169 0)
(0.17395 1.6 0)
(0.197147 1.60911 0)
(0.221313 1.61896 0)
(0.246617 1.6296 0)
(0.273331 1.64123 0)
(0.301862 1.65422 0)
(0.332836 1.66934 0)
(0.36718 1.68752 0)
(0.405716 1.70889 0)
(0.449034 1.73308 0)
(0.498482 1.76146 0)
(0.556572 1.79826 0)
(0.627062 1.84775 0)
(0.704093 1.89782 0)
(0.780927 1.94204 0)
(0.0209476 1.30552 0)
(0.0430366 1.61179 0)
(0.0570309 1.54758 0)
(0.0776632 1.52777 0)
(0.0994306 1.53031 0)
(0.121821 1.53465 0)
(0.144966 1.53915 0)
(0.169094 1.54443 0)
(0.194363 1.55053 0)
(0.220871 1.55728 0)
(0.24872 1.56455 0)
(0.278049 1.57226 0)
(0.309054 1.58043 0)
(0.342018 1.58916 0)
(0.377351 1.59872 0)
(0.415712 1.60968 0)
(0.457878 1.62235 0)
(0.504449 1.6365 0)
(0.556263 1.65211 0)
(0.614381 1.67053 0)
(0.682866 1.6965 0)
(0.760474 1.72685 0)
(0.85498 1.78372 0)
(0.0201237 1.23973 0)
(0.0440666 1.57403 0)
(0.060732 1.51044 0)
(0.0826388 1.48359 0)
(0.106142 1.48365 0)
(0.130349 1.48673 0)
(0.155304 1.48944 0)
(0.181257 1.49244 0)
(0.208422 1.49597 0)
(0.236947 1.49989 0)
(0.266964 1.50405 0)
(0.298624 1.50834 0)
(0.332102 1.51268 0)
(0.367622 1.51699 0)
(0.405474 1.52129 0)
(0.44609 1.52575 0)
(0.490082 1.53055 0)
(0.538005 1.53561 0)
(0.59057 1.54067 0)
(0.648144 1.54543 0)
(0.713229 1.55228 0)
(0.786375 1.55836 0)
(0.873416 1.58503 0)
(0.0185674 1.17583 0)
(0.0436261 1.53093 0)
(0.062513 1.47013 0)
(0.0853017 1.43687 0)
(0.10987 1.4341 0)
(0.135197 1.43588 0)
(0.161206 1.4369 0)
(0.18814 1.43767 0)
(0.216237 1.43858 0)
(0.245659 1.43959 0)
(0.276553 1.44054 0)
(0.30907 1.44128 0)
(0.343378 1.44168 0)
(0.379667 1.4416 0)
(0.41816 1.44092 0)
(0.459144 1.43955 0)
(0.503034 1.43746 0)
(0.550265 1.43451 0)
(0.601383 1.4305 0)
(0.656735 1.42473 0)
(0.717071 1.41776 0)
(0.784362 1.40723 0)
(0.856068 1.39965 0)
(0.0164708 1.11577 0)
(0.0418644 1.48401 0)
(0.06247 1.42728 0)
(0.0857693 1.38869 0)
(0.110774 1.38301 0)
(0.136551 1.38352 0)
(0.162917 1.38304 0)
(0.190082 1.38178 0)
(0.218284 1.38028 0)
(0.247682 1.37857 0)
(0.278414 1.37649 0)
(0.310619 1.3739 0)
(0.344443 1.37062 0)
(0.380041 1.36649 0)
(0.417585 1.36132 0)
(0.457264 1.35491 0)
(0.499324 1.34707 0)
(0.54406 1.33758 0)
(0.591759 1.3262 0)
(0.642896 1.31235 0)
(0.697066 1.29571 0)
(0.757073 1.27556 0)
(0.815663 1.24796 0)
(0.0140188 1.0611 0)
(0.0390255 1.43492 0)
(0.0608342 1.3827 0)
(0.0842888 1.34011 0)
(0.109174 1.33172 0)
(0.134785 1.33103 0)
(0.160884 1.3293 0)
(0.187637 1.32632 0)
(0.21526 1.32273 0)
(0.243902 1.31864 0)
(0.273677 1.31393 0)
(0.304702 1.30844 0)
(0.337091 1.30199 0)
(0.37096 1.2944 0)
(0.406424 1.28548 0)
(0.443604 1.27499 0)
(0.482615 1.26267 0)
(0.523632 1.24826 0)
(0.566705 1.23147 0)
(0.61229 1.21193 0)
(0.659559 1.18897 0)
(0.711038 1.16311 0)
(0.760147 1.12836 0)
(0.0114109 1.01262 0)
(0.0354267 1.38497 0)
(0.0579192 1.337 0)
(0.0811757 1.29179 0)
(0.105455 1.28112 0)
(0.130359 1.27938 0)
(0.155651 1.27664 0)
(0.181452 1.27227 0)
(0.207949 1.26696 0)
(0.235268 1.26091 0)
(0.2635 1.25402 0)
(0.292734 1.24615 0)
(0.323053 1.23713 0)
(0.354533 1.22678 0)
(0.38724 1.21493 0)
(0.421236 1.20133 0)
(0.456552 1.18576 0)
(0.493265 1.16795 0)
(0.531287 1.14759 0)
(0.570918 1.12446 0)
(0.611398 1.0979 0)
(0.654279 1.06863 0)
(0.695783 1.03288 0)
(0.00875917 0.971537 0)
(0.031323 1.33611 0)
(0.0540628 1.29175 0)
(0.0768052 1.2453 0)
(0.100076 1.23295 0)
(0.12382 1.23037 0)
(0.147861 1.22687 0)
(0.172283 1.22144 0)
(0.197239 1.2148 0)
(0.222827 1.20723 0)
(0.249116 1.19867 0)
(0.276169 1.18898 0)
(0.304039 1.17801 0)
(0.332772 1.16562 0)
(0.362395 1.15164 0)
(0.392928 1.13588 0)
(0.42435 1.11813 0)
(0.45667 1.09818 0)
(0.489753 1.07575 0)
(0.523714 1.05069 0)
(0.558039 1.02251 0)
(0.593349 0.991579 0)
(0.628129 0.956672 0)
(0.00641374 0.935629 0)
(0.0271921 1.28687 0)
(0.0495644 1.24506 0)
(0.0713465 1.19862 0)
(0.0931961 1.18533 0)
(0.115351 1.18211 0)
(0.137719 1.17798 0)
(0.160363 1.17171 0)
(0.183399 1.16403 0)
(0.206898 1.15527 0)
(0.230909 1.14541 0)
(0.255472 1.13432 0)
(0.280618 1.12188 0)
(0.306368 1.10797 0)
(0.332725 1.09245 0)
(0.35968 1.0752 0)
(0.387188 1.05603 0)
(0.415215 1.03478 0)
(0.443626 1.01124 0)
(0.472401 0.985307 0)
(0.501231 0.956673 0)
(0.530184 0.92536 0)
(0.558752 0.891615 0)
(0.00360406 0.912577 0)
(0.0226925 1.24765 0)
(0.0452214 1.20821 0)
(0.0661409 1.16268 0)
(0.0864734 1.14901 0)
(0.106955 1.14543 0)
(0.127621 1.14095 0)
(0.148506 1.13421 0)
(0.169679 1.12591 0)
(0.191183 1.11645 0)
(0.213049 1.10581 0)
(0.235301 1.0939 0)
(0.257955 1.08061 0)
(0.281016 1.06585 0)
(0.304472 1.04951 0)
(0.3283 1.03148 0)
(0.352448 1.01163 0)
(0.376862 0.989859 0)
(0.401429 0.966 0)
(0.426071 0.939955 0)
(0.450609 0.911573 0)
(0.474937 0.880665 0)
(0.498971 0.848009 0)
(0.00305286 0.8772 0)
(0.0194507 1.18462 0)
(0.0388449 1.14602 0)
(0.0564753 1.10363 0)
(0.0736699 1.09075 0)
(0.090963 1.0869 0)
(0.108358 1.0819 0)