/*--------------------------------*- C++ -*----------------------------------*\
| =========                 |                                                 |
| \\      /  F ield         | OpenFOAM: The Open Source CFD Toolbox           |
|  \\    /   O peration     | Version:  2206                                  |
|   \\  /    A nd           | Website:  www.openfoam.com                      |
|    \\/     M anipulation  |                                                 |
\*---------------------------------------------------------------------------*/
FoamFile
{
    version     2.0;
    format      ascii;
    arch        "LSB;label=32;scalar=64";
    class       volScalarField;
    location    "0.325";
    object      p;
}
// * * * * * * * * * * * * * * * * * * * * * * * * * * * * * * * * * * * * * //

dimensions      [1 -1 -2 0 0 0 0];

internalField   nonuniform List<scalar> 
2268
(
1182.35
1186.68
1194.8
1197.43
1193.53
1184.7
1174.16
1164.02
1155.2
1148.21
1143.57
1141.94
1144.18
1151.43
1165.41
1187.45
1218.2
1256.5
1296.35
1324.4
1325.48
1297.37
1348.42
1122.47
1126.74
1134.79
1137.38
1133.44
1124.65
1114.21
1104.15
1095.37
1088.38
1083.68
1081.94
1084.01
1090.89
1103.45
1123.28
1151.67
1188.59
1230.15
1262.02
1268.49
1228.5
1284.34
1061.56
1065.79
1073.67
1076.17
1072.13
1063.43
1053.17
1043.28
1034.58
1027.56
1022.75
1020.8
1022.56
1028.99
1041.22
1060.14
1086.22
1118.74
1154.98
1186.63
1200.81
1184.88
1234.3
999.739
1003.86
1011.5
1013.83
1009.66
1001.09
991.107
981.439
972.842
965.776
960.773
958.513
959.83
965.691
977.088
994.754
1018.93
1048.45
1080.37
1109.66
1132.19
1142.24
1201.51
937.141
941.039
948.376
950.452
946.129
937.729
928.064
918.661
910.163
903.008
897.739
895.056
895.806
900.929
911.347
927.689
950.031
977.301
1006.88
1034.96
1062.98
1090.57
1160.81
873.927
877.459
884.4
886.141
881.647
873.436
864.116
854.974
846.54
839.231
833.605
830.386
830.434
834.676
843.983
858.934
879.506
904.733
932.607
959.874
989.068
1022.49
1091.33
810.21
813.304
819.657
820.929
816.26
808.289
799.338
790.434
782.005
774.457
768.37
764.493
763.699
766.911
774.972
788.432
807.228
830.447
856.467
882.32
908.75
937.07
981.295
746.141
748.737
754.205
754.814
749.976
742.316
733.775
725.089
716.597
708.712
702.043
697.369
695.581
697.605
704.291
716.21
733.196
754.358
778.132
801.589
821.919
839.14
823.373
246.177
246.149
246.145
246.18
246.203
246.234
246.282
246.341
246.406
246.474
246.539
246.6
246.654
246.699
246.736
246.765
246.786
246.801
246.808
246.111
246.078
246.081
246.122
246.143
246.173
246.221
246.28
246.346
246.415
246.481
246.542
246.596
246.641
246.678
246.707
246.728
246.743
246.75
246.034
245.99
246.011
246.067
246.079
246.108
246.158
246.219
246.286
246.356
246.424
246.486
246.54
246.585
246.621
246.649
246.67
246.684
246.691
245.947
245.884
245.937
246.014
246.01
246.04
246.093
246.156
246.226
246.298
246.367
246.43
246.485
246.53
246.565
246.592
246.611
246.624
246.631
245.845
245.772
245.856
245.969
245.937
245.969
246.026
246.091
246.164
246.239
246.311
246.377
246.432
246.476
246.51
246.535
246.553
246.564
246.57
245.709
245.638
245.765
245.935
245.857
245.891
245.957
246.024
246.102
246.181
246.256
246.324
246.381
246.424
246.456
246.479
246.494
246.503
246.508
245.56
245.488
245.679
245.925
245.771
245.803
245.886
245.956
246.038
246.122
246.202
246.274
246.331
246.374
246.403
246.422
246.434
246.441
246.444
245.476
245.442
245.538
245.873
245.683
245.7
245.819
245.885
245.975
246.064
246.149
246.225
246.284
246.325
246.351
246.366
246.373
246.376
246.377
645.524
647.236
650.878
650.321
645.234
637.992
629.956
621.445
612.68
604.077
596.282
590.116
586.496
586.349
590.531
599.849
614.302
632.607
652.807
671.399
677.373
654.801
467.745
508.113
507.524
507.902
505.71
500.244
493.219
485.262
476.314
466.65
456.629
446.849
438.134
431.466
427.784
427.531
430.383
438.017
451.651
466.953
479.775
479.068
451.287
381.379
372.184
367.547
363.799
359.989
353.932
346.606
338.013
327.776
316.749
304.96
292.725
280.766
270.259
262.886
260.64
264.589
272.093
279.025
291.543
306.938
317.399
313.041
299.778
241.403
231.32
218.471
211.621
204.391
195.943
185.485
171.912
158.644
144.957
130.612
116.018
101.721
88.5153
77.1848
68.4902
63.6289
68.0686
84.0491
109.845
137.609
156.777
163.795
126.055
104.521
76.9106
70.3847
65.7605
59.5703
51.3396
39.6969
32.5296
26.0767
20.0759
14.8637
10.6734
7.554
5.44089
4.24313
3.67447
4.23235
5.91442
8.72794
14.7246
26.6981
42.7923
47.738
16.0305
6.47535
6.62972
5.63812
3.90792
2.11712
1.20942
1.04301
1.08316
1.15616
1.23469
1.31305
1.39478
1.47866
1.54615
1.58701
1.59068
1.50339
1.23137
1.05786
1.23027
2.09984
1.20061
0.481077
0.594541
0.664096
0.688751
0.721676
0.769192
0.852284
0.877807
0.923463
0.982973
1.04542
1.10629
1.16911
1.23113
1.25062
1.21973
1.13816
1.00405
0.845993
0.756799
0.735235
0.597479
0.463913
0.404923
0.457981
0.499893
0.524961
0.554133
0.594805
0.646767
0.687375
0.728323
0.771835
0.812843
0.850284
0.890426
0.923688
0.857171
0.689456
0.515086
0.392952
0.36257
0.418247
0.4986
0.518586
0.281329
0.299461
0.306263
0.326254
0.347056
0.371682
0.402437
0.437829
0.471651
0.504692
0.53586
0.559992
0.576925
0.590451
0.577136
0.441265
0.169213
-0.0647989
-0.141826
-0.0505568
0.151274
0.337721
0.418241
0.0985238
0.110056
0.124378
0.141341
0.160238
0.180923
0.204315
0.229867
0.255323
0.279415
0.299928
0.311907
0.314205
0.304834
0.251693
0.136453
-0.0743501
-0.23884
-0.272478
-0.159133
0.0697413
0.274265
0.342868
-0.0804296
-0.0693442
-0.0586296
-0.0460452
-0.0310599
-0.0146606
0.0029295
0.0212115
0.0388365
0.0544242
0.0662417
0.0710771
0.066708
0.048102
-0.00241612
-0.0772878
-0.172856
-0.233689
-0.207889
-0.085737
0.0557824
0.179637
0.214249
-0.262741
-0.256106
-0.247955
-0.238244
-0.226645
-0.214001
-0.200909
-0.187982
-0.176299
-0.16698
-0.161018
-0.159864
-0.165567
-0.18221
-0.215119
-0.263571
-0.292448
-0.290297
-0.253177
-0.165763
-0.0750603
-0.0298196
-0.030454
-0.451062
-0.447674
-0.441759
-0.434426
-0.425707
-0.416178
-0.406494
-0.397339
-0.389669
-0.384375
-0.381941
-0.382694
-0.387507
-0.398321
-0.416287
-0.437927
-0.448956
-0.438847
-0.400084
-0.343962
-0.291582
-0.254357
-0.232985
-0.644746
-0.643228
-0.639299
-0.634039
-0.627749
-0.62082
-0.613833
-0.607446
-0.602468
-0.599581
-0.598979
-0.60045
-0.603956
-0.609725
-0.617228
-0.623274
-0.620036
-0.601295
-0.565181
-0.519381
-0.477454
-0.448872
-0.436217
-0.84321
-0.842754
-0.840336
-0.836789
-0.832501
-0.827742
-0.822983
-0.818785
-0.815765
-0.814383
-0.814659
-0.81618
-0.818466
-0.820998
-0.82271
-0.820975
-0.811608
-0.791469
-0.761698
-0.727491
-0.696845
-0.675729
-0.666009
-1.04564
-1.04572
-1.04445
-1.0423
-1.03966
-1.03671
-1.03384
-1.03148
-1.03003
-1.02976
-1.03056
-1.032
-1.03351
-1.03434
-1.0334
-1.02885
-1.0186
-1.00124
-0.977994
-0.952629
-0.93025
-0.914994
-0.908457
-1.25127
-1.25163
-1.25123
-1.25021
-1.24891
-1.24749
-1.24624
-1.24545
-1.24536
-1.24606
-1.24743
-1.24911
-1.2506
-1.25119
-1.24993
-1.2456
-1.23707
-1.22402
-1.20771
-1.19085
-1.17676
-1.16819
-1.16629
-1.45948
-1.46003
-1.46026
-1.46014
-1.45995
-1.45984
-1.45998
-1.46059
-1.46175
-1.46348
-1.46569
-1.46819
-1.47058
-1.47225
-1.47237
-1.47017
-1.4652
-1.45765
-1.44863
-1.44006
-1.43413
-1.43277
-1.43681
-1.66977
-1.67046
-1.67115
-1.67174
-1.67248
-1.67351
-1.67494
-1.67685
-1.67926
-1.68219
-1.68565
-1.68959
-1.69372
-1.69747
-1.70019
-1.70142
-1.70111
-1.69973
-1.69823
-1.69804
-1.70069
-1.70765
-1.7195
-1.88167
-1.88247
-1.8835
-1.88468
-1.88624
-1.88833
-1.89099
-1.8942
-1.89795
-1.90232
-1.90744
-1.91337
-1.91985
-1.92641
-1.93256
-1.93812
-1.9433
-1.94866
-1.95505
-1.96362
-1.97557
-1.99209
-2.01349
-2.0948
-2.09571
-2.097
-2.0987
-2.10105
-2.10417
-2.10806
-2.11261
-2.11784
-2.12389
-2.13101
-2.13929
-2.14855
-2.15841
-2.16859
-2.17913
-2.19041
-2.203
-2.21766
-2.23548
-2.25759
-2.28499
-2.31778
-2.30883
-2.30989
-2.31141
-2.31363
-2.31677
-2.32094
-2.32607
-2.33202
-2.33884
-2.34676
-2.3561
-2.36698
-2.37928
-2.39278
-2.40743
-2.42345
-2.44123
-2.46137
-2.4847
-2.51237
-2.54547
-2.58502
-2.63109
-2.52355
-2.5248
-2.52658
-2.52937
-2.53331
-2.53853
-2.54489
-2.55227
-2.56077
-2.5707
-2.58239
-2.596
-2.61151
-2.6289
-2.64834
-2.6701
-2.69461
-2.72249
-2.75477
-2.79278
-2.83764
-2.89044
-2.95155
-2.73879
-2.7403
-2.74239
-2.74576
-2.75051
-2.75674
-2.76431
-2.77314
-2.7834
-2.79542
-2.80954
-2.82596
-2.84479
-2.86623
-2.89057
-2.91812
-2.94932
-2.98495
-3.02628
-3.07484
-3.13189
-3.19883
-3.27651
-2.95442
-2.95623
-2.95866
-2.9626
-2.96812
-2.97532
-2.98408
-2.9944
-3.00648
-3.02067
-3.03727
-3.05651
-3.07868
-3.10415
-3.1333
-3.16643
-3.20408
-3.24729
-3.29757
-3.35657
-3.42573
-3.50704
-3.60213
-3.17022
-3.17236
-3.17512
-3.17963
-3.1859
-3.19403
-3.20399
-3.21583
-3.22979
-3.24616
-3.26519
-3.28718
-3.31258
-3.3419
-3.37556
-3.41392
-3.45767
-3.50811
-3.56694
-3.63586
-3.71659
-3.81173
-3.92384
-3.38594
-3.38839
-3.39148
-3.39655
-3.40359
-3.41269
-3.42387
-3.43726
-3.45307
-3.47151
-3.49278
-3.5173
-3.54567
-3.57854
-3.61634
-3.65952
-3.70895
-3.76614
-3.83281
-3.91073
-4.00197
-4.10974
-4.23728
-3.60132
-3.60404
-3.60749
-3.61319
-3.62105
-3.63114
-3.64355
-3.65843
-3.67592
-3.69616
-3.71937
-3.74612
-3.77718
-3.81327
-3.85483
-3.90239
-3.957
-4.02021
-4.09371
-4.17932
-4.27955
-4.39804
-4.53842
-3.81615
-3.81913
-3.82303
-3.82944
-3.83814
-3.84921
-3.86274
-3.8789
-3.89777
-3.91949
-3.94436
-3.97311
-4.00662
-4.0456
-4.09051
-4.14193
-4.20099
-4.26924
-4.34828
-4.4401
-4.54744
-4.67411
-4.82377
-4.03028
-4.03355
-4.03799
-4.04512
-4.0546
-4.06651
-4.08095
-4.0981
-4.11807
-4.14102
-4.16738
-4.19797
-4.23371
-4.27523
-4.32293
-4.3775
-4.44014
-4.51232
-4.59562
-4.69215
-4.80468
-4.93669
-5.09161
-4.24347
-4.24708
-4.25205
-4.25983
-4.26993
-4.28248
-4.29759
-4.31552
-4.33642
-4.36047
-4.38821
-4.42046
-4.45808
-4.50158
-4.55139
-4.6083
-4.67359
-4.74866
-4.83508
-4.9349
-5.05068
-5.18539
-5.34201
-4.45548
-4.45943
-4.4648
-4.47306
-4.48361
-4.49662
-4.51229
-4.53091
-4.55263
-4.57766
-4.60655
-4.64011
-4.67909
-4.72395
-4.77517
-4.83369
-4.90079
-4.9778
-5.0662
-5.16786
-5.28498
-5.42016
-5.57588
-4.66614
-4.67039
-4.67599
-4.68459
-4.69543
-4.70883
-4.725
-4.74423
-4.76662
-4.79237
-4.82206
-4.85648
-4.8963
-4.94198
-4.99409
-5.05362
-5.12178
-5.19979
-5.28903
-5.39116
-5.50797
-5.64174
-5.79465
-4.87535
-4.87987
-4.88557
-4.8944
-4.90547
-4.91918
-4.93576
-4.95544
-4.97825
-5.0044
-5.03452
-5.06943
-5.10974
-5.15584
-5.20837
-5.26831
-5.33677
-5.41488
-5.504
-5.60551
-5.72085
-5.85193
-6.00077
-5.08269
-5.0875
-5.09318
-5.10219
-5.11339
-5.12733
-5.14418
-5.16409
-5.18704
-5.21332
-5.24364
-5.27877
-5.31921
-5.36532
-5.41773
-5.47742
-5.54541
-5.62282
-5.71092
-5.81086
-5.92381
-6.05141
-6.19543
-5.28734
-5.29246
-5.29798
-5.30707
-5.3183
-5.33235
-5.3493
-5.36921
-5.39207
-5.41827
-5.44855
-5.48356
-5.52365
-5.56922
-5.62094
-5.6797
-5.74643
-5.82219
-5.90812
-6.00516
-6.11444
-6.23762
-6.37618
-5.48904
-5.4945
-5.49971
-5.50881
-5.51997
-5.53395
-5.55079
-5.57048
-5.59307
-5.61899
-5.64889
-5.68329
-5.7225
-5.76698
-5.81744
-5.87457
-5.9391
-6.01206
-6.09452
-6.18721
-6.29115
-6.40803
-6.53946
-5.68893
-5.69491
-5.69975
-5.70873
-5.71968
-5.7334
-5.74997
-5.76936
-5.7916
-5.81708
-5.84634
-5.87982
-5.91783
-5.96091
-6.00966
-6.06459
-6.12627
-6.19567
-6.2737
-6.36094
-6.45822
-6.56691
-6.68888
-5.88773
-5.89441
-5.89886
-5.90751
-5.91814
-5.93158
-5.94791
-5.967
-5.98884
-6.01381
-6.04242
-6.075
-6.11186
-6.1535
-6.20042
-6.25301
-6.31177
-6.37746
-6.45071
-6.53196
-6.622
-6.7219
-6.83329
-6.08341
-6.09051
-6.09465
-6.10284
-6.11325
-6.12649
-6.14252
-6.16112
-6.18243
-6.20691
-6.23498
-6.26676
-6.30245
-6.34257
-6.38762
-6.43783
-6.49353
-6.55532
-6.6236
-6.69866
-6.78116
-6.87197
-6.97205
-6.27575
-6.28276
-6.28702
-6.29487
-6.30508
-6.3179
-6.33331
-6.35131
-6.37214
-6.39614
-6.42348
-6.45418
-6.48849
-6.52688
-6.56968
-6.617
-6.66906
-6.72626
-6.78887
-6.85704
-6.93109
-7.01139
-7.0982
-6.47372
-6.48161
-6.48602
-6.49365
-6.50352
-6.51572
-6.53046
-6.54798
-6.56838
-6.59162
-6.61782
-6.64726
-6.68013
-6.71645
-6.75632
-6.80003
-6.84778
-6.89955
-6.95537
-7.01531
-7.0791
-7.14621
-7.21619
96.6086
179.312
244.221
232.044
277.349
235.202
173.453
120.431
261.323
221.957
187.329
168.429
151.743
140.435
133.769
131.594
51.8286
55.2696
59.0335
62.4875
4.09007
6.22191
9.75338
14.6816
0.483197
0.432444
0.469724
0.632882
0.496172
0.483292
0.48129
0.475118
0.421081
0.409991
0.397228
0.377523
0.330222
0.325247
0.307943
0.279573
0.172483
0.156955
0.138496
0.102975
-0.0468845
-0.0558223
-0.0667156
-0.0778863
-0.235717
-0.241876
-0.249557
-0.256668
-0.438454
-0.442257
-0.447273
-0.453001
-0.666986
-0.669318
-0.672703
-0.676862
-0.909869
-0.912343
-0.915647
-0.919627
-1.17001
-1.17369
-1.178
-1.18279
-1.44434
-1.45045
-1.45696
-1.46358
-1.73251
-1.742
-1.75168
-1.7614
-2.03366
-2.04769
-2.06165
-2.07583
-2.34664
-2.36648
-2.38653
-2.407
-2.67051
-2.69736
-2.72495
-2.75359
-3.00386
-3.03958
-3.07644
-3.11482
-3.34356
-3.38984
-3.43825
-3.48891
-3.68493
-3.74257
-3.8039
-3.86933
-4.02227
-4.09123
-4.16542
-4.24629
-4.34974
-4.42899
-4.515
-4.60995
-4.66205
-4.74934
-4.84484
-4.95087
-4.95496
-5.04739
-5.14882
-5.26139
-5.2264
-5.32096
-5.42444
-5.53845
-5.47682
-5.57088
-5.67332
-5.78507
-5.70827
-5.79994
-5.89922
-6.00683
-5.92324
-6.01167
-6.10682
-6.20926
-6.12485
-6.20965
-6.30032
-6.39726
-6.31489
-6.39623
-6.48271
-6.57467
-6.49091
-6.56904
-6.65203
-6.73998
-6.64847
-6.72275
-6.80185
-6.88584
-6.79009
-6.85913
-6.93281
-7.01121
-6.92507
-6.98754
-7.05413
-7.12519
-7.05345
-7.10845
-7.16659
-7.22832
-7.1671
-7.21299
-7.26072
-7.31053
-7.26902
-7.30306
-7.3371
-7.37097
234.351
245.465
245.188
245.681
245.538
245.524
245.724
245.767
245.878
245.974
246.067
246.151
246.214
246.252
246.27
246.276
246.275
246.272
246.269
140.248
220.654
237.574
241.95
245.106
244.962
245.654
245.566
245.717
245.826
245.955
246.063
246.131
246.159
246.16
246.148
246.13
246.112
246.102
152.852
140.933
153.765
204.421
227.656
236.72
244.589
245.453
245.534
245.587
245.822
245.994
246.069
246.071
246.045
246.006
245.961
245.921
245.898
126.541
114.398
130.177
144.595
152.805
181.313
204.334
228.855
242.077
245.269
245.739
245.961
246.034
245.985
245.915
245.837
245.751
245.676
245.632
69.1431
75.4107
87.4279
95.0874
107.411
125.811
132.609
165.312
200.228
225.157
244.715
246.237
246.037
245.878
245.753
245.622
245.473
245.338
245.259
22.9643
32.1987
43.6091
54.9319
60.6521
66.1619
79.3574
109.475
137.735
178.591
214.282
243.62
245.947
245.684
245.504
245.326
245.081
244.844
244.704
1.00281
1.79354
3.21658
6.6288
10.0274
15.579
34.1916
58.2232
68.2567
104.618
163.968
219.082
242.074
245.375
245.238
244.905
244.491
244.073
243.825
0.522996
0.634955
0.639617
0.648707
0.719886
0.811696
1.09309
1.64616
9.76836
43.1332
89.3575
166.948
233.587
242.045
244.69
244.359
243.547
242.791
242.36
0.367609
0.443776
0.462659
0.406921
0.419129
0.523402
0.657922
0.852616
0.88421
1.42353
26.7666
88.1842
177.067
231.305
242.72
242.856
241.84
240.578
239.82
0.176733
0.148654
0.17978
0.202913
0.260223
0.368204
0.47775
0.541546
0.522
0.746535
1.54454
14.1535
106.375
195.945
236.346
238.882
237.833
236.354
235.294
0.0510536
0.0396863
0.0505806
0.0693854
0.113367
0.178022
0.255903
0.291552
0.309314
0.235453
0.621353
2.70541
42.5009
146.132
218.178
229.785
229.069
228.474
227.399
-0.0966904
-0.114548
-0.108196
-0.084498
-0.0410238
0.0220031
0.0866846
0.116853
0.128722
0.144426
0.0544799
-0.161018
2.14307
103.626
187.308
210.779
213.093
214.308
213.979
-0.26802
-0.281405
-0.279871
-0.261304
-0.227111
-0.179576
-0.127941
-0.0896954
-0.073248
-0.0547115
-0.0705093
-0.092992
0.754526
64.9622
149.54
187.572
190.601
191.371
192.529
-0.463831
-0.476213
-0.476431
-0.461662
-0.435057
-0.400477
-0.362642
-0.331256
-0.311757
-0.282054
-0.219167
-0.120628
1.02179
31.5103
106.166
151.234
157.898
156.997
161.03
-0.684879
-0.694708
-0.695977
-0.686469
-0.669658
-0.64858
-0.623451
-0.598299
-0.578328
-0.543356
-0.460317
-0.387536
0.221929
9.28137
66.3934
101.149
109.238
110.661
119.79
-0.927179
-0.93654
-0.939717
-0.935709
-0.928929
-0.921096
-0.908343
-0.88913
-0.869083
-0.836324
-0.758088
-0.707112
-0.582217
0.434142
36.6177
54.183
61.0046
63.8191
77.8341
-1.19121
-1.20199
-1.20844
-1.21101
-1.21482
-1.2196
-1.21856
-1.20655
-1.18887
-1.15973
-1.08471
-1.01609
-0.96661
-0.718341
17.5233
20.4635
28.1639
33.9482
48.5395
-1.47473
-1.48985
-1.50242
-1.51402
-1.53014
-1.54609
-1.55041
-1.54153
-1.52502
-1.49218
-1.41083
-1.32601
-1.02395
2.67575
7.25115
2.5265
10.1172
21.8081
32.8603
-1.77767
-1.79993
-1.8212
-1.84348
-1.87199
-1.89663
-1.89844
-1.88077
-1.85635
-1.806
-1.70097
-1.57822
-1.28576
7.46141
5.7372
3.01675
2.67136
16.3868
23.2696
-2.10016
-2.1341
-2.16801
-2.20397
-2.24485
-2.27432
-2.2668
-2.22548
-2.16911
-2.08286
-1.94521
-1.77501
-1.40407
7.46358
-0.00103007
9.86349
4.72819
12.6073
16.3585
-2.44193
-2.49285
-2.54623
-2.60355
-2.66294
-2.69633
-2.6701
-2.59573
-2.48581
-2.32895
-2.1421
-1.95253
-2.19265
-1.21743
-5.96784
2.06868
5.03176
8.21203
11.3565
-2.80241
-2.87489
-2.95301
-3.03574
-3.11764
-3.15793
-3.10059
-2.96117
-2.80363
-2.5836
-2.33334
-2.42278
-1.74803
-3.40334
-4.0752
-3.82404
1.63206
3.65791
7.35658
-3.18172
-3.28328
-3.39208
-3.50074
-3.60053
-3.64268
-3.5437
-3.25297
-3.00274
-2.81217
-2.33491
-2.61545
-1.94227
-6.18162
-3.10329
-6.46749
-1.0769
1.24346
4.42706
-3.57926
-3.72226
-3.88022
-4.04037
-4.18869
-4.2368
-4.0633
-3.53734
-3.11831
-3.17108
-4.89866
-2.2946
-1.74391
-7.02862
-4.56763
-5.11502
-2.04481
0.745098
2.71101
-3.98785
-4.18371
-4.41827
-4.68217
-4.98853
-5.12861
-4.8649
-4.19542
-4.24267
-6.25961
-2.24291
0.393572
0.465989
-2.45747
-5.36296
-2.49244
-1.21287
0.975991
1.8592
-4.39409
-4.64812
-4.97298
-5.37897
-5.95056
-6.2966
-6.1535
-6.63238
-14.7156
-13.3717
-0.00966605
2.56684
0.780723
-3.09761
-3.54891
-1.68024
-0.285014
1.22839
1.45795
-4.78409
-5.09464
-5.50057
-6.06165
-6.88334
-7.5029
-8.12157
-15.1007
-25.0707
-7.26784
3.78249
4.66361
-0.00873403
-2.44357
-1.71474
-0.764356
0.453615
1.42997
1.29988
-5.14585
-5.50178
-5.96489
-6.65251
-7.63399
-8.7608
-11.8094
-21.3711
-12.8759
2.303
1.87199
0.790807
0.552588
-0.0457187
-0.150648
0.337014
1.13903
1.67075
1.28793
-5.46916
-5.84937
-6.33577
-7.07621
-8.09096
-9.45818
-13.9601
-26.4205
-6.18321
0.263741
0.959842
0.779778
0.878457
1.0159
0.930438
1.2095
1.68605
1.89572
1.34102
-5.74876
-6.12542
-6.59468
-7.31366
-8.1967
-9.11112
-10.0057
-13.2743
0.672753
1.61633
1.32986
1.24333
1.37493
1.49342
1.51712
1.71737
1.99457
2.01185
1.38604
-5.98955
-6.34054
-6.76497
-7.36121
-7.9371
-8.58984
-8.68944
-9.26774
2.08438
1.70983
1.92717
1.89179
1.95254
1.92842
1.90954
1.97522
2.08127
1.98854
1.36828
-6.20166
-6.52193
-6.90392
-7.35265
-7.7129
-8.01961
-7.60124
-9.76321
-0.574256
1.37665
2.62682
2.46436
2.49982
2.34724
2.17024
2.05272
1.99208
1.83329
1.25754
-6.39295
-6.68637
-7.03511
-7.40032
-7.78019
-8.01089
-8.15735
-7.65174
-0.301035
3.80197
3.30151
3.10792
2.94931
2.58451
2.22228
1.9379
1.73966
1.54828
1.03865
-6.56965
-6.84148
-7.16216
-7.48808
-7.91944
-8.23148
-8.51188
-7.98369
1.5751
4.46758
3.37357
3.50472
3.13424
2.55169
2.02244
1.61491
1.32267
1.12387
0.705804
-6.73735
-6.99315
-7.28935
-7.58658
-8.03682
-8.33204
-8.86072
-9.34669
-2.37979
-0.503038
2.89775
3.51384
2.92218
2.1952
1.55962
1.08804
0.750317
0.545408
0.269211
-6.89529
-7.14226
-7.42505
-7.71191
-8.14673
-8.16832
-8.64062
-4.81034
-5.29154
-2.55028
2.84041
3.08659
2.35072
1.49403
0.838438
0.370681
0.0447701
-0.14606
-0.303566
-7.03457
-7.27793
-7.56035
-7.87423
-8.44236
-8.69027
-8.51555
-7.41925
-10.4794
-8.99756
-0.936441
1.99683
1.34625
0.362585
-0.138804
-0.523091
-0.780095
-0.948897
-0.979895
-7.15101
-7.38622
-7.66277
-8.02891
-8.67951
-9.37731
-9.9226
-11.8659
-12.7157
-15.0703
-4.72527
-0.900946
-0.67189
-1.34545
-1.38585
-1.5834
-1.70351
-1.83434
-1.74544
-7.25285
-7.47382
-7.69926
-8.06269
-8.68783
-9.65937
-10.7842
-15.9961
-22.8387
-25.9961
-11.5855
-6.16001
-4.36917
-3.39389
-2.82371
-2.74228
-2.69492
-2.74559
-2.57274
-7.33884
-7.52549
-7.70868
-7.99273
-8.44711
-9.18509
-10.0903
-11.4694
-14.078
-25.1484
-15.4837
-10.506
-7.60442
-4.87019
-4.18794
-3.83656
-3.6776
-3.65711
-3.45322
-7.39793
-7.53626
-7.67896
-7.87107
-8.15873
-8.58831
-8.9234
-9.222
-12.932
-20.8304
-15.7747
-10.6614
-8.08874
-5.5741
-5.06212
-4.68529
-4.55542
-4.51026
-4.33082
-7.42704
-7.50213
-7.56767
-7.63868
-7.7444
-7.89728
-7.97269
-8.11319
-11.7657
-27.2694
-19.4819
-8.92105
-7.49996
-5.95219
-5.71627
-5.47969
-5.3963
-5.36418
-5.34241
)
;

boundaryField
{
    leftWall
    {
        type            calculated;
        value           nonuniform List<scalar> 
50
(
1182.35
1122.47
1061.56
999.739
937.141
873.927
810.21
746.141
645.524
508.113
372.184
241.403
126.055
47.738
1.20061
0.463913
0.281329
0.0985238
-0.0804296
-0.262741
-0.451062
-0.644746
-0.84321
-1.04564
-1.25127
-1.45948
-1.66977
-1.88167
-2.0948
-2.30883
-2.52355
-2.73879
-2.95442
-3.17022
-3.38594
-3.60132
-3.81615
-4.03028
-4.24347
-4.45548
-4.66614
-4.87535
-5.08269
-5.28734
-5.48904
-5.68893
-5.88773
-6.08341
-6.27575
-6.47372
)
;
    }
    rightWall
    {
        type            calculated;
        value           nonuniform List<scalar> 
50
(
246.808
246.75
246.691
246.631
246.57
246.508
246.444
246.377
246.269
246.102
245.898
245.632
245.259
244.704
243.825
242.36
239.82
235.294
227.399
213.979
192.529
161.03
119.79
77.8341
48.5395
32.8603
23.2696
16.3585
11.3565
7.35658
4.42706
2.71101
1.8592
1.45795
1.29988
1.28793
1.34102
1.38604
1.36828
1.25754
1.03865
0.705804
0.269211
-0.303566
-0.979895
-1.74544
-2.57274
-3.45322
-4.33082
-5.34241
)
;
    }
    lowerWall
    {
        type            calculated;
        value           nonuniform List<scalar> 
62
(
1211.78
1216.11
1224.23
1226.86
1222.96
1214.13
1203.59
1193.45
1184.63
1177.64
1173
1171.37
1173.61
1180.86
1194.84
1216.88
1247.63
1285.93
1325.78
1353.8
1350.24
1321.13
1372.96
1348.42
1284.34
1234.3
1201.51
1160.81
1091.33
981.295
823.373
158.89
241.729
306.757
256.267
246.177
246.111
246.034
245.947
245.845
245.709
245.56
245.476
246.207
246.178
246.174
246.209
246.233
246.264
246.311
246.37
246.435
246.503
246.569
246.629
246.683
246.728
246.765
246.794
246.816
246.83
246.838
)
;
    }
    atmosphere
    {
        type            calculated;
        value           nonuniform List<scalar> 
46
(
-6.5775
-6.58823
-6.59172
-6.59923
-6.60894
-6.62081
-6.63514
-6.65233
-6.67242
-6.69519
-6.72068
-6.74925
-6.78113
-6.81611
-6.85414
-6.8956
-6.94064
-6.98897
-7.04048
-7.09517
-7.15237
-7.21089
-7.26996
-7.31228
-7.33849
-7.3635
-7.38679
-7.42158
-7.4548
-7.45777
-7.42159
-7.36118
-7.36088
-7.34909
-6.61973
-8.56359
-47.3206
-27.7249
-7.10165
-7.89512
-5.72961
-5.72915
-5.72909
-5.72906
-5.72905
-5.72904
)
;
    }
    defaultFaces
    {
        type            empty;
    }
}


// ************************************************************************* //
