/*--------------------------------*- C++ -*----------------------------------*\
| =========                 |                                                 |
| \\      /  F ield         | OpenFOAM: The Open Source CFD Toolbox           |
|  \\    /   O peration     | Version:  2206                                  |
|   \\  /    A nd           | Website:  www.openfoam.com                      |
|    \\/     M anipulation  |                                                 |
\*---------------------------------------------------------------------------*/
FoamFile
{
    version     2.0;
    format      ascii;
    arch        "LSB;label=32;scalar=64";
    class       volScalarField;
    location    "0.15";
    object      alpha.water;
}
// * * * * * * * * * * * * * * * * * * * * * * * * * * * * * * * * * * * * * //

dimensions      [0 0 0 0 0 0 0];

internalField   nonuniform List<scalar> 
2268
(
1
1
1
1
1
1
0.999999
0.999999
0.999999
1
1
1
1
1
1
1
1
1
0.999985
0.999951
0.999949
0.964204
0.680998
1
1
1
1
1
0.999999
0.999999
0.999999
1
1
1
1
1
1
1
1
1
1
0.999998
0.999887
0.999946
0.999934
0.719505
1
1
1
1
1
1
1
1
1
1
1
1
1
1
1
1
1
1
1
0.99999
0.999976
0.999971
0.731913
1
1
1
1
1
1
1
1
1
1
1
1
1
1
1
1
1
1
1
1
0.999999
0.999995
0.776278
1
1
1
1
1
1
1
1
1
1
1
1
1
1
1
1
1
1
1
1
0.999953
0.999974
0.94412
1
1
1
1
1
1
1
1
1
1
1
1
1
1
1
1
1
1
1
0.998346
0.999573
0.99971
0.999668
1
1
1
1
1
1
1
1
1
1
1
1
1
1
1
1
1
0.999999
1
0.984955
0.987879
0.997748
0.994875
1
1
1
1
1
1
1
1
1
1
1
1
1
1
1
1
0.999995
0.999972
0.999955
0.925376
0.776381
0.949636
0.986994
3.23369e-17
9.72686e-18
1.96341e-18
1.62804e-19
6.47453e-21
2.49971e-22
1.26409e-23
6.85589e-25
3.32486e-26
1.37596e-27
4.87927e-29
1.48035e-30
3.79067e-32
8.02344e-34
1.35975e-35
1.75516e-37
1.58211e-39
7.40881e-42
3.5352e-42
6.18662e-16
7.86625e-16
2.65756e-16
2.61885e-17
9.06198e-19
2.53585e-20
9.9609e-22
4.52073e-23
1.97171e-24
7.67714e-26
2.61086e-27
7.64089e-29
1.88729e-30
3.82973e-32
6.12524e-34
7.21151e-36
5.43024e-38
1.67602e-40
3.53527e-42
1.85928e-14
3.345e-14
2.17627e-14
5.09194e-15
1.07255e-16
1.59761e-18
4.09368e-20
1.377e-21
4.96625e-23
1.72185e-24
5.41533e-26
1.49031e-27
3.47922e-29
6.64507e-31
9.81311e-33
1.00422e-34
6.96236e-37
2.56168e-39
8.26854e-41
1.69416e-13
1.21025e-12
3.5205e-12
5.21011e-13
5.94919e-15
6.19824e-17
1.2309e-18
3.22317e-20
9.44053e-22
2.82604e-23
8.0411e-25
2.05257e-26
4.48197e-28
7.89177e-30
1.12207e-31
1.26379e-33
9.65132e-36
3.25543e-38
1.83547e-39
4.89531e-12
5.53276e-11
9.48529e-11
5.18871e-12
6.71737e-14
9.35946e-16
2.12699e-17
5.34917e-19
1.38375e-20
3.62952e-22
9.23776e-24
2.15676e-25
4.46754e-27
8.1572e-29
1.23732e-30
1.41552e-32
1.05877e-34
2.73976e-37
2.8876e-38
1.48706e-10
1.05733e-09
2.40219e-10
9.01963e-12
2.7934e-13
7.36585e-15
2.08651e-16
5.56697e-18
1.39832e-19
3.45727e-21
8.26692e-23
1.90037e-24
4.06027e-26
7.53408e-28
1.13276e-29
1.27489e-31
9.30945e-34
2.67268e-36
3.47888e-37
8.55056e-10
1.79231e-09
3.04778e-10
6.51207e-12
9.05179e-13
5.58947e-14
1.48723e-15
4.25573e-17
1.12446e-18
2.68286e-20
6.34654e-22
1.47814e-23
3.16728e-25
5.83198e-27
8.67256e-29
9.6278e-31
6.89974e-33
2.2985e-35
3.34931e-36
7.22459e-10
7.16876e-10
1.89374e-11
2.06416e-12
1.74483e-12
3.20917e-13
7.99154e-15
2.7104e-16
9.77197e-18
2.61155e-19
5.94167e-21
1.23131e-22
2.31454e-24
3.8377e-26
5.35135e-28
5.74431e-30
4.02556e-32
1.39989e-34
2.70923e-35
1
1
1
1
1
1
1
1
1
1
1
1
1
1
1
0.999999
0.999948
0.999419
0.902435
0.512876
0.0955585
0.269148
0.943236
1
1
1
1
1
1
1
1
1
1
1
1
1
1
1
0.999979
0.999178
0.773749
0.188533
0.00494232
0.00490971
0.0123638
0.866647
1
1
1
1
1
1
1
1
1
1
1
1
1
1
0.999994
0.999696
0.745847
0.110854
0.00292544
0.000666887
0.00104476
0.00352693
0.486485
1
1
1
1
1
1
1
1
1
1
1
1
1
1
0.999919
0.863476
0.155149
0.00292116
0.000329907
8.1575e-05
0.000218847
0.00118872
0.0214156
1
1
1
1
1
1
1
1
1
1
1
1
1
0.999992
0.999187
0.304586
0.00334995
0.000329828
3.18634e-05
1.23801e-05
4.55496e-05
0.00021445
0.000954987
1
1
1
1
1
1
1
1
1
1
1
1
0.999998
0.999939
0.573198
0.0148002
0.000343833
2.83325e-05
4.39138e-06
2.04544e-06
1.08488e-05
4.53689e-05
0.00023753
1
1
1
1
1
1
1
1
1
1
0.999999
0.999998
0.999983
0.953856
0.154679
0.000839059
3.00514e-05
3.51398e-06
4.468e-07
3.52751e-07
2.29248e-06
2.50468e-05
6.14344e-05
1
1
1
1
1
1
1
0.999999
0.999999
0.999997
0.999992
0.999979
0.999834
0.440258
0.00185524
4.8728e-05
2.9588e-06
3.108e-07
5.29737e-08
5.71383e-08
4.69872e-07
6.75067e-06
1.59487e-05
1
0.999999
0.999999
0.999999
0.999999
0.999998
0.999997
0.999994
0.999988
0.999971
0.999932
0.999834
0.979544
0.12077
0.000219802
3.50584e-06
3.14327e-07
3.9516e-08
9.34445e-09
9.25841e-09
7.01519e-08
7.37693e-07
3.34271e-06
0.999995
0.999991
0.999991
0.999989
0.999985
0.999979
0.999967
0.999946
0.999892
0.999752
0.999456
0.998727
0.62305
0.0147911
8.10755e-06
3.40441e-07
3.67294e-08
7.69643e-09
4.52021e-09
2.35066e-09
9.36929e-09
6.55633e-08
4.23976e-07
0.999946
0.999908
0.999909
0.999888
0.99985
0.99979
0.999693
0.99951
0.999061
0.997943
0.993206
0.945409
0.323329
0.00237534
1.27975e-06
3.63578e-08
7.30329e-09
4.40965e-09
3.69887e-09
1.37428e-09
1.62911e-09
7.57379e-09
5.90418e-08
0.999393
0.999086
0.999067
0.998865
0.998527
0.997997
0.995345
0.977449
0.921529
0.786873
0.571851
0.301766
0.0735075
0.01429
3.02934e-05
8.0557e-07
1.11823e-08
2.38393e-09
3.3239e-09
1.23682e-09
6.1994e-10
1.06903e-09
7.91473e-09
0.90664
0.867069
0.856616
0.820842
0.765998
0.685736
0.574193
0.415277
0.25572
0.10492
0.00385177
9.39576e-07
3.15327e-06
0.0191235
0.00681736
1.10029e-05
2.73297e-07
-1.47109e-09
7.72416e-10
9.46374e-10
4.28205e-10
2.3767e-10
1.07088e-09
0.215562
0.166298
0.153708
0.120334
0.0812265
0.0408638
0.00358475
5.45839e-12
2.19759e-10
6.41896e-09
1.48397e-07
2.65928e-07
9.39577e-07
0.00973763
0.0109734
0.000809893
6.53937e-07
6.53652e-09
3.66079e-10
4.9284e-10
2.15018e-10
8.84085e-11
2.10941e-10
-7.15904e-20
-5.29688e-21
2.75868e-36
1.92354e-20
2.32529e-18
1.10507e-16
5.29411e-15
2.11028e-13
5.07463e-12
2.17697e-10
6.41896e-09
1.91069e-07
1.29118e-06
4.20363e-06
0.0108842
0.00211031
3.38222e-07
3.89499e-10
2.69021e-10
1.66124e-10
7.23904e-11
2.54491e-11
3.72835e-11
-2.08444e-19
-2.40833e-20
2.86768e-19
2.823e-17
9.90068e-16
4.07885e-14
1.61624e-12
1.81798e-12
4.00401e-11
1.24177e-09
4.15645e-07
1.11573e-06
4.17537e-06
6.41526e-06
0.00708702
0.00171464
5.11871e-08
1.07179e-10
1.46977e-11
1.93992e-11
1.8982e-11
4.97047e-12
9.46193e-12
-1.86142e-19
-9.40623e-20
1.94843e-18
2.49657e-16
1.24068e-14
5.45697e-13
1.65455e-11
2.89483e-10
8.87221e-09
1.03681e-07
7.19968e-06
0.00020588
0.000438712
0.000398806
0.00196007
0.000465332
6.7021e-09
1.84502e-11
2.36724e-12
1.11911e-12
4.26121e-12
8.13533e-13
1.48838e-12
-5.35786e-20
-3.50919e-19
2.69761e-18
4.49487e-16
2.65438e-14
1.07299e-12
2.55834e-11
5.00679e-10
1.66573e-08
2.53329e-07
1.05773e-05
0.000658232
0.00119295
0.00119416
0.000990097
1.24501e-07
9.79686e-10
-7.44646e-12
2.85119e-13
3.39677e-13
8.73449e-13
1.186e-13
1.46902e-13
-5.05458e-20
-1.22499e-18
0
3.36763e-16
2.24087e-14
3.45968e-13
3.06316e-12
8.16585e-11
3.17875e-09
8.77057e-08
2.22102e-06
0.000567449
0.00119381
0.00100749
3.44933e-05
1.56552e-08
-3.91791e-11
2.9662e-13
2.65379e-14
1.31231e-13
1.8644e-13
1.50496e-14
1.28903e-14
-1.49465e-19
-3.97193e-18
-3.29055e-18
1.00188e-16
8.94001e-15
2.0076e-13
1.46059e-11
3.83918e-10
1.42337e-09
1.01243e-10
3.8204e-07
1.12169e-09
2.9555e-05
6.94132e-05
1.46129e-07
1.52332e-09
-4.04708e-12
-9.47218e-13
1.61958e-14
5.84331e-14
5.77563e-14
1.61695e-15
1.01554e-15
-3.34011e-19
-1.09382e-17
-1.05071e-16
-3.14698e-33
-6.00767e-30
1.5269e-13
1.05473e-10
1.04846e-09
7.80359e-10
8.88234e-11
1.10249e-10
2.56573e-10
1.12184e-09
6.35154e-09
3.21528e-09
9.99055e-11
5.16726e-13
-3.30741e-14
1.43e-14
3.17817e-14
2.30561e-14
1.38024e-16
6.94142e-17
-5.15424e-19
-1.98952e-17
-3.38983e-16
-3.26057e-15
-1.85791e-14
-5.83064e-14
-6.31182e-14
2.23098e-29
6.47596e-14
2.20716e-12
1.26579e-11
5.42769e-10
1.29038e-08
2.00441e-08
2.3235e-11
4.58277e-12
3.3944e-14
7.66945e-16
7.72127e-15
1.37224e-14
6.5818e-15
8.26414e-18
4.14269e-18
-4.27836e-19
-1.63998e-17
-2.78475e-16
-2.67781e-15
-1.53638e-14
-4.84704e-14
-3.82247e-14
9.87011e-14
4.32427e-12
2.02239e-11
2.73684e-11
1.50295e-11
9.63941e-12
7.59176e-12
3.76417e-13
1.48351e-13
1.18413e-15
-7.55154e-19
-4.98899e-15
2.59014e-15
7.55914e-16
3.38231e-19
2.13432e-19
-1.60963e-19
-6.18305e-18
-1.055e-16
-1.01606e-15
-5.72929e-15
-1.58428e-14
5.17669e-17
9.74887e-14
4.88989e-12
3.20897e-11
6.26178e-11
6.88001e-11
3.20322e-11
7.31535e-12
4.10975e-13
2.82925e-16
0
-2.34218e-14
-1.6927e-14
1.18018e-16
2.16825e-17
1.06131e-20
9.48142e-21
-7.9282e-25
0
-1.72418e-37
-1.3352e-33
-1.16138e-30
-4.40441e-25
2.05669e-18
2.3321e-15
8.25036e-13
1.44333e-11
5.4749e-11
7.91533e-11
7.94763e-11
5.68904e-11
6.83977e-12
0
-1.76313e-14
-2.58964e-14
-1.56434e-14
7.41174e-19
7.42832e-20
2.9758e-22
3.66556e-22
5.13845e-45
2.53634e-29
2.80145e-27
1.95857e-25
1.01477e-23
4.14756e-22
1.3922e-20
3.9467e-19
3.38982e-16
2.75939e-14
3.15374e-13
1.07192e-12
1.65291e-12
6.90536e-13
1.17686e-13
-2.23097e-16
-7.52044e-15
-1.20747e-14
-7.41024e-15
2.79145e-21
7.22231e-23
5.83098e-24
1.14071e-23
5.17812e-35
1.17059e-32
1.31362e-30
7.33524e-29
2.94935e-27
6.69358e-26
5.46983e-25
-1.12472e-21
3.37886e-18
2.57643e-16
2.78553e-15
9.16389e-15
1.46435e-14
1.60261e-14
7.96708e-15
2.47257e-15
-6.31943e-16
-3.02353e-15
-2.04286e-15
-2.32934e-20
2.08087e-23
1.50192e-25
3.34429e-25
0
1.25572e-35
-5.07163e-33
-5.82886e-31
-4.4028e-29
-2.42238e-27
-9.91098e-25
6.05333e-25
5.27045e-23
5.57454e-20
4.46058e-18
6.18506e-17
2.38488e-16
3.95336e-16
4.22801e-16
1.01303e-16
-1.39339e-16
-4.35255e-16
-3.45716e-16
-2.02353e-20
2.50056e-25
3.4693e-27
8.6047e-27
-8.2479e-38
-1.51057e-36
-1.79491e-34
-1.44632e-32
-8.61336e-31
-4.03561e-29
1.16176e-29
4.38297e-28
3.13485e-26
6.87315e-23
1.21102e-20
2.7652e-19
1.37867e-18
2.33645e-18
1.60048e-18
-2.85046e-18
-1.28362e-17
-3.60629e-17
-3.67152e-17
-4.632e-21
1.45572e-27
1.06333e-28
2.18176e-28
-2.24377e-38
-2.08104e-37
5.07833e-44
1.25883e-38
9.26944e-37
5.4516e-35
2.67558e-33
1.13128e-31
5.68718e-30
2.79073e-26
1.33897e-23
3.73361e-22
1.27233e-21
-6.79475e-22
-2.06252e-20
-1.11984e-19
-4.54388e-19
-1.63605e-18
-2.44534e-18
-5.91802e-22
1.31541e-42
1.20756e-29
4.52254e-30
0
0
-5.07833e-44
-9.62177e-45
-1.99469e-42
-3.08827e-40
-2.9672e-38
-2.83464e-36
9.86438e-31
2.77302e-28
2.03824e-27
-1.09806e-25
-2.88068e-24
-3.35593e-23
-2.56092e-22
-1.51462e-21
-7.73944e-21
-3.66114e-20
-9.97189e-20
-4.76901e-23
2.8027e-29
5.58556e-31
8.84339e-32
-5.03038e-45
-1.11247e-42
-1.22939e-40
-8.98735e-39
-4.8535e-37
-2.05111e-35
-7.01807e-34
-1.98523e-32
-4.69787e-31
-9.34024e-30
-1.55577e-28
-2.15118e-27
-2.44307e-26
-2.27601e-25
-1.77766e-24
-1.21067e-23
-7.47536e-23
-4.29776e-22
-2.34074e-21
-2.51982e-24
2.28438e-30
2.25012e-32
1.93773e-33
-1.15143e-45
-1.87217e-43
-1.47628e-41
-7.5341e-40
-2.79821e-38
-8.06467e-37
-1.87865e-35
-3.63979e-34
-5.99359e-33
-8.53641e-32
-1.06744e-30
-1.18776e-29
-1.19089e-28
-1.08888e-27
-9.18661e-27
-7.23783e-26
-5.39683e-25
-3.87289e-24
-2.73608e-23
-8.79653e-26
3.23617e-32
6.99827e-34
4.72775e-35
-1.00374e-49
-1.99157e-47
-1.91109e-45
-1.18503e-43
-5.33934e-42
-1.86358e-40
-5.24607e-39
-1.22488e-37
-2.42211e-36
-4.12459e-35
-6.13615e-34
-8.08385e-33
-9.56541e-32
-1.03358e-30
-1.04169e-29
-1.00715e-28
-9.68037e-28
-9.6069e-27
-1.01095e-25
-2.0027e-27
5.4327e-34
1.59832e-35
1.25661e-36
-2.00037e-61
-1.02957e-59
0
0
0
0
-2.70567e-58
-7.00685e-56
-9.78876e-54
3.68249e-45
5.20571e-43
3.87337e-40
1.29883e-37
1.10407e-36
-4.84221e-35
-1.4137e-33
-2.1071e-32
-2.48312e-31
-2.70525e-30
-2.86927e-29
6.90754e-36
3.46767e-37
3.5884e-38
-4.02373e-60
-1.23736e-57
-1.84758e-55
-1.79359e-53
-1.27474e-51
-7.07879e-50
-3.2006e-48
-1.21238e-46
-3.9297e-45
-1.108e-43
-2.75445e-42
-6.10778e-41
-1.221e-39
-2.22389e-38
-3.73219e-37
-5.84506e-36
-8.66817e-35
-1.23732e-33
-1.73029e-32
-2.4147e-31
8.50364e-38
7.19061e-39
9.72403e-40
-1.23921e-64
-4.84339e-62
-9.20318e-60
-1.13869e-57
-1.03339e-55
-7.34217e-54
-4.25579e-52
-2.07048e-50
-8.63275e-49
-3.13454e-47
-1.00407e-45
-2.86898e-44
-7.38827e-43
-1.73341e-41
-3.75249e-40
-7.61666e-39
-1.47891e-37
-2.81078e-36
-5.3497e-35
-1.03945e-33
9.54201e-40
1.34133e-40
2.37826e-41
-1.17699e-71
-6.99566e-69
-2.03632e-66
-3.89723e-64
-5.53254e-62
-6.22446e-60
-5.78861e-58
-4.58161e-56
-3.15309e-54
-1.91786e-52
-1.04425e-50
-5.14216e-49
-2.30971e-47
-9.53849e-46
-3.6535e-44
-1.31306e-42
-4.49997e-41
-1.49938e-39
-4.94132e-38
-1.6268e-36
7.73741e-42
2.27812e-42
5.39909e-43
-1.77736e-82
-1.8809e-79
-9.78915e-77
-3.39827e-74
-8.91407e-72
-1.89333e-69
-3.40615e-67
-5.36114e-65
-7.56971e-63
-9.78575e-61
-1.17854e-58
-1.34261e-56
-1.46677e-54
-1.55605e-52
-1.62245e-50
-1.68069e-48
-1.75563e-46
-2.08021e-44
-2.30075e-42
-2.1967e-40
5.70825e-44
3.57081e-44
1.14982e-44
0
0
1.3412e-98
-3.7995e-90
-5.96815e-87
-4.36437e-84
-2.09512e-81
-7.51696e-79
-2.16227e-76
-5.21582e-74
-1.08914e-71
-2.01675e-69
-3.37563e-67
-5.18825e-65
2.9229e-59
6.02183e-55
6.56147e-51
5.16313e-48
2.04853e-46
8.05977e-46
5.53392e-46
5.03798e-46
2.33879e-46
2.97329e-110
3.62236e-106
-8.8325e-97
-2.43424e-93
-3.05903e-90
-2.50804e-87
-1.53283e-84
-7.49792e-82
-3.07062e-79
-1.08666e-76
-3.40323e-74
-9.61014e-72
-2.48216e-69
-5.91544e-67
-1.29018e-64
-2.06088e-62
7.00928e-57
5.40917e-52
1.5349e-49
2.52278e-48
5.84199e-48
9.09964e-48
5.3166e-48
-5.41706e-126
-3.80508e-110
-3.81829e-106
-1.52081e-102
-3.89918e-99
-7.47858e-96
-1.1472e-92
-1.47282e-89
-1.63335e-86
-1.60191e-83
-1.41549e-80
-1.14407e-77
-8.56823e-75
-6.00845e-72
-3.97387e-69
-2.16938e-66
-1.20268e-64
3.39783e-60
1.99909e-54
1.54219e-51
7.95392e-50
1.39841e-48
1.8226e-48
0.355107
9.15366e-10
8.72714e-10
8.11562e-10
0.482467
0.014608
9.15393e-10
3.29172e-07
0.474832
0.0982369
3.88305e-08
2.56965e-07
0.345058
0.208538
0.0021925
3.18506e-07
0.0574658
0.182317
0.0588292
0.000661952
0.00402713
0.0507017
0.065619
0.0388716
0.000956441
0.00282867
0.0246006
0.0363312
0.000195422
0.000587099
0.00107929
0.00191396
3.33245e-05
9.71966e-05
0.000137055
0.000115971
4.79466e-06
1.35188e-05
1.86983e-05
1.56445e-05
6.17635e-07
1.66719e-06
2.25955e-06
1.86782e-06
7.33572e-08
1.88641e-07
2.49609e-07
2.0303e-07
8.08984e-09
1.99874e-08
2.56996e-08
2.04649e-08
8.52234e-10
2.01274e-09
2.49886e-09
1.93747e-09
1.07749e-10
1.98372e-10
2.31102e-10
1.74873e-10
1.36695e-11
2.36759e-11
2.56757e-11
1.88648e-11
2.98976e-12
3.94548e-12
3.59814e-12
2.68894e-12
3.56747e-13
4.56029e-13
4.09042e-13
2.63368e-13
2.81484e-14
3.39473e-14
2.94612e-14
1.65341e-14
2.05249e-15
2.21488e-15
1.76832e-15
9.05012e-16
1.31682e-16
1.32559e-16
9.65775e-17
4.54043e-17
7.39219e-18
7.04147e-18
4.69585e-18
2.04328e-18
3.62779e-19
3.30622e-19
2.02933e-19
8.22903e-20
1.55645e-20
1.37204e-20
7.79997e-21
2.96625e-21
5.85094e-22
5.03657e-22
2.67243e-22
9.58757e-23
1.92936e-23
1.63928e-23
8.18938e-24
2.78433e-24
5.61265e-25
4.73629e-25
2.26277e-25
7.94984e-26
1.44399e-26
1.218e-26
5.66225e-27
2.11122e-27
3.29942e-28
2.79703e-28
1.29129e-28
5.04608e-29
6.74028e-30
5.75927e-30
2.70545e-30
1.08831e-30
1.24541e-31
1.06747e-31
5.25356e-32
2.1287e-32
2.1095e-33
1.80033e-33
9.55223e-34
3.80823e-34
3.39916e-35
2.83204e-35
1.65446e-35
6.75084e-36
5.61091e-37
4.39164e-37
2.80956e-37
1.28819e-37
1.05984e-38
7.43742e-39
4.93163e-39
2.5505e-39
2.40176e-40
1.53965e-40
9.56054e-41
5.61115e-41
6.18746e-42
3.74656e-42
2.21858e-42
1.44187e-42
1.6049e-43
9.84054e-44
6.10005e-44
4.34608e-44
4.07389e-45
2.68471e-45
1.81754e-45
1.44839e-45
1.12489e-46
8.2229e-47
5.6663e-47
4.75686e-47
2.93345e-48
2.28782e-48
1.61009e-48
1.35418e-48
1.21102e-48
7.58619e-49
4.6791e-49
2.5188e-49
7.59822e-10
8.249e-10
1.17882e-10
4.30466e-12
1.0093e-12
9.35239e-13
5.57324e-14
1.84535e-15
6.37423e-17
2.19234e-18
6.74809e-20
1.78772e-21
3.99945e-23
7.36005e-25
1.06722e-26
1.12755e-28
7.335e-31
1.75516e-33
2.38245e-34
5.66902e-07
1.4452e-09
4.62884e-09
7.85427e-11
1.44613e-12
2.15346e-13
1.95675e-13
5.26795e-15
1.15368e-16
3.75385e-18
1.20183e-19
3.31187e-21
7.76011e-23
1.5198e-24
2.39073e-26
2.82763e-28
2.25006e-30
9.60861e-33
1.14531e-33
4.31155e-07
1.62902e-06
9.47163e-07
1.50637e-09
3.03477e-11
1.13406e-12
7.39063e-13
5.63306e-14
4.63125e-16
4.4896e-18
1.22527e-19
3.43677e-21
8.01152e-23
1.56986e-24
2.54193e-26
3.25755e-28
3.09117e-30
1.87309e-32
7.65896e-34
4.71379e-07
3.14771e-05
1.97129e-05
1.38769e-06
5.62286e-10
2.67724e-11
1.08927e-12
4.84671e-13
2.19426e-14
1.79708e-16
1.45702e-18
1.289e-20
1.23301e-22
1.43945e-24
1.92217e-26
2.42232e-28
2.3683e-30
1.47739e-32
4.9181e-34
5.80153e-05
3.90799e-05
4.2688e-05
5.808e-06
9.19582e-09
2.87844e-10
7.34686e-12
3.12058e-13
1.73188e-13
4.77216e-15
3.26318e-17
2.52558e-19
1.7328e-21
9.27043e-24
3.51117e-26
9.41541e-29
4.64093e-31
3.83195e-33
4.9181e-34
0.00384465
8.3136e-05
1.71422e-05
1.29298e-06
5.59459e-08
2.21426e-09
7.35719e-11
3.89278e-12
2.0683e-13
1.52087e-14
2.62225e-16
2.42887e-18
2.02597e-20
1.33029e-22
6.28029e-25
1.80156e-27
1.3293e-30
1.75278e-33
5.00313e-34
0.00965622
0.000243582
2.57892e-05
2.25508e-06
1.39361e-07
6.3775e-09
2.25509e-10
9.53792e-12
2.55965e-13
2.19321e-14
4.29859e-16
4.88961e-18
4.83683e-20
3.81473e-22
2.32084e-24
1.02817e-26
2.97054e-29
4.14879e-32
1.73862e-33
0.00276885
0.000600496
8.5054e-06
7.35038e-07
4.72223e-08
2.33174e-09
9.01906e-11
3.63894e-12
1.59789e-13
7.89804e-15
1.54751e-16
2.29595e-18
2.81699e-20
2.73379e-22
2.05702e-24
1.16281e-26
4.64554e-29
1.1398e-31
1.59634e-33
4.38346e-05
2.88983e-05
1.66051e-06
7.84561e-08
4.86311e-09
2.40124e-10
1.20633e-11
5.93281e-13
4.6379e-14
1.23495e-15
2.32268e-17
3.85677e-19
5.27529e-21
5.84788e-23
5.14204e-25
3.45608e-27
1.66835e-29
5.17174e-32
3.09926e-34
5.61804e-06
1.10969e-06
1.41233e-07
9.75011e-09
6.03844e-10
3.65035e-11
2.14098e-12
2.12028e-13
7.27941e-15
1.59651e-16
3.11528e-18
5.06855e-20
6.79856e-22
7.42189e-24
6.45613e-26
4.3233e-28
2.10047e-30
6.58349e-33
4.5352e-35
6.43995e-07
1.22078e-07
1.54171e-08
1.13135e-09
8.15608e-11
5.89683e-12
7.17812e-13
3.23866e-14
8.64528e-16
2.07001e-17
4.15527e-19
6.9281e-21
9.5238e-23
1.06544e-24
9.49643e-27
6.51538e-29
3.24426e-31
1.04332e-33
5.38056e-36
6.73319e-08
1.2274e-08
1.5663e-09
1.41378e-10
1.18006e-11
1.688e-12
9.66101e-14
3.12706e-15
9.07421e-17
2.21687e-18
4.52337e-20
7.68487e-22
1.07899e-23
1.23573e-25
1.13021e-27
7.97668e-30
4.09712e-32
1.36575e-34
5.14869e-37
6.51842e-09
1.14302e-09
1.64295e-10
1.74578e-11
2.85448e-12
2.02814e-13
7.97786e-15
2.78396e-16
8.17115e-18
2.00579e-19
4.12138e-21
7.06751e-23
1.00403e-24
1.16636e-26
1.08483e-28
7.80675e-31
4.10031e-33
1.40345e-35
4.0804e-38
5.91231e-10
1.15014e-10
1.77003e-11
3.47901e-12
3.08292e-13
1.48704e-14
6.23616e-16
2.1866e-17
6.39494e-19
1.56734e-20
3.2225e-22
5.54188e-24
7.91382e-26
9.26321e-28
8.70243e-30
6.34168e-32
3.38204e-34
1.17963e-36
2.74398e-39
6.13236e-11
1.21153e-11
3.08055e-12
3.43531e-13
2.06427e-14
1.04611e-15
4.37959e-17
1.51909e-18
4.40432e-20
1.07258e-21
2.1961e-23
3.76969e-25
5.3856e-27
6.32174e-29
5.97022e-31
4.38441e-33
2.36262e-35
8.35458e-38
1.60225e-40
6.28957e-12
1.99381e-12
2.82638e-13
2.15879e-14
1.33524e-15
6.7001e-17
2.75535e-18
9.41325e-20
2.69526e-21
6.49797e-23
1.32028e-24
2.25427e-26
3.21106e-28
3.76701e-30
3.56405e-32
2.62873e-34
1.42656e-36
5.09731e-39
8.80698e-42
9.52424e-13
1.70022e-13
1.69705e-14
1.30529e-15
7.9216e-17
3.87715e-18
1.5608e-19
5.23686e-21
1.47682e-22
3.51595e-24
7.07216e-26
1.19831e-27
1.69795e-29
1.9862e-31
1.87837e-33
1.38841e-35
7.57332e-38
2.73037e-40
4.77897e-43
7.51261e-14
9.84108e-15
9.69559e-16
7.24955e-17
4.26409e-18
2.03156e-19
7.99236e-21
2.62929e-22
7.29183e-24
1.71191e-25
3.40424e-27
5.71652e-29
8.04693e-31
9.37386e-33
8.85032e-35
6.54952e-37
3.58959e-39
1.30721e-41
2.33308e-44
4.34394e-15
5.53402e-16
5.11999e-17
3.65635e-18
2.08195e-19
9.6561e-21
3.71121e-22
1.19671e-23
3.26271e-25
7.55083e-27
1.4838e-28
2.46829e-30
3.45028e-32
4.00104e-34
3.77081e-36
2.79504e-38
1.54203e-40
5.70102e-43
1.0464e-45
2.45546e-16
2.95763e-17
2.53321e-18
1.69627e-19
9.2424e-21
4.16881e-22
1.56734e-23
4.95753e-25
1.32974e-26
3.03511e-28
5.89704e-30
9.72213e-32
1.35012e-33
1.55952e-35
1.46885e-37
1.09327e-39
6.10579e-42
2.31991e-44
4.48243e-47
1.27247e-17
1.4625e-18
1.19096e-19
7.45998e-21
3.81002e-22
1.64764e-23
6.0444e-25
1.87857e-26
4.96354e-28
1.11868e-29
2.15145e-31
3.51919e-33
4.86148e-35
5.60417e-37
5.29193e-39
3.97969e-41
2.27848e-43
9.11997e-46
1.92963e-48
6.00615e-19
6.65031e-20
5.21984e-21
3.13172e-22
1.51504e-23
6.1301e-25
2.16363e-26
6.55272e-28
1.70669e-29
3.80653e-31
7.25829e-33
1.18007e-34
1.62527e-36
1.87648e-38
1.78842e-40
1.37679e-42
8.28298e-45
3.64108e-47
8.84187e-50
2.57434e-20
2.77668e-21
2.12221e-22
1.23446e-23
5.76092e-25
2.23581e-26
7.45221e-28
2.15573e-29
5.46775e-31
1.20357e-32
2.28094e-34
3.69779e-36
5.10025e-38
5.94039e-40
5.79129e-42
4.68085e-44
3.08523e-46
1.5669e-48
4.48479e-51
1.00005e-21
1.06257e-22
7.99756e-24
4.55422e-25
2.07093e-26
7.80713e-28
2.51568e-29
6.98268e-31
1.68707e-32
3.61769e-34
6.7567e-36
1.09487e-37
1.52527e-39
1.82061e-41
1.86589e-43
1.65507e-45
1.26075e-47
7.63415e-50
2.53633e-52
3.5182e-23
3.72386e-24
2.79123e-25
1.572e-26
7.02876e-28
2.59459e-29
8.16766e-31
2.21006e-32
5.20108e-34
1.0785e-35
1.95557e-37
3.16129e-39
4.48631e-41
5.64858e-43
6.39064e-45
6.59013e-47
5.99741e-49
4.25805e-51
1.56937e-53
1.12144e-24
1.19562e-25
9.02306e-27
5.07616e-28
2.25222e-29
8.21013e-31
2.54401e-32
6.76889e-34
1.56854e-35
3.21114e-37
5.79719e-39
9.43474e-41
1.39341e-42
1.93518e-44
2.5481e-46
3.13688e-48
3.3306e-50
2.62981e-52
1.0271e-54
3.24253e-26
3.52248e-27
2.70487e-28
1.53472e-29
6.8174e-31
2.47501e-32
7.61267e-34
2.00936e-35
4.63389e-37
9.52576e-39
1.75947e-40
3.02627e-42
4.96141e-44
7.98317e-46
1.23882e-47
1.75633e-49
2.05001e-51
1.7134e-53
6.87725e-56
8.53794e-28
9.55071e-29
7.53697e-30
4.35287e-31
1.95278e-32
7.12173e-34
2.19485e-35
5.81366e-37
1.3566e-38
2.87363e-40
5.65731e-42
1.08813e-43
2.08416e-45
3.94334e-47
6.97169e-49
1.07676e-50
1.31877e-52
1.13438e-54
4.6034e-57
2.05864e-29
2.39366e-30
1.95922e-31
1.16194e-32
5.31076e-34
1.96432e-35
6.13822e-37
1.65956e-38
4.02657e-40
9.16832e-42
2.03246e-43
4.57727e-45
1.02951e-46
2.20507e-48
4.21864e-50
6.81629e-52
8.55546e-54
7.47749e-56
3.0453e-58
4.57784e-31
5.57903e-32
4.77625e-33
2.93407e-34
1.37945e-35
5.23794e-37
1.68901e-38
4.79219e-40
1.26253e-41
3.26355e-43
8.50267e-45
2.24463e-46
5.69739e-48
1.31524e-49
2.62475e-51
4.3416e-53
5.52262e-55
4.87532e-57
1.98665e-59
9.47627e-33
1.2193e-33
1.10034e-34
7.06779e-36
3.46016e-37
1.37355e-38
4.70373e-40
1.46301e-41
4.4197e-43
1.34965e-44
4.12112e-46
1.22465e-47
3.34526e-49
8.04602e-51
1.64277e-52
2.75374e-54
3.53243e-56
3.14113e-58
1.27882e-60
1.8494e-34
2.52867e-35
2.42509e-36
1.64877e-37
8.56299e-39
3.66138e-40
1.39228e-41
5.00576e-43
1.79875e-44
6.44464e-46
2.21181e-47
7.06566e-49
2.01108e-50
4.95018e-52
1.02468e-53
1.73304e-55
2.23728e-57
2.00089e-59
8.12995e-62
3.468e-36
5.07234e-37
5.22737e-38
3.83369e-39
2.17744e-40
1.04904e-41
4.66137e-43
1.99901e-44
8.44358e-46
3.39734e-47
1.2526e-48
4.17083e-50
1.21607e-51
3.03763e-53
6.3499e-55
1.08164e-56
1.40384e-58
1.2612e-60
5.10929e-63
6.462e-38
1.01899e-38
1.14932e-39
9.36673e-41
6.07189e-42
3.4512e-43
1.83419e-44
9.21365e-46
4.36686e-47
1.88688e-48
7.25576e-50
2.47786e-51
7.34186e-53
1.85439e-54
3.90853e-56
6.69977e-58
8.73551e-60
7.87452e-62
3.1776e-64
1.26983e-39
2.18608e-40
2.76641e-41
2.59362e-42
1.98546e-43
1.34549e-44
8.3276e-46
4.67007e-47
2.37606e-48
1.07171e-49
4.23301e-51
1.47152e-52
4.41595e-54
1.12623e-55
2.39171e-57
4.12306e-59
5.39686e-61
4.8761e-63
1.9582e-65
2.88455e-41
5.46692e-42
7.88295e-43
8.61679e-44
7.73565e-45
6.03101e-46
4.13923e-47
2.48574e-48
1.32169e-49
6.1349e-51
2.47167e-52
8.71931e-54
2.64676e-55
6.81174e-57
1.45677e-58
2.52421e-60
3.31473e-62
2.99865e-64
1.19744e-66
8.09105e-43
1.67061e-43
2.71797e-44
3.38799e-45
3.42755e-46
2.93532e-47
2.15207e-48
1.35162e-49
7.41373e-51
3.51917e-52
1.44218e-53
5.15707e-55
1.58265e-56
4.10855e-58
8.84438e-60
1.53952e-61
2.02688e-63
1.83413e-65
7.27714e-68
2.65318e-44
5.9764e-45
1.07514e-45
1.47979e-46
1.62703e-47
1.4853e-48
1.14096e-49
7.41387e-51
4.17207e-52
2.02041e-53
8.41422e-55
3.04861e-56
9.45534e-58
2.47494e-59
5.36023e-61
9.36803e-63
1.23579e-64
1.11756e-66
4.40246e-69
9.20044e-46
2.31679e-46
4.55755e-47
6.79096e-48
7.96241e-49
7.64271e-50
6.10144e-51
4.08444e-52
2.35359e-53
1.16198e-54
4.91611e-56
1.80418e-57
5.65315e-59
1.49133e-60
3.24802e-62
5.69632e-64
7.52458e-66
6.79474e-68
2.65697e-70
3.21e-47
9.22859e-48
1.98491e-48
3.18152e-49
3.94962e-50
3.9656e-51
3.28053e-52
2.2593e-53
1.3324e-54
6.70459e-56
2.88083e-57
1.07049e-58
3.38718e-60
9.00127e-62
1.97037e-63
3.46575e-65
4.58174e-67
4.12804e-69
1.60326e-71
1.06906e-48
3.58722e-49
8.53795e-50
1.47989e-50
1.96532e-51
2.07622e-52
1.78728e-53
1.27e-54
7.67801e-56
3.93829e-57
1.71849e-58
6.46453e-60
2.06495e-61
5.5259e-63
1.21526e-64
2.14287e-66
2.83379e-68
2.54562e-70
4.33296e-73
8.01166e-50
1.82394e-50
3.31361e-51
4.90428e-52
6.038e-53
6.16054e-54
5.24787e-55
3.74354e-56
2.28998e-57
1.19808e-58
5.31077e-60
2.02266e-61
6.52226e-63
1.75734e-64
3.88189e-66
6.85994e-68
9.07167e-70
8.12332e-72
3.34464e-73
)
;

boundaryField
{
    leftWall
    {
        type            zeroGradient;
    }
    rightWall
    {
        type            zeroGradient;
    }
    lowerWall
    {
        type            zeroGradient;
    }
    atmosphere
    {
        type            inletOutlet;
        inletValue      uniform 0;
        value           nonuniform List<scalar> 
46
(
0
0
0
0
0
0
0
0
0
0
0
0
0
0
0
0
0
0
0
0
7.95392e-50
1.39841e-48
1.8226e-48
1.21102e-48
7.58619e-49
4.6791e-49
2.5188e-49
8.01166e-50
1.82394e-50
3.31361e-51
4.90428e-52
6.038e-53
6.16054e-54
5.24787e-55
3.74354e-56
2.28998e-57
1.19808e-58
5.31077e-60
2.02266e-61
6.52226e-63
1.75734e-64
3.88189e-66
6.85994e-68
9.07167e-70
8.12332e-72
3.34464e-73
)
;
    }
    defaultFaces
    {
        type            empty;
    }
}


// ************************************************************************* //
