/*--------------------------------*- C++ -*----------------------------------*\
| =========                 |                                                 |
| \\      /  F ield         | OpenFOAM: The Open Source CFD Toolbox           |
|  \\    /   O peration     | Version:  2206                                  |
|   \\  /    A nd           | Website:  www.openfoam.com                      |
|    \\/     M anipulation  |                                                 |
\*---------------------------------------------------------------------------*/
FoamFile
{
    version     2.0;
    format      ascii;
    arch        "LSB;label=32;scalar=64";
    class       volScalarField;
    location    "0.15";
    object      p_rgh;
}
// * * * * * * * * * * * * * * * * * * * * * * * * * * * * * * * * * * * * * //

dimensions      [1 -1 -2 0 0 0 0];

internalField   nonuniform List<scalar> 
2268
(
2523.25
2527.33
2522.4
2511.09
2495.85
2476.97
2453.81
2425.93
2393.1
2355.3
2313.04
2267.6
2221.64
2180.02
2151.21
2149.2
2195.99
2327.35
2569.52
2946.37
3413.32
3821.07
4087.77
2521.96
2525.98
2520.96
2509.63
2494.39
2475.44
2452.16
2424.11
2391.03
2352.85
2310.03
2263.78
2216.62
2173.21
2141.71
2135.51
2175.12
2285.83
2507.09
2864.15
3347.05
3821.32
4167.31
2519.38
2523.28
2518.08
2506.72
2491.45
2472.38
2448.87
2420.49
2386.9
2347.97
2304.05
2256.18
2206.63
2159.64
2122.79
2108.46
2135.7
2230.89
2430.1
2758.01
3223.51
3756.17
4216.48
2515.53
2519.25
2513.81
2502.38
2487.06
2467.81
2443.98
2415.1
2380.76
2340.72
2295.18
2244.92
2191.81
2139.53
2094.77
2068.55
2078.22
2149.73
2319.47
2618.48
3063.41
3622.37
4190.09
2510.44
2513.93
2508.2
2496.68
2481.28
2461.79
2437.54
2408.01
2372.69
2331.22
2283.56
2230.19
2172.41
2113.2
2058.09
2016.23
2002.47
2040.88
2168.51
2424.12
2841.45
3410.36
4086.58
2504.13
2507.36
2501.3
2489.66
2474.15
2454.37
2429.62
2399.3
2362.81
2319.59
2269.37
2212.21
2148.77
2081.12
2013.38
1952.22
1909.02
1904.06
1972.5
2154.4
2512.68
3081.56
3820.99
2496.65
2499.55
2493.12
2481.32
2465.68
2445.58
2420.24
2389.02
2351.16
2305.94
2252.77
2191.25
2121.3
2043.94
1961.51
1877.68
1799.42
1740.76
1728.04
1784.88
2003.98
2545.88
3305.67
2488.07
2490.49
2483.65
2471.69
2455.9
2435.43
2409.45
2377.2
2337.83
2290.38
2233.95
2167.59
2090.47
2002.4
1903.67
1794.62
1676.48
1551.64
1426.22
1278.99
1196.78
1744.83
2464
-1.97853
-1.99306
-1.99123
-1.95905
-1.90141
-1.82603
-1.7422
-1.65681
-1.57456
-1.49838
-1.42977
-1.36943
-1.31748
-1.27382
-1.23834
-1.21038
-1.18955
-1.17571
-1.1689
-1.98024
-1.99815
-1.99752
-1.96426
-1.90498
-1.82805
-1.74294
-1.65662
-1.57377
-1.49723
-1.42842
-1.368
-1.31604
-1.27236
-1.237
-1.2091
-1.18827
-1.17443
-1.16759
-1.98721
-2.00856
-2.0095
-1.97441
-1.91215
-1.83206
-1.74435
-1.65618
-1.5721
-1.49485
-1.42567
-1.3651
-1.31314
-1.26954
-1.2343
-1.20649
-1.18572
-1.17197
-1.16512
-2.00004
-2.02574
-2.02877
-1.99024
-1.92307
-1.83802
-1.74635
-1.65536
-1.56947
-1.49117
-1.42147
-1.36071
-1.30878
-1.26528
-1.2303
-1.20252
-1.18187
-1.16819
-1.16139
-2.02336
-2.05251
-2.05731
-2.01249
-1.93791
-1.84588
-1.74877
-1.654
-1.56576
-1.48613
-1.41577
-1.35478
-1.30291
-1.25966
-1.22491
-1.19723
-1.17673
-1.16316
-1.15643
-2.06465
-2.09304
-2.09769
-2.04212
-1.95687
-1.85546
-1.75135
-1.6519
-1.5608
-1.47959
-1.40849
-1.34727
-1.29556
-1.25277
-1.21801
-1.19061
-1.17031
-1.15689
-1.15024
-2.14674
-2.15535
-2.14824
-2.07996
-1.98014
-1.86656
-1.75382
-1.64877
-1.55436
-1.47142
-1.39953
-1.33812
-1.28687
-1.24427
-1.20973
-1.1827
-1.16263
-1.1494
-1.14284
-2.28763
-2.24613
-2.22155
-2.12714
-2.00785
-1.879
-1.75586
-1.64434
-1.54624
-1.4615
-1.38884
-1.32728
-1.27673
-1.23422
-1.20008
-1.17354
-1.15372
-1.1407
-1.13426
2473.05
2474.48
2467.15
2454.9
2438.77
2417.67
2390.57
2356.59
2314.63
2263.38
2201.39
2126.82
2037.47
1931.16
1805.21
1654.9
1467.27
1213.5
834.99
413.077
268.17
513.422
893.481
2448.35
2448.59
2440.5
2427.86
2411.18
2389.04
2360.26
2323.72
2277.92
2221
2150.73
2063.88
1956.22
1823.5
1660.53
1451.58
1163.55
686.348
156.057
27.7452
43.3154
89.7447
677.726
2420.2
2419.14
2410.3
2397.34
2380.11
2356.94
2326.54
2287.55
2238.06
2175.72
2097.53
1998.67
1873.45
1718.11
1522.36
1251.23
734.494
103.507
4.74449
3.39579
5.77922
16.2965
431.241
2389.4
2387.03
2377.57
2364.4
2346.7
2322.65
2290.91
2249.89
2197.3
2130.42
2045.4
1935.68
1796.39
1624.49
1393.55
963.972
158.671
3.51739
-0.413864
-0.644527
-0.250972
1.67034
26.84
2356.8
2353.17
2343.32
2330.06
2312.04
2287.4
2254.8
2212.43
2157.74
2087.81
1997.47
1879.31
1731.6
1541.83
1270.87
340.869
5.15543
-0.240465
-0.813931
-0.851461
-0.721203
-0.442784
1.32231
2323.25
2318.53
2308.53
2295.34
2277.21
2252.37
2219.54
2176.72
2121.32
2050.26
1956.62
1834.79
1683.34
1468.49
719.095
20.3158
0.375529
-0.468897
-0.541633
-0.509629
-0.31598
0.036914
0.475499
2289.58
2283.94
2274.08
2261.1
2243.11
2218.53
2186.17
2143.91
2089.48
2019.29
1925.5
1807.28
1651.75
1361.89
205.691
1.51415
-0.21977
-0.262794
-0.248032
-0.165182
0.0380003
0.443749
0.637241
2256.45
2250.04
2240.61
2227.99
2210.44
2186.62
2155.47
2114.89
2063.18
1995.85
1906.63
1797.98
1634.09
642.467
3.82401
0.0610936
-0.10606
-0.0693349
-0.0155226
0.100088
0.287232
0.59449
0.822177
2224.61
2217.65
2208.89
2196.76
2179.95
2157.33
2127.99
2090.05
2042.41
1979.8
1899.89
1800.17
1606.03
188.812
0.912264
0.0928512
0.133862
0.118262
0.16653
0.267601
0.433991
0.678829
0.973978
2194.96
2187.55
2179.61
2168
2152.08
2130.85
2103.53
2068.46
2025.26
1969.25
1900.86
1806.96
1051.87
25.4176
0.547046
0.430766
0.32575
0.262722
0.276417
0.341775
0.472009
0.652986
0.900475
2167.22
2159.26
2152.23
2141.08
2126.19
2106.55
2081.52
2049.04
2009.96
1961.17
1901.56
1745.21
577.487
5.02297
0.931564
0.748786
0.4545
0.329973
0.300297
0.337975
0.435259
0.570228
0.730081
2140.22
2130.89
2125.03
2114.18
2100.02
2081.69
2055.77
1992.93
1854.89
1567.18
1137.34
592.853
143.25
28.5728
1.27858
0.827363
0.430756
0.275549
0.237183
0.268914
0.349372
0.455257
0.566866
1935.9
1846.81
1822.39
1742.26
1621.5
1447.52
1210.27
869.987
534.893
217.812
6.67166
-1.33273
-1.12025
38.8687
14.428
0.473144
0.112046
0.0654704
0.0860798
0.145588
0.235164
0.330566
0.417875
478.571
369.13
341.109
266.916
179.921
90.0093
7.29974
-0.809531
-1.10581
-1.41934
-1.52228
-1.57753
-1.51454
19.5234
22.534
1.05179
-0.580601
-0.290923
-0.134204
-0.0082329
0.106523
0.208972
0.28873
-0.339199
-0.343954
-0.379231
-0.432873
-0.512613
-0.617884
-0.702493
-0.817234
-1.03013
-1.30142
-1.57698
-1.86327
-2.02537
-2.18652
22.6924
2.60017
-1.26608
-0.638322
-0.361299
-0.159424
-0.0117543
0.100791
0.181743
-0.339442
-0.350834
-0.378096
-0.421359
-0.48237
-0.560235
-0.651365
-0.776269
-0.969703
-1.25887
-1.65764
-2.15052
-2.46285
-2.4719
14.2916
1.3618
-1.56266
-0.875298
-0.522729
-0.272541
-0.104898
0.0152814
0.0976434
-0.330202
-0.342038
-0.363292
-0.397104
-0.443944
-0.505144
-0.58593
-0.702884
-0.885151
-1.19691
-1.67626
-1.83417
-1.72858
-1.75466
1.8162
-1.49897
-1.56964
-0.954494
-0.585301
-0.330388
-0.162239
-0.0435364
0.0361987
-0.311772
-0.320402
-0.336616
-0.361752
-0.396598
-0.443202
-0.507663
-0.60275
-0.756429
-1.05133
-1.54552
-0.527149
0.371385
0.318379
-0.116779
-2.14111
-1.33199
-0.868357
-0.552777
-0.333106
-0.183181
-0.0762295
-0.00424429
-0.284685
-0.290392
-0.301839
-0.319272
-0.343372
-0.375801
-0.420663
-0.48521
-0.591524
-0.815783
-1.22655
-0.181302
1.17646
0.597052
-1.88849
-1.5114
-0.993549
-0.690043
-0.461995
-0.295873
-0.175616
-0.0875276
-0.0271932
-0.252153
-0.255964
-0.263222
-0.27417
-0.289136
-0.309031
-0.335902
-0.372306
-0.430899
-0.557871
-0.792452
-1.08764
-1.22949
-1.15019
-1.21666
-0.948111
-0.681436
-0.505384
-0.356898
-0.240943
-0.15189
-0.0844825
-0.0371795
-0.217466
-0.219635
-0.223611
-0.229511
-0.237448
-0.247833
-0.26169
-0.279696
-0.307069
-0.364915
-0.475601
-0.618715
-0.7261
-0.739901
-0.676892
-0.566449
-0.451713
-0.35476
-0.262816
-0.185437
-0.122828
-0.0738961
-0.0388119
-0.18252
-0.183347
-0.184942
-0.187223
-0.190213
-0.194126
-0.19961
-0.20712
-0.218795
-0.242598
-0.288017
-0.349766
-0.398829
-0.410805
-0.38743
-0.348029
-0.298009
-0.243561
-0.187635
-0.137314
-0.0947405
-0.0605965
-0.0358142
-0.149186
-0.149112
-0.149098
-0.148985
-0.14878
-0.148659
-0.149087
-0.150555
-0.154484
-0.164672
-0.185114
-0.213696
-0.239692
-0.252693
-0.248152
-0.227311
-0.198147
-0.165003
-0.130697
-0.0984134
-0.0702308
-0.0472914
-0.0306686
-0.118923
-0.118377
-0.117348
-0.115769
-0.113673
-0.111248
-0.10886
-0.106969
-0.106661
-0.110219
-0.119492
-0.132822
-0.145619
-0.154168
-0.155264
-0.146343
-0.129655
-0.109574
-0.0884526
-0.0680303
-0.0499423
-0.0352317
-0.0248208
-0.092528
-0.0917767
-0.0901733
-0.0877912
-0.0847006
-0.081093
-0.0772914
-0.0737147
-0.0711791
-0.0710895
-0.0745163
-0.080673
-0.0872122
-0.0919868
-0.0930896
-0.0891072
-0.0807015
-0.0694915
-0.0570128
-0.0446238
-0.0336067
-0.024837
-0.0190328
-0.0703009
-0.0694484
-0.067581
-0.0648379
-0.0613264
-0.0572345
-0.0528625
-0.048609
-0.045114
-0.0432547
-0.043639
-0.0459923
-0.0492142
-0.0518679
-0.0525856
-0.0506423
-0.0463532
-0.0404532
-0.0336113
-0.0267127
-0.0206525
-0.0161274
-0.0136776
-0.0520063
-0.0510863
-0.0491576
-0.0463305
-0.0427422
-0.0385735
-0.0340983
-0.0296775
-0.025808
-0.023063
-0.0218232
-0.022043
-0.023235
-0.0245707
-0.0251837
-0.0245791
-0.0225792
-0.019734
-0.0164352
-0.0131824
-0.0105336
-0.00898886
-0.00893173
-0.0372031
-0.0362552
-0.0343831
-0.0316401
-0.0281756
-0.0241613
-0.0198447
-0.0155435
-0.0116463
-0.00856258
-0.00657261
-0.00570725
-0.0057303
-0.00619038
-0.00659471
-0.00659678
-0.00603663
-0.00510461
-0.00404609
-0.00315607
-0.00278691
-0.00327381
-0.00486899
-0.0254737
-0.0245527
-0.0227923
-0.0202255
-0.016988
-0.0132401
-0.00920429
-0.00515526
-0.00140039
0.00175432
0.00408069
0.00549507
0.00608971
0.006119
0.00589209
0.0056083
0.00534423
0.00508652
0.00474113
0.00412279
0.0030104
0.00118943
-0.00149438
-0.0164874
-0.0156333
-0.0140019
-0.0116458
-0.00867027
-0.00522581
-0.00151263
0.00223562
0.00576853
0.0088422
0.0112651
0.012938
0.013874
0.0141932
0.0140704
0.0136369
0.0129446
0.0120302
0.0108267
0.00927253
0.00723634
0.00458487
0.00123315
-0.00996335
-0.00918881
-0.00768841
-0.00553722
-0.00281697
0.000330606
0.0037275
0.00717722
0.0104712
0.0134064
0.0158151
0.0175914
0.0187057
0.0192001
0.0191612
0.0186716
0.0177822
0.0165398
0.0148472
0.0127622
0.0101997
0.0070825
0.00337504
-0.00561999
-0.00492118
-0.00354514
-0.00157139
0.000920876
0.00380195
0.00691772
0.0101021
0.013176
0.0159644
0.0183173
0.0201277
0.0213416
0.0219561
0.0220039
0.0215301
0.0205651
0.019108
0.0172665
0.014948
0.0121444
0.00882695
0.00499592
-0.00316705
-0.00253549
-0.00126681
0.000561397
0.00285937
0.00551567
0.00839879
0.0113642
0.0142541
0.0169133
0.0192058
0.0210263
0.0223078
0.023021
0.0231667
0.0227649
0.0218386
0.0204019
0.0184985
0.0161183
0.0132672
0.00993955
0.00615661
-0.00233104
-0.0017543
-0.000568742
0.00114085
0.00327952
0.00575681
0.00845809
0.0112528
0.0139988
0.0165571
0.0188033
0.0206352
0.0219791
0.0227908
0.0230521
0.0227662
0.0219472
0.020611
0.0187867
0.0164772
0.0137185
0.0105182
0.00690974
-0.00288288
-0.00234258
-0.00121911
0.000393373
0.00240891
0.00475318
0.00732115
0.00999161
0.0126355
0.0151273
0.017352
0.0192111
0.0206279
0.0215497
0.0219474
0.0218118
0.0211485
0.0199708
0.0182955
0.0161744
0.0136121
0.0106387
0.00729737
-0.00460282
-0.00408209
-0.00301134
-0.00147888
0.00044641
0.00269681
0.00517233
0.00775979
0.0103418
0.0128033
0.0150366
0.0169462
0.0184543
0.0195038
0.0200588
0.0201024
0.0196341
0.0186669
0.0172223
0.0153351
0.0130352
0.0103584
0.00735102
-0.00723678
-0.00672791
-0.00570792
-0.00424153
-0.00238284
-0.000200994
0.00220876
0.00474185
0.00729104
0.00974966
0.0120153
0.0139954
0.0156119
0.0168055
0.0175359
0.0177813
0.0175372
0.016815
0.015637
0.0140348
0.0120474
0.00971723
0.00709223
-0.0106329
-0.0101384
-0.00915794
-0.00773706
-0.00592143
-0.0037846
-0.00141591
0.00108845
0.00362922
0.00610598
0.00842101
0.0104848
0.0122209
0.0135694
0.0144877
0.0149507
0.0149508
0.014497
0.0136118
0.0123282
0.0106893
0.00874056
0.00653306
-0.0148539
-0.0143859
-0.0134221
-0.0120182
-0.0102154
-0.00808945
-0.00572353
-0.00320773
-0.00063647
0.00189368
0.00428852
0.00646151
0.00833825
0.00985914
0.0109808
0.0116766
0.011937
0.0117693
0.0111957
0.0102508
0.00898234
0.00743933
0.00567605
-0.0198334
-0.0194025
-0.0184437
-0.0170435
-0.0152377
-0.0130996
-0.0107075
-0.00814765
-0.00551179
-0.00289384
-0.000385431
0.001929
0.00397605
0.00569599
0.00704443
0.00799332
0.00853158
0.00866489
0.00841481
0.00781836
0.00692986
0.00580886
0.00451258
-0.025286
-0.0249005
-0.0239591
-0.022568
-0.0207594
-0.0186046
-0.0161797
-0.0135685
-0.0108597
-0.00814424
-0.00551092
-0.00304226
-0.000811127
0.00112202
0.00271118
0.00392619
0.00475354
0.00519644
0.00527513
0.0050276
0.00451772
0.00383175
0.00302775
-0.0314074
-0.0311857
-0.0302649
-0.0288627
-0.0270281
-0.0248323
-0.0223498
-0.0196612
-0.0168522
-0.0140103
-0.0112217
-0.00856786
-0.00612157
-0.00394466
-0.00208547
-0.000577333
0.000562229
0.00133179
0.00174562
0.00183087
0.00167768
0.00144188
0.0011654
186.577
-2.35253
-2.89966
-3.19296
311.802
8.21398
-1.56575
-2.28862
384.47
76.7894
-2.23216
-3.16039
326.608
192.819
-2.3527
-5.908
61.4737
189.407
55.2274
-6.09745
3.94169
55.5275
67.6169
36.9434
1.49702
3.40419
29.5839
41.736
1.26589
2.04872
2.90997
3.62518
1.33917
1.72108
2.07295
2.00216
1.10215
1.23662
1.31183
1.24424
0.829471
0.87555
0.885407
0.840533
0.62308
0.643847
0.644034
0.618282
0.45633
0.469378
0.469039
0.45355
0.322337
0.334639
0.337115
0.329223
0.215972
0.229879
0.235744
0.233587
0.133261
0.148667
0.157307
0.159248
0.0715954
0.0878569
0.0980356
0.102567
0.0286499
0.0442815
0.0547819
0.060673
0.00113117
0.0148636
0.0243814
0.0300773
-0.0144639
-0.00331247
0.00454658
0.00942248
-0.0217439
-0.0133372
-0.00740813
-0.00372663
-0.0237908
-0.0179272
-0.0138851
-0.0115008
-0.0228194
-0.0191132
-0.0167291
-0.0155557
-0.0202554
-0.0182779
-0.0172568
-0.0171209
-0.0169625
-0.0163185
-0.0163692
-0.0170728
-0.0134551
-0.0138094
-0.0146729
-0.0160242
-0.0100414
-0.0111192
-0.0125748
-0.0144001
-0.00690234
-0.00848085
-0.0103441
-0.0124921
-0.0041307
-0.00603187
-0.00815172
-0.0104952
-0.00175909
-0.00384356
-0.00609935
-0.00853373
0.000215085
-0.00194492
-0.00424174
-0.00668339
0.00181154
-0.000341035
-0.00260501
-0.00498802
0.00305648
0.000974772
-0.00119936
-0.00347241
0.00397568
0.00201309
-2.74599e-05
-0.00215086
0.00459061
0.00278383
0.000910462
-0.0010326
0.00491726
0.00329414
0.0016139
-0.000124901
0.00496572
0.00354759
0.00208081
0.000565365
0.00474006
0.00354381
0.0023072
0.00103118
0.00423843
0.00327871
0.00228722
0.0012654
0.00345127
0.00274249
0.00201107
0.00125835
0.00236779
0.00192649
0.00147176
0.00100434
0.000936635
0.000782937
0.000624374
0.000461312
-2.71302
-2.48686
-2.38036
-2.22283
-2.05995
-1.90033
-1.75754
-1.63468
-1.53034
-1.44286
-1.36922
-1.30834
-1.2577
-1.21611
-1.18284
-1.15727
-1.13782
-1.12522
-1.119
-3.06754
-3.11199
-2.80137
-2.44572
-2.15644
-1.92788
-1.74946
-1.60993
-1.4968
-1.40778
-1.33367
-1.27347
-1.22443
-1.18471
-1.15303
-1.12809
-1.11053
-1.0989
-1.09313
-4.38481
-4.25002
-3.47428
-2.72516
-2.24105
-1.93144
-1.71715
-1.5681
-1.44969
-1.35893
-1.28715
-1.22982
-1.18376
-1.14687
-1.11771
-1.09479
-1.07847
-1.06783
-1.06257
-6.34575
-5.52542
-4.10151
-2.91891
-2.24087
-1.88663
-1.65358
-1.49603
-1.38166
-1.29595
-1.22971
-1.17752
-1.13595
-1.10287
-1.07626
-1.05635
-1.04187
-1.03242
-1.02775
-6.92279
-5.84702
-4.18025
-2.84354
-2.11403
-1.75694
-1.5388
-1.39453
-1.29359
-1.21907
-1.162
-1.11725
-1.08167
-1.05301
-1.03068
-1.01366
-1.00128
-0.993205
-0.989212
-2.1669
-4.89576
-3.5974
-2.46232
-1.83401
-1.54695
-1.37983
-1.26727
-1.1886
-1.13049
-1.08574
-1.05042
-1.02187
-0.999079
-0.981151
-0.967384
-0.957349
-0.95078
-0.947529
6.58241
-3.5858
-2.59145
-1.8473
-1.467
-1.29316
-1.19332
-1.12321
-1.07248
-1.03395
-1.00357
-0.978482
-0.958247
-0.941785
-0.928591
-0.918332
-0.910788
-0.90582
-0.903352
3.47708
-0.760315
-1.35434
-1.16596
-1.0731
-1.02981
-0.999811
-0.973868
-0.952244
-0.933957
-0.917933
-0.904311
-0.892485
-0.88241
-0.874047
-0.867374
-0.862372
-0.859035
-0.857364
1.15782
0.0524571
-0.485701
-0.666826
-0.750444
-0.794535
-0.818844
-0.830358
-0.834788
-0.835223
-0.833222
-0.829993
-0.826174
-0.822255
-0.818583
-0.815405
-0.812888
-0.811147
-0.810256
0.910446
0.28803
-0.123921
-0.362195
-0.509119
-0.601939
-0.66192
-0.700554
-0.725448
-0.741407
-0.751395
-0.757427
-0.760835
-0.762544
-0.763208
-0.763285
-0.763095
-0.762854
-0.762697
0.677168
0.335528
0.0366122
-0.184996
-0.342895
-0.45442
-0.533131
-0.588526
-0.62757
-0.655138
-0.674576
-0.688233
-0.697763
-0.704343
-0.708818
-0.711792
-0.71369
-0.714801
-0.715308
0.529978
0.315939
0.0977682
-0.0871049
-0.233716
-0.346358
-0.431439
-0.495103
-0.542551
-0.577859
-0.604099
-0.623562
-0.637946
-0.648503
-0.656159
-0.661589
-0.665279
-0.667558
-0.668641
0.401712
0.264615
0.108717
-0.0382578
-0.165232
-0.269703
-0.353294
-0.419068
-0.470309
-0.509989
-0.540587
-0.564085
-0.582035
-0.595636
-0.605799
-0.613207
-0.61836
-0.621604
-0.623166
0.298699
0.208837
0.0967349
-0.0179822
-0.124063
-0.216537
-0.294286
-0.358155
-0.409833
-0.451217
-0.484103
-0.510056
-0.53038
-0.546128
-0.558135
-0.567039
-0.573322
-0.57732
-0.579259
0.216945
0.156862
0.0754793
-0.0134644
-0.100503
-0.180195
-0.25012
-0.30976
-0.359639
-0.400771
-0.434318
-0.461413
-0.483072
-0.500164
-0.5134
-0.523347
-0.530439
-0.53499
-0.537208
0.151899
0.111416
0.0519055
-0.017039
-0.0878619
-0.155493
-0.217079
-0.271359
-0.318099
-0.357653
-0.390663
-0.417873
-0.440017
-0.457766
-0.471694
-0.482277
-0.489888
-0.494803
-0.497209
0.101196
0.0733354
0.0295111
-0.0241295
-0.0816344
-0.13859
-0.192148
-0.240724
-0.28364
-0.320799
-0.352451
-0.379018
-0.400986
-0.418836
-0.433008
-0.443879
-0.451755
-0.45687
-0.459383
0.0634253
0.0418389
0.00993221
-0.0320425
-0.0788592
-0.126727
-0.172989
-0.215995
-0.254851
-0.289184
-0.318964
-0.344366
-0.365671
-0.383194
-0.39725
-0.408123
-0.416055
-0.42123
-0.423781
0.0333953
0.0197486
-0.00565802
-0.0392167
-0.0776553
-0.117995
-0.157848
-0.195682
-0.230537
-0.261885
-0.289514
-0.313422
-0.333726
-0.350608
-0.364275
-0.374927
-0.382744
-0.387867
-0.390399
0.0125681
0.00259249
-0.0175174
-0.0449672
-0.0768908
-0.11114
-0.145463
-0.178635
-0.209718
-0.238103
-0.263475
-0.285706
-0.304795
-0.32082
-0.3339
-0.344165
-0.351739
-0.356722
-0.359191
-0.00148101
-0.00969895
-0.026254
-0.049032
-0.0757465
-0.105448
-0.134941
-0.16399
-0.191619
-0.217175
-0.240299
-0.260779
-0.278534
-0.293568
-0.30593
-0.315691
-0.322928
-0.327707
-0.330078
-0.0105131
-0.0179991
-0.032199
-0.0516058
-0.0745487
-0.0997207
-0.125541
-0.151069
-0.175637
-0.198557
-0.21952
-0.238251
-0.254628
-0.268599
-0.280162
-0.289344
-0.296181
-0.30071
-0.302958
-0.0158747
-0.0231872
-0.035819
-0.0527072
-0.0725954
-0.094368
-0.116908
-0.139342
-0.161348
-0.181798
-0.20075
-0.217782
-0.23279
-0.245674
-0.256399
-0.264962
-0.271358
-0.275609
-0.277713
-0.0186248
-0.0260138
-0.0375712
-0.0525529
-0.0700101
-0.0890693
-0.108886
-0.128755
-0.148157
-0.166464
-0.183698
-0.199073
-0.212768
-0.224572
-0.234451
-0.242382
-0.248318
-0.252276
-0.254217
-0.0195652
-0.0271007
-0.0378778
-0.051377
-0.0668843
-0.0837261
-0.101246
-0.118867
-0.136109
-0.152535
-0.167895
-0.181817
-0.194357
-0.205088
-0.214128
-0.221455
-0.226922
-0.230581
-0.232332
-0.0192867
-0.0269414
-0.0371027
-0.049407
-0.0633168
-0.0783147
-0.0938843
-0.109556
-0.124918
-0.139617
-0.153382
-0.165967
-0.177245
-0.187021
-0.19523
-0.202061
-0.20703
-0.210423
-0.211902
-0.0182198
-0.0259171
-0.035545
-0.0468463
-0.0594142
-0.0728504
-0.0867467
-0.100721
-0.114431
-0.127579
-0.139918
-0.151244
-0.161408
-0.170275
-0.177771
-0.183882
-0.18845
-0.191548
-0.19295
-0.0166751
-0.0243179
-0.0334441
-0.0438674
-0.0552776
-0.0673658
-0.0798082
-0.0922954
-0.104543
-0.1163
-0.127353
-0.137523
-0.146669
-0.154675
-0.161459
-0.166967
-0.171121
-0.173923
-0.175237
-0.0148725
-0.0223605
-0.0309866
-0.040612
-0.0509965
-0.0618985
-0.07306
-0.0842305
-0.0951756
-0.105684
-0.115573
-0.124686
-0.132894
-0.140094
-0.146205
-0.151164
-0.154917
-0.157444
-0.158655
-0.0129636
-0.020203
-0.0283152
-0.0371926
-0.0466461
-0.0564845
-0.0665016
-0.0764943
-0.0862696
-0.0956512
-0.104482
-0.112628
-0.119973
-0.126424
-0.131904
-0.136354
-0.139727
-0.141997
-0.143102
-0.0110503
-0.0179585
-0.0255363
-0.0336962
-0.0422869
-0.0511554
-0.0601358
-0.0690633
-0.0777794
-0.086137
-0.0940033
-0.101261
-0.10781
-0.113566
-0.118458
-0.122434
-0.12545
-0.127479
-0.128481
-0.0091997
-0.0157072
-0.0227284
-0.0301895
-0.0379669
-0.0459371
-0.053966
-0.0619196
-0.0696679
-0.0770883
-0.0840688
-0.0905089
-0.096321
-0.101431
-0.105776
-0.109308
-0.111989
-0.113793
-0.114695
-0.00745623
-0.0135058
-0.0199495
-0.0267226
-0.0337232
-0.0408502
-0.0479949
-0.0550482
-0.0619036
-0.0684592
-0.0746209
-0.080303
-0.0854303
-0.0899377
-0.0937716
-0.0968886
-0.0992551
-0.100846
-0.101654
-0.00585004
-0.0113954
-0.0172424
-0.0233336
-0.0295838
-0.0359098
-0.0422232
-0.0484351
-0.0544581
-0.0602082
-0.0656067
-0.0705815
-0.0750683
-0.0790118
-0.0823655
-0.0850921
-0.0871624
-0.0885531
-0.0892703
-0.00440271
-0.00940601
-0.0146393
-0.0200511
-0.0255696
-0.0311261
-0.0366487
-0.0420651
-0.047304
-0.0522964
-0.0569772
-0.0612864
-0.0651703
-0.0685822
-0.0714829
-0.0738407
-0.0756309
-0.0768318
-0.0774629
-0.00313075
-0.00756059
-0.0121643
-0.0168954
-0.0216941
-0.0265035
-0.0312653
-0.035921
-0.040413
-0.0446854
-0.048685
-0.0523629
-0.0556747
-0.0585822
-0.061053
-0.0630607
-0.0645848
-0.0656054
-0.066154
-0.00204748
-0.00587627
-0.00983419
-0.0138802
-0.0179645
-0.022041
-0.0260626
-0.0299829
-0.033756
-0.0373373
-0.0406844
-0.0437583
-0.0465234
-0.0489491
-0.0510092
-0.0526827
-0.0539529
-0.0548012
-0.0552705
-0.00116381
-0.00436549
-0.00766011
-0.0110123
-0.014382
-0.0177323
-0.0210265
-0.0242283
-0.0273023
-0.030214
-0.0329307
-0.0354221
-0.0376609
-0.0396231
-0.0412887
-0.0426412
-0.0436677
-0.0443505
-0.0447428
-0.000488617
-0.00303661
-0.00564793
-0.00829364
-0.0109428
-0.0135673
-0.0161397
-0.018633
-0.0210209
-0.0232781
-0.0253804
-0.0273057
-0.0290338
-0.0305473
-0.0318312
-0.0328733
-0.0336646
-0.0341869
-0.0345034
-3.11451e-05
-0.00189675
-0.00380153
-0.00572371
-0.00764135
-0.00953473
-0.0113848
-0.0131731
-0.0148819
-0.0164937
-0.0179925
-0.0193632
-0.0205921
-0.0216675
-0.0225793
-0.0233192
-0.0238814
-0.0242473
-0.0244867
0.000204269
-0.000946687
-0.00211769
-0.00329488
-0.00446512
-0.00561675
-0.0067387
-0.00782033
-0.00885141
-0.00982212
-0.0107232
-0.0115461
-0.0122832
-0.0129277
-0.0134738
-0.0139167
-0.014254
-0.0144663
-0.0146257
0.000182044
-0.000217705
-0.000623451
-0.00102968
-0.00143179
-0.00182579
-0.00220802
-0.00257507
-0.00292371
-0.0032509
-0.00355379
-0.00382976
-0.00407647
-0.00429185
-0.00447414
-0.0046218
-0.00473512
-0.00480257
-0.00486208
)
;

boundaryField
{
    leftWall
    {
        type            fixedFluxPressure;
        gradient        uniform 0;
        value           nonuniform List<scalar> 
50
(
2523.25
2521.96
2519.38
2515.53
2510.44
2504.13
2496.65
2488.07
2473.05
2448.35
2420.2
2389.4
2356.8
2323.25
2289.58
2256.45
2224.61
2194.96
2167.22
2140.22
1935.9
478.571
-0.339199
-0.339442
-0.330202
-0.311772
-0.284685
-0.252153
-0.217466
-0.18252
-0.149186
-0.118923
-0.092528
-0.0703009
-0.0520063
-0.0372031
-0.0254737
-0.0164874
-0.00996335
-0.00561999
-0.00316705
-0.00233104
-0.00288288
-0.00460282
-0.00723678
-0.0106329
-0.0148539
-0.0198334
-0.025286
-0.0314074
)
;
    }
    rightWall
    {
        type            fixedFluxPressure;
        gradient        uniform 0;
        value           nonuniform List<scalar> 
50
(
-1.1689
-1.16759
-1.16512
-1.16139
-1.15643
-1.15024
-1.14284
-1.13426
-1.119
-1.09313
-1.06257
-1.02775
-0.989212
-0.947529
-0.903352
-0.857364
-0.810256
-0.762697
-0.715308
-0.668641
-0.623166
-0.579259
-0.537208
-0.497209
-0.459383
-0.423781
-0.390399
-0.359191
-0.330078
-0.302958
-0.277713
-0.254217
-0.232332
-0.211902
-0.19295
-0.175237
-0.158655
-0.143102
-0.128481
-0.114695
-0.101654
-0.0892703
-0.0774629
-0.066154
-0.0552705
-0.0447428
-0.0345034
-0.0244867
-0.0146257
-0.00486208
)
;
    }
    lowerWall
    {
        type            fixedFluxPressure;
        gradient        uniform 0;
        value           nonuniform List<scalar> 
62
(
2523.25
2527.33
2522.4
2511.09
2495.85
2476.97
2453.81
2425.93
2393.1
2355.3
2313.04
2267.6
2221.64
2180.02
2151.21
2149.2
2195.99
2327.35
2569.52
2946.37
3413.32
3821.07
4087.77
4087.77
4167.31
4216.48
4190.09
4086.58
3820.99
3305.67
2464
186.577
-2.35253
-2.89966
-3.19296
-1.97853
-1.98024
-1.98721
-2.00004
-2.02336
-2.06465
-2.14674
-2.28763
-1.97853
-1.99306
-1.99123
-1.95905
-1.90141
-1.82603
-1.7422
-1.65681
-1.57456
-1.49838
-1.42977
-1.36943
-1.31748
-1.27382
-1.23834
-1.21038
-1.18955
-1.17571
-1.1689
)
;
    }
    atmosphere
    {
        type            totalPressure;
        rho             rho;
        psi             none;
        gamma           1;
        p0              uniform 0;
        value           nonuniform List<scalar> 
46
(
-0.0347953
-0.0348838
-0.0339227
-0.0324847
-0.0306161
-0.0283809
-0.0258506
-0.0231037
-0.0202243
-0.0172987
-0.0144122
-0.0116459
-0.00907303
-0.00675616
-0.0047447
-0.00307371
-0.00176344
-0.000820169
-0.000238519
-6.0393e-06
0
0
0
0
0
0
0
0
0
0
0
0
0
0
0
0
0
0
0
0
0
0
0
0
0
0
)
;
    }
    defaultFaces
    {
        type            empty;
    }
}


// ************************************************************************* //
