/*--------------------------------*- C++ -*----------------------------------*\
| =========                 |                                                 |
| \\      /  F ield         | OpenFOAM: The Open Source CFD Toolbox           |
|  \\    /   O peration     | Version:  2206                                  |
|   \\  /    A nd           | Website:  www.openfoam.com                      |
|    \\/     M anipulation  |                                                 |
\*---------------------------------------------------------------------------*/
FoamFile
{
    version     2.0;
    format      ascii;
    arch        "LSB;label=32;scalar=64";
    class       surfaceScalarField;
    location    "0.075";
    object      alphaPhi0.water;
}
// * * * * * * * * * * * * * * * * * * * * * * * * * * * * * * * * * * * * * //

dimensions      [0 3 -1 0 0 0 0];

oriented        oriented;

internalField   nonuniform List<scalar> 
4432
(
4.05259e-06
-4.05259e-06
8.55171e-06
-4.4991e-06
1.29956e-05
-4.44392e-06
1.75662e-05
-4.5706e-06
2.23619e-05
-4.7957e-06
2.7457e-05
-5.09503e-06
3.29421e-05
-5.48515e-06
3.89266e-05
-5.98451e-06
4.55882e-05
-6.66162e-06
5.30246e-05
-7.43647e-06
6.17489e-05
-8.72426e-06
7.19348e-05
-1.01859e-05
8.36933e-05
-1.17954e-05
9.46482e-05
-1.17277e-05
0.000102142
-1.0659e-05
9.66514e-05
-1.11721e-05
4.12068e-05
-1.02109e-05
3.10871e-06
-6.48887e-07
1.31651e-06
8.34288e-07
5.73168e-07
6.19722e-07
2.32397e-07
2.24634e-07
9.16843e-08
7.74775e-08
2.48049e-08
4.05701e-06
-8.10961e-06
8.54636e-06
-8.98846e-06
1.29857e-05
-8.88327e-06
1.75483e-05
-9.13319e-06
2.23313e-05
-9.5787e-06
2.74095e-05
-1.01732e-05
3.28716e-05
-1.09473e-05
3.88299e-05
-1.19428e-05
4.54313e-05
-1.3263e-05
5.28437e-05
-1.48489e-05
6.14493e-05
-1.73299e-05
7.12327e-05
-1.99692e-05
8.26905e-05
-2.33192e-05
9.2918e-05
-2.49048e-05
9.50509e-05
-2.41934e-05
7.20264e-05
-1.94386e-05
2.55326e-05
-1.00058e-05
2.85836e-06
-3.07443e-06
1.84159e-06
3.37881e-07
1.04997e-06
8.9367e-07
4.2613e-07
6.05103e-07
1.25842e-07
2.82244e-07
8.1711e-08
4.04258e-06
-1.21522e-05
8.50109e-06
-1.3447e-05
1.29124e-05
-1.32945e-05
1.74437e-05
-1.36645e-05
2.21887e-05
-1.43237e-05
2.72204e-05
-1.5205e-05
3.26242e-05
-1.63511e-05
3.85086e-05
-1.78273e-05
4.50018e-05
-1.97561e-05
5.23026e-05
-2.21497e-05
6.06888e-05
-2.57162e-05
7.01497e-05
-2.94301e-05
8.22015e-05
-3.53994e-05
9.32513e-05
-4.05995e-05
7.11402e-05
-3.78557e-05
1.66639e-05
-1.56129e-05
5.50666e-06
-4.80321e-06
4.65091e-06
-1.63926e-06
2.77127e-06
5.41266e-08
6.55753e-07
3.50395e-07
7.16697e-09
4.94255e-07
2.66992e-08
1.90371e-07
5.75712e-08
4.0181e-06
-1.61703e-05
8.43292e-06
-1.78618e-05
1.28025e-05
-1.76642e-05
1.72884e-05
-1.81503e-05
2.1979e-05
-1.90143e-05
2.69445e-05
-2.01705e-05
3.22649e-05
-2.16715e-05
3.80425e-05
-2.36049e-05
4.4392e-05
-2.61057e-05
5.15137e-05
-2.92713e-05
5.96466e-05
-3.38491e-05
6.87581e-05
-3.85415e-05
8.05853e-05
-4.72266e-05
8.6169e-05
-5.57866e-05
3.98612e-05
-4.46419e-05
5.29207e-06
-9.005e-06
2.05048e-06
-2.62944e-06
1.3366e-06
-7.22004e-07
1.18477e-06
-2.18771e-08
7.96565e-07
-6.05627e-08
1.38717e-07
1.90731e-07
1.34212e-09
1.46707e-07
2.83315e-08
3.98395e-06
-2.01543e-05
8.34224e-06
-2.22201e-05
1.26573e-05
-2.19792e-05
1.70837e-05
-2.25767e-05
2.17043e-05
-2.36349e-05
2.65844e-05
-2.50506e-05
3.1798e-05
-2.68851e-05
3.74393e-05
-2.92462e-05
4.36066e-05
-3.2273e-05
5.04934e-05
-3.61581e-05
5.82784e-05
-4.16342e-05
6.69654e-05
-4.72285e-05
7.8346e-05
-5.86072e-05
7.22052e-05
-6.92197e-05
1.42239e-05
-3.9767e-05
2.67835e-06
-5.31198e-06
9.10489e-07
-1.36872e-06
3.59662e-07
-1.90076e-07
2.58586e-07
-4.53385e-09
1.30592e-07
-2.35119e-08
4.12569e-08
2.8837e-08
4.17771e-09
1.75522e-08
1.26779e-08
3.94056e-06
-2.40948e-05
8.23095e-06
-2.65105e-05
1.24797e-05
-2.62279e-05
1.68343e-05
-2.69313e-05
2.1371e-05
-2.81717e-05
2.615e-05
-2.98296e-05
3.1238e-05
-3.19731e-05
3.67205e-05
-3.47286e-05
4.26749e-05
-3.82274e-05
4.92857e-05
-4.27689e-05
5.66482e-05
-4.89966e-05
6.47862e-05
-5.53666e-05
7.5551e-05
-6.9372e-05
5.41642e-05
-7.89477e-05
4.34465e-06
-2.93e-05
1.32882e-06
-3.34568e-06
3.17386e-07
-5.69993e-07
1.05061e-07
1.33128e-08
6.6345e-08
5.17064e-09
2.82115e-08
-9.07665e-09
7.2491e-09
1.11376e-08
1.27638e-09
7.52861e-09
3.95221e-09
3.89152e-06
-2.79863e-05
8.10381e-06
-3.07228e-05
1.2278e-05
-3.04021e-05
1.65529e-05
-3.12063e-05
2.09978e-05
-3.26166e-05
2.56676e-05
-3.44994e-05
3.06225e-05
-3.69279e-05
3.59384e-05
-4.00445e-05
4.16783e-05
-4.39672e-05
4.80078e-05
-4.90984e-05
5.49155e-05
-5.59043e-05
6.2383e-05
-6.28341e-05
7.20807e-05
-7.90697e-05
3.85919e-05
-8.39204e-05
2.29509e-06
-1.99176e-05
5.72379e-07
-2.33427e-06
6.8342e-08
-9.21909e-08
2.71585e-08
3.19055e-08
1.45293e-08
3.10419e-09
6.0344e-09
-3.83292e-09
2.5037e-09
-2.96423e-09
7.25615e-10
2.45126e-09
1.15833e-09
3.83929e-06
-3.18256e-05
7.95991e-06
-3.48434e-05
1.20531e-05
-3.44953e-05
1.62434e-05
-3.53965e-05
2.05921e-05
-3.69653e-05
2.51486e-05
-3.90559e-05
2.99674e-05
-4.17467e-05
3.5115e-05
-4.51921e-05
4.06438e-05
-4.9496e-05
4.6726e-05
-5.51806e-05
5.31732e-05
-6.23516e-05
5.98644e-05
-6.95253e-05
6.79808e-05
-8.71861e-05
2.54352e-05
-8.4682e-05
1.38561e-06
-1.26026e-05
1.11594e-07
-1.41936e-06
6.43385e-09
4.66064e-08
1.71012e-09
2.82486e-08
2.79346e-09
9.45877e-10
1.69722e-09
-2.98165e-09
1.14016e-09
-2.15568e-09
5.11866e-10
-1.96931e-10
1.67611e-10
1.49933e-22
-2.88051e-22
3.30852e-23
-1.31248e-22
1.55465e-24
-9.26622e-24
7.22252e-26
-2.63015e-25
3.46123e-27
-4.4161e-27
1.67425e-28
2.12809e-29
8.44574e-30
4.0251e-30
3.71265e-31
2.87298e-31
1.44606e-32
1.55105e-32
4.9644e-34
7.03651e-34
1.47489e-35
2.73609e-35
3.71657e-37
9.14584e-37
7.73822e-39
2.60251e-38
1.28277e-40
6.19409e-40
1.60145e-42
1.1988e-41
1.37509e-44
1.80335e-43
6.81994e-47
1.95786e-45
2.13989e-47
1.32071e-47
2.39607e-48
5.07911e-21
-2.75469e-20
3.36579e-21
-1.42423e-20
1.25182e-22
-9.83255e-22
4.67541e-24
-2.67414e-23
2.20797e-25
-4.29858e-25
1.04481e-26
5.12905e-27
5.08374e-28
9.37931e-28
2.18989e-29
6.56151e-29
8.45075e-31
3.49246e-30
2.88675e-32
1.56808e-31
8.55408e-34
6.05992e-33
2.14951e-35
2.01617e-34
4.44804e-37
5.7084e-36
7.27335e-39
1.3464e-37
8.82749e-41
2.55886e-39
7.16597e-43
3.71471e-41
3.17069e-45
3.76227e-43
2.71867e-47
2.19631e-45
1.05799e-47
1.74229e-19
-1.29159e-18
1.07066e-19
-6.58614e-19
3.88289e-21
-4.32397e-20
1.4454e-22
-1.1144e-21
6.59489e-24
-1.64151e-23
2.98682e-25
2.74054e-25
1.35329e-26
4.04686e-26
5.54172e-28
2.62689e-27
2.04537e-29
1.32259e-28
6.70748e-31
5.66016e-30
1.91318e-32
2.09585e-31
4.62862e-34
6.69757e-33
9.19271e-36
1.82091e-34
1.43022e-37
4.10762e-36
1.61867e-39
7.39497e-38
1.22286e-41
9.94952e-40
5.51553e-44
9.76326e-42
1.83101e-46
5.98719e-44
6.7597e-46
3.20107e-18
-2.27837e-17
2.56815e-18
-1.57593e-17
8.78189e-20
-1.201e-18
3.04487e-21
-2.84183e-20
1.3539e-22
-3.65704e-22
5.93074e-24
9.15617e-24
2.5304e-25
1.08715e-24
9.88897e-27
6.55561e-26
3.49647e-28
3.1277e-27
1.10078e-29
1.27711e-28
3.01797e-31
4.52988e-30
7.00662e-33
1.38826e-31
1.3252e-34
3.61472e-33
1.97514e-36
7.74786e-35
2.2925e-38
1.37299e-36
1.84895e-40
1.92849e-38
8.37911e-43
1.94454e-40
3.55965e-45
1.1715e-42
1.974e-44
3.82288e-17
-9.1789e-17
4.73737e-17
-2.09717e-16
1.61537e-18
-2.22983e-17
4.82795e-20
-5.07775e-19
2.0987e-21
-5.21382e-21
8.95324e-23
2.15697e-22
3.63766e-24
2.09619e-23
1.35946e-25
1.17754e-24
4.60221e-27
5.32953e-26
1.38792e-28
2.07517e-27
3.63965e-30
7.0348e-29
8.13082e-32
2.06003e-30
1.54798e-33
5.23728e-32
2.41587e-35
1.14965e-33
2.8388e-37
2.07827e-35
2.27902e-39
2.92943e-37
1.01428e-41
2.95056e-39
5.32788e-44
1.70731e-41
3.96396e-43
5.1486e-16
1.16439e-15
5.87236e-16
-6.60342e-15
1.93301e-17
-5.84747e-16
5.91163e-19
-8.20569e-18
2.52748e-20
-5.05586e-20
1.05542e-21
3.71584e-21
4.14007e-23
3.04049e-22
1.48813e-24
1.60353e-23
4.83624e-26
6.91995e-25
1.39959e-27
2.57796e-26
3.59557e-29
8.40404e-28
8.24274e-31
2.46434e-29
1.585e-32
6.33179e-31
2.45183e-34
1.38584e-32
2.86606e-36
2.49327e-34
2.28713e-38
3.49585e-36
1.02508e-40
3.49777e-38
6.49504e-43
2.09793e-40
5.92438e-42
1.97255e-14
-2.04474e-13
6.60889e-15
-1.30667e-13
1.14347e-16
-3.89787e-15
5.15707e-18
-6.40865e-17
2.33226e-19
-7.50433e-20
9.726e-21
4.55158e-20
3.72783e-22
3.26738e-21
1.3026e-23
1.64671e-22
4.11722e-25
6.87217e-24
1.1841e-26
2.50302e-25
3.09982e-28
8.23792e-27
7.03627e-30
2.40985e-28
1.3426e-31
6.15627e-30
2.06237e-33
1.33939e-31
2.39319e-35
2.39396e-33
1.89607e-37
3.3331e-35
8.56728e-40
3.31367e-37
6.39076e-42
2.04957e-39
6.86673e-41
2.38657e-13
-6.5384e-13
9.58948e-15
-7.39475e-14
2.33174e-16
-3.15946e-15
2.38983e-17
-9.66184e-17
1.28415e-18
1.30362e-18
5.49905e-20
2.89237e-19
2.16701e-21
2.03747e-20
7.726e-23
1.05594e-21
2.49288e-24
4.5326e-23
7.42102e-26
1.71776e-24
1.97892e-27
5.82392e-26
4.54483e-29
1.74089e-27
8.73292e-31
4.51343e-29
1.34509e-32
9.90697e-31
1.5598e-34
1.77766e-32
1.2319e-36
2.47444e-34
5.5663e-39
2.45077e-36
5.11547e-41
1.51617e-38
6.22418e-40
7.92984e-06
-3.97554e-05
1.63769e-05
-4.32904e-05
2.47643e-05
-4.28827e-05
3.33422e-05
-4.39745e-05
4.22107e-05
-4.58338e-05
5.14508e-05
-4.8296e-05
6.11535e-05
-5.14494e-05
7.14063e-05
-5.54449e-05
8.23545e-05
-6.04442e-05
9.39905e-05
-6.68166e-05
0.000106587
-7.4948e-05
0.000120231
-8.31698e-05
0.00013124
-9.81943e-05
2.26772e-05
-6.75371e-05
1.4848e-06
-5.77596e-06
4.97942e-09
-2.64102e-07
-3.30169e-08
6.49143e-08
-2.5368e-09
7.01614e-09
1.03437e-09
-8.10862e-10
1.35334e-09
-1.21804e-09
1.40707e-09
-5.33337e-10
1.0898e-09
-4.01334e-10
-2.41853e-10
4.47973e-10
7.55733e-06
-4.73128e-05
1.54794e-05
-5.12125e-05
2.33611e-05
-5.07644e-05
3.13955e-05
-5.20089e-05
3.96453e-05
-5.40836e-05
4.81607e-05
-5.68114e-05
5.69921e-05
-6.02807e-05
6.61801e-05
-6.46329e-05
7.57624e-05
-7.00265e-05
8.57137e-05
-7.67679e-05
9.59468e-05
-8.51811e-05
0.000106526
-9.37486e-05
8.87699e-05
-0.000109074
4.51598e-06
-4.61445e-05
2.66975e-07
-2.65227e-06
-4.50082e-08
5.75348e-08
-1.08897e-08
3.31355e-08
-8.38383e-10
4.06791e-09
2.69041e-10
2.78994e-10
4.79749e-10
-3.1028e-10
5.14756e-10
-1.76823e-10
4.0127e-10
-1.07907e-10
-6.03935e-11
2.0037e-10
7.129e-06
-5.44418e-05
1.44741e-05
-5.85576e-05
2.17976e-05
-5.80879e-05
2.92363e-05
-5.94476e-05
3.68172e-05
-6.16645e-05
4.45632e-05
-6.45574e-05
5.24902e-05
-6.82077e-05
6.05961e-05
-7.27388e-05
6.88528e-05
-7.82832e-05
7.71817e-05
-8.50968e-05
8.5358e-05
-9.33574e-05
9.3362e-05
-0.000101753
5.97782e-05
-0.000109577
1.7046e-06
-2.93366e-05
-2.03698e-08
-1.3839e-06
-2.71684e-08
1.02683e-07
-3.32092e-09
1.1859e-08
-3.85026e-10
1.43225e-09
-1.18921e-11
2.09353e-10
9.29379e-11
-5.18839e-11
1.07593e-10
-5.0345e-11
7.99738e-11
-2.61684e-11
-1.31743e-11
5.41884e-11
6.65503e-06
-6.10968e-05
1.33916e-05
-6.52943e-05
2.01249e-05
-6.48211e-05
2.69365e-05
-6.62592e-05
3.38236e-05
-6.85516e-05
4.07865e-05
-7.15202e-05
4.7814e-05
-7.52352e-05
5.48719e-05
-7.97967e-05
6.18932e-05
-8.53045e-05
6.87571e-05
-9.19608e-05
7.52082e-05
-9.98085e-05
8.12224e-05
-0.000107767
3.92262e-05
-0.000105301
1.14065e-06
-1.80239e-05
-4.47173e-08
-4.27866e-07
-1.2998e-08
7.44044e-08
-9.65848e-10
4.26803e-09
-1.01082e-10
3.50898e-10
-1.00628e-11
3.80757e-11
1.41895e-11
-6.23903e-12
1.86292e-11
-1.209e-11
1.32949e-11
-5.95355e-12
-2.63937e-12
7.09019e-12
6.14898e-06
-6.72458e-05
1.22638e-05
-7.14091e-05
1.83928e-05
-7.09501e-05
2.45659e-05
-7.24323e-05
3.07577e-05
-7.47434e-05
3.69516e-05
-7.7714e-05
4.31175e-05
-8.14011e-05
4.9201e-05
-8.58802e-05
5.51154e-05
-9.12189e-05
6.07235e-05
-9.75689e-05
6.57818e-05
-0.000104867
7.02879e-05
-0.000112273
2.43565e-05
-9.80333e-05
5.68793e-07
-1.06086e-05
-4.24571e-08
8.94314e-08
-4.5693e-09
3.03697e-08
-3.10399e-10
1.41362e-09
-3.59181e-11
1.07366e-10
-2.85139e-12
4.57841e-12
1.66006e-12
-1.06174e-12
2.84353e-12
-2.42874e-12
1.98401e-12
-1.15065e-12
-4.31915e-13
9.4755e-13
5.62327e-06
-7.28691e-05
1.1118e-05
-7.69038e-05
1.66429e-05
-7.64751e-05
2.21822e-05
-7.79716e-05
2.76946e-05
-8.02558e-05
3.31524e-05
-8.31718e-05
3.8514e-05
-8.67627e-05
4.37152e-05
-9.10814e-05
4.86637e-05
-9.61675e-05
5.32239e-05
-0.000102129
5.71831e-05
-0.000108826
6.05613e-05
-0.000115651
1.40794e-05
-8.90808e-05
1.07895e-07
-5.83835e-06
-2.17519e-08
1.83587e-07
-1.56972e-09
1.00835e-08
-9.8769e-11
4.49738e-10
-1.13144e-11
3.44e-11
-9.54184e-13
9.2033e-13
1.46997e-13
-1.50186e-13
4.01988e-13
-2.45716e-13
2.91472e-13
-1.0846e-13
-3.46189e-15
1.40309e-13
5.0894e-06
-7.79585e-05
9.97706e-06
-8.17914e-05
1.49091e-05
-8.14071e-05
1.98309e-05
-8.28934e-05
2.46918e-05
-8.51166e-05
2.94576e-05
-8.79376e-05
3.40815e-05
-9.13866e-05
3.84972e-05
-9.54971e-05
4.26164e-05
-0.000100287
4.63165e-05
-0.000105829
4.94239e-05
-0.000111934
5.19841e-05
-0.000118211
7.43726e-06
-7.94296e-05
-8.10527e-08
-2.89185e-06
-9.36086e-09
9.85363e-08
-5.37749e-10
3.87088e-09
-3.46626e-11
1.69994e-10
-3.71727e-12
1.24619e-11
-3.30391e-13
6.53495e-13
6.39606e-14
8.03717e-14
8.06079e-14
6.62121e-14
5.85409e-14
3.98851e-14
2.40715e-14
2.92639e-14
4.55721e-06
-8.25157e-05
8.85871e-06
-8.60929e-05
1.32168e-05
-8.57652e-05
1.75458e-05
-8.72223e-05
2.179e-05
-8.93608e-05
2.59131e-05
-9.20607e-05
2.98673e-05
-9.53407e-05
3.35895e-05
-9.92194e-05
3.70011e-05
-0.000103698
3.99981e-05
-0.000108826
4.24472e-05
-0.000114383
4.44247e-05
-0.000120189
3.3248e-06
-6.95181e-05
-6.60698e-08
-1.41121e-06
-3.26984e-09
5.25264e-08
-2.03099e-10
1.62216e-09
-1.25165e-11
6.49766e-11
-1.22173e-12
4.66255e-12
-9.34084e-14
4.08438e-13
3.98649e-14
1.01856e-13
2.84517e-14
5.54581e-14
1.50052e-14
2.21855e-14
8.44645e-15
6.17633e-15
4.03463e-06
-8.65503e-05
7.7762e-06
-8.98345e-05
1.15845e-05
-8.95736e-05
1.535e-05
-9.09878e-05
1.90163e-05
-9.30271e-05
2.25463e-05
-9.55908e-05
2.58949e-05
-9.86894e-05
2.90054e-05
-0.00010233
3.1811e-05
-0.000106504
3.42279e-05
-0.000111243
3.61579e-05
-0.000116313
3.76954e-05
-0.000121726
1.24757e-06
-5.97648e-05
-2.83106e-08
-7.07244e-07
-1.38622e-09
3.21512e-08
-7.84908e-11
6.30236e-10
-4.28764e-12
2.34504e-11
-3.63719e-13
1.69613e-12
-1.15997e-14
1.92918e-13
1.83011e-14
5.61899e-14
8.95443e-15
2.15365e-14
3.4804e-15
6.55585e-15
2.13958e-15
1.24936e-15
3.52782e-06
-9.00782e-05
6.73937e-06
-9.30461e-05
1.00251e-05
-9.28593e-05
1.32588e-05
-9.42216e-05
1.63864e-05
-9.61548e-05
1.9371e-05
-9.85755e-05
2.21714e-05
-0.00010149
2.47382e-05
-0.000104897
2.70175e-05
-0.000108783
2.89446e-05
-0.00011317
3.04574e-05
-0.000117826
3.16705e-05
-0.00012294
3.69314e-07
-5.06673e-05
-1.75732e-08
-3.43908e-07
-6.78207e-10
1.47512e-08
-2.57218e-11
1.84279e-10
-1.36703e-12
8.57502e-12
-1.03149e-13
6.23261e-13
4.49554e-15
8.09966e-14
5.99528e-15
2.12465e-14
2.27896e-15
6.31843e-15
7.6703e-16
1.7378e-15
4.86474e-16
2.29772e-16
3.0416e-06
-9.312e-05
5.75482e-06
-9.57596e-05
8.5463e-06
-9.5651e-05
1.12807e-05
-9.69562e-05
1.39072e-05
-9.87815e-05
1.63901e-05
-0.000101059
1.86917e-05
-0.000103792
2.07696e-05
-0.000106975
2.25803e-05
-0.000110595
2.40741e-05
-0.000114665
2.52317e-05
-0.000118984
2.61775e-05
-0.000123887
2.24837e-07
-4.22404e-05
-9.1372e-09
-1.23397e-07
-1.62801e-10
6.33419e-09
-5.75601e-12
5.77132e-11
-4.68004e-13
3.2307e-12
-2.45794e-14
2.22181e-13
3.29422e-15
3.26052e-14
1.57624e-15
6.66877e-15
5.32482e-16
1.778e-15
1.52531e-16
4.22184e-16
9.53251e-17
3.45194e-17
2.57536e-06
-9.56962e-05
4.82265e-06
-9.80077e-05
7.14809e-06
-9.79774e-05
9.41528e-06
-9.92244e-05
1.15743e-05
-0.000100942
1.35933e-05
-0.000103079
1.54376e-05
-0.000105638
1.70711e-05
-0.00010861
1.8457e-05
-0.000111982
1.95554e-05
-0.000115765
2.03888e-05
-0.000119821
2.09915e-05
-0.000124493
2.14361e-07
-3.36046e-05
-5.55199e-09
9.45947e-08
-1.16615e-11
7.66324e-10
-7.426e-13
1.04857e-11
-1.49727e-13
1.09389e-12
-3.1131e-15
8.39944e-14
1.2767e-15
1.2449e-14
3.91772e-16
2.0152e-15
1.17451e-16
4.97249e-16
2.60335e-17
9.33565e-17
1.7652e-17
4.61197e-18
2.13587e-06
-9.78354e-05
3.94677e-06
-9.98221e-05
5.83094e-06
-9.98651e-05
7.66056e-06
-0.000101058
9.38526e-06
-0.00010267
1.09761e-05
-0.000104674
1.23987e-05
-0.000107065
1.36211e-05
-0.000109838
1.46112e-05
-0.000112978
1.53336e-05
-0.000116494
1.58447e-05
-0.000120343
1.57084e-05
-0.000124366
5.38013e-08
-2.42153e-05
-1.12542e-09
1.50332e-07
-5.41282e-12
8.28385e-11
-1.6042e-13
1.044e-11
-5.4608e-14
6.83568e-13
5.39076e-16
5.10026e-14
4.38154e-16
4.39772e-15
9.02277e-17
6.14015e-16
2.46184e-17
1.39445e-16
4.13401e-18
2.09683e-17
3.28635e-18
5.61858e-19
1.76686e-06
-9.96145e-05
3.14575e-06
-0.000101213
4.62074e-06
-0.000101353
6.04535e-06
-0.000102496
7.37623e-06
-0.000104015
8.58196e-06
-0.000105894
9.6242e-06
-0.000108123
1.04617e-05
-0.000110692
1.10514e-05
-0.000113585
1.13137e-05
-0.000116775
1.13133e-05
-0.000120373
9.41654e-06
-0.000122483
-9.83554e-08
-1.68564e-05
2.20191e-10
5.46192e-08
-1.08898e-11
1.34474e-09
-1.60108e-12
3.24066e-11
-8.47096e-14
1.46277e-12
-4.36098e-16
5.06467e-14
8.53886e-17
2.00338e-15
3.77348e-17
1.99054e-16
5.12949e-18
4.79558e-17
6.157e-19
5.40992e-18
6.32118e-19
5.73701e-20
1.40186e-06
-0.000101062
2.3854e-06
-0.000102242
3.5294e-06
-0.000102543
4.60717e-06
-0.000103621
5.60264e-06
-0.00010506
6.48162e-06
-0.000106825
7.20321e-06
-0.000108898
7.70727e-06
-0.000111252
7.92032e-06
-0.000113856
7.61486e-06
-0.000116528
6.61781e-06
-0.000119459
2.89755e-06
-0.000118695
-6.60269e-08
-1.61406e-05
-9.56436e-10
5.06901e-09
2.07054e-12
1.36545e-09
5.19558e-13
1.15837e-10
-1.84067e-14
5.07009e-12
-2.53884e-15
1.69421e-13
2.3211e-17
4.57046e-15
5.36364e-18
1.08784e-16
2.27528e-18
2.34928e-17
9.1761e-20
1.80283e-18
1.31391e-19
2.91491e-21
1.054e-06
-0.000102317
1.70133e-06
-0.000103086
2.51414e-06
-0.000103544
3.2732e-06
-0.000104555
3.9588e-06
-0.000105899
4.54054e-06
-0.000107529
4.97873e-06
-0.000109416
5.21495e-06
-0.000111487
5.18507e-06
-0.000113722
4.68067e-06
-0.0001157
3.18531e-06
-0.000117452
1.86581e-06
-0.000115758
-3.19573e-07
-2.56481e-05
6.19266e-09
-3.26901e-07
8.82394e-10
6.39136e-09
3.57757e-11
9.46518e-10
5.08014e-13
3.74275e-11
7.07422e-15
7.94322e-13
-1.34515e-17
1.46379e-14
2.0731e-18
1.93789e-16
4.09296e-19
1.2823e-17
1.04574e-20
6.3915e-19
2.80037e-20
-2.63468e-22
5.56487e-07
-8.63767e-05
8.79412e-07
-8.63603e-05
1.28378e-06
-8.61175e-05
1.64893e-06
-8.58268e-05
1.94976e-06
-8.53751e-05
2.16249e-06
-8.46332e-05
2.26381e-06
-8.35696e-05
2.24716e-06
-8.22444e-05
2.08528e-06
-8.07493e-05
2.40096e-06
-7.6468e-05
2.77971e-06
-7.17642e-05
6.39346e-06
-4.91524e-05
-5.88054e-07
-2.31932e-05
9.78088e-08
-2.00991e-06
2.01219e-08
7.78039e-08
9.46829e-10
1.9667e-08
2.03158e-11
9.46644e-10
3.56416e-13
2.0465e-11
1.78278e-15
3.64908e-13
-1.96842e-18
2.24727e-15
7.78272e-22
6.01046e-18
-1.12992e-22
1.8642e-19
5.05473e-21
-9.04541e-25
-7.83893e-08
-2.12832e-06
-2.16345e-07
-1.85436e-06
-3.17787e-07
-1.39037e-06
-4.43906e-07
-7.28877e-07
-5.76048e-07
-5.77015e-17
-7.04015e-07
-1.28139e-15
-8.05608e-07
-2.02772e-14
-8.43601e-07
-2.59495e-13
-8.34144e-07
-2.79565e-12
1.7409e-08
-2.61105e-11
1.66114e-06
-2.31374e-10
1.84631e-06
-2.1448e-09
3.65585e-06
-2.6263e-08
3.83541e-08
-2.01492e-06
2.68933e-08
9.38588e-08
9.31145e-10
4.58537e-08
7.20776e-12
1.87324e-09
-1.24804e-13
3.03046e-11
-2.75945e-15
2.43772e-13
-2.04953e-18
4.30434e-16
-1.88091e-20
9.80971e-18
-4.95562e-22
4.05952e-20
6.94219e-22
-3.80747e-23
-6.60475e-09
-9.92144e-23
-1.10948e-08
-1.21235e-21
-8.77663e-09
-3.67154e-20
-9.84949e-19
-1.02998e-18
-2.50555e-17
-7.61824e-18
-4.7177e-16
-1.72685e-16
-6.8699e-15
-3.20464e-15
-7.79583e-14
-4.7666e-14
-6.92667e-13
-6.21519e-13
-3.32973e-12
-8.44599e-12
3.31367e-12
-9.80833e-11
6.81348e-11
-1.05614e-09
1.23185e-09
-1.93788e-08
3.02244e-07
-5.0183e-07
-1.20992e-08
1.64585e-07
-6.94478e-10
3.49368e-08
-2.83559e-11
7.14583e-10
-2.242e-13
2.09719e-11
-3.92679e-16
2.00129e-14
-1.43164e-18
3.50731e-17
-6.99945e-21
1.6892e-18
-1.38832e-22
4.71256e-21
8.08434e-23
-1.01476e-23
-3.9838e-24
-8.80533e-24
-3.83817e-22
-1.76214e-22
-1.69857e-20
-8.77211e-21
-4.42817e-19
-2.93776e-19
-3.14055e-18
-4.00678e-18
-6.22266e-17
-8.69054e-17
-9.01844e-16
-1.84969e-15
-3.89233e-15
-3.70271e-14
1.06562e-13
-6.41908e-13
2.91782e-12
-1.0429e-11
4.51764e-11
-1.34473e-10
1.86452e-10
-1.16687e-09
-7.17944e-09
-9.3368e-09
-1.87995e-07
-3.48094e-08
-3.34025e-08
1.6633e-08
-6.36899e-10
2.28234e-09
-1.55929e-11
9.65147e-11
-1.56529e-14
2.21218e-12
-3.06215e-17
4.3619e-15
-2.42888e-19
3.82823e-18
-1.35312e-21
6.72621e-20
-2.62392e-23
4.61911e-22
8.76438e-24
-1.75724e-24
-1.33976e-25
-4.14739e-25
-6.43049e-23
-2.50012e-23
-1.07436e-21
-1.72393e-21
-4.16558e-20
-4.42531e-20
-1.2685e-18
-1.27078e-18
-2.49928e-17
-2.60967e-17
-8.21309e-16
-5.14787e-16
-1.8583e-14
-6.9167e-15
-4.58846e-13
-9.91192e-14
-8.46927e-12
-1.30142e-12
-1.17758e-10
-1.63973e-11
-1.05198e-09
-1.74783e-10
-9.19209e-09
-8.94191e-10
-7.04663e-08
-5.20024e-09
-9.40328e-09
2.75396e-09
-8.32991e-11
7.21115e-10
-1.92101e-12
1.56301e-11
-5.64594e-16
3.17024e-13
-3.20857e-18
1.16085e-16
-4.66873e-20
5.8127e-19
-2.11096e-22
5.4767e-21
-3.95286e-24
4.55861e-23
8.45807e-25
-2.35648e-25
-1.82403e-26
-5.82061e-27
-7.06571e-24
-5.0458e-25
-2.26303e-22
-2.23325e-23
-1.19958e-20
-6.19676e-22
-4.69591e-19
-1.29222e-20
-1.64259e-17
-1.90932e-19
-1.26353e-16
-2.75903e-18
-1.3588e-15
-6.26142e-17
-3.50695e-14
-1.59924e-15
-1.15218e-12
-3.27438e-14
-1.67272e-11
-3.4913e-13
-1.85162e-10
-3.25343e-12
-8.7935e-10
-1.44357e-11
-3.6356e-09
-1.10642e-10
-8.63248e-10
8.75351e-11
-1.49059e-11
3.39375e-11
-2.99541e-13
1.08201e-12
7.3088e-17
2.54405e-14
-2.04689e-20
-6.81026e-17
-5.9763e-21
2.35704e-20
-2.61307e-23
4.82431e-22
-4.76545e-25
3.67414e-24
7.14387e-26
-2.7511e-26
-4.23195e-28
3.85725e-28
-6.40073e-26
4.42927e-26
-3.64917e-24
2.26216e-24
-1.57652e-22
6.7078e-23
-3.86495e-21
1.36915e-21
-4.94409e-20
2.06033e-20
-2.60476e-18
2.51005e-19
-3.1997e-17
3.60898e-18
-1.25589e-15
4.0432e-17
-2.79957e-14
3.37942e-16
-3.63169e-13
2.01392e-15
-3.72229e-12
5.96736e-15
-1.52277e-11
-1.09886e-13
-1.24589e-10
-9.53569e-13
-3.49106e-11
1.05415e-13
-1.07212e-12
2.69394e-13
-2.36314e-14
2.6832e-14
3.74892e-17
2.76912e-15
4.88566e-21
-2.69566e-17
-3.26322e-22
-4.3741e-21
-2.45449e-24
3.61954e-23
-5.01577e-26
2.32426e-25
5.70099e-27
-2.85706e-27
2.48105e-27
1.30091e-29
2.57294e-25
1.13412e-27
1.15223e-23
3.68025e-26
3.19162e-22
6.58284e-25
6.15361e-21
4.89827e-24
9.29432e-20
-4.24654e-23
1.62653e-18
-9.27326e-22
2.20878e-17
-1.67406e-20
2.25385e-16
-2.51984e-19
1.64193e-15
-3.17749e-18
6.20923e-15
-3.35988e-17
-3.60237e-14
-2.86026e-16
-1.41093e-13
-4.81666e-15
-1.0766e-12
-2.75446e-14
-8.20711e-13
-6.66484e-15
-2.63816e-14
4.86649e-15
-1.17611e-16
3.31687e-16
5.85344e-18
2.80393e-17
8.33838e-22
-3.4192e-18
-2.44564e-23
-6.12526e-22
-2.14531e-25
2.11297e-24
-4.64887e-27
1.38812e-26
4.13782e-28
-2.61734e-28
6.67388e-29
1.65969e-32
4.382e-27
-2.05351e-31
1.19262e-25
-1.46814e-29
1.20856e-24
-6.70448e-28
-1.34827e-23
-2.33841e-26
-5.47619e-23
-1.18619e-24
-9.55467e-22
-2.66216e-23
-1.85304e-20
-4.6472e-22
-3.09274e-19
-6.74973e-21
-4.37348e-18
-8.29299e-20
-5.30065e-17
-8.32128e-19
-4.80761e-16
-6.78426e-18
-9.48122e-15
-6.23656e-17
-6.78748e-14
-4.2666e-16
-2.15554e-14
-5.06981e-16
-7.28473e-16
8.94457e-17
1.02712e-17
6.29042e-18
4.82655e-19
-3.58186e-18
9.01428e-23
-2.31791e-19
-1.4842e-24
-5.55588e-23
-1.58858e-26
7.91284e-26
-4.09678e-28
6.13113e-28
2.70808e-29
-2.11123e-29
-1.2566e-32
1.09375e-36
-2.15508e-31
-2.14413e-33
-1.04709e-29
-1.5965e-31
-6.55589e-28
-7.84983e-30
-2.29841e-26
-2.86431e-28
-1.20951e-24
-8.10616e-27
-2.78587e-23
-1.89901e-25
-4.93235e-22
-3.47983e-24
-7.25921e-21
-5.35803e-23
-9.03797e-20
-7.01201e-22
-9.25739e-19
-7.60987e-21
-1.01632e-17
-5.9707e-20
-2.92154e-16
-7.3664e-19
-1.13732e-15
-4.46668e-18
-2.60121e-16
-4.30549e-18
-5.46861e-17
6.16499e-20
6.45983e-19
1.03886e-18
2.67843e-20
-1.77699e-19
5.51011e-24
-1.06522e-20
-7.69676e-26
-2.88808e-24
-8.13617e-28
2.75336e-27
-2.78842e-29
3.30746e-29
1.60317e-30
-1.50716e-30
-7.36238e-35
-2.42515e-39
-2.21705e-33
-7.03098e-37
-1.61881e-31
-5.46804e-35
-8.01281e-30
-2.81077e-33
-2.94484e-28
-1.07716e-31
-8.40176e-27
-3.20807e-30
-1.98326e-25
-7.8534e-29
-3.71342e-24
-1.58007e-27
-5.68743e-23
-2.59145e-26
-7.52122e-22
-3.66187e-25
-8.34615e-21
-4.32227e-24
-1.18461e-19
-3.73884e-23
-3.51172e-18
-4.01576e-22
-1.20441e-17
-3.83674e-21
-7.73314e-19
-1.84089e-20
-1.00834e-18
-5.54084e-21
1.54022e-20
6.95945e-21
1.05149e-21
-3.27628e-21
2.13746e-25
-3.46628e-22
-3.52233e-27
-9.61168e-26
-3.78981e-29
1.05484e-28
-1.77811e-30
1.47692e-30
8.15832e-32
-9.56404e-32
-2.44738e-39
2.22274e-41
-7.08228e-37
2.67891e-39
-5.4783e-35
1.31254e-37
-2.86595e-33
2.55351e-36
-1.10503e-31
-2.21245e-35
-3.32144e-30
-4.52886e-33
-8.69892e-29
-1.60149e-31
-1.54907e-27
-3.31516e-30
-2.56025e-26
-5.88181e-29
-3.65732e-25
-9.10792e-28
-4.41448e-24
-1.18568e-26
-5.40449e-23
-1.29648e-25
-8.80735e-22
-1.48685e-24
-2.37533e-20
-1.69073e-23
-1.11599e-19
-1.27745e-22
-1.62756e-20
-1.24157e-22
-7.38227e-23
5.93467e-24
2.97506e-23
3.31267e-24
4.40949e-27
-8.07035e-24
-1.39253e-28
-1.70817e-27
-1.91479e-30
3.2742e-30
-9.84829e-32
6.25269e-32
3.6701e-33
-5.36398e-33
1.67008e-40
6.02031e-44
1.66963e-38
6.54809e-42
4.96645e-37
2.78133e-40
-4.94104e-36
7.03809e-39
-7.65402e-34
9.91848e-38
-1.19563e-32
-4.65372e-38
-1.1183e-31
-4.34759e-35
-2.29226e-30
-1.28424e-33
-4.46503e-29
-2.6934e-32
-7.5908e-28
-4.97001e-31
-1.19485e-26
-8.17125e-30
-1.73989e-25
-1.17798e-28
-2.98158e-24
-1.53155e-27
-1.11796e-22
-2.04451e-26
-7.37027e-22
-2.03547e-25
-5.07587e-23
-3.15327e-25
-1.39782e-23
-2.47379e-27
6.04111e-25
5.50735e-25
-4.57421e-29
-1.32677e-25
-3.33516e-30
1.52696e-29
-8.89081e-32
9.28706e-32
-4.78879e-33
2.34798e-33
1.46542e-34
-2.66529e-34
4.02485e-43
5.97696e-50
3.47938e-41
-1.82528e-47
1.34799e-39
-1.76734e-45
2.60343e-38
-1.13376e-43
-1.82933e-38
-5.42077e-42
-1.7661e-35
-3.91925e-40
-1.74519e-34
-1.05311e-38
-1.46732e-33
-1.86455e-37
-2.90942e-32
-4.16714e-36
-5.58126e-31
-8.67579e-35
-9.27355e-30
-1.57165e-33
-1.50048e-28
-2.49625e-32
-2.82077e-27
-3.72666e-31
-1.24995e-25
-4.69581e-30
-1.14009e-24
-6.14571e-29
-4.08322e-25
-6.6077e-28
-1.53743e-25
-7.19832e-28
7.57862e-27
8.3674e-29
-5.0936e-30
-1.30895e-27
-1.82957e-31
2.21095e-31
-3.4005e-33
2.59057e-33
-2.02137e-34
7.82829e-35
5.12903e-36
-1.17374e-35
-1.09583e-48
-3.09842e-53
-1.93345e-47
-1.41892e-50
-1.78515e-45
-1.51822e-48
-1.15053e-43
-1.07785e-46
-5.53011e-42
-5.71454e-45
-3.98004e-40
-2.40683e-43
-1.09506e-38
-7.1965e-42
-1.97768e-37
-1.43575e-40
-4.39344e-36
-3.52149e-39
-9.26815e-35
-8.2561e-38
-1.68062e-33
-1.66285e-36
-3.10179e-32
-2.97039e-35
-5.45004e-31
-5.25857e-34
-9.92029e-30
-7.87912e-33
-5.11016e-28
-1.24147e-31
-6.27374e-27
-1.78685e-30
-6.35163e-28
-3.37273e-30
6.02487e-29
1.92345e-31
-1.98581e-31
-7.77136e-30
-5.7597e-33
2.45119e-33
-1.41223e-34
6.97221e-35
-7.48824e-36
2.88877e-36
1.5843e-37
-4.59005e-37
-8.53003e-53
-6.6898e-58
-1.42749e-50
-1.60561e-55
-1.53251e-48
-1.90907e-53
-1.09318e-46
-1.50804e-51
-5.82386e-45
-8.90743e-50
-2.46506e-43
-4.18725e-48
-7.43711e-42
-1.40651e-46
-1.47188e-40
-3.10887e-45
-3.67804e-39
-8.68372e-44
-8.69244e-38
-2.30197e-42
-1.80575e-36
-5.34485e-41
-3.47465e-35
-1.073e-39
-7.13569e-34
-2.19923e-38
-1.48484e-32
-3.89491e-37
-9.41432e-31
-6.07101e-36
-1.50292e-29
-9.58821e-35
-6.30571e-31
-1.48586e-33
2.02309e-31
-1.51257e-33
-4.608e-33
-1.75852e-32
-1.63377e-34
2.75304e-35
-4.73241e-36
1.58822e-36
-2.41468e-37
7.14156e-38
4.28997e-39
-1.59642e-38
-6.69511e-58
-2.1868e-61
-1.61288e-55
-5.93036e-59
-1.9259e-53
-7.94141e-57
-1.5273e-51
-7.06627e-55
-9.05783e-50
-4.706e-53
-4.27574e-48
-2.49853e-51
-1.40426e-46
-9.2529e-50
-3.19711e-45
-2.37766e-48
-9.00383e-44
-7.54577e-47
-2.48816e-42
-2.34928e-45
-6.01501e-41
-6.4105e-44
-1.15428e-39
-1.44802e-42
-2.82479e-38
-3.38082e-41
-5.99673e-37
-7.28842e-40
-1.29195e-35
-1.37581e-38
-9.11174e-34
-2.64839e-37
-2.33844e-32
-5.64214e-36
-8.0631e-34
-1.32534e-35
-8.21658e-35
1.97831e-35
-3.90749e-36
1.86422e-37
-1.19099e-37
2.69223e-38
-6.60139e-39
1.36067e-39
1.01408e-40
-4.92139e-40
-2.18711e-61
-1.63013e-65
-5.95303e-59
-5.07122e-63
-7.86276e-57
-7.62489e-61
-6.97774e-55
-7.69465e-59
-4.64645e-53
-5.83487e-57
-2.48601e-51
-3.57702e-55
-8.769e-50
-1.46215e-53
-2.4078e-48
-4.59393e-52
-8.70741e-47
-1.88985e-50
-2.70108e-45
-6.80753e-49
-7.45454e-44
-2.16133e-47
-1.50552e-42
-5.48009e-46
-3.95796e-41
-1.46376e-44
-1.00534e-39
-3.77538e-43
-2.52698e-38
-8.71947e-42
-2.19357e-36
-2.05024e-40
-7.59034e-35
-5.71886e-39
-3.42098e-36
-1.97555e-38
-6.74846e-37
3.71114e-41
-6.0979e-38
9.45874e-40
-2.4619e-39
2.8119e-40
-1.60159e-40
2.30066e-41
2.24793e-42
-1.36026e-41
-1.63013e-65
-3.37406e-71
-2.58459e-63
-6.20241e-69
-4.0517e-61
-1.11253e-66
-4.48197e-59
-1.3763e-64
-3.90024e-57
-1.30702e-62
-2.72257e-55
-9.81026e-61
-1.45069e-53
-5.83259e-59
-6.40444e-52
-2.95864e-57
-2.40667e-50
-1.31685e-55
-8.13155e-49
-5.24685e-54
-2.24066e-47
-1.8305e-52
-5.6992e-46
-5.47219e-51
-1.51721e-44
-1.71626e-49
-4.6266e-43
-5.10981e-48
-1.38367e-41
-1.46969e-46
-1.49375e-39
-3.73464e-45
-6.74626e-38
-9.36531e-44
-4.22844e-40
-2.75238e-42
-2.54096e-39
-4.92146e-42
-7.15054e-40
3.00192e-42
-4.23724e-41
2.51218e-42
-3.51718e-42
3.37244e-43
4.59673e-44
-3.36302e-43
-2.7627e-71
-3.22512e-75
-6.37249e-69
-8.67487e-73
-1.20274e-66
-1.91415e-70
-1.51056e-64
-2.81962e-68
-1.28415e-62
-2.95661e-66
-8.59613e-61
-2.48405e-64
-5.09979e-59
-1.76026e-62
-2.6361e-57
-1.07705e-60
-1.19294e-55
-5.77611e-59
-4.90338e-54
-2.79576e-57
-1.71493e-52
-1.17244e-55
-5.40904e-51
-4.40459e-54
-1.72456e-49
-1.67754e-52
-5.60403e-48
-6.01713e-51
-1.92501e-46
-2.06369e-49
-6.49273e-45
-6.67489e-48
-8.13159e-43
-2.1075e-46
-5.59053e-41
-8.53742e-45
-1.41033e-41
-3.27844e-44
-5.94618e-42
4.54931e-45
-6.11396e-43
1.82881e-44
-6.66872e-44
4.34242e-45
8.30836e-46
-7.44994e-45
-1.99034e-75
-8.12944e-81
-9.25773e-73
-1.26685e-77
-1.85131e-70
-3.85232e-75
-2.32302e-68
-6.4279e-73
-2.55469e-66
-8.55421e-71
-2.22606e-64
-9.05094e-69
-1.62172e-62
-8.0328e-67
-1.01335e-60
-6.13167e-65
-5.51217e-59
-4.0848e-63
-2.69482e-57
-2.45168e-61
-1.12794e-55
-1.26239e-59
-4.42462e-54
-6.10857e-58
-1.69328e-52
-2.88886e-56
-6.1041e-51
-1.28971e-54
-2.2963e-49