/*--------------------------------*- C++ -*----------------------------------*\
| =========                 |                                                 |
| \\      /  F ield         | OpenFOAM: The Open Source CFD Toolbox           |
|  \\    /   O peration     | Version:  2206                                  |
|   \\  /    A nd           | Website:  www.openfoam.com                      |
|    \\/     M anipulation  |                                                 |
\*---------------------------------------------------------------------------*/
FoamFile
{
    version     2.0;
    format      ascii;
    arch        "LSB;label=32;scalar=64";
    class       surfaceScalarField;
    location    "0.075";
    object      phi;
}
// * * * * * * * * * * * * * * * * * * * * * * * * * * * * * * * * * * * * * //

dimensions      [0 3 -1 0 0 0 0];

oriented        oriented;

internalField   nonuniform List<scalar> 
4432
(
4.19024e-06
-4.19024e-06
8.89742e-06
-4.70719e-06
1.35283e-05
-4.63083e-06
1.82761e-05
-4.74785e-06
2.32482e-05
-4.97214e-06
2.85181e-05
-5.26988e-06
3.41733e-05
-5.65516e-06
4.03155e-05
-6.14226e-06
4.71151e-05
-6.79954e-06
5.46512e-05
-7.53616e-06
6.33613e-05
-8.71016e-06
7.34709e-05
-1.01095e-05
8.5181e-05
-1.17101e-05
9.68902e-05
-1.17093e-05
0.000106917
-1.00268e-05
0.000116909
-9.99184e-06
0.000129806
-1.28975e-05
0.000137472
-7.66524e-06
0.000122684
1.47874e-05
9.96596e-05
2.30246e-05
7.12003e-05
2.84596e-05
3.91754e-05
3.20242e-05
3.91759e-05
4.1966e-06
-8.3868e-06
8.89338e-06
-9.40401e-06
1.35203e-05
-9.25783e-06
1.82612e-05
-9.48865e-06
2.32216e-05
-9.93253e-06
2.84759e-05
-1.05242e-05
3.41097e-05
-1.1289e-05
4.02289e-05
-1.22616e-05
4.69728e-05
-1.35434e-05
5.44858e-05
-1.50491e-05
6.31162e-05
-1.73406e-05
7.2883e-05
-1.98763e-05
8.42492e-05
-2.30763e-05
9.71901e-05
-2.46501e-05
0.000110634
-2.34706e-05
0.000124027
-2.33846e-05
0.000137942
-2.68129e-05
0.000155583
-2.53059e-05
0.000166911
3.45879e-06
0.000157732
3.2204e-05
0.000131507
5.46847e-05
8.09624e-05
8.25689e-05
0.000120138
4.18342e-06
-1.25702e-05
8.84816e-06
-1.40688e-05
1.34467e-05
-1.38564e-05
1.81566e-05
-1.41985e-05
2.30796e-05
-1.48555e-05
2.82888e-05
-1.57334e-05
3.38666e-05
-1.68667e-05
3.9917e-05
-1.8312e-05
4.65608e-05
-2.01872e-05
5.39751e-05
-2.24635e-05
6.24345e-05
-2.58e-05
7.18921e-05
-2.93339e-05
8.34636e-05
-3.46478e-05
9.86873e-05
-3.98738e-05
0.00011594
-4.0723e-05
0.000129391
-3.6836e-05
0.000134599
-3.20207e-05
0.000137201
-2.79085e-05
0.000143018
-2.35727e-06
0.000139893
3.53284e-05
0.000117253
7.73246e-05
6.72118e-05
0.00013261
0.00018735
4.16033e-06
-1.67305e-05
8.78005e-06
-1.86885e-05
1.33363e-05
-1.84127e-05
1.80011e-05
-1.88632e-05
2.28708e-05
-1.97252e-05
2.80156e-05
-2.08783e-05
3.35136e-05
-2.23647e-05
3.94641e-05
-2.42624e-05
4.59758e-05
-2.66989e-05
5.32311e-05
-2.97188e-05
6.14802e-05
-3.40492e-05
7.06529e-05
-3.85066e-05
8.20159e-05
-4.60108e-05
9.76045e-05
-5.54623e-05
0.000115598
-5.87165e-05
0.000125684
-4.69225e-05
0.000125988
-3.23246e-05
0.000121391
-2.33113e-05
0.000116368
2.66568e-06
0.000105542
4.61549e-05
8.20616e-05
0.000100805
4.27505e-05
0.000171921
0.000230101
4.12767e-06
-2.08582e-05
8.68931e-06
-2.32501e-05
1.31902e-05
-2.29135e-05
1.77959e-05
-2.34689e-05
2.25967e-05
-2.4526e-05
2.76586e-05
-2.59403e-05
3.30544e-05
-2.77604e-05
3.88769e-05
-3.00849e-05
4.52204e-05
-3.30425e-05
5.22669e-05
-3.67652e-05
6.02182e-05
-4.20005e-05
6.90314e-05
-4.73198e-05
8.01343e-05
-5.71137e-05
9.55254e-05
-7.08533e-05
0.000113246
-7.6437e-05
0.000119227
-5.29035e-05
0.000115222
-2.832e-05
0.000104376
-1.2465e-05
8.85746e-05
1.84668e-05
6.77542e-05
6.69751e-05
4.39772e-05
0.000124582
1.95292e-05
0.00019637
0.00024963
4.08599e-06
-2.49442e-05
8.57805e-06
-2.77421e-05
1.30119e-05
-2.73473e-05
1.75463e-05
-2.80033e-05
2.22649e-05
-2.92446e-05
2.7229e-05
-3.09044e-05
3.2505e-05
-3.30364e-05
3.81792e-05
-3.5759e-05
4.43275e-05
-3.91909e-05
5.11299e-05
-4.35676e-05
5.87208e-05
-4.95915e-05
6.70537e-05
-5.56527e-05
7.77122e-05
-6.77722e-05
9.2257e-05
-8.53981e-05
0.000107948
-9.21277e-05
0.000111141
-5.60968e-05
0.000102315
-1.9494e-05
8.37179e-05
6.13176e-06
5.98333e-05
4.23512e-05
3.58357e-05
9.09725e-05
1.61835e-05
0.000144235
6.36547e-06
0.000206188
0.000255995
4.03922e-06
-2.89834e-05
8.45104e-06
-3.21539e-05
1.28094e-05
-3.17058e-05
1.72653e-05
-3.24591e-05
2.18945e-05
-3.38738e-05
2.67536e-05
-3.57635e-05
3.19037e-05
-3.81865e-05
3.74233e-05
-4.12786e-05
4.33767e-05
-4.51442e-05
4.99326e-05
-5.01235e-05
5.71358e-05
-5.67947e-05
6.488e-05
-6.33969e-05
7.47265e-05
-7.76187e-05
8.77214e-05
-9.8393e-05
9.87824e-05
-0.000103189
0.000100238
-5.75528e-05
8.65787e-05
-5.83458e-06
6.21064e-05
3.06037e-05
3.60974e-05
6.83608e-05
1.68469e-05
0.000110223
5.93648e-06
0.000155145
5.85099e-06
0.000206273
0.000261846
3.98993e-06
-3.29734e-05
8.30692e-06
-3.64709e-05
1.25836e-05
-3.59824e-05
1.69555e-05
-3.68311e-05
2.14904e-05
-3.84087e-05
2.62394e-05
-4.05126e-05
3.12588e-05
-4.32058e-05
3.66184e-05
-4.66383e-05
4.23725e-05
-5.08983e-05
4.86991e-05
-5.64501e-05
5.54949e-05
-6.35905e-05
6.25357e-05
-7.04377e-05
7.14007e-05
-8.64837e-05
8.25495e-05
-0.000109542
8.95912e-05
-0.000110231
8.71993e-05
-5.51612e-05
6.92027e-05
1.21618e-05
4.36252e-05
5.61816e-05
2.18062e-05
9.01804e-05
9.89714e-06
0.000122132
6.39753e-06
0.000158645
9.81275e-06
0.000202858
0.000271659
3.17505e-06
-3.17505e-06
6.64183e-06
-3.46745e-06
9.0664e-06
-2.42439e-06
1.03883e-05
-1.32177e-06
1.08692e-05
-4.81205e-07
1.07755e-05
9.39046e-08
1.03237e-05
4.52221e-07
9.65655e-06
6.66925e-07
8.8661e-06
7.9036e-07
8.00658e-06
8.59558e-07
7.11282e-06
8.93596e-07
6.20523e-06
9.07266e-07
5.29722e-06
9.08352e-07
4.39427e-06
9.02516e-07
3.49947e-06
8.94422e-07
2.61408e-06
8.85457e-07
1.73578e-06
8.77948e-07
8.64865e-07
8.71275e-07
8.6441e-07
3.2807e-06
-6.45542e-06
6.98052e-06
-7.1679e-06
9.52268e-06
-4.96683e-06
1.08635e-05
-2.66196e-06
1.13384e-05
-9.56032e-07
1.12493e-05
1.82829e-07
1.07987e-05
9.03293e-07
1.01133e-05
1.35221e-06
9.2902e-06
1.61316e-06
8.39099e-06
1.75858e-06
7.45442e-06
1.83019e-06
6.50272e-06
1.85801e-06
5.55057e-06
1.86055e-06
4.60411e-06
1.84884e-06
3.66626e-06
1.83161e-06
2.73866e-06
1.81338e-06
1.8184e-06
1.79764e-06
9.05371e-07
1.78558e-06
1.76938e-06
3.27397e-06
-9.72921e-06
7.26915e-06
-1.11634e-05
9.89154e-06
-7.58958e-06
1.11638e-05
-3.93371e-06
1.15386e-05
-1.33053e-06
1.13555e-05
3.6587e-07
1.08311e-05
1.42822e-06
1.01016e-05
2.0816e-06
9.25493e-06
2.45928e-06
8.34538e-06
2.66763e-06
7.40653e-06
2.76931e-06
6.45713e-06
2.80688e-06
5.50976e-06
2.80794e-06
4.56961e-06
2.78889e-06
3.63853e-06
2.76195e-06
2.71794e-06
2.73425e-06
1.80463e-06
2.71034e-06
8.98625e-07
2.69268e-06
2.66763e-06
3.22961e-06
-1.29588e-05
7.73741e-06
-1.56712e-05
1.04778e-05
-1.03303e-05
1.16234e-05
-5.0788e-06
1.18447e-05
-1.55151e-06
1.1546e-05
6.6444e-07
1.09407e-05
2.03375e-06
1.01595e-05
2.86274e-06
9.28097e-06
3.33763e-06
8.35265e-06
3.59566e-06
7.40354e-06
3.71879e-06
6.44913e-06
3.76076e-06
5.49978e-06
3.757e-06
4.55975e-06
3.72886e-06
3.62988e-06
3.69121e-06
2.71113e-06
3.65337e-06
1.80001e-06
3.62088e-06
8.96311e-07
3.59732e-06
3.56361e-06
3.07855e-06
-1.60375e-05
8.40868e-06
-2.10011e-05
1.13139e-05
-1.32358e-05
1.22519e-05
-6.0165e-06
1.22495e-05
-1.54874e-06
1.17943e-05
1.11954e-06
1.10853e-05
2.74289e-06
1.02392e-05
3.70908e-06
9.32066e-06
4.25623e-06
8.36838e-06
4.54764e-06
7.40554e-06
4.68183e-06
6.44397e-06
4.72184e-06
5.49128e-06
4.70933e-06
4.55049e-06
4.66967e-06
3.6214e-06
4.61983e-06
2.70424e-06
4.57088e-06
1.79529e-06
4.52927e-06
8.93875e-07
4.49954e-06
4.45721e-06
3.1534e-06
-1.91911e-05
9.43602e-06
-2.72834e-05
1.24423e-05
-1.62424e-05
1.30523e-05
-6.62642e-06
1.2745e-05
-1.24113e-06
1.20893e-05
1.77526e-06
1.12552e-05
3.57724e-06
1.03319e-05
4.63262e-06
9.36654e-06
5.22175e-06
8.38624e-06
5.5275e-06
7.40731e-06
5.66083e-06
6.43732e-06
5.69152e-06
5.48077e-06
5.66557e-06
4.53908e-06
5.61142e-06
3.61094e-06
5.54754e-06
2.69572e-06
5.4864e-06
1.78945e-06
5.43503e-06
8.90853e-07
5.39881e-06
5.34785e-06
6.15506e-06
-2.53464e-05
1.18728e-05
-3.30009e-05
1.39978e-05
-1.83674e-05
1.40088e-05
-6.63729e-06
1.33162e-05
-5.48003e-07
1.24183e-05
2.67335e-06
1.14418e-05
4.55401e-06
1.04324e-05
5.64221e-06
9.41516e-06
6.2391e-06
8.4041e-06
6.53809e-06
7.40755e-06
6.65739e-06
6.42839e-06
6.67055e-06
5.46775e-06
6.62594e-06
4.52521e-06
6.55397e-06
3.59833e-06
6.47405e-06
2.68548e-06
6.39951e-06
1.78245e-06
6.33765e-06
8.87244e-07
6.29454e-06
6.23497e-06
1.56139e-05
-4.09605e-05
1.71988e-05
-3.45856e-05
1.61679e-05
-1.73365e-05
1.50769e-05
-5.54608e-06
1.39214e-05
6.07936e-07
1.27642e-05
3.8308e-06
1.16362e-05
5.68233e-06
1.05363e-05
6.74226e-06
9.46458e-06
7.31097e-06
8.42128e-06
7.58112e-06
7.40624e-06
7.67242e-06
6.41743e-06
7.65936e-06
5.45258e-06
7.59055e-06
4.50925e-06
7.49726e-06
3.58386e-06
7.39917e-06
2.67373e-06
7.30987e-06
1.77441e-06
7.23671e-06
8.83114e-07
7.18616e-06
7.11804e-06
8.25168e-06
-4.12251e-05
1.71082e-05
-4.53274e-05
2.58765e-05
-4.47508e-05
3.4837e-05
-4.57915e-05
4.41004e-05
-4.76722e-05
5.37516e-05
-5.01637e-05
6.38874e-05
-5.33416e-05
7.46022e-05
-5.7353e-05
8.60539e-05
-6.235e-05
9.82689e-05
-6.86651e-05
0.000111495
-7.68166e-05
0.000125801
-8.4744e-05
0.000142859
-0.000103542
0.000160047
-0.00012673
0.000161238
-0.000111421
0.00013798
-3.19033e-05
9.62626e-05
5.38795e-05
5.68507e-05
9.55932e-05
3.3733e-05
0.000113298
2.73495e-05
0.000128515
3.76923e-05
0.000148302
7.23371e-05
0.000168213
0.000186429
0.000157567
7.88461e-06
-4.91097e-05
1.61983e-05
-5.36412e-05
2.44504e-05
-5.30029e-05
3.28625e-05
-5.42036e-05
4.15055e-05
-5.63152e-05
5.04345e-05
-5.90927e-05
5.97074e-05
-6.26146e-05
6.93759e-05
-6.70215e-05
7.94941e-05
-7.24682e-05
9.00717e-05
-7.92427e-05
0.000101042
-8.77874e-05
0.00011249
-9.61911e-05
0.000125638
-0.00011669
0.000135806
-0.000136898
0.000124352
-9.9967e-05
8.80025e-05
4.44689e-06
5.62015e-05
8.56805e-05
3.96859e-05
0.000112108
3.5617e-05
0.000117367
4.15592e-05
0.000122573
6.08591e-05
0.000129002
9.6229e-05
0.000132844
0.000135766
0.000146892
7.45829e-06
-5.6568e-05
1.51739e-05
-6.13568e-05
2.28537e-05
-6.06827e-05
3.06609e-05
-6.20108e-05
3.86276e-05
-6.42819e-05
4.67815e-05
-6.72466e-05
5.51469e-05
-7.098e-05
6.37337e-05
-7.56083e-05
7.25298e-05
-8.12643e-05
8.1488e-05
-8.82009e-05
9.04012e-05
-9.67005e-05
9.92692e-05
-0.000105059
0.000108525
-0.000125946
0.000112771
-0.000141144
9.63936e-05
-8.35897e-05
5.35651e-05
4.72753e-05
3.53067e-05
0.000103939
3.36049e-05
0.00011381
3.75807e-05
0.000113392
4.6072e-05
0.000114083
6.05809e-05
0.000114493
8.10693e-05
0.000112355
0.000105555
0.00011128
6.98164e-06
-6.35496e-05
1.40643e-05
-6.84395e-05
2.11365e-05
-6.77548e-05
2.83023e-05
-6.91767e-05
3.55609e-05
-7.15404e-05
4.2917e-05
-7.46027e-05
5.03676e-05
-7.84306e-05
5.7889e-05
-8.31296e-05
6.54276e-05
-8.88029e-05
7.28866e-05
-9.56599e-05
8.00142e-05
-0.000103828
8.68138e-05
-0.000111859
9.32757e-05
-0.000132408
9.42275e-05
-0.000142096
6.76619e-05
-5.70242e-05
3.3179e-05
8.17579e-05
2.69867e-05
0.000110131
3.10487e-05
0.000109749
3.69163e-05
0.000107525
4.48239e-05
0.000106175
5.54264e-05
0.00010389
6.88365e-05
9.89449e-05
8.94885e-05
8.49035e-05
6.46789e-06
-7.00175e-05
1.29013e-05
-7.48729e-05
1.93483e-05
-7.42019e-05
2.58565e-05
-7.56848e-05
3.23991e-05
-7.8083e-05
3.89636e-05
-8.11671e-05
4.55267e-05
-8.49937e-05
5.20422e-05
-8.96452e-05
5.84334e-05
-9.51941e-05
6.4579e-05
-0.000101805
7.02292e-05
-0.000109478
7.54198e-05
-0.00011705
7.98841e-05
-0.000136872
7.77646e-05
-0.000139977
3.8106e-05
-1.73656e-05
2.10646e-05
9.87995e-05
2.3517e-05
0.000107679
2.9141e-05
0.000104125
3.50282e-05
0.000101637
4.19824e-05
9.92201e-05
5.02013e-05
9.56711e-05
5.91324e-05
9.00137e-05
8.16061e-05
6.70145e-05
5.92936e-06
-7.59469e-05
1.17127e-05
-8.06563e-05
1.75319e-05
-8.0021e-05
2.33824e-05
-8.15353e-05
2.92196e-05
-8.39202e-05
3.50187e-05
-8.69663e-05
4.07436e-05
-9.07186e-05
4.63356e-05
-9.52373e-05
5.17087e-05
-0.000100567
5.67363e-05
-0.000106833
6.11938e-05
-0.000113936
6.51459e-05
-0.000121002
6.81029e-05
-0.000139829
6.21267e-05
-0.000134
1.81087e-05
2.66525e-05
1.52632e-05
0.000101645
2.12562e-05
0.000101686
2.69348e-05
9.8447e-05
3.23948e-05
9.61765e-05
3.82684e-05
9.33468e-05
4.44981e-05
8.94419e-05
5.04791e-05
8.40322e-05
7.68807e-05
5.52039e-05
5.37792e-06
-8.13248e-05
1.05225e-05
-8.58009e-05
1.57224e-05
-8.52209e-05
2.0928e-05
-8.67408e-05
2.60833e-05
-8.90754e-05
3.11565e-05
-9.20395e-05
3.61043e-05
-9.56664e-05
4.08638e-05
-9.99969e-05
4.53496e-05
-0.000105053
4.94427e-05
-0.000110926
5.29532e-05
-0.000117446
5.59683e-05
-0.000124017
5.78455e-05
-0.000141706
4.58005e-05
-0.000121955
1.11776e-05
6.12751e-05
1.41169e-05
9.87054e-05
1.97643e-05
9.60387e-05
2.46795e-05
9.3532e-05
2.94226e-05
9.14333e-05
3.42229e-05
8.85464e-05
3.89554e-05
8.47094e-05
4.32315e-05
7.97555e-05
7.36091e-05
4.65023e-05
4.82412e-06
-8.61489e-05
9.34962e-06
-9.03264e-05
1.39472e-05
-8.98185e-05
1.85296e-05
-9.13232e-05
2.30351e-05
-9.35809e-05
2.74285e-05
-9.64329e-05
3.16643e-05
-9.99022e-05
3.56808e-05
-0.000104013
3.93996e-05
-0.000108772
4.27168e-05
-0.000114243
4.5481e-05
-0.000120211
4.78081e-05
-0.000126344
4.89506e-05
-0.000142849
2.99067e-05
-0.000102912
1.16192e-05
7.95627e-05
1.43342e-05
9.59908e-05
1.85686e-05
9.18049e-05
2.25202e-05
8.95804e-05
2.6445e-05
8.75084e-05
3.02977e-05
8.46931e-05
3.39303e-05
8.10763e-05
3.70823e-05
7.66033e-05
7.1289e-05
3.94029e-05
4.27664e-06
-9.04256e-05
8.20881e-06
-9.42585e-05
1.22267e-05
-9.38364e-05
1.62135e-05
-9.531e-05
2.01059e-05
-9.74733e-05
2.38676e-05
-0.000100195
2.74542e-05
-0.000103489
3.0809e-05
-0.000107368
3.38642e-05
-0.000111827
3.65339e-05
-0.000116913
3.87038e-05
-0.00012238
4.05125e-05
-0.000128152
4.10759e-05
-0.000143412
1.77136e-05
-7.9549e-05
1.08073e-05
8.64689e-05
1.3725e-05
9.30731e-05
1.71082e-05
8.84215e-05
2.03549e-05
8.63334e-05
2.35683e-05
8.4295e-05
2.66306e-05
8.16304e-05
2.94147e-05
7.82916e-05
3.17514e-05
7.42665e-05
6.96097e-05
3.34309e-05
3.74266e-06
-9.41682e-05
7.11147e-06
-9.76273e-05
1.05758e-05
-9.73008e-05
1.39975e-05
-9.87316e-05
1.73152e-05
-0.000100791
2.04922e-05
-0.000103372
2.3487e-05
-0.000106484
2.62492e-05
-0.00011013
2.87233e-05
-0.000114301
3.08412e-05
-0.000119031
3.25294e-05
-0.000124069
3.39495e-05
-0.000129573
3.41067e-05
-0.000143569
1.08835e-05
-5.63256e-05
8.93498e-06
8.84172e-05
1.22249e-05
8.9783e-05
1.53388e-05
8.53071e-05
1.81929e-05
8.34788e-05
2.08448e-05
8.16427e-05
2.32486e-05
7.9227e-05
2.53512e-05
7.61889e-05
2.70713e-05
7.25462e-05
6.83871e-05
2.82939e-05
3.22746e-06
-9.73957e-05
6.0649e-06
-0.000100465
9.00357e-06
-0.000100239
1.18922e-05
-0.00010162
1.46725e-05
-0.000103571
1.73087e-05
-0.000106008
1.97622e-05
-0.000108937
2.19887e-05
-0.000112357
2.39427e-05
-0.000116255
2.55706e-05
-0.000120659
2.68471e-05
-0.000125345
2.79414e-05
-0.000130667
2.79429e-05
-0.000143571
4.80606e-06
-3.31888e-05
4.80933e-06
8.84135e-05
1.00431e-05
8.45494e-05
1.35492e-05
8.18008e-05
1.62142e-05
8.08135e-05
1.83702e-05
7.94857e-05
2.01686e-05
7.74284e-05
2.16741e-05
7.46835e-05
2.28841e-05
7.13362e-05
6.75262e-05
2.37449e-05
2.73021e-06
-0.000100126
5.06974e-06
-0.000102804
7.5109e-06
-0.000102681
9.89856e-06
-0.000104008
1.21758e-05
-0.000105849
1.43102e-05
-0.000108142
1.62656e-05
-0.000110892
1.80038e-05
-0.000114095
1.9486e-05
-0.000117737
2.06678e-05
-0.000121841
2.15729e-05
-0.00012625
2.22767e-05
-0.000131371
2.26542e-05
-0.000143949
-5.5059e-06
-5.02874e-06
1.0754e-06
8.18315e-05
8.50804e-06
7.71168e-05
1.24498e-05
7.78589e-05
1.47526e-05
7.85109e-05
1.62687e-05
7.79692e-05
1.73922e-05
7.63042e-05
1.83022e-05
7.37734e-05
1.90433e-05
7.05949e-05
6.69775e-05
1.95917e-05
2.26515e-06
-0.000102391
4.13559e-06
-0.000104675
6.10526e-06
-0.00010465
8.02266e-06
-0.000105925
9.83218e-06
-0.000107658
1.15031e-05
-0.000109813
1.2999e-05
-0.000112388
1.42848e-05
-0.000115381
1.5325e-05
-0.000118778
1.60737e-05
-0.000122589
1.65986e-05
-0.000126775
1.65906e-05
-0.000131363
1.8234e-05
-0.000145592
-9.32397e-06
2.25294e-05
2.78451e-06
6.97229e-05
9.97065e-06
6.99301e-05
1.30101e-05
7.48191e-05
1.41487e-05
7.73719e-05
1.45978e-05
7.75204e-05
1.48535e-05
7.60484e-05
1.51124e-05
7.35141e-05
1.54018e-05
7.03057e-05
6.67021e-05
1.56773e-05
1.87058e-06
-0.000104262
3.28026e-06
-0.000106084
4.81842e-06
-0.000106188
6.30434e-06
-0.000107411
7.69375e-06
-0.000109048
8.95196e-06
-0.000111071
1.00373e-05
-0.000113474
1.09015e-05
-0.000116245
1.14943e-05
-0.00011937
1.17013e-05
-0.000122796
1.15983e-05
-0.000126672
1.02686e-05
-0.000130033
1.14796e-05
-0.000146803
1.68138e-06
3.23276e-05
1.32312e-05
5.81733e-05
1.58056e-05
6.73554e-05
1.55332e-05
7.5091e-05
1.43528e-05
7.85517e-05
1.31809e-05
7.8692e-05
1.23501e-05
7.68793e-05
1.19098e-05
7.39542e-05
1.1782e-05
7.04335e-05
6.6637e-05
1.18472e-05
1.48069e-06
-0.000105742
2.47813e-06
-0.000107082
3.667e-06
-0.000107377
4.78802e-06
-0.000108532
5.82165e-06
-0.000110081
6.732e-06
-0.000111982
7.47345e-06
-0.000114215
7.97694e-06
-0.000116748
8.161e-06
-0.000119554
7.75118e-06
-0.000122386
6.50937e-06
-0.00012543
3.33562e-06
-0.000126859
-4.01802e-06
-0.00013945
2.22324e-05
6.07731e-06
2.93667e-05
5.10387e-05
2.47103e-05
7.2012e-05
1.91373e-05
8.0664e-05
1.46694e-05
8.30192e-05
1.14673e-05
8.1894e-05
9.4768e-06
7.88699e-05
8.40815e-06
7.50229e-05
7.97659e-06
7.08649e-05
6.66709e-05
7.94257e-06
1.10055e-06
-0.000106843
1.74981e-06
-0.000107731
2.58499e-06
-0.000108213
3.36723e-06
-0.000109314
4.06821e-06
-0.000110782
4.65804e-06
-0.000112571
5.09291e-06
-0.00011465
5.30933e-06
-0.000116965
5.23841e-06
-0.000119484
4.76151e-06
-0.000121909
3.3526e-06
-0.000124022
4.77988e-06
-0.000128286
-9.18195e-06
-0.000125488
4.52419e-05
-4.83467e-05
5.27819e-05
4.34983e-05
3.61533e-05
8.86404e-05
2.2481e-05
9.43367e-05
1.39308e-05
9.15695e-05
8.64904e-06
8.71757e-05
5.6918e-06
8.18273e-05
4.24692e-06
7.6468e-05
3.75347e-06
7.13584e-05
6.66081e-05
3.81622e-06
5.6664e-07
-0.00010741
8.61491e-07
-0.000108026
1.26871e-06
-0.00010862
1.62757e-06
-0.000109673
1.91533e-06
-0.00011107
2.10655e-06
-0.000112763
2.17908e-06
-0.000114722
2.14687e-06
-0.000116933
1.93221e-06
-0.000119269
2.76522e-06
-0.000122742
4.68153e-06
-0.000125938
2.13272e-05
-0.000144932
3.15581e-05
-0.000135718
8.37205e-05
-0.000100509
7.61058e-05
5.1113e-05
4.64423e-05
0.000118304
2.28777e-05
0.000117901
1.02097e-05
0.000104238
3.6133e-06
9.37722e-05
4.38243e-07
8.50025e-05
-8.08788e-07
7.77152e-05
-9.99797e-07
7.15496e-05
6.62302e-05
-6.21452e-07
-3.99629e-07
-0.00010701
-1.00256e-06
-0.000107423
-1.49947e-06
-0.000108123
-2.10812e-06
-0.000109065
-2.76492e-06
-0.000110413
-3.4961e-06
-0.000112032
-4.20008e-06
-0.000114019
-4.60238e-06
-0.00011653
-4.81113e-06
-0.00011906
-7.24589e-07
-0.000126829
1.41107e-05
-0.000140773
3.23076e-05
-0.000163129
7.193e-05
-0.000175341
6.41552e-05
-9.27342e-05
7.69863e-05
3.82823e-05
3.9874e-05
0.000155416
1.38456e-05
0.00014393
6.62245e-07
0.000117421
-4.81827e-06
9.92527e-05
-6.85769e-06
8.7042e-05
-7.1146e-06
7.79724e-05
-6.46224e-06
7.08977e-05
6.51608e-05
-5.3923e-06
-3.03674e-06
-0.000103973
-6.50174e-06
-0.000103958
-9.3969e-06
-0.000105228
-1.2074e-05
-0.000106388
-1.55258e-05
-0.00010696
-1.85648e-05
-0.000108993
-2.08678e-05
-0.000111716
-2.1802e-05
-0.000115597
-2.04328e-05
-0.00012043
-9.68639e-06
-0.000137576
1.34305e-05
-0.00016389
3.02064e-05
-0.000179905
3.90113e-05
-0.000184146
2.25217e-05
-7.62443e-05
1.91754e-05
4.16288e-05
6.54385e-07
0.000173937
-1.27549e-05
0.000157339
-1.65976e-05
0.000121264
-1.71482e-05
9.98035e-05
-1.61085e-05
8.60024e-05
-1.43504e-05
7.62146e-05
-1.23467e-05
6.88944e-05
6.3148e-05
-1.03334e-05
-4.35496e-06
-9.96188e-05
-8.34508e-06
-9.9967e-05
-1.28027e-05
-0.000100771
-1.75134e-05
-0.000101678
-2.16268e-05
-0.000102848
-2.5785e-05
-0.000104835
-2.96774e-05
-0.000107823
-3.32682e-05
-0.000112007
-3.42957e-05
-0.000119402
-3.55617e-05
-0.000136309
-3.78461e-05
-0.000161606
-4.30369e-05
-0.000174714
-6.36655e-05
-0.000163518
-8.40119e-05
-5.58979e-05
-9.45486e-05
5.21655e-05
-7.09561e-05
0.000150345
-5.04857e-05
0.000136868
-3.89303e-05
0.000109709
-3.17466e-05
9.26201e-05
-2.63503e-05
8.06063e-05
-2.19877e-05
7.18523e-05
-1.83253e-05
6.52322e-05
6.00185e-05
-1.51956e-05
-4.49897e-06
-9.51211e-05
-8.60369e-06
-9.5862e-05
-1.3069e-05
-9.63054e-05
-1.77558e-05
-9.69921e-05
-2.25545e-05
-9.80496e-05
-2.7762e-05
-9.96271e-05
-3.37559e-05
-0.00010183
-4.07894e-05
-0.000104973
-5.01629e-05
-0.000110028
-6.89182e-05
-0.000117554
-0.000101316
-0.000129208
-0.000132517
-0.000143513
-0.000167472
-0.000128562
-0.000175568
-4.78019e-05
-0.000169787
4.63838e-05
-0.000121382
0.000101939
-8.15694e-05
9.70561e-05
-5.90665e-05
8.72058e-05
-4.51937e-05
7.87477e-05
-3.58292e-05
7.12422e-05
-2.90376e-05
6.5061e-05
-2.38161e-05
6.0011e-05
5.58349e-05
-1.96322e-05
-4.69037e-06
-9.04308e-05
-9.32883e-06
-9.12243e-05
-1.42004e-05
-9.14337e-05
-1.92518e-05
-9.19413e-05
-2.46699e-05
-9.26316e-05
-3.06877e-05
-9.36088e-05
-3.76032e-05
-9.49148e-05
-4.58628e-05
-9.67135e-05
-5.69942e-05
-9.88972e-05
-7.37116e-05
-0.000100837
-9.90275e-05
-0.000103892
-0.000136914
-0.000105627
-0.000178912
-8.65638e-05
-0.000190797
-3.59174e-05
-0.000169071
2.46576e-05
-0.000125676
5.85454e-05
-9.18761e-05
6.32564e-05
-6.93794e-05
6.47094e-05
-5.37087e-05
6.30774e-05
-4.26153e-05
6.01491e-05
-3.44619e-05
5.69078e-05
-2.82319e-05
5.37812e-05
5.09036e-05
-2.33003e-05
-4.759e-06
-8.56717e-05
-9.61398e-06
-8.63696e-05
-1.46212e-05
-8.64263e-05
-1.99142e-05
-8.66484e-05
-2.56395e-05
-8.69062e-05
-3.20345e-05
-8.72142e-05
-3.9374e-05
-8.75751e-05
-4.81566e-05
-8.79308e-05
-5.91578e-05
-8.78961e-05
-7.30905e-05
-8.69043e-05
-9.19731e-05
-8.50098e-05
-0.000118907
-7.86926e-05
-0.000145611
-5.98597e-05
-0.000153925
-2.76034e-05
-0.000135773
6.50584e-06
-0.000108947
3.17194e-05
-8.74961e-05
4.18061e-05
-7.02063e-05
4.74199e-05
-5.65721e-05
4.94436e-05
-4.59957e-05
4.9573e-05
-3.77524e-05
4.86647e-05
-3.12361e-05
4.72651e-05
4.56518e-05
-2.59842e-05
-4.81134e-06
-8.0861e-05
-9.77626e-06
-8.14051e-05
-1.48238e-05
-8.13789e-05
-2.01968e-05
-8.12757e-05
-2.59913e-05
-8.11119e-05
-3.23842e-05
-8.08219e-05
-3.96191e-05
-8.034e-05
-4.80783e-05
-7.94722e-05
-5.81305e-05
-7.78439e-05
-6.99319e-05
-7.51024e-05
-8.41599e-05
-7.07816e-05
-0.000100574
-6.22781e-05
-0.000114192
-4.62424e-05
-0.000117895
-2.38998e-05
-0.000109804
-1.58494e-06
-9.42397e-05
1.61558e-05
-7.98765e-05
2.74432e-05
-6.69647e-05
3.45085e-05
-5.59398e-05
3.84189e-05
-4.67336e-05
4.0367e-05
-3.91313e-05
4.10626e-05
-3.28602e-05
4.0994e-05
4.04494e-05
-2.76579e-05
-4.77203e-06
-7.60889e-05
-9.65375e-06
-7.65228e-05
-1.46817e-05
-7.63508e-05
-1.99669e-05
-7.59905e-05
-2.56181e-05
-7.5461e-05
-3.17641e-05
-7.46754e-05
-3.85758e-05
-7.35284e-05
-4.62347e-05
-7.18137e-05
-5.48428e-05
-6.92356e-05
-6.4472e-05
-6.54734e-05
-7.52954e-05
-5.99581e-05
-8.6263e-05
-5.13103e-05
-9.40857e-05
-3.84196e-05
-9.5624e-05
-2.23612e-05
-9.10124e-05
-6.19618e-06
-8.22151e-05
7.35873e-06
-7.22996e-05
1.7528e-05
-6.25428e-05
2.47519e-05
-5.36648e-05
2.9541e-05
-4.58562e-05
3.25586e-05
-3.91178e-05
3.43242e-05
-3.33523e-05
3.52284e-05
3.55294e-05
-2.84326e-05
-4.66756e-06
-7.14216e-05
-9.37692e-06
-7.18135e-05
-1.42668e-05
-7.14612e-05
-1.93506e-05
-7.09068e-05
-2.47266e-05
-7.00851e-05
-3.04817e-05
-6.892e-05
-3.67149e-05
-6.72953e-05
-4.34888e-05
-6.50397e-05
-5.07917e-05
-6.19325e-05
-5.85654e-05
-5.76999e-05
-6.66103e-05
-5.1913e-05
-7.40035e-05
-4.39169e-05
-7.8982e-05
-3.34411e-05
-8.00505e-05
-2.12925e-05
-7.72042e-05
-9.04219e-06
-7.16557e-05
1.81039e-06
-6.47755e-05
1.0648e-05
-5.74991e-05
1.74757e-05
-5.04578e-05
2.24998e-05
-4.39605e-05
2.60614e-05
-3.81297e-05
2.84934e-05
-3.2977e-05
3.00756e-05
3.10165e-05
-2.84644e-05
-4.47724e-06
-6.69445e-05
-9.00292e-06
-6.72878e-05
-1.36514e-05
-6.68127e-05
-1.84546e-05
-6.6104e-05
-2.34728e-05
-6.50667e-05
-2.87563e-05
-6.36369e-05
-3.43438e-05
-6.17081e-05
-4.02342e-05
-5.9149e-05
-4.63661e-05
-5.58004e-05
-5.26121e-05
-5.14541e-05
-5.86768e-05
-4.58482e-05
-6.38779e-05
-3.87157e-05
-6.72474e-05
-3.00715e-05
-6.80766e-05
-2.04633e-05
-6.63319e-05
-1.07867e-05
-6.26467e-05
-1.87465e-06
-5.77519e-05
5.75338e-06
-5.22977e-05
1.20217e-05
-4.67571e-05
1.69594e-05
-4.14264e-05
2.07309e-05
-3.64694e-05
2.35363e-05
-3.19568e-05
2.55629e-05
2.69666e-05
-2.79071e-05
-4.21529e-06
-6.27295e-05
-8.51682e-06
-6.29867e-05
-1.28716e-05
-6.2458e-05
-1.73432e-05
-6.16325e-05
-2.19604e-05
-6.04496e-05
-2.67429e-05
-5.88548e-05
-3.1691e-05
-5.67598e-05
-3.67723e-05
-5.40675e-05
-4.19048e-05
-5.0668e-05
-4.69359e-05
-4.64231e-05
-5.15901e-05
-4.11939e-05
-5.54081e-05
-3.48976e-05
-5.7844e-05
-2.76355e-05
-5.85282e-05
-1.9779e-05
-5.74424e-05
-1.18723e-05
-5.49099e-05
-4.40698e-06
-5.13775e-05
2.22125e-06
-4.72519e-05
7.89634e-06
-4.28897e-05
1.25975e-05
-3.85428e-05
1.63841e-05
-3.4374e-05
1.93675e-05
-3.04767e-05
2.16656e-05
2.33896e-05
-2.68997e-05
-3.92077e-06
-5.88085e-05
-7.93218e-06
-5.89751e-05
-1.1969e-05
-5.84215e-05
-1.60818e-05
-5.75196e-05
-2.02812e-05
-5.62503e-05
-2.45667e-05
-5.45693e-05
-2.89174e-05
-5.24088e-05
-3.3286e-05
-4.96991e-05
-3.75856e-05
-4.63685e-05
-4.16718e-05
-4.23368e-05
-4.5323e-05
-3.75427e-05
-4.82352e-05
-3.19853e-05
-5.00904e-05
-2.57803e-05
-5.06833e-05
-1.91858e-05
-5.00075e-05
-1.25479e-05
-4.82199e-05
-6.19435e-06
-4.56337e-05
-3.64685e-07
-4.24827e-05
4.74558e-06
-3.90384e-05
9.15326e-06
-3.55016e-05
1.28474e-05
-3.20178e-05
1.58837e-05
-2.86836e-05
1.83315e-05
2.02665e-05
-2.55604e-05
-3.61847e-06
-5.51902e-05
-7.29678e-06
-5.52969e-05
-1.1e-05
-5.4718e-05
-1.4743e-05
-5.37765e-05
-1.85258e-05
-5.24677e-05
-2.23362e-05
-5.07586e-05
-2.61437e-05
-4.86013e-05
-2.98953e-05
-4.59477e-05
-3.35086e-05
-4.2755e-05
-3.68608e-05
-3.89842e-05
-3.97844e-05
-3.46191e-05
-4.20774e-05
-2.96923e-05
-4.35475e-05
-2.43101e-05
-4.40762e-05
-1.8657e-05
-4.366e-05
-1.29641e-05
-4.23924e-05
-7.46175e-06
-4.04528e-05
-2.30418e-06
-3.80283e-05
2.32121e-06
-3.52984e-05
6.42338e-06
-3.24219e-05
9.97094e-06
-2.95218e-05
1.29837e-05
-2.66884e-05
1.54982e-05
1.75636e-05
-2.39852e-05
-3.31302e-06
-5.1877e-05
-6.64971e-06
-5.19603e-05
-1.0011e-05
-5.13565e-05
-1.33845e-05
-5.04031e-05
-1.67629e-05
-4.90891e-05
-2.01286e-05
-4.73926e-05
-2.34474e-05
-4.52825e-05
-2.6667e-05
-4.27281e-05
-2.97142e-05
-3.97075e-05
-3.24901e-05
-3.62082e-05
-3.48711e-05
-3.22383e-05
-3.67216e-05
-2.78419e-05
-3.79216e-05
-2.311e-05
-3.83998e-05
-1.81788e-05
-3.81524e-05
-1.32115e-05
-3.72441e-05
-8.37004e-06
-3.57661e-05
-3.78212e-06
-3.38896e-05
4.44696e-07
-3.17171e-05
4.2508e-06
-2.93759e-05
7.62977e-06
-2.69677e-05
1.05757e-05
-2.4572e-05
1.31026e-05
1.52408e-05
-2.2249e-05
-3.00132e-06
-4.88757e-05
-6.00642e-06
-4.89547e-05
-9.02579e-06
-4.8337e-05
-1.20385e-05
-4.73901e-05
-1.50323e-05
-4.60951e-05
-1.79867e-05
-4.44381e-05
-2.0868e-05
-4.24013e-05
-2.3628e-05
-3.9968e-05
-2.62046e-05
-3.71309e-05
-2.852e-05
-3.3893e-05
-3.04838e-05
-3.02747e-05
-3.20037e-05
-2.63221e-05
-3.30023e-05
-2.21115e-05
-3.34348e-05
-1.77465e-05
-3.32999e-05
-1.33466e-05
-3.264e-05
-9.0301e-06
-3.152e-05
-4.90214e-06
-3.00515e-05
-1.02392e-06
-2.83119e-05
2.51119e-06
-2.64042e-05
5.72216e-06
-2.44086e-05
8.5802e-06
-2.2392e-05
1.10861e-05
1.32575e-05
-2.04084e-05
-2.68333e-06
-4.61923e-05
-5.36932e-06
-4.62682e-05
-8.05401e-06
-4.56523e-05
-1.07201e-05
-4.47236e-05
-1.33525e-05
-4.34627e-05
-1.59295e-05
-4.18613e-05
-1.84195e-05
-3.99112e-05
-2.07806e-05
-3.76069e-05
-2.29614e-05
-3.49504e-05
-2.49014e-05
-3.19534e-05
-2.65346e-05
-2.86417e-05
-2.77974e-05
-2.50595e-05
-2.86385e-05
-2.12706e-05
-2.90293e-05
-1.73559e-05
-2.89699e-05
-1.34061e-05
-2.84885e-05
-9.51164e-06
-2.76363e-05
-5.75443e-06
-2.64693e-05
-2.191e-06
-2.50802e-05
1.12209e-06
-2.35269e-05
4.16894e-06
-2.18773e-05
6.93075e-06
-2.01877e-05
9.39663e-06
1.1575e-05
-1.8505e-05
-2.36453e-06
-4.38274e-05
-4.74031e-06
-4.38923e-05
-7.10197e-06
-4.32906e-05
-9.43824e-06
-4.23872e-05
-1.17328e-05
-4.11684e-05
-1.39639e-05
-3.96304e-05
-1.61031e-05
-3.7772e-05
-1.81152e-05
-3.55952e-05
-1.99582e-05
-3.31078e-05
-2.15855e-05
-3.03264e-05
-2.2949e-05
-2.72785e-05
-2.40039e-05
-2.40047e-05
-2.47158e-05
-2.0559e-05
-2.50658e-05
-1.70061e-05
-2.50549e-05
-1.34172e-05
-2.47032e-05
-9.86337e-06
-2.40478e-05
-6.40989e-06
-2.3129e-05
-3.1098e-06
-2.20171e-05
1.026e-08
-2.07513e-05
2.90319e-06
-1.93923e-05
5.57183e-06
-1.79847e-05
7.98919e-06
1.01582e-05
-1.65679e-05
-2.05287e-06
-4.17745e-05
-4.12488e-06
-4.18203e-05
-6.17671e-06
-4.12387e-05
-8.20007e-06
-4.03638e-05
-1.01785e-05
-3.91901e-05
-1.20914e-05
-3.77175e-05
-1.3914e-05
-3.59496e-05
-1.5617e-05
-3.38927e-05
-1.71668e-05
-3.15584e-05
-1.85277e-05
-2.89657e-05
-1.96644e-05
-2.6142e-05
-2.05452e-05
-2.31241e-05
-2.11464e-05
-1.99579e-05
-2.14556e-05
-1.66969e-05
-2.14744e-05
-1.33984e-05
-2.12179e-05
-1.01199e-05
-2.07132e-05
-6.91453e-06
-1.99939e-05
-3.82912e-06
-1.90993e-05
-8.84199e-07
-1.8074e-05
1.87789e-06
-1.69615e-05
4.45939e-06
-1.57984e-05
6.82601e-06
8.97643e-06
-1.46167e-05
-1.75358e-06
-4.0021e-05
-3.52922e-06
-4.00445e-05
-5.28423e-06
-3.94836e-05
-7.01016e-06
-3.86379e-05
-8.6914e-06
-3.75088e-05
-1.03095e-05
-3.60996e-05
-1.18433e-05
-3.44162e-05
-1.32686e-05
-3.24678e-05
-1.45591e-05
-3.02682e-05
-1.56875e-05
-2.78374e-05
-1.6628e-05
-2.52016e-05
-1.73579e-05
-2.23943e-05
-1.78607e-05
-1.94551e-05
-1.81285e-05
-1.6429e-05
-1.81631e-05
-1.33637e-05
-1.79763e-05
-1.03066e-05
-1.75883e-05
-7.30256e-06
-1.7026e-05
-4.39126e-06
-1.63106e-05
-1.59959e-06
-1.5488e-05
1.05535e-06
-1.45867e-05
3.55792e-06
-1.36366e-05
5.87575e-06
8.00351e-06
-1.2664e-05
-1.4684e-06
-3.85524e-05
-2.95669e-06
-3.8556e-05
-4.42656e-06
-3.80136e-05
-5.86864e-06
-3.71956e-05
-7.26888e-06
-3.61085e-05
-8.61139e-06
-3.47573e-05
-9.87838e-06
-3.31495e-05
-1.10504e-05
-3.12959e-05
-1.21072e-05
-2.92116e-05
-1.30281e-05
-2.69165e-05
-1.37942e-05
-2.44356e-05
-1.43893e-05
-2.17992e-05
-1.48019e-05
-1.90423e-05
-1.50272e-05
-1.62036e-05
-1.50671e-05
-1.33236e-05
-1.49307e-05
-1.04429e-05