/*--------------------------------*- C++ -*----------------------------------*\
| =========                 |                                                 |
| \\      /  F ield         | OpenFOAM: The Open Source CFD Toolbox           |
|  \\    /   O peration     | Version:  2206                                  |
|   \\  /    A nd           | Website:  www.openfoam.com                      |
|    \\/     M anipulation  |                                                 |
\*---------------------------------------------------------------------------*/
FoamFile
{
    version     2.0;
    format      ascii;
    arch        "LSB;label=32;scalar=64";
    class       surfaceScalarField;
    location    "0.975";
    object      alphaPhi0.water;
}
// * * * * * * * * * * * * * * * * * * * * * * * * * * * * * * * * * * * * * //

dimensions      [0 3 -1 0 0 0 0];

oriented        oriented;

internalField   nonuniform List<scalar> 
4432
(
-1.7661e-06
1.7661e-06
-5.89961e-08
-1.70707e-06
2.83496e-06
-2.89393e-06
4.91755e-06
-2.08258e-06
5.74977e-06
-8.32222e-07
5.66688e-06
8.28833e-08
5.14808e-06
5.18794e-07
4.59169e-06
5.56373e-07
4.17863e-06
4.13052e-07
3.92497e-06
2.53665e-07
3.7741e-06
1.50867e-07
3.6592e-06
1.14911e-07
3.53206e-06
1.27152e-07
3.37102e-06
1.61053e-07
3.17393e-06
1.97102e-07
2.94824e-06
2.257e-07
2.745e-06
2.03256e-07
2.59155e-06
1.53467e-07
2.62753e-06
-3.59772e-08
2.7108e-06
-8.32818e-08
3.50808e-06
-7.97296e-07
4.61859e-06
-1.11051e-06
4.57333e-06
-1.68794e-06
3.45403e-06
-7.62094e-08
-3.31882e-06
2.12403e-06
-5.09418e-06
3.60268e-06
-3.56123e-06
4.15256e-06
-1.38209e-06
4.05468e-06
1.80786e-07
3.7541e-06
8.19392e-07
3.52705e-06
7.83444e-07
3.49253e-06
4.47594e-07
3.66973e-06
7.64742e-08
4.03016e-06
-2.09558e-07
4.53274e-06
-3.87679e-07
5.14953e-06
-4.89664e-07
5.85657e-06
-5.46005e-07
6.64341e-06
-5.89766e-07
7.5175e-06
-6.48398e-07
8.45049e-06
-7.29729e-07
9.48908e-06
-8.85104e-07
1.05181e-05
-1.06503e-06
1.192e-05
-1.48513e-06
1.34018e-05
-2.27914e-06
1.0774e-05
1.51735e-06
1.53491e-05
-1.54284e-06
4.9969e-06
-7.03176e-07
-4.15849e-06
4.8989e-07
-6.28725e-06
1.2236e-06
-4.29495e-06
1.57672e-06
-1.73523e-06
1.74853e-06
8.96131e-09
1.91175e-06
6.56156e-07
2.15334e-06
5.41851e-07
2.50457e-06
9.63707e-08
2.94984e-06
-3.68783e-07
3.47026e-06
-7.29962e-07
4.05619e-06
-9.73583e-07
4.70283e-06
-1.13628e-06
5.42296e-06
-1.26612e-06
6.23865e-06
-1.40544e-06
7.19629e-06
-1.60602e-06
8.36984e-06
-1.90328e-06
9.89872e-06
-2.41399e-06
1.19259e-05
-3.09223e-06
1.52113e-05
-4.77048e-06
1.82207e-05
-5.28855e-06
1.28433e-05
6.89469e-06
2.68726e-05
-2.03415e-06
7.03105e-06
-2.90885e-06
-3.28378e-06
-2.8914e-06
-6.30468e-06
-2.32843e-06
-4.8579e-06
-1.66695e-06
-2.39669e-06
-9.42253e-07
-7.15725e-07
-1.81745e-07
-1.04342e-07
6.11012e-07
-2.50901e-07
1.43062e-06
-7.2323e-07
2.27198e-06
-1.21015e-06
3.11285e-06
-1.57083e-06
3.91276e-06
-1.77349e-06
4.62872e-06
-1.85224e-06
5.21181e-06
-1.84921e-06
5.64822e-06
-1.84184e-06
5.96e-06
-1.91779e-06
6.23423e-06
-2.1775e-06
6.56705e-06
-2.74679e-06
7.19936e-06
-3.72452e-06
8.58556e-06
-6.15669e-06
9.24564e-06
-5.94861e-06
4.05377e-06
1.12423e-05
3.03022e-05
-3.25219e-06
1.02832e-05
-6.53043e-06
-5.55313e-09
-7.83552e-06
-4.99961e-06
-6.9421e-06
-5.75132e-06
-5.25426e-06
-4.08453e-06
-3.65061e-06
-2.31937e-06
-2.27261e-06
-1.48233e-06
-1.02729e-06
-1.49621e-06
1.68739e-07
-1.91926e-06
1.32528e-06
-2.36668e-06
2.43441e-06
-2.67995e-06
3.44908e-06
-2.78816e-06
4.29416e-06
-2.69731e-06
4.90774e-06
-2.4628e-06
5.26871e-06
-2.20282e-06
5.30644e-06
-1.95554e-06
4.87115e-06
-1.74222e-06
3.78625e-06
-1.66189e-06
1.76359e-06
-1.70186e-06
-1.97875e-06
-2.41434e-06
-5.71663e-06
-2.17189e-06
-5.49529e-06
1.1407e-05
2.46278e-05
-2.4905e-06
1.27737e-05
-6.00131e-06
3.50533e-06
-7.17485e-06
-3.82614e-06
-6.4732e-06
-6.45304e-06
-4.94106e-06
-5.6167e-06
-3.49373e-06
-3.76671e-06
-2.39113e-06
-2.58494e-06
-1.3687e-06
-2.51864e-06
-1.93268e-07
-3.09469e-06
1.22175e-06
-3.7817e-06
2.81472e-06
-4.27291e-06
4.48793e-06
-4.46137e-06
6.05025e-06
-4.25964e-06
7.20397e-06
-3.61651e-06
7.62489e-06
-2.62373e-06
7.14414e-06
-1.47477e-06
5.80575e-06
-4.03811e-07
3.49917e-06
6.44707e-07
-2.33206e-08
1.82064e-06
-5.30637e-06
2.86871e-06
-1.08759e-05
3.39796e-06
-7.87937e-06
9.15515e-06
1.7882e-05
4.12782e-06
8.64592e-06
7.34157e-06
2.91579e-07
6.98685e-06
-3.48145e-06
4.69146e-06
-4.16215e-06
2.59575e-06
-3.52403e-06
1.59441e-06
-2.76711e-06
1.49644e-06
-2.48788e-06
1.77688e-06
-2.79957e-06
2.29364e-06
-3.61168e-06
3.25225e-06
-4.74032e-06
4.5308e-06
-5.55135e-06
5.61852e-06
-5.54902e-06
6.21318e-06
-4.85427e-06
6.48752e-06
-3.89083e-06
6.54523e-06
-2.68144e-06
6.18119e-06
-1.11073e-06
4.99269e-06
7.84688e-07
3.24323e-06
2.39417e-06
1.04419e-06
4.01968e-06
-1.72583e-06
5.63873e-06
-4.73445e-06
6.40659e-06
-2.70302e-06
7.18192e-06
1.58255e-05
8.57843e-06
-3.32463e-09
1.04437e-05
-1.35974e-07
7.44427e-06
4.23906e-07
2.99392e-06
6.66031e-07
-1.0883e-06
6.55747e-07
-3.02394e-06
-5.21932e-08
-2.66227e-06
-9.01002e-07
-1.06526e-06
-1.76868e-06
7.97084e-07
-2.69266e-06
2.92825e-06
-4.19708e-06
5.25175e-06
-6.00949e-06
7.15598e-06
-6.93436e-06
7.62812e-06
-5.32422e-06
6.84181e-06
-3.10373e-06
5.91825e-06
-1.75762e-06
5.67645e-06
-8.68881e-07
6.23269e-06
2.28445e-07
6.80088e-06
1.82599e-06
7.22821e-06
3.59234e-06
7.69497e-06
5.17199e-06
7.15315e-06
6.94769e-06
5.72595e-06
8.59414e-06
2.15346e-05
1.63712e-05
-1.18995e-05
3.14087e-05
-1.24011e-05
4.0705e-05
-5.8684e-06
5.59682e-05
-1.10222e-05
7.77126e-05
-1.80359e-05
9.59561e-05
-1.4674e-05
0.000103895
-4.73689e-06
7.68011e-05
8.25076e-06
1.05309e-07
1.30391e-05
8.09107e-07
5.8035e-06
-1.07084e-05
6.26573e-06
-8.01898e-06
-7.90379e-07
5.19847e-06
-1.09031e-05
1.41498e-05
-7.42047e-06
6.86404e-06
6.93183e-06
-1.15414e-05
1.84065e-05
-2.63052e-05
1.47644e-05
-2.08222e-05
-5.48214e-06
-2.08206e-05
1.66283e-05
-1.86154e-05
1.37746e-05
-8.01529e-06
1.40661e-05
-7.0924e-07
2.36931e-05
-6.74695e-07
5.22984e-05
-1.24244e-06
5.60863e-05
-2.47094e-06
4.21864e-05
-9.5194e-06
1.07067e-05
1.02842e-06
7.54351e-06
4.8577e-06
4.8288e-06
6.74988e-06
6.66404e-06
2.36551e-06
3.965e-06
-1.31791e-08
7.68308e-06
-3.37512e-06
7.36042e-06
-8.30221e-07
3.19249e-06
6.51829e-08
-1.09919e-05
8.00775e-06
-2.32391e-05
2.70122e-05
-2.13263e-05
-7.3933e-06
-4.21484e-05
3.91421e-06
-2.38579e-05
4.41181e-06
-8.90199e-06
4.72823e-06
-1.19487e-06
3.86929e-06
7.08827e-08
2.45185e-06
6.80153e-08
1.6552e-06
-1.78127e-06
2.23491e-06
-6.89458e-06
3.35565e-06
2.16869e-07
3.63452e-06
2.37967e-06
4.29225e-06
4.17565e-06
7.59251e-06
2.80078e-06
6.77695e-06
8.04632e-07
1.36427e-06
3.38092e-08
1.05005e-07
7.22869e-08
-7.30432e-07
2.10966e-07
-1.40783e-05
6.13308e-07
-2.32528e-05
1.43232e-06
-1.54761e-05
-1.59861e-05
-5.76847e-05
7.47317e-07
-2.78985e-05
8.00445e-07
-1.82656e-05
1.27537e-06
-2.10823e-06
2.24319e-06
-1.00349e-06
2.0598e-06
1.40076e-07
5.45962e-06
-2.62343e-06
4.17658e-06
-2.90252e-06
8.865e-07
1.54818e-06
2.11406e-06
7.23477e-07
4.11078e-06
4.88192e-06
6.21934e-06
3.66244e-06
6.65448e-06
8.55288e-07
5.77959e-08
2.2202e-07
8.49148e-08
1.37953e-07
-2.38824e-08
1.89984e-07
-2.44928e-07
1.64648e-07
-1.0063e-05
2.08911e-07
-1.27714e-05
-2.88626e-05
-7.17645e-05
-4.05355e-06
-2.36086e-05
-5.09962e-06
-1.69899e-05
-4.64639e-06
-8.2352e-06
-5.05628e-07
-5.25234e-06
1.56987e-06
-1.91752e-06
2.10622e-06
-2.92347e-06
-1.53903e-06
9.79054e-07
-3.66179e-06
3.67004e-06
-1.3645e-06
1.24593e-06
-1.20633e-07
4.87868e-06
-1.20137e-07
1.17848e-06
-3.02407e-07
1.55597e-07
-3.73574e-08
-4.19156e-09
2.1051e-07
-1.10781e-10
3.48968e-07
4.78965e-08
2.46958e-09
3.52185e-07
-3.79006e-07
2.80433e-07
-5.75868e-06
-2.08911e-05
-8.84918e-05
-8.22027e-06
-1.51983e-05
-1.29872e-05
-1.1966e-05
-1.4727e-05
-5.92609e-06
-1.54761e-05
-2.43172e-06
-1.36398e-05
-1.70038e-06
-1.31267e-05
-2.22387e-06
-6.31904e-06
-1.5998e-07
-2.77342e-06
-4.13192e-08
-2.6114e-06
3.28763e-07
-1.15505e-06
3.2411e-07
-4.6271e-07
8.81901e-08
-2.45598e-07
-3.7718e-08
4.02637e-08
-1.62802e-07
8.79582e-08
7.34143e-09
1.90831e-07
6.77024e-08
8.77035e-08
4.46558e-07
5.03604e-07
4.08526e-07
-1.19747e-06
-1.53843e-05
-2.99854e-05
-9.74701e-06
-5.19429e-06
-1.59754e-05
-5.29175e-06
-3.60411e-06
-1.29095e-07
-8.93349e-07
-1.05861e-07
-8.83666e-07
-8.11263e-08
-1.08434e-06
-1.21478e-07
-5.38286e-07
-9.98565e-09
-6.12908e-07
5.63185e-08
-5.14858e-07
1.90695e-07
-3.51179e-07
1.46687e-07
-3.35222e-07
1.99556e-08
1.00653e-08
-3.2403e-07
1.41993e-08
-1.4438e-07
3.23878e-08
-2.03605e-10
9.06573e-08
7.20339e-08
1.69047e-07
3.87104e-07
1.17393e-06
9.71635e-07
-2.49786e-07
-1.0128e-05
-8.23972e-06
-5.95126e-06
1.20286e-06
-1.23428e-07
-1.60952e-06
-1.1323e-07
-1.59609e-07
-1.3711e-07
-9.65932e-08
-1.75363e-07
-6.45506e-08
-2.67945e-07
-4.52582e-08
-3.22767e-07
-6.324e-10
-2.98589e-07
4.50765e-08
-2.48913e-07
1.32527e-07
-1.51066e-07
4.07183e-08
-1.70691e-09
-1.96488e-07
2.50132e-08
-5.43734e-07
7.84274e-09
-1.38743e-07
1.1572e-08
1.28246e-09
5.12497e-08
2.65651e-08
3.29608e-07
1.53414e-07
7.11523e-07
6.14009e-08
3.33513e-07
-1.54167e-06
-5.44294e-06
-3.38398e-09
-1.14898e-12
-1.38974e-07
-1.3684e-09
-2.02312e-07
9.15555e-10
-2.24038e-07
1.79044e-09
-3.45718e-07
8.62039e-09
-6.98199e-07
-7.75345e-09
-1.24431e-06
-3.88432e-10
-1.72832e-06
-6.71727e-12
-1.89192e-06
-1.36214e-10
-1.60172e-06
-2.50233e-09
-5.1182e-07
-3.5126e-08
3.70611e-06
-4.10473e-07
7.65926e-06
-2.3286e-06
9.11312e-06
-1.73111e-06
9.6679e-06
-1.15143e-06
1.01449e-05
-7.91547e-07
1.04699e-05
1.85601e-08
1.06924e-05
1.60355e-06
1.12582e-05
3.02648e-06
1.31919e-05
3.2383e-06
1.42637e-05
5.09867e-06
1.49454e-05
7.90281e-06
8.71275e-06
2.77503e-05
-6.89398e-12
-1.53383e-13
-1.43666e-09
8.55942e-13
-8.38825e-10
1.77487e-11
8.74908e-10
-7.44004e-12
8.18524e-09
1.07415e-10
3.92411e-10
-3.96754e-11
3.14584e-12
-2.07294e-12
-3.89344e-12
-6.9994e-14
-1.40072e-10
-6.79166e-14
-2.64241e-09
-4.45687e-16
-3.77683e-08
-4.41707e-14
-4.4824e-07
-1.74368e-12
-1.64355e-07
-8.0559e-11
1.23572e-06
-7.13185e-10
4.44734e-06
-4.08571e-10
8.75036e-06
-1.85158e-08
1.30414e-05
-2.35053e-07
1.57692e-05
2.37127e-07
1.72632e-05
8.99767e-07
1.91494e-05
5.40043e-07
2.05159e-05
1.6116e-06
2.00789e-05
4.48837e-06
9.56875e-06
1.54611e-05
-2.1666e-12
3.50473e-13
-6.2913e-12
2.78362e-13
1.14709e-11
1.73571e-23
4.03024e-12
7.35952e-22
1.11443e-10
1.11715e-23
4.01122e-12
-1.46907e-20
1.4123e-13
-2.58725e-19
7.12909e-14
-1.53307e-17
3.9238e-15
-4.82531e-16
9.13381e-16
-7.85664e-16
6.44077e-15
-5.64211e-14
2.89164e-13
-2.04172e-12
8.93693e-12
-8.97278e-11
4.54514e-11
-7.60842e-10
1.49988e-12
-6.3105e-10
-1.2349e-08
-6.19567e-09
-2.345e-07
-1.88725e-08
-7.75439e-07
-2.56716e-08
-3.10279e-06
-3.16218e-07
-8.36304e-06
-3.19496e-07
-1.90342e-05
3.60423e-07
-2.44163e-05
1.19227e-06
1.34543e-06
-1.95902e-05
-2.69691e-13
1.08119e-13
1.47496e-21
8.67064e-15
-1.22389e-23
1.33791e-21
-5.87219e-22
1.09771e-21
-1.90409e-23
-2.52499e-22
2.84187e-22
-1.5038e-20
1.91896e-20
-3.36344e-19
4.49246e-19
-9.95946e-18
1.66717e-17
-1.47725e-16
2.03889e-15
-2.76995e-15
1.50985e-14
-1.96687e-13
4.5139e-12
-6.68714e-12
-3.21714e-11
-6.20242e-11
-1.5745e-09
6.51451e-10
-1.14594e-08
8.99832e-09
-7.83669e-08
5.4754e-08
-1.05138e-06
2.05334e-07
-1.40488e-06
5.33929e-08
-1.47023e-06
-4.90827e-09
-2.44673e-06
-4.53756e-08
-3.5301e-06
-2.6423e-08
-3.70999e-06
-8.83503e-08
-2.68016e-07
-2.90455e-06
-1.01676e-14
5.0139e-13
7.0322e-22
-1.49699e-15
-2.69488e-22
7.82535e-22
-4.40829e-22
7.76045e-23
8.06062e-22
-4.68119e-22
1.98894e-20
-2.98191e-20
4.64129e-19
-1.28364e-18
-1.70505e-18
-1.23486e-17
8.5411e-16
-2.04543e-16
1.06563e-14
-1.42497e-14
1.18036e-13
-4.24967e-13
-5.49779e-12
-4.1662e-12
-1.47651e-10
2.92794e-11
-1.08129e-09
1.01321e-09
-7.28038e-09
7.92757e-09
-1.89356e-07
4.73747e-08
-1.534e-07
-1.19951e-08
-6.91897e-08
-1.82622e-09
-1.1481e-07
-3.13682e-09
-3.26366e-07
-6.75062e-09
-4.35634e-07
-8.51214e-09
-5.04436e-07
-1.30914e-08
-4.35434e-08
-7.44806e-07
-4.892e-14
1.20198e-12
3.15991e-22
1.02533e-15
9.40248e-24
-8.54076e-24
-3.11036e-22
-7.51568e-22
-1.12181e-21
-5.88435e-21
-2.10947e-19
-9.85124e-20
-1.09444e-17
-2.72417e-19
-4.54398e-17
2.83071e-17
-1.49667e-15
5.2521e-16
-3.50793e-14
1.95804e-15
-7.12022e-13
-8.52824e-14
-9.99013e-12
4.94875e-13
-7.58408e-11
4.79446e-11
1.50022e-10
4.17081e-10
-1.51624e-08
4.24495e-09
-1.75803e-08
6.38478e-10
-7.85007e-09
2.15675e-09
-6.21265e-09
-3.92472e-10
-1.08889e-08
-9.18707e-10
-2.87016e-08
-2.59112e-09
-5.59832e-08
-4.25751e-09
-8.85252e-08
-5.26807e-09
-6.74535e-09
-1.31781e-07
-2.58425e-14
1.42436e-12
-2.7285e-22
2.1713e-14
-2.30261e-22
-5.11298e-23
-4.47374e-22
-1.27188e-21
-2.4909e-20
-2.38808e-20
-1.15268e-18
-5.93463e-20
-2.85449e-17
4.03368e-18
-1.98211e-16
1.05024e-16
-3.61261e-15
1.81396e-15
-4.53819e-14
2.09086e-14
-6.52062e-13
1.79353e-13
-5.80681e-12
2.13071e-12
-5.09075e-12
1.82979e-11
-1.1863e-09
2.30793e-10
-2.56527e-09
-2.58945e-10
-3.11684e-09
2.81649e-10
-1.14923e-09
2.7345e-10
-9.69388e-10
-9.06982e-11
-1.50916e-09
-2.49803e-10
-2.58739e-09
-4.57859e-10
-4.91112e-09
-5.89845e-10
-8.89447e-09
-8.87537e-10
-4.16191e-10
-1.4255e-08
-2.60461e-15
1.62367e-12
-1.41017e-21
1.15e-15
-1.41314e-21
-7.97606e-23
-2.61672e-21
-1.20705e-21
-1.09539e-19
-9.37009e-21
-3.11188e-18
2.71361e-19
-6.14925e-17
1.02009e-17
-5.2123e-16
1.64472e-16
-2.00634e-15
1.51517e-15
-1.41044e-14
1.30673e-14
-1.40263e-13
9.56609e-14
-4.36758e-13
5.86167e-13
-6.07813e-11
6.22686e-12
-1.79212e-10
-2.07233e-11
-5.64895e-10
-1.85279e-11
-4.71485e-10
4.52319e-11
-1.94523e-10
2.82519e-11
-1.61851e-10
-1.5674e-11
-2.10565e-10
-4.16907e-11
-3.39346e-10
-6.57833e-11
-5.12755e-10
-8.04603e-11
-9.04931e-10
-8.50177e-11
-2.2735e-11
-1.0234e-09
-1.10564e-15
1.82433e-12
-1.25609e-21
4.43619e-17
-1.54366e-21
-6.11679e-23
-3.7749e-21
-5.73139e-22
-1.16969e-19
4.58435e-21
-2.52662e-18
3.24998e-19
-4.34636e-17
6.36414e-18
-4.78966e-16
8.78271e-17
-2.14485e-15
7.75206e-16
-3.05118e-15
4.16101e-15
9.43024e-15
1.95181e-14
-5.76269e-13
7.11964e-14
-5.95571e-12
-4.17996e-13
-3.56274e-11
-2.87954e-12
-7.79096e-11
-8.28092e-13
-6.07792e-11
6.55941e-12
-2.86352e-11
3.14064e-12
-2.61694e-11
-2.6242e-12
-3.65614e-11
-6.87936e-12
-5.53535e-11
-1.11612e-11
-7.24406e-11
-1.33432e-11
-8.73824e-11
-1.03629e-11
-2.37521e-12
-6.77811e-11
-4.22372e-17
2.0441e-12
-6.88029e-22
2.12465e-18
-9.48624e-22
-5.14738e-22
-2.58175e-21
-9.28592e-23
-6.27002e-20
5.23657e-21
-1.17156e-18
1.55531e-19
-1.64065e-17
2.34571e-18
-1.86712e-16
2.58975e-17
-1.43903e-15
2.42936e-16
-5.41218e-15
1.61865e-15
-1.52896e-14
5.67908e-15
-1.46098e-13
1.16338e-14
-1.14977e-12
-4.5507e-14
-5.60733e-12
-2.99723e-13
-1.01996e-11
-1.86295e-14
-7.61126e-12
8.99677e-13
-4.05786e-12
3.50452e-13
-4.021e-12
-4.0586e-13
-6.35878e-12
-1.13002e-12
-1.01462e-11
-1.90481e-12
-1.32853e-11
-2.1589e-12
-1.29512e-11
-1.49382e-12
2.4192e-13
-8.85107e-12
-2.02568e-18
2.26142e-12
-2.27104e-20
1.27851e-19
-3.23043e-22
-6.45639e-23
-1.51175e-21
2.35687e-23
-2.07676e-20
2.11726e-21
-3.48485e-19
4.63013e-20
-4.36419e-18
6.05389e-19
-4.38822e-17
5.99993e-18
-3.76411e-16
4.91076e-17
-2.14507e-15
3.49202e-16
-7.97862e-15
1.73641e-15
-3.53515e-14
4.86525e-15
-1.92474e-13
1.77977e-15
-7.84304e-13
-2.16749e-14
-1.35427e-12
1.68461e-14
-9.96316e-13
1.22219e-13
-6.19294e-13
4.2791e-14
-6.63442e-13
-4.84182e-14
-1.13663e-12
-1.61462e-13
-1.91228e-12
-2.79564e-13
-2.50693e-12
-2.79646e-13
-2.43531e-12
-1.15491e-13
2.88606e-13
-1.4718e-12
-1.19707e-19
2.46783e-12
-5.5808e-21
1.07271e-20
-7.59999e-23
8.58904e-22
-2.95634e-22
1.18562e-23
-4.85569e-21
5.60706e-22
-7.503e-20
1.0315e-20
-8.66989e-19
1.21592e-19
-8.00665e-18
1.11309e-18
-6.12933e-17
8.48825e-18
-3.97419e-16
5.59959e-17
-2.03548e-15
3.35069e-16
-7.6126e-15
1.54886e-15
-3.01749e-14
4.13624e-15
-1.07207e-13
1.83905e-15
-1.76932e-13
9.17527e-15
-1.34293e-13
2.21216e-14
-1.06395e-13
1.04399e-14
-1.2305e-13
2.95798e-15
-2.15137e-13
-9.76666e-15
-3.64564e-13
-2.11403e-14
-4.74327e-13
-3.68488e-15
-4.63666e-13
6.13799e-14
1.62907e-13
-2.65584e-13
-1.04889e-20
2.67722e-12
-2.39893e-21
2.18876e-21
-1.45324e-23
9.09757e-22
-5.02621e-23
3.29329e-24
-9.00341e-22
1.18155e-22
-1.30647e-20
1.96436e-21
-1.4188e-19
2.15074e-20
-1.23768e-18
1.86683e-19
-9.02868e-18
1.38465e-18
-5.72886e-17
9.10758e-18
-3.31685e-16
5.47088e-17
-1.69324e-15
3.01587e-16
-5.29659e-15
1.29487e-15
-1.44591e-14
2.88002e-15
-2.42481e-14
4.0779e-15
-1.98203e-14
4.42678e-15
-1.95909e-14
6.45176e-15
-2.47803e-14
9.58827e-15
-4.29971e-14
1.27897e-14
-7.35791e-14
1.49068e-14
-1.1375e-13
3.5862e-14
-1.25304e-13
6.9125e-14
1.62371e-13
-1.19982e-13
-4.39599e-21
7.69763e-13
-1.00921e-21
8.86357e-22
-2.44234e-24
5.03606e-22
-7.93896e-24
7.4342e-25
-1.46957e-22
2.24348e-23
-2.03091e-21
3.4917e-22
-2.10428e-20
3.61909e-21
-1.77402e-19
3.02755e-20
-1.2777e-18
2.21769e-19
-8.16502e-18
1.47056e-18
-4.77147e-17
8.91834e-18
-2.5137e-16
4.85503e-17
-1.02088e-15
2.23228e-16
-2.53244e-15
7.72766e-16
-3.85086e-15
1.44004e-15
-3.88852e-15
1.94662e-15
-4.6431e-15
2.77406e-15
-6.77764e-15
4.62715e-15
-1.06908e-14
7.27456e-15
-2.09237e-14
1.20836e-14
-4.42959e-14
3.34781e-14
-7.3231e-14
1.07394e-13
2.02921e-13
-1.01703e-13
-1.8618e-21
8.88497e-15
-3.08233e-22
5.22363e-22
-3.95514e-25
1.75115e-22
-1.27203e-24
1.95397e-25
-2.26033e-23
4.02204e-24
-3.00873e-22
6.01579e-23
-3.00694e-21
5.97966e-22
-2.48392e-20
4.86416e-21
-1.78978e-19
3.53456e-20
-1.1625e-18
2.35969e-19
-6.90445e-18
1.44497e-18
-3.62572e-17
7.85758e-18
-1.48556e-16
3.52869e-17
-4.08132e-16
1.19424e-16
-6.83518e-16
2.92202e-16
-8.91614e-16
5.32728e-16
-1.32803e-15
8.58549e-16
-2.26048e-15
1.64863e-15
-3.77061e-15
3.3303e-15
-6.15599e-15
9.1228e-15
-1.03512e-14
2.97577e-14
-1.59864e-13
2.45094e-13
2.53106e-12
-2.48989e-12
-7.62026e-19
9.97724e-15
-2.95422e-22
6.70535e-20
-7.68411e-26
2.21399e-23
-2.61379e-25
7.66558e-26
-3.38594e-24
6.84789e-25
-4.3875e-23
1.01392e-23
-4.2642e-22
9.77097e-23
-3.47608e-21
7.77735e-22
-2.5149e-20
5.61225e-21
-1.65736e-19
3.7579e-20
-9.97061e-19
2.31033e-19
-5.23877e-18
1.25502e-18
-2.12283e-17
5.60184e-18
-5.88865e-17
1.88133e-17
-1.1071e-16
4.66867e-17
-1.77747e-16
9.4663e-17
-3.20838e-16
1.92623e-16
-6.37807e-16
4.67431e-16
-1.1835e-15
1.39734e-15
-2.73151e-15
7.70365e-15
-6.83482e-14
8.55051e-14
-1.05769e-12
1.12089e-12
1.39422e-11
-1.38071e-11
-5.33089e-18
9.84813e-15
-1.9461e-23
8.86721e-19
-2.98043e-26
2.48644e-24
-7.47739e-26
5.47022e-26
-5.00506e-25
1.14463e-25
-6.38889e-24
1.67392e-24
-6.06468e-23
1.5752e-23
-4.8897e-22
1.2315e-22
-3.54471e-21
8.82115e-22
-2.35457e-20
5.89704e-21
-1.42256e-19
3.61821e-20
-7.43922e-19
1.95593e-19
-2.98878e-18
8.70595e-19
-8.36627e-18
2.95614e-18
-1.68882e-17
7.63153e-18
-3.05283e-17
1.68242e-17
-6.30072e-17
3.98989e-17
-1.68449e-16
1.32293e-16
-4.51974e-16
7.22786e-16
-1.87163e-15
7.24501e-15
-2.23899e-14
9.48526e-14
-3.20024e-13
1.26776e-12
1.67406e-11
-5.04029e-12
-2.50566e-18
6.27273e-15
-2.26457e-24
4.12039e-18
-2.33141e-26
2.05687e-25
-3.03985e-26
4.83667e-26
-7.6165e-26
3.51296e-26
-9.35308e-25
2.70217e-25
-8.66911e-24
2.49674e-24
-6.89643e-23
1.91663e-23
-4.97965e-22
1.35969e-22
-3.30335e-21
9.03481e-22
-1.98497e-20
5.50574e-21
-1.02607e-19
2.95392e-20
-4.08369e-19
1.31213e-19
-1.15626e-18
4.52764e-19
-2.46438e-18
1.22893e-18
-4.89027e-18
3.01061e-18
-1.18397e-17
8.7894e-18
-4.86538e-17
4.257e-17
-2.93116e-16
3.70663e-16
1.10992e-15
3.59824e-15
5.46795e-14
3.22566e-14
8.39988e-13
4.024e-13
5.27531e-12
1.12745e-11
-1.24205e-18
2.90447e-15
-2.36642e-25
4.62416e-18
-3.97478e-26
8.83144e-26
-6.02423e-27
1.12594e-25
-2.1535e-26
2.23152e-26
-1.38066e-25
4.19991e-26
-1.24554e-24
3.88103e-25
-9.70834e-24
2.91277e-24
-6.92105e-23
2.03728e-23
-4.53793e-22
1.33951e-22
-2.68582e-21
8.07841e-22
-1.36323e-20
4.2956e-21
-5.35602e-20
1.90641e-20
-1.5273e-19
6.70311e-20
-3.41297e-19
1.92361e-19
-7.59014e-19
5.34172e-19
-2.33561e-18
1.99913e-18
-1.34048e-17
1.34329e-17
-1.19225e-16
1.41644e-16
-4.0081e-16
1.61957e-15
1.10163e-14
1.28231e-14
1.97544e-13
1.23781e-13
1.69526e-12
2.39886e-12
-9.12941e-19
1.42827e-15
-1.01039e-24
4.53849e-18
-9.39579e-26
1.82958e-25
-2.8927e-27
2.90668e-25
-1.56678e-26
7.00452e-27
-2.04006e-26
6.47258e-27
-1.79801e-25
5.8929e-26
-1.35875e-24
4.29848e-25
-9.45972e-24
2.94521e-24
-6.06525e-23
1.90712e-23
-3.50328e-22
1.13517e-22
-1.73453e-21
5.97937e-22
-6.6967e-21
2.65522e-21
-1.91431e-20
9.53783e-21
-4.47275e-20
2.90352e-20
-1.12419e-19
9.16507e-20
-4.33651e-19
4.28215e-19
-2.964e-18
3.5253e-18
-2.71018e-17
3.90101e-17
-1.67296e-16
4.45067e-16
3.16612e-16
4.37952e-15
8.61878e-15
3.19627e-14
3.13455e-13
2.27984e-13
-8.20956e-19
7.75661e-16
-3.40377e-24
4.10232e-18
-2.5467e-25
4.74675e-25
-4.68997e-27
7.479e-25
-1.59162e-27
7.28305e-27
-3.16031e-27
1.52391e-27
-2.60058e-26
8.629e-27
-1.8825e-25
6.11849e-26
-1.26454e-24
4.07776e-25
-7.8455e-24
2.58883e-24
-4.38509e-23
1.51797e-23
-2.10459e-22
7.92229e-23
-7.94501e-22
3.52581e-22
-2.26492e-21
1.29628e-21
-5.49409e-21
4.18545e-21
-1.53133e-20
1.48551e-20
-6.8187e-20
8.17653e-20
-4.71761e-19
7.39221e-19
-3.40352e-18
8.12678e-18
-1.44234e-17
8.96528e-17
1.39899e-16
9.16551e-16
7.4049e-15
6.12384e-15
6.29047e-14
2.1822e-13
-7.9991e-19
4.82552e-16
-4.3855e-24
3.81501e-18
-5.98868e-25
8.28983e-25
-1.39232e-26
1.56717e-24
-3.61993e-28
2.10243e-26
-6.92575e-28
8.3465e-28
-3.73034e-27
1.19102e-27
-2.56477e-26
8.31588e-27
-1.64191e-25
5.35829e-26
-9.761e-25
3.32412e-25
-5.23963e-24
1.91878e-24
-2.4233e-23
9.93328e-24
-8.89403e-23
4.43856e-23
-2.50894e-22
1.67161e-22
-6.22366e-22
5.70382e-22
-1.83731e-21
2.23096e-21
-8.22301e-21
1.35483e-20
-4.28739e-20
1.24184e-19
-4.47632e-20
1.3294e-18
4.72454e-18
1.48283e-17
1.08958e-16
1.50198e-16
2.22772e-15
1.17916e-15
8.9173e-15
5.22603e-14
-8.17949e-19
3.49167e-16
-9.85845e-23
3.65006e-18
-2.79233e-24
9.57783e-23
-4.64262e-26
3.51124e-24
-2.63174e-28
6.49258e-26
-2.99432e-28
4.43167e-28
-5.23664e-28
2.20786e-28
-3.39806e-27
1.06032e-27
-2.05003e-26
6.60177e-27
-1.1578e-25
3.99828e-26
-5.93059e-25
2.27517e-25
-2.62833e-24
1.1712e-24
-9.31321e-24
5.26562e-24
-2.56677e-23
2.03057e-23
-6.3011e-23
7.26152e-23
-1.78535e-22
3.03434e-22
-5.93092e-22
1.91e-21
5.80098e-22
1.73008e-20
8.19763e-20
1.89147e-19
1.84219e-18
2.11648e-18
2.90666e-17
2.14623e-17
3.66892e-16
1.86327e-16
1.0752e-15
7.07789e-15
-8.47641e-19
2.90427e-16
-3.44503e-22
3.59246e-18
-1.20343e-23
6.75234e-22
-2.91847e-25
1.41646e-23
-8.19032e-28
3.55851e-25
-4.69706e-29
1.05975e-27
-9.91205e-29
1.17976e-28
-4.29044e-28
1.21727e-28
-2.42385e-27
7.50463e-28
-1.29243e-26
4.45153e-27
-6.28627e-26
2.50855e-26
-2.65455e-25
1.28982e-25
-8.99061e-25
5.85219e-25
-2.36418e-24
2.30862e-24
-5.35533e-24
8.56175e-24
-1.13606e-23
3.70873e-23
1.11656e-23
2.36799e-22
1.05807e-21
2.20679e-21
2.31517e-20
2.43919e-20
3.9869e-19
2.72982e-19
5.5841e-18
2.76319e-18
6.29079e-17
2.39724e-17
1.60723e-16
7.2937e-16
-9.15685e-19
2.75338e-16
-2.08209e-21
3.89895e-18
-9.40337e-23
4.24559e-21
-2.77073e-24
9.69244e-23
-8.62312e-27
2.55575e-24
-1.96022e-29
1.05434e-26
-4.15754e-29
3.02849e-29
-4.95403e-29
1.3773e-29
-2.65346e-28
7.69767e-29
-1.33242e-27
4.52427e-28
-6.13585e-27
2.54773e-27
-2.45281e-26
1.31802e-26
-7.8076e-26
6.06232e-26
-1.86538e-25
2.44584e-25
-3.2362e-25
9.32317e-25
8.10273e-26
4.13704e-24
1.28563e-23
2.73653e-23
2.50399e-22
2.60117e-22
4.31958e-21
2.88755e-21
6.70268e-20
3.22793e-20
8.78969e-19
3.23589e-19
9.44382e-18
2.74756e-18
2.01487e-17
8.66505e-17
-1.02703e-18
2.92752e-16
-1.47659e-20
4.72304e-18
-9.70606e-22
2.99114e-20
-2.91441e-23
8.46095e-22
-1.20699e-25
1.83194e-23
-1.04475e-28
1.07544e-25
-3.5397e-30
1.18943e-28
-5.76479e-30
3.83313e-30
-2.60126e-29
6.88799e-30
-1.23526e-28
4.133e-29
-5.38006e-28
2.3625e-28
-2.01541e-27
1.24291e-27
-5.82279e-27
5.83283e-27
-1.10416e-26
2.40999e-26
-2.91413e-27
9.4313e-26
1.83814e-25
4.33622e-25
2.73812e-24
2.94299e-24
4.19062e-23
2.82651e-23
6.52935e-22
3.14237e-22
9.51351e-21
3.48575e-21
1.18833e-19
3.44263e-20
1.2199e-18
2.8529e-19
1.94186e-18
1.04782e-17
-1.02561e-18
3.24358e-16
-1.01544e-19
9.86719e-18
-1.0607e-20
2.35542e-19
-3.79871e-22
8.54931e-21
-1.98895e-24
1.48926e-22
-1.70931e-27
1.14192e-24
-5.88296e-31
1.70915e-27
-1.20013e-30
6.42767e-31
-2.16952e-30
7.24032e-31
-9.9057e-30
3.33202e-30
-4.07555e-29
1.9861e-29
-1.3964e-28
1.07857e-28
-3.30585e-28
5.20738e-28
-2.20505e-28
2.21765e-27
3.34969e-27
8.99378e-27
3.70793e-26
4.25926e-26
4.2074e-25
2.94137e-25
5.79693e-24
2.84346e-24
8.4853e-23
3.14864e-23
1.17897e-21
3.45027e-22
1.41165e-20
3.34164e-21
1.38684e-19
2.69339e-20
1.74781e-19
1.12969e-18
8.15575e-18
3.75722e-16
-4.60137e-19
4.82442e-17
-9.47519e-20
1.97485e-18
-4.45809e-21
9.34612e-20
-4.04449e-23
1.08108e-21
-2.41377e-26
1.21082e-23
-5.31255e-31
1.88466e-26
-1.45873e-31
5.32113e-31
-1.98813e-31
3.13087e-31
-6.43246e-31
3.85581e-31
-2.47606e-30
1.5039e-30
-7.09323e-30
8.5985e-30
-7.51965e-30
4.34175e-29
6.71775e-29
1.92866e-28
6.7319e-28
8.0882e-28
5.33094e-27
3.92227e-27
5.39388e-26
2.74634e-26
6.97598e-25
2.65972e-25
9.74584e-24
2.91935e-24
1.29974e-22
3.14518e-23
1.49475e-21
2.9735e-22
1.40611e-20
2.32428e-21
1.44475e-20
1.08768e-19
5.55165e-17
4.66307e-16
5.90515e-19
1.76412e-16
-4.23424e-19
1.48218e-17
-3.55635e-20
9.58543e-19
-4.96448e-22
8.69204e-21
-8.3262e-25
4.63386e-23
-2.67599e-29
5.3661e-25
-5.92985e-32
4.18121e-29
-2.76756e-32
1.18868e-31
-4.89194e-32
2.03953e-31
-9.56723e-32
2.6365e-31
-1.03905e-31
6.49322e-31
1.39274e-30
3.40127e-30
1.39444e-29
1.59056e-29
9.21898e-29
6.88123e-29
6.40129e-28
3.4083e-28
6.06028e-27
2.40655e-27
7.48121e-26
2.32184e-26
1.00291e-24
2.49732e-25
1.28529e-23
2.6265e-24
1.41974e-22
2.41119e-23
1.28048e-21
1.83091e-22
1.09223e-21
9.40584e-21
1.05993e-16
4.2313e-16
2.11777e-17
3.73508e-16
6.40835e-19
7.57931e-17
-9.08725e-20
6.95644e-18
-2.30398e-21
9.67767e-20
-1.03636e-23
-3.95205e-23
-3.70116e-28
7.65623e-24
-5.60729e-31
9.21278e-28
-3.22395e-33
2.82982e-30
-3.88708e-33
3.26623e-32
1.30181e-33
8.5181e-32
3.09853e-32
1.48141e-31
2.76047e-31
4.84884e-31
1.83337e-30
1.24336e-30
1.04786e-29
5.5847e-30
6.77076e-29
2.81418e-29
6.10355e-28
1.97831e-28
7.22826e-27
1.87509e-27
9.20115e-26
2.38541e-26
1.12992e-24
2.96669e-25
1.19583e-23
2.48267e-24
1.0416e-22
1.49322e-23
7.50327e-23
7.32469e-22
1.07221e-16
3.47087e-16
6.98333e-17
4.99947e-16
1.23581e-17
1.94978e-16
7.92004e-19
2.84281e-17
3.72719e-21
7.81718e-19
-5.39673e-24
1.57684e-21
6.92407e-27
6.40672e-23
7.52e-30
7.62362e-26
7.78952e-32
2.5295e-28
8.86322e-32
1.55979e-30
4.6727e-33
4.32838e-32
9.99314e-33
6.21252e-32
3.82723e-32
1.80446e-31
1.89442e-31
2.12567e-31
1.05193e-30
4.34245e-31
6.47257e-30
2.21383e-30
5.52681e-29
1.59582e-29
7.6276e-28
2.1471e-28
1.10547e-26
6.93701e-27
1.21791e-25
1.72307e-25
9.93259e-25
1.54084e-24
7.18728e-24
5.9978e-24
6.94133e-24
5.06206e-23
6.86834e-17
2.33323e-16
8.58189e-17
4.78004e-16
3.40629e-17
2.61044e-16
4.59205e-18
4.86137e-17
1.50305e-19
2.16446e-18
2.16316e-21
2.8583e-20
2.44492e-23
1.33413e-21
6.85514e-25
4.12162e-23
1.13107e-26
8.01834e-25
1.65705e-28
1.24304e-26
3.00879e-30
1.76694e-28
3.0958e-31
2.48517e-30
2.04765e-32
9.71464e-32
1.95649e-32
6.13315e-32
8.8356e-32
7.10522e-32
5.95939e-31
1.67099e-31
6.83515e-30
1.92263e-30
8.53727e-29
1.23854e-28
3.65703e-28
8.14247e-28
-1.33198e-27
-2.56182e-27
-4.09906e-26
-6.79324e-26
3.01601e-25
4.02944e-25
4.18125e-24
3.06168e-24
2.04515e-17
9.56292e-17
6.60271e-17
4.02069e-16
3.8037e-17
2.52191e-16
6.78752e-18
5.0257e-17
3.58793e-19
2.74974e-18
1.04986e-20
7.05378e-20
2.49847e-22
4.37793e-21
5.94669e-24
2.32073e-22
1.71716e-25
7.1872e-24
3.80758e-27
1.8117e-25
7.58334e-29
3.90472e-27
1.58074e-30
7.68714e-29
1.29084e-31
1.44158e-30
8.76445e-33
3.83486e-32
6.2872e-33
2.20619e-32
7.85921e-32
1.24931e-32
3.2343e-31
9.21483e-31
-1.64607e-30
-4.14989e-30
-4.05414e-28
-8.97886e-28
-8.06822e-27
-1.56117e-26
-8.90583e-26
-1.4984e-25
-3.5312e-25
-5.14087e-25
-8.1867e-25
-6.53429e-25
1.32474e-18
2.52598e-17
3.61e-17
3.04048e-16
3.03874e-17
1.92851e-16
6.31962e-18
3.80403e-17
3.9217e-19
2.31945e-18
1.60638e-20
1.02936e-19
5.57163e-22
6.49432e-21
1.51655e-23
3.58358e-22
3.46315e-25
1.42065e-23
8.62848e-27
4.65611e-25
2.49792e-28
1.25874e-26
6.01668e-30
3.07165e-28
1.92922e-31
6.90476e-30
3.06231e-32
1.4918e-31
2.86452e-33
9.55226e-33
3.66149e-33
3.00622e-33
-1.38306e-31
-3.9083e-31
-4.99062e-30
-1.26775e-29
-2.69295e-28
-6.08681e-28
-4.39593e-27
-8.77188e-27
-4.21648e-26
-7.37933e-26
-1.73232e-25
-2.6423e-25
-6.23205e-25
-4.71808e-25
-4.16354e-18
7.09243e-18
1.72751e-17
1.77949e-16
1.94019e-17
1.04957e-16
3.74497e-18
1.75047e-17
2.48542e-19
1.10044e-18
1.2997e-20
6.63447e-20
5.6303e-22
5.29955e-21
1.87605e-23
3.42371e-22
5.23028e-25
1.59244e-23
1.29455e-26
5.60972e-25
2.91553e-28
1.66562e-26
6.28051e-30
4.31786e-28
1.34807e-31
1.02614e-29
5.45849e-33
2.40171e-31
7.18445e-34
5.59353e-33
2.74273e-34
8.55954e-34
-1.00317e-31
-2.89898e-31
-2.79617e-30
-7.36198e-30
-1.24042e-28
-2.93909e-28
-1.8052e-27
-3.81246e-27
-1.52247e-26
-2.84284e-26
-5.69372e-26
-9.33065e-26
-2.48659e-25
-1.74199e-25
-2.46328e-18
1.92881e-18
8.62277e-18
7.43269e-17
8.89676e-18
3.66494e-17
1.42109e-18
5.19175e-18
1.01423e-19
3.68417e-19
6.18923e-21
2.78094e-20
3.13762e-22
2.2899e-21
1.25491e-23
1.56029e-22
4.10306e-25
8.43442e-24
1.14709e-26
3.48236e-25
2.87429e-28
1.21369e-26
6.68935e-30
3.70428e-28
1.51245e-31
1.02996e-29
3.41794e-33
2.56821e-31
3.14624e-33
5.55383e-33
-7.26983e-36
-2.36495e-35
-4.60962e-32
-1.40623e-31
-1.22698e-30
-3.44972e-30
-4.91969e-29
-1.25749e-28
-6.46144e-28
-1.4851e-27
-4.79865e-27
-9.82663e-27
-1.55343e-26
-2.81045e-26
-8.8222e-26
-5.5655e-26
-2.84027e-19
3.9709e-19
4.01641e-18
2.19217e-17
2.91834e-18
9.10942e-18
3.97227e-19
1.22285e-18
3.023e-20
1.02326e-19
1.98764e-21
8.83839e-21
1.07883e-22
7.10745e-22
4.76279e-24
4.64078e-23
1.76385e-25
2.49722e-24
5.59947e-27
1.14283e-25
1.55859e-28
4.45084e-27
3.96323e-30
1.51277e-28
9.52447e-32
4.52787e-30
2.16954e-33
1.18592e-31
1.80439e-33
2.72898e-33
-1.19039e-35
-4.18342e-35
-1.81252e-32
-6.03707e-32
-4.7653e-31
-1.47788e-30
-1.75374e-29
-4.99109e-29
-2.08382e-28
-5.37874e-28
-1.36554e-27
-3.16538e-27
-3.7122e-27