/*--------------------------------*- C++ -*----------------------------------*\
| =========                 |                                                 |
| \\      /  F ield         | OpenFOAM: The Open Source CFD Toolbox           |
|  \\    /   O peration     | Version:  2206                                  |
|   \\  /    A nd           | Website:  www.openfoam.com                      |
|    \\/     M anipulation  |                                                 |
\*---------------------------------------------------------------------------*/
FoamFile
{
    version     2.0;
    format      ascii;
    arch        "LSB;label=32;scalar=64";
    class       volScalarField;
    location    "0.975";
    object      alpha.water;
}
// * * * * * * * * * * * * * * * * * * * * * * * * * * * * * * * * * * * * * //

dimensions      [0 0 0 0 0 0 0];

internalField   nonuniform List<scalar> 
2268
(
1
1
1
1
1
1
1
1
1
1
1
1
1
1
1
1
1
1
1
0.999998
0.999998
0.999997
0.990199
1
1
1
1
1
1
1
1
1
1
1
1
1
1
1
1
1
1
1
1
0.999999
1
0.999991
1
1
1
1
1
1
1
1
1
1
1
1
1
1
1
1
1
1
1
1
1
1
0.991925
1
1
1
1
1
1
1
1
1
1
1
1
1
1
1
1
1
1
1
1
1
0.976756
0.924896
1
1
1
1
1
1
1
1
1
1
1
1
1
1
1
1
1
1
1
1
0.999526
0.949376
0.92265
1
1
1
1
1
1
1
1
1
1
1
1
1
1
1
1
1
1
1
1
0.999997
0.979675
0.927589
1
1
1
0.999972
0.999982
0.999992
0.999996
0.999997
0.999997
0.999997
0.999998
0.999999
1
1
1
1
1
1
1
1
1
0.999586
0.991832
0.594235
0.590668
0.611992
0.650922
0.696483
0.739348
0.79295
0.852549
0.906153
0.948367
0.980659
0.997577
0.99998
0.999995
0.999999
1
1
1
1
1
1
0.999531
0.999515
0.360989
0.366186
0.369255
0.377867
0.382789
0.384207
0.384111
0.384128
0.165647
0.0368011
0.212847
0.387357
0.398191
0.403447
0.429735
0.429756
0.429755
0.429755
0.429753
0.221311
0.145488
0.0692112
0.0830116
0.204316
0.316492
0.292558
0.164723
0.0407604
0.0261434
0.055075
0.050247
0.0946439
0.0817743
0.112781
0.292216
0.429755
0.429753
0.429743
0.0223471
0.0182095
0.0171051
0.0168757
0.0168757
0.0168757
0.0174683
0.0231209
0.0249894
0.0255146
0.0268433
0.0637856
0.0357989
0.00349145
0.00469075
0.0643299
0.321935
0.431219
0.429572
0.0613551
0.0452637
0.018233
0.0169732
0.0168718
0.0242079
0.0717896
0.0249894
0.0242363
0.0459759
0.0637927
0.0634349
0.0161467
0.00246949
0.00290645
0.00450298
0.0518993
0.291581
0.429812
0.0955589
0.0955769
0.0717984
0.066794
0.0397891
0.0882415
0.0882415
0.0847684
0.023084
0.0552366
0.0511434
0.00421946
0.00209728
0.0023606
0.0025564
0.002788
0.00434681
0.119508
0.408391
0.0956524
0.0955132
0.0943324
0.0903186
0.0876336
0.086681
0.0591208
0.0238975
0.0149158
0.0228009
0.0030228
0.00202925
0.00199179
0.00211757
0.00214101
0.001566
0.00414982
0.0892382
0.17297
0.0955132
0.0947289
0.0408246
0.00170542
0.00255162
0.00426726
0.00562742
0.00144
0.00126776
0.0012054
0.00131288
0.00221383
0.000874183
0.000242663
0.00108522
0.00127213
0.0125748
0.0713859
0.0377142
0.0947289
0.0424462
0.00115432
0.00113725
0.00115063
0.00114037
0.0016272
0.00126988
0.00103507
0.00107792
0.00123754
0.00163446
0.00069861
5.04075e-05
9.34635e-05
0.00117167
0.00402261
0.0280425
0.0172917
4.49587e-07
7.64941e-06
0.00312423
0.00531764
0.00550489
0.0105711
0.031083
0.0680609
0.125537
0.207774
0.335639
0.531342
0.759294
0.878058
0.932837
0.964202
0.989392
1
1
1
0.996154
0.999515
0.999378
3.97577e-08
4.49587e-07
2.59544e-06
3.82022e-07
5.67803e-06
3.70838e-07
1.44781e-08
1.82931e-09
1.50011e-10
3.40496e-11
1.23289e-10
3.81804e-09
0.0105108
0.0847308
0.174616
0.273541
0.38708
0.521808
0.653909
0.761887
0.756893
0.798866
0.935067
9.65923e-09
3.30234e-08
-9.83877e-11
-1.35605e-12
-6.73654e-21
2.92104e-07
7.74723e-09
3.52993e-14
1.34265e-12
1.84184e-11
3.40496e-11
1.23289e-10
3.81804e-09
1.10464e-07
1.18552e-06
2.1352e-07
2.57731e-05
0.0195851
0.096698
0.223324
0.367099
0.493661
0.495922
3.12061e-09
-5.37102e-24
-3.96539e-16
-1.58411e-16
-2.619e-18
4.89642e-33
2.93011e-16
1.15469e-15
3.52993e-14
1.93169e-11
1.02094e-09
1.65545e-08
6.10233e-08
1.13534e-06
1.15922e-06
2.57506e-05
0.00726505
0.0145394
0.00486547
0.0075339
0.0200062
0.0269809
0.0216688
5.61998e-09
8.50211e-28
-3.56645e-16
-1.37153e-16
2.12459e-17
2.25027e-15
1.03267e-13
2.03639e-12
4.97597e-12
2.70593e-11
1.03581e-09
2.56036e-08
4.22515e-07
4.86488e-06
4.85717e-05
0.00156435
0.00274117
0.000946685
0.000392766
0.00192008
0.00279607
0.00159311
0.000770625
4.99227e-08
1.78369e-12
-1.21904e-16
-7.41743e-18
1.19144e-16
6.75403e-15
3.95296e-13
4.903e-12
1.66228e-11
1.93345e-10
3.32991e-09
4.45436e-08
4.49835e-07
3.48419e-06
0.000150596
0.000472717
0.00015485
2.4761e-05
8.35388e-05
0.00022228
0.000402245
0.0004094
0.000249609
5.45321e-08
3.37293e-09
-1.54074e-34
1.13721e-17
5.8147e-16
1.44329e-14
3.60189e-13
3.77208e-12
2.79297e-11
2.83208e-10
3.51842e-09
3.52676e-08
2.82643e-07
1.15017e-05
4.56828e-05
1.1466e-05
8.59099e-06
6.1171e-06
1.62368e-05
2.08237e-05
2.4452e-05
3.36247e-05
4.15308e-05
5.45225e-08
1.46514e-10
5.78725e-19
1.42656e-17
1.03006e-15
2.8878e-14
5.99887e-13
6.09815e-12
2.8915e-11
2.32147e-10
1.93784e-09
1.63886e-08
6.01016e-07
2.87749e-06
1.37728e-06
1.99264e-06
1.36122e-06
1.38442e-06
2.21941e-06
3.25522e-06
4.92113e-06
5.58846e-06
6.41875e-06
5.44934e-08
9.1023e-18
3.84603e-18
1.63484e-17
9.44331e-16
2.25275e-14
4.16142e-13
5.27245e-12
3.15077e-11
1.16368e-10
6.40683e-10
8.28488e-09
8.34169e-08
9.7755e-08
2.35877e-07
3.24764e-07
2.22556e-07
2.50941e-07
4.0282e-07
6.59081e-07
9.50706e-07
1.07394e-06
9.88236e-07
5.48727e-08
1.29626e-17
9.1023e-18
1.45296e-17
5.06525e-16
1.10321e-14
1.65518e-13
1.95124e-12
1.6601e-11
7.565e-11
2.5168e-10
1.30561e-09
4.48855e-09
1.54933e-08
3.67966e-08
4.93625e-08
3.78325e-08
4.32799e-08
7.3803e-08
1.21981e-07
1.67432e-07
1.83189e-07
1.43931e-07
5.51086e-08
1.28563e-16
1.51981e-16
8.98539e-18
1.7663e-16
3.43668e-15
4.51824e-14
4.62902e-13
4.01058e-12
2.55326e-11
8.44704e-11
2.22055e-10
7.46343e-10
2.53293e-09
5.39088e-09
7.15604e-09
6.275e-09
7.74068e-09
1.33243e-08
2.17365e-08
2.91497e-08
3.086e-08
2.19123e-08
5.52101e-08
1.02724e-16
3.31349e-16
1.82984e-18
4.36289e-17
7.50829e-16
8.98619e-15
8.40753e-14
6.46515e-13
4.22263e-12
2.11487e-11
6.61197e-11
1.60569e-10
4.53758e-10
8.68309e-10
1.13261e-09
1.22569e-09
1.57764e-09
2.62451e-09
4.14717e-09
5.698e-09
6.39028e-09
5.18861e-09
5.51968e-08
6.2422e-17
2.33246e-16
3.15817e-19
8.26128e-18
1.30369e-16
1.45175e-15
1.27546e-14
9.30719e-14
5.89138e-13
3.47186e-12
1.7994e-11
5.71131e-11
1.07538e-10
1.74383e-10
2.42383e-10
2.79435e-10
3.82201e-10
6.25357e-10
1.01576e-09
1.70082e-09
2.6129e-09
2.97315e-09
4.2435e-08
1.88219e-17
1.09448e-16
5.19249e-20
1.3843e-18
2.06931e-17
2.18312e-16
1.84531e-15
1.33495e-14
8.66642e-14
5.29889e-13
3.06666e-12
1.42993e-11
3.72878e-11
5.83292e-11
7.0951e-11
1.05084e-10
1.62964e-10
2.36031e-10
3.8483e-10
9.27029e-10
1.8774e-09
2.47065e-09
5.26727e-09
1.12331e-17
4.15155e-17
9.54603e-21
2.24368e-19
3.27371e-18
3.32117e-17
2.73884e-16
1.98945e-15
1.32989e-14
8.37109e-14
4.83901e-13
2.31276e-12
7.88764e-12
1.62198e-11
2.47575e-11
4.03355e-11
7.19353e-11
1.18276e-10
1.94352e-10
3.71899e-10
1.0095e-09
1.82026e-09
1.92445e-15
8.32012e-16
1.29686e-18
3.68612e-21
3.47177e-20
5.22631e-19
5.18393e-18
4.21035e-17
3.06915e-16
2.08717e-15
1.33215e-14
7.66689e-14
3.57778e-13
1.20001e-12
2.8892e-12
5.65031e-12
1.06246e-11
2.19698e-11
4.25689e-11
7.39504e-11
2.22888e-10
1.64612e-09
1.81805e-08
1.01142e-10
1.83333e-14
3.68612e-21
2.95229e-21
4.72407e-21
8.2792e-20
8.14355e-19
6.56748e-18
4.79534e-17
3.27921e-16
2.09199e-15
1.19038e-14
5.47281e-14
1.82847e-13
4.51288e-13
9.5737e-13
2.09126e-12
5.36746e-12
1.40832e-11
3.08394e-11
1.88297e-10
2.00163e-09
2.47474e-08
1.12469e-10
8.8679e-14
2.95229e-21
2.8198e-21
7.0848e-22
1.28314e-20
1.26462e-19
1.0159e-18
7.42033e-18
5.06508e-17
3.20082e-16
1.79167e-15
8.13829e-15
2.74491e-14
7.07088e-14
1.62342e-13
4.09672e-13
1.45427e-12
7.92966e-12
3.71999e-11
1.36158e-10
1.06495e-09
1.31648e-08
6.43925e-11
1.16406e-13
3.84959e-21
4.8168e-21
2.98609e-22
1.87635e-21
1.92772e-20
1.53741e-19
1.11959e-18
7.5931e-18
4.73134e-17
2.60069e-16
1.16942e-15
4.00141e-15
1.08733e-14
2.79308e-14
8.83684e-14
4.60386e-13
4.04321e-12
3.35007e-11
1.47965e-10
1.12816e-09
1.55376e-08
2.91334e-11
1.10701e-13
4.7469e-21
1.08204e-20
2.98609e-22
2.11618e-22
2.88201e-21
2.26376e-20
1.63309e-19
1.09567e-18
6.71637e-18
3.62626e-17
1.61843e-16
5.64122e-16
1.62947e-15
4.77566e-15
1.94311e-14
1.38689e-13
1.47404e-12
1.62629e-11
1.18673e-10
9.49522e-10
1.25007e-08
1.41383e-11
9.67124e-14
6.80187e-21
2.68557e-20
2.92809e-22
4.03673e-23
4.18589e-22
3.23285e-21
2.29115e-20
1.51342e-19
9.11344e-19
4.83955e-18
2.15069e-17
7.6677e-17
2.36461e-16
7.92237e-16
4.03328e-15
3.51549e-14
3.92739e-13
4.36127e-12
4.13437e-11
2.49774e-10
5.68991e-10
7.70715e-12
8.31322e-14
1.48439e-20
5.56347e-20
6.05578e-22
1.7295e-23
5.57711e-23
4.45528e-22
3.07495e-21
1.99045e-20
1.1765e-19
6.15701e-19
2.73353e-18
1.00023e-17
3.29915e-17
1.25578e-16
7.55953e-16
7.13736e-15
7.81061e-14
8.25285e-13
7.78088e-12
4.36295e-11
5.56363e-11
4.85676e-12
7.26634e-14
1.66524e-18
1.12061e-19
1.71937e-21
1.46618e-23
6.42758e-24
5.85718e-23
3.91622e-22
2.47554e-21
1.43657e-20
7.42822e-20
3.30494e-19
1.24278e-18
4.36185e-18
1.83701e-17
1.20457e-16
1.12764e-15
1.17101e-14
1.20546e-13
1.11501e-12
7.93149e-12
1.6292e-11
3.5294e-12
6.3772e-14
1.18011e-17
3.85798e-19
9.04113e-21
2.95838e-23
1.34846e-24
6.98187e-24
4.67559e-23
2.88396e-22
1.64669e-21
8.44353e-21
3.77566e-20
1.45742e-19
5.37586e-19
2.40595e-18
1.6075e-17
1.45202e-16
1.49013e-15
1.5313e-14
1.4204e-13
1.11949e-12
4.11432e-12
2.87938e-12
5.82737e-14
6.63168e-17
2.43671e-18
7.09972e-20
2.5266e-22
1.15191e-24
6.01612e-25
5.14677e-24
3.10785e-23
1.75557e-22
8.97575e-22
4.04784e-21
1.60064e-20
6.1171e-20
2.81291e-19
1.86311e-18
1.69159e-17
1.75178e-16
1.80262e-15
1.66426e-14
1.30857e-13
7.90435e-13
2.676e-12
6.01326e-14
4.0223e-16
2.09334e-17
6.24272e-19
3.07308e-21
3.52089e-24
6.56716e-26
4.98759e-25
3.05145e-24
1.72276e-23
8.85589e-23
4.04749e-22
1.63757e-21
6.4203e-21
2.97289e-20
1.99822e-19
1.84009e-18
1.91238e-17
1.96319e-16
1.79416e-15
1.38089e-14
9.0921e-14
2.76034e-12
8.61264e-14
2.69455e-15
2.08975e-16
7.24343e-18
4.59061e-20
5.31425e-23
3.48967e-26
3.68759e-26
2.66237e-25
1.54037e-24
8.05537e-24
3.75642e-23
1.55771e-22
6.22071e-22
2.94036e-21
2.00771e-20
1.85807e-19
1.92877e-18
1.96261e-17
1.76644e-16
1.32828e-15
7.93856e-15
3.11539e-12
2.87161e-13
1.86881e-14
2.11137e-15
8.75795e-17
9.38372e-19
7.84091e-22
3.29018e-26
8.06614e-27
1.86731e-26
1.23309e-25
6.72721e-25
3.23045e-24
1.37827e-23
5.66218e-23
2.73544e-22
1.8838e-21
1.74528e-20
1.79905e-19
1.80543e-18
1.59208e-17
1.16798e-16
6.63645e-16
4.10002e-12
9.93709e-13
1.1456e-13
1.79491e-14
9.63222e-16
1.43873e-17
3.34739e-20
1.61806e-24
6.91849e-27
2.10536e-27
7.90293e-27
4.97866e-26
2.57945e-25
1.14722e-24
4.86415e-24
2.39287e-23
1.65696e-22
1.52704e-21
1.54477e-20
1.51002e-19
1.295e-18
9.3415e-18
5.12828e-17
5.60085e-12
2.38608e-12
5.25459e-13
1.03742e-13
7.48581e-15
1.3103e-16
7.37749e-19
4.1372e-23
1.03535e-25
2.05454e-27
2.05454e-27
3.78542e-27
1.70043e-26
8.92051e-26
3.95771e-25
1.98026e-24
1.36042e-23
1.22958e-22
1.11579e-21
1.00089e-20
8.11841e-20
6.16292e-19
3.55544e-18
5.78105e-12
4.10005e-12
1.52147e-12
3.85555e-13
3.63891e-14
8.34193e-16
7.033e-18
1.9212e-21
2.22892e-24
1.72259e-26
2.30263e-27
2.55073e-27
3.39339e-27
6.10933e-27
3.06286e-26
1.55601e-25
9.86593e-25
6.9413e-24
3.62833e-23
1.00861e-22
4.99925e-22
1.2129e-20
1.66498e-19
5.3473e-12
4.70523e-12
2.67268e-12
8.17445e-13
8.76148e-14
2.98255e-15
4.62403e-17
1.13521e-19
5.65084e-22
5.61716e-24
6.17798e-26
3.39339e-27
3.921e-27
2.21867e-27
2.07673e-27
1.08601e-26
4.19306e-26
1.50072e-25
-4.70198e-39
-1.34578e-22
-3.68086e-21
9.89775e-38
0
3.40353e-12
4.45368e-12
2.88675e-12
9.29732e-13
1.08522e-13
4.82546e-15
1.39586e-16
2.42193e-18
1.60369e-20
2.42296e-22
4.45668e-24
8.20474e-26
2.42798e-27
1.22623e-27
5.07045e-28
6.5695e-28
0
-2.19404e-25
-4.83558e-23
-8.63602e-22
-8.59397e-21
-3.09048e-20
-5.22368e-20
1.22531e-12
3.85552e-12
2.6132e-12
8.27467e-13
9.38767e-14
4.56073e-15
1.85456e-16
6.19145e-18
1.41521e-19
2.24138e-21
2.43447e-23
4.12168e-25
8.44251e-27
5.07045e-28
3.33446e-28
4.76584e-29
-2.10151e-26
-6.92978e-25
-3.40695e-23
-5.06813e-22
-4.4413e-21
-1.6743e-20
-4.20866e-20
3.39196e-13
2.85358e-12
1.88828e-12
5.34389e-13
5.39968e-14
3.01792e-15
1.62533e-16
7.00961e-18
2.19064e-19
5.53431e-21
1.18772e-22
2.3047e-24
4.32761e-26
7.65366e-28
4.52762e-29
0
-1.59071e-26
-4.12918e-25
-1.6964e-23
-2.28178e-22
-1.77985e-21
-6.17394e-21
-1.75977e-20
9.26811e-14
1.56237e-12
9.45869e-13
2.20909e-13
2.03084e-14
1.31906e-15
8.77982e-17
4.81432e-18
1.97129e-19
6.42611e-21
1.7478e-22
4.08389e-24
8.53643e-26
1.76528e-27
1.1479e-29
-1.28706e-30
-7.82138e-27
-1.97139e-25
-7.42899e-24
-9.13524e-23
-6.34634e-22
-1.92461e-21
-6.48063e-21
1.95054e-14
5.96844e-13
3.15255e-13
6.32797e-14
5.78951e-15
4.28261e-16
3.06813e-17
1.83521e-18
8.92975e-20
3.51328e-21
1.15445e-22
3.29735e-24
8.565e-26
2.0696e-27
3.11689e-29
-2.2823e-30
-3.38418e-27
-8.55152e-26
-2.99786e-24
-3.37576e-23
-2.09215e-22
-5.38175e-22
-2.38262e-21
3.6349e-15
1.62381e-13
7.78036e-14
1.45306e-14
1.37179e-15
1.1093e-16
8.16741e-18
4.94079e-19
2.4762e-20
1.05789e-21
3.88819e-23
1.25557e-24
3.6244e-26
9.43428e-28
1.73494e-29
-2.82494e-30
-1.36137e-27
-3.4635e-26
-1.12847e-24
-1.16397e-23
-6.45243e-23
-1.38668e-22
-8.87128e-22
6.971e-16
3.51116e-14
1.6041e-14
2.84091e-15
2.7647e-16
2.36883e-17
1.77217e-18
1.0883e-19
5.56805e-21
2.4152e-22
9.00863e-24
2.93847e-25
8.56177e-27
2.28719e-28
4.58416e-30
-2.19639e-30
-5.15387e-28
-1.31699e-26
-3.97485e-25
-3.75693e-24
-1.86769e-23
-3.34731e-23
-3.22447e-22
1.18925e-16
6.64794e-15
2.89068e-15
4.80408e-16
4.83384e-17
4.29357e-18
3.23086e-19
2.00228e-20
1.03625e-21
4.5339e-23
1.69941e-24
5.54845e-26
1.6092e-27
4.23777e-29
8.67964e-31
-1.1648e-30
-1.83981e-28
-4.70024e-27
-1.31082e-25
-1.13572e-24
-5.07434e-24
-7.64229e-24
-1.10478e-22
1.34586e-17
1.16074e-15
4.73066e-16
7.41895e-17
7.71448e-18
6.95033e-19
5.20347e-20
3.2142e-21
1.65758e-22
7.21024e-24
2.67935e-25
8.63749e-27
2.46007e-28
6.31784e-30
1.30287e-31
-4.87437e-31
-6.17872e-29
-1.57015e-27
-4.04043e-26
-3.21041e-25
-1.29192e-24
-1.65467e-24
-3.51277e-23
1.27792e-17
1.04825e-16
4.03734e-17
5.97231e-18
6.3109e-19
5.66843e-20
4.18257e-21
2.54699e-22
1.29385e-23
5.53544e-25
2.01895e-26
6.36871e-28
1.76738e-29
4.39791e-31
8.9386e-33
-1.77451e-31
-1.95991e-29
-4.926e-28
-1.16916e-26
-8.52174e-26
-3.0906e-25
-3.3926e-25
-1.03759e-23
0.93753
0.350846
0.160013
0.0447732
0.783147
0.176698
0.0282182
0.0172683
0.170085
0.0082984
0.00138673
0.000426203
0.00429339
0.00141164
0.000313253
7.83365e-05
0.000882702
0.00031866
5.83453e-05
1.67442e-05
0.000160884
5.83422e-05
7.54593e-06
7.87744e-06
2.54372e-05
7.54568e-06
1.18058e-06
7.5179e-06
3.49157e-06
6.96554e-07
4.85014e-07
2.41714e-07
4.7615e-07
8.97723e-08
1.38229e-07
1.54642e-07
5.8969e-08
2.4522e-08
9.60234e-08
1.38223e-07
1.09144e-08
1.29383e-08
2.30499e-08
7.51009e-08
4.34782e-09
7.81757e-09
1.29383e-08
5.24279e-08
3.31544e-09
4.26142e-09
7.3133e-09
2.59885e-08
2.8799e-09
3.3082e-09
4.5797e-09
1.12598e-08
2.89581e-09
-5.02399e-09
2.06782e-07
8.62718e-05
1.74842e-07
1.39385e-06
7.78192e-05
0.000807902
2.79213e-07
2.69897e-06
0.000301628
0.000942357
1.53709e-07
1.70691e-06
0.000206796
0.000767972
2.62772e-07
2.78256e-06
0.000103213
0.000631413
1.35163e-07
1.24031e-06
1.69681e-05
0.000244835
1.74657e-09
3.5254e-08
4.51325e-07
4.68792e-06
5.25318e-10
6.88043e-09
9.37953e-08
8.70831e-07
9.2987e-11
1.18613e-09
1.66092e-08
1.26699e-07
1.52528e-11
1.7806e-10
2.50564e-09
1.46046e-08
3.07758e-12
2.38905e-11
3.31766e-10
1.40253e-09
4.78113e-13
3.30791e-12
3.372e-11
1.15645e-10
5.65682e-14
3.4341e-13
2.83226e-12
8.52815e-12
4.74561e-15
3.45742e-14
2.6899e-13
7.96232e-13
3.57169e-16
3.1336e-15
1.25361e-13
2.50193e-13
2.47828e-17
3.1005e-16
5.66201e-14
3.01896e-13
1.47243e-18
4.65319e-16
2.70051e-14
2.25678e-13
6.21637e-20
7.39609e-16
1.27152e-14
7.58983e-14
-9.61975e-36
6.93826e-16
3.77982e-15
1.34288e-14
-6.32203e-20
3.33455e-16
4.99074e-16
1.44431e-15
-7.65873e-20
3.60599e-17
1.49784e-17
4.41547e-17
-7.36107e-20
2.10648e-19
0
0
-6.05208e-20
-2.11454e-18
-6.61943e-18
-6.16282e-18
-4.17075e-20
-2.24522e-18
-4.71895e-18
-4.35517e-18
-2.42326e-20
-1.34536e-18
-2.17705e-18
-1.6771e-18
-1.19145e-20
-6.21801e-19
-7.72995e-19
-4.62004e-19
-4.94034e-21
-2.35511e-19
-2.19467e-19
-9.71054e-20
-1.7289e-21
-7.41003e-20
-5.00049e-20
-1.57898e-20
0.0208693
0.00809867
0.00121786
0.00115432
0.00112151
0.00128547
0.00159343
0.00128429
0.000999334
0.00104832
0.00219022
0.00174801
0.000614653
2.5368e-05
4.28354e-05
0.000818125
0.000265431
0.00442001
0.0279925
0.0134769
0.0227257
0.0240873
0.00865557
0.00105139
0.00100446
0.00159421
0.0010377
0.000999799
0.00123348
0.00230898
0.000748758
2.50096e-05
2.5106e-05
2.53504e-05
5.12946e-05
8.97374e-05
0.00130528
0.167706
0.000969817
0.0156775
0.0316018
0.0325097
0.00834474
0.000951746
0.000930932
0.000904687
0.00100593
0.00235332
0.00235061
2.48332e-05
2.50715e-05
2.60455e-05
2.64648e-05
3.15321e-05
4.56422e-05
0.0023899
0.199936
0.000141593
0.00129419
0.0248947
0.0325097
0.0323039
0.000908423
0.000902247
0.000901148
0.000906106
0.00236503
0.000913612
2.55508e-05
2.48573e-05
5.63215e-05
2.9392e-05
2.98988e-05
2.89388e-05
0.00127093
0.200904
4.33671e-05
0.000143054
0.00701945
0.0325097
0.0321419
0.0222239
0.000901148
0.000900914
0.00119255
0.00210483
4.59573e-05
2.9176e-05
2.5671e-05
5.6642e-05
4.92889e-05
2.70353e-05
2.45453e-05
0.000639599
0.201435
1.55014e-05
4.3719e-05
0.00362101
0.0312874
0.031774
0.0317652
0.00755098
0.000901149
0.00234307
0.000393809
5.62363e-05
3.94939e-05
2.92478e-05
4.61723e-05
5.48835e-05
2.45375e-05
2.45599e-05
0.00531459
0.201435
1.93645e-06
9.93016e-06
0.000137097
0.00591564
0.0317652
0.0311115
0.0299674
0.0182609
0.000205213
0.000204925
0.000424024
0.000208559
3.74233e-05
4.3614e-05
5.42329e-05
2.72526e-05
2.35666e-05
0.0403136
0.201435
3.2752e-07
2.05792e-06
2.42208e-05
0.000168627
0.00277512
0.0115123
0.00982281
0.00159952
0.000271173
0.000440266
0.000993501
0.000933677
4.31378e-05
4.3562e-05
4.32118e-05
2.98223e-05
0.000111042
0.0766962
0.20106
4.9603e-07
7.02058e-05
0.000687266
0.000743907
0.000447894
0.000441608
0.000416657
0.000472363
0.000520119
0.000996864
0.000998399
0.000993501
0.00035551
4.35662e-05
4.16746e-05
4.98494e-05
0.000173987
0.0489396
0.199635
6.6582e-07
3.59132e-05
0.000865336
0.00130371
0.000718972
0.000416667
0.00032728
0.000463606
0.000993789
0.000998399
0.000993789
0.000950077
0.000842601
4.16728e-05
2.77026e-05
4.2164e-05
0.00067295
0.017642
0.19501
5.82276e-07
2.41533e-05
0.000729309
0.00130075
0.00130352
0.00110083
0.000222277
0.000539397
0.000979803
0.000993789
0.000635832
0.000796606
0.000778635
4.62204e-05
1.7096e-05
2.77026e-05
0.000903627
0.0135833
0.0661947
3.68881e-07
2.1071e-05
0.000222505
0.00110357
0.00129579
0.00112422
0.000152265
0.000252536
0.000829164
0.000313862
6.47666e-05
8.79413e-05
0.000725338
0.000345702
9.5109e-06
1.7096e-05
0.000868616
0.0169044
0.00796018
1.47745e-07
3.00012e-06
7.69747e-06
0.000551516
0.00128599
0.00100764
0.000102644
7.20252e-05
0.00014562
6.47666e-05
6.45839e-05
6.47666e-05
0.000710161
0.00061221
5.46201e-06
9.5109e-06
0.000937896
0.0169051
0.00796016
4.23439e-08
1.84e-07
1.33095e-06
6.76842e-05
0.000937435
0.00105145
0.000540687
6.95373e-05
6.70648e-05
6.45922e-05
6.47393e-05
6.48866e-05
0.000154664
5.14176e-05
4.07069e-06
1.01956e-05
0.000116902
0.0158971
0.00796016
0.000319817
0.000292491
7.25163e-06
1.14188e-05
0.00013447
0.00102131
0.00127708
0.000404804
9.23595e-05
6.6768e-05
6.48866e-05
0.000121128
4.52407e-06
3.90893e-06
3.67212e-06
5.68344e-06
6.64919e-06
0.00778898
0.00824356
0.000962484
0.00096728
0.000556047
2.28522e-05
4.41351e-05
0.0002079
0.00127582
0.00127708
0.000509526
0.000107978
6.80672e-05
0.000185805
6.6938e-05
2.85798e-06
2.51495e-06
1.24166e-05
1.01712e-05
0.00822011
0.00846274
0.000968165
0.00063865
0.000328203
0.000248327
4.21381e-05
3.59346e-05
0.000110264
0.000374151
0.000438477
0.000191737
9.83343e-05
0.000186288
0.000186013
1.95177e-05
2.51495e-06
1.00233e-05
9.54565e-06
0.00604015
0.109606
0.000706797
3.94729e-05
3.20852e-05
9.2506e-05
4.53341e-05
3.4963e-05
3.51568e-05
3.5397e-05
4.4715e-05
2.63114e-05
4.73141e-05
0.000185805
0.000186285
4.25934e-05
2.51495e-06
4.69353e-06
8.90276e-06
9.54559e-06
0.247339
0.000686741
9.60211e-05
6.84565e-06
2.67111e-05
6.44603e-05
3.51288e-05
3.52732e-05
8.36616e-05
0.000109015
1.90258e-05
1.23232e-05
0.000183518
0.000182196
1.68528e-05
1.64738e-06
9.6779e-06
4.91579e-06
0.000752677
0.249727
0.000668628
0.000424392
3.73221e-06
7.74529e-07
6.02094e-05
0.000132366
0.000134665
0.000134637
0.000126359
2.07013e-05
5.72151e-06
2.20362e-05
6.98283e-06
1.33164e-07
1.5361e-09
7.68494e-10
-4.44322e-11
0.00878056
0.249723
0.000113159
0.000215982
7.66907e-05
1.37806e-07
1.07926e-07
1.07926e-07
1.73106e-05
7.16959e-05
2.25625e-06
6.10775e-06
5.4615e-06
5.53535e-08
1.6679e-09
1.55877e-09
1.39449e-09
5.22729e-10
-2.24195e-09
0.00948078
0.249735
9.52493e-07
1.7556e-06
2.14582e-07
1.92368e-06
2.70167e-07
8.64993e-08
2.33197e-06
2.02052e-06
1.97388e-06
5.75766e-06
1.47112e-05
2.57741e-06
6.34233e-07
1.61025e-09
1.56176e-09
9.45475e-10
0
0.00889402
0.249716
1.14105e-07
1.7808e-07
5.42443e-08
5.08168e-08
5.07194e-08
6.61249e-08
1.39397e-06
2.16351e-06
1.99192e-06
1.37944e-05
1.47873e-05
1.25702e-05
1.65484e-06
1.4234e-09
1.6663e-09
1.3079e-09
1.15513e-10
0.00947734
0.249614
1.22977e-08
1.80217e-08
3.35679e-08
3.78869e-08
8.94413e-08
7.20577e-07
2.67264e-07
4.31869e-07
2.00226e-06
1.47303e-06
8.8004e-06
4.96482e-06
5.63544e-07
5.89095e-10
1.47516e-09
1.87634e-09
1.54245e-09
0.00983792
0.249245
1.02415e-09
5.2283e-09
5.82362e-08
9.53033e-08
9.53033e-08
3.30008e-08
1.67802e-07
3.1998e-06
3.91279e-06
5.43096e-07
7.54424e-10
5.69262e-11
2.6938e-11
6.3248e-11
5.88033e-10
3.29826e-09
9.85572e-09
0.00943784
0.248333
2.19316e-10
4.95419e-09
7.36233e-08
9.45004e-08
1.91734e-08
2.12438e-08
1.20865e-06
2.97605e-06
3.11334e-06
6.2034e-07
1.13822e-10
2.6938e-11
1.19815e-11
7.24002e-09
3.29826e-09
2.03542e-08
8.20051e-08
0.00839317
0.246124
1.15645e-10
1.87638e-08
3.50698e-08
1.0597e-08
8.82194e-09
5.77749e-08
9.84728e-10
4.67047e-10
2.08056e-10
1.6935e-10
1.52409e-10
1.48645e-10
7.47479e-12
2.27254e-08
1.43693e-08
1.2589e-07
9.42868e-07
0.00649045
0.234272
5.41472e-10
5.22939e-09
2.03846e-09
2.52259e-09
7.02124e-09
6.88694e-09
9.87182e-10
6.07975e-10
5.80213e-10
5.50079e-10
5.82902e-10
3.41382e-10
3.50388e-12
1.78628e-08
2.79913e-08
2.86757e-06
1.45114e-05
0.0156088
0.0691384
3.343e-10
8.41183e-11
1.90152e-10
4.61686e-10
8.30142e-10
1.66236e-10
1.02124e-09
7.78603e-10
5.76158e-10
6.00582e-10
4.79082e-10
8.04794e-11
2.4658e-12
1.97905e-09
2.42761e-06
6.21736e-05
0.00296118
0.0195255
0.000527364
2.43557e-11
2.50003e-11
9.54187e-11
4.5877e-11
1.35531e-11
2.43465e-11
8.75998e-11
1.01106e-10
8.29876e-11
4.2399e-11
3.30875e-12
7.58595e-13
9.24825e-13
1.93692e-12
5.29148e-06
0.00070311
0.00754733
0.0195255
0.000468937
4.0368e-13
1.33003e-11
1.36184e-11
7.54668e-12
1.34025e-11
8.83975e-11
1.2932e-10
1.293e-10
9.66414e-11
4.51165e-11
1.19483e-11
5.90396e-13
3.07891e-12
5.61389e-12
5.12859e-08
0.00238416
0.0175197
0.0177897
0.000384766
2.39837e-13
2.29117e-12
1.6548e-12
1.73791e-12
4.01379e-12
9.08452e-12
3.42683e-11
2.14991e-11
4.91812e-12
8.88594e-13
7.82727e-14
2.94355e-16
1.64927e-12
2.20326e-11
1.5898e-10
0.00176174
0.0114829
0.00182348
0.000259412
2.10198e-13
4.0041e-13
4.5271e-13
7.41349e-13
1.23837e-12
1.08165e-12
6.01918e-13
2.56931e-13
1.27504e-13
4.22997e-14
4.60467e-15
8.51814e-18
-2.17027e-16
3.29876e-09
5.5891e-10
6.76563e-10
4.43286e-05
7.57584e-08
1.46744e-07
7.69109e-14
4.43645e-14
1.10323e-13
3.95807e-13
5.47437e-13
4.78627e-13
4.46472e-13
2.99309e-13
1.13363e-13
1.80931e-14
5.12838e-16
-6.46804e-18
-4.30399e-16
3.07478e-09
4.48213e-10
4.8209e-09
6.50059e-09
4.13813e-08
7.57584e-08
4.31201e-15
1.14096e-15
6.17741e-15
2.80024e-14
9.28529e-14
8.31402e-14
4.5442e-14
1.21398e-14
1.30908e-15
5.3619e-18
-5.14655e-18
-2.92604e-16
-3.42017e-16
1.04415e-09
1.45583e-12
9.9655e-09
1.33337e-08
1.9728e-07
4.54123e-07
2.1798e-17
8.73036e-18
1.23516e-16
6.52924e-15
1.55752e-14
1.04022e-14
3.21675e-15
3.46113e-16
4.92681e-18
-3.94102e-35
-1.86761e-17
-1.73946e-16
-1.73446e-16
2.72965e-11
1.6442e-17
1.45583e-12
7.19717e-06
1.70823e-06
4.79572e-07
0
-5.88689e-19
5.23809e-17
2.99107e-15
2.30418e-15
8.33489e-16
1.09748e-16
2.76285e-18
-4.88193e-36
-2.02132e-19
-9.80519e-18
-8.74799e-17
-7.48966e-17
-2.46519e-33
8.22098e-18
7.30974e-11
1.93962e-05
7.01334e-06
5.59633e-07
-1.37307e-18
-5.70216e-19
7.28899e-18
1.64803e-16
1.20867e-16
3.7535e-17
3.39862e-18
9.01604e-21
-1.08215e-19
-1.22676e-19
-4.29844e-18
-3.74198e-17
-2.68017e-17
2.87921e-16
1.66513e-17
2.15518e-14
1.94898e-05
1.07696e-05
7.96837e-07
-5.3039e-19
-1.06121e-19
4.56001e-19
8.84536e-18
5.01868e-18
9.39466e-19
3.56132e-20
9.40514e-24
-4.43026e-20
-3.29568e-20
-1.5269e-18
-1.30274e-17
-7.48783e-18
3.87009e-16
8.96847e-17
1.33123e-18
1.11576e-05
1.57276e-05
1.78342e-06
-1.07467e-19
-1.20028e-20
2.45925e-20
1.87354e-19
7.55658e-20
7.49257e-21
1.04493e-22
-1.74383e-41
-1.06668e-20
-5.73659e-21
-4.13295e-19
-3.45505e-18
-1.47907e-18
3.55027e-16
7.33065e-17
1.28747e-19
1.48484e-18
1.57519e-05
1.8909e-06
-1.51063e-20
-8.81219e-22
-2.45781e-23
-1.14177e-24
2.76497e-24
4.24922e-24
1.03611e-24
7.25876e-26
-1.73976e-21
-5.93364e-22
-7.59932e-20
-6.21509e-19
-1.69291e-19
1.22302e-16
1.16232e-17
4.25713e-22
1.28747e-19
1.3118e-05
1.96462e-06
-1.53465e-21
-3.94058e-23
-2.59355e-25
-2.94279e-27
-8.2982e-29
-3.07132e-30
-9.95438e-32
-2.64253e-33
-1.46462e-22
-2.17849e-23
-7.18338e-21
-5.71458e-20
-6.79181e-21
3.49477e-18
8.83732e-20
7.07607e-38
1.57759e-10
1.47085e-05
2.93989e-06
)
;

boundaryField
{
    leftWall
    {
        type            zeroGradient;
    }
    rightWall
    {
        type            zeroGradient;
    }
    lowerWall
    {
        type            zeroGradient;
    }
    atmosphere
    {
        type            inletOutlet;
        inletValue      uniform 0;
        value           nonuniform List<scalar> 
46
(
1.27792e-17
1.04825e-16
4.03734e-17
5.97231e-18
6.3109e-19
5.66843e-20
4.18257e-21
2.54699e-22
1.29385e-23
5.53544e-25
2.01895e-26
6.36871e-28
1.76738e-29
4.39791e-31
8.9386e-33
-1.77451e-31
-1.95991e-29
-4.926e-28
-1.16916e-26
-8.52174e-26
-3.0906e-25
-3.3926e-25
-1.03759e-23
-1.7289e-21
-7.41003e-20
-5.00049e-20
-1.57898e-20
-1.53465e-21
-3.94058e-23
0
0
0
0
0
0
0
0
0
0
0
0
0
0
0
1.47085e-05
2.93989e-06
)
;
    }
    defaultFaces
    {
        type            empty;
    }
}


// ************************************************************************* //
