/*--------------------------------*- C++ -*----------------------------------*\
| =========                 |                                                 |
| \\      /  F ield         | OpenFOAM: The Open Source CFD Toolbox           |
|  \\    /   O peration     | Version:  2206                                  |
|   \\  /    A nd           | Website:  www.openfoam.com                      |
|    \\/     M anipulation  |                                                 |
\*---------------------------------------------------------------------------*/
FoamFile
{
    version     2.0;
    format      ascii;
    arch        "LSB;label=32;scalar=64";
    class       volScalarField;
    location    "0.975";
    object      p;
}
// * * * * * * * * * * * * * * * * * * * * * * * * * * * * * * * * * * * * * //

dimensions      [1 -1 -2 0 0 0 0];

internalField   nonuniform List<scalar> 
2268
(
1356.68
1357.23
1358.65
1360.11
1362.12
1364.7
1367.77
1371.25
1375.02
1379.03
1383.18
1387.39
1391.59
1395.68
1399.61
1403.3
1406.72
1409.81
1412.64
1415.09
1417.17
1419.08
1420.61
1175.38
1175.93
1177.27
1178.79
1181.01
1183.87
1187.25
1191.05
1195.15
1199.46
1203.9
1208.39
1212.85
1217.2
1221.37
1225.28
1228.91
1232.22
1235.17
1237.87
1240.49
1243.08
1245.86
991.791
992.384
993.639
995.291
997.965
1001.33
1005.31
1009.71
1014.43
1019.36
1024.42
1029.52
1034.53
1039.38
1043.96
1048.17
1051.92
1055.11
1057.67
1059.54
1060.67
1061.15
1063.39
805.661
806.32
807.616
809.739
812.967
817.093
821.853
827.148
832.801
838.716
844.76
850.815
856.755
862.455
867.788
872.62
876.8
880.139
882.364
883.109
881.446
877.363
880.983
615.821
616.98
618.487
621.367
625.514
630.63
636.522
643.038
650.032
657.47
664.976
672.492
679.857
686.913
693.531
699.599
704.982
709.497
712.909
715.179
714.168
712.21
715.717
419.849
420.331
424.024
429.429
435.52
442.009
449.215
457.271
466.011
475.459
484.98
494.535
503.885
512.815
521.202
528.986
536.131
542.537
548.029
552.954
556.223
559.25
561.46
220.692
222.712
228.689
236.92
245.298
253.574
262.042
271.103
281.122
292.324
304.467
316.947
329.104
340.507
351.057
360.786
369.755
377.851
385.186
391.593
396.773
401.432
403.011
52.1535
51.6627
54.4513
58.4894
62.5727
67.2899
75.0217
84.7045
95.9145
108.467
123.034
139.484
156.115
170.79
183.695
195.171
205.304
215.804
225.385
233.209
238.709
243.222
243.24
166.173
143.567
110.452
100.187
113.814
114.703
105.401
95.9496
85.0826
68.8286
60.8292
56.767
67.176
81.0785
103.957
149.454
197.302
234.776
253.447
107.87
72.6509
46.4477
36.9688
39.9019
44.1061
32.514
17.3163
29.1127
38.885
28.1069
18.0134
18.9051
20.3386
24.5187
56.0775
108.182
153.577
176.738
62.6814
33.0164
21.8315
20.9074
20.8524
19.0592
13.2147
8.02858
11.688
21.6821
21.8404
16.2734
12.0764
11.4852
11.4024
13.5263
41.1848
95.5214
115.806
40.0718
13.3098
12.9633
15.2597
16.1864
15.178
8.18084
5.88518
8.58931
16.413
17.7188
10.1601
8.11674
8.62637
8.4598
6.79092
9.34109
30.1156
57.7781
32.0221
9.24217
5.08573
6.78643
8.66048
7.08659
1.10285
-0.395454
4.83008
9.54617
7.78359
5.824
5.84764
6.05074
5.64612
4.47044
3.00104
2.19715
20.0544
37.1908
16.8866
5.58015
8.2362
10.1542
7.17301
2.72063
1.36704
2.42335
3.4335
3.48932
4.048
4.23205
3.95822
3.52541
2.92553
2.58363
0.183079
8.98779
36.0537
18.6165
6.52391
3.46109
3.13912
2.40617
1.61954
1.10738
1.21569
1.44843
2.03217
2.65529
2.7726
2.567
2.31776
2.00721
1.93414
0.270986
4.24369
22.1488
5.04034
3.47994
3.01824
2.45608
1.84974
1.37443
1.24272
1.1351
1.14096
1.4055
1.64385
1.72723
1.64681
1.52361
1.34722
0.753407
0.95571
2.7205
-1.11238
-1.1322
-1.03131
-0.821029
-0.70042
-0.469968
0.412545
2.30096
5.22892
9.42325
15.9396
26.0276
39.1728
50.362
60.9461
71.7842
83.4446
94.9147
105.52
113.568
118.03
119.26
109.622
-1.24156
-1.25157
-1.26696
-1.24904
-1.23277
-1.23022
-1.23968
-1.24738
-1.25269
-1.25105
-1.25666
-1.23914
-0.636866
2.98262
7.71479
12.8539
18.4836
26.8573
37.0749
42.8946
43.8934
42.6682
39.4599
-1.35945
-1.36448
-1.36385
-1.35545
-1.34874
-1.35647
-1.37209
-1.37661
-1.37754
-1.37701
-1.37752
-1.37459
-1.35683
-1.3385
-1.24935
-1.13364
-1.13045
-1.04115
2.72061
10.8164
17.3221
15.3904
2.44362
-1.47723
-1.47991
-1.48065
-1.47771
-1.47583
-1.4787
-1.48341
-1.48622
-1.48699
-1.48699
-1.48807
-1.4804
-1.48424
-1.46156
-1.38684
-1.30731
-1.39512
-1.66893
-2.06874
-1.79253
-1.28337
-2.16415
-4.80863
-1.59617
-1.59839
-1.59804
-1.59878
-1.60015
-1.60304
-1.60636
-1.60884
-1.60973
-1.61056
-1.6142
-1.62029
-1.62679
-1.61797
-1.60064
-1.65182
-1.93252
-2.15314
-2.17331
-2.15951
-2.23044
-2.5569
-2.94672
-1.71403
-1.71589
-1.71606
-1.71917
-1.72194
-1.72495
-1.72802
-1.73082
-1.7333
-1.73704
-1.74553
-1.76098
-1.77957
-1.79842
-1.84358
-1.98311
-2.14996
-2.23298
-2.26273
-2.27816
-2.31026
-2.37308
-2.38316
-1.8311
-1.83333
-1.83478
-1.83858
-1.84218
-1.84571
-1.84927
-1.85315
-1.85765
-1.86428
-1.87616
-1.89531
-1.92116
-1.95478
-2.00989
-2.10248
-2.19323
-2.25556
-2.29002
-2.31796
-2.34709
-2.37007
-2.35847
-1.94874
-1.95082
-1.95306
-1.95704
-1.96106
-1.96528
-1.96994
-1.97524
-1.98165
-1.99046
-2.00386
-2.02344
-2.04946
-2.08335
-2.12996
-2.19153
-2.25385
-2.30255
-2.3372
-2.36668
-2.39215
-2.40937
-2.41129
-2.06621
-2.0682
-2.07076
-2.07477
-2.07902
-2.08378
-2.08933
-2.09595
-2.10402
-2.11439
-2.12839
-2.14716
-2.17128
-2.20204
-2.24193
-2.29014
-2.33735
-2.37567
-2.40586
-2.43137
-2.4518
-2.46474
-2.4684
-2.18343
-2.18556
-2.18817
-2.19206
-2.19652
-2.2018
-2.20809
-2.21562
-2.22473
-2.23599
-2.25015
-2.26795
-2.29
-2.31722
-2.35074
-2.38916
-2.42654
-2.45819
-2.48416
-2.50555
-2.52186
-2.53149
-2.53371
-2.30061
-2.3027
-2.30526
-2.30899
-2.31355
-2.31919
-2.32603
-2.33418
-2.34387
-2.35547
-2.36944
-2.38626
-2.40635
-2.43018
-2.45795
-2.48839
-2.51824
-2.54472
-2.5672
-2.58559
-2.59935
-2.60771
-2.61037
-2.41763
-2.41959
-2.42202
-2.42562
-2.43025
-2.43611
-2.44321
-2.45162
-2.46148
-2.47302
-2.48651
-2.50225
-2.52048
-2.54134
-2.56461
-2.58927
-2.61345
-2.63552
-2.65476
-2.67072
-2.68277
-2.69045
-2.69372
-2.53422
-2.53607
-2.53838
-2.54186
-2.54652
-2.55251
-2.5597
-2.5681
-2.57778
-2.58893
-2.6017
-2.61625
-2.63267
-2.65093
-2.67071
-2.69124
-2.71134
-2.72998
-2.74651
-2.76048
-2.77131
-2.77857
-2.78221
-2.6501
-2.65191
-2.65416
-2.65759
-2.66226
-2.66826
-2.67539
-2.68359
-2.69292
-2.70347
-2.71536
-2.72866
-2.74336
-2.75937
-2.77637
-2.79381
-2.81093
-2.82703
-2.84159
-2.85416
-2.8643
-2.87161
-2.8758
-2.76505
-2.76686
-2.76918
-2.77265
-2.77734
-2.78329
-2.79025
-2.79814
-2.80699
-2.81685
-2.8278
-2.83986
-2.853
-2.86709
-2.88188
-2.89697
-2.91188
-2.92613
-2.93933
-2.95113
-2.96123
-2.96928
-2.97473
-2.87898
-2.88078
-2.88334
-2.88696
-2.8917
-2.89755
-2.90429
-2.91181
-2.92011
-2.92926
-2.93928
-2.95018
-2.96193
-2.97441
-2.98743
-3.00073
-3.014
-3.02694
-3.03931
-3.05091
-3.0617
-3.0716
-3.08022
-2.99192
-2.99368
-2.99664
-3.00051
-3.00533
-3.01107
-3.01756
-3.02468
-3.03244
-3.04087
-3.05001
-3.05985
-3.07038
-3.0815
-3.09309
-3.105
-3.11705
-3.12908
-3.14102
-3.15288
-3.16493
-3.17766
-3.19139
-3.10395
-3.10565
-3.10913
-3.11333
-3.11828
-3.12391
-3.13014
-3.13686
-3.14408
-3.15183
-3.16014
-3.16902
-3.17847
-3.18843
-3.19885
-3.20964
-3.22072
-3.23208
-3.24379
-3.25606
-3.26944
-3.28498
-3.30402
-3.21516
-3.21683
-3.22091
-3.22551
-3.23063
-3.23617
-3.24214
-3.24846
-3.25514
-3.26223
-3.26976
-3.27777
-3.28625
-3.2952
-3.3046
-3.31442
-3.32468
-3.33544
-3.34689
-3.35938
-3.37361
-3.39088
-3.41337
-3.3257
-3.32738
-3.33208
-3.3372
-3.34254
-3.34799
-3.35368
-3.35959
-3.36573
-3.37216
-3.37895
-3.38613
-3.39372
-3.40175
-3.41022
-3.41917
-3.42863
-3.43874
-3.44974
-3.46204
-3.47637
-3.49392
-3.51697
-3.43576
-3.4375
-3.44285
-3.44859
-3.45418
-3.45954
-3.46493
-3.47038
-3.47594
-3.48171
-3.48775
-3.49412
-3.50087
-3.50803
-3.51563
-3.52372
-3.53237
-3.54173
-3.55203
-3.56365
-3.57726
-3.59382
-3.61503
-3.54574
-3.54757
-3.55355
-3.55997
-3.56583
-3.57106
-3.57606
-3.58097
-3.58588
-3.59093
-3.5962
-3.60177
-3.60769
-3.614
-3.62075
-3.62799
-3.63579
-3.64428
-3.65367
-3.66423
-3.67653
-3.69122
-3.70925
-3.65636
-3.65822
-3.66474
-3.67181
-3.67786
-3.68283
-3.68729
-3.69151
-3.69566
-3.69991
-3.70436
-3.7091
-3.71419
-3.71967
-3.72557
-3.73195
-3.73886
-3.74641
-3.75473
-3.76407
-3.77474
-3.78713
-3.80172
-3.76881
-3.77065
-3.77748
-3.78488
-3.79079
-3.79521
-3.79884
-3.80215
-3.80537
-3.8087
-3.81227
-3.81615
-3.82039
-3.82504
-3.8301
-3.83562
-3.84163
-3.8482
-3.85543
-3.86345
-3.87244
-3.88258
-3.8941
-3.88472
-3.88685
-3.89362
-3.90049
-3.9054
-3.90864
-3.91097
-3.91301
-3.91507
-3.91734
-3.91993
-3.92292
-3.92631
-3.93013
-3.93437
-3.93904
-3.94416
-3.94977
-3.9559
-3.96264
-3.97004
-3.97819
-3.98715
-4.00638
-4.01003
-4.01623
-4.02075
-4.02278
-4.02357
-4.02382
-4.02413
-4.02473
-4.02579
-4.02734
-4.0294
-4.03195
-4.03495
-4.0384
-4.04226
-4.04653
-4.05121
-4.0563
-4.06182
-4.0678
-4.07423
-4.08109
-4.13256
-4.14465
-4.14889
-4.14837
-4.14416
-4.14029
-4.13732
-4.13531
-4.1342
-4.13393
-4.13441
-4.13555
-4.13728
-4.13952
-4.1422
-4.1453
-4.14877
-4.15258
-4.15671
-4.16115
-4.16586
-4.17082
-4.17596
-4.25185
-4.28842
-4.29034
-4.28354
-4.26969
-4.25836
-4.25083
-4.24608
-4.24313
-4.24153
-4.24098
-4.24127
-4.24225
-4.24379
-4.24579
-4.24818
-4.25092
-4.25394
-4.25721
-4.26068
-4.26431
-4.26803
-4.27177
-4.36839
-4.41223
-4.42627
-4.41792
-4.39542
-4.37559
-4.3629
-4.35555
-4.35099
-4.34827
-4.34686
-4.34645
-4.34679
-4.34773
-4.34913
-4.35091
-4.35299
-4.35531
-4.35782
-4.36045
-4.36316
-4.36587
-4.36848
-4.4798
-4.51315
-4.54014
-4.53705
-4.51324
-4.48779
-4.47147
-4.46277
-4.45727
-4.45385
-4.45188
-4.45098
-4.45084
-4.4513
-4.45221
-4.45346
-4.45499
-4.45671
-4.45857
-4.46049
-4.46243
-4.46431
-4.46604
-4.59276
-4.60776
-4.62955
-4.6339
-4.61807
-4.59005
-4.57454
-4.56751
-4.56174
-4.55811
-4.55593
-4.55478
-4.55436
-4.55448
-4.55501
-4.55585
-4.55691
-4.55813
-4.55945
-4.56079
-4.56211
-4.56332
-4.56435
-4.70498
-4.70702
-4.70958
-4.71461
-4.70723
-4.68923
-4.67572
-4.6686
-4.66409
-4.66101
-4.65902
-4.65788
-4.65734
-4.65727
-4.65754
-4.65806
-4.65876
-4.65958
-4.66046
-4.66134
-4.66216
-4.66285
-4.66336
-4.8078
-4.80352
-4.79143
-4.79399
-4.793
-4.78325
-4.7738
-4.76842
-4.76519
-4.76287
-4.76131
-4.76036
-4.75986
-4.7597
-4.75981
-4.76011
-4.76055
-4.76106
-4.7616
-4.76212
-4.76255
-4.76286
-4.76297
-4.89841
-4.89145
-4.87704
-4.87877
-4.88053
-4.87608
-4.8707
-4.86749
-4.86555
-4.86408
-4.86303
-4.86237
-4.862
-4.86185
-4.86188
-4.86204
-4.86229
-4.86258
-4.86287
-4.86311
-4.86327
-4.86329
-4.86313
-4.98286
-4.97593
-4.96654
-4.96878
-4.9713
-4.97003
-4.96781
-4.96647
-4.96565
-4.96496
-4.96443
-4.96408
-4.96388
-4.9638
-4.96381
-4.96389
-4.96402
-4.96415
-4.96426
-4.96431
-4.96427
-4.9641
-4.96376
-5.06894
-5.06417
-5.06
-5.06256
-5.06528
-5.06595
-5.06583
-5.06584
-5.06588
-5.06581
-5.06573
-5.06566
-5.06563
-5.06563
-5.06566
-5.06571
-5.06576
-5.06579
-5.06578
-5.06571
-5.06555
-5.06526
-5.06483
-5.16105
-5.15824
-5.15693
-5.15936
-5.16217
-5.16396
-5.16505
-5.16589
-5.16648
-5.16686
-5.1671
-5.16725
-5.16736
-5.16744
-5.16749
-5.16753
-5.16754
-5.16751
-5.16744
-5.1673
-5.16707
-5.16674
-5.16627
-5.25883
-5.25681
-5.25664
-5.25885
-5.26167
-5.2639
-5.26551
-5.26672
-5.26761
-5.26823
-5.26866
-5.26895
-5.26915
-5.26928
-5.26936
-5.2694
-5.26939
-5.26934
-5.26924
-5.26907
-5.26883
-5.26849
-5.26804
-5.3602
-5.35853
-5.35867
-5.36071
-5.36331
-5.36546
-5.36709
-5.36836
-5.3693
-5.36999
-5.37048
-5.37083
-5.37106
-5.37122
-5.37131
-5.37135
-5.37135
-5.37129
-5.37119
-5.37103
-5.3708
-5.3705
-5.3701
-5.46407
-5.46245
-5.46272
-5.46448
-5.46655
-5.46828
-5.46964
-5.47072
-5.47154
-5.47215
-5.4726
-5.47292
-5.47314
-5.47329
-5.47338
-5.47342
-5.47341
-5.47337
-5.47328
-5.47315
-5.47297
-5.47273
-5.47243
-5.56938
-5.5678
-5.5682
-5.56957
-5.57095
-5.57207
-5.57298
-5.5737
-5.57427
-5.57469
-5.57501
-5.57524
-5.57539
-5.5755
-5.57556
-5.57559
-5.57559
-5.57556
-5.57551
-5.57542
-5.5753
-5.57515
-5.57495
-5.67614
-5.67537
-5.67526
-5.67558
-5.67605
-5.67646
-5.67678
-5.67705
-5.67727
-5.67744
-5.67758
-5.67768
-5.67775
-5.67779
-5.67782
-5.67784
-5.67784
-5.67784
-5.67782
-5.67779
-5.67775
-5.67769
-5.67762
74.7293
51.7731
24.9813
9.135
31.0124
19.6898
7.53973
2.02019
-4.52666
-0.164427
-0.11905
-0.83217
-5.17426
-2.55761
-1.83788
-1.74469
-2.73147
-2.24823
-2.09584
-2.02703
-2.27814
-2.19205
-2.19088
-2.15565
-2.31642
-2.29221
-2.28518
-2.24963
-2.39921
-2.38282
-2.36444
-2.33623
-2.46289
-2.45017
-2.43593
-2.42072
-2.52959
-2.52175
-2.51525
-2.50961
-2.60835
-2.60386
-2.60189
-2.60225
-2.69329
-2.69073
-2.69139
-2.69548
-2.78272
-2.78115
-2.78237
-2.78702
-2.87721
-2.87651
-2.87614
-2.87599
-2.97876
-2.98345
-2.98406
-2.97693
-3.09125
-3.11128
-3.12452
-3.12712
-3.21237
-3.2551
-3.30134
-3.32209
-3.33389
-3.39557
-3.47685
-3.50862
-3.44812
-3.51498
-3.61443
-3.67418
-3.55196
-3.61431
-3.71224
-3.79972
-3.64593
-3.69613
-3.77366
-3.85739
-3.73378
-3.76973
-3.82079
-3.88094
-3.82031
-3.84494
-3.87615
-3.91181
-3.90808
-3.92518
-3.94459
-3.96431
-3.99762
-4.00971
-4.02228
-4.03365
-4.08882
-4.0973
-4.10554
-4.1124
-4.18154
-4.18734
-4.1926
-4.19658
-4.27567
-4.27948
-4.28261
-4.28458
-4.37108
-4.37341
-4.37502
-4.3756
-4.46763
-4.46885
-4.46939
-4.469
-4.56518
-4.56559
-4.56538
-4.56433
-4.66362
-4.66345
-4.66272
-4.66127
-4.76283
-4.76227
-4.76121
-4.75954
-4.86271
-4.86191
-4.86067
-4.85891
-4.96319
-4.96225
-4.96094
-4.95921
-5.06417
-5.0632
-5.06191
-5.06027
-5.1656
-5.16466
-5.16346
-5.16198
-5.26742
-5.26657
-5.26552
-5.26425
-5.36957
-5.36887
-5.368
-5.36698
-5.47202
-5.47149
-5.47085
-5.4701
-5.5747
-5.57436
-5.57397
-5.57351
-5.67754
-5.67742
-5.67729
-5.67714
7.06901
3.22268
3.02283
2.75409
2.29634
1.78045
1.3645
1.14089
1.02347
1.02478
1.07766
1.07732
1.05532
1.06775
1.053
1.04361
0.740803
0.840022
3.24589
1.64381
1.82888
2.09661
2.39241
2.16335
1.68509
1.25908
0.991441
0.887153
0.922435
0.850021
0.742195
0.753041
0.752488
0.801321
0.873849
0.833952
1.02344
1.34811
-0.925524
-0.475657
1.13504
1.42509
1.80152
1.45398
1.08663
0.789201
0.679295
0.744031
0.697563
0.568781
0.546827
0.546525
0.588174
0.678501
0.749076
0.78867
1.47854
-1.75003
-1.73377
-0.690965
-0.0228753
0.657489
1.27961
0.866397
0.55205
0.474771
0.640862
0.61711
0.448526
0.323947
0.269896
0.318267
0.44127
0.628531
0.607293
1.27972
-1.97337
-1.95352
-1.71463
-1.46991
-0.978634
0.469583
0.623376
0.372396
0.409446
0.649737
0.551351
0.296142
0.0739541
-0.0473418
-0.0055347
0.198694
0.555261
0.878348
1.38492
-2.09324
-2.0454
-2.00558
-2.15088
-1.83202
-0.761274
0.0881945
0.187986
0.272829
0.52228
0.390886
0.092788
-0.184652
-0.357939
-0.329281
-0.0530392
0.432215
0.905105
1.74844
-2.1966
-2.16312
-2.23537
-2.35454
-2.17844
-2.16015
-1.75943
-0.883144
-0.286756
0.136756
0.0298383
-0.177114
-0.429399
-0.622475
-0.600637
-0.314378
0.229147
-0.135559
1.68409
-2.2998
-2.2725
-2.33432
-2.52159
-2.85629
-3.30171
-3.77077
-2.48111
-1.03855
-0.596543
-0.558174
-0.550115
-0.64994
-0.815041
-0.791257
-0.583972
-0.186254
0.517328
0.063694
-2.39924
-2.38143
-2.42313
-2.5653
-2.82564
-3.35459
-3.7299
-3.02918
-1.96402
-1.54967
-1.24348
-1.00145
-0.865236
-0.945485
-0.905684
-0.799444
-0.919181
-0.848444
-2.58581
-2.4986
-2.49616
-2.51203
-2.61078
-2.75178
-2.98059
-3.25419
-3.1521
-2.73008
-2.32834
-1.83042
-1.44403
-1.10364
-1.04286
-0.993092
-0.923646
-1.09881
-1.35775
-2.25889
-2.59807
-2.61082
-2.68108
-2.75746
-2.74468
-2.75573
-3.07102
-3.33371
-3.2608
-2.85321
-2.27998
-1.82664
-1.34064
-1.13442
-1.09626
-1.02185
-0.962094
-1.28092
0.846153
-2.69663
-2.72255
-2.85109
-2.9205
-2.84788
-2.76404
-3.07709
-3.51807
-3.57398
-3.16338
-2.57104
-2.09026
-1.56449
-1.27346
-1.22508
-1.16508
-1.16738
-1.9454
-1.09837
-2.78964
-2.81853
-2.9559
-3.06642
-3.01124
-2.87924
-3.10009
-3.54779
-3.64804
-3.31239
-2.75391
-2.24869
-1.78638
-1.50367
-1.37564
-1.34982
-1.5676
-2.41534
-1.29357
-2.87399
-2.90661
-3.03105
-3.18985
-3.18418
-3.05914
-3.13378
-3.46591
-3.56863
-3.32547
-2.84641
-2.35378
-1.96724
-1.73106
-1.55256
-1.52067
-1.77378
-2.43786
-1.31311
-2.97511
-3.02332
-3.12339
-3.26116
-3.31391
-3.26797
-3.23272
-3.38331
-3.44651
-3.27118
-2.88929
-2.4406
-2.10289
-1.90285
-1.74721
-1.70878
-1.85147
-2.31358
-1.71541
-3.14126
-3.21266
-3.26411
-3.32808
-3.3849
-3.40335
-3.38357
-3.40953
-3.39733
-3.2303
-2.91207
-2.54188
-2.24951
-2.08061
-1.95431
-1.96565
-1.92409
-2.19893
-1.80231
-3.34102
-3.41897
-3.42769
-3.38374
-3.40338
-3.44782
-3.47674
-3.45485
-3.36484
-3.18021
-2.92333
-2.66182
-2.42495
-2.26612
-2.16429
-2.22991
-2.04083
-2.10286
-3.27843
-3.50968
-3.53723
-3.51739
-3.43854
-3.40331
-3.42321
-3.4514
-3.4119
-3.30905
-3.1437
-2.95636
-2.78472
-2.59596
-2.4453
-2.35599
-2.41602
-2.19989
-1.91801
-1.01836
-3.6737
-3.64623
-3.59259
-3.50116
-3.43652
-3.41215
-3.40336
-3.37877
-3.29463
-3.1643
-3.02024
-2.89193
-2.74616
-2.61112
-2.51375
-2.50225
-2.3363
-1.94313
-0.9575
-3.82941
-3.76902
-3.68757
-3.59344
-3.5204
-3.48938
-3.46497
-3.43157
-3.35483
-3.2321
-3.09778
-2.98658
-2.87289
-2.76698
-2.6664
-2.61635
-2.57452
-2.74474
-0.0381717
-3.91099
-3.87158
-3.78398
-3.69497
-3.62059
-3.57889
-3.54994
-3.509
-3.42947
-3.3128
-3.18891
-3.08679
-2.99255
-2.91623
-2.82514
-2.81232
-2.75457
-3.14215
-1.07602
-3.93588
-3.92325
-3.85554
-3.7763
-3.70935
-3.66376
-3.62687
-3.57846
-3.5008
-3.40062
-3.29567
-3.20591
-3.12156
-3.06537
-2.97274
-2.98849
-2.88341
-3.19061
-1.48681
-3.95084
-3.9495
-3.90643
-3.84741
-3.79281
-3.74847
-3.70666
-3.65521
-3.58539
-3.50094
-3.41295
-3.33572
-3.25558
-3.21666
-3.11272
-3.15523
-3.02042
-3.33081
-1.73327
-3.98638
-3.98723
-3.9603
-3.91861
-3.87511
-3.8344
-3.79249
-3.74254
-3.68014
-3.60816
-3.53351
-3.46499
-3.39241
-3.36466
-3.25052
-3.31307
-3.16011
-3.48727
-2.16279
-4.04536
-4.04481
-4.02616
-3.99536
-3.95974
-3.92282
-3.88282
-3.83612
-3.78057
-3.71829
-3.65426
-3.59341
-3.52983
-3.50305
-3.3936
-3.46146
-3.3015
-3.64386
-3.23405
-4.1186
-4.11634
-4.10142
-4.07689
-4.04682
-4.01359
-3.97658
-3.93395
-3.88475
-3.83057
-3.77481
-3.72081
-3.66504
-3.63785
-3.53429
-3.60481
-3.44215
-3.74835
-3.91374
-4.19941
-4.19564
-4.18272
-4.16223
-4.13637
-4.10671
-4.07315
-4.03481
-3.99143
-3.94423
-3.8955
-3.84766
-3.79851
-3.77081
-3.67003
-3.73211
-3.56735
-3.65066
-3.30369
-4.28515
-4.28032
-4.2687
-4.25106
-4.2286
-4.20234
-4.17231
-4.13818
-4.10009
-4.05902
-4.01654
-3.9744
-3.93128
-3.90322
-3.80623
-3.83295
-3.66617
-3.85157
-1.29086
-4.37464
-4.36917
-4.35852
-4.34307
-4.32347
-4.30033
-4.27375
-4.2437
-4.21049
-4.17494
-4.13819
-4.10146
-4.06392
-4.03472
-3.95668
-3.9326
-3.82538
-4.78203
-4.77296
-4.46706
-4.46127
-4.45146
-4.43782
-4.42067
-4.40038
-4.37711
-4.35095
-4.32231
-4.29185
-4.2605
-4.22908
-4.19697
-4.16872
-4.10808
-4.08167
-4.10725
-4.909
-4.88291
-4.56179
-4.55596
-4.54695
-4.53486
-4.51986
-4.5022
-4.48206
-4.45959
-4.43521
-4.40952
-4.38339
-4.3574
-4.33086
-4.30601
-4.25416
-4.2784
-4.61024
-5.03474
-4.90007
-4.65841
-4.65273
-4.64451
-4.6338
-4.62073
-4.60551
-4.58829
-4.56928
-4.54885
-4.52763
-4.50654
-4.48623
-4.46646
-4.44881
-4.42009
-4.44616
-4.81413
-5.34539
-4.88389
-4.75657
-4.75117
-4.74373
-4.73431
-4.72301
-4.71005
-4.69555
-4.67971
-4.66294
-4.64584
-4.62946
-4.61477
-4.60256
-4.59851
-4.62231
-4.74949
-5.05501
-5.18808
-4.86776
-4.85598
-4.85096
-4.84432
-4.83612
-4.82648
-4.8156
-4.80358
-4.79064
-4.77717
-4.76382
-4.75165
-4.74209
-4.73641
-4.74212
-4.77346
-4.85166
-5.02483
-5.11385
-4.88168
-4.95641
-4.95186
-4.94604
-4.93903
-4.93094
-4.92194
-4.91217
-4.90184
-4.89132
-4.8813
-4.8728
-4.86759
-4.86697
-4.87819
-4.90952
-4.96574
-5.07556
-5.13391
-4.96172
-5.05771
-5.0537
-5.04871
-5.04283
-5.03618
-5.02891
-5.02117
-5.01316
-5.00524
-4.99813
-4.99278
-4.99112
-4.99419
-5.00856
-5.03834
-5.08431
-5.16565
-5.21652
-5.08192
-5.15973
-5.1563
-5.15213
-5.14735
-5.14204
-5.13635
-5.13043
-5.1245
-5.11888
-5.11432
-5.11167
-5.11281
-5.11852
-5.13467
-5.16307
-5.20393
-5.27083
-5.32067
-5.21205
-5.26236
-5.25954
-5.2562
-5.25246
-5.2484
-5.24414
-5.23984
-5.23575
-5.23218
-5.22983
-5.22946
-5.23273
-5.2403
-5.2573
-5.28419
-5.32205
-5.38575
-5.43936
-5.34424
-5.36548
-5.3633
-5.36082
-5.358
-5.35505
-5.35207
-5.34923
-5.34678
-5.345
-5.3445
-5.34595
-5.35076
-5.3596
-5.37678
-5.40223
-5.43755
-5.50534
-5.56051
-5.47053
-5.46901
-5.46745
-5.46572
-5.46378
-5.46186
-5.46006
-5.45854
-5.45753
-5.45727
-5.45828
-5.46114
-5.46702
-5.4767
-5.49358
-5.51769
-5.55084
-5.62286
-5.66864
-5.58263
-5.57285
-5.57189
-5.5708
-5.56975
-5.56885
-5.56822
-5.56799
-5.56834
-5.56949
-5.57187
-5.57601
-5.58282
-5.59322
-5.60969
-5.63241
-5.66408
-5.73108
-5.75176
-5.675
-5.67691
-5.67657
-5.67618
-5.67603
-5.67626
-5.67695
-5.67818
-5.6801
-5.68292
-5.68696
-5.69265
-5.70076
-5.71205
-5.72868
-5.74994
-5.78194
-5.83046
-5.80395
-5.73596
)
;

boundaryField
{
    leftWall
    {
        type            calculated;
        value           nonuniform List<scalar> 
50
(
1356.68
1175.38
991.791
805.661
615.821
419.849
220.692
52.1535
-1.11238
-1.24156
-1.35945
-1.47723
-1.59617
-1.71403
-1.8311
-1.94874
-2.06621
-2.18343
-2.30061
-2.41763
-2.53422
-2.6501
-2.76505
-2.87898
-2.99192
-3.10395
-3.21516
-3.3257
-3.43576
-3.54574
-3.65636
-3.76881
-3.88472
-4.00638
-4.13256
-4.25185
-4.36839
-4.4798
-4.59276
-4.70498
-4.8078
-4.89841
-4.98286
-5.06894
-5.16105
-5.25883
-5.3602
-5.46407
-5.56938
-5.67614
)
;
    }
    rightWall
    {
        type            calculated;
        value           nonuniform List<scalar> 
50
(
253.447
176.738
115.806
57.7781
20.0544
8.98779
4.24369
2.7205
3.24589
1.34811
1.47854
1.27972
1.38492
1.74844
1.68409
0.063694
-2.58581
-2.25889
0.846153
-1.09837
-1.29357
-1.31311
-1.71541
-1.80231
-3.27843
-1.01836
-0.9575
-0.0381717
-1.07602
-1.48681
-1.73327
-2.16279
-3.23405
-3.91374
-3.30369
-1.29086
-4.77296
-4.88291
-4.90007
-4.88389
-4.86776
-4.88168
-4.96172
-5.08192
-5.21205
-5.34424
-5.47053
-5.58263
-5.675
-5.73596
)
;
    }
    lowerWall
    {
        type            calculated;
        value           nonuniform List<scalar> 
62
(
1446.2
1446.75
1448.17
1449.63
1451.63
1454.21
1457.29
1460.76
1464.54
1468.55
1472.7
1476.91
1481.1
1485.2
1489.12
1492.82
1496.23
1499.33
1502.15
1504.61
1506.68
1508.6
1509.25
1420.61
1245.86
1063.39
880.983
715.717
561.46
403.011
243.24
122.689
69.7528
33.2093
11.4741
166.173
107.87
62.6814
40.0718
32.0221
37.1908
36.0537
22.1488
198.545
176.403
143.563
134.067
148.135
149.151
139.841
130.39
99.9854
72.2092
79.9529
91.4965
102.874
117.247
142.476
187.976
235.823
273.298
291.968
)
;
    }
    atmosphere
    {
        type            calculated;
        value           nonuniform List<scalar> 
46
(
-5.72904
-5.72904
-5.72904
-5.72904
-5.72904
-5.72904
-5.72904
-5.72904
-5.72904
-5.72904
-5.72904
-5.72904
-5.72904
-5.72904
-5.72904
-5.72904
-5.72904
-5.72904
-5.72904
-5.72904
-5.72904
-5.72904
-5.72904
-5.72904
-5.72904
-5.72904
-5.72904
-5.72904
-5.72904
-5.72904
-5.72938
-5.73028
-5.73178
-5.73394
-5.7369
-5.74084
-5.74605
-5.75286
-5.76202
-5.77402
-5.79136
-5.81122
-5.84711
-5.89324
-5.81322
-5.74587
)
;
    }
    defaultFaces
    {
        type            empty;
    }
}


// ************************************************************************* //
