/*--------------------------------*- C++ -*----------------------------------*\
| =========                 |                                                 |
| \\      /  F ield         | OpenFOAM: The Open Source CFD Toolbox           |
|  \\    /   O peration     | Version:  2206                                  |
|   \\  /    A nd           | Website:  www.openfoam.com                      |
|    \\/     M anipulation  |                                                 |
\*---------------------------------------------------------------------------*/
FoamFile
{
    version     2.0;
    format      ascii;
    arch        "LSB;label=32;scalar=64";
    class       volVectorField;
    location    "0.9";
    object      U;
}
// * * * * * * * * * * * * * * * * * * * * * * * * * * * * * * * * * * * * * //

dimensions      [0 1 -1 0 0 0 0];

internalField   nonuniform List<vector> 
2268
(
(0.0048081 -0.00769412 0)
(-0.00676628 0.00224148 0)
(-0.0505604 0.0137053 0)
(-0.116938 0.0181324 0)
(-0.160771 0.00977241 0)
(-0.1558 -0.00193468 0)
(-0.129522 -0.00486394 0)
(-0.113462 -0.00243488 0)
(-0.106419 -0.000360062 0)
(-0.106747 0.00161429 0)
(-0.114328 0.0035599 0)
(-0.129513 0.00414298 0)
(-0.147955 0.00126919 0)
(-0.158836 -0.00554353 0)
(-0.157791 -0.009733 0)
(-0.165695 0.00314551 0)
(-0.222867 0.0228103 0)
(-0.305137 0.0210812 0)
(-0.317692 -0.00198196 0)
(-0.24486 -0.0223988 0)
(-0.166756 -0.0259137 0)
(-0.092788 -0.0253745 0)
(-0.0269768 -0.0180663 0)
(-0.0295603 0.00889113 0)
(-0.0921423 0.0263043 0)
(-0.159535 0.0396761 0)
(-0.204188 0.0340172 0)
(-0.199496 0.00824415 0)
(-0.166806 -0.0136743 0)
(-0.138881 -0.0162876 0)
(-0.117813 -0.00903657 0)
(-0.108506 -0.00258289 0)
(-0.106048 0.00254329 0)
(-0.108816 0.00782061 0)
(-0.117765 0.0125259 0)
(-0.134959 0.0142132 0)
(-0.163258 0.0114435 0)
(-0.205686 0.0122583 0)
(-0.257773 0.0295927 0)
(-0.301391 0.0407023 0)
(-0.295917 0.0176752 0)
(-0.210653 -0.027591 0)
(-0.133734 -0.0528988 0)
(-0.0849919 -0.0511816 0)
(-0.044948 -0.0503872 0)
(-0.00790186 -0.0390365 0)
(-0.0426011 0.0445768 0)
(-0.114998 0.0587459 0)
(-0.177053 0.0617179 0)
(-0.209081 0.040317 0)
(-0.204698 -0.00120462 0)
(-0.180359 -0.0297329 0)
(-0.150436 -0.0304362 0)
(-0.12797 -0.0174334 0)
(-0.115236 -0.00619309 0)
(-0.109268 0.00160794 0)
(-0.106986 0.00874877 0)
(-0.107626 0.0160753 0)
(-0.113036 0.0229514 0)
(-0.127458 0.0288268 0)
(-0.154786 0.0355421 0)
(-0.1895 0.0440442 0)
(-0.201826 0.033524 0)
(-0.155475 -0.0151341 0)
(-0.0793695 -0.0667445 0)
(-0.0348826 -0.0789072 0)
(-0.00338299 -0.0633409 0)
(-0.00307177 -0.0567361 0)
(0.013271 -0.0414198 0)
(-0.0400728 0.0797225 0)
(-0.10194 0.0892558 0)
(-0.158445 0.0825854 0)
(-0.194624 0.0495647 0)
(-0.198069 -0.00448721 0)
(-0.177697 -0.0435836 0)
(-0.156808 -0.0439508 0)
(-0.139856 -0.026081 0)
(-0.126724 -0.0110426 0)
(-0.119432 -0.000676764 0)
(-0.116658 0.00792809 0)
(-0.116823 0.0160943 0)
(-0.119305 0.0241368 0)
(-0.123062 0.0325779 0)
(-0.124553 0.0422187 0)
(-0.118188 0.0461068 0)
(-0.0954874 0.0239125 0)
(-0.0516082 -0.030259 0)
(-0.0161048 -0.0789337 0)
(-0.00345325 -0.0897812 0)
(0.0232139 -0.0663488 0)
(0.00911538 -0.055122 0)
(0.0209125 -0.0336997 0)
(-0.0299396 0.108167 0)
(-0.0755177 0.115474 0)
(-0.126537 0.103117 0)
(-0.162865 0.0614329 0)
(-0.166383 -0.00525049 0)
(-0.154977 -0.0515551 0)
(-0.153237 -0.050519 0)
(-0.149125 -0.0316512 0)
(-0.138843 -0.0156733 0)
(-0.129898 -0.00319118 0)
(-0.124725 0.00715351 0)
(-0.123906 0.016885 0)
(-0.127257 0.0256398 0)
(-0.131984 0.0326145 0)
(-0.129998 0.0371372 0)
(-0.112027 0.0319572 0)
(-0.0795061 0.00181755 0)
(-0.0465678 -0.0495576 0)
(-0.0224236 -0.0913865 0)
(-0.00607973 -0.0984842 0)
(0.0233295 -0.0683701 0)
(0.0127102 -0.0524715 0)
(0.0217964 -0.0274064 0)
(-0.0158523 0.127357 0)
(-0.0424173 0.136515 0)
(-0.083663 0.120879 0)
(-0.113408 0.0724037 0)
(-0.115692 -0.00281017 0)
(-0.117934 -0.0512211 0)
(-0.143447 -0.0487188 0)
(-0.155079 -0.0325899 0)
(-0.146312 -0.0188772 0)
(-0.131472 -0.00564726 0)
(-0.119163 0.00570909 0)
(-0.114744 0.018173 0)
(-0.119254 0.0292046 0)
(-0.129187 0.036163 0)
(-0.136149 0.0357719 0)
(-0.129438 0.0217304 0)
(-0.106752 -0.0135612 0)
(-0.0736573 -0.0638671 0)
(-0.0314934 -0.10683 0)
(0.00947619 -0.115121 0)
(0.0424085 -0.0768738 0)
(0.0352713 -0.0501305 0)
(0.0239983 -0.0188464 0)
(0.00206877 0.133119 0)
(-0.00479507 0.149183 0)
(-0.0363998 0.13347 0)
(-0.0576891 0.0814275 0)
(-0.0549405 0.004653 0)
(-0.071162 -0.043878 0)
(-0.133746 -0.0385712 0)
(-0.152761 -0.0305055 0)
(-0.131191 -0.0244307 0)
(-0.103535 -0.0119545 0)
(-0.0848901 0.000919873 0)
(-0.0776522 0.0164651 0)
(-0.084073 0.0315606 0)
(-0.101873 0.0400852 0)
(-0.122 0.0369649 0)
(-0.130784 0.0162005 0)
(-0.118151 -0.0268766 0)
(-0.0781753 -0.0881888 0)
(-0.0179665 -0.139722 0)
(0.0374038 -0.141761 0)
(0.0804398 -0.0864145 0)
(0.0752388 -0.0408192 0)
(0.0342623 -0.0083225 0)
(0.0209636 0.132138 0)
(0.0340452 0.158155 0)
(0.0153695 0.142004 0)
(0.0195112 0.0814914 0)
(0.0433669 0.00457972 0)
(-0.0176479 -0.0157264 0)
(-0.125236 -0.0123815 0)
(-0.135305 -0.0350256 0)
(-0.0981375 -0.0441541 0)
(-0.0842085 -0.0255183 0)
(-0.0815421 -0.0037164 0)
(-0.0727103 0.0213571 0)
(-0.069291 0.0448606 0)
(-0.0818372 0.0606239 0)
(-0.10579 0.0572521 0)
(-0.124587 0.025993 0)
(-0.120543 -0.0365489 0)
(-0.0822558 -0.113397 0)
(-0.0304912 -0.15415 0)
(0.0442166 -0.148438 0)
(0.119198 -0.0831114 0)
(0.119952 -0.0115279 0)
(0.0516542 0.0297692 0)
(0.0482289 0.00411461 0)
(-0.247476 0.0559276 0)
(-0.355994 0.000545294 0)
(-0.12154 -0.0770126 0)
(0.130514 -0.0734613 0)
(0.297362 -0.0270013 0)
(0.318352 -0.00125977 0)
(-0.0558982 0.0671608 0)
(-0.228929 0.00954071 0)
(0.0286942 -0.0724567 0)
(0.178325 -0.00666818 0)
(0.154461 0.0318186 0)
(-0.0293765 0.0441298 0)
(-0.217629 0.0456541 0)
(-0.396763 0.0290239 0)
(-0.510931 0.0287349 0)
(-0.454398 0.00586399 0)
(-0.239283 -0.0354182 0)
(-0.0226639 -0.0332168 0)
(-0.0895412 0.0772608 0)
(-0.342876 0.113981 0)
(-0.271714 -0.0326289 0)
(-0.106569 -0.172561 0)
(0.0543515 -0.160651 0)
(0.172796 -0.040006 0)
(0.0792481 0.128967 0)
(-0.212182 0.154124 0)
(-0.234071 -0.0403267 0)
(-0.284763 -0.108459 0)
(-0.0300897 -0.0567012 0)
(0.108173 0.0600183 0)
(0.000215723 0.12048 0)
(-0.199214 0.121559 0)
(-0.415441 0.0822151 0)
(-0.537129 -0.00670643 0)
(-0.365161 -0.124066 0)
(-0.129564 -0.175881 0)
(0.0888209 -0.0842884 0)
(-0.1333 0.156737 0)
(-0.29689 0.145404 0)
(-0.203021 -0.0681392 0)
(-0.0980175 -0.224341 0)
(-0.0670092 -0.172442 0)
(-0.127693 0.0134232 0)
(-0.208975 0.195692 0)
(-0.496441 0.228499 0)
(-0.811527 0.0324838 0)
(-0.761196 -0.167367 0)
(-0.494118 -0.143619 0)
(-0.178356 0.0274357 0)
(-0.079925 0.149573 0)
(-0.14611 0.183344 0)
(-0.283034 0.148461 0)
(-0.328243 0.0127074 0)
(-0.184699 -0.160762 0)
(-0.0786316 -0.235559 0)
(0.0896459 -0.0566905 0)
(-0.117675 0.228764 0)
(-0.218136 0.167523 0)
(-0.165633 -0.0936199 0)
(-0.0586535 -0.251037 0)
(-0.113558 -0.151732 0)
(-0.227012 0.0473597 0)
(-0.49846 0.304165 0)
(-1.18972 0.425827 0)
(-1.26181 -0.000234805 0)
(-1.1835 -0.286953 0)
(-0.954606 -0.282921 0)
(-0.588781 -0.091945 0)
(-0.281981 0.119248 0)
(-0.221296 0.203948 0)
(-0.249692 0.163803 0)
(-0.217077 -0.0178752 0)
(-0.163615 -0.193549 0)
(-0.110837 -0.265445 0)
(-0.00777297 -0.0537155 0)
(-0.0751244 0.280027 0)
(-0.121024 0.182165 0)
(-0.0900665 -0.121345 0)
(0.00201629 -0.261652 0)
(-0.0969408 -0.119226 0)
(-0.239862 0.149493 0)
(-0.6792 0.583174 0)
(-1.28415 0.476806 0)
(-1.32656 -0.0528171 0)
(-1.28423 -0.352036 0)
(-1.21129 -0.399619 0)
(-0.961783 -0.244971 0)
(-0.603066 0.0122596 0)
(-0.378899 0.180816 0)
(-0.339253 0.1486 0)
(-0.306388 -0.0251963 0)
(-0.256258 -0.229801 0)
(-0.126749 -0.309828 0)
(0.00141222 -0.0860934 0)
(-0.0251133 0.304543 0)
(-0.0109935 0.188327 0)
(0.0440417 -0.134557 0)
(0.0803741 -0.249124 0)
(-0.0751292 -0.0761187 0)
(-0.204198 0.265184 0)
(-0.574145 0.835266 0)
(-0.938702 0.678857 0)
(-0.868717 0.0521595 0)
(-0.89098 -0.310907 0)
(-1.08869 -0.414904 0)
(-1.06634 -0.336481 0)
(-0.888663 -0.109231 0)
(-0.626629 0.104296 0)
(-0.52949 0.124455 0)
(-0.487748 -0.0604307 0)
(-0.344147 -0.294182 0)
(-0.162977 -0.380691 0)
(0.0719343 -0.127904 0)
(0.0206537 0.294013 0)
(0.0825203 0.17541 0)
(0.186758 -0.141826 0)
(0.161359 -0.216415 0)
(-0.0628198 -0.015433 0)
(-0.193382 0.376618 0)
(-0.420712 0.925394 0)
(-0.464121 0.686465 0)
(-0.125768 0.141265 0)
(-0.28519 -0.230793 0)
(-0.695372 -0.328429 0)
(-0.840145 -0.333098 0)
(-0.897421 -0.153482 0)
(-0.829909 0.051721 0)
(-0.670596 0.0719775 0)
(-0.597403 -0.0937133 0)
(-0.621298 -0.342572 0)
(-0.313197 -0.46724 0)
(0.105255 -0.170682 0)
(0.0649454 0.250076 0)
(0.155869 0.15186 0)
(0.272379 -0.148204 0)
(0.206065 -0.180223 0)
(-0.0528838 0.0429165 0)
(-0.262919 0.476977 0)
(-0.436988 0.928888 0)
(-0.0897349 0.476022 0)
(0.368333 0.0463487 0)
(-0.00877461 -0.0776537 0)
(-0.486879 -0.203046 0)
(-0.636097 -0.297409 0)
(-0.730804 -0.195383 0)
(-0.708573 -0.00966392 0)
(-0.753193 0.0370985 0)
(-1.06656 -0.133729 0)
(-1.21366 -0.528162 0)
(-0.556452 -0.679413 0)
(0.0638157 -0.173658 0)
(0.0723221 0.0874009 0)
(0.128926 0.167687 0)
(0.12575 0.147936 0)
(0.120431 0.0944978 0)
(0.0459663 0.0621795 0)
(-0.0902473 0.0710045 0)
(-0.160824 0.026483 0)
(-0.170724 -0.0467383 0)
(-0.196759 -0.0565937 0)
(-0.23707 -0.0405491 0)
(-0.26306 -0.0267272 0)
(-0.246462 -0.0116637 0)
(-0.21211 0.00866853 0)
(-0.192074 0.030019 0)
(-0.195275 0.0390535 0)
(-0.204396 0.0154616 0)
(-0.20996 -0.0421688 0)
(-0.206256 -0.1058 0)
(-0.124816 -0.181984 0)
(0.0286101 -0.234932 0)
(0.140447 -0.159365 0)
(0.165762 -0.0145395 0)
(0.111876 0.0851644 0)
(0.0949473 -0.0866623 0)
(0.200626 0.12356 0)
(0.160647 0.134504 0)
(0.10501 0.130295 0)
(0.0227608 0.166091 0)
(-0.0994108 0.1598 0)
(-0.258465 0.0735859 0)
(-0.490293 -0.00684041 0)
(-0.580217 0.00907168 0)
(-0.506406 0.0740415 0)
(-0.594802 0.00926214 0)
(-0.63391 -0.0310336 0)
(-0.649097 -0.000479825 0)
(-0.697669 0.0628003 0)
(-0.733008 0.0898907 0)
(-0.716353 0.0697455 0)
(-0.645596 -0.0232132 0)
(-0.473908 -0.237158 0)
(-0.24195 -0.456353 0)
(-0.0755668 -0.44602 0)
(-0.0234356 -0.226138 0)
(-0.0214792 0.0416556 0)
(0.0414157 0.0998697 0)
(-0.0909473 -0.310823 0)
(0.108793 0.100479 0)
(-0.088182 0.240506 0)
(-0.249182 0.279529 0)
(-0.451241 0.328643 0)
(-0.656449 0.368995 0)
(-0.772611 0.362471 0)
(-0.836917 0.213858 0)
(-0.919315 0.0611302 0)
(-0.883891 0.100483 0)
(-0.97258 0.127836 0)
(-1.26025 0.0508612 0)
(-1.47237 0.084503 0)
(-1.52398 0.1529 0)
(-1.4325 0.0770261 0)
(-1.2049 -0.0944273 0)
(-0.90199 -0.366034 0)
(-0.636302 -0.597984 0)
(-0.518266 -0.601022 0)
(-0.510592 -0.375477 0)
(-0.581721 -0.127676 0)
(-0.565336 -0.0280434 0)
(-0.453557 -0.0745416 0)
(-0.311044 -0.0464037 0)
(-0.43037 0.328187 0)
(-0.751594 0.45406 0)
(-1.01401 0.474416 0)
(-1.30513 0.49505 0)
(-1.62434 0.451528 0)
(-1.89263 0.300451 0)
(-1.68004 0.0801765 0)
(-1.58103 0.00292767 0)
(-1.4791 0.111925 0)
(-1.34988 0.329746 0)
(-1.26197 0.365082 0)
(-1.20893 0.189839 0)
(-1.1926 0.0249216 0)
(-1.17968 -0.147379 0)
(-1.03837 -0.335379 0)
(-0.896173 -0.555323 0)
(-0.813982 -0.655028 0)
(-0.796927 -0.552838 0)
(-0.887622 -0.306902 0)
(-0.918612 -0.155876 0)
(-0.806246 -0.124786 0)
(-0.689398 -0.189094 0)
(-0.502066 0.419098 0)
(-0.90856 0.64169 0)
(-1.24135 0.68995 0)
(-1.47414 0.740663 0)
(-1.82704 0.865118 0)
(-2.00504 0.698908 0)
(-1.93972 0.143641 0)
(-1.89451 -0.122376 0)
(-1.81922 -0.206959 0)
(-1.73334 -0.145368 0)
(-1.56195 -0.0642641 0)
(-1.31192 -0.0225032 0)
(-1.09362 0.0233768 0)
(-0.971714 0.0704831 0)
(-0.933424 0.0130593 0)
(-0.970631 -0.345908 0)
(-0.996885 -0.639002 0)
(-1.01821 -0.718877 0)
(-1.034 -0.57114 0)
(-1.11364 -0.247311 0)
(-1.11582 -0.109852 0)
(-1.01062 -0.201844 0)
(-0.862086 -0.387939 0)
(-0.491402 0.971408 0)
(-0.798525 1.00761 0)
(-1.25101 1.01321 0)
(-1.55227 1.12863 0)
(-1.85559 1.24788 0)
(-1.84708 0.982159 0)
(-1.82268 0.36539 0)
(-1.85191 -0.00960114 0)
(-1.96159 -0.0972711 0)
(-1.90474 -0.0788597 0)
(-1.73524 -0.122917 0)
(-1.59052 -0.238677 0)
(-1.40108 -0.240821 0)
(-1.24968 -0.198596 0)
(-1.23331 -0.221739 0)
(-1.3486 -0.360751 0)
(-1.30982 -0.661604 0)
(-1.27633 -0.682151 0)
(-1.26079 -0.431621 0)
(-1.29821 -0.149595 0)
(-1.4117 -0.268184 0)
(-1.31188 -0.49096 0)
(-1.06676 -0.635767 0)
(-0.557846 1.44588 0)
(-0.329769 1.49806 0)
(-0.915111 1.55657 0)
(-1.28159 1.42946 0)
(-1.48922 1.24361 0)
(-1.52235 0.834849 0)
(-1.66821 0.379009 0)
(-1.87275 0.0223786 0)
(-2.03341 -0.167275 0)
(-2.10599 -0.178452 0)
(-2.1062 -0.167446 0)
(-2.10761 -0.281501 0)
(-2.11695 -0.215613 0)
(-2.0436 -0.0176433 0)
(-1.80368 0.0839961 0)
(-1.52006 -0.263164 0)
(-1.41333 -0.715566 0)
(-1.3803 -0.734141 0)
(-1.32478 -0.533851 0)
(-1.2566 -0.148343 0)
(-1.24064 -0.119916 0)
(-1.23121 -0.524329 0)
(-1.13894 -0.769919 0)
(-0.70241 1.77704 0)
(-0.135396 1.9417 0)
(-0.919288 2.08584 0)
(-1.00876 1.68961 0)
(-1.15614 1.27598 0)
(-1.20637 0.857815 0)
(-1.35194 0.517075 0)
(-1.50954 0.247732 0)
(-1.6497 0.0339049 0)
(-1.74587 -0.119077 0)
(-1.80601 -0.241051 0)
(-1.86433 -0.347085 0)
(-1.88457 -0.413824 0)
(-1.80184 -0.42691 0)
(-1.62803 -0.417932 0)
(-1.45954 -0.513514 0)
(-1.38346 -0.724996 0)
(-1.36396 -0.754362 0)
(-1.3327 -0.572562 0)
(-1.24738 -0.27966 0)
(-1.06978 -0.193196 0)
(-1.07469 -0.570422 0)
(-1.13266 -0.802852 0)
(-0.846027 2.10488 0)
(0.0226617 2.20714 0)
(-0.964268 2.34909 0)
(-0.770833 1.821 0)
(-0.898432 1.35937 0)
(-0.892789 0.975854 0)
(-0.937373 0.647094 0)
(-0.968612 0.363905 0)
(-1.02366 0.153802 0)
(-1.10806 0.0236258 0)
(-1.20787 -0.0853763 0)
(-1.33427 -0.193545 0)
(-1.46392 -0.289902 0)
(-1.53504 -0.394347 0)
(-1.51568 -0.531982 0)
(-1.44801 -0.689791 0)
(-1.39254 -0.799465 0)
(-1.35895 -0.795324 0)
(-1.29237 -0.644459 0)
(-1.16673 -0.41539 0)
(-0.928401 -0.324087 0)
(-0.902689 -0.522773 0)
(-0.987763 -0.714108 0)
(-0.928147 2.38918 0)
(0.367633 2.24772 0)
(-0.952706 2.41975 0)
(-0.49403 1.83656 0)
(-0.651807 1.37965 0)
(-0.592052 1.00244 0)
(-0.578368 0.666862 0)
(-0.563303 0.392718 0)
(-0.584254 0.203493 0)
(-0.628831 0.0846928 0)
(-0.692309 0.00193837 0)
(-0.779143 -0.0672753 0)
(-0.891717 -0.145903 0)
(-1.02383 -0.269577 0)
(-1.15601 -0.457843 0)
(-1.27451 -0.677408 0)
(-1.36377 -0.834813 0)
(-1.38641 -0.858559 0)
(-1.3228 -0.764794 0)
(-1.21185 -0.602826 0)
(-1.07627 -0.460371 0)
(-1.06195 -0.429421 0)
(-1.04299 -0.634837 0)
(-0.931608 2.48717 0)
(0.187551 3.268 0)
(-0.682217 2.42047 0)
(-0.260018 1.80398 0)
(-0.480708 1.36537 0)
(-0.437922 0.980869 0)
(-0.472756 0.645374 0)
(-0.486461 0.394553 0)
(-0.484126 0.231959 0)
(-0.460281 0.129864 0)
(-0.438631 0.0548087 0)
(-0.435619 -0.00707235 0)
(-0.456047 -0.061736 0)
(-0.514582 -0.128113 0)
(-0.64097 -0.25658 0)
(-0.836303 -0.467044 0)
(-1.06601 -0.690893 0)
(-1.26385 -0.828913 0)
(-1.35441 -0.820243 0)
(-1.31157 -0.670801 0)
(-1.22385 -0.48662 0)
(-1.1819 -0.422864 0)
(-1.26942 -0.775708 0)
(-0.859969 2.46868 0)
(0.431389 2.99414 0)
(-0.417183 2.51539 0)
(-0.113999 1.82126 0)
(-0.454849 1.41621 0)
(-0.53075 1.03791 0)
(-0.665292 0.687184 0)
(-0.703197 0.391668 0)
(-0.659233 0.173742 0)
(-0.555709 0.041549 0)
(-0.433237 -0.0216921 0)
(-0.323572 -0.0482372 0)
(-0.247172 -0.066949 0)
(-0.213886 -0.0959946 0)
(-0.231798 -0.143613 0)
(-0.314738 -0.235869 0)
(-0.488277 -0.401522 0)
(-0.732791 -0.582451 0)
(-1.00794 -0.721791 0)
(-1.187 -0.771362 0)
(-1.21039 -0.692759 0)
(-1.05296 -0.653226 0)
(-0.868289 -0.893103 0)
(-0.479483 2.55368 0)
(0.209093 2.86405 0)
(-0.276936 2.70078 0)
(-0.165817 1.97568 0)
(-0.588468 1.60051 0)
(-0.787495 1.20942 0)
(-0.972747 0.782098 0)
(-0.995704 0.373981 0)
(-0.902214 0.0634768 0)
(-0.731731 -0.11867 0)
(-0.537987 -0.19136 0)
(-0.358841 -0.200568 0)
(-0.207271 -0.178844 0)
(-0.0937762 -0.156722 0)
(-0.0304919 -0.155074 0)
(-0.0223235 -0.192964 0)
(-0.0881291 -0.267042 0)
(-0.178659 -0.324341 0)
(-0.332814 -0.392242 0)
(-0.518851 -0.493505 0)
(-0.634694 -0.585603 0)
(-0.642365 -0.670837 0)
(-0.662486 -0.777689 0)
(-0.328994 2.82193 0)
(-0.00570897 2.78728 0)
(-0.278426 2.80756 0)
(-0.275598 2.25206 0)
(-0.750058 1.89661 0)
(-1.0201 1.4423 0)
(-1.21922 0.882553 0)
(-1.22995 0.320426 0)
(-1.10005 -0.110351 0)
(-0.871319 -0.349446 0)
(-0.615103 -0.417301 0)
(-0.389988 -0.395678 0)
(-0.208821 -0.343683 0)
(-0.0626674 -0.282392 0)
(0.0461853 -0.231263 0)
(0.113545 -0.194997 0)
(0.114314 -0.213051 0)
(0.0336617 -0.289171 0)
(-0.0399519 -0.343592 0)
(-0.126083 -0.422705 0)
(-0.21705 -0.524406 0)
(-0.298595 -0.649543 0)
(-0.343592 -0.77734 0)
(-0.0270594 2.96328 0)
(-0.0015401 2.98911 0)
(-0.335702 2.80849 0)
(-0.33647 2.55786 0)
(-0.780868 2.23783 0)
(-1.07731 1.70033 0)
(-1.29065 0.993416 0)
(-1.31444 0.251915 0)
(-1.17958 -0.33725 0)
(-0.920019 -0.653514 0)
(-0.616709 -0.704733 0)
(-0.353207 -0.619545 0)
(-0.159224 -0.512803 0)
(-0.018646 -0.419974 0)
(0.0920918 -0.339898 0)
(0.182568 -0.272389 0)
(0.250203 -0.213451 0)
(0.270258 -0.19772 0)
(0.224339 -0.25207 0)
(0.142585 -0.329995 0)
(0.0938048 -0.421242 0)
(0.0477071 -0.542444 0)
(-0.022063 -0.664933 0)
(0.393868 2.71418 0)
(0.474074 3.44622 0)
(-0.0570656 2.96587 0)
(-0.243456 2.77232 0)
(-0.598426 2.53766 0)
(-0.861981 1.95465 0)
(-1.08057 1.11955 0)
(-1.12687 0.199907 0)
(-1.01854 -0.591149 0)
(-0.788379 -1.00194 0)
(-0.491883 -1.03086 0)
(-0.226419 -0.861065 0)
(-0.0410184 -0.67679 0)
(0.0795108 -0.536277 0)
(0.166823 -0.433252 0)
(0.239636 -0.354616 0)
(0.307305 -0.290169 0)
(0.369618 -0.236886 0)
(0.409734 -0.219487 0)
(0.398006 -0.279196 0)
(0.337751 -0.382535 0)
(0.273084 -0.499732 0)
(0.201384 -0.607988 0)
(0.615873 1.88813 0)
(1.13417 3.5954 0)
(0.828549 3.54246 0)
(0.333223 3.10336 0)
(-0.0860284 2.76291 0)
(-0.308322 2.17202 0)
(-0.499589 1.26935 0)
(-0.521868 0.200634 0)
(-0.441358 -0.75599 0)
(-0.35265 -1.27798 0)
(-0.171177 -1.30847 0)
(0.0157532 -1.07091 0)
(0.144033 -0.810755 0)
(0.226162 -0.618696 0)
(0.277628 -0.493372 0)
(0.318316 -0.409007 0)
(0.358783 -0.348278 0)
(0.405076 -0.302688 0)
(0.456081 -0.273006 0)
(0.496295 -0.269769 0)
(0.503096 -0.325302 0)
(0.458081 -0.428467 0)
(0.37875 -0.532811 0)
(0.30951 0.820105 0)
(1.39161 3.04321 0)
(1.77082 3.89769 0)
(1.49173 3.69987 0)
(1.02815 3.15258 0)
(0.741169 2.4098 0)
(0.618177 1.45584 0)
(0.651916 0.316102 0)
(0.597729 -0.683383 0)
(0.434617 -1.30525 0)
(0.353105 -1.40664 0)
(0.365423 -1.16425 0)
(0.387024 -0.867857 0)
(0.399223 -0.65094 0)
(0.404834 -0.514999 0)
(0.410182 -0.430034 0)
(0.420105 -0.3743 0)
(0.436326 -0.33832 0)
(0.460526 -0.318607 0)
(0.489849 -0.317119 0)
(0.51313 -0.336267 0)
(0.514678 -0.380551 0)
(0.473436 -0.451029 0)
(-0.0472765 0.182231 0)
(1.12669 2.03326 0)
(2.09435 3.50004 0)
(2.4437 3.93652 0)
(2.3304 3.56727 0)
(2.11261 2.74041 0)
(1.94288 1.67493 0)
(1.80296 0.535661 0)
(1.61738 -0.428569 0)
(1.29734 -1.06474 0)
(0.956079 -1.25434 0)
(0.753414 -1.07494 0)
(0.6384 -0.815008 0)
(0.56881 -0.618532 0)
(0.524869 -0.494997 0)
(0.49641 -0.419283 0)
(0.479019 -0.371682 0)
(0.470248 -0.343034 0)
(0.467836 -0.330357 0)
(0.470361 -0.332688 0)
(0.473643 -0.351397 0)
(0.471376 -0.382125 0)
(0.452231 -0.419263 0)
(-0.0302971 -0.165784 0)
(0.584575 0.903907 0)
(1.71142 2.51718 0)
(2.53954 3.47377 0)
(2.91269 3.53982 0)
(2.97224 2.91732 0)
(2.84124 1.89922 0)
(2.61067 0.803535 0)
(2.26835 -0.115138 0)
(1.83511 -0.716868 0)
(1.38553 -0.926793 0)
(1.04791 -0.831652 0)
(0.832577 -0.66173 0)
(0.701334 -0.526378 0)
(0.618148 -0.437492 0)
(0.562497 -0.381439 0)
(0.523755 -0.346539 0)
(0.496399 -0.326188 0)
(0.476244 -0.318351 0)
(0.459836 -0.323182 0)
(0.443774 -0.339861 0)
(0.425525 -0.365613 0)
(0.399099 -0.395469 0)
(-0.00246862 -0.328615 0)
(0.108941 0.198236 0)
(0.988881 1.52885 0)
(1.9096 2.6516 0)
(2.56361 3.06286 0)
(2.88884 2.75424 0)
(2.92779 1.98137 0)
(2.74249 1.07705 0)
(2.40605 0.276403 0)
(1.98248 -0.285932 0)
(1.53182 -0.521277 0)
(1.17312 -0.525962 0)
(0.931681 -0.461808 0)
(0.777058 -0.400399 0)
(0.673912 -0.355274 0)
(0.60192 -0.324577 0)
(0.549465 -0.3054 0)
(0.509868 -0.295266 0)
(0.478763 -0.293165 0)
(0.452161 -0.299601 0)
(0.425954 -0.314865 0)
(0.397936 -0.33642 0)
(0.36411 -0.359382 0)
(-0.0507976 -0.315543 0)
(-0.161216 -0.0356532 0)
(0.224211 0.845602 0)
(0.983502 1.87421 0)
(1.66248 2.44974 0)
(2.13212 2.42428 0)
(2.3326 1.94 0)
(2.29674 1.25332 0)
(2.10036 0.583805 0)
(1.78156 0.0938196 0)
(1.43907 -0.152273 0)
(1.15006 -0.244207 0)
(0.94169 -0.268254 0)
(0.796437 -0.269491 0)
(0.692114 -0.264006 0)
(0.615228 -0.258246 0)
(0.556856 -0.255241 0)
(0.511078 -0.255933 0)
(0.474005 -0.260611 0)
(0.442321 -0.269874 0)
(0.412222 -0.284134 0)
(0.380909 -0.302263 0)
(0.345535 -0.320712 0)
(-0.0988486 -0.18239 0)
(-0.337614 -0.0230018 0)
(-0.302046 0.504173 0)
(0.136959 1.29854 0)
(0.706957 1.88602 0)
(1.19658 2.02702 0)
(1.51449 1.76411 0)
(1.64235 1.27161 0)
(1.60123 0.756417 0)
(1.44709 0.357485 0)
(1.24033 0.105487 0)
(1.04718 -0.0348787 0)
(0.892988 -0.110491 0)
(0.773446 -0.152405 0)
(0.680308 -0.176178 0)
(0.607361 -0.190989 0)
(0.549481 -0.202335 0)
(0.502519 -0.213042 0)
(0.463344 -0.224456 0)
(0.429366 -0.237389 0)
(0.397788 -0.252243 0)
(0.366335 -0.268548 0)
(0.332602 -0.284276 0)
(-0.0914387 0.023826 0)
(-0.361883 0.140816 0)
(-0.486167 0.420346 0)
(-0.331737 0.928348 0)
(0.0459461 1.40015 0)
(0.482109 1.59424 0)
(0.83973 1.47569 0)
(1.06749 1.15944 0)
(1.15715 0.793721 0)
(1.12721 0.477704 0)
(1.03198 0.250334 0)
(0.920462 0.10159 0)
(0.815773 0.00566035 0)
(0.724714 -0.0571114 0)
(0.648099 -0.0992023 0)
(0.584344 -0.128687 0)
(0.53123 -0.151262 0)
(0.48645 -0.17025 0)
(0.44788 -0.187511 0)
(0.413669 -0.204061 0)
(0.381949 -0.220398 0)
(0.351256 -0.236501 0)
(0.31993 -0.251337 0)
(-0.0606403 0.211662 0)
(-0.271123 0.338137 0)
(-0.407782 0.468289 0)
(-0.378029 0.74704 0)
(-0.15935 1.04995 0)
(0.167075 1.20804 0)
(0.485209 1.16557 0)
(0.723725 0.977236 0)
(0.851371 0.732994 0)
(0.882107 0.503819 0)
(0.852656 0.320326 0)
(0.795135 0.184082 0)
(0.729008 0.0858195 0)
(0.663874 0.0154821 0)
(0.60435 -0.0357448 0)
(0.551659 -0.0744384 0)
(0.505328 -0.10481 0)
(0.464677 -0.129877 0)
(0.428508 -0.151644 0)
(0.395619 -0.171251 0)
(0.364875 -0.18932 0)
(0.335452 -0.206105 0)
(0.306282 -0.221102 0)
(-0.0342794 0.335703 0)
(-0.156838 0.487737 0)
(-0.239887 0.537651 0)
(-0.227263 0.671322 0)
(-0.0936775 0.835784 0)
(0.12603 0.932957 0)
(0.356422 0.916649 0)
(0.541444 0.806389 0)
(0.656007 0.649659 0)
(0.705285 0.488434 0)
(0.707943 0.345884 0)
(0.682805 0.229712 0)
(0.643787 0.13869 0)
(0.599685 0.0683211 0)
(0.555219 0.013845 0)
(0.513059 -0.0293039 0)
(0.474324 -0.0642009 0)
(0.438752 -0.0932413 0)
(0.40595 -0.118201 0)
(0.375456 -0.140151 0)
(0.346606 -0.1598 0)
(0.318951 -0.177544 0)
(0.291767 -0.193196 0)
(-0.020751 0.400877 0)
(-0.0744794 0.561351 0)
(-0.1026 0.565612 0)
(-0.0783933 0.618634 0)
(0.0130483 0.702349 0)
(0.154714 0.754966 0)
(0.306045 0.746116 0)
(0.435706 0.678307 0)
(0.52635 0.57411 0)
(0.576339 0.458312 0)
(0.592982 0.348213 0)
(0.586281 0.252003 0)
(0.565276 0.171459 0)
(0.53666 0.10529 0)
(0.504778 0.0511717 0)
(0.472222 0.00691687 0)
(0.440452 -0.0299277 0)
(0.410059 -0.0611762 0)
(0.381185 -0.0880435 0)
(0.353719 -0.111571 0)
(0.327314 -0.132432 0)
(0.301828 -0.151031 0)
(0.276783 -0.167348 0)
(-0.0142287 0.431873 0)
(-0.0288547 0.580465 0)
(-0.0219948 0.557136 0)
(0.0116615 0.567575 0)
(0.0788184 0.60989 0)
(0.171741 0.638973 0)
(0.272686 0.631462 0)
(0.364336 0.584717 0)
(0.434792 0.510709 0)
(0.479866 0.424896 0)
(0.501507 0.339173 0)
(0.504791 0.260139 0)
(0.495295 0.190379 0)
(0.477702 0.130228 0)
(0.455451 0.0789511 0)
(0.430885 0.0353916 0)
(0.405455 -0.0017378 0)
(0.380107 -0.0337121 0)
(0.355248 -0.0615297 0)
(0.330983 -0.0859748 0)
(0.307329 -0.107602 0)
(0.28427 -0.126831 0)
(0.261469 -0.143697 0)
(-0.0092074 0.44495 0)
(-0.00460344 0.572399 0)
(0.0199931 0.53232 0)
(0.0558765 0.521567 0)
(0.107471 0.54219 0)
(0.172816 0.558555 0)
(0.244164 0.550108 0)
(0.31164 0.514233 0)
(0.366905 0.458549 0)
(0.405736 0.392917 0)
(0.428062 0.32514 0)
(0.436362 0.260039 0)
(0.433945 0.200113 0)
(0.42393 0.146384 0)
(0.408865 0.0989687 0)
(0.390678 0.0574627 0)
(0.370728 0.0211898 0)
(0.349914 -0.0105586 0)
(0.328838 -0.038604 0)
(0.307845 -0.0633734 0)
(0.286984 -0.085394 0)
(0.266408 -0.105018 0)
(0.245935 -0.122268 0)
(-0.00447837 0.446979 0)
(0.00976264 0.552269 0)
(0.0410577 0.501532 0)
(0.0756086 0.481156 0)
(0.116842 0.491197 0)
(0.16577 0.499614 0)
(0.219047 0.489608 0)
(0.270561 0.459868 0)
(0.314434 0.415914 0)
(0.347249 0.364136 0)
(0.368329 0.309512 0)
(0.3788 0.255404 0)
(0.380561 0.203933 0)
(0.375618 0.15631 0)
(0.365788 0.113057 0)
(0.352572 0.0742128 0)
(0.33713 0.0395187 0)
(0.320274 0.00858973 0)
(0.302682 -0.0189794 0)
(0.284738 -0.0437115 0)
(0.266575 -0.0658407 0)
(0.248472 -0.0856041 0)
(0.230323 -0.103083 0)
(-0.000765711 0.441789 0)
(0.0185139 0.52632 0)
(0.0511648 0.469571 0)
(0.0829024 0.446163 0)
(0.116797 0.451051 0)
(0.155184 0.45435 0)
(0.196648 0.442969 0)
(0.237095 0.417074 0)
(0.272369 0.381014 0)
(0.299934 0.338959 0)
(0.31903 0.294017 0)
(0.3301 0.248484 0)
(0.334187 0.204061 0)
(0.332555 0.161914 0)
(0.326461 0.122714 0)
(0.317038 0.0867327 0)
(0.30523 0.0539687 0)
(0.291793 0.0242687 0)
(0.277195 -0.0025603 0)
(0.261943 -0.0268736 0)
(0.246412 -0.0488082 0)
(0.23073 -0.0685819 0)
(0.214886 -0.0862113 0)
(0.00190726 0.431882 0)
(0.0234437 0.498328 0)
(0.0548978 0.438964 0)
(0.0833632 0.415924 0)
(0.111837 0.418366 0)
(0.143044 0.418283 0)
(0.176362 0.405945 0)
(0.208864 0.382756 0)
(0.237603 0.352273 0)
(0.26078 0.317207 0)
(0.277733 0.279466 0)
(0.288566 0.240611 0)
(0.293825 0.201975 0)
(0.294288 0.164586 0)
(0.290812 0.129124 0)
(0.284234 0.0959632 0)
(0.275299 0.0652472 0)
(0.264635 0.0369699 0)
(0.252727 0.011029 0)
(0.240021 -0.012613 0)
(0.226815 -0.0342325 0)
(0.213401 -0.0539162 0)
(0.199891 -0.0716476 0)
(0.00385048 0.419105 0)
(0.0258206 0.470604 0)
(0.054764 0.41082 0)
(0.079987 0.389742 0)
(0.104316 0.391062 0)
(0.130375 0.388702 0)
(0.157822 0.375844 0)
(0.184449 0.35477 0)
(0.208168 0.328407 0)
(0.227742 0.298495 0)
(0.242645 0.266187 0)
(0.252826 0.23256 0)
(0.25855 0.198648 0)
(0.260287 0.165316 0)
(0.258619 0.133189 0)
(0.254158 0.102668 0)
(0.247485 0.0739688 0)
(0.239123 0.0471765 0)
(0.229517 0.0222916 0)
(0.219019 -0.000708486 0)
(0.207978 -0.0219413 0)
(0.196745 -0.0414592 0)
(0.185406 -0.0593237 0)
(0.00530696 0.404679 0)
(0.0266269 0.44448 0)
(0.0523874 0.385567 0)
(0.0745786 0.367 0)
(0.0956125 0.367799 0)
(0.117789 0.363901 0)
(0.140823 0.350904 0)
(0.162975 0.331612 0)
(0.182776 0.308414 0)
(0.199394 0.282402 0)
(0.212432 0.254265 0)
(0.221777 0.224764 0)
(0.22754 0.194702 0)
(0.230006 0.16479 0)
(0.229566 0.135576 0)
(0.226668 0.107443 0)
(0.221761 0.0806333 0)
(0.21527 0.0552814 0)
(0.207575 0.0314411 0)
(0.199015 0.00912016 0)
(0.189869 -0.0116816 0)
(0.180436 -0.0310653 0)
(0.170893 -0.0490482 0)
(0.00642253 0.389343 0)
(0.026536 0.420682 0)
(0.0488288 0.363337 0)
(0.0682362 0.347224 0)
(0.0865269 0.347709 0)
(0.10563 0.342783 0)
(0.125207 0.329946 0)
(0.143841 0.312224 0)
(0.160514 0.291538 0)
(0.174684 0.268547 0)
(0.186052 0.243665 0)
(0.194494 0.21745 0)
(0.200042 0.19053 0)
(0.202861 0.163484 0)
(0.203217 0.136779 0)
(0.201432 0.110762 0)
(0.197847 0.0856771 0)
(0.192797 0.0616812 0)
(0.18659 0.038861 0)
(0.179512 0.0172579 0)
(0.171785 -0.00312381 0)
(0.163693 -0.022282 0)
(0.155362 -0.0402644 0)
(0.00726461 0.373559 0)
(0.0259401 0.399488 0)
(0.0447764 0.344111 0)
(0.0616185 0.330069 0)
(0.0775021 0.330238 0)
(0.0940505 0.324635 0)
(0.110801 0.312172 0)
(0.126566 0.295862 0)
(0.140669 0.277218 0)
(0.152764 0.256616 0)
(0.162627 0.234315 0)
(0.170139 0.210742 0)
(0.17529 0.186399 0)
(0.17817 0.161754 0)
(0.178955 0.1372 0)
(0.177869 0.113049 0)
(0.17516 0.0895336 0)
(0.171078 0.0668188 0)
(0.165858 0.0450128 0)
(0.159722 0.0241808 0)
(0.152855 0.00434599 0)
(0.145473 -0.01445 0)
(0.137659 -0.0322759 0)
(0.00784335 0.357683 0)
(0.0250277 0.380859 0)
(0.0406557 0.327776 0)
(0.0550938 0.315309 0)
(0.0687505 0.315054 0)
(0.0830682 0.309007 0)
(0.0973912 0.297053 0)
(0.110716 0.28202 0)
(0.122626 0.265066 0)
(0.132897 0.246386 0)
(0.141358 0.226161 0)
(0.147901 0.204741 0)
(0.152489 0.182531 0)
(0.155162 0.159914 0)
(0.156028 0.137224 0)
(0.155234 0.114737 0)
(0.152951 0.0926725 0)
(0.149354 0.0711983 0)
(0.144615 0.0504337 0)
(0.138901 0.0304564 0)
(0.132361 0.0113023 0)
(0.125215 -0.00698641 0)
(0.117553 -0.0245097 0)
(0.00813693 0.341998 0)
(0.0238532 0.36451 0)
(0.0366594 0.314135 0)
(0.0488041 0.302794 0)
(0.0603211 0.301964 0)
(0.072597 0.295613 0)
(0.084724 0.284238 0)
(0.0958763 0.270358 0)
(0.105828 0.254817 0)
(0.11442 0.237707 0)
(0.12152 0.219185 0)
(0.127026 0.199549 0)
(0.130884 0.179133 0)
(0.133102 0.158259 0)
(0.133738 0.137211 0)
(0.132882 0.116235 0)
(0.130647 0.0955368 0)
(0.127157 0.0752793 0)
(0.122543 0.0555804 0)
(0.116951 0.0365125 0)
(0.110539 0.0181061 0)
(0.103495 0.00038039 0)
(0.0960285 -0.0168135 0)
(0.00813771 0.326954 0)
(0.0224652 0.350283 0)
(0.0328769 0.303051 0)
(0.0427948 0.292469 0)
(0.0522162 0.29092 0)
(0.0625607 0.284357 0)
(0.0726179 0.273583 0)
(0.0817658 0.260733 0)
(0.089904 0.246378 0)
(0.096899 0.230568 0)
(0.102643 0.213466 0)
(0.107044 0.195331 0)
(0.110039 0.176446 0)
(0.111618 0.157085 0)
(0.111809 0.137494 0)
(0.110667 0.117892 0)
(0.108273 0.0984666 0)
(0.104724 0.0793668 0)
(0.100143 0.0606928 0)
(0.0946748 0.0424938 0)
(0.0884972 0.0247733 0)
(0.0818388 0.0074879 0)
(0.0749185 -0.00951255 0)
(0.00779458 0.312295 0)
(0.0206619 0.337369 0)
(0.0290336 0.294091 0)
(0.036817 0.284106 0)
(0.0441773 0.281709 0)
(0.0526265 0.274966 0)
(0.0606423 0.264778 0)
(0.0678745 0.252837 0)
(0.0742694 0.239487 0)
(0.0796991 0.224781 0)
(0.0840842 0.20889 0)
(0.0873385 0.192044 0)
(0.089407 0.174484 0)
(0.0902772 0.156446 0)
(0.0899648 0.138143 0)
(0.0885135 0.119769 0)
(0.085992 0.101487 0)
(0.0824943 0.0834219 0)
(0.0781439 0.0656432 0)
(0.0730903 0.0481678 0)
(0.0675204 0.0309588 0)
(0.0616577 0.0139062 0)
(0.0556818 -0.00316112 0)
(0.0074027 0.300759 0)
(0.0191749 0.327715 0)
(0.0259076 0.287945 0)