/*--------------------------------*- C++ -*----------------------------------*\
| =========                 |                                                 |
| \\      /  F ield         | OpenFOAM: The Open Source CFD Toolbox           |
|  \\    /   O peration     | Version:  2206                                  |
|   \\  /    A nd           | Website:  www.openfoam.com                      |
|    \\/     M anipulation  |                                                 |
\*---------------------------------------------------------------------------*/
FoamFile
{
    version     2.0;
    format      ascii;
    arch        "LSB;label=32;scalar=64";
    class       surfaceScalarField;
    location    "0.55";
    object      alphaPhi0.water;
}
// * * * * * * * * * * * * * * * * * * * * * * * * * * * * * * * * * * * * * //

dimensions      [0 3 -1 0 0 0 0];

oriented        oriented;

internalField   nonuniform List<scalar> 
4432
(
-8.19342e-07
8.19342e-07
-5.47101e-07
-2.72242e-07
4.54789e-07
-1.00189e-06
1.77948e-06
-1.32469e-06
3.10616e-06
-1.32668e-06
4.24366e-06
-1.1375e-06
5.11134e-06
-8.67679e-07
5.70921e-06
-5.97875e-07
6.08196e-06
-3.72744e-07
6.28508e-06
-2.0312e-07
6.35962e-06
-7.45454e-08
6.32583e-06
3.37838e-08
6.15991e-06
1.65926e-07
5.81963e-06
3.40275e-07
5.24243e-06
5.77198e-07
4.36005e-06
8.82377e-07
3.12402e-06
1.23603e-06
1.56275e-06
1.56128e-06
-1.72858e-07
1.7356e-06
-1.76264e-06
1.58978e-06
-2.56716e-06
8.04516e-07
-1.98026e-06
-5.86903e-07
-1.98026e-06
-8.78926e-07
1.69827e-06
-6.26265e-07
-5.24906e-07
3.62461e-07
-1.99062e-06
1.70837e-06
-2.67061e-06
3.0848e-06
-2.70311e-06
4.28515e-06
-2.33785e-06
5.2128e-06
-1.79533e-06
5.85903e-06
-1.24411e-06
6.26834e-06
-7.82056e-07
6.50441e-06
-4.39195e-07
6.62862e-06
-1.98753e-07
6.67958e-06
-1.71836e-08
6.69261e-06
1.52902e-07
6.68075e-06
3.52131e-07
6.63162e-06
6.26325e-07
6.4972e-06
1.0168e-06
6.17576e-06
1.55746e-06
5.54325e-06
2.19378e-06
4.51509e-06
2.76377e-06
3.18301e-06
2.92185e-06
1.73646e-06
2.25106e-06
4.03543e-07
7.46012e-07
-1.57671e-06
-9.495e-07
2.64777e-06
-7.89524e-07
-6.84884e-07
1.60611e-07
-2.94076e-06
1.5217e-06
-4.0317e-06
2.9538e-06
-4.13521e-06
4.23022e-06
-3.61427e-06
5.23131e-06
-2.79642e-06
5.93356e-06
-1.94635e-06
6.37835e-06
-1.22685e-06
6.63402e-06
-6.94864e-07
6.76427e-06
-3.29011e-07
6.81452e-06
-6.74325e-08
6.81317e-06
1.5425e-07
6.76872e-06
3.96586e-07
6.69603e-06
6.99011e-07
6.62143e-06
1.0914e-06
6.57641e-06
1.60248e-06
6.52737e-06
2.24283e-06
6.32429e-06
2.96685e-06
5.67193e-06
3.57421e-06
4.26509e-06
3.65789e-06
2.28269e-06
2.72841e-06
7.05977e-07
-1.06074e-06
3.7085e-06
-1.00144e-06
-7.44183e-07
-7.5729e-08
-3.86647e-06
1.28155e-06
-5.38898e-06
2.7667e-06
-5.62036e-06
4.12298e-06
-4.97055e-06
5.20987e-06
-3.88332e-06
5.98773e-06
-2.72421e-06
6.48972e-06
-1.72883e-06
6.7852e-06
-9.90351e-07
6.94684e-06
-4.90645e-07
7.0316e-06
-1.52193e-07
7.0672e-06
1.18647e-07
7.06806e-06
3.95724e-07
7.02997e-06
7.37096e-07
6.94694e-06
1.17443e-06
6.83059e-06
1.71883e-06
6.70227e-06
2.37115e-06
6.53681e-06
3.1323e-06
6.13237e-06
3.97864e-06
5.05997e-06
4.7303e-06
2.94078e-06
4.8476e-06
3.64676e-06
-1.20603e-06
4.91452e-06
-1.273e-06
-6.77212e-07
-4.55706e-07
-4.68376e-06
8.84798e-07
-6.72949e-06
2.46096e-06
-7.19653e-06
3.91859e-06
-6.42818e-06
5.09411e-06
-5.05883e-06
5.95323e-06
-3.58334e-06
6.53023e-06
-2.30583e-06
6.89198e-06
-1.3521e-06
7.11184e-06
-7.10504e-07
7.25048e-06
-2.90839e-07
7.34808e-06
2.10472e-08
7.41879e-06
3.25017e-07
7.46029e-06
6.95588e-07
7.45338e-06
1.18134e-06
7.36653e-06
1.80568e-06
7.16579e-06
2.57189e-06
6.82591e-06
3.47218e-06
6.28566e-06
4.51889e-06
5.27659e-06
5.73937e-06
3.25584e-06
6.86835e-06
6.9026e-06
-1.40188e-06
6.31641e-06
-1.73144e-06
-3.4766e-07
-1.25151e-06
-5.16368e-06
1.60315e-08
-7.99703e-06
1.81856e-06
-8.99905e-06
3.50446e-06
-8.11408e-06
4.82093e-06
-6.3753e-06
5.77321e-06
-4.53562e-06
6.43764e-06
-2.97026e-06
6.89162e-06
-1.80608e-06
7.20444e-06
-1.02333e-06
7.43389e-06
-5.20288e-07
7.62121e-06
-1.66275e-07
7.78902e-06
1.57201e-07
7.93386e-06
5.50753e-07
8.04193e-06
1.07327e-06
8.07247e-06
1.77514e-06
7.9588e-06
2.68556e-06
7.6071e-06
3.82388e-06
6.91782e-06
5.20817e-06
5.72152e-06
6.93567e-06
3.52782e-06
9.06205e-06
1.04304e-05
-1.64456e-06
7.96096e-06
-2.46256e-06
4.70348e-07
-2.54527e-06
-5.08098e-06
-1.42879e-06
-9.11352e-06
6.37787e-07
-1.10656e-05
2.70227e-06
-1.01786e-05
4.28323e-06
-7.95626e-06
5.38685e-06
-5.63924e-06
6.16258e-06
-3.74599e-06
6.73239e-06
-2.3759e-06
7.17321e-06
-1.46414e-06
7.53692e-06
-8.84003e-07
7.86036e-06
-4.89713e-07
8.16182e-06
-1.4426e-07
8.44933e-06
2.6324e-07
8.71281e-06
8.09779e-07
8.91826e-06
1.56969e-06
9.006e-06
2.59782e-06
8.86273e-06
3.96715e-06
8.34877e-06
5.72213e-06
7.23463e-06
8.04981e-06
5.23656e-06
1.10601e-05
1.5667e-05
-1.7669e-06
9.72787e-06
-2.92279e-06
1.62623e-06
-3.45564e-06
-4.54813e-06
-2.58299e-06
-9.98617e-06
-5.52336e-07
-1.30963e-05
1.7131e-06
-1.2444e-05
3.54804e-06
-9.7912e-06
4.83748e-06
-6.92868e-06
5.74157e-06
-4.65008e-06
6.43117e-06
-3.0655e-06
7.00989e-06
-2.04285e-06
7.53056e-06
-1.40468e-06
8.02231e-06
-9.81462e-07
8.50355e-06
-6.25504e-07
8.98367e-06
-2.16871e-07
9.45668e-06
3.36765e-07
9.90327e-06
1.1231e-06
1.02768e-05
2.22434e-06
1.04599e-05
3.78399e-06
1.02514e-05
5.93065e-06
9.13131e-06
9.16989e-06
6.56171e-06
1.36297e-05
2.22287e-05
4.14321e-06
-4.10756e-06
-1.43109e-05
1.84898e-05
-2.44851e-05
9.52042e-06
-2.9513e-05
1.0027e-06
-2.97356e-05
-1.56046e-06
-2.46331e-05
-3.06272e-06
-1.49436e-05
-6.25423e-06
5.17356e-06
-1.49952e-05
4.00039e-05
-3.01238e-05
5.59746e-05
-1.5708e-05
4.83125e-05
5.33757e-06
2.26445e-05
2.52013e-05
-2.19153e-06
2.90889e-05
-1.28775e-05
1.01203e-05
-2.21253e-05
3.67949e-06
-3.84557e-05
1.63325e-05
-5.54137e-05
1.69632e-05
-4.43149e-05
-1.10982e-05
-4.43102e-05
-9.49663e-06
5.42473e-06
-9.5659e-06
1.84164e-05
-4.81212e-06
3.89814e-06
-3.47989e-06
-5.22049e-07
-2.50466e-06
-2.71045e-06
-1.49337e-06
-4.23049e-06
5.23085e-06
-1.30813e-05
5.57765e-05
-6.01848e-05
8.7741e-05
-5.88703e-05
9.84065e-05
-2.61693e-05
9.74054e-05
6.49222e-06
8.13024e-05
4.13831e-05
4.44774e-05
6.6634e-05
1.52281e-06
5.97619e-05
-2.89114e-05
2.92984e-05
-4.62536e-05
3.36775e-05
-5.08888e-05
2.15989e-05
-3.62969e-05
-2.56854e-05
-8.06004e-05
-1.19813e-05
1.7393e-05
-3.1518e-06
6.66105e-06
-1.07741e-06
1.63122e-06
2.50049e-07
-2.04203e-06
1.0497e-06
-3.70263e-06
6.64024e-06
-1.00087e-05
5.60399e-05
-5.87668e-05
9.11875e-05
-9.30809e-05
0.000103024
-7.04701e-05
0.00010832
-3.12573e-05
0.00010764
7.37874e-06
0.00010213
4.71028e-05
8.26272e-05
8.63496e-05
3.92798e-05
0.000103359
-6.29468e-06
8.06264e-05
-3.21201e-05
4.65853e-05
-3.96149e-05
2.40397e-05
-3.04645e-05
-3.56826e-05
-0.000112898
-1.6883e-06
1.88911e-05
1.73368e-07
4.63489e-06
1.36014e-06
2.67773e-07
2.44026e-06
-3.31468e-06
7.60335e-06
-9.06582e-06
4.95784e-05
-5.15742e-05
8.86458e-05
-9.64823e-05
0.00010086
-0.000104872
0.000108095
-7.73801e-05
0.000111935
-3.48714e-05
0.000111414
8.10975e-06
0.000107545
5.11814e-05
9.87309e-05
9.53736e-05
7.27584e-05
0.000129545
2.56525e-05
0.000129375
-9.89274e-06
8.12055e-05
-2.25256e-05
3.60606e-05
-2.6126e-05
-3.37964e-05
-0.000137661
1.65428e-06
1.70083e-05
2.21982e-06
3.93561e-06
3.37828e-06
-1.05151e-06
7.208e-06
-7.31028e-06
4.32163e-05
-4.63426e-05
8.51851e-05
-9.3001e-05
9.68639e-05
-0.000107525
0.000101942
-0.000109453
0.000108979
-8.39936e-05
0.00010717
-2.94884e-05
0.000111106
6.24283e-06
0.000109861
5.2636e-05
0.00010448
0.000100967
9.13972e-05
0.000142856
5.85269e-05
0.000162485
1.49774e-05
0.00012832
-7.49449e-06
5.78552e-05
-1.31527e-05
-2.89163e-05
-0.000146422
2.20807e-06
1.50899e-05
3.85064e-06
2.50198e-06
6.17322e-06
-3.52412e-06
3.86091e-05
-4.17634e-05
7.67166e-05
-8.50355e-05
8.89163e-05
-0.000104557
9.51395e-05
-0.000113099
9.51593e-05
-0.000108126
5.63548e-05
-3.69456e-05
4.15594e-05
-5.96558e-06
5.50717e-05
2.15002e-07
9.07841e-05
1.94129e-05
0.000102434
8.95592e-05
9.91077e-05
0.000146422
8.24224e-05
0.000179448
4.6885e-05
0.000170029
1.56108e-05
8.83512e-05
3.40705e-06
-1.74907e-05
-0.000143049
4.58801e-06
1.04573e-05
1.03776e-05
-3.73513e-06
4.21932e-05
-3.6978e-05
7.56399e-05
-7.68392e-05
8.63356e-05
-9.49814e-05
9.18304e-05
-0.000109532
8.83241e-05
-0.000108949
3.1163e-05
-4.21984e-05
6.34108e-06
-4.97504e-06
1.04667e-06
-5.65595e-07
1.51906e-06
6.22477e-09
1.98564e-05
1.60204e-06
8.10951e-05
2.21054e-05
9.65492e-05
0.000131216
9.29259e-05
0.000183375
7.2532e-05
0.000190623
3.53054e-05
0.000129579
1.4279e-05
2.75755e-06
-0.000133145
2.2085e-05
-1.378e-05
5.03695e-05
-3.42384e-05
7.5015e-05
-6.14971e-05
8.4268e-05
-8.56378e-05
8.82806e-05
-9.85179e-05
8.33127e-05
-0.000103815
3.52052e-05
-5.14688e-05
4.5592e-06
-6.46812e-06
6.23603e-07
-9.58855e-07
1.5436e-07
-8.2607e-08
1.61612e-07
1.09366e-09
1.47204e-06
2.8657e-07
1.78107e-05
4.08411e-06
8.16564e-05
6.37563e-05
9.55428e-05
0.000169689
8.89448e-05
0.000197482
6.46695e-05
0.000157439
2.9876e-05
3.90919e-05
-0.000102928
-1.69448e-06
1.14223e-05
-3.19291e-06
3.12466e-06
-3.14249e-06
-4.59856e-06
-1.67707e-06
-1.14517e-05
4.59643e-07
-1.52329e-05
3.33853e-06
-1.53226e-05
6.41025e-06
-1.28627e-05
9.00932e-06
-9.52764e-06
1.10649e-05
-6.70557e-06
1.28134e-05
-4.81403e-06
1.44447e-05
-3.67413e-06
1.60475e-05
-3.00751e-06
1.76564e-05
-2.59038e-06
1.9294e-05
-2.26312e-06
2.09899e-05
-1.91275e-06
2.27842e-05
-1.45753e-06
2.47465e-05
-8.39216e-07
2.70013e-05
-3.04522e-08
2.97029e-05
1.08238e-06
3.32322e-05
2.40136e-06
3.81931e-05
4.20896e-06
4.62945e-05
5.52835e-06
1.02148e-05
5.83084e-05
5.74893e-06
5.67341e-06
1.07578e-05
-1.88421e-06
1.49771e-05
-8.81819e-06
1.49353e-05
-1.14106e-05
1.15241e-05
-1.18218e-05
8.44999e-06
-1.2247e-05
7.68633e-06
-1.20969e-05
8.55971e-06
-1.03993e-05
1.01593e-05
-8.30418e-06
1.21012e-05
-6.7554e-06
1.42425e-05
-5.81518e-06
1.65025e-05
-5.26735e-06
1.88307e-05
-4.91839e-06
2.12153e-05
-4.64766e-06
2.36896e-05
-4.38695e-06
2.63291e-05
-4.09698e-06
2.9245e-05
-3.75511e-06
3.25686e-05
-3.35403e-06
3.65269e-05
-2.87585e-06
4.13129e-05
-2.38461e-06
4.72376e-05
-1.71577e-06
5.42932e-05
-1.5273e-06
-1.35409e-08
6.45235e-05
1.40621e-05
-4.90362e-06
2.48704e-05
-7.59442e-06
2.62637e-05
-4.67159e-06
2.26249e-05
-1.94979e-06
1.78091e-05
-8.84765e-07
1.33947e-05
-2.00379e-06
9.64966e-06
-3.32251e-06
8.06621e-06
-3.89476e-06
8.55199e-06
-4.13354e-06
1.0302e-05
-4.27414e-06
1.26773e-05
-4.37562e-06
1.531e-05
-4.45724e-06
1.80271e-05
-4.52532e-06
2.07791e-05
-4.58622e-06
2.35899e-05
-4.6501e-06
2.65248e-05
-4.72657e-06
2.96683e-05
-4.81995e-06
3.31081e-05
-4.92906e-06
3.69579e-05
-5.05614e-06
4.13266e-05
-5.24427e-06
4.65138e-05
-5.53874e-06
5.24644e-05
-6.16369e-06
-6.60201e-06
6.0393e-05
3.00888e-06
-2.45893e-10
1.44868e-06
-3.59466e-09
6.2598e-07
-1.54984e-08
7.11738e-07
-6.23222e-08
1.31701e-06
-1.25739e-07
2.02002e-06
-3.179e-09
1.60839e-06
-9.14845e-11
1.18657e-06
-3.46786e-12
1.13926e-06
-1.50662e-13
1.46199e-06
-5.79758e-15
2.04744e-06
1.57878e-16
2.82571e-06
1.34531e-15
3.74891e-06
2.43621e-15
4.7981e-06
3.35837e-15
5.98704e-06
4.12297e-15
7.34704e-06
4.73071e-15
8.90561e-06
5.1812e-15
1.06646e-05
5.28387e-15
1.25936e-05
3.07214e-15
1.46063e-05
-1.77901e-14
1.64979e-05
-9.2544e-14
1.79128e-05
-2.56441e-13
-7.99699e-13
1.89651e-05
-2.14165e-10
-2.26394e-11
-3.82114e-09
-2.56361e-11
-2.3997e-08
-8.66523e-13
-2.03741e-09
-1.65636e-13
3.27411e-09
-3.21605e-14
9.51109e-11
-1.68379e-16
3.62634e-12
5.94968e-17
1.58336e-13
1.52343e-16
7.2332e-15
4.408e-16
2.8943e-16
1.14619e-15
-2.70507e-16
2.36383e-15
-2.43291e-15
4.11461e-15
-4.89726e-15
6.35746e-15
-7.72276e-15
8.88056e-15
-1.09047e-14
1.13705e-14
-1.42534e-14
1.35637e-14
-1.75046e-14
1.52907e-14
-1.97416e-14
1.51424e-14
-1.26118e-14
-9.32035e-16
2.54009e-15
-3.2942e-14
1.60871e-14
-1.07723e-13
5.39804e-14
-3.00394e-13
-9.51795e-13
1.808e-13
-1.84376e-11
2.71145e-13
-3.8353e-14
4.93534e-14
-4.07309e-15
-8.88719e-13
-6.58578e-16
-1.67562e-13
-2.33672e-18
-3.28215e-14
2.84324e-17
-1.99149e-16
-1.57476e-17
1.2259e-16
-2.16733e-16
4.19481e-16
-7.69538e-16
1.02602e-15
-1.97548e-15
2.20803e-15
-4.29421e-15
4.14935e-15
-8.15585e-15
6.81423e-15
-1.36625e-14
9.91338e-15
-2.05508e-14
1.30113e-14
-2.82604e-14
1.56504e-14
-3.61176e-14
1.75275e-14
-4.33949e-14
1.84765e-14
-4.55902e-14
1.40277e-14
8.63941e-15
-5.4789e-14
1.49844e-13
-1.79442e-13
4.98747e-13
-4.67493e-13
1.32217e-12
-1.14909e-12
-2.83718e-12
3.12234e-12
5.33187e-14
1.09528e-22
1.21609e-12
9.94937e-21
-4.80839e-14
2.00665e-19
-7.42196e-16
1.8497e-18
5.71273e-16
1.28497e-17
4.19463e-17
6.30845e-17
-6.42646e-17
2.28543e-16
-3.30424e-16
6.54156e-16
-1.0221e-15
1.55352e-15
-2.51106e-15
3.15548e-15
-5.22003e-15
5.55415e-15
-9.38943e-15
8.51155e-15
-1.47821e-14
1.14367e-14
-2.07642e-14
1.37383e-14
-2.66206e-14
1.50688e-14
-3.1761e-14
1.53605e-14
-3.56369e-14
1.46323e-14
-2.87155e-14
4.24875e-15
3.35524e-13
-4.1595e-13
2.60375e-12
-2.47819e-12
8.28647e-12
-6.23035e-12
2.08224e-11
-1.41084e-11
-2.95729e-11
4.64358e-11
6.03228e-23
9.51062e-23
-4.82652e-21
1.65395e-20
-7.771e-20
3.12508e-19
-7.40145e-19
2.90189e-18
-5.24048e-18
1.79911e-17
-2.70356e-17
8.15915e-17
-1.14183e-16
2.87642e-16
-3.97564e-16
8.12442e-16
-1.12727e-15
1.87802e-15
-2.63272e-15
3.63603e-15
-5.16887e-15
5.99554e-15
-8.65232e-15
8.47613e-15
-1.25126e-14
1.03422e-14
-1.60148e-14
1.11472e-14
-1.85998e-14
1.08657e-14
-1.99701e-14
9.72616e-15
-1.99038e-14
7.98964e-15
-6.01202e-15
1.77277e-16
4.36937e-12
-4.79773e-12
2.33261e-11
-2.21997e-11
9.14437e-11
-9.36698e-11
3.81744e-10
-5.01693e-10
-9.19635e-10
7.16977e-10
-5.28214e-22
8.65313e-23
-4.25334e-21
1.90416e-20
-7.24582e-20
3.62746e-19
-6.6891e-19
3.30232e-18
-5.00975e-18
2.03229e-17
-2.96223e-17
9.20407e-17
-1.29093e-16
3.18044e-16
-4.29034e-16
8.67127e-16
-1.13438e-15
1.91341e-15
-2.45068e-15
3.4856e-15
-4.41059e-15
5.3198e-15
-6.6833e-15
6.83671e-15
-8.60897e-15
7.42552e-15
-9.66253e-15
6.99376e-15
-9.67146e-15
5.82457e-15
-8.75554e-15
4.29712e-15
-7.17223e-15
2.77319e-15
-1.57977e-16
-4.62302e-15
7.94668e-11
-8.42437e-11
5.63531e-10
-8.83003e-10
1.25856e-09
-1.11871e-09
1.01166e-09
-1.11824e-09
-9.32028e-10
1.02434e-09
-8.67731e-23
1.36791e-22
-4.46597e-21
2.15634e-20
-8.66591e-20
3.84759e-19
-9.31707e-19
3.44993e-18
-6.60262e-18
2.07081e-17
-3.41163e-17
9.10829e-17
-1.33939e-16
3.04375e-16
-4.09943e-16
7.94456e-16
-1.00041e-15
1.65628e-15
-1.98245e-15
2.80573e-15
-3.2341e-15
3.90885e-15
-4.36373e-15
4.48755e-15
-4.87833e-15
4.2369e-15
-4.61185e-15
3.37001e-15
-3.73542e-15
2.24534e-15
-2.59244e-15
1.16313e-15
-1.53233e-15
5.0603e-16
5.70898e-14
-6.32641e-14
3.07548e-10
-7.02341e-10
4.78977e-10
-1.04724e-09
4.92692e-10
-1.12423e-09
4.80096e-10
-1.09849e-09
-7.28515e-10
2.8429e-10
-6.75203e-23
2.34715e-22
-4.47517e-21
2.15892e-20
-8.27674e-20
3.60893e-19
-8.83682e-19
3.16564e-18
-6.21827e-18
1.85308e-17
-3.11824e-17
7.86605e-17
-1.17039e-16
2.51591e-16
-3.38671e-16
6.22243e-16
-7.71571e-16
1.21279e-15
-1.40701e-15
1.8883e-15
-2.07711e-15
2.3688e-15
-2.48098e-15
2.38942e-15
-2.37598e-15
1.91738e-15
-1.84601e-15
1.24079e-15
-1.1436e-15
5.71436e-16
-5.23353e-16
-1.81828e-17
-1.92585e-16
-2.39234e-17
7.77719e-13
-8.41178e-13
2.13934e-10
-6.82925e-10
1.79867e-10
-1.00126e-09
1.24687e-10
-1.06097e-09
6.14259e-11
-1.02703e-09
-3.37313e-10
4.1501e-13
-7.45826e-23
3.07817e-22
-3.86707e-21
1.86995e-20
-7.02534e-20
2.95009e-19
-7.41269e-19
2.51036e-18
-5.11969e-18
1.42176e-17
-2.49051e-17
5.79137e-17
-8.95747e-17
1.76189e-16
-2.45548e-16
4.1e-16
-5.23531e-16
7.41221e-16
-8.80641e-16
1.05105e-15
-1.17831e-15
1.17415e-15
-1.24809e-15
1.02719e-15
-1.02781e-15
6.89615e-16
-6.59287e-16
3.50462e-16
-2.87981e-16
3.69102e-17
1.57724e-17
-3.21936e-16
3.36067e-16
-3.44217e-16
1.10048e-11
-7.59854e-12
2.49059e-10
-3.86208e-12
1.25983e-10
-5.27332e-10
3.6853e-11
-9.59936e-10
-1.45725e-11
-9.64995e-10
-3.78764e-10
-2.11799e-11
-6.78854e-23
3.10318e-22
-2.82609e-21
1.36695e-20
-5.14253e-20
2.04411e-19
-5.38046e-19
1.6785e-18
-3.62777e-18
9.139e-18
-1.70616e-17
3.55211e-17
-5.8769e-17
1.02209e-16
-1.52658e-16
2.22477e-16
-3.04592e-16
3.70869e-16
-4.72023e-16
4.76111e-16
-5.70656e-16
4.70702e-16
-5.34222e-16
3.54833e-16
-3.78257e-16
1.9839e-16
-1.9872e-16
7.54096e-17
-2.11e-17
-6.87305e-17
5.59026e-16
-1.07203e-15
1.85863e-16
-2.3635e-15
4.94621e-12
-3.33585e-15
1.08568e-12
-9.44529e-15
1.74272e-10
-1.34419e-14
1.55341e-10
-1.35169e-14
1.49255e-11
-8.64755e-14
-1.70004e-10
4.43369e-12
-4.95867e-23
2.41545e-22
-1.74911e-21
8.17885e-21
-3.19589e-20
1.15978e-19
-3.29333e-19
9.14219e-19
-2.15869e-18
4.76019e-18
-9.78668e-18
1.75722e-17
-3.21844e-17
4.76112e-17
-7.89011e-17
9.65499e-17
-1.4652e-16
1.47972e-16
-2.077e-16
1.71858e-16
-2.24848e-16
1.50789e-16
-1.84004e-16
9.85623e-17
-1.1073e-16
4.64188e-17
-4.48897e-17
1.05021e-17
1.21833e-16
-1.02732e-16
1.07287e-15
-1.07717e-15
1.93692e-15
-5.26556e-15
2.18939e-15
-1.3556e-14
2.44162e-15
-1.87712e-14
2.47173e-15
-2.1369e-14
2.36792e-15
-1.9394e-14
4.82118e-15
-2.56161e-14
-3.71398e-14
9.3208e-12
-2.91317e-23
1.42064e-22
-8.98334e-22
3.82793e-21
-1.63858e-20
5.13743e-20
-1.65214e-19
3.87002e-19
-1.04739e-18
1.91891e-18
-4.55206e-18
6.70527e-18
-1.4206e-17
1.70663e-17
-3.26624e-17
3.2217e-17
-5.61006e-17
4.54942e-17
-7.23676e-17
4.81734e-17
-6.99393e-17
3.81268e-17
-4.99289e-17
2.20979e-17
-2.54847e-17
8.84271e-18
-6.21136e-18
9.46882e-20
1.32941e-16
-7.81712e-17
1.21037e-15
-7.77266e-16
5.71575e-15
-5.1453e-15
1.08722e-14
-2.00429e-14
1.41485e-14
-4.28803e-14
1.30471e-14
-4.14653e-14
1.02941e-14
-2.31039e-14
1.06196e-14
-1.73601e-14
-3.64388e-14
1.04388e-14
-1.34758e-23
5.96194e-23
-3.68738e-22
1.30595e-21
-6.64053e-21
1.65418e-20
-6.49893e-20
1.1867e-19
-3.96054e-19
5.59001e-19
-1.6411e-18
1.84745e-18
-4.83736e-18
4.42347e-18
-1.03958e-17
7.81065e-18
-1.65013e-17
1.02619e-17
-1.94499e-17
1.00649e-17
-1.69873e-17
7.32827e-18
-1.07674e-17
3.77268e-18
-4.66983e-18
1.05486e-18
-5.37984e-20
-9.44286e-19
6.52705e-17
-2.20503e-17
7.29134e-16
-2.8067e-16
5.97853e-15
-2.69203e-15
2.44709e-14
-2.08035e-14
3.56886e-14
-4.84888e-14
3.40307e-14
-5.31655e-14
2.00012e-14
-5.19316e-14
1.69079e-14
-4.43109e-14
-4.25334e-14
1.65699e-14
-4.63815e-24
1.58335e-23
-1.13107e-22
2.8679e-22
-1.98585e-21
3.42509e-21
-1.87204e-20
2.33798e-20
-1.09115e-19
1.04716e-19
-4.29697e-19
3.28265e-19
-1.19552e-18
7.43613e-19
-2.4083e-18
1.23927e-18
-3.56036e-18
1.53442e-18
-3.88807e-18
1.41609e-18
-3.12412e-18
9.56744e-19
-1.75913e-18
3.95663e-19
-5.32836e-19
-6.14808e-20
1.4188e-18
-6.99909e-19
1.44224e-17
-3.67273e-18
2.19314e-16
-5.86408e-17
2.83323e-15
-8.35732e-16
2.276e-14
-7.60018e-15
3.4024e-14
-3.27239e-14
3.94394e-14
-4.54254e-14
3.95796e-14
-5.19453e-14
3.34847e-14
-4.7219e-14
-4.48368e-14
3.36704e-14
-1.0531e-24
1.98652e-24
-2.28734e-23
3.03116e-23
-3.87463e-22
3.4203e-22
-3.5013e-21
2.22576e-21
-1.9486e-20
9.51449e-21
-7.29879e-20
2.84478e-20
-1.92445e-19
6.14515e-20
-3.662e-19
9.76602e-20
-5.1022e-19
1.15349e-19
-5.23958e-19
1.01319e-19
-3.90369e-19
6.12406e-20
-1.7655e-19
7.15748e-21
1.37717e-19
-6.00323e-20
4.54119e-19
-3.01578e-19
2.09261e-18
-7.47227e-19
3.86526e-17
-7.9087e-18
6.32073e-16
-1.43883e-16
5.51766e-15
-9.3528e-16
2.26813e-14
-5.79936e-15
3.5873e-14
-2.38885e-14
3.53442e-14
-3.05721e-14
3.14966e-14
-2.38224e-14
-2.15696e-14
3.17623e-14
-1.17421e-25
7.52735e-28
-2.27129e-24
7.41029e-27
-3.68807e-23
4.42413e-26
-3.19009e-22
1.46228e-25
-1.6981e-21
2.771e-25
-6.07395e-21
2.09012e-25
-1.52799e-20
-8.17009e-25
-2.77278e-20
-6.49288e-24
-3.68382e-20
-1.58954e-23
-3.59745e-20
-3.23715e-23
-2.3953e-20
-5.38852e-22
-3.05993e-21
-2.90481e-21
4.74008e-20
-1.97774e-20
1.48459e-19
-9.87753e-20
4.01883e-19
-2.86052e-19
4.64109e-18
-9.00521e-19
8.6284e-17
-1.12176e-17
5.43541e-16
-5.51466e-17
3.38392e-15
-4.53923e-16
1.12908e-14
-2.44928e-15
1.24474e-14
-3.05007e-15
9.08441e-15
-2.27987e-15
-2.17073e-15
9.35205e-15
-4.08085e-29
2.15988e-28
-5.28953e-28
1.97526e-27
-4.57974e-27
1.22212e-26
-2.0151e-26
4.33865e-26
-4.7583e-26
9.41718e-26
-4.29476e-26
1.0564e-25
3.90077e-25
-8.4908e-26
2.70877e-24
-6.01704e-25
6.67447e-24
-1.05094e-24
1.63732e-23
-1.08196e-24
3.54658e-22
-5.63594e-24
1.94035e-21
-2.21242e-22
8.44926e-21
-3.15485e-21
4.67096e-20
-2.06649e-20
1.4624e-19
-9.33393e-20
4.70264e-19
-2.2969e-19
5.96293e-18
-6.9581e-19
2.91103e-17
-5.39085e-19
2.44132e-16
-9.16263e-18
8.57462e-16
-5.41811e-17
9.288e-16
-7.69514e-17
7.27887e-16
-6.46641e-17
-5.46675e-17
7.59153e-16
-1.09661e-29
4.02999e-29
-1.35244e-28
3.44506e-28
-1.2175e-27
2.20551e-27
-5.75425e-27
8.3566e-27
-1.55616e-26
2.04698e-26
-2.08842e-26
3.25803e-26
2.77617e-26
3.00865e-26
1.12407e-25
9.86211e-27
1.60504e-25
2.1368e-27
1.82338e-25
3.42161e-28
1.86049e-24
-2.14696e-25
8.8578e-23
-2.03393e-23
1.36596e-21
-3.49565e-22
9.32218e-21
-2.82263e-21
4.25858e-20
-1.3872e-20
1.09837e-19
-6.19475e-20
2.27136e-19
-1.75116e-19
2.23192e-19
-3.16348e-19
4.9472e-18
-2.92083e-19
1.96349e-17
-1.34339e-19
2.27585e-17
-1.1171e-19
1.96621e-17
-1.02402e-19
-9.45682e-20
1.63214e-17
-1.93638e-30
3.60364e-30
-2.26574e-29
2.86651e-29
-2.11222e-28
1.85213e-28
-1.06473e-27
7.12514e-28
-3.24818e-27
1.7742e-27
-6.18288e-27
2.87427e-27
-6.64396e-27
2.70316e-27
-2.48409e-27
8.58612e-28
-6.04632e-28
1.79131e-28
-1.07475e-28
2.94527e-29
7.5296e-26
-1.58038e-28
7.85475e-24
-6.42649e-25
1.41619e-22
-2.16916e-23
1.18437e-21
-2.62401e-22
6.12072e-21
-1.76981e-21
2.88563e-20
-7.23355e-21
8.30747e-20
-4.58502e-20
1.32461e-19
-1.06437e-19
1.00823e-19
-1.47352e-19
6.10538e-20
-1.18526e-19
5.90168e-20
-1.0537e-19
6.05492e-20
-9.79247e-20
-9.1009e-20
5.89802e-20
-1.64301e-31
1.90865e-37
-1.8068e-30
2.03913e-37
-1.69952e-29
2.18013e-38
-8.6902e-29
1.78861e-39
-2.69384e-28
-1.45455e-33
-5.21787e-28
-6.88502e-32
-5.70913e-28
-1.9825e-31
-2.06807e-28
-7.91009e-32
-4.84639e-29
-5.05264e-33
-8.84479e-30
-5.57177e-33
6.19405e-29
-8.62774e-32
2.31772e-25
-1.55511e-27
8.36855e-24
-6.23199e-25
1.05937e-22
-1.33894e-23
7.31512e-22
-1.29861e-22
3.198e-21
-6.88433e-22
2.09771e-20
-4.5792e-21
4.43064e-20
-1.24976e-20
6.23056e-20
-1.77396e-20
6.77473e-20
-2.02352e-20
6.51519e-20
-1.80587e-20
6.35115e-20
-1.72633e-20
-1.60803e-20
6.11398e-20
-8.24243e-39
5.84187e-46
-1.22629e-38
5.31766e-46
-1.9075e-39
5.36128e-47
-2.07843e-40
4.15147e-48
4.13427e-34
-6.23104e-45
1.19027e-32
-4.56464e-40
3.98788e-32
-6.16795e-37
7.61514e-33
-1.71688e-37
1.16966e-33
-2.78549e-37
1.87303e-33
-1.09502e-35
2.54805e-32
-5.91265e-34
5.3364e-28
-1.88332e-31
2.29947e-25
-3.18813e-27
5.17363e-24
-2.96501e-25
5.13585e-23
-4.72254e-24
2.90147e-22
-3.58007e-23
1.86601e-21
-1.17104e-22
4.34016e-21
-5.12972e-22
5.65297e-21
-5.19595e-22
6.22806e-21
-5.23584e-22
5.65351e-21
-4.73945e-22
5.73537e-21
-4.50003e-22
-5.13519e-22
5.52556e-21
-2.37962e-47
3.20247e-46
-3.03209e-47
3.02194e-46
-4.44546e-48
2.87305e-47
-4.56985e-49
2.097e-48
8.55868e-46
1.21284e-49
7.47662e-41
-2.86049e-46
1.17579e-37
-2.15987e-44
1.86664e-38
-4.20598e-43
4.69207e-38
-5.81072e-41
2.90817e-36
-4.39359e-39
1.75105e-34
-3.51327e-37
6.12174e-32
-5.15775e-35
1.12222e-27
-1.40145e-30
1.10645e-25
-3.79065e-27
1.8006e-24
-6.81273e-26
1.31072e-23
-4.29314e-25
4.3734e-23
-1.59724e-24
1.30964e-22
-4.28782e-24
1.39542e-22
-9.81531e-24
1.48224e-22
-1.31255e-23
1.36376e-22
-1.19904e-23
1.41453e-22
-9.75853e-24
-9.62974e-24
1.78502e-22
-1.22233e-47
1.0813e-46
-1.62039e-47
1.11787e-46
-2.24101e-48
9.95396e-48
-2.17185e-49
6.80186e-49
-1.56416e-50
4.24164e-50
4.38851e-47
-3.63383e-49
3.7589e-45
-3.33844e-47
8.37734e-44
-8.09774e-46
1.32598e-41
-1.03296e-43
1.11064e-39
-7.55009e-42
9.80137e-38
-6.074e-40
1.57973e-35
-6.47113e-38
4.66792e-31
-1.63701e-34
1.33227e-27
-2.02624e-30
2.3853e-26
-9.15052e-29
1.46507e-25
-8.87265e-28
5.3448e-25
-4.26909e-27
1.43296e-24
-1.31842e-26
2.97177e-24
-2.93391e-26
3.47924e-24
-4.98337e-26
3.13658e-24
-6.84449e-26
2.82524e-24
-7.64657e-26
-7.52631e-26
2.951e-24
-3.82858e-48
1.59795e-47
-5.58474e-48
2.02595e-47
-7.2474e-49
1.67779e-48
-6.58192e-50
1.066e-49
-5.11522e-51
6.22047e-51
5.81394e-50
3.50665e-52
5.47304e-48
1.47996e-53
1.51789e-46
-1.85314e-52
2.20699e-44
-2.41005e-50
1.78793e-42
-2.10611e-48
1.58604e-40
-2.27376e-46
1.85535e-38
-2.6448e-44
5.11352e-35
-1.01457e-37
6.75842e-31
-3.09672e-33
3.11726e-29
-2.60262e-31
2.97156e-28
-2.65911e-30
1.39048e-27
-1.16198e-29
4.15978e-27
-3.02995e-29
8.92387e-27
-5.7346e-29
1.46323e-26
-8.94288e-29
1.91738e-26
-1.22663e-28
2.09274e-26
-1.51612e-28
-1.71691e-28
2.127e-26
-5.18409e-49
2.17548e-54
-9.36533e-49
9.73028e-56
-1.13413e-49
3.67589e-57
-9.58805e-51
1.44893e-58
-6.97778e-52
-1.69881e-59
-4.71109e-53
-2.41848e-56
-2.31639e-54
-1.99671e-55
3.61283e-53
-6.00879e-54
4.8904e-51
-9.42505e-52
4.70719e-49
-4.90136e-50
5.56483e-47
-2.36344e-48
7.08322e-45
-1.48772e-46
2.95281e-38
-1.1129e-44
9.6693e-34
-5.68163e-41
8.31123e-32
-1.81137e-37
8.21435e-31
-3.32886e-36
3.39962e-30
-3.22197e-34
8.44724e-30
-7.32521e-33
1.55803e-29
-5.86145e-32
2.41621e-29
-2.37614e-31
3.32728e-29
-6.04684e-31
4.14666e-29
-1.11785e-30
-1.65029e-30
4.68306e-29
-6.40109e-56
2.72268e-72
-4.16609e-57
-3.53442e-70
-2.30865e-58
-2.58198e-71
-1.2105e-59
-1.56903e-73
1.8336e-59
-2.96546e-63
5.6298e-57
-1.31202e-60
5.2683e-56
-9.65672e-59
9.76629e-55
-5.49109e-57
1.76772e-52
-4.54192e-55
1.00592e-50
-3.19123e-53
5.31236e-49
-2.80418e-51
3.65605e-47
-3.01247e-49
2.98264e-45
-3.98785e-47
1.67614e-41
-1.81298e-42
5.51675e-38
-1.62432e-39
1.07761e-36
-2.08504e-38
1.11468e-34
-3.464e-37
2.5485e-33
-2.11618e-35
1.97269e-32
-3.17284e-34
7.57637e-32
-1.84828e-33
1.82622e-31
-5.85116e-33
3.23625e-31
-1.2375e-32
-1.9534e-32
4.74657e-31
-7.25677e-74
2.31701e-72
1.4202e-71
8.85748e-74
1.24958e-73
2.92465e-75
6.11941e-75
8.05051e-76
2.87227e-64
-2.30808e-68
1.50784e-61
-4.99694e-65
1.28072e-59
-4.63937e-63
8.30942e-58
-3.74737e-61
7.72761e-56
-3.69303e-59
6.02651e-54
-3.59065e-57
5.83511e-52
-3.57006e-55
6.85073e-50
-5.66271e-53
9.8767e-48
-8.00446e-51
4.9214e-43
-5.70934e-46
4.49732e-40
-4.47212e-42
6.00146e-39
-1.07343e-40
1.08814e-37
-7.65771e-40
7.03273e-36
-1.3048e-38
1.03716e-34
-5.02091e-37
5.72245e-34
-5.38127e-36
1.69673e-33
-2.44168e-35
3.37268e-33
-6.56738e-35
-8.6953e-35
4.91297e-33
-5.65481e-74
1.24606e-72
-3.416e-75
4.23959e-74
-1.63949e-76
1.33445e-75
-5.9152e-77
2.72595e-76
2.09401e-69
-1.62248e-76
5.36305e-66
-1.39994e-73
5.73614e-64
-2.18636e-70
5.26875e-62
-3.03186e-68
5.82256e-60
-3.09996e-66
6.26885e-58
-4.75687e-64
6.85069e-56
-7.55098e-62
1.18458e-53
-1.30993e-59
1.81652e-51
-1.60383e-57
1.39847e-46
-4.60756e-51
1.14955e-42
-5.68906e-46
2.75064e-41
-1.14016e-43
2.06764e-40
-1.21959e-42
3.93772e-39
-6.01674e-42
1.57308e-37
-1.41457e-40
1.62105e-36
-3.81455e-39
6.87362e-36
-2.92973e-38
1.52823e-35
-8.86598e-38
-1.57664e-37
2.13016e-35
-2.83953e-74
3.31809e-73
-1.60179e-75
1.02616e-74
-7.20756e-77
3.11072e-76
-1.8995e-77
9.40653e-78
3.9362e-77
-4.94912e-77
1.50987e-74
-1.91276e-74
2.53954e-71
-1.87433e-72
3.97238e-69
-2.87731e-70
4.54312e-67
-3.70916e-68
7.69759e-65
-3.85362e-66
1.33541e-62
-3.49491e-64
2.51111e-60
-3.29204e-62
3.32667e-58
-3.30273e-60
1.02888e-51
-3.48298e-58
1.35367e-46
-3.3633e-54
2.7525e-44
-6.21724e-50
2.84802e-43
-2.50235e-48
1.51222e-42
-5.12226e-48
4.07175e-41
-1.43965e-47
1.10387e-39
-1.46047e-45
7.74528e-39
-2.72458e-43
2.08124e-38
-6.57328e-41
-7.81007e-39
4.19211e-38
-7.25588e-75
7.75305e-98
-3.82981e-76
3.29141e-95
-1.62113e-77
3.65048e-95
-6.2092e-79
6.9659e-89
5.38708e-78
-1.01577e-79
1.90658e-75
-5.23487e-77
2.00866e-73
-1.49952e-74
3.48858e-71
-3.06509e-72
5.01042e-69
-5.07651e-70
5.72078e-67
-6.4953e-68
5.66131e-65
-7.18742e-66
5.78687e-63
-8.10105e-64
6.25526e-61
-8.35459e-62
7.08639e-59
-8.27632e-60
7.24178e-55
-8.59826e-58
1.40279e-50
-1.20066e-55
4.53948e-49
-1.77248e-53
9.12225e-49
-2.63126e-51
3.2371e-48
-6.1873e-49
4.27675e-46
-1.47797e-46
8.48323e-44
-3.53516e-44
2.13955e-41
-9.19262e-42
-1.10466e-39
2.69377e-39
-1.69839e-99
8.15796e-98
-1.20894e-96
2.62179e-95
-1.81685e-96
3.72655e-95
-4.31159e-90
4.4249e-89
7.52647e-81
-6.80476e-82
4.50239e-78
-3.36416e-79
1.47164e-75
-9.99652e-77
3.3764e-73
-2.0944e-74
6.20054e-71
-3.52283e-72
8.71402e-69
-5.20935e-70
1.05196e-66
-6.99719e-68
1.28449e-64
-8.83979e-66
1.42439e-62
-1.11383e-63
1.50986e-60
-1.47214e-61
1.65728e-58
-2.11137e-59
2.46342e-56
-3.88191e-57
3.85511e-54
-7.42523e-55
6.06053e-52
-1.41394e-52
1.52658e-49
-3.53095e-50
3.90414e-47
-7.64941e-48
9.93291e-45
-2.47298e-45
2.70244e-42
-7.79352e-43
-5.34831e-41
3.31334e-40
-1.90687e-99
6.36949e-98
-9.40871e-97
1.41188e-95
-1.74418e-96
2.8892e-95
-2.52951e-90
1.52535e-89
4.59527e-83
-3.88976e-85
2.6128e-80
-2.76619e-82
8.7788e-78
-9.53118e-80
2.05162e-75
-2.57549e-77
3.80805e-73
-5.83687e-75
6.16225e-71
-1.23807e-72
8.99286e-69
-2.3657e-70
1.22638e-66
-4.27303e-68
1.66041e-64
-7.67957e-66
2.34938e-62
-1.40392e-63
3.59927e-60
-2.89419e-61
7.0401e-58
-7.03805e-59
1.42633e-55
-1.60454e-56
2.87677e-53
-4.20457e-54
7.52968e-51
-1.19575e-51
1.69892e-48
-3.07204e-49
5.77781e-46
-1.27355e-46
1.88155e-43
-3.78044e-44
-7.21472e-42
1.37879e-41
-1.69131e-99
3.27015e-98
-4.92857e-97
3.94799e-96
-1.25457e-96
1.51552e-95
-7.93071e-91
1.08673e-90
2.34969e-86
-2.45618e-89
1.90302e-83
-4.41849e-86
7.36048e-81
-2.21663e-83
2.20713e-78
-8.42539e-81
5.49827e-76
-2.60222e-78
1.2716e-73
-7.12232e-76
2.63086e-71
-2.1938e-73
5.11588e-69
-6.64522e-71
9.84883e-67
-1.88117e-68
1.92088e-64
-6.05039e-66
4.21066e-62
-1.97298e-63
1.08297e-59
-5.60603e-61
2.60337e-57
-2.00177e-58
7.17825e-55
-6.59e-56
2.13171e-52
-1.87411e-53
5.74977e-50
-9.61489e-51
2.47177e-47
-3.1493e-48
7.57868e-45
-1.33041e-45
-2.25201e-42
1.75581e-42
-1.00833e-99
8.24109e-99
-1.33081e-97
8.86313e-98
-6.0276e-97
4.04488e-96
-5.05406e-92
3.11151e-91
1.36309e-90
2.19613e-92
2.64649e-87
-2.26527e-90
1.47795e-84
-1.50115e-87
6.19494e-82
-7.78682e-85
2.09257e-79
-3.35239e-82
6.22136e-77
-1.32077e-79
2.06871e-74
-6.90573e-77
6.72413e-72
-3.21687e-74
2.03265e-69
-1.54626e-71
6.95221e-67
-8.86196e-69
2.39934e-64
-3.80371e-66
7.18744e-62
-2.21808e-63
2.69753e-59
-9.27946e-61
9.28887e-57
-4.06582e-58
2.75586e-54
-2.20327e-55
1.47401e-51
-8.81579e-53
4.99373e-49