/*--------------------------------*- C++ -*----------------------------------*\
| =========                 |                                                 |
| \\      /  F ield         | OpenFOAM: The Open Source CFD Toolbox           |
|  \\    /   O peration     | Version:  2206                                  |
|   \\  /    A nd           | Website:  www.openfoam.com                      |
|    \\/     M anipulation  |                                                 |
\*---------------------------------------------------------------------------*/
FoamFile
{
    version     2.0;
    format      ascii;
    arch        "LSB;label=32;scalar=64";
    class       volScalarField;
    location    "0.55";
    object      alpha.water;
}
// * * * * * * * * * * * * * * * * * * * * * * * * * * * * * * * * * * * * * //

dimensions      [0 0 0 0 0 0 0];

internalField   nonuniform List<scalar> 
2268
(
1
1
1
1
1
1
1
1
1
1
1
1
1
1
1
1
1
1
0.999999
0.999999
0.999999
1
1
1
1
1
1
1
1
1
1
1
1
1
1
1
1
1
1
1
1
1
0.999999
0.999999
0.999999
1
1
1
1
1
1
1
1
1
1
1
1
1
1
1
1
1
1
1
1
1
0.999999
0.999999
0.999999
1
1
1
1
1
1
1
1
1
1
1
1
1
1
1
1
1
1
1
1
1
0.999999
0.999999
1
1
1
1
1
1
1
1
1
1
1
1
1
1
1
1
1
1
1
1
1
1
0.999999
1
1
1
1
1
1
1
1
1
1
1
1
1
1
1
1
1
1
1
1
1
1
1
1
1
1
1
1
1
1
1
1
1
1
1
1
1
1
1
1
1
1
1
1
1
1
1
1
1
0.999999
0.999998
0.999999
1
1
1
1
1
1
1
1
1
1
1
1
1
1
1
1
1
0.291476
0.291476
0.290888
0.220902
0.327336
0.384357
0.441162
0.546445
0.719572
0.861708
0.870257
0.831133
0.728886
0.600357
0.626333
0.877609
0.877612
0.877607
0.877522
0.291476
0.290888
0.0407429
0.0319242
0.0330227
0.0341511
0.0384085
0.475995
0.938049
0.974787
0.97651
0.972606
0.955172
0.769263
0.630996
0.877609
0.877607
0.877522
0.87731
0.290222
0.132915
0.0319242
0.0319242
0.0319242
0.0344894
0.400095
0.921755
0.974559
0.976511
0.976898
0.977179
0.977116
0.975587
0.700662
0.781862
0.837929
0.806052
0.855316
0.282145
0.0336127
0.0320728
0.0319242
0.0335858
0.289981
0.844919
0.962412
0.97153
0.97638
0.97718
0.977179
0.977179
0.977116
0.965652
0.635059
0.628373
0.634462
0.878391
0.274667
0.0333305
0.0322214
0.0329264
0.235
0.814698
0.925161
0.943805
0.962413
0.904901
0.92996
0.977179
0.977116
0.976722
0.976393
0.658341
0.625084
0.621924
0.868244
0.145402
0.0413212
0.033075
0.21382
0.836092
0.927689
0.913251
0.922731
0.64619
0.313583
0.358416
0.741695
0.976439
0.97639
0.974569
0.926105
0.621924
0.621924
0.859064
0.170294
0.136753
0.338087
0.909475
0.949568
0.934228
0.927689
0.510141
0.0650534
0.00248713
0.0012069
0.0478821
0.567597
0.972896
0.972769
0.968418
0.6611
0.621924
0.929762
0.519624
0.673474
0.983515
0.973564
0.966162
0.949568
0.597026
0.0577131
0.0016008
0.000251719
4.52782e-05
0.000337633
0.0172314
0.792879
0.968419
0.958392
0.919057
0.763412
0.943649
1
1
0.999999
0.999983
0.999968
0.999975
0.999987
0.999995
0.999998
1
1
1
1
1
1
1
1
1
1
1
1
1
1
1
1
0.999956
0.999794
0.999711
0.999756
0.999837
0.999909
0.999956
0.999978
0.999988
0.999992
0.999995
0.999996
0.999997
0.999998
0.999999
1
1
1
1
1
0.999993
0.94034
0.860457
0.766555
0.651363
0.660005
0.728628
0.783732
0.811313
0.839363
0.864868
0.885304
0.901889
0.91587
0.928019
0.938827
0.948562
0.957264
0.964795
0.971022
0.975794
0.979598
0.98112
0.98082
0.132855
0.0719898
0.0250882
0.0489662
0.109498
0.129611
0.11849
0.115289
0.120784
0.132796
0.149329
0.168339
0.188332
0.208587
0.229006
0.249772
0.270944
0.292084
0.312152
0.330194
0.346251
0.35435
0.345194
4.65563e-07
7.69569e-07
1.41277e-05
0.000302157
3.27841e-11
1.46865e-13
0
0
0
0
-1.50526e-11
-1.26461e-10
-2.32527e-10
-3.28239e-10
-4.10358e-10
-4.73556e-10
-5.14191e-10
-5.13742e-10
-2.90743e-10
-2.95422e-27
2.60002e-11
1.73511e-10
6.02702e-10
4.42354e-07
1.07179e-06
1.99523e-10
3.27841e-11
1.46865e-13
-8.7365e-26
-7.15405e-12
-2.35613e-11
-5.34621e-11
-1.10353e-10
-2.06526e-10
-3.45606e-10
-5.16882e-10
-6.99359e-10
-8.68437e-10
-1.00364e-09
-1.09057e-09
-1.03164e-09
-1.41621e-12
-1.95838e-11
1.73461e-10
6.02702e-10
1.89185e-09
1.79819e-08
1.05927e-07
3.08485e-08
2.84482e-09
1.03588e-09
1.7408e-12
-8.45904e-12
-3.11571e-11
-7.63369e-11
-1.58919e-10
-2.89422e-10
-4.63194e-10
-6.55071e-10
-8.31378e-10
-9.63154e-10
-1.03351e-09
-1.03657e-09
-7.44291e-10
-4.99547e-11
6.84519e-10
2.87187e-09
8.61855e-09
2.49443e-08
-2.65426e-16
-1.00074e-15
-1.1437e-14
-9.7189e-14
-6.817e-13
-3.48732e-12
-1.33468e-11
-3.97148e-11
-9.575e-11
-1.9352e-10
-3.35159e-10
-5.02263e-10
-6.56233e-10
-7.60695e-10
-7.96767e-10
-7.66063e-10
-6.81421e-10
-1.84337e-10
-9.17315e-11
1.87866e-08
2.35412e-07
2.29326e-06
1.1344e-05
-2.69773e-16
-1.11563e-15
-1.60122e-14
-1.4617e-13
-9.50834e-13
-4.49418e-12
-1.6046e-11
-4.53202e-11
-1.04407e-10
-2.00478e-10
-3.26036e-10
-4.52046e-10
-5.36757e-10
-5.56101e-10
-5.12454e-10
-4.2705e-10
-3.24603e-10
-6.70144e-12
-2.08328e-10
6.51477e-06
1.67195e-05
3.22131e-05
3.2506e-05
-3.74524e-17
-1.14161e-15
-1.79315e-14
-1.65913e-13
-1.03614e-12
-4.72547e-12
-1.64108e-11
-4.48162e-11
-9.87012e-11
-1.78782e-10
-2.70135e-10
-3.4171e-10
-3.61824e-10
-3.27086e-10
-2.56581e-10
-1.76077e-10
-1.0582e-10
0
9.85778e-06
3.31196e-05
3.31254e-05
3.31197e-05
3.3127e-05
-2.95626e-17
-1.17997e-15
-1.81917e-14
-1.6677e-13
-1.01656e-12
-4.48132e-12
-1.49774e-11
-3.90702e-11
-8.12923e-11
-1.37205e-10
-1.89968e-10
-2.15693e-10
-1.9953e-10
-1.5319e-10
-9.6953e-11
-4.73401e-11
-1.94899e-11
1.8907e-25
2.74162e-05
3.30966e-05
3.31196e-05
3.313e-05
1.59292e-05
-3.39619e-17
-1.0913e-15
-1.64737e-14
-1.4768e-13
-8.7455e-13
-3.71628e-12
-1.18795e-11
-2.93675e-11
-5.72133e-11
-8.90174e-11
-1.11443e-10
-1.11793e-10
-8.86033e-11
-5.60389e-11
-2.49492e-11
-1.34547e-23
0
1.226e-11
1.23357e-05
3.11398e-05
3.30966e-05
3.30824e-05
8.34828e-06
-3.37997e-17
-8.84955e-16
-1.30372e-14
-1.13126e-13
-6.45563e-13
-2.63075e-12
-8.00231e-12
-1.86286e-11
-3.37119e-11
-4.78727e-11
-5.35261e-11
-4.67658e-11
-3.12385e-11
-1.57114e-11
-1.62729e-12
2.44393e-11
1.51798e-11
3.02078e-07
1.46338e-10
4.14156e-06
2.63142e-05
1.59718e-05
1.18743e-05
-2.79179e-17
-6.12564e-16
-8.74337e-15
-7.29711e-14
-3.9931e-13
-1.5525e-12
-4.46796e-12
-9.73214e-12
-1.62467e-11
-2.09005e-11
-2.07017e-11
-1.56131e-11
-8.71619e-12
-3.30082e-12
2.74566e-12
4.58426e-11
9.99806e-11
1.45524e-10
1.37358e-10
1.46311e-10
1.61274e-10
1.72e-10
2.51291e-07
-1.87367e-17
-3.49608e-16
-4.79669e-15
-3.83156e-14
-2.00178e-13
-7.39019e-13
-2.00253e-12
-4.06288e-12
-6.23339e-12
-7.2517e-12
-6.37286e-12
-4.16743e-12
-1.96026e-12
-4.42355e-13
4.24776e-12
4.02572e-11
2.17717e-10
4.46331e-10
7.67191e-10
7.30097e-10
5.54644e-10
5.42668e-10
5.64941e-10
-9.83409e-18
-1.56825e-16
-2.05291e-15
-1.56326e-14
-7.76885e-14
-2.71413e-13
-6.90669e-13
-1.30385e-12
-1.84192e-12
-1.95204e-12
-1.54633e-12
-8.96218e-13
-3.58008e-13
-3.82083e-15
2.14058e-12
2.19775e-11
1.68663e-10
7.98391e-10
1.81364e-09
1.84516e-09
1.30231e-09
9.2712e-10
8.17569e-10
-3.76947e-18
-5.14365e-17
-6.38471e-16
-4.62138e-15
-2.18015e-14
-7.20156e-14
-1.72339e-13
-3.04172e-13
-3.99528e-13
-3.91878e-13
-2.8539e-13
-1.4688e-13
-4.09985e-14
3.4373e-14
4.91732e-13
6.45893e-12
6.55793e-11
6.80357e-10
1.86572e-09
1.99966e-09
1.99966e-09
1.70475e-09
1.61886e-09
-9.28826e-19
-1.08805e-17
-1.27708e-16
-8.78315e-16
-3.93748e-15
-1.23337e-14
-2.79161e-14
-4.64859e-14
-5.75142e-14
-5.3049e-14
-3.58287e-14
-1.48103e-14
1.97739e-15
1.89924e-14
7.86024e-14
1.20414e-12
1.78643e-11
1.49252e-10
6.97986e-10
1.70493e-09
1.77864e-09
1.59582e-09
1.46931e-09
-1.09267e-19
-1.10925e-18
-1.23248e-17
-8.07281e-17
-3.45266e-16
-1.03131e-15
-2.22542e-15
-3.53289e-15
-4.16835e-15
-3.65776e-15
-2.2091e-15
-2.58015e-16
2.05643e-15
7.13277e-15
1.71507e-14
1.52014e-13
2.72138e-12
1.62515e-11
9.6202e-11
4.40615e-10
5.99241e-10
4.49493e-10
4.04877e-10
-3.90929e-23
-2.61855e-22
-1.54172e-21
-5.12538e-21
-9.71483e-21
-7.31955e-21
2.7203e-20
2.22971e-19
5.4991e-19
1.11605e-18
1.83187e-17
9.95024e-17
3.90504e-16
2.0767e-15
6.49363e-15
1.80478e-14
1.97144e-13
9.14864e-13
7.1951e-12
3.59245e-11
4.30417e-11
3.29865e-11
3.21269e-11
-1.06405e-23
-6.7472e-23
-4.12231e-22
-1.47116e-21
-3.19337e-21
-3.57801e-21
9.18076e-22
9.85674e-21
1.73593e-20
1.76755e-20
9.25018e-20
3.78842e-18
5.73663e-17
3.87634e-16
1.84889e-15
4.69615e-15
1.33459e-14
1.25014e-14
1.43321e-13
7.49794e-13
1.04827e-12
9.2928e-13
7.78904e-13
-1.88941e-24
-1.1389e-23
-7.20864e-23
-2.74445e-22
-6.72212e-22
-1.06861e-21
-9.85487e-22
-3.22577e-22
-6.97884e-23
-1.11581e-23
3.38899e-21
3.34557e-19
5.87437e-18
4.8701e-17
2.43961e-16
1.1448e-15
3.44164e-15
7.48611e-15
6.20442e-15
3.66579e-15
2.89067e-15
2.8131e-15
2.64874e-15
-1.61206e-25
-9.18355e-25
-5.87305e-24
-2.26927e-23
-5.64962e-23
-9.1414e-23
-8.58541e-23
-2.72299e-23
-5.67205e-24
-9.31078e-25
2.35738e-24
9.77101e-21
3.38948e-19
4.20603e-18
2.91657e-17
1.19375e-16
8.0841e-16
1.91976e-15
3.03746e-15
3.46621e-15
3.26886e-15
3.03175e-15
2.81466e-15
-8.16591e-33
-6.34024e-33
-6.71588e-34
-5.53165e-35
4.436e-29
2.12644e-27
6.11364e-27
2.4497e-27
1.24274e-28
1.69749e-28
1.26128e-27
2.25603e-23
9.16662e-21
2.00692e-19
1.98079e-18
1.06843e-17
7.00352e-17
1.94859e-16
2.73128e-16
3.10138e-16
2.74815e-16
2.62162e-16
2.44477e-16
-2.39591e-41
-1.6072e-41
-1.6067e-42
-1.24852e-43
8.93676e-41
6.52681e-36
1.84939e-32
2.46386e-33
3.97399e-33
1.55155e-31
8.37893e-30
2.65015e-27
4.48455e-23
4.22578e-21
6.77756e-20
5.17485e-19
1.66983e-18
7.39649e-18
7.43153e-18
7.468e-18
6.73852e-18
6.35205e-18
7.23514e-18
-1.26201e-41
-8.89338e-42
-8.38884e-43
-6.14155e-44
-3.5505e-45
3.98296e-42
3.00209e-40
5.8337e-39
8.03338e-37
6.05753e-35
4.82915e-33
7.06235e-31
1.91118e-26
5.18946e-23
9.32982e-22
5.8731e-21
2.18607e-20
5.83988e-20
1.34285e-19
1.79909e-19
1.63318e-19
1.31725e-19
1.29442e-19
-4.10448e-42
-3.20925e-42
-2.83606e-43
-1.94288e-44
-1.2109e-45
4.91835e-45
4.52131e-43
1.09423e-41
1.39125e-39
1.01385e-37
8.12957e-36
8.62779e-34
2.17365e-30
2.68281e-26
1.21004e-24
1.17263e-23
5.63719e-23
1.73781e-22
3.85506e-22
6.5228e-22
8.92579e-22
9.92483e-22
9.7022e-22
-5.85823e-43
-5.68446e-43
-4.67183e-44
-2.97422e-45
-1.7344e-46
-9.76428e-48
-4.11432e-49
2.48223e-48
3.23538e-46
2.79324e-44
2.98338e-42
3.44787e-40
1.3135e-33
3.99487e-29
3.34957e-27
3.41829e-26
1.49209e-25
3.88232e-25
7.32041e-25
1.13609e-24
1.55019e-24
1.90604e-24
2.14782e-24
-7.72489e-50
-2.67296e-51
-1.0018e-52
-3.95477e-54
4.13314e-55
6.5088e-52
5.36585e-51
7.88039e-50
1.23564e-47
6.35221e-46
3.03206e-44
1.8971e-42
1.41001e-40
7.27932e-37
2.28154e-33
4.16805e-32
3.99916e-30
9.06736e-29
7.24584e-28
2.93341e-27
7.44653e-27
1.37119e-26
2.01267e-26
-9.39167e-68
9.51846e-66
6.93874e-67
0
3.76545e-59
1.6626e-56
1.22104e-54
6.92671e-53
5.71023e-51
3.9989e-49
3.5016e-47
3.748e-45
4.94327e-43
2.27051e-38
2.00373e-35
2.56112e-34
4.20861e-33
2.55478e-31
3.82112e-30
2.22164e-29
7.01153e-29
1.4759e-28
2.31429e-28
-7.78488e-68
-2.34006e-69
-7.66592e-71
-2.11268e-71
2.8744e-64
6.21087e-61
5.75315e-59
4.63425e-57
4.55268e-55
4.41109e-53
4.3688e-51
6.90031e-49
9.7086e-47
6.88994e-42
5.37756e-38
1.288e-36
9.1288e-36
1.54026e-34
5.88901e-33
6.28668e-32
2.84096e-31
7.6199e-31
9.97566e-31
-4.08689e-68
-1.09878e-69
-3.43663e-71
-7.03166e-72
2.35861e-72
1.85185e-69
2.67682e-66
3.70396e-64
3.78063e-62
5.7678e-60
9.10156e-58
1.57022e-55
1.91288e-53
5.46007e-47
6.70496e-42
1.33775e-39
1.42584e-38
6.98371e-38
1.62533e-36
4.35379e-35
3.3286e-34
1.00267e-33
1.81587e-33
-1.06404e-68
-2.60793e-70
-7.88133e-72
-2.38921e-73
7.10638e-73
2.48309e-70
2.2686e-68
3.47981e-66
4.48535e-64
4.64252e-62
4.19508e-60
3.93912e-58
3.93364e-56
4.11844e-54
3.90079e-50
7.16756e-46
2.88057e-44
5.87282e-44
1.67411e-43
1.7355e-41
3.26627e-39
7.85925e-37
9.43385e-35
-2.43304e-93
-8.20105e-91
-9.11302e-91
-1.74528e-84
1.21206e-75
6.23639e-73
1.7877e-70
3.64967e-68
6.03587e-66
7.71333e-64
8.52668e-62
9.59561e-60
9.86556e-58
9.73858e-56
9.97577e-54
1.39058e-51
2.05081e-49
3.04504e-47
7.27129e-45
1.77006e-42
4.29913e-40
1.12124e-37
1.31122e-35
-2.50524e-93
-6.40868e-91
-9.18382e-91
-1.09556e-84
8.01472e-78
3.95472e-75
1.17268e-72
2.45087e-70
4.11079e-68
6.06331e-66
8.12416e-64
1.02336e-61
1.28645e-59
1.698e-57
2.43633e-55
4.48167e-53
8.57668e-51
1.63927e-48
4.07696e-46
8.76341e-44
2.85032e-41
8.95226e-39
6.33479e-37
-1.91134e-93
-3.39254e-91
-7.04537e-91
-3.73867e-85
4.51803e-81
3.20728e-78
1.10271e-75
2.97223e-73
6.71704e-71
1.42041e-68
2.70548e-66
4.87122e-64
8.72743e-62
1.59123e-59
3.27402e-57
7.93793e-55
1.80599e-52
4.7284e-50
1.33791e-47
3.45191e-45
1.42245e-42
4.20335e-40
9.58269e-38
-9.55912e-94
-9.35874e-92
-3.66632e-91
-2.64155e-86
2.82438e-85
5.07727e-82
2.54138e-79
9.63406e-77
2.96648e-74
8.09161e-72
2.48329e-69
7.49318e-67
2.11277e-64
6.77028e-62
2.19932e-59
6.22393e-57
2.21483e-54
7.26209e-52
2.05735e-49
1.05487e-46
3.44051e-44
1.45687e-41
2.80612e-38
-2.33693e-94
-2.08288e-93
-9.73299e-92
-7.51408e-87
-5.29675e-88
2.58512e-86
1.70915e-83
8.84135e-81
3.79447e-78
1.48972e-75
7.75944e-73
3.59957e-70
1.72263e-67
9.82742e-65
4.19725e-62
2.4365e-59
1.01389e-56
4.41947e-54
2.38654e-51
9.48575e-49
7.35882e-46
4.42128e-43
1.5549e-43
-2.37886e-145
-8.40172e-125
-1.80103e-118
-7.1075e-106
6.6397e-94
1.99531e-91
1.32082e-88
9.89044e-86
6.00939e-83
3.81402e-80
3.19124e-77
1.97373e-74
1.9297e-71
1.34779e-68
1.33782e-65
9.45943e-63
9.10823e-60
6.79434e-57
4.41647e-54
4.74103e-51
3.12184e-48
4.36649e-45
-6.66931e-44
-3.75053e-146
-3.54294e-125
-4.30282e-119
-1.85383e-106
-1.13052e-105
1.24124e-98
1.83352e-95
1.38932e-92
1.41457e-89
1.29452e-86
1.19292e-83
1.9501e-80
2.00934e-77
3.55607e-74
3.82266e-71
6.96025e-68
7.78546e-65
1.51687e-61
1.87923e-58
4.42649e-55
6.65728e-52
1.46325e-48
3.99157e-45
0
-9.96991e-126
-8.09716e-122
-1.36287e-112
-3.40716e-106
-1.35395e-107
6.02797e-109
1.3766e-105
0
1.40586e-99
4.11474e-96
1.29433e-92
3.51992e-89
1.94062e-85
6.18169e-82
3.38452e-78
1.13449e-74
6.78729e-71
2.52613e-67
1.89667e-63
8.26256e-60
5.55794e-56
7.07724e-51
0
-1.4057e-126
-1.04118e-127
-3.21903e-126
-3.21783e-120
-4.46121e-122
-3.2056e-124
1.50416e-121
-1.91939e-140
0
5.23862e-111
0
1.41901e-104
3.28147e-101
0
8.72476e-94
3.30913e-91
4.63742e-86
2.77633e-82
0
-1.02052e-103
4.99333e-71
8.94966e-73
1
0.999998
0.99994
0.999863
0.999998
0.999956
0.999867
0.999594
0.958001
0.859159
0.740631
0.592831
0.256619
0.104797
0.0009548
1.96563e-05
1.57347e-09
2.23656e-09
2.39459e-09
3.69381e-06
2.23656e-09
2.39459e-09
0.000114405
0.000347059
1.04001e-08
1.16902e-08
0.000341737
0.000388905
4.31651e-06
1.28444e-05
3.87002e-06
0.000109848
2.6893e-05
4.83586e-08
3.58946e-10
5.43662e-11
6.28144e-06
6.48596e-10
5.81531e-11
5.08804e-11
6.50875e-10
6.04323e-11
5.08804e-11
5.08804e-11
3.32913e-06
1.25677e-08
5.23204e-11
4.92529e-11
8.30267e-06
1.19611e-07
4.71609e-11
2.37801e-11
1.3475e-06
3.01414e-07
1.47867e-10
1.27888e-11
5.86964e-10
5.65555e-08
2.23689e-08
2.57647e-10
7.39136e-10
4.7627e-10
3.20619e-09
1.19915e-09
1.53348e-09
4.66466e-10
8.91151e-11
8.65927e-11
1.49328e-09
7.6352e-10
1.69734e-10
3.2686e-11
6.48992e-10
4.97244e-10
2.2467e-10
4.53173e-11
5.13837e-11
4.64202e-11
3.54459e-11
1.53535e-11
1.63664e-13
4.56415e-13
3.2664e-12
2.64604e-12
2.19726e-15
1.31213e-14
3.52407e-13
2.4265e-13
1.8061e-15
5.0649e-16
1.44855e-14
9.79744e-15
1.70363e-16
5.65666e-17
6.61362e-18
3.02937e-19
8.54127e-18
6.8521e-18
2.94974e-18
2.30572e-19
1.21948e-19
5.51668e-20
4.42336e-21
3.2142e-20
6.12151e-22
1.01719e-22
8.24287e-23
3.04446e-20
2.25436e-24
1.94497e-24
4.61091e-23
3.35738e-20
3.50149e-26
9.48448e-26
4.30854e-23
4.54277e-20
3.23461e-28
2.65526e-26
4.44528e-23
7.15939e-20
6.74797e-30
1.98533e-26
4.62702e-23
1.08008e-19
1.88607e-30
1.34496e-26
4.3977e-23
1.45372e-19
5.01591e-31
6.85682e-27
2.76003e-23
1.82784e-19
1.14143e-31
1.91302e-27
1.29432e-23
2.21705e-19
2.55918e-32
2.58724e-28
5.31407e-24
2.66485e-19
3.85535e-33
2.53418e-29
1.49908e-24
3.16462e-19
2.7455e-34
2.14929e-30
2.27098e-25
3.47779e-19
2.30746e-37
1.65499e-32
9.66873e-27
2.06716e-19
8.03755e-38
6.80285e-33
2.27187e-29
1.13344e-19
2.39722e-46
-9.66293e-40
4.11582e-33
5.11435e-21
4.90872e-52
2.84957e-41
1.75811e-42
-4.57504e-36
1.69473e-118
3.28537e-79
-2.23013e-41
-7.15466e-40
0.999709
0.999171
0.996869
0.980659
0.812102
0.470099
0.0420108
0.000117646
1.67048e-05
1.29455e-06
7.82996e-07
1.59938e-05
0.000338037
0.0889766
0.646998
0.952743
0.945536
0.945696
0.948692
0.991593
0.943946
0.774569
0.428119
0.000293097
4.0811e-05
6.18289e-06
-6.83461e-07
-2.81036e-07
-1.87885e-09
7.7041e-09
7.09005e-07
1.44017e-05
0.000533685
0.0265508
0.531702
0.941616
0.948707
0.949522
0.409554
0.167515
7.08691e-05
4.89737e-05
1.70954e-05
2.89307e-06
2.77914e-07
2.60607e-08
-2.5263e-09
-1.12634e-10
5.86104e-10
-1.79011e-08
6.72885e-07
4.81284e-05
0.00096962
0.0160495
0.726317
0.949523
0.951008
6.09762e-05
7.25091e-05
4.91254e-05
3.40455e-05
8.2294e-06
3.18344e-07
2.34692e-08
1.14973e-09
4.97618e-10
4.46261e-10
4.10678e-10
2.64788e-10
1.10128e-08
3.95616e-06
0.000102007
0.00119537
0.446356
0.937023
0.952734
8.90953e-05
0.00015584
0.000310565
0.000323673
0.000187411
1.82011e-07
-1.11081e-09
1.89737e-10
4.26476e-10
4.51463e-10
4.52434e-10
4.0864e-10
2.27889e-09
3.61964e-07
1.19114e-05
0.000204272
0.213668
0.892332
0.954254
0.000424206
0.000424334
0.000420471
0.000323742
4.37738e-05
3.83908e-11
6.87734e-11
3.42827e-10
4.41076e-10
4.44178e-10
4.56222e-10
6.3428e-10
8.13703e-09
2.90111e-07
6.91624e-06
0.000109967
0.0712881
0.871549
0.955118
0.000392734
0.000234296
4.86651e-05
3.60166e-11
3.58671e-11
3.60166e-11
1.26935e-10
4.92369e-10
4.41194e-10
4.65222e-10
6.38533e-10
3.34879e-09
6.99285e-08
1.17674e-06
1.53985e-05
0.000153096
0.0906939
0.874914
0.955418
4.76598e-11
3.74754e-11
3.66752e-11
3.58671e-11
3.86034e-11
1.2607e-10
3.09424e-10
3.23044e-10
3.40796e-10
6.85925e-10
3.83822e-09
3.6246e-08
4.97568e-07
6.22409e-06
5.65669e-05
0.000415613
0.129016
0.887909
0.955491
5.16437e-11
5.00748e-11
5.03895e-11
6.44137e-11
1.09748e-10
1.7395e-10
1.98025e-10
2.034e-10
3.04431e-10
2.80126e-09
3.88128e-08
5.23085e-07
6.11922e-06
5.63172e-05
0.000415889
0.00919631
0.283899
0.927455
0.955508
5.77862e-11
9.37994e-11
1.15602e-10
1.14145e-10
1.41184e-10
1.48721e-10
1.39309e-10
1.4574e-10
3.50937e-10
6.20392e-09
1.195e-07
1.6207e-06
1.75114e-05
0.000154762
0.00125441
0.217031
0.620733
0.94707
0.955512
9.71799e-11
1.15096e-10
1.15602e-10
1.09616e-10
8.08677e-11
7.03654e-11
5.63306e-11
5.36831e-11
1.52495e-10
4.20452e-09
9.56328e-08
1.46392e-06
1.85602e-05
0.000162484
0.00203978
0.330825
0.817371
0.897739
0.955512
6.43025e-11
8.50889e-11
7.11814e-11
3.73294e-11
2.53461e-11
2.00408e-11
1.98317e-11
1.77256e-11
3.72804e-11
1.08566e-09
3.13874e-08
5.73414e-07
6.04331e-05
0.000788596
0.00158304
0.0383207
0.690535
0.931452
0.955513
2.41782e-11
2.23796e-11
1.44249e-11
8.09265e-12
6.08026e-12
5.82994e-12
9.23702e-12
1.45632e-11
1.58774e-11
1.42502e-10
5.30661e-09
1.29368e-07
7.17068e-05
0.000861024
0.00162569
0.00102218
0.330922
0.955513
0.955513
8.82483e-12
5.14943e-12
2.67902e-12
1.62204e-12
1.38092e-12
2.15854e-12
6.28856e-12
1.62458e-11
1.98282e-11
2.46207e-11
4.49166e-10
3.73348e-08
3.06818e-05
0.000167844
1.92749e-05
6.64076e-05
0.1714
0.955513
0.955513
2.36711e-12
1.32455e-12
5.23182e-13
2.65738e-13
4.35156e-13
1.28008e-12
9.10791e-12
2.8142e-11
2.95122e-11
2.92195e-11
6.23199e-11
1.28611e-09
2.50262e-07
3.307e-06
1.33797e-06
5.29012e-07
0.0179345
0.933081
0.955513
2.94757e-11
3.30195e-13
5.79817e-14
7.36402e-14
2.63666e-13
1.26784e-12
1.0855e-11
3.30549e-11
4.09545e-11
3.95871e-11
4.35353e-11
2.33048e-10
7.1029e-09
4.76036e-07
3.30877e-07
3.19621e-07
1.80782e-07
0.599784
0.955513
2.06754e-11
5.41372e-13
2.70851e-14
3.93521e-14
2.74473e-13
1.30249e-12
1.1196e-11
2.80587e-11
6.47523e-11
9.69339e-11
8.70119e-11
1.14621e-10
9.87699e-10
6.5615e-08
1.70413e-07
1.80657e-07
1.80445e-07
0.220745
0.955513
2.74019e-12
1.16464e-13
2.22176e-14
3.57147e-14
3.0063e-13
1.34809e-12
1.19418e-11
2.58029e-11
1.49568e-10
3.2565e-10
1.53029e-10
1.51138e-10
6.74133e-07
2.04569e-07
1.81472e-07
1.80097e-07
1.80611e-07
0.167548
0.955513
2.28529e-12
7.94003e-14
1.65746e-14
4.1552e-14
3.68123e-13
1.59809e-12
1.1947e-11
2.86233e-11
1.51363e-10
3.41151e-10
2.43742e-10
3.33629e-10
8.85985e-07
2.31195e-07
1.8012e-07
1.8012e-07
1.8012e-07
0.187901
0.955513
2.40084e-12
1.11418e-13
9.37746e-15
4.58307e-14
4.24363e-13
1.99661e-12
1.04992e-11
3.59851e-11
8.56834e-11
2.72885e-10
2.28537e-10
7.57307e-11
3.50934e-07
2.47863e-07
8.65807e-05
2.32533e-06
3.78064e-06
0.213033
0.955513
8.27215e-13
5.41008e-14
5.69961e-15
5.00902e-14
4.48401e-13
2.57922e-12
1.08267e-11
3.29984e-11
5.99813e-11
1.44249e-10
1.40299e-10
6.80342e-11
7.57307e-11
3.70764e-05
0.000175917
1.1011e-05
1.23932e-05
0.232718
0.955513
4.91092e-14
1.27842e-15
3.21645e-15
5.3528e-14
4.71958e-13
3.29899e-12
1.11065e-11
2.34745e-11
3.82186e-11
5.87134e-11
6.27465e-11
6.54935e-11
6.81147e-11
2.2222e-05
0.000173345
0.000127751
8.36481e-05
0.254361
0.955513
1.85432e-15
1.36304e-16
2.62253e-15
5.94662e-14
6.19949e-13
3.74202e-12
9.56943e-12
1.41563e-11
1.83632e-11
1.72066e-11
1.95815e-11
2.44553e-08
1.36291e-08
4.36521e-07
1.94924e-05
0.00037987
0.00029334
0.256063
0.955513
1.21511e-18
5.83874e-17
3.1819e-15
8.34192e-14
9.48493e-13
3.96287e-12
4.91516e-12
6.87816e-12
1.57451e-11
1.65651e-11
2.07836e-11
2.51708e-08
7.11987e-09
5.69473e-09
3.81159e-07
0.000357551
0.000383134
0.249496
0.955513
1.1562e-18
7.02666e-17
4.87252e-15
2.17148e-13
1.25271e-12
1.99539e-12
3.29188e-12
2.25756e-11
1.65651e-11
6.48937e-10
1.36439e-10
5.58086e-09
3.95539e-09
4.87468e-09
8.03465e-08
5.81221e-05
2.48695e-05
0.235135
0.955513
1.21151e-18
1.19934e-16
9.92768e-15
6.3351e-13
1.26145e-12
5.39735e-13
9.23968e-12
2.61478e-10
1.62662e-10
1.02722e-09
1.07526e-08
2.32665e-08
6.23102e-09
1.16435e-08
3.45633e-08
2.49752e-07
5.72363e-06
0.21987
0.955513
1.95602e-18
2.6648e-16
2.80889e-14
9.94455e-13
6.22351e-13
2.50623e-12
2.57536e-11
3.31564e-09
8.64031e-09
2.93478e-09
4.09241e-06
6.74448e-07
1.17081e-08
3.457e-08
6.70181e-08
1.35127e-07
1.95625e-06
0.204629
0.948393
3.7518e-18
7.29609e-16
1.06962e-13
8.43863e-13
-7.31664e-13
-9.60909e-11
6.67005e-10
2.74789e-08
1.85196e-07
8.98265e-08
2.71483e-06
1.29044e-06
1.29205e-07
6.70074e-08
1.36258e-07
1.90122e-07
9.74662e-07
0.183871
0.92367
8.62761e-18
2.12832e-15
3.24612e-13
3.07649e-13
9.66958e-13
-2.41628e-10
6.17591e-10
1.83489e-07
2.29876e-06
0.000156481
4.89195e-06
3.4876e-06
7.3893e-07
3.25354e-07
5.34747e-07
2.18634e-06
2.25079e-06
0.159867
0.922258
1.98735e-17
5.96923e-15
4.62019e-13
-7.67812e-13
-7.09082e-12
6.00408e-10
1.37588e-08
9.52654e-07
1.89921e-05
0.0023795
0.00258558
0.00153236
0.000313093
7.48875e-07
9.13055e-06
4.74127e-06
3.52395e-06
0.16097
0.921929
4.34436e-17
1.69661e-14
1.94048e-13
-1.12339e-12
-6.29819e-10
2.29169e-09
1.46706e-07
4.42156e-06
0.00151697
0.00322269
0.00322269
0.00322269
0.0019097
0.000173019
5.77558e-05
7.35764e-06
4.01346e-06
0.1962
0.806535
9.94695e-17
5.18449e-14
3.74498e-14
-1.6016e-11
-1.19375e-10
-2.41849e-08
6.43093e-07
0.00120086
0.00697974
0.00216332
0.000800825
0.000847785
0.00196399
0.00099087
9.58729e-05
1.14388e-05
0.0133448
0.196523
0.110151
2.77625e-16
1.36468e-13
-7.10101e-13
6.61602e-12
2.31688e-08
1.35579e-06
2.0003e-05
0.00405193
0.0071919
0.000278273
0.000277066
0.000307342
0.000438011
0.00102435
0.000306866
0.00033398
0.0312729
0.195251
0.0104773
9.62476e-16
2.82413e-13
3.93427e-11
2.77919e-09
2.12574e-07
5.5591e-06
0.000449261
0.00574091
0.00675669
0.000277021
0.000277426
0.000285632
0.000329462
0.000735727
0.000589341
0.00081184
0.0352208
0.194826
0.0104992
3.19992e-15
1.51091e-12
1.60429e-10
1.12087e-08
2.52407e-07
1.66315e-06
0.000888731
0.00796931
0.00616902
0.000277426
0.000278254
0.000283547
0.000308401
0.000375078
0.000527451
0.00217252
0.137223
0.194184
0.0132409
1.19892e-14
4.79466e-12
4.42303e-11
1.41323e-09
1.08119e-07
3.74566e-06
0.00100857
0.0104757
0.00744449
0.000278254
0.000279492
0.000286285
0.000310879
0.00038313
0.000615265
0.0104495
0.136115
0.106029
0.00220699
2.28135e-14
-5.00998e-13
-6.50507e-11
4.03405e-09
2.27877e-07
6.26481e-06
0.000323838
0.0128216
0.0179004
0.000279492
0.000286285
0.000307876
0.000378662
0.000609901
0.00864229
0.126747
0.134184
0.00329963
3.10149e-05
-7.58037e-18
1.97258e-14
-5.17512e-11
-2.39456e-10
2.83177e-07
7.41831e-06
0.000111254
0.0115814
0.036403
0.0118637
0.000307876
0.000378962
0.000649121
0.0302789
0.100252
0.126053
0.07277
0.00118768
1.73744e-06
-1.98241e-17
4.63472e-14
2.31305e-11
-2.29848e-10
6.57488e-08
4.67979e-06
7.46668e-05
0.00477181
0.0438028
0.0534636
0.0148714
0.0140651
0.0561503
0.0905555
0.10201
0.0643791
0.00112614
5.18925e-05
2.25414e-08
-1.12298e-17
-3.11564e-15
3.99995e-12
5.85458e-10
1.56708e-08
1.188e-06
2.69898e-05
0.000891202
0.0294568
0.0545478
0.0610907
0.0686229
0.0726489
0.0788132
0.0395459
0.00122023
9.09352e-06
2.17518e-08
1.83448e-08
-3.67974e-20
-8.74082e-16
-1.05222e-13
-4.28959e-13
7.87321e-10
4.51032e-08
3.44216e-06
6.01863e-05
0.00469641
0.040241
0.058333
0.0610907
0.0484361
0.0126403
0.000878598
2.38482e-05
5.65333e-07
1.76646e-08
1.70521e-08
-1.13203e-35
-2.10077e-19
-7.07447e-16
-1.49604e-13
-2.05895e-11
-7.97681e-10
9.01948e-08
6.43025e-06
8.3849e-05
0.00230776
0.0174739
0.0147803
0.00324738
0.000732914
7.41658e-05
1.72076e-06
4.71134e-08
1.69013e-08
1.6714e-08
)
;

boundaryField
{
    leftWall
    {
        type            zeroGradient;
    }
    rightWall
    {
        type            zeroGradient;
    }
    lowerWall
    {
        type            zeroGradient;
    }
    atmosphere
    {
        type            inletOutlet;
        inletValue      uniform 0;
        value           nonuniform List<scalar> 
46
(
0
0
0
0
0
0
0
0
0
0
0
0
0
0
0
0
0
0
0
0
0
0
0
0
0
0
0
0
0
0
0
0
0
9.01948e-08
6.43025e-06
8.3849e-05
0.00230776
0.0174739
0.0147803
0.00324738
0.000732914
7.41658e-05
1.72076e-06
4.71134e-08
1.69013e-08
0
)
;
    }
    defaultFaces
    {
        type            empty;
    }
}


// ************************************************************************* //
