/*--------------------------------*- C++ -*----------------------------------*\
| =========                 |                                                 |
| \\      /  F ield         | OpenFOAM: The Open Source CFD Toolbox           |
|  \\    /   O peration     | Version:  2206                                  |
|   \\  /    A nd           | Website:  www.openfoam.com                      |
|    \\/     M anipulation  |                                                 |
\*---------------------------------------------------------------------------*/
FoamFile
{
    version     2.0;
    format      ascii;
    arch        "LSB;label=32;scalar=64";
    class       volScalarField;
    location    "0.55";
    object      p_rgh;
}
// * * * * * * * * * * * * * * * * * * * * * * * * * * * * * * * * * * * * * //

dimensions      [1 -1 -2 0 0 0 0];

internalField   nonuniform List<scalar> 
2268
(
859.403
859.7
860.401
861.343
862.226
863.039
863.876
864.858
866.064
867.522
869.225
871.151
873.271
875.54
877.914
880.326
882.675
884.811
886.559
887.771
888.567
889.398
890.436
859.014
859.286
859.995
860.962
861.866
862.707
863.57
864.578
865.811
867.293
869.01
870.928
873.037
875.286
877.643
880.061
882.458
884.693
886.544
887.788
888.503
889.224
890.701
858.181
858.453
859.157
860.17
861.12
862.019
862.938
864.002
865.295
866.84
868.624
870.62
872.771
875.057
877.426
879.821
882.173
884.393
886.395
888.097
889.578
890.999
892.142
856.867
857.144
857.867
858.882
859.939
860.937
861.951
863.11
864.504
866.154
868.039
870.122
872.361
874.719
877.151
879.604
882.016
884.321
886.475
888.487
890.422
892.268
893.83
854.997
855.281
856.024
857.101
858.33
859.445
860.58
861.878
863.423
865.227
867.259
869.475
871.835
874.302
876.836
879.393
881.923
884.37
886.69
888.872
890.965
892.958
894.661
852.447
852.749
853.547
854.784
856.395
857.602
858.848
860.309
862.053
864.063
866.289
868.68
871.196
873.802
876.468
879.153
881.813
884.399
886.862
889.16
891.277
893.172
894.629
849.021
849.246
850.043
851.597
853.532
855.178
856.696
858.403
860.417
862.69
865.153
867.751
870.447
873.214
876.027
878.849
881.635
884.332
886.87
889.156
891.041
892.274
892.52
844.646
844.236
844.524
846.064
848.877
851.656
853.975
856.184
858.568
861.157
863.891
866.724
869.623
872.568
875.532
878.485
881.38
884.146
886.681
888.865
890.364
891.095
886.715
328.474
295.338
235.556
214.599
244.99
287.647
362.487
499.175
624.103
622.38
603.226
663.723
749.092
791.543
797.381
724.037
581.224
677.052
957.639
330.418
275.39
204.627
197.066
223.318
263.15
332.867
477.747
610.155
596.166
579.982
648.803
754.48
802.738
806.867
722.547
553.994
628.166
941
349.202
244.826
196.715
194.576
222.154
260.957
363.932
507.049
559.61
535.315
521.133
587.536
709.666
812.779
807.634
704.491
519.529
553.549
906.903
353.223
227.291
197.498
194.582
221.194
302.069
435.15
481.678
492.814
465.041
460.831
517.878
636.44
760.445
825.632
660.765
451.806
444.934
869.384
351.754
230.329
201.611
197.784
269.434
429.262
446.996
440.745
417.066
361.106
371.16
439.779
557.308
688.482
774.209
634.39
427.948
387.277
832.34
319.159
238.525
207.17
255.744
453.183
466.816
434.043
397.028
256.452
117.227
128.781
286.16
468.452
612.658
711.588
679.335
424.98
395.945
829.452
336.587
278.228
318.901
509.837
503.321
472.905
429.863
223.762
30.5401
2.23152
1.27497
21.6941
250.929
533.806
654.542
675.191
467.31
460.906
903.985
482.819
504.773
594.503
556.22
524.267
486.862
287.743
29.2004
1.72647
0.599027
0.4547
0.994554
12.1613
401.555
603.076
663.568
630.288
629.077
1018.91
837.174
833.793
832.828
834.925
840.513
845.695
849.506
852.616
855.578
858.621
861.761
864.958
868.179
871.402
874.603
877.742
880.741
883.46
885.588
886.639
884.962
878.635
857.026
834.212
828.013
823.705
825.249
832.658
839.383
843.644
847.148
850.736
854.421
858.17
861.934
865.652
869.286
872.816
876.201
879.359
882.142
884.314
885.5
885.256
882.932
878.752
805.938
736.775
652.417
560.767
575.207
635.08
680.282
703.411
727.807
750.788
770.09
786.513
800.918
813.838
825.634
836.502
846.429
855.213
862.594
868.205
872.09
872.436
869.076
129.077
69.9321
24.9846
47.9266
106.34
125.929
115.199
112.097
117.43
129.077
145.12
163.571
182.978
202.64
222.461
242.62
263.173
283.698
303.181
320.706
336.319
344.227
335.29
0.211172
0.188849
0.210204
0.520224
0.173162
0.152751
0.16834
0.172872
0.171895
0.169417
0.167207
0.165361
0.16389
0.162966
0.162464
0.162073
0.16155
0.160746
0.159564
0.15777
0.155033
0.152432
0.153062
0.178438
0.171728
0.169186
0.169854
0.160774
0.153156
0.157208
0.161266
0.161943
0.160868
0.159671
0.158818
0.158289
0.158101
0.158196
0.158382
0.158463
0.158291
0.157771
0.156836
0.1555
0.153883
0.153118
0.15465
0.143115
0.139793
0.145046
0.14984
0.149408
0.14909
0.14958
0.14965
0.149225
0.148736
0.148406
0.148264
0.148305
0.148521
0.148829
0.149065
0.149023
0.148526
0.14745
0.145713
0.143601
0.141787
0.139211
0.138239
0.139078
0.138923
0.137943
0.137175
0.136685
0.136386
0.13621
0.136025
0.135841
0.135746
0.135791
0.135986
0.136295
0.136611
0.136747
0.136482
0.135678
0.133988
0.13126
0.130308
0.138463
0.123556
0.123152
0.122779
0.122514
0.122625
0.122814
0.122825
0.122688
0.122496
0.12229
0.122097
0.121956
0.121905
0.12195
0.122046
0.122082
0.12186
0.121221
0.120029
0.12733
0.138246
0.156279
0.150115
0.110573
0.110379
0.110034
0.109726
0.109425
0.109153
0.108881
0.108567
0.108218
0.10785
0.10748
0.107125
0.106801
0.106508
0.106209
0.105819
0.105178
0.104241
0.119145
0.154585
0.149668
0.1439
0.137908
0.096848
0.0966929
0.0962654
0.095882
0.0955225
0.0951463
0.0947413
0.09429
0.093784
0.0932272
0.0926266
0.0919876
0.0913127
0.0905962
0.0898182
0.0889259
0.0878275
0.0865401
0.133721
0.141267
0.137922
0.134039
0.0990481
0.0832321
0.0830608
0.0825996
0.0821592
0.0817086
0.0812121
0.080665
0.0800598
0.0793873
0.0786421
0.0778208
0.0769182
0.0759268
0.0748369
0.0736363
0.0722973
0.0707834
0.0690949
0.0906542
0.124722
0.126825
0.12502
0.076241
0.0695255
0.0693193
0.0688473
0.0683789
0.0678731
0.0673023
0.0666621
0.0659472
0.0651503
0.0642646
0.063283
0.0621967
0.0609956
0.0596706
0.0582131
0.0566126
0.0548631
0.0535805
0.0509529
0.0575641
0.101436
0.0794787
0.0705262
0.0558096
0.0555905
0.0551396
0.0546639
0.0541246
0.0535045
0.0528006
0.0520087
0.0511233
0.0501388
0.0490491
0.0478485
0.0465314
0.0450931
0.0435301
0.0418429
0.0400418
0.0381495
0.0362344
0.0343913
0.0328047
0.0318653
0.0316404
0.0421607
0.0419468
0.041533
0.0410646
0.0405093
0.0398572
0.0391069
0.0382558
0.0373012
0.0362396
0.0350673
0.0337821
0.0323839
0.0308742
0.0292562
0.0275365
0.02573
0.0238659
0.021993
0.0201758
0.0185122
0.0171284
0.0159672
0.028725
0.0285308
0.0281524
0.0276902
0.0271204
0.0264389
0.0256456
0.0247385
0.0237161
0.0225772
0.0213209
0.0199475
0.0184602
0.0168646
0.0151681
0.0133802
0.0115148
0.00959557
0.0076554
0.00573298
0.0038799
0.00215132
0.000597487
0.0155979
0.0154276
0.0150771
0.014617
0.0140304
0.0133161
0.0124754
0.0115074
0.0104114
0.00918734
0.007836
0.00635953
0.00476234
0.0030516
0.0012367
-0.000671747
-0.0026613
-0.00471455
-0.00680959
-0.00892278
-0.0110165
-0.0130575
-0.0149961
0.00283934
0.00268642
0.00234947
0.00188185
0.00127213
0.000520284
-0.00037302
-0.00140803
-0.00258458
-0.00390212
-0.00535919
-0.00695291
-0.0086785
-0.0105289
-0.012495
-0.0145663
-0.0167316
-0.0189784
-0.0212912
-0.0236508
-0.0260353
-0.0284148
-0.0307489
-0.00953238
-0.00967533
-0.0100098
-0.0104935
-0.011134
-0.0119302
-0.0128821
-0.0139903
-0.0152544
-0.0166733
-0.0182448
-0.0199662
-0.0218332
-0.0238401
-0.0259798
-0.0282435
-0.0306216
-0.033104
-0.0356797
-0.0383346
-0.0410499
-0.0438019
-0.0465555
-0.0215037
-0.021646
-0.0219879
-0.022494
-0.0231705
-0.0240167
-0.0250325
-0.0262183
-0.0275745
-0.0291001
-0.0307931
-0.0326506
-0.0346691
-0.0368449
-0.0391733
-0.0416487
-0.0442638
-0.0470106
-0.0498807
-0.0528634
-0.0559435
-0.0591
-0.0623033
-0.0330379
-0.0331873
-0.0335455
-0.034081
-0.0347984
-0.035699
-0.0367828
-0.0380505
-0.0395026
-0.0411387
-0.0429575
-0.0449568
-0.0471344
-0.0494884
-0.0520168
-0.0547171
-0.0575853
-0.0606158
-0.0638022
-0.0671367
-0.0706076
-0.0741974
-0.0778819
-0.044089
-0.0442505
-0.0446295
-0.0451977
-0.0459603
-0.0469182
-0.0480725
-0.0494247
-0.0509753
-0.0527244
-0.0546715
-0.0568157
-0.0591566
-0.0616946
-0.0644304
-0.0673645
-0.0704963
-0.073823
-0.0773407
-0.0810444
-0.0849262
-0.0889728
-0.093166
-0.0545991
-0.054777
-0.0551799
-0.055782
-0.0565908
-0.0576069
-0.058832
-0.0602683
-0.061917
-0.063779
-0.0658548
-0.0681448
-0.0706505
-0.0733745
-0.0763203
-0.0794918
-0.0828915
-0.0865202
-0.0903769
-0.0944598
-0.0987654
-0.103285
-0.108007
-0.0645051
-0.0647012
-0.0651284
-0.0657652
-0.066619
-0.0676921
-0.0689864
-0.0705044
-0.0722484
-0.0742203
-0.0764218
-0.078855
-0.081523
-0.0844306
-0.0875841
-0.0909903
-0.0946555
-0.0985843
-0.102779
-0.107243
-0.111976
-0.116975
-0.122236
-0.0737474
-0.0739624
-0.0744118
-0.0750814
-0.0759774
-0.0771036
-0.0784626
-0.0800575
-0.0818912
-0.0839668
-0.0862873
-0.0888563
-0.0916789
-0.094762
-0.0981145
-0.101746
-0.105667
-0.109886
-0.114409
-0.119244
-0.124397
-0.129868
-0.135663
-0.0822676
-0.0825019
-0.0829716
-0.0836699
-0.0846037
-0.085777
-0.0871934
-0.0888568
-0.0907712
-0.0929405
-0.0953688
-0.0980614
-0.101025
-0.104269
-0.107805
-0.111646
-0.115804
-0.120293
-0.125124
-0.130309
-0.13586
-0.141781
-0.148085
-0.0900127
-0.0902649
-0.0907516
-0.0914736
-0.0924393
-0.0936524
-0.0951171
-0.0968383
-0.0988208
-0.10107
-0.10359
-0.106389
-0.109474
-0.112858
-0.116555
-0.120579
-0.124947
-0.129677
-0.134784
-0.140284
-0.146194
-0.152525
-0.159293
-0.0969397
-0.0972048
-0.0977041
-0.0984441
-0.099434
-0.100678
-0.102179
-0.103945
-0.105981
-0.108291
-0.110883
-0.113765
-0.116947
-0.120443
-0.124269
-0.128444
-0.132986
-0.137915
-0.143252
-0.149018
-0.155234
-0.161915
-0.169079
-0.103015
-0.103284
-0.103792
-0.104543
-0.105548
-0.106811
-0.108337
-0.110132
-0.112201
-0.114552
-0.117191
-0.120129
-0.123377
-0.126951
-0.13087
-0.135153
-0.139823
-0.1449
-0.150411
-0.156379
-0.162829
-0.169779
-0.17725
-0.10821
-0.108472
-0.108984
-0.109739
-0.11075
-0.11202
-0.113555
-0.11536
-0.117443
-0.11981
-0.122469
-0.125432
-0.128711
-0.132325
-0.136293
-0.140636
-0.145378
-0.150544
-0.156159
-0.162253
-0.168852
-0.175974
-0.183641
-0.112495
-0.112741
-0.113254
-0.114004
-0.115011
-0.116275
-0.117802
-0.1196
-0.121673
-0.12403
-0.12668
-0.129634
-0.132907
-0.136518
-0.140486
-0.144835
-0.149589
-0.154774
-0.160419
-0.166552
-0.1732
-0.180381
-0.188116
-0.115851
-0.116075
-0.116583
-0.117319
-0.118311
-0.119556
-0.121058
-0.122828
-0.124868
-0.127188
-0.129797
-0.132707
-0.135934
-0.139496
-0.143414
-0.147711
-0.152412
-0.157544
-0.163135
-0.169213
-0.175803
-0.182922
-0.190586
-0.118284
-0.118478
-0.11898
-0.119692
-0.120656
-0.121868
-0.123328
-0.125048
-0.127032
-0.129288
-0.131826
-0.134656
-0.137796
-0.141263
-0.145078
-0.149264
-0.153846
-0.15885
-0.164302
-0.170228
-0.17665
-0.183581
-0.191031
-0.119833
-0.119985
-0.120474
-0.121156
-0.122075
-0.123242
-0.124642
-0.126295
-0.1282
-0.130366
-0.132802
-0.13552
-0.138533
-0.141861
-0.145523
-0.149541
-0.15394
-0.158742
-0.163972
-0.169653
-0.175801
-0.182422
-0.189523
-0.120506
-0.12061
-0.121069
-0.121722
-0.122582
-0.12369
-0.125018
-0.126586
-0.128393
-0.130447
-0.132757
-0.135331
-0.138185
-0.141333
-0.144797
-0.148595
-0.152751
-0.157285
-0.162218
-0.167566
-0.173341
-0.179545
-0.186175
-0.120252
-0.120323
-0.120731
-0.121358
-0.122155
-0.123196
-0.124444
-0.125914
-0.127609
-0.129532
-0.131692
-0.134097
-0.136759
-0.139693
-0.142918
-0.146451
-0.150311
-0.154517
-0.159084
-0.164024
-0.16934
-0.175033
-0.181089
-0.119047
-0.11914
-0.119484
-0.120094
-0.120838
-0.121809
-0.122973
-0.124336
-0.125905
-0.127681
-0.12967
-0.13188
-0.134324
-0.137013
-0.139963
-0.143191
-0.14671
-0.150536
-0.154678
-0.159143
-0.163931
-0.169037
-0.174443
-0.116997
-0.117198
-0.117499
-0.118105
-0.118807
-0.11971
-0.120785
-0.122035
-0.123466
-0.12508
-0.126882
-0.128881
-0.131085
-0.133505
-0.136155
-0.139045
-0.142188
-0.145593
-0.149267
-0.153212
-0.157424
-0.161894
-0.166603
-0.114197
-0.114615
-0.114885
-0.115486
-0.116151
-0.116984
-0.117969
-0.119104
-0.120395
-0.121843
-0.123454
-0.125233
-0.127188
-0.129328
-0.131661
-0.134196
-0.136943
-0.139906
-0.14309
-0.146493
-0.150106
-0.15392
-0.157917
-0.110645
-0.111287
-0.111508
-0.112084
-0.112724
-0.113501
-0.114405
-0.115434
-0.116591
-0.117877
-0.119298
-0.120858
-0.122562
-0.124416
-0.126427
-0.1286
-0.130942
-0.133455
-0.13614
-0.138993
-0.142007
-0.145173
-0.148481
-0.106543
-0.107214
-0.107484
-0.108085
-0.108741
-0.109485
-0.110317
-0.11124
-0.112258
-0.113376
-0.114598
-0.115927
-0.117368
-0.118925
-0.1206
-0.122397
-0.124317
-0.126363
-0.128537
-0.130837
-0.133256
-0.135789
-0.138433
-0.100812
-0.102458
-0.102958
-0.103625
-0.104276
-0.104954
-0.105677
-0.106454
-0.107293
-0.108201
-0.10918
-0.110234
-0.111365
-0.112576
-0.113865
-0.115232
-0.116677
-0.118206
-0.11982
-0.121515
-0.123287
-0.125133
-0.127061
779.181
845.19
835.873
785.894
857.202
845.627
827.384
795.002
836.825
739.799
627.935
501.639
249.266
101.949
1.48087
0.257111
0.163729
0.201005
0.300432
0.25096
0.15551
0.181206
0.38277
0.64175
0.13888
0.15989
0.630234
0.68308
0.120594
0.153907
0.157109
0.297469
0.131932
0.112176
0.12906
0.118873
0.0859384
0.0930085
0.103796
0.0981138
0.0672024
0.0782779
0.082553
0.0784457
0.0643805
0.0632901
0.063743
0.0600473
0.0618054
0.0471512
0.0452764
0.0419689
0.0325063
0.0299009
0.0266291
0.0235624
0.0136929
0.011297
0.00776216
0.00448657
-0.00262268
-0.00703605
-0.0115754
-0.0154698
-0.0191898
-0.0253737
-0.0313406
-0.0364499
-0.035915
-0.0438853
-0.0516226
-0.0585184
-0.0527317
-0.0625988
-0.0724534
-0.0816926
-0.0695592
-0.0814878
-0.0938053
-0.105929
-0.086294
-0.100466
-0.115584
-0.131119
-0.102805
-0.119394
-0.137626
-0.157081
-0.118927
-0.138078
-0.159698
-0.183538
-0.134465
-0.156272
-0.181488
-0.210106
-0.149193
-0.173684
-0.202606
-0.236285
-0.162865
-0.189977
-0.222593
-0.261455
-0.175216
-0.204778
-0.240918
-0.28487
-0.185983
-0.217697
-0.257002
-0.305673
-0.194917
-0.228351
-0.270258
-0.322951
-0.2018
-0.236398
-0.280135
-0.335808
-0.206455
-0.241555
-0.286165
-0.343452
-0.208762
-0.24363
-0.288024
-0.345306
-0.208693
-0.24257
-0.285609
-0.341135
-0.206337
-0.238494
-0.279087
-0.331144
-0.20184
-0.231636
-0.268835
-0.315939
-0.195356
-0.222272
-0.255351
-0.296385
-0.187129
-0.210799
-0.239295
-0.273598
-0.177606
-0.197847
-0.221595
-0.24901
-0.167225
-0.184062
-0.2032
-0.224049
-0.156162
-0.169788
-0.184679
-0.199598
-0.144553
-0.155159
-0.1662
-0.176164
-0.131519
-0.138997
-0.14627
-0.15192
726.981
681.657
639.05
600.209
477.393
277.141
25.5819
0.484626
0.278901
0.265248
0.323372
0.467134
1.05002
53.0333
397.213
651.48
746.39
924.238
1219.08
755.653
693.123
554.835
306.646
0.603777
-0.109751
0.174833
0.164149
0.157492
0.188485
0.240787
0.327693
0.455
1.06324
21.8363
390.626
808.094
1095.69
1387.31
346.538
141.891
0.405118
-0.072107
0.0996085
0.00409926
0.0742925
0.115696
0.115392
0.111434
0.14828
0.245806
0.411627
0.655009
2.02594
18.8968
646.289
1122.33
1423.46
0.255787
0.273791
0.241765
0.0773523
0.0167102
0.0145059
0.0637141
0.100257
0.0869905
0.0568487
0.0839802
0.195183
0.382947
0.552265
0.962815
3.41502
423.521
1065.84
1375.51
0.312888
0.3451
0.462913
0.376351
0.169468
0.00587178
0.059455
0.0919051
0.0767246
0.0321664
0.0481436
0.163909
0.360175
0.53027
0.839976
1.59794
224.352
999.62
1329.94
0.691945
0.636657
0.569967
0.388351
0.0282013
0.0150328
0.0600715
0.087831
0.0763391
0.0336842
0.0417146
0.150798
0.331199
0.5309
0.938862
1.61079
83.6482
1035.13
1336.43
0.65172
0.409901
0.127146
0.0224314
0.0105242
0.0355432
0.0670533
0.0890285
0.0852304
0.0549191
0.0602242
0.151319
0.302683
0.495196
1.11034
2.35894
118.04
1154.08
1389.54
0.117415
0.094022
0.0711548
0.0504443
0.0447235
0.0571071
0.0771701
0.0960736
0.100505
0.0845281
0.0868118
0.154762
0.262883
0.421006
1.28716
3.61932
184.838
1292.24
1464.27
0.103825
0.0886569
0.0738319
0.0632504
0.0615563
0.0709198
0.0870079
0.105034
0.116049
0.112065
0.11209
0.151459
0.185805
0.167549
1.06959
17.3704
443.598
1466.2
1554.18
0.0881572
0.0792596
0.0711706
0.0671637
0.0693607
0.0787294
0.0937634
0.111983
0.127975
0.133773
0.130276
0.12133
0.0272799
-0.239779
0.631468
355.409
1045.77
1615.18
1654.46
0.0726425
0.0681135
0.0648443
0.0653186
0.0704623
0.0808575
0.0959541
0.114482
0.132666
0.144269
0.138714
0.0850926
-0.111313
-0.520767
1.71958
590.832
1481.23
1644.49
1760.44
0.0569209
0.0551789
0.0551437
0.0585463
0.065947
0.0774796
0.0928755
0.110846
0.128482
0.140432
0.132175
0.0531517
-0.0955874
0.705208
1.1887
70.1256
1319.44
1813.46
1868.47
0.0403125
0.0402864
0.0423367
0.047604
0.0564342
0.0686785
0.0838039
0.100687
0.115533
0.12349
0.108869
0.0240066
-0.0796835
0.986178
2.28787
-0.0941912
668.151
1970.36
1978.59
0.0225727
0.0234404
0.0265985
0.0328053
0.0422517
0.0546211
0.0691252
0.083983
0.0947554
0.0989753
0.0765704
-0.00325366
-0.131448
-0.226902
-0.691725
-0.517383
369.55
2081.11
2091.99
0.00349349
0.00453327
0.00794881
0.0142662
0.0235775
0.0354631
0.0489189
0.0619967
0.0705706
0.0682132
0.0443277
-0.0238065
-0.149147
-0.377537
-0.455486
-0.159057
42.0059
2134.39
2207.66
-0.0170864
-0.0165563
-0.0136554
-0.00800064
0.00045783
0.0112712
0.0233394
0.0347267
0.0414066
0.0367652
0.0153841
-0.037223
-0.11309
-0.23166
-0.267621
-0.131751
0.242802
1445.28
2326.83
-0.039293
-0.0399392
-0.0383027
-0.0340779
-0.0272038
-0.01807
-0.0077108
0.00214648
0.00784906
0.00364852
-0.0123251
-0.0477356
-0.0914085
-0.140344
-0.131195
-0.0431317
0.10494
559.201
2446.61
-0.0632132
-0.0657126
-0.0661056
-0.064122
-0.0596435
-0.052908
-0.0446989
-0.0363977
-0.0309516
-0.0330067
-0.0425021
-0.0606529
-0.0774366
-0.0898675
-0.0554987
0.0223061
0.117652
445.497
2565.44
-0.0888824
-0.0939411
-0.0971818
-0.0983495
-0.0972339
-0.0938356
-0.0885266
-0.082236
-0.0769298
-0.0760084
-0.0785617
-0.0805283
-0.0737986
-0.0645404
-0.0227448
0.0451673
0.121292
523.154
2684.05
-0.116276
-0.124645
-0.131635
-0.137012
-0.140459
-0.14167
-0.140542
-0.137282
-0.132795
-0.128986
-0.12465
-0.111546
-0.0846572
-0.0598342
0.235794
0.0534514
0.191575
619.734
2803.15
-0.145303
-0.157783
-0.169529
-0.180356
-0.189868
-0.197412
-0.202262
-0.203952
-0.202053
-0.196568
-0.186242
-0.16002
-0.114444
0.0343054
0.507679
0.0779874
0.288873
706.151
2923.37
-0.175788
-0.193227
-0.210854
-0.228589
-0.246048
-0.262287
-0.275964
-0.285571
-0.289137
-0.28466
-0.270343
-0.233667
-0.168071
-0.0412735
0.497753
0.448137
0.523817
803.637
3044.51
-0.207446
-0.23073
-0.255473
-0.281813
-0.30955
-0.337581
-0.363932
-0.386311
-0.399871
-0.400954
-0.386513
-0.340992
-0.252276
-0.15733
-0.0108046
1.30018
1.22595
841.21
3166.12
-0.239849
-0.269868
-0.30305
-0.33993
-0.380769
-0.424595
-0.468822
-0.510986
-0.542943
-0.556863
-0.548875
-0.49492
-0.376697
-0.230529
-0.0916627
1.28766
1.59826
850.863
3287.85
-0.272397
-0.309995
-0.352971
-0.402557
-0.45983
-0.524609
-0.593707
-0.66644
-0.730187
-0.769797
-0.779643
-0.717314
-0.554764
-0.339835
-0.126583
0.261367
0.386391
831.241
3409.26
-0.304303
-0.350185
-0.404261
-0.468876
-0.54644
-0.638885
-0.742598
-0.862312
-0.979804
-1.06774
-1.11449
-1.04532
-0.813372
-0.504829
-0.197043
0.00516346
0.312605
804.546
3530.09
-0.334565
-0.389178
-0.455454
-0.537386
-0.639585
-0.768202
-0.920612
-1.1155
-1.33017
-1.49981
-1.59701
-1.52744
-1.18368
-0.74579
-0.313634
-0.0887731
0.309357
774.168
3622.84
-0.361968
-0.425339
-0.504451
-0.605598
-0.736899
-0.91109
-1.13302
-1.44944
-1.82077
-2.11932
-2.33055
-2.21419
-1.69407
-1.08044
-0.472893
-0.212834
0.334606
718.429
3642.64
-0.385135
-0.456692
-0.548463
-0.669727
-0.833458
-1.06167
-1.38281
-1.86804
-2.41067
-2.30967
-3.31057
-3.04595
-2.2855
-1.48526
-0.649775
-0.329875
0.385095
644.535
3746.56
-0.402629
-0.481032
-0.584086
-0.724519
-0.92089
-1.20912
-1.65552
-2.29979
-2.96139
5.75408
5.69545
1.81833
-1.87226
-1.9789
-0.791054
-0.392378
0.488375
669.247
3850.38
-0.413109
-0.496154
-0.607608
-0.763629
-0.988666
-1.33716
-1.89856
-2.63168
2.67755
7.6833
6.14994
6.79164
3.46794
-1.90184
-0.791934
-0.35057
0.667949
840.581
3491.13
-0.415519
-0.500164
-0.615563
-0.780793
-1.02604
-1.42297
-2.06397
2.34965
25.6152
1.87546
-5.10857
-4.486
2.44224
0.939393
-0.982391
-0.24059
58.9089
852.883
488.185
-0.409317
-0.49187
-0.605472
-0.771035
-1.02213
-1.43602
-2.05621
15.2047
25.8501
-6.93385
-7.67228
-7.17123
-4.85805
0.475192
-0.44909
0.94814
141.317
877.442
42.8338
-0.394679
-0.471248
-0.576798
-0.731644
-0.966917
-1.35125
-0.0425084
23.3793
24.5756
-6.9096
-7.68253
-7.24753
-5.32707
-0.912042
0.84549
3.12753
163.773
901.459
44.0504
-0.372509
-0.439631
-0.53128
-0.664518
-0.863166
-1.2166
2.31114
34.7977
23.1962
-6.30934
-7.15026
-6.82442
-5.02456
-2.23517
0.901065
9.61156
655.093
925.976
60.2268
-0.344277
-0.399364
-0.471947
-0.572802
-0.725964
-0.981197
3.41906
48.5929
31.3184
-5.25869
-6.04967
-5.9116
-4.35172
-1.66501
1.81544
50.3419
666.329
522.921
9.43736
-0.311839
-0.353323
-0.404268
-0.469304
-0.568212
-0.713122
0.545718
62.5228
86.1105
-4.16262
-4.89216
-4.93521
-3.45183
0.226556
43.3933
637.922
674.256
14.9199
-0.961944
-0.2775
-0.30541
-0.334775
-0.364694
-0.405002
-0.447802
-0.09399
58.4056
184.652
56.1833
-4.02587
-4.01413
-1.39164
154.072
519.153
653.91
377.55
5.26691
-0.84044
-0.243642
-0.259315
-0.269961
-0.270679
-0.261483
-0.229118
0.110593
24.4796
229.193
276.716
72.3988
68.0501
290.74
479.11
543.074
342.515
5.31921
-0.258872
-0.596146
-0.211958
-0.217681
-0.214333
-0.195337
-0.154733
-0.0865336
0.108346
4.56368
158.194
288.458
316.341
356.571
384.287
426.008
215.017
6.3271
-0.290692
-0.363159
-0.415888
-0.182639
-0.181538
-0.169668
-0.140558
-0.0880157
-0.0224432
0.00731905
0.18394
24.9459
215.324
287.243
301.375
255.058
66.775
4.20774
-0.0453731
-0.227285
-0.222288
-0.254125
-0.153606
-0.148652
-0.133615
-0.103328
-0.0548575
-0.00346611
-0.0246876
-0.214529
-0.862115
2.23348
43.9909
27.7871
0.365082
-0.615746
-0.464902
-0.176733
-0.103051
-0.0824915
-0.0874866
)
;

boundaryField
{
    leftWall
    {
        type            fixedFluxPressure;
        gradient        uniform 0;
        value           nonuniform List<scalar> 
50
(
859.403
859.014
858.181
856.867
854.997
852.447
849.021
844.646
837.174
834.212
805.938
129.077
0.211172
0.178438
0.15465
0.139211
0.123556
0.110573
0.096848
0.0832321
0.0695255
0.0558096
0.0421607
0.028725
0.0155979
0.00283934
-0.00953238
-0.0215037
-0.0330379
-0.044089
-0.0545991
-0.0645051
-0.0737474
-0.0822676
-0.0900127
-0.0969397
-0.103015
-0.10821
-0.112495
-0.115851
-0.118284
-0.119833
-0.120506
-0.120252
-0.119047
-0.116997
-0.114197
-0.110645
-0.106543
-0.100812
)
;
    }
    rightWall
    {
        type            fixedFluxPressure;
        gradient        uniform 0;
        value           nonuniform List<scalar> 
50
(
957.639
941
906.903
869.384
832.34
829.452
903.985
1018.91
1219.08
1387.31
1423.46
1375.51
1329.94
1336.43
1389.54
1464.27
1554.18
1654.46
1760.44
1868.47
1978.59
2091.99
2207.66
2326.83
2446.61
2565.44
2684.05
2803.15
2923.37
3044.51
3166.12
3287.85
3409.26
3530.09
3622.84
3642.64
3746.56
3850.38
3491.13
488.185
42.8338
44.0504
60.2268
9.43736
-0.961944
-0.84044
-0.596146
-0.415888
-0.254125
-0.0874866
)
;
    }
    lowerWall
    {
        type            fixedFluxPressure;
        gradient        uniform 0;
        value           nonuniform List<scalar> 
62
(
859.403
859.7
860.401
861.343
862.226
863.039
863.876
864.858
866.064
867.522
869.225
871.151
873.271
875.54
877.914
880.326
882.675
884.811
886.559
887.771
888.567
889.398
890.436
890.436
890.701
892.142
893.83
894.661
894.629
892.52
886.715
779.181
845.19
835.873
785.894
328.474
330.418
349.202
353.223
351.754
319.159
336.587
482.819
328.474
295.338
235.556
214.599
244.99
287.647
362.487
499.175
624.103
622.38
603.226
663.723
749.092
791.543
797.381
724.037
581.224
677.052
957.639
)
;
    }
    atmosphere
    {
        type            totalPressure;
        rho             rho;
        psi             none;
        gamma           1;
        p0              uniform 0;
        value           nonuniform List<scalar> 
46
(
-0.0952931
-0.101539
-0.101083
-0.101644
-0.102203
-0.102789
-0.103411
-0.104077
-0.104793
-0.105561
-0.106385
-0.107267
-0.108207
-0.109206
-0.110263
-0.111378
-0.112549
-0.113776
-0.11506
-0.116401
-0.117801
-0.11926
-0.120777
-0.124271
-0.129994
-0.13526
-0.138852
-0.138674
-0.133033
-0.118948
-0.0924752
-0.0515261
-0.00702071
0
0
0
0
0
0
0
0
0
0
0
0
-0.00218395
)
;
    }
    defaultFaces
    {
        type            empty;
    }
}


// ************************************************************************* //
