/*--------------------------------*- C++ -*----------------------------------*\
| =========                 |                                                 |
| \\      /  F ield         | OpenFOAM: The Open Source CFD Toolbox           |
|  \\    /   O peration     | Version:  2206                                  |
|   \\  /    A nd           | Website:  www.openfoam.com                      |
|    \\/     M anipulation  |                                                 |
\*---------------------------------------------------------------------------*/
FoamFile
{
    version     2.0;
    format      ascii;
    arch        "LSB;label=32;scalar=64";
    class       surfaceScalarField;
    location    "0.55";
    object      phi;
}
// * * * * * * * * * * * * * * * * * * * * * * * * * * * * * * * * * * * * * //

dimensions      [0 3 -1 0 0 0 0];

oriented        oriented;

internalField   nonuniform List<scalar> 
4432
(
-8.32793e-07
8.32793e-07
-5.78889e-07
-2.53906e-07
4.068e-07
-9.8569e-07
1.72025e-06
-1.31345e-06
3.03997e-06
-1.31973e-06
4.1733e-06
-1.13333e-06
5.03757e-06
-8.64269e-07
5.63127e-06
-5.93698e-07
5.9985e-06
-3.67237e-07
6.19505e-06
-1.96551e-07
6.26281e-06
-6.77607e-08
6.22224e-06
4.05715e-08
6.05154e-06
1.70696e-07
5.70906e-06
3.42487e-07
5.13266e-06
5.76399e-07
4.25442e-06
8.78234e-07
3.02609e-06
1.22833e-06
1.47606e-06
1.55003e-06
-2.46292e-07
1.72235e-06
-1.82054e-06
1.57425e-06
-2.60231e-06
7.81769e-07
-1.99655e-06
-6.05758e-07
-1.99655e-06
-8.93418e-07
1.72621e-06
-6.58889e-07
-4.88435e-07
3.12893e-07
-1.95747e-06
1.64661e-06
-2.64717e-06
3.01557e-06
-2.68868e-06
4.21177e-06
-2.32953e-06
5.1364e-06
-1.7889e-06
5.77899e-06
-1.23629e-06
6.18334e-06
-7.71586e-07
6.41344e-06
-4.26659e-07
6.53161e-06
-1.85933e-07
6.57678e-06
-4.59881e-09
6.58617e-06
1.61312e-07
6.5717e-06
3.56957e-07
6.52126e-06
6.26836e-07
6.38683e-06
1.01266e-06
6.06698e-06
1.54818e-06
5.43901e-06
2.17801e-06
4.42103e-06
2.74032e-06
3.1076e-06
2.88768e-06
1.68114e-06
2.20823e-06
3.73256e-07
7.02123e-07
-1.62329e-06
-9.63826e-07
2.69004e-06
-8.22826e-07
-6.29437e-07
1.11125e-07
-2.89143e-06
1.45659e-06
-3.99263e-06
2.87974e-06
-4.11184e-06
4.15139e-06
-3.60118e-06
5.14958e-06
-2.78709e-06
5.84878e-06
-1.93549e-06
6.28927e-06
-1.21208e-06
6.5393e-06
-6.76688e-07
6.66309e-06
-3.0972e-07
6.70821e-06
-4.97197e-08
6.70209e-06
1.67432e-07
6.65537e-06
4.03675e-07
6.58318e-06
6.99022e-07
6.51201e-06
1.08383e-06
6.47315e-06
1.58704e-06
6.43231e-06
2.21885e-06
6.23986e-06
2.93277e-06
5.60049e-06
3.52706e-06
4.21189e-06
3.59683e-06
2.25759e-06
2.65642e-06
6.34292e-07
-1.07544e-06
3.76547e-06
-1.03654e-06
-6.6834e-07
-1.31698e-07
-3.79626e-06
1.2094e-06
-5.33373e-06
2.68533e-06
-5.58778e-06
4.03606e-06
-4.9519e-06
5.11956e-06
-3.87059e-06
5.89468e-06
-2.71062e-06
6.39323e-06
-1.71063e-06
6.68403e-06
-9.67489e-07
6.84008e-06
-4.65771e-07
6.91934e-06
-1.28981e-07
6.95031e-06
1.36465e-07
6.94829e-06
4.05697e-07
6.90986e-06
7.37452e-07
6.82969e-06
1.164e-06
6.7199e-06
1.69683e-06
6.60186e-06
2.33688e-06
6.4498e-06
3.08484e-06
6.06072e-06
3.91613e-06
5.00679e-06
4.65076e-06
2.91052e-06
4.7527e-06
3.54481e-06
-1.22168e-06
4.98715e-06
-1.31294e-06
-5.77079e-07
-5.26203e-07
-4.583e-06
7.89283e-07
-6.64921e-06
2.36234e-06
-7.16083e-06
3.81852e-06
-6.40809e-06
4.99165e-06
-5.04372e-06
5.84806e-06
-3.56703e-06
6.42221e-06
-2.28478e-06
6.78043e-06
-1.32572e-06
6.99588e-06
-6.81218e-07
7.12973e-06
-2.62836e-07
7.22286e-06
4.334e-08
7.29045e-06
3.38105e-07
7.33096e-06
6.96945e-07
7.32581e-06
1.16915e-06
7.24409e-06
1.77855e-06
7.05244e-06
2.52853e-06
6.72602e-06
3.41126e-06
6.20319e-06
4.43895e-06
5.21522e-06
5.63873e-06
3.22106e-06
6.74686e-06
6.76587e-06
-1.41998e-06
6.40713e-06
-1.78685e-06
-2.1021e-07
-1.35803e-06
-5.01183e-06
-1.17972e-07
-7.88927e-06
1.68038e-06
-8.95919e-06
3.37686e-06
-8.10456e-06
4.69882e-06
-6.36569e-06
5.65107e-06
-4.51929e-06
6.31363e-06
-2.94733e-06
6.76527e-06
-1.77736e-06
7.07514e-06
-9.91092e-07
7.30102e-06
-4.88711e-07
7.48467e-06
-1.40317e-07
7.64929e-06
1.73484e-07
7.79266e-06
5.53581e-07
7.90149e-06
1.06032e-06
7.93573e-06
1.74431e-06
7.82939e-06
2.63486e-06
7.48955e-06
3.75111e-06
6.81767e-06
5.11083e-06
5.64527e-06
6.81113e-06
3.48433e-06
8.9078e-06
1.02502e-05
-1.66439e-06
8.07153e-06
-2.53143e-06
6.56826e-07
-2.68078e-06
-4.86248e-06
-1.61582e-06
-8.95424e-06
4.44388e-07
-1.10194e-05
2.52909e-06
-1.01893e-05
4.12825e-06
-7.96485e-06
5.24025e-06
-5.63129e-06
6.01787e-06
-3.72495e-06
6.58712e-06
-2.3466e-06
7.02649e-06
-1.43046e-06
7.38809e-06
-8.50318e-07
7.70886e-06
-4.6108e-07
8.00772e-06
-1.25374e-07
8.29349e-06
2.67809e-07
8.55666e-06
7.97144e-07
8.76411e-06
1.53686e-06
8.85697e-06
2.54201e-06
8.72299e-06
3.88508e-06
8.22393e-06
5.6099e-06
7.133e-06
7.90205e-06
5.16898e-06
1.08718e-05
1.54192e-05
-1.76826e-06
9.83979e-06
-2.97018e-06
1.85874e-06
-3.55152e-06
-4.28114e-06
-2.73648e-06
-9.76928e-06
-7.47832e-07
-1.3008e-05
1.5123e-06
-1.24494e-05
3.36198e-06
-9.81453e-06
4.66529e-06
-6.9346e-06
5.57574e-06
-4.6354e-06
6.26643e-06
-3.03729e-06
6.84416e-06
-2.00819e-06
7.36317e-06
-1.36933e-06
7.85285e-06
-9.50764e-07
8.332e-06
-6.04518e-07
8.81001e-06
-2.10206e-07
9.28177e-06
3.25383e-07
9.72852e-06
1.09011e-06
1.01043e-05
2.16619e-06
1.02933e-05
3.69608e-06
1.00962e-05
5.807e-06
8.99901e-06
8.99928e-06
6.4718e-06
1.3399e-05
2.1891e-05
1.42168e-05
-1.42168e-05
-5.04563e-05
6.46731e-05
-0.000105394
5.49377e-05
-0.000111165
5.77118e-06
-9.12557e-05
-1.99095e-05
-6.60346e-05
-2.52211e-05
-3.73671e-05
-2.86675e-05
5.84182e-06
-4.32089e-05
4.49814e-05
-3.91396e-05
6.21822e-05
-1.72007e-05
5.61274e-05
6.0548e-06
2.84883e-05
2.76391e-05
-4.80593e-06
3.32942e-05
-2.05987e-05
1.57928e-05
-2.47388e-05
4.14008e-06
-4.36923e-05
1.89536e-05
-6.33452e-05
1.96529e-05
-5.04618e-05
-1.28834e-05
-5.04618e-05
-3.30298e-05
1.88129e-05
-9.3046e-05
0.000124689
-0.000122892
8.47839e-05
-0.000100846
-1.62746e-05
-6.21633e-05
-5.85926e-05
-2.48604e-05
-6.25239e-05
2.28567e-05
-7.63846e-05
6.66955e-05
-8.70477e-05
9.04393e-05
-6.28834e-05
0.000100142
-2.69037e-05
9.89653e-05
7.23181e-06
8.32012e-05
4.34032e-05
4.72055e-05
6.929e-05
5.49618e-07
6.24486e-05
-3.37681e-05
3.84578e-05
-5.31824e-05
3.83678e-05
-5.8755e-05
2.52255e-05
-4.16655e-05
-2.99729e-05
-9.21273e-05
-4.79136e-05
6.67266e-05
-7.08692e-05
0.000147645
-3.33745e-05
4.72893e-05
7.86961e-06
-5.75186e-05
2.31882e-05
-7.39113e-05
5.14752e-05
-9.08109e-05
8.03918e-05
-0.000105301
9.57499e-05
-0.000102406
0.000106047
-7.31804e-05
0.000110663
-3.15199e-05
0.000109597
8.29817e-06
0.000103653
4.93464e-05
8.34832e-05
8.94602e-05
3.97099e-05
0.000106222
-9.98153e-06
8.81492e-05
-4.03504e-05
6.87367e-05
-5.03016e-05
3.51767e-05
-3.64056e-05
-4.38688e-05
-0.000128533
-1.78233e-05
8.45499e-05
2.268e-06
0.000127554
4.12695e-05
8.28783e-06
5.94895e-05
-7.57385e-05
7.54549e-05
-8.98767e-05
8.90696e-05
-0.000104426
9.7584e-05
-0.000113815
0.000104363
-0.000109185
0.000111492
-8.03097e-05
0.000114854
-3.48811e-05
0.000113679
9.47263e-06
0.00010938
5.36456e-05
9.98896e-05
9.89505e-05
7.27836e-05
0.000133328
2.64502e-05
0.000134483
-1.61104e-05
0.000111297
-3.73062e-05
5.63725e-05
-2.96975e-05
-5.14775e-05
-0.00015823
6.31123e-06
7.82387e-05
6.24302e-05
7.14346e-05
9.34101e-05
-2.2692e-05
8.92602e-05
-7.15885e-05
9.17814e-05
-9.23979e-05
9.56928e-05
-0.000108337
0.000101697
-0.00011982
0.000109539
-0.000117026
0.000116954
-8.77255e-05
0.000119707
-3.76337e-05
0.000118522
1.06579e-05
0.000112835
5.93322e-05
0.00010622
0.000105566
9.20323e-05
0.000147516
5.94397e-05
0.000167075
1.92096e-05
0.000151527
-1.3419e-05
8.90012e-05
-1.63739e-05
-4.85226e-05
-0.000174604
2.81471e-05
5.00916e-05
7.93832e-05
2.01984e-05
8.84449e-05
-3.17537e-05
8.76763e-05
-7.08199e-05
9.08351e-05
-9.55567e-05
9.73893e-05
-0.000114891
0.000105611
-0.000128041
0.000113488
-0.000124903
0.000119314
-9.35519e-05
0.000121609
-3.99286e-05
0.000120522
1.17452e-05
0.000114823
6.5031e-05
0.000108315
0.000112074
0.000101145
0.000154686
8.3083e-05
0.000185137
5.36496e-05
0.000180961
2.20285e-05
0.000120622
4.75268e-06
-3.12467e-05
-0.000169852
2.49834e-05
2.51082e-05
5.79206e-05
-1.27387e-05
7.47137e-05
-4.85469e-05
8.4318e-05
-8.04242e-05
9.21717e-05
-0.00010341
0.000100513
-0.000123233
0.000108277
-0.000135805
0.000113137
-0.000129763
0.000113896
-9.43111e-05
0.000112662
-3.86945e-05
0.000109234
1.51727e-05
0.000109808
6.44573e-05
0.000106234
0.000115647
0.000103627
0.000157292
9.59413e-05
0.000192823
7.75073e-05
0.000199395
5.12547e-05
0.000146875
2.03457e-05
-3.37728e-07
-0.000149506
3.97889e-05
-1.46807e-05
6.3356e-05
-3.63058e-05
7.80277e-05
-6.32186e-05
8.73366e-05
-8.97331e-05
9.48532e-05
-0.000110927
0.000102695
-0.000131075
0.000107834
-0.000140944
0.000106923
-0.000128852
0.00010349
-9.08783e-05
0.000101332
-3.65366e-05
0.000101457
1.50478e-05
0.000100031
6.58832e-05
9.57691e-05
0.00011991
0.000101135
0.000151927
0.000100985
0.000192974
9.24789e-05
0.0002079
7.2716e-05
0.000166638
3.67973e-05
3.5581e-05
-0.000112709
-1.55917e-06
1.1399e-05
-3.04832e-06
3.34789e-06
-3.00809e-06
-4.32138e-06
-1.62893e-06
-1.11484e-05
3.23944e-07
-1.49609e-05
3.02928e-06
-1.51547e-05
6.02504e-06
-1.28103e-05
8.61143e-06
-9.521e-06
1.06666e-05
-6.6906e-06
1.2412e-05
-4.78263e-06
1.40379e-05
-3.63411e-06
1.56353e-05
-2.96671e-06
1.7239e-05
-2.55445e-06
1.8871e-05
-2.23652e-06
2.05603e-05
-1.89953e-06
2.23472e-05
-1.46152e-06
2.43008e-05
-8.63517e-07
2.6545e-05
-7.80446e-08
2.9235e-05
1.00612e-06
3.27474e-05
2.29461e-06
3.76777e-05
4.06899e-06
4.5713e-05
5.36376e-06
9.9894e-06
5.76145e-05
6.06714e-06
5.33182e-06
1.13475e-05
-1.93249e-06
1.57034e-05
-8.67729e-06
1.55723e-05
-1.10173e-05
1.19324e-05
-1.1321e-05
8.51512e-06
-1.17375e-05
7.49277e-06
-1.17879e-05
8.22522e-06
-1.02535e-05
9.75398e-06
-8.21936e-06
1.16615e-05
-6.69011e-06
1.37858e-05
-5.75839e-06
1.60362e-05
-5.21715e-06
1.83572e-05
-4.87546e-06
2.0734e-05
-4.61335e-06
2.31978e-05
-4.36324e-06
2.58226e-05
-4.08632e-06
2.87194e-05
-3.76036e-06
3.20195e-05
-3.37819e-06
3.59472e-05
-2.92159e-06
4.06956e-05
-2.45372e-06
4.65771e-05
-1.81255e-06
5.35865e-05
-1.64561e-06
-1.92016e-07
6.37679e-05
1.57351e-05
-1.04033e-05
3.35264e-05
-1.97238e-05
3.99716e-05
-1.51224e-05
3.4335e-05
-5.38066e-06
2.48029e-05
-1.78897e-06
1.68477e-05
-3.78227e-06
1.16755e-05
-6.61571e-06
9.33448e-06
-7.91245e-06
9.45378e-06
-8.33866e-06
1.11266e-05
-8.36292e-06
1.35346e-05
-8.16642e-06
1.62073e-05
-7.88987e-06
1.89363e-05
-7.6044e-06
2.16629e-05
-7.33997e-06
2.44124e-05
-7.11275e-06
2.72578e-05
-6.93169e-06
3.02964e-05
-6.79898e-06
3.36315e-05
-6.71329e-06
3.73903e-05
-6.68037e-06
4.16954e-05
-6.75884e-06
4.68893e-05
-7.00647e-06
5.29824e-05
-7.73864e-06
-8.42742e-06
6.12178e-05
2.4729e-05
-3.51323e-05
2.95568e-05
-2.45516e-05
1.2129e-05
2.30544e-06
4.51834e-06
2.22995e-06
8.21218e-06
-5.48282e-06
1.52547e-05
-1.08248e-05
1.37391e-05
-5.1001e-06
9.69049e-06
-3.86389e-06
8.02442e-06
-6.67259e-06
8.89927e-06
-9.23777e-06
1.1026e-05
-1.02931e-05
1.36828e-05
-1.05467e-05
1.65171e-05
-1.04387e-05
1.93883e-05
-1.02112e-05
2.23018e-05
-1.00262e-05
2.53357e-05
-9.96552e-06
2.85937e-05
-1.0057e-05
3.21625e-05
-1.02821e-05
3.60583e-05
-1.05762e-05
4.02525e-05
-1.0953e-05
4.50282e-05
-1.17822e-05
5.10821e-05
-1.37925e-05
-1.68649e-05
5.95196e-05
-2.13345e-05
-1.37979e-05
-4.35482e-05
-2.33743e-06
-3.1455e-05
-9.78737e-06
-6.20394e-06
-2.30208e-05
7.833e-06
-1.95195e-05
9.3303e-06
-1.23217e-05
1.26646e-05
-8.43406e-06
1.50862e-05
-6.28519e-06
1.63738e-05
-7.95993e-06
1.72779e-05
-1.01417e-05
1.82618e-05
-1.1277e-05
1.94993e-05
-1.17842e-05
2.12574e-05
-1.21969e-05
2.36497e-05
-1.26037e-05
2.66291e-05
-1.30059e-05
3.00994e-05
-1.3436e-05
3.39944e-05
-1.39522e-05
3.8322e-05
-1.46099e-05
4.32062e-05
-1.54606e-05
4.8624e-05
-1.63709e-05
5.41892e-05
-1.73474e-05
5.87545e-05
-1.83578e-05
-2.02569e-05
6.21465e-05
-1.64168e-05
2.61885e-06
-1.8895e-05
1.40508e-07
-1.01667e-05
-1.85159e-05
-8.22793e-06
-2.49597e-05
-7.23391e-06
-2.05136e-05
-4.0293e-06
-1.55264e-05
1.96008e-06
-1.44235e-05
8.98337e-06
-1.33085e-05
1.42596e-05
-1.32362e-05
1.77968e-05
-1.36788e-05
2.06533e-05
-1.41334e-05
2.33917e-05
-1.45226e-05
2.61477e-05
-1.49528e-05
2.90192e-05
-1.5475e-05
3.20954e-05
-1.60819e-05
3.54639e-05
-1.68042e-05
3.91983e-05
-1.76864e-05
4.33179e-05
-1.87292e-05
4.77415e-05
-1.98839e-05
5.24086e-05
-2.10377e-05
5.70942e-05
-2.20327e-05
6.13763e-05
-2.26396e-05
-2.35259e-05
6.46454e-05
2.63522e-06
-1.58987e-08
1.25887e-05
-9.81237e-06
1.13023e-05
-1.72291e-05
4.91148e-06
-1.85684e-05
2.85732e-06
-1.84591e-05
5.13228e-06
-1.7801e-05
7.58429e-06
-1.68752e-05
1.05058e-05
-1.62298e-05
1.32494e-05
-1.59796e-05
1.56287e-05
-1.60582e-05
1.78195e-05
-1.63242e-05
1.99961e-05
-1.66994e-05
2.22236e-05
-1.71806e-05
2.45608e-05
-1.78126e-05
2.71449e-05
-1.86663e-05
3.01509e-05
-1.98105e-05
3.3706e-05
-2.12419e-05
3.7806e-05
-2.28293e-05
4.23623e-05
-2.44403e-05
4.72863e-05
-2.59618e-05
5.23645e-05
-2.71108e-05
5.72367e-05
-2.75118e-05
-2.78238e-05
6.15347e-05
-5.7239e-08
4.12143e-08
4.58463e-06
-1.44543e-05
6.57683e-06
-1.92213e-05
7.55719e-06
-1.95487e-05
7.71335e-06
-1.86151e-05
7.77009e-06
-1.78576e-05
8.53301e-06
-1.76378e-05
9.947e-06
-1.76435e-05
1.16714e-05
-1.77038e-05
1.34628e-05
-1.78492e-05
1.52345e-05
-1.80957e-05
1.69847e-05
-1.84493e-05
1.87611e-05
-1.89568e-05
2.06707e-05
-1.9722e-05
2.28712e-05
-2.08667e-05
2.54863e-05
-2.24254e-05
2.84956e-05
-2.42511e-05
3.17466e-05
-2.60802e-05
3.5379e-05
-2.80725e-05
3.94217e-05
-3.00044e-05
4.35933e-05
-3.12824e-05
4.76312e-05
-3.15496e-05
-3.10608e-05
5.08682e-05
1.98832e-06
-1.94692e-06
3.82368e-06
-1.62895e-05
4.52632e-06
-1.99238e-05
4.58567e-06
-1.96079e-05
5.27729e-06
-1.93065e-05
6.59101e-06
-1.91711e-05
8.02867e-06
-1.90754e-05
9.42679e-06
-1.90415e-05
1.0797e-05
-1.90739e-05
1.21241e-05
-1.91764e-05
1.33903e-05
-1.9362e-05
1.46024e-05
-1.96615e-05
1.58019e-05
-2.01565e-05
1.70683e-05
-2.09885e-05
1.84738e-05
-2.22723e-05
1.99863e-05
-2.3938e-05
2.14385e-05
-2.57032e-05
2.27581e-05
-2.73998e-05
2.46188e-05
-2.99331e-05
2.70369e-05
-3.24225e-05
2.94176e-05
-3.36631e-05
3.14202e-05
-3.35524e-05
-3.18527e-05
3.2212e-05
2.32502e-06
-4.27193e-06
3.92578e-06
-1.78902e-05
4.84611e-06
-2.08441e-05
5.6309e-06
-2.03925e-05
6.38771e-06
-2.00631e-05
7.22693e-06
-2.001e-05
8.15643e-06
-2.00045e-05
9.12768e-06
-2.00124e-05
1.01004e-05
-2.00463e-05
1.1036e-05
-2.01117e-05
1.19002e-05
-2.02259e-05
1.26754e-05
-2.04366e-05
1.33581e-05
-2.08391e-05
1.39343e-05
-2.15646e-05
1.4337e-05
-2.26748e-05
1.44325e-05
-2.40335e-05
1.41123e-05
-2.53829e-05
1.35773e-05
-2.68647e-05
1.37347e-05
-3.00906e-05
1.40473e-05
-3.27352e-05
1.40846e-05
-3.37005e-05
1.36e-05
-3.3068e-05
-3.03307e-05
1.20778e-05
2.28531e-06
-6.5572e-06
3.80627e-06
-1.94111e-05
4.56402e-06
-2.16018e-05
5.30699e-06
-2.11354e-05
6.12359e-06
-2.08796e-05
6.96585e-06
-2.08522e-05
7.82204e-06
-2.08606e-05
8.67505e-06
-2.08654e-05
9.49714e-06
-2.08684e-05
1.02604e-05
-2.08749e-05
1.09409e-05
-2.09065e-05
1.15124e-05
-2.1008e-05
1.19231e-05
-2.12497e-05
1.20726e-05
-2.17141e-05
1.18271e-05
-2.24292e-05
1.11011e-05
-2.33074e-05
9.94627e-06
-2.42281e-05
8.59644e-06
-2.55149e-05
7.13843e-06
-2.86326e-05
5.38123e-06
-3.09781e-05
3.63255e-06
-3.1952e-05
1.78879e-06
-3.12244e-05
-2.84745e-05
-6.75138e-08
2.1941e-06
-8.75126e-06
3.55491e-06
-2.07718e-05
4.28136e-06
-2.23281e-05
5.03723e-06
-2.18911e-05
5.87411e-06
-2.17162e-05
6.72539e-06
-2.17032e-05
7.56875e-06
-2.17037e-05
8.39571e-06
-2.1692e-05
9.19325e-06
-2.16656e-05
9.94698e-06
-2.16284e-05
1.06427e-05
-2.16019e-05
1.12547e-05
-2.162e-05
1.17207e-05
-2.17156e-05
1.19293e-05
-2.19225e-05
1.17671e-05
-2.2267e-05
1.12095e-05
-2.27498e-05
1.03371e-05
-2.33556e-05
9.1481e-06
-2.43259e-05
6.81331e-06
-2.62979e-05
4.11791e-06
-2.82829e-05
1.8225e-06
-2.96568e-05
-1.4192e-07
-2.92603e-05
-2.74221e-05
-1.19445e-06
2.00663e-06
-1.07579e-05
3.20582e-06
-2.19711e-05
3.96344e-06
-2.30857e-05
4.77885e-06
-2.27065e-05
5.6476e-06
-2.2585e-05
6.52031e-06
-2.25759e-05
7.387e-06
-2.25703e-05
8.24754e-06
-2.25525e-05
9.09984e-06
-2.25179e-05
9.9395e-06
-2.24679e-05
1.07593e-05
-2.24217e-05
1.15453e-05
-2.24058e-05
1.22633e-05
-2.24336e-05
1.28499e-05
-2.2509e-05
1.32324e-05
-2.26494e-05
1.33737e-05
-2.2891e-05
1.32811e-05
-2.32629e-05
1.2814e-05
-2.38588e-05
1.13076e-05
-2.47916e-05
9.16263e-06
-2.6138e-05
7.08763e-06
-2.7582e-05
5.50867e-06
-2.76815e-05
-2.70292e-05
5.11558e-06
1.77528e-06
-1.25331e-05
2.86896e-06
-2.30646e-05
3.67658e-06
-2.38932e-05
4.54067e-06
-2.35704e-05
5.44088e-06
-2.3485e-05
6.34703e-06
-2.34818e-05
7.25577e-06
-2.34789e-05
8.16988e-06
-2.34664e-05
9.09255e-06
-2.34404e-05
1.00248e-05
-2.34e-05
1.09635e-05
-2.33603e-05
1.19046e-05
-2.33467e-05
1.2844e-05
-2.33729e-05
1.3767e-05
-2.34319e-05
1.46356e-05
-2.3518e-05
1.53929e-05
-2.36482e-05
1.59881e-05
-2.38582e-05
1.63153e-05
-2.41861e-05
1.61752e-05
-2.46515e-05
1.53789e-05
-2.53417e-05
1.40585e-05
-2.62618e-05
1.30463e-05
-2.66694e-05
-2.67135e-05
1.27306e-05
1.55596e-06
-1.40892e-05
2.58484e-06
-2.40936e-05
3.44013e-06
-2.47486e-05
4.34384e-06
-2.44742e-05
5.27285e-06
-2.44141e-05
6.20936e-06
-2.44183e-05
7.15324e-06
-2.44227e-05
8.10819e-06
-2.44213e-05
9.07907e-06
-2.44111e-05
1.0069e-05
-2.43897e-05
1.10751e-05
-2.43663e-05
1.20923e-05
-2.43638e-05
1.31225e-05
-2.4403e-05
1.41731e-05
-2.44825e-05
1.52377e-05
-2.45825e-05
1.62789e-05
-2.46895e-05
1.72371e-05
-2.48165e-05
1.80448e-05
-2.49937e-05
1.86338e-05
-2.52406e-05
1.8863e-05
-2.5571e-05
1.85997e-05
-2.59984e-05
1.82973e-05
-2.6367e-05
-2.65856e-05
1.81694e-05
1.37369e-06
-1.54628e-05
2.36892e-06
-2.50888e-05
3.26237e-06
-2.5642e-05
4.19419e-06
-2.5406e-05
5.1445e-06
-2.53644e-05
6.1028e-06
-2.53766e-05
7.06998e-06
-2.53898e-05
8.04901e-06
-2.54002e-05
9.04404e-06
-2.5406e-05
1.00584e-05
-2.54039e-05
1.10891e-05
-2.5397e-05
1.21267e-05
-2.54014e-05
1.31638e-05
-2.54401e-05
1.42047e-05
-2.55236e-05
1.52599e-05
-2.56378e-05
1.63261e-05
-2.57556e-05
1.73711e-05
-2.58616e-05
1.83425e-05
-2.59652e-05
1.91916e-05
-2.60897e-05
1.98699e-05
-2.62492e-05
2.03137e-05
-2.64421e-05
2.05974e-05
-2.66506e-05
-2.68294e-05
2.08412e-05
1.23571e-06
-1.66986e-05
2.21892e-06
-2.60721e-05
3.14164e-06
-2.65648e-05
4.09277e-06
-2.63571e-05
5.05763e-06
-2.63292e-05
6.03002e-06
-2.63489e-05
7.01073e-06
-2.63704e-05
8.00155e-06
-2.63909e-05
9.00518e-06
-2.64095e-05
1.00246e-05
-2.64232e-05
1.10587e-05
-2.64309e-05
1.20974e-05
-2.64401e-05
1.31259e-05
-2.64686e-05
1.41363e-05
-2.65341e-05
1.51358e-05
-2.66374e-05
1.61374e-05
-2.67574e-05
1.71412e-05
-2.68654e-05
1.81238e-05
-2.69479e-05
1.90499e-05
-2.70156e-05
1.98914e-05
-2.70907e-05
2.06324e-05
-2.7183e-05
2.12689e-05
-2.7287e-05
-2.73839e-05
2.18235e-05
1.14087e-06
-1.78394e-05
2.12468e-06
-2.70559e-05
3.06897e-06
-2.75091e-05
4.03321e-06
-2.73214e-05
5.00748e-06
-2.73035e-05
5.98802e-06
-2.73294e-05
6.97537e-06
-2.73577e-05
7.97044e-06
-2.73858e-05
8.97469e-06
-2.74136e-05
9.99043e-06
-2.74389e-05
1.10185e-05
-2.7459e-05
1.20533e-05
-2.7475e-05
1.30809e-05
-2.74963e-05
1.4086e-05
-2.75394e-05
1.5064e-05
-2.76156e-05
1.60251e-05
-2.77186e-05
1.69837e-05
-2.78241e-05
1.79426e-05
-2.79069e-05
1.88871e-05
-2.796e-05
1.97945e-05
-2.7998e-05
2.0651e-05
-2.80394e-05
2.14516e-05
-2.80876e-05
-2.81295e-05
2.21972e-05
1.0833e-06
-1.89227e-05
2.07236e-06
-2.8045e-05
3.03078e-06
-2.84675e-05
4.00304e-06
-2.82936e-05
4.98246e-06
-2.82829e-05
5.96647e-06
-2.83134e-05
6.95551e-06
-2.83466e-05
7.95018e-06
-2.83804e-05
8.95118e-06
-2.84145e-05
9.96002e-06
-2.84476e-05
1.09785e-05
-2.84775e-05
1.20056e-05
-2.85022e-05
1.30334e-05
-2.85243e-05
1.4048e-05
-2.85542e-05
1.50376e-05
-2.86054e-05
1.60026e-05
-2.86837e-05
1.69554e-05
-2.87771e-05
1.79095e-05
-2.88609e-05
1.88663e-05
-2.89167e-05
1.98143e-05
-2.89459e-05
2.07397e-05
-2.89646e-05
2.16365e-05
-2.89843e-05
-2.89997e-05
2.25068e-05
1.05413e-06
-1.99769e-05
2.04689e-06
-2.90378e-05
3.01187e-06
-2.94325e-05
3.98696e-06
-2.92688e-05
4.96725e-06
-2.92632e-05
5.95057e-06
-2.92967e-05
6.93739e-06
-2.93334e-05
7.92832e-06
-2.93712e-05
8.92392e-06
-2.941e-05
9.92515e-06
-2.94488e-05
1.09337e-05
-2.94861e-05
1.1951e-05
-2.95196e-05
1.29748e-05
-2.95484e-05
1.39968e-05
-2.95764e-05
1.50055e-05
-2.96143e-05
1.59944e-05
-2.96728e-05
1.6969e-05
-2.97518e-05
1.79427e-05
-2.98346e-05
1.89251e-05
-2.9899e-05
1.99147e-05
-2.99354e-05
2.09027e-05
-2.99526e-05
2.18825e-05
-2.99641e-05
-2.99716e-05
2.28545e-05
1.0423e-06
-2.10192e-05
2.03337e-06
-3.00288e-05
2.99754e-06
-3.03967e-05
3.97026e-06
-3.02415e-05
4.94692e-06
-3.02398e-05
5.92551e-06
-3.02752e-05
6.90659e-06
-3.03144e-05
7.89093e-06
-3.03555e-05
8.87926e-06
-3.03983e-05
9.87247e-06
-3.04421e-05
1.0872e-05
-3.04857e-05
1.18797e-05
-3.05276e-05
1.28967e-05
-3.05656e-05
1.39198e-05
-3.05998e-05
1.49412e-05
-3.06359e-05
1.59531e-05
-3.06848e-05
1.69553e-05
-3.0754e-05
1.79575e-05
-3.08368e-05
1.89721e-05
-3.09136e-05
2.00041e-05
-3.09674e-05
2.10497e-05
-3.09982e-05
2.21033e-05
-3.10177e-05
-3.10319e-05
2.31636e-05
1.03782e-06
-2.2057e-05
2.02018e-06
-3.10113e-05
2.97671e-06
-3.13532e-05
3.94181e-06
-3.12066e-05
4.91018e-06
-3.12082e-05
5.87991e-06
-3.12449e-05
6.85172e-06
-3.12861e-05
7.82658e-06
-3.13303e-05
8.80543e-06
-3.13772e-05
9.78933e-06
-3.14261e-05
1.07796e-05
-3.14761e-05
1.17782e-05
-3.15264e-05
1.27872e-05
-3.15748e-05
1.38069e-05
-3.16197e-05
1.48334e-05
-3.16626e-05
1.58604e-05
-3.17119e-05
1.68847e-05
-3.17784e-05
1.79121e-05
-3.18643e-05
1.89547e-05
-3.19562e-05
2.00218e-05
-3.20345e-05
2.11142e-05
-3.20905e-05
2.22278e-05
-3.21314e-05
-3.21649e-05
2.33608e-05
1.03341e-06
-2.30905e-05
1.99997e-06
-3.19779e-05
2.94262e-06
-3.2296e-05
3.89487e-06
-3.21589e-05
4.85025e-06
-3.21636e-05
5.80691e-06
-3.22016e-05
6.76575e-06
-3.2245e-05
7.72789e-06
-3.22924e-05
8.69446e-06
-3.23438e-05
9.66672e-06
-3.23984e-05
1.0646e-05
-3.24556e-05
1.16342e-05
-3.25148e-05
1.26337e-05
-3.25745e-05
1.36463e-05
-3.26325e-05
1.46717e-05
-3.26881e-05
1.57058e-05
-3.2746e-05
1.67445e-05
-3.28171e-05
1.779e-05
-3.29099e-05
1.88527e-05
-3.30189e-05
1.99441e-05
-3.31259e-05
2.10693e-05
-3.32157e-05
2.22268e-05
-3.3289e-05
-3.33528e-05
2.34147e-05
1.02479e-06
-2.41152e-05
1.96822e-06
-3.29213e-05
2.89115e-06
-3.32189e-05
3.8254e-06
-3.30932e-05
4.76313e-06
-3.31014e-05
5.70244e-06
-3.31409e-05
6.64434e-06
-3.31869e-05
7.59006e-06
-3.32381e-05
8.54089e-06
-3.32946e-05
9.49821e-06
-3.33558e-05
1.04635e-05
-3.34211e-05
1.14385e-05
-3.349e-05
1.24256e-05
-3.35617e-05
1.34273e-05
-3.36345e-05
1.44455e-05
-3.37065e-05
1.54788e-05
-3.37794e-05
1.65238e-05
-3.38621e-05
1.75799e-05
-3.39661e-05
1.86545e-05
-3.40936e-05
1.97594e-05
-3.42309e-05
2.09031e-05
-3.43595e-05
2.20874e-05
-3.44733e-05
-3.45764e-05
2.3311e-05
1.00966e-06
-2.51249e-05
1.92171e-06
-3.38335e-05
2.8192e-06
-3.41165e-05
3.73037e-06
-3.40045e-05
4.64571e-06
-3.40167e-05
5.56313e-06
-3.40583e-05
6.48373e-06
-3.41074e-05
7.40879e-06
-3.41632e-05
8.33969e-06
-3.42256e-05
9.27789e-06
-3.42941e-05
1.0225e-05
-3.43684e-05
1.11827e-05
-3.4448e-05
1.21533e-05
-3.45325e-05
1.31395e-05
-3.46209e-05
1.41443e-05
-3.47114e-05
1.51687e-05
-3.48038e-05
1.62105e-05
-3.49039e-05
1.72681e-05
-3.50237e-05
1.83453e-05
-3.51709e-05
1.94527e-05
-3.53383e-05
2.06005e-05
-3.55074e-05
2.17937e-05
-3.56664e-05
-3.58152e-05
2.30324e-05
9.85781e-07
-2.61108e-05
1.85783e-06
-3.47057e-05
2.7248e-06
-3.49836e-05
3.6081e-06
-3.48879e-05
4.49619e-06
-3.49049e-05
5.38686e-06
-3.4949e-05
6.28127e-06
-3.50018e-05
7.18077e-06
-3.50627e-05
8.08677e-06
-3.51316e-05
9.00079e-06
-3.52082e-05
9.92445e-06
-3.52922e-05
1.08596e-05
-3.53833e-05
1.18084e-05
-3.54815e-05
1.27735e-05
-3.55862e-05
1.37583e-05
-3.56962e-05
1.4765e-05
-3.58105e-05
1.57935e-05
-3.59324e-05
1.68417e-05
-3.60719e-05
1.79106e-05
-3.624e-05
1.90081e-05
-3.6436e-05
2.01451e-05
-3.66444e-05
2.13288e-05
-3.685e-05
-3.70479e-05
2.25614e-05
9.5045e-07
-2.70613e-05
1.77667e-06
-3.55321e-05
2.60992e-06
-3.5817e-05
3.46116e-06
-3.57392e-05
4.31717e-06
-3.5761e-05
5.17597e-06
-3.58078e-05
6.03883e-06
-3.58647e-05
6.9072e-06
-3.5931e-05
7.78252e-06
-3.60069e-05
8.66633e-06
-3.60921e-05
9.56031e-06
-3.61863e-05
1.04664e-05
-3.62895e-05
1.13866e-05
-3.64019e-05
1.23236e-05
-3.65233e-05
1.32806e-05
-3.66532e-05
1.42606e-05
-3.67906e-05
1.52647e-05
-3.69366e-05
1.62914e-05
-3.70987e-05
1.73398e-05
-3.72884e-05
1.84143e-05
-3.75106e-05
1.95249e-05
-3.77551e-05
2.06805e-05
-3.80056e-05
-3.82532e-05
2.18856e-05
9.02922e-07
-2.79643e-05
1.68533e-06
-3.63148e-05
2.48415e-06
-3.66161e-05
3.29963e-06
-3.65548e-05
4.11883e-06
-3.65802e-05
4.94055e-06
-3.66295e-05
5.76624e-06
-3.66903e-05
6.59742e-06
-3.67621e-05
7.43563e-06
-3.68451e-05
8.28241e-06
-3.69389e-05
9.1395e-06
-3.70435e-05
1.00088e-05
-3.71589e-05
1.08924e-05
-3.72856e-05
1.17927e-05
-3.74237e-05
1.27126e-05
-3.75732e-05
1.36552e-05
-3.77333e-05
1.46228e-05
-3.79042e-05
1.56147e-05
-3.80906e-05
1.66286e-05
-3.83026e-05
1.76662e-05
-3.85483e-05
1.87349e-05
-3.88238e-05
1.98442e-05
-3.9115e-05
-3.94098e-05
2.10007e-05
8.47181e-07
-2.88117e-05
1.59912e-06
-3.70671e-05
2.36466e-06
-3.73818e-05
3.14047e-06
-3.73308e-05
3.91819e-06
-3.7358e-05
4.69766e-06
-3.74089e-05
5.48062e-06
-3.74732e-05
6.26859e-06
-3.755e-05
7.06315e-06
-3.76396e-05
7.86587e-06
-3.77416e-05
8.67844e-06
-3.78561e-05
9.50273e-06
-3.79833e-05
1.03407e-05
-3.81237e-05
1.11946e-05
-3.82777e-05
1.20669e-05
-3.84455e-05
1.29606e-05
-3.86269e-05
1.38782e-05
-3.88219e-05
1.48203e-05
-3.90328e-05
1.57846e-05
-3.9267e-05
1.67701e-05
-3.95338e-05
1.77812e-05
-3.98349e-05
1.88265e-05
-4.01604e-05
-4.04975e-05
1.99141e-05
7.92075e-07
-2.96039e-05
1.53638e-06
-3.78118e-05
2.26966e-06
-3.81154e-05
3.00066e-06
-3.80619e-05
3.73199e-06
-3.80894e-05
4.46426e-06
-3.81412e-05
5.19942e-06
-3.82083e-05
5.93881e-06
-3.82894e-05
6.68394e-06
-3.83847e-05
7.43629e-06
-3.8494e-05
8.19745e-06
-3.86173e-05
8.96913e-06
-3.87551e-05
9.75312e-06
-3.89078e-05
1.05513e-05
-3.90759e-05
1.13657e-05
-3.92599e-05
1.21989e-05
-3.94601e-05
1.30534e-05
-3.96765e-05
1.39307e-05
-3.99102e-05
1.48294e-05
-4.01658e-05
1.57471e-05
-4.04515e-05
1.66848e-05
-4.07726e-05
1.76492e-05
-4.11249e-05
-4.1497e-05
1.86485e-05
7.46607e-07
-3.03508e-05
1.50748e-06
-3.8573e-05
2.20696e-06
-3.88151e-05
2.8866e-06
-3.87417e-05
3.56623e-06
-3.87691e-05
4.24672e-06
-3.88217e-05
4.92965e-06
-3.88912e-05
5.61613e-06
-3.89758e-05
6.30734e-06
-3.90759e-05
7.00456e-06
-3.91913e-05
7.70914e-06
-3.9322e-05
8.42249e-06
-3.94685e-05
9.14605e-06
-3.96314e-05
9.88131e-06
-3.98111e-05
1.06298e-05
-4.00084e-05
1.13934e-05
-4.02237e-05
1.21742e-05
-4.04574e-05
1.29742e-05
-4.07102e-05
1.3793e-05
-4.09846e-05
1.4628e-05
-4.12865e-05
1.54779e-05
-4.16224e-05
1.63463e-05
-4.19934e-05
-4.23914e-05
1.72405e-05
7.15529e-07
-3.10665e-05
1.50655e-06
-3.93644e-05
2.16594e-06
-3.94748e-05
2.78754e-06
-3.93635e-05
3.41008e-06
-3.93918e-05
4.03451e-06
-3.94462e-05
4.6613e-06
-3.9518e-05
5.29128e-06
-3.96058e-05
5.92521e-06
-3.97099e-05
6.56401e-06
-3.98302e-05
7.20867e-06
-3.99668e-05
7.86018e-06
-4.01201e-05
8.51951e-06
-4.02907e-05
9.18761e-06
-4.04792e-05
9.86546e-06
-4.06862e-05
1.05542e-05
-4.09124e-05
1.12552e-05
-4.11585e-05
1.19702e-05
-4.14252e-05
1.26995e-05
-4.17139e-05
1.34412e-05
-4.20281e-05
1.41925e-05
-4.23737e-05
1.4954e-05
-4.27551e-05
-4.31684e-05
1.57309e-05
7.03267e-07
-3.177e-05
1.51546e-06
-4.01769e-05
2.12192e-06
-4.00815e-05
2.68033e-06
-3.99221e-05
3.24109e-06
-3.99527e-05
3.80547e-06
-4.00107e-05
4.37237e-06
-4.0085e-05
4.94248e-06
-4.0176e-05
5.51611e-06
-4.02836e-05
6.09381e-06
-4.0408e-05
6.67616e-06
-4.05492e-05
7.26365e-06
-4.07077e-05
7.85674e-06
-4.08839e-05
8.45583e-06
-4.10783e-05
9.06128e-06
-4.12916e-05
9.67351e-06
-4.15246e-05
1.02931e-05
-4.17781e-05
1.09209e-05
-4.20529e-05
1.15572e-05
-4.23502e-05
1.22009e-05
-4.26717e-05
1.28487e-05
-4.30216e-05
1.34988e-05
-4.34053e-05
-4.38233e-05
1.41537e-05
7.21091e-07
-3.24913e-05
1.51749e-06
-4.09736e-05
2.05227e-06
-4.06164e-05
2.54439e-06
-4.04144e-05
3.0401e-06
-4.04485e-05
3.54076e-06
-4.05114e-05
4.04421e-06
-4.05885e-05
4.55101e-06
-4.06828e-05
5.06123e-06
-4.07939e-05
5.57505e-06
-4.09219e-05
6.09266e-06
-4.1067e-05
6.61416e-06
-4.12293e-05
7.13953e-06
-4.14093e-05
7.66869e-06
-4.16075e-05
8.20144e-06
-4.18244e-05
8.73759e-06
-4.20607e-05
9.2769e-06
-4.23174e-05
9.81921e-06
-4.25952e-05
1.03643e-05
-4.28951e-05
1.0911e-05
-4.32183e-05
1.14565e-05
-4.3567e-05
1.19972e-05
-4.39462e-05
-4.4359e-05
1.2533e-05
7.87361e-07
-3.32788e-05
1.50781e-06
-4.16942e-05
1.95089e-06
-4.10597e-05
2.37467e-06
-4.08383e-05
2.80331e-06
-4.08773e-05
3.23703e-06
-4.09452e-05
3.67402e-06
-4.10255e-05
4.11451e-06
-4.11234e-05
4.55849e-06
-4.1238e-05
5.00584e-06
-4.13695e-05
5.45646e-06
-4.15178e-05
5.91013e-06
-4.16831e-05
6.36648e-06
-4.18658e-05
6.82507e-06
-4.20662e-05
7.28529e-06
-4.22846e-05
7.74642e-06
-4.25218e-05
8.20761e-06
-4.27785e-05
8.66784e-06
-4.30554e-05
9.12602e-06
-4.33532e-05
9.58068e-06
-4.36728e-05
1.00292e-05
-4.40154e-05
1.04674e-05
-4.43846e-05
-4.47843e-05
1.08926e-05
9.14191e-07
-3.41931e-05
1.48903e-06
-4.22692e-05
1.82617e-06
-4.13969e-05
2.17933e-06
-4.11916e-05
2.53915e-06
-4.12371e-05
2.90358e-06
-4.13097e-05
3.27219e-06
-4.13942e-05
3.64473e-06
-4.1496e-05
4.02107e-06
-4.16144e-05
4.4008e-06
-4.17493e-05
4.78352e-06
-4.19007e-05
5.16878e-06
-4.20686e-05
5.55594e-06
-4.22531e-05
5.94429e-06
-4.24546e-05
6.33292e-06
-4.26733e-05
6.72076e-06
-4.29096e-05
7.10653e-06
-4.31641e-05
7.48869e-06
-4.34374e-05
7.8655e-06
-4.37299e-05
8.23498e-06
-4.40422e-05
8.59451e-06
-4.43749e-05
8.93987e-06
-4.47301e-05
-4.51111e-05
9.26673e-06
1.08452e-06
-3.52777e-05
1.45396e-06
-4.26388e-05
1.68331e-06
-4.16264e-05
1.96358e-06
-4.14719e-05
2.25306e-06
-4.15267e-05
2.54763e-06
-4.16043e-05
2.84798e-06
-4.16945e-05
3.15319e-06
-4.18013e-05
3.46271e-06
-4.19241e-05
3.77584e-06
-4.20626e-05
4.09189e-06
-4.22169e-05
4.41015e-06
-4.2387e-05
4.72979e-06
-4.25729e-05
5.04988e-06
-4.27747e-05
5.36932e-06
-4.29927e-05
5.68685e-06
-4.32271e-05
6.001e-06
-4.34782e-05
6.31001e-06
-4.37464e-05
6.61187e-06
-4.40318e-05
6.9043e-06
-4.43345e-05