/*--------------------------------*- C++ -*----------------------------------*\
| =========                 |                                                 |
| \\      /  F ield         | OpenFOAM: The Open Source CFD Toolbox           |
|  \\    /   O peration     | Version:  2206                                  |
|   \\  /    A nd           | Website:  www.openfoam.com                      |
|    \\/     M anipulation  |                                                 |
\*---------------------------------------------------------------------------*/
FoamFile
{
    version     2.0;
    format      ascii;
    arch        "LSB;label=32;scalar=64";
    class       volVectorField;
    location    "0.05";
    object      U;
}
// * * * * * * * * * * * * * * * * * * * * * * * * * * * * * * * * * * * * * //

dimensions      [0 1 -1 0 0 0 0];

internalField   nonuniform List<vector> 
2268
(
(0.0182568 -0.00863033 0)
(0.0557319 -0.00915078 0)
(0.0945426 -0.00922906 0)
(0.134365 -0.00961655 0)
(0.176189 -0.0102033 0)
(0.220951 -0.0110144 0)
(0.269734 -0.0121182 0)
(0.323667 -0.0136247 0)
(0.386971 -0.0157461 0)
(0.452164 -0.0186493 0)
(0.556291 -0.02368 0)
(0.638944 -0.0293421 0)
(0.723805 -0.0425702 0)
(0.884194 -0.0544405 0)
(1.11211 -0.043828 0)
(1.38787 -0.00890998 0)
(1.35287 0.0163194 0)
(1.08829 0.0482257 0)
(0.843164 0.0646601 0)
(0.610507 0.0516279 0)
(0.401018 0.0420652 0)
(0.230172 0.03774 0)
(0.0767963 0.0361796 0)
(0.01822 -0.0258203 0)
(0.0556362 -0.0273705 0)
(0.0943681 -0.0276094 0)
(0.13408 -0.0287662 0)
(0.175757 -0.0305099 0)
(0.220312 -0.0329152 0)
(0.268802 -0.0361845 0)
(0.32229 -0.0406431 0)
(0.384965 -0.0468714 0)
(0.448662 -0.0556071 0)
(0.552958 -0.0700678 0)
(0.626746 -0.0849653 0)
(0.702747 -0.119315 0)
(0.897863 -0.147583 0)
(1.22185 -0.125036 0)
(1.5334 -0.0489218 0)
(1.59632 0.0226669 0)
(1.41477 0.130031 0)
(1.07078 0.197062 0)
(0.704154 0.180373 0)
(0.441604 0.140858 0)
(0.25367 0.118103 0)
(0.0854085 0.111614 0)
(0.0181064 -0.0429896 0)
(0.055285 -0.0455404 0)
(0.0937423 -0.0459364 0)
(0.133131 -0.0478461 0)
(0.174418 -0.0507216 0)
(0.218468 -0.0546794 0)
(0.266283 -0.0600492 0)
(0.318813 -0.0673561 0)
(0.380069 -0.0774593 0)
(0.44135 -0.0918367 0)
(0.544058 -0.113958 0)
(0.606271 -0.138774 0)
(0.68058 -0.19362 0)
(0.890318 -0.237842 0)
(1.18586 -0.235388 0)
(1.35606 -0.15177 0)
(1.35844 0.0354864 0)
(1.15268 0.258212 0)
(0.821181 0.362197 0)
(0.552682 0.311327 0)
(0.385591 0.234885 0)
(0.233978 0.196579 0)
(0.0807044 0.188582 0)
(0.0179424 -0.0600407 0)
(0.0547647 -0.0635538 0)
(0.0928128 -0.0641016 0)
(0.131731 -0.0667311 0)
(0.172453 -0.0706862 0)
(0.215777 -0.0761166 0)
(0.262622 -0.0834642 0)
(0.3138 -0.0934191 0)
(0.37302 -0.107053 0)
(0.431247 -0.126451 0)
(0.530348 -0.154805 0)
(0.579282 -0.189742 0)
(0.639515 -0.269934 0)
(0.839338 -0.321237 0)
(1.05691 -0.281507 0)
(1.12349 -0.173399 0)
(1.00341 0.0904413 0)
(0.744696 0.395805 0)
(0.531807 0.486932 0)
(0.431992 0.39482 0)
(0.33873 0.301862 0)
(0.218892 0.263544 0)
(0.0783894 0.262036 0)
(0.0177301 -0.0769252 0)
(0.0540819 -0.081351 0)
(0.0915919 -0.0820405 0)
(0.129902 -0.0853497 0)
(0.169894 -0.0903174 0)
(0.212291 -0.097116 0)
(0.257906 -0.106277 0)
(0.307391 -0.118617 0)
(0.364072 -0.135348 0)
(0.418703 -0.158982 0)
(0.512692 -0.192339 0)
(0.54705 -0.235195 0)
(0.593588 -0.332792 0)
(0.77727 -0.383754 0)
(0.940112 -0.303111 0)
(0.922068 -0.133599 0)
(0.658466 0.200066 0)
(0.417097 0.490009 0)
(0.364155 0.519831 0)
(0.361629 0.422737 0)
(0.306316 0.34644 0)
(0.211044 0.320786 0)
(0.0794638 0.333331 0)
(0.0174717 -0.0935456 0)
(0.053246 -0.0988196 0)
(0.0900984 -0.0996384 0)
(0.127673 -0.103575 0)
(0.166789 -0.109469 0)
(0.208081 -0.117502 0)
(0.252247 -0.12827 0)
(0.299771 -0.142675 0)
(0.353535 -0.161979 0)
(0.404211 -0.188974 0)
(0.492169 -0.225809 0)
(0.511563 -0.27426 0)
(0.549285 -0.382185 0)
(0.716368 -0.430976 0)
(0.839189 -0.304605 0)
(0.725885 -0.0440444 0)
(0.380135 0.312958 0)
(0.258398 0.517288 0)
(0.302067 0.505283 0)
(0.321409 0.430101 0)
(0.286038 0.378605 0)
(0.211755 0.369982 0)
(0.0851871 0.406622 0)
(0.0171748 -0.109912 0)
(0.052277 -0.115964 0)
(0.0883662 -0.116896 0)
(0.125101 -0.121406 0)
(0.163223 -0.128137 0)
(0.203276 -0.137273 0)
(0.245834 -0.14945 0)
(0.291231 -0.165622 0)
(0.341862 -0.187008 0)
(0.38854 -0.216605 0)
(0.470039 -0.255165 0)
(0.474889 -0.307197 0)
(0.506818 -0.421642 0)
(0.657715 -0.467109 0)
(0.743063 -0.276665 0)
(0.536548 0.0764126 0)
(0.223882 0.393767 0)
(0.218316 0.505773 0)
(0.276197 0.482909 0)
(0.29628 0.432302 0)
(0.27582 0.401427 0)
(0.224246 0.409672 0)
(0.100822 0.48065 0)
(0.0168489 -0.126258 0)
(0.0511885 -0.133048 0)
(0.0864138 -0.134086 0)
(0.122227 -0.139131 0)
(0.15927 -0.146633 0)
(0.197995 -0.156771 0)
(0.238856 -0.170196 0)
(0.282075 -0.18788 0)
(0.329521 -0.210983 0)
(0.372666 -0.242581 0)
(0.447926 -0.281603 0)
(0.438793 -0.335339 0)
(0.467159 -0.452937 0)
(0.603012 -0.495832 0)
(0.643262 -0.240763 0)
(0.36335 0.201568 0)
(0.176679 0.434025 0)
(0.215924 0.482859 0)
(0.260536 0.462995 0)
(0.280627 0.430669 0)
(0.273644 0.415533 0)
(0.250993 0.44328 0)
(0.101789 0.578117 0)
(0.0160787 -0.00672277 0)
(0.0456217 -0.00563081 0)
(0.0675393 -0.00352951 0)
(0.0800786 -0.00174706 0)
(0.0852794 -0.000476657 0)
(0.0854876 0.000352812 0)
(0.0824913 0.000863466 0)
(0.0776292 0.00116255 0)
(0.0716595 0.00133117 0)
(0.0650932 0.00142 0)
(0.0582208 0.00146087 0)
(0.0512292 0.00147293 0)
(0.0442183 0.00146915 0)
(0.0372477 0.00145728 0)
(0.0303402 0.00144266 0)
(0.0235014 0.00142862 0)
(0.0167276 0.00141536 0)
(0.0100056 0.00140709 0)
(0.00332355 0.00140779 0)
(0.0169039 -0.0206297 0)
(0.0479423 -0.0173666 0)
(0.0705413 -0.0107956 0)
(0.0830668 -0.00529836 0)
(0.0880071 -0.00141 0)
(0.0880363 0.0011012 0)
(0.0849172 0.00265984 0)
(0.0798917 0.0035765 0)
(0.0737338 0.00409597 0)
(0.0669664 0.00436749 0)
(0.0598878 0.00449126 0)
(0.0526897 0.00452646 0)
(0.0454732 0.00451416 0)
(0.0383003 0.0044774 0)
(0.0311944 0.00443149 0)
(0.0241609 0.0043872 0)
(0.0171958 0.00434773 0)
(0.0102853 0.00432164 0)
(0.00341058 0.00429027 0)
(0.0180397 -0.0352517 0)
(0.0508368 -0.0295249 0)
(0.0738412 -0.0179692 0)
(0.0857067 -0.00859701 0)
(0.0898244 -0.00211276 0)
(0.0891221 0.00201288 0)
(0.0854652 0.004565 0)
(0.080104 0.00606211 0)
(0.0737541 0.00690776 0)
(0.0668836 0.00734555 0)
(0.0597559 0.00754226 0)
(0.0525408 0.00759474 0)
(0.045327 0.00756988 0)
(0.0381674 0.00750539 0)
(0.0310812 0.00742602 0)
(0.0240706 0.00734993 0)
(0.0171304 0.00728542 0)
(0.0102467 0.00724052 0)
(0.00339802 0.0071908 0)
(0.0199018 -0.0511325 0)
(0.055497 -0.0424307 0)
(0.0790335 -0.0249552 0)
(0.0897335 -0.0114322 0)
(0.0925177 -0.00240005 0)
(0.0907902 0.00323654 0)
(0.0864545 0.00667567 0)
(0.0806606 0.00867547 0)
(0.074047 0.0097946 0)
(0.0670179 0.0103677 0)
(0.0597984 0.0106188 0)
(0.0525319 0.010678 0)
(0.0452924 0.0106332 0)
(0.0381221 0.0105364 0)
(0.0310354 0.0104216 0)
(0.0240307 0.0103129 0)
(0.0170999 0.0102225 0)
(0.0102281 0.0101583 0)
(0.00339214 0.0100868 0)
(0.0224077 -0.0677997 0)
(0.0623218 -0.0563636 0)
(0.0864088 -0.0315298 0)
(0.0952054 -0.0135257 0)
(0.0960539 -0.00211504 0)
(0.0929332 0.00486666 0)
(0.0877171 0.0090463 0)
(0.0813721 0.0114482 0)
(0.0744243 0.0127774 0)
(0.0671944 0.0134474 0)
(0.0598575 0.0137281 0)
(0.0525246 0.0137783 0)
(0.0452511 0.0137037 0)
(0.0380665 0.0135693 0)
(0.0309786 0.0134164 0)
(0.0239809 0.0132729 0)
(0.0170616 0.0131546 0)
(0.0102043 0.01307 0)
(0.0033844 0.0129762 0)
(0.025394 -0.0850979 0)
(0.0714618 -0.0716529 0)
(0.096335 -0.037418 0)
(0.102141 -0.0145296 0)
(0.100336 -0.00103327 0)
(0.0954748 0.00701958 0)
(0.0891884 0.0117381 0)
(0.0821915 0.0144167 0)
(0.0748531 0.0158779 0)
(0.0673894 0.0165966 0)
(0.059916 0.0168766 0)
(0.0525061 0.0168993 0)
(0.0451935 0.0167842 0)
(0.0379936 0.0166055 0)
(0.0309054 0.01641 0)
(0.0239171 0.0162285 0)
(0.0170125 0.0160799 0)
(0.0101738 0.0159738 0)
(0.00337433 0.0158577 0)
(0.0429312 -0.119107 0)
(0.0854613 -0.0898742 0)
(0.109263 -0.042064 0)
(0.110534 -0.0140111 0)
(0.105202 0.00114036 0)
(0.0982857 0.00980334 0)
(0.0907885 0.014802 0)
(0.0830719 0.0176096 0)
(0.0753046 0.0191133 0)
(0.0675851 0.0198255 0)
(0.0599627 0.0200707 0)
(0.0524695 0.0200453 0)
(0.0451158 0.0198767 0)
(0.0379009 0.0196454 0)
(0.0308143 0.0194017 0)
(0.0238382 0.0191782 0)
(0.0169522 0.0189969 0)
(0.0101362 0.0188684 0)
(0.00336191 0.0187296 0)
(0.131653 -0.165807 0)
(0.122339 -0.105458 0)
(0.126472 -0.0425395 0)
(0.120177 -0.0113937 0)
(0.110413 0.00446218 0)
(0.101206 0.0132499 0)
(0.0924409 0.0182615 0)
(0.0839734 0.0210435 0)
(0.0757582 0.0224965 0)
(0.067771 0.023145 0)
(0.0599927 0.0233194 0)
(0.0524129 0.0232228 0)
(0.0450169 0.0229857 0)
(0.0377877 0.0226912 0)
(0.0307047 0.0223923 0)
(0.0237439 0.0221226 0)
(0.0168805 0.0219061 0)
(0.0100916 0.021754 0)
(0.00334714 0.0215919 0)
(0.0162724 -0.150431 0)
(0.0492931 -0.158152 0)
(0.083043 -0.159312 0)
(0.117286 -0.165015 0)
(0.152508 -0.173443 0)
(0.189023 -0.184751 0)
(0.227108 -0.199569 0)
(0.266838 -0.21881 0)
(0.309345 -0.243576 0)
(0.347556 -0.276377 0)
(0.413464 -0.316188 0)
(0.387929 -0.368598 0)
(0.413512 -0.481786 0)
(0.533817 -0.504255 0)
(0.523023 -0.124723 0)
(0.211724 0.332466 0)
(0.180737 0.448327 0)
(0.215073 0.456832 0)
(0.244482 0.442424 0)
(0.268214 0.42262 0)
(0.286367 0.414722 0)
(0.336463 0.436882 0)
(0.406097 0.56302 0)
(0.0153203 -0.182226 0)
(0.0462531 -0.19095 0)
(0.0776959 -0.19225 0)
(0.109457 -0.198673 0)
(0.141842 -0.208058 0)
(0.174989 -0.22051 0)
(0.208969 -0.236606 0)
(0.243629 -0.257119 0)
(0.279545 -0.282996 0)
(0.31039 -0.315857 0)
(0.36426 -0.355809 0)
(0.324421 -0.404649 0)
(0.352602 -0.510184 0)
(0.45033 -0.489207 0)
(0.379765 0.0643714 0)
(0.150288 0.403738 0)
(0.181314 0.438308 0)
(0.206338 0.428698 0)
(0.229653 0.41478 0)
(0.256132 0.398222 0)
(0.286254 0.383913 0)
(0.331941 0.373766 0)
(0.415077 0.355371 0)
(0.0142689 -0.211944 0)
(0.0429228 -0.22127 0)
(0.0718793 -0.222639 0)
(0.101002 -0.229478 0)
(0.130434 -0.239363 0)
(0.160174 -0.252338 0)
(0.190144 -0.268873 0)
(0.220045 -0.289568 0)
(0.250118 -0.31511 0)
(0.274709 -0.346588 0)
(0.319063 -0.383745 0)
(0.271593 -0.427366 0)
(0.302909 -0.524098 0)
(0.381888 -0.442936 0)
(0.244116 0.201985 0)
(0.123245 0.422955 0)
(0.169742 0.421824 0)
(0.191531 0.404875 0)
(0.21331 0.389014 0)
(0.23745 0.370415 0)
(0.263285 0.348351 0)
(0.291562 0.319567 0)
(0.332628 0.273317 0)
(0.0131541 -0.239477 0)
(0.0394243 -0.249074 0)
(0.0658161 -0.250468 0)
(0.0922522 -0.257489 0)
(0.118735 -0.267525 0)
(0.145167 -0.280562 0)
(0.171374 -0.296958 0)
(0.196982 -0.31714 0)
(0.222051 -0.341549 0)
(0.24161 -0.370864 0)
(0.278539 -0.404478 0)
(0.227853 -0.442863 0)
(0.26193 -0.531924 0)
(0.325898 -0.368602 0)
(0.149441 0.29759 0)
(0.120171 0.414376 0)
(0.15782 0.39979 0)
(0.175907 0.38306 0)
(0.195372 0.366673 0)
(0.215678 0.347077 0)
(0.235954 0.323394 0)
(0.256002 0.293807 0)
(0.275811 0.256139 0)
(0.0120106 -0.264725 0)
(0.0358676 -0.274311 0)
(0.0596984 -0.275698 0)
(0.0834823 -0.282705 0)
(0.107112 -0.292616 0)
(0.130427 -0.305368 0)
(0.153201 -0.321213 0)
(0.175045 -0.340423 0)
(0.195926 -0.363245 0)
(0.211548 -0.390058 0)
(0.242656 -0.420048 0)
(0.19156 -0.453726 0)
(0.227389 -0.536346 0)
(0.279615 -0.263014 0)
(0.102058 0.34305 0)
(0.119777 0.398731 0)
(0.145809 0.380044 0)
(0.160444 0.364161 0)
(0.177278 0.347828 0)
(0.194075 0.328566 0)
(0.209918 0.305822 0)
(0.224249 0.278641 0)
(0.23486 0.246026 0)
(0.0108672 -0.287663 0)
(0.0323414 -0.29701 0)
(0.053676 -0.298371 0)
(0.0749012 -0.305218 0)
(0.0958285 -0.314805 0)
(0.116264 -0.327034 0)
(0.135963 -0.342066 0)
(0.154554 -0.360052 0)
(0.171968 -0.381093 0)
(0.184531 -0.405367 0)
(0.210985 -0.431979 0)
(0.161243 -0.461611 0)
(0.197728 -0.538918 0)
(0.240249 -0.183198 0)
(0.0709925 0.36664 0)
(0.111742 0.383724 0)
(0.13205 0.363218 0)
(0.144956 0.347895 0)
(0.159594 0.332007 0)
(0.173467 0.3137 0)
(0.185802 0.292544 0)
(0.196006 0.268076 0)
(0.202398 0.240059 0)
(0.0097474 -0.308319 0)
(0.0289125 -0.317252 0)
(0.0478564 -0.318581 0)
(0.0666543 -0.325164 0)
(0.0850613 -0.334296 0)
(0.102871 -0.345856 0)
(0.119842 -0.359933 0)
(0.135639 -0.376589 0)
(0.150186 -0.395824 0)
(0.160364 -0.41769 0)
(0.183016 -0.44129 0)
(0.135753 -0.46751 0)
(0.17189 -0.540259 0)
(0.203927 -0.0899987 0)
(0.0398771 0.371833 0)
(0.0980135 0.367185 0)
(0.117493 0.347606 0)
(0.129866 0.333445 0)
(0.142831 0.318601 0)
(0.154365 0.301713 0)
(0.164043 0.282518 0)
(0.171491 0.260879 0)
(0.175601 0.236994 0)
(0.00866831 -0.326756 0)
(0.0256274 -0.335153 0)
(0.0423104 -0.336452 0)
(0.0588327 -0.342707 0)
(0.0749126 -0.35131 0)
(0.0903459 -0.36213 0)
(0.104907 -0.375201 0)
(0.118303 -0.390522 0)
(0.130468 -0.408031 0)
(0.13876 -0.4277 0)
(0.158222 -0.448684 0)
(0.114146 -0.472057 0)
(0.149057 -0.540911 0)
(0.171758 0.015759 0)
(0.0225484 0.359066 0)
(0.0847826 0.348449 0)
(0.104243 0.33236 0)
(0.116181 0.320362 0)
(0.127588 0.307189 0)
(0.137117 0.292059 0)
(0.144694 0.274928 0)
(0.15018 0.255867 0)
(0.152875 0.235233 0)
(0.00764066 -0.34307 0)
(0.0225136 -0.350851 0)
(0.0370775 -0.352131 0)
(0.0514827 -0.358026 0)
(0.0654267 -0.366072 0)
(0.0787156 -0.376135 0)
(0.0911464 -0.388213 0)
(0.102472 -0.402261 0)
(0.112638 -0.418181 0)
(0.11941 -0.4359 0)
(0.136134 -0.454642 0)
(0.0956968 -0.475623 0)
(0.128692 -0.541003 0)
(0.144996 0.114246 0)
(0.0244409 0.340855 0)
(0.0766467 0.329601 0)
(0.0940697 0.318152 0)
(0.10473 0.308864 0)
(0.114269 0.297692 0)
(0.12184 0.284423 0)
(0.127573 0.269246 0)
(0.131494 0.252379 0)
(0.133186 0.234258 0)
(0.00666924 -0.35737 0)
(0.0195832 -0.364491 0)
(0.0321722 -0.365768 0)
(0.0446163 -0.371295 0)
(0.0566051 -0.378788 0)
(0.0679588 -0.388115 0)
(0.0784997 -0.39925 0)
(0.0880257 -0.412123 0)
(0.0964919 -0.426617 0)
(0.102014 -0.442633 0)
(0.116355 -0.459468 0)
(0.0798494 -0.47844 0)
(0.110427 -0.540567 0)
(0.125413 0.186368 0)
(0.0370228 0.324169 0)
(0.0739981 0.313643 0)
(0.0873494 0.306289 0)
(0.0956847 0.29951 0)
(0.102924 0.290261 0)
(0.108426 0.278705 0)
(0.112385 0.265214 0)
(0.114907 0.250117 0)
(0.115753 0.233899 0)
(0.00575453 -0.369761 0)
(0.0168372 -0.376203 0)
(0.0275929 -0.377494 0)
(0.0382231 -0.382661 0)
(0.0484234 -0.389624 0)
(0.0580276 -0.398257 0)
(0.0668816 -0.408516 0)
(0.074825 -0.420322 0)
(0.0818238 -0.433551 0)
(0.0862927 -0.448093 0)
(0.0985238 -0.463324 0)
(0.0661326 -0.480653 0)
(0.0938913 -0.539745 0)
(0.109647 0.229614 0)
(0.0497061 0.312409 0)
(0.0739165 0.302157 0)
(0.0831121 0.297577 0)
(0.0886349 0.292754 0)
(0.0932759 0.285098 0)
(0.0965717 0.274921 0)
(0.0987372 0.262728 0)
(0.0999105 0.248939 0)
(0.0999572 0.234077 0)
(0.00489467 -0.380422 0)
(0.0142713 -0.386185 0)
(0.0233294 -0.387508 0)
(0.0322819 -0.392334 0)
(0.0408437 -0.398801 0)
(0.0488626 -0.4068 0)
(0.0562018 -0.41627 0)
(0.0627363 -0.427128 0)
(0.0684449 -0.439253 0)
(0.0719903 -0.452526 0)
(0.0822871 -0.466426 0)
(0.0541097 -0.482405 0)
(0.0785551 -0.538612 0)
(0.0953019 0.251422 0)
(0.0587164 0.304055 0)
(0.0748141 0.294473 0)
(0.0805563 0.292087 0)
(0.0831133 0.288886 0)
(0.0849215 0.282442 0)
(0.0858472 0.273208 0)
(0.0861587 0.26181 0)
(0.0859934 0.248807 0)
(0.0852694 0.234768 0)
(0.00408282 -0.38957 0)
(0.0118719 -0.394647 0)
(0.0193601 -0.396014 0)
(0.0267564 -0.400534 0)
(0.0338059 -0.406551 0)
(0.0403724 -0.413993 0)
(0.0463405 -0.422775 0)
(0.0516057 -0.432815 0)
(0.0561686 -0.444 0)
(0.0588716 -0.456207 0)
(0.0674057 -0.469063 0)
(0.0435092 -0.483813 0)
(0.0639647 -0.53738 0)
(0.0833844 0.255691 0)
(0.0667345 0.296692 0)
(0.0773024 0.289666 0)
(0.0796994 0.28992 0)
(0.0788756 0.288345 0)
(0.0774295 0.282678 0)
(0.0757307 0.273793 0)
(0.0740819 0.262543 0)
(0.0725965 0.249704 0)
(0.0711721 0.235934 0)
(0.00332946 -0.396495 0)
(0.00964631 -0.400881 0)
(0.0156544 -0.402288 0)
(0.0215884 -0.406541 0)
(0.027236 -0.412154 0)
(0.0324544 -0.419072 0)
(0.0371657 -0.427216 0)
(0.041272 -0.436506 0)
(0.0447955 -0.44684 0)
(0.0466631 -0.458158 0)
(0.053726 -0.470395 0)
(0.0341793 -0.484296 0)
(0.0493061 -0.537656 0)
(0.0822219 0.244237 0)
(0.0777437 0.289707 0)
(0.0830903 0.287971 0)
(0.0811307 0.291785 0)
(0.0757535 0.291706 0)
(0.0701988 0.286179 0)
(0.0655026 0.276801 0)
(0.0618077 0.264906 0)
(0.0590972 0.251542 0)
(0.0571277 0.237475 0)
(0.00262774 -0.400699 0)
(0.00760893 -0.40458 0)
(0.0122333 -0.406106 0)
(0.016788 -0.410108 0)
(0.0211814 -0.415388 0)
(0.0252005 -0.421865 0)
(0.0287856 -0.429467 0)
(0.0318533 -0.438111 0)
(0.0343765 -0.447632 0)
(0.0352115 -0.458086 0)
(0.0405217 -0.469842 0)
(0.0248193 -0.481709 0)
(0.030103 -0.554018 0)
(0.0861943 0.209029 0)
(0.0921126 0.280074 0)
(0.0939117 0.29138 0)
(0.0852241 0.299518 0)
(0.0731438 0.299998 0)
(0.0623255 0.293465 0)
(0.0542194 0.282363 0)
(0.0485425 0.26879 0)
(0.0448625 0.254114 0)
(0.0426365 0.239169 0)
(0.00183523 -0.410977 0)
(0.00563463 -0.414012 0)
(0.0092186 -0.415886 0)
(0.0126107 -0.41977 0)
(0.0159073 -0.424934 0)
(0.0189176 -0.431269 0)
(0.0215832 -0.438694 0)
(0.0238707 -0.44709 0)
(0.0255225 -0.456179 0)
(0.0255464 -0.465714 0)
(0.0281279 -0.47615 0)
(0.0134771 -0.476325 0)
(0.0133315 -0.60202 0)
(0.00105327 0.153051 0)
(0.115991 0.272544 0)
(0.115906 0.304832 0)
(0.0918277 0.316865 0)
(0.0695249 0.315383 0)
(0.0522971 0.305256 0)
(0.0405213 0.290456 0)
(0.0332336 0.273862 0)
(0.029149 0.257005 0)
(0.0271947 0.240631 0)
(0.00146397 -0.42565 0)
(0.00425161 -0.427618 0)
(0.00658157 -0.429611 0)
(0.00909069 -0.433281 0)
(0.0114456 -0.438119 0)
(0.0135961 -0.444027 0)
(0.0154859 -0.450896 0)
(0.0171134 -0.458548 0)
(0.017959 -0.466873 0)
(0.018388 -0.474383 0)
(0.0209048 -0.482487 0)
(0.00729838 -0.465821 0)
(0.0904108 -0.529008 0)
(-0.0239061 0.0128363 0)
(0.183454 0.249577 0)
(0.156009 0.335303 0)
(0.0982834 0.349893 0)
(0.0611788 0.340389 0)
(0.0369618 0.321913 0)
(0.0223954 0.300483 0)
(0.0146933 0.279311 0)
(0.0112669 0.259478 0)
(0.0104084 0.241271 0)
(0.000623487 -0.378382 0)
(0.00212636 -0.380382 0)
(0.00330303 -0.382186 0)
(0.00456885 -0.385235 0)
(0.00569068 -0.389194 0)
(0.00662924 -0.393985 0)
(0.00735745 -0.399459 0)
(0.00773767 -0.405464 0)
(0.00791617 -0.412117 0)
(0.00657314 -0.418111 0)
(0.0206603 -0.423449 0)
(0.0292913 -0.454427 0)
(0.242487 -0.407429 0)
(0.302253 -0.178136 0)
(0.245624 0.401139 0)
(0.218241 0.448686 0)
(0.100594 0.40454 0)
(0.0412674 0.375911 0)
(0.0117387 0.341994 0)
(-0.00263274 0.3108 0)
(-0.008233 0.283692 0)
(-0.00928475 0.260391 0)
(-0.00791641 0.240295 0)
(-0.000580395 -0.333301 0)
(-0.0051089 -0.334617 0)
(-0.00810349 -0.337066 0)
(-0.0115829 -0.340668 0)
(-0.0152211 -0.345464 0)
(-0.0189648 -0.35141 0)
(-0.0227298 -0.358543 0)
(-0.0255474 -0.367033 0)
(-0.0245329 -0.376703 0)
(-0.0320685 -0.397267 0)
(0.028324 -0.420589 0)
(0.11444 -0.649981 0)
(0.209091 -0.579146 0)
(0.481845 -0.403307 0)
(0.44579 0.158265 0)
(0.222908 0.521206 0)
(0.049902 0.516364 0)
(-0.00136659 0.422994 0)
(-0.0289018 0.36134 0)
(-0.0363763 0.317668 0)
(-0.0361708 0.284404 0)
(-0.0325389 0.258102 0)
(-0.0275601 0.23669 0)
(-0.00367366 -0.532942 0)
(-0.028394 -0.533215 0)
(-0.0445455 -0.536217 0)
(-0.0629387 -0.539483 0)
(-0.0815659 -0.544456 0)
(-0.0998654 -0.551108 0)
(-0.117311 -0.560391 0)
(-0.128055 -0.572926 0)
(-0.129239 -0.588105 0)
(-0.134078 -0.651866 0)
(-0.0678672 -0.774259 0)
(0.148376 -0.84586 0)
(-0.226431 -1.1394 0)
(0.243453 0.0372497 0)
(-0.0248784 0.425327 0)
(-0.192438 0.704038 0)
(-0.130189 0.581149 0)
(-0.106739 0.445408 0)
(-0.0928996 0.365988 0)
(-0.0800751 0.314371 0)
(-0.068303 0.278058 0)
(-0.0574487 0.250866 0)
(-0.047688 0.229521 0)
(-0.00956489 -0.357263 0)
(-0.0272655 -0.358291 0)
(-0.0452352 -0.359639 0)
(-0.0638004 -0.362137 0)
(-0.08328 -0.365755 0)
(-0.10375 -0.371211 0)
(-0.125287 -0.379637 0)
(-0.147392 -0.392962 0)
(-0.179596 -0.419452 0)
(-0.213942 -0.471277 0)
(-0.245416 -0.556349 0)
(-0.459522 -0.63695 0)
(-0.768278 -0.563841 0)
(-0.843865 -0.152034 0)
(-0.635499 0.525913 0)
(-0.545982 0.632573 0)
(-0.321685 0.506356 0)
(-0.220045 0.405816 0)
(-0.16125 0.339961 0)
(-0.125183 0.294653 0)
(-0.100276 0.262107 0)
(-0.0815756 0.237554 0)
(-0.0668278 0.218258 0)
(-0.00958264 -0.369688 0)
(-0.0283941 -0.371921 0)
(-0.0474326 -0.372945 0)
(-0.0674807 -0.375077 0)
(-0.0884703 -0.37816 0)
(-0.111064 -0.382577 0)
(-0.135807 -0.388803 0)
(-0.164458 -0.397958 0)
(-0.202903 -0.412143 0)
(-0.248317 -0.428336 0)
(-0.316391 -0.46239 0)
(-0.477699 -0.528722 0)
(-0.707841 -0.496332 0)
(-0.821481 -0.186291 0)
(-0.735389 0.201041 0)
(-0.560606 0.359797 0)
(-0.382974 0.350281 0)
(-0.276475 0.320463 0)
(-0.205677 0.28827 0)
(-0.158821 0.260338 0)
(-0.125986 0.237402 0)
(-0.10179 0.218672 0)
(-0.083231 0.203232 0)
(-0.00962538 -0.344964 0)
(-0.0288666 -0.346539 0)
(-0.0485914 -0.347169 0)
(-0.0692491 -0.348011 0)
(-0.0910828 -0.349295 0)
(-0.114826 -0.351123 0)
(-0.14131 -0.353628 0)
(-0.172334 -0.35719 0)
(-0.210394 -0.361296 0)
(-0.254479 -0.362221 0)
(-0.317603 -0.361786 0)
(-0.425532 -0.346972 0)
(-0.550128 -0.26559 0)
(-0.614035 -0.106358 0)
(-0.574188 0.0604047 0)
(-0.465464 0.181 0)
(-0.362382 0.224905 0)
(-0.282822 0.236195 0)
(-0.22198 0.231155 0)
(-0.176572 0.220294 0)
(-0.142365 0.208082 0)
(-0.116145 0.196318 0)
(-0.0956788 0.185599 0)
(-0.00948015 -0.326447 0)
(-0.0289445 -0.327877 0)
(-0.0489677 -0.327851 0)
(-0.0696705 -0.327644 0)
(-0.0916675 -0.327348 0)
(-0.115529 -0.326853 0)
(-0.142105 -0.325974 0)
(-0.172618 -0.32443 0)
(-0.20834 -0.320869 0)
(-0.250276 -0.313292 0)
(-0.30431 -0.301794 0)
(-0.373662 -0.27332 0)
(-0.439097 -0.201194 0)
(-0.468917 -0.0876336 0)
(-0.448844 0.027466 0)
(-0.392425 0.106035 0)
(-0.328452 0.150794 0)
(-0.270685 0.173373 0)
(-0.22191 0.181699 0)
(-0.182194 0.182088 0)
(-0.150236 0.178424 0)
(-0.124551 0.17294 0)
(-0.103865 0.166821 0)
(-0.00940688 -0.306746 0)
(-0.0286485 -0.30811 0)
(-0.0483291 -0.307309 0)
(-0.0687094 -0.306124 0)
(-0.0902645 -0.304369 0)
(-0.113429 -0.301815 0)
(-0.138877 -0.298075 0)
(-0.167266 -0.292533 0)
(-0.199145 -0.283869 0)
(-0.235274 -0.270359 0)
(-0.277384 -0.249869 0)
(-0.323491 -0.214667 0)
(-0.361859 -0.156495 0)
(-0.377806 -0.0802276 0)
(-0.36659 -0.00256933 0)
(-0.334716 0.0591895 0)
(-0.293493 0.100885 0)
(-0.251683 0.126857 0)
(-0.213365 0.141476 0)
(-0.180008 0.148542 0)
(-0.151679 0.150851 0)
(-0.127911 0.15031 0)
(-0.108142 0.148135 0)
(-0.00926874 -0.288034 0)
(-0.0278912 -0.288972 0)
(-0.0468639 -0.287571 0)
(-0.0666024 -0.285507 0)
(-0.087237 -0.282503 0)
(-0.109127 -0.278277 0)
(-0.132714 -0.272378 0)
(-0.158291 -0.264112 0)
(-0.186009 -0.252442 0)
(-0.216019 -0.236008 0)
(-0.248062 -0.212811 0)
(-0.279412 -0.1789 0)
(-0.303561 -0.131911 0)
(-0.313544 -0.0759637 0)
(-0.307078 -0.0199713 0)
(-0.28745 0.0283543 0)
(-0.260015 0.0653891 0)
(-0.229826 0.0916596 0)
(-0.200194 0.109137 0)
(-0.172874 0.120051 0)
(-0.148547 0.126318 0)
(-0.127331 0.129412 0)
(-0.109135 0.13038 0)
(-0.00889508 -0.270047 0)
(-0.0266563 -0.270501 0)
(-0.0447566 -0.26872 0)
(-0.0635109 -0.26594 0)
(-0.0828874 -0.26195 0)
(-0.103151 -0.256474 0)
(-0.124543 -0.249079 0)
(-0.14713 -0.239157 0)
(-0.170812 -0.225924 0)
(-0.19532 -0.20837 0)
(-0.219795 -0.185149 0)
(-0.241997 -0.154594 0)
(-0.258254 -0.116427 0)
(-0.265093 -0.0733761 0)
(-0.261331 -0.0302874 0)
(-0.248631 0.0084508 0)
(-0.229769 0.040444 0)
(-0.207728 0.0652225 0)
(-0.184895 0.0834662 0)
(-0.162815 0.0963438 0)
(-0.142333 0.105069 0)
(-0.123839 0.110694 0)
(-0.107524 0.11404 0)
(-0.00833356 -0.252685 0)
(-0.025101 -0.252846 0)
(-0.0421831 -0.25081 0)
(-0.0596801 -0.247521 0)
(-0.0775934 -0.242852 0)
(-0.0960666 -0.236558 0)
(-0.115193 -0.228279 0)
(-0.13491 -0.217538 0)
(-0.154975 -0.203772 0)
(-0.174942 -0.186314 0)
(-0.19391 -0.16441 0)
(-0.210264 -0.137481 0)
(-0.221879 -0.105885 0)
(-0.226926 -0.0714419 0)
(-0.224761 -0.0369627 0)
(-0.216227 -0.00509929 0)
(-0.202911 0.0225762 0)
(-0.186603 0.0452983 0)
(-0.168962 0.0632077 0)
(-0.151216 0.0768619 0)
(-0.134169 0.0869822 0)
(-0.1183 0.0942764 0)
(-0.103937 0.0993431 0)
(-0.00771263 -0.236301 0)
(-0.0233829 -0.236327 0)
(-0.0392848 -0.234077 0)
(-0.0553746 -0.23046 0)
(-0.0717281 -0.225378 0)
(-0.0883773 -0.218633 0)
(-0.105317 -0.209947 0)
(-0.122411 -0.198971 0)
(-0.139365 -0.18533 0)
(-0.155709 -0.168625 0)
(-0.170678 -0.148506 0)
(-0.183158 -0.124877 0)
(-0.191879 -0.0982324 0)
(-0.195834 -0.0698147 0)
(-0.194655 -0.0413548 0)
(-0.188729 -0.0145266 0)
(-0.179111 0.00954768 0)
(-0.166905 0.030151 0)
(-0.153204 0.0472156 0)
(-0.138961 0.0609499 0)
(-0.124865 0.0717538 0)
(-0.111389 0.0800797 0)
(-0.098909 0.086341 0)
(-0.0071043 -0.221202 0)
(-0.0215759 -0.221151 0)
(-0.0361663 -0.218726 0)
(-0.0508054 -0.214919 0)
(-0.0655814 -0.209626 0)
(-0.0804534 -0.2027 0)
(-0.0953542 -0.193937 0)
(-0.110116 -0.183101 0)
(-0.124447 -0.169959 0)
(-0.137923 -0.154306 0)
(-0.149946 -0.136025 0)
(-0.159755 -0.115222 0)
(-0.166567 -0.0923696 0)
(-0.169793 -0.068343 0)
(-0.169218 -0.0442616 0)
(-0.165065 -0.0212453 0)
(-0.15802 -0.000176628 0)
(-0.148759 0.0185187 0)
(-0.138034 0.0345545 0)
(-0.126589 0.0479862 0)
(-0.114975 0.0590181 0)
(-0.103609 0.0679255 0)
(-0.0928683 0.0749793 0)
(-0.00651157 -0.207453 0)
(-0.0197036 -0.207332 0)
(-0.032917 -0.204802 0)
(-0.0461223 -0.200912 0)
(-0.0593543 -0.195562 0)
(-0.0725396 -0.188644 0)
(-0.0855769 -0.180021 0)
(-0.0982936 -0.169547 0)
(-0.110427 -0.157094 0)
(-0.121623 -0.14258 0)
(-0.131427 -0.126017 0)
(-0.139321 -0.107584 0)
(-0.144805 -0.0876898 0)
(-0.147522 -0.0669698 0)
(-0.147357 -0.0461937 0)
(-0.14445 -0.026139 0)
(-0.139143 -0.00745536 0)
(-0.132015 0.00952986 0)
(-0.123614 0.0244977 0)
(-0.11441 0.0374321 0)
(-0.104859 0.0484128 0)
(-0.0953213 0.0575947 0)
(-0.086144 0.0651442 0)
(-0.00591367 -0.195004 0)
(-0.0177872 -0.194813 0)
(-0.0296208 -0.192258 0)
(-0.0414348 -0.188372 0)
(-0.0531868 -0.183077 0)
(-0.064795 -0.176298 0)
(-0.0761465 -0.167953 0)
(-0.087079 -0.157962 0)
(-0.0973671 -0.146272 0)
(-0.106725 -0.132876 0)
(-0.114815 -0.11785 0)
(-0.121279 -0.101392 0)
(-0.125792 -0.0838421 0)
(-0.128126 -0.0656766 0)
(-0.128213 -0.047448 0)
(-0.126147 -0.0297047 0)
(-0.122161 -0.0129252 0)
(-0.116673 0.00250714 0)
(-0.110024 0.016475 0)
(-0.102594 0.0288377 0)
(-0.0947475 0.0396078 0)
(-0.086775 0.0488631 0)
(-0.0789811 0.0566964 0)
(-0.00530093 -0.183809 0)
(-0.0158609 -0.183555 0)
(-0.0263544 -0.181035 0)
(-0.0368274 -0.17722 0)
(-0.0471758 -0.172057 0)
(-0.0573206 -0.165502 0)
(-0.0671517 -0.157513 0)
(-0.0765233 -0.14806 0)
(-0.085247 -0.137137 0)
(-0.0930981 -0.124783 0)
(-0.0998273 -0.111102 0)
(-0.105183 -0.096286 0)
(-0.108948 -0.0806188 0)
(-0.110975 -0.0644657 0)
(-0.111223 -0.0482396 0)
(-0.109763 -0.0323513 0)
(-0.106767 -0.0171708 0)
(-0.102481 -0.00299928 0)
(-0.0971917 0.0100597 0)
(-0.0912058 0.0218403 0)
(-0.084774 0.0323178 0)
(-0.078137 0.0415204 0)
(-0.0715567 0.0494907 0)
(-0.00468005 -0.17385 0)
(-0.0139629 -0.173544 0)
(-0.0231748 -0.171095 0)
(-0.0323593 -0.167392 0)
(-0.0413828 -0.162407 0)
(-0.0501734 -0.156122 0)
(-0.0586302 -0.148526 0)
(-0.0666257 -0.139618 0)
(-0.0740057 -0.129424 0)
(-0.080596 -0.118008 0)
(-0.0862123 -0.105487 0)
(-0.0906762 -0.092036 0)
(-0.093838 -0.0778919 0)
(-0.0956019 -0.0633441 0)
(-0.095944 -0.0487108 0)
(-0.0949182 -0.0343089 0)
(-0.0926465 -0.0204259 0)
(-0.0892998 -0.00729549 0)
(-0.0851064 0.00493155 0)
(-0.0802747 0.0161494 0)
(-0.0750134 0.0263017 0)
(-0.0695142 0.0353787 0)
(-0.0639948 0.0433888 0)
(-0.00406458 -0.165117 0)
(-0.0121222 -0.164773 0)
(-0.0201138 -0.162409 0)
(-0.0280634 -0.158836 0)
(-0.0358387 -0.154051 0)
(-0.0433747 -0.148053 0)
(-0.0505814 -0.140848 0)
(-0.0573505 -0.13246 0)
(-0.0635582 -0.122933 0)
(-0.0690704 -0.112344 0)
(-0.0737502 -0.100809 0)
(-0.0774694 -0.0884883 0)
(-0.0801242 -0.0755809 0)
(-0.0816508 -0.062322 0)
(-0.0820362 -0.048965 0)
(-0.0813214 -0.0357615 0)
(-0.0795946 -0.0229422 0)
(-0.076981 -0.0107049 0)
(-0.0736703 0.000798016 0)
(-0.0697836 0.011526 0)
(-0.0654955 0.0213593 0)
(-0.0609696 0.030276 0)
(-0.0563788 0.0382651 0)
(-0.00346675 -0.157585 0)
(-0.0103534 -0.15722 0)
(-0.0171806 -0.154939 0)
(-0.0239497 -0.151503 0)
(-0.030548 -0.146919 0)
(-0.0369165 -0.141199 0)
(-0.0429769 -0.134364 0)
(-0.04864 -0.12645 0)
(-0.0538081 -0.117513 0)
(-0.0583782 -0.107635 0)
(-0.0622483 -0.0969295 0)
(-0.0653255 -0.0855379 0)
(-0.0675375 -0.0736328 0)
(-0.0688417 -0.0614098 0)
(-0.0692318 -0.049076 0)
(-0.0687398 -0.0368371 0)
(-0.0674341 -0.0248841 0)
(-0.0654126 -0.0133856 0)
(-0.0627831 -0.00248121 0)
(-0.0596673 0.00779978 0)
(-0.0562175 0.0173319 0)
(-0.0525348 0.0260765 0)
(-0.0487617 0.0340096 0)
(-0.00289302 -0.15122 0)
(-0.0086575 -0.150848 0)
(-0.0143685 -0.148646 0)
(-0.0200103 -0.145339 0)
(-0.0254953 -0.140944 0)
(-0.0307706 -0.13548 0)
(-0.0357709 -0.128977 0)
(-0.0404247 -0.121479 0)
(-0.0446557 -0.113049 0)
(-0.0483852 -0.10377 0)
(-0.0515371 -0.0937481 0)
(-0.0540446 -0.0831122 0)
(-0.0558573 -0.0720131 0)
(-0.056947 -0.0606172 0)
(-0.0573112 -0.0490989 0)
(-0.0569751 -0.0376306 0)
(-0.0559899 -0.0263742 0)
(-0.0544279 -0.0154728 0)
(-0.0523738 -0.00504424 0)
(-0.0499227 0.00483203 0)
(-0.0471749 0.0140906 0)
(-0.0442234 0.0226675 0)
(-0.0411754 0.0305286 0)
(-0.00234342 -0.145968 0)
(-0.00702656 -0.1456 0)
(-0.0116623 -0.143469 0)
(-0.0162256 -0.14028 0)
(-0.0206524 -0.136054 0)
(-0.0248973 -0.130815 0)
(-0.0289081 -0.124598 0)
(-0.0326291 -0.117454 0)
(-0.0360014 -0.109447 0)
(-0.0389655 -0.100659 0)
(-0.0414657 -0.0911904 0)
(-0.0434549 -0.0811584 0)
(-0.0448983 -0.0706977 0)
(-0.0457773 -0.0599534 0)
(-0.0460918 -0.049076 0)
(-0.0458616 -0.0382144 0)
(-0.0451251 -0.0275095 0)
(-0.0439364 -0.0170882 0)
(-0.0423608 -0.00705919 0)
(-0.0404742 0.00250003 0)
(-0.0383383 0.0115294 0)
(-0.0360319 0.0199573 0)
(-0.0336352 0.0277443 0)
(-0.00181449 -0.141736 0)
(-0.00544942 -0.141377 0)
(-0.00904468 -0.139309 0)
(-0.0125719 -0.136224 0)
(-0.0159871 -0.132143 0)
(-0.0192534 -0.127096 0)
(-0.0223313 -0.121121 0)
(-0.0251782 -0.11427 0)
(-0.0277502 -0.106608 0)
(-0.0300041 -0.0982138 0)
(-0.0319007 -0.0891831 0)
(-0.0334077 -0.0796249 0)
(-0.0345018 -0.0696604 0)
(-0.0351712 -0.0594193 0)
(-0.0354172 -0.0490349 0)