/*--------------------------------*- C++ -*----------------------------------*\
| =========                 |                                                 |
| \\      /  F ield         | OpenFOAM: The Open Source CFD Toolbox           |
|  \\    /   O peration     | Version:  2206                                  |
|   \\  /    A nd           | Website:  www.openfoam.com                      |
|    \\/     M anipulation  |                                                 |
\*---------------------------------------------------------------------------*/
FoamFile
{
    version     2.0;
    format      ascii;
    arch        "LSB;label=32;scalar=64";
    class       volScalarField;
    location    "0.4";
    object      p;
}
// * * * * * * * * * * * * * * * * * * * * * * * * * * * * * * * * * * * * * //

dimensions      [1 -1 -2 0 0 0 0];

internalField   nonuniform List<scalar> 
2268
(
1118.35
1118.84
1119.42
1119.85
1120
1119.98
1119.96
1120.08
1120.41
1121
1121.89
1123.12
1124.72
1126.71
1129.06
1131.71
1134.54
1137.37
1139.93
1141.96
1143.44
1144.55
1145.46
1059.08
1059.57
1060.18
1060.63
1060.8
1060.79
1060.77
1060.88
1061.21
1061.8
1062.68
1063.88
1065.39
1067.23
1069.43
1071.98
1074.82
1077.8
1080.66
1083.08
1084.88
1086.24
1087.41
999.368
999.882
1000.52
1001.03
1001.23
1001.23
1001.21
1001.32
1001.65
1002.24
1003.13
1004.34
1005.86
1007.71
1009.87
1012.32
1014.99
1017.8
1020.65
1023.44
1026.08
1028.49
1030.36
939.187
939.724
940.433
941.014
941.271
941.294
941.283
941.396
941.727
942.33
943.232
944.444
945.968
947.799
949.929
952.328
954.941
957.692
960.514
963.41
966.419
969.412
971.769
878.494
879.055
879.859
880.535
880.86
880.922
880.931
881.058
881.406
882.029
882.951
884.179
885.711
887.537
889.642
891.997
894.561
897.272
900.062
902.879
905.734
908.558
910.915
817.222
817.812
818.74
819.527
819.94
820.058
820.106
820.266
820.647
821.302
822.253
823.503
825.045
826.863
828.933
831.221
833.682
836.253
838.851
841.376
843.71
845.719
847.046
755.299
755.928
757.025
757.946
758.468
758.667
758.779
758.997
759.432
760.133
761.119
762.389
763.929
765.717
767.718
769.885
772.147
774.407
776.515
778.24
779.182
778.688
775.968
692.669
693.352
694.705
695.796
696.441
696.733
696.939
697.258
697.785
698.557
699.588
700.875
702.399
704.127
706.009
707.969
709.898
711.63
712.895
713.338
712.033
708.647
691.8
427.975
306.219
255.019
255.6
286.753
336.044
441.58
674.406
902.427
848.973
698.504
669.314
785.101
972.717
1120.2
1151.28
1034.46
1013
1452.14
404.815
265.074
237.874
244.224
273.969
321.001
416.822
606.509
806.629
749.532
610.881
581.834
690.805
884.635
1057.95
1128.49
1012.02
919.167
1366.22
357.752
253.712
232.511
241.249
271.971
317.421
387.158
531.621
664.848
610.673
497.032
471.226
560.568
736.068
928.759
1055.29
985.132
826.305
1257.61
335.396
251.509
232.772
240.694
269.905
302.731
344.696
437.843
516.7
467.612
378.187
356.858
421.712
568.662
754.117
908.197
935.9
781.42
1186.95
326.023
257.386
237.373
242.595
262.669
274.584
290.733
341.334
372.863
318.641
246.651
232.197
275.124
398.438
569.433
735.553
851.768
811.292
1189.68
321.838
265
241.575
239.939
241.58
231.396
230.7
245.125
230.935
160.149
101.885
83.7925
111.787
214.247
379.162
562.605
756.429
870.821
1272.03
322.429
267.447
235.378
218.881
204.528
183.944
169.246
151.926
98.7517
30.6427
10.4758
6.23615
9.98614
45.9765
181.06
384.212
650.163
919.322
1388.93
311.298
250.37
207.802
185.975
165.79
136.539
109.188
71.5436
18.3487
0.882596
-1.32726
-1.43392
-1.03526
1.85391
38.2933
204.564
521.976
924.055
1483.25
593.56
594.339
596.259
597.592
598.452
598.928
599.33
599.859
600.577
601.493
602.609
603.916
605.384
606.963
608.567
610.059
611.208
611.595
610.355
606.08
594.206
568.973
500.652
454.851
455.239
458.198
460.275
461.902
462.936
463.781
464.69
465.706
466.813
468
469.255
470.539
471.777
472.847
473.549
473.576
472.475
469.521
463.7
453.815
438.88
420.14
313.919
311.644
314.722
319.481
323.042
324.84
326.117
327.388
328.659
329.897
331.094
332.239
333.303
334.228
334.913
335.204
334.883
333.654
331.126
326.717
319.771
308.95
294.704
177.199
173.006
172.054
177.797
182.307
183.41
184.361
185.775
187.204
188.509
189.705
190.787
191.735
192.516
193.071
193.296
193.028
192.055
190.111
186.85
181.914
174.811
165.557
68.3166
61.9968
49.864
52.3315
55.9916
55.0578
54.8631
55.781
56.7436
57.5125
58.1598
58.7243
59.2048
59.5937
59.8828
60.0401
59.9989
59.6621
58.9337
57.6929
55.8546
53.344
49.5597
21.453
8.56647
0.604796
2.05369
2.8839
1.93706
1.55276
1.61566
1.77119
1.92551
2.05497
2.15737
2.22758
2.26642
2.28555
2.27563
2.22399
2.10827
1.904
1.58408
1.12848
0.487031
-0.603222
-1.68259
-1.76218
-1.71253
-1.65699
-1.63395
-1.61488
-1.6054
-1.60381
-1.60533
-1.60789
-1.61115
-1.61516
-1.6197
-1.62487
-1.63121
-1.63899
-1.64806
-1.65842
-1.67011
-1.6826
-1.69503
-1.70278
-1.69737
-1.74572
-1.75349
-1.71906
-1.72754
-1.73813
-1.7414
-1.74298
-1.74509
-1.74796
-1.75117
-1.75467
-1.7587
-1.76339
-1.76884
-1.77524
-1.78279
-1.79165
-1.80182
-1.8132
-1.82535
-1.83754
-1.84809
-1.85777
-1.87527
-1.87449
-1.87485
-1.88215
-1.88531
-1.88858
-1.89178
-1.89476
-1.89802
-1.90174
-1.90597
-1.91078
-1.91633
-1.92279
-1.93035
-1.93925
-1.94989
-1.96246
-1.97673
-1.99201
-2.00673
-2.01855
-2.02719
-2.03382
-2.03381
-2.03298
-2.03446
-2.03658
-2.03884
-2.04159
-2.0448
-2.04849
-2.05274
-2.05764
-2.06327
-2.06979
-2.07744
-2.08663
-2.09794
-2.11204
-2.12915
-2.14897
-2.17031
-2.19087
-2.20976
-2.22285
-2.17977
-2.17986
-2.18064
-2.18223
-2.18442
-2.1871
-2.19028
-2.19402
-2.19833
-2.2033
-2.20903
-2.21564
-2.22336
-2.2326
-2.24405
-2.25863
-2.27713
-2.29957
-2.32526
-2.35231
-2.37897
-2.40621
-2.4263
-2.32575
-2.32642
-2.32762
-2.32935
-2.33168
-2.3346
-2.33813
-2.3423
-2.34716
-2.35279
-2.35929
-2.36681
-2.37565
-2.38638
-2.39987
-2.41715
-2.43884
-2.46453
-2.49304
-2.52258
-2.55301
-2.58342
-2.6071
-2.4702
-2.4711
-2.47245
-2.47437
-2.47694
-2.48015
-2.48403
-2.48862
-2.49396
-2.50013
-2.50723
-2.51541
-2.52502
-2.53661
-2.55108
-2.56935
-2.59172
-2.61765
-2.64618
-2.67704
-2.70937
-2.73985
-2.76556
-2.61244
-2.61348
-2.61497
-2.61706
-2.61982
-2.62328
-2.62744
-2.63236
-2.63807
-2.64464
-2.65217
-2.66082
-2.67086
-2.68225
-2.69667
-2.71427
-2.7352
-2.7591
-2.78604
-2.81617
-2.84717
-2.87695
-2.90471
-2.75228
-2.75334
-2.75489
-2.7571
-2.76001
-2.76363
-2.76801
-2.77318
-2.77906
-2.78592
-2.79373
-2.80259
-2.81264
-2.8242
-2.8378
-2.85381
-2.8723
-2.89331
-2.91718
-2.94333
-2.97029
-2.99758
-3.02476
-2.88944
-2.89044
-2.89202
-2.89427
-2.89725
-2.90097
-2.90546
-2.91074
-2.91686
-2.92387
-2.93183
-2.9408
-2.95089
-2.96228
-2.9752
-2.98986
-3.00636
-3.02485
-3.04541
-3.0673
-3.09003
-3.11372
-3.13911
-3.02363
-3.02454
-3.02611
-3.02836
-3.03136
-3.03511
-3.03964
-3.04498
-3.05115
-3.05821
-3.06619
-3.07515
-3.08515
-3.0963
-3.10869
-3.12243
-3.13762
-3.15432
-3.17246
-3.19165
-3.2116
-3.23274
-3.25572
-3.15477
-3.15558
-3.1571
-3.15933
-3.16229
-3.16601
-3.1705
-3.17579
-3.18189
-3.18884
-3.19668
-3.20543
-3.21515
-3.22589
-3.23769
-3.2506
-3.26468
-3.27997
-3.29641
-3.31382
-3.33194
-3.35094
-3.37124
-3.28284
-3.28357
-3.28503
-3.2872
-3.2901
-3.29373
-3.29811
-3.30325
-3.30916
-3.31588
-3.32341
-3.33179
-3.34105
-3.35121
-3.3623
-3.37432
-3.3873
-3.40125
-3.41613
-3.43184
-3.44827
-3.46548
-3.48365
-3.40792
-3.40862
-3.41002
-3.41212
-3.41491
-3.4184
-3.4226
-3.42751
-3.43315
-3.43953
-3.44666
-3.45457
-3.46327
-3.47277
-3.48307
-3.49419
-3.50612
-3.51886
-3.53238
-3.54663
-3.56156
-3.57722
-3.59364
-3.53023
-3.5309
-3.53225
-3.53424
-3.53689
-3.54019
-3.54415
-3.54878
-3.55409
-3.56007
-3.56675
-3.57413
-3.58222
-3.59102
-3.60054
-3.61077
-3.62172
-3.63336
-3.64568
-3.65863
-3.67222
-3.68645
-3.70133
-3.64993
-3.65058
-3.65185
-3.65371
-3.65618
-3.65927
-3.66296
-3.66727
-3.67221
-3.67777
-3.68396
-3.69079
-3.69825
-3.70636
-3.7151
-3.72447
-3.73448
-3.7451
-3.75632
-3.76812
-3.78048
-3.79341
-3.8069
-3.76713
-3.76773
-3.7689
-3.77062
-3.7729
-3.77575
-3.77916
-3.78314
-3.78769
-3.79281
-3.79851
-3.80479
-3.81164
-3.81906
-3.82705
-3.83561
-3.84473
-3.8544
-3.8646
-3.87532
-3.88654
-3.89827
-3.9105
-3.88186
-3.8824
-3.88346
-3.88503
-3.88713
-3.88973
-3.89286
-3.89652
-3.90069
-3.90538
-3.9106
-3.91633
-3.92259
-3.92936
-3.93664
-3.94443
-3.95271
-3.96149
-3.97074
-3.98045
-3.99062
-4.00123
-4.01228
-3.99422
-3.9947
-3.99566
-3.99709
-3.999
-4.00139
-4.00425
-4.00758
-4.01139
-4.01567
-4.02042
-4.02564
-4.03133
-4.03748
-4.04408
-4.05114
-4.05864
-4.06658
-4.07494
-4.08372
-4.09289
-4.10245
-4.11241
-4.10444
-4.10487
-4.10574
-4.10704
-4.10877
-4.11094
-4.11354
-4.11657
-4.12003
-4.12392
-4.12823
-4.13295
-4.1381
-4.14366
-4.14963
-4.156
-4.16276
-4.16991
-4.17744
-4.18533
-4.19357
-4.20215
-4.21107
-4.21282
-4.2132
-4.21398
-4.21516
-4.21673
-4.21869
-4.22104
-4.22378
-4.22691
-4.23041
-4.23429
-4.23855
-4.24318
-4.24818
-4.25354
-4.25926
-4.26532
-4.27173
-4.27847
-4.28552
-4.29288
-4.30053
-4.30847
-4.31965
-4.31999
-4.32069
-4.32175
-4.32316
-4.32493
-4.32704
-4.32949
-4.33229
-4.33543
-4.3389
-4.34271
-4.34684
-4.3513
-4.35609
-4.36118
-4.36658
-4.37229
-4.37827
-4.38454
-4.39106
-4.39783
-4.40483
-4.42519
-4.4255
-4.42613
-4.42707
-4.42833
-4.4299
-4.43177
-4.43395
-4.43644
-4.43922
-4.4423
-4.44567
-4.44933
-4.45328
-4.4575
-4.46201
-4.46677
-4.4718
-4.47708
-4.48258
-4.48831
-4.49424
-4.50036
-4.52965
-4.52992
-4.53048
-4.53131
-4.53242
-4.5338
-4.53545
-4.53736
-4.53955
-4.54199
-4.54469
-4.54764
-4.55085
-4.5543
-4.558
-4.56193
-4.56609
-4.57048
-4.57507
-4.57986
-4.58484
-4.58997
-4.59525
-4.63317
-4.63341
-4.6339
-4.63462
-4.63558
-4.63678
-4.63822
-4.63988
-4.64177
-4.64389
-4.64623
-4.64878
-4.65156
-4.65454
-4.65773
-4.66113
-4.66472
-4.66849
-4.67245
-4.67656
-4.68081
-4.6852
-4.68969
-4.73587
-4.73608
-4.73649
-4.73712
-4.73794
-4.73897
-4.7402
-4.74162
-4.74324
-4.74505
-4.74705
-4.74923
-4.75159
-4.75414
-4.75685
-4.75974
-4.76279
-4.76599
-4.76934
-4.77281
-4.7764
-4.78008
-4.78383
-4.83785
-4.83803
-4.83838
-4.8389
-4.8396
-4.84046
-4.8415
-4.8427
-4.84406
-4.84558
-4.84726
-4.84909
-4.85107
-4.8532
-4.85547
-4.85788
-4.86043
-4.86309
-4.86587
-4.86875
-4.87171
-4.87474
-4.87781
-4.93921
-4.93935
-4.93964
-4.94007
-4.94064
-4.94136
-4.94221
-4.9432
-4.94433
-4.94558
-4.94696
-4.94847
-4.95009
-4.95184
-4.9537
-4.95567
-4.95774
-4.95991
-4.96216
-4.96449
-4.96688
-4.9693
-4.97174
-5.04003
-5.04014
-5.04036
-5.0407
-5.04116
-5.04174
-5.04243
-5.04323
-5.04413
-5.04514
-5.04625
-5.04745
-5.04875
-5.05014
-5.05162
-5.05318
-5.05482
-5.05653
-5.05831
-5.06013
-5.06199
-5.06386
-5.06573
-5.14041
-5.14048
-5.14065
-5.14091
-5.14127
-5.14172
-5.14226
-5.14288
-5.14359
-5.14437
-5.14522
-5.14615
-5.14715
-5.14822
-5.14934
-5.15053
-5.15177
-5.15306
-5.1544
-5.15576
-5.15714
-5.15851
-5.15986
-5.24043
-5.24042
-5.24056
-5.24075
-5.24102
-5.24136
-5.24176
-5.24222
-5.24275
-5.24332
-5.24395
-5.24463
-5.24535
-5.24612
-5.24692
-5.24777
-5.24865
-5.24956
-5.25049
-5.25143
-5.25237
-5.2533
-5.25418
-5.34002
-5.33995
-5.34009
-5.34023
-5.34041
-5.34065
-5.34093
-5.34125
-5.34161
-5.342
-5.34242
-5.34287
-5.34334
-5.34384
-5.34435
-5.34489
-5.34544
-5.346
-5.34656
-5.34713
-5.34767
-5.34819
-5.34865
-5.43938
-5.43938
-5.43944
-5.43956
-5.43968
-5.43984
-5.44001
-5.4402
-5.44041
-5.44063
-5.44087
-5.44111
-5.44135
-5.4416
-5.44185
-5.4421
-5.44235
-5.44259
-5.44282
-5.44304
-5.44322
-5.44337
-5.44346
-5.53902
-5.53915
-5.53916
-5.53927
-5.53934
-5.53943
-5.53952
-5.53961
-5.53969
-5.53976
-5.53982
-5.53987
-5.5399
-5.53993
-5.53993
-5.53992
-5.53989
-5.53983
-5.53976
-5.53965
-5.5395
-5.5393
-5.53905
-5.6385
-5.63872
-5.63874
-5.63888
-5.63893
-5.63898
-5.63901
-5.639
-5.63896
-5.63889
-5.63879
-5.63867
-5.63851
-5.63832
-5.6381
-5.63785
-5.63756
-5.63723
-5.63687
-5.63646
-5.63601
-5.6355
-5.63493
-5.73509
-5.73595
-5.73612
-5.73631
-5.73637
-5.73637
-5.7363
-5.73619
-5.73602
-5.7358
-5.73554
-5.73523
-5.73488
-5.73449
-5.73405
-5.73357
-5.73303
-5.73245
-5.73182
-5.73114
-5.7304
-5.72961
-5.72877
267.407
459.983
478.412
386.699
355.569
345.032
341.797
280.138
243.934
213.051
200.564
158.008
138.731
107.779
79.6339
46.1987
38.012
22.2515
6.9216
-1.93855
-1.54143
-1.75844
-1.96079
-2.17916
-1.72557
-1.85359
-2.11722
-2.3558
-1.86093
-1.99294
-2.35299
-2.59196
-2.01645
-2.22933
-2.65661
-2.84206
-2.2396
-2.52458
-2.90694
-3.00797
-2.49546
-2.77033
-3.05864
-3.08467
-2.68154
-2.9284
-3.12595
-3.13529
-2.82777
-3.04222
-3.16094
-3.19608
-2.96617
-3.12397
-3.21689
-3.27267
-3.08669
-3.20643
-3.29117
-3.3604
-3.19828
-3.29634
-3.37837
-3.45334
-3.30887
-3.39334
-3.47251
-3.54853
-3.41809
-3.49359
-3.56919
-3.6443
-3.52566
-3.59467
-3.66627
-3.73944
-3.63155
-3.69512
-3.76257
-3.83312
-3.7357
-3.79435
-3.85751
-3.92483
-3.83812
-3.89209
-3.95081
-4.0143
-3.93884
-3.98826
-4.0424
-4.10149
-4.03793
-4.0829
-4.13233
-4.18653
-4.13552
-4.17612
-4.22077
-4.26973
-4.23176
-4.26809
-4.30794
-4.35144
-4.32686
-4.35904
-4.39412
-4.4321
-4.42103
-4.44919
-4.47962
-4.51214
-4.51447
-4.53879
-4.56473
-4.59198
-4.60739
-4.62806
-4.64976
-4.67201
-4.69997
-4.71723
-4.73496
-4.75257
-4.79237
-4.80647
-4.82055
-4.83395
-4.88475
-4.89595
-4.90672
-4.91635
-4.97722
-4.98578
-4.99361
-4.99995
-5.06987
-5.07608
-5.08131
-5.08482
-5.16281
-5.16692
-5.16989
-5.17103
-5.25605
-5.25832
-5.25937
-5.25857
-5.34956
-5.35025
-5.34968
-5.34735
-5.44352
-5.44281
-5.4409
-5.43736
-5.53833
-5.5364
-5.53333
-5.52883
-5.63351
-5.63052
-5.62654
-5.62134
-5.72674
-5.72293
-5.71831
-5.71282
268.892
208.959
168.337
138.255
105.485
67.8679
39.8788
14.063
-0.626746
-1.50309
-1.63357
-1.54558
-1.45521
-1.20454
1.17477
38.8915
298.296
835.917
1517.98
201.634
146.418
102.789
64.8891
37.818
10.7477
-1.61828
-1.94914
-1.74039
-1.78342
-1.74068
-1.68666
-1.58792
-1.49385
-1.17714
2.70394
57.5593
493.93
1261.37
107.781
66.0217
39.1359
13.8053
-2.00566
-2.2852
-2.12674
-2.14766
-2.05566
-1.98295
-1.9387
-1.87818
-1.77135
-1.67024
-1.53438
-1.0424
4.23737
141.483
867.929
28.3614
8.15912
-2.19312
-2.35623
-2.24169
-2.35436
-2.35599
-2.33215
-2.27663
-2.20733
-2.14678
-2.06714
-1.95613
-1.84698
-1.74021
-1.66877
-1.25664
4.76495
531.64
-2.38792
-2.30357
-2.28747
-2.37008
-2.41069
-2.47034
-2.51454
-2.52032
-2.49002
-2.42954
-2.34891
-2.25749
-2.14719
-2.03851
-1.94555
-1.73416
-2.00171
-2.26341
315.224
-2.35083
-2.38197
-2.40063
-2.45709
-2.52287
-2.58685
-2.6431
-2.66375
-2.64235
-2.58724
-2.51164
-2.4268
-2.32953
-2.22919
-2.19057
-1.90469
-2.59567
3.80065
188.169
-2.46762
-2.49161
-2.50876
-2.56138
-2.63339
-2.70053
-2.74933
-2.76623
-2.74864
-2.70534
-2.64691
-2.58025
-2.50296
-2.42045
-2.36648
-2.15994
-2.24134
9.92151
95.7123
-2.63965
-2.62286
-2.63735
-2.69209
-2.75974
-2.82007
-2.86238
-2.87907
-2.86955
-2.83946
-2.7967
-2.7478
-2.68905
-2.63063
-2.56194
-2.50322
-2.2453
1.9698
30.0462
-2.80295
-2.76522
-2.78254
-2.83281
-2.89327
-2.94934
-2.99142
-3.01415
-3.01685
-3.00294
-2.97806
-2.94852
-2.91163
-2.89044
-2.84506
-2.99125
-3.76678
-24.2368
12.4418
-2.93308
-2.90486
-2.92375
-2.97076
-3.0291
-3.08604
-3.1333
-3.16664
-3.18516
-3.19144
-3.18903
-3.184
-3.17632
-3.19868
-3.20225
-3.44097
-3.94672
-12.6221
28.9072
-3.03711
-3.02886
-3.05638
-3.10557
-3.16606
-3.22807
-3.28515
-3.33376
-3.37277
-3.4042
-3.43046
-3.45634
-3.48406
-3.54075
-3.55039
-3.74652
-3.62281
-4.64538
45.7073
-3.13111
-3.14397
-3.18267
-3.23732
-3.30358
-3.37446
-3.44536
-3.51395
-3.57941
-3.64404
-3.70941
-3.77903
-3.85305
-3.93759
-3.91413
-3.91959
-3.64462
-3.62329
55.5607
-3.22458
-3.25512
-3.30463
-3.36697
-3.44134
-3.52402
-3.61257
-3.70653
-3.80612
-3.91551
-4.03713
-4.17874
-4.32913
-4.45771
-4.39042
-4.20642
-3.82291
-3.45717
61.1455
-3.32038
-3.365
-3.42376
-3.4946
-3.57865
-3.67541
-3.78523
-3.91058
-4.05435
-4.22658
-4.43593
-4.69205
-4.99952
-5.21441
-5.07689
-4.68337
-4.15596
-3.75626
64.2517
-3.41818
-3.47377
-3.5404
-3.61967
-3.71419
-3.82648
-3.96063
-4.12372
-4.32455
-4.58908
-4.94983
-5.43986
-6.02703
-6.39415
-6.12705
-5.4469
-4.74884
-4.56736
67.2253
-3.51734
-3.58078
-3.65401
-3.74104
-3.84602
-3.97418
-4.13417
-4.33999
-4.61118
-5.00834
-5.61613
-6.51328
-7.56666
-8.16192
-7.66879
-6.60958
-5.64655
-5.84994
69.8547
-3.61659
-3.6853
-3.76376
-3.85728
-3.97169
-4.11441
-4.29923
-4.54842
-4.89685
-5.46116
-6.38775
-7.84824
-9.61599
-10.5018
-9.6348
-8.16163
-6.77935
-7.4991
70.8497
-3.71471
-3.78648
-3.86864
-3.9671
-4.08896
-4.24239
-4.44809
-4.73455
-5.1526
-5.87689
-7.07553
-9.15588
-12.4244
-13.6713
-11.9598
-9.94375
-8.04763
-10.4877
69.8079
-3.81062
-3.88353
-3.96757
-4.0691
-4.19649
-4.3534
-4.57414
-4.88612
-5.34983
-6.17282
-7.50402
-10.0888
-15.1329
-16.0749
-13.8307
-11.5347
-9.037
-11.8555
67.7553
-3.90358
-3.97592
-4.05974
-4.16103
-4.28758
-4.44974
-4.67372
-4.99718
-5.47411
-6.32096
-7.61125
-10.279
-15.7822
-16.2162
-14.3707
-12.3304
-9.2524
-12.1451
65.7774
-3.99317
-4.06342
-4.14497
-4.24327
-4.36581
-4.52409
-4.74027
-5.04692
-5.5065
-6.29962
-7.53792
-9.96003
-14.7228
-15.1765
-14.0283
-12.2031
-8.93529
-14.2431
66.6
-4.0793
-4.14608
-4.22347
-4.31624
-4.43115
-4.57892
-4.77813
-5.05506
-5.46812
-6.16208
-7.2399
-9.29817
-13.0407
-13.9142
-13.474
-11.0267
-7.22466
-38.2694
53.9887
-4.16214
-4.22427
-4.29587
-4.38089
-4.48501
-4.61722
-4.79209
-5.0292
-5.37484
-5.94036
-6.75271
-7.95324
-10.7207
-12.751
-12.2595
-9.03752
3.03394
-34.2811
29.3348
-4.24207
-4.2986
-4.36312
-4.43866
-4.52963
-4.64285
-4.78868
-4.98062
-5.25055
-5.67479
-6.26316
-6.8326
-7.98048
-10.268
-10.0659
-7.15096
10.7502
-5.3663
2.57158
-4.31958
-4.36983
-4.42637
-4.49133
-4.56776
-4.66021
-4.77519
-4.92103
-5.11687
-5.40658
-5.81463
-6.23153
-6.66037
-7.85872
-8.91002
-9.29724
0.745415
-3.29428
-1.20596
-4.39527
-4.43884
-4.48692
-4.54079
-4.60221
-4.67366
-4.75843
-4.86043
-4.98815
-5.15934
-5.38616
-5.62806
-5.76349
-5.82549
-4.92997
-3.8318
-2.98678
-2.84857
-2.265
-4.46978
-4.50653
-4.54607
-4.58889
-4.63565
-4.68715
-4.74418
-4.80728
-4.87752
-4.95719
-5.04446
-5.10776
-5.05322
-4.78045
-4.09501
-3.16537
-3.00127
-3.10863
-2.75801
-4.54374
-4.57378
-4.60502
-4.63731
-4.67043
-4.70389
-4.73678
-4.76734
-4.79258
-4.80758
-4.80391
-4.75665
-4.6082
-4.25142
-3.70993
-3.18408
-3.10289
-3.18292
-3.03662
-4.61773
-4.64138
-4.66484
-4.68747
-4.7084
-4.72629
-4.73915
-4.74392
-4.73583
-4.70772
-4.6492
-4.54335
-4.34954
-4.03033
-3.62795
-3.30336
-3.21869
-3.26945
-3.22577
-4.69227
-4.71003
-4.72641
-4.74048
-4.75093
-4.75593
-4.75295
-4.73837
-4.707
-4.65178
-4.56316
-4.42795
-4.22565
-3.94816
-3.63792
-3.40833
-3.35106
-3.39139
-3.39239
-4.76782
-4.78025
-4.79042
-4.79717
-4.79896
-4.79375
-4.77885
-4.75063
-4.7043
-4.6339
-4.53255
-4.39106
-4.2021
-3.9698
-3.73077
-3.55825
-3.50862
-3.53637
-3.55478
-4.84471
-4.85249
-4.85735
-4.85805
-4.853
-4.84011
-4.81681
-4.77983
-4.72512
-4.64829
-4.54453
-4.40953
-4.2424
-4.05209
-3.86718
-3.73422
-3.68613
-3.69901
-3.72154
-4.9232
-4.92702
-4.92751
-4.92343
-4.91323
-4.89497
-4.86632
-4.82451
-4.76647
-4.68921
-4.58981
-4.46714
-4.32356
-4.16878
-4.02401
-3.91906
-3.87387
-3.87627
-3.89695
-5.00346
-5.00402
-5.00105
-4.99339
-4.97961
-4.958
-4.92654
-4.88305
-4.82539
-4.75161
-4.66045
-4.5525
-4.4315
-4.30628
-4.19213
-4.10818
-4.06692
-4.06273
-4.08004
-5.08558
-5.08356
-5.078
-5.06786
-5.0519
-5.02864
-4.99646
-4.95372
-4.89907
-4.83133
-4.75037
-4.65769
-4.55728
-4.45656
-4.36642
-4.29914
-4.26258
-4.25463
-4.26856
-5.16958
-5.16561
-5.15826
-5.14664
-5.1297
-5.10625
-5.07503
-5.03489
-4.98504
-4.92492
-4.85503
-4.77721
-4.69522
-4.61494
-4.54405
-4.49047
-4.45915
-4.44965
-4.46068
-5.25542
-5.25007
-5.24166
-5.22943
-5.21256
-5.19013
-5.16123
-5.12516
-5.08126
-5.02964
-4.97104
-4.90731
-4.84167
-4.77865
-4.72359
-4.68159
-4.65571
-4.64616
-4.65491
-5.34297
-5.33679
-5.32794
-5.31586
-5.29994
-5.27951
-5.25397
-5.2229
-5.18592
-5.1433
-5.09589
-5.04536
-4.99429
-4.94605
-4.90429
-4.87227
-4.85176
-4.84313
-4.8502
-5.43216
-5.42557
-5.41682
-5.40551
-5.39125
-5.37364
-5.35224
-5.32703
-5.29756
-5.26419
-5.22771
-5.1895
-5.15153
-5.11615
-5.08579
-5.06245
-5.04713
-5.03996
-5.04584
-5.52306
-5.51634
-5.50803
-5.49794
-5.4859
-5.47178
-5.45549
-5.43654
-5.41498
-5.39098
-5.36516
-5.33852
-5.31244
-5.28845
-5.26804
-5.25237
-5.24193
-5.23656
-5.24145
-5.61528
-5.60869
-5.60109
-5.59254
-5.58311
-5.57299
-5.56229
-5.55044
-5.5372
-5.52267
-5.50725
-5.49155
-5.47639
-5.46262
-5.45101
-5.44213
-5.43617
-5.43268
-5.43668
-5.70693
-5.70097
-5.69464
-5.68823
-5.68204
-5.67658
-5.67225
-5.66812
-5.66354
-5.65858
-5.65343
-5.6483
-5.64349
-5.63926
-5.63581
-5.63326
-5.6317
-5.63061
-5.63221
)
;

boundaryField
{
    leftWall
    {
        type            calculated;
        value           nonuniform List<scalar> 
50
(
1118.35
1059.08
999.368
939.187
878.494
817.222
755.299
692.669
593.56
454.851
313.919
177.199
68.3166
21.453
-1.68259
-1.74572
-1.87527
-2.03382
-2.17977
-2.32575
-2.4702
-2.61244
-2.75228
-2.88944
-3.02363
-3.15477
-3.28284
-3.40792
-3.53023
-3.64993
-3.76713
-3.88186
-3.99422
-4.10444
-4.21282
-4.31965
-4.42519
-4.52965
-4.63317
-4.73587
-4.83785
-4.93921
-5.04003
-5.14041
-5.24043
-5.34002
-5.43938
-5.53902
-5.6385
-5.73509
)
;
    }
    rightWall
    {
        type            calculated;
        value           nonuniform List<scalar> 
50
(
1452.14
1366.22
1257.61
1186.95
1189.68
1272.03
1388.93
1483.25
1517.98
1261.37
867.929
531.64
315.224
188.169
95.7123
30.0462
12.4418
28.9072
45.7073
55.5607
61.1455
64.2517
67.2253
69.8547
70.8497
69.8079
67.7553
65.7774
66.6
53.9887
29.3348
2.57158
-1.20596
-2.265
-2.75801
-3.03662
-3.22577
-3.39239
-3.55478
-3.72154
-3.89695
-4.08004
-4.26856
-4.46068
-4.65491
-4.8502
-5.04584
-5.24145
-5.43668
-5.63221
)
;
    }
    lowerWall
    {
        type            calculated;
        value           nonuniform List<scalar> 
62
(
1147.78
1148.27
1148.85
1149.28
1149.43
1149.41
1149.39
1149.51
1149.84
1150.43
1151.32
1152.55
1154.15
1156.14
1158.49
1161.14
1163.97
1166.8
1169.36
1171.39
1172.87
1173.98
1174.89
1145.46
1087.41
1030.36
971.769
910.915
847.046
775.968
691.8
330.004
522.581
541.009
449.297
427.975
404.815
357.752
335.396
326.023
321.838
322.429
311.298
436.643
314.888
263.675
263.272
294.417
347.013
455.948
692.345
924.239
873.015
723.682
694.626
810.391
998.944
1143.34
1159.6
1042.77
1028.65
1476.51
)
;
    }
    atmosphere
    {
        type            calculated;
        value           nonuniform List<scalar> 
46
(
-5.77954
-5.7832
-5.7829
-5.783
-5.783
-5.78293
-5.78279
-5.7826
-5.78235
-5.78205
-5.7817
-5.78131
-5.78086
-5.78036
-5.77981
-5.77922
-5.77857
-5.77787
-5.77711
-5.77631
-5.77545
-5.77454
-5.77358
-5.7713
-5.7672
-5.76246
-5.7571
-5.75162
-5.74631
-5.74104
-5.73625
-5.73229
-5.72968
-5.72904
-5.72904
-5.72904
-5.72904
-5.72904
-5.72904
-5.72904
-5.72904
-5.72904
-5.72904
-5.72904
-5.72904
-5.72904
)
;
    }
    defaultFaces
    {
        type            empty;
    }
}


// ************************************************************************* //
