/*--------------------------------*- C++ -*----------------------------------*\
| =========                 |                                                 |
| \\      /  F ield         | OpenFOAM: The Open Source CFD Toolbox           |
|  \\    /   O peration     | Version:  2206                                  |
|   \\  /    A nd           | Website:  www.openfoam.com                      |
|    \\/     M anipulation  |                                                 |
\*---------------------------------------------------------------------------*/
FoamFile
{
    version     2.0;
    format      ascii;
    arch        "LSB;label=32;scalar=64";
    class       surfaceScalarField;
    location    "1";
    object      alphaPhi0.water;
}
// * * * * * * * * * * * * * * * * * * * * * * * * * * * * * * * * * * * * * //

dimensions      [0 3 -1 0 0 0 0];

oriented        oriented;

internalField   nonuniform List<scalar> 
4432
(
-2.12066e-06
2.12066e-06
-7.96736e-07
-1.3239e-06
1.71703e-06
-2.51375e-06
3.43043e-06
-1.7134e-06
3.92721e-06
-4.96777e-07
3.53592e-06
3.91286e-07
2.74803e-06
7.87885e-07
1.97085e-06
7.77167e-07
1.39154e-06
5.79284e-07
1.02947e-06
3.62053e-07
8.28679e-07
2.00772e-07
7.22153e-07
1.06505e-07
6.59813e-07
6.23197e-08
6.14765e-07
4.50287e-08
5.77322e-07
3.74297e-08
5.49304e-07
2.80114e-08
5.52023e-07
-2.7162e-09
5.94803e-07
-4.27732e-08
8.93211e-07
-2.984e-07
1.25668e-06
-3.63462e-07
2.28485e-06
-1.02817e-06
3.74712e-06
-1.46225e-06
3.71185e-06
-2.04815e-06
4.16878e-06
-8.40008e-07
-2.53208e-06
9.3514e-07
-4.28892e-06
1.98432e-06
-2.7626e-06
2.15627e-06
-6.68734e-07
1.73291e-06
8.14647e-07
1.15701e-06
1.36379e-06
7.04364e-07
1.22983e-06
4.98727e-07
7.84946e-07
5.66071e-07
2.94734e-07
8.76941e-07
-1.10076e-07
1.38802e-06
-4.04558e-07
2.06699e-06
-6.16641e-07
2.88587e-06
-7.73844e-07
3.82722e-06
-9.03926e-07
4.88564e-06
-1.03042e-06
6.03945e-06
-1.15655e-06
7.32783e-06
-1.33118e-06
8.52848e-06
-1.49909e-06
1.0013e-05
-1.848e-06
1.15747e-05
-2.58995e-06
9.3918e-06
7.20627e-07
1.31292e-05
-1.94825e-06
6.11704e-06
-1.59406e-06
-2.88626e-06
-9.33157e-07
-4.94984e-06
-6.55455e-07
-3.04031e-06
-7.42477e-07
-5.8173e-07
-9.5321e-07
1.02535e-06
-1.09717e-06
1.50773e-06
-1.09556e-06
1.2282e-06
-9.17655e-07
6.07014e-07
-5.81118e-07
-4.18292e-08
-9.86284e-08
-5.9259e-07
5.22716e-07
-1.02592e-06
1.2724e-06
-1.36633e-06
2.15945e-06
-1.66091e-06
3.20263e-06
-1.9471e-06
4.44385e-06
-2.27164e-06
5.94819e-06
-2.66088e-06
7.83379e-06
-3.21677e-06
1.02007e-05
-3.86601e-06
1.3765e-05
-5.41225e-06
1.71651e-05
-5.99002e-06
1.26336e-05
5.25209e-06
2.5362e-05
-2.53519e-06
8.65223e-06
-4.03794e-06
-1.38351e-06
-4.65808e-06
-4.32969e-06
-4.68745e-06
-3.01094e-06
-4.51948e-06
-7.49688e-07
-4.20232e-06
7.08208e-07
-3.79273e-06
1.09815e-06
-3.28652e-06
7.21993e-07
-2.66953e-06
-9.96714e-09
-1.94707e-06
-7.64286e-07
-1.134e-06
-1.40567e-06
-2.80206e-07
-1.87973e-06
5.8101e-07
-2.22756e-06
1.40291e-06
-2.48282e-06
2.17629e-06
-2.72049e-06
2.9327e-06
-3.02806e-06
3.7746e-06
-3.5028e-06
4.82131e-06
-4.2635e-06
6.34662e-06
-5.39134e-06
8.94899e-06
-8.01461e-06
1.07052e-05
-7.74624e-06
5.21779e-06
1.00383e-05
2.91464e-05
-4.05479e-06
1.2707e-05
-7.92898e-06
2.49067e-06
-9.99733e-06
-2.26135e-06
-9.78633e-06
-3.22194e-06
-8.69224e-06
-1.84379e-06
-7.62763e-06
-3.56418e-07
-6.72086e-06
1.91369e-07
-5.83663e-06
-1.62243e-07
-4.89659e-06
-9.50011e-07
-3.88577e-06
-1.77511e-06
-2.82029e-06
-2.47115e-06
-1.71737e-06
-2.98265e-06
-6.6386e-07
-3.28106e-06
2.52959e-07
-3.39963e-06
9.91717e-07
-3.45924e-06
1.49844e-06
-3.53478e-06
1.66428e-06
-3.66864e-06
1.36158e-06
-3.9608e-06
3.62381e-07
-4.39214e-06
-2.06888e-06
-5.58335e-06
-4.63092e-06
-5.14252e-06
-4.78883e-06
1.0347e-05
2.43015e-05
-3.41482e-06
1.61218e-05
-8.09757e-06
7.17342e-06
-1.01597e-05
-1.99153e-07
-9.91815e-06
-3.46353e-06
-8.88746e-06
-2.87449e-06
-8.16845e-06
-1.07542e-06
-7.87836e-06
-9.87252e-08
-7.35877e-06
-6.8184e-07
-6.47421e-06
-1.83457e-06
-5.28493e-06
-2.96439e-06
-3.80537e-06
-3.95071e-06
-2.09581e-06
-4.69221e-06
-3.40787e-07
-5.03608e-06
1.14497e-06
-4.88538e-06
1.99694e-06
-4.31122e-06
1.99421e-06
-3.53205e-06
1.16219e-06
-2.83662e-06
-5.43354e-07
-2.25526e-06
-3.46783e-06
-1.46767e-06
-8.08259e-06
-9.68582e-07
-1.27894e-05
-4.35025e-07
-8.38554e-06
7.05169e-06
1.58587e-05
2.06292e-06
1.40589e-05
2.59766e-06
6.63869e-06
2.2649e-06
1.33599e-07
-3.39565e-07
-8.619e-07
-2.66504e-06
-5.50375e-07
-3.91138e-06
1.7056e-07
-4.20544e-06
1.9522e-07
-4.33807e-06
-5.49375e-07
-4.57572e-06
-1.59713e-06
-4.47203e-06
-3.06823e-06
-3.80339e-06
-4.61935e-06
-2.85561e-06
-5.6399e-06
-1.99578e-06
-5.89586e-06
-1.25826e-06
-5.62288e-06
-6.71261e-07
-4.8982e-06
-4.91026e-07
-3.71229e-06
-9.50184e-07
-2.37747e-06
-1.98789e-06
-1.21756e-06
-3.6253e-06
1.69743e-07
-5.94442e-06
1.35054e-06
-8.44103e-06
2.06159e-06
-4.59453e-06
3.34133e-06
1.24787e-05
7.94964e-06
2.74031e-07
8.40901e-06
1.05252e-06
4.7142e-06
1.19104e-06
-1.48821e-07
1.52917e-06
-4.43123e-06
1.60364e-06
-7.97885e-06
1.57389e-06
-9.19737e-06
4.28567e-07
-8.88388e-06
-5.66682e-07
-7.98048e-06
-1.33997e-06
-7.00828e-06
-2.37392e-06
-5.58245e-06
-4.1988e-06
-3.77541e-06
-6.23826e-06
-2.33758e-06
-7.15094e-06
-2.06492e-06
-5.89332e-06
-2.226e-06
-4.73606e-06
-1.92539e-06
-4.01244e-06
-1.18078e-06
-3.12194e-06
-4.63754e-07
-1.93457e-06
7.73135e-07
-1.06714e-06
2.51545e-06
-3.91713e-07
3.29807e-06
1.27904e-06
3.4378e-06
3.19579e-06
1.59102e-05
2.19859e-05
-1.98547e-05
4.0928e-05
-1.73203e-05
4.35429e-05
-2.44675e-06
4.47136e-05
-1.05745e-07
5.36149e-05
-5.65914e-06
7.07932e-05
-1.31484e-05
8.72168e-05
-1.39504e-05
9.29676e-05
-4.82914e-06
8.28408e-05
1.20955e-05
1.84774e-05
1.5093e-05
-4.52096e-06
1.18622e-05
-6.64258e-06
1.88065e-06
-3.73216e-08
-4.99197e-06
4.30513e-07
-3.38971e-07
-1.34655e-05
1.38968e-05
-3.23033e-05
1.88353e-05
-4.05311e-05
8.22858e-06
-2.55068e-05
-1.50218e-05
-2.54892e-05
1.43133e-05
-1.99127e-05
1.70952e-05
-1.11836e-05
1.40628e-05
-1.64167e-06
1.30397e-05
1.23728e-06
1.81211e-05
5.49172e-07
3.82326e-05
-1.12245e-06
5.75632e-05
-5.15763e-06
5.3647e-05
-3.19553e-06
2.96235e-05
2.6959e-06
7.46726e-06
4.56973e-06
7.75062e-06
5.21703e-06
5.65507e-06
1.55287e-08
6.35142e-06
-1.59315e-06
4.91943e-06
-7.51512e-07
-1.28344e-05
5.73898e-06
-3.68608e-05
2.11693e-05
-4.0761e-05
1.21281e-05
-2.64917e-05
-2.92735e-05
-5.19423e-05
3.10588e-06
-2.4753e-05
4.33198e-06
-1.33841e-05
4.83388e-06
-3.00588e-06
5.21428e-06
1.85979e-07
4.47824e-06
1.05225e-06
3.4217e-06
-3.3025e-07
3.42223e-06
-5.51861e-06
3.3269e-06
-3.30948e-06
4.24312e-06
1.27274e-06
8.56888e-06
1.72187e-06
9.68277e-06
4.2429e-06
4.7416e-06
1.04194e-06
3.44799e-06
-6.3301e-08
5.20933e-07
-2.07894e-07
-1.13786e-05
1.75234e-06
-4.37837e-05
6.15664e-06
-3.54172e-05
-4.32354e-06
-1.97995e-05
-4.45982e-05
-7.60566e-05
-3.90876e-07
-2.40099e-05
-1.16709e-06
-1.92295e-05
1.61002e-08
-9.19863e-06
1.14165e-06
-1.6729e-06
1.88167e-06
7.92557e-08
4.64636e-06
-3.16974e-06
5.50985e-06
-4.32645e-06
1.66649e-06
-7.96856e-07
7.73661e-07
1.897e-06
4.96037e-06
4.88608e-06
8.38106e-06
2.11964e-06
7.00118e-06
1.88478e-06
1.75479e-06
1.03194e-06
2.91254e-07
3.29277e-07
-6.08694e-07
1.03074e-06
-4.96994e-06
3.24669e-07
-1.59178e-05
-2.28142e-06
-1.29607e-05
-3.98331e-05
-8.01317e-05
-4.78658e-06
-1.87416e-05
-8.47908e-06
-1.50933e-05
-7.70912e-06
-9.38088e-06
-3.74194e-06
-7.35915e-06
-6.59028e-08
-3.34241e-06
1.44316e-06
-3.58134e-06
-9.5071e-07
-8.35122e-07
-2.15438e-06
1.62589e-06
-1.7804e-06
8.1952e-07
1.05713e-06
1.96091e-06
2.23475e-06
1.50191e-06
1.27138e-07
2.424e-07
3.88761e-08
3.49638e-08
3.72203e-07
-2.78659e-08
1.37818e-06
1.50935e-07
1.13112e-06
4.18067e-07
-1.22092e-06
1.77791e-07
-3.56184e-06
-2.05307e-05
-1.30665e-05
-7.37609e-06
-1.09228e-05
-1.25549e-05
-9.40179e-06
-1.07099e-05
-1.83115e-07
-9.44351e-06
-1.78824e-07
-7.96075e-06
-1.59388e-07
-6.11239e-06
-3.40002e-07
-3.69006e-06
-6.66697e-07
-2.25383e-06
-1.68004e-07
-2.78507e-06
5.90819e-07
-1.1351e-06
2.14593e-07
-3.22009e-07
1.26736e-08
-2.69493e-08
-2.85918e-08
6.09082e-08
-1.05968e-09
2.08998e-07
2.04821e-08
5.0341e-07
7.71053e-08
6.99385e-07
2.87427e-07
4.59548e-07
4.50842e-07
-4.49579e-07
-9.78881e-06
-1.52536e-05
-5.09313e-06
-5.31705e-06
-1.46652e-07
-2.6478e-06
-1.03347e-07
-2.26951e-07
-1.08692e-07
-1.57231e-07
-1.44179e-07
-9.73702e-08
-3.53342e-07
-1.1176e-07
-3.13778e-07
-4.82847e-08
-6.30377e-07
4.55597e-08
-4.36299e-07
8.76802e-08
-3.07029e-07
6.30291e-08
-1.80544e-07
-1.63899e-07
6.13235e-08
-4.11094e-07
2.50081e-08
-6.41735e-08
5.36654e-08
8.34769e-09
1.65853e-07
7.12564e-08
3.34984e-07
2.35632e-07
8.67054e-07
8.73194e-07
-1.82697e-08
-1.82107e-06
-1.0897e-05
-1.57293e-06
-3.89502e-07
-1.73849e-08
-1.34195e-06
-7.65248e-09
-2.35196e-07
-4.88971e-08
-9.72564e-08
-8.01983e-08
-4.07783e-08
-1.8493e-07
-6.65381e-09
-2.33321e-07
1.59392e-09
-2.57075e-07
7.82641e-08
-1.93699e-07
4.89645e-08
-1.02203e-07
-4.74892e-08
3.38976e-08
-3.29002e-07
2.88875e-08
-1.49929e-07
2.21695e-08
-2.46178e-08
1.50042e-08
7.04219e-09
4.60247e-08
3.69439e-08
2.7153e-07
1.90727e-07
5.60983e-07
4.55109e-07
3.13131e-07
-1.18759e-07
-4.87678e-05
-1.30442e-07
1.1441e-09
-3.40498e-07
6.40702e-10
-4.55013e-07
-4.85078e-09
-6.83947e-07
-6.62805e-10
-1.11454e-06
2.28883e-08
-1.41768e-06
1.1125e-08
-1.63305e-06
-1.17758e-08
-2.08989e-06
-2.20294e-10
-2.46594e-06
-5.46189e-11
-2.71115e-06
-9.78928e-10
-2.69367e-06
-1.19971e-08
-1.93283e-06
-1.19513e-07
7.88402e-07
-9.00161e-07
4.08642e-06
-2.82167e-06
5.41911e-06
-2.65125e-06
5.71626e-06
-2.40815e-06
5.73048e-06
-2.20956e-06
5.93389e-06
-1.86177e-06
7.02145e-06
-2.10328e-06
9.81811e-06
-3.18794e-06
1.2767e-05
-1.65555e-06
1.611e-05
-1.40328e-07
1.23293e-06
3.07896e-05
-3.16533e-10
-3.68492e-11
-4.22282e-09
3.30107e-10
-1.03632e-08
4.57474e-11
-1.45791e-08
3.86361e-10
2.18451e-09
1.32249e-09
1.1937e-08
-9.99699e-10
2.23616e-10
-5.11349e-11
-1.38939e-12
-2.06962e-13
-5.80672e-11
-2.53519e-13
-1.03746e-09
-1.86958e-14
-1.30323e-08
-4.34646e-12
-1.32472e-07
-9.85318e-11
-1.03232e-06
-1.8526e-10
-4.30897e-07
-2.60689e-08
8.06441e-07
-1.74997e-07
3.49131e-06
-4.83445e-07
6.65382e-06
-7.09418e-07
9.74125e-06
-8.18449e-07
1.3229e-05
-2.16815e-06
1.77459e-05
-5.68435e-06
2.09155e-05
-4.15727e-06
2.30944e-05
-7.96425e-07
9.16251e-07
2.43043e-05
-8.09497e-11
-3.25701e-13
-1.73855e-11
2.93641e-11
2.18308e-13
9.44796e-13
3.44748e-10
8.62934e-13
1.48376e-09
9.20511e-12
3.9529e-10
-6.63977e-12
1.60799e-11
8.09703e-13
6.42939e-13
1.09844e-13
3.57841e-13
-3.16953e-16
7.49574e-14
-2.66917e-14
4.06502e-13
-5.15967e-12
4.43329e-12
-1.04638e-10
1.85825e-13
-2.06784e-10
-2.59363e-08
-6.65255e-12
-1.96215e-07
-1.35516e-08
-6.67118e-07
-7.80234e-08
-1.43255e-06
-2.01274e-07
-3.62972e-06
-4.60582e-07
-8.14467e-06
-1.05954e-06
-1.57916e-05
-1.82554e-06
-1.85063e-05
-2.84183e-06
-1.48484e-05
-2.94505e-06
-2.50411e-07
-1.03873e-05
-1.16944e-11
2.59672e-12
-6.64266e-13
7.35424e-13
-3.74262e-14
1.43611e-14
8.30256e-13
-1.75907e-15
9.86712e-12
6.35365e-15
2.25169e-12
2.42635e-14
4.62276e-14
-1.54296e-14
2.75415e-14
1.0212e-14
2.50372e-16
2.36254e-17
-7.38396e-14
1.54035e-14
-5.74512e-12
-7.13821e-13
-1.92559e-10
5.49774e-11
-3.2995e-09
2.99358e-09
-3.76827e-08
2.55536e-08
-3.04416e-07
9.705e-08
-7.28921e-07
6.16775e-08
-1.21751e-06
-4.03182e-08
-8.32899e-07
-5.00531e-08
-1.38953e-06
-9.60154e-08
-1.54114e-06
-1.67772e-07
-1.63343e-06
-1.93596e-07
-2.26994e-06
-2.16026e-07
-9.52883e-08
-1.75565e-06
-4.34098e-13
-1.12585e-13
-1.27181e-14
2.10293e-14
1.6741e-15
5.20856e-23
2.03261e-17
-1.35807e-19
6.39264e-15
-7.59224e-17
2.17892e-14
6.17111e-17
1.21232e-15
8.82697e-16
-2.88319e-15
4.59236e-16
-3.63959e-14
1.17655e-14
-4.64722e-13
2.71963e-13
-1.18545e-11
5.64761e-12
-2.4355e-10
1.92897e-10
-1.42867e-09
3.2137e-09
-3.06095e-08
2.2051e-08
-3.62989e-07
7.82209e-08
-2.27681e-07
-4.13294e-09
-2.83925e-08
-5.85233e-10
-7.59613e-08
-3.71397e-09
-8.45716e-08
-1.0845e-08
-1.26682e-07
-2.31844e-08
-1.86603e-07
-3.61861e-08
-4.29897e-07
-1.63077e-08
-2.83565e-08
-5.70812e-07
-4.39625e-14
9.21668e-13
1.89096e-22
-2.29338e-14
-5.42893e-22
-9.42324e-24
-1.31672e-19
-1.97377e-21
-7.60968e-17
-1.44515e-21
-6.33621e-17
-5.98824e-18
-3.21773e-16
5.69689e-17
-4.32076e-15
8.8592e-16
-2.41461e-14
2.09677e-14
-3.50775e-13
4.01075e-13
-3.87408e-12
5.58175e-12
3.39791e-11
1.05606e-10
1.74642e-09
9.90031e-10
-3.37194e-08
1.52599e-08
-4.06176e-08
-6.26516e-09
-3.5958e-09
3.40133e-10
-3.2424e-09
-1.2314e-11
-6.20148e-09
-4.74155e-12
-1.47537e-08
1.2579e-10
-4.94707e-08
5.87234e-11
-9.81597e-08
-1.3896e-09
-1.16559e-07
-1.76577e-10
-6.17758e-09
-1.29298e-07
-7.03874e-14
1.52583e-12
-1.55755e-21
1.71226e-14
-1.53336e-21
-3.36115e-23
-6.38803e-21
-1.21029e-21
-9.71323e-19
4.45113e-20
-1.07475e-17
2.64808e-18
-1.46549e-16
5.95948e-17
-1.16079e-15
1.28996e-15
-1.02649e-14
2.24171e-14
-8.65315e-14
3.0322e-13
-7.02792e-13
3.69296e-12
4.06488e-11
3.52278e-11
-1.75025e-09
5.49614e-10
-3.65168e-09
-4.53444e-10
-1.51593e-09
8.51057e-10
-3.57204e-10
1.07168e-10
-1.77746e-10
6.82653e-12
-7.29379e-10
5.36951e-12
-1.58501e-09
-1.14812e-10
-4.98834e-09
-2.35937e-10
-1.03004e-08
-3.5901e-10
-1.26221e-08
-6.44477e-10
-5.52284e-10
-1.54391e-08
-3.45827e-15
1.68648e-12
-3.42505e-21
5.12913e-15
-3.97324e-21
-4.84195e-23
-8.38242e-21
-5.44677e-22
-4.32966e-19
9.60832e-20
-1.23563e-17
4.18351e-18
-1.44244e-16
9.5593e-17
-7.43342e-16
1.30976e-15
-3.54233e-15
1.64112e-14
-2.60756e-14
1.91991e-13
2.24994e-14
2.14472e-12
-6.37889e-14
1.40974e-11
-5.66995e-10
1.30595e-10
-7.50302e-10
4.35732e-11
-2.31178e-10
1.93897e-10
-4.88643e-11
2.7072e-11
-2.8971e-11
1.74747e-12
-4.06768e-11
-9.18843e-12
-9.87915e-11
-1.99306e-11
-1.94928e-10
-3.19295e-11
-4.4958e-10
-4.75795e-11
-9.75185e-10
-5.96059e-11
-3.1658e-11
-1.33437e-09
-4.83744e-15
1.84725e-12
-6.67062e-21
2.91688e-16
-7.59898e-21
2.17671e-23
-1.69864e-20
1.66046e-21
-5.83785e-19
1.81787e-19
-1.4853e-17
5.09718e-18
-1.90216e-16
8.82587e-17
-5.25232e-16
8.92076e-16
1.4823e-15
7.33116e-15
4.53885e-14
6.68612e-14
9.04886e-13
4.87683e-13
-3.16032e-11
5.57473e-12
-1.17739e-10
-1.51666e-11
-1.85219e-10
1.41093e-11
-4.63756e-11
3.23234e-11
-9.84544e-12
4.72047e-12
-3.93617e-12
2.06195e-13
-4.52949e-12
-1.35328e-12
-7.73044e-12
-2.75794e-12
-1.31359e-11
-4.52617e-12
-2.34699e-11
-6.17663e-12
-4.52923e-11
-6.49832e-12
-4.20627e-12
-4.03896e-11
-2.73799e-16
2.02228e-12
-3.3415e-21
1.78888e-17
-4.88012e-21
1.53654e-22
-1.50812e-20
2.51512e-21
-4.42145e-19
1.27914e-19
-8.85559e-18
2.73162e-18
-1.38944e-16
3.84648e-17
-8.68853e-16
4.43286e-16
3.96667e-16
2.6796e-15
2.44197e-14
1.44798e-14
8.45069e-14
6.96378e-14
-2.47262e-12
-8.32592e-14
-2.49044e-11
-2.07065e-12
-2.89238e-11
2.2121e-12
-7.75822e-12
4.83843e-12
-1.64904e-12
7.83939e-13
-6.14349e-13
3.53781e-14
-6.38654e-13
-1.83815e-13
-1.11265e-12
-4.07747e-13
-1.73271e-12
-7.23474e-13
-2.5249e-12
-1.03059e-12
-3.04689e-12
-9.84043e-13
-4.46039e-13
-1.97713e-12
-1.66266e-17
2.2047e-12
-3.39485e-22
1.25894e-18
-3.36244e-21
2.64755e-22
-7.42399e-21
1.27076e-21
-1.88343e-19
4.68648e-20
-3.2148e-18
8.54078e-19
-4.1928e-17
1.06611e-17
-4.32972e-16
1.08032e-16
-2.01817e-15
9.66356e-16
-2.74309e-15
4.29308e-15
-2.99413e-14
1.16705e-14
-4.65404e-13
-4.41417e-15
-3.43852e-12
-1.93202e-13
-3.93128e-12
3.19686e-13
-1.1212e-12
6.42621e-13
-2.38537e-13
1.00395e-13
-9.56907e-14
2.09668e-14
-1.10826e-13
4.63729e-15
-2.06772e-13
-2.65237e-14
-3.30164e-13
-7.53523e-14
-4.46972e-13
-1.30766e-13
-4.48719e-13
-1.18167e-13
-7.69829e-15
-2.87767e-13
-1.17012e-18
2.38465e-12
-1.19958e-20
1.03814e-19
-7.8101e-22
1.44028e-21
-2.81106e-21
4.1765e-22
-5.24765e-20
1.21878e-20
-8.15621e-19
2.0113e-19
-9.54154e-18
2.31635e-18
-9.18879e-17
2.145e-17
-7.12792e-16
1.72077e-16
-2.97635e-15
1.17549e-15
-1.14413e-14
4.3092e-15
-8.45325e-14
4.66093e-15
-4.38778e-13
-8.49565e-15
-5.08865e-13
5.17801e-14
-1.55323e-13
8.91715e-14
-3.52425e-14
1.22588e-14
-2.00951e-14
1.49778e-14
-2.85158e-14
1.96318e-14
-4.88078e-14
2.14737e-14
-7.91747e-14
2.11377e-14
-1.08961e-13
2.43394e-14
-1.13783e-13
2.77742e-14
5.1568e-14
-1.05036e-13
-1.75625e-19
2.55288e-12
-3.96454e-21
1.90748e-20
-1.7249e-22
1.75818e-21
-5.27112e-22
8.84039e-23
-1.10632e-20
2.61709e-21
-1.60379e-19
4.00468e-20
-1.7492e-18
4.31667e-19
-1.55513e-17
3.78381e-18
-1.1927e-16
2.88119e-17
-7.8932e-16
1.9819e-16
-3.26834e-15
1.1739e-15
-1.34404e-14
3.67249e-15
-5.85953e-14
4.42883e-15
-6.30458e-14
1.10994e-14
-2.07285e-14
1.58275e-14
-6.82469e-15
6.1644e-15
-7.54952e-15
8.37061e-15
-1.15989e-14
1.29806e-14
-1.75582e-14
1.73405e-14
-3.04565e-14
2.45373e-14
-4.70156e-14
3.90419e-14
-5.90137e-14
7.02596e-14
1.02327e-13
-6.91034e-14
-9.81648e-21
2.72199e-12
-9.87314e-22
2.16009e-21
-3.19706e-23
8.29996e-22
-9.47404e-23
1.79415e-23
-1.98203e-21
5.05574e-22
-2.7209e-20
7.37235e-21
-2.8171e-19
7.5463e-20
-2.40306e-18
6.37093e-19
-1.78537e-17
4.76264e-18
-1.19802e-16
3.22991e-17
-7.2302e-16
1.97727e-16
-2.80174e-15
1.01767e-15
-8.01868e-15
2.53496e-15
-8.35486e-15
3.42958e-15
-2.94855e-15
3.53671e-15
-2.6564e-15
2.79074e-15
-3.81237e-15
4.60656e-15
-5.82629e-15
7.37002e-15
-9.60958e-15
1.08077e-14
-1.88539e-14
1.8623e-14
-3.0103e-14
4.50068e-14
-4.96564e-14
1.22122e-13
1.9515e-13
-8.75189e-14
-2.36983e-21
6.06365e-13
-3.30476e-22
3.08829e-22
-5.34595e-24
2.76411e-22
-1.58599e-23
3.43165e-24
-3.25123e-22
9.18991e-23
-4.2941e-21
1.30378e-21
-4.27514e-20
1.28485e-20
-3.55991e-19
1.05376e-19
-2.62675e-18
7.78461e-19
-1.75981e-17
5.26449e-18
-1.06777e-16
3.17342e-17
-5.27757e-16
1.58943e-16
-1.34981e-15
5.72671e-16
-1.41718e-15
1.03293e-15
-8.68907e-16
1.16113e-15
-1.0694e-15
1.25731e-15
-1.82279e-15
2.06254e-15
-3.01257e-15
3.66321e-15
-4.34763e-15
6.13382e-15
-4.60521e-15
1.31703e-14
-4.95373e-14
7.88422e-14
-8.67412e-13
9.30753e-13
1.05042e-11
-1.11766e-11
-2.99428e-22
-1.69553e-15
-3.02977e-23
4.9284e-23
-8.54912e-25
9.77191e-24
-2.61477e-24
7.4555e-25
-5.08943e-23
1.60109e-23
-6.54957e-22
2.24297e-22
-6.34348e-21
2.15001e-21
-5.19923e-20
1.72475e-20
-3.8334e-19
1.25995e-19
-2.58522e-18
8.48802e-19
-1.55768e-17
5.08323e-18
-7.31472e-17
2.48459e-17
-2.11383e-16
8.62467e-17
-2.78735e-16
1.9578e-16
-2.6984e-16
2.78677e-16
-3.53577e-16
3.76393e-16
-6.65555e-16
6.70823e-16
-1.06657e-15
1.42584e-15
-9.2765e-16
3.47302e-15
-2.01277e-14
2.76282e-14
-3.71094e-13
3.93981e-13
-5.60359e-12
5.65345e-12
6.98438e-11
-7.02507e-11
-3.2776e-23
1.25286e-14
-1.71009e-24
1.03267e-23
-1.54503e-25
3.42517e-24
-4.96429e-25
2.49905e-25
-7.81195e-24
2.69278e-24
-9.86214e-23
3.78727e-23
-9.34831e-22
3.54504e-22
-7.57424e-21
2.79178e-21
-5.57473e-20
2.01793e-20
-3.76899e-19
1.34989e-19
-2.26237e-18
8.02602e-19
-1.03375e-17
3.88747e-18
-2.92725e-17
1.33615e-17
-4.52024e-17
3.03235e-17
-5.58459e-17
4.93945e-17
-8.45585e-17
7.91549e-17
-1.89246e-16
1.73531e-16
-3.40053e-16
4.97208e-16
4.26604e-16
2.36304e-15
-6.27624e-15
2.99234e-14
-1.16036e-13
4.56864e-13
-2.17342e-12
6.9839e-12
9.26294e-11
-3.46378e-11
-2.58841e-18
1.24875e-14
-2.82528e-24
2.17683e-19
-5.00187e-26
5.18451e-25
-1.44219e-25
1.48736e-25
-1.19648e-24
4.39946e-25
-1.48891e-23
6.32364e-24
-1.37993e-22
5.77478e-23
-1.10381e-21
4.46096e-22
-8.0743e-21
3.18589e-21
-5.42841e-20
2.11026e-20
-3.22057e-19
1.24184e-19
-1.44216e-18
5.96958e-19
-4.04007e-18
2.06622e-18
-6.76644e-18
4.87059e-18
-9.56278e-18
8.69505e-18
-1.62052e-17
1.59408e-17
-3.773e-17
4.17238e-17
-1.48188e-16
1.74843e-16
-2.09528e-16
1.41187e-15
1.82192e-14
1.07388e-14
3.19984e-13
1.40514e-13
4.81142e-12
2.08913e-12
2.90978e-11
6.30172e-11
-2.53098e-18
7.65136e-15
-3.71231e-25
2.88012e-18
-3.30028e-26
1.31603e-25
-7.45e-26
1.10324e-25
-1.86946e-25
8.42137e-26
-2.28068e-24
1.04636e-24
-2.05367e-23
9.31114e-24
-1.61087e-22
7.02431e-23
-1.16152e-21
4.93601e-22
-7.68859e-21
3.22499e-21
-4.46528e-20
1.87303e-20
-1.95342e-19
8.92894e-20
-5.4628e-19
3.11994e-19
-9.76799e-19
7.69726e-19
-1.51852e-18
1.50707e-18
-2.80224e-18
3.1578e-18
-7.60115e-18
9.92917e-18
-4.00138e-17
5.5713e-17
-2.24205e-16
5.47522e-16
1.8903e-15
5.04509e-15
7.12089e-14
4.06678e-14
9.50996e-13
6.44015e-13
1.03619e-11
1.10826e-11
-1.08537e-18
3.67367e-15
-2.41902e-26
3.61514e-18
-4.9909e-26
1.09307e-25
-1.42368e-26
2.10175e-25
-3.42419e-26
2.70909e-26
-3.56833e-25
1.69661e-25
-3.09728e-24
1.48643e-24
-2.35691e-23
1.08716e-23
-1.65643e-22
7.46934e-23
-1.06723e-21
4.78982e-22
-6.00726e-21
2.73692e-21
-2.55337e-20
1.29265e-20
-7.10332e-20
4.55888e-20
-1.32857e-19
1.17288e-19
-2.20576e-19
2.49865e-19
-4.38303e-19
5.93596e-19
-1.35601e-18
2.21957e-18
-7.93532e-18
1.5059e-17
-5.92574e-17
1.57065e-16
-8.43124e-17
1.73584e-15
3.11659e-15
1.3587e-14
6.61627e-14
1.36851e-13
2.0517e-12
3.51734e-12
-6.79459e-19
1.81225e-15
-6.48688e-26
3.78326e-18
-1.25125e-25
1.21655e-25
-5.29948e-27
5.62761e-25
-9.77893e-27
1.83129e-26
-5.69285e-26
2.68456e-26
-4.74806e-25
2.34298e-25
-3.45853e-24
1.64711e-24
-2.33849e-23
1.09777e-23
-1.44878e-22
6.87056e-23
-7.82335e-22
3.84986e-22
-3.20697e-21
1.79921e-21
-8.79523e-21
6.39898e-21
-1.67945e-20
1.70953e-20
-2.87648e-20
3.91751e-20
-5.91772e-20
1.0358e-19
-1.88964e-19
4.43736e-19
-9.16126e-19
3.34829e-18
-3.03264e-18
3.53084e-17
6.20059e-17
4.04944e-16
2.74426e-15
3.56206e-15
8.78617e-14
2.08621e-14
4.22905e-13
1.61792e-12
-5.87247e-19
9.71125e-16
-2.39418e-25
3.39011e-18
-2.97413e-25
1.51113e-25
-5.51037e-27
1.18109e-24
-4.70119e-27
1.37801e-26
-9.3796e-27
6.83531e-27
-7.39144e-26
3.60178e-26
-5.07925e-25
2.42685e-25
-3.25906e-24
1.55567e-24
-1.91843e-23
9.44994e-24
-9.83894e-23
5.17753e-23
-3.85529e-22
2.39152e-22
-1.02899e-21
8.56673e-22
-1.94985e-21
2.36615e-21
-3.28237e-21
5.76525e-21
-6.32246e-21
1.65646e-20
-1.47729e-20
7.7338e-20
2.56244e-20
6.09334e-19
2.11952e-18
6.533e-18
4.78207e-17
7.3233e-17
8.01952e-16
7.14493e-16
2.10203e-14
3.31896e-15
6.19424e-14
3.65152e-13
-5.63779e-19
5.81368e-16
-2.95146e-23
3.0046e-18
-8.96453e-25
2.28626e-24
-1.57379e-26
2.19751e-24
-9.79941e-28
3.15588e-26
-2.44512e-27
4.1168e-27
-1.15636e-26
5.21876e-27
-7.41983e-26
3.44034e-26
-4.45671e-25
2.10476e-25
-2.46506e-24
1.23537e-24
-1.18956e-23
6.60609e-24
-4.41214e-23
3.01459e-23
-1.12707e-22
1.08656e-22
-2.04119e-22
3.08911e-22
-3.08759e-22
7.90839e-22
-3.97941e-22
2.40829e-21
1.1574e-21
1.1832e-20
4.08724e-20
9.6215e-20
8.18014e-19
1.02378e-18
1.37916e-17
1.12469e-17
1.8604e-16
1.10551e-16
2.67085e-15
7.12653e-16
7.0964e-15
5.45313e-14
-5.70153e-19
3.95096e-16
-1.16236e-22
2.72444e-18
-3.88399e-24
2.06133e-22
-8.46632e-26
6.77202e-24
-5.35883e-28
1.61943e-25
-1.50061e-27
1.35129e-27
-1.77342e-27
9.81242e-28
-1.06432e-26
4.59265e-27
-5.91397e-26
2.6821e-26
-3.04493e-25
1.51801e-25
-1.37132e-24
7.9256e-25
-4.76354e-24
3.57725e-24
-1.13877e-23
1.29733e-23
-1.85235e-23
3.78216e-23
-1.97296e-23
1.0061e-22
2.72889e-23
3.19425e-22
7.19199e-22
1.62742e-21
1.14105e-20
1.33787e-20
1.85591e-19
1.40936e-19
2.8052e-18
1.53029e-18
3.53717e-17
1.47456e-17
3.52131e-16
1.19767e-16
6.79018e-16
6.0893e-15
-5.82617e-19
3.03305e-16
-5.27972e-22
2.54409e-18
-2.56352e-23
1.26844e-21
-7.50099e-25
3.94223e-23
-2.40362e-27
1.14568e-24
-1.79767e-28
3.98712e-27
-3.60242e-28
5.2999e-28
-1.46206e-27
5.50999e-28
-7.48023e-27
3.16091e-27
-3.5615e-26
1.72931e-26
-1.48716e-25
8.8501e-26
-4.77954e-25
3.96554e-25
-1.03291e-24
1.44947e-24
-1.3134e-24
4.32306e-24
2.24228e-25
1.18721e-23
1.49748e-23
3.90693e-23
1.65988e-22
2.03404e-22
2.19623e-21
1.67799e-21
3.25356e-20
1.7555e-20
4.6069e-19
1.87602e-19
5.5122e-18
1.76834e-18
5.0642e-17
1.32616e-17
8.66286e-17
5.24697e-16
-6.36766e-19
2.629e-16
-3.30028e-21
2.72831e-18
-2.44585e-22
7.39804e-21
-7.90149e-24
3.05551e-22
-3.34553e-26
8.74374e-24
-8.47272e-29
4.74879e-26
-1.58578e-28
1.50271e-28
-1.8412e-28
7.92963e-29
-8.7835e-28
3.35671e-28
-3.85701e-27
1.797e-27
-1.48613e-26
9.09706e-27
-4.34599e-26
4.07588e-26
-7.92741e-26
1.50769e-25
-4.36098e-26
4.60435e-25
3.73266e-25
1.3068e-24
3.12961e-24
4.41695e-24
2.83851e-23
2.33402e-23
3.44483e-22
1.92911e-22
4.80521e-21
1.99543e-21
6.47075e-20
2.09114e-20
7.39372e-19
1.92109e-19
6.52701e-18
1.37294e-18
9.59427e-18
5.70025e-17
-7.4646e-19
2.69843e-16
-2.25609e-20
3.38811e-18
-2.70721e-21
4.83234e-20
-1.10482e-22
2.78027e-21
-6.13885e-25
8.25118e-23
-5.95406e-28
6.09857e-25
-1.41083e-29
7.61026e-28
-2.79571e-29
3.94773e-29
-9.20662e-29
3.39881e-29
-3.74545e-28
1.67146e-28
-1.3251e-27
8.51716e-28
-3.41518e-27
3.85977e-27
-4.34987e-27
1.45499e-26
7.33731e-27
4.58148e-26
7.85852e-26
1.34081e-25
4.93238e-25
4.63339e-25
4.06779e-24
2.47513e-24
4.66578e-23
2.04031e-23
6.20485e-22
2.0795e-22
7.98953e-21
2.12978e-21
8.73123e-20
1.89948e-20
7.35203e-19
1.30787e-19
8.31612e-19
5.98584e-18
-8.03147e-19
2.90754e-16
-1.45366e-19
8.19468e-18
-2.92178e-20
3.57225e-19
-1.62235e-21
2.77284e-20
-1.57662e-23
7.75961e-22
-1.02124e-26
9.6179e-24
-3.60006e-30
1.07679e-26
-8.75254e-30
5.67791e-30
-8.93982e-30
8.19866e-30
-3.10863e-29
1.3544e-29
-9.98833e-29
7.18756e-29
-2.07361e-28
3.35624e-28
-7.68696e-30
1.30523e-27
2.02511e-27
4.26751e-27
1.19227e-26
1.28462e-26
6.584e-26
4.52825e-26
5.10908e-25
2.43555e-25
5.6041e-24
1.99543e-24
7.14283e-23
1.99863e-23
8.8112e-22
1.99486e-22
9.20752e-21
1.72172e-21
7.38495e-20
1.14106e-20
6.73974e-20
5.58095e-19
9.85195e-18
3.24813e-16
-5.63247e-19
4.55837e-17
-2.35007e-19
2.74466e-18
-2.04409e-20
2.81799e-19
-3.00429e-22
6.88723e-21
-4.95055e-25
9.29682e-23
-1.65481e-29
3.79875e-25
-8.30765e-31
2.14168e-29
-1.38763e-30
1.38316e-30
-2.01819e-30
1.72429e-30
-5.62672e-30
5.98907e-30
-5.79095e-30
2.67482e-29
4.17622e-29
1.09836e-28
3.17949e-28
3.7279e-28
1.51758e-27
1.15471e-27
7.76182e-27
4.14312e-27
5.7489e-26
2.2371e-26
6.06233e-25
1.8168e-25
7.42256e-24
1.78243e-24
8.77572e-23
1.7285e-23
8.7609e-22
1.43919e-22
6.68614e-21
9.15845e-22
5.07655e-21
4.69802e-20
5.42057e-17
3.88086e-16
1.22112e-18
1.65325e-16
-8.03659e-19
1.83871e-17
-1.46799e-19
2.43663e-18
-2.9316e-21
6.11134e-20
-1.1427e-23
3.30186e-22
-3.90165e-28
6.34484e-24
-6.37629e-31
5.89214e-28
-1.26171e-31
1.19949e-30
-1.55911e-31
9.54172e-31
-1.51358e-31
1.72425e-30
7.24887e-31
3.39467e-30
7.6306e-30
8.5876e-30
3.99044e-29
3.07009e-29
1.70456e-28
9.8075e-29
8.25684e-28
3.57509e-28
5.87646e-27
1.93136e-27
5.9712e-26
1.54744e-26
7.01437e-25
1.47261e-25
7.93759e-24
1.37733e-24
7.5573e-23
1.10199e-23
5.48712e-22
6.74908e-23
3.53448e-22
3.5938e-21
1.02108e-16
3.49052e-16
2.39303e-17
3.46099e-16
1.53894e-18
8.52867e-17
-2.73569e-19
1.44812e-17
-1.23149e-20
5.52511e-19
-7.89497e-23
8.64285e-22
-1.226e-26
4.72246e-23
-7.4745e-30
2.8209e-26
-2.01819e-32
4.162e-29
-1.74908e-33
2.84789e-31
3.0869e-32
4.59624e-31
1.57632e-31
1.81522e-30
9.31169e-31
1.9845e-30
4.33848e-30
2.75232e-30
1.73344e-29
7.94064e-30
8.04254e-29
2.93483e-29
5.51043e-28
1.57239e-28
5.37036e-27
1.21518e-27
5.9748e-26
1.09756e-26
6.41074e-25
1.27668e-25
5.80661e-24
9.89875e-25
4.04146e-23
4.51527e-24
2.23908e-23
2.49476e-22
1.00743e-16
2.77146e-16
7.49643e-17
4.65937e-16
1.7927e-17
2.1797e-16
2.42559e-18
5.03493e-17
4.135e-20
3.07719e-18
-9.6973e-24
1.90715e-20
1.9677e-25
3.72235e-22
3.1859e-28
1.04043e-24
4.08982e-30
6.22668e-27
1.29482e-30
5.41785e-29
9.41969e-32
5.78505e-31
5.87076e-32
3.56496e-31
1.37907e-31
5.60709e-31
3.80699e-31
1.08388e-30
1.62344e-30
6.22867e-31
7.24821e-30
2.30307e-30
4.72899e-29
1.18638e-29
4.28778e-28
1.1422e-28
5.74953e-27
1.23861e-27
5.86601e-26
5.5493e-26
3.72828e-25
6.51928e-25
2.52057e-24
8.4456e-25
1.88184e-24
1.52934e-23
6.01893e-17
1.74142e-16
8.99521e-17
4.41492e-16
4.54253e-17
3.01106e-16
1.04989e-17
8.31499e-17
6.26163e-19
6.54897e-18
1.16313e-20
1.35984e-19
1.49793e-22
5.20004e-21
3.59736e-24
2.04938e-22
6.85561e-26
4.4138e-24
1.15178e-27
7.94798e-26
2.04949e-29
1.306e-27
1.23155e-30
2.11394e-29
9.20725e-32
4.03881e-31
6.45544e-32
2.36347e-31
1.24488e-31
1.03547e-31
6.01242e-31
1.7535e-31
4.7519e-30
1.22629e-30
5.11912e-29
4.60313e-29
5.13199e-28
6.67141e-28
1.18411e-27
2.21912e-27
-2.76976e-27
-4.5195e-27
1.91359e-25
2.11423e-25
1.15446e-24
9.18736e-25
1.45935e-17
6.40006e-17
6.25306e-17
3.84234e-16
4.91579e-17
2.91891e-16
1.40626e-17
8.50697e-17
1.1847e-18
7.6647e-18
4.11122e-20
2.58258e-19
1.08367e-21
1.38347e-20
2.27946e-23
8.47697e-22
7.26667e-25
3.04485e-23
1.8268e-26
8.19954e-25
3.9682e-28
1.93277e-26
8.34823e-30
4.12715e-28
1.8657e-31
8.36664e-30
1.85688e-32
1.4174e-31
1.38525e-32
2.88695e-32
6.42056e-32
1.38523e-32
4.29472e-31
7.49402e-31
9.5143e-31
2.35419e-30
-1.78452e-28
-3.9235e-28
-3.56462e-27
-6.92332e-27
-3.66255e-26
-6.2523e-26
-1.30857e-25
-1.95333e-25
-3.27128e-25
-2.52021e-25
-6.30977e-19
1.90242e-17
3.22173e-17
3.15936e-16
3.75236e-17
2.38073e-16
1.26674e-17
6.68169e-17
1.17752e-18
6.0758e-18
5.39134e-20
3.05579e-19
2.03598e-21
2.00406e-20
6.17619e-23
1.20851e-21
1.53803e-24
5.19277e-23
3.37207e-26
1.86639e-24
9.25067e-28
5.41375e-26
2.54166e-29
1.37216e-27
6.9239e-31
3.23452e-29
4.25719e-32
7.20675e-31
2.92951e-33
1.87652e-32
4.10592e-33
1.5468e-33
-4.27262e-32
-1.20571e-31
-2.30577e-30
-5.91567e-30
-1.34741e-28
-3.11109e-28
-2.09869e-27
-4.32686e-27
-1.86408e-26
-3.40926e-26
-6.9771e-26
-1.12511e-25
-2.64787e-25
-1.87415e-25
-8.23977e-18
7.71701e-18
1.42551e-17
2.07336e-16
2.51692e-17
1.47958e-16
7.8082e-18
3.43888e-17
6.97757e-19
2.88596e-18
3.97686e-20
1.85138e-19
1.90686e-21
1.51856e-20
7.00992e-23
1.09138e-21
2.09133e-24
5.64402e-23
5.48828e-26
2.14544e-24
1.2985e-27
6.81486e-26
2.89159e-29
1.8675e-27
6.33709e-31
4.61717e-29
1.41199e-32
1.07488e-30
4.80084e-34
2.39962e-32
6.09229e-34
6.18676e-34
-4.8357e-32
-1.43458e-31
-1.4364e-30
-3.92722e-30
-6.28545e-29
-1.56486e-28
-8.66964e-28
-1.94709e-27
-6.82042e-27
-1.37116e-26
-2.34769e-26
-4.19534e-26
-1.14149e-25
-7.23606e-26
-4.93426e-18
2.70501e-18
7.63373e-18
9.92912e-17
1.32165e-17
6.04485e-17
3.17298e-18
1.13977e-17
2.75593e-19
9.77703e-19
1.81824e-20
7.7312e-20
1.00943e-21
6.63755e-21
4.42625e-23
4.87561e-22
1.55728e-24
2.85312e-23
4.58856e-26
1.29093e-24
1.19623e-27
4.7037e-26
2.86122e-29
1.48181e-27
6.53523e-31
4.1563e-29
1.46858e-32
1.07777e-30
3.32884e-34
2.56841e-32
3.20631e-34
4.20485e-34
-2.37712e-32
-7.65075e-32
-6.36772e-31
-1.91188e-30
-2.45109e-29
-6.775e-29
-3.05094e-28
-7.68331e-28