/*--------------------------------*- C++ -*----------------------------------*\
| =========                 |                                                 |
| \\      /  F ield         | OpenFOAM: The Open Source CFD Toolbox           |
|  \\    /   O peration     | Version:  2206                                  |
|   \\  /    A nd           | Website:  www.openfoam.com                      |
|    \\/     M anipulation  |                                                 |
\*---------------------------------------------------------------------------*/
FoamFile
{
    version     2.0;
    format      ascii;
    arch        "LSB;label=32;scalar=64";
    class       volScalarField;
    location    "1";
    object      alpha.water;
}
// * * * * * * * * * * * * * * * * * * * * * * * * * * * * * * * * * * * * * //

dimensions      [0 0 0 0 0 0 0];

internalField   nonuniform List<scalar> 
2268
(
1
1
1
1
1
1
1
1
1
1
1
1
1
1
1
1
1
1
1
0.999998
0.999998
0.999997
0.990582
1
1
1
1
1
1
1
1
1
1
1
1
1
1
1
1
1
1
1
1
0.999999
1
0.999833
1
1
1
1
1
1
1
1
1
1
1
1
1
1
1
1
1
1
1
1
1
1
1
1
1
1
1
1
1
1
1
1
1
1
1
1
1
1
1
1
1
1
1
1
0.984258
0.935069
1
1
1
1
1
1
1
1
1
1
1
1
1
1
1
1
1
1
1
1
0.999111
0.947013
0.923968
1
1
1
1
1
1
1
1
1
1
1
1
1
1
1
1
1
1
1
1
0.999991
0.970068
0.924061
1
1
1
1
1
1
1
1
0.999999
0.999998
0.999998
0.999998
0.999999
1
1
1
1
1
1
1
1
0.998569
0.981534
0.631908
0.618253
0.624831
0.66549
0.710087
0.750609
0.792113
0.841106
0.888504
0.927652
0.961575
0.987788
0.999355
0.999979
0.999992
0.999997
0.999999
1
1
1
1
0.999615
0.999604
0.349134
0.357199
0.360939
0.360939
0.362302
0.367449
0.371646
0.373494
0.372081
0.175634
0.252852
0.384462
0.387851
0.398766
0.429752
0.429757
0.429752
0.429748
0.429701
0.145928
0.114642
0.0744688
0.0555705
0.0657903
0.128197
0.231491
0.266543
0.233098
0.0998675
0.0674729
0.0634397
0.0554653
0.0715832
0.228918
0.426971
0.429752
0.429701
0.429634
0.0323971
0.0226643
0.0205007
0.0189151
0.0180587
0.0183022
0.0184808
0.0196398
0.0212061
0.025315
0.0382516
0.0639991
0.0435374
0.0137024
0.0409677
0.282735
0.430121
0.428771
0.435233
0.0621736
0.0850829
0.0389024
0.0188894
0.0180587
0.0193415
0.0580583
0.0345415
0.0198133
0.0242775
0.057464
0.0598083
0.0471389
0.0045925
0.00773613
0.0322411
0.120816
0.310307
0.420763
0.0935687
0.0938487
0.0929055
0.0689952
0.0409374
0.0852178
0.0852178
0.083842
0.0192769
0.0555476
0.055501
0.019258
0.00645193
0.00239519
0.00243416
0.00326843
0.00343475
0.0607249
0.13683
0.0938515
0.0934159
0.0567745
0.0448737
0.0620376
0.0636154
0.0372559
0.0261753
0.0191445
0.0280028
0.00619197
0.0015363
0.00118282
0.00130312
0.000932295
0.0014534
0.00279346
0.047974
0.0355124
0.0934159
0.0467405
0.00122518
0.0011927
0.00117863
0.00116639
0.00168177
0.00153328
0.00293225
0.00130406
0.00161604
0.00279738
0.00130393
0.000179766
0.000257638
0.000780857
0.0056675
0.0248017
0.0270313
0.0850998
0.0100274
0.00121992
0.00112652
0.00111452
0.00111739
0.00175365
0.000986039
0.0010314
0.00119062
0.00166842
0.000943357
0.000637577
5.69165e-05
0.00010705
0.000322379
0.00616055
0.00475993
0.096934
0.00175416
0.0114176
0.0203584
0.028567
0.032993
0.0324446
0.0350542
0.0593458
0.0993302
0.156933
0.245156
0.391074
0.603063
0.792016
0.889706
0.940751
0.979091
0.998011
0.999739
0.999998
0.999694
0.999618
0.999561
8.31753e-06
3.31321e-05
8.68153e-06
2.76448e-05
7.2583e-05
3.11702e-05
6.37866e-07
1.24617e-07
1.96832e-08
3.42541e-09
1.24575e-08
1.81974e-07
9.57329e-08
0.0264153
0.103111
0.186714
0.306462
0.463409
0.613265
0.74095
0.755583
0.802124
0.948142
6.10429e-07
2.13957e-06
1.58299e-07
1.75988e-07
1.13968e-06
5.63011e-07
2.16157e-06
9.89923e-08
1.6332e-10
1.7951e-09
3.42538e-09
1.24575e-08
1.81974e-07
8.6289e-08
4.98659e-05
0.000430786
0.00217882
0.0438729
0.155359
0.308993
0.468374
0.527434
0.478311
7.59583e-08
1.17172e-07
1.30882e-09
-1.28819e-11
6.96208e-10
4.10156e-09
1.45697e-08
5.26752e-10
1.3324e-10
1.63227e-10
5.82104e-09
1.76776e-07
2.12112e-07
4.98112e-05
0.00142794
0.0100656
0.0126914
0.00599884
0.00535886
0.0105988
0.0113483
0.0166807
0.0222638
2.7713e-08
1.3092e-09
-1.37262e-13
-4.54259e-13
2.46845e-13
3.79603e-11
1.83851e-11
6.47403e-11
1.02113e-10
1.04986e-09
3.43516e-08
6.90729e-07
8.26446e-06
0.000178919
0.00328744
0.00472764
0.000559821
5.08656e-05
0.000315547
0.000495889
0.000731756
0.00202432
0.0019568
3.45792e-08
-1.31725e-24
-1.09853e-16
-1.1135e-17
3.4018e-16
2.48032e-13
5.10734e-12
1.83851e-11
8.74407e-11
1.83544e-09
3.35542e-08
4.62219e-07
4.79904e-06
0.000344099
0.00136465
0.000391303
2.1843e-06
8.09751e-06
0.000199893
0.000448827
0.000746495
0.000822595
0.000286568
4.98571e-08
2.18982e-09
-1.2326e-33
4.64717e-17
5.24888e-15
4.14063e-14
1.27184e-12
7.44996e-12
9.89416e-11
1.63523e-09
2.245e-08
2.48017e-07
1.53136e-05
0.000166033
5.17196e-05
2.18376e-06
5.53415e-07
9.6836e-06
2.34447e-05
3.92516e-05
8.61313e-05
9.61113e-05
3.26869e-05
5.15142e-08
3.80461e-10
3.31727e-18
6.73144e-17
5.26844e-15
1.56831e-13
2.0013e-12
9.7005e-12
1.04638e-10
1.14894e-09
1.29996e-08
1.61394e-07
9.09522e-06
1.61918e-05
6.41884e-06
6.94217e-07
3.65714e-07
8.64992e-07
3.27199e-07
5.08338e-07
7.7818e-07
1.15519e-06
1.63673e-06
5.15278e-08
3.17522e-17
1.22258e-17
1.03197e-16
6.4386e-15
1.64452e-13
2.76407e-12
1.82846e-11
7.59515e-11
5.90158e-10
5.86161e-09
3.27308e-07
2.27835e-06
1.08037e-06
1.08239e-06
2.05038e-07
7.10036e-08
5.99092e-08
1.06367e-07
1.71652e-07
2.26059e-07
2.53026e-07
3.34903e-07
5.15649e-08
5.22366e-17
3.17522e-17
1.06243e-16
5.24345e-15
1.13679e-13
1.82287e-12
1.55332e-11
5.95912e-11
2.26917e-10
2.50762e-09
5.16878e-08
7.91816e-08
1.74588e-07
1.7973e-07
4.24656e-08
1.51195e-08
1.2887e-08
2.51146e-08
3.89329e-08
5.15122e-08
5.70144e-08
4.88749e-08
5.17602e-08
5.15745e-17
4.8631e-17
5.55724e-17
2.41013e-15
4.47233e-14
5.93106e-13
6.3738e-12
3.72593e-11
1.19127e-10
5.61379e-10
2.78665e-09
1.0655e-08
2.60229e-08
2.7836e-08
8.08824e-09
3.10677e-09
2.99211e-09
5.31507e-09
7.8918e-09
1.00563e-08
1.09062e-08
9.23097e-09
5.18967e-08
1.30439e-16
1.61533e-16
2.54543e-17
6.82322e-16
1.13726e-14
1.35247e-13
1.30993e-12
1.09206e-11
4.93904e-11
1.39335e-10
4.98406e-10
1.80567e-09
3.71928e-09
3.88374e-09
1.38222e-09
8.35496e-10
1.02152e-09
1.51568e-09
2.08886e-09
2.84938e-09
3.49256e-09
3.78621e-09
5.19828e-08
8.24347e-17
1.81621e-16
5.03035e-18
1.44395e-16
2.21192e-15
2.43716e-14
2.17312e-13
1.6955e-12
1.17606e-11
4.92619e-11
1.32124e-10
3.52872e-10
6.12214e-10
6.28527e-10
3.03452e-10
3.44021e-10
5.24436e-10
7.06642e-10
9.60838e-10
1.5406e-09
2.08677e-09
2.50376e-09
5.19691e-08
4.27687e-17
1.05411e-16
8.40356e-19
2.63264e-17
3.81271e-16
3.95212e-15
3.35552e-14
2.53579e-13
1.79987e-12
1.16891e-11
4.76792e-11
1.03659e-10
1.26759e-10
1.34066e-10
9.81667e-11
1.87257e-10
2.91024e-10
4.0751e-10
6.458e-10
1.07422e-09
1.37199e-09
1.64909e-09
3.66829e-08
9.3269e-19
4.38547e-17
1.37284e-19
4.49896e-18
6.38352e-17
6.36008e-16
5.23894e-15
3.93467e-14
2.8024e-13
1.86114e-12
1.04136e-11
3.08214e-11
4.31946e-11
4.6144e-11
5.35654e-11
9.07604e-11
1.49421e-10
2.17421e-10
2.96781e-10
5.17029e-10
9.95268e-10
2.00378e-09
3.63573e-09
3.03348e-19
3.97447e-18
2.30984e-20
7.41263e-19
1.05968e-17
1.03687e-16
8.40368e-16
6.27909e-15
4.47374e-14
2.92756e-13
1.57411e-12
5.71207e-12
1.12224e-11
1.46424e-11
2.0382e-11
3.34676e-11
6.03574e-11
8.90052e-11
1.42662e-10
6.06264e-10
7.17162e-09
7.86962e-08
1.65863e-11
1.65444e-19
3.67226e-20
7.35497e-21
1.17855e-19
1.74353e-18
1.69124e-17
1.36111e-16
1.0115e-15
7.14849e-15
4.60784e-14
2.40496e-13
8.46069e-13
1.9e-12
3.0689e-12
4.79763e-12
9.27769e-12
1.96158e-11
2.89619e-11
8.91987e-11
6.87104e-10
9.67986e-09
1.2587e-07
1.44417e-10
1.68375e-20
5.64737e-21
5.17467e-21
1.72262e-20
2.85265e-19
2.73768e-18
2.18964e-17
1.61823e-16
1.12953e-15
7.14364e-15
3.65625e-14
1.27833e-13
2.94308e-13
5.26082e-13
9.38268e-13
2.13493e-12
6.5868e-12
2.34457e-11
6.49881e-11
3.65152e-10
5.02851e-09
6.73053e-08
1.44137e-10
4.92799e-14
4.91235e-21
4.7833e-21
2.47125e-21
4.65448e-20
4.39484e-19
3.4749e-18
2.54557e-17
1.75028e-16
1.0833e-15
5.44528e-15
1.91526e-14
4.62361e-14
8.9806e-14
1.79642e-13
4.88293e-13
2.15422e-12
1.58412e-11
7.63829e-11
3.57653e-10
6.00124e-09
9.99539e-08
7.94981e-11
8.7191e-14
4.91235e-21
7.40622e-21
6.85617e-22
7.44945e-21
7.00586e-20
5.42784e-19
3.91709e-18
2.64339e-17
1.59834e-16
7.89364e-16
2.79802e-15
7.08617e-15
1.49589e-14
3.38615e-14
1.11723e-13
6.52998e-13
6.30637e-12
5.58869e-11
3.43911e-10
5.40734e-09
6.66735e-08
3.67988e-11
8.70628e-14
4.91235e-21
1.73351e-20
4.99761e-22
1.09417e-21
1.10913e-20
8.32895e-20
5.87343e-19
3.87155e-18
2.28262e-17
1.10768e-16
3.95563e-16
1.04581e-15
2.38491e-15
6.09219e-15
2.41869e-14
1.71955e-13
1.77873e-12
1.90902e-11
1.4283e-10
8.31083e-10
1.42495e-09
1.79265e-11
7.856e-14
4.99408e-21
3.71642e-20
4.6324e-22
1.56368e-22
1.73148e-21
1.25101e-20
8.54106e-20
5.46962e-19
3.13802e-18
1.49591e-17
5.3767e-17
1.47703e-16
3.60793e-16
1.02517e-15
4.69379e-15
3.68472e-14
3.7888e-13
4.0322e-12
3.41525e-11
4.0465e-11
2.45668e-10
9.60046e-12
6.6631e-14
5.47359e-21
6.5298e-20
8.16007e-22
4.74867e-23
2.52195e-22
1.82769e-21
1.19629e-20
7.4039e-20
4.12606e-19
1.93195e-18
6.98067e-18
1.98321e-17
5.13678e-17
1.58533e-16
7.8848e-16
6.31276e-15
6.37277e-14
6.56711e-13
5.97893e-12
1.83912e-11
5.14307e-11
5.78145e-12
5.59772e-14
3.41209e-18
1.68875e-19
3.44844e-21
4.53175e-23
2.83307e-23
2.56247e-22
1.5975e-21
9.51754e-21
5.14829e-20
2.36907e-19
8.59806e-19
2.51428e-18
6.8232e-18
2.22059e-17
1.13752e-16
9.13075e-16
9.09032e-15
9.2093e-14
8.34103e-13
5.17229e-12
1.26288e-11
3.93307e-12
4.66092e-14
2.09271e-17
8.65443e-19
2.4524e-20
9.46995e-23
6.19495e-24
3.24079e-23
2.00529e-22
1.14828e-21
6.03813e-21
2.73642e-20
9.97693e-20
2.99041e-19
8.40337e-19
2.80839e-18
1.4625e-17
1.17352e-16
1.15649e-15
1.15488e-14
1.02604e-13
7.84146e-13
2.59285e-12
2.94294e-12
4.10584e-14
1.09227e-16
6.46436e-18
2.04945e-19
1.00484e-21
5.33409e-24
3.02224e-24
2.31932e-23
1.28104e-22
6.58258e-22
2.95164e-21
1.08316e-20
3.3203e-20
9.55904e-20
3.26694e-19
1.72055e-18
1.37777e-17
1.34572e-16
1.32297e-15
1.15113e-14
8.15221e-14
4.39253e-13
2.50206e-12
4.28421e-14
6.17253e-16
5.85102e-17
2.31912e-18
1.53794e-20
2.00348e-23
3.19252e-25
2.31606e-24
1.29827e-23
6.58825e-23
2.94712e-22
1.09379e-21
3.4285e-21
1.01161e-20
3.52909e-20
1.8708e-19
1.4927e-18
1.44013e-17
1.38962e-16
1.18047e-15
7.98021e-15
4.68348e-14
2.54363e-12
6.78318e-14
3.89596e-15
5.7674e-16
2.9733e-17
3.45905e-19
3.08057e-22
2.65297e-25
1.55068e-25
1.15324e-24
5.98064e-24
2.70273e-23
1.02264e-22
3.295e-22
1.00055e-21
3.54943e-21
1.88782e-20
1.49551e-19
1.42116e-18
1.34217e-17
1.11003e-16
7.26612e-16
3.80996e-15
2.80751e-12
2.6302e-13
2.4783e-14
5.42461e-15
3.8671e-16
6.52736e-18
1.51514e-20
8.07778e-25
7.80903e-26
7.65072e-26
4.7271e-25
2.26509e-24
8.85488e-24
2.96458e-23
9.25424e-23
3.33351e-22
1.77457e-21
1.39248e-20
1.30024e-19
1.19872e-18
9.63064e-18
6.11696e-17
3.00915e-16
3.58212e-12
9.23879e-13
1.34509e-13
3.92983e-14
3.96445e-15
7.95559e-17
4.26282e-19
2.27411e-23
7.48695e-26
1.78961e-26
3.10231e-26
1.57689e-25
7.1251e-25
2.49998e-24
8.03734e-24
2.93911e-23
1.56301e-22
1.21268e-21
1.10233e-20
9.85228e-20
7.64955e-19
4.73862e-18
2.24843e-17
4.97881e-12
2.21038e-12
5.62865e-13
1.89389e-13
2.73183e-14
6.96205e-16
5.29872e-18
1.3249e-21
1.49782e-24
1.7852e-26
1.7852e-26
1.88158e-26
4.42121e-26
1.9328e-25
6.60413e-25
2.45245e-24
1.2952e-23
9.73311e-23
8.13e-22
6.54782e-21
4.78997e-20
3.08271e-19
1.50842e-18
5.20175e-12
3.85601e-12
1.60546e-12
6.14433e-13
1.09236e-13
4.26108e-15
4.76755e-17
1.70948e-20
4.69734e-23
4.96013e-25
1.88158e-26
1.97796e-26
1.68985e-26
1.41949e-26
5.12148e-26
1.94818e-25
9.7882e-25
5.8845e-24
2.81581e-23
1.13301e-22
2.38726e-22
6.97271e-21
6.38165e-20
4.72561e-12
4.45447e-12
2.87979e-12
1.24345e-12
2.27215e-13
1.24526e-14
2.67031e-16
2.02231e-18
4.39281e-21
5.47186e-23
7.87962e-25
2.23351e-26
1.36373e-26
9.6307e-27
4.15421e-27
1.4207e-26
4.85324e-26
1.57448e-25
4.71896e-25
0
-2.62476e-22
0
3.9591e-37
2.78307e-12
4.30235e-12
3.22547e-12
1.41766e-12
2.60986e-13
1.72479e-14
6.08589e-16
1.43138e-17
1.68271e-19
1.37438e-21
2.47931e-23
4.98304e-25
1.28284e-26
3.0879e-27
1.44536e-27
1.04235e-27
1.12908e-27
0
-2.21008e-23
-4.03451e-22
-3.80552e-21
-1.25555e-20
-2.24863e-20
9.7023e-13
3.96109e-12
3.02388e-12
1.2875e-12
2.24623e-13
1.52498e-14
6.92199e-16
2.68495e-17
7.52241e-19
1.49604e-20
2.1486e-22
2.60138e-24
4.69992e-26
1.46208e-27
5.2474e-28
9.33994e-29
-6.65493e-27
-3.33812e-25
-1.80798e-23
-2.61063e-22
-2.15513e-21
-7.53006e-21
-1.89893e-20
3.52553e-13
3.2252e-12
2.38785e-12
9.04039e-13
1.32873e-13
9.30192e-15
5.55201e-16
2.74221e-17
9.82051e-19
2.79409e-20
6.73184e-22
1.4297e-23
2.88197e-25
5.72766e-27
1.1486e-28
6.95452e-30
-8.03634e-27
-2.25942e-25
-9.30783e-24
-1.20634e-22
-8.92441e-22
-2.89717e-21
-8.45958e-21
1.28793e-13
1.99862e-12
1.39017e-12
4.25194e-13
5.2428e-14
3.9334e-15
2.82329e-16
1.73725e-17
8.00595e-19
2.8627e-20
8.50717e-22
2.17014e-23
4.96192e-25
1.06943e-26
2.0664e-28
2.22282e-30
-4.32122e-27
-1.11378e-25
-4.09507e-24
-4.85134e-23
-3.21942e-22
-9.24887e-22
-3.25752e-21
3.15299e-14
8.75601e-13
5.37945e-13
1.36187e-13
1.55472e-14
1.27948e-15
9.85939e-17
6.43011e-18
3.4038e-19
1.46704e-20
5.16333e-22
1.55529e-23
4.16785e-25
1.03869e-26
2.34265e-28
2.20417e-30
-1.92259e-27
-4.8618e-26
-1.64805e-24
-1.79098e-23
-1.06643e-22
-2.63831e-22
-1.21773e-21
4.93166e-15
2.69747e-13
1.47501e-13
3.36e-14
3.80391e-15
3.3656e-16
2.66425e-17
1.73699e-18
9.29881e-20
4.20585e-21
1.62345e-22
5.42533e-24
1.609e-25
4.3144e-27
1.01984e-28
1.10105e-30
-7.8214e-28
-1.97026e-26
-6.1953e-25
-6.18116e-24
-3.30673e-23
-6.94924e-23
-4.4946e-22
8.09826e-16
6.38708e-14
3.25363e-14
6.93745e-15
7.88393e-16
7.3058e-17
5.84015e-18
3.81439e-19
2.05406e-20
9.28943e-22
3.58255e-23
1.19748e-24
3.5373e-26
9.44059e-28
2.19788e-29
1.49396e-31
-2.9898e-28
-7.51119e-27
-2.19058e-25
-2.00721e-24
-9.66515e-24
-1.7194e-23
-1.60456e-22
9.86683e-17
1.32476e-14
6.38925e-15
1.2734e-15
1.4573e-16
1.38249e-17
1.09982e-18
7.14744e-20
3.83673e-21
1.72349e-22
6.56887e-24
2.1599e-25
6.24452e-27
1.62107e-28
3.44105e-30
0
-1.07995e-28
-2.69786e-27
-7.28894e-26
-6.13617e-25
-2.66544e-24
-4.02831e-24
-5.42101e-23
9.38817e-17
1.44083e-15
6.56172e-16
1.20463e-16
1.37394e-17
1.3091e-18
1.02587e-19
6.57015e-21
3.47909e-22
1.53934e-23
5.7641e-25
1.85475e-26
5.22031e-28
1.31092e-29
2.6159e-31
-1.60652e-31
-3.71515e-29
-9.18536e-28
-2.29694e-26
-1.77656e-25
-6.96682e-25
-8.97259e-25
-1.72652e-23
0.999532
0.576082
0.122616
0.00909779
0.912969
0.35957
0.0172927
0.00627348
0.229311
0.0268616
0.00151058
0.000692442
0.00332796
0.00151421
0.000369969
0.000135563
0.0007061
0.000377268
6.27112e-05
1.62483e-05
0.000126137
6.22508e-05
4.66039e-06
3.69795e-06
1.6023e-05
4.53522e-06
3.51068e-07
3.37141e-06
1.3724e-06
2.20515e-07
3.75567e-07
3.75567e-07
1.64308e-07
9.61411e-08
2.9321e-07
4.65892e-07
3.04699e-08
6.96223e-08
9.61401e-08
4.14508e-07
1.03134e-08
2.71851e-08
6.08981e-08
4.347e-07
5.62924e-09
9.55267e-09
3.44569e-08
2.45845e-07
3.41949e-09
4.9798e-09
1.56219e-08
8.73141e-08
2.00315e-09
2.81924e-09
6.66983e-09
2.60231e-08
-1.87364e-09
6.4694e-09
2.65323e-05
0.000264016
6.39839e-07
1.80198e-05
0.000567016
0.000922597
1.37461e-06
9.57743e-05
0.000891624
0.00092554
7.8856e-07
6.88838e-05
0.000710447
0.000914388
1.35797e-06
3.42074e-05
0.000408043
0.000840632
7.23987e-07
6.50299e-06
6.88963e-05
0.00047089
1.48434e-08
1.73581e-07
2.11606e-06
1.34571e-05
1.9392e-09
3.74879e-08
4.12778e-07
8.35505e-07
4.85926e-10
6.67549e-09
6.0234e-08
1.11415e-07
7.53999e-11
9.73698e-10
6.99856e-09
1.16385e-08
1.37297e-11
1.30434e-10
6.87447e-10
1.02384e-09
2.05541e-12
2.04626e-11
6.00133e-11
7.7703e-11
2.74826e-13
2.01892e-12
5.8458e-12
5.33301e-12
2.66955e-14
1.60364e-13
6.29356e-13
5.46829e-13
1.96082e-15
1.18965e-14
1.23392e-13
2.81185e-13
1.35288e-16
9.3361e-16
4.04779e-14
1.89816e-13
8.49588e-18
2.88697e-16
1.82389e-14
1.54457e-13
4.31332e-19
4.48388e-16
9.41043e-15
6.88385e-14
9.64851e-21
4.76363e-16
3.54946e-15
1.4009e-14
0
3.16501e-16
6.83339e-16
1.61535e-15
-5.82556e-20
6.60262e-17
4.20128e-17
6.71028e-17
-6.52918e-20
1.53384e-18
4.12705e-19
1.53296e-19
-5.67079e-20
-1.07038e-18
-4.86723e-18
-4.92638e-18
-4.15219e-20
-1.94732e-18
-4.60583e-18
-4.4983e-18
-2.58433e-20
-1.37635e-18
-2.46765e-18
-2.0453e-18
-1.37329e-20
-7.12337e-19
-9.90082e-19
-6.53449e-19
-6.22895e-21
-2.99634e-19
-3.18455e-19
-1.60444e-19
-2.42738e-21
-1.05988e-19
-8.3686e-20
-3.11054e-20
0.0109363
0.0143498
0.0111224
0.00111733
0.0010528
0.001046
0.00162676
0.00093525
0.00097107
0.00144612
0.00196227
0.000247974
7.4372e-05
2.96189e-05
4.95261e-05
0.000748068
0.00232573
0.00140687
0.195589
0.019381
0.0276838
0.0281893
0.0159917
0.000945258
0.000913763
0.00115167
0.000917181
0.00107258
0.00207142
0.00200647
7.0268e-05
2.57593e-05
2.57765e-05
2.96201e-05
0.000700785
0.000279916
0.00104072
0.195756
0.00940632
0.0281893
0.0283786
0.0285679
0.00649388
0.00090935
0.000906912
0.000905805
0.00107962
0.00209208
0.000344853
2.57593e-05
2.57593e-05
2.57593e-05
2.63357e-05
9.60659e-05
0.000109589
0.00190163
0.195756
0.000270398
0.00263336
0.0285679
0.0285679
0.0263729
0.000906912
0.000903119
0.000902663
0.00103671
0.00187381
3.62723e-05
2.59792e-05
2.57593e-05
4.65996e-05
3.12707e-05
3.47128e-05
8.76989e-05
0.00011168
0.195518
5.66075e-05
0.000619917
0.016063
0.0285679
0.0277917
0.0147774
0.000902663
0.000902663
0.00143101
0.000321162
4.90963e-05
2.74659e-05
2.6147e-05
5.12038e-05
3.91908e-05
3.47517e-05
6.02787e-05
0.000257869
0.19519
5.78011e-06
3.79205e-05
0.0020554
0.022486
0.0270068
0.0262113
0.00156067
0.000902663
0.00136813
0.000348656
0.000499716
0.000175778
2.80064e-05
4.35333e-05
3.51974e-05
3.50706e-05
4.84744e-05
0.0050345
0.194737
2.58299e-06
5.92946e-06
3.81298e-05
0.000236141
0.0152814
0.0252924
0.0242172
0.0060417
0.000415841
0.000406626
0.000770889
0.000742245
3.31284e-05
3.69738e-05
3.53351e-05
3.66476e-05
4.94245e-05
0.0442019
0.193211
6.58948e-07
8.35595e-06
0.000101005
0.000144677
0.000324321
0.00375098
0.00951614
0.00221844
0.000448586
0.000534854
0.000774822
0.000764045
7.40772e-05
4.03621e-05
3.69734e-05
4.57003e-05
0.000204604
0.096048
0.188352
2.47536e-06
0.000368695
0.00105631
0.000682753
0.000495336
0.000522591
0.000504065
0.000641982
0.000720197
0.000707455
0.000764045
0.00071326
0.000315098
4.50162e-05
4.78375e-05
6.94766e-05
0.000489322
0.0410461
0.0868427
4.05337e-06
0.000549957
0.00116188
0.00114928
0.000561716
0.000458835
0.000415219
0.00083069
0.000828158
0.000329515
0.000255419
0.000555491
0.000514623
5.07245e-05
4.46779e-05
6.74889e-05
0.00165818
0.0105056
0.0124503
3.84689e-06
0.000536285
0.00115621
0.00116188
0.00113786
0.000429571
0.000202358
0.000787077
0.000430486
7.71513e-05
7.82699e-05
8.64426e-05
0.000486265
9.33132e-05
2.49595e-05
4.46333e-05
0.00205057
0.00892418
0.0103156
1.92009e-06
0.000222173
0.000987892
0.00114423
0.00112788
0.000396173
8.75083e-05
0.000269397
0.000141664
7.71746e-05
7.70091e-05
7.82699e-05
0.000466433
0.000272069
1.21974e-05
3.31006e-05
0.00258558
0.0159036
0.0142462
5.56579e-07
3.59464e-06
0.000277933
0.00102629
0.00107562
0.00036915
8.30805e-05
8.26409e-05
7.96016e-05
7.7123e-05
9.53109e-05
7.44657e-05
5.08762e-05
0.000141
6.1103e-06
2.37768e-05
0.00170308
0.0161439
0.0116927
1.2067e-07
6.2533e-07
5.81487e-06
0.000554184
0.00102134
0.000964571
0.000129399
8.30805e-05
8.77515e-05
7.96016e-05
0.000109584
0.000155342
4.17752e-06
3.99468e-06
4.17752e-06
9.11474e-06
2.14323e-05
0.00707117
0.00796965
0.000345495
6.50138e-05
2.10619e-05
3.24759e-05
0.000572134
0.00111301
0.00111395
0.000617087
0.000427732
0.00017496
3.1876e-05
0.000161776
1.33565e-05
4.05162e-06
3.96491e-06
4.2879e-06
8.29975e-06
0.00198951
0.075478
0.00092554
0.000904249
0.000254036
4.9545e-05
6.72799e-05
0.000402774
0.00108034
0.00106175
0.000720105
0.000136443
1.91508e-05
0.000161776
0.000139981
4.04097e-06
4.152e-06
6.1759e-06
7.24678e-06
1.01139e-05
0.235923
0.000886057
0.000401179
0.000354785
0.000226678
4.44975e-05
3.86746e-05
3.65418e-05
5.11466e-05
2.68038e-05
3.08218e-05
1.75974e-05
0.000161776
0.000159493
1.10346e-05
4.33909e-06
6.68258e-06
8.32212e-06
1.03328e-05
0.249079
0.00016394
1.78585e-05
5.73357e-05
0.000121566
5.63208e-05
3.65418e-05
3.5759e-05
3.10884e-05
2.49562e-05
1.40284e-05
1.49816e-05
0.000159493
0.000149301
1.50826e-05
4.66389e-06
1.30948e-05
1.082e-05
0.00258196
0.249391
0.000393065
8.77031e-06
6.13863e-06
3.20603e-05
6.11828e-05
4.55382e-05
4.4494e-05
8.49722e-05
8.04908e-05
1.2911e-05
5.86376e-06
2.33785e-05
4.47906e-05
4.73331e-07
3.02144e-06
1.9063e-05
0.000122324
0.0113446
0.249434
0.000569533
0.000311189
2.83977e-06
4.12378e-07
6.16165e-05
9.51865e-05
9.52038e-05
9.51799e-05
7.55625e-05
1.36227e-05
3.24132e-06
9.2026e-08
4.46788e-08
4.82059e-09
6.74081e-08
1.79491e-06
6.26292e-06
0.0111151
0.249373
0.00023851
0.000191288
6.33038e-05
1.43375e-07
1.15793e-07
1.13769e-07
6.34351e-06
3.69436e-05
5.59701e-07
3.49579e-06
1.27035e-05
1.15845e-07
7.54854e-09
8.80534e-10
1.29558e-09
4.55415e-09
1.35104e-09
0.00733045
0.249142
7.48184e-07
2.08804e-07
9.64652e-08
9.56148e-07
3.93269e-07
9.70467e-08
1.14418e-07
1.36097e-07
2.76703e-07
6.04817e-06
1.27035e-05
7.53739e-06
6.06995e-07
8.80534e-10
1.02447e-09
1.08723e-09
1.36519e-09
0.0068583
0.248457
9.4698e-08
4.93459e-07
7.61213e-08
6.34262e-08
6.60962e-08
9.15968e-08
4.20386e-07
5.40762e-07
9.43158e-07
7.92041e-06
1.27035e-05
1.20519e-05
1.08694e-06
8.80534e-10
2.91942e-09
2.84925e-09
1.35104e-09
0.00647597
0.246821
9.46947e-09
2.68608e-08
3.40836e-08
3.66306e-08
6.88179e-08
3.32358e-07
1.12454e-07
1.10134e-06
3.00978e-06
7.20607e-07
2.47416e-06
2.90719e-07
1.70285e-07
5.09174e-10
3.2349e-09
8.33423e-09
8.40174e-09
0.00536791
0.243758
5.02632e-10
6.0114e-10
4.39084e-08
7.83579e-08
7.83579e-08
3.4828e-08
6.24174e-08
3.25535e-06
3.25535e-06
6.84402e-07
1.18445e-10
8.07717e-11
8.07717e-11
7.46199e-10
2.1827e-09
3.93534e-08
1.41714e-07
0.00283864
0.236964
1.2908e-10
3.68969e-10
5.16733e-08
7.83579e-08
2.34837e-08
2.49173e-08
4.57231e-07
1.38536e-06
2.11591e-06
4.7558e-07
1.3603e-10
1.08401e-10
8.07717e-11
1.38697e-08
1.59691e-07
1.64396e-06
2.12911e-06
0.00135243
0.121682
6.98396e-11
9.03249e-09
2.99547e-08
1.48255e-08
5.72207e-09
3.48785e-08
2.97417e-10
2.34483e-10
2.22609e-10
2.10488e-10
2.01438e-10
2.00601e-10
1.4099e-10
1.56465e-08
7.66572e-07
1.78737e-05
0.000146569
0.00777582
0.0050207
2.12331e-10
4.75435e-09
2.25157e-09
1.14149e-09
4.10654e-09
5.43282e-09
1.18225e-09
4.74427e-10
4.17149e-10
4.05676e-10
4.71113e-10
2.73227e-10
1.60831e-10
4.91906e-09
4.43733e-07
1.40176e-05
0.00426115
0.0168419
0.000288553
2.71565e-10
1.97844e-10
1.52421e-10
2.73043e-10
3.91182e-10
2.83805e-11
5.70233e-10
6.0637e-10
4.48752e-10
4.36685e-10
3.44397e-10
4.16879e-11
2.48868e-11
1.03041e-08
1.28709e-06
0.000445466
0.0106001
0.0169421
0.000268207
5.31716e-11
2.88436e-11
7.74665e-11
4.84393e-11
1.08989e-11
2.78938e-11
7.93097e-11
1.01047e-10
8.41404e-11
4.30225e-11
5.13868e-12
5.90122e-13
-6.96497e-11
8.00436e-09
2.51552e-06
0.00374219
0.0152368
0.0164185
0.000156277
8.95415e-13
1.12768e-11
1.30433e-11
7.65764e-12
1.05432e-11
6.38066e-11
1.01896e-10
1.01841e-10
7.66326e-11
3.52078e-11
9.71501e-12
4.94541e-13
3.19243e-13
-6.95649e-09
6.56495e-07
0.00710997
0.0139599
0.00304586
0.000100951
1.92122e-13
2.20396e-12
1.72977e-12
1.59392e-12
2.96172e-12
5.83366e-12
2.42196e-11
1.76775e-11
3.62925e-12
5.47106e-13
4.91803e-14
2.17441e-16
3.75321e-14
5.95361e-12
8.22032e-11
0.00187342
0.00506136
1.09798e-07
1.50415e-05
1.69764e-13
4.047e-13
4.37716e-13
6.47104e-13
1.06736e-12
9.42262e-13
5.79282e-13
2.70623e-13
1.24817e-13
3.55683e-14
3.51282e-15
4.19511e-18
-2.32878e-16
2.41699e-09
3.42133e-10
1.78053e-10
9.78861e-10
4.70364e-08
9.82922e-08
7.91388e-14
5.29615e-14
9.48856e-14
3.20366e-13
4.63611e-13
3.97824e-13
3.54553e-13
2.49394e-13
9.16954e-14
1.34128e-14
3.30264e-16
-1.35078e-17
-3.40317e-16
2.06788e-09
2.16579e-10
5.04059e-12
1.78053e-10
6.37405e-08
9.64882e-08
7.06864e-15
2.04819e-15
5.25016e-15
2.2363e-14
7.47197e-14
6.64688e-14
3.51681e-14
8.90273e-15
9.12115e-16
3.93506e-18
-5.58713e-18
-2.16968e-16
-2.61769e-16
3.59826e-10
2.3663e-11
4.39e-12
4.24201e-06
1.39037e-06
4.85489e-07
7.14028e-17
2.25042e-17
1.06449e-16
5.42996e-15
1.29843e-14
8.58163e-15
2.57267e-15
2.6587e-16
3.79282e-18
-1.06414e-35
-1.38448e-17
-1.23617e-16
-1.28006e-16
1.46477e-12
2.01736e-17
2.25658e-12
1.14944e-05
8.38528e-06
6.54035e-07
-3.09459e-34
9.44903e-20
4.48915e-17
2.59293e-15
2.00678e-15
7.15847e-16
9.0948e-17
2.19955e-18
-9.35964e-36
-1.55207e-19
-7.01348e-18
-5.95829e-17
-5.32185e-17
3.1665e-35
1.70756e-17
7.08282e-18
1.22433e-05
1.30551e-05
1.3117e-06
-1.04612e-18
-5.6194e-19
6.45891e-18
1.43651e-16
1.04357e-16
3.17098e-17
2.80568e-18
8.91695e-21
-8.01473e-20
-9.20704e-20
-2.973e-18
-2.44428e-17
-1.83019e-17
2.68729e-16
8.13791e-17
3.5916e-18
8.01416e-06
1.30208e-05
1.89053e-06
-6.46817e-19
-1.49761e-19
4.12545e-19
7.80067e-18
4.36255e-18
7.97764e-19
2.96169e-20
7.63743e-24
-3.26694e-20
-2.44499e-20
-1.02223e-18
-8.17991e-18
-4.91456e-18
2.85288e-16
1.08378e-16
7.83383e-19
4.14069e-18
1.30298e-05
2.7073e-06
-1.6621e-19
-2.18526e-20
2.24846e-20
1.66594e-19
6.60395e-20
6.3673e-21
8.35076e-23
-4.25325e-43
-7.75386e-21
-4.20107e-21
-2.68571e-19
-2.09429e-18
-9.35852e-19
2.10082e-16
4.09406e-17
4.31141e-20
8.33285e-09
1.30049e-05
3.95487e-06
-2.90761e-20
-2.14191e-21
0
-1.24944e-24
2.1457e-24
3.08618e-24
7.43788e-25
5.16358e-26
-1.24883e-21
-4.29857e-22
-4.81442e-20
-3.6551e-19
-1.04065e-19
3.38371e-17
4.0166e-18
6.1909e-23
1.65252e-08
1.29861e-05
3.41372e-06
-3.75233e-21
-1.39714e-22
-8.98708e-25
-7.71401e-27
-1.19159e-28
-3.44528e-30
-1.07102e-31
-2.88843e-33
-1.04055e-22
-1.56197e-23
-4.45466e-21
-3.2744e-20
-4.05154e-21
4.55939e-19
1.41566e-20
9.40395e-39
2.09758e-07
1.19387e-05
3.24645e-06
)
;

boundaryField
{
    leftWall
    {
        type            zeroGradient;
    }
    rightWall
    {
        type            zeroGradient;
    }
    lowerWall
    {
        type            zeroGradient;
    }
    atmosphere
    {
        type            inletOutlet;
        inletValue      uniform 0;
        value           nonuniform List<scalar> 
46
(
9.38817e-17
1.44083e-15
6.56172e-16
1.20463e-16
1.37394e-17
1.3091e-18
1.02587e-19
6.57015e-21
3.47909e-22
1.53934e-23
5.7641e-25
1.85475e-26
5.22031e-28
1.31092e-29
2.6159e-31
-1.60652e-31
-3.71515e-29
-9.18536e-28
-2.29694e-26
-1.77656e-25
-6.96682e-25
-8.97259e-25
-1.72652e-23
-2.42738e-21
-1.05988e-19
-8.3686e-20
-3.11054e-20
-3.75233e-21
-1.39714e-22
-8.98708e-25
0
0
0
0
0
0
0
0
0
0
0
0
0
0
0
3.24645e-06
)
;
    }
    defaultFaces
    {
        type            empty;
    }
}


// ************************************************************************* //
