/*--------------------------------*- C++ -*----------------------------------*\
| =========                 |                                                 |
| \\      /  F ield         | OpenFOAM: The Open Source CFD Toolbox           |
|  \\    /   O peration     | Version:  2206                                  |
|   \\  /    A nd           | Website:  www.openfoam.com                      |
|    \\/     M anipulation  |                                                 |
\*---------------------------------------------------------------------------*/
FoamFile
{
    version     2.0;
    format      ascii;
    arch        "LSB;label=32;scalar=64";
    class       volScalarField;
    location    "1";
    object      p;
}
// * * * * * * * * * * * * * * * * * * * * * * * * * * * * * * * * * * * * * //

dimensions      [1 -1 -2 0 0 0 0];

internalField   nonuniform List<scalar> 
2268
(
1354.34
1354.85
1355.88
1357.28
1359.28
1361.83
1364.87
1368.3
1372.03
1375.99
1380.11
1384.32
1388.52
1392.65
1396.61
1400.35
1403.82
1406.99
1409.85
1412.27
1414.28
1416.09
1417.48
1173.1
1173.58
1174.64
1176.06
1178.25
1181.05
1184.37
1188.09
1192.11
1196.36
1200.77
1205.25
1209.73
1214.11
1218.33
1222.33
1226.05
1229.38
1232.4
1235.14
1237.73
1240.17
1242.84
989.673
990.14
991.201
992.857
995.377
998.607
1002.43
1006.68
1011.26
1016.1
1021.08
1026.21
1031.23
1036.12
1040.78
1045.11
1049.02
1052.4
1055.21
1057.39
1058.92
1059.83
1061.96
804.003
804.457
805.592
807.518
810.493
814.352
818.902
823.949
829.369
835.144
841.097
847.114
853.091
858.862
864.307
869.287
873.641
877.166
879.576
880.565
879.06
875.154
878.885
615.112
615.772
617.091
619.536
623.21
627.925
633.538
639.67
646.353
653.413
660.741
668.173
675.545
682.697
689.499
695.783
701.388
706.078
709.485
712.446
710.924
708.055
712.426
421.067
421.183
422.971
427.572
432.629
437.958
444.542
452.292
461.298
470.501
479.831
489.248
498.609
507.731
516.458
524.704
532.391
539.401
545.594
550.597
554.081
557.183
559.726
224.968
225.377
232.757
240.756
248.348
255.646
263.022
271.296
279.329
288.245
298.556
310.058
322.06
333.839
345.068
355.735
365.92
375.545
384.547
391.648
397.518
402.965
404.749
55.7358
56.4124
59.062
63.6093
67.7553
71.6764
76.1963
83.4342
92.2269
102.439
114.416
129.041
145.403
161.367
175.724
188.948
201.665
213.903
225.058
235.442
242.378
248.937
249.107
168.159
152.464
114.191
83.4408
78.4819
94.21
106.701
112.98
122.757
131.717
115.868
82.0319
82.0898
106.012
149.38
209.252
263.034
308.799
329.855
98.6359
68.7535
42.7809
31.805
31.2795
34.1986
37.7819
34.5656
27.5833
41.8305
42.2631
27.6671
31.3526
40.3644
63.713
113.373
168.224
219.861
244.428
61.3681
34.3573
19.3955
16.621
19.2634
21.4341
18.4016
10.4302
6.83953
13.2977
21.4436
21.0425
20.5916
20.9759
21.6234
34.1461
80.9171
130.654
155.062
43.6291
17.9257
9.59863
11.1575
15.2525
17.7379
12.6828
3.65603
3.28106
9.93546
17.0875
13.6593
9.57309
9.71937
7.77494
0.925708
5.82216
28.8915
67.4649
36.9489
16.1267
4.58754
4.35748
8.31944
8.28958
5.21582
0.236372
1.99717
7.03669
8.34378
5.30051
4.08073
4.6076
3.07531
-0.458364
-1.08603
1.59548
24.1127
31.2256
16.7888
9.13781
7.70196
8.73895
7.20114
3.68883
2.43197
2.37189
3.44004
3.31985
3.25975
2.97922
2.82373
2.25359
1.50228
1.53302
2.79371
9.62049
18.656
5.21877
4.13602
3.77611
3.2008
2.51032
1.77121
1.19825
1.18645
1.36076
1.85101
2.14473
1.98546
1.72842
1.56583
1.58577
2.1853
1.97342
5.28883
15.4805
4.70924
3.65908
3.20634
2.63484
2.05738
1.50752
1.07506
0.85696
0.923079
1.06325
1.01188
0.89002
0.867987
0.901804
0.99694
1.32181
1.21534
2.19635
-0.832881
-0.508865
0.0617579
0.458665
0.680296
0.660775
0.821767
2.02109
4.06897
7.03485
11.5683
19.0475
29.9334
42.244
52.8524
63.912
76.7309
91.2219
105.599
117.513
125.301
128.686
115.985
-1.11414
-1.15926
-1.14221
-1.13486
-1.14117
-1.15629
-1.12764
-1.10182
-1.08091
-1.05284
-1.01526
-0.993299
-0.908853
0.491867
4.23842
8.2872
13.8332
24.7469
39.6367
48.8902
50.611
46.1465
41.1994
-1.25216
-1.26662
-1.26216
-1.25328
-1.25569
-1.25478
-1.24584
-1.23725
-1.2194
-1.18724
-1.14792
-1.09244
-0.975719
-0.818471
-0.746611
-1.0544
-1.60909
-0.354306
5.80475
14.0399
21.041
20.7297
7.43083
-1.37853
-1.38404
-1.383
-1.37977
-1.37723
-1.37455
-1.36656
-1.3514
-1.33157
-1.30806
-1.27922
-1.23798
-1.16919
-1.12201
-1.12248
-1.33736
-1.445
-1.73558
-1.78061
-1.61482
-1.66896
-2.54801
-4.7813
-1.50495
-1.50777
-1.50732
-1.50673
-1.50628
-1.50385
-1.49872
-1.49034
-1.47935
-1.46831
-1.45589
-1.43522
-1.41432
-1.46035
-1.64572
-1.96773
-2.12436
-2.13063
-2.13563
-2.17326
-2.30637
-2.72464
-3.29736
-1.63042
-1.63217
-1.6315
-1.63363
-1.63441
-1.63398
-1.63209
-1.62911
-1.62592
-1.62481
-1.6285
-1.63825
-1.66731
-1.77585
-2.0198
-2.18846
-2.20879
-2.20124
-2.20623
-2.23416
-2.31744
-2.48563
-2.61767
-1.75477
-1.75672
-1.75754
-1.76052
-1.76268
-1.76432
-1.76579
-1.76782
-1.77161
-1.77973
-1.79593
-1.82384
-1.87293
-1.97395
-2.12212
-2.20902
-2.23687
-2.24737
-2.27568
-2.31776
-2.37927
-2.45588
-2.50455
-1.87941
-1.88143
-1.88336
-1.88693
-1.89045
-1.89427
-1.89883
-1.90486
-1.91358
-1.92729
-1.94909
-1.98142
-2.02757
-2.09725
-2.18261
-2.24995
-2.2905
-2.31933
-2.35309
-2.39286
-2.4368
-2.48211
-2.51827
-2.00401
-2.00592
-2.00849
-2.01253
-2.01707
-2.02252
-2.0294
-2.03829
-2.05011
-2.06645
-2.08925
-2.11991
-2.15949
-2.21061
-2.27078
-2.32523
-2.36693
-2.40112
-2.43427
-2.46904
-2.50377
-2.53547
-2.5594
-2.12808
-2.1302
-2.13306
-2.13739
-2.14267
-2.14932
-2.15769
-2.16826
-2.18169
-2.19893
-2.2211
-2.24901
-2.28327
-2.32469
-2.37147
-2.41604
-2.45365
-2.48604
-2.51612
-2.54524
-2.57233
-2.59482
-2.6095
-2.25169
-2.25391
-2.25689
-2.26138
-2.26714
-2.27458
-2.28389
-2.29534
-2.30936
-2.32655
-2.34751
-2.37271
-2.40243
-2.4367
-2.47411
-2.51071
-2.54344
-2.57253
-2.59911
-2.62338
-2.64439
-2.66059
-2.67046
-2.3747
-2.3769
-2.37989
-2.38445
-2.39048
-2.39832
-2.40804
-2.41978
-2.43379
-2.45039
-2.46992
-2.4926
-2.51848
-2.54725
-2.57783
-2.60811
-2.63622
-2.66177
-2.68494
-2.70541
-2.72238
-2.735
-2.74274
-2.49687
-2.49903
-2.50197
-2.5065
-2.51265
-2.52066
-2.53043
-2.54202
-2.55558
-2.57128
-2.58928
-2.60966
-2.63233
-2.65693
-2.68262
-2.70812
-2.73224
-2.75443
-2.77448
-2.79197
-2.80623
-2.81671
-2.82325
-2.61797
-2.6201
-2.62297
-2.62742
-2.63356
-2.64152
-2.65111
-2.66231
-2.67518
-2.68981
-2.70628
-2.72456
-2.74452
-2.76581
-2.78781
-2.80968
-2.83059
-2.85001
-2.86759
-2.88292
-2.89546
-2.90472
-2.91054
-2.7378
-2.7399
-2.74274
-2.74711
-2.75314
-2.7609
-2.77014
-2.78079
-2.79286
-2.80639
-2.82138
-2.83778
-2.85543
-2.87405
-2.89317
-2.91222
-2.93062
-2.94794
-2.96381
-2.97786
-2.98973
-2.99884
-3.0052
-2.85624
-2.85831
-2.86117
-2.86549
-2.87137
-2.87884
-2.88762
-2.89764
-2.90886
-2.9213
-2.93493
-2.94967
-2.96537
-2.98181
-2.99867
-3.01554
-3.03204
-3.04785
-3.0627
-3.07638
-3.08881
-3.09964
-3.1098
-2.97325
-2.97523
-2.97824
-2.98256
-2.98829
-2.99541
-3.0037
-3.01305
-3.02342
-3.03482
-3.04719
-3.06046
-3.07452
-3.08918
-3.10423
-3.11942
-3.1345
-3.14929
-3.16369
-3.17774
-3.1918
-3.2062
-3.22286
-3.08882
-3.0907
-3.09399
-3.09837
-3.10398
-3.11075
-3.11854
-3.12722
-3.13677
-3.14718
-3.1584
-3.17037
-3.183
-3.19618
-3.20975
-3.22358
-3.23756
-3.25163
-3.2659
-3.28065
-3.29665
-3.31513
-3.33869
-3.20305
-3.20479
-3.20847
-3.21301
-3.21855
-3.225
-3.23231
-3.24035
-3.24912
-3.2586
-3.26875
-3.27955
-3.29092
-3.3028
-3.31511
-3.32779
-3.34081
-3.35427
-3.36839
-3.38364
-3.40101
-3.42232
-3.45081
-3.316
-3.31765
-3.3218
-3.32661
-3.33215
-3.33834
-3.34519
-3.35264
-3.36066
-3.36925
-3.37842
-3.38813
-3.39836
-3.40907
-3.42024
-3.43185
-3.44396
-3.45671
-3.47041
-3.48562
-3.5033
-3.52524
-3.55487
-3.42778
-3.42941
-3.4341
-3.43932
-3.44496
-3.45093
-3.45737
-3.46423
-3.47153
-3.47929
-3.48751
-3.49621
-3.50537
-3.51499
-3.52508
-3.53566
-3.5468
-3.55868
-3.5716
-3.58608
-3.60297
-3.62364
-3.65062
-3.53861
-3.54027
-3.54559
-3.55138
-3.5572
-3.56299
-3.56902
-3.57531
-3.5819
-3.58883
-3.59614
-3.60386
-3.612
-3.62058
-3.62962
-3.63915
-3.64927
-3.66012
-3.67193
-3.68515
-3.70039
-3.71848
-3.74076
-3.64885
-3.6506
-3.65658
-3.66309
-3.66916
-3.67479
-3.68038
-3.68605
-3.69189
-3.69798
-3.70438
-3.71114
-3.71829
-3.72586
-3.73387
-3.74235
-3.75138
-3.76107
-3.77161
-3.78326
-3.7964
-3.81148
-3.82905
-3.75924
-3.76106
-3.76769
-3.77495
-3.78125
-3.78664
-3.79168
-3.79664
-3.80165
-3.80684
-3.81231
-3.81811
-3.82428
-3.83086
-3.83785
-3.84529
-3.85322
-3.86171
-3.87089
-3.88089
-3.89191
-3.90415
-3.91782
-3.87094
-3.87282
-3.87998
-3.88776
-3.89406
-3.89898
-3.90324
-3.90727
-3.91131
-3.91551
-3.91999
-3.92481
-3.93001
-3.93561
-3.94161
-3.94802
-3.95487
-3.96218
-3.97001
-3.97843
-3.98752
-3.99733
-4.00789
-3.9857
-3.98801
-3.99544
-4.00298
-4.00848
-4.01234
-4.01535
-4.01813
-4.02096
-4.02403
-4.02746
-4.03127
-4.0355
-4.04015
-4.04518
-4.05061
-4.05641
-4.06259
-4.06916
-4.07613
-4.08351
-4.09127
-4.09936
-4.10628
-4.11023
-4.11751
-4.12305
-4.12586
-4.12735
-4.12831
-4.12931
-4.13063
-4.13241
-4.1347
-4.13749
-4.14075
-4.14448
-4.14859
-4.15307
-4.15789
-4.16302
-4.16844
-4.17411
-4.18001
-4.18606
-4.19217
-4.23154
-4.24475
-4.25041
-4.25138
-4.24795
-4.2446
-4.24216
-4.24071
-4.2402
-4.24054
-4.24164
-4.24339
-4.24571
-4.2486
-4.25183
-4.25544
-4.25935
-4.26352
-4.2679
-4.27244
-4.27706
-4.2817
-4.28624
-4.35027
-4.38813
-4.39301
-4.38854
-4.37534
-4.3639
-4.35637
-4.35187
-4.3493
-4.34816
-4.34811
-4.34891
-4.35039
-4.35242
-4.35488
-4.3577
-4.3608
-4.36412
-4.36758
-4.37113
-4.37469
-4.37816
-4.38145
-4.4659
-4.51123
-4.52981
-4.52505
-4.50351
-4.48289
-4.46936
-4.46179
-4.45736
-4.45493
-4.45392
-4.45389
-4.45462
-4.45595
-4.45773
-4.45985
-4.46224
-4.46481
-4.46748
-4.47019
-4.47285
-4.47539
-4.47769
-4.57901
-4.61242
-4.64353
-4.64477
-4.62284
-4.59661
-4.57863
-4.56931
-4.56374
-4.56043
-4.55887
-4.55819
-4.55835
-4.55912
-4.56033
-4.56187
-4.56365
-4.56558
-4.56758
-4.56958
-4.57152
-4.57329
-4.57483
-4.69622
-4.71131
-4.73305
-4.74004
-4.72687
-4.70036
-4.68151
-4.67404
-4.66819
-4.66463
-4.66265
-4.6617
-4.66151
-4.66188
-4.66265
-4.66373
-4.66501
-4.66641
-4.66786
-4.66929
-4.67064
-4.67182
-4.67277
-4.81267
-4.81593
-4.81427
-4.81875
-4.81415
-4.79767
-4.7828
-4.7749
-4.7703
-4.76728
-4.76543
-4.76445
-4.76411
-4.76423
-4.7647
-4.76543
-4.76631
-4.7673
-4.76831
-4.76929
-4.77017
-4.77089
-4.77139
-4.91742
-4.91437
-4.89683
-4.89709
-4.89811
-4.88992
-4.88017
-4.8743
-4.87103
-4.86881
-4.86736
-4.86655
-4.8662
-4.86622
-4.8665
-4.86697
-4.86757
-4.86823
-4.8689
-4.86953
-4.87006
-4.87044
-4.87062
-5.00758
-5.00066
-4.98222
-4.98183
-4.98471
-4.9815
-4.97628
-4.97289
-4.97098
-4.96962
-4.96869
-4.96815
-4.96791
-4.9679
-4.96808
-4.96839
-4.96878
-4.96921
-4.96963
-4.97
-4.97027
-4.97041
-4.97036
-5.0901
-5.08306
-5.07143
-5.07221
-5.07523
-5.07475
-5.07277
-5.07143
-5.07068
-5.0701
-5.06968
-5.06944
-5.06934
-5.06938
-5.06951
-5.06972
-5.06997
-5.07024
-5.07048
-5.07067
-5.07077
-5.07073
-5.07054
-5.17496
-5.17017
-5.16484
-5.16643
-5.16928
-5.17034
-5.1704
-5.17045
-5.17056
-5.17058
-5.17058
-5.17059
-5.17064
-5.17073
-5.17086
-5.17101
-5.17118
-5.17134
-5.17146
-5.17153
-5.17151
-5.17138
-5.17111
-5.26689
-5.26406
-5.26199
-5.2637
-5.26638
-5.26825
-5.2694
-5.27024
-5.27086
-5.27128
-5.27156
-5.27176
-5.27191
-5.27205
-5.27219
-5.27231
-5.27243
-5.27252
-5.27257
-5.27256
-5.27248
-5.2723
-5.27201
-5.36507
-5.36265
-5.36203
-5.36362
-5.36611
-5.36822
-5.36974
-5.37088
-5.37173
-5.37233
-5.37274
-5.37304
-5.37325
-5.37342
-5.37355
-5.37366
-5.37374
-5.37379
-5.37379
-5.37375
-5.37365
-5.37347
-5.3732
-5.46647
-5.4649
-5.46454
-5.46589
-5.468
-5.46986
-5.47128
-5.47237
-5.47318
-5.47377
-5.4742
-5.4745
-5.47472
-5.47487
-5.47499
-5.47508
-5.47513
-5.47516
-5.47515
-5.4751
-5.47501
-5.47486
-5.47464
-5.57038
-5.56882
-5.56872
-5.56995
-5.57153
-5.57283
-5.57383
-5.57461
-5.5752
-5.57564
-5.57595
-5.57618
-5.57634
-5.57645
-5.57653
-5.57659
-5.57662
-5.57664
-5.57663
-5.57659
-5.57652
-5.57642
-5.57628
-5.67644
-5.67582
-5.6754
-5.67552
-5.67605
-5.67657
-5.67697
-5.67728
-5.67753
-5.67772
-5.67786
-5.67797
-5.67804
-5.6781
-5.67814
-5.67817
-5.67819
-5.67819
-5.67819
-5.67817
-5.67815
-5.67811
-5.67806
79.2675
42.4269
14.7789
10.2704
27.5895
14.8789
6.11392
4.81169
-3.6598
-1.65477
-0.220028
-0.150849
-6.38334
-3.6031
-1.99419
-1.74593
-3.34945
-2.70053
-2.19861
-2.09211
-2.57586
-2.42189
-2.28704
-2.23104
-2.49993
-2.44921
-2.38403
-2.33247
-2.53057
-2.50477
-2.45895
-2.41372
-2.56783
-2.55102
-2.52134
-2.48726
-2.6137
-2.60497
-2.58848
-2.56515
-2.6739
-2.67132
-2.66523
-2.65108
-2.74619
-2.74693
-2.74738
-2.74189
-2.82653
-2.82835
-2.83121
-2.83078
-2.91371
-2.91476
-2.91461
-2.91302
-3.01117
-3.01472
-3.00954
-3.00819
-3.12553
-3.14346
-3.14627
-3.15585
-3.25263
-3.29719
-3.32252
-3.33782
-3.38071
-3.45206
-3.50066
-3.50561
-3.49852
-3.58329
-3.66404
-3.6889
-3.60178
-3.68398
-3.77947
-3.83843
-3.69063
-3.75654
-3.84227
-3.90739
-3.7713
-3.81656
-3.87581
-3.93
-3.8513
-3.88065
-3.91631
-3.95085
-3.9341
-3.95353
-3.9747
-3.99374
-4.01994
-4.0333
-4.04653
-4.05718
-4.10824
-4.11757
-4.12612
-4.13237
-4.19863
-4.20506
-4.21053
-4.2141
-4.29084
-4.29516
-4.29849
-4.30025
-4.38465
-4.38741
-4.38924
-4.38975
-4.47981
-4.48143
-4.4822
-4.48185
-4.57613
-4.57691
-4.57694
-4.57602
-4.67344
-4.67363
-4.67315
-4.67188
-4.77162
-4.77139
-4.77059
-4.76912
-4.87053
-4.87003
-4.86904
-4.86751
-4.97007
-4.96941
-4.96834
-4.96682
-5.07013
-5.06941
-5.06834
-5.06692
-5.17066
-5.16993
-5.16894
-5.16765
-5.27157
-5.2709
-5.27003
-5.26893
-5.37281
-5.37225
-5.37153
-5.37065
-5.47434
-5.47392
-5.47338
-5.47274
-5.57609
-5.57583
-5.5755
-5.57511
-5.678
-5.67791
-5.6778
-5.67767
8.65763
4.83385
3.09638
2.81392
2.26236
1.78908
1.27306
0.851801
0.635633
0.672368
0.609621
0.443647
0.370886
0.404089
0.486075
0.684674
0.863899
1.15796
2.23465
4.60917
3.25307
2.17334
2.04969
1.94846
1.49049
1.02922
0.674244
0.502438
0.477714
0.314208
0.194703
0.158026
0.171163
0.246363
0.518003
0.786523
1.06326
1.87997
-0.337231
0.23736
0.717466
0.795171
1.53927
1.18283
0.757863
0.474434
0.383747
0.313264
0.129711
0.0141059
-0.0287665
-0.0384792
0.0557955
0.343909
0.684031
0.767924
1.40191
-1.71795
-1.66881
-0.964583
-0.719604
0.42354
0.929581
0.433939
0.23874
0.284912
0.225768
0.034729
-0.155988
-0.269089
-0.289286
-0.145547
0.1539
0.579034
0.698416
1.17918
-2.04472
-2.04597
-1.93902
-1.67093
-1.02825
0.145582
0.110499
0.0573717
0.236292
0.236815
-0.0749411
-0.341755
-0.534685
-0.562284
-0.389116
-0.0450598
0.474785
0.791967
0.836283
-2.19566
-2.21624
-2.23865
-1.96463
-1.9606
-1.10395
-0.192601
-0.0847178
0.132749
0.146003
-0.25766
-0.543597
-0.778924
-0.81554
-0.648538
-0.252
0.244239
0.472282
0.343829
-2.29286
-2.30111
-2.36243
-2.54532
-2.80182
-3.65996
-1.72013
-0.627312
-0.216857
-0.235534
-0.560895
-0.781756
-0.97899
-1.03156
-0.89219
-0.48756
0.110246
-0.581418
-1.26717
-2.36472
-2.33584
-2.37713
-2.53797
-3.24668
-4.47537
-3.82017
-1.75807
-0.822778
-0.813307
-0.943268
-1.04693
-1.1336
-1.19367
-1.09016
-0.800135
-0.121338
1.07237
-2.16321
-2.43858
-2.38911
-2.40102
-2.49667
-2.95461
-3.7395
-3.71769
-2.44414
-1.59859
-1.43376
-1.36326
-1.31548
-1.26902
-1.28263
-1.23076
-1.15769
-1.03241
-0.360411
0.128689
-2.52995
-2.50007
-2.49381
-2.51585
-2.76182
-3.20566
-3.30065
-2.80794
-2.2891
-1.96964
-1.74301
-1.57933
-1.4137
-1.36645
-1.34778
-1.42791
-1.80299
-2.29064
-0.920067
-2.63301
-2.65808
-2.66704
-2.6358
-2.71195
-3.06829
-3.2879
-3.13789
-2.76769
-2.34695
-2.02881
-1.78386
-1.57136
-1.47772
-1.47177
-1.60611
-2.1314
-3.23351
-1.24845
-2.73786
-2.80761
-2.85226
-2.8004
-2.78766
-3.07123
-3.3742
-3.3743
-3.05586
-2.61843
-2.24017
-1.93252
-1.74577
-1.63055
-1.5977
-1.7399
-2.26461
-4.03843
-1.59632
-2.83409
-2.90785
-3.00271
-2.98957
-2.94846
-3.11145
-3.38989
-3.42597
-3.17735
-2.77601
-2.39002
-2.05895
-1.8957
-1.78435
-1.70027
-1.82852
-2.3444
-3.87637
-1.78844
-2.92184
-2.98825
-3.11597
-3.16509
-3.14037
-3.18887
-3.35018
-3.37975
-3.18051
-2.84486
-2.49761
-2.17958
-2.00826
-1.90085
-1.79207
-1.86053
-2.19302
-3.00602
-1.90277
-3.02983
-3.09287
-3.20652
-3.28307
-3.318
-3.3209
-3.35365
-3.34714
-3.17972
-2.89556
-2.58779
-2.31458
-2.1357
-2.02189
-1.90876
-1.90741
-2.01461
-2.54618
-2.35807
-3.20107
-3.2646
-3.31202
-3.35758
-3.41675
-3.45107
-3.43928
-3.36898
-3.19312
-2.93074
-2.66911
-2.4598
-2.29488
-2.16906
-2.06277
-2.03125
-1.89226
-1.45686
0.0469525
-3.40064
-3.45393
-3.41968
-3.40505
-3.43898
-3.47918
-3.46095
-3.36881
-3.18778
-2.95717
-2.75249
-2.59999
-2.46104
-2.32865
-2.23877
-2.23922
-1.87753
-0.939473
0.295195
-3.5404
-3.55468
-3.50755
-3.44316
-3.42446
-3.43756
-3.41526
-3.33104
-3.18225
-3.00357
-2.84329
-2.72581
-2.60871
-2.48806
-2.42635
-2.45052
-2.17525
-1.28012
0.609942
-3.68149
-3.64773
-3.58306
-3.50352
-3.453
-3.42882
-3.41327
-3.3464
-3.22806
-3.08009
-2.93803
-2.8332
-2.73768
-2.6402
-2.58456
-2.603
-2.65167
-3.34914
0.624736
-3.82894
-3.76042
-3.67953
-3.59787
-3.53881
-3.50506
-3.4785
-3.4161
-3.30964
-3.17301
-3.03841
-2.93791
-2.86065
-2.79045
-2.73172
-2.75372
-2.91487
-4.05867
-0.957074
-3.92342
-3.86431
-3.77515
-3.69642
-3.63424
-3.59185
-3.55358
-3.49012
-3.39161
-3.27059
-3.15235
-3.05998
-2.9914
-2.93804
-2.87341
-2.92939
-2.96645
-3.56334
-1.87024
-3.96088
-3.92669
-3.85182
-3.77825
-3.71907
-3.67324
-3.62804
-3.56512
-3.47759
-3.37622
-3.27636
-3.19567
-3.12943
-3.0873
-3.01532
-3.08119
-3.05412
-3.4775
-2.25396
-3.9775
-3.96111
-3.91014
-3.85158
-3.80049
-3.75591
-3.70916
-3.64973
-3.57416
-3.48902
-3.40344
-3.33549
-3.26792
-3.23487
-3.15359
-3.22442
-3.15762
-3.54577
-2.97412
-4.00988
-4.00058
-3.96838
-3.92494
-3.88242
-3.84134
-3.79658
-3.74219
-3.67657
-3.60439
-3.532
-3.47255
-3.40318
-3.37993
-3.28291
-3.35735
-3.25511
-3.62688
-3.40003
-4.0655
-4.05915
-4.03634
-4.00338
-3.96752
-3.93016
-3.88857
-3.83952
-3.78248
-3.7208
-3.65949
-3.6083
-3.53414
-3.51899
-3.40971
-3.48129
-3.34195
-3.55475
-3.26914
-4.13647
-4.13066
-4.11262
-4.08615
-4.05541
-4.02179
-3.98401
-3.94039
-3.89086
-3.83802
-3.78576
-3.74089
-3.66636
-3.6519
-3.53987
-3.59334
-3.42675
-3.38022
-2.98778
-4.21564
-4.20959
-4.19448
-4.17241
-4.14585
-4.11599
-4.08228
-4.04384
-4.00098
-3.95571
-3.91092
-3.87088
-3.80443
-3.77786
-3.6886
-3.67574
-3.50934
-3.64964
-4.37338
-4.30007
-4.2938
-4.28067
-4.26184
-4.23887
-4.21264
-4.18295
-4.14937
-4.11243
-4.07377
-4.03548
-4.00003
-3.94504
-3.91326
-3.84485
-3.77904
-3.6823
-4.38405
-4.61024
-4.38841
-4.38207
-4.37041
-4.35415
-4.33428
-4.31142
-4.28554
-4.25651
-4.22493
-4.19217
-4.15984
-4.12946
-4.0866
-4.06012
-4.01236
-3.91347
-4.03314
-4.64148
-4.7376
-4.47977
-4.47349
-4.46306
-4.44894
-4.43176
-4.41198
-4.38967
-4.36486
-4.33816
-4.31076
-4.28405
-4.2589
-4.22958
-4.21485
-4.1974
-4.15897
-4.71909
-4.94349
-4.81341
-4.5735
-4.56744
-4.55811
-4.54581
-4.53099
-4.514
-4.49498
-4.47407
-4.4518
-4.4293
-4.40796
-4.38873
-4.37122
-4.37153
-4.39077
-4.4748
-5.34045
-5.30838
-4.86779
-4.66914
-4.66342
-4.6551
-4.6444
-4.63165
-4.6172
-4.60121
-4.58385
-4.56559
-4.54751
-4.53114
-4.51795
-4.51
-4.52145
-4.55903
-4.77846
-5.16473
-5.27564
-4.88812
-4.76634
-4.76104
-4.75365
-4.74437
-4.7335
-4.72136
-4.7081
-4.69392
-4.67925
-4.66508
-4.65306
-4.64509
-4.64396
-4.66115
-4.72164
-4.92352
-5.12757
-5.13638
-4.88104
-4.8648
-4.85996
-4.85346
-4.84551
-4.83634
-4.82626
-4.81545
-4.80409
-4.79257
-4.78182
-4.77342
-4.76954
-4.77276
-4.79175
-4.84108
-4.94442
-5.08026
-5.12838
-4.93984
-4.96428
-4.95996
-4.95432
-4.9476
-4.93998
-4.93173
-4.92306
-4.91416
-4.90538
-4.89756
-4.89211
-4.89126
-4.8971
-4.91602
-4.95838
-5.02765
-5.1149
-5.16461
-5.02803
-5.06461
-5.06084
-5.05602
-5.05048
-5.04424
-5.03762
-5.03082
-5.02404
-5.01761
-5.01226
-5.0092
-5.01052
-5.01779
-5.03597
-5.0717
-5.12168
-5.18558
-5.23619
-5.13932
-5.16564
-5.16247
-5.15864
-5.154
-5.149
-5.14382
-5.13864
-5.13367
-5.12924
-5.12598
-5.12486
-5.12773
-5.13571
-5.15284
-5.18314
-5.22226
-5.27639
-5.32931
-5.24964
-5.26724
-5.26467
-5.26157
-5.25797
-5.25413
-5.25022
-5.24644
-5.24303
-5.24029
-5.23877
-5.23923
-5.2432
-5.25151
-5.26756
-5.2937
-5.32582
-5.37955
-5.43642
-5.36643
-5.36932
-5.36732
-5.36496
-5.36231
-5.3595
-5.3567
-5.35414
-5.35206
-5.35072
-5.35059
-5.35228
-5.357
-5.36548
-5.38057
-5.40377
-5.43141
-5.48937
-5.54391
-5.48144
-5.47178
-5.47035
-5.46869
-5.46686
-5.46498
-5.4632
-5.46172
-5.46075
-5.46053
-5.46145
-5.46405
-5.46929
-5.47791
-5.49218
-5.51301
-5.53784
-5.59824
-5.63832
-5.58509
-5.57453
-5.57366
-5.57265
-5.57158
-5.5706
-5.56982
-5.56936
-5.5694
-5.57016
-5.57201
-5.57545
-5.58126
-5.59023
-5.60408
-5.62308
-5.64609
-5.69688
-5.71166
-5.67246
-5.67748
-5.67718
-5.6768
-5.67653
-5.67653
-5.67685
-5.67755
-5.67877
-5.68071
-5.68373
-5.68827
-5.69506
-5.70484
-5.71929
-5.73801
-5.76229
-5.79494
-5.75398
-5.73156
)
;

boundaryField
{
    leftWall
    {
        type            calculated;
        value           nonuniform List<scalar> 
50
(
1354.34
1173.1
989.673
804.003
615.112
421.067
224.968
55.7358
-0.832881
-1.11414
-1.25216
-1.37853
-1.50495
-1.63042
-1.75477
-1.87941
-2.00401
-2.12808
-2.25169
-2.3747
-2.49687
-2.61797
-2.7378
-2.85624
-2.97325
-3.08882
-3.20305
-3.316
-3.42778
-3.53861
-3.64885
-3.75924
-3.87094
-3.9857
-4.10628
-4.23154
-4.35027
-4.4659
-4.57901
-4.69622
-4.81267
-4.91742
-5.00758
-5.0901
-5.17496
-5.26689
-5.36507
-5.46647
-5.57038
-5.67644
)
;
    }
    rightWall
    {
        type            calculated;
        value           nonuniform List<scalar> 
50
(
329.855
244.428
155.062
67.4649
24.1127
9.62049
5.28883
2.19635
2.23465
1.87997
1.40191
1.17918
0.836283
0.343829
-1.26717
-2.16321
0.128689
-0.920067
-1.24845
-1.59632
-1.78844
-1.90277
-2.35807
0.0469525
0.295195
0.609942
0.624736
-0.957074
-1.87024
-2.25396
-2.97412
-3.40003
-3.26914
-2.98778
-4.37338
-4.61024
-4.7376
-4.81341
-4.86779
-4.88812
-4.88104
-4.93984
-5.02803
-5.13932
-5.24964
-5.36643
-5.48144
-5.58509
-5.67246
-5.73156
)
;
    }
    lowerWall
    {
        type            calculated;
        value           nonuniform List<scalar> 
62
(
1443.86
1444.37
1445.39
1446.8
1448.79
1451.35
1454.39
1457.81
1461.54
1465.51
1469.63
1473.83
1478.04
1482.16
1486.13
1489.87
1493.34
1496.5
1499.36
1501.79
1503.8
1505.61
1506.16
1417.48
1242.84
1061.96
878.885
712.426
559.726
404.749
249.107
130.396
71.9164
21.0958
10.7864
168.159
98.6359
61.3681
43.6291
36.9489
31.2256
18.656
15.4805
199.47
184.497
146.558
115.808
110.971
127.159
140.026
146.47
156.12
147.513
138.569
116.503
116.864
141.762
187.901
247.773
301.555
347.319
368.371
)
;
    }
    atmosphere
    {
        type            calculated;
        value           nonuniform List<scalar> 
46
(
-5.72904
-5.72904
-5.72904
-5.72904
-5.72904
-5.72904
-5.72904
-5.72904
-5.72904
-5.72904
-5.72904
-5.72904
-5.72904
-5.72904
-5.72904
-5.72904
-5.72904
-5.72904
-5.72904
-5.72904
-5.72904
-5.72904
-5.72904
-5.72904
-5.72904
-5.72904
-5.72904
-5.72904
-5.72904
-5.72904
-5.72918
-5.72973
-5.73072
-5.73217
-5.73418
-5.73695
-5.74083
-5.74621
-5.75382
-5.76431
-5.77982
-5.79899
-5.82893
-5.87122
-5.74378
-5.74762
)
;
    }
    defaultFaces
    {
        type            empty;
    }
}


// ************************************************************************* //
