/*--------------------------------*- C++ -*----------------------------------*\
| =========                 |                                                 |
| \\      /  F ield         | OpenFOAM: The Open Source CFD Toolbox           |
|  \\    /   O peration     | Version:  2206                                  |
|   \\  /    A nd           | Website:  www.openfoam.com                      |
|    \\/     M anipulation  |                                                 |
\*---------------------------------------------------------------------------*/
FoamFile
{
    version     2.0;
    format      ascii;
    arch        "LSB;label=32;scalar=64";
    class       volScalarField;
    location    "1";
    object      p_rgh;
}
// * * * * * * * * * * * * * * * * * * * * * * * * * * * * * * * * * * * * * //

dimensions      [1 -1 -2 0 0 0 0];

internalField   nonuniform List<scalar> 
2268
(
1443.86
1444.37
1445.39
1446.8
1448.79
1451.35
1454.39
1457.81
1461.54
1465.51
1469.63
1473.83
1478.04
1482.16
1486.13
1489.87
1493.34
1496.5
1499.36
1501.79
1503.8
1505.61
1506.16
1441.65
1442.13
1443.19
1444.61
1446.8
1449.59
1452.92
1456.64
1460.66
1464.91
1469.32
1473.8
1478.28
1482.66
1486.88
1490.88
1494.6
1497.93
1500.95
1503.69
1506.27
1508.72
1511.34
1437.25
1437.72
1438.78
1440.44
1442.96
1446.19
1450.01
1454.26
1458.85
1463.68
1468.66
1473.79
1478.82
1483.7
1488.36
1492.69
1496.6
1499.98
1502.79
1504.97
1506.5
1507.41
1509.54
1430.62
1431.07
1432.21
1434.13
1437.11
1440.97
1445.52
1450.56
1455.98
1461.76
1467.71
1473.73
1479.7
1485.48
1490.92
1495.9
1500.25
1503.78
1506.19
1507.18
1505.67
1491.91
1464.85
1420.76
1421.42
1422.74
1425.18
1428.86
1433.57
1439.18
1445.32
1452
1459.06
1466.39
1473.82
1481.19
1488.34
1495.15
1501.43
1507.03
1511.72
1515.13
1518.09
1515.85
1471.06
1456.88
1405.75
1405.86
1407.65
1412.25
1417.31
1422.64
1429.22
1436.97
1445.98
1455.18
1464.51
1473.93
1483.29
1492.41
1501.14
1509.38
1517.07
1524.08
1530.27
1535.28
1538.75
1512.42
1469.7
1388.68
1389.09
1396.47
1404.47
1412.06
1419.36
1426.73
1435.01
1443.04
1451.95
1462.26
1473.77
1485.77
1497.55
1508.78
1519.45
1529.63
1539.26
1548.26
1555.36
1561.23
1565.01
1546.99
904.721
887.08
898.554
957.642
1021.61
1079.89
1140.08
1213.04
1285.41
1348.13
1405.62
1455.4
1487.28
1504.08
1518.46
1531.69
1544.41
1556.65
1567.8
1578.19
1585.12
1591.16
1591.32
199.47
184.497
146.558
115.808
110.971
127.159
140.026
146.47
156.12
147.513
138.569
116.503
116.864
141.762
187.901
247.773
301.555
347.319
368.371
138.054
99.7782
63.0279
46.982
49.1983
68.86
100.155
106.342
90.3874
68.8915
60.6333
44.9553
46.5014
59.8373
125.396
228.189
283.786
335.41
359.959
76.3015
44.9389
29.0096
25.5262
27.7857
30.0653
27.1126
19.6594
16.7691
25.0645
38.9947
50.1062
40.5062
27.5503
40.389
161.014
273.686
322.82
350.117
83.1756
71.8131
34.5776
23.6086
27.1837
30.472
49.6532
25.9052
16.3106
25.7595
53.6859
51.7252
39.7081
13.2208
13.2443
21.7349
82.0778
223.766
331.484
113.062
92.4656
80.1673
60.6932
42.0731
77.682
74.6082
68.5215
18.3176
52.5493
53.8189
21.6057
10.0792
7.341
5.84007
2.97785
2.48404
51.275
135.045
124.531
109.666
65.9712
52.8286
70.7497
70.7639
41.3219
29.1651
22.1889
31.9709
10.3955
5.75568
5.12744
5.09028
4.15536
3.91666
5.26561
50.9702
45.5385
128.42
60.7205
6.72405
6.3264
5.73473
5.03002
4.89006
4.14447
5.75904
4.04051
4.89344
6.56053
4.66505
3.10112
3.02906
3.65726
9.93775
31.9703
37.8777
130.976
19.5028
6.63822
6.0602
5.47259
4.89899
5.20262
3.74048
3.58323
3.86293
4.64402
3.62005
3.08801
2.28708
2.38814
2.77212
10.9283
8.94306
133.566
3.25007
17.8946
31.7148
44.2763
51.057
50.2247
54.253
91.4507
152.753
241.082
376.355
600.074
925.113
1217.44
1372.82
1459.52
1529.16
1571.69
1588.62
1600.92
1608.26
1611.53
1598.75
0.484755
0.478945
0.457256
0.494649
0.559525
0.478806
0.459088
0.484097
0.504839
0.532883
0.57048
0.592706
0.677015
43.9228
169.166
305.652
500.895
760.433
1012.71
1224.24
1249.14
1318.4
1544.77
0.436889
0.425006
0.426132
0.435038
0.434252
0.43419
0.445822
0.450942
0.468625
0.500781
0.540107
0.595603
0.712608
0.869695
1.0255
1.36007
3.75315
75.318
269.48
536.793
812.564
911.847
815.71
0.411929
0.406499
0.407331
0.410557
0.413094
0.415785
0.423787
0.438924
0.458754
0.482265
0.511118
0.55266
0.621516
0.757407
3.22176
18.4556
23.0444
10.7839
9.59421
19.1317
20.4182
29.0762
36.8286
0.387732
0.384861
0.385306
0.385895
0.38635
0.388779
0.393913
0.402294
0.413277
0.424318
0.436808
0.458716
0.49394
0.770568
6.4626
8.86362
0.826743
-0.14183
0.353618
0.65696
0.969823
2.99544
2.29506
0.364582
0.362768
0.363433
0.361302
0.360525
0.360954
0.362842
0.365824
0.369015
0.370128
0.366497
0.357604
0.337187
0.904849
2.69479
0.586315
-0.209504
-0.190173
0.187073
0.655257
1.16521
1.14869
-0.0516245
0.342573
0.34052
0.339696
0.336719
0.33456
0.332916
0.331446
0.329418
0.325631
0.31751
0.30135
0.273919
0.256389
0.471154
0.0834776
-0.107207
-0.13847
-0.129841
-0.129324
-0.138287
-0.101578
-0.15728
-0.338833
0.320245
0.318117
0.316178
0.312614
0.30909
0.305269
0.300713
0.294683
0.285965
0.272253
0.250484
0.21848
0.191953
0.137869
0.0310342
-0.048882
-0.090153
-0.117885
-0.152834
-0.192199
-0.235543
-0.280026
-0.315134
0.297954
0.295923
0.293354
0.289315
0.284781
0.279322
0.272447
0.263557
0.251737
0.235402
0.212606
0.182688
0.147598
0.0937247
0.0335544
-0.0229097
-0.0649205
-0.099137
-0.13218
-0.166801
-0.201401
-0.233047
-0.256788
0.276191
0.273948
0.27109
0.266761
0.261484
0.254834
0.246458
0.235887
0.222465
0.205221
0.18306
0.155262
0.121072
0.0798838
0.0331127
-0.0117856
-0.0494644
-0.0818584
-0.111904
-0.140993
-0.168057
-0.190537
-0.205227
0.254899
0.252544
0.24957
0.245072
0.239313
0.231874
0.222568
0.211116
0.197093
0.179909
0.158949
0.133751
0.104051
0.0698211
0.0324172
-0.00423607
-0.0369764
-0.0660669
-0.092641
-0.116902
-0.137915
-0.15411
-0.163983
0.234195
0.23186
0.22887
0.224313
0.218282
0.210435
0.200718
0.188977
0.174972
0.158371
0.138843
0.116158
0.0902827
0.0615215
0.030943
0.000654772
-0.0274581
-0.0530102
-0.0761731
-0.0966415
-0.11361
-0.126227
-0.133973
0.214333
0.212034
0.209093
0.204563
0.19841
0.190403
0.180634
0.169039
0.155484
0.139787
0.121788
0.101407
0.0787308
0.0541351
0.028447
0.00294456
-0.0211739
-0.0433641
-0.0634135
-0.0809023
-0.0951663
-0.105644
-0.112175
0.195548
0.193272
0.190398
0.185943
0.179805
0.171843
0.162255
0.151056
0.138187
0.123553
0.107092
0.0888113
0.0688509
0.047559
0.0255566
0.00369025
-0.0172192
-0.0366392
-0.0542207
-0.0695478
-0.0820927
-0.0913478
-0.0971648
0.177979
0.175767
0.172935
0.168564
0.162529
0.154769
0.14553
0.134881
0.12281
0.109281
0.0942895
0.0778914
0.0602395
0.0416257
0.0225053
0.00345562
-0.014952
-0.0322686
-0.0481335
-0.0621902
-0.074057
-0.0831638
-0.0895205
0.161744
0.159671
0.156805
0.152489
0.146602
0.13914
0.130352
0.120339
0.109113
0.0966733
0.0830466
0.0683091
0.0526049
0.0361636
0.0193098
0.0024364
-0.0140678
-0.0298771
-0.0447232
-0.0584074
-0.0708352
-0.0816376
-0.0915832
0.147035
0.145051
0.142037
0.137723
0.131988
0.124871
0.11658
0.107235
0.0968579
0.0854635
0.0730908
0.0598163
0.045762
0.0310985
0.0160475
0.000862472
-0.0142161
-0.0290069
-0.0434067
-0.0574581
-0.07152
-0.085892
-0.10219
0.133761
0.131887
0.128598
0.124217
0.118604
0.111836
0.104048
0.0953659
0.0858131
0.0754076
0.0641865
0.052214
0.0395825
0.0264095
0.0128349
-0.000996852
-0.0149711
-0.0290497
-0.0433165
-0.0580623
-0.074061
-0.0925303
-0.115884
0.121841
0.120095
0.116417
0.111879
0.106336
0.0998845
0.0925797
0.0845345
0.0757677
0.0662923
0.0561346
0.0453389
0.0339659
0.022087
0.00977842
-0.00289798
-0.0159257
-0.0293807
-0.0434973
-0.0587537
-0.0761148
-0.0974122
-0.12559
0.111198
0.109546
0.105395
0.100587
0.0950389
0.0888559
0.0819991
0.0745575
0.0665374
0.05794
0.0487748
0.0390626
0.0288338
0.0181224
0.00695722
-0.00465633
-0.016766
-0.0295164
-0.0432163
-0.058427
-0.0761068
-0.0980244
-0.127451
0.101716
0.10009
0.0953952
0.0901757
0.0845373
0.0785687
0.0721291
0.0652649
0.0579635
0.0502069
0.0419834
0.033289
0.0241278
0.0145053
0.00441934
-0.00615755
-0.0173039
-0.0291857
-0.0421068
-0.0565802
-0.0734723
-0.0941384
-0.121119
0.0931957
0.0915273
0.086216
0.0804244
0.074605
0.0688099
0.0627783
0.0564892
0.0499023
0.0429722
0.0356621
0.0279446
0.0198021
0.0112213
0.00218306
-0.00735267
-0.0174685
-0.0283158
-0.040123
-0.0533464
-0.0685877
-0.0866802
-0.108957
0.0852565
0.0835037
0.0775217
0.0710174
0.0649467
0.0593192
0.0537293
0.0480545
0.0422142
0.0361262
0.0297266
0.022967
0.0158151
0.00824735
0.0002397
-0.00824566
-0.0172761
-0.0269659
-0.0374991
-0.0491491
-0.0622888
-0.0773713
-0.0949385
0.0771755
0.0753536
0.0687169
0.0614657
0.0551588
0.0497679
0.0447284
0.0397721
0.03476
0.0295666
0.0241014
0.0183012
0.0121265
0.00555253
-0.00144037
-0.00887846
-0.0168069
-0.0253016
-0.0344745
-0.0444776
-0.0554962
-0.0677441
-0.0814107
0.0677766
0.0658902
0.0587312
0.0509513
0.0446517
0.0397321
0.0354799
0.0314443
0.0274087
0.0232051
0.0187252
0.0139023
0.00870051
0.00310324
-0.00289624
-0.00930774
-0.016152
-0.0234635
-0.0312964
-0.0397193
-0.0488024
-0.058614
-0.0691793
0.0553152
0.053009
0.0455825
0.0380433
0.0325361
0.0286765
0.0256661
0.0228912
0.0200602
0.0169849
0.0135631
0.00974511
0.00551455
0.000872411
-0.00416412
-0.00958577
-0.0153872
-0.021569
-0.0281398
-0.0351135
-0.0424893
-0.050252
-0.0583435
0.0370472
0.0330888
0.025817
0.0202702
0.0174641
0.015971
0.0150149
0.0140139
0.0126921
0.0109115
0.00862596
0.00583774
0.00257094
-0.00115372
-0.00526648
-0.00974789
-0.0145679
-0.0196976
-0.0251126
-0.0307883
-0.0366825
-0.0427339
-0.0488463
0.0140837
0.000875226
-0.00478229
-0.0057491
-0.00231811
0.0010322
0.00347002
0.00491344
0.00543135
0.00509244
0.00399258
0.00223334
-8.42268e-05
-0.00297667
-0.00620596
-0.00981101
-0.013726
-0.0178965
-0.0222743
-0.0268087
-0.0314351
-0.0360714
-0.0406083
-0.0023364
-0.0401994
-0.045079
-0.040612
-0.0274112
-0.0159708
-0.00843541
-0.00393332
-0.00136899
-0.000231295
-0.00018198
-0.000980687
-0.00245639
-0.00448902
-0.00695145
-0.00977141
-0.0128727
-0.0161867
-0.0196503
-0.0231977
-0.0267537
-0.0302305
-0.0335203
-0.0156621
-0.0609932
-0.0795736
-0.0748098
-0.0532697
-0.0326545
-0.0191265
-0.0115562
-0.00712268
-0.00469243
-0.00368214
-0.00365218
-0.00438709
-0.00571174
-0.00749061
-0.00961802
-0.0120044
-0.01457
-0.0172424
-0.0199497
-0.0226137
-0.0251487
-0.0274559
-0.0264678
-0.0598743
-0.0909904
-0.0922311
-0.0703015
-0.0440743
-0.026092
-0.0167661
-0.0111997
-0.00788553
-0.00632833
-0.00565422
-0.00581102
-0.00657496
-0.00778631
-0.00932904
-0.0111067
-0.0130347
-0.0150377
-0.0170431
-0.0189752
-0.0207543
-0.0222931
-0.0413771
-0.0564628
-0.0782002
-0.0851927
-0.0720217
-0.0455148
-0.0266613
-0.0191966
-0.0133424
-0.00978153
-0.0078033
-0.00685723
-0.00666724
-0.00703318
-0.00780961
-0.00888429
-0.0101633
-0.0115647
-0.0130163
-0.0144492
-0.015793
-0.0169755
-0.0179218
-0.0555199
-0.0587811
-0.0571213
-0.0615981
-0.0569997
-0.0405173
-0.0256502
-0.0177513
-0.0131473
-0.0101336
-0.00828318
-0.00730485
-0.00695973
-0.00708378
-0.00755524
-0.00827637
-0.00916438
-0.0101466
-0.0111582
-0.0121372
-0.0130198
-0.0137423
-0.0142421
-0.0579682
-0.0549158
-0.0373779
-0.037634
-0.0386587
-0.0304711
-0.0207185
-0.014849
-0.01158
-0.00935737
-0.00790975
-0.00709454
-0.00675117
-0.00676432
-0.0070443
-0.00751556
-0.00811201
-0.00877393
-0.00944669
-0.0100768
-0.0106086
-0.0109873
-0.0111619
-0.0458216
-0.0389061
-0.0204626
-0.0200764
-0.0229514
-0.019746
-0.0145222
-0.0111305
-0.00922156
-0.00786275
-0.00693276
-0.00638942
-0.00614848
-0.00614442
-0.00632175
-0.00662962
-0.00702037
-0.00744833
-0.00786994
-0.00824128
-0.00851597
-0.00864871
-0.00859867
-0.0260329
-0.0189936
-0.00736462
-0.00814656
-0.0111693
-0.0106891
-0.00870857
-0.00736692
-0.00662115
-0.00604224
-0.00562085
-0.00537474
-0.00527998
-0.00531314
-0.00544885
-0.00565889
-0.00591267
-0.0061777
-0.00642108
-0.00660878
-0.00670449
-0.00667252
-0.00648075
-0.00859671
-0.00380542
0.00152757
-6.71888e-05
-0.00290981
-0.00397217
-0.00403117
-0.00408613
-0.00419207
-0.00421611
-0.00421116
-0.00422534
-0.00427421
-0.00436415
-0.00449239
-0.00464841
-0.00481555
-0.00497266
-0.00509631
-0.00516182
-0.00514274
-0.00501243
-0.00474612
0.00178434
0.00460638
0.00667576
0.00497002
0.00229462
0.000418091
-0.000725456
-0.00156671
-0.00219291
-0.00260774
-0.00288575
-0.00308582
-0.00324399
-0.00338359
-0.00351593
-0.00364235
-0.00375632
-0.00384566
-0.00389493
-0.00388755
-0.00380549
-0.00363023
-0.00334319
0.00590847
0.00832311
0.00894084
0.00735417
0.00486248
0.00275376
0.00123314
9.06742e-05
-0.000754502
-0.0013504
-0.0017677
-0.0020632
-0.00227872
-0.00244362
-0.00257533
-0.00268138
-0.00276169
-0.00281045
-0.00281907
-0.00277708
-0.00267305
-0.00249476
-0.00222895
0.0068076
0.00837617
0.00874358
0.00739103
0.00527447
0.00341495
0.00200081
0.00091404
9.84325e-05
-0.000494529
-0.000918675
-0.00122015
-0.00143625
-0.00159435
-0.00171165
-0.00179694
-0.00185296
-0.00187836
-0.00187022
-0.00182254
-0.00172788
-0.0015782
-0.00136498
0.00520779
0.00676787
0.00686307
0.00563572
0.00405372
0.00275483
0.0017546
0.000974942
0.000383159
-5.3598e-05
-0.000368814
-0.00059307
-0.00075263
-0.000867718
-0.000950822
-0.00100785
-0.00104132
-0.00105277
-0.0010422
-0.00100611
-0.00093925
-0.000838524
-0.000700436
0.00144825
0.00207206
0.00248579
0.00236594
0.00183929
0.0013209
0.000921061
0.000607788
0.00035916
0.000168028
2.55553e-05
-7.89599e-05
-0.000155631
-0.00021269
-0.000254789
-0.000283042
-0.000298237
-0.000302528
-0.000297331
-0.000283235
-0.000259181
-0.000223683
-0.000174964
1561.99
897.622
197.97
25.236
1475.44
586.071
35.0935
16.3354
384.723
45.3308
4.01534
2.70486
1.35917
0.895446
0.457833
0.28685
-0.121773
-0.094589
-0.187406
-0.16876
-0.329539
-0.302899
-0.28282
-0.228735
-0.369119
-0.342466
-0.286053
-0.228171
-0.32801
-0.304743
-0.258583
-0.213357
-0.265603
-0.248957
-0.218822
-0.184338
-0.209476
-0.200648
-0.184094
-0.160005
-0.167421
-0.164799
-0.158622
-0.143535
-0.137421
-0.138151
-0.138526
-0.132486
-0.115458
-0.117269
-0.1201
-0.119475
-0.100334
-0.10138
-0.10122
-0.0995763
-0.0955
-0.0990323
-0.0165838
0.676499
-0.105621
-0.0711514
1.58123
2.64372
-0.128063
0.121637
2.5771
2.66751
-0.155588
-0.0077118
2.00911
2.66073
-0.169116
-0.144782
1.01619
2.4282
-0.172103
-0.234525
-0.116394
1.20098
-0.161085
-0.226433
-0.30531
-0.330447
-0.139487
-0.184622
-0.24251
-0.295169
-0.117195
-0.14652
-0.181979
-0.216328
-0.0976939
-0.117111
-0.138267
-0.157288
-0.0812205
-0.0945858
-0.107815
-0.118456
-0.0672186
-0.0765484
-0.0850981
-0.0913539
-0.0553027
-0.0617381
-0.0672064
-0.0707812
-0.0452162
-0.0495348
-0.0528625
-0.0546188
-0.0367152
-0.0394821
-0.0413085
-0.0418142
-0.0295704
-0.0311955
-0.0319648
-0.0316165
-0.023586
-0.024374
-0.024402
-0.023484
-0.0185994
-0.0187854
-0.0183085
-0.0170356
-0.0144707
-0.0142396
-0.0134393
-0.0119747
-0.0110762
-0.0105734
-0.00958868
-0.00805319
-0.00830768
-0.00764725
-0.00658364
-0.00506675
-0.00607226
-0.0053435
-0.00428227
-0.00285301
-0.00429067
-0.00356472
-0.00257048
-0.00128471
-0.00289756
-0.00223161
-0.00135545
-0.000255432
-0.00183767
-0.00127598
-0.000556276
0.000328083
-0.00106063
-0.000636284
-0.000103035
0.000541436
-0.000508507
-0.000245101
8.45104e-05
0.000476588
-0.00010868
-2.15654e-05
8.66583e-05
0.000216295
26.3479
27.5827
21.0624
5.95313
5.30594
4.82259
5.16721
3.72119
3.5581
4.29883
5.00098
2.29454
1.96451
1.93139
2.04288
3.27667
5.79388
4.72625
293.567
36.8969
48.6936
48.4145
28.9684
5.03158
4.52373
4.43933
3.7129
3.78726
5.34483
5.07844
1.89173
1.78455
1.79771
1.879
3.21386
2.81566
4.29762
313.568
17.213
49.4618
50.2612
50.6582
14.1781
4.40432
3.97524
3.68994
3.89237
5.52923
2.39927
1.74557
1.70269
1.69298
1.78823
2.19393
2.55686
5.66272
333.199
0.555994
4.83137
51.9204
52.1654
49.3827
4.34195
3.83952
3.64351
3.92943
5.36747
1.88993
1.6808
1.56731
1.58438
1.70071
2.00631
2.52621
2.68848
352.661
-0.0450624
1.01876
30.3246
54.2361
53.4113
29.9783
3.70983
3.6567
4.83457
2.73668
1.91052
1.6028
1.40738
1.42716
1.57761
1.91328
2.48139
3.17216
371.782
-0.189208
-0.145734
3.85256
44.8435
53.8573
53.1284
4.91266
3.70917
4.85428
2.83579
2.73318
1.80165
1.27183
1.26615
1.41654
1.81283
2.33578
12.5007
390.437
-0.190215
-0.191449
-0.185304
0.0466674
31.3121
51.4283
51.1155
14.1281
2.75163
2.71364
3.15146
2.87059
1.18766
1.14314
1.27908
1.68646
2.31104
94.125
405.634
-0.163734
-0.117939
0.0443518
-0.020523
-0.334495
5.96636
19.2896
5.31615
2.36246
2.56149
2.95882
2.83148
1.22872
1.09456
1.19062
1.49983
2.52779
214.322
413.91
-0.131041
0.760562
2.32985
1.3752
0.486281
-0.235931
-0.256723
1.33397
2.35938
2.49491
2.69554
2.62654
1.7574
1.12273
1.18109
1.30392
2.39466
96.3287
202.129
-0.116064
1.22493
2.70087
2.64858
0.991429
0.300497
0.100751
1.59132
2.10408
1.22592
1.2746
2.15897
2.22644
1.15953
1.16368
1.13834
4.58369
25.3452
31.3865
-0.116926
1.1912
2.7345
2.77994
2.64365
0.513793
-0.274756
1.33936
0.816683
0.35269
0.673629
0.939041
2.15268
1.26239
1.09718
1.01211
5.50957
21.6186
27.0877
-0.124093
0.380166
2.33109
2.7904
2.76052
0.570017
-0.537382
-0.0634473
-0.0779028
0.191459
0.569283
0.880223
2.07858
1.68726
1.04285
0.955123
7.08255
40.0174
38.1401
-0.121522
-0.187051
0.461096
2.50106
2.67576
0.599399
-0.453815
-0.491089
-0.250697
0.143929
0.579181
0.853792
0.953153
1.30859
1.02734
0.946939
4.97921
42.5581
32.5905
-0.108135
-0.173128
-0.286263
1.20584
2.54352
2.33548
-0.173128
-0.332883
-0.120512
0.192231
0.623748
1.07039
0.816852
0.923746
1.03304
0.978452
0.680588
19.6813
23.3097
0.892186
0.0121686
-0.229496
-0.272806
1.26416
2.83669
2.80667
1.36595
0.98183
0.529726
0.420725
1.0723
0.81888
0.905582
1.01846
1.02076
0.925238
6.16446
220.407
2.60737
2.47965
0.471864
-0.190227
-0.195931
0.781256
2.83588
2.85013
1.99594
0.498607
0.406603
1.04592
1.14513
0.861097
0.967728
1.00535
1.14757
1.59161
714.364
2.48162
0.916891
0.806521
0.421823
-0.179994
-0.23834
-0.226765
-0.089098
0.0160479
0.259185
0.422647
1.02458
1.15641
0.826028
0.895035
0.901891
1.26869
2.21302
779.834
0.209971
-0.274605
-0.100379
0.170792
-0.0205591
-0.0973299
-0.0775584
-0.0083694
0.120677
0.264177
0.42753
1.01024
1.09453
0.783081
0.811255
0.814221
1.08217
10.2547
806.714
0.94899
-0.293711
-0.237786
-0.0721376
0.0751143
0.0473293
0.0594059
0.260732
0.364188
0.287689
0.40634
0.56934
0.735983
0.686265
0.750366
0.785207
1.07953
37.6575
832.461
1.5482
0.732206
-0.242618
-0.169267
0.0993462
0.248025
0.274653
0.336967
0.376267
0.300824
0.399883
0.489599
0.566697
0.636759
0.695699
0.679619
0.533765
37.4239
856.266
0.447059
0.33966
-0.0224467
-0.166421
-0.104333
-0.0619513
-0.00171397
0.169643
0.139862
0.271231
0.421937
0.469924
0.538121
0.591464
0.656094
0.600126
0.563051
25.8131
880.127
-0.326363
-0.294128
-0.219663
-0.142978
-0.085836
-0.0410836
0.00417683
0.0671716
0.155212
0.277528
0.401531
0.463479
0.504571
0.544507
0.616483
0.55062
0.577685
25.0374
902.824
-0.243036
-0.225158
-0.175749
-0.117235
-0.0661413
-0.0214636
0.0265131
0.0863919
0.163468
0.274636
0.378055
0.443574
0.470239
0.499239
0.580528
0.509695
0.576489
24.3461
921.495
-0.173435
-0.164064
-0.131841
-0.0883871
-0.0457419
-0.0036518
0.0402657
0.0984437
0.171373
0.234781
0.313898
0.364978
0.433887
0.456484
0.553518
0.47909
0.581329
20.7824
934.659
-0.126779
-0.12043
-0.0974502
-0.0643563
-0.0285017
0.00869375
0.0503939
0.112005
0.169044
0.220613
0.27923
0.330411
0.404572
0.419727
0.529014
0.457583
0.597325
11.5534
933.068
-0.0954461
-0.0896426
-0.0713885
-0.0448136
-0.014293
0.0193282
0.0588539
0.106222
0.158697
0.204918
0.255256
0.300126
0.374661
0.389177
0.501794
0.454316
0.622862
6.12055
492.28
-0.0723165
-0.0662282
-0.0510355
-0.0290203
-0.00250485
0.0274731
0.0610404
0.0994836
0.142341
0.187618
0.232406
0.272444
0.338894
0.36553
0.457894
0.541564
1.24066
32.6792
20.5515
-0.0544384
-0.0481531
-0.0350338
-0.0162089
0.00677789
0.0330121
0.062686
0.0962584
0.133196
0.171861
0.210152
0.245597
0.300586
0.33239
0.402656
0.526046
18.6365
71.2947
0.85925
-0.0404774
-0.0341331
-0.0224747
-0.00621805
0.0136561
0.0365123
0.062393
0.0914227
0.123003
0.155765
0.18809
0.218468
0.261331
0.287854
0.341162
2.36938
46.3573
73.2959
0.775317
-0.0295309
-0.0232567
-0.0128249
0.00129419
0.0184755
0.0382559
0.0605717
0.0853762
0.112081
0.139477
0.16619
0.191336
0.22066
0.235418
0.264017
16.9283
67.4709
72.4998
0.331603
-0.0209544
-0.0149018
-0.00556831
0.00672589
0.0215552
0.0385397
0.0575571
0.078468
0.100738
0.123238
0.144582
0.163807
0.181324
0.180982
0.164754
32.4138
62.7017
13.0967
0.143874
-0.0142941
-0.00857982
-0.000254151
0.0104498
0.0231976
0.0376425
0.0536335
0.0709984
0.0892594
0.107338
0.123705
0.136898
0.144843
0.133396
0.0958105
8.58816
23.0264
-0.620289
-0.163332
-0.00918971
-0.0038885
0.00350028
0.0127773
0.0236499
0.035793
0.0490445
0.0632252
0.0779028
0.0920643
0.104086
0.11206
0.113187
0.096009
0.0355138
-0.166373
-0.37042
-0.379006
-0.123427
-0.00534376
-0.00050895
0.00598991
0.0139461
0.0231143
0.0331918
0.0440048
0.0553665
0.0668852
0.0776366
0.0860353
0.0899091
0.0866953
0.0677088
0.0183697
-0.0849623
-0.220805
-0.268616
-0.0799131
-0.00252175
0.00179996
0.00743956
0.0141532
0.0217798
0.0300252
0.0386947
0.0475948
0.0563734
0.0642003
0.0696512
0.0704998
0.0646594
0.0457418
0.00337787
-0.0658879
-0.132117
-0.195959
-0.063865
-0.000544444
0.00321984
0.00803736
0.013579
0.0198182
0.0264426
0.0332417
0.0400201
0.0464551
0.0518013
0.0548653
0.0535442
0.0462712
0.0280874
-0.00763494
-0.0576212
-0.0633646
-0.129711
-0.071949
0.000729358
0.00389174
0.00772334
0.0123693
0.0173637
0.0225501
0.0277288
0.032692
0.0371308
0.0403848
0.0415042
0.0386362
0.0306534
0.0135218
-0.0167693
-0.0558968
-0.0468325
-0.0955652
-0.0764988
0.00142761
0.00400555
0.00710143
0.0106983
0.0145369
0.0184508
0.02223
0.0256402
0.0283824
0.029896
0.0294388
0.0254703
0.0171604
0.00110691
-0.0250254
-0.0571443
-0.068699
-0.0992122
-0.0878131
0.00165569
0.00365479
0.00601746
0.00866638
0.0114794
0.0142724
0.0168315
0.0189173
0.0202547
0.0203822
0.0186996
0.0139745
0.00549702
-0.00959549
-0.0327986
-0.0604351
-0.118392
-0.10302
-0.0959425
0.00149744
0.00292757
0.00458954
0.0064144
0.00829774
0.010076
0.0115583
0.012534
0.0127538
0.0118285
0.00923161
0.00398577
-0.00463483
-0.0189052
-0.0397315
-0.0645629
-0.124914
-0.0939288
-0.0901894
0.00105042
0.00192148
0.0029343
0.00400434
0.00498191
0.00576472
0.00622183
0.00618723
0.00542334
0.0035712
0.000136382
-0.00567865
-0.0146488
-0.0284985
-0.0474978
-0.0705105
-0.121204
-0.0637472
-0.0778599
0.000405355
0.000709353
0.00108392
0.00135703
0.00135897
0.00104095
0.000335584
-0.000877919
-0.00281947
-0.00583826
-0.0103837
-0.0171708
-0.0269528
-0.041403
-0.0601237
-0.0843981
-0.115863
-0.00837344
-0.0352558
)
;

boundaryField
{
    leftWall
    {
        type            fixedFluxPressure;
        gradient        uniform 0;
        value           nonuniform List<scalar> 
50
(
1443.86
1441.65
1437.25
1430.62
1420.76
1405.75
1388.68
904.721
3.25007
0.484755
0.436889
0.411929
0.387732
0.364582
0.342573
0.320245
0.297954
0.276191
0.254899
0.234195
0.214333
0.195548
0.177979
0.161744
0.147035
0.133761
0.121841
0.111198
0.101716
0.0931957
0.0852565
0.0771755
0.0677766
0.0553152
0.0370472
0.0140837
-0.0023364
-0.0156621
-0.0264678
-0.0413771
-0.0555199
-0.0579682
-0.0458216
-0.0260329
-0.00859671
0.00178434
0.00590847
0.0068076
0.00520779
0.00144825
)
;
    }
    rightWall
    {
        type            fixedFluxPressure;
        gradient        uniform 0;
        value           nonuniform List<scalar> 
50
(
368.371
359.959
350.117
331.484
135.045
45.5385
37.8777
133.566
293.567
313.568
333.199
352.661
371.782
390.437
405.634
413.91
202.129
31.3865
27.0877
38.1401
32.5905
23.3097
220.407
714.364
779.834
806.714
832.461
856.266
880.127
902.824
921.495
934.659
933.068
492.28
20.5515
0.85925
0.775317
0.331603
0.143874
-0.163332
-0.123427
-0.0799131
-0.063865
-0.071949
-0.0764988
-0.0878131
-0.0959425
-0.0901894
-0.0778599
-0.0352558
)
;
    }
    lowerWall
    {
        type            fixedFluxPressure;
        gradient        uniform 0;
        value           nonuniform List<scalar> 
62
(
1443.86
1444.37
1445.39
1446.8
1448.79
1451.35
1454.39
1457.81
1461.54
1465.51
1469.63
1473.83
1478.04
1482.16
1486.13
1489.87
1493.34
1496.5
1499.36
1501.79
1503.8
1505.61
1506.16
1506.16
1511.34
1509.54
1464.85
1456.88
1469.7
1546.99
1591.32
1561.99
897.622
197.97
25.236
199.47
138.054
76.3015
83.1756
113.062
124.531
128.42
130.976
199.47
184.497
146.558
115.808
110.971
127.159
140.026
146.47
156.12
147.513
138.569
116.503
116.864
141.762
187.901
247.773
301.555
347.319
368.371
)
;
    }
    atmosphere
    {
        type            totalPressure;
        rho             rho;
        psi             none;
        gamma           1;
        p0              uniform 0;
        value           nonuniform List<scalar> 
46
(
0
0
0
0
0
0
0
0
0
0
0
0
0
0
0
0
0
0
0
0
0
0
0
0
0
0
0
0
0
0
-0.000137141
-0.00069409
-0.00168177
-0.00313059
-0.00514159
-0.00791159
-0.0117896
-0.0171689
-0.0247792
-0.0352738
-0.0507822
-0.0699461
-0.0998922
-0.142177
-0.0147448
0
)
;
    }
    defaultFaces
    {
        type            empty;
    }
}


// ************************************************************************* //
