/*--------------------------------*- C++ -*----------------------------------*\
| =========                 |                                                 |
| \\      /  F ield         | OpenFOAM: The Open Source CFD Toolbox           |
|  \\    /   O peration     | Version:  2206                                  |
|   \\  /    A nd           | Website:  www.openfoam.com                      |
|    \\/     M anipulation  |                                                 |
\*---------------------------------------------------------------------------*/
FoamFile
{
    version     2.0;
    format      ascii;
    arch        "LSB;label=32;scalar=64";
    class       surfaceScalarField;
    location    "1";
    object      phi;
}
// * * * * * * * * * * * * * * * * * * * * * * * * * * * * * * * * * * * * * //

dimensions      [0 3 -1 0 0 0 0];

oriented        oriented;

internalField   nonuniform List<scalar> 
4432
(
-2.20262e-06
2.20262e-06
-9.71418e-07
-1.23123e-06
1.44882e-06
-2.42025e-06
3.06844e-06
-1.61964e-06
3.47985e-06
-4.11408e-07
3.01024e-06
4.6961e-07
2.15482e-06
8.55422e-07
1.32239e-06
8.32445e-07
7.0094e-07
6.21463e-07
3.10349e-07
3.90611e-07
9.48635e-08
2.15507e-07
-1.2109e-08
1.06995e-07
-6.0788e-08
4.8699e-08
-7.85432e-08
1.77701e-08
-7.69444e-08
-1.58993e-09
-5.72622e-08
-1.96781e-08
-1.17316e-08
-4.55306e-08
9.65236e-08
-1.0826e-07
4.6225e-07
-3.65737e-07
8.9784e-07
-4.35608e-07
1.99398e-06
-1.09616e-06
3.5463e-06
-1.55233e-06
3.54629e-06
-2.13074e-06
4.33339e-06
-1.02055e-06
-2.34139e-06
6.46213e-07
-4.08699e-06
1.59332e-06
-2.56673e-06
1.67019e-06
-4.88275e-07
1.16498e-06
9.74811e-07
5.1956e-07
1.50082e-06
9.9555e-09
1.34202e-06
-2.39384e-07
8.70774e-07
-2.02022e-07
3.53219e-07
9.23436e-08
-7.88858e-08
6.03835e-07
-4.04521e-07
1.29607e-06
-6.43558e-07
2.14003e-06
-8.26195e-07
3.11726e-06
-9.78818e-07
4.22141e-06
-1.12382e-06
5.43961e-06
-1.26371e-06
6.77978e-06
-1.4484e-06
8.02965e-06
-1.61557e-06
9.54716e-06
-1.95309e-06
1.11375e-05
-2.68647e-06
9.05854e-06
5.26676e-07
1.26048e-05
-2.03591e-06
6.36928e-06
-1.79265e-06
-2.58467e-06
-1.25666e-06
-4.62298e-06
-1.10403e-06
-2.71935e-06
-1.30468e-06
-2.87621e-07
-1.60969e-06
1.27985e-06
-1.83087e-06
1.72201e-06
-1.89059e-06
1.40178e-06
-1.7598e-06
7.40004e-07
-1.44942e-06
4.28728e-08
-9.77003e-07
-5.51285e-07
-3.54874e-07
-1.02663e-06
4.14456e-07
-1.41288e-06
1.33819e-06
-1.74992e-06
2.43362e-06
-2.07426e-06
3.74137e-06
-2.43158e-06
5.32365e-06
-2.84601e-06
7.29161e-06
-3.41638e-06
9.73846e-06
-4.06244e-06
1.33732e-05
-5.58781e-06
1.68603e-05
-6.17362e-06
1.25365e-05
4.85047e-06
2.51414e-05
-2.63723e-06
9.00652e-06
-4.29071e-06
-9.31199e-07
-5.06166e-06
-3.85203e-06
-5.23319e-06
-2.54783e-06
-5.19123e-06
-3.29601e-07
-4.98435e-06
1.07295e-06
-4.66204e-06
1.39969e-06
-4.2251e-06
9.64829e-07
-3.67468e-06
1.89574e-07
-2.9877e-06
-6.44116e-07
-2.18917e-06
-1.34982e-06
-1.32537e-06
-1.89044e-06
-4.34494e-07
-2.30374e-06
4.39673e-07
-2.62407e-06
1.29126e-06
-2.92582e-06
2.15398e-06
-3.29428e-06
3.13341e-06
-3.82542e-06
4.35184e-06
-4.6348e-06
6.08533e-06
-5.79592e-06
8.98387e-06
-8.48634e-06
1.1006e-05
-8.19578e-06
5.7947e-06
1.00618e-05
3.09361e-05
-4.21915e-06
1.32257e-05
-8.23263e-06
3.08229e-06
-1.04675e-05
-1.61712e-06
-1.04297e-05
-2.58561e-06
-9.5e-06
-1.25933e-06
-8.58768e-06
1.6064e-07
-7.77493e-06
5.86953e-07
-6.99329e-06
1.83197e-07
-6.12625e-06
-6.77458e-07
-5.16677e-06
-1.60359e-06
-4.12041e-06
-2.39618e-06
-3.0059e-06
-3.00495e-06
-1.91009e-06
-3.39956e-06
-9.25221e-07
-3.60895e-06
-9.85892e-08
-3.75246e-06
5.21451e-07
-3.91433e-06
8.37982e-07
-4.14196e-06
7.38398e-07
-4.53522e-06
2.22198e-08
-5.07974e-06
-2.0971e-06
-6.36702e-06
-4.43259e-06
-5.86028e-06
-4.94394e-06
1.05732e-05
2.59921e-05
-3.59235e-06
1.6818e-05
-8.45274e-06
7.94266e-06
-1.08917e-05
8.21863e-07
-1.07158e-05
-2.7615e-06
-9.7803e-06
-2.19487e-06
-9.3092e-06
-3.10466e-07
-9.2219e-06
4.99649e-07
-8.90762e-06
-1.31082e-07
-8.05094e-06
-1.53414e-06
-6.88672e-06
-2.76781e-06
-5.43465e-06
-3.84824e-06
-3.73453e-06
-4.70506e-06
-1.95597e-06
-5.1781e-06
-4.10455e-07
-5.15446e-06
5.29059e-07
-4.69197e-06
6.31652e-07
-4.01692e-06
-8.0342e-08
-3.42996e-06
-1.65007e-06
-2.96548e-06
-4.41782e-06
-2.31198e-06
-8.84812e-06
-1.93672e-06
-1.32704e-05
-1.43799e-06
-9.26771e-06
6.57046e-06
1.67244e-05
1.55089e-06
1.52671e-05
1.42392e-06
8.06963e-06
1.0484e-06
1.19739e-06
-1.51927e-06
-1.93835e-07
-3.94236e-06
2.28227e-07
-5.20864e-06
9.55807e-07
-5.65009e-06
9.41103e-07
-5.73076e-06
-5.04063e-08
-6.1065e-06
-1.1584e-06
-6.22857e-06
-2.64573e-06
-5.77614e-06
-4.30067e-06
-4.94821e-06
-5.53299e-06
-4.08702e-06
-6.03929e-06
-3.28245e-06
-5.95903e-06
-2.60025e-06
-5.37417e-06
-2.31436e-06
-4.30281e-06
-2.65864e-06
-3.08567e-06
-3.57752e-06
-2.04661e-06
-4.89362e-06
-9.95876e-07
-7.0265e-06
1.96162e-07
-9.36378e-06
8.99289e-07
-5.09239e-06
2.29908e-06
1.1632e-05
1.18995e-05
3.36767e-06
1.27505e-05
7.21862e-06
6.23414e-06
7.71373e-06
-1.36034e-06
7.40064e-06
-7.30964e-06
6.17753e-06
-1.17404e-05
5.38658e-06
-1.31655e-05
2.36619e-06
-1.23729e-05
-8.43001e-07
-1.10635e-05
-2.46777e-06
-9.88713e-06
-3.82213e-06
-8.41485e-06
-5.77295e-06
-6.50575e-06
-7.44209e-06
-4.89313e-06
-7.65191e-06
-4.37837e-06
-6.47379e-06
-4.38389e-06
-5.36865e-06
-4.04823e-06
-4.63846e-06
-3.26762e-06
-3.86629e-06
-2.3639e-06
-2.95034e-06
-1.02037e-06
-2.3394e-06
1.13639e-06
-1.96059e-06
2.29178e-06
-2.561e-07
2.84543e-06
1.74544e-06
1.44775e-05
6.41208e-05
-6.41208e-05
0.000119317
-5.51963e-05
0.000129669
-1.03524e-05
0.000125407
4.26215e-06
0.000139648
-1.4241e-05
0.000178648
-3.89995e-05
0.000223679
-4.50309e-05
0.00024887
-2.51918e-05
0.000230121
1.87491e-05
0.000104917
0.000125205
-3.22522e-06
0.000108142
-1.88227e-05
1.55975e-05
-5.66125e-06
-1.31615e-05
-1.23649e-05
6.70363e-06
-4.59958e-05
3.36309e-05
-8.82411e-05
4.22453e-05
-0.000102139
1.38978e-05
-6.12444e-05
-4.08945e-05
-6.12444e-05
0.000111689
-0.00017581
0.000217623
-0.000161131
0.000255358
-4.80869e-05
0.000218164
4.14554e-05
0.000165623
3.83e-05
0.00015621
-2.95859e-05
0.000194742
-8.3563e-05
0.000250706
-8.11559e-05
0.000256957
1.24982e-05
0.00020306
0.000179102
0.000131374
0.000179827
8.87602e-05
5.82116e-05
8.20819e-05
-6.48319e-06
1.18041e-05
7.69815e-05
-6.8031e-05
0.000113466
-0.000101338
7.55527e-05
-0.000105348
1.79074e-05
-6.3306e-05
-8.29364e-05
-0.00012455
7.92077e-05
-0.000255017
0.000144692
-0.000226615
0.000212064
-0.000115459
0.00025385
-3.30609e-07
0.000233335
5.88152e-05
0.000202758
9.9157e-07
0.000183903
-6.47088e-05
0.00017447
-7.17225e-05
0.000147741
3.92267e-05
0.000151935
0.000174908
0.000163314
0.000168448
0.000158603
6.2923e-05
0.000146745
5.37538e-06
1.02761e-05
0.00021345
-0.000146126
0.000269868
-0.000140288
6.97155e-05
-9.87471e-05
-2.3634e-05
-4.92975e-05
-0.000132386
-0.000173848
-7.11358e-06
-0.000247904
-2.17795e-05
-0.000211949
-1.19788e-05
-0.00012526
3.70293e-05
-4.93387e-05
9.1908e-05
3.93633e-06
0.000130139
-3.72396e-05
0.000119384
-5.39539e-05
6.76693e-05
-2.00078e-05
2.49061e-05
8.19898e-05
6.77532e-05
0.000132061
0.000131
0.000105201
0.000144303
4.96208e-05
0.000111947
3.77307e-05
4.52643e-05
0.000280133
-5.45835e-05
0.000369716
-0.000165347
0.000180479
-0.000116415
-7.25659e-05
-4.53773e-05
-0.000203423
-0.000219225
-5.3578e-05
-0.000194326
-9.85696e-05
-0.000166958
-0.000103899
-0.000119931
-7.27542e-05
-8.04831e-05
-1.09761e-05
-5.78419e-05
1.26038e-05
-6.08195e-05
-1.05372e-05
-3.08129e-05
-5.452e-05
2.3975e-05
-4.56048e-05
7.30745e-05
1.83145e-05
6.81416e-05
7.30282e-05
5.04872e-05
6.79888e-05
5.46602e-05
3.47287e-05
7.09908e-05
9.7197e-05
0.000217665
0.000158033
0.00030888
8.06449e-05
0.000257867
-2.09705e-05
2.90497e-05
-3.19677e-05
-0.000192426
-0.000251193
-8.23726e-05
-0.000111953
-0.000144218
-0.000105113
-0.000167003
-9.71456e-05
-0.000154818
-9.26683e-05
-0.000125183
-8.74766e-05
-9.27038e-05
-9.32989e-05
-8.63143e-05
-3.72024e-05
-9.2989e-05
3.06497e-05
-8.5111e-05
6.51966e-05
-5.5996e-05
3.90265e-05
-5.22588e-05
4.67499e-05
5.70645e-06
-3.30486e-06
4.39603e-05
3.27367e-05
0.000103547
0.000158078
0.000169072
0.000243355
0.000132735
0.000294204
3.3164e-05
0.000128621
-1.76499e-05
-0.000141612
-0.000268843
-5.36092e-05
-5.8344e-05
-4.35806e-05
-0.000115141
-4.37862e-05
-9.69399e-05
-5.49026e-05
-8.15514e-05
-7.90417e-05
-6.33373e-05
-0.000120924
-5.14164e-05
-0.0001473
-1.08266e-05
-0.000180053
6.34029e-05
-0.000176167
6.13105e-05
-0.000158354
2.12131e-05
-4.98666e-05
-6.1737e-05
6.35655e-05
-0.000116737
0.000120896
-2.45937e-05
0.00012557
0.000153404
0.000124011
0.000244913
8.25936e-05
0.000335622
4.39431e-05
0.000167271
-2.28392e-06
-9.53853e-05
-0.000271127
-1.49576e-05
-4.33864e-05
6.6168e-06
-0.000136716
1.34703e-05
-0.000103794
-1.623e-05
-5.1851e-05
-6.04246e-05
-1.91423e-05
-0.000117872
6.03119e-06
-0.000169992
4.12937e-05
-0.000184008
7.74184e-05
-0.000158437
3.57398e-05
-6.33195e-05
-7.39046e-05
4.42456e-05
-0.000169302
7.40941e-05
-0.000146586
8.9441e-05
-3.99399e-05
0.000103137
0.000139708
8.74188e-05
0.000260632
7.13997e-05
0.00035164
4.97941e-05
0.000188877
1.05739e-05
-5.61652e-05
-0.000260553
-1.36809e-05
1.70485e-05
-1.407e-05
7.60765e-06
-1.37812e-05
7.42487e-06
-1.82461e-05
1.18656e-05
-2.93768e-05
1.73082e-05
-3.89705e-05
1.49803e-05
-3.9723e-05
3.11875e-06
-3.26696e-05
-7.89643e-06
-2.57077e-05
-9.42965e-06
-2.00759e-05
-9.45382e-06
-1.43059e-05
-1.15429e-05
-7.46742e-06
-1.42805e-05
-1.18745e-06
-1.39319e-05
3.17611e-06
-1.08373e-05
4.75817e-06
-6.95071e-06
4.89511e-06
-4.77541e-06
4.59294e-06
-3.56412e-06
4.72195e-06
-3.07935e-06
6.10183e-06
-3.71928e-06
9.16453e-06
-5.02328e-06
1.23771e-05
-3.46868e-06
1.65811e-05
-2.45851e-06
-2.9367e-07
3.13522e-05
1.93348e-07
1.68551e-05
-8.92968e-06
1.67303e-05
-9.02217e-06
7.51719e-06
-6.98756e-06
9.83091e-06
-3.00345e-06
1.33242e-05
2.46425e-06
9.51275e-06
1.60768e-06
3.97548e-06
-7.52938e-06
1.24091e-06
-1.66889e-05
-2.69965e-07
-2.42599e-05
-1.88283e-06
-2.98695e-05
-5.93335e-06
-3.30594e-05
-1.10906e-05
-3.66655e-05
-1.03258e-05
-1.38521e-05
-3.36508e-05
1.37459e-07
-2.09403e-05
7.90047e-06
-1.25384e-05
1.0861e-05
-6.52471e-06
1.23142e-05
-4.53248e-06
1.52987e-05
-6.70377e-06
2.06314e-05
-1.03559e-05
2.51912e-05
-8.02856e-06
2.68387e-05
-4.10596e-06
-1.4303e-06
2.79753e-05
-1.54745e-06
1.84023e-05
-2.13543e-06
1.7318e-05
-4.77299e-07
5.85906e-06
5.6937e-06
3.66009e-06
1.32992e-05
5.71881e-06
1.78792e-05
4.93297e-06
1.7836e-05
4.01903e-06
1.59603e-05
3.11704e-06
1.4527e-05
1.16341e-06
1.42169e-05
-1.57274e-06
1.28172e-05
-4.53368e-06
2.54615e-06
-8.19455e-07
-2.07939e-05
1.30142e-05
-6.11181e-05
6.67317e-06
-8.78767e-05
5.81831e-06
-8.99997e-05
-1.04155e-05
-8.179e-05
-1.47344e-05
-6.8587e-05
-1.77354e-05
-5.73323e-05
-1.79585e-05
-5.04867e-05
-1.72015e-05
-3.87258e-05
-1.97895e-05
-2.44908e-05
-1.8341e-05
-5.68028e-06
-2.02408e-05
-4.0014e-06
2.24035e-05
-2.51809e-06
1.58345e-05
-4.48224e-07
3.78917e-06
2.6538e-06
5.58092e-07
6.26454e-06
2.10813e-06
7.36096e-06
3.8368e-06
6.77564e-06
4.60458e-06
4.26617e-06
5.62671e-06
-8.4494e-07
6.27475e-06
-7.42451e-06
5.00689e-06
-1.61191e-05
4.16101e-06
-3.11122e-05
1.41735e-05
-5.61995e-05
3.81014e-05
-9.81688e-05
4.86423e-05
-0.000118141
2.57901e-05
-0.000131761
3.2044e-06
-0.000130931
-1.55642e-05
-0.000123681
-2.49855e-05
-0.000116539
-2.50998e-05
-0.000106957
-2.67841e-05
-0.000100171
-2.65751e-05
-9.52611e-05
-2.32511e-05
4.33803e-07
-0.000101375
-3.49015e-06
2.58935e-05
-1.54872e-06
1.3893e-05
7.7924e-07
1.46116e-06
3.09949e-06
-1.76219e-06
4.26372e-06
9.44022e-07
3.60772e-06
4.49303e-06
9.62124e-07
7.25039e-06
-3.27765e-06
9.8665e-06
-8.27516e-06
1.12723e-05
-1.40107e-05
1.07426e-05
-2.29557e-05
1.31059e-05
-3.72332e-05
2.84509e-05
-5.65885e-05
5.74568e-05
-7.99297e-05
7.19834e-05
-9.85208e-05
4.43812e-05
-0.000107586
1.22699e-05
-0.000111894
-1.12561e-05
-0.000119922
-1.69578e-05
-0.000127317
-1.77042e-05
-0.000132166
-2.19351e-05
-0.000137365
-2.13761e-05
-0.000149458
-1.11584e-05
1.75128e-05
-0.000166537
-2.55774e-06
2.84512e-05
-1.58389e-06
1.29193e-05
-6.00793e-07
4.78122e-07
-3.24469e-07
-2.03847e-06
-1.56566e-06
2.18532e-06
-3.80497e-06
6.73241e-06
-6.86269e-06
1.03081e-05
-1.02113e-05
1.32151e-05
-1.37268e-05
1.47878e-05
-1.81413e-05
1.51573e-05
-2.41228e-05
1.90874e-05
-3.04116e-05
3.47395e-05
-3.42208e-05
6.1266e-05
-3.71325e-05
7.4895e-05
-4.46406e-05
5.18893e-05
-5.43235e-05
2.19528e-05
-6.87218e-05
3.1425e-06
-8.81257e-05
2.44636e-06
-0.000106909
1.07967e-06
-0.000124102
-4.74248e-06
-0.000138525
-6.95275e-06
-0.000152879
3.19503e-06
2.72867e-05
-0.000162653
-2.69643e-06
3.11476e-05
-2.60293e-06
1.28259e-05
-2.14183e-06
1.70336e-08
-3.32866e-06
-8.51651e-07
-5.53927e-06
4.39584e-06
-8.04169e-06
9.23476e-06
-1.08851e-05
1.31514e-05
-1.39235e-05
1.62535e-05
-1.72299e-05
1.80943e-05
-2.10931e-05
1.90208e-05
-2.48292e-05
2.28237e-05
-2.53608e-05
3.52712e-05
-1.94188e-05
5.53241e-05
-1.14697e-05
6.69459e-05
-1.36887e-05
5.41082e-05
-2.18161e-05
3.00803e-05
-3.48425e-05
1.61691e-05
-4.97458e-05
1.735e-05
-6.81224e-05
1.94565e-05
-8.85928e-05
1.57279e-05
-0.000107703
1.21577e-05
-0.000120803
1.62941e-05
2.65098e-05
-0.000120026
-2.67771e-06
3.38255e-05
-3.24822e-06
1.33966e-05
-4.02154e-06
7.90492e-07
-6.28383e-06
1.41068e-06
-9.12079e-06
7.23259e-06
-1.19717e-05
1.20854e-05
-1.46839e-05
1.58633e-05
-1.73089e-05
1.88786e-05
-2.01732e-05
2.09587e-05
-2.35601e-05
2.24076e-05
-2.64428e-05
2.57067e-05
-2.57832e-05
3.46116e-05
-1.89738e-05
4.85147e-05
-9.85065e-06
5.78227e-05
-7.27699e-06
5.15346e-05
-1.26216e-05
3.54251e-05
-2.1477e-05
2.50248e-05
-2.89395e-05
2.4813e-05
-3.72833e-05
2.78005e-05
-4.90731e-05
2.75179e-05
-6.19616e-05
2.5046e-05
-6.96536e-05
2.39859e-05
2.30047e-05
-6.61488e-05
-2.98363e-06
3.68092e-05
-4.27875e-06
1.46918e-05
-5.86736e-06
2.37911e-06
-8.6023e-06
4.1456e-06
-1.15981e-05
1.02283e-05
-1.43333e-05
1.48202e-05
-1.67931e-05
1.8323e-05
-1.91085e-05
2.1194e-05
-2.15914e-05
2.34419e-05
-2.44883e-05
2.53047e-05
-2.69712e-05
2.81897e-05
-2.66754e-05
3.43159e-05
-2.16793e-05
4.35186e-05
-1.41947e-05
5.03381e-05
-1.05076e-05
4.78475e-05
-1.29542e-05
3.7872e-05
-1.74169e-05
2.94879e-05
-1.99878e-05
2.73842e-05
-2.14053e-05
2.9218e-05
-2.42634e-05
3.03759e-05
-2.8259e-05
2.90415e-05
-3.01184e-05
2.58452e-05
2.01322e-05
-2.72461e-05
-3.18123e-06
3.99906e-05
-5.07526e-06
1.65862e-05
-7.10471e-06
4.40863e-06
-9.91446e-06
6.95508e-06
-1.28524e-05
1.3166e-05
-1.54651e-05
1.74325e-05
-1.76713e-05
2.05289e-05
-1.95925e-05
2.3115e-05
-2.15118e-05
2.53614e-05
-2.36372e-05
2.74303e-05
-2.54421e-05
2.99947e-05
-2.52861e-05
3.41599e-05
-2.17037e-05
3.99362e-05
-1.58864e-05
4.45207e-05
-1.19199e-05
4.38812e-05
-1.20377e-05
3.79901e-05
-1.42171e-05
3.16675e-05
-1.56705e-05
2.88378e-05
-1.57108e-05
2.92584e-05
-1.5382e-05
3.0047e-05
-1.53324e-05
2.89919e-05
-1.50557e-05
2.55684e-05
1.9599e-05
-1.45226e-05
-3.28603e-06
4.32766e-05
-5.64039e-06
1.89406e-05
-7.90808e-06
6.67645e-06
-1.05742e-05
9.6211e-06
-1.32351e-05
1.58266e-05
-1.55663e-05
1.97635e-05
-1.74846e-05
2.24472e-05
-1.90392e-05
2.46695e-05
-2.03862e-05
2.67085e-05
-2.16705e-05
2.87146e-05
-2.26368e-05
3.09611e-05
-2.23287e-05
3.38518e-05
-1.9725e-05
3.73324e-05
-1.52983e-05
4.00941e-05
-1.14985e-05
4.00816e-05
-1.04083e-05
3.69e-05
-1.16566e-05
3.2916e-05
-1.3479e-05
3.06604e-05
-1.45592e-05
3.03388e-05
-1.48388e-05
3.03264e-05
-1.49889e-05
2.91421e-05
-1.56388e-05
2.62184e-05
2.14056e-05
-1.74453e-05
-3.30511e-06
4.6582e-05
-5.90489e-06
2.15407e-05
-8.17461e-06
8.94626e-06
-1.05957e-05
1.2042e-05
-1.29522e-05
1.81825e-05
-1.49609e-05
2.17718e-05
-1.65488e-05
2.40349e-05
-1.77537e-05
2.58744e-05
-1.86525e-05
2.76075e-05
-1.93083e-05
2.93705e-05
-1.96151e-05
3.12681e-05
-1.91356e-05
3.33723e-05
-1.73351e-05
3.55319e-05
-1.43649e-05
3.71238e-05
-1.15513e-05
3.72683e-05
-1.04488e-05
3.57977e-05
-1.13582e-05
3.38255e-05
-1.3302e-05
3.26042e-05
-1.51698e-05
3.22066e-05
-1.66555e-05
3.18122e-05
-1.82175e-05
3.07043e-05
-2.0473e-05
2.8474e-05
2.46687e-05
-2.37361e-05
-3.21892e-06
4.98009e-05
-5.92439e-06
2.42462e-05
-8.07887e-06
1.11007e-05
-1.0194e-05
1.4157e-05
-1.22241e-05
2.02125e-05
-1.39322e-05
2.34797e-05
-1.52211e-05
2.53234e-05
-1.61269e-05
2.67804e-05
-1.67116e-05
2.81923e-05
-1.7007e-05
2.9666e-05
-1.69728e-05
3.12341e-05
-1.6459e-05
3.28585e-05
-1.53001e-05
3.43731e-05
-1.36266e-05
3.54505e-05
-1.2116e-05
3.57578e-05
-1.16458e-05
3.53275e-05
-1.25138e-05
3.46936e-05
-1.42657e-05
3.43561e-05
-1.63263e-05
3.42672e-05
-1.85795e-05
3.40654e-05
-2.13248e-05
3.34498e-05
-2.48418e-05
3.19911e-05
2.89218e-05
-2.90949e-05
-3.03458e-06
5.28358e-05
-5.73217e-06
2.69441e-05
-7.72572e-06
1.30941e-05
-9.5576e-06
1.59884e-05
-1.12792e-05
2.19338e-05
-1.27202e-05
2.49205e-05
-1.37703e-05
2.63734e-05
-1.44589e-05
2.74691e-05
-1.48506e-05
2.85841e-05
-1.49833e-05
2.97988e-05
-1.48551e-05
3.11061e-05
-1.44411e-05
3.24444e-05
-1.37542e-05
3.36861e-05
-1.29559e-05
3.46522e-05
-1.24145e-05
3.52166e-05
-1.25422e-05
3.54552e-05
-1.3484e-05
3.56353e-05
-1.50813e-05
3.59533e-05
-1.71846e-05
3.63706e-05
-1.98876e-05
3.67685e-05
-2.3436e-05
3.69985e-05
-2.80121e-05
3.65674e-05
3.47174e-05
-3.38077e-05
-2.79134e-06
5.56271e-05
-5.40505e-06
2.95577e-05
-7.25011e-06
1.4939e-05
-8.83633e-06
1.75743e-05
-1.02908e-05
2.3388e-05
-1.15127e-05
2.61422e-05
-1.23849e-05
2.72455e-05
-1.29333e-05
2.80177e-05
-1.32245e-05
2.88754e-05
-1.33059e-05
2.98803e-05
-1.32003e-05
3.10007e-05
-1.29292e-05
3.21732e-05
-1.25558e-05
3.33126e-05
-1.22286e-05
3.43251e-05
-1.21728e-05
3.51609e-05
-1.25934e-05
3.5876e-05
-1.35699e-05
3.66117e-05
-1.50959e-05
3.74792e-05
-1.7234e-05
3.85089e-05
-2.01868e-05
3.97216e-05
-2.42689e-05
4.10809e-05
-2.9985e-05
4.22837e-05
4.29657e-05
-3.82335e-05
-2.54576e-06
5.81729e-05
-5.03954e-06
3.20513e-05
-6.75743e-06
1.66567e-05
-8.1458e-06
1.89623e-05
-9.37788e-06
2.46199e-05
-1.04213e-05
2.71856e-05
-1.11657e-05
2.79901e-05
-1.16294e-05
2.84816e-05
-1.18756e-05
2.91218e-05
-1.19535e-05
2.99586e-05
-1.18955e-05
3.09427e-05
-1.17356e-05
3.20132e-05
-1.15367e-05
3.31137e-05
-1.14106e-05
3.41992e-05
-1.15057e-05
3.52559e-05
-1.19546e-05
3.6325e-05
-1.28386e-05
3.74956e-05
-1.42247e-05
3.88654e-05
-1.62433e-05
4.05277e-05
-1.91184e-05
4.25971e-05
-2.32453e-05
4.5208e-05
-2.94779e-05
4.85164e-05
5.24872e-05
-3.89994e-05
-2.35716e-06
6.053e-05
-4.72345e-06
3.44173e-05
-6.33756e-06
1.82705e-05
-7.56982e-06
2.01943e-05
-8.61527e-06
2.56652e-05
-9.50773e-06
2.8078e-05
-1.01489e-05
2.86314e-05
-1.05518e-05
2.88846e-05
-1.07708e-05
2.9341e-05
-1.08497e-05
3.00378e-05
-1.08187e-05
3.09119e-05
-1.07097e-05
3.19041e-05
-1.05725e-05
3.29764e-05
-1.04845e-05
3.41113e-05
-1.05449e-05
3.53164e-05
-1.08523e-05
3.66326e-05
-1.14913e-05
3.81346e-05
-1.25487e-05
3.99229e-05
-1.41464e-05
4.21255e-05
-1.64605e-05
4.49115e-05
-1.98195e-05
4.85672e-05
-2.5037e-05
5.3734e-05
6.07127e-05
-3.32627e-05
-2.26859e-06
6.27985e-05
-4.51972e-06
3.66681e-05
-6.0581e-06
1.98084e-05
-7.16561e-06
2.13015e-05
-8.04871e-06
2.65482e-05
-8.80201e-06
2.88314e-05
-9.34208e-06
2.91716e-05
-9.67775e-06
2.92204e-05
-9.85426e-06
2.95176e-05
-9.90742e-06
3.00912e-05
-9.86074e-06
3.08653e-05
-9.73816e-06
3.17814e-05
-9.57466e-06
3.28129e-05
-9.42091e-06
3.39577e-05
-9.34026e-06
3.52357e-05
-9.39964e-06
3.66919e-05
-9.66362e-06
3.83985e-05
-1.01977e-05
4.0457e-05
-1.10751e-05
4.3003e-05
-1.23805e-05
4.6217e-05
-1.42348e-05
5.04217e-05
-1.69723e-05
5.64715e-05
6.51966e-05
-2.14561e-05
-2.29994e-06
6.50982e-05
-4.46337e-06
3.88312e-05
-5.96346e-06
2.13081e-05
-6.96912e-06
2.23069e-05
-7.70198e-06
2.72809e-05
-8.31814e-06
2.94476e-05
-8.74553e-06
2.9599e-05
-8.98905e-06
2.9464e-05
-9.08747e-06
2.96162e-05
-9.07022e-06
3.00742e-05
-8.95482e-06
3.075e-05
-8.75706e-06
3.15837e-05
-8.49852e-06
3.25545e-05
-8.2085e-06
3.36678e-05
-7.92125e-06
3.49485e-05
-7.67044e-06
3.64409e-05
-7.48442e-06
3.82123e-05
-7.38375e-06
4.03562e-05
-7.37565e-06
4.29949e-05
-7.44348e-06
4.62849e-05
-7.50274e-06
5.0481e-05
-7.3218e-06
5.62905e-05
6.47791e-05
-6.90445e-06
-2.456e-06
6.75541e-05
-4.57738e-06
4.09522e-05
-6.09019e-06
2.28206e-05
-7.00981e-06
2.32264e-05
-7.59349e-06
2.78646e-05
-8.06447e-06
2.99186e-05
-8.36013e-06
2.98947e-05
-8.47955e-06
2.95834e-05
-8.45781e-06
2.95945e-05
-8.32174e-06
2.99383e-05
-8.08566e-06
3.0514e-05
-7.75949e-06
3.12576e-05
-7.354e-06
3.21491e-05
-6.88144e-06
3.31953e-05
-6.3521e-06
3.44191e-05
-5.76944e-06
3.58581e-05
-5.12409e-06
3.75668e-05
-4.38784e-06
3.96198e-05
-3.50346e-06
4.21104e-05
-2.3663e-06
4.51476e-05
-7.44965e-07
4.88594e-05
1.91994e-06
5.36253e-05
6.04226e-05
6.27628e-06
-2.73585e-06
7.02897e-05
-4.89649e-06
4.31125e-05
-6.48937e-06
2.44133e-05
-7.3339e-06
2.40708e-05
-7.75025e-06
2.8281e-05
-8.05341e-06
3.02218e-05
-8.18959e-06
3.00307e-05
-8.14941e-06
2.9543e-05
-7.96643e-06
2.94115e-05
-7.66874e-06
2.96407e-05
-7.27025e-06
3.01155e-05
-6.77694e-06
3.07643e-05
-6.19158e-06
3.15639e-05
-5.51325e-06
3.2517e-05
-4.73406e-06
3.36398e-05
-3.83428e-06
3.49581e-05
-2.776e-06
3.65083e-05
-1.49448e-06
3.8338e-05
1.15035e-07
4.05006e-05
2.21181e-06
4.30506e-05
5.0172e-06
4.60537e-05
9.06325e-06
4.95789e-05
5.40185e-05
1.54673e-05
-3.15554e-06
7.34451e-05
-5.49709e-06
4.5454e-05
-7.25471e-06
2.61707e-05
-8.01866e-06
2.48348e-05
-8.21625e-06
2.84787e-05
-8.30624e-06
3.03117e-05
-8.23966e-06
2.99639e-05
-7.99749e-06
2.93007e-05
-7.61329e-06
2.90273e-05
-7.11893e-06
2.91463e-05
-6.52916e-06
2.95258e-05
-5.84726e-06
3.00825e-05
-5.06946e-06
3.07862e-05
-4.1851e-06
3.16327e-05
-3.17364e-06
3.26282e-05
-2.00072e-06
3.37849e-05
-6.12796e-07
3.51201e-05
1.07288e-06
3.6652e-05
3.16698e-06
3.84062e-05
5.83006e-06
4.03872e-05
9.30783e-06
4.25757e-05
1.39745e-05
4.49119e-05
4.7378e-05
2.06149e-05
-3.76008e-06
7.7205e-05
-6.5092e-06
4.82032e-05
-8.53801e-06
2.81994e-05
-9.18377e-06
2.54807e-05
-9.06831e-06
2.83634e-05
-8.85161e-06
3.00948e-05
-8.51492e-06
2.96269e-05
-8.01646e-06
2.88021e-05
-7.38856e-06
2.83993e-05
-6.66758e-06
2.84253e-05
-5.86873e-06
2.8727e-05
-4.99176e-06
2.92056e-05
-4.02679e-06
2.98213e-05
-2.9554e-06
3.05612e-05
-1.74886e-06
3.14214e-05
-3.6534e-07
3.24012e-05
1.2538e-06
3.35007e-05
3.18506e-06
3.47205e-05
5.53897e-06
3.60519e-05
8.45666e-06
3.74693e-05
1.21178e-05
3.89145e-05
1.67436e-05
4.02858e-05
4.1401e-05
2.27205e-05
-4.60289e-06
8.1808e-05
-8.10116e-06
5.17016e-05
-1.05416e-05
3.064e-05
-1.10096e-05
2.5949e-05
-1.03968e-05
2.77507e-05
-9.71879e-06
2.94167e-05
-9.00973e-06
2.89177e-05
-8.18411e-06
2.79764e-05
-7.26679e-06
2.74819e-05
-6.29336e-06
2.7452e-05
-5.27631e-06
2.77102e-05
-4.2092e-06
2.81387e-05
-3.07491e-06
2.8687e-05
-1.8481e-06
2.93342e-05
-4.94667e-07
3.00677e-05
1.02988e-06
3.08765e-05
2.78027e-06
3.17503e-05
4.82747e-06
3.26732e-05
7.25916e-06
3.36201e-05
1.01801e-05
3.45482e-05
1.37123e-05
3.53822e-05
1.79743e-05
3.60236e-05
3.62872e-05
2.3088e-05
-5.71264e-06
8.75208e-05
-1.04434e-05
5.64326e-05
-1.3492e-05
3.3689e-05
-1.37047e-05
2.6162e-05
-1.23184e-05
2.63645e-05
-1.09188e-05
2.8017e-05
-9.68991e-06
2.76887e-05
-8.4533e-06
2.67396e-05
-7.2002e-06
2.62288e-05
-5.95591e-06
2.62078e-05
-4.72165e-06
2.64761e-05
-3.4798e-06
2.68969e-05
-2.20329e-06
2.74104e-05
-8.59468e-07
2.79901e-05
5.90067e-07
2.8618e-05
2.18947e-06
2.92771e-05
3.989e-06
2.99509e-05
6.04676e-06
3.06155e-05
8.43035e-06
3.12364e-05
1.12129e-05
3.17655e-05
1.44646e-05
3.21303e-05
1.82461e-05
3.22419e-05
3.19683e-05
2.25648e-05
-7.14871e-06
9.46697e-05
-1.36374e-05
6.29216e-05
-1.75093e-05
3.75612e-05
-1.74206e-05
2.60736e-05
-1.49299e-05
2.38738e-05
-1.24223e-05
2.55093e-05
-1.04679e-05
2.57342e-05
-8.73466e-06
2.50062e-05
-7.11129e-06
2.46054e-05
-5.59355e-06
2.46903e-05
-4.15922e-06
2.5042e-05
-2.77118e-06
2.55089e-05
-1.38861e-06
2.60276e-05
2.89556e-08
2.65722e-05
1.52452e-06
2.71222e-05
3.14174e-06
2.766e-05
4.92569e-06
2.81671e-05
6.92427e-06
2.8617e-05
9.18689e-06
2.89737e-05
1.17597e-05
2.91925e-05
1.46779e-05
2.92119e-05
1.7964e-05
2.89556e-05
2.83398e-05
2.15925e-05
-8.54566e-06
0.000103216
-1.73959e-05
7.17721e-05
-2.22515e-05
4.2417e-05
-2.19544e-05
2.57766e-05
-1.81281e-05
2.00477e-05
-1.40959e-05
2.14773e-05
-1.11675e-05
2.28058e-05
-8.87252e-06
2.27112e-05
-6.88258e-06
2.26155e-05
-5.12189e-06
2.29297e-05
-3.52999e-06
2.34502e-05
-2.04305e-06
2.4022e-05
-6.01837e-07
2.45862e-05
8.39662e-07
2.51305e-05
2.3354e-06
2.56264e-05
3.92345e-06
2.6072e-05
5.64525e-06
2.64454e-05
7.53917e-06
2.6723e-05
9.63909e-06
2.68737e-05
1.19716e-05
2.68597e-05
1.45505e-05
2.66327e-05
1.73736e-05
2.61322e-05
2.53028e-05
2.04105e-05
-7.12808e-06
0.000110344
-1.97511e-05
8.43953e-05
-2.6117e-05
4.8783e-05
-2.61572e-05
2.58168e-05
-2.1319e-05
1.52097e-05
-1.55826e-05
1.57412e-05
-1.14816e-05
1.8705e-05
-8.63155e-06
1.98612e-05
-6.35595e-06
2.034e-05
-4.43795e-06
2.10118e-05
-2.76838e-06
2.17807e-05
-1.25401e-06
2.25076e-05
1.7704e-07
2.31551e-05
1.60148e-06
2.37059e-05
3.05001e-06
2.41779e-05
4.56765e-06
2.45545e-05
6.19048e-06
2.48225e-05
7.94783e-06
2.49654e-05
9.86163e-06
2.49596e-05
1.19454e-05
2.47757e-05
1.42008e-05
2.43768e-05
1.66133e-05
2.37194e-05
2.27638e-05
1.91521e-05
6.28624e-07
0.000109715
-1.52116e-05
0.000100236
-2.52425e-05
5.8814e-05
-2.71634e-05
2.77379e-05
-2.27062e-05
1.07528e-05
-1.60143e-05
9.04972e-06
-1.09464e-05
1.36374e-05
-7.71898e-06
1.66341e-05
-5.35689e-06
1.79781e-05
-3.44566e-06
1.91006e-05
-1.81598e-06
2.01509e-05
-3.66948e-07
2.10585e-05
1.00164e-06
2.17865e-05
2.33477e-06
2.23728e-05
3.68691e-06
2.28259e-05
5.09518e-06
2.31464e-05
6.58738e-06
2.33302e-05
8.18459e-06
2.33679e-05
9.90031e-06
2.32436e-05
1.17395e-05
2.29364e-05
1.36968e-05
2.24193e-05
1.57534e-05
2.16625e-05
2.06386e-05
1.78784e-05
1.27575e-05
9.69578e-05
-4.87792e-07
0.000113481
-1.53612e-05
7.36874e-05
-2.15327e-05
3.39095e-05
-1.98377e-05
9.05801e-06
-1.41505e-05
3.36288e-06
-9.06277e-06
8.55011e-06
-5.89904e-06
1.34707e-05
-3.77129e-06
1.58506e-05
-2.0803e-06
1.74096e-05
-6.54574e-07
1.87251e-05
6.38733e-07
1.97652e-05
1.84951e-06
2.05759e-05
3.04001e-06
2.11825e-05
4.25248e-06
2.16137e-05
5.5162e-06
2.18829e-05
6.85159e-06
2.19947e-05
8.27234e-06
2.19468e-05
9.78523e-06
2.17305e-05
1.13892e-05
2.13323e-05
1.30745e-05
2.07341e-05
1.48215e-05
1.99155e-05
1.88598e-05
1.66003e-05
2.04302e-05
7.65274e-05
1.66211e-05
0.00011729
1.66476e-06
8.86437e-05
-8.7662e-06
4.43406e-05
-1.1574e-05
1.1866e-05
-9.13028e-06
9.19401e-07
-5.57719e-06
4.99738e-06
-3.16387e-06
1.10577e-05
-1.62111e-06
1.43079e-05
-3.88071e-07
1.61765e-05
7.18137e-07
1.76189e-05
1.7301e-06
1.87535e-05
2.71458e-06
1.95917e-05
3.71056e-06
2.01868e-05
4.74495e-06
2.05795e-05
5.83595e-06
2.07919e-05
6.99531e-06
2.08352e-05
8.22914e-06
2.07127e-05
9.538e-06
2.04216e-05
1.09161e-05
1.99543e-05
1.23508e-05
1.92996e-05
1.3822e-05
1.84443e-05
1.73796e-05
1.53022e-05
2.05731e-05
5.59543e-05
2.5415e-05
0.000112448
1.64146e-05
9.76441e-05
5.62701e-06
5.51282e-05
-3.94904e-07
1.7888e-05
-1.76675e-06
2.29138e-06
-9.39577e-07
4.17044e-06
1.90742e-07
9.92757e-06
9.23683e-07
1.35751e-05
1.54939e-06
1.55509e-05
2.18205e-06
1.69864e-05
2.84832e-06
1.80876e-05
3.55882e-06
1.88816e-05
4.32493e-06
1.94209e-05
5.15558e-06
1.97489e-05
6.05581e-06
1.98917e-05
7.02751e-06
1.98634e-05
8.06906e-06
1.96711e-05
9.17507e-06
1.93157e-05
1.03357e-05
1.87938e-05
1.15361e-05
1.80993e-05
1.27563e-05
1.72241e-05
1.61654e-05
1.39705e-05
1.4651e-05
4.13032e-05
2.38334e-05
0.000103266
2.23291e-05
9.91484e-05
1.56099e-05
6.18473e-05
9.0563e-06
2.44416e-05
5.47479e-06
5.87292e-06
4.22312e-06
5.42223e-06
3.69003e-06
1.04608e-05
3.46838e-06
1.37969e-05
3.44961e-06
1.55698e-05
3.6069e-06
1.68295e-05
3.90772e-06
1.77872e-05
4.32759e-06
1.84621e-05
4.85121e-06
1.88974e-05
5.46846e-06
1.91315e-05
6.17153e-06
1.91886e-05
6.95236e-06
1.90827e-05
7.80213e-06
1.88216e-05
8.71017e-06
1.8408e-05
9.66323e-06
1.78408e-05
1.06449e-05
1.71173e-05
1.16354e-05
1.62333e-05
1.51901e-05
1.26108e-05
6.86749e-06
3.44358e-05
1.66334e-05
9.34999e-05
2.08237e-05
9.49581e-05
1.96163e-05
6.30546e-05
1.56732e-05
2.83846e-05
1.14165e-05
1.01296e-05
8.41676e-06
8.42206e-06
6.67836e-06
1.21993e-05
5.68875e-06
1.47867e-05
5.12064e-06
1.61382e-05
4.85179e-06
1.70987e-05
4.81565e-06
1.78238e-05
4.96122e-06
1.83169e-05
5.25197e-06
1.86067e-05
5.66252e-06
1.87209e-05
6.17372e-06
1.86774e-05
6.76944e-06
1.84873e-05
7.43482e-06
1.81566e-05
8.15506e-06
1.7688e-05
8.91435e-06
1.70814e-05
9.69542e-06
1.63358e-05
1.04794e-05
1.5449e-05
1.44252e-05
1.12445e-05
6.52485e-07
3.37834e-05
9.24593e-06
8.49064e-05
1.68226e-05
8.73814e-05
2.01985e-05
5.96787e-05
1.89809e-05
2.96021e-05
1.5072e-05
1.40385e-05
1.13141e-05
1.218e-05
8.86065e-06
1.4653e-05
7.36181e-06
1.62858e-05
6.39749e-06
1.71028e-05
5.8017e-06
1.76947e-05
5.4925e-06
1.81332e-05
5.40529e-06
1.84044e-05
5.49144e-06
1.85207e-05
5.71565e-06
1.84967e-05
6.05107e-06
1.8342e-05
6.47587e-06
1.80627e-05
6.9711e-06
1.76617e-05
7.51927e-06
1.714e-05
8.10325e-06
1.64973e-05
8.70583e-06
1.57329e-05
9.30893e-06
1.48458e-05
1.38399e-05
9.89439e-06
-2.56637e-06
3.63498e-05
4.65564e-06
7.76845e-05
1.39165e-05
7.81206e-05
1.98307e-05
5.37644e-05
2.01199e-05
2.93129e-05
1.66338e-05
1.75247e-05
1.278e-05
1.60339e-05
1.01115e-05
1.73216e-05
8.38234e-06
1.80153e-05
7.19226e-06
1.8293e-05
6.38654e-06
1.85005e-05
5.88511e-06
1.86347e-05
5.62126e-06
1.86684e-05
5.54291e-06
1.85992e-05
5.61084e-06
1.84288e-05
5.79463e-06
1.81583e-05
6.06965e-06
1.77877e-05
6.41472e-06
1.73167e-05
6.81119e-06
1.67437e-05
7.24173e-06
1.60669e-05
7.68959e-06
1.52851e-05
8.13846e-06
1.43969e-05
1.34059e-05
8.57236e-06
-2.9194e-06
3.92692e-05
3.36173e-06
7.14035e-05
1.29791e-05
6.85033e-05
1.93284e-05
4.74151e-05
1.9797e-05
2.88443e-05
1.65646e-05
2.07572e-05
1.30123e-05
1.95864e-05
1.04889e-05
1.98453e-05
8.75195e-06
1.97524e-05
7.48805e-06
1.95569e-05
6.58411e-06
1.94043e-05
5.97228e-06
1.92465e-05
5.59207e-06
1.90487e-05
5.39468e-06
1.87967e-05
5.34194e-06
1.84816e-05
5.4034e-06
1.80968e-05
5.55407e-06
1.7637e-05
5.77225e-06
1.70985e-05
6.03971e-06
1.64763e-05
6.33911e-06
1.57676e-05
6.65446e-06
1.49699e-05
6.97057e-06
1.40808e-05
1.31026e-05
7.27371e-06
-1.7381e-06
4.10074e-05
4.17339e-06