/*--------------------------------*- C++ -*----------------------------------*\
| =========                 |                                                 |
| \\      /  F ield         | OpenFOAM: The Open Source CFD Toolbox           |
|  \\    /   O peration     | Version:  2206                                  |
|   \\  /    A nd           | Website:  www.openfoam.com                      |
|    \\/     M anipulation  |                                                 |
\*---------------------------------------------------------------------------*/
FoamFile
{
    version     2.0;
    format      ascii;
    arch        "LSB;label=32;scalar=64";
    class       volVectorField;
    location    "1";
    object      U;
}
// * * * * * * * * * * * * * * * * * * * * * * * * * * * * * * * * * * * * * //

dimensions      [0 1 -1 0 0 0 0];

internalField   nonuniform List<vector> 
2268
(
(-0.00879234 0.00799478 0)
(-0.00756189 -0.00426215 0)
(0.000635768 -0.00969706 0)
(0.00914231 -0.00697141 0)
(0.0132696 -0.00220918 0)
(0.0130192 0.00151635 0)
(0.0100263 0.00332141 0)
(0.00651213 0.00357597 0)
(0.00370148 0.00308102 0)
(0.00185211 0.00252234 0)
(0.000777187 0.00223944 0)
(0.00020847 0.00228866 0)
(-7.32021e-05 0.00256207 0)
(-0.000226002 0.00291355 0)
(-0.000255245 0.00325136 0)
(-0.000379823 0.00360813 0)
(-4.63766e-05 0.00350586 0)
(-0.000517739 0.00287701 0)
(0.00134332 -8.21439e-05 0)
(0.00146642 -0.0016372 0)
(0.00430447 -0.00727498 0)
(0.0121653 -0.0172952 0)
(0.0176393 0.008213 0)
(-0.0103635 0.0235508 0)
(-0.00585499 -0.0139857 0)
(-0.00134818 -0.0254293 0)
(0.00503134 -0.016838 0)
(0.00698104 -0.0041306 0)
(0.0058881 0.00510385 0)
(0.00337267 0.0088129 0)
(0.000940588 0.00829418 0)
(-0.000567472 0.00579271 0)
(-0.000958219 0.00300451 0)
(-0.000292606 0.000738039 0)
(0.00125468 -0.000899171 0)
(0.00353848 -0.00201152 0)
(0.00638537 -0.00279587 0)
(0.00990497 -0.00337365 0)
(0.0134963 -0.00378555 0)
(0.0183566 -0.00406827 0)
(0.0220718 -0.00416759 0)
(0.0286368 -0.00432934 0)
(0.0306154 -0.00325824 0)
(0.0409189 -0.00520744 0)
(0.0404607 -7.35965e-05 0)
(0.034915 0.0521686 0)
(-0.00916092 0.0393006 0)
(-0.00647287 -0.0198183 0)
(-0.00648345 -0.0335033 0)
(-0.00357918 -0.0201457 0)
(-0.00422461 -0.00270016 0)
(-0.00524621 0.00911656 0)
(-0.0063994 0.0130458 0)
(-0.00701596 0.0112602 0)
(-0.00691067 0.00688842 0)
(-0.00605285 0.00219029 0)
(-0.00456 -0.00182678 0)
(-0.00250505 -0.00499895 0)
(0.00013938 -0.00747247 0)
(0.00331576 -0.00950019 0)
(0.00713681 -0.0113171 0)
(0.0114972 -0.0132715 0)
(0.0173013 -0.01537 0)
(0.0229789 -0.0183863 0)
(0.0329293 -0.0210119 0)
(0.0405663 -0.0275608 0)
(0.0600122 -0.0368524 0)
(0.0587435 0.00643525 0)
(0.0439262 0.122786 0)
(-0.00760884 0.0548301 0)
(-0.0122783 -0.0151391 0)
(-0.0200197 -0.0314551 0)
(-0.0190471 -0.0181523 0)
(-0.0194863 -0.000960037 0)
(-0.018883 0.0095832 0)
(-0.0180173 0.0121583 0)
(-0.0166025 0.0092122 0)
(-0.0147485 0.0038515 0)
(-0.0124345 -0.00168771 0)
(-0.00966129 -0.00650858 0)
(-0.00649169 -0.0103782 0)
(-0.00312066 -0.0136325 0)
(0.000222601 -0.0166295 0)
(0.00349509 -0.0197235 0)
(0.00673221 -0.0233035 0)
(0.0102653 -0.0277925 0)
(0.0144666 -0.0339477 0)
(0.0197523 -0.0421335 0)
(0.0291383 -0.0605018 0)
(0.0398198 -0.06299 0)
(0.0283922 0.0486604 0)
(0.0262417 0.215817 0)
(-0.00805143 0.0780488 0)
(-0.0237152 0.00523973 0)
(-0.0389916 -0.0203505 0)
(-0.039719 -0.016951 0)
(-0.0374 -0.003492 0)
(-0.0335417 0.00620355 0)
(-0.0304505 0.00850294 0)
(-0.0275255 0.00513171 0)
(-0.0244515 -0.000970756 0)
(-0.0211004 -0.007251 0)
(-0.0173244 -0.0125461 0)
(-0.0131919 -0.0165068 0)
(-0.00901772 -0.0191526 0)
(-0.00506272 -0.020748 0)
(-0.00160753 -0.021906 0)
(0.00118975 -0.0234937 0)
(0.00312871 -0.0264186 0)
(0.00380459 -0.0314699 0)
(0.0020369 -0.0391464 0)
(-0.000255966 -0.0563817 0)
(-0.0190665 -0.0505193 0)
(-0.0236456 0.102187 0)
(-0.00229689 0.234061 0)
(-0.00637062 0.108665 0)
(-0.0239275 0.0362485 0)
(-0.0376012 -0.00743452 0)
(-0.0402359 -0.0224256 0)
(-0.0388635 -0.0164766 0)
(-0.0358935 -0.00667921 0)
(-0.0347096 -0.00255407 0)
(-0.0339784 -0.00466237 0)
(-0.0318518 -0.0100904 0)
(-0.0279867 -0.0165449 0)
(-0.0230486 -0.022636 0)
(-0.0171247 -0.0275464 0)
(-0.0104936 -0.0305789 0)
(-0.00400305 -0.0318674 0)
(0.000973695 -0.0323292 0)
(0.00305333 -0.0326486 0)
(0.00185331 -0.032653 0)
(-0.00234667 -0.0320171 0)
(-0.0101248 -0.0301268 0)
(-0.022258 -0.0302253 0)
(-0.0472359 -0.02463 0)
(-0.0491751 0.0655257 0)
(-0.0185012 0.152829 0)
(0.00016274 0.132953 0)
(0.0059373 0.0848136 0)
(0.0106644 0.0228256 0)
(0.000740167 -0.00284189 0)
(-0.011559 -0.00083935 0)
(-0.0188373 0.0105184 0)
(-0.0209842 0.0150484 0)
(-0.021393 0.00880354 0)
(-0.0223576 -0.0034314 0)
(-0.02317 -0.0165106 0)
(-0.0222765 -0.0286193 0)
(-0.0198361 -0.038902 0)
(-0.0168425 -0.0447677 0)
(-0.0138846 -0.043585 0)
(-0.010826 -0.0358833 0)
(-0.00845422 -0.0256685 0)
(-0.00852415 -0.0169939 0)
(-0.0112515 -0.0104967 0)
(-0.0159574 -0.00392847 0)
(-0.0206615 0.00166947 0)
(-0.0338496 0.00225965 0)
(-0.0305312 0.0242633 0)
(-0.0110171 0.0842357 0)
(0.0220859 0.0535337 0)
(0.0568348 0.0076028 0)
(0.0430375 -0.0153979 0)
(0.00892897 -0.00988542 0)
(-0.0195466 -0.00570951 0)
(-0.0389414 -0.00630745 0)
(-0.0484727 -0.0103653 0)
(-0.0477805 -0.0168464 0)
(-0.0434825 -0.0238956 0)
(-0.039851 -0.0324941 0)
(-0.0346689 -0.0411663 0)
(-0.0267286 -0.0466204 0)
(-0.019734 -0.0491929 0)
(-0.0168316 -0.0493074 0)
(-0.016825 -0.0465488 0)
(-0.0163797 -0.0394643 0)
(-0.0141414 -0.0295821 0)
(-0.0103865 -0.0204293 0)
(-0.00680803 -0.0114029 0)
(0.000846437 -0.0026327 0)
(0.00347767 0.00701398 0)
(0.0205392 0.0120132 0)
(-0.00620928 0.102472 0)
(0.112567 -0.0528888 0)
(0.359215 -0.0639539 0)
(0.476175 -0.0668613 0)
(0.483737 -0.110034 0)
(0.487922 -0.149308 0)
(0.578429 -0.167239 0)
(0.75279 -0.152097 0)
(0.91812 -0.101866 0)
(0.939958 -0.0316914 0)
(0.803611 0.124721 0)
(0.0181746 0.0508076 0)
(-0.0931597 -0.166527 0)
(-0.0190014 -0.17375 0)
(-0.0213718 -0.1196 0)
(-0.0693082 -0.0301007 0)
(-0.244587 0.0467689 0)
(-0.400358 0.00934616 0)
(-0.342757 -0.11021 0)
(-0.12671 -0.144613 0)
(0.146891 -0.476091 0)
(0.592156 -0.463848 0)
(0.966194 -0.0727691 0)
(0.978006 0.127214 0)
(0.706306 -0.00373436 0)
(0.557805 -0.192298 0)
(0.617935 -0.248603 0)
(0.818405 -0.139378 0)
(1.07438 0.0918481 0)
(1.05214 0.577776 0)
(0.395677 0.605408 0)
(0.388617 0.242801 0)
(0.393828 0.00974883 0)
(0.186678 0.139806 0)
(-0.133545 0.231494 0)
(-0.305454 0.239889 0)
(-0.418316 0.0694179 0)
(-0.340475 -0.247468 0)
(-0.136193 -0.379077 0)
(0.0465517 -1.02328 0)
(0.34616 -0.940908 0)
(0.718894 -0.387837 0)
(1.00922 0.146176 0)
(0.986434 0.298903 0)
(0.838073 0.0169928 0)
(0.642613 -0.363414 0)
(0.621955 -0.425888 0)
(0.606486 0.0759671 0)
(0.65257 0.854643 0)
(0.548595 0.923143 0)
(0.57209 0.331232 0)
(0.569713 -0.011469 0)
(0.541316 0.496443 0)
(-0.518612 0.69858 0)
(-0.506799 0.360589 0)
(-0.40147 0.0864769 0)
(-0.267999 -0.381594 0)
(-0.112111 -0.614245 0)
(-0.0898706 -1.04997 0)
(-0.042384 -0.8641 0)
(-0.124947 -0.470681 0)
(0.0527337 -0.119501 0)
(0.310712 0.234644 0)
(0.459031 -0.0295459 0)
(0.403481 -0.229132 0)
(0.374299 -0.287735 0)
(0.0918758 0.269633 0)
(0.182895 0.724202 0)
(0.38008 0.565277 0)
(0.494716 0.205148 0)
(0.512172 0.0444932 0)
(0.496615 1.01597 0)
(-0.0794099 1.3803 0)
(-0.550287 0.261708 0)
(-0.516983 -0.346358 0)
(-0.229747 -0.761044 0)
(-0.0573595 -0.809731 0)
(-0.193182 -0.896426 0)
(-0.308522 -0.744606 0)
(-0.412351 -0.4902 0)
(-0.330039 -0.321427 0)
(-0.148191 -0.248865 0)
(0.0555887 -0.330149 0)
(0.0127101 -0.224733 0)
(-0.128611 0.170531 0)
(-0.268301 0.377752 0)
(0.00572709 0.374097 0)
(0.119614 0.269272 0)
(0.32058 0.181941 0)
(0.16511 0.294026 0)
(0.22835 1.26753 0)
(0.458816 1.58317 0)
(0.504646 1.12458 0)
(0.0705196 -0.147153 0)
(-0.158732 -0.879458 0)
(-0.00846626 -0.942142 0)
(-0.249728 -0.602947 0)
(-0.46652 -0.512517 0)
(-0.623425 -0.347809 0)
(-0.597682 -0.189213 0)
(-0.530197 -0.0768747 0)
(-0.422301 -0.0403823 0)
(-0.316711 0.0475592 0)
(-0.33624 0.147287 0)
(-0.340091 0.288618 0)
(-0.257993 0.216051 0)
(-0.21024 0.228875 0)
(-0.115275 0.271409 0)
(0.132824 0.252114 0)
(0.248952 0.630886 0)
(0.497021 1.04147 0)
(0.685273 1.11021 0)
(0.333973 0.446618 0)
(-0.0671684 -0.639719 0)
(-0.0126575 -1.07853 0)
(-0.224781 -0.31829 0)
(-0.308281 -0.368368 0)
(-0.0813325 -0.438869 0)
(-0.123893 -0.539785 0)
(-0.245128 -0.57734 0)
(-0.373763 -0.587727 0)
(-0.55602 -0.286322 0)
(-0.62086 0.122348 0)
(-0.656368 0.245814 0)
(-0.697924 0.147026 0)
(-0.419787 0.0297808 0)
(0.0966421 -0.331181 0)
(0.353447 -0.0149999 0)
(0.488517 0.645117 0)
(0.441798 0.947037 0)
(0.446154 1.22883 0)
(0.271166 0.576211 0)
(-0.00379761 -0.48807 0)
(0.0155594 -1.14243 0)
(-0.233957 -0.0781076 0)
(-0.0333845 -0.536317 0)
(0.1436 -0.438089 0)
(0.0100707 -0.225252 0)
(-0.13135 -0.0572133 0)
(-0.346174 0.00865634 0)
(-0.572941 0.125373 0)
(-0.687751 0.281179 0)
(-0.707559 0.217363 0)
(-0.473243 -0.0706124 0)
(0.0576559 -0.512083 0)
(0.271256 -0.622648 0)
(0.269387 -0.238132 0)
(0.392967 0.588029 0)
(0.387205 1.02357 0)
(0.268929 1.41061 0)
(0.273619 0.71002 0)
(0.0524605 -0.26011 0)
(0.0587251 -1.10721 0)
(-0.0818477 0.0280463 0)
(-0.0659529 0.0486034 0)
(-0.0703252 0.0645875 0)
(-0.0988216 0.0631628 0)
(-0.165917 0.0546106 0)
(-0.23466 0.0450311 0)
(-0.269633 0.0205675 0)
(-0.233832 -0.0112733 0)
(-0.188685 -0.0273806 0)
(-0.150643 -0.037848 0)
(-0.113146 -0.0480497 0)
(-0.0684304 -0.0525365 0)
(-0.0248723 -0.0460316 0)
(0.0113533 -0.0318239 0)
(0.0288414 -0.0238949 0)
(0.0331694 -0.0208501 0)
(0.0315003 -0.018565 0)
(0.0301271 -0.0167661 0)
(0.0342395 -0.0189971 0)
(0.0515325 -0.0221918 0)
(0.0697265 -0.00494697 0)
(0.108021 0.0111875 0)
(0.124234 0.0751153 0)
(-0.0024823 0.145331 0)
(-0.0270803 0.105815 0)
(-0.0637017 0.0636908 0)
(-0.0361623 0.137811 0)
(-0.0667361 0.176868 0)
(0.0124101 0.146953 0)
(0.0476544 0.0254328 0)
(-0.0290796 -0.0526161 0)
(-0.0820799 -0.0585773 0)
(-0.134345 -0.0613723 0)
(-0.18014 -0.0932707 0)
(-0.266526 -0.140911 0)
(-0.260738 -0.138463 0)
(-0.125107 -0.117707 0)
(-0.0298054 -0.0641517 0)
(0.0303589 -0.042702 0)
(0.06315 -0.0302236 0)
(0.0837442 -0.019853 0)
(0.0949976 -0.023959 0)
(0.11601 -0.0456442 0)
(0.148622 -0.0573979 0)
(0.172241 -0.0590978 0)
(0.184141 -0.0749868 0)
(-0.0306764 0.127175 0)
(-0.0069558 0.132843 0)
(-0.0148403 0.0443624 0)
(0.0135442 0.0276693 0)
(0.0576861 0.0516821 0)
(0.107011 0.0381567 0)
(0.120425 0.0511146 0)
(0.112192 0.0545309 0)
(0.102742 0.033801 0)
(0.0963128 0.0111176 0)
(0.0874656 -0.00998321 0)
(0.054475 -0.0104498 0)
(-0.014521 0.00727076 0)
(-0.224099 -0.212483 0)
(-0.496466 -0.11971 0)
(-0.692836 -0.140115 0)
(-0.611385 -0.102916 0)
(-0.423981 -0.0609034 0)
(-0.366656 -0.0643263 0)
(-0.337709 -0.0692063 0)
(-0.295845 -0.0204558 0)
(-0.217854 0.0295509 0)
(-0.147794 0.0735551 0)
(-0.0459171 0.141566 0)
(-0.0178877 0.111215 0)
(-0.0117172 0.0348634 0)
(0.00704057 0.0183953 0)
(0.0295169 0.0234686 0)
(0.0456765 0.0248743 0)
(0.0491697 0.0150462 0)
(0.0416842 0.00331347 0)
(0.0170254 0.000546989 0)
(-0.0261083 -0.00383125 0)
(-0.0780272 -0.0199531 0)
(-0.138287 0.0190127 0)
(-0.254234 0.169111 0)
(-0.504148 0.234278 0)
(-0.727509 0.103801 0)
(-0.8519 -0.000807223 0)
(-0.888748 -0.057492 0)
(-0.84517 -0.147035 0)
(-0.789359 -0.185362 0)
(-0.722115 -0.195664 0)
(-0.665989 -0.260853 0)
(-0.643419 -0.255854 0)
(-0.664515 -0.0739454 0)
(-0.0438722 0.175945 0)
(-0.00955939 0.108065 0)
(-0.00651049 0.0185114 0)
(0.0155198 -0.00819175 0)
(0.0247407 0.00439715 0)
(0.0278523 0.023808 0)
(0.0180905 0.0421122 0)
(-0.00562869 0.0621812 0)
(-0.0349186 0.0711262 0)
(-0.0674718 0.0610601 0)
(-0.116411 0.065827 0)
(-0.192386 0.15971 0)
(-0.280819 0.35294 0)
(-0.43149 0.442061 0)
(-0.62177 0.226524 0)
(-0.716521 0.0295107 0)
(-0.724767 -0.174291 0)
(-0.736366 -0.240082 0)
(-0.818148 -0.194557 0)
(-0.843994 -0.190001 0)
(-0.868593 -0.158914 0)
(-0.961034 -0.104821 0)
(-1.07824 0.0777241 0)
(-0.0365597 0.198352 0)
(-0.00247454 0.094329 0)
(-0.012692 0.00477346 0)
(0.00135875 -0.0165136 0)
(-0.00553098 0.010725 0)
(-0.0158453 0.0424483 0)
(-0.0341878 0.0663635 0)
(-0.054919 0.0845862 0)
(-0.0746316 0.0937155 0)
(-0.0981221 0.0924954 0)
(-0.136253 0.117551 0)
(-0.181161 0.236677 0)
(-0.198098 0.444409 0)
(-0.222384 0.552933 0)
(-0.315108 0.38192 0)
(-0.327464 0.142737 0)
(-0.379534 -0.00930037 0)
(-0.498971 -0.0228707 0)
(-0.63531 -0.062538 0)
(-0.755053 -0.12205 0)
(-0.873591 -0.125134 0)
(-0.981859 -0.0420412 0)
(-1.05599 0.127248 0)
(-0.0296683 0.213939 0)
(-0.0106273 0.0914735 0)
(-0.0178186 -0.000997541 0)
(-0.0152519 -0.0129 0)
(-0.0290182 0.020605 0)
(-0.0436041 0.0538609 0)
(-0.061231 0.0813633 0)
(-0.0802825 0.10407 0)
(-0.0990445 0.116965 0)
(-0.121448 0.122226 0)
(-0.151671 0.152474 0)
(-0.172316 0.258396 0)
(-0.149378 0.433758 0)
(-0.0999041 0.537246 0)
(-0.089752 0.410182 0)
(-0.110154 0.198532 0)
(-0.167615 0.08397 0)
(-0.266699 0.0849058 0)
(-0.37979 0.0921052 0)
(-0.510705 0.0487807 0)
(-0.658147 0.0175501 0)
(-0.777768 0.060459 0)
(-0.813519 0.16894 0)
(-0.0257693 0.23297 0)
(-0.01307 0.0934156 0)
(-0.0254392 0.0020524 0)
(-0.0317306 0.00152093 0)
(-0.0505503 0.0427022 0)
(-0.0690923 0.0788529 0)
(-0.0875046 0.106267 0)
(-0.104251 0.127577 0)
(-0.120553 0.141202 0)
(-0.140795 0.149995 0)
(-0.166285 0.176493 0)
(-0.180079 0.254016 0)
(-0.154754 0.376014 0)
(-0.0942935 0.451395 0)
(-0.0497777 0.381041 0)
(-0.0577249 0.233189 0)
(-0.108244 0.149334 0)
(-0.163188 0.156945 0)
(-0.212071 0.18347 0)
(-0.278663 0.174036 0)
(-0.369257 0.146974 0)
(-0.450692 0.145854 0)
(-0.469538 0.169777 0)
(-0.0240782 0.253988 0)
(-0.0179682 0.0997175 0)
(-0.0350094 0.010325 0)
(-0.0456417 0.0196305 0)
(-0.0666503 0.0623271 0)
(-0.0853072 0.0962544 0)
(-0.102415 0.123006 0)
(-0.11747 0.144857 0)
(-0.132061 0.160967 0)
(-0.149579 0.173399 0)
(-0.170714 0.195721 0)
(-0.182983 0.248605 0)
(-0.165973 0.329051 0)
(-0.118555 0.384522 0)
(-0.0748534 0.353874 0)
(-0.071517 0.262842 0)
(-0.100203 0.196257 0)
(-0.124509 0.188491 0)
(-0.134516 0.208852 0)
(-0.147664 0.21773 0)
(-0.174183 0.205929 0)
(-0.200065 0.185637 0)
(-0.199373 0.153495 0)
(-0.0223442 0.276001 0)
(-0.0223487 0.11177 0)
(-0.0413661 0.0239903 0)
(-0.054276 0.0403694 0)
(-0.0752022 0.0850309 0)
(-0.0935419 0.116748 0)
(-0.109357 0.140254 0)
(-0.122311 0.160034 0)
(-0.134177 0.176751 0)
(-0.147339 0.191586 0)
(-0.162327 0.211209 0)
(-0.171339 0.246815 0)
(-0.160066 0.298486 0)
(-0.125221 0.338859 0)
(-0.0876836 0.330351 0)
(-0.0744456 0.27619 0)
(-0.0854645 0.222502 0)
(-0.0997904 0.201907 0)
(-0.10453 0.208965 0)
(-0.102574 0.217814 0)
(-0.10191 0.210854 0)
(-0.101782 0.184872 0)
(-0.0969422 0.136976 0)
(-0.0202162 0.299201 0)
(-0.025666 0.127268 0)
(-0.0458738 0.0398087 0)
(-0.059338 0.0600084 0)
(-0.0787674 0.104812 0)
(-0.0952257 0.134464 0)
(-0.109235 0.155352 0)
(-0.120252 0.172751 0)
(-0.129337 0.188459 0)
(-0.137852 0.203613 0)
(-0.146298 0.221012 0)
(-0.150688 0.245277 0)
(-0.142372 0.276567 0)
(-0.117264 0.301998 0)
(-0.0862623 0.30107 0)
(-0.068248 0.270477 0)
(-0.0700753 0.233452 0)
(-0.0828871 0.213651 0)
(-0.0940512 0.212618 0)
(-0.0979742 0.214833 0)
(-0.0983175 0.20639 0)
(-0.0996834 0.182294 0)
(-0.105411 0.142136 0)
(-0.0180498 0.323101 0)
(-0.0277444 0.145209 0)
(-0.0476367 0.0563344 0)
(-0.0604587 0.0784251 0)
(-0.0780604 0.122845 0)
(-0.0924322 0.149843 0)
(-0.104209 0.167699 0)
(-0.113113 0.182439 0)
(-0.119821 0.196202 0)
(-0.124857 0.210025 0)
(-0.128476 0.224991 0)
(-0.129011 0.242262 0)
(-0.122413 0.260975 0)
(-0.105937 0.275137 0)
(-0.0843971 0.275515 0)
(-0.0694568 0.259996 0)
(-0.0690728 0.239695 0)
(-0.0805 0.227382 0)
(-0.094636 0.224104 0)
(-0.10541 0.221549 0)
(-0.114173 0.212365 0)
(-0.125524 0.193522 0)
(-0.142921 0.163268 0)
(-0.0159148 0.346808 0)
(-0.0284852 0.164508 0)
(-0.0474872 0.0723203 0)
(-0.0590703 0.0946966 0)
(-0.0743527 0.138614 0)
(-0.0867337 0.163211 0)
(-0.0964988 0.177967 0)
(-0.103447 0.189846 0)
(-0.108228 0.201209 0)
(-0.1111 0.212912 0)
(-0.11215 0.225334 0)
(-0.110771 0.238347 0)
(-0.105627 0.250651 0)
(-0.0959553 0.259181 0)
(-0.0841703 0.260401 0)
(-0.0763485 0.254235 0)
(-0.077609 0.245945 0)
(-0.0872745 0.240831 0)
(-0.100604 0.238665 0)
(-0.114525 0.235639 0)
(-0.130121 0.228728 0)
(-0.150176 0.215298 0)
(-0.175749 0.190754 0)
(-0.0136529 0.369499 0)
(-0.0281285 0.184168 0)
(-0.0457333 0.0872917 0)
(-0.0561567 0.108853 0)
(-0.0690795 0.152037 0)
(-0.079635 0.174479 0)
(-0.0877386 0.186311 0)
(-0.0931944 0.195474 0)
(-0.0966308 0.204534 0)
(-0.0983317 0.214155 0)
(-0.0984249 0.224386 0)
(-0.0967631 0.234794 0)
(-0.0931687 0.244275 0)
(-0.0880072 0.251138 0)
(-0.0829718 0.25408 0)
(-0.0810183 0.253724 0)
(-0.0844764 0.252659 0)
(-0.0931532 0.252821 0)
(-0.105414 0.253707 0)
(-0.120844 0.253876 0)
(-0.1409 0.252005 0)
(-0.167209 0.244617 0)
(-0.200416 0.225538 0)
(-0.0111131 0.390571 0)
(-0.0272165 0.203456 0)
(-0.0429803 0.101139 0)
(-0.0526021 0.121105 0)
(-0.0633244 0.16342 0)
(-0.072366 0.184005 0)
(-0.0791569 0.193141 0)
(-0.0835906 0.199819 0)
(-0.0862336 0.206871 0)
(-0.0874168 0.214791 0)
(-0.0873556 0.223422 0)
(-0.086128 0.232301 0)
(-0.0839294 0.240675 0)
(-0.081392 0.247635 0)
(-0.0797921 0.252655 0)
(-0.0807239 0.256246 0)
(-0.0852434 0.259736 0)
(-0.0934383 0.264033 0)
(-0.105234 0.269074 0)
(-0.121499 0.274611 0)
(-0.144137 0.279907 0)
(-0.174949 0.281583 0)
(-0.217618 0.275323 0)
(-0.00833766 0.409758 0)
(-0.0263238 0.221924 0)
(-0.039921 0.113956 0)
(-0.0491195 0.131777 0)
(-0.0578744 0.173061 0)
(-0.0656991 0.192136 0)
(-0.0714802 0.198918 0)
(-0.0752426 0.203399 0)
(-0.077468 0.208737 0)
(-0.0784864 0.215313 0)
(-0.0785422 0.222822 0)
(-0.0778007 0.230813 0)
(-0.0765347 0.238795 0)
(-0.0752921 0.246316 0)
(-0.0749675 0.253179 0)
(-0.0765706 0.259709 0)
(-0.0808221 0.266653 0)
(-0.0881079 0.274715 0)
(-0.0989437 0.284373 0)
(-0.114481 0.296152 0)
(-0.136845 0.310262 0)
(-0.168269 0.325821 0)
(-0.215351 0.341599 0)
(-0.00565911 0.427259 0)
(-0.0258472 0.239427 0)
(-0.0372199 0.125941 0)
(-0.0462441 0.141198 0)
(-0.0532884 0.181247 0)
(-0.0600976 0.199101 0)
(-0.0650457 0.203904 0)
(-0.0683003 0.206514 0)
(-0.0702523 0.210407 0)
(-0.071191 0.215885 0)
(-0.0713337 0.222537 0)
(-0.0708428 0.229927 0)
(-0.0699632 0.237727 0)
(-0.0691002 0.245735 0)
(-0.0688495 0.253948 0)
(-0.0698955 0.262647 0)
(-0.0728396 0.272383 0)
(-0.0782005 0.283857 0)
(-0.0865857 0.297899 0)
(-0.0988804 0.315586 0)
(-0.116896 0.33852 0)
(-0.142449 0.369669 0)
(-0.180667 0.409695 0)
(-0.00362143 0.443697 0)
(-0.0259318 0.256016 0)
(-0.0354419 0.137276 0)
(-0.0443603 0.149624 0)
(-0.049922 0.188195 0)
(-0.0558219 0.205035 0)
(-0.0599955 0.208179 0)
(-0.0627249 0.209207 0)
(-0.0643334 0.211874 0)
(-0.065058 0.216414 0)
(-0.06507 0.222323 0)
(-0.0644898 0.229179 0)
(-0.0634987 0.236756 0)
(-0.0623724 0.244996 0)
(-0.0614894 0.254013 0)
(-0.0612881 0.26412 0)
(-0.0621973 0.275841 0)
(-0.0646291 0.289907 0)
(-0.0690122 0.307292 0)
(-0.0757326 0.32931 0)
(-0.0856785 0.358398 0)
(-0.0994855 0.40052 0)
(-0.116782 0.459458 0)
(-0.00271696 0.459923 0)
(-0.0265328 0.271853 0)
(-0.0349882 0.148196 0)
(-0.0437155 0.157261 0)
(-0.0479846 0.194046 0)
(-0.0529985 0.209988 0)
(-0.0563858 0.211697 0)
(-0.0584624 0.211344 0)
(-0.0595258 0.212928 0)
(-0.0597709 0.216618 0)
(-0.0593329 0.22182 0)
(-0.0582903 0.228112 0)
(-0.0567593 0.235329 0)
(-0.0549052 0.243495 0)
(-0.0529389 0.252783 0)
(-0.051086 0.263526 0)
(-0.0495489 0.27624 0)
(-0.0484809 0.291643 0)
(-0.0479798 0.31069 0)
(-0.0479435 0.334631 0)
(-0.0481103 0.3657 0)
(-0.0478005 0.410128 0)
(-0.0423926 0.475457 0)
(-0.00312001 0.47685 0)
(-0.0275925 0.287207 0)
(-0.0361494 0.159027 0)
(-0.0445307 0.16426 0)
(-0.0476412 0.198854 0)
(-0.0517062 0.213947 0)
(-0.0542477 0.214349 0)
(-0.0554966 0.21271 0)
(-0.0557667 0.213274 0)
(-0.055231 0.21614 0)
(-0.0540118 0.220631 0)
(-0.0521609 0.226301 0)
(-0.0497432 0.233012 0)
(-0.0468346 0.240816 0)
(-0.0435124 0.249897 0)
(-0.0398238 0.260561 0)
(-0.0357516 0.273263 0)
(-0.0311709 0.28863 0)
(-0.0258131 0.307466 0)
(-0.019168 0.330759 0)
(-0.0101457 0.35991 0)
(0.00278072 0.399016 0)
(0.0253649 0.456478 0)
(-0.00467343 0.495376 0)
(-0.0292485 0.30253 0)
(-0.0392345 0.170202 0)
(-0.0471527 0.170707 0)
(-0.0491357 0.202554 0)
(-0.0520641 0.216815 0)
(-0.0536237 0.215966 0)
(-0.0538348 0.213057 0)
(-0.0530544 0.212602 0)
(-0.05146 0.214642 0)
(-0.0491805 0.218405 0)
(-0.0462558 0.223404 0)
(-0.042714 0.229491 0)
(-0.0385619 0.236706 0)
(-0.0337751 0.245199 0)
(-0.028267 0.255206 0)
(-0.0218529 0.267065 0)
(-0.0142034 0.281231 0)
(-0.00477795 0.298256 0)
(0.00714027 0.318759 0)
(0.0229385 0.3434 0)
(0.0449146 0.373635 0)
(0.0774423 0.414735 0)
(-0.00708459 0.516408 0)
(-0.0319693 0.318582 0)
(-0.0447936 0.182285 0)
(-0.0521987 0.176659 0)
(-0.0528568 0.204956 0)
(-0.0542715 0.21836 0)
(-0.0545931 0.216304 0)
(-0.0534813 0.21211 0)
(-0.0513758 0.210618 0)
(-0.0484763 0.211838 0)
(-0.0449273 0.214882 0)
(-0.0407636 0.219197 0)
(-0.0359833 0.224596 0)
(-0.0305415 0.231077 0)
(-0.0243387 0.238725 0)
(-0.0172006 0.24768 0)
(-0.00884468 0.258139 0)
(0.00114842 0.270344 0)
(0.0134212 0.284584 0)
(0.028856 0.301069 0)
(0.0486592 0.319936 0)
(0.0748978 0.340976 0)
(0.110436 0.365179 0)
(-0.0101199 0.541033 0)
(-0.036572 0.33663 0)
(-0.0537068 0.195936 0)
(-0.0606202 0.181975 0)
(-0.0594609 0.205577 0)
(-0.0586435 0.218118 0)
(-0.0572495 0.214978 0)
(-0.054414 0.209527 0)
(-0.0506666 0.207029 0)
(-0.0462261 0.207494 0)
(-0.0412535 0.209897 0)
(-0.0357722 0.213584 0)
(-0.0297478 0.218305 0)
(-0.0230912 0.224001 0)
(-0.0156496 0.230679 0)
(-0.00719655 0.238381 0)
(0.00258211 0.247168 0)
(0.014132 0.257098 0)
(0.0280578 0.268218 0)
(0.0451831 0.28043 0)
(0.0664835 0.293432 0)
(0.0933206 0.306502 0)
(0.12729 0.318405 0)
(-0.0135685 0.57073 0)
(-0.0440545 0.358645 0)
(-0.067143 0.211954 0)
(-0.0737102 0.186241 0)
(-0.0698471 0.203403 0)
(-0.0655582 0.215216 0)
(-0.0616457 0.211367 0)
(-0.0565327 0.204844 0)
(-0.0507657 0.201509 0)
(-0.044554 0.201408 0)
(-0.0380463 0.203351 0)
(-0.0312346 0.20656 0)
(-0.0240406 0.210707 0)
(-0.0163279 0.215668 0)
(-0.0079025 0.221382 0)
(0.00148783 0.227805 0)
(0.0121639 0.234888 0)
(0.0245343 0.242568 0)
(0.0391027 0.250707 0)
(0.0565186 0.259031 0)
(0.0775205 0.267014 0)
(0.102866 0.273882 0)
(0.133397 0.27808 0)
(-0.0173224 0.60738 0)
(-0.0552955 0.387485 0)
(-0.0863329 0.231416 0)
(-0.0929111 0.188907 0)
(-0.0851378 0.196801 0)
(-0.075398 0.208178 0)
(-0.067668 0.204569 0)
(-0.059563 0.197479 0)
(-0.0513602 0.193704 0)
(-0.0431729 0.193403 0)
(-0.035077 0.195208 0)
(-0.0269898 0.198196 0)
(-0.0187646 0.201965 0)
(-0.0102081 0.206341 0)
(-0.00108758 0.211206 0)
(0.00886484 0.216453 0)
(0.0199521 0.22198 0)
(0.0325367 0.227634 0)
(0.0470144 0.233186 0)
(0.0638506 0.238283 0)
(0.0835768 0.242358 0)
(0.106499 0.244722 0)
(0.133128 0.244191 0)
(-0.0225752 0.652259 0)
(-0.0707175 0.426742 0)
(-0.111875 0.255377 0)
(-0.118923 0.188984 0)
(-0.106217 0.183213 0)
(-0.0884136 0.194656 0)
(-0.0748716 0.193318 0)
(-0.0629261 0.186792 0)
(-0.0519099 0.183298 0)
(-0.0416316 0.183389 0)
(-0.0319998 0.185522 0)
(-0.0227873 0.188647 0)
(-0.013742 0.19231 0)
(-0.0045989 0.196314 0)
(0.00491359 0.200517 0)
(0.0150786 0.204784 0)
(0.0261812 0.208985 0)
(0.0385376 0.212931 0)
(0.0524562 0.216352 0)
(0.0682439 0.218901 0)
(0.0862453 0.220081 0)
(0.106519 0.219286 0)
(0.129305 0.21577 0)
(-0.0289299 0.706665 0)
(-0.0870622 0.478468 0)
(-0.141939 0.284247 0)
(-0.149409 0.185521 0)
(-0.132011 0.159682 0)
(-0.104094 0.171259 0)
(-0.082229 0.175898 0)
(-0.0655155 0.172195 0)
(-0.0515425 0.170147 0)
(-0.0392782 0.171452 0)
(-0.0283518 0.174504 0)
(-0.0183075 0.178186 0)
(-0.00875039 0.182043 0)
(0.000669474 0.185932 0)
(0.0102623 0.189667 0)
(0.0203272 0.193174 0)
(0.0311422 0.196297 0)
(0.0429672 0.198851 0)
(0.0560353 0.200585 0)
(0.0705387 0.201198 0)
(0.0866561 0.200293 0)
(0.104368 0.197366 0)
(0.12366 0.191947 0)
(-0.020287 0.77413 0)
(-0.0859467 0.544979 0)
(-0.166136 0.318528 0)
(-0.174873 0.179326 0)
(-0.156391 0.124898 0)
(-0.119733 0.134844 0)
(-0.0877309 0.150463 0)
(-0.0655095 0.153449 0)
(-0.0490004 0.154533 0)
(-0.0352742 0.158003 0)
(-0.0235927 0.1626 0)
(-0.0132045 0.167248 0)
(-0.00354125 0.171596 0)
(0.00578311 0.175528 0)
(0.0151109 0.178994 0)
(0.024806 0.181929 0)
(0.03508 0.184198 0)
(0.0461469 0.185656 0)
(0.0581741 0.186102 0)
(0.0712793 0.185291 0)
(0.0855253 0.182919 0)
(0.10087 0.17861 0)
(0.117163 0.172028 0)
(0.0212912 0.814762 0)
(-0.0360399 0.657009 0)
(-0.153528 0.370426 0)
(-0.174774 0.180027 0)
(-0.163373 0.0856306 0)
(-0.126866 0.0865734 0)
(-0.0876564 0.11654 0)
(-0.0604543 0.131186 0)
(-0.0427772 0.137493 0)
(-0.0287382 0.143956 0)
(-0.0171975 0.150544 0)
(-0.00714263 0.156448 0)
(0.00204867 0.161416 0)
(0.010838 0.165515 0)
(0.019608 0.168841 0)
(0.028645 0.171337 0)
(0.0381428 0.172937 0)
(0.0482678 0.173546 0)
(0.0591321 0.173022 0)
(0.0708021 0.171182 0)
(0.0832746 0.167799 0)
(0.0964863 0.162611 0)
(0.110257 0.155379 0)
(0.07556 0.765766 0)
(0.059235 0.789111 0)
(-0.070775 0.468891 0)
(-0.127463 0.209505 0)
(-0.134422 0.0610367 0)
(-0.113039 0.0379232 0)
(-0.0767758 0.078331 0)
(-0.0481254 0.107647 0)
(-0.0316347 0.120994 0)
(-0.0191051 0.130746 0)
(-0.00890396 0.139372 0)
(-3.44411e-05 0.146458 0)
(0.00806259 0.152039 0)
(0.0159105 0.156357 0)
(0.0237786 0.159555 0)
(0.0318923 0.161677 0)
(0.0404117 0.162727 0)
(0.0494534 0.162663 0)
(0.059083 0.161398 0)
(0.0693257 0.158807 0)
(0.0801409 0.154731 0)
(0.0914447 0.148993 0)
(0.103067 0.141437 0)
(0.104423 0.630562 0)
(0.148127 0.852651 0)
(0.0538326 0.596868 0)
(-0.0348096 0.281435 0)
(-0.06768 0.0697471 0)
(-0.0706659 0.00821497 0)
(-0.0506365 0.0459152 0)
(-0.0279928 0.0870246 0)
(-0.0155771 0.107564 0)
(-0.00652377 0.120057 0)
(0.00102769 0.130136 0)
(0.00788609 0.13807 0)
(0.0144256 0.144073 0)
(0.0209257 0.148447 0)
(0.0275859 0.151438 0)
(0.0345591 0.153179 0)
(0.041945 0.153732 0)
(0.0498047 0.1531 0)
(0.0581596 0.151245 0)
(0.0669978 0.148092 0)
(0.076254 0.143538 0)
(0.0858302 0.137464 0)
(0.0955672 0.129782 0)
(0.0834876 0.464964 0)
(0.182653 0.835658 0)
(0.14415 0.687648 0)
(0.0623766 0.369249 0)
(0.015045 0.109891 0)
(-0.00923444 0.00785627 0)
(-0.0128 0.0299606 0)
(-0.00268816 0.0738118 0)
(0.00350349 0.0992777 0)
(0.00778644 0.113336 0)
(0.0119105 0.123847 0)
(0.0162636 0.132006 0)
(0.0208172 0.137964 0)
(0.0256808 0.142097 0)
(0.0309339 0.144719 0)
(0.0366252 0.146009 0)
(0.0427798 0.146061 0)
(0.0494006 0.144914 0)
(0.0564656 0.142565 0)
(0.0639285 0.138975 0)
(0.0717054 0.134085 0)
(0.0796888 0.127819 0)
(0.0877266 0.120138 0)
(0.0306283 0.334391 0)
(0.157888 0.776791 0)
(0.164614 0.720682 0)
(0.116902 0.433377 0)
(0.0824014 0.159362 0)
(0.0517942 0.0297366 0)
(0.027969 0.0321593 0)
(0.0229421 0.0716016 0)
(0.0229244 0.0974915 0)
(0.02227 0.111245 0)
(0.0227136 0.121065 0)
(0.0243375 0.128573 0)
(0.0267676 0.133928 0)
(0.0299005 0.137478 0)
(0.0336728 0.139525 0)
(0.0380285 0.140253 0)
(0.0429184 0.139768 0)
(0.0482902 0.138124 0)
(0.0540813 0.135338 0)
(0.0602161 0.131394 0)
(0.0665952 0.126264 0)
(0.0731059 0.119904 0)
(0.0796034 0.112311 0)
(-0.0164775 0.263017 0)
(0.102626 0.708188 0)
(0.13328 0.706239 0)
(0.128631 0.458798 0)
(0.12044 0.196344 0)
(0.0942528 0.0593213 0)
(0.0623657 0.048756 0)
(0.046274 0.0803356 0)
(0.0396888 0.102105 0)
(0.0349488 0.113534 0)
(0.0322208 0.121597 0)
(0.0313479 0.127711 0)
(0.0317898 0.131957 0)
(0.0332738 0.134593 0)
(0.0356151 0.13586 0)
(0.0386713 0.135912 0)
(0.0423309 0.134842 0)
(0.0464951 0.132701 0)
(0.0510681 0.129509 0)
(0.0559522 0.125265 0)
(0.0610366 0.119957 0)
(0.0662082 0.113565 0)
(0.0713334 0.106107 0)
(-0.0388268 0.241836 0)
(0.0470172 0.642165 0)
(0.0891113 0.660307 0)
(0.121935 0.447361 0)
(0.13651 0.212416 0)
(0.11739 0.088209 0)
(0.0846668 0.0739315 0)
(0.0633299 0.0961538 0)
(0.052208 0.111421 0)
(0.0445703 0.119262 0)
(0.0395109 0.124864 0)
(0.0366637 0.129067 0)
(0.0354513 0.13183 0)
(0.0355085 0.133297 0)
(0.0365733 0.133622 0)
(0.0384462 0.132904 0)
(0.0409721 0.131205 0)
(0.0440198 0.128559 0)
(0.0474709 0.124981 0)
(0.0512149 0.120468 0)
(0.0551362 0.115018 0)
(0.0591249 0.108622 0)
(0.0630609 0.101308 0)
(-0.0393589 0.251744 0)
(0.00929496 0.583381 0)
(0.0602273 0.596861 0)
(0.115505 0.410174 0)
(0.140766 0.212932 0)
(0.125629 0.114002 0)
(0.0949513 0.101842 0)
(0.0728132 0.115177 0)
(0.0597353 0.123364 0)
(0.0505293 0.127217 0)
(0.044059 0.130058 0)
(0.0398796 0.132097 0)
(0.0374526 0.133177 0)
(0.0363911 0.133334 0)
(0.0364045 0.132622 0)
(0.0372685 0.13108 0)
(0.0388065 0.128728 0)
(0.0408705 0.125576 0)
(0.0433307 0.121622 0)
(0.0460717 0.116859 0)
(0.0489798 0.111282 0)
(0.051951 0.104884 0)
(0.0548772 0.0976902 0)
(-0.0300017 0.272564 0)
(-0.00473036 0.534474 0)
(0.0526262 0.526637 0)
(0.113558 0.362794 0)
(0.137791 0.208185 0)
(0.12297 0.137793 0)
(0.0955896 0.128869 0)
(0.0754123 0.134219 0)
(0.0623734 0.136058 0)
(0.0527675 0.136209 0)
(0.0457281 0.136338 0)
(0.0408466 0.136204 0)
(0.0376647 0.135577 0)
(0.0358255 0.134395 0)
(0.0350494 0.132626 0)
(0.035115 0.130249 0)
(0.035842 0.127244 0)
(0.0370806 0.123595 0)
(0.0387001 0.119279 0)
(0.0405855 0.114278 0)
(0.0426272 0.108579 0)
(0.0447252 0.10217 0)
(0.046782 0.0950749 0)
(-0.0191229 0.290232 0)
(-0.00147597 0.491329 0)
(0.0575588 0.458323 0)
(0.111748 0.318902 0)
(0.128123 0.206115 0)
(0.112386 0.160303 0)
(0.0893819 0.15271 0)
(0.072571 0.15127 0)
(0.0607562 0.148175 0)
(0.0516196 0.145256 0)
(0.0446902 0.14295 0)
(0.0396471 0.140815 0)
(0.0361313 0.138586 0)
(0.033845 0.136127 0)
(0.0325444 0.133344 0)
(0.0320292 0.130165 0)
(0.0321352 0.126534 0)
(0.0327159 0.12241 0)
(0.0336404 0.117751 0)
(0.0348033 0.11253 0)
(0.0360982 0.106721 0)
(0.0374309 0.100309 0)
(0.0387076 0.09332 0)
(-0.0107912 0.297475 0)
(0.00880382 0.449823 0)
(0.0638201 0.398619 0)
(0.105168 0.286195 0)
(0.112247 0.209464 0)
(0.09678 0.180623 0)
(0.0789438 0.171998 0)
(0.0658261 0.165414 0)
(0.0557725 0.158931 0)
(0.0476647 0.153643 0)
(0.0413271 0.149303 0)
(0.0365344 0.145452 0)