/*--------------------------------*- C++ -*----------------------------------*\
| =========                 |                                                 |
| \\      /  F ield         | OpenFOAM: The Open Source CFD Toolbox           |
|  \\    /   O peration     | Version:  2206                                  |
|   \\  /    A nd           | Website:  www.openfoam.com                      |
|    \\/     M anipulation  |                                                 |
\*---------------------------------------------------------------------------*/
FoamFile
{
    version     2.0;
    format      ascii;
    arch        "LSB;label=32;scalar=64";
    class       volScalarField;
    location    "0.375";
    object      p_rgh;
}
// * * * * * * * * * * * * * * * * * * * * * * * * * * * * * * * * * * * * * //

dimensions      [1 -1 -2 0 0 0 0];

internalField   nonuniform List<scalar> 
2268
(
1229.88
1230.54
1231
1231.21
1231.13
1230.88
1230.63
1230.48
1230.53
1230.82
1231.4
1232.31
1233.61
1235.32
1237.45
1239.93
1242.66
1245.45
1248.03
1250.12
1251.68
1252.86
1253.76
1229.48
1230.17
1230.63
1230.87
1230.8
1230.55
1230.29
1230.14
1230.19
1230.47
1231.04
1231.92
1233.13
1234.67
1236.62
1238.97
1241.68
1244.6
1247.49
1250.01
1251.97
1253.48
1254.64
1228.69
1229.39
1229.89
1230.17
1230.13
1229.88
1229.61
1229.45
1229.48
1229.76
1230.32
1231.19
1232.39
1233.95
1235.83
1238.06
1240.56
1243.27
1246.1
1248.96
1251.71
1254.23
1256.13
1227.5
1228.17
1228.73
1229.08
1229.08
1228.83
1228.55
1228.38
1228.4
1228.68
1229.23
1230.09
1231.27
1232.78
1234.6
1236.74
1239.14
1241.75
1244.49
1247.37
1250.43
1253.51
1255.92
1225.86
1226.46
1227.11
1227.56
1227.61
1227.38
1227.09
1226.91
1226.92
1227.2
1227.75
1228.6
1229.75
1231.2
1232.96
1235
1237.3
1239.8
1242.43
1245.15
1247.94
1250.74
1253.09
1223.63
1224.27
1225.02
1225.56
1225.66
1225.45
1225.17
1224.99
1225
1225.28
1225.82
1226.66
1227.77
1229.17
1230.84
1232.74
1234.85
1237.11
1239.44
1241.72
1243.82
1245.59
1246.69
1220.96
1221.53
1222.38
1223.03
1223.2
1223.02
1222.76
1222.59
1222.62
1222.89
1223.43
1224.24
1225.3
1226.61
1228.13
1229.82
1231.63
1233.44
1235.09
1236.34
1236.72
1235.51
1231.9
1217.48
1218.13
1219.15
1219.93
1220.18
1220.06
1219.85
1219.73
1219.8
1220.09
1220.62
1221.38
1222.36
1223.53
1224.84
1226.22
1227.55
1228.66
1229.22
1228.83
1226.42
1221.5
1201.59
422.251
301.462
262.985
272.839
299.128
336.772
434.686
687.244
986.181
936.366
754.027
695.783
800.39
1016.03
1227.5
1314.86
1213.82
1184.02
1604.5
409.925
262.636
241.992
252.42
277.929
316.574
400.174
645.644
946.338
895.133
726.831
667.084
764.103
974.42
1209.06
1336.35
1212.92
1133.37
1576.98
377.398
251.238
238.594
250.994
276.85
314.762
439.027
657.884
851.905
806.288
668.464
617.634
696.483
875.921
1110.85
1299.83
1220.23
1075.5
1527.79
382.913
248.531
239.495
251.681
276.646
367.199
519.814
635.299
753.163
712.885
604.46
561.654
619.803
763.126
973.046
1178.03
1277.82
1067.82
1538.33
401.678
257.263
245.306
255.663
340.285
509.476
544.475
601.424
659.142
613.752
527.302
492.313
531.997
644.019
829.087
1039.09
1247.39
1152.65
1654.04
390.538
266.195
250.646
340.282
538.387
550.439
547.872
566.895
568.904
505.874
431.541
393.576
421.815
506.398
675.189
897.7
1172.06
1347.84
1842.26
400.948
288.239
387.454
600.521
589.336
565.652
549.44
536.172
473.035
321.814
193.934
124.783
144.979
255.938
512.378
742.355
1074.33
1452.57
2033.75
517.465
563.96
652.558
637.64
610.89
580.449
549.059
481.388
244.473
39.0497
-0.770778
-1.64896
-1.53979
4.75947
165.699
585.646
950.764
1458.3
2160.07
1211.03
1211.77
1213.08
1214.06
1214.47
1214.48
1214.4
1214.4
1214.55
1214.87
1215.38
1216.05
1216.85
1217.73
1218.6
1219.3
1219.58
1218.97
1216.5
1210.55
1195.93
1165.96
1086.49
1199.23
1199.97
1201.72
1203.03
1203.7
1203.95
1204.09
1204.28
1204.55
1204.89
1205.28
1205.71
1206.13
1206.44
1206.5
1206.08
1204.82
1202.2
1197.38
1189.14
1176.03
1156.88
1133.08
1184.26
1184.13
1186.37
1188.83
1190.24
1190.86
1191.27
1191.64
1191.98
1192.26
1192.46
1192.58
1192.56
1192.32
1191.73
1190.61
1188.7
1185.67
1181.07
1174.28
1164.58
1150.49
1132.63
1169.54
1166.79
1168.37
1172.78
1174.79
1175.1
1175.42
1175.84
1176.13
1176.28
1176.26
1176.06
1175.65
1174.97
1173.93
1172.38
1170.14
1166.97
1162.57
1156.56
1148.58
1138.13
1125.41
1163.07
1151.66
1101.68
1112.67
1121.77
1121.24
1122.95
1125.11
1125.84
1125.36
1124.13
1122.47
1120.31
1117.53
1114.1
1110.06
1104.86
1097.99
1089.3
1078.49
1064.75
1047.39
1026.81
1017.44
679.971
368.35
408.554
430.467
418.643
420.524
425.763
426.894
424.063
418.315
411.259
403.619
394.951
384.95
373.142
359.358
342.513
322.935
300.708
275.488
247.477
212.523
68.2152
-0.175411
-0.361211
-0.371692
-0.373622
-0.380047
-0.386013
-0.391436
-0.39596
-0.399821
-0.403824
-0.40843
-0.41354
-0.419428
-0.427048
-0.436444
-0.447079
-0.459605
-0.47451
-0.491855
-0.511827
-0.533962
-0.556936
-0.506703
-0.503532
-0.490568
-0.439304
-0.417748
-0.411532
-0.410716
-0.412095
-0.414558
-0.417617
-0.421276
-0.425803
-0.431265
-0.437762
-0.445428
-0.454641
-0.465521
-0.47813
-0.492823
-0.509605
-0.528313
-0.548028
-0.569689
-0.44785
-0.434381
-0.412558
-0.433213
-0.43186
-0.431687
-0.432786
-0.434799
-0.437715
-0.441421
-0.445906
-0.451299
-0.45784
-0.465679
-0.474819
-0.485565
-0.498465
-0.513597
-0.531042
-0.550353
-0.570221
-0.58876
-0.605319
-0.455718
-0.454463
-0.451781
-0.45359
-0.454745
-0.455841
-0.457609
-0.460169
-0.463627
-0.468039
-0.473454
-0.479955
-0.487694
-0.496877
-0.507851
-0.521083
-0.537201
-0.55643
-0.57855
-0.602269
-0.625176
-0.645457
-0.65877
-0.473302
-0.472663
-0.472072
-0.472854
-0.474356
-0.476395
-0.479093
-0.482567
-0.486897
-0.492188
-0.498563
-0.506166
-0.515209
-0.526063
-0.539348
-0.555923
-0.576643
-0.601526
-0.629915
-0.659078
-0.686857
-0.712149
-0.727414
-0.487468
-0.487862
-0.488746
-0.490207
-0.492278
-0.495021
-0.498479
-0.502734
-0.507888
-0.514064
-0.521409
-0.530121
-0.540521
-0.55319
-0.569053
-0.589254
-0.614561
-0.644459
-0.677439
-0.709903
-0.741676
-0.771222
-0.792178
-0.501828
-0.502688
-0.50393
-0.505751
-0.508245
-0.511453
-0.515437
-0.520267
-0.526041
-0.532876
-0.540926
-0.55042
-0.561778
-0.575739
-0.593387
-0.6159
-0.643704
-0.675842
-0.710344
-0.744031
-0.762035
-0.81148
-0.804164
-0.514118
-0.515155
-0.516594
-0.518668
-0.521458
-0.524999
-0.529348
-0.534568
-0.540745
-0.547985
-0.556431
-0.566302
-0.577953
-0.592149
-0.610026
-0.632556
-0.659872
-0.691005
-0.722109
-0.728888
-0.721902
-0.787246
-0.839876
-0.523952
-0.525
-0.526551
-0.528774
-0.531753
-0.5355
-0.540066
-0.545506
-0.55189
-0.559303
-0.567862
-0.577736
-0.589216
-0.602878
-0.619591
-0.640059
-0.664422
-0.692225
-0.703754
-0.67733
-0.711628
-0.746156
-0.851131
-0.531135
-0.532086
-0.533682
-0.535992
-0.539063
-0.542912
-0.547582
-0.553118
-0.559573
-0.567014
-0.575523
-0.585216
-0.596287
-0.609091
-0.62412
-0.64182
-0.662417
-0.685722
-0.674521
-0.656757
-0.686315
-0.717373
-0.751979
-0.535416
-0.536273
-0.53788
-0.540199
-0.543284
-0.547152
-0.551838
-0.557379
-0.563817
-0.571201
-0.579593
-0.589073
-0.599757
-0.611827
-0.625522
-0.641097
-0.658754
-0.678548
-0.687006
-0.639183
-0.660364
-0.687128
-0.717968
-0.536664
-0.537465
-0.539029
-0.541311
-0.544355
-0.548178
-0.552807
-0.55827
-0.5646
-0.571836
-0.580026
-0.589228
-0.599515
-0.610978
-0.623725
-0.63788
-0.653578
-0.670915
-0.68981
-0.708336
-0.675521
-0.668621
-0.721082
-0.534916
-0.535661
-0.537153
-0.539363
-0.542324
-0.546043
-0.55054
-0.555836
-0.561956
-0.568929
-0.576788
-0.585577
-0.595343
-0.606132
-0.61799
-0.630967
-0.645129
-0.660539
-0.677139
-0.69469
-0.713126
-0.732739
-0.753889
-0.530241
-0.530941
-0.532363
-0.534483
-0.537323
-0.540885
-0.545183
-0.55023
-0.556046
-0.562648
-0.57006
-0.578308
-0.587422
-0.597427
-0.608338
-0.620168
-0.632934
-0.646653
-0.661288
-0.676716
-0.692872
-0.709951
-0.728092
-0.522842
-0.523507
-0.524857
-0.526866
-0.529549
-0.532907
-0.536949
-0.541684
-0.547123
-0.553279
-0.560164
-0.567791
-0.576178
-0.585336
-0.595269
-0.605975
-0.617452
-0.629681
-0.642628
-0.656223
-0.670443
-0.68539
-0.70106
-0.512994
-0.513622
-0.514888
-0.516759
-0.51925
-0.522363
-0.526104
-0.530478
-0.535493
-0.541153
-0.547464
-0.55443
-0.562058
-0.570351
-0.579306
-0.588916
-0.599171
-0.610053
-0.621516
-0.633512
-0.646036
-0.659114
-0.672733
-0.500872
-0.501454
-0.502617
-0.504331
-0.50661
-0.509456
-0.512873
-0.516863
-0.521428
-0.526569
-0.532288
-0.538584
-0.545456
-0.552899
-0.560906
-0.569469
-0.578574
-0.588201
-0.598317
-0.608884
-0.619882
-0.631318
-0.64318
-0.486592
-0.487117
-0.488162
-0.489711
-0.491771
-0.494345
-0.497433
-0.501034
-0.505148
-0.509773
-0.514907
-0.520545
-0.526684
-0.533314
-0.540428
-0.548011
-0.556051
-0.564527
-0.573414
-0.582678
-0.592297
-0.602266
-0.612583
-0.47026
-0.470725
-0.471655
-0.47304
-0.474888
-0.477196
-0.479962
-0.483185
-0.486861
-0.490987
-0.495558
-0.500569
-0.506013
-0.511879
-0.518157
-0.524834
-0.531894
-0.53932
-0.54709
-0.555174
-0.563548
-0.572202
-0.581142
-0.452059
-0.452466
-0.453288
-0.454519
-0.456164
-0.458217
-0.460677
-0.463538
-0.466798
-0.470452
-0.474493
-0.478914
-0.483707
-0.488862
-0.494366
-0.500208
-0.506373
-0.512842
-0.519597
-0.526612
-0.533861
-0.541332
-0.549033
-0.432245
-0.432598
-0.433321
-0.434407
-0.435859
-0.43767
-0.439838
-0.442358
-0.445226
-0.448435
-0.451979
-0.45585
-0.460038
-0.464534
-0.469326
-0.474402
-0.479746
-0.485344
-0.491177
-0.497221
-0.503452
-0.509857
-0.516439
-0.411086
-0.411392
-0.412024
-0.412975
-0.414244
-0.415827
-0.417719
-0.419917
-0.422415
-0.425208
-0.428287
-0.431645
-0.435273
-0.43916
-0.443296
-0.447667
-0.452262
-0.457065
-0.462058
-0.467221
-0.472529
-0.477969
-0.483538
-0.388827
-0.389092
-0.389639
-0.390463
-0.391561
-0.392929
-0.394563
-0.396459
-0.398611
-0.401014
-0.403661
-0.406543
-0.409651
-0.412976
-0.416507
-0.420233
-0.424141
-0.428218
-0.432446
-0.436807
-0.441278
-0.445843
-0.450497
-0.365666
-0.365894
-0.366363
-0.367069
-0.368007
-0.369176
-0.370569
-0.372184
-0.374016
-0.376058
-0.378303
-0.380745
-0.383374
-0.386181
-0.389157
-0.39229
-0.39557
-0.398984
-0.402517
-0.406149
-0.409861
-0.413635
-0.417463
-0.341753
-0.341948
-0.342346
-0.342942
-0.343734
-0.344719
-0.345891
-0.347248
-0.348784
-0.350494
-0.352372
-0.35441
-0.3566
-0.358933
-0.361401
-0.363994
-0.366702
-0.369514
-0.372416
-0.375389
-0.378415
-0.381477
-0.384563
-0.31721
-0.317373
-0.317707
-0.318203
-0.31886
-0.319677
-0.320647
-0.321768
-0.323035
-0.324443
-0.325986
-0.327657
-0.329448
-0.331352
-0.33336
-0.335465
-0.337656
-0.339924
-0.342257
-0.344638
-0.347048
-0.349472
-0.351897
-0.292145
-0.292277
-0.29255
-0.292954
-0.293489
-0.294152
-0.294939
-0.295847
-0.29687
-0.298005
-0.299246
-0.300585
-0.302017
-0.303535
-0.30513
-0.306797
-0.308525
-0.310306
-0.31213
-0.313982
-0.315845
-0.317703
-0.319543
-0.266648
-0.26675
-0.266964
-0.267285
-0.267708
-0.268233
-0.268854
-0.269569
-0.270374
-0.271264
-0.272234
-0.273278
-0.27439
-0.275563
-0.276792
-0.278068
-0.279384
-0.280733
-0.282106
-0.28349
-0.28487
-0.286232
-0.28756
-0.240795
-0.240867
-0.241023
-0.241268
-0.241589
-0.24199
-0.242463
-0.243007
-0.243617
-0.24429
-0.24502
-0.245803
-0.246633
-0.247503
-0.248407
-0.249339
-0.250293
-0.251261
-0.252238
-0.253212
-0.254171
-0.255103
-0.25599
-0.21466
-0.214704
-0.214809
-0.214983
-0.215213
-0.215503
-0.215846
-0.216239
-0.216678
-0.21716
-0.21768
-0.218232
-0.218813
-0.219415
-0.220034
-0.220664
-0.2213
-0.221937
-0.222568
-0.223187
-0.223784
-0.224345
-0.224855
-0.188321
-0.188328
-0.188394
-0.188507
-0.188659
-0.188854
-0.189082
-0.189343
-0.189632
-0.189946
-0.19028
-0.19063
-0.19099
-0.191357
-0.191725
-0.192091
-0.192449
-0.192797
-0.19313
-0.193443
-0.193726
-0.19397
-0.194157
-0.161788
-0.161741
-0.161781
-0.161854
-0.161943
-0.162059
-0.162191
-0.162338
-0.162497
-0.162663
-0.162834
-0.163006
-0.163174
-0.163334
-0.163485
-0.163621
-0.16374
-0.163839
-0.163916
-0.163965
-0.16398
-0.163951
-0.163865
-0.135085
-0.135061
-0.135074
-0.135124
-0.135162
-0.135214
-0.135265
-0.135315
-0.135361
-0.135401
-0.13543
-0.135446
-0.135447
-0.135429
-0.135391
-0.135329
-0.135242
-0.135128
-0.134983
-0.134805
-0.134589
-0.134328
-0.134011
-0.108562
-0.108632
-0.108616
-0.108672
-0.108673
-0.108677
-0.108663
-0.108633
-0.108583
-0.108512
-0.108417
-0.108297
-0.10815
-0.107975
-0.107771
-0.107535
-0.107267
-0.106964
-0.106624
-0.106245
-0.105824
-0.105358
-0.104839
-0.0819975
-0.082137
-0.0821402
-0.0822135
-0.0822219
-0.0822009
-0.0821409
-0.0820433
-0.081909
-0.0817384
-0.0815318
-0.0812891
-0.0810104
-0.0806958
-0.0803445
-0.0799553
-0.0795267
-0.0790573
-0.0785461
-0.0779918
-0.0773924
-0.0767458
-0.0760479
-0.0529113
-0.0535949
-0.0537283
-0.0538492
-0.0538559
-0.0538024
-0.0536862
-0.0535149
-0.0532931
-0.0530237
-0.052709
-0.0523507
-0.0519503
-0.0515085
-0.0510255
-0.0505005
-0.049933
-0.0493232
-0.048671
-0.0479756
-0.0472352
-0.0464495
-0.0456182
819.384
1024.34
1053.36
956.978
1054.84
1038.92
1038.15
972.053
1071.85
1031.37
1018.36
970.981
1090.83
1048.61
991.663
843.296
943.004
676.465
363.052
60.3798
87.2429
-0.65916
-1.14677
-1.25806
-0.595789
-0.778061
-1.10363
-1.28292
-0.609407
-0.768597
-1.11681
-1.28326
-0.599606
0.705095
-0.0288752
-1.18145
0.922095
1.41126
1.04043
-1.16817
1.84847
1.41629
0.574023
-1.38208
1.33305
1.51636
-0.969247
-1.39038
-0.785895
-0.0310033
-1.3219
-1.33091
-0.969927
-1.19388
-1.24836
-1.27022
-0.952622
-1.1011
-1.16264
-1.21456
-0.87405
-1.01755
-1.09459
-1.16226
-0.788003
-0.942025
-1.03915
-1.11154
-0.816819
-0.914025
-0.98998
-1.06163
-0.801979
-0.873509
-0.943576
-1.0119
-0.76939
-0.833562
-0.898123
-0.961888
-0.736828
-0.794249
-0.852825
-0.91138
-0.703884
-0.754947
-0.807426
-0.860337
-0.670365
-0.715437
-0.761896
-0.808886
-0.636264
-0.675708
-0.716324
-0.757277
-0.601669
-0.635849
-0.670857
-0.705823
-0.566699
-0.595982
-0.625678
-0.654859
-0.531507
-0.556263
-0.580994
-0.604708
-0.496248
-0.516857
-0.537008
-0.555662
-0.461072
-0.477914
-0.493902
-0.507969
-0.426113
-0.439565
-0.451826
-0.461822
-0.391487
-0.401922
-0.410897
-0.417353
-0.357287
-0.365066
-0.371192
-0.37464
-0.323582
-0.329055
-0.332753
-0.333704
-0.290424
-0.293922
-0.295589
-0.294529
-0.257843
-0.259676
-0.259683
-0.257059
-0.225848
-0.2263
-0.224988
-0.221208
-0.194422
-0.19375
-0.191427
-0.186859
-0.163518
-0.161947
-0.158886
-0.153858
-0.133155
-0.13087
-0.127291
-0.122068
-0.103542
-0.100675
-0.0967296
-0.0914856
-0.0743609
-0.0710408
-0.0668905
-0.061805
-0.0436555
-0.040108
-0.036044
-0.0314779
835.365
742.566
706.457
682.46
645.199
594.844
449.07
215.584
1.54886
-1.44975
-1.70865
-1.67537
-1.70091
-1.52039
0.374243
138.603
714.069
1356.2
2213.45
887.591
818.21
769.07
725.709
571.317
269.599
-0.369991
-1.82159
-1.64204
-1.77538
-1.74424
-1.71686
-1.67432
-1.56206
-1.22989
1.45449
249.924
999.645
1957.99
912.538
848.084
681.516
360.305
-0.756539
-2.07109
-1.83015
-1.93532
-1.86864
-1.8336
-1.82263
-1.79093
-1.7096
-1.60154
-1.43115
-1.13271
4.20229
647.177
1603.01
641.745
328.704
-1.25181
-1.95085
-1.78253
-1.98129
-1.97813
-1.97079
-1.94501
-1.91333
-1.89241
-1.84683
-1.76438
-1.66968
-1.55631
-1.56183
-1.84473
554.228
1367.42
-1.41395
-1.63169
-1.56114
-1.75922
-1.84442
-1.94686
-2.01124
-2.02431
-2.01826
-1.99469
-1.95868
-1.90538
-1.82713
-1.74817
-1.68303
-1.58125
12.8155
747.581
1255.88
-1.3771
-1.48568
-1.56654
-1.69716
-1.8292
-1.93632
-2.01872
-2.05083
-2.05184
-2.03107
-1.99767
-1.9521
-1.88551
-1.81252
-1.72443
-1.56289
24.8515
796.447
1205.1
-1.35865
-1.43905
-1.54249
-1.66341
-1.7976
-1.91052
-1.99254
-2.03544
-2.04862
-2.04572
-2.03182
-2.00528
-1.95412
-1.88969
-1.77531
-1.54331
5.91778
400.584
1224.07
-1.35611
-1.42015
-1.5215
-1.64275
-1.76828
-1.87728
-1.96072
-2.01636
-2.05103
-2.07571
-2.08865
-2.08655
-2.05638
-2.01231
-1.8966
-1.88643
-1.97051
46.5338
1325.29
-1.37806
-1.42205
-1.51829
-1.63149
-1.74717
-1.85319
-1.94313
-2.01648
-2.07791
-2.13208
-2.17537
-2.204
-2.2037
-2.18685
-2.09077
-2.16832
-1.89805
32.6647
1449.04
-1.38953
-1.43233
-1.51777
-1.62106
-1.73091
-1.83791
-1.9378
-2.03103
-2.1205
-2.20844
-2.29145
-2.36224
-2.40425
-2.41635
-2.32832
-2.3113
-1.90263
46.6844
1573.99
-1.39539
-1.43342
-1.51246
-1.6089
-1.71601
-1.82714
-1.93996
-2.05561
-2.17694
-2.30644
-2.44153
-2.57431
-2.68258
-2.73846
-2.65368
-2.5077
-2.00544
69.7611
1690.44
-1.38287
-1.41957
-1.50078
-1.59249
-1.69983
-1.81745
-1.94524
-2.08594
-2.24448
-2.42641
-2.63269
-2.86108
-3.08417
-3.22488
-3.15218
-2.87772
-2.24471
86.0616
1805.73
-1.35326
-1.39866
-1.47734
-1.57032
-1.68006
-1.80553
-1.94945
-2.11763
-2.31928
-2.56732
-2.87246
-3.25355
-3.6793
-3.97464
-3.93446
-3.52095
-2.72682
106.92
1918.5
-1.31428
-1.369
-1.44764
-1.54214
-1.65493
-1.78828
-1.94815
-2.1448
-2.39482
-2.72444
-3.16652
-3.79288
-4.55474
-5.08126
-5.10473
-4.53568
-3.51019
125.809
1998.66
-1.27065
-1.33268
-1.41201
-1.50765
-1.62283
-1.76255
-1.93625
-2.15938
-2.45956
-2.88418
-3.5105
-4.5068
-5.7484
-6.40845
-6.67158
-5.95018
-4.57024
147.568
1973.18
-1.22469
-1.29097
-1.37056
-1.4662
-1.58234
-1.72539
-1.90876
-2.15155
-2.49581
-3.0155
-3.8618
-5.32973
-7.15895
-7.72162
-7.89321
-7.63511
-5.71936
154.933
1975.53
-1.17695
-1.24466
-1.32328
-1.41718
-1.53157
-1.67494
-1.86165
-2.11205
-2.48453
-3.06753
-4.10836
-5.67747
-7.30605
-9.01406
-9.87859
-9.10423
-6.61192
142.067
2095.81
-1.12736
-1.19418
-1.27025
-1.36036
-1.46991
-1.6078
-1.78862
-2.03881
-2.41585
-2.99098
-4.10608
-4.96273
-5.46145
-11.2545
-11.3355
-9.51824
-7.00895
124.04
2189.83
-1.07585
-1.13987
-1.21176
-1.29598
-1.39764
-1.52495
-1.69149
-1.92254
-2.26402
-2.80698
-3.85715
-4.42827
-1.56578
-11.2436
-11.0658
-8.6083
-4.05783
242.764
2114.32
-1.02242
-1.08214
-1.14838
-1.22485
-1.3159
-1.4284
-1.57378
-1.77263
-2.0569
-2.50873
-3.3637
-3.96768
3.94793
-1.15643
-9.15337
-5.3335
68.1423
697.198
987.636
-0.967247
-1.02156
-1.08094
-1.14817
-1.2266
-1.32132
-1.44087
-1.59939
-1.81521
-2.14919
-2.75772
-3.52021
1.24359
38.5744
28.3225
78.032
231.752
335.331
86.0892
-0.910659
-0.958813
-1.01049
-1.06752
-1.13212
-1.20755
-1.29924
-1.415
-1.56316
-1.78172
-2.15829
-2.54925
-1.36976
28.2967
73.6202
99.4139
126.546
34.6553
30.8737
-0.853138
-0.894697
-0.9382
-0.984594
-1.03501
-1.09103
-1.1552
-1.23039
-1.31872
-1.43924
-1.63015
-1.82056
-1.26034
3.91433
18.2418
26.5255
13.7144
14.0653
11.0165
-0.795229
-0.830036
-0.865262
-0.901104
-0.937737
-0.975327
-1.01414
-1.05367
-1.09227
-1.13543
-1.19092
-1.21901
-1.02813
-0.17536
1.53391
4.02263
5.89536
5.74632
4.21555
-0.737491
-0.765631
-0.792803
-0.818599
-0.842425
-0.863378
-0.880119
-0.890111
-0.889564
-0.87644
-0.845157
-0.770167
-0.584507
-0.0876273
0.765219
1.92225
2.75989
2.7496
2.10253
-0.680455
-0.702217
-0.721816
-0.738395
-0.750792
-0.757378
-0.75584
-0.742637
-0.712977
-0.661488
-0.578736
-0.445789
-0.2294
0.131568
0.65481
1.2319
1.65508
1.6958
1.4725
-0.624593
-0.64043
-0.653134
-0.661536
-0.66411
-0.658799
-0.64283
-0.612343
-0.562286
-0.486488
-0.376101
-0.218508
0.00425497
0.307361
0.674044
1.03332
1.27114
1.31635
1.24962
-0.570311
-0.580795
-0.587406
-0.588795
-0.583237
-0.568498
-0.541702
-0.499113
-0.435953
-0.346482
-0.224484
-0.0615493
0.149412
0.407367
0.689678
0.944393
1.10703
1.152
1.13083
-0.517935
-0.523714
-0.525105
-0.520685
-0.508672
-0.486837
-0.452437
-0.402084
-0.331671
-0.236382
-0.113175
0.0437851
0.23526
0.454536
0.680369
0.875549
1.00143
1.0463
1.03746
-0.467701
-0.469463
-0.466529
-0.457484
-0.440596
-0.413772
-0.374535
-0.320002
-0.246998
-0.152967
-0.0332009
0.112145
0.281576
0.467103
0.65116
0.807341
0.910759
0.953399
0.948617
-0.419761
-0.418203
-0.411824
-0.399278
-0.378957
-0.348975
-0.307193
-0.251278
-0.178771
-0.0881939
0.0230712
0.154085
0.301623
0.457857
0.608995
0.736485
0.82354
0.863403
0.860752
-0.374187
-0.369988
-0.361004
-0.345995
-0.323525
-0.291946
-0.249493
-0.194393
-0.125307
-0.040133
0.0610649
0.177038
0.30409
0.43522
0.559772
0.664673
0.738383
0.774954
0.774061
-0.330975
-0.324781
-0.313972
-0.297442
-0.273937
-0.242076
-0.20044
-0.147663
-0.0830555
-0.00532829
0.0850081
0.186216
0.294631
0.404291
0.507032
0.593542
0.655766
0.688621
0.689147
-0.290067
-0.282473
-0.270548
-0.253327
-0.229751
-0.198694
-0.159076
-0.110183
-0.0508664
0.0187755
0.0981136
0.185295
0.276968
0.368201
0.452766
0.523971
0.576135
0.60507
0.606572
-0.251363
-0.242904
-0.230488
-0.213302
-0.190475
-0.161092
-0.124305
-0.0798592
-0.0269023
0.0342909
0.102837
0.176918
0.253614
0.328936
0.39815
0.456414
0.499702
0.524684
0.526704
-0.214723
-0.205872
-0.193513
-0.176983
-0.155587
-0.1286
-0.0952019
-0.05599
-0.00975004
0.0429209
0.101063
0.163008
0.2263
0.287772
0.343854
0.391028
0.426447
0.447554
0.449675
-0.17998
-0.171151
-0.159318
-0.143968
-0.124577
-0.100676
-0.0721167
-0.0376571
0.00177895
0.0460221
0.0942253
0.14495
0.196191
0.245492
0.290189
0.32774
0.356144
0.373517
0.375392
-0.146938
-0.138489
-0.127584
-0.113849
-0.096914
-0.0764485
-0.0522214
-0.0237124
0.00870056
0.0446512
0.083379
0.123696
0.164024
0.202504
0.237192
0.266281
0.28839
0.302211
0.303583
-0.115397
-0.107628
-0.097982
-0.0862192
-0.0721086
-0.0554346
-0.0359984
-0.0135271
0.0117932
0.0396059
0.0692751
0.099872
0.130211
0.158944
0.184706
0.206256
0.222674
0.233151
0.233865
-0.085249
-0.0783543
-0.0701974
-0.0606743
-0.0496841
-0.0371205
-0.0228063
-0.00651459
0.0116712
0.0314778
0.0524269
0.0738508
0.0949266
0.114747
0.132424
0.147162
0.158391
0.165734
0.165775
-0.0561811
-0.0503201
-0.0438151
-0.0367172
-0.0290784
-0.0209562
-0.0120636
-0.0021313
0.0088617
0.0207477
0.0332271
0.0458944
0.0582659
0.0698229
0.0800724
0.0885876
0.0950683
0.0994926
0.0989388
-0.0268536
-0.0224069
-0.0179415
-0.0136527
-0.00971349
-0.00636151
-0.00333604
4.51623e-05
0.00375596
0.00773094
0.0118608
0.0160038
0.0199986
0.0236803
0.0269036
0.0295536
0.031517
0.0329501
0.0325821
)
;

boundaryField
{
    leftWall
    {
        type            fixedFluxPressure;
        gradient        uniform 0;
        value           nonuniform List<scalar> 
50
(
1229.88
1229.48
1228.69
1227.5
1225.86
1223.63
1220.96
1217.48
1211.03
1199.23
1184.26
1169.54
1163.07
1017.44
68.2152
-0.506703
-0.44785
-0.455718
-0.473302
-0.487468
-0.501828
-0.514118
-0.523952
-0.531135
-0.535416
-0.536664
-0.534916
-0.530241
-0.522842
-0.512994
-0.500872
-0.486592
-0.47026
-0.452059
-0.432245
-0.411086
-0.388827
-0.365666
-0.341753
-0.31721
-0.292145
-0.266648
-0.240795
-0.21466
-0.188321
-0.161788
-0.135085
-0.108562
-0.0819975
-0.0529113
)
;
    }
    rightWall
    {
        type            fixedFluxPressure;
        gradient        uniform 0;
        value           nonuniform List<scalar> 
50
(
1604.5
1576.98
1527.79
1538.33
1654.04
1842.26
2033.75
2160.07
2213.45
1957.99
1603.01
1367.42
1255.88
1205.1
1224.07
1325.29
1449.04
1573.99
1690.44
1805.73
1918.5
1998.66
1973.18
1975.53
2095.81
2189.83
2114.32
987.636
86.0892
30.8737
11.0165
4.21555
2.10253
1.4725
1.24962
1.13083
1.03746
0.948617
0.860752
0.774061
0.689147
0.606572
0.526704
0.449675
0.375392
0.303583
0.233865
0.165775
0.0989388
0.0325821
)
;
    }
    lowerWall
    {
        type            fixedFluxPressure;
        gradient        uniform 0;
        value           nonuniform List<scalar> 
62
(
1229.88
1230.54
1231
1231.21
1231.13
1230.88
1230.63
1230.48
1230.53
1230.82
1231.4
1232.31
1233.61
1235.32
1237.45
1239.93
1242.66
1245.45
1248.03
1250.12
1251.68
1252.86
1253.76
1253.76
1254.64
1256.13
1255.92
1253.09
1246.69
1231.9
1201.59
819.384
1024.34
1053.36
956.978
422.251
409.925
377.398
382.913
401.678
390.538
400.948
517.465
422.251
301.462
262.985
272.839
299.128
336.772
434.686
687.244
986.181
936.366
754.027
695.783
800.39
1016.03
1227.5
1314.86
1213.82
1184.02
1604.5
)
;
    }
    atmosphere
    {
        type            totalPressure;
        rho             rho;
        psi             none;
        gamma           1;
        p0              uniform 0;
        value           nonuniform List<scalar> 
46
(
-0.0351328
-0.0381103
-0.0378803
-0.0379327
-0.0378891
-0.0377853
-0.0376204
-0.0373997
-0.037127
-0.0368051
-0.0364363
-0.0360225
-0.0355653
-0.0350657
-0.0345247
-0.0339427
-0.0333202
-0.0326571
-0.0319535
-0.0312092
-0.0304243
-0.0295991
-0.0287347
-0.0266977
-0.0231954
-0.0193815
-0.0153357
-0.0115038
-0.00804565
-0.00490937
-0.00239734
-0.000684533
-1.62885e-06
0
0
0
0
0
0
0
0
0
0
0
0
0
)
;
    }
    defaultFaces
    {
        type            empty;
    }
}


// ************************************************************************* //
