/*--------------------------------*- C++ -*----------------------------------*\
| =========                 |                                                 |
| \\      /  F ield         | OpenFOAM: The Open Source CFD Toolbox           |
|  \\    /   O peration     | Version:  2206                                  |
|   \\  /    A nd           | Website:  www.openfoam.com                      |
|    \\/     M anipulation  |                                                 |
\*---------------------------------------------------------------------------*/
FoamFile
{
    version     2.0;
    format      ascii;
    arch        "LSB;label=32;scalar=64";
    class       surfaceScalarField;
    location    "0.375";
    object      phi;
}
// * * * * * * * * * * * * * * * * * * * * * * * * * * * * * * * * * * * * * //

dimensions      [0 3 -1 0 0 0 0];

oriented        oriented;

internalField   nonuniform List<scalar> 
4432
(
1.08489e-07
-1.08489e-07
1.3013e-06
-1.19281e-06
2.91327e-06
-1.61197e-06
4.5141e-06
-1.60083e-06
5.92123e-06
-1.40713e-06
7.10541e-06
-1.18418e-06
8.10212e-06
-9.96708e-07
8.9554e-06
-8.53286e-07
9.693e-06
-7.37591e-07
1.03212e-05
-6.28223e-07
1.08283e-05
-5.07058e-07
1.11837e-05
-3.55427e-07
1.13418e-05
-1.58115e-07
1.12332e-05
1.08596e-07
1.07337e-05
4.99546e-07
9.7609e-06
9.72785e-07
8.26505e-06
1.49585e-06
6.26839e-06
1.99666e-06
3.9503e-06
2.31809e-06
1.6514e-06
2.2989e-06
-8.79048e-08
1.7393e-06
-6.81239e-07
5.93335e-07
-6.81237e-07
8.55555e-08
-1.94043e-07
1.27849e-06
-2.38574e-06
2.91548e-06
-3.24896e-06
4.55931e-06
-3.24467e-06
6.01227e-06
-2.86008e-06
7.23497e-06
-2.40688e-06
8.26102e-06
-2.02276e-06
9.13782e-06
-1.73009e-06
9.8981e-06
-1.49787e-06
1.05535e-05
-1.28362e-06
1.10987e-05
-1.05229e-06
1.15245e-05
-7.81191e-07
1.18237e-05
-4.57326e-07
1.19825e-05
-5.01657e-08
1.20452e-05
4.36851e-07
1.19597e-05
1.05828e-06
1.16077e-05
1.84782e-06
1.08114e-05
2.79296e-06
9.38721e-06
3.74228e-06
7.28638e-06
4.39972e-06
4.70876e-06
4.31693e-06
2.11256e-06
3.18954e-06
1.43132e-06
3.67992e-08
-2.30841e-07
1.20913e-06
-3.55807e-06
2.87052e-06
-4.91035e-06
4.57054e-06
-4.9447e-06
6.08487e-06
-4.37441e-06
7.35628e-06
-3.67828e-06
8.41458e-06
-3.08107e-06
9.3128e-06
-2.6283e-06
1.00924e-05
-2.27743e-06
1.07726e-05
-1.96385e-06
1.13534e-05
-1.63305e-06
1.18204e-05
-1.24819e-06
1.21474e-05
-7.8436e-07
1.23194e-05
-2.22143e-07
1.23151e-05
4.41098e-07
1.21487e-05
1.22473e-06
1.18475e-05
2.14903e-06
1.1402e-05
3.23849e-06
1.06675e-05
4.47673e-06
9.34083e-06
5.7264e-06
7.06506e-06
6.59271e-06
3.77876e-06
6.47584e-06
5.21008e-06
-2.63623e-08
-2.04478e-07
1.11313e-06
-4.69756e-06
2.80935e-06
-6.60657e-06
4.58731e-06
-6.72266e-06
6.18715e-06
-5.97426e-06
7.52857e-06
-5.0197e-06
8.63572e-06
-4.18821e-06
9.56809e-06
-3.56067e-06
1.0378e-05
-3.08731e-06
1.10943e-05
-2.68017e-06
1.17229e-05
-2.26162e-06
1.22526e-05
-1.77791e-06
1.26633e-05
-1.1951e-06
1.29312e-05
-4.90026e-07
1.30178e-05
3.54508e-07
1.28944e-05
1.34811e-06
1.25367e-05
2.5067e-06
1.19455e-05
3.82976e-06
1.11029e-05
5.31932e-06
9.85471e-06
6.97457e-06
7.78445e-06
8.66298e-06
4.42907e-06
9.83122e-06
9.63915e-06
-1.24611e-07
-7.98672e-08
9.90617e-07
-5.81278e-06
2.73454e-06
-8.3505e-06
4.60495e-06
-8.59306e-06
6.30428e-06
-7.67359e-06
7.72912e-06
-6.44454e-06
8.89822e-06
-5.35731e-06
9.87763e-06
-4.54009e-06
1.07308e-05
-3.94052e-06
1.14973e-05
-3.44662e-06
1.21902e-05
-2.95452e-06
1.28028e-05
-2.39053e-06
1.33159e-05
-1.70816e-06
1.37027e-05
-8.76856e-07
1.3925e-05
1.32237e-07
1.39452e-05
1.32784e-06
1.3703e-05
2.74895e-06
1.31269e-05
4.40591e-06
1.2145e-05
6.30119e-06
1.06767e-05
8.44289e-06
8.48291e-06
1.08567e-05
5.00786e-06
1.33063e-05
1.4647e-05
-2.30573e-07
1.50705e-07
8.57039e-07
-6.9004e-06
2.65861e-06
-1.01521e-05
4.62548e-06
-1.05599e-05
6.4248e-06
-9.47292e-06
7.93574e-06
-7.95547e-06
9.17444e-06
-6.59601e-06
1.02132e-05
-5.57882e-06
1.11249e-05
-4.85227e-06
1.19583e-05
-4.28005e-06
1.27339e-05
-3.73003e-06
1.34493e-05
-3.10602e-06
1.40875e-05
-2.3463e-06
1.46212e-05
-1.41061e-06
1.50203e-05
-2.66834e-07
1.5234e-05
1.11417e-06
1.52024e-05
2.78052e-06
1.4825e-05
4.78337e-06
1.39498e-05
7.17637e-06
1.23867e-05
1.0006e-05
9.88266e-06
1.33608e-05
5.87745e-06
1.73115e-05
2.05245e-05
-3.30622e-07
4.81327e-07
7.40398e-07
-7.97142e-06
2.60417e-06
-1.20158e-05
4.65443e-06
-1.26102e-05
6.53569e-06
-1.13542e-05
8.1217e-06
-9.54147e-06
9.43086e-06
-7.90517e-06
1.05403e-05
-6.68827e-06
1.15285e-05
-5.84047e-06
1.24496e-05
-5.20118e-06
1.33294e-05
-4.60984e-06
1.41708e-05
-3.94741e-06
1.49614e-05
-3.13684e-06
1.56791e-05
-2.12832e-06
1.62934e-05
-8.81132e-07
1.67628e-05
6.44709e-07
1.70299e-05
2.51347e-06
1.70004e-05
4.81282e-06
1.65064e-05
7.67042e-06
1.53104e-05
1.12019e-05
1.2983e-05
1.56882e-05
9.08037e-06
2.12141e-05
2.96048e-05
-4.06678e-07
8.88005e-07
6.76516e-07
-9.05461e-06
2.59638e-06
-1.39357e-05
4.70171e-06
-1.47155e-05
6.63218e-06
-1.32847e-05
8.27001e-06
-1.11793e-05
9.6423e-06
-9.27747e-06
1.08303e-05
-7.87632e-06
1.1913e-05
-6.92317e-06
1.29445e-05
-6.23264e-06
1.39521e-05
-5.61741e-06
1.49426e-05
-4.93793e-06
1.59099e-05
-4.10413e-06
1.68399e-05
-3.05839e-06
1.77127e-05
-1.75387e-06
1.85012e-05
-1.43864e-07
1.9163e-05
1.8517e-06
1.96234e-05
4.35242e-06
1.97064e-05
7.58742e-06
1.90956e-05
1.18127e-05
1.68899e-05
1.78939e-05
1.19735e-05
2.61305e-05
4.15783e-05
-5.64333e-05
5.64333e-05
-0.000114942
5.85088e-05
-0.000127229
1.22874e-05
-0.000121325
-5.90479e-06
-0.000110219
-1.11052e-05
-8.83646e-05
-2.18549e-05
-5.56407e-05
-3.27239e-05
2.55553e-06
-5.81962e-05
5.78675e-05
-5.5312e-05
9.09016e-05
-3.30342e-05
0.000105851
-1.49497e-05
0.00010627
-4.18692e-07
8.84362e-05
1.78339e-05
5.04719e-05
3.79643e-05
1.87216e-06
4.85997e-05
-3.6252e-05
3.81241e-05
-6.032e-05
2.40681e-05
-6.70051e-05
6.68508e-06
-6.70051e-05
-8.68115e-05
0.000143245
-0.000176983
0.000148681
-0.000194947
3.02509e-05
-0.000158431
-4.24202e-05
-0.000100606
-6.89299e-05
-4.89222e-05
-7.35392e-05
1.55438e-05
-9.71899e-05
7.96154e-05
-0.000122268
0.000114474
-9.0171e-05
0.000133321
-5.18809e-05
0.000142455
-2.40837e-05
0.000145018
-2.98154e-06
0.000140939
2.19126e-05
0.000121544
5.73596e-05
7.69054e-05
9.32383e-05
1.04198e-05
0.00010461
-3.43693e-05
6.88571e-05
-4.02211e-05
1.25369e-05
-0.000107226
-8.29246e-06
0.000151537
-8.35207e-05
0.000223909
-6.73772e-05
1.41075e-05
-5.62267e-06
-0.000104175
2.82681e-05
-0.00010282
6.7309e-05
-0.00011258
0.000102111
-0.000131992
0.000117332
-0.00013749
0.000131644
-0.000104483
0.000143008
-6.32448e-05
0.000149898
-3.09732e-05
0.000152205
-5.28919e-06
0.00015066
2.34573e-05
0.000143897
6.41227e-05
0.000122068
0.000115068
7.17309e-05
0.000154947
3.0225e-06
0.000137566
-2.69144e-05
4.24738e-05
-0.000134141
1.96503e-05
0.000131887
6.65228e-05
0.000177037
9.06028e-05
-9.97242e-06
9.04934e-05
-0.000104065
0.000101918
-0.000114245
0.000115426
-0.000126088
0.000123819
-0.000140385
0.00012834
-0.000142011
0.000137483
-0.000113626
0.000146912
-7.26733e-05
0.000153261
-3.73221e-05
0.000156054
-8.08266e-06
0.000154961
2.45506e-05
0.000150383
6.87007e-05
0.00014072
0.00012473
0.000113547
0.00018212
6.23828e-05
0.00018873
1.12906e-05
9.35661e-05
-0.00012285
1.32906e-05
0.000118596
0.000107502
8.28253e-05
0.000127675
-3.01455e-05
0.000118452
-9.4842e-05
0.00011819
-0.000113983
0.000123646
-0.000131543
0.000128853
-0.000145592
0.000133769
-0.000146927
0.000141529
-0.000121386
0.000148952
-8.00956e-05
0.000154021
-4.23921e-05
0.000157036
-1.10976e-05
0.000157478
2.41085e-05
0.000153986
7.21931e-05
0.000147772
0.000130945
0.00013406
0.000195831
9.63766e-05
0.000226413
4.21123e-05
0.00014783
-8.07377e-05
3.01159e-05
8.84806e-05
0.000100687
1.22538e-05
0.000116263
-4.57213e-05
0.000114962
-9.35412e-05
0.000119834
-0.000118854
0.000126597
-0.000138306
0.000132028
-0.000151023
0.000136615
-0.000151514
0.000141617
-0.000126388
0.00014508
-8.35583e-05
0.000147208
-4.45203e-05
0.000149501
-1.33909e-05
0.000152144
2.14652e-05
0.000152625
7.17128e-05
0.000149767
0.000133802
0.000142585
0.000203013
0.000116027
0.000252972
6.42746e-05
0.000199582
-1.64631e-05
3.43858e-05
5.40947e-05
7.83779e-05
-3.17382e-05
0.00010496
-7.23038e-05
0.000115135
-0.000103716
0.000122745
-0.000126464
0.000128499
-0.00014406
0.000132356
-0.000154881
0.000135015
-0.000154172
0.000135543
-0.000126916
0.000132961
-8.09769e-05
0.000128987
-4.05459e-05
0.000127845
-1.22495e-05
0.000132063
1.72474e-05
0.000137828
6.59481e-05
0.00014257
0.00012906
0.000142311
0.000203272
0.000124107
0.000271176
7.47094e-05
0.00024898
5.82463e-05
7.25544e-05
-1.84597e-05
9.60821e-05
-5.52658e-05
0.000110161
-8.63823e-05
0.00011827
-0.000111826
0.000123624
-0.000131818
0.000127511
-0.000147947
0.000129502
-0.000156871
0.000129237
-0.000153907
0.000123474
-0.000121153
0.000114162
-7.16649e-05
0.000101184
-2.75678e-05
9.55467e-05
-6.61229e-06
0.000101857
1.09375e-05
0.000113601
5.42039e-05
0.000126421
0.00011624
0.00013458
0.000195113
0.000124031
0.000281725
8.00289e-05
0.000292982
0.000138275
-9.12931e-07
1.80094e-06
1.42691e-06
-1.13944e-05
5.65627e-06
-1.81651e-05
1.02746e-05
-1.93338e-05
1.44473e-05
-1.74573e-05
1.80018e-05
-1.47338e-05
2.10763e-05
-1.23521e-05
2.38673e-05
-1.06672e-05
2.65277e-05
-9.58361e-06
2.91506e-05
-8.85556e-06
3.17821e-05
-8.24888e-06
3.44405e-05
-7.59638e-06
3.71333e-05
-6.79686e-06
3.98682e-05
-5.79328e-06
4.26638e-05
-4.54948e-06
4.55521e-05
-3.03221e-06
4.86173e-05
-1.21353e-06
5.20114e-05
9.5837e-07
5.59783e-05
3.62053e-06
6.11232e-05
6.66778e-06
6.85995e-05
1.04176e-05
8.14683e-05
1.32617e-05
2.13412e-05
0.000101705
-7.847e-07
2.58564e-06
1.47354e-06
-1.36527e-05
5.87402e-06
-2.25656e-05
1.06927e-05
-2.41525e-05
1.49118e-05
-2.16765e-05
1.84885e-05
-1.83105e-05
2.17275e-05
-1.55911e-05
2.48765e-05
-1.38163e-05
2.80542e-05
-1.27613e-05
3.12985e-05
-1.20998e-05
3.46177e-05
-1.15681e-05
3.80203e-05
-1.0999e-05
4.15287e-05
-1.03053e-05
4.51874e-05
-9.45195e-06
4.90689e-05
-8.431e-06
5.32837e-05
-7.24694e-06
5.79801e-05
-5.90993e-06
6.33761e-05
-4.43771e-06
6.98237e-05
-2.827e-06
7.76371e-05
-1.14569e-06
8.72588e-05
7.95872e-07
9.8643e-05
1.87761e-06
5.75553e-06
0.000114229
-2.02527e-07
2.78816e-06
1.94087e-06
-1.57961e-05
6.4409e-06
-2.70656e-05
1.1387e-05
-2.90986e-05
1.55672e-05
-2.58567e-05
1.91129e-05
-2.18562e-05
2.25192e-05
-1.89974e-05
2.60552e-05
-1.73523e-05
2.97618e-05
-1.64679e-05
3.35926e-05
-1.59306e-05
3.75047e-05
-1.54802e-05
4.14855e-05
-1.49798e-05
4.55556e-05
-1.43754e-05
4.97619e-05
-1.36582e-05
5.41718e-05
-1.28408e-05
5.88671e-05
-1.19423e-05
6.39452e-05
-1.0988e-05
6.95151e-05
-1.00076e-05
7.57231e-05
-9.03493e-06
8.27209e-05
-8.14354e-06
9.08743e-05
-7.35749e-06
9.97884e-05
-7.03653e-06
-6.60208e-06
0.000112146
2.8213e-06
-3.31355e-08
6.46166e-06
-1.94365e-05
1.05547e-05
-3.11587e-05
1.39999e-05
-3.25438e-05
1.7066e-05
-2.89227e-05
2.02411e-05
-2.50314e-05
2.38179e-05
-2.25741e-05
2.77917e-05
-2.13262e-05
3.20093e-05
-2.06854e-05
3.63263e-05
-2.02476e-05
4.06662e-05
-1.98202e-05
4.50172e-05
-1.93307e-05
4.94071e-05
-1.87653e-05
5.38843e-05
-1.81354e-05
5.85076e-05
-1.74642e-05
6.3338e-05
-1.67727e-05
6.84433e-05
-1.60934e-05
7.38907e-05
-1.5455e-05
7.97573e-05
-1.49015e-05
8.61022e-05
-1.44885e-05
9.29973e-05
-1.42526e-05
0.000100288
-1.4327e-05
-1.45231e-05
0.000108209
1.00745e-05
-1.01076e-05
2.20701e-05
-3.14321e-05
2.33292e-05
-3.24178e-05
1.97731e-05
-2.89877e-05
1.89701e-05
-2.81197e-05
2.10326e-05
-2.70938e-05
2.46568e-05
-2.61983e-05
2.89657e-05
-2.5635e-05
3.34881e-05
-2.52079e-05
3.80055e-05
-2.4765e-05
4.24446e-05
-2.42593e-05
4.68407e-05
-2.37268e-05
5.12728e-05
-2.31974e-05
5.57921e-05
-2.26547e-05
6.04e-05
-2.2072e-05
6.51578e-05
-2.15305e-05
7.0075e-05
-2.10106e-05
7.51734e-05
-2.05534e-05
8.04843e-05
-2.02125e-05
8.60471e-05
-2.00513e-05
9.18864e-05
-2.00919e-05
9.80285e-05
-2.04691e-05
-2.12636e-05
0.000104769
2.35727e-05
-3.36804e-05
4.65579e-05
-5.44172e-05
3.6581e-05
-2.24409e-05
2.19785e-05
-1.43852e-05
1.77393e-05
-2.38805e-05
1.89344e-05
-2.82889e-05
2.22878e-05
-2.95517e-05
2.6372e-05
-2.97192e-05
3.05796e-05
-2.94155e-05
3.47115e-05
-2.88969e-05
3.87555e-05
-2.83033e-05
4.281e-05
-2.77813e-05
4.70508e-05
-2.74382e-05
5.1532e-05
-2.71359e-05
5.61474e-05
-2.66875e-05
6.10294e-05
-2.64124e-05
6.60786e-05
-2.60598e-05
7.13465e-05
-2.58213e-05
7.68436e-05
-2.57096e-05
8.26913e-05
-2.5899e-05
8.8896e-05
-2.62966e-05
9.57324e-05
-2.73055e-05
-2.97693e-05
0.000104238
2.99451e-05
-6.36254e-05
2.55511e-05
-5.00233e-05
1.79125e-05
-1.48023e-05
1.34488e-05
-9.9215e-06
1.24502e-05
-2.28818e-05
1.42594e-05
-3.00982e-05
1.64147e-05
-3.17072e-05
1.87954e-05
-3.21e-05
2.1508e-05
-3.2128e-05
2.4659e-05
-3.20478e-05
2.82579e-05
-3.19021e-05
3.21632e-05
-3.16864e-05
3.66518e-05
-3.19265e-05
4.17704e-05
-3.22542e-05
4.71016e-05
-3.20184e-05
5.29987e-05
-3.23093e-05
5.9421e-05
-3.24817e-05
6.63812e-05
-3.2781e-05
7.39709e-05
-3.3299e-05
8.2085e-05
-3.40127e-05
9.06817e-05
-3.48929e-05
9.95223e-05
-3.61458e-05
-3.69999e-05
0.000106753
-1.42982e-05
-4.93272e-05
-2.66139e-05
-3.77073e-05
-2.53358e-05
-1.608e-05
-4.26859e-06
-3.09885e-05
7.52203e-06
-3.46723e-05
1.29141e-05
-3.54901e-05
1.65094e-05
-3.53025e-05
1.96143e-05
-3.52049e-05
2.28108e-05
-3.53245e-05
2.63633e-05
-3.56002e-05
3.02775e-05
-3.58163e-05
3.47484e-05
-3.61574e-05
3.93992e-05
-3.65776e-05
4.429e-05
-3.71453e-05
4.98948e-05
-3.76236e-05
5.5749e-05
-3.8164e-05
6.22484e-05
-3.89817e-05
6.93089e-05
-3.98421e-05
7.68811e-05
-4.08718e-05
8.4637e-05
-4.17691e-05
9.22791e-05
-4.25355e-05
9.92416e-05
-4.31086e-05
-4.17957e-05
0.000104037
-1.7881e-05
-3.14461e-05
-1.93103e-05
-3.62779e-05
5.84031e-07
-3.59744e-05
7.89976e-06
-3.83043e-05
1.12167e-05
-3.79893e-05
1.35841e-05
-3.78577e-05
1.61913e-05
-3.79096e-05
1.91364e-05
-3.815e-05
2.23482e-05
-3.85362e-05
2.57551e-05
-3.90069e-05
2.95106e-05
-3.95716e-05
3.35472e-05
-4.01937e-05
3.78977e-05
-4.09278e-05
4.2516e-05
-4.17633e-05
4.77161e-05
-4.28234e-05
5.36881e-05
-4.41355e-05
6.04253e-05
-4.57185e-05
6.78784e-05
-4.72948e-05
7.54742e-05
-4.84672e-05
8.24186e-05
-4.87131e-05
8.80469e-05
-4.81637e-05
9.04267e-05
-4.54883e-05
-4.05355e-05
8.91663e-05
-2.29806e-06
-2.91478e-05
1.98554e-06
-4.05612e-05
6.47905e-06
-4.04677e-05
7.97461e-06
-3.97996e-05
9.59725e-06
-3.96118e-05
1.15734e-05
-3.98337e-05
1.38845e-05
-4.02206e-05
1.64312e-05
-4.06966e-05
1.91691e-05
-4.12741e-05
2.21242e-05
-4.1962e-05
2.53201e-05
-4.27675e-05
2.88177e-05
-4.36913e-05
3.26984e-05
-4.48086e-05
3.71912e-05
-4.62564e-05
4.25596e-05
-4.8192e-05
4.89994e-05
-5.05756e-05
5.62919e-05
-5.30112e-05
6.37969e-05
-5.47999e-05
7.05504e-05
-5.52208e-05
7.55321e-05
-5.36948e-05
7.80697e-05
-5.07013e-05
7.58921e-05
-4.33108e-05
-3.73273e-05
7.26839e-05
1.69629e-06
-3.08441e-05
2.79709e-06
-4.1662e-05
3.77689e-06
-4.14476e-05
5.1504e-06
-4.11733e-05
6.90891e-06
-4.13705e-05
8.78174e-06
-4.17067e-05
1.07155e-05
-4.21546e-05
1.27521e-05
-4.27333e-05
1.49362e-05
-4.34583e-05
1.73132e-05
-4.43391e-05
1.99245e-05
-4.5379e-05
2.28697e-05
-4.66365e-05
2.63401e-05
-4.8279e-05
3.06412e-05
-5.05574e-05
3.60032e-05
-5.3554e-05
4.22806e-05
-5.68529e-05
4.88309e-05
-5.95614e-05
5.47324e-05
-6.07013e-05
5.91936e-05
-5.9682e-05
6.17663e-05
-5.62674e-05
6.24696e-05
-5.14046e-05
6.07896e-05
-4.16308e-05
-3.98987e-05
6.3361e-05
1.60387e-06
-3.24478e-05
2.11002e-06
-4.21678e-05
2.8583e-06
-4.21955e-05
3.97004e-06
-4.22847e-05
5.14427e-06
-4.25445e-05
6.37213e-06
-4.29344e-05
7.67363e-06
-4.34559e-05
9.07236e-06
-4.4132e-05
1.05865e-05
-4.49723e-05
1.2232e-05
-4.59846e-05
1.40581e-05
-4.72051e-05
1.61857e-05
-4.87642e-05
1.88372e-05
-5.09306e-05
2.2238e-05
-5.39584e-05
2.63524e-05
-5.76684e-05
3.07085e-05
-6.12091e-05
3.45993e-05
-6.34523e-05
3.75166e-05
-6.36188e-05
3.94467e-05
-6.16121e-05
4.08506e-05
-5.76713e-05
4.25416e-05
-5.30956e-05
4.64968e-05
-4.55859e-05
-4.7478e-05
5.40761e-05
1.44057e-06
-3.38884e-05
1.76595e-06
-4.24934e-05
2.19591e-06
-4.26257e-05
2.73726e-06
-4.28263e-05
3.32799e-06
-4.31354e-05
3.95705e-06
-4.35637e-05
4.6244e-06
-4.41234e-05
5.3181e-06
-4.48258e-05
6.02724e-06
-4.56816e-05
6.75029e-06
-4.67079e-05
7.51747e-06
-4.79724e-05
8.41857e-06
-4.96654e-05
9.57892e-06
-5.2091e-05
1.10269e-05
-5.54063e-05
1.25166e-05
-5.91581e-05
1.36363e-05
-6.23288e-05
1.41649e-05
-6.3981e-05
1.43371e-05
-6.37909e-05
1.47569e-05
-6.20319e-05
1.62779e-05
-5.91923e-05
1.93799e-05
-5.61975e-05
2.5992e-05
-5.2198e-05
-5.21493e-05
3.06633e-05
1.03861e-06
-3.49268e-05
1.10078e-06
-4.25552e-05
1.20415e-06
-4.27288e-05
1.31298e-06
-4.29349e-05
1.41974e-06
-4.3242e-05
1.506e-06
-4.36498e-05
1.55036e-06
-4.41677e-05
1.52736e-06
-4.48028e-05
1.40681e-06
-4.55611e-05
1.16576e-06
-4.64669e-05
8.00222e-07
-4.7607e-05
3.05834e-07
-4.91711e-05
-3.82251e-07
-5.1403e-05
-1.4486e-06
-5.43401e-05
-3.0726e-06
-5.75342e-05
-5.24879e-06
-6.01527e-05
-7.65513e-06
-6.15748e-05
-9.71488e-06
-6.17313e-05
-1.08381e-05
-6.09087e-05
-1.05596e-05
-5.94708e-05
-9.3613e-06
-5.73957e-05
-7.50434e-06
-5.40549e-05
-5.05379e-05
-9.11573e-06
5.70711e-07
-3.54976e-05
3.55695e-07
-4.23403e-05
1.31701e-07
-4.25049e-05
-1.20461e-07
-4.26828e-05
-4.25851e-07
-4.29367e-05
-8.06928e-07
-4.32687e-05
-1.29037e-06
-4.36843e-05
-1.91192e-06
-4.41813e-05
-2.71362e-06
-4.47594e-05
-3.73737e-06
-4.54432e-05
-5.03855e-06
-4.63058e-05
-6.73437e-06
-4.74752e-05
-9.03031e-06
-4.9107e-05
-1.21297e-05
-5.12406e-05
-1.60728e-05
-5.3591e-05
-2.06105e-05
-5.56151e-05
-2.52841e-05
-5.69013e-05
-2.96273e-05
-5.73883e-05
-3.32925e-05
-5.72436e-05
-3.64062e-05
-5.63571e-05
-3.96887e-05
-5.41132e-05
-4.27699e-05
-5.09736e-05
-4.73795e-05
-4.59282e-05
1.27496e-07
-3.56249e-05
-3.23205e-07
-4.18894e-05
-8.24534e-07
-4.20034e-05
-1.37782e-06
-4.21293e-05
-2.00384e-06
-4.23105e-05
-2.72538e-06
-4.2547e-05
-3.57168e-06
-4.2838e-05
-4.57852e-06
-4.31745e-05
-5.78816e-06
-4.35499e-05
-7.25012e-06
-4.39813e-05
-9.04186e-06
-4.45142e-05
-1.13142e-05
-4.5203e-05
-1.43037e-05
-4.61175e-05
-1.82257e-05
-4.73187e-05
-2.30944e-05
-4.87225e-05
-2.86608e-05
-5.00487e-05
-3.45455e-05
-5.10168e-05
-4.04026e-05
-5.15313e-05
-4.60032e-05
-5.1643e-05
-5.12038e-05
-5.11565e-05
-5.57745e-05
-4.95425e-05
-5.95192e-05
-4.72288e-05
-4.45414e-05
-6.23572e-05
-2.26647e-07
-3.53983e-05
-8.8153e-07
-4.12345e-05
-1.59944e-06
-4.12854e-05
-2.36825e-06
-4.13604e-05
-3.2061e-06
-4.14725e-05
-4.13317e-06
-4.16198e-05
-5.17382e-06
-4.17972e-05
-6.35552e-06
-4.19926e-05
-7.71066e-06
-4.21946e-05
-9.27976e-06
-4.24121e-05
-1.11202e-05
-4.26736e-05
-1.33303e-05
-4.29927e-05
-1.60797e-05
-4.33679e-05
-1.95704e-05
-4.38279e-05
-2.38924e-05
-4.44006e-05
-2.89175e-05
-4.50238e-05
-3.43688e-05
-4.55656e-05
-3.99548e-05
-4.59455e-05
-4.54284e-05
-4.61694e-05
-5.04457e-05
-4.61392e-05
-5.45072e-05
-4.5481e-05
-5.75637e-05
-4.41722e-05
-4.2433e-05
-5.96721e-05
-4.87834e-07
-3.49104e-05
-1.30822e-06
-4.0414e-05
-2.17222e-06
-4.04214e-05
-3.07597e-06
-4.04567e-05
-4.03449e-06
-4.0514e-05
-5.06308e-06
-4.05913e-05
-6.17769e-06
-4.06825e-05
-7.39408e-06
-4.07762e-05
-8.73021e-06
-4.08585e-05
-1.02105e-05
-4.09318e-05
-1.18623e-05
-4.10218e-05
-1.37148e-05
-4.11402e-05
-1.58282e-05
-4.12544e-05
-1.83239e-05
-4.13322e-05
-2.13256e-05
-4.13989e-05
-2.48437e-05
-4.15058e-05
-2.87486e-05
-4.16608e-05
-3.28618e-05
-4.18324e-05
-3.70402e-05
-4.19909e-05
-4.11156e-05
-4.20638e-05
-4.4616e-05
-4.19806e-05
-4.72743e-05
-4.15139e-05
-4.06407e-05
-4.90666e-05
-6.67147e-07
-3.42432e-05
-1.59981e-06
-3.94814e-05
-2.55403e-06
-3.94671e-05
-3.53416e-06
-3.94764e-05
-4.55138e-06
-3.94966e-05
-5.61632e-06
-3.95261e-05
-6.73831e-06
-3.95603e-05
-7.92425e-06
-3.95901e-05
-9.18041e-06
-3.96022e-05
-1.05189e-05
-3.95932e-05
-1.1955e-05
-3.95855e-05
-1.34886e-05
-3.96064e-05
-1.51039e-05
-3.9639e-05
-1.68139e-05
-3.96222e-05
-1.86897e-05
-3.95232e-05
-2.08119e-05
-3.93838e-05
-2.31959e-05
-3.9277e-05
-2.57871e-05
-3.92413e-05
-2.8511e-05
-3.92671e-05
-3.12593e-05
-3.93155e-05
-3.39184e-05
-3.93216e-05
-3.62167e-05
-3.92156e-05
-3.88655e-05
-3.7992e-05
-7.81949e-07
-3.34613e-05
-1.77758e-06
-3.8486e-05
-2.77738e-06
-3.84675e-05
-3.79121e-06
-3.84627e-05
-4.82651e-06
-3.84613e-05
-5.89026e-06
-3.84623e-05
-6.98794e-06
-3.84626e-05
-8.12204e-06
-3.8456e-05
-9.29231e-06
-3.84319e-05
-1.05027e-05
-3.83827e-05
-1.17671e-05
-3.8321e-05
-1.30935e-05
-3.82798e-05
-1.44584e-05
-3.8274e-05
-1.58169e-05
-3.82637e-05
-1.71568e-05
-3.81834e-05
-1.85271e-05
-3.80136e-05
-1.99976e-05
-3.78067e-05
-2.16027e-05
-3.76364e-05
-2.33308e-05
-3.75391e-05
-2.51418e-05
-3.75046e-05
-2.69636e-05
-3.74999e-05
-2.87157e-05
-3.74636e-05
-3.72833e-05
-3.02979e-05
-8.45353e-07
-3.2616e-05
-1.86386e-06
-3.74676e-05
-2.8755e-06
-3.74558e-05
-3.89259e-06
-3.74455e-05
-4.91998e-06
-3.74337e-05
-5.96195e-06
-3.74202e-05
-7.02182e-06
-3.74026e-05
-8.10062e-06
-3.73771e-05
-9.19591e-06
-3.73365e-05
-1.03058e-05
-3.72727e-05
-1.14392e-05
-3.71876e-05
-1.26146e-05
-3.71043e-05
-1.38348e-05
-3.70537e-05
-1.50639e-05
-3.70347e-05
-1.62489e-05
-3.69984e-05
-1.73725e-05
-3.68901e-05
-1.8473e-05
-3.67064e-05
-1.96091e-05
-3.65005e-05
-2.08146e-05
-3.63337e-05
-2.20887e-05
-3.62306e-05
-2.34158e-05
-3.6173e-05
-2.477e-05
-3.61095e-05
-3.59562e-05
-2.60972e-05
-8.68835e-07
-3.17473e-05
-1.88008e-06
-3.64566e-05
-2.87916e-06
-3.64569e-05
-3.87882e-06
-3.64458e-05
-4.88213e-06
-3.64304e-05
-5.89163e-06
-3.64106e-05
-6.90942e-06
-3.63847e-05
-7.93628e-06
-3.63501e-05
-8.97017e-06
-3.63024e-05
-1.0007e-05
-3.62358e-05
-1.1048e-05
-3.61464e-05
-1.21082e-05
-3.60439e-05
-1.32075e-05
-3.59544e-05
-1.43429e-05
-3.58994e-05
-1.54762e-05
-3.58652e-05
-1.6562e-05
-3.58045e-05
-1.75894e-05
-3.56791e-05
-1.85905e-05
-3.54995e-05
-1.96096e-05
-3.53148e-05
-2.06728e-05
-3.51677e-05
-2.17847e-05
-3.50612e-05
-2.29362e-05
-3.49581e-05
-3.47957e-05
-2.40968e-05
-8.62565e-07
-3.08848e-05
-1.84634e-06
-3.54729e-05
-2.81597e-06
-3.54873e-05
-3.78437e-06
-3.54775e-05
-4.7534e-06
-3.54613e-05
-5.72467e-06
-3.54392e-05
-6.69956e-06
-3.54097e-05
-7.6788e-06
-3.53708e-05
-8.66142e-06
-3.53197e-05
-9.64415e-06
-3.5253e-05
-1.06243e-05
-3.51661e-05
-1.16078e-05
-3.50603e-05
-1.26123e-05
-3.49499e-05
-1.36533e-05
-3.48584e-05
-1.47222e-05
-3.47963e-05
-1.5786e-05
-3.47409e-05
-1.68148e-05
-3.46504e-05
-1.78089e-05
-3.45056e-05
-1.87935e-05
-3.43304e-05
-1.97947e-05
-3.41666e-05
-2.08246e-05
-3.40315e-05
-2.18793e-05
-3.39034e-05
-3.37361e-05
-2.29389e-05
-8.34666e-07
-3.00503e-05
-1.77896e-06
-3.45287e-05
-2.70865e-06
-3.45575e-05
-3.63727e-06
-3.45487e-05
-4.56585e-06
-3.45326e-05
-5.49562e-06
-3.45093e-05
-6.42752e-06
-3.44777e-05
-7.36205e-06
-3.44361e-05
-8.2989e-06
-3.43828e-05
-9.23621e-06
-3.43156e-05
-1.01709e-05
-3.42313e-05
-1.11032e-05
-3.4128e-05
-1.20423e-05
-3.40108e-05
-1.30041e-05
-3.38966e-05
-1.3996e-05
-3.38044e-05
-1.50041e-05
-3.37329e-05
-1.60025e-05
-3.36521e-05
-1.69783e-05
-3.35301e-05
-1.79414e-05
-3.33674e-05
-1.89114e-05
-3.31968e-05
-1.98982e-05
-3.30447e-05
-2.08979e-05
-3.29038e-05
-3.27387e-05
-2.18952e-05
-7.92948e-07
-2.92574e-05
-1.69131e-06
-3.36304e-05
-2.57571e-06
-3.36731e-05
-3.46027e-06
-3.36641e-05
-4.34543e-06
-3.36474e-05
-5.23228e-06
-3.36224e-05
-6.12146e-06
-3.35885e-05
-7.01323e-06
-3.35443e-05
-7.90744e-06
-3.34886e-05
-8.80308e-06
-3.34199e-05
-9.69785e-06
-3.33365e-05
-1.05898e-05
-3.3236e-05
-1.14821e-05
-3.31185e-05
-1.23861e-05
-3.29927e-05
-1.33138e-05
-3.28768e-05
-1.42634e-05
-3.27833e-05
-1.52165e-05
-3.26992e-05
-1.61551e-05
-3.25917e-05
-1.70807e-05
-3.24421e-05
-1.80099e-05
-3.22678e-05
-1.8955e-05
-3.20997e-05
-1.99134e-05
-3.19453e-05
-3.17794e-05
-2.08726e-05
-7.45787e-07
-2.85116e-05
-1.59547e-06
-3.27806e-05
-2.43272e-06
-3.28358e-05
-3.27168e-06
-3.28251e-05
-4.11257e-06
-3.28064e-05
-4.95617e-06
-3.27788e-05
-5.80296e-06
-3.27417e-05
-6.65304e-06
-3.26943e-05
-7.50629e-06
-3.26353e-05
-8.36216e-06
-3.2564e-05
-9.21912e-06
-3.24796e-05
-1.00749e-05
-3.23803e-05
-1.09293e-05
-3.22642e-05
-1.17886e-05
-3.21334e-05
-1.2665e-05
-3.20004e-05
-1.35655e-05
-3.1883e-05
-1.44801e-05
-3.17849e-05
-1.53886e-05
-3.16833e-05
-1.62823e-05
-3.15486e-05
-1.71717e-05
-3.13785e-05
-1.80726e-05
-3.11989e-05
-1.89888e-05
-3.1029e-05
-3.08559e-05
-1.99122e-05
-6.99146e-07
-2.78125e-05
-1.49978e-06
-3.198e-05
-2.29013e-06
-3.20455e-05
-3.08347e-06
-3.20317e-05
-3.88021e-06
-3.20097e-05
-4.68061e-06
-3.19784e-05
-5.48504e-06
-3.19373e-05
-6.29358e-06
-3.18857e-05
-7.10613e-06
-3.18228e-05
-7.92236e-06
-3.17478e-05
-8.74153e-06
-3.16605e-05
-9.56197e-06
-3.15599e-05
-1.0382e-05
-3.14443e-05
-1.12033e-05
-3.13122e-05
-1.20347e-05
-3.11691e-05
-1.2887e-05
-3.10307e-05
-1.37605e-05
-3.09116e-05
-1.46398e-05
-3.08043e-05
-1.5509e-05
-3.06796e-05
-1.63691e-05
-3.05185e-05
-1.72337e-05
-3.03344e-05
-1.81117e-05
-3.01511e-05
-2.99678e-05
-1.89997e-05
-6.55098e-07
-2.71574e-05
-1.4075e-06
-3.12277e-05
-2.15182e-06
-3.13012e-05
-2.89999e-06
-3.12837e-05
-3.65259e-06
-3.12572e-05
-4.40963e-06
-3.12214e-05
-5.17132e-06
-3.11756e-05
-5.93777e-06
-3.11192e-05
-6.70892e-06
-3.10516e-05
-7.48457e-06
-3.09722e-05
-8.26442e-06
-3.08807e-05
-9.0477e-06
-3.07768e-05
-9.83286e-06
-3.06592e-05
-1.06192e-05
-3.05259e-05
-1.14108e-05
-3.03776e-05
-1.22174e-05
-3.02243e-05
-1.30456e-05
-3.00836e-05
-1.38883e-05
-2.99618e-05
-1.47292e-05
-2.98388e-05
-1.55611e-05
-2.96866e-05
-1.63928e-05
-2.95027e-05
-1.72353e-05
-2.93087e-05
-2.91135e-05
-1.80895e-05
-6.13413e-07
-2.6544e-05
-1.31876e-06
-3.05224e-05
-2.01755e-06
-3.06025e-05
-2.72075e-06
-3.05805e-05
-3.42875e-06
-3.05493e-05
-4.14172e-06
-3.05085e-05
-4.85978e-06
-3.04576e-05
-5.58308e-06
-3.0396e-05
-6.31161e-06
-3.03231e-05
-7.04526e-06
-3.02386e-05
-7.78396e-06
-3.01421e-05
-8.52745e-06
-3.00334e-05
-9.2749e-06
-2.99119e-05
-1.0025e-05
-2.97759e-05
-1.07788e-05
-2.96239e-05
-1.15426e-05
-2.94606e-05
-1.23251e-05
-2.93013e-05
-1.31264e-05
-2.91606e-05
-1.3934e-05
-2.90313e-05
-1.47359e-05
-2.88847e-05
-1.55346e-05
-2.8704e-05
-1.6341e-05
-2.85023e-05
-2.82946e-05
-1.716e-05
-5.74022e-07
-2.597e-05
-1.23346e-06
-2.9863e-05
-1.88687e-06
-2.99492e-05
-2.54492e-06
-2.99226e-05
-3.20762e-06
-2.98866e-05
-3.87547e-06
-2.98407e-05
-4.54864e-06
-2.97845e-05
-5.22731e-06
-2.97174e-05
-5.91156e-06
-2.9639e-05
-6.60142e-06
-2.95488e-05
-7.29691e-06
-2.94467e-05
-7.99801e-06
-2.93324e-05
-8.70439e-06
-2.92056e-05
-9.41505e-06
-2.90653e-05
-1.01294e-05
-2.89096e-05
-1.08506e-05
-2.87395e-05
-1.15864e-05
-2.85657e-05
-1.23418e-05
-2.84054e-05
-1.31101e-05
-2.8263e-05
-1.38782e-05
-2.81166e-05
-1.46426e-05
-2.79396e-05
-1.54117e-05
-2.77331e-05
-2.75132e-05
-1.61931e-05
-5.39003e-07
-2.54311e-05
-1.15356e-06
-2.92485e-05
-1.76153e-06
-2.93412e-05
-2.37379e-06
-2.93104e-05
-2.99044e-06
-2.92701e-05
-3.61207e-06
-2.92192e-05
-4.23899e-06
-2.91577e-05
-4.87136e-06
-2.90851e-05
-5.50937e-06
-2.9001e-05
-6.15317e-06
-2.89051e-05
-6.80287e-06
-2.87971e-05
-7.45851e-06
-2.86769e-05
-8.11999e-06
-2.85442e-05
-8.7867e-06
-2.83987e-05
-9.45771e-06
-2.82386e-05
-1.0134e-05
-2.80634e-05
-1.08211e-05
-2.78787e-05
-1.15265e-05
-2.77001e-05
-1.22493e-05
-2.75402e-05
-1.29786e-05
-2.73873e-05
-1.37061e-05
-2.72121e-05
-1.44361e-05
-2.7003e-05
-2.67719e-05
-1.51773e-05
-5.10212e-07
-2.49209e-05
-1.08078e-06
-2.86779e-05
-1.64292e-06
-2.87791e-05
-2.20859e-06
-2.87448e-05
-2.77847e-06
-2.87004e-05
-3.35298e-06
-2.86449e-05
-3.93247e-06
-2.85784e-05
-4.5171e-06
-2.85005e-05
-5.10704e-06
-2.84111e-05
-5.70251e-06
-2.83097e-05
-6.3037e-06
-2.81961e-05
-6.91069e-06
-2.807e-05
-7.52346e-06
-2.79316e-05
-8.1417e-06
-2.77805e-05
-8.76463e-06
-2.76158e-05
-9.39204e-06
-2.74361e-05
-1.00274e-05
-2.72435e-05
-1.06783e-05
-2.70493e-05
-1.13492e-05
-2.68693e-05
-1.20333e-05
-2.67031e-05
-1.27199e-05
-2.65254e-05
-1.34083e-05
-2.63145e-05
-2.60739e-05
-1.41062e-05
-4.84332e-07
-2.44365e-05
-1.01062e-06
-2.81517e-05
-1.52591e-06
-2.8264e-05
-2.04438e-06
-2.82265e-05
-2.56702e-06
-2.8178e-05
-3.09408e-06
-2.8118e-05
-3.62567e-06
-2.80469e-05
-4.16185e-06
-2.79645e-05
-4.70271e-06
-2.78704e-05
-5.24843e-06
-2.77641e-05
-5.79919e-06
-2.76454e-05
-6.35511e-06
-2.75142e-05
-6.91625e-06
-2.73706e-05
-7.48251e-06
-2.72144e-05
-8.0534e-06
-2.7045e-05
-8.62829e-06
-2.68613e-05
-9.20875e-06
-2.66631e-05
-9.8013e-06
-2.64569e-05
-1.04137e-05
-2.6257e-05
-1.1045e-05
-2.60716e-05
-1.16851e-05
-2.58852e-05
-1.23281e-05
-2.56714e-05
-2.54227e-05
-1.29791e-05
-4.4962e-07
-2.39869e-05
-9.28432e-07
-2.7673e-05
-1.39553e-06
-2.7797e-05
-1.86651e-06
-2.77558e-05
-2.34191e-06
-2.77028e-05
-2.82181e-06
-2.76384e-05
-3.30587e-06
-2.75631e-05
-3.79392e-06
-2.74766e-05
-4.28592e-06
-2.73785e-05
-4.78191e-06
-2.72682e-05
-5.282e-06
-2.71454e-05
-5.78625e-06
-2.70101e-05
-6.29475e-06
-2.68622e-05
-6.80757e-06
-2.67017e-05
-7.32453e-06
-2.65282e-05
-7.84506e-06
-2.6341e-05
-8.36939e-06
-2.6139e-05
-8.90185e-06
-2.59245e-05
-9.45115e-06
-2.57077e-05
-1.00221e-05
-2.55006e-05
-1.06083e-05
-2.52989e-05
-1.12006e-05
-2.50788e-05
-2.48231e-05
-1.18e-05
-3.872e-07
-2.35998e-05
-8.10918e-07
-2.72494e-05
-1.22975e-06
-2.73784e-05
-1.65383e-06
-2.73319e-05
-2.08261e-06
-2.72742e-05
-2.51591e-06
-2.72053e-05
-2.95308e-06
-2.71261e-05
-3.39373e-06
-2.70361e-05
-3.83769e-06
-2.69346e-05
-4.28488e-06
-2.6821e-05
-4.7353e-06
-2.6695e-05
-5.18893e-06
-2.65564e-05
-5.64583e-06
-2.64053e-05
-6.1061e-06
-2.62415e-05
-6.56977e-06
-2.60647e-05
-7.03655e-06
-2.58745e-05
-7.50602e-06
-2.56697e-05
-7.98016e-06
-2.54505e-05
-8.46606e-06
-2.52218e-05
-8.97194e-06
-2.49946e-05
-9.49724e-06
-2.47735e-05
-1.00331e-05
-2.45427e-05
-2.42799e-05
-1.0576e-05
-2.81268e-07
-2.33186e-05
-6.36397e-07
-2.68944e-05
-1.00922e-06
-2.70057e-05
-1.38823e-06
-2.6953e-05
-1.77133e-06
-2.68913e-05
-2.15822e-06
-2.68186e-05
-2.54827e-06
-2.67362e-05
-2.94117e-06
-2.66433e-05
-3.33679e-06
-2.6539e-05
-3.7351e-06
-2.64227e-05
-4.13609e-06
-2.6294e-05
-4.53976e-06
-2.61528e-05
-4.94618e-06
-2.5999e-05
-5.35545e-06
-2.58324e-05
-5.76768e-06
-2.56527e-05
-6.18278e-06
-2.54596e-05
-6.60029e-06
-2.52524e-05
-7.02049e-06
-2.50304e-05
-7.44743e-06
-2.47948e-05
-7.8893e-06
-2.45526e-05
-8.35068e-06
-2.43119e-05
-8.82627e-06
-2.40669e-05
-2.37963e-05
-9.30965e-06