/*--------------------------------*- C++ -*----------------------------------*\
| =========                 |                                                 |
| \\      /  F ield         | OpenFOAM: The Open Source CFD Toolbox           |
|  \\    /   O peration     | Version:  2206                                  |
|   \\  /    A nd           | Website:  www.openfoam.com                      |
|    \\/     M anipulation  |                                                 |
\*---------------------------------------------------------------------------*/
FoamFile
{
    version     2.0;
    format      ascii;
    arch        "LSB;label=32;scalar=64";
    class       volScalarField;
    location    "0.925";
    object      alpha.water;
}
// * * * * * * * * * * * * * * * * * * * * * * * * * * * * * * * * * * * * * //

dimensions      [0 0 0 0 0 0 0];

internalField   nonuniform List<scalar> 
2268
(
1
1
1
1
1
1
1
1
1
1
1
1
1
1
1
1
1
1
1
0.999998
0.999998
0.999997
0.988894
1
1
1
1
1
1
1
1
1
1
1
1
1
1
1
1
1
1
1
0.999999
0.999998
0.999999
0.998711
1
1
1
1
1
1
1
1
1
1
1
1
1
1
1
1
1
1
1
1
1
1
0.955236
1
1
1
1
1
1
1
1
1
1
1
1
1
1
1
1
1
1
1
1
1
0.960488
0.920314
1
1
1
1
1
1
1
1
1
1
1
1
1
1
1
1
1
1
1
1
0.999997
0.960131
0.920314
1
1
0.999999
0.999998
0.999999
1
1
1
1
1
1
1
1
1
1
1
1
1
1
1
1
0.993271
0.956649
1
0.99998
0.999928
0.999918
0.999942
0.99997
0.999986
0.999994
0.999997
0.999999
1
1
1
1
1
1
1
1
1
1
1
0.999999
0.99966
0.7231
0.703436
0.709799
0.731864
0.770538
0.824506
0.883409
0.934487
0.972205
0.994643
0.999965
0.999996
1
1
1
1
1
1
1
1
0.994327
0.996458
0.999297
0.404834
0.405237
0.40609
0.406539
0.40622
0.287702
0.039869
0.044642
0.0520718
0.046216
0.143929
0.405335
0.40846
0.41246
0.413616
0.429739
0.429762
0.429761
0.429762
0.388292
0.279183
0.365118
0.40609
0.342645
0.100789
0.0178492
0.0169507
0.0169687
0.0180981
0.0263483
0.0549002
0.26311
0.196628
0.0747569
0.105389
0.314063
0.429761
0.429759
0.0395794
0.0141126
0.0316346
0.144264
0.0886037
0.0178492
0.0169507
0.0168444
0.0168505
0.0169238
0.0978222
0.0978444
0.00458557
0.00211995
0.00208993
0.0021709
0.0385921
0.362373
0.429681
0.0141126
0.0136955
0.0137081
0.0137081
0.0213838
0.0676771
0.0659336
0.0168876
0.0168429
0.0956815
0.095276
0.015505
0.00214494
0.0020898
0.00209034
0.00505138
0.00503348
0.147036
0.372614
0.0152486
0.0141126
0.0189112
0.0611657
0.0449138
0.0850767
0.0831413
0.0820192
0.0569399
0.0452309
0.015689
0.00240826
0.00243353
0.00303685
0.00211095
0.00216247
0.00451373
0.0625696
0.333491
0.0612462
0.0771156
0.0927596
0.0908864
0.0892037
0.0870876
0.0850767
0.0479617
0.00888507
0.00145466
0.00116869
0.00232478
0.00315872
0.00316793
0.00305301
0.00220735
0.00539004
0.0947561
0.341699
0.097656
0.0971523
0.0957628
0.0932703
0.0797035
0.0284828
0.00916264
0.0041442
0.00157386
0.000962971
0.00091441
0.00210249
0.00316508
0.00269019
0.00101007
0.00119616
0.0177312
0.0769009
0.341896
0.097656
0.097656
0.0943746
0.0262539
0.00287693
0.00157172
0.0015213
0.00307166
0.00151229
0.000894627
0.00089034
0.000917575
0.00148756
4.63723e-05
1.29239e-05
0.00169469
0.00745442
0.0708579
0.206716
1.74996e-10
9.90932e-09
2.93031e-17
0.0020147
0.0185479
0.0454102
0.0947014
0.172509
0.290288
0.477794
0.704365
0.82892
0.878837
0.910644
0.937669
0.959337
0.970728
0.974349
0.974013
0.961602
0.915949
0.945238
0.999205
9.1177e-12
2.95193e-17
-5.92489e-24
-2.07735e-25
2.83254e-19
4.29828e-17
8.91734e-16
9.81365e-15
7.37358e-14
1.15973e-12
2.54313e-11
0.0448744
0.112112
0.198264
0.293638
0.378157
0.421302
0.4386
0.484859
0.543789
0.540215
0.48703
0.520304
9.11768e-12
-8.44801e-27
-2.75126e-16
-8.73276e-17
-1.83812e-25
2.83004e-19
4.2981e-17
8.85002e-16
9.81152e-15
7.37358e-14
1.09496e-12
0
-1.7606e-07
-1.06462e-08
-1.21245e-20
0.000240297
0.00174557
0.00419141
0.0098396
0.0247493
0.0324642
0.0242307
0.0419516
1.07061e-09
1.32845e-30
-4.12346e-16
-1.56977e-16
7.26932e-18
1.9806e-15
4.07788e-14
3.52709e-13
1.88362e-12
2.09199e-11
8.04401e-11
1.29949e-09
1.07638e-07
1.76e-07
5.74932e-07
5.94097e-05
0.000114747
0.000139496
0.000294957
0.000734054
0.0013523
0.00182287
0.00325776
2.78452e-08
-4.04878e-18
-4.59099e-16
-2.11224e-16
3.34317e-17
1.52012e-15
5.56076e-14
1.05771e-12
4.57223e-12
1.07073e-11
1.20628e-10
1.48761e-09
1.89102e-08
1.40929e-06
6.43001e-06
1.76627e-05
2.38661e-05
3.62594e-05
7.32306e-05
0.000158868
0.000311884
0.000516144
0.000988952
6.24297e-08
2.55854e-09
-1.95237e-16
-5.4332e-17
4.80564e-18
1.27028e-15
8.99472e-14
2.68268e-12
1.53511e-11
2.54104e-11
1.58422e-10
1.18861e-09
1.09155e-08
2.87566e-07
4.11387e-06
5.19328e-06
4.07337e-06
6.59287e-06
1.37217e-05
3.29644e-05
6.57761e-05
0.000131869
0.000236394
6.24427e-08
4.85001e-09
-3.08149e-35
2.56057e-18
2.46198e-17
7.36936e-16
1.99129e-14
4.35319e-13
5.1602e-12
2.57155e-11
9.7027e-11
5.40632e-10
4.48928e-09
2.33992e-07
8.35516e-07
6.63383e-07
6.24191e-07
1.01921e-06
2.09812e-06
5.38728e-06
1.2229e-05
2.50971e-05
4.36993e-05
6.24255e-08
5.65196e-19
6.52854e-19
3.07327e-18
2.41295e-17
6.47196e-16
1.38563e-14
2.29073e-13
2.91355e-12
2.1616e-11
7.61049e-11
1.61694e-10
3.60372e-09
3.42657e-08
3.55093e-08
3.47716e-08
8.37272e-08
1.35797e-07
3.04147e-07
8.24563e-07
2.09871e-06
4.31552e-06
7.59388e-06
6.3284e-08
5.63946e-19
1.43414e-18
9.39239e-19
8.05217e-18
2.45903e-16
4.87445e-15
7.04647e-14
8.03834e-13
6.90679e-12
3.8471e-11
1.44001e-10
4.68774e-10
9.00777e-10
1.61104e-09
4.66745e-09
1.03922e-08
2.01316e-08
4.75001e-08
1.31717e-07
3.39244e-07
7.0042e-07
1.17799e-06
6.38193e-08
6.05176e-19
7.29518e-17
1.96971e-19
2.09526e-18
6.06045e-17
1.09869e-15
1.4551e-14
1.4736e-13
1.19648e-12
7.95728e-12
3.93186e-11
1.03064e-10
1.44005e-10
2.69289e-10
7.46736e-10
1.38018e-09
2.87521e-09
7.21355e-09
2.03964e-08
5.23669e-08
1.06609e-07
1.70236e-07
6.38337e-08
6.88051e-17
5.33838e-16
6.34272e-20
3.87282e-19
1.06883e-17
1.77682e-16
2.10586e-15
1.9331e-14
1.45473e-13
9.44953e-13
5.38497e-12
2.45319e-11
6.93527e-11
1.09978e-10
1.32801e-10
2.34125e-10
4.07969e-10
1.07256e-09
3.07021e-09
7.8452e-09
1.56878e-08
2.38863e-08
6.0956e-08
6.26927e-17
5.66883e-16
3.75083e-20
5.57398e-20
1.52917e-18
2.26378e-17
2.46078e-16
2.15745e-15
1.6062e-14
1.05702e-13
6.49273e-13
3.87121e-12
1.90014e-11
4.8905e-11
6.24499e-11
4.61287e-11
7.18918e-11
1.65669e-10
4.60962e-10
1.18614e-09
2.3699e-09
3.52463e-09
1.45323e-08
8.38815e-17
3.54815e-16
1.11686e-20
7.22869e-21
1.88632e-19
2.57939e-18
2.71198e-17
2.38755e-16
1.84555e-15
1.28948e-14
8.44298e-14
5.47269e-13
3.21653e-12
1.19032e-11
2.10354e-11
2.13941e-11
2.49904e-11
3.63287e-11
8.49391e-11
2.38108e-10
5.0514e-10
8.74144e-10
1.54949e-16
1.35477e-16
1.43596e-16
4.41916e-21
8.32519e-22
2.17412e-20
2.89667e-19
3.0473e-18
2.75536e-17
2.23653e-16
1.66521e-15
1.15958e-14
7.75106e-14
4.57677e-13
1.76322e-12
3.71605e-12
5.15133e-12
6.31601e-12
1.10436e-11
2.72662e-11
6.8298e-11
2.54512e-10
5.12179e-10
4.4048e-11
6.00187e-14
6.32705e-17
2.35763e-21
1.12094e-22
2.44548e-21
3.26654e-20
3.48903e-19
3.26266e-18
2.77452e-17
2.17215e-16
1.57863e-15
1.06564e-14
6.01471e-14
2.20247e-13
4.73417e-13
7.18102e-13
1.04372e-12
2.15412e-12
6.04245e-12
1.79526e-11
7.15281e-11
3.43546e-10
6.54183e-11
1.89508e-13
5.28008e-17
2.09099e-21
4.23985e-23
2.52483e-22
3.6096e-21
3.96445e-20
3.84394e-19
3.40014e-18
2.7646e-17
2.05891e-16
1.3813e-15
7.43369e-15
2.59968e-14
5.70235e-14
9.76757e-14
1.81726e-13
5.55234e-13
2.26933e-12
8.21092e-12
6.38408e-11
4.93732e-10
4.44587e-11
2.03033e-13
4.66168e-17
2.82031e-21
3.62681e-23
1.87612e-23
3.8334e-22
4.33391e-21
4.37232e-20
4.01478e-19
3.35526e-18
2.53559e-17
1.67487e-16
8.60968e-16
2.95781e-15
7.12901e-15
1.61744e-14
5.44405e-14
3.58405e-13
2.30345e-12
8.18474e-12
6.09947e-11
4.96905e-10
1.96174e-11
1.84928e-13
3.23126e-17
5.73497e-21
4.90553e-23
3.03294e-24
3.79113e-23
4.50707e-22
4.70684e-21
4.48685e-20
3.84624e-19
2.92755e-18
1.89725e-17
9.43404e-17
3.35717e-16
1.00688e-15
3.71312e-15
2.45371e-14
2.47551e-13
2.68006e-12
2.12141e-11
9.4985e-11
2.98096e-10
9.32455e-12
1.57354e-13
1.35066e-17
1.31055e-20
1.23802e-22
1.80661e-24
3.29023e-24
4.41133e-23
4.77609e-22
4.70062e-21
4.13541e-20
3.1645e-19
2.02448e-18
1.00535e-17
3.97379e-17
1.61074e-16
1.00426e-15
1.07453e-14
1.40158e-13
1.80425e-12
1.74372e-11
8.91059e-11
2.02703e-10
5.46005e-12
1.38829e-13
2.70596e-18
3.24371e-20
3.71286e-22
1.63289e-24
3.11034e-25
4.08032e-24
4.54125e-23
4.61293e-22
4.1593e-21
3.21498e-20
2.0582e-19
1.06031e-18
4.86033e-18
2.66137e-17
2.43139e-16
3.21857e-15
4.43547e-14
5.64843e-13
5.77724e-12
3.91271e-11
1.3072e-10
3.93752e-12
1.28657e-13
2.27517e-18
7.86124e-20
1.02047e-21
4.52862e-24
1.25073e-25
3.37475e-25
4.03451e-24
4.22189e-23
3.90446e-22
3.07184e-21
2.00096e-20
1.09959e-19
5.89039e-19
4.10734e-18
4.42335e-17
5.72695e-16
7.1964e-15
8.27769e-14
8.17069e-13
6.39691e-12
3.59558e-11
3.35866e-12
1.22283e-13
4.76375e-18
1.82942e-19
2.6282e-21
1.43353e-23
1.06693e-25
2.44819e-26
3.30565e-25
3.57044e-24
3.40659e-23
2.74758e-22
1.84652e-21
1.09415e-20
6.71877e-20
5.47017e-19
6.05781e-18
7.24303e-17
8.27377e-16
8.71215e-15
8.2558e-14
6.99615e-13
5.65084e-12
3.22689e-12
1.19803e-13
2.19972e-17
5.05367e-19
9.18562e-21
3.94452e-23
2.08497e-25
6.56405e-27
2.39791e-26
2.7665e-25
2.74016e-24
2.28089e-23
1.59487e-22
1.01091e-21
6.88077e-21
6.11197e-20
6.81587e-19
7.96933e-18
8.90073e-17
9.28449e-16
9.07066e-15
8.20129e-14
7.77744e-13
3.27366e-12
1.23297e-13
1.36118e-16
2.55741e-18
6.18127e-20
1.77023e-22
5.07194e-25
5.38052e-27
1.31011e-27
1.93726e-26
2.01029e-25
1.74107e-24
1.27191e-23
8.5454e-23
6.25957e-22
5.85486e-21
6.6275e-20
7.80458e-19
8.85314e-18
9.5955e-17
9.88577e-16
9.34185e-15
8.97226e-14
3.5281e-12
1.5579e-13
1.03672e-15
2.14305e-17
5.1014e-19
1.85746e-21
1.69965e-24
8.16302e-27
1.36212e-28
1.20395e-27
1.33585e-26
1.2177e-25
9.33693e-25
6.62259e-24
5.13078e-23
4.96994e-22
5.69991e-21
6.81998e-20
8.01629e-19
9.0182e-18
9.48562e-17
9.08314e-16
8.53775e-15
4.31232e-12
3.85058e-13
8.45073e-15
2.1206e-16
4.18808e-18
1.96819e-20
2.03232e-23
4.8295e-27
4.49373e-29
6.3222e-29
8.03191e-28
7.82121e-27
6.33825e-26
4.7498e-25
3.85722e-24
3.83078e-23
4.45559e-22
5.50171e-21
6.59824e-20
7.44719e-19
7.74623e-18
7.52718e-17
7.03927e-16
6.05232e-12
1.21581e-12
6.28872e-14
2.03838e-15
3.94032e-17
2.24259e-19
2.57441e-22
9.42972e-27
1.58596e-29
3.84052e-30
4.06791e-29
4.62204e-28
4.0052e-27
3.1824e-26
2.69851e-25
2.73966e-24
3.21769e-23
3.99342e-22
4.41974e-21
4.59459e-20
4.46005e-19
4.80049e-18
4.92825e-17
6.97357e-12
2.74239e-12
3.42287e-13
1.57879e-14
3.16497e-16
2.98819e-18
2.71784e-21
8.86219e-26
7.66945e-29
3.68308e-30
3.52564e-30
2.43191e-29
2.31684e-28
2.01148e-27
1.77711e-26
1.82737e-25
1.84968e-24
1.87731e-23
7.71794e-23
7.12994e-22
5.92086e-21
4.2218e-20
2.20592e-18
6.98372e-12
4.38672e-12
9.98393e-13
7.74769e-14
1.99403e-15
2.60079e-17
7.95768e-20
4.29602e-24
1.20641e-26
3.17925e-29
3.52564e-30
4.07648e-30
1.12965e-29
1.08274e-28
1.09311e-27
1.00811e-26
3.33716e-26
4.3881e-25
0
-3.02237e-21
-5.95569e-20
-1.15025e-20
0
6.28076e-12
4.55758e-12
1.6083e-12
1.88059e-13
6.47286e-15
1.21726e-16
1.14668e-18
5.55364e-22
2.5096e-24
1.63989e-26
1.03893e-28
1.10117e-29
1.74817e-29
1.49422e-29
6.18389e-29
3.9919e-28
-9.64194e-26
-3.71635e-24
-2.68346e-22
-5.42898e-21
-7.1491e-20
-3.14984e-19
-4.61467e-19
3.94383e-12
4.01969e-12
1.67092e-12
2.29692e-13
9.63626e-15
2.47156e-16
5.1906e-18
5.1667e-20
2.02659e-22
2.15955e-24
2.53524e-26
2.57494e-28
1.49422e-29
1.12505e-29
3.65483e-30
0
-1.62684e-25
-3.97707e-24
-1.92367e-22
-3.39178e-21
-3.84645e-20
-1.78701e-19
-4.56015e-19
1.44312e-12
2.93768e-12
1.37331e-12
1.96887e-13
8.57509e-15
2.61905e-16
8.4437e-18
1.94307e-19
2.93953e-21
2.70312e-23
1.97693e-25
2.46224e-27
3.68601e-29
2.75685e-30
1.24712e-31
-2.55728e-28
-9.89689e-26
-2.37869e-24
-1.06539e-22
-1.70354e-21
-1.6794e-20
-7.32915e-20
-2.03605e-19
3.36908e-13
1.61523e-12
7.61777e-13
1.03646e-13
4.67594e-15
1.82464e-16
7.70478e-18
2.35586e-19
5.23242e-21
9.53356e-23
1.46279e-24
1.96904e-26
2.27366e-28
2.35694e-30
2.66412e-32
-1.99486e-28
-5.03675e-26
-1.23095e-24
-5.25065e-23
-7.64403e-22
-6.57903e-21
-2.56305e-20
-7.32613e-20
6.67755e-14
6.19438e-13
2.60724e-13
3.20192e-14
1.56765e-15
7.61447e-17
3.94671e-18
1.58255e-19
4.77197e-21
1.15074e-22
2.2912e-24
3.85683e-26
5.969e-28
9.0268e-30
2.08332e-32
-1.12526e-28
-2.35185e-26
-5.87669e-25
-2.37406e-23
-3.14957e-22
-2.38157e-21
-7.96489e-21
-2.48711e-20
1.31219e-14
1.66703e-13
6.27059e-14
7.25827e-15
3.95624e-16
2.20583e-17
1.20189e-18
5.32884e-20
1.95125e-21
5.87313e-23
1.48972e-24
3.31296e-26
6.67864e-28
1.24137e-29
1.27354e-31
-5.64322e-29
-1.02586e-26
-2.61945e-25
-9.92455e-24
-1.20083e-22
-8.03033e-22
-2.22011e-21
-8.81583e-21
2.47876e-15
3.46076e-14
1.24799e-14
1.39659e-15
8.21532e-17
4.97667e-18
2.75402e-19
1.24494e-20
4.75055e-22
1.57268e-23
4.55575e-25
1.18473e-26
2.7527e-28
5.82144e-30
7.9831e-32
-2.59739e-29
-4.18849e-27
-1.08996e-25
-3.83962e-24
-4.23971e-23
-2.52082e-22
-5.58844e-22
-3.38114e-21
4.27099e-16
6.04397e-15
2.14177e-15
2.27892e-16
1.42434e-17
9.10487e-19
5.11422e-20
2.37378e-21
9.33848e-23
3.16785e-24
9.40583e-26
2.49144e-27
6.03941e-29
1.34885e-30
1.93026e-32
-1.10225e-29
-1.59657e-27
-4.21799e-26
-1.37222e-24
-1.38311e-23
-7.33791e-23
-1.29596e-22
-1.3266e-21
6.58684e-17
9.17086e-16
3.13907e-16
3.15355e-17
2.10046e-18
1.39112e-19
7.90343e-21
3.7487e-22
1.51171e-23
5.24251e-25
1.58549e-26
4.25971e-28
1.03874e-29
2.27482e-31
2.51963e-33
-4.30804e-30
-5.65966e-28
-1.51082e-26
-4.51706e-25
-4.15605e-24
-1.97157e-23
-2.83785e-23
-4.88679e-22
9.13074e-18
1.23003e-16
3.98699e-17
3.82386e-18
2.71518e-19
1.83643e-20
1.05016e-21
5.03824e-23
2.05587e-24
7.20585e-26
2.19797e-27
5.93283e-29
1.44536e-30
2.9827e-32
1.59877e-34
-1.54744e-30
-1.85805e-28
-4.98703e-27
-1.36552e-25
-1.1471e-24
-4.86918e-24
-5.92069e-24
-1.61447e-22
1.09389e-18
1.49815e-17
4.52202e-18
4.22598e-19
3.16532e-20
2.15638e-21
1.23164e-22
5.9094e-24
2.40759e-25
8.41147e-27
2.55273e-28
6.83278e-30
1.64279e-31
3.10038e-33
-4.99204e-34
-5.0977e-31
-5.6305e-29
-1.51001e-27
-3.78069e-26
-2.89918e-25
-1.10121e-24
-1.16355e-24
-4.78268e-23
9.2208e-20
1.71619e-18
4.79439e-19
4.45424e-20
3.44263e-21
2.32953e-22
1.31509e-23
6.23276e-25
2.50395e-26
8.6053e-28
2.56307e-29
6.71252e-31
1.57282e-32
2.98136e-34
-4.58601e-34
-1.53581e-31
-1.56862e-29
-4.17659e-28
-9.55727e-27
-6.6879e-26
-2.27417e-25
-2.11414e-25
-1.2893e-23
8.71199e-20
1.02571e-19
2.66255e-20
2.42732e-21
1.89445e-22
1.26e-23
6.96768e-25
3.23158e-26
1.2693e-27
4.25723e-29
1.23466e-30
3.14062e-32
7.12573e-34
1.33654e-35
-1.71649e-34
-4.24301e-32
-4.02392e-30
-1.05583e-28
-2.20999e-27
-1.41156e-26
-4.29427e-26
-3.50241e-26
-3.13879e-24
0.605224
0.133033
0.125989
0.116037
0.377331
0.166355
0.0849612
0.0627576
0.0700031
0.117752
0.0594138
0.0103291
0.00453976
0.0175294
0.0153102
0.00115645
0.00126466
0.00101078
0.000217901
3.76015e-05
0.000289898
0.000213467
5.56913e-05
2.8049e-05
5.66829e-05
4.20627e-05
1.66369e-05
1.27938e-05
9.26405e-06
5.74985e-06
1.66085e-06
2.34333e-07
1.32653e-06
6.70186e-07
1.29986e-07
7.49415e-08
1.7648e-07
7.82062e-08
2.10524e-08
4.68388e-08
2.31257e-08
9.7438e-09
5.79148e-09
2.13232e-08
3.43298e-09
1.84318e-09
2.05829e-09
5.97165e-09
1.09804e-09
1.00542e-09
1.15244e-09
1.89343e-09
8.41177e-10
1.00548e-09
1.00545e-09
1.13387e-09
6.05539e-10
1.00548e-09
-8.56535e-09
2.39279e-09
5.86362e-09
6.14159e-08
6.9833e-07
1.88926e-05
6.15973e-09
7.56184e-08
9.34345e-07
7.43988e-05
2.89289e-09
3.65536e-08
5.05361e-07
0.000106728
2.87902e-09
7.7095e-08
1.44213e-06
7.12878e-05
2.23499e-09
3.74448e-08
7.25328e-07
4.86399e-06
1.60581e-10
2.0979e-10
7.7355e-09
1.53331e-07
6.43809e-12
7.10447e-11
1.12278e-09
2.72118e-08
3.85265e-12
8.73059e-12
1.74465e-10
4.08696e-09
9.95847e-13
1.72522e-12
2.39933e-11
5.20207e-10
1.13633e-13
4.0302e-13
2.86053e-12
5.70845e-11
8.12638e-15
4.78665e-14
2.96541e-13
5.43745e-12
5.724e-16
4.42906e-15
5.07991e-14
5.46038e-13
3.43239e-17
2.82707e-16
5.04315e-13
5.52854e-13
1.20216e-18
1.18181e-16
2.74063e-13
8.58542e-13
0
6.08176e-16
1.07002e-13
7.57903e-13
-3.49976e-19
1.75492e-15
5.66487e-14
3.1216e-13
-2.48665e-19
1.92858e-15
1.89087e-14
7.454e-14
-1.10327e-19
1.16579e-15
2.94635e-15
1.3806e-14
-9.12124e-20
1.87627e-16
1.50724e-16
1.38551e-15
-9.92546e-20
2.85599e-18
1.1053e-18
1.69839e-17
-9.09521e-20
-2.91774e-18
-1.01413e-17
-3.41434e-18
-6.65155e-20
-4.02948e-18
-8.77061e-18
-8.31305e-18
-3.98204e-20
-2.45804e-18
-4.15744e-18
-3.47467e-18
-1.98261e-20
-1.13059e-18
-1.47232e-18
-9.54544e-19
-8.15789e-21
-4.23217e-19
-4.08488e-19
-1.91784e-19
-2.71855e-21
-1.27354e-19
-8.65555e-20
-2.75768e-20
-7.18487e-22
-2.97696e-20
-1.33994e-20
-2.71851e-21
0.0962207
0.091927
0.0635748
0.00962533
0.00125713
0.00103399
0.00120659
0.00316681
0.00197872
0.00089034
0.00089034
0.00186544
0.000222691
1.29238e-05
1.14978e-05
0.00072705
3.20357e-05
0.0509838
0.043983
0.0335462
0.0167831
0.0325674
0.0339728
0.00263684
0.000955949
0.000930861
0.00182789
0.00153514
0.000894627
0.00090148
0.00224223
0.0009731
1.14972e-05
1.09993e-05
1.14978e-05
1.19072e-05
0.0145359
0.0389346
0.000138005
0.000303801
0.0108921
0.0346822
0.0207658
0.000930861
0.000908928
0.000900818
0.000903846
0.00090423
0.00244615
0.00234531
0.000537474
1.09885e-05
1.09993e-05
9.48043e-06
7.17684e-06
0.00438641
0.122114
5.23e-05
3.47433e-05
0.000749035
0.0176819
0.0347651
0.0261376
0.000900833
0.000893892
0.000899816
0.00173894
0.00318113
0.00183951
2.3947e-05
2.19532e-05
1.01596e-05
7.17684e-06
6.3545e-06
0.0058173
0.122114
4.40583e-05
6.936e-06
3.47374e-05
0.00178823
0.0357303
0.0411612
0.00380835
0.000893103
0.00091357
0.00318475
0.0031854
3.41907e-05
2.97259e-05
6.29397e-05
5.71344e-05
6.5329e-06
6.31691e-06
0.021842
0.110438
5.77479e-05
6.1017e-06
5.47875e-06
0.000658293
0.0285394
0.0412595
0.0361708
0.000893892
0.00270505
0.00318915
0.00166605
3.56945e-05
3.46563e-05
6.51371e-05
6.50857e-05
1.81623e-05
6.3545e-06
0.0562595
0.170467
4.65493e-06
1.73164e-06
2.17349e-06
0.000358789
0.0235665
0.0411612
0.0412595
0.0333343
0.00969795
0.00183456
3.98291e-05
3.81373e-05
3.80652e-05
4.83767e-05
6.51197e-05
1.6576e-05
1.65221e-06
0.0472576
0.203738
3.10411e-07
3.66332e-07
2.88143e-06
6.96484e-05
0.00882499
0.0347704
0.0387604
0.00965986
5.34569e-05
4.62826e-05
4.04937e-05
3.67574e-05
2.91784e-05
2.91849e-05
4.31272e-05
1.6476e-05
1.75047e-05
0.0234719
0.203738
1.75511e-07
3.74562e-07
1.71377e-05
0.00119919
0.00218108
0.00208692
0.00280326
0.00196423
0.000300313
5.34569e-05
4.32131e-05
4.80621e-05
2.91784e-05
2.91784e-05
2.69034e-05
2.4964e-05
4.7689e-05
0.0146812
0.203738
7.15309e-08
3.61251e-07
7.85063e-05
0.000583106
0.000453476
0.00215052
0.00315161
0.000118186
8.30114e-05
6.05897e-05
0.000163277
0.000342107
3.04746e-05
2.6896e-05
2.35047e-05
6.39526e-05
8.81594e-05
0.012736
0.203734
4.13425e-08
1.02557e-06
3.60814e-05
3.74052e-05
0.000229441
0.00210114
0.00274877
0.000119825
0.00010868
0.000129188
0.00113831
0.00141151
0.000323546
2.34787e-05
2.16218e-05
2.35047e-05
3.79842e-05
0.0110194
0.203695
2.06079e-08
2.25917e-07
4.17405e-06
1.06404e-05
0.000167846
0.00180433
0.00220831
0.000141071
0.000104372
0.000476935
0.00142174
0.00142681
0.00135404
2.16008e-05
1.88795e-05
2.16217e-05
3.04125e-05
0.0101511
0.203389
6.68253e-09
3.49154e-08
2.6743e-07
2.33434e-06
9.82836e-05
0.00135516
0.00211895
0.000110803
6.74211e-05
0.000620609
0.00142523
0.00141151
0.00138944
5.39693e-05
1.57776e-05
1.86449e-05
3.6328e-05
0.0139074
0.173847
2.52012e-09
9.32281e-09
5.30649e-08
4.28238e-07
4.97768e-05
0.000670226
0.00186931
0.000367247
5.05655e-05
0.000325752
0.00126471
0.00138944
0.00136846
0.000358793
1.41431e-05
1.55424e-05
0.000292929
0.0153827
0.00454249
9.78296e-05
0.00047662
0.000339276
2.28153e-06
4.69102e-06
8.72442e-05
0.00166346
0.00113433
4.80507e-05
5.77876e-05
7.83634e-05
0.000819228
0.00135449
0.00101092
1.35622e-05
1.52892e-05
1.5546e-05
0.0152104
0.00432122
0.000598516
0.00107619
0.00108088
0.000413338
1.24327e-05
2.10021e-05
0.000977875
0.00153144
4.91965e-05
4.80461e-05
4.99813e-05
5.07903e-05
0.00132417
0.00059155
1.25406e-05
1.31124e-05
1.42337e-05
0.0145654
0.00429014
0.000847691
0.00108171
0.000589871
0.00021364
2.0481e-05
1.87266e-05
3.8272e-05
0.000822831
0.000476507
4.67863e-05
4.93554e-05
5.30762e-05
0.000836161
9.61779e-05
4.684e-06
9.42569e-06
1.23525e-05
0.0136809
0.00443343
0.000732321
0.000678197
3.59185e-05
2.74405e-05
2.87861e-05
1.87266e-05
1.87266e-05
3.03644e-05
6.6329e-05
4.40482e-05
4.67863e-05
0.000163555
0.000136398
4.45069e-05
2.0358e-06
1.40979e-05
4.79408e-05
0.00448839
0.00537386
0.000643982
0.000679563
8.53151e-05
2.73312e-05
0.000112481
5.86662e-05
0.000105974
0.00013096
9.03493e-05
3.16024e-05
9.29735e-05
0.000338908
0.000242856
1.60526e-05
6.96975e-07
1.92751e-05
1.93957e-05
3.03317e-05
0.115807
0.000342622
0.000682842
6.56911e-05
3.7203e-06
4.74781e-05
0.00018436
0.000186756
0.000186265
0.000186499
2.1508e-05
0.000214563
0.000338908
0.000338908
3.27308e-05
2.65176e-08
8.32945e-06
6.81367e-06
6.90417e-05
0.249774
6.68069e-06
9.68165e-05
3.66331e-05
2.85308e-06
8.24398e-08
9.73162e-08
8.13816e-05
0.000165926
3.02319e-05
1.90117e-05
9.01756e-05
0.000338908
4.22351e-05
1.63887e-08
4.78958e-09
1.28642e-06
4.45915e-09
0.00626866
0.249774
3.92793e-07
4.58998e-07
3.01513e-06
1.3726e-06
6.14596e-08
8.20434e-08
2.73065e-05
6.6316e-06
4.89395e-06
1.85506e-05
1.77658e-05
1.79312e-05
1.63887e-08
4.78959e-09
4.49539e-09
4.45915e-09
4.45915e-09
0.0100886
0.249774
6.09632e-08
4.73841e-08
1.3726e-07
5.63023e-08
5.95836e-08
6.3055e-08
1.88029e-05
1.59018e-05
4.2313e-06
2.84301e-05
1.6328e-05
1.73458e-06
8.85659e-07
1.9818e-08
3.47015e-09
4.49539e-09
4.45915e-09
0.0121586
0.249774
7.63772e-09
1.2498e-08
4.6163e-08
5.56154e-08
6.61698e-08
3.41113e-06
1.53498e-06
1.77123e-06
2.15943e-06
2.48825e-05
2.71172e-05
1.84595e-05
2.36225e-06
1.21788e-09
1.07744e-09
3.20595e-09
5.33573e-09
0.0134519
0.249774
8.08768e-10
7.08853e-09
1.1301e-07
1.46162e-07
1.33898e-07
3.08296e-08
7.22567e-07
2.57126e-06
5.28017e-06
1.0672e-06
9.55743e-06
2.29878e-09
1.45425e-10
5.63525e-10
9.32953e-10
9.84463e-10
9.85438e-09
0.0132524
0.249773
8.86587e-11
5.26003e-08
1.13434e-07
7.73115e-08
9.03899e-09
1.16269e-08
5.57916e-06
6.87e-06
6.87e-06
9.52139e-07
6.99187e-10
9.84883e-11
3.59856e-11
1.5474e-10
6.53404e-10
8.31496e-10
6.01695e-08
0.0129617
0.249772
4.59827e-09
3.75504e-08
2.70559e-08
9.02856e-09
9.32771e-09
1.90317e-07
1.37866e-09
9.01257e-07
1.61082e-07
5.70794e-10
9.84883e-11
3.59688e-11
3.05802e-11
9.39887e-10
5.59705e-10
1.50615e-09
4.06658e-07
0.0127278
0.249754
1.87993e-09
1.44094e-09
4.44655e-10
9.0333e-09
1.22482e-08
4.76807e-09
1.16171e-09
1.02293e-09
9.18654e-10
8.50845e-10
7.56248e-10
4.83473e-10
1.92369e-11
3.40426e-08
1.49348e-09
4.66084e-09
1.93714e-06
0.012068
0.249514
3.94019e-11
3.9377e-11
4.14704e-10
1.47515e-09
2.81939e-09
2.53211e-09
2.69834e-09
2.04234e-09
1.57668e-09
1.64083e-09
1.17759e-09
1.66839e-10
1.90722e-11
5.45399e-08
1.324e-08
7.33476e-06
1.09466e-05
0.0136323
0.245545
7.12491e-13
4.15938e-11
1.35474e-10
2.65452e-11
2.16777e-11
2.16777e-11
6.91798e-11
6.88485e-11
4.00226e-11
4.99685e-12
8.48019e-13
7.1635e-13
8.48019e-13
3.56002e-08
1.93343e-09
4.82351e-05
4.6815e-05
0.0222983
0.0577765
4.63584e-13
1.81684e-11
1.223e-11
6.94538e-12
2.98173e-11
1.84489e-10
2.26313e-10
2.23897e-10
1.58211e-10
7.34586e-11
1.87246e-11
5.95429e-13
2.13407e-11
2.20926e-11
8.61605e-10
1.93343e-09
0.00777172
0.0219676
0.000634443
4.03036e-13
1.94416e-12
1.40722e-12
2.46583e-12
9.46098e-12
2.91363e-11
7.48418e-11
3.97811e-11
1.31863e-11
3.28086e-12
3.1226e-13
1.89646e-16
5.49024e-11
2.97098e-10
2.33673e-09
3.802e-09
0.00367086
0.0147853
0.000593379
3.08632e-13
3.80749e-13
5.05678e-13
1.04798e-12
1.75943e-12
1.4263e-12
4.65334e-13
1.67168e-13
1.10191e-13
5.91001e-14
8.83301e-15
8.49157e-18
2.90801e-11
3.58669e-09
3.61413e-09
3.63625e-09
1.74766e-05
0.000331778
0.000325595
5.49993e-14
2.57386e-14
1.7987e-13
6.42208e-13
8.05352e-13
7.51672e-13
7.01304e-13
4.40266e-13
1.70988e-13
3.92283e-14
1.62887e-15
9.85909e-34
-7.30568e-16
5.86673e-09
4.02337e-09
3.46968e-09
5.84631e-09
3.814e-06
0.000115868
8.48638e-16
2.04145e-16
1.05101e-14
4.95594e-14
1.61964e-13
1.49305e-13
8.93966e-14
2.71906e-14
3.3595e-15
1.90964e-17
-9.4221e-19
-6.12238e-16
-6.71084e-16
5.79673e-09
2.0028e-09
2.21791e-09
1.7432e-08
5.86626e-07
2.92988e-06
6.86834e-20
1.24162e-21
1.97055e-16
1.0536e-14
2.55864e-14
1.7602e-14
5.8579e-15
6.91175e-16
1.0212e-17
7.4484e-35
-3.91713e-17
-3.98355e-16
-3.68322e-16
2.24935e-09
6.08622e-14
1.61025e-07
1.01414e-07
1.69431e-07
1.03292e-06
-3.10787e-18
-1.97858e-18
8.02718e-17
4.48309e-15
3.42391e-15
1.28097e-15
1.84338e-16
5.29179e-18
-1.4894e-35
-3.91402e-19
-2.22905e-17
-2.18765e-16
-1.71622e-16
-4.93038e-34
4.43815e-16
3.97904e-07
1.78154e-07
4.63702e-07
7.51635e-07
-1.37456e-18
-3.81135e-19
1.05322e-17
2.49475e-16
1.86696e-16
6.06209e-17
5.76744e-18
1.13586e-20
-2.30221e-19
-2.53413e-19
-1.05298e-17
-1.02457e-16
-6.68552e-17
2.74044e-17
6.45631e-18
1.04548e-07
2.35404e-05
2.09733e-06
1.31032e-06
-2.67765e-19
-4.58684e-20
6.2324e-19
1.3191e-17
7.69315e-18
1.5123e-18
6.05849e-20
1.79637e-23
-9.54485e-20
-7.00961e-20
-4.02922e-18
-3.91173e-17
-2.05311e-17
3.71703e-16
8.45863e-18
9.28366e-08
4.78755e-05
9.96946e-06
1.47415e-06
-3.4534e-20
-3.38376e-21
3.20715e-20
2.76776e-19
1.15135e-19
1.21755e-20
2.06148e-22
4.71621e-27
-2.37727e-20
-1.25966e-20
-1.17319e-18
-1.13403e-17
-4.46056e-18
6.41818e-16
3.33118e-17
2.95684e-19
4.32487e-05
8.81022e-06
1.65948e-06
-2.85379e-21
-1.20979e-22
-8.03891e-24
-6.26514e-25
5.51898e-24
1.00687e-23
2.51607e-24
1.75485e-25
-4.00458e-21
-1.33906e-21
-2.3084e-19
-2.21282e-18
-5.47787e-19
6.40919e-16
4.43773e-17
1.01757e-20
-1.31251e-22
1.69054e-05
2.08481e-06
-1.37512e-22
-1.09624e-24
-2.6725e-26
-1.39651e-27
-6.75787e-29
-2.78131e-30
-8.74988e-32
-2.09924e-33
-3.47135e-22
-5.03191e-23
-2.31897e-20
-2.18891e-19
-2.35138e-20
2.43247e-16
3.05962e-18
-1.93288e-36
1.10178e-23
1.6926e-05
3.35534e-06
)
;

boundaryField
{
    leftWall
    {
        type            zeroGradient;
    }
    rightWall
    {
        type            zeroGradient;
    }
    lowerWall
    {
        type            zeroGradient;
    }
    atmosphere
    {
        type            inletOutlet;
        inletValue      uniform 0;
        value           nonuniform List<scalar> 
46
(
8.71199e-20
1.02571e-19
2.66255e-20
2.42732e-21
1.89445e-22
1.26e-23
6.96768e-25
3.23158e-26
1.2693e-27
4.25723e-29
1.23466e-30
3.14062e-32
7.12573e-34
1.33654e-35
-1.71649e-34
-4.24301e-32
-4.02392e-30
-1.05583e-28
-2.20999e-27
-1.41156e-26
-4.29427e-26
-3.50241e-26
-3.13879e-24
-7.18487e-22
-2.97696e-20
-1.33994e-20
-2.71851e-21
-1.37512e-22
-1.09624e-24
0
0
0
0
0
0
0
0
0
0
0
0
0
0
0
1.6926e-05
3.35534e-06
)
;
    }
    defaultFaces
    {
        type            empty;
    }
}


// ************************************************************************* //
