/*--------------------------------*- C++ -*----------------------------------*\
| =========                 |                                                 |
| \\      /  F ield         | OpenFOAM: The Open Source CFD Toolbox           |
|  \\    /   O peration     | Version:  2206                                  |
|   \\  /    A nd           | Website:  www.openfoam.com                      |
|    \\/     M anipulation  |                                                 |
\*---------------------------------------------------------------------------*/
FoamFile
{
    version     2.0;
    format      ascii;
    arch        "LSB;label=32;scalar=64";
    class       surfaceScalarField;
    location    "0.925";
    object      phi;
}
// * * * * * * * * * * * * * * * * * * * * * * * * * * * * * * * * * * * * * //

dimensions      [0 3 -1 0 0 0 0];

oriented        oriented;

internalField   nonuniform List<scalar> 
4432
(
-1.04131e-06
1.04131e-06
1.38921e-06
-2.43051e-06
4.92632e-06
-3.5371e-06
7.58389e-06
-2.65757e-06
8.9425e-06
-1.35861e-06
9.33829e-06
-3.95789e-07
9.27048e-06
6.7806e-08
9.08796e-06
1.82517e-07
8.95065e-06
1.37306e-07
8.86446e-06
8.61909e-08
8.77008e-06
9.43798e-08
8.60624e-06
1.63846e-07
8.33667e-06
2.6958e-07
7.95379e-06
3.8288e-07
7.46897e-06
4.84832e-07
6.90129e-06
5.6768e-07
6.3182e-06
5.83094e-07
5.7954e-06
5.22809e-07
5.53512e-06
2.60285e-07
5.34928e-06
1.85841e-07
5.90989e-06
-5.60618e-07
6.44575e-06
-5.35858e-07
6.44575e-06
-9.57329e-07
1.99863e-06
1.39737e-06
-4.78521e-06
4.34257e-06
-6.48231e-06
6.51446e-06
-4.82945e-06
7.67226e-06
-2.5164e-06
8.12978e-06
-8.53305e-07
8.28408e-06
-8.64864e-08
8.42446e-06
4.21314e-08
8.6606e-06
-9.88293e-08
8.99858e-06
-2.51788e-07
9.40907e-06
-3.16111e-07
9.8593e-06
-2.86368e-07
1.03313e-05
-2.02444e-07
1.08136e-05
-9.93848e-08
1.13023e-05
-3.87976e-09
1.1835e-05
3.49788e-08
1.24484e-05
-3.029e-08
1.31859e-05
-2.14712e-07
1.39359e-05
-4.89715e-07
1.52493e-05
-1.12759e-06
1.6711e-05
-2.02231e-06
1.31765e-05
2.99867e-06
1.96223e-05
-7.17752e-07
2.71639e-06
1.01964e-06
-6.5226e-06
3.14994e-06
-8.6126e-06
4.75504e-06
-6.43455e-06
5.84228e-06
-3.60364e-06
6.62179e-06
-1.63282e-06
7.27562e-06
-7.40328e-07
7.89339e-06
-5.75634e-07
8.49415e-06
-6.99592e-07
9.063e-06
-8.20632e-07
9.57955e-06
-8.32653e-07
1.00373e-05
-7.44137e-07
1.04372e-05
-6.0229e-07
1.07994e-05
-4.61558e-07
1.1166e-05
-3.70496e-07
1.15952e-05
-3.94261e-07
1.21334e-05
-5.68418e-07
1.29502e-05
-1.03156e-06
1.42797e-05
-1.8192e-06
1.70218e-05
-3.86971e-06
1.91752e-05
-4.17574e-06
1.23272e-05
9.84673e-06
3.19495e-05
-9.42e-07
3.65839e-06
-5.45639e-07
-6.91895e-06
6.98493e-07
-9.85673e-06
2.20176e-06
-7.93781e-06
3.69261e-06
-5.09449e-06
5.09737e-06
-3.03757e-06
6.40919e-06
-2.05215e-06
7.61267e-06
-1.77911e-06
8.69541e-06
-1.78233e-06
9.64258e-06
-1.7678e-06
1.04283e-05
-1.61836e-06
1.10122e-05
-1.32807e-06
1.13581e-05
-9.48185e-07
1.14127e-05
-5.16104e-07
1.1152e-05
-1.09834e-07
1.06658e-05
9.20078e-08
9.96909e-06
1.28256e-07
9.00471e-06
-6.71826e-08
7.94362e-06
-7.5811e-07
7.02899e-06
-2.95508e-06
5.52985e-06
-2.67659e-06
1.74591e-06
1.36307e-05
3.36954e-05
-1.73456e-06
5.39295e-06
-3.56479e-06
-5.08872e-06
-3.34547e-06
-1.00761e-05
-1.18331e-06
-1.01e-05
1.47141e-06
-7.74921e-06
3.91276e-06
-5.47892e-06
5.994e-06
-4.13339e-06
7.77517e-06
-3.56028e-06
9.29275e-06
-3.29991e-06
1.05513e-05
-3.02637e-06
1.15312e-05
-2.59825e-06
1.22086e-05
-2.00546e-06
1.25623e-05
-1.30189e-06
1.25897e-05
-5.43482e-07
1.22214e-05
2.58484e-07
1.13135e-05
9.99855e-07
9.76035e-06
1.68145e-06
7.41465e-06
2.27852e-06
3.83569e-06
2.82085e-06
-1.86118e-06
2.74179e-06
-7.26005e-06
2.72228e-06
-7.17803e-06
1.35487e-05
2.65173e-05
-9.60782e-07
6.35374e-06
-2.55702e-06
-3.49248e-06
-2.45119e-06
-1.01819e-05
-4.1977e-07
-1.21314e-05
2.54295e-06
-1.07119e-05
5.32421e-06
-8.26017e-06
7.55767e-06
-6.36685e-06
9.44451e-06
-5.44712e-06
1.12056e-05
-5.06102e-06
1.28335e-05
-4.6543e-06
1.42839e-05
-4.04865e-06
1.55538e-05
-3.2753e-06
1.65032e-05
-2.25125e-06
1.68651e-05
-9.05365e-07
1.63479e-05
7.75661e-07
1.49001e-05
2.44766e-06
1.25741e-05
4.00739e-06
9.33993e-06
5.51273e-06
5.00252e-06
7.15827e-06
-8.83852e-07
8.62816e-06
-7.1954e-06
9.03383e-06
-6.13215e-06
1.24854e-05
2.03852e-05
6.86897e-06
-5.15233e-07
1.08039e-05
-7.42744e-06
1.1753e-05
-1.11309e-05
1.12155e-05
-1.15939e-05
1.11986e-05
-1.06951e-05
1.21329e-05
-9.1945e-06
1.35367e-05
-7.77062e-06
1.50211e-05
-6.93152e-06
1.65845e-05
-6.62439e-06
1.81422e-05
-6.21198e-06
1.91918e-05
-5.09827e-06
1.93094e-05
-3.3929e-06
1.87685e-05
-1.7104e-06
1.80433e-05
-1.8015e-07
1.71715e-05
1.64744e-06
1.56959e-05
3.92329e-06
1.34625e-05
6.24083e-06
1.07253e-05
8.24989e-06
7.66328e-06
1.02203e-05
4.37699e-06
1.19145e-05
8.93184e-07
1.25176e-05
8.30199e-07
1.25484e-05
2.12154e-05
1.85523e-05
-1.90675e-05
2.19199e-05
-1.07951e-05
1.90514e-05
-8.26233e-06
1.49716e-05
-7.51413e-06
1.30657e-05
-8.78914e-06
1.39149e-05
-1.00437e-05
1.62976e-05
-1.01533e-05
1.87734e-05
-9.40736e-06
2.10529e-05
-8.90385e-06
2.31476e-05
-8.30674e-06
2.44239e-05
-6.37449e-06
2.40109e-05
-2.97993e-06
2.21665e-05
1.34019e-07
2.00939e-05
1.89239e-06
1.84464e-05
3.29494e-06
1.77121e-05
4.65766e-06
1.73524e-05
6.60053e-06
1.67332e-05
8.86906e-06
1.56359e-05
1.13176e-05
1.43154e-05
1.3235e-05
1.25701e-05
1.42629e-05
9.0433e-06
1.60752e-05
3.02587e-05
4.21214e-05
-4.21213e-05
0.000110622
-6.85009e-05
0.000184941
-7.43192e-05
0.000236537
-5.15959e-05
0.000252887
-1.63497e-05
0.000223861
2.90257e-05
0.00015102
7.28417e-05
0.000114493
3.65266e-05
8.40569e-05
3.04362e-05
1.5141e-05
6.89159e-05
-3.62625e-05
5.14034e-05
-2.24086e-05
-1.38539e-05
2.02963e-05
-4.27049e-05
5.93601e-05
-3.90637e-05
6.15311e-05
-2.17106e-06
2.94831e-05
3.2048e-05
-1.61524e-05
4.56356e-05
-3.19633e-05
1.58109e-05
-3.19634e-05
4.94717e-05
-9.15931e-05
8.61148e-05
-0.000105144
0.000135098
-0.000123302
0.000177297
-9.3795e-05
0.000198082
-3.71352e-05
0.000193341
3.37674e-05
0.000197052
6.91306e-05
0.000169058
6.45206e-05
0.000117596
8.18979e-05
8.88482e-05
9.76641e-05
8.54499e-05
5.48017e-05
5.65342e-05
1.50618e-05
5.35732e-05
-3.97439e-05
8.13424e-05
-6.68329e-05
7.64385e-05
2.73286e-06
4.62568e-05
6.22296e-05
4.49114e-06
8.74012e-05
-2.03498e-05
4.06518e-05
-5.23131e-05
0.000102613
-0.000194206
0.000129955
-0.000132486
0.000104543
-9.78907e-05
0.000109233
-9.84848e-05
6.3576e-05
8.52189e-06
5.9122e-05
3.82213e-05
0.000124702
3.55086e-06
0.000135046
5.41767e-05
9.50489e-05
0.000121895
0.000103599
8.91142e-05
8.47547e-05
7.36459e-05
7.51346e-05
2.46819e-05
-5.50658e-06
4.08974e-05
-1.85502e-05
-5.37895e-05
-2.77058e-05
1.18883e-05
-4.28604e-06
3.88098e-05
-6.33433e-06
8.94495e-05
-4.51655e-06
3.8834e-05
-5.68297e-05
0.000113721
-0.000307927
0.000155239
-0.000174004
0.000118172
-6.08232e-05
6.83659e-05
-4.86791e-05
5.16088e-05
2.5279e-05
9.88535e-05
-9.02332e-06
9.33721e-05
9.03235e-06
6.25754e-05
8.49735e-05
3.43513e-05
0.000150119
1.65446e-05
0.000106921
2.23479e-05
6.78427e-05
-4.9951e-05
9.69808e-05
-4.12352e-05
3.21814e-05
4.32452e-06
-9.93493e-05
8.97242e-06
7.24017e-06
-1.32391e-05
6.10215e-05
-4.41522e-05
0.000120363
-1.04435e-05
5.12529e-06
-6.72732e-05
1.18946e-05
-0.000319822
1.47069e-05
-0.000176817
3.69055e-05
-8.3022e-05
2.75452e-05
-3.93187e-05
4.27238e-05
1.01004e-05
8.38299e-06
2.53175e-05
-5.5142e-05
7.25574e-05
-7.91279e-05
0.000108959
-6.17996e-05
0.00013279
-8.10364e-05
0.000126157
-0.000169199
0.000156005
-0.000197424
0.000125205
-9.91447e-05
-6.60975e-05
-3.1379e-05
-0.000167115
-6.61129e-06
-1.75276e-05
-6.18665e-05
0.000116277
-6.32201e-05
0.000121716
-2.86965e-05
-2.93983e-05
-9.59696e-05
-7.11724e-05
-0.000248649
-0.000100003
-0.000147986
-9.8608e-05
-8.44173e-05
-0.000119136
-1.87906e-05
-0.00013678
2.77444e-05
-0.000167849
5.63861e-05
-0.000169471
7.41794e-05
-0.000158026
9.7515e-05
-0.000180843
0.000155607
-0.000238351
0.000183665
-0.000252467
0.000170121
-0.000178306
5.10439e-05
-8.52746e-05
-0.000159129
-3.67532e-05
-0.000215636
-4.04302e-05
-1.38506e-05
-8.26423e-05
0.000158489
-1.48921e-05
5.3966e-05
-1.67981e-05
-2.74924e-05
-0.000112768
-0.000140888
-0.000107761
-0.000206782
-8.20921e-05
-0.000241358
-4.98408e-05
-0.000262141
1.99205e-06
-0.00025304
1.86433e-05
-0.000234012
3.7358e-05
-0.000229196
6.93634e-05
-0.00023037
9.86889e-05
-0.000212052
0.000137289
-0.00018458
0.000156193
-0.000121479
0.00010702
-4.82033e-05
-2.22318e-05
2.05671e-05
-0.000227899
2.36415e-05
-0.000218711
-3.36316e-05
4.34226e-05
-7.1681e-05
0.000196539
2.7555e-06
-2.04704e-05
-8.31861e-06
-1.64183e-05
-0.000121086
-0.000144747
3.69856e-05
-0.000203968
-2.28705e-05
-0.000234409
-1.93999e-05
-0.00025099
1.85731e-05
-0.000263428
3.10809e-05
-0.000259968
3.38983e-05
-0.000243348
5.27431e-05
-0.000206228
6.15686e-05
-0.00015528
8.63413e-05
-0.000103549
0.000104463
-2.96403e-05
3.31109e-05
7.22457e-05
-0.000124118
8.77528e-05
-0.000243406
4.85318e-05
-0.00017949
3.96175e-05
5.23367e-05
3.24663e-05
0.00020369
1.06793e-05
1.31659e-06
-1.36872e-05
7.94816e-06
-0.000134773
-3.28214e-06
-1.57853e-05
-1.58385e-05
1.7614e-06
-2.21834e-05
-1.91728e-06
-1.99311e-05
-9.76635e-06
-1.4637e-05
-1.40832e-05
-1.03561e-05
-1.43246e-05
-5.80198e-06
-1.47074e-05
-8.76654e-07
-1.43327e-05
4.80976e-06
-1.45903e-05
1.10409e-05
-1.45379e-05
1.58497e-05
-1.11833e-05
1.73458e-05
-4.47602e-06
1.77484e-05
-2.6859e-07
1.7587e-05
2.05384e-06
1.74255e-05
3.4564e-06
1.77724e-05
4.31073e-06
1.83277e-05
6.04521e-06
1.83974e-05
8.79943e-06
1.78607e-05
1.18543e-05
1.66673e-05
1.44284e-05
1.48238e-05
1.61064e-05
1.40313e-05
1.68677e-05
2.15401e-05
2.275e-05
-5.13864e-06
-1.06464e-05
-6.58579e-06
3.20894e-06
-2.01942e-06
-6.48346e-06
1.97219e-06
-1.37578e-05
4.92824e-07
-1.26038e-05
-4.52107e-06
-9.31063e-06
-1.19961e-05
-7.23223e-06
-1.80639e-05
-8.26495e-06
-1.9331e-05
-1.33232e-05
-1.64162e-05
-1.74527e-05
-1.56581e-06
-2.60338e-05
1.74699e-05
-2.35118e-05
2.66811e-05
-9.47974e-06
3.09915e-05
-2.2566e-06
3.29643e-05
1.48358e-06
3.4882e-05
2.39308e-06
3.56761e-05
5.2511e-06
3.42154e-05
1.02601e-05
2.95432e-05
1.65265e-05
2.2742e-05
2.12295e-05
1.7933e-05
2.09154e-05
2.04135e-05
1.43872e-05
2.92429e-05
1.27107e-05
-9.09966e-06
-1.54662e-06
-5.07968e-06
-8.10797e-07
-4.94759e-07
-1.10682e-05
2.49843e-06
-1.67509e-05
5.27493e-06
-1.53801e-05
8.34383e-06
-1.23795e-05
1.2594e-05
-1.14824e-05
1.76428e-05
-1.33138e-05
2.13964e-05
-1.7077e-05
2.55233e-05
-2.15798e-05
2.86495e-05
-2.91601e-05
3.39391e-05
-2.88015e-05
4.22929e-05
-1.78336e-05
4.43106e-05
-4.27426e-06
4.16166e-05
4.17761e-06
3.32806e-05
1.07291e-05
2.20944e-05
1.64373e-05
1.43638e-05
1.79906e-05
1.12646e-05
1.96257e-05
-3.30609e-07
3.28248e-05
-3.72984e-05
5.78832e-05
-7.90845e-05
5.61735e-05
6.97118e-05
-0.000119553
-8.49312e-06
6.94661e-06
-7.71844e-06
-1.58533e-06
-4.78037e-06
-1.40062e-05
-2.70575e-06
-1.88254e-05
-3.12852e-07
-1.77731e-05
2.38768e-06
-1.50802e-05
4.73421e-06
-1.38291e-05
4.81898e-06
-1.33985e-05
2.0673e-06
-1.43255e-05
-1.70914e-06
-1.78034e-05
-6.91483e-06
-2.39546e-05
-9.32411e-06
-2.63924e-05
-6.88734e-06
-2.02704e-05
-5.82804e-06
-5.3336e-06
-1.29001e-05
1.12496e-05
-2.83372e-05
2.61662e-05
-4.47702e-05
3.28703e-05
-5.49897e-05
2.821e-05
-6.82073e-05
3.28433e-05
-9.21608e-05
5.67783e-05
-0.000109228
7.49506e-05
-0.000130646
7.75916e-05
8.70968e-05
-0.000148031
-5.52645e-06
1.24731e-05
-4.86105e-06
-2.25076e-06
-3.1431e-06
-1.57242e-05
-1.39582e-06
-2.05728e-05
-3.77294e-07
-1.87918e-05
-2.07565e-07
-1.52501e-05
-1.48283e-06
-1.25539e-05
-4.27085e-06
-1.06108e-05
-8.61783e-06
-9.97851e-06
-1.45442e-05
-1.18771e-05
-2.25379e-05
-1.59611e-05
-3.014e-05
-1.87904e-05
-3.53279e-05
-1.50826e-05
-3.90187e-05
-1.64286e-06
-4.62055e-05
1.84363e-05
-5.64741e-05
3.64348e-05
-6.58619e-05
4.2258e-05
-7.40244e-05
3.63723e-05
-7.98608e-05
3.86795e-05
-8.1897e-05
5.88144e-05
-8.56101e-05
7.86639e-05
-9.43442e-05
8.63256e-05
9.33644e-05
-0.000100612
-4.29237e-06
1.67655e-05
-5.18778e-06
-1.35547e-06
-5.00608e-06
-1.59061e-05
-4.79693e-06
-2.07822e-05
-5.83513e-06
-1.77539e-05
-7.89936e-06
-1.3186e-05
-1.06998e-05
-9.75353e-06
-1.39263e-05
-7.38445e-06
-1.78278e-05
-6.07726e-06
-2.34095e-05
-6.29558e-06
-3.12991e-05
-8.07163e-06
-4.05001e-05
-9.58953e-06
-4.90019e-05
-6.58105e-06
-5.55864e-05
4.94176e-06
-6.10148e-05
2.38648e-05
-6.62197e-05
4.16396e-05
-7.14394e-05
4.74779e-05
-7.73706e-05
4.23036e-05
-7.97823e-05
4.10912e-05
-7.36335e-05
5.2666e-05
-6.42406e-05
6.92711e-05
-5.80016e-05
8.00867e-05
8.5865e-05
-5.05017e-05
-5.09311e-06
2.18586e-05
-6.84073e-06
3.91996e-07
-6.9299e-06
-1.5817e-05
-7.80393e-06
-1.99083e-05
-9.86673e-06
-1.56914e-05
-1.24915e-05
-1.05614e-05
-1.55931e-05
-6.6522e-06
-1.92533e-05
-3.72442e-06
-2.35989e-05
-1.7318e-06
-2.91246e-05
-7.70098e-07
-3.64768e-05
-7.19558e-07
-4.54555e-05
-6.11122e-07
-5.44113e-05
2.37467e-06
-6.09005e-05
1.14311e-05
-6.38157e-05
2.67801e-05
-6.4265e-05
4.20891e-05
-6.49372e-05
4.815e-05
-6.70776e-05
4.44439e-05
-6.75258e-05
4.15394e-05
-6.22088e-05
4.73491e-05
-5.14181e-05
5.84806e-05
-3.85559e-05
6.72246e-05
7.1167e-05
-2.38578e-05
-4.80649e-06
2.6665e-05
-6.89538e-06
2.48066e-06
-8.35293e-06
-1.43598e-05
-1.0487e-05
-1.77746e-05
-1.364e-05
-1.25386e-05
-1.71567e-05
-7.04502e-06
-2.07748e-05
-3.03445e-06
-2.44479e-05
-5.14137e-08
-2.83924e-05
2.21272e-06
-3.30427e-05
3.88023e-06
-3.89933e-05
5.23094e-06
-4.63933e-05
6.789e-06
-5.39481e-05
9.92959e-06
-5.9214e-05
1.6697e-05
-6.01055e-05
2.76715e-05
-5.71708e-05
3.91547e-05
-5.38385e-05
4.48179e-05
-5.27161e-05
4.33218e-05
-5.25071e-05
4.13303e-05
-4.98884e-05
4.47309e-05
-4.30363e-05
5.16282e-05
-3.26876e-05
5.68762e-05
5.84482e-05
-1.99686e-05
-4.92965e-06
3.15946e-05
-7.90821e-06
5.45919e-06
-9.97167e-06
-1.22965e-05
-1.27516e-05
-1.49949e-05
-1.63015e-05
-8.98888e-06
-1.99529e-05
-3.39388e-06
-2.35143e-05
5.26642e-07
-2.69943e-05
3.42841e-06
-3.05451e-05
5.76336e-06
-3.44653e-05
7.80028e-06
-3.90231e-05
9.78863e-06
-4.43365e-05
1.21023e-05
-4.97723e-05
1.53657e-05
-5.35576e-05
2.04823e-05
-5.36589e-05
2.77732e-05
-4.99712e-05
3.54674e-05
-4.53412e-05
4.01877e-05
-4.28969e-05
4.08774e-05
-4.25164e-05
4.09498e-05
-4.14059e-05
4.36209e-05
-3.7528e-05
4.77503e-05
-3.11437e-05
5.04923e-05
5.06616e-05
-2.33565e-05
-4.81932e-06
3.64138e-05
-8.29666e-06
8.93642e-06
-1.08983e-05
-9.69491e-06
-1.40384e-05
-1.18549e-05
-1.7712e-05
-5.31541e-06
-2.13692e-05
2.63144e-07
-2.48061e-05
3.9636e-06
-2.79791e-05
6.60148e-06
-3.10256e-05
8.81018e-06
-3.4122e-05
1.08969e-05
-3.74227e-05
1.30891e-05
-4.09461e-05
1.56257e-05
-4.437e-05
1.87898e-05
-4.67531e-05
2.28654e-05
-4.68297e-05
2.78499e-05
-4.43001e-05
3.2938e-05
-4.08323e-05
3.67204e-05
-3.86933e-05
3.87384e-05
-3.80928e-05
4.03493e-05
-3.72093e-05
4.27379e-05
-3.47254e-05
4.52667e-05
-3.09687e-05
4.67359e-05
4.65134e-05
-2.68204e-05
-4.6425e-06
4.10563e-05
-8.44189e-06
1.27357e-05
-1.14262e-05
-6.71077e-06
-1.46799e-05
-8.60128e-06
-1.82299e-05
-1.7655e-06
-2.16337e-05
3.66651e-06
-2.47011e-05
7.03088e-06
-2.74858e-05
9.38614e-06
-3.00576e-05
1.13821e-05
-3.2506e-05
1.33456e-05
-3.48988e-05
1.54822e-05
-3.72174e-05
1.79448e-05
-3.92839e-05
2.08564e-05
-4.06861e-05
2.42681e-05
-4.08859e-05
2.80497e-05
-3.97372e-05
3.17895e-05
-3.79791e-05
3.49626e-05
-3.66856e-05
3.74452e-05
-3.59967e-05
3.96606e-05
-3.51144e-05
4.18562e-05
-3.35504e-05
4.3703e-05
-3.15931e-05
4.47787e-05
4.46854e-05
-2.97651e-05
-4.36395e-06
4.54204e-05
-8.31948e-06
1.66913e-05
-1.14526e-05
-3.57773e-06
-1.46636e-05
-5.39034e-06
-1.79762e-05
1.54731e-06
-2.1079e-05
6.76933e-06
-2.37949e-05
9.74661e-06
-2.61521e-05
1.17434e-05
-2.82531e-05
1.3483e-05
-3.01807e-05
1.52728e-05
-3.19683e-05
1.72698e-05
-3.35871e-05
1.95638e-05
-3.4931e-05
2.22004e-05
-3.58259e-05
2.51636e-05
-3.61044e-05
2.83286e-05
-3.5772e-05
3.14571e-05
-3.51243e-05
3.43155e-05
-3.45347e-05
3.68555e-05
-3.40578e-05
3.91838e-05
-3.35003e-05
4.12991e-05
-3.28335e-05
4.30365e-05
-3.22731e-05
4.42183e-05
4.45288e-05
-3.21165e-05
-4.02017e-06
4.94405e-05
-8.02554e-06
2.06968e-05
-1.11871e-05
-4.15841e-07
-1.42694e-05
-2.30818e-06
-1.72817e-05
4.55932e-06
-2.00469e-05
9.53455e-06
-2.24178e-05
1.21174e-05
-2.44131e-05
1.37392e-05
-2.61323e-05
1.52027e-05
-2.76633e-05
1.68039e-05
-2.90444e-05
1.8651e-05
-3.02593e-05
2.07789e-05
-3.12466e-05
2.31876e-05
-3.19252e-05
2.58421e-05
-3.22489e-05
2.86528e-05
-3.22696e-05
3.14776e-05
-3.21346e-05
3.41807e-05
-3.19878e-05
3.67087e-05
-3.18796e-05
3.90755e-05
-3.1841e-05
4.12607e-05
-3.19884e-05
4.31842e-05
-3.25117e-05
4.47418e-05
4.56807e-05
-3.36637e-05
-3.71446e-06
5.3155e-05
-7.69094e-06
2.4673e-05
-1.07857e-05
2.6789e-06
-1.36887e-05
5.95073e-07
-1.63853e-05
7.25585e-06
-1.88187e-05
1.19677e-05
-2.08775e-05
1.41761e-05
-2.25782e-05
1.54398e-05
-2.40136e-05
1.66379e-05
-2.52668e-05
1.80568e-05
-2.63765e-05
1.97605e-05
-2.73398e-05
2.17423e-05
-2.81251e-05
2.39733e-05
-2.86944e-05
2.64113e-05
-2.90357e-05
2.89939e-05
-2.91949e-05
3.1637e-05
-2.92718e-05
3.42578e-05
-2.9371e-05
3.68079e-05
-2.95732e-05
3.92777e-05
-2.99743e-05
4.16618e-05
-3.07243e-05
4.39341e-05
-3.20321e-05
4.605e-05
4.78602e-05
-3.42118e-05
-3.56287e-06
5.67181e-05
-7.46472e-06
2.85751e-05
-1.04444e-05
5.65831e-06
-1.31157e-05
3.26638e-06
-1.54807e-05
9.62078e-06
-1.75977e-05
1.40839e-05
-1.93714e-05
1.59498e-05
-2.08271e-05
1.68957e-05
-2.20465e-05
1.78575e-05
-2.31005e-05
1.91109e-05
-2.40212e-05
2.06812e-05
-2.48092e-05
2.25299e-05
-2.54484e-05
2.46127e-05
-2.59235e-05
2.68869e-05
-2.62377e-05
2.93081e-05
-2.64284e-05
3.18277e-05
-2.65718e-05
3.44014e-05
-2.67652e-05
3.70013e-05
-2.71108e-05
3.96234e-05
-2.773e-05
4.22812e-05
-2.87893e-05
4.4993e-05
-3.05261e-05
4.77871e-05
5.07088e-05
-3.33748e-05
-3.63029e-06
6.03481e-05
-7.44781e-06
3.23925e-05
-1.02862e-05
8.49698e-06
-1.26845e-05
5.66461e-06
-1.47095e-05
1.1646e-05
-1.65037e-05
1.58779e-05
-1.80091e-05
1.74554e-05
-1.92401e-05
1.81268e-05
-2.0269e-05
1.88862e-05
-2.11535e-05
1.99953e-05
-2.19157e-05
2.14437e-05
-2.25539e-05
2.31684e-05
-2.30582e-05
2.5117e-05
-2.3423e-05
2.72521e-05
-2.36586e-05
2.95439e-05
-2.3798e-05
3.19671e-05
-2.39013e-05
3.45047e-05
-2.40528e-05
3.71528e-05
-2.43552e-05
3.99259e-05
-2.49339e-05
4.28601e-05
-2.5952e-05
4.60109e-05
-2.76382e-05
4.94733e-05
5.35442e-05
-3.04737e-05
-3.91398e-06
6.4262e-05
-7.66717e-06
3.61453e-05
-1.03759e-05
1.1206e-05
-1.24785e-05
7.76715e-06
-1.41464e-05
1.33133e-05
-1.56169e-05
1.73483e-05
-1.68452e-05
1.86836e-05
-1.78445e-05
1.91261e-05
-1.86746e-05
1.97163e-05
-1.93803e-05
2.07008e-05
-1.99753e-05
2.20384e-05
-2.04543e-05
2.36475e-05
-2.08087e-05
2.54715e-05
-2.10356e-05
2.74792e-05
-2.11451e-05
2.96537e-05
-2.11635e-05
3.19856e-05
-2.11351e-05
3.44763e-05
-2.11235e-05
3.71414e-05
-2.12122e-05
4.00149e-05
-2.15049e-05
4.31528e-05
-2.21284e-05
4.66342e-05
-2.3243e-05
5.0588e-05
5.54821e-05
-2.51808e-05
-4.36391e-06
6.8626e-05
-8.11492e-06
3.98961e-05
-1.07482e-05
1.38391e-05
-1.25497e-05
9.56925e-06
-1.38352e-05
1.45981e-05
-1.49612e-05
1.84743e-05
-1.58973e-05
1.96196e-05
-1.66438e-05
1.98725e-05
-1.72492e-05
2.03215e-05
-1.77483e-05
2.11998e-05
-1.81487e-05
2.24385e-05
-1.84423e-05
2.3941e-05
-1.86198e-05
2.56493e-05
-1.86776e-05
2.75372e-05
-1.86203e-05
2.95967e-05
-1.84632e-05
3.18288e-05
-1.82322e-05
3.42453e-05
-1.79642e-05
3.68734e-05
-1.77087e-05
3.97596e-05
-1.75273e-05
4.29714e-05
-1.74878e-05
4.65949e-05
-1.76566e-05
5.07569e-05
5.5913e-05
-1.80874e-05
-4.919e-06
7.35449e-05
-8.78509e-06
4.37624e-05
-1.14289e-05
1.64831e-05
-1.29316e-05
1.10724e-05
-1.37931e-05
1.54594e-05
-1.45418e-05
1.92232e-05
-1.51597e-05
2.02377e-05
-1.56256e-05
2.03386e-05
-1.5977e-05
2.06728e-05
-1.62405e-05
2.14631e-05
-1.64186e-05
2.26167e-05
-1.65015e-05
2.4024e-05
-1.6478e-05
2.5626e-05
-1.63405e-05
2.74e-05
-1.60862e-05
2.93425e-05
-1.57169e-05
3.14597e-05
-1.52384e-05
3.37671e-05
-1.46593e-05
3.62944e-05
-1.39892e-05
3.90898e-05
-1.32386e-05
4.22209e-05
-1.2411e-05
4.57674e-05
-1.14867e-05
4.98326e-05
5.4737e-05
-1.03107e-05
-5.54637e-06
7.9091e-05
-9.70143e-06
4.79174e-05
-1.24651e-05
1.92473e-05
-1.3666e-05
1.2273e-05
-1.40425e-05
1.58362e-05
-1.43511e-05
1.95318e-05
-1.46107e-05
2.04977e-05
-1.47657e-05
2.04939e-05
-1.4835e-05
2.07421e-05
-1.48395e-05
2.14675e-05
-1.47775e-05
2.25547e-05
-1.46361e-05
2.38828e-05
-1.43997e-05
2.53898e-05
-1.40553e-05
2.70557e-05
-1.35905e-05
2.88779e-05
-1.29941e-05
3.08637e-05
-1.22533e-05
3.30267e-05
-1.13513e-05
3.53925e-05
-1.02626e-05
3.80011e-05
-8.9491e-06
4.09075e-05
-7.35654e-06
4.41747e-05
-5.39201e-06
4.7868e-05
5.21401e-05
-2.79513e-06
-6.23634e-06
8.53272e-05
-1.09127e-05
5.25936e-05
-1.39278e-05
2.22629e-05
-1.48193e-05
1.31642e-05
-1.46043e-05
1.56216e-05
-1.43734e-05
1.93008e-05
-1.42141e-05
2.03387e-05
-1.40205e-05
2.03004e-05
-1.37836e-05
2.0505e-05
-1.35155e-05
2.11992e-05
-1.32089e-05
2.22481e-05
-1.28439e-05
2.3518e-05
-1.23992e-05
2.49454e-05
-1.18538e-05
2.65105e-05
-1.11863e-05
2.82105e-05
-1.03727e-05
3.00503e-05
-9.38585e-06
3.20402e-05
-8.19041e-06
3.41971e-05
-6.73639e-06
3.65469e-05
-4.95223e-06
3.91232e-05
-2.7429e-06
4.19652e-05
4.00339e-08
4.50851e-05
4.85594e-05
3.62088e-06
-6.94984e-06
9.2277e-05
-1.24571e-05
5.81009e-05
-1.58872e-05
2.5693e-05
-1.64582e-05
1.37351e-05
-1.54747e-05
1.4638e-05
-1.45732e-05
1.83992e-05
-1.39128e-05
1.96785e-05
-1.33282e-05
1.97158e-05
-1.27681e-05
1.99446e-05
-1.22259e-05
2.0657e-05
-1.16831e-05
2.17054e-05
-1.11102e-05
2.29453e-05
-1.04766e-05
2.4312e-05
-9.75272e-06
2.57867e-05
-8.90838e-06
2.73662e-05
-7.91029e-06
2.90522e-05
-6.72034e-06
3.08503e-05
-5.29167e-06
3.27684e-05
-3.56358e-06
3.48185e-05
-1.45157e-06
3.7011e-05
1.16829e-06
3.93454e-05
4.40215e-06
4.18513e-05
4.44598e-05
8.50199e-06
-7.60759e-06
9.98845e-05
-1.42877e-05
6.47813e-05
-1.83118e-05
2.97168e-05
-1.85418e-05
1.39655e-05
-1.66473e-05
1.27432e-05
-1.48658e-05
1.66178e-05
-1.36109e-05
1.84237e-05
-1.26045e-05
1.87092e-05
-1.17188e-05
1.90589e-05
-1.09179e-05
1.98562e-05
-1.01639e-05
2.09515e-05
-9.4129e-06
2.21942e-05
-8.623e-06
2.35219e-05
-7.75565e-06
2.49194e-05
-6.77326e-06
2.63837e-05
-5.63623e-06
2.7915e-05
-4.30127e-06
2.95153e-05
-2.7177e-06
3.11847e-05
-8.23195e-07
3.29239e-05
1.46807e-06
3.47197e-05
4.24916e-06
3.65645e-05
7.6669e-06
3.84338e-05
4.02629e-05
1.18639e-05
-7.91518e-06
0.0001078
-1.6132e-05
7.2998e-05
-2.08915e-05
3.44766e-05
-2.0861e-05
1.39352e-05
-1.78952e-05
9.77731e-06
-1.50734e-05
1.37961e-05
-1.31514e-05
1.65018e-05
-1.17236e-05
1.72812e-05
-1.05474e-05
1.78827e-05
-9.53221e-06
1.88411e-05
-8.61357e-06
2.00328e-05
-7.72994e-06
2.13102e-05
-6.82797e-06
2.26197e-05
-5.86126e-06
2.39527e-05
-4.78749e-06
2.53099e-05
-3.56388e-06
2.66914e-05
-2.14535e-06
2.80967e-05
-4.82144e-07
2.95214e-05
1.48832e-06
3.09535e-05
3.82842e-06
3.23795e-05
6.63014e-06
3.37629e-05
9.98843e-06
3.50755e-05
3.62588e-05
1.39925e-05
-6.24623e-06
0.000114046
-1.68849e-05
8.36366e-05
-2.26589e-05
4.02508e-05
-2.26566e-05
1.39329e-05
-1.87783e-05
5.89903e-06
-1.48821e-05
9.90005e-06
-1.23047e-05
1.39243e-05
-1.05349e-05
1.55113e-05
-9.15622e-06
1.65041e-05
-8.00923e-06
1.76943e-05
-6.99763e-06
1.90212e-05
-6.04393e-06
2.03563e-05
-5.08512e-06
2.16608e-05
-4.07017e-06
2.29378e-05
-2.95412e-06
2.4194e-05
-1.69561e-06
2.54329e-05
-2.50086e-07
2.66512e-05
1.43034e-06
2.78409e-05
3.39666e-06
2.89871e-05
5.706e-06
3.007e-05
8.41001e-06
3.10589e-05
1.15745e-05
3.19111e-05
3.25749e-05
1.52583e-05
-7.35322e-07
0.000114781
-1.35578e-05
9.64592e-05
-2.1443e-05
4.81361e-05
-2.23314e-05
1.48213e-05
-1.84217e-05
1.98953e-06
-1.38259e-05
5.30424e-06
-1.07991e-05
1.08975e-05
-8.88563e-06
1.35979e-05
-7.46171e-06
1.50804e-05
-6.30419e-06
1.6537e-05
-5.29573e-06
1.80127e-05
-4.34766e-06
1.94081e-05
-3.3946e-06
2.07077e-05
-2.38603e-06
2.19294e-05
-1.27808e-06
2.30861e-05
-2.95838e-08
2.41844e-05
1.39966e-06
2.52218e-05
3.04888e-06
2.61916e-05
4.95656e-06
2.70794e-05
7.16007e-06
2.78666e-05
9.69791e-06
2.85211e-05
1.26066e-05
2.90027e-05
2.9259e-05
1.59225e-05
8.82024e-06
0.000105961
-3.36701e-06
0.000108647
-1.46937e-05
5.94625e-05
-1.80596e-05
1.81876e-05
-1.55769e-05
-4.93014e-07
-1.13657e-05
1.09301e-06
-8.41504e-06
7.94708e-06
-6.67073e-06
1.18539e-05
-5.42381e-06
1.38336e-05
-4.40799e-06
1.55211e-05
-3.51045e-06
1.71151e-05
-2.64977e-06
1.85473e-05
-1.76598e-06
1.98238e-05
-8.16311e-07
2.09795e-05
2.41031e-07
2.20286e-05
1.43987e-06
2.29853e-05
2.81115e-06
2.38503e-05
4.38401e-06
2.46186e-05
6.18545e-06
2.5278e-05
8.24219e-06
2.581e-05
1.05781e-05
2.61854e-05
1.32112e-05
2.63698e-05
2.6315e-05
1.61553e-05
1.52035e-05
9.07574e-05
9.34763e-06
0.000114502
-2.83638e-06
7.16465e-05
-9.25376e-06
2.46053e-05
-9.81493e-06
6.81381e-08
-7.28017e-06
-1.44172e-06
-5.15421e-06
5.82141e-06
-3.9357e-06
1.06355e-05
-3.09017e-06
1.29878e-05
-2.36094e-06
1.47915e-05
-1.67925e-06
1.6433e-05
-9.80259e-07
1.7848e-05
-2.24734e-07
1.9068e-05
6.26816e-07
2.01277e-05
1.59469e-06
2.10605e-05
2.70544e-06
2.18744e-05
3.98162e-06
2.2574e-05
5.44368e-06
2.31565e-05
7.10983e-06
2.36119e-05
8.99637e-06
2.39237e-05
1.11153e-05
2.40667e-05
1.34733e-05
2.4012e-05
2.37208e-05
1.60675e-05
1.65368e-05
7.42208e-05
1.76042e-05
0.000113435
8.872e-06
8.0379e-05
1.15551e-06
3.23218e-05
-1.68456e-06
2.90802e-06
-2.0253e-06
-1.10089e-06
-1.3956e-06
5.19191e-06
-9.10256e-07
1.01501e-05
-6.04941e-07
1.26822e-05
-2.77755e-07
1.44639e-05
1.33436e-07
1.60216e-05
6.22624e-07
1.73586e-05
1.21344e-06
1.8477e-05
1.9214e-06
1.94196e-05
2.76518e-06
2.02166e-05
3.75823e-06
2.08813e-05
4.91317e-06
2.1419e-05
6.24173e-06
2.18279e-05
7.75398e-06
2.20997e-05
9.45729e-06
2.22203e-05
1.13548e-05
2.21691e-05
1.34456e-05
2.19213e-05
2.14483e-05
1.5718e-05
1.33414e-05
6.08794e-05
1.89887e-05
0.000107787
1.57238e-05
8.36442e-05
9.72397e-06
3.83214e-05
5.30478e-06
7.32717e-06
3.48166e-06
7.2242e-07
2.67507e-06
5.99856e-06
2.15177e-06
1.06732e-05
1.85483e-06
1.29789e-05
1.76403e-06
1.45545e-05
1.84506e-06
1.59404e-05
2.08997e-06
1.71136e-05
2.4886e-06
1.80783e-05
3.03768e-06
1.88705e-05
3.7392e-06
1.95151e-05
4.59641e-06
2.00241e-05
5.61317e-06
2.04021e-05
6.79314e-06
2.06476e-05
8.13902e-06
2.07535e-05
9.65121e-06
2.07079e-05
1.13266e-05
2.04936e-05
1.3158e-05
2.00897e-05
1.9476e-05
1.51302e-05
8.13562e-06
5.27435e-05
1.58394e-05
0.000100084
1.77469e-05
8.17366e-05
1.5358e-05
4.07102e-05
1.13582e-05
1.13271e-05
8.09964e-06
3.98117e-06
6.05354e-06
8.04454e-06
4.80936e-06
1.19173e-05
4.0253e-06
1.37629e-05
3.55604e-06
1.50238e-05
3.34681e-06
1.61496e-05
3.3608e-06
1.70995e-05
3.56974e-06
1.78693e-05
3.95558e-06
1.84846e-05
4.50829e-06
1.89623e-05
5.22144e-06
1.93109e-05
6.09096e-06
1.95324e-05
7.11359e-06
1.96246e-05
8.2859e-06
1.95808e-05
9.60293e-06
1.93904e-05
1.1057e-05
1.90392e-05
1.26364e-05
1.85101e-05
1.77887e-05
1.43237e-05
3.5236e-06
4.92197e-05
1.17624e-05
9.18446e-05
1.7402e-05
7.60968e-05
1.82873e-05
3.9825e-05
1.53321e-05
1.42826e-05
1.1449e-05
7.86424e-06
8.63318e-06
1.08601e-05
6.90302e-06
1.36473e-05
5.77013e-06
1.48959e-05
5.01466e-06
1.57794e-05
4.56946e-06
1.65947e-05
4.38669e-06
1.72821e-05
4.42588e-06
1.78299e-05
4.65891e-06
1.82514e-05
5.06727e-06
1.85538e-05
5.63682e-06
1.87412e-05
6.35751e-06
1.88114e-05
7.22071e-06
1.8761e-05
8.21834e-06
1.85828e-05
9.34148e-06
1.82669e-05
1.0579e-05
1.78014e-05
1.19166e-05
1.71725e-05
1.63701e-05
1.33354e-05
8.64737e-07
4.83549e-05
9.04802e-06
8.36612e-05
1.68175e-05
6.83272e-05
1.96173e-05
3.70254e-05
1.73613e-05
1.65387e-05
1.33623e-05
1.1863e-05
1.02821e-05
1.39401e-05
8.33985e-06
1.55895e-05
7.01233e-06
1.62235e-05
6.07568e-06
1.6716e-05
5.46703e-06
1.72031e-05
5.13579e-06
1.7613e-05
5.03679e-06
1.79287e-05
5.13749e-06
1.81506e-05
5.41358e-06
1.82776e-05
5.84765e-06
1.8307e-05
6.4249e-06
1.8234e-05
7.13341e-06
1.80523e-05
7.96191e-06
1.77542e-05
8.89879e-06
1.73299e-05
9.93105e-06
1.67692e-05
1.10435e-05
1.60601e-05
1.51967e-05
1.22171e-05
1.62254e-07
4.81925e-05
8.19799e-06
7.56253e-05
1.66644e-05
5.98609e-05
1.99003e-05
3.37897e-05
1.78086e-05
1.86303e-05
1.39817e-05
1.56896e-05
1.10378e-05
1.68838e-05
9.11611e-06
1.75113e-05
7.73475e-06
1.7605e-05
6.71934e-06
1.77314e-05
6.02163e-06
1.79006e-05
5.59393e-06
1.80406e-05
5.39339e-06
1.81292e-05
5.38684e-06
1.81571e-05
5.54932e-06
1.81151e-05
5.86122e-06
1.7995e-05
6.30627e-06
1.77888e-05
6.87053e-06
1.74879e-05
7.54126e-06
1.70835e-05
8.30549e-06
1.65658e-05
9.14958e-06
1.59251e-05
1.00595e-05
1.51504e-05
1.42394e-05
1.10169e-05
6.30898e-07
4.75615e-05
8.57194e-06
6.76845e-05
1.6585e-05
5.1848e-05
1.9209e-05
3.11657e-05
1.70101e-05
2.0829e-05
1.35945e-05
1.91052e-05
1.10447e-05
1.94337e-05
9.29659e-06
1.92596e-05
7.97008e-06
1.89315e-05
6.9619e-06
1.87394e-05
6.24024e-06
1.86221e-05
5.76457e-06
1.85162e-05
5.49793e-06
1.8396e-05
5.41126e-06
1.82439e-05
5.48104e-06
1.80453e-05
5.68803e-06
1.77878e-05
6.01603e-06
1.74605e-05
6.45081e-06
1.7053e-05
6.97928e-06
1.65551e-05
7.58859e-06
1.59565e-05
8.26586e-06
1.52479e-05
8.99647e-06
1.44198e-05
1.34682e-05
9.76772e-06
1.57226e-06
4.59894e-05
9.22067e-06
6.00364e-05
1.5995e-05
4.50739e-05
1.75584e-05
2.96022e-05
1.53222e-05
2.30652e-05
1.25218e-05
2.19058e-05
1.04798e-05
2.14758e-05
8.98079e-06
2.07586e-05
7.78258e-06
2.01296e-05
6.84522e-06
1.96767e-05
6.14996e-06
1.93173e-05
5.66615e-06
1.9e-05
5.36546e-06
1.86967e-05
5.22437e-06
1.8385e-05
5.2228e-06
1.80466e-05
5.3437e-06
1.76666e-05
5.57227e-06
1.72316e-05
5.89456e-06
1.67305e-05
6.29821e-06
1.61513e-05
6.77104e-06
1.54835e-05
7.30055e-06
1.47181e-05
7.87458e-06
1.38456e-05
1.28619e-05
8.48087e-06
2.33138e-06
4.36583e-05
9.37503e-06
5.29931e-05
1.45728e-05
3.98761e-05
1.51482e-05
2.90269e-05
1.31365e-05
2.5077e-05
1.105e-05
2.39924e-05
9.51153e-06
2.30143e-05
8.28236e-06
2.19877e-05
7.25388e-06
2.11579e-05
6.42708e-06
2.05034e-05
5.79273e-06
1.99516e-05
5.33096e-06
1.94617e-05
5.02267e-06
1.90049e-05
4.85033e-06
1.8557e-05
4.79805e-06
1.80984e-05
4.85159e-06
1.76126e-05
4.99778e-06
1.7085e-05
5.22358e-06
1.65044e-05
5.51851e-06
1.58561e-05
5.87024e-06
1.51316e-05
6.26681e-06
1.43213e-05
6.69686e-06
1.34154e-05
1.2407e-05
7.15182e-06
2.69527e-06
4.09633e-05
8.77715e-06
4.69113e-05
1.24202e-05
3.62329e-05
1.23637e-05
2.90833e-05