/*--------------------------------*- C++ -*----------------------------------*\
| =========                 |                                                 |
| \\      /  F ield         | OpenFOAM: The Open Source CFD Toolbox           |
|  \\    /   O peration     | Version:  2206                                  |
|   \\  /    A nd           | Website:  www.openfoam.com                      |
|    \\/     M anipulation  |                                                 |
\*---------------------------------------------------------------------------*/
FoamFile
{
    version     2.0;
    format      ascii;
    arch        "LSB;label=32;scalar=64";
    class       volVectorField;
    location    "0.925";
    object      U;
}
// * * * * * * * * * * * * * * * * * * * * * * * * * * * * * * * * * * * * * //

dimensions      [0 1 -1 0 0 0 0];

internalField   nonuniform List<vector> 
2268
(
(-0.00666533 0.00381221 0)
(-0.000656419 -0.00857601 0)
(0.0118915 -0.0135387 0)
(0.0241484 -0.0104565 0)
(0.0319779 -0.00542238 0)
(0.0350428 -0.00153031 0)
(0.0352123 0.000564572 0)
(0.0344481 0.00127233 0)
(0.0337846 0.00136369 0)
(0.0334177 0.00145265 0)
(0.0331355 0.00180972 0)
(0.0326779 0.00246035 0)
(0.0318642 0.00328617 0)
(0.0306028 0.00414695 0)
(0.0289678 0.00496487 0)
(0.0268156 0.00575978 0)
(0.0248219 0.00600865 0)
(0.0219264 0.00571601 0)
(0.0214563 0.00295324 0)
(0.0189183 0.00208754 0)
(0.0201404 -0.00341616 0)
(0.0263963 -0.0114553 0)
(0.0263698 0.0217997 0)
(-0.0081252 0.0110883 0)
(0.0012056 -0.0269231 0)
(0.0102999 -0.0376634 0)
(0.0211094 -0.0282547 0)
(0.0275038 -0.0145203 0)
(0.0301714 -0.00443568 0)
(0.0309599 0.000340158 0)
(0.0313049 0.00125741 0)
(0.0319598 0.000526126 0)
(0.0330439 -0.000315181 0)
(0.0344838 -0.000639167 0)
(0.0361249 -0.000407834 0)
(0.0378709 0.000184386 0)
(0.0396189 0.000907843 0)
(0.0415504 0.00160189 0)
(0.0430934 0.00217679 0)
(0.0458692 0.0025415 0)
(0.0469973 0.0026002 0)
(0.0520552 0.00188368 0)
(0.0515373 0.00187197 0)
(0.063196 -0.00186234 0)
(0.059101 0.00697528 0)
(0.047269 0.0839655 0)
(-0.00670385 0.0179017 0)
(0.0013737 -0.0424429 0)
(0.00713292 -0.0560551 0)
(0.0154807 -0.0413765 0)
(0.0204389 -0.0217121 0)
(0.0236695 -0.00773939 0)
(0.0261786 -0.00147242 0)
(0.0284764 -0.000565928 0)
(0.0307751 -0.00185348 0)
(0.0330056 -0.00321337 0)
(0.0350622 -0.00383306 0)
(0.0368728 -0.00371666 0)
(0.0384737 -0.00313514 0)
(0.0399017 -0.00242698 0)
(0.0412975 -0.00195264 0)
(0.0426506 -0.00222472 0)
(0.0449122 -0.00336279 0)
(0.0462449 -0.00651825 0)
(0.0526718 -0.0107435 0)
(0.0550447 -0.021798 0)
(0.0734876 -0.0332737 0)
(0.0591611 0.0285083 0)
(0.043956 0.179929 0)
(-0.00469228 0.0223661 0)
(-0.00228137 -0.0500997 0)
(-0.00169076 -0.0671912 0)
(0.00607836 -0.0511313 0)
(0.0114599 -0.0303288 0)
(0.0166654 -0.0158469 0)
(0.0217144 -0.0092304 0)
(0.0264266 -0.00784296 0)
(0.0307392 -0.00848298 0)
(0.0345671 -0.00901989 0)
(0.0378354 -0.00868907 0)
(0.0404406 -0.00757367 0)
(0.0422251 -0.00612051 0)
(0.0429865 -0.00479059 0)
(0.042632 -0.00393941 0)
(0.0412712 -0.00403595 0)
(0.0392042 -0.00570057 0)
(0.0361788 -0.00987885 0)
(0.0323848 -0.0174676 0)
(0.0302415 -0.0360395 0)
(0.0254035 -0.0311787 0)
(0.00592406 0.0981473 0)
(0.0130211 0.265837 0)
(-0.0036849 0.0316438 0)
(-0.00984453 -0.0459593 0)
(-0.0166767 -0.0722572 0)
(-0.00873068 -0.0624533 0)
(0.000490388 -0.0428061 0)
(0.0103984 -0.0279435 0)
(0.0188503 -0.0203508 0)
(0.0261012 -0.0177169 0)
(0.0323447 -0.0170619 0)
(0.0375858 -0.0162247 0)
(0.0417651 -0.0142732 0)
(0.0448119 -0.0111368 0)
(0.0467135 -0.00699151 0)
(0.0474568 -0.00216273 0)
(0.0468772 0.00271203 0)
(0.0445686 0.00680457 0)
(0.0401247 0.00933954 0)
(0.0330811 0.00979878 0)
(0.0232271 0.00806178 0)
(0.0071967 -0.00154947 0)
(-0.0235809 -0.00184151 0)
(-0.0350818 0.115387 0)
(-0.0119981 0.233239 0)
(-0.00207225 0.0442666 0)
(-0.00678562 -0.030219 0)
(-0.0113641 -0.0717903 0)
(-0.00584671 -0.07871 0)
(0.00342984 -0.0640657 0)
(0.0147145 -0.047032 0)
(0.0244507 -0.0364395 0)
(0.0322289 -0.0320754 0)
(0.0390725 -0.0302968 0)
(0.045414 -0.0281453 0)
(0.0510903 -0.0243471 0)
(0.0561588 -0.0187996 0)
(0.0604849 -0.0123814 0)
(0.0632337 -0.00608824 0)
(0.0631309 1.15618e-05 0)
(0.0594275 0.00647698 0)
(0.0522337 0.0136953 0)
(0.0417849 0.0217583 0)
(0.0276057 0.0314629 0)
(0.0102988 0.0411266 0)
(-0.0179009 0.0434893 0)
(-0.0316194 0.0844372 0)
(-0.0153265 0.153488 0)
(0.010326 0.0424715 0)
(0.0341512 -0.0193542 0)
(0.0477044 -0.0706838 0)
(0.0454164 -0.0875841 0)
(0.0412207 -0.0807833 0)
(0.0423989 -0.0635788 0)
(0.0478287 -0.0487333 0)
(0.0540175 -0.0416657 0)
(0.0597762 -0.0397119 0)
(0.0658682 -0.0373199 0)
(0.0709299 -0.0328595 0)
(0.0727269 -0.0279448 0)
(0.0714249 -0.0205398 0)
(0.0690568 -0.00761008 0)
(0.0665849 0.00943467 0)
(0.0625632 0.0266788 0)
(0.0552876 0.0419129 0)
(0.0453765 0.0554636 0)
(0.0340392 0.0692294 0)
(0.0224701 0.0804989 0)
(0.00715821 0.0838213 0)
(0.00254166 0.0898985 0)
(0.00235277 0.139596 0)
(0.0382812 -0.0585142 0)
(0.085631 -0.108757 0)
(0.0806822 -0.11657 0)
(0.0639848 -0.108909 0)
(0.0509213 -0.100811 0)
(0.0486282 -0.0914814 0)
(0.05611 -0.0798368 0)
(0.0670666 -0.0688485 0)
(0.0765426 -0.0618255 0)
(0.0845349 -0.0579795 0)
(0.0903252 -0.0472756 0)
(0.0919074 -0.0255832 0)
(0.0870592 -0.00627799 0)
(0.0791745 0.00500416 0)
(0.0717897 0.0148234 0)
(0.0674263 0.0288331 0)
(0.0653115 0.0464449 0)
(0.0640832 0.0629145 0)
(0.0597273 0.0784366 0)
(0.0551956 0.0903985 0)
(0.0496573 0.094505 0)
(0.0524239 0.0919224 0)
(0.00908934 0.182398 0)
(0.0745931 -0.113049 0)
(0.275132 -0.207732 0)
(0.538184 -0.217542 0)
(0.798489 -0.166789 0)
(0.933432 -0.0895395 0)
(0.917808 -0.0278215 0)
(0.741582 -0.00128799 0)
(0.478237 -0.0981615 0)
(0.407765 -0.0818026 0)
(0.250048 0.0338456 0)
(-0.143532 0.0205941 0)
(-0.135074 -0.142395 0)
(-0.00014919 -0.218375 0)
(0.149084 -0.190278 0)
(0.241202 -0.111696 0)
(0.218213 -0.0288039 0)
(0.0386216 0.0353673 0)
(-0.148059 -0.00592865 0)
(-0.115321 -0.105612 0)
(0.053466 -0.281473 0)
(0.265694 -0.453679 0)
(0.400639 -0.463031 0)
(0.573147 -0.299383 0)
(0.737759 -0.0675917 0)
(0.856852 0.167392 0)
(0.680317 0.436613 0)
(0.658703 0.348453 0)
(0.564122 0.274974 0)
(0.459717 0.389255 0)
(0.211385 0.260187 0)
(0.281529 0.0400371 0)
(0.232066 -0.0886576 0)
(0.198689 -0.121167 0)
(0.29327 0.0479597 0)
(0.276995 0.188483 0)
(0.140248 0.260059 0)
(-0.0759697 0.103942 0)
(-0.0886424 -0.192199 0)
(0.114768 -0.498599 0)
(0.595472 -0.409253 0)
(0.407415 -0.495074 0)
(0.362269 -0.390284 0)
(0.381283 -0.155192 0)
(0.182164 0.206589 0)
(0.295049 0.194733 0)
(0.523579 0.24089 0)
(0.440444 0.422164 0)
(0.388254 0.431229 0)
(0.34936 0.311956 0)
(0.223987 0.0938667 0)
(0.184251 -0.0816456 0)
(-0.130059 -0.26826 0)
(-0.102481 0.0579944 0)
(-0.0409619 0.424968 0)
(-0.039345 0.40318 0)
(0.0521973 0.236704 0)
(-0.0781621 -0.206511 0)
(0.0872995 -1.13504 0)
(0.594524 -0.690662 0)
(0.62016 -0.266516 0)
(0.267605 -0.314478 0)
(0.172063 0.171202 0)
(0.319155 0.0606355 0)
(0.364734 -0.162305 0)
(0.3321 0.137357 0)
(0.183341 0.625477 0)
(0.0693319 0.392894 0)
(0.0217793 0.262848 0)
(0.114319 0.184881 0)
(-0.328434 0.342243 0)
(-0.0787263 -0.263387 0)
(0.0888461 0.00670575 0)
(0.0298457 -0.0682331 0)
(-0.238086 0.429698 0)
(0.0399124 0.166913 0)
(-0.0917135 -0.221391 0)
(-0.153111 -1.50302 0)
(0.103977 -0.845219 0)
(0.125091 -0.33324 0)
(0.0622111 -0.209483 0)
(0.175993 -0.0307126 0)
(0.181096 -0.111727 0)
(-0.133686 0.20882 0)
(-0.256907 0.487085 0)
(-0.263382 0.524332 0)
(-0.271269 0.39941 0)
(-0.404302 0.385979 0)
(-0.787727 0.527055 0)
(-0.604534 -0.166504 0)
(-0.194594 -0.601743 0)
(-0.00689519 0.010392 0)
(-0.092101 0.47115 0)
(-0.289074 0.511807 0)
(-0.128406 -0.14521 0)
(-0.0633677 -0.341861 0)
(-0.358285 -1.1203 0)
(-0.337654 -0.615192 0)
(-0.364316 -0.371605 0)
(-0.373508 -0.148737 0)
(-0.469973 0.0710585 0)
(-0.585454 0.262705 0)
(-0.648834 0.447818 0)
(-0.608102 0.49934 0)
(-0.573468 0.555883 0)
(-0.80882 0.660078 0)
(-1.01133 0.711132 0)
(-0.900697 0.281946 0)
(-0.411844 -0.519798 0)
(-0.125872 -0.808879 0)
(-0.143911 -0.121259 0)
(-0.282586 0.571022 0)
(-0.11239 0.472166 0)
(-0.0900926 -0.131973 0)
(-0.0110378 -0.431734 0)
(-0.525635 -0.58857 0)
(-0.689814 -0.367715 0)
(-0.863505 -0.196821 0)
(-0.955039 0.0569341 0)
(-0.967781 0.250858 0)
(-0.921832 0.311335 0)
(-0.853892 0.297639 0)
(-0.865074 0.408611 0)
(-0.819608 0.723367 0)
(-0.758873 0.802646 0)
(-0.659817 0.69154 0)
(-0.396454 0.145683 0)
(0.0726712 -0.74262 0)
(0.144464 -0.966144 0)
(0.0846533 0.00761957 0)
(-0.444658 0.685546 0)
(0.0464885 0.0293735 0)
(-0.0607682 -0.0703963 0)
(0.0240343 -0.46629 0)
(-0.607669 -0.0848897 0)
(-0.678563 -0.210141 0)
(-0.827715 -0.154211 0)
(-0.921464 -0.0111595 0)
(-0.985517 0.0163866 0)
(-0.985618 0.0512025 0)
(-0.950714 0.185827 0)
(-0.841943 0.278015 0)
(-0.662585 0.411776 0)
(-0.492326 0.508749 0)
(-0.286496 0.298457 0)
(0.018601 -0.236941 0)
(0.468867 -0.98672 0)
(0.25212 -0.836363 0)
(0.283279 0.283953 0)
(-0.105535 0.79403 0)
(0.242184 -0.269525 0)
(-0.138497 -0.0591394 0)
(0.0693528 -0.435668 0)
(0.00430139 -0.176286 0)
(-0.0553238 -0.0435937 0)
(-0.158857 -0.0224757 0)
(-0.137433 -0.0411793 0)
(-0.110181 -0.0641122 0)
(-0.0807586 -0.0810663 0)
(-0.0516941 -0.0841453 0)
(-0.0237716 -0.0774351 0)
(0.0144658 -0.0671128 0)
(0.0579042 -0.0525609 0)
(0.0925812 -0.0331327 0)
(0.110361 -0.0116424 0)
(0.11584 0.00886135 0)
(0.117408 0.025748 0)
(0.116039 0.0357936 0)
(0.115414 0.04175 0)
(0.11695 0.0527778 0)
(0.120424 0.0683072 0)
(0.118483 0.0847537 0)
(0.116952 0.0957577 0)
(0.107944 0.0985406 0)
(0.101027 0.115305 0)
(0.0755753 0.207902 0)
(-0.0447906 -0.0794118 0)
(-0.030049 0.0612223 0)
(-0.0438136 -0.00670223 0)
(0.00645861 -0.0710957 0)
(0.0127213 -0.0938464 0)
(-0.00312089 -0.0870064 0)
(-0.0535913 -0.085185 0)
(-0.116424 -0.0912218 0)
(-0.161536 -0.119784 0)
(-0.168566 -0.146897 0)
(-0.0501137 -0.150905 0)
(0.0828507 -0.0515691 0)
(0.156702 -0.0132581 0)
(0.19604 0.0056823 0)
(0.214578 0.0214255 0)
(0.22491 0.0327129 0)
(0.230132 0.045732 0)
(0.227506 0.0626263 0)
(0.214586 0.0813914 0)
(0.185776 0.10746 0)
(0.132091 0.13149 0)
(0.115866 0.14532 0)
(0.0958847 0.125705 0)
(-0.0703765 -0.040227 0)
(-0.0490661 -0.00485532 0)
(-0.0173048 -0.0727961 0)
(0.00596138 -0.116739 0)
(0.0257091 -0.0998824 0)
(0.0457998 -0.069939 0)
(0.0640446 -0.0499319 0)
(0.103482 -0.0614891 0)
(0.136775 -0.103994 0)
(0.159812 -0.138679 0)
(0.168454 -0.239906 0)
(0.185086 -0.266063 0)
(0.250575 -0.129845 0)
(0.297318 -0.0403607 0)
(0.28503 -0.00536211 0)
(0.252933 -0.00246868 0)
(0.213344 0.0267299 0)
(0.101014 0.0886077 0)
(0.0688177 0.134388 0)
(0.0434271 0.149297 0)
(-0.00474037 0.166673 0)
(-0.432431 0.151601 0)
(-0.779622 0.412968 0)
(-0.0704912 0.018485 0)
(-0.0562096 -0.0169181 0)
(-0.0396265 -0.0965392 0)
(-0.025245 -0.127416 0)
(-0.0114488 -0.117547 0)
(0.00653682 -0.0975668 0)
(0.0256271 -0.0962265 0)
(0.0380944 -0.106385 0)
(0.0298817 -0.117279 0)
(0.00549957 -0.137381 0)
(-0.0346245 -0.17698 0)
(-0.0696612 -0.191929 0)
(-0.0677837 -0.136045 0)
(-0.038334 -0.032581 0)
(-0.0414627 0.0569952 0)
(-0.113656 0.144818 0)
(-0.231751 0.200797 0)
(-0.329046 0.168381 0)
(-0.417561 0.213421 0)
(-0.537261 0.407909 0)
(-0.602337 0.548251 0)
(-0.823393 0.507749 0)
(-0.943374 0.529015 0)
(-0.0585965 0.0770452 0)
(-0.0271856 -0.00991899 0)
(-0.0287454 -0.106326 0)
(-0.013878 -0.144821 0)
(-0.00542605 -0.140083 0)
(3.29347e-05 -0.12134 0)
(-0.0020841 -0.10458 0)
(-0.0161251 -0.0893325 0)
(-0.0371929 -0.0878192 0)
(-0.070731 -0.10923 0)
(-0.123737 -0.146562 0)
(-0.18259 -0.165724 0)
(-0.225582 -0.132323 0)
(-0.247068 -0.0302715 0)
(-0.271969 0.115651 0)
(-0.324339 0.238869 0)
(-0.39938 0.277622 0)
(-0.469496 0.228224 0)
(-0.513363 0.238957 0)
(-0.51808 0.401782 0)
(-0.545079 0.608161 0)
(-0.602896 0.641686 0)
(-0.630266 0.622055 0)
(-0.0457664 0.104072 0)
(-0.0205163 -0.0179118 0)
(-0.0398008 -0.114264 0)
(-0.029906 -0.149728 0)
(-0.0335884 -0.130753 0)
(-0.0432513 -0.098542 0)
(-0.0601681 -0.0749915 0)
(-0.0801747 -0.0609266 0)
(-0.101301 -0.0557886 0)
(-0.130995 -0.0634764 0)
(-0.177462 -0.0853003 0)
(-0.238538 -0.102039 0)
(-0.301323 -0.0782297 0)
(-0.350293 0.0134584 0)
(-0.382329 0.159556 0)
(-0.410753 0.291444 0)
(-0.449265 0.329921 0)
(-0.496636 0.289287 0)
(-0.526329 0.288374 0)
(-0.501195 0.391285 0)
(-0.449976 0.537691 0)
(-0.408678 0.632504 0)
(-0.353872 0.682826 0)
(-0.0403792 0.138486 0)
(-0.0356655 -0.00141956 0)
(-0.0479045 -0.116803 0)
(-0.0456415 -0.149159 0)
(-0.0574557 -0.123917 0)
(-0.0726515 -0.0901794 0)
(-0.0913511 -0.0638736 0)
(-0.113458 -0.0432764 0)
(-0.139222 -0.0295073 0)
(-0.170538 -0.0251894 0)
(-0.212689 -0.0302963 0)
(-0.268698 -0.0351968 0)
(-0.332618 -0.0142116 0)
(-0.386827 0.0611952 0)
(-0.414203 0.187992 0)
(-0.418507 0.310389 0)
(-0.421807 0.354433 0)
(-0.43625 0.321754 0)
(-0.44718 0.302529 0)
(-0.429265 0.356511 0)
(-0.376167 0.449688 0)
(-0.300908 0.524682 0)
(-0.208746 0.572567 0)
(-0.0369923 0.175213 0)
(-0.0331453 0.00765974 0)
(-0.0527542 -0.109006 0)
(-0.0591749 -0.136241 0)
(-0.0788185 -0.100916 0)
(-0.100773 -0.0608624 0)
(-0.124702 -0.0312876 0)
(-0.148526 -0.0104494 0)
(-0.173014 0.00394397 0)
(-0.200357 0.0133752 0)
(-0.2345 0.0189744 0)
(-0.279109 0.0254093 0)
(-0.331742 0.0463413 0)
(-0.378608 0.102251 0)
(-0.399232 0.197396 0)
(-0.38737 0.295785 0)
(-0.362646 0.340161 0)
(-0.347628 0.320678 0)
(-0.344475 0.298888 0)
(-0.339106 0.328054 0)
(-0.311607 0.389689 0)
(-0.254108 0.435747 0)
(-0.175914 0.451116 0)
(-0.0330229 0.210144 0)
(-0.0380059 0.0279907 0)
(-0.0613262 -0.096804 0)
(-0.0717912 -0.118531 0)
(-0.0954558 -0.0779935 0)
(-0.119148 -0.0385002 0)
(-0.143238 -0.0100577 0)
(-0.166132 0.0116326 0)
(-0.18891 0.0290643 0)
(-0.213075 0.0434967 0)
(-0.240429 0.0563887 0)
(-0.272878 0.0709483 0)
(-0.310032 0.0937354 0)
(-0.343975 0.134651 0)
(-0.358913 0.197829 0)
(-0.344526 0.26563 0)
(-0.311915 0.303923 0)
(-0.285398 0.302211 0)
(-0.277338 0.295134 0)
(-0.277454 0.316175 0)
(-0.264354 0.354869 0)
(-0.2293 0.381389 0)
(-0.180447 0.38351 0)
(-0.0284834 0.24484 0)
(-0.0402167 0.0516495 0)
(-0.065222 -0.0797465 0)
(-0.0793469 -0.0965139 0)
(-0.104511 -0.0506444 0)
(-0.128769 -0.00992651 0)
(-0.152548 0.0174924 0)
(-0.174006 0.0372723 0)
(-0.194061 0.0534195 0)
(-0.213935 0.0683877 0)
(-0.234766 0.0839411 0)
(-0.257181 0.101963 0)
(-0.280794 0.125213 0)
(-0.301808 0.157087 0)
(-0.311663 0.198592 0)
(-0.302747 0.242088 0)
(-0.279334 0.272499 0)
(-0.257912 0.284436 0)
(-0.249943 0.292716 0)
(-0.248532 0.311078 0)
(-0.238963 0.333394 0)
(-0.21736 0.346842 0)
(-0.190137 0.345513 0)
(-0.024165 0.27906 0)
(-0.0410736 0.0779455 0)
(-0.0675195 -0.0590753 0)
(-0.0834911 -0.073383 0)
(-0.108561 -0.025016 0)
(-0.13166 0.014555 0)
(-0.153191 0.0400002 0)
(-0.172118 0.0582808 0)
(-0.189461 0.0735458 0)
(-0.205717 0.0881589 0)
(-0.221509 0.103846 0)
(-0.237025 0.122011 0)
(-0.251769 0.143907 0)
(-0.263947 0.170297 0)
(-0.270018 0.200381 0)
(-0.266651 0.230412 0)
(-0.255391 0.254951 0)
(-0.24384 0.272517 0)
(-0.237825 0.287936 0)
(-0.234161 0.304482 0)
(-0.226475 0.318865 0)
(-0.214248 0.326686 0)
(-0.201201 0.324887 0)
(-0.0201126 0.311736 0)
(-0.0404962 0.105989 0)
(-0.0673679 -0.0368005 0)
(-0.083947 -0.0499197 0)
(-0.107756 -0.00010484 0)
(-0.129199 0.038205 0)
(-0.148498 0.0609339 0)
(-0.164771 0.076563 0)
(-0.179159 0.0900426 0)
(-0.192213 0.103588 0)
(-0.204342 0.118463 0)
(-0.215566 0.135542 0)
(-0.225459 0.155388 0)
(-0.233089 0.178012 0)
(-0.237174 0.20239 0)
(-0.236856 0.226344 0)
(-0.233026 0.247675 0)
(-0.228428 0.266068 0)
(-0.225036 0.282878 0)
(-0.221984 0.298279 0)
(-0.217877 0.310583 0)
(-0.213478 0.3181 0)
(-0.210766 0.318386 0)
(-0.0160149 0.342022 0)
(-0.0393009 0.134833 0)
(-0.0656636 -0.0139689 0)
(-0.0824016 -0.027238 0)
(-0.104134 0.0225377 0)
(-0.123548 0.0591689 0)
(-0.140557 0.0791334 0)
(-0.154515 0.0921105 0)
(-0.16644 0.103594 0)
(-0.176944 0.11577 0)
(-0.186448 0.129568 0)
(-0.19499 0.145413 0)
(-0.202304 0.163439 0)
(-0.207881 0.183443 0)
(-0.211214 0.204668 0)
(-0.212231 0.225814 0)
(-0.211613 0.245656 0)
(-0.210481 0.263842 0)
(-0.209576 0.280674 0)
(-0.209047 0.295968 0)
(-0.209206 0.308883 0)
(-0.211068 0.318439 0)
(-0.216266 0.322553 0)
(-0.0118403 0.3697 0)
(-0.0386277 0.163666 0)
(-0.0631053 0.00857228 0)
(-0.079928 -0.00567041 0)
(-0.0991243 0.0430569 0)
(-0.116485 0.0778389 0)
(-0.131356 0.0949752 0)
(-0.143346 0.105293 0)
(-0.153386 0.114813 0)
(-0.162066 0.125635 0)
(-0.169775 0.138372 0)
(-0.176585 0.153113 0)
(-0.182362 0.169732 0)
(-0.186852 0.187937 0)
(-0.189845 0.207202 0)
(-0.191407 0.226759 0)
(-0.192031 0.245847 0)
(-0.192439 0.264064 0)
(-0.193278 0.281365 0)
(-0.195128 0.297654 0)
(-0.198666 0.312566 0)
(-0.204974 0.325536 0)
(-0.216042 0.335011 0)
(-0.00817666 0.39547 0)
(-0.0392229 0.192 0)
(-0.0607721 0.0304082 0)
(-0.0776644 0.0144041 0)
(-0.094069 0.0612573 0)
(-0.109372 0.0942137 0)
(-0.122246 0.108752 0)
(-0.132528 0.116603 0)
(-0.14109 0.124308 0)
(-0.148441 0.133881 0)
(-0.154896 0.145634 0)
(-0.160508 0.159395 0)
(-0.165204 0.174884 0)
(-0.168871 0.191787 0)
(-0.171448 0.209724 0)
(-0.173047 0.228244 0)
(-0.174028 0.246907 0)
(-0.174959 0.265423 0)
(-0.176527 0.283713 0)
(-0.179527 0.301791 0)
(-0.184759 0.319626 0)
(-0.193383 0.337144 0)
(-0.207774 0.353794 0)
(-0.00602274 0.420858 0)
(-0.0411719 0.219668 0)
(-0.0597037 0.0512925 0)
(-0.0763756 0.0326909 0)
(-0.0899202 0.0770912 0)
(-0.103074 0.108305 0)
(-0.114027 0.120574 0)
(-0.122719 0.126284 0)
(-0.129955 0.132407 0)
(-0.13616 0.140869 0)
(-0.141562 0.151715 0)
(-0.146171 0.164566 0)
(-0.149926 0.179064 0)
(-0.152769 0.194913 0)
(-0.154714 0.211849 0)
(-0.155892 0.229621 0)
(-0.156599 0.248021 0)
(-0.157278 0.266936 0)
(-0.158546 0.286391 0)
(-0.161235 0.306557 0)
(-0.166194 0.327699 0)
(-0.174493 0.350277 0)
(-0.1884 0.375483 0)
(-0.00607877 0.447622 0)
(-0.0440356 0.246769 0)
(-0.0605449 0.071219 0)
(-0.0765182 0.0489412 0)
(-0.0872297 0.0904519 0)
(-0.0981336 0.120102 0)
(-0.107146 0.130441 0)
(-0.114203 0.134349 0)
(-0.120062 0.139137 0)
(-0.125057 0.146634 0)
(-0.129343 0.156644 0)
(-0.13289 0.168637 0)
(-0.135631 0.182211 0)
(-0.137526 0.197118 0)
(-0.138601 0.21319 0)
(-0.138974 0.230317 0)
(-0.138872 0.248452 0)
(-0.13862 0.267646 0)
(-0.138671 0.288075 0)
(-0.139705 0.310076 0)
(-0.142471 0.334144 0)
(-0.147708 0.361133 0)
(-0.156913 0.394056 0)
(-0.0082413 0.477201 0)
(-0.0473222 0.273626 0)
(-0.0635549 0.0904019 0)
(-0.0784082 0.0630516 0)
(-0.0863059 0.101171 0)
(-0.0947604 0.12949 0)
(-0.101754 0.138259 0)
(-0.107056 0.140666 0)
(-0.111379 0.144343 0)
(-0.114981 0.15101 0)
(-0.117963 0.160262 0)
(-0.120269 0.171451 0)
(-0.121826 0.184159 0)
(-0.122589 0.19818 0)
(-0.122568 0.213427 0)
(-0.12183 0.22988 0)
(-0.120508 0.247599 0)
(-0.118794 0.266752 0)
(-0.116933 0.287638 0)
(-0.115304 0.310716 0)
(-0.114395 0.336599 0)
(-0.114536 0.366229 0)
(-0.116165 0.403279 0)
(-0.0117988 0.510526 0)
(-0.0508985 0.300868 0)
(-0.0687881 0.109346 0)
(-0.0822671 0.0750666 0)
(-0.0873215 0.10907 0)
(-0.0930257 0.136316 0)
(-0.0978431 0.143891 0)
(-0.101214 0.14506 0)
(-0.10381 0.147814 0)
(-0.105823 0.153777 0)
(-0.107312 0.162361 0)
(-0.108201 0.172817 0)
(-0.10841 0.18472 0)
(-0.107879 0.197899 0)
(-0.106584 0.212313 0)
(-0.104521 0.227999 0)
(-0.101714 0.245064 0)
(-0.0982098 0.263728 0)
(-0.0940439 0.284349 0)
(-0.0892543 0.307429 0)
(-0.0839372 0.333594 0)
(-0.0780813 0.363684 0)
(-0.0712459 0.40057 0)
(-0.0159498 0.548126 0)
(-0.0550508 0.329498 0)
(-0.0763493 0.128724 0)
(-0.088428 0.0849662 0)
(-0.0905007 0.113748 0)
(-0.0929688 0.140233 0)
(-0.0953047 0.147103 0)
(-0.0965241 0.147324 0)
(-0.0971947 0.149347 0)
(-0.0974466 0.15475 0)
(-0.097304 0.16278 0)
(-0.0966739 0.172597 0)
(-0.0954549 0.183771 0)
(-0.093556 0.196145 0)
(-0.0909024 0.209704 0)
(-0.0874225 0.224501 0)
(-0.0830351 0.240649 0)
(-0.0776462 0.258357 0)
(-0.0711135 0.277959 0)
(-0.0632026 0.299916 0)
(-0.0535945 0.324764 0)
(-0.041908 0.353167 0)
(-0.0272631 0.386764 0)
(-0.0200797 0.590385 0)
(-0.0602494 0.360907 0)
(-0.08649 0.149351 0)
(-0.0973546 0.0926365 0)
(-0.0961421 0.114522 0)
(-0.0946193 0.140672 0)
(-0.0939561 0.147509 0)
(-0.0927152 0.147192 0)
(-0.0912531 0.148742 0)
(-0.0896234 0.153794 0)
(-0.0877907 0.161438 0)
(-0.085628 0.170751 0)
(-0.0829976 0.181289 0)
(-0.0797662 0.192907 0)
(-0.075799 0.205588 0)
(-0.070958 0.219378 0)
(-0.0650748 0.234368 0)
(-0.0579433 0.250718 0)
(-0.0492881 0.268674 0)
(-0.0387153 0.288573 0)
(-0.0256581 0.310798 0)
(-0.00938771 0.335667 0)
(0.011044 0.364012 0)
(-0.023668 0.637689 0)
(-0.0667339 0.396948 0)
(-0.0994671 0.17216 0)
(-0.109479 0.0978636 0)
(-0.104463 0.110516 0)
(-0.0978535 0.136769 0)
(-0.0935002 0.144606 0)
(-0.089393 0.144387 0)
(-0.0856027 0.145844 0)
(-0.0820313 0.150844 0)
(-0.0785342 0.158344 0)
(-0.0749202 0.167338 0)
(-0.0709912 0.177366 0)
(-0.0665624 0.188291 0)
(-0.0614404 0.200092 0)
(-0.0554248 0.21279 0)
(-0.0482834 0.226448 0)
(-0.0397407 0.241156 0)
(-0.0294483 0.257051 0)
(-0.0169274 0.274297 0)
(-0.00164376 0.293069 0)
(0.0174155 0.313446 0)
(0.041361 0.335433 0)
(-0.0266794 0.689699 0)
(-0.0740628 0.439962 0)
(-0.114907 0.198054 0)
(-0.124377 0.100094 0)
(-0.115354 0.100212 0)
(-0.102397 0.127227 0)
(-0.0933311 0.137712 0)
(-0.0859616 0.13861 0)
(-0.0797432 0.140586 0)
(-0.0742728 0.14595 0)
(-0.0692461 0.153617 0)
(-0.0643593 0.162517 0)
(-0.0593371 0.172189 0)
(-0.0539282 0.182508 0)
(-0.047889 0.193454 0)
(-0.0409723 0.205033 0)
(-0.032907 0.217269 0)
(-0.023387 0.230192 0)
(-0.0120547 0.243847 0)
(0.00156448 0.258231 0)
(0.0180784 0.273264 0)
(0.0381802 0.288976 0)
(0.0632325 0.304775 0)
(-0.0286871 0.744753 0)
(-0.0795528 0.491546 0)
(-0.131075 0.227648 0)
(-0.139949 0.0990937 0)
(-0.12727 0.0820863 0)
(-0.107092 0.110507 0)
(-0.092385 0.126139 0)
(-0.0815104 0.129704 0)
(-0.0729839 0.133051 0)
(-0.0658752 0.139318 0)
(-0.0596119 0.147512 0)
(-0.0537507 0.156557 0)
(-0.0479282 0.166032 0)
(-0.0418279 0.175845 0)
(-0.0351632 0.18599 0)
(-0.0276609 0.196466 0)
(-0.0190409 0.207276 0)
(-0.00898776 0.218407 0)
(0.00282697 0.229822 0)
(0.0168736 0.241377 0)
(0.0337128 0.252903 0)
(0.0536613 0.264227 0)
(0.0779498 0.274838 0)
(-0.0204099 0.80214 0)
(-0.0723653 0.552398 0)
(-0.142046 0.261847 0)
(-0.150198 0.0959984 0)
(-0.136136 0.0561592 0)
(-0.109639 0.0857186 0)
(-0.0889097 0.109699 0)
(-0.0747894 0.117999 0)
(-0.0645285 0.12368 0)
(-0.0563289 0.131401 0)
(-0.0493296 0.140456 0)
(-0.0429303 0.149851 0)
(-0.0366873 0.159256 0)
(-0.0302405 0.168647 0)
(-0.0232804 0.178048 0)
(-0.0155224 0.187469 0)
(-0.00669668 0.196906 0)
(0.0035126 0.206307 0)
(0.0154138 0.215548 0)
(0.0293675 0.224506 0)
(0.0457813 0.232947 0)
(0.0648683 0.240568 0)
(0.0873825 0.246999 0)
(0.0118346 0.839885 0)
(-0.0342836 0.639398 0)
(-0.1308 0.306947 0)
(-0.14358 0.095789 0)
(-0.133541 0.0255112 0)
(-0.105791 0.0539427 0)
(-0.0806224 0.0891876 0)
(-0.0644341 0.104508 0)
(-0.0536124 0.113403 0)
(-0.0452245 0.122957 0)
(-0.038188 0.133066 0)
(-0.0318052 0.142912 0)
(-0.0255936 0.152297 0)
(-0.0191797 0.161297 0)
(-0.0122605 0.169986 0)
(-0.00456257 0.178403 0)
(0.00418671 0.186511 0)
(0.0142559 0.194253 0)
(0.0258822 0.201519 0)
(0.039322 0.208184 0)
(0.0548411 0.214 0)
(0.0726415 0.218655 0)
(0.0930383 0.221776 0)
(0.0542447 0.810772 0)
(0.0326028 0.749659 0)
(-0.0759464 0.379564 0)
(-0.108177 0.111063 0)
(-0.109663 0.000224888 0)
(-0.0898232 0.0203932 0)
(-0.0651779 0.0671458 0)
(-0.0493388 0.0910951 0)
(-0.0397743 0.103605 0)
(-0.0323942 0.114996 0)
(-0.02616 0.126101 0)
(-0.0204113 0.136317 0)
(-0.0147027 0.145619 0)
(-0.00870166 0.154197 0)
(-0.00213791 0.162152 0)
(0.00524216 0.169547 0)
(0.0136511 0.176376 0)
(0.0232895 0.1826 0)
(0.0343319 0.188123 0)
(0.0469643 0.192807 0)
(0.0613469 0.196426 0)
(0.0776343 0.19871 0)
(0.0959061 0.19928 0)
(0.0833458 0.715585 0)
(0.0991337 0.820184 0)
(0.0104474 0.47924 0)
(-0.0443123 0.152805 0)
(-0.0625503 -0.00675876 0)
(-0.0592783 -0.00467175 0)
(-0.0416628 0.0484014 0)
(-0.0295315 0.0802482 0)
(-0.0232631 0.0959428 0)
(-0.0181128 0.108621 0)
(-0.0134943 0.120348 0)
(-0.00895682 0.13065 0)
(-0.00416327 0.139675 0)
(0.00109733 0.147674 0)
(0.00702619 0.154816 0)
(0.0138358 0.161187 0)
(0.0216552 0.166807 0)
(0.0306276 0.171643 0)
(0.0408752 0.175618 0)
(0.0525221 0.178599 0)
(0.0656496 0.180391 0)
(0.0803454 0.180765 0)
(0.0965918 0.1794 0)
(0.0814197 0.589592 0)
(0.134313 0.831158 0)
(0.083002 0.560432 0)
(0.0281949 0.211394 0)
(-0.00119228 0.00863246 0)
(-0.0173163 -0.0123673 0)
(-0.01277 0.038132 0)
(-0.00703209 0.0739835 0)
(-0.00521819 0.0917606 0)
(-0.00313315 0.104779 0)
(-0.000701931 0.116381 0)
(0.00219038 0.126345 0)
(0.00574724 0.1348 0)
(0.0100153 0.142031 0)
(0.0151064 0.148268 0)
(0.0211333 0.153591 0)
(0.0281774 0.158034 0)
(0.0363224 0.16158 0)
(0.0456383 0.164163 0)
(0.0561911 0.165671 0)
(0.0680048 0.165939 0)
(0.0811088 0.164772 0)
(0.095439 0.161932 0)
(0.0523191 0.476363 0)
(0.128921 0.800197 0)
(0.114288 0.601455 0)
(0.0816276 0.262842 0)
(0.0561326 0.0393666 0)
(0.0278711 -0.00337216 0)
(0.0158418 0.0386113 0)
(0.0147211 0.0740667 0)
(0.0128325 0.0917927 0)
(0.0114316 0.103963 0)
(0.011434 0.114621 0)
(0.0125739 0.123708 0)
(0.0147204 0.13124 0)
(0.0178484 0.137503 0)
(0.0219626 0.142701 0)
(0.0270839 0.146924 0)
(0.0332372 0.150207 0)
(0.0404491 0.152539 0)
(0.0487408 0.153865 0)
(0.0581286 0.154091 0)
(0.0685961 0.153081 0)
(0.0801282 0.15067 0)
(0.09263 0.146685 0)
(0.0167479 0.400473 0)
(0.0974624 0.749605 0)
(0.111318 0.60296 0)
(0.109775 0.291665 0)
(0.0960803 0.0704217 0)
(0.0647628 0.0164163 0)
(0.0422499 0.0493918 0)
(0.0340207 0.0806219 0)
(0.0286164 0.0958057 0)
(0.024396 0.106065 0)
(0.0222021 0.115141 0)
(0.0216472 0.122815 0)
(0.0224229 0.129079 0)
(0.0244016 0.134155 0)
(0.0275001 0.138195 0)
(0.0316673 0.141274 0)
(0.0368717 0.143415 0)
(0.0430904 0.144605 0)
(0.0503031 0.144796 0)
(0.0584865 0.143905 0)
(0.0675943 0.141821 0)
(0.0775787 0.138406 0)
(0.0883237 0.133538 0)
(-0.0081312 0.362248 0)
(0.0608997 0.691575 0)
(0.0959251 0.572803 0)
(0.122052 0.294361 0)
(0.119532 0.0942356 0)
(0.0892107 0.0426795 0)
(0.0622844 0.0675224 0)
(0.0493217 0.0916531 0)
(0.0411385 0.102868 0)
(0.0348957 0.110589 0)
(0.0309921 0.117583 0)
(0.0290182 0.123483 0)
(0.0285961 0.128227 0)
(0.029522 0.131955 0)
(0.0316509 0.134755 0)
(0.0348788 0.136667 0)
(0.0391285 0.137697 0)
(0.0443401 0.13782 0)
(0.050461 0.136989 0)
(0.0574386 0.135128 0)
(0.0652039 0.132146 0)
(0.0736871 0.12793 0)
(0.0827606 0.122393 0)
(-0.0181371 0.349421 0)
(0.0339814 0.631601 0)
(0.0853154 0.521743 0)
(0.127715 0.278173 0)
(0.130354 0.111506 0)
(0.101791 0.0711713 0)
(0.0745739 0.0893217 0)
(0.0596788 0.105191 0)
(0.0499102 0.111886 0)
(0.0424649 0.116798 0)
(0.0374377 0.121465 0)
(0.0344327 0.125397 0)
(0.0330702 0.128488 0)
(0.0331104 0.130787 0)
(0.034374 0.132316 0)
(0.0367262 0.133073 0)
(0.0400628 0.133038 0)
(0.044299 0.132175 0)
(0.0493599 0.13043 0)
(0.0551735 0.127731 0)
(0.0616555 0.124001 0)
(0.0687256 0.119147 0)
(0.0762551 0.113112 0)
(-0.0172723 0.347555 0)
(0.0224168 0.572567 0)
(0.0838926 0.460953 0)
(0.129746 0.25408 0)
(0.131457 0.126147 0)
(0.104555 0.0995312 0)
(0.0796657 0.111427 0)
(0.0650597 0.119328 0)
(0.054865 0.121768 0)
(0.0469836 0.123928 0)
(0.0414104 0.126244 0)
(0.0377845 0.128186 0)
(0.0357672 0.129609 0)
(0.0351216 0.130479 0)
(0.03566 0.130759 0)
(0.0372381 0.130406 0)
(0.0397412 0.129374 0)
(0.0430715 0.12761 0)
(0.0471419 0.125052 0)
(0.0518715 0.121631 0)
(0.0571684 0.117276 0)
(0.0629532 0.11191 0)
(0.0691063 0.105492 0)
(-0.0115143 0.34551 0)
(0.0237419 0.514867 0)
(0.0870293 0.399934 0)
(0.127114 0.231569 0)
(0.12457 0.141322 0)
(0.0999252 0.125901 0)
(0.0790259 0.131419 0)
(0.0660431 0.132645 0)
(0.0562946 0.131602 0)
(0.0486095 0.131287 0)
(0.0429801 0.13141 0)
(0.0391024 0.13148 0)
(0.0367028 0.131325 0)
(0.0355735 0.130842 0)
(0.0355421 0.129944 0)
(0.0364704 0.128555 0)
(0.0382446 0.126607 0)
(0.0407652 0.12403 0)
(0.0439431 0.120755 0)
(0.0476961 0.11671 0)
(0.0519349 0.111828 0)
(0.0565818 0.106041 0)
(0.0615307 0.0993119 0)
(-0.00555589 0.337536 0)
(0.0304719 0.458375 0)
(0.0885788 0.345648 0)
(0.118438 0.216125 0)
(0.111462 0.157629 0)
(0.0904311 0.148527 0)
(0.0742798 0.147959 0)
(0.0634564 0.144344 0)
(0.054715 0.140735 0)
(0.0476837 0.138334 0)
(0.0423639 0.136549 0)
(0.0385302 0.134968 0)
(0.0359834 0.133398 0)
(0.0345573 0.131691 0)
(0.0341095 0.129725 0)
(0.034519 0.127402 0)
(0.0356823 0.124633 0)
(0.0375063 0.121335 0)
(0.0399043 0.117432 0)
(0.0427977 0.11285 0)
(0.0461037 0.107521 0)
(0.0497488 0.101378 0)
(0.053639 0.0943874 0)
(-0.00080333 0.322936 0)
(0.0359729 0.40475 0)
(0.0847449 0.302179 0)
(0.103906 0.20889 0)
(0.0945606 0.17347 0)
(0.0784086 0.166158 0)
(0.0668353 0.160724 0)
(0.0581918 0.154129 0)
(0.0507594 0.148765 0)
(0.0446531 0.144706 0)
(0.0398817 0.14136 0)
(0.0363059 0.1384 0)
(0.0337979 0.13562 0)
(0.0322381 0.132848 0)
(0.0315172 0.129947 0)
(0.0315369 0.1268 0)
(0.0322063 0.123306 0)
(0.0334422 0.119385 0)
(0.0351662 0.114942 0)
(0.0373043 0.109904 0)
(0.0397775 0.104202 0)
(0.0425118 0.0977726 0)
(0.0454301 0.0905918 0)
(0.00275292 0.304191 0)
(0.0372905 0.356885 0)
(0.0751974 0.270642 0)
(0.0856377 0.207853 0)
(0.0765966 0.186654 0)
(0.0656359 0.178555 0)
(0.0577854 0.170079 0)
(0.0510959 0.161979 0)
(0.0450784 0.155468 0)
(0.0400066 0.150162 0)
(0.0359089 0.145608 0)
(0.0327278 0.141544 0)
(0.030392 0.137765 0)
(0.0288234 0.134099 0)
(0.0279441 0.130403 0)
(0.0276782 0.126558 0)
(0.027962 0.122456 0)
(0.0287098 0.118006 0)
(0.0298401 0.113115 0)
(0.0313004 0.107711 0)
(0.03301 0.101723 0)
(0.034911 0.0950964 0)
(0.0369214 0.0878064 0)
(0.00511546 0.284374 0)
(0.0345807 0.317287 0)
(0.0619988 0.249852 0)
(0.066612 0.209904 0)
(0.0597123 0.19595 0)
(0.0531317 0.186527 0)
(0.0479422 0.176722 0)
(0.042909 0.168052 0)
(0.0382342 0.160836 0)
(0.0341777 0.15466 0)
(0.0307905 0.149228 0)
(0.0280698 0.144327 0)
(0.0259863 0.139774 0)
(0.0244972 0.135401 0)
(0.0235518 0.131072 0)
(0.0230922 0.126667 0)
(0.0230573 0.12209 0)
(0.0233842 0.117228 0)
(0.0240063 0.112002 0)