/*--------------------------------*- C++ -*----------------------------------*\
| =========                 |                                                 |
| \\      /  F ield         | OpenFOAM: The Open Source CFD Toolbox           |
|  \\    /   O peration     | Version:  2206                                  |
|   \\  /    A nd           | Website:  www.openfoam.com                      |
|    \\/     M anipulation  |                                                 |
\*---------------------------------------------------------------------------*/
FoamFile
{
    version     2.0;
    format      ascii;
    arch        "LSB;label=32;scalar=64";
    class       surfaceScalarField;
    location    "0.075";
    object      alphaPhi0.water;
}
// * * * * * * * * * * * * * * * * * * * * * * * * * * * * * * * * * * * * * //

dimensions      [0 3 -1 0 0 0 0];

oriented        oriented;

internalField   nonuniform List<scalar> 
4432
(
4.05257e-06
-4.05256e-06
8.5517e-06
-4.49915e-06
1.29956e-05
-4.44389e-06
1.75662e-05
-4.57061e-06
2.23619e-05
-4.7957e-06
2.7457e-05
-5.09506e-06
3.29421e-05
-5.48512e-06
3.89266e-05
-5.98447e-06
4.55882e-05
-6.66164e-06
5.30246e-05
-7.43636e-06
6.17486e-05
-8.7241e-06
7.19346e-05
-1.01859e-05
8.36924e-05
-1.17948e-05
9.46489e-05
-1.17287e-05
0.000102151
-1.06633e-05
9.66522e-05
-1.11693e-05
4.11521e-05
-1.02013e-05
3.10604e-06
-6.28591e-07
1.31173e-06
8.38168e-07
5.68583e-07
6.19658e-07
2.30057e-07
2.2321e-07
9.07655e-08
7.67781e-08
2.4366e-08
4.05701e-06
-8.10956e-06
8.54637e-06
-8.98851e-06
1.29857e-05
-8.88325e-06
1.75483e-05
-9.13317e-06
2.23313e-05
-9.5787e-06
2.74095e-05
-1.01732e-05
3.28716e-05
-1.09473e-05
3.88299e-05
-1.19428e-05
4.54313e-05
-1.3263e-05
5.28435e-05
-1.48487e-05
6.14491e-05
-1.73297e-05
7.12326e-05
-1.99694e-05
8.26898e-05
-2.33179e-05
9.29166e-05
-2.49033e-05
9.50494e-05
-2.41944e-05
7.20596e-05
-1.94431e-05
2.55588e-05
-1.00122e-05
2.85608e-06
-3.06493e-06
1.84571e-06
3.43332e-07
1.04534e-06
8.98784e-07
4.23133e-07
6.03839e-07
1.24279e-07
2.80672e-07
8.02715e-08
4.04261e-06
-1.21522e-05
8.50111e-06
-1.3447e-05
1.29124e-05
-1.32945e-05
1.74437e-05
-1.36645e-05
2.21886e-05
-1.43237e-05
2.72204e-05
-1.5205e-05
3.26242e-05
-1.6351e-05
3.85086e-05
-1.78272e-05
4.50017e-05
-1.97562e-05
5.23025e-05
-2.21495e-05
6.06886e-05
-2.57158e-05
7.01496e-05
-2.94304e-05
8.22014e-05
-3.53983e-05
9.3247e-05
-4.05962e-05
7.11285e-05
-3.78506e-05
1.66701e-05
-1.56111e-05
5.51914e-06
-4.80694e-06
4.66782e-06
-1.6379e-06
2.76916e-06
5.66175e-08
6.50166e-07
3.54428e-07
6.26726e-09
4.9558e-07
2.59439e-08
1.89008e-07
5.62272e-08
4.01814e-06
-1.61703e-05
8.43294e-06
-1.78618e-05
1.28026e-05
-1.76641e-05
1.72884e-05
-1.81503e-05
2.1979e-05
-1.90143e-05
2.69444e-05
-2.01705e-05
3.22648e-05
-2.16714e-05
3.80424e-05
-2.36047e-05
4.43919e-05
-2.61057e-05
5.15136e-05
-2.92712e-05
5.96465e-05
-3.38487e-05
6.87579e-05
-3.85418e-05
8.05858e-05
-4.72262e-05
8.61644e-05
-5.57833e-05
3.98428e-05
-4.46298e-05
5.30837e-06
-9.00263e-06
2.06043e-06
-2.63347e-06
1.3444e-06
-7.21085e-07
1.18998e-06
-2.23816e-08
7.96605e-07
-6.02741e-08
1.35201e-07
1.95866e-07
1.03129e-09
1.4584e-07
2.74194e-08
3.98398e-06
-2.01543e-05
8.34225e-06
-2.222e-05
1.26573e-05
-2.19792e-05
1.70837e-05
-2.25767e-05
2.17042e-05
-2.36349e-05
2.65844e-05
-2.50506e-05
3.1798e-05
-2.6885e-05
3.74393e-05
-2.9246e-05
4.36065e-05
-3.22729e-05
5.04933e-05
-3.6158e-05
5.82783e-05
-4.16336e-05
6.69652e-05
-4.72287e-05
7.83462e-05
-5.86072e-05
7.22024e-05
-6.9216e-05
1.42189e-05
-3.97564e-05
2.68203e-06
-5.30971e-06
9.11899e-07
-1.36994e-06
3.61099e-07
-1.8848e-07
2.58793e-07
-4.83054e-09
1.29762e-07
-2.31859e-08
4.04888e-08
2.8744e-08
3.88073e-09
1.74868e-08
1.21713e-08
3.94059e-06
-2.40949e-05
8.23095e-06
-2.65104e-05
1.24797e-05
-2.62279e-05
1.68343e-05
-2.69313e-05
2.1371e-05
-2.81716e-05
2.615e-05
-2.98296e-05
3.1238e-05
-3.1973e-05
3.67204e-05
-3.47284e-05
4.26747e-05
-3.82272e-05
4.92856e-05
-4.27689e-05
5.66481e-05
-4.89962e-05
6.47861e-05
-5.53667e-05
7.5551e-05
-6.93721e-05
5.41615e-05
-7.89438e-05
4.34413e-06
-2.92911e-05
1.32905e-06
-3.34245e-06
3.15599e-07
-5.68675e-07
1.04965e-07
1.3593e-08
6.60452e-08
5.15044e-09
2.75392e-08
-8.87626e-09
6.80076e-09
1.11181e-08
1.12981e-09
7.80495e-09
3.70079e-09
3.89152e-06
-2.79864e-05
8.10381e-06
-3.07227e-05
1.22779e-05
-3.0402e-05
1.65529e-05
-3.12062e-05
2.09978e-05
-3.26165e-05
2.56676e-05
-3.44993e-05
3.06224e-05
-3.69278e-05
3.59383e-05
-4.00443e-05
4.16781e-05
-4.3967e-05
4.80076e-05
-4.90984e-05
5.49154e-05
-5.59039e-05
6.23828e-05
-6.28341e-05
7.20808e-05
-7.907e-05
3.85897e-05
-8.39175e-05
2.2976e-06
-1.99122e-05
5.73711e-07
-2.33025e-06
6.83543e-08
-8.94573e-08
2.70528e-08
3.21936e-08
1.42575e-08
3.16875e-09
5.64793e-09
-3.84835e-09
2.26864e-09
-2.78993e-09
6.1181e-10
2.7043e-09
1.06023e-09
3.83927e-06
-3.18257e-05
7.95989e-06
-3.48433e-05
1.20531e-05
-3.44952e-05
1.62433e-05
-3.53965e-05
2.0592e-05
-3.69652e-05
2.51485e-05
-3.90558e-05
2.99673e-05
-4.17466e-05
3.51148e-05
-4.51919e-05
4.06437e-05
-4.94959e-05
4.67259e-05
-5.51806e-05
5.31732e-05
-6.23513e-05
5.98644e-05
-6.95252e-05
6.79809e-05
-8.71866e-05
2.54343e-05
-8.46808e-05
1.38607e-06
-1.25976e-05
1.10599e-07
-1.41454e-06
6.43177e-09
4.76839e-08
1.74666e-09
2.82267e-08
2.67674e-09
9.03963e-10
1.54044e-09
-2.95761e-09
1.01233e-09
-2.10492e-09
4.22425e-10
-5.76268e-11
1.64709e-10
8.63013e-26
-1.86659e-25
9.88109e-27
-5.22382e-26
3.19239e-28
-2.57326e-27
1.39184e-29
-7.1044e-29
5.47399e-31
-1.44721e-30
1.95369e-32
-1.21052e-32
8.30489e-34
2.20448e-34
3.27399e-35
2.02647e-35
1.10161e-36
1.07925e-36
3.3148e-38
4.55992e-38
8.73667e-40
1.63032e-39
1.96655e-41
4.98954e-41
3.67683e-43
1.29939e-42
5.49473e-45
2.8299e-44
6.19962e-47
5.00858e-46
4.81434e-49
6.88527e-48
2.15959e-51
6.81214e-50
6.76108e-52
4.18054e-52
7.71338e-53
5.67547e-24
-2.79748e-23
1.32736e-24
-8.40175e-24
3.56698e-26
-4.10282e-25
1.3582e-27
-1.10339e-26
5.30068e-29
-2.15863e-28
1.90148e-30
-1.73458e-30
7.63437e-32
8.0993e-32
2.93663e-33
7.14849e-33
9.75393e-35
3.7288e-34
2.91315e-36
1.55546e-35
7.63481e-38
5.51298e-37
1.70872e-39
1.67537e-38
3.16583e-41
4.32923e-40
4.65148e-43
9.31948e-42
5.08333e-45
1.61566e-43
3.71388e-47
2.1365e-45
1.4755e-49
1.96303e-47
9.19191e-52
1.03354e-49
3.9735e-52
3.1198e-22
-2.04149e-21
6.10993e-23
-5.74718e-22
1.6936e-24
-2.69075e-23
6.47206e-26
-7.04495e-25
2.47015e-27
-1.32046e-26
8.71965e-29
-8.78248e-29
3.27535e-30
5.9636e-30
1.17133e-31
4.62416e-31
3.73318e-33
2.25628e-32
1.07089e-34
8.94617e-34
2.69793e-36
3.03314e-35
5.80291e-38
8.84286e-37
1.02955e-39
2.19123e-38
1.43471e-41
4.50323e-40
1.45465e-43
7.37116e-42
9.88657e-46
8.97857e-44
4.06649e-48
8.06326e-46
1.04574e-50
4.48882e-48
3.54896e-50
1.10596e-20
-8.35183e-20
2.00306e-21
-2.32542e-20
5.56945e-23
-1.07055e-21
2.10137e-24
-2.71106e-23
7.90182e-26
-4.83236e-25
2.73691e-27
-2.1019e-27
9.79421e-29
2.73583e-28
3.28841e-30
1.86115e-29
1.00686e-31
8.50915e-31
2.7738e-33
3.2091e-32
6.70974e-35
1.04034e-33
1.38265e-36
2.90466e-35
2.3298e-38
6.87805e-37
3.10935e-40
1.33798e-38
3.26669e-42
2.16407e-40
2.38465e-44
2.7747e-42
9.80564e-47
2.55169e-44
3.07801e-49
1.40603e-46
1.58135e-48
2.89447e-19
-2.68211e-18
5.05252e-20
-7.23978e-19
1.38173e-21
-3.05035e-20
5.12049e-23
-7.25732e-22
1.90513e-24
-1.20388e-23
6.48286e-26
-7.65324e-27
2.22084e-27
8.93155e-27
7.13709e-29
5.38687e-28
2.09946e-30
2.31733e-29
5.54702e-32
8.3211e-31
1.28346e-33
2.5764e-32
2.53645e-35
6.86356e-34
4.27894e-37
1.57482e-35
6.03032e-39
3.14853e-37
6.41237e-41
5.19922e-39
4.669e-43
6.70261e-41
1.87489e-45
6.17436e-43
6.948e-48
3.20032e-45
4.90414e-47
6.81369e-18
-1.67879e-16
1.0449e-18
-3.97584e-17
2.62328e-20
-1.02899e-18
9.65916e-22
-1.7549e-20
3.5738e-23
-2.34447e-22
1.21464e-24
1.07723e-24
4.02974e-26
2.21265e-25
1.25022e-27
1.19828e-26
3.54027e-29
4.87315e-28
8.9689e-31
1.67021e-29
2.01129e-32
4.93871e-31
4.04557e-34
1.29987e-32
6.9917e-36
3.03237e-34
9.75933e-38
6.05582e-36
1.03431e-39
9.97217e-38
7.50353e-42
1.28181e-39
3.05502e-44
1.17542e-41
1.32896e-46
6.4122e-44
1.15215e-45
1.80127e-16
-2.88235e-15
2.04292e-17
-7.99255e-16
3.9318e-19
-2.28358e-17
1.38222e-20
-3.53831e-19
5.04366e-22
-3.34886e-21
1.74012e-23
3.90145e-23
5.70603e-25
4.01627e-24
1.7268e-26
1.99709e-25
4.74326e-28
7.76958e-27
1.17491e-29
2.56389e-28
2.66333e-31
7.52107e-30
5.38608e-33
1.98534e-31
9.2141e-35
4.60444e-33
1.27833e-36
9.14194e-35
1.34763e-38
1.49726e-36
9.73444e-41
1.91482e-38
3.99834e-43
1.75024e-40
2.03775e-45
9.79991e-43
2.10872e-44
1.85542e-15
-6.12266e-15
1.30589e-16
-7.96128e-16
3.1396e-18
-3.81418e-17
1.18838e-19
-1.18583e-18
4.37288e-21
-1.13426e-20
1.55789e-22
5.37202e-22
5.25651e-24
4.19655e-23
1.61252e-25
2.0543e-24
4.45469e-27
8.06341e-26
1.11974e-28
2.69547e-27
2.61802e-30
8.15482e-29
5.33315e-32
2.19327e-30
9.18463e-34
5.1549e-32
1.27946e-35
1.03266e-33
1.351e-37
1.69989e-35
9.75854e-40
2.1777e-37
4.02493e-42
1.98775e-39
2.48986e-44
1.12322e-41
2.97208e-43
7.92979e-06
-3.97555e-05
1.63768e-05
-4.32903e-05
2.47642e-05
-4.28826e-05
3.33421e-05
-4.39744e-05
4.22105e-05
-4.58337e-05
5.14505e-05
-4.82958e-05
6.11531e-05
-5.14492e-05
7.14059e-05
-5.54447e-05
8.23541e-05
-6.0444e-05
9.39899e-05
-6.68164e-05
0.000106586
-7.49478e-05
0.000120231
-8.31699e-05
0.00013124
-9.81954e-05
2.26805e-05
-6.75402e-05
1.48768e-06
-5.77105e-06
4.25569e-09
-2.58156e-07
-3.33053e-08
6.56086e-08
-2.42368e-09
6.91442e-09
9.9335e-10
-8.6214e-10
1.25728e-09
-1.24512e-09
1.26906e-09
-5.42016e-10
9.16063e-10
-4.26791e-10
-2.04419e-10
2.17572e-10
7.55727e-06
-4.73127e-05
1.54793e-05
-5.12124e-05
2.33609e-05
-5.07642e-05
3.13953e-05
-5.20088e-05
3.9645e-05
-5.40834e-05
4.81603e-05
-5.68112e-05
5.69917e-05
-6.02805e-05
6.61796e-05
-6.46326e-05
7.57619e-05
-7.00262e-05
8.57132e-05
-7.67677e-05
9.59462e-05
-8.51809e-05
0.000106525
-9.37486e-05
8.87679e-05
-0.000109074
4.51419e-06
-4.61446e-05
2.64242e-07
-2.6468e-06
-4.533e-08
6.03344e-08
-1.081e-08
3.33791e-08
-8.02984e-10
4.13679e-09
2.64172e-10
2.82309e-10
4.65763e-10
-3.1822e-10
4.86489e-10
-1.79616e-10
3.3804e-10
-1.16037e-10
-5.83952e-11
1.26593e-10
7.12894e-06
-5.44417e-05
1.4474e-05
-5.85574e-05
2.17974e-05
-5.80876e-05
2.9236e-05
-5.94474e-05
3.68169e-05
-6.16642e-05
4.45628e-05
-6.45571e-05
5.24898e-05
-6.82074e-05
6.05956e-05
-7.27385e-05
6.88523e-05
-7.82829e-05
7.71811e-05
-8.50965e-05
8.53574e-05
-9.33571e-05
9.33613e-05
-0.000101753
5.97768e-05
-0.000109577
1.70592e-06
-2.93336e-05
-2.11656e-08
-1.37646e-06
-2.7219e-08
1.05403e-07
-3.22761e-09
1.20362e-08
-3.71271e-10
1.47705e-09
-8.66443e-12
2.20181e-10
9.58224e-11
-5.50023e-11
1.1043e-10
-5.1927e-11
7.68937e-11
-2.80482e-11
-1.47706e-11
3.71823e-11
6.65496e-06
-6.10966e-05
1.33915e-05
-6.5294e-05
2.01247e-05
-6.48209e-05
2.69363e-05
-6.6259e-05
3.38233e-05
-6.85513e-05
4.07861e-05
-7.15199e-05
4.78136e-05
-7.52349e-05
5.48714e-05
-7.97964e-05
6.18926e-05
-8.53041e-05
6.87565e-05
-9.19604e-05
7.52075e-05
-9.98081e-05
8.12216e-05
-0.000107767
3.92249e-05
-0.000105301
1.14162e-06
-1.80198e-05
-4.51528e-08
-4.18928e-07
-1.28209e-08
7.56075e-08
-9.42531e-10
4.34245e-09
-1.00026e-10
3.64326e-10
-9.4531e-12
4.12625e-11
1.56571e-11
-6.87497e-12
2.02683e-11
-1.27659e-11
1.39519e-11
-6.40797e-12
-3.06966e-12
6.45344e-12
6.14891e-06
-6.72455e-05
1.22636e-05
-7.14087e-05
1.83926e-05
-7.09498e-05
2.45657e-05
-7.2432e-05
3.07574e-05
-7.4743e-05
3.69512e-05
-7.77136e-05
4.31171e-05
-8.14007e-05
4.92005e-05
-8.58798e-05
5.51149e-05
-9.12185e-05
6.07228e-05
-9.75684e-05
6.57811e-05
-0.000104866
7.02872e-05
-0.000112273
2.43558e-05
-9.80331e-05
5.66132e-07
-1.06041e-05
-4.30392e-08
9.64418e-08
-4.48879e-09
3.06886e-08
-3.04418e-10
1.4332e-09
-3.56992e-11
1.11418e-10
-2.68434e-12
5.28631e-12
2.03145e-12
-1.13303e-12
3.24431e-12
-2.71271e-12
2.22089e-12
-1.26855e-12
-4.97315e-13
9.54202e-13
5.62321e-06
-7.28687e-05
1.11179e-05
-7.69034e-05
1.66427e-05
-7.64747e-05
2.2182e-05
-7.79712e-05
2.76943e-05
-8.02554e-05
3.3152e-05
-8.31713e-05
3.85136e-05
-8.67623e-05
4.37147e-05
-9.10809e-05
4.86632e-05
-9.6167e-05
5.32233e-05
-0.000102129
5.71824e-05
-0.000108825
6.05604e-05
-0.000115651
1.40789e-05
-8.908e-05
1.04432e-07
-5.83413e-06
-2.19605e-08
1.87337e-07
-1.54657e-09
1.01562e-08
-9.77114e-11
4.57181e-10
-1.13417e-11
3.58147e-11
-9.24809e-13
1.0901e-12
1.91323e-13
-1.43425e-13
4.77692e-13
-2.95241e-13
3.4307e-13
-1.37209e-13
-1.10693e-14
1.63116e-13
5.08934e-06
-7.79581e-05
9.97694e-06
-8.1791e-05
1.49089e-05
-8.14067e-05
1.98307e-05
-8.2893e-05
2.46915e-05
-8.51161e-05
2.94573e-05
-8.79371e-05
3.40811e-05
-9.13861e-05
3.84967e-05
-9.54966e-05
4.26159e-05
-0.000100286
4.63159e-05
-0.000105829
4.94233e-05
-0.000111933
5.19835e-05
-0.000118211
7.43713e-06
-7.94281e-05
-8.33707e-08
-2.8884e-06
-9.41216e-09
1.00052e-07
-5.31042e-10
3.90942e-09
-3.45892e-11
1.73328e-10
-3.76535e-12
1.29598e-11
-3.25244e-13
6.80263e-13
7.27933e-14
9.03462e-14
9.18473e-14
6.59485e-14
6.77628e-14
4.07096e-14
2.63419e-14
3.59706e-14
4.55715e-06
-8.25152e-05
8.85859e-06
-8.60924e-05
1.32167e-05
-8.57647e-05
1.75455e-05
-8.72218e-05
2.17897e-05
-8.93603e-05
2.59128e-05
-9.20602e-05
2.98669e-05
-9.53402e-05
3.35891e-05
-9.92188e-05
3.70006e-05
-0.000103698
3.99976e-05
-0.000108826
4.24466e-05
-0.000114382
4.44242e-05
-0.000120189
3.32472e-06
-6.95162e-05
-6.68769e-08
-1.40946e-06
-3.27691e-09
5.32901e-08
-2.02804e-10
1.64694e-09
-1.26225e-11
6.66912e-11
-1.25077e-12
4.85801e-12
-9.32019e-14
4.26108e-13
4.38431e-14
1.09794e-13
3.15799e-14
5.97568e-14
1.74e-14
2.48225e-14
9.71343e-15
8.28626e-15
4.03457e-06
-8.65498e-05
7.77607e-06
-8.98339e-05
1.15843e-05
-8.9573e-05
1.53498e-05
-9.09873e-05
1.9016e-05
-9.30265e-05
2.2546e-05
-9.55902e-05
2.58946e-05
-9.86888e-05
2.90049e-05
-0.000102329
3.18105e-05
-0.000106503
3.42275e-05
-0.000111243
3.61574e-05
-0.000116312
3.76949e-05
-0.000121726
1.24737e-06
-5.97608e-05
-2.8935e-08
-7.06062e-07
-1.40333e-09
3.25237e-08
-7.91215e-11
6.4014e-10
-4.37347e-12
2.42973e-11
-3.77042e-13
1.7788e-12
-1.13877e-14
2.03352e-13
2.02356e-14
6.06075e-14
1.00981e-14
2.383e-14
4.08673e-15
7.53811e-15
2.46923e-15
1.76659e-15
3.52775e-06
-9.00776e-05
6.73925e-06
-9.30455e-05
1.00249e-05
-9.28587e-05
1.32586e-05
-9.4221e-05
1.63861e-05
-9.61542e-05
1.93707e-05
-9.85749e-05
2.2171e-05
-0.000101489
2.47378e-05
-0.000104896
2.70171e-05
-0.000108783
2.89442e-05
-0.00011317
3.0457e-05
-0.000117825
3.16704e-05
-0.00012294
3.68587e-07
-5.06654e-05
-1.80418e-08
-3.42028e-07
-6.89342e-10
1.46593e-08
-2.58319e-11
1.86927e-10
-1.40663e-12
9.0381e-12
-1.09249e-13
6.59461e-13
4.94236e-15
8.63531e-14
6.71682e-15
2.32857e-14
2.62261e-15
7.09959e-15
9.08476e-16
2.0099e-15
5.68169e-16
3.45956e-16
3.04154e-06
-9.31194e-05
5.75469e-06
-9.57589e-05
8.54614e-06
-9.56504e-05
1.12805e-05
-9.69555e-05
1.39069e-05
-9.87809e-05
1.63898e-05
-0.000101058
1.86914e-05
-0.000103791
2.07692e-05
-0.000106974
2.25799e-05
-0.000110594
2.40737e-05
-0.000114664
2.52315e-05
-0.000118984
2.61774e-05
-0.000123887
2.26649e-07
-4.22393e-05
-8.23138e-09
-1.19903e-07
-1.50753e-10
6.1416e-09
-6.10028e-12
6.22419e-11
-4.96842e-13
3.45468e-12
-2.66649e-14
2.35951e-13
3.62778e-15
3.50226e-14
1.79514e-15
7.39837e-15
6.1801e-16
2.00312e-15
1.83514e-16
4.92783e-16
1.13091e-16
5.87506e-17
2.5753e-06
-9.56955e-05
4.82254e-06
-9.8007e-05
7.14794e-06
-9.79767e-05
9.41506e-06
-9.92237e-05
1.1574e-05
-0.000100941
1.35929e-05
-0.000103078
1.54372e-05
-0.000105637
1.70707e-05
-0.000108609
1.84565e-05
-0.000111981
1.9555e-05
-0.000115765
2.03886e-05
-0.000119821
2.09913e-05
-0.000124493
2.15635e-07
-3.3604e-05
-5.35097e-09
9.934e-08
-1.07115e-11
7.78037e-10
-6.96429e-13
9.9153e-12
-1.56753e-13
1.15122e-12
-3.42689e-15
8.95797e-14
1.41275e-15
1.35721e-14
4.4669e-16
2.22913e-15
1.38129e-16
5.62296e-16
3.18919e-17
1.10063e-16
2.10616e-17
9.00897e-18
2.13582e-06
-9.78347e-05
3.94665e-06
-9.98213e-05
5.83078e-06
-9.98643e-05
7.66036e-06
-0.000101057
9.385e-06
-0.00010267
1.09758e-05
-0.000104673
1.23983e-05
-0.000107064
1.36207e-05
-0.000109837
1.46108e-05
-0.000112977
1.53332e-05
-0.000116494
1.58443e-05
-0.000120343
1.57081e-05
-0.000124367
5.2988e-08
-2.42171e-05
-8.13454e-10
1.53941e-07
-3.96764e-12
6.48501e-11
-6.94916e-14
1.04616e-11
-5.96885e-14
7.4537e-13
4.98004e-16
5.409e-14
4.99005e-16
4.86775e-15
1.03872e-16
6.65785e-16
2.91962e-17
1.57865e-16
5.12717e-18
2.48071e-17
3.93417e-18
1.30134e-18
1.76683e-06
-9.96137e-05
3.1457e-06
-0.000101213
4.62064e-06
-0.000101352
6.04518e-06
-0.000102495
7.37599e-06
-0.000104014
8.5817e-06
-0.000105894
9.62388e-06
-0.000108122
1.04613e-05
-0.000110691
1.10511e-05
-0.000113585
1.13133e-05
-0.000116775
1.13129e-05
-0.000120373
9.41602e-06
-0.000122483
-1.01733e-07
-1.68599e-05
2.40222e-10
5.49691e-08
-1.17508e-11
1.35289e-09
-1.68768e-12
3.25497e-11
-9.36566e-14
1.5058e-12
-5.53604e-16
5.36237e-14
9.03079e-17
2.18565e-15
3.90591e-17
2.45712e-16
6.35098e-18
5.45256e-17
7.78354e-19
6.32547e-18
7.58078e-19
1.76316e-19
1.40182e-06
-0.000101061
2.3854e-06
-0.000102242
3.52939e-06
-0.000102543
4.60717e-06
-0.00010362
5.60264e-06
-0.000105059
6.48161e-06
-0.000106824
7.20315e-06
-0.000108897
7.70715e-06
-0.000111251
7.92013e-06
-0.000113855
7.61455e-06
-0.000116528
6.6175e-06
-0.000119458
2.89716e-06
-0.000118695
-6.49834e-08
-1.61446e-05
-9.69202e-10
5.46382e-09
1.51783e-12
1.38104e-09
4.83111e-13
1.17517e-10
-2.21868e-14
5.25324e-12
-2.7623e-15
1.77779e-13
3.71811e-17
5.044e-15
8.23881e-18
1.7647e-16
1.65538e-18
2.72807e-17
1.13384e-19
2.07875e-18
1.58407e-19
2.18468e-20
1.05408e-06
-0.000102317
1.70157e-06
-0.000103086
2.51444e-06
-0.000103544
3.27356e-06
-0.000104554
3.95924e-06
-0.000105899
4.541e-06
-0.000107528
4.97919e-06
-0.000109415
5.21531e-06
-0.000111486
5.18509e-06
-0.000113721
4.67994e-06
-0.000115699
3.18385e-06
-0.000117451
1.86407e-06
-0.000115757
-3.12311e-07
-2.56431e-05
6.14887e-09
-3.19011e-07
8.77338e-10
6.38427e-09
3.62249e-11
9.4415e-10
5.17149e-13
3.81115e-11
7.11065e-15
8.14367e-13
-9.84156e-18
1.58126e-14
3.06206e-18
1.64983e-16
3.92873e-19
1.52299e-17
1.41056e-20
7.72675e-19
3.47407e-20
2.2261e-21
5.56579e-07
-8.63771e-05
8.79588e-07
-8.63609e-05
1.28413e-06
-8.6118e-05
1.64933e-06
-8.58272e-05
1.9502e-06
-8.53758e-05
2.16289e-06
-8.46339e-05
2.26406e-06
-8.35703e-05
2.2471e-06
-8.22453e-05
2.08472e-06
-8.07499e-05
2.39939e-06
-7.64686e-05
2.77705e-06
-7.17646e-05
6.389e-06
-4.91522e-05
-5.86162e-07
-2.31784e-05
9.82172e-08
-1.99665e-06
2.02238e-08
7.83025e-08
9.74405e-10
1.97609e-08
2.09197e-11
9.75198e-10
3.85547e-13
2.10148e-11
1.57064e-15
3.94768e-13
-2.23113e-18
1.86057e-15
4.73726e-21
7.6395e-18
3.10426e-22
2.3654e-19
6.63718e-21
4.69139e-23
-7.85571e-08
-2.12898e-06
-2.16789e-07
-1.85505e-06
-3.18407e-07
-1.391e-06
-4.44754e-07
-7.29576e-07
-5.77144e-07
-5.86905e-17
-7.05308e-07
-1.30202e-15
-8.07032e-07
-2.05815e-14
-8.45268e-07
-2.63131e-13
-8.35585e-07
-2.83269e-12
1.69016e-08
-2.64351e-11
1.66141e-06
-2.33634e-10
1.84685e-06
-2.15371e-09
3.65207e-06
-2.63809e-08
3.96489e-08
-2.01431e-06
2.71826e-08
9.49872e-08
9.77402e-10
4.61671e-08
7.63242e-12
1.94661e-09
-1.19691e-13
3.14868e-11
-3.23337e-15
2.79616e-13
-3.23736e-18
9.75279e-16
-2.30583e-20
1.21806e-17
-4.89855e-22
5.75141e-20
9.65798e-22
-2.30557e-23
-6.61581e-09
-1.0168e-22
-1.11118e-08
-1.23593e-21
-8.79515e-09
-3.72356e-20
-1.00308e-18
-1.05143e-18
-2.54829e-17
-7.76807e-18
-4.79257e-16
-1.75782e-16
-6.97133e-15
-3.2577e-15
-7.9023e-14
-4.84028e-14
-7.01011e-13
-6.31197e-13
-3.35654e-12
-8.57083e-12
3.3679e-12
-9.9104e-11
6.86864e-11
-1.06251e-09
1.24326e-09
-1.94733e-08
3.05798e-07
-5.0574e-07
-1.182e-08
1.66033e-07
-7.51989e-10
3.55685e-08
-2.78792e-11
7.38102e-10
-2.58217e-13
2.09221e-11
-1.04118e-15
2.30477e-14
-1.65535e-18
8.44735e-17
-9.48896e-21
2.19877e-18
-1.49647e-22
6.82368e-21
1.1551e-22
-6.48742e-24
-4.04025e-24
-9.03359e-24
-3.89483e-22
-1.8029e-22
-1.73455e-20
-8.93242e-21
-4.51967e-19
-3.00616e-19
-3.18544e-18
-4.10476e-18
-6.3034e-17
-8.88056e-17
-9.11177e-16
-1.88646e-15
-3.8273e-15
-3.7733e-14
1.10227e-13
-6.54038e-13
2.98653e-12
-1.061e-11
4.51678e-11
-1.36253e-10
2.0014e-10
-1.1877e-09
-7.11725e-09
-9.43366e-09
-1.88014e-07
-3.52717e-08
-3.4023e-08
1.70856e-08
-6.55459e-10
2.31693e-09
-1.53422e-11
1.00172e-10
-1.81198e-14
2.18726e-12
-7.70517e-17
4.92501e-15
-3.21136e-19
6.50109e-18
-1.84452e-21
9.05601e-20
-2.95141e-23
6.45608e-22
1.29382e-23
-1.22784e-24
-1.38538e-25
-4.32037e-25
-6.54466e-23
-2.57518e-23
-1.09197e-21
-1.7628e-21
-4.27688e-20
-4.55838e-20
-1.30502e-18
-1.30907e-18
-2.55347e-17
-2.69039e-17
-8.29419e-16
-5.35226e-16
-1.889e-14
-7.20416e-15
-4.65932e-13
-1.02957e-13
-8.58792e-12
-1.35206e-12
-1.1886e-10
-1.69273e-11
-1.0651e-09
-1.81459e-10
-9.32112e-09
-9.35385e-10
-7.1332e-08
-5.29635e-09
-9.7613e-09
2.75877e-09
-8.63113e-11
7.34585e-10
-1.90064e-12
1.6165e-11
-9.13887e-16
3.12857e-13
-7.66112e-18
1.90279e-16
-5.79729e-20
3.47379e-19
-2.90563e-22
7.14243e-21
-4.64943e-24
6.3986e-23
1.32171e-24
-1.88763e-25
-1.8963e-26
-6.14582e-27
-7.22785e-24
-5.25803e-25
-2.33704e-22
-2.36032e-23
-1.23779e-20
-6.55945e-22
-4.81273e-19
-1.36821e-20
-1.70516e-17
-2.0575e-19
-1.32078e-16
-3.04384e-18
-1.42565e-15
-6.82099e-17
-3.75214e-14
-1.77222e-15
-1.20111e-12
-3.62822e-14
-1.72024e-11
-3.86055e-13
-1.91616e-10
-3.62142e-12
-8.98861e-10
-1.62664e-11
-3.69847e-09
-1.14536e-10
-9.20771e-10
8.92253e-11
-1.536e-11
3.62174e-11
-2.96518e-13
1.13875e-12
7.3904e-17
2.60059e-14
-1.82301e-19
-6.94275e-17
-6.01573e-21
2.74518e-20
-3.59263e-23
5.5871e-22
-5.97815e-25
5.13859e-24
1.16896e-25
-2.45175e-26
-4.4168e-28
4.03903e-28
-6.7441e-26
4.63969e-26
-3.86974e-24
2.3677e-24
-1.68852e-22
7.00359e-23
-3.9396e-21
1.42433e-21
-5.46344e-20
2.13166e-20
-2.79668e-18
2.57859e-19
-3.59972e-17
3.70815e-18
-1.3834e-15
4.14994e-17
-3.12803e-14
3.45956e-16
-4.03289e-13
2.05185e-15
-4.15282e-12
5.97817e-15
-1.5489e-11
-1.16859e-13
-1.28653e-10
-1.0251e-12
-3.72095e-11
8.73753e-14
-1.12428e-12
2.97446e-13
-2.37384e-14
2.85661e-14
4.10499e-17
3.19539e-15
-1.69665e-20
-2.97506e-17
-4.83903e-22
1.79328e-21
-3.39291e-24
4.91698e-23
-6.32009e-26
3.24557e-25
8.84434e-27
-2.73117e-27
2.60152e-27
1.42581e-29
2.69576e-25
1.24436e-27
1.20421e-23
4.04613e-26
3.32335e-22
7.288e-25
6.37252e-21
5.63062e-24
9.55643e-20
-4.0725e-23
1.67266e-18
-8.88308e-22
2.26895e-17
-1.60177e-20
2.30906e-16
-2.40813e-19
1.67361e-15
-3.03269e-18
6.21454e-15
-3.20219e-17
-3.84264e-14
-2.7214e-16
-1.503e-13
-4.98578e-15
-1.15707e-12
-2.816e-14
-8.85263e-13
-6.04035e-15
-2.81374e-14
5.44791e-15
1.97779e-17
3.98503e-16
6.7061e-18
-8.76534e-18
-1.26153e-21
-3.94927e-18
-4.55189e-23
9.36308e-23
-3.42505e-25
2.97889e-24
-5.4823e-27
2.02645e-26
5.63044e-28
-2.63112e-28
7.32878e-29
1.79282e-32
4.82345e-27
-2.3106e-31
1.32181e-25
-1.64264e-29
1.39079e-24
-7.44461e-28
-1.2944e-23
-2.58704e-26
-5.23612e-23
-1.30781e-24
-9.11383e-22
-2.92866e-23
-1.77096e-20
-5.09488e-22
-2.95345e-19
-7.39323e-21
-4.17283e-18
-9.07391e-20
-5.05267e-17
-8.8494e-19
-4.59591e-16
-7.50857e-18
-8.66158e-15
-6.67377e-17
-6.76556e-14
-4.51391e-16
-2.28848e-14
-5.18865e-16
-7.62738e-16
1.01275e-16
1.87065e-17
6.6819e-18
5.63004e-19
-6.5847e-18
-7.37734e-23
-2.72727e-19
-2.88542e-24
2.88453e-24
-2.2651e-26
7.87974e-26
-4.46856e-28
8.53292e-28
3.11898e-29
-2.20344e-29
-1.41545e-32
1.36163e-36
-2.3289e-31
-2.41464e-33
-1.07621e-29
-1.79629e-31
-7.08713e-28
-8.82343e-30
-2.49756e-26
-3.21644e-28
-1.32803e-24
-9.09057e-27
-3.06461e-23
-2.1274e-25
-5.40889e-22
-3.88437e-24
-7.95377e-21
-5.98074e-23
-9.89089e-20
-7.81672e-22
-9.8771e-19
-8.26186e-21
-1.11442e-17
-6.65081e-20
-3.1999e-16
-8.16385e-19
-1.24773e-15
-4.91448e-18
-2.88687e-16
-4.698e-18
-5.91183e-17
7.52841e-20
1.07517e-18
1.15705e-18
3.15136e-20
-2.99087e-19
-4.11176e-24
-1.26517e-20
-9.6244e-26
1.98495e-25
-9.38155e-28
3.25613e-27
-2.52894e-29
4.54162e-29
1.69029e-30
-1.60408e-30
-8.3025e-35
-2.84451e-39
-2.49684e-33
-8.23722e-37
-1.82141e-31
-6.39833e-35
-9.0068e-30
-3.2886e-33
-3.30696e-28
-1.25897e-31
-9.42252e-27
-3.7441e-30
-2.22187e-25
-9.13244e-29
-4.16257e-24
-1.84867e-27
-6.34729e-23
-3.02398e-26
-8.38356e-22
-4.26675e-25
-9.09427e-21
-4.91024e-24
-1.31921e-19
-4.36318e-23
-3.91029e-18
-4.69266e-22
-1.34814e-17
-4.44187e-21
-9.32093e-19
-2.04278e-20
-1.14297e-18
-5.51261e-21
2.84464e-20
7.99416e-21
1.24888e-21
-6.13605e-21
-2.19967e-25
-4.16059e-22
-4.58647e-27
7.19585e-27
-5.19072e-29
1.29255e-28
-1.54877e-30
2.0289e-30
8.91841e-32
-1.02587e-31
-2.86982e-39
2.53107e-41
-8.29753e-37
3.04646e-39
-6.43127e-35
1.48508e-37
-3.35325e-33
2.81612e-36
-1.29176e-31
-3.09802e-35
-3.87643e-30
-5.39524e-33
-1.04602e-28
-1.87394e-31
-1.80567e-27
-3.85351e-30
-2.98437e-26
-6.82525e-29
-4.25733e-25
-1.05518e-27
-4.99837e-24
-1.33582e-26
-6.35411e-23
-1.50184e-25
-1.04481e-21
-1.71276e-24
-2.72138e-20
-1.93872e-23
-1.22722e-19
-1.45681e-22
-1.87321e-20
-1.38592e-22
2.03132e-22
7.49812e-24
3.57205e-23
-3.26374e-23
-9.52239e-27
-9.80801e-24
-1.90649e-28
2.1983e-28
-2.6195e-30
4.14554e-30
-8.83462e-32
8.61302e-32
4.39842e-33
-5.80772e-33
1.90223e-40
8.0506e-44
1.89207e-38
8.73789e-42
5.4858e-37
3.69146e-40
-6.76426e-36
9.24288e-39
-8.76526e-34
1.26032e-37
-1.34814e-32
-2.37905e-37
-1.32304e-31
-6.4054e-35
-2.66616e-30
-1.77918e-33
-5.17932e-29
-3.71891e-32
-8.78534e-28
-6.85139e-31
-1.36904e-26
-1.11825e-29
-2.01871e-25
-1.62336e-28
-3.44526e-24
-2.1045e-27
-1.2885e-22
-2.82862e-26
-8.51176e-22
-2.80089e-25
-6.38925e-23
-4.1271e-25
-1.67519e-23
-1.79891e-28
7.34542e-25
9.57594e-25
-3.67336e-28
-1.63674e-25
-7.20163e-30
6.94375e-30
-1.21886e-31
1.29568e-31
-4.71346e-33
3.40959e-33
1.97218e-34
-3.11087e-34
5.37949e-43
6.80224e-50
4.62566e-41
-2.24392e-47
1.7733e-39
-2.17047e-45
3.31395e-38
-1.3909e-43
-8.79741e-38
-6.64307e-42
-2.33002e-35
-4.79673e-40
-2.21995e-34
-1.26636e-38
-2.01574e-33
-2.26746e-37
-4.02859e-32
-5.07916e-36
-7.72775e-31
-1.0563e-34
-1.28394e-29
-1.90688e-33
-2.07125e-28
-3.03438e-32
-3.90927e-27
-4.51297e-31
-1.79512e-25
-5.66678e-30
-1.52354e-24
-7.37797e-29
-6.45563e-26
-7.87942e-28
-1.32395e-25
-7.81078e-28
9.36039e-27
1.77927e-28
-1.21782e-29
-1.64672e-27
-2.51094e-31
1.74351e-31
-5.21064e-33
3.76838e-33
-2.14241e-34
1.23743e-34
7.20629e-36
-1.50198e-35
-1.34932e-48
-4.15339e-53
-2.37696e-47
-1.8912e-50
-2.19222e-45
-2.02149e-48
-1.41139e-43
-1.43365e-46
-6.77662e-42
-7.59269e-45
-4.87181e-40
-3.18876e-43
-1.31795e-38
-9.38601e-42
-2.40408e-37
-1.89143e-40
-5.35108e-36
-4.64727e-39
-1.12918e-34
-1.08986e-37
-2.03128e-33
-2.18101e-36
-3.78155e-32
-3.91724e-35
-6.6269e-31
-6.90779e-34
-1.20275e-29
-1.0316e-32
-6.17919e-28
-1.6179e-31
-7.61842e-27
-2.3196e-30
-8.03472e-28
-4.31294e-30
7.63546e-29
3.56733e-31
-3.41693e-31
-1.0097e-29
-8.04462e-33
3.30245e-33
-2.02252e-34
9.9967e-35
-8.19738e-36
4.01214e-36
2.25851e-37
-6.3835e-37
-1.11556e-52
-8.59396e-58
-1.90241e-50
-2.0604e-55
-2.04053e-48
-2.44728e-53
-1.45406e-46
-1.93113e-51
-7.73811e-45
-1.13939e-49
-3.26613e-43
-5.34104e-48
-9.7037e-42
-1.76674e-46
-1.92624e-40
-3.91672e-45
-4.8599e-39
-1.10437e-43
-1.14863e-37
-2.92779e-42
-2.37093e-36
-6.75331e-41
-4.59568e-35
-1.36154e-39
-9.41156e-34
-2.78617e-38
-1.95251e-32
-4.91636e-37
-1.23569e-30
-7.64061e-36
-1.98111e-29
-1.2006e-34
-9.03092e-31
-1.82937e-33
2.82255e-31
-1.68675e-33
-6.73687e-33
-2.54669e-32
-2.31838e-34
3.52354e-35
-6.84282e-36
2.27116e-36
-2.70642e-37
1.05319e-37
6.23755e-39
-2.41281e-38
-8.60112e-58
-2.94177e-61
-2.06973e-55
-7.96867e-59
-2.46886e-53
-1.06596e-56
-1.95582e-51
-9.47452e-55
-1.15866e-49
-6.30287e-53
-5.45315e-48
-3.33642e-51
-1.74692e-46
-1.20527e-49
-4.04169e-45
-3.14657e-48
-1.14905e-43
-1.00804e-46
-3.1715e-42
-3.13538e-45
-7.61919e-41
-8.50837e-44
-1.47116e-39
-1.92305e-42
-3.59209e-38
-4.48763e-41
-7.61328e-37
-9.63757e-40
-1.64013e-35
-1.81312e-38
-1.14793e-33
-3.4734e-37
-2.93496e-32
-7.3483e-36
-8.9921e-34
-1.67896e-35
-1.07913e-34
2.4216e-35
-5.37015e-36
2.48845e-37
-1.73685e-37
3.69323e-38
-7.57977e-39
2.0253e-39
1.50556e-40
-8.11905e-40
-2.94227e-61
-2.58962e-65
-7.99934e-59
-8.04691e-63
-1.05545e-56
-1.20854e-60
-9.35729e-55
-1.21829e-58
-6.22596e-53
-9.23188e-57
-3.30988e-51
-5.62973e-55
-1.14297e-49
-2.25528e-53
-3.23838e-48
-7.29359e-52
-1.16696e-46
-2.99224e-50
-3.60606e-45
-1.07423e-48
-9.79684e-44
-3.38164e-47
-1.99654e-42
-8.60801e-46
-5.27397e-41
-2.29667e-44
-1.3362e-39
-5.91582e-43
-3.35141e-38
-1.36182e-41
-2.89982e-36
-3.18527e-40
-1.00748e-34
-8.8594e-39
-5.0178e-36
-3.03824e-38
-9.04886e-37
1.41439e-40
-8.40561e-38
1.29182e-39
-3.61906e-39
3.97756e-40
-1.87216e-40
3.45853e-41
3.36847e-42
-2.44405e-41
-2.58963e-65
-4.69126e-71
-4.10452e-63
-8.61596e-69
-6.44621e-61
-1.54678e-66
-7.17011e-59
-1.91865e-64
-6.28717e-57
-1.82538e-62
-4.36104e-55
-1.36169e-60
-2.29103e-53
-8.02387e-59
-1.0059e-51
-4.06085e-57
-3.767e-50
-1.80264e-55
-1.27753e-48
-7.18421e-54
-3.50132e-47
-2.48816e-52
-8.95133e-46
-7.4747e-51
-2.3925e-44
-2.34128e-49
-7.28496e-43
-6.96273e-48
-2.17238e-41
-1.99937e-46
-2.3295e-39
-5.06122e-45
-1.06878e-37
-1.26363e-43
-7.34394e-40
-3.66432e-42
-3.37224e-39
-6.01331e-42
-9.9402e-40
4.23897e-42
-6.28725e-41
3.62601e-42
-4.14624e-42
5.13016e-43
6.91724e-44
-6.58627e-43
-3.82007e-71
-4.68294e-75
-8.89681e-69
-1.26979e-72
-1.67699e-66
-2.7953e-70
-2.07727e-64
-4.08454e-68
-1.74446e-62
-4.26323e-66
-1.16303e-60
-3.56829e-64
-6.95789e-59
-2.52793e-62
-3.59316e-57
-1.54408e-60
-1.62329e-55
-8.26172e-59
-6.65682e-54
-3.99566e-57
-2.32115e-52
-1.66652e-55
-7.37991e-51
-6.30873e-54
-2.35051e-49
-2.39943e-52
-7.68095e-48
-8.59383e-51
-2.63414e-46
-2.94539e-49
-8.87462e-45
-9.49393e-48
-1.11081e-42
-2.98665e-46
-7.57769e-41
-1.19775e-44
-1.97753e-41
-4.42938e-44
-8.4159e-42
7.28532e-45
-9.16097e-43
2.69868e-44
-7.96692e-44
6.68816e-45
1.26798e-45
-1.59017e-44
-2.90293e-75
-1.88842e-80
-1.31903e-72
-2.30003e-77
-2.61512e-70
-6.52484e-75
-3.33859e-68
-1.10179e-72
-3.62923e-66
-1.44778e-70
-3.16038e-64
-1.52977e-68
-2.30826e-62
-1.36042e-66
-1.44256e-60
-1.03819e-64
-7.83794e-59
-6.90765e-63
-3.83242e-57
-4.14367e-61
-1.59642e-55
-2.12237e-59
-6.32821e-54
-1.03735e-57
-2.41914e-52
-4.89929e-56
-8.70948e-51
-2.18419e-54
-3.29567e-49