/*--------------------------------*- C++ -*----------------------------------*\
| =========                 |                                                 |
| \\      /  F ield         | OpenFOAM: The Open Source CFD Toolbox           |
|  \\    /   O peration     | Version:  2206                                  |
|   \\  /    A nd           | Website:  www.openfoam.com                      |
|    \\/     M anipulation  |                                                 |
\*---------------------------------------------------------------------------*/
FoamFile
{
    version     2.0;
    format      ascii;
    arch        "LSB;label=32;scalar=64";
    class       volScalarField;
    location    "0.075";
    object      alpha.water;
}
// * * * * * * * * * * * * * * * * * * * * * * * * * * * * * * * * * * * * * //

dimensions      [0 0 0 0 0 0 0];

internalField   nonuniform List<scalar> 
2268
(
1
1
0.999999
1
1
1
1
1
1
1
1
1
0.999943
0.9975
0.988339
0.963505
0.763205
0.2295
0.022224
0.00624141
0.00166357
0.00082045
0.000820309
0.999998
1
1
1
1
1
1
1
1
1
1
1
0.999888
0.992838
0.959821
0.818582
0.478139
0.179516
0.0296003
0.00949173
0.00293401
0.00102342
0.000699997
0.999999
1
1
1
1
0.999999
1
1
1
1
1
1
0.99994
0.995322
0.889076
0.430208
0.0762653
0.0341761
0.0372912
0.027387
0.00761191
0.000756828
0.00045655
1
1
1
1
0.999999
0.999999
1
1
1
1
1
1
1
0.993611
0.752213
0.187678
0.0286954
0.0151153
0.0121888
0.0120117
0.00818796
0.00118273
0.000259488
1
0.999999
1
1
1
1
1
1
1
1
1
1
1
0.974344
0.546555
0.0663334
0.0153848
0.00841893
0.00516616
0.00256357
0.00202069
0.00100113
0.000172016
1
0.999998
1
1
1
1
1
1
1
1
1
1
1
0.921143
0.338159
0.0224696
0.00844328
0.00461864
0.00261884
0.00109841
0.000412036
0.000151846
9.47921e-05
1
0.999999
1
1
1
1
1
1
1
1
1
1
1
0.85999
0.19879
0.0134667
0.00452246
0.00241266
0.00123886
0.000551087
0.000231617
7.754e-05
4.43225e-05
1
1
1
1
1
1
1
1
1
1
1
1
1
0.779966
0.119167
0.00788865
0.00239321
0.00103808
0.000388558
0.000193624
9.3424e-05
4.6117e-05
1.89594e-05
2.51211e-20
4.45631e-21
2.483e-22
1.10574e-23
4.85625e-25
1.71926e-26
8.20562e-28
3.84691e-29
1.50967e-30
5.32379e-32
1.69693e-33
4.79011e-35
1.17205e-36
2.42042e-38
4.06724e-40
5.26831e-42
4.80099e-44
2.51886e-46
1.27677e-46
8.29619e-19
3.78475e-19
2.8629e-20
1.04692e-21
4.21995e-23
1.53244e-24
6.79793e-26
3.10274e-27
1.20066e-28
4.20467e-30
1.33321e-31
3.73961e-33
9.04904e-35
1.82911e-36
2.94947e-38
3.5214e-40
2.6675e-42
7.73091e-45
1.27677e-46
4.92484e-17
1.81914e-17
1.27873e-18
4.66813e-20
1.82223e-21
6.71569e-23
2.79783e-24
1.17204e-25
4.36551e-27
1.48451e-28
4.56173e-30
1.23587e-31
2.86907e-33
5.49069e-35
8.11597e-37
8.20335e-39
6.38839e-41
2.59347e-43
6.91648e-45
1.67238e-15
5.71439e-16
3.90824e-17
1.38481e-18
5.32328e-20
1.96112e-21
7.80756e-23
3.02725e-24
1.08865e-25
3.59732e-27
1.07056e-28
2.79258e-30
6.162e-32
1.08392e-33
1.66241e-35
2.03223e-37
1.65958e-39
6.31995e-42
2.60728e-43
4.02411e-14
1.33912e-14
8.95846e-16
3.02634e-17
1.15117e-18
4.25458e-20
1.59264e-21
5.89382e-23
2.05816e-24
6.59513e-26
1.89262e-27
4.69517e-29
1.02065e-30
2.04678e-32
3.32292e-34
4.05568e-36
3.29052e-38
8.96773e-41
6.93095e-42
1.44045e-12
3.92708e-13
1.85429e-14
5.28565e-16
1.92352e-17
6.99414e-19
2.52759e-20
9.09728e-22
3.08897e-23
9.57715e-25
2.62235e-26
6.82613e-28
1.63207e-29
3.28706e-31
5.31911e-33
6.47015e-35
5.19964e-37
1.84668e-39
1.41028e-40
4.72713e-11
1.08783e-11
3.90205e-13
8.38744e-15
2.52678e-16
8.69906e-18
3.14368e-19
1.11442e-20
3.68781e-22
1.10246e-23
3.17868e-25
8.75655e-27
2.0994e-28
4.21957e-30
6.81257e-32
8.2589e-34
6.63175e-36
2.68797e-38
2.29373e-39
1.77818e-10
4.58891e-11
2.18357e-12
6.99765e-14
2.24739e-15
7.81021e-17
2.94528e-18
1.05857e-19
3.47787e-21
1.03637e-22
3.19053e-24
8.864e-26
2.12589e-27
4.27093e-29
6.88397e-31
8.32267e-33
6.66644e-35
2.84975e-37
2.99591e-38
1
1
1
1
1
1
1
1
1
1
1
1
1
0.614807
0.0482654
0.00347334
0.000970242
0.000332583
0.00012212
5.21578e-05
2.7602e-05
1.78498e-05
6.02436e-06
1
1
1
1
1
1
1
1
1
1
1
1
0.997623
0.381431
0.00753861
0.00122177
0.000333412
0.000101681
3.22054e-05
1.16281e-05
5.69426e-06
3.22999e-06
1.30838e-06
1
1
1
1
1
1
1
1
1
1
1
1
0.930961
0.232969
0.00312646
0.000410696
0.000120062
4.23037e-05
1.2594e-05
3.53406e-06
1.49769e-06
7.32495e-07
3.39813e-07
1
1
1
1
1
1
1
1
1
1
1
1
0.856228
0.139001
0.00130675
0.000134241
4.18745e-05
1.42993e-05
4.46922e-06
1.11536e-06
3.76347e-07
1.64308e-07
7.16816e-08
1
1
1
1
1
1
1
1
1
1
1
1
0.773582
0.0789234
0.000487328
4.45757e-05
1.53267e-05
4.25767e-06
1.29859e-06
3.28052e-07
9.13936e-08
3.50983e-08
1.39452e-08
1
1
1
1
1
1
1
1
1
1
1
1
0.688247
0.0415855
0.000177511
1.43194e-05
5.12221e-06
1.29777e-06
3.5009e-07
9.3063e-08
2.25842e-08
7.69608e-09
2.9331e-09
1
1
1
1
1
1
1
1
1
1
1
1
0.605546
0.0189419
7.05819e-05
4.89545e-06
1.77025e-06
3.93578e-07
9.12859e-08
2.57742e-08
6.15405e-09
1.93319e-09
8.03764e-10
1
1
1
1
1
1
1
1
1
1
1
1
0.526566
0.00671858
2.61186e-05
3.46144e-06
6.41877e-07
1.24528e-07
2.49433e-08
6.97312e-09
1.83068e-09
6.1556e-10
2.54347e-10
1
1
1
1
1
1
1
1
1
1
1
1
0.45161
0.00179815
1.1356e-05
1.45991e-06
2.20408e-07
4.08587e-08
7.05735e-09
1.85368e-09
5.86591e-10
1.93284e-10
7.34485e-11
1
1
1
1
1
1
1
0.999999
0.999999
0.999999
0.999999
0.999999
0.382694
0.000205362
4.4898e-06
2.58411e-07
9.24868e-08
1.41156e-08
2.05865e-09
5.54842e-10
1.80183e-10
5.6363e-11
1.87161e-11
0.999999
0.999999
0.999999
0.999999
0.999998
0.999998
0.999998
0.999998
0.999997
0.999996
0.999996
0.999997
0.319719
4.60072e-05
1.85692e-06
6.60154e-07
5.37302e-08
4.78774e-09
7.06283e-10
1.73957e-10
5.29127e-11
1.49855e-11
4.01063e-12
0.999995
0.999995
0.999994
0.999994
0.999993
0.999992
0.999991
0.99999
0.999987
0.999984
0.999985
0.999986
0.259509
6.19951e-06
4.21911e-07
3.94692e-07
2.61482e-08
1.77332e-09
2.68586e-10
5.43254e-11
1.53901e-11
3.49647e-12
7.57479e-13
0.999977
0.999975
0.999974
0.999973
0.99997
0.999966
0.999961
0.999955
0.999947
0.999935
0.999935
0.999934
0.197432
9.79987e-07
2.11683e-07
1.75786e-07
1.04085e-08
5.90537e-10
1.06694e-10
1.60045e-11
4.26455e-12
7.75498e-13
1.39225e-13
0.999891
0.999885
0.999882
0.999874
0.999863
0.999849
0.99983
0.999806
0.999776
0.999732
0.99972
0.999689
0.140308
1.81818e-05
1.4156e-06
8.25752e-08
5.27795e-09
2.25165e-10
8.78684e-12
4.93097e-12
1.30305e-12
1.80208e-13
2.59316e-14
0.999508
0.999486
0.999473
0.999445
0.999406
0.999354
0.999288
0.999205
0.999103
0.99895
0.998844
0.998492
0.112242
3.72472e-05
4.16782e-07
1.32205e-08
2.78864e-09
3.02287e-10
1.15369e-11
1.78697e-12
5.24223e-13
5.20683e-14
5.16335e-15
0.998106
0.998039
0.997988
0.997885
0.997742
0.997553
0.997316
0.997011
0.996648
0.996056
0.995424
0.987732
0.151154
2.27614e-05
1.09878e-06
7.58717e-08
-6.72278e-09
1.61529e-10
2.26717e-12
1.14229e-12
2.97281e-13
1.93897e-14
1.15408e-15
0.949037
0.947273
0.94481
0.940805
0.935269
0.927957
0.918795
0.906386
0.892008
0.863515
0.834086
0.674944
0.222313
0.00530962
2.28719e-05
1.21351e-06
7.8105e-08
2.85619e-09
2.29017e-11
4.59214e-13
3.67094e-14
6.57428e-15
2.58333e-16
0.361887
0.357254
0.350167
0.339441
0.325504
0.308687
0.289102
0.268016
0.246996
0.208535
0.177756
0.0628588
0.0788965
0.0242298
0.000179222
1.10822e-05
2.8312e-07
1.60633e-09
9.29007e-12
8.13318e-12
1.60718e-13
1.97271e-15
4.33051e-17
0
1.15648e-18
2.58835e-17
7.21765e-16
1.43245e-14
5.9554e-14
9.53556e-13
1.50636e-11
1.9487e-10
2.11144e-09
1.90943e-08
1.6428e-07
1.47786e-06
0.0133278
0.00474421
4.24126e-06
1.40068e-06
1.508e-07
1.16359e-12
3.81866e-14
7.01977e-14
3.15528e-16
5.36954e-18
1.94245e-20
1.02648e-19
9.86777e-19
2.57719e-17
7.21692e-16
1.43245e-14
3.25451e-13
6.37757e-12
1.05608e-10
1.50171e-09
2.06164e-08
2.15459e-07
2.37975e-06
9.6219e-05
0.0032211
7.33809e-07
2.03117e-08
1.15178e-08
1.40774e-13
5.095e-15
5.23639e-15
2.83956e-17
6.01902e-19
2.42042e-20
2.11741e-20
5.94877e-19
1.7595e-16
1.19936e-14
1.0098e-13
5.42257e-13
1.00187e-11
1.88829e-10
3.11253e-09
3.76831e-08
3.02891e-07
2.00812e-06
0.000233885
0.000362683
5.5298e-06
2.47826e-09
-4.45989e-11
-7.51339e-14
5.25215e-16
1.3869e-16
2.70496e-18
6.52932e-20
1.72387e-21
2.22919e-21
5.86384e-19
1.10319e-16
3.81952e-15
1.05072e-13
6.7711e-13
2.46118e-12
1.4622e-12
-3.34916e-11
-3.72065e-10
-3.52613e-09
1.25239e-06
1.84025e-06
6.22012e-07
1.64041e-08
2.29469e-10
-2.02126e-11
-1.12526e-12
2.52995e-16
9.50136e-18
2.31286e-19
6.3995e-21
1.64776e-23
1.40074e-21
6.6518e-20
1.75068e-18
3.49776e-17
2.98377e-16
3.98319e-17
5.49632e-14
2.74652e-13
-5.29737e-12
-9.14142e-11
-5.81392e-10
1.11483e-09
1.42994e-09
8.02888e-09
1.41484e-09
3.40799e-11
-1.70685e-12
-6.14695e-13
1.61627e-17
4.59634e-19
1.45561e-20
5.48464e-22
-4.91927e-24
-5.60782e-22
-2.86131e-20
-8.44459e-19
-1.71277e-17
-2.55492e-16
-3.0783e-15
-4.40851e-14
-4.93239e-13
-4.15324e-12
-2.50146e-11
-7.68742e-11
1.76283e-26
1.37384e-10
4.5385e-10
7.8456e-10
1.84415e-14
-2.57991e-13
-1.04956e-13
8.51202e-19
4.07241e-21
3.56234e-22
3.97052e-23
-1.84052e-25
-1.59628e-23
-5.19342e-22
-9.36854e-21
-7.25406e-20
-3.63257e-29
-1.99812e-27
2.27225e-18
7.78825e-17
1.6477e-15
2.68033e-14
3.89273e-13
7.47277e-12
2.64812e-10
7.11356e-10
3.18657e-11
6.11228e-13
-2.69794e-13
-9.4196e-15
3.4979e-20
2.09666e-22
1.13662e-23
2.23302e-24
-2.46007e-28
1.91324e-43
-4.87896e-41
-2.03752e-37
-4.95079e-32
3.73413e-23
8.88258e-22
1.77971e-20
3.01883e-19
4.51077e-18
5.95237e-17
5.85019e-15
7.02308e-13
8.04675e-12
1.57882e-11
3.51962e-13
1.59277e-13
-1.73092e-14
-5.73095e-16
1.49647e-20
6.88081e-23
2.61546e-24
1.52159e-25
-1.991e-32
2.24811e-51
2.70018e-31
1.39647e-29
5.32274e-28
1.61621e-26
3.96725e-25
-4.42151e-23
-7.974e-22
-1.34095e-20
-4.1822e-20
1.36749e-16
1.06326e-14
1.08745e-13
2.02604e-13
5.25821e-15
1.63945e-14
-5.13773e-16
-2.49617e-17
1.61846e-21
8.60446e-24
2.19983e-25
1.12936e-26
-5.7019e-51
-2.24811e-51
0
-4.39607e-33
-7.51546e-32
1.23321e-29
-1.29989e-26
-2.62174e-25
-4.64746e-24
-6.58132e-23
-7.91142e-22
6.4627e-20
2.95211e-18
8.96142e-17
1.01507e-15
2.21388e-15
8.73171e-17
-4.12522e-18
-7.90101e-19
7.55498e-23
6.19181e-25
1.51821e-26
7.89085e-28
-4.2156e-37
-5.05502e-35
-2.48519e-33
-4.77598e-32
-2.07488e-33
-4.66044e-30
-1.21231e-28
-2.59392e-27
-4.0282e-26
-5.18208e-25
-4.13203e-24
2.80029e-22
8.53105e-21
3.81087e-19
6.6644e-18
1.76165e-17
1.86895e-19
1.83864e-19
-1.80712e-20
3.88408e-24
3.62317e-26
9.29812e-28
5.1075e-29
-1.43052e-39
-1.54885e-37
-6.60548e-36
-1.67995e-34
-2.34262e-33
-1.07906e-45
8.4992e-35
2.38848e-33
5.7923e-32
4.92268e-31
2.66378e-29
3.00961e-25
9.57696e-24
5.36328e-22
1.20149e-20
3.62081e-20
1.589e-21
3.42406e-21
-2.57285e-22
1.61014e-25
1.83702e-27
4.9865e-29
2.56389e-30
-1.28818e-45
0
0
-6.96032e-55
-4.87557e-50
1.84979e-39
6.70851e-38
1.98915e-36
2.07044e-36
1.43569e-33
3.12245e-32
5.31627e-29
1.84265e-27
3.87021e-26
1.89195e-24
5.79361e-23
2.128e-22
4.15379e-24
-2.35519e-24
5.50262e-27
7.89435e-29
2.33702e-30
1.04414e-31
0
1.17421e-51
1.40641e-49
1.12662e-47
5.99309e-46
2.45192e-44
-1.4793e-41
-1.11141e-38
-1.4197e-38
-8.54623e-37
-1.47915e-35
3.30885e-32
2.3181e-30
5.9602e-29
3.725e-27
1.50484e-25
6.31398e-25
4.52114e-28
-9.81839e-27
1.08118e-28
2.8786e-30
9.17113e-32
3.74783e-33
1.77918e-57
4.79974e-55
6.48298e-53
4.48979e-51
2.43696e-49
8.01536e-48
-1.25721e-44
-9.55003e-44
-3.13144e-42
-3.8188e-41
2.09357e-40
5.74702e-37
8.10717e-35
2.57626e-33
6.17702e-32
3.54931e-30
2.06313e-28
1.10871e-27
1.90749e-29
1.31095e-30
7.81062e-32
2.42696e-33
1.14751e-34
1.64686e-61
5.09959e-59
-3.26059e-55
-4.2277e-53
-3.72068e-51
-2.42071e-49
-2.30717e-47
-5.71339e-46
-4.87799e-45
-1.48764e-43
-5.56439e-42
8.25621e-41
6.13096e-38
3.74563e-36
1.12234e-34
8.45825e-33
6.97807e-31
4.37273e-30
1.24287e-31
1.22441e-32
1.28032e-33
5.48892e-35
3.25468e-36
3.12406e-67
-7.0241e-60
-1.04295e-57
-1.03952e-55
-7.76264e-54
-4.6271e-52
-1.19027e-50
-3.0049e-51
-5.1629e-49
-4.19181e-47
-1.40437e-46
1.17458e-46
2.08236e-42
1.35283e-39
6.12571e-38
6.59148e-36
7.47739e-34
5.37971e-33
1.76334e-35
8.77391e-35
1.71108e-35
1.08451e-36
8.66165e-38
-1.53147e-68
-1.6269e-67
3.69284e-66
5.26972e-64
5.6295e-62
4.87255e-60
3.568e-58
2.28025e-56
5.84512e-55
1.49942e-53
2.84085e-51
6.89863e-49
2.42447e-47
3.95925e-45
7.19522e-43
3.12664e-41
3.34071e-39
5.26135e-37
4.64251e-36
3.88219e-37
1.91714e-37
1.87725e-38
2.00647e-39
-3.17266e-72
3.26446e-73
9.27992e-71
8.07084e-67
2.16085e-66
2.29848e-64
2.02936e-62
1.01505e-60
-2.26207e-58
-3.58744e-56
-4.09772e-54
2.76369e-52
1.02142e-50
4.36545e-49
3.16781e-46
3.54344e-44
6.17763e-42
1.48417e-39
1.58154e-38
1.08353e-39
1.79947e-39
2.8731e-40
4.21485e-41
2.87598e-81
2.88549e-78
9.71449e-76
2.15719e-73
1.59168e-71
-8.06927e-69
-2.32035e-66
-5.43966e-64
-1.56425e-61
-2.02501e-59
-9.1659e-58
3.86371e-56
1.76325e-54
7.82327e-53
4.9022e-51
8.64325e-48
1.72551e-45
7.02314e-43
2.10444e-41
4.58125e-41
1.30683e-41
3.94003e-42
8.19889e-43
1.79187e-86
1.66981e-83
-2.1867e-80
-2.53079e-78
-3.18557e-74
-9.3554e-72
-1.62314e-69
-3.03574e-67
-3.16005e-65
-1.50717e-63
3.56852e-62
3.44665e-60
2.21736e-58
1.44615e-56
9.73158e-55
7.58552e-53
2.33478e-49
1.56176e-46
2.2186e-44
3.04004e-43
8.26355e-44
4.93233e-44
1.62998e-44
1.94025e-93
-2.60528e-87
-1.68376e-83
-3.86088e-84
-5.75047e-79
-2.30151e-76
-6.38118e-74
-7.01928e-72
8.88976e-71
1.30993e-68
1.63403e-66
1.81684e-64
1.91569e-62
1.92016e-60
1.99651e-58
2.1568e-56
2.59987e-54
2.64203e-50
4.84857e-47
1.34451e-45
8.002e-46
5.81201e-46
3.79871e-46
0
-4.64967e-93
-4.66673e-91
-5.72357e-90
1.11801e-92
1.21278e-89
9.69287e-87
6.75526e-84
4.2102e-81
2.39582e-78
1.58024e-75
8.09182e-73
3.95358e-70
2.15086e-66
1.10306e-63
3.16433e-61
9.60142e-59
1.70202e-54
3.48031e-50
3.52292e-48
7.12209e-48
1.07435e-47
7.56917e-48
-6.57877e-106
-2.12296e-105
-4.40094e-102
-2.25127e-104
-2.17935e-104
-5.25006e-105
-1.53602e-102
-3.9014e-99
-6.52741e-96
-1.05931e-92
-4.17511e-90
-1.39244e-87
-6.64169e-85
-4.04468e-82
-2.16013e-79
-1.06029e-76
-5.18283e-74
7.97346e-61
1.20467e-54
2.49536e-51
3.71886e-50
2.17666e-48
5.04132e-48
5.25203e-07
1.70689e-08
2.89733e-09
5.60733e-10
5.82118e-07
1.64726e-08
1.56201e-09
3.1404e-10
1.9585e-07
1.00363e-08
5.39066e-10
1.37648e-10
2.51992e-08
2.38348e-09
2.22425e-10
5.34239e-11
3.94255e-09
6.14131e-10
9.65537e-11
1.90656e-11
1.01269e-09
1.95504e-10
3.88181e-11
5.80499e-12
2.91099e-10
6.38852e-11
1.14727e-11
1.30671e-12
8.98433e-11
1.7633e-11
2.40379e-12
2.4608e-13
2.34168e-11
3.66102e-12
4.31599e-13
4.34408e-14
4.72687e-12
6.36223e-13
7.34021e-14
7.31716e-15
8.33885e-13
1.04953e-13
1.19939e-14
1.17363e-15
1.41368e-13
1.69195e-14
1.88446e-15
1.79588e-16
2.35594e-14
2.65486e-15
2.84918e-16
2.62518e-17
3.87143e-15
4.04213e-16
4.13949e-17
3.66131e-18
6.34669e-16
5.95121e-17
5.75504e-18
4.85442e-19
1.03497e-16
8.44782e-18
7.61569e-19
6.0848e-20
1.53874e-17
1.14083e-18
9.51099e-20
7.15868e-21
1.99048e-18
1.42244e-19
1.10162e-20
7.82073e-22
2.39377e-19
1.6379e-20
1.18124e-21
7.91603e-23
2.80958e-20
1.81545e-21
1.23137e-22
7.71459e-24
3.14011e-21
1.92999e-22
1.24428e-23
7.34662e-25
3.24809e-22
1.92923e-23
1.19557e-24
6.74349e-26
3.07988e-23
1.79897e-24
1.08539e-25
5.90654e-27
2.66276e-24
1.55752e-25
9.27573e-27
4.92066e-28
2.08926e-25
1.24707e-26
7.43775e-28
3.88993e-29
1.45781e-26
9.21084e-28
5.58326e-29
2.91285e-30
9.19528e-28
6.25184e-29
3.91937e-30
2.06433e-31
5.31545e-29
3.90352e-30
2.573e-31
1.38466e-32
3.22801e-30
2.23845e-31
1.58104e-32
8.7983e-34
1.74832e-31
1.20284e-32
9.11643e-34
5.30484e-35
8.14948e-33
6.08056e-34
4.93593e-35
3.04216e-36
3.41652e-34
2.87065e-35
2.52722e-36
1.66404e-37
1.29661e-35
1.25493e-36
1.22961e-37
8.70998e-39
4.49423e-37
5.23914e-38
5.69771e-39
4.37757e-40
1.42332e-38
2.08454e-39
2.52778e-40
2.1201e-41
4.16493e-40
7.95788e-41
1.07563e-41
9.93063e-43
1.22983e-41
2.90416e-42
4.41429e-43
4.51595e-44
3.66216e-43
1.01568e-43
1.75514e-44
2.00187e-45
1.03974e-44
3.4222e-45
6.79315e-46
8.68884e-47
2.74146e-46
1.11093e-46
2.56866e-47
3.70863e-48
6.70879e-48
3.40613e-48
9.20387e-49
1.49814e-49
2.14509e-48
5.23616e-49
8.28621e-50
1.11381e-50
7.37892e-11
2.39162e-11
3.00328e-12
1.95775e-13
1.16447e-14
6.10823e-16
2.93743e-17
1.29699e-18
5.21154e-20
1.88744e-21
6.08273e-23
1.71478e-24
4.12029e-26
8.14661e-28
1.268e-29
1.42799e-31
9.58416e-34
3.32973e-36
3.18715e-37
4.51087e-11
1.57274e-11
2.1178e-12
1.47049e-13
9.60948e-15
5.62455e-16
2.95281e-17
1.39919e-18
5.97296e-20
2.27691e-21
7.67601e-23
2.25869e-24
5.72756e-26
1.22673e-27
2.12701e-29
2.82251e-31
2.61512e-33
1.42189e-35
2.1707e-36
2.03835e-11
6.06736e-12
7.88214e-13
5.77309e-14
4.1151e-15
2.693e-16
1.57081e-17
8.13948e-19
3.74983e-20
1.53523e-21
5.55026e-23
1.75366e-24
4.75849e-26
1.08424e-27
2.02319e-29
2.97026e-31
3.20807e-33
2.23239e-35
1.04858e-36
6.08688e-12
1.75366e-12
2.32252e-13
1.71881e-14
1.24807e-15
8.40773e-17
5.0588e-18
2.71693e-19
1.30044e-20
5.5246e-22
2.0691e-23
6.76603e-25
1.90339e-26
4.51385e-28
8.79749e-30
1.34971e-31
1.52065e-33
1.08083e-35
3.25761e-37
1.53859e-12
4.34532e-13
5.81905e-14
4.51174e-15
3.37218e-16
2.32813e-17
1.43286e-18
7.8604e-20
3.83859e-21
1.66138e-22
6.32966e-24
2.10226e-25
6.00517e-27
1.44765e-28
2.86606e-30
4.47438e-32
5.15884e-34
3.82158e-36
8.5488e-38
3.28518e-13
9.68187e-14
1.3008e-14
1.04362e-15
8.03002e-17
5.67715e-18
3.57508e-19
2.00462e-20
9.99336e-22
4.41014e-23
1.71149e-24
5.78569e-26
1.68132e-27
4.1229e-29
8.30689e-31
1.32151e-32
1.55676e-34
1.19217e-36
1.95828e-38
6.88363e-14
2.00485e-14
2.6018e-15
2.15715e-16
1.70232e-17
1.22436e-18
7.84452e-20
4.47513e-21
2.26865e-22
1.01754e-23
4.01143e-25
1.37706e-26
4.06305e-28
1.01174e-29
2.07119e-31
3.35163e-33
4.02335e-35
3.16101e-37
3.95447e-39
1.40952e-14
3.83946e-15
4.79335e-16
4.0751e-17
3.27106e-18
2.37933e-19
1.54247e-20
8.90621e-22
4.56966e-23
2.07421e-24
8.27448e-26
2.87425e-27
8.5823e-29
2.16341e-30
4.48618e-32
7.36084e-34
8.97278e-36
7.1932e-38
7.11965e-40
2.69328e-15
6.82194e-16
8.234e-17
7.11914e-18
5.76984e-19
4.223e-20
2.75674e-21
1.60369e-22
8.29246e-24
3.7942e-25
1.52604e-26
5.34582e-28
1.61029e-29
4.09691e-31
8.5805e-33
1.42333e-34
1.75648e-36
1.43074e-38
1.15452e-40
4.80705e-16
1.13426e-16
1.32602e-17
1.15807e-18
9.42074e-20
6.90672e-21
4.52066e-22
2.63881e-23
1.36991e-24
6.2959e-26
2.54467e-27
8.9621e-29
2.71557e-30
6.95431e-32
1.46723e-33
2.45425e-35
3.05807e-37
2.52243e-39
1.70065e-41
8.0734e-17
1.77524e-17
2.01e-18
1.76255e-19
1.43195e-20
1.04736e-21
6.84752e-23
3.99634e-24
2.07591e-25
9.55305e-27
3.86878e-28
1.36617e-29
4.15351e-31
1.0681e-32
2.26494e-34
3.81192e-36
4.78511e-38
3.98586e-40
2.29205e-42
1.29123e-17
2.6249e-18
2.87351e-19
2.51742e-20
2.03383e-21
1.47888e-22
9.62576e-24
5.59934e-25
2.90193e-26
1.33358e-27
5.39788e-29
1.90676e-30
5.80407e-32
1.49575e-33
3.18175e-35
5.37786e-37
6.78842e-39
5.69769e-41
2.84392e-43
1.96736e-18
3.67029e-19
3.87826e-20
3.37936e-21
2.70506e-22
1.94959e-23
1.2598e-24
7.28532e-26
3.75803e-27
1.72079e-28
6.94727e-30
2.45024e-31
7.45428e-33
1.92196e-34
4.09492e-36
6.94055e-38
8.7966e-40
7.42653e-42
3.2831e-44
2.84571e-19
4.84767e-20
4.93977e-21
4.26466e-22
3.37221e-23
2.40319e-24
1.53831e-25
8.8258e-27
4.52288e-28
2.06001e-29
8.28234e-31
2.9123e-32
8.84325e-34
2.27836e-35
4.85627e-37
8.24444e-39
1.04797e-40
8.88668e-43
3.71566e-45
3.90358e-20
6.03318e-21
5.92803e-22
5.05567e-23
3.94042e-24
2.7719e-25
1.75488e-26
9.97459e-28
5.07145e-29
2.29483e-30
9.17808e-32
3.21432e-33
9.73288e-35
2.50352e-36
5.33405e-38
9.06315e-40
1.15447e-41
9.82322e-44
4.10817e-46
5.06902e-21
7.05054e-22
6.68716e-23
5.62242e-24
4.3136e-25
2.99234e-26
1.87198e-27
1.05323e-28
5.30894e-30
2.38501e-31
9.48293e-33
3.3059e-34
9.9769e-36
2.5609e-37
5.45155e-39
9.26607e-41
1.1822e-42
1.00876e-44
4.24767e-47
6.2086e-22
7.70346e-23
7.07281e-24
5.85613e-25
4.42074e-26
3.02348e-27
1.86862e-28
1.04045e-29
5.19829e-31
2.3181e-32
9.16152e-34
3.17881e-35
9.56017e-37
2.44844e-38
5.20671e-40
8.85114e-42
1.13075e-43
9.67277e-46
4.08299e-48
7.13288e-23
7.83207e-24
6.99738e-25
5.70406e-26
4.23878e-27
2.85974e-28
1.74681e-29
9.62894e-31
4.77001e-32
2.11209e-33
8.29947e-35
2.86684e-36
8.59384e-38
2.19636e-39
4.66618e-41
7.93354e-43
1.01481e-44
8.70156e-47
3.67684e-49
7.55136e-24
7.36087e-25
6.4573e-26
5.18815e-27
3.8016e-28
2.53322e-29
1.53088e-30
8.36177e-32
4.11048e-33
1.80852e-34
7.07045e-36
2.43277e-37
7.27239e-39
1.85548e-40
3.93943e-42
6.7004e-44
8.58261e-46
7.37689e-48
3.11869e-50
7.00676e-25
6.49199e-26
5.59129e-27
4.41199e-28
3.18644e-29
2.10145e-30
1.25911e-31
6.82676e-33
3.33438e-34
1.45933e-35
5.68163e-37
1.94888e-38
5.81383e-40
1.48171e-41
3.14532e-43
5.35369e-45
6.86889e-47
5.91901e-49
2.50225e-51
6.21432e-26
5.60472e-27
4.68143e-28
3.58268e-29
2.53236e-30
1.6489e-31
9.76978e-33
5.2477e-34
2.55013e-35
1.11229e-36
4.31922e-38
1.47884e-39
4.40654e-41
1.12264e-42
2.38414e-44
4.06305e-46
5.22346e-48
4.51368e-50
1.90681e-52
5.37477e-27
4.73189e-28
3.85663e-29
2.88363e-30
1.99277e-31
1.2676e-32
7.33793e-34
3.86632e-35
1.86401e-36
8.0824e-38
3.12258e-39
1.06586e-40
3.17485e-42
8.09476e-44
1.72141e-45
2.93943e-47
3.78861e-49
3.28415e-51
1.38521e-53
4.45905e-28
3.85746e-29
3.09341e-30
2.27701e-31
1.54739e-32
9.6679e-34
5.50148e-35
2.85204e-36
1.35278e-37
5.7716e-39
2.19717e-40
7.42789e-42
2.20646e-43
5.61966e-45
1.19478e-46
2.04148e-48
2.63519e-50
2.28974e-52
9.62631e-55
3.5362e-29
3.02449e-30
2.39798e-31
1.74459e-32
1.17186e-33
7.23804e-35
4.07336e-36
2.08862e-37
9.78792e-39
4.12851e-40
1.55575e-41
5.21081e-43
1.53463e-44
3.87827e-46
8.19566e-48
1.39447e-49
1.79591e-51
1.56007e-53
6.53095e-56
2.67872e-30
2.27862e-31
1.7946e-32
1.2958e-33
8.63518e-35
5.29017e-36
2.9528e-37
1.50212e-38
6.98778e-40
2.92722e-41
1.09631e-42
3.65034e-44
1.06879e-45
2.68773e-47
5.65922e-49
9.60693e-51
1.23616e-52
1.07462e-54
4.48275e-57
1.93725e-31
1.64845e-32
1.29587e-33
9.3262e-35
6.18853e-36
3.77254e-37
2.09454e-38
1.05985e-39
4.90533e-41
2.04488e-42
7.62468e-44
2.5291e-45
7.38248e-47
1.8521e-48
3.89368e-50
6.60529e-52
8.50135e-54
7.40221e-56
3.07611e-58
1.33788e-32
1.14507e-33
9.02648e-35
6.50157e-36
4.31154e-37
2.62389e-38
1.45336e-39
7.33406e-41
3.38467e-42
1.40688e-43
5.23156e-45
1.73123e-46
5.04405e-48
1.26367e-49
2.65445e-51
4.50232e-53
5.7979e-55
5.05745e-57
2.09251e-59
8.83225e-34
7.64188e-35
6.06718e-36
4.39067e-37
2.92002e-38
1.77961e-39
9.8616e-41
4.97543e-42
2.29467e-43
9.52929e-45
3.54002e-46
1.1704e-47
3.40759e-49
8.53301e-51
1.79226e-52
3.04097e-54
3.91935e-56
3.42553e-58
1.4104e-60
5.58376e-35
4.90596e-36
3.93869e-37
2.87414e-38
1.92317e-39
1.17724e-40
6.54396e-42
3.30878e-43
1.52824e-44
6.35247e-46
2.36136e-47
7.81083e-49
2.27509e-50
5.69981e-52
1.19793e-53
2.03426e-55
2.62482e-57
2.29888e-59
9.41467e-62
3.38859e-36
3.03507e-37
2.47287e-38
1.82557e-39
1.23274e-40
7.60008e-42
4.24838e-43
2.15753e-44
9.99934e-46
4.16765e-47
1.55255e-48
5.14451e-50
1.50072e-51
3.76484e-53
7.92268e-55
1.34713e-56
1.7406e-58
1.52772e-60
6.22036e-63
1.97954e-37
1.81329e-38
1.50411e-39
1.1267e-40
7.69892e-42
4.79259e-43
2.7002e-44
1.38015e-45
6.4302e-47
2.69162e-48
1.00626e-49
3.34421e-51
9.77987e-53
2.45871e-54
5.18382e-56
8.82923e-58
1.1426e-59
1.00502e-61
4.06669e-64
1.11648e-38
1.04872e-39
8.88084e-41
6.76791e-42
4.6914e-43
2.95548e-44
1.68182e-45
8.66805e-47
4.06658e-48
1.7121e-49
6.43169e-51
2.14619e-52
6.29775e-54
1.58782e-55
3.35575e-57
5.72728e-59
7.42461e-61
6.54439e-63
2.63061e-65
6.09743e-40
5.88603e-41
5.10102e-42
3.96418e-43
2.79377e-44
1.78485e-45
1.02777e-46
5.35043e-48
2.53144e-49
1.07341e-50
4.05666e-52
1.36051e-53
4.00909e-55
1.01433e-56
2.1499e-58
3.67782e-60
4.77662e-62
4.2189e-64
1.68399e-66
3.23322e-41
3.21394e-42
2.85671e-43
2.26873e-44
1.62886e-45
1.05727e-46
6.17123e-48
3.24997e-49
1.55285e-50
6.63971e-52
2.52703e-53
8.52535e-55
2.52463e-56
6.41348e-58
1.36381e-59
2.33908e-61
3.04381e-63
2.69358e-65
1.06727e-67
1.66874e-42
1.71148e-43
1.56348e-44
1.2714e-45
9.31621e-47
6.15424e-48
3.64681e-49
1.94552e-50
9.39912e-52
4.0569e-53
1.55637e-54
5.28589e-56
1.57404e-57
4.01678e-59
8.57253e-61
1.47435e-62
1.92237e-64
1.70419e-66
6.70076e-69
8.40273e-44
8.91024e-45
8.38259e-46
6.99272e-47
5.23835e-48
3.52717e-49
2.1248e-50
1.1497e-51
5.62216e-53
2.4519e-54
9.48905e-56
3.24649e-57
9.72634e-59
2.49433e-60
5.34406e-62
9.21784e-64
1.2043e-65
1.06933e-67
4.17115e-70
4.1377e-45
4.54681e-46
4.41405e-47
3.78394e-48
2.90242e-49
1.99474e-50
1.22309e-51
6.71937e-53
3.329e-54
1.46807e-55
5.7353e-57
1.97775e-58
5.96392e-60
1.53751e-61
3.30759e-63
5.72237e-65
7.49106e-67
6.66087e-69
2.57697e-71
1.99779e-46
2.28055e-47
2.28912e-48
2.01992e-49
1.58865e-50
1.11577e-51
6.97073e-53
3.89171e-54
1.9549e-55
8.72309e-57
3.44192e-58
1.19681e-59
3.63377e-61
9.41948e-63
2.03499e-64
3.53148e-66
4.63202e-68
4.12358e-70
1.58197e-72
9.48719e-48
1.12785e-48
1.17272e-49
1.06677e-50
8.61345e-52
6.18861e-53
3.94275e-54
2.23852e-55
1.14078e-56
5.15319e-58
2.05448e-59
7.2057e-61
2.20334e-62
5.74386e-64
1.24628e-65
2.16942e-67
2.85084e-69
2.54036e-71
9.6644e-74
4.44686e-49
5.52033e-50
5.95567e-51
5.59196e-52
4.63989e-53
3.41295e-54
2.21875e-55
1.2817e-56
6.62928e-58
3.0326e-59
1.22194e-60
4.32373e-62
1.33167e-63
3.49145e-65
7.60856e-67
1.32846e-68
1.74884e-70
1.5595e-72
5.59521e-75
1.97272e-50
2.58034e-51
2.92727e-52
2.86439e-53
2.46183e-54
1.86558e-55
1.24381e-56
7.34078e-58
3.85601e-59
1.78676e-60
7.27764e-62
2.59828e-63
8.061e-65
2.12567e-66
4.65233e-68
8.1472e-70
1.07433e-71
9.58468e-74
3.07229e-76
1.40421e-51
1.5458e-52
1.48499e-53
1.26131e-54
9.51158e-56
6.44589e-57
3.90318e-58
2.11704e-59
1.12031e-60
5.26515e-62
2.1703e-63
7.82614e-65
2.44799e-66
6.49792e-68
1.4294e-69
2.51237e-71
3.32067e-73
2.96588e-75
3.00949e-76
)
;

boundaryField
{
    leftWall
    {
        type            zeroGradient;
    }
    rightWall
    {
        type            zeroGradient;
    }
    lowerWall
    {
        type            zeroGradient;
    }
    atmosphere
    {
        type            inletOutlet;
        inletValue      uniform 0;
        value           nonuniform List<scalar> 
46
(
0
0
0
0
0
0
0
0
0
0
0
0
0
0
0
0
0
0
0
0
3.71886e-50
2.17666e-48
5.04132e-48
2.14509e-48
5.23616e-49
8.28621e-50
1.11381e-50
1.40421e-51
1.5458e-52
1.48499e-53
1.26131e-54
9.51158e-56
6.44589e-57
3.90318e-58
2.11704e-59
1.12031e-60
5.26515e-62
2.1703e-63
7.82614e-65
2.44799e-66
6.49792e-68
1.4294e-69
2.51237e-71
3.32067e-73
2.96588e-75
3.00949e-76
)
;
    }
    defaultFaces
    {
        type            empty;
    }
}


// ************************************************************************* //
