/*--------------------------------*- C++ -*----------------------------------*\
| =========                 |                                                 |
| \\      /  F ield         | OpenFOAM: The Open Source CFD Toolbox           |
|  \\    /   O peration     | Version:  2206                                  |
|   \\  /    A nd           | Website:  www.openfoam.com                      |
|    \\/     M anipulation  |                                                 |
\*---------------------------------------------------------------------------*/
FoamFile
{
    version     2.0;
    format      ascii;
    arch        "LSB;label=32;scalar=64";
    class       volScalarField;
    location    "0.075";
    object      p;
}
// * * * * * * * * * * * * * * * * * * * * * * * * * * * * * * * * * * * * * //

dimensions      [1 -1 -2 0 0 0 0];

internalField   nonuniform List<scalar> 
2268
(
1618.82
1611.85
1594.62
1568.07
1532.27
1486.52
1430.04
1361.72
1280.61
1184.88
1071.28
941.269
790.008
598.222
372.615
177.867
71.7247
25.9626
10.6588
6.30873
5.07105
5.17597
5.49927
1560.79
1553.82
1536.57
1510.04
1474.25
1428.49
1371.98
1303.61
1222.41
1126.47
1012.36
881.847
729.528
532.782
299.586
110.502
31.7391
10.8419
7.18843
5.12924
4.5192
4.85903
5.28187
1503.61
1496.64
1479.38
1452.87
1417.09
1371.32
1314.78
1246.29
1164.93
1068.57
953.548
822.063
667.324
461.089
218.648
56.4837
12.8222
4.76321
4.16897
3.30594
3.39516
4.06219
4.58768
1447.3
1440.32
1423.04
1396.57
1360.81
1315.04
1258.45
1189.84
1108.25
1011.29
895.076
762.294
603.352
383.207
140.639
28.4391
7.55682
3.12015
1.951
1.67297
2.26917
3.17
3.73703
1391.89
1384.87
1367.6
1341.17
1305.45
1259.68
1203.07
1134.33
1052.51
954.873
837.403
703.329
538.504
302.226
76.8226
14.7828
4.89647
2.45902
1.48802
1.24433
1.64044
2.45184
2.99181
1337.39
1330.35
1313.08
1286.72
1251.05
1205.33
1148.71
1079.89
997.885
899.605
781.11
646.086
474.344
225.462
39.1537
8.5783
3.37377
2.0421
1.38655
1.2149
1.47384
2.02251
2.39954
1283.79
1276.7
1259.46
1233.19
1197.6
1151.94
1095.37
1026.52
944.383
845.494
726.396
591.198
412.356
157.371
21.4532
5.21124
2.45496
1.73148
1.34338
1.2293
1.39828
1.75083
1.91902
1231.07
1223.89
1206.69
1180.52
1145.03
1099.47
1042.97
974.138
891.927
792.512
673.159
538.281
352.873
101.236
11.6565
3.24877
1.92375
1.51998
1.29073
1.21495
1.31657
1.52353
1.49228
0.850058
0.848086
0.842699
0.834721
0.825135
0.814739
0.804098
0.79359
0.7835
0.774033
0.765326
0.757474
0.750537
0.744553
0.73955
0.735544
0.732541
0.730547
0.729556
0.791474
0.789729
0.784325
0.776201
0.766461
0.755928
0.745181
0.734601
0.724464
0.714964
0.706234
0.698366
0.691418
0.685428
0.68042
0.676411
0.673407
0.671412
0.670423
0.733118
0.731915
0.726475
0.718035
0.707973
0.697176
0.68623
0.6755
0.665254
0.655678
0.646896
0.638992
0.63202
0.626013
0.620995
0.61698
0.613973
0.611976
0.610985
0.67485
0.674708
0.669199
0.660225
0.649654
0.638453
0.627205
0.616255
0.605851
0.596164
0.587305
0.579347
0.572339
0.56631
0.561277
0.557252
0.554239
0.552239
0.551246
0.616656
0.618286
0.612559
0.602758
0.591471
0.579722
0.568079
0.556843
0.546237
0.536408
0.527451
0.519427
0.512374
0.506315
0.501263
0.497227
0.494206
0.492201
0.491206
0.557704
0.562875
0.556617
0.545588
0.533372
0.520959
0.508813
0.497233
0.486389
0.476396
0.467325
0.459223
0.452118
0.446025
0.440952
0.436901
0.433871
0.431861
0.430863
0.49377
0.508135
0.501515
0.488644
0.475262
0.462062
0.449354
0.43739
0.426283
0.416109
0.406915
0.398729
0.391567
0.385437
0.380339
0.376273
0.373234
0.371218
0.370218
0.426055
0.453759
0.447255
0.431869
0.416998
0.402935
0.389638
0.377269
0.36589
0.355529
0.346206
0.337934
0.330714
0.324545
0.319423
0.315341
0.312293
0.310272
0.30927
1150.22
1142.84
1125.79
1099.82
1064.57
1019.28
963.046
894.48
812.372
712.842
593.964
458.706
265.225
44.9039
5.19895
1.87262
1.46449
1.30802
1.18353
1.13227
1.15506
1.18913
0.880432
1044.85
1037.36
1020.59
995.122
960.499
915.996
860.718
793.308
712.572
614.582
498.789
365.476
171.945
12.4216
2.07985
1.18688
1.10988
1.04749
0.976209
0.939522
0.921593
0.893635
0.773338
944.272
936.724
920.382
895.616
861.929
818.643
764.916
699.481
621.273
526.51
416.205
287.842
105.299
4.97493
1.36144
0.903988
0.864446
0.808894
0.762975
0.735723
0.716414
0.691708
0.656015
848.704
841.182
825.425
801.601
769.194
727.606
676.075
613.487
538.97
449.059
346.218
225.137
60.7796
2.45561
0.904107
0.657178
0.625567
0.578082
0.547851
0.525464
0.506221
0.478486
0.438003
758.279
750.882
735.875
713.225
682.438
643.005
594.272
535.306
465.458
381.673
287.557
175.215
32.2444
0.930864
0.344896
0.377157
0.362609
0.342718
0.326315
0.308043
0.287969
0.259085
0.218252
673.051
665.88
651.778
630.516
601.654
564.777
519.35
464.63
400.186
323.409
238.701
136.06
15.4057
0.155943
-0.102622
0.0986513
0.10213
0.107153
0.102189
0.0896005
0.0722769
0.0475516
0.0143124
592.967
586.119
573.049
553.355
526.666
492.662
450.926
400.897
342.333
273.067
197.979
105.585
6.49029
-0.0570049
-0.301449
-0.146018
-0.131345
-0.11842
-0.117843
-0.125569
-0.138888
-0.158606
-0.184948
517.873
511.428
499.486
481.497
457.166
426.262
388.479
343.415
290.982
229.424
163.804
81.7193
2.14228
-0.267755
-0.397076
-0.352193
-0.343112
-0.333041
-0.331715
-0.33665
-0.346596
-0.361864
-0.38235
447.534
441.559
430.814
414.627
392.784
365.127
331.454
291.499
245.285
191.416
134.876
62.8481
0.265371
-0.580102
-0.553625
-0.5547
-0.547766
-0.541515
-0.540886
-0.544181
-0.551295
-0.562483
-0.577654
381.65
376.199
366.692
352.372
333.095
308.761
279.26
244.446
204.413
158.072
110.093
47.7515
-0.420395
-0.771761
-0.7337
-0.759525
-0.751385
-0.747609
-0.74726
-0.749029
-0.753439
-0.760796
-0.771163
319.723
314.827
306.573
294.139
277.444
256.435
231.071
201.306
167.291
128.191
88.1955
35.2318
-0.750191
-0.949446
-0.909287
-0.969432
-0.956728
-0.953355
-0.952159
-0.951976
-0.953543
-0.957199
-0.963164
261.263
256.976
249.988
239.434
225.288
207.56
186.256
161.394
133.152
100.898
68.246
24.3233
-1.13977
-1.26325
-1.11787
-1.18376
-1.16492
-1.15946
-1.15628
-1.15362
-1.15207
-1.15201
-1.15379
206.743
203.061
197.373
188.69
177.058
162.566
145.255
125.176
102.51
76.7335
50.7195
15.0956
-1.45822
-1.56682
-1.34434
-1.38869
-1.37079
-1.36463
-1.35981
-1.35449
-1.34952
-1.34555
-1.34318
155.82
152.425
147.96
141.07
131.838
120.414
106.866
91.2963
73.9299
54.3737
34.7651
7.48423
-1.6576
-1.65238
-1.53388
-1.56556
-1.56962
-1.56862
-1.56344
-1.55533
-1.54643
-1.53818
-1.53148
102.043
98.8411
95.4173
90.1038
83.0027
74.29
64.0608
52.4857
39.8683
26.1555
13.4961
-2.14748
-1.96333
-1.57046
-1.66456
-1.74763
-1.77381
-1.77675
-1.76964
-1.75727
-1.74334
-1.73011
-1.71873
47.7084
45.6021
43.3682
39.7166
34.9188
29.113
22.4427
15.0773
7.36256
-0.596683
-6.93763
-12.8482
-2.46369
-1.4736
-1.79835
-1.97043
-2.0013
-1.99707
-1.98202
-1.96163
-1.94062
-1.92132
-1.90476
21.0803
20.1592
19.2773
17.7225
15.73
13.4081
10.8984
8.27122
5.9203
3.81126
3.45285
5.87935
-4.28313
-1.78043
-2.16065
-2.31087
-2.2772
-2.23732
-2.20308
-2.16882
-2.13798
-2.11134
-2.08908
18.2147
17.9634
17.6185
17.0894
16.3945
15.3376
14.1047
12.7771
11.4546
9.04136
6.93516
-0.208019
0.498544
-3.37849
-2.93529
-2.80113
-2.60981
-2.49959
-2.43106
-2.37702
-2.33398
-2.29918
-2.27102
-3.82603
-3.83499
-3.86021
-3.89427
-3.91494
-3.91742
-3.92234
-3.9326
-3.95012
-3.99478
-4.10423
-4.2447
-4.60375
-5.18929
-4.02932
-3.35765
-2.95665
-2.7681
-2.6571
-2.58138
-2.52583
-2.48308
-2.4494
-3.98583
-3.98722
-3.99168
-3.99481
-3.99046
-3.98921
-3.99029
-3.99385
-4.00309
-4.03046
-4.08929
-4.22765
-4.65231
-5.25829
-4.82356
-3.72582
-3.24966
-3.00696
-2.86562
-2.77448
-2.70966
-2.66095
-2.62302
-4.02908
-4.02876
-4.02953
-4.02836
-4.02394
-4.01932
-4.01457
-4.01004
-4.0084
-4.00757
-4.01328
-4.10901
-4.38618
-4.52333
-4.27814
-3.72331
-3.39334
-3.17719
-3.04163
-2.94932
-2.88213
-2.83102
-2.79088
-4.07644
-4.07545
-4.07355
-4.0697
-4.06355
-4.0557
-4.04617
-4.03556
-4.02397
-4.00712
-3.99157
-4.0163
-4.07586
-4.03604
-3.85004
-3.61097
-3.43436
-3.29263
-3.18687
-3.10571
-3.0427
-2.99281
-2.9526
-4.12945
-4.12818
-4.12448
-4.11873
-4.11073
-4.10026
-4.08714
-4.07127
-4.05134
-4.02492
-3.99836
-3.98422
-3.9622
-3.88206
-3.74189
-3.60345
-3.49418
-3.39827
-3.31758
-3.24987
-3.19377
-3.14725
-3.10855
-4.18432
-4.18204
-4.17733
-4.17034
-4.16074
-4.14823
-4.13248
-4.11287
-4.08815
-4.05767
-4.02425
-3.98952
-3.94295
-3.87114
-3.77697
-3.67575
-3.58925
-3.51265
-3.44609
-3.38833
-3.33862
-3.29602
-3.25961
-4.24323
-4.24032
-4.23521
-4.22748
-4.21678
-4.20287
-4.18543
-4.16376
-4.13702
-4.10522
-4.06932
-4.02798
-3.97595
-3.91116
-3.8387
-3.76483
-3.69528
-3.63145
-3.57441
-3.52388
-3.47945
-3.44057
-3.40667
-4.30535
-4.30261
-4.29737
-4.28922
-4.27792
-4.26326
-4.24498
-4.22258
-4.19554
-4.16383
-4.12762
-4.08599
-4.03716
-3.98119
-3.9213
-3.86154
-3.80428
-3.75064
-3.70148
-3.65703
-3.61722
-3.58181
-3.55045
-4.37181
-4.36937
-4.36402
-4.35568
-4.34423
-4.32943
-4.31108
-4.2889
-4.2626
-4.23213
-4.19743
-4.15814
-4.11394
-4.06559
-4.0151
-3.96478
-3.91618
-3.8702
-3.82744
-3.78818
-3.75252
-3.72035
-3.6915
-4.44299
-4.44053
-4.43507
-4.42673
-4.41542
-4.40092
-4.38305
-4.36169
-4.3367
-4.30805
-4.27576
-4.2398
-4.20041
-4.15839
-4.11508
-4.07195
-4.03008
-3.99014
-3.95262
-3.91781
-3.88583
-3.85668
-3.83026
-4.51806
-4.51544
-4.51001
-4.50188
-4.49096
-4.47704
-4.46004
-4.43988
-4.41654
-4.39006
-4.36054
-4.32813
-4.29322
-4.25653
-4.21898
-4.18159
-4.14517
-4.11023
-4.07715
-4.04621
-4.01755
-3.99118
-3.9671
-4.59617
-4.59351
-4.58834
-4.58063
-4.57028
-4.55719
-4.54129
-4.52257
-4.50109
-4.47693
-4.45024
-4.42126
-4.39041
-4.35826
-4.32552
-4.29291
-4.26103
-4.23033
-4.20111
-4.1736
-4.14794
-4.12418
-4.10232
-4.6771
-4.67461
-4.66983
-4.66267
-4.65304
-4.64091
-4.62625
-4.6091
-4.58954
-4.56771
-4.54377
-4.51801
-4.49078
-4.46257
-4.43393
-4.40538
-4.37741
-4.3504
-4.32458
-4.30015
-4.27724
-4.2559
-4.23617
-4.76093
-4.75874
-4.7544
-4.74784
-4.73899
-4.72787
-4.71449
-4.69893
-4.68129
-4.6617
-4.64035
-4.61752
-4.59353
-4.56878
-4.54369
-4.51869
-4.49415
-4.47039
-4.44762
-4.42599
-4.40562
-4.38657
-4.36887
-4.84768
-4.84578
-4.84187
-4.83588
-4.82781
-4.8177
-4.80559
-4.79158
-4.77576
-4.75829
-4.73935
-4.7192
-4.69812
-4.67643
-4.65449
-4.63263
-4.61115
-4.59031
-4.57031
-4.55126
-4.53325
-4.51635
-4.5006
-4.93703
-4.93538
-4.93184
-4.9264
-4.91909
-4.90996
-4.89909
-4.88655
-4.87246
-4.85698
-4.84027
-4.82257
-4.80411
-4.78519
-4.76607
-4.74704
-4.72833
-4.71016
-4.69271
-4.67604
-4.66026
-4.64541
-4.63153
-5.02851
-5.02704
-5.02385
-5.01894
-5.01237
-5.0042
-4.99451
-4.98339
-4.97094
-4.95732
-4.94269
-4.92725
-4.91121
-4.89481
-4.87827
-4.86182
-4.84566
-4.82995
-4.81484
-4.80043
-4.78676
-4.77386
-4.76179
-5.12161
-5.1203
-5.11744
-5.11305
-5.10722
-5.09999
-5.09146
-5.0817
-5.07083
-5.05898
-5.0463
-5.03297
-5.01918
-5.00511
-4.99096
-4.9769
-4.96311
-4.94972
-4.93684
-4.92454
-4.91286
-4.90185
-4.89151
-5.21596
-5.21478
-5.21224
-5.20839
-5.2033
-5.19701
-5.18961
-5.18118
-5.17183
-5.16168
-5.15086
-5.13953
-5.12785
-5.11597
-5.10406
-5.09226
-5.08069
-5.06948
-5.05871
-5.04844
-5.03867
-5.02946
-5.02082
-5.31123
-5.31019
-5.308
-5.3047
-5.30035
-5.295
-5.28873
-5.28161
-5.27374
-5.26523
-5.2562
-5.24678
-5.2371
-5.22731
-5.21752
-5.20785
-5.1984
-5.18927
-5.18051
-5.17221
-5.16427
-5.15681
-5.14981
-5.4073
-5.4064
-5.40457
-5.40183
-5.39822
-5.39381
-5.38865
-5.38282
-5.3764
-5.36948
-5.36218
-5.3546
-5.34686
-5.33906
-5.33129
-5.32367
-5.31625
-5.3091
-5.30228
-5.29577
-5.28971
-5.28397
-5.27859
-5.50435
-5.50362
-5.50214
-5.49995
-5.49707
-5.49357
-5.48948
-5.48489
-5.47986
-5.47447
-5.46882
-5.463
-5.4571
-5.4512
-5.44538
-5.43971
-5.43425
-5.42904
-5.42411
-5.41946
-5.41513
-5.41106
-5.40725
-5.60203
-5.6015
-5.6004
-5.59876
-5.59661
-5.594
-5.59097
-5.58759
-5.58392
-5.58002
-5.57598
-5.57186
-5.56774
-5.56368
-5.55975
-5.55598
-5.55242
-5.5491
-5.54602
-5.54319
-5.54058
-5.53815
-5.53589
-5.69876
-5.69849
-5.6978
-5.69677
-5.69542
-5.69378
-5.69191
-5.68983
-5.68761
-5.6853
-5.68295
-5.68061
-5.67834
-5.67618
-5.67417
-5.67233
-5.6707
-5.66927
-5.66805
-5.66702
-5.66615
-5.66535
-5.66461
-0.0507311
0.396474
0.490575
0.426234
0.404322
0.408018
0.389041
0.328685
0.448702
0.317923
0.2629
0.205188
0.306488
0.192865
0.128637
0.0711486
0.135787
0.0481323
-0.0163411
-0.0716174
-0.0424117
-0.112165
-0.170749
-0.221355
-0.227048
-0.281935
-0.331896
-0.376513
-0.413951
-0.456446
-0.497621
-0.535781
-0.600949
-0.633341
-0.666347
-0.698048
-0.787535
-0.811402
-0.83694
-0.862421
-0.973472
-0.98987
-1.00859
-1.0282
-1.15856
-1.16824
-1.18072
-1.19483
-1.34269
-1.34616
-1.35288
-1.36185
-1.52577
-1.52337
-1.5247
-1.52887
-1.70768
-1.6996
-1.69587
-1.69557
-1.88818
-1.87459
-1.86608
-1.86162
-2.06688
-2.04798
-2.03502
-2.02673
-2.24326
-2.21939
-2.20236
-2.19063
-2.41665
-2.38841
-2.36781
-2.35301
-2.58637
-2.55462
-2.53107
-2.5137
-2.75186
-2.71767
-2.69191
-2.6725
-2.91283
-2.87737
-2.85016
-2.82929
-3.06941
-3.0337
-3.00578
-2.98399
-3.22196
-3.18681
-3.15882
-3.1366
-3.37098
-3.33697
-3.3094
-3.28719
-3.51696
-3.48445
-3.4577
-3.43585
-3.66031
-3.62957
-3.60392
-3.5827
-3.80141
-3.77258
-3.74825
-3.72789
-3.94057
-3.91376
-3.89089
-3.87157
-4.07807
-4.05332
-4.03203
-4.01389
-4.21415
-4.19149
-4.17185
-4.15498
-4.34903
-4.32846
-4.31051
-4.29499
-4.48287
-4.46438
-4.44816
-4.43406
-4.61585
-4.59942
-4.58494
-4.57229
-4.74811
-4.73373
-4.72099
-4.70982
-4.87979
-4.86742
-4.85643
-4.84676
-5.011
-5.00061
-4.99136
-4.9832
-5.14186
-5.13342
-5.1259
-5.11924
-5.27246
-5.26596
-5.26014
-5.25499
-5.40291
-5.39831
-5.39419
-5.39053
-5.53331
-5.53058
-5.52813
-5.52595
-5.66376
-5.66287
-5.66206
-5.66134
0.377498
0.37412
0.361932
0.342977
0.325545
0.310026
0.295793
0.282788
0.270977
0.260322
0.2508
0.242393
0.235084
0.228858
0.2237
0.219595
0.216534
0.214506
0.2135
0.281905
0.257103
0.237375
0.217186
0.198306
0.181437
0.166243
0.152542
0.140237
0.129242
0.119492
0.110935
0.103532
0.097249
0.092059
0.0879392
0.0848711
0.082841
0.0818344
0.160226
0.132235
0.108919
0.0873675
0.0676552
0.0500498
0.0342989
0.0201928
0.00759773
-0.00359527
-0.0134731
-0.0221047
-0.029546
-0.0358425
-0.041031
-0.0451416
-0.0481982
-0.0502187
-0.0512201
0.0285975
5.71552e-05
-0.0246144
-0.0466916
-0.0665691
-0.0843496
-0.100243
-0.114444
-0.127094
-0.138308
-0.14818
-0.156786
-0.164188
-0.170439
-0.175581
-0.179649
-0.18267
-0.184666
-0.185654
-0.111369
-0.138831
-0.163137
-0.184842
-0.204324
-0.221794
-0.237442
-0.251433
-0.2639
-0.274948
-0.284667
-0.293133
-0.300407
-0.306543
-0.311586
-0.315572
-0.31853
-0.320483
-0.32145
-0.257691
-0.283186
-0.306143
-0.3268
-0.345407
-0.362165
-0.377233
-0.390742
-0.402802
-0.413504
-0.422925
-0.431133
-0.438186
-0.444135
-0.449022
-0.452883
-0.455748
-0.457639
-0.458575
-0.408948
-0.43199
-0.453035
-0.472165
-0.489523
-0.505252
-0.519465
-0.53226
-0.543718
-0.553909
-0.562897
-0.570737
-0.57748
-0.583169
-0.587844
-0.591539
-0.59428
-0.59609
-0.596986
-0.564045
-0.584376
-0.603191
-0.620487
-0.636325
-0.650783
-0.663928
-0.67582
-0.686513
-0.696054
-0.70449
-0.711863
-0.718213
-0.723576
-0.727988
-0.731476
-0.734066
-0.735775
-0.736621
-0.72207
-0.739586
-0.756013
-0.771298
-0.785438
-0.798456
-0.810374
-0.821219
-0.831017
-0.839795
-0.84758
-0.854402
-0.860289
-0.86527
-0.869371
-0.872618
-0.87503
-0.876622
-0.87741
-0.882267
-0.896967
-0.910956
-0.924146
-0.936486
-0.947954
-0.958538
-0.968233
-0.97704
-0.984967
-0.992024
-0.998227
-1.00359
-1.00814
-1.0119
-1.01487
-1.01708
-1.01855
-1.01927
-1.04402
-1.05597
-1.06754
-1.07861
-1.0891
-1.09896
-1.10815
-1.11662
-1.12438
-1.13139
-1.13766
-1.1432
-1.148
-1.15208
-1.15546
-1.15814
-1.16013
-1.16145
-1.1621
-1.20681
-1.21611
-1.22532
-1.2343
-1.24294
-1.25118
-1.25893
-1.26615
-1.27281
-1.27887
-1.28433
-1.28916
-1.29337
-1.29696
-1.29993
-1.3023
-1.30407
-1.30524
-1.30582
-1.37021
-1.37698
-1.38391
-1.39085
-1.39769
-1.4043
-1.41063
-1.41659
-1.42214
-1.42723
-1.43185
-1.43596
-1.43956
-1.44264
-1.44521
-1.44726
-1.44879
-1.4498
-1.4503
-1.53384
-1.53821
-1.54297
-1.54796
-1.55303
-1.55807
-1.56299
-1.56771
-1.57215
-1.57628
-1.58005
-1.58345
-1.58644
-1.58901
-1.59116
-1.59288
-1.59417
-1.59503
-1.59545
-1.69735
-1.69947
-1.70218
-1.70531
-1.70869
-1.71222
-1.71578
-1.71928
-1.72266
-1.72584
-1.72879
-1.73147
-1.73386
-1.73593
-1.73767
-1.73907
-1.74012
-1.74082
-1.74116
-1.86044
-1.86047
-1.86126
-1.86263
-1.86443
-1.86652
-1.86879
-1.87113
-1.87347
-1.87574
-1.8779
-1.87989
-1.88169
-1.88327
-1.88461
-1.88569
-1.88651
-1.88706
-1.88732
-2.02283
-2.02093
-2.01994
-2.0197
-2.02001
-2.02076
-2.02181
-2.02306
-2.02442
-2.02583
-2.02723
-2.02857
-2.02981
-2.03092
-2.03187
-2.03266
-2.03325
-2.03365
-2.03384
-2.18426
-2.1806
-2.178
-2.17627
-2.17523
-2.17474
-2.17467
-2.1749
-2.17537
-2.17597
-2.17667
-2.17739
-2.1781
-2.17877
-2.17936
-2.17985
-2.18023
-2.18049
-2.18062
-2.34446
-2.33926
-2.33523
-2.33217
-2.32991
-2.3283
-2.32721
-2.32653
-2.32616
-2.32603
-2.32607
-2.32623
-2.32645
-2.32671
-2.32696
-2.32719
-2.32737
-2.3275
-2.32756
-2.50329
-2.49673
-2.49145
-2.48723
-2.4839
-2.48131
-2.47931
-2.4778
-2.47669
-2.4759
-2.47535
-2.47499
-2.47477
-2.47465
-2.4746
-2.47458
-2.47458
-2.47459
-2.4746
-2.66057
-2.65289
-2.64656
-2.64135
-2.63709
-2.63363
-2.63084
-2.6286
-2.62686
-2.62547
-2.6244
-2.62358
-2.62297
-2.62251
-2.62218
-2.62195
-2.62179
-2.62169
-2.62164
-2.81619
-2.80762
-2.80043
-2.7944
-2.78937
-2.78519
-2.78173
-2.77889
-2.77656
-2.77467
-2.77315
-2.77193
-2.77097
-2.77022
-2.76965
-2.76922
-2.76892
-2.76872
-2.76862
-2.97006
-2.96084
-2.953
-2.94633
-2.94069
-2.93592
-2.93191
-2.92856
-2.92576
-2.92344
-2.92154
-2.91998
-2.91872
-2.91772
-2.91693
-2.91634
-2.91591
-2.91563
-2.91549
-3.12217
-3.11252
-3.10422
-3.09709
-3.09098
-3.08577
-3.08133
-3.07757
-3.07439
-3.07173
-3.0695
-3.06767
-3.06616
-3.06494
-3.06398
-3.06325
-3.06271
-3.06237
-3.06218
-3.27255
-3.26267
-3.25409
-3.24666
-3.24023
-3.2347
-3.22995
-3.22588
-3.22242
-3.21948
-3.21701
-3.21495
-3.21325
-3.21186
-3.21076
-3.20991
-3.20929
-3.20889
-3.20868
-3.42125
-3.41132
-3.40263
-3.39505
-3.38844
-3.38271
-3.37775
-3.37348
-3.36981
-3.36669
-3.36403
-3.36181
-3.35995
-3.35844
-3.35722
-3.35629
-3.3556
-3.35516
-3.35492
-3.56837
-3.55855
-3.54989
-3.54229
-3.53563
-3.52981
-3.52475
-3.52036
-3.51657
-3.51332
-3.51055
-3.50821
-3.50625
-3.50465
-3.50336
-3.50235
-3.50162
-3.50114
-3.5009
-3.714
-3.70442
-3.69594
-3.68844
-3.68183
-3.67603
-3.67095
-3.66653
-3.66269
-3.65938
-3.65655
-3.65415
-3.65214
-3.65047
-3.64913
-3.64809
-3.64733
-3.64683
-3.64657
-3.85827
-3.84905
-3.84084
-3.83354
-3.82709
-3.82139
-3.81638
-3.812
-3.80819
-3.80488
-3.80204
-3.79963
-3.79759
-3.79591
-3.79455
-3.79349
-3.79271
-3.7922
-3.79195
-4.0013
-3.99253
-3.98468
-3.97768
-3.97146
-3.96595
-3.96108
-3.95681
-3.95308
-3.94983
-3.94703
-3.94464
-3.94263
-3.94096
-3.9396
-3.93855
-3.93777
-3.93726
-3.937
-4.1432
-4.13495
-4.12755
-4.12092
-4.11501
-4.10975
-4.10509
-4.10099
-4.09739
-4.09425
-4.09154
-4.08921
-4.08725
-4.08562
-4.08429
-4.08326
-4.0825
-4.082
-4.08175
-4.28409
-4.27644
-4.26954
-4.26335
-4.2578
-4.25285
-4.24846
-4.24457
-4.24116
-4.23817
-4.23558
-4.23336
-4.23147
-4.22991
-4.22863
-4.22764
-4.2269
-4.22642
-4.22618
-4.4241
-4.41708
-4.41075
-4.40503
-4.3999
-4.39532
-4.39123
-4.38761
-4.38442
-4.38162
-4.37919
-4.3771
-4.37532
-4.37384
-4.37264
-4.37169
-4.371
-4.37054
-4.37032
-4.56332
-4.55699
-4.55125
-4.54606
-4.54139
-4.53721
-4.53347
-4.53015
-4.52721
-4.52464
-4.52239
-4.52046
-4.51881
-4.51744
-4.51632
-4.51545
-4.5148
-4.51438
-4.51417
-4.70187
-4.69625
-4.69114
-4.68651
-4.68233
-4.67858
-4.67522
-4.67224
-4.66959
-4.66726
-4.66523
-4.66348
-4.66198
-4.66074
-4.65972
-4.65892
-4.65834
-4.65795
-4.65776
-4.83985
-4.83496
-4.8305
-4.82646
-4.8228
-4.81951
-4.81656
-4.81393
-4.81159
-4.80954
-4.80774
-4.80619
-4.80486
-4.80376
-4.80285
-4.80214
-4.80162
-4.80128
-4.80111
-4.97735
-4.9732
-4.96942
-4.96598
-4.96286
-4.96005
-4.95753
-4.95528
-4.95328
-4.95151
-4.94996
-4.94863
-4.94749
-4.94653
-4.94575
-4.94514
-4.94469
-4.94439
-4.94425
-5.11447
-5.11107
-5.10797
-5.10515
-5.10259
-5.10028
-5.0982
-5.09634
-5.09469
-5.09322
-5.09194
-5.09084
-5.08989
-5.08909
-5.08845
-5.08794
-5.08756
-5.08731
-5.0872
-5.25129
-5.24865
-5.24624
-5.24405
-5.24205
-5.24025
-5.23863
-5.23717
-5.23587
-5.23473
-5.23372
-5.23285
-5.23211
-5.23149
-5.23098
-5.23058
-5.23028
-5.23009
-5.23
-5.3879
-5.38602
-5.38431
-5.38274
-5.38132
-5.38003
-5.37886
-5.37782
-5.37689
-5.37607
-5.37535
-5.37473
-5.37419
-5.37374
-5.37338
-5.37309
-5.37287
-5.37273
-5.37267
-5.52438
-5.52326
-5.52223
-5.5213
-5.52045
-5.51967
-5.51898
-5.51835
-5.5178
-5.5173
-5.51687
-5.51649
-5.51617
-5.5159
-5.51568
-5.51551
-5.51538
-5.51529
-5.51526
-5.66082
-5.66045
-5.66011
-5.6598
-5.65952
-5.65926
-5.65903
-5.65882
-5.65864
-5.65847
-5.65833
-5.6582
-5.6581
-5.65801
-5.65793
-5.65788
-5.65783
-5.6578
-5.65779
)
;

boundaryField
{
    leftWall
    {
        type            calculated;
        value           nonuniform List<scalar> 
50
(
1618.82
1560.79
1503.61
1447.3
1391.89
1337.39
1283.79
1231.07
1150.22
1044.85
944.272
848.704
758.279
673.051
592.967
517.873
447.534
381.65
319.723
261.263
206.743
155.82
102.043
47.7084
21.0803
18.2147
-3.82603
-3.98583
-4.02908
-4.07644
-4.12945
-4.18432
-4.24323
-4.30535
-4.37181
-4.44299
-4.51806
-4.59617
-4.6771
-4.76093
-4.84768
-4.93703
-5.02851
-5.12161
-5.21596
-5.31123
-5.4073
-5.50435
-5.60203
-5.69876
)
;
    }
    rightWall
    {
        type            calculated;
        value           nonuniform List<scalar> 
50
(
0.729556
0.670423
0.610985
0.551246
0.491206
0.430863
0.370218
0.30927
0.2135
0.0818344
-0.0512201
-0.185654
-0.32145
-0.458575
-0.596986
-0.736621
-0.87741
-1.01927
-1.1621
-1.30582
-1.4503
-1.59545
-1.74116
-1.88732
-2.03384
-2.18062
-2.32756
-2.4746
-2.62164
-2.76862
-2.91549
-3.06218
-3.20868
-3.35492
-3.5009
-3.64657
-3.79195
-3.937
-4.08175
-4.22618
-4.37032
-4.51417
-4.65776
-4.80111
-4.94425
-5.0872
-5.23
-5.37267
-5.51526
-5.65779
)
;
    }
    lowerWall
    {
        type            calculated;
        value           nonuniform List<scalar> 
62
(
1648.25
1641.28
1624.05
1597.5
1561.7
1515.95
1459.46
1391.15
1310.04
1214.31
1100.71
970.699
819.436
627.578
401.702
206.223
94.1923
32.7394
11.3416
6.52165
5.14938
5.22952
5.55282
5.49927
5.28187
4.58768
3.73703
2.99181
2.39954
1.91902
1.49228
0.011899
0.459072
0.553172
0.488832
0.850058
0.791474
0.733118
0.67485
0.616656
0.557704
0.49377
0.426055
0.879488
0.877515
0.872129
0.86415
0.854565
0.844168
0.833527
0.823019
0.812929
0.803462
0.794756
0.786903
0.779966
0.773983
0.76898
0.764973
0.761971
0.759976
0.758986
)
;
    }
    atmosphere
    {
        type            calculated;
        value           nonuniform List<scalar> 
46
(
-5.74547
-5.74542
-5.74497
-5.74431
-5.74345
-5.74242
-5.74125
-5.73997
-5.73862
-5.73725
-5.73588
-5.73457
-5.73335
-5.73224
-5.73128
-5.73048
-5.72986
-5.72942
-5.72915
-5.72904
-5.72904
-5.72904
-5.72904
-5.72904
-5.72904
-5.72904
-5.72904
-5.72904
-5.72904
-5.72904
-5.72904
-5.72904
-5.72904
-5.72904
-5.72904
-5.72904
-5.72904
-5.72904
-5.72904
-5.72904
-5.72904
-5.72904
-5.72904
-5.72904
-5.72904
-5.72904
)
;
    }
    defaultFaces
    {
        type            empty;
    }
}


// ************************************************************************* //
