/*--------------------------------*- C++ -*----------------------------------*\
| =========                 |                                                 |
| \\      /  F ield         | OpenFOAM: The Open Source CFD Toolbox           |
|  \\    /   O peration     | Version:  2206                                  |
|   \\  /    A nd           | Website:  www.openfoam.com                      |
|    \\/     M anipulation  |                                                 |
\*---------------------------------------------------------------------------*/
FoamFile
{
    version     2.0;
    format      ascii;
    arch        "LSB;label=32;scalar=64";
    class       volScalarField;
    location    "0.075";
    object      p_rgh;
}
// * * * * * * * * * * * * * * * * * * * * * * * * * * * * * * * * * * * * * //

dimensions      [1 -1 -2 0 0 0 0];

internalField   nonuniform List<scalar> 
2268
(
1648.25
1641.28
1624.05
1597.5
1561.7
1515.95
1459.46
1391.15
1310.04
1214.31
1100.71
970.699
819.436
627.578
401.702
206.223
94.1923
32.7394
11.3416
6.52165
5.14938
5.22952
5.55282
1649.08
1642.11
1624.86
1598.33
1562.53
1516.78
1460.27
1391.89
1310.7
1214.75
1100.65
970.135
817.806
620.439
384.33
182.789
73.9991
26.7634
9.88746
6.0547
4.86626
5.03758
5.4319
1650.76
1643.79
1626.52
1600.02
1564.24
1518.47
1461.93
1393.44
1312.08
1215.71
1100.69
969.21
814.462
607.549
349.489
119.871
24.1804
9.93424
9.79791
7.47896
4.66125
4.32059
4.80194
1653.31
1646.32
1629.05
1602.58
1566.82
1521.04
1464.46
1395.84
1314.26
1217.3
1101.08
968.299
809.357
587.897
295.65
67.2691
13.6683
6.43689
4.66546
4.35099
4.16025
3.61941
3.99644
1656.75
1649.74
1632.46
1606.04
1570.31
1524.55
1467.93
1399.19
1317.37
1219.74
1102.27
968.193
803.368
560.302
221.705
32.5995
9.23214
4.95153
3.11984
2.18752
2.43997
2.9816
3.30219
1661.11
1654.07
1636.8
1610.44
1574.78
1529.05
1472.44
1403.62
1321.61
1223.33
1104.83
969.809
798.067
523.683
148.838
16.1687
6.42804
3.85949
2.5572
1.89385
1.93082
2.39534
2.75392
1666.37
1659.28
1642.04
1615.77
1580.18
1534.52
1477.95
1409.1
1326.96
1228.08
1108.98
973.779
794.937
486.441
97.8132
10.7408
4.56602
3.03618
2.19945
1.82251
1.86939
2.16305
2.31854
1672.51
1665.33
1648.13
1621.96
1586.47
1540.91
1484.41
1415.58
1333.37
1233.95
1114.6
979.722
794.313
445.641
64.6504
7.1691
3.42059
2.41921
1.90352
1.74177
1.79921
1.98531
1.94208
0.879488
0.877515
0.872129
0.86415
0.854565
0.844168
0.833527
0.823019
0.812929
0.803462
0.794756
0.786903
0.779966
0.773983
0.76898
0.764973
0.761971
0.759976
0.758986
0.879762
0.878017
0.872613
0.864489
0.854749
0.844216
0.833469
0.82289
0.812752
0.803252
0.794523
0.786654
0.779706
0.773716
0.768708
0.764699
0.761695
0.7597
0.758711
0.880265
0.879062
0.873622
0.865182
0.855119
0.844323
0.833377
0.822647
0.812401
0.802825
0.794043
0.786138
0.779167
0.77316
0.768142
0.764127
0.76112
0.759123
0.758132
0.880856
0.880713
0.875205
0.86623
0.855659
0.844458
0.833211
0.82226
0.811856
0.80217
0.793311
0.785353
0.778345
0.772315
0.767283
0.763258
0.760245
0.758244
0.757252
0.88152
0.88315
0.877423
0.867622
0.856336
0.844586
0.832944
0.821707
0.811101
0.801272
0.792316
0.784291
0.777238
0.771179
0.766128
0.762091
0.75907
0.757065
0.75607
0.881427
0.886598
0.88034
0.869311
0.857095
0.844682
0.832536
0.820956
0.810112
0.800118
0.791048
0.782946
0.775841
0.769748
0.764675
0.760624
0.757594
0.755584
0.754586
0.876352
0.890717
0.884096
0.871225
0.857844
0.844644
0.831936
0.819971
0.808865
0.798691
0.789496
0.781311
0.774149
0.768019
0.762921
0.758855
0.755815
0.7538
0.7528
0.867496
0.8952
0.888695
0.873309
0.858438
0.844376
0.831078
0.81871
0.80733
0.796969
0.787647
0.779374
0.772154
0.765986
0.760864
0.756782
0.753733
0.751713
0.75071
1683.68
1676.3
1659.25
1633.29
1598.04
1552.75
1496.51
1427.95
1345.84
1246.31
1127.43
992.173
798.692
373.089
31.4547
4.25715
2.51503
2.01874
1.78208
1.69354
1.70324
1.73211
1.41711
1703.51
1696.02
1679.26
1653.78
1619.16
1574.66
1519.38
1451.97
1371.23
1273.24
1157.45
1024.14
829.043
264.063
7.69895
2.64947
1.98793
1.77306
1.65606
1.60584
1.584
1.55442
1.43286
1728.13
1720.58
1704.24
1679.47
1645.78
1602.5
1548.77
1483.34
1405.13
1310.37
1200.06
1071.7
835.092
188.191
4.59354
2.00945
1.74232
1.62588
1.55669
1.52235
1.50144
1.47614
1.44014
1757.75
1750.23
1734.48
1710.65
1678.25
1636.66
1585.13
1522.54
1448.02
1358.11
1255.27
1134.19
839.264
129.597
2.99987
1.68814
1.57265
1.50012
1.46096
1.43553
1.41561
1.38769
1.34712
1792.52
1785.13
1770.12
1747.47
1716.68
1677.25
1628.52
1569.55
1499.7
1415.92
1321.8
1209.46
832.552
83.5096
1.88265
1.45746
1.41269
1.38136
1.3619
1.34263
1.32231
1.29337
1.25251
1832.49
1825.32
1811.22
1789.96
1761.09
1724.22
1678.79
1624.07
1559.63
1482.85
1398.14
1295.5
813.749
49.483
1.26243
1.27468
1.2675
1.2681
1.26203
1.24915
1.23174
1.207
1.17376
1877.6
1870.75
1857.68
1837.99
1811.3
1777.3
1735.56
1685.53
1626.97
1557.7
1482.61
1390.22
784.902
25.5368
1.07377
1.1449
1.15556
1.16672
1.16691
1.1591
1.14575
1.12603
1.09969
1927.7
1921.26
1909.32
1891.33
1866.99
1836.09
1798.31
1753.24
1700.81
1639.25
1573.63
1491.55
745.177
10.6047
1.04954
1.06251
1.06762
1.07696
1.07815
1.07319
1.06323
1.04797
1.02748
1982.56
1976.58
1965.84
1949.65
1927.81
1900.15
1866.48
1826.52
1780.31
1726.44
1669.9
1597.87
694.339
3.71236
0.998812
0.982562
0.987595
0.993571
0.994148
0.990845
0.98373
0.972541
0.957369
2041.87
2036.42
2026.91
2012.59
1993.31
1968.98
1939.48
1904.66
1864.63
1818.29
1770.31
1707.97
635.96
1.22906
0.933965
0.901121
0.908987
0.912632
0.912961
0.91119
0.90678
0.899422
0.889055
2105.13
2100.24
2091.98
2079.55
2062.85
2041.84
2016.48
1986.71
1952.7
1913.6
1873.6
1820.64
571.294
0.918026
0.879437
0.817158
0.828781
0.832066
0.833255
0.833437
0.831869
0.828213
0.822248
2171.86
2167.57
2160.58
2150.03
2135.88
2118.15
2096.85
2071.98
2043.73
2011.48
1978.82
1934.9
496.095
0.65919
0.793545
0.727598
0.745736
0.75115
0.754332
0.75699
0.758535
0.758599
0.756816
2242.5
2238.81
2233.12
2224.44
2212.8
2198.3
2180.98
2160.89
2138.2
2112.4
2086.39
2050.76
402.108
0.470978
0.691894
0.647468
0.665028
0.671175
0.675992
0.681307
0.686283
0.690247
0.692618
2316.58
2313.17
2308.7
2301.79
2292.54
2281.08
2267.49
2251.87
2234.44
2214.79
2195.16
2167.81
303.405
0.547872
0.630175
0.595617
0.591392
0.592373
0.597554
0.605667
0.614569
0.622819
0.629513
2387.11
2383.86
2380.4
2375.03
2367.84
2359
2348.63
2336.86
2324.01
2309.95
2297.05
2280.6
256.672
0.800803
0.622579
0.538594
0.512392
0.50944
0.516552
0.528921
0.542848
0.556082
0.567457
2454.53
2452.26
2449.91
2446.01
2440.86
2434.6
2427.36
2419.26
2410.67
2401.29
2393.42
2368.98
364.073
0.992614
0.615684
0.441136
0.410068
0.414315
0.429362
0.449751
0.470765
0.490066
0.506626
2428.52
2423.13
2416
2404.3
2388.28
2367.43
2341.7
2307.63
2268.84
2194.53
2119.6
1718.75
561.604
14.211
0.433886
0.228788
0.259577
0.299269
0.333498
0.367755
0.398597
0.425244
0.447497
983.174
970.604
951.413
922.362
884.608
838.834
785.522
728.123
670.908
566.22
482.271
169.602
212.955
63.713
0.203059
-0.109885
0.052714
0.162186
0.230709
0.284753
0.327794
0.362593
0.390759
-1.03907
-1.04802
-1.07324
-1.1073
-1.12798
-1.13045
-1.13537
-1.14563
-1.16315
-1.2078
-1.31721
-1.45728
-1.81267
34.7048
11.9664
-0.558874
-0.165777
0.0192922
0.129865
0.205593
0.261136
0.303889
0.337572
-1.07367
-1.07506
-1.07952
-1.08264
-1.07829
-1.07705
-1.07813
-1.08169
-1.09093
-1.1183
-1.17707
-1.31486
-1.73322
-2.0662
7.45959
-0.811521
-0.337438
-0.0947615
0.046542
0.137685
0.2025
0.251214
0.289141
-0.991726
-0.9914
-0.992175
-0.991007
-0.986587
-0.981967
-0.977208
-0.972686
-0.971041
-0.970201
-0.97581
-1.07073
-1.34273
-0.77629
-0.14029
-0.669171
-0.355974
-0.139829
-0.00427263
0.088035
0.155227
0.206335
0.246477
-0.913884
-0.912895
-0.911002
-0.907144
-0.900993
-0.893145
-0.883621
-0.873012
-0.861421
-0.844567
-0.829021
-0.853758
-0.90935
-0.867672
-0.685527
-0.44837
-0.271806
-0.13008
-0.0243186
0.0568422
0.119852
0.169747
0.209956
-0.841704
-0.840429
-0.836734
-0.830986
-0.822984
-0.812516
-0.799392
-0.783528
-0.763593
-0.73717
-0.710614
-0.696478
-0.674447
-0.594307
-0.454113
-0.315696
-0.206436
-0.110528
-0.0298328
0.0378743
0.0939782
0.140494
0.179193
-0.771383
-0.769099
-0.764391
-0.757395
-0.747801
-0.735286
-0.719535
-0.699932
-0.675212
-0.644729
-0.611305
-0.576577
-0.53001
-0.458196
-0.364027
-0.262806
-0.176306
-0.0997097
-0.0331529
0.0246122
0.0743188
0.116917
0.153333
-0.705097
-0.70218
-0.697073
-0.689347
-0.678644
-0.664734
-0.647292
-0.625629
-0.598884
-0.567083
-0.531181
-0.48984
-0.437818
-0.373021
-0.300558
-0.226693
-0.157145
-0.0933161
-0.0362733
0.0142576
0.0586824
0.0975644
0.131468
-0.642024
-0.639283
-0.634039
-0.625893
-0.614588
-0.599931
-0.581649
-0.559249
-0.532206
-0.500504
-0.464293
-0.422656
-0.373831
-0.317856
-0.257973
-0.198207
-0.140945
-0.0873133
-0.0381529
0.00630397
0.0461062
0.0815219
0.11288
-0.583288
-0.58085
-0.575498
-0.567155
-0.555701
-0.540906
-0.522558
-0.500376
-0.474077
-0.443601
-0.408908
-0.369611
-0.325415
-0.277068
-0.226571
-0.176252
-0.127659
-0.0816787
-0.0389149
0.00034196
0.0360068
0.0681773
0.097024
-0.529268
-0.526812
-0.521355
-0.513008
-0.501704
-0.487197
-0.469331
-0.447967
-0.422977
-0.394329
-0.362037
-0.326086
-0.286695
-0.244668
-0.201359
-0.158232
-0.116365
-0.0764256
-0.0389042
-0.00409097
0.0278861
0.0570425
0.0834565
-0.479141
-0.476522
-0.471098
-0.462968
-0.452043
-0.43813
-0.421123
-0.400963
-0.377628
-0.351151
-0.321623
-0.289216
-0.25431
-0.217612
-0.180071
-0.14268
-0.10626
-0.0713173
-0.0382408
-0.00729909
0.0213667
0.0477292
0.0718113
-0.43206
-0.429406
-0.424229
-0.416519
-0.406172
-0.39308
-0.377178
-0.358463
-0.33698
-0.312819
-0.286129
-0.257156
-0.226303
-0.194154
-0.161416
-0.128801
-0.0969208
-0.0662232
-0.0370045
-0.00949477
0.0161671
0.0399307
0.0617861
-0.387792
-0.385307
-0.380526
-0.373367
-0.36374
-0.351607
-0.336947
-0.319797
-0.300242
-0.278407
-0.254472
-0.228702
-0.201474
-0.173267
-0.144624
-0.116081
-0.0881094
-0.0610929
-0.0352767
-0.0108478
0.012064
0.0333988
0.0531284
-0.346437
-0.344242
-0.339905
-0.333339
-0.324493
-0.313371
-0.299997
-0.284435
-0.266788
-0.247198
-0.225857
-0.203024
-0.179034
-0.154282
-0.129197
-0.104194
-0.0796531
-0.0558893
-0.0331253
-0.0114975
0.00887396
0.0279267
0.0456241
-0.307986
-0.306088
-0.302174
-0.296185
-0.288118
-0.278006
-0.265903
-0.251887
-0.236069
-0.218597
-0.199662
-0.179508
-0.158424
-0.136739
-0.114797
-0.0929348
-0.0714584
-0.0506225
-0.0306173
-0.0115636
0.00644118
0.0233379
0.0390879
-0.272143
-0.27049
-0.266956
-0.261512
-0.254203
-0.245077
-0.234202
-0.221664
-0.207577
-0.192089
-0.175384
-0.15768
-0.139228
-0.120302
-0.101184
-0.0821503
-0.0634452
-0.045278
-0.0278188
-0.0111518
0.00463089
0.0194794
0.0333581
-0.238425
-0.236962
-0.233771
-0.228854
-0.222286
-0.21412
-0.204431
-0.193306
-0.180861
-0.16724
-0.152611
-0.13717
-0.121131
-0.104725
-0.0881858
-0.0717365
-0.0555757
-0.0398727
-0.0247599
-0.0103513
0.00332446
0.0162167
0.0282918
-0.206339
-0.205026
-0.202162
-0.197773
-0.19194
-0.184718
-0.176182
-0.166422
-0.15555
-0.143701
-0.131027
-0.117699
-0.103902
-0.089832
-0.0756804
-0.0616285
-0.0478376
-0.0344452
-0.0215612
-0.00926297
0.0024117
0.0134286
0.0237609
-0.175489
-0.174306
-0.171774
-0.167923
-0.162828
-0.156543
-0.149141
-0.140712
-0.131361
-0.121209
-0.110393
-0.0990632
-0.0873782
-0.0755007
-0.0635879
-0.0517857
-0.0402236
-0.0290118
-0.0182383
-0.00796577
0.00179632
0.0110075
0.0196499
-0.145569
-0.144521
-0.142334
-0.139035
-0.134684
-0.129336
-0.123061
-0.115941
-0.108072
-0.099563
-0.0905336
-0.0811143
-0.0714398
-0.0616436
-0.0518527
-0.0421832
-0.0327375
-0.023602
-0.0148476
-0.0065447
0.0013947
0.00885653
0.0158534
-0.116439
-0.11554
-0.113709
-0.110967
-0.107364
-0.102951
-0.0977905
-0.0919579
-0.0855374
-0.0786243
-0.0713235
-0.0637452
-0.0560006
-0.0481973
-0.0404357
-0.0328069
-0.0253892
-0.0182455
-0.011417
-0.00490992
0.00115213
0.00688728
0.0122721
-0.0882924
-0.0875624
-0.0860885
-0.0838953
-0.081021
-0.0775133
-0.0734289
-0.0688334
-0.0638015
-0.0584168
-0.0527686
-0.0469485
-0.0410464
-0.0351472
-0.0293289
-0.0236603
-0.0181988
-0.0129876
-0.00805374
-0.00340905
0.00092766
0.00499593
0.00880646
-0.0607845
-0.0602553
-0.0591534
-0.057512
-0.0553639
-0.0527518
-0.0497255
-0.0463424
-0.0426672
-0.0387707
-0.0347269
-0.0306096
-0.0264898
-0.0224328
-0.0184969
-0.0147314
-0.0111744
-0.00785122
-0.00477353
-0.00193845
0.000672773
0.00309808
0.00536262
-0.0323199
-0.0320442
-0.0313593
-0.0303244
-0.0289728
-0.0273394
-0.0254636
-0.0233907
-0.0211708
-0.0188574
-0.0165054
-0.0141685
-0.0118973
-0.00973693
-0.00772543
-0.00589226
-0.00425718
-0.00282944
-0.00160776
-0.000580529
0.000295012
0.00109074
0.00183414
0.483016
0.92995
1.02404
0.959702
1.06337
1.06669
1.0477
0.987347
1.23271
1.10179
1.04676
0.989045
1.21556
1.10192
1.03769
0.980199
1.17004
1.08238
1.0179
0.962628
1.11703
1.04727
0.988691
0.938084
1.05759
1.0027
0.952738
0.908122
0.995878
0.953383
0.912208
0.874048
0.934074
0.901682
0.868676
0.836975
0.872683
0.848816
0.823278
0.797797
0.81194
0.795542
0.77682
0.757213
0.752043
0.742365
0.729885
0.71578
0.693113
0.689638
0.682923
0.673954
0.635228
0.63763
0.636296
0.632122
0.578511
0.58659
0.590321
0.590622
0.523202
0.536799
0.545303
0.549765
0.469699
0.4886
0.501559
0.509847
0.418512
0.442383
0.459417
0.471147
0.370315
0.398555
0.419157
0.433963
0.325792
0.357542
0.38109
0.398468
0.285503
0.319687
0.345452
0.364856
0.249717
0.285186
0.312396
0.333262
0.218338
0.25405
0.28197
0.303756
0.190983
0.22613
0.254125
0.276337
0.167156
0.20117
0.228735
0.250946
0.146374
0.178877
0.205626
0.227484
0.128215
0.158959
0.184603
0.205824
0.112311
0.141137
0.165467
0.185826
0.0983434
0.125157
0.14802
0.167341
0.0860358
0.110784
0.132074
0.150221
0.0751482
0.0978085
0.117452
0.134321
0.0654717
0.0860411
0.103989
0.119504
0.0568219
0.0753105
0.0915334
0.105636
0.0490358
0.0654618
0.0799436
0.0925933
0.0419674
0.0563545
0.069089
0.080258
0.035485
0.0478597
0.0588485
0.0685197
0.0294686
0.0398587
0.0491092
0.0572737
0.0238077
0.0322411
0.0397649
0.046421
0.0183979
0.0249027
0.0307152
0.0358673
0.0131387
0.0177441
0.0218642
0.0255218
0.00793407
0.0106705
0.0131208
0.0152988
0.00267791
0.00357765
0.00438439
0.00510272
0.910965
0.907587
0.895399
0.876444
0.859012
0.843493
0.82926
0.816255
0.804444
0.793789
0.784267
0.77586
0.768552
0.762325
0.757167
0.753062
0.750001
0.747973
0.746967
0.940567
0.915765
0.896037
0.875847
0.856968
0.840099
0.824904
0.811203
0.798898
0.787903
0.778153
0.769597
0.762193
0.755911
0.750721
0.746601
0.743533
0.741503
0.740496
0.944082
0.916091
0.892775
0.871224
0.851511
0.833906
0.818155
0.804049
0.791454
0.780261
0.770383
0.761751
0.75431
0.748014
0.742825
0.738714
0.735658
0.733637
0.732636
0.937648
0.909108
0.884436
0.862359
0.842482
0.824701
0.808807
0.794607
0.781957
0.770742
0.760871
0.752265
0.744863
0.738612
0.73347
0.729402
0.72638
0.724385
0.723396
0.922876
0.895414
0.871108
0.849403
0.829921
0.812451
0.796804
0.782812
0.770345
0.759297
0.749578
0.741113
0.733838
0.727702
0.722659
0.718674
0.715715
0.713763
0.712795
0.901749
0.876254
0.853296
0.83264
0.814032
0.797274
0.782207
0.768697
0.756637
0.745936
0.736515
0.728307
0.721253
0.715305
0.710418
0.706557
0.703692
0.701801
0.700864
0.875687
0.852644
0.831599
0.812469
0.795111
0.779383
0.765169
0.752374
0.740916
0.730725
0.721737
0.713897
0.707155
0.701465
0.69679
0.693096
0.690354
0.688544
0.687649
0.845783
0.825452
0.806638
0.789342
0.773504
0.759046
0.745901
0.734009
0.723316
0.713775
0.705339
0.697966
0.691616
0.686252
0.681841
0.678353
0.675763
0.674053
0.673207
0.812954
0.795438
0.779011
0.763725
0.749585
0.736568
0.724649
0.713804
0.704006
0.695228
0.687443
0.680621
0.674734
0.669754
0.665652
0.662406
0.659994
0.658401
0.657613
0.777951
0.763251
0.749261
0.736072
0.723732
0.712264
0.70168
0.691985
0.683178
0.675251
0.668194
0.661991
0.656624
0.652074
0.648321
0.645346
0.643133
0.641672
0.640949
0.741393
0.729445
0.717877
0.706804
0.696309
0.686449
0.677266
0.668788
0.661037
0.654023
0.647751
0.642217
0.637414
0.633331
0.629956
0.627275
0.62528
0.623961
0.623309
0.703794
0.694497
0.685292
0.676311
0.667663
0.65943
0.651676
0.644452
0.637795
0.631733
0.626281
0.62145
0.61724
0.613649
0.610672
0.608303
0.606537
0.605369
0.604792
0.665589
0.658822
0.651892
0.644948
0.638116
0.631497
0.625173
0.619211
0.613663
0.608568
0.603955
0.599843
0.596242
0.593157
0.590591
0.588544
0.587014
0.586002
0.585502
0.62716
0.622786
0.618027
0.613041
0.607968
0.602925
0.598006
0.593291
0.588844
0.584715
0.580941
0.57755
0.57456
0.571986
0.569834
0.568112
0.566823
0.565968
0.565546
0.588842
0.586718
0.584009
0.580885
0.577496
0.573968
0.570409
0.566907
0.563534
0.56035
0.5574
0.554719
0.552334
0.550264
0.548524
0.547124
0.546073
0.545375
0.545031
0.550942
0.550915
0.550125
0.548751
0.546952
0.544863
0.542599
0.540257
0.537916
0.535642
0.533487
0.531494
0.529694
0.528115
0.526776
0.525692
0.524874
0.52433
0.524061
0.513746
0.515652
0.516635
0.516884
0.516565
0.515821
0.514773
0.513523
0.512157
0.510745
0.509346
0.508008
0.506769
0.50566
0.504705
0.503924
0.50333
0.502933
0.502737
0.477517
0.481177
0.483772
0.485502
0.48654
0.487033
0.487107
0.486869
0.486409
0.485801
0.485109
0.484385
0.483673
0.483008
0.482416
0.481922
0.48154
0.481282
0.481155
0.442505
0.447711
0.451742
0.454798
0.457054
0.458664
0.459758
0.460441
0.460808
0.460937
0.460896
0.46074
0.460515
0.460261
0.460007
0.459779
0.459594
0.459467
0.459404
0.408874
0.415431
0.420712
0.424932
0.428258
0.430856
0.432858
0.434366
0.435472
0.436266
0.436814
0.437173
0.437392
0.437512
0.437567
0.437582
0.437579
0.437571
0.437567
0.376786
0.384463
0.390802
0.396012
0.40027
0.40373
0.406521
0.408754
0.410498
0.411884
0.412955
0.413773
0.414388
0.414844
0.415176
0.415411
0.41557
0.41567
0.41572
0.346366
0.354929
0.362122
0.368147
0.373177
0.377361
0.380821
0.383666
0.385988
0.387878
0.389401
0.390618
0.391578
0.392329
0.392904
0.393333
0.393637
0.393832
0.393932
0.317685
0.326904
0.334748
0.341412
0.347057
0.351825
0.355834
0.35919
0.361986
0.364303
0.36621
0.367767
0.369027
0.370031
0.370816
0.371411
0.371839
0.372114
0.372261
0.290766
0.300419
0.308721
0.315851
0.321958
0.327173
0.331612
0.335375
0.33855
0.341215
0.343437
0.345276
0.346782
0.347998
0.348959
0.349695
0.350227
0.350572
0.350757
0.265584
0.275467
0.284045
0.291478
0.297901
0.303436
0.308189
0.312255
0.315719
0.318653
0.321123
0.323185
0.324888
0.326274
0.327378
0.328228
0.328846
0.329247
0.32946
0.242077
0.252009
0.260697
0.268282
0.274886
0.280619
0.285577
0.289851
0.293517
0.296645
0.299296
0.301524
0.303376
0.304892
0.306106
0.307044
0.307729
0.308175
0.308408
0.220155
0.229979
0.238631
0.246233
0.252895
0.258712
0.263776
0.268165
0.271953
0.275204
0.277975
0.280316
0.282271
0.283878
0.28517
0.286171
0.286904
0.287383
0.287629
0.199715
0.209295
0.217783
0.225283
0.231891
0.237693
0.242769
0.247192
0.251027
0.254335
0.257166
0.259569
0.261584
0.263246
0.264585
0.265627
0.266391
0.26689
0.267145
0.18064
0.189863
0.198077
0.205371
0.211828
0.217524
0.22253
0.226911
0.230727
0.23403
0.23687
0.239287
0.241321
0.243004
0.244364
0.245423
0.2462
0.24671
0.246967
0.162811
0.171582
0.179429
0.186429
0.192651
0.198162
0.203025
0.207298
0.211032
0.214276
0.217074
0.219464
0.221481
0.223153
0.224506
0.225563
0.226339
0.226849
0.227104
0.146105
0.154348
0.161752
0.168381
0.174297
0.179555
0.184211
0.188316
0.191915
0.195052
0.197765
0.200088
0.202053
0.203686
0.20501
0.206045
0.206806
0.207307
0.207555
0.130405
0.138057
0.144955
0.151152
0.156699
0.161646
0.166041
0.169925
0.173342
0.176328
0.178917
0.18114
0.183023
0.184591
0.185865
0.186861
0.187595
0.188078
0.188315
0.115596
0.122607
0.128947
0.13466
0.139789
0.144376
0.148461
0.152083
0.155276
0.158073
0.160504
0.162596
0.164371
0.165851
0.167055
0.167998
0.168693
0.16915
0.169374
0.101566
0.107898
0.113639
0.118826
0.123495
0.127681
0.131419
0.13474
0.137674
0.140251
0.142494
0.144428
0.146072
0.147444
0.148562
0.149437
0.150083
0.150509
0.150715
0.0882094
0.0938338
0.0989442
0.103572
0.107747
0.111499
0.114856
0.117845
0.120492
0.12282
0.124851
0.126604
0.128096
0.129344
0.13036
0.131157
0.131746
0.132133
0.132319
0.0754261
0.0803203
0.0847763
0.0888197
0.0924748
0.0957657
0.0987157
0.101347
0.103681
0.105738
0.107535
0.109088
0.110412
0.11152
0.112422
0.113131
0.113655
0.114
0.114163
0.0631194
0.0672683
0.0710524
0.074492
0.0776067
0.0804158
0.0829381
0.0851917
0.0871939
0.0889605
0.090506
0.0918434
0.0929844
0.0939398
0.0947192
0.0953312
0.0957833
0.0960815
0.0962213
0.0511972
0.0545913
0.0576917
0.060514
0.0630736
0.0653854
0.0674641
0.069324
0.0709787
0.0724404
0.0737207
0.0748296
0.0757764
0.0765697
0.0772172
0.0777258
0.0781018
0.0783499
0.0784641
0.039571
0.0422058
0.0446156
0.0468121
0.0488066
0.0506103
0.0522341
0.0536889
0.0549845
0.0561303
0.0571347
0.0580054
0.0587493
0.0593728
0.0598819
0.0602822
0.0605781
0.0607738
0.0608613
0.0281555
0.0300306
0.0317474
0.0333139
0.0347378
0.0360269
0.0371887
0.0382306
0.0391594
0.0399815
0.0407027
0.0413282
0.0418629
0.0423112
0.0426775
0.0429656
0.0431788
0.0433202
0.0433806
0.0168696
0.0179884
0.0190136
0.0199499
0.0208018
0.0215736
0.0222699
0.0228948
0.0234523
0.0239461
0.0243796
0.0247557
0.0250773
0.0253471
0.0255676
0.0257411
0.0258697
0.0259557
0.025989
0.00562178
0.00599162
0.0063308
0.00664086
0.00692325
0.00717939
0.00741069
0.00761849
0.00780406
0.00796854
0.008113
0.00823839
0.00834565
0.00843565
0.00850924
0.00856722
0.00861028
0.00863941
0.00864923
)
;

boundaryField
{
    leftWall
    {
        type            fixedFluxPressure;
        gradient        uniform 0;
        value           nonuniform List<scalar> 
50
(
1648.25
1649.08
1650.76
1653.31
1656.75
1661.11
1666.37
1672.51
1683.68
1703.51
1728.13
1757.75
1792.52
1832.49
1877.6
1927.7
1982.56
2041.87
2105.13
2171.86
2242.5
2316.58
2387.11
2454.53
2428.52
983.174
-1.03907
-1.07367
-0.991726
-0.913884
-0.841704
-0.771383
-0.705097
-0.642024
-0.583288
-0.529268
-0.479141
-0.43206
-0.387792
-0.346437
-0.307986
-0.272143
-0.238425
-0.206339
-0.175489
-0.145569
-0.116439
-0.0882924
-0.0607845
-0.0323199
)
;
    }
    rightWall
    {
        type            fixedFluxPressure;
        gradient        uniform 0;
        value           nonuniform List<scalar> 
50
(
0.758986
0.758711
0.758132
0.757252
0.75607
0.754586
0.7528
0.75071
0.746967
0.740496
0.732636
0.723396
0.712795
0.700864
0.687649
0.673207
0.657613
0.640949
0.623309
0.604792
0.585502
0.565546
0.545031
0.524061
0.502737
0.481155
0.459404
0.437567
0.41572
0.393932
0.372261
0.350757
0.32946
0.308408
0.287629
0.267145
0.246967
0.227104
0.207555
0.188315
0.169374
0.150715
0.132319
0.114163
0.0962213
0.0784641
0.0608613
0.0433806
0.025989
0.00864923
)
;
    }
    lowerWall
    {
        type            fixedFluxPressure;
        gradient        uniform 0;
        value           nonuniform List<scalar> 
62
(
1648.25
1641.28
1624.05
1597.5
1561.7
1515.95
1459.46
1391.15
1310.04
1214.31
1100.71
970.699
819.436
627.578
401.702
206.223
94.1923
32.7394
11.3416
6.52165
5.14938
5.22952
5.55282
5.55282
5.4319
4.80194
3.99644
3.30219
2.75392
2.31854
1.94208
0.483016
0.92995
1.02404
0.959702
0.879488
0.879762
0.880265
0.880856
0.88152
0.881427
0.876352
0.867496
0.879488
0.877515
0.872129
0.86415
0.854565
0.844168
0.833527
0.823019
0.812929
0.803462
0.794756
0.786903
0.779966
0.773983
0.76898
0.764973
0.761971
0.759976
0.758986
)
;
    }
    atmosphere
    {
        type            totalPressure;
        rho             rho;
        psi             none;
        gamma           1;
        p0              uniform 0;
        value           nonuniform List<scalar> 
46
(
-0.0164323
-0.0163782
-0.0159314
-0.0152686
-0.0144097
-0.0133794
-0.0122079
-0.0109295
-0.00958217
-0.00820612
-0.00684211
-0.00552965
-0.00430517
-0.00320033
-0.00224061
-0.00144435
-0.000822268
-0.000377651
-0.000107111
-2.23997e-06
0
0
0
0
0
0
0
0
0
0
0
0
0
0
0
0
0
0
0
0
0
0
0
0
0
0
)
;
    }
    defaultFaces
    {
        type            empty;
    }
}


// ************************************************************************* //
