/*--------------------------------*- C++ -*----------------------------------*\
| =========                 |                                                 |
| \\      /  F ield         | OpenFOAM: The Open Source CFD Toolbox           |
|  \\    /   O peration     | Version:  2206                                  |
|   \\  /    A nd           | Website:  www.openfoam.com                      |
|    \\/     M anipulation  |                                                 |
\*---------------------------------------------------------------------------*/
FoamFile
{
    version     2.0;
    format      ascii;
    arch        "LSB;label=32;scalar=64";
    class       surfaceScalarField;
    location    "0.075";
    object      phi;
}
// * * * * * * * * * * * * * * * * * * * * * * * * * * * * * * * * * * * * * //

dimensions      [0 3 -1 0 0 0 0];

oriented        oriented;

internalField   nonuniform List<scalar> 
4432
(
4.19043e-06
-4.19043e-06
8.89775e-06
-4.7073e-06
1.35286e-05
-4.63085e-06
1.82764e-05
-4.74786e-06
2.32486e-05
-4.97218e-06
2.85187e-05
-5.27003e-06
3.41739e-05
-5.6552e-06
4.0316e-05
-6.14216e-06
4.71156e-05
-6.79953e-06
5.46515e-05
-7.53598e-06
6.3361e-05
-8.70952e-06
7.34712e-05
-1.01102e-05
8.51799e-05
-1.17086e-05
9.68896e-05
-1.17097e-05
0.000106919
-1.00298e-05
0.00011691
-9.9908e-06
0.000129803
-1.28928e-05
0.000137438
-7.63486e-06
0.00012256
1.48779e-05
9.95039e-05
2.30561e-05
7.1068e-05
2.84358e-05
3.91132e-05
3.19554e-05
3.91132e-05
4.19679e-06
-8.38721e-06
8.89368e-06
-9.40418e-06
1.35207e-05
-9.25791e-06
1.82616e-05
-9.48868e-06
2.3222e-05
-9.9326e-06
2.84764e-05
-1.05244e-05
3.41102e-05
-1.1289e-05
4.02293e-05
-1.22614e-05
4.69732e-05
-1.35434e-05
5.44861e-05
-1.50489e-05
6.31162e-05
-1.73396e-05
7.28832e-05
-1.98772e-05
8.42489e-05
-2.30743e-05
9.71875e-05
-2.46483e-05
0.000110627
-2.34698e-05
0.000124021
-2.33841e-05
0.000137954
-2.68256e-05
0.000155602
-2.52835e-05
0.000166891
3.58874e-06
0.000157605
3.23425e-05
0.000131301
5.4739e-05
8.07202e-05
8.25368e-05
0.000119833
4.18363e-06
-1.25709e-05
8.84844e-06
-1.4069e-05
1.34471e-05
-1.38565e-05
1.8157e-05
-1.41986e-05
2.308e-05
-1.48556e-05
2.82892e-05
-1.57336e-05
3.3867e-05
-1.68668e-05
3.99173e-05
-1.83117e-05
4.6561e-05
-2.01871e-05
5.39754e-05
-2.24633e-05
6.24345e-05
-2.57986e-05
7.1892e-05
-2.93348e-05
8.34641e-05
-3.46463e-05
9.86866e-05
-3.98708e-05
0.000115936
-4.07192e-05
0.000129383
-3.68308e-05
0.000134606
-3.20488e-05
0.000137237
-2.79141e-05
0.000143051
-2.22575e-06
0.000139807
3.55862e-05
0.000116997
7.75489e-05
6.68593e-05
0.000132675
0.000186693
4.16054e-06
-1.67314e-05
8.7803e-06
-1.86888e-05
1.33367e-05
-1.84129e-05
1.80014e-05
-1.88633e-05
2.28711e-05
-1.97253e-05
2.80159e-05
-2.08784e-05
3.35139e-05
-2.23648e-05
3.94643e-05
-2.42621e-05
4.59759e-05
-2.66987e-05
5.32312e-05
-2.97186e-05
6.14803e-05
-3.40477e-05
7.06527e-05
-3.85072e-05
8.20165e-05
-4.60102e-05
9.76055e-05
-5.54597e-05
0.000115596
-5.871e-05
0.00012567
-4.69041e-05
0.000125977
-3.23558e-05
0.000121377
-2.33146e-05
0.000116322
2.82949e-06
0.000105389
4.65186e-05
8.16926e-05
0.000101246
4.23059e-05
0.000172061
0.000228999
4.12786e-06
-2.08593e-05
8.68951e-06
-2.32504e-05
1.31904e-05
-2.29138e-05
1.77962e-05
-2.3469e-05
2.25969e-05
-2.4526e-05
2.76588e-05
-2.59404e-05
3.30545e-05
-2.77605e-05
3.8877e-05
-3.00846e-05
4.52203e-05
-3.3042e-05
5.22669e-05
-3.67652e-05
6.02182e-05
-4.19991e-05
6.90311e-05
-4.73201e-05
8.01344e-05
-5.71134e-05
9.55254e-05
-7.08508e-05
0.000113245
-7.64294e-05
0.000119213
-5.28722e-05
0.000115187
-2.83297e-05
0.000104303
-1.24305e-05
8.83812e-05
1.8751e-05
6.74027e-05
6.7497e-05
4.34452e-05
0.000125203
1.89629e-05
0.000196543
0.000247963
4.08613e-06
-2.49454e-05
8.57821e-06
-2.77425e-05
1.30121e-05
-2.73476e-05
1.75465e-05
-2.80034e-05
2.2265e-05
-2.92446e-05
2.72291e-05
-3.09044e-05
3.2505e-05
-3.30364e-05
3.81791e-05
-3.57587e-05
4.43273e-05
-3.91902e-05
5.11297e-05
-4.35676e-05
5.87207e-05
-4.95901e-05
6.70533e-05
-5.56527e-05
7.7712e-05
-6.77722e-05
9.22569e-05
-8.53956e-05
0.000107947
-9.21199e-05
0.000111119
-5.60438e-05
0.000102225
-1.94357e-05
8.35236e-05
6.27107e-06
5.9437e-05
4.28373e-05
3.51704e-05
9.17638e-05
1.53247e-05
0.00014505
5.55869e-06
0.000206309
0.000253522
4.0393e-06
-2.89847e-05
8.45116e-06
-3.21544e-05
1.28096e-05
-3.17061e-05
1.72654e-05
-3.24592e-05
2.18945e-05
-3.38738e-05
2.67536e-05
-3.57635e-05
3.19035e-05
-3.81864e-05
3.74231e-05
-4.12783e-05
4.33764e-05
-4.51434e-05
4.99322e-05
-5.01234e-05
5.71357e-05
-5.67936e-05
6.48794e-05
-6.33964e-05
7.47262e-05
-7.7619e-05
8.77215e-05
-9.83909e-05
9.8778e-05
-0.000103176
0.000100206
-5.74717e-05
8.64308e-05
-5.66084e-06
6.17511e-05
3.09506e-05
3.54782e-05
6.91097e-05
1.59157e-05
0.000111327
4.78959e-06
0.000156176
4.56731e-06
0.000206531
0.000258089
3.98998e-06
-3.29746e-05
8.30698e-06
-3.64714e-05
1.25836e-05
-3.59827e-05
1.69555e-05
-3.68311e-05
2.14903e-05
-3.84086e-05
2.62392e-05
-4.05124e-05
3.12584e-05
-4.32055e-05
3.66179e-05
-4.66378e-05
4.2372e-05
-5.08974e-05
4.86984e-05
-5.64497e-05
5.54944e-05
-6.35896e-05
6.25349e-05
-7.04369e-05
7.14001e-05
-8.64842e-05
8.25486e-05
-0.000109539
8.95856e-05
-0.000110213
8.71479e-05
-5.50341e-05
6.89792e-05
1.25077e-05
4.31209e-05
5.68092e-05
2.09953e-05
9.12352e-05
8.77536e-06
0.000123546
4.98274e-06
0.000159969
8.30987e-06
0.000203203
0.000266399
2.02817e-06
-2.02817e-06
3.99258e-06
-1.96429e-06
5.43573e-06
-1.44301e-06
6.34467e-06
-9.08809e-07
6.803e-06
-4.58116e-07
6.91637e-06
-1.13168e-07
6.78039e-06
1.3619e-07
6.47236e-06
3.08092e-07
6.04806e-06
4.24249e-07
5.54598e-06
5.01948e-07
4.9924e-06
5.534e-07
4.40523e-06
5.871e-07
3.7966e-06
6.08692e-07
3.17451e-06
6.22075e-07
2.5443e-06
6.30113e-07
1.90945e-06
6.34752e-07
1.27212e-06
6.37231e-07
6.34e-07
6.38043e-07
6.33923e-07
2.13162e-06
-4.15964e-06
4.22401e-06
-4.05647e-06
5.73093e-06
-2.9496e-06
6.65557e-06
-1.83314e-06
7.10684e-06
-9.09079e-07
7.21099e-06
-2.17106e-07
7.07138e-06
2.75974e-07
6.75632e-06
6.23078e-07
6.31828e-06
8.62039e-07
5.7971e-06
1.0231e-06
5.22068e-06
1.12992e-06
4.60813e-06
1.19961e-06
3.97239e-06
1.24422e-06
3.32208e-06
1.27212e-06
2.66293e-06
1.28906e-06
1.9987e-06
1.29891e-06
1.33165e-06
1.30422e-06
6.62919e-07
1.30664e-06
1.29678e-06
2.22334e-06
-6.38284e-06
4.46672e-06
-6.29974e-06
6.01001e-06
-4.49271e-06
6.89783e-06
-2.72071e-06
7.29374e-06
-1.30471e-06
7.34175e-06
-2.64958e-07
7.1519e-06
4.6603e-07
6.79826e-06
9.77027e-07
6.33465e-06
1.32573e-06
5.79764e-06
1.55991e-06
5.21214e-06
1.71514e-06
4.59508e-06
1.81651e-06
3.9579e-06
1.8814e-06
3.30812e-06
1.92185e-06
2.65074e-06
1.94627e-06
1.98903e-06
1.96046e-06
1.32498e-06
1.96819e-06
6.59672e-07
1.97187e-06
1.95638e-06
2.35827e-06
-8.74103e-06
4.86281e-06
-8.80418e-06
6.45555e-06
-6.08532e-06
7.27146e-06
-3.53639e-06
7.5741e-06
-1.60705e-06
7.53939e-06
-2.29938e-07
7.2873e-06
7.18287e-07
6.88819e-06
1.37607e-06
6.39306e-06
1.82076e-06
5.83475e-06
2.11824e-06
5.23518e-06
2.31476e-06
4.60893e-06
2.44267e-06
3.96582e-06
2.52436e-06
3.31234e-06
2.57516e-06
2.65279e-06
2.6057e-06
1.98989e-06
2.62329e-06
1.32527e-06
2.63276e-06
6.59808e-07
2.63724e-06
2.6161e-06
2.51077e-06
-1.12518e-05
5.44626e-06
-1.17395e-05
7.09631e-06
-7.73521e-06
7.78594e-06
-4.2258e-06
7.94636e-06
-1.76736e-06
7.79856e-06
-8.20282e-08
7.46266e-06
1.05443e-06
7.00528e-06
1.83367e-06
6.4703e-06
2.35573e-06
5.88505e-06
2.70334e-06
5.26738e-06
2.93228e-06
4.62913e-06
3.08081e-06
3.97816e-06
3.17524e-06
3.31964e-06
3.23362e-06
2.65693e-06
3.26836e-06
1.99211e-06
3.28804e-06
1.32637e-06
3.29842e-06
6.60282e-07
3.3032e-06
3.27631e-06
2.64874e-06
-1.39005e-05
6.2622e-06
-1.53527e-05
7.96569e-06
-9.43861e-06
8.44808e-06
-4.70794e-06
8.40326e-06
-1.7222e-06
8.11155e-06
2.09969e-07
7.67064e-06
1.49569e-06
7.1432e-06
2.36138e-06
6.56105e-06
2.93779e-06
5.94407e-06
3.32001e-06
5.30516e-06
3.57096e-06
4.65282e-06
3.73309e-06
3.99259e-06
3.83547e-06
3.32812e-06
3.89809e-06
2.66167e-06
3.93476e-06
1.9946e-06
3.95502e-06
1.32757e-06
3.96534e-06
6.60774e-07
3.96987e-06
3.93702e-06
3.90175e-06
-1.78022e-05
7.75673e-06
-1.92075e-05
9.14628e-06
-1.08279e-05
9.26126e-06
-4.82262e-06
8.93698e-06
-1.39749e-06
8.46192e-06
6.85366e-07
7.90191e-06
2.05598e-06
7.29564e-06
2.96785e-06
6.66103e-06
3.57236e-06
6.00896e-06
3.97188e-06
5.34662e-06
4.23317e-06
4.6787e-06
4.40099e-06
4.00822e-06
4.50594e-06
3.33714e-06
4.56913e-06
2.66658e-06
4.60524e-06
1.99708e-06
4.62443e-06
1.32872e-06
4.63359e-06
6.61234e-07
4.63724e-06
4.5982e-06
1.00332e-05
-2.78353e-05
1.12482e-05
-2.04222e-05
1.08272e-05
-1.04068e-05
1.02185e-05
-4.2137e-06
9.52132e-06
-7.00176e-07
8.83628e-06
1.37049e-06
8.14706e-06
2.74522e-06
7.45729e-06
3.65762e-06
6.7672e-06
4.26243e-06
6.07799e-06
4.66108e-06
5.39074e-06
4.92046e-06
4.70617e-06
5.08559e-06
4.0247e-06
5.18737e-06
3.34652e-06
5.24724e-06
2.67156e-06
5.28014e-06
1.99949e-06
5.29643e-06
1.32978e-06
5.30322e-06
6.61645e-07
5.30528e-06
5.25981e-06
8.2515e-06
-4.12261e-05
1.71081e-05
-4.53279e-05
2.58763e-05
-4.4751e-05
3.48367e-05
-4.57915e-05
4.41e-05
-4.76719e-05
5.3751e-05
-5.01634e-05
6.38866e-05
-5.33412e-05
7.46013e-05
-5.73524e-05
8.60531e-05
-6.23492e-05
9.82678e-05
-6.86644e-05
0.000111494
-7.6816e-05
0.000125801
-8.47433e-05
0.000142859
-0.000103543
0.000160051
-0.000126732
0.000161208
-0.00011137
0.000137698
-3.15245e-05
9.54489e-05
5.47572e-05
5.54246e-05
9.6834e-05
3.17123e-05
0.000114947
2.45435e-05
0.000130715
3.33274e-05
0.000151186
6.38249e-05
0.000172705
0.000196949
0.000133275
7.88433e-06
-4.91105e-05
1.6198e-05
-5.36416e-05
2.44499e-05
-5.30029e-05
3.28619e-05
-5.42035e-05
4.15048e-05
-5.63148e-05
5.04336e-05
-5.90923e-05
5.97064e-05
-6.2614e-05
6.93749e-05
-6.70209e-05
7.94931e-05
-7.24674e-05
9.00707e-05
-7.92419e-05
0.000101041
-8.77867e-05
0.000112489
-9.61907e-05
0.000125637
-0.000116691
0.000135807
-0.000136902
0.000124275
-9.98378e-05
8.75682e-05
5.1828e-06
5.52926e-05
8.70331e-05
3.83238e-05
0.000113803
3.37534e-05
0.000119517
3.89747e-05
0.000125494
5.69626e-05
0.000133199
9.04577e-05
0.00013921
0.000147244
0.000140162
7.45794e-06
-5.65684e-05
1.51734e-05
-6.1357e-05
2.2853e-05
-6.06826e-05
3.06601e-05
-6.20106e-05
3.86267e-05
-6.42814e-05
4.67805e-05
-6.7246e-05
5.51458e-05
-7.09794e-05
6.37326e-05
-7.56077e-05
7.25289e-05
-8.12637e-05
8.14871e-05
-8.82002e-05
9.04002e-05
-9.66998e-05
9.92685e-05
-0.000105059
0.000108525
-0.000125948
0.000112757
-0.000141134
9.6243e-05
-8.33241e-05
5.30452e-05
4.83805e-05
3.45078e-05
0.00010557
3.25954e-05
0.000115715
3.63899e-05
0.000115723
4.48466e-05
0.000117038
5.97672e-05
0.000118278
8.19268e-05
0.00011705
0.00011333
0.000115841
6.98128e-06
-6.35497e-05
1.40637e-05
-6.84395e-05
2.11357e-05
-6.77546e-05
2.83014e-05
-6.91763e-05
3.55599e-05
-7.15399e-05
4.29161e-05
-7.46021e-05
5.03667e-05
-7.843e-05
5.78881e-05
-8.31291e-05
6.54268e-05
-8.88024e-05
7.28859e-05
-9.56594e-05
8.00135e-05
-0.000103827
8.68131e-05
-0.000111859
9.32745e-05
-0.000132409
9.42094e-05
-0.000142069
6.74405e-05
-5.65553e-05
3.26883e-05
8.31324e-05
2.64064e-05
0.000111852
3.04486e-05
0.000111673
3.64013e-05
0.000109771
4.46157e-05
0.000108824
5.58818e-05
0.000107011
7.04892e-05
0.000102442
9.43855e-05
8.9434e-05
6.46758e-06
-7.00173e-05
1.29008e-05
-7.48726e-05
1.93477e-05
-7.42015e-05
2.58557e-05
-7.56843e-05
3.23983e-05
-7.80825e-05
3.89628e-05
-8.11666e-05
4.5526e-05
-8.49931e-05
5.20415e-05
-8.96447e-05
5.84328e-05
-9.51936e-05
6.45783e-05
-0.000101805
7.02285e-05
-0.000109478
7.54191e-05
-0.000117049
7.98824e-05
-0.000136872
7.77377e-05
-0.000139924
3.7835e-05
-1.66527e-05
2.06586e-05
0.000100309
2.31587e-05
0.000109352
2.88645e-05
0.000105968
3.49243e-05
0.000103711
4.21978e-05
0.00010155
5.09366e-05
9.82721e-05
6.06471e-05
9.27315e-05
8.46455e-05
7.03873e-05
5.92915e-06
-7.59464e-05
1.17124e-05
-8.06558e-05
1.75314e-05
-8.00206e-05
2.33819e-05
-8.15348e-05
2.9219e-05
-8.39197e-05
3.50182e-05
-8.69657e-05
4.07431e-05
-9.0718e-05
4.63351e-05
-9.52367e-05
5.17082e-05
-0.000100567
5.67356e-05
-0.000106832
6.11929e-05
-0.000113935
6.51451e-05
-0.000121001
6.80998e-05
-0.000139827
6.21011e-05
-0.000133926
1.78435e-05
2.76049e-05
1.49923e-05
0.00010316
2.108e-05
0.000103264
2.68827e-05
0.000100164
3.25393e-05
9.80537e-05
3.87135e-05
9.53749e-05
4.53882e-05
9.15978e-05
5.19422e-05
8.61773e-05
7.89864e-05
5.76012e-05
5.37779e-06
-8.13242e-05
1.05223e-05
-8.58003e-05
1.57221e-05
-8.52204e-05
2.09276e-05
-8.67402e-05
2.60828e-05
-8.90749e-05
3.11561e-05
-9.2039e-05
3.61039e-05
-9.56659e-05
4.08634e-05
-9.99962e-05
4.53491e-05
-0.000105052
4.94419e-05
-0.000110925
5.29523e-05
-0.000117445
5.59675e-05
-0.000124017
5.78437e-05
-0.000141703
4.57791e-05
-0.000121861
1.09484e-05
6.24353e-05
1.39712e-05
0.000100137
1.97276e-05
9.7508e-05
2.47841e-05
9.51078e-05
2.97247e-05
9.31134e-05
3.47927e-05
9.0307e-05
3.98746e-05
8.65159e-05
4.45353e-05
8.15162e-05
7.5262e-05
4.82591e-05
4.82404e-06
-8.61483e-05
9.34945e-06
-9.03257e-05
1.3947e-05
-8.98179e-05
1.85293e-05
-9.13225e-05
2.30347e-05
-9.35803e-05
2.7428e-05
-9.64324e-05
3.16638e-05
-9.99016e-05
3.56802e-05
-0.000104013
3.93989e-05
-0.000108771
4.2716e-05
-0.000114242
4.54803e-05
-0.00012021
4.78075e-05
-0.000126344
4.89495e-05
-0.000142845
2.99135e-05
-0.000102825
1.14992e-05
8.08495e-05
1.43006e-05
9.73355e-05
1.86392e-05
9.31695e-05
2.27294e-05
9.10174e-05
2.68351e-05
8.90079e-05
3.09128e-05
8.62295e-05
3.48117e-05
8.26168e-05
3.82404e-05
7.80873e-05
7.26623e-05
4.08398e-05
4.27657e-06
-9.04248e-05
8.20862e-06
-9.42578e-05
1.22264e-05
-9.38357e-05
1.62131e-05
-9.53092e-05
2.01054e-05
-9.74725e-05
2.38669e-05
-0.000100194
2.74535e-05
-0.000103488
3.08082e-05
-0.000107367
3.38635e-05
-0.000111826
3.65333e-05
-0.000116912
3.87036e-05
-0.00012238
4.05123e-05
-0.000128152
4.10733e-05
-0.000143406
1.7693e-05
-7.94452e-05
1.07933e-05
8.77492e-05
1.37792e-05
9.43497e-05
1.72537e-05
8.96952e-05
2.06283e-05
8.76424e-05
2.40009e-05
8.56349e-05
2.72507e-05
8.29792e-05
3.02447e-05
7.96226e-05
3.27945e-05
7.55378e-05
7.07821e-05
3.4675e-05
3.74257e-06
-9.41674e-05
7.11122e-06
-9.76265e-05
1.05755e-05
-9.73e-05
1.39971e-05
-9.87308e-05
1.73148e-05
-0.00010079
2.04917e-05
-0.000103371
2.34864e-05
-0.000106483
2.62487e-05
-0.00011013
2.87228e-05
-0.0001143
3.08407e-05
-0.00011903
3.25291e-05
-0.000124068
3.39495e-05
-0.000129573
3.4101e-05
-0.000143557
1.08527e-05
-5.61968e-05
8.94923e-06
8.96528e-05
1.23126e-05
9.09859e-05
1.55206e-05
8.64874e-05
1.84968e-05
8.46661e-05
2.12914e-05
8.28401e-05
2.38534e-05
8.04165e-05
2.61253e-05
7.73501e-05
2.80113e-05
7.36519e-05
6.94051e-05
2.93887e-05
3.22738e-06
-9.73948e-05
6.06469e-06
-0.000100464
9.00346e-06
-0.000100239
1.1892e-05
-0.000101619
1.46724e-05
-0.000103571
1.73085e-05
-0.000106007
1.9762e-05
-0.000108936
2.19886e-05
-0.000112356
2.39426e-05
-0.000116254
2.55702e-05
-0.000120658
2.68463e-05
-0.000125344
2.79405e-05
-0.000130667
2.79397e-05
-0.000143557
4.7003e-06
-3.29574e-05
4.73187e-06
8.96213e-05
1.01146e-05
8.56024e-05
1.37387e-05
8.28631e-05
1.65255e-05
8.1879e-05
1.8813e-05
8.05528e-05
2.07475e-05
7.84821e-05
2.2392e-05
7.57054e-05
2.3735e-05
7.23088e-05
6.84204e-05
2.47195e-05
2.73022e-06
-0.000100125
5.06967e-06
-0.000102803
7.51088e-06
-0.00010268
9.89858e-06
-0.000104007
1.21756e-05
-0.000105848
1.43099e-05
-0.000108141
1.62651e-05
-0.000110892
1.80034e-05
-0.000114094
1.94856e-05
-0.000117737
2.06676e-05
-0.00012184
2.15727e-05
-0.000126249
2.22762e-05
-0.00013137
2.26539e-05
-0.000143935
-5.73392e-06
-4.56976e-06
1.01685e-06
8.28708e-05
8.57684e-06
7.80425e-05
1.26455e-05
7.87942e-05
1.50656e-05
7.94586e-05
1.67007e-05
7.89173e-05
1.79413e-05
7.72419e-05
1.89662e-05
7.46807e-05
1.98188e-05
7.14559e-05
6.77694e-05
2.04696e-05
2.26524e-06
-0.00010239
4.13561e-06
-0.000104674
6.1047e-06
-0.000104649
8.02203e-06
-0.000105924
9.8315e-06
-0.000107657
1.15027e-05
-0.000109812
1.29987e-05
-0.000112388
1.42843e-05
-0.00011538
1.53244e-05
-0.000118777
1.60734e-05
-0.000122589
1.65992e-05
-0.000126775
1.65917e-05
-0.000131363
1.82365e-05
-0.000145579
-9.64933e-06
2.33155e-05
2.66203e-06
7.05596e-05
1.00376e-05
7.06673e-05
1.32166e-05
7.56154e-05
1.44668e-05
7.82083e-05
1.50208e-05
7.83628e-05
1.53764e-05
7.6886e-05
1.57302e-05
7.43269e-05
1.61128e-05
7.10733e-05
6.74089e-05
1.64734e-05
1.87039e-06
-0.000104261
3.28033e-06
-0.000106084
4.8187e-06
-0.000106187
6.30478e-06
-0.00010741
7.69394e-06
-0.000109046
8.95189e-06
-0.00011107
1.0037e-05
-0.000113473
1.09011e-05
-0.000116244
1.14939e-05
-0.000119369
1.17005e-05
-0.000122795
1.15973e-05
-0.000126672
1.02669e-05
-0.000130033
1.14907e-05
-0.000146803
1.54723e-06
3.3259e-05
1.32595e-05
5.88472e-05
1.5937e-05
6.79896e-05
1.57699e-05
7.57825e-05
1.46843e-05
7.9294e-05
1.35988e-05
7.94481e-05
1.28524e-05
7.7632e-05
1.24919e-05
7.46873e-05
1.24394e-05
7.11259e-05
6.72775e-05
1.2571e-05
1.48061e-06
-0.000105741
2.47803e-06
-0.000107081
3.66683e-06
-0.000107376
4.7878e-06
-0.000108531
5.82184e-06
-0.00011008
6.73226e-06
-0.000111981
7.47355e-06
-0.000114214
7.97694e-06
-0.000116747
8.16126e-06
-0.000119554
7.75133e-06
-0.000122385
6.50896e-06
-0.00012543
3.335e-06
-0.000126859
-3.99496e-06
-0.000139473
2.23179e-05
6.94661e-06
2.95074e-05
5.16575e-05
2.49213e-05
7.25755e-05
1.942e-05
8.12833e-05
1.50237e-05
8.36904e-05
1.18829e-05
8.25891e-05
9.95664e-06
7.95583e-05
8.95515e-06
7.56889e-05
8.58392e-06
7.14973e-05
6.72608e-05
8.60066e-06
1.10079e-06
-0.000106842
1.75031e-06
-0.000107731
2.58568e-06
-0.000108212
3.36774e-06
-0.000109313
4.0687e-06
-0.000110781
4.65852e-06
-0.000112571
5.09336e-06
-0.000114649
5.30983e-06
-0.000116964
5.23846e-06
-0.000119482
4.76021e-06
-0.000121907
3.3501e-06
-0.000124019
4.77656e-06
-0.000128285
-9.19473e-06
-0.000125502
4.5379e-05
-4.7627e-05
5.30264e-05
4.40101e-05
3.64425e-05
8.91594e-05
2.28072e-05
9.49184e-05
1.43011e-05
9.21965e-05
9.06331e-06
8.78271e-05
6.15341e-06
8.24683e-05
4.76627e-06
7.70761e-05
4.31915e-06
7.19445e-05
6.71644e-05
4.41562e-06
5.66637e-07
-0.000107409
8.61572e-07
-0.000108025
1.26894e-06
-0.000108619
1.62782e-06
-0.000109672
1.91554e-06
-0.000111069
2.10665e-06
-0.000112762
2.1789e-06
-0.000114721
2.14621e-06
-0.000116931
1.93076e-06
-0.000119267
2.76265e-06
-0.000122739
4.67758e-06
-0.000125934
2.13154e-05
-0.000144923
3.14661e-05
-0.000135652
8.39692e-05
-0.00010013
7.64665e-05
5.15128e-05
4.68222e-05
0.000118804
2.32571e-05
0.000118484
1.05957e-05
0.000104858
4.01789e-06
9.4405e-05
8.71941e-07
8.56143e-05
-3.54191e-07
7.83021e-05
-5.02585e-07
7.20928e-05
6.67276e-05
-6.57691e-08
-4.00343e-07
-0.000107008
-1.00426e-06
-0.000107421
-1.50189e-06
-0.000108121
-2.11149e-06
-0.000109063
-2.76908e-06
-0.000110412
-3.50114e-06
-0.00011203
-4.20574e-06
-0.000114017
-4.60888e-06
-0.000116528
-4.81627e-06
-0.00011906
-7.24211e-07
-0.000126831
1.41179e-05
-0.000140777
3.23265e-05
-0.000163132
7.19169e-05
-0.000175243
6.43964e-05
-9.26098e-05
7.73794e-05
3.85297e-05
4.03005e-05
0.000155883
1.42516e-05
0.000144533
1.04636e-06
0.000118063
-4.4064e-06
9.98576e-05
-6.42199e-06
8.76297e-05
-6.64883e-06
7.85287e-05
-5.96322e-06
7.1407e-05
6.56154e-05
-4.85101e-06
-3.03136e-06
-0.000103977
-6.51018e-06
-0.000103943
-9.40296e-06
-0.000105228
-1.20842e-05
-0.000106382
-1.55386e-05
-0.000106958
-1.85801e-05
-0.000108988
-2.08793e-05
-0.000111717
-2.18048e-05
-0.000115602
-2.04172e-05
-0.000120448
-9.63436e-06
-0.000137614
1.35453e-05
-0.000163956
3.03728e-05
-0.000179959
3.92435e-05
-0.000184114
2.28214e-05
-7.61877e-05
1.96361e-05
4.17149e-05
1.16368e-06
0.000174356
-1.23814e-05
0.000158078
-1.62451e-05
0.000121927
-1.67938e-05
0.000100406
-1.57279e-05
8.65637e-05
-1.39335e-05
7.67341e-05
-1.18874e-05
6.93609e-05
6.35413e-05
-9.81314e-06
-4.36247e-06
-9.96145e-05
-8.35659e-06
-9.99491e-05
-1.2809e-05
-0.000100776
-1.75176e-05
-0.000101672
-2.16287e-05
-0.000102847
-2.57815e-05
-0.000104835
-2.96665e-05
-0.000107832
-3.32426e-05
-0.000112026
-3.42508e-05
-0.000119439
-3.5478e-05
-0.000136387
-3.76796e-05
-0.000161755
-4.27708e-05
-0.000174868
-6.32453e-05
-0.000163639
-8.35462e-05
-5.58867e-05
-9.41266e-05
5.22953e-05
-7.06642e-05
0.000150893
-5.02092e-05
0.000137623
-3.86495e-05
0.000110367
-3.14446e-05
9.32012e-05
-2.60154e-05
8.11345e-05
-2.16149e-05
7.23337e-05
-1.7905e-05
6.56512e-05
6.03504e-05
-1.4714e-05
-4.50241e-06
-9.51112e-05
-8.60129e-06
-9.58511e-05
-1.30815e-05
-9.62957e-05
-1.77676e-05
-9.69862e-05
-2.25654e-05
-9.80491e-05
-2.77718e-05
-9.96295e-05
-3.37638e-05
-0.00010184
-4.07925e-05
-0.000104998
-5.01578e-05
-0.000110074
-6.89035e-05
-0.000117642
-0.000101294
-0.000129364
-0.00013244
-0.000143722
-0.000167327
-0.000128752
-0.000175386
-4.78276e-05
-0.000169739
4.66484e-05
-0.000121372
0.000102526
-8.14715e-05
9.77223e-05
-5.88919e-05
8.77876e-05
-4.49644e-05
7.92739e-05
-3.55503e-05
7.17206e-05
-2.87111e-05
6.54948e-05
-2.34393e-05
6.03796e-05
5.61183e-05
-1.92072e-05
-4.69403e-06
-9.04175e-05
-9.32993e-06
-9.12154e-05
-1.42054e-05
-9.14207e-05
-1.92598e-05
-9.19321e-05
-2.4679e-05
-9.26291e-05
-3.06968e-05
-9.36116e-05
-3.76139e-05
-9.49242e-05
-4.58805e-05
-9.67314e-05
-5.7025e-05
-9.89296e-05
-7.3772e-05
-0.000100895
-9.91466e-05
-0.00010399
-0.000137104
-0.000105765
-0.000179166
-8.66895e-05
-0.000191092
-3.59021e-05
-0.000169384
2.49411e-05
-0.000125868
5.90101e-05
-9.19028e-05
6.37574e-05
-6.92981e-05
6.51832e-05
-5.35488e-05
6.35249e-05
-4.23922e-05
6.05642e-05
-3.41831e-05
5.72859e-05
-2.79038e-05
5.41004e-05
5.11567e-05
-2.29421e-05
-4.76125e-06
-8.56559e-05
-9.62257e-06
-8.63544e-05
-1.4629e-05
-8.64147e-05
-1.99265e-05
-8.66354e-05
-2.56578e-05
-8.68979e-05
-3.2058e-05
-8.72112e-05
-3.94038e-05
-8.75786e-05
-4.81923e-05
-8.79426e-05
-5.92054e-05
-8.79169e-05
-7.31649e-05
-8.69352e-05
-9.21009e-05
-8.50536e-05
-0.00011912
-7.87454e-05
-0.000145926
-5.98836e-05
-0.000154294
-2.75343e-05
-0.0001361
6.74791e-06
-0.000109141
3.20512e-05
-8.75587e-05
4.21754e-05
-7.01724e-05
4.77973e-05
-5.646e-05
4.98127e-05
-4.58187e-05
4.99231e-05
-3.75188e-05
4.89861e-05
-3.09587e-05
4.75403e-05
4.589e-05
-2.5692e-05
-4.81373e-06
-8.08422e-05
-9.7827e-06
-8.13852e-05
-1.48354e-05
-8.13616e-05
-2.02119e-05
-8.12588e-05
-2.60112e-05
-8.10986e-05
-3.24097e-05
-8.08129e-05
-3.9653e-05
-8.03352e-05
-4.8122e-05
-7.94735e-05
-5.81899e-05
-7.78494e-05
-7.00149e-05
-7.51104e-05
-8.4279e-05
-7.07895e-05
-0.000100745
-6.22793e-05
-0.000114419
-4.62092e-05
-0.000118159
-2.37944e-05
-0.000110009
-1.40209e-06
-9.43717e-05
1.64142e-05
-7.99297e-05
2.77336e-05
-6.69457e-05
3.48134e-05
-5.58559e-05
3.87231e-05
-4.65921e-05
4.06594e-05
-3.89387e-05
4.13327e-05
-3.26315e-05
4.1233e-05
4.06806e-05
-2.74221e-05
-4.77772e-06
-7.60649e-05
-9.66051e-06
-7.65023e-05
-1.46944e-05
-7.63275e-05
-1.9983e-05
-7.59704e-05
-2.56381e-05
-7.54436e-05
-3.17903e-05
-7.46607e-05
-3.8611e-05
-7.35141e-05
-4.62825e-05
-7.18023e-05
-5.4906e-05
-6.92256e-05
-6.45547e-05
-6.54616e-05
-7.54038e-05
-5.99405e-05
-8.64021e-05
-5.1281e-05
-9.42503e-05
-3.83608e-05
-9.57915e-05
-2.22531e-05
-9.11654e-05
-6.0281e-06
-8.2315e-05
7.5641e-06
-7.23434e-05
1.7762e-05
-6.25309e-05
2.50009e-05
-5.36005e-05
2.97927e-05
-4.57436e-05
3.28025e-05
-3.8962e-05
3.45511e-05
-3.31673e-05
3.54383e-05
3.57546e-05
-2.82414e-05
-4.67317e-06
-7.13918e-05
-9.38699e-06
-7.17882e-05
-1.42804e-05
-7.14339e-05
-1.9368e-05
-7.08827e-05
-2.47487e-05
-7.00631e-05
-3.05102e-05
-6.8899e-05
-3.67514e-05
-6.7273e-05
-4.35369e-05
-6.50169e-05
-5.08532e-05
-6.19091e-05
-5.86419e-05
-5.76727e-05
-6.67046e-05
-5.18778e-05
-7.41173e-05
-4.38683e-05
-7.91089e-05
-3.3369e-05
-8.01755e-05
-2.11865e-05
-7.7308e-05
-8.89557e-06
-7.17287e-05
1.98493e-06
-6.48097e-05
1.08431e-05
-5.74914e-05
1.76826e-05
-5.04086e-05
2.27099e-05
-4.3872e-05
2.6266e-05
-3.80061e-05
2.86853e-05
-3.28294e-05
3.02616e-05
3.12335e-05
-2.83084e-05
-4.48024e-06
-6.69114e-05
-9.0129e-06
-6.72557e-05
-1.36643e-05
-6.67827e-05
-1.84717e-05
-6.60753e-05
-2.34957e-05
-6.5039e-05
-2.87855e-05
-6.3609e-05
-3.438e-05
-6.16788e-05
-4.02797e-05
-5.91173e-05
-4.64224e-05
-5.57662e-05
-5.26797e-05
-5.14154e-05
-5.87562e-05
-4.58013e-05
-6.39684e-05
-3.86561e-05
-6.7344e-05
-2.99934e-05
-6.81698e-05
-2.03606e-05
-6.64088e-05
-1.06566e-05
-6.26998e-05
-1.72404e-06
-5.77774e-05
5.92075e-06
-5.2292e-05
1.21972e-05
-4.67192e-05
1.71373e-05
-4.13576e-05
2.09045e-05
-3.63728e-05
2.37006e-05
-3.18403e-05
2.57291e-05
2.71727e-05
-2.77795e-05
-4.21726e-06
-6.26941e-05
-8.52398e-06
-6.29489e-05
-1.28822e-05
-6.24245e-05
-1.73586e-05
-6.1599e-05
-2.19815e-05
-6.04159e-05
-2.67704e-05
-5.88207e-05
-3.17251e-05
-5.67242e-05
-3.68135e-05
-5.40286e-05
-4.19542e-05
-5.06256e-05
-4.69938e-05
-4.6376e-05
-5.1656e-05
-4.11391e-05
-5.54803e-05
-3.48318e-05
-5.79185e-05
-2.75552e-05
-5.85982e-05
-1.96807e-05
-5.74994e-05
-1.17554e-05
-5.49506e-05
-4.27285e-06
-5.13976e-05
2.36783e-06
-4.72478e-05
8.04756e-06
-4.28608e-05
1.27504e-05
-3.84898e-05
1.65337e-05
-3.42995e-05
1.95103e-05
-3.03856e-05
2.18151e-05
2.35826e-05
-2.67956e-05
-3.92379e-06
-5.87706e-05
-7.93765e-06
-5.89347e-05
-1.19782e-05
-5.83839e-05
-1.60959e-05
-5.74816e-05
-2.03004e-05
-5.62115e-05
-2.45918e-05
-5.45297e-05
-2.89483e-05
-5.23675e-05
-3.33224e-05
-4.96545e-05
-3.76282e-05
-4.632e-05
-4.17208e-05
-4.22835e-05
-4.53773e-05
-3.74825e-05
-4.82931e-05
-3.19159e-05
-5.01489e-05
-2.56995e-05
-5.07374e-05
-1.90922e-05
-5.00515e-05
-1.24412e-05
-4.82475e-05
-6.07681e-06
-4.56517e-05
-2.27899e-07
-4.24802e-05
4.87623e-06
-3.90164e-05
9.28672e-06
-3.54612e-05
1.29786e-05
-3.1961e-05
1.60101e-05
-2.86131e-05
1.84671e-05
2.04457e-05
-2.54762e-05
-3.62266e-06
-5.51483e-05
-7.30242e-06
-5.52553e-05
-1.10096e-05
-5.46768e-05
-1.47567e-05
-5.37345e-05
-1.85436e-05
-5.24247e-05
-2.23589e-05
-5.07143e-05
-2.61712e-05
-4.85552e-05
-2.99272e-05
-4.58986e-05
-3.35453e-05
-4.27021e-05
-3.69021e-05
-3.89266e-05
-3.98292e-05
-3.45553e-05
-4.21242e-05
-2.96209e-05
-4.3594e-05
-2.42298e-05
-4.41192e-05
-1.8567e-05
-4.3696e-05
-1.28644e-05
-4.24203e-05
-7.35253e-06
-4.04604e-05
-2.1877e-06
-3.80251e-05
2.44094e-06
-3.52815e-05
6.54317e-06
-3.23912e-05
1.00884e-05
-2.94789e-05
1.30976e-05
-2.66343e-05
1.56225e-05
1.77291e-05
-2.39177e-05
-3.31732e-06
-5.18306e-05
-6.65608e-06
-5.19166e-05
-1.0021e-05
-5.13119e-05
-1.33978e-05
-5.03578e-05
-1.67796e-05
-4.90429e-05
-2.01489e-05
-4.73448e-05
-2.34717e-05
-4.52326e-05
-2.66949e-05
-4.26755e-05
-2.97457e-05
-3.96513e-05
-3.25248e-05
-3.61474e-05
-3.4908e-05
-3.21721e-05
-3.67596e-05
-2.77695e-05
-3.79588e-05
-2.30306e-05
-3.84336e-05
-1.80922e-05
-3.81803e-05
-1.31177e-05
-3.72633e-05
-8.2696e-06
-3.57753e-05
-3.67576e-06
-3.3888e-05
5.53736e-07
-3.17044e-05
4.35953e-06
-2.93527e-05
7.7366e-06
-2.69352e-05
1.06802e-05
-2.45305e-05
1.32177e-05
1.53935e-05
-2.21948e-05
-3.00473e-06
-4.88259e-05
-6.01288e-06
-4.89082e-05
-9.03516e-06
-4.82895e-05
-1.20507e-05
-4.73422e-05
-1.50473e-05
-4.60461e-05
-1.80046e-05
-4.43874e-05
-2.0889e-05
-4.23484e-05
-2.3652e-05
-3.99125e-05
-2.62312e-05
-3.70719e-05
-2.85488e-05
-3.38299e-05
-3.05142e-05
-3.02069e-05
-3.20346e-05
-2.62492e-05
-3.30322e-05
-2.20331e-05
-3.34619e-05
-1.76626e-05
-3.33222e-05
-1.32575e-05
-3.26552e-05
-8.93664e-06
-3.15253e-05
-4.80572e-06
-3.00523e-05
-9.19353e-07
-2.83024e-05
2.60963e-06
-2.63862e-05
5.82049e-06
-2.43835e-05
8.67745e-06
-2.23594e-05
1.11937e-05
1.33981e-05
-2.0364e-05
-2.68558e-06
-4.61403e-05
-5.37476e-06
-4.62186e-05
-8.06184e-06
-4.56022e-05
-1.07305e-05
-4.46732e-05
-1.33653e-05
-4.34111e-05
-1.59447e-05
-4.1808e-05
-1.84373e-05
-3.98559e-05
-2.08008e-05
-3.75489e-05
-2.29835e-05
-3.48891e-05
-2.49251e-05
-3.18885e-05
-2.65594e-05
-2.85728e-05
-2.78223e-05
-2.49864e-05
-2.86624e-05
-2.11931e-05
-2.90508e-05
-1.72743e-05
-2.89877e-05
-1.33207e-05
-2.85014e-05
-9.42307e-06
-2.76439e-05
-5.66331e-06
-2.64664e-05
-2.09677e-06
-2.50711e-05
1.21441e-06
-2.35118e-05
4.26126e-06
-2.18567e-05
7.02245e-06
-2.01608e-05
9.49788e-06
1.17043e-05
-1.84668e-05
-2.3658e-06
-4.37742e-05
-4.74419e-06
-4.38399e-05
-7.10796e-06
-4.32383e-05
-9.44652e-06
-4.23343e-05
-1.17433e-05
-4.11144e-05
-1.39764e-05
-3.95748e-05
-1.61178e-05
-3.77144e-05
-1.81317e-05
-3.5535e-05
-1.99762e-05
-3.30447e-05
-2.16048e-05
-3.02602e-05
-2.2969e-05
-2.72089e-05
-2.40238e-05
-2.39316e-05
-2.47346e-05
-2.04825e-05
-2.50826e-05
-1.69264e-05
-2.50686e-05
-1.33349e-05
-2.47129e-05
-9.77888e-06
-2.40525e-05
-6.32365e-06
-2.31274e-05
-3.02182e-06
-2.20082e-05
9.5307e-08
-2.07379e-05
2.99101e-06
-1.93741e-05
5.65882e-06
-1.79607e-05
8.08444e-06
1.02765e-05
-1.65329e-05
-2.05352e-06
-4.17205e-05
-4.12747e-06
-4.17657e-05
-6.18114e-06
-4.11843e-05
-8.20643e-06
-4.03089e-05
-1.01869e-05
-3.91341e-05
-1.21016e-05
-3.76599e-05
-1.39259e-05
-3.589e-05
-1.56303e-05
-3.38308e-05
-1.71813e-05
-3.1494e-05
-1.85432e-05
-2.88986e-05
-1.96802e-05
-2.6072e-05
-2.05608e-05
-2.30512e-05
-2.1161e-05
-1.98824e-05
-2.14685e-05
-1.66191e-05
-2.14846e-05
-1.33188e-05
-2.12245e-05
-1.0039e-05
-2.07153e-05
-6.83287e-06
-1.99892e-05
-3.74782e-06
-1.90938e-05
-7.99936e-07
-1.80619e-05
1.95916e-06
-1.69444e-05
4.54135e-06
-1.5775e-05
6.91507e-06
9.08389e-06
-1.45825e-05
-1.75411e-06
-3.99663e-05
-3.5311e-06
-3.99884e-05
-5.28761e-06
-3.94275e-05
-7.0152e-06
-3.85811e-05
-8.69819e-06
-3.74509e-05
-1.03178e-05
-3.60402e-05
-1.18528e-05
-3.4355e-05
-1.32793e-05
-3.24046e-05
-1.45707e-05
-3.02029e-05
-1.56998e-05
-2.77697e-05
-1.66404e-05
-2.51316e-05
-1.73699e-05
-2.23219e-05
-1.78718e-05
-1.93807e-05
-1.8138e-05
-1.63529e-05
-1.81704e-05
-1.32863e-05
-1.79808e-05
-1.02286e-05
-1.75892e-05
-7.22436e-06
-1.70234e-05
-4.31353e-06
-1.63019e-05
-1.5213e-06
-1.54752e-05
1.13249e-06
-1.45691e-05
3.63525e-06
-1.36125e-05
5.95839e-06
8.10012e-06
-1.2629e-05
-1.46912e-06
-3.8497e-05
-2.95827e-06
-3.84987e-05
-4.42938e-06
-3.79562e-05
-5.87282e-06
-3.71374e-05
-7.2744e-06
-3.60492e-05
-8.61799e-06
-3.46966e-05
-9.88598e-06
-3.30872e-05
-1.10589e-05
-3.12319e-05
-1.21163e-05
-2.91457e-05
-1.30376e-05
-2.68486e-05
-1.38036e-05
-2.43657e-05
-1.43983e-05
-2.17275e-05
-1.48101e-05
-1.8969e-05
-1.50339e-05
-1.6129e-05
-1.50719e-05
-1.32483e-05
-1.4933e-05
-1.03673e-05