/*--------------------------------*- C++ -*----------------------------------*\
| =========                 |                                                 |
| \\      /  F ield         | OpenFOAM: The Open Source CFD Toolbox           |
|  \\    /   O peration     | Version:  2206                                  |
|   \\  /    A nd           | Website:  www.openfoam.com                      |
|    \\/     M anipulation  |                                                 |
\*---------------------------------------------------------------------------*/
FoamFile
{
    version     2.0;
    format      ascii;
    arch        "LSB;label=32;scalar=64";
    class       volVectorField;
    location    "0.075";
    object      U;
}
// * * * * * * * * * * * * * * * * * * * * * * * * * * * * * * * * * * * * * //

dimensions      [0 1 -1 0 0 0 0];

internalField   nonuniform List<vector> 
2268
(
(0.0239461 -0.0113383 0)
(0.0745826 -0.0127417 0)
(0.127835 -0.0125256 0)
(0.181488 -0.0128364 0)
(0.236889 -0.0134427 0)
(0.295225 -0.0142544 0)
(0.357576 -0.0153104 0)
(0.424281 -0.0166406 0)
(0.499509 -0.0184418 0)
(0.577582 -0.0204092 0)
(0.67284 -0.0235293 0)
(0.778767 -0.0275461 0)
(0.890336 -0.03249 0)
(1.01472 -0.0332924 0)
(1.14179 -0.0284923 0)
(1.27615 -0.026434 0)
(1.42918 -0.030588 0)
(1.56911 -0.0107912 0)
(1.53056 0.0453447 0)
(1.26391 0.0717711 0)
(0.99853 0.0917798 0)
(0.682644 0.101851 0)
(0.284111 0.111661 0)
(0.0239319 -0.0339036 0)
(0.0745594 -0.0380611 0)
(0.127771 -0.0374586 0)
(0.181322 -0.038395 0)
(0.236592 -0.0402022 0)
(0.294749 -0.0426121 0)
(0.356877 -0.0457319 0)
(0.423247 -0.0496905 0)
(0.498205 -0.0549652 0)
(0.575271 -0.061015 0)
(0.67067 -0.0705354 0)
(0.775869 -0.0816788 0)
(0.88173 -0.0948921 0)
(1.00769 -0.0977146 0)
(1.16964 -0.0880776 0)
(1.35314 -0.0899596 0)
(1.51657 -0.110717 0)
(1.675 -0.0825383 0)
(1.90033 0.064398 0)
(1.89047 0.153862 0)
(1.70092 0.208227 0)
(1.31556 0.272074 0)
(0.574973 0.400533 0)
(0.0238187 -0.056517 0)
(0.0741989 -0.0633272 0)
(0.1271 -0.0623604 0)
(0.180278 -0.0639099 0)
(0.235138 -0.0668931 0)
(0.292815 -0.0708762 0)
(0.354367 -0.0760191 0)
(0.41998 -0.0825726 0)
(0.494121 -0.0911446 0)
(0.569655 -0.101429 0)
(0.664384 -0.116794 0)
(0.767555 -0.133628 0)
(0.867293 -0.156484 0)
(0.996847 -0.173015 0)
(1.19035 -0.171671 0)
(1.41809 -0.167063 0)
(1.56569 -0.178595 0)
(1.55726 -0.174002 0)
(1.60404 -0.0353683 0)
(1.65786 0.161496 0)
(1.54033 0.337544 0)
(1.13789 0.562989 0)
(0.430362 0.80417 0)
(0.0236574 -0.0790467 0)
(0.0736599 -0.0884043 0)
(0.126092 -0.0870867 0)
(0.17874 -0.0892307 0)
(0.233027 -0.0933448 0)
(0.290033 -0.0988479 0)
(0.350771 -0.105947 0)
(0.415343 -0.115011 0)
(0.488267 -0.12672 0)
(0.561913 -0.141129 0)
(0.655011 -0.162003 0)
(0.756112 -0.183716 0)
(0.849139 -0.218573 0)
(0.972988 -0.259277 0)
(1.17273 -0.272015 0)
(1.41517 -0.235532 0)
(1.50401 -0.179299 0)
(1.42398 -0.142203 0)
(1.37049 -0.00584263 0)
(1.29201 0.20783 0)
(1.13147 0.460589 0)
(0.766239 0.816515 0)
(0.225463 1.14005 0)
(0.0234499 -0.101418 0)
(0.0729446 -0.113195 0)
(0.124754 -0.111543 0)
(0.176721 -0.114264 0)
(0.230273 -0.11946 0)
(0.28642 -0.126414 0)
(0.346117 -0.13537 0)
(0.409378 -0.146809 0)
(0.480712 -0.161447 0)
(0.551992 -0.179744 0)
(0.642875 -0.205815 0)
(0.7405 -0.232481 0)
(0.825354 -0.279204 0)
(0.943305 -0.342452 0)
(1.14561 -0.367067 0)
(1.39539 -0.277308 0)
(1.40265 -0.168762 0)
(1.27141 -0.100606 0)
(1.12836 0.0545535 0)
(0.890718 0.301943 0)
(0.67006 0.621439 0)
(0.374777 1.01828 0)
(0.0818269 1.31388 0)
(0.0232 -0.123485 0)
(0.072068 -0.137512 0)
(0.123114 -0.135544 0)
(0.17427 -0.138818 0)
(0.226947 -0.145032 0)
(0.28208 -0.153342 0)
(0.340549 -0.164023 0)
(0.402298 -0.177665 0)
(0.471756 -0.194951 0)
(0.540296 -0.216841 0)
(0.628689 -0.247403 0)
(0.721432 -0.27848 0)
(0.79543 -0.337881 0)
(0.906459 -0.422974 0)
(1.10601 -0.456875 0)
(1.33015 -0.294068 0)
(1.28874 -0.133547 0)
(1.09312 -0.0224354 0)
(0.830252 0.168678 0)
(0.532572 0.441625 0)
(0.287513 0.752766 0)
(0.113999 1.11776 0)
(0.022271 1.37099 0)
(0.0229366 -0.145441 0)
(0.07108 -0.161566 0)
(0.12124 -0.159291 0)
(0.171503 -0.163098 0)
(0.223229 -0.170276 0)
(0.277268 -0.179869 0)
(0.334421 -0.192184 0)
(0.394614 -0.207913 0)
(0.46209 -0.227637 0)
(0.527874 -0.253006 0)
(0.613931 -0.287242 0)
(0.700777 -0.321453 0)
(0.761443 -0.393323 0)
(0.862275 -0.499117 0)
(1.05085 -0.533611 0)
(1.20678 -0.313522 0)
(1.15197 -0.0795289 0)
(0.876826 0.0953034 0)
(0.542901 0.308915 0)
(0.27651 0.561613 0)
(0.106091 0.827049 0)
(0.048309 1.12626 0)
(0.0384756 1.37836 0)
(0.0226732 -0.16742 0)
(0.0699819 -0.185527 0)
(0.119125 -0.182989 0)
(0.168438 -0.187331 0)
(0.219161 -0.195447 0)
(0.272049 -0.206282 0)
(0.32782 -0.220167 0)
(0.386434 -0.237887 0)
(0.451783 -0.25995 0)
(0.514895 -0.288632 0)
(0.598874 -0.326151 0)
(0.678673 -0.362484 0)
(0.724269 -0.444579 0)
(0.818754 -0.563581 0)
(0.992631 -0.583364 0)
(1.07666 -0.311101 0)
(0.976677 0.0145685 0)
(0.647999 0.238495 0)
(0.337019 0.439308 0)
(0.150988 0.641011 0)
(0.0676115 0.859464 0)
(0.0940615 1.10923 0)
(0.0451829 1.4101 0)
(0.0115852 -0.00594168 0)
(0.0345059 -0.00569169 0)
(0.054067 -0.00418501 0)
(0.0675385 -0.00263544 0)
(0.0752888 -0.0013299 0)
(0.0785434 -0.000330734 0)
(0.0783168 0.000394127 0)
(0.0757229 0.000893114 0)
(0.0715131 0.00123051 0)
(0.0662089 0.00145636 0)
(0.0601739 0.0016065 0)
(0.0536565 0.00170559 0)
(0.0468265 0.00176954 0)
(0.0397981 0.00180942 0)
(0.0326471 0.00183352 0)
(0.0254238 0.00184757 0)
(0.0181605 0.00185523 0)
(0.0108829 0.00185798 0)
(0.00361126 0.00186553 0)
(0.0121542 -0.0183258 0)
(0.036518 -0.0178239 0)
(0.05718 -0.0130409 0)
(0.0710728 -0.00816167 0)
(0.0788374 -0.00408426 0)
(0.0819315 -0.00100857 0)
(0.081667 0.00120944 0)
(0.0790367 0.00275834 0)
(0.0747026 0.00381788 0)
(0.0692031 0.00453053 0)
(0.0629231 0.00500336 0)
(0.0561264 0.00531281 0)
(0.048994 0.00551136 0)
(0.0416477 0.0056354 0)
(0.0341689 0.00571063 0)
(0.0266118 0.00575443 0)
(0.0190105 0.00577817 0)
(0.0113918 0.0057882 0)
(0.00376617 0.00574087 0)
(0.0127086 -0.0312367 0)
(0.0385662 -0.0305991 0)
(0.0603003 -0.0220499 0)
(0.0741225 -0.0135358 0)
(0.0813052 -0.00660466 0)
(0.0837765 -0.00147281 0)
(0.0828706 0.00218288 0)
(0.0797156 0.00474014 0)
(0.0750204 0.00649095 0)
(0.0692896 0.00766843 0)
(0.062871 0.00844883 0)
(0.0559992 0.00895798 0)
(0.0488345 0.00928377 0)
(0.0414841 0.0094871 0)
(0.0340192 0.00961022 0)
(0.0264869 0.00968172 0)
(0.0189172 0.00972053 0)
(0.0113355 0.00973867 0)
(0.00374765 0.00966321 0)
(0.0135029 -0.0450962 0)
(0.0418561 -0.0446434 0)
(0.0653326 -0.0313325 0)
(0.0789017 -0.0186102 0)
(0.0850529 -0.0086997 0)
(0.0865042 -0.00155285 0)
(0.0847571 0.00348712 0)
(0.0809889 0.00697293 0)
(0.0758583 0.00933693 0)
(0.0698282 0.0109204 0)
(0.06321 0.0119679 0)
(0.0562073 0.0126506 0)
(0.0489574 0.0130869 0)
(0.0415526 0.0133585 0)
(0.0340546 0.0135221 0)
(0.0265033 0.0136167 0)
(0.0189237 0.013668 0)
(0.0113382 0.0136923 0)
(0.00374872 0.0135835 0)
(0.0139347 -0.0582512 0)
(0.0465537 -0.0604255 0)
(0.0727334 -0.0408918 0)
(0.0856344 -0.023103 0)
(0.0901165 -0.0101064 0)
(0.0900891 -0.001082 0)
(0.0872124 0.0052243 0)
(0.082641 0.0095125 0)
(0.0769549 0.0123936 0)
(0.0705481 0.0143154 0)
(0.0636756 0.0155826 0)
(0.056503 0.0164058 0)
(0.049141 0.0169302 0)
(0.0416635 0.0172553 0)
(0.0341194 0.0174498 0)
(0.0265395 0.017561 0)
(0.0189426 0.0176202 0)
(0.0113473 0.0176478 0)
(0.00375162 0.0175052 0)
(0.0146168 -0.0700776 0)
(0.0524706 -0.078901 0)
(0.0830399 -0.0508923 0)
(0.0945783 -0.0266519 0)
(0.0964769 -0.0104914 0)
(0.0944326 0.000216722 0)
(0.090151 0.00752738 0)
(0.0845929 0.012435 0)
(0.0782443 0.0157094 0)
(0.0713925 0.0178841 0)
(0.064221 0.0193137 0)
(0.0568492 0.0202389 0)
(0.0493557 0.0208252 0)
(0.0417927 0.0211856 0)
(0.0341939 0.0213985 0)
(0.0265803 0.0215176 0)
(0.0189634 0.0215794 0)
(0.0113571 0.0216072 0)
(0.0037546 0.0214299 0)
(0.0377231 -0.10112 0)
(0.0669307 -0.103827 0)
(0.0974561 -0.0609341 0)
(0.106045 -0.0287185 0)
(0.104086 -0.00944484 0)
(0.0993805 0.00255484 0)
(0.0934232 0.0105026 0)
(0.0867552 0.015804 0)
(0.0796662 0.0193248 0)
(0.0723209 0.0216545 0)
(0.0648197 0.0231806 0)
(0.0572281 0.0241635 0)
(0.0495891 0.0247809 0)
(0.0419312 0.0251555 0)
(0.0342721 0.0253721 0)
(0.0266218 0.0254895 0)
(0.0189838 0.0255474 0)
(0.0113664 0.0255717 0)
(0.00375736 0.0253582 0)
(0.137529 -0.151605 0)
(0.117974 -0.126291 0)
(0.120255 -0.0653277 0)
(0.120138 -0.0276316 0)
(0.112735 -0.0067809 0)
(0.104711 0.00590448 0)
(0.0968941 0.0141776 0)
(0.0890462 0.0196451 0)
(0.0811738 0.0232636 0)
(0.0733067 0.0256499 0)
(0.065456 0.0272051 0)
(0.0576304 0.0281981 0)
(0.0498358 0.0288133 0)
(0.0420761 0.0291783 0)
(0.0343524 0.0293819 0)
(0.026663 0.0294858 0)
(0.0190031 0.0295318 0)
(0.0113747 0.0295477 0)
(0.0037597 0.029296 0)
(0.0221424 -0.200358 0)
(0.0679173 -0.221017 0)
(0.115254 -0.218114 0)
(0.162835 -0.223223 0)
(0.211678 -0.232607 0)
(0.262387 -0.245095 0)
(0.315526 -0.261062 0)
(0.371065 -0.281318 0)
(0.432214 -0.306533 0)
(0.490246 -0.338847 0)
(0.569299 -0.380628 0)
(0.634819 -0.420809 0)
(0.659895 -0.514087 0)
(0.750588 -0.635219 0)
(0.896752 -0.611011 0)
(0.900477 -0.249849 0)
(0.681345 0.19453 0)
(0.374293 0.44069 0)
(0.211218 0.577233 0)
(0.141963 0.699699 0)
(0.145656 0.853066 0)
(0.295467 1.03239 0)
(0.411964 1.34349 0)
(0.0211822 -0.243987 0)
(0.0645141 -0.267555 0)
(0.10901 -0.264261 0)
(0.153729 -0.27036 0)
(0.199464 -0.281236 0)
(0.246603 -0.295594 0)
(0.29551 -0.313858 0)
(0.346013 -0.336815 0)
(0.400757 -0.365329 0)
(0.450768 -0.401037 0)
(0.52152 -0.44667 0)
(0.566111 -0.491512 0)
(0.571285 -0.598338 0)
(0.661864 -0.714893 0)
(0.758296 -0.577255 0)
(0.66595 -0.0718953 0)
(0.367858 0.406134 0)
(0.219111 0.589949 0)
(0.184338 0.644955 0)
(0.188967 0.69903 0)
(0.241111 0.776775 0)
(0.38873 0.857052 0)
(0.604846 0.960259 0)
(0.0200677 -0.285421 0)
(0.0606487 -0.310815 0)
(0.101996 -0.307248 0)
(0.143561 -0.314118 0)
(0.185886 -0.32603 0)
(0.229154 -0.341637 0)
(0.273561 -0.361356 0)
(0.318801 -0.385915 0)
(0.367031 -0.416092 0)
(0.409198 -0.453359 0)
(0.471727 -0.499643 0)
(0.496591 -0.545161 0)
(0.491605 -0.656969 0)
(0.578267 -0.752122 0)
(0.631469 -0.494172 0)
(0.463049 0.157947 0)
(0.187779 0.540991 0)
(0.168185 0.632575 0)
(0.183042 0.640718 0)
(0.213072 0.656982 0)
(0.273612 0.677899 0)
(0.367612 0.683833 0)
(0.544773 0.659034 0)
(0.0188171 -0.324419 0)
(0.056421 -0.350753 0)
(0.0944282 -0.34706 0)
(0.132649 -0.354525 0)
(0.171377 -0.367106 0)
(0.210622 -0.383461 0)
(0.250442 -0.403977 0)
(0.290427 -0.429281 0)
(0.332327 -0.460008 0)
(0.36724 -0.497406 0)
(0.422065 -0.542555 0)
(0.429782 -0.586917 0)
(0.423275 -0.698638 0)
(0.503494 -0.766905 0)
(0.523971 -0.39625 0)
(0.261248 0.373487 0)
(0.123912 0.600367 0)
(0.153236 0.618453 0)
(0.178248 0.60961 0)
(0.214723 0.60837 0)
(0.268354 0.602785 0)
(0.332162 0.580745 0)
(0.438368 0.53663 0)
(0.0174644 -0.360729 0)
(0.0519498 -0.387206 0)
(0.0865221 -0.38352 0)
(0.121313 -0.391397 0)
(0.156372 -0.404305 0)
(0.191582 -0.420958 0)
(0.226897 -0.441692 0)
(0.261849 -0.467013 0)
(0.297847 -0.49739 0)
(0.326382 -0.533828 0)
(0.374316 -0.576639 0)
(0.368142 -0.618771 0)
(0.365175 -0.727477 0)
(0.436522 -0.764651 0)
(0.414223 -0.234567 0)
(0.08448 0.514427 0)
(0.11051 0.601892 0)
(0.142678 0.587184 0)
(0.169825 0.575293 0)
(0.205812 0.566116 0)
(0.249679 0.550919 0)
(0.297514 0.522171 0)
(0.356362 0.478618 0)
(0.0160431 -0.394183 0)
(0.047343 -0.420135 0)
(0.0784674 -0.416584 0)
(0.109823 -0.424703 0)
(0.141235 -0.437653 0)
(0.172504 -0.454242 0)
(0.203512 -0.474744 0)
(0.233771 -0.499543 0)
(0.264418 -0.528949 0)
(0.287514 -0.563738 0)
(0.32938 -0.603611 0)
(0.31259 -0.643084 0)
(0.315556 -0.747122 0)
(0.376283 -0.743139 0)
(0.295307 0.0338315 0)
(0.00639771 0.558148 0)
(0.10405 0.574518 0)
(0.130608 0.555182 0)
(0.158366 0.543472 0)
(0.190906 0.530111 0)
(0.225764 0.510655 0)
(0.261311 0.480756 0)
(0.296642 0.439302 0)
(0.014584 -0.424684 0)
(0.0426946 -0.449579 0)
(0.0704226 -0.446276 0)
(0.0983996 -0.45449 0)
(0.126256 -0.467257 0)
(0.153748 -0.483506 0)
(0.180717 -0.503451 0)
(0.206682 -0.527361 0)
(0.232567 -0.55541 0)
(0.251116 -0.588173 0)
(0.287662 -0.624903 0)
(0.263348 -0.661644 0)
(0.272758 -0.759918 0)
(0.321695 -0.697419 0)
(0.183938 0.284624 0)
(0.019769 0.551463 0)
(0.0980921 0.541056 0)
(0.119895 0.525936 0)
(0.145659 0.514925 0)
(0.173245 0.499898 0)
(0.200667 0.479195 0)
(0.22704 0.450862 0)
(0.250714 0.414371 0)
(0.0131141 -0.452204 0)
(0.0380817 -0.475635 0)
(0.0625128 -0.472682 0)
(0.0872144 -0.480867 0)
(0.111655 -0.493284 0)
(0.135577 -0.509001 0)
(0.158803 -0.528169 0)
(0.18088 -0.550965 0)
(0.202566 -0.577456 0)
(0.217355 -0.608056 0)
(0.249206 -0.6417 0)
(0.220074 -0.675896 0)
(0.235432 -0.767878 0)
(0.271005 -0.617611 0)
(0.0886437 0.40576 0)
(0.054162 0.533836 0)
(0.0937888 0.51345 0)
(0.110582 0.501365 0)
(0.132734 0.490562 0)
(0.15522 0.475345 0)
(0.176741 0.45523 0)
(0.196577 0.429499 0)
(0.213409 0.398114 0)
(0.0116555 -0.476748 0)
(0.0335658 -0.498419 0)
(0.0548331 -0.495899 0)
(0.0763932 -0.503954 0)
(0.0975836 -0.515901 0)
(0.118163 -0.530955 0)
(0.137946 -0.549213 0)
(0.156516 -0.570774 0)
(0.174503 -0.595637 0)
(0.186183 -0.624095 0)
(0.213803 -0.654878 0)
(0.182111 -0.6869 0)
(0.20224 -0.772315 0)
(0.2227 -0.500698 0)
(0.0225661 0.46111 0)
(0.0708766 0.517414 0)
(0.0866883 0.492651 0)
(0.100867 0.481385 0)
(0.119717 0.470457 0)
(0.13782 0.455698 0)
(0.154659 0.43686 0)
(0.169685 0.413687 0)
(0.181945 0.386398 0)
(0.0102282 -0.498321 0)
(0.0291975 -0.518031 0)
(0.0474548 -0.516005 0)
(0.0660259 -0.523854 0)
(0.0841479 -0.535252 0)
(0.101611 -0.549562 0)
(0.118233 -0.566844 0)
(0.133636 -0.587136 0)
(0.148339 -0.610393 0)
(0.157415 -0.636834 0)
(0.181093 -0.665098 0)
(0.148737 -0.695458 0)
(0.171972 -0.77414 0)
(0.177822 -0.357356 0)
(-0.00963554 0.482582 0)
(0.0742389 0.500466 0)
(0.0764434 0.475017 0)
(0.0905688 0.464427 0)
(0.106923 0.453912 0)
(0.121438 0.440115 0)
(0.134463 0.422778 0)
(0.145758 0.401855 0)
(0.154713 0.377719 0)
(0.00884612 -0.517129 0)
(0.0250135 -0.534772 0)
(0.0404245 -0.53329 0)
(0.0561641 -0.540887 0)
(0.0714061 -0.551709 0)
(0.0859658 -0.565248 0)
(0.099681 -0.581553 0)
(0.112208 -0.600614 0)
(0.123963 -0.622364 0)
(0.130777 -0.646964 0)
(0.150601 -0.673107 0)
(0.119152 -0.702278 0)
(0.143508 -0.774113 0)
(0.135313 -0.248764 0)
(-0.0477285 0.486164 0)
(0.0702165 0.476896 0)
(0.0646793 0.456839 0)
(0.0808572 0.448995 0)
(0.0951816 0.440318 0)
(0.106444 0.428106 0)
(0.11607 0.412346 0)
(0.1242 0.393273 0)
(0.130544 0.371437 0)
(0.00750285 -0.533543 0)
(0.0210172 -0.549024 0)
(0.0337534 -0.548101 0)
(0.0468041 -0.555416 0)
(0.0593522 -0.565658 0)
(0.0712103 -0.578421 0)
(0.0822321 -0.59375 0)
(0.0921242 -0.611622 0)
(0.101216 -0.631969 0)
(0.105986 -0.654906 0)
(0.121985 -0.679342 0)
(0.0926974 -0.707552 0)
(0.115704 -0.773539 0)
(0.0895477 -0.135955 0)
(-0.0907172 0.467667 0)
(0.0596213 0.441853 0)
(0.0576847 0.436084 0)
(0.0745272 0.43481 0)
(0.0857999 0.429717 0)
(0.0932075 0.419622 0)
(0.0992816 0.405269 0)
(0.104397 0.387487 0)
(0.108472 0.36714 0)
(0.00624155 -0.546661 0)
(0.0172908 -0.559919 0)
(0.0274897 -0.559482 0)
(0.0379679 -0.566477 0)
(0.0480111 -0.576091 0)
(0.0573835 -0.588056 0)
(0.0659264 -0.602373 0)
(0.0733819 -0.619041 0)
(0.0800175 -0.638011 0)
(0.082827 -0.659429 0)
(0.0948745 -0.682733 0)
(0.0683669 -0.709906 0)
(0.0856027 -0.777047 0)
(0.0592642 0.0603074 0)
(-0.0826457 0.414047 0)
(0.0580983 0.400961 0)
(0.0639989 0.415982 0)
(0.0747615 0.424422 0)
(0.0798067 0.423436 0)
(0.0817507 0.415164 0)
(0.0835934 0.401541 0)
(0.0856295 0.384207 0)
(0.0876369 0.36449 0)
(0.00507522 -0.555384 0)
(0.0139594 -0.566754 0)
(0.0218063 -0.566872 0)
(0.02986 -0.57361 0)
(0.0376534 -0.582661 0)
(0.044791 -0.5939 0)
(0.0511295 -0.607294 0)
(0.0563886 -0.622825 0)
(0.0606801 -0.640423 0)
(0.0613448 -0.66017 0)
(0.0683853 -0.682469 0)
(0.0436824 -0.706013 0)
(0.0491489 -0.792679 0)
(0.063341 0.208995 0)
(0.0045624 0.349372 0)
(0.0865735 0.372837 0)
(0.087359 0.406768 0)
(0.0821427 0.423557 0)
(0.0763474 0.42453 0)
(0.0710458 0.415966 0)
(0.0679559 0.401453 0)
(0.0668986 0.383301 0)
(0.0671303 0.363191 0)
(0.00371154 -0.567202 0)
(0.0106957 -0.576128 0)
(0.0166994 -0.577268 0)
(0.022657 -0.583804 0)
(0.0285561 -0.592542 0)
(0.0337952 -0.603308 0)
(0.0382728 -0.616041 0)
(0.0416913 -0.630611 0)
(0.0438637 -0.646866 0)
(0.0423907 -0.66407 0)
(0.043407 -0.683292 0)
(0.0176896 -0.694964 0)
(0.0192439 -0.804692 0)
(-0.00227627 0.153941 0)
(0.133413 0.302086 0)
(0.153395 0.376517 0)
(0.121692 0.420486 0)
(0.0924218 0.437704 0)
(0.0718472 0.435896 0)
(0.0582953 0.423232 0)
(0.0504664 0.405175 0)
(0.046861 0.384496 0)
(0.0459517 0.362838 0)
(0.00277891 -0.585887 0)
(0.00778372 -0.591422 0)
(0.0117403 -0.593548 0)
(0.0159762 -0.599596 0)
(0.0200236 -0.607698 0)
(0.0235065 -0.61759 0)
(0.0263031 -0.62912 0)
(0.0281005 -0.642011 0)
(0.0286627 -0.656127 0)
(0.0260982 -0.669105 0)
(0.0258476 -0.681738 0)
(0.00299787 -0.680753 0)
(0.0655534 -0.734925 0)
(-0.0386843 -0.0516341 0)
(0.298959 0.31197 0)
(0.265065 0.434877 0)
(0.159009 0.469672 0)
(0.0972559 0.471359 0)
(0.0612177 0.458317 0)
(0.0397398 0.436498 0)
(0.028617 0.41186 0)
(0.0239536 0.386879 0)
(0.0231242 0.362647 0)
(0.00161278 -0.567013 0)
(0.00393769 -0.57008 0)
(0.00568235 -0.572569 0)
(0.00782336 -0.577753 0)
(0.00955883 -0.584587 0)
(0.0108595 -0.59285 0)
(0.0116083 -0.602307 0)
(0.0115488 -0.612764 0)
(0.0113471 -0.624008 0)
(0.00810765 -0.634584 0)
(0.0209879 -0.641912 0)
(0.0306975 -0.676254 0)
(0.199557 -0.641553 0)
(0.255693 -0.467256 0)
(0.41536 0.237397 0)
(0.38254 0.559878 0)
(0.181068 0.568206 0)
(0.0812245 0.528656 0)
(0.0360539 0.490428 0)
(0.0109709 0.453155 0)
(8.45738e-05 0.419221 0)
(-0.00306233 0.388738 0)
(-0.00199924 0.361392 0)
(-0.000307218 -0.523131 0)
(-0.00411041 -0.526557 0)
(-0.00656794 -0.530077 0)
(-0.00958988 -0.535465 0)
(-0.0130306 -0.542651 0)
(-0.0168053 -0.551538 0)
(-0.020851 -0.561943 0)
(-0.0244662 -0.573937 0)
(-0.0243675 -0.586503 0)
(-0.0282182 -0.611542 0)
(0.0232593 -0.638594 0)
(0.116442 -0.809414 0)
(0.239424 -0.724613 0)
(0.459635 -0.599071 0)
(0.374783 0.279512 0)
(0.352997 0.722095 0)
(0.130289 0.704435 0)
(0.0219878 0.600354 0)
(-0.0145088 0.524361 0)
(-0.0325426 0.467871 0)
(-0.0366642 0.423626 0)
(-0.0346363 0.387602 0)
(-0.0294884 0.357426 0)
(-0.00479182 -0.613072 0)
(-0.0274446 -0.613664 0)
(-0.0426532 -0.618519 0)
(-0.0595507 -0.624379 0)
(-0.0719625 -0.631984 0)
(-0.0917707 -0.643022 0)
(-0.107218 -0.657186 0)
(-0.116851 -0.675867 0)
(-0.11368 -0.696757 0)
(-0.100022 -0.76955 0)
(-0.0130893 -0.898576 0)
(0.201924 -1.02661 0)
(0.124364 -1.15854 0)
(0.195218 -0.478305 0)
(0.144232 0.0460534 0)
(0.0658418 0.86741 0)
(-0.0739953 0.825466 0)
(-0.0898171 0.652421 0)
(-0.0952976 0.543163 0)
(-0.0905106 0.471812 0)
(-0.0810001 0.420109 0)
(-0.0699892 0.380596 0)
(-0.0585871 0.34901 0)
(-0.00953985 -0.592105 0)
(-0.0350002 -0.591759 0)
(-0.0566172 -0.598631 0)
(-0.0814818 -0.60491 0)
(-0.10457 -0.612064 0)
(-0.127132 -0.622225 0)
(-0.149363 -0.637378 0)
(-0.167163 -0.65945 0)
(-0.177955 -0.692786 0)
(-0.187077 -0.798579 0)
(-0.189817 -0.949796 0)
(-0.147072 -0.986952 0)
(-0.350405 -0.977949 0)
(-0.4861 -0.30417 0)
(-0.291449 0.315632 0)
(-0.516237 0.938779 0)
(-0.345669 0.827014 0)
(-0.243444 0.639302 0)
(-0.193144 0.528338 0)
(-0.156083 0.455715 0)
(-0.128661 0.404047 0)
(-0.106404 0.365372 0)
(-0.0876064 0.334944 0)
(-0.012361 -0.501132 0)
(-0.0348221 -0.504061 0)
(-0.058316 -0.507963 0)
(-0.0823191 -0.512173 0)
(-0.107698 -0.518566 0)
(-0.134492 -0.528749 0)
(-0.163408 -0.543508 0)
(-0.196931 -0.565425 0)
(-0.241743 -0.602438 0)
(-0.299525 -0.667062 0)
(-0.403973 -0.774538 0)
(-0.634315 -0.851019 0)
(-0.901433 -0.708543 0)
(-0.960344 -0.242182 0)
(-0.849767 0.393362 0)
(-0.824297 0.748076 0)
(-0.524211 0.662768 0)
(-0.373357 0.547378 0)
(-0.278114 0.471997 0)
(-0.215583 0.415904 0)
(-0.172204 0.373803 0)
(-0.139717 0.341168 0)
(-0.114135 0.31492 0)
(-0.0118559 -0.508579 0)
(-0.0376224 -0.513267 0)
(-0.0632652 -0.51495 0)
(-0.0891566 -0.518413 0)
(-0.117378 -0.523336 0)
(-0.147786 -0.530418 0)
(-0.181586 -0.540078 0)
(-0.22204 -0.553414 0)
(-0.273595 -0.570615 0)
(-0.336186 -0.592427 0)
(-0.436055 -0.632072 0)
(-0.633094 -0.682405 0)
(-0.895074 -0.601665 0)
(-1.03488 -0.259843 0)
(-0.97317 0.176518 0)
(-0.799427 0.434065 0)
(-0.563406 0.435733 0)
(-0.426704 0.416641 0)
(-0.32549 0.388459 0)
(-0.255349 0.358953 0)
(-0.204317 0.332546 0)
(-0.165865 0.309675 0)
(-0.135801 0.28994 0)
(-0.0127951 -0.472587 0)
(-0.0385338 -0.477135 0)
(-0.0646682 -0.477344 0)
(-0.0923348 -0.479309 0)
(-0.121806 -0.481868 0)
(-0.15397 -0.485237 0)
(-0.190425 -0.489612 0)
(-0.233549 -0.495221 0)
(-0.285487 -0.500567 0)
(-0.346709 -0.501811 0)
(-0.432712 -0.496882 0)
(-0.570334 -0.469313 0)
(-0.732711 -0.378894 0)
(-0.827139 -0.193819 0)
(-0.791152 0.0345612 0)
(-0.657722 0.207134 0)
(-0.521163 0.269326 0)
(-0.419678 0.29972 0)
(-0.336408 0.304456 0)
(-0.272333 0.298016 0)
(-0.22225 0.286969 0)
(-0.18282 0.274502 0)
(-0.151212 0.262059 0)
(-0.0131713 -0.449392 0)
(-0.0389763 -0.452373 0)
(-0.065551 -0.452637 0)
(-0.0938464 -0.453036 0)
(-0.123585 -0.453347 0)
(-0.156008 -0.453405 0)
(-0.192444 -0.453008 0)
(-0.234287 -0.45122 0)
(-0.283076 -0.446168 0)
(-0.340382 -0.435834 0)
(-0.411905 -0.418537 0)
(-0.500624 -0.378374 0)
(-0.587461 -0.285224 0)
(-0.634809 -0.139643 0)
(-0.618259 0.00858496 0)
(-0.548679 0.11362 0)
(-0.466394 0.178171 0)
(-0.392619 0.217204 0)
(-0.327794 0.23611 0)
(-0.273489 0.243182 0)
(-0.228425 0.243195 0)
(-0.191213 0.239341 0)
(-0.160356 0.233528 0)
(-0.0125641 -0.42359 0)
(-0.0383995 -0.425751 0)
(-0.0652159 -0.425416 0)
(-0.0928929 -0.424116 0)
(-0.122037 -0.42209 0)
(-0.153541 -0.418972 0)
(-0.18834 -0.414302 0)
(-0.226968 -0.406993 0)
(-0.270231 -0.395179 0)
(-0.319142 -0.376681 0)
(-0.375647 -0.348435 0)
(-0.437498 -0.302276 0)
(-0.49036 -0.228451 0)
(-0.515321 -0.129486 0)
(-0.505093 -0.0253157 0)
(-0.466809 0.0603243 0)
(-0.414964 0.11884 0)
(-0.361292 0.158245 0)
(-0.310756 0.182763 0)
(-0.265715 0.196937 0)
(-0.226553 0.204017 0)
(-0.192904 0.206466 0)
(-0.1641 0.206011 0)
(-0.012083 -0.397235 0)
(-0.0374847 -0.399734 0)
(-0.0635743 -0.398378 0)
(-0.0901291 -0.395884 0)
(-0.118066 -0.392145 0)
(-0.147871 -0.386743 0)
(-0.180149 -0.379057 0)
(-0.214985 -0.368143 0)
(-0.252691 -0.352601 0)
(-0.293522 -0.330712 0)
(-0.337051 -0.299881 0)
(-0.380096 -0.255273 0)
(-0.414436 -0.193602 0)
(-0.430515 -0.119549 0)
(-0.424717 -0.0441899 0)
(-0.401118 0.0223485 0)
(-0.366813 0.0745261 0)
(-0.328083 0.113095 0)
(-0.289151 0.140129 0)
(-0.252501 0.1583 0)
(-0.219235 0.169899 0)
(-0.189617 0.176796 0)
(-0.163506 0.18044 0)
(-0.0118852 -0.372544 0)
(-0.0361876 -0.374876 0)
(-0.0608134 -0.372549 0)
(-0.0860998 -0.369087 0)
(-0.112396 -0.364032 0)
(-0.140021 -0.356978 0)
(-0.16932 -0.347286 0)
(-0.200165 -0.33416 0)
(-0.232493 -0.316589 0)
(-0.266075 -0.293243 0)
(-0.299789 -0.262404 0)
(-0.330831 -0.221927 0)
(-0.354364 -0.171142 0)
(-0.365541 -0.113282 0)
(-0.362541 -0.0547239 0)
(-0.347389 -0.0014345 0)
(-0.323765 0.043335 0)
(-0.295495 0.0790674 0)
(-0.265582 0.106308 0)
(-0.236109 0.12637 0)
(-0.208307 0.140686 0)
(-0.182736 0.150601 0)
(-0.159559 0.157258 0)
(-0.0114993 -0.349713 0)
(-0.0342657 -0.351303 0)
(-0.0572516 -0.348458 0)
(-0.0810739 -0.34423 0)
(-0.105459 -0.338189 0)
(-0.13068 -0.329981 0)
(-0.156901 -0.319051 0)
(-0.183908 -0.304773 0)
(-0.211428 -0.286447 0)
(-0.238976 -0.263164 0)
(-0.265377 -0.233923 0)
(-0.288538 -0.1979 0)
(-0.30558 -0.155405 0)
(-0.313901 -0.108722 0)
(-0.312508 -0.0615757 0)
(-0.302443 -0.0175202 0)
(-0.285824 0.0211443 0)
(-0.264914 0.0535398 0)
(-0.241834 0.0797314 0)
(-0.218215 0.100283 0)
(-0.195187 0.11602 0)
(-0.173388 0.127848 0)
(-0.153123 0.136621 0)
(-0.0107153 -0.327899 0)
(-0.0318348 -0.328812 0)
(-0.053238 -0.325829 0)
(-0.0753198 -0.321109 0)
(-0.097652 -0.314441 0)
(-0.120424 -0.30555 0)
(-0.143677 -0.294001 0)
(-0.167172 -0.279338 0)
(-0.190545 -0.261092 0)
(-0.213239 -0.238705 0)
(-0.234251 -0.211683 0)
(-0.252096 -0.179841 0)
(-0.265021 -0.143745 0)
(-0.271567 -0.105002 0)
(-0.271145 -0.0659275 0)
(-0.264283 -0.0287777 0)
(-0.252364 0.00484457 0)
(-0.236711 0.0341104 0)
(-0.218785 0.0587859 0)
(-0.199857 0.079055 0)
(-0.180871 0.0953664 0)
(-0.16244 0.108308 0)
(-0.144912 0.118497 0)
(-0.00971412 -0.307183 0)
(-0.0292217 -0.307773 0)
(-0.0490369 -0.304742 0)
(-0.0691675 -0.299768 0)
(-0.0893977 -0.29279 0)
(-0.109779 -0.283607 0)
(-0.130273 -0.271915 0)
(-0.15064 -0.257395 0)
(-0.1705 -0.239752 0)
(-0.189322 -0.218687 0)
(-0.206316 -0.194015 0)
(-0.220448 -0.165834 0)
(-0.230617 -0.134725 0)
(-0.235963 -0.101832 0)
(-0.236147 -0.0686671 0)
(-0.23147 -0.0367544 0)
(-0.222719 -0.00725907 0)
(-0.210813 0.0191944 0)
(-0.196827 0.0422111 0)
(-0.18164 0.0617935 0)
(-0.166023 0.078154 0)
(-0.150524 0.0916577 0)
(-0.135485 0.102738 0)
(-0.00874333 -0.288138 0)
(-0.026645 -0.288659 0)
(-0.0447654 -0.285526 0)
(-0.0628871 -0.280444 0)
(-0.0810347 -0.27337 0)
(-0.0991418 -0.264167 0)
(-0.117115 -0.252637 0)
(-0.134725 -0.238571 0)
(-0.151619 -0.221802 0)
(-0.167336 -0.202204 0)
(-0.181272 -0.179765 0)
(-0.192707 -0.154694 0)
(-0.200931 -0.12751 0)
(-0.205417 -0.0990534 0)
(-0.205967 -0.0703643 0)
(-0.202742 -0.0424937 0)
(-0.196226 -0.0162886 0)
(-0.187127 0.00766871 0)
(-0.176125 0.0290435 0)
(-0.163904 0.0477529 0)
(-0.15107 0.0638516 0)
(-0.138088 0.0775502 0)
(-0.125264 0.0891442 0)
(-0.00790368 -0.271085 0)
(-0.0241439 -0.271606 0)
(-0.0404531 -0.268345 0)
(-0.0566293 -0.263238 0)
(-0.0727667 -0.2562 0)
(-0.0887436 -0.247143 0)
(-0.104433 -0.235948 0)
(-0.11962 -0.222492 0)
(-0.134001 -0.206698 0)
(-0.147193 -0.188545 0)
(-0.15874 -0.168115 0)
(-0.168137 -0.14565 0)
(-0.174917 -0.121592 0)
(-0.178744 -0.0965746 0)
(-0.179494 -0.0713465 0)
(-0.177272 -0.046658 0)
(-0.1724 -0.0231725 0)
(-0.165409 -0.00137452 0)
(-0.15669 0.0185249 0)
(-0.146817 0.0363197 0)
(-0.136274 0.0519917 0)
(-0.125434 0.0656517 0)
(-0.11456 0.0774954 0)
(-0.00715632 -0.255951 0)
(-0.0216713 -0.256441 0)
(-0.0361237 -0.253108 0)
(-0.0504664 -0.248037 0)
(-0.0646982 -0.241126 0)
(-0.0786966 -0.23232 0)
(-0.0923209 -0.221552 0)
(-0.105377 -0.208767 0)
(-0.11761 -0.193951 0)
(-0.128715 -0.177147 0)
(-0.138347 -0.158478 0)
(-0.14615 -0.138186 0)
(-0.151807 -0.116644 0)
(-0.1551 -0.0943432 0)
(-0.155953 -0.0718429 0)
(-0.154447 -0.0497055 0)
(-0.150799 -0.028445 0)
(-0.14533 -0.00845306 0)
(-0.138395 0.0101055 0)
(-0.13043 0.0270072 0)
(-0.121784 0.0421773 0)
(-0.112765 0.0556589 0)
(-0.103595 0.0675748 0)
(-0.00642591 -0.242531 0)
(-0.0191963 -0.242936 0)
(-0.0318311 -0.239622 0)
(-0.044448 -0.234648 0)
(-0.0568878 -0.22793 0)
(-0.0690532 -0.219437 0)
(-0.0808063 -0.209144 0)
(-0.0919769 -0.197043 0)
(-0.102356 -0.183162 0)
(-0.111703 -0.167577 0)
(-0.119758 -0.150432 0)
(-0.126268 -0.131954 0)
(-0.131014 -0.112458 0)
(-0.133853 -0.0923313 0)
(-0.134736 -0.0720083 0)
(-0.133722 -0.0519225 0)
(-0.130966 -0.0324704 0)
(-0.126698 -0.013974 0)
(-0.121214 0.00335471 0)
(-0.114759 0.0194229 0)
(-0.107677 0.0340767 0)
(-0.100205 0.0473062 0)
(-0.0925207 0.0591811 0)
(-0.0056694 -0.230685 0)
(-0.0167333 -0.230968 0)
(-0.027645 -0.227743 0)
(-0.0386203 -0.222913 0)
(-0.049374 -0.21643 0)
(-0.0598366 -0.208284 0)
(-0.0698835 -0.198481 0)
(-0.0793691 -0.187045 0)
(-0.0881238 -0.17403 0)
(-0.0959594 -0.15953 0)
(-0.102682 -0.143694 0)
(-0.108108 -0.126729 0)
(-0.112087 -0.108903 0)
(-0.114521 -0.0905335 0)
(-0.11538 -0.0719639 0)
(-0.114711 -0.0535401 0)
(-0.112625 -0.0355822 0)
(-0.109295 -0.0183693 0)
(-0.104967 -0.00209368 0)
(-0.0997512 0.0132489 0)
(-0.0939719 0.0274166 0)
(-0.0878213 0.0403667 0)
(-0.0814365 0.052135 0)
(-0.00488602 -0.220372 0)
(-0.0143199 -0.220524 0)
(-0.0236187 -0.217418 0)
(-0.0330161 -0.212753 0)
(-0.0421754 -0.206521 0)
(-0.0510471 -0.198729 0)
(-0.0595242 -0.189404 0)
(-0.0674846 -0.178589 0)
(-0.0747918 -0.166353 0)
(-0.0813004 -0.152799 0)
(-0.0868658 -0.138074 0)
(-0.0913555 -0.122366 0)
(-0.0946634 -0.105905 0)
(-0.0967231 -0.0889558 0)
(-0.0975182 -0.0717993 0)
(-0.097086 -0.0547181 0)
(-0.0955146 -0.037977 0)
(-0.0929322 -0.0218151 0)
(-0.0894951 -0.00641136 0)
(-0.08532 0.00825817 0)
(-0.0806526 0.0219818 0)
(-0.0756445 0.0346528 0)
(-0.0704026 0.046282 0)
(-0.00409494 -0.211597 0)
(-0.0119858 -0.211632 0)
(-0.0197703 -0.208643 0)
(-0.0276416 -0.204143 0)
(-0.0352837 -0.198154 0)
(-0.0426584 -0.1907 0)
(-0.0496759 -0.181815 0)
(-0.0562362 -0.171555 0)
(-0.0622313 -0.159997 0)
(-0.0675504 -0.14725 0)
(-0.0720863 -0.133452 0)
(-0.0757431 -0.118774 0)
(-0.0784462 -0.103419 0)
(-0.080151 -0.0876097 0)
(-0.0808497 -0.0715839 0)
(-0.0805727 -0.0555785 0)
(-0.0793867 -0.0398177 0)
(-0.0773876 -0.0245027 0)
(-0.0746989 -0.00979573 0)
(-0.0714257 0.00427176 0)
(-0.0676959 0.0175994 0)
(-0.0636794 0.0300114 0)
(-0.0594508 0.041493 0)
(-0.00331566 -0.20427 0)
(-0.00973941 -0.204221 0)
(-0.0160841 -0.201334 0)
(-0.0224747 -0.196988 0)
(-0.0286643 -0.191227 0)
(-0.0346185 -0.184079 0)
(-0.0402642 -0.175586 0)
(-0.0455218 -0.165809 0)
(-0.0503082 -0.154831 0)
(-0.0545404 -0.142758 0)
(-0.0581399 -0.129722 0)
(-0.0610379 -0.115878 0)
(-0.0631826 -0.101406 0)
(-0.0645448 -0.086501 0)
(-0.0651224 -0.0713678 0)
(-0.0649406 -0.0562111 0)
(-0.0640508 -0.041226 0)
(-0.0625244 -0.0265917 0)
(-0.0604513 -0.0124635 0)
(-0.057953 0.00109167 0)
(-0.0550537 0.0141238 0)
(-0.0519089 0.0263197 0)
(-0.0485917 0.0376631 0)
(-0.00255808 -0.198305 0)
(-0.0075711 -0.1982 0)
(-0.0125312 -0.195392 0)
(-0.0174873 -0.191182 0)
(-0.0222816 -0.18562 0)
(-0.0268793 -0.178737 0)
(-0.0312235 -0.170578 0)
(-0.0352538 -0.161209 0)
(-0.0389088 -0.150712 0)
(-0.0421285 -0.13919 0)
(-0.0448569 -0.126768 0)
(-0.0470464 -0.113588 0)
(-0.0486624 -0.0998119 0)
(-0.0496873 -0.0856134 0)
(-0.0501228 -0.0711733 0)
(-0.0499903 -0.0566722 0)
(-0.0493298 -0.0422841 0)
(-0.0481985 -0.0281708 0)
(-0.0466715 -0.0144798 0)
(-0.0448075 -0.00131065 0)
(-0.0426261 0.0114712 0)
(-0.0402964 0.0234902 0)