/*--------------------------------*- C++ -*----------------------------------*\
| =========                 |                                                 |
| \\      /  F ield         | OpenFOAM: The Open Source CFD Toolbox           |
|  \\    /   O peration     | Version:  2206                                  |
|   \\  /    A nd           | Website:  www.openfoam.com                      |
|    \\/     M anipulation  |                                                 |
\*---------------------------------------------------------------------------*/
FoamFile
{
    version     2.0;
    format      ascii;
    arch        "LSB;label=32;scalar=64";
    class       volScalarField;
    location    "0.8";
    object      p_rgh;
}
// * * * * * * * * * * * * * * * * * * * * * * * * * * * * * * * * * * * * * //

dimensions      [1 -1 -2 0 0 0 0];

internalField   nonuniform List<scalar> 
2268
(
669.349
669.96
672.451
677.495
688.261
707.821
735.021
765.618
797.638
830.761
863.264
892.567
915.904
931.164
937.595
935.574
924.439
909.486
895.174
885.637
889.362
900.49
904.458
668.513
668.535
670.577
675.018
684.976
705.067
733.649
764.952
797.372
831.007
864.182
894.056
917.807
933.274
939.383
937.88
926.453
909.188
889.301
879.273
881.849
892.996
901.098
664.078
663.769
666.082
670.469
680.062
700.95
730.974
763.588
796.806
831.273
865.573
896.614
921.154
936.538
942.699
940.908
932.186
910.257
887.568
875.943
877.338
888.551
896.914
656.712
656.398
659.368
663.758
672.786
694.395
727.035
761.75
796.098
831.778
867.824
900.73
926.671
942.514
947.971
944.899
935.305
918.676
897.279
884.573
882.036
888.724
892.527
647.525
647.212
650.864
655.439
664.509
687.68
723.248
759.971
795.256
832.403
870.846
906.453
934.153
950.372
954.702
949.664
937.715
920.129
900.313
887.29
884.452
884.745
887.992
637.349
636.767
641.098
646.484
656.934
682.42
720.424
758.142
794.03
833.039
874.458
913.522
943.811
960.368
962.913
955.036
939.951
919.799
899.018
885.119
880.8
880.323
883.384
626.997
625.628
630.857
637.989
651.341
679.461
717.8
755.025
791.342
832.988
878.675
922.368
956.038
972.819
972.576
960.858
941.897
918.269
895.336
880.945
876.01
875.566
879.682
615.671
615.529
620.803
630.368
647.567
676.348
709.07
750.753
786.506
831.517
882.909
932.831
970.909
986.87
982.436
966.021
942.594
914.77
888.842
874.457
869.628
869.993
878.754
1065.41
984.523
947.896
994.855
1099.52
1175.8
1178.25
1143.88
1106.67
1035.68
928.19
782.875
650.955
602.933
606.093
645.955
731.224
806.01
898.331
1064.72
958.261
917.589
978.57
1092.48
1175.57
1200.6
1148.37
1078.77
997.045
876.442
722.017
605.436
588.752
585.294
616.771
711.272
813.105
901.243
1041.37
916.401
884.629
954.431
1083.55
1179.99
1210.99
1119.78
1012.74
951.496
809.208
654.971
573.163
559.523
575.524
600.643
680.008
791.014
913.719
998.695
872.019
818.963
903.279
1075.56
1190.09
1211.61
1063.92
952.046
899.601
734.551
539.84
513.194
531.955
555.479
580.335
655.621
798.019
973.879
971.485
849.942
797.964
893.651
1081.92
1197.25
1191
1002.68
890.202
848.698
577.318
357.978
373.813
464.176
529.412
537.457
634.358
844.845
969.345
954.324
845.416
799.758
918.862
1105.95
1190.46
1136.65
922.041
791.589
735.624
337.715
237.304
256.485
291.149
422.278
488.392
594.741
830.748
890.208
948.681
809.01
811.198
913.842
1086.27
1160.29
1051.07
812.319
678.836
580.606
221.666
233.447
255.069
267.608
298.1
461.308
561.01
688.259
893.611
937.778
820.529
892.102
814.533
1032.8
1107.88
948.757
664.586
542.02
432.903
216.667
228.056
250.332
264.561
276.437
382.759
520.29
670.008
969.794
473.512
494.051
494.349
504.961
530.565
600.961
684.076
736.087
773.452
826.525
890.181
953.372
1000.93
1015.18
1001.15
975.193
943.611
906.5
874.708
860.948
856.849
858.488
863.213
128.685
97.2895
125.655
166.593
244.094
336.858
405.369
470.805
590.616
725.263
844.639
950.029
1033.17
1059.51
1013
938.06
864.585
784.296
733.204
733.249
731.63
731.973
746.927
11.1378
6.12999
4.09519
19.0823
38.9143
74.7223
148.305
233.546
299.148
397.255
515.736
696.33
900.711
919.845
661.587
450.699
361.704
266.329
195.518
186.821
187.968
195.301
191.601
6.19186
3.67356
2.36888
3.03243
5.4691
8.63097
11.3547
17.8915
42.9429
135.744
357.839
502.365
515.606
504.342
452.042
305.848
259.362
171.475
116.086
115.63
118.913
123.99
127.177
2.89853
1.74961
0.86841
0.0741082
-0.320558
-0.38004
-0.33282
1.24722
5.08132
6.26671
6.28324
0.930311
5.62357
96.831
345.104
425.492
435.111
419.451
150.327
114.225
115.904
145.613
348.337
1.28985
0.563658
0.0023413
-0.49887
-0.687988
-0.709979
-0.816312
-0.939337
-0.981429
-1.0284
-1.22328
-1.22669
-0.562932
1.89602
113.663
387.524
411.071
416.267
382.846
111.148
113.527
238.984
508.319
0.57828
-0.114527
-0.505009
-0.867427
-0.949989
-0.879904
-0.867843
-0.964145
-0.974966
-1.02491
-1.31509
-1.35981
-1.29916
-1.03671
-0.44297
21.8421
317.419
405.955
436.781
431.621
272.698
430.957
537.451
0.236682
-0.414869
-0.7258
-1.01915
-1.04688
-0.957407
-0.894364
-0.923584
-0.994173
-1.0826
-1.28507
-1.37821
-1.35991
-1.28489
-1.12933
-0.851646
-0.595382
107.718
424.776
490.674
517.902
538.931
547.79
0.108672
-0.442249
-0.756532
-0.982699
-1.01601
-0.944455
-0.884196
-0.893346
-0.969906
-1.0898
-1.22076
-1.30591
-1.31013
-1.25348
-1.15617
-1.04717
-0.946103
-1.10232
-1.37696
163.923
232.096
115.813
64.2039
0.0884387
-0.330674
-0.667391
-0.88109
-0.923686
-0.875434
-0.833996
-0.845751
-0.908819
-1.00413
-1.10489
-1.17737
-1.1995
-1.16857
-1.11296
-1.05951
-0.978603
-0.871188
-0.875905
-1.15742
-1.29446
-0.900196
-0.35596
0.0721683
-0.1771
-0.497996
-0.72089
-0.782826
-0.761483
-0.746296
-0.77227
-0.831619
-0.908908
-0.985551
-1.04262
-1.06862
-1.05909
-1.02646
-0.997769
-0.94303
-0.87199
-0.875746
-1.03261
-1.20645
-1.34657
-1.59393
0.0127867
-0.0562204
-0.265003
-0.474889
-0.576492
-0.606012
-0.632379
-0.6816
-0.746307
-0.815272
-0.879284
-0.928482
-0.955473
-0.957191
-0.935455
-0.902421
-0.849204
-0.698969
-0.737175
-1.0114
-1.31761
-1.67921
-2.08272
-0.0461309
0.00825854
-0.0548779
-0.221988
-0.360281
-0.447023
-0.517706
-0.590291
-0.663234
-0.731913
-0.792344
-0.840208
-0.871395
-0.88417
-0.879867
-0.863788
-0.855928
-0.528396
0.143086
-1.06943
-1.58264
-2.12158
-2.56671
-0.0477141
0.0475615
0.0534693
-0.0697952
-0.213467
-0.329501
-0.425827
-0.511765
-0.589434
-0.659177
-0.719902
-0.770102
-0.808622
-0.835634
-0.854203
-0.870336
-0.899508
-0.748914
0.11255
-0.399709
-1.85595
-2.45935
-2.91717
-0.013649
0.0641199
0.0644367
-0.0273159
-0.149843
-0.263309
-0.362534
-0.449947
-0.527373
-0.5965
-0.657721
-0.710992
-0.757045
-0.797898
-0.837998
-0.886594
-0.956144
-1.07386
-0.27531
0.494598
-1.85373
-2.51423
-2.9358
0.00482173
0.0431674
0.0292431
-0.0392473
-0.134615
-0.230957
-0.320642
-0.402263
-0.475929
-0.542739
-0.603476
-0.658791
-0.710196
-0.760677
-0.815184
-0.882646
-0.975646
-1.11309
-1.22733
0.630219
0.660934
-2.38275
-2.65659
-0.00244782
0.00407684
-0.0117125
-0.0638469
-0.136673
-0.214698
-0.2917
-0.364704
-0.432608
-0.495713
-0.554631
-0.610163
-0.663875
-0.718648
-0.77906
-0.851848
-0.947918
-1.07926
-1.26349
-0.593944
0.981562
0.260153
-1.35425
-0.0242996
-0.0263869
-0.043763
-0.085619
-0.142132
-0.205137
-0.270135
-0.333991
-0.395169
-0.453429
-0.509088
-0.562789
-0.615803
-0.670335
-0.72991
-0.799329
-0.885977
-0.998359
-1.15317
-1.34283
0.502775
1.92952
1.75609
-0.0454319
-0.0491478
-0.0672975
-0.101813
-0.146768
-0.198109
-0.252678
-0.30783
-0.362014
-0.414681
-0.465862
-0.515948
-0.565781
-0.616796
-0.671242
-0.732253
-0.803945
-0.890592
-1.00081
-1.14072
-1.15934
-1.10522
0.247426
-0.0632356
-0.0671416
-0.0843324
-0.11301
-0.149485
-0.191677
-0.237436
-0.284684
-0.332022
-0.37876
-0.424693
-0.469934
-0.514906
-0.56036
-0.607446
-0.657763
-0.713083
-0.774559
-0.842684
-0.921487
-1.00139
-1.05909
-0.982565
-0.0773564
-0.080986
-0.0962665
-0.120155
-0.150086
-0.184953
-0.22331
-0.263539
-0.304422
-0.34523
-0.385586
-0.425363
-0.464632
-0.503625
-0.542702
-0.582311
-0.622739
-0.663623
-0.702618
-0.737219
-0.763823
-0.77015
-0.739925
-0.0877358
-0.0909142
-0.104117
-0.124013
-0.14871
-0.177607
-0.20971
-0.243758
-0.27871
-0.313841
-0.348666
-0.382882
-0.416302
-0.448806
-0.480281
-0.510531
-0.539091
-0.564992
-0.586027
-0.598228
-0.597979
-0.579134
-0.537576
-0.0947488
-0.0974221
-0.108664
-0.125207
-0.145623
-0.169586
-0.196386
-0.225027
-0.254628
-0.284495
-0.314089
-0.342999
-0.370881
-0.397408
-0.422214
-0.444819
-0.464505
-0.480186
-0.49023
-0.491978
-0.482808
-0.459497
-0.418309
-0.0988662
-0.101059
-0.110536
-0.124265
-0.141138
-0.16098
-0.183271
-0.207212
-0.232059
-0.257167
-0.281988
-0.306056
-0.328943
-0.350223
-0.369426
-0.38598
-0.399142
-0.407935
-0.411107
-0.406974
-0.393714
-0.369261
-0.332302
-0.100551
-0.102324
-0.110257
-0.121627
-0.135545
-0.151931
-0.170391
-0.190275
-0.210951
-0.231839
-0.252413
-0.272195
-0.290726
-0.307547
-0.322166
-0.334019
-0.342434
-0.3466
-0.345568
-0.338232
-0.323532
-0.300541
-0.269327
-0.100241
-0.101661
-0.10827
-0.117666
-0.129109
-0.14259
-0.157799
-0.174203
-0.191263
-0.208468
-0.225337
-0.241406
-0.256226
-0.269347
-0.280299
-0.288575
-0.293607
-0.294766
-0.291379
-0.28276
-0.268371
-0.247873
-0.22155
-0.0983202
-0.0994531
-0.104939
-0.112685
-0.122056
-0.133096
-0.145555
-0.158991
-0.172946
-0.186978
-0.200661
-0.213568
-0.22528
-0.235382
-0.243453
-0.249059
-0.251744
-0.251041
-0.246501
-0.23772
-0.224447
-0.206554
-0.18412
-0.09511
-0.096015
-0.100553
-0.106918
-0.114561
-0.123555
-0.133699
-0.144621
-0.155935
-0.167265
-0.17824
-0.188484
-0.197623
-0.20529
-0.211121
-0.214757
-0.215845
-0.214048
-0.209077
-0.200714
-0.188902
-0.173774
-0.155977
-0.090878
-0.0916054
-0.0953468
-0.100551
-0.106756
-0.114041
-0.122247
-0.131057
-0.140144
-0.149196
-0.157896
-0.16592
-0.172946
-0.17866
-0.182758
-0.18495
-0.184966
-0.182571
-0.177583
-0.169902
-0.159557
-0.146709
-0.131755
-0.0858423
-0.0864372
-0.0895024
-0.0937347
-0.0987425
-0.104604
-0.111197
-0.118244
-0.125475
-0.132627
-0.139436
-0.145627
-0.150931
-0.155087
-0.157849
-0.158986
-0.158297
-0.155619
-0.150849
-0.143952
-0.134994
-0.12414
-0.111708
-0.0801722
-0.0806804
-0.0831646
-0.086593
-0.0906002
-0.0952815
-0.100536
-0.106124
-0.111819
-0.117405
-0.122659
-0.127354
-0.131269
-0.134193
-0.135929
-0.136301
-0.13516
-0.132399
-0.127965
-0.121859
-0.114167
-0.105042
-0.0947496
-0.0740055
-0.0744634
-0.0764503
-0.0792186
-0.0823924
-0.0861
-0.0902505
-0.0946349
-0.0990708
-0.103376
-0.107365
-0.110852
-0.113659
-0.115619
-0.116578
-0.116401
-0.114984
-0.112261
-0.108208
-0.102851
-0.0962782
-0.0886294
-0.0801275
-0.0674665
-0.0678842
-0.0694596
-0.0716842
-0.0741689
-0.0770769
-0.0803189
-0.0837174
-0.0871267
-0.090393
-0.0933613
-0.0958832
-0.0978177
-0.0990334
-0.0994114
-0.0988517
-0.0972829
-0.0946664
-0.0910007
-0.0863225
-0.0807169
-0.0743082
-0.0672809
-0.060662
-0.0610261
-0.0622746
-0.0640509
-0.0659703
-0.0682242
-0.0707212
-0.0733159
-0.0758922
-0.0783196
-0.0804721
-0.0822322
-0.0834889
-0.0841399
-0.0840939
-0.083278
-0.0816447
-0.0791754
-0.0758814
-0.0718044
-0.0670236
-0.0616472
-0.0558279
-0.053674
-0.0539642
-0.054959
-0.0563703
-0.0578294
-0.0595505
-0.0614389
-0.0633813
-0.0652849
-0.0670398
-0.0685467
-0.0697137
-0.0704535
-0.0706862
-0.0703421
-0.069369
-0.0677373
-0.0654418
-0.0625012
-0.0589581
-0.0548848
-0.0503749
-0.0455567
-0.0465672
-0.0467643
-0.0475654
-0.0486847
-0.0497713
-0.0510611
-0.0524557
-0.0538728
-0.0552377
-0.0564599
-0.0574642
-0.0581788
-0.0585348
-0.0584696
-0.0579312
-0.0568833
-0.0553098
-0.0532143
-0.0506185
-0.0475642
-0.0441161
-0.0403557
-0.0363927
-0.0394005
-0.0394792
-0.0401418
-0.0410263
-0.041813
-0.0427573
-0.0437554
-0.0447551
-0.0456952
-0.046504
-0.0471268
-0.0475072
-0.0475913
-0.0473312
-0.0466891
-0.0456417
-0.0441821
-0.0423187
-0.040074
-0.0374871
-0.0346155
-0.0315298
-0.0283249
-0.0322228
-0.0321548
-0.0327286
-0.0334147
-0.0339617
-0.0346335
-0.0353183
-0.0359932
-0.0366062
-0.0371039
-0.0374482
-0.0375955
-0.0375049
-0.0371417
-0.0364793
-0.0355037
-0.0342138
-0.0326197
-0.0307432
-0.0286193
-0.026298
-0.0238389
-0.0213234
-0.0250527
-0.0248248
-0.0253485
-0.0258569
-0.0262158
-0.0266757
-0.0271174
-0.0275458
-0.0279143
-0.0281885
-0.028343
-0.0283451
-0.0281663
-0.0277819
-0.0271741
-0.0263351
-0.0252666
-0.023979
-0.0224913
-0.020833
-0.0190443
-0.0171733
-0.0152873
-0.017915
-0.0175496
-0.0180219
-0.0183621
-0.018577
-0.018874
-0.0191302
-0.0193774
-0.0195717
-0.0196971
-0.0197374
-0.0196698
-0.0194757
-0.0191384
-0.018647
-0.0179981
-0.0171947
-0.0162453
-0.0151641
-0.0139727
-0.0127001
-0.0113828
-0.0100727
-0.0107131
-0.010305
-0.0107416
-0.0109199
-0.0110253
-0.0111898
-0.0113077
-0.0114262
-0.0115055
-0.0115452
-0.011534
-0.0114583
-0.0113077
-0.0110728
-0.0107486
-0.0103342
-0.0098318
-0.00924583
-0.0085842
-0.00786046
-0.00709219
-0.00630262
-0.0055255
-0.00390466
-0.00343566
-0.00359527
-0.00363003
-0.00366408
-0.00372277
-0.00374054
-0.00376761
-0.00377032
-0.00376129
-0.00373285
-0.00368198
-0.0036062
-0.00350302
-0.00337183
-0.00321297
-0.003027
-0.00281515
-0.00258065
-0.00232937
-0.00206798
-0.00180591
-0.00155835
858.368
858.48
866.591
884.055
700.02
655.793
603.743
623.8
144.474
115.363
98.6518
107.389
92.2401
76.1975
75.4627
78.3872
257.234
78.2955
69.7188
71.9553
494.989
400.636
91.7209
81.6642
535.227
534.874
525.067
316.356
552.287
553.577
546.365
528.734
191.763
462.182
547.313
521.26
-0.766244
-1.40943
13.231
312.942
-1.98133
-2.31224
-3.17442
-5.04089
-2.37746
-2.48039
-2.64977
-3.11754
-2.18058
-1.48739
-2.02646
-1.80442
-2.6792
-0.792701
-0.0517469
-1.08687
-2.95232
-1.72874
0.180788
0.567299
-2.66253
-2.58473
-0.984005
0.830883
-2.05106
-1.74093
-1.38614
0.931426
1.71563
1.76396
1.89281
2.09353
2.43366
2.5087
2.61668
2.70982
-0.885609
-0.776693
-0.738144
-0.715365
-0.67921
-0.624739
-0.559322
-0.484886
-0.48232
-0.438117
-0.389904
-0.339174
-0.373175
-0.339499
-0.304033
-0.267333
-0.295768
-0.269761
-0.242914
-0.215558
-0.240409
-0.220245
-0.199578
-0.178667
-0.198355
-0.182438
-0.166239
-0.149935
-0.165704
-0.153101
-0.140273
-0.127365
-0.140327
-0.129977
-0.119569
-0.109148
-0.119207
-0.110854
-0.102429
-0.0939953
-0.101526
-0.0947697
-0.087953
-0.0811289
-0.0864546
-0.0809832
-0.0754754
-0.0699684
-0.0733767
-0.0689333
-0.0644743
-0.0600307
-0.0617692
-0.0581582
-0.0545438
-0.0509535
-0.0513227
-0.0483906
-0.0454555
-0.0425429
-0.0418751
-0.0394929
-0.0371162
-0.0347595
-0.0334081
-0.0314901
-0.0295835
-0.0276968
-0.0259509
-0.0244351
-0.0229337
-0.0214541
-0.0194922
-0.0183284
-0.0171786
-0.0160457
-0.0139369
-0.013086
-0.0122563
-0.0114574
-0.00914967
-0.00857392
-0.00802115
-0.00749903
-0.00498431
-0.00464947
-0.00433766
-0.00405794
-0.00139501
-0.00129933
-0.00121627
-0.00114913
913.027
906.847
899.39
712.789
912.001
1023.3
749.392
345.908
327.042
308.449
204.074
214.626
238.348
260.718
280.033
313.75
512.113
773.111
1137.82
744.112
874.25
692.663
676.996
954.858
1003.19
488.353
97.8454
115.655
192.009
173.421
177.001
216.402
264.904
300.268
389.954
723.368
900.146
1115.29
227.173
547.627
859.8
990.456
1092.86
1007.52
252.734
35.2383
22.9359
91.183
208.358
267.648
417.919
497.825
514.735
541.74
666.808
869.34
1039.97
82.3727
185.201
698.589
1032.81
1177.83
987.839
135.984
13.5037
5.49815
2.16252
131.727
408.126
479.505
527.604
590.101
666.931
735.158
828.717
961.494
71.2967
64.9675
193.196
863.506
1212.33
1055.7
105.566
4.34969
-0.426263
-3.39974
-6.51887
9.30638
40.3168
37.2445
34.5915
49.9027
113.742
365.332
932.027
68.0944
60.2125
59.6171
461.091
1219.57
1151.4
114.443
-0.400407
-4.08141
-4.29937
-6.55613
-5.86421
-5.47051
-5.55263
-5.10082
-2.96661
1.6421
37.0535
943.624
67.6329
60.7584
61.1064
194.083
1036.92
1217.88
190.435
-0.408957
-7.08255
-6.4043
-4.68635
-5.2645
-5.80609
-5.79515
-5.69077
-4.86871
-3.477
19.8866
215.441
434.053
61.7757
65.147
69.9551
519.256
1212.65
831.461
36.5166
-6.08689
-7.21332
-5.10705
-3.09909
-4.48125
-5.6459
-5.75809
-5.20344
-4.25101
-2.23837
2.38272
488.487
162.695
66.1113
66.2931
64.1116
408.583
961.501
130.343
1.1839
-5.47589
-3.77452
-1.8364
-3.82857
-3.4338
-3.85501
-4.97321
-4.08358
-2.2967
0.337634
472.971
178.488
68.94
66.978
65.9972
68.0949
515.364
806.765
93.5994
1.21061
2.03383
13.569
135.513
82.6656
3.76947
-4.22979
-3.276
-0.713055
17.5169
75.7511
523.874
557.162
518.492
388.91
484.351
1075.71
1226.54
673.702
21.117
15.2958
394.47
511.203
367.708
11.8978
-2.75573
-2.47309
-1.47157
45.8339
-3.28536
2.06354
376.384
1141.67
1265.43
1276.43
1285.05
1289.16
1282.04
630.766
762.72
810.384
558.501
25.1666
-1.30263
-1.73269
-1.84264
-2.01934
131.726
-1.1133
0.390336
0.864282
1.64118
267.826
768.373
1121.22
1296.98
1296.19
1283.01
873.122
175.676
0.264738
4.20261
-0.924528
-1.30654
-1.32018
-1.45378
146.808
-0.714691
0.323598
0.798289
1.00471
0.875155
0.925053
67.1342
215.671
323.607
398.393
92.1952
0.0765835
-0.169741
-0.199822
-0.61103
-0.887713
-0.898909
-0.98919
156.397
1.59574
1.11357
0.768111
0.936516
0.875784
0.742369
0.484118
0.346751
0.400984
0.499638
-0.013207
-0.115585
-0.192241
-0.355259
-0.502984
-0.622586
-0.604104
-0.713438
165.791
1.60748
2.34035
0.497185
0.712774
0.750387
0.677302
0.542258
0.439714
0.315351
0.13855
-0.092306
-0.109879
-0.168831
-0.26544
-0.35762
-0.442366
-0.242174
-0.51509
175.102
1.85797
-0.185142
0.516812
0.518155
0.580547
0.537938
0.439416
0.364244
0.282341
0.165688
0.0104704
-0.0671067
-0.132029
-0.203045
-0.2649
-0.321867
-0.0972116
-0.384384
184.274
2.16885
-0.289119
0.13138
0.372889
0.432981
0.418509
0.363635
0.301372
0.227931
0.137173
0.0353987
-0.0404805
-0.101147
-0.156268
-0.198265
-0.235519
0.00355803
-0.278016
193.274
-0.524853
-0.312133
0.0555658
0.248234
0.311397
0.312489
0.280726
0.234352
0.176824
0.10838
0.0349054
-0.0290432
-0.0805259
-0.121413
-0.147874
-0.172154
-0.0199357
-0.198321
201.984
-0.522683
-0.231481
0.0174489
0.158829
0.214879
0.225484
0.209532
0.177005
0.132863
0.0801926
0.0241416
-0.0271468
-0.0679713
-0.0967592
-0.111246
-0.125243
-0.106727
-0.127666
210.258
-0.352309
-0.16564
-0.00813909
0.0914397
0.140056
0.155449
0.148826
0.126547
0.093123
0.0520281
0.00774132
-0.0332552
-0.06427
-0.0836822
-0.0875362
-0.0932924
-0.0660785
-0.0597158
216.905
-0.253015
-0.13401
-0.0300161
0.0435191
0.0848599
0.101146
0.0992
0.0834926
0.0574678
0.0238976
-0.0131614
-0.0470136
-0.0701546
-0.0816694
-0.0786675
-0.0802457
-0.045228
-0.00274413
165.207
-0.204685
-0.119725
-0.044527
0.0114977
0.0454037
0.0602291
0.0599973
0.0477724
0.0258216
-0.00438108
-0.0388458
-0.0693136
-0.0872654
-0.0932402
-0.0884201
-0.090191
-0.0652603
-0.0133688
3.9345
-0.169366
-0.106926
-0.0516137
-0.00908924
0.0179247
0.0302965
0.0301304
0.0191235
-0.00196945
-0.0334996
-0.0705827
-0.101581
-0.116963
-0.120241
-0.120435
-0.12922
-0.106634
0.22652
-0.172876
-0.143511
-0.0962048
-0.0542058
-0.0214159
-6.90024e-05
0.0097665
0.00884049
-0.00255389
-0.0258296
-0.0637147
-0.108268
-0.142246
-0.15638
-0.159991
-0.17007
-0.205554
0.175542
3.32789
-0.153676
-0.122664
-0.086069
-0.053531
-0.0278435
-0.0108317
-0.00298661
-0.00468291
-0.0171411
-0.04495
-0.0930874
-0.147034
-0.183173
-0.196017
-0.200097
-0.225811
-0.213735
0.701438
3.55343
-0.20159
-0.105804
-0.0769298
-0.0511527
-0.0305247
-0.0165043
-0.0096545
-0.0113158
-0.0239878
-0.0561351
-0.113613
-0.173173
-0.20795
-0.215133
-0.218804
-0.191991
-0.238636
0.576408
3.4045
-0.27159
-0.0918128
-0.0686715
-0.0478964
-0.030958
-0.0189124
-0.0121296
-0.0125216
-0.0150552
-0.0532889
-0.113049
-0.168954
-0.198294
-0.199405
-0.17532
-0.158976
-0.301649
-0.134658
0.745317
-0.229124
-0.0799796
-0.0613006
-0.0444228
-0.0303567
-0.0197403
-0.0126168
-0.0106987
0.00402226
-0.0271714
-0.088147
-0.132737
-0.155346
-0.152324
-0.130982
-0.145703
-0.226207
-0.237393
-0.340566
-0.187844
-0.0697944
-0.0547103
-0.0410129
-0.0293703
-0.0200847
-0.0129435
-0.00821885
0.0120657
-0.000388608
-0.0494089
-0.0764482
-0.0919195
-0.0989131
-0.0970693
-0.103491
-0.119468
-0.0899382
-0.134799
-0.047318
-0.0608281
-0.0486824
-0.0376299
-0.0281191
-0.0202746
-0.0138236
-0.00911548
0.01381
0.0120698
-0.00835552
-0.0354018
-0.0574808
-0.074643
-0.0834721
-0.057498
-0.0353483
-0.0315671
-0.026185
0.0331588
-0.0526737
-0.0429222
-0.0340551
-0.0263962
-0.0200319
-0.0147869
-0.0107625
-0.0044905
0.014079
0.00803218
-0.0129759
-0.0499285
-0.0718605
-0.0746514
-0.0114086
0.00931841
-0.00391526
0.0118336
0.0600461
-0.0450227
-0.0371869
-0.0300892
-0.0239834
-0.0189581
-0.0149617
-0.0120892
-0.0106579
-0.00231174
0.00736273
-0.00433837
-0.0298085
-0.0577808
-0.0349919
0.0108959
0.0322151
0.0135599
0.0279281
0.0626873
-0.0377406
-0.0314259
-0.0257487
-0.0209135
-0.016986
-0.0139733
-0.0119255
-0.0110939
-0.0119195
-0.00886031
0.00108876
-0.0157964
-0.0393653
-0.00574391
0.0339511
0.0522059
0.0180638
0.0336564
0.056114
-0.0308795
-0.025806
-0.0212993
-0.0175111
-0.0144693
-0.0121883
-0.0105884
-0.00978014
-0.0101046
-0.0124826
-0.012761
-0.018991
-0.023874
-0.00351804
0.0523138
0.0278089
0.0201359
0.0335795
0.0460036
-0.0245968
-0.0205862
-0.0170999
-0.014215
-0.0119341
-0.0102695
-0.00902646
-0.00812637
-0.00806908
-0.00993956
-0.0123915
-0.014405
-0.0146681
0.00508619
0.0634656
0.0242788
0.0217765
0.0289725
0.0343884
-0.0190362
-0.015973
-0.0134078
-0.011349
-0.00977222
-0.00871842
-0.00799426
-0.00723267
-0.00717702
-0.00909754
-0.0103647
-0.0112154
-0.00783566
0.0276324
0.0264101
0.0154353
0.0172133
0.020152
0.0216286
-0.0142426
-0.0120361
-0.0102991
-0.00901823
-0.00810993
-0.00765191
-0.0075607
-0.00719603
-0.00769057
-0.0101642
-0.0106765
-0.0123891
0.00529206
0.0273201
0.00825798
0.00677802
0.0073379
0.00781178
0.00765329
-0.0101685
-0.00872516
-0.00773806
-0.00719868
-0.00697232
-0.00712078
-0.00769945
-0.00797757
-0.00945118
-0.0124907
-0.013282
-0.0166602
0.0125644
0.0171817
-0.00388112
-0.00473828
-0.00558435
-0.00651969
-0.00719806
-0.00669037
-0.00593553
-0.00565498
-0.00582928
-0.00634616
-0.00724152
-0.00860292
-0.00985342
-0.0122822
-0.0156967
-0.0172057
-0.0184403
0.00826953
-0.0165917
-0.0166131
-0.0176959
-0.0196614
-0.0216646
-0.0227119
-0.00367801
-0.00354908
-0.0039529
-0.00486102
-0.00622621
-0.00807384
-0.0104052
-0.0129048
-0.0163511
-0.0200025
-0.0224843
-0.0259305
0.0062733
-0.0239743
-0.0279093
-0.0314284
-0.0351002
-0.038317
-0.0398958
-0.00111224
-0.00153604
-0.00265526
-0.00436302
-0.00672365
-0.00963035
-0.0130846
-0.0168765
-0.0217869
-0.0259435
-0.0299231
-0.0338289
-0.0245659
-0.0343325
-0.0403463
-0.0473232
-0.0535074
-0.0585174
-0.0606195
)
;

boundaryField
{
    leftWall
    {
        type            fixedFluxPressure;
        gradient        uniform 0;
        value           nonuniform List<scalar> 
50
(
669.349
668.513
664.078
656.712
647.525
637.349
626.997
615.671
473.512
128.685
11.1378
6.19186
2.89853
1.28985
0.57828
0.236682
0.108672
0.0884387
0.0721683
0.0127867
-0.0461309
-0.0477141
-0.013649
0.00482173
-0.00244782
-0.0242996
-0.0454319
-0.0632356
-0.0773564
-0.0877358
-0.0947488
-0.0988662
-0.100551
-0.100241
-0.0983202
-0.09511
-0.090878
-0.0858423
-0.0801722
-0.0740055
-0.0674665
-0.060662
-0.053674
-0.0465672
-0.0394005
-0.0322228
-0.0250527
-0.017915
-0.0107131
-0.00390466
)
;
    }
    rightWall
    {
        type            fixedFluxPressure;
        gradient        uniform 0;
        value           nonuniform List<scalar> 
50
(
898.331
901.243
913.719
973.879
969.345
890.208
893.611
969.794
1137.82
1115.29
1039.97
961.494
932.027
943.624
215.441
2.38272
0.337634
17.5169
45.8339
131.726
146.808
156.397
165.791
175.102
184.274
193.274
201.984
210.258
216.905
165.207
3.9345
-0.172876
-0.153676
-0.20159
-0.27159
-0.229124
-0.187844
-0.047318
0.0331588
0.0600461
0.0626873
0.056114
0.0460036
0.0343884
0.0216286
0.00765329
-0.00719806
-0.0227119
-0.0398958
-0.0606195
)
;
    }
    lowerWall
    {
        type            fixedFluxPressure;
        gradient        uniform 0;
        value           nonuniform List<scalar> 
62
(
669.349
669.96
672.451
677.495
688.261
707.821
735.021
765.618
797.638
830.761
863.264
892.567
915.904
931.164
937.595
935.574
924.439
909.486
895.174
885.637
889.362
900.49
904.458
904.458
901.098
896.914
892.527
887.992
883.384
879.682
878.754
858.368
858.48
866.591
884.055
1065.41
1064.72
1041.37
998.695
971.485
954.324
948.681
937.778
1065.41
984.523
947.896
994.855
1099.52
1175.8
1178.25
1143.88
1106.67
1035.68
928.19
782.875
650.955
602.933
606.093
645.955
731.224
806.01
898.331
)
;
    }
    atmosphere
    {
        type            totalPressure;
        rho             rho;
        psi             none;
        gamma           1;
        p0              uniform 0;
        value           nonuniform List<scalar> 
46
(
0
0
0
0
0
0
0
0
0
0
0
0
0
0
0
0
0
0
0
0
0
0
0
0
0
0
0
-6.19254e-05
-0.000755658
-0.00234111
-0.00443594
-0.00738563
-0.0107665
-0.0148446
-0.0191696
-0.0254943
-0.0296478
-0.0351132
-0.039062
-0.0291145
-0.0383897
-0.0479203
-0.0571657
-0.0650988
-0.071658
-0.0736872
)
;
    }
    defaultFaces
    {
        type            empty;
    }
}


// ************************************************************************* //
