/*--------------------------------*- C++ -*----------------------------------*\
| =========                 |                                                 |
| \\      /  F ield         | OpenFOAM: The Open Source CFD Toolbox           |
|  \\    /   O peration     | Version:  2206                                  |
|   \\  /    A nd           | Website:  www.openfoam.com                      |
|    \\/     M anipulation  |                                                 |
\*---------------------------------------------------------------------------*/
FoamFile
{
    version     2.0;
    format      ascii;
    arch        "LSB;label=32;scalar=64";
    class       volScalarField;
    location    "0.825";
    object      alpha.water;
}
// * * * * * * * * * * * * * * * * * * * * * * * * * * * * * * * * * * * * * //

dimensions      [0 0 0 0 0 0 0];

internalField   nonuniform List<scalar> 
2268
(
1
1
1
1
1
1
1
1
1
1
1
1
1
1
1
1
1
1
1
1
1
1
1
1
1
1
1
1
1
1
1
1
1
1
1
1
1
1
1
1
1
1
1
1
1
1
1
1
1
1
1
1
1
1
1
1
1
1
1
1
1
1
1
1
1
1
1
1
0.999999
1
1
1
1
1
1
1
1
1
1
1
1
1
1
1
1
1
1
1
1
1
1
1
1
1
1
1
1
1
1
1
1
1
1
1
1
1
1
1
1
1
1
1
1
1
1
1
1
1
1
1
1
1
1
1
1
1
1
1
1
1
1
1
1
1
1
1
1
1
1
1
1
1
1
1
1
1
1
1
1
1
1
1
1
1
1
1
1
1
1
1
1
1
1
1
1
0.999998
0.999997
0.999997
0.999998
0.999999
1
1
1
1
1
1
1
1
1
1
1
1
1
1
0.290888
0.322512
0.35094
0.351971
0.340151
0.403197
0.522075
0.727648
0.897882
0.832403
0.798815
0.812476
0.896551
0.919923
0.949907
0.949913
0.949906
0.949908
0.949908
0.292765
0.331221
0.325809
0.103404
0.094052
0.100572
0.133594
0.649614
0.939015
0.947727
0.947625
0.949334
0.949526
0.949876
0.949913
0.949906
0.949848
0.949836
0.949908
0.310709
0.320682
0.101907
0.0823742
0.0841763
0.236594
0.258023
0.275168
0.517847
0.909183
0.948915
0.94925
0.949368
0.949468
0.949876
0.918418
0.904632
0.936007
0.949836
0.306276
0.296983
0.0749723
0.079341
0.156933
0.607558
0.668447
0.731415
0.855032
0.887398
0.945557
0.948915
0.942548
0.948908
0.925832
0.753594
0.7007
0.73056
0.947912
0.304218
0.164287
0.0719377
0.0749723
0.64193
0.637433
0.513909
0.507365
0.824226
0.944
0.945251
0.914349
0.913555
0.94669
0.889068
0.697533
0.697664
0.77968
0.948536
0.154309
0.0719377
0.0703195
0.270423
0.763343
0.483728
0.265835
0.265835
0.371301
0.929994
0.944
0.942109
0.861696
0.720529
0.708257
0.697533
0.697533
0.950337
0.950358
0.0734697
0.0702672
0.0711887
0.847276
0.80656
0.360232
0.332564
0.271801
0.276082
0.724143
0.942122
0.940395
0.927249
0.852481
0.697948
0.697533
0.698594
0.95034
0.950417
0.0773634
0.0734697
0.18027
0.883986
0.837155
0.809427
0.858906
0.570709
0.405524
0.439905
0.88279
0.926635
0.927026
0.926644
0.774904
0.699656
0.851672
0.95017
0.950411
1
1
1
1
0.99996
0.999939
0.999937
0.999946
0.99996
0.999976
0.999988
0.999995
0.999998
0.999999
1
1
1
1
1
1
1
1
1
0.991578
0.980452
0.946675
0.894629
0.830002
0.80363
0.824892
0.842703
0.828027
0.812528
0.813531
0.823853
0.834303
0.837896
0.836153
0.83232
0.828127
0.823534
0.818859
0.816398
0.818527
0.815212
0.825213
0.137748
0.136264
0.140871
0.151206
0.160113
0.168212
0.176146
0.176188
0.174148
0.166391
0.152734
0.139403
0.123549
0.10654
0.0911733
0.0800685
0.0712925
0.0617168
0.0547402
0.0600854
0.0790412
0.0358089
0.00445343
5.10393e-08
5.02176e-08
9.2092e-08
2.66524e-09
2.66524e-09
2.65278e-09
7.16294e-09
9.77358e-08
1.38284e-06
3.26613e-06
3.59498e-06
5.95644e-06
2.74432e-06
2.54626e-06
3.60683e-06
1.1635e-05
2.88864e-05
9.67704e-05
0.000757166
0.00150268
0.000699922
0.000446404
0.00028446
5.10393e-08
1.56275e-06
7.19446e-06
1.41951e-08
2.66529e-09
2.10763e-08
2.80021e-06
4.72108e-06
3.65015e-06
1.43071e-07
1.40756e-07
9.50585e-08
1.75512e-07
3.8584e-07
1.13377e-06
3.69264e-06
1.1672e-05
9.03182e-05
0.00050554
0.000560673
0.000192773
0.000124349
7.27201e-05
5.13833e-08
9.88164e-08
4.05106e-08
1.17882e-09
6.11429e-09
2.59623e-07
2.32401e-06
2.41544e-06
1.12582e-07
9.24381e-09
1.19921e-08
2.30203e-08
4.44142e-08
1.41538e-07
4.1259e-07
1.19895e-06
4.26859e-06
4.49952e-05
0.000255076
0.00021463
5.59561e-05
3.5501e-05
1.92071e-05
4.24815e-08
1.15114e-09
5.34702e-11
6.26654e-11
3.40429e-09
8.48352e-08
1.388e-07
1.56045e-08
1.05572e-09
1.73164e-09
5.00622e-09
1.54557e-08
2.30204e-08
4.44129e-08
1.60537e-07
4.7731e-07
1.98115e-06
4.99857e-05
0.000132129
3.41093e-05
1.31591e-05
1.01658e-05
6.12307e-06
7.96763e-08
1.43773e-08
3.57261e-12
7.61302e-12
6.15472e-10
1.84969e-09
3.05567e-10
2.28687e-10
2.17446e-10
1.12395e-09
2.09306e-09
4.21201e-09
1.25884e-08
6.18286e-08
3.64273e-07
1.84632e-05
4.619e-05
5.83706e-05
3.0842e-05
2.53814e-06
2.50819e-06
2.06745e-06
1.44969e-06
8.284e-08
3.00398e-08
2.7872e-13
1.9238e-12
2.92449e-11
1.40797e-11
2.10939e-11
3.28774e-11
1.29615e-10
3.24564e-10
9.08687e-10
4.03802e-09
2.69808e-08
1.9701e-07
1.51809e-05
4.37634e-05
4.59908e-05
2.20703e-05
7.13192e-07
5.79356e-07
5.60861e-07
4.45862e-07
3.76405e-07
6.64878e-08
2.23231e-08
1.26768e-14
4.50263e-14
6.64145e-13
8.36944e-13
-2.1741e-18
4.24863e-12
4.7739e-11
1.25113e-10
6.10132e-10
4.07013e-09
3.38642e-08
1.06801e-06
2.70073e-05
4.151e-05
2.2123e-05
3.93303e-07
3.18068e-07
2.87067e-07
2.26491e-07
1.60982e-07
1.81789e-07
7.975e-09
5.96085e-09
0
-1.32188e-12
-3.89177e-12
-5.64397e-12
-4.63855e-12
2.89261e-13
1.20571e-11
5.35495e-11
3.87643e-10
3.01431e-09
2.23571e-08
3.07074e-07
1.88952e-05
3.86745e-05
5.50179e-06
2.86697e-07
2.7258e-07
2.26567e-07
1.61216e-07
9.60027e-08
5.57416e-08
1.39627e-10
1.41953e-10
-3.44398e-14
-1.87904e-12
-6.63633e-12
-1.45287e-11
-2.05864e-11
-1.09752e-11
3.43094e-12
4.18668e-11
2.0403e-10
1.29067e-09
1.00452e-08
1.02543e-07
8.02249e-06
1.81099e-05
3.91968e-06
2.80717e-07
2.80721e-07
2.7258e-07
2.99016e-07
3.1556e-07
4.67431e-08
6.64964e-11
2.52129e-11
-7.61019e-14
-1.76805e-12
-6.2587e-12
-1.45738e-11
-2.28693e-11
-1.90304e-11
7.92644e-13
3.26146e-11
9.88197e-11
4.48891e-10
3.66195e-09
3.07822e-07
7.73729e-07
2.16288e-07
8.32308e-07
3.4626e-07
6.94529e-07
1.32735e-06
1.38639e-06
1.33509e-06
5.19454e-07
3.06543e-11
7.50134e-12
-1.23824e-13
-1.40653e-12
-4.92096e-12
-1.17145e-11
-1.94717e-11
-1.98378e-11
-1.35338e-12
1.60717e-11
8.61402e-11
2.06077e-10
1.15036e-08
8.14111e-08
1.34613e-08
1.7822e-08
3.68142e-08
6.50288e-07
1.39398e-06
1.40239e-06
1.39747e-06
1.38639e-06
1.36162e-06
9.47744e-12
1.50626e-12
-1.28659e-13
-1.01847e-12
-3.51436e-12
-8.4244e-12
-1.44776e-11
-1.65667e-11
-7.15332e-12
4.60229e-12
6.4384e-11
5.4748e-10
3.53238e-09
1.54476e-09
2.27357e-09
3.64758e-09
1.06327e-08
2.68349e-07
1.33275e-06
1.40019e-06
1.40092e-06
1.39747e-06
6.20063e-07
2.21145e-12
2.42542e-13
-1.06931e-13
-6.92516e-13
-2.3515e-12
-5.62525e-12
-9.82957e-12
-1.2008e-11
-7.48728e-12
1.09141e-12
3.66245e-11
3.40796e-10
8.88144e-10
5.53302e-10
7.4138e-10
1.30663e-09
3.77474e-09
1.7852e-08
4.69894e-07
1.20424e-06
1.13521e-06
2.80025e-07
5.9169e-09
4.87497e-13
3.32519e-14
-7.80293e-14
-4.47764e-13
-1.49336e-12
-3.54465e-12
-6.22758e-12
-7.88774e-12
-5.78655e-12
2.22274e-13
1.69794e-11
1.54813e-10
3.58771e-10
3.80889e-10
3.68668e-10
6.78272e-10
1.3726e-09
1.04727e-08
3.3572e-08
9.97181e-08
9.07404e-08
3.78714e-09
1.38531e-09
1.08871e-13
1.41876e-15
-5.21022e-14
-2.76603e-13
-9.05478e-13
-2.12547e-12
-3.72766e-12
-4.81161e-12
-3.87832e-12
0
6.59422e-12
5.34418e-11
1.29011e-10
1.8685e-10
2.47861e-10
5.52633e-10
1.5391e-09
3.29305e-09
1.99396e-09
2.49762e-09
2.05835e-09
9.9539e-10
7.77423e-10
2.48215e-14
0
-3.24964e-14
-1.63609e-13
-5.25927e-13
-1.21898e-12
-2.12505e-12
-2.76663e-12
-2.37322e-12
-2.72087e-13
2.1548e-12
1.57182e-11
3.8391e-11
6.93387e-11
1.56422e-10
4.88118e-10
1.1709e-09
1.40283e-09
1.00454e-09
8.56446e-10
7.02772e-10
6.38672e-10
6.96484e-10
5.64366e-15
-2.90709e-16
-1.91509e-14
-9.28219e-14
-2.93347e-13
-6.71138e-13
-1.16041e-12
-1.51434e-12
-1.35383e-12
-3.89199e-13
6.04704e-13
4.17855e-12
1.10516e-11
2.68697e-11
9.71296e-11
3.5326e-10
7.47506e-10
9.00389e-10
8.21647e-10
6.05408e-10
5.14146e-10
5.64045e-10
6.0004e-10
1.28603e-15
-5.52637e-16
-1.07406e-14
-5.06029e-14
-1.57481e-13
-3.55818e-13
-6.09672e-13
-7.94698e-13
-7.30112e-13
-2.95374e-13
1.40873e-13
1.09741e-12
3.55712e-12
1.24961e-11
5.80916e-11
2.04925e-10
4.023e-10
5.04609e-10
5.21031e-10
4.4858e-10
4.11666e-10
4.28316e-10
4.1306e-10
2.89187e-16
-4.44438e-16
-5.76106e-15
-2.65604e-14
-8.15479e-14
-1.82146e-13
-3.09313e-13
-4.01997e-13
-3.76075e-13
-1.81066e-13
2.87635e-14
3.07048e-13
1.34279e-12
6.302e-12
3.04738e-11
9.57308e-11
1.75838e-10
2.24778e-10
2.42769e-10
2.47024e-10
2.44528e-10
2.36936e-10
2.32523e-10
6.1647e-17
-2.84101e-16
-2.96622e-15
-1.34487e-14
-4.08168e-14
-9.0247e-14
-1.51993e-13
-1.96839e-13
-1.86461e-13
-9.94231e-14
5.17928e-15
9.43827e-14
5.62721e-13
3.02584e-12
1.34686e-11
3.69106e-11
6.32009e-11
8.05372e-11
8.93377e-11
9.39293e-11
9.36446e-11
1.07297e-10
1.43362e-10
1.11756e-17
-1.60898e-16
-1.47023e-15
-6.58155e-15
-1.97849e-14
-4.33692e-14
-7.25212e-14
-9.36047e-14
-8.95023e-14
-5.10965e-14
6.03446e-16
3.13305e-14
2.38176e-13
1.29009e-12
5.09019e-12
1.24669e-11
2.01015e-11
2.49757e-11
2.74243e-11
2.89879e-11
3.60183e-11
5.90794e-11
1.64397e-10
9.07162e-19
-8.40544e-17
-7.03178e-16
-3.11828e-15
-9.3033e-15
-2.02511e-14
-3.36673e-14
-4.33406e-14
-4.17658e-14
-2.51275e-14
0
1.06934e-14
9.48703e-14
4.85401e-13
1.72426e-12
3.90867e-12
6.01722e-12
7.29255e-12
8.10721e-12
9.59846e-12
1.51989e-11
5.13274e-11
2.29812e-10
1.08039e-21
-4.13189e-17
-3.2516e-16
-1.43252e-15
-4.24991e-15
-9.20209e-15
-1.52321e-14
-1.9577e-14
-1.90022e-14
-1.19338e-14
-8.89724e-16
3.86473e-15
3.46283e-14
1.65578e-13
5.45081e-13
1.17135e-12
1.75299e-12
2.15301e-12
2.62294e-12
4.39364e-12
1.16591e-11
5.23892e-11
2.5429e-10
0
-1.93324e-17
-1.45613e-16
-6.38934e-16
-1.8884e-15
-4.07392e-15
-6.7245e-15
-8.63896e-15
-8.44581e-15
-5.5007e-15
-8.32111e-16
1.36253e-15
1.16293e-14
5.26036e-14
1.64034e-13
3.3966e-13
5.06327e-13
6.60601e-13
1.00175e-12
2.96678e-12
1.52486e-11
7.53868e-11
2.39602e-10
-5.47647e-20
-8.67182e-18
-6.3238e-17
-2.76985e-16
-8.16978e-16
-1.75885e-15
-2.89933e-15
-3.72783e-15
-3.67196e-15
-2.46876e-15
-5.31113e-16
4.45856e-16
3.63872e-15
1.57985e-14
4.73417e-14
9.60105e-14
1.46824e-13
2.14801e-13
4.85295e-13
2.68361e-12
2.45585e-11
1.25638e-10
2.02939e-10
-5.34123e-20
-3.74727e-18
-2.66637e-17
-1.16813e-16
-3.44402e-16
-7.41028e-16
-1.22163e-15
-1.57392e-15
-1.56278e-15
-1.08115e-15
-2.90244e-16
1.35375e-16
1.07095e-15
4.5158e-15
1.31605e-14
2.66267e-14
4.32118e-14
7.75073e-14
2.9751e-13
2.7186e-12
3.02534e-11
1.26262e-10
1.39522e-10
-3.46493e-20
-1.56511e-18
-1.09243e-17
-4.79576e-17
-1.41554e-16
-3.04818e-16
-5.03202e-16
-6.50367e-16
-6.51298e-16
-4.62574e-16
-1.45033e-16
3.83127e-17
2.98164e-16
1.23369e-15
3.54107e-15
7.29575e-15
1.30347e-14
3.2297e-14
2.05637e-13
2.50428e-12
2.78476e-11
1.07275e-10
9.91494e-11
-1.94051e-20
-6.33295e-19
-4.35169e-18
-1.91777e-17
-5.67525e-17
-1.22463e-16
-2.02677e-16
-2.63038e-16
-2.65796e-16
-1.93473e-16
-6.81688e-17
1.00592e-17
7.8848e-17
3.23512e-16
9.26654e-16
1.98318e-15
4.05614e-15
1.498e-14
1.37745e-13
1.89727e-12
2.0987e-11
7.72213e-11
7.82206e-11
-1.0036e-20
-2.48661e-19
-1.68621e-18
-7.47353e-18
-2.22049e-17
-4.80678e-17
-7.98324e-17
-1.04121e-16
-1.06198e-16
-7.91133e-17
-3.05778e-17
2.42417e-18
1.98781e-17
8.17856e-17
2.36662e-16
5.33847e-16
1.2946e-15
6.9926e-15
7.92871e-14
1.09351e-12
1.18586e-11
4.64749e-11
5.65239e-11
-4.92697e-21
-9.48626e-20
-6.3587e-19
-2.83995e-18
-8.48279e-18
-1.8439e-17
-3.07555e-17
-4.03342e-17
-4.153e-17
-3.16208e-17
-1.31953e-17
5.04633e-19
4.79785e-18
2.0017e-17
5.90341e-17
1.41212e-16
4.14583e-16
2.99875e-15
3.70094e-14
4.96755e-13
5.29003e-12
2.28639e-11
3.34471e-11
-2.32713e-21
-3.52496e-20
-2.33937e-19
-1.05423e-18
-3.16808e-18
-6.91803e-18
-1.15914e-17
-1.52854e-17
-1.58787e-17
-1.23309e-17
-5.49835e-18
1.20266e-20
1.12809e-18
4.7694e-18
1.43748e-17
3.66244e-17
1.31949e-16
1.17672e-15
1.49238e-14
1.9688e-13
2.0746e-12
9.56499e-12
1.62306e-11
-1.06854e-21
-1.28258e-20
-8.42835e-20
-3.83327e-19
-1.15867e-18
-2.54075e-18
-4.27487e-18
-5.66587e-18
-5.93395e-18
-4.69136e-18
-2.21769e-18
0
2.58364e-19
1.11403e-18
3.42923e-18
9.3758e-18
4.16819e-17
4.28878e-16
5.5042e-15
7.21254e-14
7.60039e-13
3.63482e-12
6.64017e-12
-4.78206e-22
-4.56788e-21
-2.97454e-20
-1.36605e-19
-4.15246e-19
-9.13974e-19
-1.54352e-18
-2.05515e-18
-2.16817e-18
-1.74172e-18
-8.66374e-19
-1.60515e-20
5.62991e-20
2.56436e-19
8.0481e-19
2.38779e-18
1.30025e-17
1.46591e-16
1.89101e-15
2.47047e-14
2.62386e-13
1.30372e-12
2.43154e-12
-2.08721e-22
-1.59233e-21
-1.02886e-20
-4.77529e-20
-1.4594e-19
-3.22266e-19
-5.46011e-19
-7.29906e-19
-7.74963e-19
-6.31264e-19
-3.28074e-19
-1.59484e-20
1.15079e-20
5.84808e-20
1.86716e-19
6.08945e-19
3.98335e-18
4.7649e-17
6.16906e-16
8.01856e-15
8.55902e-14
4.44837e-13
8.45374e-13
-8.88482e-23
-5.43979e-22
-3.49017e-21
-1.63892e-20
-5.03389e-20
-1.11471e-19
-1.89383e-19
-2.54021e-19
-2.7115e-19
-2.23497e-19
-1.20545e-19
-9.67223e-21
2.04573e-21
1.32677e-20
4.307e-20
1.56191e-19
1.19558e-18
1.48795e-17
1.9306e-16
2.48766e-15
2.65242e-14
1.43998e-13
2.84294e-13
-3.68425e-23
-1.82733e-22
-1.16202e-21
-5.52649e-21
-1.70542e-20
-3.78581e-20
-6.44676e-20
-8.6708e-20
-9.2956e-20
-7.73675e-20
-4.30333e-20
-4.77844e-21
2.32764e-22
2.99937e-21
9.93412e-21
4.03824e-20
3.51995e-19
4.50241e-18
5.84251e-17
7.43933e-16
7.87564e-15
4.42103e-14
9.21713e-14
-1.48519e-23
-6.06217e-23
-3.80222e-22
-1.83248e-21
-5.68022e-21
-1.26377e-20
-2.15622e-20
-2.9063e-20
-3.12599e-20
-2.62174e-20
-1.49504e-20
-2.08249e-21
5.08746e-24
6.75301e-22
2.29757e-21
1.05031e-20
1.01688e-19
1.32602e-18
1.71823e-17
2.16011e-16
2.26187e-15
1.29353e-14
2.86429e-14
-5.81001e-24
-1.99223e-23
-1.22426e-22
-5.9807e-22
-1.86215e-21
-4.15194e-21
-7.09551e-21
-9.57898e-21
-1.03266e-20
-8.71e-21
-5.06494e-21
-8.30661e-22
3.1594e-41
1.56079e-22
5.53487e-22
2.86987e-21
3.03427e-20
4.01402e-19
5.19182e-18
6.45206e-17
6.67137e-16
3.8281e-15
8.9817e-15
-2.20081e-24
-6.50843e-24
-3.89302e-23
-1.925e-22
-6.02043e-22
-1.34516e-21
-2.30195e-21
-3.11054e-21
-3.35685e-21
-2.84069e-21
-1.67425e-21
-3.05931e-22
0
1.97381e-23
7.44937e-23
4.52991e-22
5.28121e-21
7.10066e-20
9.1749e-19
1.12685e-17
1.14848e-16
6.58196e-16
1.65233e-15
1
0.995592
0.990382
0.990121
0.698277
0.531493
0.480277
0.604092
0.00130147
0.00246222
0.0264363
0.205422
0.000342678
0.00116172
0.00507897
0.130667
5.72012e-05
0.000185536
0.00538889
0.0288994
1.11276e-05
3.7528e-05
0.000942043
0.00625845
4.2396e-06
3.79821e-05
0.000172456
0.000469895
3.16905e-06
3.83404e-05
5.36196e-05
3.1189e-05
3.04824e-06
2.01367e-05
1.07665e-06
6.45305e-06
1.42917e-06
4.15829e-07
1.80931e-07
1.20054e-06
4.67429e-08
2.32677e-08
3.48874e-08
1.93383e-07
2.32845e-08
3.95746e-09
5.87248e-09
3.06333e-08
1.43075e-07
1.34923e-09
1.54667e-09
4.64086e-09
4.00708e-07
1.03878e-09
9.87762e-10
1.01072e-09
1.76213e-07
9.87762e-10
8.9222e-10
4.5929e-10
2.6677e-09
1.83486e-09
9.15313e-10
3.5665e-10
1.38717e-09
3.2098e-09
1.08453e-09
2.45036e-10
1.2142e-09
2.86831e-09
9.86739e-10
1.38235e-10
8.91078e-10
1.35393e-09
5.5524e-10
1.25396e-10
5.54858e-10
4.80756e-10
4.62348e-10
3.21817e-11
3.66549e-10
3.9938e-10
6.34424e-10
2.80273e-09
2.83679e-10
6.00742e-10
7.02235e-09
1.01999e-07
4.39096e-10
2.82539e-09
4.98851e-08
7.16352e-07
1.11825e-09
8.75165e-09
7.38065e-08
2.49499e-06
1.9453e-09
5.54847e-09
3.00343e-07
4.39536e-06
2.69637e-09
2.00433e-08
3.88769e-07
6.35806e-06
2.57845e-09
1.73923e-08
3.74183e-07
6.74217e-06
1.16831e-09
9.53943e-09
2.19286e-07
5.29385e-06
7.71963e-10
1.43229e-08
3.60025e-07
4.2319e-05
8.9356e-10
1.8795e-08
6.22014e-07
3.59009e-05
7.85647e-10
1.41716e-08
4.48942e-07
5.05658e-06
4.57659e-10
6.16346e-09
1.02037e-07
1.59606e-07
2.74827e-10
3.11699e-09
2.4167e-09
3.72791e-08
1.68048e-10
1.0398e-09
1.1655e-09
8.52638e-09
9.3142e-11
3.69616e-10
4.23169e-10
2.12332e-09
4.58098e-11
2.26245e-10
2.62846e-10
3.16134e-10
2.05598e-11
1.49301e-10
1.47288e-10
2.62637e-10
8.42339e-12
8.47091e-11
1.04627e-10
1.2474e-10
3.11844e-12
3.87848e-11
7.89481e-11
1.07367e-10
1.03999e-12
1.45005e-11
5.42675e-11
8.54648e-11
3.31766e-13
4.86217e-12
3.02544e-11
5.27596e-11
6.04631e-14
9.19e-13
8.37809e-12
1.71932e-11
0.493067
0.393149
0.801341
0.883986
0.884042
0.868926
0.876122
0.88179
0.851397
0.825458
0.858773
0.923863
0.921324
0.915881
0.901337
0.921651
0.937117
0.939378
0.9504
0.812891
0.84171
0.863995
0.866381
0.525054
0.499288
0.833621
0.898022
0.899722
0.899722
0.899722
0.878172
0.645902
0.643074
0.652698
0.644772
0.651856
0.775354
0.956334
0.690746
0.819943
0.78027
0.247592
0.0107615
0.00306748
0.171662
0.685119
0.89212
0.899722
0.904167
0.854229
0.648206
0.641898
0.64334
0.643661
0.648601
0.779047
0.956526
0.391805
0.562545
0.312954
0.00584087
0.000576765
0.000267582
0.00123032
0.00745984
0.411353
0.835038
0.913765
0.915056
0.91768
0.87746
0.778694
0.833187
0.954267
0.959066
0.957582
0.0414544
0.0685751
0.00857511
0.000600574
4.52596e-05
1.28499e-05
6.64725e-05
0.000355182
0.00192264
0.158053
0.708745
0.918466
0.928633
0.936594
0.944938
0.953739
0.958849
0.959721
0.959716
0.00640426
0.00413406
0.0015636
4.75988e-05
4.3799e-06
1.63163e-06
8.33622e-07
4.49207e-06
4.1982e-05
0.000213241
0.00114843
0.41164
0.750751
0.87523
0.910868
0.937097
0.954589
0.959701
0.959722
0.000875689
0.000959938
0.000244071
4.37625e-06
1.74411e-06
1.59805e-06
1.51102e-06
4.1428e-07
-7.65882e-07
1.43122e-06
5.90602e-06
-3.25394e-05
0.000181562
0.149735
0.262481
0.427592
0.730885
0.959369
0.959699
0.000127472
0.000212177
3.39712e-05
1.74347e-06
1.54226e-06
1.48672e-06
1.76723e-06
4.21259e-07
1.05073e-07
6.69588e-08
2.02298e-07
5.25844e-06
2.57496e-05
0.000132151
0.000611993
0.00288778
0.100462
0.730874
0.959368
2.78514e-05
4.49489e-05
7.44285e-06
3.48947e-06
3.54873e-06
4.21712e-07
1.5305e-08
4.39986e-07
1.02895e-07
2.6593e-08
7.92456e-08
6.8009e-07
5.06213e-06
2.78557e-05
0.000126737
0.000610253
0.00289054
0.167959
0.956429
5.41189e-06
8.86744e-06
5.52982e-06
7.07694e-06
3.18613e-06
8.47572e-08
1.17639e-09
6.26963e-10
6.33238e-10
2.57943e-08
2.94438e-06
4.77655e-07
5.025e-07
3.94109e-06
4.61596e-05
0.000332915
0.00205422
0.0799099
0.862528
9.15438e-07
1.42241e-06
8.75424e-07
2.01943e-06
7.9337e-07
2.66524e-08
1.53702e-10
3.87588e-11
2.88002e-11
6.17994e-11
1.18889e-06
4.84154e-07
2.37372e-08
-1.19821e-07
1.65687e-05
0.00229367
0.0308471
0.0546626
0.199
1.3014e-07
1.87651e-07
5.95761e-08
1.07835e-08
1.74612e-09
2.03068e-10
4.12482e-11
3.40027e-11
2.80902e-11
2.80954e-11
6.93937e-11
1.61773e-07
9.2328e-08
1.01563e-08
-5.18734e-06
0.00994291
0.126913
0.114306
0.00116636
1.58617e-08
2.02713e-08
6.09319e-09
7.3791e-10
1.2723e-10
9.61648e-11
7.47664e-11
3.91038e-11
2.77056e-11
2.8018e-11
2.81007e-11
5.02666e-10
8.15888e-08
5.37019e-09
-3.08305e-06
0.0137181
0.126913
0.126607
0.0011663
1.7578e-09
1.82826e-09
5.24409e-10
9.00358e-11
7.64059e-11
6.67999e-11
3.34745e-11
1.98454e-11
2.72653e-11
2.92409e-11
2.87118e-11
5.78039e-11
6.72492e-08
1.59172e-09
-2.67989e-07
0.0423873
0.127054
0.12615
0.00116671
3.02546e-10
2.15432e-10
5.8641e-11
3.71845e-11
4.33629e-11
2.69576e-11
1.27915e-11
1.50453e-11
3.51362e-11
4.27425e-11
3.44813e-11
3.48979e-11
2.03479e-08
1.87222e-10
-3.23747e-09
0.115912
0.126747
0.0480496
0.0011687
9.21787e-11
3.42014e-11
2.24171e-11
2.16913e-11
1.69672e-11
1.13182e-11
1.13182e-11
1.45194e-11
2.80202e-11
4.25148e-11
3.65106e-11
3.61156e-11
3.76071e-11
1.73458e-10
-1.20358e-09
0.104543
0.125856
0.0026247
0.00117582
4.57137e-11
1.92787e-11
1.93394e-11
1.86141e-11
4.96045e-11
1.77183e-11
1.13182e-11
1.77727e-11
2.48441e-11
4.06799e-11
6.04986e-11
3.65973e-11
3.68173e-11
3.5906e-11
9.43856e-32
0.0131594
0.12438
0.00197868
0.00119905
5.05881e-11
1.28801e-11
1.27993e-11
4.61356e-09
2.54389e-09
3.21686e-10
4.46626e-11
2.13439e-11
2.56384e-11
4.42311e-11
4.11272e-10
3.68173e-11
7.35036e-07
3.126e-07
8.91322e-11
9.15538e-09
0.122225
0.00671423
0.00126939
4.73663e-11
8.7787e-10
1.79632e-08
2.06084e-07
8.32876e-08
8.38653e-09
6.42525e-10
4.97945e-11
3.18968e-11
4.23891e-11
5.5005e-11
3.302e-07
3.59769e-06
1.9006e-06
9.15538e-09
6.07008e-08
0.117129
0.0348004
0.00224595
1.85517e-09
3.58892e-08
6.74848e-07
4.03832e-06
1.61518e-06
4.38521e-07
1.68949e-08
2.34395e-10
4.86515e-11
6.45384e-11
7.93309e-11
1.96938e-07
2.50619e-06
1.36569e-06
6.07008e-08
2.29975e-07
0.0332193
0.0490756
0.00489047
7.74414e-08
1.69063e-06
1.09766e-05
4.56548e-05
2.06645e-05
1.55487e-05
5.23958e-07
3.2157e-09
9.54141e-11
8.65251e-11
1.74467e-10
6.93252e-09
2.02303e-08
2.39747e-07
1.9034e-07
1.69985e-06
0.00054882
0.00837581
0.0056771
1.44883e-06
2.91686e-05
0.00079395
0.00335612
0.00215047
0.000175658
7.84542e-07
2.08766e-08
2.11177e-10
5.36375e-11
5.37656e-11
5.37497e-11
1.57789e-10
5.75902e-08
1.6036e-05
1.60686e-05
0.000391937
0.000339915
0.000988871
9.01457e-06
0.000515327
0.00562078
0.00666632
0.00666632
0.000734233
1.92277e-06
3.71476e-08
1.12976e-10
5.70918e-11
5.37281e-11
8.97035e-11
2.21006e-09
2.77314e-07
0.000192578
0.00475227
0.000339914
3.67673e-05
4.23596e-06
3.67583e-05
0.00288638
0.00664847
0.00668541
0.00663712
0.00370638
2.64245e-05
1.66947e-08
-4.31006e-11
5.55251e-11
5.70783e-11
1.22865e-10
3.07128e-09
1.18716e-07
0.000268514
0.0450619
0.0194859
4.23596e-06
3.63866e-07
0.000387354
0.00563529
0.00665669
0.00663708
0.00659202
0.0065363
9.11772e-05
1.75911e-07
5.55367e-11
5.55368e-11
5.55137e-11
1.00365e-10
1.67663e-09
5.34055e-08
0.000159073
0.0530301
0.05282
4.16263e-05
3.40495e-07
0.00129447
0.00626253
0.00656143
0.00527591
0.00653612
0.00630215
3.1195e-08
2.16315e-10
7.34865e-11
5.55368e-11
7.19624e-11
6.53666e-10
1.75687e-08
4.90002e-07
0.000503483
0.0531461
0.0529586
3.08814e-07
3.37583e-07
0.00205348
0.00617206
0.00418174
0.000117215
0.00324276
0.00506366
3.80311e-09
1.48003e-10
1.24351e-10
7.34865e-11
3.28226e-10
6.49826e-09
1.56577e-07
3.53133e-06
0.000518743
0.0531461
0.0174069
2.54843e-07
2.29042e-07
0.00190704
0.00529859
0.000187227
9.63746e-05
0.0001172
0.00237695
0.00055364
2.2056e-10
1.48003e-10
1.92276e-10
1.64798e-09
3.11642e-08
6.6046e-07
1.27108e-05
0.00884091
0.0531461
1.58264e-05
3.62268e-06
1.48243e-07
0.00133518
0.000876047
8.75401e-05
8.05037e-05
9.62209e-05
0.00101971
0.00234914
9.78485e-09
2.89973e-09
1.4815e-09
2.0527e-09
1.03996e-08
1.61529e-07
3.80041e-05
0.0404459
0.0530086
0.00117097
1.60941e-05
1.1223e-07
0.000737429
0.000380809
8.04269e-05
7.15499e-05
6.29385e-05
0.00127412
0.00234179
2.10754e-09
2.06699e-09
2.05729e-09
2.39814e-09
8.62293e-09
1.2832e-07
0.000113663
0.0490881
0.0472861
0.00192638
3.76654e-06
1.09309e-07
0.000341806
0.000571849
7.15499e-05
5.34509e-05
2.99452e-05
0.000628544
0.0018397
2.09493e-09
2.10754e-09
2.06699e-09
2.94994e-09
1.93162e-08
3.49102e-07
0.000472571
0.0478853
0.004237
0.000918204
2.45842e-07
2.04236e-08
0.000123864
0.000674014
0.000271472
5.86525e-05
1.98963e-05
2.99875e-05
0.000392385
0.00106285
2.08433e-09
2.94994e-09
1.95885e-08
9.15394e-08
1.53103e-06
0.00435806
0.0467203
0.000479078
1.28474e-05
8.66874e-08
6.52517e-10
5.023e-07
0.000288057
0.000361288
0.000253644
1.20213e-05
1.46993e-05
0.000911955
0.0015194
6.64924e-07
6.55357e-08
7.86391e-08
1.16709e-07
9.72776e-07
0.0168508
0.0237544
0.000892871
6.17307e-08
6.52517e-10
4.02418e-10
1.21703e-07
1.59675e-06
0.000317174
0.000189278
9.75794e-06
2.18986e-06
0.00037439
0.00211719
0.00217603
0.000242006
1.06162e-07
1.06162e-07
0.000300332
0.0179062
0.000245909
0.000222696
2.9951e-07
2.8587e-10
7.12721e-11
2.1926e-08
2.23185e-07
5.89347e-05
7.36299e-08
6.938e-06
6.09834e-08
2.2401e-06
0.00180274
0.00412802
0.00382271
1.06162e-07
1.4189e-07
0.00279666
0.0179062
0.000326216
2.39298e-07
3.40208e-09
2.93747e-11
5.9023e-12
5.44299e-09
3.01728e-08
3.05053e-08
7.0999e-09
2.55744e-09
1.90926e-09
4.10724e-08
0.000180045
0.0040626
0.00407517
0.000626714
1.11462e-05
0.00558691
0.000872964
9.65867e-05
8.08561e-08
9.29197e-10
5.14849e-12
1.19055e-13
1.37231e-09
5.07221e-09
2.69078e-09
4.17162e-09
2.03754e-09
2.06314e-09
1.03966e-09
2.03568e-07
0.000217698
0.00348771
0.000637611
0.000911373
0.00439498
8.14374e-06
4.24547e-08
7.81963e-10
-2.24165e-13
-3.46751e-28
1.81202e-15
3.6522e-10
9.30496e-10
4.69264e-10
8.11398e-09
6.93227e-09
2.02556e-09
-4.82026e-11
1.88679e-08
2.58272e-05
3.86449e-05
0.00280867
0.0035781
1.38097e-06
-1.16201e-09
-4.35099e-13
-6.32927e-15
-1.24852e-12
-1.4693e-14
-3.91422e-17
1.44864e-10
1.99093e-10
1.12557e-10
9.4699e-09
1.1418e-08
3.26163e-09
1.27016e-12
-2.01996e-10
-4.58083e-10
0.000486535
0.00402482
0.00363512
-1.80905e-12
-1.69512e-11
-1.14508e-12
-6.33977e-14
-3.93903e-13
-1.61959e-14
-1.77193e-16
1.03178e-10
1.71224e-10
9.73124e-11
3.51254e-09
2.17685e-09
1.60573e-10
1.6594e-15
-2.52578e-16
-1.58305e-14
-4.87317e-15
0.00398553
6.61013e-05
-1.77475e-13
-2.17926e-12
-1.99649e-13
-1.28628e-14
-1.71624e-15
-1.54943e-16
-4.83625e-18
7.30317e-11
1.03939e-10
8.99476e-11
2.89426e-10
1.18892e-10
4.32112e-12
-6.37538e-16
-3.86228e-14
-1.18531e-14
-4.12314e-15
0.00348061
-1.06578e-17
-1.08964e-16
-4.79237e-16
-1.16512e-15
-4.97749e-16
-1.49192e-16
-1.31046e-17
-3.7019e-19
2.97487e-11
3.75534e-11
4.10491e-11
1.79809e-11
3.09063e-12
8.41024e-15
-2.50206e-14
-6.78433e-15
-9.85495e-16
-2.20108e-16
0.000576328
-1.06342e-29
-6.00748e-29
-4.28299e-28
-1.59303e-39
-6.05342e-39
-1.39599e-40
-1.35197e-42
3.55491e-26
)
;

boundaryField
{
    leftWall
    {
        type            zeroGradient;
    }
    rightWall
    {
        type            zeroGradient;
    }
    lowerWall
    {
        type            zeroGradient;
    }
    atmosphere
    {
        type            inletOutlet;
        inletValue      uniform 0;
        value           nonuniform List<scalar> 
46
(
-2.20081e-24
-6.50843e-24
-3.89302e-23
-1.925e-22
-6.02043e-22
-1.34516e-21
-2.30195e-21
-3.11054e-21
-3.35685e-21
-2.84069e-21
-1.67425e-21
-3.05931e-22
0
1.97381e-23
7.44937e-23
4.52991e-22
5.28121e-21
7.10066e-20
9.1749e-19
1.12685e-17
1.14848e-16
6.58196e-16
1.65233e-15
6.04631e-14
9.19e-13
8.37809e-12
1.71932e-11
2.97487e-11
3.75534e-11
4.10491e-11
1.79809e-11
3.09063e-12
0
0
0
0
0
0.000576328
0
0
0
0
0
0
0
0
)
;
    }
    defaultFaces
    {
        type            empty;
    }
}


// ************************************************************************* //
