/*--------------------------------*- C++ -*----------------------------------*\
| =========                 |                                                 |
| \\      /  F ield         | OpenFOAM: The Open Source CFD Toolbox           |
|  \\    /   O peration     | Version:  2206                                  |
|   \\  /    A nd           | Website:  www.openfoam.com                      |
|    \\/     M anipulation  |                                                 |
\*---------------------------------------------------------------------------*/
FoamFile
{
    version     2.0;
    format      ascii;
    arch        "LSB;label=32;scalar=64";
    class       volScalarField;
    location    "0.825";
    object      p_rgh;
}
// * * * * * * * * * * * * * * * * * * * * * * * * * * * * * * * * * * * * * //

dimensions      [1 -1 -2 0 0 0 0];

internalField   nonuniform List<scalar> 
2268
(
724.779
724.562
724.376
724.12
723.616
722.876
721.995
721.124
720.352
719.697
719.126
718.612
718.147
717.73
717.36
717.026
716.702
716.331
715.82
715.168
714.759
714.965
715.492
724.831
724.561
724.368
724.067
723.538
722.77
721.874
721.004
720.234
719.576
719.013
718.513
718.051
717.624
717.237
716.893
716.56
716.152
715.498
714.517
713.995
714.215
714.975
724.858
724.578
724.349
723.981
723.381
722.538
721.615
720.767
720.043
719.431
718.888
718.394
717.92
717.462
717.023
716.606
716.203
715.784
715.302
714.821
714.625
714.739
715.34
724.863
724.601
724.292
723.853
723.153
722.205
721.238
720.423
719.775
719.224
718.728
718.247
717.764
717.277
716.793
716.325
715.882
715.468
715.102
714.835
714.81
715.095
715.676
724.755
724.416
723.94
723.364
722.637
721.753
720.845
720.08
719.505
719.03
718.577
718.108
717.61
717.086
716.552
716.032
715.548
715.119
714.774
714.565
714.596
714.912
715.461
724.353
723.63
722.654
721.764
721.252
720.903
720.454
719.91
719.381
718.929
718.49
718.016
717.486
716.905
716.299
715.703
715.148
714.664
714.29
714.072
714.075
714.321
714.722
723.636
722.265
720.309
719.063
718.989
719.588
720.016
719.938
719.479
718.984
718.504
717.988
717.402
716.739
716.029
715.33
714.666
714.078
713.615
713.311
713.164
713.113
713.012
723.45
721.097
718.328
716.727
717.288
718.711
719.765
720.097
719.747
719.19
718.647
718.059
717.381
716.593
715.72
714.899
714.081
713.337
712.732
712.331
712.054
711.969
710.284
895.257
905.372
898.189
863.628
899.317
978.024
956.966
893.13
884.588
1013.51
1233.16
1351.32
1350.8
1355.14
1360.22
1369.65
1503.04
1749.32
1879.68
894.556
906.526
886.136
831.111
875.617
964.521
946.892
877.937
848.463
991.505
1219.78
1353.27
1362.61
1361.25
1345.01
1343.17
1470.91
1717.14
1869.06
893.133
903.522
841.779
815.145
865.205
966.581
949.816
834.2
809.225
973.38
1212.57
1369.66
1405.03
1380.01
1326.34
1309.34
1417.45
1653.65
1846.51
885.77
888.829
823.29
809.445
867.713
971.4
889.239
827.407
855.62
1002.73
1230.72
1390.47
1438.41
1398.3
1312.02
1258.23
1337.37
1550.07
1813.8
875.337
844.096
818.506
809.453
981.757
870.815
613.806
598.93
801.478
1060.98
1267.67
1401.46
1449.88
1410.02
1303.89
1234.45
1306.5
1506.14
1779.66
819.808
805.978
822.562
875.44
1065.13
793.113
505.921
492.456
655.6
1088.23
1304.61
1423.27
1439.9
1353.42
1260.09
1235.7
1292.95
1523.24
1751.88
782.878
795.417
831.849
1115.45
1158.51
765.903
536.762
505.764
633.635
1040.04
1337.28
1439.8
1462.41
1406.6
1273.02
1248.11
1297.06
1521.58
1737.23
778.406
782.191
888.666
1254.7
1239
964.592
765.103
641.385
707.299
944.383
1345.33
1458.27
1468.98
1452.71
1329.34
1280.45
1389.26
1548.23
1739.84
724.287
721.595
718.413
716.627
717.073
718.848
720.207
720.697
720.243
719.539
718.955
718.282
717.476
716.493
715.385
714.188
712.995
711.82
710.752
709.837
708.273
705.106
696.296
732.062
724.241
700.069
663.368
618.96
601.355
616.472
628.777
618.557
607.283
606.87
612.627
618.232
619.06
616.269
612.168
607.696
602.22
596.051
592.93
595.126
590.04
596.198
118.175
116.91
120.792
129.602
137.114
143.925
150.604
150.627
148.884
142.38
130.929
119.616
106.211
91.9247
79.0351
69.7492
62.2355
52.9383
44.3211
47.3009
65.8874
36.8905
10.7792
1.7014
1.69241
1.68315
1.69016
1.69678
1.70281
1.71115
1.72335
1.73482
1.74808
1.77293
1.7968
1.81365
1.85464
1.90727
1.97033
2.05675
2.08329
2.27551
1.90711
0.429791
0.933991
1.30407
1.7135
1.69899
1.69785
1.68882
1.68446
1.67675
1.67643
1.68276
1.69234
1.70272
1.71885
1.73733
1.75806
1.78064
1.80456
1.82605
1.84053
1.92549
2.37979
2.38708
1.56804
0.792812
0.246657
1.6929
1.67641
1.66667
1.66258
1.66068
1.66132
1.66434
1.66455
1.66356
1.66801
1.67498
1.68325
1.69165
1.69838
1.70273
1.705
1.69752
1.70159
1.87779
1.74522
1.31835
0.841677
0.414007
1.63251
1.62243
1.61966
1.62276
1.62542
1.62615
1.6258
1.62434
1.6232
1.62288
1.62302
1.62256
1.62047
1.61597
1.60835
1.59693
1.57946
1.60137
1.62981
1.38155
1.16292
0.896739
0.646504
1.57503
1.56795
1.57057
1.57743
1.5813
1.58089
1.57881
1.57581
1.57255
1.56894
1.56431
1.55787
1.54919
1.53827
1.5253
1.53323
1.54703
1.52763
1.43614
1.3198
1.202
1.0504
0.909224
1.52882
1.52836
1.53057
1.53462
1.53588
1.53377
1.53035
1.5258
1.52039
1.51397
1.50609
1.49626
1.48432
1.47059
1.47742
1.50104
1.47828
1.40936
1.34009
1.2962
1.23607
1.15919
1.08326
1.48276
1.4852
1.48635
1.48713
1.48615
1.48312
1.47912
1.47396
1.46761
1.45998
1.45085
1.44004
1.42751
1.41493
1.44154
1.44607
1.39042
1.32881
1.30088
1.2704
1.23557
1.19623
1.1564
1.43243
1.4335
1.43355
1.43307
1.43163
1.4289
1.42519
1.42035
1.41435
1.40712
1.39855
1.38861
1.37734
1.3652
1.38405
1.40317
1.32533
1.2964
1.27552
1.25348
1.23037
1.20788
1.18816
1.37983
1.3795
1.37891
1.37815
1.37668
1.37431
1.37107
1.36689
1.36175
1.35562
1.34846
1.34028
1.33114
1.32124
1.3252
1.33225
1.29184
1.27057
1.25571
1.24064
1.22556
1.21166
1.2004
1.32605
1.32528
1.32496
1.32416
1.3227
1.32058
1.3178
1.31432
1.31014
1.30524
1.29966
1.2934
1.28655
1.27978
1.2728
1.26323
1.25558
1.24507
1.23608
1.22799
1.21924
1.21132
1.20398
1.27158
1.27102
1.27091
1.27017
1.26891
1.26717
1.26493
1.2622
1.25899
1.25531
1.25121
1.24674
1.24199
1.23715
1.23186
1.22662
1.22127
1.21711
1.21342
1.20874
1.2049
1.2021
1.20065
1.21698
1.21671
1.21659
1.216
1.21503
1.21371
1.21205
1.21006
1.20777
1.2052
1.20243
1.1995
1.19651
1.19352
1.19063
1.1879
1.1854
1.18377
1.18446
1.18367
1.18378
1.18503
1.18565
1.16238
1.16229
1.16214
1.16172
1.16102
1.16009
1.15895
1.15761
1.15611
1.15451
1.15285
1.1512
1.14966
1.1483
1.14724
1.14655
1.14633
1.14669
1.14882
1.15259
1.15563
1.15805
1.16305
1.10748
1.10747
1.10735
1.10708
1.10661
1.10602
1.10531
1.10451
1.10368
1.10284
1.10207
1.10144
1.10102
1.10092
1.10125
1.1021
1.10361
1.1059
1.1091
1.11351
1.11908
1.12587
1.13419
1.05199
1.052
1.05192
1.05177
1.05149
1.05116
1.05079
1.0504
1.05005
1.04978
1.04965
1.04973
1.05011
1.05087
1.05213
1.05402
1.05668
1.06022
1.06479
1.07058
1.07782
1.08662
1.09688
0.995736
0.995747
0.995691
0.995606
0.995445
0.995276
0.995103
0.994966
0.994901
0.994956
0.995187
0.995659
0.996453
0.99766
0.999393
1.00178
1.00497
1.00912
1.01436
1.0209
1.02896
1.0387
1.05005
0.938665
0.938656
0.938592
0.938509
0.938373
0.938239
0.938113
0.938031
0.938025
0.93814
0.938426
0.938942
0.939762
0.940973
0.942681
0.945014
0.948119
0.952157
0.957289
0.963707
0.971642
0.981289
0.992685
0.88081
0.880763
0.880648
0.880499
0.880286
0.880054
0.87981
0.879584
0.879403
0.879303
0.879327
0.879527
0.879966
0.880724
0.881896
0.8836
0.885975
0.889178
0.893371
0.898732
0.905474
0.913844
0.924017
0.822317
0.822214
0.822006
0.821723
0.821334
0.820877
0.820356
0.819793
0.819207
0.818626
0.818082
0.817615
0.817276
0.81713
0.817258
0.81776
0.818756
0.820384
0.822788
0.826113
0.830522
0.836303
0.843785
0.76345
0.763275
0.762938
0.762457
0.761804
0.761008
0.760067
0.758995
0.757801
0.756501
0.755113
0.753663
0.752185
0.750724
0.749339
0.748104
0.747107
0.746453
0.746247
0.746575
0.747517
0.749364
0.752571
0.704578
0.704316
0.70382
0.703091
0.702103
0.700875
0.6994
0.697681
0.695715
0.693504
0.691052
0.688364
0.685453
0.682342
0.679057
0.675639
0.672132
0.66859
0.665063
0.661554
0.658029
0.654726
0.652141
0.646139
0.645783
0.645106
0.644096
0.642724
0.641002
0.638917
0.636458
0.633612
0.630364
0.6267
0.622605
0.618069
0.613082
0.607639
0.601735
0.595363
0.588515
0.581169
0.573229
0.564528
0.555186
0.545619
0.588623
0.588172
0.587305
0.585998
0.58422
0.581979
0.57925
0.576014
0.572244
0.567909
0.562976
0.557411
0.551176
0.544232
0.536535
0.528035
0.51867
0.508362
0.49701
0.48442
0.47029
0.454576
0.437489
0.532543
0.531999
0.530946
0.529348
0.527173
0.524423
0.521066
0.517071
0.5124
0.507009
0.500848
0.493862
0.485989
0.477161
0.4673
0.456312
0.444082
0.430469
0.4153
0.398296
0.379045
0.357338
0.333135
0.4784
0.477772
0.47655
0.474686
0.472151
0.468939
0.465013
0.460333
0.454852
0.448514
0.441257
0.433007
0.423685
0.413197
0.401438
0.388279
0.373565
0.357103
0.338669
0.317929
0.294396
0.267736
0.23774
0.426646
0.42595
0.424586
0.4225
0.419667
0.416073
0.411677
0.406433
0.400289
0.393181
0.385036
0.375772
0.365295
0.353497
0.340252
0.325411
0.308794
0.290179
0.26931
0.245841
0.219256
0.189128
0.155225
0.377664
0.376918
0.375448
0.373201
0.370149
0.366276
0.361538
0.355889
0.34927
0.341617
0.332852
0.322887
0.311623
0.298946
0.284722
0.268797
0.250982
0.231048
0.208733
0.183707
0.155486
0.123577
0.0877749
0.331741
0.330966
0.329434
0.327092
0.323913
0.319879
0.314946
0.309069
0.30219
0.294244
0.285155
0.274836
0.263188
0.250101
0.235445
0.219069
0.200794
0.180407
0.157665
0.132259
0.103792
0.0717658
0.0359573
0.289057
0.288273
0.286725
0.28436
0.281147
0.277074
0.2721
0.26618
0.25926
0.251279
0.242166
0.231842
0.220215
0.207181
0.192623
0.176403
0.158358
0.138291
0.116143
0.0913691
0.063827
0.0330819
-0.00116309
0.249676
0.248903
0.247382
0.245061
0.241909
0.237917
0.233049
0.227263
0.220512
0.21274
0.203885
0.193889
0.18265
0.170091
0.156113
0.140601
0.123426
0.104427
0.0834279
0.0602164
0.0345754
0.00617922
-0.0253423
0.213575
0.212791
0.211343
0.209134
0.206128
0.202329
0.197702
0.192212
0.185819
0.178477
0.170133
0.160731
0.150204
0.138483
0.125487
0.111128
0.095304
0.0778935
0.0587578
0.0377429
0.0146859
-0.0106255
-0.0385281
0.180589
0.179796
0.178455
0.176415
0.173632
0.170123
0.165854
0.160799
0.154923
0.148192
0.140565
0.131996
0.122436
0.11183
0.100123
0.0872489
0.0731355
0.0576997
0.0408472
0.0224696
0.00245659
-0.0193087
-0.0430677
0.150469
0.149679
0.14848
0.146658
0.144158
0.141018
0.137203
0.132691
0.12746
0.121483
0.114728
0.107164
0.0987557
0.0894642
0.0792544
0.0680846
0.0559084
0.0426765
0.0283329
0.0128148
-0.00394361
-0.0219922
-0.0414801
0.122964
0.12207
0.121107
0.119532
0.117366
0.114661
0.11137
0.107485
0.10299
0.0978662
0.0920922
0.0856477
0.0785097
0.0706553
0.0620637
0.0527128
0.0425797
0.0316415
0.0198724
0.0072447
-0.00627094
-0.0206805
-0.0360705
0.0977231
0.0966262
0.0960162
0.0946658
0.0928873
0.090656
0.0879352
0.0847333
0.0810341
0.0768258
0.0720968
0.0668349
0.0610282
0.0546652
0.0477366
0.0402346
0.0321532
0.0234881
0.0142349
0.00438974
-0.00605244
-0.0170708
-0.0287173
0.0743043
0.073124
0.0728421
0.0716745
0.0703267
0.0685737
0.0664545
0.063966
0.0610936
0.0578335
0.0541797
0.0501266
0.0456692
0.0408042
0.0355301
0.0298484
0.023763
0.0172806
0.01041
0.00316172
-0.00445799
-0.0124152
-0.0207459
0.0522068
0.0511585
0.0511237
0.050172
0.0492689
0.0479892
0.0464857
0.0447143
0.0426733
0.0403638
0.0377821
0.0349265
0.0317962
0.0283919
0.0247165
0.0207759
0.0165784
0.0121356
0.00746119
0.00257154
-0.00252481
-0.00779052
-0.0132541
0.0312379
0.0303221
0.0303592
0.0296988
0.0292236
0.0284345
0.0275628
0.0265182
0.0253215
0.0239715
0.0224659
0.0208052
0.0189903
0.0170235
0.0149088
0.0126526
0.0102636
0.00775227
0.00513021
0.00241211
-0.000397825
-0.00326902
-0.0062339
0.00942531
0.00985628
0.0101218
0.00980045
0.00966449
0.00934007
0.00903493
0.00864552
0.00821113
0.00772193
0.00717823
0.0065805
0.00592943
0.00522672
0.00447496
0.00367797
0.00284072
0.00196856
0.00106746
0.000147575
-0.000789527
-0.00171937
-0.00265791
667.777
684.027
709.777
795.093
505.889
393.343
354.378
393.732
4.7535
5.31288
13.7465
72.0319
1.16791
1.89495
-0.112639
82.2511
-0.183615
0.30855
4.88993
22.7368
-0.0300611
0.367464
1.63213
7.20853
0.31114
0.615565
1.13536
1.55197
0.655355
0.861238
1.17918
1.32748
0.908131
1.00553
1.17609
1.32539
1.06065
1.07868
1.20234
1.29971
1.14067
1.1443
1.22718
1.30761
1.17883
1.18729
1.25484
1.33137
1.19506
1.21453
1.27874
1.35508
1.19991
1.2303
1.29702
1.37786
1.1942
1.23637
1.31025
1.4017
1.17975
1.23316
1.31756
1.42513
1.15681
1.21991
1.3164
1.44426
1.12392
1.19466
1.3029
1.45362
1.07957
1.15475
1.27193
1.44512
1.02223
1.09705
1.21696
1.40666
0.9505
1.01825
1.13013
1.32033
0.863516
0.915557
1.00285
1.16203
0.761457
0.787768
0.826317
0.903188
0.646247
0.636972
0.598728
0.554693
0.521806
0.469031
0.333699
0.115277
0.394212
0.294834
0.0648613
-0.380192
0.271375
0.128255
-0.169442
-0.802465
0.161202
-0.017174
-0.346766
-1.03196
0.0693505
-0.131782
-0.464242
-0.965702
-0.00181433
-0.212616
-0.53535
-1.00623
-0.0523623
-0.257187
-0.569933
-1.10346
-0.0850918
-0.274461
-0.561416
-1.03924
-0.102197
-0.269101
-0.516396
-0.906232
-0.106166
-0.247131
-0.448192
-0.743906
-0.100218
-0.214623
-0.369712
-0.577803
-0.0879075
-0.17716
-0.291166
-0.428771
-0.07233
-0.139263
-0.2195
-0.305871
-0.0558331
-0.103908
-0.158058
-0.209496
-0.0399225
-0.0725777
-0.107297
-0.136091
-0.0256872
-0.0460454
-0.0665685
-0.0813385
-0.0129531
-0.0234581
-0.0335259
-0.0398338
-0.0047207
-0.00771487
-0.0101681
-0.0108537
940.429
904.089
1252.85
1477.08
1283.53
960.91
796.247
811.759
946.044
1155.35
1371.96
1488.16
1486.25
1487.37
1473.31
1480.79
1519.95
1599.58
1743.5
768.476
1041.09
1307.64
1227.76
559.427
404.783
667.615
806.401
967.392
1173.16
1352.18
1420.74
1304.72
1343.14
1378.54
1384.43
1392.03
1502.89
1708.92
425.948
757.247
901.756
303.273
35.3469
11.383
149.892
594.79
885.567
1076.8
1246.75
1316.63
1239.64
1298.88
1348.69
1377.27
1392.75
1502.82
1677.12
241.162
453.874
305.445
14.1565
4.20155
2.56865
2.73826
11.0904
408.837
899.513
1129.96
1269.89
1381.44
1428.39
1406.56
1510.49
1664.21
1687.14
1679.32
14.8414
49.9863
7.77305
2.06387
1.37525
1.2234
1.18305
1.87834
4.48406
179.028
801.162
1149.53
1273.26
1385.23
1481.32
1575.34
1662.7
1707.58
1684.87
5.23259
2.9255
2.70017
0.966399
0.833176
0.882971
0.986893
1.22355
1.46449
1.80142
3.89373
503.57
940.909
1178.5
1301.44
1441.21
1596.89
1688.26
1676.84
2.12452
2.54201
1.18981
0.489128
0.485027
0.643271
0.9182
1.19588
1.3039
1.33407
1.38084
0.815788
1.66226
204.386
369.152
648.242
1188
1634.67
1678.33
1.53038
1.45127
0.67978
0.296232
0.333029
0.539573
0.871129
1.18497
1.28009
1.19169
1.06343
0.956418
1.13916
1.64508
4.61544
21.2682
206.536
1244.7
1707.9
1.34783
1.06723
0.597298
0.341229
0.367666
0.559672
0.859553
1.12018
1.20484
1.07279
0.823154
0.679373
0.83422
1.20178
2.11781
7.85117
31.7169
344.755
1750.58
1.28293
1.06696
0.748175
0.547161
0.545711
0.675878
0.876264
1.03762
1.08797
0.964111
0.705474
0.455704
0.521824
0.849325
1.31025
5.06549
19.5242
174.328
1596.86
1.30547
1.1765
0.964259
0.80587
0.773477
0.819653
0.909865
0.982064
0.984487
0.894792
0.674948
0.417698
0.395312
0.63054
0.776744
6.86118
64.3745
112.563
374.798
1.35518
1.29027
1.15829
1.0302
0.959203
0.935307
0.943591
0.953131
0.92958
0.852066
0.698449
0.519536
0.466601
0.629537
0.612966
20.0794
244.042
224.736
8.66954
1.39669
1.37386
1.29181
1.18291
1.08578
1.01688
0.97321
0.939671
0.893971
0.81538
0.69464
0.589423
0.585882
0.68212
0.655362
28.6008
257.895
263.029
8.4417
1.43309
1.43754
1.38523
1.28943
1.17911
1.07848
0.998044
0.932464
0.865844
0.775646
0.658874
0.582785
0.611096
0.684846
0.575317
91.8522
274.557
277.661
8.21835
1.47395
1.50098
1.46981
1.38208
1.25791
1.12684
1.01589
0.925665
0.842925
0.743416
0.619255
0.548314
0.586587
0.638978
0.500185
265.194
290.368
114.84
7.90403
1.52017
1.57198
1.56003
1.47546
1.32346
1.16344
1.02402
0.914745
0.822823
0.721216
0.598851
0.531842
0.571658
0.606635
0.525499
252.442
305.187
10.733
7.56653
1.56866
1.65162
1.66194
1.57186
1.39234
1.18886
1.01853
0.894948
0.801714
0.708225
0.601535
0.548942
0.592469
0.604014
0.541346
33.6125
317.494
9.1697
7.45308
1.61485
1.73912
1.78436
1.6938
1.46011
1.19753
0.992319
0.859744
0.773387
0.697641
0.618566
0.590338
0.645975
0.647816
0.585587
0.244502
325.761
21.7388
7.64041
1.6504
1.82916
1.9308
1.8424
1.52382
1.17647
0.932916
0.800098
0.729922
0.678964
0.632612
0.636222
0.717768
0.765082
0.79655
0.733842
327.214
99.8261
10.2141
1.66012
1.92316
2.10582
2.02553
1.58195
1.0976
0.8192
0.708464
0.664868
0.64147
0.631802
0.662937
0.764592
0.882864
1.03896
1.22917
97.8608
144.204
17.3783
1.61077
1.96627
2.30096
2.30002
1.59556
0.935393
0.611874
0.568824
0.574666
0.583302
0.605589
0.662687
0.774554
0.950753
1.18324
1.4896
2.76187
25.7479
18.8994
1.4613
1.98119
4.71601
12.7039
7.80342
0.971783
0.259598
0.37687
0.46138
0.509324
0.564038
0.638702
0.753162
0.930024
1.24088
1.52551
2.20773
1.14768
3.50515
1.16498
3.1866
20.0788
23.0762
21.7559
2.19956
-0.181983
0.15069
0.333329
0.421842
0.508516
0.596057
0.699579
0.82574
1.6516
16.7399
1.71592
0.0286982
-0.0418111
0.849839
10.4999
23.3926
22.9972
21.5876
11.6466
-0.543543
-0.0661337
0.197706
0.335576
0.447051
0.544813
0.635352
0.707814
1.7574
153.353
66.0366
-0.327251
-0.269088
1.54344
19.7626
23.3131
22.8079
21.612
21.3833
-0.58276
-0.235654
0.0781301
0.255601
0.386344
0.494157
0.586994
0.64761
1.55703
188.105
186.238
-0.319936
-0.417163
4.01761
21.9746
23.0798
18.0689
21.9758
21.2955
-0.914568
-0.347429
-0.00326508
0.192901
0.331692
0.444417
0.544019
0.631884
2.91432
195.26
193.372
-0.500905
-0.488367
6.18874
21.6974
14.5965
-0.991572
10.3528
17.6082
-0.806192
-0.360252
-0.034938
0.154246
0.286756
0.389193
0.472029
0.584384
2.8937
201.774
65.4251
-0.548389
-0.552544
5.60158
19.0076
-0.584691
-1.0282
-1.2567
7.58374
1.5409
-0.29152
-0.0221406
0.141927
0.2552
0.327057
0.357384
0.452651
34.8743
207.557
-0.8269
-0.65036
-0.61926
3.52206
1.92599
-1.00029
-1.08125
-1.11131
2.61893
8.89729
-0.229107
0.0172972
0.154233
0.242114
0.276511
0.254279
0.453272
162.557
213.398
3.93427
-0.649247
-0.667795
1.25791
-0.0605064
-1.16731
-1.14131
-1.07308
4.11596
9.20288
-0.123271
0.0752372
0.188959
0.250043
0.265272
0.214122
0.904198
204.295
195.936
7.21569
-0.746095
-0.717384
-0.293503
0.672213
-1.3753
-1.24132
-1.00646
1.81264
7.44487
0.0248263
0.161801
0.243548
0.271674
0.27682
0.253998
2.48926
205.303
16.7623
3.05626
-0.809678
-0.762843
-1.09776
1.11692
-0.588154
-1.18962
-0.84534
-0.455863
1.44223
4.83734
0.27623
0.317054
0.29505
0.26166
0.274672
19.4757
205.541
0.950299
-0.843843
-0.832327
-0.788868
-1.43865
-0.424244
-0.0605059
-0.17924
-0.687553
-0.258547
4.06137
7.11559
0.389615
0.399162
0.311663
0.222148
0.266888
76.3549
107.44
3.14466
-0.878643
-0.821328
-0.797755
-1.1613
-1.42922
0.0457278
-0.228216
-0.519655
-0.145966
1.7486
10.0631
10.5142
1.56681
0.328501
0.198125
1.67023
83.2387
0.00994024
0.15505
-0.848693
-0.81241
-0.795836
-0.86096
-1.07182
-0.791369
-0.834082
-0.383587
-0.0653847
0.0372981
8.69568
19.9382
18.5996
0.325128
0.254511
13.5655
85.5164
0.650618
-0.848508
-0.810919
-0.797246
-0.787954
-0.597682
-0.728774
-0.72799
-0.560931
-0.268283
-0.0141516
0.0311263
0.870451
19.9092
20.1342
3.36588
0.345772
27.453
3.5874
-0.276076
-0.772351
-0.774886
-0.778706
-0.777544
-0.395948
-0.458679
-0.444435
-0.326067
-0.135438
0.0228739
0.0397531
-0.00536766
0.9587
17.5655
3.50776
4.843
22.07
-0.60072
-0.716564
-0.725001
-0.752042
-0.764519
-0.768723
-0.251964
-0.271349
-0.243835
-0.157722
-0.041607
0.0447796
0.0374815
0.00454879
0.0125529
0.155108
14.721
18.3845
-0.309243
-0.539737
-0.675314
-0.69818
-0.738881
-0.75654
-0.764011
-0.152899
-0.15144
-0.120433
-0.0589602
0.00945421
0.0494999
0.0195372
0.0174018
-0.140098
2.59839
21.4554
19.0719
-0.39561
-0.505244
-0.665813
-0.687417
-0.735052
-0.754633
-0.763514
-0.0859812
-0.0780877
-0.0525495
-0.0102177
0.0279234
0.0417831
0.00225395
0.0279831
-0.16675
0.0774919
21.9387
0.223676
-0.525017
-0.515833
-0.692775
-0.693592
-0.738148
-0.757105
-0.766043
-0.0398476
-0.0333178
-0.0182388
0.00586844
0.0229096
0.0284844
-0.0145415
0.000385756
-0.156314
0.0387047
18.933
-0.345379
-0.729592
-0.583139
-0.72442
-0.712894
-0.747589
-0.765568
-0.774315
-0.00898256
-0.00526364
0.00074709
0.00890685
0.0128492
0.0107333
-0.0210792
-0.0133005
-0.160674
-0.195192
1.12884
-0.763711
-0.946887
-0.666073
-0.74873
-0.741245
-0.769187
-0.787894
-0.796898
)
;

boundaryField
{
    leftWall
    {
        type            fixedFluxPressure;
        gradient        uniform 0;
        value           nonuniform List<scalar> 
50
(
724.779
724.831
724.858
724.863
724.755
724.353
723.636
723.45
724.287
732.062
118.175
1.7014
1.7135
1.6929
1.63251
1.57503
1.52882
1.48276
1.43243
1.37983
1.32605
1.27158
1.21698
1.16238
1.10748
1.05199
0.995736
0.938665
0.88081
0.822317
0.76345
0.704578
0.646139
0.588623
0.532543
0.4784
0.426646
0.377664
0.331741
0.289057
0.249676
0.213575
0.180589
0.150469
0.122964
0.0977231
0.0743043
0.0522068
0.0312379
0.00942531
)
;
    }
    rightWall
    {
        type            fixedFluxPressure;
        gradient        uniform 0;
        value           nonuniform List<scalar> 
50
(
1879.68
1869.06
1846.51
1813.8
1779.66
1751.88
1737.23
1739.84
1743.5
1708.92
1677.12
1679.32
1684.87
1676.84
1678.33
1707.9
1750.58
1596.86
374.798
8.66954
8.4417
8.21835
7.90403
7.56653
7.45308
7.64041
10.2141
17.3783
18.8994
3.50515
-0.0418111
-0.269088
-0.417163
-0.488367
-0.552544
-0.61926
-0.667795
-0.717384
-0.762843
-0.788868
-0.797755
-0.795836
-0.787954
-0.777544
-0.768723
-0.764011
-0.763514
-0.766043
-0.774315
-0.796898
)
;
    }
    lowerWall
    {
        type            fixedFluxPressure;
        gradient        uniform 0;
        value           nonuniform List<scalar> 
62
(
724.779
724.562
724.376
724.12
723.616
722.876
721.995
721.124
720.352
719.697
719.126
718.612
718.147
717.73
717.36
717.026
716.702
716.331
715.82
715.168
714.759
714.965
715.492
715.492
714.975
715.34
715.676
715.461
714.722
713.012
710.284
667.777
684.027
709.777
795.093
895.257
894.556
893.133
885.77
875.337
819.808
782.878
778.406
895.257
905.372
898.189
863.628
899.317
978.024
956.966
893.13
884.588
1013.51
1233.16
1351.32
1350.8
1355.14
1360.22
1369.65
1503.04
1749.32
1879.68
)
;
    }
    atmosphere
    {
        type            totalPressure;
        rho             rho;
        psi             none;
        gamma           1;
        p0              uniform 0;
        value           nonuniform List<scalar> 
46
(
0
0
0
0
0
0
0
0
0
0
0
0
0
0
0
0
0
0
0
0
0
0
0
0
0
0
0
0
0
0
0
0
-0.000981673
-0.0210131
-0.00928417
-0.130578
-0.273315
0
-0.85314
-1.04352
-0.678613
-0.755358
-0.75861
-0.788029
-0.808836
-0.818161
)
;
    }
    defaultFaces
    {
        type            empty;
    }
}


// ************************************************************************* //
