/*--------------------------------*- C++ -*----------------------------------*\
| =========                 |                                                 |
| \\      /  F ield         | OpenFOAM: The Open Source CFD Toolbox           |
|  \\    /   O peration     | Version:  2206                                  |
|   \\  /    A nd           | Website:  www.openfoam.com                      |
|    \\/     M anipulation  |                                                 |
\*---------------------------------------------------------------------------*/
FoamFile
{
    version     2.0;
    format      ascii;
    arch        "LSB;label=32;scalar=64";
    class       surfaceScalarField;
    location    "0.325";
    object      alphaPhi0.water;
}
// * * * * * * * * * * * * * * * * * * * * * * * * * * * * * * * * * * * * * //

dimensions      [0 3 -1 0 0 0 0];

oriented        oriented;

internalField   nonuniform List<scalar> 
4432
(
-1.54884e-06
1.54884e-06
1.53579e-06
-3.08463e-06
7.4209e-06
-5.88511e-06
1.40534e-05
-6.63248e-06
2.01408e-05
-6.08741e-06
2.52501e-05
-5.10928e-06
2.944e-05
-4.18996e-06
3.29374e-05
-3.49731e-06
3.59609e-05
-3.02353e-06
3.86482e-05
-2.68732e-06
4.10385e-05
-2.39032e-06
4.30854e-05
-2.04692e-06
4.46599e-05
-1.57447e-06
4.55533e-05
-8.93398e-07
4.52584e-05
2.94879e-07
4.28095e-05
2.44895e-06
3.71668e-05
5.64269e-06
2.71407e-05
1.00261e-05
1.28546e-05
1.42861e-05
-2.64674e-06
1.56923e-05
-1.07461e-05
9.56681e-06
-1.31555e-05
1.97483e-06
-1.57497e-05
-1.48691e-06
3.03574e-06
1.7073e-06
-6.27885e-06
7.62851e-06
-1.18063e-05
1.42379e-05
-1.32419e-05
2.02857e-05
-1.21352e-05
2.53636e-05
-1.01872e-05
2.95443e-05
-8.37071e-06
3.30607e-05
-7.01368e-06
3.61284e-05
-6.09119e-06
3.88768e-05
-5.43569e-06
4.1338e-05
-4.85152e-06
4.34596e-05
-4.16852e-06
4.51367e-05
-3.25163e-06
4.62249e-05
-1.98163e-06
4.67592e-05
-2.39408e-07
4.6943e-05
2.26512e-06
4.6391e-05
6.19474e-06
4.36065e-05
1.28106e-05
3.56257e-05
2.22669e-05
2.0272e-05
3.1046e-05
4.1586e-07
3.02794e-05
-6.38318e-06
9.23008e-06
-2.21083e-05
-1.29748e-06
4.33322e-06
1.99033e-06
-9.56666e-06
7.93201e-06
-1.7748e-05
1.44509e-05
-1.97607e-05
2.03628e-05
-1.80472e-05
2.53201e-05
-1.51444e-05
2.94299e-05
-1.24805e-05
3.29347e-05
-1.05185e-05
3.60413e-05
-9.19777e-06
3.88618e-05
-8.25623e-06
4.1413e-05
-7.40273e-06
4.36365e-05
-6.39193e-06
4.54231e-05
-5.03825e-06
4.66295e-05
-3.18809e-06
4.70798e-05
-6.89708e-07
4.66833e-05
2.66169e-06
4.56439e-05
7.23415e-06
4.46137e-05
1.38408e-05
4.30136e-05
2.38669e-05
3.74316e-05
3.66281e-05
2.49704e-05
4.27406e-05
1.00312e-05
2.423e-05
-1.20369e-05
-1.03292e-06
5.36614e-06
2.40228e-06
-1.30019e-05
8.35173e-06
-2.36974e-05
1.47331e-05
-2.61421e-05
2.04508e-05
-2.37649e-05
2.5245e-05
-1.99386e-05
2.92708e-05
-1.65063e-05
3.27779e-05
-1.40257e-05
3.59551e-05
-1.2375e-05
3.88887e-05
-1.11898e-05
4.15738e-05
-1.00879e-05
4.39413e-05
-8.75935e-06
4.588e-05
-6.97696e-06
4.72552e-05
-4.56331e-06
4.79183e-05
-1.35279e-06
4.77245e-05
2.85541e-06
4.66155e-05
8.34317e-06
4.50215e-05
1.54348e-05
4.41722e-05
2.47163e-05
4.35204e-05
3.72799e-05
3.76411e-05
4.86199e-05
2.17322e-05
4.01375e-05
9.55223e-06
-6.83189e-07
6.04933e-06
2.91975e-06
-1.66048e-05
8.84807e-06
-2.96258e-05
1.50406e-05
-3.23347e-05
2.05142e-05
-2.92384e-05
2.51174e-05
-2.45417e-05
2.90587e-05
-2.04476e-05
3.25885e-05
-1.75555e-05
3.58674e-05
-1.56538e-05
3.89475e-05
-1.42699e-05
4.17988e-05
-1.29392e-05
4.43398e-05
-1.13004e-05
4.64602e-05
-9.09735e-06
4.80364e-05
-6.13945e-06
4.89421e-05
-2.25847e-06
4.90692e-05
2.72824e-06
4.83624e-05
9.04998e-06
4.68482e-05
1.6949e-05
4.51687e-05
2.63958e-05
4.45498e-05
3.78987e-05
4.16789e-05
5.14908e-05
2.7571e-05
5.42454e-05
3.69795e-05
-2.48755e-07
6.29808e-06
3.52314e-06
-2.03767e-05
9.39744e-06
-3.55001e-05
1.53513e-05
-3.82886e-05
2.05435e-05
-3.44306e-05
2.49452e-05
-2.89435e-05
2.88162e-05
-2.43186e-05
3.23961e-05
-2.11355e-05
3.58064e-05
-1.90641e-05
3.90596e-05
-1.75231e-05
4.20989e-05
-1.59785e-05
4.48321e-05
-1.40336e-05
4.71519e-05
-1.14171e-05
4.89463e-05
-7.93385e-06
5.0106e-05
-3.41826e-06
5.05441e-05
2.29015e-06
5.02259e-05
9.3682e-06
4.91492e-05
1.80257e-05
4.7245e-05
2.83e-05
4.53078e-05
3.98359e-05
4.2405e-05
5.43936e-05
3.01188e-05
6.65316e-05
6.69566e-05
2.06111e-07
6.09197e-06
4.19529e-06
-2.43659e-05
9.9856e-06
-4.12904e-05
1.5659e-05
-4.3962e-05
2.05496e-05
-3.93213e-05
2.47586e-05
-3.31525e-05
2.85872e-05
-2.81472e-05
3.22505e-05
-2.47987e-05
3.58213e-05
-2.26349e-05
3.92697e-05
-2.09716e-05
4.2514e-05
-1.92228e-05
4.54546e-05
-1.69743e-05
4.79888e-05
-1.39512e-05
5.00142e-05
-9.95928e-06
5.1434e-05
-4.83801e-06
5.21687e-05
1.55541e-06
5.21929e-05
9.34401e-06
5.15237e-05
1.86949e-05
4.9962e-05
2.98616e-05
4.73881e-05
4.24099e-05
4.35311e-05
5.82505e-05
3.31426e-05
7.69201e-05
9.99586e-05
6.91735e-07
5.40023e-06
4.91226e-06
-2.85864e-05
1.05917e-05
-4.69698e-05
1.59648e-05
-4.93351e-05
2.05629e-05
-4.39194e-05
2.46116e-05
-3.72011e-05
2.84384e-05
-3.19741e-05
3.22208e-05
-2.85811e-05
3.59776e-05
-2.63918e-05
3.9638e-05
-2.46319e-05
4.31007e-05
-2.26854e-05
4.62642e-05
-2.01378e-05
4.90322e-05
-1.67191e-05
5.13068e-05
-1.22339e-05
5.29882e-05
-6.51939e-06
5.40111e-05
5.32515e-07
5.43521e-05
9.00305e-06
5.4028e-05
1.9019e-05
5.29512e-05
3.09384e-05
5.06684e-05
4.46926e-05
4.6255e-05
6.26639e-05
3.64259e-05
8.67493e-05
0.000136246
1.1451e-21
-1.72619e-20
1.89294e-21
-1.5176e-20
2.5305e-22
-1.43108e-21
1.80693e-23
-9.42534e-23
1.82651e-24
-5.64742e-24
3.48784e-25
-6.04713e-25
6.47567e-26
-9.57849e-26
6.59158e-27
-1.12725e-26
3.20871e-28
-6.46751e-28
1.75833e-29
-1.6484e-29
3.25559e-31
-1.58265e-31
2.2644e-32
6.95876e-33
6.69708e-34
6.34363e-34
1.81724e-35
3.37676e-35
4.20875e-37
1.38199e-36
6.87709e-39
4.30125e-38
6.46245e-41
9.49374e-40
2.33443e-41
1.21526e-41
1.06333e-42
2.76598e-20
-2.21507e-19
2.22976e-19
-2.28471e-18
3.47761e-20
-3.7322e-19
2.75721e-21
-3.99511e-20
3.08177e-22
-2.08701e-21
7.2581e-23
-2.10644e-22
1.50771e-23
-3.36917e-23
1.56732e-24
-4.00714e-24
8.60439e-26
-2.41939e-25
5.37452e-27
-7.67423e-27
1.05616e-28
-1.59865e-28
9.32517e-30
4.99714e-30
3.07695e-31
6.97941e-31
8.51324e-33
4.59583e-32
2.23977e-34
2.20458e-33
4.29652e-36
8.06837e-35
4.94957e-38
2.10754e-36
3.01176e-40
3.48261e-38
2.79959e-40
3.29252e-19
-2.15379e-18
2.74054e-18
-6.01358e-18
2.62766e-18
-8.47088e-18
1.98986e-19
-1.45147e-18
2.62629e-20
-2.47921e-19
7.47755e-21
-4.57286e-20
1.56813e-21
-7.16646e-21
1.57957e-22
-5.97712e-22
1.05461e-23
-3.56427e-23
8.11813e-25
-1.38457e-24
1.34398e-26
-5.66539e-26
5.78213e-28
9.84344e-28
4.36259e-29
1.05789e-28
8.22557e-31
6.97408e-30
1.94648e-32
3.10212e-31
3.53624e-34
1.07524e-32
4.7171e-36
2.68335e-34
3.92341e-38
4.39311e-36
3.61536e-38
1.18587e-18
-1.76349e-17
7.62708e-18
-1.14373e-17
2.8759e-17
1.11562e-17
3.42725e-18
-1.09578e-17
1.16282e-18
-5.09299e-18
5.76859e-19
-1.37752e-18
1.2334e-19
-8.6321e-19
1.07824e-20
-9.17813e-20
8.66205e-22
-3.94585e-21
7.95049e-23
-1.53252e-22
2.49843e-24
-7.87668e-24
3.83346e-26
9.98889e-26
4.35234e-27
9.42506e-27
6.22607e-29
6.82511e-28
1.34558e-30
2.91959e-29
2.76073e-32
9.88771e-31
4.37177e-34
2.47928e-32
3.67379e-36
4.13335e-34
3.40909e-36
6.76509e-19
3.20778e-17
1.87316e-16
4.60278e-16
4.84697e-16
-5.18682e-16
2.33714e-17
6.65289e-17
1.24642e-17
-1.54985e-17
1.83292e-17
7.45283e-18
4.80756e-18
-6.40676e-18
6.82941e-19
-1.81553e-18
6.453e-20
-4.4351e-19
5.63075e-21
-1.44154e-20
2.39252e-22
-6.27143e-22
2.71031e-24
8.28592e-24
2.07187e-25
7.82414e-25
4.25911e-27
5.65528e-26
9.61543e-29
2.49579e-27
2.46765e-30
8.57442e-29
4.06517e-32
2.25588e-30
3.47312e-34
3.87018e-32
3.26983e-34
-8.27632e-16
8.89818e-16
6.51442e-15
-5.27545e-15
2.19452e-14
-2.56721e-14
1.88789e-16
1.94387e-14
9.49064e-17
6.74704e-17
5.89233e-16
-5.84843e-16
9.09759e-17
4.29803e-16
2.40877e-17
1.22753e-16
5.41087e-18
-3.80432e-18
3.08554e-19
-9.26831e-19
1.7929e-20
-2.76245e-20
1.74225e-22
5.58145e-22
1.11384e-23
5.71465e-23
2.75185e-25
4.16906e-24
7.80994e-27
1.92288e-25
2.08798e-28
7.01445e-27
3.59914e-30
1.92565e-28
3.19336e-32
3.44775e-30
3.03653e-32
-1.44952e-14
1.20291e-14
1.70295e-13
-3.97869e-14
6.38345e-13
-8.6384e-13
1.15785e-14
2.65384e-13
2.4799e-15
4.60166e-15
2.4267e-14
-2.47417e-14
4.2963e-15
1.91137e-14
1.06942e-15
2.90245e-15
1.39047e-16
7.17793e-16
1.38529e-17
3.24389e-17
1.06618e-18
-1.47194e-18
1.02556e-20
3.19877e-20
6.17292e-22
3.71723e-21
1.70612e-23
2.80411e-22
5.84758e-25
1.36085e-23
1.64971e-26
5.29621e-25
2.99855e-28
1.53104e-26
2.81574e-30
2.88687e-28
2.73979e-30
2.03947e-12
-3.57534e-10
2.30717e-12
9.01774e-12
1.62454e-11
-2.80314e-11
2.27757e-13
2.25574e-12
7.88043e-14
5.94177e-14
9.58969e-13
-1.01429e-12
1.63527e-13
7.58159e-13
4.76415e-14
1.01849e-13
9.74405e-15
3.40127e-14
8.55811e-16
7.90523e-15
5.02665e-17
4.34419e-16
5.93983e-19
1.94911e-18
3.58016e-20
2.31085e-19
1.08174e-21
1.8187e-20
4.26563e-23
9.38533e-22
1.28956e-24
3.90141e-23
2.49404e-26
1.23352e-24
2.53052e-28
2.45662e-26
2.49231e-28
3.15331e-06
2.24692e-06
1.28093e-05
-3.82424e-05
2.45136e-05
-5.86741e-05
3.49611e-05
-5.97826e-05
4.38644e-05
-5.28227e-05
5.21217e-05
-4.54584e-05
6.04206e-05
-4.0273e-05
6.894e-05
-3.71004e-05
7.75358e-05
-3.49876e-05
8.59561e-05
-3.30522e-05
9.39643e-05
-3.06936e-05
0.000101372
-2.75451e-05
0.000108016
-2.33633e-05
0.000113733
-1.7951e-05
0.000118329
-1.11157e-05
0.000121589
-2.72737e-06
0.000123491
7.10116e-06
0.000124088
1.84216e-05
0.000123454
3.15732e-05
0.000121522
4.66245e-05
0.000118657
6.55284e-05
0.000119953
8.54532e-05
0.000129141
0.000127058
5.67728e-06
-3.43036e-06
1.63422e-05
-4.89074e-05
2.70414e-05
-6.93732e-05
3.59729e-05
-6.87139e-05
4.38605e-05
-6.07103e-05
5.18792e-05
-5.3477e-05
6.0505e-05
-4.88987e-05
6.95985e-05
-4.61939e-05
7.87986e-05
-4.41876e-05
8.77911e-05
-4.20447e-05
9.63799e-05
-3.92824e-05
0.000104451
-3.56157e-05
0.000111914
-3.08268e-05
0.000118707
-2.47444e-05
0.000124906
-1.73145e-05
0.000130383
-8.20393e-06
0.000134347
3.13722e-06
0.000137549
1.52196e-05
0.000139822
2.92996e-05
0.000142289
4.41579e-05
0.000147481
6.03361e-05
0.000158977
7.39572e-05
0.000103109
0.000185008
9.30269e-06
-1.2733e-05
2.08404e-05
-6.0445e-05
2.95357e-05
-7.8066e-05
3.63188e-05
-7.54948e-05
4.32183e-05
-6.76078e-05
5.12163e-05
-6.14734e-05
6.02008e-05
-5.78819e-05
6.96729e-05
-5.56648e-05
7.91571e-05
-5.36702e-05
8.841e-05
-5.12947e-05
9.73575e-05
-4.82259e-05
0.000106
-4.42538e-05
0.000114309
-3.91327e-05
0.000122154
-3.25876e-05
0.00012931
-2.44698e-05
0.000135927
-1.48212e-05
0.000143057
-3.99278e-06
0.00014858
9.69631e-06
0.000152935
2.49452e-05
0.000157951
3.91413e-05
0.000165468
5.282e-05
0.000175471
6.39536e-05
7.87588e-05
0.000199822
1.51353e-05
-2.78681e-05
2.83387e-05
-7.36272e-05
3.30623e-05
-8.27362e-05
3.63548e-05
-7.87355e-05
4.22879e-05
-7.34958e-05
5.07333e-05
-6.9877e-05
6.06292e-05
-6.77383e-05
7.0913e-05
-6.5911e-05
8.0956e-05
-6.10896e-05
8.99081e-05
-5.3577e-05
9.74273e-05
-4.48619e-05
0.000103328
-3.58487e-05
0.000107854
-2.73324e-05
0.000111803
-1.9878e-05
0.000116265
-1.36725e-05
0.000122074
-8.40824e-06
0.000128794
-3.41316e-06
0.000140965
2.12554e-06
0.000155392
1.11459e-05
0.000167576
2.48585e-05
0.000176975
4.34205e-05
0.000184181
5.6748e-05
6.37307e-05
0.000199209
2.42044e-05
-5.20526e-05
3.4334e-05
-5.97715e-05
3.14462e-05
-3.74097e-05
3.06278e-05
-3.54411e-05
3.36376e-05
-3.30385e-05
3.81134e-05
-2.83014e-05
4.15546e-05
-2.27784e-05
4.20491e-05
-9.08477e-06
3.83835e-05
-4.86127e-07
3.37491e-05
-2.87316e-08
2.85412e-05
-1.89957e-09
2.32214e-05
-1.4591e-10
1.81868e-05
-3.48579e-11
1.38353e-05
-1.3648e-10
1.05822e-05
-5.40026e-10
8.74727e-06
-6.50877e-10
8.60897e-06
-5.30002e-10
1.33867e-05
1.1452e-07
2.52548e-05
4.22581e-07
4.86205e-05
5.42736e-07
8.87818e-05
7.45784e-07
0.000136775
4.50821e-06
2.06433e-05
0.000175208
1.89552e-05
-1.59048e-05
4.73017e-06
-2.33063e-07
4.68251e-06
-4.11195e-09
4.56199e-06
-9.81843e-11
3.58705e-06
-2.54631e-12
2.43066e-06
-7.01338e-14
2.05278e-06
-2.19537e-15
5.16918e-07
-6.78523e-16
3.07912e-08
-1.4759e-15
2.05964e-09
-7.9463e-16
1.60406e-10
-3.54907e-13
1.44999e-11
-1.96627e-14
7.51388e-12
-7.01575e-12
2.62148e-11
-1.15039e-10
9.84049e-11
-5.75589e-10
1.71403e-10
-6.76271e-10
2.33476e-10
-5.0068e-10
1.13343e-07
1.51081e-09
5.20994e-07
1.36854e-08
1.01276e-06
4.8549e-08
1.65982e-06
9.36244e-08
5.49056e-06
1.90616e-07
3.21833e-07
2.41456e-05
2.37276e-07
4.53568e-23
4.21276e-09
-6.58521e-22
1.00803e-10
-3.64839e-20
2.61841e-12
-1.66245e-18
7.21248e-14
-2.76944e-17
2.15025e-15
-1.64826e-16
6.18275e-17
-1.45741e-16
1.18947e-16
-8.02062e-16
1.90301e-16
-9.34867e-16
2.93742e-16
-4.58139e-16
1.41948e-14
-3.68243e-13
2.41984e-14
-4.09803e-14
3.09525e-11
-3.79597e-11
3.66729e-10
-4.37266e-10
1.49472e-09
-1.65897e-09
1.84321e-09
-9.33354e-10
4.03221e-09
-4.97506e-09
3.6851e-09
-7.80954e-11
1.59983e-08
-7.30371e-10
5.64153e-08
5.91182e-09
1.38724e-07
8.71262e-09
3.13388e-07
1.33829e-08
1.11215e-08
6.48917e-07
-3.56291e-24
7.01945e-23
-2.27463e-22
-4.34621e-22
1.47816e-22
-3.68751e-20
2.49573e-20
-1.68843e-18
5.50159e-19
-2.82898e-17
3.30225e-18
-1.68653e-16
2.58935e-17
-3.07875e-16
6.3118e-16
-3.71213e-15
6.90337e-16
-2.55305e-15
2.15564e-15
-1.36145e-15
3.00445e-13
-6.63932e-13
5.80122e-13
-3.27326e-13
4.33481e-10
-4.70982e-10
5.46159e-09
-5.27501e-09
4.35095e-08
-4.59589e-08
9.83239e-08
-6.33083e-08
9.98718e-08
-3.54653e-08
5.29942e-08
-6.60913e-09
1.67566e-08
1.13739e-08
1.40273e-08
5.30779e-09
1.53524e-08
5.39923e-09
2.32093e-08
7.46855e-09
1.26042e-08
4.69764e-08
-2.85747e-23
1.27022e-22
-3.2169e-24
-5.45705e-22
6.88821e-21
-7.85749e-20
6.70045e-19
-4.68237e-18
1.4818e-17
-7.7709e-17
1.03915e-16
-4.21608e-16
3.72547e-16
-1.04734e-15
2.50316e-15
-4.30305e-15
5.6208e-15
-1.26186e-14
2.05506e-14
-1.56016e-14
5.06366e-12
-1.65058e-11
6.94167e-12
-2.24602e-12
1.00543e-08
-6.3295e-09
6.62626e-08
-6.92357e-08
9.13985e-08
-9.32028e-08
1.07126e-07
-8.09996e-08
1.01931e-07
-4.64549e-08
8.41422e-08
-7.16033e-09
1.6192e-08
1.12448e-08
1.24598e-08
7.34377e-09
9.83634e-09
6.76335e-09
1.42549e-08
5.5134e-09
6.56803e-09
4.43478e-08
-2.2922e-24
2.00046e-22
7.58745e-23
-4.30888e-22
1.96321e-20
-1.06632e-19
2.3254e-18
-9.73835e-18
4.68593e-17
-1.57203e-16
2.32976e-16
-6.88352e-16
5.92355e-16
-1.45154e-15
2.61017e-15
-2.83651e-15
2.34475e-14
-8.20531e-14
1.9308e-13
-1.83294e-13
2.88915e-11
-6.25726e-11
2.98201e-11
-3.40101e-12
2.16084e-08
-6.83718e-09
4.08452e-08
-1.03192e-07
4.37585e-08
-9.84345e-08
5.27392e-08
-8.68751e-08
1.67276e-08
-4.98668e-08
6.42045e-10
-4.19046e-09
5.91404e-09
2.44266e-09
7.22796e-09
4.77571e-09
8.53789e-09
4.7934e-09
1.06951e-08
2.49666e-09
1.51354e-08
2.36244e-07
-1.22219e-23
2.99403e-22
5.23487e-23
2.76464e-22
2.32444e-20
-1.09777e-19
3.34015e-18
-1.20637e-17
6.36474e-17
-1.9337e-16
2.74487e-16
-8.23956e-16
5.4995e-16
-1.58563e-15
2.26956e-15
-1.23263e-15
9.45198e-14
-3.03899e-13
2.29349e-13
-3.27775e-13
2.25265e-11
-6.08493e-11
2.69801e-11
-8.1934e-12
6.57474e-09
-1.5924e-12
1.50833e-08
-2.18013e-14
9.03505e-09
-8.15584e-08
7.55008e-09
-8.30026e-08
3.50707e-09
-1.31913e-07
3.21399e-09
-3.6856e-08
4.87362e-09
-6.4737e-09
2.9579e-08
2.15836e-09
1.74443e-07
1.69614e-08
2.0467e-07
1.0865e-08
-4.75336e-10
2.53415e-07
-2.06719e-23
4.12355e-22
-2.08045e-23
9.00844e-22
2.34575e-20
-8.95697e-20
3.6624e-18
-1.24251e-17
6.76005e-17
-1.99516e-16
1.98852e-16
-7.99303e-16
4.61283e-16
-1.58525e-15
4.71134e-16
-1.25355e-15
1.87348e-13
-3.66438e-13
2.14755e-12
-2.21086e-12
8.06997e-12
-4.22896e-11
1.33743e-12
-4.50361e-12
1.95274e-14
-2.79802e-13
6.03774e-16
-9.56944e-15
1.98322e-09
3.18426e-15
6.08563e-09
5.59422e-16
1.63684e-08
1.41929e-18
4.36485e-08
-3.33229e-08
7.11671e-08
-1.32059e-08
8.86878e-08
-2.03619e-09
1.25306e-07
-3.74231e-10
1.63815e-08
-1.49181e-10
-1.51982e-11
4.5753e-09
-2.75368e-23
5.14652e-22
-6.7192e-23
1.63631e-21
1.49898e-20
-3.71296e-20
3.39316e-18
-9.21545e-18
6.05896e-17
-1.48033e-16
2.34494e-16
-5.36979e-16
4.52222e-16
-1.46986e-15
4.1133e-16
-1.28676e-15
4.59859e-13
-3.90286e-13
1.3629e-12
-3.10638e-12
2.18208e-12
-3.75598e-12
-2.15536e-14
-2.8417e-12
-1.5106e-15
-4.05524e-13
1.05371e-15
-2.00282e-14
-4.25805e-16
5.01997e-15
-6.44053e-17
2.09741e-15
-2.42928e-19
-4.4654e-17
6.54188e-09
-6.82804e-15
5.14711e-09
-1.34403e-14
1.27033e-09
-1.8453e-14
1.65053e-10
-2.07178e-14
1.59222e-11
-4.65354e-14
-1.27971e-13
9.17596e-13
-3.07115e-23
5.75624e-22
-1.18137e-22
2.31295e-21
5.15763e-21
-7.50237e-21
1.89642e-18
-3.59521e-18
3.36683e-17
-5.89676e-17
1.37759e-16
-2.46449e-16
3.70146e-16
-1.2853e-15
3.90683e-16
-1.37928e-15
1.09289e-13
-1.38098e-15
9.72685e-13
-2.31957e-12
4.76369e-13
-4.00137e-12
4.20119e-13
-3.44098e-12
5.75675e-14
-1.33773e-12
9.29353e-15
-4.1449e-14
-1.23059e-15
2.57942e-15
-5.08471e-16
2.38583e-15
9.35328e-17
-6.46658e-16
1.67805e-16
-6.85745e-15
5.3892e-16
-1.36477e-14
1.3003e-15
-1.88029e-14
2.39415e-15
-2.10449e-14
5.13913e-15
-4.81592e-14
-1.20227e-13
2.51742e-14
-2.99322e-23
5.70946e-22
-1.59482e-22
2.73295e-21
1.02352e-21
5.97665e-22
6.15099e-19
-8.74798e-19
1.14583e-17
-1.53926e-17
5.99394e-17
-9.13648e-17
3.30056e-16
-1.07875e-15
5.08815e-16
-1.89662e-15
4.8453e-16
-1.51284e-15
1.08362e-12
-4.67823e-13
8.47755e-13
-3.0777e-12
1.10167e-12
-3.18054e-12
1.02386e-13
-1.52681e-12
1.93851e-14
-3.77573e-14
-8.79913e-16
-1.51416e-15
-8.98432e-16
3.04547e-16
1.42627e-15
-2.38309e-15
4.76658e-15
-6.90397e-15
1.07077e-14
-1.07903e-14
1.95412e-14
-1.52174e-14
3.47352e-14
-2.4939e-14
1.26379e-13
-3.30557e-14
-3.55487e-14
4.19245e-13
-2.604e-23
4.95549e-22
-1.78952e-22
2.72717e-21
-5.87438e-23
1.75306e-21
1.32414e-19
-1.40442e-19
2.74801e-18
-2.83444e-18
2.15495e-17
-2.97666e-17
3.21567e-16
-7.76605e-16
5.19518e-16
-2.05546e-15
1.40437e-15
-2.06887e-15
1.5295e-13
-1.1032e-15
1.15843e-12
-1.12413e-12
8.19332e-13
-1.74894e-12
5.75618e-14
-4.82355e-13
1.27036e-15
-1.45831e-14
5.83734e-16
-8.27536e-16
-1.32469e-16
-4.01686e-16
2.17744e-15
-1.13738e-15
6.21909e-15
-1.87615e-15
1.14964e-14
-3.07776e-15
2.03704e-14
-5.70313e-15
3.58708e-14
-2.09658e-14
4.42039e-14
-2.62865e-14
-1.73823e-14
8.02583e-14
-2.01142e-23
3.69398e-22
-1.69101e-22
2.2716e-21
-1.63661e-22
2.07965e-21
1.92848e-20
-1.34171e-20
4.72065e-19
-3.55962e-19
6.7368e-18
-8.32466e-18
1.2818e-16
-3.16786e-16
5.09448e-16
-1.72423e-15
5.94558e-16
-2.0616e-15
3.45796e-16
-1.14484e-15
1.24465e-13
-7.72386e-16
1.36121e-13
-1.78457e-16
2.34768e-14
-1.63694e-16
7.55218e-16
-2.50253e-15
1.69352e-16
-5.64769e-16
1.8415e-16
-9.29716e-17
4.67447e-16
-1.34509e-16
9.05054e-16
-3.60678e-16
1.97028e-15
-9.4751e-16
5.1181e-15
-2.21974e-15
2.15549e-14
-8.4341e-15
2.94952e-14
-2.03072e-14
-1.85741e-14
3.96275e-14
-1.3538e-23
2.30473e-22
-1.33188e-22
1.54078e-21
-1.83984e-22
1.79192e-21
1.85758e-21
-2.94827e-22
5.52804e-20
-2.78966e-20
1.76097e-18
-1.88368e-18
7.74448e-17
-7.73945e-17
4.55913e-16
-8.95448e-16
5.21477e-16
-1.69212e-15
3.21042e-16
-1.18037e-15
6.62729e-17
-5.56605e-16
5.31633e-17
-1.95122e-16
5.64356e-17
-2.00684e-16
5.31109e-16
-2.7227e-16
8.31985e-17
-9.54615e-17
2.49195e-17
-1.38923e-17
5.30286e-17
-2.40555e-17
2.0211e-16
-8.08307e-17
6.56283e-16
-2.87617e-16
1.97716e-15
-9.62184e-16
8.59966e-15
-3.44083e-15
2.03529e-14
-1.73253e-14
-2.03923e-14
3.02106e-14
-7.72414e-24
1.16192e-22
-8.53629e-23
8.21635e-22
-1.50032e-22
1.17435e-21
1.93941e-22
1.43721e-22
4.05599e-21
-1.06213e-21
3.66171e-19
-3.29457e-19
1.70003e-17
-1.40668e-17
1.86288e-16
-1.44594e-16
3.09604e-16
-5.62056e-16
2.99281e-16
-8.1783e-16
9.22923e-17
-5.43307e-16
6.12962e-17
-2.34846e-16
6.78067e-17
-6.15467e-17
4.28345e-17
-8.76197e-18
8.79789e-18
-6.36236e-19
3.55302e-18
-6.87336e-19
1.0015e-17
-2.83353e-18
4.57647e-17
-1.59839e-17
2.01243e-16
-9.42896e-17
8.36116e-16
-4.60905e-16
3.62179e-15
-2.02973e-15
1.72965e-14
-1.37853e-14
-2.33645e-14
2.65266e-14
-3.59588e-24
4.5085e-23
-4.29879e-23
3.28655e-22
-9.29521e-23
5.55713e-22
-1.51652e-23
7.566e-23
1.6075e-22
1.55048e-24
5.88522e-20
-4.58536e-20
2.80256e-18
-2.02689e-18
2.92429e-17
-2.00822e-17
1.06791e-16
-8.77964e-17
1.44379e-16
-2.11521e-16
1.23085e-16
-2.15865e-16
3.9857e-17
-1.38992e-16
5.23331e-18
-4.40745e-17
3.80405e-19
-5.17017e-18
1.30018e-19
-1.81006e-19
1.87239e-19
-6.48405e-20
1.32813e-18
-3.49696e-19
9.38005e-18
-3.70422e-18
6.73209e-17
-3.4181e-17
3.91789e-16
-2.3195e-16
2.05794e-15
-1.16624e-15
1.34285e-14
-6.89775e-15
-1.78363e-14
2.64386e-14
-1.29693e-24
1.25593e-23
-1.62248e-23
9.22812e-23
-4.15288e-23
1.72349e-22
-7.53935e-24
2.19205e-23
-1.92745e-25
9.05943e-25
7.56179e-21
-5.17522e-21
3.73407e-19
-2.50977e-19
3.89429e-18
-3.20067e-18
1.67832e-17
-1.19301e-17
3.19795e-17
-3.46832e-17
3.54891e-17
-3.4076e-17
1.90738e-17
-2.2012e-17
4.23357e-18
-6.95552e-18
1.84331e-19
-7.49164e-19
1.44077e-20
-2.02084e-20
1.47813e-20
-3.04343e-21
1.68086e-19
-5.80129e-20
2.22045e-18
-1.0242e-18
2.38762e-17
-1.2906e-17
1.85251e-16
-1.14562e-16
1.06655e-15
-7.33725e-16
6.01626e-15
-3.73678e-15
-1.12322e-14
1.87325e-14
-3.37101e-25
2.25082e-24
-4.29347e-24
1.6383e-23
-1.21406e-23
3.13767e-23
-2.0595e-24
3.71249e-24
-1.06239e-25
1.91148e-25
7.81664e-22
-3.47481e-22
4.33061e-20
-2.37324e-20
5.79402e-19
-4.45924e-19
2.19913e-18
-1.97691e-18
4.61012e-18
-4.05174e-18
4.87372e-18
-4.14955e-18
2.44168e-18
-2.72856e-18
4.4377e-19
-9.24297e-19
1.8051e-20
-9.08135e-20
3.8866e-22
-2.7503e-21
2.81911e-22
1.89959e-21
2.92803e-20
-1.1648e-20
5.97573e-19
-2.99801e-19
8.49176e-18
-4.76847e-18
8.50066e-17
-5.43523e-17
6.14159e-16
-4.48794e-16
3.23655e-15
-2.63992e-15
-9.20729e-15
1.25018e-14
-5.6469e-26
2.04504e-25
-7.17196e-25
1.50298e-24
-2.07917e-24
3.10863e-24
-3.28174e-25
3.41668e-25
-2.1099e-26
2.43918e-26
4.72019e-23
-4.47265e-25
3.77297e-21
-9.10199e-22
7.58438e-20
-3.44156e-20
3.17031e-19
-1.86466e-19
5.02955e-19
-2.99535e-19
5.60674e-19
-3.85852e-19
2.85529e-19
-2.50044e-19
5.70621e-20
-8.09409e-20
9.334e-21
-2.98542e-21
4.44674e-22
6.13903e-21
-7.23899e-22
3.69625e-21
6.07963e-21
-9.65513e-22
1.6488e-19
-8.93081e-20
2.89559e-18
-1.69526e-18
3.69611e-17
-2.44898e-17
3.3962e-16
-2.51883e-16
2.13617e-15
-1.85413e-15
-6.99249e-15
8.5976e-15
-4.79659e-27
4.74732e-35
-6.17717e-26
2.73429e-33
-1.93291e-25
7.6081e-32
-2.83414e-26
1.4655e-30
-2.52714e-27
1.87323e-29
5.86509e-26
9.04549e-29
1.33001e-22
-4.23005e-24
5.38504e-21
-8.26591e-22
2.48005e-20
-5.78783e-21
3.82726e-20
-1.27854e-20
4.71492e-20
-1.28182e-20
2.32286e-20
-8.39234e-21
5.98163e-21
-1.45421e-21
3.17541e-22
2.67867e-21
-2.00543e-21
5.14743e-21
-1.30728e-21
2.42446e-21
1.64637e-21
1.75419e-22
4.59012e-20
-2.67043e-20
9.38689e-19
-5.74397e-19
1.50171e-17
-1.01503e-17
1.70595e-16
-1.31417e-16
1.31307e-15
-1.13926e-15
-4.83903e-15
5.39772e-15
-1.03969e-36
3.89597e-35
-1.05204e-34
2.27943e-33
-4.42546e-33
6.61961e-32
-1.13711e-31
1.32629e-30
-1.8156e-30
2.03177e-29
-1.05195e-29
2.40317e-28
5.73902e-25
1.02129e-27
1.20369e-22
-9.37002e-25
7.72196e-22
-1.20329e-23
1.27423e-21
-3.6664e-23
1.38963e-21
-4.40705e-23
6.63519e-22
1.68016e-23
1.38671e-22
6.01282e-22
-7.48979e-22
1.99644e-21
-1.55649e-21
2.19097e-21
-7.90121e-22
8.67213e-22
-6.14066e-23
5.37048e-23
1.26291e-20
-7.87813e-21
2.86558e-19
-1.83048e-19
5.52749e-18
-3.76391e-18
7.85497e-17
-6.13414e-17
7.00599e-16
-6.35779e-16
-2.905e-15
3.21911e-15
-7.9478e-37
2.48564e-35
-8.18132e-35
1.473e-33
-3.5891e-33
4.42517e-32
-9.59061e-32
9.15621e-31
-1.83518e-30
1.45819e-29
-2.60407e-29
1.83875e-28
-1.29139e-28
1.82797e-27
1.29163e-25
9.32971e-27
1.6003e-24
1.20794e-26
3.66992e-24
1.10268e-25
4.4711e-24
2.60722e-24
-3.6795e-24
3.09324e-23
-1.43276e-22
1.83527e-22
-5.14931e-22
4.48154e-22
-6.08905e-22
4.43607e-22
-2.58617e-22
1.56492e-22
-1.71162e-23
-8.88153e-24
3.35414e-21
-2.21585e-21
8.11915e-20
-5.34567e-20
1.79493e-18
-1.21315e-18
3.18242e-17
-2.47682e-17
3.35275e-16
-3.0272e-16
-1.4367e-15
1.59757e-15
-4.70535e-37
1.16091e-35
-4.91139e-35
6.92802e-34
-2.22727e-33
2.12412e-32
-6.14468e-32
4.45663e-31
-1.22215e-30
7.23425e-30
-1.84826e-29
9.49924e-29
-2.14305e-28
1.0029e-27
-1.25007e-27
8.26369e-27
-1.82149e-27
5.42326e-26
-1.84892e-26
3.19145e-25
-4.81444e-25
2.02234e-24
-6.24084e-24
1.04484e-23
-4.01876e-23
3.4099e-23
-1.05893e-22
6.64596e-23
-1.1252e-22
5.29557e-23
-4.24065e-23
1.60221e-23
4.41659e-23
-8.3961e-24
8.28283e-22
-5.56119e-22
2.07828e-20
-1.38253e-20
5.00546e-19
-3.32753e-19
1.09666e-17
-8.21544e-18
1.33396e-16
-1.15969e-16
-6.00384e-16
6.52206e-16
-2.03014e-37
3.54811e-36
-2.13666e-35
2.11479e-34
-9.88124e-34
6.48879e-33
-2.76319e-32
1.33825e-31
-5.59993e-31
2.11588e-30
-8.81444e-30
2.73093e-29
-1.08466e-28
2.91953e-28
-1.0205e-27
2.55023e-27
-7.52841e-27
1.77802e-26
-4.9189e-26
9.71193e-26
-3.42625e-25
4.13094e-25
-1.92964e-24
1.37069e-24
-6.8158e-24
3.46859e-24
-1.42864e-23
5.75008e-24
-1.2172e-23
2.53255e-24
-3.91659e-24
5.5251e-25
7.9894e-24
-3.61634e-24
1.79161e-22
-1.19307e-22
4.65154e-21
-3.06713e-21
1.17596e-19
-7.65613e-20
3.06078e-18
-2.17643e-18
4.26618e-17
-3.62602e-17
-2.0526e-16
2.27894e-16
-5.70598e-38
5.39672e-37
-6.00947e-36
3.17526e-35
-2.77807e-34
9.46143e-34
-7.63117e-33
1.80553e-32
-1.50546e-31
2.48258e-31
-2.32749e-30
2.61879e-30
-2.89744e-29
2.20402e-29
-2.88658e-28
1.51984e-28
-2.259e-27
8.7492e-28
-1.36758e-26
4.25145e-27
-6.38046e-26
1.74484e-26
-2.30188e-25
5.93147e-26
-6.28508e-25
1.53927e-25
-1.11648e-24
2.2284e-25
-5.23594e-25
5.41451e-26
-1.20899e-25
1.63849e-27
1.12231e-24
-6.68823e-25
3.29514e-23
-2.10886e-23
8.8355e-22
-5.71349e-22
2.29786e-20
-1.47293e-20
6.79547e-19
-4.7347e-19
1.11366e-17
-9.53049e-18
-5.80011e-17
6.45512e-17
-7.95761e-39
3.89531e-39
-8.29111e-37
2.33487e-37
-3.7143e-35
7.21779e-36
-9.42884e-34
1.45985e-34
-1.61595e-32
2.17495e-33
-2.03961e-31
2.54498e-32
-1.99635e-30
2.42796e-31
-1.56777e-29
1.93338e-30
-1.01127e-28
1.30223e-29
-5.43501e-28
7.44582e-29
-2.44065e-27
3.57253e-28
-8.99496e-27
1.36061e-27
-2.51019e-26
3.36011e-27
-3.87884e-26
1.07501e-27
-9.98949e-27
1.67948e-28
-3.18272e-28
-2.34168e-27
1.54489e-25
-9.31176e-26
4.96943e-24
-3.06465e-24
1.39647e-22
-8.8337e-23
3.72633e-21
-2.40805e-21
1.23525e-19
-8.77555e-20
2.42373e-18
-2.12947e-18
-1.46178e-17
1.5078e-17
-5.26483e-41
9.00501e-42
-5.59454e-39
6.30334e-40
-2.59016e-37
2.28658e-38
-6.95451e-36
5.47259e-37
-1.28933e-34
9.71214e-36
-1.80236e-33
1.35967e-34
-1.99636e-32
1.55663e-33
-1.807e-31
1.49e-32
-1.36085e-30
1.20218e-31
-8.58475e-30
8.11431e-31
-4.49413e-29
4.39723e-30
-1.84958e-28
1.65424e-29
-4.89346e-28
2.37067e-29
-1.66385e-28
4.0334e-30
-2.74141e-29
3.968e-31
7.99851e-28
-1.18431e-28
1.7846e-26
-1.04267e-26
6.1088e-25
-3.48702e-25
1.80978e-23
-1.07035e-23
5.07747e-22
-3.25483e-22
1.8828e-20
-1.28881e-20
4.42867e-19
-4.02455e-19
-3.4241e-18
3.10239e-18
-1.11887e-43
1.72006e-44
-1.38479e-41
1.38144e-42
-7.47817e-40
5.78643e-41
-2.36876e-38
1.61405e-39
-5.21939e-37
3.36351e-38
-8.71153e-36
5.56272e-37
-1.1555e-34
7.53519e-36
-1.25433e-33
8.49158e-35
-1.12865e-32
7.94132e-34
-8.38045e-32
5.9382e-33
-4.93874e-31
3.09713e-32
-2.00022e-30
6.83989e-32
-3.05781e-30
9.65187e-33
-5.502e-31
7.8563e-34
-5.67607e-32
-3.43294e-34
1.84016e-29
-7.81482e-30
1.70445e-27
-7.36655e-28
5.77356e-26
-2.52217e-26
1.80791e-24
-9.02536e-25
5.62034e-23
-3.47809e-23
2.23608e-21
-1.64157e-21
6.73688e-20
-6.83837e-20
-6.04751e-19
5.65131e-19
-1.97273e-46
1.09653e-47
-2.77694e-44
1.13421e-45
-1.71757e-42
6.04443e-44
-6.316e-41
2.12891e-42
-1.62974e-39
5.53967e-41
-3.20591e-38
1.12672e-39
-5.01956e-37
1.8402e-38
-6.39871e-36
2.42013e-37
-6.6544e-35
2.43877e-36
-5.45598e-34
1.58212e-35
-3.08294e-33
2.72753e-35
-7.29836e-33
3.09649e-36
-1.09322e-33
2.03938e-37
-9.35749e-35
-3.59966e-37
1.81789e-34
-2.03598e-35
1.06354e-30
-5.58367e-31
1.00239e-28
-4.12705e-29
3.47053e-27
-1.84773e-27
1.26283e-25
-8.71579e-26
4.90597e-24
-4.12589e-24
2.29327e-22
-2.40858e-22
8.82746e-21
-1.11946e-20
-5.80588e-20
7.06977e-20
-1.16402e-49
2.66764e-51
-2.07537e-47
3.57591e-49
-1.61775e-45
2.38277e-47
-7.47833e-44
1.02506e-45
-2.40263e-42
3.18653e-44
-5.79888e-41
7.48528e-43
-1.09224e-39
1.31348e-41
-1.6209e-38
1.53855e-40
-1.8112e-37
7.88516e-40
-1.28406e-36
6.90587e-41
-2.38881e-36
7.4141e-42
-2.89349e-37
1.16495e-40
-2.01177e-38
-4.65282e-41
9.18132e-38
-2.79698e-39
2.37708e-36
-3.67802e-36
6.45881e-32
-3.8735e-32
4.70515e-30
-2.3194e-30
2.12636e-28
-1.40018e-28
1.0025e-26
-8.21353e-27
4.63926e-25
-4.38646e-25
2.57085e-23
-2.61751e-23
9.91942e-22
-1.31146e-21
-4.87593e-21
4.29911e-21
-2.61718e-53
1.33181e-56
-5.89935e-51
2.04925e-54
-5.69327e-49
1.36994e-52
-3.19987e-47
4.66035e-51
-1.22484e-45
6.13024e-50
-3.40729e-44
2.94964e-51
-6.88251e-43
2.54385e-52
-9.07888e-42
1.43227e-49
-5.14739e-41
7.43208e-47
-4.91232e-42
2.06436e-44
-5.67052e-43
3.26006e-42
-9.46338e-42
1.024e-40
1.63136e-41
7.88591e-42
2.44698e-40
-1.63065e-41
3.74405e-37
-2.17322e-37
3.71727e-33
-1.67755e-33
2.1998e-31
-1.31458e-31
1.30807e-29
-7.43706e-30
7.43149e-28
-5.37461e-28
3.70828e-26
-2.91146e-26
1.96507e-24
-1.47581e-24
7.27094e-23
-7.71723e-23
-8.009e-22
2.13014e-22
-1.20031e-58
-7.02037e-74
-3.00375e-56
2.65313e-68
-2.88008e-54
1.29739e-64
-1.27455e-52
1.94437e-61
-2.05952e-51
1.58317e-58
-1.1717e-52
1.02751e-55
-1.16177e-53
8.11632e-53
-7.35707e-51
6.36438e-50
-4.21694e-48
3.22662e-47
-1.27385e-45
9.98344e-45
-2.15732e-43
1.46373e-42
-7.17176e-42
4.77334e-41
-5.77039e-43
3.27635e-42
2.15298e-42
-6.71727e-42
1.76921e-38
-1.50815e-38
1.32328e-34
-4.82275e-35
1.01735e-32
-4.42677e-33
5.52779e-31
-3.37205e-31
3.70382e-29
-1.81549e-29
1.77673e-27
-1.07797e-27
7.45682e-26
-8.15407e-26
2.72119e-24
-4.77962e-24
-8.86014e-23
1.56537e-23
5.76252e-76
-3.57479e-74
-3.38172e-70
1.74285e-68
-2.34918e-66
8.42609e-65
-4.56241e-63
1.25309e-61
-4.55458e-60
9.68747e-59
-3.4913e-57
4.90601e-56
-3.16854e-54
1.69183e-53
-2.7932e-51
4.56079e-51
-1.56345e-48
1.13689e-48
-5.25724e-46
2.69108e-46
-8.25678e-44
3.25194e-44
-2.84471e-42
1.83426e-45
-2.03441e-43
5.85402e-47
7.50566e-43
-4.95491e-44
1.01017e-39
-1.80474e-40
3.12855e-36
-7.8363e-37
2.78123e-34
-1.16274e-34
1.98951e-32
-8.46334e-33
9.57055e-31
-5.76404e-31
4.81476e-29
-5.19501e-29
2.67946e-27
-2.58918e-27
8.1275e-26
-1.46916e-25
-5.31074e-23
1.36889e-23
2.65079e-76
-3.97839e-75