/*--------------------------------*- C++ -*----------------------------------*\
| =========                 |                                                 |
| \\      /  F ield         | OpenFOAM: The Open Source CFD Toolbox           |
|  \\    /   O peration     | Version:  2206                                  |
|   \\  /    A nd           | Website:  www.openfoam.com                      |
|    \\/     M anipulation  |                                                 |
\*---------------------------------------------------------------------------*/
FoamFile
{
    version     2.0;
    format      ascii;
    arch        "LSB;label=32;scalar=64";
    class       volScalarField;
    location    "0.325";
    object      alpha.water;
}
// * * * * * * * * * * * * * * * * * * * * * * * * * * * * * * * * * * * * * //

dimensions      [0 0 0 0 0 0 0];

internalField   nonuniform List<scalar> 
2268
(
0.999999
0.999999
1
1
1
1
1
1
1
1
1
1
1
1
0.999999
0.999999
1
1
1
0.997369
0.832672
0.806838
0.8344
1
1
1
1
1
1
1
1
1
1
1
1
1
1
1
1
1
1
1
1
0.96076
0.896422
0.998912
1
1
1
1
1
1
1
1
1
1
1
1
1
1
1
1
1
1
1
1
0.999999
0.99935
0.998811
1
1
1
1
1
1
1
1
1
1
1
1
1
1
1
1
1
1
1
1
1
0.999946
0.993923
1
1
1
1
1
1
1
1
1
1
1
1
1
1
1
1
1
1
1
1
1
1
0.993934
1
1
1
1
1
1
1
1
1
1
1
1
1
1
1
1
1
1
1
1
1
1
0.993998
1
1
1
1
1
1
1
1
1
1
1
1
1
1
1
1
1
1
1
1
1
1
0.994052
1
1
1
1
1
1
1
1
1
1
1
1
1
1
1
1
1
1
1
1
1
1
0.995094
5.07432e-16
2.80592e-16
6.43209e-17
6.04896e-18
3.94575e-19
4.13066e-20
5.7134e-21
6.53795e-22
3.42464e-23
4.6744e-25
9.30862e-27
3.15508e-27
2.02589e-28
6.21623e-30
1.7864e-31
4.17531e-33
6.78181e-35
3.64195e-37
2.7001e-37
2.03024e-14
4.6097e-14
1.12318e-14
1.12011e-15
6.97392e-17
7.76091e-18
1.22656e-18
1.50937e-19
8.01405e-21
1.13458e-22
5.5083e-25
5.15448e-25
6.72814e-26
1.9917e-27
5.30556e-29
1.24477e-30
1.91698e-32
1.27738e-34
2.7001e-37
2.53815e-13
5.30043e-13
3.89875e-13
6.87234e-14
6.22563e-15
9.1042e-16
1.437e-16
1.56989e-17
7.96756e-19
1.24709e-20
5.42108e-23
1.357e-23
6.43263e-24
2.14975e-25
3.62507e-27
6.54958e-29
6.39817e-31
2.1546e-33
2.49775e-35
1.29667e-12
6.04096e-13
2.39251e-12
7.49749e-13
1.71878e-13
5.63382e-14
1.47184e-14
1.2834e-15
5.89659e-17
1.16791e-18
6.25106e-21
2.42161e-22
2.90554e-22
1.72796e-23
1.85302e-25
2.28951e-27
1.73275e-29
1.37977e-31
2.01071e-33
5.36136e-12
3.02109e-12
4.04855e-12
2.81899e-12
9.87118e-13
5.19547e-13
2.78772e-13
5.35838e-14
5.48854e-15
1.34011e-16
5.34879e-19
1.86999e-20
1.43095e-20
8.18537e-22
8.90044e-24
5.52503e-26
1.121e-27
1.03497e-29
1.33046e-31
5.75232e-12
3.541e-11
5.90845e-11
1.43131e-11
1.40155e-12
1.7088e-12
6.35593e-13
3.56806e-13
1.87693e-13
1.63988e-14
3.85071e-17
1.33161e-18
7.09239e-19
3.75241e-20
3.76125e-22
3.59537e-24
7.83393e-26
7.66531e-28
9.71345e-30
4.48955e-11
1.4543e-09
2.23768e-09
1.37086e-09
2.99756e-11
3.7089e-11
1.10354e-11
3.97982e-12
6.56359e-13
3.16897e-13
7.7467e-15
8.20584e-17
3.45791e-17
1.72377e-18
1.41568e-20
2.30892e-22
5.39351e-24
5.55778e-26
5.71173e-28
1.30916e-06
5.03159e-08
5.67691e-08
4.34793e-08
5.22279e-10
1.53828e-09
4.17509e-10
1.05837e-10
2.02383e-11
1.28899e-12
1.2466e-13
4.48827e-15
1.75055e-15
8.35237e-17
5.64009e-19
1.43052e-20
2.75911e-22
2.57695e-24
3.01599e-26
1
1
1
1
1
1
1
1
1
1
1
1
1
1
1
1
1
1
1
1
1
1
1
1
1
0.999999
0.999999
1
1
1
1
1
1
1
1
1
1
1
1
1
1
1
1
1
1
1
1
0.999999
0.999987
0.999988
0.99999
0.999991
0.999991
0.99999
0.999989
0.999985
0.999978
0.999971
0.999968
0.99997
0.999979
0.999992
0.999999
1
1
1
1
1
1
0.999999
0.999901
0.99972
0.999728
0.99975
0.999747
0.999723
0.999685
0.996757
0.985915
0.964173
0.931053
0.888896
0.843084
0.80148
0.770736
0.757191
0.780737
0.843816
0.953955
1
1
0.999999
0.999891
0.91882
0.81587
0.810142
0.789981
0.748059
0.691859
0.616575
0.512695
0.407357
0.308485
0.222089
0.152066
0.0998842
0.0646261
0.0451664
0.0355612
0.0462595
0.0778914
0.148371
0.288697
0.508713
0.778797
0.672847
0.248707
0.102647
0.102469
0.0824619
0.0519133
0.0223387
1.78534e-12
2.37941e-12
2.95009e-12
1.17591e-10
1.36531e-10
2.19878e-08
4.26721e-08
8.65608e-08
2.85244e-07
5.7592e-07
7.90442e-07
2.57599e-05
0.00012137
0.000279362
0.006045
0.0538978
-1.41889e-26
1.80231e-19
1.21225e-17
5.64649e-16
1.00387e-14
7.4145e-14
2.94102e-13
1.35501e-12
1.78534e-12
2.68593e-12
2.93329e-12
1.02737e-10
1.36522e-10
2.80721e-08
2.48023e-07
5.7592e-07
8.17421e-06
1.08182e-05
1.26121e-05
3.27669e-05
6.09937e-05
7.9795e-05
0.000144114
-4.1436e-19
4.00193e-35
1.81182e-19
1.21233e-17
5.64649e-16
1.00387e-14
1.958e-13
1.18148e-11
7.83681e-12
2.94844e-12
-2.26107e-12
6.74923e-11
-1.41299e-10
3.98087e-07
8.41486e-05
0.000205799
0.000481625
0.000412739
9.7598e-05
6.03263e-05
4.76732e-05
4.75838e-05
6.22459e-05
-7.04551e-19
2.94446e-18
3.50544e-16
1.63562e-14
2.75685e-13
1.81931e-12
5.63061e-12
3.57627e-11
6.13251e-11
3.9035e-12
1.90905e-08
3.35889e-10
3.21147e-06
0.000188375
0.000626801
0.000629248
0.000626801
0.000618525
0.000393451
4.63036e-05
4.47497e-05
4.46181e-05
4.75838e-05
-1.40599e-18
4.55587e-18
7.85757e-16
6.2525e-14
1.02822e-12
4.94858e-12
1.09628e-11
3.72511e-11
2.60931e-10
1.11257e-11
3.47211e-07
2.0478e-09
3.61301e-05
0.000624751
0.000629491
0.00062889
0.000567715
0.000143472
5.01057e-05
4.47497e-05
4.46292e-05
4.4782e-05
0.000919819
-2.17502e-18
1.7254e-18
8.98506e-16
9.2995e-14
1.50282e-12
6.46205e-12
1.29205e-11
1.73328e-11
1.27367e-09
1.16054e-09
4.09864e-07
9.1909e-09
3.7164e-05
0.000317613
0.000613064
0.000629284
0.000552472
0.000238476
6.25736e-05
4.77296e-05
0.000768082
0.0011076
0.00110267
-3.06787e-18
-2.12493e-18
8.71176e-16
1.01746e-13
1.63608e-12
7.00614e-12
1.32639e-11
9.97247e-12
2.63128e-09
1.31246e-09
4.10984e-07
5.15688e-08
2.96809e-11
2.01391e-11
0.000107593
0.000483669
0.00066005
0.000854391
0.000861177
0.000867471
0.000864733
0.000420904
1.09442e-05
-3.95236e-18
-6.76525e-18
5.33781e-16
9.41418e-14
1.51426e-12
5.59776e-12
1.29546e-11
9.96652e-12
2.76994e-09
1.75241e-08
6.31247e-08
2.10264e-08
8.8885e-11
7.51092e-12
-2.11048e-11
-3.96057e-12
-1.24151e-14
0.00018403
0.000133616
1.76418e-05
7.79911e-07
3.01087e-11
8.1801e-11
-4.62406e-18
-1.20209e-17
1.75637e-16
5.21601e-14
8.40301e-13
3.09669e-12
1.04569e-11
9.97247e-12
2.62546e-09
2.23477e-08
1.40246e-08
1.37939e-08
5.81678e-09
1.28071e-10
-3.45726e-11
-1.52724e-11
0
1.89815e-13
1.87813e-12
5.44743e-12
1.03172e-11
1.6565e-11
3.83736e-11
-4.88064e-18
-1.66031e-17
2.75884e-17
1.69079e-14
2.79988e-13
1.25409e-12
8.70656e-12
1.02374e-11
1.01679e-11
1.6627e-08
1.77284e-08
2.32342e-08
1.04644e-08
1.62306e-10
-1.80887e-11
-1.76686e-11
8.91299e-12
4.62828e-11
9.53269e-11
1.49835e-10
2.03563e-10
4.9338e-10
1.43177e-09
-4.60168e-18
-1.91409e-17
-4.32806e-18
3.66412e-15
6.54954e-14
4.29908e-13
6.63693e-12
1.39981e-11
1.01297e-11
7.50777e-12
1.68919e-08
2.26837e-08
7.72159e-09
1.04042e-10
1.34283e-27
-2.21911e-12
1.84558e-11
5.87618e-11
1.00543e-10
1.48335e-10
2.61627e-10
2.75182e-10
2.24881e-10
-3.81979e-18
-1.86192e-17
-1.23182e-17
5.34627e-16
1.10319e-14
1.30796e-13
4.07495e-12
1.4283e-11
1.4283e-11
7.51785e-12
1.73304e-09
2.4401e-09
1.05833e-09
4.73363e-11
2.41688e-12
2.78272e-12
4.87643e-12
8.21231e-12
1.49221e-11
3.02318e-11
1.25165e-10
1.86843e-10
1.30982e-10
-2.73633e-18
-1.5115e-17
-1.41938e-17
4.61608e-17
1.28029e-15
3.40362e-14
1.33926e-12
1.18188e-11
1.35948e-11
7.53698e-12
1.05646e-12
1.05096e-12
1.05286e-12
8.92565e-12
3.3053e-12
3.142e-13
5.12482e-13
1.49343e-12
4.349e-12
1.11906e-11
4.15982e-11
1.29117e-10
1.28629e-10
-1.64688e-18
-9.99522e-18
-1.18931e-17
4.25103e-19
9.34262e-17
7.15757e-15
2.94825e-13
3.51484e-12
8.12767e-12
7.70289e-12
3.49544e-12
1.20495e-12
1.24604e-12
8.97944e-13
3.09582e-13
4.39608e-14
8.66167e-14
3.11874e-13
1.21962e-12
4.53145e-12
1.67326e-11
9.72631e-11
1.29083e-10
-8.03344e-19
-5.20017e-18
-7.58902e-18
-9.29785e-19
3.31278e-18
1.17274e-15
5.01077e-14
5.0605e-13
2.08653e-12
3.45301e-12
3.06255e-12
1.48251e-12
3.19007e-13
3.44768e-14
1.5435e-15
2.15773e-15
9.44238e-15
5.81235e-14
3.79797e-13
2.03989e-12
9.39742e-12
6.37822e-11
1.36564e-10
-3.02358e-19
-2.03134e-18
-3.50111e-18
-4.76938e-19
-9.74356e-21
1.54532e-16
6.85493e-15
6.88459e-14
2.97518e-13
7.49915e-13
7.71993e-13
5.23211e-13
1.88031e-13
2.02525e-14
2.67275e-16
1.79698e-16
1.13376e-15
1.3156e-14
1.31154e-13
9.58413e-13
5.07576e-12
2.78384e-11
7.41924e-11
-8.18727e-20
-5.57624e-19
-1.05996e-18
-1.34826e-19
-5.55442e-21
1.64199e-17
8.07785e-16
1.06681e-14
3.97348e-14
1.13635e-13
1.10528e-13
7.09233e-14
2.19736e-14
2.12565e-15
1.9469e-17
1.40721e-18
1.84733e-16
3.53444e-15
4.68337e-14
4.40626e-13
3.01738e-12
1.53975e-11
4.70264e-11
-1.42893e-20
-9.68997e-20
-1.88615e-19
-2.23101e-20
-1.14491e-21
1.01818e-18
7.14657e-17
1.39129e-15
6.28184e-15
1.24131e-14
1.27437e-14
8.33846e-15
2.78478e-15
2.34114e-16
0
-1.05087e-17
3.37344e-17
9.96103e-16
1.63346e-14
1.95397e-13
1.70205e-12
1.05281e-11
3.70382e-11
-1.26651e-21
-8.71181e-21
-1.82887e-20
-2.00874e-21
-1.42915e-22
1.2366e-21
2.55872e-18
9.90888e-17
5.4153e-16
8.6208e-16
1.10703e-15
7.1127e-16
2.2244e-16
4.52274e-35
-3.32668e-17
-1.97661e-17
1.7334e-18
2.85874e-16
5.50241e-15
8.23385e-14
8.85261e-13
6.78538e-12
2.55118e-11
-2.87269e-31
-1.55512e-29
-4.38624e-28
-8.44031e-27
-1.07504e-25
-5.16848e-25
1.14044e-20
2.23912e-18
1.56698e-17
3.47201e-17
3.42438e-17
2.21609e-17
2.00455e-18
-1.42961e-17
-2.71015e-17
-1.25715e-17
-8.94032e-19
8.23296e-17
1.77142e-15
3.18711e-14
4.29717e-13
3.81827e-12
1.6162e-11
-2.307e-31
-1.27363e-29
-3.74459e-28
-7.4926e-27
-1.1436e-25
-1.34648e-24
-5.69074e-24
2.42805e-21
3.1315e-20
9.4865e-20
1.05802e-19
-8.97062e-20
-3.17232e-18
-1.03937e-17
-1.12373e-17
-4.37385e-18
-2.65804e-19
2.33756e-17
5.36657e-16
1.10432e-14
1.8577e-13
1.96795e-12
8.79033e-12
-1.44245e-31
-8.09567e-30
-2.45925e-28
-5.08031e-27
-8.06025e-26
-1.01158e-24
-9.99879e-24
-5.06868e-23
-6.51114e-23
-5.89075e-22
-1.37883e-20
-1.61742e-19
-9.47541e-19
-2.28114e-18
-2.22229e-18
-7.70084e-19
1.422e-20
6.29248e-18
1.48809e-16
3.33412e-15
6.93526e-14
8.5548e-13
3.97594e-12
-6.61171e-32
-3.74986e-30
-1.16117e-28
-2.43176e-27
-3.93211e-26
-5.13811e-25
-5.39249e-24
-4.41211e-23
-2.87201e-22
-1.67442e-21
-1.04992e-20
-5.36056e-20
-1.7264e-19
-3.3152e-19
-2.59806e-19
-7.71593e-20
3.70389e-20
1.50006e-18
3.65293e-17
8.61173e-16
2.13112e-14
3.01842e-13
1.5386e-12
-1.98602e-32
-1.1286e-30
-3.49346e-29
-7.19022e-28
-1.13235e-26
-1.45424e-25
-1.54521e-24
-1.34003e-23
-9.26462e-23
-5.01225e-22
-2.10895e-21
-6.91302e-21
-1.72569e-20
-2.81752e-20
-1.22001e-20
-2.61162e-21
9.76015e-21
3.05749e-19
7.71099e-18
1.87981e-16
5.29905e-15
8.86084e-14
4.91297e-13
-2.97296e-33
-1.67266e-31
-5.02283e-30
-9.5641e-29
-1.3098e-27
-1.37468e-26
-1.1498e-25
-7.8707e-25
-4.49238e-24
-2.16177e-23
-8.77483e-23
-2.94629e-22
-7.541e-22
-1.07502e-21
-2.56763e-22
-7.62324e-24
1.67305e-21
5.16072e-20
1.37354e-18
3.46341e-17
1.09998e-15
2.21762e-14
1.32589e-13
-2.11468e-35
-1.21536e-33
-3.78277e-32
-7.63339e-31
-1.13268e-29
-1.31863e-28
-1.25016e-27
-9.88146e-27
-6.59866e-26
-3.73605e-25
-1.7728e-24
-6.66847e-24
-1.6242e-23
-5.11705e-24
-7.85905e-25
1.05135e-23
2.23114e-22
7.19491e-21
2.03698e-19
5.45865e-18
1.95706e-16
4.76179e-15
3.24992e-14
-4.82342e-38
-3.24535e-36
-1.18444e-34
-2.82808e-33
-4.99878e-32
-6.96246e-31
-7.92129e-30
-7.52619e-29
-6.02041e-28
-4.02393e-27
-2.15666e-26
-8.01391e-26
-1.13283e-25
-1.89834e-26
-1.83647e-27
2.65927e-25
2.39214e-23
7.83414e-22
2.36867e-20
7.13927e-19
2.7872e-17
8.76079e-16
7.32035e-15
-9.1002e-41
-7.04191e-39
-2.96592e-37
-8.25298e-36
-1.71297e-34
-2.8186e-33
-3.79439e-32
-4.24463e-31
-3.93592e-30
-2.91473e-29
-1.50373e-28
-3.28082e-28
-4.56778e-29
-3.66328e-30
1.48501e-30
1.78153e-26
1.63304e-24
5.52821e-23
1.96805e-21
7.55666e-20
3.5502e-18
1.47167e-16
1.21445e-15
-5.73554e-44
-5.72979e-42
-3.06909e-40
-1.07829e-38
-2.79475e-37
-5.65573e-36
-9.18066e-35
-1.19867e-33
-1.19784e-32
-7.6973e-32
-1.31291e-31
-1.47295e-32
-9.57495e-34
1.62928e-33
4.9311e-32
1.26655e-27
9.04858e-26
4.04478e-24
1.90562e-22
8.94914e-21
5.15667e-19
2.35437e-17
1.12705e-16
-1.38069e-47
-1.79205e-45
-1.19982e-43
-5.14852e-42
-1.59423e-40
-3.72636e-39
-6.49957e-38
-7.55949e-37
-3.84275e-36
-3.3345e-37
-3.54301e-38
-5.5035e-37
2.08586e-37
6.09359e-36
8.91213e-33
8.61993e-29
5.07422e-27
3.0274e-25
1.76589e-23
9.277e-22
5.37703e-20
2.63707e-18
9.98067e-18
-6.82608e-53
-1.01983e-50
-6.84809e-49
-2.32358e-47
-3.04462e-46
-1.45781e-47
-1.24985e-48
-6.98852e-46
-3.59767e-43
-9.90382e-41
-1.54848e-38
-4.8106e-37
-3.66033e-38
4.55276e-38
4.93964e-34
3.6463e-30
2.838e-28
1.58392e-26
1.12261e-24
5.97224e-23
2.9763e-21
1.52652e-19
1.69916e-18
3.56609e-70
-1.31261e-64
-6.44483e-61
-9.6329e-58
-7.81329e-55
-5.04653e-52
-3.96324e-49
-3.08683e-46
-1.55294e-43
-4.76351e-41
-6.91737e-39
-2.2322e-37
-1.51473e-38
1.85212e-38
3.33994e-35
1.03243e-31
9.40886e-30
7.0911e-28
3.74444e-26
2.20832e-24
1.63937e-22
9.44103e-21
1.6727e-19
1.81335e-70
-8.58181e-65
-4.16358e-61
-6.17474e-58
-4.75532e-55
-2.39673e-52
-8.21812e-50
-2.20081e-47
-5.44506e-45
-1.27812e-42
-1.53031e-40
-8.54541e-42
-2.69788e-43
1.0357e-40
3.87535e-37
1.65782e-33
2.44253e-31
1.75645e-29
1.18724e-27
1.06307e-25
5.1847e-24
2.91201e-22
1.13803e-20
9.71712e-72
-2.91246e-65
-1.39294e-61
-2.06194e-58
-1.56353e-55
-7.64437e-53
-2.35953e-50
-4.31979e-48
-3.61949e-46
-9.41846e-45
-6.9429e-43
-3.10727e-44
-1.43066e-45
-5.72299e-42
5.33632e-39
1.16107e-35
2.31932e-33
2.59368e-31
2.5057e-29
2.20851e-27
1.37247e-25
1.11253e-23
7.59983e-22
-4.39793e-80
-4.24015e-69
-2.42793e-65
-4.40871e-62
-4.00087e-59
-2.03539e-56
-5.40556e-54
-6.08658e-52
-1.73204e-53
-2.88991e-55
-3.71013e-57
-3.51564e-57
-3.27189e-51
-7.42257e-42
8.85975e-43
1.13551e-39
8.533e-37
1.58445e-34
3.86693e-32
6.0381e-30
1.00121e-27
1.59409e-25
1.50603e-23
-1.32082e-80
-7.45682e-76
-5.94928e-72
-9.34534e-69
-4.65844e-66
-5.61246e-68
-4.19304e-70
-2.91331e-70
-1.42038e-66
-4.15242e-63
-6.58477e-60
-3.23926e-57
-1.75468e-51
-1.74048e-51
-3.17313e-53
3.60945e-47
3.54246e-44
8.05707e-41
3.31079e-38
1.34956e-35
5.46126e-33
2.37866e-30
2.4981e-28
0
0
-3.75235e-92
-2.38311e-87
-3.70453e-83
-1.08312e-78
-1.61185e-74
-1.26154e-70
-6.18745e-67
-1.93008e-63
-3.04988e-60
-1.60859e-57
-9.92424e-60
-3.34833e-62
-8.09156e-65
-7.13704e-65
1.19935e-63
1.04571e-57
0
3.20357e-51
1.17294e-48
2.23705e-46
6.01043e-44
0.929443
0.000633211
0.000478069
7.66619e-05
0.999951
0.78263
0.26344
0.0502911
0.999999
0.999876
0.971118
0.79405
0.999953
0.999939
0.9997
0.99918
0.999939
0.9997
0.999266
0.999074
0.219735
0.449812
0.690896
0.944433
0.000310839
0.00335381
0.0359312
0.114677
0.000156854
0.000376003
0.000497036
0.000544086
0.0013044
0.00160858
0.00160312
0.00139609
0.00144632
0.00129327
0.00029343
2.92713e-07
0.000430989
1.7215e-07
1.9389e-08
2.73708e-08
-1.24008e-09
1.86069e-09
1.98901e-09
1.56637e-08
1.02206e-09
1.78123e-09
1.89673e-09
5.40183e-08
1.33532e-09
3.55083e-09
4.33979e-09
4.35717e-09
3.86131e-09
4.39269e-09
4.3385e-09
4.35317e-09
3.69704e-09
4.85854e-09
4.35317e-09
4.37251e-09
3.78986e-09
8.62178e-09
4.42006e-09
4.39885e-09
2.27568e-09
9.72231e-09
7.11324e-09
4.49058e-09
1.29727e-10
9.24717e-09
1.02009e-08
4.99232e-09
1.91112e-10
2.60719e-09
8.47077e-09
5.94919e-09
6.5606e-10
6.4533e-10
9.78439e-10
7.59137e-08
7.50702e-10
7.91925e-10
9.44291e-10
1.62087e-07
3.17087e-10
7.92292e-10
7.4687e-10
1.61052e-07
1.70258e-10
6.92054e-10
7.02094e-10
5.95127e-08
1.27177e-10
4.81622e-10
7.15936e-10
5.8858e-10
6.96676e-11
3.19248e-10
3.86772e-10
4.18671e-10
3.35378e-11
1.81723e-10
1.0544e-10
4.31176e-09
1.67134e-11
7.43336e-11
1.05545e-10
6.47479e-09
7.36592e-12
4.39281e-11
1.82569e-10
3.82797e-10
3.30138e-12
2.47697e-11
4.89871e-11
1.71021e-09
1.43688e-12
1.23281e-11
9.66648e-11
1.56702e-09
5.58812e-13
5.88005e-12
5.47469e-11
2.78305e-10
1.72086e-13
2.38033e-12
1.87742e-11
1.33717e-10
3.6768e-14
7.70725e-13
9.59821e-12
7.82095e-11
4.98601e-15
1.88626e-13
3.62562e-12
3.88873e-11
5.13175e-16
3.49478e-14
9.68142e-13
1.445e-11
3.51389e-17
3.20995e-15
2.02686e-13
6.81589e-12
2.7485e-18
3.76964e-16
4.18137e-14
3.58428e-12
4.3787e-19
8.96531e-17
1.24088e-14
1.37625e-12
2.04134e-20
6.0731e-18
1.55693e-15
2.92581e-13
2.92909e-24
2.55997e-21
1.6491e-16
1.70269e-14
0
0
3.9547e-22
1.77804e-20
5.66995e-05
1.10359e-06
7.51821e-07
5.26675e-07
1.27341e-08
5.4264e-08
1.33685e-08
3.79327e-09
6.82388e-10
9.31082e-11
3.56391e-12
2.30765e-13
3.30158e-14
5.66915e-15
1.92123e-16
6.18965e-19
8.20105e-21
1.52676e-22
2.13969e-24
3.05786e-05
9.75087e-06
1.66823e-05
8.49331e-07
1.72795e-07
1.60673e-06
3.51758e-07
9.42391e-08
2.53474e-08
2.53323e-09
2.62664e-10
1.15736e-11
3.85511e-13
2.30369e-15
2.7105e-16
8.5375e-18
-2.8822e-19
-2.18281e-20
-1.03186e-22
0.254519
0.11239
0.0518447
0.000791212
7.91622e-06
6.01101e-05
1.23265e-05
3.98582e-06
1.14904e-06
1.8215e-07
1.66775e-08
9.12295e-10
4.35336e-11
-1.49391e-12
-2.39516e-13
-1.2379e-14
-2.05285e-16
-3.65287e-18
-1.66393e-19
0.974694
0.998285
0.834639
0.216695
0.0975075
0.0606186
0.00442503
0.000107237
3.77538e-05
6.72721e-06
7.43685e-07
7.05428e-08
3.10268e-09
-2.72165e-11
-1.92149e-11
-1.97302e-12
-9.23685e-14
-1.13607e-15
-5.22047e-17
0.998988
0.998523
0.995375
0.980667
0.99657
0.858848
0.339862
0.0708824
0.00297377
0.00016071
2.24147e-05
2.49064e-06
1.49872e-07
7.28807e-09
-1.36058e-10
-5.53213e-11
-6.62254e-12
-4.92169e-13
-1.05578e-14
0.998563
0.998285
0.997782
0.997251
0.996833
0.99657
0.995648
0.917668
0.393817
0.0307704
0.000449264
5.11612e-05
4.95731e-06
4.09547e-07
2.52269e-08
4.65995e-10
-1.10088e-10
-2.40412e-11
-1.0075e-12
0.185889
0.233232
0.377773
0.732966
0.978141
0.995648
0.9949
0.993412
0.990103
0.660925
0.0950277
0.000870874
9.49349e-05
1.04176e-05
9.85566e-07
6.7439e-08
1.29287e-09
-5.56488e-10
-6.25563e-12
0.000287411
0.000103389
0.00336099
0.0122154
0.0219382
0.111266
0.591227
0.983926
0.982437
0.969384
0.738566
0.134348
0.00135461
0.000170308
2.12685e-05
2.19128e-06
1.41076e-07
-6.53271e-10
7.2038e-10
0.000216195
2.34147e-06
2.13606e-06
2.27094e-06
2.12905e-06
1.5113e-06
1.2937e-06
0.107379
0.7111
0.963613
0.93509
0.675383
0.111115
0.00194151
0.000271691
3.64729e-05
3.65656e-06
1.81989e-07
2.04891e-08
6.32504e-07
8.85449e-07
1.10028e-06
1.14608e-06
1.8907e-06
1.3006e-06
1.22777e-06
1.24406e-06
0.0459828
0.633297
0.910118
0.871173
0.496661
0.0367504
0.00181439
0.000283981
3.1678e-05
1.9256e-06
3.64431e-07
5.01167e-07
1.06753e-06
1.13987e-06
1.12676e-06
1.14608e-06
1.18755e-06
1.21432e-06
1.22348e-06
1.24106e-06
0.0888553
0.727893
0.841866
0.759104
0.231111
0.00541606
0.000901613
0.000117099
1.13147e-05
2.89228e-06
1.4637e-06
2.43592e-06
2.43592e-06
1.53983e-06
1.18756e-06
1.21373e-06
1.22814e-06
1.24386e-06
1.26313e-06
1.29586e-06
0.303484
0.797237
0.777229
0.48183
0.0377821
0.00189796
0.000275964
3.31828e-05
1.3069e-05
1.66396e-06
2.37719e-06
2.43397e-06
2.25504e-06
1.29552e-06
1.23214e-06
1.24527e-06
1.2651e-06
1.29404e-06
1.31906e-06
0.0405425
0.624625
0.753855
0.637926
0.132162
0.00348374
0.000498671
6.62265e-05
3.70491e-05
4.35801e-09
5.6211e-09
1.62388e-08
2.84819e-08
1.96502e-05
5.56877e-05
2.4933e-05
1.29407e-06
1.32844e-06
1.95686e-06
2.68285e-06
0.400069
0.72986
0.663656
0.23434
0.00488298
0.000657515
9.40343e-05
7.70177e-05
4.37259e-09
1.13829e-08
2.84819e-08
2.58735e-05
6.1887e-05
6.19709e-05
6.19192e-05
5.42808e-05
4.13814e-06
2.68287e-06
4.86369e-06
0.256508
0.683518
0.635473
0.231467
0.00496645
0.000597437
0.000141603
0.000145089
2.18716e-07
1.78318e-06
7.04547e-06
7.5714e-06
6.94297e-06
2.46492e-05
6.19709e-05
5.61157e-05
9.14995e-06
4.86372e-06
7.97728e-06
0.170506
0.63402
0.591052
0.185418
0.00424377
0.00057024
0.000101297
9.86232e-05
1.47881e-06
7.8739e-06
7.8739e-06
6.10167e-06
6.18641e-06
2.78641e-05
5.90041e-05
5.56106e-05
2.45434e-05
7.97729e-06
1.02029e-05
0.164539
0.591426
0.534781
0.139583
0.00340408
0.00046242
8.47669e-05
6.24515e-05
7.26641e-08
3.90201e-06
7.8739e-06
4.66709e-06
5.38026e-06
3.15617e-05
5.56106e-05
5.58855e-05
2.92688e-05
1.02029e-05
1.16822e-05
0.195882
0.553224
0.516797
0.14997
0.00280828
0.000361673
7.58152e-05
4.60441e-05
5.78835e-09
6.39274e-09
1.04901e-06
3.29711e-06
4.23194e-06
4.1203e-05
5.3779e-05
5.56106e-05
1.58869e-05
1.23017e-05
1.18379e-05
0.320266
0.527332
0.513802
0.159291
0.00217282
0.000306486
0.000115692
3.26404e-05
6.40503e-09
6.48587e-09
3.69198e-06
1.49814e-05
9.3513e-06
2.05807e-05
4.98394e-05
2.42999e-05
1.321e-05
1.31303e-05
0.102425
0.51037
0.517376
0.455276
0.0944447
0.00185536
0.000669217
0.000155615
2.76949e-05
1.30728e-08
8.56164e-09
9.99358e-06
2.72852e-05
2.72699e-05
2.70791e-05
2.04998e-05
1.83421e-05
1.56325e-05
0.061547
0.424369
0.494559
0.477183
0.209111
0.0149816
0.00301666
0.00108693
0.000153809
1.24081e-05
3.54672e-08
1.97636e-08
1.03677e-05
2.70825e-05
2.73027e-05
2.56194e-05
2.0752e-05
1.96287e-05
0.0654194
0.387788
0.442422
0.411252
0.173882
0.0209589
0.0077319
0.00405499
0.000855201
3.51759e-05
7.46176e-06
5.50651e-08
2.61922e-07
7.78922e-06
9.25362e-06
2.05358e-05
2.09559e-05
2.14188e-05
0.0566582
0.323913
0.396664
0.338505
0.11686
0.00541774
0.00388835
0.00616249
0.00233261
5.66838e-05
7.37284e-06
3.78661e-06
5.18113e-08
6.34078e-08
4.00147e-05
2.37681e-05
2.06439e-05
2.14376e-05
0.00990615
0.211286
0.322651
0.23437
0.058511
0.00281971
0.00139403
0.00120693
0.00238962
0.000548194
1.63514e-05
3.1974e-06
1.67511e-06
5.05383e-08
6.46839e-08
3.93355e-05
2.74561e-05
2.14376e-05
2.35942e-05
0.0860148
0.218141
0.140543
0.0197556
0.00154083
0.000711008
0.000449036
0.000467603
0.000305396
5.57397e-05
8.66966e-06
1.76059e-06
8.68071e-07
7.54226e-08
8.33819e-08
2.21251e-05
4.59688e-05
2.35942e-05
0.0365603
0.135261
0.105589
0.0102853
0.00138494
0.00041181
0.000203006
0.000159477
0.000202528
0.000128229
2.64572e-05
4.86809e-06
1.40632e-06
4.59915e-07
4.49438e-09
2.34948e-07
2.91858e-07
0.000172355
2.87144e-05
0.0442432
0.141735
0.110434
0.0079682
0.000401169
0.000177408
7.98516e-05
6.01277e-05
8.80106e-05
6.77126e-05
1.59432e-05
3.20717e-06
1.33316e-06
2.6245e-07
2.94514e-09
1.03568e-06
1.19529e-06
0.000175169
4.04018e-05
0.0241962
0.147853
0.150068
0.0193426
0.000153298
7.29968e-05
4.5238e-05
3.19769e-05
3.62255e-05
3.20286e-05
7.66359e-06
2.52024e-06
8.49186e-07
1.70398e-07
4.61955e-10
4.83014e-07
5.52428e-07
0.000142271
9.02197e-05
0.00010186
0.132832
0.150062
0.0909677
0.0014464
4.51078e-05
3.19208e-05
2.51478e-05
1.98232e-05
1.63257e-05
6.67818e-06
1.71726e-06
5.65095e-07
1.11201e-07
2.48464e-08
6.78453e-09
8.51321e-07
9.7721e-07
0.000402145
0.000108024
0.099668
0.151488
0.154008
0.00747678
4.77119e-05
2.51263e-05
1.99608e-05
1.34232e-05
1.01057e-05
1.00972e-05
1.19055e-06
3.7301e-07
6.47948e-08
4.19342e-10
4.27943e-10
2.75278e-06
1.00699e-05
0.000412993
0.000120414
0.0522255
0.154018
0.155011
0.120069
0.00058164
2.8763e-05
1.32662e-05
9.89601e-06
5.95003e-06
5.79499e-06
1.51493e-06
2.53784e-07
3.44115e-08
2.35456e-10
4.57169e-08
1.86437e-06
2.22862e-06
8.62121e-05
0.000100497
0.00128167
0.154684
0.155541
0.156636
0.059158
0.000201229
1.89511e-05
6.08926e-06
2.60091e-06
1.18918e-06
1.52113e-06
1.78295e-07
1.86777e-08
1.77922e-10
3.44639e-08
3.82285e-08
4.5269e-06
1.55048e-06
0.000755821
0.000788176
0.124992
0.156636
0.157201
0.156649
0.0149673
0.00014598
1.25065e-05
2.01678e-06
6.62232e-07
4.87331e-07
1.22436e-07
1.19176e-08
6.96684e-11
1.11918e-08
2.40648e-07
1.2586e-06
1.16536e-06
0.000838609
0.000857361
0.0529393
0.157201
0.157214
0.157222
0.118228
0.00634249
5.60064e-05
3.07636e-06
3.3518e-07
1.09188e-07
7.42938e-08
8.31058e-09
4.81956e-11
4.05291e-10
1.71588e-07
1.20697e-06
2.59344e-06
0.000105404
0.00245204
0.00263212
0.151681
0.157214
0.157179
0.157214
0.0151751
5.68983e-05
1.12563e-05
1.62671e-06
1.36982e-07
4.26756e-08
4.44943e-09
3.68727e-11
9.79226e-10
3.26081e-08
3.33775e-07
1.72653e-06
5.48383e-05
0.00255481
0.00321267
0.0629019
0.156963
0.157204
0.102719
0.0102817
0.00032873
6.14643e-06
1.34788e-06
1.5834e-07
2.17478e-08
1.53747e-09
4.52492e-11
2.0786e-09
2.73436e-08
3.02367e-07
2.40676e-06
1.04415e-05
0.000587053
0.00355504
0.00509327
0.0708541
0.0664274
0.0111466
0.00358428
0.000115455
1.01771e-07
1.65957e-08
1.20462e-08
5.42364e-09
6.90537e-10
5.58697e-11
1.33103e-09
1.85872e-08
2.03319e-07
1.75975e-06
1.06236e-05
7.70323e-05
0.00188918
0.00336906
0.00198152
0.0020252
0.000874988
6.23612e-05
3.56118e-06
-2.13025e-08
6.48423e-09
3.02162e-09
7.52759e-10
3.78901e-10
2.46087e-11
7.04319e-10
1.02751e-08
1.12111e-07
9.49642e-07
6.31305e-06
6.48981e-05
0.000694626
0.000868622
0.000422597
0.00052781
0.000290464
2.54095e-05
9.93309e-07
1.02815e-08
4.9934e-09
1.66466e-09
3.77858e-10
2.13079e-10
4.65497e-12
1.28531e-10
1.94613e-09
2.0215e-08
1.56001e-07
9.34877e-07
2.34588e-05
0.000132161
0.000133855
0.000127215
0.000143957
8.5622e-05
9.40991e-06
6.22547e-07
-4.6233e-09
2.67043e-09
1.05751e-09
4.58657e-10
1.08142e-10
4.43918e-14
1.56684e-12
4.78635e-11
8.82768e-10
1.05396e-08
9.82854e-08
1.73629e-06
8.87918e-06
1.83557e-05
3.6713e-05
5.41114e-05
2.46085e-05
3.11924e-06
2.46674e-07
1.23708e-08
1.50747e-09
6.69348e-10
4.74382e-10
3.11623e-11
-1.52831e-28
-3.14942e-25
-3.8538e-15
-5.78614e-13
-1.10435e-11
1.07875e-08
1.04252e-07
6.57148e-07
3.25643e-06
1.35262e-05
2.95242e-05
8.71065e-06
9.90176e-07
8.39127e-08
5.22635e-09
9.03427e-10
3.5544e-10
2.79714e-10
3.11623e-11
)
;

boundaryField
{
    leftWall
    {
        type            zeroGradient;
    }
    rightWall
    {
        type            zeroGradient;
    }
    lowerWall
    {
        type            zeroGradient;
    }
    atmosphere
    {
        type            inletOutlet;
        inletValue      uniform 0;
        value           nonuniform List<scalar> 
46
(
0
0
0
0
0
0
0
0
0
0
0
0
0
0
0
0
0
0
0
0
0
0
0
0
0
0
0
0
0
0
0
0
1.07875e-08
1.04252e-07
6.57148e-07
3.25643e-06
1.35262e-05
2.95242e-05
8.71065e-06
9.90176e-07
8.39127e-08
5.22635e-09
9.03427e-10
3.5544e-10
2.79714e-10
3.11623e-11
)
;
    }
    defaultFaces
    {
        type            empty;
    }
}


// ************************************************************************* //
