/*--------------------------------*- C++ -*----------------------------------*\
| =========                 |                                                 |
| \\      /  F ield         | OpenFOAM: The Open Source CFD Toolbox           |
|  \\    /   O peration     | Version:  2206                                  |
|   \\  /    A nd           | Website:  www.openfoam.com                      |
|    \\/     M anipulation  |                                                 |
\*---------------------------------------------------------------------------*/
FoamFile
{
    version     2.0;
    format      ascii;
    arch        "LSB;label=32;scalar=64";
    class       volScalarField;
    location    "0.325";
    object      p;
}
// * * * * * * * * * * * * * * * * * * * * * * * * * * * * * * * * * * * * * //

dimensions      [1 -1 -2 0 0 0 0];

internalField   nonuniform List<scalar> 
2268
(
1182.72
1187
1194.77
1197.32
1193.4
1184.63
1174.2
1164.17
1155.46
1148.58
1144.07
1142.58
1144.96
1152.38
1166.46
1188.38
1218.68
1256
1294.1
1319.45
1317.35
1289.82
1338.71
1122.85
1127.06
1134.78
1137.3
1133.33
1124.6
1114.26
1104.31
1095.65
1088.76
1084.19
1082.6
1084.81
1091.81
1104.45
1124.33
1152.42
1188.5
1228.32
1257.39
1260.8
1219.29
1274.94
1061.95
1066.13
1073.7
1076.12
1072.07
1063.43
1053.27
1043.47
1034.88
1027.97
1023.28
1021.48
1023.39
1029.98
1042.32
1061.15
1086.93
1118.7
1153.52
1182.71
1193.02
1175.27
1224.52
1000.15
1004.23
1011.58
1013.84
1009.66
1001.15
991.252
981.681
973.182
966.223
961.346
959.236
960.725
966.755
978.275
995.909
1019.82
1048.63
1079.23
1106.43
1125.65
1133.54
1190.42
937.581
941.455
948.528
950.545
946.215
937.863
928.277
918.961
910.553
903.5
898.358
895.835
896.772
902.091
912.665
929.035
951.182
977.871
1006.3
1032.63
1058.21
1083.77
1151.11
874.402
877.923
884.635
886.325
881.827
873.659
864.408
855.341
846.988
839.777
834.28
831.23
831.485
835.954
845.468
860.519
880.998
905.828
932.816
958.7
986.138
1018.07
1084.5
810.73
813.815
819.985
821.215
816.545
808.611
799.718
790.877
782.518
775.063
769.106
765.408
764.842
768.319
776.647
790.301
809.136
832.174
857.627
882.527
907.918
935.825
981.4
746.708
749.29
754.63
755.213
750.378
742.745
734.25
725.618
717.186
709.389
702.856
698.375
696.84
699.168
706.182
718.391
735.576
756.807
780.363
803.376
823.574
841.508
834.527
137.234
137.243
137.255
137.271
137.293
137.32
137.348
137.376
137.401
137.423
137.44
137.453
137.461
137.466
137.467
137.468
137.467
137.466
137.465
137.172
137.182
137.194
137.211
137.233
137.26
137.289
137.317
137.343
137.365
137.382
137.395
137.403
137.407
137.409
137.408
137.407
137.407
137.406
137.109
137.119
137.13
137.148
137.171
137.199
137.229
137.258
137.285
137.308
137.326
137.338
137.345
137.349
137.349
137.348
137.347
137.345
137.344
137.044
137.053
137.065
137.083
137.107
137.137
137.169
137.2
137.229
137.252
137.27
137.282
137.289
137.291
137.29
137.287
137.284
137.281
137.28
136.978
136.984
136.997
137.016
137.041
137.073
137.108
137.142
137.172
137.198
137.216
137.228
137.233
137.234
137.23
137.225
137.22
137.216
137.214
136.912
136.909
136.926
136.946
136.972
137.008
137.047
137.084
137.117
137.144
137.163
137.175
137.179
137.176
137.17
137.162
137.154
137.148
137.145
136.844
136.823
136.854
136.874
136.901
136.941
136.985
137.026
137.062
137.092
137.112
137.123
137.124
137.119
137.109
137.097
137.086
137.077
137.073
136.781
136.731
136.786
136.801
136.827
136.875
136.923
136.968
137.009
137.042
137.063
137.073
137.071
137.061
137.046
137.03
137.014
137.003
136.997
646.164
647.861
651.464
650.921
645.838
638.606
630.599
622.129
613.407
604.886
597.239
591.297
587.986
588.235
592.884
602.674
617.458
636.25
656.84
675.883
683.449
669.173
518.765
508.877
508.312
508.8
506.641
501.126
494.067
486.128
477.214
467.522
457.524
447.853
439.345
433.01
429.847
430.397
434.467
443.506
457.849
474.194
488.121
486.864
458.986
367.224
373.06
368.549
365.022
361.153
354.919
347.522
339.002
328.879
317.678
305.824
293.611
281.691
271.261
264.102
262.334
267.173
276.279
284.464
299.168
315.635
322.318
309.559
279.692
242.462
232.496
220.216
212.961
205.333
196.776
186.591
173.592
159.598
145.731
131.315
116.581
102.085
88.6706
77.2528
69.142
65.6805
73.0306
92.3021
120.599
147.467
162.156
165.171
126.913
105.256
78.6247
71.1603
65.8595
59.3943
51.3597
40.4593
31.6802
24.9668
18.8349
13.492
9.16454
5.94066
3.76677
2.58333
2.07899
2.80536
4.93117
9.09802
17.6562
32.3905
50.4681
46.7826
14.9793
5.57786
5.57309
4.31683
2.44755
0.715428
-0.499434
-0.724752
-0.729628
-0.683831
-0.641683
-0.610234
-0.5895
-0.584114
-0.592962
-0.605108
-0.63711
-0.723969
-0.891841
-0.903988
-0.574734
1.50659
-0.460431
-1.15321
-1.09047
-1.01988
-1.0013
-0.978224
-0.937509
-0.894376
-0.895959
-0.877385
-0.848993
-0.827222
-0.81421
-0.812238
-0.839195
-0.897353
-0.966666
-1.05389
-1.1651
-1.26157
-1.31745
-1.41165
-1.59611
-1.18518
-1.25384
-1.21807
-1.18182
-1.16481
-1.14723
-1.1221
-1.09549
-1.07883
-1.06394
-1.05491
-1.05813
-1.06608
-1.09014
-1.1788
-1.32567
-1.46971
-1.56019
-1.59428
-1.57499
-1.54931
-1.56234
-1.61133
-1.36331
-1.35144
-1.36149
-1.34935
-1.33907
-1.32815
-1.31442
-1.30003
-1.28902
-1.28216
-1.28758
-1.30754
-1.32995
-1.39096
-1.58159
-1.83731
-2.05972
-2.14669
-2.067
-1.89678
-1.75425
-1.70203
-1.72183
-1.54062
-1.53555
-1.53193
-1.52555
-1.51905
-1.51345
-1.50773
-1.50224
-1.49915
-1.50146
-1.51815
-1.54955
-1.5869
-1.67689
-1.88919
-2.14567
-2.34822
-2.40224
-2.30607
-2.081
-1.87176
-1.80274
-1.83508
-1.71084
-1.70565
-1.70362
-1.70199
-1.7002
-1.69964
-1.7003
-1.70242
-1.70749
-1.71841
-1.74152
-1.77813
-1.82683
-1.92448
-2.06865
-2.23267
-2.35268
-2.35685
-2.25064
-2.10452
-1.96243
-1.92639
-2.05291
-1.88044
-1.87914
-1.87881
-1.88001
-1.88186
-1.88537
-1.89095
-1.89901
-1.91062
-1.92777
-1.95371
-1.99135
-2.04345
-2.12134
-2.2085
-2.29436
-2.35608
-2.35146
-2.27644
-2.18349
-2.14353
-2.18193
-2.26465
-2.05241
-2.05389
-2.05513
-2.05842
-2.06301
-2.06952
-2.0785
-2.09051
-2.10645
-2.12745
-2.15478
-2.19033
-2.23581
-2.29365
-2.35565
-2.41097
-2.44079
-2.43821
-2.40823
-2.37883
-2.37054
-2.3899
-2.43981
-2.2259
-2.22892
-2.23158
-2.23646
-2.24309
-2.25175
-2.26297
-2.27732
-2.2956
-2.31851
-2.34645
-2.37995
-2.41948
-2.46447
-2.50899
-2.54543
-2.56283
-2.5631
-2.54766
-2.53524
-2.54304
-2.57703
-2.6365
-2.40034
-2.40405
-2.40777
-2.41383
-2.42192
-2.43212
-2.44483
-2.46053
-2.47992
-2.50357
-2.53161
-2.56388
-2.59986
-2.63784
-2.67354
-2.7016
-2.71731
-2.72291
-2.72308
-2.72834
-2.74958
-2.7912
-2.85303
-2.57489
-2.57878
-2.5833
-2.59022
-2.59938
-2.61071
-2.62448
-2.64109
-2.66112
-2.68509
-2.7131
-2.74475
-2.77905
-2.81397
-2.8464
-2.87297
-2.89208
-2.905
-2.9167
-2.93418
-2.96471
-3.01245
-3.07792
-2.74882
-2.75268
-2.75778
-2.76537
-2.77531
-2.78749
-2.80209
-2.81943
-2.84002
-2.86433
-2.89251
-2.9241
-2.95799
-2.99226
-3.0246
-3.05284
-3.07642
-3.09704
-3.11887
-3.14721
-3.18715
-3.24179
-3.31157
-2.9216
-2.92539
-2.93092
-2.93903
-2.94957
-2.96242
-2.97769
-2.99568
-3.01687
-3.04172
-3.0704
-3.10254
-3.13705
-3.17228
-3.20639
-3.23804
-3.26723
-3.29574
-3.32702
-3.36525
-3.41414
-3.47592
-3.55095
-3.09285
-3.0966
-3.10244
-3.11097
-3.12201
-3.13542
-3.15129
-3.16992
-3.19179
-3.21737
-3.24691
-3.28012
-3.31606
-3.35328
-3.39029
-3.4262
-3.46132
-3.49744
-3.53761
-3.58526
-3.64325
-3.713
-3.79471
-3.26225
-3.266
-3.2721
-3.281
-3.29248
-3.30641
-3.32287
-3.34216
-3.36479
-3.3913
-3.42198
-3.45666
-3.49454
-3.53437
-3.57489
-3.61547
-3.65663
-3.7002
-3.74895
-3.8058
-3.87296
-3.95132
-4.04109
-3.42953
-3.43332
-3.43964
-3.4489
-3.46082
-3.47528
-3.49234
-3.51234
-3.53583
-3.56338
-3.5954
-3.6318
-3.67192
-3.71467
-3.75898
-3.80441
-3.85163
-3.90249
-3.95957
-4.02537
-4.10165
-4.18907
-4.28816
-3.59445
-3.59833
-3.60487
-3.61448
-3.62685
-3.64186
-3.65958
-3.68034
-3.70473
-3.7334
-3.76683
-3.80505
-3.84752
-3.8933
-3.94147
-3.99176
-4.04497
-4.10297
-4.16815
-4.24269
-4.32796
-4.42464
-4.53386
-3.75683
-3.76082
-3.76758
-3.77755
-3.7904
-3.80599
-3.82438
-3.84594
-3.87126
-3.90105
-3.93589
-3.9759
-4.02068
-4.06942
-4.12136
-4.17637
-4.23537
-4.30025
-4.37327
-4.45631
-4.55044
-4.65644
-4.7761
-3.91649
-3.92063
-3.9276
-3.93794
-3.95127
-3.96746
-3.98656
-4.00891
-4.03514
-4.06601
-4.10215
-4.14382
-4.19075
-4.24228
-4.29777
-4.35722
-4.42164
-4.49296
-4.57337
-4.66457
-4.76739
-4.88266
-5.01272
-4.07331
-4.07759
-4.08477
-4.09547
-4.10928
-4.12607
-4.14587
-4.169
-4.19609
-4.22792
-4.26521
-4.30831
-4.35714
-4.41119
-4.46993
-4.53344
-4.60276
-4.67984
-4.76693
-4.86567
-4.97679
-5.10112
-5.24124
-4.22714
-4.23157
-4.23893
-4.24997
-4.26425
-4.28162
-4.30208
-4.32595
-4.35381
-4.38645
-4.42465
-4.46892
-4.51931
-4.57552
-4.63713
-4.70424
-4.77785
-4.8599
-4.95268
-5.05798
-5.17661
-5.30941
-5.45893
-4.37787
-4.38242
-4.38995
-4.4013
-4.41599
-4.43389
-4.45497
-4.4795
-4.50802
-4.5413
-4.58015
-4.62522
-4.67677
-4.73469
-4.7987
-4.86891
-4.94616
-5.03231
-5.12967
-5.24026
-5.36517
-5.50534
-5.66314
-4.52541
-4.53005
-4.53772
-4.5493
-4.56435
-4.58271
-4.60434
-4.62943
-4.65848
-4.69219
-4.73141
-4.77689
-4.8291
-4.88818
-4.95401
-5.02669
-5.1069
-5.19628
-5.29711
-5.41164
-5.5413
-5.68731
-5.85185
-4.66973
-4.67441
-4.68216
-4.69391
-4.70922
-4.72794
-4.75
-4.77555
-4.80498
-4.83893
-4.87823
-4.9237
-4.97604
-5.03561
-5.10253
-5.1769
-5.25927
-5.35098
-5.4542
-5.57133
-5.70421
-5.85435
-6.02386
-4.81081
-4.81546
-4.82326
-4.83508
-4.85053
-4.86948
-4.89184
-4.91769
-4.94734
-4.98133
-5.02043
-5.06551
-5.11742
-5.17677
-5.24391
-5.31903
-5.40255
-5.49558
-5.60007
-5.71852
-5.85308
-6.00566
-6.17837
-4.94864
-4.95321
-4.96098
-4.97275
-4.9882
-5.00722
-5.02969
-5.05568
-5.08536
-5.11919
-5.15784
-5.20216
-5.25311
-5.3115
-5.37793
-5.45271
-5.53623
-5.62937
-5.7339
-5.85231
-5.98701
-6.14031
-6.31442
-5.0832
-5.08763
-5.09529
-5.1069
-5.12217
-5.14106
-5.16344
-5.18933
-5.21884
-5.25228
-5.29021
-5.33343
-5.38293
-5.43968
-5.50446
-5.57776
-5.65997
-5.75186
-5.85502
-5.97189
-6.10507
-6.25723
-6.43081
-5.21461
-5.21889
-5.22633
-5.23764
-5.25256
-5.2711
-5.29314
-5.31868
-5.34774
-5.38053
-5.41747
-5.45927
-5.50687
-5.56133
-5.62359
-5.69428
-5.77387
-5.86306
-5.9633
-6.07694
-6.2067
-6.35553
-6.52622
-5.34315
-5.34728
-5.3544
-5.36528
-5.37967
-5.39764
-5.41908
-5.44397
-5.47229
-5.50414
-5.5398
-5.57986
-5.62518
-5.67681
-5.73579
-5.80287
-5.87862
-5.96371
-6.05945
-6.16805
-6.29222
-6.43514
-6.59985
-5.46887
-5.47287
-5.47956
-5.48991
-5.5036
-5.52077
-5.54134
-5.56529
-5.59255
-5.62313
-5.65721
-5.69521
-5.73789
-5.78626
-5.84135
-5.90403
-5.97493
-6.05472
-6.14455
-6.24637
-6.36273
-6.49683
-6.65186
-5.59139
-5.59525
-5.60144
-5.61114
-5.62397
-5.64012
-5.65955
-5.68222
-5.70806
-5.73699
-5.7691
-5.80468
-5.84437
-5.88907
-5.93979
-5.9974
-6.0626
-6.13603
-6.21869
-6.31217
-6.41864
-6.54105
-6.68248
-5.71051
-5.71427
-5.71986
-5.72881
-5.74062
-5.75554
-5.77354
-5.79458
-5.81859
-5.84545
-5.87515
-5.9079
-5.94419
-5.98481
-6.03067
-6.08262
-6.14131
-6.20736
-6.28156
-6.36511
-6.45967
-6.56767
-6.69182
-5.82726
-5.831
-5.83591
-5.84404
-5.85471
-5.86821
-5.88453
-5.90365
-5.92547
-5.94986
-5.97677
-6.00632
-6.0389
-6.07516
-6.11586
-6.16171
-6.21326
-6.27103
-6.33559
-6.40776
-6.48856
-6.57959
-6.6827
-5.9433
-5.94716
-5.95137
-5.95862
-5.9681
-5.98009
-5.99459
-6.01159
-6.03099
-6.05269
-6.07661
-6.10283
-6.13167
-6.16362
-6.19924
-6.23902
-6.28332
-6.33246
-6.38685
-6.44693
-6.51308
-6.58593
-6.66637
-6.05859
-6.06259
-6.06618
-6.07254
-6.08081
-6.09122
-6.1038
-6.11854
-6.13539
-6.15428
-6.17517
-6.19815
-6.22344
-6.25135
-6.28222
-6.31623
-6.35352
-6.39424
-6.43861
-6.48678
-6.53854
-6.59354
-6.65184
-6.17081
-6.17484
-6.17802
-6.18343
-6.19043
-6.19914
-6.20961
-6.22187
-6.23595
-6.25184
-6.26957
-6.28919
-6.31079
-6.33449
-6.36035
-6.38838
-6.41851
-6.45069
-6.48485
-6.52078
-6.5579
-6.59529
-6.63243
-6.27861
-6.28329
-6.28601
-6.29036
-6.29589
-6.30267
-6.31076
-6.32023
-6.33114
-6.34357
-6.35755
-6.37309
-6.39012
-6.40851
-6.42813
-6.44885
-6.47047
-6.49267
-6.51495
-6.53665
-6.55702
-6.57504
-6.58932
132.502
136.711
136.123
137.365
139.68
84.97
117.856
134.722
169.49
84.9531
67.948
97.7152
134.049
87.203
71.5477
72.267
61.7427
56.3935
53.823
54.1241
11.3724
25.3499
36.0002
44.2799
-1.60729
-1.35279
0.0148422
4.99282
-1.66419
-1.89552
-2.14083
-2.127
-1.81645
-1.9108
-2.17454
-2.34489
-1.99582
-2.18215
-2.35642
-2.50626
-2.21574
-2.36547
-2.49096
-2.64223
-2.3692
-2.50136
-2.64198
-2.8009
-2.53921
-2.67665
-2.82187
-2.98329
-2.73606
-2.87537
-3.02443
-3.18459
-2.95071
-3.09093
-3.24352
-3.4027
-3.17718
-3.31953
-3.47707
-3.63961
-3.41367
-3.55908
-3.72401
-3.89751
-3.65788
-3.80893
-3.98398
-4.17517
-3.90877
-4.06899
-4.25744
-4.4702
-4.1649
-4.33826
-4.54412
-4.77998
-4.42426
-4.6149
-4.84241
-5.1033
-4.68418
-4.89586
-5.14909
-5.44162
-4.94159
-5.17649
-5.45895
-5.79263
-5.19327
-5.45133
-5.7648
-6.14501
-5.43589
-5.71517
-6.05768
-6.48163
-5.66626
-5.96367
-6.32939
-6.78526
-5.88144
-6.19372
-6.57639
-7.04905
-6.07907
-6.4031
-6.79819
-7.27815
-6.2578
-6.59078
-6.995
-7.47885
-6.41691
-6.75669
-7.16809
-7.65671
-6.55552
-6.90031
-7.31839
-7.81689
-6.67219
-7.01954
-7.44399
-7.95803
-6.76487
-7.11117
-7.53984
-8.06906
-6.83148
-7.17097
-7.59835
-8.1314
-6.87075
-7.19355
-7.60013
-8.13528
-6.88199
-7.17591
-7.55092
-8.05962
-6.86521
-7.12129
-7.44825
-7.89962
-6.82587
-7.03421
-7.2977
-7.66251
-6.77559
-6.92897
-7.11586
-7.37028
-6.72712
-6.8241
-6.9288
-7.05815
-6.67541
-6.71949
-6.74829
-6.75922
-6.59875
-6.59099
-6.55184
-6.46812
136.676
136.573
136.687
136.685
136.704
136.767
136.827
136.879
136.927
136.966
136.99
136.997
136.99
136.971
136.947
136.921
136.897
136.88
136.871
136.255
136.022
136.443
136.522
136.479
136.579
136.681
136.749
136.82
136.875
136.904
136.905
136.883
136.846
136.802
136.758
136.718
136.689
136.673
120.545
127.853
133.653
136.066
136.319
136.374
136.555
136.608
136.691
136.796
136.838
136.827
136.78
136.714
136.641
136.568
136.504
136.457
136.431
61.9479
70.2644
110.975
120.081
129.342
132.346
136.035
136.575
136.529
136.728
136.803
136.765
136.673
136.564
136.448
136.334
136.234
136.16
136.121
56.2223
70.2127
73.4093
68.3978
83.1799
99.9554
112.363
131.55
136.329
136.95
136.844
136.719
136.551
136.38
136.204
136.03
135.877
135.762
135.702
45.4461
45.0993
45.4361
56.3844
70.629
66.7616
77.6822
98.8455
113.981
135.335
136.997
136.627
136.36
136.128
135.874
135.615
135.382
135.204
135.11
9.48908
12.1684
21.146
42.505
53.3144
45.1733
51.3427
73.6356
100.327
109.715
133.151
136.402
136.076
135.733
135.404
135.029
134.666
134.387
134.24
-2.16109
-2.15334
-2.01925
-1.87799
-1.27994
3.94301
31.5006
36.5961
49.9486
86.447
122.731
130.972
135.434
135.241
134.671
134.139
133.581
133.142
132.915
-2.47845
-2.549
-2.66874
-2.75919
-2.65331
-2.52208
-2.27767
1.63678
22.3303
44.4261
87.4925
117.168
130.311
133.989
133.619
132.711
131.848
131.173
130.837
-2.6142
-2.67783
-2.73961
-2.79665
-2.82531
-2.83938
-2.74646
-2.77774
-1.84771
9.34474
48.0499
91.2801
120.912
130.968
131.101
130.021
128.906
127.967
127.516
-2.76879
-2.85488
-2.93591
-3.00834
-3.04532
-3.03608
-3.04522
-3.17979
-3.08554
-2.01691
10.8068
59.2755
102.081
123.829
125.548
124.527
123.587
122.672
122.228
-2.93729
-3.03359
-3.11841
-3.18896
-3.23076
-3.24232
-3.26163
-3.31077
-3.43357
-3.5435
-2.41896
33.4631
78.4337
107.873
115.248
114.867
114.721
114.375
114.188
-3.12567
-3.22912
-3.31844
-3.38966
-3.43504
-3.45421
-3.45968
-3.4603
-3.4785
-3.45226
-2.65037
11.1857
55.0707
86.8702
98.3109
100.049
101.223
102.196
102.83
-3.32265
-3.42414
-3.51332
-3.58661
-3.63716
-3.66134
-3.66587
-3.64958
-3.61763
-3.61335
-3.26574
-0.781848
33.9584
65.1596
79.837
81.849
83.9196
86.53
88.46
-3.53706
-3.63689
-3.726
-3.80186
-3.85712
-3.8856
-3.88937
-3.8657
-3.80872
-3.79879
-3.77713
-3.34609
24.4552
49.4002
61.3185
63.5568
66.4281
70.1231
72.9497
-3.77581
-3.88063
-3.97773
-4.06277
-4.12838
-4.16294
-4.16249
-4.12893
-4.0461
-3.98185
-3.97468
-3.59928
23.9734
39.9197
47.3212
50.1649
53.1091
56.4925
59.0033
-4.04525
-4.16353
-4.27724
-4.37486
-4.4452
-4.48551
-4.49868
-4.46958
-4.35835
-4.21039
-4.09967
-3.73697
18.8535
30.0199
37.7706
41.9726
43.9567
46.2426
47.7945
-4.3426
-4.47948
-4.61353
-4.72545
-4.7984
-4.83628
-4.85323
-4.81978
-4.68129
-4.48403
-4.33807
-4.29549
7.45169
18.2058
27.8496
32.5136
34.4134
37.2651
38.4522
-4.661
-4.81719
-4.9681
-5.0881
-5.15643
-5.18031
-5.17088
-5.09099
-4.89851
-4.6843
-4.56163
-5.70971
-1.62328
5.72417
10.799
16.0092
24.0817
28.6014
30.2918
-4.99528
-5.16986
-5.33459
-5.4593
-5.51807
-5.52049
-5.47592
-5.33715
-5.08323
-4.72142
-4.97702
-5.79429
-1.43157
-2.23916
4.17038
7.09539
16.8503
21.1825
23.6007
-5.3445
-5.53622
-5.71294
-5.84134
-5.89107
-5.87533
-5.81919
-5.6843
-5.49448
-6.90972
-1.14641
4.07752
8.30846
0.476698
-1.48896
6.55002
12.8854
16.2851
18.7893
-5.71518
-5.9316
-6.12685
-6.25553
-6.28737
-6.23926
-6.20206
-6.12227
-7.66984
-2.09439
8.35441
12.8595
14.9439
4.50298
0.393055
6.08616
10.6897
13.7548
15.7704
-6.11073
-6.37704
-6.621
-6.77975
-6.77396
-6.57018
-6.66185
-8.05356
-3.36944
12.0507
17.2578
15.1519
11.6714
9.51074
6.4109
8.14996
10.9412
12.9238
14.0657
-6.52148
-6.86484
-7.20309
-7.49961
-7.50737
-7.12064
-7.49257
-2.87669
10.0288
16.349
13.7654
11.9106
11.962
11.8314
10.6942
10.8857
12.0405
12.8321
13.1675
-6.92298
-7.34725
-7.81841
-8.34709
-8.66527
-9.66424
-15.384
-4.25232
9.28677
12.373
12.0866
11.8329
11.8716
12.1124
12.1078
12.1671
12.5971
12.7668
12.5982
-7.27276
-7.7448
-8.32532
-8.95146
-9.71586
-12.785
-23.8793
-0.447376
9.67978
11.9213
11.8701
11.8556
12.007
12.1724
12.2593
12.3186
12.4794
12.4483
12.0347
-7.54542
-8.0099
-8.58224
-9.05064
-9.81133
-10.6534
-14.7852
3.93093
11.2718
12.002
12.0197
12.1196
12.2323
12.2793
12.1921
12.0894
12.0517
11.9199
11.3881
-7.76375
-8.19478
-8.68363
-8.96993
-9.51601
-8.61706
-20.3954
-1.28608
11.7882
12.1933
12.349
12.4358
12.4598
12.3478
12.0531
11.7102
11.4494
11.2267
10.647
-7.95297
-8.35866
-8.79478
-9.12753
-9.43099
-9.75037
-10.1847
-0.374586
11.1269
12.2767
12.7132
12.7342
12.6174
12.2548
11.6774
11.0851
10.617
10.3215
9.77949
-8.12551
-8.5164
-8.91576
-9.21873
-9.3446
-9.56989
-8.87115
3.92009
9.01865
12.6236
12.874
12.896
12.5499
11.8602
10.931
10.1169
9.4924
9.12981
8.73394
-8.29686
-8.69711
-9.09282
-9.40058
-9.38988
-9.29524
-5.98578
-1.54072
3.54853
9.77132
12.429
12.6759
12.0315
10.932
9.70804
8.73624
8.04627
7.67209
7.3898
-8.4672
-8.90351
-9.35903
-9.80901
-10.0219
-10.0877
-10.4647
-16.7562
-6.84398
4.75316
10.4665
11.4187
10.717
9.23047
7.76703
6.84321
6.22712
5.92606
5.75439
-8.61783
-9.10731
-9.66567
-10.2971
-10.7216
-11.1419
-12.5335
-12.6189
-9.3053
-3.27834
6.20288
8.38267
7.961
6.3543
4.80808
4.34325
3.99628
3.8843
3.91435
-8.72034
-9.27232
-9.95235
-10.784
-11.3974
-11.9299
-12.6355
-11.033
-14.585
-15.065
-7.39471
-0.344364
0.908314
-0.399344
0.29593
1.13497
1.37854
1.57099
2.04439
-8.74517
-9.34269
-10.1258
-11.1387
-12.2093
-12.977
-14.1491
-17.1842
-21.6017
-27.7075
-22.9805
-19.929
-16.0706
-10.1208
-4.44005
-2.42916
-1.31182
-0.689927
0.184286
-8.65797
-9.26236
-10.0893
-11.2196
-12.529
-13.7977
-16.0972
-22.4667
-27.3566
-38.1359
-36.0543
-28.7883
-25.5088
-14.5239
-7.70456
-5.19963
-3.50728
-2.53513
-1.46284
-8.44116
-8.99968
-9.7824
-10.8886
-12.3207
-14.1402
-17.299
-23.3615
-31.9661
-39.5047
-43.2684
-31.3089
-22.3313
-13.9377
-9.02164
-6.60715
-4.86607
-3.77708
-2.79943
-8.10149
-8.55638
-9.19547
-10.1105
-11.4107
-13.2843
-16.1993
-20.997
-27.8863
-33.197
-34.6229
-27.9908
-18.7706
-12.1651
-8.97251
-6.87782
-5.48672
-4.49057
-3.82249
-7.67405
-7.98684
-8.42208
-9.038
-9.93508
-11.2867
-13.2348
-15.6903
-18.5232
-21.3737
-22.3716
-19.1547
-14.1482
-10.2609
-8.1391
-6.60869
-5.64152
-4.89727
-4.59042
-7.20763
-7.36486
-7.59439
-7.92858
-8.42041
-9.15119
-10.1565
-11.2885
-12.3321
-13.0419
-12.9399
-11.6461
-9.7537
-8.10805
-7.00339
-6.15473
-5.58537
-5.18112
-5.15681
-6.75436
-6.75085
-6.77853
-6.86933
-7.06464
-7.37379
-7.77536
-8.21915
-8.5766
-8.64582
-8.33834
-7.74748
-7.05722
-6.46147
-6.02898
-5.67445
-5.42188
-5.31953
-5.48888
-6.35049
-6.2259
-6.08384
-5.96271
-5.9226
-5.96869
-6.05023
-6.12976
-6.21597
-6.29179
-6.32664
-6.2329
-6.0867
-5.94836
-5.85263
-5.78286
-5.75097
-5.75976
-5.7838
)
;

boundaryField
{
    leftWall
    {
        type            calculated;
        value           nonuniform List<scalar> 
50
(
1182.72
1122.85
1061.95
1000.15
937.581
874.402
810.73
746.708
646.164
508.877
373.06
242.462
126.913
46.7826
-0.460431
-1.18518
-1.36331
-1.54062
-1.71084
-1.88044
-2.05241
-2.2259
-2.40034
-2.57489
-2.74882
-2.9216
-3.09285
-3.26225
-3.42953
-3.59445
-3.75683
-3.91649
-4.07331
-4.22714
-4.37787
-4.52541
-4.66973
-4.81081
-4.94864
-5.0832
-5.21461
-5.34315
-5.46887
-5.59139
-5.71051
-5.82726
-5.9433
-6.05859
-6.17081
-6.27861
)
;
    }
    rightWall
    {
        type            calculated;
        value           nonuniform List<scalar> 
50
(
137.465
137.406
137.344
137.28
137.214
137.145
137.073
136.997
136.871
136.673
136.431
136.121
135.702
135.11
134.24
132.915
130.837
127.516
122.228
114.188
102.83
88.46
72.9497
59.0033
47.7945
38.4522
30.2918
23.6007
18.7893
15.7704
14.0657
13.1675
12.5982
12.0347
11.3881
10.647
9.77949
8.73394
7.3898
5.75439
3.91435
2.04439
0.184286
-1.46284
-2.79943
-3.82249
-4.59042
-5.15681
-5.48888
-5.7838
)
;
    }
    lowerWall
    {
        type            calculated;
        value           nonuniform List<scalar> 
62
(
1212.14
1216.42
1224.2
1226.75
1222.83
1214.06
1203.63
1193.6
1184.89
1178.01
1173.5
1172
1174.39
1181.81
1195.89
1217.81
1248.11
1285.43
1323.53
1348.8
1341.86
1313.57
1363.27
1338.71
1274.94
1224.52
1190.42
1151.11
1084.5
981.4
834.527
190.687
136.814
136.215
137.432
137.234
137.172
137.109
137.044
136.978
136.912
136.844
136.781
137.263
137.273
137.284
137.301
137.323
137.349
137.377
137.405
137.431
137.453
137.47
137.482
137.491
137.495
137.497
137.497
137.496
137.495
137.495
)
;
    }
    atmosphere
    {
        type            calculated;
        value           nonuniform List<scalar> 
46
(
-6.32791
-6.33446
-6.33634
-6.34002
-6.34464
-6.35027
-6.35694
-6.36473
-6.37371
-6.38397
-6.39555
-6.4084
-6.42235
-6.43717
-6.45262
-6.46849
-6.48451
-6.50024
-6.51497
-6.52782
-6.53797
-6.54441
-6.54525
-6.53551
-6.50033
-6.42857
-6.30807
-6.16566
-6.03178
-5.90179
-5.80102
-5.74217
-5.7291
-5.72964
-5.7328
-5.74768
-5.80645
-5.89802
-5.77889
-5.73471
-5.72952
-5.72907
-5.72905
-5.72904
-5.72904
-5.72904
)
;
    }
    defaultFaces
    {
        type            empty;
    }
}


// ************************************************************************* //
