/*--------------------------------*- C++ -*----------------------------------*\
| =========                 |                                                 |
| \\      /  F ield         | OpenFOAM: The Open Source CFD Toolbox           |
|  \\    /   O peration     | Version:  2206                                  |
|   \\  /    A nd           | Website:  www.openfoam.com                      |
|    \\/     M anipulation  |                                                 |
\*---------------------------------------------------------------------------*/
FoamFile
{
    version     2.0;
    format      ascii;
    arch        "LSB;label=32;scalar=64";
    class       volScalarField;
    location    "0.325";
    object      p_rgh;
}
// * * * * * * * * * * * * * * * * * * * * * * * * * * * * * * * * * * * * * //

dimensions      [1 -1 -2 0 0 0 0];

internalField   nonuniform List<scalar> 
2268
(
1212.14
1216.42
1224.2
1226.75
1222.83
1214.06
1203.63
1193.6
1184.89
1178.01
1173.5
1172
1174.39
1181.81
1195.89
1217.81
1248.11
1285.43
1323.53
1348.8
1341.86
1313.57
1363.27
1211.13
1215.35
1223.07
1225.58
1221.62
1212.89
1202.55
1192.6
1183.94
1177.05
1172.48
1170.88
1173.1
1180.1
1192.73
1212.62
1240.71
1276.79
1316.61
1345.68
1345.63
1298.44
1363.13
1209.1
1213.28
1220.84
1223.27
1219.21
1210.57
1200.41
1190.62
1182.03
1175.12
1170.43
1168.63
1170.54
1177.13
1189.46
1208.3
1234.08
1265.85
1300.67
1329.86
1340.17
1322.32
1371.49
1206.16
1210.24
1217.59
1219.85
1215.67
1207.16
1197.26
1187.69
1179.19
1172.23
1167.35
1165.24
1166.73
1172.76
1184.28
1201.91
1225.82
1254.63
1285.24
1312.43
1331.66
1339.53
1395.17
1202.45
1206.32
1213.39
1215.41
1211.08
1202.73
1193.14
1183.83
1175.42
1168.36
1163.22
1160.7
1161.64
1166.96
1177.53
1193.9
1216.05
1242.74
1271.17
1297.5
1323.07
1348.64
1414.37
1198.12
1201.65
1208.36
1210.05
1205.55
1197.38
1188.13
1179.06
1170.71
1163.5
1158
1154.95
1155.21
1159.68
1169.19
1184.24
1204.72
1229.55
1256.54
1282.42
1309.86
1341.79
1406.28
1193.31
1196.4
1202.57
1203.8
1199.13
1191.19
1182.3
1173.46
1165.1
1157.64
1151.69
1147.99
1147.42
1150.9
1159.23
1172.88
1191.72
1214.76
1240.21
1265.11
1290.5
1318.41
1361.71
1188.15
1190.73
1196.07
1196.65
1191.82
1184.19
1175.69
1167.06
1158.63
1150.83
1144.3
1139.82
1138.28
1140.61
1147.62
1159.83
1177.02
1198.25
1221.8
1244.82
1265.01
1282.95
1273.8
137.263
137.273
137.284
137.301
137.323
137.349
137.377
137.405
137.431
137.453
137.47
137.482
137.491
137.495
137.497
137.497
137.496
137.495
137.495
137.261
137.271
137.282
137.299
137.321
137.348
137.377
137.405
137.431
137.453
137.471
137.483
137.491
137.495
137.497
137.497
137.496
137.495
137.494
137.256
137.266
137.278
137.295
137.318
137.346
137.376
137.406
137.433
137.455
137.473
137.485
137.493
137.496
137.497
137.495
137.494
137.492
137.491
137.25
137.259
137.271
137.289
137.313
137.343
137.375
137.406
137.435
137.458
137.476
137.488
137.495
137.497
137.496
137.493
137.49
137.487
137.486
137.243
137.249
137.262
137.281
137.306
137.338
137.373
137.407
137.437
137.462
137.481
137.493
137.498
137.498
137.495
137.49
137.485
137.481
137.479
137.236
137.233
137.25
137.27
137.296
137.332
137.37
137.407
137.441
137.468
137.487
137.498
137.502
137.5
137.493
137.486
137.478
137.472
137.469
137.227
137.206
137.236
137.257
137.284
137.324
137.367
137.408
137.445
137.475
137.495
137.506
137.507
137.501
137.491
137.479
137.468
137.46
137.455
137.223
137.172
137.228
137.243
137.269
137.316
137.365
137.41
137.45
137.483
137.505
137.514
137.513
137.503
137.488
137.471
137.456
137.444
137.438
1179.63
1181.33
1184.93
1184.39
1179.31
1172.07
1164.07
1155.6
1146.87
1138.35
1130.71
1124.76
1121.45
1121.7
1126.35
1136.14
1150.93
1169.72
1190.31
1209.35
1216.92
1202.64
1052.23
1167.54
1166.97
1167.46
1165.3
1159.79
1152.73
1144.79
1135.88
1126.18
1116.19
1106.51
1098.01
1091.67
1088.51
1089.06
1093.13
1102.17
1116.51
1132.86
1146.78
1145.53
1117.65
1025.89
1156.92
1152.4
1148.87
1145
1138.77
1131.37
1122.85
1112.73
1101.52
1089.67
1077.45
1065.52
1055.09
1047.93
1046.17
1051.02
1060.13
1068.32
1083.02
1099.49
1106.17
1093.41
1063.55
1151.51
1141.46
1129.01
1121.76
1114.16
1105.6
1095.39
1082.36
1065.7
1041.99
1007.83
963.018
910.238
855.22
806.019
769.988
754.226
782.96
859.515
987.835
1056.52
1071.21
1074.22
1161.04
1055.63
922.625
909.242
883.11
833.331
767.23
678.546
562.437
446.887
338.599
243.991
167.315
110.176
71.5735
50.284
39.8554
51.6355
86.4437
163.43
316.976
559.033
856.164
827.287
304.211
125.631
125.421
100.99
63.7371
27.7493
0.660006
0.434688
0.429811
0.475609
0.517757
0.549231
0.569989
0.575426
0.566809
0.554999
0.523245
0.465308
0.40818
0.579031
7.58651
65.0947
0.824203
0.131427
0.19416
0.264757
0.28333
0.306411
0.347125
0.390259
0.388675
0.407249
0.435641
0.457413
0.470424
0.472432
0.445757
0.38802
0.328459
0.244623
0.135724
0.0651194
0.0454618
-0.0246119
-0.12653
0.224646
0.155992
0.191762
0.228004
0.245017
0.262603
0.287731
0.314339
0.330999
0.345884
0.354917
0.351702
0.343748
0.320249
0.34954
0.374014
0.618451
0.430947
-0.0469944
-0.0801949
-0.0723378
-0.085492
-0.113833
0.171711
0.183578
0.173535
0.185671
0.195953
0.20687
0.220603
0.234995
0.245999
0.25286
0.24747
0.227483
0.209994
0.432939
0.914625
0.662656
0.43649
0.336834
0.0713726
-0.290746
-0.150607
-0.098581
-0.113835
0.119593
0.124672
0.128283
0.134669
0.141164
0.146766
0.152492
0.15798
0.161066
0.158763
0.142645
0.110672
0.133238
1.01952
0.81508
0.557595
0.253586
-0.504064
-0.562748
-0.346566
-0.137524
-0.0682527
1.35072
0.0745674
0.0797637
0.0817894
0.0834265
0.085212
0.0857768
0.085111
0.0829874
0.077924
0.0670031
0.0446197
0.00729987
0.0248736
0.427433
0.810239
0.675149
0.418134
-0.146086
-0.353616
-0.233973
1.19296
1.83457
1.69925
0.0301637
0.0314625
0.0317928
0.0305985
0.0287459
0.0252343
0.0196552
0.0116002
-4.75893e-06
-0.0171589
-0.0423179
-0.0806487
-0.132841
-0.210734
-0.092532
0.539428
0.814364
1.18992
1.2779
1.38286
1.41758
0.532058
-0.333157
-0.0166056
-0.0180866
-0.0193294
-0.0226197
-0.0272128
-0.0337195
-0.0427027
-0.0547132
-0.0706454
-0.0916129
-0.118855
-0.154484
-0.200005
-0.257853
-0.319845
-0.375172
-0.404986
-0.0281361
-0.10068
-0.307153
-0.333149
-0.354098
-0.404009
-0.0649038
-0.0679276
-0.0705797
-0.0754683
-0.082095
-0.0907503
-0.101972
-0.116326
-0.134598
-0.157464
-0.185428
-0.218925
-0.258471
-0.303474
-0.347995
-0.384432
-0.401829
-0.402104
-0.386668
-0.374249
-0.382046
-0.416034
-0.475499
-0.114149
-0.117864
-0.121583
-0.127639
-0.135734
-0.14593
-0.158636
-0.174343
-0.193733
-0.21734
-0.245374
-0.27764
-0.313644
-0.351653
-0.387345
-0.415408
-0.431119
-0.436723
-0.436885
-0.442149
-0.46339
-0.505005
-0.566838
-0.163503
-0.16739
-0.171911
-0.178838
-0.187994
-0.199324
-0.213093
-0.229704
-0.249736
-0.273704
-0.301672
-0.333311
-0.367643
-0.402581
-0.435013
-0.461582
-0.480696
-0.493617
-0.50531
-0.522793
-0.553325
-0.601063
-0.666537
-0.212237
-0.216097
-0.221202
-0.228793
-0.23873
-0.250914
-0.265506
-0.282846
-0.303436
-0.327754
-0.355927
-0.387519
-0.421407
-0.455682
-0.488024
-0.516265
-0.539841
-0.560465
-0.582288
-0.610631
-0.650574
-0.705209
-0.774988
-0.259828
-0.263619
-0.269148
-0.277255
-0.287793
-0.300643
-0.315912
-0.333908
-0.355098
-0.379946
-0.40863
-0.440764
-0.47528
-0.510506
-0.544612
-0.576262
-0.605455
-0.633963
-0.665249
-0.703476
-0.752369
-0.814147
-0.889171
-0.305884
-0.30963
-0.315475
-0.324004
-0.335037
-0.348448
-0.364319
-0.382953
-0.40482
-0.430405
-0.459944
-0.493152
-0.529089
-0.566311
-0.603326
-0.639232
-0.674348
-0.710471
-0.750639
-0.798295
-0.856284
-0.926035
-1.00774
-0.350089
-0.353836
-0.359932
-0.368833
-0.380314
-0.394245
-0.410703
-0.429998
-0.452632
-0.479136
-0.509819
-0.5445
-0.582382
-0.622209
-0.662728
-0.703307
-0.744465
-0.788032
-0.836783
-0.893638
-0.960798
-1.03916
-1.12893
-0.392172
-0.395965
-0.402284
-0.411538
-0.42346
-0.437918
-0.454984
-0.474987
-0.498469
-0.526023
-0.558038
-0.59444
-0.634564
-0.677315
-0.721621
-0.767049
-0.814272
-0.865134
-0.922209
-0.988015
-1.06429
-1.15171
-1.2508
-0.4319
-0.435779
-0.442315
-0.451924
-0.464301
-0.47931
-0.497023
-0.517785
-0.542173
-0.570846
-0.604276
-0.642496
-0.684968
-0.730745
-0.778914
-0.829204
-0.882416
-0.940414
-1.0056
-1.08013
-1.1654
-1.26209
-1.3713
-0.46908
-0.473078
-0.47983
-0.489803
-0.502653
-0.518243
-0.536638
-0.558191
-0.58351
-0.613308
-0.648141
-0.68815
-0.732929
-0.781671
-0.833613
-0.888624
-0.947622
-1.0125
-1.08553
-1.16856
-1.26269
-1.3687
-1.48836
-0.50355
-0.507688
-0.514656
-0.524997
-0.538331
-0.55452
-0.573616
-0.595969
-0.622203
-0.653072
-0.689212
-0.730878
-0.777807
-0.829335
-0.884833
-0.944284
-1.0087
-1.08002
-1.16043
-1.25163
-1.35445
-1.46972
-1.59978
-0.53517
-0.539455
-0.546631
-0.557333
-0.571149
-0.587938
-0.607731
-0.630864
-0.657956
-0.689788
-0.72707
-0.770179
-0.819007
-0.87305
-0.931797
-0.995303
-1.06462
-1.14171
-1.2288
-1.32753
-1.43866
-1.56298
-1.70311
-0.563808
-0.568235
-0.575602
-0.586644
-0.600922
-0.618288
-0.638752
-0.662617
-0.690478
-0.723123
-0.761324
-0.805586
-0.855983
-0.912188
-0.973804
-1.04091
-1.11452
-1.19657
-1.28935
-1.39465
-1.51328
-1.64608
-1.7956
-0.589345
-0.593897
-0.60143
-0.612773
-0.62747
-0.645367
-0.66645
-0.690976
-0.719494
-0.752773
-0.791626
-0.836692
-0.888243
-0.946161
-1.01018
-1.08038
-1.15764
-1.24378
-1.34114
-1.45173
-1.57664
-1.71681
-1.87462
-0.611693
-0.616335
-0.624
-0.635585
-0.650635
-0.668992
-0.690617
-0.715713
-0.744758
-0.778474
-0.817692
-0.863168
-0.915383
-0.974456
-1.04029
-1.11297
-1.19318
-1.28256
-1.38339
-1.49792
-1.62758
-1.77359
-1.93813
-0.630814
-0.635493
-0.643249
-0.654997
-0.670307
-0.689026
-0.711087
-0.736635
-0.766064
-0.800017
-0.839312
-0.884789
-0.937125
-0.996697
-1.06361
-1.13799
-1.22035
-1.31207
-1.41529
-1.53242
-1.66529
-1.81543
-1.98495
-0.646704
-0.651356
-0.659152
-0.670968
-0.686421
-0.70537
-0.727727
-0.753582
-0.783232
-0.817225
-0.856322
-0.901406
-0.953312
-1.01266
-1.0798
-1.15492
-1.23845
-1.33147
-1.43597
-1.55442
-1.68897
-1.84155
-2.01426
-0.65934
-0.663905
-0.671675
-0.683449
-0.698898
-0.717914
-0.74039
-0.766372
-0.796061
-0.82989
-0.868533
-0.912858
-0.963805
-1.0222
-1.08863
-1.16341
-1.24693
-1.34006
-1.4446
-1.56301
-1.6977
-1.85101
-2.02512
-0.668704
-0.673137
-0.680794
-0.692401
-0.707677
-0.726562
-0.748945
-0.774834
-0.804341
-0.837781
-0.87571
-0.918935
-0.968433
-1.02518
-1.08996
-1.16326
-1.24547
-1.33736
-1.44053
-1.55739
-1.69057
-1.84273
-2.01631
-0.674922
-0.679203
-0.686642
-0.69795
-0.712871
-0.731408
-0.753451
-0.778985
-0.808048
-0.840836
-0.877776
-0.919573
-0.967178
-1.02164
-1.0839
-1.15459
-1.23418
-1.32337
-1.42361
-1.53724
-1.667
-1.81584
-1.98653
-0.678267
-0.682398
-0.689512
-0.700396
-0.714786
-0.73275
-0.754192
-0.779082
-0.807404
-0.83925
-0.874914
-0.914971
-0.96029
-1.01193
-1.0709
-1.13798
-1.21373
-1.29882
-1.39457
-1.50316
-1.62733
-1.77026
-1.93497
-0.678793
-0.682787
-0.689483
-0.699828
-0.713519
-0.730691
-0.751263
-0.775208
-0.802469
-0.833052
-0.867126
-0.905126
-0.947808
-0.996177
-1.05127
-1.11395
-1.18485
-1.26464
-1.35447
-1.45629
-1.57265
-1.70675
-1.86178
-0.67611
-0.679974
-0.686165
-0.695864
-0.708691
-0.724848
-0.744275
-0.766946
-0.792781
-0.821718
-0.853824
-0.889406
-0.929094
-0.973795
-1.02451
-1.08213
-1.14733
-1.22076
-1.30342
-1.39689
-1.50337
-1.62578
-1.76721
-0.670043
-0.673796
-0.67939
-0.688343
-0.700148
-0.715072
-0.733069
-0.754115
-0.778117
-0.804976
-0.834679
-0.867427
-0.903721
-0.944343
-0.990203
-1.04215
-1.10084
-1.16689
-1.24109
-1.32464
-1.4192
-1.5272
-1.65135
-0.661599
-0.665331
-0.670245
-0.678375
-0.689041
-0.702547
-0.71887
-0.737987
-0.759804
-0.784199
-0.811108
-0.840656
-0.873235
-0.909493
-0.950193
-0.996042
-1.0476
-1.10536
-1.16993
-1.24209
-1.32289
-1.41393
-1.51703
-0.652441
-0.656298
-0.660506
-0.667765
-0.677239
-0.689227
-0.703729
-0.720726
-0.740133
-0.76183
-0.785748
-0.811973
-0.840811
-0.872759
-0.90838
-0.948157
-0.992457
-1.0416
-1.09599
-1.15607
-1.22222
-1.29507
-1.37551
-0.642537
-0.64654
-0.650128
-0.656489
-0.664761
-0.67517
-0.687746
-0.702483
-0.719333
-0.738224
-0.75912
-0.7821
-0.807385
-0.835301
-0.866165
-0.90018
-0.937469
-0.978183
-1.02255
-1.07072
-1.12248
-1.17749
-1.23578
-0.629558
-0.63359
-0.636772
-0.642187
-0.649183
-0.657891
-0.66836
-0.680624
-0.6947
-0.710596
-0.728326
-0.747943
-0.769542
-0.793237
-0.819101
-0.847132
-0.877264
-0.909438
-0.943603
-0.979536
-1.01665
-1.05404
-1.09118
-0.612164
-0.616842
-0.61957
-0.623922
-0.629447
-0.63623
-0.644322
-0.653787
-0.664697
-0.677122
-0.69111
-0.706651
-0.723676
-0.742067
-0.761692
-0.78241
-0.804026
-0.826225
-0.848511
-0.870211
-0.890573
-0.908593
-0.922879
628.366
137.582
136.911
137.939
798.31
600.601
291.859
168.473
953.346
868.712
829.187
720.298
1043.06
996.198
980.326
980.573
1095.92
1090.33
1087.31
1087.41
267.046
547.518
837.411
1139.36
0.0762572
4.23595
47.4118
153.448
-0.0334441
0.043876
-0.0309618
0.0491309
1.71886
2.09096
1.81885
1.33103
2.0632
1.62302
-0.20953
-0.845559
0.338399
-0.579749
-0.705511
-0.856767
-0.458599
-0.590754
-0.731371
-0.890264
-0.503402
-0.64085
-0.786069
-0.947382
-0.575065
-0.714365
-0.863429
-1.02358
-0.664514
-0.804726
-0.957316
-1.1165
-0.765782
-0.908129
-1.06568
-1.22821
-0.87708
-1.02248
-1.18742
-1.36092
-0.9961
-1.14713
-1.32219
-1.51339
-1.12181
-1.282
-1.47045
-1.68321
-1.25274
-1.42609
-1.63193
-1.8678
-1.3869
-1.57754
-1.80505
-2.06572
-1.52162
-1.7333
-1.98653
-2.27856
-1.65385
-1.88874
-2.1712
-2.50435
-1.78033
-2.03839
-2.35186
-2.73186
-1.89776
-2.17703
-2.51954
-2.94349
-2.00293
-2.30033
-2.66606
-3.12192
-2.09291
-2.40519
-2.78787
-3.26051
-2.16535
-2.48938
-2.88447
-3.3644
-2.21889
-2.55187
-2.95609
-3.43993
-2.2528
-2.59258
-3.00398
-3.4926
-2.26622
-2.611
-3.02909
-3.52758
-2.2577
-2.60504
-3.02949
-3.54353
-2.22518
-2.57148
-3.00015
-3.52937
-2.16659
-2.50609
-2.93346
-3.46652
-2.08067
-2.40346
-2.81005
-3.3452
-1.96671
-2.26063
-2.63564
-3.14434
-1.82474
-2.08082
-2.40778
-2.85915
-1.6602
-1.86855
-2.13203
-2.49684
-1.48473
-1.63811
-1.825
-2.07942
-1.31106
-1.40804
-1.51275
-1.64209
-1.13416
-1.17824
-1.20704
-1.21797
-0.932311
-0.924549
-0.8854
-0.801673
137.24
137.107
137.22
137.219
137.237
137.3
137.36
137.412
137.46
137.499
137.524
137.531
137.523
137.505
137.48
137.454
137.431
137.414
137.404
136.934
136.687
137.113
137.181
137.137
137.239
137.34
137.407
137.479
137.533
137.562
137.563
137.542
137.505
137.461
137.416
137.377
137.347
137.332
320.636
216.647
175.035
137.47
137.109
137.205
137.349
137.395
137.476
137.58
137.622
137.611
137.564
137.498
137.424
137.352
137.288
137.241
137.215
948.017
977.757
869.855
317.78
218.802
188.306
140.963
137.581
137.472
137.643
137.713
137.674
137.582
137.473
137.357
137.243
137.143
137.069
137.03
1089.42
1102.93
1102.88
1082.67
1113.88
988.361
464.546
205.82
140.436
138.151
137.902
137.755
137.585
137.414
137.238
137.064
136.911
136.797
136.736
1203.22
1202.55
1202.31
1212.64
1226.4
1222.23
1232.08
1162.92
571.291
172.135
138.677
137.846
137.525
137.288
137.033
136.775
136.541
136.363
136.269
249.335
312.772
507.246
984.441
1309.9
1324.22
1329.43
1349.82
1372.26
959.197
256.389
138.804
137.483
137.031
136.69
136.313
135.95
135.671
135.525
-0.346466
-0.597901
4.12426
16.7362
31.0281
162.062
865.605
1423.79
1435.04
1453.16
1164.35
321.6
138.752
136.891
136.111
135.552
134.991
134.551
134.325
-0.611895
-1.01038
-1.13044
-1.22068
-1.11503
-0.984735
-0.740664
167.837
1114.33
1523.65
1522.98
1154.4
302.239
138.502
135.57
134.302
133.388
132.709
132.372
-0.952931
-1.01615
-1.07757
-1.13453
-1.16195
-1.177
-1.08421
-1.11545
76.0776
1061.36
1559.19
1537.83
946.313
193.581
135.77
132.153
130.619
129.63
129.177
-0.982484
-1.06757
-1.14847
-1.22092
-1.25786
-1.24855
-1.25764
-1.3922
-1.29792
158.253
1310.88
1562.64
1457.83
537.831
136.994
127.921
125.581
124.477
124.018
-1.02389
-1.11833
-1.20316
-1.27542
-1.31788
-1.32939
-1.34868
-1.39779
-1.52055
-1.63042
578.751
1557.06
1563.84
1029.45
189.273
120.4
117.158
116.349
116.124
-1.08648
-1.18848
-1.27769
-1.34927
-1.3966
-1.4159
-1.42134
-1.42193
-1.44007
-1.41377
81.8394
1283.56
1590.27
1386.3
369.134
109.17
104.273
104.367
104.941
-1.16164
-1.26313
-1.35229
-1.42555
-1.43374
-1.38013
-1.45105
-1.48579
-1.45376
-1.44813
-1.09895
865.061
1611.77
1500.04
587.9
94.5515
87.5001
88.894
90.7873
-1.25086
-1.35067
-1.43975
-1.45658
-1.42958
-1.45788
-1.46176
-1.45554
-1.51308
-1.50647
-1.47983
584.779
1587.83
1503.05
592.254
77.1859
70.0788
72.7327
75.5672
-1.36389
-1.46494
-1.54937
-1.63315
-1.70027
-1.69218
-1.60182
-1.58236
-1.61267
-1.55875
-1.54408
409.558
1553.72
1466.16
496.399
62.7994
56.8942
59.1479
61.6522
-1.50492
-1.607
-1.72071
-1.82282
-1.89294
-1.87833
-1.81258
-1.79208
-1.75958
-1.65359
-1.53724
415.748
1520.09
1387.71
394.018
53.1352
47.6651
48.994
50.4893
-1.68063
-1.80733
-1.93082
-2.05126
-2.12232
-2.09058
-2.04359
-2.0094
-1.94169
-1.79512
-1.64523
519.238
1481.2
1395.09
429.298
42.6429
38.0369
40.1284
41.2364
-1.87401
-2.0302
-2.17821
-2.29196
-2.35768
-2.27862
-2.23418
-2.14919
-2.06731
-1.86308
-1.74171
888.755
1469.35
1439.03
457.082
24.8457
27.7219
31.7104
33.1697
-2.0831
-2.25768
-2.41169
-2.50355
-2.5787
-2.54845
-2.41876
-2.35429
-2.13263
-1.77106
295.916
1481.91
1506.66
1325.19
281.846
15.4053
21.7094
24.5474
26.5935
-2.3071
-2.49883
-2.64526
-2.72119
-2.77096
-2.7558
-2.71963
-2.59129
-2.40969
182.881
1289.56
1507.76
1459.27
638.024
47.0073
18.7409
19.2208
19.7892
21.8643
-2.55252
-2.76899
-2.93154
-3.00741
-3.03856
-2.99576
-2.97395
-2.89771
202.178
1226.24
1409.3
1315.33
567.469
73.883
27.9837
22.06
16.5541
17.0285
18.9565
-2.8228
-3.08844
-3.30767
-3.46161
-3.41876
-3.2136
-3.30375
181.326
1063.8
1318.16
1132.35
402.262
32.7535
25.5696
29.9391
19.0991
14.4152
16.2358
17.3659
-3.10836
-3.45168
-3.65372
-4.00563
-4.02405
-3.6346
29.6957
720.921
1113.53
818.853
216.673
24.9374
20.128
19.3594
22.2547
16.1678
15.5092
16.2559
16.5862
-3.38466
-3.80888
-4.14124
-4.71191
-5.05136
-6.04271
292.182
770.328
509.589
85.7393
21.0709
17.8842
16.9969
17.3033
16.7253
15.9023
16.1659
16.3112
16.1394
-3.60915
-4.08117
-4.58102
-5.1199
-5.96618
124.677
474.795
389.638
50.9839
20.653
17.0405
16.2619
16.254
16.577
16.3919
16.0788
16.1605
16.1168
15.6997
-3.75688
-4.22048
-4.79262
-4.6098
-5.91413
160.584
525.433
425.683
45.2178
17.3088
16.4797
16.2104
16.2484
16.4009
16.2369
15.9383
15.8524
15.7135
15.1776
-3.85002
-4.27701
-4.76524
-4.37133
-5.44433
89.8989
561.593
589.363
91.3276
16.7064
16.5481
16.5264
16.4985
16.4031
16.092
15.6539
15.373
15.1437
14.5614
-3.91406
-4.3178
-4.75364
-4.51456
-5.02805
-5.30046
529.815
609.147
382.209
22.1516
16.9341
16.902
16.7578
16.3737
15.7822
15.151
14.6628
14.3627
13.8189
-3.9613
-4.35227
-4.74811
-5.05056
-3.50759
-4.9564
409.906
638.265
653.846
47.8907
17.2366
17.1647
16.7971
16.0801
15.1371
14.323
13.6615
13.2955
12.8983
-4.00756
-4.40781
-4.79172
-5.06812
-3.33089
-4.48996
222.091
662.719
672.061
528.556
19.2106
17.0885
16.3777
15.2637
14.0228
13.0504
12.3421
11.9625
11.6792
-4.0527
-4.48881
-4.93631
-5.38469
-5.2272
-5.22995
-0.397961
669.827
683.52
699.947
275.773
16.7207
15.2151
13.6718
12.193
11.263
10.6483
10.3413
10.169
-4.07814
-4.56746
-5.1258
-5.7369
-6.17483
-3.17448
-4.41931
558.779
705.605
714.193
721.169
80.8012
13.1627
10.9507
9.35692
8.88594
8.53818
8.42455
8.4541
-4.05546
-4.60739
-5.28634
-6.11327
-6.72708
-3.35687
-3.97512
240.341
722.673
722.25
729.959
555.289
35.1306
4.52654
4.97515
5.80142
6.04394
6.23622
6.70931
-3.95509
-4.55261
-5.33491
-6.34283
-7.4068
-7.68256
2.37467
0.201316
709.027
729.396
733.956
737.177
61.3369
-5.05848
0.403894
2.36871
3.47892
4.10036
4.97439
-3.74269
-4.34708
-5.17388
-6.30268
-7.6053
-8.61318
1.36316
-1.77605
286.429
737.522
740.787
480.516
29.8932
-7.9944
-2.7591
-0.277738
1.40878
2.38026
3.45244
-3.40069
-3.9592
-4.74179
-5.84659
-7.26813
-9.04719
-9.30246
-0.419842
-1.27883
322.316
296.263
29.8593
0.757529
-8.31589
-3.98066
-1.5666
0.174458
1.26342
2.24104
-2.93583
-3.3907
-4.02971
-4.94374
-6.23599
-8.06376
-10.6361
-6.08225
-5.33459
-17.8057
-19.0062
-18.3097
-13.2831
-6.98109
-3.80696
-1.71212
-0.321038
0.675096
1.34318
-2.38319
-2.69598
-3.13116
-3.74655
-4.6392
-5.96246
-7.60094
-6.7279
-8.64114
-13.8492
-14.291
-12.3286
-8.72303
-4.96476
-2.84819
-1.31781
-0.350656
0.393596
0.700443
-1.79158
-1.94881
-2.17832
-2.51242
-3.00351
-3.73008
-4.61349
-5.15741
-6.19181
-6.93757
-6.7449
-5.76675
-4.28674
-2.68863
-1.58736
-0.738665
-0.169315
0.234938
0.259244
-1.21311
-1.20961
-1.23728
-1.32808
-1.52333
-1.832
-2.2245
-2.62875
-2.93373
-2.90134
-2.49754
-2.07
-1.49871
-0.918857
-0.487668
-0.13319
0.119376
0.221717
0.0523648
-0.684049
-0.559461
-0.417399
-0.29627
-0.256153
-0.30219
-0.383196
-0.459595
-0.531093
-0.548774
-0.493069
-0.517146
-0.414655
-0.281443
-0.186159
-0.116412
-0.0845248
-0.0933148
-0.117353
)
;

boundaryField
{
    leftWall
    {
        type            fixedFluxPressure;
        gradient        uniform 0;
        value           nonuniform List<scalar> 
50
(
1212.14
1211.13
1209.1
1206.16
1202.45
1198.12
1193.31
1188.15
1179.63
1167.54
1156.92
1151.51
1161.04
827.287
0.824203
0.224646
0.171711
0.119593
0.0745674
0.0301637
-0.0166056
-0.0649038
-0.114149
-0.163503
-0.212237
-0.259828
-0.305884
-0.350089
-0.392172
-0.4319
-0.46908
-0.50355
-0.53517
-0.563808
-0.589345
-0.611693
-0.630814
-0.646704
-0.65934
-0.668704
-0.674922
-0.678267
-0.678793
-0.67611
-0.670043
-0.661599
-0.652441
-0.642537
-0.629558
-0.612164
)
;
    }
    rightWall
    {
        type            fixedFluxPressure;
        gradient        uniform 0;
        value           nonuniform List<scalar> 
50
(
137.495
137.494
137.491
137.486
137.479
137.469
137.455
137.438
137.404
137.332
137.215
137.03
136.736
136.269
135.525
134.325
132.372
129.177
124.018
116.124
104.941
90.7873
75.5672
61.6522
50.4893
41.2364
33.1697
26.5935
21.8643
18.9565
17.3659
16.5862
16.1394
15.6997
15.1776
14.5614
13.8189
12.8983
11.6792
10.169
8.4541
6.70931
4.97439
3.45244
2.24104
1.34318
0.700443
0.259244
0.0523648
-0.117353
)
;
    }
    lowerWall
    {
        type            fixedFluxPressure;
        gradient        uniform 0;
        value           nonuniform List<scalar> 
62
(
1212.14
1216.42
1224.2
1226.75
1222.83
1214.06
1203.63
1193.6
1184.89
1178.01
1173.5
1172
1174.39
1181.81
1195.89
1217.81
1248.11
1285.43
1323.53
1348.8
1341.86
1313.57
1363.27
1363.27
1363.13
1371.49
1395.17
1414.37
1406.28
1361.71
1273.8
628.366
137.582
136.911
137.939
137.263
137.261
137.256
137.25
137.243
137.236
137.227
137.223
137.263
137.273
137.284
137.301
137.323
137.349
137.377
137.405
137.431
137.453
137.47
137.482
137.491
137.495
137.497
137.497
137.496
137.495
137.495
)
;
    }
    atmosphere
    {
        type            totalPressure;
        rho             rho;
        psi             none;
        gamma           1;
        p0              uniform 0;
        value           nonuniform List<scalar> 
46
(
-0.598874
-0.605418
-0.607302
-0.610983
-0.615603
-0.621229
-0.627905
-0.635691
-0.644675
-0.654935
-0.666513
-0.679357
-0.693308
-0.708132
-0.723582
-0.739449
-0.755467
-0.771199
-0.785933
-0.798775
-0.808926
-0.815369
-0.816208
-0.806467
-0.771293
-0.699535
-0.579026
-0.436625
-0.302743
-0.172753
-0.0719795
-0.0131334
0
0
0
0
0
0
0
0
0
0
0
0
0
0
)
;
    }
    defaultFaces
    {
        type            empty;
    }
}


// ************************************************************************* //
