/*--------------------------------*- C++ -*----------------------------------*\
| =========                 |                                                 |
| \\      /  F ield         | OpenFOAM: The Open Source CFD Toolbox           |
|  \\    /   O peration     | Version:  2206                                  |
|   \\  /    A nd           | Website:  www.openfoam.com                      |
|    \\/     M anipulation  |                                                 |
\*---------------------------------------------------------------------------*/
FoamFile
{
    version     2.0;
    format      ascii;
    arch        "LSB;label=32;scalar=64";
    class       surfaceScalarField;
    location    "0.325";
    object      phi;
}
// * * * * * * * * * * * * * * * * * * * * * * * * * * * * * * * * * * * * * //

dimensions      [0 3 -1 0 0 0 0];

oriented        oriented;

internalField   nonuniform List<scalar> 
4432
(
-1.58994e-06
1.58994e-06
1.45495e-06
-3.04488e-06
7.32232e-06
-5.86737e-06
1.39612e-05
-6.63884e-06
2.00655e-05
-6.10431e-06
2.51897e-05
-5.12427e-06
2.93858e-05
-4.19604e-06
3.28782e-05
-3.49247e-06
3.58873e-05
-3.00904e-06
3.85533e-05
-2.66598e-06
4.09185e-05
-2.36521e-06
4.29391e-05
-2.02067e-06
4.44876e-05
-1.54849e-06
4.53549e-05
-8.67224e-07
4.50325e-05
3.22403e-07
4.25581e-05
2.47431e-06
3.68954e-05
5.66277e-06
2.68703e-05
1.0025e-05
1.26356e-05
1.42348e-05
-2.98215e-06
1.56177e-05
-1.33067e-05
1.03246e-05
-1.5756e-05
2.44929e-06
-1.5756e-05
-1.52974e-06
3.11968e-06
1.62722e-06
-6.20185e-06
7.53241e-06
-1.17726e-05
1.41482e-05
-1.32546e-05
2.02123e-05
-1.21684e-05
2.53043e-05
-1.02163e-05
2.94901e-05
-8.38184e-06
3.30008e-05
-7.00321e-06
3.60536e-05
-6.0618e-06
3.87806e-05
-5.393e-06
4.1217e-05
-4.80155e-06
4.33125e-05
-4.11624e-06
4.49648e-05
-3.20071e-06
4.60332e-05
-1.93562e-06
4.65514e-05
-1.95853e-07
4.6725e-05
2.30074e-06
4.61595e-05
6.22821e-06
4.33482e-05
1.28363e-05
3.53308e-05
2.22522e-05
2.00127e-05
3.09358e-05
1.4982e-07
3.01874e-05
-6.49236e-06
9.09147e-06
-2.22484e-05
-1.33853e-06
4.45821e-06
1.91247e-06
-9.45285e-06
7.84021e-06
-1.77003e-05
1.4366e-05
-1.97804e-05
2.02932e-05
-1.80957e-05
2.52626e-05
-1.51856e-05
2.93752e-05
-1.24945e-05
3.28727e-05
-1.05006e-05
3.59633e-05
-9.15244e-06
3.87622e-05
-8.1919e-06
4.12888e-05
-7.32813e-06
4.34868e-05
-6.31419e-06
4.52487e-05
-4.96262e-06
4.64315e-05
-3.11848e-06
4.68634e-05
-6.27747e-07
4.64539e-05
2.71028e-06
4.54135e-05
7.26856e-06
4.43892e-05
1.38606e-05
4.27713e-05
2.38701e-05
3.71402e-05
3.65669e-05
2.47263e-05
4.26013e-05
9.88742e-06
2.39304e-05
-1.2361e-05
-1.07246e-06
5.53066e-06
2.32787e-06
-1.28532e-05
8.2654e-06
-2.36378e-05
1.46541e-05
-2.61691e-05
2.03855e-05
-2.38271e-05
2.5189e-05
-1.99891e-05
2.92147e-05
-1.65202e-05
3.27122e-05
-1.39981e-05
3.58723e-05
-1.23126e-05
3.87841e-05
-1.11036e-05
4.14451e-05
-9.98912e-06
4.37877e-05
-8.6568e-06
4.57021e-05
-6.87705e-06
4.70545e-05
-4.47091e-06
4.76983e-05
-1.27156e-06
4.74889e-05
2.91974e-06
4.63719e-05
8.38555e-06
4.47848e-05
1.54478e-05
4.39531e-05
2.47018e-05
4.32956e-05
3.72244e-05
3.74257e-05
4.84712e-05
2.15797e-05
3.97764e-05
9.21872e-06
-7.2079e-07
6.25145e-06
2.85004e-06
-1.6424e-05
8.7683e-06
-2.95561e-05
1.49683e-05
-3.23691e-05
2.04535e-05
-2.93123e-05
2.50625e-05
-2.45981e-05
2.90003e-05
-2.0458e-05
3.2518e-05
-1.75159e-05
3.57787e-05
-1.55732e-05
3.88371e-05
-1.4162e-05
4.16649e-05
-1.2817e-05
4.41819e-05
-1.11738e-05
4.62786e-05
-8.97371e-06
4.78321e-05
-6.02442e-06
4.87178e-05
-2.15721e-06
4.88285e-05
2.809e-06
4.81107e-05
9.10331e-06
4.65944e-05
1.69641e-05
4.49349e-05
2.63614e-05
4.43475e-05
3.78118e-05
4.15007e-05
5.1318e-05
2.7432e-05
5.38451e-05
3.66507e-05
-2.84189e-07
6.53564e-06
3.45947e-06
-2.01677e-05
9.3256e-06
-3.54222e-05
1.52867e-05
-3.83302e-05
2.04878e-05
-3.45133e-05
2.48913e-05
-2.90016e-05
2.87552e-05
-2.43219e-05
3.23207e-05
-2.10814e-05
3.57119e-05
-1.89645e-05
3.89438e-05
-1.73939e-05
4.19607e-05
-1.58338e-05
4.46708e-05
-1.38839e-05
4.69671e-05
-1.12701e-05
4.87385e-05
-7.79581e-06
4.9877e-05
-3.29566e-06
5.0297e-05
2.38897e-06
4.99658e-05
9.43456e-06
4.88825e-05
1.80473e-05
4.69868e-05
2.82571e-05
4.50857e-05
3.97129e-05
4.22277e-05
5.41761e-05
2.9982e-05
6.60908e-05
6.66327e-05
1.7887e-07
6.35677e-06
4.13907e-06
-2.41279e-05
9.92328e-06
-4.12064e-05
1.56036e-05
-4.40106e-05
2.05e-05
-3.94098e-05
2.47066e-05
-3.32082e-05
2.85245e-05
-2.81398e-05
3.21714e-05
-2.47283e-05
3.57231e-05
-2.25161e-05
3.91511e-05
-2.08219e-05
4.23741e-05
-1.90568e-05
4.52925e-05
-1.68024e-05
4.78033e-05
-1.37809e-05
4.98047e-05
-9.79719e-06
5.12009e-05
-4.69181e-06
5.19151e-05
1.67468e-06
5.19228e-05
9.4269e-06
5.12435e-05
1.87266e-05
4.96811e-05
2.98194e-05
4.71305e-05
4.22635e-05
4.33233e-05
5.79833e-05
3.29799e-05
7.64341e-05
9.96126e-05
6.6987e-07
5.6869e-06
4.86408e-06
-2.83221e-05
1.05398e-05
-4.68822e-05
1.59194e-05
-4.93902e-05
2.052e-05
-4.40104e-05
2.45622e-05
-3.72503e-05
2.83753e-05
-3.19529e-05
3.21402e-05
-2.84932e-05
3.58782e-05
-2.62541e-05
3.95193e-05
-2.44629e-05
4.29617e-05
-2.24992e-05
4.61034e-05
-1.99441e-05
4.88474e-05
-1.65249e-05
5.10966e-05
-1.20463e-05
5.27519e-05
-6.34712e-06
5.37512e-05
6.75389e-07
5.4072e-05
9.10608e-06
5.37328e-05
1.90658e-05
5.26486e-05
3.09036e-05
5.03735e-05
4.45386e-05
4.59981e-05
6.23588e-05
3.62213e-05
8.62109e-05
0.000135834
2.01237e-06
-2.01237e-06
5.4528e-06
-3.44052e-06
8.25015e-06
-2.7973e-06
1.05474e-05
-2.29719e-06
1.26789e-05
-2.1316e-06
1.47963e-05
-2.11739e-06
1.68899e-05
-2.09358e-06
1.88158e-05
-1.9259e-06
2.03598e-05
-1.54405e-06
2.12859e-05
-9.26041e-07
2.14407e-05
-1.54845e-07
2.07648e-05
6.75926e-07
1.93461e-05
1.41864e-06
1.72477e-05
2.09837e-06
1.45523e-05
2.69539e-06
1.13568e-05
3.19535e-06
7.77701e-06
3.57984e-06
3.94832e-06
3.82859e-06
3.94831e-06
1.24127e-06
-3.25357e-06
4.63455e-06
-6.83389e-06
7.65277e-06
-5.81552e-06
1.03476e-05
-4.99195e-06
1.29374e-05
-4.72147e-06
1.54656e-05
-4.64562e-06
1.78796e-05
-4.50755e-06
2.00574e-05
-4.10366e-06
2.18538e-05
-3.34055e-06
2.31634e-05
-2.23563e-06
2.38624e-05
-8.53913e-07
2.38296e-05
7.08638e-07
2.28677e-05
2.38048e-06
2.09303e-05
4.03571e-06
1.80545e-05
5.57126e-06
1.43448e-05
6.90477e-06
9.95497e-06
7.96974e-06
5.08689e-06
8.69667e-06
9.03517e-06
1.20447e-06
-4.45798e-06
4.87714e-06
-1.05066e-05
7.98674e-06
-8.92515e-06
1.06137e-05
-7.61889e-06
1.30782e-05
-7.18595e-06
1.55407e-05
-7.1081e-06
1.79733e-05
-6.94018e-06
2.02212e-05
-6.3516e-06
2.20858e-05
-5.20515e-06
2.33863e-05
-3.53615e-06
2.39909e-05
-1.45857e-06
2.38009e-05
8.98575e-07
2.27466e-05
3.43474e-06
2.07853e-05
5.99689e-06
1.79325e-05
8.42418e-06
1.42628e-05
1.05742e-05
9.90911e-06
1.23235e-05
5.06659e-06
1.35392e-05
1.41018e-05
8.4114e-07
-5.29909e-06
4.74607e-06
-1.44115e-05
8.00362e-06
-1.21828e-05
1.06237e-05
-1.02389e-05
1.30414e-05
-9.60366e-06
1.55441e-05
-9.61078e-06
1.80899e-05
-9.48601e-06
2.04775e-05
-8.73926e-06
2.248e-05
-7.20765e-06
2.38892e-05
-4.94541e-06
2.45387e-05
-2.10813e-06
2.43221e-05
1.11524e-06
2.31864e-05
4.57044e-06
2.112e-05
8.06307e-06
1.81635e-05
1.13808e-05
1.44065e-05
1.43311e-05
9.98887e-06
1.67411e-05
5.10128e-06
1.84267e-05
1.9203e-05
5.98239e-08
-5.35893e-06
4.3185e-06
-1.86701e-05
7.93232e-06
-1.57967e-05
1.05043e-05
-1.28109e-05
1.2856e-05
-1.19554e-05
1.54732e-05
-1.22279e-05
1.82219e-05
-1.22348e-05
2.08215e-05
-1.13388e-05
2.3022e-05
-9.40822e-06
2.45976e-05
-6.5211e-06
2.53656e-05
-2.87615e-06
2.52079e-05
1.27292e-06
2.40667e-05
5.7117e-06
2.19335e-05
1.01961e-05
1.88588e-05
1.44556e-05
1.49497e-05
1.82402e-05
1.03587e-05
2.1332e-05
5.28741e-06
2.3498e-05
2.44904e-05
-9.17557e-07
-4.44141e-06
4.07172e-06
-2.36593e-05
8.16357e-06
-1.98886e-05
1.03928e-05
-1.504e-05
1.2498e-05
-1.40606e-05
1.52716e-05
-1.50015e-05
1.83304e-05
-1.52936e-05
2.12337e-05
-1.42421e-05
2.37025e-05
-1.18771e-05
2.5502e-05
-8.3206e-06
2.64311e-05
-3.80527e-06
2.63624e-05
1.3416e-06
2.52364e-05
6.83771e-06
2.30446e-05
1.23878e-05
1.9843e-05
1.76572e-05
1.57439e-05
2.23393e-05
1.09158e-05
2.61601e-05
5.57254e-06
2.88413e-05
3.0063e-05
-2.67257e-07
-4.17421e-06
4.43171e-06
-2.83582e-05
8.80132e-06
-2.42583e-05
1.04067e-05
-1.66453e-05
1.21657e-05
-1.58197e-05
1.51312e-05
-1.79671e-05
1.85158e-05
-1.86782e-05
2.17529e-05
-1.74791e-05
2.45414e-05
-1.46656e-05
2.66168e-05
-1.0396e-05
2.77447e-05
-4.93321e-06
2.77854e-05
1.30092e-06
2.66796e-05
7.94346e-06
2.44206e-05
1.46467e-05
2.10669e-05
2.10109e-05
1.67387e-05
2.66674e-05
1.16178e-05
3.12809e-05
5.93355e-06
3.45256e-05
3.59966e-05
2.03788e-06
-6.21215e-06
3.47175e-06
-2.97919e-05
8.55772e-06
-2.93443e-05
9.68859e-06
-1.77761e-05
1.15439e-05
-1.7675e-05
1.51895e-05
-2.16128e-05
1.898e-05
-2.24688e-05
2.24851e-05
-2.09842e-05
2.55896e-05
-1.77702e-05
2.79867e-05
-1.2793e-05
2.93523e-05
-6.29887e-06
2.95128e-05
1.14034e-06
2.84198e-05
9.03649e-06
2.6072e-05
1.69945e-05
2.25327e-05
2.45502e-05
1.79294e-05
3.12708e-05
1.24562e-05
3.67542e-05
6.36451e-06
4.06173e-05
4.2361e-05
3.12802e-06
2.55888e-06
1.27382e-05
-3.79323e-05
2.44349e-05
-5.85788e-05
3.48899e-05
-5.98452e-05
4.37857e-05
-5.29062e-05
5.20164e-05
-4.5481e-05
6.02784e-05
-4.02149e-05
6.87571e-05
-3.6972e-05
7.7312e-05
-3.4809e-05
8.56909e-05
-3.28418e-05
9.36546e-05
-3.0463e-05
0.000101012
-2.73016e-05
0.000107602
-2.31145e-05
0.000113261
-1.77059e-05
0.000117796
-1.08819e-05
0.000121
-2.5282e-06
0.000122847
7.25834e-06
0.000123394
1.85193e-05
0.000122725
3.15727e-05
0.000120778
4.64856e-05
0.000117918
6.52189e-05
0.000119162
8.49666e-05
0.000128355
0.000126641
5.70845e-06
-3.14957e-06
1.63467e-05
-4.85705e-05
2.70148e-05
-6.92469e-05
3.59225e-05
-6.87528e-05
4.37772e-05
-6.07609e-05
5.17534e-05
-5.34573e-05
6.03344e-05
-4.8796e-05
6.93827e-05
-4.60202e-05
7.85398e-05
-4.39661e-05
8.7491e-05
-4.1793e-05
9.60347e-05
-3.90067e-05
0.000104052
-3.53186e-05
0.000111452
-3.05153e-05
0.000118181
-2.44347e-05
0.000124319
-1.70198e-05
0.000129709
-7.91835e-06
0.000133609
3.35817e-06
0.000136718
1.54111e-05
0.000138923
2.93674e-05
0.000141342
4.40669e-05
0.000146473
6.0088e-05
0.00015787
7.35695e-05
0.000102494
0.000183731
9.46081e-06
-1.26104e-05
2.10513e-05
-6.0161e-05
2.96601e-05
-7.78558e-05
3.6328e-05
-7.54207e-05
4.31501e-05
-6.75829e-05
5.11057e-05
-6.14128e-05
6.00705e-05
-5.77609e-05
6.95296e-05
-5.54792e-05
7.90165e-05
-5.3453e-05
8.82975e-05
-5.1074e-05
9.72944e-05
-4.80036e-05
0.000105989
-4.40132e-05
0.000114316
-3.8842e-05
0.000122096
-3.22155e-05
0.000129094
-2.40171e-05
0.000135427
-1.4252e-05
0.000142307
-3.52106e-06
0.000147553
1.01647e-05
0.000151819
2.51016e-05
0.00015679
3.90954e-05
0.000164244
5.26339e-05
0.000174174
6.36394e-05
7.82846e-05
0.000198384
1.55432e-05
-2.81535e-05
2.91986e-05
-7.38164e-05
3.38336e-05
-8.24908e-05
3.6856e-05
-7.84431e-05
4.27129e-05
-7.34399e-05
5.12418e-05
-6.99417e-05
6.1171e-05
-6.76901e-05
7.16775e-05
-6.59858e-05
8.22892e-05
-6.40647e-05
9.29808e-05
-6.17655e-05
0.000103892
-5.89153e-05
0.000115154
-5.52748e-05
0.000126775
-5.04629e-05
0.000138605
-4.40459e-05
0.000150201
-3.56124e-05
0.000160391
-2.44423e-05
0.000167144
-1.0274e-05
0.000170932
6.37697e-06
0.0001719
2.41335e-05
0.000173161
3.78341e-05
0.000176673
4.91221e-05
0.000182915
5.73973e-05
6.34729e-05
0.000197727
2.53066e-05
-5.34602e-05
4.18534e-05
-9.03633e-05
4.03295e-05
-8.09668e-05
3.89485e-05
-7.70622e-05
4.45238e-05
-7.90152e-05
5.46149e-05
-8.00327e-05
6.64081e-05
-7.94833e-05
7.88091e-05
-7.83867e-05
9.15931e-05
-7.68487e-05
0.000105654
-7.5826e-05
0.000121532
-7.47933e-05
0.000139452
-7.31952e-05
0.000159347
-7.03579e-05
0.000180594
-6.52932e-05
0.000201232
-5.62503e-05
0.000217566
-4.07761e-05
0.000223035
-1.57424e-05
0.000217173
1.22385e-05
0.000205616
3.56909e-05
0.00019499
4.84602e-05
0.000189061
5.50503e-05
0.000188254
5.82043e-05
5.66694e-05
0.000195058
3.44709e-05
-8.7931e-05
5.11614e-05
-0.000107054
4.73077e-05
-7.71131e-05
4.40898e-05
-7.38442e-05
4.93857e-05
-8.43111e-05
5.98256e-05
-9.04726e-05
7.12298e-05
-9.08875e-05
8.10789e-05
-8.82358e-05
9.1835e-05
-8.76049e-05
0.000106803
-9.07945e-05
0.0001264
-9.43896e-05
0.000148787
-9.55826e-05
0.000172864
-9.44349e-05
0.000197894
-9.03232e-05
0.000221165
-7.9522e-05
0.000239193
-5.88036e-05
0.000250526
-2.70753e-05
0.000252592
1.01728e-05
0.000246779
4.15041e-05
0.000233908
6.13308e-05
0.000215789
7.31693e-05
0.000195199
7.87942e-05
6.39187e-05
0.00018795
1.86065e-05
-0.000106538
2.46633e-05
-0.000113111
3.5212e-05
-8.76619e-05
3.94133e-05
-7.80455e-05
4.22232e-05
-8.71209e-05
4.56554e-05
-9.39049e-05
5.11229e-05
-9.63551e-05
6.03617e-05
-9.74747e-05
7.41206e-05
-0.000101364
9.22444e-05
-0.000108918
0.000114205
-0.00011635
0.000137892
-0.00011927
0.000163414
-0.000119958
0.000191924
-0.000118833
0.000220519
-0.000108117
0.000245033
-8.33176e-05
0.000264574
-4.66165e-05
0.000276354
-1.60659e-06
0.000275024
4.28337e-05
0.000262924
7.34311e-05
0.000248962
8.71305e-05
0.000235151
9.26059e-05
8.37951e-05
0.000215274
-8.95341e-06
-9.75842e-05
-1.02975e-05
-0.000111767
5.13059e-06
-0.00010309
2.23202e-05
-9.52351e-05
3.16681e-05
-9.64688e-05
3.76468e-05
-9.98836e-05
4.38744e-05
-0.000102583
5.28104e-05
-0.000106411
6.55941e-05
-0.000114148
8.22932e-05
-0.000125617
0.000101864
-0.00013592
0.000121654
-0.00013906
0.000143333
-0.000141637
0.000170585
-0.000146084
0.00019928
-0.000136812
0.000225636
-0.000109674
0.000247624
-6.86048e-05
0.000262591
-1.65736e-05
0.000262519
4.29058e-05
0.000249295
8.66553e-05
0.000230531
0.000105894
0.000215638
0.000107499
8.30784e-05
0.000216354
-8.54762e-06
-8.90367e-05
1.14571e-07
-0.000120429
9.6925e-06
-0.000112668
1.98454e-05
-0.000105388
2.79171e-05
-0.000104541
3.42992e-05
-0.000106266
4.04022e-05
-0.000108686
4.75717e-05
-0.00011358
5.66871e-05
-0.000123263
6.74921e-05
-0.000136422
7.96962e-05
-0.000148124
9.11141e-05
-0.000150478
0.000103813
-0.000154336
0.000123928
-0.000166199
0.000144657
-0.00015754
0.000166519
-0.000131536
0.00018676
-8.88451e-05
0.000202917
-3.2731e-05
0.000210561
3.5262e-05
0.000208992
8.82244e-05
0.000205754
0.000109132
0.000215252
9.80012e-05
5.43343e-05
0.000243996
1.97704e-06
-9.10137e-05
7.42464e-06
-0.000125876
1.24183e-05
-0.000117662
1.89224e-05
-0.000111892
2.55222e-05
-0.00011114
3.13056e-05
-0.000112049
3.63895e-05
-0.00011377
4.114e-05
-0.000118331
4.57364e-05
-0.000127859
4.9972e-05
-0.000140658
5.41691e-05
-0.000152321
5.78892e-05
-0.000154198
6.08826e-05
-0.000157329
6.40158e-05
-0.000169333
6.93599e-05
-0.000162884
7.98036e-05
-0.00014198
9.31147e-05
-0.000102156
0.000107945
-4.75617e-05
0.000126751
1.64568e-05
0.000148942
6.60326e-05
0.000181146
7.69283e-05
0.000221449
5.76988e-05
2.07611e-05
0.000255022
5.67878e-06
-9.66925e-05
9.08765e-06
-0.000129285
1.28751e-05
-0.000121449
1.83743e-05
-0.000117391
2.41821e-05
-0.000116948
2.94048e-05
-0.000117272
3.37429e-05
-0.000118108
3.68014e-05
-0.000121389
3.8092e-05
-0.00012915
3.752e-05
-0.000140086
3.55266e-05
-0.000150328
3.41184e-05
-0.00015279
2.93876e-05
-0.000152599
1.99639e-05
-0.000159909
1.44436e-05
-0.000157364
1.40156e-05
-0.000141552
1.80435e-05
-0.000106184
3.07659e-05
-6.02841e-05
6.03691e-05
-1.31463e-05
0.000110254
1.61478e-05
0.000164865
2.23165e-05
0.000208143
1.44207e-05
-3.53996e-06
0.000232445
6.72249e-06
-0.000103415
9.78422e-06
-0.000132347
1.34932e-05
-0.000125158
1.85207e-05
-0.000122419
2.378e-05
-0.000122208
2.87405e-05
-0.000122232
3.30087e-05
-0.000122376
3.58038e-05
-0.000124184
3.62239e-05
-0.00012957
3.40731e-05
-0.000137935
2.9885e-05
-0.00014614
2.68964e-05
-0.000149802
2.33678e-05
-0.00014907
1.45197e-05
-0.000151061
7.10928e-06
-0.000149953
7.36466e-06
-0.000141807
1.7602e-05
-0.000116421
3.84752e-05
-8.11572e-05
7.10988e-05
-4.577e-05
0.000109544
-2.22969e-05
0.000145578
-1.37176e-05
0.00017464
-1.46422e-05
-2.45507e-05
0.000195651
6.9348e-06
-0.00011035
9.939e-06
-0.000135351
1.38429e-05
-0.000129062
1.86336e-05
-0.000127209
2.36086e-05
-0.000127183
2.85776e-05
-0.000127201
3.33195e-05
-0.000127118
3.70736e-05
-0.000127938
3.87591e-05
-0.000131255
3.79319e-05
-0.000137108
3.51804e-05
-0.000143388
3.28641e-05
-0.000147485
3.19269e-05
-0.000148133
2.87063e-05
-0.00014784
2.30774e-05
-0.000144324
1.83976e-05
-0.000137127
2.04993e-05
-0.000118523
3.43966e-05
-9.50544e-05
5.86558e-05
-7.00292e-05
8.86901e-05
-5.23314e-05
0.000120156
-4.51835e-05
0.000151757
-4.62428e-05
-5.29521e-05
0.000180158
6.61409e-06
-0.000116964
9.85101e-06
-0.000138588
1.39279e-05
-0.000133139
1.85942e-05
-0.000131876
2.34333e-05
-0.000132022
2.84343e-05
-0.000132202
3.36008e-05
-0.000132284
3.8433e-05
-0.00013277
4.19305e-05
-0.000134753
4.34278e-05
-0.000138605
4.31878e-05
-0.000143148
4.22753e-05
-0.000146573
4.17844e-05
-0.000147642
4.03621e-05
-0.000146418
3.79032e-05
-0.000141866
3.54631e-05
-0.000134687
3.87549e-05
-0.000121815
5.01879e-05
-0.000106488
7.11192e-05
-9.09607e-05
9.79301e-05
-7.91423e-05
0.00012618
-7.34339e-05
0.000153372
-7.34347e-05
-7.75406e-05
0.000177961
6.12169e-06
-0.000123086
9.64472e-06
-0.000142111
1.38489e-05
-0.000137343
1.84353e-05
-0.000136462
2.31498e-05
-0.000136736
2.80387e-05
-0.000137091
3.321e-05
-0.000137456
3.84505e-05
-0.000138011
4.3038e-05
-0.00013934
4.62563e-05
-0.000141823
4.79808e-05
-0.000144873
4.86467e-05
-0.000147239
4.8929e-05
-0.000147924
4.90736e-05
-0.000146563
5.00996e-05
-0.000142892
5.2192e-05
-0.000136779
5.82987e-05
-0.000127921
6.94031e-05
-0.000117592
8.60453e-05
-0.000107603
0.000106809
-9.99064e-05
0.000129334
-9.59583e-05
0.000151946
-9.60473e-05
-9.94275e-05
0.000173833
5.66408e-06
-0.00012875
9.40202e-06
-0.000145849
1.36516e-05
-0.000141593
1.81553e-05
-0.000140965
2.27357e-05
-0.000141316
2.74218e-05
-0.000141777
3.22992e-05
-0.000142333
3.73262e-05
-0.000143038
4.20958e-05
-0.00014411
4.6012e-05
-0.00014574
4.88054e-05
-0.000147666
5.07106e-05
-0.000149144
5.2236e-05
-0.00014945
5.39006e-05
-0.000148227
5.64415e-05
-0.000145432
6.06238e-05
-0.000140962
6.77377e-05
-0.000135035
7.85116e-05
-0.000128366
9.30939e-05
-0.000122185
0.000110777
-0.000117589
0.000130294
-0.000115475
0.000150426
-0.00011618
-0.000119399
0.000170397
5.28409e-06
-0.000134034
9.1462e-06
-0.000149711
1.33811e-05
-0.000145827
1.77931e-05
-0.000145377
2.22495e-05
-0.000145772
2.67483e-05
-0.000146276
3.13157e-05
-0.000146901
3.59538e-05
-0.000147676
4.04781e-05
-0.000148634
4.45398e-05
-0.000149801
4.79226e-05
-0.000151049
5.07726e-05
-0.000151994
5.35077e-05
-0.000152185
5.66126e-05
-0.000151332
6.06111e-05
-0.000149431
6.62086e-05
-0.000146559
7.41202e-05
-0.000142947
8.47723e-05
-0.000139018
9.80813e-05
-0.000135494
0.000113603
-0.000133111
0.000130654
-0.000132526
0.000148575
-0.0001341
-0.00013757
0.000166746
4.97584e-06
-0.00013901
8.88517e-06
-0.00015362
1.30712e-05
-0.000150013
1.73868e-05
-0.000149693
2.17333e-05
-0.000150119
2.60996e-05
-0.000150643
3.0477e-05
-0.000151278
3.48516e-05
-0.000152051
3.91612e-05
-0.000152944
4.32751e-05
-0.000153915
4.71008e-05
-0.000154874
5.07291e-05
-0.000155623
5.44539e-05
-0.00015591
5.86895e-05
-0.000155568
6.38422e-05
-0.000154583
7.03231e-05
-0.00015304
7.85009e-05
-0.000151125
8.86352e-05
-0.000149152
0.000100729
-0.000147588
0.000114572
-0.000146955
0.00012979
-0.000147744
0.000146003
-0.000150313
-0.000154347
0.00016278
4.72618e-06
-0.000143736
8.62179e-06
-0.000157516
1.27354e-05
-0.000154127
1.695e-05
-0.000153907
2.11928e-05
-0.000154362
2.5459e-05
-0.000154909
2.97367e-05
-0.000155556
3.40067e-05
-0.00015632
3.82504e-05
-0.000157187
4.24466e-05
-0.000158111
4.65895e-05
-0.000159017
5.07614e-05
-0.000159795
5.51616e-05
-0.00016031
6.0071e-05
-0.000160477
6.57792e-05
-0.000160292
7.25693e-05
-0.00015983
8.0693e-05
-0.000159248
9.03294e-05
-0.000158789
0.000101516
-0.000158774
0.000114137
-0.000159576
0.000127972
-0.00016158
0.000142769
-0.00016511
-0.000169917
0.000158339
4.51813e-06
-0.000148254
8.35465e-06
-0.000161353
1.23782e-05
-0.00015815
1.64865e-05
-0.000158016
2.06228e-05
-0.000158498
2.47911e-05
-0.000159077
2.89923e-05
-0.000159757
3.32166e-05
-0.000160545
3.74597e-05
-0.000161431
4.17312e-05
-0.000162383
4.60649e-05
-0.000163351
5.05416e-05
-0.000164271
5.53087e-05
-0.000165077
6.05628e-05
-0.000165731
6.65146e-05
-0.000166244
7.33713e-05
-0.000166687
8.13169e-05
-0.000167194
9.04782e-05
-0.00016795
0.000100889
-0.000169184
0.000112488
-0.000171175
0.000125159
-0.000174251
0.000138747
-0.000178698
-0.000184363
0.000153193
4.33607e-06
-0.00015259
8.08084e-06
-0.000165097
1.19995e-05
-0.000162069
1.59941e-05
-0.00016201
2.00181e-05
-0.000162522
2.40807e-05
-0.00016314
2.81916e-05
-0.000163868
3.23566e-05
-0.00016471
3.65817e-05
-0.000165656
4.08865e-05
-0.000166688
4.53135e-05
-0.000167778
4.99372e-05
-0.000168895
5.48714e-05
-0.000170011
6.02609e-05
-0.000171121
6.62647e-05
-0.000172247
7.30365e-05
-0.000173459
8.07083e-05
-0.000174866
8.93712e-05
-0.000176613
9.90595e-05
-0.000178873
0.000109752
-0.000181868
0.000121392
-0.00018589
0.000133899
-0.000191205
-0.000197727
0.000147264
4.16794e-06
-0.000156758
7.79789e-06
-0.000168727
1.15984e-05
-0.00016587
1.547e-05
-0.000165882
1.93734e-05
-0.000166426
2.33207e-05
-0.000167087
2.73257e-05
-0.000167873
3.14025e-05
-0.000168787
3.55682e-05
-0.000169822
3.98483e-05
-0.000170968
4.42843e-05
-0.000172214
4.89399e-05
-0.000173551
5.39036e-05
-0.000174975
5.92842e-05
-0.000176501
6.52014e-05
-0.000178164
7.17706e-05
-0.000180028
7.90888e-05
-0.000182184
8.72244e-05
-0.000184749
9.62115e-05
-0.00018786
0.000106053
-0.000191709
0.000116728
-0.000196565
0.000128208
-0.000202685
-0.000210031
0.000140512
4.00564e-06
-0.000160763
7.50358e-06
-0.000172225
1.11736e-05
-0.000169539
1.49117e-05
-0.00016962
1.86838e-05
-0.000170198
2.25038e-05
-0.000170907
2.63878e-05
-0.000171757
3.0353e-05
-0.000172752
3.44213e-05
-0.00017389
3.86213e-05
-0.000175168
4.29917e-05
-0.000176585
4.75856e-05
-0.000178145
5.24719e-05
-0.000179861
5.77331e-05
-0.000181763
6.34584e-05
-0.00018389
6.97331e-05
-0.000186303
7.66304e-05
-0.000189081
8.42043e-05
-0.000192323
9.24884e-05
-0.000196144
0.000101496
-0.000200716
0.00011123
-0.000206299
0.000121689
-0.000213145
-0.000221252
0.000132911
3.84373e-06
-0.000164607
7.19572e-06
-0.000175577
1.07236e-05
-0.000173067
1.4317e-05
-0.000173213
1.79453e-05
-0.000173826
2.16236e-05
-0.000174585
2.53689e-05
-0.000175502
2.91993e-05
-0.000176583
3.31371e-05
-0.000177828
3.72099e-05
-0.000179241
4.14531e-05
-0.000180828
4.59105e-05
-0.000182602
5.06355e-05
-0.000184586
5.56895e-05
-0.000186817
6.11385e-05
-0.000189339
6.70469e-05
-0.000192211
7.34701e-05
-0.000195504
8.04501e-05
-0.000199302
8.80174e-05
-0.000203711
9.61887e-05
-0.000208888
0.000104976
-0.000215087
0.000114393
-0.000222561
-0.00023134
0.00012448
3.67787e-06
-0.000168285
6.87236e-06
-0.000178771
1.02476e-05
-0.000176443
1.3685e-05
-0.000176651
1.7157e-05
-0.000177298
2.06785e-05
-0.000178107
2.42661e-05
-0.00017909
2.79378e-05
-0.000180254
3.17143e-05
-0.000181604
3.56207e-05
-0.000183147
3.96869e-05
-0.000184894
4.39484e-05
-0.000186864
4.84462e-05
-0.000189084
5.32259e-05
-0.000191596
5.83357e-05
-0.000194448
6.38232e-05
-0.000197698
6.97291e-05
-0.00020141
7.60855e-05
-0.000205659
8.2917e-05
-0.000210543
9.02376e-05
-0.000216208
9.80598e-05
-0.000222909
0.0001064
-0.000230901
-0.000240233
0.000115293
3.5053e-06
-0.00017179
6.53232e-06
-0.000181798
9.74535e-06
-0.000179656
1.30162e-05
-0.000179922
1.63201e-05
-0.000180602
1.96707e-05
-0.000181458
2.30836e-05
-0.000182503
2.65749e-05
-0.000183746
3.01633e-05
-0.000185193
3.38702e-05
-0.000186854
3.77199e-05
-0.000188744
4.174e-05
-0.000190884
4.59609e-05
-0.000193305
5.04156e-05
-0.000196051
5.51383e-05
-0.000199171
6.01631e-05
-0.000202723
6.55173e-05
-0.000206764
7.1224e-05
-0.000211365
7.72988e-05
-0.000216617
8.37529e-05
-0.000222662
9.05902e-05
-0.000229746
9.78225e-05
-0.000238133
-0.00024788
0.000105469
3.32334e-06
-0.000175114
6.17622e-06
-0.000184651
9.21879e-06
-0.000182698
1.23133e-05
-0.000183016
1.54384e-05
-0.000183727
1.86057e-05
-0.000184625
2.1829e-05
-0.000185726
2.5122e-05
-0.000187039
2.85004e-05
-0.000188571
3.19813e-05
-0.000190335
3.55836e-05
-0.000192346
3.93279e-05
-0.000194628
4.32355e-05
-0.000197213
4.73286e-05
-0.000200144
5.16297e-05
-0.000203472
5.61607e-05
-0.000207254
6.09386e-05
-0.000211542
6.59771e-05
-0.000216404
7.12817e-05
-0.000221922
7.68577e-05
-0.000228239
8.26959e-05
-0.000235584
8.87985e-05
-0.000244236
-0.000254244
9.51632e-05
3.1324e-06
-0.000178246
5.80803e-06
-0.000187327
8.67279e-06
-0.000185563
1.15824e-05
-0.000185926
1.45188e-05
-0.000186663
1.7492e-05
-0.000187598
2.05132e-05
-0.000188748
2.35933e-05
-0.000190119
2.67445e-05
-0.000191722
2.99796e-05
-0.00019357
3.33123e-05
-0.000195679
3.67562e-05
-0.000198072
4.03251e-05
-0.000200782
4.40311e-05
-0.00020385
4.78874e-05
-0.000207329
5.19046e-05
-0.000211271
5.60914e-05
-0.000215729
6.04512e-05
-0.000220764
6.49825e-05
-0.000226453
6.96738e-05
-0.00023293
7.45114e-05
-0.000240422
7.94808e-05
-0.000249205
-0.000259329
8.45651e-05
2.93543e-06
-0.000181181
5.4354e-06
-0.000189827
8.11589e-06
-0.000188243
1.08332e-05
-0.000188643
1.35728e-05
-0.000189403
1.63425e-05
-0.000190368
1.9151e-05
-0.000191556
2.20066e-05
-0.000192974
2.49176e-05
-0.000194633
2.78926e-05
-0.000196545
3.09402e-05
-0.000198727
3.40681e-05
-0.0002012
3.72823e-05
-0.000203996
4.05869e-05
-0.000207155
4.39856e-05
-0.000210727
4.74792e-05
-0.000214765
5.10698e-05
-0.000219319
5.47498e-05
-0.000224444
5.8507e-05
-0.000230211
6.2325e-05
-0.000236748
6.61695e-05
-0.000244266
7.00191e-05
-0.000253055
-0.000263154
7.38447e-05
2.73962e-06
-0.000183921
5.06829e-06
-0.000192156
7.5588e-06
-0.000190734
1.00782e-05
-0.000191162
1.26143e-05
-0.000191939
1.51734e-05
-0.000192927
1.77613e-05
-0.000194144
2.03834e-05
-0.000195596
2.30447e-05
-0.000197295
2.57497e-05
-0.00019925
2.85025e-05
-0.000201479
3.13049e-05
-0.000204002
3.41572e-05
-0.000206848
3.70555e-05
-0.000210053
3.99944e-05
-0.000213666
4.29662e-05
-0.000217737
4.59624e-05
-0.000222316
4.89687e-05
-0.00022745
5.19661e-05
-0.000233208
5.49199e-05
-0.000239701
5.77932e-05
-0.00024714
6.05435e-05
-0.000255805
-0.00026575
6.31393e-05
2.55339e-06
-0.000186475
4.71496e-06
-0.000194317
7.01046e-06
-0.000193029
9.32845e-06
-0.00019348
1.16573e-05
-0.000194268
1.40015e-05
-0.000195271
1.63637e-05
-0.000196506
1.87467e-05
-0.00019798
2.11525e-05
-0.0001997
2.3582e-05
-0.00020168
2.6035e-05
-0.000203932
2.85089e-05
-0.000206476
3.09981e-05
-0.000209337
3.34928e-05
-0.000212548
3.59789e-05
-0.000216153
3.84394e-05
-0.000220197
4.0856e-05
-0.000224732
4.32066e-05
-0.000229801
4.54621e-05
-0.000235463
4.75802e-05
-0.000241819
4.95047e-05
-0.000249064
5.1183e-05
-0.000257483
-0.000267138
5.25707e-05
2.38382e-06
-0.000188858
4.37757e-06
-0.000196311
6.47399e-06
-0.000195126
8.58924e-06
-0.000195596
1.07099e-05
-0.000196389
1.28385e-05
-0.0001974
1.49745e-05
-0.000198642
1.71178e-05
-0.000200123
1.92673e-05
-0.00020185
2.14209e-05
-0.000203833
2.35747e-05
-0.000206086
2.57223e-05
-0.000208624
2.78532e-05
-0.000211468
2.99525e-05
-0.000214647
3.19986e-05
-0.000218199
3.39666e-05
-0.000222165
3.58268e-05
-0.000226592
3.75495e-05
-0.000231523
3.90944e-05
-0.000237008
4.04075e-05
-0.000243132
4.14206e-05
-0.000250077
4.20632e-05
-0.000258126
-0.000267348
4.22735e-05
2.23143e-06
-0.00019109
4.05033e-06
-0.00019813
5.94546e-06
-0.000197021
7.85839e-06
-0.000197509
9.7729e-06
-0.000198303
1.16891e-05
-0.000199316
1.36035e-05
-0.000200556
1.55128e-05
-0.000202032
1.74127e-05
-0.00020375
1.92978e-05
-0.000205718
2.11609e-05
-0.000207949
2.2992e-05
-0.000210455
2.47768e-05
-0.000213253
2.64958e-05
-0.000216366
2.81223e-05
-0.000219825
2.9623e-05
-0.000223666
3.09593e-05
-0.000227929
3.20892e-05
-0.000232653
3.29626e-05
-0.000237882
3.35164e-05
-0.000243686
3.36675e-05
-0.000250228
3.33154e-05
-0.000257774
-0.000266423
3.23907e-05
2.09118e-06
-0.000193181
3.72254e-06
-0.000199762
5.41649e-06
-0.000198715
7.12907e-06
-0.000199221
8.84163e-06
-0.000200016
1.05519e-05
-0.000201026
1.22536e-05
-0.000202258
1.39406e-05
-0.000203719
1.56055e-05
-0.000205415
1.72392e-05
-0.000207352
1.88311e-05
-0.000209541
2.03673e-05
-0.000211991
2.18299e-05
-0.000214715
2.31953e-05
-0.000217732
2.44325e-05
-0.000221063
2.55018e-05
-0.000224735
2.63553e-05
-0.000228782
2.69384e-05
-0.000233236
2.719e-05
-0.000238133
2.70347e-05
-0.000243531
2.63736e-05
-0.000249567
2.50988e-05
-0.000256499
-0.000264422
2.30978e-05
1.95409e-06
-0.000195135
3.38369e-06
-0.000201191
4.87864e-06
-0.00020021
6.39376e-06
-0.000200736
7.90928e-06
-0.000201531
9.42103e-06
-0.000202538
1.09213e-05
-0.000203758
1.24014e-05
-0.000205199
1.38512e-05
-0.000206864
1.52587e-05
-0.000208759
1.66093e-05
-0.000210891
1.78853e-05
-0.000213267
1.90651e-05
-0.000215895
2.01208e-05
-0.000218787
2.10169e-05
-0.000221959
2.17085e-05
-0.000225427
2.21399e-05
-0.000229213
2.22453e-05
-0.000233341
2.19501e-05
-0.000237838
2.11658e-05
-0.000242746
1.97775e-05
-0.000248179
1.76449e-05
-0.000254367
-0.000261403
1.46258e-05
1.81322e-06
-0.000196949
3.02639e-06
-0.000202405
4.32453e-06
-0.000201508
5.64515e-06
-0.000202057
6.96773e-06
-0.000202854
8.2873e-06
-0.000203857
9.59566e-06
-0.000205067
1.0883e-05
-0.000206486
1.21377e-05
-0.000208119
1.33458e-05
-0.000209968
1.449e-05
-0.000212036
1.55496e-05
-0.000214327
1.64991e-05
-0.000216845
1.73066e-05
-0.000219595
1.79324e-05
-0.000222584
1.83265e-05
-0.000225821
1.84272e-05
-0.000229314
1.81591e-05
-0.000233073
1.74336e-05
-0.000237112
1.61461e-05
-0.000241459
1.41645e-05
-0.000246197
1.13084e-05
-0.000251511
-0.000257482
7.38719e-06
1.66671e-06
-0.000198615
2.64464e-06
-0.000203383
3.74583e-06
-0.000202609
4.87271e-06
-0.000203184
6.00338e-06
-0.000203984
7.13284e-06
-0.000204987
8.25359e-06
-0.000206187
9.3562e-06
-0.000207589
1.04293e-05
-0.000209192
1.14589e-05
-0.000210997
1.24271e-05
-0.000213004
1.33121e-05
-0.000215212
1.40867e-05
-0.000217619
1.47165e-05
-0.000220225
1.51593e-05
-0.000223027
1.5362e-05
-0.000226024
1.52575e-05
-0.00022921
1.47639e-05
-0.00023258
1.37807e-05
-0.000236129
1.21883e-05
-0.000239867
9.82937e-06
-0.000243838
6.48281e-06
-0.000248164
-0.000252899
1.89904e-06
1.51184e-06
-0.000200127