/*--------------------------------*- C++ -*----------------------------------*\
| =========                 |                                                 |
| \\      /  F ield         | OpenFOAM: The Open Source CFD Toolbox           |
|  \\    /   O peration     | Version:  2206                                  |
|   \\  /    A nd           | Website:  www.openfoam.com                      |
|    \\/     M anipulation  |                                                 |
\*---------------------------------------------------------------------------*/
FoamFile
{
    version     2.0;
    format      ascii;
    arch        "LSB;label=32;scalar=64";
    class       volVectorField;
    location    "0.325";
    object      U;
}
// * * * * * * * * * * * * * * * * * * * * * * * * * * * * * * * * * * * * * //

dimensions      [0 1 -1 0 0 0 0];

internalField   nonuniform List<vector> 
2268
(
(-0.024187 0.00434695 0)
(-0.0100989 -0.00815671 0)
(0.0476615 -0.0157829 0)
(0.120692 -0.0178826 0)
(0.194384 -0.0164399 0)
(0.259696 -0.0137764 0)
(0.313276 -0.0112462 0)
(0.356752 -0.00932205 0)
(0.393315 -0.00799541 0)
(0.425386 -0.00705441 0)
(0.454037 -0.00623415 0)
(0.479185 -0.00530051 0)
(0.49992 -0.00401686 0)
(0.514026 -0.00227225 0)
(0.520116 0.00165176 0)
(0.507009 0.0088182 0)
(0.465486 0.0200887 0)
(0.382643 0.0355658 0)
(0.244192 0.0492071 0)
(0.0598166 0.0455085 0)
(-0.129112 0.00545691 0)
(-0.221217 -0.0131793 0)
(-0.0822586 -0.065222 0)
(-0.0246225 0.0127257 0)
(-0.00843656 -0.0250189 0)
(0.0499909 -0.0476855 0)
(0.123279 -0.0538383 0)
(0.196629 -0.0495121 0)
(0.261331 -0.041586 0)
(0.314512 -0.0340761 0)
(0.357994 -0.0283866 0)
(0.394928 -0.0244768 0)
(0.427622 -0.0217012 0)
(0.457048 -0.0192694 0)
(0.483078 -0.0164811 0)
(0.504724 -0.0127353 0)
(0.520912 -0.00750367 0)
(0.528573 0.000813603 0)
(0.533009 0.014043 0)
(0.533668 0.0345066 0)
(0.523225 0.0653629 0)
(0.476445 0.104367 0)
(0.342198 0.133551 0)
(0.128111 0.110394 0)
(-0.134382 0.0252643 0)
(0.0234823 -0.128488 0)
(-0.0234056 0.0205043 0)
(-0.00548163 -0.0422423 0)
(0.0536167 -0.0796063 0)
(0.126605 -0.0893578 0)
(0.198647 -0.0819512 0)
(0.261637 -0.0687898 0)
(0.313518 -0.0564715 0)
(0.356466 -0.0472513 0)
(0.393577 -0.0409738 0)
(0.42695 -0.0365119 0)
(0.457344 -0.0325506 0)
(0.484486 -0.0279492 0)
(0.507396 -0.0218255 0)
(0.524627 -0.0133542 0)
(0.534445 -0.00219132 0)
(0.534975 0.013141 0)
(0.526178 0.0356459 0)
(0.512896 0.0711456 0)
(0.506186 0.125809 0)
(0.478128 0.187929 0)
(0.374372 0.206046 0)
(0.148524 0.0923519 0)
(0.114562 -0.105763 0)
(-0.0220512 0.0271052 0)
(-0.00103973 -0.060162 0)
(0.0587385 -0.11167 0)
(0.131007 -0.124308 0)
(0.201079 -0.11352 0)
(0.261747 -0.0952328 0)
(0.312 -0.0784479 0)
(0.354426 -0.0660957 0)
(0.391996 -0.0577839 0)
(0.426484 -0.0518545 0)
(0.458345 -0.0464808 0)
(0.487107 -0.0401362 0)
(0.511718 -0.031676 0)
(0.530777 -0.0201982 0)
(0.542733 -0.00483596 0)
(0.545972 0.0155595 0)
(0.539157 0.0426684 0)
(0.521904 0.0792026 0)
(0.503969 0.131124 0)
(0.501911 0.202491 0)
(0.487944 0.254995 0)
(0.33953 0.17966 0)
(0.199154 -0.00969241 0)
(-0.020153 0.0320693 0)
(0.00467902 -0.0789589 0)
(0.0649925 -0.143652 0)
(0.136 -0.158285 0)
(0.203445 -0.143804 0)
(0.261322 -0.120644 0)
(0.309797 -0.0999271 0)
(0.35184 -0.0849911 0)
(0.390187 -0.0750599 0)
(0.426177 -0.06791 0)
(0.45989 -0.0612384 0)
(0.490628 -0.0531957 0)
(0.517273 -0.0424433 0)
(0.538491 -0.0279691 0)
(0.552909 -0.00885383 0)
(0.559199 0.0159428 0)
(0.556441 0.0478251 0)
(0.54395 0.0882352 0)
(0.522363 0.137826 0)
(0.502797 0.202176 0)
(0.509076 0.271929 0)
(0.42074 0.256534 0)
(0.251029 0.124773 0)
(-0.0175686 0.0349195 0)
(0.0114405 -0.0986805 0)
(0.0721417 -0.175396 0)
(0.141323 -0.191039 0)
(0.205553 -0.17257 0)
(0.26035 -0.144903 0)
(0.307101 -0.120946 0)
(0.349038 -0.104101 0)
(0.388516 -0.093031 0)
(0.426342 -0.0849251 0)
(0.462185 -0.0770671 0)
(0.495125 -0.0673693 0)
(0.524001 -0.0543709 0)
(0.547569 -0.0370089 0)
(0.564615 -0.0143765 0)
(0.574016 0.0144794 0)
(0.575054 0.0506083 0)
(0.567207 0.0952442 0)
(0.550905 0.147959 0)
(0.520627 0.208058 0)
(0.507256 0.283191 0)
(0.444632 0.324499 0)
(0.277665 0.282064 0)
(-0.014345 0.0351745 0)
(0.0189841 -0.119349 0)
(0.0799899 -0.206872 0)
(0.146847 -0.222553 0)
(0.207442 -0.199864 0)
(0.259091 -0.168094 0)
(0.304366 -0.141583 0)
(0.346589 -0.123472 0)
(0.387581 -0.111696 0)
(0.427545 -0.102846 0)
(0.465737 -0.0938631 0)
(0.501052 -0.0825155 0)
(0.532326 -0.067301 0)
(0.558404 -0.047161 0)
(0.578186 -0.0212238 0)
(0.590664 0.0112436 0)
(0.595298 0.0512184 0)
(0.591374 0.0995964 0)
(0.580385 0.157296 0)
(0.553625 0.221152 0)
(0.521614 0.301406 0)
(0.461873 0.384696 0)
(0.312599 0.442948 0)
(-0.0106095 0.0333419 0)
(0.0269483 -0.141119 0)
(0.0882268 -0.23797 0)
(0.15243 -0.252689 0)
(0.209289 -0.225688 0)
(0.258055 -0.190347 0)
(0.302318 -0.161979 0)
(0.345298 -0.143161 0)
(0.388169 -0.131006 0)
(0.430508 -0.121542 0)
(0.471202 -0.111454 0)
(0.50904 -0.0984448 0)
(0.5429 -0.0810242 0)
(0.571716 -0.058144 0)
(0.594386 -0.028922 0)
(0.609909 0.00726377 0)
(0.617902 0.0509823 0)
(0.617847 0.102668 0)
(0.610641 0.164222 0)
(0.592759 0.234329 0)
(0.557305 0.323502 0)
(0.501768 0.443091 0)
(0.313037 0.638684 0)
(0.0091687 -0.00797982 0)
(0.0422084 -0.0115435 0)
(0.0793339 -0.00814088 0)
(0.108222 -0.00562247 0)
(0.132871 -0.00483857 0)
(0.156991 -0.00502048 0)
(0.181223 -0.00533065 0)
(0.204382 -0.00511976 0)
(0.224594 -0.00411333 0)
(0.239248 -0.00214081 0)
(0.245671 0.000531251 0)
(0.242349 0.00266761 0)
(0.230227 0.00456278 0)
(0.210035 0.00632266 0)
(0.182499 0.00787823 0)
(0.148637 0.00913176 0)
(0.109693 0.0100751 0)
(0.0672263 0.0106737 0)
(0.0225695 0.0111747 0)
(0.00104839 -0.0161608 0)
(0.0321757 -0.0301049 0)
(0.070787 -0.0250672 0)
(0.103181 -0.0213543 0)
(0.133224 -0.0202294 0)
(0.162654 -0.0200345 0)
(0.190992 -0.0195598 0)
(0.217303 -0.0178535 0)
(0.24012 -0.0144353 0)
(0.257835 -0.00919623 0)
(0.26959 -0.00256666 0)
(0.274047 0.00442086 0)
(0.268622 0.0114914 0)
(0.252145 0.0183307 0)
(0.22455 0.0245899 0)
(0.186677 0.0299367 0)
(0.140012 0.0341433 0)
(0.0867126 0.0369765 0)
(0.0291583 0.0382657 0)
(-7.38008e-05 -0.0229762 0)
(0.0327754 -0.0513515 0)
(0.0746645 -0.0438013 0)
(0.106882 -0.0377338 0)
(0.135579 -0.0356951 0)
(0.163808 -0.0351178 0)
(0.191829 -0.0340397 0)
(0.21868 -0.0309765 0)
(0.242466 -0.0252708 0)
(0.260805 -0.0171286 0)
(0.271887 -0.00709206 0)
(0.274461 0.00463335 0)
(0.267539 0.0172183 0)
(0.250445 0.02979 0)
(0.222943 0.0415711 0)
(0.185514 0.0519133 0)
(0.139335 0.0602461 0)
(0.0863915 0.0659866 0)
(0.0290244 0.0686084 0)
(-0.00412913 -0.0300051 0)
(0.0276886 -0.073681 0)
(0.0748953 -0.0623305 0)
(0.107261 -0.0527623 0)
(0.135413 -0.0496892 0)
(0.16361 -0.0494676 0)
(0.192454 -0.0485636 0)
(0.220789 -0.0445974 0)
(0.246232 -0.0366703 0)
(0.26605 -0.0250318 0)
(0.2781 -0.0104429 0)
(0.280747 0.0060936 0)
(0.273111 0.0238317 0)
(0.254867 0.0417935 0)
(0.226117 0.058856 0)
(0.187582 0.0740178 0)
(0.140537 0.0863894 0)
(0.0869874 0.095019 0)
(0.0291938 0.0990101 0)
(-0.0149576 -0.0295625 0)
(0.0169188 -0.0945497 0)
(0.0741916 -0.0819294 0)
(0.106562 -0.0682228 0)
(0.133461 -0.0639014 0)
(0.162049 -0.0646007 0)
(0.192761 -0.0641865 0)
(0.223531 -0.059326 0)
(0.251376 -0.0490695 0)
(0.273298 -0.0338283 0)
(0.286989 -0.0146316 0)
(0.290661 0.00723223 0)
(0.283342 0.0306377 0)
(0.264667 0.0542912 0)
(0.234821 0.0767633 0)
(0.194703 0.0967503 0)
(0.145759 0.113093 0)
(0.0901545 0.124541 0)
(0.0302536 0.129824 0)
(-0.029204 -0.0281006 0)
(0.00940282 -0.125541 0)
(0.0770219 -0.105773 0)
(0.107497 -0.083812 0)
(0.130075 -0.0779811 0)
(0.158405 -0.0808711 0)
(0.192134 -0.0813979 0)
(0.2266 -0.0756073 0)
(0.257769 -0.0629092 0)
(0.282494 -0.0437873 0)
(0.298387 -0.0195925 0)
(0.303488 0.00795874 0)
(0.296762 0.037404 0)
(0.277844 0.0671422 0)
(0.246921 0.0953866 0)
(0.20497 0.120489 0)
(0.153552 0.140995 0)
(0.0950082 0.155379 0)
(0.0318954 0.161984 0)
(-0.0249572 -0.0292442 0)
(0.013165 -0.165531 0)
(0.0850178 -0.134599 0)
(0.110446 -0.0966454 0)
(0.127409 -0.0905939 0)
(0.155276 -0.0989217 0)
(0.192227 -0.101132 0)
(0.230648 -0.0939476 0)
(0.265661 -0.0784968 0)
(0.293821 -0.0553315 0)
(0.312428 -0.0257307 0)
(0.319296 0.00803551 0)
(0.313305 0.0440547 0)
(0.294116 0.0804037 0)
(0.261928 0.114913 0)
(0.217782 0.145581 0)
(0.16335 0.170606 0)
(0.101153 0.188199 0)
(0.033977 0.196236 0)
(0.0312451 -0.0248596 0)
(0.00133714 -0.174329 0)
(0.0825706 -0.15885 0)
(0.103292 -0.100034 0)
(0.118719 -0.0957808 0)
(0.15269 -0.113736 0)
(0.195651 -0.120434 0)
(0.237543 -0.113792 0)
(0.27581 -0.0958401 0)
(0.307746 -0.0683428 0)
(0.329659 -0.032989 0)
(0.338575 0.00746001 0)
(0.333296 0.0504829 0)
(0.313674 0.0938862 0)
(0.279916 0.135099 0)
(0.233111 0.171733 0)
(0.175068 0.201612 0)
(0.108493 0.222685 0)
(0.0364378 0.232225 0)
(-0.00448045 0.0246578 0)
(0.0397769 -0.177995 0)
(0.101102 -0.285292 0)
(0.160552 -0.296193 0)
(0.211859 -0.262711 0)
(0.257173 -0.223701 0)
(0.300981 -0.194496 0)
(0.345834 -0.175997 0)
(0.39176 -0.163985 0)
(0.437501 -0.153873 0)
(0.481616 -0.142231 0)
(0.522944 -0.12685 0)
(0.560588 -0.106303 0)
(0.593734 -0.0795483 0)
(0.621438 -0.0456947 0)
(0.642717 -0.00373913 0)
(0.65666 0.0473369 0)
(0.663637 0.106509 0)
(0.663106 0.175428 0)
(0.660217 0.254649 0)
(0.642215 0.356284 0)
(0.669093 0.478288 0)
(0.621644 0.794334 0)
(0.0043735 0.00188475 0)
(0.05889 -0.232522 0)
(0.119017 -0.347276 0)
(0.170261 -0.350066 0)
(0.213936 -0.308692 0)
(0.255687 -0.267615 0)
(0.299958 -0.240045 0)
(0.347532 -0.223596 0)
(0.396782 -0.212318 0)
(0.445689 -0.20128 0)
(0.492812 -0.187339 0)
(0.537348 -0.168625 0)
(0.578838 -0.143858 0)
(0.61695 -0.112059 0)
(0.651534 -0.0729076 0)
(0.682577 -0.0269987 0)
(0.708636 0.0242634 0)
(0.728258 0.0847812 0)
(0.741484 0.154975 0)
(0.756551 0.233565 0)
(0.766421 0.331109 0)
(0.821285 0.423943 0)
(0.88377 0.652955 0)
(0.0159641 -0.0381872 0)
(0.0857488 -0.293632 0)
(0.14091 -0.400846 0)
(0.177343 -0.392213 0)
(0.211905 -0.346984 0)
(0.251528 -0.308923 0)
(0.297349 -0.28593 0)
(0.347316 -0.27213 0)
(0.398544 -0.260811 0)
(0.449115 -0.247884 0)
(0.498198 -0.231174 0)
(0.545609 -0.209454 0)
(0.591262 -0.18159 0)
(0.634559 -0.146141 0)
(0.674744 -0.101556 0)
(0.711254 -0.0459572 0)
(0.745981 0.0221256 0)
(0.779142 0.0988767 0)
(0.805461 0.180754 0)
(0.829957 0.259016 0)
(0.85817 0.33449 0)
(0.903999 0.391242 0)
(0.98062 0.480502 0)
(0.0308349 -0.10354 0)
(0.133078 -0.357067 0)
(0.178002 -0.436466 0)
(0.186461 -0.419566 0)
(0.209225 -0.381246 0)
(0.249926 -0.353204 0)
(0.300594 -0.337133 0)
(0.355925 -0.326812 0)
(0.41282 -0.316998 0)
(0.469982 -0.305333 0)
(0.527752 -0.290651 0)
(0.587157 -0.272377 0)
(0.648677 -0.249473 0)
(0.711838 -0.220551 0)
(0.775297 -0.184091 0)
(0.835181 -0.13726 0)
(0.882125 -0.0793553 0)
(0.91134 -0.0156735 0)
(0.92391 0.0590885 0)
(0.927798 0.141226 0)
(0.936581 0.227227 0)
(0.959719 0.300687 0)
(1.00994 0.36007 0)
(0.0597892 -0.208429 0)
(0.20459 -0.432724 0)
(0.234852 -0.456061 0)
(0.204146 -0.435166 0)
(0.215601 -0.421045 0)
(0.262966 -0.412341 0)
(0.323633 -0.405952 0)
(0.388776 -0.40101 0)
(0.45565 -0.395055 0)
(0.526811 -0.387386 0)
(0.606694 -0.376754 0)
(0.697244 -0.360639 0)
(0.798987 -0.335849 0)
(0.910708 -0.298742 0)
(1.02678 -0.245205 0)
(1.13283 -0.168342 0)
(1.19756 -0.0657166 0)
(1.19707 0.0568531 0)
(1.13575 0.152556 0)
(1.06989 0.216226 0)
(1.02564 0.261263 0)
(1.00795 0.293728 0)
(1.01947 0.316664 0)
(0.0882194 -0.349832 0)
(0.251819 -0.560445 0)
(0.292615 -0.451041 0)
(0.233927 -0.415131 0)
(0.239051 -0.447312 0)
(0.289534 -0.470788 0)
(0.35169 -0.475839 0)
(0.403625 -0.47278 0)
(0.459349 -0.45753 0)
(0.539097 -0.448639 0)
(0.631763 -0.440035 0)
(0.741713 -0.426552 0)
(0.863954 -0.405807 0)
(0.995191 -0.373495 0)
(1.12759 -0.316688 0)
(1.24358 -0.220387 0)
(1.32727 -0.0629326 0)
(1.3729 0.108033 0)
(1.34345 0.246203 0)
(1.28529 0.313393 0)
(1.21855 0.34339 0)
(1.09258 0.338344 0)
(1.01851 0.310834 0)
(0.00274342 -0.624769 0)
(0.131402 -0.69487 0)
(0.22381 -0.419488 0)
(0.208965 -0.370162 0)
(0.214234 -0.442266 0)
(0.233632 -0.484751 0)
(0.259132 -0.485501 0)
(0.29695 -0.464936 0)
(0.356609 -0.467248 0)
(0.441301 -0.498705 0)
(0.550074 -0.538362 0)
(0.674604 -0.563207 0)
(0.806399 -0.57308 0)
(0.950868 -0.561942 0)
(1.10701 -0.501728 0)
(1.25499 -0.374073 0)
(1.37842 -0.189185 0)
(1.46491 0.0261755 0)
(1.49322 0.241938 0)
(1.45271 0.375169 0)
(1.38213 0.440144 0)
(1.29978 0.483112 0)
(1.19716 0.40269 0)
(-0.0423203 -0.542455 0)
(-0.0753803 -0.440794 0)
(-0.0167884 -0.45781 0)
(0.0796308 -0.46133 0)
(0.148529 -0.492563 0)
(0.187617 -0.516487 0)
(0.217306 -0.531191 0)
(0.256757 -0.547894 0)
(0.313941 -0.585608 0)
(0.394465 -0.645967 0)
(0.490384 -0.700237 0)
(0.59918 -0.719898 0)
(0.71095 -0.726355 0)
(0.836811 -0.728595 0)
(0.986869 -0.67547 0)
(1.13854 -0.538074 0)
(1.27628 -0.326112 0)
(1.38548 -0.0443153 0)
(1.4365 0.239253 0)
(1.39445 0.434978 0)
(1.28649 0.524552 0)
(1.18743 0.558617 0)
(1.12641 0.474951 0)
(-0.0499367 -0.481762 0)
(-0.0273375 -0.648369 0)
(0.0259596 -0.60216 0)
(0.0798838 -0.55344 0)
(0.129573 -0.546714 0)
(0.168665 -0.558323 0)
(0.200373 -0.573711 0)
(0.235613 -0.599692 0)
(0.278696 -0.649444 0)
(0.334855 -0.718346 0)
(0.389422 -0.779288 0)
(0.461755 -0.793812 0)
(0.531486 -0.812748 0)
(0.597246 -0.868557 0)
(0.706692 -0.834364 0)
(0.827845 -0.693558 0)
(0.943748 -0.469889 0)
(1.06254 -0.167944 0)
(1.14189 0.177121 0)
(1.14698 0.466853 0)
(1.10394 0.601599 0)
(1.09684 0.592092 0)
(1.20864 0.401026 0)
(-0.00281837 -0.482396 0)
(0.0265274 -0.672489 0)
(0.0507318 -0.625154 0)
(0.0831337 -0.588967 0)
(0.11938 -0.584129 0)
(0.153689 -0.590719 0)
(0.182654 -0.602177 0)
(0.210033 -0.629132 0)
(0.235193 -0.683674 0)
(0.261028 -0.756628 0)
(0.273648 -0.822635 0)
(0.306678 -0.833638 0)
(0.333276 -0.858794 0)
(0.322232 -0.928483 0)
(0.337272 -0.879976 0)
(0.385577 -0.743703 0)
(0.452695 -0.509134 0)
(0.539007 -0.205265 0)
(0.658685 0.172137 0)
(0.751483 0.482616 0)
(0.867207 0.587438 0)
(1.05964 0.479695 0)
(1.30321 0.200964 0)
(0.0233848 -0.502566 0)
(0.0422054 -0.687073 0)
(0.0545275 -0.645019 0)
(0.0830944 -0.619227 0)
(0.114678 -0.616571 0)
(0.144651 -0.619845 0)
(0.171204 -0.626905 0)
(0.192881 -0.649113 0)
(0.205406 -0.697503 0)
(0.207782 -0.762995 0)
(0.193504 -0.822701 0)
(0.189931 -0.832366 0)
(0.188908 -0.838116 0)
(0.11959 -0.885857 0)
(0.080329 -0.84606 0)
(0.0587878 -0.7384 0)
(0.0808232 -0.525784 0)
(0.124471 -0.247792 0)
(0.235364 0.0649535 0)
(0.442407 0.270249 0)
(0.745245 0.2645 0)
(1.01242 0.152625 0)
(1.20258 0.0218546 0)
(0.0275834 -0.539244 0)
(0.0469161 -0.706784 0)
(0.0588087 -0.665346 0)
(0.0855088 -0.647622 0)
(0.113998 -0.646077 0)
(0.141432 -0.646645 0)
(0.167452 -0.648752 0)
(0.188389 -0.66216 0)
(0.198375 -0.697602 0)
(0.19315 -0.749677 0)
(0.172479 -0.798579 0)
(0.150759 -0.814048 0)
(0.143073 -0.803813 0)
(0.102315 -0.826144 0)
(0.0505591 -0.820238 0)
(0.0222375 -0.744579 0)
(0.0525778 -0.573856 0)
(0.144942 -0.376121 0)
(0.288981 -0.199777 0)
(0.480569 -0.0814447 0)
(0.68908 -0.0235962 0)
(0.866163 -0.00450559 0)
(1.00168 -0.0548237 0)
(0.0258475 -0.577422 0)
(0.0474371 -0.722095 0)
(0.0611752 -0.6857 0)
(0.0869604 -0.673771 0)
(0.113633 -0.673121 0)
(0.140155 -0.672871 0)
(0.167094 -0.672274 0)
(0.191688 -0.678313 0)
(0.207788 -0.700771 0)
(0.209584 -0.738319 0)
(0.197963 -0.776681 0)
(0.180231 -0.798547 0)
(0.174579 -0.799134 0)
(0.163281 -0.80155 0)
(0.139048 -0.792699 0)
(0.103714 -0.764731 0)
(0.0905393 -0.657583 0)
(0.139563 -0.486501 0)
(0.243202 -0.305077 0)
(0.391315 -0.175593 0)
(0.560562 -0.133997 0)
(0.730213 -0.155456 0)
(0.893975 -0.213158 0)
(0.0228266 -0.614335 0)
(0.0458231 -0.738751 0)
(0.0620598 -0.70723 0)
(0.0870874 -0.699114 0)
(0.112901 -0.699435 0)
(0.139059 -0.699807 0)
(0.166646 -0.69935 0)
(0.19482 -0.701913 0)
(0.21852 -0.714887 0)
(0.231999 -0.739948 0)
(0.234319 -0.768828 0)
(0.229553 -0.790085 0)
(0.224114 -0.796204 0)
(0.220093 -0.791874 0)
(0.210113 -0.769 0)
(0.192206 -0.728807 0)
(0.191103 -0.643907 0)
(0.231175 -0.546838 0)
(0.319473 -0.445381 0)
(0.449221 -0.373361 0)
(0.601011 -0.340502 0)
(0.751633 -0.33901 0)
(0.892112 -0.360931 0)
(0.0198121 -0.648664 0)
(0.0434859 -0.757016 0)
(0.0619726 -0.729668 0)
(0.0864562 -0.724042 0)
(0.11166 -0.725203 0)
(0.137207 -0.726666 0)
(0.164161 -0.727822 0)
(0.192836 -0.730182 0)
(0.220274 -0.738181 0)
(0.241753 -0.754361 0)
(0.25462 -0.774473 0)
(0.259996 -0.790152 0)
(0.260961 -0.795713 0)
(0.261275 -0.78952 0)
(0.26322 -0.767973 0)
(0.272252 -0.73282 0)
(0.292262 -0.679297 0)
(0.337798 -0.61367 0)
(0.412814 -0.546114 0)
(0.514205 -0.491594 0)
(0.632348 -0.461793 0)
(0.755024 -0.459672 0)
(0.874855 -0.479275 0)
(0.0174628 -0.680194 0)
(0.0412398 -0.776683 0)
(0.0612165 -0.75254 0)
(0.0852135 -0.748561 0)
(0.109782 -0.75026 0)
(0.134535 -0.75253 0)
(0.160095 -0.75515 0)
(0.186953 -0.758542 0)
(0.213936 -0.764629 0)
(0.237844 -0.775067 0)
(0.255729 -0.787911 0)
(0.267497 -0.797969 0)
(0.275583 -0.800691 0)
(0.28322 -0.794097 0)
(0.294098 -0.777541 0)
(0.311579 -0.749272 0)
(0.341415 -0.709401 0)
(0.388866 -0.66375 0)
(0.457166 -0.62106 0)
(0.544609 -0.58956 0)
(0.645236 -0.574458 0)
(0.752983 -0.576666 0)
(0.860849 -0.593868 0)
(0.015761 -0.70951 0)
(0.0392629 -0.79728 0)
(0.0600397 -0.775458 0)
(0.0835572 -0.772606 0)
(0.107492 -0.774609 0)
(0.131517 -0.777236 0)
(0.155815 -0.780521 0)
(0.180588 -0.78463 0)
(0.205492 -0.789993 0)
(0.228901 -0.797072 0)
(0.248824 -0.805045 0)
(0.26493 -0.811146 0)
(0.27911 -0.81231 0)
(0.294178 -0.806718 0)
(0.312815 -0.79407 0)
(0.338135 -0.774802 0)
(0.374061 -0.750061 0)
(0.423844 -0.722978 0)
(0.488353 -0.698117 0)
(0.566133 -0.679941 0)
(0.653961 -0.67259 0)
(0.748407 -0.678097 0)
(0.845952 -0.695454 0)
(0.0145281 -0.73703 0)
(0.0375466 -0.818317 0)
(0.0586265 -0.798192 0)
(0.0816635 -0.796142 0)
(0.104995 -0.798339 0)
(0.128412 -0.80109 0)
(0.151907 -0.804492 0)
(0.175419 -0.808703 0)
(0.198795 -0.813648 0)
(0.221492 -0.81916 0)
(0.242715 -0.824712 0)
(0.262314 -0.828957 0)
(0.281485 -0.83014 0)
(0.30239 -0.827048 0)
(0.327316 -0.819572 0)
(0.358382 -0.808166 0)
(0.397578 -0.793893 0)
(0.446649 -0.778608 0)
(0.50633 -0.76534 0)
(0.576076 -0.757548 0)
(0.654339 -0.758315 0)
(0.738917 -0.76956 0)
(0.828189 -0.789468 0)
(0.0136271 -0.763096 0)
(0.0360471 -0.839425 0)
(0.057073 -0.820593 0)
(0.0796069 -0.81915 0)
(0.102353 -0.821509 0)
(0.125217 -0.824366 0)
(0.148192 -0.827785 0)
(0.171155 -0.831887 0)
(0.193978 -0.836584 0)
(0.216564 -0.841588 0)
(0.238811 -0.846444 0)
(0.260853 -0.850403 0)
(0.283513 -0.852532 0)
(0.308217 -0.852201 0)
(0.336533 -0.849303 0)
(0.369961 -0.844193 0)
(0.409892 -0.837784 0)
(0.457468 -0.831633 0)
(0.513309 -0.827816 0)
(0.577257 -0.828652 0)
(0.648365 -0.836403 0)
(0.725483 -0.852923 0)
(0.807103 -0.876575 0)
(0.0129389 -0.787964 0)
(0.0346975 -0.860318 0)
(0.0554177 -0.842552 0)
(0.0774097 -0.841603 0)
(0.099565 -0.844119 0)
(0.12187 -0.847136 0)
(0.144361 -0.850682 0)
(0.166986 -0.854817 0)
(0.189671 -0.859491 0)
(0.212421 -0.864495 0)
(0.23536 -0.869486 0)
(0.258795 -0.874013 0)
(0.283377 -0.877589 0)
(0.310086 -0.87989 0)
(0.340043 -0.880929 0)
(0.374342 -0.88111 0)
(0.413992 -0.8812 0)
(0.459831 -0.882322 0)
(0.512295 -0.885926 0)
(0.571355 -0.89372 0)
(0.636498 -0.90761 0)
(0.707275 -0.929215 0)
(0.782258 -0.957485 0)
(0.0123718 -0.811805 0)
(0.033433 -0.88079 0)
(0.0536715 -0.863986 0)
(0.0750728 -0.863467 0)
(0.0966107 -0.866141 0)
(0.118325 -0.869358 0)
(0.140276 -0.87314 0)
(0.162485 -0.877508 0)
(0.184959 -0.882411 0)
(0.207752 -0.887725 0)
(0.231037 -0.89325 0)
(0.255156 -0.898735 0)
(0.280645 -0.903957 0)
(0.308228 -0.908807 0)
(0.338729 -0.913372 0)
(0.37297 -0.918014 0)
(0.411687 -0.923394 0)
(0.45546 -0.930399 0)
(0.50463 -0.94008 0)
(0.559274 -0.953749 0)
(0.619203 -0.973065 0)
(0.68426 -0.999503 0)
(0.753349 -1.03247 0)
(0.0118668 -0.83472 0)
(0.0322032 -0.900697 0)
(0.0518335 -0.884818 0)
(0.0725902 -0.884694 0)
(0.0934656 -0.887538 0)
(0.114547 -0.890982 0)
(0.135898 -0.89506 0)
(0.157576 -0.899786 0)
(0.17965 -0.905114 0)
(0.202223 -0.910974 0)
(0.225485 -0.917272 0)
(0.249744 -0.923903 0)
(0.275439 -0.930801 0)
(0.303118 -0.937988 0)
(0.333398 -0.945636 0)
(0.366891 -0.954095 0)
(0.404132 -0.963905 0)
(0.445542 -0.975752 0)
(0.491404 -0.990453 0)
(0.541863 -1.0091 0)
(0.596939 -1.03321 0)
(0.656593 -1.06418 0)
(0.720041 -1.10171 0)
(0.01139 -0.856756 0)
(0.0309725 -0.919935 0)
(0.0498982 -0.904979 0)
(0.0699531 -0.905233 0)
(0.0901093 -0.908257 0)
(0.110498 -0.911954 0)
(0.131182 -0.916365 0)
(0.152236 -0.921513 0)
(0.173749 -0.927376 0)
(0.195853 -0.93392 0)
(0.218741 -0.941116 0)
(0.242683 -0.948957 0)
(0.268032 -0.957483 0)
(0.295215 -0.966811 0)
(0.324689 -0.977149 0)
(0.356897 -0.988828 0)
(0.392228 -1.00231 0)
(0.431002 -1.01816 0)
(0.473466 -1.03705 0)
(0.5198 -1.05995 0)
(0.57015 -1.08828 0)
(0.624492 -1.12339 0)
(0.682325 -1.16522 0)
(0.0109217 -0.877924 0)
(0.0297143 -0.938421 0)
(0.0478587 -0.924403 0)
(0.0671523 -0.92502 0)
(0.0865274 -0.928234 0)
(0.10615 -0.9322 0)
(0.126083 -0.93697 0)
(0.146406 -0.942574 0)
(0.167215 -0.949012 0)
(0.188637 -0.956288 0)
(0.210858 -0.964417 0)
(0.23411 -0.973449 0)
(0.258682 -0.983491 0)
(0.284899 -0.994715 0)
(0.313096 -1.00736 0)
(0.343597 -1.02175 0)
(0.376684 -1.03828 0)
(0.412598 -1.05744 0)
(0.451544 -1.07982 0)
(0.493712 -1.1063 0)
(0.539319 -1.13826 0)
(0.588293 -1.17706 0)
(0.640348 -1.22278 0)
(0.0104486 -0.898215 0)
(0.0284078 -0.956088 0)
(0.0457096 -0.943032 0)
(0.0641822 -0.943996 0)
(0.0827148 -0.947399 0)
(0.101498 -0.951637 0)
(0.120589 -0.956772 0)
(0.140068 -0.962838 0)
(0.160027 -0.969854 0)
(0.180585 -0.977851 0)
(0.201899 -0.986878 0)
(0.224166 -0.997023 0)
(0.247617 -1.00843 0)
(0.272502 -1.0213 0)
(0.299068 -1.0359 0)
(0.327543 -1.05253 0)
(0.358129 -1.07156 0)
(0.390997 -1.09342 0)
(0.426297 -1.11865 0)
(0.464206 -1.14808 0)
(0.504979 -1.18308 0)
(0.548451 -1.22499 0)
(0.594471 -1.27406 0)
(0.00995905 -0.917595 0)
(0.0270371 -0.972876 0)
(0.0434494 -0.960809 0)
(0.0610432 -0.962099 0)
(0.0786757 -0.965686 0)
(0.0965491 -0.970187 0)
(0.114716 -0.975672 0)
(0.133247 -0.982181 0)
(0.152229 -0.989746 0)
(0.171762 -0.998416 0)
(0.191977 -1.00826 0)
(0.213029 -1.0194 0)
(0.235097 -1.03198 0)
(0.258374 -1.04625 0)
(0.283038 -1.06245 0)
(0.309243 -1.08091 0)
(0.337135 -1.10195 0)
(0.366804 -1.12596 0)
(0.398345 -1.15346 0)
(0.4319 -1.18522 0)
(0.46773 -1.22261 0)
(0.505551 -1.26701 0)
(0.545321 -1.3187 0)
(0.00944244 -0.936018 0)
(0.0255956 -0.988734 0)
(0.0410871 -0.977684 0)
(0.0577476 -0.979272 0)
(0.0744263 -0.983033 0)
(0.0913276 -0.987777 0)
(0.108496 -0.993583 0)
(0.125994 -1.00049 0)
(0.143891 -1.00855 0)
(0.162271 -1.01782 0)
(0.181234 -1.02838 0)
(0.200897 -1.04036 0)
(0.22139 -1.05393 0)
(0.242858 -1.06932 0)
(0.265418 -1.08681 0)
(0.289178 -1.10671 0)
(0.31423 -1.12929 0)
(0.340584 -1.15495 0)
(0.368293 -1.18415 0)
(0.397431 -1.21765 0)
(0.428236 -1.25677 0)
(0.460301 -1.30295 0)
(0.49371 -1.35647 0)
(0.00889616 -0.95343 0)
(0.0240934 -1.00364 0)
(0.0386478 -0.993614 0)
(0.0543256 -0.995465 0)
(0.0700008 -0.999383 0)
(0.0858754 -1.00434 0)
(0.101981 -1.01043 0)
(0.118371 -1.01769 0)
(0.1351 -1.02617 0)
(0.152228 -1.03594 0)
(0.169827 -1.04709 0)
(0.187975 -1.05975 0)
(0.20676 -1.07409 0)
(0.22628 -1.09035 0)
(0.2466 -1.10881 0)
(0.267798 -1.12976 0)
(0.289906 -1.15347 0)
(0.312885 -1.1803 0)
(0.33673 -1.21067 0)
(0.361438 -1.24533 0)
(0.387195 -1.28553 0)
(0.413484 -1.33277 0)
(0.440527 -1.38729 0)
(0.00833183 -0.969795 0)
(0.022563 -1.01758 0)
(0.0361741 -1.00857 0)
(0.0508283 -1.01064 0)
(0.0654552 -1.0147 0)
(0.0802575 -1.01983 0)
(0.0952452 -1.02616 0)
(0.110467 -1.0337 0)
(0.12596 -1.04253 0)
(0.141762 -1.0527 0)
(0.157917 -1.0643 0)
(0.17447 -1.07747 0)
(0.191463 -1.09237 0)
(0.208952 -1.10924 0)
(0.226959 -1.12835 0)
(0.245529 -1.14998 0)
(0.264645 -1.17441 0)
(0.284235 -1.20195 0)
(0.304221 -1.23299 0)
(0.324534 -1.26825 0)
(0.345287 -1.30892 0)
(0.365867 -1.35652 0)
(0.386623 -1.41129 0)
(0.00777863 -0.985106 0)
(0.0210556 -1.03061 0)
(0.0337166 -1.02254 0)
(0.0473196 -1.02478 0)
(0.0608607 -1.02894 0)
(0.0745566 -1.03422 0)
(0.0883828 -1.04073 0)
(0.10239 -1.04849 0)
(0.116594 -1.05757 0)
(0.131017 -1.06803 0)
(0.145676 -1.07996 0)
(0.160583 -1.09347 0)
(0.175742 -1.10874 0)
(0.191166 -1.12596 0)
(0.206844 -1.14542 0)
(0.222778 -1.16738 0)
(0.238911 -1.19213 0)
(0.255138 -1.21993 0)
(0.271313 -1.25116 0)
(0.28731 -1.28646 0)
(0.303155 -1.32699 0)
(0.318144 -1.37427 0)
(0.332744 -1.42858 0)
(0.00727592 -0.999364 0)
(0.0196243 -1.04271 0)
(0.0313137 -1.03545 0)
(0.0438543 -1.03783 0)
(0.0562836 -1.04206 0)
(0.0688534 -1.04745 0)
(0.0814918 -1.05408 0)
(0.0942535 -1.06199 0)
(0.107136 -1.07124 0)
(0.120146 -1.08189 0)
(0.133279 -1.09401 0)
(0.146517 -1.10771 0)
(0.159834 -1.12314 0)
(0.173201 -1.14049 0)
(0.186577 -1.16003 0)
(0.19992 -1.18199 0)
(0.213136 -1.20668 0)
(0.226075 -1.23431 0)
(0.238536 -1.26525 0)
(0.250347 -1.30006 0)
(0.26142 -1.33984 0)
(0.270973 -1.38615 0)
(0.279583 -1.43926 0)
(0.00685393 -1.0126 0)
(0.0182981 -1.05387 0)
(0.0289718 -1.04725 0)
(0.0404534 -1.04973 0)
(0.0517603 -1.054 0)
(0.0632014 -1.05945 0)
(0.0746487 -1.06615 0)
(0.0861596 -1.07414 0)
(0.0977135 -1.08347 0)
(0.109305 -1.09419 0)
(0.120909 -1.10637 0)
(0.132485 -1.12011 0)
(0.143979 -1.13553 0)
(0.155328 -1.15281 0)
(0.166463 -1.17216 0)
(0.177302 -1.19383 0)
(0.187712 -1.21809 0)
(0.197494 -1.24516 0)
(0.206391 -1.27535 0)
(0.214183 -1.30916 0)
(0.220674 -1.34761 0)
(0.225011 -1.39225 0)
(0.227796 -1.44344 0)
(0.00651444 -1.02499 0)
(0.0170632 -1.06413 0)
(0.0266621 -1.05797 0)
(0.0370973 -1.06055 0)
(0.0472873 -1.06483 0)
(0.0576129 -1.0703 0)
(0.0678916 -1.07701 0)
(0.0781774 -1.085 0)
(0.088434 -1.09431 0)
(0.0986402 -1.10499 0)
(0.108755 -1.11711 0)
(0.118717 -1.13075 0)
(0.128448 -1.14599 0)
(0.137856 -1.163 0)
(0.146845 -1.18194 0)
(0.155304 -1.20303 0)
(0.163057 -1.22653 0)
(0.169855 -1.25265 0)
(0.17539 -1.28164 0)
(0.179364 -1.31394 0)
(0.181523 -1.35048 0)
(0.180924 -1.39274 0)
(0.178053 -1.44123 0)
(0.00622869 -1.03674 0)
(0.0158682 -1.07356 0)
(0.0243368 -1.06775 0)
(0.0337414 -1.07042 0)
(0.0428335 -1.07471 0)
(0.0520687 -1.08016 0)
(0.0612219 -1.08684 0)
(0.0703375 -1.09477 0)
(0.0793659 -1.10399 0)
(0.0882693 -1.11454 0)
(0.0969893 -1.12649 0)
(0.105445 -1.13988 0)
(0.113534 -1.15479 0)
(0.121139 -1.17135 0)
(0.12814 -1.18968 0)
(0.134394 -1.20996 0)
(0.139695 -1.2324 0)
(0.143744 -1.2572 0)
(0.146167 -1.28456 0)
(0.146595 -1.31485 0)
(0.14472 -1.34888 0)
(0.1395 -1.38809 0)
(0.131253 -1.43301 0)
(0.00595612 -1.04782 0)
(0.01465 -1.082 0)
(0.0219497 -1.07652 0)
(0.0303404 -1.0793 0)
(0.0383604 -1.08358 0)
(0.0465344 -1.08902 0)
(0.0546138 -1.09564 0)
(0.0626289 -1.10347 0)
(0.0705222 -1.11255 0)
(0.078241 -1.12291 0)
(0.0857107 -1.13458 0)
(0.0928315 -1.14762 0)
(0.0994772 -1.16209 0)
(0.105505 -1.17805 0)
(0.110767 -1.1956 0)
(0.115091 -1.21488 0)
(0.118242 -1.23603 0)
(0.119881 -1.25921 0)
(0.119566 -1.28459 0)
(0.116858 -1.31243 0)
(0.11136 -1.34342 0)
(0.101953 -1.37889 0)
(0.0887675 -1.41936 0)
(0.00567299 -1.05786 0)
(0.013364 -1.08901 0)
(0.0194608 -1.08391 0)
(0.026856 -1.0868 0)
(0.0338269 -1.09109 0)
(0.0409636 -1.09652 0)
(0.0480123 -1.10307 0)
(0.0549893 -1.11079 0)
(0.0618371 -1.11969 0)
(0.0684938 -1.1298 0)
(0.0748753 -1.14114 0)
(0.0808677 -1.15374 0)
(0.0863256 -1.16764 0)
(0.0910828 -1.18288 0)
(0.0949636 -1.19951 0)
(0.0977628 -1.21761 0)
(0.0992214 -1.23727 0)
(0.0989655 -1.25858 0)
(0.0964951 -1.28165 0)
(0.0913012 -1.30668 0)
(0.0828751 -1.33419 0)
(0.0700012 -1.3653 0)
(0.0524976 -1.4005 0)
(0.00537863 -1.06672 0)
(0.0119901 -1.09442 0)
(0.0168275 -1.08985 0)
(0.0232376 -1.09287 0)
(0.0291693 -1.09716 0)
(0.0352728 -1.10256 0)
(0.041308 -1.10905 0)
(0.0472799 -1.11664 0)
(0.0531378 -1.12534 0)
(0.058821 -1.13518 0)
(0.0642468 -1.14614 0)
(0.0692982 -1.15825 0)
(0.0738239 -1.1715 0)
(0.0776455 -1.1859 0)
(0.0805678 -1.20147 0)
(0.0823627 -1.21823 0)
(0.0827484 -1.2362 0)
(0.0813213 -1.25538 0)
(0.077549 -1.27582 0)
(0.0708533 -1.29762 0)
(0.0606058 -1.32114 0)
(0.0454946 -1.34723 0)
(0.024951 -1.37625 0)
(0.00504915 -1.07512 0)
(0.0104986 -1.09885 0)
(0.0140064 -1.09507 0)
(0.0194067 -1.09823 0)
(0.0242858 -1.10254 0)
(0.0293275 -1.10793 0)
(0.0343262 -1.11436 0)
(0.0392798 -1.12185 0)
(0.0441492 -1.13039 0)
(0.048885 -1.13998 0)
(0.0534171 -1.1506 0)
(0.0576381 -1.16224 0)
(0.0614095 -1.17486 0)
(0.0645589 -1.18845 0)
(0.0668954 -1.20296 0)
(0.0681923 -1.21836 0)
(0.0681656 -1.23458 0)
(0.0664103 -1.25155 0)
(0.0623895 -1.26919 0)
(0.0554886 -1.28747 0)
(0.0449811 -1.30654 0)
(0.0294996 -1.32683 0)
(0.00806347 -1.34858 0)
(0.00457709 -1.08382 0)
(0.00880618 -1.103 0)
(0.0109896 -1.10037 0)
(0.0152939 -1.10369 0)
(0.0190831 -1.10804 0)
(0.0230034 -1.11345 0)
(0.0269069 -1.11989 0)
(0.0307874 -1.12735 0)
(0.0346194 -1.13582 0)
(0.0383692 -1.14528 0)
(0.041983 -1.1557 0)
(0.0453716 -1.16703 0)
(0.0484208 -1.17923 0)
(0.0509835 -1.19224 0)
(0.0529051 -1.20597 0)
(0.0539926 -1.22032 0)
(0.0539996 -1.23516 0)
(0.0525853 -1.25029 0)
(0.0492539 -1.2655 0)
(0.0434306 -1.28062 0)
(0.0343927 -1.29544 0)
(0.0208381 -1.3099 0)
(0.00143784 -1.32385 0)
(0.00379947 -1.09189 0)
(0.00680059 -1.10604 0)
(0.00783637 -1.10497 0)
(0.0109152 -1.10842 0)
(0.0135762 -1.11286 0)
(0.0163243 -1.11832 0)
(0.0190767 -1.1248 0)
(0.0218253 -1.13229 0)
(0.0245554 -1.14077 0)
(0.0272443 -1.15021 0)
(0.0298511 -1.16058 0)
(0.0323083 -1.17182 0)
(0.0345307 -1.18385 0)
(0.0364123 -1.19661 0)
(0.0378508 -1.20996 0)
(0.0387091 -1.22375 0)
(0.0388124 -1.23777 0)
(0.0379311 -1.25176 0)
(0.0356798 -1.26541 0)
(0.0316275 -1.27836 0)
(0.0252075 -1.29012 0)
(0.0153965 -1.30008 0)
(0.000848011 -1.3075 0)
(0.0026259 -1.09694 0)
(0.00441738 -1.10623 0)
(0.00464326 -1.10685 0)
(0.00642273 -1.1104 0)
(0.00796083 -1.11489 0)
(0.009547 -1.12039 0)
(0.0111445 -1.12689 0)
(0.0127448 -1.13439 0)
(0.0143382 -1.14287 0)
(0.0159079 -1.15229 0)
(0.0174251 -1.16261 0)
(0.0188485 -1.17375 0)
(0.0201276 -1.18563 0)
(0.0212055 -1.19816 0)
(0.0220263 -1.21118 0)