/*--------------------------------*- C++ -*----------------------------------*\
| =========                 |                                                 |
| \\      /  F ield         | OpenFOAM: The Open Source CFD Toolbox           |
|  \\    /   O peration     | Version:  2206                                  |
|   \\  /    A nd           | Website:  www.openfoam.com                      |
|    \\/     M anipulation  |                                                 |
\*---------------------------------------------------------------------------*/
FoamFile
{
    version     2.0;
    format      ascii;
    arch        "LSB;label=32;scalar=64";
    class       surfaceScalarField;
    location    "0.95";
    object      alphaPhi0.water;
}
// * * * * * * * * * * * * * * * * * * * * * * * * * * * * * * * * * * * * * //

dimensions      [0 3 -1 0 0 0 0];

oriented        oriented;

internalField   nonuniform List<scalar> 
4432
(
3.10311e-06
-3.10311e-06
2.8352e-06
2.6791e-07
-8.12873e-07
3.64808e-06
-4.86979e-06
4.05692e-06
-5.65868e-06
7.88892e-07
-3.72929e-06
-1.92939e-06
-2.33168e-06
-1.39761e-06
-2.69859e-06
3.66912e-07
-4.32899e-06
1.6304e-06
-6.79927e-06
2.47029e-06
-9.72393e-06
2.92466e-06
-1.23103e-05
2.5864e-06
-1.33899e-05
1.07962e-06
-1.27599e-05
-5.34428e-07
-1.33302e-05
8.75908e-07
-1.83658e-05
4.60172e-06
-2.39766e-05
5.63271e-06
-2.4519e-05
5.64178e-07
-1.98387e-05
-4.47566e-06
-1.4412e-05
-5.34061e-06
-9.95406e-06
-4.61344e-06
-4.70916e-06
-5.30009e-06
-4.71343e-06
-2.1547e-06
-9.48415e-07
-5.37899e-06
3.4922e-06
-8.53601e-06
6.80511e-06
-9.39444e-06
4.91534e-06
-7.41488e-06
-1.19067e-06
-4.46795e-06
-4.87632e-06
-2.73602e-06
-3.12955e-06
-2.91453e-06
5.45427e-07
-4.57903e-06
3.2949e-06
-7.03751e-06
4.92877e-06
-9.87754e-06
5.76468e-06
-1.27975e-05
5.50632e-06
-1.58449e-05
4.1274e-06
-1.84001e-05
2.90103e-06
-2.17545e-05
4.19578e-06
-2.33768e-05
6.19467e-06
-2.0989e-05
2.96642e-06
-1.54835e-05
-4.90183e-06
-1.02604e-05
-9.66624e-06
-6.85175e-06
-8.73011e-06
-4.83684e-06
-6.82492e-06
-2.46995e-06
-7.78341e-06
-7.18338e-06
-4.18857e-06
3.24016e-06
-8.1134e-06
7.41703e-06
-1.03101e-05
9.00182e-06
-1.03176e-05
4.9228e-06
-8.31557e-06
-3.19266e-06
-5.30746e-06
-7.88443e-06
-3.30673e-06
-5.13028e-06
-3.27563e-06
5.14326e-07
-4.62557e-06
4.64485e-06
-6.61518e-06
6.91837e-06
-8.75612e-06
7.90563e-06
-1.08844e-05
7.63463e-06
-1.32419e-05
6.48496e-06
-1.57595e-05
5.63293e-06
-1.65766e-05
5.88327e-06
-1.48183e-05
4.40673e-06
-1.00856e-05
-1.79562e-06
-5.79663e-06
-9.80717e-06
-3.30044e-06
-1.26855e-05
-1.68123e-06
-1.06514e-05
-1.1021e-06
-7.58951e-06
-6.26881e-07
-8.26204e-06
-7.81025e-06
-3.66914e-06
6.90929e-06
-7.03351e-06
1.07814e-05
-9.06625e-06
1.10346e-05
-9.55343e-06
5.40998e-06
-7.97349e-06
-4.7726e-06
-5.22924e-06
-1.06287e-05
-3.64857e-06
-6.71096e-06
-3.8591e-06
7.24858e-07
-5.29614e-06
6.08189e-06
-7.35412e-06
8.97636e-06
-9.48312e-06
1.00346e-05
-1.12145e-05
9.36604e-06
-1.22647e-05
7.53513e-06
-1.23133e-05
5.6816e-06
-1.04169e-05
4.10351e-06
-6.68143e-06
8.66253e-07
-3.15316e-06
-5.43386e-06
-1.55737e-06
-1.1403e-05
-1.26348e-06
-1.29794e-05
-7.17655e-07
-1.11973e-05
-7.20755e-07
-7.58641e-06
-5.80458e-07
-8.40234e-06
-8.3908e-06
-1.87708e-06
8.78638e-06
-4.2344e-06
1.31387e-05
-6.15605e-06
1.29562e-05
-6.91904e-06
6.17297e-06
-5.75992e-06
-5.93172e-06
-3.91276e-06
-1.24758e-05
-3.36539e-06
-7.25833e-06
-4.2687e-06
1.62817e-06
-6.04468e-06
7.85787e-06
-8.35118e-06
1.12829e-05
-1.07911e-05
1.24745e-05
-1.27011e-05
1.1276e-05
-1.3391e-05
8.22505e-06
-1.22671e-05
4.55768e-06
-9.19414e-06
1.0306e-06
-5.33042e-06
-2.99746e-06
-2.54043e-06
-8.22386e-06
-1.25363e-06
-1.26898e-05
-7.61322e-07
-1.34717e-05
-4.49421e-07
-1.15092e-05
-8.75035e-07
-7.16079e-06
-9.20283e-07
-8.35709e-06
-9.31109e-06
4.75482e-07
8.31089e-06
-4.95431e-07
1.41096e-05
-2.05548e-06
1.45163e-05
-2.75819e-06
6.87569e-06
-1.82137e-06
-6.86846e-06
-1.42167e-06
-1.28755e-05
-2.38252e-06
-6.29747e-06
-4.07872e-06
3.32437e-06
-6.17739e-06
9.95654e-06
-8.61491e-06
1.37204e-05
-1.13608e-05
1.52204e-05
-1.36989e-05
1.36141e-05
-1.46895e-05
9.21568e-06
-1.36617e-05
3.52984e-06
-1.05579e-05
-2.07321e-06
-6.50099e-06
-7.05437e-06
-2.88724e-06
-1.18376e-05
-4.07794e-07
-1.51692e-05
1.00823e-06
-1.48877e-05
1.21498e-06
-1.1716e-05
4.47667e-07
-6.39347e-06
-4.34544e-07
-7.47489e-06
-9.74567e-06
3.61262e-06
4.69828e-06
3.98767e-06
1.37346e-05
2.61186e-06
1.58921e-05
2.58022e-06
6.90733e-06
3.60423e-06
-7.89291e-06
2.04635e-06
-1.13128e-05
-3.68022e-07
-3.87727e-06
-2.00859e-06
4.96493e-06
-3.96786e-06
1.19158e-05
-6.48291e-06
1.62354e-05
-9.71472e-06
1.84523e-05
-1.27535e-05
1.66529e-05
-1.43674e-05
1.08296e-05
-1.35531e-05
2.71548e-06
-1.02365e-05
-5.38972e-06
-5.76405e-06
-1.15268e-05
-1.97803e-06
-1.56236e-05
8.61211e-07
-1.80076e-05
3.03227e-06
-1.70583e-05
3.50528e-06
-1.21898e-05
2.46713e-06
-5.35531e-06
5.61058e-07
-5.56876e-06
-9.18537e-06
6.86215e-06
-2.16386e-06
8.6033e-06
1.19934e-05
8.12308e-06
1.63723e-05
9.02536e-06
6.00505e-06
8.97192e-06
-7.83947e-06
5.40464e-06
-7.75705e-06
3.14262e-06
-1.61916e-06
1.50587e-06
6.60523e-06
-8.9367e-07
1.43154e-05
-4.23239e-06
1.95741e-05
-8.1837e-06
2.24036e-05
-1.1606e-05
2.00751e-05
-1.35549e-05
1.27785e-05
-1.2863e-05
2.02359e-06
-9.69854e-06
-8.55364e-06
-6.07969e-06
-1.51439e-05
-3.04543e-06
-1.8656e-05
1.44405e-08
-1.7956e-05
2.6529e-06
-1.40813e-05
3.60562e-06
-8.8347e-06
3.3051e-06
-3.52632e-06
1.59127e-06
-3.58556e-06
-7.59447e-06
-4.74292e-06
4.71398e-06
-2.00488e-05
1.52913e-05
-1.73323e-05
-2.71864e-06
3.38182e-06
-2.06437e-05
2.45743e-05
-2.11917e-05
2.391e-05
6.65622e-07
1.16797e-05
1.15985e-05
5.59983e-06
5.24279e-06
1.21434e-05
-6.50201e-06
2.2873e-05
-1.06889e-05
1.43248e-05
8.3466e-06
-3.22878e-06
1.63182e-05
-2.0614e-05
1.24946e-05
-3.1626e-05
1.10244e-05
-3.57112e-05
4.09594e-06
-2.79644e-05
-7.73431e-06
-1.28136e-05
-1.51012e-05
-8.06621e-07
-1.19508e-05
-7.79195e-07
-1.18256e-05
1.65102e-05
-1.77181e-05
2.13396e-05
-1.25773e-05
-6.45806e-06
3.99084e-07
-3.34888e-05
1.66079e-05
-3.73784e-05
1.74273e-05
-1.52873e-07
4.72345e-06
2.43037e-05
-4.81838e-06
1.29157e-05
-4.25939e-06
-9.41246e-06
3.26519e-06
-1.92616e-05
7.25421e-06
4.59159e-06
-8.07355e-06
3.04106e-05
-2.98078e-05
2.71084e-05
-3.66325e-05
1.78598e-05
-3.13088e-05
-1.21522e-06
-1.95282e-05
-1.39951e-05
-7.75453e-06
-2.45552e-05
3.43089e-06
-2.18578e-05
1.95565e-06
-1.18552e-05
2.83445e-05
-1.37944e-05
2.39388e-05
-9.94277e-06
-1.05025e-05
-1.59678e-06
-4.09512e-05
3.30696e-06
-4.2261e-05
-5.07785e-06
8.23326e-06
-2.58598e-05
4.61768e-05
-3.60739e-05
2.0295e-05
-3.33089e-05
-1.45885e-05
-1.95217e-05
-3.30562e-05
-8.54474e-06
-6.00582e-06
-1.08866e-05
3.65755e-05
-2.49257e-05
4.59779e-05
-2.60284e-05
1.86613e-05
-1.70031e-05
-2.42188e-06
-1.44845e-05
-1.92983e-05
-7.38907e-06
-3.46812e-05
7.55791e-07
-3.16834e-05
2.3433e-06
-8.94575e-06
3.73275e-05
-1.06833e-05
2.7098e-05
-7.55899e-06
-1.38219e-05
-3.10645e-06
-4.21413e-05
-1.06206e-05
-3.4628e-05
-3.71673e-05
3.47676e-05
-5.76232e-05
7.06514e-05
-5.37105e-05
2.21427e-05
-4.81255e-05
-2.32452e-05
-3.64174e-05
-4.47688e-05
-2.39089e-05
-1.85263e-05
-1.80667e-05
3.27026e-05
-2.0121e-05
4.51489e-05
-1.41663e-05
1.86246e-05
-1.64311e-05
-7.18574e-07
-1.82121e-05
-2.19297e-05
-1.17534e-05
-3.05692e-05
-2.55726e-06
-4.73761e-05
-4.41485e-07
-4.33545e-06
4.18805e-05
-5.60539e-06
2.92802e-05
-2.77653e-06
-1.68354e-05
-4.84692e-06
-4.02835e-05
-2.50211e-05
-1.44987e-05
-5.8835e-05
6.86501e-05
-5.77241e-05
7.38197e-05
-3.64426e-05
1.01287e-05
-4.30552e-05
-9.98028e-06
-4.32539e-05
-4.45917e-05
-3.51277e-05
-2.66724e-05
-2.44179e-05
2.19789e-05
-1.97325e-05
4.0476e-05
-2.34641e-05
2.3864e-05
-2.89983e-05
6.2156e-06
-2.80082e-05
-9.61622e-06
-1.91224e-05
-1.7885e-05
-3.42832e-06
-4.83757e-05
-6.45868e-06
9.58505e-07
4.10435e-05
2.61378e-06
2.75891e-05
4.21634e-06
-2.00416e-05
-2.62538e-06
-3.7692e-05
-3.29237e-05
1.36209e-05
-6.3819e-05
9.98059e-05
-1.56825e-05
3.13666e-05
-5.62114e-06
2.12407e-06
-1.18353e-05
-6.77105e-06
-4.14725e-05
-2.85791e-05
-4.25192e-05
-2.56395e-05
-3.45941e-05
1.40418e-05
-2.77976e-05
3.36757e-05
-3.21596e-05
2.82469e-05
-3.17074e-05
1.48861e-05
-7.70249e-06
1.28547e-06
-3.88436e-06
-5.52573e-06
-3.9281e-06
-1.30862e-05
-1.00064e-05
8.3731e-06
3.2722e-05
1.14015e-05
2.41106e-05
1.42084e-05
-2.18302e-05
4.77868e-06
-3.26781e-05
-2.51724e-05
4.07442e-05
-2.48487e-05
0.000103735
-4.79521e-06
1.37747e-05
-3.8869e-06
-3.38912e-07
-8.52515e-06
-3.68484e-06
-4.08556e-05
-2.1459e-05
-4.68567e-05
-1.96505e-05
-4.33061e-05
1.04874e-05
-3.71429e-05
2.75337e-05
-3.3478e-05
2.91529e-05
-4.31001e-06
4.59129e-06
-5.39963e-06
1.34448e-07
-1.5775e-06
-1.13312e-05
-2.18795e-07
-1.65911e-05
-7.61592e-06
1.30865e-05
1.91463e-05
1.97295e-05
1.87168e-05
2.28756e-05
-2.40027e-05
1.44235e-05
-2.35293e-05
-8.02183e-06
6.04448e-05
-6.23042e-06
9.58775e-05
-2.80111e-06
8.71027e-06
-2.90234e-06
-1.79186e-06
-7.61457e-06
-4.1577e-06
-4.01687e-05
-1.35163e-05
-5.07381e-05
-9.12772e-06
-5.13866e-05
1.1157e-05
-4.96657e-05
2.83341e-05
-9.1736e-06
4.06889e-06
-4.80699e-06
1.96861e-07
-4.7831e-06
-2.74229e-06
-7.42664e-07
-2.163e-05
-9.96606e-07
-1.8713e-05
-1.19265e-06
3.03024e-05
-3.07787e-05
3.84872e-05
3.98081e-06
3.63173e-05
1.85422e-05
3.17157e-05
1.06066e-05
2.02908e-05
3.58535e-06
1.00401e-05
2.49349e-06
6.46032e-06
1.96046e-06
-5.9948e-06
1.90603e-05
-2.35285e-05
3.18491e-05
-3.52951e-05
2.31735e-05
-4.28062e-05
2.0298e-05
-4.76049e-05
1.86679e-05
-4.95384e-05
1.26353e-05
-4.82853e-05
7.46294e-07
-4.13197e-05
-1.04344e-05
-3.11122e-05
-8.73569e-06
-2.06381e-05
-2.64666e-06
-1.27786e-05
-2.84331e-06
-9.96027e-06
-2.90525e-06
-7.49177e-06
-5.0414e-06
-5.8751e-06
-6.15548e-06
1.24712e-06
-1.0244e-05
-9.26017e-06
5.04857e-06
3.05965e-05
-5.57626e-05
5.06285e-05
-1.1693e-05
5.15439e-05
1.76298e-05
4.35597e-05
1.80647e-05
2.43004e-05
2.18619e-05
6.92234e-07
2.61018e-05
-1.73876e-05
1.95062e-05
-2.08643e-05
7.5702e-06
-2.31484e-05
6.72524e-06
-2.75973e-05
-1.69443e-06
-5.97288e-05
3.04599e-06
-0.000105852
8.15786e-06
-0.000119197
5.95007e-06
-8.58899e-05
-4.26375e-06
-2.89747e-05
-1.07965e-05
-1.22912e-05
-3.97472e-06
-1.42093e-05
-8.46229e-07
-1.71974e-05
7.61476e-09
-1.8184e-05
-2.12004e-06
-1.15323e-05
-1.25009e-05
-1.44349e-05
-3.73945e-05
-2.31208e-05
-5.31655e-05
-5.00451e-05
-1.62873e-06
1.59385e-05
-7.29464e-05
2.55002e-05
-2.08284e-05
2.47275e-05
1.80068e-05
9.87891e-06
3.23967e-05
-1.2044e-05
4.32838e-05
-1.7702e-05
2.54071e-05
-8.59276e-06
3.30873e-06
-8.73606e-06
5.83215e-06
-1.03893e-05
6.47511e-06
-2.12066e-05
5.25316e-06
-5.74971e-05
1.38797e-06
-5.71943e-05
-2.58142e-07
-4.44517e-05
-1.65316e-07
-3.86975e-05
-1.19127e-05
-2.57081e-05
-1.95853e-05
-2.33334e-05
-6.42601e-06
-2.40056e-05
-3.12883e-07
-2.43195e-05
1.2017e-07
-3.71448e-05
-1.60839e-05
-7.47012e-05
-4.16736e-05
-8.58005e-05
-7.65424e-05
-6.63115e-05
-9.2512e-05
-7.93525e-05
-3.68695e-05
-2.69952e-05
-4.79639e-05
-6.18331e-05
1.24934e-05
-7.51114e-05
3.08431e-05
-5.94566e-05
2.02748e-05
-2.57176e-05
9.82053e-07
-1.00854e-05
4.56244e-06
-7.60034e-06
-1.05767e-06
-8.08172e-06
4.43218e-06
-8.37198e-06
4.87349e-06
-8.64996e-06
6.03088e-06
-6.60364e-06
-5.03576e-08
-8.0108e-06
-2.54395e-07
-4.39645e-05
2.18532e-07
-4.08379e-05
-1.25442e-05
-4.38162e-05
-1.57747e-05
-1.5365e-05
-1.50275e-05
-1.16996e-05
-4.16515e-06
-5.99329e-05
-2.46776e-06
-8.11573e-05
-9.22748e-06
-7.75147e-05
-1.94387e-05
-9.09006e-05
-4.51538e-05
-9.7116e-05
-0.000110785
-8.70704e-05
-8.93059e-05
-6.2268e-05
2.07916e-05
-8.45667e-05
4.92035e-05
-4.15186e-05
1.17638e-05
-1.86371e-05
1.22694e-06
-1.71963e-05
-1.56297e-07
-1.38926e-05
7.61127e-07
-1.84999e-05
3.20655e-06
-1.7518e-05
3.9497e-06
-1.63173e-05
4.66843e-06
-9.66382e-06
5.98874e-06
-3.22663e-06
2.93434e-06
-5.78966e-07
1.53842e-06
-2.12141e-05
9.88652e-07
-3.77108e-05
-1.24063e-06
-4.46206e-05
-5.03403e-06
-4.93324e-05
-5.54184e-06
-3.16251e-05
-3.07499e-06
-6.5054e-06
-6.43775e-07
-5.82423e-06
-1.614e-06
-1.17682e-05
-9.24899e-06
-8.46835e-05
-5.63749e-05
-0.000137063
-0.000125449
-7.54504e-05
-0.000148505
-5.51896e-05
8.24686e-05
-1.61418e-05
2.56167e-05
-7.22005e-06
2.98503e-06
-6.80713e-06
2.63453e-07
-2.27714e-05
1.49872e-06
-2.45015e-05
3.09899e-06
-2.37463e-05
3.08064e-06
-2.14631e-05
2.27847e-06
-1.95266e-05
3.34391e-06
-1.67436e-05
3.96037e-06
-3.15337e-06
3.97599e-06
-1.10256e-06
2.84016e-07
-3.39858e-07
8.12754e-08
-1.62771e-06
-3.03507e-08
-5.03078e-06
-7.12208e-07
-6.19594e-06
-3.40285e-06
-5.12081e-06
-2.8303e-06
-3.98668e-06
-1.40665e-06
-3.3324e-06
-1.115e-06
-7.00269e-06
-5.41618e-06
-0.000116505
-5.96741e-05
-0.000157264
-0.000136785
-6.55656e-05
-0.000166059
-2.0815e-05
0.000104482
-3.93447e-06
9.66773e-06
-1.73243e-06
7.9968e-07
-1.70061e-06
1.41399e-07
-5.13524e-06
1.42942e-08
-5.70332e-06
3.58234e-08
-5.00121e-06
-2.4642e-08
-5.13164e-06
-6.81736e-08
-7.04237e-06
-1.7411e-07
-7.51324e-06
-5.51679e-08
-2.26402e-06
2.83495e-07
-1.825e-07
1.39068e-07
-1.08274e-07
8.46852e-09
-1.42586e-07
-3.71143e-09
-1.44574e-06
-1.20638e-07
-5.81698e-06
-1.9177e-06
-5.40256e-06
-1.38071e-06
-1.32341e-06
-1.32089e-06
-1.56811e-06
-6.39963e-07
-2.63173e-06
-3.96042e-06
-8.71485e-05
-2.49794e-05
-0.000159817
-8.41946e-05
-7.2155e-05
-0.000145391
-5.43086e-06
0.000105937
-7.66785e-07
5.02202e-06
-2.28276e-07
2.60063e-07
-1.4421e-07
3.99648e-08
-1.50538e-07
1.43268e-08
-1.2073e-07
5.39069e-09
-1.47394e-07
5.24347e-10
-2.17803e-07
-1.05497e-09
-3.91073e-07
-6.81014e-09
-4.4055e-07
-1.41981e-08
-1.83324e-07
1.72081e-08
-2.60855e-08
8.47062e-09
-1.64424e-08
1.24946e-09
-1.95499e-08
-8.431e-11
-1.4385e-07
-3.09661e-09
-2.69718e-06
-3.42979e-08
-3.49287e-06
-1.28221e-07
-1.32892e-06
-2.14833e-07
-1.89962e-06
-6.51614e-07
-5.58998e-07
-5.14969e-06
-3.2465e-06
-6.64017e-06
-7.72486e-05
-9.26763e-06
-3.02328e-05
-0.000128832
-3.2408e-06
0.00011808
-2.20396e-07
2.00162e-06
-4.57308e-08
8.29588e-08
-2.02364e-08
1.04149e-08
-9.45696e-09
2.49595e-09
-4.24562e-09
5.6006e-10
-4.00988e-09
1.85477e-10
-5.26103e-09
3.19863e-12
-1.21771e-08
-1.56759e-10
-2.59788e-08
-4.64646e-10
-9.96902e-09
5.36397e-10
-1.68234e-09
2.5775e-10
-6.31794e-10
3.96542e-11
-1.07532e-09
-1.1655e-10
-3.89672e-09
-7.50807e-10
-3.39439e-08
-4.82544e-09
-1.54456e-07
-9.1602e-09
-3.65296e-07
-6.41641e-09
-1.87947e-06
-2.09102e-08
-1.80554e-06
-6.69185e-08
-8.4788e-07
-1.73846e-07
-9.6743e-06
-4.75415e-07
-2.15826e-06
-6.90046e-05
-1.33959e-06
0.000129284
-6.60281e-08
7.1869e-07
-1.01319e-08
2.45355e-08
-3.21808e-09
2.59953e-09
-1.01743e-09
2.88244e-10
-2.95548e-10
6.88321e-12
-1.84227e-10
4.87627e-11
-2.02731e-10
7.42723e-12
-3.72454e-10
-6.13058e-12
-8.62844e-10
-7.93129e-12
-3.72415e-10
1.14174e-11
-1.24519e-10
2.77589e-12
-1.2008e-10
5.8814e-12
-1.17776e-09
-6.91799e-11
-2.77084e-09
-2.34668e-09
-4.09074e-09
-5.7926e-09
-5.83205e-09
-1.02471e-08
-7.77969e-09
-7.18185e-09
-1.32395e-08
-1.81218e-08
-3.22747e-08
-4.73782e-08
-1.37273e-07
-7.77819e-08
-5.72696e-07
-5.2977e-08
-3.43701e-08
-2.70072e-06
-4.2378e-07
0.000138726
-1.87604e-08
2.48061e-07
-2.32532e-09
7.20067e-09
-6.04593e-10
6.47054e-10
-1.70677e-10
1.9217e-11
-3.59299e-11
8.73313e-11
-1.30315e-11
9.83436e-12
-1.18852e-11
4.41188e-12
-1.67754e-11
-1.42794e-12
-2.23082e-11
-2.08096e-12
-9.56018e-12
-2.8409e-13
-5.89811e-12
-3.42626e-13
-1.3233e-12
6.71021e-13
-9.59945e-10
-4.54644e-12
-8.71603e-09
-5.62962e-10
-8.66365e-09
-1.96955e-09
-6.31755e-09
-8.46169e-09
-3.20916e-09
-9.56236e-09
-1.50178e-08
-2.26335e-08
-3.33566e-08
-7.9057e-08
-4.10338e-08
-9.66949e-08
-3.78139e-08
-6.03296e-08
-3.52959e-08
-3.60999e-08
-1.57199e-07
5.83903e-05
-5.07429e-09
9.54597e-08
-5.34495e-10
2.42312e-09
-1.37162e-10
1.85461e-10
-1.46022e-10
2.37337e-11
-9.06649e-11
2.4212e-10
-6.63193e-12
3.06499e-11
-3.56593e-12
1.77731e-12
-4.42042e-12
4.82978e-13
-2.68368e-12
2.94702e-13
-6.00244e-13
1.18123e-13
-3.85455e-13
4.51132e-15
-1.26173e-13
-2.61334e-14
-4.34525e-12
-1.2591e-13
-5.67031e-10
-2.17082e-13
-2.8801e-10
-9.17287e-12
2.06442e-10
-3.33105e-10
1.55628e-09
-6.40949e-09
-3.55973e-08
-2.6174e-08
-5.1876e-08
-4.86635e-08
-5.37847e-08
-8.06714e-08
-6.97904e-08
-8.13727e-08
-8.38016e-08
-1.81464e-08
-6.17072e-08
-2.1453e-06
-1.65571e-09
3.52476e-08
-1.39741e-10
8.52543e-10
-4.04993e-11
6.60336e-11
-8.60757e-11
4.65458e-11
-1.79354e-11
2.77586e-10
-3.78513e-12
3.30339e-11
-2.81159e-12
1.52441e-12
-2.76615e-12
1.03768e-12
-2.99815e-12
5.03952e-13
-6.84642e-13
4.18527e-13
-1.81757e-13
7.17536e-17
-7.15889e-14
-1.65042e-14
-4.49919e-14
-5.6418e-14
-1.72568e-13
-7.12978e-14
-9.28169e-12
-7.43656e-14
-3.42274e-10
-1.18087e-13
-5.29141e-11
-1.68863e-13
-1.27423e-09
-6.33637e-14
-1.39898e-08
-3.29582e-10
-2.75641e-08
-5.15261e-08
-3.91133e-08
-5.16738e-08
-7.6598e-08
-2.64345e-08
-2.27101e-08
4.11634e-05
-5.79421e-10
1.30624e-08
-3.67017e-11
2.81584e-10
-1.17649e-11
3.54648e-11
-4.84901e-11
2.65255e-11
-3.45246e-11
5.76371e-11
-2.38036e-12
4.23394e-12
-2.08288e-12
1.91456e-12
-1.94647e-12
1.61227e-12
-1.92267e-12
1.23666e-12
-9.70639e-13
4.74262e-13
-4.24892e-13
-2.02769e-13
-1.34021e-13
-3.17343e-13
-6.17302e-14
-6.937e-14
-2.14942e-14
-5.76241e-14
-1.10885e-14
-9.41796e-14
-3.57465e-15
-1.00665e-13
-1.09849e-16
-9.39957e-14
8.68503e-16
-6.27777e-14
-3.29511e-10
-7.41787e-14
-1.10186e-09
-2.9033e-14
-8.67171e-09
-7.26145e-13
-4.14197e-08
-2.41188e-08
-8.42779e-09
0.000101115
-1.60788e-10
4.78145e-09
-9.71661e-12
1.31714e-10
-5.57102e-12
2.78343e-11
-6.55074e-12
1.56091e-11
-2.25508e-12
2.0579e-11
-2.33787e-12
5.06691e-12
-2.72903e-12
3.03702e-12
-4.00869e-12
3.58069e-12
-1.05868e-11
8.62241e-12
-3.15836e-11
1.72266e-11
-1.10142e-11
-1.96747e-11
-1.80537e-12
-9.7311e-12
-2.42991e-13
-1.69681e-12
-6.8981e-14
-1.00875e-13
-3.50264e-14
-1.21629e-13
-9.57533e-15
-1.68196e-13
1.50166e-15
-1.59393e-13
4.23429e-15
-9.34226e-14
3.90724e-15
-7.61854e-14
2.53605e-15
-2.98758e-14
3.77311e-15
-7.29715e-13
-9.29977e-12
-8.28672e-10
-3.45041e-09
0.000104494
-1.7456e-11
1.34072e-09
-2.77519e-12
1.13731e-10
-1.97027e-12
2.32258e-11
-3.33369e-12
1.53847e-11
-2.70749e-12
2.05913e-11
-5.53213e-12
8.48134e-12
-2.38459e-11
2.21217e-11
-1.62879e-10
1.43792e-10
-7.58797e-10
6.07708e-10
-9.38e-10
2.06287e-10
-2.46294e-10
-6.97139e-10
-3.46704e-11
-2.25071e-10
-2.42356e-12
-3.44648e-11
-2.05558e-13
-2.19472e-12
-5.50708e-14
-1.75605e-13
-2.06953e-14
-2.084e-13
2.96722e-15
-2.12534e-13
1.12764e-14
-1.95207e-13
9.50193e-15
-1.09769e-13
6.30849e-15
-2.90161e-14
1.56198e-13
-2.44095e-12
-1.06055e-11
1.19591e-13
-7.37877e-08
0.000106996
3.82392e-10
1.02913e-07
-1.20648e-12
4.96401e-10
-1.89048e-12
2.1879e-11
-1.31407e-11
2.28328e-11
-1.29322e-10
1.25307e-10
-1.14858e-09
1.02378e-09
-2.11597e-08
2.03534e-08
-3.93141e-08
3.82165e-08
-3.42968e-08
9.16972e-09
-1.58246e-08
-1.68325e-08
-2.12326e-09
-1.58423e-08
-2.99054e-10
-2.1289e-09
-1.8936e-11
-3.18053e-10
-9.12393e-13
-2.04964e-11
-6.54905e-14
-9.75763e-13
-1.16717e-14
-2.65086e-13
1.07958e-14
-2.31877e-13
2.21592e-14
-2.14112e-13
1.96042e-14
-1.28513e-13
2.00484e-14
-3.16924e-14
1.63513e-12
-4.35513e-12
-8.63591e-12
7.25611e-13
7.47696e-07
0.000108148
-2.01368e-10
1.56885e-06
-5.74105e-13
2.94038e-10
-1.41098e-12
2.16483e-11
-3.21171e-11
5.12447e-11
-4.00248e-10
4.88433e-10
-3.57101e-09
6.15127e-09
-4.44788e-08
7.64205e-08
-6.32441e-08
5.8715e-08
-6.94618e-08
1.6988e-08
-6.22303e-08
-2.16788e-08
-2.55048e-08
-5.09943e-08
-1.56929e-09
-3.23096e-08
-1.04713e-10
-1.80955e-09
-4.52552e-12
-1.22829e-10
-1.03519e-13
-4.8665e-12
7.36984e-15
-3.57013e-13
2.47258e-14
-2.21023e-13
3.10908e-14
-1.91596e-13
2.5096e-14
-1.3179e-13
2.87668e-14
-3.67082e-14
9.62431e-13
-9.5501e-15
-5.11406e-12
1.64641e-12
1.35093e-06
4.29241e-05
6.86146e-08
4.72838e-06
2.90509e-09
6.74711e-08
4.06781e-11
2.87609e-09
1.73443e-12
8.96439e-11
1.03299e-10
4.0065e-10
-9.27599e-09
1.14701e-08
-2.29963e-08
9.1874e-08
-3.1551e-08
6.88703e-08
-3.57112e-08
2.27488e-08
-3.70629e-08
-1.87265e-08
-2.59939e-08
-6.0657e-08
-1.00335e-08
-7.49059e-08
-4.31678e-10
-1.47473e-08
-6.22856e-12
-5.75129e-10
-3.96848e-13
-2.34824e-11
-2.09641e-14
-1.24678e-12
3.01485e-14
-2.27109e-13
3.28956e-14
-1.29529e-13
2.39251e-14
-9.79972e-14
9.04375e-15
-3.83313e-14
2.70957e-15
-3.18307e-15
-1.38472e-15
7.0276e-13
1.13666e-06
1.81648e-06
4.48628e-08
6.88554e-06
6.88344e-08
7.87777e-07
5.42482e-09
6.87891e-08
4.91301e-10
5.07327e-09
1.85705e-10
7.58027e-10
9.37048e-09
2.65749e-09
2.15871e-08
5.01831e-08
1.65466e-08
7.56439e-08
5.39474e-09
9.2817e-09
3.63902e-09
-4.97877e-09
4.04108e-09
-1.86437e-08
5.92253e-09
-6.51289e-08
-2.24441e-10
-3.25664e-08
-8.25215e-11
-2.04546e-09
-6.03705e-12
-1.18685e-10
-3.93719e-13
-7.59073e-12
4.06665e-15
-6.30399e-13
2.45199e-14
-9.35522e-14
1.85839e-14
-4.25148e-14
6.48116e-15
-2.05963e-14
6.27526e-16
-4.04087e-15
-7.62729e-16
6.47996e-17
5.90154e-07
3.18081e-07
6.84885e-07
2.26618e-06
2.3919e-07
1.7047e-06
4.73111e-08
3.30192e-07
1.24924e-08
4.32567e-08
2.5685e-09
1.10539e-08
2.15476e-09
3.72363e-09
2.21876e-08
1.79679e-08
3.14265e-08
1.44437e-08
1.15928e-08
1.71617e-09
5.54222e-09
-1.10393e-09
1.13384e-08
-4.20985e-09
1.71324e-08
-6.81039e-08
1.46805e-09
-3.81718e-08
-2.748e-10
-3.76535e-09
-2.20495e-11
-3.88333e-10
-1.54378e-12
-2.9058e-11
-7.76392e-14
-2.24691e-12
9.60162e-15
-1.84866e-13
8.22253e-15
-2.29492e-14
2.98106e-15
-7.31481e-15
5.13219e-16
-2.16745e-15
-5.14133e-16
5.51829e-17
1.23961e-07
4.38997e-08
5.07448e-07
1.05506e-07
3.88743e-07
4.88124e-07
2.77263e-08
4.95109e-07
8.62954e-08
1.85723e-07
2.10078e-08
8.11483e-08
1.09871e-08
1.46828e-08
1.36619e-08
1.61272e-08
1.54932e-08
8.63274e-09
1.07232e-08
4.31053e-09
7.8628e-09
-8.06664e-11
6.2527e-09
-4.46624e-09
2.58682e-08
-5.16379e-08
6.09531e-09
-3.70304e-08
-2.56256e-10
-4.69822e-09
-2.38202e-11
-6.68613e-10
-2.23193e-12
-5.48554e-11
-1.69744e-13
-4.82556e-12
-1.26202e-14
-3.79247e-13
3.0605e-15
-2.78831e-14
1.34978e-15
-3.42916e-15
3.10725e-16
-7.42741e-16
-2.25916e-16
7.12035e-17
2.08383e-08
4.0697e-09
7.93779e-08
1.42272e-08
1.802e-07
1.59907e-08
2.90851e-07
2.38165e-08
9.41959e-08
1.0669e-07
4.79812e-08
1.27431e-07
2.66717e-08
5.82434e-08
1.9612e-08
2.06125e-08
1.50313e-08
1.07117e-08
1.24355e-08
4.83771e-09
9.77051e-09
8.75596e-10
1.88738e-08
-7.0211e-09
3.11748e-08
-2.65235e-08
1.05414e-08
-2.86642e-08
2.15437e-10
-3.26839e-09
1.60437e-11
-5.52932e-10
1.19263e-12
-4.93609e-11
8.01967e-14
-4.582e-12
7.86927e-15
-3.77581e-13
1.75602e-15
-2.81895e-14
4.46496e-16
-2.25e-15
1.08528e-16
-2.84882e-16
-7.25142e-17
2.23442e-17
2.13989e-09
2.32369e-10
1.22137e-08
7.77617e-10
2.35017e-08
1.03932e-09
4.07916e-08
2.57087e-09
1.34784e-07
5.81592e-09
1.00915e-07
2.83883e-08
3.06103e-08
4.7138e-08
2.61723e-08
1.85176e-08
2.04444e-08
1.42198e-08
1.70719e-08
7.01922e-09
1.37482e-08
2.37478e-09
4.6985e-08
-1.09841e-09
5.04141e-08
-1.20089e-08
8.29479e-09
-1.58785e-08
3.9707e-10
-1.51824e-09
3.25956e-11
-2.90377e-10
2.79078e-12
-3.13568e-11
2.2268e-13
-3.15436e-12
1.89391e-14
-2.58132e-13
1.41298e-15
-1.98111e-14
2.16887e-16
-1.40433e-15
3.84698e-17
-1.10227e-16
-1.58441e-17
8.03161e-18
1.21385e-10
7.98124e-12
6.87024e-10
1.93219e-11
1.56018e-09
1.01228e-11
3.85095e-09
8.49123e-11
8.51051e-09
6.96721e-10
1.95365e-08
3.67525e-09
3.18849e-08
8.79652e-09
2.15054e-08
2.19428e-08
1.9382e-08
1.36535e-08
1.60195e-08
8.16183e-09
6.72238e-08
1.74442e-08
6.40249e-08
9.86625e-09
5.44601e-08
1.4366e-09
4.18252e-09
-1.96257e-09
3.29939e-10
-3.28809e-10
3.42607e-11
-7.7099e-11
3.29344e-12
-9.70241e-12
2.62489e-13
-1.0305e-12
2.16199e-14
-8.27729e-14
1.36185e-15
-6.54282e-15
1.09517e-16
-4.56379e-16
1.00613e-17
-2.8813e-17
-2.44111e-18
1.09297e-18
3.53238e-12
2.05756e-13
1.56277e-11
3.41572e-13
2.44037e-11
7.92984e-14
1.09363e-10
-7.89758e-16
7.33096e-10
6.13112e-11
3.5228e-09
4.25915e-10
7.42097e-09
4.75777e-09
1.62951e-08
2.23602e-08
4.3309e-08
3.06073e-08
6.73207e-08
3.34528e-08
6.31224e-08
2.8952e-08
5.73435e-08
2.02667e-08
1.87605e-08
5.21764e-09
6.64589e-10
1.52769e-10
1.13017e-10
-2.31877e-11
1.31699e-11
-9.51444e-12
1.32524e-12
-1.45344e-12
1.10351e-13
-1.55121e-13
8.79983e-15
-1.14515e-14
5.63365e-16
-8.59805e-16
3.25247e-17
-5.92605e-17
1.93319e-18
-3.55618e-18
-3.09941e-19
2.50488e-19
5.02198e-14
4.49589e-15
1.0785e-13
1.09427e-14
1.18756e-14
5.9907e-15
3.30742e-15
-1.81954e-13
6.0907e-11
4.54217e-13
4.28133e-09
4.22286e-10
2.68161e-08
1.09306e-08
3.99635e-08
3.49171e-08
4.08285e-08
3.80291e-08
4.61907e-08
3.54002e-08
4.70813e-08
3.37649e-08
1.90317e-08
1.10115e-08
2.7668e-10
-3.85014e-11
8.71903e-11
1.22109e-11
1.67874e-11
9.83988e-13
2.1268e-12
-4.39014e-13
2.10112e-13
-1.22528e-13
1.72756e-14
-1.21083e-14
1.20353e-15
-9.19014e-16
8.4561e-17
-7.25399e-17
4.53406e-18
-4.95158e-18
2.58327e-19
-2.95543e-19
-2.63148e-20
5.14965e-20
2.77708e-16
-2.26258e-16
-1.14512e-15
3.99694e-17
-9.21482e-14
4.9131e-15
-2.95538e-13
8.87042e-14
3.04289e-12
3.38647e-12
6.42715e-11
5.78543e-10
3.57276e-09
5.24411e-09
9.84488e-09
1.22284e-08
1.87194e-08
3.22037e-08
2.14413e-08
2.76654e-08
7.47728e-09
5.26778e-09
3.12034e-10
-3.30053e-10
4.0662e-11
-3.63797e-11
7.12246e-12
-1.4346e-12
1.31369e-12
4.38434e-14
1.99361e-13
4.81772e-15
2.04528e-14
-3.96788e-15
1.71004e-15
-5.56014e-16
1.4398e-16
-5.67293e-17
8.48065e-18
-4.68999e-18
4.10448e-19
-3.2045e-19
2.39048e-20
-1.8799e-20
-1.53472e-21
5.65993e-21
-2.68574e-17
2.9601e-17
-2.06664e-16
8.01849e-16
-3.53643e-15
3.08046e-15
1.88904e-14
8.79164e-14
1.54812e-11
3.8735e-12
-1.48311e-10
-1.10446e-11
-5.25214e-10
-5.86351e-11
-3.35267e-10
2.69684e-11
1.87566e-09
3.66752e-10
1.83044e-09
1.82495e-10
5.21282e-10
-5.45031e-11
6.98808e-11
-2.4844e-11
7.64222e-12
-4.26222e-12
7.6055e-13
-3.77243e-13
9.26831e-14
-9.72906e-15
1.37487e-14
3.81657e-16
1.91249e-15
1.91871e-17
1.88514e-16
-2.18587e-17
1.17668e-17
-2.86211e-18
6.22906e-19
-2.47595e-19
2.96138e-20
-1.69321e-20
1.653e-21
-9.70283e-22
-1.87211e-22
5.17321e-22
-1.45609e-17
4.26182e-18
-8.84191e-17
2.26864e-16
1.02359e-15
4.02258e-16
-1.33552e-13
6.22139e-15
-3.97733e-13
-4.60461e-14
-1.21e-11
-3.21062e-13
-7.90237e-11
-1.31727e-12
-1.00832e-10
4.30554e-12
9.51426e-11
2.47597e-11
1.47373e-10
1.36711e-11
4.54131e-11
-3.10657e-12
7.99633e-12
-1.95632e-12
9.36889e-13
-4.07026e-13
9.03655e-14
-3.75506e-14
7.19745e-15
-1.33176e-16
2.06122e-15
4.36295e-16
2.21365e-16
2.09161e-17
1.29841e-17
-4.13652e-19
7.4807e-19
-1.14323e-19
3.84555e-20
-1.08482e-20
1.74692e-21
-7.47162e-22
1.85005e-22
-4.47333e-23
-7.83603e-23
1.78208e-22
-2.1078e-18
3.25735e-19
-1.12751e-17
1.81959e-17
-6.72146e-17
3.6214e-17
-5.64372e-16
2.18854e-16
-5.00801e-14
-7.36733e-16
-4.17676e-13
-6.21431e-15
-2.36113e-12
6.21982e-15
-1.8817e-12
4.53345e-13
8.5807e-12
1.68795e-12
1.10484e-11
8.56337e-13
3.75742e-12
-2.24587e-13
7.32152e-13
-1.34698e-13
9.52034e-14
-2.4523e-14
1.06595e-14
-1.22154e-16
2.05779e-15
6.36708e-16
2.24115e-16
6.31453e-17
1.35811e-17
2.25148e-18
7.73085e-19
3.32283e-20
4.16298e-20
-3.11923e-21
2.01296e-21
-3.83064e-22
9.02096e-23
-2.71161e-23
4.20436e-23
-3.48127e-24
-3.2902e-23
1.16496e-22
-2.06187e-19
3.28654e-20
-8.12786e-19
1.5821e-18
-6.36406e-18
2.56905e-18
-5.97085e-17
2.47371e-17
-9.19678e-16
2.33064e-16
-1.2177e-14
8.55385e-17
-5.01254e-14
5.40978e-15
1.34651e-13
3.66051e-14
7.95232e-13
9.98503e-14
8.21975e-13
5.22329e-14
2.78644e-13
-1.04326e-14
5.62684e-14
-5.44344e-15
7.98481e-15
8.71031e-16
1.45901e-15
5.37876e-16
1.77895e-16
6.39679e-17
1.26013e-17
3.70401e-18
7.76355e-19
1.66139e-19
4.08513e-20
4.47956e-21
1.98388e-21
-1.94631e-23
8.85943e-23
-1.05481e-23
6.18526e-24
-8.02748e-25
4.1681e-24
-5.25051e-25
-8.93035e-24
6.02241e-23
-2.0666e-20
3.11456e-21
-5.17918e-20
1.62777e-19
-1.9071e-19
1.94595e-19
-3.96196e-18
1.57736e-18
-3.35564e-17
3.70437e-17
-1.86858e-16
2.21969e-16
6.72646e-16
8.42342e-16
1.64355e-14
3.22193e-15
5.51042e-14
8.1228e-15
5.37131e-14
4.67311e-15
1.7675e-14
-1.21878e-15
3.55788e-15
9.51436e-16
7.55427e-16
3.06517e-16
1.02763e-16
4.24405e-17
8.92016e-18
3.2931e-18
6.53696e-19
2.08138e-19
3.90534e-20
9.86072e-21
1.91759e-21
3.19009e-22
8.19474e-23
4.35439e-24
3.30092e-24
-1.99727e-25
5.42267e-25
-2.64311e-26
9.42552e-25
-2.85561e-26
-1.35229e-24
1.66418e-23
-1.79104e-21
2.41396e-22
-2.59234e-21
1.60254e-20
-5.23223e-21
1.50744e-20
-7.54136e-20
8.91268e-20
-6.95552e-19
1.67152e-18
5.47383e-18
2.3933e-17
1.60331e-16
1.41404e-16
1.32156e-15
4.72525e-16
3.54512e-15
7.0082e-16
3.10674e-15
6.56533e-16
1.01625e-15
3.56552e-16
3.04402e-16
1.23108e-16
4.29023e-17
1.88817e-17
4.78243e-18
1.95906e-18
4.25435e-19
1.62687e-19
3.01013e-20
1.03188e-20
1.71678e-21
4.93182e-22
7.98342e-23
1.69995e-23
3.06018e-24
3.62675e-25
6.83917e-25
-4.29159e-28
1.45808e-26
1.27751e-26
3.6998e-26
9.71449e-27
-1.57427e-25
2.71497e-24
-1.11747e-22
1.37793e-23
-4.81921e-23
1.42819e-21
2.91226e-23
1.08709e-21
1.09985e-21
5.16989e-21
5.05981e-20
8.40263e-20
1.36424e-18
1.17835e-18
1.77708e-17
1.00563e-17
1.05401e-16
4.4786e-17
2.23731e-16
7.93656e-17
1.98444e-16
6.54284e-17
6.72782e-17
3.08462e-17
1.35831e-17
5.74303e-18
1.93167e-18
8.22272e-19
2.13432e-19
8.92534e-20
1.82347e-20
7.30075e-21
1.23027e-21
4.54143e-22
6.6646e-23
2.14651e-23
3.01831e-24
7.28885e-25
1.73105e-24
2.06114e-25
2.06588e-26
1.04316e-27
-8.595e-26
4.30999e-27
-3.30436e-26
4.4197e-27
-2.48694e-26
3.83563e-25
-1.64401e-24
5.2716e-25
1.02352e-23
1.16467e-22
1.85911e-23
7.29988e-23
2.43654e-22
2.91543e-22
6.12582e-21
4.53616e-21
1.1772e-19
6.00255e-20
1.31187e-18
4.83864e-19
7.10298e-18
2.22188e-18
1.33631e-17
4.30868e-18
1.06856e-17
3.15922e-18
3.15111e-18
1.14112e-18
5.93761e-19
2.42585e-19
8.223e-20
3.54322e-20
8.64897e-21
3.75594e-21
7.02938e-22
2.98348e-22
4.49973e-23
1.80383e-23
2.238e-24
8.09896e-25
9.35943e-25
1.42318e-25
3.68677e-26
8.96203e-27
-7.71151e-26
-8.6637e-27
-4.81434e-26
4.83767e-28
-1.81793e-26
1.16462e-27
-5.63531e-27
7.84097e-26
2.33367e-27
4.25768e-25
1.72698e-24
8.69286e-24
2.06252e-24
4.57737e-24
2.02223e-23
1.56978e-23
4.51251e-22
2.35764e-22
7.772e-21
3.06731e-21
7.73157e-20
2.34241e-20
3.78353e-19
9.94536e-20
6.56557e-19
1.82282e-19
4.82912e-19
1.31632e-19
1.35494e-19
4.78462e-20
2.4287e-20
1.00877e-20
3.19399e-21