/*--------------------------------*- C++ -*----------------------------------*\
| =========                 |                                                 |
| \\      /  F ield         | OpenFOAM: The Open Source CFD Toolbox           |
|  \\    /   O peration     | Version:  2206                                  |
|   \\  /    A nd           | Website:  www.openfoam.com                      |
|    \\/     M anipulation  |                                                 |
\*---------------------------------------------------------------------------*/
FoamFile
{
    version     2.0;
    format      ascii;
    arch        "LSB;label=32;scalar=64";
    class       volScalarField;
    location    "0.95";
    object      alpha.water;
}
// * * * * * * * * * * * * * * * * * * * * * * * * * * * * * * * * * * * * * //

dimensions      [0 0 0 0 0 0 0];

internalField   nonuniform List<scalar> 
2268
(
1
1
1
1
1
1
1
1
1
1
1
1
1
0.999073
0.975856
0.959642
0.989858
0.989886
0.982061
0.976474
0.988019
0.998277
0.999982
1
1
1
1
1
1
1
1
1
1
1
1
0.999994
0.986127
0.949849
0.949727
0.954629
0.96168
0.961736
0.962017
0.963742
0.998081
0.999989
1
1
1
1
1
1
1
1
1
1
1
1
0.999999
0.99788
0.968546
0.949773
0.949727
0.959573
0.984257
0.98984
0.996325
0.999917
0.999989
1
1
1
1
1
1
1
1
1
1
1
1
1
0.999999
0.998702
0.99059
0.990958
1
1
1
1
1
0.999992
1
1
1
1
1
1
1
1
1
1
1
1
1
1
1
1
1
1
1
1
1
1
1
1
1
1
1
0.999997
1
1
1
1
1
1
1
1
1
1
1
1
0.999999
0.999998
0.999999
1
1
0.999992
1
1
1
1
0.99999
0.999506
0.999618
1
1
1
1
1
1
1
1
0.999999
0.999995
0.999977
0.999938
0.999955
0.999995
0.999999
0.999979
1
1
1
1
1
0.998835
0.998752
0.999972
1
1
1
1
1
1
0.999995
0.999952
0.99981
0.973205
0.893539
0.855162
0.940739
0.996567
0.999977
0.980961
0.981213
0.981307
0.985489
0.987386
0.987385
0.981245
0.953444
0.794098
0.793592
0.680405
0.651219
0.777352
0.876861
0.87688
0.876857
0.876395
0.875296
0.874636
0.980939
0.967061
0.854974
0.873793
0.987347
0.987386
0.987385
0.890524
0.638379
0.671682
0.778159
0.651219
0.70662
0.876868
0.876857
0.830366
0.793417
0.805196
0.846563
0.980694
0.891301
0.793036
0.805569
0.987337
0.987385
0.951878
0.711025
0.640621
0.779379
0.779976
0.651709
0.656863
0.876762
0.767412
0.540992
0.547897
0.537361
0.491444
0.979039
0.889889
0.793029
0.809141
0.986992
0.987177
0.960714
0.712424
0.667106
0.780863
0.780955
0.777052
0.757132
0.553198
0.530012
0.541141
0.545731
0.50368
0.46534
0.97861
0.828521
0.793066
0.794143
0.952911
0.985569
0.944874
0.578214
0.48265
0.778227
0.78115
0.780958
0.780551
0.769844
0.76705
0.704285
0.540886
0.564497
0.596378
0.98294
0.828853
0.858631
0.810261
0.940738
0.981316
0.720944
0.0954924
0.0967179
0.470463
0.78099
0.780955
0.780861
0.780457
0.744448
0.222279
0.0417747
0.219971
0.816307
0.98382
0.8296
0.968577
0.970573
0.896452
0.87532
0.149671
0.0844864
0.0844864
0.429008
0.780955
0.780861
0.780583
0.762073
0.221345
0.0324839
0.0323633
0.03624
0.794776
0.983833
0.852555
0.969912
0.970582
0.91512
0.817524
0.0846344
0.0844855
0.0964015
0.550874
0.780407
0.780583
0.771516
0.291708
0.00544573
0.0297142
0.0736049
0.0840332
0.23134
0.992886
0.999597
1
1
0.999995
0.999995
0.999995
0.999997
1
0.981359
0.955148
0.968334
0.985333
0.984023
0.962824
0.877661
0.68553
0.460573
0.324347
0.301237
0.438334
0.732674
0.988838
0.858209
0.964403
0.999991
0.993977
0.980507
0.999992
0.995651
0.554248
0.331075
0.27521
0.364241
0.664345
0.798109
0.71262
0.358944
0.132598
0.113675
0.113625
0.113824
0.115903
0.195001
0.498073
0.770989
0.840746
0.842852
0.962159
0.993853
0.993165
0.882699
0.233564
0.0394052
0.0396064
0.0423614
0.202869
0.271687
0.180625
0.155792
0.154095
0.114833
0.113625
0.113824
0.174311
0.540947
0.803184
0.923969
0.966088
0.854031
0.955584
0.960859
0.848435
0.344414
0.0946372
0.0394052
0.0394052
0.0394052
0.0363311
0.0313074
0.0241986
0.0955068
0.185586
0.186153
0.168817
0.114833
0.283294
0.580449
0.59906
0.608671
0.928636
0.966144
0.863518
0.842257
0.248559
0.0828471
0.0445931
0.0538327
0.0823876
0.0861016
0.0850242
0.0711657
0.0178881
0.00344091
0.0579923
0.172333
0.185586
0.182366
0.156911
0.0548204
0.0163746
0.024476
0.202179
0.885678
0.965959
0.863518
0.448019
0.00309129
0.00277834
0.0426288
0.087627
0.087623
0.087623
0.087623
0.0872119
0.0576862
0.0015734
0.000761719
0.000553036
0.00206855
0.0191
0.0245137
0.0177768
0.00934857
0.0157506
0.336087
0.926816
0.963443
0.804538
0.113688
0.000852002
0.00053394
0.011278
0.0198884
0.019252
0.0167872
0.0242144
0.0298542
0.018378
0.000975335
4.12439e-05
0.00011482
0.0013518
0.0194913
0.0243857
0.0199296
0.00520534
0.00934857
0.252172
0.787461
0.944421
0.716861
0.000864446
0.00026909
0.000116741
5.59697e-05
2.18709e-05
1.21907e-05
1.17555e-05
1.79938e-05
3.17338e-05
4.50256e-05
2.9343e-05
2.00274e-06
2.34883e-06
1.19541e-05
0.00635514
0.0158994
0.00944273
0.00362407
0.0160612
0.0232409
0.191959
0.675147
0.631401
0.000270592
8.76184e-05
2.90321e-05
1.03743e-05
2.65808e-06
8.72749e-07
7.06418e-07
8.19426e-07
1.16564e-06
1.8025e-06
5.27693e-07
6.56458e-07
2.54637e-06
3.30508e-06
6.01147e-06
2.07014e-05
3.35238e-05
0.00317784
0.0141195
0.00614041
0.000530644
0.0490982
0.635063
0.000123605
2.76734e-05
7.53905e-06
2.25213e-06
5.38902e-07
1.40578e-07
6.31351e-08
7.33259e-08
1.12944e-07
1.08603e-07
4.71696e-08
2.67471e-07
2.85383e-06
1.84565e-05
2.4944e-05
3.22288e-05
3.35274e-05
3.37623e-05
3.96728e-05
6.30508e-05
0.000134669
0.00019289
0.634319
8.95403e-05
7.56756e-06
2.07684e-06
6.66456e-07
2.04849e-07
6.31364e-08
1.7614e-08
2.14719e-08
4.66525e-08
1.36191e-08
4.68104e-09
5.86078e-09
1.28011e-06
5.47636e-05
7.65111e-05
7.64263e-05
3.96201e-05
9.677e-05
0.000209529
0.000249834
0.00019289
0.000172869
0.541343
8.96527e-06
2.12594e-06
6.35453e-07
6.19705e-07
1.49473e-06
2.34748e-07
1.35367e-08
1.62656e-08
4.39385e-08
7.18048e-09
2.59949e-09
2.52535e-09
9.7747e-10
8.43364e-10
2.6598e-05
5.44504e-05
0.000130448
0.000265732
0.000561637
0.000561637
0.000532878
0.000210489
0.116437
2.96826e-06
6.26554e-07
2.18733e-07
5.18292e-07
1.62493e-06
2.8268e-07
1.27229e-08
1.28124e-08
2.67103e-08
1.31355e-08
1.83083e-09
1.33074e-09
9.49463e-10
6.25851e-10
4.48707e-10
4.05526e-10
1.86617e-05
0.000111723
0.000305071
0.000561637
0.000560559
0.000558103
0.0222577
1.0083e-06
2.19135e-07
9.2176e-08
3.25982e-07
1.30622e-06
1.77969e-08
1.21612e-08
1.17264e-08
1.04893e-08
9.59915e-09
2.18468e-09
1.19688e-09
8.16362e-10
6.82394e-10
4.20861e-10
3.47321e-10
2.84504e-10
2.78834e-10
2.33506e-10
0.000122584
0.000301711
0.000558637
0.230217
3.70072e-07
9.93998e-08
5.68263e-08
6.24963e-08
5.84496e-08
1.31967e-08
1.27229e-08
1.21612e-08
1.10354e-08
1.41836e-08
4.9081e-09
2.58028e-09
8.86014e-10
8.67189e-10
1.06812e-09
1.03489e-09
5.73531e-10
2.56414e-10
2.20828e-10
2.22083e-10
2.20828e-10
2.33905e-05
0.326796
1.46923e-07
5.68619e-08
4.83036e-08
3.32688e-08
1.84136e-08
1.57614e-08
1.31771e-08
1.33635e-08
1.67592e-08
4.65393e-08
1.09586e-07
3.12912e-08
3.79524e-09
9.70914e-10
1.22072e-09
1.57155e-09
1.54535e-09
1.147e-09
4.51678e-10
2.20828e-10
4.4708e-09
5.13861e-09
0.329723
9.12562e-05
5.30267e-08
5.09553e-08
4.83037e-08
3.32384e-08
1.8402e-08
1.18398e-08
0.000120919
0.00016609
5.47798e-05
2.53339e-05
4.32536e-07
2.21131e-08
2.69143e-09
1.40575e-09
1.57987e-09
1.66493e-09
1.58974e-09
9.47977e-10
2.2291e-10
3.20516e-08
5.997e-08
0.329396
0.001487
5.31184e-08
5.3189e-08
5.09553e-08
7.64331e-08
5.49993e-06
0.000166123
0.000304753
0.000305879
0.000302454
0.000254231
1.64254e-05
1.71227e-07
1.26068e-08
4.46263e-09
1.68309e-09
1.55078e-09
1.50814e-09
1.00103e-09
2.30905e-10
3.5289e-08
7.4906e-08
0.302067
0.00475606
1.95902e-07
3.73265e-08
7.90847e-08
1.75211e-07
2.14665e-05
0.000304753
0.000305879
0.000305879
0.000305879
0.00030086
0.000242452
1.1457e-05
5.92012e-07
4.67897e-08
2.46145e-09
1.11169e-09
1.10273e-09
9.15585e-10
2.86174e-10
1.58582e-11
4.0349e-08
0.0594258
0.0155539
0.000283163
1.6899e-06
1.09855e-07
4.43071e-07
9.01782e-07
0.000273279
0.000304753
0.000279176
0.000166593
0.000238146
0.000265316
0.0001096
2.50391e-06
5.68409e-08
3.39009e-09
8.43611e-10
6.08384e-10
5.43572e-10
3.10014e-10
1.29761e-11
1.46502e-12
0.00202773
0.0154888
0.00397534
5.0154e-05
3.98412e-06
9.01782e-07
3.98548e-06
3.40591e-05
0.000166469
7.103e-05
2.22598e-05
2.17166e-05
0.000264169
0.000155625
5.3557e-06
1.01812e-07
9.18678e-09
1.0884e-09
2.87877e-10
2.11019e-10
1.14005e-10
3.52073e-11
4.2021e-12
0.000298225
0.00227443
0.00400533
0.00207349
0.000131386
7.68139e-06
6.92639e-06
1.91808e-05
2.69692e-05
2.22598e-05
2.17001e-05
2.19627e-05
0.000194972
0.000150309
1.17547e-05
2.34889e-07
2.28818e-08
2.20357e-09
2.56195e-10
6.40066e-11
3.91255e-11
1.34141e-11
4.9756e-12
3.31922e-05
6.38812e-05
0.000444162
0.000858798
0.000850121
0.000466014
2.96468e-05
2.91895e-05
2.37954e-05
2.19224e-05
2.18111e-05
2.17608e-05
0.000172698
0.000143478
1.60562e-05
3.58619e-07
3.75851e-08
3.34065e-09
2.99442e-10
3.65283e-11
1.2707e-11
4.30989e-12
1.50482e-12
2.58834e-06
5.40322e-06
6.48472e-06
9.38055e-06
0.000130111
0.000391685
0.000254562
3.60878e-05
2.59944e-05
2.2536e-05
2.19224e-05
8.87454e-05
0.000173626
0.000137845
1.00743e-05
3.48808e-07
3.83065e-08
3.54853e-09
2.93324e-10
3.00206e-11
4.20341e-12
1.24143e-12
4.8042e-13
1.38477e-07
2.58384e-07
2.05759e-07
3.72061e-07
1.54376e-06
1.76844e-05
7.13928e-05
3.52488e-05
2.84287e-05
2.59944e-05
4.50992e-05
0.000181289
0.000177527
0.000101412
3.71106e-06
2.2717e-07
2.49212e-08
2.33601e-09
1.91878e-10
1.8073e-11
1.36552e-12
2.61684e-13
8.62698e-14
5.27926e-09
8.48126e-09
1.2935e-09
2.57972e-10
4.98026e-08
1.54376e-06
6.18299e-06
1.43915e-05
3.26212e-05
0.000129953
0.000186642
0.000184071
0.000168213
2.52218e-05
5.93463e-07
7.48591e-08
8.06119e-09
7.42318e-10
6.93048e-11
5.45732e-12
3.55107e-13
3.4948e-14
9.48984e-15
1.8136e-10
3.18103e-10
2.38355e-10
2.58002e-10
2.58002e-10
4.2973e-06
6.05763e-05
0.000156025
0.000182371
0.000186642
0.000186642
0.000176465
3.80037e-05
7.39069e-07
9.97105e-08
1.16864e-08
1.19638e-09
1.06605e-10
1.11293e-11
8.13577e-13
5.72506e-14
3.55074e-15
1.38305e-15
8.25273e-12
4.02524e-11
1.48295e-10
2.38355e-10
8.20455e-09
1.25246e-05
7.53165e-05
0.000165925
0.000177792
0.000182371
0.000136341
2.80638e-05
6.15375e-07
1.07379e-07
1.40034e-08
1.37004e-09
1.3618e-10
1.50934e-11
1.66966e-12
1.3639e-13
6.62658e-15
3.40402e-16
1.34116e-16
1.89161e-12
2.99478e-11
3.4753e-11
1.37709e-10
1.25833e-07
2.54457e-06
1.03463e-05
2.78961e-05
6.41884e-05
4.41635e-05
8.04091e-06
3.50401e-07
7.57193e-08
1.23232e-08
1.53602e-09
1.77807e-10
1.8073e-11
2.72485e-12
2.39313e-13
1.23919e-14
5.49127e-16
2.47645e-17
9.45435e-18
3.90045e-13
1.09093e-11
1.75416e-11
3.9398e-10
1.27067e-08
6.41872e-09
4.6656e-08
2.00015e-07
4.25004e-07
3.23889e-07
1.31475e-07
3.41176e-08
7.08303e-09
1.11938e-09
1.60481e-10
2.24026e-11
4.16183e-12
3.38774e-13
1.75215e-14
8.70761e-16
3.78386e-17
1.48527e-18
3.01039e-18
3.67232e-14
1.39006e-12
3.08891e-12
1.82211e-11
3.51168e-11
4.086e-10
3.31409e-09
1.59719e-08
3.64319e-08
2.80473e-08
1.11644e-08
2.82267e-09
5.99461e-10
1.07819e-10
2.57485e-11
4.93706e-12
4.22776e-13
2.28078e-14
1.13757e-15
5.29668e-17
2.1675e-18
1.6144e-19
1.89722e-18
3.25266e-15
1.14778e-13
2.50783e-13
1.90568e-12
4.32075e-12
4.44473e-11
2.71045e-10
1.13904e-09
2.68367e-09
2.07987e-09
8.19785e-10
2.40973e-10
5.52402e-11
1.86967e-11
4.1745e-12
4.13307e-13
2.57784e-14
1.40158e-15
6.47873e-17
2.73145e-18
9.70551e-20
6.33877e-20
9.00243e-19
3.01857e-16
1.09311e-14
1.78403e-14
1.56171e-13
1.70829e-12
6.27876e-12
2.50439e-11
1.01551e-10
1.89046e-10
1.53207e-10
7.2875e-11
2.13787e-11
1.02606e-11
2.57934e-12
2.90244e-13
2.20609e-14
1.42414e-15
7.50974e-17
3.25327e-18
1.20988e-19
2.81283e-21
1.61381e-20
2.65385e-19
2.45751e-17
1.08609e-15
1.38093e-15
8.75056e-15
1.60942e-13
1.24479e-12
4.60566e-12
8.12543e-12
1.63243e-11
1.27806e-11
6.68533e-12
4.42205e-12
1.18164e-12
1.51729e-13
1.42991e-14
1.10974e-15
6.92838e-17
3.49981e-18
1.39701e-19
2.83029e-21
-2.7573e-39
6.30408e-22
4.60333e-20
1.55334e-18
1.00399e-16
1.03392e-16
5.0223e-16
7.45635e-15
9.72521e-14
5.90319e-13
1.64371e-12
2.28923e-12
2.16194e-12
1.24593e-12
3.80114e-13
5.93779e-14
7.03411e-15
6.68247e-16
5.00023e-17
2.98305e-18
1.3927e-19
2.24916e-21
0
-2.39916e-21
-9.95513e-22
6.69791e-21
5.42186e-20
8.49898e-18
7.18476e-18
2.86681e-17
3.83175e-16
4.74103e-15
3.56309e-14
1.44659e-13
2.17655e-13
1.80547e-13
8.05146e-14
1.69822e-14
2.62945e-15
3.10881e-16
2.83617e-17
2.02593e-18
1.12212e-19
2.61918e-21
-2.18856e-37
-2.28805e-21
-1.52357e-21
-6.2025e-22
1.40375e-21
4.00645e-22
6.60783e-19
4.65898e-19
1.57316e-18
2.01112e-17
2.38244e-16
1.68264e-15
6.71283e-15
1.07833e-14
8.16844e-15
3.28472e-15
7.29838e-16
1.11181e-16
1.26171e-17
1.09823e-18
7.32763e-20
2.5196e-21
0
-1.67784e-21
-1.29555e-21
-6.67859e-22
-2.40814e-22
4.20274e-22
-6.23657e-21
4.60631e-20
2.80451e-20
8.30281e-20
1.02282e-18
1.19188e-17
8.07687e-17
3.02352e-16
4.66424e-16
3.49416e-16
1.38576e-16
2.9909e-17
4.36968e-18
4.73498e-19
3.87321e-20
1.80608e-21
3.07155e-23
-1.01352e-21
-9.37737e-22
-5.51451e-22
-2.39342e-22
-7.14191e-23
1.24394e-22
-9.05845e-21
2.17745e-21
1.35087e-21
4.07888e-21
5.02182e-20
5.75866e-19
3.79542e-18
1.36795e-17
2.01556e-17
1.46913e-17
5.5701e-18
1.15226e-18
1.6102e-19
1.64885e-20
1.06019e-21
1.88128e-23
-4.96831e-22
-5.78124e-22
-3.95931e-22
-1.98007e-22
-7.28816e-23
-1.7113e-23
2.52881e-23
-6.71327e-21
7.876e-24
1.3797e-23
1.32208e-22
2.35993e-21
2.69269e-20
1.72579e-19
5.99686e-19
8.42183e-19
5.91682e-19
2.12955e-19
4.21045e-20
5.59217e-21
4.86697e-22
1.19184e-23
-1.88712e-22
-2.9888e-22
-2.4584e-22
-1.43745e-22
-6.14788e-23
-1.89608e-23
-3.53134e-24
2.70531e-24
-3.78559e-21
-1.6477e-22
-4.17846e-23
4.18493e-25
9.64252e-23
1.21895e-21
7.50345e-21
2.40488e-20
2.83266e-20
2.15106e-20
7.7172e-21
1.47661e-21
1.78277e-22
5.34345e-24
-4.94311e-23
-1.25278e-22
-1.29528e-22
-9.14668e-23
-4.63341e-23
-1.69147e-23
-4.33851e-24
-6.51075e-25
1.29557e-25
-1.7932e-21
-2.25851e-22
-7.65212e-23
-2.50999e-23
5.43043e-25
2.61489e-23
2.32055e-22
1.58329e-21
5.55211e-21
1.81417e-21
3.42386e-22
4.35828e-23
2.33221e-24
-6.78998e-24
-4.12881e-23
-5.61128e-23
-4.92377e-23
-2.99489e-23
-1.28316e-23
-3.84226e-24
-7.64427e-25
-7.69953e-26
1.52034e-27
0.998716
0.992952
0.994702
0.995404
0.764937
0.860346
0.962701
0.989118
0.966155
0.960043
0.967407
0.977828
0.966038
0.965483
0.969375
0.976322
0.965335
0.956372
0.805705
0.488407
0.790382
0.151197
0.00109289
0.00519891
0.521764
0.0140734
0.000879358
0.000879358
0.777996
0.777975
0.237579
0.0306525
0.615479
0.7125
0.692972
0.682698
0.000230967
0.0975788
0.480663
0.573473
9.19399e-05
6.27574e-05
5.44427e-05
7.65713e-05
7.54508e-05
5.44376e-05
4.61862e-05
3.4869e-05
0.000433135
0.000113785
4.17615e-05
3.65505e-05
0.000537941
0.00031912
5.70348e-05
7.99842e-05
0.000126378
1.27255e-06
6.49388e-05
1.80427e-05
7.12867e-09
8.55352e-09
1.08131e-06
7.2856e-07
4.24854e-08
8.47925e-09
3.98611e-07
1.2163e-06
7.48337e-08
3.3106e-08
2.32423e-10
7.45364e-07
3.94624e-08
1.1723e-08
1.45543e-12
1.53632e-12
1.39633e-12
1.36143e-12
1.41803e-12
1.46758e-12
1.36143e-12
1.34472e-12
1.72708e-12
2.13826e-12
1.37438e-12
9.25867e-13
7.3586e-13
7.4181e-13
4.49757e-13
2.47463e-13
1.98505e-13
2.06745e-13
1.72437e-13
1.02616e-13
7.86037e-14
7.99867e-14
3.01875e-14
2.84008e-14
2.96278e-14
3.28288e-14
7.3275e-15
8.34104e-15
9.33797e-15
1.13432e-14
1.31805e-15
1.51613e-15
1.87575e-15
2.32808e-15
1.40737e-16
1.73325e-16
2.31017e-16
3.13858e-16
1.48629e-17
2.6948e-17
5.98918e-17
1.22784e-16
8.15433e-18
1.85547e-17
4.55872e-17
9.42197e-17
5.97087e-18
1.29537e-17
2.96545e-17
5.42521e-17
2.78262e-18
5.68281e-18
1.22275e-17
2.0694e-17
7.89041e-19
1.54863e-18
3.18469e-18
5.15103e-18
1.398e-19
2.7462e-19
5.65454e-19
9.12121e-19
2.29505e-20
4.68962e-20
9.92213e-20
1.62847e-19
5.40997e-21
1.12038e-20
2.32178e-20
3.77644e-20
1.61901e-21
3.1798e-21
6.04848e-21
1.01056e-20
4.32032e-22
7.41429e-22
1.42171e-21
3.00203e-21
7.4454e-23
1.16238e-22
3.00288e-22
8.74649e-22
7.13088e-24
1.25377e-23
4.25276e-23
3.21211e-22
4.09201e-25
9.48188e-25
6.2355e-24
4.31588e-22
9.82021e-27
3.27538e-26
9.20273e-25
3.44021e-22
0.990463
0.989558
0.988696
0.946997
0.889406
0.293905
0.0852985
0.136155
0.298949
0.338528
0.139048
0.14728
0.144501
0.00209007
0.00107407
0.0557854
0.0916894
0.0916722
0.019704
0.990421
0.990178
0.945648
0.892794
0.398609
0.114925
0.110379
0.273469
0.275725
0.0277255
0.000284911
0.00109829
0.000530209
0.000246437
0.000272415
0.000578028
0.0916365
0.0917357
0.0196487
0.967563
0.937837
0.928325
0.444678
0.127638
0.125673
0.257315
0.264654
0.0532251
0.000283941
0.000217233
0.000212591
0.000211637
0.000212544
0.000260231
0.000272709
0.0857072
0.0916317
0.0402574
0.956937
0.685929
0.297364
0.111038
0.121736
0.201791
0.201271
0.0296727
0.000368293
0.000216912
0.000211896
0.000212123
0.000212584
0.000212582
0.000212839
0.0150964
0.0812631
0.0907835
0.0593675
0.190334
0.0318248
0.00244603
0.0332314
0.128847
0.126007
0.0123702
0.000577938
0.000230657
0.000211896
0.000211709
0.000211896
0.000212115
0.000212678
0.00021763
0.0314211
0.0801015
0.0403902
0.0351783
0.00367707
0.000931641
0.00102363
0.010562
0.0247956
0.0049283
0.000415311
0.000269148
0.000213451
0.000211709
0.000211709
0.000211709
0.000212494
0.000217288
0.000247672
0.0337912
0.0770503
0.00540532
0.00147533
0.000879358
0.00090056
0.00093164
0.000858489
0.000498024
0.000328579
0.000253481
0.000222538
0.000212584
0.000212146
0.000211709
0.000213528
0.000218459
0.000246003
0.000405742
0.122366
0.0493343
0.000752406
0.000127739
0.021383
0.00625691
0.000858516
0.000498081
0.000329206
0.000253824
0.000224924
0.000216151
0.000213813
0.000212584
0.000213375
0.000226044
0.000248419
0.000403256
0.0552314
0.219369
0.0271584
0.000127753
2.22703e-05
0.54547
0.369568
0.211458
0.0791624
0.00122275
0.000266584
0.000225847
0.000218483
0.000216188
0.000213798
0.00023036
0.000305694
0.000416419
0.00134769
0.271446
0.234964
0.0115415
2.21541e-05
6.34094e-06
0.570205
0.55678
0.55678
0.55678
0.256701
0.061859
0.000267177
0.000226689
0.000217963
0.000235492
0.000390318
0.000859125
0.00225489
0.144143
0.358842
0.141342
6.7711e-05
6.34179e-06
4.53571e-06
0.194343
0.444187
0.547396
0.556769
0.553239
0.482431
0.0718913
0.0124874
0.00365923
0.00802964
0.0430661
0.135223
0.26211
0.38922
0.365723
0.0561456
7.73255e-06
4.53949e-06
4.40358e-06
2.09693e-05
1.05397e-05
0.0959927
0.339498
0.542239
0.543543
0.538484
0.412587
0.278785
0.296313
0.403923
0.403923
0.403923
0.397192
0.0799199
6.25495e-05
4.77853e-06
4.40358e-06
4.40358e-06
1.54526e-05
3.16065e-06
8.70949e-07
8.15028e-07
0.0984451
0.389217
0.531408
0.518019
0.504414
0.47347
0.380189
0.334445
0.249018
0.0313942
2.22099e-06
1.31751e-05
4.6495e-06
4.53214e-06
5.48052e-06
8.25324e-05
4.33717e-06
7.79583e-07
1.68221e-08
1.04824e-08
6.84263e-09
0.0836162
0.160058
0.0646419
9.40284e-11
2.44456e-10
3.64375e-10
2.00514e-09
2.8363e-08
2.92258e-07
2.92669e-06
0.000114347
0.000298077
0.000133245
5.88858e-05
3.05012e-05
1.57245e-06
1.06298e-08
6.84337e-09
4.42623e-09
3.13135e-10
8.54054e-11
8.70249e-11
8.55445e-11
9.40284e-11
2.64722e-10
3.58968e-09
4.27559e-08
4.17798e-07
3.5232e-05
0.000417318
0.000484135
0.000173297
7.31603e-07
1.2763e-05
3.52088e-06
1.0152e-07
7.03265e-08
7.74321e-08
6.03115e-08
7.37336e-09
8.54054e-11
2.24907e-10
2.91723e-10
3.16957e-10
9.12518e-10
1.15619e-08
1.83914e-07
6.62981e-05
0.000464554
0.000470691
1.32819e-06
7.19893e-07
2.06182e-09
1.94363e-07
1.53071e-07
9.39351e-10
6.479e-08
6.62985e-08
1.23277e-08
5.00135e-10
5.88049e-10
6.54121e-10
6.55295e-10
6.93507e-10
2.36482e-09
4.58571e-08
4.2399e-05
0.000354236
9.67608e-05
1.32814e-06
4.06867e-07
3.08129e-12
4.72644e-12
6.75839e-12
7.51657e-12
8.41018e-12
1.31687e-10
1.67529e-09
1.38946e-09
6.74222e-10
6.70007e-10
7.03484e-10
6.18431e-10
4.54813e-10
3.05471e-09
1.88312e-05
0.000158846
1.38602e-06
1.33299e-06
2.05525e-12
2.34082e-12
4.50457e-12
1.31995e-11
2.78561e-11
5.17274e-11
9.65216e-11
2.68442e-10
7.14345e-10
5.88324e-10
5.39403e-10
6.30282e-10
6.25561e-10
4.54817e-10
4.54817e-10
3.05471e-09
0.000112101
1.80484e-06
1.88425e-06
2.33753e-12
1.86611e-11
2.45167e-11
2.46877e-11
4.02385e-11
1.1297e-10
3.18652e-10
3.60702e-10
3.63661e-10
4.25787e-10
4.8084e-10
5.27565e-10
6.41197e-10
5.8744e-10
4.73928e-10
5.04503e-10
7.34796e-05
8.37363e-05
5.5649e-06
4.51263e-12
1.26366e-11
1.67242e-11
1.80783e-11
3.76601e-11
1.23373e-10
3.72625e-10
4.76934e-10
4.09044e-10
4.79254e-10
5.26633e-10
1.48621e-09
1.52901e-09
1.08883e-09
4.93149e-10
4.93149e-10
0.000154858
0.000155408
8.23494e-06
1.09695e-12
2.59782e-12
4.23182e-12
1.17959e-11
3.91289e-11
1.44346e-10
2.83001e-10
2.75563e-10
1.17086e-09
1.50787e-09
3.60465e-08
1.39925e-08
3.42542e-09
1.60292e-09
4.93149e-10
6.87746e-10
0.000177816
0.000137215
2.60634e-06
3.2862e-13
5.86018e-13
1.71096e-12
1.27196e-11
6.30915e-11
1.59519e-10
1.47926e-10
2.02883e-10
2.72813e-07
5.46747e-07
1.76926e-07
1.582e-08
5.4878e-10
1.27804e-09
5.17152e-10
4.42309e-10
0.000177804
9.86804e-06
2.14251e-07
1.18712e-13
2.49374e-13
1.42729e-12
2.01421e-11
7.63681e-11
1.34656e-10
1.35922e-10
4.23881e-07
3.50713e-06
1.71481e-06
8.32341e-08
5.4878e-10
5.34462e-10
7.25704e-10
4.81702e-10
4.62077e-08
9.51049e-05
4.41772e-06
1.85383e-07
4.77034e-14
1.05768e-13
1.32302e-12
2.28462e-11
7.85651e-11
7.98178e-11
1.79198e-08
3.5072e-06
3.89952e-06
6.44064e-07
6.90297e-10
5.29258e-10
5.24879e-10
4.41607e-10
4.41225e-10
5.06203e-10
2.98494e-09
1.71371e-06
1.81032e-07
1.51273e-14
6.14906e-14
1.27574e-12
2.25239e-11
7.1422e-11
6.02354e-11
1.87847e-07
3.9886e-06
3.67904e-06
3.51016e-09
1.05363e-09
6.90297e-10
4.87487e-10
4.41607e-10
5.19768e-07
6.66461e-06
1.08871e-05
8.67925e-06
1.17248e-07
3.32844e-15
5.03974e-14
1.10586e-12
1.56115e-11
4.69896e-11
3.58531e-11
3.24631e-07
3.99019e-06
2.12446e-06
5.63177e-09
2.22889e-07
5.82963e-07
1.16574e-06
1.0886e-05
1.51368e-05
1.52085e-05
1.52079e-05
6.02606e-06
2.12003e-09
9.93272e-16
4.85554e-14
1.00652e-12
1.21589e-11
3.21438e-11
2.30014e-11
2.42286e-07
3.97146e-06
2.43523e-06
1.53239e-08
9.20712e-07
1.01627e-05
1.0854e-05
1.08362e-05
8.6914e-06
1.1496e-05
1.52084e-05
4.31406e-07
1.0565e-09
6.92771e-16
4.79795e-14
9.56432e-13
9.88922e-12
2.97344e-11
2.29205e-11
4.4183e-09
1.30581e-06
3.44707e-06
2.22355e-06
9.44387e-07
4.21071e-06
5.27921e-06
1.16574e-06
1.53212e-06
4.14693e-06
8.95709e-06
2.13441e-07
5.67379e-10
5.82183e-16
4.95852e-14
8.36936e-13
7.10132e-12
2.24133e-11
2.30028e-11
6.56465e-12
6.2363e-12
3.43667e-06
4.07923e-06
3.06228e-06
6.82607e-07
9.30063e-08
9.3044e-08
5.40749e-06
9.9549e-06
2.57026e-06
5.67379e-10
4.86496e-10
5.18474e-16
4.65685e-14
6.05808e-13
3.8072e-12
1.22295e-11
1.69873e-11
1.13669e-11
6.22042e-12
2.17246e-09
3.55972e-06
4.22951e-06
4.22627e-06
1.86226e-06
9.30073e-08
6.52953e-06
9.9719e-06
5.26981e-06
3.43064e-10
1.85462e-10
4.40913e-16
2.55533e-14
2.66374e-13
1.39676e-12
4.45878e-12
9.215e-12
1.06723e-11
6.21566e-12
6.22042e-12
6.45147e-12
1.98511e-06
4.22846e-06
3.69662e-06
2.15599e-07
6.32827e-08
7.86586e-06
2.43023e-06
1.12728e-10
3.72015e-11
2.23996e-16
9.49564e-15
7.77086e-14
3.61974e-13
1.49438e-12
4.91557e-12
7.63499e-12
5.05942e-12
1.47485e-11
1.42094e-10
2.03245e-10
5.37425e-07
2.96486e-07
8.20516e-08
4.82172e-08
5.94859e-10
3.2307e-10
5.55087e-10
3.64073e-11
5.41071e-17
2.24786e-15
1.46634e-14
1.04316e-13
8.10062e-13
3.25087e-12
4.71817e-12
2.79502e-13
3.0699e-10
5.57017e-09
3.97159e-09
1.58114e-09
1.58114e-09
2.08016e-08
4.11283e-07
5.16012e-08
3.1394e-11
2.68865e-11
3.17459e-11
7.17564e-18
3.15923e-16
2.61085e-15
6.15883e-14
6.25915e-13
1.99685e-12
1.78963e-12
1.83589e-30
1.41458e-09
1.13853e-08
1.09994e-08
1.58114e-09
1.6374e-09
2.33405e-06
2.32068e-06
2.4925e-07
2.00809e-11
1.18165e-11
2.0874e-11
1.8535e-18
6.35389e-17
9.78348e-16
4.35934e-14
3.67843e-13
5.79803e-13
2.96962e-13
-2.7488e-14
1.84324e-09
1.13877e-08
8.74272e-09
1.6374e-09
2.005e-06
3.99224e-06
3.44865e-06
9.54412e-08
5.87369e-12
7.74575e-12
7.49934e-12
1.15322e-18
2.18591e-17
4.16333e-16
1.62912e-14
8.34101e-14
6.81139e-14
-4.46029e-14
-2.15173e-13
3.48023e-10
7.22743e-09
6.72363e-10
1.51247e-08
4.02293e-06
4.01533e-06
9.35887e-07
2.80132e-13
3.08018e-15
1.55793e-11
1.94209e-12
6.29038e-19
5.63382e-18
8.2054e-17
2.86031e-15
6.09845e-15
-1.86752e-15
-1.10215e-13
-2.11006e-13
1.07831e-11
-1.46872e-29
0
1.50588e-07
4.02293e-06
2.20462e-06
2.8135e-13
3.07015e-15
2.20607e-15
1.43098e-12
2.35004e-13
2.16251e-19
8.36905e-19
5.46556e-18
1.78826e-16
-8.98754e-16
-7.14612e-15
-8.06813e-14
-1.22751e-13
-5.55413e-14
-1.24597e-14
-1.63079e-15
1.6939e-07
4.0095e-06
1.61248e-11
9.62955e-12
4.32046e-14
2.09037e-15
3.09676e-14
9.99706e-15
4.1281e-20
6.79254e-20
1.21601e-19
6.98967e-19
-1.08041e-15
-4.03895e-15
-3.60234e-14
-4.32503e-14
-1.95863e-14
-4.67303e-15
-6.34365e-16
3.13572e-08
5.61116e-07
1.82727e-08
4.62888e-10
8.11267e-16
6.59681e-16
8.80113e-16
4.40633e-16
3.59162e-21
2.50881e-21
2.47338e-21
-2.6908e-19
-5.27379e-16
-1.3921e-15
-8.49838e-15
-6.88797e-15
-2.39351e-15
-4.69027e-16
-5.39886e-17
-4.23385e-19
-3.40062e-22
2.54472e-08
9.6375e-10
-5.84844e-29
6.00547e-32
-3.80028e-37
-5.22327e-41
1.41902e-22
3.05679e-23
5.28618e-24
-1.47087e-19
-1.25269e-16
-2.39785e-16
-6.69886e-16
-2.11017e-16
-3.44283e-17
-4.56714e-18
-4.56741e-19
-9.66951e-21
-3.59125e-23
-2.243e-18
-4.76739e-19
-1.98067e-20
-3.97252e-22
-3.98589e-24
-1.12584e-26
)
;

boundaryField
{
    leftWall
    {
        type            zeroGradient;
    }
    rightWall
    {
        type            zeroGradient;
    }
    lowerWall
    {
        type            zeroGradient;
    }
    atmosphere
    {
        type            inletOutlet;
        inletValue      uniform 0;
        value           nonuniform List<scalar> 
46
(
-1.7932e-21
-2.25851e-22
-7.65212e-23
-2.50999e-23
5.43043e-25
2.61489e-23
2.32055e-22
1.58329e-21
5.55211e-21
1.81417e-21
3.42386e-22
4.35828e-23
2.33221e-24
-6.78998e-24
-4.12881e-23
-5.61128e-23
-4.92377e-23
-2.99489e-23
-1.28316e-23
-3.84226e-24
-7.64427e-25
-7.69953e-26
1.52034e-27
0
0
0
0
0
0
0
0
0
0
0
0
0
0
0
0
0
0
0
0
0
0
0
)
;
    }
    defaultFaces
    {
        type            empty;
    }
}


// ************************************************************************* //
