/*--------------------------------*- C++ -*----------------------------------*\
| =========                 |                                                 |
| \\      /  F ield         | OpenFOAM: The Open Source CFD Toolbox           |
|  \\    /   O peration     | Version:  2206                                  |
|   \\  /    A nd           | Website:  www.openfoam.com                      |
|    \\/     M anipulation  |                                                 |
\*---------------------------------------------------------------------------*/
FoamFile
{
    version     2.0;
    format      ascii;
    arch        "LSB;label=32;scalar=64";
    class       volScalarField;
    location    "0.95";
    object      p;
}
// * * * * * * * * * * * * * * * * * * * * * * * * * * * * * * * * * * * * * //

dimensions      [1 -1 -2 0 0 0 0];

internalField   nonuniform List<scalar> 
2268
(
882.929
873.758
861.145
845.847
830.666
815.695
800.368
785.538
774.629
767.532
763.009
759.419
754.937
747.101
735.657
725.417
718.777
718.685
726.865
738.767
750.1
760.8
766.434
825.962
816.185
802.424
786.425
771.121
756.553
741.131
725.964
714.978
707.98
703.704
700.382
696.242
689.553
679.874
668.412
658.229
656.798
667.482
680.104
691.335
701.126
707.613
770.794
760.46
744.302
726.169
710.734
696.998
681.508
665.565
654.235
647.297
643.609
641.241
637.909
632.204
623.548
610.882
599.917
598.609
607.747
619.856
632.053
642.443
649.625
716.777
705.368
686.399
665.455
649.558
637.079
621.65
604.404
592.55
585.708
582.957
582.095
579.961
574.487
565.466
552.695
541.99
539.293
546.303
558.127
572.319
584.697
592.934
663.9
650.993
628.93
604.834
588.3
577.225
561.703
542.345
529.851
523.124
521.7
522.973
522.647
517.5
507.256
493.838
482.008
477.396
482.936
495.528
512.867
528.059
538
612.957
598.022
572.25
545.129
527.985
517.791
501.584
479.058
465.893
459.251
459.643
463.958
466.217
461.416
449.036
432.293
418.723
412.974
417.894
431.834
453.476
472.649
484.926
564.517
546.264
516.648
487.437
469.74
458.654
440.686
413.797
399.993
393.317
396.283
405.005
410.916
406.084
390.302
368.531
352.909
346.264
350.321
366.342
393.874
418.764
433.979
518.596
495.71
461.717
431.527
413.777
399.864
377.328
346.279
331.651
324.885
331.935
347.342
358.81
354.021
333.356
304.192
284.565
276.458
281.499
302.151
336.558
368.968
386.403
716.259
683.03
671.486
700.255
674.978
576.982
567.147
560.939
500.514
404.431
329.305
366.933
417.81
409.918
398.543
409.098
434.518
436.651
419.015
661.707
618.322
604.306
633.497
600.188
501.073
505.548
516.321
464.572
352.8
262.892
318.477
368.671
352.035
338.325
349.983
376.782
377.783
363.342
606.971
554.761
543.66
572.895
533.038
428.855
446.185
463.439
412.636
299.438
206.732
258.135
311.184
291.709
285.715
302.821
326.328
327.82
319.864
550.902
492.287
484.244
520.198
488.038
392.878
374.86
364.324
318.055
241.474
163.984
202.561
253.62
251.012
250.201
264.626
281.108
291.796
291.118
495.633
432.747
427.649
480.604
474.188
373.11
277.317
222.377
208.008
188.593
132.973
157.358
202.891
210.382
207.979
208.938
229.794
253.01
259.951
444.68
381.379
375.576
449.466
487.708
343.727
188.693
173.304
174.742
159.308
105.733
117.174
156.522
163.723
140.412
142.029
194.602
216.216
221.511
398.9
340.653
326.802
404.814
485.656
282.286
158.193
161.139
163.288
139.368
78.0378
79.1514
107.89
102.2
79.1179
115.004
168.843
196.223
166.582
357.082
306.233
281.213
336.425
426.449
211.918
145.304
151.933
155.431
113.501
45.7478
47.6814
72.0411
46.4327
51.6804
88.0686
138.326
174.028
126.593
449
415.652
376.733
349.084
332.409
309.567
274.242
233.667
219.223
210.81
226.759
256.347
281.031
282.055
253.366
209.55
194.529
200.354
219.054
247.149
282.169
313.476
323.012
335.343
283.344
255.704
240.077
223.861
210.269
144.17
95.4381
96.4647
102.816
118.349
142.322
174.473
188.112
155.611
133.37
137.955
157.547
181.859
206.835
229.468
240.938
227.4
196.623
93.6838
107.48
116.751
105.178
82.3479
53.5695
54.8548
61.525
58.8544
46.5
48.1919
82.8652
103.46
102.554
102.091
106.601
120.383
138.871
158.672
175.716
166.27
115.448
182.358
55.1377
46.1563
27.2029
27.7263
35.9349
36.0507
39.9266
44.3409
36.3284
21.7939
16.9727
28.4198
48.5462
58.6106
64.7878
68.6167
68.4385
72.2119
86.2516
100.865
63.1068
-7.74403
298.257
152.029
65.5578
30.2364
18.328
19.9874
25.6063
27.3654
29.492
21.8994
13.9711
9.13053
8.97411
11.5386
13.1069
19.7587
26.1209
23.6066
22.4436
26.9826
31.7141
6.18965
-27.7406
282.502
77.0092
26.4408
12.4475
8.62503
7.88578
8.10902
9.23057
10.2026
7.99447
3.44837
1.92817
0.592844
-0.528274
-0.522637
3.49088
8.36657
10.6361
11.5871
12.8802
13.0297
2.00005
2.81943
143.42
21.2363
7.0655
2.5743
0.174598
-0.870491
-1.5315
-1.72405
-1.88361
-2.78147
-2.87703
-1.69
-1.74992
-1.85017
-1.73329
-0.471557
3.04634
5.30297
6.39309
6.64911
8.04527
-0.303767
18.8657
31.0495
4.14636
0.537194
-0.970745
-1.79555
-2.37818
-2.74903
-2.96462
-3.25306
-3.55729
-3.22954
-2.45686
-2.43606
-2.49436
-2.50023
-2.43517
-1.73679
-0.402002
1.52491
1.58227
-0.399855
-0.297329
11.8874
7.13618
-1.05924
-1.23382
-1.9518
-2.47586
-2.85156
-3.06536
-3.17353
-3.24149
-3.22
-3.04785
-2.84843
-2.88282
-2.92609
-2.93263
-3.00109
-3.00921
-2.69163
-2.33708
-1.95056
-2.31078
-3.13997
0.804745
3.90026
-1.99963
-1.93313
-2.53713
-2.94951
-3.25498
-3.40908
-3.47328
-3.48627
-3.42948
-3.3245
-3.27864
-3.3227
-3.33079
-3.29554
-3.24092
-3.18147
-3.17418
-3.15677
-3.06885
-2.91198
-2.71158
-2.50716
2.13706
-2.66169
-2.54416
-3.12253
-3.38867
-3.59365
-3.68571
-3.7195
-3.71985
-3.68271
-3.62897
-3.60934
-3.62193
-3.60267
-3.55026
-3.47723
-3.40262
-3.36091
-3.32733
-3.21912
-3.02807
-2.88434
-2.86313
0.65243
-3.40456
-3.07326
-3.60897
-3.73386
-3.85746
-3.90302
-3.92487
-3.92744
-3.90135
-3.8548
-3.81398
-3.78291
-3.74817
-3.70112
-3.64198
-3.58395
-3.53971
-3.48644
-3.36976
-3.18854
-3.01267
-2.87338
-3.64307
-4.0055
-3.57877
-3.99955
-3.99516
-4.07453
-4.10189
-4.13481
-4.14935
-4.12945
-4.07794
-4.01709
-3.95273
-3.89335
-3.83159
-3.76681
-3.70334
-3.64548
-3.5817
-3.48541
-3.33979
-3.18473
-3.03239
-3.48339
-4.29466
-3.9913
-4.32793
-4.23299
-4.30259
-4.33565
-4.4056
-4.44927
-4.4405
-4.37684
-4.28014
-4.1805
-4.08309
-3.98961
-3.89946
-3.81432
-3.73408
-3.66071
-3.56998
-3.45227
-3.32261
-3.19033
-3.14605
-4.62907
-4.26665
-4.62424
-4.48341
-4.58353
-4.65823
-4.80456
-4.905
-4.91052
-4.81448
-4.65702
-4.4888
-4.32837
-4.18438
-4.05511
-3.93914
-3.83462
-3.73972
-3.64057
-3.53432
-3.42563
-3.31553
-2.22806
-4.83667
-4.46761
-4.9296
-4.76208
-4.94702
-5.12951
-5.42408
-5.63838
-5.67747
-5.5194
-5.2413
-4.93296
-4.65259
-4.42249
-4.23432
-4.07652
-3.94212
-3.82607
-3.71598
-3.60927
-3.50454
-3.40337
-2.95254
-4.99742
-4.69792
-5.25975
-5.09584
-5.4263
-5.81642
-6.38745
-6.83518
-6.94572
-6.66959
-6.1427
-5.56641
-5.07579
-4.70198
-4.42625
-4.21561
-4.04883
-3.91074
-3.78953
-3.67958
-3.57787
-3.48382
8.08942
-4.96547
-5.19008
-5.58315
-5.5006
-6.00231
-6.69074
-7.69485
-8.53453
-8.77632
-8.3354
-7.38535
-6.35963
-5.5617
-4.99588
-4.6074
-4.33794
-4.13946
-3.98274
-3.85322
-3.74165
-3.64272
-3.55399
17.2912
-5.49601
-5.38042
-5.82103
-5.8788
-6.48907
-7.45794
-8.92038
-10.1162
-10.4993
-9.98768
-8.69649
-7.16434
-5.99577
-5.23581
-4.74293
-4.42353
-4.20005
-4.03271
-3.90051
-3.79113
-3.69718
-3.61462
9.34992
-5.90552
-4.99407
-5.79583
-6.07528
-6.69171
-7.81687
-9.4974
-10.9202
-11.3851
-10.8726
-9.51176
-7.70114
-6.25358
-5.34873
-4.79679
-4.45006
-4.21996
-4.05486
-3.92856
-3.82682
-3.74117
-3.66678
1.03048
-3.47058
-3.79417
-5.16168
-5.85779
-6.53291
-7.66443
-9.26697
-10.704
-11.2495
-10.8268
-9.57615
-7.8136
-6.2435
-5.28175
-4.73695
-4.4077
-4.1959
-4.04864
-3.9382
-3.85031
-3.7768
-3.71289
-0.727544
-1.44919
-2.48427
-4.11608
-5.19483
-6.10565
-7.19248
-8.54118
-9.74669
-10.2877
-9.98213
-8.86388
-7.28874
-5.8776
-5.02612
-4.56812
-4.30277
-4.13508
-4.0202
-3.93432
-3.8655
-3.80725
-3.75578
-1.2506
-1.22273
-1.86074
-3.08087
-4.42068
-5.55488
-6.56728
-7.5841
-8.4275
-8.77035
-8.41658
-7.53275
-6.30036
-5.24883
-4.64305
-4.33402
-4.16281
-4.05563
-3.98172
-3.92517
-3.87812
-3.83666
-3.79851
-1.78487
-1.77763
-2.13155
-2.99602
-4.10734
-5.1392
-5.96761
-6.58395
-6.98053
-7.0395
-6.67988
-6.0024
-5.18803
-4.56527
-4.24708
-4.10174
-4.0274
-3.98114
-3.94789
-3.92012
-3.89439
-3.86928
-3.84406
-2.3955
-2.44587
-2.76253
-3.44135
-4.34993
-5.16599
-5.65962
-5.81726
-5.7435
-5.51599
-5.15084
-4.70381
-4.2971
-4.04593
-3.95239
-3.93176
-3.93082
-3.93185
-3.9312
-3.92723
-3.91964
-3.90877
-3.89502
-2.94097
-3.02397
-3.32008
-3.88844
-4.63578
-5.29874
-5.59541
-5.43676
-5.01202
-4.58039
-4.22505
-3.96012
-3.8205
-3.78526
-3.80833
-3.85075
-3.88885
-3.91814
-3.93879
-3.95153
-3.95744
-3.9577
-3.95327
-3.38669
-3.47575
-3.71665
-4.15103
-4.75394
-5.24732
-5.44666
-5.22259
-4.73252
-4.24935
-3.90942
-3.73782
-3.69789
-3.72774
-3.78663
-3.84661
-3.89883
-3.94062
-3.97223
-3.99474
-4.00939
-4.01743
-4.01991
-3.73507
-3.81286
-3.99258
-4.28733
-4.6579
-5.01232
-5.14381
-4.96346
-4.57751
-4.18588
-3.91548
-3.78587
-3.7592
-3.79021
-3.84278
-3.89899
-3.95068
-3.9944
-4.02937
-4.05609
-4.07538
-4.08816
-4.09531
-4.00265
-4.06388
-4.18768
-4.37076
-4.58535
-4.77059
-4.82787
-4.7086
-4.45937
-4.20216
-4.01541
-3.91779
-3.8907
-3.9065
-3.94377
-3.98854
-4.03266
-4.0725
-4.10617
-4.13331
-4.15418
-4.16928
-4.17917
-4.21276
-4.2558
-4.3367
-4.44475
-4.5583
-4.64009
-4.64779
-4.56472
-4.41669
-4.26023
-4.13855
-4.0666
-4.03932
-4.04401
-4.06759
-4.1001
-4.13498
-4.16832
-4.19824
-4.22357
-4.24397
-4.25962
-4.2708
-4.38308
-4.41154
-4.46218
-4.52431
-4.58317
-4.61758
-4.60743
-4.5473
-4.45283
-4.35263
-4.26976
-4.21565
-4.19052
-4.18833
-4.20161
-4.22381
-4.24996
-4.27665
-4.30174
-4.324
-4.34275
-4.35779
-4.36919
-4.52766
-4.54562
-4.576
-4.61038
-4.63973
-4.65222
-4.63787
-4.59428
-4.52988
-4.46166
-4.40287
-4.36147
-4.33899
-4.33295
-4.33925
-4.35365
-4.37252
-4.39309
-4.41332
-4.43213
-4.4486
-4.46236
-4.47326
-4.65647
-4.66729
-4.68465
-4.70242
-4.71548
-4.71713
-4.70235
-4.66919
-4.62452
-4.57679
-4.53428
-4.50237
-4.48296
-4.4753
-4.47721
-4.48602
-4.49919
-4.51458
-4.53055
-4.54587
-4.55986
-4.57198
-4.58197
-4.77611
-4.78223
-4.79155
-4.79964
-4.80388
-4.80042
-4.78613
-4.76118
-4.72899
-4.69476
-4.66351
-4.63888
-4.62259
-4.61466
-4.61399
-4.61896
-4.62785
-4.63908
-4.65133
-4.66357
-4.67516
-4.68552
-4.69436
-4.89068
-4.89387
-4.89846
-4.90108
-4.90073
-4.89503
-4.88248
-4.86327
-4.83955
-4.81445
-4.79114
-4.77208
-4.75865
-4.75115
-4.74909
-4.75151
-4.75729
-4.7653
-4.77451
-4.78412
-4.79345
-4.80209
-4.80971
-5.00269
-5.00423
-5.00601
-5.00589
-5.00334
-4.9971
-4.98642
-4.97155
-4.95381
-4.93515
-4.91761
-4.90285
-4.89192
-4.88519
-4.8825
-4.88332
-4.88689
-4.89244
-4.89922
-4.90657
-4.91397
-4.92103
-4.92745
-5.11374
-5.11439
-5.11465
-5.11328
-5.10996
-5.10407
-5.09526
-5.08376
-5.07043
-5.05649
-5.04325
-5.03186
-5.02309
-5.01729
-5.01446
-5.01431
-5.01636
-5.02009
-5.02496
-5.03048
-5.03623
-5.04189
-5.0472
-5.22472
-5.22487
-5.22445
-5.22268
-5.21939
-5.21431
-5.2073
-5.19854
-5.18858
-5.17823
-5.16833
-5.15966
-5.15276
-5.14795
-5.14528
-5.14461
-5.14567
-5.14809
-5.1515
-5.15555
-5.15992
-5.16435
-5.16865
-5.33603
-5.3359
-5.33531
-5.33365
-5.33082
-5.32677
-5.32144
-5.31498
-5.30775
-5.30026
-5.29305
-5.28663
-5.2814
-5.2776
-5.27531
-5.27446
-5.27489
-5.27639
-5.2787
-5.28157
-5.28478
-5.28813
-5.29148
-5.44784
-5.4476
-5.44709
-5.44578
-5.44365
-5.44072
-5.43698
-5.43254
-5.42761
-5.42251
-5.41757
-5.41312
-5.40943
-5.40666
-5.40488
-5.40408
-5.40419
-5.40505
-5.40652
-5.40844
-5.41065
-5.41302
-5.41544
-5.56
-5.55974
-5.5595
-5.5587
-5.55737
-5.55559
-5.55337
-5.55076
-5.54789
-5.54491
-5.54201
-5.53937
-5.53715
-5.53545
-5.53431
-5.53375
-5.53372
-5.53415
-5.53497
-5.53607
-5.53737
-5.5388
-5.54029
-5.67302
-5.67279
-5.6726
-5.67229
-5.67185
-5.67127
-5.67051
-5.66963
-5.66865
-5.66763
-5.66663
-5.6657
-5.6649
-5.66427
-5.66384
-5.6636
-5.66355
-5.66366
-5.66392
-5.66427
-5.66469
-5.66516
-5.66567
321.815
317.165
310.943
305.695
213.654
202.401
190.118
178.527
90.0504
73.5983
54.588
35.3832
-33.6576
-45.1999
-46.8765
-36.5421
-12.6792
12.7916
65.749
59.7232
28.6627
36.6641
36.5651
36.5287
34.9124
36.4039
36.5899
36.6953
29.3535
20.1903
22.1247
32.2365
29.8863
40.7364
39.2093
19.2833
-1.47809
4.71515
19.9012
23.4734
-2.71096
-2.57809
-2.59084
-1.89282
-2.81842
-2.81855
-2.79805
-2.75483
-2.94337
-2.90575
-2.8811
-2.87525
-3.09704
-3.05777
-3.03281
-3.01026
-3.23268
-3.19024
-3.15783
-3.12933
-3.33533
-3.29495
-3.26072
-3.22936
-3.42112
-3.3835
-3.34902
-3.31724
-3.49571
-3.46048
-3.4274
-3.39638
-3.56068
-3.52799
-3.49709
-3.46784
-3.61827
-3.58878
-3.56078
-3.53413
-3.67106
-3.64554
-3.62115
-3.59778
-3.72159
-3.70059
-3.68029
-3.66065
-3.77233
-3.756
-3.73994
-3.72414
-3.82562
-3.8138
-3.8018
-3.78969
-3.88351
-3.87573
-3.86742
-3.85867
-3.94753
-3.94318
-3.93803
-3.93222
-4.01866
-4.01702
-4.01446
-4.01108
-4.09729
-4.09766
-4.09709
-4.09565
-4.1833
-4.18507
-4.18593
-4.18596
-4.27617
-4.27882
-4.28066
-4.28172
-4.37513
-4.37825
-4.38067
-4.38242
-4.47929
-4.48257
-4.48527
-4.4874
-4.58773
-4.59095
-4.5937
-4.59599
-4.69966
-4.70268
-4.70533
-4.70761
-4.81442
-4.81717
-4.81963
-4.82181
-4.93156
-4.934
-4.93624
-4.93826
-5.05072
-5.05285
-5.05484
-5.05668
-5.1716
-5.17341
-5.17514
-5.17676
-5.29387
-5.29537
-5.29681
-5.2982
-5.41726
-5.41841
-5.41955
-5.42067
-5.54144
-5.54222
-5.54302
-5.54385
-5.66617
-5.66658
-5.66707
-5.66762
291.096
244.513
209.024
202.378
229.369
148.137
132.006
137.028
133.943
71.8851
37.8929
32.4031
38.2866
32.7238
36.1619
43.9008
85.7876
131.106
113.764
162.067
137.172
92.944
43.7129
56.6428
101.519
112.086
103.982
74.9283
39.8374
33.2558
31.1058
31.6091
32.382
32.9109
35.0445
44.8232
109.621
104.607
18.6386
39.2011
34.4179
10.0457
39.5238
85.7436
80.8045
53.3193
35.7872
32.8772
32.0112
32.059
32.219
32.2627
32.3971
33.4243
38.0445
87.9622
94.2303
-4.13224
38.4031
48.3904
32.1671
44.9217
63.8408
41.7511
32.3993
31.456
31.0079
30.8984
31.2703
31.7796
31.8148
31.8789
32.4632
34.297
52.1252
56.9579
46.212
38.1504
36.4277
36.241
40.2916
40.4387
33.1424
31.753
30.9607
30.173
29.9973
30.4711
31.1631
31.2872
31.4236
31.9035
23.3957
15.3696
13.2784
36.9718
37.2473
37.3646
37.4112
37.0709
34.6782
33.3749
32.213
30.8059
29.5869
29.1877
29.8599
30.5699
30.7658
30.9377
30.9297
13.3093
5.17971
5.92251
36.9823
37.5283
37.7522
37.208
36.033
34.9109
33.784
32.47
30.8926
29.5558
29.0553
29.5843
30.2731
30.6133
31.41
26.8714
6.70212
3.83967
4.60024
35.5434
37.7073
37.802
37.1919
36.0563
35.108
33.9501
32.6461
31.2254
30.0216
29.5226
29.8714
30.4374
31.1912
32.7957
16.416
4.61579
3.5232
4.0188
15.6699
21.3899
25.0526
33.1757
35.471
34.8972
33.7655
33.0482
32.1585
31.2456
30.6656
30.6291
30.9883
32.7498
28.6605
4.89669
3.18295
2.92857
3.1189
33.1077
36.8809
30.8006
29.405
21.3193
31.7592
33.3634
33.5601
33.224
32.5949
31.7449
31.1735
30.9984
29.1018
15.4524
1.03939
1.33163
2.0327
2.15111
9.03876
22.3181
24.5767
22.8415
16.353
16.5791
29.7049
33.6937
33.6612
32.3835
29.2203
22.7888
17.2275
19.4316
8.26551
-0.0881897
0.241661
1.09903
1.26709
-2.77016
-2.63077
3.02789
13.5773
13.7512
17.5414
18.4756
15.1284
18.056
17.301
16.1496
15.4047
16.5361
14.9419
2.42645
-1.64299
-0.509964
0.368198
0.569624
-2.88197
-2.85738
-2.87372
-2.77612
3.01487
16.5119
20.2095
24.5539
29.5682
28.696
21.6457
18.8748
13.9466
-0.182519
-1.84789
-1.55993
-0.735393
-0.0954308
0.0372313
-2.96977
-2.94533
-2.9871
-2.87039
-2.90662
-2.79525
2.26835
7.3185
1.80108
-1.9482
-2.16438
-2.08855
-1.93356
-1.92136
-1.91197
-1.54367
-0.962848
-0.504635
-0.4337
-3.08248
-3.03886
-3.02877
-2.94126
-2.97015
-2.81859
-2.78533
-2.66081
-2.48219
-2.32314
-2.23307
-2.1274
-1.99495
-1.87147
-1.80485
-1.68608
-1.36761
-1.04379
-0.998871
-3.18151
-3.12653
-3.08962
-3.02984
-2.99521
-2.89099
-2.87102
-2.73043
-2.57531
-2.43355
-2.33088
-2.21814
-2.10484
-1.99881
-1.9573
-1.94563
-1.79703
-1.53262
-1.43634
-3.26779
-3.20835
-3.15685
-3.10788
-3.05235
-2.97569
-2.90886
-2.80712
-2.68908
-2.5722
-2.4688
-2.36972
-2.27798
-2.19879
-2.15661
-2.18708
-2.14832
-1.9285
-1.78074
-3.34747
-3.28726
-3.23286
-3.17995
-3.12234
-3.0565
-2.98533
-2.8977
-2.80041
-2.70213
-2.60938
-2.52054
-2.43981
-2.37523
-2.34482
-2.38026
-2.40845
-2.26689
-2.08766
-3.42138
-3.36293
-3.30891
-3.25653
-3.2005
-3.13919
-3.07212
-2.99672
-2.91478
-2.8309
-2.74921
-2.67281
-2.60593
-2.55396
-2.5281
-2.54557
-2.58711
-2.52473
-2.35645
-3.4915
-3.43703
-3.38576
-3.33671
-3.28447
-3.22867
-3.16834
-3.10273
-3.03251
-2.9615
-2.89219
-2.82825
-2.77253
-2.72811
-2.70305
-2.69705
-2.70971
-2.68906
-2.57693
-3.56011
-3.51113
-3.46459
-3.41899
-3.37228
-3.32231
-3.26942
-3.21358
-3.15335
-3.09537
-3.03977
-2.9881
-2.94105
-2.89995
-2.86945
-2.84425
-2.82484
-2.81579
-2.7576
-3.62862
-3.58596
-3.54484
-3.50407
-3.46247
-3.41898
-3.37376
-3.32657
-3.27841
-3.23465
-3.19501
-3.15635
-3.11543
-3.07212
-3.03354
-2.99404
-2.95505
-2.95276
-2.91565
-3.69796
-3.66197
-3.62652
-3.59093
-3.55467
-3.51733
-3.47961
-3.44114
-3.40611
-3.38056
-3.35967
-3.33335
-3.29541
-3.24938
-3.19596
-3.14286
-3.08699
-3.0897
-3.0646
-3.76916
-3.73972
-3.70986
-3.67934
-3.64812
-3.61623
-3.58517
-3.55442
-3.53375
-3.52842
-3.52533
-3.50784
-3.46901
-3.41442
-3.34796
-3.28047
-3.22631
-3.22498
-3.21059
-3.84333
-3.82
-3.79535
-3.76945
-3.74256
-3.7149
-3.68801
-3.66409
-3.6533
-3.66379
-3.67097
-3.65818
-3.61878
-3.55576
-3.48034
-3.40559
-3.37227
-3.36533
-3.35913
-3.92143
-3.90357
-3.8836
-3.86179
-3.8385
-3.814
-3.78943
-3.76786
-3.76114
-3.77162
-3.78032
-3.76851
-3.72987
-3.6689
-3.59318
-3.52985
-3.52305
-3.51463
-3.51112
-4.00415
-3.99104
-3.97524
-3.95709
-3.93693
-3.91494
-3.89166
-3.86969
-3.85795
-3.85905
-3.86057
-3.84997
-3.8219
-3.77754
-3.72489
-3.68227
-3.67747
-3.66837
-3.66339
-4.09186
-4.08282
-4.07073
-4.05597
-4.03884
-4.01944
-3.99799
-3.97583
-3.95837
-3.95053
-3.94808
-3.94401
-3.93229
-3.90857
-3.87572
-3.84498
-3.83211
-3.81938
-3.8123
-4.18464
-4.17898
-4.17016
-4.15857
-4.14451
-4.12814
-4.10968
-4.0898
-4.07159
-4.06047
-4.05792
-4.06037
-4.05902
-4.04547
-4.02086
-3.99458
-3.9775
-3.96383
-3.9564
-4.28224
-4.2793
-4.27328
-4.26457
-4.25348
-4.24029
-4.22543
-4.2093
-4.19426
-4.1841
-4.18159
-4.18434
-4.18452
-4.17401
-4.15436
-4.13221
-4.11477
-4.10234
-4.09596
-4.38421
-4.38335
-4.37963
-4.37341
-4.36499
-4.35472
-4.34308
-4.33082
-4.3195
-4.3112
-4.30756
-4.30734
-4.30531
-4.29612
-4.2802
-4.26212
-4.24704
-4.23702
-4.23233
-4.48998
-4.49064
-4.48871
-4.48453
-4.47839
-4.47063
-4.46169
-4.45226
-4.44332
-4.43616
-4.43147
-4.42868
-4.42478
-4.41639
-4.40362
-4.38952
-4.37767
-4.37014
-4.36698
-4.59899
-4.60068
-4.6001
-4.59754
-4.59327
-4.58757
-4.58082
-4.57348
-4.56612
-4.55966
-4.55465
-4.55074
-4.54642
-4.53916
-4.52858
-4.51739
-4.50837
-4.50298
-4.50092
-4.71077
-4.7131
-4.71351
-4.71222
-4.70945
-4.70544
-4.70044
-4.69476
-4.68873
-4.68325
-4.67867
-4.67471
-4.67099
-4.66488
-4.65586
-4.64657
-4.63984
-4.63597
-4.63452
-4.82495
-4.82765
-4.82878
-4.82849
-4.82693
-4.82426
-4.82071
-4.81643
-4.81165
-4.80733
-4.80353
-4.80015
-4.79759
-4.79248
-4.78459
-4.77697
-4.77194
-4.76899
-4.76781
-4.94127
-4.94415
-4.94579
-4.94627
-4.94564
-4.94404
-4.94167
-4.93857
-4.93492
-4.93176
-4.92872
-4.92626
-4.92492
-4.92064
-4.9138
-4.9079
-4.90409
-4.9017
-4.90069
-5.05948
-5.06239
-5.06436
-5.06539
-5.06547
-5.06471
-5.06329
-5.06118
-5.05855
-5.05642
-5.05411
-5.05253
-5.0519
-5.04832
-5.04297
-5.03871
-5.03579
-5.03391
-5.03306
-5.17929
-5.18211
-5.18424
-5.18564
-5.18626
-5.18616
-5.18553
-5.18431
-5.18268
-5.18142
-5.1798
-5.17873
-5.17832
-5.17567
-5.17198
-5.16908
-5.16694
-5.16557
-5.16489
-5.30041
-5.30303
-5.30519
-5.30681
-5.30783
-5.30831
-5.30839
-5.308
-5.30731
-5.30679
-5.30586
-5.30527
-5.3048
-5.30305
-5.30089
-5.29903
-5.29757
-5.29666
-5.29616
-5.4225
-5.42485
-5.42696
-5.42872
-5.43009
-5.4311
-5.43181
-5.43217
-5.43232
-5.43243
-5.43218
-5.43205
-5.43178
-5.43085
-5.4296
-5.4286
-5.42777
-5.42727
-5.42695
-5.54528
-5.54733
-5.54936
-5.55126
-5.55296
-5.55445
-5.55574
-5.55678
-5.55766
-5.55838
-5.55877
-5.55913
-5.55902
-5.55881
-5.55835
-5.55808
-5.55785
-5.55776
-5.5576
-5.66866
-5.67041
-5.67238
-5.67439
-5.67638
-5.6783
-5.68012
-5.68179
-5.68341
-5.68477
-5.68579
-5.68666
-5.68654
-5.68697
-5.68729
-5.68778
-5.68823
-5.68861
-5.68853
)
;

boundaryField
{
    leftWall
    {
        type            calculated;
        value           nonuniform List<scalar> 
50
(
882.929
825.962
770.794
716.777
663.9
612.957
564.517
518.596
449
335.343
196.623
182.358
298.257
282.502
143.42
31.0495
7.13618
3.90026
2.13706
0.65243
-3.64307
-3.48339
-3.14605
-2.22806
-2.95254
8.08942
17.2912
9.34992
1.03048
-0.727544
-1.2506
-1.78487
-2.3955
-2.94097
-3.38669
-3.73507
-4.00265
-4.21276
-4.38308
-4.52766
-4.65647
-4.77611
-4.89068
-5.00269
-5.11374
-5.22472
-5.33603
-5.44784
-5.56
-5.67302
)
;
    }
    rightWall
    {
        type            calculated;
        value           nonuniform List<scalar> 
50
(
419.015
363.342
319.864
291.118
259.951
221.511
166.582
126.593
113.764
104.607
94.2303
56.9579
13.2784
5.92251
4.60024
4.0188
3.1189
2.15111
1.26709
0.569624
0.0372313
-0.4337
-0.998871
-1.43634
-1.78074
-2.08766
-2.35645
-2.57693
-2.7576
-2.91565
-3.0646
-3.21059
-3.35913
-3.51112
-3.66339
-3.8123
-3.9564
-4.09596
-4.23233
-4.36698
-4.50092
-4.63452
-4.76781
-4.90069
-5.03306
-5.16489
-5.29616
-5.42695
-5.5576
-5.68853
)
;
    }
    lowerWall
    {
        type            calculated;
        value           nonuniform List<scalar> 
62
(
912.358
903.188
890.575
875.276
860.095
845.124
829.797
814.968
804.058
796.961
792.438
788.848
784.366
776.503
764.377
753.66
747.909
747.817
755.767
767.505
779.177
790.179
795.863
766.434
707.613
649.625
592.934
538
484.926
433.979
386.403
384.332
379.322
373.209
368.004
716.259
661.707
606.971
550.902
495.633
444.68
398.9
357.082
745.129
711.907
700.366
729.257
704.037
606.041
596.025
589
523.89
427.792
349.338
386.109
440.694
435.727
424.352
434.907
460.314
462.414
444.758
)
;
    }
    atmosphere
    {
        type            calculated;
        value           nonuniform List<scalar> 
46
(
-5.72904
-5.72904
-5.72904
-5.72904
-5.72904
-5.72904
-5.72904
-5.72904
-5.72904
-5.72904
-5.72904
-5.72904
-5.72904
-5.72904
-5.72904
-5.72904
-5.72904
-5.72904
-5.72904
-5.72904
-5.72904
-5.72904
-5.72904
-5.72909
-5.72923
-5.72947
-5.72983
-5.73068
-5.73227
-5.73422
-5.73622
-5.73833
-5.74043
-5.74253
-5.7445
-5.74657
-5.74828
-5.74962
-5.75087
-5.75037
-5.75117
-5.75191
-5.75291
-5.75379
-5.75452
-5.75434
)
;
    }
    defaultFaces
    {
        type            empty;
    }
}


// ************************************************************************* //
