/*--------------------------------*- C++ -*----------------------------------*\
| =========                 |                                                 |
| \\      /  F ield         | OpenFOAM: The Open Source CFD Toolbox           |
|  \\    /   O peration     | Version:  2206                                  |
|   \\  /    A nd           | Website:  www.openfoam.com                      |
|    \\/     M anipulation  |                                                 |
\*---------------------------------------------------------------------------*/
FoamFile
{
    version     2.0;
    format      ascii;
    arch        "LSB;label=32;scalar=64";
    class       volVectorField;
    location    "0.95";
    object      U;
}
// * * * * * * * * * * * * * * * * * * * * * * * * * * * * * * * * * * * * * //

dimensions      [0 1 -1 0 0 0 0];

internalField   nonuniform List<vector> 
2268
(
(0.0226659 -0.0174312 0)
(0.0461143 -0.00674363 0)
(0.0216786 0.00976176 0)
(-0.0378125 0.0164394 0)
(-0.0698037 0.00731347 0)
(-0.0527677 -0.00371574 0)
(-0.0283625 -0.00330264 0)
(-0.0239429 0.00149008 0)
(-0.0367816 0.0048532 0)
(-0.0609893 0.00731494 0)
(-0.0928134 0.00834343 0)
(-0.126896 0.00568458 0)
(-0.149183 -0.00253102 0)
(-0.148442 -0.0115365 0)
(-0.140989 -0.0060584 0)
(-0.172348 0.0164165 0)
(-0.255846 0.0261591 0)
(-0.303836 0.00984428 0)
(-0.259789 -0.0138895 0)
(-0.194731 -0.0209888 0)
(-0.140924 -0.0199978 0)
(-0.0833001 -0.0214826 0)
(-0.0256991 -0.0167619 0)
(-0.0110794 -0.0162141 0)
(-0.040322 0.00887668 0)
(-0.0818828 0.0302279 0)
(-0.112114 0.0266197 0)
(-0.0973594 0.000661146 0)
(-0.0624065 -0.0173492 0)
(-0.0356821 -0.011431 0)
(-0.0264101 0.00333953 0)
(-0.0394685 0.0140398 0)
(-0.0644852 0.0208444 0)
(-0.0956383 0.0244139 0)
(-0.129045 0.0223019 0)
(-0.161128 0.0131533 0)
(-0.196911 0.00579528 0)
(-0.241054 0.0180902 0)
(-0.278837 0.037806 0)
(-0.284955 0.0302528 0)
(-0.21988 -0.00771647 0)
(-0.1386 -0.0396628 0)
(-0.0975542 -0.0402348 0)
(-0.0692229 -0.0341041 0)
(-0.0443897 -0.0399555 0)
(-0.00973678 -0.0369721 0)
(-0.02568 0.00416453 0)
(-0.0730345 0.0284735 0)
(-0.113319 0.0420546 0)
(-0.123349 0.02515 0)
(-0.104767 -0.0132592 0)
(-0.0738382 -0.0348904 0)
(-0.0435405 -0.0223661 0)
(-0.03221 0.00376063 0)
(-0.0419214 0.0225332 0)
(-0.0629653 0.0330255 0)
(-0.0872455 0.0378112 0)
(-0.111081 0.0364738 0)
(-0.135287 0.0302934 0)
(-0.164234 0.0255598 0)
(-0.194 0.0302376 0)
(-0.201735 0.0303465 0)
(-0.159315 -0.00014966 0)
(-0.0850522 -0.0459297 0)
(-0.044233 -0.0648969 0)
(-0.0309302 -0.0544564 0)
(-0.00989965 -0.0402776 0)
(-0.0187508 -0.0444972 0)
(0.00433546 -0.0431833 0)
(-0.0230885 0.0256455 0)
(-0.0633132 0.0474367 0)
(-0.0988182 0.0523285 0)
(-0.111017 0.0259298 0)
(-0.098787 -0.0228732 0)
(-0.06931 -0.0519129 0)
(-0.0459217 -0.0331164 0)
(-0.0385561 0.00387812 0)
(-0.0491873 0.0301544 0)
(-0.0710701 0.0440295 0)
(-0.0960386 0.0489661 0)
(-0.11823 0.0458592 0)
(-0.134185 0.0382457 0)
(-0.140976 0.0326633 0)
(-0.132302 0.030738 0)
(-0.102144 0.0179187 0)
(-0.0541419 -0.0177652 0)
(-0.0208502 -0.0544748 0)
(-0.0134609 -0.0659875 0)
(-0.0179261 -0.0567811 0)
(-0.00167511 -0.0401085 0)
(-0.0189132 -0.0451842 0)
(0.00466344 -0.044461 0)
(-0.0109987 0.040711 0)
(-0.0332939 0.0627739 0)
(-0.0640815 0.0630386 0)
(-0.0799315 0.0293578 0)
(-0.0689721 -0.0309476 0)
(-0.046489 -0.0644171 0)
(-0.0382492 -0.0386896 0)
(-0.0407886 0.00706632 0)
(-0.0565169 0.0391337 0)
(-0.0811829 0.056102 0)
(-0.109415 0.0611589 0)
(-0.135127 0.0548402 0)
(-0.150814 0.0410055 0)
(-0.148372 0.0266468 0)
(-0.122185 0.0137259 0)
(-0.0798701 -0.00618983 0)
(-0.041364 -0.03645 0)
(-0.019972 -0.0621531 0)
(-0.0100804 -0.0675672 0)
(-0.0102127 -0.0584033 0)
(-0.00388755 -0.0381846 0)
(-0.0208464 -0.0459356 0)
(-0.000577693 -0.0494956 0)
(0.00616123 0.0456903 0)
(0.00696367 0.0720751 0)
(-0.0162515 0.0729516 0)
(-0.0317427 0.0335762 0)
(-0.0209959 -0.0358508 0)
(-0.00557841 -0.0706041 0)
(-0.0214907 -0.0374491 0)
(-0.0353148 0.0152708 0)
(-0.0575356 0.0512026 0)
(-0.0839506 0.0708772 0)
(-0.114278 0.0765831 0)
(-0.14468 0.0669809 0)
(-0.164545 0.045395 0)
(-0.16355 0.0202178 0)
(-0.137498 -0.00262607 0)
(-0.0951648 -0.0257866 0)
(-0.0513881 -0.0522881 0)
(-0.016501 -0.0735236 0)
(0.00614117 -0.0741147 0)
(0.0140454 -0.06009 0)
(0.0129527 -0.0372223 0)
(-0.00746148 -0.0462273 0)
(-0.00449272 -0.0546816 0)
(0.0273358 0.0342563 0)
(0.0531785 0.0742982 0)
(0.0387229 0.0812744 0)
(0.0228148 0.0378907 0)
(0.0466001 -0.0393247 0)
(0.0505306 -0.0683708 0)
(0.00487351 -0.0274275 0)
(-0.0110327 0.0270434 0)
(-0.0330279 0.0619784 0)
(-0.0593162 0.0818329 0)
(-0.0929274 0.0898765 0)
(-0.130514 0.0773431 0)
(-0.157963 0.0468557 0)
(-0.161703 0.00971112 0)
(-0.135714 -0.024012 0)
(-0.0883251 -0.0533027 0)
(-0.0409113 -0.0767763 0)
(-0.00488701 -0.0882992 0)
(0.0235259 -0.0807139 0)
(0.0407029 -0.0583136 0)
(0.0395636 -0.029726 0)
(0.0139915 -0.0429842 0)
(-0.00140968 -0.0600174 0)
(0.0512415 0.00545519 0)
(0.100344 0.0690582 0)
(0.0943066 0.0854649 0)
(0.0909101 0.0314537 0)
(0.128989 -0.05035 0)
(0.0938914 -0.0564624 0)
(0.0381269 -0.00922338 0)
(0.0334753 0.0347101 0)
(0.00908399 0.0773178 0)
(-0.028889 0.105551 0)
(-0.0718619 0.11917 0)
(-0.114571 0.106256 0)
(-0.145764 0.0679444 0)
(-0.152742 0.0141801 0)
(-0.126943 -0.0396731 0)
(-0.0863127 -0.0702492 0)
(-0.0528715 -0.0870353 0)
(-0.019643 -0.10151 0)
(0.0163445 -0.102736 0)
(0.0407845 -0.073547 0)
(0.0494644 -0.0226256 0)
(0.0283376 -0.0198162 0)
(0.00975602 -0.054079 0)
(0.0728523 -0.00191356 0)
(-0.2021 0.0439778 0)
(-0.276413 -0.0101045 0)
(-0.0729207 -0.0728954 0)
(0.167136 -0.07129 0)
(0.335718 0.00363131 0)
(0.274316 0.0230823 0)
(0.0530014 0.0136486 0)
(0.109366 -0.0314317 0)
(0.260602 -0.0592676 0)
(0.385476 0.0173715 0)
(0.130402 0.0622805 0)
(-0.213159 0.0501711 0)
(-0.35975 0.0481643 0)
(-0.490606 0.0409497 0)
(-0.436997 -0.00427846 0)
(-0.246481 -0.0407173 0)
(-0.067532 -0.0304837 0)
(0.0427679 -0.00185651 0)
(-0.0418494 0.0531457 0)
(-0.264202 0.0967824 0)
(-0.2066 -0.0245839 0)
(-0.0772785 -0.149803 0)
(0.0953004 -0.164334 0)
(0.235599 -0.00219322 0)
(0.227648 0.0798808 0)
(-0.0772893 0.0564725 0)
(-0.074869 -0.0412357 0)
(-0.0853577 -0.0721057 0)
(0.172776 0.0622373 0)
(0.0923173 0.173218 0)
(-0.345394 0.146307 0)
(-0.504228 0.0708915 0)
(-0.497739 -0.00997797 0)
(-0.334299 -0.0946811 0)
(-0.184032 -0.136479 0)
(-0.0402706 -0.112856 0)
(0.122596 -0.00842824 0)
(-0.0839229 0.109742 0)
(-0.228501 0.127696 0)
(-0.172995 -0.0542387 0)
(-0.0574385 -0.213716 0)
(0.0339247 -0.217256 0)
(0.0301002 -0.0067892 0)
(-0.0949405 0.173081 0)
(-0.516046 0.154803 0)
(-0.571128 -0.0489587 0)
(-0.428507 -0.159417 0)
(-0.187138 0.00692347 0)
(-0.0346818 0.251484 0)
(-0.32709 0.237504 0)
(-0.404083 0.107091 0)
(-0.363728 -0.0131899 0)
(-0.303849 -0.11636 0)
(-0.237303 -0.175273 0)
(-0.0910059 -0.169454 0)
(0.114142 0.0376419 0)
(-0.0762943 0.16011 0)
(-0.167246 0.147496 0)
(-0.137138 -0.081487 0)
(-0.0323979 -0.254384 0)
(-0.0345106 -0.20685 0)
(-0.248605 0.104037 0)
(-0.575016 0.32229 0)
(-0.874148 0.193651 0)
(-0.751855 -0.138006 0)
(-0.638427 -0.260722 0)
(-0.450519 -0.0562677 0)
(-0.202743 0.255671 0)
(-0.277826 0.28323 0)
(-0.315047 0.110609 0)
(-0.328856 -0.0314914 0)
(-0.37567 -0.111452 0)
(-0.357243 -0.226211 0)
(-0.164759 -0.235892 0)
(0.0260007 0.0144145 0)
(-0.0429269 0.195405 0)
(-0.0901515 0.162363 0)
(-0.0572138 -0.0975094 0)
(0.00126585 -0.258405 0)
(-0.107703 -0.126452 0)
(-0.528099 0.261758 0)
(-0.863305 0.393618 0)
(-0.893307 0.133085 0)
(-0.668256 -0.197892 0)
(-0.665764 -0.312446 0)
(-0.61386 -0.129679 0)
(-0.388465 0.195076 0)
(-0.276952 0.278479 0)
(-0.310915 0.131876 0)
(-0.400506 0.0226727 0)
(-0.544669 -0.105137 0)
(-0.583516 -0.286953 0)
(-0.214746 -0.33063 0)
(0.0454597 -0.0182588 0)
(0.00495864 0.210422 0)
(0.00447125 0.168115 0)
(0.0692353 -0.103756 0)
(0.0659404 -0.224079 0)
(-0.132281 0.00801713 0)
(-0.722162 0.429095 0)
(-0.942433 0.463972 0)
(-0.619384 0.163767 0)
(-0.39236 -0.166839 0)
(-0.584239 -0.283323 0)
(-0.666649 -0.154892 0)
(-0.564701 0.114306 0)
(-0.383546 0.234892 0)
(-0.406915 0.160939 0)
(-0.636259 0.0644846 0)
(-1.04396 -0.084883 0)
(-0.946447 -0.355961 0)
(-0.221568 -0.516629 0)
(0.106051 -0.0509372 0)
(0.0510566 0.189507 0)
(0.108636 0.159501 0)
(0.190202 -0.104098 0)
(0.17139 -0.180617 0)
(-0.0229515 0.166614 0)
(-0.69204 0.569435 0)
(-0.778615 0.428973 0)
(-0.364741 0.046587 0)
(-0.358249 -0.208757 0)
(-0.603758 -0.222711 0)
(-0.695097 -0.125341 0)
(-0.674609 0.0957364 0)
(-0.533878 0.190533 0)
(-0.583051 0.201405 0)
(-1.18038 0.242734 0)
(-1.86905 0.175904 0)
(-0.626252 -0.715738 0)
(-0.161291 -0.74628 0)
(0.0831669 -0.0672994 0)
(0.0853426 0.133489 0)
(0.194674 0.122705 0)
(0.295609 -0.104714 0)
(0.271476 -0.150157 0)
(0.140448 0.264716 0)
(-0.435608 0.727105 0)
(-0.520219 0.397735 0)
(-0.0842456 -0.0800126 0)
(-0.381945 -0.133832 0)
(-0.73522 -0.15485 0)
(-0.797702 -0.113899 0)
(-0.717746 0.0536018 0)
(-0.81994 0.209363 0)
(-1.25285 0.395118 0)
(-1.90486 0.461448 0)
(-1.38143 -0.230823 0)
(-0.381313 -1.13414 0)
(-0.172474 -0.93886 0)
(0.0049632 -0.0732027 0)
(0.104243 -0.0588689 0)
(0.203706 0.0593054 0)
(0.205132 0.0995861 0)
(0.196813 0.0447675 0)
(0.166587 -0.0144983 0)
(0.0706444 -0.0203277 0)
(0.0482244 -0.0107743 0)
(0.0237076 0.0451045 0)
(-0.076025 0.0794599 0)
(-0.172852 0.0975006 0)
(-0.223096 0.107027 0)
(-0.248797 0.0920138 0)
(-0.260942 0.0521162 0)
(-0.261441 -0.00223831 0)
(-0.247323 -0.0453818 0)
(-0.2198 -0.0785024 0)
(-0.188933 -0.113701 0)
(-0.180111 -0.138072 0)
(-0.199267 -0.125203 0)
(-0.204491 -0.0762177 0)
(-0.130772 -0.0341516 0)
(-0.0188573 -0.0203583 0)
(0.0236656 -0.00609522 0)
(0.0597103 -0.298709 0)
(0.260062 -0.0153943 0)
(0.301342 0.11063 0)
(0.27107 0.0747427 0)
(0.205976 0.050315 0)
(0.102289 0.0550717 0)
(-0.0808243 0.0406828 0)
(-0.17471 0.142901 0)
(-0.270683 0.230334 0)
(-0.535979 0.24375 0)
(-0.698881 0.235789 0)
(-0.770543 0.176097 0)
(-0.788863 0.103458 0)
(-0.75278 4.51885e-05 0)
(-0.672178 -0.114455 0)
(-0.600203 -0.143642 0)
(-0.629137 -0.0868427 0)
(-0.780522 -0.0267127 0)
(-0.881734 -0.0110568 0)
(-0.835086 -0.114726 0)
(-0.640599 -0.235043 0)
(-0.353803 -0.231327 0)
(-0.102968 -0.145758 0)
(-0.0544226 -0.518517 0)
(0.19421 -0.196193 0)
(0.158882 0.0350043 0)
(0.12306 0.100303 0)
(0.00261627 0.183972 0)
(-0.130648 0.183662 0)
(-0.254913 0.190512 0)
(-0.580686 0.388685 0)
(-0.84574 0.533878 0)
(-1.20828 0.502237 0)
(-1.3435 0.284111 0)
(-1.39888 0.13958 0)
(-1.39885 0.0204543 0)
(-1.29318 -0.156622 0)
(-1.14579 -0.250435 0)
(-1.05681 -0.0973524 0)
(-1.06313 0.0795024 0)
(-1.10489 0.0570284 0)
(-1.01691 -0.147475 0)
(-0.841453 -0.332088 0)
(-0.640015 -0.452986 0)
(-0.449301 -0.49396 0)
(-0.287046 -0.409558 0)
(-0.17802 -0.429187 0)
(-0.213292 -0.0355143 0)
(-0.403227 0.190793 0)
(-0.468352 0.263378 0)
(-0.471784 0.310649 0)
(-0.619823 0.387292 0)
(-1.03589 0.635769 0)
(-0.99417 0.704481 0)
(-1.07122 0.753053 0)
(-1.08662 0.668391 0)
(-1.18601 0.491277 0)
(-1.49188 0.335323 0)
(-1.51844 -0.00762872 0)
(-1.34779 -0.319857 0)
(-1.2551 -0.372019 0)
(-1.19791 -0.217913 0)
(-1.13012 -0.0210716 0)
(-1.06775 -0.0562049 0)
(-1.00017 -0.256377 0)
(-0.879073 -0.441835 0)
(-0.711911 -0.623591 0)
(-0.595696 -0.655379 0)
(-0.5304 -0.501863 0)
(-0.306009 -0.0862591 0)
(-0.643402 0.216298 0)
(-1.00708 0.265427 0)
(-1.30488 0.291406 0)
(-1.62335 0.443086 0)
(-1.47537 0.508372 0)
(-1.42304 0.529839 0)
(-1.162 0.587876 0)
(-0.96068 0.589974 0)
(-0.778625 0.608022 0)
(-0.708106 0.720212 0)
(-0.947921 0.699733 0)
(-1.30109 -0.0939957 0)
(-1.35934 -0.394988 0)
(-1.38607 -0.420762 0)
(-1.30355 -0.237006 0)
(-1.19799 -0.0848042 0)
(-1.15063 -0.107423 0)
(-1.18077 -0.330583 0)
(-1.0976 -0.668759 0)
(-0.904975 -0.855884 0)
(-0.827525 -0.723697 0)
(-0.821624 -0.438321 0)
(-0.275186 0.313523 0)
(-0.691398 0.608565 0)
(-1.19616 0.679358 0)
(-1.64098 0.622622 0)
(-1.74723 0.357912 0)
(-1.66841 0.283034 0)
(-1.49548 0.242825 0)
(-1.32176 0.220269 0)
(-1.15815 0.247907 0)
(-1.01953 0.337044 0)
(-0.960745 0.541826 0)
(-0.933155 0.903257 0)
(-1.22332 0.270675 0)
(-1.59928 -0.269026 0)
(-1.62634 -0.44051 0)
(-1.50004 -0.381386 0)
(-1.37389 -0.17392 0)
(-1.25688 -0.0744079 0)
(-1.19011 -0.285538 0)
(-1.12024 -0.670825 0)
(-1.01294 -0.921803 0)
(-0.969655 -0.731321 0)
(-0.965372 -0.34219 0)
(-0.209418 0.639973 0)
(-0.437924 1.09495 0)
(-1.10065 1.42647 0)
(-1.43484 0.924735 0)
(-1.63736 0.346192 0)
(-1.65112 0.20029 0)
(-1.54461 0.210603 0)
(-1.44388 0.241563 0)
(-1.36132 0.277077 0)
(-1.3179 0.380446 0)
(-1.30509 0.642389 0)
(-1.33832 1.04824 0)
(-1.35809 0.70195 0)
(-1.45996 -0.0811407 0)
(-1.44782 -0.4576 0)
(-1.38064 -0.506507 0)
(-1.29207 -0.354453 0)
(-1.21571 -0.239661 0)
(-1.20628 -0.349139 0)
(-1.14255 -0.763129 0)
(-1.04581 -0.99729 0)
(-1.018 -0.775325 0)
(-0.949389 -0.326291 0)
(-0.213416 0.842587 0)
(-0.198742 1.56538 0)
(-0.809271 2.1324 0)
(-1.04158 1.40252 0)
(-1.32264 0.614018 0)
(-1.58213 0.207526 0)
(-1.75192 0.111375 0)
(-1.81192 0.130308 0)
(-1.81468 0.198075 0)
(-1.78996 0.404221 0)
(-1.68545 0.746297 0)
(-1.56119 0.966459 0)
(-1.36764 0.545667 0)
(-1.2638 -0.079013 0)
(-1.29586 -0.401896 0)
(-1.32177 -0.536841 0)
(-1.31579 -0.412335 0)
(-1.3088 -0.259515 0)
(-1.24654 -0.433959 0)
(-1.09292 -0.872446 0)
(-0.996683 -1.06231 0)
(-1.06412 -0.817675 0)
(-0.979535 -0.421344 0)
(-0.253178 0.955919 0)
(-0.111823 2.0304 0)
(-0.704704 2.39162 0)
(-0.780187 1.55641 0)
(-1.07577 0.905368 0)
(-1.3505 0.545845 0)
(-1.5511 0.352974 0)
(-1.69654 0.229315 0)
(-1.81631 0.154765 0)
(-1.85873 0.213541 0)
(-1.7413 0.444852 0)
(-1.48356 0.555548 0)
(-1.23479 0.25338 0)
(-1.15247 -0.122586 0)
(-1.19843 -0.353414 0)
(-1.2953 -0.44659 0)
(-1.3764 -0.329316 0)
(-1.26203 -0.333848 0)
(-1.07075 -0.755866 0)
(-0.993046 -1.02406 0)
(-0.974882 -1.02865 0)
(-1.14454 -0.737712 0)
(-1.09388 -0.59339 0)
(-0.315551 1.05326 0)
(-0.0183948 2.39765 0)
(-0.653883 2.46265 0)
(-0.582782 1.67527 0)
(-0.824974 1.10351 0)
(-0.981316 0.748041 0)
(-1.08224 0.510878 0)
(-1.16973 0.368446 0)
(-1.27431 0.289406 0)
(-1.35052 0.278814 0)
(-1.31927 0.323567 0)
(-1.16673 0.302899 0)
(-1.01731 0.109965 0)
(-0.974116 -0.137451 0)
(-1.00624 -0.330028 0)
(-1.05996 -0.427039 0)
(-1.06203 -0.408667 0)
(-0.97966 -0.365531 0)
(-0.886916 -0.56934 0)
(-0.912221 -0.978902 0)
(-0.99551 -0.976551 0)
(-0.961615 -0.775286 0)
(-0.957378 -0.677404 0)
(-0.397477 1.15511 0)
(0.121593 2.67887 0)
(-0.597858 2.53418 0)
(-0.402708 1.80747 0)
(-0.60607 1.23646 0)
(-0.638591 0.836991 0)
(-0.662248 0.567877 0)
(-0.70495 0.435292 0)
(-0.76399 0.369147 0)
(-0.796775 0.333657 0)
(-0.768276 0.311474 0)
(-0.678415 0.247106 0)
(-0.589439 0.10226 0)
(-0.557492 -0.0838126 0)
(-0.583459 -0.254609 0)
(-0.637102 -0.376997 0)
(-0.67172 -0.454723 0)
(-0.662086 -0.546026 0)
(-0.658834 -0.70311 0)
(-0.738089 -0.883198 0)
(-0.842513 -0.967384 0)
(-0.843645 -0.848776 0)
(-0.724856 -0.568668 0)
(-0.479351 1.22507 0)
(0.32024 2.92116 0)
(-0.552563 2.61737 0)
(-0.241799 1.8996 0)
(-0.444934 1.28956 0)
(-0.394445 0.858973 0)
(-0.430932 0.588109 0)
(-0.495839 0.478843 0)
(-0.551965 0.407581 0)
(-0.564303 0.334879 0)
(-0.523759 0.254687 0)
(-0.441776 0.150662 0)
(-0.354954 0.0216492 0)
(-0.292028 -0.101925 0)
(-0.261449 -0.209414 0)
(-0.259837 -0.301628 0)
(-0.2793 -0.380931 0)
(-0.30184 -0.479186 0)
(-0.336672 -0.62618 0)
(-0.421987 -0.781732 0)
(-0.533432 -0.866544 0)
(-0.610081 -0.888469 0)
(-0.575336 -0.858705 0)
(-0.529896 1.20017 0)
(0.230262 3.09666 0)
(-0.532498 2.68297 0)
(-0.127056 1.94208 0)
(-0.353069 1.28934 0)
(-0.267839 0.877571 0)
(-0.403834 0.652563 0)
(-0.526067 0.557919 0)
(-0.612566 0.449483 0)
(-0.636449 0.321694 0)
(-0.600778 0.187715 0)
(-0.521324 0.0522213 0)
(-0.422776 -0.0763938 0)
(-0.324534 -0.191727 0)
(-0.239459 -0.282382 0)
(-0.168845 -0.345735 0)
(-0.113889 -0.395324 0)
(-0.0807704 -0.460048 0)
(-0.086462 -0.551373 0)
(-0.143174 -0.671248 0)
(-0.224898 -0.760379 0)
(-0.306934 -0.795817 0)
(-0.344989 -0.807948 0)
(-0.62708 1.3683 0)
(0.226065 3.17615 0)
(-0.504745 2.70095 0)
(-0.044934 1.95962 0)
(-0.323623 1.29039 0)
(-0.264191 0.964569 0)
(-0.519151 0.806176 0)
(-0.694785 0.695619 0)
(-0.82206 0.527042 0)
(-0.859924 0.328675 0)
(-0.81659 0.129908 0)
(-0.711598 -0.0459182 0)
(-0.575396 -0.191703 0)
(-0.439761 -0.305103 0)
(-0.315114 -0.385797 0)
(-0.204209 -0.43845 0)
(-0.108081 -0.47456 0)
(-0.0368337 -0.517091 0)
(0.00653519 -0.569064 0)
(0.00336068 -0.631568 0)
(-0.0306606 -0.695701 0)
(-0.0964203 -0.743273 0)
(-0.143904 -0.761356 0)
(-0.732439 1.5919 0)
(0.284642 3.19627 0)
(-0.483366 2.67769 0)
(0.042577 1.98632 0)
(-0.335755 1.35056 0)
(-0.34597 1.14539 0)
(-0.700378 1.03092 0)
(-0.942771 0.878854 0)
(-1.12403 0.632987 0)
(-1.17232 0.338079 0)
(-1.10088 0.0502647 0)
(-0.941592 -0.185225 0)
(-0.742366 -0.349197 0)
(-0.550824 -0.456149 0)
(-0.385539 -0.523687 0)
(-0.248559 -0.563206 0)
(-0.13393 -0.582939 0)
(-0.0369392 -0.592514 0)
(0.032806 -0.607097 0)
(0.0688837 -0.631486 0)
(0.0698286 -0.665786 0)
(0.0366038 -0.690707 0)
(-0.00693904 -0.712723 0)
(-0.798982 1.70865 0)
(0.49746 3.18907 0)
(-0.486134 2.66937 0)
(0.145748 2.03709 0)
(-0.365826 1.50242 0)
(-0.451865 1.41717 0)
(-0.893061 1.34132 0)
(-1.20934 1.14365 0)
(-1.43308 0.777839 0)
(-1.48835 0.325646 0)
(-1.40066 -0.100299 0)
(-1.19273 -0.424475 0)
(-0.917555 -0.601698 0)
(-0.647773 -0.673215 0)
(-0.427931 -0.695331 0)
(-0.261238 -0.698017 0)
(-0.138874 -0.693929 0)
(-0.0472236 -0.688264 0)
(0.0234163 -0.679616 0)
(0.0749503 -0.670537 0)
(0.101922 -0.665455 0)
(0.103479 -0.667155 0)
(0.0788569 -0.673206 0)
(-0.839947 1.76737 0)
(0.730689 3.1308 0)
(-0.500525 2.74749 0)
(0.226773 2.10369 0)
(-0.371686 1.73867 0)
(-0.495025 1.75524 0)
(-0.970675 1.69968 0)
(-1.30359 1.40473 0)
(-1.51953 0.873849 0)
(-1.57097 0.275228 0)
(-1.49934 -0.283924 0)
(-1.30511 -0.722492 0)
(-1.02493 -0.93667 0)
(-0.697826 -0.972957 0)
(-0.431112 -0.918513 0)
(-0.235913 -0.855261 0)
(-0.103638 -0.802568 0)
(-0.0158511 -0.763334 0)
(0.0422913 -0.733979 0)
(0.080229 -0.70981 0)
(0.10437 -0.688352 0)
(0.117375 -0.66877 0)
(0.114818 -0.653136 0)
(-0.832601 1.76425 0)
(0.617679 3.08655 0)
(-0.40498 2.83996 0)
(0.23743 2.13596 0)
(-0.294301 2.001 0)
(-0.34758 2.08669 0)
(-0.772277 2.03466 0)
(-1.0415 1.6474 0)
(-1.20659 0.992167 0)
(-1.26304 0.258418 0)
(-1.2258 -0.447055 0)
(-1.0973 -0.980575 0)
(-0.91895 -1.25845 0)
(-0.628781 -1.29646 0)
(-0.355452 -1.16918 0)
(-0.16078 -1.02317 0)
(-0.0336928 -0.912346 0)
(0.0437988 -0.832603 0)
(0.0901344 -0.774311 0)
(0.114377 -0.730984 0)
(0.122971 -0.698838 0)
(0.122374 -0.673716 0)
(0.115877 -0.65136 0)
(-0.768519 1.7106 0)
(0.658747 3.10322 0)
(-0.11309 2.89966 0)
(0.267607 2.15916 0)
(-0.0590669 2.15715 0)
(0.024675 2.31784 0)
(-0.24364 2.30916 0)
(-0.454309 1.85824 0)
(-0.572413 1.15826 0)
(-0.669826 0.359014 0)
(-0.669718 -0.448379 0)
(-0.595869 -1.09867 0)
(-0.508912 -1.47438 0)
(-0.377969 -1.5457 0)
(-0.167952 -1.38841 0)
(-0.0173774 -1.17233 0)
(0.0765757 -1.00239 0)
(0.130259 -0.883647 0)
(0.156272 -0.800193 0)
(0.164667 -0.739012 0)
(0.160634 -0.693613 0)
(0.147701 -0.66049 0)
(0.128536 -0.635424 0)
(-0.634387 1.60605 0)
(0.63745 2.9188 0)
(0.338351 2.90662 0)
(0.535896 2.28594 0)
(0.40458 2.14633 0)
(0.516779 2.33529 0)
(0.510736 2.44887 0)
(0.394848 2.07197 0)
(0.275412 1.37698 0)
(0.165168 0.530046 0)
(0.0735183 -0.394523 0)
(0.070705 -1.13127 0)
(0.0901489 -1.54661 0)
(0.062516 -1.65805 0)
(0.125703 -1.5109 0)
(0.192429 -1.26223 0)
(0.227482 -1.05017 0)
(0.239981 -0.903888 0)
(0.236873 -0.803517 0)
(0.224353 -0.731289 0)
(0.205784 -0.678015 0)
(0.182657 -0.638699 0)
(0.155313 -0.608943 0)
(-0.251863 1.50602 0)
(0.601226 2.53315 0)
(0.885283 2.7237 0)
(1.10732 2.38523 0)
(1.11325 2.13114 0)
(1.14276 2.19499 0)
(1.26387 2.35906 0)
(1.29957 2.15268 0)
(1.21846 1.55353 0)
(1.09627 0.720562 0)
(0.93813 -0.24619 0)
(0.819805 -1.07068 0)
(0.747029 -1.5164 0)
(0.592767 -1.62914 0)
(0.49282 -1.50031 0)
(0.444484 -1.25639 0)
(0.401708 -1.03683 0)
(0.362373 -0.883236 0)
(0.324908 -0.77879 0)
(0.288736 -0.704231 0)
(0.25403 -0.649181 0)
(0.220118 -0.6081 0)
(0.185911 -0.576612 0)
(0.0349304 1.319 0)
(0.569784 1.99583 0)
(1.08653 2.26547 0)
(1.6161 2.23896 0)
(1.85905 2.13467 0)
(1.90511 2.12272 0)
(1.99136 2.20251 0)
(2.08156 2.09 0)
(2.07962 1.62656 0)
(1.98262 0.885402 0)
(1.82822 -0.0260672 0)
(1.61614 -0.876271 0)
(1.3906 -1.35077 0)
(1.10465 -1.46273 0)
(0.862453 -1.3539 0)
(0.694934 -1.14524 0)
(0.572421 -0.95425 0)
(0.481108 -0.818137 0)
(0.409808 -0.724521 0)
(0.350866 -0.6572 0)
(0.300552 -0.607049 0)
(0.256153 -0.568887 0)
(0.215548 -0.538921 0)
(0.100747 0.931703 0)
(0.506329 1.29386 0)
(1.09822 1.57583 0)
(1.72162 1.71894 0)
(2.22147 1.88176 0)
(2.50273 2.04633 0)
(2.637 2.1272 0)
(2.71948 2.03823 0)
(2.73607 1.66786 0)
(2.66274 1.02402 0)
(2.51808 0.190159 0)
(2.26987 -0.592178 0)
(1.90343 -1.03837 0)
(1.49698 -1.15584 0)
(1.14769 -1.08838 0)
(0.890755 -0.944065 0)
(0.708456 -0.811658 0)
(0.57782 -0.714518 0)
(0.48022 -0.644752 0)
(0.403375 -0.592778 0)
(0.340536 -0.552961 0)
(0.287384 -0.521803 0)
(0.241232 -0.496538 0)
(0.113293 0.663015 0)
(0.420387 0.82912 0)
(0.914505 0.888624 0)
(1.51762 1.03215 0)
(2.11654 1.34383 0)
(2.5869 1.70999 0)
(2.89074 1.96614 0)
(3.05154 1.98117 0)
(3.10294 1.7046 0)
(3.0575 1.14928 0)
(2.90966 0.420905 0)
(2.5995 -0.243262 0)
(2.14773 -0.624829 0)
(1.67748 -0.755038 0)
(1.28231 -0.750081 0)
(0.992402 -0.692684 0)
(0.787216 -0.635075 0)
(0.638852 -0.587362 0)
(0.527568 -0.548363 0)
(0.440548 -0.516485 0)
(0.370117 -0.490344 0)
(0.311318 -0.468715 0)
(0.261282 -0.45025 0)
(0.104087 0.469045 0)
(0.307455 0.490485 0)
(0.620724 0.417443 0)
(1.0479 0.480474 0)
(1.59075 0.772807 0)
(2.13552 1.21907 0)
(2.56955 1.62694 0)
(2.84982 1.79938 0)
(2.98506 1.65308 0)
(2.98308 1.22098 0)
(2.82387 0.652564 0)
(2.4903 0.150197 0)
(2.04379 -0.170681 0)
(1.61046 -0.334167 0)
(1.25497 -0.409952 0)
(0.995218 -0.444161 0)
(0.804562 -0.456826 0)
(0.660344 -0.455113 0)
(0.54872 -0.446347 0)
(0.459896 -0.435183 0)
(0.38731 -0.423599 0)
(0.326476 -0.412421 0)
(0.274784 -0.401645 0)
(0.076067 0.332618 0)
(0.177281 0.294424 0)
(0.323278 0.138612 0)
(0.515364 0.101286 0)
(0.857965 0.3263 0)
(1.31861 0.752284 0)
(1.7632 1.219 0)
(2.10928 1.51542 0)
(2.30694 1.52024 0)
(2.36069 1.26415 0)
(2.25703 0.872055 0)
(1.99806 0.495636 0)
(1.67118 0.210829 0)
(1.36593 0.00593479 0)
(1.12019 -0.14074 0)
(0.928369 -0.240976 0)
(0.773434 -0.300876 0)
(0.64793 -0.332654 0)
(0.546008 -0.348417 0)
(0.462206 -0.355301 0)
(0.392182 -0.357056 0)
(0.332631 -0.355853 0)
(0.281543 -0.352658 0)
(0.0465682 0.25665 0)
(0.078044 0.23344 0)
(0.0907191 0.0483249 0)
(0.104041 -0.0566524 0)
(0.192419 0.0660748 0)
(0.448635 0.429436 0)
(0.787081 0.889601 0)
(1.11095 1.23634 0)
(1.35627 1.35053 0)
(1.49113 1.23741 0)
(1.49275 0.990018 0)
(1.38853 0.707434 0)
(1.23909 0.440919 0)
(1.09023 0.211553 0)
(0.95485 0.0316897 0)
(0.828292 -0.0947574 0)
(0.713002 -0.176543 0)
(0.611909 -0.228252 0)
(0.52498 -0.260993 0)
(0.450479 -0.281568 0)
(0.386334 -0.294169 0)
(0.330598 -0.301525 0)
(0.282005 -0.305102 0)
(0.0243542 0.222202 0)
(0.0236967 0.241767 0)
(-0.0150289 0.0862874 0)
(-0.102262 -0.0247993 0)
(-0.182564 -0.000806776 0)
(-0.141683 0.251897 0)
(0.0430938 0.640145 0)
(0.297543 0.980656 0)
(0.544726 1.14359 0)
(0.733964 1.12293 0)
(0.847727 0.972666 0)
(0.891119 0.753282 0)
(0.891995 0.515109 0)
(0.85929 0.298549 0)
(0.797323 0.127417 0)
(0.719896 0.00380623 0)
(0.639331 -0.0833655 0)
(0.562397 -0.144377 0)
(0.491884 -0.186982 0)
(0.428552 -0.216661 0)
(0.372106 -0.237193 0)
(0.321792 -0.251255 0)
(0.277034 -0.260423 0)
(0.0076845 0.208776 0)
(-0.00295373 0.264433 0)
(-0.0455619 0.151874 0)
(-0.133572 0.074873 0)
(-0.253222 0.0769517 0)
(-0.328621 0.208991 0)
(-0.284462 0.466324 0)
(-0.127943 0.741652 0)
(0.0857627 0.909233 0)
(0.293831 0.93288 0)
(0.467093 0.83963 0)
(0.593858 0.676019 0)
(0.665373 0.489445 0)
(0.682968 0.317346 0)
(0.661217 0.176328 0)
(0.617006 0.0667731 0)
(0.563352 -0.0165167 0)
(0.50732 -0.079519 0)
(0.452187 -0.12662 0)
(0.400107 -0.161513 0)
(0.351962 -0.18724 0)
(0.307835 -0.20612 0)
(0.267708 -0.219586 0)
(-0.00335517 0.210028 0)
(-0.01587 0.285005 0)
(-0.0461296 0.203324 0)
(-0.103224 0.162568 0)
(-0.184766 0.179232 0)
(-0.258821 0.259248 0)
(-0.268713 0.406943 0)
(-0.185729 0.580192 0)
(-0.0301244 0.701934 0)
(0.149978 0.730416 0)
(0.31563 0.674532 0)
(0.442392 0.564791 0)
(0.519051 0.435041 0)
(0.550277 0.309089 0)
(0.548534 0.197899 0)
(0.526114 0.104678 0)
(0.49172 0.0291826 0)
(0.451583 -0.0312552 0)
(0.409725 -0.0788824 0)
(0.368153 -0.115942 0)
(0.328104 -0.144589 0)
(0.29031 -0.166605 0)
(0.255167 -0.183165 0)
(-0.00880167 0.219893 0)
(-0.0207634 0.300411 0)
(-0.0384731 0.234959 0)
(-0.0703861 0.212409 0)
(-0.110194 0.240645 0)
(-0.145527 0.304621 0)
(-0.148983 0.394975 0)
(-0.0972232 0.492744 0)
(0.00784122 0.563261 0)
(0.136317 0.5794 0)
(0.257711 0.544225 0)
(0.353724 0.473046 0)
(0.416774 0.384006 0)
(0.449047 0.291297 0)
(0.457038 0.20378 0)
(0.447701 0.125939 0)
(0.426829 0.0592211 0)
(0.399077 0.00372497 0)
(0.36776 -0.0419628 0)
(0.335045 -0.0790855 0)
(0.302351 -0.108923 0)
(0.270627 -0.132737 0)
(0.240497 -0.151406 0)
(-0.0101531 0.232954 0)
(-0.0199833 0.310873 0)
(-0.0283593 0.252869 0)
(-0.0456659 0.236652 0)
(-0.0626895 0.264925 0)
(-0.0718598 0.316202 0)
(-0.0615197 0.376384 0)
(-0.0201269 0.433788 0)
(0.0515119 0.472092 0)
(0.137596 0.478411 0)
(0.221427 0.453756 0)
(0.291222 0.404644 0)
(0.341234 0.34059 0)
(0.371047 0.270558 0)
(0.383231 0.201203 0)
(0.381494 0.136646 0)
(0.369588 0.0789633 0)
(0.350718 0.0289154 0)
(0.327663 -0.0137289 0)
(0.302379 -0.0496886 0)
(0.276116 -0.0796035 0)
(0.249929 -0.104266 0)
(0.224601 -0.124293 0)
(-0.00921953 0.245334 0)
(-0.0156745 0.316627 0)
(-0.0175658 0.262005 0)
(-0.026055 0.247942 0)
(-0.0324186 0.27241 0)
(-0.0306632 0.311391 0)
(-0.0143075 0.35194 0)
(0.0207663 0.386711 0)
(0.0724011 0.407075 0)
(0.132662 0.407893 0)
(0.192503 0.388633 0)
(0.244473 0.352316 0)
(0.284192 0.304254 0)
(0.3103 0.250078 0)
(0.323577 0.1945 0)
(0.325957 0.140871 0)
(0.319774 0.0912437 0)
(0.307313 0.0466458 0)
(0.290502 0.00745743 0)
(0.271039 -0.0266506 0)
(0.250256 -0.0558908 0)
(0.229015 -0.0807257 0)
(0.20806 -0.101558 0)
(-0.00724961 0.254925 0)
(-0.00996558 0.318065 0)
(-0.00753478 0.265055 0)
(-0.0103422 0.252012 0)
(-0.0110612 0.272487 0)
(-0.00480364 0.301784 0)
(0.0124311 0.328769 0)
(0.0415823 0.349066 0)
(0.0806025 0.35909 0)
(0.124933 0.35636 0)
(0.169179 0.340128 0)
(0.20863 0.311805 0)
(0.240124 0.274382 0)
(0.262245 0.231415 0)
(0.275007 0.186195 0)
(0.279358 0.141309 0)
(0.276712 0.0985447 0)
(0.268617 0.0589835 0)
(0.256494 0.0231466 0)
(0.241729 -0.00873039 0)
(0.225372 -0.0368872 0)
(0.20818 -0.061485 0)
(0.190857 -0.0826932 0)
(-0.00485098 0.260948 0)
(-0.00425879 0.316182 0)
(0.000698829 0.263963 0)
(0.00154251 0.25168 0)
(0.00425382 0.268657 0)
(0.012488 0.290538 0)
(0.0286825 0.30792 0)
(0.05277 0.31903 0)
(0.0830215 0.32277 0)
(0.116517 0.317796 0)
(0.14993 0.303444 0)
(0.180224 0.280312 0)
(0.205164 0.250121 0)
(0.223524 0.215155 0)
(0.235015 0.177703 0)
(0.240049 0.139708 0)
(0.239461 0.102639 0)
(0.234277 0.0674999 0)
(0.225553 0.0348943 0)
(0.214206 0.00516561 0)
(0.201116 -0.0217164 0)
(0.187057 -0.0457037 0)
(0.172473 -0.0668586 0)
(-0.0022944 0.263288 0)
(0.000790222 0.311946 0)
(0.00693257 0.260536 0)
(0.0101359 0.248741 0)
(0.0146859 0.262743 0)
(0.0236478 0.278808 0)
(0.0383822 0.289543 0)
(0.0583456 0.294828 0)
(0.082142 0.294696 0)
(0.10789 0.288397 0)
(0.133486 0.275331 0)
(0.156934 0.255712 0)
(0.176649 0.230569 0)
(0.19164 0.201399 0)
(0.201529 0.169795 0)
(0.206443 0.137201 0)
(0.206852 0.104792 0)
(0.203414 0.0734459 0)
(0.196848 0.0437621 0)
(0.187834 0.0161062 0)
(0.177047 -0.00926654 0)
(0.165053 -0.0323439 0)
(0.15221 -0.0530965 0)
(4.01398e-05 0.262087 0)
(0.00508228 0.306393 0)
(0.0115684 0.255821 0)
(0.0160425 0.244349 0)
(0.0214809 0.255843 0)
(0.0304824 0.267469 0)
(0.0436671 0.273622 0)
(0.0602483 0.27519 0)
(0.0791599 0.272712 0)
(0.099185 0.265691 0)
(0.118967 0.253595 0)
(0.137165 0.236472 0)
(0.152646 0.214963 0)
(0.164635 0.190072 0)
(0.172758 0.162921 0)
(0.176997 0.134585 0)
(0.177592 0.105995 0)
(0.174946 0.0779045 0)
(0.169539 0.0508783 0)
(0.161868 0.025314 0)
(0.152398 0.00147958 0)
(0.141633 -0.0205325 0)
(0.129943 -0.0406476 0)
(0.00195128 0.258006 0)
(0.00856365 0.29983 0)
(0.0150068 0.250468 0)
(0.0199784 0.239326 0)
(0.0256785 0.248646 0)
(0.0343135 0.256887 0)
(0.0459429 0.259917 0)
(0.0596859 0.259181 0)
(0.0747663 0.255353 0)
(0.0903957 0.248026 0)
(0.10568 0.236745 0)
(0.119698 0.221499 0)
(0.131634 0.202712 0)
(0.140892 0.181071 0)
(0.14714 0.157382 0)
(0.150293 0.132455 0)
(0.150458 0.107033 0)
(0.147879 0.081753 0)
(0.142878 0.057125 0)
(0.13583 0.0335263 0)
(0.127112 0.0112024 0)
(0.117217 -0.00968696 0)
(0.106549 -0.0291886 0)
(0.00341873 0.251791 0)
(0.0113086 0.292682 0)
(0.0176005 0.245115 0)
(0.0225645 0.234268 0)
(0.0280836 0.241664 0)
(0.0361043 0.247334 0)
(0.0461992 0.248308 0)
(0.0574869 0.246242 0)
(0.0694374 0.241732 0)
(0.0815345 0.234398 0)
(0.0931755 0.223871 0)
(0.103717 0.210134 0)
(0.112569 0.193475 0)
(0.119283 0.174383 0)
(0.12359 0.153448 0)
(0.125393 0.131291 0)
(0.12474 0.108508 0)
(0.121793 0.0856307 0)
(0.116801 0.0630974 0)
(0.110082 0.0412319 0)
(0.102003 0.0202404 0)
(0.0930075 0.000239427 0)
(0.0835568 -0.0189266 0)
(0.00441202 0.243336 0)
(0.0132006 0.284386 0)
(0.0193051 0.239667 0)
(0.0239699 0.229296 0)
(0.0290061 0.234956 0)
(0.0362126 0.238669 0)
(0.0447308 0.238385 0)
(0.0537831 0.235691 0)
(0.0630315 0.230987 0)
(0.072125 0.223907 0)
(0.080653 0.214165 0)
(0.0881656 0.201748 0)
(0.0942455 0.186858 0)
(0.0985785 0.169848 0)
(0.100974 0.151158 0)
(0.101365 0.131268 0)
(0.0997976 0.110656 0)
(0.0964141 0.0897593 0)
(0.0914418 0.0689318 0)
(0.0851768 0.0484276 0)
(0.0779755 0.028395 0)
(0.0702109 0.00887091 0)
(0.062382 -0.0102724 0)
(0.00513003 0.235978 0)
(0.0149551 0.277624 0)
(0.0211974 0.235608 0)
(0.0254495 0.225495 0)
(0.0299849 0.229753 0)