/*--------------------------------*- C++ -*----------------------------------*\
| =========                 |                                                 |
| \\      /  F ield         | OpenFOAM: The Open Source CFD Toolbox           |
|  \\    /   O peration     | Version:  2206                                  |
|   \\  /    A nd           | Website:  www.openfoam.com                      |
|    \\/     M anipulation  |                                                 |
\*---------------------------------------------------------------------------*/
FoamFile
{
    version     2.0;
    format      ascii;
    arch        "LSB;label=32;scalar=64";
    class       volScalarField;
    location    "0.525";
    object      p;
}
// * * * * * * * * * * * * * * * * * * * * * * * * * * * * * * * * * * * * * //

dimensions      [1 -1 -2 0 0 0 0];

internalField   nonuniform List<scalar> 
2268
(
860.847
861.191
861.94
862.847
863.678
864.407
865.149
866.037
867.156
868.536
870.182
872.087
874.198
876.502
878.949
881.47
883.957
886.25
888.154
889.51
890.387
891.259
892.291
801.583
801.908
802.669
803.602
804.457
805.211
805.975
806.885
808.026
809.426
811.081
812.956
815.053
817.325
819.743
822.263
824.8
827.207
829.249
830.685
831.552
832.336
833.798
741.865
742.191
742.958
743.947
744.848
745.652
746.465
747.424
748.615
750.069
751.779
753.721
755.865
758.174
760.601
763.089
765.566
767.939
770.12
772.02
773.682
775.247
776.504
681.662
681.983
682.751
683.838
684.806
685.691
686.586
687.63
688.91
690.456
692.256
694.281
696.497
698.871
701.355
703.894
706.425
708.873
711.192
713.388
715.52
717.555
719.238
620.907
621.232
621.957
623.251
624.285
625.282
626.299
627.471
628.889
630.574
632.506
634.654
636.984
639.453
642.03
644.665
647.304
649.888
652.364
654.714
656.984
659.152
660.999
559.499
559.886
560.72
562.014
563.302
564.442
565.598
566.938
568.544
570.417
572.527
574.834
577.305
579.906
582.603
585.357
588.114
590.821
593.422
595.864
598.116
600.13
601.659
497.23
497.684
498.55
500.06
501.706
503.098
504.46
506.032
507.891
510.009
512.336
514.832
517.468
520.216
523.049
525.924
528.79
531.583
534.219
536.586
538.501
539.669
539.685
433.884
434.293
434.577
436.181
438.585
440.807
442.768
444.755
446.959
449.379
451.965
454.683
457.507
460.417
463.384
466.37
469.317
472.138
474.707
476.878
478.247
478.732
473.074
327.67
287.998
229.746
210.966
234.434
277.548
363.357
539.092
677.435
641.166
594.429
645.209
747.031
807.945
820.608
752.406
609.849
689.71
983.037
316.486
249.984
203.883
198.744
222.065
261.134
340.638
478.284
592.262
551.627
510.368
565.654
682.317
764.371
790.733
705.151
535.306
588.911
914.804
317.833
225.791
195.055
194.691
219.311
257.041
312.836
405.043
469.733
428.665
393.895
446.117
568.698
682.916
740.268
655.365
465.692
477.651
832.405
302.88
221.2
194.023
193.123
216.681
243.628
268.401
312.588
338.363
299.568
280.098
319.934
432.364
561.219
650.7
596.243
402.381
370.651
741.632
286.515
222.86
196.086
193.929
210.498
216.281
211.571
217.305
202.09
153.677
150.793
188.242
294.546
426.496
527.308
514.021
350.436
291.75
660.199
281.876
227.094
199.251
191.678
187.872
171.633
150.111
122.482
74.4427
23.384
17.5707
49.5458
145.366
287.942
398.695
423.426
315.705
276.149
620.57
283.965
229.759
193.507
169.352
147.867
122.372
88.6847
43.8765
11.4777
1.69431
0.769251
3.42461
26.7953
145.588
274.67
339.335
306.033
327.1
636.801
268.793
214.666
166.047
134.325
106.942
76.3223
36.1996
7.42213
1.41148
0.483222
0.313756
0.709459
3.0512
36.2561
154.466
262.645
306.796
393.003
704.848
333.181
331.01
331.052
333.326
338.206
342.567
345.872
348.665
351.429
354.316
357.31
360.379
363.504
366.668
369.843
372.975
375.966
378.641
380.614
381.29
378.668
370.44
343.796
201.741
196.472
193.663
196.165
203.445
209.654
213.652
217.113
220.635
224.195
227.781
231.369
234.921
238.42
241.846
245.144
248.204
250.838
252.763
253.551
252.708
249.628
244.741
84.7234
79.9619
73.3374
72.5708
78.8791
84.1437
86.1193
88.489
91.7784
95.3233
98.9385
102.592
106.227
109.817
113.361
116.841
120.179
123.231
125.789
127.534
128.064
126.57
122.641
21.147
13.8414
7.15301
6.94407
9.6045
12.0775
12.2303
12.8833
14.0155
15.3345
16.762
18.2283
19.6948
21.1838
22.7387
24.3794
26.085
27.785
29.3949
30.8265
31.9187
32.5915
32.1034
-0.673504
-0.71486
-0.731248
-0.568694
-0.574002
-0.661903
-0.650171
-0.64649
-0.650513
-0.653855
-0.655472
-0.656256
-0.656479
-0.65618
-0.655671
-0.655282
-0.655166
-0.655405
-0.656034
-0.657189
-0.659011
-0.661293
-0.661818
-0.805855
-0.824675
-0.820361
-0.800188
-0.783462
-0.786853
-0.787746
-0.786852
-0.787501
-0.788585
-0.788997
-0.788801
-0.788208
-0.787316
-0.786259
-0.78524
-0.784412
-0.783868
-0.783708
-0.784018
-0.784731
-0.785979
-0.78651
-0.943234
-0.956989
-0.971469
-0.962235
-0.938638
-0.931429
-0.930374
-0.928906
-0.928178
-0.927883
-0.927477
-0.926803
-0.925915
-0.92486
-0.923667
-0.922456
-0.921442
-0.920873
-0.920962
-0.921779
-0.923296
-0.925271
-0.926547
-1.08312
-1.08249
-1.08191
-1.0792
-1.07672
-1.07462
-1.07322
-1.07213
-1.07111
-1.07019
-1.06929
-1.06829
-1.06717
-1.06592
-1.06462
-1.06343
-1.06257
-1.06233
-1.06286
-1.06441
-1.0671
-1.0703
-1.0739
-1.22238
-1.22216
-1.22216
-1.22162
-1.21993
-1.21792
-1.21628
-1.21501
-1.21394
-1.21295
-1.21199
-1.21099
-1.20993
-1.20879
-1.20768
-1.20676
-1.20632
-1.20659
-1.20771
-1.21043
-1.21501
-1.22041
-1.22659
-1.36164
-1.36156
-1.36149
-1.36116
-1.36056
-1.35976
-1.35888
-1.35806
-1.35729
-1.35656
-1.35584
-1.3551
-1.35433
-1.35354
-1.35283
-1.35234
-1.35234
-1.35289
-1.3543
-1.35783
-1.36318
-1.36917
-1.37551
-1.50271
-1.5027
-1.50281
-1.5027
-1.50245
-1.5021
-1.50168
-1.50125
-1.50084
-1.50046
-1.50009
-1.49974
-1.4994
-1.4991
-1.49889
-1.49888
-1.49921
-1.49989
-1.50127
-1.50431
-1.50845
-1.51288
-1.51717
-1.6444
-1.64447
-1.6447
-1.64479
-1.64478
-1.64472
-1.64464
-1.64455
-1.64448
-1.64444
-1.64445
-1.6445
-1.64461
-1.64481
-1.64511
-1.64557
-1.64627
-1.64718
-1.64856
-1.65013
-1.65194
-1.65398
-1.65547
-1.78672
-1.78686
-1.78715
-1.78734
-1.78749
-1.78763
-1.78778
-1.78793
-1.78812
-1.78835
-1.78865
-1.78902
-1.78949
-1.79006
-1.79075
-1.7916
-1.79261
-1.7938
-1.79516
-1.79614
-1.79661
-1.79693
-1.79693
-1.92946
-1.92963
-1.92994
-1.93019
-1.93043
-1.9307
-1.93099
-1.93131
-1.93168
-1.93211
-1.93261
-1.93319
-1.93387
-1.93466
-1.93556
-1.93659
-1.93773
-1.93899
-1.94026
-1.94136
-1.94186
-1.94182
-1.9415
-2.07244
-2.07262
-2.07291
-2.07318
-2.07349
-2.07384
-2.07423
-2.07468
-2.07518
-2.07574
-2.07638
-2.0771
-2.0779
-2.0788
-2.07979
-2.08087
-2.08203
-2.08322
-2.0844
-2.08545
-2.08624
-2.08649
-2.08655
-2.21548
-2.21564
-2.21591
-2.21621
-2.21656
-2.21697
-2.21744
-2.21798
-2.21858
-2.21926
-2.22001
-2.22085
-2.22176
-2.22276
-2.22382
-2.22496
-2.22615
-2.22735
-2.22854
-2.22965
-2.23061
-2.23132
-2.2318
-2.35846
-2.3586
-2.35885
-2.35916
-2.35955
-2.36001
-2.36055
-2.36117
-2.36188
-2.36266
-2.36353
-2.36449
-2.36552
-2.36664
-2.36782
-2.36907
-2.37036
-2.37169
-2.37301
-2.37429
-2.3755
-2.37658
-2.37749
-2.50128
-2.5014
-2.50165
-2.50197
-2.5024
-2.50292
-2.50353
-2.50423
-2.50503
-2.50593
-2.50692
-2.50801
-2.50918
-2.51045
-2.51179
-2.5132
-2.51467
-2.51618
-2.51772
-2.51925
-2.52076
-2.52221
-2.52356
-2.6439
-2.64402
-2.64427
-2.64462
-2.64508
-2.64565
-2.64634
-2.64713
-2.64803
-2.64904
-2.65016
-2.65139
-2.65272
-2.65415
-2.65568
-2.65729
-2.65898
-2.66073
-2.66254
-2.66438
-2.66623
-2.66808
-2.66989
-2.78628
-2.7864
-2.78666
-2.78704
-2.78755
-2.78818
-2.78894
-2.78982
-2.79082
-2.79195
-2.79321
-2.79458
-2.79608
-2.7977
-2.79943
-2.80127
-2.80321
-2.80523
-2.80734
-2.80953
-2.81176
-2.81404
-2.81633
-2.92838
-2.9285
-2.92878
-2.92919
-2.92975
-2.93044
-2.93128
-2.93225
-2.93336
-2.93461
-2.93601
-2.93754
-2.93921
-2.94102
-2.94296
-2.94504
-2.94724
-2.94957
-2.95201
-2.95456
-2.9572
-2.95993
-2.96274
-3.07012
-3.07025
-3.07055
-3.07101
-3.07161
-3.07237
-3.07328
-3.07435
-3.07557
-3.07694
-3.07848
-3.08017
-3.08202
-3.08402
-3.08619
-3.08851
-3.09099
-3.09362
-3.0964
-3.09933
-3.1024
-3.10561
-3.10895
-3.21144
-3.21159
-3.21192
-3.21241
-3.21306
-3.21389
-3.21488
-3.21603
-3.21736
-3.21886
-3.22054
-3.22238
-3.22441
-3.22661
-3.229
-3.23156
-3.23432
-3.23726
-3.24038
-3.2437
-3.24721
-3.2509
-3.25479
-3.35228
-3.35245
-3.35281
-3.35333
-3.35404
-3.35492
-3.35599
-3.35723
-3.35866
-3.36028
-3.36209
-3.36409
-3.36628
-3.36868
-3.37127
-3.37408
-3.3771
-3.38034
-3.38381
-3.38751
-3.39145
-3.39563
-3.40005
-3.49259
-3.49277
-3.49315
-3.49371
-3.49446
-3.4954
-3.49654
-3.49787
-3.49939
-3.50112
-3.50305
-3.50519
-3.50754
-3.51011
-3.51291
-3.51594
-3.51922
-3.52274
-3.52653
-3.5306
-3.53495
-3.53959
-3.54454
-3.63229
-3.63249
-3.63289
-3.63348
-3.63427
-3.63527
-3.63646
-3.63786
-3.63947
-3.64129
-3.64333
-3.6456
-3.64809
-3.65082
-3.65379
-3.65703
-3.66053
-3.66432
-3.6684
-3.6728
-3.67752
-3.6826
-3.68804
-3.77133
-3.77156
-3.77197
-3.77259
-3.77342
-3.77445
-3.77569
-3.77715
-3.77883
-3.78073
-3.78286
-3.78523
-3.78784
-3.7907
-3.79383
-3.79723
-3.80093
-3.80494
-3.80927
-3.81396
-3.81901
-3.82446
-3.83033
-3.90968
-3.90992
-3.91035
-3.91099
-3.91184
-3.9129
-3.91418
-3.91569
-3.91742
-3.91938
-3.92158
-3.92402
-3.92672
-3.92968
-3.93292
-3.93646
-3.94031
-3.94449
-3.94902
-3.95394
-3.95926
-3.96502
-3.97124
-4.0473
-4.04754
-4.04798
-4.04863
-4.0495
-4.05058
-4.05188
-4.05342
-4.05518
-4.05718
-4.05942
-4.06191
-4.06466
-4.06769
-4.07101
-4.07463
-4.07858
-4.08288
-4.08755
-4.09263
-4.09814
-4.10411
-4.11058
-4.18416
-4.1844
-4.18484
-4.1855
-4.18637
-4.18746
-4.18877
-4.19031
-4.19208
-4.19409
-4.19635
-4.19886
-4.20163
-4.20469
-4.20803
-4.21169
-4.21569
-4.22004
-4.22479
-4.22995
-4.23556
-4.24165
-4.24825
-4.32025
-4.32047
-4.32091
-4.32156
-4.32243
-4.32351
-4.32481
-4.32634
-4.3281
-4.3301
-4.33234
-4.33484
-4.3376
-4.34063
-4.34396
-4.34761
-4.35159
-4.35594
-4.36067
-4.36583
-4.37145
-4.37755
-4.38417
-4.45554
-4.45574
-4.45617
-4.45681
-4.45765
-4.45872
-4.46
-4.4615
-4.46322
-4.46518
-4.46738
-4.46983
-4.47253
-4.47551
-4.47878
-4.48236
-4.48627
-4.49054
-4.49519
-4.50027
-4.50579
-4.51179
-4.51829
-4.59003
-4.5902
-4.59063
-4.59123
-4.59206
-4.59309
-4.59432
-4.59578
-4.59745
-4.59934
-4.60147
-4.60384
-4.60645
-4.60934
-4.6125
-4.61596
-4.61974
-4.62386
-4.62836
-4.63327
-4.6386
-4.64439
-4.65065
-4.72376
-4.72389
-4.72431
-4.72489
-4.72567
-4.72666
-4.72784
-4.72923
-4.73082
-4.73263
-4.73466
-4.73692
-4.73942
-4.74216
-4.74517
-4.74847
-4.75206
-4.75599
-4.76027
-4.76493
-4.76998
-4.77546
-4.78138
-4.85677
-4.85685
-4.85725
-4.8578
-4.85853
-4.85946
-4.86058
-4.86189
-4.86339
-4.8651
-4.86701
-4.86913
-4.87148
-4.87406
-4.87688
-4.87997
-4.88334
-4.88701
-4.89101
-4.89535
-4.90006
-4.90515
-4.91061
-4.98901
-4.98904
-4.9894
-4.98992
-4.99059
-4.99147
-4.99251
-4.99373
-4.99514
-4.99672
-4.9985
-5.00047
-5.00264
-5.00503
-5.00764
-5.01048
-5.01359
-5.01696
-5.02063
-5.02461
-5.0289
-5.03353
-5.03847
-5.1204
-5.12044
-5.12073
-5.12124
-5.12186
-5.12268
-5.12364
-5.12477
-5.12606
-5.12752
-5.12915
-5.13095
-5.13293
-5.1351
-5.13747
-5.14005
-5.14285
-5.14589
-5.14919
-5.15276
-5.15659
-5.1607
-5.16506
-5.25103
-5.25116
-5.2514
-5.25191
-5.2525
-5.25325
-5.25414
-5.25517
-5.25635
-5.25767
-5.25913
-5.26075
-5.26253
-5.26447
-5.26658
-5.26887
-5.27135
-5.27403
-5.27693
-5.28005
-5.2834
-5.28695
-5.29071
-5.38109
-5.38144
-5.38165
-5.38217
-5.38272
-5.38342
-5.38423
-5.38517
-5.38623
-5.38742
-5.38873
-5.39016
-5.39173
-5.39344
-5.39528
-5.39728
-5.39944
-5.40176
-5.40425
-5.40692
-5.40976
-5.41277
-5.41592
-5.51067
-5.51126
-5.51143
-5.51193
-5.51247
-5.51313
-5.51389
-5.51474
-5.5157
-5.51676
-5.51792
-5.51918
-5.52055
-5.52203
-5.52363
-5.52534
-5.52717
-5.52914
-5.53123
-5.53346
-5.53581
-5.53828
-5.54084
-5.63972
-5.64036
-5.64058
-5.64112
-5.64169
-5.64233
-5.64304
-5.64382
-5.64468
-5.6456
-5.64661
-5.64769
-5.64886
-5.65011
-5.65144
-5.65287
-5.65438
-5.65598
-5.65767
-5.65945
-5.66131
-5.66325
-5.66525
-5.76781
-5.76944
-5.7699
-5.77052
-5.77111
-5.77171
-5.77234
-5.77301
-5.77372
-5.77448
-5.7753
-5.77617
-5.7771
-5.77809
-5.77913
-5.78023
-5.78138
-5.78258
-5.78383
-5.78513
-5.78646
-5.78784
-5.78925
248.572
336.107
329.504
273.038
221.054
211.846
197.005
157.742
104.437
85.1354
69.2636
47.3025
25.9488
13.7877
5.51844
0.0465465
-0.657989
-0.625556
-0.506739
-0.394725
-0.787259
-0.763861
-0.674291
-0.593228
-0.928311
-0.905489
-0.859654
-0.830321
-1.07871
-1.0527
-1.0345
-1.03105
-1.23257
-1.20147
-1.18608
-1.19436
-1.38023
-1.35117
-1.33734
-1.3425
-1.51911
-1.49828
-1.48918
-1.49058
-1.65606
-1.64325
-1.63782
-1.63739
-1.79644
-1.789
-1.78565
-1.784
-1.94059
-1.93611
-1.93382
-1.93136
-2.08627
-2.08406
-2.08256
-2.07993
-2.23251
-2.23242
-2.23202
-2.22996
-2.37928
-2.38117
-2.3823
-2.38156
-2.52644
-2.53034
-2.53344
-2.53476
-2.67388
-2.67991
-2.68541
-2.68951
-2.8215
-2.82983
-2.83814
-2.84567
-2.96915
-2.97997
-2.99146
-3.00302
-3.11666
-3.13013
-3.14511
-3.16125
-3.26384
-3.28007
-3.29878
-3.31991
-3.41044
-3.42947
-3.45205
-3.47848
-3.55622
-3.57801
-3.60444
-3.6363
-3.70093
-3.7253
-3.75543
-3.79258
-3.84429
-3.87097
-3.90444
-3.94649
-3.98606
-4.01465
-4.0509
-4.09714
-4.12604
-4.15601
-4.1943
-4.24367
-4.26405
-4.29478
-4.33421
-4.38536
-4.39999
-4.43081
-4.47033
-4.52171
-4.53382
-4.56401
-4.60257
-4.65252
-4.66559
-4.69446
-4.73101
-4.77795
-4.79544
-4.82238
-4.85602
-4.89856
-4.92356
-4.94808
-4.97811
-5.01523
-5.05013
-5.07186
-5.09783
-5.1289
-5.1753
-5.19402
-5.21571
-5.24054
-5.29946
-5.31511
-5.33256
-5.35135
-5.4232
-5.4359
-5.44943
-5.46295
-5.54674
-5.55676
-5.5669
-5.57605
-5.66982
-5.67739
-5.68463
-5.69029
-5.79247
-5.79762
-5.80216
-5.8049
209.216
158.799
115.445
84.9962
52.0961
32.3544
7.57805
0.513967
0.128394
0.105767
0.144261
0.269669
0.541939
2.72388
35.478
143.532
293.631
506.761
819.028
118.058
83.7807
50.6087
31.6361
4.83699
-0.343191
-0.212779
-0.098147
-0.134424
-0.102217
-0.0473451
0.038227
0.152026
0.379999
3.00194
31.2332
194.303
514.825
843.616
35.2242
20.4592
1.36102
-0.627367
-0.473294
-0.437323
-0.378596
-0.324403
-0.315045
-0.311353
-0.270075
-0.170558
-0.0155445
0.13464
0.670953
4.32991
62.0844
380.075
725.267
-0.456169
-0.551973
-0.527223
-0.630705
-0.63386
-0.571559
-0.504405
-0.469062
-0.477114
-0.497951
-0.463837
-0.352466
-0.188051
-0.053979
0.20641
1.22047
11.8433
190.374
529.212
-0.533198
-0.648258
-0.709684
-0.777871
-0.782402
-0.706323
-0.632672
-0.599985
-0.612861
-0.64706
-0.62567
-0.513879
-0.34461
-0.200334
0.0323327
0.360658
1.00009
51.0399
350.5
-0.684554
-0.801151
-0.892393
-0.944297
-0.918035
-0.837756
-0.766874
-0.730344
-0.733065
-0.762948
-0.750804
-0.651128
-0.489132
-0.340434
-0.0597618
0.331247
-0.0986885
14.2242
231.945
-0.897776
-0.972392
-1.0311
-1.05921
-1.02417
-0.957653
-0.896831
-0.857288
-0.845205
-0.857215
-0.844675
-0.765203
-0.624448
-0.476819
-0.102927
0.596201
0.234355
25.8864
160.282
-1.06977
-1.10953
-1.13682
-1.14112
-1.11219
-1.06608
-1.01844
-0.978141
-0.952502
-0.944426
-0.928647
-0.866648
-0.757532
-0.630567
-0.165964
0.891468
0.950737
33.3385
111.147
-1.21341
-1.23042
-1.24245
-1.23787
-1.21456
-1.17834
-1.13695
-1.09588
-1.06048
-1.03589
-1.01395
-0.96551
-0.893011
-0.840228
-0.42857
1.34341
3.85724
32.474
78.3543
-1.35235
-1.3594
-1.3615
-1.3513
-1.32851
-1.29579
-1.25681
-1.21475
-1.17292
-1.13644
-1.10644
-1.07043
-1.0524
-1.19526
-1.35515
-0.298502
9.29539
31.5176
57.4293
-1.4935
-1.4934
-1.48851
-1.47421
-1.45064
-1.41883
-1.38057
-1.33777
-1.29291
-1.2499
-1.21513
-1.19359
-1.23243
-1.61187
-2.78609
-2.44022
9.29373
31.0632
43.5348
-1.63561
-1.63098
-1.62161
-1.60462
-1.57985
-1.54786
-1.50972
-1.46678
-1.42153
-1.37787
-1.34461
-1.34256
-1.43383
-1.81727
-2.82248
-3.3466
-3.08679
23.6685
32.8945
-1.77955
-1.77218
-1.76
-1.74122
-1.71548
-1.68315
-1.64489
-1.60253
-1.55854
-1.51818
-1.4906
-1.50225
-1.61075
-1.93495
-2.37834
-3.23699
-3.77534
15.2148
25.3215
-1.92558
-1.91674
-1.90309
-1.88341
-1.85729
-1.82495
-1.7871
-1.7454
-1.70321
-1.66694
-1.64372
-1.66034
-1.74484
-1.99804
-2.21942
-2.31074
-0.512824
3.01738
20.6479
-2.07385
-2.06461
-2.05064
-2.03098
-2.00521
-1.97341
-1.93628
-1.8954
-1.85447
-1.81984
-1.79738
-1.80929
-1.86344
-2.01605
-2.1597
-2.16594
-1.52013
-1.07275
20.5014
-2.22448
-2.21581
-2.20256
-2.18389
-2.15933
-2.12879
-2.09283
-2.05277
-2.01229
-1.97713
-1.95083
-1.95075
-1.97805
-2.04762
-2.10816
-2.07397
-1.81346
-2.10765
22.5145
-2.37754
-2.37037
-2.35886
-2.34223
-2.31988
-2.29151
-2.25741
-2.21837
-2.17769
-2.14013
-2.10666
-2.08921
-2.09136
-2.10957
-2.09562
-2.02043
-1.86918
-2.06761
23.1547
-2.53303
-2.52829
-2.51958
-2.50614
-2.48722
-2.46226
-2.43098
-2.39378
-2.35287
-2.3118
-2.26925
-2.23099
-2.20735
-2.19579
-2.14397
-2.04445
-1.95744
-1.99854
23.7202
-2.69091
-2.68954
-2.68476
-2.67581
-2.66183
-2.64191
-2.61514
-2.58131
-2.54103
-2.49633
-2.44415
-2.38278
-2.33143
-2.30109
-2.23008
-2.09728
-2.01084
-2.12693
23.9414
-2.85103
-2.85399
-2.85436
-2.85141
-2.8442
-2.83147
-2.8117
-2.78376
-2.74646
-2.69956
-2.63876
-2.55445
-2.47682
-2.43554
-2.34227
-2.14818
-1.9782
-2.16339
24.891
-3.01314
-3.02144
-3.02824
-3.03299
-3.03476
-3.03205
-3.02274
-3.00439
-2.97459
-2.92932
-2.86266
-2.76073
-2.65646
-2.5938
-2.46896
-2.20645
-1.964
-2.12147
26.7943
-3.17688
-3.19149
-3.2061
-3.22044
-3.23382
-3.24466
-3.25047
-3.24735
-3.23175
-3.19594
-3.12845
-3.01466
-2.87483
-2.77024
-2.61984
-2.30027
-2.00443
-2.05328
29.1758
-3.34173
-3.3636
-3.38741
-3.4134
-3.44143
-3.47016
-3.49728
-3.51738
-3.52559
-3.51289
-3.45403
-3.32955
-3.15231
-2.97228
-2.75601
-2.41596
-2.08168
-2.05426
31.6838
-3.50703
-3.53696
-3.57131
-3.61108
-3.65717
-3.70893
-3.76555
-3.82021
-3.8669
-3.8987
-3.86459
-3.72797
-3.51103
-3.23634
-2.91838
-2.57632
-2.24984
-2.41827
33.9251
-3.6719
-3.7105
-3.75654
-3.81216
-3.8799
-3.96072
-4.0572
-4.16205
-4.27122
-4.38157
-4.39661
-4.25257
-3.99576
-3.61193
-3.15429
-2.77647
-2.41377
-2.775
35.9185
-3.83526
-3.88284
-3.94136
-4.0146
-4.10754
-4.22435
-4.373
-4.55071
-4.76318
-4.99777
-5.09053
-4.93972
-4.63233
-4.12207
-3.46128
-3.00211
-2.50199
-3.06732
37.6294
-3.9959
-4.05227
-4.12348
-4.21544
-4.33662
-4.49662
-4.71128
-4.99923
-5.37596
-5.77253
-5.96403
-5.86279
-5.49656
-4.77626
-3.81283
-3.25343
-2.50425
-3.35281
38.6646
-4.15245
-4.21679
-4.30004
-4.41062
-4.56165
-4.77021
-5.06586
-5.51612
-6.10417
-6.69795
-7.11196
-7.30673
-6.84796
-5.69762
-4.23471
-3.51134
-2.38681
-3.54236
37.8635
-4.30355
-4.37431
-4.46778
-4.5951
-4.77481
-5.03324
-5.42274
-6.06876
-6.84408
-7.77009
-8.79658
-9.40313
-8.79943
-7.02402
-4.84349
-3.80533
-2.17074
-3.83194
33.6712
-4.44799
-4.52283
-4.62336
-4.76322
-4.96653
-5.27059
-5.75407
-6.57133
-7.5026
-9.21461
-11.0254
-11.2666
-10.5512
-8.52671
-5.55983
-4.09743
-2.02644
-4.91414
32.3871
-4.58486
-4.66081
-4.76397
-4.90974
-5.12698
-5.46385
-6.01604
-6.9581
-8.16244
-10.9294
-12.2432
-12.3236
-11.5938
-9.63747
-6.27528
-4.21791
-1.81448
-6.79504
27.8378
-4.71377
-4.78745
-4.88798
-5.03152
-5.24914
-5.59585
-6.17296
-7.23483
-8.82842
-11.6304
-12.6206
-12.8949
-12.1449
-10.1188
-6.98029
-4.03694
-2.12313
-18.8815
-6.11851
-4.83495
-4.90301
-4.99543
-5.12807
-5.3301
-5.66106
-6.21677
-7.35695
-9.21443
-11.3756
-12.4323
-12.9014
-12.1499
-10.1711
-7.26783
-3.88018
-2.95192
-13.1368
-9.95977
-4.94932
-5.00896
-5.0883
-5.20184
-5.37113
-5.64653
-6.15919
-7.20093
-9.01449
-10.6381
-11.5882
-12.0776
-11.5189
-9.8315
-7.24575
-3.63328
-4.05599
-9.7675
-10.0839
-5.05832
-5.10783
-5.16958
-5.25764
-5.38314
-5.5913
-5.97164
-6.65047
-8.35144
-9.71051
-10.5331
-10.8914
-10.7002
-9.36119
-6.59756
-3.76936
-2.71727
-0.940884
-5.78731
-5.16343
-5.20076
-5.24571
-5.30435
-5.38227
-5.5161
-5.76552
-6.18615
-7.79683
-9.52574
-9.6758
-9.94265
-9.97832
-8.45408
-5.98208
-1.20826
-3.66456
-5.67328
-5.75335
-5.2665
-5.29217
-5.31991
-5.35036
-5.38266
-5.43665
-5.54557
-5.7251
-6.516
-8.75146
-9.63031
-9.21517
-9.44123
-9.05125
-2.70693
-0.238228
-3.89351
-5.65123
-5.70178
-5.36947
-5.38458
-5.3969
-5.40341
-5.39866
-5.38626
-5.37368
-5.31479
-5.25477
-5.97155
-7.23929
-8.25171
-6.53889
-5.21547
-2.84776
-4.53883
-5.90085
-5.70552
-5.70158
-5.47411
-5.48057
-5.48053
-5.46917
-5.43949
-5.38774
-5.31265
-5.19209
-5.05484
-5.1875
-5.3209
-6.08047
-5.03764
-4.54725
-5.61691
-5.87888
-5.80815
-5.75694
-5.72918
-5.58175
-5.58172
-5.57297
-5.55022
-5.50685
-5.43894
-5.35375
-5.27331
-5.23521
-5.39988
-5.52956
-5.83771
-6.44695
-6.33396
-6.09184
-5.9206
-5.85405
-5.76847
-5.7465
-5.69196
-5.68769
-5.67419
-5.64664
-5.59947
-5.53072
-5.45918
-5.41613
-5.44194
-5.56957
-6.06642
-7.15858
-7.24452
-6.44809
-6.05761
-5.89672
-5.81735
-5.76365
-5.74738
-5.80369
-5.79733
-5.78309
-5.75742
-5.71705
-5.66284
-5.61953
-5.60157
-5.6289
-5.7654
-6.27226
-7.67515
-7.55379
-6.51015
-5.99252
-5.81956
-5.76622
-5.7434
-5.73496
)
;

boundaryField
{
    leftWall
    {
        type            calculated;
        value           nonuniform List<scalar> 
50
(
860.847
801.583
741.865
681.662
620.907
559.499
497.23
433.884
333.181
201.741
84.7234
21.147
-0.673504
-0.805855
-0.943234
-1.08312
-1.22238
-1.36164
-1.50271
-1.6444
-1.78672
-1.92946
-2.07244
-2.21548
-2.35846
-2.50128
-2.6439
-2.78628
-2.92838
-3.07012
-3.21144
-3.35228
-3.49259
-3.63229
-3.77133
-3.90968
-4.0473
-4.18416
-4.32025
-4.45554
-4.59003
-4.72376
-4.85677
-4.98901
-5.1204
-5.25103
-5.38109
-5.51067
-5.63972
-5.76781
)
;
    }
    rightWall
    {
        type            calculated;
        value           nonuniform List<scalar> 
50
(
983.037
914.804
832.405
741.632
660.199
620.57
636.801
704.848
819.028
843.616
725.267
529.212
350.5
231.945
160.282
111.147
78.3543
57.4293
43.5348
32.8945
25.3215
20.6479
20.5014
22.5145
23.1547
23.7202
23.9414
24.891
26.7943
29.1758
31.6838
33.9251
35.9185
37.6294
38.6646
37.8635
33.6712
32.3871
27.8378
-6.11851
-9.95977
-10.0839
-5.78731
-5.75335
-5.70178
-5.70158
-5.72918
-5.7465
-5.74738
-5.73496
)
;
    }
    lowerWall
    {
        type            calculated;
        value           nonuniform List<scalar> 
62
(
890.276
890.62
891.37
892.276
893.107
893.837
894.578
895.467
896.585
897.966
899.611
901.516
903.628
905.931
908.378
910.899
913.386
915.68
917.583
918.939
919.817
920.688
921.72
892.291
833.798
776.504
719.238
660.999
601.659
539.685
473.074
311.169
398.704
392.1
335.631
327.67
316.486
317.833
302.88
286.515
281.876
283.965
268.793
336.288
296.616
238.301
216.594
241.863
289.112
377.669
557.421
700.063
666.13
619.083
669.706
770.364
825.393
838.056
775.808
635.687
715.549
1008.88
)
;
    }
    atmosphere
    {
        type            calculated;
        value           nonuniform List<scalar> 
46
(
-5.82937
-5.83561
-5.83515
-5.83567
-5.83618
-5.83669
-5.83724
-5.83781
-5.83842
-5.83907
-5.83976
-5.8405
-5.84127
-5.84209
-5.84296
-5.84386
-5.84479
-5.84576
-5.84675
-5.84777
-5.84881
-5.84987
-5.85095
-5.8534
-5.85722
-5.86034
-5.86173
-5.85952
-5.85304
-5.8402
-5.81864
-5.7869
-5.74905
-5.72904
-5.72915
-5.73363
-5.7989
-6.30564
-8.56941
-8.01088
-6.41834
-5.83906
-5.73759
-5.72953
-5.72911
-5.72911
)
;
    }
    defaultFaces
    {
        type            empty;
    }
}


// ************************************************************************* //
