/*--------------------------------*- C++ -*----------------------------------*\
| =========                 |                                                 |
| \\      /  F ield         | OpenFOAM: The Open Source CFD Toolbox           |
|  \\    /   O peration     | Version:  2206                                  |
|   \\  /    A nd           | Website:  www.openfoam.com                      |
|    \\/     M anipulation  |                                                 |
\*---------------------------------------------------------------------------*/
FoamFile
{
    version     2.0;
    format      ascii;
    arch        "LSB;label=32;scalar=64";
    class       volScalarField;
    location    "0.525";
    object      p_rgh;
}
// * * * * * * * * * * * * * * * * * * * * * * * * * * * * * * * * * * * * * //

dimensions      [1 -1 -2 0 0 0 0];

internalField   nonuniform List<scalar> 
2268
(
890.276
890.62
891.37
892.276
893.107
893.837
894.578
895.467
896.585
897.966
899.611
901.516
903.628
905.931
908.378
910.899
913.386
915.68
917.583
918.939
919.817
920.688
921.72
889.871
890.196
890.957
891.89
892.745
893.499
894.263
895.173
896.314
897.714
899.369
901.245
903.342
905.613
908.031
910.551
913.088
915.495
917.537
918.973
919.84
920.624
922.086
889.012
889.337
890.105
891.094
891.994
892.798
893.612
894.571
895.762
897.216
898.926
900.868
903.012
905.321
907.748
910.236
912.713
915.086
917.266
919.167
920.829
922.393
923.65
887.667
887.989
888.756
889.844
890.812
891.697
892.592
893.635
894.916
896.462
898.261
900.287
902.502
904.877
907.36
909.9
912.43
914.879
917.197
919.394
921.525
923.56
925.243
885.771
886.096
886.821
888.115
889.149
890.146
891.163
892.335
893.753
895.438
897.371
899.518
901.848
904.318
906.894
909.529
912.169
914.752
917.228
919.578
921.848
924.016
925.863
883.222
883.609
884.443
885.737
887.025
888.165
889.321
890.661
892.267
894.14
896.25
898.557
901.028
903.629
906.326
909.079
911.837
914.544
917.145
919.587
921.839
923.853
925.382
879.812
880.266
881.132
882.641
884.288
885.68
887.041
888.613
890.473
892.59
894.917
897.414
900.05
902.798
905.63
908.506
911.372
914.164
916.801
919.168
921.083
922.251
922.267
875.325
875.733
876.017
877.621
880.025
882.247
884.208
886.195
888.399
890.82
893.406
896.123
898.947
901.857
904.825
907.811
910.757
913.579
916.148
918.319
919.688
920.173
914.515
336.288
296.616
238.301
216.594
241.863
289.112
377.669
557.421
700.063
666.13
619.083
669.706
770.364
825.393
838.056
775.808
635.687
715.549
1008.88
342.34
275.366
207.213
201.391
224.819
263.99
343.853
528.317
677.93
638.007
596.737
651.671
767.558
841.625
843.298
775.664
612.822
666.425
992.309
360.523
241.661
199.468
199.103
223.723
261.76
379.728
544.889
613.7
572.805
538.073
590.332
712.908
827.024
858.222
748.815
574.519
597.012
961.129
360.852
227.769
200.273
199.3
223.114
305.014
447.573
512.634
539.639
501.386
481.999
521.835
634.265
763.112
852.338
723.203
528.59
495.949
903.964
359.154
231.366
204.217
202.184
269.161
435.082
461.002
470.522
459.292
407.048
405.213
447.829
554.123
686.037
786.823
726.393
511.502
452.19
900.279
329.089
244.29
209.456
253.373
457.678
476.572
451.539
427.355
323.737
169.403
174.52
303.088
462.558
605.128
715.533
739.917
511.755
472.143
913.925
345.761
277.9
311.486
506.616
516.23
485.163
449.068
291.884
82.4355
3.33235
3.67466
25.7164
210.062
518.895
648.704
711.468
593.729
558.725
983.908
483.123
496.226
598.032
567.283
536.7
501.356
358.959
68.8775
2.88747
1.07831
0.778232
1.22782
4.8317
349.982
583.851
689.247
731.687
750.205
1122.46
866.648
864.477
864.519
866.787
871.663
876.028
879.336
882.131
884.896
887.783
890.777
893.846
896.972
900.136
903.31
906.442
909.433
912.108
914.081
914.757
912.135
903.907
877.263
860.402
855.134
852.303
854.726
861.977
868.222
872.262
875.749
879.285
882.851
886.44
890.028
893.582
897.081
900.507
903.805
906.865
909.499
911.424
912.212
911.369
908.289
903.403
861.217
825.433
759.528
682.438
698.425
749.468
782.794
802.562
820.618
835.684
847.89
858.238
867.39
875.728
883.443
890.552
896.901
902.272
906.504
909.353
910.592
909.437
905.475
331.209
229.103
129.294
99.6765
149.479
196.657
197.774
208.523
226.157
246.575
268.687
291.417
314.171
337.294
361.426
386.838
413.19
439.401
464.126
486.026
502.373
511.49
504.42
0.361504
0.320249
0.302998
4.73803
2.91928
0.372342
0.384074
0.387755
0.383732
0.38039
0.378773
0.377989
0.377766
0.378065
0.378574
0.378963
0.379079
0.37884
0.378211
0.377056
0.375234
0.372952
0.372427
0.354371
0.339037
0.33908
0.359252
0.375978
0.372587
0.371693
0.372588
0.371939
0.370855
0.370443
0.370639
0.371231
0.372123
0.37318
0.374198
0.375027
0.375571
0.375731
0.375422
0.374709
0.373461
0.37293
0.341431
0.327824
0.313182
0.322413
0.345999
0.353205
0.35426
0.355729
0.356456
0.356751
0.357157
0.357831
0.358718
0.359773
0.360966
0.362176
0.363191
0.36376
0.363672
0.362856
0.36134
0.359366
0.358096
0.326706
0.327344
0.327915
0.330628
0.333104
0.335209
0.336608
0.3377
0.338716
0.339636
0.340539
0.341534
0.342662
0.343908
0.345206
0.346402
0.347258
0.347504
0.346972
0.34543
0.342766
0.339752
0.339321
0.312642
0.31286
0.31286
0.313407
0.315094
0.317099
0.318739
0.320011
0.321088
0.322074
0.323034
0.324029
0.325097
0.326231
0.327347
0.328262
0.328701
0.328434
0.32731
0.326287
0.334011
0.338371
0.357196
0.298578
0.298658
0.298728
0.29906
0.299654
0.300462
0.301335
0.30216
0.302926
0.303658
0.304381
0.305118
0.305889
0.306675
0.307391
0.307874
0.307882
0.307326
0.314573
0.343424
0.352294
0.34629
0.339927
0.282707
0.282709
0.282607
0.28271
0.282962
0.283316
0.283732
0.28416
0.28457
0.284956
0.285322
0.285672
0.286007
0.286309
0.286523
0.286536
0.286198
0.285524
0.335848
0.340523
0.336383
0.331951
0.307643
0.266211
0.266136
0.265906
0.265821
0.265828
0.265882
0.265965
0.266053
0.266124
0.266163
0.266161
0.266109
0.265994
0.265801
0.265502
0.265035
0.26434
0.266964
0.319341
0.323957
0.322261
0.320203
0.268053
0.249083
0.248938
0.248648
0.248457
0.248307
0.248167
0.248026
0.24787
0.247681
0.247446
0.247151
0.246779
0.246315
0.245745
0.24505
0.244205
0.243194
0.24406
0.250885
0.291109
0.306829
0.301306
0.268246
0.231539
0.231362
0.231061
0.230811
0.230562
0.230298
0.230009
0.229684
0.229314
0.228885
0.228386
0.227804
0.227126
0.22634
0.225437
0.22441
0.223262
0.222031
0.220738
0.219882
0.248838
0.227662
0.234706
0.213754
0.213573
0.213285
0.213006
0.212696
0.212348
0.211956
0.211514
0.211014
0.210448
0.20981
0.209091
0.208286
0.20739
0.206399
0.205319
0.204164
0.202967
0.201795
0.200743
0.199947
0.199706
0.199638
0.195905
0.195743
0.195475
0.19518
0.194829
0.194418
0.193946
0.193409
0.192804
0.192126
0.191371
0.190536
0.189622
0.188629
0.187561
0.186426
0.18524
0.184033
0.182846
0.181735
0.180776
0.180064
0.179587
0.178123
0.177981
0.177728
0.177419
0.177033
0.176569
0.176027
0.175406
0.174703
0.173917
0.173048
0.172093
0.171056
0.169941
0.168756
0.16751
0.166216
0.164896
0.163576
0.162291
0.161085
0.160004
0.159089
0.160498
0.160374
0.160127
0.159799
0.159376
0.158858
0.158247
0.157541
0.156741
0.155845
0.154854
0.153768
0.15259
0.151326
0.149983
0.148572
0.147103
0.145593
0.144061
0.142526
0.141019
0.139572
0.138218
0.143065
0.14295
0.1427
0.142349
0.141886
0.141314
0.140632
0.13984
0.138939
0.137929
0.13681
0.135583
0.13425
0.132816
0.131288
0.129675
0.127987
0.126234
0.124431
0.122594
0.12074
0.118894
0.117085
0.125879
0.125764
0.125501
0.12512
0.124613
0.123981
0.123225
0.122344
0.121339
0.120209
0.118956
0.117579
0.116081
0.114464
0.112733
0.110895
0.108957
0.106929
0.104819
0.102638
0.100401
0.0981264
0.0958337
0.108981
0.108859
0.108579
0.108165
0.10761
0.106916
0.106083
0.10511
0.103997
0.102744
0.101352
0.0998195
0.0981482
0.096339
0.0943941
0.0923174
0.0901139
0.0877894
0.0853497
0.0828019
0.0801554
0.0774232
0.0746194
0.0924365
0.0923014
0.0919976
0.0915467
0.0909419
0.0901839
0.0892721
0.088206
0.0869848
0.0856077
0.0840742
0.0823837
0.0805355
0.0785291
0.0763645
0.0740424
0.0715646
0.0689334
0.0661514
0.0632214
0.060148
0.056939
0.0536016
0.0763079
0.0761564
0.0758272
0.0753384
0.0746828
0.0738606
0.0728708
0.0717123
0.0703838
0.0688839
0.067211
0.0653634
0.0633392
0.061136
0.0587514
0.0561832
0.0534299
0.05049
0.0473622
0.0440446
0.0405371
0.0368417
0.0329587
0.0606575
0.0604882
0.0601338
0.0596079
0.0589032
0.0580193
0.0569549
0.055708
0.0542767
0.052659
0.0508522
0.0488536
0.0466594
0.0442657
0.0416677
0.0388603
0.0358383
0.0325965
0.0291291
0.0254296
0.0214924
0.0173139
0.0128866
0.0455502
0.0453622
0.0449841
0.0444233
0.043673
0.0427319
0.0415983
0.0402698
0.0387438
0.0370171
0.0350865
0.0329476
0.0305955
0.0280241
0.0252263
0.0221943
0.0189194
0.0153924
0.0116028
0.0075391
0.00319024
-0.00145332
-0.0064065
0.0310441
0.0308374
0.0304386
0.0298468
0.0290561
0.0280647
0.0268701
0.0254697
0.0238601
0.0220375
0.0199974
0.0177344
0.015242
0.0125122
0.00953576
0.0063021
0.00279929
-0.000986003
-0.00506874
-0.00946561
-0.014193
-0.0192665
-0.0247078
0.0171919
0.0169673
0.0165511
0.0159338
0.0151096
0.0140766
0.0128318
0.0113721
0.00969352
0.00779158
0.00566087
0.00329481
0.000685401
-0.00217699
-0.00530373
-0.00870798
-0.0124047
-0.016411
-0.020746
-0.0254314
-0.0304886
-0.0359386
-0.0418092
0.0040384
0.00379915
0.0033697
0.00273335
0.00188382
0.000819449
-0.000462746
-0.00196688
-0.00369696
-0.00565828
-0.007857
-0.0103007
-0.0129987
-0.0159622
-0.0192043
-0.0227406
-0.0265886
-0.0307686
-0.0353038
-0.0402199
-0.0455427
-0.0512982
-0.0575182
-0.00838399
-0.00863009
-0.00906811
-0.00971618
-0.0105812
-0.0116652
-0.0129706
-0.0145021
-0.016264
-0.018262
-0.020503
-0.0229955
-0.0257496
-0.0287779
-0.0320951
-0.0357183
-0.0396676
-0.0439658
-0.0486391
-0.0537165
-0.0592271
-0.0652006
-0.0716711
-0.0200526
-0.0202939
-0.0207356
-0.0213874
-0.0222573
-0.0233479
-0.0246609
-0.0262013
-0.0279737
-0.0299839
-0.0322394
-0.0347491
-0.037524
-0.0405775
-0.0439253
-0.047586
-0.051581
-0.0559353
-0.0606771
-0.0658375
-0.0714474
-0.0775387
-0.0841456
-0.0309457
-0.0311707
-0.031611
-0.0322577
-0.0331222
-0.0342054
-0.0355097
-0.0370401
-0.0388007
-0.0407979
-0.043039
-0.0455333
-0.0482923
-0.0513296
-0.0546616
-0.0583075
-0.0622897
-0.0666343
-0.0713705
-0.07653
-0.0821441
-0.0882447
-0.0948637
-0.0410404
-0.0412414
-0.0416761
-0.0423081
-0.043157
-0.0442195
-0.0454985
-0.0469999
-0.0487265
-0.0506852
-0.0528831
-0.0553293
-0.0580353
-0.0610147
-0.064284
-0.0678624
-0.0717726
-0.0760408
-0.080696
-0.0857692
-0.0912902
-0.0972888
-0.103792
-0.0503358
-0.0505073
-0.0509345
-0.0515424
-0.0523648
-0.0533948
-0.0546324
-0.0560863
-0.0577575
-0.059653
-0.0617795
-0.0641457
-0.0667627
-0.0696437
-0.0728046
-0.0762643
-0.0800449
-0.0841717
-0.0886726
-0.0935763
-0.0989094
-0.104698
-0.110962
-0.0588724
-0.0590058
-0.0594241
-0.0600017
-0.0607844
-0.0617713
-0.0629527
-0.0643421
-0.0659384
-0.0677481
-0.0697776
-0.0720348
-0.0745298
-0.0772752
-0.0802859
-0.0835797
-0.0871775
-0.0911029
-0.0953816
-0.100039
-0.105097
-0.110576
-0.116489
-0.0666863
-0.0667692
-0.0671693
-0.0677168
-0.0684462
-0.0693799
-0.0704941
-0.071805
-0.0733107
-0.0750165
-0.0769279
-0.0790517
-0.0813971
-0.0839753
-0.0867999
-0.0898872
-0.0932564
-0.0969287
-0.100926
-0.105271
-0.109979
-0.115064
-0.120531
-0.0737325
-0.0737656
-0.0741243
-0.0746483
-0.075319
-0.0761925
-0.0772333
-0.0784565
-0.0798604
-0.0814483
-0.0832247
-0.0851955
-0.0873685
-0.0897533
-0.0923621
-0.0952093
-0.0983119
-0.101688
-0.105356
-0.109333
-0.113629
-0.118252
-0.123196
-0.079934
-0.0799657
-0.0802614
-0.0807726
-0.0813927
-0.0822053
-0.0831711
-0.0843004
-0.0855932
-0.0870513
-0.0886783
-0.0904789
-0.0924597
-0.0946289
-0.0969968
-0.0995758
-0.10238
-0.105424
-0.108722
-0.112285
-0.116121
-0.120227
-0.124593
-0.0853622
-0.0854918
-0.0857378
-0.0862494
-0.0868321
-0.0875853
-0.0884752
-0.0895067
-0.090682
-0.092002
-0.0934695
-0.0950883
-0.0968634
-0.0988015
-0.100911
-0.103201
-0.105684
-0.10837
-0.111269
-0.11439
-0.117732
-0.121289
-0.125046
-0.0902343
-0.0905776
-0.0907942
-0.091309
-0.0918622
-0.0925581
-0.093375
-0.0943128
-0.0953735
-0.0965576
-0.0978669
-0.099304
-0.100873
-0.102578
-0.104425
-0.106423
-0.108578
-0.1109
-0.113394
-0.116063
-0.118904
-0.121909
-0.125058
-0.0946153
-0.0952041
-0.095373
-0.0958766
-0.0964172
-0.0970729
-0.097832
-0.0986901
-0.0996477
-0.100706
-0.101865
-0.103129
-0.104499
-0.105978
-0.107572
-0.109285
-0.111121
-0.113086
-0.115181
-0.117406
-0.119757
-0.122225
-0.124791
-0.0984682
-0.0991072
-0.0993282
-0.0998699
-0.100443
-0.101084
-0.101795
-0.102575
-0.103427
-0.104354
-0.105359
-0.106443
-0.107609
-0.10886
-0.110196
-0.111619
-0.113131
-0.114732
-0.116423
-0.1182
-0.120061
-0.121998
-0.123999
-0.101367
-0.102999
-0.103459
-0.104082
-0.104671
-0.105271
-0.1059
-0.106567
-0.107279
-0.108041
-0.108857
-0.109729
-0.110657
-0.111643
-0.112686
-0.113784
-0.114935
-0.116137
-0.117389
-0.118684
-0.120021
-0.121398
-0.122811
782.039
869.574
862.959
806.474
879.715
870.497
855.63
816.31
882.024
822.048
740.335
627.12
410.897
222.242
91.2482
0.980518
0.376256
0.40869
0.527549
0.64723
0.372181
0.395581
0.733928
1.02167
0.356326
0.439656
1.07712
1.10646
0.331157
0.406973
0.650014
0.773053
0.327967
0.333569
0.348945
0.340666
0.300485
0.309054
0.322879
0.317714
0.2663
0.287134
0.296229
0.294835
0.257251
0.267362
0.272792
0.27322
0.253234
0.246829
0.250147
0.251802
0.232668
0.225169
0.227171
0.229638
0.199924
0.202505
0.203657
0.206256
0.17888
0.178976
0.179386
0.181425
0.157299
0.155406
0.154279
0.155021
0.135337
0.131437
0.128337
0.127015
0.113089
0.10706
0.101557
0.09746
0.0906643
0.0823325
0.0740223
0.0664924
0.0682076
0.057387
0.0458997
0.0343352
0.0458887
0.032418
0.0174382
0.00130675
0.02391
0.0076775
-0.0110323
-0.0321674
0.002501
-0.0165326
-0.0391048
-0.0655433
-0.0180887
-0.03987
-0.0663036
-0.0981595
-0.0375974
-0.0619656
-0.0920965
-0.12925
-0.055764
-0.0824409
-0.115914
-0.157965
-0.0723428
-0.100927
-0.137186
-0.183417
-0.0871214
-0.117092
-0.15539
-0.204752
-0.0999374
-0.130675
-0.170101
-0.221247
-0.110687
-0.141506
-0.181032
-0.232403
-0.119326
-0.149517
-0.188069
-0.238019
-0.125898
-0.154772
-0.191317
-0.238255
-0.130549
-0.157494
-0.191131
-0.233673
-0.133482
-0.158002
-0.188034
-0.225144
-0.134852
-0.156588
-0.182556
-0.21362
-0.134826
-0.153552
-0.17524
-0.200073
-0.133796
-0.149446
-0.16689
-0.185684
-0.132345
-0.145044
-0.158574
-0.172087
-0.13069
-0.140702
-0.150844
-0.159996
-0.128572
-0.136139
-0.143379
-0.149043
-0.126026
-0.131177
-0.135717
-0.138458
742.607
692.047
648.107
614.764
521.897
348.67
74.823
1.17144
0.677926
0.641005
0.678065
0.80636
1.17102
21.0254
262.292
655.925
801.253
1013.1
1325.49
776.332
730.559
615.778
408.278
61.2672
0.38056
0.455282
0.560382
0.524158
0.556422
0.61132
0.696975
0.81317
1.19338
6.35257
307.96
806.035
1140.15
1469.34
481.416
283.881
22.4225
0.179009
0.316153
0.34753
0.405196
0.459463
0.468806
0.472503
0.513782
0.613293
0.768467
0.930973
1.78796
8.46094
629.214
1124.73
1470.89
0.504075
0.409147
0.407931
0.285733
0.276432
0.337619
0.404657
0.439988
0.431937
0.4111
0.445214
0.556585
0.721002
0.855983
1.1511
2.64236
388.511
1037.42
1395.31
0.53868
0.512593
0.640779
0.569891
0.33072
0.328183
0.401578
0.43426
0.421385
0.387185
0.408576
0.520367
0.689635
0.833993
1.06992
1.47759
126.654
972.562
1337.31
1.08254
0.970801
0.87956
0.758078
0.28688
0.32168
0.392566
0.429097
0.426375
0.396492
0.408637
0.508312
0.670308
0.819032
1.10073
1.52332
38.204
1005.91
1339.28
1.04687
0.829576
0.473273
0.225422
0.260461
0.326981
0.387803
0.427347
0.43943
0.42742
0.43996
0.519432
0.660191
0.807938
1.18455
1.92759
72.7378
1101.54
1387.67
0.523261
0.300296
0.273009
0.26871
0.297638
0.343753
0.391387
0.431689
0.457327
0.465403
0.481183
0.543185
0.652356
0.780306
1.25941
2.48239
136.184
1247.02
1458.28
0.321611
0.304603
0.292577
0.297151
0.320464
0.356685
0.398071
0.439143
0.474545
0.499129
0.521076
0.569572
0.642854
0.705807
1.22523
3.95196
288.38
1437.21
1545.15
0.307864
0.300817
0.29872
0.308921
0.331704
0.36443
0.403408
0.445464
0.487298
0.523782
0.553798
0.590176
0.613567
0.532671
0.971342
78.4101
749.724
1495.15
1643.86
0.291916
0.292017
0.296904
0.311205
0.334772
0.36658
0.404842
0.447646
0.492501
0.535511
0.570309
0.592374
0.562359
0.297367
0.350656
298.54
1264.22
1505.88
1749.6
0.274994
0.279624
0.288995
0.305989
0.330759
0.362743
0.400891
0.443827
0.489073
0.532741
0.566003
0.568217
0.492623
0.472579
2.03807
58.3085
1089.8
1801.14
1858.59
0.256251
0.263625
0.275797
0.294585
0.320323
0.352654
0.390915
0.433274
0.477261
0.517626
0.545202
0.533581
0.446922
0.54156
1.7804
0.17203
398.089
1960.54
1970.65
0.235418
0.244258
0.257903
0.277589
0.303707
0.336043
0.373898
0.415594
0.457787
0.494051
0.517276
0.500662
0.419564
0.205803
0.0365676
0.441012
44.8096
2062.53
2085.6
0.212343
0.221584
0.235554
0.25521
0.280977
0.312776
0.34991
0.390794
0.431717
0.466355
0.488807
0.476905
0.422758
0.270698
0.132087
0.160184
0.766532
1477.77
2205.09
0.186905
0.195577
0.20883
0.227492
0.252053
0.282597
0.318554
0.358616
0.399097
0.434254
0.460556
0.46064
0.433341
0.363847
0.303993
0.337914
0.59835
504.557
2326.73
0.159043
0.166214
0.177723
0.194352
0.216701
0.245065
0.279171
0.318208
0.358889
0.396452
0.429916
0.447374
0.445262
0.42706
0.441208
0.516591
0.667835
286.387
2447
0.128742
0.133485
0.142192
0.155635
0.17455
0.199518
0.230799
0.26799
0.3089
0.349977
0.392526
0.430785
0.460189
0.466866
0.518268
0.617786
0.704795
351.719
2567.2
0.0960579
0.097431
0.102209
0.111155
0.125136
0.145063
0.171831
0.205659
0.24594
0.29064
0.342818
0.404189
0.460485
0.486779
0.557433
0.690174
0.776613
435.459
2687.05
0.0611353
0.0581687
0.0578059
0.0607544
0.0679671
0.0806895
0.100461
0.128405
0.165707
0.212603
0.273401
0.357717
0.435345
0.657641
1.58894
0.85806
0.995995
513.393
2807.63
0.0242189
0.0159219
0.0091185
0.00437029
0.00260259
0.00531049
0.0146183
0.0329715
0.0627695
0.108041
0.174697
0.276627
0.380899
0.999527
1.64235
0.952572
1.23249
594.153
2929.16
-0.0143253
-0.0289377
-0.0435505
-0.0578908
-0.0712666
-0.0821121
-0.0879205
-0.0848008
-0.0692011
-0.033385
0.034105
0.147889
0.287726
0.460602
1.41002
2.92629
2.49408
652.164
3051.17
-0.0539872
-0.0758484
-0.0996643
-0.125652
-0.153685
-0.182414
-0.209536
-0.229638
-0.237844
-0.225143
-0.166239
-0.0402775
0.135746
0.315801
0.624142
3.11715
3.09699
668.758
3173.31
-0.0940885
-0.124016
-0.158369
-0.198136
-0.244225
-0.295989
-0.352612
-0.407273
-0.453955
-0.485754
-0.451646
-0.313992
-0.0958477
0.17819
0.499341
1.51183
1.80785
675.454
3295.19
-0.133759
-0.172368
-0.218406
-0.274023
-0.341761
-0.422582
-0.51906
-0.623911
-0.73308
-0.843429
-0.858476
-0.714434
-0.457444
-0.0733843
0.407895
0.792662
1.24566
684.813
3416.81
-0.171933
-0.219514
-0.278033
-0.351273
-0.444208
-0.561024
-0.709673
-0.88738
-1.09982
-1.33442
-1.38261
-1.27631
-0.968574
-0.457231
0.208526
0.70103
1.23467
679.519
3535.64
-0.207374
-0.263743
-0.334955
-0.426914
-0.548097
-0.708094
-0.922751
-1.2107
-1.5871
-1.9837
-1.8873
-0.992522
-1.70647
-0.985298
-0.00602758
0.698769
1.42414
641.857
3571.49
-0.23873
-0.303072
-0.386321
-0.496896
-0.647932
-0.856494
-1.15214
-1.60236
-2.18814
-2.77904
-2.04389
2.22205
1.12256
-1.76482
1.06553
1.4463
1.8064
627.631
3614.03
-0.264639
-0.335395
-0.428864
-0.556181
-0.735898
-0.994329
-1.38384
-2.02962
-2.79207
-2.61884
0.0683096
0.430454
1.03416
2.07043
4.64695
1.94043
2.3432
660.911
3724.82
-0.283878
-0.358724
-0.459253
-0.599112
-0.80242
-1.10648
-1.59002
-2.40619
-2.84073
11.3329
3.84951
-3.06502
-1.61331
1.25791
4.3194
1.72415
2.89359
720.518
3835.56
-0.295554
-0.371508
-0.474666
-0.620442
-0.837681
-1.17454
-1.72657
-2.66369
6.66599
12.5481
-5.33186
-6.85332
-5.9353
0.255066
3.87018
2.15805
4.50426
897.216
2807.07
-0.299271
-0.372955
-0.473478
-0.617026
-0.834634
-1.18109
-1.75774
0.0336508
15.4542
7.71435
-7.08597
-7.33679
-6.51454
-3.88417
2.67896
2.89438
69.9837
899.227
172.947
-0.295259
-0.363314
-0.455736
-0.588373
-0.790364
-1.11902
-1.64416
3.30476
27.4869
0.658239
-6.74068
-7.21101
-6.43417
-4.33138
-0.994487
3.57407
45.5272
916.14
40.5001
-0.284435
-0.344069
-0.423417
-0.536954
-0.706215
-0.981248
-1.48006
4.81909
42.6961
6.16849
-5.74061
-6.22901
-5.64188
-3.81983
-0.737046
5.00342
494.266
931.17
40.0477
-0.268243
-0.317753
-0.379502
-0.467556
-0.593045
-0.800021
-1.15084
3.5004
59.0376
35.958
-4.52759
-4.86748
-4.57974
-2.84389
1.73437
221.877
656.315
661.098
39.1471
-0.24815
-0.285487
-0.33043
-0.389078
-0.466955
-0.599087
-0.805235
-0.6661
71.6527
153.369
2.09965
-3.6622
-3.2905
0.0999565
234.599
648.818
636.265
44.5019
2.11807
-0.226029
-0.251698
-0.279435
-0.309891
-0.342191
-0.394531
-0.46899
-0.185898
55.4208
207.161
192.758
16.2576
82.7427
340.945
548.584
601.037
300.792
-0.448442
-0.652643
-0.203807
-0.218914
-0.231231
-0.237743
-0.232976
-0.220105
-0.187831
0.131821
11.4955
195.093
310.457
338.741
392.711
425.071
444.536
149.373
2.29937
-0.52633
-0.535336
-0.183252
-0.189715
-0.189671
-0.178306
-0.148628
-0.096672
-0.0163093
0.190813
1.19742
72.1637
285.365
332.91
369.398
267.554
66.4376
2.72553
-0.446041
-0.465497
-0.438168
-0.165697
-0.165667
-0.156911
-0.134171
-0.0907966
-0.0228624
0.0630164
0.158657
0.382115
5.87176
76.0063
179.387
88.8872
20.5356
2.7875
-0.0540595
-0.420503
-0.35229
-0.330369
-0.150708
-0.14644
-0.132939
-0.105387
-0.0582238
0.0105304
0.0821448
0.127229
0.148966
0.3785
2.09983
5.48569
3.86959
1.3002
0.113922
-0.284887
-0.272958
-0.222318
-0.206061
-0.137242
-0.130889
-0.116643
-0.0909806
-0.0506121
0.00360451
0.0469188
0.0649839
0.0420818
-0.0298546
-0.0355149
0.800631
0.369559
-0.16193
-0.217256
-0.144661
-0.099296
-0.076886
-0.0684455
)
;

boundaryField
{
    leftWall
    {
        type            fixedFluxPressure;
        gradient        uniform 0;
        value           nonuniform List<scalar> 
50
(
890.276
889.871
889.012
887.667
885.771
883.222
879.812
875.325
866.648
860.402
861.217
331.209
0.361504
0.354371
0.341431
0.326706
0.312642
0.298578
0.282707
0.266211
0.249083
0.231539
0.213754
0.195905
0.178123
0.160498
0.143065
0.125879
0.108981
0.0924365
0.0763079
0.0606575
0.0455502
0.0310441
0.0171919
0.0040384
-0.00838399
-0.0200526
-0.0309457
-0.0410404
-0.0503358
-0.0588724
-0.0666863
-0.0737325
-0.079934
-0.0853622
-0.0902343
-0.0946153
-0.0984682
-0.101367
)
;
    }
    rightWall
    {
        type            fixedFluxPressure;
        gradient        uniform 0;
        value           nonuniform List<scalar> 
50
(
1008.88
992.309
961.129
903.964
900.279
913.925
983.908
1122.46
1325.49
1469.34
1470.89
1395.31
1337.31
1339.28
1387.67
1458.28
1545.15
1643.86
1749.6
1858.59
1970.65
2085.6
2205.09
2326.73
2447
2567.2
2687.05
2807.63
2929.16
3051.17
3173.31
3295.19
3416.81
3535.64
3571.49
3614.03
3724.82
3835.56
2807.07
172.947
40.5001
40.0477
39.1471
2.11807
-0.652643
-0.535336
-0.438168
-0.330369
-0.206061
-0.0684455
)
;
    }
    lowerWall
    {
        type            fixedFluxPressure;
        gradient        uniform 0;
        value           nonuniform List<scalar> 
62
(
890.276
890.62
891.37
892.276
893.107
893.837
894.578
895.467
896.585
897.966
899.611
901.516
903.628
905.931
908.378
910.899
913.386
915.68
917.583
918.939
919.817
920.688
921.72
921.72
922.086
923.65
925.243
925.863
925.382
922.267
914.515
782.039
869.574
862.959
806.474
336.288
342.34
360.523
360.852
359.154
329.089
345.761
483.123
336.288
296.616
238.301
216.594
241.863
289.112
377.669
557.421
700.063
666.13
619.083
669.706
770.364
825.393
838.056
775.808
635.687
715.549
1008.88
)
;
    }
    atmosphere
    {
        type            totalPressure;
        rho             rho;
        psi             none;
        gamma           1;
        p0              uniform 0;
        value           nonuniform List<scalar> 
46
(
-0.100333
-0.106572
-0.106106
-0.106629
-0.107135
-0.107655
-0.108198
-0.108772
-0.109381
-0.11003
-0.110721
-0.111455
-0.112234
-0.113055
-0.113918
-0.114818
-0.115753
-0.11672
-0.117714
-0.118731
-0.119768
-0.120827
-0.121906
-0.124359
-0.128182
-0.131302
-0.132689
-0.130477
-0.124
-0.111159
-0.0895979
-0.0578613
-0.0200091
0
0
0
0
0
0
0
0
0
0
0
0
0
)
;
    }
    defaultFaces
    {
        type            empty;
    }
}


// ************************************************************************* //
