/*--------------------------------*- C++ -*----------------------------------*\
| =========                 |                                                 |
| \\      /  F ield         | OpenFOAM: The Open Source CFD Toolbox           |
|  \\    /   O peration     | Version:  2206                                  |
|   \\  /    A nd           | Website:  www.openfoam.com                      |
|    \\/     M anipulation  |                                                 |
\*---------------------------------------------------------------------------*/
FoamFile
{
    version     2.0;
    format      ascii;
    arch        "LSB;label=32;scalar=64";
    class       surfaceScalarField;
    location    "0.525";
    object      phi;
}
// * * * * * * * * * * * * * * * * * * * * * * * * * * * * * * * * * * * * * //

dimensions      [0 3 -1 0 0 0 0];

oriented        oriented;

internalField   nonuniform List<scalar> 
4432
(
-7.31404e-07
7.31404e-07
-3.45507e-07
-3.85896e-07
7.53267e-07
-1.09877e-06
2.1425e-06
-1.38923e-06
3.50676e-06
-1.36426e-06
4.66593e-06
-1.15917e-06
5.55238e-06
-8.86456e-07
6.1754e-06
-6.23018e-07
6.58267e-06
-4.07267e-07
6.82751e-06
-2.44844e-07
6.94562e-06
-1.18106e-07
6.95214e-06
-6.52366e-09
6.81864e-06
1.33505e-07
6.49453e-06
3.24106e-07
5.91499e-06
5.79544e-07
5.00947e-06
9.05512e-07
3.72827e-06
1.28121e-06
2.0998e-06
1.62847e-06
2.83109e-07
1.81669e-06
-1.40239e-06
1.6855e-06
-2.34024e-06
9.37849e-07
-1.87353e-06
-4.66703e-07
-1.87353e-06
-7.85242e-07
1.51665e-06
-4.19251e-07
-7.51888e-07
6.72071e-07
-2.1901e-06
2.08695e-06
-2.80411e-06
3.50348e-06
-2.78079e-06
4.725e-06
-2.38069e-06
5.66879e-06
-1.83025e-06
6.33674e-06
-1.29097e-06
6.77733e-06
-8.47855e-07
7.05187e-06
-5.19378e-07
7.21574e-06
-2.81981e-07
7.30407e-06
-9.48503e-08
7.34055e-06
9.70255e-08
7.3459e-06
3.18753e-07
7.30575e-06
6.19688e-07
7.17223e-06
1.03903e-06
6.84218e-06
1.61126e-06
6.18322e-06
2.28743e-06
5.09539e-06
2.90451e-06
3.65438e-06
3.12651e-06
2.08114e-06
2.51108e-06
5.9509e-07
1.01935e-06
-1.27844e-06
-8.56981e-07
2.37363e-06
-5.77393e-07
-1.03148e-06
4.81832e-07
-3.24932e-06
1.92142e-06
-4.2437e-06
3.40168e-06
-4.26104e-06
4.7024e-06
-3.68141e-06
5.71803e-06
-2.84588e-06
6.43789e-06
-2.01083e-06
6.9098e-06
-1.31977e-06
7.20175e-06
-8.11335e-07
7.37312e-06
-4.53352e-07
7.45979e-06
-1.81513e-07
7.48993e-06
6.68844e-08
7.46141e-06
3.47268e-07
7.38755e-06
6.93548e-07
7.29368e-06
1.13291e-06
7.21201e-06
1.69292e-06
7.1132e-06
2.38624e-06
6.84532e-06
3.17239e-06
6.11243e-06
3.8594e-06
4.59379e-06
4.02972e-06
2.44196e-06
3.17118e-06
1.16352e-06
-9.66828e-07
3.34045e-06
-7.85919e-07
-1.21239e-06
2.42543e-07
-4.27778e-06
1.70926e-06
-5.71042e-06
3.25501e-06
-5.8068e-06
4.64316e-06
-5.06956e-06
5.74697e-06
-3.94969e-06
6.53948e-06
-2.80334e-06
7.06298e-06
-1.84327e-06
7.38948e-06
-1.13784e-06
7.58846e-06
-6.52334e-07
7.71054e-06
-3.03593e-07
7.77883e-06
-1.4143e-09
7.79982e-06
3.26279e-07
7.76633e-06
7.27041e-07
7.66793e-06
1.2313e-06
7.51321e-06
1.84765e-06
7.32286e-06
2.57659e-06
7.07518e-06
3.42006e-06
6.57492e-06
4.35966e-06
5.38746e-06
5.21718e-06
3.12499e-06
5.43365e-06
4.2885e-06
-1.10441e-06
4.44486e-06
-1.02571e-06
-1.29108e-06
-3.31924e-08
-5.2703e-06
1.42488e-06
-7.1685e-06
3.03845e-06
-7.42036e-06
4.51238e-06
-6.54349e-06
5.70248e-06
-5.13979e-06
6.5759e-06
-3.67675e-06
7.17002e-06
-2.43739e-06
7.55585e-06
-1.52366e-06
7.80698e-06
-9.0346e-07
7.98008e-06
-4.76699e-07
8.10879e-06
-1.30124e-07
8.20267e-06
2.32398e-07
8.25359e-06
6.76121e-07
8.23851e-06
1.24638e-06
8.12223e-06
1.96393e-06
7.86709e-06
2.83173e-06
7.44503e-06
3.84212e-06
6.79664e-06
5.00805e-06
5.65581e-06
6.358e-06
3.47025e-06
7.61922e-06
7.75875e-06
-1.28439e-06
5.72925e-06
-1.39159e-06
-1.18388e-06
-6.13937e-07
-6.04796e-06
8.31597e-07
-8.61403e-06
2.61517e-06
-9.20394e-06
4.244e-06
-8.17232e-06
5.53741e-06
-6.4332e-06
6.49348e-06
-4.63283e-06
7.1706e-06
-3.11451e-06
7.64172e-06
-1.99478e-06
7.97748e-06
-1.23922e-06
8.23475e-06
-7.33965e-07
8.44983e-06
-3.45205e-07
8.64254e-06
3.96913e-08
8.80057e-06
5.18092e-07
8.90736e-06
1.13959e-06
8.91775e-06
1.95354e-06
8.7608e-06
2.98868e-06
8.33711e-06
4.26581e-06
7.5403e-06
5.80485e-06
6.19481e-06
7.7035e-06
3.79771e-06
1.00163e-05
1.15565e-05
-1.52441e-06
7.25367e-06
-2.01072e-06
-6.97574e-07
-1.69449e-06
-6.36419e-06
-3.07296e-07
-1.00012e-05
1.76127e-06
-1.12725e-05
3.69775e-06
-1.01088e-05
5.17975e-06
-7.91521e-06
6.24475e-06
-5.69783e-06
7.0162e-06
-3.88596e-06
7.59441e-06
-2.57299e-06
8.0496e-06
-1.69441e-06
8.43278e-06
-1.11714e-06
8.77914e-06
-6.91562e-07
9.10275e-06
-2.83928e-07
9.40643e-06
2.14417e-07
9.67647e-06
8.69546e-07
9.87307e-06
1.75695e-06
9.93163e-06
2.93011e-06
9.73265e-06
4.46479e-06
9.12707e-06
6.41044e-06
7.86772e-06
8.96285e-06
5.65803e-06
1.2226e-05
1.72145e-05
-1.71533e-06
8.969e-06
-2.58559e-06
1.72678e-07
-2.76447e-06
-6.18531e-06
-1.55235e-06
-1.12133e-05
6.69817e-07
-1.34947e-05
2.90929e-06
-1.23483e-05
4.63531e-06
-9.64123e-06
5.84601e-06
-6.90853e-06
6.72139e-06
-4.76134e-06
7.41165e-06
-3.26325e-06
8.00219e-06
-2.28495e-06
8.5392e-06
-1.65415e-06
9.05028e-06
-1.20264e-06
9.55135e-06
-7.85006e-07
1.00509e-05
-2.85127e-07
1.05373e-05
3.83105e-07
1.09877e-05
1.30654e-06
1.13497e-05
2.56811e-06
1.14994e-05
4.31515e-06
1.12209e-05
6.68896e-06
9.95599e-06
1.02277e-05
7.1151e-06
1.50669e-05
2.43296e-05
1.26625e-05
-1.26625e-05
-5.50366e-05
6.76991e-05
-0.000110005
5.49684e-05
-0.000118122
8.11662e-06
-0.000100403
-1.77185e-05
-7.24587e-05
-2.79443e-05
-3.9127e-05
-3.33317e-05
8.51032e-06
-4.76373e-05
4.96014e-05
-4.10911e-05
6.84828e-05
-1.88814e-05
6.50153e-05
3.46746e-06
3.95004e-05
2.5515e-05
3.7677e-06
3.57327e-05
-1.94055e-05
2.31732e-05
-2.78784e-05
8.47287e-06
-4.4446e-05
1.65677e-05
-6.19366e-05
1.74905e-05
-5.09572e-05
-1.09794e-05
-5.09572e-05
-4.33616e-05
3.0699e-05
-0.000104328
0.000128666
-0.000131796
8.24363e-05
-0.000108268
-1.54116e-05
-6.7336e-05
-5.86504e-05
-2.81495e-05
-6.71307e-05
2.21076e-05
-8.35888e-05
6.9713e-05
-9.52428e-05
9.49547e-05
-6.63328e-05
0.000105239
-2.91652e-05
0.000105634
3.07238e-06
9.34832e-05
3.76654e-05
6.13777e-05
6.78382e-05
1.30888e-05
7.1462e-05
-2.73727e-05
4.89344e-05
-5.04493e-05
3.96442e-05
-5.58373e-05
2.28785e-05
-4.05665e-05
-2.62502e-05
-9.15237e-05
-5.64062e-05
8.71053e-05
-7.67555e-05
0.000149015
-3.69295e-05
4.26102e-05
6.3958e-06
-5.87369e-05
2.44137e-05
-7.66684e-05
5.2769e-05
-9.54859e-05
8.28033e-05
-0.000113623
9.77733e-05
-0.000110213
0.000108694
-7.72531e-05
0.000114025
-3.44969e-05
0.000113898
3.20001e-06
0.000110167
4.13958e-05
9.49872e-05
8.30183e-05
5.7894e-05
0.000108555
5.91713e-06
0.000100911
-3.24175e-05
7.79788e-05
-4.66272e-05
3.70882e-05
-3.43785e-05
-3.84989e-05
-0.000125902
-1.59456e-05
0.000103051
9.50402e-06
0.000123565
4.78414e-05
4.2729e-06
6.34472e-05
-7.43426e-05
7.86573e-05
-9.18786e-05
9.25865e-05
-0.000109415
0.000100285
-0.000121321
0.000106109
-0.000116037
0.000113437
-8.4581e-05
0.000117309
-3.83694e-05
0.000117371
3.13814e-06
0.000114181
4.45857e-05
0.000107816
8.93833e-05
8.73526e-05
0.000129019
4.47644e-05
0.000143499
-3.67458e-06
0.000126418
-3.12869e-05
6.47006e-05
-2.8922e-05
-4.08639e-05
-0.000154824
1.03764e-05
9.26746e-05
6.44494e-05
6.94922e-05
9.43627e-05
-2.56403e-05
9.19371e-05
-7.1917e-05
9.53185e-05
-9.526e-05
9.91875e-05
-0.000113284
0.000104153
-0.000126287
0.000111126
-0.00012301
0.000118744
-9.21992e-05
0.000121533
-4.11575e-05
0.000121876
2.79428e-06
0.000117343
4.91192e-05
0.000112239
9.44868e-05
0.000102385
0.000138873
7.61566e-05
0.000169728
3.78584e-05
0.000164716
-4.80792e-06
0.000107367
-1.39581e-05
-3.17137e-05
-0.000168782
3.22024e-05
6.04722e-05
8.35057e-05
1.81888e-05
9.12044e-05
-3.3339e-05
9.1293e-05
-7.20056e-05
9.45248e-05
-9.84918e-05
0.000100379
-0.000119139
0.000107636
-0.000133543
0.000115205
-0.000130579
0.00012203
-9.90241e-05
0.000124008
-4.3135e-05
0.000123569
3.23345e-06
0.000119185
5.35028e-05
0.000113568
0.000100104
0.00010849
0.000143951
9.51796e-05
0.000183039
6.93203e-05
0.000190575
3.64611e-05
0.000140226
9.83085e-06
-5.08339e-06
-0.000158951
3.21212e-05
2.83511e-05
6.31394e-05
-1.28294e-05
7.855e-05
-4.87497e-05
8.77039e-05
-8.11595e-05
9.52581e-05
-0.000106046
0.000102799
-0.00012668
0.000110327
-0.000141072
0.000115806
-0.000136058
0.000119607
-0.000102826
0.000117575
-4.11028e-05
0.000116782
4.02689e-06
0.000115718
5.45663e-05
0.000111051
0.00010477
0.000109153
0.000145849
0.000103992
0.0001882
8.91666e-05
0.000205401
6.25469e-05
0.000166846
2.68042e-05
3.06593e-05
-0.000132147
4.2284e-05
-1.39329e-05
6.5614e-05
-3.61594e-05
8.05457e-05
-6.36815e-05
9.00637e-05
-9.06774e-05
9.73999e-05
-0.000113382
0.000104763
-0.000134043
0.000110819
-0.000147127
0.000111966
-0.000137206
0.000109408
-0.000100268
0.000108231
-3.99252e-05
0.000107437
4.82041e-06
0.000107528
5.44752e-05
0.000100292
0.000112007
0.000105616
0.000140525
0.000105915
0.000187901
9.96914e-05
0.000211624
8.01154e-05
0.000186422
4.25061e-05
6.82686e-05
-8.96412e-05
-2.38284e-06
1.13518e-05
-3.84107e-06
1.63091e-06
-3.75994e-06
-6.26644e-06
-1.67616e-06
-1.32971e-05
1.58228e-06
-1.67531e-05
5.36088e-06
-1.61269e-05
8.75828e-06
-1.30386e-05
1.13867e-05
-9.53693e-06
1.34409e-05
-6.81555e-06
1.5217e-05
-5.03939e-06
1.6891e-05
-3.95888e-06
1.85386e-05
-3.3018e-06
2.01935e-05
-2.85751e-06
2.18815e-05
-2.47303e-06
2.36344e-05
-2.03804e-06
2.54909e-05
-1.4734e-06
2.75247e-05
-7.27275e-07
2.98509e-05
2.4194e-07
3.26432e-05
1.52287e-06
3.62983e-05
3.03386e-06
4.14783e-05
5.04772e-06
5.00135e-05
6.53168e-06
1.1631e-05
6.27121e-05
4.03934e-06
7.3125e-06
7.17675e-06
-1.5065e-06
1.08741e-05
-9.96382e-06
1.16025e-05
-1.40255e-05
9.841e-06
-1.49917e-05
8.74636e-06
-1.50322e-05
9.39234e-06
-1.36846e-05
1.09674e-05
-1.1112e-05
1.28771e-05
-8.72531e-06
1.49642e-05
-7.12644e-06
1.71827e-05
-6.1774e-06
1.94928e-05
-5.6119e-06
2.18647e-05
-5.22945e-06
2.43019e-05
-4.91017e-06
2.68474e-05
-4.5836e-06
2.95814e-05
-4.20736e-06
3.26129e-05
-3.75873e-06
3.60876e-05
-3.23276e-06
4.02283e-05
-2.61789e-06
4.52411e-05
-1.97891e-06
5.14285e-05
-1.13966e-06
5.87955e-05
-8.35353e-07
1.09325e-06
6.93333e-05
1.41445e-05
-6.83201e-06
3.06322e-05
-1.79942e-05
3.82195e-05
-1.75511e-05
3.344e-05
-9.24601e-06
2.34899e-05
-5.04153e-06
1.59306e-05
-7.47298e-06
1.22756e-05
-1.00295e-05
1.15945e-05
-1.04309e-05
1.27718e-05
-9.90259e-06
1.49435e-05
-9.29816e-06
1.75578e-05
-8.79169e-06
2.03128e-05
-8.36689e-06
2.30929e-05
-8.0096e-06
2.58889e-05
-7.70612e-06
2.87457e-05
-7.4404e-06
3.17359e-05
-7.19759e-06
3.49469e-05
-6.96976e-06
3.84774e-05
-6.76325e-06
4.24608e-05
-6.60128e-06
4.70144e-05
-6.53253e-06
5.24622e-05
-6.58744e-06
5.87508e-05
-7.12394e-06
-7.59573e-06
6.74398e-05
2.64336e-05
-3.32656e-05
4.28716e-05
-3.44323e-05
3.65829e-05
-1.12623e-05
2.44263e-05
2.91057e-06
1.67359e-05
2.64884e-06
1.62158e-05
-6.95286e-06
1.3399e-05
-7.21274e-06
1.10465e-05
-8.07842e-06
1.13809e-05
-1.0237e-05
1.33508e-05
-1.1268e-05
1.5939e-05
-1.13799e-05
1.8698e-05
-1.11259e-05
2.14905e-05
-1.08021e-05
2.4332e-05
-1.05477e-05
2.72864e-05
-1.03948e-05
3.04149e-05
-1.03261e-05
3.37745e-05
-1.03294e-05
3.74223e-05
-1.04111e-05
4.1425e-05
-1.0604e-05
4.57922e-05
-1.08998e-05
5.05769e-05
-1.13721e-05
5.63718e-05
-1.29188e-05
-1.52943e-05
6.40703e-05
-9.7488e-06
-2.35167e-05
-3.97243e-05
-4.45644e-06
-4.41969e-05
-6.78938e-06
-1.07581e-05
-3.05281e-05
1.35073e-05
-2.16165e-05
1.49339e-05
-8.37944e-06
1.57633e-05
-8.04209e-06
1.53792e-05
-7.69421e-06
1.50726e-05
-9.9303e-06
1.55471e-05
-1.17425e-05
1.65884e-05
-1.24211e-05
1.81324e-05
-1.26699e-05
2.03608e-05
-1.30305e-05
2.32234e-05
-1.34103e-05
2.65883e-05
-1.37597e-05
3.03832e-05
-1.41211e-05
3.46254e-05
-1.45717e-05
3.94186e-05
-1.52045e-05
4.49105e-05
-1.6096e-05
5.08952e-05
-1.68846e-05
5.74744e-05
-1.79514e-05
6.36242e-05
-1.90686e-05
-2.03767e-05
6.87066e-05
-1.80682e-05
-5.44889e-06
-2.79409e-05
5.41588e-06
-1.92674e-05
-1.54631e-05
-1.70827e-05
-3.27128e-05
-1.30317e-05
-2.56674e-05
-4.3855e-06
-1.70257e-05
3.12011e-06
-1.55478e-05
1.02333e-05
-1.48076e-05
1.52597e-05
-1.49569e-05
1.88977e-05
-1.53808e-05
2.21848e-05
-1.57084e-05
2.55055e-05
-1.59909e-05
2.88479e-05
-1.63731e-05
3.22974e-05
-1.68599e-05
3.59372e-05
-1.73994e-05
3.98398e-05
-1.80235e-05
4.40486e-05
-1.87802e-05
4.85233e-05
-1.96787e-05
5.3112e-05
-2.0684e-05
5.78226e-05
-2.15946e-05
6.21496e-05
-2.22777e-05
6.58543e-05
-2.27729e-05
-2.34354e-05
6.89132e-05
-2.88328e-06
-2.56526e-06
1.27971e-05
-1.02644e-05
1.557e-05
-1.8236e-05
5.19378e-06
-2.23366e-05
1.41493e-06
-2.18886e-05
4.71886e-06
-2.03296e-05
8.223e-06
-1.90518e-05
1.17092e-05
-1.82937e-05
1.47718e-05
-1.80193e-05
1.74646e-05
-1.80736e-05
2.00661e-05
-1.831e-05
2.27375e-05
-1.86624e-05
2.54948e-05
-1.91306e-05
2.83838e-05
-1.97492e-05
3.1553e-05
-2.0569e-05
3.5174e-05
-2.16448e-05
3.93653e-05
-2.29717e-05
4.41173e-05
-2.44308e-05
4.92765e-05
-2.58434e-05
5.47458e-05
-2.70638e-05
6.02603e-05
-2.77922e-05
6.53248e-05
-2.78373e-05
-2.77519e-05
6.96413e-05
9.88402e-08
-2.66419e-06
6.91325e-06
-1.70788e-05
9.8352e-06
-2.11579e-05
9.23742e-06
-2.17388e-05
8.39563e-06
-2.10467e-05
8.37885e-06
-2.03127e-05
9.36549e-06
-2.00384e-05
1.10641e-05
-1.99923e-05
1.30825e-05
-2.00376e-05
1.52021e-05
-2.01932e-05
1.7357e-05
-2.04649e-05
1.95533e-05
-2.08586e-05
2.18427e-05
-2.14199e-05
2.43406e-05
-2.2247e-05
2.72242e-05
-2.34524e-05
3.06424e-05
-2.50627e-05
3.46001e-05
-2.69292e-05
3.89475e-05
-2.87779e-05
4.36484e-05
-3.0544e-05
4.8572e-05
-3.19872e-05
5.34758e-05
-3.26957e-05
5.81423e-05
-3.25038e-05
-3.1734e-05
6.21244e-05
1.99533e-06
-4.65965e-06
4.08372e-06
-1.91675e-05
5.1429e-06
-2.22173e-05
5.30447e-06
-2.19005e-05
5.99283e-06
-2.1735e-05
7.31563e-06
-2.16355e-05
8.83802e-06
-2.15607e-05
1.04044e-05
-2.15587e-05
1.20003e-05
-2.16335e-05
1.3601e-05
-2.1794e-05
1.51926e-05
-2.20568e-05
1.67906e-05
-2.24569e-05
1.84571e-05
-2.30867e-05
2.0309e-05
-2.40992e-05
2.24633e-05
-2.56069e-05
2.49154e-05
-2.75149e-05
2.74917e-05
-2.95055e-05
3.00665e-05
-3.13526e-05
3.30464e-05
-3.35237e-05
3.63587e-05
-3.52994e-05
3.96643e-05
-3.60011e-05
4.26503e-05
-3.54897e-05
-3.36395e-05
4.45559e-05
2.40701e-06
-7.06661e-06
4.07573e-06
-2.08362e-05
5.1164e-06
-2.32579e-05
5.98062e-06
-2.27646e-05
6.80662e-06
-2.2561e-05
7.7546e-06
-2.25834e-05
8.81304e-06
-2.2619e-05
9.92645e-06
-2.2672e-05
1.10588e-05
-2.27657e-05
1.21745e-05
-2.29096e-05
1.32445e-05
-2.31267e-05
1.42643e-05
-2.34767e-05
1.52574e-05
-2.40797e-05
1.625e-05
-2.50917e-05
1.72053e-05
-2.65621e-05
1.79793e-05
-2.82889e-05
1.84197e-05
-2.99458e-05
1.87151e-05
-3.1648e-05
1.97454e-05
-3.45539e-05
2.09891e-05
-3.65431e-05
2.19825e-05
-3.69945e-05
2.24787e-05
-3.59859e-05
-3.30656e-05
2.19049e-05
2.36974e-06
-9.43656e-06
3.89831e-06
-2.2365e-05
4.74765e-06
-2.41074e-05
5.61636e-06
-2.36333e-05
6.51118e-06
-2.34557e-05
7.40658e-06
-2.34787e-05
8.31721e-06
-2.35297e-05
9.22992e-06
-2.35847e-05
1.0114e-05
-2.36498e-05
1.09375e-05
-2.37332e-05
1.1674e-05
-2.38634e-05
1.22983e-05
-2.41011e-05
1.27657e-05
-2.45472e-05
1.29853e-05
-2.53114e-05
1.28221e-05
-2.63989e-05
1.21711e-05
-2.76378e-05
1.10767e-05
-2.88512e-05
9.90845e-06
-3.04795e-05
9.11271e-06
-3.3758e-05
8.16501e-06
-3.55952e-05
7.04859e-06
-3.5878e-05
5.68525e-06
-3.46225e-05
-3.13795e-05
3.9991e-06
2.28331e-06
-1.17199e-05
3.62734e-06
-2.37091e-05
4.39388e-06
-2.4874e-05
5.21466e-06
-2.44541e-05
6.10054e-06
-2.43416e-05
6.9849e-06
-2.4363e-05
7.85038e-06
-2.43951e-05
8.68683e-06
-2.44211e-05
9.4758e-06
-2.44388e-05
1.01975e-05
-2.44549e-05
1.08319e-05
-2.44979e-05
1.13423e-05
-2.46116e-05
1.16442e-05
-2.48492e-05
1.15991e-05
-2.52663e-05
1.10796e-05
-2.58794e-05
1.00769e-05
-2.66351e-05
8.71283e-06
-2.74871e-05
7.08829e-06
-2.88549e-05
4.74951e-06
-3.14192e-05
2.34559e-06
-3.31913e-05
2.67293e-07
-3.37997e-05
-1.52463e-06
-3.28305e-05
-3.03878e-05
-2.51624e-06
2.086e-06
-1.38059e-05
3.25127e-06
-2.48744e-05
4.02941e-06
-2.56521e-05
4.88036e-06
-2.53051e-05
5.76984e-06
-2.52311e-05
6.64963e-06
-2.52429e-05
7.51057e-06
-2.52561e-05
8.34949e-06
-2.52601e-05
9.15947e-06
-2.52488e-05
9.93106e-06
-2.52266e-05
1.06511e-05
-2.52179e-05
1.12913e-05
-2.52518e-05
1.17867e-05
-2.53446e-05
1.20332e-05
-2.55128e-05
1.19413e-05
-2.57874e-05
1.15031e-05
-2.61969e-05
1.07689e-05
-2.67527e-05
9.55285e-06
-2.76388e-05
7.21076e-06
-2.90771e-05
4.70567e-06
-3.06862e-05
2.74332e-06
-3.18374e-05
1.32612e-06
-3.14133e-05
-3.01708e-05
1.10913e-06
1.84216e-06
-1.56482e-05
2.89362e-06
-2.59259e-05
3.70663e-06
-2.64652e-05
4.5844e-06
-2.61829e-05
5.48653e-06
-2.61332e-05
6.38492e-06
-2.61413e-05
7.27685e-06
-2.6148e-05
8.16322e-06
-2.61465e-05
9.04459e-06
-2.61303e-05
9.91892e-06
-2.6101e-05
1.07804e-05
-2.60794e-05
1.162e-05
-2.60914e-05
1.24178e-05
-2.61424e-05
1.31295e-05
-2.62245e-05
1.36917e-05
-2.63495e-05
1.40509e-05
-2.6556e-05
1.41821e-05
-2.68838e-05
1.39257e-05
-2.73823e-05
1.29539e-05
-2.81052e-05
1.14192e-05
-2.91514e-05
9.88636e-06
-3.03046e-05
8.88541e-06
-3.04123e-05
-3.01237e-05
8.83831e-06
1.60505e-06
-1.72533e-05
2.58943e-06
-2.69104e-05
3.43873e-06
-2.73146e-05
4.34029e-06
-2.70846e-05
5.25948e-06
-2.70526e-05
6.18116e-06
-2.70631e-05
7.10591e-06
-2.70729e-05
8.03716e-06
-2.70778e-05
8.97927e-06
-2.70724e-05
9.93407e-06
-2.70557e-05
1.08982e-05
-2.70435e-05
1.18695e-05
-2.70626e-05
1.28528e-05
-2.71257e-05
1.38474e-05
-2.72191e-05
1.48231e-05
-2.73252e-05
1.57194e-05
-2.74522e-05
1.64743e-05
-2.76387e-05
1.70147e-05
-2.79227e-05
1.72291e-05
-2.83196e-05
1.69474e-05
-2.88698e-05
1.61943e-05
-2.95515e-05
1.57238e-05
-2.99418e-05
-3.00707e-05
1.56709e-05
1.40416e-06
-1.86574e-05
2.35189e-06
-2.78581e-05
3.22825e-06
-2.81909e-05
4.14595e-06
-2.80022e-05
5.0781e-06
-2.79847e-05
6.01649e-06
-2.80014e-05
6.96282e-06
-2.80192e-05
7.92066e-06
-2.80356e-05
8.89506e-06
-2.80467e-05
9.88885e-06
-2.80495e-05
1.08979e-05
-2.80525e-05
1.19151e-05
-2.80798e-05
1.29427e-05
-2.81534e-05
1.39937e-05
-2.82702e-05
1.50716e-05
-2.8403e-05
1.61492e-05
-2.85298e-05
1.71696e-05
-2.8659e-05
1.807e-05
-2.88232e-05
1.87972e-05
-2.90467e-05
1.92631e-05
-2.93357e-05
1.93952e-05
-2.96837e-05
1.94666e-05
-3.00132e-05
-3.02416e-05
1.96374e-05
1.24964e-06
-1.99072e-05
2.18037e-06
-2.87891e-05
3.07492e-06
-2.90857e-05
4.00117e-06
-2.89286e-05
4.93978e-06
-2.89234e-05
5.88636e-06
-2.8948e-05
6.84232e-06
-2.89751e-05
7.81011e-06
-2.90033e-05
8.7936e-06
-2.90301e-05
9.79598e-06
-2.90517e-05
1.08138e-05
-2.90702e-05
1.1835e-05
-2.9101e-05
1.28494e-05
-2.91678e-05
1.38614e-05
-2.92822e-05
1.48873e-05
-2.9429e-05
1.59333e-05
-2.95759e-05
1.69762e-05
-2.97019e-05
1.79687e-05
-2.98157e-05
1.88679e-05
-2.99458e-05
1.96441e-05
-3.01118e-05
2.02702e-05
-3.03098e-05
2.07787e-05
-3.05217e-05
-3.07043e-05
2.12413e-05
1.14028e-06
-2.10474e-05
2.06535e-06
-2.97142e-05
2.97127e-06
-2.99916e-05
3.90082e-06
-2.98582e-05
4.84073e-06
-2.98633e-05
5.78839e-06
-2.98957e-05
6.74486e-06
-2.99315e-05
7.71146e-06
-2.99697e-05
8.69055e-06
-3.0009e-05
9.68514e-06
-3.00462e-05
1.06944e-05
-3.00794e-05
1.17082e-05
-3.01148e-05
1.27101e-05
-3.01697e-05
1.36908e-05
-3.02629e-05
1.46581e-05
-3.03965e-05
1.56301e-05
-3.05479e-05
1.66137e-05
-3.06856e-05
1.75928e-05
-3.07949e-05
1.85364e-05
-3.08894e-05
1.94193e-05
-3.09948e-05
2.02323e-05
-3.11228e-05
2.09728e-05
-3.12623e-05
-3.13838e-05
2.16523e-05
1.06947e-06
-2.2117e-05
1.99363e-06
-3.06385e-05
2.90495e-06
-3.09031e-05
3.83372e-06
-3.07871e-05
4.77065e-06
-3.08002e-05
5.71411e-06
-3.0839e-05
6.66476e-06
-3.08819e-05
7.6233e-06
-3.0928e-05
8.59102e-06
-3.09765e-05
9.5702e-06
-3.10252e-05
1.05622e-05
-3.10714e-05
1.15626e-05
-3.11152e-05
1.2558e-05
-3.11653e-05
1.3533e-05
-3.1238e-05
1.44826e-05
-3.13461e-05
1.54183e-05
-3.14837e-05
1.63576e-05
-3.16249e-05
1.73062e-05
-3.17436e-05
1.82516e-05
-3.18347e-05
1.91729e-05
-3.19162e-05
2.00578e-05
-3.20077e-05
2.0905e-05
-3.21095e-05
-3.2199e-05
2.17203e-05
1.02807e-06
-2.31452e-05
1.95056e-06
-3.15613e-05
2.8614e-06
-3.18141e-05
3.78526e-06
-3.1711e-05
4.71515e-06
-3.17301e-05
5.6499e-06
-3.17736e-05
6.59005e-06
-3.18218e-05
7.53607e-06
-3.18738e-05
8.4887e-06
-3.19289e-05
9.44945e-06
-3.19858e-05
1.04204e-05
-3.20424e-05
1.14016e-05
-3.20965e-05
1.23865e-05
-3.21503e-05
1.3362e-05
-3.22136e-05
1.43168e-05
-3.23011e-05
1.52522e-05
-3.24191e-05
1.61818e-05
-3.25546e-05
1.71199e-05
-3.26816e-05
1.80679e-05
-3.27827e-05
1.90149e-05
-3.28633e-05
1.99494e-05
-3.29422e-05
2.08685e-05
-3.30285e-05
-3.31083e-05
2.17778e-05
1.00513e-06
-2.41504e-05
1.92111e-06
-3.24774e-05
2.82528e-06
-3.27183e-05
3.73982e-06
-3.26255e-05
4.6586e-06
-3.26487e-05
5.58057e-06
-3.26954e-05
6.50634e-06
-3.27473e-05
7.43651e-06
-3.28037e-05
8.37171e-06
-3.28639e-05
9.31303e-06
-3.29271e-05
1.02624e-05
-3.29917e-05
1.12216e-05
-3.30559e-05
1.21895e-05
-3.31183e-05
1.31587e-05
-3.3183e-05
1.41185e-05
-3.3261e-05
1.50636e-05
-3.33643e-05
1.60012e-05
-3.34922e-05
1.69455e-05
-3.3626e-05
1.79057e-05
-3.37429e-05
1.88792e-05
-3.38367e-05
1.98574e-05
-3.39205e-05
2.08367e-05
-3.40077e-05
-3.40923e-05
2.18208e-05
9.9054e-07
-2.51411e-05
1.89324e-06
-3.33803e-05
2.78452e-06
-3.36097e-05
3.68482e-06
-3.35258e-05
4.5881e-06
-3.35519e-05
5.4933e-06
-3.36004e-05
6.40114e-06
-3.36549e-05
7.31243e-06
-3.37148e-05
8.22798e-06
-3.37793e-05
9.14881e-06
-3.38479e-05
1.00765e-05
-3.39195e-05
1.10134e-05
-3.39928e-05
1.19607e-05
-3.40658e-05
1.29161e-05
-3.41384e-05
1.3872e-05
-3.4217e-05
1.48217e-05
-3.4314e-05
1.57667e-05
-3.44371e-05
1.67186e-05
-3.45779e-05
1.76901e-05
-3.47143e-05
1.86843e-05
-3.48309e-05
1.96964e-05
-3.49326e-05
2.07222e-05
-3.50334e-05
-3.51337e-05
2.17636e-05
9.766e-07
-2.61178e-05
1.85912e-06
-3.4263e-05
2.73165e-06
-3.44823e-05
3.61277e-06
-3.4407e-05
4.49594e-06
-3.44349e-05
5.38032e-06
-3.44846e-05
6.26672e-06
-3.45411e-05
7.15607e-06
-3.4604e-05
8.04937e-06
-3.46726e-05
8.94778e-06
-3.47463e-05
9.85276e-06
-3.48246e-05
1.07664e-05
-3.49066e-05
1.1691e-05
-3.49905e-05
1.2627e-05
-3.50746e-05
1.35709e-05
-3.5161e-05
1.45164e-05
-3.52595e-05
1.54615e-05
-3.53823e-05
1.64142e-05
-3.55306e-05
1.7388e-05
-3.56879e-05
1.83909e-05
-3.58338e-05
1.94219e-05
-3.59635e-05
2.04771e-05
-3.60885e-05
-3.62133e-05
2.15568e-05
9.5878e-07
-2.70767e-05
1.81464e-06
-3.51189e-05
2.6629e-06
-3.53305e-05
3.52007e-06
-3.5264e-05
4.37875e-06
-3.52935e-05
5.23835e-06
-3.5344e-05
6.09977e-06
-3.54024e-05
6.96397e-06
-3.5468e-05
7.83209e-06
-3.55407e-05
8.7054e-06
-3.56197e-05
9.58532e-06
-3.57047e-05
1.04737e-05
-3.57951e-05
1.1373e-05
-3.58899e-05
1.22852e-05
-3.59869e-05
1.321e-05
-3.60857e-05
1.4143e-05
-3.61924e-05
1.50805e-05
-3.63199e-05
1.60266e-05
-3.64766e-05
1.69931e-05
-3.66544e-05
1.79915e-05
-3.6832e-05
1.90248e-05
-3.69968e-05
2.00908e-05
-3.71544e-05
-3.73111e-05
2.11886e-05
9.35157e-07
-2.80119e-05
1.75783e-06
-3.59416e-05
2.57662e-06
-3.61494e-05
3.4051e-06
-3.60924e-05
4.23513e-06
-3.61234e-05
5.06604e-06
-3.61748e-05
5.89882e-06
-3.6235e-05
6.73446e-06
-3.63036e-05
7.57411e-06
-3.63803e-05
8.41907e-06
-3.64648e-05
9.27079e-06
-3.65565e-05
1.01309e-05
-3.66554e-05
1.10017e-05
-3.67607e-05
1.18858e-05
-3.6871e-05
1.27848e-05
-3.69847e-05
1.36971e-05
-3.71047e-05
1.46188e-05
-3.72416e-05
1.55505e-05
-3.74083e-05
1.6501e-05
-3.76048e-05
1.74827e-05
-3.78136e-05
1.85024e-05
-3.80164e-05
1.956e-05
-3.8212e-05
-3.84055e-05
2.06544e-05
9.04427e-07
-2.89163e-05
1.6867e-06
-3.67239e-05
2.47122e-06
-3.69338e-05
3.26652e-06
-3.68876e-05
4.06383e-06
-3.69206e-05
4.86218e-06
-3.6973e-05
5.66252e-06
-3.70353e-05
6.46586e-06
-3.71069e-05
7.27334e-06
-3.71879e-05
8.08625e-06
-3.72778e-05
8.90598e-06
-3.73765e-05
9.73411e-06
-3.74837e-05
1.05726e-05
-3.75994e-05
1.14242e-05
-3.77226e-05
1.22914e-05
-3.78519e-05
1.31747e-05
-3.7988e-05
1.40714e-05
-3.81383e-05
1.49798e-05
-3.83166e-05
1.59049e-05
-3.85298e-05
1.6858e-05
-3.87666e-05
1.78485e-05
-3.90069e-05
1.88788e-05
-3.92423e-05
-3.94751e-05
1.99484e-05
8.64441e-07
-2.97808e-05
1.59952e-06
-3.74589e-05
2.34592e-06
-3.76801e-05
3.10426e-06
-3.76459e-05
3.8649e-06
-3.76811e-05
4.62672e-06
-3.77347e-05
5.39065e-06
-3.77991e-05
6.15768e-06
-3.7874e-05
6.92891e-06
-3.79592e-05
7.70557e-06
-3.80547e-05
8.48901e-06
-3.81601e-05
9.28074e-06
-3.82757e-05
1.00826e-05
-3.84014e-05
1.08969e-05
-3.8537e-05
1.17265e-05
-3.86816e-05
1.25732e-05
-3.88347e-05
1.34357e-05
-3.90008e-05
1.43111e-05
-3.9192e-05
1.5201e-05
-3.94195e-05
1.61139e-05
-3.96795e-05
1.70603e-05
-3.99533e-05
1.80453e-05
-4.02273e-05
-4.04992e-05
1.90694e-05
8.13522e-07
-3.05943e-05
1.49852e-06
-3.81438e-05
2.20467e-06
-3.83862e-05
2.92304e-06
-3.83641e-05
3.64333e-06
-3.84013e-05
4.36469e-06
-3.84559e-05
5.08805e-06
-3.85224e-05
5.81442e-06
-3.86003e-05
6.54487e-06
-3.86898e-05
7.28056e-06
-3.87905e-05
8.02279e-06
-3.89026e-05
8.77301e-06
-3.90261e-05
9.53289e-06
-3.91614e-05
1.03045e-05
-3.93087e-05
1.10903e-05
-3.94675e-05
1.18929e-05
-3.96372e-05
1.2712e-05
-3.98199e-05
1.35448e-05
-4.00247e-05
1.43896e-05
-4.02642e-05
1.52515e-05
-4.05413e-05
1.61405e-05
-4.08423e-05
1.70638e-05
-4.11508e-05
-4.14589e-05
1.80234e-05
7.53136e-07
-3.13474e-05
1.39339e-06
-3.8784e-05
2.05938e-06
-3.9052e-05
2.7354e-06
-3.904e-05
3.41209e-06
-3.90778e-05
4.08922e-06
-3.91329e-05
4.76785e-06
-3.92009e-05
5.44901e-06
-3.92815e-05
6.13382e-06
-3.93746e-05
6.82338e-06
-3.94802e-05
7.51892e-06
-3.95983e-05
8.22181e-06
-3.97291e-05
8.93354e-06
-3.98733e-05
9.6558e-06
-4.00311e-05
1.03908e-05
-4.02026e-05
1.11409e-05
-4.03874e-05
1.19071e-05
-4.05861e-05
1.26869e-05
-4.08045e-05
1.34768e-05
-4.10541e-05
1.42778e-05
-4.13424e-05
1.50978e-05
-4.16625e-05
1.59454e-05
-4.19984e-05
-4.23378e-05
1.68241e-05
6.90671e-07
-3.2038e-05
1.30201e-06
-3.93952e-05
1.92911e-06
-3.9679e-05
2.56018e-06
-3.9671e-05
3.19031e-06
-3.97078e-05
3.81976e-06
-3.97622e-05
4.44989e-06
-3.98309e-05
5.08169e-06
-3.99132e-05
5.71625e-06
-4.00092e-05
6.35466e-06
-4.01187e-05
6.99805e-06
-4.02418e-05
7.64765e-06
-4.03788e-05
8.30472e-06
-4.05304e-05
8.97063e-06
-4.06971e-05
9.64706e-06
-4.08791e-05
1.03361e-05
-4.10764e-05
1.10392e-05
-4.12892e-05
1.17551e-05
-4.15204e-05
1.24795e-05
-4.17786e-05
1.32101e-05
-4.20732e-05
1.39512e-05
-4.24039e-05
1.47113e-05
-4.27586e-05
-4.3122e-05
1.54954e-05
6.36985e-07
-3.26749e-05
1.24305e-06
-4.00012e-05
1.83223e-06
-4.02681e-05
2.4147e-06
-4.02533e-05
2.99522e-06
-4.02882e-05
3.57403e-06
-4.03409e-05
4.15268e-06
-4.04095e-05
4.73198e-06
-4.04925e-05
5.31289e-06
-4.05902e-05
5.89635e-06
-4.07023e-05
6.48334e-06
-4.08289e-05
7.07485e-06
-4.09704e-05
7.67188e-06
-4.11275e-05
8.27542e-06
-4.13007e-05
8.88661e-06
-4.14903e-05
9.50698e-06
-4.16968e-05
1.01381e-05
-4.19203e-05
1.07796e-05
-4.21619e-05
1.1428e-05
-4.2427e-05
1.20788e-05
-4.27242e-05
1.27327e-05
-4.3058e-05
1.33959e-05
-4.3422e-05
-4.38006e-05
1.40745e-05
5.99905e-07
-3.32748e-05
1.22431e-06
-4.06256e-05
1.77451e-06
-4.08183e-05
2.30373e-06
-4.07825e-05
2.83127e-06
-4.08156e-05
3.35699e-06
-4.08665e-05
3.88204e-06
-4.09344e-05
4.40701e-06
-4.10174e-05
4.93251e-06
-4.11157e-05
5.45921e-06
-4.12291e-05
5.98779e-06
-4.13575e-05
6.5189e-06
-4.15016e-05
7.05315e-06
-4.16618e-05
7.59107e-06
-4.18386e-05
8.13328e-06
-4.20326e-05
8.6806e-06
-4.22442e-05
9.23413e-06
-4.24738e-05
9.7942e-06
-4.27219e-05
1.03585e-05
-4.29913e-05
1.09221e-05
-4.32881e-05
1.14825e-05
-4.36186e-05
1.20428e-05
-4.39825e-05
-4.43667e-05
1.26088e-05
5.82199e-07
-3.3857e-05
1.23595e-06
-4.12793e-05
1.74202e-06
-4.13243e-05
2.21355e-06
-4.12539e-05
2.68466e-06
-4.12866e-05
3.15515e-06
-4.13369e-05
3.62503e-06
-4.14042e-05
4.09468e-06
-4.1487e-05
4.56423e-06
-4.15853e-05
5.03399e-06
-4.16989e-05
5.50424e-06
-4.18279e-05
5.97516e-06
-4.19726e-05
6.44688e-06
-4.21336e-05
6.91941e-06
-4.23112e-05
7.39278e-06
-4.2506e-05
7.86712e-06
-4.27185e-05
8.34277e-06
-4.29494e-05
8.81992e-06
-4.3199e-05
9.29722e-06
-4.34687e-05
9.77065e-06
-4.37617e-05
1.02358e-05
-4.40841e-05
1.06925e-05
-4.44392e-05
-4.48187e-05
1.11445e-05
5.88457e-07
-3.44454e-05
1.25708e-06
-4.19478e-05
1.70772e-06
-4.17748e-05
2.11873e-06
-4.16647e-05
2.53056e-06
-4.16983e-05
2.94381e-06
-4.175e-05
3.35698e-06
-4.18174e-05
3.7703e-06
-4.19004e-05
4.18351e-06
-4.19985e-05
4.59651e-06
-4.21119e-05
5.00918e-06
-4.22406e-05
5.42125e-06
-4.23847e-05
5.83232e-06
-4.25447e-05
6.24194e-06
-4.27209e-05
6.64956e-06
-4.29137e-05
7.05465e-06
-4.31236e-05
7.45671e-06
-4.33514e-05
7.85525e-06
-4.35975e-05
8.24918e-06
-4.38626e-05
8.63549e-06
-4.41482e-05
9.00947e-06
-4.44583e-05
9.36802e-06
-4.47977e-05
-4.51632e-05
9.71249e-06
6.32116e-07
-3.50775e-05
1.27067e-06
-4.25862e-05
1.64967e-06
-4.21537e-05
1.99895e-06
-4.2014e-05
2.34981e-06
-4.20491e-05
2.70378e-06
-4.2104e-05
3.05852e-06
-4.21721e-05
3.41407e-06
-4.22559e-05
3.76997e-06
-4.23544e-05
4.1258e-06
-4.24678e-05
4.4811e-06
-4.25959e-05
4.83524e-06
-4.2739e-05
5.18747e-06
-4.2897e-05
5.53692e-06
-4.30704e-05
5.88262e-06
-4.32594e-05
6.2235e-06
-4.34645e-05
6.55833e-06
-4.36862e-05
6.88579e-06
-4.3925e-05
7.20438e-06
-4.41813e-05
7.51165e-06
-4.44557e-05
7.80339e-06
-4.47503e-05
8.07492e-06
-4.50694e-05
-4.54133e-05
8.32497e-06
7.32995e-07
-3.58104e-05
1.27308e-06
-4.31261e-05
1.56423e-06
-4.24447e-05
1.85059e-06
-4.23003e-05
2.13964e-06
-4.23381e-05
2.43256e-06
-4.23968e-05
2.7275e-06
-4.24669e-05
3.02419e-06
-4.25525e-05
3.32205e-06
-4.26522e-05
3.62036e-06
-4.27661e-05
3.9184e-06
-4.2894e-05
4.21531e-06
-4.3036e-05
4.51011e-06
-4.3192e-05
4.80172e-06
-4.33621e-05
5.08887e-06
-4.35466e-05
5.37012e-06
-4.37457e-05
5.64377e-06
-4.39597e-05
5.9079e-06
-4.41891e-05
6.16047e-06
-4.4434e-05
6.39909e-06
-4.46945e-05
6.62016e-06
-4.49716e-05
6.81861e-06
-4.5268e-05
-4.55857e-05
6.99106e-06
8.929e-07
-3.67032e-05
1.26278e-06
-4.34959e-05
1.45787e-06
-4.26398e-05
1.67949e-06
-4.25219e-05
1.90663e-06
-4.25652e-05
2.13847e-06
-4.26286e-05
2.37434e-06
-4.27027e-05
2.6132e-06
-4.27912e-05
2.85424e-06
-4.28932e-05
3.09646e-06
-4.30084e-05
3.33889e-06
-4.31366e-05
3.58053e-06
-4.32777e-05
3.82028e-06
-4.34318e-05
4.05692e-06
-4.35987e-05
4.28904e-06
-4.37786e-05
4.51503e-06
-4.39715e-05
4.73301e-06
-4.41777e-05
4.94091e-06
-4.4397e-05
5.13645e-06
-4.46297e-05
5.31718e-06
-4.48755e-05
5.47994e-06
-4.51345e-05