/*--------------------------------*- C++ -*----------------------------------*\
| =========                 |                                                 |
| \\      /  F ield         | OpenFOAM: The Open Source CFD Toolbox           |
|  \\    /   O peration     | Version:  2206                                  |
|   \\  /    A nd           | Website:  www.openfoam.com                      |
|    \\/     M anipulation  |                                                 |
\*---------------------------------------------------------------------------*/
FoamFile
{
    version     2.0;
    format      ascii;
    arch        "LSB;label=32;scalar=64";
    class       volScalarField;
    location    "0.95";
    object      alpha.water;
}
// * * * * * * * * * * * * * * * * * * * * * * * * * * * * * * * * * * * * * //

dimensions      [0 0 0 0 0 0 0];

internalField   nonuniform List<scalar> 
2268
(
0.999999
1
1
1
1
1
1
1
1
1
0.999998
0.998286
0.987327
0.977339
0.984364
0.990808
0.990408
0.979615
0.975615
0.979735
0.995687
0.999725
0.999818
1
1
1
1
1
1
1
1
1
0.999999
0.999985
0.978464
0.949638
0.949608
0.949674
0.955327
0.956424
0.977078
0.979823
0.986259
0.98788
0.99951
0.999832
1
1
1
1
1
1
1
1
1
1
0.999999
0.996953
0.966169
0.949667
0.949657
0.955719
0.990191
1
1
1
1
1
0.999838
1
1
1
1
1
1
1
1
1
1
1
0.999962
0.998238
0.992328
0.991373
1
1
1
1
1
1
1
0.999884
1
1
1
1
1
1
1
1
1
1
1
1
1
1
1
1
1
1
1
1
1
0.999999
0.999983
1
1
1
1
0.999999
1
1
1
1
1
1
1
1
1
1
1
1
1
1
1
1
0.999997
0.999997
1
1
1
0.999992
0.999895
0.999879
1
1
1
1
1
0.999998
0.999997
0.999999
1
1
1
0.999999
0.999998
0.999995
0.999998
0.99999
0.999992
1
1
1
1
0.999822
0.99958
0.999854
1
1
1
0.999993
0.999932
0.999883
0.999955
0.999992
0.999996
0.999989
0.999974
0.998989
0.992795
0.99369
0.997988
0.999991
0.573539
0.573539
0.575294
0.600061
0.600135
0.600136
0.468116
0.462743
0.733126
0.891893
0.891895
0.891893
0.891889
0.891882
0.891116
0.787497
0.815427
0.815648
0.815648
0.573539
0.59226
0.599766
0.600097
0.600136
0.600135
0.537519
0.459821
0.457888
0.884224
0.891893
0.891889
0.891882
0.849627
0.3827
0.334333
0.624077
0.815628
0.815648
0.587082
0.592856
0.598895
0.59977
0.600097
0.600136
0.599055
0.457888
0.457888
0.513212
0.884967
0.891776
0.889924
0.506557
0.281447
0.281789
0.283303
0.742475
0.815629
0.59552
0.595558
0.445134
0.339948
0.378902
0.406328
0.422672
0.608765
0.512638
0.51609
0.65734
0.842605
0.792445
0.281447
0.281229
0.281447
0.583553
0.815578
0.815692
0.595453
0.334008
0.0284536
0.0264597
0.0263018
0.0402234
0.103409
0.66177
0.865021
0.563829
0.401143
0.381971
0.359868
0.281229
0.281229
0.281229
0.75532
0.815692
0.815757
0.535619
0.044054
0.0264235
0.0263015
0.0263018
0.0263018
0.0664294
0.724922
0.871186
0.770267
0.579824
0.626133
0.282298
0.281265
0.281229
0.281265
0.776861
0.815757
0.815782
0.0937767
0.03062
0.0260787
0.0263165
0.0263002
0.0402718
0.461607
0.870921
0.8716
0.871186
0.868964
0.866676
0.434091
0.282298
0.281265
0.671736
0.814855
0.815782
0.815786
0.0636496
0.0618577
0.0259334
0.0260773
0.0267777
0.192146
0.769904
0.87159
0.871473
0.8716
0.871087
0.868864
0.863735
0.374629
0.498872
0.78712
0.797925
0.815783
0.815783
1
1
1
1
0.999984
0.999909
0.999955
1
1
0.999991
0.999726
0.954267
0.851948
0.827431
0.87591
0.9416
0.960133
0.961226
0.963067
0.969284
0.983096
0.995498
0.999981
0.999821
1
1
1
1
1
0.999999
1
0.999991
0.999839
0.947519
0.641622
0.521167
0.521167
0.521167
0.521685
0.716459
0.856486
0.946011
0.991589
0.999081
0.999197
0.99996
0.991102
0.996436
1
1
1
0.999999
0.999997
0.999981
0.956617
0.778732
0.726284
0.548412
0.52239
0.521134
0.521685
0.644154
0.766271
0.763872
0.721123
0.771429
0.942759
0.998197
0.999957
0.991255
0.999853
0.999935
0.999998
0.940532
0.921617
0.962857
0.883151
0.671573
0.605491
0.71466
0.709979
0.709427
0.708947
0.704193
0.510617
0.189047
0.0778696
0.0616305
0.132244
0.349414
0.575995
0.70205
0.991182
0.984057
0.79369
0.552007
0.35563
0.372794
0.402205
0.192406
0.0794746
0.103723
0.445496
0.696591
0.703867
0.352975
0.0541606
0.0528641
0.0528155
0.0529278
0.0538929
0.057704
0.0594291
0.0603768
0.0592529
0.929865
0.456176
0.0818633
0.0403525
0.0375257
0.0318702
0.00747623
0.00184708
0.000410778
0.00058965
0.00175317
0.0779019
0.168225
0.126255
0.0541342
0.0528033
0.0529278
0.0539193
0.134843
0.190277
0.114814
0.0683177
0.0356131
0.801989
0.0112375
0.00311909
0.00635325
0.0351971
0.0272885
0.00184715
0.000332447
8.7192e-05
0.000287445
0.000429506
0.00163187
0.0300803
0.185627
0.187821
0.152684
0.0685475
0.164089
0.20305
0.203579
0.201116
0.189423
0.0608571
0.722194
0.0020339
0.000892578
0.00324538
0.0170418
0.0169352
0.00202723
8.71925e-05
2.39367e-05
2.47987e-05
4.94019e-05
0.000254271
0.0412132
0.177388
0.190495
0.190495
0.190495
0.189878
0.190061
0.133769
0.064286
0.0143875
0.0259883
0.67127
0.000669706
0.000264563
0.0002549
0.000252645
0.00106979
0.0027022
7.72644e-05
1.24459e-05
3.20998e-06
1.20769e-06
-8.33543e-08
-1.08561e-06
3.56668e-06
0.067346
0.143158
0.135373
0.0491568
0.00169548
0.000463191
0.000387714
0.000284184
0.0019172
0.537329
0.000233251
7.95317e-05
3.3994e-05
3.02646e-05
4.16177e-05
0.000312585
0.000298287
3.01063e-06
1.41937e-07
2.98649e-08
2.46751e-08
1.27281e-07
7.03317e-07
3.50279e-06
1.60586e-05
6.74239e-05
0.000275887
0.00307115
0.00458068
0.000284184
0.00026551
0.00163819
0.279053
7.89046e-05
2.38727e-05
7.63855e-06
6.01263e-06
8.15449e-06
8.92125e-06
6.23071e-05
1.31802e-05
1.58266e-08
3.42347e-09
2.382e-09
7.84003e-09
1.59476e-07
1.76571e-06
1.30662e-05
8.59389e-05
0.00693366
0.0146976
0.0146329
0.00330406
2.62572e-05
2.62572e-05
0.264193
2.38831e-05
6.78347e-06
1.97745e-06
1.2212e-06
1.61664e-06
1.58625e-06
9.99733e-07
2.68293e-06
3.1804e-09
1.98531e-09
1.86907e-09
1.61233e-09
1.86915e-09
9.90177e-08
3.21938e-06
0.000455884
0.0121842
0.0146976
0.0146976
0.010646
2.45121e-05
2.68311e-05
0.400551
6.78598e-06
1.76577e-06
4.94513e-07
2.82627e-07
3.26011e-07
2.90042e-07
1.30099e-07
2.82921e-09
1.98414e-09
1.90273e-09
1.87976e-09
1.70524e-09
1.24101e-09
6.92095e-10
1.08319e-07
4.44648e-06
0.00130069
0.0146976
0.0146329
0.0123995
1.47804e-05
2.12537e-05
0.431899
1.07413e-05
4.2629e-07
1.19856e-07
7.39509e-08
7.2425e-08
5.2591e-08
1.96224e-08
2.17933e-09
2.07221e-09
3.36654e-09
3.97343e-09
1.71054e-09
1.28179e-09
1.27993e-09
-1.49323e-09
1.94223e-07
8.71444e-06
0.00255186
0.0145096
0.0106002
5.86716e-06
9.11688e-06
0.431534
0.000777563
1.19856e-07
5.10536e-08
3.571e-08
2.55548e-08
1.2733e-08
3.96617e-09
2.01027e-09
1.97672e-09
1.92868e-09
1.64542e-09
1.60605e-09
1.37004e-09
1.31972e-09
5.56187e-10
5.29408e-08
2.04478e-06
0.000574769
0.00690185
0.00515318
4.90961e-06
4.8764e-06
0.356539
0.00380787
5.10534e-08
3.5156e-08
2.52742e-08
1.41514e-08
6.54118e-09
4.43807e-09
3.54784e-09
2.01185e-09
1.97672e-09
1.70211e-09
1.42931e-09
1.40033e-09
1.42411e-09
1.71594e-09
9.84141e-09
1.04585e-06
3.04698e-06
1.7364e-05
0.000323072
4.87584e-06
4.8764e-06
0.0480419
0.00458835
3.51558e-08
2.90751e-08
2.73712e-08
2.44681e-08
1.41514e-08
6.54118e-09
4.43807e-09
6.4511e-06
2.66924e-08
7.08682e-09
1.65873e-09
1.42673e-09
1.73153e-09
2.50824e-09
3.52579e-08
2.69041e-05
9.43148e-05
1.7117e-05
1.4264e-05
1.72259e-05
5.04359e-06
0.00185775
0.0046003
0.000111177
3.51559e-08
6.36469e-08
2.82671e-08
0.000155908
0.000355172
0.00037574
0.000126628
1.51093e-05
6.99691e-08
3.98201e-09
1.65851e-09
2.92333e-09
3.46027e-09
3.65161e-08
2.11327e-05
0.000528926
0.000735235
9.27326e-06
8.31573e-06
5.65816e-06
0.000258487
0.00207079
0.000123852
1.66706e-06
2.27393e-06
0.000238677
0.000409853
0.000414641
0.000414641
0.000414641
0.000363552
1.24746e-05
2.86575e-08
4.00707e-09
3.50744e-09
2.91857e-09
1.33317e-08
6.88296e-07
0.000816285
0.00197949
0.000676723
3.8075e-06
3.73746e-06
2.3511e-05
9.12744e-05
0.000359924
2.36642e-05
6.47653e-06
0.000315656
0.000399015
0.000409853
0.000343648
0.000413277
0.000407314
0.000198761
4.23591e-06
3.23622e-08
2.92699e-09
2.53991e-09
2.15238e-09
2.5834e-08
0.000537208
0.00198627
0.00198634
3.56693e-06
3.49244e-06
1.32868e-06
1.48002e-05
0.000322158
9.99871e-05
1.14205e-05
5.33509e-05
0.000256604
0.000163125
4.31996e-05
0.000119922
0.000403304
0.000293442
1.6581e-05
1.07527e-07
7.34189e-09
2.15283e-09
2.15283e-09
1.72309e-09
2.0053e-05
0.00145028
0.00215131
0.00126147
3.55965e-06
5.04885e-08
1.32889e-06
4.24103e-05
0.000109817
5.01963e-05
3.51814e-05
3.9766e-05
3.9521e-05
3.89263e-05
4.21628e-05
0.000357978
0.000280733
2.77502e-05
3.40418e-07
2.73716e-08
3.28336e-09
1.72311e-09
1.26401e-09
1.82495e-09
0.000368451
0.00216121
0.00217179
0.000189288
5.71201e-09
4.87412e-08
9.87879e-07
6.23879e-05
3.53764e-05
3.23686e-05
3.429e-05
3.67219e-05
3.89175e-05
8.20303e-05
0.000330034
0.00027246
3.35039e-05
5.83193e-07
5.65531e-08
5.25161e-09
1.26445e-09
9.55064e-10
6.82231e-10
3.44276e-08
0.000593561
0.0021632
0.00208614
4.86923e-09
2.73564e-09
4.38913e-08
4.63516e-06
1.21757e-05
2.39473e-05
3.23686e-05
3.42899e-05
3.88286e-05
0.000277994
0.000308601
0.000250974
2.0095e-05
5.36095e-07
5.85213e-08
5.92663e-09
9.55064e-10
4.52887e-10
1.44353e-10
1.36718e-09
2.53069e-07
0.000846808
0.00206579
2.28509e-09
2.21783e-09
2.73564e-09
2.89851e-05
0.000217911
0.000263369
0.000177316
0.00016676
0.00029821
0.00031028
0.000306112
0.000121465
1.79345e-06
2.17938e-07
2.5305e-08
2.86781e-09
5.04968e-10
1.99886e-10
6.13479e-11
8.2534e-11
9.46512e-09
1.66035e-07
0.000178901
5.54798e-10
6.78912e-10
1.27262e-08
6.03834e-05
0.00030253
0.0003095
0.000311848
0.000313912
0.000312105
0.000308853
0.000170789
7.72357e-06
4.38616e-07
5.80003e-08
7.2103e-09
1.11156e-09
3.3438e-10
1.98149e-10
4.6931e-11
1.78707e-11
1.90314e-10
2.02426e-09
5.84818e-10
8.88736e-11
3.24852e-10
1.71407e-08
1.09991e-05
0.000183487
0.000311848
0.000313001
0.000311849
0.000305938
0.000140362
7.67019e-06
6.5979e-07
1.03127e-07
1.28199e-08
1.74254e-09
3.75958e-10
1.88183e-10
1.29804e-10
4.72598e-11
7.53229e-12
2.90544e-12
3.6331e-12
7.12334e-10
1.69628e-11
5.57455e-11
2.74821e-09
2.15278e-07
9.0314e-06
9.30766e-05
0.000148638
0.000137676
5.03068e-05
3.29015e-06
4.73242e-07
1.13336e-07
1.87292e-08
2.54081e-09
4.03646e-10
9.71296e-11
5.80725e-11
3.92225e-11
2.24641e-11
6.42609e-12
6.69617e-13
6.84537e-14
3.89878e-14
9.30494e-12
2.39492e-11
5.10586e-10
8.16648e-09
1.16812e-07
6.59565e-07
1.45232e-06
1.41698e-06
7.28866e-07
2.39614e-07
6.27798e-08
1.29904e-08
2.35534e-09
4.2384e-10
8.79761e-11
3.13003e-11
1.12149e-11
6.86792e-12
5.21917e-12
2.70269e-12
6.71305e-13
4.13505e-14
3.89878e-14
4.0392e-12
6.62004e-11
1.12954e-10
9.5092e-10
1.04592e-08
6.38459e-08
1.55102e-07
1.56962e-07
8.12027e-08
2.66296e-08
6.7978e-09
1.48686e-09
3.14758e-10
8.31087e-11
2.63732e-11
5.65357e-12
1.58231e-12
9.31575e-13
7.11078e-13
4.71058e-13
1.78074e-13
2.28447e-14
3.99164e-14
9.31152e-13
3.31213e-11
4.1029e-11
1.31955e-10
9.9504e-10
5.69093e-09
1.46658e-08
1.52533e-08
7.97579e-09
2.63962e-09
7.41452e-10
1.9066e-10
6.34298e-11
2.15107e-11
4.13785e-12
6.42241e-13
1.97026e-13
1.11857e-13
7.42917e-14
4.50134e-14
1.8541e-14
2.79178e-15
6.93684e-15
1.2205e-13
6.29695e-12
1.25957e-11
2.11779e-11
1.09361e-10
5.03091e-10
1.26792e-09
1.34179e-09
7.12217e-10
2.90075e-10
9.13396e-11
3.97506e-11
1.44914e-11
2.85974e-12
3.91351e-13
6.61449e-14
2.21225e-14
1.23495e-14
7.13939e-15
3.54128e-15
1.29293e-15
1.91297e-16
8.74531e-16
1.3928e-14
7.72291e-13
2.02426e-12
7.13306e-12
1.36286e-11
6.0797e-11
1.31408e-10
1.36392e-10
8.45706e-11
3.44437e-11
2.1028e-11
7.82703e-12
1.62049e-12
2.38003e-13
3.41094e-14
6.20175e-15
2.26275e-15
1.24833e-15
6.51395e-16
2.68066e-16
8.00978e-17
1.00409e-17
1.04058e-16
1.62877e-15
9.3889e-14
2.18817e-13
1.07265e-12
4.42449e-12
9.65628e-12
1.37787e-11
1.44729e-11
1.32538e-11
8.83214e-12
3.29037e-12
7.28803e-13
1.22381e-13
1.85928e-14
2.70378e-15
5.32772e-16
2.12093e-16
1.14319e-16
5.42185e-17
1.89037e-17
4.43443e-18
5.1335e-19
1.40368e-17
1.95874e-16
1.16609e-14
2.24081e-14
9.18785e-14
6.03619e-13
1.9246e-12
3.24906e-12
3.23354e-12
2.42061e-12
1.0459e-12
2.56626e-13
5.10927e-14
8.83621e-15
1.33119e-15
1.955e-16
4.26996e-17
1.83216e-17
9.41393e-18
3.95841e-18
1.15589e-18
1.82713e-19
5.49689e-20
1.20212e-18
2.33873e-17
1.38408e-15
2.27238e-15
7.76447e-15
4.46776e-14
1.85053e-13
3.61903e-13
3.40244e-13
2.04937e-13
6.89708e-14
1.71086e-14
3.47285e-15
5.90465e-16
8.72925e-17
1.3159e-17
3.25e-18
1.4484e-18
6.72855e-19
2.33682e-19
5.00852e-20
5.31416e-21
5.79782e-21
1.04214e-19
2.63977e-18
1.5369e-16
2.21391e-16
6.63936e-16
3.38471e-15
1.26506e-14
2.36049e-14
2.16643e-14
1.27806e-14
4.44951e-15
1.10896e-15
2.206e-16
3.65138e-17
5.30896e-18
8.41471e-19
2.31687e-19
9.50958e-20
3.2748e-20
6.2339e-21
7.47238e-22
3.87356e-23
9.45852e-23
7.09357e-21
2.7964e-19
1.60444e-17
2.04658e-17
5.52829e-17
2.61044e-16
8.97811e-16
1.55199e-15
1.39667e-15
8.1125e-16
2.78292e-16
6.77934e-17
1.312e-17
2.11109e-18
3.03309e-19
5.0166e-20
1.19745e-20
2.26666e-21
2.11392e-22
-4.6267e-23
-1.59686e-21
-1.39406e-21
-7.06697e-22
1.01812e-22
2.76875e-20
1.58637e-18
1.80041e-18
4.42889e-18
1.96154e-17
6.30311e-17
1.01959e-16
8.89896e-17
4.95993e-17
1.65492e-17
3.92407e-18
7.37092e-19
1.15239e-19
1.61085e-20
1.97095e-21
7.2099e-23
-2.30708e-22
-2.09185e-21
-2.76528e-21
-2.2551e-21
-1.25758e-21
-5.04225e-22
-1.34692e-22
2.43761e-21
1.49332e-19
1.52374e-19
3.43636e-19
1.42964e-18
4.29631e-18
6.49932e-18
5.47119e-18
2.90975e-18
9.3994e-19
2.16282e-19
3.93305e-20
5.91025e-21
5.92169e-22
1.94519e-23
-8.18709e-22
-2.08033e-21
-2.70411e-21
-2.33321e-21
-1.42338e-21
-6.27578e-22
-2.00708e-22
-4.75913e-23
6.69906e-23
1.35722e-20
9.83457e-21
2.29493e-20
9.85455e-20
2.69326e-19
3.36732e-19
2.90486e-19
1.57842e-19
5.06093e-20
1.14213e-20
2.01559e-21
2.38737e-22
7.83635e-24
-4.36171e-22
-1.25514e-21
-1.87143e-21
-1.83731e-21
-1.27821e-21
-6.41911e-22
-2.32685e-22
-5.98676e-23
-1.0785e-23
5.90243e-23
6.14598e-22
2.0057e-21
2.73232e-21
5.31257e-21
1.87871e-20
5.94501e-20
3.73994e-20
1.15214e-20
2.56147e-21
4.45978e-22
6.02153e-23
3.89965e-24
-1.34499e-22
-5.29644e-22
-9.80353e-22
-1.14768e-21
-9.20788e-22
-5.27528e-22
-2.14789e-22
-6.0541e-23
-1.11288e-23
-1.15269e-24
0.999968
0.999967
0.999967
0.737409
0.999966
0.999967
0.697504
0.150453
0.999959
0.757127
0.280328
0.190568
0.701782
0.418788
0.322296
0.328173
0.157367
0.228488
0.328173
0.332835
0.0268903
0.0521553
0.0379157
0.0800424
0.0267424
0.0266625
0.0170415
0.0170097
0.0293117
0.0293314
0.0199375
0.0169669
0.021597
0.0244587
0.026453
0.0285526
3.12978e-05
0.000256563
5.04427e-05
0.000659751
2.68993e-05
3.21124e-05
4.06808e-05
3.25043e-05
8.08102e-05
0.000329
3.25038e-05
3.25044e-05
0.000125969
0.00179639
0.00255219
0.000445612
2.26117e-05
0.000662597
0.0112849
0.0145303
4.9516e-06
2.25467e-05
0.000230856
0.00307701
4.87492e-06
4.95162e-06
3.73522e-06
8.27364e-06
4.97769e-06
3.99215e-06
1.29647e-06
9.48515e-05
8.39718e-06
6.12338e-06
8.11813e-07
4.42086e-07
8.4043e-06
3.0962e-06
6.16763e-07
3.18701e-07
3.51908e-06
1.29161e-06
2.3905e-07
4.07806e-10
3.38236e-06
1.60899e-06
1.35951e-06
3.40483e-06
3.55965e-06
3.48875e-05
0.000141874
7.69408e-06
4.36742e-06
0.000605809
0.000455082
8.66654e-06
0.000906831
0.000889119
0.000347653
2.69389e-07
0.000690719
0.000571079
3.72369e-05
-3.37042e-10
7.00108e-11
3.36929e-11
1.7262e-11
1.54891e-11
4.49167e-11
3.91112e-11
4.38585e-11
4.34441e-11
1.76174e-11
1.11163e-10
2.26754e-10
1.8359e-10
1.20042e-10
2.60279e-10
2.60343e-10
1.7762e-10
1.12909e-12
1.64759e-11
2.2978e-11
1.75382e-11
3.26596e-13
2.20415e-12
2.51476e-12
1.83419e-12
5.87131e-14
2.72461e-13
2.60072e-13
1.55946e-13
6.74519e-15
1.85476e-14
1.53839e-14
7.24204e-15
5.15522e-16
8.46602e-16
6.08e-16
2.06953e-16
2.38276e-17
2.74886e-17
1.61402e-17
8.07715e-18
9.1181e-19
8.29874e-19
4.39525e-19
1.30242e-18
3.1016e-20
2.06715e-20
3.80517e-20
6.70193e-19
8.98375e-22
4.76412e-22
1.1645e-20
4.40741e-19
-1.12944e-24
6.94421e-24
2.66768e-21
2.1063e-19
-5.9201e-24
-4.27478e-25
3.94248e-22
3.93285e-20
-1.03285e-24
-5.45248e-26
3.144e-23
7.59684e-22
-5.20418e-26
-4.81017e-28
1.57798e-26
1.37524e-26
0.143607
0.0776388
0.0252363
0.0259096
0.0286116
0.248806
0.43614
0.494524
0.660134
0.779224
0.856138
0.867056
0.866958
0.85992
0.77828
0.627576
0.329852
0.427042
0.674283
0.094731
0.0244325
0.0245248
0.0252417
0.0290953
0.331091
0.701878
0.705762
0.694668
0.694247
0.693076
0.829062
0.866151
0.866089
0.395258
0.0269444
0.000237496
0.0456907
0.239262
0.0815957
0.0244212
0.0244255
0.0245655
0.0253334
0.060631
0.526645
0.708143
0.711785
0.715039
0.719496
0.741683
0.628904
0.256548
0.0020911
0.000237564
9.32475e-05
8.46348e-05
9.32475e-05
0.254595
0.0244255
0.0244091
0.0244255
0.0245655
0.0966485
0.552184
0.705762
0.698949
0.622109
0.421528
0.114375
0.0300204
0.000702825
0.00033606
0.000193745
0.000192128
7.88053e-05
0.000213515
0.334409
0.200746
0.0244155
0.0244091
0.0302144
0.433145
0.565784
0.492185
0.175162
0.0358583
0.00746175
0.00101871
0.000707681
0.00046559
0.000411054
0.000501772
0.00028531
3.77754e-05
0.000213761
0.341175
0.34995
0.151517
0.0244455
0.287679
0.522391
0.348284
0.000631688
0.000621914
0.0006371
0.000658373
0.000951522
0.0015438
0.00112254
0.000277093
0.000168127
2.41031e-06
2.36944e-06
3.1724e-06
0.148626
0.350557
0.355743
0.227851
0.236006
0.464386
0.00063169
0.000617457
0.000617696
0.000619632
0.000626223
0.000937914
0.0014793
0.000983032
4.59781e-06
1.94858e-06
2.76757e-06
1.15129e-05
3.71192e-06
0.0169613
0.102428
0.355367
0.383931
0.195431
0.333375
0.000617453
0.000617457
0.000617428
0.000617696
0.000627086
0.000700508
0.00123419
0.000165829
1.89046e-06
1.87352e-06
6.78784e-06
6.278e-05
4.47735e-05
0.0235204
0.00302171
0.0178095
0.222051
0.289707
0.263454
0.0222927
0.000640151
0.000617696
0.000917803
0.00111383
0.000448634
0.000119656
1.90701e-06
1.87356e-06
1.90701e-06
6.71175e-06
6.27782e-05
6.2791e-05
0.00484242
0.000237049
0.000161448
0.000221489
0.274108
0.302891
0.152334
0.00131156
0.00145279
0.00163973
0.000949235
0.000194098
2.00294e-06
1.89402e-06
1.90701e-06
1.96992e-06
4.00426e-06
6.27905e-05
4.40237e-05
3.61591e-05
4.16943e-05
5.36207e-05
0.000145681
0.0165611
0.302903
0.176344
0.00291377
0.00150385
0.000788967
6.64784e-05
3.44526e-06
2.40966e-06
3.29173e-06
4.2279e-06
2.17962e-06
1.0397e-05
6.16774e-05
1.23927e-05
3.24837e-05
3.61591e-05
4.16943e-05
0.00020071
0.0488839
0.187604
0.128855
0.00381003
0.000402239
3.97902e-06
7.05898e-07
3.76179e-06
3.09934e-06
4.08427e-05
0.000217008
6.3174e-05
3.41249e-05
1.47503e-05
1.23927e-05
0.00012482
7.41009e-05
0.0129632
0.0630205
0.0526959
0.000621612
0.0190093
0.000755716
3.9489e-06
6.83375e-07
5.00929e-07
4.38486e-06
3.39478e-06
9.59027e-05
0.000341092
0.000272046
2.75729e-05
1.24302e-05
1.23927e-05
0.0145641
0.0145604
0.0145607
0.00609104
0.000102603
0.000460004
7.44721e-05
4.21528e-06
6.60622e-07
4.71863e-07
4.66396e-07
5.55427e-07
6.40572e-07
0.000120579
0.000341393
0.000226163
3.77168e-05
0.000262865
1.24302e-05
0.00421794
0.00171282
0.000267247
0.000102603
0.000103768
7.77484e-05
7.9558e-06
6.60622e-07
4.71863e-07
4.66396e-07
4.65976e-07
4.66396e-07
6.09005e-06
0.000237596
0.00033039
3.74386e-05
0.000144236
0.000721462
1.31858e-05
5.56953e-05
0.000260581
0.000156995
0.000132775
0.000162277
0.000133809
4.4894e-05
3.16731e-06
1.06344e-06
6.15565e-07
4.65995e-07
4.65995e-07
4.22919e-05
0.000334756
0.000250574
3.57317e-05
0.000207765
0.000729389
1.92635e-05
0.000490047
0.000528855
0.000535855
0.000538429
0.000538967
0.000538967
0.000538967
0.000316826
6.05401e-05
5.27294e-07
5.03215e-07
2.19696e-06
1.89454e-05
0.000334795
0.000308376
3.53797e-05
0.000191095
0.000736196
2.91519e-05
3.06474e-05
0.000226349
0.00034239
0.000449745
0.000523785
0.000537476
0.000529327
0.000507212
0.000153454
1.01635e-06
2.7174e-06
2.79794e-06
8.59258e-07
0.000318505
0.00032847
3.48735e-05
0.00029552
0.000738045
0.000309194
4.07806e-10
6.9953e-11
6.00607e-11
5.8312e-11
3.45444e-05
6.70649e-05
3.0091e-05
1.15362e-05
1.78628e-05
1.17165e-06
3.80129e-06
1.67231e-06
8.39734e-07
7.07549e-05
0.000289852
2.60552e-05
0.000612837
0.000737871
0.000737871
6.9953e-11
6.00607e-11
5.8312e-11
5.74399e-11
5.6463e-11
5.74399e-11
5.94424e-11
8.39379e-11
5.95329e-10
1.28668e-06
3.80129e-06
2.6672e-06
8.07345e-07
2.97827e-07
3.09992e-07
3.27813e-07
0.000495089
0.000737935
0.000732882
1.41379e-10
6.88002e-11
5.87652e-11
5.64632e-11
5.56764e-11
5.64633e-11
5.88586e-11
7.0424e-11
8.08624e-11
1.72739e-06
3.80129e-06
3.79983e-06
2.27145e-06
2.49721e-07
2.97827e-07
3.33267e-07
2.32706e-05
0.000732882
0.000480089
6.65596e-10
3.2018e-10
1.14358e-10
7.90203e-11
5.54552e-11
8.88033e-11
1.77261e-10
8.68997e-11
8.19046e-11
2.75877e-06
3.79809e-06
3.79906e-06
2.69043e-06
1.92311e-07
2.65857e-06
7.00337e-07
7.3422e-07
0.000482874
0.000397108
3.89339e-09
3.26358e-09
8.97116e-10
1.49709e-10
3.80735e-11
8.45598e-11
5.82654e-10
5.29277e-10
8.15419e-11
8.2541e-07
3.77862e-06
3.79737e-06
7.66796e-07
1.62651e-07
4.44572e-06
1.79041e-06
7.35686e-07
0.000314922
0.000390909
1.04742e-08
4.12071e-09
4.03312e-09
4.91073e-10
3.31673e-11
3.74651e-11
9.02807e-10
1.78327e-09
6.83073e-10
3.62345e-10
1.07296e-06
1.00056e-06
4.90997e-08
5.64658e-08
4.27894e-06
1.11481e-06
1.52455e-06
0.000547065
0.000536719
1.50275e-11
5.21781e-09
7.06798e-09
1.02295e-09
1.60446e-11
1.19341e-11
9.29387e-10
2.37387e-09
2.32024e-09
9.73535e-10
3.37639e-10
3.38792e-10
3.37685e-10
2.41453e-07
8.09021e-07
4.9871e-07
0.000171211
0.000551406
0.000356276
1.55067e-11
4.18386e-09
5.86845e-09
1.08974e-09
5.66299e-12
6.99756e-12
4.39532e-10
2.18723e-09
2.48138e-09
2.00934e-09
4.95551e-10
3.37639e-10
1.48897e-09
8.63634e-07
5.37692e-07
4.58257e-07
0.000167499
0.000551406
0.000210773
2.3288e-11
2.42706e-12
2.12133e-12
2.06477e-12
2.69575e-12
7.25962e-12
8.60448e-11
6.04015e-10
1.74503e-09
1.53968e-09
6.6057e-10
3.42881e-10
3.77025e-10
2.1267e-07
3.26773e-07
4.20504e-07
4.58257e-07
0.000542102
0.000159213
9.53544e-11
3.16773e-11
6.3154e-12
1.98691e-12
2.78974e-12
6.44456e-12
1.36826e-11
9.44772e-11
3.50735e-10
4.86062e-10
4.04086e-10
3.7601e-10
7.70993e-10
8.90049e-09
6.8022e-07
7.27786e-07
6.75838e-07
5.76746e-05
0.000115218
7.32916e-11
2.82243e-11
6.58566e-12
9.53355e-13
1.89092e-12
2.06085e-12
3.47033e-12
4.66774e-12
3.18307e-10
7.65593e-10
4.0408e-10
4.46444e-10
6.10904e-09
1.25183e-05
2.61536e-05
8.36189e-06
8.48505e-07
1.0426e-06
0.000217771
1.41478e-11
8.82851e-12
2.07248e-12
2.6033e-13
6.59463e-13
5.7008e-13
4.83384e-13
1.99242e-09
1.91913e-08
1.1259e-08
4.44871e-10
7.66723e-10
1.09043e-06
4.18915e-05
4.24133e-05
1.58408e-05
1.0426e-06
0.000183672
0.000445887
8.65749e-13
2.42737e-13
5.29767e-14
8.61747e-14
2.8274e-13
3.27222e-13
3.35028e-13
2.72368e-08
4.48663e-08
2.42954e-08
1.04986e-09
1.309e-07
3.67394e-05
4.27444e-05
4.25363e-05
1.09099e-05
5.7947e-06
0.000450731
0.00044931
5.24865e-14
7.53e-15
3.73822e-14
1.30189e-13
6.30453e-13
3.35028e-13
4.63035e-09
4.48663e-08
4.48663e-08
1.95141e-08
1.49506e-09
2.02688e-05
4.27444e-05
4.27444e-05
3.12e-05
8.14116e-06
0.000111511
0.000459814
0.000212692
1.67028e-15
3.87361e-16
2.13715e-13
5.73457e-13
7.87483e-12
3.94181e-13
1.33115e-08
4.44739e-08
4.05201e-08
5.38621e-09
2.03886e-09
2.36536e-05
4.2233e-05
4.27444e-05
2.16952e-05
8.18281e-06
0.000320522
0.000460234
0.000180745
8.76975e-17
6.77704e-17
4.83913e-13
1.43866e-12
4.13111e-11
1.07808e-12
6.77056e-09
2.8569e-08
1.92216e-09
3.19272e-09
2.3815e-09
1.62134e-06
3.9562e-05
1.46683e-05
1.49679e-05
6.65451e-05
0.000460488
0.000460488
8.14435e-05
2.17865e-17
4.18663e-18
6.62905e-13
3.00535e-12
9.11187e-11
2.14248e-10
8.85695e-11
8.54116e-12
9.7044e-12
6.7238e-09
3.95553e-08
7.96154e-07
3.70369e-06
5.61459e-06
1.62072e-05
0.000250513
0.000424205
0.000124259
2.24208e-07
8.42792e-18
3.90466e-19
7.48513e-13
6.26845e-12
1.20099e-10
4.21574e-10
6.3059e-11
8.13431e-12
8.54116e-12
1.24242e-08
6.60471e-08
9.70918e-10
2.34198e-09
9.80993e-06
0.000113101
0.000114408
4.69989e-28
1.71798e-52
4.13601e-52
3.09882e-18
3.45624e-19
7.91584e-13
1.01269e-11
9.47205e-11
3.55837e-10
1.26481e-10
7.8355e-12
6.35199e-11
4.27371e-10
6.8514e-10
6.63876e-10
9.69736e-10
1.44356e-08
-6.94207e-15
-1.17239e-14
-1.43623e-14
-5.27927e-15
-5.46098e-16
1.13787e-18
2.98134e-19
7.15911e-13
1.17163e-11
2.48186e-11
6.49507e-11
2.1802e-11
4.95173e-12
2.56798e-12
1.52445e-12
6.06336e-10
1.03677e-08
1.34521e-08
2.1896e-10
-8.75959e-15
-1.68809e-14
-2.39057e-14
-7.56895e-15
-8.0924e-16
2.44364e-19
2.47439e-19
3.25891e-13
7.14838e-12
3.82626e-12
1.79936e-14
1.16868e-14
2.46664e-12
2.79318e-13
2.88016e-13
1.82882e-10
1.55266e-08
3.01866e-08
1.99662e-08
-3.49013e-15
-8.58057e-15
-1.46491e-14
-4.00944e-15
-4.26127e-16
2.47448e-20
7.81523e-18
5.6367e-14
8.54415e-13
4.66438e-13
1.22672e-13
1.15054e-14
8.8272e-13
1.06357e-13
4.0133e-12
9.83673e-12
2.97728e-09
2.1334e-08
2.13352e-08
4.40072e-20
8.62954e-18
5.6772e-17
2.04982e-18
7.25712e-19
3.62768e-22
1.41576e-17
3.04204e-15
3.55593e-14
4.15746e-14
1.39573e-14
6.41383e-16
9.86727e-14
6.15767e-15
4.49852e-12
5.5763e-11
6.77533e-13
-2.86122e-31
6.35118e-09
-9.65726e-19
-3.65455e-18
-2.81697e-19
-1.20661e-20
6.2774e-22
6.03557e-27
4.7599e-18
1.21948e-19
-2.7357e-38
0
-5.21793e-44
2.52716e-19
1.83746e-16
2.41531e-19
1.46918e-14
3.76764e-12
8.70259e-12
-1.16016e-21
-1.21032e-20
-1.26805e-19
-1.21824e-18
-1.18308e-19
-5.086e-21
-8.35015e-23
)
;

boundaryField
{
    leftWall
    {
        type            zeroGradient;
    }
    rightWall
    {
        type            zeroGradient;
    }
    lowerWall
    {
        type            zeroGradient;
    }
    atmosphere
    {
        type            inletOutlet;
        inletValue      uniform 0;
        value           nonuniform List<scalar> 
46
(
5.90243e-23
6.14598e-22
2.0057e-21
2.73232e-21
5.31257e-21
1.87871e-20
5.94501e-20
3.73994e-20
1.15214e-20
2.56147e-21
4.45978e-22
6.02153e-23
3.89965e-24
-1.34499e-22
-5.29644e-22
-9.80353e-22
-1.14768e-21
-9.20788e-22
-5.27528e-22
-2.14789e-22
-6.0541e-23
-1.11288e-23
-1.15269e-24
0
0
0
0
0
0
0
0
0
0
0
0
0
0
0
0
0
0
0
0
0
0
0
)
;
    }
    defaultFaces
    {
        type            empty;
    }
}


// ************************************************************************* //
