/*--------------------------------*- C++ -*----------------------------------*\
| =========                 |                                                 |
| \\      /  F ield         | OpenFOAM: The Open Source CFD Toolbox           |
|  \\    /   O peration     | Version:  2206                                  |
|   \\  /    A nd           | Website:  www.openfoam.com                      |
|    \\/     M anipulation  |                                                 |
\*---------------------------------------------------------------------------*/
FoamFile
{
    version     2.0;
    format      ascii;
    arch        "LSB;label=32;scalar=64";
    class       surfaceScalarField;
    location    "0.95";
    object      alphaPhi0.water;
}
// * * * * * * * * * * * * * * * * * * * * * * * * * * * * * * * * * * * * * //

dimensions      [0 3 -1 0 0 0 0];

oriented        oriented;

internalField   nonuniform List<scalar> 
4432
(
1.21988e-06
-1.21988e-06
-1.73965e-06
2.95953e-06
-7.75772e-06
6.01806e-06
-1.2755e-05
4.99729e-06
-1.43997e-05
1.64464e-06
-1.44884e-05
8.87411e-08
-1.49491e-05
4.60722e-07
-1.57869e-05
8.37737e-07
-1.64997e-05
7.12837e-07
-1.64498e-05
-4.98588e-08
-1.48765e-05
-1.57299e-06
-1.20457e-05
-2.72328e-06
-1.041e-05
-1.41983e-06
-1.28684e-05
2.45493e-06
-1.90363e-05
5.85286e-06
-2.28842e-05
3.86753e-06
-2.00279e-05
-2.78497e-06
-1.34334e-05
-6.22606e-06
-7.69028e-06
-5.80202e-06
-3.07834e-06
-4.55137e-06
5.37828e-07
-3.63935e-06
1.68427e-06
-1.14619e-06
1.68394e-06
-4.70227e-06
3.48239e-06
-1.06146e-05
8.87187e-06
-1.54234e-05
1.08268e-05
-1.67647e-05
6.3386e-06
-1.58737e-05
7.53629e-07
-1.54363e-05
-3.48645e-07
-1.63238e-05
1.34818e-06
-1.77684e-05
2.28235e-06
-1.87711e-05
1.71559e-06
-1.89805e-05
1.59545e-07
-1.89691e-05
-1.58415e-06
-1.86659e-05
-2.06746e-06
-2.04141e-05
3.10789e-07
-2.19008e-05
3.92379e-06
-2.09041e-05
4.83349e-06
-1.58586e-05
-1.11691e-06
-1.00211e-05
-8.78979e-06
-5.48508e-06
-1.14026e-05
-1.64462e-06
-9.89701e-06
2.07294e-06
-8.47094e-06
5.14409e-06
-6.75735e-06
4.41839e-06
-3.95886e-07
6.1015e-06
-7.61736e-06
1.10997e-05
-1.39801e-05
1.52346e-05
-1.73621e-05
1.42088e-05
-1.79276e-05
6.90412e-06
-1.69427e-05
-2.31274e-07
-1.61565e-05
-1.13489e-06
-1.6404e-05
1.59566e-06
-1.7178e-05
3.05641e-06
-1.75012e-05
2.03873e-06
-1.71e-05
-2.41651e-07
-1.64318e-05
-2.2524e-06
-1.5957e-05
-2.33447e-06
-1.52283e-05
1.54845e-07
-1.39516e-05
2.62793e-06
-1.01084e-05
9.66965e-07
-5.9991e-06
-5.7061e-06
-3.57749e-06
-1.17478e-05
-1.97771e-06
-1.30024e-05
1.28965e-07
-1.20037e-05
3.34519e-06
-1.16872e-05
6.64257e-06
-1.00547e-05
6.16559e-06
8.10821e-08
1.2267e-05
-7.8642e-06
1.89639e-05
-1.39009e-05
2.12713e-05
-1.72848e-05
1.75927e-05
-1.83761e-05
7.99548e-06
-1.77007e-05
-9.06663e-07
-1.7016e-05
-1.81963e-06
-1.7335e-05
1.91468e-06
-1.80157e-05
3.73709e-06
-1.80949e-05
2.11794e-06
-1.70315e-05
-1.30502e-06
-1.48261e-05
-4.45784e-06
-1.19746e-05
-5.18552e-06
-8.74977e-06
-3.01609e-06
-5.32953e-06
-6.71517e-07
-2.53754e-06
-1.84006e-06
-1.476e-06
-6.76764e-06
-1.87324e-06
-1.13505e-05
-1.80256e-06
-1.3073e-05
-2.92306e-07
-1.35139e-05
2.11385e-06
-1.40933e-05
4.84156e-06
-1.27824e-05
5.54012e-06
-6.17491e-07
1.78072e-05
-6.75822e-06
2.57221e-05
-1.22697e-05
2.67828e-05
-1.58408e-05
2.11638e-05
-1.73839e-05
9.53864e-06
-1.72296e-05
-1.061e-06
-1.74175e-05
-1.63175e-06
-1.84733e-05
2.97047e-06
-1.96102e-05
4.87405e-06
-1.98891e-05
2.39684e-06
-1.86002e-05
-2.59391e-06
-1.55319e-05
-7.52618e-06
-1.13558e-05
-9.36165e-06
-7.03262e-06
-7.33923e-06
-3.47208e-06
-4.23206e-06
-1.6889e-06
-3.62323e-06
-1.89427e-06
-6.56225e-06
-2.52232e-06
-1.07225e-05
-1.88597e-06
-1.37094e-05
-1.84291e-07
-1.52156e-05
1.17656e-06
-1.54542e-05
1.86525e-06
-1.34711e-05
3.65586e-06
-2.40812e-06
2.14634e-05
-4.97251e-06
3.06946e-05
-9.64835e-06
3.14586e-05
-1.30177e-05
2.45332e-05
-1.48101e-05
1.1331e-05
-1.55957e-05
-2.75425e-07
-1.71971e-05
-3.02967e-08
-1.95221e-05
5.29542e-06
-2.13893e-05
6.74127e-06
-2.19674e-05
2.97492e-06
-2.04867e-05
-4.07459e-06
-1.6579e-05
-1.14339e-05
-1.1331e-05
-1.46097e-05
-6.58406e-06
-1.20861e-05
-3.45606e-06
-7.36005e-06
-2.22101e-06
-4.85828e-06
-2.27705e-06
-6.5062e-06
-2.02093e-06
-1.09786e-05
-6.0992e-07
-1.51204e-05
1.18272e-06
-1.70083e-05
1.96078e-06
-1.62322e-05
8.36129e-07
-1.23465e-05
2.5211e-06
-4.09314e-06
2.39845e-05
-2.75386e-06
3.34485e-05
-6.40729e-06
3.5112e-05
-9.3756e-06
2.75015e-05
-1.09135e-05
1.28695e-05
-1.22192e-05
1.03082e-06
-1.62337e-05
3.9823e-06
-2.05421e-05
9.60379e-06
-2.33617e-05
9.56084e-06
-2.42592e-05
3.8724e-06
-2.20797e-05
-6.25404e-06
-1.61609e-05
-1.73527e-05
-8.87989e-06
-2.18906e-05
-3.35957e-06
-1.76065e-05
-5.62319e-07
-1.01574e-05
5.30128e-08
-5.47363e-06
-2.43149e-07
-6.21005e-06
1.90326e-08
-1.12408e-05
1.42789e-06
-1.65293e-05
3.56895e-06
-1.91492e-05
5.16462e-06
-1.78278e-05
4.5406e-06
-1.17225e-05
3.25379e-06
-2.80555e-06
2.7238e-05
-4.66896e-07
3.39154e-05
-2.8001e-06
3.74452e-05
-4.54173e-06
2.92431e-05
-3.92202e-06
1.22498e-05
-6.80857e-06
3.92e-06
-1.46869e-05
1.18554e-05
-2.13544e-05
1.62664e-05
-2.51785e-05
1.33849e-05
-2.60385e-05
4.73247e-06
-2.23421e-05
-9.95046e-06
-1.46721e-05
-2.50219e-05
-6.72595e-06
-2.98312e-05
-1.49521e-06
-2.28381e-05
9.90634e-07
-1.26478e-05
1.4274e-06
-5.91185e-06
8.44384e-07
-5.62732e-06
8.51838e-07
-1.12479e-05
2.58792e-06
-1.8265e-05
6.15682e-06
-2.25272e-05
9.7649e-06
-2.11416e-05
1.0527e-05
-1.23458e-05
5.25725e-06
2.49641e-06
3.24949e-05
4.98971e-06
-4.99225e-06
1.35409e-05
-8.55376e-06
2.22824e-05
-8.12688e-06
2.50797e-05
-2.79124e-06
2.19689e-05
3.11559e-06
1.38533e-05
8.12033e-06
2.61991e-06
1.00306e-05
-4.38199e-06
6.15548e-06
-1.51059e-05
4.84718e-06
-1.61272e-05
1.02206e-06
-6.1819e-06
-9.94463e-06
6.92198e-06
-1.3103e-05
-3.87036e-06
1.07932e-05
-3.87782e-05
3.49087e-05
-5.8246e-05
1.94758e-05
-5.58783e-05
-2.68195e-06
-3.6725e-05
-1.91676e-05
-1.25609e-05
-2.41635e-05
-1.25603e-05
8.56727e-07
-5.85151e-06
1.16019e-05
-2.15627e-05
2.21042e-05
-1.86092e-05
2.91041e-05
-9.78485e-06
3.31775e-05
-9.52988e-07
3.01077e-05
1.11949e-05
1.68324e-05
1.89862e-05
8.48552e-06
1.39252e-05
3.10318e-06
9.63461e-06
-5.92351e-06
9.15952e-06
-9.49557e-06
-6.37172e-06
-1.05626e-05
-1.20351e-05
-3.14548e-05
3.16862e-05
-3.74263e-05
4.20684e-05
-2.80051e-05
1.20223e-05
-2.40072e-05
-6.45168e-06
-2.17793e-05
-2.39234e-05
-5.78921e-06
-4.01537e-05
-1.83489e-05
2.21971e-06
-8.32324e-06
1.51502e-05
-3.4407e-05
2.5027e-05
-2.84531e-05
3.26277e-05
-1.73665e-05
3.96951e-05
-8.01413e-06
4.04325e-05
1.04623e-05
2.85275e-05
2.47527e-05
1.97105e-05
2.21473e-05
1.40914e-05
1.46588e-05
8.98386e-06
1.55507e-05
-6.22745e-06
9.22426e-06
-2.19189e-05
3.65701e-06
-3.32577e-05
4.32963e-05
-1.82897e-05
2.76602e-05
-1.43496e-05
8.04258e-06
-9.34392e-06
-1.14933e-05
-2.98575e-06
-3.03277e-05
4.37976e-06
-5.00554e-05
-1.39688e-05
7.96564e-06
-1.60551e-05
1.76851e-05
-4.38797e-05
1.62133e-05
-1.24681e-05
1.76268e-05
-2.2904e-06
2.32687e-05
-6.62524e-07
2.65774e-05
1.51888e-06
3.1072e-05
7.03883e-06
3.15533e-05
3.58189e-05
2.41068e-05
2.88354e-05
1.6219e-05
2.49433e-05
4.48951e-06
1.80995e-05
-1.48117e-05
1.65049e-05
-1.1807e-05
3.11165e-05
-7.67995e-06
2.34935e-05
-3.62343e-06
3.93588e-06
1.52768e-06
-1.66841e-05
1.1359e-05
-4.76972e-05
1.00139e-05
-4.87114e-05
-3.95343e-06
1.29622e-05
-2.87536e-05
8.06006e-06
-2.04247e-05
2.98942e-06
-3.0844e-06
1.36287e-06
-6.65372e-07
9.29996e-07
-2.53126e-07
3.1805e-06
4.75456e-07
1.58265e-05
3.90993e-06
3.97644e-05
2.9072e-05
3.47115e-05
3.42215e-05
1.56289e-05
4.3337e-05
5.89511e-06
3.0201e-05
1.14795e-06
2.35425e-05
-3.3766e-07
2.09144e-05
2.2634e-06
2.08422e-05
5.59494e-06
5.54172e-07
8.50507e-06
-1.96444e-05
1.8511e-05
-5.55586e-05
1.04747e-05
-4.06736e-05
6.52242e-06
1.21321e-05
-2.75897e-05
2.28989e-06
-8.2422e-06
1.27382e-06
-2.05382e-06
7.31307e-07
-1.46306e-07
-1.5943e-07
6.1414e-07
-6.69376e-07
9.6193e-07
3.45052e-06
5.30246e-06
2.31059e-05
1.68156e-05
2.94741e-05
2.79285e-05
2.29121e-05
4.61858e-05
1.50861e-05
5.26656e-05
1.1425e-05
4.22484e-05
8.07048e-06
2.41951e-05
1.05159e-05
1.83437e-05
1.20568e-05
-1.03694e-06
1.77216e-05
-2.53623e-05
1.62603e-05
-5.19047e-05
6.57881e-06
-3.0991e-05
1.31026e-05
2.92686e-06
-1.7243e-05
1.17453e-06
-4.13424e-06
3.47179e-07
-1.23682e-06
-4.08457e-07
6.09723e-07
-1.29678e-06
1.47661e-06
-3.45338e-06
1.62479e-06
-1.4322e-06
-5.97761e-07
1.02091e-05
5.26662e-06
1.92237e-05
1.89897e-05
2.6012e-05
3.94727e-05
2.59451e-05
5.28434e-05
2.07341e-05
4.76348e-05
1.36955e-05
4.24716e-05
1.42518e-05
1.77136e-05
1.4552e-05
-1.39026e-06
2.26463e-05
-3.033e-05
8.64655e-06
-3.7899e-05
1.67392e-06
-2.40169e-05
1.47781e-05
9.67825e-07
-1.81585e-05
1.94176e-07
-5.18231e-06
-8.31135e-07
-3.13067e-07
-1.49526e-06
1.26349e-06
-1.76244e-06
1.66694e-06
-1.10274e-05
-5.25965e-07
-8.71649e-06
-5.87628e-06
-1.16655e-06
-2.23133e-06
8.78278e-06
9.11482e-06
1.90933e-05
2.92379e-05
2.67568e-05
4.52122e-05
2.62323e-05
4.82272e-05
2.38596e-05
4.60507e-05
1.66067e-05
2.89601e-05
2.47389e-05
7.1161e-07
1.30205e-05
-1.76974e-05
-4.00725e-06
-1.97411e-05
-2.52706e-06
-2.54957e-05
1.22525e-05
9.69548e-06
2.42199e-05
7.96456e-06
3.91762e-05
4.7581e-06
3.24496e-05
1.47964e-07
1.68599e-05
-1.42114e-05
1.8281e-05
-3.2267e-05
2.99163e-05
-4.62257e-05
3.02251e-05
-5.55099e-05
2.26691e-05
-5.92239e-05
8.44653e-06
-5.79485e-05
-1.12236e-05
-4.86478e-05
-3.41662e-05
-3.32282e-05
-3.5462e-05
-2.36023e-05
-1.70705e-05
-1.90861e-05
-9.66207e-06
-1.89164e-05
-4.63989e-06
-1.85379e-05
-4.86595e-06
-1.45209e-05
-1.28242e-05
-6.02397e-06
-2.63441e-05
6.793e-06
-3.60682e-05
2.06141e-05
-3.54422e-05
3.05718e-05
-2.24293e-05
3.3103e-05
-3.48026e-08
2.79847e-05
3.76127e-05
2.5796e-05
-1.56829e-06
2.89924e-05
3.59798e-05
1.99513e-05
4.14907e-05
5.51322e-06
3.1298e-05
-1.08026e-05
3.45968e-05
-2.71298e-05
4.62435e-05
-4.67708e-05
4.98661e-05
-7.13646e-05
4.7263e-05
-9.86352e-05
3.57194e-05
-0.000112207
2.39143e-06
-9.57391e-05
-3.02453e-05
-5.47843e-05
-3.36174e-05
-5.16962e-05
-2.04284e-05
-4.9263e-05
-1.2365e-05
-4.59253e-05
-8.28436e-06
-3.97081e-05
-1.16129e-05
-4.61771e-05
-2.47165e-05
-5.02808e-05
-3.78724e-05
-4.55483e-05
-4.91441e-05
-3.07754e-05
-5.34175e-05
-1.24754e-05
-4.08313e-05
2.77901e-06
-1.53692e-05
1.34075e-05
1.73599e-05
3.22153e-05
-3.39176e-05
4.13592e-05
2.69327e-05
3.06836e-05
5.21663e-05
-2.71783e-07
6.22535e-05
-3.74578e-05
7.17828e-05
-8.15549e-05
9.03407e-05
-0.000134782
0.000103094
-0.000181813
9.42987e-05
-0.000193031
5.19077e-05
-0.000188286
-6.84773e-07
-0.000162135
-4.71676e-05
-0.000108565
-4.36069e-05
-9.75944e-05
-3.12199e-05
-9.18007e-05
-1.83208e-05
-8.38927e-05
-1.67221e-05
-0.00012904
-1.57611e-05
-0.000126704
-5.83131e-06
-0.000125403
-1.27306e-05
-0.000120199
-1.65473e-05
-0.000128012
-3.18406e-05
-0.000122519
-5.02007e-05
-0.000106443
-3.22186e-05
8.40298e-06
-0.000101435
-2.44916e-06
-3.15986e-05
-6.99493e-06
3.14422e-05
-2.26056e-05
6.77778e-05
-5.22869e-05
9.19348e-05
-0.000108027
8.37311e-05
-0.000179376
9.42347e-05
-0.000231387
0.000106765
-0.000216858
7.01129e-05
-0.000189232
2.0761e-05
-0.00019245
-4.04876e-06
-0.000187453
-5.25475e-05
-0.000174713
-5.03526e-05
-0.000163685
-3.6047e-05
-0.000160171
-1.51352e-05
-0.000167255
-1.73338e-06
-0.000110006
7.86039e-08
-4.11201e-05
-6.40157e-07
-2.26281e-05
-1.93158e-06
-1.98783e-05
-5.84272e-06
-4.2477e-05
-1.02615e-05
-8.78781e-05
-1.19596e-05
-0.000130549
-4.32186e-06
-8.00317e-07
-0.000134779
-5.08996e-05
1.91685e-05
-8.36258e-05
5.47044e-05
-8.78895e-05
3.70854e-05
-6.80685e-05
1.42339e-05
-7.89812e-05
4.36908e-06
-0.000102676
2.38036e-06
-9.65226e-05
7.91299e-06
-4.10679e-05
4.30867e-06
-2.62763e-05
1.26817e-06
-5.8283e-05
-5.91207e-07
-0.000153326
-1.33347e-05
-0.000187171
-3.54991e-05
-0.000176314
-3.49149e-05
-4.11644e-05
-9.7987e-06
-1.40454e-05
-2.73604e-08
-1.42569e-05
8.92084e-08
-1.36814e-05
-1.45691e-06
-1.22163e-05
-3.65323e-06
-1.1168e-05
-7.39615e-06
-1.02681e-05
-1.27352e-05
-8.82364e-06
-1.60405e-05
-9.82258e-06
-7.07633e-06
-7.04941e-08
-1.622e-05
-5.22725e-05
7.04514e-05
-3.19988e-05
1.33772e-05
-1.7709e-05
1.20195e-06
-1.52877e-05
-2.33421e-06
-1.54025e-05
-1.24262e-06
-1.08722e-05
-1.60315e-06
-6.00215e-06
2.53628e-06
-2.37282e-06
8.74515e-07
-1.18335e-06
7.93822e-08
-1.89128e-06
-1.78589e-08
-1.49459e-05
-7.16831e-07
-4.52613e-05
-4.22643e-06
-4.59306e-05
-1.09415e-05
-1.86611e-05
-1.71069e-05
-1.3973e-05
-4.95137e-06
-1.10488e-05
-3.07093e-06
-9.79941e-06
-2.96285e-06
-7.64017e-06
-6.34505e-06
-1.62945e-05
-2.3884e-05
-2.14446e-05
-2.44437e-05
-1.20678e-05
-2.1799e-05
-3.24594e-06
-1.51126e-05
-1.26396e-06
-5.815e-07
-8.78666e-06
8.26533e-05
-3.45574e-06
6.26383e-06
-3.50414e-06
8.03297e-07
-6.81017e-06
-3.04162e-07
-8.99065e-06
5.05071e-07
-3.60214e-06
5.09571e-07
-9.25529e-07
5.47704e-08
-1.96081e-07
1.85918e-07
-1.30299e-07
9.48909e-09
-2.15266e-07
2.20725e-09
-8.79376e-07
-1.46214e-07
-4.02499e-06
-1.40159e-06
-2.5751e-05
-6.46331e-06
-4.30529e-05
-2.11115e-05
-3.00434e-05
-1.24438e-05
-1.67647e-05
-1.27858e-05
-9.92008e-06
-1.5309e-05
-2.11357e-05
-1.86843e-05
-1.72879e-05
-2.30186e-05
-1.58006e-05
-2.15259e-05
-1.52203e-05
-1.70536e-05
-9.51078e-06
-1.14116e-05
-3.35807e-06
-8.80641e-07
-4.34198e-06
9.32895e-05
-1.08924e-06
2.90551e-06
-6.62128e-07
2.49517e-07
-2.40862e-06
7.96771e-08
-3.72515e-06
-4.23601e-09
-2.28144e-06
1.4983e-07
-1.90935e-07
2.77881e-07
-3.52137e-08
2.60851e-08
-2.08863e-08
4.51208e-09
-2.89142e-08
3.69089e-09
-1.62589e-07
-1.08171e-08
-1.37041e-06
-1.90741e-07
-2.13652e-05
-1.10557e-06
-4.04845e-05
-8.73376e-06
-3.68146e-05
-9.96151e-06
-3.00674e-05
-1.33825e-05
-2.45037e-05
-1.47222e-05
-1.91777e-05
-1.27867e-05
-1.51857e-05
-1.36599e-05
-5.93754e-06
-1.21791e-06
-1.62131e-06
-1.52312e-07
-2.19945e-06
-2.32486e-07
-8.96157e-07
-2.36802e-06
-2.00433e-06
8.99971e-05
-2.79819e-07
1.13583e-06
-1.44628e-07
7.69581e-08
-1.58632e-07
1.10726e-08
-2.60377e-07
-1.87957e-09
-5.64142e-07
-1.20938e-08
-2.5368e-07
1.42228e-07
-1.21441e-08
3.43862e-08
-5.00944e-09
3.34651e-09
-3.51845e-09
8.37519e-10
-1.26531e-08
1.75316e-10
-2.03323e-07
-1.74379e-10
-1.30661e-06
-9.80447e-10
-1.00354e-05
-5.81548e-09
-2.27923e-05
-3.08418e-08
-2.82106e-05
-1.24199e-07
-2.01409e-05
-5.46657e-07
-2.746e-06
-2.16433e-06
-6.57244e-08
-1.30813e-06
-1.50794e-09
-1.26477e-06
-1.54967e-08
-1.10195e-07
-2.1745e-07
-1.57935e-08
-3.10486e-07
-8.86925e-07
-7.44631e-07
5.74651e-05
-6.5218e-08
4.34284e-07
-2.07745e-08
2.05247e-08
-1.93067e-08
2.75729e-09
-2.75941e-08
3.61864e-10
-4.72877e-08
-6.50711e-10
-7.69689e-08
-1.29216e-09
-1.29446e-08
3.68629e-08
-8.69799e-10
1.32259e-09
-2.18744e-10
2.04908e-10
-3.44755e-11
8.28137e-12
-2.06276e-10
-1.54514e-12
-1.14538e-09
-5.7579e-11
-6.38626e-09
-6.63572e-10
-3.21149e-08
-5.5709e-09
-1.20973e-07
-3.75616e-08
-3.86465e-07
-2.91252e-07
-5.21571e-07
-2.07493e-06
-5.2665e-07
-3.45056e-06
-1.38479e-07
-3.18208e-06
-2.69367e-08
-2.06998e-07
-2.9876e-08
-9.59544e-10
-6.1052e-09
4.4447e-09
-2.75279e-07
5.15415e-05
-1.30806e-08
1.61517e-07
-2.43539e-09
6.06727e-09
-1.8705e-09
6.43927e-10
-2.82803e-09
1.18538e-10
-4.87643e-09
1.05899e-10
-8.08269e-09
3.10192e-10
-3.84334e-09
4.50733e-10
-2.02704e-10
1.93851e-09
-1.34325e-11
1.84556e-11
-4.46462e-12
4.75314e-13
-5.86899e-12
3.84411e-14
-6.04564e-11
-2.39425e-12
-6.69535e-10
-5.56987e-11
-5.15817e-09
-1.1333e-09
-2.63684e-08
-1.72096e-08
-1.26446e-07
-2.0018e-07
-1.74334e-06
-2.61489e-06
-1.82897e-06
-4.05489e-06
-7.24084e-07
-3.76532e-06
-1.73954e-09
-1.18727e-06
-3.37094e-10
-2.48681e-09
-6.92371e-09
4.56341e-10
-1.03809e-07
8.9531e-05
-2.65902e-09
5.6551e-08
-1.61727e-10
2.32657e-09
-1.39995e-10
1.88021e-10
-2.91644e-10
3.66589e-11
-5.59371e-10
5.4568e-11
-5.51613e-10
7.83897e-11
-3.74571e-10
8.86679e-11
-1.87805e-11
1.90825e-11
-5.98637e-13
1.34567e-12
-1.15482e-13
9.73734e-14
-6.33458e-14
1.51769e-14
-2.36382e-12
-6.32732e-14
-5.69697e-11
-1.05452e-12
-1.09924e-09
-6.6821e-11
-1.62359e-08
-2.254e-09
-3.81372e-07
-3.52608e-08
-1.83926e-06
-1.69167e-06
-1.89496e-06
-3.51688e-06
-1.47458e-06
-3.69697e-06
-8.18695e-09
-1.88974e-06
-5.56611e-09
-3.41623e-09
-8.7154e-09
-3.85786e-09
-3.69783e-08
0.000115092
-7.1401e-10
1.90417e-08
2.17171e-12
1.22998e-09
-4.16063e-12
7.25493e-11
-3.74459e-11
1.94749e-11
-6.56767e-11
2.00989e-11
-6.26026e-11
2.29882e-11
-1.73543e-11
1.98429e-11
-1.26378e-12
3.46625e-12
-4.01399e-14
2.15991e-13
-1.2663e-15
8.79748e-14
8.87264e-15
1.21353e-14
5.29976e-15
-5.75695e-14
-9.50276e-13
-8.11883e-14
-6.62727e-11
-1.75017e-12
-2.14219e-09
-1.61247e-10
-3.1583e-08
-4.99095e-09
-9.86954e-07
-1.38979e-07
-1.81686e-06
-2.20466e-06
-1.72985e-06
-3.26233e-06
-2.18532e-08
-2.52871e-06
-1.70442e-08
-2.04868e-09
-7.70465e-09
-1.44091e-08
-3.90885e-08
0.000119976
-2.15361e-10
1.03734e-08
-1.31994e-11
9.383e-10
-2.59835e-12
4.18871e-11
-8.94139e-12
1.91331e-11
-1.29528e-11
1.47585e-11
-1.10662e-11
1.27205e-11
-2.68149e-12
8.30994e-12
-2.63014e-13
1.23148e-12
-7.34554e-14
1.6873e-13
-2.92892e-14
1.26766e-13
1.02363e-14
-4.15457e-15
1.32679e-14
-5.73233e-14
6.58177e-15
-8.62166e-14
-1.46506e-12
-2.89182e-13
-1.46749e-10
-1.67834e-11
-4.43196e-09
-7.39286e-10
-1.18556e-07
-2.49726e-08
-1.47162e-06
-5.79865e-07
-1.83988e-06
-2.30438e-06
-2.28995e-08
-1.80973e-06
-2.18093e-08
-1.1095e-10
-1.46182e-09
-2.6339e-08
-3.38357e-11
0.00012368
-7.03331e-10
7.24112e-07
-8.4869e-12
2.23394e-10
-3.14993e-12
3.21987e-11
-4.55576e-12
1.7415e-11
-5.35972e-12
1.24141e-11
-3.46836e-12
9.40663e-12
-8.8879e-13
5.54317e-12
-1.85258e-13
5.69259e-13
-1.36271e-13
1.50712e-13
-8.96758e-14
1.06471e-13
-5.58895e-14
-2.12175e-14
-2.92241e-14
-6.12172e-14
-7.04035e-15
-9.15117e-14
-1.47956e-13
-1.41897e-13
-1.56535e-11
-1.61409e-12
-7.08018e-10
-6.00588e-11
-2.34421e-08
-2.36685e-09
-5.86617e-07
-2.41738e-08
-1.0582e-06
-1.0371e-07
-4.16636e-09
-2.92097e-07
-4.63647e-09
4.52677e-10
-2.72875e-11
-6.10627e-09
1.20284e-06
3.72815e-05
3.14158e-09
2.19698e-06
-1.6374e-11
3.37699e-09
-2.33308e-12
1.5611e-11
-3.07291e-12
1.52989e-11
-2.76515e-12
1.07304e-11
-1.42534e-12
8.04472e-12
-8.16976e-13
5.24225e-12
-7.54474e-13
6.72784e-13
-6.67298e-12
6.11015e-12
-2.39951e-12
-4.16055e-12
-2.15677e-13
-2.23136e-12
-7.07988e-14
-2.27612e-13
-5.30518e-14
-1.16412e-13
9.42832e-15
-2.20748e-13
1.52411e-12
-3.35466e-12
4.04943e-12
-6.62898e-11
-5.29689e-10
-2.63283e-09
-6.47547e-09
-1.89525e-08
-8.56279e-08
-2.26683e-08
-1.09105e-09
-3.14979e-09
-1.16678e-09
4.93835e-10
1.11127e-10
-1.34886e-09
3.37984e-07
1.23662e-06
-1.04682e-08
2.05486e-06
-4.88337e-12
3.19398e-08
-1.82567e-12
1.63922e-11
-3.40824e-12
1.79816e-11
-7.22385e-12
1.25293e-11
-5.26389e-11
5.20841e-11
-3.43236e-10
2.95817e-10
-1.97627e-09
1.63401e-09
-3.51126e-10
1.48769e-10
-6.75524e-11
-2.80025e-10
-3.99667e-12
-6.63682e-11
-2.04492e-13
-4.08849e-12
-7.5925e-14
-2.66681e-13
-2.04689e-13
-3.07489e-13
-5.71392e-13
-3.63459e-12
4.23313e-11
-1.25577e-10
-9.01148e-09
-3.04763e-09
-8.81764e-09
-1.05511e-08
-2.82505e-09
-2.49412e-08
-3.38153e-09
-4.25295e-10
-8.48955e-10
1.56708e-09
1.7361e-10
-1.08246e-09
3.0784e-07
2.47653e-07
5.63578e-08
9.14327e-07
1.29107e-09
6.09915e-08
-1.0381e-10
1.41612e-09
-6.97755e-10
7.28751e-10
-2.45591e-08
3.17373e-08
-3.77992e-08
1.10444e-07
-8.01434e-08
7.59525e-08
-7.58198e-08
2.69601e-08
-1.5671e-08
-1.6072e-08
-1.05513e-09
-1.90703e-08
-5.30425e-11
-1.07515e-09
-1.42263e-12
-5.58796e-11
-1.33152e-13
-1.62459e-12
-9.81075e-13
-3.68941e-13
-4.05722e-12
-1.66619e-12
-6.59137e-11
-8.104e-11
-1.05251e-08
-1.28423e-09
-8.30397e-08
-6.81552e-08
-1.93943e-08
-2.13861e-07
-3.3281e-09
-1.49178e-08
-8.53633e-10
6.60217e-10
8.05648e-11
-1.19938e-09
1.08725e-07
3.2234e-08
1.06385e-07
9.8542e-08
5.351e-09
1.21166e-07
6.85987e-11
6.33639e-09
-1.92022e-09
5.50952e-09
-2.42958e-08
1.44284e-07
-4.65057e-08
1.40194e-07
-5.4433e-08
9.02382e-08
-5.32621e-08
3.21477e-08
-3.79516e-08
-2.5024e-08
-1.65737e-08
-5.64433e-08
-4.64335e-10
-1.42774e-08
-8.36896e-12
-5.12494e-10
-9.31148e-14
-1.02518e-11
-1.48322e-13
-1.43012e-12
-2.28183e-12
-1.87664e-13
-8.60057e-11
-3.26602e-12
-1.2629e-09
-3.40132e-10
-1.79706e-07
-5.71993e-08
-1.18296e-07
-2.31215e-07
-9.77783e-10
-7.44656e-08
-3.10835e-10
8.99748e-11
1.32512e-10
-3.0319e-10
1.81367e-08
3.10953e-09
5.09143e-08
3.73272e-08
2.79979e-08
1.0492e-07
4.03186e-09
2.68879e-08
4.68569e-09
7.07093e-09
1.42553e-08
9.32361e-08
8.29835e-09
1.47226e-07
6.90946e-10
7.75634e-08
1.1029e-09
8.06944e-09
3.19899e-09
-2.19781e-08
5.32681e-09
-5.6734e-08
8.42481e-11
-3.32543e-08
-6.05556e-11
-2.59782e-09
-1.81529e-12
-8.71229e-11
3.046e-13
-4.20598e-12
2.81593e-14
-4.50863e-13
-3.60677e-12
-5.45953e-14
-4.38358e-10
7.63633e-11
-1.57175e-07
-3.05361e-09
-2.09287e-07
-1.25208e-07
-3.14358e-08
-1.91948e-07
-3.52054e-10
-3.08784e-08
9.98849e-11
-2.16137e-10
2.25735e-09
1.60475e-10
2.89782e-08
5.31281e-09
3.77397e-08
3.84307e-08
1.56144e-08
5.38568e-08
7.92761e-09
1.60646e-08
3.76866e-08
3.42239e-08
4.32724e-08
4.00885e-08
1.51141e-08
1.34853e-08
1.53631e-08
5.20182e-09
3.4691e-08
-3.76234e-09
2.96998e-08
-4.91597e-08
5.99083e-09
-3.89845e-08
-3.44653e-10
-4.61382e-09
-1.49648e-11
-4.29669e-10
2.45161e-13
-2.02861e-11
4.75744e-13
-1.10479e-12
5.50469e-14
-5.72425e-14
7.46547e-11
1.37272e-12
-1.09315e-08
1.23838e-09
-1.76194e-07
-4.1566e-08
-1.38775e-07
-1.75774e-07
-4.61114e-10
-9.97848e-08
2.51375e-11
-3.09895e-10
1.23463e-10
9.93224e-12
4.15378e-09
5.90946e-10
2.30744e-08
5.908e-09
3.40857e-08
3.88596e-08
1.46016e-08
2.24703e-08
2.06358e-08
2.22206e-08
2.87445e-08
2.65802e-08
2.22992e-08
1.691e-08
1.89911e-08
5.9783e-09
3.36988e-08
1.29136e-10
4.35667e-08
-2.75129e-08
1.4055e-08
-3.11523e-08
-8.3633e-11
-4.50144e-09
-6.328e-12
-5.72354e-10
5.91094e-13
-3.21568e-11
6.05025e-13
-1.61731e-12
2.74092e-13
-4.62145e-15
1.21667e-12
4.2965e-14
1.17545e-09
6.39687e-11
-7.45003e-08
5.65853e-09
-1.64924e-07
-2.99314e-08
-4.87682e-08
-1.58084e-07
-3.61604e-08
-2.00044e-09
1.03168e-11
-2.8238e-13
5.55745e-10
1.84931e-11
5.5791e-09
5.64146e-10
2.0602e-08
2.37435e-09
1.63623e-08
2.1027e-08
1.93693e-08
1.89542e-08
2.27536e-08
2.09338e-08
2.29067e-08
1.44465e-08
1.89467e-08
7.54494e-09
7.294e-08
1.82446e-08
6.23533e-08
1.37966e-09
1.96758e-08
-1.23601e-08
4.83006e-10
-1.96027e-09
3.53574e-11
-2.79891e-10
3.52003e-12
-1.56939e-11
9.08754e-13
-4.66515e-13
4.50734e-13
6.42907e-14
1.50991e-13
3.18554e-14
6.10783e-11
2.82448e-12
5.41335e-09
3.06291e-10
-3.74798e-08
8.97947e-09
-1.09116e-07
-2.9251e-08
-1.00963e-07
-1.93706e-08
4.62845e-13
-5.41011e-15
1.87872e-11
4.06371e-14
4.81834e-10
8.39138e-11
4.26994e-09
1.72992e-09
1.20911e-08
3.58618e-08
1.48039e-08
2.27627e-08
1.8112e-08
2.00128e-08
1.94634e-08
1.55201e-08
6.9358e-08
3.98536e-08
9.45159e-08
3.73814e-08
8.81969e-08
2.21287e-08
1.6427e-08
3.177e-09
5.11515e-10
5.56619e-11
4.26051e-11
-7.45229e-12
3.89101e-12
9.74047e-13
6.51627e-13
5.50397e-13
2.98709e-13
1.0626e-13
1.87691e-13
2.25515e-14
2.91981e-12
8.05281e-14
2.97311e-10
1.2025e-11
9.11047e-09
1.85605e-10
5.79872e-08
4.51787e-09
-2.5002e-08
1.43847e-08
2.11185e-15
-1.98086e-15
3.42063e-13
-4.04246e-14
8.35324e-11
5.95335e-13
2.15571e-08
3.89118e-09
6.74337e-08
4.87511e-08
6.19612e-08
7.62755e-08
6.82815e-08
7.67967e-08
9.69504e-08
7.33028e-08
9.37951e-08
6.75486e-08
8.67331e-08
5.22746e-08
7.00737e-08
3.21662e-08
1.05331e-09
1.52271e-09
1.29889e-10
1.8636e-10
1.28398e-11
1.9762e-11
9.53816e-13
2.36844e-12
9.05475e-14
2.95177e-13
4.7119e-14
4.21189e-14
5.326e-14
9.52087e-15
1.20637e-13
3.24642e-15
1.16497e-11
3.82741e-13
1.95052e-10
4.23804e-12
4.70309e-09
4.86766e-11
-4.64806e-11
5.30994e-08
-6.24936e-15
3.68334e-15
-6.33877e-15
1.48738e-13
8.71865e-12
4.17985e-12
1.35883e-09
2.37051e-09
2.3155e-08
3.56189e-08
4.09147e-08
6.30927e-08
5.6524e-08
6.93809e-08
6.67694e-08
7.18357e-08
7.14594e-08
7.29357e-08
6.99855e-08
5.81614e-08
4.84975e-09
3.54909e-09
4.31115e-11
1.57035e-10
1.12707e-11
3.42408e-11
1.35699e-12
4.93376e-12
1.10483e-13
6.34037e-13
1.59991e-14
8.34465e-14
2.44308e-14
1.35632e-14
1.99114e-14
5.95045e-15
1.51501e-14
1.43986e-15
3.98338e-13
1.18229e-15
4.668e-12
3.732e-14
5.40151e-11
2.50582e-13
-9.27795e-14
7.70451e-12
-7.11487e-15
5.28948e-15
-3.99849e-13
5.50024e-13
-6.62329e-12
9.70683e-12
-1.56927e-09
6.43679e-11
-7.77168e-09
3.78702e-09
7.80731e-09
4.78345e-08
2.27012e-08
5.66961e-08
3.55562e-08
6.71729e-08
2.20996e-08
2.87266e-08
2.48576e-09
1.03256e-09
1.35274e-10
-1.26208e-10
1.54609e-11
8.96837e-12
1.61612e-12
3.92553e-12
2.17732e-13
7.42866e-13
6.34817e-14
1.1184e-13
1.97427e-14
1.48885e-14
1.78053e-14
4.93885e-15
1.00432e-14
2.65477e-15
3.23432e-15
9.96045e-16
2.8143e-15
1.33544e-16
4.09633e-14
1.05451e-16
2.98055e-13
2.21662e-16
-5.53369e-16
1.281e-13
3.94674e-15
6.95339e-16
5.20232e-13
3.08229e-14
1.11665e-11
4.56122e-13
9.07067e-12
-5.72638e-12
-2.43221e-09
-1.92173e-10
-3.42684e-09
-8.59359e-11
1.92437e-09
1.17579e-09
5.21853e-09
1.16841e-09
1.47726e-09
3.12194e-11
3.33351e-10
-7.07889e-11
4.68013e-11
-1.73974e-11
5.20901e-12
-1.41802e-12
4.86978e-13
1.51821e-13
6.50638e-14
7.63762e-14
1.01699e-14
1.38779e-14
1.04492e-14
3.90764e-15
5.42077e-15
1.06727e-15
3.1721e-15
4.63813e-16
1.56893e-15
2.83943e-16
4.47234e-16
7.1708e-17
4.02923e-16
5.28825e-18
6.12432e-16
-1.38221e-18
-6.37856e-19
5.45966e-17
1.73726e-16
2.9944e-16
3.37089e-14
4.97227e-15
4.14723e-13
2.73039e-14
-6.89061e-12
-3.06695e-13
-2.21863e-10
-6.5664e-12
-5.09512e-10
6.43489e-12
1.34897e-11
1.03042e-10
4.98906e-10
1.09675e-10
2.17511e-10
1.06721e-11
5.04337e-11
-5.83676e-12
7.96201e-12
-2.23859e-12
1.00028e-12
-3.19309e-13
1.25646e-13
-5.29004e-15
1.64144e-14
8.01671e-15
8.39674e-15
4.29431e-15
2.39897e-15
8.93017e-16
8.84816e-16
1.54304e-16
6.02877e-16
6.03411e-17
4.31962e-16
3.67668e-17
1.67213e-16
1.75694e-17
2.48698e-17
2.09932e-18
1.07754e-17
-2.34253e-19
-6.97695e-19
4.30738e-18
-1.86193e-16
1.08348e-16
-1.00181e-16
4.54763e-15
1.50215e-14
4.48677e-15
-4.25363e-13
-1.39057e-15
-9.10005e-12
-8.04049e-14
-2.30863e-11
1.92587e-12
1.20196e-11
8.97291e-12
4.74324e-11
9.66351e-12
2.2917e-11
8.20789e-13
6.09395e-12
-5.77566e-13
1.08613e-12
-2.23646e-13
1.60748e-13
-2.6397e-14
2.34278e-14
3.00814e-15
7.67607e-15
4.13056e-15
1.72572e-15
8.79528e-16
3.05592e-16
1.04593e-16
1.15796e-16
1.92489e-17
7.80049e-17
6.95334e-18
5.84997e-17
3.41421e-18
3.28613e-17
1.47203e-18
7.78212e-18
2.17312e-19
2.71497e-18
-3.38291e-20
-1.98646e-19
5.35641e-18
-8.30971e-17
1.86705e-17
-3.35813e-16
1.32686e-15
-2.54881e-16
1.93452e-15
-2.19771e-14
2.31665e-17
-3.39299e-13
1.83771e-14
-2.24801e-13
2.06615e-13
2.41512e-12
7.63643e-13
4.97289e-12
7.76105e-13
2.33614e-12
4.91286e-14
6.41863e-13
-3.63604e-14
1.27124e-13
-8.68805e-15
2.14585e-14
2.83848e-15
5.86095e-15
3.24865e-15
1.3001e-15
7.33832e-16
1.80213e-16
8.6404e-17
3.40121e-17
1.08194e-17
1.31363e-17
2.12122e-18
8.1361e-18
7.49443e-19
5.37701e-18
2.98772e-19
2.83996e-18
9.2562e-20
7.91593e-19
1.0806e-20
2.85573e-19
-2.29655e-21
-2.37278e-20
9.66773e-19
-8.55974e-18
2.16359e-18
-4.44001e-17
1.6865e-16
-1.23686e-16
4.06183e-16
-5.71264e-16
1.24543e-15
-3.21067e-15
1.94401e-15
6.08193e-14
2.37203e-14
2.85625e-13
6.31507e-14
4.42561e-13
6.4608e-14
2.07743e-13
1.26262e-14
6.04542e-14
1.09041e-15
1.28776e-14
3.67225e-15
3.49327e-15
2.03773e-15
8.04948e-16
4.86734e-16
1.15294e-16
6.27987e-17
1.67712e-17
7.66759e-18
3.36892e-18
1.00113e-18
1.33862e-18
2.09748e-19
7.73885e-19
7.48804e-20
4.30418e-19
2.64437e-20
1.83022e-19
6.44214e-21
4.64529e-20
6.055e-22
1.76198e-20
-1.10802e-22
-2.54481e-21
1.22777e-19
-6.07044e-19
2.4842e-19
-1.96027e-18
1.96942e-17
-5.25863e-18
4.68033e-17
1.22106e-17
2.61454e-16
6.14564e-16
9.73691e-16
7.75011e-15
1.87653e-15
2.52863e-14
5.98183e-15
3.74457e-14
5.93334e-15
1.70052e-14
1.19162e-15
5.13732e-15
2.39436e-15
1.64488e-15
1.00215e-15
3.83927e-16
2.45543e-16
6.30713e-17
3.65423e-17
9.43065e-18
4.96953e-18
1.40243e-18
6.16073e-19
2.98756e-19
8.29431e-20
1.23716e-19
1.88672e-20
6.82685e-20
6.81647e-21
3.2635e-20
2.23148e-21
1.1002e-20
4.65414e-22
2.25196e-21
3.7765e-23
8.51786e-22
-4.66745e-24
-3.09027e-22
1.39287e-20
-3.21677e-20
2.92701e-20
1.0761e-19
2.45003e-18
8.84372e-19
4.77227e-18
1.05522e-17
2.22274e-17
1.15435e-16
1.69049e-16
8.33702e-16
5.49156e-16
2.1337e-15
1.10082e-15
2.95088e-15
1.15162e-15
1.45231e-15
7.7861e-16
5.75381e-16
3.72832e-16
1.41759e-16
9.14728e-17
2.78412e-17
1.66538e-17
4.69752e-18
2.64789e-18
6.99537e-19
3.61819e-19
1.04917e-19
4.45295e-20
2.40504e-20
6.26629e-21
1.03858e-20
1.5609e-21
5.46058e-21
5.60437e-22
2.26446e-21
1.68169e-22
6.10172e-22
3.06239e-23
9.70374e-23
2.05939e-24
3.94382e-23
-3.28209e-25
-2.36413e-23
1.70739e-21
3.37754e-23
3.47276e-21
4.87365e-20
2.96851e-19
1.91099e-19
4.83119e-19
1.57587e-18
1.83597e-18
1.57269e-17
1.25425e-17
9.21566e-17
6.29235e-17
2.00344e-16
1.33418e-16
2.61213e-16
1.34536e-16
1.35187e-16
8.10552e-17
4.15112e-17
2.51951e-17
9.7657e-18
5.88743e-18
1.92805e-18
1.12859e-18
3.20165e-19
1.78978e-19
4.6714e-20
2.40128e-20
7.1276e-21
2.94011e-21
1.78222e-21
4.41251e-22
7.93117e-22
1.19563e-22
3.87573e-22
4.10652e-23
1.36055e-22
1.07499e-23
2.82498e-23
1.61015e-24
4.46419e-24
7.97352e-26
3.30547e-24
-2.26044e-26
-1.78007e-24
1.26453e-22
1.91881e-23
4.02076e-22
8.24593e-21
3.3471e-20
2.50344e-20
4.72505e-20
1.69211e-19
1.54699e-19
1.4938e-18
9.12474e-19
8.16298e-18
4.12097e-18
1.62972e-17
8.93226e-18
2.00469e-17
8.64911e-18
9.25968e-18
4.71052e-18
2.74512e-18
1.56973e-18
6.40095e-19
3.79317e-19
1.23107e-19
7.20403e-20
1.98621e-20
1.11827e-20
2.84079e-21
1.46939e-21
4.47934e-22
1.80591e-22
1.2243e-22
2.93683e-23
5.42388e-23
8.20643e-24
2.3159e-23
2.42451e-24
6.29901e-24
4.73332e-25
8.99798e-25
4.91774e-26
2.87677e-25
1.84218e-27
2.9528e-25
-8.42412e-28
-1.06251e-25
9.18912e-24
3.39425e-24
4.33347e-23
1.06002e-21
3.5195e-21
2.68191e-21
4.36995e-21
1.57885e-20
1.27611e-20
1.24819e-19
6.89803e-20
6.12857e-19
2.82287e-19
1.11865e-18
5.62329e-19
1.32728e-18
5.32031e-19
5.9358e-19
2.92767e-19
1.71359e-19
9.75353e-20
3.88598e-20
2.31835e-20
7.23955e-21
4.30704e-21
1.13217e-21
6.52415e-22
1.59349e-22
8.39407e-23
2.63112e-23
1.04274e-23
7.48545e-24
1.73912e-24
2.91152e-24
3.98066e-25