/*--------------------------------*- C++ -*----------------------------------*\
| =========                 |                                                 |
| \\      /  F ield         | OpenFOAM: The Open Source CFD Toolbox           |
|  \\    /   O peration     | Version:  2206                                  |
|   \\  /    A nd           | Website:  www.openfoam.com                      |
|    \\/     M anipulation  |                                                 |
\*---------------------------------------------------------------------------*/
FoamFile
{
    version     2.0;
    format      ascii;
    arch        "LSB;label=32;scalar=64";
    class       volScalarField;
    location    "0.95";
    object      p;
}
// * * * * * * * * * * * * * * * * * * * * * * * * * * * * * * * * * * * * * //

dimensions      [1 -1 -2 0 0 0 0];

internalField   nonuniform List<scalar> 
2268
(
1247.54
1244.76
1243.65
1243.17
1242.56
1240.71
1235.98
1226.16
1209.02
1183.71
1150.12
1109.97
1067.36
1030.15
1000.29
977.019
962.384
953.483
942.201
928.616
916.539
907.448
903.528
1189.44
1185.8
1183.62
1182.76
1182.92
1182.31
1178.5
1169.06
1151.84
1125.89
1092.11
1052.28
1010.71
973.039
941.216
916.119
902.426
894.14
882.606
868.647
856.271
846.914
843.538
1131.4
1126.16
1121.79
1121.13
1123.58
1124.69
1121.98
1113.4
1096.62
1070.41
1035.45
994.836
954.081
915.607
882.208
857.949
843.762
834.032
821.679
807.126
793.949
784.315
781.351
1071.19
1064.49
1058.34
1058.43
1064.02
1067.87
1067
1059.66
1043.56
1017.08
980.119
936.53
893.277
854.239
822
799.034
784.389
773.245
759.986
744.408
730.054
719.095
716.67
1008.35
1000.58
993.426
994.835
1004.73
1012.14
1013.68
1007.9
992.596
965.588
925.843
877.588
829.96
789.758
758.843
737.939
724.191
712.473
698.303
681.361
665.924
654.168
650.558
943.835
935.015
927.349
930.447
945.333
957.633
962.208
958.224
943.796
916.149
872.683
817.618
763.873
721.727
692.741
675.21
663.511
651.866
636.41
618.132
601.399
588.233
584.56
878.85
868.489
860.717
866.315
888.141
905.577
912.733
910.736
897.293
869.391
820.395
754.882
693.182
649.709
624.161
611.783
603.346
592.029
574.875
554.627
535.637
520.349
517.914
815.02
801.867
793.969
802.791
830.536
853.027
864.023
865.095
853.47
824.407
766.106
687.147
615.264
571.736
553.151
547.791
544.548
533.972
515.269
491.089
468.179
453.638
447.697
356.899
359.632
352.103
336.419
334.096
349.178
366.183
382.782
407.782
437.02
463.756
455.147
434.407
399.279
296.557
293.938
422.857
549.226
542.331
317.214
317.87
311.744
294.207
290.622
306.316
328.663
351.397
371.675
384.847
405.538
398.164
367.684
303.9
194.723
209.774
336.188
474.241
485.204
275.991
268.813
254.125
234.004
232.957
247.669
273.985
316.997
346.828
357.665
371.018
382.589
337.056
214.967
135.015
160.682
283.155
401.872
424.869
236.904
216.171
182.434
165.702
167.652
178.739
207.033
275.985
320.677
334.035
342.106
361.884
310.521
172.366
99.1109
125.133
236.493
330.628
357.49
204.867
174.302
151.95
149.775
154.303
161.787
179.346
232.307
285.949
300.74
315.868
322.381
278.133
158.415
86.5421
111.639
195.657
258.019
283.403
167.144
154.285
141.987
144.612
152.367
160.645
175.553
210.476
241.896
255.252
277.206
277.493
251.186
162.484
104.852
119.868
169.062
190.322
211.04
122.712
143.79
135.591
140.192
148.615
158.928
169.81
196.462
199.357
209.3
234
234.41
225.014
168.853
127.348
129.228
148.771
134.647
152.038
113.768
138.719
132.121
136.645
144.184
154.125
177.682
180.443
166.717
174.116
194.13
197.841
197.577
172.284
142.584
131.264
113.444
89.931
105.629
714.381
695.823
689.044
706.281
743.704
769.491
788.536
796.843
788.052
758.004
684.957
579.759
495.721
455.832
444.157
449.513
456.949
449.597
425.68
388.805
352.378
332.687
326.379
583.737
558.02
550.78
574.387
612.363
650.263
686.596
716.38
746.711
717.391
610.088
459.695
376.916
343.255
336.528
343.432
343.884
327.236
293.438
239.47
167.49
119.434
148.351
408.952
360.338
377.227
419.851
458.547
516.95
587.957
623.056
626.163
608.89
471.585
348.163
282.726
253.734
243.332
231.878
204.925
176.703
161.841
136.404
54.8468
-29.6639
-6.07491
230.601
116.533
175.967
213.151
250.829
291.757
323.544
287.434
216.175
216.543
211.945
189.721
169.059
146.896
120.913
110.709
95.3905
88.1907
86.9248
87.4979
88.6581
82.643
60.1426
203.589
90.1272
47.2611
42.5095
53.7106
60.2165
56.0166
26.6942
12.6441
12.8102
31.61
57.0857
78.0602
75.7497
67.3244
64.5949
64.3027
64.2496
64.3186
66.8619
74.1749
74.9257
57.8462
204.771
65.8113
20.199
14.6935
22.5698
20.8306
7.91366
1.33562
-0.203264
-0.581752
-0.994781
2.27155
19.7524
47.7314
59.1833
59.3473
56.0696
54.1924
51.2169
47.521
48.9958
45.7448
35.0301
88.3148
22.1779
8.87583
6.62059
10.1571
8.69127
1.22685
-1.6448
-2.06218
-2.14698
-2.34529
-2.17181
3.61373
26.6051
40.9882
43.6004
44.5831
41.6812
37.2139
30.9284
26.0935
16.1222
17.4753
23.8989
4.89351
2.0979
0.528816
0.018935
-0.717366
-1.66581
-2.42487
-2.58504
-2.74164
-2.96716
-2.81907
-0.996534
5.20702
16.2754
24.5775
27.4077
28.61
27.4174
12.7159
4.88642
1.70719
4.66704
9.05671
-0.568074
-0.909567
-1.56865
-1.81688
-2.12074
-2.37367
-2.79925
-2.97005
-3.19391
-3.39512
-3.53044
-3.74588
-3.69437
0.670795
6.1714
7.99092
9.80661
6.32516
1.98168
0.561004
0.426296
0.745768
3.25745
-1.71064
-1.75573
-2.21115
-2.22616
-2.39689
-2.71888
-3.04066
-3.3076
-3.53466
-3.72194
-3.87268
-3.93455
-3.81671
-3.64628
-3.33592
-2.20151
0.678488
1.87751
0.265244
-0.0399634
-0.268957
-0.472361
-0.679251
-2.22078
-2.08844
-2.55428
-2.5325
-2.70703
-2.95668
-3.25073
-3.52849
-3.75581
-3.93721
-4.07688
-4.13435
-4.06994
-3.91623
-3.65469
-3.03776
-2.01579
-0.717797
-0.91432
-0.641663
-0.712564
-0.850999
-1.7393
-2.6032
-2.35743
-2.86061
-2.75311
-2.98276
-3.18862
-3.42441
-3.65168
-3.85065
-4.00901
-4.12609
-4.15491
-4.09619
-3.96229
-3.77102
-3.51664
-3.16269
-2.28732
-2.01664
-1.28122
-1.05731
-1.12251
-0.845761
-2.90461
-2.57623
-3.09054
-2.91545
-3.20198
-3.36529
-3.54981
-3.71359
-3.8567
-3.96693
-4.05079
-4.06367
-4.01672
-3.91708
-3.78419
-3.65597
-3.52904
-3.24058
-2.6062
-1.44993
-1.32969
-1.4438
-0.847571
-3.18616
-2.7288
-3.28324
-3.07748
-3.39002
-3.5169
-3.65979
-3.76854
-3.86076
-3.93177
-3.9729
-3.99063
-3.95275
-3.86756
-3.7477
-3.62476
-3.53261
-3.49734
-2.94522
-1.47415
-1.63467
-1.87296
1.21931
-3.56544
-2.87182
-3.43336
-3.30352
-3.59213
-3.7154
-3.83761
-3.9121
-3.96811
-4.00891
-4.02791
-4.01827
-3.96753
-3.8774
-3.75469
-3.62128
-3.50645
-3.438
-3.3429
-2.41976
-2.28652
-2.55698
14.4809
-3.55697
-3.24319
-3.58626
-3.56469
-3.87644
-4.07189
-4.22956
-4.28335
-4.28303
-4.2591
-4.21371
-4.1485
-4.05609
-3.93647
-3.79336
-3.63576
-3.4871
-3.38687
-3.35603
-3.09383
-3.00789
-3.32197
3.65308
-3.83439
-3.38325
-3.71419
-3.85514
-4.32086
-4.71484
-5.00194
-5.05782
-4.94101
-4.75368
-4.54818
-4.36169
-4.1899
-4.02049
-3.84836
-3.67547
-3.51902
-3.37446
-3.20345
-3.08795
-3.30328
-3.65739
-0.891651
-3.23576
-3.43535
-3.80494
-4.23637
-5.03596
-5.84477
-6.43443
-6.4899
-6.0952
-5.52155
-5.01349
-4.624
-4.33446
-4.10452
-3.90594
-3.73209
-3.59946
-3.45968
-3.24185
-3.11193
-3.35733
-3.68044
-2.16794
-2.87202
-3.439
-3.98824
-4.72173
-5.98534
-7.38309
-8.34952
-8.4023
-7.58757
-6.40267
-5.4709
-4.85635
-4.44705
-4.16454
-3.95242
-3.78998
-3.69284
-3.60967
-3.44599
-3.28702
-3.4391
-3.64547
-2.71683
-2.94961
-3.46624
-4.20419
-5.17835
-6.79825
-8.60868
-9.74102
-9.71876
-8.66221
-7.0266
-5.76062
-4.97675
-4.49614
-4.18912
-3.98334
-3.84426
-3.76923
-3.77511
-3.69491
-3.55417
-3.55311
-3.66839
-3.06133
-3.10473
-3.45254
-4.26551
-5.37665
-7.07019
-8.92143
-10.0062
-9.93395
-8.8973
-7.26318
-5.81207
-4.94022
-4.45741
-4.17353
-3.99902
-3.89371
-3.84539
-3.8831
-3.86431
-3.7654
-3.69924
-3.76239
-3.37523
-3.29854
-3.51023
-4.18947
-5.25718
-6.70666
-8.23205
-9.14641
-9.04287
-8.09841
-6.7073
-5.46906
-4.73595
-4.34575
-4.13035
-4.00633
-3.93804
-3.91706
-3.9472
-4.01496
-3.99997
-3.89634
-3.87043
-3.68655
-3.64604
-3.80723
-4.29526
-5.07796
-6.00261
-6.89995
-7.4073
-7.26517
-6.55767
-5.66147
-4.88513
-4.43686
-4.20287
-4.08074
-4.01561
-3.98693
-3.98913
-4.02625
-4.11453
-4.18836
-4.15572
-4.05423
-4.03272
-4.07135
-4.26482
-4.67043
-5.15475
-5.5023
-5.70518
-5.73257
-5.53207
-5.1368
-4.68783
-4.34823
-4.16982
-4.08415
-4.04612
-4.03136
-4.03316
-4.05272
-4.09319
-4.17161
-4.27925
-4.33573
-4.29113
-4.3211
-4.39128
-4.63938
-5.01602
-5.36085
-5.38693
-5.11638
-4.78224
-4.49808
-4.26404
-4.09977
-4.02493
-4.01054
-4.02183
-4.03814
-4.05669
-4.07852
-4.10634
-4.14374
-4.19725
-4.27763
-4.36069
-4.39588
-4.48896
-4.57228
-4.792
-5.13789
-5.39244
-5.29969
-4.87568
-4.42168
-4.0985
-3.93452
-3.88857
-3.91043
-3.96354
-4.01423
-4.0566
-4.09251
-4.12403
-4.15372
-4.18403
-4.21537
-4.24989
-4.28343
-4.2952
-4.59096
-4.64808
-4.79108
-5.00834
-5.13665
-5.02788
-4.68097
-4.30482
-4.039
-3.91255
-3.89135
-3.93489
-3.99454
-4.05072
-4.09939
-4.13991
-4.17342
-4.20138
-4.22491
-4.24361
-4.25566
-4.25933
-4.25623
-4.65227
-4.6839
-4.75317
-4.83852
-4.86092
-4.75183
-4.52431
-4.27188
-4.09015
-4.00294
-3.99107
-4.02192
-4.06842
-4.11712
-4.1615
-4.19933
-4.23037
-4.25498
-4.27347
-4.28575
-4.29112
-4.28993
-4.27545
-4.69819
-4.71256
-4.73406
-4.74543
-4.7137
-4.61275
-4.46588
-4.30316
-4.18889
-4.12972
-4.11617
-4.13293
-4.16533
-4.20255
-4.23851
-4.27032
-4.2967
-4.31718
-4.33159
-4.33977
-4.34135
-4.33529
-4.32042
-4.74297
-4.74745
-4.74661
-4.72918
-4.68329
-4.60132
-4.49582
-4.39009
-4.31013
-4.26329
-4.24719
-4.25388
-4.27396
-4.29993
-4.32682
-4.35161
-4.37254
-4.38867
-4.39946
-4.40458
-4.40366
-4.39637
-4.38264
-4.79185
-4.79078
-4.78092
-4.75551
-4.7111
-4.64749
-4.56916
-4.49426
-4.43422
-4.39565
-4.37827
-4.37767
-4.3882
-4.40477
-4.42346
-4.4415
-4.45708
-4.46903
-4.47666
-4.47951
-4.47735
-4.47022
-4.45826
-4.84698
-4.84313
-4.83046
-4.80489
-4.76625
-4.71523
-4.65764
-4.60199
-4.55592
-4.52384
-4.50627
-4.50105
-4.50484
-4.51418
-4.52611
-4.53831
-4.54911
-4.55737
-4.56232
-4.56353
-4.56081
-4.55422
-4.54397
-4.90912
-4.90419
-4.89168
-4.8688
-4.8362
-4.79633
-4.75262
-4.71033
-4.67427
-4.64745
-4.63065
-4.62291
-4.62223
-4.62633
-4.63303
-4.64052
-4.64736
-4.65252
-4.65531
-4.65529
-4.65228
-4.64632
-4.63763
-4.97805
-4.97295
-4.96188
-4.94223
-4.91597
-4.88471
-4.85104
-4.81834
-4.78973
-4.76731
-4.75187
-4.74301
-4.73958
-4.74008
-4.74297
-4.74686
-4.7506
-4.75332
-4.7544
-4.75346
-4.75031
-4.74498
-4.73767
-5.05318
-5.04834
-5.03885
-5.02279
-5.00188
-4.97744
-4.95133
-4.92582
-4.90299
-4.88435
-4.87055
-4.86152
-4.85658
-4.85478
-4.85505
-4.85635
-4.8578
-4.85869
-4.85849
-4.85688
-4.85371
-4.84898
-4.84287
-5.13341
-5.12928
-5.12137
-5.10857
-5.09213
-5.07311
-5.05284
-5.03289
-5.0147
-4.99933
-4.98732
-4.97872
-4.97317
-4.97007
-4.96867
-4.96824
-4.9681
-4.96771
-4.96664
-4.96461
-4.9615
-4.95731
-4.95224
-5.21807
-5.21459
-5.20825
-5.19828
-5.18556
-5.17089
-5.15526
-5.13975
-5.12537
-5.11287
-5.10269
-5.09494
-5.08941
-5.08574
-5.08344
-5.08197
-5.08085
-5.07966
-5.07806
-5.07585
-5.07289
-5.06909
-5.06503
-5.3063
-5.30345
-5.29856
-5.291
-5.28138
-5.27027
-5.25841
-5.24655
-5.23539
-5.22548
-5.21714
-5.21048
-5.20543
-5.20175
-5.19912
-5.19717
-5.19555
-5.19396
-5.19214
-5.18995
-5.18733
-5.18439
-5.18081
-5.39733
-5.39509
-5.3915
-5.386
-5.37898
-5.37086
-5.36216
-5.35339
-5.34505
-5.3375
-5.33099
-5.32562
-5.32136
-5.31807
-5.31555
-5.31355
-5.31183
-5.31017
-5.30839
-5.30639
-5.30412
-5.30162
-5.29893
-5.49055
-5.4889
-5.48648
-5.48276
-5.47797
-5.47243
-5.46646
-5.46042
-5.45461
-5.44928
-5.44459
-5.44063
-5.43738
-5.43478
-5.43269
-5.43097
-5.42946
-5.428
-5.42649
-5.42484
-5.42305
-5.42113
-5.41922
-5.58518
-5.58405
-5.58272
-5.5806
-5.57781
-5.57457
-5.57108
-5.56752
-5.56408
-5.56089
-5.55804
-5.55559
-5.55354
-5.55186
-5.55048
-5.54931
-5.54826
-5.54726
-5.54623
-5.54513
-5.54398
-5.54279
-5.54163
-5.68135
-5.68097
-5.6805
-5.67978
-5.67886
-5.67779
-5.67662
-5.67541
-5.67422
-5.6731
-5.67207
-5.67115
-5.67035
-5.66967
-5.66908
-5.66855
-5.66806
-5.66757
-5.66707
-5.66652
-5.66593
-5.66534
-5.66484
317.107
389.433
366.23
304.852
211
318.358
314.408
228.744
86.6575
193.019
224.363
172.692
56.3757
79.7229
101.349
118.982
33.8568
26.3953
38.8402
61.8547
22.9698
15.7535
18.337
26.9928
15.8385
13.2814
13.0433
16.4344
9.77019
8.48803
8.28289
11.0352
1.33891
1.35691
0.713224
1.23146
-0.853491
-1.44981
-2.01414
-1.97979
-1.20003
-2.11829
-2.76078
-2.53951
-1.52372
-2.57348
-3.21067
-2.89447
-1.90491
-2.87687
-3.3216
-2.91668
-2.32774
-2.9245
-3.39848
-3.40196
-2.87153
-3.00867
-3.17954
-2.99678
-3.43417
-3.27236
-3.04573
-2.73939
-3.69139
-3.4368
-3.12158
-2.76425
-3.73728
-3.51195
-3.22789
-2.92325
-3.70892
-3.57053
-3.36239
-3.08043
-3.72114
-3.68734
-3.53414
-3.25343
-3.86445
-3.88015
-3.71819
-3.41655
-4.03498
-4.03951
-3.86808
-3.55323
-4.1325
-4.19751
-3.993
-3.66368
-4.26823
-4.34627
-4.07891
-3.74687
-4.33052
-4.30398
-4.07616
-3.80434
-4.2772
-4.20669
-4.04364
-3.85666
-4.23182
-4.1649
-4.05632
-3.9322
-4.24549
-4.18782
-4.10981
-4.02416
-4.29295
-4.24624
-4.18735
-4.1242
-4.35908
-4.3214
-4.27601
-4.22832
-4.43854
-4.40827
-4.37295
-4.33623
-4.52765
-4.50338
-4.47571
-4.44721
-4.62424
-4.60487
-4.5832
-4.56101
-4.72676
-4.71138
-4.69445
-4.67725
-4.83403
-4.8219
-4.80884
-4.79577
-4.94513
-4.93573
-4.92595
-4.91645
-5.05942
-5.05238
-5.0455
-5.03917
-5.17643
-5.17152
-5.16725
-5.16377
-5.2958
-5.29284
-5.29095
-5.29005
-5.41723
-5.41601
-5.41631
-5.41782
-5.54035
-5.54074
-5.54328
-5.54714
-5.66499
-5.66744
-5.67223
-5.6783
144.36
136.984
133.142
132.696
137.691
146.154
150.152
145.3
134.809
131.927
138.307
142.228
149.806
147.913
130.14
84.5939
34.097
37.657
52.7078
147.966
134.214
129.701
122.904
117.819
117.226
114.326
118.743
116.758
106.112
84.8079
69.5935
74.2929
79.3101
21.759
5.61318
5.02061
5.39962
18.2545
136.243
128.417
121.963
113.198
105.177
98.2532
97.3057
89.9912
73.7235
59.0319
40.0022
28.0738
26.5451
12.242
2.3291
2.20926
2.09135
1.94515
2.48189
122.212
122.949
115.158
107.705
104.805
99.2813
83.817
56.0264
22.4736
21.3072
19.2564
5.02738
1.83786
1.55848
2.14816
2.09213
1.96396
1.77946
2.13313
87.3836
108.586
109.027
103.713
103.288
93.8673
57.0203
34.6662
12.8793
2.82956
0.438881
0.356951
0.861241
1.52923
1.78903
1.74386
1.66789
1.71178
1.7475
44.8882
69.5028
96.5236
99.7337
88.5744
50.4716
16.8273
3.45098
2.2228
1.28105
0.318491
-0.00646386
0.314575
0.990746
1.18113
1.17557
1.25085
1.37861
1.36559
18.328
15.6467
65.5307
86.7636
53.3682
1.01577
-0.35918
0.743079
0.904003
0.536268
-0.121285
-0.523699
-0.276645
0.426994
0.708704
0.785234
0.88068
0.975498
0.991648
7.82161
9.78586
23.4004
50.3972
33.1147
-1.27167
0.24778
0.926749
0.522228
0.114035
-0.362134
-0.602084
-0.325929
0.131811
0.368956
0.456786
0.515467
0.590235
0.633088
1.06371
0.239398
-0.550596
9.45081
22.244
1.05153
1.28996
1.17697
0.570203
0.0843797
-0.334899
-0.440606
-0.30366
-0.0884878
0.0708032
0.159774
0.207054
0.263612
0.301414
-1.64148
-1.56571
-1.68568
-1.74625
4.97369
5.93586
0.632178
0.675413
0.420296
-0.0883832
-0.341921
-0.399203
-0.360386
-0.258529
-0.166727
-0.101865
-0.0588884
-0.0194952
-0.000779029
-2.16336
-1.87405
-1.60077
-1.61647
-1.96593
-2.41003
-2.10277
-0.613241
-0.325981
-0.540481
-0.537956
-0.538154
-0.51494
-0.459349
-0.392266
-0.343086
-0.300893
-0.275608
-0.273701
-2.28085
-1.85262
-1.2699
-0.858015
-3.53477
0.609356
-3.87599
-1.68442
-1.00463
-0.902756
-0.823065
-0.790572
-0.753589
-0.698899
-0.633287
-0.579041
-0.531737
-0.516156
-0.53474
-2.41904
-1.99761
-1.50086
0.943138
0.432534
-4.75857
-3.73926
-2.0484
-1.3899
-1.22082
-1.12591
-1.0682
-1.0207
-0.967971
-0.908408
-0.8412
-0.772417
-0.759348
-0.809786
-2.95051
-2.22302
-1.59803
-1.8812
-2.40844
-3.0371
-2.79404
-2.05215
-1.63744
-1.48119
-1.40148
-1.34246
-1.29666
-1.24585
-1.19841
-1.14772
-1.0635
-1.04551
-1.10937
-2.45677
-2.01319
-1.95246
-2.13777
-2.30774
-2.30059
-2.11058
-1.93023
-1.79171
-1.68923
-1.63677
-1.59465
-1.56333
-1.52021
-1.48696
-1.47257
-1.42446
-1.37902
-1.40528
-2.44904
-2.28846
-2.22976
-2.17128
-2.14734
-2.07635
-1.97936
-1.93831
-1.9247
-1.86432
-1.84493
-1.82548
-1.81985
-1.79307
-1.76192
-1.78779
-1.79051
-1.70116
-1.66398
-2.49947
-2.38643
-2.35347
-2.33383
-2.29017
-2.21909
-2.14687
-2.1105
-2.0993
-2.06147
-2.0446
-2.03684
-2.05196
-2.05057
-2.00596
-2.05928
-2.09309
-1.98185
-1.86922
-2.72577
-2.61999
-2.5587
-2.51654
-2.47318
-2.42725
-2.38328
-2.34057
-2.29527
-2.24982
-2.22807
-2.2249
-2.24148
-2.26321
-2.2342
-2.26809
-2.3183
-2.23322
-2.06146
-2.88553
-2.78205
-2.7153
-2.66942
-2.63065
-2.5929
-2.55571
-2.51573
-2.46522
-2.41461
-2.38932
-2.3865
-2.3991
-2.42587
-2.42057
-2.43403
-2.48709
-2.4461
-2.28024
-3.04574
-2.92799
-2.84836
-2.79176
-2.74618
-2.70444
-2.66264
-2.61934
-2.57643
-2.54528
-2.53128
-2.53112
-2.53906
-2.55567
-2.56337
-2.56693
-2.61242
-2.56749
-2.48508
-3.19794
-3.07024
-2.98199
-2.91782
-2.86636
-2.82078
-2.7783
-2.73863
-2.70447
-2.68085
-2.67069
-2.67168
-2.67487
-2.67972
-2.6825
-2.67841
-2.69457
-2.65712
-2.61295
-3.33447
-3.20475
-3.11533
-3.04995
-2.99811
-2.95338
-2.91305
-2.87694
-2.84701
-2.82616
-2.81556
-2.81333
-2.81207
-2.80851
-2.80205
-2.7876
-2.77522
-2.75116
-2.71122
-3.45337
-3.32972
-3.24694
-3.1844
-3.13479
-3.09243
-3.05496
-3.0221
-2.99493
-2.97495
-2.96258
-2.9564
-2.95099
-2.9419
-2.92794
-2.90824
-2.88467
-2.8544
-2.8188
-3.55721
-3.45033
-3.37627
-3.32046
-3.2748
-3.23544
-3.20075
-3.1704
-3.14488
-3.12487
-3.11062
-3.10093
-3.09191
-3.07911
-3.06023
-3.03727
-3.00848
-2.97637
-2.94966
-3.65159
-3.56781
-3.5063
-3.45759
-3.41647
-3.38043
-3.3484
-3.32008
-3.29566
-3.27542
-3.25949
-3.24703
-3.23514
-3.2198
-3.19846
-3.17369
-3.14641
-3.11637
-3.09522
-3.74833
-3.68664
-3.63668
-3.59454
-3.55796
-3.52542
-3.49614
-3.46987
-3.44664
-3.42657
-3.40968
-3.39534
-3.38133
-3.36418
-3.34174
-3.31596
-3.29294
-3.25834
-3.23197
-3.85501
-3.80755
-3.76636
-3.73013
-3.69806
-3.6692
-3.64296
-3.61911
-3.59762
-3.57852
-3.56176
-3.54678
-3.53168
-3.51322
-3.48948
-3.46181
-3.43553
-3.40982
-3.3764
-3.96628
-3.92831
-3.89432
-3.86368
-3.83614
-3.81114
-3.78828
-3.76737
-3.74837
-3.7313
-3.71612
-3.70222
-3.68758
-3.6685
-3.64276
-3.61187
-3.57854
-3.55708
-3.52568
-4.07917
-4.04852
-4.02066
-3.99518
-3.97202
-3.95092
-3.93168
-3.91421
-3.89853
-3.88471
-3.87304
-3.86276
-3.85136
-3.83395
-3.80706
-3.77207
-3.73397
-3.69839
-3.67642
-4.19315
-4.16853
-4.14587
-4.12495
-4.10584
-4.08853
-4.07302
-4.05941
-4.04787
-4.03885
-4.03336
-4.03062
-4.02732
-4.0166
-3.99048
-3.95039
-3.90848
-3.86512
-3.84703
-4.30855
-4.28879
-4.27042
-4.25342
-4.23795
-4.22417
-4.21233
-4.20282
-4.19615
-4.19376
-4.1979
-4.20827
-4.22036
-4.22058
-4.19491
-4.14767
-4.09523
-4.0555
-4.04309
-4.42538
-4.40957
-4.39478
-4.38112
-4.36881
-4.35813
-4.34958
-4.34386
-4.34209
-4.34732
-4.36387
-4.39229
-4.42455
-4.43598
-4.40785
-4.34955
-4.27691
-4.24923
-4.23916
-4.5438
-4.5312
-4.51944
-4.50862
-4.49893
-4.49074
-4.48462
-4.48151
-4.48309
-4.49393
-4.52066
-4.56448
-4.61265
-4.63125
-4.59952
-4.52908
-4.45128
-4.43779
-4.42821
-4.66385
-4.65401
-4.64485
-4.63642
-4.62883
-4.6224
-4.61769
-4.61558
-4.61786
-4.62929
-4.65697
-4.70259
-4.75241
-4.76642
-4.73149
-4.67039
-4.62173
-4.61975
-4.61023
-4.78565
-4.77824
-4.77132
-4.76488
-4.75896
-4.75378
-4.74977
-4.74759
-4.74861
-4.75624
-4.77678
-4.81138
-4.84826
-4.85449
-4.82433
-4.78685
-4.77659
-4.77662
-4.76486
-4.90924
-4.90395
-4.89897
-4.89424
-4.88976
-4.88567
-4.88226
-4.87993
-4.8793
-4.88244
-4.89325
-4.91312
-4.93381
-4.93787
-4.9224
-4.90749
-4.91167
-4.90497
-4.89554
-5.03453
-5.03113
-5.02788
-5.02472
-5.02164
-5.01873
-5.01617
-5.01416
-5.01283
-5.01308
-5.01683
-5.02481
-5.03323
-5.03696
-5.03652
-5.03311
-5.02846
-5.02194
-5.01828
-5.16143
-5.15975
-5.15812
-5.15649
-5.15483
-5.15318
-5.15163
-5.15025
-5.14899
-5.14824
-5.14867
-5.15063
-5.15308
-5.15466
-5.15526
-5.15502
-5.15365
-5.15066
-5.1489
-5.28982
-5.28975
-5.28967
-5.28952
-5.28922
-5.28877
-5.28816
-5.28739
-5.28638
-5.28542
-5.28469
-5.28438
-5.28446
-5.28477
-5.28501
-5.28477
-5.28372
-5.2819
-5.28046
-5.41959
-5.42101
-5.42238
-5.42357
-5.42451
-5.42511
-5.4253
-5.42503
-5.42425
-5.42309
-5.42168
-5.42025
-5.41904
-5.41811
-5.41731
-5.41644
-5.41543
-5.41428
-5.41276
-5.55077
-5.55361
-5.55634
-5.55884
-5.56097
-5.5626
-5.5636
-5.56383
-5.56322
-5.5618
-5.55971
-5.55723
-5.55478
-5.55262
-5.55081
-5.54926
-5.54794
-5.54694
-5.54537
-5.6838
-5.68809
-5.69225
-5.69615
-5.69962
-5.70245
-5.70444
-5.70535
-5.70499
-5.70327
-5.70029
-5.69638
-5.69219
-5.68836
-5.68516
-5.68264
-5.68073
-5.67952
-5.67777
)
;

boundaryField
{
    leftWall
    {
        type            calculated;
        value           nonuniform List<scalar> 
50
(
1247.54
1189.44
1131.4
1071.19
1008.35
943.835
878.85
815.02
714.381
583.737
408.952
230.601
203.589
204.771
88.3148
23.8989
9.05671
3.25745
-0.679251
-1.7393
-0.845761
-0.847571
1.21931
14.4809
3.65308
-0.891651
-2.16794
-2.71683
-3.06133
-3.37523
-3.68655
-4.03272
-4.3211
-4.48896
-4.59096
-4.65227
-4.69819
-4.74297
-4.79185
-4.84698
-4.90912
-4.97805
-5.05318
-5.13341
-5.21807
-5.3063
-5.39733
-5.49055
-5.58518
-5.68135
)
;
    }
    rightWall
    {
        type            calculated;
        value           nonuniform List<scalar> 
50
(
542.331
485.204
424.869
357.49
283.403
211.04
152.038
105.629
52.7078
18.2545
2.48189
2.13313
1.7475
1.36559
0.991648
0.633088
0.301414
-0.000779029
-0.273701
-0.53474
-0.809786
-1.10937
-1.40528
-1.66398
-1.86922
-2.06146
-2.28024
-2.48508
-2.61295
-2.71122
-2.8188
-2.94966
-3.09522
-3.23197
-3.3764
-3.52568
-3.67642
-3.84703
-4.04309
-4.23916
-4.42821
-4.61023
-4.76486
-4.89554
-5.01828
-5.1489
-5.28046
-5.41276
-5.54537
-5.67777
)
;
    }
    lowerWall
    {
        type            calculated;
        value           nonuniform List<scalar> 
62
(
1276.97
1274.19
1273.08
1272.6
1271.99
1270.13
1265.41
1255.59
1238.45
1213.14
1179.55
1139.35
1096.42
1058.92
1029.26
1006.18
991.532
982.313
970.913
957.45
945.842
936.87
932.952
903.528
843.538
781.351
716.67
650.558
584.56
517.914
447.697
379.703
452.029
428.825
351.028
356.899
317.214
275.991
236.904
204.867
167.144
122.712
113.768
373.791
376.524
369.046
354.09
351.77
366.852
379.975
396.416
429.366
463.271
490.007
481.398
460.658
425.529
322.785
317.12
446.86
573.235
566.341
)
;
    }
    atmosphere
    {
        type            calculated;
        value           nonuniform List<scalar> 
46
(
-5.72904
-5.72904
-5.72904
-5.72904
-5.72904
-5.72904
-5.72904
-5.72904
-5.72904
-5.72904
-5.72904
-5.72904
-5.72904
-5.72904
-5.72904
-5.72904
-5.72904
-5.72904
-5.72904
-5.72904
-5.72904
-5.72904
-5.72904
-5.72933
-5.7322
-5.73777
-5.74492
-5.75144
-5.75653
-5.76153
-5.76627
-5.77057
-5.7742
-5.77688
-5.77828
-5.77817
-5.77629
-5.77266
-5.7676
-5.76198
-5.75684
-5.75267
-5.74947
-5.74717
-5.74593
-5.74362
)
;
    }
    defaultFaces
    {
        type            empty;
    }
}


// ************************************************************************* //
