/*--------------------------------*- C++ -*----------------------------------*\
| =========                 |                                                 |
| \\      /  F ield         | OpenFOAM: The Open Source CFD Toolbox           |
|  \\    /   O peration     | Version:  2206                                  |
|   \\  /    A nd           | Website:  www.openfoam.com                      |
|    \\/     M anipulation  |                                                 |
\*---------------------------------------------------------------------------*/
FoamFile
{
    version     2.0;
    format      ascii;
    arch        "LSB;label=32;scalar=64";
    class       volScalarField;
    location    "0.95";
    object      p_rgh;
}
// * * * * * * * * * * * * * * * * * * * * * * * * * * * * * * * * * * * * * //

dimensions      [1 -1 -2 0 0 0 0];

internalField   nonuniform List<scalar> 
2268
(
1276.97
1274.19
1273.08
1272.6
1271.99
1270.13
1265.41
1255.59
1238.45
1213.14
1179.55
1139.35
1096.42
1058.92
1029.26
1006.18
991.532
982.313
970.913
957.45
945.842
936.87
932.952
1277.73
1274.09
1271.91
1271.04
1271.2
1270.6
1266.79
1257.34
1240.13
1214.18
1180.39
1138.67
1094.56
1056.88
1025.06
1000.47
986.871
980.406
969.115
955.723
943.49
935.159
931.811
1278.55
1273.31
1268.93
1268.27
1270.72
1271.84
1269.13
1260.55
1243.77
1217.56
1182.6
1141.53
1096.25
1055.36
1021.95
998.587
989.467
981.179
968.826
954.273
941.096
931.462
928.474
1277.19
1270.5
1264.34
1264.44
1270.02
1273.88
1273
1265.66
1249.57
1223.08
1186.13
1142.53
1098.92
1058.67
1026.23
1005.04
990.395
979.251
965.992
950.413
936.059
925.1
922.651
1273.22
1265.45
1258.29
1259.7
1269.59
1277.01
1278.55
1272.76
1257.46
1230.45
1190.71
1142.45
1094.82
1054.62
1023.71
1002.8
989.055
977.337
963.167
946.226
930.788
919.032
915.417
1267.56
1258.74
1251.07
1254.17
1269.06
1281.36
1285.93
1281.95
1267.52
1239.87
1196.41
1141.34
1087.6
1045.45
1016.46
998.933
987.234
975.589
960.133
941.855
925.122
911.955
908.282
1261.43
1251.07
1243.3
1248.89
1270.68
1288.11
1295.31
1293.32
1279.87
1251.97
1202.98
1137.46
1075.76
1032.29
1006.74
994.365
985.927
974.61
957.456
937.207
918.218
902.927
900.493
1256.46
1243.31
1235.41
1244.23
1271.9
1294.28
1305.4
1306.54
1294.91
1265.85
1207.54
1128.56
1056.65
1013.16
994.587
989.23
985.983
975.401
956.264
929.352
906.837
894.191
889.133
373.791
376.524
369.046
354.09
351.77
366.852
379.975
396.416
429.366
463.271
490.007
481.398
460.658
425.529
322.785
317.12
446.86
573.235
566.341
367.888
370.196
364.732
347.224
343.642
359.336
376.161
392.041
412.149
462.924
484.292
476.917
446.436
378.925
228.566
239.35
391.32
546.268
557.232
362.44
356.11
342.31
322.317
321.318
336.036
362.193
384.453
414.284
433.254
501.255
513.827
468.022
289.578
176.535
202.252
324.948
511.163
544.913
359.667
338.943
274.248
235.869
245.836
262.567
294.225
401.474
426.383
440.452
477.592
535.497
473.812
230.493
157.194
183.26
356.794
498.679
525.565
362.688
262.946
159.743
157.041
161.527
172.695
206.973
407.676
515.098
450.193
422.275
423.715
373.619
233.093
161.22
186.317
395.779
474.115
499.516
340.686
168.856
150.856
153.442
161.196
169.475
197.36
445.239
523.961
504.68
465.044
480.307
342.805
253.769
196.125
211.153
420.622
454.461
475.187
158.936
155.875
145.941
150.633
159.049
174.702
346.618
529.71
532.864
542.649
566.5
566.036
391.305
277.129
235.23
386.347
460.59
446.821
464.213
142.279
166.44
143.999
148.586
156.434
239.303
517.65
565.255
551.477
558.932
578.72
581.451
578.925
337.937
363.027
478.825
465.77
450.132
465.83
1247.85
1229.29
1222.51
1239.75
1277.16
1302.91
1321.98
1330.31
1321.52
1291.47
1218.28
1088.85
950.286
897.331
911.492
951.856
969.17
962.4
939.465
905.902
876.836
863.755
859.836
1242.28
1216.68
1209.44
1233.05
1271.02
1308.92
1345.26
1375.04
1405.37
1375.95
1234.22
882.543
720.504
686.843
680.116
687.361
815.975
891.465
916.575
892.597
825.546
777.567
806.986
1185.84
1141.4
1161.08
1203.71
1242.4
1300.81
1371.81
1406.9
1376.05
1219.48
1041.1
778.394
692.579
662.603
652.633
737.081
805.755
775.654
727.316
741.272
793.879
752.78
777.747
1131.71
1025.45
1084.96
1122.2
1105.87
1129.62
1198.86
1090.37
826.968
767.323
861.866
835.391
814.229
791.63
761.329
575.331
267.981
159.816
143.803
208.503
406.885
606.637
698.612
1228.72
1107.9
868.345
613.883
422.186
446.425
472.614
226.525
95.7923
121.013
492.935
777.845
806.337
441.481
124.318
120.249
119.907
119.969
121.036
127.517
136.612
138.342
120.101
1282.97
595.351
116.179
62.5924
67.1946
58.9047
17.7327
4.6345
1.43197
1.26067
2.19532
93.6633
215.763
195.129
123.045
121.668
118.534
117.806
208.563
269.075
183.142
126.035
77.4395
1118.83
37.8842
14.1634
16.0587
56.612
44.9966
4.88202
0.0664815
-0.665646
-0.493454
-0.509453
1.20708
43.5019
266.114
283.312
240.832
133.838
253.549
299.083
293.475
285.48
260.503
96.8608
1042.46
9.16792
4.76486
6.50949
25.4307
24.5443
2.59921
-0.892234
-1.1415
-1.29689
-1.48776
-1.05112
58.4588
256.453
285.982
294.284
297.114
297.448
296.513
202.529
96.8379
23.3806
42.6792
1039.98
1.99394
1.03116
0.357263
0.105568
1.05479
3.30515
-1.14574
-1.41594
-1.65397
-1.85825
-1.99554
-2.21252
-2.15387
105.48
227.237
217.118
86.7231
10.4602
4.227
2.69058
2.39711
5.2208
896.109
0.336433
0.0363972
-0.494555
-0.515748
-0.66765
-0.54022
-0.885716
-1.64239
-1.8742
-2.06167
-2.21242
-2.27412
-2.15533
-1.98025
-1.64907
-0.429461
2.79628
8.63141
9.52279
2.09159
1.83162
3.9049
498.833
-0.294633
-0.260445
-0.755239
-0.736368
-0.907072
-1.15536
-1.35418
-1.71957
-1.97037
-2.1518
-2.29146
-2.34892
-2.28424
-2.12766
-1.84598
-1.09906
12.1367
27.2827
26.9708
7.03696
1.11968
0.981246
504.436
-0.647006
-0.433874
-0.946233
-0.840176
-1.06907
-1.27499
-1.5119
-1.73595
-1.94004
-2.0984
-2.21548
-2.2443
-2.18558
-2.0515
-1.85426
-0.735885
22.0039
27.6766
27.9473
20.9494
0.900085
0.839309
815.816
-0.855008
-0.536835
-1.05374
-0.879071
-1.16552
-1.3289
-1.51374
-1.67779
-1.82089
-1.93112
-2.01498
-2.02787
-1.98092
-1.88128
-1.74817
-1.61113
1.15206
28.6867
29.1896
25.8035
0.736176
0.635225
933.712
-1.00197
-0.566882
-1.12199
-0.91632
-1.22887
-1.35579
-1.49875
-1.60754
-1.69976
-1.77077
-1.8119
-1.82963
-1.79175
-1.70656
-1.58671
-1.46335
-1.3528
4.1727
30.5395
23.571
0.538989
0.307719
989.089
0.496631
-0.585352
-1.14705
-1.01725
-1.30588
-1.42918
-1.55141
-1.6259
-1.68192
-1.72272
-1.74171
-1.73207
-1.68133
-1.59121
-1.4685
-1.33497
-1.21559
0.160909
14.7065
11.6358
0.0108805
-0.259653
875.785
8.02748
-0.831682
-1.17479
-1.15324
-1.46502
-1.66049
-1.81816
-1.87195
-1.87164
-1.84771
-1.80232
-1.73711
-1.6447
-1.52508
-1.38197
-1.22435
-1.07319
-0.968145
-0.902812
0.0958268
-0.584764
-0.898839
127.93
10.3293
-0.84658
-1.17754
-1.31849
-1.78422
-2.17823
-2.46534
-2.52123
-2.38809
-2.21704
-2.01158
-1.82511
-1.65332
-1.48391
-1.31178
-1.13881
-0.914268
-0.598888
-0.623492
-0.515222
-0.723052
-1.10803
6.71009
11.6587
-0.477942
-1.14308
-1.57443
-2.37411
-2.76842
-2.82821
-2.82899
-3.09671
-2.81959
-2.35153
-1.96221
-1.67268
-1.44274
-1.24415
-1.07022
-0.881496
0.608574
1.375
-0.4255
-0.673443
-1.00362
1.33871
5.68041
-0.307201
-1.19663
-1.92843
-2.53385
-3.45502
-4.40812
-4.46089
-3.64616
-2.6035
-2.6492
-2.0693
-1.66007
-1.37756
-1.16545
-1.00298
-0.903956
1.44999
4.85222
1.38406
-0.641534
-0.848097
0.263731
0.228098
0.493037
-1.22318
-2.24734
-2.96777
-4.53569
-5.6365
-5.80684
-4.54772
-2.92946
-2.27021
-2.05226
-1.58388
-1.27694
-1.07117
-0.932093
-0.856995
0.699922
4.99582
5.13675
-0.630571
-0.746066
-0.0199394
-0.0224639
0.562352
-0.924762
-2.30464
-3.87095
-5.10545
-6.47383
-6.76551
-5.49606
-3.00207
-1.88431
-1.85255
-1.41973
-1.13615
-0.961656
-0.856349
-0.808029
-0.784896
3.57366
5.79972
3.16583
-0.714235
-0.21252
-0.13179
-0.213687
-0.679968
-1.93603
-3.43296
-4.94386
-5.859
-5.75733
-4.80265
-2.41376
-1.41957
-1.48573
-1.18213
-0.967713
-0.843763
-0.775478
-0.754506
-0.784645
0.311676
5.99069
6.12774
-0.109845
-0.398787
-0.358133
-0.516235
-0.802599
-1.67403
-2.60855
-3.49958
-3.99894
-3.8496
-3.00049
-1.28974
-0.702497
-1.03908
-0.913208
-0.792807
-0.727844
-0.699178
-0.701385
-0.738501
-0.826667
1.04892
6.23696
6.08537
-0.619767
-0.658396
-0.851732
-1.24168
-1.7003
-2.00771
-2.18188
-2.20271
-1.98674
-0.776029
-0.222708
-0.0795819
-0.688369
-0.669378
-0.632979
-0.618394
-0.620216
-0.639775
-0.680251
-0.758664
-0.865445
1.96443
6.16518
-0.782957
-0.853132
-1.10123
-1.37544
-1.05248
-0.917891
-0.951499
-0.654675
0.0941042
0.370812
0.520352
-0.0574676
-0.466065
-0.482926
-0.499915
-0.518543
-0.540379
-0.568208
-0.605605
-0.65911
-0.73946
-0.821964
-0.225397
-0.825625
-0.908949
-1.12862
-1.25358
-0.621952
-0.503694
-0.071092
0.390462
0.707035
0.859105
0.399791
-0.218838
-0.298606
-0.350687
-0.393246
-0.42918
-0.460695
-0.490387
-0.520697
-0.552041
-0.586561
-0.620095
-0.63187
-0.80243
-0.859553
-1.00249
-1.17819
-0.653674
-0.0590902
0.292179
0.66397
0.907419
0.407203
-0.073794
-0.143864
-0.205627
-0.26215
-0.31086
-0.351388
-0.384895
-0.412858
-0.436387
-0.455088
-0.467132
-0.470804
-0.467698
-0.738549
-0.770182
-0.83944
-0.923955
-0.911885
-0.474199
-0.0294439
0.180126
0.0202633
-0.0763608
-0.0755048
-0.107758
-0.154629
-0.203393
-0.247775
-0.285607
-0.316654
-0.341258
-0.359746
-0.37203
-0.377403
-0.376208
-0.361731
-0.65928
-0.673644
-0.695144
-0.706483
-0.674312
-0.571174
-0.421103
-0.258524
-0.147033
-0.0898426
-0.0770074
-0.093967
-0.126411
-0.163634
-0.1996
-0.231407
-0.257787
-0.278271
-0.292673
-0.300859
-0.302434
-0.296373
-0.281509
-0.578859
-0.583343
-0.582503
-0.565068
-0.519141
-0.436943
-0.331067
-0.225332
-0.145686
-0.0990747
-0.0830547
-0.0897685
-0.109847
-0.135818
-0.162715
-0.187499
-0.208429
-0.224558
-0.235354
-0.240469
-0.239552
-0.232258
-0.218528
-0.502542
-0.501478
-0.491618
-0.466209
-0.421797
-0.358166
-0.279792
-0.204895
-0.144887
-0.106334
-0.0889671
-0.0883633
-0.098892
-0.115469
-0.134159
-0.1522
-0.167773
-0.179729
-0.187355
-0.19021
-0.188044
-0.180915
-0.168957
-0.432482
-0.428637
-0.415959
-0.39039
-0.351748
-0.300731
-0.243135
-0.187488
-0.141419
-0.109344
-0.0917715
-0.0865523
-0.0903425
-0.0996875
-0.111613
-0.123814
-0.134615
-0.142868
-0.147824
-0.149037
-0.146315
-0.13972
-0.12947
-0.369424
-0.364502
-0.351985
-0.329113
-0.296504
-0.256639
-0.212923
-0.170638
-0.13458
-0.107755
-0.0909587
-0.0832142
-0.0825394
-0.0866373
-0.0933403
-0.100824
-0.107667
-0.112832
-0.115616
-0.115598
-0.112592
-0.106631
-0.097939
-0.313161
-0.308061
-0.296989
-0.277341
-0.251081
-0.21982
-0.186151
-0.153452
-0.124841
-0.102427
-0.0869842
-0.0781246
-0.0746962
-0.075196
-0.0780841
-0.0819731
-0.0857171
-0.088438
-0.0895161
-0.0885693
-0.0854229
-0.0800922
-0.0727836
-0.2631
-0.258257
-0.248767
-0.232709
-0.211798
-0.187356
-0.16125
-0.135734
-0.112912
-0.0942677
-0.0804728
-0.0714352
-0.0665016
-0.0647024
-0.0649661
-0.0662682
-0.067719
-0.0686067
-0.0684114
-0.0668027
-0.0636261
-0.0588975
-0.0527883
-0.218133
-0.214003
-0.206096
-0.193292
-0.176859
-0.157834
-0.137568
-0.117618
-0.0994264
-0.0840507
-0.0720402
-0.063441
-0.057896
-0.0547901
-0.0533914
-0.0529606
-0.0528267
-0.0524332
-0.0513612
-0.0493373
-0.0462263
-0.0420323
-0.0369658
-0.177598
-0.174116
-0.167781
-0.157812
-0.145094
-0.130425
-0.11479
-0.0992809
-0.0848984
-0.0724018
-0.0622241
-0.0544656
-0.0489433
-0.0452743
-0.0429677
-0.0415011
-0.0403812
-0.039186
-0.03759
-0.0353752
-0.0324163
-0.0286221
-0.024562
-0.140632
-0.137785
-0.132897
-0.125338
-0.115711
-0.104607
-0.0927438
-0.0808837
-0.0697268
-0.0598133
-0.0514738
-0.0448202
-0.0397686
-0.0360871
-0.0334524
-0.0315035
-0.0298872
-0.028293
-0.0264789
-0.0242888
-0.0216685
-0.0187287
-0.0151456
-0.106473
-0.104233
-0.100645
-0.0951452
-0.0881198
-0.0800008
-0.0712965
-0.062533
-0.0541902
-0.0466428
-0.0401329
-0.034762
-0.0305001
-0.0272112
-0.0246887
-0.0226902
-0.0209706
-0.01931
-0.0175337
-0.0155298
-0.0132585
-0.0107607
-0.00807218
-0.074501
-0.0728461
-0.0704244
-0.0667029
-0.061918
-0.056375
-0.0504107
-0.0443682
-0.0385591
-0.0332275
-0.0285391
-0.0245737
-0.0213269
-0.0187237
-0.0166388
-0.0149188
-0.0134041
-0.0119486
-0.0104353
-0.0087904
-0.00699168
-0.00508002
-0.00316616
-0.0439331
-0.0428062
-0.0414694
-0.039349
-0.0365611
-0.0333213
-0.0298269
-0.0262719
-0.0228302
-0.0196373
-0.016791
-0.0143424
-0.0122954
-0.0106133
-0.0092298
-0.00806022
-0.00701498
-0.00601061
-0.00498047
-0.00388639
-0.00272867
-0.00154164
-0.000379143
-0.0149122
-0.0145271
-0.014057
-0.0133323
-0.0124137
-0.0113501
-0.0101786
-0.00896937
-0.00778029
-0.00665363
-0.00562297
-0.00470732
-0.00391136
-0.00322672
-0.00263383
-0.00210629
-0.00161467
-0.00112936
-0.000623422
-7.66733e-05
0.000514971
0.00110356
0.00160061
850.558
922.883
899.679
698.375
869.639
976.997
774.026
328.401
870.481
786.688
444.664
322.704
694.603
460.95
394.949
417.919
197.484
263.506
378.946
406.777
55.2757
77.3234
63.4134
120.864
51.443
48.7834
36.1982
39.5484
52.4631
51.2088
37.7731
36.3415
35.9927
40.3991
42.8136
46.5515
0.858636
0.635931
-0.270263
0.774665
0.633358
-0.275601
-0.902806
-0.696124
0.541127
-0.0349145
-1.23802
-0.92182
0.387082
2.81237
3.90475
0.0253899
-0.117928
0.666933
23.1247
30.1276
-0.574027
-0.670988
-0.366098
6.31701
-1.01104
-0.849045
-0.62535
-0.30807
-1.14219
-0.890108
-0.581716
0.0126891
-1.05318
-0.833893
-0.563953
-0.260304
-0.898551
-0.774946
-0.573703
-0.292578
-0.798738
-0.771416
-0.621284
-0.341265
-0.816825
-0.837906
-0.676706
-0.368857
-0.861179
-0.766735
-0.257293
-0.366372
-0.830407
1.08
0.78945
-0.347469
2.23657
2.09815
0.519363
-0.333011
1.64903
1.25269
-0.406411
-0.266207
-0.613869
-0.543363
-0.38031
-0.193325
-0.443292
-0.376379
-0.267795
-0.143676
-0.331768
-0.274096
-0.196087
-0.110439
-0.254035
-0.207329
-0.148431
-0.0852833
-0.194968
-0.157287
-0.1119
-0.0642096
-0.149238
-0.118967
-0.0836421
-0.0469277
-0.113148
-0.0888791
-0.0612171
-0.032715
-0.0845475
-0.0651822
-0.0435118
-0.0213141
-0.0618744
-0.0464975
-0.0295657
-0.0123607
-0.0439461
-0.0318236
-0.0187561
-0.00568505
-0.0298549
-0.0204555
-0.0106706
-0.00117011
-0.0189475
-0.0119129
-0.00502631
0.0013024
-0.0107689
-0.00585202
-0.00158616
0.00189635
-0.00493996
-0.00198018
-8.87294e-05
0.000813733
-0.00117715
4.71746e-05
-0.000252245
-0.00176852
0.00090195
0.000506386
-0.00203583
-0.00588796
0.0014507
-0.000997004
-0.00578367
-0.0118541
221.426
178.893
147.125
147.037
153.472
279.285
383.119
409.381
487.15
547.734
595.105
604.845
612.37
606.727
545.445
419.584
210.42
265.775
412.59
210.957
150.949
146.498
140.172
137.622
335.743
576.822
583.795
574.51
563.588
541.513
615.777
644.882
649.858
282.498
24.0013
5.83555
36.1229
176.348
200.922
148.324
141.874
133.219
125.799
146.516
510.491
645.302
631.887
619.743
604.204
609.649
519.806
213.922
4.75044
3.17914
2.94822
2.79528
3.33876
354.329
146.039
138.234
130.796
128.023
187.961
586.187
697.867
658.128
587.179
402.973
109.805
30.0097
3.10579
3.3624
3.17713
3.04749
2.76008
3.23608
433.933
317.034
135.288
129.967
135.54
542.431
642.629
544.231
194.893
40.913
9.18268
2.44373
2.62667
3.04453
3.24798
3.29654
2.99692
2.78506
3.00261
441.224
476.002
273.182
129.208
422.947
656.706
421.397
5.3421
4.10259
3.17843
2.24051
2.25511
3.26217
3.45041
2.66152
2.52974
2.41309
2.54079
2.5287
210.351
466.818
523.358
380.46
357.531
598.269
1.73613
2.82013
2.98136
2.61611
1.96701
1.96461
2.90645
2.9732
1.99924
2.07237
2.16887
2.27491
2.28105
33.12
155.457
525.315
592.542
309.773
469.67
2.52724
3.20622
2.80165
2.39384
1.93089
1.79435
2.82216
1.7752
1.78145
1.86925
1.93486
2.08848
2.10598
38.667
6.40818
28.295
351.498
468.041
406.59
37.0106
3.69365
3.05246
3.02684
2.90817
1.78239
1.41485
1.44946
1.6087
1.69772
1.75237
1.89491
1.93273
8.05016
0.487668
0.242306
0.281324
461.258
509.959
254.947
4.51092
4.49005
4.29143
2.89266
1.58294
1.30315
1.40483
1.49665
1.56162
1.60797
1.74486
1.73245
-0.313455
-0.0142716
0.280283
0.428781
29.3583
539.641
314.215
6.36924
4.14174
2.65215
1.36603
1.2534
1.27477
1.33193
1.40069
1.44621
1.50306
1.61981
1.53382
-0.308242
0.127007
0.720287
1.43569
91.6803
360.6
243.98
7.49837
1.67373
1.01545
1.08889
1.12721
1.16293
1.28966
1.69152
1.45215
1.444
1.4226
1.39952
-0.129382
0.188892
26.899
131.148
109.639
-1.45855
36.9571
1.52435
0.653934
0.816376
0.910906
0.976516
1.02201
1.26287
1.82109
1.74788
1.31946
1.30173
1.25122
30.6519
31.3715
31.9972
13.4294
-0.0259379
0.116966
-0.472274
0.117941
0.524982
0.680824
0.760527
0.819735
0.865718
1.17546
1.6996
1.50152
1.17892
1.68297
1.07846
9.46278
4.1849
0.944102
0.382754
0.215443
0.163168
0.193778
0.357474
0.495553
0.598028
0.650485
0.692606
0.736774
1.30862
1.5538
0.899124
1.19115
2.55492
0.91103
0.0965132
0.750656
0.559819
0.55996
0.654965
0.657382
0.540175
0.480701
0.489245
0.548552
0.567579
0.587029
0.693417
1.42473
1.25309
0.709671
1.12138
2.46731
0.793806
1.27891
1.4903
1.54098
1.56715
1.61217
1.68326
1.75548
1.22893
0.590692
0.476449
0.493255
0.505309
0.532633
1.33439
1.31206
0.566957
0.927733
2.42029
0.741233
0.0174977
0.643676
1.01353
1.34115
1.58139
1.66374
1.68603
1.66994
0.774561
0.414658
0.440929
0.444309
0.422576
1.2455
1.30101
0.486415
1.1293
2.3911
1.4225
-0.0985558
0.00491452
0.0716683
0.117551
0.252495
0.380794
0.315033
0.303358
0.371486
0.37562
0.408236
0.405126
0.390205
0.558097
1.1734
0.42548
2.00613
2.39524
2.56109
-0.133579
-0.0158298
0.0638015
0.120404
0.165979
0.207723
0.249522
0.292826
0.335736
0.370625
0.391939
0.388798
0.375456
0.357362
0.349696
0.346187
1.74008
2.49151
2.55922
-0.16058
-0.03288
0.0553703
0.119538
0.170995
0.216573
0.259061
0.29873
0.332886
0.361751
0.378206
0.37721
0.369379
0.358397
0.355758
0.359956
0.413402
2.60404
1.88115
-0.171919
-0.0422007
0.0472206
0.112601
0.16444
0.209175
0.249507
0.285617
0.315544
0.345106
0.358987
0.361224
0.358978
0.354654
0.368903
0.37716
0.389649
1.93697
1.70596
-0.165607
-0.0419631
0.0408136
0.103342
0.152953
0.195318
0.232788
0.26565
0.292813
0.315504
0.337573
0.343816
0.339274
0.346386
0.374405
0.385387
0.405497
1.46769
1.75287
-0.144233
-0.0373715
0.0366878
0.0924857
0.138141
0.177498
0.21219
0.242547
0.268068
0.288075
0.305984
0.315422
0.321203
0.334022
0.367297
0.379471
0.409658
2.3018
2.29324
-0.113455
-0.0296539
0.0318566
0.0805502
0.12167
0.157708
0.18974
0.218062
0.242486
0.26272
0.278642
0.291105
0.303002
0.319186
0.342539
0.366208
0.996889
2.37077
1.70221
-0.0849956
-0.0232967
0.0266693
0.068797
0.105366
0.137915
0.167194
0.193467
0.216698
0.236765
0.253653
0.267987
0.282003
0.302309
0.323558
0.349049
0.98338
2.42295
1.20272
-0.0664803
-0.0190248
0.022165
0.0583972
0.0904619
0.119322
0.145562
0.169417
0.190916
0.210014
0.226768
0.241742
0.256843
0.276113
0.300281
0.328305
0.354727
2.43041
1.0147
-0.0525569
-0.0145927
0.0194042
0.0500414
0.0775831
0.102576
0.125441
0.146352
0.165346
0.182425
0.197603
0.211501
0.226147
0.24525
0.273617
0.304696
0.337825
0.582131
0.838524
-0.0402526
-0.0096033
0.0182552
0.0437336
0.0668978
0.0879897
0.107234
0.124699
0.140381
0.154202
0.16588
0.176159
0.187583
0.255469
0.337378
0.300583
0.308368
0.344733
1.24118
-0.029037
-0.00442538
0.0182425
0.0391624
0.0582701
0.0755791
0.091092
0.104706
0.116323
0.125304
0.130755
0.133492
0.141325
0.321771
0.350065
0.279619
0.259969
1.06305
2.17195
-0.0192455
0.000510822
0.0188826
0.0358859
0.0513574
0.0651346
0.0769742
0.0866003
0.0933453
0.0956462
0.0914078
0.0815983
0.226369
0.25188
0.276665
0.188385
0.218906
2.16519
2.17151
-0.0108862
0.0049306
0.0197205
0.0333778
0.0456903
0.0563629
0.0649414
0.0708376
0.0726056
0.067261
0.0506308
0.111596
0.178457
0.167027
0.144244
0.100847
0.629357
2.19309
1.11333
-0.00410393
0.00848865
0.020254
0.0310719
0.0407571
0.0489569
0.0551373
0.0583843
0.056783
0.0457841
0.0190422
0.0824893
0.118579
0.102297
0.0385635
0.0477181
1.54203
2.18914
0.931193
0.00104054
0.0108759
0.0200384
0.0284692
0.0360589
0.0424882
0.0472328
0.0494424
0.047037
0.0356108
0.00792282
-0.0301491
0.0968446
-0.0331737
0.0031539
0.304614
2.18913
2.19111
0.4342
0.00442948
0.011845
0.0187651
0.0252025
0.0311253
0.0363017
0.0403098
0.0424877
0.0414687
0.0338696
0.01349
-0.0174912
-0.0404597
-0.0375378
0.0433118
1.20201
2.04344
0.60808
0.0262892
0.00604004
0.0113211
0.0163033
0.0210312
0.0255155
0.0296058
0.0330168
0.0353471
0.035974
0.0328973
0.0223489
0.00215709
-0.0185224
0.0255718
0.548237
0.569569
0.00360735
0.0103079
0.0197324
0.00594013
0.00933712
0.0125921
0.0157489
0.0188308
0.0217429
0.0243031
0.0263065
0.0276434
0.0273892
0.0236461
0.0156624
0.00724658
0.00358279
0.00395302
0.00736301
0.0120053
0.0185265
0.0221917
0.0042348
0.0059192
0.00754931
0.00917427
0.0108315
0.0124801
0.0140311
0.0154132
0.0166772
0.0174294
0.0169982
0.0150832
0.0126555
0.0110046
0.0104002
0.0106432
0.012015
0.0150067
0.0167641
0.00103416
0.0011087
0.00118651
0.00133997
0.00163421
0.00208922
0.00269923
0.00346494
0.00448104
0.00543754
0.00617001
0.00656562
0.00656084
0.00619642
0.0058475
0.00608811
0.00713975
0.00895803
0.0103963
-0.0035325
-0.00496031
-0.00632184
-0.00751974
-0.00845686
-0.0090557
-0.00925014
-0.00897305
-0.00819274
-0.00703294
-0.00562864
-0.00418198
-0.00287315
-0.00194381
-0.00125321
-0.000388974
0.000622429
0.00176904
0.00329445
-0.00952201
-0.0123658
-0.0150959
-0.0175904
-0.0197188
-0.0213491
-0.0223473
-0.022582
-0.0219704
-0.020549
-0.0184581
-0.0159856
-0.0135302
-0.0113393
-0.00955779
-0.00801492
-0.00669401
-0.00568781
-0.00412502
-0.0173534
-0.0216443
-0.0258119
-0.0297111
-0.0331749
-0.03601
-0.0379965
-0.0389047
-0.0385478
-0.03683
-0.0338424
-0.0299374
-0.0257513
-0.0219164
-0.0187216
-0.0161979
-0.0142887
-0.0130741
-0.0113279
)
;

boundaryField
{
    leftWall
    {
        type            fixedFluxPressure;
        gradient        uniform 0;
        value           nonuniform List<scalar> 
50
(
1276.97
1277.73
1278.55
1277.19
1273.22
1267.56
1261.43
1256.46
1247.85
1242.28
1185.84
1131.71
1228.72
1282.97
1118.83
1042.46
1039.98
896.109
498.833
504.436
815.816
933.712
989.089
875.785
127.93
6.71009
1.33871
0.263731
-0.0199394
-0.21252
-0.398787
-0.619767
-0.782957
-0.825625
-0.80243
-0.738549
-0.65928
-0.578859
-0.502542
-0.432482
-0.369424
-0.313161
-0.2631
-0.218133
-0.177598
-0.140632
-0.106473
-0.074501
-0.0439331
-0.0149122
)
;
    }
    rightWall
    {
        type            fixedFluxPressure;
        gradient        uniform 0;
        value           nonuniform List<scalar> 
50
(
566.341
557.232
544.913
525.565
499.516
475.187
464.213
465.83
412.59
176.348
3.33876
3.23608
3.00261
2.5287
2.28105
2.10598
1.93273
1.73245
1.53382
1.39952
1.25122
1.07846
0.91103
0.793806
0.741233
1.4225
2.56109
2.55922
1.88115
1.70596
1.75287
2.29324
1.70221
1.20272
1.0147
0.838524
1.24118
2.17195
2.17151
1.11333
0.931193
0.4342
0.0262892
0.0197324
0.0221917
0.0167641
0.0103963
0.00329445
-0.00412502
-0.0113279
)
;
    }
    lowerWall
    {
        type            fixedFluxPressure;
        gradient        uniform 0;
        value           nonuniform List<scalar> 
62
(
1276.97
1274.19
1273.08
1272.6
1271.99
1270.13
1265.41
1255.59
1238.45
1213.14
1179.55
1139.35
1096.42
1058.92
1029.26
1006.18
991.532
982.313
970.913
957.45
945.842
936.87
932.952
932.952
931.811
928.474
922.651
915.417
908.282
900.493
889.133
850.558
922.883
899.679
698.375
373.791
367.888
362.44
359.667
362.688
340.686
158.936
142.279
373.791
376.524
369.046
354.09
351.77
366.852
379.975
396.416
429.366
463.271
490.007
481.398
460.658
425.529
322.785
317.12
446.86
573.235
566.341
)
;
    }
    atmosphere
    {
        type            totalPressure;
        rho             rho;
        psi             none;
        gamma           1;
        p0              uniform 0;
        value           nonuniform List<scalar> 
46
(
0
0
0
0
0
0
0
0
0
0
0
0
0
0
0
0
0
0
0
0
0
0
0
-0.000293608
-0.00316308
-0.00873493
-0.0158802
-0.0223988
-0.027493
-0.0324884
-0.0372294
-0.04153
-0.04516
-0.0478353
-0.0492431
-0.0491254
-0.0472478
-0.0436152
-0.0385566
-0.032939
-0.027802
-0.0236278
-0.0204263
-0.0181346
-0.0168872
-0.0145785
)
;
    }
    defaultFaces
    {
        type            empty;
    }
}


// ************************************************************************* //
