/*--------------------------------*- C++ -*----------------------------------*\
| =========                 |                                                 |
| \\      /  F ield         | OpenFOAM: The Open Source CFD Toolbox           |
|  \\    /   O peration     | Version:  2206                                  |
|   \\  /    A nd           | Website:  www.openfoam.com                      |
|    \\/     M anipulation  |                                                 |
\*---------------------------------------------------------------------------*/
FoamFile
{
    version     2.0;
    format      ascii;
    arch        "LSB;label=32;scalar=64";
    class       surfaceScalarField;
    location    "0.95";
    object      phi;
}
// * * * * * * * * * * * * * * * * * * * * * * * * * * * * * * * * * * * * * //

dimensions      [0 3 -1 0 0 0 0];

oriented        oriented;

internalField   nonuniform List<scalar> 
4432
(
1.24489e-06
-1.24489e-06
-1.73519e-06
2.98007e-06
-7.77902e-06
6.04383e-06
-1.27556e-05
4.97657e-06
-1.43623e-05
1.60667e-06
-1.44116e-05
4.9307e-08
-1.47996e-05
3.88026e-07
-1.5525e-05
7.25423e-07
-1.61021e-05
5.77036e-07
-1.58878e-05
-2.14273e-07
-1.41878e-05
-1.70001e-06
-1.14105e-05
-2.77724e-06
-1.0047e-05
-1.3636e-06
-1.27726e-05
2.72563e-06
-1.89693e-05
6.19669e-06
-2.27895e-05
3.82018e-06
-1.98429e-05
-2.94651e-06
-1.33397e-05
-6.50328e-06
-7.50072e-06
-5.83895e-06
-2.8862e-06
-4.61453e-06
6.97031e-07
-3.58322e-06
1.74819e-06
-1.05116e-06
1.74819e-06
-4.68136e-06
3.43648e-06
-1.06011e-05
8.89982e-06
-1.542e-05
1.08626e-05
-1.67492e-05
6.30586e-06
-1.58411e-05
6.98575e-07
-1.53908e-05
-4.00995e-07
-1.62228e-05
1.21999e-06
-1.75434e-05
2.04602e-06
-1.83759e-05
1.40955e-06
-1.84368e-05
-1.53326e-07
-1.8348e-05
-1.78886e-06
-1.90361e-05
-2.08914e-06
-2.09349e-05
5.35227e-07
-2.2573e-05
4.36369e-06
-2.14632e-05
5.08693e-06
-1.6376e-05
-1.26708e-06
-1.01202e-05
-9.20227e-06
-5.3139e-06
-1.13096e-05
-1.4033e-06
-9.74953e-06
2.30304e-06
-8.32086e-06
5.30425e-06
-6.58444e-06
4.47865e-06
-2.25542e-07
6.22684e-06
-7.63443e-06
1.10709e-05
-1.4016e-05
1.52814e-05
-1.73945e-05
1.42412e-05
-1.7934e-05
6.84532e-06
-1.69216e-05
-3.13789e-07
-1.61071e-05
-1.21544e-06
-1.6287e-05
1.39988e-06
-1.69284e-05
2.68741e-06
-1.70786e-05
1.55972e-06
-1.65232e-05
-7.08743e-07
-1.57708e-05
-2.54125e-06
-1.55332e-05
-2.32672e-06
-1.543e-05
4.31954e-07
-1.41459e-05
3.07968e-06
-1.02248e-05
1.16586e-06
-5.80675e-06
-5.68515e-06
-3.30477e-06
-1.17042e-05
-1.74572e-06
-1.28686e-05
3.46703e-07
-1.1842e-05
3.51059e-06
-1.14848e-05
6.74251e-06
-9.81635e-06
6.21185e-06
3.05117e-07
1.24387e-05
-7.91528e-06
1.89862e-05
-1.3986e-05
2.13521e-05
-1.73709e-05
1.76261e-05
-1.8438e-05
7.91243e-06
-1.7726e-05
-1.02585e-06
-1.69999e-05
-1.94151e-06
-1.72306e-05
1.63051e-06
-1.77605e-05
3.21738e-06
-1.76482e-05
1.44737e-06
-1.63936e-05
-1.96333e-06
-1.40695e-05
-4.86537e-06
-1.12265e-05
-5.1697e-06
-8.14837e-06
-2.64618e-06
-4.85972e-06
-2.08975e-07
-2.16897e-06
-1.52491e-06
-1.23129e-06
-6.62283e-06
-1.68184e-06
-1.12537e-05
-1.59457e-06
-1.29559e-05
-7.34572e-08
-1.33631e-05
2.29068e-06
-1.38489e-05
4.94623e-06
-1.24719e-05
5.57922e-06
-3.27871e-07
1.80179e-05
-6.82796e-06
2.58142e-05
-1.23918e-05
2.6916e-05
-1.5989e-05
2.12233e-05
-1.75301e-05
9.45353e-06
-1.73371e-05
-1.21882e-06
-1.74709e-05
-1.80777e-06
-1.84133e-05
2.57298e-06
-1.93749e-05
4.17894e-06
-1.94294e-05
1.5018e-06
-1.78999e-05
-3.49283e-06
-1.46811e-05
-8.08412e-06
-1.05254e-05
-9.3254e-06
-6.35345e-06
-6.81818e-06
-2.98255e-06
-3.57988e-06
-1.37616e-06
-3.13132e-06
-1.68715e-06
-6.31184e-06
-2.31807e-06
-1.06228e-05
-1.63113e-06
-1.36429e-05
7.87725e-08
-1.5073e-05
1.41342e-06
-1.51836e-05
2.01133e-06
-1.30698e-05
3.70551e-06
-2.02204e-06
2.17234e-05
-5.04967e-06
3.08638e-05
-9.79883e-06
3.16651e-05
-1.32329e-05
2.46574e-05
-1.50612e-05
1.12818e-05
-1.58204e-05
-4.59584e-07
-1.73512e-05
-2.76985e-07
-1.9526e-05
4.74782e-06
-2.1183e-05
5.83589e-06
-2.14934e-05
1.81221e-06
-1.96949e-05
-5.29133e-06
-1.55595e-05
-1.22196e-05
-1.03402e-05
-1.45447e-05
-5.83279e-06
-1.13256e-05
-2.96619e-06
-6.44647e-06
-1.92401e-06
-4.1735e-06
-2.04669e-06
-6.18915e-06
-1.76367e-06
-1.09058e-05
-2.96345e-07
-1.51102e-05
1.52987e-06
-1.68992e-05
2.29257e-06
-1.59463e-05
1.07184e-06
-1.18491e-05
2.59512e-06
-3.54533e-06
2.43185e-05
-2.83103e-06
3.36949e-05
-6.57999e-06
3.54141e-05
-9.65405e-06
2.77314e-05
-1.12712e-05
1.2899e-05
-1.25927e-05
8.61889e-07
-1.65077e-05
3.63806e-06
-2.06272e-05
8.86723e-06
-2.31934e-05
8.40212e-06
-2.37505e-05
2.36936e-06
-2.10709e-05
-7.97089e-06
-1.48124e-05
-1.84781e-05
-7.67241e-06
-2.16846e-05
-2.56018e-06
-1.64378e-05
-1.04851e-07
-8.90181e-06
3.71953e-07
-4.6503e-06
2.72652e-08
-5.84446e-06
3.37845e-07
-1.12164e-05
1.77761e-06
-1.655e-05
3.99451e-06
-1.9116e-05
5.60994e-06
-1.75617e-05
4.87376e-06
-1.11129e-05
3.41412e-06
-2.08568e-06
2.77326e-05
-5.23534e-07
3.42184e-05
-2.97884e-06
3.78694e-05
-4.8814e-06
2.9634e-05
-4.41564e-06
1.24332e-05
-7.31584e-06
3.76209e-06
-1.51013e-05
1.14235e-05
-2.15503e-05
1.53162e-05
-2.50534e-05
1.19053e-05
-2.54006e-05
2.71655e-06
-2.1052e-05
-1.23195e-05
-1.31992e-05
-2.63309e-05
-5.6537e-06
-2.92302e-05
-8.97955e-07
-2.11936e-05
1.27886e-06
-1.10786e-05
1.53472e-06
-4.90617e-06
9.1661e-07
-5.22635e-06
1.02541e-06
-1.13252e-05
2.94118e-06
-1.84657e-05
6.67125e-06
-2.28461e-05
1.03426e-05
-2.12331e-05
1.0919e-05
-1.16893e-05
5.4363e-06
3.39706e-06
3.31689e-05
8.12522e-06
-8.12522e-06
2.28286e-05
-1.47034e-05
3.68388e-05
-1.40102e-05
4.15856e-05
-4.74674e-06
3.6404e-05
5.18164e-06
2.284e-05
1.3564e-05
4.36905e-06
1.84709e-05
-9.33298e-06
1.3702e-05
-1.76797e-05
8.34676e-06
-1.82995e-05
6.19794e-07
-6.76546e-06
-1.15341e-05
7.84436e-06
-1.46098e-05
-4.53973e-06
1.23841e-05
-4.41091e-05
3.95694e-05
-7.22482e-05
2.81391e-05
-6.79085e-05
-4.33963e-06
-4.42036e-05
-2.3705e-05
-1.48246e-05
-2.93789e-05
-1.48246e-05
1.28312e-06
-9.40834e-06
1.92262e-05
-3.26465e-05
3.60773e-05
-3.08613e-05
4.76613e-05
-1.63307e-05
5.43811e-05
-1.53822e-06
4.95728e-05
1.83723e-05
3.24974e-05
3.55463e-05
1.64664e-05
2.97331e-05
4.2405e-06
2.05726e-05
-7.12396e-06
1.19842e-05
-1.04211e-05
-8.23688e-06
-1.1665e-05
-1.3366e-05
-3.64997e-05
3.72188e-05
-6.75292e-05
7.05988e-05
-7.4006e-05
3.46159e-05
-5.67797e-05
-2.15659e-05
-2.89248e-05
-5.15599e-05
-6.66668e-06
-5.1637e-05
-2.14913e-05
4.15319e-06
-1.35615e-05
2.59514e-05
-5.44447e-05
4.2227e-05
-4.71369e-05
5.38798e-05
-2.79835e-05
6.51727e-05
-1.28311e-05
6.68683e-05
1.66767e-05
5.44266e-05
4.7988e-05
4.1058e-05
4.31016e-05
2.97105e-05
3.19202e-05
1.24746e-05
2.922e-05
-7.2646e-06
1.15024e-05
-2.47557e-05
4.12511e-06
-4.42338e-05
5.66969e-05
-5.62683e-05
8.26333e-05
-4.86406e-05
2.69882e-05
-2.94216e-05
-4.07849e-05
-5.26282e-06
-7.57187e-05
5.55058e-06
-6.24504e-05
-1.59407e-05
1.41902e-05
-2.77518e-05
3.54847e-05
-7.57391e-05
4.6521e-05
-5.81733e-05
5.00375e-05
-3.15e-05
5.62699e-05
-1.90635e-05
5.99464e-05
1.30002e-05
5.53144e-05
5.26199e-05
5.10064e-05
4.74096e-05
4.47798e-05
3.81468e-05
3.01017e-05
4.38982e-05
5.55825e-06
3.60458e-05
-1.75619e-05
2.72452e-05
-2.78878e-05
6.70228e-05
-2.6975e-05
8.17205e-05
-1.30646e-05
1.30778e-05
5.2513e-06
-5.91008e-05
1.47749e-05
-8.52423e-05
1.21918e-05
-5.98674e-05
-3.74889e-06
2.41865e-05
-5.19383e-05
4.9192e-05
-0.000100745
5.71132e-05
-6.60945e-05
4.45692e-05
-1.8956e-05
3.25812e-05
-7.07553e-06
3.02315e-05
1.53499e-05
3.60601e-05
4.67913e-05
4.55973e-05
3.78724e-05
4.55158e-05
3.82283e-05
3.62496e-05
5.31644e-05
1.73133e-05
5.49821e-05
2.64388e-06
4.19147e-05
-1.77757e-06
7.14442e-05
7.82143e-06
7.21215e-05
1.97393e-05
1.15992e-06
2.66335e-05
-6.5995e-05
2.31004e-05
-8.17091e-05
1.24591e-05
-4.92261e-05
8.71018e-06
2.99981e-05
-8.19364e-05
4.76932e-05
-0.00011844
4.22629e-05
-6.06642e-05
2.40853e-05
-7.78459e-07
-8.77966e-06
2.57894e-05
-1.70443e-05
2.36147e-05
9.59346e-06
2.01535e-05
2.87958e-05
1.86701e-05
3.56332e-05
3.13909e-05
3.60837e-05
5.27138e-05
2.81074e-05
6.29584e-05
1.95428e-05
5.04792e-05
2.67963e-05
6.41908e-05
3.64999e-05
6.24179e-05
4.19774e-05
-4.31761e-06
3.62755e-05
-6.02931e-05
1.99814e-05
-6.5415e-05
7.608e-06
-3.68527e-05
1.63182e-05
2.97467e-05
-0.000111683
3.2222e-05
-0.000120915
9.63785e-06
-3.808e-05
-1.90345e-05
2.78939e-05
-3.97314e-05
4.64863e-05
-2.59786e-05
9.86188e-06
-2.09016e-06
-3.73496e-06
1.18685e-05
4.71144e-06
2.25117e-05
2.07476e-05
3.06293e-05
4.45963e-05
3.22625e-05
6.13252e-05
2.76765e-05
5.50652e-05
3.50221e-05
5.68451e-05
4.69643e-05
5.04758e-05
4.60441e-05
-3.3975e-06
3.06466e-05
-4.48956e-05
9.76981e-06
-4.45381e-05
1.72414e-06
-2.88071e-05
1.80423e-05
2.09774e-05
-0.00013266
1.10038e-06
-0.000101038
-2.99981e-05
-6.98155e-06
-4.92654e-05
4.71613e-05
-4.35134e-05
4.07343e-05
-2.5462e-05
-8.18955e-06
-1.15503e-05
-1.76467e-05
-1.15418e-06
-5.68463e-06
1.05319e-05
9.06156e-06
2.23236e-05
3.28046e-05
3.13078e-05
5.2341e-05
3.09329e-05
5.54402e-05
3.3844e-05
5.3934e-05
4.28079e-05
4.1512e-05
3.84965e-05
9.1384e-07
1.4699e-05
-2.10981e-05
-5.60222e-06
-2.42369e-05
-3.44844e-06
-3.09609e-05
1.45939e-05
9.57289e-06
2.46455e-05
7.49335e-06
3.9949e-05
3.85598e-06
3.32714e-05
-8.147e-07
1.71039e-05
-1.53689e-05
1.83163e-05
-3.33789e-05
2.94334e-05
-4.692e-05
2.88573e-05
-5.53784e-05
2.03637e-05
-5.82281e-05
5.56628e-06
-5.58748e-05
-1.46728e-05
-4.65639e-05
-3.56418e-05
-3.52395e-05
-4.05546e-05
-2.7324e-05
-2.9109e-05
-2.2906e-05
-1.54966e-05
-2.1154e-05
-6.65818e-06
-1.99196e-05
-6.46074e-06
-1.53824e-05
-1.58624e-05
-6.20098e-06
-2.76472e-05
7.22356e-06
-3.62707e-05
2.10345e-05
-3.5044e-05
3.08316e-05
-2.14865e-05
3.2876e-05
1.35274e-06
2.93516e-05
3.66933e-05
2.57072e-05
-1.06172e-06
2.85054e-05
3.71508e-05
1.90622e-05
4.27146e-05
4.38211e-06
3.1784e-05
-1.20966e-05
3.4795e-05
-2.84024e-05
4.57393e-05
-4.78248e-05
4.82797e-05
-7.26858e-05
4.52247e-05
-9.89278e-05
3.18082e-05
-0.000111587
-2.01332e-06
-0.000108154
-3.90748e-05
-0.000101531
-4.71775e-05
-9.7937e-05
-3.27033e-05
-9.48342e-05
-1.85994e-05
-9.00997e-05
-1.13927e-05
-8.22567e-05
-1.43037e-05
-7.18343e-05
-2.62848e-05
-6.17155e-05
-3.77659e-05
-4.98822e-05
-4.8104e-05
-3.2446e-05
-5.24802e-05
-1.31733e-05
-4.07592e-05
2.40446e-06
-1.4225e-05
1.50483e-05
1.67077e-05
3.22722e-05
-3.33339e-05
4.09967e-05
2.84263e-05
3.04373e-05
5.3274e-05
-5.71665e-07
6.27929e-05
-3.81042e-05
7.23275e-05
-8.25883e-05
9.02234e-05
-0.000136684
0.000102375
-0.000187711
9.62517e-05
-0.000217805
6.19027e-05
-0.000211529
-8.28985e-06
-0.000198295
-5.23081e-05
-0.000188428
-5.70446e-05
-0.000181743
-3.9389e-05
-0.000176154
-2.41878e-05
-0.00017164
-1.5907e-05
-0.000168285
-1.76586e-05
-0.000170678
-2.38924e-05
-0.0001754
-3.30435e-05
-0.000171503
-5.20008e-05
-0.000151641
-7.23422e-05
-0.000125163
-6.72378e-05
-0.000106498
-3.28899e-05
1.03472e-05
-0.000101797
-1.18407e-06
-3.21499e-05
-3.7332e-06
3.09755e-05
-1.96321e-05
6.91729e-05
-5.64972e-05
9.9658e-05
-0.000120454
0.000136284
-0.000191005
0.000160775
-0.000245718
0.000157088
-0.000278467
0.000129001
-0.000290747
7.4182e-05
-0.000281255
-1.77819e-05
-0.000261464
-7.20992e-05
-0.000243907
-7.46013e-05
-0.000232131
-5.11647e-05
-0.000231032
-2.52873e-05
-0.000244869
-2.06966e-06
-0.000264006
1.47841e-06
-0.000279473
-8.4257e-06
-0.000279095
-3.3421e-05
-0.000261889
-6.92068e-05
-0.000240541
-9.36905e-05
-0.000219605
-8.81734e-05
-0.000200952
-5.15435e-05
1.05744e-08
-0.000190615
-4.91231e-05
1.69732e-05
-8.59732e-05
6.78256e-05
-0.000114362
9.75615e-05
-0.000157985
0.000143281
-0.00021665
0.000194949
-0.000265387
0.000209512
-0.000299926
0.000191626
-0.000310228
0.000139304
-0.00030759
7.15436e-05
-0.000306172
-1.92e-05
-0.000290368
-8.79033e-05
-0.000275063
-8.99054e-05
-0.000262554
-6.36739e-05
-0.000257724
-3.01173e-05
-0.000264382
4.58805e-06
-0.00026325
3.45983e-07
-0.000244527
-2.71487e-05
-0.00021155
-6.63973e-05
-0.00017661
-0.000104147
-0.000150655
-0.000119646
-0.00013637
-0.000102458
-0.000136822
-5.10915e-05
1.45998e-05
-0.000151412
-6.3741e-05
8.07142e-05
-0.000128743
0.000132828
-0.000202966
0.000171785
-0.000236575
0.00017689
-0.000230621
0.000188995
-0.000247259
0.000226151
-0.000288298
0.000232665
-0.000293212
0.000144218
-0.000296965
7.52962e-05
-0.000302047
-1.41174e-05
-0.000308503
-8.14475e-05
-0.000296298
-0.00010211
-0.00027855
-8.14218e-05
-0.000255062
-5.3606e-05
-0.000223921
-2.65526e-05
-0.000193131
-3.04437e-05
-0.000162438
-5.78423e-05
-0.000133892
-9.49431e-05
-0.000116219
-0.000121819
-0.000102691
-0.000133175
-7.48196e-05
-0.000130329
-3.13739e-05
-9.45373e-05
-9.19283e-06
-7.58121e-06
-3.13604e-05
0.000112075
-0.000139257
0.000240724
-0.000235746
0.000268273
-0.000244643
0.000185788
-0.000207043
0.000151394
-0.000178916
0.000198024
-0.000202656
0.000256405
-0.000238474
0.000180036
-0.000261523
9.83447e-05
-0.000286693
1.10536e-05
-0.000302056
-6.60846e-05
-0.000300115
-0.000104052
-0.000273613
-0.000107924
-0.000231802
-9.54163e-05
-0.000186516
-7.1839e-05
-0.000146729
-7.02306e-05
-0.000117374
-8.71972e-05
-0.00010099
-0.000111327
-8.75058e-05
-0.000135304
-7.60177e-05
-0.000144663
-6.51026e-05
-0.000141244
-5.28528e-05
-0.000106787
-4.71043e-05
-1.49414e-05
-2.84892e-05
0.000140564
-0.0001228
0.000335034
-0.000193068
0.000338542
-0.000208829
0.000201549
-0.000200196
0.000142762
-0.000170373
0.0001682
-0.000136296
0.000222328
-0.000166009
0.00020975
-0.000205086
0.000137421
-0.000242308
4.82756e-05
-0.000274908
-3.34848e-05
-0.000289061
-8.99002e-05
-0.00026748
-0.000129504
-0.000229221
-0.000133675
-0.000189907
-0.000111153
-0.000156531
-0.000103607
-0.000129354
-0.000114374
-0.000100648
-0.000140032
-6.50311e-05
-0.000170921
-3.49929e-05
-0.000174701
-4.51273e-05
-0.000131109
-8.51757e-05
-6.67386e-05
-4.97813e-05
-8.24986e-05
-2.54366e-05
0.000166001
-0.000105079
0.000414677
-0.00013723
0.000370693
-0.000155981
0.0002203
-0.000167531
0.000154312
-0.000170339
0.000171009
-0.000144683
0.000196672
-0.000140325
0.000205391
-0.000163163
0.000160259
-0.000197779
8.2891e-05
-0.000239307
8.04396e-06
-0.000270737
-5.84708e-05
-0.00028249
-0.000117751
-0.000275014
-0.000141152
-0.000237302
-0.000148865
-0.000195827
-0.000145082
-0.00015712
-0.000153081
-0.000116914
-0.000180238
-5.90623e-05
-0.000228773
-1.76462e-06
-0.000231999
-3.00648e-05
-0.000102809
-8.60521e-05
-1.07514e-05
-7.73633e-05
-5.84701e-05
-2.16859e-05
0.000187686
-7.3279e-05
0.00046627
-8.89552e-05
0.000386369
-0.000109783
0.000241128
-0.000128786
0.000173315
-0.000138124
0.000180346
-0.000136706
0.000195255
-0.000127721
0.000196407
-0.000131265
0.000163802
-0.000150055
0.000101681
-0.000180924
3.89136e-05
-0.000222049
-1.73466e-05
-0.000267834
-7.19655e-05
-0.000293106
-0.000115879
-0.000296371
-0.0001456
-0.000272976
-0.000168477
-0.000225578
-0.000200479
-0.000153562
-0.000252254
-0.000113271
-0.000269064
-8.94584e-05
-0.000255812
-3.7524e-05
-0.000154744
-1.65171e-05
-3.17582e-05
-0.00010649
1.26093e-05
-2.42261e-05
0.000211913
-4.28884e-05
0.000484932
-4.3943e-05
0.000387424
-6.21573e-05
0.000259343
-8.31256e-05
0.000194283
-0.000100894
0.000198115
-0.000104159
0.000198519
-9.73384e-05
0.000189587
-9.08636e-05
0.000157327
-9.42491e-05
0.000105066
-0.000107143
5.18073e-05
-0.000127625
3.13584e-06
-0.000153473
-4.61182e-05
-0.000175577
-9.37753e-05
-0.000183677
-0.0001375
-0.000174581
-0.000177574
-0.000153961
-0.000221099
-0.000135207
-0.000271008
-0.000128298
-0.000275972
-0.000123256
-0.000260854
-6.83441e-05
-0.000209655
-1.37561e-05
-8.63462e-05
-0.000134016
1.37706e-05
-2.74912e-05
0.000239404
-2.40762e-05
0.000481517
-1.19051e-05
0.000375253
-2.35742e-05
0.000271012
-4.5538e-05
0.000216247
-6.39019e-05
0.000216479
-6.81776e-05
0.000202795
-6.02093e-05
0.000181618
-4.7748e-05
0.000144866
-3.97452e-05
9.70631e-05
-3.71592e-05
4.9221e-05
-4.00459e-05
6.02236e-06
-4.79041e-05
-3.82601e-05
-6.15184e-05
-8.01609e-05
-8.07336e-05
-0.000118285
-0.000102633
-0.000155674
-0.0001168
-0.000206933
-0.00012578
-0.000262027
-0.000131696
-0.000270057
-0.000141477
-0.000251073
-0.000142604
-0.000208528
-0.000118671
-0.000110279
-0.000139263
-0.000113424
-2.63744e-05
0.000265778
-1.79128e-05
0.000473055
4.58076e-06
0.00035276
-1.23926e-06
0.000276832
-2.52982e-05
0.000240306
-3.93306e-05
0.000230511
-4.30004e-05
0.000206464
-3.51229e-05
0.000173741
-2.10784e-05
0.000130822
-8.18537e-06
8.417e-05
9.04431e-07
4.0131e-05
5.33719e-06
1.58944e-06
2.65708e-06
-3.558e-05
-8.76828e-06
-6.87356e-05
-2.92973e-05
-9.7756e-05
-5.84195e-05
-0.000126552
-9.20127e-05
-0.00017334
-0.000117199
-0.00023684
-0.000130295
-0.000256961
-0.00014989
-0.000231478
-0.000186486
-0.000171933
-0.000218009
-7.87559e-05
-0.000110702
-0.00024657
-1.50242e-05
0.000280802
-1.07911e-05
0.000468822
-6.88727e-07
0.000342658
5.3224e-07
0.000275611
-2.29048e-05
0.000263742
-3.62174e-05
0.000243824
-4.25887e-05
0.000212836
-3.90692e-05
0.000170222
-2.87836e-05
0.000120536
-1.64816e-05
7.18679e-05
-5.48026e-06
2.91296e-05
2.61825e-06
-6.50898e-06
5.43971e-06
-3.84015e-05
1.31945e-06
-6.46154e-05
-1.13436e-05
-8.5093e-05
-3.49197e-05
-0.000102976
-7.29479e-05
-0.000135311
-0.000109404
-0.000200385
-0.000128382
-0.000237983
-0.000149171
-0.000210689
-0.000198135
-0.000122969
-0.000274312
-2.57905e-06
-5.89895e-05
-0.000326025
-1.60035e-06
0.000282403
-8.25209e-06
0.000475474
-9.98249e-06
0.000344389
-1.52171e-05
0.000280846
-3.81082e-05
0.000286633
-5.95894e-05
0.000265306
-7.64477e-05
0.000229694
-8.22337e-05
0.000176008
-7.63418e-05
0.000114644
-6.26654e-05
5.81913e-05
-4.69874e-05
1.34515e-05
-3.31623e-05
-2.03341e-05
-2.41461e-05
-4.74178e-05
-2.05357e-05
-6.82256e-05
-2.37479e-05
-8.18807e-05
-3.59632e-05
-9.07604e-05
-6.3794e-05
-0.00010748
-0.000101038
-0.000163141
-0.000124688
-0.000214332
-0.000150903
-0.000184474
-0.000214306
-5.95661e-05
-0.00029007
7.31856e-05
-1.64626e-05
-0.000332597
3.95149e-06
0.000278451
-3.38366e-06
0.000482809
-1.37214e-05
0.000354726
-3.511e-05
0.000302235
-7.05617e-05
0.000322085
-0.000110337
0.000305081
-0.000143109
0.000262466
-0.000159097
0.000191996
-0.000152236
0.000107782
-0.000126348
3.23038e-05
-9.4829e-05
-1.80673e-05
-6.66361e-05
-4.85269e-05
-4.83379e-05
-6.5716e-05
-3.94501e-05
-7.71134e-05
-3.79051e-05
-8.34257e-05
-4.46108e-05
-8.40547e-05
-6.48067e-05
-8.72844e-05
-0.000100732
-0.000127215
-0.000129905
-0.00018516
-0.000166447
-0.000147932
-0.000215061
-1.09526e-05
-0.00024026
9.83851e-05
9.0114e-06
-0.000265734
3.38596e-06
0.000275065
2.31174e-05
0.000463078
-7.43081e-06
0.000385274
-4.97135e-05
0.000344518
-0.000104683
0.000377055
-0.000161885
0.000362283
-0.000206664
0.000307245
-0.000228859
0.00021419
-0.000219455
9.83792e-05
-0.000184039
-3.11205e-06
-0.000136624
-6.54825e-05
-9.09418e-05
-9.42092e-05
-6.05209e-05
-9.6137e-05
-4.60566e-05
-9.15776e-05
-4.29712e-05
-8.65109e-05
-4.85427e-05
-7.84831e-05
-6.66827e-05
-6.91446e-05
-0.000103105
-9.07933e-05
-0.00013912
-0.000149145
-0.000155922
-0.000131129
-0.000163699
-3.17599e-06
-0.000155384
9.00705e-05
2.21488e-05
-0.000168522
3.29728e-05
0.000242092
5.66509e-05
0.0004394
1.75203e-05
0.000424405
-4.13657e-05
0.000403404
-0.000105592
0.000441281
-0.000164475
0.000421165
-0.00020453
0.000347301
-0.000221095
0.000230755
-0.000216143
9.34276e-05
-0.000192048
-2.72073e-05
-0.00014594
-0.00011159
-9.62596e-05
-0.00014389
-5.83609e-05
-0.000134036
-3.93163e-05
-0.000110622
-3.53636e-05
-9.04634e-05
-4.13195e-05
-7.25272e-05
-5.76777e-05
-5.27866e-05
-9.44869e-05
-5.39842e-05
-0.000129626
-0.000114006
-0.00013373
-0.000127026
-0.0001003
-3.66059e-05
-7.86844e-05
6.8455e-05
3.39932e-05
-9.05288e-05
5.99207e-05
0.000182172
9.70914e-05
0.000402229
6.43255e-05
0.000457171
6.3374e-06
0.000461392
-4.93485e-05
0.000496967
-9.66181e-05
0.000468435
-0.000128045
0.000378728
-0.000143631
0.000246341
-0.000144245
9.4041e-05
-0.000124867
-4.65846e-05
-9.75904e-05
-0.000138867
-6.58517e-05
-0.000175628
-3.58184e-05
-0.000164069
-1.90375e-05
-0.000127403
-1.62411e-05
-9.32598e-05
-2.28688e-05
-6.58996e-05
-3.69655e-05
-3.86899e-05
-6.96263e-05
-2.13233e-05
-0.000109204
-7.44279e-05
-0.000119244
-0.000116985
-7.94817e-05
-7.63685e-05
-3.50437e-05
2.4017e-05
3.44507e-05
-3.55011e-05
6.68091e-05
0.000115363
0.000135796
0.000333243
0.000139825
0.000453142
0.000102505
0.000498712
6.61706e-05
0.000533301
2.96628e-05
0.000504943
2.50578e-07
0.00040814
-1.69777e-05
0.00026357
-1.44479e-05
9.15113e-05
-4.18472e-06
-5.68479e-05
-5.20067e-07
-0.000142531
3.33783e-06
-0.000179486
1.09677e-05
-0.000171699
1.61898e-05
-0.000132625
1.36505e-05
-9.07205e-05
4.86836e-06
-5.71175e-05
-5.80255e-06
-2.8019e-05
-3.08703e-05
3.74443e-06
-8.28287e-05
-2.24694e-05
-0.000110055
-8.97588e-05
-9.44403e-05
-9.19833e-05
-4.12546e-05
-2.91688e-05
2.5173e-05
-3.19768e-05
4.60795e-05
6.92834e-05
0.0001497
0.000229622
0.000216703
0.000386139
0.000230177
0.000485239
0.00022259
0.000540888
0.000201141
0.000526392
0.0001741
0.000435181
0.000149378
0.000288291
0.00013279
0.0001081
0.000122846
-4.69034e-05
0.000111066
-0.000130752
9.10038e-05
-0.000159424
7.27014e-05
-0.000153396
5.9453e-05
-0.000119376
4.77944e-05
-7.90619e-05
3.5818e-05
-4.51411e-05
2.45045e-05
-1.67056e-05
1.38834e-05
1.43657e-05
-3.47236e-05
2.61376e-05
-8.66623e-05
-3.78199e-05
-9.96059e-05
-7.90396e-05
-7.12472e-05
-5.75275e-05
6.34667e-06
-5.24209e-05
2.60484e-05
4.3235e-05
0.000127478
0.000128192
0.000245873
0.000267745
0.000327811
0.000403301
0.000371899
0.0004968
0.000383671
0.000514619
0.000372831
0.000446021
0.000350471
0.000310652
0.000317249
0.000141321
0.000270275
7.09238e-08
0.00022156
-8.20366e-05
0.000173811
-0.000111675
0.000133094
-0.00011268
0.00010283
-8.9113e-05
8.15736e-05
-5.78052e-05
6.6079e-05
-2.96465e-05
5.45662e-05
-5.19275e-06
4.9173e-05
1.97591e-05
2.59498e-05
4.93609e-05
-3.682e-05
2.49499e-05
-7.54004e-05
-4.04593e-05
-7.33349e-05
-5.95929e-05
-2.88935e-05
-3.80947e-05
2.0881e-05
2.23542e-05
9.39912e-05
5.50818e-05
0.000216432
0.000145304
0.000341184
0.000278548
0.000435924
0.00040206
0.00049089
0.000459653
0.000507264
0.000429647
0.000492222
0.000325694
0.000445706
0.000187837
0.000376682
6.90953e-05
0.000299214
-4.56841e-06
0.000231685
-4.41464e-05
0.00017674
-5.77342e-05
0.000136341
-4.87147e-05
0.000109202
-3.06662e-05
9.17341e-05
-1.21786e-05
8.095e-05
5.59147e-06
7.79417e-05
2.27675e-05
8.02205e-05
4.70821e-05
4.49545e-05
6.0216e-05
-1.6528e-05
2.10233e-05
-4.84561e-05
-2.76648e-05
-4.77076e-05
-2.96419e-05
1.75261e-05
4.82817e-06
6.02257e-05
1.23821e-05
0.000150068
5.54617e-05
0.000269537
0.00015908
0.000382494
0.000289103
0.000465319
0.000376828
0.000506728
0.000388238
0.0005036
0.000328822
0.000458692
0.000232745
0.000388031
0.000139756
0.000313829
6.96334e-05
0.000248132
2.15511e-05
0.000193909
-3.51103e-06
0.000153648
-8.45479e-06
0.000126553
-3.57085e-06
0.00010958
4.79495e-06
0.000100368
1.4803e-05
9.80366e-05
2.5099e-05
0.00010744
3.7679e-05
0.000113255
5.44014e-05
8.31795e-05
5.10984e-05
3.68494e-05
1.86653e-05
-2.25838e-05
1.17256e-05
4.73719e-06
9.0959e-08
1.87946e-05
-1.67541e-06
6.47233e-05
9.533e-06
0.000146858
7.69447e-05
0.000240831
0.00019513
0.000324204
0.000293455
0.000378618
0.000333825
0.000393937
0.000313502
0.000372345
0.000254337
0.000328056
0.000184044
0.00027803
0.000119659
0.00023001
6.95712e-05
0.000187989
3.85102e-05
0.000155791
2.37436e-05
0.000133365
1.88545e-05
0.000119087
1.90736e-05
0.000111776
2.21135e-05
0.000110456
2.64193e-05
0.000118049
3.00859e-05
0.000136242
3.62083e-05
0.000147966
3.93746e-05
0.000141229
2.54022e-05
-1.89457e-06
0.00012054
-8.1352e-06
8.22603e-06
-1.61319e-05
6.32122e-06
-8.25828e-06
1.65933e-06
2.90272e-05
3.96593e-05
9.30446e-05
0.000131113
0.000160922
0.000225577
0.000217055
0.000277691
0.00024923
0.000281327
0.000255984
0.000247584
0.000244503
0.000195525
0.000222623
0.000141539
0.000195998
9.61964e-05
0.000169972
6.45369e-05
0.000148272
4.54432e-05
0.000132119
3.5007e-05
0.000121408
2.97854e-05
0.000115934
2.75867e-05
0.000115376
2.6978e-05
0.000119728
2.57337e-05
0.000132595
2.33415e-05
0.000151276
2.06935e-05
0.000164767
1.19108e-05
-5.62421e-06
0.000168497
-1.32218e-05
2.14478e-05
-3.46814e-05
2.77809e-05
-5.12078e-05
1.81858e-05
-4.94925e-05
3.79442e-05
-1.6676e-05
9.82965e-05
3.51222e-05
0.000173779
8.76575e-05
0.000225156
0.000130818
0.000238167
0.000158655
0.000219747
0.000170646
0.000183535
0.000170041
0.000142143
0.000161078
0.00010516
0.000148451
7.71643e-05
0.000135967
5.79275e-05
0.000125704
4.52699e-05
0.00011849
3.69986e-05
0.000114664
3.14133e-05
0.000114374
2.72679e-05
0.000116963
2.31447e-05
0.000122936
1.73689e-05
0.000133571
1.00584e-05
0.000145604
-1.22075e-07
-1.39203e-05
0.0001539
-1.26055e-05
3.40532e-05
-3.42869e-05
4.94624e-05
-5.80852e-05
4.19841e-05
-7.3181e-05
5.30401e-05
-6.35838e-05
8.86993e-05
-2.9344e-05
0.000139539
1.6434e-05
0.000179378
6.10441e-05
0.000193557
9.64861e-05
0.000184305
0.000119624
0.000160397
0.000130514
0.000131253
0.000131961
0.000103713
0.000128052
8.10729e-05
0.000122212
6.37673e-05
0.000116585
5.08975e-05
0.000112305
4.12784e-05
0.000109923
3.37943e-05
0.000109738
2.74529e-05
0.000111469
2.14147e-05
0.000114386
1.44516e-05
0.00011866
5.78417e-06
0.000123833
-5.2947e-06
-1.75315e-05
0.000127444
-9.80655e-06
4.38599e-05
-2.54972e-05
6.5153e-05
-4.33448e-05
5.98317e-05
-5.75046e-05
6.71998e-05
-5.77883e-05
8.8983e-05
-3.75229e-05
0.000119274
-3.33399e-06
0.000145189
3.40333e-05
0.000156189
6.65861e-05
0.000151752
8.99592e-05
0.000137024
0.000103604
0.000117609
0.000109458
9.78586e-05
0.000110352
8.01794e-05
0.000108768
6.53512e-05
0.000106421
5.3244e-05
0.000104363
4.33362e-05
0.000103172
3.49856e-05
0.000103137
2.7488e-05
0.000104282
2.02695e-05
0.000106117
1.2617e-05
0.000108084
3.81753e-06
0.000109306
-6.51668e-06
-1.76829e-05
0.000109457
-7.08093e-06
5.09408e-05
-1.65993e-05
7.46712e-05
-2.66076e-05
6.98399e-05
-3.39139e-05
7.4506e-05
-3.35605e-05
8.86295e-05
-2.09988e-05
0.000106712
1.94272e-06
0.000122248
2.88347e-05
0.000129297
5.34322e-05
0.000127155
7.24249e-05
0.000118032
8.50349e-05
0.000104999
9.21755e-05
9.0718e-05
9.5442e-05
7.69129e-05
9.63772e-05
6.4416e-05
9.61797e-05
5.34415e-05
9.56781e-05
4.38378e-05
9.53856e-05
3.52782e-05
9.55545e-05
2.73193e-05
9.6272e-05
1.95522e-05
9.73197e-05
1.15694e-05
9.818e-05
2.95726e-06
9.82162e-05
-6.55288e-06
-1.66465e-05
9.71798e-05
-4.94667e-06
5.58874e-05
-1.00746e-05
7.9799e-05
-1.47899e-05
7.4555e-05
-1.70588e-05
7.67748e-05
-1.4557e-05
8.61276e-05
-5.30481e-06
9.74596e-05
1.01805e-05
0.000106762
2.85402e-05
0.000110938
4.61764e-05
0.000109519
6.07948e-05
0.000103413
7.15561e-05
9.42375e-05
7.86927e-05
8.35814e-05
8.29685e-05
7.2637e-05
8.52667e-05
6.21178e-05
8.63702e-05
5.23381e-05
8.68794e-05
4.33287e-05
8.7204e-05
3.49538e-05
8.75565e-05
2.69669e-05
8.80066e-05
1.91023e-05
8.8463e-05
1.1113e-05
8.86455e-05
2.7748e-06
8.82082e-05
-6.11561e-06
-1.52773e-05
8.6839e-05
-3.2472e-06
5.91345e-05
-5.52443e-06
8.20762e-05
-7.22635e-06
7.62568e-05
-6.97179e-06
7.65201e-05
-3.50371e-06
8.26595e-05
3.92122e-06
9.00346e-05
1.50695e-05
9.5614e-05
2.8099e-05
9.79083e-05
4.10247e-05
9.65929e-05
5.23565e-05
9.20816e-05
6.13663e-05
8.52276e-05
6.7975e-05
7.69728e-05
7.25002e-05
6.81119e-05
7.54231e-05
5.9195e-05
7.7232e-05
5.05293e-05
7.83379e-05
4.22229e-05
7.90436e-05
3.42483e-05
7.95226e-05
2.64879e-05
7.98354e-05
1.87895e-05
7.99464e-05
1.10021e-05
7.97215e-05
2.99965e-06
7.89349e-05
-5.32895e-06
-1.37648e-05
7.74225e-05
-1.874e-06
6.10085e-05
-2.28072e-06
8.24829e-05
-2.17334e-06
7.61492e-05
-8.09385e-07
7.51561e-05
2.75777e-06
7.90922e-05
8.95503e-06
8.38372e-05
1.74231e-05
8.71458e-05
2.71491e-05
8.81824e-05
3.6961e-05
8.6781e-05
4.58963e-05
8.31463e-05
5.33922e-05
7.77318e-05
5.92733e-05
7.10917e-05
6.36389e-05
6.37463e-05
6.67344e-05
5.60996e-05
6.88505e-05
4.84133e-05
7.02559e-05
4.08177e-05
7.11625e-05
3.33417e-05
7.17057e-05
2.59447e-05
7.1943e-05
1.85522e-05
7.1864e-05
1.10811e-05
7.13963e-05
3.46737e-06
7.0428e-05
-4.36051e-06
-1.21902e-05
6.88535e-05
-8.2864e-07
6.18371e-05
-3.19288e-11
8.16541e-05
1.10925e-06
7.50398e-05
3.09706e-06
7.31683e-05
6.54704e-06
7.56421e-05
1.17304e-05
7.86536e-05
1.83992e-05
8.0477e-05
2.59245e-05
8.06571e-05
3.35727e-05
7.91329e-05
4.07137e-05
7.60053e-05
4.69339e-05
7.15117e-05
5.20479e-05
6.59778e-05
5.60519e-05
5.97424e-05
5.90566e-05
5.3095e-05
6.12251e-05
4.62449e-05
6.27255e-05
3.93174e-05
6.37002e-05
3.2367e-05
6.42491e-05
2.53958e-05
6.44237e-05
1.83777e-05
6.42296e-05
1.12752e-05
6.36349e-05
4.06222e-06
6.25769e-05
-3.30239e-06
-1.0646e-05
6.1033e-05
-5.99958e-08
6.1897e-05
1.55519e-06
8.00387e-05
3.32503e-06
7.32698e-05
5.56841e-06
7.09247e-05
8.7822e-06
7.24281e-05
1.3172e-05
7.42637e-05
1.85581e-05
7.50909e-05
2.45276e-05
7.46875e-05
3.06063e-05
7.30542e-05
3.63756e-05
7.02361e-05
4.15349e-05
6.63524e-05
4.5918e-05
6.15948e-05
4.94765e-05
5.6184e-05
5.22465e-05
5.0325e-05
5.4312e-05
4.41794e-05
5.57727e-05
3.78567e-05
5.67208e-05
3.14189e-05
5.72267e-05
2.48898e-05
5.73335e-05
1.82709e-05
5.70571e-05
1.15518e-05
5.63916e-05
4.72784e-06
5.53301e-05
-2.24065e-06
-9.18022e-06
5.38646e-05
4.6673e-07
6.14302e-05
2.55713e-06
7.79481e-05
4.69389e-06
7.11329e-05
7.01751e-06
6.86009e-05
9.97613e-06
6.94694e-05
1.37408e-05
7.0499e-05
1.81787e-05
7.06529e-05
2.30083e-05
6.9858e-05
2.7916e-05
6.81465e-05
3.26194e-05
6.55328e-05
3.69002e-05
6.20717e-05
4.06192e-05
5.78758e-05
4.37132e-05
5.30901e-05
4.61793e-05
4.78589e-05
4.80541e-05
4.23046e-05
4.93925e-05
3.65183e-05
5.02517e-05
3.05597e-05
5.06803e-05
2.44613e-05
5.0714e-05
1.82373e-05
5.03748e-05
1.18912e-05
4.9675e-05
5.42781e-06
4.86317e-05
-1.1971e-06
-7.79202e-06
4.72437e-05
8.41687e-07
6.05884e-05
3.17816e-06
7.56115e-05
5.47101e-06
6.88399e-05
7.76678e-06
6.6305e-05
1.04731e-05
6.67631e-05
1.37344e-05
6.72377e-05
1.74481e-05
6.69393e-05
2.14161e-05
6.58899e-05
2.54272e-05
6.41354e-05
2.92879e-05
6.16722e-05
3.28396e-05
5.852e-05
3.59697e-05
5.47457e-05
3.86147e-05
5.04451e-05
4.07533e-05
4.57203e-05
4.23947e-05
4.06633e-05
4.35653e-05
3.53477e-05
4.42985e-05
2.98266e-05
4.46264e-05
2.41334e-05
4.45768e-05
1.8287e-05
4.41718e-05
1.22964e-05
4.34275e-05
6.17223e-06