/*--------------------------------*- C++ -*----------------------------------*\
| =========                 |                                                 |
| \\      /  F ield         | OpenFOAM: The Open Source CFD Toolbox           |
|  \\    /   O peration     | Version:  2206                                  |
|   \\  /    A nd           | Website:  www.openfoam.com                      |
|    \\/     M anipulation  |                                                 |
\*---------------------------------------------------------------------------*/
FoamFile
{
    version     2.0;
    format      ascii;
    arch        "LSB;label=32;scalar=64";
    class       volVectorField;
    location    "0.95";
    object      U;
}
// * * * * * * * * * * * * * * * * * * * * * * * * * * * * * * * * * * * * * //

dimensions      [0 1 -1 0 0 0 0];

internalField   nonuniform List<vector> 
2268
(
(0.0142576 -0.0137859 0)
(0.0109719 0.00172008 0)
(-0.0519727 0.0187521 0)
(-0.128866 0.0190991 0)
(-0.16377 0.00779727 0)
(-0.163834 0.000344687 0)
(-0.164189 0.000211397 0)
(-0.171812 0.00106696 0)
(-0.180404 0.00102846 0)
(-0.185084 -0.00136272 0)
(-0.175217 -0.00851439 0)
(-0.147304 -0.0168369 0)
(-0.118294 -0.0160058 0)
(-0.116299 0.00200808 0)
(-0.1771 0.0263253 0)
(-0.259942 0.0232044 0)
(-0.260834 -0.00339863 0)
(-0.184729 -0.0219238 0)
(-0.115616 -0.0211115 0)
(-0.0584358 -0.0168036 0)
(-0.00777689 -0.0135864 0)
(0.0227487 -0.00751444 0)
(0.0183488 0.00134676 0)
(-0.0261889 0.00174785 0)
(-0.0869598 0.0323964 0)
(-0.158795 0.0484583 0)
(-0.196652 0.0331044 0)
(-0.186015 0.0078958 0)
(-0.173091 -3.84953e-05 0)
(-0.177291 0.00458725 0)
(-0.191949 0.00755337 0)
(-0.206486 0.00546218 0)
(-0.211194 -0.00124913 0)
(-0.208053 -0.0106182 0)
(-0.210083 -0.0134374 0)
(-0.228001 0.00180925 0)
(-0.253008 0.028603 0)
(-0.264713 0.0391083 0)
(-0.232445 0.0122626 0)
(-0.141137 -0.0328758 0)
(-0.0799921 -0.0519169 0)
(-0.0381959 -0.0454769 0)
(0.00296482 -0.0361757 0)
(0.0488177 -0.0271168 0)
(0.0668474 -0.00341797 0)
(0.036197 0.0191115 0)
(-0.0485447 0.0385016 0)
(-0.132909 0.0656555 0)
(-0.19268 0.0677623 0)
(-0.20776 0.034603 0)
(-0.197927 0.000438452 0)
(-0.185754 -0.00402593 0)
(-0.181917 0.00770581 0)
(-0.189016 0.0135757 0)
(-0.195282 0.00912301 0)
(-0.192427 -0.000592728 0)
(-0.183563 -0.00893306 0)
(-0.177382 -0.00852888 0)
(-0.17718 0.00519149 0)
(-0.177346 0.0209129 0)
(-0.151972 0.0140007 0)
(-0.0882848 -0.0248033 0)
(-0.0420531 -0.0621044 0)
(-0.026965 -0.0688917 0)
(-0.0106634 -0.0605772 0)
(0.0178427 -0.0551649 0)
(0.0607447 -0.0458717 0)
(0.0867358 0.0010388 0)
(0.0577914 0.0488671 0)
(-0.0523955 0.0806959 0)
(-0.135558 0.0985209 0)
(-0.190598 0.0849455 0)
(-0.20949 0.0383872 0)
(-0.205472 -0.00425483 0)
(-0.195046 -0.0098151 0)
(-0.193775 0.00725444 0)
(-0.199572 0.0155096 0)
(-0.203602 0.00802097 0)
(-0.196454 -0.00668161 0)
(-0.176115 -0.0180772 0)
(-0.14623 -0.016635 0)
(-0.111679 -0.00113953 0)
(-0.0764869 0.0107882 0)
(-0.0399853 0.000114326 0)
(-0.0132775 -0.0325078 0)
(-0.0127149 -0.0609886 0)
(-0.0212042 -0.068568 0)
(-0.0132654 -0.0675258 0)
(0.0101512 -0.0697413 0)
(0.0407124 -0.0629497 0)
(0.0658831 0.00166154 0)
(0.0666213 0.0820314 0)
(-0.045441 0.120807 0)
(-0.117544 0.129981 0)
(-0.172885 0.103831 0)
(-0.196612 0.0456205 0)
(-0.19483 -0.00664204 0)
(-0.195383 -0.0117131 0)
(-0.205105 0.0104226 0)
(-0.216298 0.0196307 0)
(-0.22348 0.00799017 0)
(-0.216438 -0.0143398 0)
(-0.189717 -0.0343514 0)
(-0.146699 -0.0385343 0)
(-0.0971325 -0.0254338 0)
(-0.0518147 -0.0113571 0)
(-0.0206444 -0.014363 0)
(-0.0127408 -0.0361393 0)
(-0.0229135 -0.0589054 0)
(-0.0255515 -0.0709665 0)
(-0.00988784 -0.0766588 0)
(0.0103463 -0.0799714 0)
(0.0212094 -0.0715475 0)
(0.0211638 -0.0053616 0)
(0.0677219 0.107348 0)
(-0.033096 0.154337 0)
(-0.0891975 0.158421 0)
(-0.142105 0.123128 0)
(-0.165429 0.0533504 0)
(-0.167466 -0.00874327 0)
(-0.18576 -0.00900058 0)
(-0.213714 0.0181223 0)
(-0.234178 0.0262568 0)
(-0.246366 0.00866099 0)
(-0.239619 -0.0236239 0)
(-0.206275 -0.0534184 0)
(-0.150582 -0.0611606 0)
(-0.0915735 -0.0458948 0)
(-0.0473861 -0.0253712 0)
(-0.0241218 -0.0192251 0)
(-0.0200437 -0.0336813 0)
(-0.0225509 -0.0581642 0)
(-0.013585 -0.0779329 0)
(0.00778468 -0.0869466 0)
(0.0253291 -0.0847886 0)
(0.0269014 -0.0686453 0)
(-0.00459217 -0.0182738 0)
(0.0679563 0.129825 0)
(-0.0171058 0.174938 0)
(-0.0541397 0.181288 0)
(-0.10313 0.141491 0)
(-0.12366 0.0671762 0)
(-0.118835 0.00494401 0)
(-0.162228 0.00655415 0)
(-0.219837 0.0359509 0)
(-0.253326 0.0385561 0)
(-0.27244 0.0115776 0)
(-0.263423 -0.0333149 0)
(-0.211787 -0.0762606 0)
(-0.129702 -0.0933131 0)
(-0.0550429 -0.0738312 0)
(-0.00970609 -0.041292 0)
(0.00611112 -0.0235644 0)
(0.00319877 -0.0323561 0)
(-0.000660226 -0.060651 0)
(0.00862721 -0.087911 0)
(0.0311799 -0.0992993 0)
(0.0569735 -0.0894092 0)
(0.0710358 -0.059264 0)
(0.0339288 -0.022728 0)
(0.0486852 0.138099 0)
(0.00034171 0.192115 0)
(-0.0160649 0.20151 0)
(-0.0574085 0.156661 0)
(-0.0578923 0.0662743 0)
(-0.0330989 0.00217155 0)
(-0.128469 0.0331402 0)
(-0.222666 0.0608871 0)
(-0.271329 0.0517756 0)
(-0.295839 0.0140817 0)
(-0.274754 -0.05103 0)
(-0.199189 -0.126737 0)
(-0.10768 -0.146566 0)
(-0.0343683 -0.108511 0)
(0.00905185 -0.0592934 0)
(0.0231701 -0.0282716 0)
(0.0167546 -0.0302497 0)
(0.00777129 -0.0599731 0)
(0.0164004 -0.0916167 0)
(0.0493615 -0.10689 0)
(0.0981173 -0.0957148 0)
(0.132587 -0.0515671 0)
(0.119872 0.00900763 0)
(-0.000438265 0.172098 0)
(0.00577465 -0.0497436 0)
(0.181347 -0.0637292 0)
(0.349951 -0.0527511 0)
(0.461567 -0.0182969 0)
(0.469905 0.0244101 0)
(0.368419 0.0553901 0)
(0.152864 0.0608638 0)
(-0.0416612 0.0396922 0)
(-0.164408 0.019285 0)
(-0.247815 -0.0420458 0)
(-0.147874 -0.0783536 0)
(-0.0157267 -0.112743 0)
(0.187181 -0.0500338 0)
(-0.270219 0.103781 0)
(-0.824115 0.0607745 0)
(-0.862604 -0.0407868 0)
(-0.613831 -0.0966081 0)
(-0.311501 -0.117164 0)
(-0.0924405 -0.0630383 0)
(-0.0999739 -0.0592666 0)
(0.131899 -0.112566 0)
(0.320323 -0.0977997 0)
(0.474748 -0.0270652 0)
(0.597064 0.0456017 0)
(0.645281 0.119121 0)
(0.496335 0.167814 0)
(0.269475 0.12424 0)
(0.123419 0.0862674 0)
(-0.0465464 0.0434665 0)
(-0.104573 -0.0845965 0)
(-0.120805 -0.0981523 0)
(-0.152898 0.162711 0)
(-0.661005 0.3277 0)
(-0.994732 0.211198 0)
(-0.716868 -0.0394522 0)
(-0.467667 -0.231781 0)
(-0.118044 -0.266726 0)
(-0.0746267 -0.128901 0)
(-0.108696 -0.0581904 0)
(0.202378 -0.272192 0)
(0.397405 -0.257774 0)
(0.54034 -0.165078 0)
(0.68519 -0.0628094 0)
(0.794237 0.101666 0)
(0.738906 0.252609 0)
(0.537402 0.225722 0)
(0.410194 0.159911 0)
(0.237754 0.124095 0)
(0.0416567 0.00476082 0)
(-0.17951 -0.0237066 0)
(-0.374051 0.318924 0)
(-0.691203 0.469005 0)
(-0.692536 0.183417 0)
(-0.418178 -0.206757 0)
(-0.155818 -0.392386 0)
(0.0696612 -0.356354 0)
(0.0289262 -0.120878 0)
(0.0139972 -0.11088 0)
(0.301669 -0.388613 0)
(0.493144 -0.352436 0)
(0.55201 -0.23111 0)
(0.595932 -0.136201 0)
(0.671424 0.0435449 0)
(0.690572 0.275775 0)
(0.62119 0.277212 0)
(0.549871 0.214348 0)
(0.451225 0.222436 0)
(0.222466 0.148809 0)
(-0.0627465 0.0904811 0)
(-0.31227 0.381653 0)
(-0.4159 0.503487 0)
(-0.267362 0.124753 0)
(-0.0164533 -0.310283 0)
(0.19119 -0.496463 0)
(0.169534 -0.375477 0)
(0.0966872 -0.0628365 0)
(0.123362 -0.210868 0)
(0.402497 -0.517924 0)
(0.66137 -0.382474 0)
(0.662552 -0.133793 0)
(0.38071 -0.0691166 0)
(0.312199 0.0843829 0)
(0.38294 0.311783 0)
(0.51855 0.272861 0)
(0.520302 0.235694 0)
(0.506592 0.289596 0)
(0.32727 0.27024 0)
(0.101734 0.19692 0)
(-0.0195696 0.410219 0)
(-0.0533371 0.479579 0)
(0.179949 0.0132036 0)
(0.3286 -0.383943 0)
(0.356833 -0.512607 0)
(0.182376 -0.335774 0)
(0.106659 0.0124621 0)
(0.236821 -0.381875 0)
(0.431249 -0.678782 0)
(0.576776 -0.387964 0)
(0.468958 -0.0712495 0)
(0.146086 0.0287687 0)
(-0.393275 0.155162 0)
(0.013087 0.232163 0)
(0.276212 0.187009 0)
(0.361261 0.216628 0)
(0.446749 0.32683 0)
(0.391841 0.363084 0)
(0.249138 0.28102 0)
(0.250182 0.399064 0)
(0.277904 0.412048 0)
(0.483765 0.018763 0)
(0.532653 -0.372074 0)
(0.346673 -0.442507 0)
(0.099152 -0.260886 0)
(0.0915556 0.0775539 0)
(0.488195 -0.663865 0)
(0.30353 -0.769223 0)
(0.250202 -0.332289 0)
(0.0426701 0.0636661 0)
(-0.447332 0.246689 0)
(-0.480346 0.12416 0)
(-0.0843557 0.0427229 0)
(0.0521411 0.0464558 0)
(0.191607 0.149198 0)
(0.327071 0.299664 0)
(0.388428 0.385407 0)
(0.339737 0.325569 0)
(0.323883 0.357513 0)
(0.433642 0.32996 0)
(0.587844 -0.0626017 0)
(0.521033 -0.321088 0)
(0.209025 -0.316097 0)
(-0.0148863 -0.182631 0)
(0.0698029 0.112691 0)
(0.534304 -0.745812 0)
(0.0834688 -0.662311 0)
(-0.145022 -0.126209 0)
(-0.47305 0.267844 0)
(-0.634571 0.28012 0)
(-0.357706 -0.0285482 0)
(-0.157906 -0.0679657 0)
(-0.0937254 0.0297227 0)
(0.0561082 0.112808 0)
(0.193725 0.241457 0)
(0.329608 0.349327 0)
(0.378137 0.33963 0)
(0.340267 0.334473 0)
(0.430902 0.271099 0)
(0.522593 0.0276541 0)
(0.367453 -0.173293 0)
(-0.0220107 -0.186302 0)
(-0.124015 -0.14077 0)
(0.0637559 0.115849 0)
(0.0363631 0.152741 0)
(0.0512203 0.19645 0)
(0.0215659 0.165172 0)
(0.0253 0.0825764 0)
(-0.0312437 0.068535 0)
(-0.139164 0.126056 0)
(-0.223824 0.132964 0)
(-0.278527 0.095867 0)
(-0.308655 0.00834195 0)
(-0.306843 -0.117472 0)
(-0.279078 -0.193565 0)
(-0.231007 -0.189944 0)
(-0.170973 -0.138388 0)
(-0.13181 -0.0785528 0)
(-0.111293 -0.0386344 0)
(-0.103368 -0.0314895 0)
(-0.0950576 -0.0579937 0)
(-0.0628948 -0.0996052 0)
(-0.00310637 -0.140458 0)
(0.0733076 -0.14587 0)
(0.1403 -0.0838665 0)
(0.194478 0.0375396 0)
(0.17177 0.175193 0)
(0.0898655 0.145284 0)
(0.158942 0.275881 0)
(0.137024 0.220816 0)
(0.0806079 0.109142 0)
(-0.0279318 0.134008 0)
(-0.108256 0.203449 0)
(-0.199554 0.186559 0)
(-0.315694 0.135331 0)
(-0.453883 0.0818414 0)
(-0.572475 -0.00892971 0)
(-0.618583 -0.140108 0)
(-0.585534 -0.217852 0)
(-0.531574 -0.160709 0)
(-0.514077 -0.0785352 0)
(-0.489308 -0.0234084 0)
(-0.453389 -0.0251025 0)
(-0.405727 -0.0954045 0)
(-0.354614 -0.180866 0)
(-0.307607 -0.247325 0)
(-0.236952 -0.257341 0)
(-0.132115 -0.188092 0)
(-0.031185 -0.0328017 0)
(0.0689089 0.119697 0)
(0.0651165 -0.164369 0)
(0.229455 0.0967308 0)
(0.237766 0.222467 0)
(0.111721 0.250603 0)
(-0.119971 0.258267 0)
(-0.306677 0.298976 0)
(-0.568068 0.371559 0)
(-0.889507 0.409731 0)
(-1.12727 0.316225 0)
(-1.1786 0.00918216 0)
(-1.1118 -0.265133 0)
(-1.04221 -0.286346 0)
(-0.98895 -0.189262 0)
(-0.955272 -0.118707 0)
(-0.923029 -0.0925249 0)
(-0.901888 -0.129876 0)
(-0.902967 -0.199566 0)
(-0.932879 -0.24747 0)
(-0.946334 -0.28281 0)
(-0.882561 -0.308578 0)
(-0.762142 -0.275395 0)
(-0.624187 -0.163563 0)
(-0.51963 0.00146529 0)
(-0.0831051 -0.259246 0)
(0.0453792 0.137828 0)
(-0.0508192 0.310746 0)
(-0.155519 0.386086 0)
(-0.463015 0.478484 0)
(-0.84378 0.622991 0)
(-1.18692 0.66589 0)
(-1.44654 0.542905 0)
(-1.57203 0.233996 0)
(-1.54225 -0.143572 0)
(-1.457 -0.36432 0)
(-1.35299 -0.365781 0)
(-1.26659 -0.257573 0)
(-1.2245 -0.159119 0)
(-1.26074 -0.100586 0)
(-1.3633 -0.0844148 0)
(-1.47593 -0.0857637 0)
(-1.52706 -0.138792 0)
(-1.46573 -0.300335 0)
(-1.3451 -0.444186 0)
(-1.22954 -0.354082 0)
(-1.12187 -0.0843303 0)
(-1.04591 0.161515 0)
(-0.242821 -0.0280923 0)
(-0.366506 0.275185 0)
(-0.540189 0.475154 0)
(-0.687188 0.675416 0)
(-0.986463 0.932597 0)
(-1.31422 1.02423 0)
(-1.55571 0.922007 0)
(-1.67779 0.711544 0)
(-1.67772 0.364109 0)
(-1.64385 -0.133811 0)
(-1.58603 -0.467602 0)
(-1.50898 -0.450312 0)
(-1.43006 -0.284014 0)
(-1.38622 -0.102364 0)
(-1.39727 0.0768829 0)
(-1.43638 0.0888955 0)
(-1.38439 -0.0263435 0)
(-1.2357 -0.238227 0)
(-1.04467 -0.473441 0)
(-0.868579 -0.611708 0)
(-0.709986 -0.580945 0)
(-0.694873 -0.359454 0)
(-0.821689 -0.0960938 0)
(-0.258539 0.255598 0)
(-0.546257 0.48832 0)
(-0.926618 0.669091 0)
(-1.21826 0.972767 0)
(-1.20675 1.20004 0)
(-1.21073 1.30161 0)
(-1.5414 1.10053 0)
(-1.58518 0.721059 0)
(-1.53862 0.361376 0)
(-1.59908 -0.124651 0)
(-1.66928 -0.48376 0)
(-1.62768 -0.511093 0)
(-1.53508 -0.399024 0)
(-1.42596 -0.211607 0)
(-1.28909 -0.0209538 0)
(-1.13507 -0.0638668 0)
(-0.964621 -0.216108 0)
(-0.781948 -0.443569 0)
(-0.658808 -0.617967 0)
(-0.606634 -0.679039 0)
(-0.480198 -0.620369 0)
(-0.284207 -0.360394 0)
(-0.0739438 0.162277 0)
(-0.260105 0.519328 0)
(-0.3059 0.905842 0)
(-1.08796 1.09778 0)
(-1.29423 0.859021 0)
(-1.18557 0.830653 0)
(-0.994168 1.13805 0)
(-1.03533 1.44183 0)
(-1.20345 0.878606 0)
(-1.24324 0.562276 0)
(-1.44889 0.0597405 0)
(-1.63611 -0.3979 0)
(-1.69415 -0.562715 0)
(-1.50066 -0.486254 0)
(-1.31034 -0.391996 0)
(-1.12377 -0.276012 0)
(-0.894219 -0.286552 0)
(-0.667474 -0.432289 0)
(-0.593941 -0.566032 0)
(-0.514686 -0.673183 0)
(-0.435152 -0.731044 0)
(-0.378191 -0.761281 0)
(-0.324943 -0.651603 0)
(-0.218926 -0.268312 0)
(-0.308863 0.708109 0)
(-0.173322 1.54192 0)
(-0.994442 1.64143 0)
(-1.0509 0.986691 0)
(-1.11449 0.755777 0)
(-1.02384 0.973571 0)
(-0.796068 1.34789 0)
(-0.750424 1.15083 0)
(-0.953817 0.662348 0)
(-1.2036 0.138181 0)
(-1.44951 -0.282715 0)
(-1.56799 -0.570592 0)
(-1.46995 -0.668967 0)
(-1.32494 -0.612841 0)
(-1.10757 -0.48844 0)
(-0.918556 -0.45627 0)
(-0.766521 -0.502041 0)
(-0.621949 -0.622558 0)
(-0.44814 -0.75231 0)
(-0.262939 -0.800486 0)
(-0.129332 -0.759164 0)
(-0.384176 -0.507258 0)
(-0.500999 -0.28425 0)
(-0.380623 0.844881 0)
(-0.0583444 2.11032 0)
(-0.849349 2.0341 0)
(-0.723486 1.2287 0)
(-0.869943 0.824725 0)
(-0.93808 0.935178 0)
(-0.882293 1.11475 0)
(-0.700632 1.15624 0)
(-0.784589 0.81947 0)
(-0.965147 0.357768 0)
(-1.17005 -0.0732678 0)
(-1.38472 -0.443064 0)
(-1.53879 -0.75009 0)
(-1.53004 -0.788283 0)
(-1.36154 -0.69369 0)
(-1.15574 -0.642346 0)
(-0.945862 -0.699338 0)
(-0.729933 -0.867688 0)
(-0.52506 -1.12611 0)
(-0.22996 -1.1579 0)
(0.230151 -0.58348 0)
(-0.493041 -0.13882 0)
(-0.353628 -0.305635 0)
(-0.463529 0.957987 0)
(0.0898721 2.44857 0)
(-0.672308 2.12044 0)
(-0.418032 1.29954 0)
(-0.642589 0.887132 0)
(-0.735247 0.90501 0)
(-0.771465 1.0349 0)
(-0.710971 1.07687 0)
(-0.669776 0.894176 0)
(-0.738267 0.523128 0)
(-0.868943 0.150052 0)
(-1.08003 -0.178938 0)
(-1.32609 -0.509703 0)
(-1.52738 -0.760338 0)
(-1.63646 -0.881395 0)
(-1.62714 -0.920034 0)
(-1.36438 -1.01506 0)
(-0.892644 -1.21686 0)
(-0.725924 -1.37857 0)
(-0.632311 -1.32808 0)
(-0.289528 -0.632351 0)
(-0.0759139 -0.0515468 0)
(-0.070409 -0.489598 0)
(-0.544326 1.06206 0)
(0.18646 2.60678 0)
(-0.493847 2.10721 0)
(-0.11625 1.35211 0)
(-0.426646 0.993566 0)
(-0.506362 1.00811 0)
(-0.5754 1.04316 0)
(-0.557356 1.03334 0)
(-0.498624 0.878219 0)
(-0.481224 0.57928 0)
(-0.527814 0.267092 0)
(-0.629228 -0.0142231 0)
(-0.756288 -0.294263 0)
(-0.888161 -0.551601 0)
(-0.998522 -0.772531 0)
(-1.02404 -0.952362 0)
(-0.873648 -1.1495 0)
(-0.7075 -1.40745 0)
(-0.708394 -1.46107 0)
(-0.711779 -1.39358 0)
(-0.583038 -1.03955 0)
(-0.145187 -0.30724 0)
(0.0120022 -0.619511 0)
(-0.628175 1.21323 0)
(0.240579 2.62827 0)
(-0.360671 2.07412 0)
(0.139174 1.43526 0)
(-0.281467 1.11078 0)
(-0.286841 1.12844 0)
(-0.382009 1.08867 0)
(-0.358501 1.00605 0)
(-0.291423 0.826921 0)
(-0.22674 0.569526 0)
(-0.202388 0.305967 0)
(-0.210112 0.0549286 0)
(-0.236805 -0.200672 0)
(-0.283458 -0.443008 0)
(-0.37378 -0.68672 0)
(-0.504263 -0.928496 0)
(-0.600093 -1.20423 0)
(-0.642137 -1.43019 0)
(-0.683982 -1.47437 0)
(-0.73931 -1.40302 0)
(-0.762563 -1.18796 0)
(-0.719965 -0.637091 0)
(-0.549759 -0.792644 0)
(-0.703312 1.37883 0)
(0.308148 2.56893 0)
(-0.351599 1.97359 0)
(0.29649 1.49219 0)
(-0.227683 1.23682 0)
(-0.138281 1.21818 0)
(-0.251131 1.11644 0)
(-0.219902 0.972159 0)
(-0.152762 0.762239 0)
(-0.0753837 0.517881 0)
(-0.0166821 0.279028 0)
(0.0223524 0.0490466 0)
(0.032702 -0.168284 0)
(-0.00381342 -0.365481 0)
(-0.0883765 -0.548419 0)
(-0.218423 -0.73416 0)
(-0.408638 -1.01446 0)
(-0.585746 -1.35812 0)
(-0.664672 -1.41764 0)
(-0.734895 -1.30156 0)
(-0.851741 -1.04185 0)
(-1.10907 -0.543045 0)
(-1.23223 -0.685196 0)
(-0.749074 1.50294 0)
(0.491299 2.51263 0)
(-0.464499 1.86038 0)
(0.336087 1.49507 0)
(-0.240163 1.36471 0)
(-0.110426 1.28752 0)
(-0.241644 1.14045 0)
(-0.224529 0.939665 0)
(-0.184058 0.693696 0)
(-0.122011 0.441267 0)
(-0.0612507 0.20736 0)
(-0.00476785 -0.00297645 0)
(0.0257011 -0.18424 0)
(0.0268858 -0.335548 0)
(-0.0160412 -0.46368 0)
(-0.098564 -0.587763 0)
(-0.259888 -0.806999 0)
(-0.531973 -1.20008 0)
(-0.662348 -1.33288 0)
(-0.70848 -1.18704 0)
(-0.853436 -0.790447 0)
(-1.28317 -0.238549 0)
(-1.65376 -0.457473 0)
(-0.754686 1.5596 0)
(0.622468 2.54448 0)
(-0.513016 1.81935 0)
(0.248644 1.48994 0)
(-0.284038 1.48151 0)
(-0.222068 1.3662 0)
(-0.393326 1.19318 0)
(-0.433488 0.949075 0)
(-0.432808 0.66281 0)
(-0.377295 0.381494 0)
(-0.29915 0.137708 0)
(-0.219399 -0.0651757 0)
(-0.150258 -0.23387 0)
(-0.112061 -0.36358 0)
(-0.107942 -0.451417 0)
(-0.141858 -0.51861 0)
(-0.231723 -0.641171 0)
(-0.452726 -0.977394 0)
(-0.647052 -1.23945 0)
(-0.705828 -1.07476 0)
(-0.863516 -0.529956 0)
(-1.41833 0.183766 0)
(-1.73338 -0.205186 0)
(-0.727887 1.53488 0)
(0.560351 2.61061 0)
(-0.346902 1.86894 0)
(0.099869 1.548 0)
(-0.371164 1.6243 0)
(-0.464335 1.52256 0)
(-0.715176 1.32154 0)
(-0.832617 0.994683 0)
(-0.851864 0.622892 0)
(-0.75589 0.288876 0)
(-0.597113 0.0240472 0)
(-0.429185 -0.164904 0)
(-0.299317 -0.301887 0)
(-0.226305 -0.398012 0)
(-0.199163 -0.452968 0)
(-0.20719 -0.47439 0)
(-0.26019 -0.52218 0)
(-0.42337 -0.775985 0)
(-0.655231 -1.08588 0)
(-0.801897 -0.878356 0)
(-0.924852 -0.159507 0)
(-1.30482 0.512604 0)
(-1.41139 -0.0162283 0)
(-0.66263 1.45526 0)
(0.598865 2.58239 0)
(-0.159658 1.97727 0)
(0.0102802 1.71951 0)
(-0.472506 1.86084 0)
(-0.718219 1.78296 0)
(-1.03539 1.53093 0)
(-1.20322 1.10729 0)
(-1.22459 0.579125 0)
(-1.08601 0.0764478 0)
(-0.86326 -0.238804 0)
(-0.59952 -0.385533 0)
(-0.391307 -0.433746 0)
(-0.271584 -0.457278 0)
(-0.229359 -0.463717 0)
(-0.234872 -0.442603 0)
(-0.28004 -0.423549 0)
(-0.433198 -0.59231 0)
(-0.682453 -0.904139 0)
(-0.804279 -0.740521 0)
(-0.822678 0.0748733 0)
(-0.89767 0.567659 0)
(-0.907993 0.121564 0)
(-0.34684 1.37115 0)
(0.540817 2.46358 0)
(0.147608 2.18152 0)
(0.036888 2.00329 0)
(-0.441731 2.19174 0)
(-0.754133 2.0927 0)
(-1.05429 1.72225 0)
(-1.17581 1.10876 0)
(-1.15809 0.397629 0)
(-1.07861 -0.155781 0)
(-0.916011 -0.529845 0)
(-0.651311 -0.680704 0)
(-0.400059 -0.634316 0)
(-0.246946 -0.549317 0)
(-0.189375 -0.479601 0)
(-0.197345 -0.408427 0)
(-0.243119 -0.325624 0)
(-0.381201 -0.389249 0)
(-0.645072 -0.706031 0)
(-0.736789 -0.702418 0)
(-0.610856 -0.0819891 0)
(-0.48487 0.476269 0)
(-0.472347 0.188017 0)
(0.00250326 1.20944 0)
(0.573676 2.29517 0)
(0.465523 2.39506 0)
(0.252539 2.32545 0)
(-0.146329 2.53473 0)
(-0.444192 2.38244 0)
(-0.664662 1.91208 0)
(-0.764952 1.2227 0)
(-0.764355 0.458864 0)
(-0.66116 -0.253534 0)
(-0.558861 -0.744837 0)
(-0.468469 -0.913178 0)
(-0.270106 -0.834601 0)
(-0.134711 -0.652089 0)
(-0.0827541 -0.497422 0)
(-0.0968723 -0.372923 0)
(-0.146157 -0.240697 0)
(-0.253094 -0.201345 0)
(-0.526437 -0.531801 0)
(-0.643765 -0.68296 0)
(-0.574746 -0.349287 0)
(-0.275473 0.271531 0)
(-0.172646 0.230467 0)
(0.105191 0.792687 0)
(0.641244 2.02284 0)
(0.804348 2.53818 0)
(0.69792 2.63018 0)
(0.44461 2.79645 0)
(0.191607 2.62917 0)
(0.0281123 2.11247 0)
(-0.0834664 1.3547 0)
(-0.103772 0.45867 0)
(-0.0208951 -0.31829 0)
(0.039437 -0.786179 0)
(-0.0119152 -0.993329 0)
(0.0115539 -0.938301 0)
(0.0670072 -0.719117 0)
(0.0796035 -0.501925 0)
(0.0522125 -0.332457 0)
(-0.00615399 -0.180249 0)
(-0.0490858 -0.0277233 0)
(-0.331884 -0.291905 0)
(-0.556291 -0.576308 0)
(-0.595261 -0.489218 0)
(-0.37038 -0.0368393 0)
(-0.143376 0.142049 0)
(-0.00252411 0.460537 0)
(0.564946 1.56787 0)
(1.05004 2.37812 0)
(1.25284 2.76615 0)
(1.23836 2.96451 0)
(1.10117 2.82225 0)
(0.960583 2.30068 0)
(0.847104 1.50645 0)
(0.778637 0.535357 0)
(0.759017 -0.300722 0)
(0.708003 -0.758339 0)
(0.5423 -0.933251 0)
(0.398404 -0.898994 0)
(0.332143 -0.697624 0)
(0.278532 -0.467271 0)
(0.22177 -0.278838 0)
(0.16172 -0.121187 0)
(0.121055 0.0582855 0)
(-0.00998296 0.0453743 0)
(-0.373546 -0.376968 0)
(-0.535498 -0.486993 0)
(-0.496634 -0.260754 0)
(-0.279472 0.100914 0)
(0.00475947 0.290682 0)
(0.351895 0.916741 0)
(1.0251 1.80704 0)
(1.58833 2.50528 0)
(1.92279 2.90641 0)
(2.03855 2.89739 0)
(2.01753 2.4482 0)
(1.94104 1.67671 0)
(1.83736 0.721424 0)
(1.63533 -0.134033 0)
(1.36628 -0.584942 0)
(1.05463 -0.741857 0)
(0.786735 -0.729705 0)
(0.604161 -0.574081 0)
(0.479116 -0.377446 0)
(0.38877 -0.205803 0)
(0.323313 -0.0599818 0)
(0.269349 0.092788 0)
(0.270527 0.24133 0)
(-0.0347913 -0.0437245 0)
(-0.341421 -0.357935 0)
(-0.430796 -0.34218 0)
(-0.294616 -0.0445791 0)
(0.055296 0.162635 0)
(0.224752 0.406479 0)
(0.783486 1.04688 0)
(1.50795 1.84635 0)
(2.13259 2.48027 0)
(2.5335 2.70515 0)
(2.70794 2.44111 0)
(2.71462 1.78319 0)
(2.57319 0.927204 0)
(2.25842 0.187508 0)
(1.82608 -0.22745 0)
(1.4073 -0.415162 0)
(1.06453 -0.459023 0)
(0.811684 -0.374218 0)
(0.640926 -0.24154 0)
(0.528881 -0.114693 0)
(0.459904 0.00122587 0)
(0.413605 0.113847 0)
(0.438662 0.276781 0)
(0.390454 0.294676 0)
(0.0564659 -0.0763785 0)
(-0.208225 -0.305821 0)
(-0.267148 -0.254016 0)
(0.0559842 0.0541479 0)
(0.159422 0.13584 0)
(0.472509 0.46062 0)
(1.08033 1.10741 0)
(1.78195 1.8342 0)
(2.33323 2.26042 0)
(2.66615 2.22707 0)
(2.77036 1.78318 0)
(2.63657 1.15272 0)
(2.30048 0.592712 0)
(1.87954 0.20338 0)
(1.49179 -0.0393482 0)
(1.16298 -0.152278 0)
(0.910072 -0.146944 0)
(0.736113 -0.0886491 0)
(0.623319 -0.0179541 0)
(0.556945 0.0569403 0)
(0.524818 0.130568 0)
(0.539607 0.229609 0)
(0.610491 0.3485 0)
(0.564173 0.270458 0)
(0.32432 0.000191656 0)
(0.0992413 -0.249758 0)
(0.0275915 -0.00514517 0)
(0.032748 -0.00247196 0)
(0.152701 0.127483 0)
(0.492283 0.579666 0)
(1.04535 1.24848 0)
(1.56597 1.76632 0)
(1.94768 1.92893 0)
(2.12742 1.73612 0)
(2.09929 1.33709 0)
(1.8962 0.905045 0)
(1.62198 0.539808 0)
(1.35574 0.26732 0)
(1.10708 0.111251 0)
(0.908496 0.0533523 0)
(0.764621 0.0485956 0)
(0.668974 0.0688946 0)
(0.612318 0.102927 0)
(0.591062 0.14209 0)
(0.600184 0.180603 0)
(0.674219 0.248943 0)
(0.773909 0.291007 0)
(0.786364 0.184127 0)
(0.729352 -0.0131756 0)
(0.00403501 0.0158633 0)
(-0.0805028 -0.00427475 0)
(-0.126456 -0.00128873 0)
(-0.0245196 0.296312 0)
(0.306402 0.875856 0)
(0.715448 1.38949 0)
(1.05933 1.6439 0)
(1.29087 1.61159 0)
(1.38403 1.37398 0)
(1.35518 1.04953 0)
(1.25926 0.726673 0)
(1.12103 0.464711 0)
(0.976925 0.293843 0)
(0.846995 0.198203 0)
(0.74546 0.15304 0)
(0.674284 0.137073 0)
(0.630796 0.137646 0)
(0.615672 0.146728 0)
(0.624004 0.150373 0)
(0.664596 0.151565 0)
(0.756735 0.158829 0)
(0.85286 0.120615 0)
(0.906704 0.00263873 0)
(-0.011528 0.08469 0)
(-0.130515 0.0915328 0)
(-0.266165 0.0399374 0)
(-0.336613 0.19078 0)
(-0.215251 0.602289 0)
(0.0568038 1.07817 0)
(0.350283 1.35805 0)
(0.610284 1.40734 0)
(0.796165 1.27193 0)
(0.898754 1.03535 0)
(0.921698 0.777347 0)
(0.893407 0.556506 0)
(0.831355 0.393849 0)
(0.760834 0.287755 0)
(0.698616 0.223088 0)
(0.65141 0.184806 0)
(0.621371 0.162145 0)
(0.610263 0.147766 0)
(0.617363 0.131783 0)
(0.637748 0.103734 0)
(0.681762 0.066998 0)
(0.748266 0.016174 0)
(0.810871 -0.064721 0)
(-0.0170628 0.154688 0)
(-0.123845 0.214877 0)
(-0.259098 0.162622 0)
(-0.387302 0.230997 0)
(-0.406058 0.470481 0)
(-0.261843 0.81738 0)
(-0.0289545 1.07671 0)
(0.221922 1.15792 0)
(0.435936 1.08668 0)
(0.592506 0.928005 0)
(0.682472 0.741933 0)
(0.711739 0.569733 0)
(0.700795 0.433359 0)
(0.671739 0.33414 0)
(0.639387 0.264129 0)
(0.612 0.214616 0)
(0.593698 0.178054 0)
(0.586413 0.148231 0)
(0.591345 0.119471 0)
(0.60431 0.0830611 0)
(0.623241 0.0349525 0)
(0.649276 -0.0250814 0)
(0.677809 -0.0972532 0)
(-0.0176766 0.213822 0)
(-0.0940645 0.317156 0)
(-0.187903 0.281214 0)
(-0.28463 0.323185 0)
(-0.334134 0.462961 0)
(-0.274681 0.668014 0)
(-0.115739 0.847778 0)
(0.0867296 0.922368 0)
(0.27937 0.893211 0)
(0.431215 0.795906 0)
(0.529089 0.669709 0)
(0.578216 0.545271 0)
(0.593272 0.438145 0)
(0.589182 0.35177 0)
(0.577229 0.283961 0)
(0.56457 0.230539 0)
(0.555458 0.18692 0)
(0.551865 0.148463 0)
(0.555082 0.111519 0)
(0.563856 0.0712818 0)
(0.574682 0.023354 0)
(0.58386 -0.0337978 0)
(0.589717 -0.0984338 0)
(-0.0164474 0.258274 0)
(-0.0645628 0.38338 0)
(-0.118238 0.355911 0)
(-0.168756 0.385707 0)
(-0.194014 0.476167 0)
(-0.160779 0.597232 0)
(-0.0577809 0.703993 0)
(0.0842249 0.754064 0)
(0.22655 0.740624 0)
(0.344951 0.680851 0)
(0.429029 0.597355 0)
(0.480296 0.50846 0)
(0.506389 0.425067 0)
(0.516164 0.35188 0)
(0.517095 0.289545 0)
(0.514517 0.236513 0)
(0.51203 0.190323 0)
(0.511522 0.147927 0)
(0.513927 0.106702 0)
(0.519115 0.0639664 0)
(0.525069 0.0168457 0)
(0.528156 -0.0366029 0)
(0.526698 -0.0944952 0)
(-0.0139626 0.289956 0)
(-0.0422185 0.420475 0)
(-0.0686559 0.392996 0)
(-0.089695 0.410058 0)
(-0.0915385 0.470732 0)
(-0.061249 0.546059 0)
(0.0087921 0.609455 0)
(0.104201 0.638933 0)
(0.203448 0.630798 0)
(0.291177 0.592227 0)
(0.359223 0.534804 0)
(0.406471 0.46937 0)
(0.436094 0.403701 0)
(0.452807 0.342114 0)
(0.461209 0.286215 0)
(0.465014 0.235826 0)
(0.466955 0.189806 0)
(0.468666 0.146372 0)
(0.470856 0.103713 0)
(0.47355 0.0601436 0)
(0.47585 0.0141145 0)
(0.47564 -0.0354168 0)
(0.471664 -0.0874538 0)
(-0.0106898 0.311561 0)
(-0.0257146 0.438863 0)
(-0.0353412 0.408553 0)
(-0.0411803 0.414118 0)
(-0.0322199 0.454304 0)
(-0.00295645 0.502873 0)
(0.0487548 0.541279 0)
(0.115716 0.558135 0)
(0.186973 0.551339 0)
(0.252955 0.523926 0)
(0.307723 0.482006 0)
(0.349334 0.43209 0)
(0.378692 0.379417 0)
(0.398124 0.327398 0)
(0.410342 0.277779 0)
(0.417803 0.23101 0)
(0.422445 0.186714 0)
(0.425553 0.143967 0)
(0.427737 0.101667 0)
(0.429042 0.0587602 0)
(0.429096 0.0144486 0)
(0.42669 -0.0317662 0)
(0.421133 -0.0793098 0)
(-0.00746777 0.324986 0)
(-0.0132205 0.445216 0)
(-0.0125443 0.412023 0)
(-0.0102088 0.409277 0)
(0.00280749 0.435445 0)
(0.0292396 0.467034 0)
(0.0694863 0.490095 0)
(0.119444 0.498727 0)
(0.172853 0.491611 0)
(0.223775 0.470235 0)
(0.268087 0.437878 0)
(0.303898 0.398376 0)
(0.331135 0.355169 0)
(0.350837 0.310801 0)
(0.364521 0.266828 0)
(0.373734 0.223928 0)
(0.37979 0.182143 0)
(0.383632 0.141083 0)
(0.385779 0.100173 0)
(0.386324 0.0588169 0)
(0.385093 0.0166014 0)
(0.381424 -0.0267213 0)
(0.375049 -0.070661 0)
(-0.00477399 0.331948 0)
(-0.00408977 0.443474 0)
(0.0031149 0.408308 0)
(0.0102955 0.40002 0)
(0.0244079 0.416664 0)
(0.0476867 0.43692 0)
(0.0800458 0.450218 0)
(0.118826 0.453246 0)
(0.160154 0.445422 0)
(0.200256 0.427497 0)
(0.236303 0.401198 0)
(0.266723 0.368778 0)
(0.291073 0.332482 0)
(0.309705 0.29415 0)
(0.323407 0.255053 0)
(0.333104 0.215897 0)
(0.339653 0.176929 0)
(0.343711 0.138071 0)
(0.345693 0.099084 0)
(0.345727 0.0596752 0)
(0.343776 0.0196587 0)
(0.339456 -0.0210654 0)
(0.332758 -0.0620872 0)
(-0.00267396 0.334077 0)
(0.00236025 0.436486 0)
(0.0134554 0.40023 0)
(0.0233789 0.388472 0)
(0.0375632 0.398788 0)
(0.0580432 0.411443 0)
(0.0846456 0.418249 0)
(0.115559 0.417469 0)
(0.14828 0.408969 0)
(0.180356 0.393101 0)
(0.209838 0.370753 0)
(0.235486 0.343251 0)
(0.256754 0.312058 0)
(0.273647 0.278482 0)
(0.286522 0.243517 0)
(0.295897 0.207803 0)
(0.302307 0.171669 0)
(0.306194 0.135202 0)
(0.30787 0.0983564 0)
(0.307476 0.0610241 0)
(0.305062 0.0231596 0)
(0.300478 -0.0152698 0)
(0.293871 -0.0538445 0)
(-0.00104747 0.332806 0)
(0.00675983 0.426224 0)
(0.0199451 0.389457 0)
(0.031225 0.376066 0)
(0.0449927 0.382211 0)
(0.0630846 0.389671 0)
(0.0853528 0.39209 0)
(0.110512 0.388734 0)
(0.136897 0.379707 0)
(0.162883 0.365146 0)
(0.187114 0.34548 0)
(0.208633 0.32149 0)
(0.226912 0.294131 0)
(0.241793 0.264327 0)
(0.25339 0.232836 0)
(0.261965 0.200204 0)
(0.267834 0.166763 0)
(0.271286 0.132678 0)
(0.272553 0.0980041 0)
(0.271774 0.0627372 0)
(0.269057 0.0269064 0)
(0.264401 -0.00947626 0)
(0.258003 -0.0460774 0)
(0.000220682 0.329189 0)
(0.00968246 0.414101 0)
(0.0237448 0.377358 0)
(0.0354867 0.363565 0)
(0.0485547 0.366992 0)
(0.064603 0.370873 0)
(0.0835083 0.370331 0)
(0.104318 0.365269 0)
(0.1259 0.355908 0)
(0.147161 0.342263 0)
(0.167147 0.324511 0)
(0.185129 0.303114 0)
(0.200642 0.2787 0)
(0.213468 0.251922 0)
(0.223589 0.223352 0)
(0.231114 0.193433 0)
(0.236212 0.162473 0)
(0.239064 0.130657 0)
(0.239835 0.0980824 0)
(0.238646 0.0647919 0)
(0.235621 0.030844 0)
(0.230792 -0.00372457 0)
(0.224365 -0.0386957 0)
(0.00123702 0.323835 0)
(0.011596 0.401098 0)
(0.025697 0.36482 0)
(0.0373359 0.351382 0)
(0.0495404 0.353061 0)
(0.0638107 0.354477 0)
(0.0800189 0.351961 0)
(0.0974276 0.345824 0)
(0.115257 0.33632 0)
(0.132762 0.323393 0)
(0.149267 0.307088 0)
(0.164221 0.287678 0)
(0.177233 0.265584 0)
(0.188078 0.241269 0)
(0.196672 0.215163 0)
(0.203029 0.187623 0)
(0.20722 0.158915 0)
(0.209337 0.129219 0)
(0.209477 0.0986414 0)
(0.207718 0.067239 0)
(0.20416 0.0350728 0)
(0.198722 0.00217292 0)
(0.19168 -0.0311418 0)
(0.00204902 0.317415 0)
(0.0128408 0.388082 0)
(0.0264724 0.352617 0)
(0.0376445 0.339953 0)
(0.0488877 0.340519 0)
(0.0615932 0.340254 0)
(0.075578 0.336471 0)
(0.0902452 0.329719 0)
(0.10506 0.320244 0)
(0.119511 0.307942 0)
(0.133116 0.292792 0)
(0.145462 0.27496 0)
(0.15623 0.254735 0)
(0.16521 0.23245 0)
(0.172285 0.208436 0)
(0.177404 0.182982 0)
(0.180562 0.156319 0)
(0.181766 0.128613 0)
(0.181031 0.0999748 0)
(0.17835 0.0704691 0)
(0.173741 0.0401514 0)
(0.16717 0.00901903 0)
(0.15889 -0.0225462 0)
(0.00268726 0.309611 0)
(0.0135277 0.374674 0)
(0.0263058 0.340509 0)
(0.036726 0.328918 0)
(0.0468984 0.328767 0)
(0.0581413 0.327365 0)
(0.0701607 0.32283 0)
(0.0824734 0.315823 0)
(0.0947208 0.306536 0)
(0.106547 0.294841 0)
(0.117613 0.280688 0)
(0.127609 0.264185 0)
(0.136282 0.245537 0)
(0.143442 0.224998 0)
(0.148954 0.202834 0)
(0.152727 0.179289 0)
(0.154687 0.154573 0)
(0.154771 0.128844 0)
(0.15291 0.102218 0)
(0.149028 0.074757 0)
(0.143098 0.0464835 0)
(0.135155 0.0173094 0)
(0.125611 -0.012749 0)
(0.00317417 0.303343 0)
(0.0141858 0.364121 0)
(0.0263518 0.331196 0)
(0.0360472 0.320536 0)
(0.0453224 0.319935 0)
(0.0554586 0.317846 0)
(0.0659806 0.312922 0)
(0.0764764 0.305874 0)
(0.0867231 0.296835 0)