/*--------------------------------*- C++ -*----------------------------------*\
| =========                 |                                                 |
| \\      /  F ield         | OpenFOAM: The Open Source CFD Toolbox           |
|  \\    /   O peration     | Version:  2206                                  |
|   \\  /    A nd           | Website:  www.openfoam.com                      |
|    \\/     M anipulation  |                                                 |
\*---------------------------------------------------------------------------*/
FoamFile
{
    version     2.0;
    format      ascii;
    arch        "LSB;label=32;scalar=64";
    class       surfaceScalarField;
    location    "1";
    object      alphaPhi0.water;
}
// * * * * * * * * * * * * * * * * * * * * * * * * * * * * * * * * * * * * * //

dimensions      [0 3 -1 0 0 0 0];

oriented        oriented;

internalField   nonuniform List<scalar> 
4432
(
4.88946e-06
-4.88946e-06
6.08967e-06
-1.20021e-06
2.91172e-06
3.17795e-06
-1.37761e-06
4.28932e-06
-2.5055e-06
1.1279e-06
-6.59775e-07
-1.84573e-06
5.53822e-07
-1.2136e-06
-8.79087e-08
6.41737e-07
-1.83135e-06
1.74343e-06
-4.34603e-06
2.51469e-06
-7.24319e-06
2.89716e-06
-9.52176e-06
2.27859e-06
-1.0253e-05
7.42863e-07
-1.12464e-05
1.20463e-06
-1.61311e-05
4.89375e-06
-2.41286e-05
7.51471e-06
-2.85015e-05
4.48793e-06
-2.56264e-05
-2.46517e-06
-2.02036e-05
-5.60441e-06
-1.5174e-05
-4.9942e-06
-1.03815e-05
-4.97014e-06
-4.6969e-06
-5.69871e-06
-4.6969e-06
-1.48334e-07
-4.74113e-06
-1.50121e-06
1.52663e-07
-3.87339e-06
5.55012e-06
-5.28267e-06
5.69859e-06
-4.08715e-06
-6.76154e-08
-1.45362e-06
-4.47924e-06
8.29495e-08
-2.75017e-06
-4.36458e-07
1.16116e-06
-2.44625e-06
3.75321e-06
-5.23834e-06
5.30678e-06
-8.38995e-06
6.04878e-06
-1.18088e-05
5.69759e-06
-1.56895e-05
4.91934e-06
-2.02333e-05
6.26655e-06
-2.47628e-05
9.39512e-06
-2.59658e-05
8.68342e-06
-2.19879e-05
4.72555e-07
-1.66024e-05
-8.00204e-06
-1.22056e-05
-1.02176e-05
-8.85163e-06
-8.6061e-06
-6.22459e-06
-8.01684e-06
-2.90543e-06
-9.01785e-06
-7.60231e-06
-2.17597e-06
-2.56516e-06
-4.5759e-06
2.55258e-06
-6.21089e-06
7.18511e-06
-6.49104e-06
5.97874e-06
-5.09676e-06
-1.46189e-06
-2.33337e-06
-7.24263e-06
-4.13129e-07
-4.67043e-06
-6.91884e-07
1.43992e-06
-2.24364e-06
5.30495e-06
-4.34539e-06
7.40853e-06
-6.7025e-06
8.4059e-06
-9.67723e-06
8.67238e-06
-1.37567e-05
9.13533e-06
-1.73702e-05
1.07717e-05
-1.90845e-05
1.10751e-05
-1.66075e-05
6.17895e-06
-1.26995e-05
-3.71897e-06
-1.0075e-05
-1.13737e-05
-7.84743e-06
-1.26059e-05
-5.40413e-06
-1.11706e-05
-3.59522e-06
-9.82567e-06
-1.79878e-06
-1.08147e-05
-9.40114e-06
-1.63883e-06
-9.26339e-07
-3.54022e-06
4.45396e-06
-4.96534e-06
8.61024e-06
-5.71027e-06
6.72367e-06
-4.78514e-06
-2.38701e-06
-2.32756e-06
-9.70021e-06
-7.78653e-07
-6.21934e-06
-1.20462e-06
1.8659e-06
-2.65151e-06
6.75184e-06
-4.50911e-06
9.26613e-06
-6.41954e-06
1.03163e-05
-8.48236e-06
1.07352e-05
-1.07809e-05
1.14372e-05
-1.21479e-05
1.23466e-05
-1.13395e-05
1.08501e-05
-9.25617e-06
4.22223e-06
-8.11287e-06
-5.04251e-06
-7.93118e-06
-1.1555e-05
-7.04281e-06
-1.3494e-05
-5.24611e-06
-1.29672e-05
-3.62307e-06
-1.14486e-05
-1.92739e-06
-1.25103e-05
-1.13286e-05
2.83569e-07
-1.20991e-06
-4.01021e-07
5.13855e-06
-1.77279e-06
9.98201e-06
-2.97557e-06
7.92645e-06
-2.48237e-06
-2.88021e-06
-1.04127e-06
-1.11413e-05
-5.9893e-07
-6.6617e-06
-1.68744e-06
2.95442e-06
-3.41918e-06
8.48356e-06
-5.41473e-06
1.12617e-05
-7.30596e-06
1.22076e-05
-8.93165e-06
1.23609e-05
-1.00973e-05
1.2603e-05
-1.01977e-05
1.24473e-05
-9.14043e-06
9.79367e-06
-8.23563e-06
3.31797e-06
-8.25796e-06
-5.01971e-06
-7.78848e-06
-1.20241e-05
-6.29659e-06
-1.49853e-05
-4.65358e-06
-1.46098e-05
-3.14038e-06
-1.29617e-05
-1.85448e-06
-1.37961e-05
-1.3183e-05
3.1765e-06
-4.38642e-06
4.30234e-06
4.01269e-06
2.96314e-06
1.13212e-05
1.50965e-06
9.37994e-06
1.68662e-06
-3.0572e-06
1.66113e-06
-1.11138e-05
2.47557e-07
-5.24801e-06
-1.82886e-06
5.03085e-06
-4.02379e-06
1.06785e-05
-6.17161e-06
1.34095e-05
-8.09332e-06
1.41293e-05
-9.66072e-06
1.39283e-05
-1.07944e-05
1.37366e-05
-1.11349e-05
1.27879e-05
-1.05132e-05
9.17212e-06
-9.47811e-06
2.2835e-06
-8.50973e-06
-5.98755e-06
-6.73112e-06
-1.38002e-05
-4.34753e-06
-1.73617e-05
-2.48303e-06
-1.64695e-05
-1.01374e-06
-1.44298e-05
-7.50819e-07
-1.4059e-05
-1.39338e-05
6.65199e-06
-1.10382e-05
9.78379e-06
8.81369e-07
8.74171e-06
1.23633e-05
7.04829e-06
1.10734e-05
6.77865e-06
-2.78756e-06
5.48891e-06
-9.82488e-06
2.70106e-06
-2.45558e-06
-5.528e-07
8.28538e-06
-3.14061e-06
1.32663e-05
-5.34014e-06
1.5609e-05
-7.2017e-06
1.59908e-05
-8.76711e-06
1.54937e-05
-1.01373e-05
1.51068e-05
-1.08104e-05
1.3461e-05
-1.04022e-05
8.76398e-06
-9.28576e-06
1.16721e-06
-8.82304e-06
-6.44655e-06
-7.66198e-06
-1.41367e-05
-5.0254e-06
-1.72661e-05
-1.73064e-06
-1.73695e-05
1.07863e-06
-1.63345e-05
1.27511e-06
-1.40597e-05
-1.26586e-05
1.09463e-05
-2.1802e-05
1.54825e-05
-3.6303e-06
1.46244e-05
1.32213e-05
1.2911e-05
1.27868e-05
1.13844e-05
-1.26094e-06
8.86791e-06
-7.3181e-06
6.25814e-06
1.50055e-07
2.83669e-06
1.17102e-05
2.75754e-07
1.58272e-05
-2.1782e-06
1.8063e-05
-4.17298e-06
1.79856e-05
-5.86024e-06
1.7181e-05
-7.80117e-06
1.70478e-05
-9.55064e-06
1.52104e-05
-1.07663e-05
9.97983e-06
-1.23245e-05
2.72881e-06
-1.5781e-05
1.13122e-07
-1.46169e-05
-3.99778e-06
-1.09074e-05
-1.45713e-05
-6.65791e-06
-2.18922e-05
-1.48334e-07
-2.33911e-05
3.5312e-06
-1.68017e-05
-9.07249e-06
-1.54641e-06
1.54718e-06
-1.41471e-05
1.26015e-05
-1.17129e-05
-1.7365e-06
9.59952e-06
-1.86558e-05
3.24282e-05
-2.16971e-05
3.31933e-05
-7.53531e-07
2.50703e-05
8.12994e-06
2.43052e-05
7.73536e-07
2.62607e-05
-6.78487e-06
2.40424e-05
4.61704e-07
8.22873e-06
1.58849e-05
-6.02158e-06
1.42998e-05
-1.79484e-05
1.10986e-05
-2.50666e-05
7.14636e-06
-2.38704e-05
-1.16281e-06
-1.68303e-05
-7.01001e-06
-7.43727e-06
-9.39547e-06
-8.81153e-07
-6.54828e-06
-8.73317e-07
-7.70771e-06
9.25567e-06
-1.20584e-05
1.72235e-05
-6.58731e-06
-6.18392e-06
9.71932e-06
-3.51269e-05
2.77949e-05
-3.65739e-05
2.91148e-05
-2.04951e-06
2.20466e-05
1.52098e-05
1.17035e-05
9.37539e-06
8.85122e-06
-6.59437e-06
1.22456e-05
-3.16902e-06
4.51521e-06
2.31937e-05
-1.6797e-05
2.86553e-05
-2.73119e-05
2.16468e-05
-2.40068e-05
3.87334e-06
-1.94372e-05
-4.21091e-06
-1.72032e-05
-8.47797e-06
-1.03967e-05
-1.46954e-05
-2.20606e-07
-1.71926e-05
-9.28425e-07
-7.89771e-06
1.7153e-05
-9.62621e-06
1.83772e-05
-4.1483e-06
-1.17061e-05
9.2316e-06
-4.85528e-05
1.9374e-05
-4.53029e-05
1.19106e-05
5.5103e-06
-7.845e-06
3.49893e-05
-1.80237e-05
1.63145e-05
-1.10185e-05
-1.51271e-05
-2.82061e-06
-1.07844e-05
-5.96895e-06
3.03264e-05
-2.18931e-05
3.13923e-05
-2.35527e-05
2.33294e-05
-1.71289e-05
7.47161e-07
-1.51695e-05
1.17505e-07
-1.17846e-05
-2.39244e-06
-9.23061e-06
-3.78369e-06
-3.78267e-06
-1.47234e-05
-5.68124e-06
-5.27212e-06
2.24454e-05
-6.59202e-06
2.07585e-05
-2.76417e-06
-1.55806e-05
4.63135e-06
-6.32876e-05
7.75203e-08
-4.10439e-05
-1.69737e-05
2.27545e-05
-3.11281e-05
4.73798e-05
-2.85129e-05
1.18511e-05
-2.1351e-05
-2.1172e-05
-1.72695e-05
-1.48043e-05
-1.72895e-05
3.04235e-05
-2.07934e-05
4.84886e-05
-1.56881e-05
1.79226e-05
-1.58369e-05
2.55405e-06
-9.95646e-06
1.60936e-06
-3.47795e-06
-2.82569e-08
-3.64232e-06
-3.37765e-06
-4.94528e-06
-7.24999e-06
-1.84858e-05
-1.37671e-06
2.4018e-05
-1.87585e-06
2.1177e-05
2.27031e-07
-1.77416e-05
-2.82348e-06
-6.27677e-05
-1.78058e-05
-2.64092e-05
-3.65223e-05
4.1595e-05
-2.42066e-05
3.12813e-05
-1.92493e-05
6.3003e-06
-2.68601e-05
-1.78089e-05
-2.61292e-05
-1.54764e-05
-2.33984e-05
2.77544e-05
-2.06537e-05
4.58543e-05
-2.60989e-05
2.34216e-05
-2.08832e-05
1.16594e-05
-4.77027e-06
4.43683e-06
-3.93725e-06
-2.89229e-07
-1.76335e-06
-5.04823e-06
-4.87715e-06
-6.12223e-06
-2.28645e-05
3.59106e-06
2.04929e-05
4.58245e-06
2.0292e-05
4.33959e-06
-1.84499e-05
-8.55864e-06
-5.02183e-05
-2.981e-05
-6.0706e-06
-2.84106e-05
4.28356e-05
-1.29187e-05
1.37775e-05
-1.51377e-05
1.70157e-06
-3.06401e-05
-2.01293e-05
-3.19872e-05
-1.40676e-05
-2.69399e-05
2.27631e-05
-2.13833e-05
4.0368e-05
-2.59123e-05
2.81071e-05
-9.22496e-06
1.39614e-05
-5.46838e-06
2.38642e-06
-3.69659e-06
-1.55958e-06
-7.58712e-07
-7.41406e-06
1.66743e-07
-1.21268e-05
-2.20963e-05
8.98891e-06
1.14929e-05
1.25871e-05
1.68989e-05
1.1367e-05
-1.56997e-05
-6.58718e-06
-3.26476e-05
-2.74005e-05
1.44861e-05
-1.11414e-05
2.96019e-05
-8.34974e-06
9.89666e-06
-1.78703e-05
2.7368e-06
-3.52085e-05
-2.15658e-05
-3.56338e-05
-1.35805e-05
-2.94619e-05
1.66613e-05
-2.65996e-05
3.75919e-05
-3.22008e-05
3.58192e-05
-7.47504e-06
7.54096e-06
-6.3576e-06
1.27264e-06
-3.0771e-06
-4.59647e-06
-1.32499e-07
-1.67475e-05
9.46442e-07
-1.80552e-05
-7.48133e-06
1.33264e-05
-1.8205e-06
2.01534e-05
9.42728e-06
1.93872e-05
-1.40652e-05
3.94053e-06
-1.76642e-05
-1.32885e-05
3.32234e-05
-5.47496e-06
2.5114e-05
-5.1518e-06
8.82926e-06
-1.61717e-05
4.4779e-06
-3.8368e-05
-8.12566e-06
-4.32766e-05
-8.65838e-06
-3.98169e-05
1.32878e-05
-3.66244e-05
3.44734e-05
-1.10863e-05
1.47821e-05
-4.86275e-06
1.48352e-06
-3.54134e-06
4.66141e-07
-2.93838e-06
-4.45767e-06
-2.86216e-06
-1.8358e-05
1.38817e-06
-2.54951e-05
-1.18194e-06
3.21227e-05
-5.39756e-05
5.32698e-05
-2.1906e-05
5.31079e-05
1.37905e-05
4.43116e-05
2.15833e-05
3.24419e-05
1.06103e-05
2.2661e-05
2.46299e-06
1.71566e-05
5.65432e-06
5.97164e-06
2.28952e-05
-6.0361e-06
2.7835e-05
-1.43483e-05
2.63752e-05
-1.76755e-05
2.13128e-05
-2.04118e-05
1.99172e-05
-2.89247e-05
2.55607e-05
-4.23e-05
2.58368e-05
-6.24329e-05
2.3489e-05
-5.20691e-05
1.9264e-05
-5.90655e-05
5.30892e-06
-5.56364e-05
-2.14504e-05
-3.20686e-05
-6.31077e-05
-3.05874e-05
-6.78803e-05
-1.46454e-05
-5.67773e-05
3.41302e-06
-4.03865e-05
-2.25131e-05
1.66444e-05
2.92454e-05
-8.5374e-05
4.88197e-05
-4.13696e-05
6.29219e-05
2.3722e-06
5.98044e-05
2.47211e-05
4.54877e-05
2.44326e-05
2.98806e-05
1.81228e-05
1.88191e-06
3.36529e-05
-3.0925e-05
5.12091e-05
-6.13581e-05
4.69303e-05
-8.27965e-05
3.54142e-05
-8.41537e-05
2.30021e-05
-4.76452e-05
9.22747e-06
-3.53618e-05
1.2742e-05
-4.14738e-05
1.65074e-05
-4.99698e-05
1.68462e-05
-5.82476e-05
1.12437e-05
-0.000126193
-4.97893e-06
-0.000148755
-7.42421e-05
-0.000107817
-0.000103105
-7.59454e-05
-9.66754e-05
-5.20388e-05
-7.79309e-05
-3.04088e-05
-6.20205e-05
-4.74313e-05
-7.89189e-06
9.23459e-06
-9.52752e-05
2.09376e-05
-5.56564e-05
3.23542e-05
-9.16457e-06
3.89784e-05
1.81157e-05
2.454e-05
3.88847e-05
-1.91579e-05
6.18645e-05
-9.25881e-05
6.92533e-05
-0.000135063
4.99667e-05
-9.64097e-05
1.81346e-05
-4.73137e-05
1.37859e-06
-3.46001e-05
7.23084e-06
-3.71268e-05
8.29109e-06
-4.09844e-05
8.48644e-06
-5.01962e-05
1.82543e-05
-5.47031e-05
1.32695e-05
-6.90098e-05
5.86488e-06
-0.000152635
-1.95508e-05
-0.000154397
-7.25777e-05
-0.000134162
-0.000123003
-0.000115699
-0.000111887
-0.000100571
-9.22818e-05
-8.74857e-05
-5.25191e-05
-4.34241e-05
-7.19906e-05
-2.46539e-05
-5.17634e-05
-4.14026e-05
-2.05932e-05
-3.1762e-05
-1.02982e-05
-3.32494e-05
1.17583e-05
-5.21515e-05
2.65623e-05
-6.69819e-05
1.8178e-05
-7.43062e-05
9.37488e-06
-7.40648e-05
3.68189e-06
-5.43669e-05
-1.46394e-06
-4.38611e-05
6.01373e-07
-3.48096e-05
7.68233e-07
-3.12988e-05
1.37134e-06
-4.99265e-05
5.80929e-06
-6.12979e-05
2.0598e-05
-5.82122e-05
1.79886e-05
-4.03322e-05
4.61847e-06
-5.23593e-05
-2.95262e-06
-0.00015365
-4.30044e-05
-0.000158182
-0.000125282
-0.000148905
-0.000115301
-7.24654e-05
-2.81926e-05
-4.42396e-05
-8.16116e-07
-1.19122e-06
-6.0754e-05
-1.9006e-05
-4.60469e-06
-2.29351e-05
-1.24508e-09
-3.51127e-05
-1.2904e-08
-3.99751e-05
-6.11557e-07
-3.33715e-05
5.38948e-07
-2.1803e-05
4.3194e-06
-1.46312e-05
6.76929e-06
-1.1819e-05
2.21148e-06
-2.09454e-05
3.98589e-08
-3.64896e-05
2.14302e-06
-3.77843e-05
2.47097e-06
-3.46662e-05
2.81507e-06
-3.26269e-05
2.29211e-06
-3.38798e-05
2.36045e-06
-1.94822e-05
1.40287e-06
-6.41618e-06
-2.06361e-07
-8.91129e-06
-4.4158e-07
-5.68232e-05
-8.74874e-06
-0.000142801
-5.77506e-05
-9.20296e-05
-8.94463e-05
-2.40703e-06
-2.05384e-05
-3.00434e-06
-9.46163e-07
-1.56502e-06
-3.27952e-06
-1.02389e-05
2.28096e-05
-6.49725e-06
2.32655e-06
-1.12819e-05
2.52872e-07
-2.39775e-05
7.17801e-07
-2.28474e-05
9.24858e-07
-9.47049e-06
4.98722e-06
-4.6592e-06
3.80433e-06
-2.00348e-06
6.11273e-07
-2.03937e-06
5.35577e-07
-4.4602e-06
4.5926e-08
-7.09983e-06
-1.71311e-07
-7.81114e-06
-1.54222e-07
-6.1757e-06
-6.95271e-08
-3.01607e-06
-6.45455e-08
-8.42681e-07
-4.83613e-08
-7.16105e-07
5.99437e-08
-1.14577e-06
-6.61174e-08
-8.52079e-06
-1.65383e-06
-5.36366e-05
-9.06486e-06
-8.06017e-05
-3.94148e-05
-1.77941e-05
-2.49203e-05
-6.19661e-06
-1.35576e-05
-4.21515e-06
-4.29957e-06
-4.96671e-06
4.30541e-05
-4.94842e-06
2.607e-06
-6.43615e-06
7.30082e-07
-1.48416e-05
1.08636e-06
-2.61433e-05
1.26741e-06
-1.77106e-05
3.35481e-06
-4.61688e-06
4.91672e-06
-6.72978e-07
1.03772e-06
-4.68009e-07
3.99571e-07
-5.27512e-07
9.22753e-08
-7.11259e-07
-1.46073e-08
-3.90854e-06
-1.49096e-08
-5.94451e-06
-4.00215e-08
-2.96047e-06
1.18481e-08
-4.01384e-07
1.50816e-08
-1.73976e-07
6.58764e-10
-2.58243e-07
-3.29272e-09
-1.56172e-06
-3.92541e-07
-8.41414e-06
-2.41123e-06
-6.46655e-05
-9.84326e-06
-6.1393e-05
-2.91321e-05
-3.78784e-05
-2.63013e-05
-3.11719e-05
-2.24975e-05
-1.68741e-06
5.41631e-05
-1.3559e-06
1.95351e-06
-1.42393e-06
2.46011e-07
-2.83895e-06
-5.78249e-08
-6.99268e-06
-2.81051e-07
-8.92271e-06
9.80374e-08
-4.9814e-06
2.2268e-06
-4.22937e-07
7.87238e-07
-1.51907e-07
1.43793e-07
-9.16185e-08
3.34428e-08
-1.14183e-07
7.86235e-09
-2.83999e-07
5.05645e-09
-4.96966e-07
1.20863e-09
-5.26527e-07
-1.18547e-09
-2.9741e-07
3.36745e-09
-6.58442e-08
1.00741e-09
-6.56882e-08
-4.00469e-09
-4.04096e-07
-4.60585e-08
-2.52423e-06
-2.5281e-07
-1.72753e-05
-8.49062e-07
-6.01246e-05
-9.89798e-06
-5.7819e-05
-1.80204e-05
-3.20635e-05
-4.69712e-05
-6.44083e-07
5.91624e-05
-2.62078e-07
1.85648e-06
-1.77446e-07
1.33371e-07
-2.74886e-07
1.21251e-08
-5.91307e-07
-2.41301e-08
-9.12357e-07
-5.54981e-08
-8.17496e-07
3.79371e-08
-1.72178e-07
1.55226e-07
-3.99325e-08
3.1614e-08
-1.25943e-08
6.96846e-09
-5.56711e-09
8.09845e-10
-2.26324e-09
3.42907e-11
-2.75571e-09
-4.63957e-11
-5.27942e-09
-3.95776e-10
-3.99923e-09
-5.89042e-10
-3.93912e-09
-4.67027e-10
-7.06195e-09
-2.81932e-09
-3.50562e-08
-1.64849e-08
-2.30706e-07
-5.21619e-08
-1.00192e-06
-6.03737e-08
-1.08469e-05
-2.84992e-08
-2.54319e-05
-1.81442e-07
-1.53335e-06
-3.69418e-05
-5.28176e-08
6.37115e-05
-1.10038e-07
1.01861e-06
-5.17477e-08
6.80892e-08
-5.42365e-08
7.33345e-09
-9.27638e-08
-1.75048e-10
-1.63042e-07
-6.58446e-09
-1.62242e-07
1.17092e-08
-3.19556e-08
2.80085e-08
-7.40686e-09
7.52697e-09
-1.65653e-09
1.4034e-09
-1.04749e-09
1.22987e-10
-5.40473e-09
1.88511e-10
-5.12623e-09
-2.5808e-11
-4.40103e-09
-6.18985e-10
-3.01129e-09
-1.04949e-09
-5.05371e-10
-5.55661e-10
-2.76973e-09
-1.67191e-09
-5.93514e-09
-1.43222e-08
-1.54107e-08
-3.51567e-08
-1.59328e-08
-4.38217e-08
-1.34816e-08
-2.79795e-08
-1.71194e-07
-1.94372e-08
-2.03472e-08
-1.68182e-06
-5.0456e-07
5.12981e-05
-4.18951e-08
5.45062e-07
-1.50296e-08
3.55689e-08
-1.43352e-08
4.35535e-09
-2.08382e-08
1.48792e-09
-3.45264e-08
2.89895e-10
-3.14037e-08
2.69327e-09
-7.80034e-09
4.82961e-09
-1.52563e-09
1.27494e-09
-2.9862e-10
2.0671e-10
-1.96279e-10
1.54645e-11
-1.88835e-09
3.746e-11
-3.02604e-09
-1.09791e-14
-2.82789e-09
-1.00572e-13
-1.30482e-09
-3.71098e-13
2.50865e-10
-1.66988e-12
-1.21818e-09
-1.76541e-11
-4.56838e-09
-2.56498e-10
-1.25634e-08
-3.60748e-09
-1.91358e-08
-1.98627e-08
-8.91103e-09
-2.65138e-08
-2.1626e-09
-2.37796e-08
-1.93879e-08
-8.51014e-10
-2.89518e-07
5.64123e-05
-1.46984e-08
2.67302e-07
-5.43921e-09
2.38929e-08
-4.05426e-09
2.52036e-09
-4.45085e-09
7.84119e-10
-6.03255e-09
4.23385e-10
-5.40801e-09
6.82417e-10
-1.30875e-09
7.54746e-10
-2.11354e-10
1.85883e-10
-2.90772e-11
2.70163e-11
-1.64299e-11
2.60595e-12
-1.06131e-13
5.73542e-13
-1.08562e-13
-2.26617e-14
-1.36565e-13
-8.05495e-14
-2.72457e-13
-1.52046e-13
-1.72056e-12
-2.09554e-13
-1.94324e-11
-1.4048e-13
-2.75825e-10
-3.21968e-13
-2.50979e-09
-5.03665e-12
-1.93835e-09
-8.22061e-11
-4.63163e-09
-1.16826e-09
-1.03597e-08
-1.02501e-08
-1.72835e-08
-4.94358e-09
-1.86817e-07
6.47643e-05
5.65012e-10
7.97724e-08
-1.68659e-09
2.53476e-08
-1.01584e-09
1.74073e-09
-9.02948e-10
3.16758e-10
-9.67977e-10
1.29807e-10
-7.97154e-10
1.84841e-10
-1.8237e-10
1.3292e-10
-2.5045e-11
3.1579e-11
-2.71687e-12
4.32179e-12
-6.30153e-13
4.74023e-13
-1.4405e-13
7.16991e-14
-1.65529e-13
-1.09506e-14
-2.11567e-13
-4.66878e-14
-1.69941e-13
-2.11247e-13
-1.23093e-13
-4.58012e-13
-1.11549e-13
-3.50254e-13
-3.55376e-13
-2.2577e-13
-5.3521e-12
-1.71585e-13
-8.46852e-11
-2.94751e-12
-1.20531e-09
-5.07973e-11
-5.90161e-09
-1.33918e-09
-5.52969e-09
-3.53099e-09
-5.24797e-10
6.52289e-05
7.24406e-09
3.31006e-07
3.49475e-11
3.2205e-08
-2.16667e-10
1.6321e-09
-1.79825e-10
2.0868e-10
-1.59002e-10
3.32809e-11
-1.18435e-10
6.62938e-11
-2.72994e-11
3.96584e-11
-3.62784e-12
8.14592e-12
-4.89985e-13
1.14006e-12
-2.58024e-13
2.07099e-13
-3.04076e-13
6.28656e-14
-4.37499e-13
7.10066e-14
-8.73132e-13
3.23037e-13
-7.36258e-13
-4.23357e-13
-3.60429e-13
-1.06492e-12
-1.40149e-13
-7.1849e-13
-8.27483e-14
-4.14837e-13
-2.24232e-13
-1.48177e-13
-3.12207e-12
-1.03419e-13
-5.36206e-11
-3.572e-13
-1.35074e-09
-2.34813e-12
-5.53308e-12
-5.60695e-11
2.49884e-06
6.39396e-05
1.55974e-07
3.15248e-06
2.46042e-09
1.84287e-07
-7.10991e-11
4.05246e-09
-5.19775e-11
1.51431e-10
-3.51019e-11
3.5029e-11
-2.50591e-11
3.96547e-11
-6.0346e-12
2.04254e-11
-1.00932e-12
3.40211e-12
-6.35314e-13
8.45503e-13
-1.1309e-12
6.60637e-13
-2.87555e-12
1.86924e-12
-5.99057e-12
2.32461e-12
-8.78845e-12
3.37699e-12
-6.2876e-12
-3.10152e-12
-2.18408e-12
-5.96286e-12
-5.92667e-13
-2.73536e-12
-1.21885e-13
-1.00608e-12
-4.44199e-14
-2.79172e-13
-4.71035e-14
-1.54474e-13
-1.80816e-13
-2.77216e-13
-1.60036e-13
-2.46918e-12
-5.49345e-12
-2.75389e-13
1.20113e-06
3.69335e-06
-8.31672e-09
3.35085e-06
-2.06875e-09
1.90566e-07
-5.65635e-11
3.71994e-09
-1.78819e-11
9.72012e-11
-1.2683e-11
4.93151e-11
-8.8307e-12
3.22234e-11
-2.60096e-12
1.49052e-11
-2.10462e-12
3.64976e-12
-6.52753e-12
5.53423e-12
-2.45928e-11
1.88065e-11
-4.89781e-11
4.61857e-11
-1.22848e-10
6.12891e-11
-1.07723e-10
-9.92516e-12
-5.78203e-11
-4.37764e-11
-1.63649e-11
-5.10164e-11
-3.83796e-12
-1.76865e-11
-5.79282e-13
-4.79674e-12
-7.95035e-14
-8.47965e-13
-4.61498e-14
-2.41054e-13
-2.4537e-13
-1.49389e-13
-5.17188e-13
-1.86021e-12
-3.67483e-12
-7.68796e-13
4.84512e-08
1.56346e-06
-8.30169e-08
2.39059e-06
-2.5168e-09
8.43699e-08
-4.07308e-11
1.59468e-09
-8.67558e-12
6.26082e-11
-7.57579e-12
4.2252e-11
-6.74435e-12
2.98397e-11
-8.44178e-12
1.60944e-11
-3.94575e-11
3.53779e-11
-1.7902e-10
1.46541e-10
-6.28132e-10
4.72922e-10
-1.28463e-09
1.16358e-09
-1.3497e-09
1.415e-10
-1.06636e-09
-2.68467e-10
-4.86644e-10
-6.21129e-10
-1.1618e-10
-4.39636e-10
-2.28958e-11
-1.22526e-10
-3.10132e-12
-2.75125e-11
-3.02268e-13
-3.9413e-12
-3.88227e-14
-5.72237e-13
-1.62685e-13
-1.23384e-13
-6.7692e-13
-1.6195e-13
-1.52027e-12
-5.55629e-13
-1.14093e-07
1.13824e-06
-4.82403e-08
7.56034e-07
-9.47481e-10
3.69109e-08
-2.48596e-11
7.00548e-10
-9.56207e-12
5.98998e-11
-2.90116e-11
5.39126e-11
-1.74114e-10
1.69812e-10
-1.35912e-09
1.19721e-09
-9.86535e-09
8.95749e-09
-1.34273e-08
2.96307e-08
-1.51862e-08
1.10699e-08
-2.22918e-08
2.46424e-09
-1.55493e-08
-9.26534e-09
-6.09371e-09
-9.63324e-09
-2.04612e-09
-5.19859e-09
-5.15205e-10
-2.23528e-09
-1.00379e-10
-6.18567e-10
-1.3258e-11
-1.27214e-10
-1.26834e-12
-1.72397e-11
-8.46834e-14
-1.86812e-12
-8.32115e-15
-2.57706e-13
-1.78356e-13
-4.50158e-14
-1.93563e-14
-1.86948e-13
-2.28581e-07
2.34681e-05
-2.15772e-08
5.47261e-07
-4.12087e-10
1.56449e-08
-1.55022e-11
3.08412e-10
-2.3916e-11
7.78676e-11
-1.49222e-10
1.95929e-10
-1.14103e-09
1.26818e-09
-1.36839e-08
1.47062e-08
-2.864e-08
6.19422e-08
-4.29252e-08
6.32502e-08
-5.19852e-08
2.83094e-08
-4.62629e-08
7.06968e-09
-3.69053e-08
-8.56636e-09
-3.61499e-08
-1.79157e-08
-1.53248e-08
-2.66386e-08
-2.26468e-09
-2.57941e-08
-3.93459e-10
-2.83436e-09
-4.83717e-11
-5.2631e-10
-4.38601e-12
-6.69175e-11
-2.58879e-13
-6.45044e-12
-9.7226e-15
-5.72427e-13
-1.27646e-16
-7.59165e-14
-1.98924e-14
-2.3292e-17
-3.8603e-07
6.25961e-05
-1.03733e-08
1.70828e-07
-1.61996e-10
5.55081e-09
-1.73667e-11
1.78391e-10
-4.34291e-11
1.0469e-10
-3.62139e-10
5.41438e-10
-1.15419e-09
5.88486e-09
-2.07014e-08
7.30758e-08
-3.03095e-08
7.55201e-08
-2.3484e-08
6.03974e-08
-1.39333e-08
1.91762e-08
-1.14426e-08
3.46971e-09
-1.49442e-08
-6.82368e-09
-1.38853e-08
-2.18201e-08
-1.07621e-08
-2.81396e-08
-2.81421e-09
-3.31443e-08
-6.47965e-10
-1.31973e-08
-7.81726e-11
-1.32e-09
-2.30521e-12
-2.22063e-10
-1.0449e-13
-3.06641e-11
-1.66623e-14
-2.47733e-12
1.62576e-16
-2.41607e-13
-2.84948e-14
-4.7652e-17
-6.05682e-08
6.46628e-05
-6.5538e-10
2.76897e-07
-2.81787e-11
4.96581e-09
-4.4032e-12
1.5976e-10
-1.61163e-11
1.29354e-10
2.06798e-10
5.30204e-10
-3.5575e-09
1.18736e-08
-6.65378e-09
8.01419e-08
-7.00145e-09
7.88818e-08
-4.10241e-09
6.07149e-08
-8.95711e-10
2.92087e-08
-5.71447e-10
2.47686e-09
-2.97672e-10
-7.66101e-09
-3.71452e-10
-1.85898e-08
-1.5281e-11
-2.58502e-08
7.57252e-10
-3.11753e-08
5.33232e-10
-2.9419e-08
-6.16568e-11
-6.46525e-09
-2.71602e-11
-9.24583e-10
-3.42358e-12
-8.33513e-11
-2.94442e-13
-7.86433e-12
-1.00759e-14
-7.24773e-13
-7.29923e-14
-4.53706e-16
9.51167e-07
6.50554e-05
1.57368e-08
1.47837e-06
4.14215e-10
2.03174e-08
1.22338e-11
5.6268e-10
9.37633e-12
1.37853e-10
2.96027e-10
3.0075e-10
4.20476e-09
4.4189e-09
2.0527e-08
6.68337e-08
2.80816e-08
7.45437e-08
3.38037e-08
5.82092e-08
3.29516e-08
3.32774e-08
3.04956e-08
7.75002e-09
1.00729e-08
-1.74234e-08
9.56277e-09
-1.96497e-08
1.00351e-08
-2.19129e-08
8.71512e-09
-2.6994e-08
8.26859e-09
-2.76288e-08
8.42167e-10
-1.46963e-08
-1.67578e-10
-2.66851e-09
-1.65769e-11
-2.63103e-10
-1.40792e-12
-2.5662e-11
-8.74596e-14
-2.2766e-12
-2.05234e-13
-3.73512e-15
1.3939e-06
6.49142e-05
1.89825e-08
3.43774e-06
1.58243e-09
3.85375e-08
8.06095e-11
2.10649e-09
2.45421e-11
1.96802e-10
1.22623e-10
2.445e-10
3.28954e-09
1.31928e-09
3.77469e-08
1.26862e-08
5.29893e-08
3.18337e-08
7.03663e-08
4.40487e-08
7.81297e-08
2.74581e-08
8.1164e-08
5.13967e-09
4.90119e-08
-1.05121e-08
2.32639e-08
-1.22277e-08
1.78926e-08
-1.44739e-08
1.83731e-08
-2.11404e-08
1.4879e-08
-2.40542e-08
4.6587e-09
-2.04891e-08
-1.51138e-10
-2.82161e-09
-1.63908e-11
-4.50453e-10
-1.86113e-12
-4.62002e-11
-9.96696e-14
-4.66767e-12
-4.28962e-13
-2.24943e-15
2.04069e-06
6.16709e-05
1.61512e-07
7.66639e-06
1.6772e-08
1.93747e-07
8.828e-10
1.88815e-08
1.00824e-10
1.02077e-09
1.14061e-10
2.9865e-10
8.38018e-10
7.27554e-10
7.27986e-09
6.37208e-09
2.61604e-08
7.66214e-09
6.20591e-08
4.25748e-09
6.84222e-08
3.23866e-09
4.9434e-08
2.04941e-10
2.66406e-08
-3.82943e-09
2.36442e-08
-6.29058e-09
2.16902e-08
-9.05054e-09
2.74005e-08
-1.5691e-08
1.97966e-08
-2.08032e-08
5.3888e-09
-1.6751e-08
1.78079e-10
-1.68292e-09
1.51686e-11
-3.5788e-10
1.34078e-12
-4.12163e-11
1.75899e-13
-4.5127e-12
-4.56858e-13
1.68204e-14
9.00257e-07
4.98391e-06
4.61008e-07
1.20307e-05
2.65005e-07
1.94126e-06
2.43682e-08
2.69986e-07
5.89473e-09
2.03829e-08
1.22106e-09
5.10457e-09
7.70787e-10
1.30557e-09
3.98855e-09
5.9505e-09
1.01907e-08
3.93394e-09
1.4635e-08
2.53648e-09
1.9363e-08
6.28056e-10
2.13978e-08
5.38895e-11
2.19687e-08
-2.35606e-09
2.19914e-08
-3.54215e-09
2.76035e-08
-8.09619e-09
3.44839e-08
-1.41506e-08
2.51484e-08
-1.59678e-08
1.66881e-09
-9.28882e-09
2.21813e-10
-9.66913e-10
2.21606e-11
-2.22796e-10
2.2032e-12
-3.01941e-11
3.18372e-13
-3.68881e-12
-3.74151e-13
3.24536e-14
4.70733e-07
4.87345e-07
1.28939e-06
5.14373e-06
-1.25184e-07
4.84111e-06
-4.95945e-08
2.34948e-06
2.32747e-08
7.58761e-07
3.9706e-08
2.26435e-07
2.78895e-08
5.24855e-08
3.71225e-08
2.08567e-08
2.05256e-08
8.06494e-09
2.30431e-08
3.07996e-09
2.44049e-08
1.45758e-09
2.65742e-08
6.76997e-10
2.73471e-08
-3.07699e-10
2.89392e-08
-2.18723e-09
3.99524e-08
-4.91989e-09
3.34646e-08
-7.18356e-09
2.7121e-08
-7.12465e-09
1.14657e-09
-3.45018e-09
1.84893e-10
-4.54833e-10
2.3147e-11
-1.14761e-10
2.79782e-12
-1.71151e-11
3.65989e-13
-2.20909e-12
-2.22445e-13
3.67718e-14
1.23647e-07
9.64615e-08
8.61073e-07
3.24763e-07
9.79819e-07
1.12604e-06
2.01937e-07
1.16412e-06
-5.48036e-09
6.80653e-07
-7.76991e-08
1.85299e-07
1.88087e-08
2.68098e-08
2.92297e-08
4.11656e-09
2.97254e-08
-1.08677e-10
3.02517e-08
3.45634e-11
3.00735e-08
1.00123e-09
3.2604e-08
1.66757e-09
4.55124e-08
3.37972e-09
5.08231e-08
3.77616e-09
4.37454e-08
2.71821e-09
3.41816e-08
1.50482e-09
1.25713e-08
5.67272e-11
6.78696e-10
-3.01729e-10
1.37132e-10
-1.38183e-10
1.91276e-11
-3.29388e-11
2.42355e-12
-5.28396e-12
2.94764e-13
-6.82098e-13
-6.39835e-14
2.90175e-14
1.97684e-08
1.97672e-08
1.31629e-07
7.69186e-08
3.20688e-07
9.32188e-08
3.5614e-07
2.24998e-08
1.80199e-07
-1.45193e-08
3.07851e-08
2.87489e-09
1.86005e-08
6.08475e-10
2.37712e-08
-1.24631e-09
2.32434e-08
-2.32066e-09
2.00399e-08
-1.15084e-09
1.71398e-08
5.23326e-10
3.45165e-08
4.28278e-09
4.38378e-08
7.76142e-09
3.87835e-08
9.57462e-09
3.24272e-08
9.1324e-09
2.68734e-08
7.56445e-09
3.13099e-09
9.23199e-10
2.5315e-10
4.17901e-11
4.67986e-11
-1.3036e-11
6.79171e-12
-4.84322e-12
8.41584e-13
-8.57717e-13
8.97815e-14
-1.03373e-13
-8.33666e-15
8.41133e-15
4.58973e-09
3.74746e-09
2.99408e-08
1.67254e-08
6.27831e-08
1.73262e-08
4.88068e-08
2.71807e-09
2.02493e-08
-2.59223e-09
7.25381e-09
-1.16197e-09
3.11119e-09
-5.51431e-11
4.03463e-09
-1.64469e-10
2.25303e-08
-2.63925e-09
3.2325e-08
-2.21063e-09
3.08701e-08
1.99157e-09
2.84413e-08
7.02141e-09
2.65377e-08
1.00136e-08
2.36933e-08
1.2563e-08
2.10001e-08
1.22033e-08
3.51615e-09
1.8427e-09
7.42669e-11
-1.2236e-11
3.20663e-11
2.21743e-12
7.08643e-12
3.17431e-14
1.09505e-12
-4.11804e-13
1.28699e-13
-7.9397e-14
1.15293e-14
-7.82109e-15
-6.12398e-16
9.73e-16
9.86521e-10
6.35883e-10
6.30561e-09
3.30059e-09
1.13499e-08
2.80342e-09
7.42227e-09
1.00911e-10
2.45955e-09
-3.25744e-10
7.2734e-10
-1.10632e-10
5.77974e-10
-1.17488e-12
2.34865e-09
-2.67831e-12
1.27642e-08
-7.05035e-10
1.18919e-08
-8.73879e-10
1.15071e-08
2.68622e-09
1.13605e-08
7.51667e-09
1.11371e-08
1.05468e-08
5.61704e-09
5.39587e-09
8.10625e-10
2.4657e-10
6.3531e-11
-6.45106e-11
1.15816e-11
-7.95561e-12
2.34406e-12
-5.54212e-13
6.50917e-13
-1.05836e-14
1.02011e-13
-1.73781e-14
1.05574e-14
-3.61354e-15
8.83683e-16
-3.79069e-16
-3.76344e-17
7.42686e-17
1.8213e-10
9.42354e-11
1.23759e-09
5.7075e-10
1.83684e-09
3.99613e-10
8.94484e-10
-1.00117e-11
2.21947e-10
-3.61795e-11
3.51109e-11
-9.30537e-12
2.43082e-11
-5.09636e-13
2.0679e-11
-3.44544e-14
7.40659e-10
-2.93426e-13
1.63912e-09
-8.22347e-12
1.09047e-09
2.54441e-10
9.86168e-10
4.67135e-10
8.09321e-10
1.17085e-10
2.16821e-10
-2.59878e-11
9.7781e-11
-1.57175e-11
1.62566e-11
-6.78895e-12
1.86996e-12
-1.14502e-12
2.0842e-13
-1.10168e-13
4.2154e-14
-3.41085e-15
6.19528e-15
-1.17956e-16
8.0368e-16
-1.32386e-16
7.72996e-17
-1.90678e-17
-1.97419e-18
4.63502e-18
2.69183e-11
1.23894e-11
2.04579e-10
8.70653e-11
2.60543e-10
4.89736e-11
1.0164e-10
-9.6689e-13
2.04508e-11
-3.17203e-12
1.75519e-12
-7.30711e-13
2.7794e-13
-1.78055e-14
1.19693e-13
4.33476e-15
1.0391e-14
-1.97087e-15
3.80935e-13
-7.47647e-13
-1.12351e-11
-2.80686e-12
1.22731e-11
-2.22232e-12
7.36526e-11
2.67627e-12
3.18648e-11
-2.55268e-12
9.83596e-12
-1.6141e-12
1.83262e-12
-6.00792e-13
2.21796e-13
-1.123e-13
2.30417e-14
-1.0805e-14
4.50642e-15
4.54545e-16
7.34366e-16
2.59113e-17
6.40333e-17
-4.96729e-18
4.52323e-18
-8.63335e-19
-8.95241e-20
2.50096e-19
3.30451e-12
1.48375e-12
2.87975e-11
1.18931e-11
3.02727e-11
5.40541e-12
1.04835e-11
6.20711e-14
1.95581e-12
-1.86103e-13
1.55847e-13
-3.85842e-14
1.51683e-14
3.33109e-15
3.91636e-15
1.61236e-15
2.68247e-14
9.66754e-16
2.38186e-13
-4.32425e-14
1.41683e-12
-1.25501e-13
3.47021e-12
-4.70574e-14
6.19816e-12
1.00863e-13
2.92478e-12
-2.26684e-13
9.0593e-13
-1.35042e-13
1.6968e-13
-4.30109e-14
2.11383e-14
-8.34414e-15
4.00426e-15
5.90664e-16
6.99289e-16
1.12185e-16
5.08548e-17
3.82887e-18
3.48293e-18
-1.3462e-19
2.31438e-19
-3.28306e-20
-3.41036e-21
1.1419e-20
3.55236e-13
1.66984e-13
3.53244e-12
1.47632e-12
3.03903e-12
5.52138e-13
9.49924e-13
4.13767e-14
1.75009e-13
4.26867e-15
1.79111e-14
1.55714e-15
2.17228e-15
2.13139e-15
8.11773e-16
5.11822e-16
1.64859e-15
5.26684e-16
2.16232e-14
6.69207e-16
1.62155e-13
-9.15593e-15
3.71774e-13
-3.45538e-15
4.94154e-13
2.94518e-15
2.31224e-13
-1.58963e-14
6.79346e-14
-7.38715e-15
1.18519e-14
-1.65285e-15
2.37798e-15
4.84481e-16
5.02289e-16
1.13766e-16
3.8505e-17
7.15561e-18
2.61282e-18
2.63145e-19
1.6432e-19
-1.03511e-21
9.93276e-21
-1.03131e-21
-1.08834e-22
4.27707e-22
3.34442e-14
2.18313e-14
3.81095e-13
1.68226e-13
2.57883e-13
6.0003e-14
7.44613e-14
1.20489e-14
1.4761e-14
2.71864e-15
2.23319e-15
1.71926e-15
4.32723e-16
3.85382e-16
2.47847e-16
1.70388e-16
2.43276e-16
2.19604e-16
1.78954e-15
5.68235e-16
1.24289e-14
6.61117e-17
2.74173e-14
-3.61739e-16
3.35111e-14
2.86799e-16
1.51788e-14
-1.18825e-15
4.09529e-15
4.7833e-16
1.03493e-15
2.61883e-16
2.23e-16
7.07148e-17
2.26535e-17
5.62565e-18
1.84575e-18
3.64968e-19
1.19896e-19
1.51431e-20
6.56598e-21
1.60314e-22
3.54954e-22
-2.73613e-23
-3.03229e-24
1.32454e-23
2.43585e-15
3.22186e-15
3.52785e-14
2.38599e-14
2.0478e-14
7.38401e-15
5.4971e-15
2.35465e-15
1.24342e-15
1.0487e-15
2.36802e-16
2.45603e-16
7.38513e-17
4.08452e-17
6.91187e-17
4.06304e-17
1.40199e-16
1.30142e-16
1.79112e-16
9.21416e-17
9.30047e-16
1.96958e-16
1.78731e-15
3.0816e-16
2.05874e-15
3.10488e-16
9.05899e-16
1.96651e-16
3.79408e-16
1.01238e-16
7.56528e-17
2.43564e-17
1.02138e-17
2.86553e-18
1.04021e-18
2.66286e-19
8.12699e-20
1.75943e-20
4.86553e-21
7.48147e-22
2.36988e-22
1.38197e-23
1.10775e-23
-5.40241e-25
-7.16318e-26
3.48603e-25
1.94338e-16
4.7193e-16
3.43563e-15
3.63359e-15
1.50213e-15
1.56688e-15
4.32909e-16
4.64529e-16
1.06508e-16
1.22517e-16
1.77728e-17
2.06293e-17
8.24584e-18
3.5301e-18
1.16888e-17
4.53638e-18
3.74436e-17
1.82315e-17
4.87271e-17
2.66142e-17
1.14137e-16
4.38607e-17
1.61848e-16
5.42974e-17
1.69444e-16