/*--------------------------------*- C++ -*----------------------------------*\
| =========                 |                                                 |
| \\      /  F ield         | OpenFOAM: The Open Source CFD Toolbox           |
|  \\    /   O peration     | Version:  2206                                  |
|   \\  /    A nd           | Website:  www.openfoam.com                      |
|    \\/     M anipulation  |                                                 |
\*---------------------------------------------------------------------------*/
FoamFile
{
    version     2.0;
    format      ascii;
    arch        "LSB;label=32;scalar=64";
    class       volScalarField;
    location    "1";
    object      alpha.water;
}
// * * * * * * * * * * * * * * * * * * * * * * * * * * * * * * * * * * * * * //

dimensions      [0 0 0 0 0 0 0];

internalField   nonuniform List<scalar> 
2268
(
1
1
1
1
1
1
1
1
1
1
1
1
0.999901
0.990601
0.970722
0.979652
0.987564
0.983804
0.967799
0.975424
0.996475
0.999971
0.999989
1
1
1
1
1
1
1
1
1
1
1
0.999997
0.995289
0.95418
0.951518
0.951613
0.9619
0.962502
0.967866
0.968067
0.981079
0.999989
0.999989
1
1
1
1
1
1
1
1
1
1
1
0.999999
0.99881
0.970893
0.951613
0.951545
0.95417
0.989265
0.999995
0.999831
0.999998
0.999966
0.99999
1
1
1
1
1
1
1
1
1
1
1
1
0.999978
0.997782
0.983729
0.982366
0.996953
0.999997
0.999997
0.999998
0.999998
0.999998
0.999997
1
1
1
1
1
1
1
1
1
1
1
1
1
0.999997
0.999989
0.999996
0.999996
0.999997
0.999995
0.999996
0.999998
0.999998
0.999998
1
1
1
1
0.999997
0.999959
0.999999
1
1
1
1
1
1
1
0.999998
0.999992
0.999996
0.99998
0.999935
0.999947
0.999983
0.999996
0.999998
0.999998
0.999997
1
1
1
0.99944
0.999425
0.999984
1
1
1
1
1
1
1
0.999998
0.999967
0.995761
0.974813
0.976084
0.991185
0.99845
0.999996
0.997644
0.9996
1
1
1
0.999348
0.99889
0.999793
1
1
1
1
1
1
0.999999
0.999967
0.933239
0.69452
0.583481
0.669812
0.855951
0.933361
0.999457
0.981117
0.981117
0.970456
0.926813
0.97395
0.987102
0.987153
0.987134
0.915687
0.800961
0.694711
0.700213
0.866494
0.875569
0.875628
0.875467
0.874141
0.87449
0.87449
0.981117
0.963975
0.798416
0.796383
0.938099
0.98694
0.987102
0.985067
0.709677
0.694711
0.695297
0.776345
0.873663
0.875612
0.829716
0.778707
0.797744
0.8331
0.867573
0.980847
0.899415
0.794542
0.794542
0.950352
0.98534
0.98694
0.876906
0.708211
0.775571
0.752704
0.730368
0.872475
0.80982
0.50278
0.381528
0.317718
0.447665
0.524133
0.978496
0.86088
0.794542
0.8307
0.971624
0.983754
0.973046
0.76908
0.707722
0.778397
0.778159
0.61881
0.521061
0.499333
0.34437
0.104861
0.0546003
0.13173
0.532855
0.969908
0.798506
0.794898
0.9796
0.975758
0.983105
0.841005
0.426928
0.538466
0.77842
0.778397
0.777094
0.75856
0.657682
0.141136
0.0494619
0.0508374
0.0698918
0.758801
0.975419
0.802523
0.904995
0.981587
0.976588
0.89914
0.382103
0.237733
0.548541
0.778397
0.778453
0.778153
0.775355
0.548131
0.038258
0.0441774
0.0494619
0.106851
0.758801
0.992393
0.80429
0.927443
0.983759
0.962223
0.716515
0.153751
0.227238
0.756635
0.778397
0.778153
0.777703
0.768038
0.268612
0.0313303
0.0385079
0.114614
0.147562
0.571648
0.992393
0.866713
0.923034
0.987927
0.922521
0.416206
0.146536
0.218367
0.694756
0.777916
0.777703
0.774662
0.521684
0.00474258
0.0242164
0.0972474
0.120551
0.136439
0.0465081
0.929856
0.960745
0.99867
0.999999
0.999976
0.999993
0.999993
1
1
1
1
1
1
0.999998
0.922684
0.582565
0.33661
0.336646
0.355847
0.555831
0.808777
0.880969
0.964899
0.869057
0.875314
0.969587
0.999849
0.995855
0.998506
0.999993
0.996585
0.976552
0.989627
0.978596
0.604811
0.24245
0.182909
0.206621
0.218382
0.384306
0.850972
0.915923
0.915203
0.916122
0.914477
0.909512
0.864299
0.897032
0.958557
0.998794
0.998057
0.998437
0.942375
0.851929
0.656876
0.298125
0.173292
0.155279
0.163152
0.166463
0.167932
0.197564
0.688012
0.905032
0.915203
0.916143
0.914477
0.862188
0.852842
0.788743
0.826354
0.90789
0.903529
0.802872
0.587048
0.34274
0.278764
0.21723
0.149088
0.145285
0.152194
0.176482
0.284109
0.284161
0.258763
0.210781
0.530669
0.905032
0.906078
0.522839
0.203102
0.20138
0.625513
0.142447
0.145544
0.258524
0.179029
0.0834462
0.0283939
0.016781
0.0303897
0.134904
0.153965
0.149398
0.137812
0.161677
0.135602
0.0367958
0.00553917
0.0897729
0.579996
0.723657
0.112487
0.0104257
0.0103963
0.609167
0.0104906
0.0246527
0.101357
0.130996
0.0283987
0.016783
0.00789357
0.00202294
0.0116142
0.0215887
0.0253307
0.0234167
0.0133764
0.0048212
0.00108151
0.00127347
0.00478709
0.101955
0.311476
0.261141
0.0115388
0.0105513
0.566932
0.00665891
0.00682678
0.0798464
0.11241
0.0781905
0.0311452
0.00678961
0.000613168
0.000331495
0.00028166
0.00858414
0.0231819
0.0198447
0.00161231
0.000478235
0.000336891
0.00107233
0.00417625
0.094894
0.354661
0.370327
0.187839
0.619715
0.00497626
0.00355577
0.015951
0.0262606
0.0457039
0.0404163
0.00386445
0.000192387
7.25957e-05
3.03273e-05
0.000703823
0.00156243
0.00206247
0.00193578
0.000189669
3.74134e-05
0.000106912
0.000446735
0.0169648
0.266234
0.383404
0.384445
0.632528
0.00503514
0.000576107
0.000285046
0.000374899
0.00121251
0.00506093
0.00205739
5.44276e-05
1.57037e-05
4.95982e-06
9.07341e-06
1.00805e-05
1.00206e-05
1.21942e-05
1.30878e-05
2.07241e-05
3.96171e-05
9.44075e-05
0.000166234
0.000130113
0.0849783
0.300993
0.632295
0.00253071
0.000205282
7.81749e-05
8.99286e-05
0.000131086
0.000150992
5.43933e-05
1.38544e-05
3.1519e-06
1.10362e-06
1.2589e-05
3.06106e-05
3.07927e-05
2.68659e-05
4.84599e-06
1.99402e-05
9.45539e-05
0.000120959
0.000154022
0.000110662
4.00464e-05
2.4225e-05
0.567898
0.000210312
7.52294e-05
2.58634e-05
2.56237e-05
3.32342e-05
3.2038e-05
1.38683e-05
3.02322e-06
5.24063e-07
1.09151e-07
6.27381e-06
3.05407e-05
3.04117e-05
2.38226e-05
3.02318e-06
1.08236e-05
0.000104463
0.000161342
0.000173547
0.000141806
3.17653e-05
1.36426e-05
0.478736
7.7498e-05
2.42969e-05
1.01932e-05
7.24363e-06
7.36531e-06
7.01468e-06
3.03534e-06
5.28362e-07
7.10689e-08
9.42948e-09
8.25325e-08
1.30438e-09
1.29049e-09
1.3208e-09
1.55551e-09
1.69519e-09
1.7584e-09
4.78686e-09
3.12221e-05
6.55996e-05
0.000112572
0.00010317
0.521502
3.29535e-05
1.03507e-05
4.62244e-06
2.48006e-06
2.07465e-06
1.59493e-06
5.48106e-07
7.18439e-08
9.61377e-09
2.12414e-09
1.31702e-09
1.2971e-09
1.32044e-09
1.55498e-09
1.69506e-09
1.69519e-09
1.51681e-09
1.3356e-09
3.8358e-09
5.59697e-08
2.71152e-05
0.000133614
0.548998
0.000333815
4.84631e-06
2.48753e-06
9.15766e-07
7.0435e-07
3.87681e-07
9.04442e-08
9.04151e-09
2.45547e-09
2.03506e-09
1.76641e-09
1.464e-09
1.63467e-09
2.10978e-09
1.95628e-09
1.51601e-09
1.3356e-09
1.06143e-09
7.90102e-10
9.13194e-10
3.98001e-07
4.30224e-05
0.547767
0.00589888
6.05092e-06
9.02248e-07
3.76282e-07
3.26339e-07
9.87891e-08
1.77977e-08
4.54883e-09
3.449e-09
2.52197e-09
2.41892e-09
8.88782e-09
5.33033e-09
7.51004e-09
5.82751e-09
2.52455e-09
1.06142e-09
7.89247e-10
7.90103e-10
7.90082e-10
2.85343e-09
3.00246e-09
0.272096
0.0110096
-6.55408e-06
2.07214e-07
1.83279e-07
1.00574e-07
4.10304e-08
1.34754e-08
9.01012e-09
4.59522e-09
3.45447e-09
5.59418e-09
5.0666e-08
4.21017e-08
3.7763e-08
3.3553e-08
1.11621e-08
2.64913e-09
9.30467e-10
7.89259e-10
8.93913e-10
1.47271e-08
2.29508e-08
0.00757839
0.0108648
4.29679e-05
-1.41304e-07
1.01618e-07
5.79844e-08
4.51178e-08
3.09274e-08
1.34839e-08
8.95897e-09
2.12995e-08
1.67451e-07
2.65437e-07
4.36494e-07
4.32346e-07
2.02106e-07
5.69074e-08
1.03724e-08
1.65752e-09
8.85681e-10
7.04594e-10
8.67135e-09
2.65119e-08
0.00265397
0.00365927
3.26055e-07
7.28873e-08
1.26205e-07
1.03249e-07
5.61266e-08
4.21062e-08
3.16957e-08
1.19693e-05
5.35077e-05
6.6216e-05
7.23909e-05
2.23373e-05
8.47937e-06
1.3237e-06
3.07599e-07
4.40369e-08
4.89183e-09
7.12972e-10
3.90422e-10
2.08153e-10
1.07857e-08
0.010059
2.06793e-05
-7.1583e-08
1.59397e-07
1.51665e-07
1.27408e-07
2.00086e-07
1.02574e-06
0.000100051
0.000202152
0.000197347
0.000183056
0.000183215
0.000123163
7.06113e-05
3.43123e-05
1.26698e-06
1.89656e-07
2.07762e-08
2.13576e-09
7.14071e-10
7.27111e-11
2.49126e-12
0.197994
9.32462e-06
1.27006e-07
2.13863e-07
1.82814e-07
1.96358e-07
4.26018e-06
7.09648e-05
0.000241239
0.000244909
8.27658e-05
5.90614e-05
6.63199e-05
0.000114801
0.000102159
0.000101439
1.75715e-05
7.97393e-07
3.05786e-07
7.0489e-08
5.88713e-09
6.08235e-10
3.72101e-11
0.296142
0.000232297
1.04462e-07
2.76721e-07
2.2961e-07
2.76238e-07
2.32776e-05
0.000241239
0.000248092
0.000250272
0.000124714
5.77931e-05
5.75293e-05
7.29129e-05
0.000100832
0.000100674
8.45144e-05
1.62276e-05
2.15893e-06
1.02317e-07
8.1677e-09
8.17794e-10
1.52476e-10
0.298967
0.00219958
6.92991e-07
2.91193e-07
2.77912e-07
3.48295e-07
1.0828e-05
0.000248092
0.000250272
0.000250272
0.000250272
0.000245854
0.000171342
6.87847e-05
6.31991e-05
0.000100486
9.98249e-05
6.67264e-05
5.80638e-06
1.07923e-07
1.03677e-08
9.9147e-10
2.09305e-10
0.298967
0.0046069
1.69327e-06
3.53711e-07
2.9543e-07
3.58184e-07
5.14901e-07
8.27668e-05
0.000248092
0.000250272
0.000248303
0.000246306
0.000246306
8.13221e-05
5.17819e-05
6.77888e-05
0.000104883
9.98113e-05
1.15392e-05
2.16381e-07
2.3955e-08
2.42019e-09
4.86587e-10
0.298967
0.0102799
1.27685e-05
1.09994e-06
3.57831e-07
5.14778e-07
6.62884e-07
1.4946e-06
2.5146e-05
6.61689e-05
0.000167842
0.000178104
7.76249e-05
3.96029e-05
4.53646e-05
7.46083e-05
0.000114569
9.51915e-05
1.04953e-05
3.03427e-07
3.63961e-08
3.96335e-09
7.32398e-10
0.176768
0.0378714
0.000185974
1.28162e-05
1.1006e-06
6.62856e-07
1.49458e-06
2.52991e-06
6.64521e-06
1.46794e-05
2.53459e-05
3.39599e-05
3.61018e-05
3.76691e-05
3.95323e-05
0.000111898
0.000119764
6.73139e-05
2.46739e-06
2.81299e-07
3.68509e-08
4.25324e-09
8.00299e-10
0.0102692
0.038098
0.0138858
0.00278187
0.000456976
0.000272701
0.000109748
0.000136594
0.000109011
2.31863e-05
3.13729e-05
3.61265e-05
3.77593e-05
3.96097e-05
8.37962e-05
0.000130488
0.000121534
5.2588e-05
1.67443e-06
2.33223e-07
3.0329e-08
3.73276e-09
6.88355e-10
0.00123604
0.00873758
0.0140008
0.0100226
0.00478972
0.00175539
0.000277476
8.94433e-05
5.38451e-05
3.87844e-05
3.89082e-05
4.15278e-05
4.33192e-05
0.000114163
0.000133171
0.0001332
0.000130116
2.61274e-05
9.67251e-07
1.47984e-07
1.91449e-08
2.2685e-09
4.01265e-10
0.000256316
0.000591222
0.00177205
0.0029057
0.00234696
0.000980721
0.000171661
9.3109e-06
2.78399e-05
4.43958e-05
4.27554e-05
4.27946e-05
0.000113721
0.000134897
0.000135016
0.000133261
8.65462e-05
5.3436e-06
3.24054e-07
4.62838e-08
5.7229e-09
6.33781e-10
9.57955e-11
4.92197e-05
0.000141841
0.000154978
0.000104141
4.62561e-05
3.3771e-05
8.68132e-06
1.65143e-06
1.76034e-05
0.000118076
0.000136203
0.000137163
0.000137208
0.000136112
0.000134897
9.50682e-05
9.13179e-06
3.36502e-07
4.84571e-08
6.34671e-09
7.57666e-10
8.16699e-11
1.03696e-11
8.62689e-06
3.05998e-05
3.1491e-05
1.87096e-05
7.0171e-06
1.61267e-06
2.11597e-07
2.22852e-08
6.20201e-05
0.000136577
0.000137163
0.000137208
0.000137163
0.000133841
6.29002e-05
5.50513e-06
2.52186e-07
5.00102e-08
6.34669e-09
6.37124e-10
6.88337e-11
9.02485e-12
8.67751e-13
1.36786e-06
5.88031e-06
5.5555e-06
2.86987e-06
9.50386e-07
1.95269e-07
2.22775e-08
2.02866e-09
4.56963e-06
4.34096e-05
8.56985e-05
8.82405e-05
6.4375e-05
1.92339e-05
1.01635e-06
1.37819e-07
3.33359e-08
5.16007e-09
6.75609e-10
7.71661e-11
8.45365e-12
1.36984e-12
1.19027e-13
1.96197e-07
1.00678e-06
8.54963e-07
3.8956e-07
1.16187e-07
2.22215e-08
2.02866e-09
2.60844e-10
8.44343e-11
3.46081e-10
1.23435e-06
1.44622e-06
3.49123e-07
1.4839e-07
5.08992e-08
1.28449e-08
2.85783e-09
4.78934e-10
6.72231e-11
1.5161e-11
1.94297e-12
1.36473e-13
7.7699e-15
2.56273e-08
1.54532e-07
1.16288e-07
4.70737e-08
1.30208e-08
2.46052e-09
2.6914e-10
4.57182e-11
6.97792e-11
1.62621e-10
5.83929e-09
1.75259e-08
2.0628e-08
1.13106e-08
4.09837e-09
1.13034e-09
2.53551e-10
4.75224e-11
1.60932e-11
2.26477e-12
1.39093e-13
8.03065e-15
4.38594e-16
3.0808e-09
2.14824e-08
1.41928e-08
5.14862e-09
1.34649e-09
2.68542e-10
4.65671e-11
1.60741e-11
2.43396e-11
1.36941e-10
8.15457e-10
1.51433e-09
1.48121e-09
8.5558e-10
3.39434e-10
1.02981e-10
2.62106e-11
1.14287e-11
1.93578e-12
1.33191e-13
7.7917e-15
4.1244e-16
2.06878e-17
3.56677e-10
2.74044e-09
1.58147e-09
5.19774e-10
1.43557e-10
3.18642e-11
1.10414e-11
7.33327e-12
8.81128e-12
2.67917e-11
8.0539e-11
1.37837e-10
1.33415e-10
7.99026e-11
3.09314e-11
1.54059e-11
6.32649e-12
1.13346e-12
9.82335e-14
6.89038e-15
3.84296e-16
1.78143e-17
8.06758e-19
4.72419e-11
3.2807e-10
1.77167e-10
5.92599e-11
1.612e-11
5.76099e-12
1.80701e-12
2.36685e-12
5.22837e-12
5.75958e-12
9.25589e-12
1.30443e-11
1.21215e-11
7.28609e-12
7.13254e-12
2.73088e-12
5.13599e-13
5.51494e-14
4.78746e-15
3.22378e-16
1.6606e-17
6.8482e-19
2.77415e-20
7.77761e-12
4.60463e-11
2.13205e-11
8.06154e-12
2.88257e-12
6.65535e-13
1.73336e-13
3.86764e-13
1.38671e-12
1.78606e-12
2.97074e-12
3.6127e-12
3.29565e-12
2.0298e-12
7.95749e-13
1.70706e-13
2.39088e-14
2.60489e-15
2.14961e-16
1.34223e-17
6.34081e-19
2.32613e-20
9.3448e-22
1.09439e-12
7.82269e-12
4.00593e-12
1.18069e-12
2.94299e-13
5.23304e-14
1.24351e-14
3.09711e-14
1.20758e-13
2.66259e-13
4.14831e-13
4.45797e-13
3.46702e-13
1.72724e-13
4.26273e-14
8.02427e-15
1.12042e-15
1.15128e-16
8.79283e-18
5.02936e-19
2.14254e-20
6.62504e-22
4.52311e-23
1.01342e-13
1.14341e-12
4.64303e-13
1.02781e-13
2.16243e-14
3.97322e-15
8.76585e-16
1.80216e-15
6.33807e-15
1.71915e-14
2.65365e-14
2.68034e-14
1.8817e-14
8.04283e-15
2.09516e-15
3.81338e-16
4.98535e-17
4.74195e-18
3.32279e-19
1.71315e-20
6.17943e-22
1.42448e-23
7.45256e-24
7.63889e-15
1.14776e-13
3.76061e-14
7.41653e-15
1.5828e-15
2.92127e-16
6.20478e-17
1.13601e-16
3.76637e-16
9.32691e-16
1.49889e-15
1.47518e-15
1.01115e-15
4.09505e-16
1.01925e-16
1.7352e-17
2.10263e-18
1.84012e-19
1.16628e-20
5.12212e-22
8.04547e-24
1.83667e-40
6.17227e-26
5.40828e-16
1.02025e-14
2.90493e-15
5.14189e-16
1.08439e-16
1.84567e-17
3.47796e-18
4.69109e-18
2.16555e-17
5.08806e-17
7.449e-17
7.15876e-17
5.17329e-17
2.05209e-17
4.85457e-18
7.75852e-19
8.72753e-20
6.97334e-21
3.83339e-22
6.70098e-24
-3.67342e-40
-1.95296e-24
-1.78347e-25
5.28616e-16
5.13555e-16
2.09599e-16
4.4185e-17
8.53791e-18
3.01496e-18
2.81783e-18
2.81783e-18
2.81783e-18
5.40485e-18
1.23772e-17
1.13947e-17
4.11173e-18
9.48792e-19
1.58984e-19
2.07383e-20
2.08551e-21
1.49296e-22
5.04353e-24
8.87963e-41
-2.07276e-24
-3.62404e-25
-1.84374e-26
0.97672
0.976817
0.978764
0.992279
0.865677
0.8629
0.919056
0.991681
0.917427
0.922591
0.934538
0.943624
0.543654
0.612686
0.363809
0.208269
0.0105513
0.0109063
0.0114593
0.0125327
0.0109063
0.0114575
0.0124966
0.0141068
0.107756
0.0733503
0.0596374
0.110034
0.384402
0.384434
0.313923
0.380234
0.363021
0.36421
0.371884
0.383246
1.36426e-05
0.0266265
0.0553051
0.0213219
9.96244e-06
7.98974e-06
6.74427e-06
8.50643e-06
2.39317e-05
6.68631e-06
5.19906e-06
6.74427e-06
8.42635e-05
5.21481e-06
4.21537e-06
8.94317e-06
8.57281e-09
7.91688e-06
3.62578e-06
1.70491e-06
6.0327e-09
2.88985e-08
1.81563e-08
2.84636e-07
1.91679e-08
5.73252e-09
1.31721e-08
1.3373e-07
2.65119e-08
4.30778e-09
2.9966e-08
9.75937e-08
8.87215e-09
1.70866e-09
1.88189e-09
1.87303e-08
9.47167e-13
6.88584e-13
6.32262e-13
6.1926e-13
2.96674e-12
1.31236e-12
8.63029e-13
6.1926e-13
1.77175e-11
6.8536e-12
1.24137e-12
5.70592e-13
3.28511e-11
2.05602e-11
3.64753e-12
3.45498e-13
7.61082e-11
3.98432e-11
8.01951e-12
7.25851e-13
1.22855e-10
4.95256e-11
1.00072e-11
1.02865e-12
1.41659e-10
5.09345e-11
9.98994e-12
1.05552e-12
1.25116e-10
4.23738e-11
7.90807e-12
8.18162e-13
7.12199e-11
2.19522e-11
3.44223e-12
2.91498e-13
1.39845e-11
5.96258e-12
9.3861e-13
5.76154e-14
1.23472e-12
7.68486e-13
1.50783e-13
7.72251e-15
9.13608e-14
6.88228e-14
1.50841e-14
7.38093e-16
5.63792e-15
4.92157e-15
1.15601e-15
5.34101e-17
2.97754e-16
2.88192e-16
7.02396e-17
6.50105e-18
1.30969e-17
1.40618e-17
3.77741e-18
1.31781e-18
4.78621e-19
5.92624e-19
2.46247e-19
2.35154e-19
1.55841e-20
2.64766e-20
3.14167e-20
4.62058e-20
7.80583e-22
3.61198e-21
7.83349e-21
1.30804e-20
3.95668e-22
1.20484e-21
2.47505e-21
4.13934e-21
1.83094e-22
3.55008e-22
6.63516e-22
1.24495e-21
3.81601e-23
6.70728e-23
1.38389e-22
3.71009e-22
4.62388e-24
7.88392e-24
2.05062e-23
1.72671e-22
2.49675e-25
6.1598e-25
3.3082e-24
2.63213e-22
6.07424e-27
2.28473e-26
5.59077e-25
2.60268e-22
0.992393
0.989383
0.988922
0.98844
0.958768
0.424755
0.146062
0.167894
0.320141
0.263791
0.369632
0.272014
0.0268525
0.000853324
0.000747557
0.00936659
0.0381542
0.0887701
0.0322727
0.99233
0.990015
0.978366
0.988238
0.987268
0.424999
0.146536
0.173933
0.0784827
0.000833962
0.00600989
0.0014503
0.00079357
0.000308885
0.00029399
0.000551184
0.00138741
0.00586727
0.027709
0.899909
0.864674
0.811209
0.795143
0.869005
0.320851
0.224563
0.172093
0.000743333
0.000345702
0.000330283
0.0003531
0.00026606
0.000245186
0.000253183
0.000292978
0.00200151
0.0381948
0.0269596
0.152491
0.128486
0.190906
0.292843
0.383656
0.249946
0.164692
0.055783
0.000344257
0.000259841
0.000242932
0.000241311
0.0002444
0.00024619
0.000247413
0.000253041
0.0053449
0.166852
0.0681404
0.0144813
0.0192774
0.149087
0.2033
0.102358
0.0648834
0.0257983
0.000496353
0.0002592
0.000236938
0.000232017
0.000233496
0.000239554
0.000244968
0.00025209
0.000300395
0.0785487
0.196068
0.155797
0.0178174
0.0220708
0.0427662
0.0472109
0.00724624
0.000791866
0.000506527
0.000299639
0.000236515
0.000232017
0.000231209
0.000232017
0.000233495
0.000253224
0.000300514
0.000591171
0.171433
0.199535
0.196068
0.0649055
0.0292417
0.0201326
0.0016675
0.000791875
0.000587201
0.000407188
0.000252828
0.000233615
0.000231267
0.000231425
0.000231425
0.000256088
0.000349747
0.000590078
0.0453091
0.22046
0.208399
0.190188
0.391447
0.296094
0.26791
0.202205
0.0116323
0.000672123
0.000354135
0.000254865
0.000238339
0.000233615
0.000231425
0.000248265
0.000438156
0.000890376
0.00834426
0.227272
0.229184
0.176536
0.0987559
0.416076
0.42831
0.431754
0.432387
0.306407
0.0905582
0.00089347
0.000342997
0.000255037
0.000235253
0.0002487
0.000470306
0.0113245
0.06927
0.244344
0.239736
0.22871
0.0564234
0.0185324
0.110014
0.247511
0.363484
0.433278
0.433278
0.423232
0.174557
0.0550505
0.0146588
0.0162596
0.0148906
0.0636908
0.23661
0.249751
0.247093
0.237424
0.0134436
0.0136901
0.00615691
9.81196e-06
5.50545e-06
8.15604e-05
0.16591
0.38094
0.420803
0.417297
0.380987
0.274082
0.269206
0.282706
0.277934
0.2686
0.257895
0.167012
5.29264e-05
0.000239086
0.00125287
0.00178959
9.72207e-06
7.61726e-07
9.69222e-08
1.63505e-06
3.79245e-05
0.201029
0.334219
0.35619
0.346363
0.328816
0.314112
0.201651
0.103134
0.018241
9.48495e-06
1.64602e-05
7.89834e-05
0.000301152
0.000375784
1.32239e-05
2.30733e-07
4.31176e-08
5.53099e-09
-1.08523e-08
-7.8951e-08
5.12444e-09
0.0678522
0.0734599
0.0355371
1.03041e-06
1.20044e-06
1.1818e-06
2.03956e-06
4.56888e-06
1.66579e-05
5.63661e-05
9.66833e-05
0.000106329
1.32649e-05
8.32878e-06
5.58968e-09
5.59581e-09
5.46921e-09
5.47003e-09
4.23108e-09
1.44292e-09
7.92255e-09
6.10727e-08
4.55821e-07
8.20409e-07
2.03956e-06
6.47726e-05
0.000254182
0.000346468
0.000215232
0.000106329
8.23049e-05
4.00711e-06
1.08033e-06
4.84524e-07
5.52268e-09
9.82499e-09
1.88378e-08
1.10736e-08
6.7385e-10
6.8276e-10
1.87162e-09
1.69094e-08
2.35914e-07
2.48322e-05
0.000328171
0.000378053
0.000378754
0.000374963
0.000181487
7.80702e-05
4.1279e-09
1.08136e-11
2.54187e-07
2.72673e-08
1.11815e-08
2.44325e-08
2.36661e-08
6.34412e-10
5.92886e-10
6.02315e-10
9.04414e-10
7.42091e-09
1.54204e-07
5.09079e-05
0.000308511
0.000359311
2.05531e-05
4.7178e-06
1.11529e-05
2.99703e-08
7.56405e-12
8.11661e-12
5.17084e-09
5.53865e-10
1.12008e-08
3.41896e-09
9.01894e-10
5.92886e-10
5.9279e-10
5.93294e-10
6.46639e-10
3.29594e-09
2.58288e-06
7.03555e-05
8.91614e-05
1.43563e-05
3.17115e-06
3.17115e-06
1.17032e-12
7.44506e-12
7.58833e-12
8.11661e-12
9.07015e-12
1.25776e-11
2.40213e-11
5.05535e-10
7.2199e-10
6.28427e-10
6.6802e-10
6.68211e-10
6.61601e-10
1.94742e-09
1.31004e-08
2.93045e-05
6.15652e-05
7.92162e-05
3.17115e-06
1.10115e-12
9.66267e-12
1.44522e-11
1.65396e-11
5.23331e-11
1.56949e-10
3.2219e-10
3.82329e-10
7.53402e-10
6.58439e-10
6.68399e-10
6.6173e-10
6.61746e-10
6.61746e-10
7.70583e-10
7.06538e-10
6.30149e-05
0.000117516
1.37293e-05
1.59441e-12
6.19416e-12
9.55696e-12
1.75108e-11
5.30175e-11
1.82303e-10
4.31577e-10
6.29966e-10
1.65605e-09
1.08275e-09
8.16109e-10
2.41185e-09
1.03406e-09
6.96874e-10
6.8268e-10
6.77676e-10
4.60659e-05
0.00011771
1.45594e-05
6.87597e-13
1.08543e-12
2.56638e-12
1.44829e-11
5.74602e-11
1.4831e-10
2.46108e-10
1.73843e-09
3.15872e-08
4.40334e-08
9.42217e-08
2.23779e-08
2.50457e-09
1.06506e-09
6.70405e-10
6.80245e-10
0.000116801
0.000117235
4.88061e-06
1.62416e-13
2.75233e-13
1.26288e-12
1.53803e-11
6.53569e-11
8.73499e-11
4.69416e-09
2.06071e-07
2.15104e-06
1.43409e-06
2.93535e-07
8.59508e-09
7.51203e-10
1.27941e-09
6.64936e-10
1.29282e-09
0.000143383
3.66897e-05
4.76483e-07
1.32054e-13
1.15485e-13
9.60212e-13
1.75807e-11
5.7388e-11
6.11797e-11
1.1473e-07
2.84757e-06
3.71456e-06
2.10662e-06
1.0476e-07
7.51203e-10
6.93062e-10
1.09334e-09
6.68628e-10
8.7103e-08
0.000143383
7.95011e-06
3.63207e-07
1.41915e-13
6.02603e-14
8.18629e-13
1.77745e-11
2.53125e-11
3.92367e-11
6.31129e-07
3.75073e-06
3.75073e-06
1.61657e-07
7.61324e-10
6.93062e-10
6.93062e-10
6.78093e-10
6.68589e-10
5.06402e-06
4.62594e-05
1.03884e-05
2.83801e-07
1.46219e-13
3.74573e-14
7.05847e-13
1.55341e-11
1.49622e-11
3.19516e-11
1.19033e-06
3.75709e-06
1.58824e-06
7.37758e-09
1.27805e-09
7.61324e-10
6.93062e-10
8.97123e-10
2.37235e-08
1.31307e-06
1.36751e-06
5.82962e-06
2.71147e-07
1.18306e-13
2.87474e-14
6.08303e-13
1.14908e-11
9.27849e-12
2.18294e-11
1.33108e-06
3.7277e-06
7.62678e-08
1.41567e-08
7.37758e-09
3.60321e-08
1.06712e-07
3.52196e-07
4.87613e-06
1.20428e-05
1.07274e-05
1.67508e-06
6.31178e-09
5.20541e-14
2.38905e-14
5.32255e-13
8.68207e-12
8.15177e-12
8.36683e-12
8.6844e-07
3.60285e-06
2.37583e-07
5.33e-07
2.85417e-06
5.98562e-06
1.29994e-05
1.30986e-05
1.32204e-05
1.32355e-05
1.32354e-05
3.78006e-07
2.53866e-09
1.1472e-14
2.10945e-14
4.79279e-13
6.90104e-12
6.95462e-12
6.74627e-12
2.08556e-07
1.77807e-06
1.91467e-06
3.10431e-06
8.90578e-06
8.90578e-06
8.84566e-06
4.57495e-06
5.17204e-06
1.03041e-05
1.15405e-05
3.70113e-07
1.4552e-09
1.62972e-15
1.84776e-14
4.1414e-13
4.99052e-12
1.98341e-11
1.76476e-11
6.11585e-12
2.20587e-09
3.41576e-06
3.54043e-06
3.63498e-06
3.9917e-06
1.49377e-06
1.65683e-07
1.24762e-06
3.06977e-06
1.04959e-06
1.12008e-07
8.74183e-10
3.15027e-16
1.73144e-14
3.06077e-13
2.61533e-12
1.28536e-11
1.78524e-11
5.89604e-12
5.89336e-12
1.5594e-06
3.32777e-06
3.34904e-06
1.24837e-06
6.86903e-07
1.62947e-07
3.03436e-06
7.51505e-06
4.14932e-06
6.5715e-09
5.19125e-10
1.44159e-16
1.21347e-14
1.70451e-13
1.15296e-12
4.48129e-12
1.01451e-11
1.07846e-11
5.87336e-12
5.90683e-12
9.85561e-07
2.20188e-06
3.40807e-06
3.40334e-06
7.36946e-07
2.12735e-07
6.21232e-06
3.33428e-06
1.55441e-08
3.2651e-11
8.37456e-17
5.45136e-15
6.30377e-14
3.72142e-13
1.51846e-12
4.73436e-12
8.45011e-12
5.72986e-12
7.16107e-12
1.01057e-11
7.92347e-11
1.51587e-06
2.12666e-06
6.08976e-07
4.03201e-09
2.20617e-10
4.33812e-11
3.80706e-11
3.24629e-11
3.34193e-17
1.88138e-15
1.72749e-14
1.0336e-13
6.29039e-13
2.73496e-12
5.1056e-12
2.13634e-12
1.0544e-10
2.33956e-09
2.03257e-09
1.38428e-09
1.38428e-09
3.35225e-09
4.20494e-08
4.34419e-08
1.10486e-09
2.85493e-11
3.14912e-11
7.85059e-18
4.40511e-16
3.49244e-15
4.12466e-14
4.18018e-13
1.83818e-12
2.56919e-12
4.97467e-15
5.40896e-10
8.1893e-09
7.53254e-09
1.37278e-09
1.45777e-09
1.13007e-06
2.00089e-06
4.63443e-07
5.94927e-11
1.80831e-11
1.85389e-11
1.42904e-18
7.54159e-17
8.39842e-16
2.77017e-14
3.12767e-13
9.44617e-13
7.52183e-13
7.8885e-31
1.07794e-09
8.5025e-09
8.29792e-09
1.45777e-09
7.10173e-07
3.72817e-06
3.71068e-06
5.08925e-07
2.22242e-11
5.62877e-12
8.49316e-12
6.00477e-19
2.08572e-17
3.69401e-16
1.75191e-14
1.48996e-13
2.18218e-13
7.13507e-14
-7.83658e-14
4.27524e-10
7.40449e-09
1.96755e-09
1.78659e-09
3.70297e-06
3.72817e-06
2.26329e-06
5.48034e-08
1.50893e-14
2.77046e-12
2.55498e-12
4.48751e-19
8.2766e-18
1.48953e-16
5.61064e-15
2.86171e-14
2.0042e-14
-5.39382e-14
-1.71713e-13
4.55325e-11
8.2333e-10
1.06739e-17
8.55132e-08
3.69303e-06
3.37219e-06
1.57966e-12
1.50893e-14
8.52141e-15
6.47394e-12
6.24921e-13
2.7132e-19
2.3214e-18
2.75021e-17
9.47777e-16
1.4433e-15
-2.87862e-15
-7.5153e-14
-1.41006e-13
1.36298e-12
6.9129e-51
1.54074e-33
1.40877e-07
3.67498e-06
8.01737e-08
3.02936e-13
8.52134e-15
7.25874e-15
5.42244e-13
5.46807e-14
1.0324e-19
3.87077e-19
1.9235e-18
5.9731e-17
-7.6721e-16
-4.74036e-15
-4.8511e-14
-7.36572e-14
-3.76188e-14
-9.79401e-15
-1.44628e-15
8.90455e-08
1.67729e-06
3.87907e-10
3.91882e-10
3.11496e-12
2.48004e-15
5.59784e-15
2.04988e-15
2.23041e-20
3.57565e-20
5.14711e-20
1.13553e-19
-7.13107e-16
-2.49223e-15
-1.99482e-14
-2.37737e-14
-1.11998e-14
-2.83612e-15
-4.09885e-16
3.4299e-09
2.81851e-18
1.58515e-08
9.11626e-10
1.39845e-15
1.72195e-16
1.56836e-16
8.16813e-17
2.1927e-21
1.44179e-21
1.11835e-21
-1.94188e-19
-3.22303e-16
-8.14484e-16
-4.47448e-15
-3.59527e-15
-1.27633e-15
-2.59058e-16
-3.10861e-17
-7.28558e-19
-4.51855e-21
1.11563e-08
5.21141e-10
1.62391e-30
3.27822e-33
1.11746e-36
-5.98024e-39
8.32843e-23
1.28953e-23
1.64264e-24
-8.9408e-20
-7.17051e-17
-1.31814e-16
-3.49342e-16
-1.10968e-16
-1.81708e-17
-2.34604e-18
-2.30009e-19
-5.94839e-21
-3.43424e-23
-9.89991e-19
-2.12406e-19
-9.5812e-21
-2.10332e-22
-2.27687e-24
-5.88382e-27
)
;

boundaryField
{
    leftWall
    {
        type            zeroGradient;
    }
    rightWall
    {
        type            zeroGradient;
    }
    lowerWall
    {
        type            zeroGradient;
    }
    atmosphere
    {
        type            inletOutlet;
        inletValue      uniform 0;
        value           nonuniform List<scalar> 
46
(
5.28616e-16
5.13555e-16
2.09599e-16
4.4185e-17
8.53791e-18
3.01496e-18
2.81783e-18
2.81783e-18
2.81783e-18
5.40485e-18
1.23772e-17
1.13947e-17
4.11173e-18
9.48792e-19
1.58984e-19
2.07383e-20
2.08551e-21
1.49296e-22
5.04353e-24
8.87963e-41
-2.07276e-24
-3.62404e-25
-1.84374e-26
0
0
0
0
0
0
0
0
0
0
0
0
0
0
0
0
0
0
0
0
0
0
0
)
;
    }
    defaultFaces
    {
        type            empty;
    }
}


// ************************************************************************* //
