/*--------------------------------*- C++ -*----------------------------------*\
| =========                 |                                                 |
| \\      /  F ield         | OpenFOAM: The Open Source CFD Toolbox           |
|  \\    /   O peration     | Version:  2206                                  |
|   \\  /    A nd           | Website:  www.openfoam.com                      |
|    \\/     M anipulation  |                                                 |
\*---------------------------------------------------------------------------*/
FoamFile
{
    version     2.0;
    format      ascii;
    arch        "LSB;label=32;scalar=64";
    class       volScalarField;
    location    "0.375";
    object      alpha.water;
}
// * * * * * * * * * * * * * * * * * * * * * * * * * * * * * * * * * * * * * //

dimensions      [0 0 0 0 0 0 0];

internalField   nonuniform List<scalar> 
2268
(
1
1
1
1
1
1
1
1
1
1
1
1
1
1
1
0.999999
0.999999
0.999999
1
0.967939
0.824957
0.825333
0.936739
1
1
1
1
1
1
1
1
1
1
1
1
1
1
1
1
1
1
1
0.999348
0.889527
0.895754
0.997785
1
1
1
1
1
1
1
1
1
1
1
1
1
1
1
1
1
1
1
1
0.998077
0.993562
0.997793
1
1
1
1
1
1
1
1
1
1
1
1
1
1
1
1
1
1
1
1
0.999999
0.999993
0.997572
1
1
1
1
1
1
1
1
1
1
1
1
1
1
1
1
1
1
1
1
1
1
0.997612
1
1
1
1
1
1
1
1
1
1
1
1
1
1
1
1
1
1
1
1
1
1
0.997923
1
1
1
1
1
1
1
1
1
1
1
1
1
1
1
1
1
1
1
1
1
1
0.997937
1
1
1
1
1
1
1
1
1
1
1
1
1
1
1
1
1
1
1
1
1
1
0.997957
1.34686e-09
1.33533e-09
5.6196e-10
2.87472e-11
1.55473e-13
3.09663e-15
1.04661e-16
4.28491e-18
2.16057e-19
1.28195e-20
2.31141e-21
2.36034e-21
3.07318e-21
3.8226e-21
1.01254e-21
4.77829e-22
3.50395e-22
2.70376e-22
2.70376e-22
1.04268e-09
5.56675e-11
1.76129e-12
1.02515e-12
1.02405e-12
5.69331e-14
3.36474e-15
2.06101e-16
1.16069e-17
7.36839e-19
9.91796e-20
1.00291e-19
1.66899e-19
6.57586e-20
5.24817e-21
1.06578e-21
1.72164e-21
1.22569e-21
3.58213e-22
1.19292e-08
2.03031e-09
5.56675e-11
7.2343e-09
8.91029e-13
1.46218e-13
5.84834e-14
5.46185e-15
3.40863e-16
2.58023e-17
4.78945e-18
1.08627e-17
1.78923e-17
1.08852e-17
1.43419e-18
2.05087e-19
2.09821e-19
1.34783e-19
4.89834e-20
3.04625e-07
1.77798e-07
5.06726e-09
3.15635e-09
1.95405e-13
7.15069e-13
3.85937e-13
5.31961e-14
7.99925e-15
1.9113e-15
4.43344e-16
7.95421e-16
1.22471e-15
1.01335e-15
1.81262e-16
2.5573e-17
1.19356e-17
7.06235e-18
2.59337e-18
0.000137329
0.000543544
3.46938e-05
1.93716e-13
1.9863e-13
9.33929e-13
7.26421e-13
1.71141e-13
6.2754e-14
3.16772e-14
1.86967e-14
2.66136e-14
5.56587e-14
3.07901e-14
1.03752e-14
1.83248e-15
5.5011e-16
2.93153e-16
1.06225e-16
0.000449408
0.00110473
0.000151577
2.05513e-13
1.95831e-13
1.52185e-12
5.11499e-13
2.05127e-13
1.56246e-13
3.50505e-13
5.97664e-13
2.41266e-13
1.3806e-12
2.84752e-13
1.83209e-13
7.98141e-14
1.91584e-14
9.33009e-15
3.87137e-15
0.000457675
0.000585474
0.000105781
3.29827e-13
2.2348e-13
1.36482e-11
5.32101e-13
4.21874e-13
1.17022e-12
8.1493e-12
2.02767e-11
1.14724e-12
1.00143e-11
1.49583e-12
1.61512e-12
1.1915e-12
2.12629e-13
9.47383e-14
5.17139e-14
0.000128749
2.4523e-05
4.13039e-05
8.59231e-13
4.44201e-13
6.14132e-13
5.37273e-13
4.48925e-13
5.61639e-13
2.21787e-11
5.35954e-10
1.25085e-11
1.14862e-11
1.52103e-11
2.2704e-11
4.55302e-12
5.08392e-13
2.10027e-13
1.32091e-13
1
1
0.999999
0.999998
0.999999
0.999999
0.999999
1
1
1
1
1
1
1
1
1
1
1
1
1
1
1
0.999431
1
1
0.999983
0.999976
0.999981
0.999986
0.999989
0.999991
0.999992
0.999994
0.999995
0.999996
0.999998
0.999999
1
1
1
1
1
1
1
1
1
1
0.999884
0.991806
0.989326
0.99093
0.988922
0.985592
0.983146
0.980857
0.978052
0.975014
0.973048
0.973932
0.978302
0.985866
0.99596
1
1
1
1
1
1
1
0.9822
0.771985
0.468126
0.443261
0.454745
0.432184
0.405039
0.388759
0.375374
0.360314
0.345252
0.334607
0.334631
0.349723
0.381814
0.434987
0.547238
0.714876
0.898564
1
1
1
0.999999
0.350792
0.0693455
2.92793e-18
8.13856e-17
1.51482e-15
1.63236e-14
5.8241e-14
1.05685e-13
1.6353e-13
2.18162e-13
5.98661e-13
2.33966e-11
8.48453e-11
1.23861e-10
1.261e-10
5.89534e-09
0.00310689
0.0263836
0.094252
0.238435
0.492778
0.795749
0.999997
-2.99208e-19
0
1.52375e-19
3.27731e-18
8.17274e-17
1.51482e-15
1.63236e-14
8.43656e-14
1.45653e-12
3.38067e-12
1.1057e-11
1.16504e-10
1.23861e-10
1.261e-10
5.64031e-07
3.21422e-08
1.22933e-06
6.9289e-06
1.9922e-05
0.000270303
0.00398389
0.0694545
0.261377
-7.47677e-19
1.95144e-20
9.32887e-17
4.37062e-15
8.28522e-14
8.08004e-13
2.06024e-12
1.20252e-12
1.32809e-11
1.29287e-10
3.29144e-08
1.70188e-07
3.69512e-08
1.3743e-10
2.53978e-06
7.81187e-05
0.000254147
0.000337647
0.00037384
0.000371136
0.000410885
0.000212985
0.000391952
-1.36618e-18
1.03553e-21
2.15111e-16
2.35533e-14
5.68833e-13
4.31083e-12
7.79658e-12
4.07724e-12
5.76617e-12
1.99235e-09
2.97649e-07
3.6244e-07
1.47105e-07
2.67872e-10
3.33667e-10
0.000405769
0.000624704
0.00062507
0.000627227
0.00062848
0.000607678
0.000105455
0.000105521
-2.71209e-18
-9.70569e-37
2.10069e-16
3.16986e-14
8.37003e-13
5.85586e-12
1.03438e-11
8.17422e-12
3.70912e-12
3.64236e-09
3.61228e-07
3.62757e-07
1.80468e-07
7.73337e-10
5.62569e-07
0.000236589
0.00057166
0.000624676
0.000426111
0.000468245
0.000351896
9.02373e-05
9.07172e-05
-3.58908e-18
-1.04674e-17
1.10487e-16
2.98164e-14
8.23237e-13
5.699e-12
1.06781e-11
1.32272e-11
3.70912e-12
7.94563e-11
1.50128e-07
2.76661e-07
1.02376e-07
7.05516e-09
5.90096e-10
1.82433e-10
1.55151e-05
0.000184574
9.35045e-05
9.03741e-05
9.01141e-05
8.98542e-05
8.98736e-05
-4.24804e-18
-1.94679e-17
3.14205e-17
2.01862e-14
5.5887e-13
3.4263e-12
9.31004e-12
1.67181e-11
4.62008e-12
1.20736e-10
1.20128e-10
1.23817e-10
1.4407e-08
1.97204e-08
4.35662e-09
1.61081e-10
9.71382e-11
5.79502e-07
0.00018631
0.000169565
0.000101581
8.98736e-05
8.98594e-05
-4.71859e-18
-2.24704e-17
1.22286e-33
8.67013e-15
2.30975e-13
1.27444e-12
5.64563e-12
1.71398e-11
7.07127e-12
3.47763e-10
5.5513e-10
7.56422e-10
2.54924e-09
1.97377e-08
9.09611e-09
1.49711e-10
2.87434e-12
2.255e-12
0.000179039
0.000458774
0.000498871
0.000502738
0.000504029
-4.72504e-18
-2.2521e-17
-1.82009e-17
2.52222e-15
6.68284e-14
3.6681e-13
2.30413e-12
1.57491e-11
1.07526e-11
2.41677e-10
1.3603e-09
4.26687e-09
6.02752e-09
1.09043e-08
3.63924e-09
1.33936e-10
2.83584e-12
5.17025e-13
4.98707e-13
5.79867e-13
4.86838e-12
1.52702e-05
0.000112768
-4.21723e-18
-2.01996e-17
-2.67417e-17
5.28414e-16
1.52213e-14
8.53817e-14
7.13476e-13
8.3716e-12
1.23774e-11
9.97238e-12
1.54709e-09
5.51197e-09
4.06183e-09
5.61335e-11
5.47399e-11
5.45699e-11
8.16939e-12
5.05424e-13
4.93567e-13
4.98876e-13
5.49658e-13
6.3036e-13
1.69226e-09
-3.3332e-18
-1.60507e-17
-2.69667e-17
7.37165e-17
2.64986e-15
1.68033e-14
2.14846e-13
2.50707e-12
9.08787e-12
9.96418e-12
4.93807e-10
3.85331e-09
1.68147e-09
3.14752e-10
9.71058e-11
4.18253e-11
9.82116e-12
9.2524e-13
4.95236e-13
6.36874e-13
5.88736e-13
5.92116e-13
6.30447e-13
-2.31186e-18
-1.11454e-17
-2.20886e-17
2.51644e-18
3.33891e-16
2.98194e-15
6.20242e-14
6.31504e-13
3.06396e-12
1.33865e-11
8.69548e-12
1.08696e-10
2.51118e-10
2.74773e-10
1.15947e-10
3.77013e-11
6.78049e-12
5.83322e-13
1.21369e-13
1.82383e-13
5.88688e-13
1.76925e-12
4.19118e-12
-1.38935e-18
-6.66304e-18
-1.50401e-17
-3.20032e-18
2.93551e-17
5.07877e-16
1.45158e-14
1.48504e-13
8.78801e-13
9.18554e-12
3.18714e-12
9.87298e-13
9.79549e-13
7.49321e-12
1.57054e-11
1.26712e-11
3.57017e-12
3.75175e-13
3.41132e-14
3.53e-14
1.13613e-13
4.06072e-13
1.5875e-12
-7.11225e-19
-3.36957e-18
-8.49083e-18
-2.98701e-18
1.24658e-18
8.59525e-17
2.62446e-15
2.67175e-14
1.36814e-13
9.79467e-13
1.52995e-12
1.51098e-12
9.87234e-13
2.50035e-13
9.94492e-14
1.2574e-13
1.28259e-13
8.81084e-14
1.9289e-14
1.32406e-14
5.02495e-14
2.0124e-13
9.36515e-13
-3.03206e-19
-1.4099e-18
-3.90092e-18
-1.59925e-18
-1.89139e-19
1.35034e-17
3.96808e-16
3.85084e-15
1.93716e-14
1.00161e-13
2.24978e-13
2.98252e-13
2.76005e-13
1.64939e-13
2.39804e-14
1.92973e-15
4.48209e-16
1.4807e-16
3.26978e-16
2.59125e-15
2.08818e-14
9.51482e-14
5.66518e-13
-1.04439e-19
-4.74079e-19
-1.41319e-18
-6.01738e-19
-1.40576e-19
1.71218e-18
4.90931e-17
5.58098e-16
2.57009e-15
1.92446e-14
4.09074e-14
3.91101e-14
2.82285e-14
1.33524e-14
3.51004e-15
3.23878e-16
4.59491e-18
6.10041e-18
8.06092e-17
9.98821e-16
9.00599e-15
4.64642e-14
3.68425e-13
-2.78662e-20
-1.23006e-19
-3.86141e-19
-1.62598e-19
-4.36391e-20
1.48985e-19
4.81054e-18
7.01392e-17
3.6428e-16
1.81069e-15
2.99595e-15
2.92491e-15
2.28739e-15
1.2021e-15
3.32463e-16
3.41096e-17
2.42642e-37
-1.01733e-19
2.46558e-17
3.76662e-16
3.92831e-15
2.35649e-14
2.54355e-13
-5.4065e-21
-2.31697e-20
-7.4901e-20
-3.07199e-20
-8.25713e-21
7.22084e-21
3.41318e-19
6.27401e-18
4.2533e-17
1.27957e-16
2.34164e-16
2.41366e-16
2.03603e-16
1.09156e-16
2.08692e-17
0
-2.29593e-18
-1.66224e-18
6.61629e-18
1.42669e-16
1.69283e-15
1.23669e-14
1.82238e-13
-6.83194e-22
-2.85074e-21
-9.40788e-21
-3.7454e-21
-9.8716e-22
6.35877e-23
1.39009e-20
3.84087e-19
3.05944e-18
8.83352e-18
1.62065e-17
1.66463e-17
1.39373e-17
6.90431e-18
4.81482e-36
-1.89359e-18
-2.72156e-18
-1.8208e-18
1.46596e-18
5.3431e-17
7.06485e-16
6.805e-15
1.34709e-13
-4.3085e-23
-1.77491e-22
-6.10394e-22
-2.35662e-22
-6.10907e-23
-1.16203e-23
2.20312e-22
1.31219e-20
1.22847e-19
3.78811e-19
7.27929e-19
7.4266e-19
5.78201e-19
1.88079e-38
-7.51355e-19
-1.47204e-18
-1.55167e-18
-9.68677e-19
3.51092e-19
1.94715e-17
2.82065e-16
3.98872e-15
1.02666e-13
-5.76582e-33
-2.43335e-31
-8.01253e-30
-1.56948e-28
-2.0734e-27
-2.43174e-26
2.19424e-25
1.7371e-22
1.85439e-21
8.93139e-21
1.32891e-20
1.03587e-20
-6.1963e-21
-1.41116e-19
-4.13038e-19
-5.69347e-19
-5.12018e-19
-2.87199e-19
1.60519e-19
6.76466e-18
1.06433e-16
2.45008e-15
7.852e-14
-2.80301e-33
-1.147e-31
-3.93173e-30
-7.91385e-29
-1.14929e-27
-1.37282e-26
-1.31207e-25
-4.28289e-25
-1.2812e-24
-9.32288e-24
-1.27899e-22
-1.41878e-21
-1.24663e-20
-5.43817e-20
-1.08986e-19
-1.26977e-19
-1.01771e-19
-4.75762e-20
7.66443e-20
2.18578e-18
3.75387e-17
1.48433e-15
5.63483e-14
-1.07515e-33
-4.29369e-32
-1.52836e-30
-3.152e-29
-4.65423e-28
-5.60544e-27
-5.91569e-26
-4.73631e-25
-3.03311e-24
-1.81831e-23
-1.11819e-22
-6.83577e-22
-3.34511e-21
-9.8494e-21
-1.62131e-20
-1.68283e-20
-1.20204e-20
-3.72413e-21
2.65088e-20
6.49363e-19
1.22246e-17
8.15211e-16
3.41149e-14
-3.06299e-34
-1.2009e-32
-4.42671e-31
-9.32262e-30
-1.39122e-28
-1.66665e-27
-1.72323e-26
-1.5527e-25
-1.15634e-24
-6.99347e-24
-3.61375e-23
-1.63218e-22
-5.52879e-22
-1.24547e-21
-1.66432e-21
-1.48885e-21
-8.84495e-22
-3.53519e-23
7.27909e-21
1.77102e-19
3.62502e-18
3.8016e-16
1.68539e-14
-5.80997e-35
-2.24846e-33
-8.55572e-32
-1.83299e-30
-2.74495e-29
-3.21933e-28
-3.16469e-27
-2.70486e-26
-1.97939e-25
-1.17071e-24
-5.34742e-24
-1.8689e-23
-4.94807e-23
-9.16221e-23
-9.70209e-23
-6.93426e-23
-2.63825e-23
6.01088e-23
1.69249e-21
4.40761e-20
9.68822e-19
1.47518e-16
7.11104e-15
-5.68516e-36
-2.18111e-34
-8.52489e-33
-1.84898e-31
-2.75576e-30
-3.09673e-29
-2.72826e-28
-1.93369e-27
-1.12501e-26
-5.43691e-26
-2.19186e-25
-7.26053e-25
-1.84445e-24
-2.96718e-24
-2.67976e-24
-1.47864e-24
-4.27128e-26
1.0744e-23
3.50943e-22
9.92715e-21
2.33878e-19
4.79901e-17
2.56368e-15
-6.36359e-38
-2.35582e-36
-8.81911e-35
-1.87848e-33
-2.82978e-32
-3.30842e-31
-3.1156e-30
-2.41989e-29
-1.57241e-28
-8.58867e-28
-3.90237e-27
-1.38961e-26
-3.19802e-26
-2.92311e-26
-1.64598e-26
-1.58039e-27
5.35128e-26
1.76003e-24
6.45319e-23
2.01491e-21
5.17578e-20
1.32052e-17
7.86571e-16
-1.66663e-40
-7.07273e-39
-2.95261e-37
-7.10837e-36
-1.22705e-34
-1.65925e-33
-1.82307e-32
-1.66396e-31
-1.27233e-30
-8.06684e-30
-4.02257e-29
-1.29791e-28
-1.10613e-28
-5.63374e-29
-5.17084e-30
1.41131e-28
5.44274e-27
2.53953e-25
1.04517e-23
3.67879e-22
1.05787e-20
3.07956e-18
2.05298e-16
-2.88756e-43
-1.44189e-41
-6.87189e-40
-1.91181e-38
-3.85563e-37
-6.13444e-36
-7.93436e-35
-8.46477e-34
-7.40894e-33
-5.07334e-32
-2.22959e-31
-1.68075e-31
-7.48508e-32
4.82871e-33
1.69276e-31
1.03774e-29
6.19014e-28
3.18658e-26
1.4779e-24
5.94839e-23
1.94921e-21
6.05082e-19
4.49321e-17
-1.18057e-46
-7.73543e-45
-4.60273e-43
-1.59858e-41
-4.01057e-40
-7.83195e-39
-1.21941e-37
-1.50581e-36
-1.36698e-35
-6.7804e-35
-4.30465e-35
-1.59839e-35
-1.70886e-36
6.30126e-35
9.99288e-33
9.82931e-31
6.00408e-29
3.39029e-27
1.77545e-25
8.21571e-24
3.07991e-22
9.86239e-20
8.11697e-18
-3.69905e-51
-3.51889e-49
-2.75861e-47
-1.22581e-45
-3.77624e-44
-8.28337e-43
-1.15216e-41
-5.35148e-41
-2.47574e-41
-6.78435e-42
1.42271e-41
5.09578e-39
2.7235e-39
4.57874e-36
7.22343e-34
6.81377e-32
4.74636e-30
2.93604e-28
1.73895e-26
9.30764e-25
4.00308e-23
1.29582e-20
1.18024e-18
-1.88879e-55
-2.13945e-53
-1.77106e-51
-7.39143e-50
-1.45766e-48
-3.91724e-49
-6.43219e-50
7.68517e-52
5.23462e-50
2.04091e-45
3.95665e-45
1.348e-41
2.40192e-41
2.52431e-37
3.50524e-35
3.56022e-33
2.85664e-31
1.98389e-29
1.3263e-27
8.38299e-26
4.20519e-24
1.30171e-21
1.3166e-19
-3.68405e-59
-5.71245e-57
-5.01283e-55
-1.53314e-53
-2.86192e-54
-3.36475e-55
3.89488e-54
-2.53261e-53
-8.7998e-50
-9.39183e-47
1.08312e-46
4.66092e-44
1.58894e-42
7.74222e-39
1.15391e-36
1.28627e-34
1.1593e-32
9.8132e-31
7.4784e-29
5.72865e-27
3.45136e-25
8.99693e-23
1.0434e-20
-1.63205e-63
-2.99925e-61
-1.44372e-59
-1.71751e-60
-1.35272e-61
4.82091e-60
-7.42037e-58
-1.26459e-53
-3.15912e-50
-3.28905e-47
-7.44681e-48
2.37621e-46
2.33775e-44
1.32192e-40
2.01354e-38
2.44734e-36
2.80692e-34
3.00491e-32
2.96331e-30
2.67254e-28
1.95466e-26
3.46093e-24
5.1545e-22
-6.17533e-69
-3.54034e-70
-1.06341e-71
-3.30898e-73
-2.99024e-66
-3.54385e-62
-3.01731e-58
-1.98682e-54
-4.54107e-51
-5.11963e-48
-1.44206e-48
1.22714e-48
2.07225e-46
3.29724e-43
8.89136e-41
1.75038e-38
2.94387e-36
4.41659e-34
5.79146e-32
6.36397e-30
5.77519e-28
5.91641e-26
1.22809e-23
1.12221e-191
4.28418e-98
-5.09038e-80
-2.78931e-75
-4.21784e-67
-4.999e-63
-1.16008e-59
-4.83008e-57
-7.81286e-58
-7.29014e-59
1.749e-53
2.63921e-53
1.77257e-53
1.6339e-48
8.45729e-45
3.06281e-42
9.78844e-40
2.72428e-37
6.44507e-35
1.28318e-32
2.06738e-30
6.25056e-28
8.59671e-26
2.9236e-174
5.94362e-99
-7.00722e-81
-3.84393e-76
-3.26673e-72
-2.02343e-73
-7.59676e-75
-2.25841e-76
2.16834e-70
1.14616e-70
6.8734e-67
2.21301e-63
1.37037e-63
4.00306e-57
9.56198e-54
2.16051e-50
2.12783e-47
1.64212e-44
1.07887e-41
5.90559e-39
2.58865e-36
1.21451e-30
8.96836e-29
0
-4.32533e-113
-1.26693e-93
-5.29914e-89
-8.76284e-91
-9.01898e-93
-7.51049e-95
-4.54789e-90
7.9757e-73
-7.10199e-73
-2.77969e-74
-6.08989e-76
-9.99411e-78
-1.37827e-79
8.75976e-68
9.07683e-68
1.02156e-69
1.35381e-58
0
4.40244e-53
5.83088e-54
8.92049e-44
1.21382e-44
0.998374
0.996701
0.337783
0.0058456
0.999494
0.999984
0.971058
0.535492
0.999999
0.999996
0.999984
0.995872
0.999997
0.999995
0.999994
0.999935
0.999995
0.999994
0.999935
0.999866
0.456532
0.596915
0.737793
0.852898
0.00272173
0.0152113
0.0474298
0.0980043
0.000122815
0.000152088
0.000197903
0.000261513
9.1867e-05
9.64121e-05
0.000104018
0.000115344
8.99779e-05
9.19756e-05
9.68214e-05
0.000104176
8.98736e-05
0.000122021
0.000399819
0.000704293
0.000575591
0.00058781
0.00058687
0.000525546
0.000157474
0.000164575
9.58091e-05
1.53724e-05
7.20821e-10
4.8228e-09
6.43352e-09
2.78925e-09
1.97441e-12
3.33852e-12
1.88828e-11
2.48284e-11
3.23945e-12
3.28608e-12
3.4703e-12
1.21058e-11
3.24097e-12
5.08769e-12
8.22834e-12
1.22022e-11
2.08365e-12
3.48703e-12
6.02037e-12
9.31672e-12
1.36414e-12
2.40676e-12
4.3297e-12
7.20485e-12
9.55328e-13
1.77099e-12
3.31313e-12
5.94646e-12
7.03819e-13
1.35326e-12
2.60897e-12
4.97664e-12
5.32339e-13
1.02549e-12
2.13625e-12
3.99732e-12
4.059e-13
8.07771e-13
1.99341e-12
2.92787e-12
3.09801e-13
7.3106e-13
2.05823e-12
2.01241e-12
2.43052e-13
4.39766e-13
1.60514e-12
1.65648e-12
1.70364e-13
3.16557e-13
1.11736e-12
1.90604e-12
1.04284e-13
1.93189e-13
6.1897e-13
1.33e-12
5.34701e-14
9.56718e-14
2.68554e-13
5.41802e-13
2.19243e-14
4.08412e-14
1.0881e-13
2.10214e-13
7.72165e-15
1.47541e-14
4.58095e-14
1.05271e-13
2.33762e-15
4.68648e-15
1.92388e-14
6.72764e-14
6.0156e-16
1.32825e-15
7.64566e-15
3.88921e-14
1.30603e-16
3.36509e-16
2.75638e-15
1.59763e-14
2.36684e-17
7.57691e-17
8.58472e-16
5.36625e-15
3.51318e-18
1.49165e-17
2.23735e-16
1.46367e-15
4.13336e-19
2.47825e-18
4.54259e-17
3.11758e-16
3.67964e-20
3.22292e-19
6.78776e-18
5.03418e-17
2.30307e-21
2.89585e-20
6.89062e-19
5.67616e-18
8.61983e-23
1.45916e-21
4.08406e-20
3.96238e-19
1.0909e-24
2.68122e-23
1.06564e-21
1.25423e-20
8.09749e-29
2.497e-27
2.35601e-25
4.07381e-24
0
-6.52356e-43
-1.12302e-43
-1.03188e-44
9.45681e-05
2.15311e-06
5.8863e-07
1.96359e-12
8.59235e-13
1.07175e-12
5.33443e-13
1.00845e-09
1.70959e-12
7.6357e-09
3.49188e-08
1.27033e-09
6.40093e-11
3.02086e-10
5.79886e-10
9.02101e-11
9.33735e-12
3.45342e-12
2.64757e-12
0.116225
0.0534477
1.56454e-06
5.40035e-11
1.96359e-12
4.36957e-11
2.56149e-07
2.05313e-05
1.90894e-07
2.82874e-07
7.02105e-07
6.67258e-08
1.0915e-08
6.02773e-09
8.18431e-09
1.16245e-09
8.79879e-11
3.57098e-11
3.41457e-11
0.846325
0.69139
7.2219e-06
0.0442705
0.0572959
5.18312e-08
5.28185e-07
7.54368e-06
3.23882e-06
3.96643e-07
6.21474e-05
8.23321e-06
1.0478e-05
2.30944e-07
2.56581e-07
3.28911e-08
2.08354e-09
6.33887e-10
6.85149e-10
0.999521
0.998758
0.595695
0.641729
0.765467
0.310918
0.108073
0.234719
0.0687751
3.23882e-06
1.82227e-05
4.97984e-05
6.66484e-05
9.02189e-06
6.07238e-06
7.82273e-07
4.51478e-08
1.14515e-08
1.44758e-08
0.999816
0.999469
0.998756
0.995992
0.99346
0.962001
0.865341
0.911395
0.881008
0.548653
0.386669
0.147262
8.35838e-05
0.000132456
9.90903e-05
1.11936e-05
7.9436e-07
1.64974e-07
2.51349e-07
0.965484
0.998756
0.996687
0.995025
0.99433
0.99346
0.991629
0.986795
0.982738
0.979743
0.966194
0.917681
0.831716
0.361467
0.0289944
0.00012208
1.1028e-05
2.08025e-06
3.53835e-06
0.217902
0.431133
0.607871
0.728824
0.803673
0.85188
0.889603
0.935658
0.979743
0.975732
0.974481
0.973579
0.971067
0.966513
0.614654
0.044277
0.000122058
2.08104e-05
4.06261e-05
0.000406001
0.00154282
0.0187625
0.0517017
0.0914514
0.130684
0.171249
0.222741
0.320174
0.464164
0.652664
0.930958
0.966916
0.962066
0.959818
0.532213
0.0239769
0.000179032
0.000335221
0.000134277
0.000166089
0.000386414
0.000825568
0.00043772
0.000109122
0.00010595
0.000151621
0.000266676
0.00278851
0.0250673
0.128291
0.467903
0.951877
0.953813
0.941324
0.416481
0.0174278
0.00956973
0.000116578
0.000139938
0.000455825
0.000990604
0.000505195
2.86569e-06
1.8393e-06
3.81669e-06
8.30234e-06
1.73127e-05
5.7127e-05
0.000238009
0.00111947
0.257341
0.885766
0.930649
0.854652
0.321511
0.0353771
0.000752976
0.000760426
0.000753218
0.000464955
4.18053e-05
1.6261e-07
6.689e-08
7.87837e-08
-8.20495e-09
5.57497e-07
1.91829e-06
9.63476e-06
6.85986e-05
0.000922064
0.385513
0.901555
0.900786
0.641433
0.0964513
0.000444655
0.000433012
0.000205194
5.2522e-06
5.05146e-08
6.71474e-09
2.45798e-09
5.1007e-09
8.94313e-09
1.341e-08
4.69312e-08
4.44299e-07
3.84267e-06
6.8949e-05
0.000922151
0.632352
0.890304
0.762573
0.137883
4.09553e-06
1.3914e-06
6.82891e-08
1.13387e-08
2.42118e-09
1.1094e-09
8.46722e-10
3.6816e-09
6.19502e-09
6.85078e-09
9.1733e-09
2.93456e-08
2.58125e-07
3.85184e-06
6.99035e-05
0.300914
0.868458
0.708706
0.125979
2.10713e-09
2.00546e-09
1.57047e-09
8.65115e-10
9.16298e-10
8.88487e-10
8.02239e-10
4.35188e-09
6.52611e-09
7.69467e-09
7.74064e-09
9.50985e-09
2.9871e-08
2.58128e-07
5.11249e-06
0.146249
0.807965
0.605424
0.0979789
4.7731e-11
8.21059e-11
2.86666e-10
6.12028e-10
8.81466e-10
9.25367e-10
8.01259e-10
7.90449e-10
8.94653e-10
8.6545e-07
9.57044e-09
1.84799e-08
2.55324e-08
4.43652e-08
4.44674e-07
0.0870938
0.757326
0.481386
0.0752949
3.22033e-11
6.10069e-11
2.56197e-10
6.13106e-10
8.85023e-10
9.25736e-10
7.99128e-10
6.46118e-10
6.46055e-10
6.8774e-10
1.82833e-05
2.0035e-05
1.92009e-07
6.15842e-07
7.49483e-07
0.0510504
0.697544
0.411753
0.0665223
3.29116e-11
1.20669e-10
2.62181e-10
3.95265e-10
5.03638e-10
5.887e-10
6.50471e-10
6.46098e-10
6.461e-10
6.461e-10
1.82329e-05
2.90796e-05
2.9238e-05
3.09252e-06
1.04449e-06
0.0237993
0.634153
0.374694
0.0642671
3.21386e-11
1.07949e-10
1.81886e-10
2.08249e-10
2.26014e-10
2.09449e-10
3.10184e-10
2.91997e-09
1.20424e-09
8.03125e-10
5.3886e-08
2.95955e-05
2.98154e-05
6.7647e-06
1.33411e-06
0.00303584
0.619866
0.32952
0.0642402
2.22225e-11
6.65093e-11
1.20364e-10
1.40193e-10
1.44206e-10
1.39708e-10
1.41396e-10
1.52835e-08
1.96883e-07
5.02459e-08
2.75597e-08
1.08446e-05
2.98154e-05
2.59037e-05
1.65306e-06
3.64079e-05
0.575498
0.331365
0.0642423
1.59093e-11
5.13918e-11
1.01524e-10
1.13511e-10
1.15606e-10
1.31555e-10
1.37014e-10
6.99458e-10
4.07883e-08
7.85781e-07
2.67547e-07
2.93359e-07
2.53869e-05
2.67115e-05
4.73918e-06
3.14596e-06
0.424418
0.392554
0.072525
1.14671e-11
5.87124e-11
1.11824e-10
1.12571e-10
1.13733e-10
3.33849e-08
1.49854e-07
3.08327e-08
3.10328e-08
6.88114e-07
1.22276e-06
1.01636e-06
4.62618e-06
2.02852e-05
3.85393e-06
7.07692e-07
0.231977
0.391082
0.0895951
8.48705e-12
2.70786e-10
5.30715e-10
2.97386e-10
1.13915e-10
7.93265e-08
3.82984e-07
3.86733e-07
1.90308e-07
9.36048e-07
1.2828e-06
1.27857e-06
2.57789e-07
1.03898e-06
1.0588e-06
2.78345e-07
0.0477629
0.389486
0.0907816
2.02499e-11
7.97429e-10
1.56337e-09
1.01317e-09
1.21237e-10
1.41453e-10
1.99339e-07
5.76565e-07
5.76565e-07
4.2963e-07
7.94446e-07
1.0442e-06
2.14062e-07
1.85976e-07
1.84554e-07
1.94554e-07
2.78454e-07
0.265812
0.260259
8.57262e-11
1.32434e-09
1.81757e-09
1.17219e-09
1.41453e-10
2.16154e-08
1.4099e-07
5.50508e-07
5.76602e-07
2.5414e-07
1.82309e-07
2.31564e-07
2.16499e-07
1.58382e-07
1.5712e-07
1.69372e-07
1.94559e-07
0.107282
0.276634
1.11924e-10
1.27409e-09
1.60924e-09
8.1643e-10
1.75672e-10
5.35661e-07
8.80044e-07
8.84262e-07
2.33111e-07
1.66478e-07
1.69251e-07
1.58237e-07
1.6186e-07
1.40321e-07
1.44069e-07
1.55647e-07
1.69372e-07
0.15303
0.280658
1.57975e-11
1.00444e-09
1.00135e-09
7.2082e-10
2.02657e-10
6.63444e-07
8.91323e-07
8.90647e-07
5.82666e-07
1.5448e-07
1.39259e-07
1.42269e-07
1.36687e-07
1.23493e-07
1.34646e-07
1.44069e-07
0.0367812
0.27576
0.281726
1.00508e-11
5.5983e-10
6.69964e-10
7.21033e-10
5.16273e-10
6.2039e-10
4.25708e-07
5.98386e-07
3.83492e-07
1.42764e-07
1.09651e-07
1.03427e-07
9.71965e-08
1.07857e-07
0.00152099
0.098109
0.0983117
0.281726
0.281726
1.77414e-11
2.79094e-10
3.35936e-10
1.32678e-09
1.97958e-09
1.78986e-09
1.80619e-09
1.80854e-09
8.40437e-09
2.83409e-08
2.61426e-08
2.88822e-08
3.18535e-08
0.0135944
0.14805
0.197034
0.174038
0.226147
0.281726
1.97486e-11
2.11336e-10
2.51503e-10
1.65015e-09
2.23404e-09
1.65933e-09
1.80854e-09
1.8057e-09
1.8197e-09
2.48641e-09
4.79339e-09
0.0264566
0.137246
0.195955
0.197592
0.197915
0.197905
0.0915396
0.280638
1.65229e-11
1.91229e-10
2.80769e-10
3.13409e-10
5.32322e-10
5.62441e-10
1.55833e-09
1.8197e-09
2.05586e-09
4.36284e-09
0.0369886
0.189166
0.196367
0.197592
0.197905
0.197905
0.197908
0.0301051
0.229747
6.57387e-12
1.47348e-10
2.16663e-10
6.79909e-11
2.43151e-11
1.1639e-07
4.71448e-08
2.17425e-09
0.000119664
0.0016316
0.0907667
0.147219
0.147267
0.151246
0.108876
0.0680675
0.197905
0.007014
0.0386796
1.86698e-12
6.87553e-11
6.73373e-11
2.8184e-11
2.48668e-11
5.13845e-07
1.08009e-07
4.49123e-09
0.00929189
0.0329301
0.0368295
0.0142144
0.00624272
0.0060943
0.000677029
0.000730906
0.116767
0.00231888
0.00321262
8.90583e-13
1.70089e-11
1.22087e-11
2.18436e-11
2.70311e-11
5.22704e-07
1.34013e-07
1.14353e-08
0.00743175
0.024858
0.00470545
0.000659344
0.000149577
5.23541e-05
2.60036e-05
0.000586179
0.0176627
0.00126246
0.000700066
3.70195e-13
3.99104e-12
2.06523e-12
1.1903e-10
1.59887e-11
5.17951e-07
5.43059e-08
2.30723e-08
0.00142096
0.025872
0.0106104
0.000149587
6.08705e-05
1.5624e-05
6.61592e-06
0.000916606
0.000644523
0.000356757
0.000170395
1.00046e-13
1.04409e-12
4.12613e-13
2.21514e-10
6.28016e-12
2.85241e-07
2.07123e-06
5.3156e-08
0.00633297
0.050356
0.0156353
7.60498e-05
1.62247e-05
6.60457e-06
3.80578e-06
0.000828685
0.00033311
0.000170086
9.95131e-05
2.11757e-14
2.1295e-13
4.31426e-14
2.00021e-10
4.43495e-13
5.06062e-09
8.33955e-06
1.88711e-07
0.0143121
0.0504031
0.022821
6.10073e-05
8.75431e-06
3.80468e-06
3.04051e-06
0.000142997
0.000138778
0.00018063
9.95342e-05
3.49988e-15
2.82956e-14
8.24472e-15
1.61025e-11
-9.04096e-24
-1.05803e-23
8.27508e-06
5.95198e-07
0.00491787
0.0505666
0.030903
0.000274739
6.86926e-06
3.03573e-06
2.77274e-06
2.41904e-06
3.1964e-05
0.00011883
0.000164946
4.4632e-16
2.21513e-15
2.687e-15
0
-4.53118e-13
-1.09355e-12
1.21165e-06
7.77168e-07
1.6065e-06
0.0507638
0.026202
8.71325e-05
5.45443e-06
2.77287e-06
2.55872e-06
2.77287e-06
1.04701e-05
0.00073072
0.00029198
3.33371e-17
1.3318e-16
3.35005e-16
-2.41829e-16
-4.92882e-13
-1.77874e-12
-7.76911e-17
1.38749e-07
4.58063e-06
0.0611043
0.0430524
0.00105258
4.37592e-06
1.97807e-06
2.3954e-06
2.55872e-06
1.66714e-05
0.00104246
0.000260192
1.20772e-18
5.29143e-18
5.96413e-17
-3.30817e-16
-4.03264e-13
-2.11877e-12
5.28975e-07
8.81094e-07
0.0155926
0.0745755
0.0756656
0.0102847
-3.80039e-09
8.05003e-07
1.66542e-06
2.42545e-06
1.2562e-05
0.00106642
0.000137764
9.52724e-22
3.9821e-20
4.25346e-18
-1.81841e-16
-2.18749e-13
-1.47e-12
-8.42311e-09
-1.2657e-08
0.0102793
0.0733379
0.0756656
0.0356666
3.84791e-08
5.80783e-07
1.12112e-05
8.03973e-06
6.36291e-05
0.00106642
3.23415e-05
-2.90939e-46
-6.79805e-48
-4.10168e-21
-4.50689e-17
-5.89635e-14
-5.18954e-13
-4.31337e-12
-1.35712e-11
-1.22743e-11
-1.04044e-12
0.0421957
0.0186723
1.3992e-28
0
2.5933e-05
9.36361e-05
0.000287632
0.000945887
1.99851e-05
)
;

boundaryField
{
    leftWall
    {
        type            zeroGradient;
    }
    rightWall
    {
        type            zeroGradient;
    }
    lowerWall
    {
        type            zeroGradient;
    }
    atmosphere
    {
        type            inletOutlet;
        inletValue      uniform 0;
        value           nonuniform List<scalar> 
46
(
0
0
0
0
0
0
0
0
0
0
0
0
0
0
0
0
0
0
0
0
0
0
0
0
0
0
0
0
0
0
0
0
0
0
0
0
0
0.0421957
0.0186723
0
0
2.5933e-05
9.36361e-05
0.000287632
0.000945887
1.99851e-05
)
;
    }
    defaultFaces
    {
        type            empty;
    }
}


// ************************************************************************* //
