/*--------------------------------*- C++ -*----------------------------------*\
| =========                 |                                                 |
| \\      /  F ield         | OpenFOAM: The Open Source CFD Toolbox           |
|  \\    /   O peration     | Version:  2206                                  |
|   \\  /    A nd           | Website:  www.openfoam.com                      |
|    \\/     M anipulation  |                                                 |
\*---------------------------------------------------------------------------*/
FoamFile
{
    version     2.0;
    format      ascii;
    arch        "LSB;label=32;scalar=64";
    class       surfaceScalarField;
    location    "0.375";
    object      alphaPhi0.water;
}
// * * * * * * * * * * * * * * * * * * * * * * * * * * * * * * * * * * * * * //

dimensions      [0 3 -1 0 0 0 0];

oriented        oriented;

internalField   nonuniform List<scalar> 
4432
(
-2.78103e-06
2.78103e-06
-1.12429e-06
-1.65675e-06
4.01562e-06
-5.13991e-06
1.06077e-05
-6.59211e-06
1.70682e-05
-6.46045e-06
2.25907e-05
-5.52257e-06
2.69831e-05
-4.3924e-06
3.03692e-05
-3.38603e-06
3.29699e-05
-2.60073e-06
3.49865e-05
-2.01662e-06
3.65463e-05
-1.55976e-06
3.76853e-05
-1.13906e-06
3.83336e-05
-6.48303e-07
3.8254e-05
7.96516e-08
3.69308e-05
1.32312e-06
3.3666e-05
3.26488e-06
2.74947e-05
6.1713e-06
1.76234e-05
9.87126e-06
5.01962e-06
1.26038e-05
-5.92156e-06
1.18936e-05
-1.35389e-05
7.36989e-06
-1.47729e-05
7.92221e-07
-1.69227e-05
-2.79026e-06
5.57129e-06
-8.98724e-07
-3.54829e-06
4.30103e-06
-1.03397e-05
1.08794e-05
-1.31705e-05
1.72876e-05
-1.28687e-05
2.275e-05
-1.0985e-05
2.70986e-05
-8.74103e-06
3.04724e-05
-6.75983e-06
3.30971e-05
-5.22535e-06
3.51677e-05
-4.08725e-06
3.68021e-05
-3.19413e-06
3.80309e-05
-2.36789e-06
3.88248e-05
-1.44227e-06
3.91939e-05
-2.89397e-07
3.92173e-05
1.29975e-06
3.8835e-05
3.64717e-06
3.75537e-05
7.45255e-06
3.37429e-05
1.36821e-05
2.47478e-05
2.15989e-05
9.52544e-06
2.71802e-05
-5.25739e-06
2.42083e-05
-9.07284e-06
3.99178e-06
-2.59837e-05
-2.52182e-06
8.09311e-06
-4.89828e-07
-5.58028e-06
4.74993e-06
-1.55794e-05
1.1254e-05
-1.96745e-05
1.7503e-05
-1.91178e-05
2.27873e-05
-1.62692e-05
2.69931e-05
-1.29468e-05
3.0289e-05
-1.00558e-05
3.2906e-05
-7.84234e-06
3.50268e-05
-6.20809e-06
3.67504e-05
-4.91765e-06
3.80935e-05
-3.71108e-06
3.90076e-05
-2.35636e-06
3.93813e-05
-6.63042e-07
3.91245e-05
1.55649e-06
3.82432e-05
4.52846e-06
3.70653e-05
8.63048e-06
3.60364e-05
1.4711e-05
3.37885e-05
2.38468e-05
2.70325e-05
3.39362e-05
1.54253e-05
3.61315e-05
5.0237e-06
1.44824e-05
-2.09492e-05
-2.17578e-06
1.02689e-05
8.9534e-08
-7.84561e-06
5.35815e-06
-2.0848e-05
1.17389e-05
-2.60552e-05
1.7755e-05
-2.51339e-05
2.27924e-05
-2.13067e-05
2.68144e-05
-1.69688e-05
3.00261e-05
-1.32675e-05
3.26575e-05
-1.04737e-05
3.48688e-05
-8.41936e-06
3.67303e-05
-6.77912e-06
3.82346e-05
-5.21547e-06
3.93184e-05
-3.44009e-06
3.98817e-05
-1.22635e-06
3.9811e-05
1.62715e-06
3.90245e-05
5.31498e-06
3.75847e-05
1.00703e-05
3.61515e-05
1.61441e-05
3.57126e-05
2.42858e-05
3.48556e-05
3.47932e-05
2.9199e-05
4.17881e-05
1.62407e-05
2.74405e-05
-4.74588e-06
-1.73297e-06
1.20019e-05
7.30195e-07
-1.03088e-05
6.08279e-06
-2.62006e-05
1.2294e-05
-3.22664e-05
1.80121e-05
-3.08521e-05
2.27491e-05
-2.60436e-05
2.65633e-05
-2.0783e-05
2.96978e-05
-1.6402e-05
3.23721e-05
-1.3148e-05
3.47122e-05
-1.07594e-05
3.67512e-05
-8.81811e-06
3.84534e-05
-6.9177e-06
3.97407e-05
-4.72743e-06
4.05142e-05
-1.99979e-06
4.06812e-05
1.46016e-06
4.01836e-05
5.81251e-06
3.90122e-05
1.12417e-05
3.73381e-05
1.78182e-05
3.6166e-05
2.54579e-05
3.63015e-05
3.46577e-05
3.39932e-05
4.40964e-05
2.18487e-05
3.95849e-05
1.7067e-05
-1.17703e-06
1.31789e-05
1.54187e-06
-1.30277e-05
6.89984e-06
-3.15586e-05
1.28933e-05
-3.82598e-05
1.82717e-05
-3.62305e-05
2.26841e-05
-3.0456e-05
2.6293e-05
-2.43919e-05
2.93754e-05
-1.94845e-05
3.21288e-05
-1.59014e-05
3.46345e-05
-1.32651e-05
3.68822e-05
-1.10659e-05
3.88055e-05
-8.84102e-06
4.03112e-05
-6.23313e-06
4.13007e-05
-2.98926e-06
4.16903e-05
1.0705e-06
4.14494e-05
6.05347e-06
4.0579e-05
1.21121e-05
3.91205e-05
1.92767e-05
3.73029e-05
2.72755e-05
3.62158e-05
3.57448e-05
3.44089e-05
4.59033e-05
2.3939e-05
5.00548e-05
4.09658e-05
-5.33534e-07
1.37124e-05
2.45709e-06
-1.60183e-05
7.74304e-06
-3.68446e-05
1.34642e-05
-4.39809e-05
1.84906e-05
-4.12569e-05
2.25981e-05
-3.45635e-05
2.60441e-05
-2.78379e-05
2.91267e-05
-2.2567e-05
3.20088e-05
-1.87836e-05
3.472e-05
-1.59763e-05
3.72055e-05
-1.35513e-05
3.937e-05
-1.10056e-05
4.11072e-05
-7.97028e-06
4.23174e-05
-4.19946e-06
4.29134e-05
4.7443e-07
4.28883e-05
6.0786e-06
4.2224e-05
1.27764e-05
4.09977e-05
2.05029e-05
3.91147e-05
2.91585e-05
3.6911e-05
3.79485e-05
3.42445e-05
4.85698e-05
2.54805e-05
5.88188e-05
6.6406e-05
1.88528e-07
1.35239e-05
3.45446e-06
-1.92842e-05
8.57081e-06
-4.19609e-05
1.39325e-05
-4.93426e-05
1.85979e-05
-4.59223e-05
2.2445e-05
-3.84106e-05
2.57925e-05
-3.11854e-05
2.89349e-05
-2.57095e-05
3.19878e-05
-2.18365e-05
3.4927e-05
-1.89155e-05
3.76606e-05
-1.62849e-05
4.00765e-05
-1.34215e-05
4.20624e-05
-9.95622e-06
4.35105e-05
-5.64754e-06
4.43719e-05
-3.86955e-07
4.45823e-05
5.86819e-06
4.41023e-05
1.32565e-05
4.30078e-05
2.15974e-05
4.12673e-05
3.0899e-05
3.86839e-05
4.05319e-05
3.49995e-05
5.22541e-05
2.66987e-05
6.71196e-05
9.30641e-05
2.03014e-14
-2.28657e-14
1.96794e-14
2.75693e-15
1.65333e-15
6.4445e-15
6.20799e-19
2.46418e-16
-5.31341e-20
1.47925e-18
-3.41053e-21
2.51205e-20
-2.00856e-22
7.87083e-22
-1.24623e-23
2.49968e-23
-7.86988e-25
8.65503e-25
-8.39446e-26
3.13155e-26
-9.39766e-26
1.8298e-27
-1.1064e-25
-2.58112e-27
-1.57354e-25
-1.31819e-26
-7.28897e-26
-2.28308e-26
-2.61499e-26
-6.65266e-26
-1.10819e-26
-7.68294e-26
-5.24102e-27
-6.04917e-26
-1.80128e-27
-4.69884e-26
-4.535e-26
2.76181e-13
-3.29381e-13
4.73272e-14
2.13152e-13
9.34642e-16
5.25874e-14
-1.08652e-18
1.20197e-15
-1.30384e-18
2.19272e-17
-1.32574e-19
1.52194e-18
-1.08683e-20
9.39254e-20
-7.11886e-22
4.18696e-21
-4.706e-23
1.50603e-22
-3.58387e-24
5.48312e-24
-3.70115e-24
1.66486e-25
-9.45678e-24
-6.5083e-25
-7.74433e-24
-3.38618e-24
-4.56293e-24
-4.30781e-24
-1.69743e-24
-2.99125e-24
-3.6737e-25
-1.42816e-24
-1.83505e-25
-5.20842e-25
-2.05234e-26
-4.26717e-25
-1.21288e-25
7.74531e-12
-1.01937e-11
6.10371e-12
1.20391e-12
2.83664e-14
6.10958e-12
5.91742e-16
4.41599e-13
-3.30697e-18
3.49674e-17
-1.79513e-18
5.67734e-18
-2.75098e-19
2.31575e-18
-2.05233e-20
1.57861e-19
-1.5971e-21
6.34365e-21
-1.79211e-22
2.8399e-22
-2.93272e-22
1.11997e-23
-9.58525e-22
-1.32725e-22
-8.38477e-22
-4.99455e-22
-4.47918e-22
-7.90532e-22
-1.36653e-22
-3.94392e-22
-2.58505e-23
-1.42459e-22
-1.14986e-23
-4.62596e-23
-1.40779e-24
-3.37319e-23
-1.00452e-23
1.25575e-10
-1.82756e-10
4.20079e-10
-3.34214e-10
-2.27005e-13
4.25516e-10
-1.4208e-17
8.17214e-13
-8.59382e-18
8.53174e-18
-1.09312e-17
2.98641e-17
-2.59458e-18
1.63034e-17
-4.41256e-19
1.79143e-18
-1.10822e-19
1.82122e-19
-1.67274e-20
2.76089e-20
-2.28729e-20
1.33158e-21
-5.97414e-20
-1.45957e-20
-5.32616e-20
-4.45747e-20
-2.77012e-20
-6.17576e-20
-7.51972e-21
-3.26149e-20
-1.19536e-21
-9.57691e-21
-4.61817e-22
-2.55779e-21
-6.15595e-23
-1.67141e-21
-5.43548e-22
2.21484e-09
-1.34939e-08
1.08514e-08
-4.03437e-08
1.99696e-11
6.02552e-09
-5.44151e-19
2.07868e-11
-1.38982e-17
1.00546e-17
-1.82242e-17
4.78657e-17
-7.64383e-18
2.71981e-17
-2.98132e-18
5.01128e-18
-1.49284e-18
1.40971e-18
-7.21818e-19
5.55867e-19
-7.99981e-19
7.04153e-20
-2.41452e-18
-4.88334e-19
-1.55888e-18
-2.80446e-18
-9.74332e-19
-1.57053e-18
-3.00846e-19
-1.54145e-18
-4.00896e-20
-4.80658e-19
-1.35357e-20
-1.10961e-19
-1.98362e-21
-6.48691e-20
-2.28324e-20
2.65468e-09
-3.0079e-08
2.00229e-08
-2.94821e-08
1.18212e-11
1.14436e-08
-2.79322e-17
3.26081e-11
-2.74682e-17
1.18229e-17
-1.67543e-17
8.25257e-17
-7.71678e-18
2.38561e-17
-5.73988e-18
7.09177e-18
-8.98205e-18
3.84973e-18
-2.38795e-17
7.69741e-18
-1.42288e-17
3.697e-18
-5.42425e-17
8.08374e-19
-2.10894e-17
-8.33009e-17
-2.41704e-17
-1.73172e-17
-8.88995e-18
-3.05275e-17
-1.01003e-18
-1.56006e-17
-2.95208e-19
-3.41929e-18
-5.0326e-20
-1.83978e-18
-8.11897e-19
-5.39802e-09
-1.45754e-08
4.79508e-09
-4.07506e-09
-3.02524e-11
3.75355e-09
-2.19884e-16
2.35625e-12
-1.85329e-16
1.91654e-17
-1.28666e-17
9.25341e-16
-1.52175e-17
3.14113e-17
-2.09376e-17
2.92164e-17
-1.37843e-16
7.20314e-17
-8.22307e-16
2.88669e-16
-5.21291e-16
7.22694e-16
-4.55822e-16
7.85195e-17
-2.847e-16
-1.82473e-16
-5.52066e-16
3.67218e-16
-1.75435e-16
-2.20799e-16
-1.57107e-17
-2.47839e-16
-3.81837e-18
-4.14862e-17
-8.71084e-19
-1.98063e-17
-1.15358e-17
-1.80482e-09
-4.58373e-08
1.45002e-09
-9.65061e-09
-2.17155e-12
1.76229e-09
-6.7853e-16
1.85894e-13
-9.76539e-18
5.18652e-17
-1.39331e-17
9.15767e-16
-2.06116e-17
4.37098e-17
-1.45896e-16
1.72518e-16
-2.84682e-15
2.81792e-15
-1.76409e-14
3.4902e-14
-4.36775e-14
6.43049e-14
-2.7465e-15
-3.61289e-14
-7.88196e-15
5.75302e-15
-1.3376e-14
9.06863e-15
-2.82821e-15
-8.50505e-15
-1.90268e-16
-3.0572e-15
-3.61591e-17
-2.46948e-16
-1.14896e-17
-7.62914e-17
-4.81249e-17
3.66467e-06
9.85923e-06
1.17441e-05
-2.73636e-05
2.18645e-05
-5.20812e-05
3.15317e-05
-5.90094e-05
3.98856e-05
-5.42759e-05
4.72066e-05
-4.57315e-05
5.41722e-05
-3.81509e-05
6.11805e-05
-3.27177e-05
6.82355e-05
-2.88914e-05
7.51195e-05
-2.57995e-05
8.15606e-05
-2.2726e-05
8.73248e-05
-1.91856e-05
9.22324e-05
-1.48639e-05
9.60719e-05
-9.487e-06
9.87144e-05
-3.02944e-06
0.000100197
4.38579e-06
0.000100158
1.32956e-05
9.86081e-05
2.31469e-05
9.57133e-05
3.37938e-05
9.13292e-05
4.4916e-05
8.58653e-05
5.7718e-05
8.21307e-05
7.08542e-05
9.30752e-05
8.20761e-05
9.57059e-06
2.88639e-07
2.14853e-05
-3.92784e-05
3.02692e-05
-6.08619e-05
3.60149e-05
-6.475e-05
4.12667e-05
-5.95237e-05
4.73729e-05
-5.18345e-05
5.44502e-05
-4.52256e-05
6.2161e-05
-4.04264e-05
7.00612e-05
-3.679e-05
7.77192e-05
-3.34563e-05
8.4776e-05
-2.97818e-05
9.10003e-05
-2.54093e-05
9.63413e-05
-2.02045e-05
0.000100957
-1.41026e-05
0.000104659
-6.73161e-06
0.000106733
2.31204e-06
0.000107845
1.21833e-05
0.000107635
2.33574e-05
0.000106499
3.49299e-05
0.000104818
4.65965e-05
0.00010355
5.89861e-05
0.000103909
7.04956e-05
8.80028e-05
0.000108981
1.84844e-05
-1.81957e-05
3.90036e-05
-5.97826e-05
4.48548e-05
-6.16223e-05
4.3591e-05
-5.71267e-05
4.41212e-05
-5.44772e-05
4.89139e-05
-5.04986e-05
5.6531e-05
-4.58834e-05
6.52901e-05
-4.19136e-05
7.41478e-05
-3.8309e-05
8.25653e-05
-3.45307e-05
9.03038e-05
-3.03069e-05
9.72083e-05
-2.55946e-05
0.000103138
-2.03828e-05
0.000107907
-1.45271e-05
0.000111499
-7.70027e-06
0.000114794
-2.41041e-07
0.00011491
1.20673e-05
0.000114141
2.41262e-05
0.000113627
3.54443e-05
0.000113834
4.63892e-05
0.000114651
5.81693e-05
0.00011526
6.98862e-05
8.25396e-05
0.000120723
2.77118e-05
-3.82354e-05
3.20644e-05
-3.21592e-05
2.39037e-05
-3.68943e-06
2.13017e-05
-1.14535e-07
1.94632e-05
-1.42598e-09
1.90589e-05
-1.07489e-11
2.07152e-05
-5.30301e-14
2.3156e-05
-1.66367e-16
2.54346e-05
-1.19322e-16
2.74395e-05
-1.17745e-15
2.96317e-05
-7.06367e-14
3.28874e-05
-2.94288e-13
3.70925e-05
-6.35585e-14
4.46711e-05
-1.05501e-14
5.58579e-05
-1.76966e-11
7.19853e-05
-7.0726e-11
9.50965e-05
1.07629e-06
0.000116227
7.35771e-06
0.000124704
2.14964e-05
0.000129045
4.20482e-05
0.000127311
5.99032e-05
0.000126308
7.08893e-05
7.95295e-05
0.000129318
1.00699e-05
2.44768e-23
3.8054e-06
-7.02565e-22
1.15972e-07
-9.27749e-21
1.43678e-09
-2.34129e-19
1.08019e-11
-4.24809e-18
5.31183e-14
-4.23843e-17
1.66328e-16
-8.45315e-17
6.0955e-19
-1.52332e-17
6.535e-19
-9.05829e-17
4.8112e-18
-1.12721e-15
4.56393e-16
-7.11474e-14
3.78067e-15
-3.0148e-13
3.40289e-15
-6.3877e-14
4.82126e-15
-5.775e-15
5.76573e-13
-1.82533e-11
4.25001e-12
-7.47889e-11
1.09792e-06
-1.29864e-08
8.09923e-06
-4.46997e-09
2.67122e-05
2.77953e-07
6.14282e-05
6.35884e-07
0.000104298
4.21387e-06
0.000124991
2.79143e-05
6.43055e-05
0.000140214
-4.88329e-25
5.99658e-23
-9.69211e-23
-6.06132e-22
-1.5073e-21
-7.89974e-21
1.96626e-22
-2.36639e-19
5.32381e-21
-4.27239e-18
-6.61153e-20
-4.26263e-17
-3.9084e-19
-8.6723e-17
-2.7755e-18
-2.50433e-17
-1.47653e-17
-6.59078e-16
-1.03824e-15
-1.84071e-15
-2.45598e-14
-5.1933e-14
1.07336e-14
-3.51921e-13
1.07737e-14
-5.77236e-14
3.23896e-14
-1.22971e-14
1.99815e-11
-9.73449e-11
1.00394e-10
-1.58213e-10
4.31565e-10
-1.34507e-08
8.36175e-09
-1.4234e-08
2.98894e-07
-1.80897e-10
8.90646e-07
4.92066e-08
3.96807e-06
1.70206e-07
2.55232e-05
3.54539e-07
8.6141e-07
7.06913e-05
-8.45482e-23
8.06023e-23
-3.20287e-22
-3.24298e-22
-8.2444e-21
-2.066e-20
-1.48536e-19
-1.07768e-18
-2.4491e-18
-2.10123e-17
-1.38319e-17
-1.70981e-16
-9.85572e-18
-3.17049e-16
-1.75888e-17
-1.2708e-16
4.25042e-16
-7.29476e-16
1.06636e-14
-8.10767e-14
-6.41629e-13
-7.36636e-12
2.52139e-14
-2.1699e-11
1.92114e-13
-4.56048e-12
2.33349e-13
-1.71709e-14
4.32786e-10
-9.52975e-13
7.13349e-09
-1.76161e-08
2.50554e-08
-4.63006e-08
4.21664e-08
-4.45277e-08
6.06204e-08
-4.25036e-08
8.81799e-08
-4.9384e-10
2.60836e-07
-9.14833e-09
6.43003e-07
-2.6627e-08
9.23014e-08
1.41264e-06
-5.8799e-23
1.2089e-22
-1.5667e-22
-2.27995e-22
-1.67191e-20
-2.17165e-20
-8.96503e-19
-1.98418e-18
-1.83409e-17
-4.64314e-17
-4.95815e-17
-3.1705e-16
-2.52979e-17
-5.33161e-16
-2.27853e-17
-3.08642e-16
6.53764e-15
-5.48343e-16
-7.61336e-13
-2.09679e-13
-2.34803e-12
-1.87401e-11
-8.1282e-13
-2.14138e-11
-1.15707e-13
-9.45531e-12
3.48694e-14
-2.21489e-14
5.81026e-11
-5.88935e-11
1.33774e-08
-3.27372e-08
3.0095e-08
-6.05706e-08
4.70877e-08
-5.90462e-08
7.13122e-08
-6.45451e-08
8.92474e-08
-1.62896e-08
7.7348e-08
4.0691e-09
4.876e-08
1.9603e-09
1.43611e-08
1.27024e-07
-7.95124e-24
1.40677e-22
-1.06929e-21
8.33343e-22
-1.36072e-20
-1.57681e-20
-1.09002e-18
-1.98782e-18
-2.06889e-17
-4.76943e-17
-4.98329e-17
-3.23023e-16
-3.67843e-17
-5.7299e-16
-2.02693e-17
-5.80711e-16
-7.18087e-16
-1.92264e-16
-1.48108e-12
-1.25568e-14
-2.34576e-12
-1.57738e-11
-1.84235e-12
-2.0063e-11
2.73228e-13
-1.13874e-11
9.85445e-15
-1.53597e-13
9.03988e-10
-5.38181e-14
5.81375e-09
-9.54763e-11
6.77222e-09
-3.21133e-08
9.80763e-09
-5.96132e-08
1.39797e-08
-3.18946e-08
2.3207e-08
-9.55454e-09
1.51907e-08
-4.87216e-10
1.1946e-08
5.18911e-09
8.89387e-09
1.74209e-08
2.56341e-23
1.56101e-22
-1.11574e-21
1.50034e-21
-7.34646e-21
-6.00672e-21
-7.39611e-19
-1.59407e-18
-1.35583e-17
-4.08923e-17
-2.87525e-17
-2.55531e-16
-2.979e-17
-5.62864e-16
-5.42631e-18
-8.64513e-16
-2.96196e-16
-2.43235e-16
-5.57245e-14
-5.53211e-15
-7.40412e-13
-1.81654e-14
-1.35802e-12
-3.34805e-14
-3.1046e-13
-4.00213e-12
-1.22929e-15
-1.18744e-12
1.70784e-15
-2.9295e-13
-9.54211e-11
-4.95396e-14
-2.30366e-09
-4.92443e-11
-2.50054e-09
-5.40399e-09
-2.67406e-09
-3.11349e-08
-1.59454e-09
-1.06347e-08
3.30977e-10
-2.44677e-09
2.60531e-09
2.8469e-09
6.87709e-09
4.56861e-09
1.08804e-23
1.70755e-22
-1.88332e-22
1.68901e-21
-2.71864e-21
-1.23353e-21
-3.43545e-19
-7.88609e-19
-3.77431e-18
-2.00668e-17
-9.42014e-18
-1.10188e-16
-6.74165e-18
-4.13497e-16
1.56615e-17
-9.30604e-16
1.05082e-17
-2.98594e-16
3.27297e-16
-1.84577e-14
2.68619e-16
-3.11333e-14
1.31638e-16
-4.71559e-14
3.83336e-15
-5.46916e-13
3.11383e-14
-1.1649e-12
1.12253e-14
-5.46249e-13
-1.89884e-14
-1.75521e-14
-4.70918e-11
-2.17093e-12
-5.22274e-09
-2.99863e-10
-6.24111e-09
-1.44728e-08
-8.14633e-09
-1.46979e-08
-4.98049e-09
-6.73643e-09
-3.18963e-09
1.00257e-09
4.16752e-09
-5.43299e-10
-1.42792e-24
1.72418e-22
-8.35832e-24
1.66464e-21
-2.46156e-21
1.21967e-21
-7.77532e-20
-2.49409e-19
-4.54255e-19
-6.32867e-18
-4.38639e-19
-3.40977e-17
5.74998e-18
-1.94031e-16
4.45239e-17
-8.72858e-16
4.71376e-17
-5.27794e-16
2.76497e-15
-1.73769e-14
4.42384e-15
-6.51128e-14
9.47848e-15
-1.66761e-13
3.55668e-14
-3.93096e-13
8.57056e-14
-1.16404e-12
1.13912e-14
-4.35597e-13
3.12085e-15
-1.06217e-14
-2.16788e-12
-2.05056e-16
-3.02026e-10
-5.27961e-15
-3.11954e-09
-4.46885e-13
-4.06486e-09
-2.04664e-11
-6.65336e-09
-6.70003e-10
-2.20651e-10
-1.26605e-09
3.85473e-09
1.39687e-08
-3.34145e-24
1.5687e-22
8.75178e-25
1.47781e-21
-1.39241e-21
1.77888e-21
-5.73849e-21
-5.57203e-20
1.48229e-20
-1.52806e-18
5.74437e-19
-8.36391e-18
7.95491e-18
-6.40186e-17
5.36106e-17
-6.68175e-16
7.94384e-17
-7.00856e-16
3.53229e-15
-5.65108e-16
2.03169e-14
-8.75762e-14
5.08814e-14
-3.20744e-13
5.80254e-14
-3.26686e-13
5.73208e-14
-4.76882e-14
2.88757e-15
-7.45606e-15
-5.81074e-18
-4.22429e-15
-1.83474e-17
-4.80831e-16
-5.21181e-15
-7.06492e-17
-4.52036e-13
-4.59368e-17
-2.0918e-11
-2.69368e-16
-6.909e-10
-1.32307e-14
-1.96356e-09
-7.14146e-13
-6.36891e-12
-2.17659e-09
-3.75799e-24
1.26957e-22
-1.00546e-23
1.16796e-21
-7.88752e-24
1.78838e-21
5.57762e-22
-8.44594e-21
2.89155e-20
-2.80913e-19
2.65308e-19
-1.70757e-18
3.49833e-18
-1.97443e-17
3.21576e-17
-2.31449e-16
6.54774e-17
-5.22738e-16
7.74122e-17
-5.80752e-16
1.11286e-14
-5.1261e-14
4.11936e-14
-2.23767e-13
2.52012e-14
-1.80192e-13
4.337e-16
-2.14898e-14
1.6379e-16
-5.8088e-15
-1.19662e-17
-2.70454e-15
-3.18048e-18
-5.76757e-16
-6.18537e-18
-5.18618e-17
-1.31382e-17
-2.58717e-17
-2.33265e-16
-3.46109e-17
-1.34209e-14
-2.84823e-17
-7.27404e-13
-1.16554e-16
-9.56441e-15
-9.64397e-12
-3.16398e-24
9.02498e-23
-1.42207e-23
8.10311e-22
-2.40665e-23
1.46502e-21
2.1197e-22
-4.96729e-22
8.68903e-21
-3.71952e-20
7.49154e-20
-3.10272e-19
1.31115e-18
-5.93327e-18
1.77032e-17
-6.08318e-17
5.14607e-17
-2.7623e-16
2.1913e-16
-7.84447e-16
7.71777e-15
-1.55309e-15
2.51595e-14
-3.5502e-14
4.68558e-15
-3.47076e-14
6.04074e-16
-1.82501e-14
1.68452e-16
-6.7233e-15
9.78358e-18
-2.35994e-15
-4.21789e-18
-4.61473e-16
-3.57599e-18
-3.70944e-17
-7.18023e-18
-9.09056e-18
-8.21646e-18
-1.17625e-17
-9.09401e-18
-1.82541e-17
-7.72663e-17
-3.72439e-17
-9.07227e-17
-9.50447e-15
-2.2286e-24
5.55766e-23
-1.29105e-23
4.85725e-22
-2.96646e-23
1.00031e-21
4.55798e-23
1.9937e-22
1.50993e-21
-3.43886e-21
1.7074e-20
-5.36618e-20
4.45298e-19
-1.47211e-18
5.09607e-18
-1.49377e-17
1.67707e-17
-8.64017e-17
8.18979e-17
-5.42657e-16
6.2621e-17
-2.69157e-16
1.21573e-15
-1.25778e-16
1.76533e-15
-8.28485e-17
1.55901e-15
-9.78998e-16
2.77684e-16
-1.70205e-15
4.12589e-17
-1.17672e-15
7.51964e-19
-2.79354e-16
-2.34478e-19
-2.48109e-17
-5.15769e-19
-2.13012e-18
-1.40516e-18
-2.12376e-18
-3.97451e-18
-5.36237e-18
-5.78632e-18
-1.38575e-17
-3.32327e-17
1.30284e-17
-1.35865e-24
2.9146e-23
-9.07604e-24
2.46932e-22
-2.54421e-23
5.67518e-22
-7.09699e-24
1.87652e-22
1.7403e-22
-1.65791e-22
3.5105e-21
-9.244e-21
1.1906e-19
-2.79682e-19
1.35067e-18
-2.83517e-18
9.16774e-18
-1.45844e-17
5.96711e-17
-1.07979e-16
2.0298e-17
-1.35224e-16
7.50395e-18
-8.90863e-17
7.19716e-18
-5.83888e-17
7.89913e-17
-2.09482e-17
1.00415e-16
-1.14997e-17
5.63059e-17
-1.42076e-17
5.20338e-18
-1.3306e-17
2.22387e-19
-7.65007e-18
9.2493e-20
-1.23713e-18
1.07274e-19
-8.03163e-19
7.86395e-19
-2.33291e-18
4.74952e-18
-7.23308e-18
-2.35188e-17
2.76034e-17
-7.16074e-25
1.27307e-23
-5.14611e-24
1.04056e-22
-1.67428e-23
2.62468e-22
-7.71711e-24
1.01447e-22
1.75569e-23
1.1867e-23
6.86299e-22
-1.49862e-21
2.39835e-20
-4.39599e-20
2.63681e-19
-4.20711e-19
1.51139e-18
-2.11377e-18
9.3879e-18
-1.07102e-17
1.18166e-17
-2.34624e-17
1.19899e-17
-3.07003e-17
5.68522e-18
-2.71589e-17
1.07291e-18
-1.26829e-17
8.46127e-19
-2.28573e-18
1.05815e-18
-2.00142e-19
1.03127e-18
-4.75576e-20
4.9823e-19
-1.44165e-20
1.14533e-19
-2.58068e-20
1.25331e-19
-1.61139e-19
9.21226e-19
-1.03562e-18
4.78496e-18
-3.83725e-18
-1.68659e-17
2.69984e-17
-3.19844e-25
4.49524e-24
-2.35482e-24
3.52804e-23
-8.6075e-24
9.58425e-23
-4.6337e-24
3.85867e-23
-6.93256e-25
8.92797e-24
1.20928e-22
-1.98884e-22
3.97233e-21
-5.65048e-21
4.13323e-20
-6.23291e-20
2.27505e-19
-2.84203e-19
1.16487e-18
-2.09248e-18
2.31321e-18
-4.45537e-18
2.73678e-18
-4.31448e-18
2.50007e-18
-3.09872e-18
1.03308e-18
-1.44537e-18
5.28734e-20
-3.59335e-19
6.07042e-21
-3.22917e-20
2.28662e-21
-6.13611e-22
1.81813e-21
-6.05673e-22
6.54845e-21
-5.85534e-21
6.93466e-20
-6.11839e-20
6.24105e-19
-4.75771e-19
3.32875e-18
-2.06316e-18
-1.25336e-17
2.23883e-17
-1.16912e-25
1.23061e-24
-8.53312e-25
9.23767e-24
-3.4058e-24
2.64236e-23
-1.91019e-24
1.05509e-23
-5.63334e-25
2.80785e-24
1.726e-23
-1.82295e-23
5.38561e-22
-5.75916e-22
6.47992e-21
-8.15514e-21
3.32832e-20
-4.11708e-20
2.44249e-19
-2.1187e-19
3.84112e-19
-3.48588e-19
3.85261e-19
-3.35112e-19
2.42567e-19
-2.56161e-19
8.81497e-20
-1.31287e-19
1.40856e-20
-3.59148e-20
4.90234e-22
-3.73661e-21
7.82507e-23
-8.41836e-23
1.10168e-22
5.15737e-24
2.64007e-21
-1.84593e-21
3.62564e-20
-2.43997e-20
3.55105e-19
-2.23681e-19
2.10491e-18
-1.14595e-18
-9.75454e-18
1.82086e-17
-3.33265e-26
2.45225e-25
-2.36143e-25
1.75681e-24
-1.00019e-24
5.17569e-24
-5.56561e-25
2.01898e-24
-1.88523e-25
5.38692e-25
1.77804e-24
-9.33764e-25
5.757e-23
-4.26653e-23
8.96477e-22
-7.64358e-22
5.01716e-21
-5.04539e-21
2.28091e-20
-1.5402e-20
3.08061e-20
-2.7758e-20
3.24085e-20
-2.82069e-20
2.33263e-20
-2.33484e-20
9.70105e-21
-1.22963e-20
1.63607e-21
-2.42109e-21
2.15039e-22
-7.43491e-23
5.01432e-24
1.25841e-22
-1.94018e-24
8.72506e-23
1.02754e-21
-5.3729e-22
1.68097e-20
-9.81664e-21
1.89291e-19
-1.04782e-19
1.29326e-18
-6.54347e-19
-7.80836e-18
1.48848e-17
-6.91568e-27
3.18618e-26
-4.70285e-26
2.18293e-25
-2.06085e-25
6.56878e-25
-1.12037e-25
2.4951e-25
-3.8033e-26
6.53485e-26
1.24809e-25
-9.55513e-27
4.41998e-24
-1.81551e-24
8.84047e-23
-4.89004e-23
6.02265e-22
-3.83382e-22
1.75114e-21
-1.09731e-21
2.68749e-21
-1.98938e-21
2.98831e-21
-2.02119e-21
2.41155e-21
-1.67051e-21
9.55546e-22
-8.32792e-22
1.878e-22
-3.1937e-23
2.79393e-24
1.10657e-22
-4.55251e-23
1.54281e-22
-3.65731e-23
9.95314e-23
3.59042e-22
-1.27827e-22
7.44604e-21
-3.93467e-21
9.52197e-20
-4.77782e-20
7.89045e-19
-3.87888e-19
-6.38755e-18
1.21651e-17
-9.31471e-28
2.06808e-27
-6.071e-27
1.37272e-26
-2.7254e-26
4.30873e-26
-1.4418e-26
1.59237e-26
-4.80369e-27
4.10621e-27
6.19017e-27
7.79699e-28
1.94217e-25
-2.98757e-26
5.86177e-24
-1.74238e-24
4.61708e-23
-1.61393e-23
1.28972e-22
-4.90905e-23
1.99326e-22
-9.35696e-23
2.22844e-22
-9.47653e-23
1.78102e-22
-7.39119e-23
7.90609e-23
-2.66792e-25
7.88178e-25
4.63358e-23
-3.76859e-23
8.88748e-23
-6.01048e-23
9.13485e-23
-4.47319e-23
5.53562e-23
1.26964e-22
-2.94831e-23
3.15061e-21
-1.54422e-21
4.50091e-20
-2.08943e-20
4.90741e-19
-2.4394e-19
-5.37541e-18
9.96077e-18
-6.21888e-29
2.85082e-37
-3.94259e-28
1.9009e-35
-1.84994e-27
5.72085e-34
-9.50565e-28
1.07624e-32
-3.11647e-28
1.41578e-31
-7.20246e-29
1.65833e-30
3.36115e-27
-3.98073e-29
2.14969e-25
-2.39445e-26
1.99407e-24
-2.53792e-25
5.96423e-24
-1.20831e-24
9.47356e-24
-1.7957e-24
1.06295e-23
-1.48048e-24
9.38033e-24
4.04866e-25
3.62844e-27
9.10991e-24
-1.46018e-23
2.62822e-23
-3.18105e-23
3.56133e-23
-3.73061e-23
3.13887e-23
-2.59396e-23
1.7198e-23
4.81314e-23
-1.31566e-23
1.26007e-21
-5.81118e-22
1.9889e-20
-8.64686e-21
3.17929e-19
-1.62441e-19
-4.59341e-18
8.20689e-18
-8.74187e-39
1.4284e-37
-5.61852e-37
9.05109e-36
-2.53015e-35
2.84058e-34
-6.59669e-34
5.5095e-33
-1.10179e-32
7.97534e-32
-1.57054e-31
9.5191e-31
3.66396e-30
9.07712e-30
3.01744e-27
2.95398e-29
3.36436e-26
8.80477e-29
1.38374e-25
6.37935e-28
1.78665e-25
8.70608e-27
1.61053e-25
9.5965e-26
-1.02882e-25
8.36757e-25
-2.61779e-24
3.61656e-24
-8.54672e-24
7.16837e-24
-1.31306e-23
8.24349e-24
-1.31582e-23
6.50725e-24
-8.22572e-24
2.98894e-24
1.88047e-23
-6.79876e-24
4.68207e-22
-2.04076e-22
8.13644e-21
-3.3458e-21
2.11443e-19
-1.09013e-19
-3.77816e-18
6.70381e-18
-4.43734e-39
5.64915e-38
-2.74962e-37
3.42317e-36
-1.29011e-35
1.11772e-34
-3.45061e-34
2.22837e-33
-6.32695e-33
3.28302e-32
-9.18248e-32
3.95314e-31
-1.04017e-30
4.16588e-30
-3.95635e-30
3.32876e-29
-1.36211e-29
2.12673e-28
-1.13028e-28
1.27134e-27
-1.75612e-27
7.7912e-27
-2.19496e-26
4.74263e-26
-2.16497e-25
2.3087e-25
-1.05733e-24
6.75468e-25
-2.368e-24
1.10343e-24
-3.07943e-24
1.135e-24
-2.7529e-24
8.0222e-25
-1.43477e-24
2.45538e-25
6.6213e-24
-2.67747e-24
1.58948e-22
-6.58502e-23
3.05323e-21
-1.19509e-21
1.3606e-19
-6.77768e-20
-2.68621e-18
5.03231e-18
-1.773e-39
1.6599e-38
-1.06818e-37
9.67494e-37
-5.19553e-36
3.27768e-35
-1.41913e-34
6.69365e-34
-2.63999e-33
9.97623e-33
-3.85981e-32
1.1956e-31
-4.82724e-31
1.23548e-30
-4.5047e-30
1.11224e-29
-3.32212e-29
8.2746e-29
-2.27306e-28
4.99803e-28
-1.58483e-27
2.57837e-27
-1.09299e-26
1.16205e-26
-6.01181e-26
3.92544e-26
-1.98428e-25
8.81219e-26
-3.65435e-25
1.17254e-25
-4.23758e-25
1.04349e-25
-3.37808e-25
6.16137e-26
-1.16704e-25
2.44514e-27
1.96676e-24
-8.12116e-25
4.90975e-23
-1.94639e-23
1.04095e-21
-3.88226e-22
7.80798e-20
-3.60721e-20
-1.54117e-18
3.16992e-18
-5.2678e-40
3.24847e-39
-3.09419e-38
1.83072e-37
-1.55084e-36
6.41422e-36
-4.30762e-35
1.33657e-34
-8.07845e-34
2.00091e-33
-1.17351e-32
2.34919e-32
-1.43729e-31
2.31006e-31
-1.50947e-30
1.97491e-30
-1.29493e-29
1.44566e-29
-8.94318e-29
8.55279e-29
-5.24279e-28
3.9073e-28
-2.67342e-27
1.36556e-27
-1.01869e-26
3.61437e-27
-2.57446e-26
6.68837e-27
-3.85169e-26
7.0751e-27
-3.85165e-26
5.04916e-27
-2.55465e-26
1.91728e-27
-1.13872e-27
-4.45951e-27
5.23127e-25
-2.04676e-25
1.38061e-23
-5.23991e-24
3.19053e-22
-1.13262e-22
3.75806e-20
-1.58567e-20
-7.39078e-19
1.62063e-18
-1.04473e-40
3.28091e-40
-5.96599e-39
1.79453e-38
-3.06239e-37
6.47005e-37
-8.61792e-36
1.36897e-35
-1.61809e-34
2.04168e-34
-2.29876e-33
2.29831e-33
-2.67594e-32
2.02737e-32
-2.66599e-31
1.43894e-31
-2.24809e-30
8.38553e-31
-1.51909e-29
4.06e-30
-7.87674e-29
1.64002e-29
-3.11004e-28
5.44385e-29
-9.26876e-28
1.38587e-28
-1.92666e-27
2.23417e-28
-2.28552e-27
2.02193e-28
-1.82693e-27
1.11791e-28
-7.76343e-28
3.23558e-30
4.71603e-27
-1.42363e-27
1.21932e-25
-4.56352e-26
3.51827e-24
-1.27362e-24
8.7334e-23
-2.96657e-23
1.49319e-20
-5.77372e-21
-3.0006e-19
6.95342e-19
-1.07027e-41
3.79223e-42
-5.89811e-40
1.95764e-40
-3.07922e-38
6.77342e-39
-8.74441e-37
1.41181e-37
-1.63122e-35
2.1302e-36
-2.21884e-34
2.49663e-35
-2.31482e-33
2.35632e-34
-1.91317e-32
1.83485e-33
-1.28341e-31
1.19584e-32
-7.09173e-31
6.55405e-32
-3.24829e-30
2.98919e-31
-1.21667e-29
1.06884e-30
-3.48221e-29
2.47077e-30
-6.29384e-29
2.26916e-30
-6.37278e-29
1.28422e-30
-3.93576e-29
1.23966e-31
-1.27074e-30
-4.28575e-30
7.20593e-28
-2.47886e-28
2.57388e-26
-8.99962e-27
8.06466e-25
-2.78151e-25
2.1459e-23
-7.08093e-24
4.94836e-21
-1.76102e-21
-1.02855e-19
2.54132e-19
-1.25303e-43
1.02601e-44
-6.39601e-42
5.93006e-43
-3.16325e-40
2.29346e-41
-8.80483e-39
5.42064e-40
-1.65826e-37
9.38085e-39
-2.34597e-36
1.27254e-37
-2.61693e-35
1.40264e-36
-2.3719e-34
1.28501e-35
-1.77884e-33
9.86852e-35
-1.11221e-32
6.28788e-34
-5.7486e-32
3.15293e-33
-2.31758e-31
1.02357e-32
-6.01668e-31
8.78214e-33
-6.18663e-31
4.5058e-33
-3.91062e-31
4.1685e-34
-4.20799e-32
-1.16365e-32
3.20982e-30
-8.26727e-31
1.16782e-28
-3.80437e-29
4.77782e-27
-1.55938e-27
1.65507e-25
-5.45336e-26
4.80454e-24
-1.55816e-24
1.38008e-21
-4.52189e-22
-2.98114e-20
7.89177e-20
-3.4233e-46
1.83694e-47
-1.89147e-44
1.21788e-45
-1.03064e-42
5.39388e-44
-3.24011e-41
1.47831e-42
-6.98714e-40
2.99146e-41
-1.14314e-38
4.77807e-40
-1.48852e-37
6.20576e-39
-1.58685e-36
6.65309e-38
-1.40209e-35
5.85643e-37
-1.01896e-34
4.03629e-36
-5.78867e-34
1.78679e-35
-2.11791e-33
1.35789e-35
-2.03944e-33
6.1015e-36
-1.17051e-33
-4.55168e-37
-1.20815e-34
-1.41842e-35
7.49061e-33
-1.65362e-33
3.21102e-31
-9.80428e-32
1.67925e-29
-5.06959e-30
7.71166e-28
-2.3551e-28
3.02118e-26
-9.46854e-27
9.83233e-25
-3.09892e-25
3.23155e-22
-9.73728e-23
-7.21645e-21
2.06918e-20
-6.15996e-49
7.76216e-51
-3.71129e-47
6.56775e-49
-2.27738e-45
3.64684e-47
-8.2737e-44
1.2523e-45
-2.0826e-42
3.15474e-44
-4.00821e-41
6.18894e-43
-6.14659e-40
9.68539e-42
-7.66538e-39
1.20323e-40
-7.76136e-38
1.09995e-39
-6.10013e-37
5.49939e-39
-3.0588e-36
3.52272e-39
-2.61909e-36
1.32114e-39
-1.32032e-36
1.42813e-40
1.17575e-36
-1.0501e-38
7.453e-36
-1.65089e-36
5.29747e-34
-1.624e-34
3.54695e-32
-1.0029e-32
2.04756e-30
-5.72005e-31
1.06396e-28
-3.01844e-29
4.78748e-27
-1.40417e-27
1.78003e-25
-5.29445e-26
6.26123e-23
-1.7329e-23
-1.43605e-21
4.48163e-21
-2.59365e-52
2.51336e-55
-1.86383e-50
2.99518e-53
-1.4065e-48
2.20353e-51
-6.37853e-47
9.71737e-50
-1.99434e-45
3.00752e-48
-4.70854e-44
6.63175e-47
-8.69302e-43
9.2799e-46
-1.25551e-41
4.34087e-45
-1.31964e-40
2.0247e-45
-7.52161e-40
5.60026e-46
-5.45608e-40
-1.18677e-45
-2.30489e-40
-4.30083e-43
-2.79451e-41
-2.32825e-43
2.42029e-39
-7.66773e-40
4.25677e-37
-1.23428e-37
4.70195e-35
-1.18531e-35
3.22821e-33
-8.34895e-34
2.05321e-31
-5.23922e-32
1.21021e-29
-3.14603e-30
6.29186e-28
-1.70299e-28
2.68535e-26
-7.41552e-27
9.78668e-24
-2.47682e-24
-2.29099e-22
7.81915e-22
-8.23671e-57
1.32541e-59
-7.68562e-55
1.82013e-57
-7.52297e-53
1.42431e-55
-4.35943e-51
5.92068e-54
-1.66967e-49
1.17354e-52
-4.42331e-48
3.17216e-53
-7.29395e-47
5.24442e-54
-3.96339e-46
-7.30383e-56
-2.12427e-46
-4.35316e-54
-6.69546e-47
-1.71573e-49
1.60623e-46
-6.78863e-49
6.55534e-44
-1.1625e-45
3.97958e-44
-4.13314e-45
1.55307e-40
-4.41493e-41
2.76355e-38
-6.26192e-39
2.94014e-36
-6.47125e-37
2.31114e-34
-5.27894e-35
1.61615e-32
-3.728e-33
1.08248e-30
-2.5411e-31
6.5425e-29
-1.63311e-29
3.21515e-27
-8.33992e-28
1.19032e-24
-2.69589e-25
-2.79039e-23
1.064e-22
-4.1607e-61
2.66635e-63
-4.08823e-59
4.84315e-61
-4.16454e-57
4.05346e-59
-2.25851e-55
1.23887e-57
-5.5192e-54
2.325e-58
-1.78866e-54
2.75099e-59
-3.48025e-55
-3.20855e-58
1.87489e-55
2.10486e-57
7.63047e-55
7.38856e-54
2.58234e-50
7.97787e-51
5.87359e-50
-1.95804e-50
2.16258e-46
-8.34268e-48
4.48638e-46
-2.78461e-46
7.38855e-42
-1.40751e-42
1.16012e-39
-2.13933e-40
1.33455e-37
-2.43453e-38
1.21317e-35
-2.23947e-36
9.55833e-34
-1.93386e-34
7.25987e-32
-1.50693e-32
5.20792e-30
-1.18176e-30
2.99495e-28
-7.29291e-29
1.06539e-25
-2.00863e-26
-2.3975e-24
1.0744e-23
-7.77007e-65
1.21562e-67
-9.18614e-63
2.5278e-65
-9.80486e-61
1.17244e-63
-3.8717e-59
1.39763e-64
-8.91947e-60
1.10693e-65
-1.26232e-60
-3.97216e-64
1.73032e-59
6.16407e-62
-1.31644e-58
1.06056e-57
-5.30489e-55
2.67873e-54
-6.52462e-52
2.8241e-51
2.52305e-51
6.48535e-52
8.60408e-49
-4.3049e-50
3.34535e-47
-4.28333e-48
1.88187e-43
-2.47781e-44
3.18214e-41
-3.8562e-42