/*--------------------------------*- C++ -*----------------------------------*\
| =========                 |                                                 |
| \\      /  F ield         | OpenFOAM: The Open Source CFD Toolbox           |
|  \\    /   O peration     | Version:  2206                                  |
|   \\  /    A nd           | Website:  www.openfoam.com                      |
|    \\/     M anipulation  |                                                 |
\*---------------------------------------------------------------------------*/
FoamFile
{
    version     2.0;
    format      ascii;
    arch        "LSB;label=32;scalar=64";
    class       volScalarField;
    location    "0.75";
    object      alpha.water;
}
// * * * * * * * * * * * * * * * * * * * * * * * * * * * * * * * * * * * * * //

dimensions      [0 0 0 0 0 0 0];

internalField   nonuniform List<scalar> 
2268
(
0.999999
0.999999
1
1
1
1
1
1
1
1
1
1
1
1
0.999996
0.996867
0.958638
0.946919
0.998017
0.998031
0.997909
0.997103
0.99923
0.999999
1
1
1
1
1
1
1
1
1
1
1
1
1
0.999996
0.996029
0.952369
0.943548
0.949961
0.966848
0.962425
0.98114
0.999741
0.999999
1
1
1
1
1
1
1
1
1
1
1
1
1
1
0.999933
0.987279
0.945533
0.938817
0.938806
0.939265
0.986404
0.999745
1
1
1
1
1
1
1
1
1
1
1
1
1
1
1
1
0.999997
0.995953
0.983071
0.977737
0.981209
0.999984
0.999744
1
1
1
1
1
1
1
1
1
1
1
1
1
1
1
1
1
1
1
1
1
0.999984
0.999983
1
1
1
1
1
1
1
1
1
1
1
1
1
1
1
1
1
1
1
1
1
1
0.999981
1
1
1
1
1
1
1
0.999999
1
1
1
1
1
1
1
1
1
1
1
1
1
0.999996
0.999967
1
1
1
1
0.999104
0.986618
0.9885
1
1
1
1
1
1
1
1
1
1
1
1
1
1
0.999996
0.999972
0.542745
0.268883
0.268968
0.899639
0.900644
0.898873
0.835528
0.774911
0.792708
0.849715
0.870433
0.892845
0.892845
0.892845
0.89281
0.892492
0.891491
0.88969
0.886554
0.649872
0.269178
0.596798
0.900572
0.845867
0.36651
0.275275
0.294846
0.395281
0.513059
0.468595
0.590398
0.739305
0.81161
0.786767
0.761692
0.789982
0.847394
0.883597
0.652832
0.311323
0.804209
0.728025
0.231909
0.125719
0.145788
0.595941
0.729516
0.597135
0.520778
0.283138
0.261587
0.254399
0.240452
0.237445
0.248861
0.39128
0.731142
0.657993
0.702238
0.625349
0.231026
0.0748184
0.103252
0.484194
0.73358
0.733603
0.73358
0.733589
0.731166
0.359552
0.261587
0.315662
0.491607
0.326887
0.325167
0.32526
0.658005
0.657696
0.627712
0.0630261
0.0714706
0.0799221
0.732692
0.733349
0.73358
0.733603
0.733565
0.732718
0.728307
0.621826
0.697487
0.723663
0.692611
0.348309
0.327447
0.657696
0.588824
0.0967741
0.0530863
0.0630399
0.260009
0.73107
0.732483
0.733271
0.733277
0.732719
0.730899
0.715203
0.718265
0.723663
0.72765
0.730421
0.479681
0.329642
0.652801
0.609593
0.0505314
0.0515347
0.0530863
0.680134
0.728842
0.73098
0.732111
0.731542
0.727567
0.425673
0.275627
0.539346
0.72765
0.730421
0.731276
0.590342
0.33606
0.644917
0.532082
0.0464853
0.0490016
0.0741725
0.723535
0.726417
0.730256
0.728712
0.725425
0.552819
0.0128423
0.0131527
0.0967077
0.685737
0.731276
0.731527
0.66181
0.334216
0.524118
0.533647
0.543752
0.557284
0.597784
0.730605
0.894227
0.988144
1
1
1
1
1
1
1
1
1
1
1
1
1
0.999996
0.999982
0.0398815
0.0357295
0.0585784
0.102232
0.173291
0.280694
0.418518
0.581564
0.75678
0.884984
0.953739
0.985146
0.997511
1
1
0.999999
0.999996
0.999992
0.999992
0.999994
0.999995
0.999992
0.999979
0.000447539
6.87921e-05
5.87018e-05
0.00170754
0.00727175
0.0164586
0.0321557
0.0602409
0.117021
0.220783
0.347158
0.45239
0.537914
0.640118
0.749417
0.822217
0.868549
0.920757
0.958905
0.98227
0.996601
0.998835
0.999938
6.87353e-05
1.23886e-05
5.18651e-06
7.75061e-08
4.63077e-09
1.27729e-08
6.73369e-08
2.81074e-07
6.76761e-07
5.00315e-07
1.62496e-06
5.0542e-06
0.00674671
0.0579919
0.133034
0.218383
0.285373
0.340171
0.396517
0.454477
0.502058
0.54807
0.634493
1.23813e-05
4.92671e-06
6.4765e-07
7.85228e-09
1.93585e-09
9.57646e-10
3.53313e-09
2.09493e-08
5.94564e-08
1.51628e-07
4.93832e-07
1.61398e-06
5.0378e-06
1.33114e-05
3.41622e-05
0.000119745
0.00100285
0.00208683
0.00419496
0.00535771
0.0079383
0.0132782
0.017091
4.31954e-06
3.25548e-06
2.644e-07
1.53491e-09
1.24563e-09
4.53642e-10
2.07629e-10
4.0749e-09
1.50796e-08
2.69718e-08
1.60847e-06
1.44837e-05
1.69716e-05
1.78581e-05
1.88087e-05
3.41675e-05
0.000119745
0.000484567
0.00213181
0.0196806
0.0950584
0.12759
0.102392
1.29119e-06
2.29364e-06
1.37002e-07
8.57407e-10
3.83384e-10
3.0391e-10
4.10797e-11
2.85924e-09
7.18722e-09
2.05564e-08
2.75561e-07
1.56141e-05
2.58309e-05
1.64708e-05
1.67354e-05
6.31594e-05
0.00039317
0.0018553
0.0120435
0.306213
0.673585
0.72137
0.72766
1.55614e-07
4.34462e-07
8.27436e-08
3.79493e-10
8.46667e-11
7.23576e-11
9.98938e-12
2.89911e-09
5.17527e-08
4.75244e-08
5.03077e-08
1.08162e-05
2.59906e-05
1.42921e-05
5.84586e-06
5.16659e-05
0.000537767
0.00311241
0.0745253
0.477548
0.668179
0.683541
0.356225
1.93505e-08
1.14102e-08
1.77152e-08
9.32019e-10
7.99897e-11
2.00526e-11
9.01622e-12
1.35361e-09
5.80243e-08
1.00899e-07
1.62869e-07
3.15512e-06
7.28307e-06
1.97674e-06
9.73361e-07
2.22261e-05
0.000127806
0.000272038
0.0140217
0.122155
0.211701
0.12534
0.017188
2.33153e-09
1.43365e-09
3.12142e-10
2.26915e-10
5.2493e-11
1.03596e-11
8.89776e-12
2.51458e-10
2.5741e-08
7.77743e-08
2.24013e-07
1.03724e-08
1.55113e-08
8.55619e-09
6.37291e-08
8.4861e-07
5.74071e-06
5.461e-05
0.000393252
1.65629e-05
0.000127074
0.0183179
0.0415101
3.75201e-10
2.24923e-10
6.38144e-11
4.20139e-11
1.23291e-11
6.83651e-12
8.86681e-12
7.14949e-11
1.05386e-09
2.25422e-08
1.48495e-07
3.05084e-09
2.78833e-09
2.84511e-09
6.28334e-09
5.25065e-08
6.86318e-07
2.45437e-06
1.08065e-06
4.41883e-06
1.65629e-05
0.000615859
0.0120735
6.30252e-11
3.34514e-11
2.08516e-11
5.23389e-12
2.41189e-12
5.05725e-12
8.98187e-12
2.29043e-11
1.2445e-10
9.67082e-10
4.94917e-09
2.53271e-09
1.92047e-09
2.41145e-09
2.19588e-09
1.10069e-08
3.2324e-07
1.89528e-07
3.58414e-07
5.14805e-06
5.76873e-05
0.000203284
0.000222782
2.25096e-11
9.45984e-12
3.17974e-12
5.79639e-13
9.27771e-13
3.71715e-12
8.66347e-12
1.0136e-11
1.88757e-10
1.36148e-09
1.44969e-09
2.40843e-09
1.85742e-09
2.32884e-09
1.73538e-09
4.08313e-08
2.75076e-07
4.64513e-08
2.7168e-07
1.50146e-05
0.000255545
0.000242498
0.000246641
5.04048e-12
1.40892e-12
2.94438e-13
7.93546e-14
4.19608e-13
2.266e-12
7.21359e-12
7.68508e-12
1.62066e-10
1.93182e-09
2.325e-09
2.79682e-09
1.85335e-09
1.30608e-09
1.69149e-09
2.8575e-08
1.2115e-08
3.01347e-08
4.64513e-08
5.45772e-05
0.000256183
0.000238342
0.000679478
6.42812e-13
1.32594e-13
2.78099e-14
1.39945e-14
1.5782e-13
9.94354e-13
4.88015e-12
7.32904e-12
9.50437e-11
1.79965e-09
2.63415e-09
2.96306e-09
1.78908e-09
2.91967e-10
9.11389e-10
4.31487e-09
1.03366e-09
2.7412e-09
1.24335e-06
3.32173e-05
4.1004e-05
0.000121045
0.0181782
7.31386e-14
1.28258e-14
2.65046e-15
2.73641e-15
4.1624e-14
3.11627e-13
2.85655e-12
7.02489e-12
3.82764e-11
1.10148e-09
2.16131e-09
2.913e-09
1.3927e-09
3.25338e-11
2.19303e-10
3.75701e-11
3.92226e-10
2.83832e-09
7.78068e-07
9.9577e-07
7.87095e-06
0.000236503
0.0116454
8.41246e-15
1.24537e-15
2.47263e-16
4.91946e-16
7.87092e-15
8.15753e-14
1.53971e-12
6.25543e-12
1.41688e-11
3.25093e-10
1.03982e-09
2.00289e-09
6.49363e-10
4.37235e-12
2.60478e-11
1.60432e-11
4.98031e-11
2.33834e-10
8.39529e-09
2.70518e-07
8.10283e-06
0.00212754
0.00445117
9.50693e-16
1.16139e-16
2.04909e-17
7.35296e-17
1.24582e-15
2.09963e-14
7.2349e-13
4.53949e-12
6.33896e-12
4.59163e-11
2.35541e-10
6.82908e-10
1.4609e-10
1.16385e-12
2.89858e-12
5.82683e-12
8.29277e-12
6.39847e-11
2.93581e-09
1.08768e-07
0.000110429
0.00172717
0.00144906
1.03263e-16
8.937e-18
5.24369e-19
8.61393e-18
1.82405e-16
5.33267e-15
2.60626e-13
2.27362e-12
3.04028e-12
5.90376e-12
2.858e-11
1.02609e-10
1.83007e-11
4.03312e-13
4.80492e-13
1.74818e-12
1.40754e-11
2.41781e-11
5.99853e-10
3.8756e-08
6.7941e-05
0.000460483
7.09435e-05
1.00215e-17
2.40797e-19
-1.68655e-19
5.45001e-19
2.4891e-17
1.22694e-15
6.46031e-14
6.88715e-13
1.23631e-12
1.30199e-12
3.34537e-12
9.97877e-12
2.14354e-12
1.3115e-13
9.57292e-14
3.51056e-13
8.70584e-12
1.73366e-11
9.65808e-11
2.57159e-07
2.25879e-05
6.38085e-06
5.11314e-05
4.99005e-19
-4.78429e-19
-1.72343e-18
0
3.1742e-18
2.39039e-16
1.10205e-14
1.24766e-13
3.5069e-13
3.85485e-13
5.72421e-13
1.08572e-12
3.00509e-13
3.31895e-14
1.72362e-14
5.05336e-14
1.82021e-12
1.44431e-11
2.34069e-10
9.8872e-08
6.58469e-08
2.05215e-06
6.38086e-06
0
-8.73167e-19
-1.5006e-18
-4.44771e-20
3.5566e-19
3.87249e-17
1.4829e-15
1.62131e-14
6.49708e-14
1.051e-13
1.24024e-13
1.4341e-13
4.72952e-14
6.55927e-15
2.56695e-15
6.18242e-15
2.0366e-13
4.3248e-12
3.35753e-11
1.02638e-09
8.05461e-09
2.13037e-07
3.84482e-05
-4.16129e-19
-5.77108e-19
-9.86773e-19
-9.06397e-20
1.89723e-20
5.3289e-18
1.8422e-16
1.95384e-15
8.93745e-15
2.11007e-14
2.52584e-14
2.09954e-14
7.78529e-15
1.20204e-15
3.39635e-16
7.22803e-16
2.09911e-14
6.04993e-13
6.1391e-13
9.7161e-12
7.65718e-10
3.47019e-07
0.000148409
-3.94977e-19
-3.03055e-19
-5.59788e-19
-7.86447e-20
0
6.46603e-19
2.2277e-17
2.40611e-16
1.11103e-15
2.99003e-15
4.03969e-15
3.06511e-15
1.27265e-15
2.25648e-16
4.36293e-17
8.11668e-17
2.17746e-15
6.23545e-14
1.18696e-13
-1.82661e-12
5.38379e-11
3.48768e-09
2.97046e-05
-2.5472e-19
-1.40693e-19
-2.83827e-19
-5.15638e-20
-1.26986e-22
7.06093e-20
2.56504e-18
2.90107e-17
1.33467e-16
3.42101e-16
5.04078e-16
4.0858e-16
1.92046e-16
3.95925e-17
5.02244e-18
7.94819e-18
2.13438e-16
5.90325e-15
1.30025e-13
-4.0255e-13
1.04886e-11
4.32041e-10
2.12909e-08
-1.40196e-19
-5.96019e-20
-1.30479e-19
-2.83583e-20
-1.03923e-21
7.05734e-21
2.74163e-19
3.24277e-18
1.50092e-17
3.64499e-17
5.48392e-17
4.82668e-17
2.51554e-17
5.43328e-18
1.86385e-19
2.96728e-19
1.8483e-17
5.30501e-16
2.09573e-14
2.91203e-14
1.14556e-12
4.79916e-11
2.50045e-09
-6.96557e-20
-2.33372e-20
-5.48219e-20
-1.36188e-20
-7.74608e-22
6.03241e-22
2.71591e-20
3.30346e-19
1.54559e-18
3.72468e-18
5.63014e-18
5.13703e-18
2.75601e-18
3.45631e-19
-3.17934e-20
-1.45093e-35
9.95922e-19
4.34964e-17
1.18162e-15
2.29491e-14
1.31328e-13
4.66128e-12
2.45741e-10
-3.18644e-20
-8.5054e-21
-2.11684e-20
-5.83302e-21
-4.13312e-22
1.23304e-23
2.53865e-21
3.11639e-20
1.47395e-19
3.59673e-19
5.47879e-19
4.96297e-19
2.06544e-19
6.93532e-21
-5.05834e-19
-4.63044e-19
0
3.14516e-18
8.09362e-17
3.69851e-15
1.20899e-14
4.02323e-13
2.02924e-11
-1.35338e-20
-2.90035e-21
-7.54467e-21
-2.25806e-21
-1.84007e-22
0
2.29114e-22
2.78639e-21
1.32837e-20
3.27585e-20
4.95193e-20
3.90936e-20
4.29083e-21
-1.39579e-19
-5.09699e-19
-5.04897e-19
-3.93242e-20
8.77246e-20
5.28433e-18
1.38612e-16
1.14635e-15
3.01072e-14
1.42953e-12
-5.35979e-21
-9.29767e-22
-2.49138e-21
-7.97554e-22
-7.18488e-23
-2.93874e-41
1.93466e-23
2.38765e-22
1.14278e-21
2.81736e-21
3.83624e-21
7.24793e-22
-1.19418e-20
-1.52292e-19
-3.52797e-19
-3.54639e-19
-1.38879e-19
0
3.45961e-19
6.68703e-18
1.00584e-16
2.83434e-15
1.2207e-13
-1.98444e-21
-2.81548e-22
-7.64819e-22
-2.58881e-22
-2.51925e-23
-6.02276e-25
1.46908e-24
1.95087e-23
9.29545e-23
2.14298e-22
1.37325e-22
0
-2.16057e-20
-1.00995e-19
-1.96117e-19
-1.96979e-19
-1.0028e-19
-2.92763e-21
5.34663e-21
4.43011e-19
6.53011e-18
1.66491e-16
6.57998e-15
-6.88212e-22
-8.09324e-23
-2.1897e-22
-7.76763e-23
-8.04092e-24
-3.454e-25
6.85507e-26
1.43631e-24
6.4263e-24
8.52854e-24
2.48429e-24
-1.7203e-21
-1.50742e-20
-5.25134e-20
-9.21228e-20
-9.1715e-20
-5.15048e-20
-1.32571e-20
-3.03303e-38
4.07979e-20
4.30383e-19
8.90425e-18
3.08792e-16
-2.239e-22
-2.21901e-23
-5.86534e-23
-2.16503e-23
-2.35724e-24
-1.38034e-25
0
5.89058e-26
1.17882e-25
1.35249e-25
-8.75297e-23
-1.31356e-21
-7.72033e-21
-2.29491e-20
-3.74899e-20
-3.67764e-20
-2.15272e-20
-7.46655e-21
-2.9855e-38
3.49157e-21
3.40246e-20
4.53525e-19
1.29478e-17
-6.84196e-23
-5.82744e-24
-1.47465e-23
-5.63012e-24
-6.38778e-25
-4.71314e-26
-6.41393e-27
7.96426e-28
-7.34684e-42
-4.1065e-24
-7.48833e-23
-6.75793e-22
-3.25764e-21
-8.70077e-21
-1.34274e-20
-1.29112e-20
-7.66378e-21
-2.9536e-21
-4.21634e-22
4.17041e-39
2.75817e-21
2.2349e-20
4.96959e-19
-1.96601e-23
-1.47053e-24
-3.49175e-24
-1.37147e-24
-1.60808e-25
-1.46668e-26
-9.79977e-27
-2.82635e-26
-2.62357e-25
-3.56057e-24
-3.90151e-23
-2.80196e-22
-1.18533e-21
-2.91669e-21
-4.28209e-21
-4.01608e-21
-2.37654e-21
-9.50544e-22
-2.10468e-22
3.73188e-39
1.79647e-22
2.02704e-21
1.882e-20
-5.31766e-24
-3.57247e-25
-7.81486e-25
-3.14155e-25
-3.77681e-26
-4.2818e-27
-5.86306e-27
-2.43343e-26
-1.8541e-25
-1.82375e-24
-1.60368e-23
-9.94753e-23
-3.81293e-22
-8.76232e-22
-1.2276e-21
-1.11737e-21
-6.50754e-22
-2.60877e-22
-6.6171e-23
-7.84284e-25
7.84872e-24
1.71868e-22
7.38434e-22
-1.35536e-24
-8.35772e-26
-1.65956e-25
-6.79307e-26
-8.30921e-27
-1.18927e-27
-2.59362e-27
-1.22792e-26
-8.69917e-26
-7.33228e-25
-5.60836e-24
-3.11843e-23
-1.10247e-22
-2.38465e-22
-3.19049e-22
-2.80362e-22
-1.5889e-22
-6.23863e-23
-1.63964e-23
-1.64041e-24
1.15881e-40
9.05465e-24
2.39245e-23
-3.25948e-25
-1.88098e-26
-3.35742e-26
-1.39213e-26
-1.71971e-27
-3.16268e-28
-9.56342e-28
-4.86395e-27
-3.29397e-26
-2.50829e-25
-1.72991e-24
-8.80235e-24
-2.90169e-23
-5.93461e-23
-7.57744e-23
-6.39376e-23
-3.48841e-23
-1.31699e-23
-3.40766e-24
-4.53991e-25
0
3.41994e-25
4.62301e-25
-7.40834e-26
-4.06633e-27
-6.49772e-27
-2.71496e-27
-3.36392e-28
-8.07125e-29
-3.08744e-28
-1.64296e-27
-1.0752e-26
-7.58327e-26
-4.81065e-25
-2.26933e-24
-7.02587e-24
-1.36238e-23
-1.65767e-23
-1.33594e-23
-6.94544e-24
-2.48066e-24
-6.10983e-25
-8.6308e-26
-1.08702e-27
8.78903e-27
2.29525e-26
-1.59478e-26
-8.42161e-28
-1.20793e-27
-5.05971e-28
-6.25049e-29
-1.97738e-29
-8.96815e-29
-4.91995e-28
-3.12852e-27
-2.07293e-26
-1.22492e-25
-5.40494e-25
-1.5796e-24
-2.90891e-24
-3.3671e-24
-2.57901e-24
-1.26551e-24
-4.21393e-25
-9.62846e-26
-1.31276e-26
-5.72865e-28
1.99469e-28
2.86713e-27
-3.26116e-27
-1.67113e-28
-2.16509e-28
-9.04905e-29
-1.11002e-29
-4.65047e-30
-2.38568e-29
-1.33648e-28
-8.28399e-28
-5.20378e-27
-2.88935e-26
-1.20038e-25
-3.32422e-25
-5.82074e-25
-6.40019e-25
-4.64019e-25
-2.13172e-25
-6.5349e-26
-1.35716e-26
-1.69238e-27
-8.53701e-29
3.3763e-30
2.16567e-28
-6.35575e-28
-3.13931e-29
-3.75447e-29
-1.55777e-29
-1.88459e-30
-1.04921e-30
-5.89387e-30
-3.34995e-29
-2.02871e-28
-1.21608e-27
-6.38647e-27
-2.51086e-26
-6.60785e-26
-1.10068e-25
-1.14702e-25
-7.83054e-26
-3.33105e-26
-9.23577e-27
-1.69546e-27
-1.81889e-28
-7.88042e-30
-7.06182e-49
4.4059e-30
0.999905
0.999898
0.99988
0.949949
0.999907
0.999892
0.999863
0.750969
0.999896
0.999831
0.950253
0.373134
0.814885
0.971381
0.909045
0.166137
0.065764
0.47571
0.833103
0.175603
0.192728
0.607707
0.807697
0.412452
0.731864
0.741155
0.757276
0.746822
0.200837
0.214669
0.393154
0.477739
0.00872055
0.00564637
0.0198751
0.092898
0.0398564
0.00537056
0.00492012
0.00517817
0.0241594
0.0188486
0.00490494
0.00492012
0.00489427
0.0348754
0.00492012
0.00489938
0.000271611
0.0629572
0.0129478
0.0052729
0.0260505
0.0701272
0.0637373
0.00675725
0.0698871
0.0701272
0.0698871
0.0546823
0.0226672
0.0381009
0.0448982
0.0451029
0.000456997
0.000460167
0.00564972
0.0443679
0.00031907
0.00146816
0.0288629
0.0397349
0.000102721
0.00687277
0.0463047
0.0352092
0.000181052
0.0241974
0.0463047
0.0301281
0.00247834
0.0416594
0.0463047
0.00967218
0.0193329
0.0412997
0.0290811
3.55458e-05
0.0186352
0.0337383
0.000843508
3.22013e-05
0.0048035
0.00300311
0.000160872
7.34234e-05
9.9495e-06
3.26173e-05
3.65696e-05
6.72521e-06
1.26323e-06
6.48675e-06
1.02596e-06
1.43183e-08
1.23078e-07
4.87645e-07
1.51684e-07
9.34986e-10
9.44862e-09
1.8179e-08
7.12225e-09
3.6588e-10
4.55244e-10
6.44514e-10
3.02218e-10
8.81377e-11
2.33342e-11
5.40118e-11
2.90133e-11
1.37767e-11
8.61919e-13
4.86525e-12
2.14041e-12
9.18218e-13
3.18294e-14
1.75994e-13
1.78932e-13
1.0899e-13
1.5636e-15
7.32327e-15
2.2081e-14
6.37583e-14
6.38977e-17
5.79834e-16
5.65422e-15
9.25826e-14
2.03057e-18
3.69532e-17
1.81062e-15
2.804e-14
1.4166e-20
2.0117e-18
2.77117e-16
8.43275e-15
2.77639e-22
6.16251e-20
3.66744e-17
1.07627e-15
3.13513e-23
6.04687e-22
9.48769e-18
1.26312e-16
1.41166e-24
3.61829e-23
1.63993e-18
2.99942e-17
3.35651e-26
2.14768e-24
1.45722e-19
1.4457e-17
6.00498e-28
4.71795e-25
6.96641e-21
5.17838e-19
9.50717e-30
2.70267e-26
1.02122e-23
1.12079e-22
0.52478
0.113671
0.0465062
0.0464936
0.436763
0.722105
0.724173
0.720921
0.72351
0.577948
0.094194
0.0128378
0.0126966
0.0324068
0.427882
0.731527
0.731527
0.559123
0.328625
0.125542
0.0315877
0.0416717
0.126985
0.713219
0.720391
0.717179
0.466963
0.360644
0.100202
0.0127174
0.0125067
0.0128857
0.0149139
0.0187311
0.4523
0.731527
0.53826
0.277382
0.0312892
0.0247869
0.0358508
0.422538
0.70992
0.71372
0.566009
0.102978
0.0276503
0.0224809
0.0125035
0.0128857
0.036578
0.0536932
0.0223497
0.10471
0.579069
0.507831
0.277382
0.0247546
0.0232733
0.033305
0.586432
0.695098
0.509218
0.446304
0.284346
0.15943
0.0370568
0.0135273
0.0299365
0.27313
0.310411
0.0539897
0.160455
0.563255
0.560043
0.279137
0.0232733
0.0234984
0.228581
0.652782
0.375945
0.0718597
0.435199
0.528982
0.53343
0.404199
0.201482
0.158371
0.32797
0.328082
0.263705
0.308721
0.560295
0.563071
0.69275
0.0247546
0.215714
0.685374
0.667935
0.251065
0.0517201
0.458053
0.53343
0.534529
0.53343
0.53343
0.4949
0.297133
0.317336
0.282824
0.132137
0.200861
0.333283
0.86342
0.595144
0.688588
0.694922
0.634825
0.0141233
0.00160533
0.10997
0.441548
0.53343
0.534536
0.530095
0.522136
0.186726
0.111288
0.111288
0.111288
0.113712
0.197171
0.864884
0.402796
0.556428
0.694555
0.586676
0.00160533
0.000245094
0.000286383
0.00125202
0.250335
0.475965
0.522136
0.500176
0.328007
0.157869
0.234052
0.321879
0.512011
0.747664
0.86528
0.181463
0.27421
0.422626
0.45802
0.010738
4.56681e-05
5.16706e-06
2.15515e-05
7.89671e-05
0.00043431
0.216995
0.337484
0.391934
0.478822
0.551011
0.573143
0.57592
0.68511
0.86528
0.00713033
0.0903706
0.251392
0.139102
0.00739628
4.94711e-06
7.24649e-07
2.31317e-07
2.49022e-07
-1.8071e-05
-2.69882e-05
-1.15282e-06
0.0449495
0.0440705
0.00720435
0.00146661
0.000415826
0.0422974
0.328547
0.0051755
0.0712764
0.187607
0.00482129
0.000942425
4.66729e-07
6.92862e-07
5.05928e-07
3.16063e-07
2.18196e-07
1.66411e-07
1.56638e-07
1.58964e-07
1.65034e-07
2.09683e-07
3.8096e-07
7.0692e-05
0.00041582
0.00210518
0.0151304
0.134184
0.159491
0.00269601
-2.47379e-06
8.07935e-07
7.22765e-07
1.58336e-06
5.56786e-07
1.66162e-07
1.60129e-07
1.60468e-07
1.60043e-07
1.60468e-07
1.65035e-07
2.09587e-07
3.79944e-07
0.00409115
0.0459565
0.0580971
0.13349
0.106482
9.55295e-05
2.26814e-06
1.68472e-06
1.10028e-06
1.15759e-05
1.54135e-05
2.95946e-06
1.66429e-07
1.60273e-07
1.60468e-07
1.65034e-07
2.08984e-07
3.80536e-07
9.29766e-07
0.00564838
0.0726642
0.103127
0.132052
0.046183
3.10718e-05
2.23758e-06
2.17336e-06
1.64844e-06
1.37218e-05
2.44779e-05
2.10557e-05
2.25156e-07
1.88719e-07
1.89503e-07
2.26711e-07
5.62422e-07
1.31834e-06
1.27771e-06
5.2536e-05
0.0727726
0.119787
0.119298
0.00983698
1.10175e-05
2.17226e-06
2.13083e-06
2.12442e-06
6.51392e-06
2.44779e-05
2.44779e-05
2.25187e-06
4.14259e-07
3.65639e-07
5.93825e-07
2.19454e-06
6.66309e-06
2.45725e-06
9.47457e-06
0.0714283
0.116875
0.0521
0.0112961
4.87555e-06
2.13078e-06
2.12442e-06
2.1189e-06
2.13753e-06
2.44779e-05
2.41339e-05
2.48016e-06
1.05936e-06
1.15479e-06
4.07951e-06
8.54977e-06
3.29356e-05
9.47214e-06
4.03069e-05
0.0331737
0.0260949
6.13715e-05
0.00359737
6.59661e-05
2.1619e-06
2.11963e-06
2.11963e-06
2.61021e-06
2.43717e-05
8.9113e-06
5.42867e-07
1.11873e-05
9.90245e-06
1.88518e-05
6.77896e-05
0.000669039
4.23926e-05
0.00071732
0.0108417
5.3636e-05
2.29737e-05
5.65986e-05
0.000402622
1.12029e-05
2.1619e-06
2.11881e-06
1.62561e-05
2.34949e-05
4.24444e-06
1.5596e-07
9.09273e-05
0.000135211
3.96865e-05
0.0015316
0.00463447
0.000673464
0.00265425
0.0464193
1.52382e-05
1.47511e-05
1.36884e-05
0.000252186
4.12762e-05
1.51187e-05
2.53846e-05
2.66712e-05
2.19579e-05
9.65306e-07
7.14681e-08
0.000125847
0.000216375
0.000183899
0.00459296
0.00491228
0.00431066
0.00361483
0.0469891
1.47511e-05
1.38346e-05
4.92267e-06
3.82712e-06
2.67579e-05
1.88725e-05
7.30508e-06
8.43525e-07
2.75175e-08
5.23417e-08
6.42494e-08
4.57597e-05
0.000185158
0.000314402
0.0049453
0.00495163
0.00489868
0.00321661
0.0469891
1.52388e-05
1.80182e-05
5.45665e-06
1.5464e-08
2.86615e-07
5.26267e-07
1.65066e-09
8.98326e-09
1.61112e-08
2.75175e-08
1.28757e-07
5.48945e-07
4.13901e-05
0.000325459
0.0049504
0.00490447
0.00234985
0.00129839
0.0266834
3.85127e-05
1.38718e-05
6.11436e-06
2.94028e-09
1.04429e-09
1.26337e-09
1.52145e-09
1.65066e-09
6.272e-08
1.58442e-07
4.28496e-07
3.87607e-07
1.5859e-06
0.000259937
0.00490447
0.00206299
6.6589e-06
0.000240642
0.0204994
3.146e-05
3.49631e-06
3.90584e-09
1.04429e-09
8.645e-10
1.18419e-09
1.26337e-09
3.73357e-07
4.93013e-06
3.83019e-06
6.7859e-07
4.6141e-07
5.09384e-07
6.04049e-05
0.00378928
6.6589e-06
4.37043e-06
6.6589e-06
0.0846207
1.83245e-07
1.40113e-08
1.46541e-09
7.68748e-10
6.84104e-10
7.63428e-10
1.08943e-09
6.04939e-06
7.68536e-06
5.62614e-06
7.46126e-07
5.09384e-07
5.52224e-07
0.000144186
4.80242e-05
7.35033e-06
3.63728e-06
0.000262405
0.0946243
2.27649e-08
2.49774e-09
2.76005e-10
1.06996e-10
4.43754e-10
5.78905e-10
4.00567e-06
7.93995e-06
7.83702e-06
2.03236e-06
6.3528e-07
6.68104e-07
6.43317e-07
0.000912683
5.62924e-05
3.237e-06
2.67343e-06
0.000854181
0.0946589
1.6613e-09
1.96868e-10
5.78701e-11
5.31275e-11
7.17074e-11
1.39607e-07
7.78234e-06
7.93995e-06
5.44195e-06
1.88427e-07
4.26663e-07
2.76196e-05
3.28835e-05
0.00106682
0.000252989
2.26199e-06
1.78962e-06
0.00163944
0.0946589
1.25194e-10
2.12563e-11
4.05225e-11
4.89492e-11
5.31275e-11
4.64286e-06
7.7966e-06
7.93995e-06
1.30848e-06
1.02107e-07
1.78426e-07
6.90441e-05
0.000101411
0.00106682
0.000156102
1.7888e-06
1.78962e-06
0.00186531
0.0946589
2.21636e-11
1.2856e-11
2.66129e-11
3.92025e-11
4.50369e-08
7.12017e-06
7.61309e-06
3.0407e-06
1.28901e-08
6.14442e-08
2.05224e-05
0.000114132
0.000100238
0.000798795
2.0037e-06
1.81712e-06
1.78949e-06
0.00187322
0.0943849
4.43981e-11
1.052e-11
4.4553e-10
7.91953e-11
1.49629e-07
2.45716e-06
1.53335e-06
5.48409e-09
5.71135e-09
1.28901e-08
4.95188e-05
0.000113472
0.000734013
2.48419e-06
2.16931e-06
1.84527e-06
1.88217e-06
0.00200718
0.0930227
5.50004e-12
2.07494e-12
6.06512e-09
5.07365e-08
1.58547e-08
3.95624e-09
4.05176e-09
4.69092e-09
5.48364e-09
2.44544e-07
4.0106e-05
0.000228895
0.000941729
1.4952e-05
2.48419e-06
2.20671e-06
2.53708e-06
0.00226792
0.039713
1.11376e-12
4.7551e-12
2.97185e-11
1.59842e-08
1.39635e-08
3.91664e-09
4.58995e-08
2.8007e-08
5.71114e-09
4.5427e-06
3.27064e-05
0.00019484
0.000929098
1.05858e-05
4.05718e-06
3.45201e-06
4.10052e-06
0.000965365
1.14948e-08
2.4227e-12
2.15799e-10
2.89168e-10
2.6467e-12
1.03909e-12
2.63245e-12
4.11092e-08
2.52129e-08
8.27665e-09
2.27287e-06
1.80192e-05
0.000239937
0.000406659
1.23304e-05
6.43631e-05
8.91107e-05
3.21163e-06
1.07165e-08
1.14948e-08
2.37695e-12
1.60938e-11
1.71266e-11
8.35649e-12
6.4177e-13
1.01359e-12
2.99449e-11
3.01768e-09
2.42137e-08
2.92591e-07
3.53817e-07
0.000996025
0.000592113
0.000442382
0.001162
0.00022253
8.98643e-07
1.24525e-08
1.10264e-08
3.18742e-13
7.01596e-13
8.21222e-13
6.0709e-13
5.91131e-13
-5.7582e-13
5.00018e-10
6.21764e-06
1.62332e-05
3.64405e-06
8.77768e-07
0.00103182
0.00148662
0.00148601
0.00148634
0.000326596
3.16786e-07
1.84776e-08
1.24525e-08
9.03659e-14
1.40433e-13
1.26716e-13
6.2421e-14
6.15358e-14
-6.85582e-12
7.72784e-09
2.33262e-05
5.63744e-05
1.50116e-05
1.37333e-06
0.000298756
0.0014805
0.00148679
0.00148273
0.000206302
4.37032e-07
1.88082e-08
6.215e-09
1.54813e-14
1.33577e-14
1.34649e-14
2.42996e-14
5.24172e-14
-4.2938e-12
1.75179e-05
5.63744e-05
5.65554e-05
4.81345e-05
2.25755e-06
5.35064e-06
0.000401995
0.0014805
0.000541846
2.43468e-06
1.5638e-07
5.67247e-09
4.4692e-10
2.26619e-15
2.24921e-15
1.00488e-13
5.22861e-14
3.23234e-13
1.1263e-06
5.61675e-05
5.65554e-05
5.66372e-05
5.65981e-05
1.91471e-05
1.32283e-05
7.98878e-05
0.000159383
1.48351e-05
3.43295e-08
1.49423e-09
-2.41898e-09
3.16817e-12
5.26041e-16
5.36933e-16
5.76659e-12
4.27715e-13
6.31908e-12
3.12905e-06
3.6671e-05
5.59363e-05
5.65554e-05
5.66372e-05
5.65218e-05
3.76312e-05
3.24288e-06
1.33808e-06
4.37161e-08
2.97385e-09
8.92534e-11
-2.10428e-11
4.83236e-13
1.814e-16
2.83893e-18
4.01121e-11
1.62452e-10
4.40441e-08
2.18979e-13
4.13342e-07
9.59082e-06
2.85561e-05
5.64007e-05
5.61574e-05
5.59084e-05
1.42004e-05
7.90798e-08
7.21471e-09
2.96604e-10
-2.62988e-12
4.32609e-13
5.24617e-14
9.0906e-18
1.46562e-18
8.89077e-11
4.69264e-10
3.43582e-11
3.37512e-14
1.1878e-13
5.00104e-12
2.41499e-11
1.34467e-05
4.05355e-05
2.81295e-05
3.06175e-06
6.10333e-07
1.24383e-08
8.79751e-11
-1.65447e-12
1.60198e-14
2.01068e-15
8.8557e-20
9.04099e-20
8.46495e-11
4.94076e-10
1.49584e-11
3.66317e-23
3.37512e-14
1.75502e-13
5.00104e-12
4.59323e-12
5.03636e-10
1.49921e-06
1.94266e-06
7.3346e-07
3.04568e-12
-3.7785e-12
-1.38104e-13
-1.7623e-15
2.37243e-20
3.57279e-22
7.13603e-16
6.05377e-30
5.20146e-18
0
-7.17941e-32
1.07106e-12
1.15428e-10
2.45108e-11
-2.20699e-20
-7.30231e-18
2.17472e-07
9.98883e-08
-9.54007e-15
-2.92313e-15
-2.2759e-15
-1.18062e-17
-3.09549e-19
0
)
;

boundaryField
{
    leftWall
    {
        type            zeroGradient;
    }
    rightWall
    {
        type            zeroGradient;
    }
    lowerWall
    {
        type            zeroGradient;
    }
    atmosphere
    {
        type            inletOutlet;
        inletValue      uniform 0;
        value           nonuniform List<scalar> 
46
(
-6.35575e-28
-3.13931e-29
-3.75447e-29
-1.55777e-29
-1.88459e-30
-1.04921e-30
-5.89387e-30
-3.34995e-29
-2.02871e-28
-1.21608e-27
-6.38647e-27
-2.51086e-26
-6.60785e-26
-1.10068e-25
-1.14702e-25
-7.83054e-26
-3.33105e-26
-9.23577e-27
-1.69546e-27
-1.81889e-28
-7.88042e-30
-7.06182e-49
4.4059e-30
9.50717e-30
0
0
0
0
0
0
0
0
0
0
0
0
0
0
0
0
0
0
0
0
0
0
)
;
    }
    defaultFaces
    {
        type            empty;
    }
}


// ************************************************************************* //
