/*--------------------------------*- C++ -*----------------------------------*\
| =========                 |                                                 |
| \\      /  F ield         | OpenFOAM: The Open Source CFD Toolbox           |
|  \\    /   O peration     | Version:  2206                                  |
|   \\  /    A nd           | Website:  www.openfoam.com                      |
|    \\/     M anipulation  |                                                 |
\*---------------------------------------------------------------------------*/
FoamFile
{
    version     2.0;
    format      ascii;
    arch        "LSB;label=32;scalar=64";
    class       surfaceScalarField;
    location    "0.75";
    object      alphaPhi0.water;
}
// * * * * * * * * * * * * * * * * * * * * * * * * * * * * * * * * * * * * * //

dimensions      [0 3 -1 0 0 0 0];

oriented        oriented;

internalField   nonuniform List<scalar> 
4432
(
-4.51372e-06
4.51372e-06
-9.37186e-06
4.85813e-06
-1.3445e-05
4.07319e-06
-1.69751e-05
3.53002e-06
-1.9405e-05
2.42992e-06
-1.94595e-05
5.45017e-08
-1.73492e-05
-2.1103e-06
-1.4811e-05
-2.53813e-06
-1.32554e-05
-1.55565e-06
-1.28615e-05
-3.93898e-07
-1.33681e-05
5.06594e-07
-1.45338e-05
1.16575e-06
-1.61801e-05
1.64629e-06
-1.81477e-05
1.96755e-06
-1.98695e-05
1.72208e-06
-2.04862e-05
8.34632e-07
-2.18131e-05
1.81347e-06
-2.76549e-05
4.88179e-06
-3.27734e-05
5.12869e-06
-3.1256e-05
-1.50681e-06
-2.26262e-05
-8.59988e-06
-1.01447e-05
-1.24153e-05
-1.0152e-05
-6.30383e-06
1.08175e-05
-1.14146e-05
9.96887e-06
-1.51964e-05
7.85506e-06
-1.84145e-05
6.74804e-06
-2.04338e-05
4.44923e-06
-2.02653e-05
-1.13976e-07
-1.7967e-05
-4.4086e-06
-1.50963e-05
-5.40883e-06
-1.32953e-05
-3.35667e-06
-1.27935e-05
-8.95662e-07
-1.31187e-05
8.31843e-07
-1.39597e-05
2.00671e-06
-1.52392e-05
2.92579e-06
-1.70651e-05
3.79351e-06
-1.97299e-05
4.38724e-06
-2.32349e-05
4.75583e-06
-2.66706e-05
6.30876e-06
-2.95959e-05
7.57383e-06
-2.82893e-05
3.25885e-06
-2.2647e-05
-6.98276e-06
-1.52622e-05
-1.58159e-05
-6.94225e-06
-2.10113e-05
-1.70987e-05
-5.66232e-06
1.64799e-05
-1.01613e-05
1.44678e-05
-1.39603e-05
1.16542e-05
-1.77342e-05
1.05219e-05
-2.05291e-05
7.24411e-06
-2.07151e-05
7.1982e-08
-1.85873e-05
-6.53637e-06
-1.57358e-05
-8.26037e-06
-1.38105e-05
-5.28199e-06
-1.31728e-05
-1.53335e-06
-1.3299e-05
9.58078e-07
-1.36714e-05
2.37916e-06
-1.40469e-05
3.30124e-06
-1.44727e-05
4.21931e-06
-1.54018e-05
5.3164e-06
-1.74355e-05
6.80628e-06
-1.90019e-05
8.69556e-06
-1.84484e-05
7.82062e-06
-1.55399e-05
2.90835e-07
-1.11303e-05
-1.14545e-05
-6.91631e-06
-2.01094e-05
-2.19075e-06
-2.64439e-05
-1.92935e-05
-4.37793e-06
2.08578e-05
-8.29046e-06
1.83803e-05
-1.19793e-05
1.5343e-05
-1.55833e-05
1.41259e-05
-1.81498e-05
9.8106e-06
-1.87104e-05
6.32567e-07
-1.74299e-05
-7.81682e-06
-1.56719e-05
-1.00184e-05
-1.43725e-05
-6.5814e-06
-1.38938e-05
-2.01208e-06
-1.40853e-05
1.14958e-06
-1.44699e-05
2.76381e-06
-1.46637e-05
3.49506e-06
-1.44569e-05
4.01243e-06
-1.38898e-05
4.74933e-06
-1.30402e-05
5.95673e-06
-1.1469e-05
7.12448e-06
-8.45459e-06
5.08559e-06
-5.24729e-06
-2.88449e-06
-2.77986e-06
-1.4417e-05
-1.17324e-06
-2.28391e-05
9.64971e-07
-2.8583e-05
-1.83323e-05
-2.7004e-06
2.35582e-05
-5.59282e-06
2.12728e-05
-8.45517e-06
1.82054e-05
-1.09402e-05
1.6611e-05
-1.24933e-05
1.13637e-05
-1.31855e-05
1.32472e-06
-1.35913e-05
-7.411e-06
-1.41208e-05
-9.48892e-06
-1.4538e-05
-6.16412e-06
-1.47254e-05
-1.82471e-06
-1.50308e-05
1.45493e-06
-1.53994e-05
3.13241e-06
-1.55666e-05
3.66231e-06
-1.53131e-05
3.75891e-06
-1.44371e-05
3.87334e-06
-1.25747e-05
4.09436e-06
-9.36073e-06
3.91047e-06
-5.42935e-06
1.15421e-06
-2.39839e-06
-5.91545e-06
-8.61979e-07
-1.59534e-05
-1.09907e-07
-2.35912e-05
1.79659e-06
-3.04903e-05
-1.65366e-05
-6.13192e-07
2.41714e-05
-1.75444e-06
2.2414e-05
-3.33239e-06
1.97833e-05
-4.36002e-06
1.76386e-05
-4.56895e-06
1.15726e-05
-5.36373e-06
2.11949e-06
-8.01592e-06
-4.75881e-06
-1.14726e-05
-6.03223e-06
-1.41791e-05
-3.45764e-06
-1.54802e-05
-5.23607e-07
-1.60552e-05
2.02994e-06
-1.63637e-05
3.44087e-06
-1.63856e-05
3.68429e-06
-1.60503e-05
3.42352e-06
-1.52588e-05
3.0819e-06
-1.36561e-05
2.49162e-06
-1.09244e-05
1.17884e-06
-7.60564e-06
-2.16459e-06
-5.04747e-06
-8.47364e-06
-3.85744e-06
-1.71435e-05
-2.21206e-06
-2.52366e-05
2.35685e-07
-3.29381e-05
-1.6301e-05
1.48296e-06
2.26884e-05
2.07482e-06
2.18221e-05
2.68631e-06
1.91718e-05
3.76654e-06
1.65584e-05
4.31218e-06
1.10269e-05
2.36698e-06
4.0647e-06
-2.97165e-06
5.79815e-07
-9.2089e-06
2.05015e-07
-1.37198e-05
1.05326e-06
-1.61499e-05
1.90647e-06
-1.71371e-05
3.01715e-06
-1.73809e-05
3.68471e-06
-1.71728e-05
3.47611e-06
-1.66203e-05
2.8711e-06
-1.57855e-05
2.24703e-06
-1.44536e-05
1.15974e-06
-1.23989e-05
-8.75853e-07
-9.97238e-06
-4.59113e-06
-8.04505e-06
-1.0401e-05
-7.06644e-06
-1.81221e-05
-5.55864e-06
-2.67444e-05
-3.861e-06
-3.46356e-05
-2.01621e-05
3.3972e-06
1.92912e-05
7.11862e-06
1.81007e-05
1.07062e-05
1.55842e-05
1.33503e-05
1.39142e-05
1.25505e-05
1.03784e-05
6.64834e-06
8.79265e-06
-1.74844e-06
8.51721e-06
-9.04438e-06
7.50095e-06
-1.36553e-05
5.66417e-06
-1.64436e-05
4.69477e-06
-1.79371e-05
4.51061e-06
-1.83916e-05
4.1393e-06
-1.81043e-05
3.18878e-06
-1.73381e-05
2.10487e-06
-1.63549e-05
1.26381e-06
-1.50567e-05
-1.38437e-07
-1.3318e-05
-2.61456e-06
-1.13662e-05
-6.54293e-06
-9.89007e-06
-1.18771e-05
-9.43782e-06
-1.85743e-05
-9.92963e-06
-2.62526e-05
-1.04871e-05
-3.40781e-05
-3.06493e-05
1.5932e-05
-1.83304e-05
4.41839e-06
3.4462e-06
-1.16716e-05
8.08177e-06
-5.84694e-05
4.74361e-05
-0.000111743
5.37963e-05
-0.000141155
3.01556e-05
-0.000131265
1.00818e-06
-0.000105021
-1.70393e-05
-7.81679e-05
-2.49693e-05
-5.60691e-05
-2.23124e-05
-5.0047e-05
-4.70324e-06
-4.95995e-05
-4.435e-07
-5.11407e-05
1.54534e-06
-5.24625e-05
1.3263e-06
-5.12733e-05
-1.20793e-06
-4.72602e-05
-4.04137e-06
-3.75991e-05
-9.57897e-06
-1.76981e-05
-1.96393e-05
-1.96872e-05
4.21575e-06
-2.0677e-05
-1.40134e-05
1.42406e-05
-6.85724e-05
5.97396e-05
-0.000115003
9.43985e-05
-0.000104016
5.62396e-05
-6.45017e-05
1.09064e-05
-4.22284e-05
-1.5307e-05
-1.94737e-05
-3.69602e-05
-4.52578e-06
-4.96573e-05
1.3508e-05
-4.2607e-05
1.18899e-05
-6.78384e-06
-2.23466e-06
7.38301e-06
-2.83313e-05
1.92281e-05
-4.34723e-05
9.54953e-06
-4.62988e-05
1.94938e-06
-4.50016e-05
-1.4228e-06
-4.12965e-05
-9.25145e-06
-2.70901e-05
-2.92235e-05
-4.86321e-05
-8.17234e-06
-1.03691e-05
-4.77054e-05
4.87353e-05
-9.1994e-05
0.000105779
-6.60521e-05
7.55945e-05
-3.23599e-05
2.00689e-05
-2.48391e-05
-3.18607e-06
-2.27131e-05
-2.48482e-05
-1.27218e-06
-0.000119037
2.24192e-05
-9.97154e-05
2.7104e-05
-7.03383e-05
3.73889e-05
-3.86278e-05
3.23114e-05
3.16636e-06
2.85922e-05
1.64349e-05
1.77532e-05
1.40354e-05
8.52669e-06
9.62994e-06
-1.00902e-07
6.87335e-06
-4.42736e-06
5.84443e-08
-1.19922e-05
-1.40266e-05
-2.57029e-05
-2.78798e-05
1.87395e-05
-7.51218e-05
9.64924e-05
-6.07926e-05
9.69595e-05
-2.24262e-05
3.71642e-05
-1.47868e-05
7.82329e-06
-1.49515e-05
-9.21387e-06
-6.11897e-06
-0.000115245
1.43484e-05
-0.000139432
2.74008e-05
-0.000112689
3.91726e-05
-8.20263e-05
5.45222e-05
-5.38872e-05
6.49666e-05
-1.762e-05
4.60375e-05
2.05045e-05
3.18958e-05
2.16647e-05
3.58904e-05
4.32299e-05
3.21739e-05
3.42899e-05
1.48965e-05
1.61486e-05
4.29219e-06
-5.18101e-06
-1.92109e-05
-3.50981e-05
5.50639e-05
-5.9268e-05
0.0001219
-2.81703e-05
6.52905e-05
-1.2309e-05
1.87468e-05
-9.96128e-06
3.43532e-07
-1.30257e-05
-1.06318e-05
8.35494e-06
-0.000152066
1.6404e-05
-0.000147447
2.42982e-05
-0.000120511
3.47466e-05
-9.23828e-05
4.76666e-05
-6.6717e-05
6.11005e-05
-3.08944e-05
7.31916e-05
6.34828e-06
7.23621e-05
3.98501e-05
7.27941e-05
5.27955e-05
6.10152e-05
4.67458e-05
3.65339e-05
3.25517e-05
1.37569e-05
1.13755e-05
-6.74689e-06
-3.46317e-05
9.09333e-05
-3.83884e-05
0.000126713
-1.17483e-05
4.302e-05
-6.61898e-06
1.08553e-05
-5.81246e-06
-4.32633e-06
7.51999e-07
-7.79852e-05
1.00909e-05
-0.000161181
1.22352e-05
-0.000149552
1.70588e-05
-0.000125269
2.5473e-05
-0.000100674
3.75249e-05
-7.86097e-05
4.92741e-05
-4.24214e-05
6.22341e-05
-3.80359e-06
7.22878e-05
3.14026e-05
7.16534e-05
5.41069e-05
6.27573e-05
5.58628e-05
4.96582e-05
4.57629e-05
1.62702e-05
3.47709e-05
8.27335e-06
-3.36829e-05
0.000125907
-1.95535e-05
0.000114893
-6.64817e-06
2.75927e-05
-4.54279e-06
5.83195e-06
-4.66012e-06
-6.97116e-06
4.47938e-06
-0.000143909
5.86145e-06
-0.000162296
6.69797e-06
-0.000150155
9.50234e-06
-0.000127885
1.44364e-05
-0.000105273
2.07696e-05
-8.42908e-05
1.35478e-05
-5.37929e-06
1.94812e-05
-4.60494e-07
4.56438e-05
7.12557e-06
5.27073e-05
4.72643e-05
4.91389e-05
5.95433e-05
4.1009e-05
5.40138e-05
1.38535e-05
4.95242e-05
2.02561e-05
-3.08389e-05
0.000158071
-1.00176e-05
9.61693e-05
-4.77479e-06
1.92996e-05
-4.90996e-06
3.28254e-06
-9.59773e-07
-2.29243e-05
1.92225e-06
-0.000146714
6.07317e-07
-0.000161178
5.57809e-07
-0.000150349
7.73102e-07
-0.0001275
2.46038e-06
-0.000105902
4.04642e-06
-4.83109e-05
2.878e-08
-8.50262e-07
9.85275e-08
-5.59282e-07
7.77556e-06
1.91787e-07
2.5593e-05
2.89619e-05
2.95687e-05
5.56887e-05
2.6881e-05
5.68096e-05
7.87983e-06
5.24102e-05
2.59469e-05
3.26938e-06
5.54673e-07
3.38466e-06
8.73802e-07
3.44819e-07
1.2346e-06
-4.13994e-06
1.67884e-06
-1.00045e-05
2.63411e-06
-1.89965e-05
5.23946e-06
-2.80743e-05
8.01668e-06
-3.21251e-05
8.29181e-06
-3.44369e-05
7.97604e-06
-3.68071e-05
7.06488e-06
-3.89435e-05
6.64708e-06
-3.99852e-05
5.181e-06
-3.93517e-05
2.55529e-06
-3.7605e-05
3.58166e-07
-3.59409e-05
-4.00285e-07
-3.39134e-05
-2.16597e-06
-3.08496e-05
-5.67832e-06
-2.674e-05
-1.06526e-05
-2.34938e-05
-1.51232e-05
-2.30287e-05
-1.90394e-05
-2.6624e-05
-2.26572e-05
-3.59075e-05
-2.47945e-05
-1.83782e-05
-4.81781e-05
-3.65411e-06
-5.47624e-08
-4.5286e-06
-7.78074e-08
-6.49001e-06
-2.59094e-07
-9.35429e-06
-4.34656e-07
-1.38237e-05
-3.31115e-07
-2.01737e-05
-6.44112e-08
-2.77707e-05
2.58407e-07
-3.62706e-05
4.02599e-07
-4.13433e-05
4.52279e-08
-4.16934e-05
3.30947e-07
-3.91759e-05
9.68459e-07
-3.60417e-05
8.56484e-07
-3.40324e-05
2.93664e-07
-3.35614e-05
-1.12812e-07
-3.34844e-05
-4.78403e-07
-3.23098e-05
-3.34035e-06
-2.89593e-05
-9.02815e-06
-2.45572e-05
-1.50539e-05
-2.15068e-05
-1.81728e-05
-2.02226e-05
-2.03228e-05
-2.09355e-05
-2.19437e-05
-2.46188e-05
-2.11108e-05
-1.51232e-05
-2.78738e-05
-1.05393e-07
4.61343e-09
-1.94374e-07
1.56907e-09
-4.62861e-07
1.09522e-09
-1.02988e-06
7.50574e-09
-2.18411e-06
-1.37036e-10
-3.684e-06
-6.97643e-10
-5.65413e-06
-3.54573e-09
-8.84981e-06
-1.61547e-08
-1.49838e-05
-6.46181e-08
-2.3191e-05
-2.2816e-07
-2.97772e-05
-6.42378e-07
-3.31602e-05
-1.27259e-06
-3.43654e-05
-2.27383e-06
-3.37575e-05
-4.3533e-06
-3.19922e-05
-4.77132e-06
-3.12795e-05
-4.59473e-06
-3.29508e-05
-6.96861e-06
-3.45277e-05
-1.20814e-05
-3.34851e-05
-1.73397e-05
-2.93695e-05
-2.27409e-05
-2.35498e-05
-2.621e-05
-2.03009e-05
-2.36978e-05
-1.36691e-05
-2.17556e-05
-7.41709e-09
2.4382e-09
-8.43601e-09
8.22886e-10
-8.06638e-09
4.52286e-10
-2.34249e-11
2.28105e-10
-1.44256e-10
1.24137e-12
-8.42838e-10
-2.68658e-12
-4.37976e-09
-2.50545e-11
-2.04295e-08
-1.50062e-10
-8.51126e-08
6.30966e-11
-3.12823e-07
-4.60064e-11
-9.52501e-07
-1.95953e-09
-2.21824e-06
-5.26956e-09
-6.61327e-06
-1.90054e-08
-1.61064e-05
-5.3092e-08
-2.73435e-05
-1.86513e-07
-3.72102e-05
-6.96048e-07
-4.36932e-05
-2.73877e-06
-4.6349e-05
-3.77288e-06
-4.5213e-05
-1.42816e-06
-3.9346e-05
-5.20512e-06
-3.01186e-05
-4.82786e-06
-2.34508e-05
-3.39054e-06
-3.23317e-06
-2.34166e-05
-7.24852e-10
1.39968e-09
-6.52084e-10
1.50154e-10
-2.67798e-10
2.54513e-12
-3.228e-12
3.07579e-12
-1.17863e-12
1.34653e-13
-3.70086e-12
-1.75008e-13
-2.93594e-11
-3.491e-13
-1.82556e-10
-5.89639e-13
-1.16545e-10
-1.99897e-12
-1.61745e-10
1.96004e-12
-1.71942e-09
5.02359e-13
-6.01661e-09
-2.71543e-10
-2.17045e-08
-1.75382e-09
-7.52414e-08
-2.00177e-09
-2.67673e-07
-7.80582e-09
-9.81754e-07
-3.10212e-08
-8.40098e-07
-1.11492e-07
-9.71036e-07
-3.70014e-07
-1.29264e-06
-1.22845e-06
-1.32473e-06
-3.43967e-06
-1.05531e-06
-3.9946e-06
-1.43132e-06
-2.91527e-06
-3.18156e-07
-3.59965e-06
3.44475e-10
5.52969e-10
-4.91686e-12
2.59971e-10
-4.75455e-12
-7.20721e-12
-5.68021e-14
1.49907e-13
-2.78358e-14
5.13439e-14
-2.89766e-14
7.3002e-15
-3.96563e-13
-1.19501e-14
-1.3882e-12
-3.5863e-13
-1.23232e-12
-1.27482e-12
-1.30354e-13
3.19253e-12
-4.83587e-10
9.98163e-11
-8.74973e-10
5.01655e-10
-1.25687e-09
-2.55551e-11
-7.88097e-09
-1.21426e-09
-1.61505e-08
-6.36799e-09
-2.56351e-08
-3.52444e-08
-5.03889e-08
-1.35794e-07
-2.01866e-07
-4.14164e-07
-1.27269e-06
-1.13604e-06
-1.15724e-05
-6.0152e-06
-2.53447e-05
-2.83337e-05
-2.22743e-05
-3.10589e-05
-1.39534e-05
-1.65121e-05
2.24159e-10
9.00592e-11
2.60208e-11
1.12676e-10
2.96493e-13
9.92094e-12
9.77874e-15
4.66677e-13
3.00114e-15
3.73155e-14
2.99528e-15
9.82661e-15
1.26981e-15
8.87003e-15
3.50993e-14
1.39799e-13
2.58988e-13
1.40406e-12
4.68744e-13
2.12408e-12
-1.80091e-11
2.14069e-11
-1.46738e-10
5.20954e-10
-9.12086e-11
2.35542e-10
-2.39263e-09
8.12038e-11
-1.17279e-08
-9.23318e-10
-4.7836e-08
-2.40997e-08
-1.98008e-07
-1.6152e-07
-4.01e-07
-9.73418e-07
-3.78967e-06
-5.30044e-06
-0.000124089
-3.15344e-05
-0.000214907
-4.018e-05
-0.000212085
-2.85182e-05
-1.98987e-05
-0.000203505
4.50999e-11
1.09152e-11
1.74262e-11
-5.03046e-14
-2.36831e-13
6.09026e-12
-1.16381e-14
1.86207e-13
2.04585e-15
1.54102e-14
1.56697e-15
2.36078e-15
8.2027e-15
1.838e-15
2.33701e-13
1.7077e-13
1.02687e-12
4.39758e-12
2.11914e-12
7.33792e-12
2.52339e-11
4.53252e-12
8.03806e-11
2.08324e-10
1.5288e-11
4.46173e-10
8.77659e-10
2.42226e-10
-4.59331e-09
1.56369e-09
-7.33524e-08
1.88218e-08
-5.86112e-07
1.23365e-07
-2.62195e-06
2.46931e-07
-5.35567e-05
-2.4495e-06
-0.000193934
-2.26563e-05
-0.00021791
-1.74719e-05
-0.000196603
-2.36686e-05
-8.39858e-06
-9.39049e-05
5.55554e-12
8.59968e-13
1.76339e-12
5.53666e-13
2.70414e-13
-1.07422e-13
-6.23932e-15
7.03886e-14
1.18667e-15
8.06727e-15
7.05617e-16
1.122e-15
1.58903e-15
8.04689e-16
2.05454e-13
5.53274e-14
9.25185e-13
3.08299e-12
2.0305e-12
6.16599e-12
8.71425e-12
1.18743e-11
-8.30782e-12
-1.02587e-12
-3.40518e-11
1.63559e-12
1.90753e-11
7.44787e-13
9.04308e-10
2.6197e-11
3.28756e-09
1.17266e-10
6.41608e-08
-6.57705e-09
3.39107e-07
-4.36352e-08
-1.06674e-05
-1.08005e-08
-4.89048e-05
-2.14725e-07
-5.4639e-05
-1.75179e-06
-1.36172e-05
-3.76516e-06
-1.41229e-06
-4.14011e-06
1.8538e-13
1.08247e-13
2.1671e-13
8.72565e-14
1.79392e-14
-1.32858e-15
4.49831e-15
1.25659e-14
5.86515e-16
3.15627e-15
2.69663e-16
7.03826e-16
2.94074e-16
7.42469e-16
7.14398e-14
9.46528e-15
2.57123e-13
4.13018e-13
6.90228e-14
3.14865e-12
-8.8801e-14
1.59689e-11
-1.79631e-12
9.69414e-14
-1.79011e-12
2.1721e-13
-2.7849e-12
9.35474e-14
-1.14674e-11
2.03108e-12
-4.0315e-10
-9.64973e-12
-8.39921e-09
-1.68264e-10
-3.15044e-08
4.38383e-10
-1.01879e-08
-1.86222e-09
-2.23705e-07
-4.77706e-09
-1.96069e-06
-4.64374e-08
-5.67612e-06
-2.33008e-07
-1.099e-07
-4.92222e-06
3.86984e-15
2.17203e-14
1.57257e-14
9.95273e-15
2.74289e-15
6.45683e-15
7.56765e-16
1.748e-15
1.78007e-16
4.68909e-16
1.27105e-16
5.10629e-16
1.7424e-16
7.78147e-16
4.41484e-15
3.06112e-15
6.03222e-14
-1.45033e-15
8.39129e-14
1.78312e-13
-4.52992e-14
1.8654e-12
-8.92112e-14
1.13612e-13
-8.2336e-14
1.29925e-13
-1.40423e-13
9.53054e-14
-6.58398e-13
5.3002e-13
-2.80882e-11
-4.41586e-12
-2.0901e-10
-1.59299e-10
-4.79329e-11
3.50704e-11
-5.81722e-10
6.51184e-12
-4.16183e-09
3.67306e-12
-5.36993e-08
-4.69282e-10
-5.67918e-07
-3.65077e-10
-1.07341e-07
-2.40683e-06
4.456e-16
6.8348e-15
1.15294e-15
3.32724e-15
3.5424e-16
1.28833e-15
6.90804e-17
2.05918e-16
5.10276e-17
1.24588e-16
9.87729e-17
3.92304e-16
1.63474e-16
8.0338e-16
5.23912e-16
1.18493e-15
4.83799e-15
1.33088e-14
1.61521e-14
5.94011e-14
1.62463e-14
4.67706e-14
-3.86821e-15
1.51627e-13
-1.5788e-14
1.308e-13
-1.99238e-14
1.44593e-13
-5.52118e-14
2.59297e-13
-2.38985e-12
4.56692e-13
-7.31521e-12
-2.56379e-11
1.26511e-11
9.63371e-12
8.64815e-12
4.37186e-11
1.59005e-10
2.87086e-10
-1.4608e-09
3.55811e-09
-8.40875e-09
4.06434e-09
3.26704e-09
-1.21197e-07
1.19994e-16
1.67408e-15
9.82966e-17
5.72201e-16
2.52257e-17
1.23946e-16
1.17735e-17
2.46257e-17
1.56369e-17
5.39623e-17
7.27068e-17
2.76753e-16
1.28717e-16
7.5208e-16
2.02172e-16
7.33451e-16
4.43562e-15
1.57609e-14
1.53412e-14
1.31405e-13
1.06732e-14
1.338e-13
3.93657e-15
1.9002e-13
-5.80464e-15
1.37205e-13
-5.83389e-15
1.47632e-13
-3.63301e-14
1.30634e-13
-2.603e-12
2.4143e-12
-1.13019e-12
4.48295e-12
-2.76132e-14
4.23217e-12
-4.36834e-12
2.33195e-11
-1.09199e-09
1.21052e-09
-7.43819e-10
7.20026e-09
-5.37175e-09
1.19046e-08
7.63448e-09
-1.09628e-08
2.23085e-17
2.41675e-16
7.60281e-18
5.48495e-17
2.10755e-18
1.21143e-17
1.51335e-18
3.43944e-18
7.6881e-18
2.34563e-17
4.13601e-17
1.45595e-16
8.96684e-17
5.63905e-16
1.45822e-16
6.57647e-16
4.33885e-15
1.20573e-14
2.21318e-14
1.61337e-13
1.68664e-14
2.06109e-13
8.10393e-15
2.249e-13
-1.09877e-15
1.43683e-13
-2.99078e-15
5.75599e-14
-1.31466e-13
1.14454e-13
-1.29813e-13
6.82548e-13
-1.29577e-13
1.81859e-13
-1.4685e-12
3.02636e-12
-2.06019e-11
3.8154e-11
-2.29899e-09
2.69786e-09
-2.86021e-09
1.08338e-08
-6.64505e-09
1.71243e-08
-2.9053e-07
-1.05346e-08
2.9682e-18
2.84439e-17
6.00374e-19
5.34964e-18
2.08473e-19
1.19912e-18
1.85866e-19
5.71899e-19
2.66805e-18
7.46079e-18
1.67123e-17
5.12129e-17
6.44345e-17
3.40357e-16
1.22751e-16
6.34725e-16
2.64367e-15
5.64373e-15
2.14455e-14
1.38366e-13
1.62603e-14
2.12555e-13
9.45497e-15
2.47078e-13
-9.05087e-17
1.38613e-13
-1.20057e-15
7.59244e-15
-3.02565e-14
4.25032e-14
-1.69586e-14
7.83671e-15
-1.85524e-14
9.17645e-14
8.79262e-13
1.84237e-12
3.21001e-11
1.22631e-10
1.40674e-09
1.5798e-09
2.09928e-09
9.40583e-09
-6.48619e-08
6.56805e-08
-5.23627e-07
-4.9659e-06
3.47723e-19
3.36986e-18
4.93638e-20
5.30347e-19
2.46224e-20
1.16739e-19
2.67743e-20
1.01639e-19
6.42244e-19
1.57606e-18
4.91887e-18
1.34969e-17
3.89479e-17
1.85762e-16
9.92378e-17
6.02345e-16
9.39189e-16
1.9355e-15
1.28598e-14
5.97849e-14
1.44697e-14
1.45685e-13
8.01499e-15
2.28749e-13
6.59451e-19
9.2066e-14
-5.64679e-16
8.77497e-16
-1.1264e-15
6.41048e-15
-1.45266e-15
3.05365e-15
1.37362e-14
3.82508e-14
1.4285e-12
2.07833e-12
1.23096e-10
6.85185e-11
6.95435e-10
9.5114e-10
-1.3251e-09
1.05801e-08
-1.25609e-07
7.40932e-08
-1.69419e-07
-1.1251e-06
3.83235e-20
3.93241e-19
4.09691e-21
5.14032e-20
2.8376e-21
1.09721e-20
4.59525e-21
1.64567e-20
1.16877e-19
2.5862e-19
1.23371e-18
3.33975e-18
2.0796e-17
9.36767e-17
7.23112e-17
5.05492e-16
2.11089e-16
7.57392e-16
3.8416e-15
1.07871e-14
7.41473e-15
4.67402e-14
5.71938e-15
1.15999e-13
1.04004e-16
2.96504e-14
-6.38629e-17
1.83488e-16
-1.65367e-16
7.04198e-16
-8.70186e-17
1.07195e-15
2.08608e-14
1.36003e-14
1.3552e-12
7.22412e-13
4.23492e-11
2.67604e-11
-6.61683e-11
1.0304e-09
-4.86282e-09
1.23632e-08
-2.96008e-07
1.50107e-07
-7.5666e-09
-5.34409e-08
4.05523e-21
4.44617e-20
3.32137e-22
4.72188e-21
2.97795e-22
1.05827e-21
7.33499e-22
2.21868e-21
1.84712e-20
3.90198e-20
3.05093e-19
8.48523e-19
9.61549e-18
3.89037e-17
4.21266e-17
3.13799e-16
6.02184e-17
3.64015e-16
5.99172e-16
1.26501e-15
2.02374e-15
6.89591e-15
2.49113e-15
2.411e-14
5.7888e-17
4.4535e-15
-2.03264e-18
6.19718e-17
-1.93495e-17
1.01352e-16
-3.94545e-17
3.14675e-16
9.35109e-15
3.04553e-15
5.28105e-13
1.95102e-13
1.77714e-11
9.04733e-12
6.51643e-10
3.76804e-10
-3.51725e-08
1.72362e-08
-8.71618e-08
3.1273e-08
7.34193e-09
-4.40862e-08
4.19764e-22
4.79449e-21
2.73692e-23
4.31875e-22
2.14757e-23
8.0815e-22
1.04113e-22
2.2882e-22
2.73867e-21
5.5809e-21
7.54036e-20
2.06018e-19
3.49437e-18
1.1433e-17
2.03652e-17
1.19565e-16
2.67221e-17
1.68812e-16
8.00986e-17
2.10043e-16
3.39251e-16
7.82408e-16
5.76286e-16
2.64677e-15
1.6503e-17
5.22813e-16
7.85414e-19
2.21413e-17
-6.09331e-19
1.91094e-17
-2.07174e-17
7.74794e-17
1.58415e-15
1.57545e-15
1.75234e-13
1.92773e-14
7.91293e-12
1.2051e-12
3.21725e-10
4.48362e-11
-4.01422e-09
3.93076e-09
-2.98183e-09
1.56614e-09
1.77665e-09
-3.4516e-09
4.63834e-23
4.5739e-22
1.14151e-23
3.32054e-22
-6.60784e-25
-1.45792e-23
1.20901e-23
2.51096e-23
3.87009e-22
7.45955e-22
1.74336e-20
4.3471e-20
9.1549e-19
2.23594e-18
7.38398e-18
2.58525e-17
1.08213e-17
5.85691e-17
1.41126e-17
5.49124e-17
5.12981e-17
1.12053e-16
9.43074e-17
2.87082e-16
4.33759e-18
7.06202e-17
5.65207e-19
6.44233e-18
3.73093e-19
3.7473e-18
7.52566e-19
1.30628e-17
-5.28198e-18
5.07007e-16
1.25014e-14
3.61089e-15
1.08939e-12
1.12198e-13
-2.9212e-11
2.83363e-11
1.22513e-10
-1.11304e-11
-1.39858e-10
1.05689e-09
5.72269e-09
-6.77038e-09
6.02933e-24
1.14532e-22
-1.32355e-24
-4.01865e-23
-6.49311e-24
-1.47255e-22
6.40567e-24
1.22108e-23
5.2205e-23
9.20343e-23
3.55399e-21
7.64538e-21
1.74917e-19
3.23912e-19
1.71811e-18
3.65415e-18
3.3938e-18
1.2936e-17
4.08138e-18
1.62729e-17
8.82556e-18
2.14187e-17
1.48705e-17
3.62122e-17
1.10268e-18
1.06827e-17
1.77523e-19
1.40313e-18
1.57472e-19
6.32781e-19
6.87774e-19
1.78506e-18
2.00084e-17
6.48944e-17
1.02926e-15
1.07428e-15
6.81175e-14
3.52021e-14
1.54563e-12
2.0427e-12
1.87703e-11
2.87595e-11
-1.54187e-10
7.51079e-10
1.25341e-08
-7.73726e-09
4.24032e-25
2.62613e-23
-2.33174e-24
-7.2367e-23
-5.55637e-24
-1.26667e-22
-2.11411e-25
-3.81892e-24
6.71666e-24
9.12717e-24
6.25741e-22
1.13565e-21
2.73024e-20
4.16804e-20
2.8664e-19
4.48556e-19
8.64838e-19
1.94343e-18
1.27785e-18
3.91775e-18
1.7951e-18
4.53258e-18
2.40954e-18
4.97849e-18
2.61734e-19
1.6968e-18
4.27436e-20
2.56938e-19
3.97917e-20
9.11978e-20
1.71718e-19
2.27119e-19
6.31929e-18
7.31069e-18
2.25249e-16
1.97521e-16
4.2389e-14
6.49742e-15
1.28548e-12
4.25819e-13
1.32289e-11
1.48905e-11
-7.11746e-10
1.43024e-09
6.90909e-08
-7.76204e-08
-6.44659e-25
-3.93605e-23
-1.51581e-24
-4.72084e-23
-3.65275e-24
-8.22331e-23
-4.36253e-25
-7.68183e-24
1.08281e-24
1.31239e-24
9.63126e-23
1.47946e-22
3.89313e-21
5.20474e-21
4.19155e-20
5.57139e-20
1.60717e-19
2.49351e-19
3.01466e-19
6.50368e-19
3.73477e-19
8.28432e-19
3.83909e-19
7.08504e-19
5.87731e-20
2.73081e-19
8.90201e-21
4.67405e-20
7.91883e-21
1.23106e-20
3.18986e-20
2.76401e-20
1.25685e-18
8.47834e-19
3.93781e-17
2.41266e-17
6.26347e-15
3.10942e-16
3.48058e-13
8.29335e-14
1.10184e-11
3.95963e-12
8.43879e-10
3.24767e-10
6.78472e-08
-7.54873e-08
-6.16151e-25
-3.67437e-23
-7.93937e-25
-2.44692e-23
-2.09518e-24
-4.60215e-23
-3.86746e-25
-6.57287e-24
4.54648e-25
4.70992e-25
1.32481e-23
1.74487e-23
5.27745e-22
6.26486e-22
5.86825e-21
6.90447e-21
2.4752e-20
3.09954e-20
5.43274e-20
8.11367e-20
6.65358e-20
1.16684e-19
6.01351e-20
9.72469e-20
1.25727e-20
4.22983e-20
1.7881e-21
8.43195e-21
1.39329e-21
1.59378e-21
4.98163e-21
3.10474e-21
2.07214e-19
9.39229e-20
6.16485e-18
2.61042e-18
5.35842e-16
4.28954e-17
7.57996e-14
7.12243e-15
3.55223e-12
4.59746e-13
2.93963e-10
3.35502e-11
8.20739e-09
4.357e-08
-4.0198e-25
-2.32939e-23
-3.7096e-25
-1.12109e-23
-1.08068e-24
-2.30018e-23
-2.60135e-25
-4.24574e-24
-7.98276e-28
-1.04785e-26
1.65197e-24
1.88857e-24
6.75436e-23
7.08652e-23
7.84044e-22
8.11678e-22
3.44102e-21
3.68288e-21
7.88763e-21
9.10074e-21
1.01422e-20
1.364e-20
8.91132e-21
1.21407e-20
2.44417e-21
5.90116e-21
3.40725e-22
1.32023e-21
2.14089e-22
1.69007e-22
6.46899e-22
2.81912e-22
2.91914e-20
9.4455e-21
8.81611e-19
2.67613e-19
2.95604e-17
1.19007e-17
6.90235e-15
3.77539e-16
4.17264e-13
4.66502e-14
3.03056e-11
3.21678e-12
6.57544e-10
7.57557e-09
-2.23981e-25
-1.25969e-23
-1.58937e-25
-4.68556e-24
-5.06473e-25
-1.04158e-23
-1.46753e-25
-2.29834e-24
-6.74291e-27
-8.43892e-26
1.96004e-25
1.869e-25
8.04878e-24
7.46264e-24
9.74521e-23
8.8084e-23
4.3807e-22
4.04823e-22
1.01081e-21
9.79973e-22
1.33463e-21
1.47404e-21
1.2383e-21
1.36586e-21
4.03593e-22
7.10965e-22
5.07796e-23
1.47299e-22
2.25853e-23
1.25893e-22
5.77795e-23
5.49393e-23
3.50515e-21
8.21304e-22
1.12181e-19
2.49549e-20
3.32682e-18
6.53634e-19
3.51674e-16
2.49716e-17
4.10804e-14
4.09409e-15
2.94729e-12
2.95857e-13
4.71852e-11
6.12742e-10
-1.12394e-25
-6.1463e-24
-6.30237e-26
-1.80927e-24
-2.16797e-25
-4.30753e-24
-7.20899e-26
-1.08552e-24
-5.16396e-27
-6.18376e-26
2.49883e-26
1.45827e-26
8.90813e-25
7.37561e-25
1.11296e-23
8.84671e-24
5.10412e-23
4.10991e-23
1.1892e-22
9.99971e-23
1.59421e-22
1.51105e-22
1.53793e-22
1.40646e-22
5.28213e-23
7.03517e-23
2.7103e-23
1.17738e-23
-9.21564e-25
-2.70601e-24
5.96863e-24
1.4165e-23
3.35286e-22
1.06165e-22
1.20843e-20
2.08251e-21
3.46233e-19
5.1643e-20
2.14166e-17
2.91464e-18
3.83952e-15
2.29349e-16
2.7563e-13
2.2648e-14
2.65734e-12
4.47386e-11
-5.17511e-26
-2.75991e-24
-2.32317e-26
-6.49982e-25
-8.50557e-26
-1.63603e-24
-3.14433e-26
-4.5693e-25
-2.81381e-27
-3.24093e-26
4.32153e-27
2.8666e-27
9.25124e-26
6.9446e-26
1.17437e-24
8.36199e-25
5.47547e-24
3.91424e-24
1.29159e-23
9.58951e-24
1.74922e-23
1.45185e-23
1.6911e-23
1.30106e-23
5.35342e-24
5.08841e-24
2.61645e-24
7.94859e-24
-1.54394e-23
-4.10199e-23
-1.63527e-23
-3.78318e-23
4.05497e-23
4.92628e-23
1.11919e-21
1.48795e-22
3.19192e-20
3.8216e-21
1.79616e-18
1.72886e-19
2.2089e-16
6.53109e-18
2.13662e-14
1.36226e-15
1.26845e-13
2.54654e-12
-2.20695e-26
-1.15015e-24
-7.98889e-27
-2.18385e-25
-3.06788e-26
-5.73206e-25
-1.2325e-26
-1.73742e-25
-1.27024e-27
-1.41628e-26
1.02051e-27
5.75854e-28
9.08349e-27
6.25456e-27
1.15801e-25
7.53318e-26
5.46225e-25
3.53957e-25
1.29684e-24
8.67703e-25
1.75882e-24
1.27878e-24
1.51111e-24
9.51095e-25
1.18424e-24
3.84389e-24
-3.79657e-24
-1.07526e-23
-1.59297e-23
-3.92676e-23
-1.81801e-23
-3.88507e-23
-1.63654e-24
-3.01511e-24
8.40854e-23
2.32253e-23
2.57528e-21
2.58197e-22
1.25779e-19
9.86922e-21
5.94764e-18
3.12608e-19
1.32685e-15
3.2237e-17
5.38499e-15
1.22405e-13
-8.77392e-27
-4.46718e-25
-2.57219e-27
-6.89577e-26
-1.01964e-26
-1.85979e-25
-4.37885e-27
-6.02516e-26
-4.99035e-28
-5.42556e-27
6.13777e-29
1.54422e-29
8.37113e-28
5.28026e-28
1.07587e-26
6.48816e-27
5.10258e-26
3.04603e-26
1.19223e-25
7.33716e-26
1.57196e-25
9.3976e-26
2.03006e-25
6.48022e-25
-2.85207e-25
-8.83496e-25
-4.16066e-24
-1.12085e-23
-1.10327e-23
-2.57856e-23
-1.27077e-23
-2.56713e-23
-5.70844e-24
-9.91633e-24
9.84555e-24
7.67135e-24
1.86248e-22
1.52247e-23
8.26518e-21
5.61405e-22
2.76612e-19
1.6656e-20
3.0906e-17
7.49869e-19
2.20248e-16
5.1627e-15
-3.26826e-27
-1.62128e-25
-7.78646e-28
-2.05665e-26
-3.12863e-27
-5.60794e-26
-1.41873e-27
-1.91976e-26
-1.74562e-28
-1.86587e-27
-5.09039e-30
-4.44871e-29
7.63665e-29
3.9688e-29
9.42946e-28
5.28474e-28
4.43903e-27
2.44358e-27
9.2265e-27
5.33337e-27
1.78755e-26
7.6424e-27
1.62783e-27
5.6326e-27
-5.10762e-25
-1.53538e-24
-2.72136e-24
-7.09931e-24
-6.02044e-24
-1.3598e-23
-6.88681e-24
-1.34189e-23
-3.99099e-24
-6.67528e-24
-1.32493e-25
-1.88981e-25
1.09126e-23
2.02205e-24
4.95351e-22
3.04132e-23
1.4724e-20
7.76731e-22
6.83742e-19
3.04637e-20
7.71116e-18
2.11428e-16
-1.1437e-27
-5.50826e-26
-2.22593e-28
-5.82385e-27
-8.87708e-28
-1.57702e-26
-4.21052e-28
-5.654e-27
-5.50551e-29
-5.84077e-28
-2.88241e-30
-2.49954e-29
7.766e-30
4.19675e-30
7.64813e-29
3.78918e-29
3.36063e-28
1.64703e-28
8.31071e-28
4.37944e-28
1.24091e-27
4.88192e-27
-3.48846e-26
-1.19054e-25
-3.4758e-25
-1.02933e-24
-1.37433e-24
-3.52788e-24
-2.73255e-24
-6.06587e-24
-3.07893e-24
-5.88946e-24
-1.95357e-24
-3.20396e-24
-5.66814e-25
-7.91789e-25
1.02863e-24
4.26612e-25
2.807e-23
1.626e-24
7.1358e-22
2.95125e-23
2.74444e-20
1.14699e-21
2.34136e-19
7.42025e-18
-3.75904e-28
-1.75444e-26
-6.03148e-29
-1.57372e-27
-2.33214e-28
-4.15042e-27
-1.1482e-28
-1.54717e-27
-1.57702e-29
-1.67956e-28
-1.12438e-30
-9.78809e-30
9.59504e-31
2.11287e-30
5.02913e-30
3.28245e-30
2.89635e-29
9.11791e-29
6.10759e-29
2.77858e-28
-1.5087e-27
-5.93817e-27
-2.57365e-26
-8.78099e-26
-1.71382e-25
-5.07058e-25
-5.75704e-25
-1.47547e-24
-1.06039e-24
-2.34863e-24
-1.17015e-24
-2.23165e-24
-7.68512e-25
-1.25558e-24
-2.98111e-25
-4.14384e-25
1.10834e-25
1.76671e-26
1.5147e-24
8.74931e-26
3.22893e-23
1.25836e-24
1.03087e-21
3.5603e-23
6.22398e-21
2.25458e-19
-1.15824e-28
-5.24542e-27
-1.55244e-29
-4.07623e-28
-5.67749e-29
-1.026e-27
-2.88225e-29
-3.95192e-28
-4.11882e-30
-4.4665e-29
-3.69585e-31
-3.27644e-30
-5.97917e-32
-4.42649e-31
4.43605e-31
2.02548e-30
5.74955e-31
3.08584e-30
-5.93878e-29
-2.74455e-28
-1.23383e-27
-4.92934e-27
-1.26237e-26
-4.3687e-26
-6.8718e-26
-2.06091e-25
-2.06578e-25
-5.36361e-25
-3.5774e-25
-8.02243e-25
-3.84845e-25
-7.42613e-25
-2.5473e-25
-4.20696e-25
-1.09056e-25
-1.53036e-25
-1.72155e-26
-2.03252e-26
7.38145e-26
1.59268e-26
1.41003e-24
5.38455e-26
3.50155e-23
8.32072e-25
1.45045e-22
5.98959e-21
-3.33891e-29
-1.47386e-27
-3.79752e-30
-1.01562e-28
-1.28097e-29
-2.39148e-28
-6.6635e-30
-9.46346e-29
-9.82204e-31
-1.10432e-29
-1.08785e-31
-1.0004e-30
-8.63134e-32
-6.6269e-31
-2.90923e-31
-1.89161e-30
-3.11967e-30
-1.73401e-29
-4.8483e-29
-2.31823e-28
-6.04248e-28
-2.49525e-27
-4.90919e-27
-1.75438e-26
-2.33884e-26
-7.23678e-26
-6.45601e-26
-1.72791e-25
-1.05939e-25
-2.44685e-25
-1.10655e-25
-2.19696e-25
-7.26469e-26
-1.23292e-25
-3.21005e-26
-4.6207e-26
-7.81468e-27
-9.4388e-27
6.13912e-27
1.97299e-27
5.85462e-26
2.09383e-27
1.18196e-24
2.93212e-26
2.8746e-24
1.39494e-22
-8.97523e-30
-3.89674e-28
-8.81684e-31
-2.43944e-29
-2.67799e-30
-5.27742e-29
-1.41805e-30
-2.13358e-29
-2.13723e-31
-2.55041e-30
-2.93652e-32
-2.86917e-31
-4.76837e-32
-3.89003e-31
-2.31031e-31
-1.5955e-30
-2.03145e-30
-1.19832e-29
-2.28567e-29
-1.15866e-28
-2.28297e-28
-9.98337e-28
-1.59928e-27
-6.04524e-27
-6.88896e-27
-2.25202e-26
-1.77122e-26
-5.00287e-26
-2.76481e-26
-6.73134e-26
-2.79245e-26
-5.83656e-26
-1.79695e-26
-3.20538e-26
-7.92327e-27
-1.19619e-26
-2.19954e-27
-2.77774e-27
-2.83783e-29
-2.9479e-29
2.21943e-27
1.07906e-28
4.19786e-26
1.1528e-27
5.00597e-26
2.75098e-24
-2.23672e-30
-9.70831e-29
-1.93543e-31
-5.65139e-30
-5.18456e-31
-1.10729e-29
-2.77444e-31
-4.54828e-30
-4.23581e-32
-5.52681e-31
-7.32771e-33
-7.84259e-32
-1.89161e-32
-1.69146e-31
-1.04401e-31
-7.90254e-31
-8.52629e-31
-5.50934e-30
-8.21156e-30
-4.55586e-29
-7.12563e-29
-3.40689e-28
-4.4679e-28
-1.84453e-27
-1.77179e-27
-6.31921e-27
-4.27803e-27
-1.31696e-26
-6.36007e-27
-1.68581e-26
-6.18223e-27
-1.40512e-26
-3.8577e-27
-7.47232e-27
-1.65958e-27
-2.71567e-27
-4.75422e-28
-6.49043e-28