/*--------------------------------*- C++ -*----------------------------------*\
| =========                 |                                                 |
| \\      /  F ield         | OpenFOAM: The Open Source CFD Toolbox           |
|  \\    /   O peration     | Version:  2206                                  |
|   \\  /    A nd           | Website:  www.openfoam.com                      |
|    \\/     M anipulation  |                                                 |
\*---------------------------------------------------------------------------*/
FoamFile
{
    version     2.0;
    format      ascii;
    arch        "LSB;label=32;scalar=64";
    class       volScalarField;
    location    "0.75";
    object      p;
}
// * * * * * * * * * * * * * * * * * * * * * * * * * * * * * * * * * * * * * //

dimensions      [1 -1 -2 0 0 0 0];

internalField   nonuniform List<scalar> 
2268
(
565.106
565.342
567.399
572.013
581.6
598.29
620.731
644.259
666.344
687.313
707.36
726.434
744.355
760.819
775.593
787.602
794.721
797.605
799.623
808.586
830.369
852.114
854.417
505.422
505.106
506.987
511.332
520.457
537.537
561.138
585.27
607.616
628.72
648.872
667.961
685.92
702.441
717.291
730.622
740.2
741.431
738.525
745.816
766.425
786.779
790.991
443.068
442.549
444.857
449.302
458.057
475.92
500.649
526.123
549.03
570.23
590.37
609.413
627.295
643.836
658.844
672.597
683.361
685.047
682.519
689.54
707.151
722.559
725.457
378.695
378.249
381.238
385.715
393.798
411.808
439.345
467.084
490.823
512.112
532.205
551.196
569.022
585.567
600.7
614.49
625.508
629.656
630.065
636.825
650.584
659.966
658.952
313.252
312.822
316.41
321.033
328.93
348.287
378.758
408.826
433.19
454.419
474.389
493.302
511.102
527.703
543.012
557.01
568.664
575.56
579.44
585.234
594.676
597.945
592.359
247.399
246.68
250.784
256.033
264.835
286.182
319.967
351.452
376.083
397.148
416.894
435.672
453.438
470.132
485.669
499.954
512.274
521.044
526.466
531.465
537.985
536.409
525.002
181.515
180.539
185.067
191.638
202.586
226.723
262.671
294.211
318.969
340.118
359.768
378.364
396.042
412.801
428.538
443.04
455.731
465.373
471.681
476.418
481.06
475.163
454.31
115.068
114.898
119.536
127.472
141.289
168.585
207.037
238.618
261.925
283.028
302.736
321.182
338.792
355.682
371.676
386.43
399.49
409.668
416.282
420.74
424.202
415.985
381.366
1126.34
1024.88
1052.38
1082.99
1020.82
925.166
1056.05
1354.31
1554.87
1530.08
1303.81
1057.58
841.075
678.04
623.703
633.625
687.879
792.366
875.219
1065.45
981.401
1020.11
970.573
791.006
710.806
925.761
1274.11
1466.7
1429.98
1276.85
1046.21
777.493
574.142
527.985
548.995
593.017
704.836
809.82
1026.8
958.624
920.102
706.218
552.596
602.226
834.637
1163.26
1330.19
1268.4
1125.02
929.338
683.665
520.757
507.546
533.451
548.746
621.83
739.402
1032.75
933.704
727.366
495.883
457.316
530.933
722.046
998.944
1097.83
1046.64
925.65
770.483
586.822
493.812
493.07
511.514
545.489
618.87
718.77
1027.32
851.853
535.488
403.188
407.566
475.715
617.175
813.741
867.133
818.034
699.579
544.907
445.1
409.259
420.488
476.132
554.258
651.179
729.008
939.631
703.581
420.043
357.378
377.524
426.585
529.073
645.167
668.964
616.647
489.369
325.337
257.654
256.498
316.254
437.427
555.263
664.623
731.303
758.259
525.895
352.507
333.019
350.352
382.062
453.244
502.835
502.705
442.09
293.059
155.373
139.168
149.904
224.936
385.4
520.948
640.034
702.779
492.341
367.703
305.281
311.949
327.472
351.076
383.189
385.3
366.716
301.18
160.208
135.037
130.32
128.349
167.661
325.741
463.346
587.791
651.011
40.7378
41.522
46.8617
56.7001
70.7102
90.5118
117.305
145.328
170.683
193.491
213.914
232.163
249.435
266.454
282.953
298.259
311.882
322.497
329.167
333.126
335.033
330.564
323.015
6.08159
4.46368
5.08863
7.87545
13.2798
21.4111
32.1765
45.7629
61.8681
79.6206
97.4252
113.226
128.815
146.477
163.408
178.995
193.602
205.997
213.927
216.996
214.702
210.746
212.922
2.32385
1.86918
1.39611
1.0474
1.16131
1.76358
2.79203
4.48998
7.84833
14.1838
22.3367
30.0805
38.202
47.9977
60.946
78.7648
96.4078
108.887
114.045
112.365
98.777
86.6374
90.2896
1.40866
1.11834
0.863036
0.659288
0.630271
0.660454
0.682862
0.656299
0.55174
0.371545
0.141715
0.0519906
0.679937
3.63017
8.60163
15.3457
22.5594
26.6996
28.2561
29.0347
9.22254
-11.1338
-19.551
0.858749
0.556357
0.434143
0.319538
0.332107
0.400892
0.448242
0.403702
0.270037
0.108857
-0.0308421
-0.097669
-0.0142573
0.0744247
0.276466
0.763703
1.23874
0.859034
0.0178447
-5.04822
-22.3415
-42.5574
-51.7901
0.528854
0.190503
0.177493
0.118924
0.179376
0.234847
0.251897
0.195362
0.0493837
-0.130047
-0.255801
-0.26136
-0.180959
-0.0266479
0.205352
0.499624
0.749911
0.66686
-0.476951
-6.20896
-30.9271
-59.9691
-70.9641
0.298814
0.0546996
0.00947562
-0.0126483
0.0267468
0.0541576
0.0487041
0.00320739
-0.0911122
-0.19814
-0.261783
-0.263512
-0.198068
-0.0336482
0.221636
0.514624
0.735327
0.511046
-1.69104
-13.0981
-37.4138
-58.8903
-69.352
0.0930321
-0.00437066
-0.0723406
-0.110751
-0.111383
-0.114519
-0.136303
-0.17578
-0.229386
-0.281193
-0.306943
-0.291149
-0.220325
-0.0717845
0.124122
0.324895
0.263761
-0.37042
-1.15657
0.228034
6.00694
0.926813
9.5452
-0.122835
-0.121549
-0.167999
-0.219138
-0.248778
-0.272872
-0.300783
-0.334799
-0.372248
-0.403092
-0.414845
-0.400433
-0.355481
-0.280093
-0.195308
-0.166677
-0.433344
-0.972757
-0.852245
6.07497
11.0114
1.10767
2.56724
-0.32996
-0.303994
-0.330031
-0.372778
-0.407727
-0.437614
-0.465738
-0.494455
-0.523637
-0.547226
-0.558177
-0.553515
-0.534806
-0.510642
-0.504371
-0.565969
-0.784874
-1.1366
-1.57057
-1.28051
-0.775448
0.196067
2.59883
-0.521384
-0.506388
-0.525986
-0.555692
-0.584464
-0.611624
-0.637324
-0.662124
-0.685553
-0.704583
-0.71619
-0.719491
-0.717389
-0.718108
-0.737297
-0.796458
-0.915898
-1.04905
-1.13404
-0.964337
-0.708996
-0.537383
0.401188
-0.711265
-0.709206
-0.723727
-0.7442
-0.766545
-0.789362
-0.811639
-0.832994
-0.85283
-0.869485
-0.881712
-0.889751
-0.89588
-0.905141
-0.925267
-0.961705
-1.01375
-1.05914
-1.06789
-1.00023
-0.731719
-0.475378
-0.178939
-0.903338
-0.905657
-0.915919
-0.931067
-0.948732
-0.967678
-0.98664
-1.00506
-1.02257
-1.03819
-1.05114
-1.06168
-1.07125
-1.08228
-1.09753
-1.11679
-1.13487
-1.13884
-1.11127
-1.02064
-0.826738
-0.549966
-0.238685
-1.09289
-1.09578
-1.10397
-1.11601
-1.1303
-1.14614
-1.16246
-1.17874
-1.1946
-1.20939
-1.2226
-1.23429
-1.24513
-1.25607
-1.26736
-1.27705
-1.27997
-1.26662
-1.22227
-1.13256
-0.985207
-0.674697
-0.316966
-1.27906
-1.28188
-1.28892
-1.29893
-1.31089
-1.32446
-1.33883
-1.35358
-1.36827
-1.38244
-1.39571
-1.40801
-1.41948
-1.43034
-1.43986
-1.44593
-1.44446
-1.42881
-1.38801
-1.32467
-1.22748
-1.01998
-1.07116
-1.46255
-1.46499
-1.47118
-1.47976
-1.49013
-1.50214
-1.51513
-1.5288
-1.54275
-1.55663
-1.57012
-1.58305
-1.59525
-1.60697
-1.61689
-1.62378
-1.62517
-1.61735
-1.59553
-1.57521
-1.56474
-1.57736
-1.81321
-1.64349
-1.64551
-1.6511
-1.65866
-1.66798
-1.67891
-1.69097
-1.70393
-1.71748
-1.73137
-1.74532
-1.75915
-1.77269
-1.78587
-1.79823
-1.80915
-1.81804
-1.82503
-1.83072
-1.85628
-1.95441
-2.16659
-2.40382
-1.82199
-1.82378
-1.8289
-1.83575
-1.84438
-1.85461
-1.8661
-1.87867
-1.8921
-1.90619
-1.92079
-1.93576
-1.951
-1.96651
-1.98233
-1.99866
-2.01625
-2.03764
-2.06674
-2.119
-2.25189
-2.4815
-2.5752
-1.99828
-2
-2.00473
-2.01111
-2.01928
-2.02906
-2.04023
-2.05266
-2.06618
-2.08066
-2.09605
-2.11229
-2.1294
-2.14751
-2.16695
-2.18836
-2.21301
-2.24349
-2.28441
-2.34448
-2.45186
-2.61583
-2.64377
-2.17255
-2.17429
-2.17869
-2.18476
-2.19263
-2.20214
-2.21315
-2.22558
-2.23932
-2.25431
-2.27055
-2.28808
-2.30701
-2.32757
-2.35019
-2.37564
-2.40504
-2.43996
-2.48316
-2.53807
-2.60503
-2.68752
-2.67849
-2.34493
-2.34672
-2.35087
-2.35674
-2.36441
-2.37375
-2.38468
-2.39719
-2.41121
-2.42673
-2.4438
-2.46253
-2.48311
-2.50582
-2.53113
-2.55971
-2.59244
-2.63016
-2.67348
-2.72304
-2.76901
-2.80415
-2.773
-2.51552
-2.51735
-2.52131
-2.52704
-2.53457
-2.5438
-2.5547
-2.5673
-2.58158
-2.59758
-2.6154
-2.63518
-2.65717
-2.68174
-2.70935
-2.74068
-2.77648
-2.81748
-2.86391
-2.91564
-2.96569
-3.00053
-3.03548
-2.68441
-2.68625
-2.69005
-2.69567
-2.70307
-2.71222
-2.7231
-2.73576
-2.75024
-2.76661
-2.78501
-2.80563
-2.82878
-2.85489
-2.8845
-2.91838
-2.95743
-3.0028
-3.05579
-3.11826
-3.19078
-3.27255
-3.44927
-2.85164
-2.85347
-2.85713
-2.86263
-2.8699
-2.87895
-2.88978
-2.90244
-2.91702
-2.93361
-2.95239
-2.9736
-2.99758
-3.02485
-3.05606
-3.09211
-3.13424
-3.18432
-3.24529
-3.32285
-3.42585
-3.58641
-3.87969
-3.01729
-3.01909
-3.02261
-3.02796
-3.03508
-3.04399
-3.0547
-3.06728
-3.08182
-3.09846
-3.11739
-3.13888
-3.16333
-3.19129
-3.2235
-3.26098
-3.30521
-3.35854
-3.42489
-3.51182
-3.63061
-3.82167
-4.11902
-3.18141
-3.18315
-3.18653
-3.19173
-3.19865
-3.20737
-3.21788
-3.23026
-3.24462
-3.26111
-3.27994
-3.30139
-3.32589
-3.35398
-3.38642
-3.42425
-3.46894
-3.52278
-3.58931
-3.67461
-3.7865
-3.94642
-4.15571
-3.34403
-3.34569
-3.34895
-3.35397
-3.36068
-3.36914
-3.37936
-3.39143
-3.40545
-3.42159
-3.44006
-3.46114
-3.48525
-3.5129
-3.54478
-3.58183
-3.62531
-3.67701
-3.73942
-3.81601
-3.91053
-4.0298
-4.17084
-3.50519
-3.50678
-3.50992
-3.51475
-3.52121
-3.52935
-3.5392
-3.55084
-3.56438
-3.57997
-3.59783
-3.61823
-3.64154
-3.66822
-3.69886
-3.73422
-3.77529
-3.82334
-3.87995
-3.94701
-4.02646
-4.12057
-4.22858
-3.66495
-3.66648
-3.66948
-3.67412
-3.68028
-3.68805
-3.69745
-3.70856
-3.72148
-3.73636
-3.75339
-3.77283
-3.795
-3.82029
-3.84917
-3.88224
-3.92022
-3.96401
-4.01462
-4.07314
-4.14062
-4.21776
-4.30375
-3.82339
-3.82485
-3.82771
-3.83211
-3.83795
-3.8453
-3.85418
-3.86467
-3.87686
-3.89087
-3.9069
-3.92515
-3.94591
-3.96949
-3.99626
-4.02667
-4.06123
-4.10055
-4.14523
-4.19587
-4.25286
-4.31609
-4.38447
-3.98058
-3.98198
-3.98466
-3.98881
-3.99427
-4.00116
-4.00946
-4.01925
-4.03061
-4.04366
-4.05854
-4.07544
-4.09459
-4.11624
-4.14068
-4.16822
-4.19923
-4.23407
-4.2731
-4.31657
-4.36453
-4.41665
-4.47194
-4.13662
-4.13795
-4.14043
-4.14429
-4.14935
-4.15571
-4.16338
-4.17241
-4.18288
-4.19487
-4.2085
-4.22394
-4.24135
-4.26095
-4.28294
-4.30754
-4.335
-4.36553
-4.39932
-4.43644
-4.47684
-4.52013
-4.56554
-4.2916
-4.29284
-4.29511
-4.29864
-4.30326
-4.30907
-4.31605
-4.32428
-4.33379
-4.34466
-4.35699
-4.37089
-4.38651
-4.404
-4.4235
-4.44518
-4.46919
-4.49565
-4.52465
-4.55618
-4.59013
-4.62615
-4.66367
-4.44562
-4.44674
-4.44878
-4.45198
-4.45612
-4.46134
-4.4676
-4.47498
-4.48349
-4.49321
-4.50419
-4.51653
-4.53033
-4.5457
-4.56275
-4.58158
-4.60229
-4.62494
-4.64957
-4.67613
-4.70448
-4.73438
-4.76538
-4.59876
-4.59975
-4.60156
-4.60439
-4.60803
-4.61264
-4.61816
-4.62466
-4.63215
-4.64067
-4.65029
-4.66106
-4.67305
-4.68634
-4.70099
-4.71707
-4.73465
-4.75376
-4.77439
-4.79649
-4.81995
-4.84457
-4.87004
-4.75112
-4.75195
-4.75353
-4.75598
-4.75912
-4.7631
-4.76786
-4.77346
-4.77991
-4.78724
-4.79548
-4.80468
-4.81489
-4.82614
-4.83848
-4.85195
-4.86658
-4.8824
-4.89937
-4.91746
-4.93657
-4.95656
-4.97723
-4.90279
-4.90345
-4.9048
-4.90687
-4.9095
-4.91285
-4.91684
-4.92154
-4.92694
-4.93307
-4.93995
-4.9476
-4.95606
-4.96534
-4.97547
-4.98647
-4.99835
-5.01111
-5.02475
-5.03921
-5.05443
-5.07033
-5.08679
-5.05387
-5.05433
-5.05546
-5.05715
-5.05927
-5.06199
-5.06522
-5.06903
-5.07339
-5.07833
-5.08387
-5.09001
-5.09677
-5.10417
-5.11219
-5.12087
-5.13019
-5.14015
-5.15074
-5.16193
-5.17369
-5.18597
-5.19871
-5.20447
-5.20471
-5.20563
-5.20694
-5.20857
-5.21067
-5.21314
-5.21606
-5.2194
-5.22318
-5.22741
-5.23209
-5.23723
-5.24282
-5.24886
-5.25536
-5.26231
-5.26971
-5.27754
-5.28579
-5.29445
-5.30351
-5.31296
-5.35469
-5.35471
-5.35543
-5.35636
-5.35751
-5.359
-5.36073
-5.36279
-5.36513
-5.36779
-5.37075
-5.37401
-5.37759
-5.38147
-5.38565
-5.39012
-5.39489
-5.39994
-5.40527
-5.41087
-5.41675
-5.42291
-5.42939
-5.50458
-5.50444
-5.50497
-5.50551
-5.50619
-5.50707
-5.50809
-5.5093
-5.51067
-5.51223
-5.51397
-5.51588
-5.51797
-5.52023
-5.52265
-5.52524
-5.52798
-5.53087
-5.53392
-5.53711
-5.54046
-5.54398
-5.54772
-5.65445
-5.65417
-5.6544
-5.65457
-5.65479
-5.65509
-5.65542
-5.65582
-5.65626
-5.65677
-5.65733
-5.65795
-5.65862
-5.65934
-5.6601
-5.66091
-5.66176
-5.66265
-5.66359
-5.66456
-5.66559
-5.66668
-5.66786
336.803
233.464
156.874
-348.159
220.636
185.952
119.109
30.7013
117.208
149.245
201.335
192.777
-1.71417
62.0196
175.756
204.209
-53.042
-43.084
58.0839
183.224
-72.9502
-75.1934
-1.46044
186.398
-40.8071
-33.4705
23.3939
183.435
13.5729
17.022
30.7877
114.033
8.216
10.9307
12.0981
29.8755
12.0556
15.0492
12.9156
15.5981
4.98854
13.4912
11.7813
12.4948
1.03284
8.44922
9.76008
10.4407
0.298213
0.58552
8.50859
10.4188
-1.23237
-7.29548
6.4425
8.66102
-2.20646
-5.09036
3.61603
4.80413
-1.54487
-1.6224
2.80673
9.30458
-2.69455
-2.81064
-0.994011
0.673625
-2.64676
-2.41385
-1.68863
-2.60511
-2.61924
-2.48224
-2.29054
-2.86117
-2.63276
-2.88214
-3.42304
-3.159
-2.71764
-3.55217
-4.36005
-3.73395
-3.28243
-4.42365
-3.40037
-4.09225
-3.87799
-5.1939
-4.99908
-4.36875
-4.7078
-6.11699
-5.33841
-4.57501
-4.862
-5.51753
-5.1538
-4.63051
-4.56612
-4.94873
-4.88778
-4.61444
-4.39656
-4.65153
-4.70313
-4.59998
-4.38092
-4.55727
-4.6266
-4.6051
-4.4166
-4.5412
-4.6083
-4.62854
-4.47129
-4.56737
-4.63579
-4.66906
-4.54124
-4.61902
-4.6808
-4.72147
-4.62211
-4.68659
-4.74326
-4.78353
-4.71029
-4.76397
-4.81267
-4.85263
-4.80389
-4.84869
-4.89059
-4.9278
-4.90171
-4.93894
-4.97469
-5.00809
-5.003
-5.03362
-5.06374
-5.09307
-5.10741
-5.13225
-5.15737
-5.18287
-5.21481
-5.23462
-5.25534
-5.27746
-5.32504
-5.34034
-5.35711
-5.37612
-5.43779
-5.44883
-5.46181
-5.47775
-5.55263
-5.55948
-5.56861
-5.58127
-5.66947
-5.67197
-5.67696
-5.68585
83.0926
221.37
255.597
273.872
282.019
317.114
284.35
242.663
209.159
166.652
132.72
132.243
132.225
133.563
145.014
235.244
364.538
503.755
564.64
135.819
171.053
198.63
217.233
255.372
276.915
200.572
149.786
139.525
130.909
128.844
130.891
133.322
134.378
133.02
142.436
257.047
425.406
483.131
162.888
149.364
154.246
161.83
244.463
240.988
168.373
136.896
128.959
125.694
125.761
127.266
129.963
126.495
122.465
125.603
180.968
371.183
428.649
159.145
139.177
136.487
156.125
236.39
233.252
161.886
131.977
124.502
123.175
121.749
119.548
116.789
109.423
109.786
107.591
153.616
274.88
366.17
160.459
144.859
137.187
208.836
212.718
176.219
130.039
101.919
97.1585
100.955
103.96
102.758
103.268
101.446
103.401
108.485
149.02
190.874
264.489
188.181
157.624
163.516
188.971
127.116
78.3901
54.638
44.7505
52.7201
60.4718
68.5067
79.4127
82.283
91.4242
133.008
186.552
213.951
211.46
208.9
204.029
178.402
148.362
83.0801
39.8629
21.4428
12.4006
8.03232
17.1577
29.9113
50.4941
75.6965
90.3924
101.024
131.125
182.263
218.598
219.415
199.946
168.952
167.823
119.812
19.5474
10.8409
5.99143
2.3243
-2.25415
1.24624
2.48769
18.3183
41.2011
68.3096
87.9255
112.814
150.105
192.576
198.007
151.397
71.3749
118.982
133.78
10.5825
1.15413
-0.046242
-1.20096
-2.47214
-4.16171
-5.25158
2.74416
4.4602
16.0586
31.3917
41.7227
55.6984
113.615
170.503
134.588
30.8178
56.998
69.5267
-18.9753
-3.32391
-2.7123
-3.11652
-3.49023
-3.72073
-3.68254
-3.97428
-4.03012
-1.05388
-0.244801
-0.896677
-0.0963256
6.51702
32.3155
103.223
18.8869
24.5475
-11.7014
-16.7806
-6.36386
-4.37987
-4.22214
-4.21593
-4.14849
-3.89457
-3.58312
-3.33954
-3.21466
-3.04145
-2.92944
-3.13879
-2.22038
6.27715
34.8542
12.4875
8.49739
-20.7352
-11.0008
-6.50516
-5.40567
-5.03245
-4.75828
-4.53113
-4.23638
-3.91367
-3.60368
-3.33417
-3.16314
-3.17637
-3.3442
-3.47537
-2.13274
5.39915
8.76818
-1.01542
-12.9
-7.53033
-6.26802
-5.95706
-5.64931
-5.34018
-4.98402
-4.56264
-4.18653
-3.8806
-3.63483
-3.47822
-3.43553
-3.53116
-3.57253
-3.87245
-1.15482
6.96327
-3.26293
-9.36865
-5.72312
-6.13815
-6.39441
-6.29134
-6.02298
-5.54808
-4.98094
-4.51913
-4.17808
-3.9208
-3.74697
-3.64858
-3.69594
-3.66263
-3.96699
-3.1383
5.86473
2.54278
-3.03331
-4.28221
-6.04908
-6.84447
-6.93472
-6.63191
-5.98725
-5.27054
-4.74328
-4.39129
-4.13477
-3.95514
-3.83296
-3.78597
-3.68603
-3.72291
-3.41937
2.15862
-1.4041
-1.45482
-3.85889
-5.84127
-6.95116
-7.19465
-6.79461
-6.05699
-5.30401
-4.80502
-4.49237
-4.25864
-4.09651
-3.96549
-3.86025
-3.75423
-3.73683
-3.68809
-3.47712
-4.20136
-3.89279
-4.09821
-5.43119
-6.38664
-6.68775
-6.36772
-5.72312
-5.11953
-4.73166
-4.50983
-4.32434
-4.21597
-4.11307
-3.98095
-3.87079
-3.86123
-3.83853
-3.75283
-3.97625
-3.96853
-3.86145
-4.62437
-5.26198
-5.56953
-5.51388
-5.16173
-4.82144
-4.61075
-4.47973
-4.36625
-4.32811
-4.30081
-4.2099
-4.08539
-4.16937
-4.11884
-3.4589
-3.53703
-3.43666
-3.34266
-3.73938
-4.19325
-4.54801
-4.72151
-4.66651
-4.56507
-4.4993
-4.44772
-4.39658
-4.42007
-4.49131
-4.4204
-4.38419
-4.45219
-4.35406
-3.45378
-3.40282
-3.21864
-3.13489
-3.34843
-3.70822
-4.07038
-4.30052
-4.38602
-4.41553
-4.43165
-4.42787
-4.41946
-4.47387
-4.58527
-4.52982
-4.45491
-4.57469
-4.31742
-3.64071
-3.55053
-3.41159
-3.30893
-3.44158
-3.71374
-3.98213
-4.17095
-4.28657
-4.35936
-4.40438
-4.42131
-4.43335
-4.50274
-4.59203
-4.59244
-4.4416
-4.75343
-4.38605
-3.86408
-3.76617
-3.65593
-3.613
-3.70215
-3.86172
-4.03146
-4.17213
-4.27806
-4.35428
-4.40213
-4.42604
-4.44755
-4.51447
-4.59341
-4.64927
-4.54418
-4.71049
-4.26811
-4.10692
-3.98695
-3.8926
-3.86563
-3.91592
-4.01359
-4.12581
-4.22996
-4.31657
-4.37933
-4.41649
-4.43833
-4.46134
-4.49732
-4.58575
-4.61227
-4.53597
-4.61985
-4.34849
-4.29941
-4.16352
-4.0867
-4.066
-4.09297
-4.15268
-4.22853
-4.30669
-4.37394
-4.41808
-4.44066
-4.45475
-4.46729
-4.4667
-4.55717
-4.55077
-4.5181
-4.53102
-4.19228
-4.39563
-4.29009
-4.23725
-4.22274
-4.23816
-4.27652
-4.33011
-4.3887
-4.43697
-4.46304
-4.47399
-4.48089
-4.4807
-4.42578
-4.48859
-4.54047
-4.53472
-4.56388
-4.23657
-4.45812
-4.38936
-4.35653
-4.34831
-4.3592
-4.38614
-4.42556
-4.46827
-4.4996
-4.51204
-4.51656
-4.52368
-4.52421
-4.45317
-4.50843
-4.58206
-4.58843
-4.65821
-4.27361
-4.51561
-4.47523
-4.45663
-4.45396
-4.46382
-4.48479
-4.51449
-4.54422
-4.56187
-4.56575
-4.56587
-4.58133
-4.58887
-4.59116
-4.60401
-4.69454
-4.67897
-4.75064
-4.38923
-4.56948
-4.55078
-4.54385
-4.54661
-4.55731
-4.57524
-4.59806
-4.61788
-4.6258
-4.62437
-4.62454
-4.66776
-4.66041
-4.77696
-4.73591
-4.84086
-4.80192
-4.86412
-4.70041
-4.62401
-4.62109
-4.62343
-4.63117
-4.64357
-4.66023
-4.67869
-4.69204
-4.69412
-4.68797
-4.69382
-4.77511
-4.80327
-4.94293
-4.91124
-5.00554
-4.94013
-5.0049
-5.15879
-4.68163
-4.68943
-4.69897
-4.71101
-4.72548
-4.74228
-4.75923
-4.77028
-4.77132
-4.76552
-4.78867
-4.89672
-5.02396
-5.1291
-5.15454
-5.21032
-5.12561
-5.0965
-3.61487
-4.74354
-4.7582
-4.77287
-4.78842
-4.80529
-4.82371
-4.8419
-4.8547
-4.85978
-4.86122
-4.90736
-5.03712
-5.2408
-5.35343
-5.40865
-5.43584
-5.35615
-5.53054
-5.61029
-4.81
-4.82852
-4.84653
-4.86495
-4.88459
-4.90615
-4.92821
-4.94622
-4.95849
-4.96979
-5.03465
-5.17986
-5.41268
-5.53545
-5.61037
-5.62777
-5.56646
-5.63191
-5.59754
-4.88062
-4.90096
-4.92101
-4.94183
-4.96478
-4.99116
-5.01973
-5.04575
-5.0662
-5.08521
-5.15285
-5.32152
-5.5838
-5.73123
-5.85908
-5.83641
-5.71519
-5.6683
-5.62522
-4.95532
-4.97606
-4.99725
-5.02019
-5.04703
-5.07983
-5.11728
-5.15428
-5.18609
-5.21404
-5.28076
-5.50347
-5.84618
-6.10068
-6.20864
-6.00588
-5.79465
-5.66088
-5.59869
-5.03399
-5.05426
-5.07592
-5.10059
-5.13162
-5.17148
-5.21867
-5.2696
-5.3179
-5.36214
-5.43165
-5.66935
-6.0572
-6.35187
-6.30207
-5.96922
-5.72111
-5.56762
-5.50465
-5.11684
-5.13615
-5.15763
-5.18333
-5.21796
-5.26326
-5.31868
-5.38504
-5.4517
-5.50961
-5.55967
-5.68625
-5.88897
-6.01659
-5.91463
-5.70183
-5.52839
-5.42331
-5.38565
-5.20449
-5.2226
-5.24326
-5.26889
-5.30483
-5.35152
-5.41118
-5.48993
-5.57309
-5.6384
-5.65895
-5.64704
-5.62339
-5.57202
-5.51505
-5.42991
-5.35485
-5.3142
-5.30515
-5.29714
-5.31402
-5.33342
-5.35767
-5.39149
-5.43461
-5.49103
-5.57063
-5.66189
-5.7322
-5.73367
-5.6439
-5.50121
-5.38699
-5.3248
-5.29872
-5.28948
-5.29118
-5.29842
-5.39403
-5.4097
-5.4277
-5.44978
-5.47908
-5.51515
-5.5602
-5.62265
-5.70188
-5.76591
-5.76166
-5.65467
-5.48967
-5.35793
-5.3077
-5.31109
-5.33036
-5.34879
-5.36127
-5.49376
-5.50807
-5.52457
-5.54431
-5.5687
-5.59691
-5.62918
-5.66804
-5.71278
-5.74509
-5.7307
-5.6527
-5.53161
-5.45028
-5.41174
-5.41664
-5.43811
-5.45902
-5.47173
-5.59493
-5.60745
-5.62205
-5.63913
-5.65875
-5.67948
-5.70304
-5.72211
-5.73587
-5.73601
-5.71538
-5.67228
-5.61408
-5.56806
-5.54807
-5.55717
-5.58005
-5.60238
-5.61558
-5.69641
-5.70636
-5.71812
-5.73184
-5.7472
-5.76273
-5.77686
-5.78578
-5.78338
-5.76681
-5.74318
-5.71866
-5.69874
-5.68936
-5.69603
-5.72015
-5.75219
-5.78028
-5.79543
)
;

boundaryField
{
    leftWall
    {
        type            calculated;
        value           nonuniform List<scalar> 
50
(
565.106
505.422
443.068
378.695
313.252
247.399
181.515
115.068
40.7378
6.08159
2.32385
1.40866
0.858749
0.528854
0.298814
0.0930321
-0.122835
-0.32996
-0.521384
-0.711265
-0.903338
-1.09289
-1.27906
-1.46255
-1.64349
-1.82199
-1.99828
-2.17255
-2.34493
-2.51552
-2.68441
-2.85164
-3.01729
-3.18141
-3.34403
-3.50519
-3.66495
-3.82339
-3.98058
-4.13662
-4.2916
-4.44562
-4.59876
-4.75112
-4.90279
-5.05387
-5.20447
-5.35469
-5.50458
-5.65445
)
;
    }
    rightWall
    {
        type            calculated;
        value           nonuniform List<scalar> 
50
(
875.219
809.82
739.402
718.77
729.008
731.303
702.779
651.011
564.64
483.131
428.649
366.17
264.489
208.9
199.946
151.397
134.588
103.223
34.8542
5.39915
-1.15482
-3.1383
-3.41937
-3.68809
-3.83853
-4.11884
-4.35406
-4.31742
-4.38605
-4.26811
-4.34849
-4.19228
-4.23657
-4.27361
-4.38923
-4.70041
-5.15879
-3.61487
-5.61029
-5.59754
-5.62522
-5.59869
-5.50465
-5.38565
-5.30515
-5.29842
-5.36127
-5.47173
-5.61558
-5.79543
)
;
    }
    lowerWall
    {
        type            calculated;
        value           nonuniform List<scalar> 
62
(
594.535
594.771
596.828
601.442
611.029
627.72
650.161
673.688
695.773
716.742
736.79
755.864
773.784
790.249
805.022
816.939
822.934
825.474
828.994
837.958
859.737
881.458
883.824
854.417
790.991
725.457
658.952
592.359
525.002
454.31
381.366
399.395
296.054
219.463
-288.691
1126.34
1065.45
1026.8
1032.75
1027.32
939.631
758.259
492.341
1142.32
1032.81
1060.32
1109.47
1047.33
951.622
1080.65
1377.13
1578.2
1555.09
1329.43
1083.86
867.354
704.319
649.981
659.894
714.118
818.552
901.313
)
;
    }
    atmosphere
    {
        type            calculated;
        value           nonuniform List<scalar> 
46
(
-5.72904
-5.72904
-5.72904
-5.72904
-5.72904
-5.72904
-5.72904
-5.72904
-5.72904
-5.72904
-5.72904
-5.72904
-5.72904
-5.72904
-5.72904
-5.72904
-5.72904
-5.72904
-5.72904
-5.72904
-5.72904
-5.72904
-5.72904
-5.72904
-5.72915
-5.7319
-5.73855
-5.74704
-5.7552
-5.76471
-5.776
-5.78938
-5.80294
-5.81361
-5.81892
-5.81525
-5.79852
-5.77196
-5.74842
-5.73995
-5.74749
-5.77374
-5.81452
-5.85681
-5.89099
-5.90698
)
;
    }
    defaultFaces
    {
        type            empty;
    }
}


// ************************************************************************* //
