/*--------------------------------*- C++ -*----------------------------------*\
| =========                 |                                                 |
| \\      /  F ield         | OpenFOAM: The Open Source CFD Toolbox           |
|  \\    /   O peration     | Version:  2206                                  |
|   \\  /    A nd           | Website:  www.openfoam.com                      |
|    \\/     M anipulation  |                                                 |
\*---------------------------------------------------------------------------*/
FoamFile
{
    version     2.0;
    format      ascii;
    arch        "LSB;label=32;scalar=64";
    class       volScalarField;
    location    "0.75";
    object      p_rgh;
}
// * * * * * * * * * * * * * * * * * * * * * * * * * * * * * * * * * * * * * //

dimensions      [1 -1 -2 0 0 0 0];

internalField   nonuniform List<scalar> 
2268
(
594.535
594.771
596.828
601.442
611.029
627.72
650.161
673.688
695.773
716.742
736.79
755.864
773.784
790.249
805.022
816.939
822.934
825.474
828.994
837.958
859.737
881.458
883.824
593.71
593.394
595.275
599.62
608.745
625.825
649.426
673.558
695.904
717.008
737.16
756.249
774.208
790.729
805.579
818.56
824.287
824.74
822.4
831.18
851.399
873.403
879.256
590.214
589.696
592.004
596.449
605.204
623.067
647.796
673.27
696.177
717.377
737.517
756.56
774.442
790.983
805.99
819.734
828.638
824.187
820.671
827.691
845.37
867.707
872.567
584.7
584.254
587.244
591.72
599.804
617.814
645.351
673.09
696.828
718.117
738.211
757.201
775.028
791.573
806.706
820.496
831.513
834.829
832.587
838.248
852.722
865.968
864.904
578.116
577.686
581.274
585.898
593.794
613.151
643.623
673.69
698.054
719.283
739.253
758.166
775.967
792.567
807.876
821.874
833.528
840.425
844.305
850.098
859.541
862.805
857.219
571.122
570.403
574.507
579.756
588.558
609.905
643.69
675.175
699.806
720.871
740.617
759.395
777.161
793.855
809.392
823.677
835.997
844.767
850.189
855.188
861.708
860.132
848.719
564.097
563.12
567.648
574.22
585.168
609.304
645.253
676.793
701.551
722.7
742.35
760.946
778.624
795.382
811.119
825.622
838.312
847.955
854.263
859
863.642
857.743
836.879
556.509
556.338
560.976
568.913
582.335
604.124
643.406
680.059
703.365
724.468
744.176
762.623
780.233
797.123
813.117
827.87
840.93
851.108
857.722
862.18
865.642
857.424
822.794
1142.32
1032.81
1060.32
1109.47
1047.33
951.622
1080.65
1377.13
1578.2
1555.09
1329.43
1083.86
867.354
704.319
649.981
659.894
714.118
818.552
901.313
1122.86
1005.23
1072.84
1050.09
865.699
743.22
950.129
1300.2
1501.66
1475.32
1318.27
1098.37
842.788
645.814
597.466
616.264
662.781
779.664
887.841
1122.91
1004.54
1038.47
813.385
586.833
620.854
856.215
1251.01
1437.58
1356.33
1201.72
971.107
722.265
558.301
543.039
568.503
585.475
679.495
847.027
1168.37
1078.43
856.268
543.634
472.92
552.388
821.899
1150.12
1249.01
1197.82
1076.83
921.162
661.024
547.853
558.239
612.892
612.968
685.995
785.914
1201.69
1026.14
701.845
420.13
426.742
497.127
811.31
1008.05
1061.5
1012.41
893.944
739.048
638.074
574.058
605.308
667.878
737.787
743.606
815.916
1152.65
894.33
451.663
374.87
398.234
510.995
765.824
882.375
906.427
854.112
726.653
562.033
489.274
489.108
550.61
673.072
791.805
820.075
838.233
1008.14
759.263
372.203
353.099
371.024
642.391
732.189
782.598
782.899
722.067
571.517
318.447
244.895
356.424
503.425
664.948
800.824
866.045
831.604
777.19
602.792
326.222
334
360.624
670.596
703.98
707.783
688.519
621.533
404.442
141.142
136.562
171.439
470.511
648.675
786.39
880.09
798.841
320.591
326.454
337.179
354.229
389.823
480.409
594.402
672.477
704.15
726.958
747.381
765.63
782.902
799.921
816.42
831.726
845.349
855.964
862.634
866.593
868.5
864.029
856.473
32.9824
28.6324
44.2921
75.8033
127.964
206.767
308.222
429.092
560.49
662.601
725.647
762.113
785.839
805.138
822.07
837.656
852.261
864.654
872.584
875.654
873.36
869.402
871.569
3.45816
2.70691
2.22593
3.16838
7.63947
15.4357
28.7561
52.4468
100.268
187.857
294.97
385.119
460.211
550.041
648.577
723.404
777.328
830.69
865.722
882.338
879.972
869.582
874.097
2.38013
2.03865
1.7768
1.56841
1.53933
1.56952
1.59197
1.56561
1.46141
1.28105
1.05224
0.965631
7.71596
57.2041
130.324
214.577
282.628
336.532
389.258
442.673
466.071
487.5
557.568
1.90579
1.59569
1.46906
1.35379
1.36635
1.43514
1.48249
1.43797
1.30434
1.14326
1.00391
0.938244
1.02519
1.12242
1.34601
1.92167
3.30914
4.04941
5.38637
1.52167
-13.1054
-27.804
-33.0972
1.6933
1.35371
1.33724
1.27837
1.33882
1.39429
1.41134
1.35481
1.20884
1.02942
0.905502
0.914856
0.998139
1.15348
1.38658
1.69864
2.04805
2.38756
3.15173
17.7461
80.3366
88.9751
48.7937
1.58511
1.34228
1.29429
1.27199
1.31138
1.33879
1.33334
1.28785
1.19353
1.08652
1.02321
1.04116
1.11972
1.27212
1.52775
1.88031
2.52454
4.17668
15.0496
381.164
828.316
868.165
865.775
1.50308
1.40607
1.3376
1.29908
1.29845
1.29531
1.27353
1.23405
1.18052
1.1287
1.10296
1.13391
1.22611
1.35817
1.54218
1.80749
2.43099
5.42298
105.216
674.225
948.492
965.049
512.67
1.41222
1.41349
1.36705
1.31589
1.28625
1.26215
1.23424
1.20023
1.16286
1.13209
1.12043
1.13943
1.19071
1.25796
1.34121
1.40243
1.29767
0.979434
22.1849
194.934
337.188
194.85
30.4599
1.33026
1.35623
1.33019
1.28744
1.25249
1.2226
1.19448
1.16576
1.13662
1.11312
1.10241
1.10672
1.12544
1.14959
1.15595
1.09566
0.884865
0.614189
0.741879
0.407182
1.09553
32.2376
73.1059
1.26403
1.27902
1.25943
1.22972
1.20095
1.17379
1.14809
1.12329
1.09986
1.08087
1.06949
1.06593
1.06803
1.06731
1.04813
0.989048
0.870738
0.740735
0.653304
0.828957
1.10596
2.34649
23.7212
1.19934
1.2014
1.18688
1.16641
1.14406
1.12125
1.09897
1.07761
1.05778
1.04112
1.0289
1.02086
1.01473
1.00547
0.985344
0.948923
0.897472
0.851826
0.843398
0.920198
1.289
1.82324
2.15689
1.13246
1.13014
1.11988
1.10473
1.08707
1.06812
1.04916
1.03074
1.01323
0.997614
0.984661
0.974126
0.964555
0.953524
0.938279
0.919091
0.901487
0.897052
0.925083
1.0457
1.72878
1.97902
2.29873
1.06811
1.06521
1.05703
1.04498
1.03069
1.01485
0.998537
0.982255
0.966399
0.951611
0.938401
0.926716
0.915868
0.904931
0.893644
0.884005
0.881056
0.894445
0.938828
1.14626
1.72885
2.00084
3.31091
1.00713
1.00431
0.99727
0.987258
0.975305
0.961729
0.94736
0.932606
0.917916
0.903755
0.890486
0.878189
0.866713
0.855852
0.84633
0.840272
0.841731
0.85739
0.901016
1.03738
1.15236
1.54266
42.7322
0.948832
0.946396
0.940202
0.931624
0.921251
0.909247
0.896255
0.882589
0.86864
0.854758
0.841266
0.828342
0.81614
0.804413
0.794496
0.7876
0.786215
0.794047
0.817726
0.83857
0.86561
1.40376
28.6517
0.893089
0.891066
0.885478
0.877919
0.868599
0.857669
0.845608
0.832654
0.819099
0.805214
0.791267
0.777439
0.763889
0.75071
0.73835
0.727434
0.71854
0.711552
0.705878
0.680986
0.602702
5.76127
11.4122
0.839785
0.837993
0.832871
0.826022
0.817393
0.807167
0.795677
0.783107
0.769677
0.755579
0.740987
0.726017
0.710773
0.695264
0.679441
0.663112
0.645525
0.624135
0.595041
0.543061
0.703521
4.77301
3.9398
0.788691
0.786966
0.782236
0.775862
0.767686
0.757905
0.746737
0.734312
0.720792
0.706304
0.690923
0.674676
0.657566
0.639459
0.62002
0.598612
0.573955
0.543481
0.502556
0.442594
0.52427
1.45321
0.340716
0.739615
0.737871
0.733469
0.727402
0.71953
0.710021
0.699016
0.686586
0.672842
0.65785
0.641614
0.624082
0.605153
0.584596
0.561969
0.536522
0.507119
0.472199
0.429006
0.374842
0.372842
0.24321
0.382425
0.692429
0.690638
0.686488
0.680618
0.672952
0.663612
0.652676
0.64017
0.626149
0.610627
0.593557
0.574825
0.554248
0.531536
0.506228
0.477643
0.444913
0.407197
0.363875
0.314616
0.268548
0.239434
0.283724
0.647031
0.645202
0.641243
0.63551
0.627987
0.618756
0.607847
0.595251
0.58097
0.564968
0.547155
0.527374
0.505379
0.480815
0.453198
0.421868
0.386068
0.345076
0.298639
0.246912
0.196887
0.162691
0.248548
0.603341
0.601499
0.597696
0.59208
0.584677
0.575531
0.564645
0.551985
0.537508
0.521137
0.502738
0.482114
0.458965
0.432862
0.403245
0.369372
0.330319
0.284946
0.231961
0.169489
0.0969666
0.0163359
0.325924
0.561299
0.559467
0.555809
0.550313
0.543041
0.533991
0.52316
0.510496
0.495924
0.479331
0.460552
0.439344
0.415356
0.38809
0.356879
0.320828
0.278697
0.22862
0.167647
0.0900881
-0.0129036
-0.173457
-0.36547
0.520842
0.519046
0.515528
0.510173
0.503057
0.494146
0.483434
0.470856
0.456316
0.439677
0.420749
0.399255
0.374804
0.346848
0.314639
0.27716
0.232928
0.179591
0.113242
0.0263121
-0.0924722
-0.283536
-0.580813
0.481921
0.480184
0.476799
0.471604
0.464677
0.455963
0.445453
0.433071
0.41871
0.40222
0.383394
0.361937
0.337442
0.309351
0.276907
0.23908
0.194387
0.140553
0.0740233
-0.0112821
-0.123165
-0.283089
-0.492369
0.4445
0.442831
0.439574
0.434552
0.427845
0.419389
0.409167
0.397099
0.383075
0.366936
0.34847
0.327382
0.303277
0.275629
0.243744
0.206699
0.16322
0.111516
0.0491018
-0.0274872
-0.122009
-0.241272
-0.382318
0.408532
0.406935
0.403802
0.398965
0.392512
0.38437
0.374521
0.362882
0.349343
0.33375
0.315892
0.295489
0.272178
0.245496
0.214856
0.179499
0.138433
0.0903831
0.033765
-0.0332914
-0.11274
-0.20685
-0.314862
0.373962
0.372434
0.369431
0.364798
0.358635
0.35086
0.341461
0.330354
0.317433
0.302556
0.285526
0.266086
0.243914
0.218623
0.189741
0.156678
0.118694
0.0749051
0.0242949
-0.0342252
-0.101709
-0.178847
-0.264837
0.34072
0.339258
0.336402
0.331998
0.326162
0.318808
0.309928
0.299441
0.287252
0.273234
0.257212
0.238958
0.218197
0.194615
0.167843
0.137442
0.102879
0.0635633
0.0188749
-0.0317664
-0.0887558
-0.151983
-0.220362
0.308723
0.307325
0.304642
0.300497
0.295029
0.288145
0.279846
0.270054
0.258689
0.245642
0.230766
0.213866
0.194714
0.173059
0.148622
0.121082
0.0900757
0.0552325
0.0162076
-0.0272628
-0.0752283
-0.127346
-0.182641
0.277878
0.276552
0.274067
0.270211
0.265152
0.258785
0.25112
0.242087
0.231618
0.219628
0.205995
0.190562
0.173144
0.153546
0.131559
0.106957
0.0794991
0.0489653
0.0151812
-0.0219472
-0.0623377
-0.10563
-0.151039
0.248089
0.246854
0.244585
0.241048
0.236434
0.230624
0.22364
0.215416
0.205902
0.195029
0.182702
0.168799
0.153179
0.135694
0.116191
0.0945123
0.0705035
0.0440394
0.0150418
-0.0164908
-0.0504332
-0.0864627
-0.123978
0.219267
0.218145
0.216103
0.21291
0.208771
0.20355
0.197284
0.18991
0.181393
0.17168
0.160696
0.148354
0.134552
0.119182
0.102138
0.0833104
0.0626015
0.0399465
0.0153184
-0.011239
-0.0395978
-0.0694958
-0.100496
0.19132
0.190332
0.188522
0.185693
0.182049
0.177442
0.17192
0.165426
0.157936
0.149408
0.13979
0.12902
0.117028
0.103743
0.0890946
0.0730109
0.0554293
0.0363228
0.0156904
-0.00641062
-0.029869
-0.0544862
-0.0799579
0.164156
0.163322
0.161745
0.159292
0.156155
0.152174
0.147414
0.141815
0.135367
0.128039
0.119794
0.110591
0.100386
0.0891358
0.0767975
0.0633282
0.0486907
0.032879
0.0159039
-0.00218155
-0.0212902
-0.0412817
-0.0619549
0.137678
0.137023
0.135675
0.133602
0.130973
0.127624
0.123632
0.118932
0.113531
0.107402
0.100522
0.0928661
0.0844095
0.0751281
0.0650005
0.0540039
0.0421214
0.0293566
0.0157242
0.00126474
-0.0139606
-0.0298624
-0.046322
0.11179
0.111334
0.110209
0.108516
0.10639
0.10367
0.100443
0.0966388
0.0922773
0.0873336
0.081796
0.0756529
0.0688903
0.0614986
0.0534712
0.0447986
0.0354779
0.0255162
0.0149255
0.0037332
-0.00802419
-0.0203015
-0.0330485
0.0863894
0.0861514
0.0852317
0.0839191
0.082287
0.0801891
0.0777163
0.0747953
0.0714569
0.0676744
0.0634462
0.0587678
0.0536336
0.0480439
0.0420006
0.0355014
0.0285499
0.021153
0.0133193
0.0050648
-0.00359483
-0.0126506
-0.0221053
0.0613623
0.0613455
0.0606207
0.0596904
0.0585411
0.0570547
0.0553201
0.0532645
0.0509234
0.0482684
0.0453076
0.0420402
0.0384654
0.0345866
0.0304085
0.0259328
0.0211662
0.0161153
0.0107846
0.00518115
-0.00069477
-0.00685651
-0.0133367
0.0366662
0.0368129
0.0362738
0.0357354
0.0350575
0.0341751
0.0331582
0.0319464
0.030574
0.0290143
0.0272795
0.0253679
0.0232805
0.0210214
0.0185975
0.0160113
0.0132686
0.0103747
0.00733072
0.00413684
0.000787166
-0.00273589
-0.00646764
0.0119933
0.012274
0.0120445
0.0118758
0.0116496
0.0113494
0.0110221
0.0106231
0.0101796
0.00967102
0.00910983
0.00849467
0.00782649
0.00710677
0.0063409
0.00553163
0.00468077
0.00378947
0.00285671
0.00187995
0.000852744
-0.000238787
-0.00141801
870.22
766.876
690.277
158.635
879.236
844.542
777.68
525.5
900.982
932.969
946.236
485.751
739.226
945.08
1002.21
355.994
15.9403
449.459
919.889
365.694
151.442
629.861
935.238
665.293
899.714
918.975
996.528
1143.15
297.846
320.775
585.923
788.3
23.1239
21.1243
44.1113
173.869
79.8201
25.6168
22.7362
25.8466
49.8654
48.8953
22.3153
23.0558
12.2851
76.9264
21.0617
21.7028
2.88641
130.662
36.8772
23.1784
57.1673
146.259
146.202
25.4098
159.695
157.36
165.518
131.979
55.4711
92.5731
113.377
120.368
1.00008
0.892026
15.8592
115.64
0.863452
4.15193
77.7229
105.716
0.453728
19.4398
129.417
97.9546
0.80613
70.4262
134.201
87.4034
7.8398
125.893
139.181
28.6519
60.9603
129.221
91.6406
-0.817399
60.6162
108.906
1.05914
-0.975243
15.0828
7.53515
-1.37697
-0.911733
-1.2887
-1.86411
-1.4864
-1.0686
-0.898169
-1.26167
-1.22069
-0.951059
-0.607565
-0.861156
-0.914029
-0.811452
-0.467164
-0.643483
-0.712849
-0.691384
-0.377682
-0.502284
-0.56939
-0.589624
-0.307178
-0.403266
-0.471681
-0.504948
-0.251937
-0.329719
-0.3915
-0.432162
-0.207617
-0.272096
-0.328759
-0.369037
-0.170594
-0.224282
-0.272978
-0.312936
-0.139003
-0.183804
-0.225701
-0.262913
-0.111631
-0.148861
-0.184608
-0.218012
-0.0877241
-0.118345
-0.148468
-0.177797
-0.0669353
-0.0917772
-0.116896
-0.142403
-0.0491413
-0.0689524
-0.0896772
-0.111792
-0.0341803
-0.0494785
-0.06625
-0.0852634
-0.0217326
-0.0327813
-0.0457595
-0.0616978
-0.0113866
-0.0182276
-0.0273644
-0.0400218
-0.0030263
-0.00552951
-0.0105188
-0.0194069
363.299
282.483
280.915
299.183
515.318
702.482
670.82
627.4
595.276
475.193
183.453
139.619
139.525
151.367
373.58
625.632
754.927
802.264
740.309
219.085
192.496
226.708
301.448
725.331
751.593
673.137
457.707
377.488
197.501
137.871
139.78
142.46
144.85
146.004
440.709
739.053
780.242
666.308
188.173
169.558
183.104
493.492
801.165
800.666
612.383
218.319
151.395
144.082
136.336
138.14
159.39
169.324
140.75
208.382
635.205
769.635
646.642
182.535
161.222
167.641
689.598
868.547
696.604
568.102
391.113
270.197
157.737
134.943
147.644
365.738
392.229
159.725
254.216
666.04
784.387
620.575
185.54
170.172
374.393
884.332
602.183
251.5
580.725
649.503
649.338
519.612
313.168
267.423
443.164
441.458
376.898
428.493
728.957
773.679
981.28
218.013
408.641
958.53
963.787
419.08
139.456
586.351
663.771
673.014
679.493
687.527
653.805
427.606
460.147
461.757
340.764
447.763
598.654
1210.14
969.091
1063.39
1041.47
899.067
59.2726
24.7876
154.815
575.977
703.019
717.193
732.076
747.064
331.311
245.13
275.231
326.369
365.814
473.738
1311.18
737.668
952.917
1099.45
847.242
14.5117
7.74646
4.13747
0.919058
355.232
674.255
755.114
747.068
531.69
311.681
443.868
604.856
915.112
1252.44
1371.48
351.181
541.016
783.407
714.485
19.1557
1.55881
0.341987
-0.904066
-2.50559
-3.05055
337.038
523.523
618.62
767.195
888.226
936.142
998.316
1222.65
1463.02
44.304
208.543
488.134
213.394
10.6035
-1.04388
-1.4551
-1.82962
-2.0601
-2.05229
-2.35882
-2.37182
75.1577
74.5089
12.7124
3.99635
8.86691
104.128
649.797
29.9035
153.463
324.705
-6.39579
-2.89752
-2.59363
-2.43549
-2.42961
-2.36251
-2.10877
-1.79741
-1.55385
-1.42896
-1.25574
-1.14365
-1.3527
-0.308883
8.80423
40.3945
43.2775
266.524
285.596
-3.94432
-4.59928
-3.49352
-3.12046
-2.84466
-2.61946
-2.32546
-2.00276
-1.69276
-1.42326
-1.25222
-1.26545
-1.43319
-1.56404
7.58662
95.0268
128.96
272.508
205.695
-5.30024
-4.2276
-3.91783
-3.61127
-3.28084
-2.91687
-2.52082
-2.15039
-1.84448
-1.5987
-1.44209
-1.39931
-1.49459
-1.53483
9.65083
148.663
231.759
283.977
92.4938
-3.49505
-3.97233
-4.22872
-4.12679
-3.83236
-3.33424
-2.77449
-2.35764
-2.01667
-1.7594
-1.58548
-1.48637
-1.5321
-1.49888
-1.69257
156.127
281.734
277.294
21.7196
-1.97086
-3.75792
-4.55341
-4.64367
-4.33085
-3.64515
-2.92844
-2.45195
-2.10416
-1.84775
-1.6676
-1.54175
-1.48456
-1.39423
-1.41508
162.002
286.119
126.515
28.1687
-1.43576
-3.42476
-4.53466
-4.77816
-4.37807
-3.58664
-2.83449
-2.38766
-2.07844
-1.84448
-1.6753
-1.53351
-1.36952
-1.32003
-1.22835
78.6378
65.1851
-1.50926
7.75968
-1.39447
-2.88913
-3.84469
-4.1458
-3.82453
-3.12478
-2.56036
-2.1937
-1.9449
-1.76266
-1.63162
-1.4047
0.251002
-1.22679
0.493065
26.1714
-0.948432
-1.25339
-1.15626
-0.129064
-1.93281
-2.59446
-2.90212
-2.80888
-2.43748
-2.14838
-1.94856
-1.57617
-1.34494
-1.56081
2.43366
10.7754
0.367201
5.55037
121.977
-0.629504
-0.708996
-0.61158
0.146443
-0.837487
-1.36419
-1.69037
-1.86029
-1.81841
-1.77541
-1.71213
-1.31037
-1.00719
-1.12109
11.0833
12.0433
10.4044
8.39911
129.259
-0.498704
-0.450407
-0.292154
-0.211589
-0.358418
-0.741151
-1.13697
-1.3859
-1.47378
-1.50321
-1.5193
-1.38258
-0.968625
-0.647031
12.714
12.7879
12.7087
7.69541
135.298
-0.557111
-0.458502
-0.357673
-0.271522
-0.403355
-0.674787
-0.944768
-1.13357
-1.24916
-1.32192
-1.36663
-1.38228
-1.2704
-0.477839
13.4664
13.3266
5.72596
2.22366
79.6173
-0.579851
-0.559789
-0.474065
-0.450435
-0.539591
-0.699161
-0.868898
-1.00957
-1.11531
-1.19122
-1.23823
-1.26227
-1.27999
-0.530679
14.0643
5.03108
-1.36059
-0.787656
63.6599
-0.715841
-0.687716
-0.604836
-0.57788
-0.628173
-0.725839
-0.838064
-0.940984
-1.01263
-1.079
-1.12652
-1.14907
-1.17192
-1.01117
11.1477
-1.30265
-1.23387
-1.31023
276.872
-0.885839
-0.750533
-0.67375
-0.653054
-0.680026
-0.739733
-0.815586
-0.873125
-0.934797
-0.985956
-1.02518
-1.04007
-1.05246
-0.562155
-0.980491
-1.11276
-1.09275
-0.2234
321.845
-0.857411
-0.751943
-0.699115
-0.684601
-0.700027
-0.738385
-0.777813
-0.822501
-0.871137
-0.917718
-0.93361
-0.94039
-0.940291
2.33832
-0.751478
-0.990896
-0.987134
1.99344
333.883
-0.794788
-0.726027
-0.693203
-0.684975
-0.69587
-0.722303
-0.733752
-0.775885
-0.816351
-0.848016
-0.851673
-0.759268
-0.740537
3.11435
0.0807586
-0.910455
-0.918546
5.00494
345.81
-0.727088
-0.686706
-0.668101
-0.665431
-0.675294
-0.678688
-0.696453
-0.725643
-0.768392
-0.776843
-0.776668
-0.531494
-0.416532
3.23498
-0.224677
-0.899247
-0.883674
6.09759
357.658
-0.655757
-0.637059
-0.630128
-0.632892
-0.64341
-0.633687
-0.654579
-0.692269
-0.712029
-0.710415
-0.630586
-0.307809
-0.35478
2.2599
-0.814356
-0.920032
-0.881205
6.37353
368.24
-0.585098
-0.582176
-0.584517
-0.592253
-0.604057
-0.611402
-0.633589
-0.653106
-0.655183
-0.649
-0.455102
-0.278357
2.1973
-0.893994
-0.86357
-0.959177
-0.893619
7.13274
374.215
-0.517518
-0.525326
-0.53484
-0.54669
-0.561306
-0.57815
-0.595102
-0.606154
-0.607188
-0.600391
-0.457728
0.219578
3.05768
-0.90279
-0.980095
-1.03703
-0.950943
8.50203
165.753
-0.454233
-0.4689
-0.483563
-0.499052
-0.515923
-0.534386
-0.552405
-0.56528
-0.570457
-0.552453
-0.477911
0.0870734
3.0297
-1.01876
-1.10196
-1.13175
-1.04927
2.89536
-1.32094
-0.395498
-0.414026
-0.432034
-0.45045
-0.47009
-0.49165
-0.513535
-0.53161
-0.543952
-0.545267
-0.540685
0.292779
0.79522
-1.06658
-0.912021
-0.820285
-1.1378
-1.21737
-1.183
-0.340933
-0.361271
-0.381319
-0.402143
-0.425089
-0.451464
-0.480042
-0.506048
-0.526396
-0.544187
-0.611555
3.7353
1.64121
0.814731
3.95048
-0.287509
-1.17142
-1.12855
-1.08547
-0.290434
-0.311175
-0.332364
-0.355304
-0.382144
-0.414943
-0.452395
-0.460415
-0.445555
-0.532172
-0.611786
3.96993
5.74668
5.48934
5.38291
0.181012
-1.12828
-0.995906
-0.933742
-0.243908
-0.264179
-0.285842
-0.310506
-0.34154
-0.381395
-0.428548
-0.367899
-0.258047
-0.500229
-0.635
0.550369
5.8175
5.55294
5.58332
-0.191927
-0.928936
-0.777449
-0.714541
-0.201565
-0.220874
-0.242358
-0.268058
-0.302684
-0.347984
-0.317386
-0.192944
-0.258713
-0.357981
-0.633305
-0.7447
1.00025
6.16846
1.6613
-0.774595
-0.612346
-0.508005
-0.470374
-0.164017
-0.182131
-0.202792
-0.22842
-0.264359
-0.305382
-0.0878799
-0.164677
-0.247431
-0.312935
-0.522064
-0.539958
-0.180654
0.271013
-0.399883
-0.389264
-0.314368
-0.273745
-0.264676
-0.131474
-0.148359
-0.167755
-0.192005
-0.225828
-0.252801
-0.136124
-0.116303
-0.204367
-0.274255
-0.276329
-0.284039
-0.318807
-0.21442
-0.15891
-0.133035
-0.123816
-0.125515
-0.132752
-0.103168
-0.118844
-0.136836
-0.158916
-0.187989
-0.224289
-0.267157
-0.281095
-0.260088
-0.176946
-0.17398
-0.0683038
-0.123757
-0.0666488
-0.0168013
-0.0202263
-0.0395044
-0.0579281
-0.0704122
-0.0777033
-0.0920142
-0.108514
-0.128257
-0.15265
-0.180858
-0.213128
-0.251991
-0.296724
-0.256281
-0.0953262
-0.0844528
-0.0989854
-0.0309219
0.00438272
-0.000589642
-0.0220541
-0.0429707
-0.0556807
-0.0536847
-0.0661986
-0.0808014
-0.097876
-0.117497
-0.138229
-0.161794
-0.180861
-0.194624
-0.194767
-0.174131
-0.122731
-0.0620782
-0.0227541
-0.00681705
-0.0159185
-0.0388039
-0.0611365
-0.0743359
-0.0299674
-0.0399218
-0.0516732
-0.0653976
-0.0807575
-0.0962875
-0.110422
-0.119341
-0.116942
-0.10037
-0.0767396
-0.050988
-0.0317329
-0.0229152
-0.0295834
-0.0537113
-0.0857466
-0.113838
-0.128987
)
;

boundaryField
{
    leftWall
    {
        type            fixedFluxPressure;
        gradient        uniform 0;
        value           nonuniform List<scalar> 
50
(
594.535
593.71
590.214
584.7
578.116
571.122
564.097
556.509
320.591
32.9824
3.45816
2.38013
1.90579
1.6933
1.58511
1.50308
1.41222
1.33026
1.26403
1.19934
1.13246
1.06811
1.00713
0.948832
0.893089
0.839785
0.788691
0.739615
0.692429
0.647031
0.603341
0.561299
0.520842
0.481921
0.4445
0.408532
0.373962
0.34072
0.308723
0.277878
0.248089
0.219267
0.19132
0.164156
0.137678
0.11179
0.0863894
0.0613623
0.0366662
0.0119933
)
;
    }
    rightWall
    {
        type            fixedFluxPressure;
        gradient        uniform 0;
        value           nonuniform List<scalar> 
50
(
901.313
887.841
847.027
785.914
815.916
838.233
831.604
798.841
740.309
666.308
646.642
620.575
981.28
1210.14
1311.18
1371.48
1463.02
649.797
40.3945
95.0268
148.663
156.127
162.002
78.6378
26.1714
121.977
129.259
135.298
79.6173
63.6599
276.872
321.845
333.883
345.81
357.658
368.24
374.215
165.753
-1.32094
-1.183
-1.08547
-0.933742
-0.714541
-0.470374
-0.264676
-0.132752
-0.0704122
-0.0556807
-0.0743359
-0.128987
)
;
    }
    lowerWall
    {
        type            fixedFluxPressure;
        gradient        uniform 0;
        value           nonuniform List<scalar> 
62
(
594.535
594.771
596.828
601.442
611.029
627.72
650.161
673.688
695.773
716.742
736.79
755.864
773.784
790.249
805.022
816.939
822.934
825.474
828.994
837.958
859.737
881.458
883.824
883.824
879.256
872.567
864.904
857.219
848.719
836.879
822.794
870.22
766.876
690.277
158.635
1142.32
1122.86
1122.91
1168.37
1201.69
1152.65
1008.14
777.19
1142.32
1032.81
1060.32
1109.47
1047.33
951.622
1080.65
1377.13
1578.2
1555.09
1329.43
1083.86
867.354
704.319
649.981
659.894
714.118
818.552
901.313
)
;
    }
    atmosphere
    {
        type            totalPressure;
        rho             rho;
        psi             none;
        gamma           1;
        p0              uniform 0;
        value           nonuniform List<scalar> 
46
(
0
0
0
0
0
0
0
0
0
0
0
0
0
0
0
0
0
0
0
0
0
0
0
0
-0.00011446
-0.00286068
-0.00950909
-0.018003
-0.026157
-0.0356665
-0.0469581
-0.0603442
-0.0739017
-0.0845701
-0.0898792
-0.0862129
-0.0694824
-0.0429171
-0.0193755
-0.0109103
-0.0184492
-0.0446988
-0.085481
-0.127767
-0.161952
-0.177941
)
;
    }
    defaultFaces
    {
        type            empty;
    }
}


// ************************************************************************* //
