/*--------------------------------*- C++ -*----------------------------------*\
| =========                 |                                                 |
| \\      /  F ield         | OpenFOAM: The Open Source CFD Toolbox           |
|  \\    /   O peration     | Version:  2206                                  |
|   \\  /    A nd           | Website:  www.openfoam.com                      |
|    \\/     M anipulation  |                                                 |
\*---------------------------------------------------------------------------*/
FoamFile
{
    version     2.0;
    format      ascii;
    arch        "LSB;label=32;scalar=64";
    class       surfaceScalarField;
    location    "0.75";
    object      phi;
}
// * * * * * * * * * * * * * * * * * * * * * * * * * * * * * * * * * * * * * //

dimensions      [0 3 -1 0 0 0 0];

oriented        oriented;

internalField   nonuniform List<scalar> 
4432
(
-4.54771e-06
4.54771e-06
-9.45065e-06
4.90294e-06
-1.35926e-05
4.14199e-06
-1.72031e-05
3.61051e-06
-1.96943e-05
2.49117e-06
-1.97643e-05
6.99957e-08
-1.76499e-05
-2.11442e-06
-1.51232e-05
-2.52672e-06
-1.35873e-05
-1.5359e-06
-1.32037e-05
-3.83594e-07
-1.37082e-05
5.04492e-07
-1.48645e-05
1.15633e-06
-1.6499e-05
1.63447e-06
-1.84349e-05
1.93592e-06
-2.00696e-05
1.63475e-06
-2.08328e-05
7.63187e-07
-2.2789e-05
1.95623e-06
-2.8052e-05
5.263e-06
-3.3021e-05
4.96895e-06
-3.11846e-05
-1.83637e-06
-2.2377e-05
-8.80766e-06
-9.91657e-06
-1.24604e-05
-9.91657e-06
-6.38419e-06
1.09319e-05
-1.15836e-05
1.01023e-05
-1.54548e-05
8.01322e-06
-1.87345e-05
6.89023e-06
-2.07676e-05
4.52421e-06
-2.05858e-05
-1.11771e-07
-1.82727e-05
-4.42755e-06
-1.54096e-05
-5.38987e-06
-1.36295e-05
-3.316e-06
-1.31438e-05
-8.69222e-07
-1.34786e-05
8.39295e-07
-1.43268e-05
2.00449e-06
-1.56152e-05
2.92295e-06
-1.74545e-05
3.77516e-06
-2.01456e-05
4.32587e-06
-2.41089e-05
4.72651e-06
-2.86565e-05
6.50383e-06
-3.13356e-05
7.94203e-06
-2.93311e-05
2.96452e-06
-2.3339e-05
-7.82852e-06
-1.55576e-05
-1.6589e-05
-6.72295e-06
-2.1295e-05
-1.66395e-05
-5.75811e-06
1.669e-05
-1.03459e-05
1.46901e-05
-1.42272e-05
1.18945e-05
-1.80615e-05
1.07245e-05
-2.08816e-05
7.3443e-06
-2.10522e-05
5.87903e-08
-1.89046e-05
-6.57513e-06
-1.60549e-05
-8.23958e-06
-1.41447e-05
-5.22617e-06
-1.35148e-05
-1.4991e-06
-1.36339e-05
9.58404e-07
-1.39897e-05
2.36031e-06
-1.43484e-05
3.28159e-06
-1.47754e-05
4.20218e-06
-1.57455e-05
5.296e-06
-1.78213e-05
6.80233e-06
-1.99688e-05
8.65127e-06
-1.97433e-05
7.71654e-06
-1.64117e-05
-3.67051e-07
-1.17516e-05
-1.24887e-05
-6.98778e-06
-2.13528e-05
-2.03118e-06
-2.62516e-05
-1.86707e-05
-4.48195e-06
2.1172e-05
-8.4858e-06
1.8694e-05
-1.2257e-05
1.56658e-05
-1.59277e-05
1.43952e-05
-1.85288e-05
9.94532e-06
-1.90902e-05
6.20216e-07
-1.77854e-05
-7.87994e-06
-1.60169e-05
-1.0008e-05
-1.47168e-05
-6.52625e-06
-1.4238e-05
-1.97795e-06
-1.44189e-05
1.13937e-06
-1.4779e-05
2.72037e-06
-1.49379e-05
3.44049e-06
-1.46962e-05
3.96045e-06
-1.4108e-05
4.70786e-06
-1.32377e-05
5.93204e-06
-1.16091e-05
7.02268e-06
-8.59235e-06
4.69974e-06
-5.36666e-06
-3.59274e-06
-2.85707e-06
-1.49982e-05
-1.15787e-06
-2.3052e-05
1.0367e-06
-2.84462e-05
-1.7634e-05
-2.8168e-06
2.39888e-05
-5.81293e-06
2.16901e-05
-8.75951e-06
1.86123e-05
-1.13157e-05
1.69514e-05
-1.2922e-05
1.15517e-05
-1.36336e-05
1.33176e-06
-1.40175e-05
-7.49604e-06
-1.45216e-05
-9.50396e-06
-1.49099e-05
-6.13787e-06
-1.50758e-05
-1.81209e-06
-1.53637e-05
1.42726e-06
-1.57088e-05
3.06545e-06
-1.58437e-05
3.57543e-06
-1.55492e-05
3.66594e-06
-1.4619e-05
3.77767e-06
-1.26838e-05
3.99686e-06
-9.39722e-06
3.73607e-06
-5.46401e-06
7.66525e-07
-2.53688e-06
-6.51987e-06
-1.07143e-06
-1.64637e-05
-2.18761e-07
-2.39047e-05
1.81787e-06
-3.04828e-05
-1.58161e-05
-7.31185e-07
2.47199e-05
-2.00643e-06
2.29654e-05
-3.67187e-06
2.02778e-05
-4.77294e-06
1.80524e-05
-5.06136e-06
1.18401e-05
-5.90757e-06
2.17797e-06
-8.52914e-06
-4.87446e-06
-1.19468e-05
-6.08632e-06
-1.45938e-05
-3.49081e-06
-1.58444e-05
-5.6158e-07
-1.63864e-05
1.96929e-06
-1.66675e-05
3.34659e-06
-1.66613e-05
3.5692e-06
-1.6294e-05
3.29868e-06
-1.54564e-05
2.93998e-06
-1.37846e-05
2.32515e-06
-1.09883e-05
9.39749e-07
-7.67475e-06
-2.54704e-06
-5.21444e-06
-8.98018e-06
-4.0706e-06
-1.76075e-05
-2.33477e-06
-2.56405e-05
1.54792e-07
-3.29724e-05
-1.56614e-05
1.36641e-06
2.33535e-05
1.81536e-06
2.25164e-05
2.28777e-06
1.98054e-05
3.25239e-06
1.70878e-05
3.74709e-06
1.13454e-05
1.81499e-06
4.11007e-06
-3.54529e-06
4.85819e-07
-9.74009e-06
1.08479e-07
-1.41778e-05
9.46938e-07
-1.65357e-05
1.79632e-06
-1.74684e-05
2.90199e-06
-1.76756e-05
3.55378e-06
-1.74399e-05
3.33344e-06
-1.68629e-05
2.72174e-06
-1.59937e-05
2.07072e-06
-1.46099e-05
9.41335e-07
-1.25008e-05
-1.16927e-06
-1.0064e-05
-4.9839e-06
-8.18141e-06
-1.08627e-05
-7.225e-06
-1.85639e-05
-5.73038e-06
-2.71352e-05
-4.05308e-06
-3.46497e-05
-1.97144e-05
3.28727e-06
2.00662e-05
6.83496e-06
1.89687e-05
1.02956e-05
1.63447e-05
1.28839e-05
1.44996e-05
1.21277e-05
1.21015e-05
6.24971e-06
9.9881e-06
-2.2727e-06
9.00824e-06
-9.53976e-06
7.37554e-06
-1.41165e-05
5.52368e-06
-1.68522e-05
4.532e-06
-1.8283e-05
4.33279e-06
-1.86871e-05
3.95791e-06
-1.83655e-05
3.01187e-06
-1.75767e-05
1.93287e-06
-1.65648e-05
1.05888e-06
-1.52274e-05
-3.96058e-07
-1.34451e-05
-2.95157e-06
-1.14693e-05
-6.95975e-06
-9.99349e-06
-1.23385e-05
-9.55211e-06
-1.90053e-05
-1.01283e-05
-2.65589e-05
-1.07228e-05
-3.40552e-05
-3.04372e-05
2.84217e-05
-2.84217e-05
1.54863e-05
1.29354e-05
-1.51195e-05
3.06058e-05
-6.88149e-05
5.36954e-05
-0.000130532
6.17167e-05
-0.000167428
3.68966e-05
-0.000162012
-5.41581e-06
-0.000124558
-3.74542e-05
-8.45218e-05
-4.00365e-05
-5.71024e-05
-2.74194e-05
-5.03536e-05
-6.7488e-06
-5.1222e-05
8.68453e-07
-5.42402e-05
3.01812e-06
-5.78597e-05
3.61957e-06
-5.7713e-05
-1.46682e-07
-5.35494e-05
-4.16367e-06
-4.29664e-05
-1.0583e-05
-2.08095e-05
-2.21569e-05
-2.08095e-05
5.93671e-06
-3.43584e-05
-2.6375e-05
4.52471e-05
-8.66978e-05
9.09286e-05
-0.000152617
0.000119614
-0.000195668
0.000104768
-0.000183387
2.46165e-05
-0.000125989
-6.2814e-05
-5.52357e-05
-0.000108208
2.7091e-06
-9.79812e-05
3.48365e-05
-5.95468e-05
3.4378e-05
-6.2903e-06
1.22587e-06
3.40206e-05
-3.53267e-05
3.95707e-05
-5.55432e-05
2.38361e-05
-6.1083e-05
5.39307e-06
-5.87669e-05
-6.47972e-06
-5.11074e-05
-1.82426e-05
-3.12632e-05
-4.20011e-05
-5.20727e-05
-2.06451e-05
-1.37133e-05
-7.05454e-05
9.51474e-05
-0.00013381
0.000154194
-0.000185095
0.000170899
-0.000183682
0.000103354
-0.000122693
-3.6372e-05
-4.87958e-05
-0.000136712
5.63255e-06
-0.000162636
3.54087e-05
-0.000127757
6.3298e-05
-8.74361e-05
0.000102998
-4.59905e-05
0.000125562
1.14566e-05
0.000108975
5.61577e-05
7.1073e-05
6.17383e-05
3.28716e-05
4.35945e-05
-1.48148e-06
2.78733e-05
-1.93615e-05
-3.62521e-07
-1.77609e-05
-4.36017e-05
-6.98336e-05
-4.51451e-05
3.14319e-05
-9.95878e-05
0.00014959
-0.000153834
0.00020844
-0.000174354
0.000191419
-0.000126247
5.52476e-05
-5.41195e-05
-0.000108499
-3.04835e-06
-0.000187783
1.94669e-05
-0.000185151
3.6596e-05
-0.000144887
5.27746e-05
-0.000103615
7.33491e-05
-6.65651e-05
0.000104758
-1.99519e-05
0.000126596
3.4319e-05
0.000116428
7.19066e-05
8.93382e-05
7.06844e-05
6.54747e-05
5.17367e-05
4.11213e-05
2.39909e-05
1.30734e-05
-1.55538e-05
-5.67602e-05
-5.60982e-05
8.75301e-05
-0.000108964
0.000202456
-0.000149303
0.000248779
-0.000139937
0.000182052
-6.91029e-05
-1.55862e-05
-1.53657e-05
-0.000162237
1.02059e-05
-0.000213354
1.93378e-05
-0.000194283
3.06293e-05
-0.000156178
4.57795e-05
-0.000118765
6.41677e-05
-8.49532e-05
8.25767e-05
-3.8361e-05
0.000104201
1.26952e-05
0.000115184
6.09232e-05
0.000108116
7.77522e-05
9.22502e-05
6.76027e-05
7.06041e-05
4.56369e-05
3.73371e-05
1.77132e-05
-1.94231e-05
-5.87343e-05
0.000146264
-0.000105731
0.000249453
-0.000133899
0.000276947
-9.67461e-05
0.000144899
-2.98071e-05
-8.25252e-05
2.23058e-06
-0.000194274
9.47914e-06
-0.000220603
1.3159e-05
-0.000197963
2.07789e-05
-0.000163798
3.3215e-05
-0.000131201
5.04512e-05
-0.000102189
6.6752e-05
-5.46618e-05
8.51782e-05
-5.73101e-06
0.000100582
4.5519e-05
0.000101239
7.70956e-05
9.07271e-05
7.81146e-05
7.33104e-05
6.30536e-05
4.4048e-05
4.69756e-05
2.46249e-05
-5.92493e-05
0.000205514
-9.67892e-05
0.000286993
-0.000110917
0.000291075
-5.86763e-05
9.26579e-05
-7.67069e-06
-0.000133531
3.74404e-06
-0.000205689
3.58357e-06
-0.000220442
5.71376e-06
-0.000200093
1.03036e-05
-0.000168388
1.85942e-05
-0.000139492
3.14612e-05
-0.000115057
4.02984e-05
-6.3499e-05
5.60161e-05
-2.14487e-05
7.22452e-05
2.929e-05
7.64741e-05
7.28668e-05
7.1289e-05
8.32997e-05
5.9386e-05
7.49566e-05
3.74823e-05
6.88794e-05
6.21072e-05
-5.84592e-05
0.000263973
-8.9376e-05
0.00031791
-8.55896e-05
0.000287289
-3.57699e-05
4.28381e-05
-4.19742e-06
-0.000165103
-1.92724e-06
-0.000207959
-3.20308e-06
-0.000219167
-2.98851e-06
-0.000200308
-2.38203e-06
-0.000168994
9.36384e-07
-0.00014281
6.03735e-06
-0.000120158
-6.12935e-07
-5.68488e-05
7.14994e-06
-2.92116e-05
2.29497e-05
1.34901e-05
3.9392e-05
5.64245e-05
4.33676e-05
7.93241e-05
3.91309e-05
7.91932e-05
2.49813e-05
8.3029e-05
8.70885e-05
6.23081e-06
1.38354e-05
6.29169e-06
1.89078e-05
6.51808e-07
2.19846e-05
-7.87741e-06
2.30288e-05
-1.72304e-05
2.14545e-05
-2.52559e-05
1.80136e-05
-3.01753e-05
1.39276e-05
-3.2966e-05
1.01662e-05
-3.52806e-05
7.8383e-06
-3.76256e-05
6.87693e-06
-3.96822e-05
6.38944e-06
-4.06202e-05
4.89588e-06
-3.99148e-05
2.30652e-06
-3.81445e-05
1.62529e-07
-3.64306e-05
-6.55013e-07
-3.42996e-05
-2.52703e-06
-3.10693e-05
-6.18195e-06
-2.68116e-05
-1.12174e-05
-2.34899e-05
-1.56602e-05
-2.30226e-05
-1.94726e-05
-2.67112e-05
-2.28703e-05
-3.60275e-05
-2.47389e-05
-1.8362e-05
-4.81027e-05
-9.28275e-05
0.000106663
-9.98274e-05
2.59078e-05
-9.5417e-05
1.75742e-05
-8.91172e-05
1.6729e-05
-8.19182e-05
1.42555e-05
-7.4611e-05
1.07065e-05
-6.74525e-05
6.76914e-06
-6.00299e-05
2.74364e-06
-5.22792e-05
8.75427e-08
-4.58937e-05
4.91511e-07
-4.0693e-05
1.18868e-06
-3.67053e-05
9.08164e-07
-3.46325e-05
2.33798e-07
-3.41745e-05
-2.95528e-07
-3.40101e-05
-8.19391e-07
-3.26249e-05
-3.91226e-06
-2.90541e-05
-9.75278e-06
-2.45614e-05
-1.57101e-05
-2.14662e-05
-1.87554e-05
-2.00705e-05
-2.08683e-05
-2.07578e-05
-2.2183e-05
-2.44807e-05
-2.1016e-05
-1.50263e-05
-2.78165e-05
-9.1203e-05
0.000197866
-0.000157852
9.2557e-05
-0.00020005
5.97726e-05
-0.000205291
2.19696e-05
-0.000189164
-1.87111e-06
-0.000167846
-1.06122e-05
-0.000148138
-1.29385e-05
-0.000130173
-1.5221e-05
-0.000113137
-1.69493e-05
-9.69498e-05
-1.56953e-05
-8.47972e-05
-1.09639e-05
-7.5311e-05
-8.57804e-06
-6.46041e-05
-1.04731e-05
-5.20501e-05
-1.28495e-05
-4.3109e-05
-9.7605e-06
-3.94439e-05
-7.57737e-06
-3.89699e-05
-1.02267e-05
-3.85932e-05
-1.60868e-05
-3.6052e-05
-2.12967e-05
-3.044e-05
-2.64802e-05
-2.40587e-05
-2.85643e-05
-2.07927e-05
-2.4282e-05
-1.30757e-05
-2.27433e-05
-5.93187e-05
0.000257185
-0.000111798
0.000145036
-0.000151412
9.93872e-05
-0.000182984
5.35413e-05
-0.000208738
2.38835e-05
-0.000237084
1.77337e-05
-0.000271311
2.12881e-05
-0.000309924
2.33919e-05
-0.000343898
1.70249e-05
-0.000355732
-3.86125e-06
-0.000336607
-3.00894e-05
-0.000295407
-4.97778e-05
-0.000251201
-5.46796e-05
-0.000207209
-5.68414e-05
-0.000179759
-3.72104e-05
-0.000166625
-2.07115e-05
-0.00015389
-2.29615e-05
-0.00013469
-3.52863e-05
-0.00011054
-4.5447e-05
-8.32326e-05
-5.37877e-05
-5.89772e-05
-5.28198e-05
-4.28093e-05
-4.04499e-05
-2.02836e-05
-3.56014e-05
-2.41697e-05
0.000281355
-6.00382e-05
0.000180905
-7.39528e-05
0.000113302
-8.40843e-05
6.36728e-05
-9.4507e-05
3.43061e-05
-0.000110721
3.39477e-05
-0.000135504
4.60714e-05
-0.000172616
6.05028e-05
-0.000216144
6.05533e-05
-0.000261885
4.18799e-05
-0.00030503
1.30552e-05
-0.000337123
-1.76846e-05
-0.000341216
-5.05862e-05
-0.000327973
-7.00844e-05
-0.000300028
-6.51559e-05
-0.000260564
-6.01753e-05
-0.000216627
-6.68981e-05
-0.00016683
-8.50838e-05
-0.000116888
-9.53886e-05
-7.56073e-05
-9.50688e-05
-5.74239e-05
-7.10031e-05
-6.88744e-05
-2.89995e-05
-3.92571e-06
-8.52323e-05
1.56587e-05
0.000265696
-5.30473e-06
0.000201868
-1.5167e-05
0.000123164
-1.53364e-05
6.38423e-05
-2.22079e-05
4.11775e-05
-3.10765e-05
4.28162e-05
-3.63636e-05
5.13584e-05
-4.4699e-05
6.88381e-05
-6.34436e-05
7.92978e-05
-8.89579e-05
6.73943e-05
-0.000121989
4.60858e-05
-0.00016208
2.24072e-05
-0.000202716
-9.95073e-06
-0.000228997
-4.38034e-05
-0.000228671
-6.54822e-05
-0.000206764
-8.20821e-05
-0.000188082
-8.55803e-05
-0.000188879
-8.42869e-05
-0.000204319
-7.99485e-05
-0.000216121
-8.32668e-05
-0.000222924
-6.42002e-05
-0.000209847
-4.20762e-05
-2.4655e-05
-0.000189118
4.80178e-05
0.000217678
4.22878e-05
0.000207598
3.49713e-05
0.00013048
2.65793e-05
7.22343e-05
1.77689e-05
4.99879e-05
8.28609e-06
5.2299e-05
2.69972e-06
5.69446e-05
5.45898e-06
6.60788e-05
8.13521e-06
7.66214e-05
2.54061e-07
7.52754e-05
-1.43398e-05
6.06796e-05
-3.2853e-05
4.09204e-05
-6.26832e-05
1.98795e-05
-0.000110172
3.68578e-06
-0.000161
-1.46549e-05
-0.000212216
-3.08656e-05
-0.000262748
-3.50491e-05
-0.000296116
-5.09181e-05
-0.000295296
-8.07692e-05
-0.000301093
-7.74697e-05
-0.000303233
-6.20602e-05
-0.000296878
-4.84304e-05
-3.98946e-05
-0.000281639
5.17238e-05
0.000165954
6.96923e-05
0.00018963
6.50569e-05
0.000135116
5.13627e-05
8.59286e-05
3.66015e-05
6.47491e-05
2.44392e-05
6.44613e-05
1.459e-05
6.67937e-05
1.18476e-05
6.88211e-05
1.68412e-05
7.16278e-05
1.89988e-05
7.31177e-05
1.27375e-05
6.69409e-05
-2.94698e-07
5.39526e-05
-2.17975e-05
4.13822e-05
-5.51815e-05
3.70696e-05
-0.000110854
4.10177e-05
-0.000188608
4.68881e-05
-0.000262955
3.92981e-05
-0.000316213
2.33979e-06
-0.000331938
-6.50444e-05
-0.000338392
-7.10157e-05
-0.000339653
-6.07995e-05
-0.000331792
-5.62905e-05
-6.11915e-05
-0.000310496
3.19426e-05
0.000134012
6.0179e-05
0.000161393
6.53139e-05
0.000129981
5.44372e-05
9.68054e-05
3.91005e-05
8.00859e-05
2.66671e-05
7.68947e-05
1.6688e-05
7.67728e-05
9.57647e-06
7.59325e-05
8.17556e-06
7.30286e-05
9.40635e-06
7.18869e-05
6.43035e-06
6.99168e-05
-2.43255e-06
6.28155e-05
-1.52811e-05
5.42308e-05
-3.29392e-05
5.47276e-05
-5.8147e-05
6.62255e-05
-9.45134e-05
8.32545e-05
-0.000145961
9.07453e-05
-0.000209274
6.56531e-05
-0.000257167
-1.71511e-05
-0.000258445
-6.97377e-05
-0.000264068
-5.5177e-05
-0.000282385
-3.79728e-05
-2.20443e-05
-0.000321533
1.09237e-05
0.000123088
3.71327e-05
0.000135184
4.76405e-05
0.000119473
4.28725e-05
0.000101573
3.23863e-05
9.05722e-05
2.31795e-05
8.61016e-05
1.55618e-05
8.43904e-05
8.94757e-06
8.25467e-05
4.02692e-06
7.79492e-05
1.64793e-06
7.42658e-05
-6.55173e-07
7.22199e-05
-5.91919e-06
6.80795e-05
-1.45544e-05
6.28661e-05
-2.38593e-05
6.40323e-05
-3.11785e-05
7.35446e-05
-3.46923e-05
8.67684e-05
-4.05449e-05
9.65979e-05
-5.54761e-05
8.05842e-05
-8.70276e-05
1.44004e-05
-0.000101751
-5.50144e-05
-0.000119039
-3.78891e-05
-0.000132877
-2.41344e-05
-9.11704e-06
-0.000145804
2.07022e-06
0.000121018
2.01396e-05
0.000117115
2.96145e-05
0.000109999
2.90999e-05
0.000102088
2.42403e-05
9.54319e-05
1.92316e-05
9.11104e-05
1.46891e-05
8.89329e-05
1.02435e-05
8.69923e-05
5.40394e-06
8.27887e-05
1.37853e-06
7.82912e-05
-1.33025e-06
7.49287e-05
-4.84902e-06
7.15984e-05
-1.06955e-05
6.87126e-05
-1.64831e-05
6.982e-05
-1.86128e-05
7.56741e-05
-1.4473e-05
8.26285e-05
-4.93167e-06
8.70565e-05
-5.924e-06
8.15765e-05
-4.24848e-05
5.09612e-05
-0.000105789
8.28933e-06
-0.000137937
-5.74083e-06
-0.000156958
-5.11344e-06
-2.70774e-05
-0.000138997
1.41264e-06
0.000119605
1.1734e-05
0.000106794
1.81287e-05
0.000103604
1.95076e-05
0.000100709
1.83107e-05
9.66289e-05
1.63332e-05
9.30879e-05
1.42241e-05
9.1042e-05
1.18915e-05
8.93249e-05
8.58749e-06
8.60927e-05
4.94429e-06
8.19346e-05
1.85976e-06
7.80134e-05
-1.38329e-06
7.48415e-05
-5.85859e-06
7.31879e-05
-1.01905e-05
7.41518e-05
-1.18868e-05
7.73702e-05
-9.20669e-06
7.99484e-05
-1.62027e-06
7.94701e-05
5.72648e-06
7.42297e-05
-2.75192e-06
5.94396e-05
-2.76184e-05
3.31559e-05
-5.35308e-05
2.01714e-05
-8.96343e-05
3.09901e-05
3.51254e-06
-0.000120224
2.45212e-06
0.000117153
8.02886e-06
0.000101218
1.21521e-05
9.9481e-05
1.40802e-05
9.87815e-05
1.4524e-05
9.61852e-05
1.4137e-05
9.34751e-05
1.34885e-05
9.16906e-05
1.26131e-05
9.02004e-05
1.08729e-05
8.78331e-05
8.26783e-06
8.45398e-05
5.22773e-06
8.10536e-05
1.73108e-06
7.83383e-05
-2.33549e-06
7.72545e-05
-6.10578e-06
7.7922e-05
-8.27165e-06
7.9536e-05
-8.20099e-06
7.98777e-05
-6.02627e-06
7.72953e-05
-3.52812e-06
7.17316e-05
-5.7107e-06
6.16223e-05
-1.41208e-05
4.15661e-05
-1.93947e-05
2.54452e-05
-3.25196e-05
4.41149e-05
6.47288e-06
-3.548e-05
2.84614e-06
0.000114307
6.24445e-06
9.78194e-05
9.10238e-06
9.66233e-05
1.09692e-05
9.69149e-05
1.19175e-05
9.52371e-05
1.22061e-05
9.31866e-05
1.22418e-05
9.1655e-05
1.20835e-05
9.03588e-05
1.12763e-05
8.86404e-05
9.52412e-06
8.62921e-05
6.81587e-06
8.3762e-05
3.32933e-06
8.1825e-05
-5.22963e-07
8.11068e-05
-4.07102e-06
8.147e-05
-6.7185e-06
8.21835e-05
-8.55613e-06
8.17154e-05
-1.02226e-05
7.89618e-05
-1.25499e-05
7.40589e-05
-1.65316e-05
6.5604e-05
-2.79697e-05
5.30042e-05
-5.29707e-05
5.04463e-05
-5.68315e-05
4.79756e-05
-3.15019e-05
-1.88566e-05
2.78413e-06
0.000111523
5.23176e-06
9.53718e-05
7.34886e-06
9.45063e-05
8.96117e-06
9.53028e-05
9.97219e-06
9.42262e-05
1.04826e-05
9.26762e-05
1.07271e-05
9.14107e-05
1.07654e-05
9.03208e-05
1.0306e-05
8.91e-05
9.0113e-06
8.75869e-05
6.72592e-06
8.60475e-05
3.61089e-06
8.49401e-05
1.18969e-07
8.45985e-05
-3.2846e-06
8.48736e-05
-6.40168e-06
8.53006e-05
-9.65915e-06
8.49729e-05
-1.37586e-05
8.30613e-05
-1.94156e-05
7.9716e-05
-3.00105e-05
7.61989e-05
-5.66061e-05
7.95997e-05
-9.63016e-05
9.01417e-05
-0.000106583
5.8257e-05
-3.99585e-05
-9.81264e-05
2.56657e-06
0.000108957
4.5623e-06
9.33763e-05
6.2019e-06
9.28669e-05
7.56052e-06
9.39443e-05
8.51898e-06
9.3268e-05
9.07154e-06
9.21238e-05
9.33031e-06
9.11518e-05
9.34308e-06
9.03081e-05
8.94441e-06
8.94988e-05
7.87454e-06
8.86569e-05
5.99339e-06
8.79287e-05
3.39627e-06
8.75373e-05
3.63472e-07
8.76313e-05
-2.8675e-06
8.81046e-05
-6.36981e-06
8.8803e-05
-1.06796e-05
8.92827e-05
-1.6511e-05
8.88926e-05
-2.50712e-05
8.82762e-05
-4.15968e-05
9.27244e-05
-7.3724e-05
0.000111727
-0.000109373
0.000125791
-0.000116014
6.48981e-05
-1.89494e-05
-0.000137024
2.30409e-06
0.000106653
4.06754e-06
9.16129e-05
5.40456e-06
9.153e-05
6.57183e-06
9.2777e-05
7.47412e-06
9.23656e-05
8.03638e-06
9.15617e-05
8.29673e-06
9.08915e-05
8.2783e-06
9.03268e-05
7.89988e-06
8.98773e-05
7.00714e-06
8.95496e-05
5.51146e-06
8.94245e-05
3.44752e-06
8.96013e-05
9.22135e-07
9.01567e-05
-2.0461e-06
9.10729e-05
-5.61892e-06
9.23759e-05
-1.02925e-05
9.39563e-05
-1.67743e-05
9.53743e-05
-2.59876e-05
9.74894e-05
-4.07037e-05
0.000107441
-6.20187e-05
0.000133042
-7.90447e-05
0.000142817
-8.84462e-05
7.42997e-05
6.22005e-06
-0.000113616
2.05267e-06
0.0001046
3.66988e-06
8.99957e-05
4.83438e-06
9.03656e-05
5.88823e-06
9.17234e-05
6.7635e-06
9.14904e-05
7.35889e-06
9.09663e-05
7.67592e-06
9.05744e-05
7.71162e-06
9.02913e-05
7.43084e-06
9.01581e-05
6.76185e-06
9.02187e-05
5.65443e-06
9.0532e-05
4.10023e-06
9.11555e-05
2.10233e-06
9.21545e-05
-4.11049e-07
9.35863e-05
-3.58826e-06
9.55531e-05
-7.75897e-06
9.81269e-05
-1.35078e-05
0.000101123
-2.10595e-05
0.000105041
-2.91075e-05
0.000115489
-3.51027e-05
0.000139037
-4.08984e-05
0.000148613
-5.83312e-05
9.17324e-05
2.25823e-05
-7.46934e-05
1.85244e-06
0.000102748
3.34411e-06
8.85041e-05
4.42609e-06
8.92835e-05
5.43683e-06
9.07127e-05
6.31943e-06
9.06078e-05
6.97894e-06
9.03067e-05
7.40573e-06
9.01477e-05
7.58272e-06
9.01144e-05
7.49305e-06
9.02477e-05
7.1078e-06
9.0604e-05
6.40062e-06
9.12391e-05
5.34635e-06
9.22096e-05
3.9102e-06
9.35906e-05
2.02863e-06
9.54679e-05
-3.93537e-07
9.79753e-05
-3.51382e-06
0.000101247
-7.68105e-06
0.00010529
-1.28632e-05
0.000110223
-1.60549e-05
0.00011868
-1.23508e-05
0.000135333
-9.74094e-06
0.000146003
-2.69161e-05
0.000108908
4.334e-05
-4.76738e-05
1.71999e-06
0.000101027
3.09183e-06
8.71322e-05
4.14735e-06
8.82281e-05
5.16494e-06
8.96951e-05
6.0834e-06
8.96895e-05
6.83003e-06
8.95599e-05
7.39689e-06
8.9581e-05
7.76641e-06
8.97449e-05
7.92594e-06
9.00881e-05
7.86472e-06
9.06652e-05
7.56888e-06
9.15348e-05
7.01558e-06
9.27628e-05
6.17635e-06
9.44298e-05
5.01126e-06
9.6633e-05
3.48244e-06
9.9504e-05
1.54292e-06
0.000103187
-9.86562e-07
0.00010782
-4.14074e-06
0.000113377
-5.87437e-06
0.000120414
-1.58626e-06
0.000131045
4.12144e-06
0.000140295
-8.40936e-06
0.000121438
6.60935e-05
-3.11631e-05
1.64758e-06
9.93799e-05
2.91569e-06
8.58641e-05
3.97876e-06
8.71652e-05
5.03276e-06
8.86412e-05
6.00887e-06
8.87135e-05
6.85876e-06
8.87099e-05
7.5785e-06
8.88613e-05
8.15785e-06
8.91654e-05
8.5897e-06
8.96562e-05
8.86947e-06
9.03853e-05
8.98924e-06
9.14149e-05
8.94124e-06
9.28107e-05
8.71148e-06
9.46596e-05
8.28432e-06
9.70603e-05
7.64565e-06
0.000100143
6.77427e-06
0.000104058
5.6075e-06
0.000108987
3.97847e-06
0.000115006
2.33117e-06
0.000122061
2.99709e-06
0.000130379
4.39036e-06
0.000138902
-8.52563e-06
0.000134354
0.000100818
-4.32503e-05
1.61665e-06
9.77632e-05
2.80855e-06
8.46723e-05
3.90011e-06
8.60737e-05
5.00661e-06
8.75348e-05
6.05535e-06
8.76647e-05
7.01788e-06
8.77475e-05
7.89511e-06
8.79841e-05
8.68533e-06
8.83751e-05
9.38815e-06
8.89534e-05
1.00063e-05
8.97671e-05
1.05431e-05
9.0878e-05
1.1e-05
9.23538e-05
1.13828e-05
9.42769e-05
1.16944e-05
9.67487e-05
1.19367e-05
9.99006e-05
1.20962e-05
0.000103899
1.21184e-05
0.000108964
1.18083e-05
0.000115317
1.07786e-05
0.000123091
8.78489e-06
0.000132373
4.02125e-06
0.000143665
-1.65846e-05
0.00015496
0.000138576
-5.43426e-05
1.61081e-06
9.61524e-05
2.75621e-06
8.3527e-05
3.88877e-06
8.49412e-05
5.05569e-06
8.6368e-05
6.18606e-06
8.65343e-05
7.26522e-06
8.66683e-05
8.29922e-06
8.695e-05
9.29433e-06
8.73798e-05
1.02587e-05
8.79889e-05
1.12036e-05
8.88221e-05
1.21435e-05
8.9938e-05
1.30964e-05
9.14008e-05
1.40842e-05
9.3289e-05
1.51307e-05
9.57023e-05
1.62614e-05
9.87699e-05
1.749e-05
0.00010267
1.87997e-05
0.000107655
2.00565e-05
0.00011406
2.08071e-05
0.00012234
2.00658e-05
0.000133114
1.60763e-05
0.000147655
1.49796e-06
0.000169538
0.000181745
-4.16713e-05
1.61954e-06
9.4533e-05
2.74306e-06
8.24036e-05
3.92223e-06
8.37621e-05
5.15227e-06
8.51379e-05
6.36723e-06
8.53193e-05
7.56161e-06
8.54739e-05
8.74711e-06
8.57645e-05
9.93634e-06
8.61905e-05
1.11462e-05
8.67789e-05
1.23972e-05
8.7571e-05
1.37166e-05
8.86186e-05
1.5137e-05
8.99804e-05
1.67006e-05
9.17255e-05
1.84586e-05
9.39444e-05
2.04754e-05
9.67532e-05
2.28282e-05
0.000100317
2.56085e-05
0.000104874
2.89041e-05
0.000110764
3.2753e-05
0.000118491
3.70651e-05
0.000128802
4.16705e-05
0.000143049
4.77624e-05
0.000163446
0.00019208
3.7427e-05
1.63588e-06
9.28971e-05
2.75502e-06
8.12845e-05
3.98091e-06
8.25361e-05
5.27318e-06
8.38456e-05
6.569e-06
8.40235e-05
7.87142e-06
8.41714e-05
9.19659e-06
8.44393e-05
1.05633e-05
8.48238e-05
1.19953e-05
8.53468e-05
1.35221e-05
8.60441e-05
1.51817e-05
8.6959e-05
1.70213e-05
8.81408e-05
1.91023e-05
8.96446e-05
2.15059e-05
9.15409e-05
2.43401e-05
9.39191e-05
2.77579e-05
9.68996e-05
3.19834e-05
0.000100649
3.73608e-05
0.000105387
4.44573e-05
0.000111395
5.42944e-05
0.000118964
6.87614e-05
0.000128582
9.32228e-05
0.000138985
0.000156584
0.000128719
1.65367e-06
9.12434e-05
2.78084e-06
8.01574e-05
4.04964e-06
8.12672e-05
5.39763e-06
8.24977e-05
6.76563e-06
8.26554e-05
8.16321e-06
8.27739e-05
9.6106e-06
8.29919e-05
1.11315e-05
8.33029e-05
1.27547e-05
8.37236e-05
1.45163e-05
8.42824e-05
1.64629e-05
8.50124e-05
1.86534e-05
8.59503e-05
2.11633e-05
8.71346e-05
2.40938e-05
8.86105e-05
2.75853e-05
9.04275e-05
3.1837e-05
9.26479e-05
3.71479e-05
9.5338e-05
4.39755e-05
9.8559e-05
5.30526e-05
0.000102317
6.55715e-05
0.000106446
8.35288e-05
0.000110625
0.000109632
0.000112882
0.000115417
0.000150799
1.66795e-06
8.95755e-05
2.81083e-06
7.90144e-05
4.11737e-06
7.99607e-05
5.5105e-06
8.11047e-05
6.93797e-06
8.12279e-05
8.41375e-06
8.12981e-05
9.96072e-06
8.14449e-05
1.16059e-05
8.16576e-05
1.33818e-05
8.19475e-05
1.53291e-05
8.23351e-05
1.74988e-05
8.28427e-05
1.99553e-05
8.34938e-05
2.27815e-05
8.43084e-05
2.60857e-05
8.53064e-05
3.00137e-05
8.64996e-05
3.47679e-05
8.78938e-05
4.06315e-05
8.94744e-05
4.80032e-05
9.11872e-05
5.74405e-05
9.28802e-05
6.96692e-05
9.42168e-05
8.57047e-05
9.45894e-05
0.000105958
9.26284e-05
8.73338e-05
0.000134041
1.67661e-06
8.78989e-05
2.83768e-06
7.78533e-05
4.17543e-06
7.8623e-05
5.60129e-06
7.96789e-05
7.07248e-06
7.97567e-05
8.60555e-06
7.9765e-05
1.02258e-05
7.98246e-05
1.19617e-05
7.99216e-05
1.38476e-05
8.00616e-05
1.59258e-05
8.02568e-05
1.82485e-05
8.052e-05
2.08807e-05
8.08616e-05
2.39034e-05
8.12858e-05
2.74196e-05
8.17902e-05
3.15623e-05
8.2357e-05
3.65035e-05
8.29526e-05
4.24658e-05
8.35121e-05
4.97288e-05
8.39242e-05
5.86257e-05
8.39834e-05
6.95007e-05
8.33418e-05
8.26877e-05
8.14024e-05
9.80375e-05
7.72787e-05
6.96737e-05
0.000115698
1.68082e-06
8.62181e-05
2.85649e-06
7.66777e-05
4.21769e-06
7.72619e-05
5.6616e-06
7.8235e-05
7.15937e-06
7.82589e-05
8.72749e-06
7.81968e-05
1.0393e-05
7.8159e-05
1.21842e-05
7.81303e-05
1.41356e-05
7.81101e-05
1.62887e-05
7.81036e-05
1.86942e-05
7.81145e-05
2.14133e-05
7.81424e-05
2.45201e-05
7.8179e-05
2.81051e-05
7.82052e-05
3.22777e-05
7.81844e-05
3.71718e-05
7.80584e-05
4.29451e-05
7.77388e-05
4.97765e-05
7.70928e-05
5.78454e-05
7.59146e-05
6.72889e-05
7.38982e-05
7.8119e-05
7.05723e-05
9.00434e-05
6.53543e-05
5.74908e-05
0.000102226
1.6842e-06
8.45339e-05
2.86388e-06
7.54981e-05
4.23754e-06
7.58883e-05
5.68538e-06
7.67871e-05
7.19194e-06
7.67523e-05
8.77308e-06
7.66155e-05
1.04563e-05
7.64756e-05
1.22684e-05
7.63181e-05
1.42426e-05
7.61358e-05
1.6418e-05
7.59281e-05
1.88413e-05
7.56912e-05
2.15677e-05
7.54159e-05
2.46613e-05
7.50853e-05
2.81971e-05
7.46693e-05
3.22604e-05
7.41211e-05
3.69477e-05
7.33711e-05
4.23625e-05
7.2324e-05
4.86076e-05
7.08477e-05
5.57612e-05
6.87609e-05
6.3838e-05
6.58214e-05
7.27137e-05
6.16966e-05
8.20581e-05
5.60098e-05
4.83886e-05
9.11603e-05
1.69082e-06
8.28432e-05
2.85788e-06
7.43311e-05
4.22859e-06
7.45176e-05
5.66611e-06
7.53495e-05
7.16423e-06
7.52541e-05
8.73776e-06
7.50418e-05
1.04131e-05
7.48001e-05
1.22153e-05
7.45158e-05
1.41748e-05
7.41763e-05
1.63269e-05
7.37759e-05
1.87131e-05
7.33049e-05
2.13808e-05
7.27483e-05
2.43832e-05
7.20829e-05
2.77796e-05
7.12729e-05
3.16332e-05
7.02674e-05
3.6009e-05
6.89953e-05
4.09686e-05
6.73646e-05
4.65599e-05
6.52564e-05
5.27985e-05
6.25222e-05
5.96374e-05
5.89824e-05
6.69212e-05
5.44127e-05
7.43596e-05
4.85714e-05
4.12749e-05
8.14734e-05
1.70213e-06
8.11411e-05
2.83719e-06
7.3196e-05
4.18456e-06
7.31702e-05
5.59671e-06
7.39372e-05
7.06966e-06
7.37809e-05
8.61608e-06
7.34953e-05
1.02613e-05
7.31548e-05
1.20276e-05
7.27495e-05
1.39416e-05
7.22623e-05
1.60345e-05
7.16828e-05
1.83412e-05
7.09982e-05
2.09007e-05
7.01887e-05
2.37558e-05
6.92278e-05
2.6951e-05
6.80777e-05
3.05311e-05
6.66873e-05
3.45363e-05
6.49902e-05
3.89988e-05
6.29022e-05
4.39321e-05
6.0323e-05
4.93188e-05
5.71355e-05
5.50913e-05
5.32098e-05
6.11064e-05
4.83976e-05
6.71334e-05
4.25444e-05
3.55544e-05
7.28538e-05
1.71551e-06
7.94256e-05
2.79935e-06
7.21121e-05
4.09912e-06
7.18703e-05
5.46932e-06
7.25669e-05
6.89994e-06
7.23502e-05
8.40077e-06
7.19943e-05
9.99555e-06
7.156e-05
1.17036e-05
7.10414e-05
1.35479e-05
7.04178e-05
1.55548e-05
6.96758e-05
1.77524e-05
6.88005e-05
2.01716e-05
6.77694e-05
2.28446e-05
6.65547e-05
2.58042e-05
6.51182e-05
2.90796e-05
6.34119e-05
3.26942e-05
6.13755e-05
3.66606e-05
5.89358e-05
4.09729e-05
5.60104e-05
4.56e-05
5.25083e-05
5.04735e-05
4.83362e-05
5.54755e-05
4.33956e-05
6.04342e-05
3.75857e-05
3.08474e-05
6.51411e-05
1.72588e-06
7.76996e-05
2.73977e-06
7.10981e-05
3.96544e-06
7.06445e-05
5.27495e-06
7.12573e-05
6.64464e-06
7.09803e-05
8.08037e-06
7.05585e-05
9.60443e-06
7.00358e-05
1.12333e-05
6.94125e-05
1.2987e-05
6.86641e-05
1.48864e-05
6.77763e-05
1.69537e-05
6.67332e-05
1.92124e-05
6.55107e-05
2.16858e-05
6.40815e-05
2.43958e-05
6.24082e-05
2.73609e-05
6.04467e-05
3.05925e-05
5.81438e-05
3.40916e-05
5.54366e-05
3.78432e-05
5.22586e-05
4.18124e-05
4.8539e-05
4.59399e-05
4.42086e-05
5.01364e-05
3.9199e-05
5.42806e-05
3.34414e-05
2.68893e-05
5.82386e-05
1.72789e-06
7.59717e-05
2.65279e-06
7.0173e-05
3.77641e-06
6.95208e-05
5.00394e-06
7.00297e-05
6.29148e-06
6.96927e-05
7.63976e-06
6.921e-05
9.07054e-06
6.8605e-05
1.05976e-05
6.78854e-05
1.22383e-05
6.70233e-05
1.40088e-05
6.60058e-05
1.59264e-05
6.48156e-05
1.80081e-05
6.34291e-05
2.02699e-05
6.18197e-05
2.27255e-05
5.99525e-05
2.53848e-05
5.77873e-05
2.82521e-05
5.52763e-05
3.13211e-05
5.23674e-05
3.45743e-05
4.90054e-05
3.79788e-05
4.51345e-05
4.1487e-05
4.07003e-05
4.50349e-05
3.56512e-05
4.85397e-05
2.99366e-05
2.35156e-05
5.19134e-05
1.71419e-06
7.42574e-05
2.53314e-06
6.93539e-05
3.52705e-06
6.85268e-05
4.64874e-06
6.89078e-05
5.82934e-06
6.85119e-05
7.06488e-06
6.79743e-05
8.37667e-06
6.72931e-05
9.77581e-06
6.64862e-05
1.12773e-05
6.55218e-05
1.28939e-05
6.43894e-05
1.46384e-05
6.30712e-05
1.65223e-05
6.15452e-05
1.85561e-05
5.97858e-05
2.07473e-05
5.77612e-05
2.30998e-05
5.54345e-05
2.5613e-05
5.27631e-05
2.8277e-05
4.97033e-05
3.10737e-05
4.62087e-05
3.39745e-05
4.22338e-05
3.69418e-05
3.7733e-05
3.99294e-05
3.26637e-05
4.28791e-05
2.6987e-05
2.06674e-05
4.57274e-05
1.67377e-06
7.25835e-05
2.37576e-06
6.86517e-05
3.21643e-06
6.76859e-05
4.20827e-06
6.79158e-05
5.25474e-06
6.74652e-05
6.35177e-06
6.68772e-05
7.51743e-06
6.61273e-05
8.76092e-06
6.52426e-05
1.00952e-05
6.41876e-05
1.15291e-05
6.29555e-05
1.30721e-05
6.15283e-05
1.47314e-05
5.98858e-05
1.65128e-05
5.80043e-05
1.84192e-05
5.58547e-05
2.04508e-05
5.34028e-05
2.26028e-05
5.06111e-05
2.48637e-05
4.74423e-05
2.72152e-05
4.38572e-05
2.96319e-05
3.98171e-05
3.20826e-05
3.52824e-05
3.45304e-05
3.02161e-05
3.69291e-05
2.45884e-05
1.83706e-05
3.92258e-05
1.59685e-06
7.09866e-05
2.1787e-06
6.80697e-05
2.8488e-06
6.70157e-05
3.69053e-06
6.70738e-05
4.57801e-06
6.65776e-05
5.51461e-06
6.59405e-05
6.51017e-06
6.51317e-05
7.57372e-06
6.41791e-05
8.7148e-06
6.30466e-05
9.93925e-06
6.17311e-05
1.1253e-05