/*--------------------------------*- C++ -*----------------------------------*\
| =========                 |                                                 |
| \\      /  F ield         | OpenFOAM: The Open Source CFD Toolbox           |
|  \\    /   O peration     | Version:  2206                                  |
|   \\  /    A nd           | Website:  www.openfoam.com                      |
|    \\/     M anipulation  |                                                 |
\*---------------------------------------------------------------------------*/
FoamFile
{
    version     2.0;
    format      ascii;
    arch        "LSB;label=32;scalar=64";
    class       volVectorField;
    location    "0.75";
    object      U;
}
// * * * * * * * * * * * * * * * * * * * * * * * * * * * * * * * * * * * * * //

dimensions      [0 1 -1 0 0 0 0];

internalField   nonuniform List<vector> 
2268
(
(-0.0250338 0.0114867 0)
(-0.0823931 0.0139905 0)
(-0.135268 0.0117039 0)
(-0.179415 0.00992762 0)
(-0.216638 0.0068711 0)
(-0.230521 0.000637505 0)
(-0.21349 -0.00518784 0)
(-0.184662 -0.00626317 0)
(-0.160989 -0.00380302 0)
(-0.150223 -0.000630452 0)
(-0.150961 0.00208451 0)
(-0.161223 0.00408165 0)
(-0.177383 0.00551738 0)
(-0.198367 0.00586897 0)
(-0.221222 0.00238352 0)
(-0.233903 -0.00399581 0)
(-0.239343 0.000874118 0)
(-0.281432 0.019374 0)
(-0.367354 0.0229536 0)
(-0.397458 0.000604731 0)
(-0.308513 -0.029503 0)
(-0.179249 -0.0441757 0)
(-0.0560014 -0.0330686 0)
(-0.0420565 0.0411008 0)
(-0.108153 0.0405269 0)
(-0.157068 0.0325795 0)
(-0.199541 0.0278727 0)
(-0.232475 0.0185177 0)
(-0.239368 -0.000229088 0)
(-0.222642 -0.0171106 0)
(-0.189948 -0.02097 0)
(-0.162454 -0.0129869 0)
(-0.149854 -0.00337348 0)
(-0.149997 0.00381195 0)
(-0.15725 0.00902554 0)
(-0.169218 0.0130801 0)
(-0.186444 0.0163971 0)
(-0.211696 0.0166705 0)
(-0.246972 0.0142545 0)
(-0.297732 0.0232526 0)
(-0.354447 0.0386941 0)
(-0.373207 0.0242893 0)
(-0.308367 -0.0251088 0)
(-0.215895 -0.075745 0)
(-0.121774 -0.102652 0)
(-0.0347065 -0.0811316 0)
(-0.0411879 0.0742597 0)
(-0.0948381 0.0665452 0)
(-0.140076 0.0532988 0)
(-0.188128 0.0469635 0)
(-0.230191 0.0313128 0)
(-0.244259 -0.000359226 0)
(-0.228183 -0.0311473 0)
(-0.197911 -0.0381302 0)
(-0.169618 -0.023626 0)
(-0.155013 -0.00657985 0)
(-0.153412 0.00468049 0)
(-0.157178 0.0118021 0)
(-0.161656 0.0172247 0)
(-0.165439 0.0227184 0)
(-0.171733 0.0283612 0)
(-0.186977 0.0346461 0)
(-0.213792 0.0438018 0)
(-0.239291 0.0424625 0)
(-0.22452 0.00368753 0)
(-0.161014 -0.0602176 0)
(-0.0990048 -0.10767 0)
(-0.0490693 -0.132887 0)
(-0.00020083 -0.102999 0)
(-0.0332121 0.102727 0)
(-0.0734118 0.0900397 0)
(-0.117515 0.073981 0)
(-0.165386 0.0673292 0)
(-0.205684 0.0452321 0)
(-0.217771 0.00031246 0)
(-0.207286 -0.0429398 0)
(-0.192103 -0.0526186 0)
(-0.175321 -0.033455 0)
(-0.163274 -0.00991663 0)
(-0.162023 0.00546327 0)
(-0.166509 0.0135542 0)
(-0.170378 0.0181551 0)
(-0.170186 0.0224055 0)
(-0.165169 0.0283128 0)
(-0.15589 0.0374063 0)
(-0.141802 0.0469276 0)
(-0.120617 0.0386233 0)
(-0.0853184 -0.00730775 0)
(-0.0430083 -0.0697609 0)
(-0.0151386 -0.11729 0)
(-0.00762463 -0.145528 0)
(0.0272881 -0.100154 0)
(-0.0219034 0.124064 0)
(-0.0461713 0.110067 0)
(-0.0831297 0.0939482 0)
(-0.119628 0.0862127 0)
(-0.147083 0.0591138 0)
(-0.149913 0.00561273 0)
(-0.14958 -0.0447592 0)
(-0.162607 -0.0556183 0)
(-0.171968 -0.036307 0)
(-0.171958 -0.0112166 0)
(-0.172795 0.00689056 0)
(-0.177281 0.0158376 0)
(-0.180953 0.0191857 0)
(-0.180535 0.020709 0)
(-0.174367 0.0229826 0)
(-0.158616 0.0273099 0)
(-0.127938 0.0305508 0)
(-0.0850536 0.0169932 0)
(-0.0433019 -0.0272176 0)
(-0.0184229 -0.0833788 0)
(-0.00293728 -0.123208 0)
(-0.00149347 -0.156468 0)
(0.0367739 -0.0862812 0)
(-0.00789385 0.134689 0)
(-0.0108589 0.12083 0)
(-0.0327906 0.104495 0)
(-0.0531494 0.0940843 0)
(-0.0617334 0.062124 0)
(-0.0552025 0.00698304 0)
(-0.0705406 -0.0345924 0)
(-0.118027 -0.0442911 0)
(-0.159126 -0.0278622 0)
(-0.178069 -0.00749838 0)
(-0.184673 0.00872378 0)
(-0.188964 0.0170449 0)
(-0.191084 0.0191563 0)
(-0.189114 0.0188038 0)
(-0.182841 0.018065 0)
(-0.16953 0.0165668 0)
(-0.143425 0.0113425 0)
(-0.105542 -0.00690365 0)
(-0.0703153 -0.0444893 0)
(-0.0533328 -0.0936081 0)
(-0.0334107 -0.133298 0)
(-0.0174308 -0.171416 0)
(0.0178771 -0.0771551 0)
(0.00610492 0.134676 0)
(0.0210393 0.129189 0)
(0.022522 0.115472 0)
(0.0264655 0.103108 0)
(0.0399106 0.0699878 0)
(0.0477448 0.0194037 0)
(0.0034971 -0.01644 0)
(-0.0817176 -0.0228273 0)
(-0.14576 -0.0100853 0)
(-0.18157 0.00186208 0)
(-0.196871 0.0133241 0)
(-0.201743 0.0198009 0)
(-0.201475 0.0199576 0)
(-0.196552 0.017118 0)
(-0.188459 0.0136938 0)
(-0.176284 0.00826737 0)
(-0.155913 -0.00190918 0)
(-0.127752 -0.0218756 0)
(-0.102125 -0.0554704 0)
(-0.0883843 -0.0993515 0)
(-0.0686084 -0.145144 0)
(-0.0566098 -0.187537 0)
(-0.0505654 -0.0989193 0)
(0.0134976 0.113918 0)
(0.0573258 0.113246 0)
(0.0979883 0.0950135 0)
(0.132981 0.0770845 0)
(0.152857 0.0512215 0)
(0.126546 0.0285558 0)
(0.0303029 0.0247137 0)
(-0.0805855 0.0255364 0)
(-0.143217 0.0219579 0)
(-0.181237 0.017983 0)
(-0.204131 0.0177362 0)
(-0.213547 0.0179188 0)
(-0.213166 0.0155834 0)
(-0.20591 0.0122234 0)
(-0.195427 0.00896284 0)
(-0.182502 0.00234741 0)
(-0.164167 -0.0104597 0)
(-0.141167 -0.0316582 0)
(-0.121118 -0.0625182 0)
(-0.109622 -0.102249 0)
(-0.0998294 -0.147661 0)
(-0.119867 -0.190756 0)
(-0.153698 -0.149465 0)
(0.0443316 -0.150575 0)
(0.401253 -0.0592576 0)
(0.0798248 0.0328286 0)
(-0.382509 0.180203 0)
(-1.21234 0.205529 0)
(-1.83981 0.0949299 0)
(-1.99467 0.00336677 0)
(-1.64424 -0.040664 0)
(-1.14374 -0.0557049 0)
(-0.756549 -0.0467529 0)
(-0.616539 -0.0538215 0)
(-0.584046 -0.0286755 0)
(-0.601541 0.022199 0)
(-0.643879 0.0573679 0)
(-0.668869 0.0559619 0)
(-0.655247 0.0288357 0)
(-0.570045 0.00033125 0)
(-0.366689 -0.0236899 0)
(-0.0640264 -0.00985088 0)
(-0.136698 -0.258495 0)
(0.183115 0.143379 0)
(-0.635618 0.374097 0)
(-1.35806 0.505142 0)
(-2.17176 0.459944 0)
(-2.38525 0.236468 0)
(-1.79468 -0.0915555 0)
(-0.936223 -0.392579 0)
(-0.248703 -0.401404 0)
(0.297321 -0.228042 0)
(0.485511 0.0513264 0)
(0.234673 0.0898708 0)
(-0.238057 0.0291042 0)
(-0.562532 -0.0324028 0)
(-0.692553 -0.0791662 0)
(-0.706533 -0.106723 0)
(-0.653425 -0.166393 0)
(-0.470467 -0.253471 0)
(-0.186691 -0.227049 0)
(-0.18903 -0.188104 0)
(-0.342456 0.425912 0)
(-1.19581 0.717658 0)
(-1.92189 0.837484 0)
(-2.3946 0.65342 0)
(-1.90487 0.0333004 0)
(-0.836921 -0.626807 0)
(-0.0876424 -0.89702 0)
(0.21933 -0.736771 0)
(0.560319 -0.495806 0)
(0.87575 -0.195699 0)
(1.38405 0.249626 0)
(1.37473 0.433552 0)
(1.09741 0.336148 0)
(0.632467 0.169381 0)
(0.133591 0.0594565 0)
(-0.194749 -0.0977844 0)
(-0.195593 -0.341756 0)
(-0.130134 -0.432366 0)
(-0.306053 0.0753597 0)
(-0.75298 0.745929 0)
(-1.53532 1.07501 0)
(-2.0786 1.10802 0)
(-1.97274 0.554248 0)
(-0.9414 -0.447658 0)
(-0.147386 -1.01749 0)
(0.146551 -1.07012 0)
(0.320448 -0.841153 0)
(0.500627 -0.594212 0)
(0.694844 -0.385972 0)
(0.949739 -0.112471 0)
(1.36835 0.278143 0)
(1.51845 0.466731 0)
(1.1882 0.359419 0)
(0.845565 0.238566 0)
(0.606551 0.101366 0)
(0.341578 -0.142951 0)
(0.0417074 -0.415254 0)
(-0.378162 0.360093 0)
(-0.943759 1.04817 0)
(-1.63275 1.36253 0)
(-1.89767 1.15856 0)
(-1.2668 0.155169 0)
(-0.331791 -0.834955 0)
(0.102058 -1.22256 0)
(0.177597 -1.14209 0)
(0.273857 -0.905076 0)
(0.419972 -0.666655 0)
(0.6132 -0.447513 0)
(0.81555 -0.178855 0)
(1.06532 0.101722 0)
(1.30687 0.353477 0)
(1.32807 0.442707 0)
(1.15075 0.372024 0)
(0.953493 0.232276 0)
(0.684006 0.0162883 0)
(0.234586 -0.209932 0)
(-0.406026 0.686168 0)
(-1.00451 1.34109 0)
(-1.5573 1.57711 0)
(-1.50796 1.01756 0)
(-0.606404 -0.30792 0)
(-0.0432839 -1.07537 0)
(0.122808 -1.30229 0)
(0.123098 -1.16973 0)
(0.180887 -0.953308 0)
(0.295723 -0.747524 0)
(0.455114 -0.566731 0)
(0.648051 -0.316526 0)
(0.85793 0.00409232 0)
(1.09847 0.301461 0)
(1.21188 0.466581 0)
(1.11861 0.443503 0)
(0.951075 0.327671 0)
(0.754397 0.197352 0)
(0.291413 0.0253895 0)
(-0.441729 1.04065 0)
(-0.999107 1.59579 0)
(-1.37251 1.71142 0)
(-1.07536 0.764128 0)
(-0.185333 -0.668453 0)
(0.0592871 -1.20029 0)
(0.0432869 -1.31197 0)
(0.0495042 -1.18394 0)
(0.0861781 -0.992343 0)
(0.158314 -0.813624 0)
(0.249556 -0.670094 0)
(0.398536 -0.428628 0)
(0.524876 -0.128243 0)
(0.769315 0.195566 0)
(0.914525 0.433825 0)
(0.867549 0.478281 0)
(0.748166 0.408702 0)
(0.645692 0.340929 0)
(0.234519 0.249359 0)
(-0.418385 1.35234 0)
(-0.973866 1.79683 0)
(-1.16872 1.74227 0)
(-0.697663 0.38717 0)
(-0.0894106 -0.934282 0)
(0.00490401 -1.22377 0)
(-0.0416855 -1.30497 0)
(-0.0320744 -1.19502 0)
(-0.0304166 -1.0113 0)
(-0.0164029 -0.852829 0)
(-0.00186595 -0.723084 0)
(0.0409205 -0.350696 0)
(0.00782836 -0.124593 0)
(0.150923 0.163419 0)
(0.462451 0.422345 0)
(0.503047 0.506151 0)
(0.471919 0.470629 0)
(0.464711 0.45472 0)
(0.124797 0.447999 0)
(0.0194822 0.0698707 0)
(0.0420054 0.0587078 0)
(0.0253975 0.0615833 0)
(-0.0178032 0.0811296 0)
(-0.071005 0.094496 0)
(-0.114524 0.0955212 0)
(-0.147149 0.0794531 0)
(-0.169327 0.0548854 0)
(-0.18209 0.0400903 0)
(-0.194551 0.0355645 0)
(-0.208104 0.0343278 0)
(-0.218529 0.0289729 0)
(-0.218765 0.0177413 0)
(-0.209658 0.005511 0)
(-0.200077 -0.00234334 0)
(-0.191001 -0.0117182 0)
(-0.176614 -0.0268473 0)
(-0.15496 -0.0503018 0)
(-0.133674 -0.0779243 0)
(-0.120281 -0.107115 0)
(-0.121499 -0.135241 0)
(-0.166277 -0.150366 0)
(-0.237864 -0.112744 0)
(-0.548331 0.1128 0)
(-0.527674 0.152258 0)
(-0.521625 0.147081 0)
(-0.490114 0.132361 0)
(-0.454569 0.107917 0)
(-0.420377 0.0883778 0)
(-0.382854 0.0748488 0)
(-0.340848 0.0575108 0)
(-0.297583 0.0432195 0)
(-0.258733 0.0373051 0)
(-0.228054 0.0343848 0)
(-0.206176 0.0248122 0)
(-0.190224 0.00848917 0)
(-0.180904 -0.00278356 0)
(-0.182453 -0.00476271 0)
(-0.183788 -0.0184289 0)
(-0.168624 -0.0462515 0)
(-0.139858 -0.0794175 0)
(-0.121149 -0.0998593 0)
(-0.10989 -0.110978 0)
(-0.106932 -0.117609 0)
(-0.123562 -0.119927 0)
(-0.141276 -0.097929 0)
(-0.430329 0.865471 0)
(-0.647903 0.199091 0)
(-1.04577 0.106231 0)
(-1.12572 0.0724526 0)
(-1.06361 0.0422707 0)
(-0.949177 0.012238 0)
(-0.84038 -0.0134276 0)
(-0.746298 -0.0342347 0)
(-0.649868 -0.0415276 0)
(-0.547774 -0.0288917 0)
(-0.473942 -0.0163502 0)
(-0.428214 -0.0103407 0)
(-0.381201 -0.00357595 0)
(-0.313197 0.000479338 0)
(-0.244619 -0.00269064 0)
(-0.212699 -0.016837 0)
(-0.208614 -0.0441411 0)
(-0.20833 -0.0699876 0)
(-0.20093 -0.0819288 0)
(-0.183854 -0.0973837 0)
(-0.14888 -0.112594 0)
(-0.11776 -0.109944 0)
(-0.111221 -0.0726833 0)
(-0.314608 1.31093 0)
(-0.402892 0.667722 0)
(-0.769111 0.438375 0)
(-0.90976 0.158446 0)
(-1.03572 -0.036894 0)
(-1.17556 -0.0850662 0)
(-1.34932 -0.0904827 0)
(-1.55406 -0.0902779 0)
(-1.77129 -0.0921298 0)
(-1.92541 -0.101707 0)
(-1.90958 -0.121597 0)
(-1.72339 -0.139387 0)
(-1.4509 -0.157852 0)
(-1.19602 -0.155674 0)
(-1.00512 -0.100369 0)
(-0.917132 -0.0645513 0)
(-0.865146 -0.0694189 0)
(-0.781887 -0.103228 0)
(-0.660568 -0.145637 0)
(-0.520048 -0.180587 0)
(-0.377745 -0.185642 0)
(-0.26581 -0.147104 0)
(-0.202093 -0.0787179 0)
(-0.199149 1.52258 0)
(-0.139849 0.895139 0)
(-0.435731 0.627625 0)
(-0.417026 0.368297 0)
(-0.465686 0.219419 0)
(-0.529834 0.223353 0)
(-0.619959 0.28176 0)
(-0.81438 0.29962 0)
(-1.05523 0.221587 0)
(-1.28183 0.0427648 0)
(-1.53813 -0.178015 0)
(-1.75446 -0.321896 0)
(-1.84258 -0.384159 0)
(-1.83556 -0.406816 0)
(-1.71264 -0.278739 0)
(-1.48237 -0.207827 0)
(-1.28883 -0.253449 0)
(-1.0439 -0.367308 0)
(-0.694243 -0.436603 0)
(-0.486298 -0.495653 0)
(-0.402997 -0.436874 0)
(-0.359612 -0.232625 0)
(-0.388267 -0.0190905 0)
(-0.0449794 1.54763 0)
(0.120079 1.06978 0)
(-0.146629 0.640284 0)
(-0.0527977 0.357201 0)
(-0.0823512 0.207238 0)
(-0.14377 0.191332 0)
(-0.17084 0.24745 0)
(-0.20044 0.371616 0)
(-0.290763 0.42862 0)
(-0.419152 0.361933 0)
(-0.564213 0.258576 0)
(-0.75579 0.0984837 0)
(-0.985391 -0.179281 0)
(-1.18449 -0.40882 0)
(-1.27434 -0.461914 0)
(-1.16579 -0.441815 0)
(-0.991957 -0.461193 0)
(-0.961102 -0.49559 0)
(-0.994671 -0.505367 0)
(-1.15405 -0.518761 0)
(-1.29141 -0.374553 0)
(-1.26011 -0.231472 0)
(-1.09333 -0.138999 0)
(0.108052 1.33948 0)
(0.316812 1.17223 0)
(0.178784 0.700808 0)
(0.178566 0.363735 0)
(0.134109 0.236378 0)
(0.069317 0.244662 0)
(0.0239846 0.27618 0)
(0.00856615 0.34956 0)
(0.0430541 0.433459 0)
(0.0286486 0.422432 0)
(-0.0320107 0.328812 0)
(-0.123869 0.212459 0)
(-0.243156 0.0902825 0)
(-0.446183 -0.0384949 0)
(-0.73139 -0.213087 0)
(-0.970879 -0.344951 0)
(-1.24843 -0.322523 0)
(-1.48701 -0.337202 0)
(-1.60412 -0.428932 0)
(-1.69201 -0.381574 0)
(-1.68532 -0.270903 0)
(-1.65105 -0.145249 0)
(-1.58253 -0.0462173 0)
(0.161539 1.01224 0)
(0.37338 1.09704 0)
(0.365897 0.743951 0)
(0.32521 0.434575 0)
(0.240127 0.308199 0)
(0.160045 0.315197 0)
(0.105765 0.338956 0)
(0.0538468 0.365769 0)
(0.0688209 0.398832 0)
(0.103245 0.404199 0)
(0.0935554 0.34551 0)
(0.0363248 0.251779 0)
(-0.0479585 0.164745 0)
(-0.180037 0.10603 0)
(-0.406279 0.0822554 0)
(-0.743225 0.051855 0)
(-1.24378 -0.0431516 0)
(-1.60175 -0.218518 0)
(-1.77636 -0.346835 0)
(-1.826 -0.345204 0)
(-1.84723 -0.326049 0)
(-1.82414 -0.319584 0)
(-1.73947 -0.315488 0)
(0.0867432 0.771781 0)
(0.276219 0.940464 0)
(0.352976 0.720749 0)
(0.337215 0.496874 0)
(0.251244 0.392926 0)
(0.171474 0.384312 0)
(0.118452 0.391368 0)
(0.0626398 0.392371 0)
(0.0366277 0.385572 0)
(0.0465089 0.3855 0)
(0.0511055 0.365691 0)
(0.0152097 0.310926 0)
(-0.0421888 0.251332 0)
(-0.119119 0.24383 0)
(-0.224846 0.296842 0)
(-0.358501 0.374469 0)
(-0.618793 0.384582 0)
(-1.02878 0.208302 0)
(-1.33674 -0.292713 0)
(-1.34394 -0.331637 0)
(-1.3877 -0.272121 0)
(-1.44735 -0.251969 0)
(-1.58753 -0.32123 0)
(-0.00402097 0.677778 0)
(0.139793 0.786176 0)
(0.245027 0.666045 0)
(0.258185 0.535857 0)
(0.202184 0.464713 0)
(0.146378 0.443435 0)
(0.104629 0.437014 0)
(0.0637801 0.427702 0)
(0.0300128 0.40355 0)
(0.0107692 0.388974 0)
(0.00568955 0.382135 0)
(-0.0137141 0.35525 0)
(-0.0508085 0.317579 0)
(-0.101249 0.322535 0)
(-0.143017 0.383502 0)
(-0.167683 0.478041 0)
(-0.182096 0.554172 0)
(-0.232968 0.450816 0)
(-0.464144 0.0606904 0)
(-0.510524 -0.413326 0)
(-0.552866 -0.286445 0)
(-0.706068 -0.148652 0)
(-0.731574 0.035027 0)
(-0.0302153 0.655558 0)
(0.0605931 0.666323 0)
(0.146453 0.612826 0)
(0.167983 0.551342 0)
(0.143848 0.506858 0)
(0.116242 0.482096 0)
(0.0908821 0.470776 0)
(0.0669807 0.460287 0)
(0.0415241 0.434917 0)
(0.0148728 0.410225 0)
(-0.00096426 0.395271 0)
(-0.0137557 0.376658 0)
(-0.0373588 0.355792 0)
(-0.0731544 0.362817 0)
(-0.0963876 0.406356 0)
(-0.0926452 0.465996 0)
(-0.0570445 0.517913 0)
(-0.00105154 0.488168 0)
(-0.0842936 0.220659 0)
(-0.368996 -0.154605 0)
(-0.674423 -0.177257 0)
(-0.895185 -0.156837 0)
(-0.791268 -0.146527 0)
(-0.0159115 0.649471 0)
(0.0352985 0.595533 0)
(0.0866787 0.572865 0)
(0.106433 0.548478 0)
(0.102371 0.521292 0)
(0.0934901 0.499855 0)
(0.0818171 0.48846 0)
(0.0707772 0.478838 0)
(0.0559028 0.458616 0)
(0.0351992 0.433594 0)
(0.0169699 0.41171 0)
(0.00281225 0.39361 0)
(-0.0165536 0.38259 0)
(-0.0435069 0.38918 0)
(-0.0625609 0.414239 0)
(-0.0618964 0.439914 0)
(-0.0364139 0.449276 0)
(0.0136449 0.4244 0)
(0.0330967 0.318617 0)
(-0.0765799 0.166078 0)
(-0.186845 0.110055 0)
(-0.352861 0.0987524 0)
(-0.761116 -0.132263 0)
(-0.00044851 0.639668 0)
(0.0285683 0.557821 0)
(0.0562423 0.545964 0)
(0.0731627 0.53823 0)
(0.0775458 0.521138 0)
(0.0775562 0.504575 0)
(0.073988 0.494331 0)
(0.0706419 0.485701 0)
(0.0640999 0.470861 0)
(0.0517999 0.450446 0)
(0.0364106 0.429235 0)
(0.0196409 0.412643 0)
(-0.000423955 0.40589 0)
(-0.0234014 0.410917 0)
(-0.0411234 0.423673 0)
(-0.047662 0.42998 0)
(-0.0421201 0.417837 0)
(-0.0275347 0.384035 0)
(-0.0183457 0.319568 0)
(-0.0474186 0.204813 0)
(-0.104358 0.114335 0)
(-0.0817321 0.224622 0)
(-0.308026 0.127092 0)
(0.0062161 0.624732 0)
(0.0250743 0.53553 0)
(0.0413031 0.527927 0)
(0.0555828 0.527576 0)
(0.0619606 0.516487 0)
(0.065295 0.503871 0)
(0.0654802 0.494888 0)
(0.0656115 0.487323 0)
(0.0636177 0.476523 0)
(0.0569004 0.461386 0)
(0.0449951 0.444891 0)
(0.0280927 0.432128 0)
(0.00788136 0.42747 0)
(-0.013206 0.430435 0)
(-0.0306456 0.436255 0)
(-0.0425194 0.434667 0)
(-0.0516687 0.418373 0)
(-0.0632099 0.388436 0)
(-0.0780109 0.336401 0)
(-0.0968472 0.235713 0)
(-0.236391 0.187906 0)
(-0.298069 0.302381 0)
(-0.143798 -0.0619718 0)
(0.00819038 0.608983 0)
(0.0222145 0.5205 0)
(0.0333228 0.51493 0)
(0.0449763 0.51822 0)
(0.0511264 0.511042 0)
(0.0553859 0.501425 0)
(0.0568857 0.493801 0)
(0.0579015 0.487302 0)
(0.0572986 0.479475 0)
(0.0529648 0.469189 0)
(0.043511 0.458337 0)
(0.0285509 0.450257 0)
(0.0101927 0.447444 0)
(-0.00907956 0.448972 0)
(-0.0268125 0.45145 0)
(-0.0431947 0.448379 0)
(-0.0627909 0.434852 0)
(-0.0900058 0.411333 0)
(-0.119024 0.372831 0)
(-0.200756 0.337735 0)
(-0.451493 0.37492 0)
(-0.521121 0.253231 0)
(-0.552399 -0.232766 0)
(0.00860287 0.594456 0)
(0.0196243 0.508887 0)
(0.0285443 0.505017 0)
(0.0377249 0.510246 0)
(0.0433498 0.505692 0)
(0.047669 0.498485 0)
(0.0494876 0.492393 0)
(0.0503515 0.487094 0)
(0.0496621 0.481657 0)
(0.0460581 0.475487 0)
(0.038256 0.469637 0)
(0.0259168 0.465801 0)
(0.0104677 0.465095 0)
(-0.00668614 0.466744 0)
(-0.0246915 0.469121 0)
(-0.0446838 0.468687 0)
(-0.0714851 0.461277 0)
(-0.108832 0.448158 0)
(-0.155684 0.447006 0)
(-0.285902 0.513169 0)
(-0.513132 0.583181 0)
(-0.600718 0.302067 0)
(-0.724806 -0.197619 0)
(0.00822308 0.581331 0)
(0.0173245 0.498863 0)
(0.0253874 0.49716 0)
(0.0325628 0.503503 0)
(0.0378601 0.500678 0)
(0.042041 0.495475 0)
(0.0440416 0.491029 0)
(0.0447654 0.487174 0)
(0.0438746 0.483809 0)
(0.0406876 0.480827 0)
(0.0343526 0.478766 0)
(0.0246608 0.478337 0)
(0.0122458 0.48003 0)
(-0.002498 0.483483 0)
(-0.0197716 0.488431 0)
(-0.0408543 0.493448 0)
(-0.0695124 0.495257 0)
(-0.110425 0.498324 0)
(-0.161904 0.540802 0)
(-0.255369 0.671258 0)
(-0.393464 0.724747 0)
(-0.470141 0.35482 0)
(-0.524481 -0.00884767 0)
(0.00738032 0.56961 0)
(0.0154414 0.489753 0)
(0.0230293 0.490548 0)
(0.028935 0.497609 0)
(0.034119 0.495929 0)
(0.0382436 0.492396 0)
(0.0405999 0.489554 0)
(0.0415998 0.487263 0)
(0.0410134 0.485727 0)
(0.0385806 0.485123 0)
(0.0338682 0.485782 0)
(0.0267226 0.48804 0)
(0.0172488 0.492223 0)
(0.00530823 0.498461 0)
(-0.00964499 0.507174 0)
(-0.0285319 0.518392 0)
(-0.0535124 0.530378 0)
(-0.0891867 0.547485 0)
(-0.131101 0.607977 0)
(-0.161198 0.750693 0)
(-0.199283 0.804169 0)
(-0.291692 0.471475 0)
(-0.345512 0.101893 0)
(0.0064952 0.559146 0)
(0.0140264 0.481361 0)
(0.0211163 0.484571 0)
(0.026492 0.492116 0)
(0.0317119 0.491234 0)
(0.0359511 0.489058 0)
(0.0388392 0.487617 0)
(0.0405043 0.486798 0)
(0.04077 0.486843 0)
(0.0395468 0.488045 0)
(0.0366641 0.490696 0)
(0.0319923 0.495081 0)
(0.025416 0.501559 0)
(0.0166874 0.510567 0)
(0.00536359 0.522789 0)
(-0.00903947 0.538952 0)
(-0.0274329 0.558821 0)
(-0.0526527 0.584045 0)
(-0.0816406 0.637522 0)
(-0.080926 0.75178 0)
(-0.0412991 0.820848 0)
(-0.0968004 0.569359 0)
(-0.193427 0.152451 0)
(0.00585352 0.549586 0)
(0.0130507 0.473648 0)
(0.0196062 0.478852 0)
(0.0249764 0.48669 0)
(0.0303309 0.486408 0)
(0.0348524 0.485292 0)
(0.0383778 0.484971 0)
(0.0409255 0.485377 0)
(0.0423714 0.486717 0)
(0.0426664 0.489301 0)
(0.0417474 0.493439 0)
(0.0395269 0.49946 0)
(0.0358665 0.50779 0)
(0.0306044 0.518955 0)
(0.0235143 0.533709 0)
(0.0143386 0.5529 0)
(0.00281035 0.577169 0)
(-0.0122737 0.606545 0)
(-0.0306948 0.647897 0)
(-0.0320576 0.719772 0)
(0.0193558 0.778159 0)
(0.00898468 0.630455 0)
(-0.0866093 0.299066 0)
(0.00550194 0.540561 0)
(0.01244 0.466557 0)
(0.0185397 0.473166 0)
(0.0241798 0.481126 0)
(0.0297441 0.481321 0)
(0.0346765 0.481002 0)
(0.0388938 0.481515 0)
(0.0424042 0.482835 0)
(0.0451421 0.485146 0)
(0.0470717 0.488739 0)
(0.0481697 0.493941 0)
(0.0484134 0.501118 0)
(0.0477071 0.510734 0)
(0.0460069 0.523312 0)
(0.0432384 0.539592 0)
(0.039244 0.56038 0)
(0.033914 0.586618 0)
(0.0265862 0.618356 0)
(0.0162436 0.655234 0)
(0.00626751 0.701373 0)
(0.0245812 0.744486 0)
(0.0116173 0.684085 0)
(-0.0905693 0.460635 0)
(0.00535345 0.531794 0)
(0.0121051 0.45996 0)
(0.0179042 0.467373 0)
(0.0239216 0.475314 0)
(0.0297598 0.475876 0)
(0.0351866 0.476127 0)
(0.0401221 0.477216 0)
(0.0446096 0.479143 0)
(0.0486358 0.482091 0)
(0.0521948 0.486325 0)
(0.0553003 0.492181 0)
(0.0580007 0.50003 0)
(0.0602718 0.510332 0)
(0.0621624 0.523629 0)
(0.063704 0.540622 0)
(0.0648176 0.562157 0)
(0.0653986 0.589302 0)
(0.0648651 0.622789 0)
(0.0616589 0.662176 0)
(0.0512302 0.706241 0)
(0.0386877 0.753575 0)
(0.00406329 0.767728 0)
(-0.143308 0.614299 0)
(0.00531593 0.523111 0)
(0.0119666 0.453691 0)
(0.0176214 0.461385 0)
(0.0240441 0.469192 0)
(0.0302028 0.47001 0)
(0.0361659 0.470629 0)
(0.0418264 0.472067 0)
(0.0472756 0.474328 0)
(0.0525414 0.47759 0)
(0.0576696 0.482101 0)
(0.0627215 0.488195 0)
(0.0678113 0.496223 0)
(0.0730177 0.506626 0)
(0.0784766 0.519955 0)
(0.084344 0.536901 0)
(0.090715 0.558396 0)
(0.0976381 0.5857 0)
(0.104856 0.620304 0)
(0.111341 0.6638 0)
(0.112624 0.717512 0)
(0.105942 0.785883 0)
(0.0711451 0.877436 0)
(-0.0395614 0.843705 0)
(0.00533911 0.51441 0)
(0.0119609 0.447598 0)
(0.0175865 0.455154 0)
(0.0244112 0.46273 0)
(0.0309115 0.463691 0)
(0.0374144 0.464499 0)
(0.0437826 0.46608 0)
(0.0501521 0.468433 0)
(0.0565838 0.471716 0)
(0.0631805 0.476164 0)
(0.070061 0.48208 0)
(0.0773991 0.489798 0)
(0.0853838 0.499717 0)
(0.0942683 0.512359 0)
(0.104378 0.528393 0)
(0.116103 0.548763 0)
(0.129924 0.574826 0)
(0.146415 0.608488 0)
(0.166316 0.652593 0)
(0.188992 0.711392 0)
(0.221044 0.792938 0)
(0.236817 0.918114 0)
(0.343601 1.06217 0)
(0.00539854 0.505634 0)
(0.0120339 0.44157 0)
(0.0177071 0.448665 0)
(0.0249061 0.455926 0)
(0.0317417 0.456916 0)
(0.0387553 0.457759 0)
(0.0457819 0.459299 0)
(0.0529972 0.461525 0)
(0.0604907 0.464571 0)
(0.0684102 0.468646 0)
(0.0769322 0.474009 0)
(0.086288 0.480957 0)
(0.0967607 0.489827 0)
(0.108733 0.501061 0)
(0.122712 0.51523 0)
(0.139399 0.533133 0)
(0.159793 0.555911 0)
(0.185416 0.585199 0)
(0.218813 0.623402 0)
(0.263263 0.673972 0)
(0.332622 0.74319 0)
(0.414667 0.835296 0)
(0.641943 0.99766 0)
(0.00547169 0.496757 0)
(0.0121364 0.435526 0)
(0.0179142 0.44193 0)
(0.0254336 0.448797 0)
(0.0325725 0.449719 0)
(0.040041 0.450463 0)
(0.0476444 0.451802 0)
(0.0555963 0.453713 0)
(0.0640079 0.456299 0)
(0.0730591 0.459736 0)
(0.0829709 0.46423 0)
(0.0940216 0.470016 0)
(0.106562 0.477351 0)
(0.12107 0.486552 0)
(0.138182 0.498005 0)
(0.158788 0.512219 0)
(0.184187 0.52985 0)
(0.216355 0.551714 0)
(0.258366 0.578683 0)
(0.314762 0.611209 0)
(0.395961 0.649925 0)
(0.503429 0.684507 0)
(0.69405 0.739118 0)
(0.0055317 0.487791 0)
(0.0122308 0.429412 0)
(0.018153 0.434977 0)
(0.0259226 0.441388 0)
(0.0333124 0.442161 0)
(0.0411555 0.442691 0)
(0.0492292 0.443699 0)
(0.0577778 0.44514 0)
(0.0669281 0.447089 0)
(0.0768802 0.449678 0)
(0.0878808 0.453059 0)
(0.100234 0.457393 0)
(0.114325 0.462841 0)
(0.130667 0.469577 0)
(0.149932 0.477769 0)
(0.173026 0.487594 0)
(0.201216 0.499182 0)
(0.236306 0.512516 0)
(0.280732 0.527094 0)
(0.337943 0.541259 0)
(0.41247 0.551714 0)
(0.508532 0.547772 0)
(0.634084 0.525237 0)
(0.00555714 0.478765 0)
(0.0123009 0.423198 0)
(0.0183768 0.427838 0)
(0.0263237 0.433768 0)
(0.0338956 0.434324 0)
(0.0420158 0.43455 0)
(0.0504353 0.435125 0)
(0.0594201 0.43598 0)
(0.0691068 0.437161 0)
(0.0797014 0.438758 0)
(0.0914599 0.440863 0)
(0.104689 0.443568 0)
(0.119778 0.446936 0)
(0.137217 0.451013 0)
(0.157633 0.45577 0)
(0.181821 0.461119 0)
(0.210828 0.466812 0)
(0.246007 0.47234 0)
(0.288943 0.476605 0)
(0.341638 0.477526 0)
(0.405584 0.471385 0)
(0.48277 0.45189 0)
(0.569706 0.410852 0)
(0.00554355 0.469709 0)
(0.0123496 0.416888 0)
(0.0185433 0.42055 0)
(0.0266022 0.426013 0)
(0.0342751 0.426296 0)
(0.0425677 0.426159 0)
(0.0511991 0.426229 0)
(0.0604514 0.426425 0)
(0.0704621 0.42676 0)
(0.081432 0.427281 0)
(0.0936139 0.428031 0)
(0.107298 0.429036 0)
(0.122852 0.430281 0)
(0.140712 0.431703 0)
(0.161414 0.433144 0)
(0.185594 0.434341 0)
(0.214037 0.434851 0)
(0.247665 0.433972 0)
(0.287421 0.430537 0)
(0.334286 0.422721 0)
(0.388543 0.407598 0)
(0.450134 0.381391 0)
(0.515173 0.338832 0)
(0.00550916 0.46064 0)
(0.0123901 0.410519 0)
(0.0186108 0.413161 0)
(0.026729 0.418198 0)
(0.0344143 0.418173 0)
(0.0427757 0.41764 0)
(0.051485 0.417166 0)
(0.0608407 0.416668 0)
(0.0709695 0.416124 0)
(0.0820615 0.415548 0)
(0.0943542 0.414935 0)
(0.108111 0.41426 0)
(0.123658 0.413451 0)
(0.141366 0.412367 0)
(0.161667 0.410778 0)
(0.18504 0.408322 0)
(0.212026 0.40449 0)
(0.243201 0.398541 0)
(0.279051 0.389414 0)
(0.319907 0.375616 0)
(0.365469 0.354992 0)
(0.414776 0.324988 0)
(0.464887 0.282745 0)
(0.00549071 0.451548 0)
(0.0124351 0.404169 0)
(0.0185416 0.40574 0)
(0.0266732 0.4104 0)
(0.0342775 0.41005 0)
(0.0426103 0.40911 0)
(0.0512712 0.40808 0)
(0.0605821 0.406887 0)
(0.0706472 0.405474 0)
(0.081641 0.403827 0)
(0.0937755 0.401905 0)
(0.107283 0.399641 0)
(0.122439 0.396924 0)
(0.139545 0.393572 0)
(0.158932 0.389314 0)
(0.180942 0.383759 0)
(0.20592 0.376396 0)
(0.234177 0.366531 0)
(0.265892 0.353266 0)
(0.301035 0.335456 0)
(0.339071 0.31161 0)
(0.378888 0.280079 0)
(0.418404 0.239474 0)
(0.00552461 0.442406 0)
(0.01248 0.39794 0)
(0.0183114 0.398383 0)
(0.0263992 0.402697 0)
(0.0338245 0.402019 0)
(0.0420392 0.400675 0)
(0.0505358 0.399101 0)
(0.0596753 0.397236 0)
(0.0695255 0.394997 0)
(0.0802437 0.392341 0)
(0.0920114 0.389204 0)
(0.105025 0.385492 0)
(0.119508 0.381067 0)
(0.135694 0.375727 0)
(0.153824 0.369193 0)
(0.174135 0.361086 0)
(0.196822 0.350928 0)
(0.222016 0.33812 0)
(0.249718 0.32194 0)
(0.279735 0.301562 0)
(0.311502 0.276001 0)
(0.344042 0.244225 0)
(0.375896 0.205553 0)
(0.00562555 0.433191 0)
(0.0124983 0.391934 0)
(0.0179042 0.391213 0)
(0.0258652 0.395174 0)
(0.0330095 0.39417 0)
(0.0410202 0.392436 0)
(0.0492428 0.390342 0)
(0.0581008 0.387844 0)
(0.0676109 0.384837 0)
(0.0779155 0.381257 0)
(0.0891674 0.377027 0)
(0.101521 0.372033 0)
(0.115151 0.366124 0)
(0.130229 0.359094 0)
(0.146925 0.350672 0)
(0.16539 0.340515 0)
(0.18572 0.328193 0)
(0.207939 0.313213 0)
(0.231953 0.295017 0)
(0.257517 0.273011 0)
(0.284129 0.246549 0)
(0.31102 0.214969 0)
(0.337181 0.177882 0)
(0.00578422 0.423904 0)
(0.0124526 0.386251 0)
(0.0173 0.384365 0)
(0.025025 0.387922 0)
(0.0317789 0.386594 0)
(0.0394942 0.384491 0)
(0.0473297 0.381906 0)
(0.0557992 0.378819 0)
(0.0648552 0.375109 0)
(0.0746314 0.370699 0)
(0.0852539 0.365504 0)
(0.0968361 0.359398 0)
(0.109509 0.352229 0)
(0.123393 0.343794 0)
(0.138601 0.33384 0)
(0.155217 0.322064 0)
(0.173278 0.308095 0)
(0.19275 0.291532 0)
(0.213501 0.271946 0)
(0.235285 0.248904 0)
(0.257705 0.221972 0)
(0.280201 0.190705 0)
(0.302084 0.15483 0)
(0.00598326 0.414573 0)
(0.012308 0.380997 0)
(0.0164693 0.37799 0)
(0.0238326 0.381049 0)
(0.0300742 0.379396 0)
(0.0373881 0.37695 0)
(0.0447094 0.373905 0)
(0.0526708 0.370276 0)
(0.0611506 0.365924 0)
(0.0702822 0.360773 0)
(0.0801633 0.354732 0)
(0.0908763 0.34767 0)
(0.102515 0.339442 0)
(0.115157 0.329853 0)
(0.128873 0.318674 0)
(0.143698 0.305633 0)
(0.159634 0.290421 0)
(0.17662 0.272711 0)
(0.194517 0.252165 0)
(0.213111 0.228457 0)
(0.232103 0.201271 0)
(0.251112 0.170296 0)
(0.269664 0.135297 0)
(0.00619557 0.405261 0)
(0.0120257 0.376279 0)
(0.0153892 0.372247 0)
(0.0222554 0.374683 0)
(0.0278454 0.372705 0)
(0.0346356 0.369948 0)
(0.0412972 0.366474 0)
(0.0486156 0.362349 0)
(0.0563768 0.357414 0)
(0.0647264 0.351602 0)
(0.0737336 0.344819 0)
(0.0834572 0.336941 0)
(0.0939612 0.327827 0)
(0.105289 0.317296 0)
(0.11748 0.305142 0)
(0.130537 0.291119 0)
(0.14444 0.274972 0)
(0.159116 0.256427 0)
(0.174433 0.235214 0)
(0.190216 0.211067 0)
(0.206236 0.183737 0)
(0.222239 0.152986 0)
(0.23788 0.118606 0)
(0.00637405 0.396086 0)
(0.0115542 0.372175 0)
(0.0140519 0.367282 0)
(0.0202897 0.368961 0)
(0.0250803 0.366671 0)
(0.0312181 0.363632 0)
(0.0370668 0.359765 0)
(0.0436036 0.355193 0)
(0.0504914 0.349735 0)
(0.0579066 0.343342 0)
(0.0658887 0.335918 0)
(0.0744736 0.32735 0)
(0.0837017 0.317503 0)
(0.0935948 0.306213 0)
(0.104164 0.293289 0)
(0.115396 0.278514 0)
(0.127253 0.261671 0)
(0.139652 0.242531 0)
(0.152473 0.220868 0)
(0.165572 0.196453 0)
(0.178752 0.169072 0)
(0.191826 0.138539 0)
(0.20452 0.104678 0)
(0.00646878 0.387211 0)
(0.0108493 0.368702 0)
(0.0124685 0.363187 0)
(0.0179698 0.363986 0)
(0.0218298 0.361419 0)
(0.0271985 0.358115 0)
(0.0321031 0.3539 0)
(0.037739 0.348933 0)
(0.0436118 0.34302 0)
(0.0499536 0.33613 0)
(0.0567636 0.328167 0)
(0.0640596 0.31903 0)
(0.0718651 0.308595 0)
(0.0801841 0.296709 0)
(0.0890095 0.283197 0)
(0.0983161 0.267867 0)
(0.108051 0.250535 0)
(0.118126 0.231005 0)
(0.128427 0.209081 0)
(0.138829 0.184562 0)
(0.149144 0.157256 0)
(0.159213 0.127021 0)
(0.16881 0.093717 0)
(0.00642039 0.378838 0)
(0.00988722 0.365906 0)
(0.0107023 0.360041 0)
(0.0153685 0.359863 0)
(0.0182214 0.357079 0)
(0.0227362 0.353513 0)
(0.0266188 0.349008 0)
(0.0312744 0.343703 0)
(0.0360366 0.337409 0)
(0.0412124 0.330116 0)
(0.046747 0.321722 0)
(0.0526523 0.312143 0)
(0.0589381 0.301263 0)
(0.0655953 0.288937 0)
(0.0726063 0.275006 0)
(0.0799364 0.259306 0)
(0.087522 0.241675 0)
(0.0952718 0.221946 0)
(0.103081 0.199945 0)
(0.110829 0.175494 0)
(0.118343 0.148423 0)
(0.125486 0.118623 0)
(0.132095 0.085977 0)
(0.00606319 0.371132 0)
(0.0085702 0.363705 0)
(0.00881031 0.357861 0)
(0.0125409 0.356647 0)
(0.0144095 0.353713 0)
(0.0180202 0.349867 0)
(0.0208725 0.345137 0)
(0.0245128 0.339541 0)
(0.0281333 0.332948 0)
(0.0321139 0.32534 0)
(0.0363413 0.316622 0)
(0.0408336 0.306719 0)
(0.0455883 0.295522 0)
(0.0505948 0.282892 0)
(0.055828 0.268691 0)
(0.0612415 0.252778 0)
(0.0667703 0.235008 0)
(0.0723297 0.215236 0)
(0.0778214 0.193307 0)
(0.0831302 0.169069 0)
(0.0881051 0.142368 0)
(0.0926235 0.113105 0)
(0.0965927 0.0811557 0)
(0.00553665 0.364956 0)
(0.00720549 0.362296 0)
(0.00705082 0.356564 0)
(0.0098243 0.354433 0)