/*--------------------------------*- C++ -*----------------------------------*\
| =========                 |                                                 |
| \\      /  F ield         | OpenFOAM: The Open Source CFD Toolbox           |
|  \\    /   O peration     | Version:  2206                                  |
|   \\  /    A nd           | Website:  www.openfoam.com                      |
|    \\/     M anipulation  |                                                 |
\*---------------------------------------------------------------------------*/
FoamFile
{
    version     2.0;
    format      ascii;
    arch        "LSB;label=32;scalar=64";
    class       surfaceScalarField;
    location    "0.4";
    object      alphaPhi0.water;
}
// * * * * * * * * * * * * * * * * * * * * * * * * * * * * * * * * * * * * * //

dimensions      [0 3 -1 0 0 0 0];

oriented        oriented;

internalField   nonuniform List<scalar> 
4432
(
-3.24151e-06
3.24151e-06
-2.32082e-06
-9.20688e-07
2.35195e-06
-4.67277e-06
8.76893e-06
-6.41697e-06
1.53016e-05
-6.5327e-06
2.09898e-05
-5.6882e-06
2.55154e-05
-4.52561e-06
2.89373e-05
-3.42183e-06
3.14586e-05
-2.52132e-06
3.32937e-05
-1.83512e-06
3.46021e-05
-1.30839e-06
3.54557e-05
-8.53607e-07
3.58113e-05
-3.55604e-07
3.5429e-05
3.82294e-07
3.38301e-05
1.59887e-06
3.03861e-05
3.44404e-06
2.42347e-05
6.15134e-06
1.47792e-05
9.45556e-06
3.35484e-06
1.14243e-05
-5.80348e-06
9.97515e-06
-1.32728e-05
7.20993e-06
-1.49817e-05
7.42326e-07
-1.64508e-05
-3.30159e-06
6.5431e-06
-2.08116e-06
-2.14111e-06
2.66519e-06
-9.41913e-06
9.08371e-06
-1.28355e-05
1.55639e-05
-1.30129e-05
2.11818e-05
-1.13061e-05
2.56472e-05
-8.99104e-06
2.90384e-05
-6.81294e-06
3.1568e-05
-5.05093e-06
3.34477e-05
-3.71478e-06
3.48268e-05
-2.68757e-06
3.57792e-05
-1.80601e-06
3.63329e-05
-9.0921e-07
3.65393e-05
1.75883e-07
3.65166e-05
1.62156e-06
3.61111e-05
3.84949e-06
3.47184e-05
7.54406e-06
3.06471e-05
1.35268e-05
2.14349e-05
2.06365e-05
6.4847e-06
2.50274e-05
-6.14938e-06
2.13406e-05
-8.85364e-06
2.58233e-06
-2.5315e-05
-2.98903e-06
9.53214e-06
-1.64121e-06
-3.48894e-06
3.17967e-06
-1.424e-05
9.53861e-06
-1.91944e-05
1.58562e-05
-1.93305e-05
2.12745e-05
-1.67244e-05
2.55635e-05
-1.328e-05
2.88398e-05
-1.00893e-05
3.13298e-05
-7.5409e-06
3.32377e-05
-5.62267e-06
3.46959e-05
-4.14582e-06
3.57589e-05
-2.86901e-06
3.64074e-05
-1.55771e-06
3.65867e-05
-3.4127e-09
3.62195e-05
1.98879e-06
3.53807e-05
4.68827e-06
3.44115e-05
8.51322e-06
3.35474e-05
1.4391e-05
3.10278e-05
2.31561e-05
2.36773e-05
3.23779e-05
1.2462e-05
3.35113e-05
3.86416e-06
1.14265e-05
-2.14613e-05
-2.57878e-06
1.21109e-05
-9.74533e-07
-5.09318e-06
3.88939e-06
-1.91039e-05
1.01311e-05
-2.54361e-05
1.62072e-05
-2.54066e-05
2.13447e-05
-2.18619e-05
2.53993e-05
-1.73345e-05
2.85391e-05
-1.32291e-05
3.10015e-05
-1.00033e-05
3.29732e-05
-7.59431e-06
3.45577e-05
-5.73032e-06
3.5781e-05
-4.09239e-06
3.6611e-05
-2.38763e-06
3.69775e-05
-3.6997e-07
3.67894e-05
2.17695e-06
3.59979e-05
5.47976e-06
3.47241e-05
9.78699e-06
3.36927e-05
1.54224e-05
3.35964e-05
2.32524e-05
3.26128e-05
3.33615e-05
2.69981e-05
3.91261e-05
1.48287e-05
2.3596e-05
-6.65963e-06
-2.04434e-06
1.41553e-05
-4.45882e-08
-7.09293e-06
4.7434e-06
-2.38919e-05
1.08031e-05
-3.14959e-05
1.65784e-05
-3.11819e-05
2.13803e-05
-2.66638e-05
2.51656e-05
-2.11198e-05
2.81639e-05
-1.62275e-05
3.06193e-05
-1.24586e-05
3.26902e-05
-9.66517e-06
3.44408e-05
-7.48091e-06
3.5863e-05
-5.51457e-06
3.69032e-05
-3.42787e-06
3.74875e-05
-9.5423e-07
3.75452e-05
2.11923e-06
3.70415e-05
5.98351e-06
3.59939e-05
1.08345e-05
3.46561e-05
1.67602e-05
3.40993e-05
2.38092e-05
3.47742e-05
3.26865e-05
3.26709e-05
4.12295e-05
2.08642e-05
3.54027e-05
1.41781e-05
-1.37995e-06
1.55352e-05
8.21295e-07
-9.29417e-06
5.63883e-06
-2.87095e-05
1.146e-05
-3.7317e-05
1.69066e-05
-3.66286e-05
2.13684e-05
-3.11255e-05
2.48978e-05
-2.46492e-05
2.77851e-05
-1.91148e-05
3.0274e-05
-1.49476e-05
3.24854e-05
-1.18765e-05
3.44374e-05
-9.43289e-06
3.60838e-05
-7.16104e-06
3.73483e-05
-4.69237e-06
3.815e-05
-1.75592e-06
3.84287e-05
1.84055e-06
3.81749e-05
6.23729e-06
3.74253e-05
1.15841e-05
3.62449e-05
1.79406e-05
3.4991e-05
2.50632e-05
3.47432e-05
3.29342e-05
3.35449e-05
4.24278e-05
2.3415e-05
4.55326e-05
3.7576e-05
-5.90659e-07
1.61259e-05
1.89131e-06
-1.17761e-05
6.54061e-06
-3.33588e-05
1.2015e-05
-4.27914e-05
1.70989e-05
-4.17125e-05
2.12437e-05
-3.52703e-05
2.45714e-05
-2.79769e-05
2.74146e-05
-2.19579e-05
3.00017e-05
-1.75347e-05
3.2407e-05
-1.42818e-05
3.46003e-05
-1.16262e-05
3.64996e-05
-9.06035e-06
3.8008e-05
-6.20079e-06
3.90382e-05
-2.7861e-06
3.95237e-05
1.35512e-06
3.94666e-05
6.29437e-06
3.89056e-05
1.21451e-05
3.79452e-05
1.8901e-05
3.6549e-05
2.64594e-05
3.51944e-05
3.42888e-05
3.34564e-05
4.41658e-05
2.52953e-05
5.36938e-05
6.28398e-05
3.75191e-07
1.57507e-05
3.24139e-06
-1.46423e-05
7.68056e-06
-3.77979e-05
1.26549e-05
-4.77656e-05
1.72517e-05
-4.63092e-05
2.10463e-05
-3.90648e-05
2.42008e-05
-3.11313e-05
2.7046e-05
-2.48031e-05
2.97685e-05
-2.02572e-05
3.23875e-05
-1.69009e-05
3.48289e-05
-1.40676e-05
3.69859e-05
-1.12173e-05
3.87502e-05
-7.96512e-06
4.00317e-05
-4.06757e-06
4.07885e-05
5.98334e-07
4.09701e-05
6.11271e-06
4.0586e-05
1.25293e-05
3.97516e-05
1.97353e-05
3.84788e-05
2.77323e-05
3.66844e-05
3.60831e-05
3.41296e-05
4.67206e-05
2.67348e-05
6.10885e-05
8.95453e-05
6.29867e-13
-3.34485e-12
1.05833e-12
-1.25789e-12
6.98826e-14
4.65877e-13
4.21604e-16
3.63149e-14
8.46483e-18
8.2984e-16
7.94054e-20
2.68567e-18
2.33257e-23
2.44917e-20
-1.34189e-24
3.43553e-23
-1.29707e-25
6.44576e-25
-3.9884e-26
3.06912e-26
-5.30459e-26
7.80751e-27
-7.06661e-26
5.34637e-27
-9.00564e-26
2.38579e-27
-1.12126e-25
-4.55417e-27
-1.45576e-25
-1.8289e-26
-2.08534e-25
-5.27377e-26
-5.49156e-25
-1.96523e-25
-1.11688e-25
-3.32711e-24
-4.58023e-24
5.20078e-12
-1.11534e-11
4.41996e-11
-4.50561e-11
3.59588e-12
1.75852e-11
7.28393e-14
1.74453e-12
5.03653e-16
7.21507e-14
1.05454e-18
4.96518e-16
-5.06572e-22
1.43054e-18
-7.98971e-23
2.00162e-21
-6.9634e-24
8.69272e-23
-1.65797e-24
4.6019e-24
-2.41714e-24
9.93921e-25
-3.72706e-24
8.97821e-25
-3.17549e-24
2.94711e-25
-3.06268e-24
-7.85268e-25
-4.02027e-24
-2.14989e-24
-8.21499e-24
-6.27878e-24
-3.29088e-23
-2.64156e-23
-2.08714e-24
-9.96226e-23
-1.30776e-23
5.10057e-11
-6.20496e-11
9.14925e-10
-4.12035e-09
3.61677e-11
5.48104e-10
1.0388e-12
3.92053e-11
1.0365e-14
1.07621e-12
3.05024e-17
1.07493e-14
-1.6774e-20
3.58403e-17
-1.9526e-21
6.52111e-20
-2.04213e-22
3.34806e-21
-1.13982e-22
2.46862e-22
-2.61175e-22
1.00673e-22
-4.5001e-22
1.51967e-22
-4.98092e-22
5.28535e-23
-3.9991e-22
-2.04611e-22
-3.98344e-22
-3.7585e-22
-5.69407e-22
-7.39157e-22
-1.86541e-21
-2.15565e-21
-1.61952e-22
-7.46625e-21
-1.13269e-21
1.46599e-09
-2.60974e-09
1.59009e-08
-5.003e-08
2.04417e-10
4.2514e-09
1.05734e-11
2.17865e-10
1.4501e-13
1.11394e-11
6.14351e-16
1.57485e-13
-2.20826e-18
6.76232e-16
-4.24311e-20
5.7249e-19
-1.39019e-20
1.04984e-19
-9.18352e-21
2.30359e-20
-1.91046e-20
1.0234e-20
-3.3075e-20
1.42208e-20
-3.86455e-20
5.36909e-21
-3.01915e-20
-1.50433e-20
-2.44707e-20
-3.69252e-20
-2.67076e-20
-5.38074e-20
-6.98132e-20
-1.09708e-19
-8.1596e-21
-3.50789e-19
-7.19956e-20
2.56785e-09
2.16803e-09
2.31804e-08
-5.90185e-08
8.02548e-10
1.13744e-08
2.0566e-11
6.55213e-10
2.66501e-13
3.08576e-11
7.00573e-16
4.15604e-13
-1.30029e-17
1.51792e-15
-3.40682e-19
2.26963e-18
-2.43349e-19
1.12808e-18
-3.15017e-19
6.10227e-19
-7.82032e-19
4.69985e-19
-1.58098e-18
7.21375e-19
-1.38179e-18
3.24633e-19
-1.0605e-18
-7.27614e-19
-8.91599e-19
-1.02513e-18
-8.91972e-19
-2.04061e-18
-1.91122e-18
-4.15113e-18
-3.01645e-19
-1.26484e-17
-3.21846e-18
5.21529e-09
9.57171e-09
1.75638e-08
-5.92657e-08
4.51881e-09
6.90573e-09
1.97258e-11
1.85252e-09
2.49563e-13
4.9137e-11
2.95787e-16
6.55728e-13
-2.35069e-17
1.859e-15
-1.17636e-18
4.68249e-18
-2.83332e-18
6.1848e-18
-7.24293e-18
1.21709e-17
-1.31782e-17
7.23923e-18
-3.80739e-17
1.33032e-17
-3.20013e-17
9.7466e-18
-1.64222e-17
-3.6708e-17
-2.13978e-17
-3.01265e-17
-2.15391e-17
-2.79959e-17
-3.87025e-17
-8.88246e-17
-8.26193e-18
-1.71212e-16
-5.7385e-17
2.06821e-08
-1.59367e-08
4.32858e-09
-8.21027e-08
3.44303e-09
2.10002e-09
-1.27865e-11
2.01802e-09
-1.07355e-13
3.54834e-11
-1.401e-15
5.4634e-13
-1.19302e-17
4.37436e-16
-1.54963e-17
1.81775e-17
-1.1653e-16
9.15887e-17
-1.6936e-16
2.23356e-16
-8.61532e-17
1.51482e-16
-2.53874e-16
4.02797e-17
-2.53823e-16
5.7255e-17
-1.94846e-16
-5.57528e-17
-5.40158e-16
-1.05782e-16
-3.66328e-16
-9.52374e-17
-5.75363e-16
-6.10729e-16
-1.77847e-16
-5.54e-16
-5.8444e-16
1.2289e-07
-1.7586e-07
-2.67867e-09
-1.04487e-08
-1.89159e-10
1.22945e-09
-3.19157e-11
1.576e-10
-4.19663e-13
3.65002e-12
-3.32282e-16
1.26723e-13
-1.91291e-18
9.49218e-17
-5.69852e-18
9.81828e-18
-7.53454e-18
1.15042e-16
-4.69866e-17
2.56479e-16
-7.24818e-17
3.58728e-17
-2.85261e-16
3.91509e-17
-3.08984e-16
9.94671e-17
-5.4637e-16
2.95917e-16
-1.594e-14
1.73594e-14
-4.86765e-15
-7.30142e-15
-8.26316e-15
3.35135e-16
-3.71814e-15
-1.41049e-14
-1.14782e-14
5.52616e-06
1.02245e-05
1.41997e-05
-2.33159e-05
2.35584e-05
-4.7155e-05
3.16826e-05
-5.58863e-05
3.87164e-05
-5.33399e-05
4.50876e-05
-4.54339e-05
5.12183e-05
-3.72608e-05
5.74068e-05
-3.09909e-05
6.36787e-05
-2.65288e-05
6.98357e-05
-2.30578e-05
7.55921e-05
-1.98239e-05
8.06842e-05
-1.63094e-05
8.49222e-05
-1.22031e-05
8.81821e-05
-7.32746e-06
9.03874e-05
-1.60695e-06
9.16028e-05
4.89723e-06
9.16605e-05
1.24716e-05
9.06401e-05
2.07558e-05
8.88362e-05
2.95362e-05
8.62178e-05
3.87015e-05
8.36224e-05
4.9316e-05
8.44543e-05
6.02566e-05
7.92754e-05
9.47453e-05
1.38539e-05
-3.62937e-06
3.03892e-05
-3.98483e-05
3.97789e-05
-5.65216e-05
4.21946e-05
-5.82695e-05
4.35527e-05
-5.46695e-05
4.70201e-05
-4.88798e-05
5.267e-05
-4.28957e-05
5.95701e-05
-3.78808e-05
6.68941e-05
-3.38461e-05
7.40419e-05
-3.02012e-05
8.05451e-05
-2.63243e-05
8.60698e-05
-2.18325e-05
9.04734e-05
-1.66061e-05
9.38629e-05
-1.07167e-05
9.6358e-05
-4.10214e-06
9.77468e-05
3.50851e-06
9.82141e-05
1.20043e-05
9.79292e-05
2.10406e-05
9.76085e-05
2.98569e-05
9.75666e-05
3.87434e-05
9.87153e-05
4.81673e-05
0.000102667
5.63044e-05
6.85123e-05
0.000113445
2.48122e-05
-2.84388e-05
4.65173e-05
-5.18787e-05
4.46047e-05
-2.70857e-05
4.01407e-05
-2.04846e-05
3.66494e-05
-2.08591e-05
3.69785e-05
-2.05291e-05
4.12046e-05
-1.9113e-05
4.80027e-05
-1.81217e-05
5.57539e-05
-1.72859e-05
6.37433e-05
-1.63371e-05
7.17902e-05
-1.50491e-05
7.99169e-05
-1.33531e-05
8.79879e-05
-1.11358e-05
9.54748e-05
-8.13128e-06
0.000101648
-3.92609e-06
0.000104886
2.1735e-06
0.000104185
1.27053e-05
0.000102393
2.28332e-05
0.000102239
3.00109e-05
0.000103366
3.76163e-05
0.000105224
4.63094e-05
0.000107147
5.43806e-05
6.23936e-05
0.000113266
2.21069e-05
-1.70947e-05
7.2488e-06
-7.37466e-07
3.94906e-06
-9.05474e-09
3.36636e-06
-5.45696e-11
2.99439e-06
-1.23069e-13
2.36618e-06
-3.05486e-17
2.34882e-06
-8.3451e-17
2.7527e-06
-7.90071e-17
3.5685e-06
-1.60879e-15
4.63623e-06
-4.19657e-14
6.12946e-06
-4.57319e-13
8.45554e-06
-1.48434e-12
1.22714e-05
-9.33447e-14
1.85594e-05
-5.18726e-13
2.86765e-05
-1.75472e-11
4.45872e-05
-1.46637e-10
7.09115e-05
1.07138e-07
9.93445e-05
4.52172e-06
0.00011239
1.81085e-05
0.000115617
3.43901e-05
0.000114321
4.7605e-05
0.000113913
5.47885e-05
6.04366e-05
0.00011587
7.46575e-07
-6.50367e-23
9.10943e-09
-3.93504e-21
5.46926e-11
-8.91816e-20
1.23052e-13
-1.43397e-18
-4.6566e-20
-1.81607e-17
-5.21705e-19
-7.33798e-18
-1.31261e-18
-2.65223e-17
-1.85044e-17
-3.6345e-17
-5.48719e-16
-1.09266e-15
-6.28348e-15
-3.63835e-14
-1.90286e-14
-4.48513e-13
-4.31037e-15
-1.53729e-12
-2.78628e-15
-1.60014e-13
4.35874e-16
-5.8336e-13
3.44572e-15
-1.76342e-11
2.49708e-12
-1.49167e-10
3.74649e-07
-1.53063e-08
5.6997e-06
-2.19569e-08
2.45308e-05
1.15017e-07
5.88017e-05
7.27226e-07
9.90975e-05
5.92959e-06
0.000116549
3.17253e-05
5.28392e-05
0.000124147
-5.87327e-23
-3.47666e-23
-2.04205e-21
-2.00695e-21
-3.77504e-20
-5.36899e-20
-2.4976e-19
-1.22599e-18
-1.23004e-18
-1.72489e-17
-4.78133e-18
-5.34171e-17
-6.43771e-18
-1.06838e-16
-1.42341e-17
-7.23463e-17
-3.72002e-16
-1.75978e-15
-2.48868e-14
-1.06042e-13
-4.97098e-13
-1.58174e-12
-6.0143e-14
-6.32952e-12
3.28643e-14
-5.72692e-13
1.88637e-12
-3.42706e-13
-2.16191e-11
-3.66874e-11
-4.86663e-12
-1.07014e-09
5.98304e-10
-1.49576e-08
1.72337e-09
-2.42137e-08
1.39353e-07
-2.40044e-08
8.62885e-07
1.1309e-08
6.16183e-06
1.51131e-07
3.41592e-05
2.40141e-07
1.34101e-06
7.99852e-05
-7.34502e-23
3.86836e-23
-1.15403e-21
-9.34992e-22
-4.00893e-20
-4.65203e-20
-1.40852e-18
-2.55584e-18
-2.07416e-17
-4.36857e-17
-5.95825e-17
-2.25076e-16
-4.27391e-17
-3.32302e-16
1.95039e-16
-1.91951e-16
1.51206e-14
-1.68386e-14
-7.73138e-13
-1.58546e-12
-4.16004e-12
-1.65815e-11
-3.64149e-12
-1.58929e-11
3.65447e-13
-5.34151e-12
2.56188e-14
-5.0846e-15
-1.98826e-10
-3.80063e-15
4.26326e-09
-1.53959e-08
1.54398e-08
-3.44098e-08
3.53721e-08
-3.86545e-08
5.53924e-08
-3.76495e-08
8.60471e-08
-1.48936e-08
2.56907e-07
-1.01866e-08
5.02085e-07
-4.48113e-09
9.65402e-08
1.75388e-06
-1.16777e-22
9.21115e-23
-5.22417e-22
-5.29352e-22
-4.5105e-20
-3.78479e-20
-3.07639e-18
-2.59686e-18
-4.53526e-17
-5.13845e-17
-1.03221e-16
-2.73716e-16
-7.20694e-17
-4.33933e-16
-2.33442e-16
-3.36174e-16
-7.63989e-15
-1.00815e-14
-5.29609e-12
-1.24881e-12
-5.62359e-12
-1.51019e-11
-3.3482e-12
-1.70272e-11
-1.41222e-14
-7.50628e-12
-1.50924e-15
-2.01168e-14
1.00344e-16
-7.82949e-15
5.23744e-09
-9.40075e-09
1.1795e-08
-2.41213e-08
2.34804e-08
-3.09554e-08
3.69403e-08
-3.03123e-08
5.96879e-08
-2.12488e-08
5.72876e-08
-5.64367e-09
5.03604e-08
-1.16317e-09
6.66294e-09
1.43358e-07
-2.97066e-23
1.09909e-22
-6.65795e-22
1.06736e-22
-2.97658e-20
-1.70794e-20
-2.5683e-18
-2.18822e-18
-4.00964e-17
-4.70274e-17
-9.91886e-17
-2.57937e-16
-9.42952e-17
-4.47525e-16
1.90696e-16
-5.4923e-16
-9.83176e-15
-5.46039e-16
-2.18151e-12
-8.0494e-14
-4.22931e-12
-8.71533e-12
-5.50575e-12
-1.46044e-11
-3.70617e-13
-4.48172e-12
-5.28977e-16
-3.92412e-13
8.15864e-14
-9.23644e-14
1.97196e-10
-6.03047e-14
-1.82636e-10
-1.71265e-11
2.49059e-10
-1.72426e-09
1.6887e-09
-1.29186e-08
1.77111e-08
-1.68109e-08
2.07711e-08
-3.29039e-09
1.07328e-08
7.47058e-10
4.15612e-09
1.55045e-08
5.22169e-24
1.14218e-22
-2.04199e-21
1.11237e-21
-1.30604e-20
-5.41382e-21
-1.41848e-18
-1.19933e-18
-2.15581e-17
-2.66593e-17
-6.5612e-17
-1.48855e-16
-1.12587e-16
-4.06119e-16
-7.49645e-17
-6.70846e-16
-1.0341e-15
-3.69671e-16
-2.78401e-14
-1.04346e-14
-8.93439e-13
-3.40769e-14
-6.53825e-13
-8.92459e-14
-3.11744e-13
-2.38398e-13
-3.88077e-14
-9.26528e-13
6.06258e-17
-2.93752e-13
-2.15176e-14
-2.3932e-14
-1.31869e-11
-3.94229e-12
-1.19632e-09
-5.40469e-10
-1.09509e-09
-1.43106e-08
-1.58919e-09
-2.53318e-08
-3.39352e-10
-8.30559e-09
2.38636e-09
1.00332e-10
3.73696e-09
4.93336e-09
2.81338e-23
1.12382e-22
-4.27195e-22
1.29267e-21
-4.55951e-21
-1.04636e-21
-5.38084e-19
-4.35311e-19
-6.02925e-18
-9.75052e-18
-2.96438e-17
-5.27418e-17
-9.77238e-17
-2.45737e-16
-4.73736e-17
-6.76202e-16
-7.91349e-16
-4.08465e-16
-7.14948e-16
-1.2466e-14
-1.06471e-15
-3.57273e-14
-2.04209e-15
-9.0596e-14
-9.43893e-14
-1.41902e-13
-2.30606e-14
-8.68582e-13
-4.58758e-16
-3.79701e-13
-8.61565e-15
-8.11134e-15
-2.73004e-12
-1.21431e-12
-5.48475e-10
-6.95069e-11
-9.82606e-09
-1.13216e-08
-6.73013e-09
-2.06008e-08
-8.83243e-09
-1.26507e-08
-4.9152e-09
-8.029e-09
2.0599e-09
-2.41453e-09
1.69591e-23
1.04364e-22
-6.03983e-23
1.19955e-21
-1.08481e-21
-2.85118e-22
-1.43343e-19
-1.1073e-19
-1.24318e-18
-2.63959e-18
-7.88659e-18
-1.44247e-17
-7.84986e-17
-1.0337e-16
-3.89933e-17
-6.38424e-16
-3.21871e-16
-4.71637e-16
-8.81066e-16
-7.89923e-15
-2.00254e-15
-5.72306e-14
-2.25943e-15
-1.91914e-13
-3.13344e-14
-2.44775e-13
-3.73251e-14
-4.65862e-13
-3.92149e-15
-1.43352e-13
-2.20312e-15
-5.47001e-15
-1.21642e-12
-3.76279e-16
-7.06883e-11
-3.64681e-14
-1.64142e-09
-1.90538e-12
-9.02008e-09
-5.38537e-11
-1.50555e-08
-1.06478e-09
-1.60259e-08
-1.86002e-09
-9.45029e-10
-7.46276e-09
7.92247e-24
8.8555e-23
-5.54695e-24
9.93948e-22
-1.40545e-21
1.11478e-21
-2.85222e-20
-2.10402e-20
-2.2603e-19
-5.68944e-19
-1.53934e-18
-3.23882e-18
-5.1788e-17
-3.05381e-17
-4.07432e-17
-3.25249e-16
-4.9946e-17
-4.77815e-16
-7.39587e-16
-6.56322e-16
-6.4596e-15
-5.81907e-14
-9.60956e-15
-2.13039e-13
-7.34543e-15
-1.35022e-13
-7.82376e-15
-1.3834e-14
-1.3229e-15
-5.61023e-15
-1.0394e-16
-2.66804e-15
-3.26454e-16
-4.13854e-16
-3.67235e-14
-5.50993e-17
-1.94204e-12
-4.13068e-17
-5.57953e-11
-4.35797e-16
-1.12056e-09
-1.09132e-14
-3.75497e-09
-2.60728e-13
-5.83236e-12
-6.85305e-09
3.5706e-24
6.7258e-23
3.02222e-23
7.28153e-22
-6.57611e-22
1.16057e-21
-4.47234e-21
-2.61442e-21
-3.63085e-20
-9.4166e-20
-2.77926e-19
-6.25557e-19
-9.27496e-18
-8.57072e-18
-3.24184e-17
-9.61161e-17
-3.29923e-17
-3.73467e-16
-6.1129e-16
-4.77173e-16
-1.18786e-14
-1.79623e-14
-1.38997e-14
-1.67124e-13
-7.79807e-16
-6.77186e-14
-3.09164e-16
-1.33081e-14
-4.14561e-16
-4.53653e-15
-1.65633e-16
-1.95394e-15
-7.41798e-18
-3.74492e-16
-9.39413e-18
-3.51544e-17
-1.74769e-17
-1.79813e-17
-3.9957e-16
-3.14738e-17
-1.12426e-14
-4.73059e-17
-2.71773e-13
-1.54809e-16
-2.73843e-15
-6.10071e-12
1.74223e-24
4.50169e-23
2.42408e-23
4.68916e-22
-6.0878e-23
8.80448e-22
-4.84686e-22
-5.73939e-23
-4.65206e-21
-1.13225e-20
-5.67291e-20
-1.10253e-19
-1.24308e-18
-2.33877e-18
-1.36743e-17
-2.34455e-17
-2.19127e-17
-1.22488e-16
-8.19983e-17
-4.77864e-16
-7.75419e-15
-3.38411e-16
-4.94983e-15
-4.27007e-16
-2.49963e-15
-7.96908e-15
-1.06953e-15
-9.41401e-15
-5.49851e-16
-4.00799e-15
-1.77036e-16
-1.41927e-15
-1.87465e-17
-2.6522e-16
-8.9085e-18
-2.24449e-17
-9.96075e-18
-4.98167e-18
-1.21054e-17
-8.17445e-18
-1.65213e-17
-2.03267e-17
-1.0051e-16
-4.80373e-17
-5.73821e-17
-2.73907e-15
8.74143e-25
2.6158e-23
1.47018e-23
2.61465e-22
-2.1171e-25
5.55757e-22
-1.85185e-22
1.27579e-22
-4.71816e-22
-9.49545e-22
-1.23207e-20
-1.85812e-20
-2.4704e-19
-5.20915e-19
-1.69774e-18
-5.25294e-18
-3.61759e-17
-3.36714e-17
-1.85041e-17
-3.53577e-16
-4.47035e-18
-1.21703e-16
-3.89518e-16
-4.15112e-17
-8.67278e-16
-6.08986e-17
-7.97007e-16
-2.51457e-16
-3.88973e-16
-5.12932e-16
-1.00537e-16
-4.10149e-16
-1.12918e-17
-1.11863e-16
-1.56518e-18
-1.20206e-17
-2.10073e-18
-1.4056e-18
-8.08756e-18
-1.42275e-18
-4.21674e-17
-4.47603e-18
-1.17326e-16
-1.37782e-17
-2.49632e-17
-1.13382e-16
3.924e-25
1.29631e-23
7.52123e-24
1.23959e-22
3.63624e-24
2.92706e-22
-2.03941e-23
1.00896e-22
-4.0031e-23
-3.51085e-23
-2.15742e-21
-3.06112e-21
-4.3449e-20
-9.10124e-20
-2.9436e-19
-9.10921e-19
-1.82248e-17
-4.77168e-18
-1.13972e-17
-3.26067e-17
-4.48931e-18
-5.2812e-17
-3.60271e-18
-4.1968e-17
-1.03408e-17
-3.0964e-17
-4.64505e-17
-1.13159e-17
-5.69002e-17
-3.74106e-18
-3.17076e-17
-4.04672e-18
-5.40677e-18
-4.09887e-18
-4.49996e-19
-2.66503e-18
-5.28648e-19
-5.88851e-19
-9.66387e-19
-4.44944e-19
-4.24984e-18
-1.63106e-18
-2.16917e-17
-5.69364e-18
-1.80451e-17
-6.95466e-17
1.041e-25
5.36052e-24
3.20905e-24
4.88362e-23
2.42327e-24
1.26097e-22
-5.58312e-25
4.9568e-23
-2.99464e-24
6.01976e-24
-3.202e-22
-4.58916e-22
-7.49064e-21
-1.32631e-20
-4.96304e-20
-1.29581e-19
-7.11394e-19
-6.50555e-19
-2.23516e-18
-3.4806e-18
-3.94056e-18
-7.87449e-18
-3.33165e-18
-7.89309e-18
-1.60627e-18
-9.28483e-18
-3.37439e-19
-5.30246e-18
-4.13784e-19
-8.54823e-19
-5.44436e-19
-6.81454e-20
-5.97576e-19
-1.37152e-20
-1.7726e-19
-4.78701e-21
-1.52384e-19
-1.18852e-20
-2.82717e-19
-9.10298e-20
-1.35053e-18
-6.07452e-19
-8.26977e-18
-2.44875e-18
-1.0342e-17
-2.93291e-17
3.46063e-27
1.79498e-24
1.10218e-24
1.55248e-23
1.00198e-24
4.30569e-23
1.70856e-25
1.75504e-23
-9.39569e-24
4.13332e-24
-4.01238e-23
-5.51611e-23
-9.45191e-22
-1.58506e-21
-6.58779e-21
-1.82027e-20
-6.36057e-20
-8.58185e-20
-2.26322e-19
-6.11855e-19
-6.85458e-19
-1.29727e-18
-6.51463e-19
-1.263e-18
-5.77721e-19
-9.17081e-19
-1.40509e-19
-4.42022e-19
-1.23255e-20
-1.17247e-19
-2.44935e-21
-1.11375e-20
-6.95474e-22
-1.76193e-22
-9.15436e-22
-1.94233e-22
-5.2432e-21
-2.65504e-21
-6.44384e-20
-3.02589e-20
-3.76211e-19
-2.36792e-19
-3.04799e-18
-1.09434e-18
-6.39616e-18
-1.24032e-17
-4.64381e-27
4.66981e-25
2.85819e-25
3.82292e-24
2.95505e-25
1.11535e-23
9.79421e-26
4.52063e-24
-9.16826e-25
1.21991e-24
-3.49616e-24
-4.52553e-24
-1.11842e-22
-1.49372e-22
-6.98382e-22
-2.18867e-21
-9.92147e-21
-1.16569e-20
-4.67811e-20
-5.58142e-20
-5.37941e-20
-9.44712e-20
-5.40204e-20
-9.28651e-20
-3.65881e-20
-7.36143e-20
-1.40706e-20
-3.92555e-20
-1.87272e-21
-1.09291e-20
-1.56218e-23
-1.09946e-21
-1.79238e-23
1.28343e-23
-5.52276e-23
1.3967e-23
-1.15542e-21
-7.14859e-22
-1.6872e-20
-1.03259e-20
-1.00965e-19
-9.51554e-20
-1.12594e-18
-5.11575e-19
-4.23379e-18
-5.16567e-18
-2.75859e-27
8.86472e-26
5.05108e-26
6.85966e-25
6.09685e-26
2.06398e-24
2.33171e-26
8.20493e-25
-5.86027e-26
2.22879e-25
-2.1112e-25
-2.00407e-25
-9.17042e-24
-1.01282e-23
-8.45477e-23
-1.87948e-22
-8.54217e-22
-1.2858e-21
-2.66085e-21
-3.88843e-21
-3.07011e-21
-7.19994e-21
-3.32536e-21
-7.46527e-21
-2.5342e-21
-6.34362e-21
-9.96776e-22
-3.47762e-21
-1.33519e-22
-6.7118e-22
1.85593e-24
8.89702e-24
2.3878e-24
7.56018e-23
-9.38577e-23
5.34935e-23
-2.28798e-22
-1.66078e-22
-3.91388e-21
-3.57378e-21
-2.44403e-20
-3.82687e-20
-3.84197e-19
-2.48142e-19
-2.93513e-18
-1.86298e-18
-8.49526e-28
1.0998e-26
4.75335e-27
8.06408e-26
8.35086e-27
2.48382e-25
3.23952e-27
9.65442e-26
-1.8979e-27
2.58442e-26
-7.95428e-27
-4.21259e-28
-4.59963e-25
-3.95577e-25
-8.17017e-24
-1.1e-23
-4.33979e-23
-8.82439e-23
-1.42576e-22
-2.581e-22
-1.80033e-22
-4.81226e-22
-1.98246e-22
-4.97809e-22
-1.58662e-22
-4.20336e-22
-4.4579e-23
-2.06038e-22
7.32055e-25
3.13567e-24
7.18418e-24
5.46644e-23
5.80265e-24
7.28016e-23
-1.24672e-23
4.86915e-23
-3.60479e-23
-2.4519e-23
-6.97634e-22
-1.23721e-21
-4.40271e-21
-1.5001e-20
-8.92278e-20
-1.27597e-19
-2.1281e-18
-2.96433e-19
-1.45996e-28
6.8233e-28
3.73419e-29
4.79395e-27
6.55279e-28
1.54103e-26
2.54288e-28
5.855e-27
-1.39144e-30
1.54803e-27
-1.01528e-28
3.05119e-28
-1.41815e-26
-6.02944e-27
-3.44937e-25
-3.60296e-25
-1.8002e-24
-3.38962e-24
-5.82809e-24
-1.06698e-23
-7.11036e-24
-2.07892e-23
-7.57982e-24
-2.13349e-23
-5.49423e-24
-1.64714e-23
1.19879e-25
9.23163e-25
2.30318e-24
2.00391e-23
3.30818e-24
3.67837e-23
2.30041e-24
3.78858e-23
-6.58942e-25
2.38897e-23
-2.7956e-24
-1.65624e-24
-3.75339e-23
-4.26206e-22
8.40673e-23
-5.70465e-21
8.50698e-21
-7.16887e-20
-1.61349e-18
3.51203e-19
-1.15254e-29
1.09179e-37
-9.51763e-30
8.70163e-36
1.84638e-29
2.6286e-34
7.58051e-30
4.91179e-33
1.74777e-30
6.57307e-32
-2.05325e-29
7.69317e-31
-1.60619e-28
-3.83721e-30
-5.05692e-27
-4.59883e-27
-2.75987e-26
-4.91821e-26
-8.85688e-26
-2.40859e-25
-9.34086e-26
-3.68973e-25
-8.30696e-26
-2.75736e-25
6.64932e-27
2.66096e-25
1.08884e-25
3.56179e-24
8.52576e-26
9.80993e-24
-1.03123e-25
1.33195e-23
-4.13834e-25
1.19365e-23
-5.65729e-25
6.88866e-24
1.01259e-24
-1.4156e-24
3.88893e-23
-1.42014e-22
8.15147e-22
-2.06619e-21
1.81483e-20
-4.26847e-20
-1.23729e-18
5.99762e-19
-2.21878e-39
5.18903e-38
-3.79828e-38
3.83513e-36
-2.42613e-37
1.20967e-34
-2.12878e-36
2.32874e-33
-5.51557e-35
3.35948e-32
-1.02236e-33
3.99043e-31
1.79242e-33
3.85339e-30
1.41803e-29
1.6337e-29
2.09238e-28
7.0423e-29
1.13705e-27
4.50772e-28
1.84411e-27
4.24587e-27
1.69489e-27
3.90606e-26
-5.03529e-27
3.04084e-25
-9.11686e-26
1.2519e-24
-3.38142e-25
2.46299e-24
-6.17314e-25
2.87132e-24
-7.44167e-25
2.32429e-24
-5.78439e-25
1.16049e-24
9.63101e-25
-1.1558e-24
2.72876e-23
-4.439e-23
5.36784e-22
-7.03517e-22
1.76207e-20
-2.52128e-20
-8.9133e-19
6.57775e-19
-1.22745e-39
1.9502e-38
-2.69759e-38
1.34485e-36
-6.15649e-37
4.41892e-35
-1.40225e-35
8.73827e-34
-2.57044e-34
1.28011e-32
-3.77672e-33
1.52901e-31
-4.50908e-32
1.59297e-30
-2.37614e-31
1.28436e-29
-1.27621e-30
8.33852e-29
-1.01828e-29
4.93839e-28
-1.19559e-28
2.90131e-27
-1.37157e-27
1.67093e-26
-1.33283e-26
7.74635e-26
-6.86109e-26
2.21164e-25
-1.69181e-25
3.60337e-25
-2.47873e-25
3.76733e-25
-2.5295e-25
2.75418e-25
-1.59729e-25
1.0218e-25
4.90792e-25
-5.08186e-25
1.21307e-23
-1.28007e-23
2.49949e-22
-2.22082e-22
1.34276e-20
-1.35302e-20
-5.4011e-19
5.61747e-19
-5.28539e-40
5.45456e-39
-1.34155e-38
3.52974e-37
-4.19549e-37
1.20507e-35
-1.02863e-35
2.43971e-34
-1.86745e-34
3.60935e-33
-2.7058e-33
4.28228e-32
-3.40683e-32
4.3635e-31
-3.32068e-31
3.86967e-30
-2.60693e-30
2.84368e-29
-1.8676e-29
1.69534e-28
-1.32837e-28
8.55624e-28
-9.2753e-28
3.74161e-27
-5.22297e-27
1.23462e-26
-1.8153e-26
2.73817e-26
-3.60928e-26
3.66693e-26
-4.61641e-26
3.33553e-26
-4.139e-26
2.07769e-26
-1.88777e-26
3.02328e-27
1.68809e-25
-1.44421e-25
4.33855e-24
-3.39343e-24
9.5675e-23
-6.39964e-23
8.25995e-21
-6.1593e-21
-2.66058e-19
3.6986e-19
-1.6807e-40
1.01777e-39
-4.60569e-39
6.21282e-38
-1.66965e-37
2.19718e-36
-4.24091e-36
4.53756e-35
-7.70135e-35
6.73583e-34
-1.10033e-33
7.82384e-33
-1.34333e-32
7.57984e-32
-1.42451e-31
6.36102e-31
-1.25012e-30
4.56658e-30
-8.8954e-30
2.6545e-29
-5.35982e-29
1.19485e-28
-2.80094e-28
4.1238e-28
-1.10607e-27
1.07996e-27
-2.94095e-27
1.98812e-27
-4.73109e-27
2.15384e-27
-5.17978e-27
1.59842e-27
-3.89074e-27
6.99322e-28
-6.83909e-28
-8.16988e-28
4.87331e-26
-3.36294e-26
1.33424e-24
-8.20956e-25
3.1395e-23
-1.66519e-23
4.06909e-21
-2.32588e-21
-1.11207e-19
1.92707e-19
-3.53712e-41
9.8233e-41
-9.94711e-40
5.68182e-39
-3.91515e-38
2.07122e-37
-1.01961e-36
4.34327e-36
-1.85096e-35
6.42223e-35
-2.58175e-34
7.16567e-34
-2.98629e-33
6.26022e-33
-2.98251e-32
4.39727e-32
-2.54222e-31
2.53422e-31
-1.7521e-30
1.21262e-30
-9.34562e-30
4.83803e-30
-3.82278e-29
1.58542e-29
-1.18732e-28
3.98828e-29
-2.59503e-28
6.4264e-29
-3.34207e-28
6.02378e-29
-2.95259e-28
3.5876e-29
-1.53992e-28
5.25753e-30
5.79004e-28
-2.12614e-28
1.22332e-26
-6.73195e-27
3.60026e-25
-1.79871e-25
8.98779e-24
-3.9245e-24
1.62543e-21
-7.34094e-22
-3.9421e-20
8.38516e-20
-3.80442e-42
1.12088e-42
-1.05592e-40
6.07592e-41
-4.35621e-39
2.12491e-39
-1.15606e-37
4.38879e-38
-2.08854e-36
6.56431e-37
-2.79639e-35
7.62153e-36
-2.91389e-34
7.11815e-35
-2.43187e-33
5.4791e-34
-1.66032e-32
3.52612e-33
-9.39224e-32
1.90628e-32
-4.42438e-31
8.56696e-32
-1.71075e-30
3.01723e-31
-5.07729e-30
6.90734e-31
-9.65499e-30
6.65366e-31
-1.0687e-29
4.02705e-31
-7.52244e-30
8.06554e-32
-1.30408e-30
-8.80074e-31
7.2188e-29
-3.46699e-29
2.67313e-27
-1.20359e-27
8.54425e-26
-3.56221e-26
2.27653e-24
-8.51269e-25
5.35259e-22
-1.96001e-22
-1.18474e-20
3.06025e-20
-4.76586e-44
3.00917e-45
-1.24679e-42
1.81402e-43
-4.92408e-41
7.08449e-42
-1.2903e-39
1.65866e-40
-2.35724e-38
2.84436e-39
-3.28394e-37
3.81998e-38
-3.65799e-36
4.16315e-37
-3.34476e-35
3.7661e-36
-2.54879e-34
2.85206e-35
-1.62759e-33
1.78952e-34
-8.62432e-33
8.82652e-34
-3.57684e-32
2.82516e-33
-9.63536e-32
2.57004e-33
-1.09181e-31
1.41619e-33
-7.7737e-32
2.63531e-34
-1.83219e-32
-2.41589e-33
4.78211e-31
-1.10651e-31
1.20703e-29
-4.87457e-30
5.02943e-28
-1.91022e-28
1.7738e-26
-6.38274e-27
5.15832e-25
-1.71334e-25
1.45861e-22
-4.46372e-23
-3.03523e-21
9.28957e-21
-1.3834e-46
5.35438e-48
-3.92417e-45
3.67544e-46
-1.6993e-43
1.6424e-44
-5.0487e-42
4.45898e-43
-1.05583e-40
8.93901e-42
-1.70019e-39
1.41285e-40
-2.2096e-38
1.81324e-39
-2.3747e-37
1.91802e-38
-2.12983e-36
1.66328e-37
-1.5787e-35
1.12781e-36
-9.17995e-35
4.91963e-36
-3.45852e-34
3.99151e-36
-3.69897e-34
1.92909e-36
-2.39466e-34
1.33622e-37
-5.23335e-35
-3.14896e-36
1.15649e-33
-2.17855e-34
3.19834e-32
-1.23149e-32
1.72453e-30
-6.05416e-31
8.02367e-29
-2.67319e-29
3.18814e-27
-1.02165e-27
1.03835e-25
-3.1305e-26
3.26609e-23
-8.67767e-24
-6.58247e-22
2.31671e-21
-2.61656e-49
2.25308e-51
-8.01249e-48
1.95952e-49
-3.83637e-46
1.09694e-47
-1.31633e-44
3.73283e-46
-3.20339e-43
9.31654e-45
-6.05673e-42
1.80839e-43
-9.26106e-41
2.79589e-42
-1.16371e-39
3.42623e-41
-1.19569e-38
3.08625e-40
-9.58473e-38
1.52336e-39
-4.93303e-37
1.04372e-39
-4.71458e-37
4.21254e-40
-2.68048e-37
6.99535e-41
-2.1821e-38
-1.08961e-39
1.2124e-36
-2.16261e-37
5.13324e-35
-2.02818e-35
3.51632e-33
-1.19539e-33
2.03983e-31
-6.44409e-32
1.06711e-29
-3.21366e-30
4.84128e-28
-1.4131e-28
1.79237e-26
-4.96401e-27
5.93514e-24
-1.42179e-24
-1.19229e-22
4.6499e-22
-1.14231e-52
7.27525e-56
-4.1124e-51
8.85168e-54
-2.34852e-49
6.55996e-52
-9.98848e-48
2.86894e-50
-2.99827e-46
8.80087e-49
-6.92912e-45
1.92081e-47
-1.27391e-43
2.65729e-46
-1.85404e-42
1.23222e-45
-1.98054e-41
6.13173e-46
-1.15757e-40
1.8151e-46
-9.37723e-41
-3.06584e-46
-4.46859e-41
-1.12127e-43
-8.75031e-42
-6.81265e-44
3.29037e-40
-1.03339e-40
3.91073e-38
-1.55286e-38
4.40276e-36
-1.41377e-36
3.05268e-34
-9.50991e-35
1.94436e-32
-5.63658e-33
1.14836e-30
-3.18117e-31
5.98716e-29
-1.62229e-29
2.53042e-27
-6.5677e-28
8.60136e-25
-1.90006e-25
-1.75066e-23
7.38672e-23
-3.70228e-57
3.82913e-60
-1.7084e-55
5.33821e-58
-1.21455e-53
4.20365e-56
-6.49845e-52
1.73451e-54
-2.36029e-50
3.41043e-53
-6.08566e-49
9.841e-54
-9.98257e-48
1.73103e-54
-5.49825e-47
3.6593e-56
-3.25143e-47
2.11556e-55
-1.1436e-47
-4.41e-50
2.29383e-47
-1.02194e-49
9.95409e-45
-2.959e-46
7.1686e-45
-6.40092e-46
1.34769e-41
-5.6311e-42
2.40139e-39
-7.58903e-40
2.57188e-37
-7.45732e-38
2.05153e-35
-5.77221e-36
1.44079e-33
-3.86549e-34
9.64174e-32
-2.46773e-32
5.83387e-30
-1.48994e-30
2.83411e-28
-7.07481e-29
9.66878e-26
-1.94631e-26
-1.97123e-24
9.07594e-24
-1.88564e-61
7.69041e-64
-9.07035e-60
1.41164e-61
-6.38129e-58
1.18734e-59
-3.11369e-56
3.60592e-58
-7.07826e-55
7.2184e-59
-2.38493e-55
9.04988e-60
-4.95525e-56
-9.05591e-59
-1.24574e-57
7.74986e-58
-8.59748e-57
2.50553e-54
2.44466e-51
2.65442e-51
3.42491e-51
-2.13051e-51
2.26266e-47
-1.08085e-48
3.02139e-47
-3.6856e-47
5.81946e-43
-1.73644e-43
9.29086e-41
-2.51464e-41
1.08757e-38
-2.7146e-39
1.00342e-36
-2.36999e-37
8.01443e-35
-1.93654e-35
6.08797e-33
-1.42035e-33
4.37198e-31
-1.03717e-31
2.48843e-29
-5.9247e-30
8.01078e-27
-1.36675e-27
-1.56791e-25
8.2767e-25
-3.51902e-65
3.50232e-68
-2.01971e-63
7.3348e-66
-1.406e-61
3.41386e-64
-4.81232e-60
4.34606e-65
-1.07621e-60
3.6341e-66
-1.54852e-61
-1.126e-64
1.82114e-60
2.17606e-62
-1.86009e-59
3.24041e-58
-7.24432e-56
8.01416e-55
-9.29447e-53
8.3781e-52