/*--------------------------------*- C++ -*----------------------------------*\
| =========                 |                                                 |
| \\      /  F ield         | OpenFOAM: The Open Source CFD Toolbox           |
|  \\    /   O peration     | Version:  2206                                  |
|   \\  /    A nd           | Website:  www.openfoam.com                      |
|    \\/     M anipulation  |                                                 |
\*---------------------------------------------------------------------------*/
FoamFile
{
    version     2.0;
    format      ascii;
    arch        "LSB;label=32;scalar=64";
    class       volScalarField;
    location    "0.425";
    object      alpha.water;
}
// * * * * * * * * * * * * * * * * * * * * * * * * * * * * * * * * * * * * * //

dimensions      [0 0 0 0 0 0 0];

internalField   nonuniform List<scalar> 
2268
(
1
1
1
1
1
1
1
1
1
1
1
1
1
1
1
1
1
1
1
1
1
0.968194
0.853789
1
1
1
1
1
1
1
1
1
1
1
1
1
1
1
1
1
1
1
0.999982
0.999933
0.999974
0.891013
1
1
1
1
1
1
1
1
1
1
1
1
1
1
1
1
1
1
1
1
0.999935
0.99939
0.942197
1
1
1
1
1
1
1
1
1
1
1
1
1
1
1
1
1
1
1
1
0.999976
0.999958
0.997053
1
1
1
1
1
1
1
1
1
1
1
1
1
1
1
1
1
1
1
1
1
0.999997
1
1
1
0.999999
0.999999
1
1
1
1
1
1
1
1
1
1
1
1
1
1
1
1
1
1
1
1
1
0.999932
0.999927
0.999964
0.999988
0.999997
0.999999
1
1
1
1
1
1
1
1
1
1
1
1
1
1
1
0.635819
0.578728
0.559666
0.591417
0.639138
0.692473
0.754165
0.811857
0.870105
0.924091
0.966316
0.994312
1
1
1
1
1
1
1
1
1
1
1
1.08319e-12
1.08319e-12
4.7222e-11
8.72191e-10
1.42104e-10
1.16929e-11
8.61253e-13
7.25976e-14
5.08072e-15
6.09507e-16
4.32813e-17
2.45398e-18
1.26268e-19
5.60477e-21
2.05442e-22
5.87528e-24
1.1906e-25
1.34083e-27
7.23585e-28
1.06526e-12
1.32035e-11
3.89904e-09
4.52361e-09
8.6242e-10
1.0602e-10
1.00856e-11
7.78593e-13
3.77556e-13
5.92603e-14
3.3601e-15
1.94976e-16
1.02858e-17
4.6755e-19
1.73486e-20
4.85936e-22
8.8452e-24
6.47082e-26
7.23585e-28
2.00757e-11
2.02973e-09
2.59464e-07
2.5216e-07
4.87961e-08
6.14416e-09
6.07731e-10
4.89726e-11
3.80238e-12
1.26291e-12
1.47341e-13
7.97801e-15
3.89721e-16
1.65483e-17
5.54657e-19
1.29009e-20
2.11511e-22
2.07796e-24
4.86551e-26
2.03102e-09
3.81676e-06
1.02372e-05
8.03351e-06
1.49427e-06
2.10232e-07
2.04483e-08
1.69286e-09
1.28956e-10
1.04202e-11
1.07252e-12
1.89872e-13
1.19642e-14
4.30954e-16
1.26501e-17
3.52413e-19
7.02831e-21
6.91891e-23
1.8726e-24
3.11135e-07
3.67579e-05
0.000203021
0.000145381
4.11074e-05
5.37297e-06
3.88876e-07
3.62494e-08
3.12195e-09
2.57023e-10
2.01201e-11
1.71589e-12
1.71355e-13
8.10305e-15
2.92508e-16
8.82381e-18
1.79293e-19
1.57218e-21
6.37516e-23
1.26441e-05
0.000234752
0.002318
0.00155197
0.000848615
6.27442e-05
5.15179e-06
5.28579e-07
5.12832e-08
4.65544e-09
3.90063e-10
2.98331e-11
2.26534e-12
1.24406e-13
5.11033e-15
1.59081e-16
3.32294e-18
2.92042e-20
1.71249e-21
0.000115863
0.0764393
0.185953
0.0543816
0.00331238
0.000217558
2.8672e-05
3.49172e-06
3.83145e-07
3.7618e-08
3.26343e-09
2.4706e-10
1.61439e-11
1.11062e-12
4.77324e-14
1.53805e-15
3.30737e-17
3.03149e-19
3.3453e-20
0.326369
0.735321
0.845908
0.488314
0.0396506
0.000927711
0.000132304
1.76488e-05
2.09365e-06
2.19689e-07
2.01489e-08
1.59974e-09
1.0871e-10
6.69876e-12
3.46398e-13
1.15313e-14
2.54427e-16
2.20852e-18
3.55018e-19
-1.68588e-16
0
0
-5.49003e-24
-3.51362e-22
6.54099e-08
1.91675e-09
0.0255444
0.0698548
0.135188
0.231112
0.373591
0.581659
0.839832
1
1
1
1
1
1
1
1
1
-4.52492e-16
-9.75913e-16
-2.00813e-15
-1.85343e-14
-8.86026e-14
-5.75306e-19
-6.63769e-17
0
5.71449e-09
1.27252e-06
1.80684e-05
0.00218976
0.0298487
0.124053
0.332917
0.582716
0.843799
0.996926
0.999995
1
1
1
1
-5.31316e-16
-1.01902e-15
-2.89513e-15
-2.61968e-14
-1.37598e-13
-4.89642e-13
-1.03687e-12
-1.59961e-12
-2.17927e-12
1.86994e-08
8.11097e-07
6.0154e-06
2.04473e-06
9.53248e-06
1.98325e-05
0.0593676
0.152831
0.331564
0.517082
0.742966
0.927125
0.969591
0.982341
-3.06088e-16
-5.0352e-16
-2.22291e-15
-2.25727e-14
-1.30902e-13
-4.89148e-13
-1.08742e-12
-1.7749e-12
-1.01769e-16
2.41233e-10
1.60623e-08
1.24264e-07
1.18912e-06
3.65709e-07
6.87975e-07
2.29256e-07
1.99473e-07
9.36579e-06
0.0253303
0.070028
0.163775
0.25538
0.336172
-1.14812e-16
-1.70288e-16
-1.2645e-15
-1.3608e-14
-8.48909e-14
-3.23679e-13
-7.38162e-13
-1.24782e-12
-1.60591e-12
-8.11476e-15
3.56302e-13
2.71113e-10
1.47945e-08
-7.49112e-10
7.69862e-09
1.04807e-07
1.95202e-09
6.83764e-08
1.59379e-07
7.60728e-08
3.96304e-08
2.81293e-08
2.52875e-08
-3.17738e-17
-3.97661e-17
-5.46178e-16
-6.1471e-15
-4.08363e-14
-1.58901e-13
-3.68887e-13
-6.34704e-13
-8.94801e-13
-1.02959e-12
-6.05173e-30
-4.69714e-26
-4.8836e-27
2.45688e-14
3.64456e-11
3.37841e-09
3.15256e-10
1.73373e-12
9.73321e-08
5.06491e-07
5.22268e-07
4.41367e-07
6.61501e-08
-8.81591e-18
-1.30205e-17
-1.81869e-16
-2.1688e-15
-1.51164e-14
-5.98712e-14
-1.40887e-13
-2.44198e-13
-3.44877e-13
-3.98924e-13
-3.52328e-13
-1.47264e-13
-2.22874e-14
2.65151e-14
7.41218e-14
7.71489e-14
5.68324e-13
1.60614e-12
1.73373e-12
3.04528e-12
1.77534e-10
2.94419e-11
1.7777e-07
-3.05299e-18
-4.01796e-18
-4.87337e-17
-6.02324e-16
-4.34448e-15
-1.74214e-14
-4.13269e-14
-7.1517e-14
-9.96458e-14
-1.13332e-13
-9.76138e-14
-4.69586e-14
9.01665e-14
7.58087e-13
1.36171e-12
2.30135e-12
1.62338e-11
3.87176e-11
2.93251e-11
2.33336e-11
2.42088e-11
2.58023e-11
2.94419e-11
-1.24966e-18
-9.71492e-19
-1.03698e-17
-1.30159e-16
-9.63388e-16
-3.89289e-15
-9.25135e-15
-1.58216e-14
-2.13364e-14
-2.29156e-14
-1.79135e-14
-5.47755e-15
2.81718e-14
1.65038e-13
5.80437e-13
1.33973e-12
2.28715e-12
4.61485e-12
8.42962e-12
1.9074e-11
4.55852e-11
8.84019e-11
1.74894e-10
-3.94369e-19
-1.80923e-19
-1.68364e-18
-2.12587e-17
-1.60585e-16
-6.50634e-16
-1.53667e-15
-2.5559e-15
-3.21345e-15
-2.92757e-15
-1.33866e-15
1.72065e-15
1.43773e-14
5.37607e-14
1.58596e-13
3.99567e-13
8.89863e-13
1.78834e-12
3.41149e-12
6.24615e-12
1.09041e-11
2.35061e-11
7.49307e-11
-8.55378e-20
-2.43504e-20
-1.95749e-19
-2.48194e-18
-1.90534e-17
-7.69071e-17
-1.77899e-16
-2.76992e-16
-2.89863e-16
-1.15741e-16
3.27972e-16
2.43583e-15
9.04317e-15
2.89487e-14
8.26206e-14
2.12206e-13
4.98074e-13
1.07737e-12
2.15491e-12
4.03854e-12
7.10691e-12
1.15968e-11
2.08916e-11
-1.12751e-20
-2.12517e-21
-1.45369e-20
-1.85438e-19
-1.43957e-18
-5.71576e-18
-1.22892e-17
-1.50754e-17
-1.61103e-18
5.63722e-17
3.80487e-16
1.65017e-15
6.27373e-15
2.08347e-14
6.13568e-14
1.64001e-13
4.016e-13
9.01505e-13
1.84848e-12
3.49092e-12
6.21341e-12
1.0108e-11
1.68841e-11
-6.75215e-22
-9.19483e-23
-5.21127e-22
-6.66729e-21
-5.13745e-20
-1.85551e-19
-1.76139e-19
4.64109e-19
7.01015e-18
4.34007e-17
2.43909e-16
1.18455e-15
4.81474e-15
1.67913e-14
5.20872e-14
1.47887e-13
3.78712e-13
8.69899e-13
1.80853e-12
3.43423e-12
6.13948e-12
9.8753e-12
1.70542e-11
-2.11396e-24
-1.42776e-25
2.43477e-25
1.23201e-23
2.92446e-22
4.61949e-21
5.35771e-20
5.38899e-19
3.40252e-18
2.56074e-17
1.68389e-16
8.80076e-16
3.78592e-15
1.41094e-14
4.78378e-14
1.45301e-13
4.01865e-13
9.95375e-13
2.11689e-12
3.90264e-12
6.67338e-12
1.03194e-11
1.97904e-11
2.46106e-26
1.81254e-26
1.17744e-25
2.22386e-24
6.64595e-23
1.24351e-21
1.64996e-20
1.77616e-19
1.80137e-18
1.54999e-17
1.13539e-16
6.41106e-16
2.93989e-15
1.20543e-14
4.63036e-14
1.69889e-13
5.48964e-13
1.39398e-12
2.79893e-12
4.87359e-12
8.12207e-12
1.53829e-11
5.43471e-11
4.25892e-26
4.7124e-27
1.52578e-26
8.12754e-25
2.69782e-23
5.38206e-22
7.60911e-21
8.88104e-20
9.26995e-19
8.77421e-18
7.32986e-17
4.52616e-16
2.23642e-15
1.03908e-14
4.75363e-14
2.05099e-13
6.97449e-13
1.69739e-12
3.19538e-12
5.57504e-12
1.02129e-11
2.81823e-11
1.98953e-10
2.38544e-26
1.78764e-27
4.83903e-27
2.48748e-25
8.9135e-24
1.92329e-22
2.96028e-21
3.78058e-20
4.41776e-19
4.73671e-18
4.49814e-17
3.05312e-16
1.64221e-15
8.89906e-15
4.76431e-14
2.21041e-13
7.57433e-13
1.78118e-12
3.26799e-12
6.01666e-12
1.31008e-11
4.66554e-11
3.48238e-10
5.17545e-27
4.35793e-28
1.18159e-27
7.20641e-26
2.83419e-24
6.6005e-23
1.10678e-21
1.55312e-20
1.99593e-19
2.41219e-18
2.55655e-17
1.91479e-16
1.11876e-15
7.09902e-15
4.49836e-14
2.23906e-13
7.685e-13
1.72948e-12
3.0981e-12
6.60081e-12
1.96249e-11
7.43744e-11
3.78692e-10
1.61985e-27
1.21327e-28
2.90232e-28
1.97819e-26
8.37508e-25
2.10112e-23
3.84252e-22
5.91143e-21
8.35001e-20
1.12728e-18
1.30915e-17
1.08398e-16
6.76925e-16
4.92721e-15
3.84214e-14
2.12565e-13
6.82366e-13
1.39052e-12
2.84268e-12
8.43705e-12
3.14129e-11
1.07643e-10
3.06165e-10
3.88497e-28
2.70302e-29
6.55159e-29
5.08364e-27
2.31966e-25
6.24776e-24
1.24005e-22
2.0777e-21
3.19345e-20
4.73084e-19
5.94564e-18
5.4404e-17
3.59589e-16
2.8992e-15
2.9832e-14
1.72344e-13
4.81551e-13
1.03642e-12
2.89166e-12
1.14207e-11
4.01364e-11
1.21051e-10
2.64606e-10
7.86636e-29
5.26384e-30
1.39342e-29
1.23036e-27
5.99948e-26
1.72439e-24
3.68997e-23
6.68121e-22
1.10682e-20
1.77029e-19
2.39337e-18
2.41942e-17
1.70781e-16
1.44959e-15
2.00178e-14
1.07204e-13
2.70185e-13
8.27325e-13
3.77379e-12
1.32243e-11
4.01948e-11
8.36329e-11
2.53722e-10
1.3958e-29
9.10048e-31
2.78517e-30
2.79419e-28
1.44677e-26
4.41389e-25
1.01245e-23
1.9686e-22
3.48426e-21
5.94446e-20
8.62832e-19
9.63214e-18
7.41445e-17
6.31869e-16
1.01908e-14
4.29639e-14
1.37678e-13
7.92898e-13
5.08251e-12
1.32027e-11
1.93402e-11
2.00284e-11
2.18829e-09
2.19225e-30
1.41295e-31
5.26811e-31
5.96629e-29
3.2543e-27
1.05033e-25
2.57386e-24
5.3527e-23
1.0052e-21
1.81348e-20
2.82755e-19
3.4734e-18
2.98753e-17
2.5311e-16
3.48484e-15
1.24593e-14
9.14664e-14
1.04234e-12
6.0854e-12
5.74681e-12
2.46324e-12
9.47119e-10
5.95898e-09
3.10545e-31
2.00364e-32
9.50045e-32
1.19956e-29
6.84119e-28
2.33418e-26
6.10467e-25
1.35508e-23
2.68709e-22
5.09167e-21
8.53363e-20
1.14611e-18
1.1246e-17
9.7704e-17
8.83636e-16
3.64627e-15
8.1148e-14
1.1723e-12
3.44144e-12
2.32975e-12
2.07512e-12
4.06882e-09
5.98917e-09
3.97183e-32
2.59734e-33
1.64341e-32
2.27127e-30
1.3454e-28
4.85757e-27
1.35648e-25
3.21177e-24
6.70877e-23
1.3287e-21
2.38827e-20
3.49332e-19
3.93598e-18
3.62074e-17
2.47877e-16
1.41922e-15
7.02984e-14
9.31616e-13
1.61644e-12
1.58745e-12
1.66498e-12
4.24754e-09
5.80432e-09
4.52788e-33
3.04367e-34
2.72712e-33
4.0318e-31
2.46827e-29
9.44413e-28
2.81902e-26
7.12175e-25
1.5674e-23
3.23709e-22
6.20192e-21
9.89118e-20
1.26361e-18
1.2485e-17
8.58816e-17
6.48926e-16
3.91125e-14
2.1969e-13
9.09605e-13
1.55151e-12
2.27197e-12
1.19315e-09
9.85325e-10
4.51306e-34
3.17027e-35
4.30238e-34
6.6416e-32
4.19109e-30
1.70147e-28
5.43649e-27
1.46684e-25
3.41193e-24
7.35249e-23
1.48984e-21
2.59332e-20
3.68171e-19
3.98668e-18
3.02491e-17
2.61136e-16
1.82177e-14
6.5358e-14
7.59641e-13
2.72008e-12
8.82841e-12
7.41272e-11
1.74067e-11
3.8592e-35
2.89047e-36
6.33976e-35
1.0004e-32
6.50759e-31
2.8065e-29
9.61591e-28
2.775e-26
6.85762e-25
1.54768e-23
3.29483e-22
6.2322e-21
9.73485e-20
1.1688e-18
1.00457e-17
8.67408e-17
3.91701e-15
1.89022e-14
8.91498e-13
3.64127e-12
3.87829e-12
1.09535e-13
-2.14712e-12
2.79075e-36
2.28832e-37
8.53225e-36
1.3552e-33
9.11258e-32
4.18262e-30
1.5402e-28
4.7629e-27
1.25827e-25
2.99268e-24
6.66757e-23
1.35948e-21
2.33809e-20
3.09517e-19
2.99732e-18
2.49169e-17
8.81028e-16
5.39425e-15
8.74506e-13
3.48269e-12
3.06244e-12
-2.39019e-13
-3.83645e-12
1.68899e-37
1.57457e-38
1.02514e-36
1.62469e-34
1.13501e-32
5.56168e-31
2.20712e-29
7.33039e-28
2.08285e-26
5.25952e-25
1.2259e-23
2.67472e-22
5.059e-21
7.3061e-20
7.91193e-19
6.69462e-18
1.60859e-16
1.56246e-15
3.59049e-13
2.28948e-12
1.07708e-12
-1.4936e-12
-4.42359e-12
8.47624e-39
9.50192e-40
1.07647e-37
1.69807e-35
1.24103e-33
6.52083e-32
2.79764e-30
1.00075e-28
3.07415e-27
8.30061e-26
2.0307e-24
4.71682e-23
9.74187e-22
1.53582e-20
1.83384e-19
1.69448e-18
2.56362e-17
4.37585e-16
1.50057e-13
6.74857e-13
7.20447e-14
-1.81697e-12
-3.87986e-12
3.48621e-40
5.09996e-41
9.68019e-39
1.52442e-36
1.17549e-34
6.65972e-33
3.1003e-31
1.19873e-29
3.99644e-28
1.16065e-26
2.99857e-25
7.39e-24
1.65658e-22
2.84788e-21
3.70543e-20
3.87357e-19
3.57677e-18
1.06798e-16
5.55834e-14
1.22559e-13
-2.08363e-13
-1.54284e-12
-2.79481e-12
1.15363e-41
2.4623e-42
7.29455e-40
1.15612e-37
9.50135e-36
5.84044e-34
2.9631e-32
1.24384e-30
4.51267e-29
1.41565e-27
3.89154e-26
1.01686e-24
2.4617e-23
4.62068e-22
6.49489e-21
7.69876e-20
4.63713e-19
2.17441e-17
1.40114e-14
1.48336e-14
-2.94143e-13
-1.03156e-12
-1.66998e-12
2.97913e-43
1.06414e-43
4.48761e-41
7.25343e-39
6.42856e-37
4.31574e-35
2.39943e-33
1.09911e-31
4.34766e-30
1.47766e-28
4.35522e-27
1.20961e-25
3.15358e-24
6.47022e-23
9.8318e-22
1.30585e-20
4.68901e-20
3.75683e-18
1.80321e-15
-3.47832e-16
-1.98611e-13
-5.52097e-13
-8.30825e-13
5.71017e-45
3.97149e-45
2.17709e-42
3.65651e-40
3.54222e-38
2.6157e-36
1.60527e-34
8.06534e-33
3.48573e-31
1.28694e-29
4.09479e-28
1.21668e-26
3.41693e-25
7.67441e-24
1.26753e-22
1.90827e-21
-2.40832e-21
4.66596e-19
8.86827e-17
-2.22612e-15
-1.01578e-13
-2.45764e-13
-3.48929e-13
7.50171e-47
1.19109e-46
7.92199e-44
1.41671e-41
1.52295e-39
1.24881e-37
8.53876e-36
4.72593e-34
2.24002e-32
9.01608e-31
3.11703e-29
1.00217e-27
3.04818e-26
7.50987e-25
1.36069e-23
1.89885e-22
-9.97228e-21
-6.42984e-20
-3.13387e-17
-2.07531e-15
-4.29406e-14
-9.20172e-14
-1.24433e-13
5.96785e-49
2.70068e-48
1.99688e-45
3.90986e-43
4.75189e-41
4.40154e-39
3.3889e-37
2.0734e-35
1.08598e-33
4.79544e-32
1.81781e-30
6.44414e-29
2.14907e-27
5.83434e-26
1.20278e-24
1.10187e-24
-9.49447e-21
-1.83171e-19
-3.83523e-17
-1.16407e-15
-1.5042e-14
-2.86187e-14
-3.76903e-14
1.87969e-51
3.91981e-50
2.98094e-47
6.56635e-45
9.35192e-43
1.01487e-40
8.90293e-39
6.06498e-37
3.55959e-35
1.74645e-33
7.41597e-32
2.99509e-30
1.12082e-28
3.38304e-27
7.06723e-26
-1.11334e-23
-5.86748e-21
-1.69341e-19
-2.23402e-17
-4.56803e-16
-4.22591e-15
-7.13227e-15
-9.47485e-15
8.39993e-55
2.25456e-52
1.52394e-49
4.12648e-47
7.96187e-45
1.12094e-42
1.15591e-40
9.05995e-39
6.12515e-37
3.47052e-35
1.77232e-33
8.72471e-32
3.82753e-30
1.27975e-28
-4.60513e-27
-9.01295e-24
-2.54129e-21
-9.73464e-20
-8.2001e-18
-1.27984e-16
-9.07476e-16
-1.33896e-15
-1.80924e-15
6.15037e-60
5.87493e-57
5.66303e-54
3.02034e-51
1.07169e-48
2.51432e-46
5.66871e-44
1.00145e-41
1.29348e-39
1.54174e-37
1.51946e-35
1.12359e-33
6.30278e-32
-1.81956e-30
-7.12981e-27
-3.82029e-24
-7.56594e-22
-3.6421e-20
-1.9835e-18
-2.52677e-17
-1.42156e-16
-1.7393e-16
-2.26031e-16
2.35096e-71
4.65471e-67
1.6879e-63
3.25608e-60
4.09622e-57
3.56162e-54
2.66593e-51
1.50013e-48
5.8628e-46
2.2896e-43
6.20315e-41
-9.17509e-38
-1.09409e-33
-3.58419e-30
-2.65774e-27
-8.88445e-25
-1.40653e-22
-8.15544e-21
-3.07822e-19
-3.32384e-18
-1.53357e-17
-1.38555e-17
-1.4082e-17
0
4.92148e-81
4.76317e-77
1.0534e-73
-2.25861e-70
3.61861e-68
-1.78593e-63
-1.54788e-64
-3.30948e-57
-3.512e-58
-2.08649e-59
-5.21995e-38
-2.38737e-34
-5.17834e-31
-3.06406e-28
-8.7011e-26
-1.23211e-23
-8.26896e-22
-2.33021e-20
-2.32046e-19
-9.22067e-19
-5.14932e-19
-1.85091e-19
1
0.996743
0.78836
0.785911
1
0.999748
0.998649
0.991845
0.986014
0.973203
0.928289
0.800653
0.380954
0.317668
0.180522
0.0213284
2.23679e-08
1.7277e-08
1.46146e-08
1.53533e-08
7.62119e-08
1.50969e-07
9.10307e-08
1.38182e-08
2.39682e-07
2.40358e-07
1.821e-07
3.833e-09
3.65521e-11
1.13873e-10
8.39178e-11
8.39178e-11
2.14925e-10
1.4877e-10
9.36706e-11
8.39178e-11
2.12035e-10
1.57276e-10
8.41443e-11
9.36706e-11
7.01235e-11
7.90263e-11
6.87036e-11
8.41443e-11
4.20077e-11
5.19223e-11
5.60561e-11
6.91803e-09
3.19295e-11
3.5773e-11
8.16726e-10
2.67536e-08
5.0982e-11
1.27977e-10
8.44871e-10
2.10298e-09
2.88873e-10
7.25807e-10
1.03711e-09
1.00514e-09
8.21188e-10
1.15754e-09
1.16165e-09
1.27384e-09
1.06259e-09
1.14101e-09
1.05501e-09
1.392e-09
9.73936e-10
1.02838e-09
9.61527e-10
1.01396e-09
7.43012e-10
8.97054e-10
8.87075e-10
1.09498e-09
5.99745e-10
7.06068e-10
7.97573e-10
1.12182e-09
1.45865e-09
8.08706e-10
1.14942e-09
2.33648e-09
3.32114e-09
1.62022e-09
2.55785e-09
8.207e-09
3.80357e-09
2.32731e-09
7.39967e-09
3.60525e-08
2.25167e-09
1.45379e-09
2.00817e-08
1.85101e-07
5.63199e-10
1.18391e-10
9.0279e-08
6.39148e-07
2.72688e-12
-4.28605e-10
7.48579e-06
4.15564e-06
-3.46583e-14
3.22057e-07
4.78544e-05
4.42055e-05
-3.40168e-12
5.86121e-06
5.42473e-05
5.30261e-05
-4.85219e-12
1.59538e-06
2.85134e-05
5.39253e-05
-5.79269e-12
5.87411e-25
3.73013e-09
2.98294e-05
-6.17699e-12
-4.69929e-24
1.43442e-08
1.80666e-05
-6.79898e-12
0
5.32386e-08
3.43162e-05
-7.50384e-12
-2.09562e-23
0.000432558
0.000161012
-7.1626e-12
-2.37809e-11
0.000979398
0.000408733
-5.0008e-12
2.09416e-06
0.00106076
0.000958187
-1.96221e-12
-1.27817e-17
0.00108627
0.00219135
-9.56905e-14
-1.90589e-21
0.000305148
0.00219135
-8.42509e-14
4.50234e-07
2.55923e-05
0.00219135
-6.43674e-14
8.13646e-09
-1.71563e-25
0.000306344
-3.34904e-14
-1.41448e-14
-4.77711e-15
-8.71981e-16
-8.06934e-15
-4.28642e-15
-1.66882e-15
-4.47026e-16
-4.96665e-20
-1.3211e-20
-3.82058e-21
-9.76508e-22
0.950643
0.929863
0.920689
0.862128
0.353813
0.00826085
0.000595202
8.28121e-05
1.00218e-05
1.05482e-06
9.60695e-08
7.52098e-09
4.99847e-10
2.80801e-11
1.49715e-12
4.91284e-14
1.05008e-15
8.20948e-18
2.89755e-18
0.964373
0.86751
0.876816
0.858854
0.601549
0.0870553
0.00129667
0.000187296
2.386e-05
2.62275e-06
2.48579e-07
2.016e-08
1.3837e-09
8.03344e-11
4.33595e-12
1.47606e-13
3.19147e-15
3.62488e-17
1.34594e-17
0.376699
0.132609
0.204967
0.652832
0.673536
0.240903
0.00277657
0.000307601
4.04433e-05
4.60602e-06
4.49991e-07
3.767e-08
2.66965e-09
1.59321e-10
9.29671e-12
3.32566e-13
7.39338e-15
9.87367e-17
4.47767e-17
1.86171e-08
4.83348e-08
8.70792e-08
0.086766
0.563562
0.343682
0.0168105
0.000436123
5.74273e-05
6.65458e-06
6.6747e-07
5.71589e-08
4.13131e-09
2.47802e-10
1.57257e-11
5.90525e-13
1.34886e-14
2.19517e-16
1.11406e-16
1.46146e-08
1.86171e-08
4.83348e-08
8.7079e-08
0.275077
0.324001
0.0536359
0.000519444
6.82782e-05
8.17857e-06
8.41792e-07
7.37301e-08
5.43273e-09
3.31191e-10
2.22967e-11
8.70541e-13
1.98189e-14
3.70462e-16
2.2167e-16
1.86171e-08
4.83348e-08
8.70792e-08
1.83276e-07
0.138076
0.244418
0.0466043
0.000491903
6.71914e-05
8.34424e-06
8.8974e-07
8.03267e-08
6.08553e-09
3.8234e-10
2.7243e-11
1.08164e-12
5.1628e-14
4.98856e-16
3.70554e-16
2.49959e-08
1.86616e-07
1.83276e-07
5.36018e-07
0.122768
0.11157
0.0164301
0.000314704
4.81008e-05
6.49532e-06
7.37409e-07
7.04072e-08
5.54914e-09
3.63156e-10
2.78814e-11
1.30049e-12
1.01491e-13
1.19261e-15
5.33521e-16
3.3222e-06
1.04707e-05
5.36039e-07
1.37072e-06
0.168577
0.144995
0.0177614
0.000397562
5.55952e-05
6.67774e-06
7.39685e-07
6.80521e-08
5.31868e-09
3.47137e-10
2.65817e-11
1.83111e-12
1.35088e-13
1.55509e-15
6.73692e-16
1.44834e-05
1.70791e-05
2.17066e-06
2.76953e-07
0.187001
0.191553
0.111015
0.00407201
0.000121612
1.34173e-05
1.28806e-06
1.06141e-07
7.49406e-09
4.45548e-10
2.75583e-11
1.40135e-12
8.82039e-14
9.1882e-16
7.72035e-16
1.56216e-05
1.75615e-05
3.46705e-06
5.98027e-08
0.139854
0.192184
0.18098
0.0210172
0.0002251
2.40147e-05
2.2153e-06
1.7542e-07
1.18328e-08
6.67195e-10
3.4658e-11
1.44155e-12
3.87314e-14
9.57936e-16
8.51068e-16
4.88323e-06
5.86651e-06
5.43255e-07
2.3542e-09
0.0591186
0.19022
0.183948
0.0341583
0.000254108
2.76349e-05
2.59879e-06
2.10246e-07
1.44228e-08
8.21148e-10
4.52478e-11
1.8649e-12
4.63304e-14
1.10313e-15
9.58489e-16
2.0121e-09
1.5766e-09
1.52296e-09
1.66141e-09
0.0434853
0.183948
0.165077
0.0188131
0.000194561
2.20497e-05
2.29731e-06
1.85885e-07
1.33155e-08
7.86829e-10
4.81968e-11
1.96447e-12
1.08305e-13
2.20702e-15
1.05945e-15
4.31485e-09
1.39671e-09
1.43815e-09
1.52296e-09
0.041343
0.176658
0.106533
0.00411906
0.000114159
1.36333e-05
1.67687e-06
1.43694e-07
1.0358e-08
6.83184e-10
4.62034e-11
3.08439e-12
2.71482e-13
4.47305e-15
8.43356e-16
1.35858e-09
1.37888e-09
1.39671e-09
1.43815e-09
0.0408594
0.170415
0.0843136
0.000992292
7.23209e-05
7.22052e-06
8.97197e-07
8.31416e-08
6.45467e-09
5.29771e-10
3.72617e-11
6.40662e-12
3.95254e-13
6.18513e-15
6.35499e-16
1.05284e-09
1.24017e-09
1.35592e-09
1.58829e-09
0.0745987
0.164547
0.0861319
0.00122076
6.38387e-05
6.8393e-06
6.58126e-07
5.89291e-08
4.49473e-09
3.65717e-10
2.77675e-11
6.97914e-12
4.07941e-13
6.42099e-15
4.61684e-16
1.18418e-09
1.35592e-09
1.58829e-09
2.81791e-09
0.107607
0.160836
0.130173
0.00904263
9.7895e-05
8.68359e-06
1.46319e-07
5.39366e-08
3.65389e-09
2.44791e-10
2.01199e-11
6.15835e-12
3.481e-13
6.00447e-15
3.27883e-16
1.50637e-09
1.81384e-09
2.81791e-09
9.29584e-09
0.0636005
0.159445
0.156115
0.0283878
0.000160051
1.25204e-05
1.01865e-06
2.66187e-08
3.87005e-09
1.97337e-10
1.53397e-11
3.7635e-12
2.30945e-13
4.75315e-15
2.30384e-16
7.7165e-08
6.58721e-09
9.29417e-09
4.90559e-08
0.00445988
0.131365
0.150387
0.0443709
0.00023489
1.98056e-05
1.38887e-06
8.75784e-08
3.21195e-09
2.10381e-10
1.31533e-11
1.65486e-12
1.34462e-13
3.38249e-15
1.60801e-16
2.83394e-07
6.70575e-08
4.89882e-08
2.56643e-06
3.77741e-05
0.0169386
0.0452016
0.0361761
0.00153926
2.03107e-05
1.50086e-06
9.26537e-08
4.83625e-09
2.10638e-10
1.20465e-11
9.14715e-13
8.44267e-14
2.25824e-15
1.11217e-16
2.8084e-07
1.00366e-07
1.40286e-07
0.000451034
0.00103259
0.00357745
0.0064651
0.0077818
0.00415167
3.63534e-05
1.33234e-06
8.26222e-08
4.28707e-09
1.96811e-10
1.08213e-11
1.09159e-12
7.29887e-14
1.57807e-15
7.66775e-17
1.0988e-07
2.12468e-07
1.98485e-07
1.98343e-07
0.0599153
0.0600265
0.00850636
0.00159282
0.00210552
0.000257351
1.06553e-06
6.47976e-08
3.32109e-09
1.58289e-10
8.91591e-12
1.8272e-12
7.96928e-14
1.2552e-15
5.17821e-17
3.70503e-08
1.53319e-07
1.98343e-07
1.98343e-07
0.109512
0.13198
0.0499638
0.000543828
0.000155749
0.00017175
5.24485e-06
2.45203e-08
1.76393e-09
1.2431e-10
8.42592e-12
2.19044e-12
8.05006e-14
1.08139e-15
3.35615e-17
1.36498e-07
2.13032e-07
1.98346e-07
0.0127451
0.130927
0.132824
0.114567
0.0102676
6.20367e-05
5.47736e-06
6.87184e-07
1.34286e-08
2.79017e-10
5.17108e-11
1.87604e-11
2.26501e-12
6.10298e-14
9.13229e-16
2.05539e-17
1.61855e-06
5.10796e-07
2.57561e-07
6.67712e-07
0.112826
0.133668
0.133152
0.0525515
0.000115267
6.50376e-06
3.33429e-07
1.65657e-08
4.32823e-10
2.79802e-11
2.47148e-11
1.96233e-12
4.49015e-14
7.07702e-16
1.1749e-17
2.25965e-05
3.90502e-05
7.74264e-06
2.4726e-06
0.0519495
0.132294
0.133633
0.0819188
0.000817272
1.11773e-05
4.1338e-07
1.42391e-08
5.02541e-10
2.82438e-11
2.00493e-11
1.34557e-12
3.08327e-14
4.98748e-16
6.36507e-18
2.35831e-05
0.000152565
5.28361e-05
3.79688e-06
0.00234568
0.019242
0.0290255
0.0328625
0.00602618
1.01424e-05
3.34009e-07
1.00575e-08
3.04525e-10
1.99687e-11
1.20121e-11
8.07981e-13
1.92367e-14
3.18156e-16
3.42113e-18
3.01556e-05
0.000163338
0.00016723
5.61578e-05
1.87498e-05
1.84823e-05
1.85178e-05
0.00441306
0.005308
0.000128902
3.36564e-06
6.87575e-08
1.14245e-09
3.48873e-11
7.76944e-12
4.1594e-13
1.08409e-14
1.83584e-16
1.8073e-18
3.3648e-05
0.000132115
0.000167536
0.000135944
2.05818e-05
1.86088e-05
1.85178e-05
1.86088e-05
0.00182535
0.000128737
3.44608e-06
9.12867e-08
1.29839e-09
4.9324e-11
4.88721e-12
2.09228e-13
5.62958e-15
9.68106e-17
9.07779e-19
3.2667e-05
8.11818e-05
0.000167437
5.18169e-05
2.0182e-05
1.68562e-05
1.91486e-05
1.77636e-05
3.85355e-05
3.72379e-05
6.5262e-07
4.93816e-08
1.23048e-09
4.97642e-11
2.79931e-12
1.02918e-13
2.74531e-15
4.73673e-17
4.3082e-19
2.89901e-05
2.89901e-05
0.000120637
2.25808e-05
1.68561e-05
1.36486e-05
1.31631e-05
1.43788e-05
1.57008e-05
9.22283e-06
2.0316e-08
1.61279e-08
6.58661e-10
3.38458e-11
1.48e-12
4.93663e-14
1.27446e-15
2.17951e-17
1.93436e-19
0.000142203
3.10945e-05
2.54631e-05
2.54631e-05
0.0313093
0.0196187
1.31631e-05
1.17572e-05
5.47061e-06
1.96507e-06
8.19838e-09
4.36493e-09
3.03331e-10
1.85513e-11
7.343e-13
2.29172e-14
5.67299e-16
9.5266e-18
8.2676e-20
0.000446651
9.61853e-05
2.94863e-05
2.54631e-05
0.110201
0.107768
0.0105417
7.62059e-06
1.40702e-06
-1.87398e-08
9.63917e-10
1.50075e-09
1.4867e-10
9.13903e-12
3.46043e-13
1.02828e-14
2.43794e-16
3.99338e-18
3.39036e-20
0.000444057
0.00010001
3.35513e-05
0.0457301
0.130292
0.129536
0.0569134
1.50248e-05
4.34166e-07
1.73259e-08
4.47954e-09
6.4281e-10
7.276e-11
4.37333e-12
1.59727e-13
4.5215e-15
1.02117e-16
1.62136e-18
1.34391e-20
0.000100376
9.14724e-05
0.010947
0.128039
0.131008
0.130292
0.0461552
1.16741e-05
1.57855e-06
6.94666e-09
3.136e-09
3.24844e-10
3.55939e-11
2.05989e-12
7.36498e-14
1.9948e-15
4.26307e-17
6.46786e-19
5.19435e-21
0.000133592
0.0521837
0.125587
0.131008
0.130516
0.0785446
0.011927
0.00042834
4.10324e-08
2.01724e-09
6.01579e-10
1.72348e-10
1.71432e-11
9.59038e-13
3.38597e-14
8.89857e-16
1.80548e-17
2.594e-19
1.99935e-21
0.000170851
0.0380712
0.129873
0.130033
0.111818
0.0154633
0.000401153
0.000574126
1.22408e-08
7.26317e-10
1.85993e-10
8.84165e-11
8.0817e-12
4.38366e-13
1.54258e-14
3.98825e-16
7.76719e-18
1.05793e-19
7.75319e-22
0.000183801
0.000416877
0.0607253
0.0809126
0.0229228
0.000330196
0.000110655
2.01648e-05
3.78817e-09
3.06448e-10
1.55879e-10
4.2696e-11
3.72223e-12
1.96137e-13
6.90723e-15
1.77984e-16
3.37354e-18
4.38402e-20
3.0363e-22
0.000281196
8.68233e-05
7.02295e-05
0.00133388
0.000201668
7.06148e-05
2.72723e-05
8.20052e-08
1.12368e-09
1.41713e-10
1.01052e-10
1.97861e-11
1.6817e-12
8.60685e-14
3.03207e-15
7.84244e-17
1.4658e-18
1.83964e-20
1.20174e-22
0.000557752
7.76453e-05
2.97809e-05
3.37768e-05
2.79503e-05
1.29737e-05
6.21585e-06
2.33644e-08
2.98983e-10
6.90827e-11
6.40812e-11
9.31948e-12
7.56425e-13
3.73693e-14
1.31109e-15
3.40683e-17
6.33455e-19
7.76858e-21
4.93505e-23
0.000612777
4.15458e-05
8.02376e-06
4.01747e-06
4.11001e-06
2.71966e-06
1.42785e-06
6.44478e-09
1.19701e-10
4.16385e-11
3.83618e-11
4.58718e-12
3.4227e-13
1.61522e-14
5.59765e-16
1.45524e-17
2.70063e-19
3.26058e-21
1.56656e-23
0.000710707
1.00529e-06
1.97721e-08
2.97571e-07
9.12987e-07
8.49072e-07
3.16566e-07
1.72673e-09
5.85039e-11
3.53174e-11
2.36335e-11
2.47999e-12
1.66663e-13
7.43856e-15
2.51411e-16
6.48964e-18
1.20366e-19
1.4405e-21
6.47934e-24
0.000723473
0.00031011
-7.44914e-27
1.97721e-08
4.96764e-07
4.28294e-07
1.10828e-07
4.76883e-10
4.66915e-11
3.80555e-11
1.02726e-11
9.26479e-13
5.44618e-14
2.24753e-15
7.24289e-17
1.83264e-18
3.39257e-20
4.01758e-22
6.47934e-24
)
;

boundaryField
{
    leftWall
    {
        type            zeroGradient;
    }
    rightWall
    {
        type            zeroGradient;
    }
    lowerWall
    {
        type            zeroGradient;
    }
    atmosphere
    {
        type            inletOutlet;
        inletValue      uniform 0;
        value           nonuniform List<scalar> 
46
(
0
0
0
0
0
0
0
0
0
0
0
0
0
0
0
0
0
0
0
0
0
0
0
0
0
0
0
0.000723473
0.00031011
0
1.97721e-08
4.96764e-07
4.28294e-07
1.10828e-07
4.76883e-10
4.66915e-11
3.80555e-11
1.02726e-11
9.26479e-13
5.44618e-14
2.24753e-15
7.24289e-17
1.83264e-18
3.39257e-20
4.01758e-22
6.47934e-24
)
;
    }
    defaultFaces
    {
        type            empty;
    }
}


// ************************************************************************* //
