/*--------------------------------*- C++ -*----------------------------------*\
| =========                 |                                                 |
| \\      /  F ield         | OpenFOAM: The Open Source CFD Toolbox           |
|  \\    /   O peration     | Version:  2206                                  |
|   \\  /    A nd           | Website:  www.openfoam.com                      |
|    \\/     M anipulation  |                                                 |
\*---------------------------------------------------------------------------*/
FoamFile
{
    version     2.0;
    format      ascii;
    arch        "LSB;label=32;scalar=64";
    class       volScalarField;
    location    "0.425";
    object      p;
}
// * * * * * * * * * * * * * * * * * * * * * * * * * * * * * * * * * * * * * //

dimensions      [1 -1 -2 0 0 0 0];

internalField   nonuniform List<scalar> 
2268
(
1366.38
1366.96
1368.25
1370.11
1372.57
1375.74
1379.57
1383.99
1388.89
1394.17
1399.71
1405.42
1411.16
1416.8
1422.21
1427.27
1432.29
1436.13
1439.23
1441.49
1442.67
1442.85
1440.43
1184.04
1184.63
1186.1
1188.1
1190.82
1194.28
1198.41
1203.19
1208.46
1214.13
1220.09
1226.23
1232.44
1238.59
1244.57
1250.24
1255.49
1260.1
1264
1267.01
1269.76
1271.1
1272.52
998.057
998.852
1000.78
1002.98
1006.36
1010.45
1015.24
1020.62
1026.6
1033.06
1039.86
1046.88
1054
1061.08
1067.99
1074.61
1080.81
1086.48
1091.58
1095.89
1100.08
1101.23
1104.45
807.989
809.01
811.557
814.879
819.096
824.064
829.748
836.085
843.035
850.709
858.792
867.163
875.679
884.189
892.536
900.557
908.098
915.001
921.226
926.319
931.685
932.852
936.01
613.682
614.482
618.342
623.145
628.679
634.815
641.695
649.376
657.84
666.908
676.678
686.868
697.297
707.806
718.181
728.183
737.593
746.187
753.83
760.172
765.64
768.325
771.3
416.072
413.947
421.213
428.696
435.726
442.795
450.573
459.364
469.299
480.386
492.901
505.78
519.005
532.346
545.458
558.071
569.984
580.916
590.632
598.812
605.448
609.772
612.57
215.874
213.339
219.134
229.551
238.876
248.808
259.997
271.806
284.122
296.78
309.1
323.628
339.58
356.499
373.596
390.153
405.784
420.088
432.764
443.535
452.173
458.114
461.416
56.0461
50.68
48.9042
51.8599
56.1811
60.8715
66.4612
75.3316
86.83
100.784
116.647
136.087
158.246
181.731
204.51
225.886
246.171
264.841
281.356
296.033
308.381
320.091
321.638
7.40405
7.43617
7.4707
7.47563
7.43302
7.34773
7.23656
7.11507
6.99351
6.87734
6.76973
6.67309
6.58859
6.51646
6.4566
6.40892
6.37337
6.34985
6.33821
7.19405
7.24452
7.31143
7.33348
7.28835
7.19035
7.06667
6.93553
6.80632
6.6851
6.57478
6.47677
6.39157
6.31923
6.25946
6.21193
6.17647
6.15296
6.1413
6.94025
7.02407
7.1881
7.24375
7.18334
7.05279
6.90215
6.75315
6.61213
6.48237
6.36616
6.26412
6.17626
6.10228
6.04153
5.99338
5.95749
5.93374
5.92198
6.56214
6.75153
7.04225
7.22655
7.12535
6.92258
6.73078
6.55808
6.40122
6.26097
6.13801
6.03155
5.94069
5.8647
5.80263
5.75362
5.71719
5.69315
5.68127
5.91155
6.15897
6.56006
7.1923
7.09713
6.76056
6.52534
6.33517
6.16352
6.01371
5.88513
5.77505
5.68178
5.60423
5.54126
5.49178
5.45513
5.431
5.41911
4.65204
5.18799
5.76863
6.81547
6.83251
6.48103
6.24661
6.06256
5.88661
5.73253
5.60191
5.49054
5.39656
5.31877
5.25586
5.20665
5.1703
5.1464
5.13463
2.99376
0.0399151
-6.57596
3.14305
5.77445
6.12965
5.92619
5.73189
5.56063
5.41124
5.28341
5.17423
5.08232
5.00637
4.94503
4.89713
4.86179
4.83855
4.8271
-26.9016
-45.7422
-37.144
-16.8309
3.50347
5.87277
5.65367
5.38223
5.19111
5.04938
4.92791
4.82397
4.73729
4.66577
4.60788
4.56259
4.52914
4.50711
4.49624
-1.14465
-1.15212
-1.13649
-1.1223
-1.10596
-1.10994
-1.01346
-0.230158
2.2178
5.51789
10.2039
17.7
31.6684
52.7899
77.7172
102.83
125.966
146.148
165.013
183.323
197.735
208.461
202.85
-1.26089
-1.26508
-1.25852
-1.2556
-1.25722
-1.26248
-1.26609
-1.32245
-1.30554
-1.3041
-1.41381
-1.49396
-0.374683
3.84734
13.823
30.6956
50.0735
68.6551
86.1281
105.536
121.242
132.949
141.756
-1.38354
-1.38532
-1.38547
-1.38897
-1.39415
-1.40506
-1.43054
-1.47876
-1.48969
-1.51871
-1.59499
-1.72159
-1.75797
-1.80339
-1.85829
0.914644
5.66439
14.4605
26.9966
40.7941
52.9822
62.0308
70.4744
-1.51632
-1.51754
-1.5159
-1.52033
-1.52821
-1.54161
-1.56207
-1.58828
-1.61948
-1.66256
-1.7301
-1.82904
-1.93736
-1.97114
-2.04371
-2.09419
-2.10919
-2.15593
-1.08715
1.28258
5.93855
10.5985
14.7135
-1.64617
-1.64613
-1.6445
-1.64909
-1.65799
-1.672
-1.69167
-1.71685
-1.74759
-1.78507
-1.83671
-1.90161
-1.96757
-2.03028
-2.11872
-2.228
-2.2559
-2.33103
-2.41829
-2.42412
-2.4731
-2.56184
-2.63919
-1.77335
-1.77354
-1.77188
-1.77609
-1.78507
-1.79885
-1.81744
-1.84072
-1.86898
-1.90337
-1.94623
-1.99716
-2.0517
-2.10451
-2.16202
-2.2222
-2.27652
-2.34063
-2.43891
-2.50586
-2.54962
-2.61401
-2.68406
-1.8991
-1.89927
-1.89783
-1.90151
-1.9101
-1.92323
-1.94057
-1.96196
-1.98767
-2.01843
-2.05517
-2.09777
-2.14457
-2.19361
-2.24623
-2.30376
-2.35999
-2.41608
-2.48071
-2.53635
-2.58227
-2.63943
-2.70462
-2.02332
-2.02358
-2.02245
-2.02568
-2.03368
-2.04594
-2.06191
-2.08138
-2.10455
-2.13194
-2.16408
-2.20102
-2.24207
-2.28615
-2.33302
-2.38239
-2.43242
-2.4837
-2.53964
-2.59569
-2.64607
-2.69555
-2.74623
-2.14646
-2.14669
-2.14595
-2.1489
-2.1563
-2.16758
-2.18212
-2.19969
-2.22045
-2.24486
-2.27331
-2.30593
-2.34232
-2.38177
-2.42364
-2.46749
-2.51275
-2.55929
-2.60748
-2.6555
-2.70083
-2.74527
-2.79067
-2.269
-2.2691
-2.26863
-2.27144
-2.2783
-2.28859
-2.30169
-2.31741
-2.33595
-2.35771
-2.38309
-2.41219
-2.44475
-2.48012
-2.51759
-2.55661
-2.59689
-2.63837
-2.68101
-2.72391
-2.76556
-2.80573
-2.84474
-2.39109
-2.39115
-2.39079
-2.39352
-2.39994
-2.40927
-2.42098
-2.43495
-2.45142
-2.47082
-2.49354
-2.51969
-2.54896
-2.5807
-2.61418
-2.64886
-2.68462
-2.72154
-2.75946
-2.79758
-2.83481
-2.87062
-2.90488
-2.5127
-2.51278
-2.51254
-2.51529
-2.52136
-2.52984
-2.54024
-2.55256
-2.56713
-2.58439
-2.60475
-2.6283
-2.65469
-2.68322
-2.7131
-2.74384
-2.77543
-2.80807
-2.84162
-2.87539
-2.90851
-2.94047
-2.97075
-2.63377
-2.63389
-2.63391
-2.63682
-2.64267
-2.65042
-2.65967
-2.67051
-2.68332
-2.6986
-2.71679
-2.73799
-2.7618
-2.78743
-2.81404
-2.8412
-2.869
-2.89777
-2.92741
-2.95724
-2.98649
-3.01481
-3.04168
-2.75428
-2.75441
-2.75488
-2.75814
-2.76391
-2.77111
-2.77939
-2.78894
-2.80017
-2.81364
-2.82981
-2.84883
-2.87028
-2.89328
-2.91693
-2.9408
-2.96515
-2.99048
-3.01676
-3.04323
-3.06904
-3.09396
-3.11771
-2.87424
-2.87437
-2.87547
-2.87925
-2.8851
-2.89192
-2.89945
-2.90793
-2.91778
-2.92959
-2.94391
-2.96091
-2.9802
-3.00083
-3.0218
-3.04267
-3.06383
-3.08604
-3.10943
-3.13315
-3.15615
-3.17808
-3.19889
-2.99372
-2.99385
-2.99572
-3.00018
-3.00623
-3.01285
-3.01984
-3.02746
-3.03614
-3.04647
-3.05907
-3.07423
-3.0916
-3.11017
-3.12882
-3.14704
-3.16529
-3.18458
-3.20534
-3.22676
-3.24749
-3.2669
-3.28494
-3.11286
-3.11298
-3.11572
-3.12096
-3.12732
-3.13389
-3.14056
-3.14755
-3.15525
-3.16427
-3.17531
-3.18879
-3.20445
-3.22132
-3.23814
-3.25422
-3.26999
-3.28664
-3.30493
-3.32421
-3.34299
-3.36025
-3.37575
-3.23181
-3.23195
-3.23562
-3.24166
-3.24838
-3.25505
-3.2616
-3.26818
-3.27513
-3.28303
-3.29266
-3.3046
-3.31875
-3.33424
-3.34973
-3.36433
-3.37827
-3.39277
-3.40882
-3.42606
-3.44299
-3.45832
-3.47154
-3.35079
-3.35095
-3.35556
-3.36233
-3.36942
-3.37629
-3.38289
-3.3893
-3.39576
-3.40278
-3.41121
-3.42174
-3.43453
-3.44884
-3.46339
-3.47712
-3.48998
-3.50302
-3.5173
-3.5327
-3.54786
-3.56141
-3.5727
-3.47003
-3.47024
-3.47568
-3.48305
-3.49044
-3.49754
-3.50434
-3.51081
-3.51706
-3.52352
-3.53101
-3.54037
-3.5519
-3.56515
-3.57897
-3.59222
-3.60461
-3.6169
-3.63003
-3.64401
-3.65767
-3.66974
-3.67962
-3.58975
-3.59004
-3.59614
-3.60391
-3.61146
-3.61878
-3.62586
-3.63257
-3.63888
-3.64513
-3.65208
-3.66057
-3.67107
-3.68336
-3.69649
-3.7094
-3.72165
-3.73371
-3.74629
-3.75942
-3.77211
-3.78331
-3.79267
-3.71009
-3.71053
-3.71707
-3.72497
-3.73254
-3.73999
-3.74737
-3.75443
-3.76105
-3.76746
-3.7743
-3.78236
-3.79218
-3.80368
-3.81617
-3.82872
-3.84089
-3.85295
-3.86542
-3.87828
-3.89074
-3.90208
-3.9122
-3.83114
-3.83178
-3.83851
-3.84631
-3.85374
-3.86124
-3.86887
-3.87633
-3.88342
-3.89028
-3.89745
-3.90558
-3.91518
-3.92624
-3.93822
-3.95041
-3.96243
-3.97451
-3.98712
-4.00022
-4.01331
-4.02605
-4.03853
-3.95281
-3.9537
-3.96045
-3.96796
-3.97512
-3.9826
-3.9904
-3.99823
-4.00585
-4.01338
-4.02122
-4.02989
-4.03976
-4.05081
-4.06257
-4.07451
-4.0864
-4.09853
-4.11144
-4.12527
-4.13982
-4.15526
-4.17169
-4.07497
-4.07613
-4.08284
-4.08992
-4.09676
-4.10415
-4.11203
-4.12014
-4.12829
-4.13657
-4.1453
-4.15484
-4.16542
-4.17688
-4.1888
-4.20074
-4.21266
-4.22502
-4.23851
-4.25353
-4.27027
-4.28937
-4.31089
-4.19749
-4.19892
-4.20558
-4.2122
-4.21871
-4.22595
-4.23383
-4.24211
-4.25071
-4.25974
-4.26943
-4.28002
-4.29155
-4.30374
-4.31615
-4.32844
-4.3407
-4.35362
-4.36811
-4.38481
-4.4042
-4.42728
-4.45411
-4.32025
-4.322
-4.32864
-4.33483
-4.34101
-4.34807
-4.35585
-4.36421
-4.37317
-4.38286
-4.39346
-4.40509
-4.41764
-4.43073
-4.44386
-4.45676
-4.46971
-4.4836
-4.49953
-4.5183
-4.54046
-4.56703
-4.59828
-4.44324
-4.44539
-4.45197
-4.45779
-4.46367
-4.47052
-4.47816
-4.48653
-4.49574
-4.50596
-4.51734
-4.52989
-4.5434
-4.55736
-4.57129
-4.58498
-4.5989
-4.61407
-4.63173
-4.6527
-4.67728
-4.70619
-4.73995
-4.56651
-4.56912
-4.57557
-4.58109
-4.58668
-4.59334
-4.6008
-4.60913
-4.61851
-4.62914
-4.64112
-4.65442
-4.66871
-4.68344
-4.69814
-4.71269
-4.72773
-4.74434
-4.76377
-4.78666
-4.81291
-4.84271
-4.87657
-4.69011
-4.69324
-4.6994
-4.70467
-4.71003
-4.71648
-4.72378
-4.73206
-4.74156
-4.75248
-4.76493
-4.77878
-4.79365
-4.809
-4.8244
-4.83985
-4.85608
-4.87411
-4.89514
-4.91941
-4.94641
-4.97598
-5.0078
-4.81405
-4.81772
-4.82342
-4.82849
-4.83364
-4.83992
-4.84708
-4.85532
-4.86492
-4.87608
-4.88886
-4.90311
-4.9184
-4.93424
-4.95027
-4.96663
-4.98406
-5.00347
-5.02582
-5.05091
-5.07808
-5.10723
-5.13624
-4.93827
-4.94245
-4.94753
-4.95246
-4.95744
-4.96357
-4.97063
-4.97887
-4.98858
-4.99995
-5.013
-5.02754
-5.04315
-5.05938
-5.076
-5.09329
-5.11194
-5.13268
-5.15615
-5.18174
-5.20902
-5.23848
-5.26595
-5.0626
-5.06722
-5.07161
-5.07644
-5.08128
-5.08731
-5.09433
-5.10261
-5.11246
-5.12405
-5.13736
-5.15215
-5.16802
-5.18461
-5.20181
-5.22001
-5.23986
-5.26198
-5.28651
-5.31274
-5.34048
-5.37123
-5.40018
-5.18678
-5.19178
-5.19544
-5.20021
-5.20495
-5.21093
-5.21798
-5.22636
-5.2364
-5.24823
-5.2618
-5.27686
-5.29302
-5.30997
-5.32774
-5.34678
-5.36778
-5.39122
-5.41688
-5.44431
-5.47286
-5.50598
-5.53788
-5.31056
-5.31584
-5.31881
-5.32354
-5.32825
-5.33424
-5.34138
-5.34993
-5.36019
-5.37229
-5.38616
-5.40153
-5.41802
-5.43538
-5.45371
-5.47351
-5.49546
-5.52
-5.54672
-5.57565
-5.60508
-5.6419
-5.67468
-5.43379
-5.43927
-5.44163
-5.44637
-5.45112
-5.45718
-5.46447
-5.47326
-5.48379
-5.49619
-5.51038
-5.5261
-5.54301
-5.56087
-5.57982
-5.60034
-5.6231
-5.64841
-5.67591
-5.70577
-5.73556
-5.77537
-5.80447
-5.55646
-5.56216
-5.56405
-5.5688
-5.57369
-5.57989
-5.58742
-5.59649
-5.60734
-5.62007
-5.63461
-5.65073
-5.66813
-5.68664
-5.70639
-5.72782
-5.75148
-5.77758
-5.80581
-5.83595
-5.86572
-5.90449
-5.92544
-5.67818
-5.68414
-5.68575
-5.69053
-5.69563
-5.70206
-5.70989
-5.71931
-5.73051
-5.74359
-5.75848
-5.77501
-5.79295
-5.81223
-5.83301
-5.85568
-5.88065
-5.90804
-5.93755
-5.96856
-5.99956
-6.0352
-6.05166
-5.79754
-5.80373
-5.80528
-5.81006
-5.81546
-5.82218
-5.83035
-5.84012
-5.85164
-5.86498
-5.88012
-5.89695
-5.91537
-5.93543
-5.95734
-5.98145
-6.00805
-6.03717
-6.06857
-6.10179
-6.13639
-6.17272
-6.19775
-5.91358
-5.91964
-5.92147
-5.92628
-5.93202
-5.93907
-5.94757
-5.95764
-5.96938
-5.98284
-5.99806
-6.01503
-6.03378
-6.05447
-6.07738
-6.10278
-6.13084
-6.16157
-6.19496
-6.23121
-6.27096
-6.31376
-6.35666
-6.02917
-6.03494
-6.03754
-6.04252
-6.04865
-6.05611
-6.065
-6.07539
-6.08737
-6.10103
-6.11646
-6.13373
-6.15296
-6.17436
-6.19817
-6.22462
-6.25393
-6.28633
-6.32219
-6.36227
-6.40783
-6.45998
-6.52107
-6.14895
-6.15645
-6.15965
-6.16497
-6.17159
-6.17959
-6.18904
-6.20001
-6.2126
-6.22691
-6.24311
-6.26134
-6.28173
-6.30444
-6.32964
-6.35763
-6.38883
-6.42382
-6.46334
-6.50828
-6.55999
-6.62086
-6.69605
167.982
193.864
190.825
147.854
141.959
135.914
125.405
105.296
74.153
67.6979
56.9491
40.6705
17.0126
13.6423
6.3302
-1.75958
-2.70253
-2.78036
-2.87123
-2.92495
-2.7486
-2.8158
-2.88499
-2.93939
-2.76423
-2.81787
-2.87053
-2.91457
-2.79717
-2.84637
-2.89126
-2.928
-2.83747
-2.88165
-2.91997
-2.95102
-2.88436
-2.92243
-2.95603
-2.9839
-2.93947
-2.97286
-3.00195
-3.02599
-3.00083
-3.02952
-3.05423
-3.07428
-3.06811
-3.09283
-3.11358
-3.12963
-3.14094
-3.16197
-3.17873
-3.19071
-3.21909
-3.2366
-3.24928
-3.25649
-3.30212
-3.31609
-3.32473
-3.32675
-3.38993
-3.40041
-3.40529
-3.40304
-3.48295
-3.49037
-3.49218
-3.48751
-3.58189
-3.58716
-3.58756
-3.58306
-3.68749
-3.69203
-3.69344
-3.69265
-3.8005
-3.80618
-3.8113
-3.81845
-3.92166
-3.9306
-3.94278
-3.96192
-4.05151
-4.06603
-4.08912
-4.12382
-4.19002
-4.21279
-4.24993
-4.30546
-4.33606
-4.36933
-4.42223
-4.50546
-4.48674
-4.53078
-4.59909
-4.71232
-4.63721
-4.68992
-4.77045
-4.90535
-4.78209
-4.83944
-4.92384
-5.05717
-4.91804
-4.97434
-5.04974
-5.15569
-5.04559
-5.09458
-5.15215
-5.22341
-5.17118
-5.20888
-5.25144
-5.30379
-5.30475
-5.32904
-5.38117
-5.4498
-5.45079
-5.46947
-5.5855
-5.73768
-5.59995
-5.62618
-5.84103
-6.14406
-5.74193
-5.76549
-5.98794
-6.39644
-5.87678
-5.88908
-6.06168
-6.29186
-5.997
-5.9777
-6.14433
-6.16867
-6.10953
-6.05022
-6.20665
-5.94741
-6.24221
-6.19433
-6.28673
-5.95864
-6.40591
-6.42823
-6.43497
-6.24043
-6.59787
-6.70528
-6.75119
-6.91805
-6.8033
-6.97211
-7.1941
-8.11446
9.59236
-17.7783
-21.6878
-20.5034
-1.43
5.32015
5.43821
5.01774
4.82744
4.72083
4.61363
4.51841
4.43963
4.37429
4.32094
4.27901
4.24793
4.22742
4.21728
42.7932
17.4849
-0.79601
-19.1888
-12.8252
3.02557
5.31654
4.70659
4.51697
4.45985
4.37053
4.28333
4.21184
4.15205
4.10271
4.06376
4.03482
4.01568
4.00621
14.9867
3.32634
7.39538
-5.87823
-17.7186
2.98642
5.04689
4.37321
4.19825
4.18568
4.11544
4.03757
3.97435
3.92085
3.8761
3.84058
3.8141
3.79657
3.78791
-3.13467
-3.11664
-2.8087
-1.13929
-14.8127
-2.48022
3.57056
3.93432
3.88947
3.9002
3.84842
3.78207
3.72788
3.68119
3.64152
3.60982
3.5861
3.57041
3.56268
-3.03219
-3.113
-3.07366
-3.32152
-4.31455
-4.25036
2.44479
3.55827
3.62068
3.61417
3.57245
3.51819
3.47297
3.43337
3.39926
3.37174
3.35105
3.33735
3.33059
-2.99945
-3.04209
-3.06382
-3.13095
-2.9679
0.458807
3.23471
3.44868
3.41697
3.33822
3.29056
3.24712
3.21017
3.17791
3.14986
3.12686
3.10935
3.09768
3.0919
-2.95608
-2.98054
-3.00542
-3.04976
-2.76886
0.630892
3.07294
3.46817
3.25764
3.05577
3.00058
2.96876
2.93981
2.91542
2.89392
2.87573
2.86153
2.8519
2.84708
-2.9636
-2.98637
-3.01344
-3.02617
-2.08553
0.204696
3.27322
3.45842
3.03078
2.73433
2.69668
2.68155
2.66198
2.64653
2.63201
2.61885
2.60809
2.60056
2.59671
-2.98083
-2.99392
-3.03562
-3.02557
-2.30884
-0.85491
1.42953
2.82355
2.50155
2.3207
2.36974
2.3831
2.37713
2.37212
2.36483
2.35676
2.34951
2.34414
2.34135
-3.01048
-3.02041
-3.05778
-3.06098
-2.94321
-1.38828
-0.806825
0.908454
1.61976
1.86174
2.02828
2.07505
2.0874
2.09356
2.09325
2.0901
2.0863
2.08313
2.08149
-3.04875
-3.05836
-3.08474
-3.1012
-3.08112
-1.72587
-1.40197
0.233454
0.950492
1.47293
1.69919
1.76746
1.797
1.81263
1.81837
1.81966
1.81904
1.81806
1.8176
-3.09308
-3.09853
-3.10868
-3.12422
-3.04898
-1.48161
-0.18049
0.656652
0.880801
1.23936
1.4052
1.47202
1.50993
1.5309
1.54124
1.54625
1.54846
1.54951
1.55014
-3.14351
-3.14638
-3.14265
-3.14369
-3.04405
-1.15475
0.449992
0.920426
1.06851
1.10292
1.14539
1.19226
1.22711
1.24913
1.26256
1.27059
1.27524
1.2781
1.27968
-3.19925
-3.19851
-3.19082
-3.18356
-3.19223
-1.57379
0.569024
1.0329
1.10376
0.937614
0.895925
0.919941
0.945987
0.966984
0.982566
0.99314
1.00001
1.00448
1.00684
-3.25938
-3.24792
-3.24323
-3.25207
-3.41132
-2.79926
0.309818
0.907723
0.930024
0.700663
0.632582
0.643742
0.662834
0.683519
0.701144
0.714186
0.723282
0.729275
0.732338
-3.32356
-3.29433
-3.26749
-3.30977
-3.36462
-3.93292
-1.30203
0.233458
0.554006
0.387459
0.341375
0.356067
0.374982
0.397838
0.418164
0.433974
0.445474
0.453056
0.456872
-3.39327
-3.34942
-3.27717
-3.2872
-2.73459
-2.73385
-2.6424
-0.806423
0.0502684
0.0139822
0.0216848
0.0552295
0.0816818
0.109642
0.133771
0.152864
0.167023
0.176364
0.181087
-3.47164
-3.42147
-3.33078
-3.27665
-2.69492
0.0529938
0.0939049
-0.672165
-0.232645
-0.357971
-0.309183
-0.254435
-0.215863
-0.180575
-0.151511
-0.128588
-0.111545
-0.100243
-0.0944319
-3.56621
-3.51514
-3.42541
-3.27071
-2.79829
-1.86418
-0.00222881
-0.980229
-0.819247
-0.719177
-0.638393
-0.567837
-0.515527
-0.471764
-0.436883
-0.409673
-0.389584
-0.376165
-0.369135
-3.68508
-3.64985
-3.56964
-3.2966
-2.63627
-1.83047
-1.59249
-1.63135
-1.73476
-1.10629
-0.96892
-0.881552
-0.815141
-0.7627
-0.721442
-0.689628
-0.666379
-0.650755
-0.642469
-3.82827
-3.82483
-3.7897
-3.48732
-3.89183
-3.7012
-1.87078
-1.69254
-1.7396
-1.42554
-1.29028
-1.18973
-1.1128
-1.05222
-1.00433
-0.967718
-0.941202
-0.923342
-0.913846
-3.99386
-4.0131
-3.98663
-3.76428
-2.46354
-2.36824
-2.08016
-1.72428
-1.69119
-1.68169
-1.59175
-1.49056
-1.40763
-1.33942
-1.28481
-1.24328
-1.21337
-1.19327
-1.18265
-4.18553
-4.20272
-4.16592
-4.06234
-2.48451
-1.96509
-3.06606
-2.01017
-1.69818
-1.8875
-1.87992
-1.78638
-1.69939
-1.62361
-1.56224
-1.51568
-1.48228
-1.45994
-1.44828
-4.4021
-4.41992
-4.35086
-4.25533
-2.96711
-3.4586
-3.56772
-2.7415
-1.91412
-2.19997
-2.19134
-2.08476
-1.98922
-1.90432
-1.83593
-1.78428
-1.74733
-1.72278
-1.71015
-4.63582
-4.67857
-4.52044
-4.32657
-3.35782
0.428027
-0.114367
-2.1914
-2.57699
-2.72904
-2.54144
-2.39335
-2.27835
-2.18103
-2.10508
-2.04834
-2.00793
-1.98127
-1.96774
-4.88404
-4.96452
-4.76528
-4.5732
-4.64325
-3.80194
-3.38711
-4.60843
-4.16272
-3.33162
-2.91493
-2.70967
-2.56394
-2.4523
-2.36863
-2.30708
-2.26348
-2.23491
-2.22059
-5.11497
-5.22656
-5.01999
-4.7242
-4.73162
-4.75118
-4.84012
-5.01944
-5.16899
-3.76812
-3.27768
-3.01231
-2.83895
-2.71544
-2.62518
-2.55965
-2.51341
-2.48328
-2.46831
-5.27688
-5.39677
-5.19812
-4.80615
-4.6823
-4.72025
-4.84143
-4.95371
-4.98172
-4.02145
-3.567
-3.2777
-3.09654
-2.9672
-2.87325
-2.80529
-2.75723
-2.72602
-2.71062
-5.3329
-5.43431
-5.27524
-4.91963
-4.67167
-4.70554
-4.77234
-4.82872
-4.67025
-4.10277
-3.76195
-3.50082
-3.33331
-3.20547
-3.1119
-3.04346
-2.99466
-2.96295
-2.94737
-5.31909
-5.372
-5.29161
-5.1253
-4.90542
-4.75796
-4.64121
-4.64042
-4.47083
-4.13166
-3.90519
-3.6973
-3.54834
-3.43033
-3.34095
-3.27398
-3.22558
-3.19402
-3.17856
-5.32919
-5.29876
-5.32065
-5.38703
-6.36811
-5.44735
-4.48548
-4.40171
-4.34685
-4.18145
-4.03872
-3.87831
-3.7504
-3.64424
-3.56109
-3.49707
-3.45013
-3.41937
-3.4043
-5.43909
-5.35994
-5.33875
-5.30667
-6.86095
-6.48334
-4.46197
-4.08934
-4.29188
-4.26643
-4.17877
-4.05371
-3.94426
-3.84984
-3.77343
-3.71329
-3.66862
-3.63923
-3.6248
-5.68714
-5.52908
-5.45037
-5.92496
-6.19193
-5.32759
-4.197
-4.1685
-4.37826
-4.39837
-4.33165
-4.22875
-4.13312
-4.04894
-3.97915
-3.92332
-3.88151
-3.854
-3.84033
-6.08449
-5.93858
-6.06907
-6.008
-5.88086
-4.99324
-4.51462
-4.87001
-4.63187
-4.58759
-4.50042
-4.40536
-4.31854
-4.24272
-4.17915
-4.12787
-4.08935
-4.06412
-4.05129
-6.62232
-8.40558
-9.91053
-6.36104
-5.83422
-4.77737
-5.66521
-5.4112
-4.91118
-4.79536
-4.67653
-4.58171
-4.50053
-4.4317
-4.37407
-4.32757
-4.29264
-4.26986
-4.25836
-6.47584
-5.54006
-4.83839
-3.96492
-4.20043
-5.44202
-5.95627
-5.55991
-5.1209
-4.97453
-4.84561
-4.75335
-4.67804
-4.61597
-4.5644
-4.52298
-4.49195
-4.47178
-4.46192
-5.97405
-6.09839
-2.89487
-2.40734
-5.13689
-5.89108
-5.86021
-5.578
-5.26321
-5.11759
-5.00113
-4.9172
-4.85016
-4.79558
-4.75058
-4.71465
-4.68785
-4.67044
-4.66236
-5.79044
-5.9347
-5.89632
-5.99116
-5.96695
-5.96533
-5.85266
-5.59312
-5.36566
-5.23983
-5.14468
-5.07337
-5.01692
-4.9709
-4.93315
-4.90315
-4.88086
-4.86637
-4.8601
-5.85843
-5.72567
-5.93364
-5.98461
-5.96885
-5.93942
-5.81631
-5.61124
-5.45188
-5.35284
-5.27987
-5.22359
-5.17911
-5.14262
-5.11276
-5.08912
-5.07159
-5.06016
-5.05562
-6.27138
-5.73347
-5.823
-5.92044
-5.8823
-5.84126
-5.75181
-5.62522
-5.52936
-5.46055
-5.40996
-5.36985
-5.33801
-5.31168
-5.29014
-5.27311
-5.26052
-5.25231
-5.24923
-7.34002
-6.0547
-5.65455
-5.82806
-5.7648
-5.75845
-5.70943
-5.64837
-5.60242
-5.5644
-5.53629
-5.51306
-5.49441
-5.47882
-5.46601
-5.45588
-5.44841
-5.44359
-5.44171
-8.74924
-6.84341
-5.9031
-5.73362
-5.70461
-5.7319
-5.71534
-5.70119
-5.68844
-5.67631
-5.66695
-5.65873
-5.65204
-5.64638
-5.64174
-5.63807
-5.63538
-5.63366
-5.63302
)
;

boundaryField
{
    leftWall
    {
        type            calculated;
        value           nonuniform List<scalar> 
50
(
1366.38
1184.04
998.057
807.989
613.682
416.072
215.874
56.0461
-1.14465
-1.26089
-1.38354
-1.51632
-1.64617
-1.77335
-1.8991
-2.02332
-2.14646
-2.269
-2.39109
-2.5127
-2.63377
-2.75428
-2.87424
-2.99372
-3.11286
-3.23181
-3.35079
-3.47003
-3.58975
-3.71009
-3.83114
-3.95281
-4.07497
-4.19749
-4.32025
-4.44324
-4.56651
-4.69011
-4.81405
-4.93827
-5.0626
-5.18678
-5.31056
-5.43379
-5.55646
-5.67818
-5.79754
-5.91358
-6.02917
-6.14895
)
;
    }
    rightWall
    {
        type            calculated;
        value           nonuniform List<scalar> 
50
(
6.33821
6.1413
5.92198
5.68127
5.41911
5.13463
4.8271
4.49624
4.21728
4.00621
3.78791
3.56268
3.33059
3.0919
2.84708
2.59671
2.34135
2.08149
1.8176
1.55014
1.27968
1.00684
0.732338
0.456872
0.181087
-0.0944319
-0.369135
-0.642469
-0.913846
-1.18265
-1.44828
-1.71015
-1.96774
-2.22059
-2.46831
-2.71062
-2.94737
-3.17856
-3.4043
-3.6248
-3.84033
-4.05129
-4.25836
-4.46192
-4.66236
-4.8601
-5.05562
-5.24923
-5.44171
-5.63302
)
;
    }
    lowerWall
    {
        type            calculated;
        value           nonuniform List<scalar> 
62
(
1455.89
1456.48
1457.77
1459.63
1462.08
1465.25
1469.09
1473.51
1478.41
1483.68
1489.23
1494.94
1500.68
1506.32
1511.73
1516.78
1521.81
1525.64
1528.74
1531.01
1532.19
1529.52
1516.87
1440.43
1272.52
1104.45
936.01
771.3
612.57
461.416
321.638
219.134
244.85
231.162
188.066
7.40405
7.19405
6.94025
6.56214
5.91155
4.65204
2.99376
-26.9016
7.49356
7.52569
7.56022
7.56514
7.52254
7.43725
7.32607
7.20459
7.08302
6.96686
6.85925
6.7626
6.6781
6.60598
6.54612
6.49844
6.46289
6.43937
6.42773
)
;
    }
    atmosphere
    {
        type            calculated;
        value           nonuniform List<scalar> 
46
(
-6.21242
-6.2246
-6.22672
-6.2323
-6.23925
-6.24765
-6.25756
-6.26904
-6.28222
-6.29723
-6.31425
-6.33345
-6.35495
-6.37887
-6.40537
-6.43477
-6.46762
-6.50469
-6.54674
-6.59452
-6.64912
-6.71282
-6.79149
-6.90648
-7.05282
-7.31046
-8.65996
-9.8697
-7.5039
-6.04637
-5.72915
-5.73188
-5.73149
-5.72967
-5.72904
-5.72904
-5.72904
-5.72904
-5.72904
-5.72904
-5.72904
-5.72904
-5.72904
-5.72904
-5.72904
-5.72904
)
;
    }
    defaultFaces
    {
        type            empty;
    }
}


// ************************************************************************* //
