/*--------------------------------*- C++ -*----------------------------------*\
| =========                 |                                                 |
| \\      /  F ield         | OpenFOAM: The Open Source CFD Toolbox           |
|  \\    /   O peration     | Version:  2206                                  |
|   \\  /    A nd           | Website:  www.openfoam.com                      |
|    \\/     M anipulation  |                                                 |
\*---------------------------------------------------------------------------*/
FoamFile
{
    version     2.0;
    format      ascii;
    arch        "LSB;label=32;scalar=64";
    class       surfaceScalarField;
    location    "0.05";
    object      phi;
}
// * * * * * * * * * * * * * * * * * * * * * * * * * * * * * * * * * * * * * //

dimensions      [0 3 -1 0 0 0 0];

oriented        oriented;

internalField   nonuniform List<scalar> 
4432
(
3.19411e-06
-3.19411e-06
6.58023e-06
-3.38608e-06
9.99562e-06
-3.41541e-06
1.35549e-05
-3.55926e-06
1.73307e-05
-3.77584e-06
2.1405e-05
-4.0743e-06
2.5885e-05
-4.47997e-06
3.09178e-05
-5.03277e-06
3.67275e-05
-5.80968e-06
4.36071e-05
-6.87962e-06
5.23417e-05
-8.73462e-06
6.28986e-05
-1.05568e-05
7.73682e-05
-1.44696e-05
9.43801e-05
-1.7012e-05
0.00010876
-1.43794e-05
0.000110885
-2.12528e-06
0.000105157
5.72828e-06
8.6715e-05
1.84419e-05
6.32397e-05
2.34757e-05
4.35875e-05
1.96508e-05
2.74514e-05
1.61357e-05
1.33365e-05
1.41154e-05
1.33354e-05
3.19055e-06
-6.38467e-06
6.56922e-06
-6.76473e-06
9.97751e-06
-6.82371e-06
1.3527e-05
-7.10871e-06
1.7289e-05
-7.5379e-06
2.13437e-05
-8.12897e-06
2.57953e-05
-8.93157e-06
3.07872e-05
-1.00247e-05
3.65201e-05
-1.15425e-05
4.33244e-05
-1.36839e-05
5.16643e-05
-1.70745e-05
6.16493e-05
-2.05419e-05
7.53969e-05
-2.82172e-05
9.36956e-05
-3.53107e-05
0.000114879
-3.55631e-05
0.000132478
-1.97241e-05
0.000131096
7.11049e-06
0.000110033
3.95049e-05
7.83485e-05
5.51592e-05
5.02571e-05
4.7742e-05
3.03487e-05
3.60426e-05
1.4766e-05
2.96999e-05
2.81004e-05
3.17271e-06
-9.5574e-06
6.52728e-06
-1.01193e-05
9.91067e-06
-1.02071e-05
1.34305e-05
-1.06285e-05
1.71553e-05
-1.12627e-05
2.11606e-05
-1.21343e-05
2.55443e-05
-1.33152e-05
3.04379e-05
-1.49183e-05
3.60172e-05
-1.71218e-05
4.25859e-05
-2.02527e-05
5.04383e-05
-2.49268e-05
6.03061e-05
-3.04097e-05
7.51076e-05
-4.30187e-05
9.25224e-05
-5.27256e-05
0.000104401
-4.74417e-05
0.000114765
-3.00886e-05
0.000109417
1.24586e-05
8.69913e-05
6.19303e-05
6.13502e-05
8.07993e-05
4.17642e-05
6.73284e-05
2.72014e-05
5.06043e-05
1.38356e-05
4.30661e-05
4.19355e-05
3.1455e-06
-1.27029e-05
6.46456e-06
-1.34384e-05
9.8109e-06
-1.35534e-05
1.3287e-05
-1.41046e-05
1.69571e-05
-1.49327e-05
2.08905e-05
-1.60677e-05
2.51755e-05
-1.76002e-05
2.99271e-05
-1.96699e-05
3.52932e-05
-2.24879e-05
4.15204e-05
-2.64799e-05
4.8797e-05
-3.22034e-05
5.78002e-05
-3.94129e-05
7.0835e-05
-5.60534e-05
8.3723e-05
-6.56136e-05
9.04327e-05
-5.41514e-05
8.93319e-05
-2.89878e-05
7.53497e-05
2.64402e-05
5.60104e-05
8.12696e-05
4.35113e-05
9.32993e-05
3.45942e-05
7.62456e-05
2.46712e-05
6.0525e-05
1.32584e-05
5.44794e-05
5.51937e-05
3.10926e-06
-1.58122e-05
6.38186e-06
-1.6711e-05
9.67962e-06
-1.68511e-05
1.30987e-05
-1.75238e-05
1.6698e-05
-1.8532e-05
2.05392e-05
-1.99089e-05
2.46987e-05
-2.17596e-05
2.92723e-05
-2.42436e-05
3.43746e-05
-2.75903e-05
4.01874e-05
-3.22926e-05
4.6789e-05
-3.8805e-05
5.4654e-05
-4.72779e-05
6.51051e-05
-6.65046e-05
7.51568e-05
-7.56652e-05
7.76615e-05
-5.66563e-05
6.56177e-05
-1.69444e-05
4.56678e-05
4.63904e-05
3.43445e-05
9.25932e-05
3.28689e-05
9.47745e-05
2.99682e-05
7.91453e-05
2.29856e-05
6.75065e-05
1.31762e-05
6.42895e-05
6.83695e-05
3.06434e-06
-1.88765e-05
6.28044e-06
-1.99271e-05
9.51897e-06
-2.00897e-05
1.2869e-05
-2.08738e-05
1.63831e-05
-2.20461e-05
2.01148e-05
-2.36406e-05
2.41268e-05
-2.57716e-05
2.84949e-05
-2.86116e-05
3.32967e-05
-3.23921e-05
3.86538e-05
-3.76497e-05
4.45231e-05
-4.46744e-05
5.12491e-05
-5.40038e-05
5.94809e-05
-7.47364e-05
6.74126e-05
-8.35969e-05
6.52734e-05
-5.45169e-05
4.54423e-05
2.88697e-06
2.68229e-05
6.501e-05
2.47355e-05
9.46794e-05
2.80341e-05
9.14747e-05
2.71563e-05
8.00237e-05
2.2098e-05
7.25643e-05
1.37684e-05
7.26189e-05
8.21372e-05
3.01199e-06
-2.18885e-05
6.16258e-06
-2.30777e-05
9.33286e-06
-2.32599e-05
1.2604e-05
-2.4145e-05
1.60216e-05
-2.54637e-05
1.96308e-05
-2.72498e-05
2.34809e-05
-2.96218e-05
2.76273e-05
-3.2758e-05
3.21143e-05
-3.68792e-05
3.7006e-05
-4.25414e-05
4.21246e-05
-4.97931e-05
4.7733e-05
-5.96123e-05
5.41896e-05
-8.1193e-05
5.99728e-05
-8.938e-05
5.34725e-05
-4.80166e-05
3.0693e-05
2.56665e-05
1.87716e-05
7.69311e-05
2.17216e-05
9.1729e-05
2.55304e-05
8.76655e-05
2.54518e-05
8.01028e-05
2.20425e-05
7.59729e-05
1.55228e-05
7.9138e-05
9.76596e-05
2.95378e-06
-2.48423e-05
6.02928e-06
-2.61533e-05
9.12384e-06
-2.63545e-05
1.23085e-05
-2.73296e-05
1.56218e-05
-2.8777e-05
1.91005e-05
-3.07284e-05
2.27821e-05
-3.33034e-05
2.67031e-05
-3.6679e-05
3.08857e-05
-4.10619e-05
3.53669e-05
-4.70225e-05
3.97296e-05
-5.41558e-05
4.4236e-05
-6.41187e-05
4.89985e-05
-8.59554e-05
5.26127e-05
-9.29942e-05
4.17347e-05
-3.7139e-05
2.19045e-05
4.54966e-05
1.69266e-05
8.19095e-05
2.08101e-05
8.78451e-05
2.39718e-05
8.45036e-05
2.45206e-05
7.95537e-05
2.27533e-05
7.77391e-05
1.75623e-05
8.43285e-05
0.000115222
2.79371e-06
-2.79371e-06
5.14883e-06
-2.35493e-06
6.62258e-06
-1.474e-06
7.35263e-06
-7.30152e-07
7.55061e-06
-1.97853e-07
7.40159e-06
1.48368e-07
7.04072e-06
3.61543e-07
6.55365e-06
4.86289e-07
5.99797e-06
5.564e-07
5.40421e-06
5.93303e-07
4.79482e-06
6.10105e-07
4.17984e-06
6.14896e-07
3.56688e-06
6.13158e-07
2.95883e-06
6.08108e-07
2.35691e-06
6.01947e-07
1.76076e-06
5.96047e-07
1.17023e-06
5.90483e-07
5.8279e-07
5.87013e-07
5.83328e-07
2.93207e-06
-5.72606e-06
5.39182e-06
-4.81452e-06
6.88762e-06
-2.96996e-06
7.60239e-06
-1.44557e-06
7.78057e-06
-3.75278e-07
7.61793e-06
3.09734e-07
7.24494e-06
7.35802e-07
6.74277e-06
9.8742e-07
6.1704e-06
1.13023e-06
5.55896e-06
1.20457e-06
4.93159e-06
1.23827e-06
4.29865e-06
1.2476e-06
3.66787e-06
1.24404e-06
3.04229e-06
1.23382e-06
2.42321e-06
1.22101e-06
1.81008e-06
1.20861e-06
1.20305e-06
1.19789e-06
5.9877e-07
1.19058e-06
1.18258e-06
3.10974e-06
-8.83605e-06
5.68467e-06
-7.38932e-06
7.15265e-06
-4.43791e-06
7.79437e-06
-2.08796e-06
7.90347e-06
-4.83508e-07
7.68605e-06
5.26022e-07
7.27576e-06
1.14762e-06
6.75132e-06
1.51142e-06
6.16658e-06
1.71619e-06
5.54892e-06
1.82175e-06
4.91883e-06
1.86884e-06
4.28548e-06
1.88103e-06
3.65549e-06
1.87429e-06
3.0314e-06
1.85791e-06
2.41424e-06
1.838e-06
1.8032e-06
1.81904e-06
1.19846e-06
1.80317e-06
5.96566e-07
1.79199e-06
1.77953e-06
3.3945e-06
-1.22307e-05
6.1542e-06
-1.01489e-05
7.56401e-06
-5.84758e-06
8.08279e-06
-2.60743e-06
8.08753e-06
-4.87269e-07
7.7973e-06
8.15367e-07
7.3398e-06
1.60636e-06
6.78621e-06
2.06433e-06
6.18373e-06
2.31953e-06
5.55577e-06
2.4495e-06
4.91967e-06
2.50553e-06
4.28323e-06
2.5176e-06
3.65175e-06
2.50576e-06
3.02724e-06
2.48221e-06
2.41041e-06
2.4548e-06
1.80006e-06
2.42898e-06
1.19626e-06
2.40759e-06
5.95525e-07
2.39232e-06
2.37531e-06
3.79863e-06
-1.60294e-05
6.83452e-06
-1.31849e-05
8.13426e-06
-7.14718e-06
8.46708e-06
-2.941e-06
8.32577e-06
-3.45264e-07
7.93959e-06
1.20053e-06
7.42148e-06
2.12531e-06
6.831e-06
2.65419e-06
6.20607e-06
2.9452e-06
5.56498e-06
3.09051e-06
4.92118e-06
3.14969e-06
4.28065e-06
3.15807e-06
3.64721e-06
3.13904e-06
3.02211e-06
3.10714e-06
2.40562e-06
3.07148e-06
1.79615e-06
3.03819e-06
1.19347e-06
3.0108e-06
5.94161e-07
2.99122e-06
2.96962e-06
4.29678e-06
-2.03263e-05
7.76635e-06
-1.66548e-05
8.87541e-06
-8.25623e-06
8.93932e-06
-3.00571e-06
8.61147e-06
-1.69126e-08
8.10625e-06
1.70487e-06
7.51607e-06
2.71618e-06
6.88229e-06
3.2876e-06
6.23121e-06
3.59693e-06
5.57481e-06
3.74678e-06
4.92206e-06
3.80244e-06
4.27678e-06
3.80314e-06
3.64115e-06
3.77454e-06
3.01549e-06
3.73274e-06
2.39949e-06
3.68781e-06
1.79115e-06
3.64628e-06
1.18989e-06
3.61243e-06
5.92393e-07
3.58833e-06
3.56209e-06
5.50626e-06
-2.58327e-05
9.13832e-06
-2.02872e-05
9.80361e-06
-8.92121e-06
9.48755e-06
-2.69033e-06
8.9307e-06
5.40481e-07
8.28871e-06
2.34643e-06
7.61831e-06
3.38736e-06
6.93694e-06
3.96897e-06
6.2572e-06
4.27725e-06
5.58403e-06
4.41983e-06
4.92157e-06
4.46474e-06
4.27119e-06
4.45335e-06
3.63331e-06
4.41242e-06
3.00719e-06
4.35888e-06
2.39186e-06
4.30343e-06
1.78498e-06
4.25289e-06
1.18549e-06
4.21212e-06
5.90213e-07
4.1833e-06
4.15237e-06
1.09199e-05
-3.67527e-05
1.16885e-05
-2.1056e-05
1.09576e-05
-8.19027e-06
1.00888e-05
-1.82218e-06
9.26408e-06
1.36556e-06
8.47789e-06
3.13242e-06
7.72353e-06
4.14226e-06
6.99249e-06
4.70011e-06
6.28281e-06
4.98725e-06
5.59204e-06
5.11052e-06
4.91945e-06
5.13724e-06
4.26376e-06
5.10905e-06
3.62362e-06
5.05273e-06
2.99718e-06
4.98537e-06
2.38273e-06
4.91808e-06
1.77763e-06
4.85775e-06
1.18029e-06
4.80955e-06
5.87623e-07
4.77583e-06
4.74006e-06
6.05839e-06
-3.09007e-05
1.23311e-05
-3.24259e-05
1.86337e-05
-3.26571e-05
2.50922e-05
-3.37882e-05
3.17649e-05
-3.54497e-05
3.87029e-05
-3.76664e-05
4.59509e-05
-4.05515e-05
5.35341e-05
-4.42622e-05
6.14664e-05
-4.89941e-05
6.95553e-05
-5.51114e-05
7.80216e-05
-6.26221e-05
8.59646e-05
-7.20617e-05
9.24887e-05
-9.24795e-05
9.18873e-05
-9.23927e-05
6.00271e-05
-5.27936e-06
3.66179e-05
6.89067e-05
3.64131e-05
8.21145e-05
4.25609e-05
8.16968e-05
4.79195e-05
7.91448e-05
5.14102e-05
7.60625e-05
5.50053e-05
7.41433e-05
6.52451e-05
7.40883e-05
7.54716e-05
0.000104995
5.70201e-06
-3.66027e-05
1.15501e-05
-3.82741e-05
1.74164e-05
-3.85233e-05
2.33851e-05
-3.97568e-05
2.94849e-05
-4.15496e-05
3.57341e-05
-4.39156e-05
4.21346e-05
-4.69521e-05
4.86588e-05
-5.07864e-05
5.52352e-05
-5.55705e-05
6.16761e-05
-6.15523e-05
6.77816e-05
-6.87276e-05
7.30194e-05
-7.72995e-05
7.6541e-05
-9.60011e-05
7.07518e-05
-8.66037e-05
4.1955e-05
2.35179e-05
3.36741e-05
7.71872e-05
3.58198e-05
7.99682e-05
4.03499e-05
7.71661e-05
4.52069e-05
7.4287e-05
5.03576e-05
7.09108e-05
5.73863e-05
6.71148e-05
6.88764e-05
6.25983e-05
5.75452e-05
8.68031e-05
5.30842e-06
-4.19111e-05
1.06979e-05
-4.36636e-05
1.60958e-05
-4.39212e-05
2.15481e-05
-4.52091e-05
2.70594e-05
-4.70609e-05
3.26229e-05
-4.94791e-05
3.82113e-05
-5.25405e-05
4.37646e-05
-5.63397e-05
4.91748e-05
-6.09807e-05
5.4247e-05
-6.66246e-05
5.87089e-05
-7.31895e-05
6.21843e-05
-8.07749e-05
6.41053e-05
-9.79221e-05
5.23358e-05
-7.48343e-05
2.98461e-05
4.60073e-05
2.94197e-05
7.76137e-05
3.33253e-05
7.60622e-05
3.7583e-05
7.29077e-05
4.19984e-05
6.98709e-05
4.6641e-05
6.62682e-05
5.17735e-05
6.19826e-05
5.768e-05
5.66919e-05
4.96274e-05
6.55978e-05
4.89138e-06
-4.68024e-05
9.80672e-06
-4.85789e-05
1.4723e-05
-4.88375e-05
1.96537e-05
-5.01398e-05
2.45849e-05
-5.19921e-05
2.94928e-05
-5.43871e-05
3.43332e-05
-5.73808e-05
3.90309e-05
-6.10374e-05
4.34695e-05
-6.54193e-05
4.7467e-05
-7.06221e-05
5.07877e-05
-7.65102e-05
5.31809e-05
-8.31681e-05
5.42669e-05
-9.90081e-05
3.76573e-05
-5.82253e-05
2.44373e-05
5.92275e-05
2.68587e-05
7.51917e-05
3.07726e-05
7.21476e-05
3.45386e-05
6.91408e-05
3.83128e-05
6.60966e-05
4.20923e-05
6.24889e-05
4.58773e-05
5.81977e-05
4.96109e-05
5.29577e-05
4.63734e-05
5.28651e-05
4.46405e-06
-5.12665e-05
8.90471e-06
-5.30196e-05
1.33417e-05
-5.32746e-05
1.77616e-05
-5.45597e-05
2.21384e-05
-5.63689e-05
2.64381e-05
-5.86868e-05
3.06084e-05
-6.15512e-05
3.45716e-05
-6.50006e-05
3.82182e-05
-6.90659e-05
4.13928e-05
-7.37966e-05
4.39144e-05
-7.90319e-05
4.56268e-05
-8.48804e-05
4.62716e-05
-9.96529e-05
2.90468e-05
-4.10005e-05
2.22636e-05
6.60106e-05
2.49375e-05
7.25173e-05
2.82397e-05
6.88448e-05
3.14486e-05
6.59313e-05
3.46209e-05
6.2924e-05
3.76803e-05
5.9429e-05
4.05299e-05
5.53484e-05
4.29345e-05
5.0553e-05
4.49493e-05
4.43584e-05
4.03732e-06
-5.53038e-05
8.01422e-06
-5.69965e-05
1.19853e-05
-5.72457e-05
1.59164e-05
-5.84908e-05
1.97742e-05
-6.02266e-05
2.35199e-05
-6.24325e-05
2.70999e-05
-6.51312e-05
3.04409e-05
-6.83416e-05
3.3447e-05
-7.20719e-05
3.59922e-05
-7.63418e-05
3.79436e-05
-8.09833e-05
3.92033e-05
-8.61402e-05
3.95431e-05
-9.99926e-05
2.27175e-05
-2.41752e-05
1.98202e-05
6.89081e-05
2.263e-05
6.97074e-05
2.55739e-05
6.58999e-05
2.83843e-05
6.31201e-05
3.10653e-05
6.02431e-05
3.35288e-05
5.69656e-05
3.56572e-05
5.32203e-05
3.7252e-05
4.89577e-05
4.41866e-05
3.80143e-05
3.61968e-06
-5.89235e-05
7.15164e-06
-6.05284e-05
1.06777e-05
-6.07717e-05
1.41484e-05
-6.19615e-05
1.75271e-05
-6.36053e-05
2.07742e-05
-6.56796e-05
2.38384e-05
-6.81953e-05
2.66542e-05
-7.11574e-05
2.91415e-05
-7.45592e-05
3.12012e-05
-7.84016e-05
3.27395e-05
-8.25216e-05
3.36996e-05
-8.71003e-05
3.38906e-05
-0.000100183
1.59789e-05
-6.26342e-06
1.67542e-05
6.81331e-05
2.00307e-05
6.64301e-05
2.28923e-05
6.30376e-05
2.54417e-05
6.05709e-05
2.77344e-05
5.79509e-05
2.97264e-05
5.49734e-05
3.13385e-05
5.16077e-05
3.24471e-05
4.78483e-05
4.37478e-05
3.28855e-05
3.21721e-06
-6.21407e-05
6.32793e-06
-6.36391e-05
9.43399e-06
-6.38777e-05
1.24759e-05
-6.50033e-05
1.54165e-05
-6.65459e-05
1.82174e-05
-6.84805e-05
2.08318e-05
-7.08098e-05
2.32034e-05
-7.3529e-05
2.52668e-05
-7.66226e-05
2.69456e-05
-8.00803e-05
2.81749e-05
-8.3751e-05
2.8922e-05
-8.78474e-05
2.90002e-05
-0.000100262
1.08855e-05
1.18514e-05
1.40871e-05
6.49318e-05
1.76792e-05
6.28376e-05
2.0461e-05
6.0256e-05
2.27646e-05
5.82679e-05
2.47128e-05
5.60031e-05
2.63159e-05
5.337e-05
2.75408e-05
5.03823e-05
2.83224e-05
4.70665e-05
4.34961e-05
2.85739e-05
2.83376e-06
-6.49745e-05
5.54938e-06
-6.63548e-05
8.26261e-06
-6.6591e-05
1.09078e-05
-6.76486e-05
1.34494e-05
-6.90875e-05
1.58517e-05
-7.08828e-05
1.80733e-05
-7.30314e-05
2.00667e-05
-7.55224e-05
2.17794e-05
-7.83354e-05
2.3153e-05
-8.14539e-05
2.4143e-05
-8.47409e-05
2.47288e-05
-8.84331e-05
2.46933e-05
-0.000100226
9.10375e-06
2.74405e-05
1.26631e-05
6.13729e-05
1.60201e-05
5.94806e-05
1.84975e-05
5.77791e-05
2.04619e-05
5.63037e-05
2.20467e-05
5.4418e-05
2.32913e-05
5.21249e-05
2.41936e-05
4.94795e-05
2.4727e-05
4.65331e-05
4.33706e-05
2.48521e-05
2.4714e-06
-6.74459e-05
4.81854e-06
-6.87019e-05
7.16622e-06
-6.89386e-05
9.44581e-06
-6.99281e-05
1.16245e-05
-7.12661e-05
1.36701e-05
-7.29284e-05
1.55468e-05
-7.49081e-05
1.7215e-05
-7.71907e-05
1.86336e-05
-7.97539e-05
1.97579e-05
-8.25782e-05
2.05578e-05
-8.55409e-05
2.10201e-05
-8.88955e-05
2.08932e-05
-0.000100099
9.96517e-06
3.83681e-05
1.2559e-05
5.87792e-05
1.51187e-05
5.69206e-05
1.7046e-05
5.5852e-05
1.85545e-05
5.47948e-05
1.97305e-05
5.32414e-05
2.06145e-05
5.12402e-05
2.12196e-05
4.8874e-05
2.15391e-05
4.62133e-05
4.33516e-05
2.1558e-05
2.13088e-06
-6.95768e-05
4.13538e-06
-7.07064e-05
6.14375e-06
-7.0947e-05
8.08713e-06
-7.18715e-05
9.9353e-06
-7.31143e-05
1.16606e-05
-7.46537e-05
1.32319e-05
-7.64795e-05
1.46171e-05
-7.85759e-05
1.57837e-05
-8.09205e-05
1.66986e-05
-8.34931e-05
1.73447e-05
-8.61869e-05
1.77132e-05
-8.92641e-05
1.75128e-05
-9.98983e-05
1.12328e-05
4.46479e-05
1.29577e-05
5.70536e-05
1.4689e-05
5.51888e-05
1.59989e-05
5.45421e-05
1.69862e-05
5.38073e-05
1.7713e-05
5.25143e-05
1.82213e-05
5.07313e-05
1.85341e-05
4.8561e-05
1.86533e-05
4.60944e-05
4.34331e-05
1.85719e-05
1.81213e-06
-7.13889e-05
3.49847e-06
-7.23927e-05
5.1921e-06
-7.26406e-05
6.82654e-06
-7.35059e-05
8.37355e-06
-7.46613e-05
9.80954e-06
-7.60897e-05
1.11082e-05
-7.77781e-05
1.2243e-05
-7.97107e-05
1.31883e-05
-8.18658e-05
1.39175e-05
-8.42223e-05
1.44301e-05
-8.66995e-05
1.47184e-05
-8.95523e-05
1.44415e-05
-9.96215e-05
1.20042e-05
4.70846e-05
1.33973e-05
5.56602e-05
1.45314e-05
5.40544e-05
1.5253e-05
5.38204e-05
1.56802e-05
5.33799e-05
1.59181e-05
5.22766e-05
1.60286e-05
5.06207e-05
1.60454e-05
4.8544e-05
1.59708e-05
4.61688e-05
4.36091e-05
1.57948e-05
1.51281e-06
-7.29017e-05
2.9043e-06
-7.37842e-05
4.30611e-06
-7.40424e-05
5.65497e-06
-7.48548e-05
6.92578e-06
-7.59321e-05
8.09797e-06
-7.72619e-05
9.14979e-06
-7.88299e-05
1.00603e-05
-8.06213e-05
1.08088e-05
-8.26142e-05
1.1373e-05
-8.47865e-05
1.1765e-05
-8.70916e-05
1.19431e-05
-8.97303e-05
1.18245e-05
-9.95026e-05
1.27177e-05
4.61907e-05
1.4049e-05
5.43297e-05
1.46943e-05
5.34095e-05
1.47819e-05
5.37326e-05
1.45702e-05
5.35912e-05
1.42548e-05
5.25923e-05
1.39346e-05
5.09409e-05
1.3649e-05
4.88295e-05
1.33905e-05
4.64272e-05
4.38668e-05
1.31323e-05
1.23507e-06
-7.41367e-05
2.34948e-06
-7.48986e-05
3.47871e-06
-7.51716e-05
4.56041e-06
-7.59365e-05
5.57513e-06
-7.69469e-05
6.5044e-06
-7.81912e-05
7.32972e-06
-7.96553e-05
8.03376e-06
-8.13253e-05
8.59907e-06
-8.31796e-05
9.02064e-06
-8.52081e-05
9.33602e-06
-8.74069e-05
9.27135e-06
-8.96657e-05
1.0833e-05
-0.000101064
1.39886e-05
4.30349e-05
1.54174e-05
5.29016e-05
1.54016e-05
5.34257e-05
1.46025e-05
5.45317e-05
1.35709e-05
5.46224e-05
1.25948e-05
5.35685e-05
1.18059e-05
5.17297e-05
1.12223e-05
4.94134e-05
1.08044e-05
4.68449e-05
4.41762e-05
1.04945e-05
9.90129e-07
-7.51269e-05
1.83442e-06
-7.57429e-05
2.71095e-06
-7.60482e-05
3.54886e-06
-7.67745e-05
4.33383e-06
-7.77318e-05
5.04721e-06
-7.89045e-05
5.671e-06
-8.02791e-05
6.18426e-06
-8.18385e-05
6.55597e-06
-8.35512e-05
6.76524e-06
-8.54174e-05
6.93417e-06
-8.75758e-05
6.22958e-06
-8.89612e-05
8.8113e-06
-0.000103646
1.62824e-05
3.55642e-05
1.81167e-05
5.10671e-05
1.68393e-05
5.47035e-05
1.46609e-05
5.67102e-05
1.25185e-05
5.67646e-05
1.07568e-05
5.533e-05
9.48146e-06
5.30051e-05
8.63428e-06
5.02608e-05
8.10902e-06
4.73701e-05
4.44854e-05
7.79959e-06
7.44782e-07
-7.58716e-05
1.36489e-06
-7.6363e-05
2.03603e-06
-7.67193e-05
2.6675e-06
-7.74059e-05
3.25552e-06
-7.83198e-05
3.78936e-06
-7.94384e-05
4.25492e-06
-8.07446e-05
4.6272e-06
-8.22108e-05
4.86441e-06
-8.37884e-05
4.80641e-06
-8.53593e-05
4.32544e-06
-8.70948e-05
1.45922e-06
-8.6095e-05
-3.44322e-06
-9.87431e-05
1.97085e-05
1.24127e-05
2.29612e-05
4.78136e-05
1.91877e-05
5.84768e-05
1.47867e-05
6.11114e-05
1.11228e-05
6.04287e-05
8.46679e-06
5.79862e-05
6.74107e-06
5.4731e-05
5.72295e-06
5.12789e-05
5.19249e-06
4.79006e-05
4.47051e-05
4.97289e-06
5.58198e-07
-7.64299e-05
9.97103e-07
-7.68019e-05
1.46598e-06
-7.71882e-05
1.9204e-06
-7.78603e-05
2.34196e-06
-7.87414e-05
2.72123e-06
-7.98176e-05
3.04594e-06
-8.10692e-05
3.29958e-06
-8.24645e-05
3.50331e-06
-8.39922e-05
3.53893e-06
-8.53949e-05
3.13009e-06
-8.6686e-05
6.47286e-06
-8.94377e-05
-1.32203e-06
-9.09483e-05
3.03255e-05
-1.92344e-05
3.26065e-05
4.55319e-05
2.23208e-05
6.87623e-05
1.43835e-05
6.90491e-05
8.77244e-06
6.60399e-05
5.27302e-06
6.1486e-05
3.30342e-06
5.67008e-05
2.32508e-06
5.22573e-05
1.96167e-06
4.82641e-05
4.47061e-05
1.96066e-06
2.73351e-07
-7.67032e-05
4.95141e-07
-7.70237e-05
7.38815e-07
-7.74319e-05
9.60517e-07
-7.80821e-05
1.15428e-06
-7.89351e-05
1.30876e-06
-7.99721e-05
1.40774e-06
-8.11682e-05
1.45901e-06
-8.25157e-05
1.44212e-06
-8.39753e-05
2.40599e-06
-8.63588e-05
4.22467e-06
-8.85047e-05
2.65578e-05
-0.000111771
3.82236e-05
-0.000102614
6.56958e-05
-4.67063e-05
4.61954e-05
6.50324e-05
2.64184e-05
8.85393e-05
1.2273e-05
8.31947e-05
4.50935e-06
7.38037e-05
6.64327e-07
6.53313e-05
-1.11197e-06
5.84773e-05
-1.7037e-06
5.28491e-05
-1.64264e-06
4.82032e-05
4.43193e-05
-1.25578e-06
-5.28696e-07
-7.61746e-05
-1.23108e-06
-7.63216e-05
-1.83436e-06
-7.68287e-05
-2.4969e-06
-7.74196e-05
-3.18557e-06
-7.82466e-05
-3.88627e-06
-7.92717e-05
-4.48774e-06
-8.0567e-05
-4.74644e-06
-8.2257e-05
-5.16555e-06
-8.35564e-05
-8.53084e-07
-9.06715e-05
1.55403e-05
-0.000104898
2.94756e-05
-0.000125706
8.22468e-05
-0.000155386
6.47797e-05
-2.92393e-05
6.4489e-05
6.53234e-05
2.98445e-05
0.000123184
5.65182e-06
0.000107387
-3.18003e-06
8.26357e-05
-6.23871e-06
6.839e-05
-6.8471e-06
5.90858e-05
-6.42993e-06
5.24322e-05
-5.59671e-06
4.73701e-05
4.33464e-05
-4.62372e-06
-3.29226e-06
-7.28826e-05
-6.62067e-06
-7.29938e-05
-1.00331e-05
-7.34151e-05
-1.34783e-05
-7.3973e-05
-1.69358e-05
-7.47897e-05
-2.02504e-05
-7.59575e-05
-2.31123e-05
-7.77067e-05
-2.5138e-05
-8.02312e-05
-2.39104e-05
-8.47845e-05
-1.80238e-05
-9.65582e-05
-5.23949e-06
-0.000117682
5.60472e-06
-0.00013655
8.86912e-06
-0.00015865
6.09947e-06
-2.64696e-05
-1.76329e-05
8.90558e-05
-2.28352e-05
0.000128386
-1.94829e-05
0.000104035
-1.76635e-05
8.08163e-05
-1.57425e-05
6.64689e-05
-1.36655e-05
5.70091e-05
-1.16214e-05
5.03884e-05
-9.72204e-06
4.54707e-05
4.16368e-05
-8.01256e-06
-3.49118e-06
-6.93902e-05
-6.72719e-06
-6.97604e-05
-1.01578e-05
-6.99866e-05
-1.36952e-05
-7.04354e-05
-1.74039e-05
-7.10802e-05
-2.13276e-05
-7.20328e-05
-2.56158e-05
-7.3418e-05
-3.036e-05
-7.54868e-05
-3.57509e-05
-7.93935e-05
-4.71647e-05
-8.51443e-05
-7.15733e-05
-9.32735e-05
-9.61671e-05
-0.000111956
-0.000150701
-0.000104116
-0.000152995
-2.41754e-05
-0.000117805
5.38659e-05
-7.44577e-05
8.50394e-05
-4.77179e-05
7.72957e-05
-3.40088e-05
6.71073e-05
-2.59735e-05
5.8434e-05
-2.06388e-05
5.16746e-05
-1.67331e-05
4.64828e-05
-1.36836e-05
4.24213e-05
3.91654e-05
-1.12124e-05
-3.53523e-06
-6.58533e-05
-7.07363e-06
-6.62219e-05
-1.06947e-05
-6.63662e-05
-1.44989e-05
-6.66327e-05
-1.85482e-05
-6.70319e-05
-2.29763e-05
-6.76064e-05
-2.79871e-05
-6.8407e-05
-3.38773e-05
-6.95973e-05
-4.19638e-05
-7.13071e-05
-5.45441e-05
-7.25642e-05
-7.21295e-05
-7.56885e-05
-0.000104519
-7.95663e-05
-0.000145777
-6.28577e-05
-0.000149751
-2.02018e-05
-0.000123538
2.7653e-05
-8.63993e-05
4.79013e-05
-6.04586e-05
5.13552e-05
-4.3992e-05
5.06411e-05
-3.33533e-05
4.77958e-05
-2.61469e-05
4.44684e-05
-2.09711e-05
4.13072e-05
-1.70583e-05
3.85084e-05
3.60867e-05
-1.39799e-05
-3.57889e-06
-6.22748e-05
-7.22186e-06
-6.25787e-05
-1.09568e-05
-6.2631e-05
-1.48979e-05
-6.26915e-05
-1.91342e-05
-6.27951e-05
-2.38139e-05
-6.29273e-05
-2.91387e-05
-6.30827e-05
-3.54622e-05
-6.32742e-05
-4.3483e-05
-6.32864e-05
-5.34981e-05
-6.25492e-05
-6.73579e-05
-6.18287e-05
-8.93464e-05
-5.75778e-05
-0.000110399
-4.18048e-05
-0.000114566
-1.60346e-05
-9.73282e-05
1.04157e-05
-7.65373e-05
2.71107e-05
-5.97043e-05
3.45227e-05
-4.65852e-05
3.75224e-05
-3.67489e-05
3.796e-05
-2.94131e-05
3.71329e-05
-2.38596e-05
3.57539e-05
-1.95554e-05
3.42042e-05
3.26667e-05
-1.61355e-05
-3.59384e-06
-5.86817e-05
-7.24336e-06
-5.893e-05
-1.10246e-05
-5.885e-05
-1.49956e-05
-5.87212e-05
-1.92613e-05
-5.853e-05
-2.39424e-05
-5.82458e-05
-2.92167e-05
-5.78092e-05
-3.53614e-05
-5.71294e-05
-4.27211e-05
-5.59266e-05
-5.13729e-05
-5.38976e-05
-6.23749e-05
-5.08265e-05
-7.56367e-05
-4.43159e-05
-8.57242e-05
-3.17171e-05
-8.72042e-05
-1.45544e-05
-7.91191e-05
2.33094e-06
-6.70797e-05
1.50718e-05
-5.56069e-05
2.30502e-05
-4.56335e-05
2.75494e-05
-3.73997e-05
2.97265e-05
-3.07527e-05
3.04862e-05
-2.54196e-05
3.0421e-05
-2.11208e-05
2.99054e-05
2.91637e-05
-1.76178e-05
-3.55066e-06
-5.51308e-05
-7.15267e-06
-5.53283e-05
-1.08787e-05
-5.51243e-05
-1.4777e-05
-5.4823e-05
-1.89327e-05
-5.43745e-05
-2.34459e-05
-5.37328e-05
-2.84343e-05
-5.28214e-05
-3.40522e-05
-5.15114e-05
-4.04011e-05
-4.9578e-05
-4.75382e-05
-4.67606e-05
-5.57408e-05
-4.26237e-05
-6.40641e-05
-3.59925e-05
-6.96728e-05
-2.61084e-05
-7.02089e-05
-1.40181e-05
-6.58684e-05
-2.0093e-06
-5.86668e-05
7.87037e-06
-5.07429e-05
1.51264e-05
-4.31931e-05
1.99998e-05
-3.64914e-05
2.30249e-05
-3.07479e-05
2.47428e-05
-2.59094e-05
2.55825e-05
-2.18582e-05
2.58543e-05
2.57678e-05
-1.84621e-05
-3.44572e-06
-5.16852e-05
-6.95586e-06
-5.18184e-05
-1.05533e-05
-5.15274e-05
-1.43006e-05
-5.10764e-05
-1.82555e-05
-5.04194e-05
-2.24827e-05
-4.9506e-05
-2.70491e-05
-4.82547e-05
-3.20176e-05
-4.65428e-05
-3.73948e-05
-4.4201e-05
-4.31447e-05
-4.10107e-05
-4.91319e-05
-3.66365e-05
-5.45499e-05
-3.05747e-05
-5.79768e-05
-2.26814e-05
-5.8355e-05
-1.36398e-05
-5.57579e-05
-4.60642e-06
-5.11781e-05
3.29049e-06
-4.56686e-05
9.61679e-06
-4.00128e-05
1.4344e-05
-3.46677e-05
1.76797e-05
-2.98433e-05
1.99182e-05
-2.56012e-05
2.13403e-05
-2.19231e-05
2.21762e-05
2.2598e-05
-1.87531e-05
-3.2939e-06
-4.83915e-05
-6.65342e-06
-4.84591e-05
-1.0074e-05
-4.81068e-05
-1.36108e-05
-4.75397e-05
-1.73006e-05
-4.67299e-05
-2.11784e-05
-4.56284e-05
-2.52713e-05
-4.41613e-05
-2.95868e-05
-4.22275e-05
-3.40849e-05
-3.97029e-05
-3.86656e-05
-3.64299e-05
-4.30923e-05
-3.22099e-05
-4.6812e-05
-2.68552e-05
-4.90799e-05
-2.04136e-05
-4.93992e-05
-1.33206e-05
-4.77772e-05
-6.2287e-06
-4.4734e-05
2.47067e-07
-4.08243e-05
5.70689e-06
-3.65757e-05
1.00951e-05
-3.23512e-05
1.34549e-05
-2.83663e-05
1.59332e-05
-2.47279e-05
1.77018e-05
-2.14717e-05
1.89201e-05
1.97176e-05
-1.85913e-05
-3.1111e-06
-4.52805e-05
-6.27033e-06
-4.53002e-05
-9.47862e-06
-4.48985e-05
-1.27666e-05
-4.42513e-05
-1.6156e-05
-4.33406e-05
-1.96605e-05
-4.21237e-05
-2.32815e-05
-4.05403e-05
-2.69955e-05
-3.85139e-05
-3.07404e-05
-3.59578e-05
-3.43967e-05
-3.27735e-05
-3.77453e-05
-2.88614e-05
-4.04282e-05
-2.41724e-05
-4.20403e-05
-1.88016e-05
-4.23268e-05
-1.30342e-05
-4.12866e-05
-7.2691e-06
-3.91889e-05
-1.85094e-06
-3.63637e-05
2.88138e-06
-3.31484e-05
6.87961e-06
-2.98157e-05
1.01219e-05
-2.65531e-05
1.26705e-05
-2.34753e-05
1.4624e-05
-2.0642e-05
1.60867e-05
1.71506e-05
-1.80751e-05
-2.9052e-06
-4.23755e-05
-5.83739e-06
-4.2368e-05
-8.80799e-06
-4.19277e-05
-1.18267e-05
-4.12327e-05
-1.49024e-05
-4.02647e-05
-1.80357e-05
-3.89901e-05
-2.12122e-05
-3.73641e-05
-2.4394e-05
-3.53321e-05
-2.7513e-05
-3.28385e-05
-3.04573e-05
-2.98292e-05
-3.30546e-05
-2.62643e-05
-3.50752e-05
-2.21519e-05
-3.62887e-05
-1.7588e-05
-3.65551e-05
-1.27679e-05
-3.58799e-05
-7.94442e-06
-3.43807e-05
-3.35031e-06
-3.2311e-05
8.11525e-07
-2.98574e-05
4.42589e-06
-2.72239e-05
7.48835e-06
-2.45638e-05
1.00103e-05
-2.19826e-05
1.20428e-05
-1.95465e-05
1.36504e-05
1.48951e-05
-1.72912e-05
-2.68081e-06
-3.96948e-05
-5.37541e-06
-3.96731e-05
-8.09411e-06
-3.92089e-05
-1.08358e-05
-3.84913e-05
-1.36e-05
-3.75002e-05
-1.63789e-05
-3.62113e-05
-1.91495e-05
-3.45935e-05
-2.18699e-05
-3.26112e-05
-2.44759e-05
-3.02324e-05
-2.68733e-05
-2.7432e-05
-2.89345e-05
-2.4203e-05
-3.05106e-05
-2.05756e-05
-3.14646e-05
-1.66338e-05
-3.17162e-05
-1.25162e-05
-3.12689e-05
-8.39182e-06
-3.0191e-05
-4.42819e-06
-2.86519e-05
-7.27445e-07
-2.67568e-05
2.53081e-06
-2.4668e-05
5.39948e-06
-2.25022e-05
7.84437e-06
-2.03492e-05
9.88954e-06
-1.82721e-05
1.15731e-05
1.29344e-05
-1.63117e-05
-2.44391e-06
-3.7251e-05
-4.89712e-06
-3.72196e-05
-7.35929e-06
-3.67469e-05
-9.82542e-06
-3.60249e-05
-1.22895e-05
-3.50359e-05
-1.47376e-05
-3.37632e-05
-1.71441e-05
-3.21869e-05
-1.94686e-05
-3.02863e-05
-2.1655e-05
-2.8046e-05
-2.36279e-05
-2.54591e-05
-2.52953e-05
-2.25353e-05
-2.6559e-05
-1.93115e-05
-2.73348e-05
-1.58578e-05
-2.7575e-05
-1.2276e-05
-2.72817e-05
-8.68494e-06
-2.65073e-05
-5.20243e-06
-2.53155e-05
-1.91901e-06
-2.38554e-05
1.07071e-06
-2.21954e-05
3.73934e-06
-2.0433e-05
6.08167e-06
-1.86435e-05
8.0998e-06
-1.68837e-05
9.81307e-06
1.12443e-05
-1.51938e-05
-2.20156e-06
-3.50492e-05
-4.41248e-06
-3.50085e-05
-6.62e-06
-3.45392e-05
-8.81859e-06
-3.3826e-05
-1.09983e-05
-3.28563e-05
-1.3142e-05
-3.16193e-05
-1.52245e-05
-3.01041e-05
-1.72098e-05
-2.8301e-05
-1.90505e-05
-2.62053e-05
-2.06883e-05
-2.38211e-05
-2.20571e-05
-2.11661e-05
-2.30911e-05
-1.82772e-05
-2.37364e-05
-1.52125e-05
-2.39634e-05
-1.20488e-05
-2.37744e-05
-8.87368e-06
-2.32033e-05
-5.77339e-06
-2.22985e-05
-2.82372e-06
-2.11583e-05
-6.96756e-08
-1.98298e-05
2.41048e-06
-1.83945e-05
4.64607e-06
-1.69111e-05
6.61612e-06
-1.54278e-05
8.3295e-06
9.79802e-06
-1.39816e-05
-1.96057e-06
-3.30884e-05
-3.9308e-06
-3.30385e-05
-5.89011e-06
-3.25798e-05
-7.8323e-06
-3.1884e-05
-9.74482e-06
-3.09438e-05
-1.16101e-05
-2.97536e-05
-1.34048e-05
-2.83092e-05
-1.50976e-05
-2.66082e-05
-1.665e-05
-2.46528e-05
-1.80174e-05
-2.24533e-05
-1.91524e-05
-2.00309e-05
-2.00098e-05
-1.74197e-05
-2.05541e-05
-1.46681e-05
-2.07669e-05
-1.18359e-05
-2.06507e-05
-8.98972e-06
-2.02288e-05
-6.19522e-06
-1.95411e-05
-3.51164e-06
-1.86327e-05
-9.78397e-07
-1.75739e-05
1.35135e-06
-1.64068e-05
3.47861e-06
-1.51809e-05
5.38994e-06
-1.39369e-05
7.08538e-06
8.56892e-06
-1.2708e-05
-1.72575e-06
-3.13627e-05
-3.45991e-06
-3.13044e-05
-5.17997e-06
-3.08597e-05
-6.87801e-06
-3.0186e-05
-8.54066e-06
-2.92809e-05
-1.01513e-05
-2.81428e-05
-1.1689e-05
-2.67717e-05
-1.31272e-05
-2.517e-05
-1.44351e-05
-2.33446e-05
-1.55791e-05
-2.13091e-05
-1.65247e-05
-1.90852e-05
-1.72403e-05
-1.6704e-05
-1.77024e-05
-1.4206e-05
-1.78989e-05
-1.16393e-05
-1.78327e-05
-9.05601e-06
-1.75203e-05
-6.50774e-06
-1.69908e-05
-4.04148e-06
-1.62754e-05
-1.69416e-06
-1.54282e-05
5.03873e-07
-1.44797e-05
2.52986e-06
-1.34702e-05
4.38025e-06
-1.24331e-05
6.04814e-06
7.53238e-06
-1.13967e-05
-1.49944e-06
-2.98633e-05
-3.00497e-06
-2.97988e-05
-4.49559e-06
-2.93691e-05
-5.96191e-06
-2.87197e-05
-7.39113e-06
-2.78516e-05
-8.76805e-06
-2.6766e-05
-1.00742e-05
-2.54658e-05
-1.12878e-05
-2.39563e-05
-1.23846e-05
-2.22475e-05
-1.33392e-05
-2.03543e-05
-1.41264e-05
-1.8298e-05
-1.47239e-05
-1.61066e-05
-1.51154e-05
-1.38145e-05
-1.52936e-05
-1.14612e-05
-1.52609e-05
-9.08891e-06
-1.50296e-05
-6.73927e-06
-1.46206e-05
-4.45079e-06
-1.40582e-05
-2.25684e-06
-1.33845e-05
-1.70063e-07
-1.26149e-05
1.76004e-06
-1.17883e-05
3.55348e-06
-1.09303e-05
5.1901e-06
6.6665e-06
-1.00644e-05
-1.28231e-06
-2.8581e-05
-2.56802e-06
-2.85133e-05
-3.83902e-06
-2.80981e-05
-5.08568e-06
-2.74732e-05
-6.29626e-06
-2.66413e-05
-7.45716e-06
-2.56053e-05
-8.55276e-06
-2.43701e-05
-9.56551e-06
-2.29433e-05
-1.04766e-05
-2.13361e-05
-1.12668e-05
-1.95641e-05
-1.19174e-05
-1.76475e-05
-1.24126e-05
-1.56114e-05
-1.27415e-05
-1.34857e-05
-1.28992e-05
-1.13036e-05
-1.28881e-05
-9.10024e-06
-1.27175e-05
-6.91002e-06
-1.24033e-05
-4.76521e-06
-1.19664e-05
-2.69391e-06
-1.14219e-05
-7.14654e-07
-1.08076e-05
1.14552e-06
-1.01383e-05
2.88406e-06
-9.43674e-06
4.48846e-06
5.95238e-06
-8.72248e-06
-1.07384e-06
-2.75072e-05
-2.1485e-06
-2.74388e-05
-3.20938e-06
-2.70373e-05
-4.2474e-06
-2.64354e-05
-5.25215e-06
-2.56368e-05
-6.21195e-06
-2.46454e-05
-7.1141e-06
-2.34677e-05
-7.94478e-06
-2.21123e-05
-8.68939e-06
-2.05914e-05
-9.33332e-06
-1.89202e-05
-9.86297e-06
-1.71178e-05
-1.02672e-05
-1.52072e-05
-1.05384e-05
-1.32145e-05
-1.06736e-05
-1.11686e-05
-1.06748e-05
-9.09912e-06
-1.05494e-05
-7.03564e-06
-1.03089e-05
-5.00581e-06
-9.96863e-06