/*--------------------------------*- C++ -*----------------------------------*\
| =========                 |                                                 |
| \\      /  F ield         | OpenFOAM: The Open Source CFD Toolbox           |
|  \\    /   O peration     | Version:  2206                                  |
|   \\  /    A nd           | Website:  www.openfoam.com                      |
|    \\/     M anipulation  |                                                 |
\*---------------------------------------------------------------------------*/
FoamFile
{
    version     2.0;
    format      ascii;
    arch        "LSB;label=32;scalar=64";
    class       surfaceScalarField;
    location    "0.65";
    object      alphaPhi0.water;
}
// * * * * * * * * * * * * * * * * * * * * * * * * * * * * * * * * * * * * * //

dimensions      [0 3 -1 0 0 0 0];

oriented        oriented;

internalField   nonuniform List<scalar> 
4432
(
-3.19335e-06
3.19335e-06
-6.22039e-06
3.02705e-06
-7.5818e-06
1.36141e-06
-7.81324e-06
2.31441e-07
-6.98694e-06
-8.26302e-07
-4.78638e-06
-2.20056e-06
-1.40773e-06
-3.37864e-06
2.01048e-06
-3.41821e-06
4.45419e-06
-2.44371e-06
5.62067e-06
-1.16648e-06
5.64047e-06
-1.98057e-08
4.72202e-06
9.1845e-07
3.16346e-06
1.55856e-06
1.12534e-06
2.03812e-06
-1.41819e-06
2.54353e-06
-4.75348e-06
3.3353e-06
-8.63635e-06
3.88298e-06
-1.08416e-05
2.95152e-06
-1.35805e-05
2.62193e-06
-1.97116e-05
5.00564e-06
-2.30746e-05
3.36867e-06
-1.60598e-05
-7.00959e-06
-1.60528e-05
-3.87308e-06
7.06643e-06
-6.19487e-06
5.34884e-06
-7.0282e-06
2.19474e-06
-7.39234e-06
5.95575e-07
-6.93918e-06
-1.27946e-06
-4.98936e-06
-4.15037e-06
-1.61054e-06
-6.75746e-06
1.95649e-06
-6.98525e-06
4.51645e-06
-5.00368e-06
5.7404e-06
-2.39042e-06
5.98019e-06
-2.59602e-07
5.67697e-06
1.22168e-06
5.02506e-06
2.21048e-06
4.12983e-06
2.93336e-06
2.93311e-06
3.74026e-06
1.16891e-06
5.0995e-06
-1.85839e-06
6.9101e-06
-6.59018e-06
7.8098e-06
-1.18008e-05
8.67684e-06
-1.66427e-05
9.35051e-06
-1.73081e-05
3.58487e-06
-1.12689e-05
-1.26195e-05
-2.72532e-05
-2.93174e-06
9.99817e-06
-4.67005e-06
7.08714e-06
-5.6925e-06
3.21719e-06
-6.56209e-06
1.46517e-06
-6.66203e-06
-1.17952e-06
-5.08476e-06
-5.72764e-06
-1.92901e-06
-9.91321e-06
1.55814e-06
-1.04724e-05
4.11022e-06
-7.55576e-06
5.30153e-06
-3.58172e-06
5.40552e-06
-3.63593e-07
4.88835e-06
1.73885e-06
4.12788e-06
2.97096e-06
3.40761e-06
3.65363e-06
2.93622e-06
4.21165e-06
2.79319e-06
5.24254e-06
2.5844e-06
7.11889e-06
9.57828e-07
9.43638e-06
-1.88723e-06
1.16319e-05
-5.06873e-06
1.31699e-05
-6.52368e-06
4.92574e-06
-4.16111e-06
-1.50961e-05
-3.1324e-05
-1.47146e-06
1.14696e-05
-2.39256e-06
8.00824e-06
-3.35461e-06
4.17924e-06
-4.19014e-06
2.30071e-06
-4.18661e-06
-1.18305e-06
-2.77731e-06
-7.13695e-06
-4.50544e-07
-1.224e-05
1.95552e-06
-1.28785e-05
3.76496e-06
-9.3652e-06
4.6204e-06
-4.43716e-06
4.61442e-06
-3.57608e-07
4.04694e-06
2.30634e-06
3.23104e-06
3.78687e-06
2.48429e-06
4.40038e-06
2.05124e-06
4.6447e-06
2.1036e-06
5.19018e-06
2.93236e-06
6.29014e-06
4.08733e-06
8.2814e-06
5.19212e-06
1.05271e-05
6.03572e-06
1.2506e-05
4.6956e-06
6.15179e-06
3.16079e-06
-1.36675e-05
-2.82646e-05
4.77142e-07
1.09925e-05
9.69748e-07
7.51563e-06
8.22274e-07
4.32671e-06
9.87255e-07
2.13573e-06
1.95224e-06
-2.14804e-06
3.20394e-06
-8.38865e-06
3.97625e-06
-1.30123e-05
4.23582e-06
-1.3138e-05
4.16879e-06
-9.29817e-06
3.97799e-06
-4.24636e-06
3.62901e-06
-8.62315e-09
3.05036e-06
2.885e-06
2.31516e-06
4.52207e-06
1.7107e-06
5.00484e-06
1.4525e-06
4.90291e-06
1.54062e-06
5.10207e-06
2.2439e-06
5.58686e-06
3.97468e-06
6.55063e-06
6.98973e-06
7.51208e-06
1.06853e-05
8.81052e-06
1.12447e-05
5.50056e-06
7.46196e-06
-1.03048e-05
-2.08023e-05
2.91271e-06
8.07979e-06
5.49741e-06
4.93093e-06
7.20301e-06
2.62112e-06
9.23151e-06
1.07221e-07
1.13893e-05
-4.30583e-06
1.19507e-05
-8.95009e-06
1.05353e-05
-1.15969e-05
8.05796e-06
-1.06607e-05
5.58935e-06
-6.82956e-06
3.74555e-06
-2.40256e-06
2.70891e-06
1.02803e-06
1.9592e-06
3.63471e-06
1.2971e-06
5.18417e-06
8.91312e-07
5.41062e-06
9.3413e-07
4.8601e-06
1.25321e-06
4.78299e-06
1.90827e-06
4.9318e-06
3.30151e-06
5.15739e-06
5.87823e-06
4.93536e-06
9.89918e-06
4.78958e-06
1.20693e-05
3.33047e-06
8.65197e-06
-6.88741e-06
-1.21504e-05
4.93765e-06
3.14214e-06
1.04521e-05
-5.83475e-07
1.55738e-05
-2.50066e-06
2.00816e-05
-4.40064e-06
2.18976e-05
-6.12211e-06
2.00436e-05
-7.0963e-06
1.58662e-05
-7.41951e-06
1.12579e-05
-6.05237e-06
7.26499e-06
-2.83667e-06
4.11676e-06
7.4567e-07
2.20332e-06
2.94146e-06
1.00061e-06
4.83743e-06
2.37391e-07
5.94739e-06
2.04255e-08
5.62759e-06
4.12669e-07
4.46786e-06
1.02303e-06
4.17263e-06
1.81775e-06
4.13709e-06
3.07864e-06
3.89649e-06
4.85925e-06
3.15476e-06
7.73108e-06
1.91775e-06
1.01136e-05
9.47931e-07
8.56363e-06
-5.33741e-06
-3.58724e-06
8.35717e-06
-4.24673e-06
1.66575e-05
-7.38958e-06
2.1781e-05
-6.29089e-06
2.40755e-05
-5.15139e-06
2.30908e-05
-3.5302e-06
1.96403e-05
-2.03565e-06
1.54083e-05
-1.86345e-06
1.09621e-05
-1.41758e-06
7.4762e-06
6.49274e-07
4.70156e-06
3.52031e-06
2.63808e-06
5.00494e-06
8.97304e-07
6.57821e-06
-3.46195e-07
7.19089e-06
-7.90686e-07
6.07209e-06
-2.50534e-07
3.92771e-06
5.9819e-07
3.32391e-06
1.57049e-06
3.1648e-06
2.9587e-06
2.50829e-06
4.63423e-06
1.47923e-06
6.4606e-06
9.13752e-08
7.87209e-06
-4.6355e-07
6.91199e-06
-4.37732e-06
3.32434e-06
-3.71693e-05
1.9979e-05
-4.81053e-05
1.09359e-05
-3.31548e-05
-1.49507e-05
-9.94201e-06
-2.32128e-05
1.27354e-05
-2.26773e-05
2.30618e-05
-2.01257e-05
2.83244e-05
-1.21931e-05
9.50403e-06
2.74443e-05
-5.42663e-05
6.34839e-05
-0.000106223
5.165e-05
-0.000127521
2.09781e-05
-0.000133564
5.70757e-06
-0.000132677
-1.23724e-06
-0.000126621
-6.32539e-06
-0.000115524
-1.13108e-05
-9.51927e-05
-2.0497e-05
-5.39891e-05
-4.13242e-05
-1.10107e-06
-5.30073e-05
-1.23199e-06
-3.39785e-05
3.34146e-05
-3.33145e-05
1.02713e-05
-1.48076e-05
-3.34577e-05
3.85251e-06
-4.18729e-05
2.1705e-05
-4.05298e-05
3.83067e-05
-3.67273e-05
2.3054e-05
-7.68605e-06
-3.95598e-05
9.86453e-05
-0.000115387
0.000139625
-0.000133912
5.39818e-05
-0.000132018
8.9739e-06
-0.000128806
8.37391e-07
-0.000130337
-2.6534e-06
-0.000132504
-8.08184e-06
-0.000128653
-1.83293e-05
-0.000109821
-4.07368e-05
-7.21828e-05
-7.90086e-05
-1.8947e-05
-0.000106242
-2.01778e-05
-1.47911e-05
4.1213e-05
-9.80046e-06
5.24607e-06
4.45404e-06
-4.76987e-05
2.12926e-05
-5.87115e-05
3.55311e-05
-5.47682e-05
4.21412e-05
-4.33373e-05
8.68409e-06
9.97315e-06
-5.81114e-05
0.000158157
-5.13768e-05
0.000113247
-2.11556e-05
1.21333e-05
-1.67692e-05
1.56488e-06
-1.76368e-05
-7.37329e-08
-2.18275e-05
-5.35678e-07
-3.16661e-05
-1.71865e-06
-4.96307e-05
-5.16769e-06
-7.93157e-05
-1.59481e-05
-8.20543e-05
-7.97894e-05
-3.3725e-05
-0.00015457
-5.39017e-05
1.67006e-06
3.8491e-05
1.07358e-05
-1.54666e-06
2.20209e-05
-5.89685e-05
3.66056e-05
-7.32959e-05
4.60767e-05
-6.42392e-05
4.54636e-05
-4.27238e-05
8.76696e-06
3.23443e-05
-3.88811e-05
0.000196917
-1.11968e-05
1.09039e-05
-1.60456e-06
2.26372e-06
-1.86612e-07
1.19085e-07
-2.60348e-07
-1.45689e-09
-7.91545e-07
-1.04363e-08
-2.32385e-06
-1.86246e-07
-6.45862e-06
-1.02837e-06
-1.7777e-05
-4.65482e-06
-7.09908e-05
-2.86645e-05
-4.23297e-05
-0.00018434
-9.62301e-05
8.23928e-06
2.91538e-05
2.47969e-05
-7.60604e-06
3.77233e-05
-7.18756e-05
5.06343e-05
-8.62048e-05
5.62922e-05
-6.98972e-05
5.12474e-05
-3.76787e-05
1.19655e-05
5.99649e-05
4.45404e-06
0.000184259
-1.32027e-06
1.21548e-05
-1.53672e-07
1.06596e-06
-5.73563e-08
2.06799e-08
-6.30614e-08
2.43932e-09
-8.0969e-08
-2.02946e-10
-2.34284e-07
-3.26051e-08
-1.00078e-06
-2.61774e-07
-3.88403e-06
-1.77431e-06
-2.14869e-05
-1.08045e-05
-4.47864e-05
-0.000159765
-0.000141013
1.50729e-05
4.18195e-05
3.61813e-05
-2.39846e-05
5.03639e-05
-8.59964e-05
6.14662e-05
-9.7281e-05
6.52486e-05
-7.36762e-05
5.84955e-05
-3.09217e-05
2.5747e-05
9.19092e-05
6.22938e-06
0.000209334
4.4281e-07
1.98221e-05
-2.12119e-08
1.53425e-06
-1.07576e-08
1.07219e-08
-1.17569e-08
3.635e-09
-1.30048e-08
1.49332e-09
-3.86182e-08
-6.68895e-09
-2.32683e-07
-6.83503e-08
-1.41083e-06
-5.99181e-07
-6.95039e-06
-5.26872e-06
-3.9886e-05
-0.000124651
-0.000180881
2.20703e-05
2.13097e-05
4.62569e-05
-4.81384e-05
5.81786e-05
-9.78555e-05
6.71339e-05
-0.000106174
6.95295e-05
-7.38135e-05
6.36589e-05
-2.30729e-05
4.06495e-05
0.000114985
1.65579e-05
0.00024626
1.69014e-06
3.47225e-05
3.8957e-08
3.18368e-06
-5.32555e-09
5.59724e-08
-6.77077e-09
5.20201e-09
-8.6478e-09
3.39803e-09
-1.24901e-08
-2.70213e-09
-6.03874e-08
-2.05639e-08
-5.07141e-07
-1.53381e-07
-3.73106e-06
-2.06376e-06
-3.07808e-05
-9.52387e-05
-0.000211582
3.28e-05
-1.14873e-05
5.2502e-05
-6.78245e-05
5.89345e-05
-0.000104261
6.23272e-05
-0.000109409
4.75433e-05
-4.9234e-05
5.08536e-05
-7.61223e-06
4.93826e-05
0.000119876
2.63428e-05
0.000229667
2.18499e-06
4.69461e-05
2.93325e-07
5.05496e-06
-1.26673e-09
3.52764e-07
-4.62122e-09
8.61269e-09
-5.84826e-09
4.61313e-09
-7.18246e-09
-1.36559e-09
-1.82241e-08
-9.64369e-09
-1.39903e-07
-3.28428e-08
-2.00775e-06
-2.12878e-07
-2.02583e-05
-7.39441e-05
-0.000231556
6.67939e-06
-2.33649e-08
7.39905e-06
-3.73899e-07
5.07511e-06
-1.02685e-07
3.81086e-06
-1.96509e-07
3.50562e-06
-3.98512e-07
3.76414e-06
-2.85489e-07
4.41522e-06
-5.72448e-07
4.63855e-06
-3.24753e-07
4.58128e-06
5.66243e-07
4.68486e-06
2.29362e-06
4.53741e-06
5.15239e-06
2.63094e-06
8.48468e-06
-1.69862e-07
9.99169e-06
-1.11297e-06
7.01519e-06
5.17403e-07
2.29734e-06
2.01168e-06
1.82963e-06
3.21132e-06
1.96516e-06
5.40613e-06
3.13477e-07
9.03875e-06
-2.15339e-06
1.29758e-05
-3.84564e-06
1.72322e-05
-4.71995e-06
2.08076e-05
-7.9527e-06
-5.92116e-06
3.00509e-05
-2.31811e-08
-3.31764e-10
-3.98547e-07
-5.9697e-11
-1.21848e-06
5.49042e-10
-2.94566e-06
-7.87627e-12
-4.16935e-06
-8.08354e-11
-4.68911e-06
-6.82541e-10
-5.30861e-06
-4.68157e-09
-6.22731e-06
-2.90161e-08
-7.62987e-06
-1.61173e-07
-9.12642e-06
-5.91988e-07
-9.20784e-06
-9.91403e-07
-6.59293e-06
-5.32894e-08
-3.11548e-06
1.28984e-06
1.45276e-06
8.03587e-07
4.97873e-06
-9.42652e-07
5.64371e-06
1.16464e-06
5.04222e-06
2.56665e-06
6.35622e-06
-1.00052e-06
1.01615e-05
-5.95859e-06
1.35607e-05
-7.24474e-06
1.542e-05
-6.57911e-06
1.46873e-05
-7.21999e-06
-8.99062e-06
1.77562e-05
-3.4083e-10
3.84301e-14
-5.50424e-10
1.00134e-11
-5.8084e-13
-1.50583e-12
-8.50349e-12
-2.08511e-15
-8.94392e-11
-7.68806e-14
-7.68124e-10
-5.21112e-12
-5.45249e-09
-2.12522e-12
-3.44727e-08
7.40793e-12
-1.95643e-07
-2.71239e-12
-7.87605e-07
-2.58247e-11
-2.95125e-06
-2.29842e-10
-5.87229e-06
-1.726e-09
-8.20227e-06
-1.12735e-08
-1.03836e-05
-7.10072e-08
-1.18704e-05
-4.26334e-07
-7.76788e-06
-2.35229e-06
-2.04112e-06
-2.37261e-06
4.41677e-06
-3.25386e-06
1.2422e-05
-6.04305e-06
1.82766e-05
-6.95609e-06
2.05347e-05
-5.63736e-06
1.80845e-05
-3.29366e-06
-2.49391e-06
1.23535e-05
1.0746e-13
-3.24949e-13
1.41913e-13
1.30609e-12
-3.47539e-15
-1.40895e-12
-5.63066e-14
2.84612e-15
-1.31354e-13
-3.88776e-15
-5.38811e-12
-3.90944e-15
-7.64492e-12
7.60199e-15
-2.21484e-13
2.94675e-14
-2.95726e-12
-4.16576e-16
-2.87681e-11
-1.1019e-13
-2.5637e-10
-1.09195e-12
-1.97751e-09
-3.14436e-12
-1.32453e-08
-5.37385e-12
-8.41985e-08
-5.48034e-11
-5.10031e-07
-5.28199e-10
-2.86069e-06
-1.97056e-09
-3.4486e-06
-1.29267e-08
-4.88038e-06
-6.37348e-08
-6.57568e-06
-2.99488e-07
-6.92612e-06
-1.06535e-06
-6.51634e-06
-1.67638e-06
-1.10331e-05
2.67835e-08
4.27968e-06
-3.84223e-05
2.74903e-15
-5.59075e-15
9.6049e-13
8.00484e-14
2.94802e-14
-6.3974e-14
3.388e-15
8.89975e-14
-4.72836e-16
1.67734e-15
-8.67832e-15
1.71458e-15
-6.76046e-15
1.68091e-15
-1.16563e-15
2.42145e-15
-2.64659e-14
5.52929e-16
-1.19775e-13
4.34067e-13
-3.84181e-13
1.87832e-12
-9.22841e-13
-5.09548e-14
-4.56303e-12
-1.38636e-14
-4.71953e-11
-1.18761e-11
-2.78623e-10
-3.00504e-10
-1.98043e-09
-2.67192e-10
-1.51199e-08
-1.29559e-10
-8.13813e-08
-5.47366e-11
-3.87983e-07
-6.95202e-09
-1.43476e-06
-8.45882e-08
-2.94899e-06
-4.541e-07
-3.46245e-06
-7.88864e-07
1.02665e-06
-8.88569e-05
-6.35993e-15
6.18887e-16
3.95562e-14
3.63032e-15
1.00726e-14
-4.55811e-16
9.73284e-15
9.08871e-15
1.31323e-16
1.47731e-15
9.44601e-17
9.82277e-16
1.65393e-16
7.73333e-16
-1.20763e-14
1.08137e-14
-3.23356e-12
9.16094e-13
-6.48764e-12
2.0612e-12
-4.68183e-12
3.50292e-12
2.46624e-12
2.17371e-12
-1.87178e-12
4.61911e-12
-1.17047e-09
1.38519e-10
-1.48456e-09
1.26322e-10
-1.72088e-09
1.93138e-10
3.09405e-10
1.27182e-10
-4.56456e-10
2.63055e-10
-1.50507e-08
1.67915e-09
-1.50987e-07
3.13201e-09
-7.5948e-07
1.19093e-08
-2.25698e-06
4.44053e-08
7.30168e-08
-7.83702e-05
-1.31723e-16
5.42997e-17
9.44461e-16
9.52357e-17
4.01347e-16
1.60385e-16
3.16188e-16
1.76211e-16
9.16525e-18
1.79289e-16
3.55242e-18
2.89991e-16
-2.58203e-16
3.21115e-16
-1.22563e-14
2.1865e-14
-5.61719e-12
1.637e-12
-7.8311e-12
5.40328e-12
-7.62165e-12
4.40234e-12
1.85926e-12
1.73334e-12
2.20073e-12
1.40607e-12
-5.61619e-10
9.45197e-12
-1.18169e-09
5.92754e-11
-3.36616e-10
2.33777e-11
-3.18828e-10
1.48951e-11
-6.67273e-10
2.01181e-10
-3.59934e-09
2.66462e-09
-6.26213e-09
3.50259e-09
-2.65602e-08
1.33638e-09
-5.34367e-07
-1.18831e-08
-1.24651e-07
-1.05844e-06
-4.19324e-18
3.66336e-18
1.15732e-17
1.51597e-17
9.21832e-18
1.88491e-17
3.1104e-18
2.61786e-17
-8.14691e-18
1.50592e-16
-2.21332e-17
3.03226e-16
-5.57297e-17
3.44296e-16
1.28333e-14
8.6393e-15
-2.7338e-12
3.88806e-13
-7.93381e-12
3.31364e-12
-6.54395e-12
4.33411e-12
-1.47778e-12
4.05177e-13
-1.7321e-12
4.94622e-14
-1.48477e-11
-5.52219e-13
-1.59809e-11
-6.74006e-13
-2.86921e-12
2.77649e-13
-2.29066e-11
1.79581e-11
-6.08581e-10
1.78899e-10
-7.29083e-09
2.63413e-09
-1.02849e-08
3.52059e-09
-2.37463e-08
4.15911e-09
-3.77269e-08
-3.62643e-09
-2.2825e-08
-1.18143e-07
-3.3535e-19
2.24292e-19
-1.00498e-19
6.46777e-19
2.5118e-20
8.78352e-19
-2.16619e-18
1.1151e-17
-1.9078e-17
1.34907e-16
-4.10276e-17
3.33696e-16
-5.51344e-17
4.4287e-16
7.36975e-15
7.89839e-16
-3.85134e-13
-1.00026e-14
-1.63915e-12
-1.79638e-14
-4.19725e-13
2.67284e-14
-2.84646e-13
7.14307e-14
-3.01883e-13
1.47071e-13
-3.54462e-13
3.46668e-14
-6.65211e-13
-1.33322e-13
-1.2373e-12
9.48671e-14
1.07359e-11
2.69637e-12
3.33089e-11
5.32462e-11
-3.67053e-10
3.15011e-11
-7.718e-09
1.78422e-10
-1.23798e-08
6.17813e-09
-1.5422e-08
5.16e-09
2.12868e-08
-1.32913e-08
-1.54696e-20
1.38276e-20
-1.50992e-20
2.06427e-20
-3.652e-20
5.88137e-20
-2.15799e-18
4.38736e-18
-1.8958e-17
6.99972e-17
-5.10499e-17
2.65503e-16
-9.63729e-17
4.81661e-16
-2.7386e-16
6.76501e-16
-1.23326e-14
8.76802e-16
-4.14196e-14
-7.47526e-15
-2.86896e-14
-3.05495e-15
-1.35959e-13
5.09808e-14
-2.82978e-13
1.86326e-13
-1.49731e-13
2.55127e-13
1.43559e-14
4.71702e-14
-2.09928e-13
7.58666e-14
-5.90247e-12
2.97899e-12
5.66973e-12
9.23646e-13
-4.70982e-11
3.67631e-11
-2.26619e-09
4.10634e-10
-6.39568e-09
6.05884e-09
-1.01909e-08
1.35102e-08
1.70102e-08
-8.89155e-09
-3.32641e-22
9.17093e-22
-6.72654e-22
8.87984e-22
-1.1002e-20
7.98834e-21
-7.27066e-19
1.04069e-18
-9.31234e-18
1.81353e-17
-4.68319e-17
1.24455e-16
-1.00767e-16
4.31712e-16
-1.77416e-16
6.98288e-16
-7.12026e-16
1.13427e-15
-4.46037e-15
6.85089e-15
-2.16625e-14
3.08277e-14
-9.30278e-14
1.20072e-13
-2.23561e-13
1.88252e-13
-6.13296e-14
2.10312e-13
-2.85646e-14
1.28343e-14
-1.32847e-13
3.04102e-14
6.79695e-13
1.65977e-13
-3.17559e-12
2.43045e-12
-3.35488e-11
5.73091e-11
-2.05386e-09
8.29187e-10
-7.31868e-09
9.1844e-09
-9.4479e-09
1.77131e-08
1.5758e-08
-1.14576e-08
-1.2719e-23
7.43427e-22
-3.2619e-23
6.96928e-22
-2.54886e-21
1.56382e-21
-1.38076e-19
2.01024e-19
-2.51804e-18
3.48327e-18
-2.96038e-17
3.97557e-17
-9.02628e-17
2.81571e-16
-1.58586e-16
6.46533e-16
-9.17644e-16
1.16076e-15
-1.40896e-14
1.84807e-14
-5.59621e-14
9.98808e-14
-8.13608e-14
1.46811e-13
-7.05673e-14
9.14654e-14
-5.1541e-15
9.16397e-15
-3.12824e-15
1.47876e-15
4.2423e-15
7.83672e-15
-1.17528e-14
1.28503e-13
-1.87449e-12
3.62115e-12
-5.51898e-11
9.94351e-11
-5.24652e-09
1.54682e-09
-8.89155e-09
1.05594e-08
-1.11898e-08
1.96941e-08
1.6883e-08
-1.55862e-08
1.06153e-23
-1.07728e-22
-6.42478e-23
-2.89991e-22
-5.19437e-22
2.28909e-22
-2.41423e-20
3.90533e-20
-5.18554e-19
7.0267e-19
-1.20752e-17
1.0229e-17
-5.53544e-17
1.20933e-16
-1.15357e-16
4.03792e-16
-1.10117e-15
1.07041e-15
-2.49164e-14
2.18138e-14
-5.83055e-14
1.1153e-13
-4.58959e-14
1.47557e-13
-4.08247e-15
2.26579e-14
-8.94017e-16
1.7557e-15
-9.45813e-16
1.00625e-15
-3.29143e-16
4.10037e-15
1.70399e-14
8.43296e-14
1.21686e-12
1.87467e-12
5.39809e-11
3.59907e-11
-4.2824e-09
6.17789e-10
-2.0602e-08
7.97032e-09
-1.44823e-08
1.80781e-08
2.15388e-08
-2.18515e-08
1.13405e-23
-2.91152e-22
-7.26496e-24
-3.9017e-22
-8.35775e-23
1.53013e-22
-4.37418e-21
6.56822e-21
-9.35542e-20
1.39347e-19
-2.93111e-18
2.04778e-18
-1.93e-17
3.19575e-17
-6.12946e-17
1.70062e-16
-1.1237e-15
9.30109e-16
-2.12164e-14
1.75687e-14
-3.68674e-14
6.59082e-14
-1.10307e-14
6.85606e-14
-1.4254e-15
5.77784e-15
-4.90088e-16
1.92587e-15
-5.72138e-16
7.62052e-16
-1.74952e-15
1.38053e-15
4.44735e-14
2.47583e-14
1.20088e-12
5.15845e-13
2.33529e-11
9.89192e-12
4.15912e-10
1.60396e-10
-1.12517e-08
9.99804e-10
1.07959e-09
1.07278e-08
5.16996e-08
-3.78513e-09
7.76977e-24
-3.0527e-22
6.8675e-24
-3.38176e-22
-2.35846e-22
-1.63898e-22
-7.00253e-22
7.74622e-22
-1.50126e-20
2.34955e-20
-4.66412e-19
3.61043e-19
-4.57822e-18
6.8869e-18
-2.76752e-17
6.35316e-17
-7.35078e-16
5.47025e-16
-8.03154e-15
5.10218e-15
-9.6779e-15
1.14989e-14
-2.70154e-15
9.34639e-15
-1.30754e-15
2.94019e-15
-3.22591e-16
2.37782e-15
-2.28919e-16
4.61771e-16
-1.99698e-16
3.12536e-16
1.56314e-14
4.73926e-15
3.98797e-13
9.81322e-14
7.67056e-12
1.6118e-12
1.27225e-10
2.43178e-11
-2.1947e-09
2.51654e-10
-1.33957e-08
4.81419e-09
4.05397e-08
-8.30731e-10
4.48527e-24
-2.67367e-22
1.29958e-23
-2.46166e-22
-2.33612e-23
-3.57178e-22
-7.78511e-23
4.889e-23
-2.05022e-21
3.14763e-21
-6.69994e-20
6.84961e-20
-1.44354e-18
1.88714e-18
-1.58281e-17
3.04526e-17
-1.95742e-16
1.95803e-16
-8.41162e-16
4.93903e-16
-9.69789e-16
6.44589e-16
-7.42083e-16
6.47006e-16
-7.2769e-16
1.27466e-15
-1.44036e-16
1.72022e-15
-7.03569e-17
1.782e-16
-1.23748e-16
7.52733e-17
1.64242e-15
1.02622e-15
7.04283e-14
1.33186e-14
1.27046e-12
2.18622e-13
1.9291e-11
3.05397e-12
1.86395e-10
4.02725e-11
-1.8543e-09
2.36453e-10
2.74459e-08
-1.6755e-09
2.25647e-24
-2.11974e-22
1.03276e-23
-1.55677e-22
-1.39958e-24
-3.32586e-22
-5.00638e-24
2.99388e-23
-2.37681e-22
3.42186e-22
-1.13881e-20
1.43721e-20
-6.4175e-19
5.60437e-19
-9.82799e-18
1.302e-17
-3.21414e-17
5.63538e-17
-5.05625e-17
6.22757e-17
-6.15089e-17
6.25877e-17
-1.27614e-16
6.78633e-17
-1.98726e-16
2.27421e-16
-3.80731e-17
3.70096e-16
-1.19411e-17
3.7097e-17
-2.62118e-17
1.45985e-17
-2.26199e-16
1.79489e-16
7.80832e-15
2.47034e-15
1.63768e-13
1.99865e-14
2.24493e-12
2.58995e-13
2.96193e-11
3.55213e-12
9.59195e-11
5.88925e-11
1.86794e-09
-4.79486e-10
9.88293e-25
-1.54316e-22
5.99446e-24
-8.66783e-23
6.90845e-25
-2.31086e-22
-1.24981e-23
-1.73557e-23
-2.88726e-23
3.76483e-23
-2.01589e-21
3.02854e-21
-1.69288e-19
1.13018e-19
-2.69834e-18
2.50427e-18
-5.38173e-18
1.09405e-17
-6.88556e-18
1.48044e-17
-7.24117e-18
1.75407e-17
-1.21607e-17
1.44577e-17
-2.10137e-17
1.70794e-17
-4.71475e-18
2.23021e-17
-1.53987e-18
3.96261e-18
-2.3392e-18
2.11868e-18
-4.6319e-17
1.6261e-17
-2.67728e-16
4.69155e-16
1.14742e-14
4.46398e-15
1.69576e-13
1.52857e-14
2.01309e-12
4.18989e-13
4.81085e-12
1.45441e-11
1.92583e-10
6.60412e-10
3.67241e-25
-1.03281e-22
2.81465e-24
-4.25925e-23
1.01663e-24
-1.33864e-22
-1.27562e-24
-3.10919e-23
-4.39737e-24
4.81892e-24
-3.16195e-22
5.44218e-22
-1.81629e-20
1.43424e-20
-2.59359e-19
2.16437e-19
-7.70779e-19
1.23801e-18
-1.44666e-18
3.20991e-18
-1.42904e-18
5.37276e-18
-9.98349e-19
4.04754e-18
-1.08238e-18
1.46767e-18
-2.90672e-19
1.18149e-18
-1.24877e-19
2.78536e-19
-1.54752e-19
2.00929e-19
-2.02692e-18
1.27906e-18
-4.71316e-17
3.72425e-17
-1.11796e-16
9.1552e-16
1.78265e-15
5.51923e-15
2.12553e-13
9.49118e-14
1.13881e-11
2.09245e-12
2.34595e-11
1.64065e-10
1.09553e-25
-6.34656e-23
1.08301e-24
-1.84165e-23
5.99805e-25
-6.67497e-23
-1.22003e-25
-2.347e-23
-5.98441e-25
5.05784e-25
-3.91996e-23
7.13513e-23
-1.27743e-21
1.65206e-21
-1.70769e-20
2.02382e-20
-8.05339e-20
1.32883e-19
-2.16215e-19
4.51766e-19
-2.20261e-19
8.68257e-19
-8.61541e-20
7.7365e-19
-5.98372e-20
1.91067e-19
-1.20488e-20
1.01622e-19
-5.27539e-21
2.06744e-20
-4.89992e-21
1.44938e-20
-2.9923e-20
9.85826e-20
3.0672e-19
2.82957e-18
3.86745e-17
7.42673e-17
1.70466e-15
1.15273e-15
7.86649e-14
9.41731e-15
1.80552e-12
2.20124e-13
2.54939e-12
2.07323e-11
2.30042e-26
-3.57599e-23
3.339e-25
-6.97731e-24
2.35204e-25
-2.89628e-23
-7.71172e-27
-1.27092e-23
-4.51256e-26
2.74117e-26
-3.39617e-24
6.69458e-24
-9.96623e-23
2.01915e-22
-1.32012e-21
2.72296e-21
-6.29126e-21
1.67653e-20
-1.55596e-20
4.59307e-20
-1.50007e-20
7.32309e-20
-5.52315e-21
7.40749e-20
-2.25359e-21
2.51501e-20
-2.16726e-22
1.04791e-20
1.94707e-23
1.72807e-21
1.89104e-22
1.02162e-21
5.40715e-21
7.8426e-21
2.74281e-19
2.38338e-19
9.65603e-18
5.94304e-18
2.32879e-16
1.14614e-16
7.86348e-15
1.05424e-15
2.03172e-13
1.67609e-14
2.24884e-13
2.33274e-12
1.3677e-27
-1.84625e-23
7.66069e-26
-2.30881e-24
6.46196e-26
-1.09878e-23
-2.92991e-28
-5.5539e-24
-1.76641e-27
2.00856e-26
-1.96803e-25
5.0223e-25
-6.82528e-24
2.24902e-23
-8.21173e-23
3.45346e-22
-2.76464e-22
1.85513e-21
-3.94368e-22
4.02283e-21
-1.74513e-22
5.38366e-21
1.46588e-22
5.40591e-21
1.44211e-22
2.694e-21
1.00818e-22
9.6282e-22
3.12234e-23
1.18979e-22
4.58506e-23
6.80992e-23
9.40749e-22
5.71876e-22
4.0443e-20
1.90727e-20
1.31277e-18
5.19072e-19
2.93456e-17
9.60606e-18
5.44714e-16
1.4118e-16
1.39944e-14
1.20896e-15
1.81078e-14
2.05468e-13
-1.27424e-26
-8.73272e-24
9.51049e-27
-6.67592e-25
1.01937e-26
-3.65811e-24
2.01566e-28
-2.05256e-24
-1.64971e-27
-3.6842e-26
-3.69758e-27
3.29969e-26
-5.80127e-26
1.91276e-24
7.78698e-25
3.09676e-23
1.16149e-23
1.53621e-22
4.05513e-23
3.21663e-22
7.62392e-23
4.27001e-22
1.1072e-22
4.29018e-22
4.82726e-23
2.30261e-22
1.47811e-23
5.94707e-23
3.51855e-24
8.87141e-23
4.2629e-24
5.27155e-23
9.86638e-23
4.73242e-23
4.54651e-21
1.52352e-21
1.59567e-19
5.25244e-20
3.59652e-18
1.09949e-18
5.65209e-17
1.41493e-17
8.71807e-16
1.45761e-16
1.43119e-15
1.48023e-14
-1.24865e-26
-3.78633e-24
-3.47164e-28
-1.69792e-25
-1.69921e-27
-1.07349e-24
-2.24597e-27
-6.56682e-25
-1.9439e-28
-3.13011e-26
6.24568e-28
1.90715e-27
2.64386e-26
1.22715e-25
5.64848e-25
2.04422e-24
3.36732e-24
1.0353e-23
8.33073e-24
2.30028e-23
1.26779e-23
3.17574e-23
1.62946e-23
3.14414e-23
5.60563e-24
1.35081e-23
5.05483e-24
1.27728e-23
-2.70539e-25
-1.72659e-24
-3.4782e-24
-1.77267e-23
1.11787e-23
2.81846e-23
4.55607e-22
1.20092e-22
2.06063e-20
6.40844e-21
5.45226e-19
1.83878e-19
7.90077e-18
2.42322e-18
9.49377e-17
2.22165e-17
2.27721e-16
1.33302e-15
-7.7248e-27
-1.50676e-24
-2.48238e-28
-3.86586e-26
-2.20205e-27
-2.79001e-25
-2.1276e-27
-1.8453e-25
-2.42836e-28
-1.45757e-26
2.90906e-28
2.44398e-28
3.40666e-27
6.80926e-27
6.78525e-26
1.16903e-25
3.84376e-25
6.21282e-25
9.0714e-25
1.42329e-24
1.30056e-24
1.94641e-24
1.47824e-24
1.7118e-24
6.89358e-25
7.44581e-25
2.70228e-25
1.69106e-24
-4.13673e-24
-2.10907e-23
-6.97805e-24
-2.91634e-23
-8.83129e-25
-3.03966e-24
4.30728e-23
9.27027e-24
2.97389e-21
9.30601e-22
1.08951e-19
4.00597e-20
1.79096e-18
6.92386e-19
1.88746e-17
6.37086e-18
6.86883e-17
2.28984e-16
-3.8326e-27
-5.51239e-25
-8.74852e-29
-8.14382e-27
-9.09719e-28
-6.46211e-26
-8.90905e-28
-4.60445e-26
-1.31257e-28
-4.9932e-27
6.13846e-29
5.17563e-29
2.87686e-28
3.65098e-28
5.67464e-27
6.38271e-27
3.17452e-26
3.44774e-26
7.19206e-26
7.77364e-26
9.84801e-26
9.4721e-26
1.06621e-25
9.26102e-26
7.61061e-26
4.82615e-25
-1.07971e-24
-5.66052e-24
-4.05376e-24
-1.76426e-23
-5.84414e-24
-2.11862e-23
-2.36985e-24
-7.17775e-24
4.81335e-24
2.97769e-24
5.01121e-22
1.69304e-22
2.67717e-20
1.05369e-20
5.77332e-19
2.45856e-19
6.64286e-18
2.59806e-18
2.68374e-17
8.11702e-17
-1.64216e-27
-1.85738e-25
-2.48244e-29
-1.68925e-27
-2.64656e-28
-1.34294e-26
-2.71862e-28
-1.02951e-26
-4.87384e-29
-1.38546e-27
2.26657e-30
7.5129e-31
2.01806e-29
1.7686e-29
3.98616e-28
3.3018e-28
2.18454e-27
1.7604e-27
4.44679e-27
4.06759e-27
6.56904e-27
3.68677e-26
9.88844e-27
6.52635e-26
-1.46144e-25
-8.05099e-25
-9.675e-25
-4.4648e-24
-2.5381e-24
-9.84018e-24
-3.43068e-24
-1.12049e-23
-1.78899e-24
-4.9329e-24
1.01853e-24
1.70163e-25
1.04959e-22
3.78215e-23
7.92224e-21
3.16368e-21
2.23082e-19
9.55616e-20
2.76561e-18
1.07774e-18
9.25224e-18
3.08438e-17
-6.29362e-28
-5.77424e-26
-6.8932e-30
-3.76217e-28
-6.25508e-29
-2.52165e-27
-6.83275e-29
-2.07909e-27
-1.41065e-29
-3.26683e-28
-1.23561e-31
-2.26208e-30
1.22548e-30
1.1119e-30
2.38068e-29
1.76913e-29
1.32634e-28
9.58246e-29
3.71285e-28
3.09675e-27
2.85432e-28
1.99441e-27
-1.30472e-26
-7.66667e-26
-1.25727e-25
-6.23406e-25
-5.31387e-25
-2.22906e-24
-1.20173e-24
-4.27693e-24
-1.56734e-24
-4.74003e-24
-9.20023e-25
-2.36677e-24
-7.95242e-26
-1.74124e-25
2.43733e-23
8.2448e-24
2.41709e-21
8.64846e-22
8.84243e-20
3.4459e-20
1.12849e-18
4.12005e-19
2.43154e-18
9.16289e-18
-2.2081e-28
-1.65853e-26
-2.05459e-30
-9.52657e-29
-1.2545e-29
-4.30907e-28
-1.46754e-29
-3.81933e-28
-3.37378e-30
-6.73523e-29
-6.78441e-32
-1.07957e-30
1.21959e-31
7.00862e-31
1.46207e-30
1.33983e-29
7.9559e-30
7.11084e-29
-2.65221e-29
-1.99242e-28
-1.11513e-27
-7.07703e-27
-1.04774e-26
-5.63937e-26
-6.29856e-26
-2.88475e-25
-2.20505e-25
-8.61327e-25
-4.58868e-25
-1.53168e-24
-5.84442e-25
-1.6691e-24
-3.6577e-25
-8.94449e-25
-5.02765e-26
-1.05247e-25
4.95637e-24
1.35247e-24
5.93961e-22
1.63994e-22
2.92044e-20
9.10134e-21
4.07748e-19
1.29797e-19
6.34615e-19
2.38824e-18
-7.10851e-29
-4.40525e-27
-6.49618e-31
-2.65211e-29
-2.20318e-30
-6.75099e-29
-2.76096e-30
-6.42385e-29
-6.89682e-31
-1.23782e-29
-2.64687e-32
-3.80955e-31
-7.77941e-32
-9.16864e-31
-3.85526e-31
-3.77693e-30
-4.22185e-30
-3.47137e-29
-6.34103e-29
-4.40738e-28
-7.01851e-28
-4.14571e-27
-4.78333e-27
-2.41101e-26
-2.36691e-26
-1.02106e-25
-7.43183e-26
-2.7511e-25
-1.46423e-25
-4.65804e-25
-1.83132e-25
-5.01136e-25
-1.18766e-25
-2.79675e-25
-1.94973e-26
-3.94953e-26
7.46472e-25
1.46825e-25
9.89984e-23
1.90115e-23
6.72335e-21
1.48745e-21
1.15881e-19
2.87013e-20
1.60855e-19
6.35664e-19
-2.07089e-29
-1.0826e-27
-2.02029e-31
-7.43865e-30
-3.44973e-31
-9.77368e-30
-4.61027e-31
-9.95308e-30
-1.22898e-31
-2.057e-30
-8.61016e-33
-1.16027e-31
-4.8558e-32
-5.38067e-31
-3.64535e-31
-3.36921e-30
-3.29744e-30
-2.56729e-29
-3.23556e-29
-2.13714e-28
-2.75799e-28
-1.55376e-27
-1.63089e-27
-7.86773e-27
-7.20068e-27
-2.98447e-26
-2.10444e-26
-7.51039e-26
-3.98684e-26
-1.22706e-25
-4.91116e-26
-1.30495e-25
-3.24363e-26
-7.44179e-26
-5.86596e-27
-1.1612e-26
8.13251e-26
1.09526e-26
1.08994e-23
1.46245e-24
1.00756e-21
1.52906e-22
2.33433e-20
4.15629e-21
3.06732e-20
1.49909e-19
-5.43017e-30
-2.46244e-28
-5.80109e-32
-1.97333e-30
-4.86964e-32
-1.31903e-30
-6.88381e-32
-1.42904e-30
-1.93232e-32
-3.12635e-31
-2.39575e-33
-3.13549e-32
-1.80885e-32
-1.95155e-31
-1.51083e-31
-1.36283e-30
-1.29962e-30
-9.89256e-30
-1.10572e-29
-7.15167e-29
-8.26561e-29
-4.56643e-28
-4.48601e-28
-2.12585e-27
-1.83464e-27
-7.47983e-27
-5.09165e-27
-1.78997e-26
-9.35922e-27
-2.84151e-26
-1.13783e-26
-2.98559e-26
-7.56647e-27
-1.71619e-26
-1.45246e-27
-2.84499e-27
7.18076e-27
6.1135e-28
8.58401e-25
8.79411e-26
1.03543e-22
1.15272e-23
3.29261e-21
4.33548e-22
4.04425e-21
2.63667e-20
-1.29079e-30
-5.18464e-29
-1.4984e-32
-4.83501e-31
-6.2502e-33
-1.67644e-31
-9.232e-33
-1.91246e-31
-2.69848e-33
-4.38906e-32
-5.73236e-34
-7.57668e-33
-5.0681e-33
-5.53849e-32
-4.43821e-32
-4.06184e-31
-3.71503e-31
-2.87173e-30
-2.92428e-30
-1.92159e-29
-2.00921e-29
-1.12787e-28
-1.0278e-28
-4.94806e-28
-3.97404e-28
-1.64552e-27
-1.06e-27
-3.78278e-27
-1.90091e-27
-5.85394e-27
-2.28114e-27
-6.06672e-27
-1.51341e-27
-3.47471e-27
-3.00448e-28
-5.94793e-28
6.32974e-28
2.44755e-29
5.37341e-26
4.83417e-27
8.13351e-24
7.64904e-25
3.57937e-22
3.9639e-23
4.32858e-22
3.48172e-21
-2.79515e-31
-1.01038e-29
-3.47419e-33
-1.08882e-31
-7.39318e-34
-2.03144e-32
-1.11662e-33
-2.39976e-32
-3.36554e-34
-5.74487e-33
-1.18113e-34
-1.6481e-33
-1.14402e-33
-1.32461e-32
-1.02626e-32
-9.97055e-32
-8.42837e-32
-6.92067e-31
-6.30126e-31
-4.39764e-30
-4.07282e-30
-2.42682e-29
-1.99204e-29
-1.01688e-28
-7.3724e-29
-3.23228e-28
-1.9033e-28
-7.18008e-28
-3.33824e-28
-1.08445e-27
-3.9507e-28
-1.10566e-27
-2.59045e-28
-6.24089e-28
-5.18305e-29
-1.07318e-28
6.53126e-29
9.70144e-30
3.08694e-27
3.01757e-28
5.69664e-25
5.63088e-26
3.46376e-23
3.80553e-24
4.55764e-23
3.92003e-22
-5.47785e-32
-1.82246e-30
-7.21505e-34
-2.2486e-32
-8.19424e-35
-2.38113e-33
-1.22306e-34
-2.84054e-33
-3.77214e-35
-7.07522e-34
-2.10292e-35
-3.2532e-34
-2.14812e-34
-2.77134e-33
-1.95101e-33
-2.11686e-32
-1.57785e-32
-1.44797e-31
-1.13525e-31
-8.85457e-31
-6.99666e-31
-4.65554e-30
-3.29964e-30
-1.87842e-29
-1.17772e-29
-5.74784e-29
-2.95513e-29
-1.23808e-28
-5.07109e-29
-1.82515e-28
-5.9044e-29
-1.82495e-28
-3.78711e-29
-1.00408e-28
-7.42396e-30
-1.68466e-29
3.60952e-30
3.48133e-31
2.00091e-28
2.64783e-29
4.39377e-26
5.54565e-27
3.35249e-24
4.08073e-25
4.85885e-24
4.09519e-23
-9.61391e-33
-3.04412e-31
-1.33092e-34
-4.248e-33
-8.63232e-36
-2.73971e-34
-1.22016e-35
-3.19077e-34
-3.8269e-36
-8.27424e-35
-3.25669e-36
-5.87839e-35
-3.42749e-35
-5.19324e-34
-3.12606e-34
-3.9995e-33
-2.49291e-33
-2.70148e-32
-1.73946e-32
-1.60257e-31
-1.03101e-31
-8.09817e-31
-4.71418e-31
-3.16323e-30
-1.63068e-30
-9.36278e-30
-3.98543e-30
-1.95977e-29
-6.69101e-30
-2.81835e-29
-7.64052e-30
-2.75498e-29
-4.74199e-30
-1.46155e-29
-8.83632e-31
-2.32138e-30
-7.56053e-33
-1.68593e-32
1.66658e-29
3.06731e-30
4.046e-27
6.45228e-28
3.22196e-25
4.30865e-26
4.71927e-25
3.87655e-24
-1.5044e-33
-4.71537e-32
-2.16382e-35
-7.34042e-34
-8.70661e-37
-3.12825e-35
-1.11395e-36
-3.42057e-35
-3.53605e-37
-9.27189e-36
-4.41346e-37
-9.80774e-36
-4.70456e-36
-8.86503e-35
-4.28799e-35
-6.85538e-34
-3.37355e-34
-4.57821e-33
-2.29497e-33
-2.64843e-32
-1.31691e-32
-1.29414e-31
-5.86057e-32
-4.91252e-31
-1.97237e-31
-1.41129e-30
-4.70418e-31
-2.87474e-30
-7.72267e-31