/*--------------------------------*- C++ -*----------------------------------*\
| =========                 |                                                 |
| \\      /  F ield         | OpenFOAM: The Open Source CFD Toolbox           |
|  \\    /   O peration     | Version:  2206                                  |
|   \\  /    A nd           | Website:  www.openfoam.com                      |
|    \\/     M anipulation  |                                                 |
\*---------------------------------------------------------------------------*/
FoamFile
{
    version     2.0;
    format      ascii;
    arch        "LSB;label=32;scalar=64";
    class       volScalarField;
    location    "0.825";
    object      p;
}
// * * * * * * * * * * * * * * * * * * * * * * * * * * * * * * * * * * * * * //

dimensions      [1 -1 -2 0 0 0 0];

internalField   nonuniform List<scalar> 
2268
(
767.08
766.625
766.737
768.526
776.036
791.628
812.605
834.446
854.381
870.439
880.511
883.479
879.705
871.019
859.823
846.973
834.327
823.876
817.761
821.674
835.746
851.402
857.021
707.627
706.536
705.871
706.618
713.304
729.945
752.988
775.821
796.381
812.9
823.174
826.034
821.898
812.696
801.227
789.892
778.757
766.12
756.373
760.252
774.962
789.327
796.102
643.636
642.152
641.63
642.244
649.174
667.929
692.854
717.444
739.242
756.655
767.328
769.932
764.984
754.719
742.41
731.243
720.742
708.207
699.106
703.634
717.8
729.115
735.25
575.661
574.299
574.594
575.383
582.559
603.354
632.147
659.577
683.214
701.906
713.11
715.22
708.867
696.904
683.127
670.629
659.59
648.748
642.148
647.147
660.653
669.998
674.901
504.929
503.925
505.328
506.597
514.612
538.664
571.981
602.684
628.486
648.763
660.559
661.816
653.307
638.831
622.967
608.735
596.862
587.895
583.482
589.197
602.603
611.455
615.062
432.443
431.746
434.566
437.17
447.138
475.373
513
546.891
575.178
597.416
609.89
609.985
598.526
580.527
561.801
545.349
532.155
523.333
521.615
529.45
544.679
554.136
555.519
359.058
358.346
363.22
368.357
381.314
413.498
454.009
491.186
523.07
548.035
561.288
559.718
544.002
521.247
499
479.961
465.278
456.376
457.642
468.577
487.527
498.635
496.402
286
284.766
292.416
301.217
317.481
352.918
395.5
435.061
471.364
500.229
514.363
508.965
487.273
459.059
433.267
411.797
395.745
386.762
391.543
406.695
431.488
444.941
439.569
923.479
835.649
775.136
787.919
822.653
754.986
652.489
617.994
587.765
558.003
515.618
491.936
494.051
528.759
587.35
677.051
779.988
866.624
955.557
869.501
757.413
690.192
712.191
755.51
693.223
596.941
552.804
530.829
494.783
452.578
437.467
447.302
478.306
536.114
620.497
729.593
807.347
902.799
794.742
663.616
607.231
642.546
699.11
648.306
542.977
491.248
474.345
426.977
368.044
376.428
398.462
421.58
465.5
558.202
682.031
739.674
857.48
707.064
577.535
540.632
589.049
661.209
621.979
490.599
440.556
405.836
355.147
310.154
320.488
344.039
366.874
393.018
485.263
645.16
749.204
852.349
624.068
505.842
486.411
547.703
636.901
600.436
448.118
390.263
339.454
311.15
299.91
300.092
304.657
309.301
319.062
414.469
625.654
781.4
862.244
556.205
445.849
443.986
510.295
613.129
576.568
407.79
346.416
319.97
300.138
296.411
296.396
290.488
268.789
236.105
353.088
598.323
811.033
866.226
503.257
406.047
417.47
476.473
575.449
546.449
373.293
320.857
311.411
295.884
290.83
289.496
281.303
254.117
221.923
347.571
588.88
785.173
855.931
458.272
388.19
387.148
437.253
523.012
509.919
340.833
304.035
297.944
284.581
281.14
281.493
273.722
251.099
246.648
358.768
543.8
723.386
806.009
172.699
170.836
182.029
202.172
226.035
254.918
294.686
343.483
392.311
431.117
447.036
434.392
399.453
359.33
327.356
302.019
281.7
272.541
283.636
307.256
347.315
367.122
331.688
68.9764
61.0407
65.0547
81.8828
105.455
129.658
159.292
203.845
269.839
351.007
405.614
382.9
314.68
253.93
213.495
179.754
146.66
136.673
141.299
166.071
264.796
339.909
217.71
32.0613
25.2152
18.3694
15.5187
19.5657
41.7895
79.9842
136.176
202.441
236.318
226.578
223.127
210.412
179.531
153.486
127.309
107.391
102.362
103.382
118.651
162.056
195.571
75.7112
16.5
10.0657
4.01806
1.8835
2.21978
4.71522
15.5917
29.8655
41.9007
21.6449
13.933
30.7217
74.188
111.287
120.691
109.564
104.588
101.412
98.8803
102.944
118.481
113.734
22.0024
5.38829
2.12983
0.18205
-0.920149
-1.53135
-1.65399
-1.20122
-0.756641
-1.59153
-2.37689
-1.74211
0.895791
8.58766
34.1547
66.4145
74.956
84.3371
97.7563
97.2612
95.8868
93.0869
68.007
20.1061
0.577123
-0.955498
-1.70165
-2.43211
-3.01334
-3.26315
-3.15152
-2.98608
-2.776
-2.60465
-2.53504
-2.29578
-1.84331
1.22254
11.37
22.3179
48.4841
83.3829
89.7102
82.9791
72.6543
41.7033
2.09391
-0.966973
-2.16886
-2.57264
-3.05627
-3.32944
-3.35768
-3.26203
-3.15148
-3.03946
-2.92109
-2.83362
-2.77216
-2.62642
-2.49046
-2.47581
-1.05671
6.56167
18.4477
39.7612
44.5663
40.5676
18.2752
-16.6243
-1.60564
-2.91727
-3.07887
-3.41852
-3.50866
-3.45311
-3.32512
-3.21146
-3.13724
-3.09592
-3.05253
-2.98015
-2.86229
-2.72661
-2.56584
-2.43746
-2.90636
-1.89712
2.19127
4.0661
3.7636
-2.80716
-22.0043
-1.99641
-3.33004
-3.48388
-3.71603
-3.68913
-3.5628
-3.39757
-3.2659
-3.19173
-3.16689
-3.15176
-3.09856
-3.00268
-2.89329
-2.76107
-2.6301
-2.58181
-2.74459
-2.85408
-2.26536
-1.87444
-3.43498
-8.78998
-2.11657
-3.29473
-3.70772
-3.88182
-3.81193
-3.63917
-3.44554
-3.30023
-3.2164
-3.18201
-3.16258
-3.12681
-3.06445
-2.98227
-2.88988
-2.80536
-2.76237
-2.80058
-2.85247
-2.93254
-3.16366
-3.64441
-5.2188
-2.09663
-2.97142
-3.61438
-3.86061
-3.82367
-3.65615
-3.45922
-3.30693
-3.2198
-3.18028
-3.15682
-3.12668
-3.07636
-3.01005
-2.94217
-2.87748
-2.85433
-2.92272
-3.09715
-3.35938
-3.68474
-4.0286
-4.45828
-2.12854
-2.62756
-3.30646
-3.66381
-3.70965
-3.58755
-3.41478
-3.27765
-3.20379
-3.17234
-3.1544
-3.13329
-3.10141
-3.05985
-3.01607
-2.99457
-3.00589
-3.09523
-3.37129
-3.76475
-4.12774
-4.30654
-4.10848
-2.28552
-2.47459
-2.9392
-3.31168
-3.45173
-3.41276
-3.30058
-3.20869
-3.16808
-3.15879
-3.15724
-3.15292
-3.14253
-3.12873
-3.12028
-3.13804
-3.21321
-3.35566
-3.62748
-4.05556
-4.4206
-4.43167
-3.89658
-2.49234
-2.49123
-2.63123
-2.89383
-3.09343
-3.15573
-3.13697
-3.11639
-3.12241
-3.14276
-3.16324
-3.17954
-3.19211
-3.2054
-3.22911
-3.27648
-3.37797
-3.54491
-3.8001
-4.13761
-4.41763
-4.34559
-3.92707
-2.62072
-2.52481
-2.43351
-2.5631
-2.77035
-2.91097
-2.98355
-3.03486
-3.08574
-3.13352
-3.17442
-3.20914
-3.24074
-3.27456
-3.31928
-3.38618
-3.4922
-3.65157
-3.84668
-4.08863
-4.22096
-4.17673
-3.9061
-2.63316
-2.50101
-2.36069
-2.41987
-2.59973
-2.76942
-2.89515
-2.99229
-3.0726
-3.13911
-3.19445
-3.24211
-3.28609
-3.33168
-3.38578
-3.45768
-3.55667
-3.69485
-3.84478
-3.97707
-4.08561
-4.05897
-3.87194
-2.59799
-2.50626
-2.4106
-2.44922
-2.59082
-2.74844
-2.88375
-2.99497
-3.08643
-3.16163
-3.22462
-3.27937
-3.32961
-3.37969
-3.43472
-3.50082
-3.58368
-3.69191
-3.81571
-3.91999
-3.97394
-3.97923
-3.85863
-2.62873
-2.58324
-2.53825
-2.57351
-2.68035
-2.80812
-2.92819
-3.03349
-3.12336
-3.19928
-3.26415
-3.32107
-3.37292
-3.42272
-3.4739
-3.52994
-3.59399
-3.66957
-3.75905
-3.84367
-3.89313
-3.88303
-3.77827
-2.72834
-2.71235
-2.69501
-2.72809
-2.80773
-2.90567
-3.00429
-3.09616
-3.17811
-3.2497
-3.31225
-3.36766
-3.4178
-3.46451
-3.5097
-3.5551
-3.60199
-3.65035
-3.70093
-3.74992
-3.77649
-3.75623
-3.68411
-2.85576
-2.85349
-2.85158
-2.88256
-2.94288
-3.01781
-3.09714
-3.17458
-3.24637
-3.31103
-3.36867
-3.42012
-3.46638
-3.50837
-3.54691
-3.58252
-3.61526
-3.6439
-3.66597
-3.67963
-3.67677
-3.64865
-3.58649
-2.99238
-2.9925
-3.00033
-3.02942
-3.07677
-3.13528
-3.19909
-3.26345
-3.32492
-3.38167
-3.4331
-3.47927
-3.52049
-3.55705
-3.58907
-3.61639
-3.63844
-3.65392
-3.66007
-3.65403
-3.63175
-3.59036
-3.52915
-3.13099
-3.13122
-3.14325
-3.16975
-3.20802
-3.25461
-3.30621
-3.3594
-3.41135
-3.4602
-3.50504
-3.54544
-3.58125
-3.61236
-3.63852
-3.65928
-3.67389
-3.68125
-3.6796
-3.66676
-3.64058
-3.60025
-3.54531
-3.26886
-3.26934
-3.28216
-3.30552
-3.3369
-3.37452
-3.41648
-3.46035
-3.50386
-3.54537
-3.5838
-3.61852
-3.64909
-3.67517
-3.69634
-3.71209
-3.72173
-3.72441
-3.71914
-3.70474
-3.68012
-3.64405
-3.59871
-3.40508
-3.40579
-3.41793
-3.43808
-3.46394
-3.49458
-3.52884
-3.56498
-3.60121
-3.63612
-3.66866
-3.6981
-3.72387
-3.74552
-3.76258
-3.77457
-3.7809
-3.78097
-3.77415
-3.7598
-3.73741
-3.7069
-3.6703
-3.53946
-3.54029
-3.55117
-3.56827
-3.58963
-3.61468
-3.64272
-3.67245
-3.70248
-3.73161
-3.7589
-3.7836
-3.80512
-3.82298
-3.8367
-3.84586
-3.85
-3.8487
-3.84159
-3.82838
-3.80895
-3.78324
-3.7547
-3.67203
-3.67288
-3.68235
-3.6967
-3.71431
-3.73483
-3.75779
-3.78221
-3.80698
-3.83114
-3.85384
-3.87439
-3.89222
-3.90687
-3.91791
-3.92494
-3.92765
-3.92577
-3.9191
-3.90765
-3.89169
-3.87208
-3.8478
-3.80291
-3.80372
-3.8118
-3.82376
-3.83824
-3.85505
-3.87384
-3.89385
-3.91421
-3.93411
-3.95286
-3.96983
-3.98452
-3.99648
-4.00534
-4.01079
-4.01257
-4.01053
-4.00462
-3.9949
-3.98168
-3.9654
-3.94631
-3.93225
-3.933
-3.93981
-3.94972
-3.96159
-3.97534
-3.9907
-4.00705
-4.02372
-4.04004
-4.05543
-4.06935
-4.08137
-4.09108
-4.09818
-4.10241
-4.10359
-4.10162
-4.09652
-4.08839
-4.0775
-4.06425
-4.04909
-4.06025
-4.06093
-4.06662
-4.07479
-4.08449
-4.09571
-4.10824
-4.12157
-4.13517
-4.14848
-4.16104
-4.17239
-4.18216
-4.19001
-4.19568
-4.19896
-4.19972
-4.19792
-4.1936
-4.18687
-4.17799
-4.16728
-4.15519
-4.18709
-4.18769
-4.19242
-4.19912
-4.20702
-4.21615
-4.22634
-4.23719
-4.24824
-4.25905
-4.26924
-4.27844
-4.28634
-4.29264
-4.29714
-4.29967
-4.30015
-4.29855
-4.29493
-4.28941
-4.2822
-4.2736
-4.26395
-4.31293
-4.31349
-4.31737
-4.32285
-4.32926
-4.33667
-4.34493
-4.35372
-4.36266
-4.37141
-4.37964
-4.38705
-4.39339
-4.39842
-4.40196
-4.4039
-4.40418
-4.40277
-4.39976
-4.39524
-4.38943
-4.38255
-4.37492
-4.43794
-4.43847
-4.44163
-4.44609
-4.45128
-4.45725
-4.46393
-4.47102
-4.47822
-4.48525
-4.49186
-4.4978
-4.50285
-4.50683
-4.5096
-4.51106
-4.51118
-4.50996
-4.50745
-4.50377
-4.49909
-4.49359
-4.48755
-4.56227
-4.56278
-4.56533
-4.56895
-4.57311
-4.57791
-4.58327
-4.58895
-4.59471
-4.60033
-4.6056
-4.61032
-4.61431
-4.61743
-4.61957
-4.62065
-4.62065
-4.61958
-4.61749
-4.61448
-4.61069
-4.6063
-4.60149
-4.68606
-4.68653
-4.68859
-4.69151
-4.69482
-4.69864
-4.70291
-4.70742
-4.712
-4.71645
-4.72062
-4.72433
-4.72744
-4.72985
-4.73147
-4.73224
-4.73214
-4.73119
-4.72943
-4.72695
-4.72388
-4.72034
-4.7165
-4.80943
-4.80983
-4.81148
-4.81384
-4.81644
-4.81946
-4.82282
-4.82637
-4.82996
-4.83345
-4.83669
-4.83956
-4.84195
-4.84378
-4.84497
-4.84548
-4.8453
-4.84444
-4.84294
-4.84089
-4.83837
-4.83551
-4.83243
-4.93247
-4.93278
-4.93411
-4.936
-4.93802
-4.94037
-4.94299
-4.94573
-4.9485
-4.95118
-4.95366
-4.95584
-4.95764
-4.95898
-4.95983
-4.96013
-4.95988
-4.95909
-4.95781
-4.95609
-4.95403
-4.95171
-4.94926
-5.05529
-5.05547
-5.05655
-5.05805
-5.05959
-5.06139
-5.06338
-5.06546
-5.06755
-5.06957
-5.07141
-5.07302
-5.07433
-5.07528
-5.07584
-5.07598
-5.07568
-5.07497
-5.07388
-5.07246
-5.07079
-5.06894
-5.06701
-5.17794
-5.17797
-5.17887
-5.18004
-5.18118
-5.18252
-5.18399
-5.18552
-5.18705
-5.18851
-5.18984
-5.19098
-5.19189
-5.19254
-5.19288
-5.1929
-5.19259
-5.19196
-5.19106
-5.18992
-5.18859
-5.18715
-5.18568
-5.3005
-5.30036
-5.30112
-5.302
-5.3028
-5.30376
-5.30479
-5.30586
-5.30693
-5.30794
-5.30885
-5.30962
-5.31022
-5.31063
-5.31082
-5.31076
-5.31048
-5.30996
-5.30925
-5.30837
-5.30737
-5.3063
-5.30522
-5.42301
-5.42272
-5.42335
-5.42395
-5.42447
-5.42511
-5.42578
-5.42648
-5.42716
-5.4278
-5.42837
-5.42885
-5.42922
-5.42945
-5.42953
-5.42946
-5.42922
-5.42884
-5.42832
-5.42769
-5.42699
-5.42625
-5.42552
-5.54539
-5.54504
-5.54556
-5.5459
-5.54618
-5.54655
-5.54691
-5.54729
-5.54766
-5.54801
-5.54831
-5.54857
-5.54876
-5.54887
-5.54889
-5.54882
-5.54867
-5.54843
-5.54811
-5.54773
-5.54731
-5.54687
-5.54644
-5.66819
-5.66775
-5.66791
-5.668
-5.66809
-5.66822
-5.66831
-5.66842
-5.66852
-5.6686
-5.66868
-5.66873
-5.66877
-5.66878
-5.66877
-5.66873
-5.66866
-5.66856
-5.66845
-5.66831
-5.66817
-5.66802
-5.66789
317.898
320.034
331.136
345.055
163.132
157.878
183.59
218.296
37.8639
48.1047
72.6242
106.258
21.0399
26.6551
32.9469
38.8027
23.1233
22.869
22.2875
20.6406
19.9563
20.7784
18.8345
16.7186
-12.4949
13.8924
17.0306
17.1249
-28.022
-13.5253
7.72659
15.3153
-21.6351
-23.8821
-11.8783
15.4182
-8.27111
-8.3616
3.22045
18.1277
-5.44112
-5.92991
-4.63997
-2.57382
-3.8647
-4.00113
-4.45687
-3.90556
-3.2886
-2.89595
-2.45197
-1.95237
-3.46517
-3.10286
-2.63458
-2.13199
-3.60315
-3.36622
-3.0482
-2.66381
-3.6655
-3.52284
-3.34493
-3.08668
-3.70474
-3.59166
-3.45377
-3.2684
-3.66604
-3.5868
-3.48937
-3.3316
-3.58162
-3.50703
-3.41685
-3.27879
-3.50264
-3.4339
-3.3557
-3.27562
-3.46071
-3.41119
-3.36054
-3.308
-3.49199
-3.45411
-3.41582
-3.37798
-3.55823
-3.53039
-3.50251
-3.47507
-3.63893
-3.61787
-3.59693
-3.57641
-3.73056
-3.71448
-3.69849
-3.68279
-3.8286
-3.81599
-3.80351
-3.79129
-3.93116
-3.92125
-3.91147
-3.90188
-4.03711
-4.02929
-4.02158
-4.01402
-4.1457
-4.13954
-4.13347
-4.12752
-4.25645
-4.25161
-4.24685
-4.24218
-4.36899
-4.36518
-4.36144
-4.35778
-4.48287
-4.47987
-4.47694
-4.47409
-4.5978
-4.59544
-4.59314
-4.59091
-4.71358
-4.71172
-4.7099
-4.70814
-4.83012
-4.82865
-4.82722
-4.82583
-4.94744
-4.94629
-4.94517
-4.9441
-5.0656
-5.06473
-5.06388
-5.06308
-5.18464
-5.18399
-5.18337
-5.1828
-5.30448
-5.30403
-5.30361
-5.30322
-5.42504
-5.42475
-5.42448
-5.42425
-5.54617
-5.546
-5.54587
-5.54577
-5.66782
-5.66779
-5.66777
-5.66776
388.354
362.618
321.069
349.971
427.147
435.938
299.93
277.546
269.342
254.624
254.308
262.146
255.591
236.122
248.58
332.135
451.262
573.291
650.143
282.307
309.897
239.57
232.217
316.879
340.35
224.296
216.413
209.839
183.358
165.01
173.787
178.601
174.691
170.737
174.618
239.42
333.562
393.377
183.148
213.501
164.894
178.67
256.779
188.059
96.5111
81.4077
71.6672
29.2456
13.7767
17.985
29.2015
54.3369
36.3213
23.3696
58.5929
91.9415
169.29
66.4999
123.411
120.244
188.321
237.596
68.5195
12.3712
-6.49462
-8.17014
-7.10271
-6.41851
-8.83323
-9.9936
-5.07953
-1.56649
2.36594
9.82104
21.0994
109.833
21.9284
45.3911
73.6512
190.058
237.213
17.3224
-6.49215
-11.431
-9.99234
-9.17379
-9.16161
-10.0478
-10.9101
-10.1077
-7.79387
-5.46667
-2.97916
10.2663
95.094
15.5852
19.0233
32.665
164.594
272.988
5.47952
-6.94829
-10.612
-10.0625
-9.80584
-10.3259
-11.0128
-10.9056
-9.99977
-9.33208
-9.22969
-8.1794
0.485679
31.0002
16.9198
19.1107
25.1579
74.8408
257.476
65.6882
-4.40698
-9.62646
-9.96045
-10.3337
-11.0959
-11.447
-11.2624
-10.657
-10.4668
-10.8877
-10.3746
-7.29713
2.57287
19.8309
21.8258
25.0232
35.926
134.183
94.138
-10.9259
-9.72881
-10.1636
-11.2645
-12.2627
-12.2416
-11.7804
-11.1019
-10.7319
-11.1827
-10.4626
-10.0062
-5.27201
21.8813
24.0971
24.8971
27.0415
38.5707
51.2708
-10.5367
-7.84165
-10.4851
-12.339
-13.6723
-13.5489
-12.3199
-11.1832
-11.0267
-11.5994
-9.98851
-9.77459
-8.42013
24.3513
25.603
26.0042
27.5185
27.5926
24.7262
53.2494
8.25137
-8.55441
-12.1858
-12.688
-13.4883
-13.3532
-12.655
-13.7157
-11.2863
-8.97659
-8.1904
-7.17307
16.9641
17.2851
16.9933
17.3878
21.5501
41.0286
130.495
61.7524
-2.67167
-7.31962
-5.5671
-5.73132
-13.3186
-7.71451
-5.7927
-6.29069
-6.32673
-6.1951
-4.43949
0.888306
17.1248
34.4336
24.3948
16.8006
44.2491
121.191
84.5171
23.498
-2.89093
8.78049
14.3216
7.21282
8.12922
-2.59929
-3.81701
-4.26519
-4.67857
-3.37681
-1.17551
-1.08785
-1.23252
0.165481
17.8841
30.8806
47.4299
43.1979
36.4848
35.944
4.08622
7.15659
-1.88911
-3.17792
-3.03602
-3.29443
-3.59873
-3.89633
-3.08219
-1.5887
-1.54709
-1.54614
-1.56027
-1.79739
-1.32367
6.61524
17.4576
22.2022
22.2903
14.5221
-0.733389
-2.43258
-2.74741
-2.88705
-3.09147
-3.23611
-3.44855
-2.87381
-2.01984
-1.76795
-1.70198
-1.71752
-1.77793
-1.79695
-1.87322
-1.82579
-1.58794
-0.983718
-2.42554
-2.7691
-2.70109
-2.79788
-2.8879
-2.9968
-3.06856
-3.21811
-2.80424
-2.48599
-2.09273
-1.97272
-1.92674
-1.94391
-1.98176
-2.10932
-2.23091
-2.43507
-2.57858
-2.684
-2.8116
-2.80065
-2.83829
-2.89816
-2.96973
-3.0039
-3.10418
-2.74805
-2.82728
-2.37569
-2.23616
-2.16148
-2.17351
-2.22338
-2.30978
-2.41032
-2.55335
-2.68317
-2.75909
-2.83267
-2.86564
-2.9
-2.93857
-2.98341
-2.9942
-3.05706
-2.69002
-3.00916
-2.63255
-2.46433
-2.39293
-2.39636
-2.43482
-2.49764
-2.57715
-2.67418
-2.76724
-2.84127
-2.90242
-2.94001
-2.96914
-2.99348
-3.02117
-3.02379
-3.0619
-2.69204
-3.0663
-2.81698
-2.67158
-2.6107
-2.60774
-2.63385
-2.67946
-2.73903
-2.8082
-2.87755
-2.93878
-2.98932
-3.02387
-3.0466
-3.05965
-3.07685
-3.08907
-3.16591
-3.4072
-3.13501
-2.96866
-2.85811
-2.80874
-2.80139
-2.81705
-2.84875
-2.89267
-2.94439
-2.99825
-3.04852
-3.09015
-3.1176
-3.13175
-3.13381
-3.1374
-3.13955
-3.13711
-3.26831
-3.21649
-3.10415
-3.02711
-2.98839
-2.97856
-2.98748
-3.00989
-3.04274
-3.08256
-3.12553
-3.16714
-3.20149
-3.22184
-3.22758
-3.21954
-3.2094
-3.19565
-3.07605
-3.24014
-3.31659
-3.24121
-3.18541
-3.15341
-3.14243
-3.14714
-3.16345
-3.18877
-3.22073
-3.25701
-3.29365
-3.32349
-3.33859
-3.33851
-3.32471
-3.30936
-3.28129
-3.11722
-3.28516
-3.42997
-3.37447
-3.33191
-3.30576
-3.29532
-3.29774
-3.31017
-3.33077
-3.35827
-3.39208
-3.42818
-3.45725
-3.4704
-3.46917
-3.46031
-3.46609
-3.46683
-3.31485
-3.45192
-3.54293
-3.50148
-3.46903
-3.44817
-3.43908
-3.44042
-3.45055
-3.46856
-3.49481
-3.53092
-3.57162
-3.60361
-3.6172
-3.61819
-3.62601
-3.66706
-3.75741
-3.68878
-3.67497
-3.65715
-3.62536
-3.60003
-3.58319
-3.57545
-3.57625
-3.58498
-3.60193
-3.6299
-3.67324
-3.72269
-3.75872
-3.77242
-3.77788
-3.79694
-3.87107
-4.04842
-4.07341
-3.88166
-3.77141
-3.74664
-3.72659
-3.71287
-3.70617
-3.70639
-3.7139
-3.73031
-3.76196
-3.81525
-3.87335
-3.90999
-3.91947
-3.91758
-3.93947
-4.02373
-4.18475
-4.23246
-4.00881
-3.88628
-3.86669
-3.85055
-3.83908
-3.83296
-3.8322
-3.83794
-3.85274
-3.8866
-3.94631
-4.00632
-4.03745
-4.03558
-4.01717
-4.02282
-4.08307
-4.18246
-4.18809
-4.03076
-4.0017
-3.98609
-3.97297
-3.96324
-3.95741
-3.95539
-3.95857
-3.96935
-3.99935
-4.0556
-4.10761
-4.13015
-4.11863
-4.0882
-4.06937
-4.08873
-4.13147
-4.12087
-4.02296
-4.11779
-4.10534
-4.09468
-4.08646
-4.08094
-4.07786
-4.07822
-4.08345
-4.10383
-4.14492
-4.18287
-4.19667
-4.18573
-4.16172
-4.13622
-4.13262
-4.14054
-4.12228
-4.06164
-4.23452
-4.22464
-4.21608
-4.20928
-4.20434
-4.2009
-4.1993
-4.20002
-4.20932
-4.23127
-4.25641
-4.27081
-4.27103
-4.26262
-4.24581
-4.22865
-4.21652
-4.19447
-4.15208
-4.35179
-4.344
-4.33724
-4.33178
-4.32766
-4.32462
-4.32263
-4.32187
-4.3249
-4.33502
-4.35296
-4.37106
-4.38242
-4.3819
-4.36807
-4.34512
-4.32284
-4.30002
-4.26784
-4.46941
-4.46332
-4.45804
-4.45376
-4.45055
-4.44825
-4.44685
-4.44655
-4.44822
-4.45399
-4.4674
-4.48476
-4.49644
-4.49623
-4.48236
-4.45936
-4.43574
-4.41506
-4.39138
-4.58724
-4.58249
-4.57838
-4.5751
-4.57267
-4.57106
-4.57031
-4.57066
-4.57258
-4.57707
-4.58544
-4.59699
-4.60452
-4.60186
-4.58868
-4.56934
-4.54958
-4.5332
-4.51733
-4.70527
-4.70155
-4.69837
-4.69588
-4.69409
-4.69298
-4.69252
-4.69285
-4.69421
-4.69733
-4.7024
-4.70858
-4.7115
-4.70712
-4.6952
-4.68
-4.6654
-4.65414
-4.64492
-4.82358
-4.82069
-4.81828
-4.81645
-4.81519
-4.81445
-4.81411
-4.81414
-4.81476
-4.81675
-4.81972
-4.82259
-4.82315
-4.81773
-4.80678
-4.7948
-4.7851
-4.77848
-4.77417
-4.94236
-4.94017
-4.93845
-4.93721
-4.93643
-4.93605
-4.9359
-4.93577
-4.93601
-4.93774
-4.9396
-4.94079
-4.94077
-4.93464
-4.92434
-4.91512
-4.9097
-4.9065
-4.90516
-5.06178
-5.06022
-5.05911
-5.05843
-5.0581
-5.05811
-5.05833
-5.05833
-5.05865
-5.06064
-5.06177
-5.06268
-5.06361
-5.05702
-5.04739
-5.04139
-5.03913
-5.03795
-5.03793
-5.18188
-5.18088
-5.18032
-5.18016
-5.18027
-5.18067
-5.18133
-5.18164
-5.18248
-5.18501
-5.18588
-5.18804
-5.19051
-5.18325
-5.1756
-5.17254
-5.17195
-5.17185
-5.1722
-5.30264
-5.30214
-5.30206
-5.30238
-5.30295
-5.30376
-5.30489
-5.30573
-5.30729
-5.3103
-5.31151
-5.31532
-5.31848
-5.31127
-5.3073
-5.30607
-5.30627
-5.30687
-5.30733
-5.42395
-5.42388
-5.42425
-5.42503
-5.4261
-5.42746
-5.42918
-5.43081
-5.43315
-5.43637
-5.43815
-5.4423
-5.44499
-5.44053
-5.43957
-5.43991
-5.44102
-5.44235
-5.44305
-5.5457
-5.54601
-5.54681
-5.54807
-5.54973
-5.55179
-5.55425
-5.55683
-5.56003
-5.56346
-5.56598
-5.56972
-5.57071
-5.57061
-5.57168
-5.57407
-5.57658
-5.57884
-5.57993
-5.66785
-5.66849
-5.66977
-5.67158
-5.67394
-5.67677
-5.68005
-5.6836
-5.68796
-5.69184
-5.6954
-5.69891
-5.69638
-5.7003
-5.70454
-5.70952
-5.71402
-5.71764
-5.71914
)
;

boundaryField
{
    leftWall
    {
        type            calculated;
        value           nonuniform List<scalar> 
50
(
767.08
707.627
643.636
575.661
504.929
432.443
359.058
286
172.699
68.9764
32.0613
16.5
5.38829
0.577123
-0.966973
-1.60564
-1.99641
-2.11657
-2.09663
-2.12854
-2.28552
-2.49234
-2.62072
-2.63316
-2.59799
-2.62873
-2.72834
-2.85576
-2.99238
-3.13099
-3.26886
-3.40508
-3.53946
-3.67203
-3.80291
-3.93225
-4.06025
-4.18709
-4.31293
-4.43794
-4.56227
-4.68606
-4.80943
-4.93247
-5.05529
-5.17794
-5.3005
-5.42301
-5.54539
-5.66819
)
;
    }
    rightWall
    {
        type            calculated;
        value           nonuniform List<scalar> 
50
(
955.557
902.799
857.48
852.349
862.244
866.226
855.931
806.009
650.143
393.377
169.29
109.833
95.094
31.0002
2.57287
-5.27201
-8.42013
-7.17307
-4.43949
-3.37681
-3.08219
-2.87381
-2.80424
-2.74805
-2.69002
-2.69204
-3.4072
-3.26831
-3.24014
-3.28516
-3.45192
-3.67497
-3.88166
-4.00881
-4.03076
-4.02296
-4.06164
-4.15208
-4.26784
-4.39138
-4.51733
-4.64492
-4.77417
-4.90516
-5.03793
-5.1722
-5.30733
-5.44305
-5.57993
-5.71914
)
;
    }
    lowerWall
    {
        type            calculated;
        value           nonuniform List<scalar> 
62
(
796.51
796.055
796.166
797.955
805.466
821.057
842.034
863.876
883.81
899.868
909.941
912.908
909.134
900.448
889.252
875.886
862.205
852.538
847.08
850.984
864.991
880.643
886.392
857.021
796.102
735.25
674.901
615.062
555.519
496.402
439.569
380.357
382.486
393.586
407.502
923.479
869.501
794.742
707.064
624.068
556.205
503.257
458.272
952.575
864.679
803.391
816.203
851.108
783.1
678.388
642.66
612.199
580.354
534.307
511.198
514.114
551.574
612.207
702.309
805.857
892.388
979.949
)
;
    }
    atmosphere
    {
        type            calculated;
        value           nonuniform List<scalar> 
46
(
-5.72904
-5.72904
-5.72904
-5.72904
-5.72904
-5.72904
-5.72904
-5.72904
-5.72904
-5.72904
-5.72904
-5.72904
-5.72904
-5.72904
-5.72904
-5.72904
-5.72904
-5.72904
-5.72904
-5.72904
-5.72904
-5.72904
-5.72904
-5.72904
-5.72904
-5.72904
-5.72904
-5.72917
-5.72997
-5.73158
-5.73363
-5.7364
-5.73956
-5.7433
-5.74723
-5.75263
-5.75663
-5.76102
-5.76475
-5.75894
-5.76513
-5.77158
-5.77837
-5.78426
-5.78904
-5.79048
)
;
    }
    defaultFaces
    {
        type            empty;
    }
}


// ************************************************************************* //
