/*--------------------------------*- C++ -*----------------------------------*\
| =========                 |                                                 |
| \\      /  F ield         | OpenFOAM: The Open Source CFD Toolbox           |
|  \\    /   O peration     | Version:  2206                                  |
|   \\  /    A nd           | Website:  www.openfoam.com                      |
|    \\/     M anipulation  |                                                 |
\*---------------------------------------------------------------------------*/
FoamFile
{
    version     2.0;
    format      ascii;
    arch        "LSB;label=32;scalar=64";
    class       volScalarField;
    location    "0.2";
    object      alpha.water;
}
// * * * * * * * * * * * * * * * * * * * * * * * * * * * * * * * * * * * * * //

dimensions      [0 0 0 0 0 0 0];

internalField   nonuniform List<scalar> 
2268
(
1
1
1
1
1
1
1
1
0.999999
0.999999
1
1
1
1
0.999999
0.999999
0.999999
0.999999
1
0.999999
0.999999
1
1
1
1
1
1
1
1
1
1
1
1
1
1
1
0.999999
0.999999
0.999999
0.999999
1
0.999998
0.999998
0.999999
1
1
1
1
1
1
1
1
1
1
1
1
1
1
1
1
1
1
1
1
0.999999
0.999998
1
1
1
1
1
1
1
1
1
1
1
1
1
1
1
1
1
1
1
1
1
1
1
1
1
1
1
1
1
1
1
1
1
1
1
1
1
1
1
1
1
1
1
1
1
1
1
1
1
1
1
1
1
1
1
1
1
1
0.999999
0.999999
1
1
1
1
1
1
1
1
1
1
1
1
1
1
1
1
1
1
1
1
1
0.999999
0.999999
0.999999
1
1
1
1
1
1
1
1
1
1
1
1
1
0.999999
1
1
1
1
1
1
1
0.999999
0.999999
1
1
1
1
1
1
1
1
1
1
1
3.28649e-06
3.28649e-06
1.50445e-05
0.000224226
0.00403523
0.0221403
0.0337605
0.0650455
0.238599
0.208797
0.197521
0.171506
0.110476
0.0250594
0.00155266
0.00018557
2.06972e-05
4.16023e-06
4.18859e-06
3.15617e-06
5.02616e-06
3.48843e-05
0.000708156
0.00422138
0.00550409
0.0376414
0.482146
0.747539
0.717158
0.668389
0.643494
0.447332
0.088662
0.00807581
0.00155558
0.000191647
2.04397e-05
4.18859e-06
2.58988e-06
2.0438e-05
0.000143813
0.000293925
0.000439736
0.00639536
0.513087
0.86524
0.81706
0.775446
0.624794
0.324447
0.158963
0.129912
0.0368418
0.00407133
0.000776912
9.96501e-05
3.88183e-05
2.0983e-06
5.59503e-06
1.15883e-05
2.53697e-05
0.00436657
0.422488
0.917344
0.89609
0.86524
0.565915
0.131246
0.00951258
0.00269327
0.010191
0.0321571
0.0301223
0.00603981
0.000204194
0.000117771
1.89149e-06
2.02904e-06
7.3457e-07
0.00434626
0.407213
0.950724
0.946907
0.932016
0.542246
0.107457
0.0099655
0.00269327
0.00084549
0.00148754
0.00849402
0.0227086
0.0143455
0.000204248
0.00010099
1.86917e-06
1.89149e-06
0.047261
0.453539
0.980262
0.972273
0.960595
0.874733
0.243743
0.0136024
0.00347579
0.000889416
0.000239346
0.000145748
0.000376745
0.00698098
0.0083015
0.00087225
4.70457e-05
1.86917e-06
0.118557
0.687532
0.992997
0.989236
0.980261
0.972273
0.477688
0.0461657
0.00511057
0.00149695
0.000297472
5.97643e-05
0.000121076
0.000183808
0.000304478
0.00087299
0.000683251
2.62218e-05
0.641388
0.916758
0.999323
0.996694
0.992997
0.989236
0.881
0.232912
0.00845878
0.00163503
0.000367223
4.41471e-05
2.44919e-05
7.44085e-05
0.000116554
0.000153444
0.000180207
1.71129e-05
6.86489e-06
1
0.999999
0.999999
1
1
1
1
1
1
1
0.999999
0.999999
0.999999
1
1
1
1
1
1
1
1
1
1
0.999999
0.999999
0.999999
1
1
1
1
1
1
1
1
0.999999
1
1
1
1
1
1
1
1
1
1
1
0.999999
0.999999
1
1
1
1
1
1
1
1
1
1
1
1
1
1
1
1
1
1
1
1
1
1
1
1
1
1
1
1
1
1
1
1
1
1
1
1
1
1
1
1
1
1
1
1
1
1
1
1
1
1
1
1
1
1
1
1
1
1
1
1
1
1
1
1
1
0.999999
0.999998
1
1
1
1
1
1
1
1
1
1
1
1
0.999999
0.999999
0.999999
0.999999
0.999999
0.999998
0.999997
0.999997
0.999991
0.999985
0.999969
1
0.999998
0.999999
0.999999
0.999999
0.999999
0.999999
0.999999
0.999998
0.999998
0.999997
0.999997
0.999995
0.999994
0.999992
0.999989
0.999985
0.999977
0.999971
0.999939
0.999906
0.999818
0.999664
0.999997
0.999986
0.999989
0.99999
0.99999
0.999989
0.999988
0.999986
0.999983
0.999979
0.999974
0.999966
0.999957
0.999943
0.999924
0.999896
0.999855
0.999786
0.999645
0.999465
0.999053
0.998427
0.997074
0.999967
0.999883
0.999904
0.999913
0.99991
0.999901
0.999888
0.99987
0.999846
0.999812
0.999767
0.999707
0.999624
0.999508
0.999344
0.999117
0.99874
0.998137
0.997136
0.995448
0.979111
0.936827
0.828566
0.999651
0.999102
0.999245
0.999281
0.999243
0.99917
0.999068
0.998923
0.99873
0.998462
0.998101
0.997615
0.99698
0.99611
0.99168
0.978242
0.946957
0.888517
0.797085
0.661936
0.468657
0.272636
0.0539313
0.995032
0.978096
0.983198
0.981805
0.977317
0.970287
0.960252
0.945127
0.924818
0.896341
0.858429
0.80863
0.745763
0.665656
0.567824
0.440987
0.313097
0.195416
0.0969133
0.0117222
7.3923e-08
2.85399e-08
2.71227e-07
0.585242
0.444408
0.466641
0.452651
0.426165
0.391589
0.352362
0.308609
0.262427
0.213231
0.16393
0.116299
0.0727409
0.0338248
0.00223724
-6.25167e-17
-5.73694e-15
-4.96547e-14
1.04827e-10
1.23588e-09
1.32293e-08
5.16055e-08
7.45823e-08
0.00516223
-9.92665e-15
-7.50991e-18
7.92777e-19
0
0
-7.7443e-22
0
0
0
-6.28583e-10
-1.65323e-09
-2.43955e-09
-2.3839e-09
-1.75664e-09
-1.29695e-09
-8.49225e-10
-2.75715e-10
-8.94185e-15
9.85308e-11
1.23245e-09
1.27974e-08
6.33172e-08
-1.27174e-19
-5.09245e-19
-1.51885e-17
-5.07156e-16
-1.21117e-14
-3.12525e-13
-2.55231e-12
-1.92168e-11
-1.49255e-10
-9.20717e-10
-4.23789e-09
-1.07089e-08
-1.07341e-08
-8.05536e-09
-5.46575e-09
-3.45991e-09
-1.79373e-09
-3.39395e-10
-2.09495e-11
6.82097e-10
4.21484e-09
5.74639e-08
2.93235e-07
-4.30554e-19
-1.30334e-18
-4.14112e-17
-1.27796e-15
-3.15624e-14
-6.46496e-13
-5.12293e-12
-3.87934e-11
-2.88297e-10
-1.68336e-09
-6.85762e-09
-1.60625e-08
-1.42274e-08
-9.62256e-09
-5.79027e-09
-3.18101e-09
-1.21826e-09
5.64224e-26
2.71875e-09
1.9647e-08
3.89118e-07
9.92272e-07
3.20063e-05
-3.14206e-19
-2.75271e-18
-9.90581e-17
-2.74429e-15
-5.9527e-14
-9.6298e-13
-8.17181e-12
-6.2519e-11
-4.25279e-10
-2.21305e-09
-8.02671e-09
-1.63697e-08
-1.16337e-08
-6.70779e-09
-3.49083e-09
-1.48182e-09
-6.80447e-11
1.56561e-09
2.24399e-08
1.55089e-07
1.53039e-06
3.88983e-06
0.000360455
-9.07809e-20
-6.36501e-18
-2.42088e-16
-6.02699e-15
-1.08986e-13
-1.42482e-12
-1.26298e-11
-9.26875e-11
-5.44123e-10
-2.34593e-09
-6.83867e-09
-1.10692e-08
-6.14847e-09
-3.03313e-09
-1.29059e-09
-2.36155e-10
3.45416e-11
2.34258e-09
2.51707e-08
2.19426e-07
1.16646e-06
5.45622e-06
0.000616692
-1.41254e-19
-1.13355e-17
-4.2215e-16
-9.72876e-15
-1.55295e-13
-1.78364e-12
-1.5216e-11
-9.96706e-11
-4.84776e-10
-1.65449e-09
-3.64512e-09
-4.41562e-09
-2.13378e-09
-9.30918e-10
-2.68758e-10
-1.02998e-18
4.31313e-11
5.31186e-10
5.38168e-09
4.93342e-08
4.1353e-07
2.29832e-06
0.000209063
-1.06539e-19
-8.22628e-18
-2.91656e-16
-6.35468e-15
-9.50306e-14
-1.02142e-12
-8.01949e-12
-4.58679e-11
-1.87087e-10
-5.21142e-10
-9.19009e-10
-8.98461e-10
-4.07666e-10
-1.5034e-10
-6.96105e-12
0
3.56776e-11
3.34557e-10
2.42474e-09
1.5461e-08
8.61931e-08
6.1048e-07
1.81461e-06
-1.58642e-23
-5.65461e-22
-8.8478e-21
-8.13211e-20
-4.72999e-19
-1.67847e-18
-2.69991e-18
1.76085e-34
-5.63469e-33
0
-1.81159e-31
1.13866e-20
2.88488e-30
-1.48756e-31
7.36794e-16
4.29215e-13
3.41429e-12
2.63372e-11
1.0602e-10
4.69398e-10
1.93268e-09
6.9537e-09
2.22714e-08
-1.42109e-23
-5.08423e-22
-8.17577e-21
-7.81557e-20
-4.84384e-19
-1.92015e-18
-3.85569e-18
3.5217e-34
4.16816e-18
2.10466e-15
1.3236e-14
1.99713e-14
1.37074e-14
1.44232e-15
7.2193e-15
6.12321e-14
5.41206e-13
7.57756e-12
3.27629e-11
8.86343e-11
3.7985e-10
1.5471e-09
5.68096e-09
-8.5075e-24
-3.06123e-22
-5.08553e-21
-5.13015e-20
-3.4989e-19
-1.68425e-18
-5.76681e-18
-1.36997e-17
-2.08585e-17
-1.57016e-17
2.26026e-35
1.09608e-17
1.25621e-16
4.21686e-16
1.98509e-15
5.38328e-15
1.2192e-13
2.77013e-13
5.0863e-13
7.33827e-13
1.13665e-12
1.12802e-11
5.08191e-09
-2.43427e-24
-8.79045e-23
-1.48844e-21
-1.54101e-20
-1.08804e-19
-5.49049e-19
-2.00829e-18
-5.25759e-18
-9.35833e-18
-9.6143e-18
-3.59877e-19
8.50534e-19
8.73181e-17
9.16596e-16
6.80986e-15
3.45018e-14
1.05425e-13
2.08973e-13
3.20262e-13
3.78903e-13
2.12297e-13
-1.2826e-14
6.19376e-14
-1.84787e-29
-1.91263e-28
-5.07537e-28
-8.68182e-39
-3.37562e-36
-4.17893e-34
-2.70026e-32
1.08601e-24
3.38581e-22
3.53494e-20
1.84379e-19
1.62562e-18
2.19662e-17
3.75929e-16
3.76095e-15
2.38127e-14
9.95407e-14
2.45844e-13
3.7815e-13
4.21652e-13
3.21969e-13
1.43814e-13
7.55024e-14
0
0
4.00371e-47
3.27812e-31
1.36575e-29
4.16572e-28
1.06008e-26
2.321e-25
4.44098e-24
1.26691e-22
2.03554e-21
2.69587e-20
3.64719e-19
1.07312e-17
2.93372e-16
4.33536e-15
3.84776e-14
1.78935e-13
4.28344e-13
6.02661e-13
6.38695e-13
6.38695e-13
6.35812e-13
6.24867e-40
1.05475e-37
8.4265e-36
4.47662e-34
1.78705e-32
1.17939e-31
1.32026e-31
-1.03131e-28
-4.74636e-27
5.84885e-26
4.18985e-24
6.25085e-23
7.85114e-22
1.06683e-20
1.17053e-18
8.75421e-17
1.86872e-15
2.01286e-14
9.99058e-14
2.62722e-13
4.35605e-13
4.92041e-13
4.95156e-13
7.45733e-56
0
3.49668e-39
1.17784e-37
-3.52804e-34
-1.26385e-32
-4.03082e-31
-1.06386e-29
-2.49628e-28
1.50392e-28
4.96276e-27
8.12635e-26
1.12446e-24
1.53914e-23
1.97093e-21
2.263e-19
4.64023e-18
5.50586e-17
3.79705e-16
1.51382e-15
3.90987e-15
7.39305e-15
1.10478e-14
-7.86785e-40
-8.98522e-39
-3.15453e-41
-4.36636e-38
-1.68612e-36
-6.02117e-35
-1.77595e-33
-4.29799e-32
-1.94298e-33
5.00113e-33
9.50609e-32
3.06056e-30
5.22753e-29
7.10427e-28
1.19097e-24
3.24524e-22
8.27889e-21
1.23502e-19
1.00488e-18
4.1644e-18
1.00383e-17
1.68358e-17
2.21689e-17
-2.66072e-46
1.4224e-61
-1.79912e-44
6.67766e-45
3.42499e-43
1.40803e-41
4.8418e-40
1.42912e-38
3.70447e-37
8.55713e-36
3.3842e-34
6.79553e-33
1.19736e-31
1.80292e-30
9.13366e-29
2.31555e-26
6.47558e-25
7.67156e-24
4.6918e-23
1.9734e-22
9.57857e-22
5.8362e-21
2.3739e-20
0
3.37575e-52
3.78451e-50
2.87277e-48
1.57344e-46
7.45665e-45
2.53115e-43
7.77193e-42
1.93608e-40
4.09602e-39
2.9538e-37
6.62386e-36
1.28938e-34
2.16282e-33
8.49851e-32
3.66872e-29
1.82847e-27
3.20338e-26
2.57182e-25
1.12694e-24
4.28484e-24
2.64197e-23
1.57738e-22
1.2713e-58
3.26216e-56
1.1143e-54
-1.55552e-51
2.15747e-50
-6.02895e-48
-3.12938e-46
-1.45128e-44
-6.32734e-43
-5.9033e-42
7.44824e-41
1.92562e-39
4.1879e-38
7.90618e-37
1.68279e-35
1.14013e-32
2.06534e-30
5.87374e-29
6.92216e-28
3.66958e-27
1.18074e-26
4.43623e-26
3.65541e-25
3.2341e-74
1.97196e-63
-5.77553e-56
-2.20977e-56
-2.09901e-52
-1.12793e-50
-5.41732e-49
-2.16553e-47
-6.67942e-46
2.93873e-49
8.43959e-48
2.21268e-46
8.96191e-45
2.42846e-43
4.87741e-42
4.99874e-37
5.05383e-34
2.88312e-32
5.23971e-31
3.8675e-30
1.34014e-29
2.75482e-29
1.43804e-28
-2.62738e-65
-2.84774e-64
-2.3768e-64
-1.3364e-60
-8.22606e-59
-4.47171e-57
-2.0041e-55
-7.52537e-54
7.53464e-55
2.73774e-53
9.71841e-52
5.28299e-50
1.51869e-48
3.88818e-47
8.80418e-46
3.1855e-44
6.39572e-41
1.10759e-38
2.95681e-37
2.99024e-36
1.37491e-35
2.46544e-35
3.99622e-37
0
4.30402e-72
-5.44026e-68
9.94175e-68
9.21272e-66
6.81826e-64
4.17968e-62
2.21202e-60
1.02209e-58
4.19034e-57
2.81943e-55
1.15698e-53
3.70892e-52
1.0866e-50
2.98286e-49
7.32347e-48
6.68858e-46
9.96849e-43
8.2647e-41
1.44877e-39
8.69762e-39
1.7154e-38
2.88226e-40
1.36257e-79
5.97724e-77
1.29563e-74
1.78397e-72
1.35166e-70
-5.18066e-69
-6.45485e-67
-7.6381e-65
-7.51231e-63
-5.71018e-61
1.05481e-59
7.14269e-58
2.75048e-56
9.3745e-55
2.99074e-53
8.60556e-52
4.44976e-50
2.02873e-46
4.58407e-44
1.05415e-42
6.52241e-42
1.2446e-41
1.12332e-43
1.17941e-84
6.14424e-82
-5.53478e-79
-2.98561e-76
-1.13281e-73
-9.9841e-72
-9.33335e-70
-7.70236e-68
-5.91613e-66
-1.43562e-64
6.68983e-64
4.25897e-62
1.94552e-60
7.84078e-59
2.95862e-57
1.05413e-55
3.41853e-54
5.92219e-51
6.6394e-48
2.59991e-46
1.9842e-45
4.04619e-45
1.18401e-46
5.16806e-90
-1.81363e-84
-4.99057e-82
-1.76611e-79
-1.51554e-77
-1.64886e-75
-1.55709e-73
-1.21912e-71
-7.33709e-70
2.99952e-70
2.97704e-68
2.35568e-66
1.31676e-64
6.4324e-63
2.94144e-61
1.27219e-59
5.05542e-58
4.57758e-56
3.03758e-52
6.35102e-50
9.7797e-49
2.58966e-48
1.36543e-49
-5.58403e-91
-1.67437e-88
-4.97885e-86
-4.45926e-84
-6.3694e-82
-7.42973e-80
-7.09226e-78
-5.72163e-76
3.01409e-77
2.71399e-75
2.22288e-73
3.77791e-71
3.06526e-69
1.88599e-67
1.07453e-65
5.81861e-64
3.00582e-62
1.44223e-60
5.36654e-57
1.06233e-53
4.08775e-52
1.4362e-51
-1.29354e-51
7.63866e-104
7.47363e-100
6.90817e-97
3.27029e-94
1.04025e-91
2.49326e-89
2.23327e-87
5.60489e-85
6.18996e-83
4.52973e-81
1.25248e-78
4.15532e-76
5.29826e-74
4.70784e-72
3.72988e-70
2.81056e-68
2.02177e-66
1.39231e-64
9.20556e-63
5.8613e-61
3.60676e-59
2.2168e-57
-3.50351e-54
-1.12406e-119
1.81898e-109
9.46187e-106
-2.09086e-100
-2.34246e-97
-7.36855e-94
-1.15826e-91
-3.23212e-89
-8.22252e-87
-1.70673e-84
-1.19237e-83
1.36532e-82
3.36767e-80
5.59166e-78
7.59113e-76
9.62181e-74
1.16783e-71
1.35906e-69
1.519e-67
1.63398e-65
1.69571e-63
1.74208e-61
-5.06414e-59
0
0
-3.17874e-110
-8.92011e-107
-3.15385e-103
-1.00883e-100
-4.65944e-98
-1.80695e-95
-6.37868e-93
-8.47046e-91
1.82531e-96
1.07303e-93
5.72878e-91
5.76811e-88
3.27587e-85
1.39347e-82
5.32916e-80
1.94567e-77
6.81264e-75
2.29278e-72
7.43287e-70
2.36018e-67
-1.10688e-63
0
-4.71028e-123
-1.75432e-123
-1.82393e-119
-1.39795e-116
-6.32051e-114
-1.79929e-110
-1.88086e-107
-1.51955e-104
-5.42603e-110
-7.70817e-107
-6.25495e-104
-3.38037e-101
-1.83105e-100
-2.87744e-100
-1.93772e-97
-1.13145e-94
-5.42749e-92
-2.73887e-89
-1.2176e-86
-5.11923e-84
-2.04872e-81
-7.93841e-69
1
1
1
1
1
1
1
0.999999
1
0.999999
0.999995
0.999969
0.999999
0.999986
0.9999
0.999496
0.999981
0.999803
0.998818
0.977803
0.999748
0.998029
0.921923
0.420354
0.997708
0.871835
0.247665
0.00140967
0.891153
0.171496
0.000743113
6.34348e-05
0.182891
0.000184546
1.02448e-05
-1.1892e-06
4.54444e-06
-1.33366e-06
8.03032e-09
-3.14859e-09
6.24433e-07
4.03127e-08
8.61769e-09
1.10236e-08
2.57496e-07
-5.88456e-08
7.1895e-09
1.04982e-08
7.68135e-07
-1.01678e-08
4.92956e-11
5.86826e-09
2.85076e-06
0.000385773
2.88808e-11
1.0757e-09
8.96838e-05
0.00222703
2.48853e-11
1.53393e-10
0.00141839
0.00222954
2.57455e-11
5.86453e-11
0.00216461
0.00218998
7.53392e-13
2.28864e-11
0.0010209
0.00149341
2.20156e-13
7.45352e-12
1.25231e-05
0.000594028
6.58444e-14
2.15777e-12
1.05041e-05
4.6546e-05
3.61528e-14
4.65368e-13
2.3451e-08
2.93669e-07
3.71067e-14
4.61333e-14
1.41275e-07
2.73545e-07
7.93866e-09
1.59801e-16
1.11873e-14
9.1427e-09
3.54567e-08
1.66297e-16
9.1189e-16
1.03251e-17
1.03405e-17
1.07337e-17
3.35844e-13
5.42033e-14
1.39081e-16
1.59373e-18
5.02709e-13
3.30971e-13
1.72864e-15
7.89206e-20
1.48405e-14
4.59808e-15
7.15976e-18
6.09284e-21
2.62729e-17
2.62471e-17
3.96226e-19
2.39644e-22
9.85869e-20
1.97113e-19
2.08822e-19
1.92464e-23
9.34083e-22
1.98272e-21
2.00471e-21
2.38538e-25
4.6379e-24
1.16324e-23
1.24493e-23
4.13362e-27
7.46389e-27
2.26195e-26
2.58921e-26
4.69454e-29
1.02727e-32
1.88278e-31
7.35818e-31
1.14339e-30
4.67712e-36
3.99464e-34
3.87976e-33
1.14021e-32
2.62691e-40
4.12454e-37
1.19572e-35
8.38218e-35
3.10287e-45
2.10708e-41
1.4214e-38
4.36918e-37
3.71963e-48
2.00471e-45
1.31826e-41
1.7606e-39
6.69708e-51
1.39461e-48
9.10885e-45
5.43031e-42
5.22961e-54
1.19745e-51
2.25559e-48
1.3175e-44
9.35289e-58
4.51308e-55
1.61611e-51
2.09516e-47
1.01746e-62
1.86224e-59
6.89806e-55
1.94365e-50
-2.23197e-67
1.02149e-61
1.27891e-56
1.43496e-54
0.999998
0.999986
0.99989
0.999323
0.996689
0.918863
0.456465
0.0144523
0.00128976
0.000175554
3.07326e-05
2.00316e-05
2.11732e-05
2.88165e-05
5.4944e-05
5.3926e-05
4.79153e-05
4.10783e-06
9.78442e-07
0.999987
0.999893
0.999324
0.99669
0.845916
0.26878
0.00458579
0.000656382
0.00011258
2.33281e-05
2.31614e-06
1.97141e-06
2.22031e-06
2.83869e-06
8.92949e-06
1.00031e-05
1.07875e-05
9.37245e-07
2.00592e-07
0.999826
0.998869
0.974999
0.726329
0.11062
0.00183442
0.000243952
8.31945e-05
1.68203e-05
2.1205e-06
2.20581e-07
5.94287e-08
7.14247e-08
1.64214e-07
7.69534e-07
1.70181e-06
2.08692e-06
2.00801e-07
4.001e-08
0.997885
0.887026
0.43181
0.00412443
0.000639588
8.5736e-05
2.82122e-05
9.43716e-06
1.8418e-06
2.16239e-07
2.48535e-08
1.13806e-08
1.05076e-08
3.1808e-08
9.9479e-08
2.83972e-07
3.72302e-07
4.00562e-08
7.43148e-09
0.72253
0.123686
0.00127705
0.000182131
2.43892e-05
1.72293e-05
3.73984e-06
1.1001e-06
2.10676e-07
2.48537e-08
3.51566e-09
1.88195e-09
2.51671e-09
5.692e-09
1.76836e-08
4.46224e-08
6.21272e-08
7.43567e-09
1.29072e-09
0.00342643
0.000471865
5.97122e-05
5.08653e-06
8.33226e-06
1.28001e-06
4.33042e-07
1.30544e-07
2.68378e-08
3.34621e-09
1.02391e-09
7.55193e-10
9.55704e-10
1.06766e-09
2.96411e-09
6.74267e-09
9.78761e-09
1.29072e-09
2.10935e-10
0.000171346
1.62852e-05
3.89864e-07
2.01523e-06
3.77502e-07
1.42648e-07
5.3283e-08
1.63359e-08
3.59471e-09
8.00703e-10
5.37087e-10
5.94443e-10
4.23957e-10
2.82782e-10
5.41621e-10
1.08209e-09
1.46957e-09
2.10935e-10
3.76882e-11
-2.27285e-07
1.63491e-07
2.11664e-07
1.19904e-07
4.64498e-08
1.81716e-08
7.02142e-09
2.3897e-09
7.22211e-10
3.27386e-10
3.66696e-10
3.18845e-10
1.93345e-10
1.18497e-10
1.16556e-10
1.98076e-10
2.18617e-10
3.89771e-11
8.64223e-12
1.34133e-08
1.11039e-07
3.75667e-08
1.47606e-08
6.28149e-09
2.67385e-09
1.22367e-09
5.3803e-10
2.72418e-10
2.49619e-10
1.88383e-10
1.19303e-10
7.0457e-11
4.12149e-11
4.02961e-11
3.92296e-11
3.54785e-11
1.19647e-11
1.49546e-12
1.67196e-08
2.93861e-08
4.50714e-09
2.24948e-09
1.13135e-09
5.87966e-10
3.43807e-10
2.16651e-10
2.03657e-10
1.54451e-10
7.5552e-11
3.70892e-11
1.85201e-11
9.48885e-12
9.0431e-12
9.38346e-12
7.53391e-12
2.49533e-12
1.93568e-13
1.61377e-08
2.35957e-09
1.03208e-09
5.79275e-10
3.62731e-10
2.3755e-10
2.06301e-10
1.73857e-10
1.26279e-10
6.38573e-11
2.32939e-11
8.66957e-12
3.478e-12
1.55106e-12
1.23426e-12
1.48424e-12
1.20931e-12
3.22975e-13
2.39067e-14
3.24746e-09
8.32927e-10
5.31587e-10
3.542e-10
2.62533e-10
1.88681e-10
1.51848e-10
1.05756e-10
5.14909e-11
1.72543e-11
4.87192e-12
1.45959e-12
5.12094e-13
2.0914e-13
1.51464e-13
1.74808e-13
1.44139e-13
3.8715e-14
2.83162e-15
8.84398e-10
5.50159e-10
3.74335e-10
2.46076e-10
1.74484e-10
1.28586e-10
8.47527e-11
4.06268e-11
1.30928e-11
3.16339e-12
7.38553e-13
2.01608e-13
6.81213e-14
2.64387e-14
1.8321e-14
2.01521e-14
1.63688e-14
4.51423e-15
3.20886e-16
4.32096e-10
3.22954e-10
2.39557e-10
1.66306e-10
1.01166e-10
6.51089e-11
3.05126e-11
9.72628e-12
2.20953e-12
4.54282e-13
9.85643e-14
2.63676e-14
8.70435e-15
3.23972e-15
2.14028e-15
2.25277e-15
1.80052e-15
5.05578e-16
3.48041e-17
2.64267e-10
2.20322e-10
1.39883e-10
9.26265e-11
4.65149e-11
2.18421e-11
6.83194e-12
1.54487e-12
2.97307e-13
5.98155e-14
1.28095e-14
3.34182e-15
1.06414e-15
3.79893e-16
2.38835e-16
2.41777e-16
1.90301e-16
5.4349e-17
3.61529e-18
1.46633e-10
1.34199e-10
6.91586e-11
3.59746e-11
1.42722e-11
4.48167e-12
1.01885e-12
1.96349e-13
3.76039e-14
7.61697e-15
1.60203e-15
4.02366e-16
1.23396e-16
4.23757e-17
2.54673e-17
2.48843e-17
1.93145e-17
5.6096e-18
3.59837e-19
6.2301e-11
6.10215e-11
2.46455e-11
8.92525e-12
2.67255e-12
6.09563e-13
1.22281e-13
2.36129e-14
4.62575e-15
9.25092e-16
1.89082e-16
4.57558e-17
1.3571e-17
4.5034e-18
2.59695e-18
2.45549e-18
1.8826e-18
5.56127e-19
3.43307e-20
2.09946e-11
2.11655e-11
5.49967e-12
1.41466e-12
3.31861e-13
6.81449e-14
1.39392e-14
2.77319e-15
5.40622e-16
1.05732e-16
2.1031e-17
4.9284e-18
1.41877e-18
4.56775e-19
2.53292e-19
2.32178e-19
1.76227e-19
5.29719e-20
3.14051e-21
5.88848e-12
5.69435e-12
7.44805e-13
1.59502e-13
3.44046e-14
7.3527e-15
1.55222e-15
3.08821e-16
5.92269e-17
1.13676e-17
2.21258e-18
5.04147e-19
1.41227e-19
4.42401e-20
2.36134e-20
2.10935e-20
1.5825e-20
4.84892e-21
2.75526e-22
1.19409e-12
1.0469e-12
7.07294e-14
1.54424e-14
3.47145e-15
7.71335e-16
1.63137e-16
3.20945e-17
6.08572e-18
1.15345e-18
2.20722e-19
4.90568e-20
1.34011e-20
4.09316e-21
2.10705e-21
1.839e-21
1.36497e-21
4.26636e-22
2.31886e-23
1.43237e-13
1.1155e-13
5.89828e-15
1.42821e-15
3.36369e-16
7.54713e-17
1.58936e-17
3.11463e-18
5.88484e-19
1.1072e-19
2.09114e-20
4.54668e-21
1.21352e-21
3.62068e-22
1.80075e-22
1.53768e-22
1.13135e-22
3.60871e-23
1.87265e-24
6.89449e-15
7.03161e-15
4.68371e-16
1.2301e-16
2.98677e-17
6.77362e-18
1.43656e-18
2.83257e-19
5.36713e-20
1.00703e-20
1.88416e-21
4.01867e-22
1.04977e-22
3.06445e-23
1.47446e-23
1.23353e-23
9.01068e-24
2.93493e-24
1.45162e-25
3.40499e-16
3.66968e-16
3.33469e-17
9.50638e-18
2.40122e-18
5.59314e-19
1.2097e-19
2.41968e-20
4.62425e-21
8.69172e-22
1.61681e-22
3.3916e-23
8.68435e-24
2.48372e-24
1.15724e-24
9.49613e-25
6.89746e-25
2.29547e-25
1.08057e-26
3.47589e-17
2.45694e-17
2.03211e-18
6.60076e-19
1.7609e-19
4.27309e-20
9.51825e-21
1.94523e-21
3.7703e-22
7.13044e-23
1.32328e-23
2.73675e-24
6.87817e-25
1.92944e-25
8.71113e-26
7.01805e-26
5.07586e-26
1.72692e-26
7.7284e-28
2.86893e-18
1.18295e-18
1.09501e-19
4.18206e-20
1.18747e-20
3.0332e-21
7.01628e-22
1.47486e-22
2.91457e-23
5.56965e-24
1.03462e-24
2.11446e-25
5.2221e-26
1.43811e-26
6.29363e-27
4.98164e-27
3.5924e-27
1.25006e-27
5.31433e-29
1.4404e-19
3.58354e-20
5.48333e-21
2.44279e-21
7.4071e-22
2.00821e-22
4.85951e-23
1.05716e-23
2.14061e-24
4.15005e-25
7.74105e-26
1.56672e-26
3.80598e-27
1.02968e-27
4.36801e-28
3.39852e-28
2.44646e-28
8.71024e-29
3.51618e-30
4.6712e-21
1.19162e-21
2.61838e-22
1.32057e-22
4.29728e-23
1.24504e-23
3.17221e-24
7.18217e-25
1.49705e-25
2.95581e-26
5.55295e-27
1.11526e-27
2.66701e-28
7.09241e-29
2.91517e-29
2.22962e-29
1.60417e-29
5.84518e-30
2.24058e-31
1.30348e-22
4.46641e-23
1.20056e-23
6.62153e-24
2.33114e-24
7.25622e-25
1.95788e-25
4.63725e-26
9.9934e-27
2.01676e-27
3.82697e-28
7.64195e-29
1.80012e-29
4.70744e-30
1.87304e-30
1.40778e-30
1.01363e-30
3.78033e-31
1.37654e-32
3.72915e-24
1.45759e-24
5.27496e-25
3.09185e-25
1.18761e-25
3.98982e-26
1.14609e-26
2.85339e-27
6.38367e-28
1.32136e-28
2.53967e-29
5.05156e-30
1.17266e-30
3.01559e-31
1.16046e-31
8.5687e-32
6.17796e-32
2.35828e-32
8.16378e-34
1.1589e-25
4.54917e-26
2.18795e-26
1.35055e-26
5.70056e-27
2.07635e-27
6.38225e-28
1.67798e-28
3.91263e-29
8.33462e-30
1.62691e-30
3.22912e-31
7.3896e-32
1.86827e-32
6.94519e-33
5.03471e-33
3.63633e-33
1.42051e-33
4.68038e-35
3.26165e-27
1.44194e-27
8.37133e-28
5.53663e-28
2.5838e-28
1.02553e-28
3.39083e-29
9.45765e-30
2.30738e-30
5.07485e-31
1.00871e-31
2.00136e-32
4.5159e-33
1.12202e-33
4.0233e-34
2.86001e-34
2.06981e-34
8.27206e-35
2.59804e-36
7.66862e-29
4.09599e-29
2.92161e-29
2.13482e-29
1.10707e-29
4.81838e-30
1.72352e-30
5.12397e-31
1.31305e-31
2.99144e-32
6.07046e-33
1.20612e-33
2.68379e-34
6.54897e-35
2.26109e-35
1.5735e-35
1.14114e-35
4.66364e-36
1.3988e-37
1.13654e-30
1.08076e-30
9.30071e-31
7.73373e-31
4.48578e-31
2.15788e-31
8.4035e-32
2.67626e-32
7.23208e-33
1.71224e-33
3.55663e-34
7.08938e-35
1.55579e-35
3.72564e-36
1.23599e-36
8.40141e-37
6.10476e-37
2.54973e-37
7.3191e-39
1.8651e-32
2.47965e-32
2.73337e-32
2.4927e-32
1.72872e-32
9.22574e-33
3.9407e-33
1.35158e-33
3.86736e-34
9.5465e-35
2.03515e-35
4.0775e-36
8.82633e-37
2.07225e-37
6.59067e-38
4.36325e-38
3.17544e-38
1.35434e-38
3.7298e-40
2.53982e-34
5.06471e-34
6.94538e-34
7.19152e-34
6.41089e-34
3.76952e-34
1.782e-34
6.62032e-35
2.01437e-35
5.20169e-36
1.14113e-36
2.30268e-37
4.91762e-38
1.13074e-38
3.4392e-39
2.20971e-39
1.60958e-39
7.00369e-40
1.85545e-41
2.95861e-36
8.725e-36
1.54666e-35
2.01007e-35
2.17278e-35
1.47869e-35
7.79162e-36
3.15513e-36
1.0254e-36
2.77935e-37
6.29146e-38
1.28136e-38
2.70077e-39
6.07492e-40
1.7625e-40
1.09429e-40
7.97014e-41
3.53407e-41
9.03315e-43
2.57333e-38
1.26248e-37
3.07098e-37
5.41592e-37
6.6771e-37
5.60114e-37
3.30327e-37
1.46792e-37
5.11905e-38
1.46141e-38
3.42279e-39
7.05185e-40
1.46777e-40
3.22586e-41
8.9046e-42
5.31513e-42
3.86556e-42
1.74439e-42
4.31528e-44
1.54103e-40
1.48482e-39
5.53209e-39
1.3366e-38
1.93868e-38
2.04424e-38
1.36226e-38
6.69041e-39
2.51538e-39
7.58931e-40
1.84416e-40
3.85253e-41
7.92498e-42
1.69993e-42
4.45359e-43
2.5404e-43
1.84158e-43
8.44467e-44
2.02851e-45
6.6142e-43
1.40881e-41
8.693e-41
2.95533e-40
5.60118e-40
7.00325e-40
5.49007e-40
2.99818e-40
1.22112e-40
3.90705e-41
9.87647e-42
2.09716e-42
4.26845e-43
8.92698e-44
2.21475e-44
1.19901e-44
8.64397e-45
4.02085e-45
9.41044e-47
1.67923e-45
9.99851e-44
1.16767e-42
5.98828e-42
1.55861e-41
2.29895e-41
2.17414e-41
1.32724e-41
5.88318e-42
2.00237e-42
5.27864e-43
1.14202e-43
2.30314e-44
4.69267e-45
1.10079e-45
5.56997e-46
4.00225e-46
1.88869e-46
4.1449e-48
2.01089e-48
4.92394e-46
1.30595e-44
1.10324e-43
3.9921e-43
7.00586e-43
7.64017e-43
5.52703e-43
2.73935e-43
1.00953e-43
2.80588e-44
6.21872e-45
1.2374e-45
2.35167e-46
4.00548e-47
1.95742e-47
1.54849e-47
8.71145e-48
1.85897e-49
1.63009e-53
8.53421e-49
7.20083e-47
1.48131e-45
9.01631e-45
3.52983e-44
5.89294e-44
2.92104e-44
1.15499e-44
3.66257e-45
9.38257e-46
2.04545e-46
4.76124e-47
1.88867e-47
1.52279e-47
1.08003e-47
3.96534e-48
2.72867e-49
1.85897e-49
)
;

boundaryField
{
    leftWall
    {
        type            zeroGradient;
    }
    rightWall
    {
        type            zeroGradient;
    }
    lowerWall
    {
        type            zeroGradient;
    }
    atmosphere
    {
        type            inletOutlet;
        inletValue      uniform 0;
        value           nonuniform List<scalar> 
46
(
0
0
0
0
0
0
0
0
0
0
0
0
0
0
0
0
0
0
0
0
0
0
0
0
0
0
0
0
0
7.20083e-47
1.48131e-45
9.01631e-45
3.52983e-44
5.89294e-44
2.92104e-44
1.15499e-44
3.66257e-45
9.38257e-46
2.04545e-46
4.76124e-47
1.88867e-47
1.52279e-47
1.08003e-47
3.96534e-48
2.72867e-49
1.85897e-49
)
;
    }
    defaultFaces
    {
        type            empty;
    }
}


// ************************************************************************* //
