/*--------------------------------*- C++ -*----------------------------------*\
| =========                 |                                                 |
| \\      /  F ield         | OpenFOAM: The Open Source CFD Toolbox           |
|  \\    /   O peration     | Version:  2206                                  |
|   \\  /    A nd           | Website:  www.openfoam.com                      |
|    \\/     M anipulation  |                                                 |
\*---------------------------------------------------------------------------*/
FoamFile
{
    version     2.0;
    format      ascii;
    arch        "LSB;label=32;scalar=64";
    class       volScalarField;
    location    "0.2";
    object      p_rgh;
}
// * * * * * * * * * * * * * * * * * * * * * * * * * * * * * * * * * * * * * //

dimensions      [1 -1 -2 0 0 0 0];

internalField   nonuniform List<scalar> 
2268
(
2124.56
2124.99
2124.97
2124.69
2124.33
2123.95
2123.58
2123.26
2123.05
2123.01
2123.2
2123.72
2124.66
2126.17
2128.31
2131.07
2134.36
2138.06
2141.96
2145.77
2149.13
2151.73
2153.21
2124.14
2124.58
2124.56
2124.27
2123.91
2123.52
2123.15
2122.83
2122.61
2122.55
2122.73
2123.21
2124.07
2125.37
2127.18
2129.67
2132.83
2136.6
2140.8
2145.15
2149.3
2152.72
2154.76
2123.28
2123.73
2123.72
2123.43
2123.06
2122.67
2122.28
2121.95
2121.71
2121.63
2121.77
2122.2
2123
2124.24
2126.01
2128.33
2131.24
2134.71
2138.67
2143
2147.42
2151.34
2153.82
2121.98
2122.46
2122.45
2122.17
2121.78
2121.37
2120.97
2120.62
2120.36
2120.24
2120.33
2120.69
2121.39
2122.5
2124.09
2126.21
2128.89
2132.1
2135.76
2139.73
2143.82
2147.55
2150.03
2120.23
2120.74
2120.74
2120.46
2120.06
2119.63
2119.2
2118.83
2118.53
2118.37
2118.38
2118.64
2119.2
2120.13
2121.47
2123.29
2125.59
2128.37
2131.53
2134.9
2138.17
2140.88
2142.55
2118
2118.55
2118.57
2118.29
2117.87
2117.41
2116.95
2116.53
2116.18
2115.94
2115.86
2115.97
2116.34
2117.01
2118.01
2119.38
2121.11
2123.14
2125.34
2127.49
2129.18
2129.84
2128.96
2115.3
2115.91
2115.94
2115.65
2115.21
2114.71
2114.2
2113.72
2113.29
2112.94
2112.71
2112.62
2112.72
2113.03
2113.55
2114.28
2115.13
2115.96
2116.47
2116.16
2114.1
2108.76
2098.36
2112.11
2112.79
2112.85
2112.53
2112.06
2111.52
2110.96
2110.4
2109.87
2109.39
2108.96
2108.62
2108.37
2108.21
2108.1
2107.95
2107.56
2106.63
2104.54
2100.47
2092.26
2078.95
2035.96
228.112
228.019
227.792
226.975
225.504
226.173
250.684
375.559
678.159
595.608
289.891
105.791
62.7808
32.0698
12.2716
7.1065
6.57472
6.67522
6.62147
228.136
228.034
227.787
226.855
224.689
224.103
245.744
383.529
642.836
545.019
272.274
115.269
69.9452
28.1599
10.535
6.8122
6.59011
6.67297
6.5928
228.152
228.035
227.749
226.714
224.454
224.568
303.36
415.351
525.989
389.937
171.719
56.1011
25.8915
23.8661
8.00056
5.18283
6.48601
6.51512
6.45096
228.147
228.027
227.726
226.845
225.716
301.751
385.789
397.762
408.665
210.044
39.1299
1.32965
-0.0450363
1.20601
3.88016
6.45423
6.52488
6.03719
6.12029
228.121
228.037
227.791
228.175
323.671
439.594
406.894
383.894
239.43
48.3188
4.39099
0.51765
-0.050556
-1.12029
-0.73498
2.92804
6.31067
5.12395
5.54079
228.098
228.112
241.861
363.06
507.844
468.013
427.69
351.632
105.668
8.90626
1.30847
0.151353
-0.212028
-1.61424
-2.87148
-0.947089
2.84455
4.2213
4.8045
228.09
270.815
472.614
572.401
537.861
496.701
449.661
207.658
22.7411
2.60329
0.327903
-0.0649448
-0.310439
-1.57251
-2.78582
-2.80328
-0.109861
3.23143
4.03783
491.749
603.71
631.506
611.475
571.628
528.349
429.337
108.219
4.28513
0.397595
-0.215367
-0.191361
-0.376018
-1.45213
-2.49244
-2.38411
-0.263427
2.38061
3.35544
2106.26
2107.01
2107.1
2106.76
2106.22
2105.59
2104.92
2104.2
2103.47
2102.7
2101.89
2101.04
2100.11
2099.02
2097.62
2095.67
2092.68
2087.79
2079
2063.02
2029.45
1963.88
1796.67
2095.61
2096.39
2096.45
2096.02
2095.34
2094.51
2093.55
2092.46
2091.23
2089.83
2088.22
2086.33
2084.06
2081.23
2077.58
2072.64
2065.72
2055.69
2040.85
2018.46
1985
1937
1877.18
2082.28
2083.04
2082.99
2082.39
2081.51
2080.41
2079.07
2077.48
2075.61
2073.41
2070.81
2067.72
2064
2059.45
2053.78
2046.57
2037.24
2025.01
2008.88
1987.41
1959.06
1920.68
1872.44
2066.39
2067.03
2066.76
2065.93
2064.79
2063.33
2061.5
2059.27
2056.6
2053.44
2049.7
2045.28
2040.02
2033.73
2026.11
2016.81
2005.36
1991.13
1973.36
1951.12
1923.38
1888.94
1847.86
2048.24
2048.67
2048.07
2046.94
2045.46
2043.55
2041.12
2038.13
2034.55
2030.32
2025.35
2019.52
2012.68
2004.65
1995.16
1983.91
1970.53
1954.55
1935.44
1912.62
1885.45
1853.38
1816.11
2028.34
2028.47
2027.48
2025.98
2024.09
2021.63
2018.5
2014.66
2010.08
2004.69
1998.41
1991.11
1982.65
1972.85
1961.48
1948.27
1932.91
1915.01
1894.18
1869.95
1841.89
1809.52
1772.51
2007.19
2006.99
2005.61
2003.73
2001.36
1998.27
1994.37
1989.61
1983.97
1977.37
1969.71
1960.9
1950.76
1939.14
1925.82
1910.55
1893.02
1872.9
1849.78
1823.2
1792.75
1757.7
1718.26
1985.34
1984.7
1982.94
1980.69
1977.8
1974.05
1969.36
1963.69
1956.99
1949.2
1940.2
1929.9
1918.13
1904.72
1889.46
1872.12
1852.41
1830.01
1804.43
1775.17
1740.91
1700.89
1653.77
1963.99
1962.65
1960.48
1957.86
1954.46
1950.03
1944.56
1938.02
1930.33
1921.42
1911.19
1899.52
1886.27
1871.21
1854.09
1834.62
1812.32
1786.7
1757.24
1723.05
1661.78
1558.6
1351.89
1943.25
1941.07
1938.88
1935.75
1931.78
1926.64
1920.31
1912.75
1903.87
1893.53
1881.61
1867.96
1852.44
1834.7
1809.09
1766.51
1692.84
1572.89
1397.64
1149.9
808.152
469.211
93.6659
1917.07
1884.08
1891.02
1884.83
1872.67
1855.07
1831.2
1797.34
1753.29
1693.71
1616.43
1517.15
1393.93
1239.46
1053.2
815.416
578.354
360.994
179.007
22.0705
0.318812
0.224856
0.252319
1155.04
878.13
920.921
893.215
840.716
772.263
694.909
608.656
517.612
420.629
323.429
229.527
143.635
66.8986
4.83695
0.259581
0.207577
0.192049
0.185637
0.196556
0.192029
0.182685
0.172918
11.1057
0.28983
0.306112
0.268895
0.249424
0.242944
0.242747
0.242638
0.241147
0.238955
0.235519
0.231252
0.22665
0.224193
0.226494
0.211523
0.197503
0.181541
0.164325
0.146606
0.128994
0.109191
0.0889961
0.242601
0.249348
0.244803
0.242866
0.23956
0.237047
0.234567
0.232225
0.229707
0.226632
0.222869
0.218052
0.212254
0.20516
0.196122
0.183463
0.166739
0.144978
0.117578
0.0846287
0.0473229
0.0108903
-0.0179165
0.228773
0.232711
0.229375
0.227834
0.22616
0.224377
0.221696
0.218093
0.213877
0.209011
0.203237
0.196363
0.18783
0.176902
0.163026
0.145504
0.123489
0.0950636
0.0575714
0.0104116
-0.0422913
-0.0878986
-0.0466523
0.215302
0.214672
0.213398
0.212013
0.209978
0.207609
0.204804
0.201218
0.196667
0.190984
0.183994
0.17545
0.164829
0.151327
0.134086
0.112113
0.0836204
0.0457815
-0.00475383
-0.0687058
-0.13654
-0.188233
0.631029
0.201352
0.20103
0.200308
0.19891
0.196826
0.194013
0.190593
0.186465
0.181439
0.175276
0.167753
0.158469
0.146914
0.132222
0.113254
0.0885079
0.0555361
0.0103068
-0.0520411
-0.13225
-0.216986
-0.279762
1.19319
0.189003
0.189136
0.188238
0.18652
0.184353
0.181559
0.178143
0.174049
0.16912
0.163102
0.155652
0.146397
0.134826
0.120185
0.101454
0.0771365
0.0446568
-0.000688232
-0.064984
-0.148894
-0.239603
-0.325069
0.114307
0.177855
0.177248
0.176289
0.174869
0.17291
0.170406
0.167319
0.163594
0.159059
0.153448
0.146461
0.137798
0.127107
0.113925
0.0976034
0.0771689
0.0506595
0.0140845
-0.0372737
-0.103257
-0.177879
-0.261555
-0.362762
0.167422
0.166416
0.165439
0.164278
0.162521
0.16021
0.157331
0.153827
0.149576
0.144396
0.138084
0.130444
0.12128
0.110344
0.0973529
0.0819163
0.0629797
0.0381713
0.00518392
-0.0351559
-0.0812816
-0.139798
-0.217777
0.15647
0.156201
0.155514
0.15434
0.152649
0.15044
0.1477
0.144383
0.140426
0.135736
0.130196
0.123678
0.116049
0.107168
0.0969173
0.0851646
0.0714176
0.0545509
0.0338736
0.0106969
-0.0145205
-0.0490403
-0.100993
0.146016
0.146122
0.145573
0.144397
0.142797
0.140754
0.138233
0.135189
0.131588
0.127385
0.122511
0.116893
0.110445
0.103075
0.0947098
0.085261
0.0744438
0.0617492
0.0471555
0.0317501
0.0155646
-0.00629679
-0.0388724
0.136295
0.135933
0.135102
0.133918
0.132399
0.13051
0.128203
0.125438
0.12218
0.1184
0.114065
0.109134
0.103559
0.0972854
0.0902715
0.0824457
0.0736121
0.0635145
0.0522687
0.0404955
0.0278939
0.0116047
-0.0103486
0.125616
0.124936
0.123943
0.122783
0.12135
0.119601
0.117488
0.114982
0.112054
0.108681
0.104843
0.100522
0.0956864
0.0903047
0.084349
0.0777731
0.0704638
0.0622977
0.0533728
0.0440105
0.0339479
0.0216445
0.00629405
0.113878
0.113404
0.112641
0.111657
0.110396
0.108835
0.106952
0.104726
0.102139
0.0991798
0.095835
0.0920882
0.0879178
0.0833013
0.0782189
0.0726392
0.066499
0.059742
0.0524335
0.0447325
0.036463
0.0268066
0.0154168
0.102746
0.102538
0.102048
0.101278
0.100222
0.0988754
0.0972319
0.0952854
0.0930278
0.0904509
0.0875433
0.0842893
0.0806721
0.0766784
0.0722978
0.0675115
0.0622838
0.05659
0.0504774
0.0440397
0.0371791
0.0294361
0.0206037
0.0929145
0.0927535
0.0923453
0.091672
0.090735
0.0895429
0.0880872
0.0863699
0.0843839
0.0821195
0.079567
0.076715
0.0735515
0.0700675
0.0662581
0.0621145
0.0576187
0.0527615
0.0475785
0.0421356
0.0363934
0.0300963
0.0230947
0.0836398
0.083404
0.0829558
0.0822865
0.0814011
0.0802974
0.0789769
0.0774339
0.0756601
0.0736488
0.0713941
0.0688894
0.0661265
0.0630991
0.059805
0.0562416
0.0524022
0.0482866
0.0439225
0.0393589
0.0345866
0.0294626
0.0238711
0.0743367
0.0740417
0.0735442
0.0728769
0.0720367
0.0710122
0.0698107
0.0684214
0.0668372
0.0650572
0.0630804
0.0609034
0.0585209
0.0559289
0.0531271
0.0501171
0.0468985
0.0434743
0.0398654
0.0361081
0.0322069
0.028078
0.0236194
0.0652692
0.0649835
0.0644965
0.0638766
0.0631052
0.0621788
0.0610973
0.0598581
0.0584606
0.0569057
0.0551942
0.053326
0.051299
0.0491118
0.0467658
0.0442641
0.041609
0.0388042
0.0358648
0.0328166
0.0296677
0.0263649
0.0228123
0.0569658
0.0567257
0.0563199
0.0557889
0.055117
0.0543087
0.0533607
0.0522811
0.0510745
0.0497404
0.0482792
0.0466929
0.0449841
0.0431544
0.0412062
0.0391423
0.0369641
0.0346741
0.0322826
0.0298085
0.0272584
0.0245949
0.021732
0.0497721
0.0495905
0.0492859
0.0488571
0.0482972
0.0476115
0.0468052
0.0458872
0.0448623
0.0437319
0.0424976
0.0411624
0.0397296
0.0382018
0.0365818
0.0348716
0.0330717
0.0311827
0.0292113
0.027171
0.0250655
0.0228665
0.0205056
0.0435623
0.0434543
0.0432421
0.0429165
0.0424714
0.0419131
0.0412521
0.0404914
0.0396341
0.0386855
0.0376504
0.0365315
0.0353303
0.0340487
0.0326891
0.0312539
0.0297441
0.028159
0.0265022
0.0247822
0.0229997
0.0211331
0.0191372
0.0379418
0.0378906
0.0377491
0.0375057
0.0371646
0.0367302
0.0362079
0.0355978
0.0349028
0.0341277
0.0332763
0.0323501
0.0313497
0.0302764
0.029133
0.0279225
0.0266462
0.0253029
0.0238934
0.0224226
0.0208893
0.0192785
0.017568
0.0324535
0.0324386
0.0323457
0.0321624
0.0319075
0.0315787
0.0311748
0.0306988
0.0301543
0.0295428
0.0288647
0.0281199
0.0273086
0.0264318
0.0254915
0.0244896
0.023427
0.0223021
0.0211142
0.0198663
0.0185571
0.0171778
0.0157236
0.0266945
0.0266979
0.0266386
0.0265134
0.0263365
0.0261028
0.0258108
0.0254624
0.0250589
0.0246002
0.024086
0.0235166
0.0228919
0.022212
0.0214769
0.0206864
0.01984
0.0189356
0.0179725
0.0169529
0.0158762
0.0147373
0.0135426
0.0205195
0.0205226
0.0204887
0.0204143
0.0203036
0.0201573
0.0199762
0.0197562
0.0194937
0.0191873
0.0188377
0.0184451
0.0180092
0.0175288
0.0170027
0.0164297
0.0158081
0.0151356
0.0144114
0.0136369
0.0128116
0.0119326
0.0110114
0.0138527
0.0138609
0.0138622
0.013834
0.0137873
0.0137246
0.0136467
0.0135479
0.0134238
0.0132723
0.0130927
0.0128833
0.0126422
0.0123678
0.0120588
0.0117137
0.0113303
0.0109059
0.0104388
0.00992935
0.00937628
0.00877767
0.00814586
0.00665732
0.00666203
0.00669351
0.00671182
0.0067376
0.00676177
0.0067823
0.00679764
0.00680803
0.00681241
0.00680725
0.00678787
0.00675034
0.0066923
0.00661228
0.00650855
0.00637846
0.0062189
0.00602742
0.00580269
0.00554271
0.00524546
0.00491976
-0.000792205
-0.000819056
-0.000773298
-0.000722339
-0.000642118
-0.000546713
-0.000437202
-0.000312979
-0.000173397
-2.11516e-05
0.000138209
0.000298914
0.000456913
0.000609915
0.00075619
0.000893434
0.00101843
0.00112755
0.00121751
0.00128556
0.00132862
0.00134357
0.0013344
-0.00840674
-0.00841112
-0.00836556
-0.00831653
-0.00821731
-0.00807659
-0.00789371
-0.00767019
-0.00740983
-0.00711861
-0.00680306
-0.00646866
-0.0061193
-0.00575797
-0.00538765
-0.00501181
-0.0046344
-0.00425947
-0.00389085
-0.00353222
-0.00318746
-0.00286027
-0.00255068
-0.016463
-0.0168104
-0.0168368
-0.0168005
-0.0166687
-0.0164604
-0.0161827
-0.0158428
-0.0154479
-0.0150049
-0.0145198
-0.013997
-0.0134403
-0.0128536
-0.012241
-0.0116073
-0.0109574
-0.0102964
-0.00962897
-0.00896003
-0.00829422
-0.00763585
-0.00698806
1236.21
1528.96
1522.81
1206.88
1683.87
1575.49
1491.34
1258.34
1720.2
1551.16
1438.7
1259.42
1739.29
1569.3
1423.16
1252.78
1721.38
1544.94
1371.39
1181.51
1680.2
1490.78
1219.02
522.215
1614.64
1257.02
342.15
2.5059
1385.82
260.119
1.76964
-0.554787
293.991
0.981293
-0.289086
-0.688832
0.324976
0.0687292
-0.33532
-0.599343
0.195049
0.0197555
-0.296485
-0.511414
0.122767
0.00940444
-0.248683
-0.428917
0.0387205
0.013853
-0.223238
-0.375725
-0.0495503
0.821907
-0.247662
-0.352591
0.0618469
4.91453
-0.297817
-0.347875
3.11385
4.94049
-0.359542
-0.351631
4.90606
4.89705
-0.407221
-0.354941
1.98939
3.22388
-0.416512
-0.347053
-0.558392
1.04514
-0.372831
-0.319503
-0.347277
-0.261461
-0.289955
-0.275157
-0.210758
-0.2291
-0.208223
-0.225985
-0.107917
-0.135319
-0.154543
-0.18304
-0.0559316
-0.0900432
-0.122006
-0.1486
-0.0263226
-0.0610935
-0.0948395
-0.121103
-0.00925594
-0.0414464
-0.0729793
-0.0979944
0.00100778
-0.0277308
-0.055777
-0.0789931
0.00726717
-0.0177611
-0.0423176
-0.0634885
0.0110566
-0.0103986
-0.0317476
-0.0508083
0.0132545
-0.00497141
-0.0234242
-0.0403912
0.0144201
-0.000992865
-0.0168727
-0.031832
0.0148811
0.00187883
-0.0117289
-0.0248108
0.0148282
0.00388196
-0.00772054
-0.0190672
0.0143612
0.00518194
-0.00464091
-0.0143895
0.0135248
0.00589208
-0.00233495
-0.0106093
0.012333
0.00608928
-0.000686718
-0.00759232
0.0107871
0.00582714
0.000392749
-0.00523162
0.00890182
0.00515173
0.000974593
-0.00344114
0.0066981
0.00410506
0.00111787
-0.0021501
0.00415548
0.00269917
0.000861835
-0.00130217
0.00127405
0.000941257
0.000230463
-0.000856068
-0.0019012
-0.00113057
-0.000738475
-0.000769169
-0.00557853
-0.00364054
-0.00210207
-0.00104916
786.579
720.042
720.195
682.648
627.622
543.979
261.263
8.23696
0.281916
-0.403478
-0.389261
-0.254788
-0.440156
-1.21029
-1.86417
-1.59924
-0.0237878
1.73315
2.50877
977.151
845.75
798.09
746.309
600.846
189.823
2.33657
-0.31031
-0.533252
-0.491655
-0.407009
-0.339525
-0.491633
-0.878007
-1.12561
-0.802731
0.18439
1.22356
1.75014
1047.47
912.898
837.283
604.808
92.1767
0.672711
-0.74148
-0.759391
-0.646802
-0.525335
-0.436338
-0.398893
-0.483339
-0.645839
-0.68223
-0.378682
0.264741
0.913327
1.25853
1080.49
872.575
414.902
3.60255
-0.535727
-0.960095
-0.925629
-0.808808
-0.662648
-0.545675
-0.463012
-0.42491
-0.450502
-0.492963
-0.436799
-0.1765
0.263233
0.688428
0.916845
799.426
135.896
0.340796
-0.943402
-1.12142
-1.02078
-0.913702
-0.786525
-0.655296
-0.551309
-0.47293
-0.426278
-0.410624
-0.389516
-0.296826
-0.0820994
0.226992
0.515829
0.669957
5.38486
-0.501693
-1.15029
-1.18159
-1.08736
-0.990634
-0.87828
-0.755543
-0.638629
-0.543905
-0.468691
-0.414214
-0.373345
-0.320192
-0.217165
-0.0419357
0.181453
0.383385
0.489178
-0.603512
-1.12678
-1.17011
-1.11956
-1.04099
-0.941365
-0.830562
-0.716947
-0.614317
-0.527901
-0.455668
-0.396162
-0.341465
-0.274102
-0.173152
-0.0301066
0.135762
0.280491
0.354598
-0.956197
-1.06157
-1.08175
-1.04625
-0.969491
-0.873564
-0.771976
-0.673255
-0.584488
-0.506211
-0.437409
-0.375806
-0.314851
-0.2433
-0.149942
-0.0328166
0.0932193
0.199489
0.252698
-0.871295
-0.961591
-0.982983
-0.944929
-0.876253
-0.795419
-0.710837
-0.628175
-0.551417
-0.480876
-0.416089
-0.354928
-0.292692
-0.222462
-0.138638
-0.0422566
0.0554435
0.135292
0.174487
-0.763494
-0.840517
-0.85779
-0.831603
-0.781609
-0.719796
-0.652066
-0.583316
-0.516817
-0.453484
-0.393199
-0.334387
-0.273959
-0.207922
-0.133865
-0.05405
0.0230156
0.0842775
0.113853
-0.646316
-0.714922
-0.739563
-0.729475
-0.696901
-0.650783
-0.59674
-0.539423
-0.481836
-0.425222
-0.369785
-0.314566
-0.257727
-0.197213
-0.132403
-0.0658936
-0.00415993
0.0437157
0.0665167
-0.549554
-0.614272
-0.643998
-0.643919
-0.623083
-0.588403
-0.545044
-0.497116
-0.447298
-0.396951
-0.346525
-0.295608
-0.243289
-0.188752
-0.132355
-0.076625
-0.0265141
0.0115108
0.0294178
-0.480961
-0.538692
-0.568115
-0.572376
-0.558718
-0.532177
-0.497104
-0.45688
-0.413815
-0.369264
-0.323835
-0.277542
-0.230129
-0.181541
-0.132635
-0.0857144
-0.044591
-0.0139641
0.000320899
-0.434181
-0.481134
-0.506447
-0.511815
-0.502351
-0.481573
-0.452908
-0.419006
-0.381799
-0.342551
-0.301969
-0.260355
-0.217889
-0.174964
-0.132652
-0.0929928
-0.0589426
-0.0339784
-0.0224345
-0.401923
-0.436073
-0.455257
-0.45988
-0.452676
-0.435993
-0.412305
-0.38361
-0.351486
-0.317057
-0.281072
-0.244014
-0.206327
-0.168652
-0.132109
-0.0984809
-0.0700822
-0.0495278
-0.0400989
-0.378127
-0.399146
-0.411675
-0.414601
-0.408525
-0.394807
-0.375043
-0.35068
-0.322977
-0.292907
-0.261211
-0.22847
-0.195276
-0.162381
-0.130871
-0.102286
-0.0784617
-0.0613957
-0.0536275
-0.357083
-0.366498
-0.373157
-0.374283
-0.368851
-0.357397
-0.340812
-0.320114
-0.296278
-0.270136
-0.242395
-0.21367
-0.184617
-0.156019
-0.128892
-0.104548
-0.0844697
-0.0702039
-0.063762
-0.333139
-0.334965
-0.337644
-0.337561
-0.332758
-0.323199
-0.309299
-0.291761
-0.271331
-0.248722
-0.224591
-0.199552
-0.174262
-0.149492
-0.126173
-0.105421
-0.0884411
-0.0764544
-0.0710887
-0.302904
-0.302611
-0.30381
-0.303489
-0.299566
-0.291757
-0.280221
-0.265457
-0.248051
-0.228617
-0.207752
-0.186053
-0.164149
-0.14277
-0.122756
-0.10506
-0.0906686
-0.0805611
-0.0760824
-0.267276
-0.269217
-0.271163
-0.271563
-0.268838
-0.26274
-0.253349
-0.241056
-0.226345
-0.209756
-0.191828
-0.173127
-0.154243
-0.135854
-0.118709
-0.103626
-0.0914137
-0.0828738
-0.0791376
-0.229815
-0.235962
-0.2399
-0.241658
-0.240353
-0.235933
-0.22851
-0.218433
-0.206126
-0.192078
-0.176774
-0.160744
-0.144539
-0.128776
-0.114122
-0.101278
-0.0909146
-0.0836952
-0.0805896
-0.194713
-0.204481
-0.210566
-0.213869
-0.214031
-0.211209
-0.205578
-0.197488
-0.187321
-0.175529
-0.162557
-0.148895
-0.135053
-0.121589
-0.109096
-0.0981752
-0.0893902
-0.0832927
-0.0807283
-0.164141
-0.175918
-0.183669
-0.188342
-0.189851
-0.188483
-0.184459
-0.178133
-0.169862
-0.160063
-0.149152
-0.137578
-0.125812
-0.114356
-0.103736
-0.0944726
-0.0870406
-0.0819024
-0.0798035
-0.138013
-0.150609
-0.159436
-0.165148
-0.167792
-0.167683
-0.165067
-0.160288
-0.153684
-0.145638
-0.136539
-0.126798
-0.116849
-0.107144
-0.0981474
-0.0903139
-0.0840447
-0.0797282
-0.0780284
-0.115538
-0.128405
-0.137827
-0.144251
-0.147787
-0.148727
-0.147315
-0.143875
-0.138721
-0.132208
-0.124694
-0.116558
-0.108195
-0.100013
-0.0924249
-0.0858256
-0.0805555
-0.0769416
-0.0755812
-0.0962511
-0.109009
-0.11867
-0.125534
-0.129731
-0.131511
-0.131106
-0.128806
-0.124905
-0.119722
-0.11359
-0.106854
-0.0998728
-0.093015
-0.0866464
-0.0811112
-0.0766979
-0.0736823
-0.0726081
-0.0798289
-0.0921522
-0.101767
-0.10884
-0.11349
-0.115917
-0.116335
-0.114993
-0.112162
-0.108128
-0.103193
-0.0976734
-0.0918936
-0.0861845
-0.0808703
-0.0762504
-0.0725698
-0.0700622
-0.0692274
-0.0659479
-0.0775791
-0.0869175
-0.0940027
-0.0989206
-0.101823
-0.102892
-0.102342
-0.100414
-0.0973625
-0.0934611
-0.0889941
-0.0842553
-0.0795406
-0.0751358
-0.0713013
-0.0682463
-0.0661693
-0.0655333
-0.0541952
-0.0650145
-0.0739116
-0.0808497
-0.0858777
-0.0891
-0.0906669
-0.0907582
-0.0895817
-0.0873634
-0.0843462
-0.0807858
-0.0769457
-0.073089
-0.0694666
-0.066305
-0.0637837
-0.0620713
-0.0615992
-0.0442577
-0.0541946
-0.0625413
-0.0692098
-0.0742152
-0.0776237
-0.0795524
-0.0801481
-0.0795868
-0.0780654
-0.0757984
-0.0730138
-0.0699458
-0.0668265
-0.0638756
-0.0612898
-0.0592234
-0.0578191
-0.0574814
-0.0358801
-0.0448907
-0.0526126
-0.0589181
-0.0637933
-0.0672737
-0.0694445
-0.0704221
-0.0703528
-0.0694055
-0.0677682
-0.0656419
-0.063233
-0.0607447
-0.0583679
-0.0562737
-0.0545945
-0.0534501
-0.0532215
-0.0288281
-0.036898
-0.0439506
-0.0498234
-0.0544821
-0.0579374
-0.060246
-0.0614967
-0.0618084
-0.0613247
-0.0602085
-0.0586348
-0.0567837
-0.0548315
-0.0529435
-0.0512674
-0.0499169
-0.0489912
-0.0488509
-0.0229037
-0.0300409
-0.0364014
-0.0417898
-0.0461632
-0.0495118
-0.0518673
-0.0532943
-0.053888
-0.0537685
-0.0530751
-0.0519587
-0.0505744
-0.0490739
-0.047599
-0.0462767
-0.0452041
-0.0444616
-0.0443926
-0.0179478
-0.0242298
-0.0298328
-0.0346955
-0.0387291
-0.0419023
-0.0442259
-0.045744
-0.0465312
-0.0466867
-0.0463276
-0.0455824
-0.0445829
-0.0434585
-0.0423297
-0.0413047
-0.0404656
-0.039876
-0.0398647
-0.0138087
-0.0191998
-0.0241069
-0.0284291
-0.0320818
-0.0350224
-0.0372461
-0.0387807
-0.0396831
-0.0400335
-0.0399291
-0.0394773
-0.0387893
-0.0379736
-0.0371313
-0.0363534
-0.0357092
-0.0352464
-0.0352818
-0.0103816
-0.014919
-0.0191272
-0.0228947
-0.0261336
-0.0287936
-0.0308591
-0.0323449
-0.0332931
-0.0337671
-0.033846
-0.0336183
-0.0331759
-0.0326085
-0.0319997
-0.0314247
-0.0309412
-0.0305826
-0.0306555
-0.00757491
-0.0112903
-0.0148054
-0.0180077
-0.020806
-0.0231454
-0.0250025
-0.0263826
-0.0273151
-0.0278491
-0.0280475
-0.0279819
-0.0277264
-0.0273537
-0.026931
-0.0265198
-0.0261674
-0.0258931
-0.0259956
-0.00531128
-0.00823174
-0.0110638
-0.0136942
-0.0160303
-0.0180146
-0.0196196
-0.0208434
-0.0217057
-0.022243
-0.0225043
-0.0225455
-0.0224248
-0.0221991
-0.0219211
-0.0216395
-0.0213924
-0.0211851
-0.0213096
-0.00352579
-0.0056758
-0.0078364
-0.00989073
-0.0117457
-0.0133441
-0.0146573
-0.0156793
-0.0164224
-0.0169127
-0.0171866
-0.0172859
-0.0172542
-0.0171339
-0.0169646
-0.0167833
-0.0166196
-0.0164647
-0.0166031
-0.00216547
-0.00356555
-0.00506839
-0.00654342
-0.00789868
-0.00908156
-0.0100661
-0.0108449
-0.0114249
-0.0118237
-0.0120661
-0.0121812
-0.0121989
-0.0121485
-0.0120576
-0.0119519
-0.0118537
-0.0117401
-0.0118802
-0.00118148
-0.00185008
-0.00271348
-0.00360454
-0.00443831
-0.00517463
-0.00579435
-0.00629134
-0.00666876
-0.00693657
-0.00710924
-0.00720357
-0.00723706
-0.00722687
-0.00718908
-0.00713877
-0.00709106
-0.00701105
-0.00713869
-0.000554907
-0.00050747
-0.000757628
-0.00105448
-0.00133793
-0.00159404
-0.00181433
-0.00199529
-0.00213698
-0.00224201
-0.0023147
-0.00236023
-0.00238414
-0.00239188
-0.00238863
-0.00237892
-0.00237061
-0.00233876
-0.00239851
)
;

boundaryField
{
    leftWall
    {
        type            fixedFluxPressure;
        gradient        uniform 0;
        value           nonuniform List<scalar> 
50
(
2124.56
2124.14
2123.28
2121.98
2120.23
2118
2115.3
2112.11
2106.26
2095.61
2082.28
2066.39
2048.24
2028.34
2007.19
1985.34
1963.99
1943.25
1917.07
1155.04
11.1057
0.242601
0.228773
0.215302
0.201352
0.189003
0.177855
0.167422
0.15647
0.146016
0.136295
0.125616
0.113878
0.102746
0.0929145
0.0836398
0.0743367
0.0652692
0.0569658
0.0497721
0.0435623
0.0379418
0.0324535
0.0266945
0.0205195
0.0138527
0.00665732
-0.000792205
-0.00840674
-0.016463
)
;
    }
    rightWall
    {
        type            fixedFluxPressure;
        gradient        uniform 0;
        value           nonuniform List<scalar> 
50
(
6.62147
6.5928
6.45096
6.12029
5.54079
4.8045
4.03783
3.35544
2.50877
1.75014
1.25853
0.916845
0.669957
0.489178
0.354598
0.252698
0.174487
0.113853
0.0665167
0.0294178
0.000320899
-0.0224345
-0.0400989
-0.0536275
-0.063762
-0.0710887
-0.0760824
-0.0791376
-0.0805896
-0.0807283
-0.0798035
-0.0780284
-0.0755812
-0.0726081
-0.0692274
-0.0655333
-0.0615992
-0.0574814
-0.0532215
-0.0488509
-0.0443926
-0.0398647
-0.0352818
-0.0306555
-0.0259956
-0.0213096
-0.0166031
-0.0118802
-0.00713869
-0.00239851
)
;
    }
    lowerWall
    {
        type            fixedFluxPressure;
        gradient        uniform 0;
        value           nonuniform List<scalar> 
62
(
2124.56
2124.99
2124.97
2124.69
2124.33
2123.95
2123.58
2123.26
2123.05
2123.01
2123.2
2123.72
2124.66
2126.17
2128.31
2131.07
2134.36
2138.06
2141.96
2145.77
2149.13
2151.73
2153.21
2153.21
2154.76
2153.82
2150.03
2142.55
2128.96
2098.36
2035.96
1236.21
1528.96
1522.81
1206.88
228.112
228.136
228.152
228.147
228.121
228.098
228.09
491.749
228.112
228.019
227.792
226.975
225.504
226.173
250.684
375.559
678.159
595.608
289.891
105.791
62.7808
32.0698
12.2716
7.1065
6.57472
6.67522
6.62147
)
;
    }
    atmosphere
    {
        type            totalPressure;
        rho             rho;
        psi             none;
        gamma           1;
        p0              uniform 0;
        value           nonuniform List<scalar> 
46
(
-0.0202314
-0.0220962
-0.0219449
-0.0218355
-0.021638
-0.0213623
-0.0210139
-0.020598
-0.0201192
-0.0195818
-0.0189903
-0.0183495
-0.0176643
-0.01694
-0.0161819
-0.0153954
-0.014586
-0.0137592
-0.0129204
-0.0120749
-0.011228
-0.0103851
-0.00954841
-0.00771216
-0.00513204
-0.00298424
-0.00137305
-0.000425061
-2.71666e-05
0
0
0
0
0
0
0
0
0
0
0
0
0
0
0
0
0
)
;
    }
    defaultFaces
    {
        type            empty;
    }
}


// ************************************************************************* //
