/*--------------------------------*- C++ -*----------------------------------*\
| =========                 |                                                 |
| \\      /  F ield         | OpenFOAM: The Open Source CFD Toolbox           |
|  \\    /   O peration     | Version:  2206                                  |
|   \\  /    A nd           | Website:  www.openfoam.com                      |
|    \\/     M anipulation  |                                                 |
\*---------------------------------------------------------------------------*/
FoamFile
{
    version     2.0;
    format      ascii;
    arch        "LSB;label=32;scalar=64";
    class       volScalarField;
    location    "0.975";
    object      alpha.water;
}
// * * * * * * * * * * * * * * * * * * * * * * * * * * * * * * * * * * * * * //

dimensions      [0 0 0 0 0 0 0];

internalField   nonuniform List<scalar> 
2268
(
0.999999
1
1
1
1
1
1
1
1
1
0.999899
0.995933
0.984713
0.978817
0.989841
0.989951
0.987177
0.976767
0.976767
0.978739
0.995704
0.999739
0.999826
1
1
1
1
1
1
1
1
1
0.999999
0.998784
0.962303
0.950023
0.950006
0.950141
0.952178
0.96733
0.985936
0.983955
0.989909
0.989137
0.998468
0.999834
1
1
1
1
1
1
1
1
1
1
0.999999
0.99175
0.956403
0.950111
0.950078
0.965788
0.997883
1
1
1
1
0.999989
0.99983
1
1
1
1
1
1
1
1
1
1
1
0.999946
0.996573
0.987655
0.99045
1
1
1
1
1
1
1
0.999879
1
1
1
1
1
1
1
1
1
1
1
1
1
0.999999
1
1
1
1
1
1
1
0.999999
0.999976
1
1
1
1
1
1
1
1
1
1
1
1
1
1
1
1
1
1
1
1
1
0.999998
0.999998
1
1
1
0.999973
0.999882
0.999912
1
1
1
1
0.999998
0.999999
1
1
1
1
1
0.999999
0.999994
0.99994
0.99986
0.999998
0.999996
1
1
1
0.999992
0.99976
0.999682
0.999915
1
0.999999
0.999991
0.999939
0.999928
0.998678
1
1
1
0.999958
0.999947
0.994359
0.98833
0.990863
0.9976
0.999996
0.57359
0.573711
0.575286
0.599602
0.599787
0.599576
0.500537
0.500537
0.872728
0.891817
0.89183
0.89183
0.89183
0.891824
0.890118
0.789095
0.815541
0.815639
0.815639
0.573789
0.596496
0.59886
0.599787
0.59984
0.599787
0.572108
0.501824
0.50615
0.891823
0.891813
0.89183
0.891824
0.825998
0.36477
0.346448
0.658275
0.815631
0.815639
0.59282
0.595461
0.570145
0.550053
0.583552
0.599818
0.598811
0.584196
0.485952
0.511647
0.854
0.891687
0.862668
0.428708
0.282427
0.282798
0.318693
0.779874
0.815632
0.591372
0.405182
0.126638
0.0741086
0.112915
0.301964
0.597432
0.5769
0.482649
0.482649
0.609012
0.89008
0.830639
0.282427
0.282302
0.282427
0.666767
0.815603
0.815689
0.504104
0.0349857
0.0271045
0.0271045
0.0271011
0.0303693
0.173241
0.276792
0.600113
0.489159
0.479678
0.677071
0.696474
0.282302
0.282302
0.282302
0.708103
0.815689
0.815751
0.0517224
0.027228
0.0271312
0.0271006
0.0271049
0.0282179
0.101619
0.506946
0.86592
0.847698
0.488255
0.31376
0.284015
0.282402
0.282302
0.282402
0.745904
0.815751
0.815767
0.0403496
0.0373773
0.0273242
0.0271312
0.0285986
0.261679
0.687775
0.866228
0.868104
0.868501
0.77813
0.645779
0.307643
0.283028
0.282402
0.581073
0.814164
0.815788
0.815768
0.173756
0.0987706
0.027433
0.0285656
0.138666
0.669143
0.856866
0.868104
0.868501
0.868501
0.868501
0.867583
0.775571
0.330944
0.300852
0.730768
0.749204
0.781091
0.815767
1
1
1
1
0.999962
0.99988
0.999971
0.999999
0.999986
0.999804
0.94923
0.813908
0.770835
0.812239
0.892473
0.93824
0.958297
0.969601
0.971773
0.974314
0.983651
0.99549
0.99998
0.99988
1
1
1
1
1
0.999998
0.999986
0.998984
0.859895
0.556451
0.523006
0.522933
0.523006
0.524245
0.648871
0.904123
0.922143
0.961375
0.998606
0.999301
0.999326
0.999934
0.992358
0.995619
0.999988
1
1
0.999998
0.999974
0.997906
0.759795
0.527134
0.52475
0.523005
0.523006
0.648356
0.664644
0.664665
0.45326
0.330886
0.452793
0.816659
0.99389
0.999602
0.999931
0.992444
0.999103
0.999981
0.999999
0.999992
0.999818
0.99782
0.852531
0.605605
0.567286
0.627431
0.630419
0.625634
0.302685
0.062797
0.0626848
0.0632972
0.0630346
0.0646218
0.122787
0.520555
0.80043
0.847137
0.992397
0.99992
0.999968
0.999984
0.999722
0.987603
0.483348
0.225986
0.326206
0.554192
0.436973
0.0961962
0.0624585
0.0612978
0.0612978
0.0612978
0.0618755
0.0893103
0.103855
0.0812037
0.0812037
0.080908
0.250994
0.945678
0.883541
0.924759
0.97429
0.793523
0.266752
0.00562004
0.00172643
0.00301946
0.00426406
0.0274953
0.13561
0.157067
0.0637533
0.0636821
0.0688413
0.142257
0.161916
0.16214
0.160312
0.122892
0.0641484
0.0241064
0.799266
0.333278
0.317688
0.388785
0.158526
0.00490412
0.000913736
0.000232613
0.000224824
0.000867379
0.0564499
0.161507
0.162604
0.162604
0.162604
0.161829
0.139034
0.136375
0.103442
0.0730602
0.0667539
0.0795029
0.0238015
0.675749
0.0172146
0.0120181
0.00957796
0.00465628
0.000911001
0.000156091
2.76634e-05
7.29831e-06
-4.67548e-06
-4.65899e-06
0.0226247
0.120292
0.157046
0.141092
0.0597805
0.00553056
0.000917348
0.000428283
0.00031341
0.000194194
0.00346705
0.0235048
0.620321
0.00565715
0.0035375
0.00232264
0.000942486
0.000157798
2.80125e-05
3.64168e-06
9.40245e-08
1.70554e-08
8.96809e-08
4.43446e-07
2.19542e-06
9.71615e-06
3.73896e-05
0.000137733
0.00126904
0.00459794
0.00509607
0.000279477
0.000184823
0.000112808
0.00134661
0.623992
0.00282612
0.00106672
0.000568751
0.000238815
0.000171037
0.000227927
4.61154e-07
1.87777e-08
2.76792e-09
4.28201e-09
3.12371e-08
3.12098e-07
2.97208e-06
1.62161e-05
8.32819e-05
0.00490797
0.0112593
0.0112618
0.00710352
6.42159e-05
0.000100345
9.51558e-05
0.622172
0.000778022
0.000334243
0.000138812
5.23927e-05
4.96367e-05
0.000260834
1.99667e-06
2.76792e-09
1.96062e-09
1.91062e-09
1.71034e-09
6.15495e-09
1.22077e-07
2.22251e-06
3.23959e-05
0.0059819
0.011271
0.011215
0.0106588
6.65478e-05
6.43155e-05
0.000143467
0.399452
0.00030397
0.000107348
3.48396e-05
1.12277e-05
8.74994e-06
5.44537e-05
3.51908e-05
1.96062e-09
1.9244e-09
1.92827e-09
1.92809e-09
2.02582e-09
4.76681e-09
1.00101e-07
1.97813e-06
2.81045e-05
0.00703778
0.0111505
0.00828016
5.18853e-05
7.05373e-05
0.000890062
0.0529754
0.000107431
3.30197e-05
9.12799e-06
2.526e-06
1.4304e-06
1.49811e-06
1.69754e-05
4.68941e-07
1.92678e-09
1.92512e-09
1.98437e-09
2.01673e-09
1.84531e-09
2.29368e-09
2.13257e-08
1.45065e-06
1.08059e-05
0.00502173
0.003188
3.96142e-05
3.88506e-05
0.000362393
0.104079
3.33114e-05
8.98556e-06
2.80058e-06
7.06146e-07
3.34588e-07
2.89572e-07
2.14388e-07
3.67721e-07
2.53789e-09
3.06573e-09
3.38221e-09
2.0982e-09
2.08624e-09
3.21331e-09
2.16004e-08
2.49262e-07
1.79068e-06
1.07925e-05
0.00046617
2.55078e-05
5.06461e-06
3.29685e-06
0.353659
1.02956e-05
2.43076e-06
7.80461e-07
2.19782e-07
9.42331e-08
6.4806e-08
2.14143e-08
2.0429e-08
1.93476e-09
1.94514e-09
1.94514e-09
2.03768e-09
2.86163e-09
2.96345e-08
8.53732e-07
1.10345e-06
4.91702e-06
1.29914e-05
0.000101285
0.000225952
5.75112e-06
1.97829e-06
0.397656
3.35596e-06
7.00271e-07
1.73091e-07
7.98194e-08
3.36519e-08
1.76239e-08
3.6016e-09
1.98055e-09
1.96301e-09
1.94514e-09
2.03769e-09
2.87003e-09
7.45738e-09
4.87098e-08
6.51778e-06
5.1721e-05
3.33886e-05
2.41475e-05
5.82023e-05
7.14906e-05
1.97966e-06
1.79428e-06
0.399636
0.00028285
3.32564e-07
6.52376e-08
3.06287e-08
1.78106e-08
7.51016e-09
3.71542e-09
2.89973e-09
2.07442e-09
9.6072e-09
4.24191e-09
7.47832e-09
3.93987e-08
1.00824e-07
7.53423e-07
0.000121624
0.000618009
0.000546707
6.20733e-06
4.5516e-06
6.04765e-06
3.68138e-06
0.398809
0.00286986
4.94939e-07
4.30854e-08
3.40773e-08
2.98099e-08
1.78106e-08
7.51015e-09
3.71533e-09
3.07756e-09
1.75043e-05
6.94719e-08
3.00253e-08
1.03935e-07
1.52649e-07
3.69738e-07
1.38242e-05
0.00102652
0.00159511
0.000609828
4.37318e-06
4.29296e-06
6.2524e-06
0.253604
0.00709965
1.56641e-06
7.00911e-08
4.66838e-08
3.4077e-08
2.98075e-08
6.67274e-05
0.000308951
0.000368138
0.000162844
1.74443e-05
2.45508e-07
1.52643e-07
1.04913e-07
5.52424e-08
5.68174e-07
0.000532624
0.00163054
0.00166598
0.000188383
2.82259e-06
3.83399e-06
0.0125584
0.0157674
0.00057301
5.33415e-07
7.08287e-08
1.30166e-06
3.94263e-05
0.000358376
0.000368998
0.000368998
0.000368998
0.00031575
9.43392e-06
1.0491e-07
5.5228e-08
3.67022e-08
4.36955e-09
1.04194e-05
0.00114354
0.00166598
0.00149223
2.63289e-06
2.62802e-06
0.000606931
0.0110901
0.0023572
7.53119e-06
5.42598e-07
2.86711e-05
0.000315862
0.000363611
0.000367584
0.000174086
0.000240796
0.000318211
0.000240741
1.14761e-05
1.59588e-07
4.38498e-09
3.2101e-09
3.21565e-09
0.000161357
0.00166598
0.00165491
0.000917832
2.63289e-06
6.29987e-05
0.000610664
0.00249315
0.000666065
7.5312e-06
3.29645e-05
0.000361664
0.00036617
0.000365347
0.00010474
6.6322e-05
0.00026843
0.000279186
8.89486e-05
3.86012e-07
2.18059e-08
4.20048e-09
3.21345e-09
3.36119e-09
0.000333688
0.00165688
0.00167365
0.000428742
5.10971e-06
3.96427e-05
0.000826107
0.000826197
0.00022113
4.61738e-05
0.000204362
0.000362121
0.000365442
0.000137788
6.08148e-05
7.29352e-05
0.000279075
0.000148209
2.71807e-06
1.11735e-07
1.27201e-08
4.01186e-09
3.43591e-09
3.23566e-09
0.000330806
0.00168086
0.00168231
3.34042e-07
3.58284e-06
1.23874e-05
0.000242553
0.000274131
7.05628e-05
5.65612e-05
0.000182678
0.000204881
7.01485e-05
5.57847e-05
6.08148e-05
0.000252772
0.000159892
9.09467e-06
2.76492e-07
3.29031e-08
6.78298e-09
3.79191e-09
1.34798e-09
6.92095e-09
5.8409e-06
0.00125699
1.6433e-08
2.05988e-07
9.01512e-07
4.25022e-06
5.04387e-05
4.49835e-05
5.47919e-05
5.60892e-05
5.55911e-05
5.41513e-05
5.70087e-05
0.0001262
0.000227167
0.000162129
1.09273e-05
3.73211e-07
4.64215e-08
6.15739e-09
1.34798e-09
6.45826e-10
1.86111e-10
2.52224e-11
1.66188e-11
6.42857e-10
7.51465e-09
3.48502e-08
9.01512e-07
4.25022e-06
3.8051e-05
4.8171e-05
5.55904e-05
5.41513e-05
5.50078e-05
7.24725e-05
0.000228238
0.000222754
0.000120505
3.68658e-06
2.609e-07
3.34469e-08
4.17785e-09
6.45813e-10
2.29987e-10
2.39808e-11
4.24574e-12
1.00335e-11
4.26845e-11
2.78409e-10
6.88425e-09
3.48502e-08
0.000145394
0.000249214
0.00024239
0.000171855
6.09404e-05
0.000140261
0.000235999
0.000232869
0.000192503
2.49551e-05
6.17856e-07
8.47161e-08
1.08333e-08
1.36547e-09
2.47507e-10
5.90558e-11
9.04313e-12
1.85514e-12
2.08145e-11
1.18524e-11
3.73947e-11
2.7841e-10
1.57858e-06
0.000152952
0.000252597
0.000256089
0.000253979
0.00025026
0.000243078
0.000235999
0.000206745
3.87592e-05
9.76687e-07
1.4473e-07
1.94993e-08
2.49276e-09
4.07229e-10
8.94623e-11
3.95634e-11
1.05174e-11
1.15175e-12
1.33755e-13
6.5136e-12
8.05644e-12
2.24292e-10
1.69901e-08
2.63983e-05
0.000209222
0.000254878
0.000255107
0.000253979
0.00025026
0.000156791
2.88647e-05
9.21399e-07
1.9719e-07
3.09486e-08
3.84853e-09
5.48207e-10
9.35672e-11
3.24747e-11
1.05269e-11
3.2483e-12
7.6172e-13
6.97764e-14
5.74694e-12
3.09751e-11
7.19484e-11
2.4974e-09
1.67787e-07
1.93199e-05
8.84754e-05
0.000115007
0.000109897
5.25907e-05
8.26524e-06
5.55493e-07
1.41548e-07
2.73481e-08
4.40616e-09
6.86371e-10
1.08083e-10
3.04643e-11
6.51312e-12
1.46555e-12
5.21773e-13
1.43527e-13
3.8074e-14
3.40349e-12
5.11656e-11
5.96605e-11
4.72144e-10
7.7584e-09
1.0278e-07
4.59654e-07
8.9777e-07
9.64942e-07
5.96855e-07
2.33179e-07
6.54729e-08
1.59186e-08
3.03714e-09
5.58613e-10
1.05393e-10
3.2844e-11
6.16567e-12
7.73079e-13
1.49083e-13
4.92477e-14
1.18172e-14
4.69202e-15
9.3406e-13
2.65705e-11
3.3889e-11
7.00793e-11
7.88938e-10
8.19093e-09
4.03634e-08
8.75634e-08
9.93218e-08
6.21971e-08
2.41881e-08
6.80615e-09
1.64525e-09
3.65036e-10
8.18651e-11
3.00641e-11
5.87038e-12
6.49365e-13
7.53417e-14
1.31571e-14
3.65496e-15
6.52673e-16
4.50664e-16
1.24802e-13
5.73038e-12
1.04628e-11
2.56613e-11
9.35814e-11
7.27689e-10
3.29944e-09
7.63797e-09
8.96928e-09
5.69061e-09
2.22309e-09
6.88059e-10
1.91674e-10
5.17619e-11
2.23922e-11
4.71474e-12
5.31431e-13
5.63784e-14
6.47862e-15
1.05729e-15
2.48288e-16
3.27205e-17
4.00134e-17
1.22913e-14
6.94005e-13
1.59375e-12
7.08316e-12
1.50995e-11
7.74515e-11
2.96912e-10
6.138e-10
7.35242e-10
4.79943e-10
2.28118e-10
7.90611e-11
3.08734e-11
1.35093e-11
2.99165e-12
3.70373e-13
4.15586e-14
4.34189e-15
4.87003e-16
7.63108e-17
1.51781e-17
1.57567e-18
4.29265e-18
1.22482e-15
7.78363e-14
1.63896e-13
9.04002e-13
4.7675e-12
9.61303e-12
3.24422e-11
6.81901e-11
7.82105e-11
5.42997e-11
2.4748e-11
1.6294e-11
6.61449e-12
1.51206e-12
2.11623e-13
2.65604e-14
2.92463e-15
2.93881e-16
3.22356e-17
4.82536e-18
7.52009e-19
8.63455e-20
3.93999e-19
1.19425e-16
9.35912e-15
1.5956e-14
7.40642e-14
6.30187e-13
2.82593e-12
6.77005e-12
7.53311e-12
8.0686e-12
9.03892e-12
6.12718e-12
2.44171e-12
5.92684e-13
9.78141e-14
1.41402e-14
1.73846e-15
1.83291e-16
1.7692e-17
1.87504e-18
2.47517e-19
2.65778e-20
6.099e-21
3.88703e-20
1.10183e-17
1.10417e-15
1.57779e-15
5.90901e-15
4.57025e-14
3.26412e-13
9.92921e-13
1.64407e-12
1.72413e-12
1.37649e-12
6.58375e-13
1.75825e-13
3.61104e-14
6.17428e-15
8.72883e-16
1.02886e-16
1.03519e-17
9.48403e-19
8.768e-20
7.50308e-21
4.79791e-22
8.25898e-23
2.89914e-21
1.10875e-18
1.21934e-16
1.51679e-16
4.80661e-16
3.25346e-15
2.07302e-14
7.44996e-14
1.50059e-13
1.53985e-13
1.00565e-13
3.9105e-14
1.04682e-14
2.18094e-15
3.63794e-16
4.94486e-17
5.56876e-18
5.29248e-19
4.22728e-20
1.6882e-21
3.32759e-23
-9.85559e-22
-8.77943e-22
-2.13765e-22
1.13537e-19
1.25762e-17
1.38156e-17
3.82331e-17
2.36366e-16
1.36977e-15
4.59483e-15
8.64017e-15
8.68695e-15
5.7911e-15
2.28907e-15
6.11967e-16
1.24093e-16
1.99568e-17
2.60096e-18
2.7781e-19
2.27676e-20
5.1111e-22
-2.72841e-22
-1.94643e-21
-1.50933e-21
-7.64223e-22
-2.71241e-22
1.08645e-20
1.2211e-18
1.19927e-18
2.93664e-18
1.68406e-17
9.14088e-17
2.9036e-16
5.23397e-16
5.12567e-16
3.37417e-16
1.30476e-16
3.38939e-17
6.6417e-18
1.02714e-18
1.27399e-19
1.15422e-20
2.96326e-22
-9.34589e-22
-2.19099e-21
-1.72165e-21
-9.17965e-22
-3.50092e-22
-9.95419e-23
3.87018e-22
1.13477e-19
7.9041e-20
1.96246e-19
1.15419e-18
5.88161e-18
1.70837e-17
2.67924e-17
2.52303e-17
1.77618e-17
6.95735e-18
1.78197e-18
3.40651e-19
5.06234e-20
5.37097e-21
1.57201e-22
-8.01259e-22
-1.81468e-21
-1.57002e-21
-9.30466e-22
-3.95628e-22
-1.19411e-22
-2.53063e-23
3.53701e-22
5.26198e-21
1.56911e-20
2.07863e-20
4.3724e-20
2.11103e-19
1.11662e-18
3.97727e-18
4.37171e-18
1.60155e-18
3.97803e-19
7.56061e-20
1.12497e-20
1.38166e-21
8.06789e-23
-4.52986e-22
-1.18435e-21
-1.15978e-21
-7.6894e-22
-3.61226e-22
-1.18228e-22
-2.54575e-23
-3.1286e-24
0.999966
0.999966
0.999595
0.788664
0.999965
0.998712
0.510982
0.0729645
0.994166
0.545574
0.150292
0.0525219
0.62682
0.37593
0.33399
0.206441
0.249899
0.224599
0.199003
0.268433
0.026156
0.0376826
0.0211055
0.219343
0.0239852
0.0249574
0.0203112
0.0289453
0.0247489
0.0249585
0.0247241
0.0204865
0.0104372
0.00761556
0.0119919
0.0207525
6.62815e-05
6.00576e-05
5.9454e-05
0.00154882
7.88734e-05
5.9454e-05
5.88478e-05
5.82416e-05
0.00289721
0.00195893
5.82416e-05
5.82416e-05
0.00436137
0.00740591
0.0027884
0.00039742
0.000247237
0.00770243
0.0112511
0.0112511
1.78216e-06
1.50534e-06
0.000258225
0.00131306
1.51114e-06
8.72341e-07
1.18708e-06
4.18232e-06
1.5959e-06
5.30938e-07
3.93167e-07
3.78878e-05
6.14338e-06
4.09014e-07
2.16654e-07
1.12461e-07
5.31402e-06
4.29483e-07
1.69458e-07
2.12747e-10
2.45911e-06
8.92207e-07
1.33503e-06
1.12572e-06
2.62802e-06
4.19001e-06
0.000157937
1.13983e-05
3.18081e-06
0.00024691
0.000589518
1.93496e-05
0.000261837
0.000931592
0.000583691
2.20493e-05
0.00129718
0.000939855
1.79505e-07
1.04262e-08
5.39985e-05
-5.03554e-10
-1.65015e-10
2.64573e-11
1.18051e-11
1.2635e-11
2.24944e-11
3.98676e-11
1.14606e-11
2.5892e-11
9.2375e-11
1.19152e-10
9.37448e-12
9.26819e-11
1.69164e-10
1.69164e-10
2.362e-11
1.11417e-10
1.39149e-10
1.10596e-10
2.13876e-13
3.30146e-12
8.05896e-12
6.44413e-12
7.2415e-14
6.61644e-13
9.5709e-13
7.53691e-13
1.44498e-14
9.89551e-14
1.07169e-13
7.37652e-14
1.98321e-15
7.86292e-15
7.188e-15
3.91038e-15
1.87966e-16
4.20689e-16
3.2729e-16
1.30653e-16
1.07481e-17
1.53101e-17
1.00182e-17
4.36705e-18
4.95859e-19
4.99939e-19
2.84344e-19
6.96132e-19
1.89299e-20
1.41951e-20
2.097e-20
3.97884e-19
5.20972e-22
3.52991e-22
5.57773e-21
2.67856e-19
-3.89945e-23
-1.35151e-24
1.31363e-21
1.17631e-19
-1.55487e-23
-1.64452e-24
2.0267e-22
1.91101e-20
-2.85423e-24
-2.04126e-25
1.67986e-23
3.66665e-22
-1.61952e-25
-3.8562e-27
7.2337e-27
5.08971e-27
0.28252
0.0640247
0.0280755
0.0349323
0.401576
0.776404
0.820762
0.769325
0.821197
0.855492
0.867866
0.867849
0.867749
0.820764
0.8219
0.688421
0.272368
0.255763
0.692874
0.0372948
0.0249813
0.0254626
0.0453829
0.354027
0.588641
0.701476
0.75997
0.704076
0.74363
0.830433
0.867749
0.86782
0.867749
0.565995
0.160492
0.000648099
3.36236e-05
0.0844749
0.0249736
0.0246067
0.0246579
0.0282407
0.0279557
0.224711
0.711919
0.73152
0.656396
0.664592
0.749043
0.806057
0.646398
0.343018
0.0509393
0.000329081
3.36236e-05
3.20945e-05
3.27307e-05
0.0245961
0.0245491
0.0245355
0.0245243
0.0246903
0.3262
0.700839
0.526486
0.2922
0.178683
0.106515
0.0615134
0.0269343
0.000214118
0.000113823
0.000197394
0.000148279
2.78742e-05
5.95066e-05
0.219874
0.0245355
0.0245205
0.0245196
0.115716
0.456956
0.309459
0.0399394
0.000336362
0.000310565
0.000281438
0.000240181
0.000214118
0.000202451
1.55062e-05
0.00030814
0.000308028
2.57821e-05
5.82634e-05
0.276008
0.202596
0.0245198
0.0245205
0.323945
0.456956
0.00541543
0.000427019
0.00037243
0.000777239
0.00127157
0.00127552
0.000746942
2.1245e-06
7.46934e-06
3.29763e-05
9.67122e-06
1.61936e-05
1.42514e-05
0.279495
0.320766
0.299822
0.148724
0.326003
0.313318
0.000564979
0.000526206
0.000440523
0.000647306
0.00118918
0.00125262
0.000359171
2.11927e-06
2.1245e-06
2.24467e-06
2.12908e-05
5.96292e-05
3.42593e-05
0.0198295
0.113748
0.325439
0.326587
0.282137
0.222115
0.00825323
0.000594965
0.000580951
0.000597993
0.000584915
0.000468574
2.12043e-06
2.1245e-06
2.11859e-06
2.14289e-06
2.55029e-05
5.96927e-05
5.95986e-05
0.0193326
0.0115765
0.0316959
0.0795542
0.278973
0.279413
0.166315
0.00172022
0.00058711
0.000612155
0.0010603
0.000301263
2.13963e-06
2.11783e-06
2.14289e-06
2.28302e-06
1.11401e-05
5.7719e-05
3.54214e-05
0.00489657
0.000177786
0.000296188
0.000259918
0.0795729
0.279418
0.273863
0.0734225
0.000706598
0.000878262
0.00104507
0.000227092
2.13729e-06
2.15698e-06
2.28302e-06
2.48704e-06
5.42282e-06
9.05594e-06
1.314e-05
7.73345e-05
0.000141794
0.000177786
0.000224422
0.000261323
0.154848
0.272476
0.0619187
0.000616252
0.00125356
0.000560302
1.91838e-05
2.17523e-06
4.0395e-05
0.000123168
9.66844e-06
8.35678e-06
2.09284e-05
1.49115e-05
5.82416e-05
0.000283331
0.00416116
0.00605211
0.0357737
0.0423523
0.156242
0.031628
0.000288074
0.000456028
1.20172e-05
2.86237e-06
4.99955e-06
0.000183689
0.000301847
0.000149758
5.40673e-05
0.000422512
1.91159e-05
0.000174977
0.0100727
0.037698
0.0378425
0.0202289
5.86225e-05
0.0189698
0.00427455
1.0481e-05
3.47001e-06
8.34402e-07
1.54638e-06
1.29311e-05
0.00024051
0.000301847
0.000225464
0.000306088
0.000662895
1.81396e-05
0.0112511
0.00882525
0.000461672
0.000161668
4.81222e-05
3.57557e-05
5.02809e-05
1.04811e-05
1.29647e-06
7.01196e-07
5.86739e-07
8.42018e-07
1.39728e-05
0.000246986
0.00030172
4.62274e-05
0.000436598
0.00067659
2.00798e-05
0.000272372
7.50108e-05
6.52322e-05
4.81222e-05
3.81416e-05
3.08244e-05
2.24701e-05
1.29647e-06
5.25793e-07
4.96991e-07
5.10207e-07
5.86739e-07
7.1002e-05
0.000318365
0.00025303
4.01055e-05
0.000320919
0.000689236
3.29319e-05
0.000231183
0.000413169
0.000252907
0.000400292
0.000406967
0.00016384
6.68168e-05
3.44991e-06
4.96991e-07
4.88033e-07
4.8886e-07
5.10207e-07
0.000105432
0.000318401
0.000252316
3.81409e-05
0.000283905
0.000693847
0.000475209
0.000339078
0.000422677
0.00045606
0.000466844
0.000472138
0.000473319
0.000473234
0.000347527
4.22685e-05
4.88163e-07
4.88163e-07
1.44413e-06
2.36535e-05
0.000318437
0.000318437
3.51452e-05
0.000447817
0.000694616
0.000693847
2.17155e-10
6.5344e-11
7.53898e-05
0.000152195
0.000236634
0.00030296
0.000345425
0.000345705
0.000124017
4.88025e-07
1.33484e-06
2.17227e-06
8.57183e-07
0.000143172
0.000309078
1.46873e-05
0.00054194
0.000693847
0.000694692
6.47161e-11
6.45607e-11
6.11709e-11
5.52007e-11
5.42226e-11
5.9034e-11
1.26695e-10
2.71559e-07
1.75343e-05
1.11656e-06
3.79406e-06
1.97599e-06
8.2647e-07
4.13946e-07
2.24713e-05
3.6731e-07
0.000135162
0.000686061
0.000693026
7.43833e-11
6.11697e-11
5.52001e-11
5.42094e-11
5.387e-11
5.42226e-11
5.9034e-11
1.26695e-10
1.30385e-09
1.60681e-06
3.79512e-06
3.42359e-06
1.15037e-06
3.86778e-07
3.6731e-07
3.64497e-07
3.65924e-07
0.000354176
0.00065854
1.6273e-10
7.57934e-11
2.22302e-10
6.00922e-11
5.37171e-11
8.38784e-11
8.49034e-11
1.13756e-10
1.99934e-09
2.21497e-06
3.79569e-06
3.79547e-06
3.79564e-06
5.92384e-07
8.9696e-07
4.13261e-07
3.64497e-07
6.21454e-05
0.000145363
7.22858e-10
2.01824e-10
1.77883e-09
2.14597e-10
4.69213e-11
1.36472e-10
4.75177e-10
4.2598e-10
1.13658e-09
2.02844e-06
3.79512e-06
3.79582e-06
3.4805e-06
3.46612e-07
2.48787e-06
1.72797e-06
3.74687e-07
0.000133621
0.000284376
4.30842e-09
7.61856e-10
4.31711e-09
7.92423e-10
4.61065e-11
6.23205e-11
7.6924e-10
1.27028e-09
4.42782e-10
4.4379e-10
2.4408e-06
3.76389e-06
6.87528e-07
2.01384e-08
2.48124e-06
1.43594e-06
4.96408e-07
0.000434191
0.000454253
6.70969e-10
7.10788e-10
4.91845e-09
1.60483e-09
5.48367e-11
1.35543e-11
7.48081e-10
2.00464e-09
1.49693e-09
9.69748e-10
4.17552e-10
3.87701e-10
3.87032e-10
8.46886e-09
1.10118e-06
2.02561e-07
3.3462e-05
0.000441473
0.000454253
5.21281e-11
5.34925e-10
3.88637e-09
1.77766e-09
8.44579e-11
6.54406e-12
3.59687e-10
1.93057e-09
2.18521e-09
1.59134e-09
4.07533e-10
3.87002e-10
3.87032e-10
1.859e-07
1.86853e-07
1.93551e-07
9.27296e-05
0.000430938
0.000192256
5.00642e-11
3.34596e-10
7.78632e-10
5.33955e-10
5.95969e-11
5.47583e-12
8.27484e-11
6.87549e-10
1.842e-09
1.82754e-09
8.03499e-10
3.87701e-10
3.87032e-10
1.7606e-07
1.71665e-07
1.92212e-07
1.39837e-05
0.00042007
0.000119649
9.91633e-11
3.08768e-11
2.17846e-12
2.1034e-12
2.20725e-12
4.18745e-12
1.54313e-11
1.004e-10
5.55358e-10
9.08233e-10
7.80045e-10
3.987e-10
4.21485e-10
9.81183e-10
1.36136e-08
1.26996e-07
2.55991e-07
0.000102224
0.000112852
1.303e-10
5.9178e-11
1.4127e-11
2.00149e-12
1.87085e-12
2.51632e-12
3.83437e-12
8.03584e-12
8.20102e-11
7.03687e-10
6.68762e-10
4.31031e-10
7.64561e-10
9.4314e-09
6.03813e-06
4.54178e-06
7.21702e-07
7.75432e-07
0.000139317
5.06832e-11
2.09226e-11
6.73021e-12
8.40621e-13
7.97803e-13
7.45955e-13
6.8152e-13
8.23203e-12
1.27006e-08
1.14063e-08
9.39224e-10
7.59993e-10
5.05879e-09
6.07657e-06
4.10687e-05
2.60593e-05
8.45356e-07
1.37323e-06
0.000401899
4.47205e-12
3.01859e-12
1.22355e-12
2.0646e-13
3.80688e-13
3.82335e-13
3.82406e-13
1.07024e-08
3.99425e-08
2.99386e-08
1.34361e-09
1.81494e-09
1.01138e-06
3.88704e-05
4.1167e-05
2.75999e-05
1.45716e-06
0.000177643
0.000402206
4.1143e-13
1.3258e-13
6.11608e-14
8.1558e-14
4.15327e-13
3.82406e-13
4.06678e-13
3.58533e-08
3.99425e-08
2.73098e-08
2.31503e-09
6.1087e-08
3.69961e-05
4.11824e-05
4.11311e-05
2.35725e-05
2.24568e-06
0.000382521
0.000402105
3.06285e-14
5.39396e-15
5.62518e-14
2.35209e-13
4.176e-12
4.06678e-13
4.13899e-09
3.89716e-08
3.99425e-08
8.52221e-09
2.77913e-09
8.88054e-06
4.11824e-05
4.11824e-05
3.52533e-05
1.33127e-05
8.11562e-06
0.000432883
0.000258171
1.13752e-15
2.09646e-16
1.97667e-13
7.30941e-13
2.25018e-11
6.95423e-13
4.31528e-09
2.97973e-08
1.39909e-08
4.04615e-09
3.12876e-09
3.76625e-06
3.86903e-05
3.89657e-05
2.10221e-05
1.3859e-05
0.000282476
0.000437562
0.000223397
4.81764e-17
2.14671e-17
3.19293e-13
1.56022e-12
5.40263e-11
7.16545e-11
1.05606e-09
6.55474e-10
1.37714e-11
4.82945e-09
2.40215e-08
5.06683e-07
7.40796e-06
6.67177e-06
8.98414e-06
7.13373e-05
0.000436845
0.000437562
0.000131503
1.02021e-17
4.12336e-19
4.03209e-13
3.18195e-12
7.6128e-11
2.871e-10
2.60873e-11
1.00715e-11
1.22168e-11
7.94217e-09
5.10986e-08
1.7462e-07
1.1351e-07
6.56607e-06
4.61786e-05
0.000297604
0.000375999
0.000115622
3.48439e-06
4.15963e-18
3.69151e-19
4.60729e-13
5.78512e-12
8.71118e-11
3.03304e-10
1.23328e-10
9.9733e-12
3.64477e-11
6.79548e-09
1.17124e-08
1.37454e-09
4.44069e-08
4.84434e-05
8.51522e-05
6.82695e-05
0
0
0
1.6979e-18
3.67945e-19
4.8834e-13
7.74924e-12
4.14342e-11
2.01034e-10
8.91271e-11
8.20334e-12
2.75666e-11
3.85944e-12
6.72808e-12
1.51783e-09
3.17512e-10
-8.32276e-27
-8.97244e-15
-1.31433e-14
-1.40654e-14
-5.12026e-15
-5.71098e-16
6.1715e-19
3.67945e-19
3.73027e-13
8.10742e-12
1.03625e-11
1.86242e-11
7.4806e-12
3.12775e-12
8.17807e-13
5.54079e-13
1.38783e-09
1.393e-08
1.73797e-08
3.27764e-09
-8.60132e-15
-1.5125e-14
-1.90113e-14
-6.12016e-15
-7.31863e-16
1.24898e-19
7.83211e-19
1.31387e-13
3.18741e-12
1.79707e-12
8.04957e-14
7.38057e-15
1.31418e-12
1.52672e-13
1.61969e-13
3.74165e-10
1.41869e-08
2.38578e-08
1.81658e-08
-2.9252e-15
-6.522e-15
-9.8223e-15
-2.75917e-15
-3.31527e-16
1.23846e-20
8.39136e-18
2.03331e-14
3.11842e-13
1.99376e-13
8.27243e-14
7.28945e-15
3.58341e-13
6.69354e-14
4.12356e-12
1.19156e-11
1.04001e-09
1.39187e-08
1.5266e-08
-7.70372e-36
7.40799e-18
3.78995e-17
1.41745e-18
5.43096e-19
1.78117e-22
1.0093e-17
1.07449e-15
1.24339e-14
1.48049e-14
5.17906e-15
2.39812e-16
3.21366e-14
4.51223e-15
3.55273e-12
3.17709e-11
3.21944e-13
4.16097e-31
1.85165e-09
-7.70955e-19
-2.72231e-18
-2.20283e-19
-9.52512e-21
3.119e-22
1.89015e-27
1.77309e-18
5.83115e-20
0
5.93432e-54
0
4.5686e-20
3.26882e-17
2.11862e-20
8.60574e-15
2.25745e-12
5.04288e-12
-8.75005e-22
-9.2636e-21
-9.54586e-20
-8.23972e-19
-8.18849e-20
-3.56281e-21
-6.04743e-23
)
;

boundaryField
{
    leftWall
    {
        type            zeroGradient;
    }
    rightWall
    {
        type            zeroGradient;
    }
    lowerWall
    {
        type            zeroGradient;
    }
    atmosphere
    {
        type            inletOutlet;
        inletValue      uniform 0;
        value           nonuniform List<scalar> 
46
(
3.53701e-22
5.26198e-21
1.56911e-20
2.07863e-20
4.3724e-20
2.11103e-19
1.11662e-18
3.97727e-18
4.37171e-18
1.60155e-18
3.97803e-19
7.56061e-20
1.12497e-20
1.38166e-21
8.06789e-23
-4.52986e-22
-1.18435e-21
-1.15978e-21
-7.6894e-22
-3.61226e-22
-1.18228e-22
-2.54575e-23
-3.1286e-24
0
0
0
0
0
0
0
0
0
0
0
0
0
0
0
0
0
0
0
0
0
0
0
)
;
    }
    defaultFaces
    {
        type            empty;
    }
}


// ************************************************************************* //
