/*--------------------------------*- C++ -*----------------------------------*\
| =========                 |                                                 |
| \\      /  F ield         | OpenFOAM: The Open Source CFD Toolbox           |
|  \\    /   O peration     | Version:  2206                                  |
|   \\  /    A nd           | Website:  www.openfoam.com                      |
|    \\/     M anipulation  |                                                 |
\*---------------------------------------------------------------------------*/
FoamFile
{
    version     2.0;
    format      ascii;
    arch        "LSB;label=32;scalar=64";
    class       surfaceScalarField;
    location    "0.975";
    object      alphaPhi0.water;
}
// * * * * * * * * * * * * * * * * * * * * * * * * * * * * * * * * * * * * * //

dimensions      [0 3 -1 0 0 0 0];

oriented        oriented;

internalField   nonuniform List<scalar> 
4432
(
1.77714e-06
-1.77714e-06
-1.05591e-06
2.83305e-06
-6.90291e-06
5.847e-06
-1.12324e-05
4.32952e-06
-1.20764e-05
8.43984e-07
-1.14146e-05
-6.61765e-07
-1.09146e-05
-5.00036e-07
-1.05734e-05
-3.41182e-07
-1.0059e-05
-5.14419e-07
-8.92083e-06
-1.13818e-06
-6.82498e-06
-2.08836e-06
-4.66221e-06
-2.07775e-06
-4.88884e-06
2.76066e-07
-9.63755e-06
4.63744e-06
-1.6856e-05
7.02099e-06
-1.97975e-05
3.00024e-06
-1.57801e-05
-3.84158e-06
-9.55576e-06
-6.27143e-06
-4.52265e-06
-5.08016e-06
-7.74032e-07
-3.71549e-06
1.95917e-06
-2.71724e-06
2.17948e-06
-2.21975e-07
2.17939e-06
-4.15948e-06
2.38234e-06
-9.7976e-06
8.47118e-06
-1.42744e-05
1.03238e-05
-1.50152e-05
5.07033e-06
-1.35654e-05
-6.05795e-07
-1.2617e-05
-1.61018e-06
-1.26005e-05
-5.16551e-07
-1.26603e-05
-2.81427e-07
-1.221e-05
-9.64682e-07
-1.14974e-05
-1.85079e-06
-1.13881e-05
-2.09681e-06
-1.24184e-05
-5.34016e-07
-1.53351e-05
3.17088e-06
-1.75563e-05
6.83559e-06
-1.66627e-05
6.10489e-06
-1.17518e-05
-1.76027e-06
-6.65025e-06
-9.5868e-06
-2.58298e-06
-1.05701e-05
7.3464e-07
-8.54214e-06
4.02466e-06
-7.14006e-06
6.31397e-06
-5.07523e-06
4.89714e-06
1.26107e-06
7.07718e-06
-7.46503e-06
9.84736e-06
-1.36419e-05
1.4648e-05
-1.65444e-05
1.32263e-05
-1.63769e-05
4.90286e-06
-1.4705e-05
-2.27775e-06
-1.32363e-05
-3.07886e-06
-1.24759e-05
-1.277e-06
-1.17903e-05
-9.66923e-07
-1.0601e-05
-2.15405e-06
-9.25023e-06
-3.20153e-06
-8.66651e-06
-2.68053e-06
-9.14466e-06
1.81991e-07
-1.01607e-05
4.54356e-06
-9.77344e-06
6.42434e-06
-6.48169e-06
2.79439e-06
-3.08748e-06
-5.53977e-06
-1.27901e-06
-1.16137e-05
9.75311e-08
-1.19467e-05
2.19016e-06
-1.06348e-05
4.90178e-06
-9.85168e-06
7.54583e-06
-7.71929e-06
6.48316e-06
2.32513e-06
1.3561e-05
-8.12268e-06
1.797e-05
-1.41266e-05
2.06519e-05
-1.70471e-05
1.61469e-05
-1.73555e-05
5.21126e-06
-1.58621e-05
-3.77116e-06
-1.4323e-05
-4.61791e-06
-1.34243e-05
-2.17569e-06
-1.24541e-05
-1.93712e-06
-1.08055e-05
-3.80265e-06
-8.52251e-06
-5.48453e-06
-6.22412e-06
-4.97893e-06
-4.42808e-06
-1.61088e-06
-2.87411e-06
3.09197e-06
-1.03807e-06
4.87668e-06
4.33881e-07
1.41515e-06
5.12059e-07
-5.61795e-06
-2.51877e-07
-1.08498e-05
1.80098e-07
-1.23787e-05
1.92131e-06
-1.2376e-05
3.89897e-06
-1.18293e-05
5.82278e-06
-9.64312e-06
5.88522e-06
2.26267e-06
1.94465e-05
-7.30088e-06
2.52709e-05
-1.29942e-05
2.63452e-05
-1.63194e-05
1.94721e-05
-1.71865e-05
6.07837e-06
-1.61646e-05
-4.79303e-06
-1.52734e-05
-5.50913e-06
-1.48148e-05
-2.63427e-06
-1.39893e-05
-2.76256e-06
-1.21504e-05
-5.64155e-06
-9.28055e-06
-8.35442e-06
-6.04805e-06
-8.21142e-06
-3.19085e-06
-4.46808e-06
-9.22554e-07
8.23678e-07
6.38398e-07
3.31582e-06
8.49429e-07
1.20414e-06
-2.17606e-07
-4.55091e-06
-6.95945e-07
-1.03714e-05
6.2098e-07
-1.36956e-05
2.65559e-06
-1.44106e-05
3.6792e-06
-1.2853e-05
3.37906e-06
-9.34299e-06
4.08042e-06
1.5613e-06
2.35272e-05
-5.70009e-06
3.0971e-05
-1.08148e-05
3.14599e-05
-1.43172e-05
2.29745e-05
-1.57106e-05
7.47171e-06
-1.56206e-05
-4.88304e-06
-1.58575e-05
-5.27215e-06
-1.62439e-05
-2.2479e-06
-1.56992e-05
-3.30724e-06
-1.35682e-05
-7.7726e-06
-9.73092e-06
-1.21917e-05
-5.34421e-06
-1.25981e-05
-2.07536e-06
-7.73691e-06
-2.97475e-07
-9.54194e-07
3.50956e-07
2.66741e-06
5.82097e-08
1.4969e-06
-4.43467e-07
-4.04922e-06
3.9108e-07
-1.1206e-05
2.48647e-06
-1.5791e-05
4.82284e-06
-1.6747e-05
5.49563e-06
-1.35258e-05
3.10462e-06
-6.952e-06
3.08304e-06
1.58287e-06
2.66103e-05
-3.60683e-06
3.45778e-05
-7.97897e-06
3.58321e-05
-1.14814e-05
2.64769e-05
-1.28247e-05
8.81596e-06
-1.36268e-05
-4.08012e-06
-1.60174e-05
-2.88228e-06
-1.7731e-05
-5.34212e-07
-1.74864e-05
-3.55178e-06
-1.43427e-05
-1.09164e-05
-8.37334e-06
-1.8161e-05
-2.3227e-06
-1.86487e-05
1.19572e-06
-1.12556e-05
2.64391e-06
-2.40239e-06
2.5931e-06
2.71822e-06
1.67681e-06
2.41321e-06
1.17693e-06
-3.54933e-06
2.31826e-06
-1.23473e-05
4.92329e-06
-1.83961e-05
8.19369e-06
-2.00173e-05
9.87147e-06
-1.5193e-05
7.6169e-06
-4.68916e-06
4.43659e-06
4.76316e-06
3.10467e-05
-1.27007e-06
3.58479e-05
-4.65193e-06
3.92139e-05
-7.48505e-06
2.931e-05
-7.21489e-06
8.54641e-06
-9.85398e-06
-1.43848e-06
-1.57301e-05
2.98999e-06
-1.91219e-05
2.85626e-06
-1.84681e-05
-4.20551e-06
-1.35283e-05
-1.58561e-05
-6.53098e-06
-2.51578e-05
-1.01585e-06
-2.41616e-05
1.83238e-06
-1.41111e-05
2.8813e-06
-3.37929e-06
2.70226e-06
2.89724e-06
1.64658e-06
3.46892e-06
7.74514e-07
-2.67729e-06
2.10733e-06
-1.36692e-05
5.86744e-06
-2.21804e-05
1.10342e-05
-2.51738e-05
1.46771e-05
-1.87079e-05
1.37246e-05
-3.62006e-06
6.46542e-06
1.20294e-05
3.7512e-05
2.3314e-06
-2.3331e-06
9.86312e-06
-7.49541e-06
1.91789e-05
-9.73235e-06
2.16378e-05
-3.65379e-06
1.87593e-05
2.90841e-06
1.04648e-05
8.35427e-06
-5.62368e-07
9.28671e-06
-1.19013e-05
9.03962e-06
-2.08432e-05
4.43811e-06
-1.78804e-05
-2.95717e-06
-4.94896e-06
-1.2927e-05
7.62563e-06
-1.25706e-05
-4.8121e-06
1.24413e-05
-3.77515e-05
3.29427e-05
-5.3226e-05
1.5522e-05
-4.90589e-05
-4.09827e-06
-2.89965e-05
-2.00656e-05
-7.83438e-06
-2.1162e-05
-7.83423e-06
5.50566e-07
-2.88217e-06
1.14187e-05
-1.81515e-05
1.93298e-05
-1.76263e-05
2.34974e-05
-7.79148e-06
2.62122e-05
2.18805e-07
2.41569e-05
1.04395e-05
1.40849e-05
1.96927e-05
3.02178e-06
1.7678e-05
-5.20797e-06
8.96725e-06
-9.60979e-06
1.45008e-06
-7.64177e-06
-1.4889e-05
-8.44355e-06
-1.17653e-05
-2.90507e-05
3.30516e-05
-3.19219e-05
3.60334e-05
-2.5619e-05
9.26538e-06
-2.22844e-05
-7.86904e-06
-1.61848e-05
-2.69339e-05
-2.55122e-06
-3.47958e-05
-1.03853e-05
4.74557e-06
-8.08606e-06
1.72107e-05
-3.03922e-05
2.35306e-05
-1.82767e-05
2.52955e-05
-5.34521e-06
2.89531e-05
-1.57993e-06
3.16723e-05
7.74788e-06
2.78804e-05
2.35763e-05
1.85587e-05
2.14178e-05
1.00814e-05
1.62153e-05
4.14297e-06
7.8906e-06
-7.62916e-06
-1.38226e-06
-2.05342e-05
1.14323e-06
-2.94125e-05
4.43598e-05
-1.69173e-05
2.65956e-05
-1.32303e-05
5.54908e-06
-8.01338e-06
-1.31119e-05
-3.82118e-07
-3.75921e-05
5.35093e-06
-4.12313e-05
-5.03505e-06
1.07058e-05
-1.93612e-05
9.19054e-06
-1.53622e-05
3.76265e-06
-2.25284e-06
4.05066e-06
-2.99366e-07
8.78227e-06
-1.68505e-07
2.24175e-05
2.62602e-07
3.05296e-05
1.56077e-05
2.49637e-05
2.35924e-05
1.90688e-05
2.12433e-05
1.19107e-05
1.4182e-05
1.41171e-06
1.13798e-05
-1.59822e-05
1.85841e-05
-1.16697e-05
4.21483e-05
-7.50904e-06
2.24057e-05
-3.55045e-06
1.55863e-06
1.50544e-06
-1.81971e-05
1.05164e-05
-4.62554e-05
8.76402e-06
-3.94818e-05
3.72722e-06
1.08255e-05
-1.58049e-05
2.09509e-06
-3.74921e-06
7.70225e-07
-9.52564e-07
1.46579e-07
2.46919e-07
-2.01407e-07
1.26881e-07
3.97155e-07
-1.79675e-07
1.0393e-05
1.99712e-06
2.34217e-05
1.88285e-05
2.72101e-05
3.14139e-05
1.85706e-05
2.71311e-05
8.09777e-06
2.11232e-05
-1.36969e-06
1.89352e-05
-1.93655e-06
2.78572e-05
1.85164e-06
1.85857e-05
5.15611e-06
-1.77769e-06
7.62879e-06
-2.07016e-05
1.39116e-05
-5.0744e-05
7.24737e-06
-3.28194e-05
1.09741e-05
1.62491e-06
-7.42159e-06
8.11574e-07
-2.96444e-06
-7.60357e-08
-1.23761e-07
-1.17629e-06
1.28516e-06
-2.25715e-06
1.132e-06
-1.89733e-06
-7.94735e-07
-1.95206e-06
-7.48243e-06
2.1331e-05
4.73925e-06
3.33775e-05
2.00043e-05
2.66901e-05
3.32611e-05
9.35559e-06
3.66488e-05
4.78658e-06
2.26956e-05
7.20057e-06
2.53988e-05
9.49271e-06
1.62615e-05
1.06589e-05
-2.97574e-06
1.49059e-05
-2.49807e-05
1.12718e-05
-4.6682e-05
2.94869e-06
-2.44968e-05
1.39229e-05
4.40483e-07
-8.98428e-06
-2.03231e-07
-3.62761e-06
-1.31405e-06
9.8721e-07
-2.54071e-06
2.45301e-06
-2.57767e-06
7.59796e-07
-9.3117e-06
-1.6775e-05
-5.27753e-06
-2.53422e-05
9.66634e-06
-9.85244e-06
2.20076e-05
7.8456e-06
2.78716e-05
2.75398e-05
2.03308e-05
4.49744e-05
1.29535e-05
4.37982e-05
1.24075e-05
3.13825e-05
1.4887e-05
1.38022e-05
1.39782e-05
-2.09906e-06
1.97742e-05
-2.57193e-05
4.34216e-06
-3.12095e-05
-1.04176e-06
-1.9113e-05
1.28814e-05
1.18497e-06
-1.76203e-05
-1.06519e-06
-2.86256e-06
-2.64257e-06
2.55537e-06
-3.88774e-06
3.48086e-06
-1.69993e-05
-4.79553e-06
-2.60726e-05
-3.39443e-05
-1.7755e-05
-3.87009e-05
-3.10005e-06
-2.43248e-05
1.11669e-05
-6.27869e-06
2.13845e-05
1.74648e-05
2.66274e-05
3.98742e-05
2.69303e-05
4.36499e-05
2.2609e-05
4.04541e-05
1.4579e-05
2.22644e-05
1.9683e-05
-2.64386e-07
1.40031e-05
-1.58797e-05
-5.50858e-06
-9.81644e-06
-5.33899e-06
-1.63191e-05
7.54254e-06
7.38257e-06
2.84653e-05
2.0883e-06
4.45082e-05
-4.63924e-06
3.60376e-05
-1.01671e-05
1.40744e-05
-2.24097e-05
1.08061e-05
-3.60163e-05
1.6597e-05
-4.22116e-05
9.04983e-06
-4.14806e-05
-4.93633e-06
-3.69785e-05
-2.03546e-05
-3.10537e-05
-3.10513e-05
-2.33574e-05
-2.19778e-05
-1.87395e-05
-9.12238e-06
-1.72764e-05
-2.39537e-06
-2.01387e-05
3.16774e-06
-2.39363e-05
3.96208e-06
-2.53646e-05
-1.63791e-06
-2.00628e-05
-1.99172e-05
-9.98914e-06
-3.33307e-05
5.07987e-06
-4.10979e-05
2.18963e-05
-3.59518e-05
3.24725e-05
-1.41762e-05
2.87001e-05
1.58141e-05
3.78381e-05
2.83739e-05
2.26082e-05
5.84494e-06
2.10795e-05
4.6037e-05
7.93924e-06
4.91778e-05
-6.27411e-06
2.82877e-05
-1.97229e-05
2.42549e-05
-3.25631e-05
2.94372e-05
-5.0538e-05
2.70247e-05
-7.08555e-05
1.53845e-05
-8.4598e-05
-5.84466e-06
-6.49163e-05
-1.81436e-05
-4.78654e-05
-1.52726e-05
-4.93265e-05
-7.79271e-06
-5.06579e-05
-1.1798e-06
-4.89918e-05
1.37013e-06
-4.70358e-05
1.4834e-06
-7.19195e-05
-3.69754e-06
-8.24636e-05
-1.76722e-05
-8.30956e-05
-2.84553e-05
-7.22567e-05
-4.96225e-05
-4.51771e-05
-6.31328e-05
-2.00065e-05
-3.93229e-05
-5.54019e-07
-3.61129e-06
2.65944e-05
1.06909e-05
2.75208e-05
-2.17623e-05
3.29319e-05
4.06301e-05
1.96461e-05
6.24671e-05
-9.44732e-06
5.73812e-05
-4.43894e-05
5.9197e-05
-8.80863e-05
7.3134e-05
-0.000135596
7.45418e-05
-0.000162838
4.4269e-05
-0.000116484
-1.98002e-06
-9.87166e-05
-2.27831e-05
-9.14406e-05
-2.21533e-05
-8.78653e-05
-1.14993e-05
-8.58419e-05
-3.33467e-06
-0.000112156
7.41637e-07
-0.000112568
8.23357e-06
-0.000115763
5.65593e-06
-7.91769e-05
-1.33515e-06
-6.06589e-05
-8.21726e-06
-9.53173e-05
-1.63951e-05
-0.000130681
-3.76742e-05
-0.000116544
-5.6971e-05
-0.00010406
-1.60846e-05
1.85659e-05
-9.603e-05
7.32438e-06
-2.91725e-05
1.04657e-05
3.76319e-05
-8.98217e-06
8.19161e-05
-5.29957e-05
0.000101395
-0.000113894
0.000120097
-0.000174213
0.000133482
-0.000204442
0.00010511
-0.000183485
3.69868e-05
-0.000173322
-2.51249e-06
-0.000149966
-3.19608e-05
-0.000143621
-1.63797e-05
-0.000142989
-2.83969e-06
-0.000139837
3.27328e-06
-3.6382e-05
2.54991e-06
-1.96167e-05
1.40993e-06
-1.54815e-05
-6.1768e-08
-1.37495e-05
-4.60074e-06
-1.08894e-05
-1.2559e-05
-1.25083e-05
-1.61047e-05
-3.8763e-05
-1.357e-05
-0.000109923
-6.58986e-06
-0.000139329
-5.37098e-06
7.23955e-06
-0.00013446
-2.72696e-05
-1.9276e-06
-5.0187e-05
6.05403e-05
-8.62021e-05
0.000117933
-0.000140355
0.000155548
-0.000186477
0.000166238
-0.000180763
0.000129383
-9.66088e-05
2.72373e-05
-7.55269e-05
5.78975e-06
-0.000137081
2.91883e-07
-0.000167014
-7.61461e-06
-7.28742e-05
-1.11485e-05
-1.96451e-05
-6.10785e-06
-1.69056e-05
-1.43452e-09
-1.52431e-05
2.14262e-07
-1.34101e-05
-1.09619e-06
-1.0928e-05
-3.21698e-06
-9.22018e-06
-7.26112e-06
-9.18784e-06
-1.8472e-05
-9.35088e-06
-1.77806e-05
-4.47671e-06
-1.92636e-05
-4.388e-06
-1.23409e-05
-1.79384e-05
-4.38281e-08
2.23435e-06
-3.20394e-05
-4.48605e-05
4.08319e-05
-0.000101209
6.62341e-05
-0.000165405
0.00010081
-0.000213163
0.000136865
-0.00015148
8.36813e-05
-3.11252e-05
1.65523e-05
-7.30183e-06
3.57665e-06
-2.05365e-06
4.97114e-07
-2.41732e-06
1.31337e-08
-8.57157e-06
-1.13507e-06
-2.30209e-05
-7.36068e-06
-3.12294e-05
-1.42149e-05
-2.05169e-05
-8.00955e-06
-1.43395e-05
-6.50053e-06
-7.90661e-06
-8.32622e-06
-5.77105e-06
-9.14177e-06
-1.52239e-05
-2.12685e-05
-1.24463e-05
-1.70657e-05
-1.07591e-05
-1.53414e-05
-8.83682e-06
-1.65463e-05
-2.35761e-06
-1.61225e-05
1.05376e-06
-3.41174e-06
1.97847e-06
8.17399e-07
-2.05004e-05
5.89352e-05
-5.30155e-05
8.33824e-06
-8.0902e-05
5.24689e-06
-7.5225e-05
5.80173e-06
-1.86561e-05
5.68882e-06
-4.15493e-06
2.2325e-06
-1.10069e-06
5.59942e-07
-6.8155e-07
7.43574e-08
-6.88813e-07
1.55502e-08
-1.61612e-06
-2.2893e-07
-2.96931e-05
-1.78949e-06
-3.97026e-05
-8.93067e-06
-3.44575e-05
-1.12933e-05
-2.75493e-05
-1.14474e-05
-2.15571e-05
-1.2357e-05
-1.7042e-05
-1.14535e-05
-1.47326e-05
-9.87669e-06
-9.32651e-06
-3.71939e-06
-3.4821e-06
-1.37492e-06
-2.21591e-06
-1.88994e-07
-5.38938e-06
-2.28023e-07
-1.19177e-06
-1.41112e-07
1.32473e-07
8.22854e-08
-3.7112e-06
6.24946e-05
-8.67659e-06
6.68621e-06
-9.31194e-06
2.44124e-06
-7.3048e-06
1.51844e-06
-2.72123e-06
8.96519e-07
-6.47373e-07
2.01293e-07
-1.37895e-07
7.21674e-08
-7.46146e-08
1.33923e-08
-6.02152e-08
2.86893e-09
-2.8668e-07
-1.02676e-10
-2.06697e-06
-5.82541e-10
-1.46624e-05
-4.10499e-09
-2.51811e-05
-1.57752e-08
-3.34052e-05
-5.72861e-08
-2.64177e-05
-2.10219e-07
-5.24592e-06
-7.40892e-07
-4.43365e-07
-9.65708e-07
-9.69416e-08
-1.62176e-06
4.74511e-09
-1.48537e-06
9.59346e-09
-1.99933e-07
-1.99856e-07
-6.86575e-10
-2.18611e-06
-3.47253e-08
-3.5814e-07
-1.48921e-06
-2.91072e-06
7.17201e-05
-2.10031e-06
4.19819e-06
-1.59297e-06
8.75231e-07
-1.09764e-06
4.19294e-07
-3.5424e-07
1.67227e-07
-6.85714e-08
-1.04653e-08
-1.35168e-08
2.22914e-08
-3.14484e-09
4.27321e-09
-2.98927e-11
3.28987e-10
-1.42898e-10
7.31818e-14
-7.40683e-10
-2.59368e-11
-4.62432e-09
-3.16415e-10
-1.78067e-08
-1.71255e-09
-6.1032e-08
-7.75847e-09
-1.96003e-07
-3.76996e-08
-5.02363e-07
-2.00054e-07
-3.32206e-07
-7.57612e-07
-6.06163e-07
-2.96343e-06
-2.13257e-07
-2.8387e-06
-2.02986e-08
-4.27483e-07
-5.28671e-09
1.3692e-09
-1.44967e-08
-2.95705e-09
-4.7997e-08
-1.53484e-07
-1.47611e-06
7.82415e-05
-5.71659e-07
2.49875e-06
-3.0936e-07
2.89151e-07
-1.62392e-07
1.11464e-07
-5.84195e-08
3.90285e-08
-4.27993e-08
-3.45615e-09
-4.75441e-09
3.62337e-08
-2.9276e-10
6.65011e-10
-1.74164e-11
6.72331e-11
-1.73799e-11
8.41995e-13
-4.30947e-11
-1.01492e-12
-3.39303e-10
-1.95981e-11
-1.83949e-09
-1.75076e-10
-8.16166e-09
-1.44897e-09
-3.30571e-08
-1.29382e-08
-1.23884e-07
-1.15499e-07
-1.607e-06
-1.41962e-06
-1.44659e-06
-2.8995e-06
-9.6502e-07
-2.92904e-06
-5.02429e-08
-1.47204e-06
-1.1496e-08
-3.53366e-09
7.86405e-10
-7.99536e-10
-2.70181e-08
7.01737e-09
-1.35617e-06
6.96795e-05
-1.74267e-07
1.08989e-06
-7.6285e-08
9.01809e-08
-3.33364e-08
2.76002e-08
-9.03105e-09
8.00165e-09
-1.88879e-08
3.8746e-10
-6.52563e-09
2.37505e-08
-6.01888e-11
1.62942e-09
-1.31567e-12
9.16528e-12
-5.63527e-13
1.40399e-13
-1.57048e-12
-2.6051e-14
-2.05835e-11
-4.44624e-13
-1.89551e-10
-6.35475e-12
-1.52083e-09
-1.01311e-10
-1.27523e-08
-1.39117e-09
-1.13045e-07
-1.47929e-08
-1.23377e-06
-4.5378e-07
-1.55171e-06
-2.19904e-06
-1.48475e-06
-2.56048e-06
-1.25732e-08
-2.15623e-06
-1.391e-08
-9.2842e-09
-8.66109e-09
-1.10235e-08
-7.80285e-08
-1.31189e-08
-6.27652e-07
1.58406e-05
-4.86262e-08
4.21454e-07
-1.76215e-08
2.69095e-08
-6.57089e-09
6.20058e-09
-1.56995e-09
1.36977e-09
-2.63097e-09
1.53279e-10
-2.29864e-09
1.23102e-10
-9.20943e-12
4.57158e-09
-1.10343e-13
9.26219e-13
-5.89694e-14
8.86436e-14
-6.96705e-14
-2.22847e-14
-3.26724e-13
-1.9597e-13
-6.52297e-12
-2.52293e-13
-1.04712e-10
-4.67781e-12
-1.42622e-09
-1.00949e-10
-1.62731e-08
-1.72127e-09
-3.46564e-07
-2.54604e-08
-1.27742e-06
-6.15464e-07
-1.66023e-06
-1.68112e-06
-7.35754e-08
-1.52903e-06
-5.8964e-08
-6.56929e-09
-6.31638e-08
-1.76858e-08
-9.12626e-08
-3.29024e-07
-1.65868e-07
1.29946e-05
-1.20508e-08
2.35372e-07
-3.17547e-09
8.12587e-09
-9.87186e-10
1.32678e-09
-2.40016e-10
2.1398e-10
-1.9799e-10
2.05716e-11
-3.67062e-10
4.10111e-11
-7.07319e-11
7.73842e-11
-6.98472e-15
4.98257e-11
3.70366e-16
7.57997e-14
1.97306e-15
-2.77995e-14
-1.44393e-14
-1.76226e-13
-1.88506e-13
-1.75734e-13
-4.38823e-12
-7.54408e-13
-1.12435e-10
-1.04244e-11
-1.59336e-09
-1.38464e-10
-2.50157e-08
-1.64041e-09
-6.21688e-07
-1.44752e-08
-9.05647e-07
-1.35478e-07
-7.93381e-08
-2.87384e-07
-7.99723e-08
-7.21745e-10
-9.07209e-08
-7.71308e-09
-3.9002e-08
-2.88107e-07
-1.31624e-07
5.99998e-05
-2.95434e-09
9.67059e-08
-3.63034e-10
2.89201e-09
-5.94202e-11
2.84133e-10
-2.45909e-11
5.59767e-11
-2.16114e-11
8.75544e-12
-1.46201e-11
1.38951e-11
-1.3294e-12
1.18309e-11
3.93062e-13
1.48079e-11
-4.37138e-16
1.28577e-13
-1.69161e-14
-2.92292e-15
-3.97978e-14
-7.23285e-14
-1.75749e-13
-2.14274e-13
-3.34836e-13
-8.1169e-13
-4.28431e-12
-6.79366e-12
-8.90231e-11
-5.83408e-11
-1.07633e-09
-7.03052e-10
-1.16456e-08
-3.75088e-09
-1.34449e-07
-8.29816e-09
-2.00509e-08
-1.64479e-08
-1.7971e-08
5.99513e-10
-2.47955e-08
-4.94489e-10
-1.76436e-09
-6.16587e-08
-5.74517e-08
8.86698e-05
-1.11127e-11
3.62164e-08
5.69458e-12
2.24646e-09
3.53064e-12
1.43791e-10
1.65878e-13
2.14693e-11
-8.69598e-13
8.16265e-12
-2.06444e-12
7.27863e-12
-1.06629e-12
7.34263e-12
-8.16542e-14
8.97847e-13
-6.10857e-14
1.05268e-13
-9.15991e-14
1.96316e-14
-1.22472e-13
-5.88281e-14
-2.09404e-13
-2.44576e-13
1.041e-12
-2.60174e-12
-1.6e-12
-2.39872e-11
-1.67597e-10
-4.29835e-10
-9.31327e-10
-3.4748e-10
-1.80461e-09
-4.36053e-09
-1.03982e-08
-2.01968e-09
-5.72614e-08
-9.47327e-11
-1.57042e-09
8.40405e-09
-1.51668e-09
-9.31885e-11
-3.58754e-10
-2.63635e-09
-2.73385e-08
9.09571e-05
2.59306e-11
7.87065e-09
1.76846e-12
2.0974e-09
1.20574e-12
1.4177e-10
3.31861e-13
1.67792e-11
-6.96316e-13
1.03084e-11
-1.23398e-12
6.28393e-12
-5.21016e-13
6.35653e-12
-1.50589e-13
5.10649e-13
-1.90807e-13
1.31974e-13
-3.32474e-13
1.53336e-13
-4.11777e-13
-9.35421e-15
-8.0323e-13
-3.97782e-13
8.7005e-13
-6.45799e-12
4.03717e-11
-8.35817e-11
-2.91586e-09
-6.12826e-10
-8.05892e-09
-1.13603e-08
-8.93301e-09
-6.29095e-09
-9.65952e-09
-3.80793e-09
-1.46808e-08
9.76234e-10
-1.00189e-09
9.07436e-10
-6.58142e-10
-1.5139e-10
-2.75471e-10
-4.85369e-10
-2.01079e-08
9.16495e-05
3.0348e-09
2.60624e-07
4.30615e-12
5.08372e-09
-4.76633e-13
1.41064e-10
-9.97887e-14
1.83715e-11
-9.87664e-13
1.12954e-11
-7.95257e-13
7.33338e-12
-4.74782e-13
7.4572e-12
-4.11762e-13
8.3882e-13
-2.74777e-12
2.36339e-12
-1.10637e-11
1.42737e-12
-3.44324e-12
-7.21905e-12
-2.44195e-12
-3.58805e-12
-9.12354e-12
-8.8391e-12
-7.47974e-11
-4.84825e-11
-3.91096e-10
-5.53033e-10
-4.3601e-08
-5.25794e-09
-9.58312e-08
-7.40384e-08
-1.09477e-08
-1.37475e-07
-1.56348e-09
-7.95701e-09
-9.74006e-10
4.26851e-10
-1.09755e-09
-9.26797e-12
-5.42868e-10
-6.77594e-10
1.15887e-06
9.19453e-05
1.36597e-08
2.16532e-06
1.70767e-10
1.85166e-08
-3.43679e-13
3.13284e-10
-7.65587e-13
2.21369e-11
-2.61503e-12
1.4497e-11
-1.55443e-11
2.03601e-11
-2.41889e-10
2.35043e-10
-1.78062e-09
1.54099e-09
-4.20359e-09
9.28916e-09
-5.56976e-10
-1.44247e-10
-1.10678e-10
-4.37281e-10
-1.72098e-11
-1.01042e-10
-3.26267e-11
-2.69476e-11
-1.16422e-10
-1.70286e-11
-6.29623e-10
-1.3956e-10
-1.30396e-08
-1.58845e-09
-1.70255e-07
-8.83352e-08
-1.1712e-07
-1.78058e-07
-6.79564e-10
-8.03263e-08
-3.15775e-10
1.20031e-10
-3.91161e-10
1.07981e-10
-1.83395e-10
-5.84405e-10
1.21207e-06
1.00546e-05
3.98693e-08
4.54252e-06
1.18789e-09
5.73228e-08
7.90507e-12
1.50132e-09
-1.18647e-11
4.43263e-11
-3.45696e-10
3.51692e-10
-7.00319e-09
6.6942e-09
-2.58418e-08
8.16109e-08
-5.84392e-08
6.8166e-08
-6.78325e-08
2.47483e-08
-1.94729e-08
-1.11182e-08
-1.27485e-09
-1.95867e-08
-1.12218e-10
-1.32191e-09
-2.12763e-11
-1.70267e-10
-5.15885e-11
-1.21264e-11
-1.93942e-10
-6.85979e-12
-1.74221e-09
-1.29891e-10
-1.49979e-07
-1.06126e-08
-1.9194e-07
-1.16793e-07
-7.4169e-08
-1.72041e-07
-2.39726e-10
-3.44743e-08
-1.07419e-10
5.24363e-11
-3.17704e-11
-2.49211e-10
6.01077e-07
4.96597e-07
3.48178e-07
4.23468e-06
2.11846e-08
4.22704e-07
5.81815e-10
2.22557e-08
-1.92317e-11
6.52724e-10
-6.89328e-10
3.37013e-09
-1.83542e-08
8.91462e-08
-3.99251e-08
1.16199e-07
-5.20139e-08
8.55064e-08
-5.50493e-08
3.30353e-08
-4.83004e-08
-1.26154e-08
-1.89522e-08
-4.1753e-08
-7.26521e-10
-2.1103e-08
-3.04126e-11
-8.91785e-10
-3.13212e-12
-4.90362e-11
-1.03773e-11
-4.78589e-12
-1.38715e-10
-1.80366e-12
-1.393e-08
-8.03247e-14
-1.54783e-07
-4.06796e-08
-1.46022e-07
-1.54746e-07
-1.59504e-08
-1.31747e-07
-6.96537e-11
-1.57992e-08
1.79417e-11
-1.09782e-10
2.50666e-07
5.74106e-08
6.11172e-07
6.3576e-07
7.31454e-08
9.46534e-07
7.8807e-09
8.95826e-08
9.71712e-10
7.70598e-09
6.32898e-09
2.30797e-08
1.34436e-10
1.41661e-07
-1.08394e-08
1.31741e-07
-1.07458e-08
8.97172e-08
-1.32006e-08
4.52525e-09
-1.72118e-08
-3.85347e-09
-9.59309e-09
-4.18144e-08
-3.45323e-09
-5.29506e-08
-9.23559e-11
-6.3515e-09
-5.73786e-13
-1.55333e-10
3.7337e-13
-5.97533e-12
8.9112e-14
-1.58661e-12
2.33301e-14
-8.34555e-14
-5e-08
-3.92793e-14
-1.28316e-07
-5.03744e-08
-8.5708e-08
-1.39607e-07
-3.05198e-09
-8.92835e-08
-2.72522e-09
-2.79699e-10
2.98547e-08
5.87847e-09
2.03132e-07
7.2661e-08
3.36342e-07
6.61235e-07
3.59927e-08
2.73738e-07
4.84584e-09
4.0915e-08
1.82051e-08
3.09169e-08
4.14901e-08
1.18104e-07
3.71973e-08
1.36005e-07
3.0484e-08
9.93564e-08
7.46639e-09
1.14824e-08
4.31016e-09
-4.37711e-09
1.6998e-08
-2.67772e-08
1.77248e-08
-4.48099e-08
-7.74198e-10
-1.5286e-08
-5.07828e-11
-1.02722e-09
-1.2367e-12
-5.86147e-11
2.75697e-13
-3.34817e-12
3.47263e-13
-2.24438e-13
2.36036e-13
4.37251e-14
-3.47194e-08
4.70159e-10
-9.99268e-08
-3.05137e-08
-3.09355e-08
-1.13477e-07
-6.94292e-08
-2.92949e-09
3.54034e-09
3.88781e-10
5.43891e-08
8.69778e-09
1.39509e-07
2.7822e-08
7.17917e-08
1.18622e-07
3.15256e-08
9.81721e-08
3.63799e-08
3.62434e-08
6.80542e-08
6.45662e-08
8.9093e-08
1.16681e-07
8.38884e-08
9.29197e-08
2.26917e-08
1.44582e-08
1.8569e-08
-1.77074e-09
2.93143e-08
-1.19815e-08
2.34311e-08
-4.46541e-08
8.34016e-10
-1.89448e-08
-9.44368e-11
-1.79643e-09
-3.56116e-12
-1.6967e-10
1.36258e-12
-1.00636e-11
1.68277e-12
-6.70363e-13
1.70787e-12
2.73489e-14
4.66599e-10
5.18334e-12
1.54297e-08
6.99973e-10
-3.92081e-08
-1.61965e-08
-6.42725e-08
-3.09094e-09
2.18864e-10
2.68049e-11
6.90683e-09
6.28062e-10
2.63063e-08
3.57076e-09
6.33889e-08
1.01121e-08
5.19265e-08
5.08526e-08
3.20307e-08
3.34378e-08
4.7008e-08
3.82988e-08
8.05827e-08
4.79021e-08
4.6081e-08
2.57152e-08
3.11648e-08
1.2368e-08
2.78879e-08
1.25429e-09
4.47409e-08
-6.8904e-09
2.6168e-08
-2.49603e-08
5.34064e-09
-1.59573e-08
5.26655e-11
-1.41671e-09
6.48613e-12
-1.82312e-10
2.0656e-12
-1.24158e-11
1.4603e-12
-7.45905e-13
1.09161e-12
-5.83632e-15
6.09145e-12
8.87881e-14
7.10316e-10
9.98533e-12
3.39026e-08
5.38631e-11
-5.66749e-11
6.56861e-08
1.78497e-11
1.073e-12
5.23482e-10
2.65418e-11
3.45108e-09
2.28745e-10
9.65531e-09
2.32408e-09
2.32392e-08
8.08527e-09
2.40858e-08
2.06153e-08
2.86296e-08
2.28417e-08
3.9083e-08
2.66054e-08
3.79215e-08
2.08647e-08
3.43077e-08
1.24917e-08
2.63854e-08
4.60311e-09
6.36009e-08
2.37526e-09
4.41984e-08
-4.72612e-09
7.24461e-09
-6.1284e-09
2.33677e-10
-5.05259e-10
2.15569e-11
-7.4639e-11
2.04603e-12
-5.79329e-12
4.30779e-13
-3.39463e-13
5.49326e-13
-1.28902e-14
4.10928e-13
1.68475e-15
1.05656e-11
-7.25399e-15
6.55578e-11
-2.63158e-14
-7.35628e-15
9.05354e-12
7.44192e-13
3.8964e-15
2.29885e-11
3.80197e-13
2.14514e-10
1.77142e-11
1.82763e-09
2.96535e-10
5.07154e-09
4.77284e-09
2.27838e-08
3.4065e-08
2.57313e-08
3.1287e-08
2.73326e-08
1.89923e-08
2.83147e-08
1.69755e-08
2.53349e-08
1.17601e-08
7.55482e-08
2.44438e-08
6.75777e-08
1.70152e-08
5.45668e-08
9.55537e-09
3.10226e-09
9.89596e-10
1.85873e-10
6.3902e-11
1.96762e-11
7.27098e-13
2.15254e-12
-1.67997e-13
3.48313e-13
-1.19513e-14
1.42996e-13
-1.27435e-15
4.54839e-14
-7.37352e-16
3.11472e-14
-6.31151e-16
3.81712e-15
-2.96138e-16
-8.92833e-16
3.17248e-15
8.87172e-15
-2.27677e-15
3.90876e-13
1.81202e-14
1.46178e-11
1.66501e-13
1.7048e-09
1.32446e-11
3.96598e-08
1.03323e-08
4.83382e-08
3.36219e-08
4.39531e-08
4.98109e-08
3.65015e-08
5.25619e-08
4.31542e-08
5.62077e-08
7.11969e-08
4.04979e-08
6.67906e-08
3.81694e-08
5.86718e-08
2.81675e-08
1.50444e-08
7.29923e-09
2.53538e-10
3.47734e-10
4.10257e-11
4.66017e-11
5.256e-12
4.24539e-12
5.74062e-13
3.71391e-13
8.50325e-14
2.89513e-14
9.63439e-15
1.3983e-15
4.96115e-15
-2.55561e-16
1.36402e-15
-1.71997e-16
5.57242e-16
-4.71631e-17
-9.22948e-18
2.88819e-15
3.26543e-17
2.36871e-16
-9.37644e-16
7.01366e-15
1.0668e-13
9.30023e-14
6.70935e-11
1.21115e-11
5.06821e-09
3.5912e-09
2.02415e-08
2.34828e-08
3.20049e-08
3.98551e-08
4.1733e-08
4.60068e-08
4.63943e-08
5.3278e-08
4.50157e-08
4.52867e-08
4.90824e-08
4.17016e-08
1.67712e-08
1.25063e-08
8.98479e-11
2.40269e-11
2.2983e-11
3.55042e-11
5.23083e-12
7.08751e-12
7.69743e-13
9.24205e-13
1.26441e-13
9.86418e-14
1.91985e-14
8.78831e-15
9.1667e-15
6.56226e-16
2.8964e-15
-2.91498e-17
4.71379e-16
-5.76477e-17
6.29268e-17
-2.3919e-17
-4.5677e-18
3.04364e-17
1.0632e-16
1.954e-16
-1.17658e-15
8.43281e-15
-2.84234e-13
4.63402e-13
4.91751e-12
9.78622e-12
-3.01518e-09
-1.05495e-10
-4.52494e-09
5.9195e-09
5.04538e-09
3.26066e-08
1.44176e-08
3.60305e-08
2.29741e-08
4.49385e-08
1.70609e-08
2.53641e-08
5.66239e-09
5.07231e-09
3.5318e-10
-2.81429e-10
4.44332e-11
-3.05938e-11
6.90863e-12
2.56592e-13
8.41641e-13
5.57222e-13
1.4013e-13
1.14963e-13
2.90672e-14
1.55879e-14
9.16429e-15
1.98727e-15
2.5274e-15
2.16396e-16
6.23603e-16
3.40008e-18
1.63015e-16
-8.31111e-18
2.84895e-17
-4.77484e-18
-1.78632e-18
1.35193e-17
-2.17814e-17
1.78373e-16
1.11242e-14
2.75192e-15
4.64856e-13
2.30902e-14
1.00905e-11
2.51725e-13
-1.22073e-10
-1.10595e-11
-2.4991e-09
-1.78315e-10
-2.82422e-09
-1.58319e-11
2.23305e-10
5.86184e-10
2.77792e-09
6.65869e-10
1.51707e-09
1.80158e-10
5.57878e-10
-4.84334e-11
9.09744e-11
-2.55829e-11
1.19651e-11
-4.71413e-12
1.43007e-12
-4.86276e-13
1.87943e-13
2.35737e-16
3.19018e-14
9.3659e-15
9.67129e-15
3.29823e-15
2.20459e-15
4.7892e-16
3.50393e-16
3.58507e-17
8.09512e-17
1.32939e-18
2.57473e-17
-6.34077e-19
6.45419e-18
-3.70779e-19
-2.20096e-19
4.00962e-18
-1.04571e-16
8.50074e-17
-2.87705e-16
2.67713e-15
1.99565e-14
3.17182e-15
2.52885e-13
1.10697e-14
-1.18178e-11
-5.14743e-13
-2.06055e-10
-4.70717e-12
-3.51989e-10
3.64681e-12
-7.99609e-11
4.43101e-11
2.28345e-10
5.79119e-11
1.89113e-10
1.84802e-11
6.07387e-11
-2.98508e-12
1.23324e-11
-2.39446e-12
1.86323e-12
-6.04572e-13
2.41084e-13
-7.53434e-14
3.25366e-14
-4.19569e-15
1.00479e-14
3.76677e-15
2.25475e-15
7.27269e-16
2.76731e-16
6.58332e-17
3.50812e-17
4.31699e-18
7.26953e-18
2.06105e-19
2.04699e-18
-3.25546e-20
5.55097e-19
-1.86987e-20
-1.80057e-20
4.25622e-19
-5.2595e-17
1.47953e-17
-2.21002e-16
9.23234e-16
1.00649e-16
1.17531e-15
6.84509e-15
2.00574e-15
-5.48999e-13
-1.54521e-14
-6.71869e-12
-8.70719e-14
-1.46383e-11
8.78991e-13
-2.57023e-14
3.65189e-12
2.19167e-11
4.66334e-12
1.76483e-11
1.39022e-12
6.15322e-12
-2.63723e-13
1.4127e-12
-2.15136e-13
2.34838e-13
-4.99733e-14
3.16392e-14
-8.60237e-15
8.70263e-15
3.42035e-15
2.03268e-15
8.07714e-16
2.38167e-16
8.10541e-17
2.55664e-17
6.3658e-18
3.06996e-18
4.35675e-19
5.36106e-19
2.32863e-20
1.19022e-19
-1.1237e-21
3.87626e-20
-8.25057e-22
-1.34812e-21
3.52558e-20
-8.60407e-18
1.48424e-18
-3.80701e-17
1.23889e-16
-1.31535e-16
2.37474e-16
-2.61564e-16
8.94429e-16
-2.315e-14
-1.94298e-16
-2.34543e-13
6.97856e-15
-2.83231e-13
9.01912e-14
8.49203e-13
2.74847e-13
2.32052e-12
3.50954e-13
1.64838e-12
9.17122e-14
5.85364e-13
-1.34467e-14
1.40416e-13
-8.72343e-15
2.30284e-14
-2.30408e-15
5.88125e-15
2.5158e-15
1.48728e-15
6.76049e-16
1.76917e-16
7.35662e-17
1.96369e-17
6.75381e-18
2.07495e-18
5.39456e-19
2.33743e-19
3.67879e-20
3.56623e-20
2.1222e-21
6.29945e-21
-1.59699e-24
2.62013e-21
-3.27972e-23
-1.23307e-22
3.0093e-21
-7.75808e-19
1.46624e-19
-3.24701e-18
1.30797e-17
-1.80462e-17
2.71658e-17
-7.66782e-17
1.54545e-16
-6.26052e-16
6.91642e-16
-3.90948e-15
6.58016e-18
1.84264e-14
1.08817e-14
1.10388e-13
2.46767e-14
1.99672e-13
2.95103e-14
1.36662e-13
1.26271e-14
4.96742e-14
1.44532e-15
1.15035e-14
2.07813e-15
3.05172e-15
1.47594e-15
7.89158e-16
4.26474e-16
1.07312e-16
5.05355e-17
1.31862e-17
5.46061e-18
1.44446e-18
5.07162e-19
1.4536e-19
3.9492e-20
1.54836e-20
2.6545e-21
2.11248e-21
1.59919e-22
3.01863e-22
3.54278e-24
1.38207e-22
-1.2942e-24
-9.51324e-24
3.93806e-22
-6.71409e-20
1.50692e-20
-1.80301e-19
1.54679e-18
-6.33378e-19
2.62841e-18
-4.99596e-18
1.36411e-17
-5.17462e-18
1.30368e-16
2.39871e-16
5.28105e-16
2.90844e-15
1.47484e-15
1.00401e-14
1.08842e-15
1.63594e-14
1.74207e-15
1.0455e-14
1.46035e-15
3.7001e-15
1.51081e-15
1.2556e-15
6.58187e-16
3.15541e-16
1.85781e-16
5.21645e-17
2.65727e-17
7.36505e-18
3.42961e-18
8.90503e-19
3.73523e-19
9.29889e-20
3.36853e-20
8.8707e-21
2.53712e-21
8.94454e-22
1.66982e-22
1.07345e-22
1.00017e-23
1.28425e-23
2.96257e-25
6.58007e-24
-5.54782e-26
-7.81285e-25
3.59462e-23
-5.19637e-21
1.44867e-21
-2.21043e-21
1.87377e-19
1.12442e-20
2.59615e-19
2.27782e-19
1.0825e-18
4.53037e-18
9.70371e-18
5.46106e-17
8.51121e-17
3.26801e-16
2.52206e-16
8.3925e-16
4.56783e-16
1.23864e-15
5.24338e-16
8.5564e-16
4.02233e-16
3.60991e-16
2.09738e-16
9.97473e-17
5.65649e-17
2.02715e-17
1.0686e-17
3.35912e-18
1.68455e-18
4.6315e-19
2.18011e-19
5.34608e-20
2.30584e-20
5.29111e-21
2.00522e-21
4.77164e-22
1.45569e-22
4.44216e-23
9.14568e-24
4.35265e-24
4.84108e-25
5.15069e-25
1.31766e-26
3.58908e-25
-2.25625e-27
-5.1272e-26
3.22606e-24
-1.64067e-22
1.35586e-22
2.0497e-21
2.12891e-20
6.15908e-21
2.538e-20
5.30173e-20
8.82685e-20
6.85601e-19
6.87809e-19
6.97936e-18
5.17181e-18
3.54742e-17
2.17347e-17
7.90407e-17
5.0844e-17
1.06434e-16
5.51608e-17
7.01344e-17
3.47367e-17
2.45909e-17
1.27496e-17
6.19435e-18
3.25056e-18
1.2403e-18
6.45154e-19
1.99449e-19
1.01191e-19
2.62789e-20
1.2728e-20