/*--------------------------------*- C++ -*----------------------------------*\
| =========                 |                                                 |
| \\      /  F ield         | OpenFOAM: The Open Source CFD Toolbox           |
|  \\    /   O peration     | Version:  2206                                  |
|   \\  /    A nd           | Website:  www.openfoam.com                      |
|    \\/     M anipulation  |                                                 |
\*---------------------------------------------------------------------------*/
FoamFile
{
    version     2.0;
    format      ascii;
    arch        "LSB;label=32;scalar=64";
    class       volScalarField;
    location    "0.975";
    object      p;
}
// * * * * * * * * * * * * * * * * * * * * * * * * * * * * * * * * * * * * * //

dimensions      [1 -1 -2 0 0 0 0];

internalField   nonuniform List<scalar> 
2268
(
1352.88
1345.99
1336.32
1321.97
1302.26
1276.98
1246.13
1209.28
1166.92
1121
1074.31
1029.3
990.579
962.534
942.252
928.529
923.225
920.194
912.003
901.338
891.904
885.751
884.411
1295.62
1287.94
1277.49
1262.87
1243.66
1219.25
1188.64
1151.66
1108.78
1062.05
1014.78
970.717
932.839
904.084
882.124
867.843
863.628
861.091
852.716
841.738
831.987
825.735
824.945
1240.23
1230.76
1218.13
1203.78
1186.29
1162.8
1132.45
1095.23
1051.47
1003.21
954.551
910.986
874.651
845.222
822.662
809.858
805.527
801.53
792.457
780.796
770.166
763.558
763.613
1183.55
1172.76
1158.36
1144.78
1129.74
1107.79
1077.89
1040.27
995.107
944.373
892.923
847.15
811.022
783.094
762.99
752.254
747.448
741.969
731.844
719.004
706.92
699.65
700.137
1125.16
1113.57
1098.25
1086.08
1074.28
1054.43
1025.09
986.826
939.598
885.269
829.717
780.373
743.27
717.493
701.446
693.325
689.556
682.821
671.521
656.878
643.386
635.335
635.423
1065.61
1053.66
1038.09
1027.87
1020.33
1003.17
974.415
935.17
885.169
826.033
764.74
710.707
672.869
649.279
637.492
633.61
631.612
624.164
611.348
594.19
579.165
570.467
571.039
1005.95
993.684
978.473
971.309
968.73
954.509
926.269
885.667
832.189
765.936
696.254
635.938
599.637
578.5
572.518
574.238
574.908
566.682
551.522
530.46
512.223
502.733
506.568
947.63
934.483
920.134
917.364
919.377
908.223
880.728
838.563
778.95
701.791
620.877
553.16
518.822
503.96
506.462
515.813
520.84
512.1
493.086
464.812
441.402
431.669
438.809
296.34
298.881
298.533
293.985
306.667
336.905
367.339
379.156
389.32
414.678
451.732
441.295
418.206
378.429
287.044
300.952
426.889
517.551
494.852
259.205
256.844
256.155
251.44
264.458
293.935
329.901
345.074
342.242
353.625
391.6
384.476
354.208
284.738
194.911
222.596
349.012
452.319
440.256
223.002
208.484
196.21
191.279
207.846
240.111
278.813
307.694
317.78
329.892
353.516
363.966
316.78
200.689
139.324
174.164
292.977
383.811
382.434
190.313
167.856
155.046
161.279
174.66
188.784
218.228
269.959
300.388
311.525
328.601
356.541
290.26
155.942
102.298
138.66
240.046
309.683
318.157
160.044
150.615
145.533
156.999
171.689
178.375
191.677
249.134
283.4
291.224
303.719
312.665
255.528
137.603
85.5391
121.851
196.354
236.504
250.382
136.151
144.211
139.682
154.891
168.831
176.584
190.497
235.128
258.455
259.449
270.657
276.325
228.442
138.443
92.668
123.303
168.931
173.022
189.576
126.217
139.118
134.555
149.107
163.787
168.58
178.551
220.596
220.771
214.638
228.04
237.386
210.454
145.561
112.263
130.841
146.601
119.576
139.725
115.219
131.211
129.276
140.25
156.347
164.448
167.54
182.621
180.189
174.157
185.782
198.79
187.534
149.922
128.118
132.586
104.822
70.0657
98.9179
856.768
842.048
830.969
839.579
847.238
839.226
813.994
769.414
698.278
598.887
497.389
430.251
397.738
393.708
404.8
426.322
441.371
432.51
404.493
356.245
317.942
309.28
326.614
733.813
718.245
717.12
740.15
757.541
754.692
738.086
703.015
619.623
483.446
375.464
319.497
295.753
290.738
302.379
325.89
323.431
304.013
270.562
204.759
129.736
123.607
183.045
590.207
562.333
589.779
642.21
677.036
693.721
683.489
623.359
509.41
382.91
289.151
230.257
202.922
177.909
157.339
159.147
154.581
151.764
148.689
124.951
38.4285
-9.95527
69.3183
398.847
348.725
427.717
514.146
558.064
554.165
491.407
391.355
320.912
238.203
170.2
120.246
108.372
89.2591
85.2279
83.901
86.9645
96.3191
106.043
112.507
116.001
81.7942
64.3098
288.128
206.538
246.161
317.434
334.96
253.899
114.316
47.8043
32.3374
44.1463
56.4566
67.5303
68.7123
68.0114
70.0068
70.3192
72.3812
75.5076
78.3651
80.7748
82.3889
70.1656
34.2273
313.63
170.601
129.586
128.424
88.6895
26.9315
10.7245
5.89752
2.80969
2.38034
13.4415
40.5463
48.9427
55.6792
58.5037
56.1559
52.8334
50.1957
48.095
43.7806
34.0921
22.063
9.96427
253.015
94.809
53.4377
35.2109
10.0655
0.127973
-0.872886
-1.08432
-1.43711
-1.25038
1.35929
13.3896
27.8962
35.9052
37.6037
33.565
24.3324
20.2985
12.7139
5.54696
3.90082
5.05463
4.90449
109.607
36.5444
17.5748
5.47966
-0.484438
-2.21581
-2.5444
-2.70887
-2.80343
-2.80485
-2.81026
-1.5012
4.65905
7.74362
7.45658
5.12695
6.23388
5.63206
2.09618
-0.13826
-0.650866
-0.642463
1.35605
30.6109
9.30486
4.84803
0.450149
-1.75977
-2.56351
-2.85773
-3.09533
-3.19863
-3.24007
-3.2113
-3.1255
-2.95589
-2.60778
-2.13762
-1.04744
1.02624
1.78725
-0.127613
-1.00424
-1.20162
-1.28053
-1.13481
10.2471
0.308922
0.00405369
-1.38849
-2.19812
-2.67231
-2.97226
-3.24324
-3.39891
-3.47181
-3.49904
-3.41253
-3.20599
-2.94056
-2.62707
-2.04774
-1.1067
-0.58091
-1.45112
-1.76059
-1.60475
-1.4352
-1.49572
5.49892
-1.48342
-1.35757
-2.02331
-2.39891
-2.76681
-3.0685
-3.34388
-3.52497
-3.63133
-3.64904
-3.55494
-3.36204
-3.13392
-2.90714
-2.66782
-2.4718
-2.11724
-2.36745
-2.35069
-1.85073
-1.50377
-1.61394
2.2264
-2.08886
-1.94479
-2.44245
-2.62992
-2.93211
-3.16804
-3.39311
-3.555
-3.64109
-3.63872
-3.55287
-3.40156
-3.22646
-3.06182
-2.9399
-2.92197
-2.94499
-2.95579
-2.47734
-2.08599
-1.89084
-2.00464
-2.58301
-2.79895
-2.47087
-2.85049
-2.8718
-3.11403
-3.25941
-3.41507
-3.5283
-3.58275
-3.5713
-3.50168
-3.39047
-3.26365
-3.13736
-3.0304
-2.98016
-3.11991
-3.3344
-2.6758
-2.39974
-2.41826
-2.54988
-2.76171
-3.1016
-2.87344
-3.15521
-3.06055
-3.27277
-3.32705
-3.43299
-3.49198
-3.52093
-3.52
-3.48097
-3.41731
-3.33145
-3.22614
-3.11667
-3.03626
-3.04159
-3.16525
-2.97581
-2.85814
-2.97709
-3.05519
-1.40935
-3.15315
-3.05156
-3.32527
-3.20232
-3.3917
-3.37608
-3.46279
-3.49292
-3.52223
-3.54344
-3.54886
-3.52125
-3.45788
-3.35991
-3.24231
-3.14633
-3.08615
-3.02224
-3.03777
-3.23412
-3.43748
-3.44428
-0.945653
-3.08955
-3.12413
-3.36406
-3.33069
-3.4692
-3.46485
-3.54605
-3.592
-3.65231
-3.70356
-3.7268
-3.70667
-3.64278
-3.53907
-3.41526
-3.30567
-3.18347
-3.02204
-3.11995
-3.48033
-3.73927
-3.70455
-0.938227
-3.10806
-3.14422
-3.40624
-3.42331
-3.60309
-3.64376
-3.77876
-3.8898
-3.98493
-4.03501
-4.03426
-3.97746
-3.87917
-3.75126
-3.62204
-3.52284
-3.37315
-3.15036
-3.19866
-3.5702
-3.86335
-3.81465
12.9217
-3.19569
-3.41509
-3.54324
-3.58703
-3.80956
-3.97035
-4.25229
-4.48804
-4.62229
-4.62286
-4.51737
-4.34731
-4.15749
-3.97461
-3.82385
-3.73733
-3.63792
-3.43429
-3.36721
-3.59616
-3.80962
-3.81991
14.3849
-4.04637
-3.61835
-3.71574
-3.78816
-4.12048
-4.49756
-5.064
-5.53966
-5.7278
-5.56709
-5.20815
-4.8168
-4.46429
-4.18554
-3.98993
-3.88851
-3.84859
-3.72739
-3.61454
-3.65378
-3.79698
-3.80249
0.803106
-4.68702
-3.61416
-3.76955
-3.96198
-4.46513
-5.16238
-6.19104
-7.00252
-7.27883
-6.89362
-6.10805
-5.33874
-4.76517
-4.36624
-4.11764
-3.98757
-3.94698
-3.89591
-3.8086
-3.78967
-3.82652
-3.84624
-1.57594
-2.7595
-3.18184
-3.74559
-4.07506
-4.73181
-5.76315
-7.25324
-8.26588
-8.60758
-8.17664
-7.04355
-5.82642
-4.99581
-4.49163
-4.20511
-4.05345
-3.98911
-3.99582
-3.95947
-3.9197
-3.90629
-3.93772
-2.37369
-2.59549
-2.96142
-3.67282
-4.12795
-4.88763
-6.17624
-7.81445
-9.01594
-9.36271
-8.87057
-7.6064
-6.11451
-5.09882
-4.54533
-4.2466
-4.09628
-4.03751
-4.04297
-4.06036
-4.06299
-4.01649
-4.01869
-2.65017
-2.63615
-2.86029
-3.43511
-4.06792
-4.8774
-6.1572
-7.74569
-8.98607
-9.31502
-8.75848
-7.47462
-6.01658
-5.01443
-4.49991
-4.24505
-4.12355
-4.08184
-4.09165
-4.14809
-4.17661
-4.18466
-4.1621
-2.9217
-2.89014
-2.96948
-3.33872
-3.93633
-4.71996
-5.77499
-7.02139
-8.00831
-8.24845
-7.69793
-6.63034
-5.49089
-4.73939
-4.37531
-4.20773
-4.13502
-4.11601
-4.13096
-4.17345
-4.23938
-4.28041
-4.26964
-3.22094
-3.2053
-3.26833
-3.52302
-3.98506
-4.59961
-5.29784
-6.02437
-6.55473
-6.61826
-6.18586
-5.49646
-4.81854
-4.40436
-4.22676
-4.1569
-4.13587
-4.14018
-4.16012
-4.18918
-4.22761
-4.26921
-4.30576
-3.52965
-3.54216
-3.63484
-3.87099
-4.26071
-4.70284
-5.04342
-5.25441
-5.3163
-5.19606
-4.91827
-4.57588
-4.2953
-4.15444
-4.11636
-4.1202
-4.1379
-4.16036
-4.18357
-4.20397
-4.22066
-4.23096
-4.24421
-3.81411
-3.8452
-3.9624
-4.20074
-4.57387
-4.94339
-5.07849
-4.95376
-4.69495
-4.43954
-4.24609
-4.10236
-4.03635
-4.0383
-4.07153
-4.11298
-4.15057
-4.18254
-4.20892
-4.22953
-4.242
-4.24631
-4.24313
-4.05393
-4.08344
-4.19389
-4.40334
-4.76676
-5.03802
-5.07907
-4.85542
-4.51841
-4.23213
-4.063
-3.98994
-3.99115
-4.03101
-4.08572
-4.13786
-4.18257
-4.2187
-4.24634
-4.26574
-4.27653
-4.27868
-4.27219
-4.24218
-4.27449
-4.35994
-4.51537
-4.7385
-4.91257
-4.92521
-4.74482
-4.47426
-4.24013
-4.10043
-4.04482
-4.05207
-4.09251
-4.14242
-4.19134
-4.23428
-4.26927
-4.29587
-4.31412
-4.32412
-4.32607
-4.32025
-4.39771
-4.42344
-4.48052
-4.57311
-4.68685
-4.76409
-4.74991
-4.6325
-4.45258
-4.29667
-4.19723
-4.15599
-4.15954
-4.18776
-4.22654
-4.26689
-4.30371
-4.33459
-4.35853
-4.3752
-4.38463
-4.38714
-4.38312
-4.52883
-4.54678
-4.58115
-4.62859
-4.67726
-4.69888
-4.66861
-4.58822
-4.47822
-4.38034
-4.31431
-4.2837
-4.28215
-4.2999
-4.32758
-4.35828
-4.38769
-4.41326
-4.43367
-4.4483
-4.45703
-4.46015
-4.45795
-4.64451
-4.65588
-4.6751
-4.69712
-4.71403
-4.71274
-4.68226
-4.62603
-4.54892
-4.48599
-4.4397
-4.41516
-4.41052
-4.42031
-4.43864
-4.4607
-4.48298
-4.50314
-4.51978
-4.53212
-4.53987
-4.54336
-4.54259
-4.75132
-4.75786
-4.76746
-4.77573
-4.77808
-4.76811
-4.74141
-4.69905
-4.64787
-4.60196
-4.56725
-4.54692
-4.54026
-4.54433
-4.55556
-4.5706
-4.58673
-4.60198
-4.61503
-4.62503
-4.63141
-4.63512
-4.63535
-4.85368
-4.85695
-4.86078
-4.86171
-4.8575
-4.84488
-4.82209
-4.79018
-4.75397
-4.72035
-4.69387
-4.67681
-4.66921
-4.6696
-4.67578
-4.68545
-4.69663
-4.70774
-4.71763
-4.72563
-4.73148
-4.73422
-4.73485
-4.95428
-4.9555
-4.95614
-4.95344
-4.94671
-4.93403
-4.91513
-4.89086
-4.86424
-4.83919
-4.8187
-4.80447
-4.79682
-4.79503
-4.79779
-4.80357
-4.81094
-4.81869
-4.82589
-4.83191
-4.83636
-4.8389
-4.8398
-5.05467
-5.0547
-5.05387
-5.04949
-5.04223
-5.03092
-5.01553
-4.9969
-4.97694
-4.958
-4.94204
-4.93027
-4.9231
-4.92018
-4.92076
-4.92383
-4.92839
-4.93354
-4.93854
-4.94286
-4.94617
-4.94826
-4.9492
-5.15566
-5.15511
-5.15356
-5.14908
-5.14224
-5.13264
-5.12037
-5.10609
-5.09103
-5.07665
-5.06424
-5.05466
-5.04827
-5.04495
-5.04424
-5.04552
-5.04809
-5.05129
-5.05457
-5.05751
-5.05984
-5.0614
-5.06224
-5.2577
-5.25695
-5.25522
-5.2512
-5.24536
-5.2376
-5.22808
-5.21727
-5.20599
-5.19518
-5.18566
-5.17805
-5.17262
-5.16937
-5.16803
-5.16821
-5.16943
-5.17124
-5.17322
-5.17507
-5.17658
-5.17763
-5.17829
-5.36087
-5.36011
-5.35855
-5.3553
-5.35069
-5.34476
-5.33766
-5.32975
-5.32154
-5.31363
-5.30657
-5.30076
-5.29641
-5.29355
-5.29204
-5.29163
-5.29202
-5.29288
-5.29393
-5.29496
-5.29581
-5.29643
-5.29689
-5.46513
-5.46449
-5.46332
-5.46095
-5.45765
-5.45348
-5.44857
-5.44316
-5.43756
-5.43214
-5.42724
-5.42312
-5.41992
-5.41767
-5.41631
-5.41569
-5.41562
-5.4159
-5.41634
-5.41679
-5.41716
-5.41743
-5.41768
-5.57016
-5.56968
-5.56901
-5.56759
-5.5656
-5.56312
-5.56023
-5.55706
-5.55379
-5.55061
-5.54771
-5.54523
-5.54326
-5.54181
-5.54086
-5.54034
-5.54013
-5.54014
-5.54025
-5.54039
-5.54051
-5.5406
-5.54069
-5.67632
-5.67621
-5.67597
-5.67545
-5.67478
-5.67397
-5.67301
-5.67195
-5.67085
-5.66975
-5.66872
-5.66781
-5.66704
-5.66642
-5.66596
-5.66563
-5.6654
-5.66523
-5.66508
-5.66493
-5.66477
-5.66464
-5.66462
330.254
348.718
263.971
173.708
249.948
283.307
174.986
109.923
154.88
186.367
131.293
95.6238
64.1288
77.022
74.7871
81.4798
15.3765
23.6206
31.0168
59.0313
6.08399
13.9898
16.0205
22.3634
6.04319
7.45374
9.84332
7.61952
3.07341
2.81076
3.92142
3.01901
-0.733224
-1.56436
-1.38543
-0.233456
-1.93287
-2.51124
-2.51032
-2.2271
-2.20491
-2.8794
-2.91515
-2.46318
-2.57374
-3.21752
-3.03443
-2.44879
-2.93941
-3.49471
-3.11169
-2.42521
-3.1957
-3.18096
-2.90309
-2.45682
-3.3563
-3.29569
-3.04906
-2.70783
-3.53518
-3.36178
-3.10794
-2.8455
-3.6293
-3.44458
-3.19881
-2.94193
-3.69626
-3.55818
-3.34059
-3.08768
-3.75964
-3.696
-3.49971
-3.23371
-3.87064
-3.86873
-3.66994
-3.37936
-4.02169
-4.04307
-3.82302
-3.50019
-4.1298
-4.16899
-3.9495
-3.6045
-4.2136
-4.29188
-4.04901
-3.70468
-4.29449
-4.33857
-4.08411
-3.78139
-4.30076
-4.23655
-4.0503
-3.83753
-4.2343
-4.1704
-4.04643
-3.90332
-4.22326
-4.16702
-4.08178
-3.98709
-4.2526
-4.20832
-4.14689
-4.08028
-4.30418
-4.27075
-4.22596
-4.17771
-4.37111
-4.34632
-4.31359
-4.27829
-4.44958
-4.43166
-4.4079
-4.38201
-4.53714
-4.52451
-4.50747
-4.4886
-4.6321
-4.62349
-4.61149
-4.5979
-4.73311
-4.72747
-4.71925
-4.70972
-4.83906
-4.83559
-4.83024
-4.82393
-4.94908
-4.94719
-4.94409
-4.94042
-5.06247
-5.06177
-5.06052
-5.05906
-5.17872
-5.17896
-5.17926
-5.17969
-5.29744
-5.29844
-5.30003
-5.30206
-5.4183
-5.41983
-5.42252
-5.42599
-5.54093
-5.54286
-5.54667
-5.55145
-5.66512
-5.66783
-5.67269
-5.67858
122.337
116.577
114.967
116.737
117.753
125.32
137.373
149.174
138.453
122.682
126.381
139.457
143.666
127.33
107.411
94.023
20.765
19.7614
52.4031
99.8801
99.2304
89.9955
76.0266
72.5858
71.0516
93.7609
101.318
85.7298
67.0775
59.6223
63.0806
74.6001
69.3424
32.3887
6.20569
3.11311
3.30756
7.30096
89.8671
87.7822
77.3315
62.6285
58.7757
63.5695
67.7086
54.7887
27.0536
17.741
29.0829
38.707
32.6243
21.019
2.65563
1.15739
1.69902
1.78154
1.74698
86.8962
82.498
73.6437
64.58
61.0618
60.3836
52.0725
35.0408
19.5306
12.1881
7.10952
4.77758
1.75895
0.857303
0.740768
1.02489
1.33251
1.40554
1.45868
77.2112
79.0008
71.9649
67.7117
61.8157
42.0994
17.5556
3.18357
1.9489
1.60538
1.09508
0.798855
0.521747
0.426961
0.567503
0.758094
1.07976
1.22991
1.17124
48.4429
66.7285
69.2534
68.3928
62.9636
7.61715
0.827447
1.12655
1.24813
0.843919
0.505852
0.34773
0.356549
0.397614
0.447252
0.551578
0.713291
0.8601
0.850256
10.2014
20.2268
52.632
57.9345
38.2376
0.77266
0.895445
1.0318
0.802155
0.306989
-0.0443175
-0.0561055
0.118018
0.216757
0.263452
0.317294
0.39891
0.499524
0.530348
3.36406
9.51503
21.648
27.3529
14.9487
-4.27173
1.78225
1.83392
0.698237
0.031497
-0.316079
-0.27143
-0.0916418
0.0018273
0.0445754
0.0715707
0.11019
0.183207
0.22365
-0.234256
-0.119313
0.131659
2.52649
9.7991
1.2493
-0.0976675
1.56177
0.424579
-0.132869
-0.397668
-0.400662
-0.291816
-0.230853
-0.187278
-0.158527
-0.131268
-0.0855503
-0.0603153
-1.76703
-1.6351
-1.66109
-1.70779
-0.372673
-0.888815
-2.99581
-1.6581
-0.662205
-0.509236
-0.570556
-0.556485
-0.496689
-0.457926
-0.419545
-0.385676
-0.348776
-0.322359
-0.324603
-2.02101
-1.67485
-1.49566
-1.45149
-1.77523
-2.94898
-8.86681
-2.59112
-1.69205
-1.09418
-0.908582
-0.814374
-0.760624
-0.714726
-0.671054
-0.621221
-0.563419
-0.561221
-0.603605
-2.08321
-1.7108
-1.25214
-1.22883
-2.11143
-3.27529
-6.82674
-2.66108
-1.96109
-1.50925
-1.2667
-1.1451
-1.07985
-1.02091
-0.969255
-0.901256
-0.823035
-0.860621
-0.93308
-2.17769
-2.20069
0.0697745
0.500036
-1.17209
-3.2672
-3.45143
-2.88825
-2.09609
-1.77852
-1.57626
-1.47476
-1.40541
-1.34919
-1.30335
-1.25353
-1.17828
-1.22485
-1.26612
-2.04932
-1.97062
-2.1111
-2.13829
-2.34485
-2.75251
-2.96685
-2.6251
-2.14759
-1.95933
-1.82837
-1.76048
-1.7085
-1.66005
-1.6307
-1.63274
-1.59568
-1.55273
-1.53638
-2.57077
-2.50594
-2.46058
-2.4312
-2.43747
-2.48691
-2.45824
-2.27939
-2.13614
-2.07751
-2.02665
-2.00065
-1.98141
-1.94474
-1.92229
-1.97993
-1.97989
-1.83488
-1.73306
-2.68228
-2.58157
-2.51961
-2.48929
-2.46045
-2.40784
-2.32749
-2.25057
-2.21741
-2.2053
-2.19929
-2.20179
-2.22166
-2.20438
-2.16118
-2.24736
-2.28672
-2.13427
-1.93571
-2.81115
-2.74335
-2.69163
-2.65254
-2.60814
-2.55213
-2.49205
-2.44008
-2.39671
-2.37043
-2.36434
-2.37124
-2.40478
-2.41477
-2.37666
-2.42233
-2.4915
-2.40079
-2.17851
-2.95532
-2.88358
-2.83199
-2.7921
-2.75372
-2.71289
-2.67008
-2.62208
-2.56712
-2.52631
-2.50824
-2.51163
-2.53451
-2.56172
-2.54185
-2.54826
-2.60738
-2.573
-2.39785
-3.08102
-2.99832
-2.94108
-2.89631
-2.8567
-2.81893
-2.78185
-2.74026
-2.6905
-2.64921
-2.63009
-2.63025
-2.64206
-2.66329
-2.6626
-2.65164
-2.67826
-2.64814
-2.57114
-3.20705
-3.10984
-3.04288
-2.99055
-2.94524
-2.9029
-2.86137
-2.81889
-2.77905
-2.75275
-2.74362
-2.74539
-2.75083
-2.75942
-2.76032
-2.74665
-2.74351
-2.72617
-2.69038
-3.32448
-3.2204
-3.14939
-3.09513
-3.04927
-3.00724
-2.96716
-2.92909
-2.89648
-2.87496
-2.8675
-2.86835
-2.86979
-2.86924
-2.86376
-2.84743
-2.82834
-2.80599
-2.7864
-3.43317
-3.33033
-3.26018
-3.20783
-3.16434
-3.12518
-3.08875
-3.05546
-3.02771
-3.00864
-2.99918
-2.99694
-2.99515
-2.98974
-2.97892
-2.96059
-2.93693
-2.90275
-2.87998
-3.53527
-3.44028
-3.37551
-3.32701
-3.28662
-3.25071
-3.21803
-3.18891
-3.16426
-3.14632
-3.13513
-3.12938
-3.12458
-3.11644
-3.10269
-3.08413
-3.06264
-3.03301
-3.0069
-3.63023
-3.55063
-3.4943
-3.451
-3.41436
-3.38171
-3.35221
-3.32594
-3.30352
-3.28585
-3.27312
-3.26447
-3.25691
-3.24679
-3.23142
-3.21241
-3.19275
-3.17209
-3.14942
-3.72298
-3.66204
-3.61552
-3.57756
-3.54477
-3.51534
-3.48869
-3.46478
-3.44392
-3.42649
-3.41261
-3.40175
-3.3919
-3.37994
-3.36337
-3.34317
-3.3239
-3.30146
-3.28322
-3.82207
-3.77614
-3.73783
-3.70479
-3.67577
-3.64959
-3.62574
-3.60412
-3.58483
-3.56804
-3.55378
-3.54165
-3.53014
-3.51656
-3.49857
-3.47666
-3.45453
-3.4335
-3.40987
-3.92793
-3.89144
-3.85953
-3.83121
-3.806
-3.78317
-3.76228
-3.74318
-3.72588
-3.71042
-3.6968
-3.68466
-3.67262
-3.65798
-3.6381
-3.61372
-3.58625
-3.5681
-3.5429
-4.03535
-4.00601
-3.97978
-3.95609
-3.93475
-3.91537
-3.89762
-3.88139
-3.86666
-3.85341
-3.84176
-3.83137
-3.82058
-3.80609
-3.78453
-3.7573
-3.7263
-3.70217
-3.67938
-4.14334
-4.11999
-4.0988
-4.0794
-4.0618
-4.04583
-4.03136
-4.01835
-4.00684
-3.99693
-3.98916
-3.98325
-3.97688
-3.96536
-3.94413
-3.91326
-3.87899
-3.84824
-3.83192
-4.25214
-4.23384
-4.21696
-4.20139
-4.18724
-4.17455
-4.16338
-4.15389
-4.14632
-4.14128
-4.14018
-4.14307
-4.1464
-4.14313
-4.12399
-4.08838
-4.04934
-4.01049
-4.00248
-4.36221
-4.34801
-4.33473
-4.32245
-4.31135
-4.30164
-4.29357
-4.28762
-4.28446
-4.28576
-4.29462
-4.31171
-4.33155
-4.34003
-4.32089
-4.27743
-4.22832
-4.18909
-4.1798
-4.47372
-4.46282
-4.45254
-4.44303
-4.43452
-4.42727
-4.42173
-4.41866
-4.4193
-4.42675
-4.44648
-4.47988
-4.51915
-4.53813
-4.5152
-4.45957
-4.38923
-4.36806
-4.357
-4.58687
-4.57865
-4.57087
-4.56366
-4.5572
-4.55178
-4.54787
-4.54633
-4.54872
-4.55901
-4.58412
-4.62604
-4.67651
-4.69996
-4.67157
-4.60794
-4.53986
-4.53939
-4.52844
-4.70179
-4.69581
-4.69013
-4.6848
-4.67993
-4.67574
-4.67267
-4.6714
-4.67338
-4.68176
-4.70359
-4.74115
-4.78402
-4.79707
-4.77002
-4.7244
-4.68833
-4.70178
-4.6929
-4.81859
-4.81452
-4.81059
-4.8068
-4.80319
-4.79993
-4.79734
-4.796
-4.79707
-4.79992
-4.81421
-4.83888
-4.86481
-4.86844
-4.8471
-4.82725
-4.82955
-4.84091
-4.83151
-4.93728
-4.93484
-4.93238
-4.9299
-4.9274
-4.925
-4.92293
-4.9215
-4.92097
-4.92207
-4.92847
-4.94101
-4.95441
-4.95814
-4.95087
-4.94775
-4.95639
-4.95356
-4.94672
-5.0578
-5.05674
-5.05556
-5.05427
-5.05286
-5.0514
-5.05004
-5.04896
-5.04813
-5.04805
-5.05011
-5.0549
-5.06066
-5.06491
-5.06662
-5.06736
-5.06687
-5.0635
-5.06145
-5.18002
-5.18018
-5.18019
-5.18003
-5.17967
-5.17916
-5.17856
-5.17797
-5.17729
-5.17691
-5.17726
-5.17864
-5.18069
-5.18267
-5.18438
-5.18594
-5.18629
-5.18478
-5.1838
-5.30381
-5.30507
-5.30615
-5.30701
-5.30761
-5.30793
-5.30798
-5.30778
-5.30735
-5.30686
-5.30653
-5.30656
-5.30704
-5.30784
-5.30871
-5.30931
-5.30917
-5.30813
-5.30714
-5.42898
-5.43121
-5.43324
-5.435
-5.43641
-5.43742
-5.438
-5.43811
-5.43777
-5.43709
-5.43623
-5.43538
-5.43475
-5.43438
-5.43417
-5.43393
-5.43349
-5.43279
-5.43158
-5.55556
-5.55865
-5.56154
-5.56412
-5.5663
-5.56796
-5.56903
-5.56943
-5.56912
-5.56816
-5.56669
-5.56495
-5.56323
-5.56174
-5.56051
-5.55946
-5.55853
-5.5578
-5.55646
-5.68373
-5.68767
-5.69143
-5.69487
-5.69787
-5.70028
-5.70194
-5.70268
-5.70241
-5.70108
-5.6988
-5.69585
-5.69267
-5.68973
-5.68723
-5.68521
-5.68364
-5.68261
-5.68098
)
;

boundaryField
{
    leftWall
    {
        type            calculated;
        value           nonuniform List<scalar> 
50
(
1352.88
1295.62
1240.23
1183.55
1125.16
1065.61
1005.95
947.63
856.768
733.813
590.207
398.847
288.128
313.63
253.015
109.607
30.6109
10.2471
5.49892
2.2264
-2.58301
-2.76171
-1.40935
-0.945653
-0.938227
12.9217
14.3849
0.803106
-1.57594
-2.37369
-2.65017
-2.9217
-3.22094
-3.52965
-3.81411
-4.05393
-4.24218
-4.39771
-4.52883
-4.64451
-4.75132
-4.85368
-4.95428
-5.05467
-5.15566
-5.2577
-5.36087
-5.46513
-5.57016
-5.67632
)
;
    }
    rightWall
    {
        type            calculated;
        value           nonuniform List<scalar> 
50
(
494.852
440.256
382.434
318.157
250.382
189.576
139.725
98.9179
52.4031
7.30096
1.74698
1.45868
1.17124
0.850256
0.530348
0.22365
-0.0603153
-0.324603
-0.603605
-0.93308
-1.26612
-1.53638
-1.73306
-1.93571
-2.17851
-2.39785
-2.57114
-2.69038
-2.7864
-2.87998
-3.0069
-3.14942
-3.28322
-3.40987
-3.5429
-3.67938
-3.83192
-4.00248
-4.1798
-4.357
-4.52844
-4.6929
-4.83151
-4.94672
-5.06145
-5.1838
-5.30714
-5.43158
-5.55646
-5.68098
)
;
    }
    lowerWall
    {
        type            calculated;
        value           nonuniform List<scalar> 
62
(
1382.3
1375.42
1365.75
1351.4
1331.69
1306.4
1275.56
1238.71
1196.35
1150.43
1103.73
1058.61
1019.56
991.341
971.383
957.663
952.277
948.94
940.749
930.142
921.207
915.173
913.835
884.411
824.945
763.613
700.137
635.423
571.039
506.568
438.809
392.849
411.313
326.543
223.089
296.34
259.205
223.002
190.313
160.044
136.151
126.217
115.219
313.233
315.778
315.476
311.643
324.33
354.562
382.084
393.901
415.008
440.927
477.981
467.544
444.455
404.678
313.242
324.18
450.895
541.56
518.861
)
;
    }
    atmosphere
    {
        type            calculated;
        value           nonuniform List<scalar> 
46
(
-5.72904
-5.72904
-5.72904
-5.72904
-5.72904
-5.72904
-5.72904
-5.72904
-5.72904
-5.72904
-5.72904
-5.72904
-5.72904
-5.72904
-5.72904
-5.72904
-5.72904
-5.72904
-5.72904
-5.72904
-5.72904
-5.72904
-5.72904
-5.7292
-5.73168
-5.7367
-5.74307
-5.74877
-5.75316
-5.75741
-5.76136
-5.76487
-5.76776
-5.76981
-5.77082
-5.77061
-5.76905
-5.76619
-5.7623
-5.758
-5.754
-5.75066
-5.74802
-5.74606
-5.74499
-5.74271
)
;
    }
    defaultFaces
    {
        type            empty;
    }
}


// ************************************************************************* //
