/*--------------------------------*- C++ -*----------------------------------*\
| =========                 |                                                 |
| \\      /  F ield         | OpenFOAM: The Open Source CFD Toolbox           |
|  \\    /   O peration     | Version:  2206                                  |
|   \\  /    A nd           | Website:  www.openfoam.com                      |
|    \\/     M anipulation  |                                                 |
\*---------------------------------------------------------------------------*/
FoamFile
{
    version     2.0;
    format      ascii;
    arch        "LSB;label=32;scalar=64";
    class       volScalarField;
    location    "0.975";
    object      p_rgh;
}
// * * * * * * * * * * * * * * * * * * * * * * * * * * * * * * * * * * * * * //

dimensions      [1 -1 -2 0 0 0 0];

internalField   nonuniform List<scalar> 
2268
(
1382.3
1375.42
1365.75
1351.4
1331.69
1306.4
1275.56
1238.71
1196.35
1150.43
1103.73
1058.61
1019.56
991.341
971.383
957.663
952.277
948.94
940.749
930.142
921.207
915.173
913.835
1383.91
1376.23
1365.78
1351.16
1331.94
1307.54
1276.93
1239.95
1197.07
1150.33
1102.96
1055.68
1016.72
987.962
966.015
951.913
949.034
948.139
939.589
929.136
919.317
913.888
913.218
1387.37
1377.91
1365.27
1350.93
1333.43
1309.95
1279.6
1242.38
1198.62
1150.36
1101.7
1056.92
1015.39
985.035
962.471
951.976
952.363
948.677
939.604
927.943
917.313
910.704
910.735
1389.56
1378.77
1364.36
1350.79
1335.75
1313.8
1283.9
1246.28
1201.11
1150.38
1098.93
1053.14
1016.32
986.559
967.03
958.26
953.453
947.975
937.85
925.009
912.925
905.656
906.118
1390.02
1378.44
1363.12
1350.95
1339.15
1319.29
1289.95
1251.69
1204.46
1150.13
1094.58
1045.24
1008.13
982.357
966.311
958.189
954.421
947.686
936.386
921.743
908.251
900.199
900.281
1389.33
1377.39
1361.81
1351.59
1344.05
1326.89
1298.14
1258.89
1208.89
1149.76
1088.46
1034.43
996.592
973.002
961.215
957.333
955.335
947.886
935.071
917.913
902.888
894.189
894.762
1388.53
1376.27
1361.05
1353.88
1351.27
1337.06
1308.85
1268.25
1214.77
1148.52
1078.84
1018.52
982.219
961.081
955.1
956.82
957.489
949.263
934.101
913.019
894.751
885.314
889.148
1389.07
1375.92
1361.57
1358.8
1360.71
1349.52
1322.13
1280
1220.39
1143.23
1062.29
994.569
959.68
945.401
947.903
957.254
962.262
953.517
932.038
901.106
878.813
872.051
880.247
313.233
315.778
315.476
311.643
324.33
354.562
382.084
393.901
415.008
440.927
477.981
467.544
444.455
404.678
313.242
324.18
450.895
541.56
518.861
309.901
309.543
309.062
304.429
317.452
346.924
380.45
389.423
386.973
432.372
470.346
463.223
432.955
357.68
227.172
253.241
407.16
524.346
512.283
310.294
296.164
280.169
272.283
293.775
328.431
366.985
393.718
389.362
405.251
479.2
495.191
443.739
263.856
180.988
215.882
339.972
498.6
502.479
312.223
251.448
181.314
176.737
198.104
251.134
341.385
388.89
399.923
411.06
454.142
539.925
461.411
214.272
160.602
196.989
377.472
477.74
486.231
293.694
160.137
152.969
164.435
179.125
186.675
237.782
322.638
442.454
420.921
430.906
492.083
440.079
212.565
160.501
196.813
383.982
452.599
466.495
153.202
153.34
148.78
163.979
177.921
186.033
223.684
399.398
538.817
533.918
428.882
378.118
320.616
230.095
184.288
214.955
410.48
437.159
453.718
142.022
153.786
145.381
159.859
175.1
268.976
441.801
552.05
552.942
546.961
525.823
484.585
328.418
254.117
220.579
353.309
458.156
431.752
451.894
192.286
175.21
141.815
153.289
217.94
459.981
545.858
565.896
563.638
557.607
569.232
581.834
530.002
296.31
261.235
455.296
435.662
414.968
459.112
1390.23
1375.51
1364.44
1373.05
1380.68
1372.63
1347.45
1302.88
1231.74
1132.25
1003.8
864.543
809.075
827.111
880.962
926.875
952.613
949.776
922.917
876.023
842.696
840.344
860.07
1392.4
1376.91
1375.78
1398.81
1416.2
1413.35
1396.75
1361.67
1277.62
1049.92
742.268
664.295
640.503
635.536
647.992
753.507
919.005
911.445
903.808
862.504
787.938
781.826
841.663
1368.08
1342.76
1373.63
1426.07
1460.89
1477.58
1467.32
1405.58
1105.17
796.477
700.853
640.592
613.257
686.403
678.587
680.412
510.3
411.655
504.043
765.238
817.5
773.589
853.12
1301.04
1256.96
1336.75
1423.19
1467.11
1463.05
1398.48
1166.48
871.796
754.288
740.905
693.664
677.445
365.049
143.166
141.737
145.356
154.473
165.638
224.924
589.648
809.607
834.539
1314.52
1240.7
1280.37
1351.66
1368.92
1275.34
614.751
282.329
370.411
617.778
508.976
167.956
134.279
132.379
134.375
134.687
137.346
168.818
186.703
165.71
167.324
154.795
294.591
1410.15
1195.15
1201.88
1258.08
1008.97
337.064
18.3936
9.05665
7.46651
8.47875
46.4483
198.78
232.029
130.683
133.425
137.053
218.766
238.899
237.058
230.626
177.595
97.5243
39.0456
1280.04
523.806
462.427
535.443
214.794
7.70631
1.58439
0.498841
0.13605
1.14741
75.0889
221.945
237.859
245.868
247.566
242.533
204.046
196.6
146.75
100.593
90.854
108.369
36.7348
1062.75
62.1995
35.9111
20.3793
7.48338
0.477089
-0.914735
-1.26008
-1.38332
-1.40161
-1.40699
31.7737
175.491
230.34
207.583
90.7328
15.433
8.3339
4.10921
1.71298
1.03247
5.65043
35.8704
983.402
19.5151
11.8078
5.54691
1.22054
-0.786504
-1.27975
-1.55472
-1.66346
-1.70502
-1.67614
-1.5898
-1.4175
-1.05786
-0.545259
0.698795
4.50732
10.3732
9.22218
0.959361
0.616824
0.427484
2.46522
1046.83
6.65643
3.43349
1.21503
-0.14181
-0.728421
-0.934009
-1.58225
-1.73866
-1.81158
-1.83882
-1.75226
-1.54526
-1.27541
-0.939957
-0.249399
8.69366
19.7535
18.8874
11.6812
0.16197
0.391445
0.322315
1117.01
1.6897
1.02401
0.00968725
-0.52005
-0.892865
-0.817862
-1.5549
-1.73956
-1.84591
-1.86362
-1.76953
-1.57661
-1.34829
-1.11776
-0.824628
9.9831
19.7714
19.4213
18.4461
0.0533795
0.396362
0.427362
766.57
0.401934
0.170712
-0.465349
-0.697881
-1.00481
-1.1535
-1.41534
-1.64439
-1.73048
-1.72811
-1.64225
-1.49095
-1.31585
-1.15102
-1.02552
-0.957723
12.3986
20.2377
15.2376
-0.0763476
0.1544
1.60482
107.192
-0.544655
-0.367914
-0.79612
-0.830859
-1.07532
-1.22056
-1.34474
-1.49154
-1.54694
-1.5355
-1.46588
-1.35466
-1.22785
-1.10155
-0.994557
-0.941412
-1.06213
8.91442
5.84365
-0.283369
-0.303442
0.22294
224.088
-0.868691
-0.693044
-0.988169
-0.898026
-1.11105
-1.16543
-1.27153
-1.33019
-1.35993
-1.359
-1.31997
-1.25631
-1.17045
-1.06514
-0.955628
-0.874725
-0.87673
-0.980952
0.191573
-0.642076
-0.805164
-0.887079
808.6
-0.84345
-0.759818
-1.0373
-0.915627
-1.1053
-1.08974
-1.17655
-1.20668
-1.23604
-1.25724
-1.26266
-1.23505
-1.17169
-1.07365
-0.954168
-0.857618
-0.788734
-0.706383
-0.520256
-0.431877
-1.13815
-1.15357
959.408
-0.67008
-0.711056
-0.952262
-0.91911
-1.05773
-1.05342
-1.13466
-1.18061
-1.24092
-1.29217
-1.31541
-1.29528
-1.23138
-1.12757
-0.988173
-0.769689
-0.691649
-0.552484
-0.568355
-0.896724
-1.32312
-1.28884
1014.29
0.145274
-0.606799
-0.869494
-0.886649
-1.06647
-1.10716
-1.24217
-1.35322
-1.44835
-1.49841
-1.49767
-1.44086
-1.34249
-1.21443
-1.08355
-0.678065
0.729494
0.7716
-0.646353
-1.02208
-1.31145
-1.26875
1076.06
7.09736
-0.752003
-0.881349
-0.925167
-1.14771
-1.30853
-1.5905
-1.82626
-1.96051
-1.91454
-1.85542
-1.68546
-1.49544
-1.31243
-1.1611
-1.0388
1.75349
3.46906
0.916164
-0.922759
-1.13643
-1.14151
723.25
18.5073
-0.827019
-0.928573
-1.00106
-1.33342
-1.71051
-2.09125
-1.89252
-1.91587
-2.32673
-2.37262
-2.02915
-1.67689
-1.39828
-1.20281
-1.09996
0.421297
3.5993
3.81081
-0.342322
-1.00215
-1.00485
40.2508
44.0964
0.96503
-0.855833
-1.04961
-1.54918
-2.13552
-2.23627
-3.01684
-3.29316
-2.90795
-2.27729
-2.39913
-1.8527
-1.45391
-1.20537
-1.0754
-1.0045
2.34309
3.95031
3.46377
-0.906697
-0.926434
3.30304
33.9288
7.00802
-0.685379
-1.03605
-1.60745
-1.76736
-3.11257
-4.11315
-5.04199
-4.40863
-3.04064
-2.05858
-1.92363
-1.45379
-1.16774
-1.01609
-0.951742
-0.468852
4.13299
4.13918
1.91606
-0.892371
0.987901
2.49639
8.07797
1.59409
-0.941603
-1.62093
-1.87105
-3.49502
-4.69911
-5.86924
-5.49848
-3.59577
-2.0699
-1.65524
-1.38156
-1.08398
-0.933714
-0.87495
-0.880406
0.156444
4.3343
4.43378
0.498421
0.654356
0.781806
3.14077
2.56625
-0.0538852
-1.438
-2.19823
-3.26857
-4.49805
-5.57471
-5.27099
-3.94732
-1.81222
-1.2399
-1.20324
-0.956932
-0.835766
-0.794083
-0.803894
-0.86033
0.197657
4.62381
4.65112
0.492377
0.535016
0.4857
0.90121
0.411272
-1.06643
-2.16921
-2.9856
-3.89682
-4.59634
-4.09479
-3.01005
-1.21611
-0.781294
-0.931356
-0.793842
-0.721968
-0.703045
-0.718001
-0.760502
-0.826413
-0.847557
3.42904
0.317256
0.333568
0.272996
0.0301385
-0.268648
-0.902471
-1.56604
-2.28799
-2.8201
-2.88872
-2.44622
-1.51226
-0.477461
-0.293164
-0.650001
-0.617445
-0.597568
-0.602019
-0.621976
-0.651044
-0.689469
-0.731072
-0.767619
0.133687
0.121201
0.0286142
-0.204357
-0.581827
-0.900254
-1.2038
-1.38764
-1.45479
-1.33142
-0.989713
-0.0772748
0.183236
-0.0501016
-0.439536
-0.455913
-0.474444
-0.497012
-0.520233
-0.540641
-0.557329
-0.56763
-0.580878
-0.0255835
-0.056671
-0.173844
-0.412086
-0.235071
-0.211657
-0.372584
-0.514811
-0.675777
-0.120166
0.435625
0.567517
0.48075
-0.155323
-0.280666
-0.324133
-0.362009
-0.394007
-0.420397
-0.441001
-0.453477
-0.457781
-0.454605
-0.140212
-0.169717
-0.280167
-0.483451
-0.255034
-0.13669
-0.16409
0.0513023
0.37378
0.63198
0.773424
0.73211
0.0741101
-0.113475
-0.171437
-0.224067
-0.268844
-0.304981
-0.332619
-0.352018
-0.362806
-0.36496
-0.358472
-0.20327
-0.235578
-0.321021
-0.476388
-0.59307
-0.0294683
0.142105
0.323412
0.589428
0.80855
0.571114
0.110559
-0.00943742
-0.0527966
-0.103384
-0.152414
-0.195366
-0.230353
-0.256959
-0.275202
-0.285203
-0.287156
-0.281332
-0.233597
-0.259331
-0.316407
-0.408989
-0.522041
-0.519613
-0.217753
0.0100268
0.16869
0.0862164
0.00126532
0.0104273
0.0051565
-0.0235391
-0.0624154
-0.102777
-0.139597
-0.170479
-0.194421
-0.211095
-0.220519
-0.223032
-0.219015
-0.239532
-0.257476
-0.291843
-0.339289
-0.387919
-0.409134
-0.377341
-0.295069
-0.184779
-0.0884775
-0.0240115
0.00588048
0.00722195
-0.0105823
-0.0382707
-0.068981
-0.0983847
-0.123961
-0.144368
-0.158999
-0.16773
-0.170843
-0.168652
-0.23001
-0.241383
-0.260598
-0.282623
-0.299527
-0.298202
-0.267584
-0.211145
-0.133987
-0.0712188
-0.025094
-0.000634886
0.0039799
-0.00581442
-0.024147
-0.0462044
-0.0684823
-0.0886475
-0.105282
-0.117619
-0.125377
-0.128858
-0.128096
-0.211629
-0.218165
-0.227766
-0.236042
-0.23839
-0.228411
-0.201702
-0.159325
-0.108142
-0.0622424
-0.0275521
-0.00722642
-0.000562501
-0.0046387
-0.0158689
-0.0309033
-0.0470354
-0.0622891
-0.0753349
-0.0853376
-0.0917154
-0.0954272
-0.0956563
-0.188792
-0.192068
-0.195889
-0.196822
-0.192616
-0.179994
-0.157205
-0.125295
-0.0890754
-0.0554599
-0.0289784
-0.0119185
-0.00432558
-0.00471556
-0.0108893
-0.0205668
-0.0317463
-0.0428499
-0.0527478
-0.0607388
-0.0665981
-0.0693303
-0.069961
-0.164202
-0.165419
-0.166059
-0.163362
-0.156632
-0.143954
-0.125048
-0.100777
-0.0741544
-0.0491124
-0.0286217
-0.0143854
-0.00673692
-0.00495098
-0.00770675
-0.0134901
-0.0208628
-0.0286118
-0.0358106
-0.0418251
-0.0462757
-0.048817
-0.0497155
-0.139396
-0.139425
-0.138592
-0.134211
-0.126953
-0.115645
-0.100258
-0.0816238
-0.061664
-0.0427237
-0.026761
-0.0149986
-0.00782048
-0.00490772
-0.0054832
-0.00855691
-0.0131181
-0.0182628
-0.0232621
-0.0275865
-0.0308937
-0.0329859
-0.0339261
-0.115192
-0.114635
-0.113092
-0.108605
-0.101769
-0.0921736
-0.0799028
-0.0656206
-0.0505572
-0.036179
-0.0237709
-0.0141939
-0.0077995
-0.00447581
-0.00377357
-0.0050543
-0.0076219
-0.0108213
-0.0141005
-0.017042
-0.0193676
-0.0209337
-0.021767
-0.0920381
-0.091281
-0.0895516
-0.0855327
-0.0796932
-0.0719382
-0.0624111
-0.051605
-0.0403275
-0.0295118
-0.0199979
-0.0123842
-0.00695809
-0.00370449
-0.00236934
-0.00254764
-0.00377017
-0.00557523
-0.00755916
-0.00940821
-0.0109118
-0.0119703
-0.0126217
-0.0700095
-0.0692508
-0.0676932
-0.0644376
-0.0598302
-0.0539026
-0.0468036
-0.0388875
-0.0306806
-0.0227744
-0.0157117
-0.00989809
-0.0055503
-0.00269153
-0.00118271
-0.000773434
-0.00115677
-0.0020183
-0.00307429
-0.00410014
-0.00494903
-0.0055734
-0.00602916
-0.0490791
-0.0484396
-0.0472621
-0.0448972
-0.0415966
-0.037431
-0.032521
-0.0271036
-0.0215068
-0.0160901
-0.0111889
-0.00706311
-0.00386204
-0.00161751
-0.000258267
0.000362211
0.000433388
0.000156277
-0.000283152
-0.000735966
-0.00110655
-0.00137681
-0.00163129
-0.0289125
-0.028431
-0.0277578
-0.0263432
-0.0243554
-0.021873
-0.0189786
-0.0158087
-0.012541
-0.00936587
-0.00646517
-0.00398329
-0.00200704
-0.000560768
0.000387433
0.000912939
0.00111736
0.00111121
0.000997667
0.000856697
0.000733637
0.000645809
0.000562708
-0.00987295
-0.00976897
-0.00952254
-0.00900701
-0.00834097
-0.00752918
-0.00657048
-0.00550939
-0.00440304
-0.00330747
-0.00227879
-0.00136382
-0.000593566
1.93905e-05
0.000481185
0.000812566
0.0010447
0.00121461
0.0013599
0.00151098
0.00167655
0.00180466
0.00182699
863.703
882.167
797.222
594.547
908.587
941.121
511.873
158.593
934.168
614.375
249.766
137.536
634.28
419.329
379.007
269.866
274.609
256.713
237.663
337.414
37.5394
58.7963
41.626
277.583
38.1092
40.7675
37.1944
46.0511
39.3401
39.3725
40.1531
33.2825
16.8071
11.649
18.539
33.1253
-0.162725
-0.751414
-0.751493
2.00192
-0.278813
-0.987945
-1.02477
-0.573883
4.86676
2.43209
-1.01266
-0.427013
7.96639
13.603
4.59507
0.418852
-0.500962
15.6083
23.5473
23.9935
-1.06604
-1.00607
-0.173112
2.57726
-1.12015
-0.948294
-0.693691
-0.424044
-1.08867
-0.906652
-0.661232
-0.309343
-1.01815
-0.89532
-0.678235
-0.425604
-0.957873
-0.907838
-0.712268
-0.446745
-0.951323
-0.953973
-0.753892
-0.463923
-0.976361
-0.992994
-0.306427
-0.428241
-0.957196
-0.226351
1.07556
-0.380815
-0.0658643
2.05564
1.15585
-0.344511
3.54123
2.27884
-0.670557
-0.368412
-0.571758
-0.698417
-0.51216
-0.299391
-0.570973
-0.507068
-0.383096
-0.239986
-0.434731
-0.378497
-0.29325
-0.19856
-0.338878
-0.294598
-0.233168
-0.166562
-0.265268
-0.231838
-0.187048
-0.138796
-0.206997
-0.182216
-0.149485
-0.114181
-0.160281
-0.142353
-0.118601
-0.0927113
-0.122647
-0.110015
-0.0929722
-0.0740984
-0.0924063
-0.0838015
-0.0717972
-0.0582119
-0.0682185
-0.0625872
-0.0543593
-0.0448331
-0.048979
-0.0455109
-0.0401585
-0.0338478
-0.0338044
-0.0319137
-0.0288194
-0.0251451
-0.022003
-0.0213024
-0.0200517
-0.0185948
-0.0130596
-0.0132997
-0.0135961
-0.0140208
-0.00658424
-0.00758173
-0.00916806
-0.011202
-0.00224419
-0.00377966
-0.00646704
-0.00993276
0.000314662
-0.00161162
-0.00542078
-0.0101979
0.00132513
-0.00138864
-0.00624749
-0.0121394
273.434
151.232
130.463
135.887
332.3
539.625
575.318
559.707
576.63
579.136
589.429
602.496
606.652
565.276
545.963
461.439
166.452
156.6
422.192
125.079
116.327
107.409
106.547
306.195
459.037
555.993
602.039
549.673
557.047
606.708
634.721
646.287
640.983
405.474
112.469
4.19822
3.98834
63.5444
110.207
107.835
97.4242
85.5269
81.4509
240.318
625.977
628.406
541.843
538.948
616.422
670.692
539.585
290.411
43.3286
2.19894
2.5092
2.59052
2.55647
110.142
105.701
96.8344
87.7605
84.3932
357.528
689.443
514.074
285.799
175.366
104.749
61.5495
27.1282
1.9608
1.75319
2.11321
2.37621
2.3399
2.42177
305.421
105.385
98.334
94.0798
182.409
515.265
338.327
45.4837
3.33068
2.9605
2.42011
2.08126
1.77722
1.67038
1.61777
2.11071
2.43226
2.2908
2.26568
369.297
302.55
98.8137
97.9539
439.342
538.06
8.25947
2.7806
2.83894
2.90362
3.13812
2.98458
2.38116
1.55951
1.61534
1.74921
1.88393
2.0383
2.0262
370.176
433.166
438.694
250.084
457.898
404.153
2.90514
2.99174
2.65213
2.42234
2.76645
2.83608
1.86359
1.50411
1.55081
1.60481
1.71087
1.86068
1.85895
32.7021
171.13
481.412
488.734
413.725
309.969
14.8161
4.08171
2.92629
2.28355
1.91756
1.79835
1.32117
1.41465
1.45739
1.48442
1.55594
1.67711
1.71742
30.9471
19.1681
50.272
126.057
439.136
431.261
256.48
5.73474
2.85993
2.34089
2.76331
1.59634
1.24649
1.30742
1.35103
1.38
1.42084
1.53798
1.52903
8.01444
0.319987
0.490372
0.383521
133.264
464.202
452.883
121.778
2.16995
2.60763
2.82298
1.48038
1.16707
1.20587
1.24446
1.27867
1.32044
1.35288
1.35741
-0.0976608
0.363473
0.606861
0.734207
0.476288
275.027
478.915
109.634
1.19253
2.92712
1.8762
1.00526
1.02867
1.14274
1.33404
1.18144
1.2369
1.26152
1.2084
-0.0614354
0.740599
8.60086
12.2334
68.0804
79.4729
293.302
59.6178
0.499362
1.27177
0.66684
0.770969
0.840299
1.2403
1.51748
1.29519
1.19077
1.85643
1.01401
0.213972
20.3206
78.7745
79.4986
42.0046
-1.11217
37.1645
7.84097
-0.038973
0.264342
0.46124
0.564185
0.656688
1.17575
1.34633
1.24082
1.48003
2.15912
0.806576
24.401
19.2426
1.04657
0.371717
-0.0799678
-0.514326
-0.697311
-0.441477
0.0162066
0.203182
0.333888
0.402337
0.482657
1.03415
1.18166
0.628051
1.50786
2.06891
0.667969
0.337493
-0.0484344
-0.0254008
-0.0351047
-0.0641647
-0.130322
-0.120733
0.00976399
0.151249
0.209813
0.260706
0.286884
0.466938
1.06857
0.9418
0.397854
1.03925
2.02546
0.628339
0.286014
0.825128
0.501019
0.886386
0.931304
0.398232
0.244853
0.169127
0.195176
0.207263
0.213269
0.21082
0.44371
0.974029
0.858032
0.255908
0.808585
1.94858
1.62044
0.58467
0.864308
1.00062
1.06704
1.12486
1.18386
1.24372
0.977153
0.246983
0.167385
0.173481
0.169
0.19174
0.928737
0.966847
0.203312
1.17987
1.89598
2.1163
-0.293545
-0.221806
0.0302583
0.274373
0.537286
0.754485
0.910218
0.958965
0.424427
0.13676
0.157084
0.155924
0.129539
0.480761
0.941798
0.152565
1.49547
1.93379
2.11119
-0.294055
-0.211351
-0.154114
-0.109341
-0.0697265
-0.0319612
0.00512055
0.0474615
0.145285
0.140871
0.16744
0.162215
0.147209
0.12483
0.186935
0.136354
0.485024
2.04895
2.14534
-0.294886
-0.197674
-0.130715
-0.0783882
-0.0330803
0.0092638
0.0507977
0.0932701
0.133117
0.164087
0.179579
0.176735
0.16468
0.153863
0.152914
0.166578
0.169716
1.21638
2.13764
-0.287126
-0.183043
-0.112035
-0.0577758
-0.0119104
0.0301223
0.0701938
0.108267
0.140881
0.169124
0.181374
0.180527
0.179086
0.169914
0.176318
0.191185
0.210122
0.419932
0.692039
-0.270618
-0.167774
-0.0976221
-0.0452791
-0.00178478
0.0373702
0.0738057
0.107091
0.134847
0.160324
0.175366
0.177603
0.1784
0.17391
0.191495
0.207425
0.22681
0.681959
1.18103
-0.247507
-0.15253
-0.0877519
-0.03926
0.00112931
0.0370404
0.0697144
0.0988412
0.123489
0.141429
0.160632
0.170728
0.16543
0.171374
0.193206
0.20833
0.226733
1.68082
1.77282
-0.217285
-0.137686
-0.0813389
-0.0380522
-0.0014175
0.0312359
0.0607385
0.0870095
0.109422
0.127097
0.139818
0.148472
0.156029
0.166178
0.185274
0.201219
0.334284
1.74606
1.81231
-0.184841
-0.1239
-0.0773708
-0.0394203
-0.00663329
0.0227946
0.0494484
0.0733584
0.0942203
0.111651
0.125524
0.136387
0.146242
0.158851
0.175426
0.195652
0.542002
1.75987
0.934462
-0.158735
-0.11281
-0.0744933
-0.041461
-0.0124377
0.0137445
0.0375942
0.0592158
0.0785065
0.0952971
0.109552
0.121684
0.13319
0.147415
0.165391
0.187371
0.259975
1.76715
0.691331
-0.139408
-0.102915
-0.0710064
-0.0426824
-0.0174761
0.00535059
0.0262428
0.0453421
0.0626424
0.0781072
0.091727
0.103867
0.115903
0.130551
0.150478
0.17529
0.20324
0.607314
0.67274
-0.121628
-0.0922866
-0.0660652
-0.04237
-0.0210305
-0.00164735
0.0160974
0.0323253
0.0470594
0.0603159
0.0719625
0.0823533
0.0931455
0.107664
0.152801
0.174176
0.190242
0.214579
0.779038
-0.104422
-0.0810797
-0.0598812
-0.0404896
-0.0228847
-0.00692102
0.00755158
0.0205598
0.0321259
0.0420264
0.0497563
0.0556661
0.0620514
0.0980761
0.260492
0.230797
0.163332
0.196212
1.8286
-0.088029
-0.0697351
-0.0528543
-0.0372841
-0.0231312
-0.0104435
0.000730853
0.0102643
0.0179567
0.0229527
0.0239333
0.0210431
0.0219133
0.182672
0.211367
0.190541
0.120829
0.892605
1.83479
-0.0729042
-0.0587043
-0.0454272
-0.0331422
-0.0220476
-0.0123355
-0.00426951
0.00183246
0.00501021
0.00365727
-0.00530501
-0.0221442
0.116278
0.125736
0.144661
0.112883
0.0706083
1.73932
1.83252
-0.0592179
-0.0483229
-0.0380428
-0.0285332
-0.0200183
-0.0127737
-0.00721819
-0.00399423
-0.00462683
-0.0122109
-0.0319745
-0.0262203
0.0769671
0.057984
0.054763
0.0136423
0.0610559
1.95549
1.19605
-0.047177
-0.0389602
-0.0311769
-0.0239687
-0.017511
-0.0120839
-0.00815686
-0.00649943
-0.00896204
-0.0192978
-0.0444134
-0.0692721
0.0386518
0.0164466
-0.0365414
-0.00539545
1.2809
1.98471
1.02439
-0.0369018
-0.0309264
-0.0252393
-0.0199132
-0.0150435
-0.0108575
-0.00777586
-0.006514
-0.00849212
-0.0168476
-0.0385938
-0.0739067
-0.084615
-0.101087
-0.0632686
0.272939
2.01235
2.00225
0.584819
-0.0285094
-0.0244409
-0.0205065
-0.016719
-0.0131107
-0.00984545
-0.00725715
-0.00592276
-0.00698405
-0.00980184
-0.0238813
-0.0479597
-0.0741825
-0.0469356
0.163956
1.38696
1.75979
0.502454
-0.0247542
-0.0220079
-0.0195621
-0.0171029
-0.014622
-0.012125
-0.0097252
-0.00764924
-0.00622808
-0.00569338
-0.00676447
-0.0131329
-0.0257234
-0.0389149
0.195013
0.382531
0.302753
-0.0411126
-0.0382843
-0.0314449
-0.0173254
-0.016265
-0.0150942
-0.013804
-0.0123912
-0.0109311
-0.00957153
-0.00848538
-0.00765724
-0.00757662
-0.00963604
-0.0144211
-0.0201912
-0.0244447
-0.026147
-0.0268914
-0.0263973
-0.0230296
-0.0209842
-0.0143535
-0.0145136
-0.0145232
-0.0143605
-0.0140052
-0.0134906
-0.012895
-0.0123038
-0.0116285
-0.0112503
-0.0115857
-0.0129027
-0.0149311
-0.0169928
-0.0187143
-0.0202715
-0.0206276
-0.0191183
-0.0181364
-0.012947
-0.0142063
-0.0152918
-0.0161557
-0.0167518
-0.0170676
-0.0171178
-0.0169202
-0.0164875
-0.0160026
-0.0156717
-0.0156244
-0.01605
-0.016886
-0.0178478
-0.0184482
-0.0183061
-0.0172694
-0.0162768
-0.0129313
-0.01516
-0.0171889
-0.0189457
-0.0203574
-0.0213693
-0.0219442
-0.0220556
-0.0217166
-0.0210406
-0.0201752
-0.0193182
-0.0186171
-0.0182442
-0.0181118
-0.0178793
-0.0174411
-0.0167353
-0.0155229
-0.0143087
-0.0174045
-0.0202924
-0.0228739
-0.0250471
-0.0267145
-0.0277852
-0.0281821
-0.0278737
-0.026913
-0.0254408
-0.0236991
-0.0219842
-0.0204848
-0.0192588
-0.0182142
-0.0172818
-0.0165475
-0.0152076
-0.0172921
-0.0212322
-0.0249866
-0.0284316
-0.0314315
-0.0338382
-0.0354925
-0.0362403
-0.0359688
-0.0346416
-0.0323589
-0.0294026
-0.0262313
-0.023288
-0.0207878
-0.0187678
-0.0171947
-0.0161721
-0.0145404
)
;

boundaryField
{
    leftWall
    {
        type            fixedFluxPressure;
        gradient        uniform 0;
        value           nonuniform List<scalar> 
50
(
1382.3
1383.91
1387.37
1389.56
1390.02
1389.33
1388.53
1389.07
1390.23
1392.4
1368.08
1301.04
1314.52
1410.15
1280.04
1062.75
983.402
1046.83
1117.01
766.57
107.192
224.088
808.6
959.408
1014.29
1076.06
723.25
40.2508
3.30304
0.987901
0.654356
0.492377
0.317256
0.133687
-0.0255835
-0.140212
-0.20327
-0.233597
-0.239532
-0.23001
-0.211629
-0.188792
-0.164202
-0.139396
-0.115192
-0.0920381
-0.0700095
-0.0490791
-0.0289125
-0.00987295
)
;
    }
    rightWall
    {
        type            fixedFluxPressure;
        gradient        uniform 0;
        value           nonuniform List<scalar> 
50
(
518.861
512.283
502.479
486.231
466.495
453.718
451.894
459.112
422.192
63.5444
2.55647
2.42177
2.26568
2.0262
1.85895
1.71742
1.52903
1.35741
1.2084
1.01401
0.806576
0.667969
0.628339
1.62044
2.1163
2.11119
2.14534
2.13764
0.692039
1.18103
1.77282
1.81231
0.934462
0.691331
0.67274
0.779038
1.8286
1.83479
1.83252
1.19605
1.02439
0.584819
-0.0247542
-0.0314449
-0.0209842
-0.0181364
-0.0162768
-0.0155229
-0.0152076
-0.0145404
)
;
    }
    lowerWall
    {
        type            fixedFluxPressure;
        gradient        uniform 0;
        value           nonuniform List<scalar> 
62
(
1382.3
1375.42
1365.75
1351.4
1331.69
1306.4
1275.56
1238.71
1196.35
1150.43
1103.73
1058.61
1019.56
991.341
971.383
957.663
952.277
948.94
940.749
930.142
921.207
915.173
913.835
913.835
913.218
910.735
906.118
900.281
894.762
889.148
880.247
863.703
882.167
797.222
594.547
313.233
309.901
310.294
312.223
293.694
153.202
142.022
192.286
313.233
315.778
315.476
311.643
324.33
354.562
382.084
393.901
415.008
440.927
477.981
467.544
444.455
404.678
313.242
324.18
450.895
541.56
518.861
)
;
    }
    atmosphere
    {
        type            totalPressure;
        rho             rho;
        psi             none;
        gamma           1;
        p0              uniform 0;
        value           nonuniform List<scalar> 
46
(
0
0
0
0
0
0
0
0
0
0
0
0
0
0
0
0
0
0
0
0
0
0
0
-0.000163723
-0.00264027
-0.0076614
-0.0140307
-0.0197322
-0.024125
-0.0283658
-0.0323183
-0.035828
-0.0387158
-0.0407736
-0.0417828
-0.041572
-0.0400135
-0.037153
-0.0332639
-0.0289615
-0.0249606
-0.0216183
-0.0189778
-0.0170211
-0.0159473
-0.0136684
)
;
    }
    defaultFaces
    {
        type            empty;
    }
}


// ************************************************************************* //
