/*--------------------------------*- C++ -*----------------------------------*\
| =========                 |                                                 |
| \\      /  F ield         | OpenFOAM: The Open Source CFD Toolbox           |
|  \\    /   O peration     | Version:  2206                                  |
|   \\  /    A nd           | Website:  www.openfoam.com                      |
|    \\/     M anipulation  |                                                 |
\*---------------------------------------------------------------------------*/
FoamFile
{
    version     2.0;
    format      ascii;
    arch        "LSB;label=32;scalar=64";
    class       surfaceScalarField;
    location    "0.975";
    object      phi;
}
// * * * * * * * * * * * * * * * * * * * * * * * * * * * * * * * * * * * * * //

dimensions      [0 3 -1 0 0 0 0];

oriented        oriented;

internalField   nonuniform List<scalar> 
4432
(
1.87668e-06
-1.87668e-06
-8.94968e-07
2.77165e-06
-6.67154e-06
5.77658e-06
-1.08912e-05
4.21964e-06
-1.16187e-05
7.27464e-07
-1.08615e-05
-7.57181e-07
-1.02664e-05
-5.95133e-07
-9.83444e-06
-4.31911e-07
-9.25247e-06
-5.81963e-07
-8.09156e-06
-1.16091e-06
-6.0407e-06
-2.05086e-06
-4.05322e-06
-1.98749e-06
-4.52402e-06
4.70795e-07
-9.51482e-06
4.99079e-06
-1.68782e-05
7.36341e-06
-1.98143e-05
2.93609e-06
-1.58025e-05
-4.01183e-06
-9.44843e-06
-6.35406e-06
-4.35515e-06
-5.09328e-06
-5.9525e-07
-3.7599e-06
2.06757e-06
-2.66281e-06
2.20817e-06
-1.40616e-07
2.20818e-06
-4.05695e-06
2.18028e-06
-9.61536e-06
8.33005e-06
-1.40053e-05
1.01665e-05
-1.46413e-05
4.85558e-06
-1.31028e-05
-8.11036e-07
-1.20777e-05
-1.78228e-06
-1.19629e-05
-7.09879e-07
-1.19104e-05
-4.8443e-07
-1.13792e-05
-1.11318e-06
-1.06651e-05
-1.87499e-06
-1.07449e-05
-1.97107e-06
-1.24723e-05
-2.60086e-07
-1.56731e-05
3.67155e-06
-1.8115e-05
7.43272e-06
-1.72991e-05
6.54751e-06
-1.23916e-05
-1.97142e-06
-6.55276e-06
-9.85066e-06
-2.38724e-06
-1.05196e-05
9.63066e-07
-8.44358e-06
4.21962e-06
-7.01646e-06
6.47502e-06
-4.9182e-06
4.92893e-06
1.40545e-06
7.13712e-06
-7.39413e-06
9.57441e-06
-1.34971e-05
1.4433e-05
-1.62992e-05
1.29686e-05
-1.60151e-05
4.57151e-06
-1.42447e-05
-2.58144e-06
-1.26835e-05
-3.34353e-06
-1.18133e-05
-1.58004e-06
-1.10069e-05
-1.29083e-06
-9.73426e-06
-2.38586e-06
-8.38833e-06
-3.22094e-06
-7.91872e-06
-2.44069e-06
-8.82835e-06
6.4954e-07
-1.03015e-05
5.14465e-06
-1.00167e-05
7.14797e-06
-6.53773e-06
3.0685e-06
-2.9213e-06
-5.58787e-06
-1.11588e-06
-1.16561e-05
2.66804e-07
-1.19022e-05
2.36591e-06
-1.05427e-05
5.03494e-06
-9.68549e-06
7.61159e-06
-7.49483e-06
6.49828e-06
2.51874e-06
1.36354e-05
-8.09253e-06
1.76669e-05
-1.40336e-05
2.0374e-05
-1.68506e-05
1.57856e-05
-1.70323e-05
4.75323e-06
-1.54239e-05
-4.18984e-06
-1.37767e-05
-4.99074e-06
-1.275e-05
-2.60671e-06
-1.16416e-05
-2.39926e-06
-9.89276e-06
-4.13471e-06
-7.60493e-06
-5.50878e-06
-5.41838e-06
-4.62725e-06
-3.82206e-06
-9.46773e-07
-2.4974e-06
3.81999e-06
-7.94376e-07
5.44493e-06
6.11743e-07
1.66238e-06
6.10055e-07
-5.58617e-06
-1.32646e-07
-1.09134e-05
3.54061e-07
-1.2389e-05
2.13099e-06
-1.23196e-05
4.06487e-06
-1.16194e-05
5.90587e-06
-9.33581e-06
5.90375e-06
2.52084e-06
1.95392e-05
-7.3032e-06
2.49701e-05
-1.29523e-05
2.60231e-05
-1.61864e-05
1.90197e-05
-1.69266e-05
5.49345e-06
-1.57789e-05
-5.33755e-06
-1.47554e-05
-6.01431e-06
-1.41377e-05
-3.2244e-06
-1.31407e-05
-3.39624e-06
-1.11706e-05
-6.10476e-06
-8.28416e-06
-8.39524e-06
-5.17491e-06
-7.7365e-06
-2.54339e-06
-3.5783e-06
-4.77257e-07
1.75386e-06
9.17838e-07
4.04986e-06
9.86097e-07
1.59412e-06
-1.07498e-07
-4.4926e-06
-5.44353e-07
-1.04765e-05
8.54792e-07
-1.37881e-05
2.93509e-06
-1.43999e-05
3.9217e-06
-1.2606e-05
3.51996e-06
-8.93406e-06
4.10445e-06
1.93633e-06
2.36436e-05
-5.72701e-06
3.06971e-05
-1.08214e-05
3.11174e-05
-1.42596e-05
2.2458e-05
-1.55399e-05
6.77367e-06
-1.53082e-05
-5.56922e-06
-1.53846e-05
-5.93787e-06
-1.5567e-05
-3.04209e-06
-1.48015e-05
-4.16163e-06
-1.24751e-05
-8.43122e-06
-8.57218e-06
-1.22981e-05
-4.33767e-06
-1.1971e-05
-1.403e-06
-6.51295e-06
9.92829e-08
2.51553e-07
5.55313e-07
3.59384e-06
1.68989e-07
1.98047e-06
-3.32384e-07
-3.99121e-06
5.8361e-07
-1.13925e-05
2.78586e-06
-1.59904e-05
5.19162e-06
-1.68057e-05
5.8382e-06
-1.32526e-05
3.30128e-06
-6.39715e-06
3.10111e-06
2.13651e-06
2.67448e-05
-3.65423e-06
3.43514e-05
-8.03196e-06
3.54952e-05
-1.14958e-05
2.59219e-05
-1.27258e-05
8.00366e-06
-1.34054e-05
-4.8896e-06
-1.56083e-05
-3.73495e-06
-1.70558e-05
-1.59457e-06
-1.64845e-05
-4.73294e-06
-1.2994e-05
-1.19218e-05
-6.94802e-06
-1.83441e-05
-1.21099e-06
-1.77081e-05
1.87302e-06
-9.59696e-06
3.01328e-06
-8.88711e-07
2.69725e-06
3.90985e-06
1.68049e-06
2.99721e-06
1.22809e-06
-3.53881e-06
2.51764e-06
-1.26821e-05
5.27765e-06
-1.87504e-05
8.67417e-06
-2.02022e-05
1.03162e-05
-1.48946e-05
7.83879e-06
-3.91975e-06
4.49647e-06
5.47882e-06
3.12412e-05
-1.32668e-06
3.5678e-05
-4.74317e-06
3.89117e-05
-7.57194e-06
2.87507e-05
-7.25623e-06
7.68794e-06
-9.78984e-06
-2.35598e-06
-1.54138e-05
1.88898e-06
-1.8405e-05
1.39665e-06
-1.72186e-05
-5.91928e-06
-1.19053e-05
-1.72351e-05
-5.07277e-06
-2.51767e-05
-1.01936e-07
-2.26789e-05
2.38733e-06
-1.20862e-05
3.16863e-06
-1.67e-06
2.7116e-06
4.36689e-06
1.52496e-06
4.18386e-06
6.96694e-07
-2.71053e-06
2.19062e-06
-1.4176e-05
6.14599e-06
-2.27058e-05
1.15807e-05
-2.56369e-05
1.52489e-05
-1.85628e-05
1.40023e-05
-2.67315e-06
6.50747e-06
1.29737e-05
3.77487e-05
3.79991e-06
-3.79991e-06
1.63733e-05
-1.25734e-05
2.99439e-05
-1.35706e-05
3.54592e-05
-5.51526e-06
3.06544e-05
4.80474e-06
1.66697e-05
1.39847e-05
-1.82228e-06
1.8492e-05
-1.74936e-05
1.56713e-05
-2.38014e-05
6.3078e-06
-2.01835e-05
-3.61791e-06
-5.40737e-06
-1.47761e-05
8.6497e-06
-1.40571e-05
-5.39683e-06
1.40465e-05
-4.27839e-05
3.7387e-05
-6.58978e-05
2.31139e-05
-5.94953e-05
-6.40247e-06
-3.46594e-05
-2.48359e-05
-9.087e-06
-2.55724e-05
-9.087e-06
1.02558e-06
-4.82547e-06
1.83176e-05
-2.98654e-05
3.19973e-05
-2.72504e-05
3.8493e-05
-1.20109e-05
4.26649e-05
6.32802e-07
3.90812e-05
1.75685e-05
2.3683e-05
3.38901e-05
4.88396e-06
3.44704e-05
-6.80647e-06
1.79982e-05
-1.12545e-05
8.30133e-07
-8.3342e-06
-1.76964e-05
-9.21344e-06
-1.31778e-05
-3.36765e-05
3.85097e-05
-6.31591e-05
6.68696e-05
-6.73989e-05
2.73536e-05
-4.84979e-05
-2.53034e-05
-2.0487e-05
-5.28468e-05
-2.83155e-06
-4.32278e-05
-1.19185e-05
8.53383e-06
-1.33593e-05
3.05084e-05
-5.184e-05
4.27401e-05
-3.9482e-05
4.4908e-05
-1.41789e-05
4.82143e-05
-2.67346e-06
5.13572e-05
1.44256e-05
4.58158e-05
3.94315e-05
3.30169e-05
4.72694e-05
1.93632e-05
3.16519e-05
5.88636e-06
1.43069e-05
-8.79964e-06
-3.01042e-06
-2.29634e-05
9.85916e-07
-4.1153e-05
5.66992e-05
-5.32725e-05
7.89892e-05
-4.45913e-05
1.86724e-05
-2.36885e-05
-4.62063e-05
-4.04654e-07
-7.61306e-05
6.62686e-06
-5.02593e-05
-5.29168e-06
2.02137e-05
-3.3573e-05
4.06599e-05
-7.22862e-05
4.64444e-05
-4.52665e-05
4.16321e-05
-9.36661e-06
4.22728e-05
-3.31418e-06
4.85809e-05
8.11751e-06
5.04336e-05
3.75788e-05
4.55326e-05
5.21703e-05
3.78357e-05
3.93489e-05
2.40315e-05
2.81111e-05
1.78456e-06
1.92365e-05
-1.87901e-05
2.15606e-05
-2.75747e-05
6.54839e-05
-2.62473e-05
7.76617e-05
-1.25479e-05
4.9731e-06
5.06572e-06
-6.38199e-05
1.25425e-05
-8.36074e-05
1.05402e-05
-4.8257e-05
5.24853e-06
2.65208e-05
-6.00937e-05
3.70567e-05
-8.28221e-05
1.96139e-05
-2.78238e-05
-3.67697e-07
1.0615e-05
-1.19568e-05
8.27488e-06
2.1985e-06
-6.03784e-06
2.85305e-05
1.12468e-05
4.11662e-05
3.95346e-05
4.39398e-05
3.65753e-05
3.57138e-05
3.63371e-05
1.59976e-05
3.89527e-05
-2.27266e-06
3.98308e-05
-6.17926e-06
6.93905e-05
6.36175e-06
6.51207e-05
1.8055e-05
-6.72009e-06
2.35083e-05
-6.92733e-05
1.72621e-05
-7.73611e-05
8.51515e-06
-3.95101e-05
1.37637e-05
2.04982e-05
-8.05919e-05
2.179e-05
-8.41139e-05
-1.04267e-05
4.3929e-06
-5.01532e-05
5.03416e-05
-6.46995e-05
2.28212e-05
-4.65503e-05
-2.4187e-05
-8.83375e-06
-2.64697e-05
2.59496e-05
4.75122e-06
3.9716e-05
2.28089e-05
3.85538e-05
3.74993e-05
2.70863e-05
5.04203e-05
1.71854e-05
4.97318e-05
2.07702e-05
6.58057e-05
3.29708e-05
5.292e-05
3.71589e-05
-1.09082e-05
3.15809e-05
-6.36953e-05
1.41353e-05
-5.99154e-05
3.26213e-06
-2.8637e-05
1.70258e-05
8.31406e-06
-8.8906e-05
-1.0005e-05
-6.57949e-05
-5.20228e-05
4.64107e-05
-7.12686e-05
6.95874e-05
-4.65511e-05
-1.89638e-06
-2.15843e-05
-4.91538e-05
-7.57771e-06
-4.04764e-05
1.09051e-05
-1.37315e-05
2.59898e-05
7.72414e-06
3.31014e-05
3.03877e-05
3.18126e-05
5.17092e-05
2.8513e-05
5.30313e-05
3.82943e-05
5.60244e-05
4.80619e-05
4.31524e-05
4.47642e-05
-7.61051e-06
2.81406e-05
-4.70717e-05
4.822e-06
-3.65968e-05
-1.63972e-06
-2.21753e-05
1.53861e-05
8.78318e-06
-9.76892e-05
-2.91925e-05
-2.78192e-05
-7.3688e-05
9.09063e-05
-7.51912e-05
7.10905e-05
-5.0902e-05
-2.61855e-05
-3.83165e-05
-6.17393e-05
-2.31586e-05
-5.56343e-05
-4.18247e-06
-3.27077e-05
1.29474e-05
-9.4057e-06
2.48088e-05
1.85263e-05
3.15076e-05
4.50103e-05
3.36875e-05
5.08514e-05
4.10581e-05
4.86539e-05
4.87077e-05
3.55029e-05
4.16689e-05
-5.71792e-07
1.65556e-05
-2.19583e-05
-7.2831e-06
-1.27581e-05
-6.79919e-06
-2.26592e-05
8.58691e-06
7.17434e-06
2.85037e-05
1.64499e-06
4.4441e-05
-5.21826e-06
3.56139e-05
-1.05814e-05
1.30511e-05
-2.24669e-05
9.52953e-06
-3.53651e-05
1.47872e-05
-4.05389e-05
6.5704e-06
-3.88156e-05
-7.64255e-06
-3.40001e-05
-2.20505e-05
-2.8766e-05
-3.04108e-05
-2.47432e-05
-2.67017e-05
-2.24647e-05
-1.43647e-05
-2.23288e-05
-1.80594e-06
-2.44123e-05
6.45037e-06
-2.7118e-05
6.88961e-06
-2.78813e-05
-1.94724e-06
-2.18489e-05
-2.02085e-05
-1.13766e-05
-3.3178e-05
4.45151e-06
-4.1465e-05
2.1769e-05
-3.58803e-05
3.24208e-05
-1.33249e-05
2.81385e-05
1.72559e-05
3.82951e-05
2.75921e-05
2.2268e-05
6.2357e-06
2.03408e-05
4.63682e-05
7.02781e-06
4.89269e-05
-6.90628e-06
2.69852e-05
-1.97657e-05
2.23889e-05
-3.21855e-05
2.7207e-05
-4.98066e-05
2.41915e-05
-6.9456e-05
1.20068e-05
-8.23857e-05
-9.12076e-06
-8.59364e-05
-2.68601e-05
-8.9064e-05
-2.35741e-05
-9.33603e-05
-1.00683e-05
-9.61784e-05
1.01217e-06
-9.67681e-05
7.04002e-06
-9.71505e-05
7.27206e-06
-9.53235e-05
-3.77428e-06
-9.63301e-05
-1.92019e-05
-9.26218e-05
-3.68863e-05
-7.54991e-05
-5.85877e-05
-4.64436e-05
-6.49358e-05
-2.08015e-05
-3.89671e-05
-1.02139e-06
-2.52413e-06
2.72492e-05
1.00244e-05
2.72257e-05
-2.099e-05
3.19328e-05
4.16612e-05
1.84148e-05
6.24449e-05
-1.01689e-05
5.55688e-05
-4.48843e-05
5.71043e-05
-8.85262e-05
7.08489e-05
-0.00013583
7.14955e-05
-0.000166579
4.27552e-05
-0.00016979
-5.90892e-06
-0.000169502
-2.71487e-05
-0.000171167
-2.19093e-05
-0.000171898
-9.33711e-06
-0.000169278
-1.60795e-06
-0.000168068
5.82967e-06
-0.000178387
1.75915e-05
-0.000193715
1.15536e-05
-0.000199471
-1.34458e-05
-0.000187225
-4.91321e-05
-0.000165538
-8.02747e-05
-0.000139672
-9.08016e-05
-0.000116198
-6.24418e-05
-0.000104151
-1.45706e-05
1.99113e-05
-9.68132e-05
7.78377e-06
-2.87738e-05
1.09348e-05
3.85102e-05
-8.58528e-06
8.19649e-05
-5.24708e-05
9.94543e-05
-0.000113666
0.0001183
-0.000175524
0.000132706
-0.000223641
0.000119613
-0.00024884
6.79541e-05
-0.000245974
-8.77451e-06
-0.000236685
-3.64376e-05
-0.000228596
-2.99987e-05
-0.000231623
-6.30936e-06
-0.000241726
8.49484e-06
-0.000250148
1.42518e-05
-0.000251525
1.89677e-05
-0.000235187
-4.78415e-06
-0.000196338
-5.2294e-05
-0.000155733
-8.97372e-05
-0.000142513
-9.34948e-05
-0.000157404
-7.5911e-05
-0.000167448
-5.23976e-05
-0.000169428
-1.25907e-05
1.5953e-05
-0.00016547
-2.49752e-05
-3.79856e-06
-4.72057e-05
6.07406e-05
-8.29298e-05
0.000117689
-0.000137447
0.000153971
-0.000193903
0.000174756
-0.000237229
0.000176032
-0.000275427
0.000157811
-0.000301598
9.41256e-05
-0.000307558
-2.81481e-06
-0.00029186
-5.21361e-05
-0.000275207
-4.66512e-05
-0.000260669
-2.08469e-05
-0.000253839
1.66473e-06
-0.000242795
3.20706e-06
-0.000203778
-2.00485e-05
-0.000157033
-5.15297e-05
-0.000119349
-8.99778e-05
-9.49833e-05
-0.000114103
-7.36466e-05
-0.000114831
-5.07001e-05
-9.88575e-05
-5.13488e-05
-5.17489e-05
-8.60676e-05
2.2128e-05
6.92261e-05
-0.000139341
-4.98155e-05
4.60169e-05
-0.000114023
0.000124948
-0.000172078
0.000175745
-0.000219558
0.000201451
-0.000249436
0.000204634
-0.000271167
0.000197762
-0.000299745
0.000186389
-0.000327949
0.00012233
-0.000350118
1.93544e-05
-0.000348219
-5.40349e-05
-0.000315536
-7.93338e-05
-0.000263888
-7.24958e-05
-0.000212392
-4.9831e-05
-0.000167239
-4.19459e-05
-0.000130712
-5.65758e-05
-0.000104724
-7.75169e-05
-9.02674e-05
-0.000104435
-7.66886e-05
-0.000127682
-6.09717e-05
-0.000130548
-4.48644e-05
-0.000114965
-1.08222e-05
-8.57911e-05
3.33554e-05
-2.20496e-05
7.55363e-05
2.70452e-05
-4.40184e-05
9.00353e-05
-0.000155556
0.000236485
-0.000223957
0.000244147
-0.000254537
0.00023203
-0.000270634
0.000220731
-0.000290868
0.000217996
-0.000307643
0.000203164
-0.000312525
0.000127212
-0.000310581
1.74101e-05
-0.00031021
-5.44055e-05
-0.000284954
-0.00010459
-0.000248202
-0.000109248
-0.000205539
-9.24937e-05
-0.000166022
-8.14629e-05
-0.000133251
-8.93465e-05
-0.000108072
-0.000102697
-8.88446e-05
-0.000123662
-5.86383e-05
-0.000157888
-2.69285e-05
-0.000162258
-2.52756e-05
-0.000116618
-5.44406e-05
-5.66262e-05
-4.39762e-05
-3.2514e-05
2.37048e-05
7.85537e-06
-1.394e-05
0.000103975
-0.000134209
0.000356754
-0.000204402
0.000314339
-0.000238577
0.000266206
-0.000261181
0.000243335
-0.000268907
0.000225722
-0.000262592
0.000196849
-0.000258472
0.000123093
-0.000269467
2.84046e-05
-0.000280319
-4.35533e-05
-0.000289034
-9.5875e-05
-0.000273204
-0.000125079
-0.00023612
-0.000129577
-0.000203251
-0.000114332
-0.000173953
-0.000118645
-0.000155022
-0.000121627
-0.000128871
-0.000149813
-6.58458e-05
-0.000220914
8.54971e-06
-0.000236654
2.04386e-05
-0.000128507
-5.80099e-05
2.18223e-05
-0.000124323
3.37993e-05
-2.47596e-05
-7.58588e-05
-1.10502e-05
0.000115025
-8.18556e-05
0.00042756
-0.000126106
0.00035859
-0.000148416
0.000288516
-0.000159361
0.000254279
-0.000165819
0.00023218
-0.000167941
0.00019897
-0.000180559
0.000135711
-0.000209905
5.7751e-05
-0.000248547
-4.91145e-06
-0.000282703
-6.17188e-05
-0.000302849
-0.000104933
-0.000309979
-0.000122448
-0.000294718
-0.000129593
-0.000272136
-0.000141226
-0.00023104
-0.000162724
-0.000162911
-0.000217941
-0.00011473
-0.000269094
-8.82367e-05
-0.000263147
-3.86977e-05
-0.000178046
-3.68387e-05
1.99634e-05
-4.93996e-05
4.63602e-05
-6.10494e-05
-1.311e-05
-1.15542e-05
0.00012658
-6.01225e-05
0.000476128
-7.37313e-05
0.000372199
-7.83542e-05
0.000293138
-8.04317e-05
0.000256358
-8.34385e-05
0.000235188
-9.14943e-05
0.000207025
-0.000113426
0.000157642
-0.000145707
9.00328e-05
-0.000178492
2.78726e-05
-0.000209821
-3.03899e-05
-0.0002348
-7.99548e-05
-0.000245032
-0.000112215
-0.000234201
-0.000140423
-0.000210809
-0.000164619
-0.000178928
-0.000194606
-0.000140085
-0.000256784
-0.00013396
-0.000275219
-0.000136609
-0.000260499
-0.000111969
-0.000202685
-5.08564e-05
-4.11495e-05
4.64946e-06
-9.1458e-06
-0.000109233
5.28329e-05
-1.08001e-05
0.00013738
-5.01235e-05
0.000515451
-6.0578e-05
0.000382653
-5.93363e-05
0.000291896
-5.29709e-05
0.000249992
-5.21667e-05
0.000234384
-5.36373e-05
0.000208496
-6.45034e-05
0.000168509
-7.97926e-05
0.000105322
-9.00951e-05
3.81748e-05
-9.99629e-05
-2.05222e-05
-0.000107409
-7.25085e-05
-0.000110768
-0.000108857
-0.000115284
-0.000135906
-0.000122621
-0.000157282
-0.000125841
-0.000191386
-0.000133395
-0.00024923
-0.000142612
-0.000266003
-0.000159363
-0.000243748
-0.000170513
-0.000191535
-0.000133339
-7.83241e-05
-8.12417e-05
-6.1243e-05
-0.000121692
-6.8783e-05
-6.52921e-06
0.000143909
-3.9635e-05
0.000548557
-5.31064e-05
0.000396125
-5.24654e-05
0.000291256
-4.16332e-05
0.000239159
-3.86696e-05
0.00023142
-3.41879e-05
0.000204014
-3.20065e-05
0.000166327
-3.18837e-05
0.000105199
-3.12563e-05
3.75475e-05
-3.33473e-05
-1.84313e-05
-3.86907e-05
-6.71653e-05
-4.75367e-05
-0.000100012
-6.22695e-05
-0.000121174
-8.14784e-05
-0.000138073
-0.000100239
-0.000172625
-0.000123519
-0.000225951
-0.000145623
-0.000243898
-0.000175807
-0.000213563
-0.000219891
-0.000147452
-0.000240171
-5.80434e-05
-0.000223338
-7.80762e-05
-0.00012841
-0.00021662
-1.79554e-05
0.000161864
-3.18972e-05
0.000562499
-3.88463e-05
0.000403074
-3.80264e-05
0.000290436
-2.89311e-05
0.000230063
-2.70574e-05
0.000229547
-1.96942e-05
0.00019665
-1.0526e-05
0.000157159
-2.10383e-06
9.67764e-05
1.7522e-06
3.36913e-05
-1.27431e-06
-1.54052e-05
-1.21269e-05
-5.63129e-05
-2.84717e-05
-8.36671e-05
-4.73671e-05
-0.000102278
-6.81974e-05
-0.000117243
-9.42218e-05
-0.000146601
-0.000121589
-0.000198584
-0.000150236
-0.000215251
-0.000191906
-0.000171893
-0.000256943
-8.24158e-05
-0.00029925
-1.57357e-05
-0.00029814
-7.91868e-05
-0.000137265
-0.000289284
-2.6012e-05
0.000187876
-2.23193e-05
0.000558806
-1.85789e-05
0.000399333
-1.338e-05
0.000285237
-1.39555e-05
0.000230638
-1.31815e-05
0.000228773
-8.18212e-06
0.000191651
-1.47958e-07
0.000149124
5.62947e-06
9.09986e-05
3.03261e-06
3.62879e-05
-7.24303e-06
-5.12979e-06
-2.37951e-05
-3.97609e-05
-4.14689e-05
-6.59931e-05
-5.88096e-05
-8.49378e-05
-7.79864e-05
-9.8066e-05
-0.000103528
-0.00012106
-0.000135259
-0.000166853
-0.000164296
-0.000186214
-0.000220741
-0.000115448
-0.000283373
-1.9784e-05
-0.000307858
8.74958e-06
-0.000317067
-6.99771e-05
-0.000141695
-0.000312637
-2.61055e-05
0.000213982
-3.41625e-06
0.000536117
4.98342e-06
0.000390933
8.2727e-06
0.000281947
2.39291e-07
0.000238672
-1.10671e-06
0.000230119
-5.53373e-06
0.000196078
-7.97816e-06
0.000151569
-1.59613e-05
9.89818e-05
-3.00026e-05
5.03289e-05
-4.40789e-05
8.94633e-06
-5.68437e-05
-2.69963e-05
-6.81219e-05
-5.47149e-05
-7.98939e-05
-7.31658e-05
-9.50457e-05
-8.29142e-05
-0.000118577
-9.75285e-05
-0.000151099
-0.000134331
-0.000184071
-0.000153242
-0.00021551
-8.40082e-05
-0.000255533
2.02391e-05
-0.000274171
2.73876e-05
-0.000288838
-5.53108e-05
-0.000132162
-0.00029837
-1.38377e-05
0.00022782
2.17096e-05
0.00050057
2.65832e-05
0.00038606
2.51211e-05
0.00028341
9.65785e-06
0.000254135
-3.43251e-06
0.000243209
-2.23642e-05
0.00021501
-4.48112e-05
0.000174016
-6.8218e-05
0.000122388
-8.3926e-05
6.60369e-05
-8.93283e-05
1.43487e-05
-8.95071e-05
-2.68175e-05
-9.02601e-05
-5.39619e-05
-9.46335e-05
-6.87925e-05
-0.000104656
-7.28914e-05
-0.000125692
-7.64929e-05
-0.000157128
-0.000102895
-0.000180267
-0.000130102
-0.000181676
-8.25994e-05
-0.000185889
2.44527e-05
-0.00020039
4.1888e-05
-0.000214862
-4.08381e-05
-0.000118626
-0.000228399
-2.10392e-06
0.000229924
4.37821e-05
0.000454684
3.70805e-05
0.000392762
3.03543e-05
0.000290136
3.88757e-06
0.000280601
-2.50231e-05
0.00027212
-6.50399e-05
0.000255026
-0.000106838
0.000215814
-0.000137924
0.000153475
-0.000147757
7.58699e-05
-0.000139019
5.61057e-06
-0.000123401
-4.24348e-05
-0.000108776
-6.8587e-05
-0.000101389
-7.61792e-05
-0.000102485
-7.17955e-05
-0.000116184
-6.27933e-05
-0.000143754
-7.5325e-05
-0.000158785
-0.000115071
-0.000137216
-0.000104169
-0.000101145
-1.16183e-05
-0.000108725
4.94684e-05
-0.000137296
-1.22666e-05
-9.36012e-05
-0.000162321
2.07322e-06
0.00022785
2.28206e-05
0.000433936
2.74328e-05
0.000388149
2.16412e-05
0.000295928
-1.10365e-05
0.000313279
-5.74947e-05
0.000318578
-0.000113374
0.000310905
-0.000163217
0.000265657
-0.000193807
0.000184065
-0.000198978
8.10406e-05
-0.00018273
-1.06371e-05
-0.000153886
-7.12787e-05
-0.000122878
-9.95948e-05
-0.00010054
-9.85178e-05
-8.91974e-05
-8.31374e-05
-9.00279e-05
-6.19627e-05
-0.000110538
-5.4815e-05
-0.000134009
-9.16006e-05
-0.000121942
-0.000116235
-6.35624e-05
-6.9998e-05
-3.33715e-05
1.92776e-05
-6.2942e-05
1.7304e-05
-5.2435e-05
-0.000104108
7.65199e-06
0.000220198
2.58639e-05
0.000415724
1.93429e-05
0.00039467
1.07694e-05
0.000304502
-2.22267e-05
0.000346275
-7.38482e-05
0.0003702
-0.000129295
0.000366353
-0.000173364
0.000309726
-0.000198114
0.000208815
-0.000204851
8.77779e-05
-0.000193351
-2.21364e-05
-0.000162054
-0.000102576
-0.000124098
-0.000137551
-9.05977e-05
-0.000132018
-6.91326e-05
-0.000104603
-5.83193e-05
-7.2776e-05
-6.61834e-05
-4.69511e-05
-0.000100613
-5.71709e-05
-0.000115713
-0.000101135
-8.34393e-05
-0.000102272
-2.00122e-05
-4.41494e-05
-1.61868e-05
1.34787e-05
-1.37519e-05
-5.487e-05
1.73874e-05
0.000202811
5.81196e-05
0.000374992
5.15982e-05
0.000401192
2.1585e-05
0.000334515
-5.24044e-06
0.000373101
-4.7074e-05
0.000412033
-8.94688e-05
0.000408748
-0.000124427
0.000344685
-0.000146453
0.00023084
-0.00016187
0.000103195
-0.000154543
-2.94639e-05
-0.000130293
-0.000126825
-9.78384e-05
-0.000170005
-6.51717e-05
-0.000164685
-4.12508e-05
-0.000128523
-2.62582e-05
-8.77687e-05
-2.09837e-05
-5.22255e-05
-4.98504e-05
-2.8304e-05
-9.27911e-05
-5.81944e-05
-9.90437e-05
-9.60189e-05
-5.94339e-05
-8.37592e-05
-2.04704e-05
-2.54848e-05
3.7445e-06
-3.79667e-05
4.3202e-05
0.000159609
9.8344e-05
0.00031985
0.000108412
0.000391124
7.26795e-05
0.000370247
5.04153e-05
0.000395366
2.26318e-05
0.000439817
-8.73802e-06
0.000440118
-3.64251e-05
0.000372372
-6.39388e-05
0.000258354
-8.08166e-05
0.000120073
-7.37033e-05
-3.65773e-05
-5.63281e-05
-0.0001442
-3.79799e-05
-0.000188353
-1.93137e-05
-0.000183351
-2.59287e-06
-0.000145244
8.07264e-06
-9.84341e-05
1.39195e-05
-5.80724e-05
5.66208e-06
-2.00463e-05
-4.08047e-05
-1.17275e-05
-8.01984e-05
-5.66252e-05
-8.30424e-05
-8.09151e-05
-5.02136e-05
-5.83137e-05
-1.00849e-05
-3.63841e-05
4.26626e-05
0.000116946
0.000114127
0.000248387
0.000159878
0.000345373
0.000152953
0.000377172
0.000139039
0.00040928
0.00012786
0.000450997
0.000113327
0.00045465
9.20419e-05
0.000393657
6.69572e-05
0.000283438
4.742e-05
0.00013961
4.21978e-05
-3.1355e-05
4.93953e-05
-0.000151398
5.15311e-05
-0.000190489
4.92655e-05
-0.000181085
4.82278e-05
-0.000144207
4.84407e-05
-9.86469e-05
4.84075e-05
-5.80391e-05
5.31753e-05
-2.4814e-05
3.26613e-05
8.78659e-06
-2.22833e-05
-1.68052e-06
-5.92274e-05
-4.39711e-05
-5.50792e-05
-6.24618e-05
-4.35357e-05
-2.16285e-05
2.70598e-05
8.98862e-05
0.000105854
0.000169593
0.000186066
0.000265161
0.000229781
0.000333457
0.000246668
0.000392393
0.000255384
0.00044228
0.000256108
0.000453927
0.000247257
0.000402508
0.000233074
0.000297622
0.000220097
0.000152588
0.000198805
-1.00638e-05
0.000176304
-0.000128897
0.000150733
-0.000164918
0.000123636
-0.000153989
0.000102302
-0.000122873
8.92116e-05
-8.55562e-05
8.27542e-05
-5.15818e-05
8.30651e-05
-2.51248e-05
9.0733e-05
1.11861e-06
6.803e-05
2.10224e-05
1.73381e-05
6.72065e-06
-1.94024e-05
-2.57213e-05
-5.33416e-05
-9.59641e-06
1.71376e-05
7.27483e-05
7.79664e-05
0.000108765
0.000173416
0.000169712
0.000260784
0.000246089
0.000325355
0.000327821
0.000369786
0.00039785
0.000395525
0.000428187
0.000403099
0.000394933
0.000398593
0.000302129
0.000383593
0.000167588
0.000348252
2.52767e-05
0.000294722
-7.53668e-05
0.000237333
-0.000107529
0.00018654
-0.000103196
0.000148277
-8.46111e-05
0.000123673
-6.09522e-05
0.000110672
-3.85806e-05
0.000105903
-2.03559e-05
0.000112959
-5.93779e-06
0.000124494
9.48776e-06
0.000116727
1.44872e-05
8.45245e-05
6.48162e-06
-2.7396e-05
5.8579e-05
1.6048e-05
5.67001e-05
5.65329e-05
6.828e-05
0.000135399
9.08457e-05
0.000235795
0.000145694
0.00033437
0.000229247
0.000416114
0.000316105
0.000473792
0.00037051
0.000503793
0.000364933
0.000508597
0.000297324
0.000487644
0.000188541
0.000435941
7.69792e-05
0.000359716
8.58685e-07
0.000283686
-3.14987e-05
0.000221087
-4.05971e-05
0.000175302
-3.88256e-05
0.000145518
-3.1169e-05
0.000128699
-2.17613e-05
0.000121192
-1.28498e-05
0.000121943
-6.68863e-06
0.00013363
-2.19959e-06
0.000147753
3.63919e-07
0.000157692
-3.45675e-06
-2.33509e-05
0.000153647
1.43489e-05
4.23514e-05
3.98647e-05
4.27643e-05
9.21685e-05
3.85419e-05
0.00017314
6.47224e-05
0.000269903
0.000132484
0.000363424
0.000222585
0.000439774
0.000294159
0.000488161
0.000316547
0.000502764
0.00028272
0.000479929
0.000211376
0.000422588
0.000134321
0.000347575
7.58719e-05
0.000277335
3.87404e-05
0.000221353
1.53849e-05
0.000180418
2.10932e-06
0.000152994
-3.74412e-06
0.000136271
-5.03894e-06
0.000127727
-4.30654e-06
0.000124974
-3.93567e-06
0.000128443
-5.6687e-06
0.000138062
-9.25474e-06
0.000150422
-1.58165e-05
-2.88795e-05
0.000155951
8.18774e-06
3.41638e-05
1.83412e-05
3.26108e-05
4.2903e-05
1.39802e-05
8.85328e-05
1.90928e-05
0.000155662
6.53553e-05
0.000233549
0.000144697
0.000307241
0.000220468
0.000361484
0.000262304
0.000384356
0.000259847
0.00037255
0.000223183
0.000333622
0.000173248
0.000283972
0.000125522
0.000237549
8.51633e-05
0.000199437
5.34975e-05
0.000170387
3.11594e-05
0.000149493
1.71494e-05
0.000135494
8.95968e-06
0.000127302
3.88529e-06
0.000123514
-1.47418e-07
0.000122814
-4.96888e-06
0.000125236
-1.16762e-05
0.000129967
-2.0548e-05
-3.20151e-05
0.000133103
2.50607e-06
3.16579e-05
-3.62483e-07
3.54794e-05
1.47911e-07
1.34699e-05
1.139e-05
7.85085e-06
4.49359e-05
3.18095e-05
9.53507e-05
9.42821e-05
0.000150805
0.000165014
0.000199589
0.00021352
0.000230051
0.000229385
0.000238
0.000215234
0.000228318
0.000182931
0.000210015
0.000143825
0.000189639
0.000105539
0.000170354
7.27828e-05
0.000153427
4.8086e-05
0.000139577
3.09987e-05
0.000129208
1.93292e-05
0.000122283
1.08101e-05
0.000118338
3.79792e-06
0.000116426
-3.05644e-06
0.000115628
-1.08783e-05
0.000115282
-2.02025e-05
-3.08155e-05
0.000114083
-1.27449e-06
3.29325e-05
-9.22706e-06
4.34323e-05
-2.1218e-05
2.5461e-05
-3.08339e-05
1.74668e-05
-2.93129e-05
3.02885e-05
-7.17892e-06
7.21481e-05
3.04462e-05
0.000127389
7.10547e-05
0.000172912
0.000106835
0.000193605
0.000131803
0.000190266
0.000145342
0.000169392
0.000149984
0.000139183
0.00014848
0.000107044
0.000142702
7.85609e-05
0.00013477
5.60174e-05
0.000126708
3.90604e-05
0.000119789
2.62492e-05
0.00011451
1.60885e-05
0.000110899
7.4093e-06
0.000108554
-7.11866e-07
0.000106754
-9.07825e-06
0.000104695
-1.81427e-05
-2.78911e-05
0.00010177
-2.71939e-06
3.5652e-05
-1.09906e-05
5.17038e-05
-2.45505e-05
3.90208e-05
-4.17015e-05
3.4618e-05
-5.44482e-05
4.30352e-05
-5.07119e-05
6.84119e-05
-2.91473e-05
0.000105824
4.11137e-06
0.000139653
3.93596e-05
0.000158357
7.08193e-05
0.000158807
9.50187e-05
0.000145193
0.000110703
0.0001235
0.000118223
9.95244e-05
0.000119505
7.72783e-05
0.000117097
5.84258e-05
0.000113147
4.30096e-05
0.000109002
3.0395e-05
0.000105311
1.97794e-05
0.000102299
1.04216e-05
9.98751e-05
1.7119e-06
9.76813e-05
-6.88456e-06
9.51701e-05
-1.56317e-05
-2.46497e-05
9.19286e-05
-3.2161e-06
3.88682e-05
-9.65447e-06
5.81424e-05
-1.95029e-05
4.88693e-05
-3.2349e-05
4.74642e-05
-4.44361e-05
5.51224e-05
-4.7358e-05
7.13338e-05
-3.56654e-05
9.41318e-05
-1.18956e-05
0.000115883
1.77148e-05
0.000128747
4.66057e-05
0.000129916
7.03739e-05
0.000121424
8.69855e-05
0.000106888
9.65804e-05
8.99294e-05
0.000100731
7.31276e-05
0.000101373
5.77839e-05
0.000100097
4.42863e-05
9.79663e-05
3.25254e-05
9.55901e-05
2.21558e-05
9.32488e-05
1.2763e-05
9.09966e-05
3.96415e-06
8.87034e-05
-4.59144e-06
8.61086e-05
-1.3037e-05
-2.14692e-05
8.29281e-05
-3.11394e-06
4.19822e-05
-7.54794e-06
6.25766e-05
-1.35873e-05
5.49088e-05
-2.04973e-05
5.43745e-05
-2.66102e-05
6.12352e-05
-2.79071e-05
7.26307e-05
-2.03043e-05
8.65291e-05
-3.83708e-06
9.94161e-05
1.74309e-05
0.000107479
3.90771e-05
0.00010827
5.76454e-05
0.000102856
7.14834e-05
9.30498e-05
8.05058e-05
8.0907e-05
8.55599e-05
6.80734e-05
8.77577e-05
5.55863e-05
8.80943e-05
4.39499e-05
8.73222e-05
3.32976e-05
8.59377e-05
2.35403e-05
8.42164e-05
1.44844e-05
8.22687e-05
5.91179e-06
8.0098e-05
-2.42075e-06
7.75575e-05
-1.04964e-05
-1.84462e-05
7.45347e-05
-2.65354e-06
4.46359e-05
-5.42058e-06
6.53439e-05
-8.84377e-06
5.83322e-05
-1.20113e-05
5.75421e-05
-1.38154e-05
6.30394e-05
-1.24671e-05
7.12824e-05
-6.15664e-06
8.02187e-05
5.24895e-06
8.80106e-05
2.01233e-05
9.26045e-05
3.54979e-05
9.28948e-05
4.92622e-05
8.90916e-05
6.02332e-05
8.20787e-05
6.8123e-05
7.30172e-05
7.32268e-05
6.29696e-05
7.60963e-05
5.27168e-05
7.73181e-05
4.27281e-05
7.73972e-05
3.32185e-05
7.67091e-05
2.42285e-05
7.54939e-05
1.56996e-05
7.38728e-05
7.53291e-06
7.191e-05
-4.57761e-07
6.95391e-05
-8.12543e-06
-1.56462e-05
6.67394e-05
-2.02017e-06
4.66564e-05
-3.43556e-06
6.67594e-05
-5.13386e-06
6.00306e-05
-6.30006e-06
5.87083e-05
-6.06696e-06
6.28064e-05
-3.51394e-06
6.87294e-05
2.05233e-06
7.46525e-05
1.06858e-05
7.93771e-05
2.13561e-05
8.19341e-05
3.25331e-05
8.17178e-05
4.29105e-05
7.87141e-05
5.16385e-05
7.33506e-05
5.83631e-05
6.62925e-05
6.31115e-05
5.82212e-05
6.61331e-05
4.96952e-05
6.77613e-05
4.10998e-05
6.8322e-05
3.26578e-05
6.80844e-05
2.4466e-05
6.72443e-05
1.65397e-05
6.59294e-05
8.84784e-06
6.41416e-05
1.33025e-06
6.20061e-05
-5.98964e-06
-1.31159e-05
5.9476e-05
-1.35811e-06
4.80147e-05
-1.68009e-06
6.70814e-05
-2.15384e-06
6.05042e-05
-2.19904e-06
5.87534e-05
-1.07631e-06
6.16837e-05
1.74952e-06
6.59036e-05
6.6277e-06
6.97744e-05
1.33978e-05
7.2607e-05
2.14385e-05
7.38935e-05
2.98748e-05
7.32815e-05
3.78851e-05
7.07037e-05
4.48681e-05
6.63675e-05
5.0503e-05
6.06574e-05
5.47152e-05
5.40088e-05
5.75977e-05
4.68125e-05
5.93295e-05
3.93679e-05
6.01122e-05
3.18749e-05
6.01309e-05
2.44471e-05
5.95348e-05
1.71359e-05
5.84309e-05
9.95189e-06
5.68768e-05
2.88459e-06
5.49605e-05
-4.07309e-06
-1.08579e-05
5.27027e-05
-7.567e-07
4.87714e-05
-2.91417e-07
6.66159e-05
9.82534e-08
6.01144e-05
7.7978e-07
5.80719e-05
2.32011e-06
6.01435e-05
5.11941e-06
6.31044e-05
9.30787e-06
6.55859e-05
1.47283e-05
6.71866e-05
2.09729e-05
6.76489e-05
2.74985e-05
6.67559e-05
3.37713e-05
6.44308e-05
3.93696e-05
6.07691e-05
4.4032e-05
5.59948e-05
4.76532e-05
5.03875e-05
5.02468e-05
4.42188e-05
5.18997e-05
3.77147e-05
5.27319e-05
3.10425e-05
5.28669e-05
2.4312e-05
5.2416e-05
1.75869e-05
5.14709e-05
1.08971e-05
5.0102e-05
4.25373e-06
4.83891e-05
-2.35997e-06
-8.83936e-06
4.63708e-05
-2.13914e-07
4.89851e-05
8.63707e-07
6.5538e-05
1.79053e-06
5.91875e-05
2.90623e-06
5.69562e-05
4.63772e-06
5.84121e-05
7.27393e-06
6.04683e-05
1.08647e-05
6.19952e-05
1.52689e-05
6.27824e-05
2.02099e-05
6.27081e-05
2.53357e-05
6.163e-05
3.02921e-05
5.94743e-05
3.4782e-05
5.62792e-05
3.86005e-05
5.21763e-05
4.16412e-05
4.73468e-05
4.38806e-05
4.19792e-05
4.53534e-05
3.62418e-05
4.61267e-05
3.02691e-05