/*--------------------------------*- C++ -*----------------------------------*\
| =========                 |                                                 |
| \\      /  F ield         | OpenFOAM: The Open Source CFD Toolbox           |
|  \\    /   O peration     | Version:  2206                                  |
|   \\  /    A nd           | Website:  www.openfoam.com                      |
|    \\/     M anipulation  |                                                 |
\*---------------------------------------------------------------------------*/
FoamFile
{
    version     2.0;
    format      ascii;
    arch        "LSB;label=32;scalar=64";
    class       volVectorField;
    location    "0.975";
    object      U;
}
// * * * * * * * * * * * * * * * * * * * * * * * * * * * * * * * * * * * * * //

dimensions      [0 1 -1 0 0 0 0];

internalField   nonuniform List<vector> 
2268
(
(0.017842 -0.0160057 0)
(0.0213574 0.000243912 0)
(-0.0413305 0.0181509 0)
(-0.112534 0.0170331 0)
(-0.136648 0.00506555 0)
(-0.127652 -0.00234836 0)
(-0.118596 -0.00287492 0)
(-0.113948 -0.00215025 0)
(-0.109711 -0.00189637 0)
(-0.101738 -0.00436747 0)
(-0.0831105 -0.0108377 0)
(-0.0578767 -0.016362 0)
(-0.0417684 -0.0121063 0)
(-0.0636656 0.0104692 0)
(-0.153936 0.0307597 0)
(-0.235173 0.0188645 0)
(-0.213667 -0.00946047 0)
(-0.137515 -0.0223594 0)
(-0.0766132 -0.0183962 0)
(-0.027698 -0.0134716 0)
(0.0127371 -0.0102657 0)
(0.0324605 -0.00465283 0)
(0.0207032 0.0026706 0)
(-0.0226488 -0.00342307 0)
(-0.0760747 0.0309419 0)
(-0.144934 0.0461345 0)
(-0.176378 0.027225 0)
(-0.157204 0.00135171 0)
(-0.13887 -0.00609428 0)
(-0.135134 -0.00316797 0)
(-0.13673 -0.00215827 0)
(-0.134642 -0.00443153 0)
(-0.12582 -0.00873872 0)
(-0.119196 -0.0119675 0)
(-0.128773 -0.0052286 0)
(-0.161691 0.0174778 0)
(-0.196997 0.0434559 0)
(-0.218471 0.0449821 0)
(-0.182776 0.00692416 0)
(-0.0938824 -0.0390575 0)
(-0.0462643 -0.0497591 0)
(-0.0078058 -0.0396982 0)
(0.0281988 -0.0299849 0)
(0.0662451 -0.019634 0)
(0.0767002 0.00383093 0)
(0.0395273 0.0232999 0)
(-0.0474071 0.030876 0)
(-0.128844 0.0622656 0)
(-0.18338 0.0627639 0)
(-0.189583 0.0247979 0)
(-0.171167 -0.00965741 0)
(-0.151089 -0.0132043 0)
(-0.137736 -0.00497943 0)
(-0.130733 -0.00342442 0)
(-0.11963 -0.00799151 0)
(-0.103394 -0.0116052 0)
(-0.091418 -0.00874941 0)
(-0.0929983 0.0041321 0)
(-0.109675 0.0256202 0)
(-0.127442 0.039659 0)
(-0.107452 0.0228278 0)
(-0.0454261 -0.0267059 0)
(-0.014989 -0.0630522 0)
(-0.00625741 -0.0634258 0)
(0.0122358 -0.0531662 0)
(0.0389288 -0.0468903 0)
(0.0731447 -0.035306 0)
(0.0947835 0.0108039 0)
(0.0595314 0.0547167 0)
(-0.0537043 0.0730605 0)
(-0.13847 0.0935596 0)
(-0.187954 0.0765417 0)
(-0.197166 0.0237608 0)
(-0.184071 -0.018933 0)
(-0.164098 -0.0235951 0)
(-0.150464 -0.0120401 0)
(-0.139871 -0.0102293 0)
(-0.124717 -0.0174629 0)
(-0.101713 -0.0225622 0)
(-0.0756942 -0.0168984 0)
(-0.052972 0.00264157 0)
(-0.0363537 0.0278302 0)
(-0.0222052 0.035998 0)
(0.000931411 0.0129711 0)
(0.0138214 -0.0293869 0)
(0.00235172 -0.0595803 0)
(-0.00371143 -0.0640796 0)
(0.0115353 -0.0610578 0)
(0.034765 -0.0589038 0)
(0.0546965 -0.0485621 0)
(0.0745843 0.014412 0)
(0.0674541 0.089108 0)
(-0.0482487 0.114709 0)
(-0.12557 0.124663 0)
(-0.177355 0.0927541 0)
(-0.192903 0.0265845 0)
(-0.182904 -0.0265159 0)
(-0.17228 -0.0311161 0)
(-0.165586 -0.0164893 0)
(-0.157032 -0.0157848 0)
(-0.141335 -0.0273319 0)
(-0.114096 -0.0370458 0)
(-0.079185 -0.0327905 0)
(-0.0450551 -0.0119597 0)
(-0.017075 0.0132248 0)
(0.00490146 0.0236438 0)
(0.0161939 0.00649522 0)
(0.00740822 -0.0281887 0)
(-0.00793571 -0.0571911 0)
(-0.00223577 -0.0695889 0)
(0.0218035 -0.0717229 0)
(0.0423005 -0.0664917 0)
(0.0440669 -0.051589 0)
(0.0324984 0.0130538 0)
(0.0673227 0.116933 0)
(-0.0365629 0.151514 0)
(-0.10083 0.154365 0)
(-0.154094 0.110762 0)
(-0.172778 0.0298802 0)
(-0.168541 -0.033095 0)
(-0.173984 -0.0350351 0)
(-0.179923 -0.0188775 0)
(-0.175886 -0.0209401 0)
(-0.159824 -0.0389726 0)
(-0.124889 -0.0536246 0)
(-0.0756382 -0.0488183 0)
(-0.0312315 -0.023061 0)
(-0.00514934 0.00683366 0)
(0.00650405 0.0204898 0)
(0.00661928 0.00951212 0)
(-0.00195162 -0.0230478 0)
(-0.00278884 -0.0593491 0)
(0.0163841 -0.0810889 0)
(0.0465448 -0.0848256 0)
(0.0675447 -0.0698903 0)
(0.0627141 -0.0417266 0)
(0.00924986 0.0101374 0)
(0.0675672 0.140586 0)
(-0.0208951 0.176001 0)
(-0.0686537 0.179461 0)
(-0.122785 0.130121 0)
(-0.141078 0.041311 0)
(-0.133163 -0.0255415 0)
(-0.166181 -0.028118 0)
(-0.193909 -0.0133733 0)
(-0.196545 -0.0235226 0)
(-0.176173 -0.0507945 0)
(-0.119384 -0.075075 0)
(-0.0457943 -0.0750838 0)
(0.00932455 -0.0415521 0)
(0.0341769 -0.000849824 0)
(0.0372728 0.0201349 0)
(0.0278847 0.0126158 0)
(0.015152 -0.0199714 0)
(0.0170049 -0.066073 0)
(0.040562 -0.0959967 0)
(0.0787484 -0.100195 0)
(0.113456 -0.0732341 0)
(0.118386 -0.0256155 0)
(0.0523761 0.0124144 0)
(0.0603845 0.154622 0)
(-0.00321386 0.198024 0)
(-0.0317544 0.20503 0)
(-0.084064 0.14927 0)
(-0.0866665 0.040412 0)
(-0.0654407 -0.029845 0)
(-0.150282 -0.01131 0)
(-0.206859 -0.00364316 0)
(-0.213216 -0.0277513 0)
(-0.17414 -0.0779196 0)
(-0.097152 -0.125954 0)
(-0.027485 -0.12092 0)
(0.0177346 -0.0695105 0)
(0.0381734 -0.0136356 0)
(0.0392911 0.0221186 0)
(0.0290005 0.0219782 0)
(0.0115125 -0.0154523 0)
(0.00864011 -0.0694743 0)
(0.0407673 -0.106357 0)
(0.0977861 -0.116427 0)
(0.15817 -0.0820577 0)
(0.181384 -0.00972021 0)
(0.137346 0.0520581 0)
(0.0203419 0.188639 0)
(-0.0167537 -0.029508 0)
(0.113878 -0.0413967 0)
(0.264103 -0.041462 0)
(0.388113 -0.0202468 0)
(0.413957 0.0137045 0)
(0.308863 0.0488196 0)
(0.0919596 0.0587228 0)
(-0.140434 0.0367337 0)
(-0.261653 -0.00195942 0)
(-0.27955 -0.0505888 0)
(-0.140512 -0.0869533 0)
(-0.00232985 -0.106708 0)
(0.199074 -0.0294282 0)
(-0.303469 0.0941601 0)
(-0.762128 0.0439652 0)
(-0.762453 -0.0393575 0)
(-0.510158 -0.092925 0)
(-0.216286 -0.103537 0)
(-0.048937 -0.0427258 0)
(-0.105969 -0.0250818 0)
(0.129271 -0.11292 0)
(0.299484 -0.103853 0)
(0.40102 -0.0329836 0)
(0.473051 0.0521052 0)
(0.514005 0.125439 0)
(0.401198 0.172187 0)
(0.139708 0.145225 0)
(-0.0445621 0.0620726 0)
(-0.114594 -0.00918253 0)
(-0.105063 -0.117675 0)
(-0.0919608 -0.0967858 0)
(-0.111487 0.16389 0)
(-0.65983 0.311317 0)
(-0.898862 0.175872 0)
(-0.638792 -0.0678368 0)
(-0.350323 -0.239634 0)
(-0.0624702 -0.223935 0)
(-0.0342342 -0.0755181 0)
(-0.0665664 -0.0403544 0)
(0.249881 -0.252646 0)
(0.446872 -0.236877 0)
(0.506046 -0.139549 0)
(0.524828 -0.0520005 0)
(0.583661 0.0813471 0)
(0.598122 0.225563 0)
(0.46086 0.257257 0)
(0.28489 0.15628 0)
(0.137409 0.0310315 0)
(0.0111824 -0.0729578 0)
(-0.182832 -0.0328445 0)
(-0.333955 0.318727 0)
(-0.672841 0.443251 0)
(-0.626273 0.135805 0)
(-0.37764 -0.233626 0)
(-0.0616735 -0.40509 0)
(0.0610507 -0.291587 0)
(0.052051 -0.0577243 0)
(0.0781476 -0.115113 0)
(0.358785 -0.374893 0)
(0.539876 -0.288766 0)
(0.525042 -0.0770014 0)
(0.450198 -0.00662132 0)
(0.498713 0.0476616 0)
(0.610286 0.206369 0)
(0.576617 0.297037 0)
(0.470056 0.221857 0)
(0.365135 0.133028 0)
(0.178804 0.0466135 0)
(-0.114375 0.0575455 0)
(-0.319051 0.381032 0)
(-0.409295 0.479421 0)
(-0.233672 0.0681539 0)
(-0.0127453 -0.342325 0)
(0.17901 -0.496822 0)
(0.124705 -0.30991 0)
(0.087056 -0.003575 0)
(0.22616 -0.262024 0)
(0.360139 -0.479568 0)
(0.386215 -0.227477 0)
(0.180667 0.00681894 0)
(-0.129552 0.0119625 0)
(-0.233981 0.0350218 0)
(0.295292 0.204683 0)
(0.446038 0.309906 0)
(0.495967 0.249203 0)
(0.486901 0.196688 0)
(0.333973 0.173131 0)
(0.0786798 0.167128 0)
(-0.135134 0.398661 0)
(-0.0642414 0.44936 0)
(0.172866 -0.0230035 0)
(0.312686 -0.410658 0)
(0.287157 -0.494603 0)
(0.106168 -0.272445 0)
(0.081686 0.0559779 0)
(0.388422 -0.460541 0)
(0.165457 -0.52726 0)
(0.115146 -0.0958826 0)
(-0.278788 0.174072 0)
(-0.791483 0.100508 0)
(-0.837853 -0.100394 0)
(-0.314648 -0.105876 0)
(0.196465 0.148556 0)
(0.402652 0.191271 0)
(0.483346 0.228977 0)
(0.41164 0.269342 0)
(0.252169 0.271151 0)
(0.14123 0.40077 0)
(0.253229 0.36253 0)
(0.437921 -0.0335775 0)
(0.493158 -0.399024 0)
(0.26972 -0.410483 0)
(0.025371 -0.202842 0)
(0.0646301 0.0962253 0)
(0.39691 -0.53592 0)
(-0.104101 -0.442261 0)
(-0.251921 0.145713 0)
(-0.75183 0.402885 0)
(-0.782085 0.112271 0)
(-0.367561 -0.213292 0)
(-0.153845 -0.160617 0)
(0.0143387 -0.0683824 0)
(0.211509 0.0729393 0)
(0.368417 0.208933 0)
(0.40422 0.319298 0)
(0.334328 0.31905 0)
(0.338559 0.365258 0)
(0.471844 0.283865 0)
(0.583762 -0.0664436 0)
(0.518222 -0.328607 0)
(0.149823 -0.272995 0)
(-0.0711665 -0.133579 0)
(0.0489321 0.108173 0)
(0.42953 -0.565768 0)
(-0.155769 -0.32775 0)
(-0.659215 0.461862 0)
(-0.940138 0.451698 0)
(-0.692788 -0.116328 0)
(-0.51066 -0.300611 0)
(-0.351158 -0.276379 0)
(-0.162573 -0.117309 0)
(0.0591509 0.0104429 0)
(0.230532 0.156211 0)
(0.350342 0.302911 0)
(0.374739 0.322226 0)
(0.401332 0.31309 0)
(0.509781 0.22191 0)
(0.586216 -0.013934 0)
(0.412424 -0.190063 0)
(-0.0440716 -0.135185 0)
(-0.15541 -0.109772 0)
(0.038046 0.0852514 0)
(0.0324431 0.172492 0)
(0.0332172 0.211811 0)
(-0.0215652 0.164369 0)
(-0.026817 0.0570247 0)
(-0.0762226 0.0264686 0)
(-0.166573 0.0579498 0)
(-0.214495 0.0328967 0)
(-0.216304 -0.0475872 0)
(-0.192444 -0.14099 0)
(-0.172212 -0.176879 0)
(-0.155066 -0.148398 0)
(-0.128475 -0.0842148 0)
(-0.11719 -0.0202432 0)
(-0.119984 0.0147739 0)
(-0.13119 0.0136308 0)
(-0.14387 -0.0178197 0)
(-0.13735 -0.0756813 0)
(-0.094782 -0.132249 0)
(-0.0285004 -0.168638 0)
(0.0648638 -0.143707 0)
(0.152594 -0.0318538 0)
(0.197273 0.0987008 0)
(0.128512 0.214593 0)
(0.0842132 0.160043 0)
(0.131565 0.300468 0)
(0.0765921 0.244111 0)
(0.0131418 0.0923578 0)
(-0.0792398 0.081627 0)
(-0.139034 0.102186 0)
(-0.210488 0.0361699 0)
(-0.309822 -0.0244109 0)
(-0.416753 -0.0678041 0)
(-0.480466 -0.120466 0)
(-0.480789 -0.123978 0)
(-0.484567 -0.0548421 0)
(-0.507389 0.0166818 0)
(-0.513996 0.068917 0)
(-0.510411 0.0841759 0)
(-0.503762 0.0121879 0)
(-0.512605 -0.111594 0)
(-0.517413 -0.200511 0)
(-0.470686 -0.271659 0)
(-0.350391 -0.276073 0)
(-0.187504 -0.150629 0)
(-0.0497286 0.0568149 0)
(0.0455201 0.176614 0)
(0.05768 -0.0834545 0)
(0.191015 0.201069 0)
(0.173196 0.287755 0)
(0.0476029 0.223728 0)
(-0.153778 0.187209 0)
(-0.330225 0.233816 0)
(-0.608027 0.279154 0)
(-0.848382 0.196338 0)
(-0.934677 -0.0136612 0)
(-0.916513 -0.138964 0)
(-0.915872 -0.106415 0)
(-0.920988 -0.0403358 0)
(-0.911852 -0.00505678 0)
(-0.891273 -0.00400929 0)
(-0.913551 -0.031938 0)
(-0.997825 -0.0801923 0)
(-1.08116 -0.140851 0)
(-1.05776 -0.24459 0)
(-0.938635 -0.381973 0)
(-0.82303 -0.404529 0)
(-0.719537 -0.289062 0)
(-0.577728 -0.105723 0)
(-0.487682 0.0807168 0)
(-0.0656958 -0.197507 0)
(0.113625 0.182273 0)
(0.0363213 0.355034 0)
(-0.112414 0.371503 0)
(-0.442981 0.444082 0)
(-0.776624 0.545554 0)
(-1.109 0.496764 0)
(-1.31583 0.241596 0)
(-1.34563 -0.048191 0)
(-1.30109 -0.175613 0)
(-1.23861 -0.151917 0)
(-1.21902 -0.0794005 0)
(-1.26287 -0.0225681 0)
(-1.33064 0.0586388 0)
(-1.36174 0.199714 0)
(-1.34564 0.163783 0)
(-1.18798 -0.053534 0)
(-0.900679 -0.335526 0)
(-0.748769 -0.475545 0)
(-0.785963 -0.470632 0)
(-0.892813 -0.260547 0)
(-0.928105 0.0222234 0)
(-0.905663 0.183371 0)
(-0.165751 -0.106842 0)
(-0.171181 0.255189 0)
(-0.309093 0.503596 0)
(-0.552297 0.659597 0)
(-0.902556 0.791423 0)
(-1.18509 0.824296 0)
(-1.40533 0.662205 0)
(-1.56958 0.293403 0)
(-1.65208 -0.11486 0)
(-1.61093 -0.282283 0)
(-1.5158 -0.193317 0)
(-1.42553 0.0222622 0)
(-1.37936 0.138665 0)
(-1.36301 0.122803 0)
(-1.22429 0.0269939 0)
(-0.972271 -0.187527 0)
(-0.722392 -0.423185 0)
(-0.549617 -0.565374 0)
(-0.463447 -0.551709 0)
(-0.329846 -0.44483 0)
(-0.166765 -0.268545 0)
(-0.31813 -0.0549211 0)
(-0.755532 0.0249242 0)
(-0.180981 0.088307 0)
(-0.45618 0.481527 0)
(-0.763991 0.81614 0)
(-1.04627 1.00176 0)
(-1.28954 1.05389 0)
(-1.41707 1.00491 0)
(-1.52202 0.875619 0)
(-1.68118 0.548776 0)
(-1.86825 0.0609343 0)
(-1.94552 -0.287182 0)
(-1.74844 -0.32638 0)
(-1.52599 -0.264367 0)
(-1.28797 -0.133834 0)
(-0.986494 -0.102541 0)
(-0.803536 -0.220385 0)
(-0.624784 -0.346191 0)
(-0.513922 -0.520101 0)
(-0.454815 -0.640331 0)
(-0.365154 -0.656021 0)
(-0.281082 -0.608995 0)
(-0.196312 -0.433846 0)
(0.0558988 0.142871 0)
(0.223722 0.570048 0)
(-0.133625 0.360826 0)
(-0.478331 0.837857 0)
(-1.06417 1.10971 0)
(-1.27326 1.19365 0)
(-1.44191 1.17307 0)
(-1.50718 1.13564 0)
(-1.59103 1.15148 0)
(-1.6854 0.78981 0)
(-1.70994 0.105211 0)
(-1.69668 -0.335464 0)
(-1.56832 -0.531931 0)
(-1.41195 -0.506156 0)
(-1.19989 -0.392412 0)
(-0.98819 -0.344813 0)
(-0.796528 -0.397691 0)
(-0.637241 -0.493633 0)
(-0.534671 -0.617297 0)
(-0.411102 -0.732537 0)
(-0.224198 -0.768614 0)
(-0.0811087 -0.683312 0)
(-0.18713 -0.513229 0)
(-0.400905 -0.276805 0)
(-0.0300385 0.333371 0)
(-0.172177 0.54374 0)
(-0.166777 1.55357 0)
(-1.00849 1.44069 0)
(-1.17875 1.29032 0)
(-1.37604 1.22943 0)
(-1.43363 1.21119 0)
(-1.42692 1.1472 0)
(-1.36733 0.763767 0)
(-1.4035 0.169315 0)
(-1.49606 -0.270668 0)
(-1.56479 -0.608935 0)
(-1.50799 -0.675377 0)
(-1.35911 -0.618204 0)
(-1.16589 -0.553187 0)
(-1.00215 -0.576993 0)
(-0.874167 -0.638524 0)
(-0.784666 -0.750674 0)
(-0.554836 -1.02674 0)
(-0.259267 -1.09887 0)
(0.289713 -0.606045 0)
(0.0414649 -0.00611635 0)
(-0.697479 0.00039081 0)
(-0.475124 -0.0814646 0)
(-0.246291 0.609631 0)
(0.00561459 2.17617 0)
(-0.707526 1.82737 0)
(-0.711286 1.50096 0)
(-0.87249 1.35557 0)
(-0.834717 1.26194 0)
(-0.905305 1.06471 0)
(-0.900446 0.69892 0)
(-1.02978 0.245341 0)
(-1.22495 -0.10991 0)
(-1.43303 -0.41305 0)
(-1.60038 -0.660881 0)
(-1.67568 -0.728678 0)
(-1.63396 -0.699897 0)
(-1.55589 -0.72768 0)
(-1.3748 -0.737623 0)
(-1.00902 -0.940717 0)
(-0.705132 -1.36129 0)
(-0.64406 -1.37016 0)
(-0.391682 -0.796582 0)
(0.0661072 0.203489 0)
(-0.46212 0.266996 0)
(-0.0582217 -0.238948 0)
(-0.32717 0.656228 0)
(0.0989336 2.50741 0)
(-0.547363 2.05986 0)
(-0.347233 1.63613 0)
(-0.461839 1.41705 0)
(-0.407178 1.27912 0)
(-0.47915 1.11051 0)
(-0.520252 0.798215 0)
(-0.693024 0.410068 0)
(-0.866758 0.0668522 0)
(-1.05514 -0.241038 0)
(-1.20838 -0.499563 0)
(-1.29931 -0.646943 0)
(-1.32194 -0.719785 0)
(-1.25545 -0.824202 0)
(-1.0354 -0.995172 0)
(-0.772134 -1.3408 0)
(-0.723036 -1.47421 0)
(-0.762228 -1.41846 0)
(-0.733183 -1.05496 0)
(-0.431885 -0.00577277 0)
(-0.049158 0.23077 0)
(0.111546 -0.402528 0)
(-0.412642 0.731119 0)
(0.195238 2.71278 0)
(-0.533836 2.08065 0)
(-0.236705 1.60269 0)
(-0.335509 1.37403 0)
(-0.263613 1.26211 0)
(-0.296464 1.12677 0)
(-0.296082 0.901357 0)
(-0.398849 0.55191 0)
(-0.463471 0.207025 0)
(-0.517577 -0.104244 0)
(-0.559361 -0.380233 0)
(-0.576305 -0.592963 0)
(-0.602383 -0.761225 0)
(-0.652762 -0.898711 0)
(-0.664427 -1.07637 0)
(-0.679508 -1.3788 0)
(-0.722167 -1.46625 0)
(-0.818652 -1.37665 0)
(-0.910613 -1.11734 0)
(-0.870663 -0.408424 0)
(-0.467133 -0.281765 0)
(-0.44717 -0.651716 0)
(-0.485121 0.774851 0)
(0.309459 2.87923 0)
(-0.533492 2.10087 0)
(-0.17034 1.56253 0)
(-0.300893 1.3138 0)
(-0.199072 1.24999 0)
(-0.204403 1.11218 0)
(-0.17616 0.920679 0)
(-0.179214 0.595212 0)
(-0.171547 0.233396 0)
(-0.173298 -0.0944108 0)
(-0.187599 -0.360825 0)
(-0.217516 -0.549168 0)
(-0.281087 -0.676992 0)
(-0.377531 -0.782734 0)
(-0.485809 -0.964817 0)
(-0.604464 -1.28829 0)
(-0.720595 -1.38408 0)
(-0.84598 -1.24231 0)
(-1.03667 -0.927315 0)
(-1.30046 -0.414251 0)
(-1.22834 -0.421505 0)
(-1.1997 -0.685386 0)
(-0.528564 0.761061 0)
(0.281616 3.01301 0)
(-0.504435 2.16229 0)
(-0.0465371 1.56511 0)
(-0.258993 1.26198 0)
(-0.120522 1.24182 0)
(-0.141077 1.08397 0)
(-0.0868163 0.882581 0)
(-0.0339216 0.566197 0)
(0.00635901 0.216016 0)
(0.0116137 -0.0864713 0)
(-0.0231873 -0.317932 0)
(-0.0997687 -0.475835 0)
(-0.19825 -0.583003 0)
(-0.301575 -0.670512 0)
(-0.415799 -0.845098 0)
(-0.565389 -1.13818 0)
(-0.759687 -1.2273 0)
(-0.885923 -1.06 0)
(-1.13025 -0.644494 0)
(-1.60824 -0.191587 0)
(-1.60932 -0.438663 0)
(-1.59197 -0.719283 0)
(-0.600998 0.936675 0)
(0.270583 3.06453 0)
(-0.419679 2.18582 0)
(0.130768 1.56551 0)
(-0.204775 1.23644 0)
(-0.00979825 1.23861 0)
(-0.0912537 1.05017 0)
(-0.0198639 0.8318 0)
(0.0229294 0.516229 0)
(0.0360028 0.197661 0)
(-0.00228967 -0.0627578 0)
(-0.0784778 -0.250065 0)
(-0.175284 -0.391795 0)
(-0.26739 -0.494328 0)
(-0.357513 -0.572035 0)
(-0.465366 -0.714044 0)
(-0.626902 -0.984856 0)
(-0.811161 -1.09899 0)
(-1.03609 -0.740499 0)
(-1.275 -0.268608 0)
(-1.69496 -0.00733978 0)
(-1.69341 -0.431286 0)
(-1.70567 -0.776119 0)
(-0.673824 1.1089 0)
(0.327756 2.9822 0)
(-0.30929 2.143 0)
(0.287692 1.53893 0)
(-0.122914 1.25931 0)
(0.0848361 1.24036 0)
(-0.0722348 1.04516 0)
(-0.0168321 0.81118 0)
(-0.0527813 0.511473 0)
(-0.119846 0.237781 0)
(-0.208609 0.0162235 0)
(-0.280502 -0.167861 0)
(-0.336131 -0.320644 0)
(-0.394299 -0.425036 0)
(-0.458121 -0.4879 0)
(-0.547526 -0.590068 0)
(-0.714361 -0.811378 0)
(-0.912604 -0.914818 0)
(-1.05264 -0.530605 0)
(-1.26385 0.0634985 0)
(-1.45489 0.0852435 0)
(-1.54694 -0.344555 0)
(-1.55692 -0.770272 0)
(-0.721689 1.2111 0)
(0.512317 2.81711 0)
(-0.185938 2.09602 0)
(0.394062 1.52333 0)
(-0.0475453 1.32382 0)
(0.113503 1.26903 0)
(-0.11446 1.09507 0)
(-0.157111 0.865909 0)
(-0.309526 0.605794 0)
(-0.425339 0.345707 0)
(-0.480785 0.0966155 0)
(-0.485689 -0.118379 0)
(-0.478931 -0.277851 0)
(-0.489623 -0.376047 0)
(-0.521442 -0.417523 0)
(-0.590109 -0.46972 0)
(-0.754966 -0.637558 0)
(-0.938728 -0.740096 0)
(-0.949815 -0.396362 0)
(-0.963111 0.16121 0)
(-1.09787 0.198947 0)
(-1.13334 -0.268523 0)
(-1.15583 -0.673892 0)
(-0.739201 1.25747 0)
(0.679802 2.57062 0)
(-0.101603 2.08781 0)
(0.425196 1.54152 0)
(-0.031311 1.43169 0)
(0.0502252 1.36774 0)
(-0.269966 1.24695 0)
(-0.459634 1.0422 0)
(-0.687912 0.748825 0)
(-0.792178 0.40191 0)
(-0.783512 0.0793071 0)
(-0.706658 -0.163586 0)
(-0.614641 -0.309384 0)
(-0.552847 -0.377856 0)
(-0.530736 -0.381714 0)
(-0.557983 -0.369415 0)
(-0.699501 -0.487686 0)
(-0.856207 -0.672467 0)
(-0.802328 -0.505145 0)
(-0.581474 0.105422 0)
(-0.602917 0.288969 0)
(-0.681946 -0.158416 0)
(-0.76507 -0.587016 0)
(-0.712737 1.25076 0)
(0.519992 2.3454 0)
(-0.0691586 2.09455 0)
(0.344328 1.57198 0)
(-0.0724505 1.58778 0)
(-0.0964404 1.56986 0)
(-0.489149 1.5108 0)
(-0.766593 1.29892 0)
(-1.00017 0.926356 0)
(-1.07656 0.446159 0)
(-1.03276 -0.0125703 0)
(-0.908406 -0.305116 0)
(-0.731975 -0.444968 0)
(-0.585567 -0.457689 0)
(-0.493745 -0.406025 0)
(-0.453652 -0.320749 0)
(-0.524276 -0.342869 0)
(-0.694073 -0.585303 0)
(-0.724857 -0.640575 0)
(-0.51753 -0.257429 0)
(-0.178647 0.27452 0)
(-0.264861 0.0449278 0)
(-0.412333 -0.392604 0)
(-0.652464 1.19465 0)
(0.59586 2.31611 0)
(-0.104431 2.07848 0)
(0.240045 1.59825 0)
(-0.0936916 1.77857 0)
(-0.191963 1.84767 0)
(-0.585002 1.81887 0)
(-0.858417 1.52957 0)
(-1.03461 1.00021 0)
(-1.08036 0.3773 0)
(-1.06166 -0.131279 0)
(-0.960226 -0.489933 0)
(-0.770217 -0.656309 0)
(-0.561693 -0.622791 0)
(-0.417293 -0.500146 0)
(-0.323353 -0.352089 0)
(-0.301501 -0.252008 0)
(-0.460179 -0.419385 0)
(-0.619171 -0.619398 0)
(-0.59106 -0.517448 0)
(-0.270157 -0.0840271 0)
(-0.013452 0.160982 0)
(-0.1501 -0.131946 0)
(-0.490199 1.07163 0)
(0.547122 2.19845 0)
(0.202032 2.18096 0)
(0.274828 1.70277 0)
(0.0107008 1.95106 0)
(-0.084905 2.11974 0)
(-0.419684 2.08893 0)
(-0.623502 1.73655 0)
(-0.762146 1.13874 0)
(-0.824638 0.455729 0)
(-0.820364 -0.190163 0)
(-0.728359 -0.670457 0)
(-0.633334 -0.86057 0)
(-0.434702 -0.821941 0)
(-0.278724 -0.635057 0)
(-0.176188 -0.434169 0)
(-0.112968 -0.252514 0)
(-0.146582 -0.187988 0)
(-0.411689 -0.455653 0)
(-0.565486 -0.577382 0)
(-0.485892 -0.401583 0)
(-0.150983 -0.041663 0)
(-0.0871349 -0.0201438 0)
(-0.148207 0.992563 0)
(0.500892 1.93434 0)
(0.565334 2.1928 0)
(0.557553 1.90051 0)
(0.308502 2.07027 0)
(0.230608 2.31873 0)
(-0.00897445 2.29828 0)
(-0.132993 1.92399 0)
(-0.289561 1.28514 0)
(-0.441677 0.556132 0)
(-0.381662 -0.239982 0)
(-0.287314 -0.767406 0)
(-0.244704 -1.00135 0)
(-0.169135 -0.969459 0)
(-0.0566057 -0.757601 0)
(0.0141728 -0.509516 0)
(0.0550071 -0.301662 0)
(0.100889 -0.0977623 0)
(-0.0650842 -0.176685 0)
(-0.35775 -0.440067 0)
(-0.489443 -0.478785 0)
(-0.383124 -0.24064 0)
(-0.162837 0.0373173 0)
(0.0134405 0.799521 0)
(0.457497 1.52805 0)
(0.757702 2.04368 0)
(0.916488 2.09287 0)
(0.788971 2.18799 0)
(0.724414 2.41986 0)
(0.604444 2.43252 0)
(0.519614 2.08027 0)
(0.401191 1.46248 0)
(0.296072 0.690162 0)
(0.265124 -0.223322 0)
(0.339303 -0.846664 0)
(0.301425 -1.05266 0)
(0.237578 -1.01078 0)
(0.240056 -0.804374 0)
(0.246768 -0.546912 0)
(0.255309 -0.320753 0)
(0.260497 -0.126697 0)
(0.288929 0.0495612 0)
(0.0346501 -0.155331 0)
(-0.265023 -0.385815 0)
(-0.345046 -0.367284 0)
(-0.202314 -0.14635 0)
(0.00214487 0.539739 0)
(0.341467 1.09347 0)
(0.798522 1.70481 0)
(1.16694 2.01288 0)
(1.31414 2.23999 0)
(1.3595 2.45408 0)
(1.35571 2.4863 0)
(1.32349 2.18243 0)
(1.26639 1.60935 0)
(1.22161 0.833624 0)
(1.18352 -0.0874319 0)
(1.07759 -0.765092 0)
(0.904732 -0.983034 0)
(0.70706 -0.92659 0)
(0.574357 -0.740347 0)
(0.493561 -0.512482 0)
(0.450681 -0.30565 0)
(0.430715 -0.144137 0)
(0.466484 0.0332565 0)
(0.467853 0.127242 0)
(0.24522 -0.0780365 0)
(-0.0553237 -0.307019 0)
(-0.124148 -0.320723 0)
(0.0195838 0.42507 0)
(0.204659 0.703192 0)
(0.662319 1.14745 0)
(1.18376 1.61044 0)
(1.60507 2.02567 0)
(1.89121 2.34262 0)
(2.06632 2.44236 0)
(2.13478 2.2063 0)
(2.14378 1.67081 0)
(2.12626 0.910661 0)
(2.03315 0.0630636 0)
(1.78396 -0.548409 0)
(1.43514 -0.745819 0)
(1.10548 -0.704242 0)
(0.864142 -0.569939 0)
(0.705729 -0.403921 0)
(0.613351 -0.249791 0)
(0.570772 -0.127466 0)
(0.571223 -0.0231892 0)
(0.637881 0.101135 0)
(0.664116 0.125464 0)
(0.579399 0.0219516 0)
(0.361037 -0.229456 0)
(0.0450168 0.336974 0)
(0.159812 0.438644 0)
(0.472264 0.641424 0)
(0.969781 1.01907 0)
(1.53672 1.51448 0)
(2.04012 1.96851 0)
(2.4204 2.20917 0)
(2.64531 2.10517 0)
(2.73925 1.66608 0)
(2.7175 0.996263 0)
(2.54544 0.283608 0)
(2.17251 -0.198764 0)
(1.71618 -0.372833 0)
(1.3211 -0.383933 0)
(1.03162 -0.330073 0)
(0.837972 -0.247322 0)
(0.720069 -0.1632 0)
(0.660595 -0.0906377 0)
(0.640742 -0.0388569 0)
(0.672085 0.0100656 0)
(0.75387 0.0527213 0)
(0.820142 0.0380735 0)
(0.854969 -0.0835211 0)
(0.0505143 0.256017 0)
(0.127885 0.275309 0)
(0.315331 0.298571 0)
(0.653224 0.501158 0)
(1.15989 0.918476 0)
(1.71232 1.42234 0)
(2.19092 1.78638 0)
(2.53355 1.84809 0)
(2.7064 1.57484 0)
(2.69284 1.07786 0)
(2.46842 0.573019 0)
(2.08049 0.226604 0)
(1.65702 0.0448534 0)
(1.31225 -0.0474537 0)
(1.05392 -0.0848866 0)
(0.877456 -0.0856703 0)
(0.763734 -0.0681562 0)
(0.699181 -0.0452028 0)
(0.671138 -0.029446 0)
(0.670605 -0.0290177 0)
(0.706745 -0.0387118 0)
(0.772797 -0.0686159 0)
(0.830368 -0.142588 0)
(0.0381434 0.203659 0)
(0.0649846 0.18977 0)
(0.139415 0.108067 0)
(0.306916 0.182617 0)
(0.590273 0.486211 0)
(1.03599 0.939044 0)
(1.48513 1.34843 0)
(1.84036 1.53398 0)
(2.05577 1.44717 0)
(2.07391 1.17232 0)
(1.92343 0.849668 0)
(1.65774 0.573331 0)
(1.38588 0.362548 0)
(1.1567 0.207349 0)
(0.978869 0.105276 0)
(0.848244 0.0460562 0)
(0.756484 0.0161643 0)
(0.698251 0.00119439 0)
(0.668013 -0.0108321 0)
(0.656878 -0.0310699 0)
(0.661205 -0.064492 0)
(0.681886 -0.111701 0)
(0.709221 -0.178204 0)
(0.0223023 0.178214 0)
(0.00947593 0.179679 0)
(-0.0109001 0.0574588 0)
(0.00142708 0.047737 0)
(0.0985819 0.246827 0)
(0.356314 0.638961 0)
(0.68083 1.02533 0)
(0.974847 1.26988 0)
(1.19118 1.31697 0)
(1.2847 1.19597 0)
(1.26629 0.985852 0)
(1.17836 0.753711 0)
(1.06803 0.53688 0)
(0.960483 0.358162 0)
(0.864269 0.226109 0)
(0.781447 0.137956 0)
(0.71656 0.0813954 0)
(0.670462 0.0422987 0)
(0.642118 0.0104803 0)
(0.627681 -0.0225687 0)
(0.621479 -0.0630651 0)
(0.619003 -0.114369 0)
(0.617384 -0.176005 0)
(0.00989388 0.175929 0)
(-0.0200519 0.215283 0)
(-0.0804032 0.103257 0)
(-0.166309 0.0565438 0)
(-0.208459 0.147826 0)
(-0.129271 0.438912 0)
(0.0604608 0.788828 0)
(0.286213 1.04468 0)
(0.498605 1.14818 0)
(0.65676 1.10668 0)
(0.755806 0.966709 0)
(0.797383 0.778912 0)
(0.803985 0.586677 0)
(0.783752 0.418589 0)
(0.744814 0.288443 0)
(0.700175 0.194593 0)
(0.659241 0.126801 0)
(0.626337 0.0747616 0)
(0.602708 0.0308936 0)
(0.587447 -0.0106483 0)
(0.577418 -0.0548038 0)
(0.568016 -0.104846 0)
(0.55604 -0.160357 0)
(0.000309817 0.186768 0)
(-0.0315353 0.261365 0)
(-0.0906642 0.178747 0)
(-0.184931 0.140926 0)
(-0.284307 0.185749 0)
(-0.31072 0.35189 0)
(-0.227315 0.60737 0)
(-0.0682491 0.83133 0)
(0.123688 0.944622 0)
(0.304891 0.940886 0)
(0.453872 0.850137 0)
(0.560473 0.711691 0)
(0.621751 0.560978 0)
(0.642704 0.424335 0)
(0.636987 0.312705 0)
(0.618093 0.224873 0)
(0.595434 0.155391 0)
(0.574057 0.0983441 0)
(0.556057 0.0486894 0)
(0.541795 0.00245801 0)
(0.530148 -0.0436121 0)
(0.518283 -0.0920355 0)
(0.503834 -0.142824 0)
(-0.00547065 0.202493 0)
(-0.0323947 0.300628 0)
(-0.0758409 0.242679 0)
(-0.139927 0.226581 0)
(-0.216621 0.264779 0)
(-0.264516 0.365122 0)
(-0.237801 0.517343 0)
(-0.13532 0.66745 0)
(0.0159093 0.756967 0)
(0.178066 0.766683 0)
(0.321738 0.711656 0)
(0.430512 0.617474 0)
(0.499301 0.509882 0)
(0.533895 0.406626 0)
(0.544731 0.315346 0)
(0.541619 0.237425 0)
(0.531659 0.171291 0)
(0.51919 0.114132 0)
(0.506443 0.0629528 0)
(0.494263 0.0151575 0)
(0.482501 -0.0313422 0)
(0.46981 -0.0780824 0)
(0.455002 -0.125134 0)
(-0.00793488 0.219305 0)
(-0.0285041 0.328689 0)
(-0.0562493 0.28378 0)
(-0.0926358 0.278973 0)
(-0.130997 0.316961 0)
(-0.155897 0.387157 0)
(-0.139967 0.479102 0)
(-0.072613 0.567663 0)
(0.034483 0.623875 0)
(0.154863 0.631343 0)
(0.26485 0.596913 0)
(0.352117 0.534507 0)
(0.412572 0.458806 0)
(0.449022 0.380676 0)
(0.46725 0.306476 0)
(0.473112 0.23893 0)
(0.471324 0.178368 0)
(0.465202 0.123797 0)
(0.456761 0.073681 0)
(0.44697 0.0264705 0)
(0.436163 -0.0191119 0)
(0.423756 -0.0639508 0)
(0.409281 -0.10815 0)
(-0.00811052 0.234659 0)
(-0.0226049 0.34714 0)
(-0.0383158 0.30769 0)
(-0.0578755 0.303967 0)
(-0.0724314 0.336739 0)
(-0.0758198 0.388009 0)
(-0.0562208 0.446643 0)
(-0.00662794 0.499417 0)
(0.0672838 0.532152 0)
(0.150911 0.535539 0)
(0.230481 0.512304 0)
(0.297261 0.46891 0)
(0.347574 0.413387 0)
(0.381808 0.35281 0)
(0.402516 0.292126 0)
(0.4129 0.234077 0)
(0.415954 0.179721 0)
(0.414053 0.12903 0)
(0.408838 0.0814052 0)
(0.401236 0.0360627 0)
(0.391772 -0.00766389 0)
(0.380248 -0.0505057 0)
(0.366676 -0.0922539 0)
(-0.00712216 0.247076 0)
(-0.0159159 0.357834 0)
(-0.0228293 0.320666 0)
(-0.0324246 0.314478 0)
(-0.0356648 0.339723 0)
(-0.029084 0.376879 0)
(-0.00722563 0.415514 0)
(0.0320942 0.447862 0)
(0.0854394 0.466375 0)
(0.145434 0.46672 0)
(0.204193 0.449129 0)
(0.255865 0.41674 0)
(0.297314 0.374192 0)
(0.327828 0.326048 0)
(0.348303 0.275875 0)
(0.360414 0.226002 0)
(0.365995 0.177663 0)
(0.366665 0.131287 0)
(0.36368 0.0868139 0)
(0.357884 0.0439485 0)
(0.34965 0.00238762 0)
(0.339165 -0.0382598 0)
(0.326823 -0.0777873 0)
(-0.00573021 0.256004 0)
(-0.00944252 0.362084 0)
(-0.00994582 0.326026 0)
(-0.0130406 0.317298 0)
(-0.0106183 0.335702 0)
(-0.000355116 0.362353 0)
(0.0206444 0.387932 0)
(0.0525543 0.407546 0)
(0.093137 0.417486 0)
(0.138169 0.415274 0)
(0.182913 0.400577 0)
(0.22348 0.37495 0)
(0.257419 0.341071 0)
(0.283741 0.301844 0)
(0.302583 0.259781 0)
(0.314748 0.216726 0)
(0.321307 0.173842 0)
(0.323321 0.131728 0)
(0.321699 0.0906004 0)
(0.317115 0.0504392 0)
(0.310027 0.0111426 0)
(0.300708 -0.0272983 0)
(0.289605 -0.0648252 0)
(-0.00427951 0.261553 0)
(-0.00391197 0.361295 0)
(0.000221129 0.325884 0)
(0.00156002 0.315351 0)
(0.0071183 0.328421 0)
(0.0185941 0.347302 0)
(0.0375644 0.363897 0)
(0.0637724 0.375381 0)
(0.0956006 0.379827 0)
(0.130384 0.37574 0)
(0.165138 0.362698 0)
(0.19725 0.341434 0)
(0.224887 0.3135 0)
(0.247095 0.280755 0)
(0.263678 0.24495 0)
(0.274951 0.207491 0)
(0.281503 0.169376 0)
(0.284007 0.131225 0)
(0.283105 0.0933683 0)
(0.279333 0.05594 0)
(0.273139 0.0189947 0)
(0.264842 -0.0174613 0)
(0.254898 -0.0532735 0)
(-0.00277743 0.264056 0)
(0.00046201 0.356794 0)
(0.0077244 0.322111 0)
(0.0122185 0.310335 0)
(0.0194167 0.319554 0)
(0.0310513 0.332748 0)
(0.0479353 0.343196 0)
(0.0696826 0.349334 0)
(0.0951027 0.350199 0)
(0.122454 0.344849 0)
(0.149791 0.332858 0)
(0.175334 0.314543 0)
(0.197729 0.290814 0)
(0.216153 0.26287 0)
(0.230285 0.231926 0)
(0.240182 0.199034 0)
(0.246141 0.165007 0)
(0.248572 0.130411 0)
(0.247919 0.095601 0)
(0.244591 0.0607699 0)
(0.238981 0.0260329 0)
(0.231382 -0.00856188 0)
(0.222207 -0.042864 0)
(-0.0013566 0.26386 0)
(0.003997 0.349753 0)
(0.01314 0.315796 0)
(0.0196212 0.303489 0)
(0.0276704 0.310002 0)
(0.0389616 0.319117 0)
(0.0539305 0.325348 0)
(0.0721431 0.327951 0)
(0.0927224 0.326506 0)
(0.114503 0.320368 0)
(0.136187 0.309145 0)
(0.156547 0.292941 0)
(0.174586 0.272294 0)
(0.189633 0.247984 0)
(0.201348 0.220858 0)
(0.209659 0.191696 0)
(0.214687 0.161142 0)
(0.216663 0.129682 0)
(0.215871 0.0976476 0)
(0.212593 0.0652405 0)
(0.207135 0.0325967 0)
(0.19965 -0.000223623 0)
(0.190495 -0.0329512 0)
(-0.000108697 0.261701 0)
(0.00685648 0.341256 0)
(0.0170764 0.307978 0)
(0.0246923 0.29582 0)
(0.0330844 0.300481 0)
(0.0438161 0.306702 0)
(0.0570928 0.310068 0)
(0.0724682 0.310384 0)
(0.0892968 0.307511 0)
(0.106787 0.300964 0)
(0.12406 0.290391 0)
(0.14026 0.275792 0)
(0.15466 0.257486 0)
(0.16673 0.235988 0)
(0.176153 0.211896 0)
(0.1828 0.185791 0)
(0.186678 0.158185 0)
(0.187878 0.129488 0)
(0.186538 0.100001 0)
(0.182798 0.0699225 0)
(0.176816 0.0393948 0)
(0.168694 0.00845885 0)
(0.158729 -0.0225142 0)
(0.000995862 0.257178 0)
(0.00911433 0.331047 0)
(0.0197585 0.298705 0)
(0.0278941 0.287233 0)
(0.0362582 0.290675 0)
(0.0462961 0.294865 0)
(0.05802 0.296351 0)
(0.0710002 0.295283 0)
(0.0847679 0.291637 0)
(0.0987808 0.285013 0)
(0.112441 0.275093 0)
(0.125154 0.261831 0)
(0.136392 0.245416 0)
(0.145749 0.226201 0)
(0.15295 0.204618 0)
(0.157839 0.181118 0)
(0.160345 0.156121 0)
(0.160453 0.129982 0)
(0.158174 0.10298 0)
(0.153518 0.0753143 0)
(0.146533 0.0471089 0)
(0.137323 0.0183282 0)
(0.126454 -0.0110592 0)
(0.00188824 0.253323 0)
(0.011144 0.322685 0)
(0.0222859 0.291225 0)
(0.0307618 0.280431 0)