/*--------------------------------*- C++ -*----------------------------------*\
| =========                 |                                                 |
| \\      /  F ield         | OpenFOAM: The Open Source CFD Toolbox           |
|  \\    /   O peration     | Version:  2206                                  |
|   \\  /    A nd           | Website:  www.openfoam.com                      |
|    \\/     M anipulation  |                                                 |
\*---------------------------------------------------------------------------*/
FoamFile
{
    version     2.0;
    format      ascii;
    arch        "LSB;label=32;scalar=64";
    class       volScalarField;
    location    "0.9";
    object      p;
}
// * * * * * * * * * * * * * * * * * * * * * * * * * * * * * * * * * * * * * //

dimensions      [1 -1 -2 0 0 0 0];

internalField   nonuniform List<scalar> 
2268
(
980.29
967.788
948.411
923.305
895.738
866.136
834.158
801.053
769.727
743.138
723.367
711.161
706.228
707.127
710.079
712.325
712.949
712.191
712.542
715.959
718.044
719.52
719.404
925.247
911.76
890.445
863.739
835.824
807.183
775.31
741.722
709.84
682.857
662.897
650.71
645.983
647.605
652.929
657.305
656.084
651.779
652.524
656.964
658.024
658.06
659.174
869.925
855.584
832.326
803.93
776.603
748.513
716.466
681.931
648.824
620.898
600.511
588.408
584.206
586.926
594.508
601.377
600.514
596.532
596.688
597.822
596.955
595.975
598.572
815.117
799.302
774.345
744.189
716.844
689.982
657.851
621.816
586.738
557.389
536.334
524.329
520.823
524.896
534.483
544.482
547.428
544.809
541.593
537.308
533.957
533.33
538.068
761.28
743.43
717.018
685.085
657.94
632.489
599.954
561.545
523.473
492.054
470.174
458.404
455.813
461.754
474.308
488.319
496.234
493.935
485.498
475.272
469.777
470.126
478.116
709.646
688.639
660.977
627.658
600.847
576.821
543.136
501.294
458.947
424.834
401.84
390.474
388.993
397.366
414.015
432.941
444.834
442.479
427.955
410.878
403.426
405.955
418.939
661.209
635.488
606.761
572.938
546.705
523.241
487.7
441.184
392.708
355.779
334.22
319.994
319.713
331.016
353.138
378.492
395.453
392.053
369.07
344.096
333.901
340.214
360.053
615.662
585.166
554.36
521.371
494.1
472.097
434.075
381.171
322.968
281.62
262.09
247.04
247.936
262.652
292.324
326.67
350.608
347.707
316.302
276.595
259.331
273.038
302.826
621.908
569.398
550.818
578.306
551.497
464.656
453.967
502.79
515.658
459.908
373.002
339.635
363.343
406.619
434.103
448.715
481.809
505.555
493.032
568.729
501.901
477.349
507.453
474.103
380.924
374.072
441.65
473.999
420.326
317.844
288.86
319.277
360.172
377.94
387.774
421.571
442.296
431.123
511.884
431.167
410.293
445.355
415.614
327.592
299.275
376.458
434.801
371.177
263.303
231.918
261.088
306.203
324.69
336.467
370.352
382.792
375.107
450.654
362.674
348.348
386.405
371.127
304.512
242.431
283.427
333.72
284.503
213.451
185.961
204.804
249.178
286.444
317.081
341.91
346.459
338.344
391.048
299.284
290.318
332.423
329.69
265.412
202.734
185.853
145.134
162.182
167.112
159.131
164.647
197.121
244.473
281.307
309.279
310.017
303.041
340.242
249.961
242.977
288.696
284.574
219.982
181.158
139.367
95.5011
103.048
130.825
150.182
143.3
151.198
188.92
227.73
268.771
262.096
245.407
299.425
217
202.222
251.134
235.553
174.371
167.618
131.305
94.8568
95.9218
110.263
135.998
127.044
106.589
123.039
153.879
205.352
201.985
164.32
267.634
192.603
170.989
209.396
180.215
139.25
159.653
136.087
100.385
97.3981
100.211
92.5329
74.4637
45.2253
49.2695
48.9976
95.1873
129
117.049
548.708
508.669
476.87
450.18
426.101
398.272
354.941
288.611
207.589
153.257
142.084
136.495
137.776
153.406
196.362
249.808
290.856
292.153
242.702
177.76
153.173
165.865
215.766
446.609
387.454
374.493
344.295
310.894
287.985
258.16
175.681
93.325
77.4533
72.9353
68.7495
65.6989
75.1279
105.291
164.625
198.771
180.671
128.585
92.3126
85.1409
92.8122
136.573
346.896
230.916
292.109
249.012
195.571
151.138
126.412
98.4424
78.8955
70.1007
65.74
63.1802
59.1442
55.789
57.037
71.9317
102.073
104.205
79.308
62.8986
65.1954
79.705
91.376
403.107
272.757
208.796
130.009
57.1714
47.4924
69.0952
65.2296
58.3771
53.3989
53.285
54.5453
52.7915
48.0965
45.6855
53.9642
67.4574
65.9239
53.6056
42.1384
43.7549
51.3409
67.6148
600.259
275.742
76.5842
12.9751
3.68743
4.0504
4.52047
5.42913
4.58492
5.5725
29.0758
40.34
40.1983
36.9652
34.8082
35.5287
42.299
32.5494
21.8737
17.1046
36.3089
42.3258
40.1064
428.016
92.5668
15.5831
1.19662
-1.64825
-2.42611
-2.84562
-3.16051
-3.4296
-3.27437
-1.30331
3.32898
3.95254
4.22104
3.21971
3.6928
6.58942
5.75071
4.30792
1.58532
2.66762
4.97489
7.96228
111.421
18.9796
2.66921
-1.38043
-2.65284
-3.26442
-3.55447
-3.61954
-3.6355
-3.5623
-3.51867
-3.48947
-3.48165
-3.34525
-2.73002
-1.90425
-1.78855
-1.89471
1.23625
2.23238
0.888603
1.13921
2.01983
14.6236
-2.02229
-2.38109
-3.12676
-3.50701
-3.82501
-4.05068
-4.14923
-4.12995
-4.01113
-3.91324
-3.81393
-3.64797
-3.38099
-3.08762
-2.94121
-2.92721
-2.82392
-1.68111
1.23481
-0.828873
-1.40983
-0.700802
4.19123
-4.98633
-4.12366
-4.27803
-4.28295
-4.39903
-4.48399
-4.50219
-4.44097
-4.33177
-4.22057
-4.10929
-3.98322
-3.81131
-3.61812
-3.50983
-3.49506
-3.50647
-2.98679
-1.8872
-2.59929
-3.0601
-2.50782
0.101425
-7.07405
-4.9814
-4.89761
-4.68594
-4.6941
-4.69931
-4.67892
-4.61402
-4.5203
-4.41634
-4.30946
-4.2025
-4.09715
-3.98957
-3.89331
-3.82293
-3.76208
-3.68625
-3.0036
-2.98756
-2.55386
1.64837
41.6795
-3.95953
-5.20322
-4.98605
-4.69734
-4.72772
-4.75069
-4.76246
-4.7358
-4.67006
-4.57855
-4.4738
-4.37269
-4.28332
-4.2058
-4.1273
-4.0302
-3.92152
-3.81451
-3.56344
-3.00582
-2.73698
-2.51398
2.74085
-0.979364
-3.31958
-4.3307
-4.49097
-4.72108
-4.85027
-4.92222
-4.91691
-4.84719
-4.73798
-4.61757
-4.50131
-4.40218
-4.32168
-4.2431
-4.14069
-4.00922
-3.88132
-3.8
-3.66939
-3.42585
-3.3033
-0.459443
-1.25164
-2.8475
-4.0169
-4.5117
-4.9695
-5.22932
-5.33119
-5.2822
-5.13776
-4.95651
-4.77834
-4.62036
-4.48879
-4.38268
-4.29295
-4.20248
-4.09074
-3.97937
-3.87857
-3.7611
-3.60586
-3.44214
-1.49087
-2.24822
-3.20204
-4.30382
-5.0056
-5.67916
-6.05687
-6.1223
-5.92442
-5.59854
-5.26431
-4.97771
-4.74706
-4.56712
-4.432
-4.3201
-4.22161
-4.12809
-4.03812
-3.95536
-3.8667
-3.73857
-3.52306
-1.59431
-3.03134
-3.8112
-4.98558
-5.94762
-6.88725
-7.40654
-7.38846
-6.92512
-6.27304
-5.67043
-5.21073
-4.87848
-4.64142
-4.46927
-4.33696
-4.23189
-4.14494
-4.06643
-3.99236
-3.91195
-3.78514
-3.58064
-1.57393
-3.04509
-4.37588
-5.82366
-7.16898
-8.46873
-9.2
-9.10491
-8.29191
-7.13829
-6.12594
-5.4363
-4.98572
-4.694
-4.4901
-4.34149
-4.22706
-4.13497
-4.05741
-3.98478
-3.89941
-3.77859
-3.61219
-1.80726
-2.84186
-4.79482
-6.63985
-8.42842
-10.0946
-11.0612
-10.923
-9.68161
-7.91359
-6.44418
-5.57974
-5.026
-4.69478
-4.47913
-4.32695
-4.21153
-4.11743
-4.03507
-3.9573
-3.87108
-3.76202
-3.63259
-2.53845
-3.19026
-4.99788
-7.14271
-9.25038
-11.1335
-12.2064
-12.028
-10.3675
-8.14163
-6.44697
-5.47405
-4.93585
-4.62402
-4.42595
-4.28755
-4.18198
-4.09407
-4.01403
-3.93438
-3.84897
-3.75194
-3.63996
-3.4698
-3.87486
-5.00723
-6.8771
-8.92728
-10.6843
-11.586
-11.1856
-9.5596
-7.48256
-5.95981
-5.14335
-4.72399
-4.48546
-4.33312
-4.22465
-4.13911
-4.06481
-3.99425
-3.92193
-3.84369
-3.75669
-3.66156
-4.24098
-4.48082
-5.14946
-6.12251
-7.31947
-8.37392
-8.82594
-8.4452
-7.35828
-6.05697
-5.15342
-4.67641
-4.43931
-4.30569
-4.21626
-4.14759
-4.08862
-4.0329
-3.97628
-3.91567
-3.84915
-3.77578
-3.69637
-4.67455
-5.00621
-5.44945
-5.65461
-5.65398
-5.67166
-5.69787
-5.54155
-5.11162
-4.65947
-4.36465
-4.22257
-4.15962
-4.12619
-4.09861
-4.07036
-4.0393
-4.00393
-3.96316
-3.91619
-3.86272
-3.80309
-3.73868
-4.7955
-5.15549
-5.48968
-5.38892
-4.82365
-4.19003
-3.83229
-3.72788
-3.72231
-3.76682
-3.83013
-3.89414
-3.94521
-3.98179
-4.00127
-4.00641
-3.99998
-3.98361
-3.95836
-3.92502
-3.88442
-3.83767
-3.78641
-4.69764
-4.89864
-5.11656
-4.97253
-4.38292
-3.66483
-3.2079
-3.08684
-3.19247
-3.3962
-3.58118
-3.71187
-3.81402
-3.88783
-3.9364
-3.96478
-3.97713
-3.97637
-3.96462
-3.94355
-3.91464
-3.8794
-3.83953
-4.51028
-4.58921
-4.6456
-4.47722
-4.037
-3.51062
-3.14398
-3.04855
-3.14974
-3.32495
-3.49788
-3.64296
-3.75793
-3.84475
-3.90718
-3.94923
-3.97404
-3.9847
-3.98361
-3.97272
-3.95376
-3.92836
-3.89813
-4.35392
-4.35742
-4.31227
-4.13828
-3.83579
-3.49494
-3.26964
-3.20781
-3.26924
-3.39111
-3.52787
-3.65438
-3.7615
-3.84727
-3.91136
-3.95963
-3.99133
-4.00935
-4.01591
-4.01288
-4.0019
-3.98453
-3.96223
-4.26912
-4.24847
-4.17607
-4.02472
-3.80973
-3.59653
-3.45353
-3.40474
-3.43599
-3.51635
-3.61644
-3.71696
-3.80801
-3.88539
-3.94833
-3.99411
-4.02786
-4.04973
-4.06121
-4.06381
-4.05892
-4.04788
-4.03194
-4.24148
-4.21778
-4.15207
-4.03886
-3.87543
-3.73787
-3.63994
-3.59943
-3.61254
-3.66319
-3.73362
-3.81001
-3.88349
-3.94911
-4.00452
-4.04844
-4.08124
-4.10437
-4.11859
-4.12492
-4.12442
-4.11819
-4.10725
-4.25174
-4.22975
-4.17712
-4.08835
-3.98188
-3.88513
-3.81474
-3.78112
-3.78389
-3.81497
-3.86366
-3.92032
-3.97786
-4.03161
-4.07882
-4.11801
-4.14875
-4.1715
-4.18682
-4.19533
-4.19782
-4.1951
-4.18799
-4.2895
-4.27061
-4.22985
-4.1666
-4.09365
-4.02607
-3.97516
-3.94807
-3.94597
-3.96487
-3.99833
-4.03987
-4.08414
-4.12722
-4.16647
-4.20029
-4.22793
-4.24918
-4.26448
-4.27403
-4.27837
-4.27811
-4.27387
-4.34918
-4.3336
-4.30341
-4.25887
-4.20839
-4.16096
-4.12409
-4.10296
-4.09908
-4.11056
-4.1336
-4.16393
-4.19768
-4.23172
-4.26379
-4.29233
-4.31646
-4.33579
-4.35016
-4.3599
-4.36526
-4.36664
-4.36449
-4.42538
-4.41318
-4.39116
-4.36003
-4.32499
-4.29156
-4.26492
-4.24882
-4.24469
-4.25173
-4.26772
-4.28988
-4.31548
-4.34216
-4.36802
-4.3917
-4.41231
-4.42931
-4.44246
-4.45186
-4.45766
-4.46007
-4.45939
-4.51427
-4.50479
-4.489
-4.46737
-4.44297
-4.41936
-4.40017
-4.38813
-4.38444
-4.38884
-4.40006
-4.41631
-4.43571
-4.45649
-4.47717
-4.49657
-4.51388
-4.52856
-4.5403
-4.549
-4.55479
-4.55775
-4.55807
-4.61261
-4.60535
-4.59416
-4.57917
-4.56216
-4.54545
-4.53167
-4.52279
-4.51977
-4.5226
-4.53057
-4.54256
-4.55726
-4.57339
-4.5898
-4.60555
-4.6199
-4.63235
-4.64259
-4.65045
-4.65592
-4.65908
-4.66002
-4.71798
-4.7125
-4.70464
-4.69428
-4.68238
-4.67055
-4.66068
-4.6542
-4.65185
-4.65373
-4.65947
-4.66835
-4.67949
-4.69198
-4.70492
-4.71758
-4.72933
-4.73974
-4.74849
-4.7554
-4.76038
-4.7635
-4.76479
-4.82853
-4.82445
-4.81897
-4.81184
-4.8035
-4.79511
-4.78806
-4.78337
-4.7816
-4.78289
-4.78705
-4.79365
-4.80208
-4.8117
-4.82183
-4.8319
-4.84141
-4.84997
-4.8573
-4.86323
-4.86764
-4.87055
-4.87199
-4.94292
-4.9399
-4.93611
-4.93122
-4.92538
-4.91943
-4.9144
-4.91102
-4.9097
-4.9106
-4.91363
-4.91852
-4.92487
-4.93222
-4.94007
-4.94798
-4.95556
-4.96248
-4.96851
-4.97347
-4.97728
-4.97989
-4.98135
-5.06012
-5.05788
-5.05529
-5.05198
-5.04789
-5.04368
-5.0401
-5.03767
-5.0367
-5.03732
-5.0395
-5.04309
-5.04782
-5.05335
-5.05935
-5.06546
-5.07138
-5.07687
-5.08171
-5.08577
-5.08896
-5.09124
-5.09264
-5.1794
-5.17769
-5.17598
-5.17378
-5.17092
-5.16797
-5.16544
-5.1637
-5.16297
-5.16337
-5.16491
-5.16749
-5.17093
-5.17501
-5.17948
-5.18409
-5.18861
-5.19284
-5.19663
-5.19985
-5.20245
-5.20438
-5.20566
-5.30015
-5.29881
-5.29775
-5.29634
-5.29439
-5.29235
-5.29059
-5.28935
-5.28881
-5.28905
-5.29009
-5.29187
-5.29428
-5.29718
-5.30039
-5.30373
-5.30704
-5.31018
-5.31302
-5.31548
-5.3175
-5.31907
-5.32016
-5.42199
-5.42091
-5.42033
-5.41949
-5.41821
-5.41688
-5.4157
-5.41486
-5.41447
-5.41458
-5.41522
-5.41636
-5.41794
-5.41985
-5.422
-5.42426
-5.42652
-5.42868
-5.43067
-5.43241
-5.43388
-5.43504
-5.43586
-5.54442
-5.54359
-5.54342
-5.54301
-5.54227
-5.54151
-5.54082
-5.54032
-5.54007
-5.54011
-5.54044
-5.54107
-5.54195
-5.54304
-5.54427
-5.54557
-5.54689
-5.54817
-5.54935
-5.5504
-5.5513
-5.55205
-5.55269
-5.66788
-5.66732
-5.66718
-5.66704
-5.6668
-5.66655
-5.66629
-5.6661
-5.66597
-5.66594
-5.66601
-5.66617
-5.66642
-5.66674
-5.66712
-5.66753
-5.66796
-5.66837
-5.66876
-5.66911
-5.66941
-5.66965
-5.66985
236.319
242.915
243.601
240.183
158.924
163.554
156.996
143.603
97.8379
93.8005
70.3072
37.7195
57.3361
32.4345
-2.22072
-33.3427
24.0123
-2.18728
-39.4238
-60.9849
10.2198
8.19271
-20.1657
-32.2269
1.84129
-1.01376
-9.1265
-10.122
2.437
4.35438
0.568247
2.58302
1.17772
2.97879
6.68846
15.1717
5.02106
8.53566
14.1149
22.5468
2.41581
9.55058
11.2169
7.55229
-3.24236
-3.18573
-3.0085
-2.48223
-3.23269
-3.05251
-2.85365
-2.63539
-3.28141
-3.1161
-2.95921
-2.80621
-3.36767
-3.22801
-3.11588
-3.01605
-3.44557
-3.33436
-3.24714
-3.1768
-3.50621
-3.41771
-3.34157
-3.27631
-3.54302
-3.48093
-3.42101
-3.36485
-3.58602
-3.53689
-3.48921
-3.44366
-3.63481
-3.59538
-3.55717
-3.5204
-3.68909
-3.65726
-3.62621
-3.59616
-3.7467
-3.72111
-3.69589
-3.67121
-3.80803
-3.78757
-3.76717
-3.74697
-3.8735
-3.85729
-3.84088
-3.82437
-3.94323
-3.9305
-3.91737
-3.90394
-4.01751
-4.00763
-3.99724
-3.98641
-4.0965
-4.08894
-4.0808
-4.07214
-4.18015
-4.17445
-4.16816
-4.16132
-4.2683
-4.2641
-4.25931
-4.25398
-4.36068
-4.35765
-4.35409
-4.35
-4.45692
-4.45481
-4.4522
-4.44913
-4.55659
-4.55517
-4.55332
-4.55104
-4.65925
-4.65834
-4.65706
-4.6554
-4.7645
-4.76397
-4.76311
-4.76193
-4.87202
-4.87176
-4.87122
-4.87042
-4.9816
-4.98153
-4.98125
-4.98074
-5.09304
-5.09312
-5.09303
-5.09277
-5.20615
-5.20634
-5.2064
-5.20633
-5.32068
-5.32093
-5.3211
-5.32118
-5.43638
-5.43665
-5.43687
-5.43705
-5.55297
-5.55318
-5.5534
-5.55363
-5.67005
-5.67021
-5.67044
-5.67073
220.617
161.446
136.446
143.839
109.271
116.62
148.93
141.097
91.5157
89.0671
78.4111
43.7455
31.8391
4.23215
3.01059
6.0774
21.5388
52.7949
101.441
122.496
82.1855
66.2651
74.7801
58.9045
84.6254
104.299
83.9132
52.6455
52.2614
14.0335
-3.22377
-7.39637
-7.44409
-6.17069
-4.5602
0.838873
23.3877
51.5215
-3.75166
-27.4134
-22.0591
7.91733
16.9406
36.2314
37.6068
13.5305
-3.53366
-6.62601
-8.58438
-9.52117
-9.89172
-9.2238
-8.61192
-7.48101
-4.82411
7.27611
33.4733
-71.4049
-77.059
-40.8452
-6.54804
-1.32304
3.38488
-0.374659
-5.05841
-8.84544
-11.0568
-11.2005
-11.5246
-11.0813
-9.96928
-9.24987
-8.73714
-8.76111
-0.562584
9.40213
-69.6205
-35.3727
-8.60562
-5.60585
-4.59343
-4.75866
-6.46524
-7.51806
-8.6236
-9.89289
-11.1408
-11.9468
-11.6041
-10.5183
-9.8405
-9.30716
-8.07259
-2.54061
2.60173
-12.7165
14.5828
-3.8679
-4.45929
-4.76341
-5.47579
-6.87234
-8.41664
-9.45879
-10.1968
-11.0469
-11.6815
-11.5038
-10.7804
-10.3241
-10.1687
-3.75912
1.12535
3.25479
20.8208
22.2904
-0.479436
-3.69099
-4.35067
-5.34285
-6.91624
-8.68647
-9.98867
-10.5823
-10.9049
-11.2033
-11.1154
-10.7501
-10.1753
-8.34938
-0.694794
2.99844
3.41638
41.2842
72.0961
-2.53493
-3.5194
-4.3197
-5.45866
-6.88353
-8.58087
-9.94765
-10.5004
-10.6283
-10.6515
-10.6462
-10.5352
-10.1527
-4.2999
1.14908
2.40633
2.76694
53.5651
120.867
70.2556
-22.8964
-5.86687
-6.2071
-7.0927
-8.20104
-9.27829
-9.90565
-10.0429
-10.0145
-9.95524
-9.18917
-7.43359
-1.07858
1.37342
1.4711
1.91052
42.3901
75.7178
92.417
41.385
-13.7165
-6.37771
-7.26539
-7.78017
-8.4025
-8.88087
-9.14413
-9.22201
-8.8869
-7.27864
-4.58274
0.623236
0.494014
0.877801
1.1615
11.221
36.8361
49.54
42.3889
20.0069
-21.4849
-7.1886
-7.22877
-8.01951
-8.36981
-8.51819
-8.40639
-6.92581
-7.09104
-3.30912
-0.738499
0.24746
0.401531
0.606838
-0.77053
14.7315
25.0013
24.1197
18.7391
3.87727
-15.5738
-21.755
-16.7805
-13.7956
-12.015
-12.5384
-14.1795
-4.60147
-0.961731
-0.287912
0.00881563
0.0818101
0.18613
-2.3207
-2.56065
-2.20782
8.0264
16.4266
7.77158
19.117
45.3701
40.4163
3.60424
-7.77823
4.60459
16.222
5.03891
-0.670017
-0.490508
-0.315046
-0.251857
-0.193923
-2.60155
-2.61805
-2.56002
-2.67067
-2.66857
12.4837
28.0824
30.5847
28.5002
25.4759
26.6836
23.1271
3.84233
-1.46853
-1.09316
-0.87301
-0.704793
-0.589892
-0.557462
-2.82772
-2.73575
-2.72439
-2.77389
-2.75049
-2.78839
-2.86423
-2.82301
-2.16739
0.0248463
-1.07372
-2.10163
-1.93874
-1.69064
-1.44221
-1.20225
-1.04535
-0.891814
-0.90038
-3.0382
-2.89635
-2.87369
-2.8651
-2.86071
-2.89782
-2.85305
-2.74913
-2.58795
-2.49007
-2.41019
-2.2873
-2.10751
-1.88772
-1.68946
-1.50331
-1.37076
-1.19707
-1.25359
-3.17356
-3.05173
-3.00302
-2.97576
-2.95218
-2.92996
-2.87351
-2.80474
-2.70312
-2.61071
-2.51215
-2.37939
-2.24163
-2.0858
-1.9354
-1.78832
-1.70008
-1.54705
-1.63024
-3.27825
-3.17927
-3.11982
-3.08214
-3.04922
-3.01413
-2.96068
-2.89052
-2.80577
-2.71561
-2.62159
-2.51755
-2.40334
-2.28119
-2.16626
-2.05827
-2.02838
-1.93059
-1.95885
-3.37227
-3.29
-3.22939
-3.18522
-3.14498
-3.10113
-3.04719
-2.98412
-2.91374
-2.83751
-2.75465
-2.66402
-2.56841
-2.47176
-2.38579
-2.3114
-2.33644
-2.31119
-2.2489
-3.46169
-3.39113
-3.33359
-3.28656
-3.24295
-3.1971
-3.14581
-3.08872
-3.02645
-2.95955
-2.88818
-2.81265
-2.73429
-2.65708
-2.59237
-2.54731
-2.58508
-2.67515
-2.50762
-3.54764
-3.48664
-3.4335
-3.38683
-3.34279
-3.29764
-3.24944
-3.19779
-3.14308
-3.08609
-3.027
-2.96527
-2.90082
-2.83763
-2.78536
-2.75713
-2.78306
-2.8836
-2.71701
-3.63085
-3.57827
-3.53028
-3.48609
-3.4437
-3.40088
-3.35641
-3.31015
-3.26269
-3.2159
-3.17002
-3.12228
-3.06982
-3.01569
-2.96733
-2.9386
-2.93687
-2.99139
-2.8921
-3.71344
-3.66816
-3.62534
-3.58465
-3.54505
-3.50537
-3.46502
-3.42421
-3.38446
-3.3499
-3.31978
-3.28681
-3.24372
-3.193
-3.14204
-3.10215
-3.0766
-3.09213
-3.0282
-3.79656
-3.75777
-3.7199
-3.68298
-3.64662
-3.61032
-3.57413
-3.53869
-3.50772
-3.48844
-3.47658
-3.45756
-3.41907
-3.36474
-3.30341
-3.24583
-3.20974
-3.1993
-3.15097
-3.88099
-3.84792
-3.81467
-3.78149
-3.74842
-3.71533
-3.68283
-3.65212
-3.6306
-3.62744
-3.63189
-3.62309
-3.58374
-3.52289
-3.44599
-3.35971
-3.33216
-3.31225
-3.27675
-3.96758
-3.93952
-3.91048
-3.88084
-3.85082
-3.82047
-3.79075
-3.76308
-3.74848
-3.75523
-3.76527
-3.76424
-3.71944
-3.64987
-3.56204
-3.46604
-3.45362
-3.43921
-3.41692
-4.05681
-4.03317
-4.00797
-3.98164
-3.95447
-3.92648
-3.89864
-3.8718
-3.85831
-3.86546
-3.8745
-3.86446
-3.82264
-3.75815
-3.68104
-3.60774
-3.59617
-3.5859
-3.57137
-4.14896
-4.12921
-4.10757
-4.08443
-4.06007
-4.03446
-4.00822
-3.98062
-3.9638
-3.9617
-3.96234
-3.95033
-3.92085
-3.8779
-3.82586
-3.77778
-3.75625
-3.74286
-3.72996
-4.24415
-4.22784
-4.20949
-4.18948
-4.16805
-4.14516
-4.12103
-4.09492
-4.07391
-4.06254
-4.05732
-4.05026
-4.03788
-4.01603
-3.98188
-3.94227
-3.91522
-3.89764
-3.88493
-4.34229
-4.329
-4.31367
-4.29666
-4.2782
-4.25834
-4.23721
-4.21484
-4.19398
-4.17908
-4.17214
-4.16968
-4.16592
-4.15235
-4.12558
-4.09216
-4.06449
-4.04555
-4.034
-4.44317
-4.43248
-4.41983
-4.40559
-4.38997
-4.37315
-4.35538
-4.33709
-4.3197
-4.30574
-4.29861
-4.29639
-4.29231
-4.27983
-4.25692
-4.22895
-4.20424
-4.18724
-4.17792
-4.5465
-4.53799
-4.52768
-4.51588
-4.50284
-4.48877
-4.474
-4.45907
-4.44498
-4.43314
-4.42492
-4.41993
-4.4137
-4.401
-4.38139
-4.35856
-4.33858
-4.32524
-4.31861
-4.65199
-4.64528
-4.63695
-4.62729
-4.61651
-4.60484
-4.59255
-4.58009
-4.56804
-4.55741
-4.54881
-4.54185
-4.53401
-4.52191
-4.50533
-4.48721
-4.47184
-4.46209
-4.45778
-4.75941
-4.75419
-4.74755
-4.73974
-4.73095
-4.72137
-4.7112
-4.70068
-4.69019
-4.68065
-4.67243
-4.66509
-4.65738
-4.64641
-4.632
-4.61743
-4.60599
-4.59913
-4.59641
-4.86862
-4.86465
-4.85948
-4.85331
-4.84629
-4.83857
-4.83029
-4.82154
-4.8126
-4.80454
-4.79735
-4.79056
-4.78411
-4.77444
-4.76171
-4.74972
-4.74152
-4.73671
-4.73488
-4.97953
-4.97663
-4.97276
-4.96807
-4.96263
-4.95658
-4.95004
-4.94299
-4.93564
-4.92926
-4.92326
-4.9177
-4.91324
-4.90486
-4.89355
-4.8841
-4.87821
-4.87462
-4.87321
-5.09204
-5.09008
-5.08736
-5.08398
-5.07995
-5.07539
-5.07044
-5.06496
-5.05923
-5.05453
-5.04972
-5.04585
-5.04335
-5.036
-5.02661
-5.01961
-5.01522
-5.01243
-5.01125
-5.20599
-5.20483
-5.20312
-5.2009
-5.19815
-5.19494
-5.19145
-5.18747
-5.18336
-5.18022
-5.17665
-5.1743
-5.17304
-5.1666
-5.16011
-5.15514
-5.15184
-5.14978
-5.14883
-5.32116
-5.32068
-5.31985
-5.31867
-5.31709
-5.31517
-5.31308
-5.31061
-5.30815
-5.30635
-5.30403
-5.30266
-5.30209
-5.29701
-5.29325
-5.29005
-5.2878
-5.28647
-5.28579
-5.43727
-5.43739
-5.43735
-5.43712
-5.43666
-5.43603
-5.43531
-5.43437
-5.43347
-5.43288
-5.43181
-5.43135
-5.43075
-5.42818
-5.42598
-5.42435
-5.42317
-5.42254
-5.42216
-5.55405
-5.55471
-5.55543
-5.55614
-5.55682
-5.55747
-5.55811
-5.55863
-5.55922
-5.55982
-5.56003
-5.56048
-5.56008
-5.55944
-5.55872
-5.55847
-5.55839
-5.55848
-5.55844
-5.67133
-5.67249
-5.67399
-5.67565
-5.67748
-5.67939
-5.68138
-5.68334
-5.68549
-5.68738
-5.6889
-5.69032
-5.68985
-5.69082
-5.69177
-5.69304
-5.69425
-5.69524
-5.69546
)
;

boundaryField
{
    leftWall
    {
        type            calculated;
        value           nonuniform List<scalar> 
50
(
980.29
925.247
869.925
815.117
761.28
709.646
661.209
615.662
548.708
446.609
346.896
403.107
600.259
428.016
111.421
14.6236
4.19123
0.101425
41.6795
2.74085
-0.459443
-1.49087
-1.59431
-1.57393
-1.80726
-2.53845
-3.4698
-4.24098
-4.67455
-4.7955
-4.69764
-4.51028
-4.35392
-4.26912
-4.24148
-4.25174
-4.2895
-4.34918
-4.42538
-4.51427
-4.61261
-4.71798
-4.82853
-4.94292
-5.06012
-5.1794
-5.30015
-5.42199
-5.54442
-5.66788
)
;
    }
    rightWall
    {
        type            calculated;
        value           nonuniform List<scalar> 
50
(
493.032
431.123
375.107
338.344
303.041
245.407
164.32
117.049
101.441
51.5215
33.4733
9.40213
2.60173
3.25479
3.41638
2.76694
1.91052
1.1615
0.606838
0.18613
-0.193923
-0.557462
-0.90038
-1.25359
-1.63024
-1.95885
-2.2489
-2.50762
-2.71701
-2.8921
-3.0282
-3.15097
-3.27675
-3.41692
-3.57137
-3.72996
-3.88493
-4.034
-4.17792
-4.31861
-4.45778
-4.59641
-4.73488
-4.87321
-5.01125
-5.14883
-5.28579
-5.42216
-5.55844
-5.69546
)
;
    }
    lowerWall
    {
        type            calculated;
        value           nonuniform List<scalar> 
62
(
1009.72
997.217
977.841
952.734
925.167
895.565
863.588
830.482
799.156
772.567
752.796
740.59
735.657
736.556
739.289
740.49
741.458
741.436
741.725
744.898
747.012
748.812
748.822
719.404
659.174
598.572
538.068
478.116
418.939
360.053
302.826
298.905
305.442
306.101
302.678
621.908
568.729
511.884
450.654
391.048
340.242
299.425
267.634
650.765
597.957
579.509
607.365
580.556
493.715
481.841
530.295
540.709
483.07
391.633
358.216
381.924
431.519
459.917
474.528
507.622
531.367
518.84
)
;
    }
    atmosphere
    {
        type            calculated;
        value           nonuniform List<scalar> 
46
(
-5.72904
-5.72904
-5.72904
-5.72904
-5.72904
-5.72904
-5.72904
-5.72904
-5.72904
-5.72904
-5.72904
-5.72904
-5.72904
-5.72904
-5.72904
-5.72904
-5.72904
-5.72904
-5.72904
-5.72904
-5.72904
-5.72904
-5.72904
-5.72905
-5.72911
-5.72927
-5.72953
-5.73021
-5.73163
-5.73356
-5.73564
-5.73803
-5.74054
-5.74323
-5.74591
-5.74902
-5.7516
-5.75383
-5.75597
-5.75482
-5.7567
-5.75857
-5.76089
-5.76294
-5.76457
-5.76477
)
;
    }
    defaultFaces
    {
        type            empty;
    }
}


// ************************************************************************* //
