/*--------------------------------*- C++ -*----------------------------------*\
| =========                 |                                                 |
| \\      /  F ield         | OpenFOAM: The Open Source CFD Toolbox           |
|  \\    /   O peration     | Version:  2206                                  |
|   \\  /    A nd           | Website:  www.openfoam.com                      |
|    \\/     M anipulation  |                                                 |
\*---------------------------------------------------------------------------*/
FoamFile
{
    version     2.0;
    format      ascii;
    arch        "LSB;label=32;scalar=64";
    class       surfaceScalarField;
    location    "0.65";
    object      alphaPhi0.water;
}
// * * * * * * * * * * * * * * * * * * * * * * * * * * * * * * * * * * * * * //

dimensions      [0 3 -1 0 0 0 0];

oriented        oriented;

internalField   nonuniform List<scalar> 
4432
(
-3.03681e-06
3.03681e-06
-2.64971e-06
-3.87096e-07
-1.53701e-06
-1.1127e-06
-1.39775e-06
-1.39263e-07
-2.22545e-06
8.27697e-07
-3.56931e-06
1.34386e-06
-4.97441e-06
1.4051e-06
-6.1966e-06
1.22218e-06
-7.16295e-06
9.66348e-07
-7.88557e-06
7.2262e-07
-8.40545e-06
5.19888e-07
-8.75618e-06
3.50731e-07
-8.94633e-06
1.90147e-07
-8.96226e-06
1.59352e-08
-8.7688e-06
-1.93464e-07
-8.3044e-06
-4.64399e-07
-7.44902e-06
-8.55383e-07
-5.97062e-06
-1.47839e-06
-3.26976e-06
-2.70085e-06
7.60167e-07
-4.02989e-06
7.50312e-06
-6.74298e-06
1.38587e-05
-6.35564e-06
1.25861e-05
-3.25323e-06
6.29004e-06
-3.13697e-06
-5.0336e-07
-2.50032e-06
-1.74934e-06
-2.70529e-06
6.57135e-08
-3.732e-06
1.8544e-06
-5.10746e-06
2.71933e-06
-6.4092e-06
2.70684e-06
-7.42008e-06
2.23307e-06
-8.0886e-06
1.63486e-06
-8.43457e-06
1.06859e-06
-8.48487e-06
5.70181e-07
-8.26142e-06
1.27284e-07
-7.75741e-06
-3.13859e-07
-6.97903e-06
-7.62448e-07
-5.92543e-06
-1.24707e-06
-4.57009e-06
-1.81974e-06
-2.86202e-06
-2.56346e-06
-7.23114e-07
-3.6173e-06
1.50611e-06
-4.93008e-06
4.90452e-06
-7.42842e-06
7.63672e-06
-9.47518e-06
5.69753e-06
-4.61689e-06
1.80577e-05
-3.40006e-06
9.6901e-06
-4.00455e-06
1.01126e-07
-4.09785e-06
-1.65604e-06
-4.71189e-06
6.79747e-07
-5.84425e-06
2.98676e-06
-7.09955e-06
3.97462e-06
-8.2055e-06
3.81279e-06
-9.05006e-06
3.07762e-06
-9.62104e-06
2.20584e-06
-9.94381e-06
1.39137e-06
-1.00405e-05
6.66821e-07
-9.91358e-06
4.15503e-10
-9.59327e-06
-6.34169e-07
-9.08623e-06
-1.26948e-06
-8.41719e-06
-1.91611e-06
-7.62802e-06
-2.60891e-06
-6.786e-06
-3.40547e-06
-6.07084e-06
-4.33245e-06
-5.49559e-06
-5.50533e-06
-5.64373e-06
-7.28028e-06
-6.68301e-06
-8.4359e-06
-7.13182e-06
-3.46581e-06
1.07182e-05
-3.70064e-06
1.33907e-05
-5.48303e-06
1.88351e-06
-6.56785e-06
-5.71221e-07
-7.67469e-06
1.78659e-06
-8.93748e-06
4.24956e-06
-1.00995e-05
5.13666e-06
-1.1026e-05
4.73925e-06
-1.16753e-05
3.72692e-06
-1.20548e-05
2.58534e-06
-1.21909e-05
1.52745e-06
-1.21239e-05
5.9981e-07
-1.1901e-05
-2.22397e-07
-1.15405e-05
-9.94724e-07
-1.10998e-05
-1.71013e-06
-1.06158e-05
-2.40018e-06
-1.01319e-05
-3.09283e-06
-9.74203e-06
-3.7953e-06
-9.60498e-06
-4.4695e-06
-1.00572e-05
-5.05308e-06
-1.1699e-05
-5.63852e-06
-1.36839e-05
-6.45095e-06
-1.11997e-05
-5.79604e-06
5.69143e-07
-5.35878e-06
1.87495e-05
-8.56018e-06
5.08491e-06
-1.01753e-05
1.04393e-06
-1.14965e-05
3.10776e-06
-1.28086e-05
5.56168e-06
-1.37986e-05
6.1266e-06
-1.4434e-05
5.37473e-06
-1.47705e-05
4.06341e-06
-1.48745e-05
2.68928e-06
-1.48079e-05
1.46089e-06
-1.45903e-05
3.82171e-07
-1.41837e-05
-6.28978e-07
-1.36267e-05
-1.55166e-06
-1.2939e-05
-2.39782e-06
-1.21645e-05
-3.17476e-06
-1.13513e-05
-3.906e-06
-1.05494e-05
-4.59717e-06
-9.7904e-06
-5.22851e-06
-9.1155e-06
-5.72799e-06
-8.69689e-06
-6.05712e-06
-8.37447e-06
-6.77338e-06
-5.92963e-06
-8.24087e-06
-5.36049e-06
-6.8241e-06
2.55736e-05
-1.21479e-05
1.04087e-05
-1.45216e-05
3.41768e-06
-1.59169e-05
4.50301e-06
-1.74972e-05
7.14208e-06
-1.88484e-05
7.47776e-06
-1.97789e-05
6.30526e-06
-2.02233e-05
4.50775e-06
-2.01084e-05
2.57437e-06
-1.94716e-05
8.24117e-07
-1.85545e-05
-5.34935e-07
-1.76098e-05
-1.57372e-06
-1.66139e-05
-2.54756e-06
-1.5614e-05
-3.39773e-06
-1.46606e-05
-4.12815e-06
-1.36972e-05
-4.86933e-06
-1.26076e-05
-5.68683e-06
-1.13585e-05
-6.47757e-06
-9.9394e-06
-7.14711e-06
-8.2696e-06
-7.72692e-06
-6.06734e-06
-8.97564e-06
-2.8283e-06
-1.14799e-05
-8.18602e-06
-5.10734e-06
3.0681e-05
-1.28796e-05
1.8181e-05
-1.74375e-05
7.97556e-06
-1.9958e-05
7.02351e-06
-2.16045e-05
8.78855e-06
-2.24629e-05
8.33616e-06
-2.27463e-05
6.5887e-06
-2.2659e-05
4.42038e-06
-2.23667e-05
2.28206e-06
-2.21178e-05
5.75302e-07
-2.19769e-05
-6.75857e-07
-2.18329e-05
-1.7178e-06
-2.16674e-05
-2.71297e-06
-2.14595e-05
-3.60569e-06
-2.12055e-05
-4.38211e-06
-2.07617e-05
-5.31317e-06
-1.99791e-05
-6.46943e-06
-1.88337e-05
-7.62305e-06
-1.7312e-05
-8.66886e-06
-1.52187e-05
-9.82031e-06
-1.21343e-05
-1.20601e-05
-6.52497e-06
-1.70891e-05
-1.47081e-05
8.17541e-07
2.98634e-05
-4.33848e-06
2.3337e-05
-1.08356e-05
1.4506e-05
-1.59686e-05
1.18462e-05
-1.86544e-05
1.14744e-05
-2.0626e-05
1.03077e-05
-2.25805e-05
8.54322e-06
-2.42259e-05
6.06576e-06
-2.51439e-05
3.20007e-06
-2.52213e-05
6.527e-07
-2.50009e-05
-7.98534e-07
-2.45809e-05
-1.54211e-06
-2.37922e-05
-2.12665e-06
-2.22899e-05
-2.69034e-06
-1.97167e-05
-3.16939e-06
-1.63649e-05
-3.42163e-06
-1.286e-05
-3.4553e-06
-9.54365e-06
-3.38282e-06
-6.76406e-06
-3.22044e-06
-5.36345e-06
-2.95302e-06
-6.18324e-06
-2.96948e-06
-8.46484e-06
-6.49981e-06
-1.69249e-05
-2.24571e-05
2.24747e-05
-5.03697e-05
2.79301e-05
-6.52792e-05
1.49309e-05
-5.69548e-05
3.33595e-06
-3.34469e-05
-4.93171e-06
-3.3418e-06
-2.3282e-05
4.40855e-05
-4.17059e-05
7.09968e-05
-1.14888e-05
7.27762e-05
4.10251e-06
7.37243e-05
-6.94885e-07
8.42991e-05
-1.0465e-05
8.91812e-05
-4.77222e-06
9.29523e-05
-3.66133e-06
0.000110534
-1.76593e-05
0.000126382
-2.1902e-05
0.000117528
5.26229e-07
9.07484e-05
2.65613e-05
3.17273e-05
5.90416e-05
3.17478e-05
-2.62938e-05
4.28832e-05
-1.72638e-05
9.49111e-06
-5.82531e-06
2.51258e-06
-2.70647e-06
-1.12987e-06
-1.73973e-07
-8.83081e-06
1.59518e-05
-2.07213e-05
2.92264e-05
-5.73186e-05
1.94393e-05
-8.0452e-06
2.02349e-05
2.21964e-07
3.19049e-05
1.63125e-06
7.34483e-05
9.83952e-06
4.37712e-05
2.50146e-05
1.33227e-05
-3.28906e-07
9.84492e-06
-1.63824e-05
1.56062e-05
-2.09933e-05
2.27848e-05
-4.8062e-06
5.2266e-05
-1.87802e-06
6.9089e-05
3.747e-05
0.000100857
-6.26923e-06
5.67247e-05
-2.19351e-06
4.49131e-06
-4.55346e-07
-1.10943e-07
1.70299e-06
-4.20527e-06
1.30013e-05
-2.38675e-05
2.5385e-05
-3.49526e-05
1.90788e-05
-3.98714e-05
1.3919e-05
-1.37064e-06
3.57963e-05
4.15384e-06
1.93603e-05
2.98482e-05
-4.46592e-06
4.76005e-06
-7.05993e-07
2.62391e-06
1.4383e-06
-4.27944e-06
8.17146e-06
-1.91574e-05
8.45613e-06
-1.13527e-05
1.06171e-05
-1.49068e-06
7.04724e-06
1.17225e-06
2.83104e-05
1.07736e-05
0.000122781
-8.90469e-07
6.48989e-05
6.41954e-07
2.07353e-06
1.85678e-06
-2.21112e-06
1.55269e-05
-2.0033e-05
3.09647e-05
-3.8403e-05
2.77874e-05
-3.05902e-05
1.61619e-06
-5.77445e-06
6.17035e-06
-2.99854e-08
8.12193e-06
6.65361e-06
-2.20692e-06
4.91394e-05
-4.9156e-06
1.93621e-06
-6.60041e-07
-4.55128e-06
2.6293e-06
-9.74612e-06
4.39359e-06
-1.65109e-05
1.45819e-06
-1.12322e-05
8.78017e-07
-1.19414e-06
9.79529e-07
6.77915e-07
6.77927e-06
4.53606e-06
0.000141903
1.81183e-06
3.7292e-05
9.84382e-07
1.09168e-06
1.32572e-05
-1.53693e-05
3.23833e-05
-3.74273e-05
2.71343e-05
-3.13892e-05
6.1834e-06
-8.25299e-06
5.81836e-07
-1.66299e-07
5.55306e-07
-5.99867e-10
2.13788e-06
8.1181e-07
-2.96737e-06
1.36911e-06
-3.87275e-06
1.91339e-06
2.17063e-06
-7.22267e-06
4.71927e-06
-8.92276e-06
1.01428e-06
-6.96904e-06
1.16004e-06
-6.81755e-06
1.04247e-06
-2.24938e-06
5.36332e-07
6.06667e-07
2.96296e-06
1.63044e-06
0.000168637
2.2125e-06
1.1432e-05
8.92919e-06
-7.40478e-06
3.18918e-05
-3.32583e-05
2.91096e-05
-2.9945e-05
8.16823e-06
-8.16681e-06
1.73502e-07
-2.57906e-07
1.27083e-08
-5.6039e-09
1.46697e-08
-6.69667e-11
1.23982e-07
4.29658e-08
-4.51702e-07
2.74812e-07
3.31815e-07
-8.41352e-08
1.81637e-06
-9.91631e-07
2.49005e-06
-3.14979e-06
1.37867e-06
-7.53269e-06
7.62721e-07
-3.36053e-06
8.95542e-07
-7.20556e-07
5.08778e-07
4.32676e-07
4.93992e-07
1.18148e-06
0.000181583
3.02976e-06
1.02182e-06
3.26073e-05
-3.02801e-05
2.91571e-05
-2.31319e-05
8.20453e-06
-6.73649e-06
2.58983e-07
-2.26059e-07
5.81318e-09
-5.01088e-09
2.90382e-10
-5.93236e-11
7.1649e-09
-1.64666e-11
4.35179e-08
9.44226e-09
6.52337e-08
2.68818e-07
9.84485e-07
6.05397e-07
8.06174e-08
-2.23237e-07
3.90925e-07
-3.58152e-06
1.78885e-06
-2.70889e-05
5.74103e-07
-1.33931e-05
-3.85725e-08
-7.74945e-07
1.31875e-07
3.03856e-07
4.8261e-08
4.34943e-07
0.000189753
3.74901e-05
-1.64376e-05
3.30532e-05
-1.4082e-05
6.9276e-06
-1.14342e-06
2.30338e-07
-3.89254e-08
4.98615e-09
-7.53505e-10
5.26828e-12
-2.05765e-11
-3.83841e-12
-2.36642e-11
1.21053e-11
-1.21149e-11
3.31173e-09
6.35949e-09
4.74118e-08
2.2612e-07
2.31105e-07
-6.51967e-09
2.46789e-07
-2.85404e-07
5.53145e-06
-2.17496e-05
1.07075e-05
-3.97613e-05
4.16384e-06
-3.46527e-05
3.25194e-07
-7.03622e-06
1.15375e-07
4.10407e-07
2.84025e-07
2.01599e-07
9.69453e-06
1.5992e-06
2.82642e-05
3.1023e-07
2.4626e-05
-4.32634e-06
1.91426e-05
-9.46473e-06
1.45771e-05
-1.42831e-05
1.30306e-05
-1.79378e-05
1.08199e-05
-2.01486e-05
7.71381e-06
-2.10867e-05
4.54438e-06
-1.96418e-05
1.44028e-06
-1.32912e-05
-9.02764e-07
-6.38491e-06
-1.5435e-07
-1.8878e-06
-7.65285e-09
4.13788e-07
-3.75273e-10
1.447e-06
-1.97141e-11
1.94952e-06
-4.12125e-12
2.00182e-06
-1.90381e-11
1.78983e-06
-1.98254e-11
1.47012e-06
-9.27122e-12
1.16866e-06
-7.22184e-13
1.06602e-06
-1.89795e-15
1.12302e-06
2.17164e-08
-1.0973e-06
4.68823e-08
-6.7504e-08
-1.27649e-05
-3.74374e-06
1.85181e-05
-8.70484e-06
1.81599e-05
-1.49629e-05
1.32517e-05
-1.71814e-05
7.26021e-06
-1.54694e-05
2.51048e-06
-1.04449e-05
8.05545e-08
-5.25205e-06
3.7761e-08
-1.41002e-06
-2.70181e-12
3.00504e-07
-7.14469e-13
1.6239e-07
-5.98705e-12
8.04506e-09
-5.15842e-12
3.95116e-10
-3.01801e-12
2.04465e-11
-5.45659e-13
1.13082e-12
-9.20998e-15
4.85353e-13
-2.35881e-12
1.20058e-12
-1.90396e-11
9.87256e-13
-1.98752e-11
4.46095e-13
-8.80054e-12
5.11045e-14
-3.68634e-13
1.51175e-14
-7.35248e-15
2.15315e-08
1.84916e-10
6.67896e-08
1.4352e-09
-9.75636e-10
1.94152e-10
-3.17281e-06
-1.32762e-07
-4.56581e-06
-1.15234e-09
-3.06457e-06
9.10395e-08
-8.40801e-07
4.81251e-08
-7.94447e-08
1.26207e-08
-3.78799e-08
4.33579e-09
-1.1356e-13
-1.18991e-10
-2.91838e-14
-3.12197e-12
2.63354e-14
-1.04303e-12
1.14233e-13
-6.16465e-12
1.53735e-13
-5.26035e-12
7.95488e-14
-2.87847e-12
3.85924e-14
-1.29633e-13
2.32987e-13
-4.31722e-15
2.98634e-11
-8.45778e-12
3.94014e-11
-1.26184e-11
3.83204e-11
-1.20341e-11
4.99719e-12
-8.92305e-12
8.21677e-13
-1.25313e-12
8.23805e-13
-3.01993e-14
1.8593e-10
-1.82506e-13
1.61067e-09
6.2078e-12
-9.74462e-13
5.93076e-10
-1.48602e-07
-9.21138e-10
-1.54564e-07
6.45592e-10
-6.51435e-08
1.45477e-09
-1.71367e-08
3.70194e-10
-4.21916e-09
4.69227e-11
1.08699e-10
-1.7732e-11
1.79916e-12
-1.26308e-11
-1.51966e-12
-6.84282e-14
2.76439e-12
-2.27196e-14
4.64181e-12
-1.57426e-15
5.47087e-12
-1.33321e-17
1.49257e-12
-1.6765e-17
2.65676e-13
-5.90309e-19
2.61358e-13
4.07649e-20
4.71745e-11
8.34697e-20
4.11269e-11
1.22558e-19
3.58292e-11
1.54146e-19
1.5485e-11
1.72394e-19
2.34825e-13
1.72225e-19
2.03799e-13
1.52021e-19
2.14632e-14
1.17292e-19
6.23172e-12
6.20903e-20
2.45563e-20
5.25726e-12
-2.29355e-09
9.30799e-11
-1.88565e-09
-4.03224e-13
-4.01935e-10
5.34514e-12
-1.9032e-11
-3.18697e-12
3.03734e-11
-2.23571e-12
1.2721e-11
-7.37741e-14
9.26966e-14
-2.24305e-15
2.43572e-14
-7.69398e-17
1.64092e-15
-2.91528e-18
6.68113e-17
-1.27527e-19
1.7515e-17
5.4329e-21
7.06434e-19
4.36366e-20
2.53695e-20
9.07552e-20
-9.86797e-20
1.37142e-19
-2.27541e-19
1.78336e-19
-3.6322e-19
2.11448e-19
-4.92746e-19
2.32653e-19
-6.05581e-19
2.38717e-19
-6.95207e-19
2.29154e-19
-7.58345e-19
2.06895e-19
-7.90994e-19
1.76461e-19
-4.63141e-19
1.47179e-19
1.11945e-19
-2.34239e-19
-2.94878e-12
1.33597e-11
-3.14918e-12
-6.71901e-12
5.43176e-12
-1.88621e-12
2.32063e-12
-1.15847e-13
7.58861e-14
-7.17376e-15
2.31775e-15
-1.92995e-16
7.99291e-17
-4.52139e-18
3.05501e-18
-4.03662e-20
1.41903e-19
-1.28022e-21
4.90107e-21
9.47541e-21
-6.72375e-21
3.10285e-20
-6.57876e-20
6.01258e-20
-1.66843e-19
8.98424e-20
-2.97169e-19
1.15366e-19
-4.35951e-19
1.34592e-19
-5.61821e-19
1.46549e-19
-6.59929e-19
1.50289e-19
-7.23195e-19
1.45396e-19
-7.49687e-19
1.32679e-19
-7.38563e-19
1.13818e-19
-6.87798e-19
9.067e-20
-5.88077e-19
6.36616e-20
2.7154e-20
-4.39778e-19
8.7564e-12
6.15212e-13
1.90188e-12
-2.75988e-13
1.21527e-13
-6.41066e-14
7.60103e-15
-1.33109e-15
1.98093e-16
-1.68011e-17
4.56816e-18
-2.03018e-19
4.31719e-20
-6.10553e-21
3.27468e-21
-2.40147e-22
2.40625e-22
1.75383e-21
-9.78379e-21
5.33651e-21
-3.60125e-20
1.00074e-20
-8.20557e-20
1.48785e-20
-1.45666e-19
1.91075e-20
-2.17482e-19
2.22564e-20
-2.84508e-19
2.41636e-20
-3.35418e-19
2.47215e-20
-3.63893e-19
2.38224e-20
-3.68657e-19
2.14083e-20
-3.51474e-19
1.76001e-20
-3.14282e-19
1.21162e-20
-2.58412e-19
4.11339e-21
-1.8162e-19
-5.27923e-21
-3.39279e-20
-7.4749e-20
3.56798e-13
1.59231e-14
6.45469e-14
9.24621e-16
1.3344e-15
-4.47241e-16
1.71386e-17
-3.02682e-18
2.18848e-19
-6.30486e-20
6.9758e-21
-1.42323e-21
4.47893e-22
-3.41907e-23
8.90983e-23
1.07445e-22
-1.48924e-21
4.08919e-22
-4.94623e-21
8.75726e-22
-1.05178e-20
1.45184e-21
-1.82263e-20
2.01745e-21
-2.73532e-20
2.46207e-21
-3.64306e-20
2.72784e-21
-4.37733e-20
2.78949e-21
-4.80881e-20
2.63169e-21
-4.87277e-20
2.24593e-21
-4.55086e-20
1.5093e-21
-3.86244e-20
3.5115e-22
-2.72692e-20
-1.36075e-21
-9.39175e-21
-7.05162e-21
2.70779e-20
-2.15848e-20
-6.16779e-20
1.19666e-19
-6.67205e-16
1.95084e-15
4.40699e-16
3.52664e-16
2.99311e-18
1.45314e-18
6.25252e-20
-2.9934e-20
1.47468e-21
-6.78643e-22
5.17338e-23
-1.39884e-23
1.79047e-23
-3.5652e-25
-7.26212e-23
1.46236e-23
-3.01421e-22
4.43008e-23
-7.22893e-22
8.80392e-23
-1.37456e-21
1.369e-22
-2.21593e-21
1.77914e-22
-3.11378e-21
2.00927e-22
-3.88212e-21
2.00931e-22
-4.34362e-21
1.72644e-22
-4.37501e-21
1.01479e-22
-3.91662e-21
5.50128e-24
-2.72961e-21
-2.31655e-22
-6.53357e-22
-1.03409e-21
4.95356e-21
-3.35891e-21
2.12407e-20
-9.96853e-21
6.71996e-20
-2.85812e-20
-7.85615e-20
1.80865e-19
-2.30755e-16
9.16403e-16
-2.2042e-18
1.2783e-16
1.89123e-20
3.05585e-19
6.70006e-22
-1.76967e-21
1.33734e-23
-3.07152e-23
4.76715e-25
-6.20025e-25
1.37798e-25
-1.76124e-26
-8.37276e-24
9.7363e-25
-2.84606e-23
2.94942e-24
-6.47766e-23
5.42694e-24
-1.16729e-22
7.53844e-24
-1.75347e-22
8.41587e-24
-2.25199e-22
7.05694e-24
-2.50132e-22
2.7759e-24
-2.33127e-22
-3.27375e-24
-1.45777e-22
-2.6312e-23
-8.28762e-24
-9.657e-23
6.34646e-22
-3.15054e-22
2.58744e-21
-1.08634e-21
8.27496e-21
-3.49654e-21
2.44225e-20
-1.06035e-20
6.93442e-20
-3.07559e-20
-8.47834e-20
1.87423e-19
-2.18797e-17
1.13135e-15
-1.34675e-19
9.11035e-17
8.31335e-22
3.21218e-20
1.16304e-23
-1.05097e-21
2.36911e-25
-1.89656e-23
1.47797e-26
-3.75057e-25
7.18397e-27
-1.00417e-26
-4.79683e-25
2.92242e-26
-1.6725e-24
9.27877e-26
-3.59311e-24
1.30944e-25
-5.82166e-24
9.10111e-26
-7.471e-24
1.16151e-27
-7.04664e-24
-3.63827e-25
-3.04846e-24
-1.73014e-24
9.38369e-24
-5.8858e-24
5.43768e-23
-2.00028e-23
1.95522e-22
-6.10348e-23
6.53186e-22
-2.14272e-22
2.07473e-21
-7.78065e-22
6.83785e-21
-2.71348e-21
2.16512e-20
-8.70907e-21
6.52243e-20
-2.78083e-20
-8.25844e-20
1.80722e-19
-4.04839e-18
8.45634e-16
-3.86516e-21
5.65095e-17
4.13796e-22
-1.93685e-20
5.512e-24
-1.00305e-21
1.64277e-25
-1.7528e-23
6.22496e-27
-3.02621e-25
3.87151e-27
-7.81877e-27
-1.27153e-26
-3.45001e-28
-4.74788e-26
-5.73345e-28
-7.91975e-26
-2.63731e-27
-6.41847e-26
-1.37411e-26
-9.33794e-28
-5.37291e-26
5.7814e-25
-1.91854e-25
2.67677e-24
-6.19622e-25
9.076e-24
-2.22191e-24
2.33891e-23
-8.28708e-24
8.00142e-23
-3.25637e-23
3.11032e-22
-1.29781e-22
1.20164e-21
-4.85475e-22
4.33274e-21
-1.68528e-21
1.45183e-20
-5.81798e-21
4.95744e-20
-2.22722e-20
-7.38578e-20
1.51902e-19
8.30337e-18
5.59383e-16
2.09635e-19
3.00181e-17
3.74054e-22
-2.67996e-20
5.39411e-24
-7.8511e-22
1.27289e-25
-1.33219e-23
4.67953e-27
-2.03329e-25
1.34263e-28
-3.2619e-27
1.16079e-28
-9.22387e-29
4.0015e-28
-1.10659e-28
2.46347e-27
-3.6269e-28
1.45308e-26
-1.87393e-27
5.7733e-26
-1.00949e-26
1.44126e-25
-5.20896e-26
5.43887e-25
-2.31871e-25
2.19445e-24
-9.38604e-25
9.26525e-24
-3.83788e-24
4.03052e-23
-1.61025e-23
1.7001e-22
-6.56753e-23
6.48774e-22
-2.43059e-22
2.34877e-21
-9.19484e-22
9.02084e-21
-4.00873e-21
3.76893e-20
-1.88559e-20
-6.77149e-20
1.28593e-19
1.0963e-17
3.18966e-16
1.49377e-19
1.15368e-17
4.48093e-22
-1.30275e-20
7.62717e-24
-3.53875e-22
1.21586e-25
-5.83473e-24
2.13137e-27
-8.29836e-26
3.03478e-29
-1.10031e-27
1.805e-29
-2.08362e-29
3.43768e-29
-1.44616e-29
1.79421e-28
-8.3834e-29
1.13852e-27
-5.42617e-28
7.00041e-27
-3.20604e-27
4.09826e-26
-1.741e-26
2.00812e-25
-8.03372e-26
8.85199e-25
-3.52055e-25
3.92043e-24
-1.56675e-24
1.74135e-23
-6.77744e-24
7.35368e-23
-2.80886e-23
2.85087e-22
-1.1047e-22
1.20539e-21
-5.1631e-22
6.02168e-21
-2.87939e-21
2.98703e-20
-1.52027e-20
-5.6749e-20
1.09309e-19
5.50072e-18
1.25084e-16
4.37718e-20
2.53164e-18
2.75975e-22
-3.34302e-21
4.55147e-24
-8.88931e-23
6.53668e-26
-1.41628e-24
8.87304e-28
-1.92149e-26
2.36904e-29
-2.45792e-28
2.48063e-30
-4.08158e-30
4.53348e-30
-3.15778e-30
4.43696e-29
-1.93137e-29
3.31055e-28
-1.31394e-28
2.16946e-27
-8.52218e-28
1.27105e-26
-5.10352e-27
6.27933e-26
-2.55287e-26
2.99861e-25
-1.24651e-25
1.4316e-24
-5.79708e-25
6.4893e-24
-2.48477e-24
2.8285e-23
-1.08798e-23
1.2162e-22
-4.98085e-23
6.52297e-22
-2.91394e-22
4.05688e-21
-1.91468e-21
2.18749e-20
-1.09663e-20
-4.49709e-20
8.37339e-20
1.5967e-18
2.60056e-17
6.49392e-21
2.91459e-19
7.78704e-23
-5.63248e-22
1.23743e-24
-1.42546e-23
1.68369e-26
-2.20772e-25
2.18081e-28
-2.91611e-27
4.92388e-30
-3.71249e-29
4.75689e-31
-6.0533e-31
1.02398e-30
-5.61629e-31
9.64702e-30
-3.9847e-30
7.40774e-29
-3.03453e-29
5.30988e-28
-2.17328e-28
3.4424e-27
-1.41002e-27
1.85727e-26
-7.64896e-27
9.83839e-26
-4.14199e-26
4.79247e-25
-1.91482e-25
2.15686e-24
-8.29283e-25
1.02357e-23
-4.11956e-24
5.24577e-23
-2.25465e-23
3.48263e-22
-1.54328e-22
2.53024e-21
-1.23856e-21
1.51468e-20
-8.50344e-21
-4.11605e-20
6.4723e-20
2.9645e-19
2.59869e-18
6.76862e-22
2.14668e-20
1.30356e-23
-7.65042e-23
2.00963e-25
-1.80258e-24
2.65854e-27
-2.753e-26
3.41964e-29
-3.60989e-28
7.50391e-31
-4.67408e-30
7.60483e-32
-7.81047e-32
1.79494e-31
-9.97566e-32
1.92185e-30
-7.97094e-31
1.63582e-29
-6.66201e-30
1.28242e-28
-5.21271e-29
8.93882e-28
-3.65136e-28
5.2262e-27
-2.17281e-27
3.02714e-26
-1.2868e-26
1.44439e-25
-5.75358e-26
6.72823e-25
-2.70411e-25
3.69135e-24
-1.53808e-24
2.25498e-23
-9.68929e-24
1.78311e-22
-8.17308e-23
1.64584e-21
-9.54207e-22
1.17056e-20
-7.49633e-21
-3.98081e-20
5.50416e-20
3.7543e-20
1.64886e-19
8.16317e-23
1.34923e-21
1.68051e-24
-8.98625e-24
2.55335e-26
-2.0355e-25
3.35073e-28
-3.11602e-27
4.37506e-30
-4.12388e-29
9.73477e-32
-5.5066e-31
1.24166e-32
-9.5606e-33
3.18692e-32
-1.69837e-32
3.72702e-31
-1.53094e-31
3.43661e-30
-1.40263e-30
2.91953e-29
-1.19096e-29
2.19024e-28
-8.98558e-29
1.40298e-27
-5.87661e-28
8.72872e-27
-3.71733e-27
4.03398e-26
-1.62828e-26
2.094e-25
-8.87733e-26
1.30051e-24
-5.33517e-25
9.23099e-24
-3.92391e-24
1.01234e-22
-5.63691e-23
1.25857e-21
-8.25096e-22
9.63362e-21
-6.09558e-21
-2.45862e-20
3.75011e-20
3.76438e-21
9.67635e-21
9.94939e-24
7.56419e-23
1.9288e-25
-9.23683e-25
2.93716e-27
-2.06322e-26
3.89139e-29
-3.20085e-28
5.21496e-31
-4.32297e-30
1.12121e-32
-5.99856e-32
1.9489e-33
-1.10214e-33
5.40821e-33
-2.83663e-33
6.94988e-32
-2.86206e-32
6.95216e-31
-2.84402e-31
6.36449e-30
-2.60067e-30
5.12959e-29
-2.11435e-29
3.59392e-28
-1.5098e-28
2.35168e-27
-1.00184e-27
1.07849e-26
-4.46853e-27
6.55355e-26
-2.84325e-26
4.19975e-25
-1.63669e-25
3.74324e-24
-1.76363e-24
7.8921e-23
-5.84508e-23
9.76655e-22
-5.98832e-22
5.64405e-21
1.52136e-22
9.61991e-21
1.07077e-20
3.2932e-22
5.47731e-22
1.07378e-24
3.10832e-24
1.99836e-26
-7.80914e-26
3.08703e-28
-1.73316e-27
4.17736e-30
-2.7297e-29
5.75245e-32
-3.77888e-31
9.42564e-34
-5.46724e-33
2.18592e-34
-1.19993e-34
9.87354e-34
-4.66154e-34
1.26202e-32
-5.19962e-33
1.35607e-31
-5.55561e-32
1.3293e-30
-5.44317e-31
1.15159e-29
-4.76985e-30
8.75088e-29
-3.67644e-29
5.96025e-28
-2.54318e-28
2.82299e-27
-1.20305e-27
1.97093e-26
-8.51938e-27
1.1927e-25
-4.34264e-26
1.82978e-24
-1.258e-24
7.65334e-23
-7.52999e-23
2.88738e-22
1.3902e-22
-1.14473e-22
4.04405e-21
2.37951e-20
-7.43487e-21
2.47265e-23
2.71135e-23
9.48409e-26
4.81606e-26
1.71883e-27
-5.09721e-27
2.69995e-29
-1.11467e-28
3.74903e-31
-1.76982e-30
5.31468e-33
-2.50746e-32
3.52972e-35
-3.78817e-34
2.283e-35
-1.22402e-35
1.70553e-34
-7.52747e-35
2.22386e-33
-9.16309e-34
2.54885e-32
-1.04447e-32
2.66452e-31
-1.09226e-31
2.48045e-30
-1.02996e-30
2.02146e-29
-8.49554e-30
1.43424e-28
-6.09556e-29
7.32113e-28
-3.28022e-28
5.43449e-27
-2.47277e-27
2.74229e-26
-7.10032e-27
6.36925e-25
-6.28224e-25
5.04403e-23
-6.38871e-23
-9.65004e-23
6.62817e-22
-2.902e-21
7.19589e-21
3.15754e-20
-1.75992e-20
1.53906e-24
1.10439e-24
6.4367e-27
-3.71657e-27
1.122e-28
-2.76143e-28
1.77969e-30
-5.83861e-30
2.53208e-32
-9.22126e-32
3.74407e-34
-1.32819e-33
3.11884e-36
-2.08032e-35
2.30024e-36
-1.27699e-36
2.8048e-35
-1.18777e-35
3.79305e-34
-1.55858e-34
4.60723e-33
-1.88471e-33
5.12046e-32
-2.09733e-32
5.11241e-31
-2.12161e-31
4.43534e-30
-1.86883e-30
3.28722e-29
-1.36651e-29
1.98583e-28
-1.09292e-28
8.69671e-28
-4.72357e-28
9.50039e-28
5.88533e-27
4.48518e-25
6.74951e-26
4.10918e-23
-2.03355e-23
-4.38736e-22
1.10002e-21
-4.94018e-21
8.6519e-21
3.21084e-20
-2.24378e-20
7.90707e-26
3.54932e-26
3.61822e-28
-3.72617e-28
5.94221e-30
-1.21374e-29
9.39049e-32
-2.4243e-31
1.36189e-33
-3.74819e-33
2.29719e-35
-5.43469e-35
2.72022e-37
-8.48232e-37
2.35392e-37
-1.42871e-37
4.39907e-36
-1.81229e-36
6.22503e-35
-2.54366e-35
7.97935e-34
-3.25186e-34
9.40463e-33
-3.84028e-33
1.00433e-31
-4.15559e-32
9.25866e-31
-3.91274e-31
7.14387e-30
-2.87039e-30
5.55053e-29
-5.08475e-29
7.99444e-29
3.071e-28
-3.2847e-27
1.23653e-26
-3.9313e-26
3.8239e-25
1.01547e-24
2.70635e-23
-6.95079e-22
1.28791e-21
-5.68844e-21
8.43028e-21
2.7453e-20
-2.19484e-20
3.25605e-27
8.45456e-28
1.65733e-29
-1.7791e-29
2.49885e-31
-3.95011e-31
3.87071e-33
-7.27113e-33
5.64592e-35
-1.08373e-34
9.21695e-37
-1.56378e-36
1.90757e-38
-2.40745e-38
3.28236e-38
-1.71565e-38
6.55422e-37
-2.64494e-37
9.76438e-36
-3.95716e-36
1.31772e-34
-5.33952e-35
1.64341e-33
-6.67715e-34
1.87305e-32
-7.7155e-33
1.83612e-31
-7.75379e-32
1.45254e-30
-5.80247e-31
1.71375e-29
-1.74654e-29
-1.55759e-28
6.06676e-28
-6.55692e-27
1.7166e-26
-2.1178e-25
7.88178e-25
-1.56404e-23
3.94116e-23
-7.76334e-22
1.22671e-21
-5.30111e-21
7.0818e-21
2.05105e-20
-1.80123e-20
1.02768e-28
1.32846e-29
5.73288e-31
-4.96694e-31
7.57559e-33
-8.75213e-33
1.13243e-34
-1.42869e-34
1.64232e-36
-2.01934e-36
2.62506e-38
-2.85194e-38
1.56358e-39
-4.67559e-40
4.28033e-39
-2.05912e-39
9.22376e-38
-3.6615e-38
1.45295e-36
-5.82796e-37
2.06295e-35
-8.298e-36
2.71815e-34
-1.09739e-34
3.30208e-33
-1.35254e-33
3.44241e-32
-1.44151e-32
2.81656e-31
-1.18827e-31
5.03445e-30
-3.43208e-30
-2.91933e-28
7.67047e-28
-8.63852e-27
1.95822e-26
-4.14541e-25
1.11434e-24
-2.16534e-23
4.26591e-23
-7.04003e-22
1.01497e-21
-4.2469e-21
5.27867e-21
1.36319e-20
-1.28611e-20
2.25e-30
1.07326e-31
1.41464e-32
-7.08187e-33
1.48755e-34
-1.18051e-34
2.10571e-36
-1.57315e-36
2.96329e-38
-2.08156e-38
3.03602e-40
-2.83737e-40
7.05959e-41
-1.4856e-41
6.01423e-40
-2.46613e-40
1.21998e-38
-4.76114e-39
2.03501e-37
-8.06749e-38
3.04192e-36
-1.213e-36
4.23161e-35
-1.69589e-35
5.47427e-34
-2.22728e-34
6.06642e-33
-2.48972e-33
5.64579e-32
-3.15743e-32
8.01242e-31
2.15406e-31
-3.49431e-28
7.80288e-28
-9.33201e-27
1.94266e-26
-5.55337e-25
1.24488e-24
-2.22292e-23
3.88761e-23
-5.53072e-22
7.48308e-22
-3.00954e-21
3.53618e-21
8.12975e-21
-8.13722e-21
2.79763e-32
1.86161e-34
2.46618e-34
-2.42727e-35
1.61225e-36
-4.36038e-37
2.13274e-38
-4.53854e-39
2.88539e-40
-5.57613e-41
2.03699e-42
-7.32555e-43
3.02563e-42
-1.22167e-42
7.38848e-41
-2.79481e-41
1.5014e-39
-5.77046e-40
2.66145e-38
-1.04167e-38
4.19498e-37
-1.65633e-37
6.16263e-36
-2.44907e-36
8.48138e-35
-3.42348e-35
1.00144e-33
-4.01679e-34
7.86815e-33
-8.38733e-33
-8.84747e-32
7.25164e-31
-3.35439e-28
6.81837e-28
-8.739e-27
1.7144e-26
-5.85926e-25
1.16511e-24
-1.91496e-23
3.09699e-23
-3.85876e-22
4.97125e-22
-1.91058e-21
2.13685e-21
4.37951e-21
-4.60652e-21
9.92023e-35
-4.36228e-47
2.02296e-36
-4.33483e-47
4.63206e-39
-5.52182e-49
5.65064e-41
-1.54344e-48
7.45564e-43
-9.72033e-47
8.39495e-44
-3.22941e-45
2.50989e-43
-1.15389e-43
7.92028e-42
-2.92813e-42
1.70754e-40
-6.46364e-41
3.22305e-39
-1.24414e-39
5.36858e-38
-2.09595e-38
8.33595e-37
-3.28066e-37
1.21986e-35
-4.86996e-36
1.5352e-34
-6.4264e-35
1.85869e-33
-1.17631e-33
-2.79836e-31
9.18954e-31
-2.75389e-28
5.25163e-28
-7.24727e-27
1.35911e-26
-5.15539e-25
9.40571e-25
-1.43521e-23
2.18705e-23
-2.41427e-22
2.98836e-22
-1.08896e-21
1.16127e-21
2.1598e-21
-2.34557e-21
3.64797e-47
-8.17302e-49
5.92839e-49
-3.33899e-49
5.69884e-50
-5.04772e-51
3.65253e-49
-1.34721e-49
2.76538e-47
-8.36708e-48
9.59405e-46
-3.20415e-46
2.91103e-44
-1.0302e-44
7.71152e-43
-2.80393e-43
1.77906e-41
-6.62837e-42
3.58182e-40
-1.36175e-40
6.32067e-39
-2.43555e-39
1.03867e-37
-4.04144e-38
1.61806e-36
-6.3461e-37
2.31918e-35
-1.27619e-35
1.90483e-34
2.26262e-34
-3.3129e-31
8.61598e-31
-1.98131e-28
3.60609e-28
-5.36647e-27
9.71671e-27
-3.88779e-25
6.64755e-25
-9.47043e-24
1.37637e-23
-1.35682e-22
1.62614e-22
-5.53729e-22
5.61605e-22
1.0106e-21
-1.08378e-21
2.43917e-49
-8.66771e-51
3.87153e-51
-2.38437e-51
4.58778e-52
-1.12062e-52
2.62682e-50
-9.49974e-51
1.75877e-48
-5.81234e-49
7.0855e-47
-2.38618e-47
2.38439e-45
-8.30552e-46
6.79042e-44
-2.42769e-44
1.68138e-42
-6.15606e-43
3.61665e-41
-1.35134e-41
6.77867e-40
-2.57128e-40
1.1809e-38
-4.53212e-39
1.96574e-37
-7.57036e-38
2.33198e-36
-2.10482e-36
-7.2324e-35
4.34585e-34
-2.8815e-31
6.67149e-31
-1.26157e-28
2.21738e-28
-3.55595e-27
6.26648e-27
-2.54539e-25
4.14229e-25
-5.51784e-24
7.72794e-24
-6.83121e-23
7.99403e-23
-2.47584e-22
2.3598e-22
4.86591e-22
-4.68426e-22
1.49259e-51
-7.55291e-53
2.76325e-53
-1.56702e-53
8.935e-54
-4.6061e-54
1.66285e-51
-5.70302e-52
1.09522e-49
-3.54845e-50
4.75415e-48
-1.57693e-48
1.74189e-46
-5.95844e-47
5.35159e-45
-1.87596e-45
1.42526e-43
-5.1121e-44
3.28054e-42
-1.20046e-42
6.54672e-41
-2.43518e-41
1.212e-39
-4.56894e-40
2.16141e-38
-8.60719e-39
3.33914e-37
-1.59168e-37
-1.27869e-34
4.43398e-34
-2.05246e-31
4.41652e-31
-7.1298e-29
1.22106e-28
-2.10542e-27
3.63649e-27
-1.45417e-25
2.28018e-25
-2.83536e-24
3.86461e-24
-3.06645e-23
3.53569e-23
-9.47232e-23
8.1391e-23
2.69709e-22
-2.04573e-22
8.70846e-54
-5.82324e-55
3.74664e-55
-9.92754e-56
3.164e-55
-1.78069e-55
8.72058e-53
-2.87044e-53
5.89696e-51
-1.87255e-51
2.79653e-49
-9.08733e-50
1.1202e-47
-3.74319e-48
3.72473e-46
-1.27327e-46
1.06922e-44
-3.73623e-45
2.63744e-43
-9.39866e-44
5.61715e-42
-2.03723e-42
1.10951e-40
-4.07731e-41
2.19585e-39
-1.12202e-39
1.37613e-38
7.26773e-38
-1.18955e-34
3.41617e-34
-1.23763e-31
2.53054e-31
-3.57131e-29
6.00157e-29
-1.10932e-27
1.88934e-27
-7.25072e-26
1.10668e-25
-1.28041e-24
1.71387e-24
-1.21991e-23
1.39802e-23
-2.92375e-23
1.92738e-23
1.76957e-22
-1.0081e-22
4.81127e-56
-3.97959e-57
5.49598e-57
-6.15879e-58
1.52621e-56
-7.2902e-57
3.78899e-54
-1.19341e-54
2.71369e-52
-8.37802e-53
1.41865e-50
-4.47219e-51
6.23873e-49
-2.01779e-49
2.25186e-47
-7.43609e-48
6.98203e-46
-2.35497e-46
1.84856e-44
-6.35726e-45
4.21173e-43
-1.47661e-43
8.93541e-42
-3.17979e-42
1.41346e-40
-1.08749e-40
-1.68357e-38
9.44259e-38
-8.26585e-35
2.13628e-34
-6.38673e-32
1.25749e-31
-1.5779e-29
2.61556e-29
-5.16789e-28
8.72114e-28
-3.14517e-26
4.71107e-26
-5.05343e-25
6.69279e-25
-4.26967e-24
4.8971e-24
-6.08643e-24
7.74673e-26
1.22955e-22
-5.7647e-23
2.44915e-58
-2.31895e-59
2.73519e-59
-3.53257e-60
6.86769e-58
-2.50021e-58
1.34435e-55
-4.00522e-56
1.04704e-53
-3.08985e-54
6.07567e-52
-1.82794e-52
2.94603e-50
-9.07998e-51
1.15722e-48
-3.634e-49
3.88414e-47
-1.24567e-47
1.10574e-45
-3.61763e-46
2.70322e-44
-9.04126e-45
6.18943e-43
-2.19051e-43
1.16256e-41
-3.59032e-42
-1.95039e-38
7.37402e-38
-4.6036e-35
1.10833e-34
-2.82173e-32
5.39512e-32
-6.09974e-30
1.00068e-29
-2.1095e-28
3.53831e-28
-1.17932e-26
1.74341e-26
-1.72948e-25
2.278e-25
-1.30249e-24
1.50121e-24
-2.1134e-26
-2.79473e-24
7.90221e-23
-3.42683e-23
1.08858e-60
-1.06794e-61
1.25524e-61
-2.02477e-62
2.02418e-59
-6.45192e-60
3.80671e-57
-1.04278e-57
3.2901e-55
-9.00004e-56
2.13333e-53
-5.9603e-54
1.14558e-51
-3.27697e-52
4.90683e-50
-1.42786e-50
1.78761e-48
-5.3186e-49
5.48503e-47
-1.66838e-47
1.44594e-45
-4.51777e-46
2.95979e-44
-1.49938e-44
7.35875e-44
3.22149e-42
-1.33827e-38
4.25194e-38
-2.09574e-35
4.78151e-35
-1.06025e-32
1.97779e-32
-2.03852e-30
3.31403e-30
-7.45113e-29
1.24338e-28
-3.78332e-27
5.53528e-27
-5.0756e-26
6.66367e-26
-3.41983e-25
3.96337e-25
6.47593e-25
-1.40409e-24
4.2708e-23
-1.85174e-23
3.88177e-63
-3.3986e-64
5.75391e-64
-1.46059e-64
4.31827e-61
-1.15708e-61
8.25036e-59
-1.95949e-59
8.04631e-57
-1.93017e-57
5.88184e-55
-1.45386e-55
3.51321e-53
-8.89984e-54
1.64405e-51
-4.23879e-52
6.52442e-50
-1.72596e-50
2.16596e-48
-5.89119e-49
6.21686e-47
-1.76503e-47
1.16456e-45
-5.94909e-46
-4.83259e-43
2.94813e-42
-6.65706e-39
1.8953e-38
-7.78904e-36
1.6976e-35
-3.3418e-33
6.091e-33
-5.78944e-31
9.31807e-31
-2.23785e-29
3.70942e-29
-1.0223e-27
1.48002e-27
-1.257e-26
1.64373e-26
-7.59445e-26
8.82643e-26
2.71934e-25
-1.01398e-25
1.79839e-23
-8.2676e-24
9.63905e-66
-5.03587e-67
3.29878e-66
-1.13657e-66
6.28545e-63
-1.24119e-63
1.2671e-60
-2.2941e-61
1.42039e-58
-2.67207e-59
1.18761e-56
-2.35556e-57
7.92836e-55
-1.61964e-55
4.06703e-53
-8.50911e-54
1.76784e-51
-3.82785e-52
6.39643e-50
-1.44559e-50
2.0303e-48
-5.54514e-49
3.48893e-47
5.50618e-47
-3.7274e-43
1.57323e-42
-2.49885e-39
6.5207e-39
-2.32563e-36
4.85199e-36
-8.6391e-34
1.53584e-33