/*--------------------------------*- C++ -*----------------------------------*\
| =========                 |                                                 |
| \\      /  F ield         | OpenFOAM: The Open Source CFD Toolbox           |
|  \\    /   O peration     | Version:  2206                                  |
|   \\  /    A nd           | Website:  www.openfoam.com                      |
|    \\/     M anipulation  |                                                 |
\*---------------------------------------------------------------------------*/
FoamFile
{
    version     2.0;
    format      ascii;
    arch        "LSB;label=32;scalar=64";
    class       volScalarField;
    location    "0.65";
    object      alpha.water;
}
// * * * * * * * * * * * * * * * * * * * * * * * * * * * * * * * * * * * * * //

dimensions      [0 0 0 0 0 0 0];

internalField   nonuniform List<scalar> 
2268
(
1
1
1
1
1
1
1
1
1
1
1
1
1
1
1
1
1
1
1
0.999997
0.999998
0.999998
0.920563
1
1
1
1
1
1
1
1
1
1
1
1
1
1
1
1
1
1
1
0.99999
0.999999
0.998737
0.892918
1
1
1
1
1
1
1
1
1
1
1
1
1
1
1
1
1
1
1
1
1
0.971717
0.892969
1
1
1
1
1
1
1
1
1
1
1
1
1
1
1
1
1
1
1
1
1
0.996785
0.977718
1
1
1
1
1
1
1
1
1
1
1
1
1
1
1
1
1
1
1
1
1
1
1
1
1
1
1
1
1
1
1
1
1
1
1
1
1
1
1
1
1
1
1
1
1
0.999995
1
1
1
1
1
1
1
1
1
1
1
1
1
1
1
1
0.999999
0.999999
0.999998
0.999998
0.999997
0.999996
0.999993
1
1
0.999943
0.99629
1
1
1
1
1
1
0.999467
0.993329
0.977573
0.953546
0.924013
0.891166
0.860202
0.835346
0.818027
0.810914
0.815888
0.855428
0.91908
0.418225
0.418225
0.418061
0.241982
0.212792
0.281565
0.284069
0.302788
0.436012
0.462155
0.462395
0.462395
0.462395
0.462185
0.444806
0.344712
0.388045
0.388232
0.388232
0.399742
0.106828
0.0316016
0.0178306
0.0183465
0.0676565
0.133212
0.0627807
0.0608631
0.0616254
0.414517
0.462395
0.311598
0.10425
0.0569381
0.0318326
0.0361879
0.277955
0.388232
0.314907
0.010997
0.0109131
0.0111497
0.0380667
0.0455986
0.10776
0.0210711
0.0596457
0.205512
0.225289
0.0897064
0.0190195
0.0240332
0.0299071
0.0284045
0.00209219
0.0352475
0.359289
0.313924
0.0109131
0.0109131
0.0189326
0.136445
0.1336
0.0597674
0.000698756
0.0526145
0.202996
0.013624
0.0181441
0.0195397
0.0249324
0.0109257
0.00174336
0.00141732
0.00159796
0.313823
0.298343
0.0169094
0.0109131
0.142969
0.140921
0.0837081
0.000108024
1.19048e-05
0.0214741
0.0925801
0.00760082
0.0266448
0.0266448
0.0247877
0.0212336
0.00580248
0.00111397
0.00115065
0.309963
0.0452489
0.0168965
0.15922
0.157609
0.0897127
9.25503e-05
2.48547e-06
6.40854e-06
0.000281765
0.00139573
0.00778176
0.0100618
0.0201931
0.00973634
0.00850871
0.00963947
0.000951985
0.00104955
0.31375
0.0195632
0.184017
0.183863
0.100624
7.48219e-05
1.3065e-06
8.63044e-08
4.50631e-06
3.39638e-06
0.000134167
0.00893584
0.000580706
0.000683538
0.0153136
0.00860936
0.00104255
0.000386417
0.000403241
0.313386
0.352663
0.351937
0.0835435
1.09081e-05
2.13594e-07
3.031e-08
7.95188e-08
8.81841e-08
1.59268e-07
1.37992e-05
0.00067051
0.000501975
0.010812
0.0694364
0.0623402
0.009419
0.000179093
0.000121283
0.128439
1
1
1
0.978155
0.982444
0.97972
0.936425
0.881514
0.817276
0.704881
0.524268
0.378112
0.272872
0.197543
0.138155
0.0931595
0.0618585
0.0411493
0.0272029
0.0208841
0.0259863
0.108945
0.290496
0.907216
0.922351
0.853805
0.725319
0.559576
0.39189
0.242709
0.130901
0.0526358
0.00305386
4.1906e-09
1.71936e-09
5.66722e-10
2.8537e-10
4.15876e-09
7.9635e-09
4.45807e-09
6.36843e-10
2.98299e-10
2.98299e-10
2.9569e-10
1.65809e-05
3.96742e-06
0.244813
0.261628
0.192811
0.0865137
0.0201373
0.000140755
5.3872e-09
3.75713e-09
5.31328e-09
4.04896e-09
2.64676e-09
5.66722e-10
2.8537e-10
1.19733e-10
1.17349e-07
7.32262e-07
7.61461e-07
4.89061e-07
1.28217e-08
1.49141e-10
-3.14163e-11
4.13577e-08
1.24535e-06
0.000315263
0.000186158
7.70017e-05
1.65307e-05
2.76521e-06
2.81407e-07
9.08529e-09
1.02649e-09
8.6486e-09
9.86055e-08
1.08158e-07
8.63334e-08
2.1386e-09
-2.3617e-29
5.5302e-07
7.59062e-07
7.63995e-07
7.1908e-07
1.01275e-07
-2.0623e-11
-4.22003e-13
-1.30909e-11
-4.09786e-18
2.31868e-05
9.99618e-06
2.01187e-06
1.32807e-07
1.54186e-09
3.51013e-11
1.25352e-12
4.51152e-14
1.69485e-15
5.93011e-17
3.90247e-13
1.12194e-30
-7.0121e-32
-2.11256e-15
-4.76103e-15
-7.39364e-15
-9.68492e-15
-1.13666e-14
-1.2267e-14
-1.23085e-14
-1.1509e-14
-6.01952e-15
-2.65656e-15
1.50552e-06
4.90245e-07
4.46322e-08
3.74316e-10
-1.50142e-10
-2.27089e-13
3.59827e-15
1.14575e-16
3.09007e-18
0
-1.64399e-16
-1.59135e-15
-3.9386e-15
-6.79003e-15
-9.58111e-15
-1.18063e-14
-1.31682e-14
-1.35894e-14
-1.31432e-14
-1.1967e-14
-1.02074e-14
-7.9875e-15
-5.46486e-15
8.40149e-08
2.29967e-08
5.10709e-10
5.80341e-12
-3.54329e-13
-3.49609e-14
-2.99555e-17
1.29219e-18
-1.08881e-29
-2.54822e-16
-9.51139e-16
-2.1579e-15
-3.73373e-15
-5.34051e-15
-6.6142e-15
-7.32913e-15
-7.44145e-15
-7.03448e-15
-6.24148e-15
-5.18167e-15
-3.95016e-15
-2.58071e-15
-9.93427e-16
4.90226e-09
9.67127e-10
7.68549e-12
5.27054e-14
2.93754e-16
-1.64405e-17
-1.92891e-18
-4.07375e-20
-4.31231e-17
-1.45632e-16
-3.11852e-16
-5.30873e-16
-7.62768e-16
-9.54739e-16
-1.06727e-15
-1.08686e-15
-1.02102e-15
-8.85542e-16
-6.99439e-16
-4.60596e-16
-1.48396e-16
1.61599e-16
1.02e-15
3.5568e-10
1.56883e-11
1.06217e-13
5.52996e-16
5.83471e-18
4.91662e-20
-7.08238e-23
-2.40673e-18
-1.00397e-17
-2.42763e-17
-4.55788e-17
-7.0461e-17
-9.26357e-17
-1.0652e-16
-1.09404e-16
-1.0131e-16
-8.37665e-17
-5.42106e-17
-1.21109e-17
4.26358e-17
2.16547e-16
6.96436e-16
1.83766e-15
4.75923e-11
4.55711e-13
6.90534e-14
3.87713e-16
2.15644e-20
2.48361e-21
-5.95226e-26
-3.19939e-19
-1.09173e-18
-2.45727e-18
-4.24711e-18
-5.94568e-18
-6.99068e-18
-7.06502e-18
-6.00397e-18
-3.44483e-18
-1.81058e-19
7.10625e-18
3.12082e-17
9.84961e-17
2.80056e-16
7.64821e-16
1.99983e-15
1.8454e-11
2.17887e-12
2.47331e-14
9.19483e-18
1.71577e-20
2.93544e-22
-7.74031e-26
-2.10972e-20
-7.28645e-20
-1.50248e-19
-2.25993e-19
-2.6357e-19
-2.24281e-19
-8.77604e-20
9.64398e-20
7.88702e-19
2.82415e-18
9.00102e-18
2.69091e-17
8.3649e-17
2.53719e-16
7.40566e-16
2.01114e-15
1.46953e-11
1.77727e-12
1.00463e-14
4.58527e-18
4.08735e-20
9.00278e-22
1.58013e-25
-6.31621e-22
-2.28009e-21
-3.53132e-21
-2.58533e-21
-3.3652e-23
1.03568e-20
4.90086e-20
1.64996e-19
3.94751e-19
1.19177e-18
4.2454e-18
1.55205e-17
5.38449e-17
1.72716e-16
5.68924e-16
1.70771e-15
1.03293e-11
1.05878e-12
4.87372e-15
1.10271e-18
1.12504e-20
2.37649e-22
3.12907e-24
5.1054e-24
1.37559e-23
6.74974e-23
3.61707e-22
1.42661e-21
3.2295e-21
1.03639e-20
3.76587e-20
1.45954e-19
5.91631e-19
2.37178e-18
8.6893e-18
2.98956e-17
1.07594e-16
4.34329e-16
1.45498e-15
6.52078e-12
5.07643e-13
1.55624e-15
3.48659e-19
4.75475e-21
7.65672e-23
1.13882e-24
6.00539e-25
1.41809e-24
5.08035e-24
2.73196e-23
1.50128e-22
8.08387e-22
3.71703e-21
1.53059e-20
6.30465e-20
2.62853e-19
1.05868e-18
3.8905e-18
1.52656e-17
7.12201e-17
3.47956e-16
1.25492e-15
3.22872e-12
1.65706e-13
2.62276e-16
1.11386e-19
1.58843e-21
2.44562e-23
4.30802e-25
7.85961e-26
1.86236e-25
1.16836e-24
7.77686e-24
4.65734e-23
2.5417e-22
1.17679e-21
5.2329e-21
2.34055e-20
1.00255e-19
4.14473e-19
1.66098e-18
8.18356e-18
4.8187e-17
2.59457e-16
9.81635e-16
9.98918e-13
3.18272e-14
2.03001e-17
2.24603e-20
3.22757e-22
4.83246e-24
8.02135e-26
1.09093e-26
3.94678e-26
2.50545e-25
1.72107e-24
1.13094e-23
6.86954e-23
3.48423e-22
1.73274e-21
8.00794e-21
3.39693e-20
1.5055e-19
7.12346e-19
4.36201e-18
3.03005e-17
1.80868e-16
7.78861e-16
1.59201e-13
3.71112e-15
8.56003e-19
3.17027e-21
4.58391e-23
6.76011e-25
1.11133e-26
1.33389e-27
6.59569e-27
4.85268e-26
3.74522e-25
2.71865e-24
1.78512e-23
9.82237e-23
5.39864e-22
2.46128e-21
1.06881e-20
5.41378e-20
3.05465e-19
2.23e-18
1.9726e-17
1.40087e-16
7.01177e-16
1.31533e-14
3.29147e-16
7.9456e-20
3.7281e-22
5.47304e-24
8.08413e-26
1.35712e-27
1.58708e-28
1.12317e-27
9.21976e-27
7.79111e-26
6.17161e-25
4.3734e-24
2.64136e-23
1.57985e-22
6.9672e-22
3.3337e-21
1.90971e-20
1.2438e-19
1.25611e-18
1.51955e-17
1.17136e-16
6.36515e-16
7.76755e-16
2.68694e-17
9.7728e-21
4.05503e-23
6.07887e-25
9.1253e-27
1.59472e-28
1.85123e-29
1.83369e-28
1.69119e-27
1.56587e-26
1.34448e-25
1.02537e-24
6.79346e-24
4.31812e-23
1.87784e-22
1.04785e-21
6.1991e-21
4.97512e-20
9.80255e-19
1.22612e-17
7.63538e-17
2.14107e-16
4.41957e-17
2.03375e-18
1.09135e-21
4.02351e-24
6.19197e-26
9.48557e-28
1.77652e-29
2.1768e-30
2.95595e-29
3.03818e-28
3.04703e-27
2.813e-26
2.30929e-25
1.66528e-24
1.10696e-23
4.94552e-23
3.19455e-22
1.76764e-21
2.40213e-20
9.97862e-19
6.50156e-18
-2.52949e-18
-1.57796e-16
2.38944e-18
1.33471e-19
9.82505e-23
3.32302e-25
5.24281e-27
8.1963e-29
1.77836e-30
3.50619e-31
4.70888e-30
5.3267e-29
5.73537e-28
5.66287e-27
5.00284e-26
3.88172e-25
2.68426e-24
1.29066e-23
9.09392e-23
4.1438e-22
1.64875e-20
1.24266e-18
-2.26653e-18
-6.51524e-17
-3.78745e-16
1.11555e-19
7.29879e-21
7.02266e-24
2.10998e-26
3.38819e-28
5.39235e-30
1.55315e-31
6.17207e-32
7.3968e-31
9.08985e-30
1.04217e-28
1.09606e-27
1.03983e-26
8.6148e-26
6.15709e-25
3.529e-24
2.39861e-23
2.25475e-23
5.74585e-21
1.03853e-18
-1.04671e-17
-1.12372e-16
-4.87639e-16
4.25201e-21
3.30404e-22
4.1451e-25
1.09932e-27
1.77482e-29
2.83636e-31
1.10267e-32
9.0563e-33
1.13682e-31
1.50084e-30
1.82169e-29
2.0342e-28
2.06566e-27
1.82486e-26
1.32339e-25
1.22776e-24
2.10748e-24
-9.33049e-23
-1.05754e-21
8.02339e-21
-1.68327e-17
-1.30922e-16
-4.80649e-16
1.26382e-22
1.1962e-23
1.96827e-26
4.44255e-29
7.10536e-31
1.12222e-32
3.02992e-34
1.1946e-33
1.69159e-32
2.38176e-31
3.04967e-30
3.60574e-29
3.90841e-28
3.68479e-27
2.68011e-26
5.49507e-25
-4.78324e-24
-1.90273e-22
-5.81201e-21
-4.06257e-19
-1.9097e-17
-1.23538e-16
-3.97771e-16
2.72015e-24
3.29813e-25
7.30189e-28
1.27583e-30
1.99134e-32
3.09069e-34
6.08305e-36
1.51138e-34
2.40901e-33
3.60701e-32
4.86432e-31
6.07682e-30
7.01961e-29
7.04712e-28
5.28116e-27
1.6336e-25
-9.18847e-24
-2.56653e-22
-1.16301e-20
-5.73869e-19
-1.76268e-17
-1.00453e-16
-2.87303e-16
3.68515e-26
6.24078e-27
2.07925e-29
1.70761e-32
2.44391e-34
3.41389e-36
3.83101e-37
1.81723e-35
3.25547e-34
5.17516e-33
7.34958e-32
9.69055e-31
1.1917e-29
1.2649e-28
1.08716e-27
2.60111e-26
-1.13096e-23
-2.84745e-22
-1.59748e-20
-6.02825e-19
-1.4136e-17
-7.24723e-17
-1.84522e-16
2.27365e-28
6.51655e-29
4.59217e-31
4.93992e-35
5.81592e-37
7.83623e-39
1.02285e-37
2.14676e-36
4.1339e-35
6.98212e-34
1.04519e-32
1.4543e-31
1.90215e-30
2.11301e-29
2.89165e-28
-3.14054e-27
-1.12117e-23
-2.7498e-22
-1.7351e-20
-5.33448e-19
-1.01054e-17
-4.69993e-17
-1.06342e-16
1.60719e-31
1.61756e-31
3.34498e-33
5.80561e-38
1.40482e-42
9.94325e-41
1.02814e-38
2.38309e-37
4.89396e-36
8.78923e-35
1.38911e-33
2.04088e-32
2.83577e-31
3.32325e-30
7.03504e-29
-1.03256e-26
-9.55727e-24
-2.36439e-22
-1.58013e-20
-4.129e-19
-6.51217e-18
-2.74995e-17
-5.53556e-17
4.25428e-42
4.01672e-43
1.78484e-45
1.5962e-44
1.03998e-42
3.44286e-41
9.69621e-40
2.44264e-38
5.3548e-37
1.02367e-35
1.71165e-34
2.65826e-33
3.91457e-32
5.3033e-31
7.23774e-30
-1.27931e-26
-7.18854e-24
-1.82807e-22
-1.24234e-20
-2.83521e-19
-3.79948e-18
-1.44742e-17
-2.63745e-17
2.92577e-44
2.83369e-45
2.34088e-47
1.11091e-45
7.01653e-44
2.66737e-42
8.48524e-41
2.28795e-39
5.36403e-38
1.09287e-36
1.93756e-35
3.18599e-34
4.95629e-33
1.0369e-31
-3.13711e-30
-1.17408e-26
-4.82603e-24
-1.27616e-22
-8.56119e-21
-1.73679e-19
-2.00859e-18
-6.78458e-18
-1.1928e-17
1.94039e-46
1.88781e-47
7.71269e-49
7.80997e-47
4.80061e-45
1.94604e-43
6.69494e-42
1.9374e-40
4.86676e-39
1.05815e-37
1.99357e-36
3.47806e-35
5.77138e-34
1.56674e-32
-5.91166e-30
-8.91043e-27
-2.90537e-24
-8.048e-23
-5.20946e-21
-9.50708e-20
-9.60832e-19
-2.76781e-18
-5.56079e-18
1.25534e-48
1.18084e-49
3.50109e-50
4.62271e-48
2.86859e-46
1.25823e-44
4.69987e-43
1.46417e-41
3.94896e-40
9.17549e-39
1.84111e-37
3.41551e-36
6.49622e-35
6.29786e-34
-5.92565e-30
-5.79009e-27
-1.56896e-24
-4.57509e-23
-2.80575e-21
-4.64519e-20
-4.1455e-19
-9.29468e-19
-2.99447e-18
7.8486e-51
7.22595e-52
1.36654e-51
2.28538e-49
1.48048e-47
7.09416e-46
2.88941e-44
9.72103e-43
2.82114e-41
7.01594e-40
1.50297e-38
2.97204e-37
8.29905e-36
-9.74002e-34
-4.49205e-30
-3.26194e-27
-7.57651e-25
-2.3334e-23
-1.33554e-21
-2.01827e-20
-1.60409e-19
-2.15118e-19
-1.91764e-18
4.59266e-53
4.39069e-54
5.57366e-53
9.31325e-51
6.47867e-49
3.41724e-47
1.52477e-45
5.55563e-44
1.73908e-42
4.6379e-41
1.06387e-39
2.26573e-38
7.47633e-37
-1.24777e-33
-2.76845e-30
-1.59669e-27
-3.25077e-25
-1.0598e-23
-5.59073e-22
-7.74571e-21
-5.51899e-20
-8.48752e-22
-1.30739e-18
2.37703e-55
2.48789e-56
1.89056e-54
3.06152e-52
2.33861e-50
1.36807e-48
6.72092e-47
2.6585e-45
9.00295e-44
2.58145e-42
6.36763e-41
1.54023e-39
2.60821e-39
-9.62284e-34
-1.41797e-30
-6.76083e-28
-1.22705e-25
-4.24099e-24
-2.04015e-22
-2.59925e-21
-1.66794e-20
3.01898e-20
-8.28694e-19
9.98101e-58
1.41896e-58
4.81204e-56
7.80976e-54
6.67435e-52
4.37331e-50
2.37782e-48
1.02366e-46
3.76534e-45
1.16557e-43
3.11428e-42
1.02662e-40
-4.23833e-38
-5.48824e-34
-6.04982e-31
-2.45073e-28
-4.01788e-26
-1.47341e-24
-6.40434e-23
-7.51911e-22
-4.3563e-21
1.50593e-20
-4.43711e-19
2.95273e-60
1.0231e-60
8.50634e-58
1.43938e-55
1.40441e-53
1.04701e-51
6.337e-50
2.98102e-48
1.19812e-46
4.03398e-45
1.19459e-43
3.54225e-42
-3.84279e-38
-2.42362e-34
-2.12784e-31
-7.47701e-29
-1.11921e-26
-4.35549e-25
-1.69718e-23
-1.83908e-22
-9.62578e-22
5.22757e-22
-1.85779e-19
4.12944e-63
7.95493e-63
8.9963e-60
1.6556e-57
1.91071e-55
1.66718e-53
1.133e-51
5.87726e-50
2.60856e-48
9.71469e-47
3.69524e-45
-7.25269e-43
-2.03471e-38
-8.27376e-35
-6.03483e-32
-1.87097e-29
-2.58052e-27
-1.06514e-25
-3.69716e-24
-3.70328e-23
-1.74944e-22
-1.02005e-23
-5.51737e-20
1.00002e-66
3.85918e-65
3.67822e-62
8.04743e-60
1.21789e-57
1.32184e-55
1.03065e-53
6.06379e-52
3.06178e-50
1.33343e-48
6.89447e-47
-7.25544e-43
-7.21823e-39
-2.12517e-35
-1.32906e-32
-3.69103e-30
-4.73051e-28
-2.06845e-26
-6.36759e-25
-5.90796e-24
-2.51442e-23
-4.44296e-24
-1.05507e-20
4.6635e-72
1.14597e-69
1.34628e-66
5.8404e-64
1.64244e-61
2.98151e-59
5.08604e-57
6.68687e-55
6.32394e-53
5.47806e-51
5.03338e-49
-2.8534e-43
-1.68705e-39
-3.87294e-36
-2.13265e-33
-5.38439e-31
-6.46756e-29
-2.98989e-27
-8.14795e-26
-7.02686e-25
-2.6898e-24
-7.2702e-25
-1.56898e-21
1.33286e-83
1.10111e-79
4.28666e-76
6.91658e-73
7.1131e-70
4.92328e-67
2.86058e-64
1.22049e-61
3.53532e-59
1.00083e-56
2.40015e-54
-5.48039e-44
-2.32926e-40
-4.44678e-37
-2.21297e-34
-5.16229e-32
-5.86728e-30
-2.85978e-28
-6.9049e-27
-5.56964e-26
-1.91695e-25
-3.51538e-26
-4.06103e-22
0
1.17775e-93
1.21788e-89
2.25495e-86
-5.07926e-77
-8.0621e-79
-3.13504e-70
-4.69662e-71
-4.26307e-64
-7.63267e-65
-7.43466e-66
-3.78343e-45
-1.38943e-41
-2.38936e-38
-1.10787e-35
-2.43909e-33
-2.65338e-31
-1.35878e-29
-2.91424e-28
-2.22338e-27
-6.89237e-27
-6.65414e-28
-5.32886e-23
0.496537
0.496554
0.496554
0.496554
0.0222801
0.0286398
0.0429764
0.0271583
3.30333e-09
2.44732e-10
1.88022e-11
1.07863e-11
4.76608e-10
-7.78759e-29
2.19214e-15
8.09585e-12
-1.05631e-15
-9.03014e-17
3.43928e-17
9.05998e-12
-2.40028e-15
4.4963e-16
9.24278e-15
1.47124e-14
5.47531e-16
5.97359e-15
1.86156e-14
4.02487e-14
3.72973e-15
1.02235e-14
2.49131e-14
4.85548e-14
4.92367e-15
1.2863e-14
3.343e-14
9.46293e-14
5.28214e-15
1.49868e-14
6.31174e-14
3.68326e-13
5.25381e-15
2.0067e-14
1.73866e-13
1.21501e-12
5.05966e-15
2.87098e-14
3.06936e-13
2.28775e-12
5.06611e-15
3.40678e-14
3.57908e-13
3.07232e-12
4.90907e-15
3.52924e-14
3.35058e-13
3.4589e-12
4.00688e-15
2.86214e-14
1.8004e-13
2.14249e-12
2.93126e-15
1.51906e-14
7.4287e-14
4.91774e-13
2.01714e-15
6.55909e-15
2.41802e-14
1.2012e-13
8.07697e-16
1.31883e-15
3.87184e-15
2.32738e-14
-2.43292e-16
-9.48567e-16
-3.28262e-16
1.46284e-14
-1.02657e-15
-2.22831e-15
-1.09341e-15
3.16435e-14
-1.45595e-15
-2.6716e-15
-7.01088e-16
-1.67389e-19
-1.45856e-15
-2.32778e-15
8.00764e-32
-2.19057e-13
-1.17934e-15
-1.60523e-15
-3.35115e-17
5.38779e-15
-8.11238e-16
-8.77444e-16
-4.28847e-16
-3.40599e-12
-4.85977e-16
-3.21624e-16
-9.40637e-16
2.20183e-06
-2.53265e-16
-1.95246e-31
1.05238e-17
3.33038e-05
-1.09622e-16
-2.28899e-28
2.24714e-16
3.8553e-05
-3.24532e-17
-5.85611e-30
3.17867e-15
8.18019e-07
-1.11939e-26
5.97028e-19
1.19516e-07
1.35065e-08
-7.54993e-25
1.11996e-12
1.77236e-07
5.26202e-08
3.42637e-18
1.78227e-16
3.31223e-08
6.38733e-09
4.46235e-15
1.55967e-11
1.81609e-13
3.69672e-09
1.22808e-15
1.07428e-11
3.3769e-14
2.0482e-09
1.83703e-16
1.70179e-12
1.34079e-14
4.68721e-10
2.7014e-17
8.32852e-14
1.28007e-14
1.75122e-32
-3.65303e-18
-2.20895e-16
-1.53221e-16
-5.8345e-17
-6.96199e-18
-1.22534e-15
-3.78628e-16
-7.9152e-17
-4.21633e-18
-5.62806e-16
-6.91162e-17
-1.22289e-17
-2.12006e-18
-2.21434e-16
1.1694e-17
4.64508e-19
-8.18796e-19
-7.48247e-17
1.10076e-17
4.94832e-19
-2.13272e-19
-1.91834e-17
2.90331e-19
1.56807e-20
-2.80462e-20
-2.48769e-18
-4.9308e-20
6.34702e-21
0.312975
3.22314e-05
1.55742e-06
2.74803e-08
9.97144e-10
3.56425e-08
4.02549e-08
6.14647e-08
2.89818e-05
0.000710936
0.000383955
0.000406822
0.0690485
0.0694364
0.0694406
0.0215767
0.000121279
7.50991e-05
0.000121295
-9.57945e-08
-2.22896e-10
-2.4416e-09
6.96093e-12
-2.65179e-11
3.72965e-08
3.84086e-08
7.82703e-08
8.43742e-05
0.000917237
7.33105e-05
0.00100743
0.069428
0.0694414
0.051177
0.00661402
0.000152894
4.49682e-05
7.50993e-05
1.98848e-11
2.36542e-11
2.0344e-11
2.0203e-11
2.02089e-11
2.51101e-08
3.07821e-08
2.50352e-08
3.18523e-05
0.000896823
1.23484e-05
0.0374306
0.0691517
0.069428
0.0060408
0.000254455
0.000238041
2.71356e-05
0.0341486
6.70774e-11
7.28583e-11
6.09774e-11
2.29751e-11
2.17275e-11
6.78114e-12
5.23848e-09
3.21539e-09
4.2789e-05
0.000113113
6.45924e-06
0.0671418
0.0683242
0.0691522
0.0155187
0.000126561
0.00021392
1.71497e-05
0.123588
5.47241e-11
6.80378e-11
4.57218e-11
2.436e-11
4.40674e-11
8.60091e-12
-9.15146e-12
3.19716e-09
5.26458e-05
1.44301e-06
4.49999e-06
0.0650906
0.0677864
0.0583733
0.00944321
2.4464e-05
0.000126018
1.19074e-05
0.133055
1.48791e-14
4.45139e-14
2.04421e-12
1.13156e-11
5.9574e-11
1.0925e-10
0
3.8962e-07
1.54777e-05
3.86617e-07
2.23044e-06
0.0451745
0.0528847
0.00235356
2.07893e-05
1.71667e-05
2.54967e-05
9.23112e-06
0.134661
1.06219e-13
1.29388e-12
1.04574e-11
3.23974e-11
6.94467e-11
1.78735e-10
1.26456e-10
2.27069e-06
1.29525e-06
4.58312e-07
0.0115654
0.00435
2.97189e-05
1.89062e-05
1.71656e-05
1.61423e-05
9.23112e-06
7.88853e-06
0.136989
2.90107e-13
4.42669e-12
2.44417e-11
5.61976e-11
8.57821e-11
2.14047e-10
2.608e-10
4.8713e-10
2.9448e-08
4.1809e-08
0.00107683
2.64792e-05
1.91831e-05
1.77297e-05
1.74549e-05
1.87363e-05
7.88853e-06
7.24846e-06
0.138727
1.37487e-12
1.22851e-11
4.06685e-11
7.15281e-11
9.16696e-11
1.47401e-10
1.58161e-10
3.19455e-10
1.76497e-09
2.18134e-09
4.13202e-07
7.50419e-06
2.581e-05
1.85226e-05
1.77653e-05
5.16247e-05
7.55434e-06
7.05136e-06
0.139496
5.30226e-12
2.29294e-11
4.85631e-11
7.32171e-11
7.69338e-11
6.19896e-11
1.38782e-10
1.4887e-09
2.83309e-09
3.39049e-05
0.000232933
0.000418301
0.000322798
5.65727e-05
1.85515e-05
4.73968e-05
9.05465e-06
7.05768e-06
0.1396
1.23008e-11
2.8915e-11
4.84582e-11
4.53357e-11
3.60975e-11
3.76311e-11
1.40674e-09
2.89602e-08
1.94554e-08
0.000227026
0.000659994
0.000710566
0.000409984
5.83731e-05
5.20482e-05
4.12639e-05
7.59062e-06
6.84697e-06
0.139595
1.68606e-11
2.89477e-11
2.71133e-11
2.08441e-11
2.00777e-11
-2.81068e-12
2.59363e-08
4.70749e-07
2.62163e-07
2.8856e-06
7.0835e-06
0.00035799
0.000241689
0.000109199
0.000139027
9.55015e-05
6.85242e-06
6.85252e-06
0.0996928
1.45049e-11
1.84713e-11
1.39765e-11
1.2869e-11
1.64649e-11
-1.22697e-10
1.33892e-05
0.000138308
2.51002e-05
7.0835e-06
3.4539e-05
0.00221649
0.000719737
0.000610978
0.000244542
7.47065e-05
6.89034e-06
6.85252e-06
0.00891161
6.6574e-12
4.36152e-12
4.12967e-12
5.56314e-12
6.43057e-11
7.09145e-06
0.00034492
0.000487587
0.000340505
3.4539e-05
0.0167636
0.0502734
0.0154281
0.00242204
4.92896e-05
1.00903e-05
6.95464e-06
6.89095e-06
6.95462e-06
1.65802e-12
3.47522e-13
2.15047e-13
2.35034e-11
1.17774e-09
0.000118121
0.000487587
0.000490386
0.000425507
0.000252235
0.0722852
0.0724663
0.0572895
0.00393829
4.79445e-05
1.37454e-05
1.01009e-05
1.58857e-05
1.95074e-05
9.53762e-14
1.60211e-14
1.59994e-14
4.32957e-10
2.0268e-08
8.70019e-05
0.00022948
0.000294675
3.62181e-06
0.0209027
0.0724663
0.0724663
0.0724663
0.00482083
4.78997e-05
1.58468e-05
1.43936e-05
3.16267e-05
5.57825e-05
1.95456e-14
1.60043e-14
-1.81576e-12
7.50213e-09
1.7436e-05
3.20767e-06
3.13258e-06
3.13654e-06
3.12911e-06
0.0697664
0.0723869
0.0724663
0.0307854
0.000714208
0.000154481
0.000125809
1.58468e-05
2.04469e-05
0.00173254
6.07282e-14
1.75402e-14
1.60379e-07
1.25262e-07
2.43369e-05
3.48681e-06
3.14632e-06
3.12884e-06
3.14632e-06
0.070332
0.0721204
0.0723869
0.00738322
0.000169878
0.000159384
0.000168237
2.14084e-05
4.35566e-05
0.00335579
2.89485e-13
5.97043e-14
8.05583e-07
6.50712e-07
1.54499e-05
4.26855e-05
5.91077e-06
3.14632e-06
0.000564924
0.0331621
0.0714306
0.0717866
0.00405003
0.000146449
0.000136472
0.000127012
7.85335e-05
0.00191469
0.00335579
1.32771e-12
6.21899e-13
7.51657e-12
0.000757527
0.000486723
0.000106281
3.84741e-06
3.8748e-06
0.005497
8.40256e-05
0.0558512
0.0401109
0.00180703
0.000830993
0.000158041
0.000136472
0.000309772
0.00223599
0.00240502
2.23505e-11
7.51657e-12
6.95922e-06
0.00278094
0.00162295
4.10346e-05
5.3033e-06
3.83599e-06
3.59755e-05
3.82796e-05
0.00814924
0.0424853
0.0307969
0.00165731
0.000197627
0.000145731
0.000546291
0.00187108
0.00039949
3.86379e-10
9.228e-11
0.000410108
0.00278094
0.000835341
2.40919e-05
7.56106e-06
5.3033e-06
2.30356e-05
8.38282e-05
0.0113803
0.0528567
0.0527591
0.00503214
0.000273405
0.000162255
0.000173257
0.000241486
0.000347055
6.53096e-09
1.21109e-09
0.00159153
0.00278094
0.000119768
3.31168e-05
1.99677e-05
3.48631e-05
0.000137474
0.00315764
0.0509105
0.052468
0.0528679
0.00867509
0.000257865
0.000179245
0.000178556
0.000239046
0.000497571
1.37938e-05
1.83561e-08
0.00115983
0.0027151
0.000954278
0.00119419
0.000940953
0.00268899
0.0172928
0.0454184
0.0510161
0.0520087
0.0405831
0.00762398
0.00212701
0.0001787
0.000577916
0.00175125
0.000736578
5.06348e-05
8.21332e-06
8.31004e-07
0.000276961
0.00357447
0.00486729
0.0149224
0.0331346
0.047983
0.0479835
0.0447724
0.0105226
3.29372e-05
0.00334433
0.00327059
0.000189581
0.00124464
0.00440126
0.000881244
5.06348e-05
3.39214e-05
5.87898e-07
1.1442e-07
0.000894638
0.00204842
0.0185672
0.0416092
0.0468567
0.0363335
6.82778e-05
1.11409e-05
7.28766e-06
0.00135628
0.0031545
0.000223504
0.000762383
0.00453173
0.000938467
5.06348e-05
4.11731e-05
1.90186e-06
1.48636e-08
6.17033e-09
5.36959e-09
5.23133e-09
0.00295217
0.00313624
1.71866e-06
2.36099e-06
2.33115e-06
2.35601e-06
0.00109732
0.00314153
0.000234589
0.0002393
0.00457436
0.000930916
2.89527e-05
5.00444e-06
1.05136e-08
6.17032e-09
5.36959e-09
5.22188e-09
5.23133e-09
5.23124e-09
6.61994e-08
8.73825e-07
1.97452e-06
2.33097e-06
2.33115e-06
0.0011482
0.00314153
0.000240891
0.000331372
0.00459305
0.000860135
1.39225e-08
1.15129e-08
8.53556e-09
7.53088e-09
5.6649e-09
5.36959e-09
5.22377e-09
1.7423e-07
4.70229e-07
1.64045e-06
2.36452e-06
2.33116e-06
6.003e-05
0.000817804
0.00234823
0.00166083
0.00224253
0.00459898
0.000722355
1.40296e-08
5.67377e-08
6.85187e-08
2.82398e-08
5.81004e-09
6.32482e-09
5.85613e-09
2.08961e-06
2.99957e-05
1.37288e-05
1.00137e-05
2.58816e-06
0.000162789
0.000175968
0.00052406
0.004296
0.00459305
0.00459305
0.000523982
1.0687e-07
1.21912e-07
1.21912e-07
2.05906e-08
6.46981e-09
1.14054e-07
9.23094e-09
2.10233e-08
0.000245985
0.000373809
9.41882e-05
9.74007e-06
0.000163076
9.33771e-05
0.00033498
0.00423372
0.00443154
0.00459305
0.000262657
1.19154e-07
1.21912e-07
1.72845e-08
3.134e-09
7.77678e-09
1.6771e-07
6.25083e-08
3.73456e-08
0.000307548
0.000632466
0.000243909
6.10422e-05
8.30985e-05
7.93381e-05
0.000538083
0.00427636
0.00428289
0.00243498
5.26766e-05
1.06379e-07
3.5262e-08
7.62139e-10
2.12363e-09
2.93693e-08
1.68265e-07
1.55566e-07
9.68084e-08
0.000125223
0.000640931
0.000583212
0.000425913
4.95819e-05
5.2866e-05
0.000541005
0.0042829
0.00428289
0.000433979
1.06128e-05
4.00876e-10
5.38049e-14
4.64823e-10
4.27243e-08
7.43734e-08
8.98681e-08
9.78559e-08
1.12964e-06
0.000103592
0.000640931
0.000641019
0.00063307
4.43823e-05
2.893e-05
0.000379462
0.00213954
0.00377705
0.000169753
3.31534e-06
-3.09132e-34
1.30055e-18
5.94924e-09
7.49829e-08
7.5163e-08
1.46325e-08
2.28505e-08
1.63185e-07
0.000139321
0.000640931
0.000640843
0.000639073
3.4095e-05
1.84214e-05
0.000137057
0.000137769
0.000700898
4.52278e-05
8.93908e-07
-2.97034e-18
7.92864e-37
1.1196e-08
7.50908e-08
7.48699e-08
4.8848e-09
1.32971e-08
1.59218e-07
2.33111e-05
0.000486959
0.000639073
0.00055577
3.76299e-06
7.49704e-06
2.96841e-05
6.1011e-05
1.81869e-05
1.44076e-06
8.75754e-08
-2.52356e-18
5.74431e-28
1.06604e-08
7.48699e-08
6.21307e-08
8.17527e-10
3.18193e-09
2.48862e-08
1.94051e-07
6.46015e-05
0.000280597
0.000120478
1.39948e-06
3.22568e-06
1.27535e-05
2.38654e-05
4.83713e-06
8.30672e-08
1.39789e-08
4.37231e-22
8.15816e-21
2.50232e-09
3.38734e-08
2.34e-08
5.73252e-10
8.17527e-10
3.09792e-09
2.46047e-08
1.88874e-07
1.27066e-06
1.18152e-06
6.49173e-07
1.42938e-06
4.48008e-06
7.81274e-06
1.35447e-06
1.23389e-08
1.83541e-09
7.151e-19
8.07742e-16
4.7316e-15
1.10992e-12
3.39072e-09
5.01797e-10
4.75527e-10
1.23759e-09
1.86329e-08
4.01324e-07
5.22521e-07
2.21909e-07
1.42442e-07
4.80033e-07
1.38665e-06
2.42355e-06
3.63686e-07
-4.11495e-11
2.26372e-10
8.48523e-20
-1.02383e-18
1.01952e-11
4.9118e-10
8.35148e-12
4.91862e-10
3.22455e-10
4.15578e-10
1.14627e-08
8.28018e-08
1.23578e-07
3.81749e-08
4.70604e-08
1.54914e-07
4.74634e-07
7.22304e-07
9.14497e-08
2.16571e-10
7.15671e-11
2.29022e-23
-9.44045e-22
-4.27727e-22
2.9563e-14
7.76525e-12
3.86584e-10
2.68322e-10
6.5235e-10
1.87128e-09
7.82799e-09
1.21927e-08
8.77488e-09
1.83459e-08
5.01373e-08
1.41822e-07
2.15996e-07
2.13937e-08
7.39164e-11
6.45575e-11
1.49503e-23
-1.6249e-21
-3.28414e-30
-3.30759e-27
-2.33454e-27
8.97548e-30
3.34745e-11
1.76681e-10
6.80599e-10
1.9127e-09
2.0974e-09
4.09751e-09
9.85296e-09
1.83459e-08
4.7965e-08
1.05636e-07
4.60416e-09
6.45646e-11
6.45646e-11
)
;

boundaryField
{
    leftWall
    {
        type            zeroGradient;
    }
    rightWall
    {
        type            zeroGradient;
    }
    lowerWall
    {
        type            zeroGradient;
    }
    atmosphere
    {
        type            inletOutlet;
        inletValue      uniform 0;
        value           nonuniform List<scalar> 
46
(
0
0
0
0
0
0
0
0
0
0
0
0
0
0
0
0
0
0
0
0
0
0
0
0
0
0
0
0
0
0
0
0
0
0
0
0
1.9127e-09
2.0974e-09
4.09751e-09
9.85296e-09
1.83459e-08
4.7965e-08
1.05636e-07
4.60416e-09
6.45646e-11
6.45646e-11
)
;
    }
    defaultFaces
    {
        type            empty;
    }
}


// ************************************************************************* //
