/*--------------------------------*- C++ -*----------------------------------*\
| =========                 |                                                 |
| \\      /  F ield         | OpenFOAM: The Open Source CFD Toolbox           |
|  \\    /   O peration     | Version:  2206                                  |
|   \\  /    A nd           | Website:  www.openfoam.com                      |
|    \\/     M anipulation  |                                                 |
\*---------------------------------------------------------------------------*/
FoamFile
{
    version     2.0;
    format      ascii;
    arch        "LSB;label=32;scalar=64";
    class       volVectorField;
    location    "0.65";
    object      U;
}
// * * * * * * * * * * * * * * * * * * * * * * * * * * * * * * * * * * * * * //

dimensions      [0 1 -1 0 0 0 0];

internalField   nonuniform List<vector> 
2268
(
(-0.0109644 0.0108023 0)
(-0.0125189 -0.00154331 0)
(-0.00690506 -0.00453547 0)
(-0.00437834 -0.000933221 0)
(-0.00554996 0.00273642 0)
(-0.0100919 0.00482981 0)
(-0.0155913 0.00524886 0)
(-0.0206568 0.0047382 0)
(-0.0247398 0.00398615 0)
(-0.0278398 0.00337558 0)
(-0.0301007 0.00301642 0)
(-0.0317155 0.00286975 0)
(-0.0327606 0.00278069 0)
(-0.0331906 0.002603 0)
(-0.0328499 0.00226545 0)
(-0.0317178 0.00157934 0)
(-0.02955 -5.67728e-06 0)
(-0.0255348 -0.00355121 0)
(-0.017464 -0.0110553 0)
(-0.0073454 -0.0189753 0)
(0.0140644 -0.0385238 0)
(0.0444632 -0.0451231 0)
(0.0542755 0.0381071 0)
(-0.0135643 0.0330356 0)
(-0.011874 -0.00453828 0)
(-0.0104298 -0.0117142 0)
(-0.00839846 -0.00132778 0)
(-0.0109387 0.00914645 0)
(-0.0158951 0.0145438 0)
(-0.0212828 0.014945 0)
(-0.0257313 0.0126601 0)
(-0.0288289 0.00961511 0)
(-0.0306801 0.00672951 0)
(-0.0313891 0.00424065 0)
(-0.0310227 0.00204772 0)
(-0.0296416 -5.83555e-05 0)
(-0.0272426 -0.00230261 0)
(-0.0238173 -0.00486352 0)
(-0.0192198 -0.0080607 0)
(-0.0134974 -0.012427 0)
(-0.00868762 -0.0188863 0)
(0.0055013 -0.0284282 0)
(0.00517344 -0.0428101 0)
(0.036619 -0.0638844 0)
(0.0141111 -0.0544396 0)
(0.0375627 0.146365 0)
(-0.0127924 0.0567363 0)
(-0.0136585 -0.00345144 0)
(-0.0155272 -0.0139218 0)
(-0.0153397 0.00183923 0)
(-0.0188293 0.0172306 0)
(-0.0235873 0.0243408 0)
(-0.0282951 0.02389 0)
(-0.0320091 0.0195199 0)
(-0.0346413 0.0140947 0)
(-0.0362679 0.00892435 0)
(-0.0369997 0.00426946 0)
(-0.0369301 -4.29883e-06 0)
(-0.0360996 -0.00403845 0)
(-0.0345565 -0.00802523 0)
(-0.0323253 -0.0122261 0)
(-0.0295798 -0.0170013 0)
(-0.0266426 -0.0229119 0)
(-0.0234173 -0.0306458 0)
(-0.0206724 -0.0405279 0)
(-0.0212782 -0.0591217 0)
(-0.0166586 -0.0666354 0)
(-0.040413 -0.00808056 0)
(-0.0108596 0.145434 0)
(-0.0115954 0.0817963 0)
(-0.0171316 0.00344321 0)
(-0.0239147 -0.0114049 0)
(-0.0256336 0.00668113 0)
(-0.0303087 0.0243828 0)
(-0.0349851 0.0315128 0)
(-0.0390937 0.0297577 0)
(-0.0421008 0.0237484 0)
(-0.0440098 0.0168907 0)
(-0.0449194 0.0106298 0)
(-0.045007 0.00512281 0)
(-0.0444333 7.54678e-05 0)
(-0.0433245 -0.00482772 0)
(-0.041849 -0.00969072 0)
(-0.0401357 -0.0145788 0)
(-0.038382 -0.0196383 0)
(-0.0368546 -0.0250474 0)
(-0.03565 -0.0306669 0)
(-0.0358946 -0.036392 0)
(-0.0398742 -0.043647 0)
(-0.0490099 -0.0508675 0)
(-0.0554086 -0.0353687 0)
(-0.0253091 0.0363332 0)
(-0.0139485 0.112385 0)
(-0.0270138 0.0237412 0)
(-0.0372758 0.00228656 0)
(-0.0394861 0.019242 0)
(-0.0446886 0.0372982 0)
(-0.0491753 0.042891 0)
(-0.0522798 0.0388325 0)
(-0.0540874 0.0302097 0)
(-0.0548734 0.0205949 0)
(-0.0549073 0.0116257 0)
(-0.0543591 0.00382623 0)
(-0.0532396 -0.00282966 0)
(-0.0514912 -0.00866553 0)
(-0.0491732 -0.0139733 0)
(-0.0464278 -0.018985 0)
(-0.0435129 -0.0239127 0)
(-0.0405681 -0.0287451 0)
(-0.0376073 -0.0331646 0)
(-0.0351845 -0.0364567 0)
(-0.0332846 -0.0386561 0)
(-0.0316931 -0.0439543 0)
(-0.0317233 -0.0516632 0)
(-0.0101381 -0.026689 0)
(-0.0154305 0.151677 0)
(-0.0365395 0.0452438 0)
(-0.0530699 0.0099265 0)
(-0.0560982 0.0226305 0)
(-0.0615362 0.0398436 0)
(-0.0672286 0.0428541 0)
(-0.0717314 0.0368628 0)
(-0.0743677 0.0274375 0)
(-0.0749691 0.0179937 0)
(-0.0734077 0.00971894 0)
(-0.0703763 0.00203225 0)
(-0.0668752 -0.0056998 0)
(-0.063304 -0.01306 0)
(-0.0595787 -0.0197437 0)
(-0.055997 -0.0257245 0)
(-0.0526056 -0.0310691 0)
(-0.0489488 -0.0358147 0)
(-0.0447253 -0.0399884 0)
(-0.0399925 -0.0433149 0)
(-0.0343108 -0.0453008 0)
(-0.0270319 -0.0502119 0)
(-0.0190243 -0.0648621 0)
(-0.00111183 -0.0471083 0)
(-0.00691803 0.208474 0)
(-0.0328936 0.0965466 0)
(-0.0600367 0.0349703 0)
(-0.0712916 0.0396563 0)
(-0.0777372 0.0607784 0)
(-0.0819591 0.0617474 0)
(-0.0840226 0.0501608 0)
(-0.0840154 0.0337478 0)
(-0.0828843 0.0162053 0)
(-0.0817395 0.000727168 0)
(-0.0813441 -0.0101249 0)
(-0.0811942 -0.0163157 0)
(-0.0807091 -0.0206058 0)
(-0.0800365 -0.0241081 0)
(-0.0793116 -0.0270129 0)
(-0.0783128 -0.0310624 0)
(-0.0764287 -0.0372172 0)
(-0.0730199 -0.0440395 0)
(-0.0677757 -0.0504405 0)
(-0.0620229 -0.0577079 0)
(-0.0541752 -0.0730281 0)
(-0.0352867 -0.100649 0)
(-0.0116904 -0.064858 0)
(0.00887292 0.225793 0)
(-0.00358018 0.154306 0)
(-0.0255168 0.0741656 0)
(-0.054951 0.0594153 0)
(-0.0662266 0.0644764 0)
(-0.0717938 0.0583082 0)
(-0.0793622 0.0467489 0)
(-0.0862443 0.0326394 0)
(-0.0911508 0.0186825 0)
(-0.0924346 0.00830881 0)
(-0.0925337 0.00185175 0)
(-0.0927389 -0.00701758 0)
(-0.0921408 -0.0199068 0)
(-0.0899614 -0.0321119 0)
(-0.0840778 -0.0424439 0)
(-0.0739558 -0.0536008 0)
(-0.061244 -0.0657789 0)
(-0.0477449 -0.0769444 0)
(-0.0343135 -0.0866078 0)
(-0.0242704 -0.0966526 0)
(-0.0291214 -0.115162 0)
(-0.0162812 -0.160464 0)
(-0.0668297 -0.172713 0)
(-0.0881446 0.0115336 0)
(-0.322182 -0.0977232 0)
(-0.630286 -0.197883 0)
(-0.785153 -0.223552 0)
(-0.693407 -0.241054 0)
(-0.293443 -0.305219 0)
(0.219341 -0.274225 0)
(0.565655 -0.101957 0)
(0.613595 -0.099586 0)
(0.586776 -0.123185 0)
(0.632864 -0.123416 0)
(0.704818 -0.0948711 0)
(0.724672 -0.0363137 0)
(0.816143 -0.00814714 0)
(1.10437 -0.00832661 0)
(1.33602 0.0214819 0)
(1.23763 0.106448 0)
(0.619971 0.240306 0)
(0.0260997 0.0616594 0)
(-0.194916 0.377487 0)
(-0.538962 0.523114 0)
(-1.04553 0.492272 0)
(-0.988193 0.323116 0)
(-0.309355 -0.40735 0)
(0.319457 -0.842795 0)
(0.766866 -0.92432 0)
(1.01544 -0.358267 0)
(1.19068 0.17228 0)
(1.10636 0.0873431 0)
(0.812513 -0.0461188 0)
(0.46621 0.0181313 0)
(0.279465 -0.0484447 0)
(0.615702 -0.506601 0)
(1.21277 -0.727865 0)
(1.70138 -0.0285575 0)
(1.80889 0.583638 0)
(1.31393 0.88735 0)
(0.369667 0.696778 0)
(-0.40634 0.679682 0)
(-0.26604 1.04868 0)
(-0.670009 0.371883 0)
(0.239566 -0.780863 0)
(0.640993 -1.15238 0)
(0.789695 -1.20259 0)
(0.93354 -1.12798 0)
(0.835737 -0.55541 0)
(0.965693 0.051681 0)
(0.449579 0.298736 0)
(0.086115 0.442716 0)
(-0.163972 0.392858 0)
(-0.0495335 -0.0496066 0)
(0.782621 -1.22721 0)
(1.13692 -1.38489 0)
(1.57706 -0.713399 0)
(1.39732 0.668328 0)
(0.934767 1.577 0)
(0.382388 1.37437 0)
(-0.722212 0.963228 0)
(0.229282 1.2123 0)
(0.40384 -0.382481 0)
(0.72868 -0.99346 0)
(0.836216 -1.21642 0)
(0.885446 -1.28693 0)
(0.925404 -1.18633 0)
(0.775794 -0.247442 0)
(0.864718 0.412979 0)
(-0.025185 0.780559 0)
(-0.612156 1.10398 0)
(-0.529591 0.246803 0)
(0.35444 -1.11546 0)
(0.852247 -1.75163 0)
(1.06988 -1.61172 0)
(1.4917 -0.320841 0)
(1.33526 2.20091 0)
(0.419397 2.56312 0)
(0.405886 1.82789 0)
(-0.875448 1.12656 0)
(0.823358 0.520287 0)
(0.751569 -0.566339 0)
(0.782235 -1.04041 0)
(0.816578 -1.2512 0)
(0.819797 -1.33971 0)
(0.78448 -1.16745 0)
(0.631198 0.00134664 0)
(0.752801 1.05987 0)
(-0.388924 1.30668 0)
(-0.800662 0.876332 0)
(0.208246 -1.02556 0)
(0.492694 -1.74771 0)
(0.695432 -1.99721 0)
(0.873387 -1.87257 0)
(0.899672 -0.940976 0)
(1.37733 2.20456 0)
(0.244823 3.50843 0)
(0.471763 2.08318 0)
(-0.712365 0.953863 0)
(0.747864 -0.235034 0)
(0.741948 -0.81531 0)
(0.741461 -1.08964 0)
(0.760648 -1.24171 0)
(0.680927 -1.29276 0)
(0.58743 -0.907418 0)
(0.558809 0.0875653 0)
(0.766752 1.50722 0)
(-0.377124 2.22371 0)
(-0.275768 1.03265 0)
(0.374724 -1.13845 0)
(0.453279 -1.95165 0)
(0.451922 -2.13321 0)
(0.714709 -1.99205 0)
(0.676273 -1.19194 0)
(1.11934 1.77743 0)
(-0.00518276 4.15759 0)
(0.589586 2.26699 0)
(0.2454 0.568166 0)
(0.568258 -0.404155 0)
(0.665054 -0.839561 0)
(0.713382 -1.09506 0)
(0.642409 -1.17662 0)
(0.40346 -1.1268 0)
(0.33502 -1.07504 0)
(0.233874 -0.0913173 0)
(0.722948 1.82084 0)
(-0.139346 2.72921 0)
(0.335101 0.387693 0)
(0.256626 -1.27486 0)
(0.264596 -1.86511 0)
(0.501841 -2.31112 0)
(0.537622 -2.20649 0)
(0.517983 -0.781595 0)
(1.15066 2.34093 0)
(-0.374113 4.76732 0)
(0.747969 2.44456 0)
(0.218587 -0.203743 0)
(0.52481 -0.560032 0)
(0.669635 -0.867359 0)
(0.637274 -1.02638 0)
(0.359723 -0.941553 0)
(0.141356 -0.912099 0)
(-0.0459748 -0.981038 0)
(-0.228017 -0.0984048 0)
(0.313125 1.84317 0)
(0.0705796 2.6403 0)
(0.816949 0.243001 0)
(0.565124 -1.36711 0)
(0.728612 -2.02823 0)
(0.688645 -2.33113 0)
(0.680968 -2.25731 0)
(0.587259 -1.4127 0)
(1.29862 2.44637 0)
(-0.498533 5.33619 0)
(0.818438 2.50634 0)
(0.0117011 0.205803 0)
(0.0122778 0.172445 0)
(-0.00581222 0.117421 0)
(-0.0482147 0.103401 0)
(-0.0793701 0.0975607 0)
(-0.108804 0.0881831 0)
(-0.132524 0.0729773 0)
(-0.151327 0.0492093 0)
(-0.160303 0.0230722 0)
(-0.143275 0.0019594 0)
(-0.10226 -0.0125571 0)
(-0.0541282 -0.0208833 0)
(-0.00705755 -0.0281226 0)
(0.0430823 -0.0391796 0)
(0.101036 -0.055077 0)
(0.166022 -0.071068 0)
(0.229147 -0.0829565 0)
(0.283687 -0.0905049 0)
(0.322083 -0.0920785 0)
(0.335238 -0.0779424 0)
(0.221602 -0.0493003 0)
(0.0877002 -0.0604936 0)
(-0.196695 -0.134917 0)
(-0.0116836 0.204132 0)
(-0.0327607 0.189931 0)
(-0.0849387 0.16557 0)
(-0.143195 0.145945 0)
(-0.174062 0.128661 0)
(-0.18398 0.107689 0)
(-0.171652 0.0853044 0)
(-0.135151 0.0582218 0)
(-0.0497127 0.0155649 0)
(0.241202 -0.0733614 0)
(0.354213 -0.0843325 0)
(0.360859 -0.0763454 0)
(0.366942 -0.0863797 0)
(0.382894 -0.110972 0)
(0.397327 -0.139102 0)
(0.399549 -0.155668 0)
(0.391134 -0.155975 0)
(0.375027 -0.143532 0)
(0.349824 -0.110519 0)
(0.341769 -0.0109785 0)
(0.325071 0.18173 0)
(0.368103 0.249254 0)
(0.0545298 0.0778095 0)
(-0.0489051 0.231797 0)
(-0.0880618 0.220019 0)
(-0.128742 0.206193 0)
(-0.136968 0.173354 0)
(-0.105917 0.145601 0)
(-0.0715293 0.133393 0)
(-0.171361 0.051303 0)
(-0.0894335 -0.0809269 0)
(0.00847664 -0.348769 0)
(0.075125 -0.314101 0)
(0.143057 -0.188358 0)
(0.231764 -0.145926 0)
(0.299722 -0.135096 0)
(0.337827 -0.131265 0)
(0.35336 -0.12884 0)
(0.352688 -0.122675 0)
(0.343706 -0.111483 0)
(0.334404 -0.0959889 0)
(0.328296 -0.0741066 0)
(0.343447 -0.0353311 0)
(0.381444 0.0316239 0)
(0.532864 0.109057 0)
(0.600947 0.270054 0)
(-0.103346 0.382682 0)
(-0.15105 0.259593 0)
(-0.175422 0.191645 0)
(-0.178471 0.136556 0)
(-0.16349 0.11703 0)
(-0.0907368 0.182306 0)
(0.0940693 -0.0261689 0)
(0.228025 -0.190421 0)
(0.297345 -0.28166 0)
(0.310567 -0.271312 0)
(0.311279 -0.230716 0)
(0.325948 -0.186799 0)
(0.343487 -0.152627 0)
(0.351509 -0.129857 0)
(0.35204 -0.11722 0)
(0.349434 -0.11079 0)
(0.347591 -0.106269 0)
(0.350043 -0.0997089 0)
(0.359822 -0.0882296 0)
(0.378462 -0.0693508 0)
(0.420137 -0.0488652 0)
(0.477321 -0.0523987 0)
(0.600723 -0.0387834 0)
(-0.0692161 0.49513 0)
(-0.0878579 0.351282 0)
(-0.132362 0.225567 0)
(-0.0728429 0.103953 0)
(0.0136408 0.0214696 0)
(0.158526 -0.0919815 0)
(0.27615 -0.208576 0)
(0.325429 -0.276723 0)
(0.326161 -0.302134 0)
(0.306554 -0.286431 0)
(0.291209 -0.242083 0)
(0.287746 -0.19558 0)
(0.292099 -0.162826 0)
(0.298518 -0.142587 0)
(0.305464 -0.13102 0)
(0.31346 -0.12453 0)
(0.323459 -0.119911 0)
(0.336808 -0.115291 0)
(0.355473 -0.109691 0)
(0.382198 -0.103091 0)
(0.421552 -0.0957916 0)
(0.47107 -0.0990406 0)
(0.534176 -0.112147 0)
(-0.018441 0.539355 0)
(0.00449525 0.380437 0)
(-0.0213993 0.18437 0)
(0.060973 0.00931801 0)
(0.128215 -0.101218 0)
(0.195569 -0.173698 0)
(0.24579 -0.23594 0)
(0.27012 -0.274565 0)
(0.27508 -0.283443 0)
(0.270384 -0.264597 0)
(0.264784 -0.230307 0)
(0.264021 -0.193992 0)
(0.268921 -0.164685 0)
(0.277338 -0.144948 0)
(0.287928 -0.134081 0)
(0.300563 -0.13007 0)
(0.31566 -0.130305 0)
(0.334001 -0.132394 0)
(0.356563 -0.134876 0)
(0.384234 -0.13778 0)
(0.417994 -0.142936 0)
(0.456966 -0.155583 0)
(0.499833 -0.176466 0)
(0.0147068 0.502611 0)
(0.0558928 0.382663 0)
(0.0592431 0.144976 0)
(0.088331 -0.032644 0)
(0.119717 -0.140508 0)
(0.166483 -0.221728 0)
(0.212397 -0.277403 0)
(0.241958 -0.299832 0)
(0.252613 -0.292534 0)
(0.250923 -0.265958 0)
(0.245709 -0.231604 0)
(0.24352 -0.199011 0)
(0.247052 -0.174298 0)
(0.256072 -0.159098 0)
(0.269464 -0.152132 0)
(0.286236 -0.151132 0)
(0.305699 -0.153804 0)
(0.327535 -0.158427 0)
(0.351802 -0.164166 0)
(0.378736 -0.171174 0)
(0.408508 -0.18047 0)
(0.440377 -0.194192 0)
(0.472782 -0.213802 0)
(0.0143149 0.445191 0)
(0.047685 0.346099 0)
(0.0542656 0.123401 0)
(0.0669096 -0.0514561 0)
(0.106967 -0.189278 0)
(0.156908 -0.278087 0)
(0.197639 -0.316658 0)
(0.219692 -0.31646 0)
(0.224935 -0.292894 0)
(0.221428 -0.259713 0)
(0.217359 -0.226756 0)
(0.217875 -0.199799 0)
(0.224754 -0.181402 0)
(0.23749 -0.171595 0)
(0.254679 -0.168854 0)
(0.274906 -0.171135 0)
(0.297091 -0.176515 0)
(0.320596 -0.183582 0)
(0.345162 -0.191649 0)
(0.370706 -0.200792 0)
(0.397084 -0.211745 0)
(0.423684 -0.225734 0)
(0.449452 -0.243687 0)
(-0.00727674 0.428573 0)
(0.00561235 0.316477 0)
(0.0136158 0.108186 0)
(0.048153 -0.0923791 0)
(0.100046 -0.245187 0)
(0.148034 -0.325919 0)
(0.180111 -0.345093 0)
(0.193965 -0.326532 0)
(0.195302 -0.292229 0)
(0.192404 -0.256782 0)
(0.191834 -0.227593 0)
(0.196928 -0.207196 0)
(0.208294 -0.195494 0)
(0.224915 -0.191081 0)
(0.245167 -0.192033 0)
(0.267499 -0.196478 0)
(0.290763 -0.202939 0)
(0.314294 -0.210505 0)
(0.337816 -0.21886 0)
(0.361252 -0.228199 0)
(0.384509 -0.239059 0)
(0.407205 -0.252128 0)
(0.42874 -0.267871 0)
(-0.0222409 0.449238 0)
(-0.0239944 0.312343 0)
(-0.00909841 0.0784231 0)
(0.0423349 -0.148094 0)
(0.0960539 -0.301962 0)
(0.138309 -0.366673 0)
(0.161811 -0.365109 0)
(0.169099 -0.331054 0)
(0.168473 -0.290336 0)
(0.167859 -0.256195 0)
(0.171933 -0.232609 0)
(0.182126 -0.218972 0)
(0.197819 -0.213158 0)
(0.217468 -0.212882 0)
(0.239384 -0.21618 0)
(0.262191 -0.221582 0)
(0.284995 -0.228151 0)
(0.307368 -0.235445 0)
(0.329195 -0.243426 0)
(0.350489 -0.252337 0)
(0.371216 -0.262564 0)
(0.391122 -0.274502 0)
(0.409846 -0.288356 0)
(-0.0216278 0.480675 0)
(-0.0255207 0.31032 0)
(-0.00650711 0.0397943 0)
(0.0467575 -0.205412 0)
(0.0956528 -0.353042 0)
(0.129238 -0.397633 0)
(0.144218 -0.376626 0)
(0.146808 -0.331972 0)
(0.146395 -0.290023 0)
(0.149504 -0.260485 0)
(0.158568 -0.24351 0)
(0.173265 -0.235975 0)
(0.192067 -0.234583 0)
(0.213231 -0.236826 0)
(0.235296 -0.241063 0)
(0.257288 -0.24636 0)
(0.278708 -0.252305 0)
(0.299407 -0.25883 0)
(0.319421 -0.266077 0)
(0.338809 -0.274283 0)
(0.357554 -0.283695 0)
(0.375464 -0.294499 0)
(0.392307 -0.306734 0)
(-0.00913254 0.500643 0)
(-0.0116406 0.305314 0)
(0.00723785 0.00255526 0)
(0.0567643 -0.257718 0)
(0.0975485 -0.394956 0)
(0.121343 -0.418707 0)
(0.128948 -0.381788 0)
(0.129042 -0.331842 0)
(0.130554 -0.292844 0)
(0.137829 -0.269716 0)
(0.151137 -0.259081 0)
(0.168865 -0.256188 0)
(0.189078 -0.25742 0)
(0.210202 -0.26061 0)
(0.231226 -0.264695 0)
(0.251656 -0.269296 0)
(0.271352 -0.274397 0)
(0.290365 -0.280137 0)
(0.308786 -0.286696 0)
(0.326657 -0.294235 0)
(0.343932 -0.30287 0)
(0.360441 -0.312653 0)
(0.376028 -0.323543 0)
(0.00351541 0.501324 0)
(0.00233425 0.300704 0)
(0.0240094 -0.0329101 0)
(0.0676339 -0.30314 0)
(0.0998963 -0.426606 0)
(0.114765 -0.430869 0)
(0.117005 -0.382807 0)
(0.116632 -0.332588 0)
(0.120972 -0.299471 0)
(0.13192 -0.283239 0)
(0.148032 -0.277821 0)
(0.167038 -0.27785 0)
(0.187086 -0.280117 0)
(0.20705 -0.283163 0)
(0.226435 -0.286559 0)
(0.245139 -0.290349 0)
(0.263242 -0.294719 0)
(0.280855 -0.29985 0)
(0.298039 -0.305863 0)
(0.314778 -0.312827 0)
(0.330997 -0.320766 0)
(0.346544 -0.329663 0)
(0.361322 -0.339455 0)
(0.00826596 0.490638 0)
(0.0101827 0.291327 0)
(0.0381888 -0.069055 0)
(0.0768994 -0.341957 0)
(0.101594 -0.449003 0)
(0.109529 -0.43638 0)
(0.108752 -0.382119 0)
(0.109465 -0.335516 0)
(0.116741 -0.309625 0)
(0.130264 -0.299598 0)
(0.147566 -0.297812 0)
(0.166339 -0.299194 0)
(0.185171 -0.301418 0)
(0.203477 -0.303826 0)
(0.221174 -0.306491 0)
(0.238381 -0.309668 0)
(0.255231 -0.313568 0)
(0.271793 -0.318303 0)
(0.28806 -0.323913 0)
(0.303967 -0.330396 0)
(0.319424 -0.337732 0)
(0.334302 -0.345883 0)
(0.348544 -0.354789 0)
(0.00663179 0.477735 0)
(0.013856 0.273362 0)
(0.0480702 -0.106603 0)
(0.0835313 -0.375211 0)
(0.102354 -0.464229 0)
(0.10568 -0.437833 0)
(0.103963 -0.381662 0)
(0.106626 -0.341081 0)
(0.116346 -0.322402 0)
(0.131187 -0.317217 0)
(0.148358 -0.317513 0)
(0.165957 -0.319159 0)
(0.183159 -0.320867 0)
(0.19983 -0.322643 0)
(0.216115 -0.324826 0)
(0.232176 -0.327688 0)
(0.248092 -0.331355 0)
(0.263856 -0.335851 0)
(0.279406 -0.341152 0)
(0.294655 -0.347226 0)
(0.30951 -0.35404 0)
(0.32386 -0.361557 0)
(0.33766 -0.369727 0)
(0.00321619 0.46607 0)
(0.0165348 0.247396 0)
(0.0550499 -0.145428 0)
(0.0881858 -0.40413 0)
(0.102644 -0.474514 0)
(0.103287 -0.437443 0)
(0.102028 -0.382605 0)
(0.106828 -0.349078 0)
(0.118205 -0.336701 0)
(0.133292 -0.334824 0)
(0.149514 -0.335999 0)
(0.165586 -0.33736 0)
(0.181211 -0.338541 0)
(0.196526 -0.339944 0)
(0.211726 -0.34195 0)
(0.22691 -0.344733 0)
(0.242077 -0.348314 0)
(0.257166 -0.352654 0)
(0.272089 -0.357702 0)
(0.286754 -0.363419 0)
(0.301067 -0.369773 0)
(0.314922 -0.376725 0)
(0.328256 -0.384235 0)
(0.000932318 0.454893 0)
(0.0201204 0.216041 0)
(0.0614498 -0.184661 0)
(0.0923897 -0.429587 0)
(0.103266 -0.481494 0)
(0.102387 -0.436583 0)
(0.102227 -0.385315 0)
(0.108854 -0.358904 0)
(0.121058 -0.351535 0)
(0.135644 -0.351617 0)
(0.150556 -0.352929 0)
(0.165129 -0.353881 0)
(0.179427 -0.354756 0)
(0.193678 -0.356081 0)
(0.208019 -0.358136 0)
(0.222467 -0.360974 0)
(0.236964 -0.364543 0)
(0.251429 -0.368776 0)
(0.265771 -0.373616 0)
(0.279895 -0.379021 0)
(0.2937 -0.384954 0)
(0.307073 -0.391362 0)
(0.319908 -0.398232 0)
(0.000586739 0.441687 0)
(0.0257628 0.181344 0)
(0.0691263 -0.223461 0)
(0.0975178 -0.451857 0)
(0.104869 -0.485923 0)
(0.102896 -0.435771 0)
(0.103896 -0.389588 0)
(0.11179 -0.369819 0)
(0.124095 -0.366148 0)
(0.137725 -0.36719 0)
(0.151255 -0.368302 0)
(0.164513 -0.368971 0)
(0.177739 -0.369811 0)
(0.191128 -0.37128 0)
(0.204734 -0.373517 0)
(0.218515 -0.37648 0)
(0.232393 -0.380086 0)
(0.246287 -0.384262 0)
(0.26011 -0.388944 0)
(0.273761 -0.394079 0)
(0.287129 -0.399621 0)
(0.300089 -0.405487 0)
(0.312488 -0.411712 0)
(0.0017708 0.423911 0)
(0.0336553 0.143585 0)
(0.0788704 -0.261333 0)
(0.104148 -0.47064 0)
(0.107602 -0.487821 0)
(0.104538 -0.434958 0)
(0.106466 -0.394954 0)
(0.115014 -0.381117 0)
(0.126851 -0.380006 0)
(0.139288 -0.381384 0)
(0.151511 -0.382257 0)
(0.163661 -0.382874 0)
(0.176006 -0.383911 0)
(0.18866 -0.38567 0)
(0.201609 -0.388165 0)
(0.214786 -0.39131 0)
(0.228116 -0.395011 0)
(0.241526 -0.399194 0)
(0.254927 -0.403777 0)
(0.268215 -0.408697 0)
(0.281279 -0.41389 0)
(0.29398 -0.41923 0)
(0.306149 -0.424822 0)
(0.00366316 0.399939 0)
(0.0430225 0.101598 0)
(0.0902598 -0.298128 0)
(0.111835 -0.485346 0)
(0.111029 -0.486899 0)
(0.106842 -0.43393 0)
(0.109421 -0.400916 0)
(0.118082 -0.392209 0)
(0.129054 -0.392767 0)
(0.140226 -0.39419 0)
(0.151283 -0.394973 0)
(0.16251 -0.395788 0)
(0.174114 -0.397197 0)
(0.186126 -0.399343 0)
(0.198494 -0.402161 0)
(0.211149 -0.405552 0)
(0.224026 -0.40942 0)
(0.237055 -0.413688 0)
(0.250152 -0.418249 0)
(0.26322 -0.423034 0)
(0.276164 -0.427958 0)
(0.288833 -0.432849 0)
(0.301108 -0.437866 0)
(0.00564345 0.369263 0)
(0.0529294 0.0537676 0)
(0.102037 -0.333769 0)
(0.119376 -0.495399 0)
(0.114319 -0.483014 0)
(0.109226 -0.432616 0)
(0.112272 -0.407094 0)
(0.120637 -0.402669 0)
(0.130527 -0.404267 0)
(0.14049 -0.405702 0)
(0.150557 -0.406638 0)
(0.161022 -0.407871 0)
(0.171997 -0.409783 0)
(0.183449 -0.412389 0)
(0.195318 -0.415596 0)
(0.207538 -0.419308 0)
(0.220053 -0.423426 0)
(0.232803 -0.427867 0)
(0.245709 -0.432507 0)
(0.258713 -0.437281 0)
(0.271735 -0.442079 0)
(0.284644 -0.446688 0)
(0.297423 -0.451275 0)
(0.00741008 0.332266 0)
(0.0628159 -0.000359896 0)
(0.112802 -0.367757 0)
(0.125347 -0.500447 0)
(0.116572 -0.476459 0)
(0.111121 -0.431212 0)
(0.114565 -0.413259 0)
(0.122377 -0.412251 0)
(0.131143 -0.414505 0)
(0.140051 -0.41609 0)
(0.149316 -0.417438 0)
(0.159156 -0.419263 0)
(0.169595 -0.421766 0)
(0.180567 -0.424898 0)
(0.192009 -0.428561 0)
(0.203869 -0.43267 0)
(0.216093 -0.437123 0)
(0.228649 -0.441841 0)
(0.24146 -0.446691 0)
(0.254545 -0.451627 0)
(0.267807 -0.456507 0)
(0.281217 -0.461111 0)
(0.294853 -0.465543 0)
(0.00953673 0.289473 0)
(0.0723354 -0.0599488 0)
(0.121042 -0.399168 0)
(0.128518 -0.500514 0)
(0.117109 -0.468039 0)
(0.112087 -0.430131 0)
(0.115925 -0.419313 0)
(0.12307 -0.420877 0)
(0.130817 -0.423613 0)
(0.138881 -0.425569 0)
(0.147521 -0.427546 0)
(0.156852 -0.430077 0)
(0.166832 -0.433233 0)
(0.177388 -0.436945 0)
(0.188462 -0.441127 0)
(0.200016 -0.445705 0)
(0.212 -0.450584 0)
(0.224424 -0.455691 0)
(0.237206 -0.460911 0)
(0.250474 -0.466207 0)
(0.264063 -0.47143 0)
(0.278155 -0.476384 0)
(0.292801 -0.481077 0)
(0.0128396 0.241112 0)
(0.0809041 -0.123255 0)
(0.125959 -0.426643 0)
(0.128297 -0.496067 0)
(0.115654 -0.458944 0)
(0.111851 -0.429844 0)
(0.116076 -0.425232 0)
(0.122565 -0.428611 0)
(0.129496 -0.43181 0)
(0.136941 -0.434356 0)
(0.145109 -0.43711 0)
(0.154021 -0.440409 0)
(0.163607 -0.444255 0)
(0.173798 -0.448588 0)
(0.184547 -0.453344 0)
(0.19583 -0.458458 0)
(0.20761 -0.463855 0)
(0.21994 -0.469471 0)
(0.232733 -0.47523 0)
(0.246224 -0.481079 0)
(0.260137 -0.486909 0)
(0.274957 -0.492555 0)
(0.290464 -0.497969 0)
(0.0177991 0.187123 0)
(0.0875412 -0.187214 0)
(0.126964 -0.448712 0)
(0.124619 -0.488071 0)
(0.112285 -0.450503 0)
(0.11029 -0.430713 0)
(0.114862 -0.431028 0)
(0.120801 -0.435621 0)
(0.127162 -0.43935 0)
(0.13419 -0.442648 0)
(0.142006 -0.446248 0)
(0.150573 -0.450333 0)
(0.159815 -0.454887 0)
(0.16968 -0.459871 0)
(0.180132 -0.465245 0)
(0.191169 -0.470961 0)
(0.20277 -0.476968 0)
(0.215021 -0.48321 0)
(0.22784 -0.489659 0)
(0.241529 -0.496226 0)
(0.255724 -0.502886 0)
(0.271191 -0.509466 0)
(0.287236 -0.515943 0)
(0.0238684 0.127729 0)
(0.0913328 -0.24894 0)
(0.123834 -0.464465 0)
(0.117881 -0.477995 0)
(0.10732 -0.443916 0)
(0.107389 -0.4329 0)
(0.112241 -0.436738 0)
(0.1178 -0.442127 0)
(0.123829 -0.446472 0)
(0.1306 -0.450603 0)
(0.138152 -0.45505 0)
(0.146428 -0.459908 0)
(0.155365 -0.465171 0)
(0.16493 -0.470826 0)
(0.175107 -0.476857 0)
(0.185908 -0.483234 0)
(0.197342 -0.489935 0)
(0.209504 -0.496913 0)
(0.222344 -0.504176 0)
(0.236168 -0.511605 0)
(0.250615 -0.519255 0)
(0.266595 -0.526928 0)
(0.282996 -0.534651 0)
(0.0296894 0.0641854 0)
(0.0917049 -0.305759 0)
(0.116789 -0.47386 0)
(0.108839 -0.467637 0)
(0.10117 -0.440005 0)
(0.103218 -0.436361 0)
(0.108291 -0.442423 0)
(0.113659 -0.448357 0)
(0.119545 -0.453373 0)
(0.126168 -0.458334 0)
(0.133515 -0.463583 0)
(0.141535 -0.469179 0)
(0.150193 -0.475137 0)
(0.159472 -0.481473 0)
(0.169378 -0.488191 0)
(0.179941 -0.495284 0)
(0.191195 -0.502751 0)
(0.203233 -0.510561 0)
(0.216056 -0.518737 0)
(0.229931 -0.527166 0)
(0.244606 -0.535949 0)
(0.260972 -0.544885 0)
(0.277811 -0.554021 0)
(0.0340409 -0.00132503 0)
(0.0886437 -0.355549 0)
(0.106581 -0.477781 0)
(0.0984628 -0.458758 0)
(0.0942359 -0.439065 0)
(0.0979241 -0.440898 0)
(0.103181 -0.448155 0)
(0.108523 -0.454501 0)
(0.11439 -0.460182 0)
(0.120922 -0.465905 0)
(0.128093 -0.471882 0)
(0.135876 -0.478166 0)
(0.14426 -0.484798 0)
(0.153251 -0.491814 0)
(0.162873 -0.49924 0)
(0.17317 -0.507089 0)
(0.184198 -0.515376 0)
(0.19604 -0.524093 0)
(0.208756 -0.53327 0)
(0.222563 -0.542837 0)
(0.237377 -0.552913 0)
(0.253962 -0.563345 0)
(0.271323 -0.574195 0)
(0.0362835 -0.0661094 0)
(0.0826995 -0.397076 0)
(0.0943572 -0.477802 0)
(0.0877121 -0.452656 0)
(0.0868445 -0.440876 0)
(0.0917214 -0.446245 0)
(0.0971437 -0.453996 0)
(0.102564 -0.460679 0)
(0.108462 -0.46696 0)
(0.114917 -0.473342 0)
(0.121916 -0.479958 0)
(0.129458 -0.486872 0)
(0.137556 -0.494144 0)
(0.146236 -0.501828 0)
(0.155537 -0.509966 0)
(0.165508 -0.518589 0)
(0.17622 -0.527725 0)
(0.187751 -0.537395 0)
(0.200205 -0.547639 0)
(0.213761 -0.55846 0)
(0.228487 -0.569986 0)
(0.244976 -0.582144 0)
(0.262615 -0.59507 0)
(0.0364333 -0.128003 0)
(0.0747805 -0.430051 0)
(0.081377 -0.475729 0)
(0.0773304 -0.449904 0)
(0.0792376 -0.444877 0)
(0.0848616 -0.452143 0)
(0.0904272 -0.459981 0)
(0.0959549 -0.466936 0)
(0.101874 -0.473713 0)
(0.108231 -0.480635 0)
(0.115035 -0.487798 0)
(0.122313 -0.495278 0)
(0.130095 -0.503148 0)
(0.13842 -0.511473 0)
(0.147334 -0.520304 0)
(0.156891 -0.529689 0)
(0.16716 -0.539668 0)
(0.17822 -0.550292 0)
(0.190195 -0.561627 0)
(0.203231 -0.573748 0)
(0.217495 -0.586801 0)
(0.233381 -0.600795 0)
(0.250675 -0.615988 0)
(0.0349292 -0.185482 0)
(0.06588 -0.454957 0)
(0.0687177 -0.47318 0)
(0.0677436 -0.450376 0)
(0.0715922 -0.450385 0)
(0.0776008 -0.458373 0)
(0.0832621 -0.466099 0)
(0.0888601 -0.473255 0)
(0.0947464 -0.480407 0)
(0.100957 -0.487753 0)
(0.107526 -0.495375 0)
(0.114498 -0.503352 0)
(0.121915 -0.511765 0)
(0.129822 -0.520682 0)
(0.138264 -0.530162 0)
(0.147292 -0.540259 0)
(0.15697 -0.551033 0)
(0.16737 -0.562561 0)
(0.17861 -0.574939 0)
(0.190801 -0.5883 0)
(0.204139 -0.602803 0)
(0.218806 -0.618542 0)
(0.234922 -0.635843 0)
(0.0323901 -0.237633 0)
(0.0568653 -0.472821 0)
(0.0570991 -0.471301 0)
(0.0590852 -0.453452 0)
(0.0640446 -0.456748 0)
(0.0701668 -0.464745 0)
(0.0758422 -0.472278 0)
(0.0814261 -0.479556 0)
(0.0871991 -0.486968 0)
(0.0931989 -0.494635 0)
(0.099477 -0.502631 0)
(0.106089 -0.511034 0)
(0.113081 -0.519923 0)
(0.120494 -0.529363 0)
(0.128368 -0.539417 0)
(0.136747 -0.550146 0)
(0.145681 -0.561623 0)
(0.155231 -0.573947 0)
(0.165486 -0.58724 0)
(0.176511 -0.60166 0)
(0.18847 -0.617371 0)
(0.201356 -0.634546 0)
(0.215488 -0.653465 0)
(0.0293219 -0.283932 0)
(0.0483506 -0.484897 0)
(0.0468972 -0.470705 0)
(0.0513112 -0.4583 0)
(0.0567022 -0.463423 0)
(0.0627397 -0.471075 0)
(0.0683199 -0.478391 0)
(0.0737808 -0.485719 0)
(0.0793482 -0.493294 0)
(0.0850639 -0.501195 0)
(0.0909882 -0.509487 0)
(0.0971777 -0.518242 0)
(0.103675 -0.527528 0)
(0.110516 -0.537407 0)
(0.117731 -0.54794 0)
(0.125353 -0.559193 0)
(0.133415 -0.571248 0)
(0.141957 -0.584214 0)
(0.151025 -0.59822 0)
(0.160638 -0.613429 0)
(0.170881 -0.629991 0)
(0.181634 -0.648127 0)
(0.193214 -0.668016 0)
(0.0260504 -0.324316 0)
(0.0406596 -0.492461 0)
(0.0382199 -0.471545 0)
(0.0443138 -0.464118 0)
(0.0496447 -0.470018 0)
(0.0554435 -0.477204 0)
(0.0608064 -0.484306 0)
(0.0660286 -0.491623 0)
(0.0712957 -0.499287 0)
(0.0766506 -0.507351 0)
(0.0821532 -0.515867 0)
(0.0878549 -0.524897 0)
(0.0937914 -0.534497 0)
(0.0999897 -0.544722 0)
(0.106471 -0.555629 0)
(0.113256 -0.567284 0)
(0.120359 -0.579772 0)
(0.127793 -0.593195 0)
(0.13556 -0.607678 0)
(0.143638 -0.623362 0)
(0.152021 -0.64038 0)
(0.160549 -0.658948 0)
(0.169387 -0.679174 0)
(0.022786 -0.359127 0)
(0.033888 -0.49667 0)
(0.0309611 -0.473654 0)
(0.0379772 -0.470273 0)
(0.0429214 -0.476285 0)
(0.0483489 -0.483012 0)
(0.0533726 -0.489911 0)
(0.0582446 -0.497173 0)
(0.063119 -0.504871 0)
(0.0680359 -0.513036 0)
(0.0730485 -0.52171 0)
(0.0781992 -0.530939 0)
(0.0835162 -0.540769 0)
(0.0890182 -0.551246 0)
(0.0947179 -0.562421 0)
(0.100622 -0.574355 0)
(0.106729 -0.587124 0)
(0.113026 -0.600819 0)
(0.119478 -0.615544 0)
(0.126031 -0.631406 0)
(0.132607 -0.648522 0)
(0.139044 -0.667053 0)
(0.145327 -0.687089 0)
(0.0196484 -0.38885 0)
(0.0279951 -0.49852 0)
(0.0248982 -0.476656 0)
(0.0321837 -0.476293 0)
(0.0365475 -0.482069 0)
(0.0414787 -0.488398 0)
(0.0460497 -0.495107 0)
(0.0504689 -0.50229 0)
(0.0548633 -0.50998 0)
(0.0592675 -0.518199 0)
(0.0637251 -0.526972 0)
(0.0682695 -0.536333 0)
(0.0729215 -0.546317 0)
(0.0776931 -0.556961 0)
(0.0825892 -0.568307 0)
(0.0876058 -0.580408 0)
(0.0927268 -0.593326 0)
(0.0979196 -0.60713 0)
(0.103128 -0.621899 0)
(0.108274 -0.637707 0)
(0.113243 -0.65464 0)
(0.117872 -0.672795 0)
(0.122028 -0.692256 0)
(0.0166747 -0.413974 0)
(0.0228883 -0.498809 0)
(0.0197958 -0.480131 0)
(0.0267915 -0.481863 0)
(0.0304925 -0.487279 0)
(0.0348122 -0.493289 0)
(0.0388297 -0.499829 0)
(0.0427054 -0.506922 0)
(0.0465403 -0.514584 0)
(0.0503639 -0.522821 0)
(0.0542098 -0.53165 0)
(0.0581032 -0.54109 0)
(0.0620591 -0.551168 0)
(0.0660842 -0.561912 0)
(0.070177 -0.573355 0)
(0.0743257 -0.585535 0)
(0.0785051 -0.598498 0)
(0.082672 -0.612292 0)
(0.0867612 -0.626967 0)
(0.0906831 -0.642566 0)
(0.0943129 -0.659136 0)
(0.0974867 -0.676717 0)
(0.100024 -0.695358 0)
(0.0138227 -0.434888 0)
(0.0183988 -0.498038 0)
(0.0154235 -0.483645 0)
(0.0216662 -0.486706 0)
(0.0246901 -0.491778 0)
(0.0282991 -0.497543 0)
(0.0316775 -0.503939 0)
(0.0349331 -0.510948 0)
(0.0381417 -0.51857 0)
(0.0413284 -0.526804 0)
(0.0445179 -0.535657 0)
(0.0477286 -0.54514 0)
(0.0509707 -0.555269 0)
(0.0542467 -0.566064 0)
(0.057551 -0.577547 0)
(0.0608679 -0.589745 0)
(0.0641689 -0.602684 0)
(0.0674089 -0.616393 0)
(0.0705235 -0.630895 0)
(0.0734236 -0.646203 0)
(0.0759902 -0.662324 0)
(0.0780643 -0.679248 0)
(0.0794663 -0.696964 0)
(0.010974 -0.451643 0)
(0.0143014 -0.496267 0)
(0.0115949 -0.486544 0)
(0.0167084 -0.490334 0)
(0.0190678 -0.495151 0)
(0.0218925 -0.500738 0)
(0.0245647 -0.50702 0)
(0.0271416 -0.513956 0)
(0.0296747 -0.521537 0)
(0.0321839 -0.529756 0)
(0.0346867 -0.538614 0)
(0.0371954 -0.548115 0)
(0.0397166 -0.558267 0)
(0.0422501 -0.569082 0)
(0.0447887 -0.580572 0)
(0.0473165 -0.592752 0)
(0.0498068 -0.605634 0)
(0.0522195 -0.619227 0)
(0.0544972 -0.633531 0)
(0.0565617 -0.648533 0)
(0.0583088 -0.664201 0)
(0.0595993 -0.680484 0)
(0.0602765 -0.697304 0)
(0.00804798 -0.464225 0)
(0.0104076 -0.493535 0)
(0.00816545 -0.488314 0)
(0.0118669 -0.49241 0)
(0.013569 -0.497093 0)
(0.0155731 -0.502569 0)
(0.0174961 -0.50877 0)
(0.0193568 -0.515652 0)
(0.0211834 -0.523201 0)
(0.0229902 -0.531406 0)