/*--------------------------------*- C++ -*----------------------------------*\
| =========                 |                                                 |
| \\      /  F ield         | OpenFOAM: The Open Source CFD Toolbox           |
|  \\    /   O peration     | Version:  2206                                  |
|   \\  /    A nd           | Website:  www.openfoam.com                      |
|    \\/     M anipulation  |                                                 |
\*---------------------------------------------------------------------------*/
FoamFile
{
    version     2.0;
    format      ascii;
    arch        "LSB;label=32;scalar=64";
    class       volScalarField;
    location    "0.375";
    object      alpha.water;
}
// * * * * * * * * * * * * * * * * * * * * * * * * * * * * * * * * * * * * * //

dimensions      [0 0 0 0 0 0 0];

internalField   nonuniform List<scalar> 
2268
(
0.999999
0.999999
1
1
1
1
1
1
1
1
1
1
1
1
1
1
0.999999
1
1
0.958762
0.822576
0.825981
0.940907
1
1
1
1
1
1
1
1
1
1
1
1
1
1
1
1
0.999999
1
1
0.997869
0.877752
0.910187
0.997925
1
1
1
1
1
1
1
1
1
1
1
1
1
1
1
1
1
1
1
1
0.995982
0.996645
0.997925
1
1
1
1
1
1
1
1
1
1
1
1
1
1
1
1
1
1
1
1
0.999998
0.999991
0.997471
1
1
1
1
1
1
1
1
1
1
1
1
1
1
1
1
1
1
1
1
1
1
0.997541
1
1
1
1
1
1
1
1
1
1
1
1
1
1
1
1
1
1
1
1
1
1
0.997559
1
1
1
1
1
1
1
1
1
1
1
1
1
1
1
1
1
1
1
1
1
1
0.997575
1
1
1
1
1
1
1
1
1
1
1
1
1
1
1
1
1
1
1
1
1
1
0.998223
6.13758e-16
3.15008e-16
2.89959e-17
1.64669e-18
8.80335e-20
8.59966e-21
1.25451e-21
3.76529e-22
3.76627e-22
4.61242e-22
1.92486e-21
4.98545e-21
9.06072e-21
1.4753e-20
1.19912e-20
9.53524e-21
7.26485e-21
2.63677e-21
2.63677e-21
1.31623e-14
1.88215e-14
2.32081e-15
1.89799e-16
1.28106e-17
1.70489e-18
2.9941e-19
4.55759e-20
1.81977e-20
8.13733e-20
2.54588e-19
3.9083e-19
2.76668e-19
8.43796e-20
2.61831e-20
2.37299e-20
4.44496e-20
4.58156e-20
3.54371e-21
9.68724e-14
1.70219e-13
7.35366e-14
1.03102e-14
1.54293e-15
3.76698e-16
7.29425e-17
7.52852e-18
2.06793e-18
7.12692e-18
2.08199e-17
3.29202e-17
2.93717e-17
1.38692e-17
4.43213e-18
3.23171e-18
3.63224e-18
3.51242e-18
4.25516e-19
2.84478e-13
5.74189e-13
5.60346e-13
1.3517e-13
5.15915e-14
2.3797e-14
6.83551e-15
1.12134e-15
3.17997e-16
4.11552e-16
1.09561e-15
1.94296e-15
1.99896e-15
1.05965e-15
3.06699e-16
1.72961e-16
1.54347e-16
1.47509e-16
1.90011e-17
1.09124e-12
1.35058e-12
1.57601e-12
7.33561e-13
3.29952e-13
1.92432e-13
8.51838e-14
3.28382e-14
2.07019e-14
3.50117e-14
4.60581e-14
7.37664e-14
7.87926e-14
4.27938e-14
1.43987e-14
6.99399e-15
5.33367e-15
4.75382e-15
6.62423e-16
2.15626e-12
1.83937e-12
2.01764e-12
1.3539e-12
5.35519e-13
2.64586e-13
2.13576e-13
2.1334e-13
3.5745e-13
7.92773e-13
1.45618e-12
6.88271e-13
1.15971e-12
5.58197e-13
2.7466e-13
2.11186e-13
1.5022e-13
1.31308e-13
2.06016e-14
2.70139e-12
3.74346e-12
1.47044e-11
2.33776e-11
1.79088e-11
8.67608e-13
9.33588e-13
1.35701e-12
2.65894e-12
1.61e-12
1.07984e-11
1.45898e-12
6.62967e-12
2.41693e-12
1.79283e-12
2.40609e-12
1.19824e-12
1.19126e-12
2.01172e-13
2.59192e-12
2.89704e-12
3.04685e-12
3.81365e-12
9.92291e-13
8.79839e-13
9.28566e-13
3.2177e-11
1.49575e-10
6.51541e-12
1.2132e-11
6.20522e-12
1.5392e-11
2.91784e-11
1.95386e-11
7.35653e-12
2.04532e-12
2.39631e-12
3.84186e-13
1
1
0.999999
0.999999
0.999999
0.999999
1
1
1
1
1
1
1
1
1
1
1
1
1
1
1
1
1
1
1
0.999988
0.999984
0.999987
0.99999
0.999992
0.999994
0.999995
0.999996
0.999996
0.999997
0.999999
1
1
1
1
1
1
1
1
1
1
1
0.999909
0.993725
0.992732
0.993898
0.991833
0.988735
0.986451
0.984299
0.981645
0.978938
0.977524
0.978727
0.983094
0.990024
0.998956
1
1
1
1
1
1
1
0.98312
0.77869
0.483787
0.469918
0.479516
0.453625
0.424324
0.406758
0.392334
0.37638
0.361067
0.351221
0.35371
0.370912
0.406439
0.47107
0.602034
0.773075
0.949514
1
1
1
1
0.355434
0.0749474
5.64633e-18
9.633e-17
1.17007e-15
8.17253e-15
4.06961e-14
1.71632e-13
2.74779e-13
3.18664e-13
4.54724e-13
9.10907e-12
1.76749e-11
1.76716e-11
2.84738e-09
2.456e-08
0.00694491
0.0417472
0.130774
0.313825
0.611131
0.925729
0.999999
-1.04717e-20
0
2.97942e-19
5.7045e-18
9.6386e-17
1.17007e-15
8.17253e-15
6.31226e-13
5.31595e-13
7.65294e-13
2.1838e-12
1.10214e-11
1.76751e-11
2.26146e-11
2.17322e-08
6.86751e-08
3.22691e-06
8.05584e-06
0.000154987
0.000450638
0.0204879
0.142287
0.418924
0
1.31905e-18
2.73725e-16
6.05449e-15
6.44063e-14
3.82825e-13
1.77182e-12
1.24311e-11
2.26814e-11
4.44386e-11
1.69162e-08
7.62721e-09
2.28373e-11
6.48203e-06
5.34684e-05
0.000207563
0.000298224
0.000257468
0.000257115
0.000283946
0.000429238
0.000309935
0.00137909
4.36611e-36
1.58793e-18
9.08601e-16
4.52838e-14
5.7015e-13
2.7719e-12
6.92043e-12
2.0521e-11
2.14043e-10
1.6622e-09
2.06676e-07
3.9073e-08
1.49889e-10
6.75046e-05
0.000469278
0.000610512
0.00061054
0.000610131
0.000610533
0.000605034
0.000491226
0.00010929
0.000119476
-1.37206e-18
1.24314e-18
1.01066e-15
7.57779e-14
1.05103e-12
4.75577e-12
1.01645e-11
1.95129e-11
6.84188e-10
5.65796e-09
2.34983e-07
6.11911e-08
9.3237e-08
0.000108524
0.000443298
0.000608454
0.000610512
0.000610559
0.000529212
0.000605101
0.000505429
8.26756e-05
8.5234e-05
-2.53615e-18
-1.38612e-34
8.01151e-16
8.00003e-14
1.15511e-12
5.2694e-12
1.09556e-11
1.17422e-11
1.07833e-09
3.91816e-09
2.34983e-07
7.83895e-08
1.49034e-06
1.37968e-05
2.4127e-10
0.000168382
0.000499626
0.000595569
0.000126353
0.000188222
0.000148726
8.02723e-05
8.21744e-05
-3.39015e-18
-1.90323e-18
4.61585e-16
6.97555e-14
1.06408e-12
4.73616e-12
1.08889e-11
7.85848e-12
1.12408e-09
1.64574e-09
9.8195e-08
1.14758e-07
1.87839e-06
1.49818e-10
7.70843e-11
1.86883e-10
2.21657e-08
0.000125138
0.000156488
9.77285e-05
8.13043e-05
8.05802e-05
8.80398e-05
-4.06284e-18
-1.05918e-17
1.68157e-16
4.13633e-14
6.54814e-13
2.4964e-12
9.66761e-12
6.99004e-12
8.15821e-10
5.74524e-09
5.69897e-09
1.964e-08
1.44392e-08
1.0028e-09
4.40619e-11
6.82318e-13
3.91797e-11
4.18857e-05
0.000535116
0.000549685
0.000549685
0.000537295
0.00053314
-4.40301e-18
-1.38834e-17
3.37735e-17
1.53219e-14
2.48081e-13
1.00083e-12
6.47866e-12
6.98098e-12
2.4818e-10
7.23882e-09
6.6736e-09
4.7901e-09
3.81554e-09
3.47394e-09
4.37931e-11
3.03278e-13
3.46759e-13
6.75386e-13
4.85751e-12
2.50333e-06
5.81436e-05
0.000142218
0.000208619
-4.28806e-18
-1.52486e-17
-1.16657e-18
3.97352e-15
6.57263e-14
3.3497e-13
4.0383e-12
9.20446e-12
9.18231e-12
3.11522e-09
7.20653e-09
1.06719e-08
1.06802e-08
3.75188e-09
3.94728e-11
3.03278e-13
3.03278e-13
3.49034e-13
6.90154e-13
4.86643e-12
2.29399e-11
8.85832e-11
8.91402e-09
-3.72571e-18
-1.45928e-17
-8.1892e-18
7.56126e-16
1.3242e-14
9.49088e-14
2.12962e-12
9.97933e-12
1.06484e-11
7.8826e-12
1.09731e-09
7.47261e-09
6.59581e-09
7.99832e-10
6.42374e-12
1.0213e-12
3.41868e-12
1.53789e-11
3.07965e-11
2.90053e-11
3.2022e-11
3.48776e-11
4.58538e-11
-2.85884e-18
-1.21023e-17
-1.05983e-17
1.02082e-16
2.03571e-15
2.41398e-14
7.86733e-13
6.90093e-12
1.04719e-11
7.89072e-12
1.97969e-12
5.78619e-10
8.16874e-13
3.18638e-12
6.41824e-12
1.63537e-12
1.56975e-12
4.05655e-12
9.86138e-12
1.90465e-11
4.91512e-11
9.77123e-11
5.42353e-11
-1.91064e-18
-8.59371e-18
-9.56291e-18
7.63609e-18
2.32064e-16
5.34836e-15
1.96761e-13
2.38431e-12
6.98531e-12
6.87858e-12
2.40399e-12
8.16874e-13
8.13599e-13
1.8709e-12
3.22304e-12
1.4363e-12
2.36391e-13
2.89934e-13
6.83067e-13
1.87607e-12
5.61136e-12
2.94146e-11
5.42429e-11
-1.09195e-18
-5.13413e-18
-6.79451e-18
-5.39753e-19
1.83519e-17
9.94278e-16
3.84118e-14
4.77735e-13
1.81366e-12
2.8163e-12
2.80879e-12
1.51966e-12
8.19514e-13
3.06989e-13
1.75185e-13
7.67834e-14
2.41422e-14
3.63045e-14
1.27488e-13
5.13134e-13
1.76829e-12
8.25871e-12
3.22059e-11
-5.20942e-19
-2.52095e-18
-3.86817e-18
-8.53779e-19
7.85118e-19
1.51188e-16
6.04888e-15
6.80189e-14
2.8636e-13
6.80748e-13
9.63416e-13
8.84441e-13
4.20363e-13
9.05644e-14
1.40032e-14
1.94457e-15
1.8114e-15
4.50681e-15
2.50998e-14
1.4623e-13
6.79958e-13
3.54233e-12
1.14956e-11
-2.00923e-19
-9.86399e-19
-1.72197e-18
-4.52347e-19
-2.79089e-20
1.87124e-17
7.87946e-16
8.31791e-15
3.97393e-14
1.17775e-13
1.55242e-13
1.44843e-13
8.17128e-14
2.00391e-14
1.50588e-15
5.02169e-17
8.19619e-17
5.96831e-16
5.91434e-15
4.80157e-14
2.95616e-13
1.69984e-12
4.86891e-12
-5.99529e-20
-2.94842e-19
-5.69937e-19
-1.50443e-19
-2.33766e-20
1.87068e-18
8.51821e-17
1.08049e-15
4.82268e-15
1.58611e-14
2.04503e-14
1.79355e-14
1.10875e-14
3.60207e-15
3.67497e-16
4.82589e-18
5.75064e-18
1.1597e-16
1.62709e-15
1.66507e-14
1.29991e-13
8.49443e-13
2.87045e-12
-1.29745e-20
-6.32849e-20
-1.30299e-19
-3.32755e-20
-5.2504e-21
1.36419e-19
7.41989e-18
1.2753e-16
6.01121e-16
1.73991e-15
2.15905e-15
1.87067e-15
1.03971e-15
2.4876e-16
1.07501e-17
-1.43854e-18
-2.47402e-18
2.39293e-17
4.62764e-16
5.75435e-15
5.55312e-14
4.37727e-13
1.84432e-12
-1.82651e-21
-8.79621e-21
-1.86528e-20
-4.58406e-21
-7.22752e-22
5.13454e-21
4.30122e-19
1.04393e-17
6.1101e-17
1.37714e-16
1.77674e-16
1.55048e-16
8.59785e-17
1.46161e-17
-8.4451e-19
-7.43985e-18
-4.97397e-18
3.41986e-18
1.30922e-16
1.92484e-15
2.24595e-14
2.10422e-13
9.79666e-13
-1.29303e-22
-6.23464e-22
-1.40707e-21
-3.3269e-22
-5.32252e-23
-5.69123e-25
1.0605e-20
4.68204e-19
3.18603e-18
6.76192e-18
9.51271e-18
8.25033e-18
3.33088e-18
-5.15504e-19
-6.10955e-18
-6.49534e-18
-3.72015e-18
-6.57405e-20
3.62051e-17
6.01262e-16
8.42382e-15
9.1201e-14
4.4278e-13
-1.29114e-31
-5.95637e-30
-1.76122e-28
-3.431e-27
-4.97955e-26
-5.37558e-25
3.60219e-23
7.60801e-21
5.99927e-20
1.86176e-19
2.06729e-19
1.24652e-19
-2.21448e-19
-1.92871e-18
-3.34247e-18
-2.83389e-18
-1.4947e-18
-1.09483e-19
9.50968e-18
1.708e-16
2.81685e-15
3.46997e-14
1.76278e-13
-7.20613e-32
-3.26888e-30
-9.94422e-29
-1.97343e-27
-2.98098e-26
-3.57147e-25
-3.0298e-24
-4.54697e-24
2.60676e-23
1.33243e-40
-2.05697e-21
-2.89795e-20
-2.46917e-19
-7.39486e-19
-9.9987e-19
-7.52315e-19
-3.62728e-19
-1.60295e-20
2.3311e-18
4.33405e-17
8.19683e-16
1.13588e-14
5.94547e-14
-3.1549e-32
-1.40941e-30
-4.37816e-29
-8.7781e-28
-1.34004e-26
-1.64159e-25
-1.61402e-24
-1.11757e-23
-5.76504e-23
-3.20747e-22
-2.16028e-21
-1.36385e-20
-5.91524e-20
-1.38924e-19
-1.66197e-19
-1.1468e-19
-4.91574e-20
1.03502e-20
5.12665e-19
9.70496e-18
2.05783e-16
3.19485e-15
1.73826e-14
-1.01893e-32
-4.4825e-31
-1.40826e-29
-2.81563e-28
-4.2705e-27
-5.24049e-26
-5.23282e-25
-4.16938e-24
-2.65687e-23
-1.4258e-22
-7.19425e-22
-3.05563e-21
-9.12283e-21
-1.76773e-20
-1.77638e-20
-1.08075e-20
-3.70593e-21
3.62663e-21
9.76381e-20
1.9097e-18
4.4689e-17
7.93264e-16
4.5543e-15
-2.16878e-33
-9.38073e-32
-2.94413e-30
-5.75337e-29
-8.3981e-28
-9.88925e-27
-9.62012e-26
-7.6915e-25
-4.96032e-24
-2.53653e-23
-1.02217e-22
-3.24964e-22
-7.98423e-22
-1.34267e-21
-1.02256e-21
-4.93041e-22
-8.04564e-23
7.19569e-22
1.60831e-20
3.30005e-19
8.52973e-18
1.76809e-16
1.08845e-15
-2.32201e-34
-9.85033e-33
-3.03982e-31
-5.62261e-30
-7.40745e-29
-7.4768e-28
-6.01268e-27
-3.95684e-26
-2.17168e-25
-1.00556e-24
-3.93324e-24
-1.27615e-23
-3.18604e-23
-4.74273e-23
-2.87621e-23
-9.90408e-24
3.69809e-24
9.72351e-23
2.257e-21
5.00896e-20
1.44485e-18
3.57904e-17
2.37491e-16
-1.56619e-36
-6.87127e-35
-2.19753e-33
-4.31187e-32
-6.162e-31
-6.90084e-30
-6.28546e-29
-4.76684e-28
-3.05097e-27
-1.65434e-26
-7.51527e-26
-2.7123e-25
-6.49548e-25
-4.28477e-25
-1.67217e-25
8.75726e-26
4.51693e-25
1.04714e-23
2.6475e-22
6.67797e-21
2.19212e-19
6.70636e-18
4.55107e-17
-3.42855e-39
-1.78396e-37
-6.68518e-36
-1.55236e-34
-2.64387e-33
-3.54232e-32
-3.86947e-31
-3.52282e-30
-2.69517e-29
-1.71989e-28
-8.79142e-28
-3.13976e-27
-4.8449e-27
-2.37724e-27
-7.20584e-28
1.94104e-28
2.976e-26
8.94995e-25
2.59661e-23
7.98872e-22
3.10111e-20
1.17229e-18
7.20849e-18
-6.20183e-42
-3.76419e-40
-1.6275e-38
-4.40625e-37
-8.81939e-36
-1.39644e-34
-1.80468e-33
-1.93323e-32
-1.71227e-31
-1.20865e-30
-5.96421e-30
-1.33166e-29
-5.90261e-30
-1.54715e-30
-2.75843e-31
2.76402e-29
1.85435e-27
6.37141e-26
2.37222e-24
9.16276e-23
4.20959e-21
1.8098e-19
9.26291e-19
-3.76022e-45
-2.99451e-43
-1.64602e-41
-5.62882e-40
-1.40808e-38
-2.74351e-37
-4.2761e-36
-5.34603e-35
-5.10706e-34
-3.15445e-33
-5.70635e-33
-2.08886e-33
-4.55208e-34
-5.14763e-35
8.17046e-34
1.85822e-30
1.05882e-28
4.77283e-27
2.26695e-25
9.88819e-24
4.79235e-22
2.13759e-20
1.08748e-19
-8.72241e-49
-9.1968e-47
-6.31616e-45
-2.64032e-43
-7.90388e-42
-1.78153e-40
-2.98962e-39
-3.34403e-38
-1.65804e-37
-4.86457e-38
-1.17748e-38
-1.0667e-37
-3.11376e-38
1.5101e-38
1.521e-35
1.06419e-31
6.03363e-30
3.15552e-28
1.72108e-26
7.92178e-25
3.70054e-23
1.67586e-21
1.3809e-20
-4.16408e-54
-5.16708e-52
-3.55626e-50
-1.17771e-48
-1.50077e-47
-2.30142e-48
-3.22884e-49
-7.39911e-47
-3.47259e-44
-9.6587e-42
-1.37445e-39
-4.09426e-38
-1.3014e-38
-1.44682e-39
8.3021e-37
3.96495e-33
2.94495e-31
1.55206e-29
8.84269e-28
4.27527e-26
2.04729e-24
9.68284e-23
1.58114e-21
5.20658e-71
-2.50048e-65
-1.22713e-61
-1.78611e-58
-1.35633e-55
-7.12908e-53
-3.33583e-50
-1.70885e-47
-7.22496e-45
-2.05185e-42
-2.79751e-40
-8.05781e-39
-2.28389e-39
-2.20192e-40
4.02273e-38
1.03715e-34
9.19428e-33
6.19499e-31
2.96749e-29
1.75742e-27
1.03305e-25
5.36008e-24
1.1508e-22
1.14322e-71
-8.48564e-66
-4.14814e-62
-6.02524e-59
-4.49622e-56
-2.17398e-53
-6.88819e-51
-1.52683e-48
-2.75637e-46
-5.28805e-44
-5.99101e-42
-1.30183e-42
-1.57831e-43
-1.24594e-42
4.4223e-40
1.59639e-36
2.18708e-34
1.44786e-32
9.25151e-31
7.5442e-29
3.29034e-27
1.83099e-25
5.7652e-24
3.29779e-74
-1.46565e-66
-7.10946e-63
-1.03202e-59
-7.6454e-57
-3.6393e-54
-1.08987e-51
-1.92916e-49
-1.55784e-47
-3.90378e-46
-2.74672e-44
-4.62928e-45
-4.5795e-46
-9.91166e-43
5.75887e-42
1.11132e-38
1.98956e-36
2.00348e-34
1.75383e-32
1.37662e-30
8.08997e-29
6.52012e-27
1.72807e-25
-4.41095e-81
-2.14863e-70
-1.2403e-66
-2.21374e-63
-1.96867e-60
-9.78166e-58
-2.52891e-55
-2.76333e-53
-2.50455e-54
-1.29931e-55
-5.09134e-57
-9.99551e-58
-3.25456e-52
-2.61848e-43
-2.05624e-44
1.16529e-42
7.82177e-40
1.29279e-37
2.80485e-35
3.90326e-33
5.84998e-31
8.58832e-29
3.10511e-27
-7.0936e-82
-3.81577e-77
-3.05183e-73
-4.72413e-70
-2.31439e-67
-8.1649e-69
-1.72907e-70
-3.35533e-71
-1.46941e-67
-4.33804e-64
-6.66146e-61
-3.30665e-58
-6.75037e-53
-6.79487e-53
-5.33545e-54
4.07159e-50
3.58779e-47
7.2982e-44
2.67732e-41
9.73737e-39
3.52626e-36
1.38782e-33
5.08548e-32
0
0
-1.93775e-93
-1.21562e-88
-1.86195e-84
-5.34759e-80
-7.79302e-76
-5.95396e-72
-2.84154e-68
-8.59755e-65
-1.31366e-61
-6.67877e-59
-1.60528e-60
-2.12108e-62
-2.04219e-64
-4.07754e-66
3.84204e-65
3.27079e-59
0
5.79353e-53
1.33544e-50
1.70575e-48
2.01384e-46
0.521326
6.95381e-06
2.60028e-12
2.59609e-12
0.757228
0.0136746
6.95381e-06
2.60028e-12
0.999792
0.626068
0.0869805
0.0286419
0.999999
0.999581
0.823011
0.691865
0.999581
0.999176
0.998413
0.994677
0.791806
0.998413
0.995566
0.993578
0.0896645
0.315123
0.55736
0.704565
0.000218307
0.000444981
0.0120457
0.0440689
9.27077e-05
0.000114398
0.000357652
0.000910434
8.5234e-05
9.56796e-05
0.000388129
0.00127035
0.000447174
0.000576718
0.000569247
0.000356236
0.000508775
0.000328762
6.81798e-05
9.59552e-08
6.63308e-05
2.63865e-06
2.36572e-08
5.54536e-09
1.01679e-08
3.74344e-09
4.69552e-09
3.92294e-09
9.84246e-11
1.73997e-09
4.90061e-09
5.08014e-09
5.55063e-11
1.755e-09
4.98801e-09
5.3358e-09
5.42008e-11
1.24426e-09
4.23035e-09
5.12837e-09
5.45849e-11
2.64192e-10
1.16506e-09
2.11641e-09
8.31172e-11
2.17692e-10
1.80335e-10
1.33286e-09
9.11934e-11
1.95538e-10
1.77739e-10
1.24431e-08
4.27098e-11
1.76654e-10
1.75959e-10
3.16569e-09
1.23204e-11
1.11592e-10
2.03553e-10
2.02072e-10
6.82118e-12
5.93455e-11
1.8327e-10
2.22276e-10
3.71807e-12
2.98954e-11
7.32377e-11
2.17683e-10
1.69393e-12
1.47752e-11
3.00347e-11
2.01396e-10
7.47759e-13
6.20517e-12
1.64186e-11
2.17266e-10
3.27933e-13
2.71751e-12
1.01063e-11
2.0407e-10
1.37058e-13
1.33297e-12
6.77261e-12
1.03913e-10
5.4696e-14
5.98492e-13
4.63585e-12
4.10728e-11
1.92471e-14
2.44209e-13
2.46515e-12
2.07579e-11
5.55745e-15
8.87434e-14
9.80628e-13
1.15525e-11
1.28674e-15
2.7016e-14
4.13939e-13
6.60332e-12
2.33665e-16
6.80343e-15
2.01894e-13
4.32508e-12
3.312e-17
1.41429e-15
9.87229e-14
2.99166e-12
3.7072e-18
2.25398e-16
5.26554e-14
1.84179e-12
3.25805e-19
2.4695e-17
2.59657e-14
8.3794e-13
2.02211e-20
1.46628e-18
9.76379e-15
2.66166e-13
7.97918e-22
2.55772e-20
2.439e-15
5.73753e-14
8.94548e-24
2.62453e-21
3.48541e-16
7.98079e-15
2.41382e-25
6.91947e-23
2.15115e-17
6.53964e-16
2.13509e-29
3.3556e-24
6.03058e-19
1.61934e-17
0
3.36353e-69
-4.75897e-38
-4.41977e-34
2.59192e-12
2.86692e-12
3.63224e-12
6.80717e-13
-7.29971e-12
-1.02387e-11
4.43502e-10
8.13896e-10
9.75239e-09
5.35337e-10
6.26407e-11
1.58767e-10
1.47735e-10
6.43004e-10
3.68066e-10
1.12169e-10
2.35338e-11
2.99595e-11
5.50188e-12
2.97141e-12
9.35063e-12
1.04925e-10
1.04383e-06
2.70912e-05
2.45572e-08
9.11146e-09
1.79705e-07
5.86235e-07
4.64839e-08
3.47746e-08
4.32163e-09
2.56914e-09
8.1396e-09
4.28452e-09
1.24129e-09
1.46692e-10
2.15876e-10
5.89082e-11
0.14075
1.15677e-08
1.88744e-07
2.10883e-06
0.00055401
8.44901e-07
2.48522e-08
6.45174e-06
0.000167431
4.52948e-06
7.79953e-06
1.81788e-07
7.12388e-08
2.25308e-07
1.20661e-07
2.31501e-08
2.67344e-09
3.52118e-09
8.37797e-10
0.834962
0.730281
0.238264
0.210692
0.524253
0.110091
8.44901e-07
1.2872e-06
1.34312e-05
2.66701e-05
1.72327e-05
5.61343e-06
1.58753e-06
5.04077e-06
2.36417e-06
5.17963e-07
3.38915e-08
5.31405e-08
1.55453e-08
0.99156
0.991078
0.938169
0.925691
0.981272
0.936355
0.382804
0.197187
0.420235
0.247061
3.52079e-05
0.00962192
3.89763e-05
8.26755e-05
3.79305e-05
5.69067e-06
5.69796e-07
6.478e-07
2.42112e-07
0.992663
0.99156
0.991078
0.989172
0.987091
0.986596
0.972993
0.921794
0.946178
0.928771
0.761352
0.630777
0.145851
0.0304145
0.000444115
5.2629e-05
5.95459e-06
6.33957e-06
3.32593e-06
0.777984
0.816095
0.842155
0.871244
0.90826
0.945599
0.968602
0.960105
0.957264
0.95373
0.952142
0.947278
0.936906
0.733908
0.123913
0.000411141
5.12499e-05
5.41393e-05
3.7473e-05
0.0742163
0.0975144
0.120744
0.147429
0.181736
0.226934
0.325432
0.485424
0.626848
0.804518
0.947278
0.941849
0.940166
0.940166
0.838892
0.214656
0.000411788
0.000368361
0.000333448
0.000989316
0.000419014
9.71093e-05
8.2058e-05
0.000103238
0.000175732
0.000354336
0.0050809
0.0254203
0.0713443
0.182506
0.535958
0.940166
0.937071
0.93228
0.821249
0.204699
0.00751676
0.0100675
0.00125945
0.000507656
2.84506e-06
5.2938e-07
1.37659e-06
4.48271e-06
1.34071e-05
3.01075e-05
5.33043e-05
0.000115898
0.000337715
0.00641485
0.166627
0.772819
0.929236
0.918638
0.740608
0.185893
0.0298838
0.000119053
2.23716e-05
7.59638e-08
4.01514e-08
4.21321e-08
9.78518e-08
5.088e-07
8.5633e-07
2.99978e-06
5.33742e-06
1.99006e-05
8.90739e-05
0.000637505
0.11531
0.758505
0.910885
0.901605
0.530426
0.0525079
2.57436e-08
8.78311e-09
4.27313e-09
5.16503e-09
5.33907e-09
6.38648e-09
1.80114e-07
8.25796e-07
7.27528e-07
1.04377e-06
1.78786e-06
6.81362e-06
5.22468e-05
0.000622671
0.256849
0.870505
0.894487
0.692606
0.0961908
3.79951e-09
3.49784e-09
3.47342e-09
4.84082e-09
5.16503e-09
5.33907e-09
6.85775e-07
8.78832e-07
7.05973e-07
7.06454e-07
8.29192e-07
1.36935e-06
5.5134e-06
5.24003e-05
0.000622701
0.627737
0.891502
0.661924
0.113748
3.53296e-09
3.47718e-09
3.47484e-09
6.75507e-09
6.11813e-09
6.48267e-09
3.96181e-08
4.26083e-08
6.43839e-07
6.54766e-07
7.12187e-07
8.44577e-07
1.37893e-06
5.5138e-06
5.84836e-05
0.376113
0.879498
0.596174
0.121992
4.64223e-09
3.56705e-09
3.46876e-09
3.46976e-09
6.72056e-07
9.45432e-07
3.27567e-07
5.60688e-08
7.15857e-08
1.67581e-05
1.39942e-05
1.5699e-06
2.43095e-06
3.11311e-06
8.48444e-06
0.205779
0.849294
0.584299
0.122399
5.11781e-09
3.71808e-09
3.46976e-09
3.46959e-09
1.22414e-06
3.20176e-06
3.20085e-06
1.01587e-06
1.79687e-07
2.55224e-05
4.36275e-05
2.62131e-05
4.11608e-06
4.63209e-06
6.03089e-06
0.0940368
0.789067
0.650584
0.127823
4.27329e-09
3.72636e-09
3.47885e-09
3.46976e-09
3.52002e-09
1.86945e-06
3.20176e-06
1.48818e-06
1.91074e-07
8.66245e-06
4.52207e-05
4.63249e-05
8.26804e-06
6.33376e-06
6.26232e-06
0.0159251
0.678819
0.676886
0.182773
6.04214e-09
2.08364e-08
2.08963e-08
7.93515e-09
3.65317e-09
3.87331e-09
1.11029e-07
1.90608e-07
1.93936e-07
1.93353e-07
2.7848e-05
4.72155e-05
4.64407e-05
7.65026e-06
6.00206e-06
6.26232e-06
0.548024
0.674443
0.235055
3.41369e-08
4.89552e-08
4.88781e-08
1.43932e-08
3.87331e-09
7.11795e-07
1.51359e-06
6.44071e-07
1.90587e-07
2.00933e-07
2.00206e-05
4.79691e-05
4.80757e-05
1.93681e-05
5.79582e-06
6.00206e-06
0.4396
0.673677
0.211663
4.81985e-08
4.87982e-08
4.89078e-08
1.70218e-08
4.36583e-09
1.03654e-06
1.51359e-06
7.07489e-07
2.00933e-07
3.13349e-06
4.47936e-05
4.81082e-05
4.80485e-05
2.74502e-05
5.65511e-06
0.00032837
0.433556
0.455427
0.19049
1.17926e-08
3.00087e-08
3.62775e-08
3.06934e-08
1.64733e-08
1.87791e-08
2.23877e-08
2.28302e-08
1.18471e-05
4.58436e-05
4.81063e-05
4.80776e-05
4.80776e-05
1.39535e-05
5.3007e-06
6.09054e-06
0.307647
0.456869
0.19049
2.02874e-10
2.04089e-10
2.17872e-10
3.6408e-09
1.1576e-07
2.11466e-08
2.21704e-08
8.34938e-06
4.70705e-05
4.79496e-05
4.78765e-05
4.80776e-05
1.60534e-05
5.17889e-06
5.14562e-06
5.24624e-06
0.2547
0.459773
0.191414
2.19287e-10
9.90907e-10
6.64849e-10
6.84761e-10
4.48773e-07
1.05945e-06
2.40683e-08
1.75489e-05
4.64779e-05
4.77717e-05
3.10503e-05
1.1457e-05
5.17889e-06
5.08694e-06
5.07262e-06
5.09116e-06
0.260884
0.463324
0.260764
2.17748e-10
3.55736e-09
2.85175e-09
6.90941e-10
7.36181e-10
7.62135e-06
1.35367e-05
2.80043e-05
3.3071e-05
1.23126e-05
5.66874e-06
5.19697e-06
5.08694e-06
5.07858e-06
5.07925e-06
0.0330133
0.412406
0.467304
0.46847
2.76021e-10
3.79951e-09
3.94471e-09
8.03844e-10
7.88715e-10
1.15391e-05
1.61384e-05
1.56472e-05
6.03941e-06
5.27188e-06
5.22203e-06
5.23904e-06
5.19697e-06
0.0397554
0.0651483
0.352248
0.467304
0.468596
0.470031
2.17149e-10
1.82534e-09
5.98323e-09
9.03321e-10
9.69454e-10
4.86178e-07
1.61384e-05
1.09914e-05
5.14062e-06
5.14062e-06
5.18791e-06
5.22203e-06
0.123918
0.249687
0.235304
0.227689
0.399268
0.469367
0.469238
2.45829e-10
5.42208e-11
7.98208e-09
1.04202e-09
1.27356e-06
2.33835e-06
1.2345e-05
6.13688e-06
4.81957e-06
5.10366e-06
5.14062e-06
0.0701797
0.249687
0.249687
0.225384
0.0346875
0.108799
0.350992
0.345377
2.28911e-10
2.27942e-11
7.63586e-09
1.30909e-09
3.56013e-06
5.78414e-06
3.82496e-06
1.54185e-06
1.92796e-06
0.0100029
0.0358444
0.121161
0.142106
0.111784
0.0394414
0.00215213
0.00643516
0.0450719
0.0406111
1.10863e-10
2.03781e-11
2.40827e-09
1.76077e-09
2.00778e-09
4.61587e-06
1.81153e-06
1.42521e-06
0.00804528
0.083672
0.0820576
0.03428
0.00285562
0.00064423
0.000522915
0.000686628
0.00186007
0.00447917
0.00325227
3.19673e-11
2.01806e-11
2.03781e-11
8.39583e-09
2.34554e-09
1.50172e-06
1.40526e-06
1.40085e-06
0.0217591
0.0855467
0.0632828
0.00298995
0.000593808
0.000173465
0.000116312
0.000162964
0.000548109
0.00162491
0.00122193
1.90075e-11
1.35812e-11
9.39997e-11
1.24474e-08
1.06824e-08
1.02177e-05
4.75677e-06
1.42521e-06
0.0226541
0.087242
0.0594105
0.00177597
0.000173532
9.60999e-05
4.58001e-05
4.27218e-05
0.000134617
0.000527128
0.000862024
1.57666e-11
1.33789e-11
1.0273e-10
5.78782e-09
3.26384e-09
7.87527e-06
1.12946e-05
1.6878e-06
0.0242029
0.0913918
0.0664869
0.00321517
8.63905e-05
4.89697e-05
2.96019e-05
1.95827e-05
4.31283e-05
0.00013669
0.000866415
1.25771e-11
1.25514e-11
1.05235e-09
1.07812e-09
1.39858e-09
4.2388e-09
1.22804e-05
2.34111e-06
0.0132289
0.0932013
0.104388
0.0108433
8.3863e-05
2.96442e-05
1.97378e-05
1.34477e-05
1.92467e-05
4.36105e-05
0.000842591
8.93805e-12
1.62061e-11
1.83957e-10
4.4796e-09
3.5842e-09
1.16762e-08
1.43008e-05
4.01792e-06
4.65603e-06
0.0824804
0.113902
0.0405075
0.000145984
2.62709e-05
1.34398e-05
1.1589e-05
1.29329e-05
1.9909e-05
0.000749587
5.03048e-12
2.78912e-11
9.05623e-11
9.05951e-09
2.81487e-07
9.39669e-08
9.18295e-05
3.58439e-05
4.7555e-06
0.0572449
0.117195
0.0660071
0.000664111
2.67322e-05
1.1589e-05
9.31685e-06
1.1589e-05
1.2938e-05
0.000209423
2.17675e-12
9.22394e-12
2.79924e-11
2.8992e-09
3.48594e-07
1.1271e-05
0.000199686
7.47235e-05
6.68844e-06
0.0296184
0.122599
0.126402
0.0210618
4.75083e-05
9.31685e-06
6.31342e-06
1.19459e-05
8.49393e-05
5.9915e-05
3.52916e-13
9.8124e-13
4.38538e-11
2.18992e-09
5.76223e-08
1.8897e-05
0.000400807
0.000494501
2.70021e-05
4.4949e-05
0.115842
0.126983
0.0439561
3.11677e-05
6.31342e-06
5.50055e-06
2.49547e-05
0.000525116
4.45691e-05
1.51088e-15
2.78566e-14
-1.50148e-25
2.2026e-10
1.5999e-08
2.05525e-06
0.000309819
0.000584791
0.000162719
7.23145e-05
0.0909953
0.129327
0.131637
0.0102158
5.49918e-06
5.50055e-06
3.80562e-05
0.000661514
4.10536e-05
4.12928e-16
5.01488e-17
-1.02547e-16
-5.57247e-13
-1.02174e-12
1.6884e-10
1.92848e-08
0.000282695
0.000316683
4.62226e-05
0.0676734
0.132129
0.132881
0.0463265
7.1919e-06
5.50055e-06
0.000121243
0.000691412
4.09846e-05
5.37247e-17
3.82583e-19
-1.54986e-15
-6.86985e-16
-2.27129e-14
-4.50236e-14
-3.59517e-11
2.01438e-10
1.10919e-05
8.43763e-06
0.0294291
0.132881
0.132881
0.132881
0.0070044
7.1919e-06
0.00033952
0.000700656
5.50843e-05
1.03499e-18
6.59435e-22
-1.81152e-17
-3.29335e-18
-1.23528e-15
-3.43802e-14
-2.09574e-14
-4.0001e-17
-5.89155e-16
7.46807e-06
2.04865e-24
0.118426
0.132881
0.132719
0.0688956
1.20163e-05
0.000274758
0.000697774
9.24207e-05
-7.99032e-31
-1.10697e-27
-1.41553e-22
-1.54026e-23
-1.28644e-18
-5.44999e-16
-8.4309e-14
-9.89744e-15
-6.27683e-16
-8.98251e-15
-5.79139e-15
0.000556128
0.0372762
0.13207
0.0561065
1.54661e-05
0.000119725
0.00052664
6.53259e-05
)
;

boundaryField
{
    leftWall
    {
        type            zeroGradient;
    }
    rightWall
    {
        type            zeroGradient;
    }
    lowerWall
    {
        type            zeroGradient;
    }
    atmosphere
    {
        type            inletOutlet;
        inletValue      uniform 0;
        value           nonuniform List<scalar> 
46
(
0
0
0
0
0
0
0
0
0
0
0
0
0
0
0
0
0
0
0
0
0
0
0
0
0
0
0
0
0
0
0
0
0
0
0
0
0
0
0
0.0372762
0.13207
0.0561065
1.54661e-05
0.000119725
0.00052664
6.53259e-05
)
;
    }
    defaultFaces
    {
        type            empty;
    }
}


// ************************************************************************* //
