/*--------------------------------*- C++ -*----------------------------------*\
| =========                 |                                                 |
| \\      /  F ield         | OpenFOAM: The Open Source CFD Toolbox           |
|  \\    /   O peration     | Version:  2206                                  |
|   \\  /    A nd           | Website:  www.openfoam.com                      |
|    \\/     M anipulation  |                                                 |
\*---------------------------------------------------------------------------*/
FoamFile
{
    version     2.0;
    format      ascii;
    arch        "LSB;label=32;scalar=64";
    class       surfaceScalarField;
    location    "0.375";
    object      alphaPhi0.water;
}
// * * * * * * * * * * * * * * * * * * * * * * * * * * * * * * * * * * * * * //

dimensions      [0 3 -1 0 0 0 0];

oriented        oriented;

internalField   nonuniform List<scalar> 
4432
(
-2.78378e-06
2.78378e-06
-1.14066e-06
-1.64312e-06
3.97932e-06
-5.11998e-06
1.05268e-05
-6.54747e-06
1.69279e-05
-6.4011e-06
2.23846e-05
-5.45674e-06
2.67082e-05
-4.32357e-06
3.0025e-05
-3.31679e-06
3.25566e-05
-2.53164e-06
3.45019e-05
-1.94526e-06
3.59838e-05
-1.48188e-06
3.70324e-05
-1.04861e-06
3.75658e-05
-5.33438e-07
3.73245e-05
2.41348e-07
3.58163e-05
1.50815e-06
3.2343e-05
3.47326e-06
2.59679e-05
6.37518e-06
1.59912e-05
9.97665e-06
3.55417e-06
1.2437e-05
-6.83208e-06
1.14967e-05
-1.43772e-05
7.42011e-06
-1.54032e-05
2.15975e-07
-1.7523e-05
-2.79458e-06
5.57836e-06
-9.1693e-07
-3.52077e-06
4.26378e-06
-1.03007e-05
1.08009e-05
-1.30846e-05
1.71519e-05
-1.27521e-05
2.25494e-05
-1.08542e-05
2.68302e-05
-8.60444e-06
3.0136e-05
-6.6226e-06
3.26926e-05
-5.08816e-06
3.46924e-05
-3.94513e-06
3.62491e-05
-3.03854e-06
3.73903e-05
-2.18987e-06
3.80969e-05
-1.24002e-06
3.83707e-05
-3.24453e-08
3.83015e-05
1.57737e-06
3.77869e-05
3.98779e-06
3.62903e-05
7.87182e-06
3.21317e-05
1.41353e-05
2.2737e-05
2.18317e-05
7.39202e-06
2.69831e-05
-6.44455e-06
2.33481e-05
-9.59525e-06
2.54169e-06
-2.711e-05
-2.52854e-06
8.1069e-06
-5.13932e-07
-5.53538e-06
4.70918e-06
-1.55238e-05
1.11744e-05
-1.95499e-05
1.73701e-05
-1.89477e-05
2.25929e-05
-1.6077e-05
2.67342e-05
-1.27458e-05
2.99652e-05
-9.85361e-06
3.25164e-05
-7.63936e-06
3.45679e-05
-5.99662e-06
3.62144e-05
-4.68503e-06
3.74688e-05
-3.44426e-06
3.82746e-05
-2.04581e-06
3.85373e-05
-2.95159e-07
3.81548e-05
1.95985e-06
3.71696e-05
4.97299e-06
3.59317e-05
9.1097e-06
3.48258e-05
1.52412e-05
3.23188e-05
2.43387e-05
2.52334e-05
3.40686e-05
1.37968e-05
3.52866e-05
4.32986e-06
1.20815e-05
-2.27719e-05
-2.18489e-06
1.02918e-05
6.84733e-08
-7.78874e-06
5.31055e-06
-2.07659e-05
1.1654e-05
-2.58933e-05
1.76224e-05
-2.49161e-05
2.26047e-05
-2.10593e-05
2.65678e-05
-1.67089e-05
2.97192e-05
-1.3005e-05
3.22881e-05
-1.02083e-05
3.4432e-05
-8.14052e-06
3.62171e-05
-6.47014e-06
3.7632e-05
-4.85913e-06
3.86096e-05
-3.02341e-06
3.90556e-05
-7.41161e-07
3.88503e-05
2.16516e-06
3.79287e-05
5.89463e-06
3.63884e-05
1.065e-05
3.49542e-05
1.66754e-05
3.45473e-05
2.47456e-05
3.36126e-05
3.50033e-05
2.79838e-05
4.09155e-05
1.54324e-05
2.46325e-05
-7.38007e-06
-1.74714e-06
1.20389e-05
6.98984e-07
-1.02349e-05
6.01994e-06
-2.60868e-05
1.21957e-05
-3.20691e-05
1.78743e-05
-3.05947e-05
2.25657e-05
-2.57507e-05
2.63291e-05
-2.04724e-05
2.94093e-05
-1.60851e-05
3.20253e-05
-1.28243e-05
3.43003e-05
-1.04156e-05
3.62639e-05
-8.43371e-06
3.78765e-05
-6.47174e-06
3.90574e-05
-4.20431e-06
3.97094e-05
-1.39314e-06
3.97406e-05
2.13397e-06
3.9099e-05
6.53622e-06
3.77905e-05
1.19585e-05
3.60413e-05
1.84245e-05
3.49471e-05
2.58398e-05
3.52195e-05
3.47309e-05
3.29688e-05
4.31662e-05
2.10275e-05
3.65738e-05
1.36022e-05
-1.19796e-06
1.32369e-05
1.49609e-06
-1.29289e-05
6.81467e-06
-3.14054e-05
1.27765e-05
-3.80309e-05
1.81248e-05
-3.59431e-05
2.25015e-05
-3.01273e-05
2.60677e-05
-2.40386e-05
2.91017e-05
-1.9119e-05
3.18003e-05
-1.5523e-05
3.42428e-05
-1.2858e-05
3.64153e-05
-1.06062e-05
3.82482e-05
-8.30464e-06
3.96458e-05
-5.60198e-06
4.05099e-05
-2.2572e-06
4.07633e-05
1.8806e-06
4.03701e-05
6.92936e-06
3.93486e-05
1.29799e-05
3.77574e-05
2.00158e-05
3.59117e-05
2.76854e-05
3.49743e-05
3.56683e-05
3.32877e-05
4.48529e-05
2.29855e-05
4.6876e-05
3.65433e-05
-5.60727e-07
1.37976e-05
2.39333e-06
-1.5883e-05
7.64275e-06
-3.66548e-05
1.33453e-05
-4.37335e-05
1.83505e-05
-4.09483e-05
2.24259e-05
-3.42027e-05
2.58309e-05
-2.74436e-05
2.88661e-05
-2.21542e-05
3.16941e-05
-1.83509e-05
3.43415e-05
-1.55054e-05
3.675e-05
-1.30148e-05
3.88208e-05
-1.03755e-05
4.04448e-05
-7.22595e-06
4.15201e-05
-3.33246e-06
4.19772e-05
1.42348e-06
4.17878e-05
7.11882e-06
4.09598e-05
1.38079e-05
3.95758e-05
2.13998e-05
3.75642e-05
2.96971e-05
3.53826e-05
3.785e-05
3.28109e-05
4.74246e-05
2.41162e-05
5.55706e-05
6.06157e-05
1.45136e-07
1.36525e-05
3.37603e-06
-1.91139e-05
8.47963e-06
-4.17584e-05
1.38514e-05
-4.91052e-05
1.85069e-05
-4.56038e-05
2.23192e-05
-3.8015e-05
2.56199e-05
-3.07444e-05
2.8712e-05
-2.52463e-05
3.17104e-05
-2.13493e-05
3.45871e-05
-1.83821e-05
3.72451e-05
-1.56728e-05
3.95662e-05
-1.26966e-05
4.14315e-05
-9.0912e-06
4.2734e-05
-4.63499e-06
4.34262e-05
7.31235e-07
4.34392e-05
7.10587e-06
4.27611e-05
1.4486e-05
4.14802e-05
2.26807e-05
3.9551e-05
3.16262e-05
3.68489e-05
4.05521e-05
3.31158e-05
5.11576e-05
2.53784e-05
6.3308e-05
8.5958e-05
-3.6683e-21
4.87347e-21
-8.76434e-22
2.576e-21
-7.6764e-23
2.38582e-22
-5.23875e-24
1.2094e-23
-5.82586e-25
5.25674e-25
-8.69661e-26
3.88927e-26
-1.69266e-26
3.97718e-27
-1.8407e-26
6.97781e-28
-1.98765e-26
2.24964e-28
-5.56717e-26
-1.015e-27
-2.05293e-25
-1.19336e-26
-4.12002e-25
-4.48646e-26
-7.25911e-25
-8.80445e-26
-5.63117e-25
-1.05523e-24
-3.70126e-25
-1.46041e-24
-2.28969e-25
-1.16671e-24
-9.16927e-26
-1.00296e-24
-1.76957e-26
-3.89282e-25
-3.32981e-25
-2.44872e-19
5.07848e-19
-1.01145e-19
6.70939e-19
-1.15888e-20
7.71315e-20
-9.08446e-22
5.13311e-21
-1.27393e-22
2.60285e-22
-2.35839e-23
2.45467e-23
-3.25881e-24
2.8932e-24
-9.80206e-25
2.44016e-25
-1.85598e-24
2.03854e-26
-9.92215e-24
-4.23593e-25
-2.61728e-23
-3.61552e-24
-3.51759e-23
-1.09294e-23
-2.70338e-23
-1.73427e-23
-1.78691e-23
-1.73817e-23
-1.00568e-23
-1.38281e-23
-4.9876e-24
-1.04551e-23
-4.31735e-24
-8.79517e-24
-1.62358e-25
-1.22947e-23
-8.94194e-25
-2.21417e-18
5.28605e-18
-2.61894e-18
8.1886e-18
-5.7378e-19
3.41002e-18
-9.74437e-20
3.89731e-19
-2.60637e-20
4.41628e-20
-5.76011e-21
7.68623e-21
-5.92757e-22
1.0209e-21
-1.09072e-22
5.91509e-23
-1.86795e-22
2.92948e-24
-8.29391e-22
-4.56829e-23
-2.07006e-21
-4.00134e-22
-2.78583e-21
-1.29915e-21
-2.21637e-21
-2.06788e-21
-1.29804e-21
-1.92894e-21
-6.51385e-22
-1.29388e-21
-2.68989e-22
-8.58225e-22
-2.14967e-22
-6.19261e-22
-9.72726e-24
-8.13211e-22
-6.83497e-23
-7.57857e-18
2.07135e-17
-1.34852e-17
3.31501e-17
-6.62134e-18
2.95986e-17
-2.78795e-18
6.2076e-18
-1.47188e-18
1.77758e-18
-5.12644e-19
5.88083e-19
-8.83985e-20
1.20369e-19
-1.59708e-20
1.15394e-20
-1.79192e-20
5.45988e-22
-4.48413e-20
-7.64747e-21
-1.04833e-19
-2.84142e-20
-1.37052e-19
-1.21937e-19
-1.10972e-19
-1.58171e-19
-5.99446e-20
-1.29372e-19
-2.69536e-20
-7.56073e-20
-9.15168e-21
-4.28193e-20
-6.9637e-21
-2.69366e-20
-3.5495e-22
-3.30112e-20
-3.12957e-21
-1.79792e-17
9.61475e-17
-3.94154e-17
8.22185e-17
-3.43631e-17
7.86465e-17
-1.74198e-17
3.31816e-17
-1.11676e-17
1.02471e-17
-5.66047e-18
3.81181e-18
-2.09726e-18
1.50017e-18
-1.05271e-18
3.93736e-19
-1.38279e-18
4.4407e-20
-2.2184e-18
-1.99254e-18
-3.27038e-18
-2.34031e-18
-4.29277e-18
-4.85125e-18
-3.45452e-18
-4.99056e-18
-1.95803e-18
-5.02744e-18
-8.21619e-19
-3.14485e-18
-2.32537e-19
-1.62298e-18
-1.67685e-19
-9.975e-19
-9.47992e-21
-1.06946e-18
-1.18611e-19
-3.07697e-17
1.96319e-16
-5.56851e-17
1.35862e-16
-6.32429e-17
1.24931e-16
-3.19865e-17
5.07543e-17
-1.42911e-17
1.97102e-17
-1.0282e-17
5.75132e-18
-1.07124e-17
4.23692e-18
-1.30344e-17
3.04007e-18
-2.90992e-17
9.96486e-19
-7.51762e-17
-4.22744e-18
-4.02962e-17
-7.79889e-17
-5.63563e-17
-1.86086e-17
-6.21824e-17
-7.90379e-17
-4.25578e-17
-5.81025e-17
-1.89972e-17
-5.43992e-17
-4.47183e-18
-4.02986e-17
-3.13125e-18
-2.53686e-17
-1.97356e-19
-2.69906e-17
-3.58113e-18
-6.04904e-17
2.68925e-16
-3.0184e-16
2.66657e-16
-9.5407e-16
8.88038e-16
-8.32656e-16
1.06715e-15
-4.32421e-17
5.81635e-16
-4.36565e-17
3.32269e-17
-5.2337e-17
2.01647e-17
-1.2754e-16
3.18077e-17
-3.26811e-16
7.9632e-17
-6.3717e-16
3.02152e-16
-3.10993e-16
-1.59916e-16
-4.77408e-16
1.13236e-16
-9.81601e-16
-3.48399e-16
-7.48438e-16
-2.70733e-16
-3.0355e-16
-5.82892e-16
-4.32134e-17
-5.02235e-16
-3.44262e-17
-1.47698e-16
-2.39166e-18
-2.13565e-16
-2.72672e-17
-7.31646e-17
3.18917e-16
-1.17294e-16
3.96824e-16
-1.76749e-16
1.07362e-15
-7.28356e-17
1.79587e-15
-5.1045e-17
5.90209e-16
-1.6639e-16
1.7525e-16
-4.00737e-16
2.70676e-16
-7.08941e-15
4.39678e-15
-2.98736e-14
1.50919e-14
-3.49935e-15
-2.60029e-14
-1.04757e-14
7.36201e-15
-7.63214e-15
-1.69948e-15
-1.9956e-14
1.24549e-14
-1.37505e-14
-6.15991e-15
-3.94701e-15
-1.18044e-14
-3.09808e-16
-4.9122e-15
-2.77102e-16
-2.64004e-16
-2.02915e-17
-6.82526e-16
-6.59564e-17
3.55861e-06
1.00939e-05
1.15518e-05
-2.71071e-05
2.17412e-05
-5.19477e-05
3.15417e-05
-5.89056e-05
3.99335e-05
-5.39953e-05
4.71811e-05
-4.52625e-05
5.40325e-05
-3.75958e-05
6.09322e-05
-3.21459e-05
6.78854e-05
-2.83025e-05
7.46615e-05
-2.51582e-05
8.09767e-05
-2.19881e-05
8.65839e-05
-1.83038e-05
9.12734e-05
-1.37807e-05
9.47689e-05
-8.1305e-06
9.70966e-05
-1.59651e-06
9.80048e-05
6.19768e-06
9.73287e-05
1.51621e-05
9.51025e-05
2.49069e-05
9.14959e-05
3.52328e-05
8.63601e-05
4.56879e-05
7.99361e-05
5.75816e-05
7.53408e-05
6.79033e-05
8.8714e-05
7.25848e-05
9.40805e-06
6.85805e-07
2.1191e-05
-3.88901e-05
3.00938e-05
-6.08481e-05
3.6096e-05
-6.49043e-05
4.14701e-05
-5.93668e-05
4.75136e-05
-5.13039e-05
5.44526e-05
-4.45329e-05
6.20324e-05
-3.97243e-05
6.98143e-05
-3.60833e-05
7.73464e-05
-3.26894e-05
8.42661e-05
-2.89071e-05
9.03681e-05
-2.44053e-05
9.564e-05
-1.90524e-05
0.000100207
-1.26979e-05
0.000103471
-4.8597e-06
0.00010529
4.3785e-06
0.000105751
1.47008e-05
0.000104638
2.60198e-05
0.000102252
3.76195e-05
9.87246e-05
4.92148e-05
9.4581e-05
6.17251e-05
9.00669e-05
7.24174e-05
9.39062e-05
8.48748e-05
1.8286e-05
-1.76002e-05
3.85799e-05
-5.9172e-05
4.45079e-05
-6.23654e-05
4.34439e-05
-5.87887e-05
4.40998e-05
-5.56195e-05
4.88711e-05
-5.09938e-05
5.63716e-05
-4.60465e-05
6.49838e-05
-4.1974e-05
7.37242e-05
-3.83241e-05
8.20142e-05
-3.4423e-05
8.9603e-05
-3.00272e-05
9.62759e-05
-2.51375e-05
0.000101964
-1.97436e-05
0.000106459
-1.35809e-05
0.00011006
-6.43881e-06
0.00011279
1.7621e-06
0.000112761
1.47305e-05
0.000112002
2.67787e-05
0.000110942
3.86791e-05
0.000109495
5.06623e-05
0.000107699
6.35207e-05
0.000104429
7.56878e-05
9.25376e-05
0.000105797
2.76627e-05
-3.78404e-05
3.27181e-05
-3.27728e-05
2.51781e-05
-3.90674e-06
2.21299e-05
-1.09435e-07
2.01514e-05
-1.0783e-09
1.97313e-05
-6.75586e-12
2.15235e-05
-2.91387e-14
2.4175e-05
-1.90006e-16
2.67107e-05
-1.66135e-16
2.90472e-05
-4.08813e-16
3.1735e-05
-4.32095e-14
3.55867e-05
-1.59872e-14
4.05579e-05
-6.31385e-16
4.88659e-05
-9.6026e-12
6.12563e-05
-6.85304e-11
7.8785e-05
-1.11464e-10
0.000101305
2.37399e-06
0.000118602
1.09075e-05
0.000122936
2.7903e-05
0.000123853
4.97446e-05
0.00012105
6.63242e-05
0.000118912
7.78252e-05
8.91741e-05
0.000122276
1.03166e-05
1.03991e-24
4.01726e-06
-1.34932e-21
1.1052e-07
-1.75075e-20
1.08509e-09
-2.9196e-19
6.785e-12
-3.40639e-18
2.916e-14
-2.08764e-17
9.68596e-17
-8.07907e-17
1.68598e-18
-4.77534e-17
3.02452e-18
-7.5291e-17
7.51191e-18
-2.14817e-16
5.82437e-16
-4.35076e-14
6.22815e-16
-1.61623e-14
8.21747e-16
-1.34852e-15
3.46782e-13
-9.94907e-12
3.41783e-12
-7.19176e-11
1.35485e-11
-1.2603e-10
2.42391e-06
-1.1116e-08
1.25169e-05
8.8448e-08
3.61051e-05
4.69427e-07
7.57717e-05
1.06331e-06
0.000114963
1.20261e-05
0.000125805
4.81906e-05
8.01612e-05
0.000134818
-2.10069e-27
-1.25303e-23
-1.5003e-22
-1.19929e-21
-1.32944e-21
-1.63946e-20
3.82192e-22
-2.9489e-19
3.49751e-21
-3.43217e-18
-1.61737e-20
-2.10891e-17
-1.7934e-18
-8.03618e-17
-2.95218e-18
-4.17498e-16
-3.382e-18
-1.99433e-16
2.80962e-18
-2.39555e-16
4.82627e-15
-4.92495e-14
4.87266e-15
-1.78656e-14
1.75762e-14
-1.45703e-14
1.63598e-11
-2.62914e-11
1.64482e-10
-2.24158e-10
6.34061e-10
-6.05948e-10
1.30743e-09
-1.22e-08
9.02884e-08
-1.44277e-09
5.12746e-07
3.83424e-08
1.47127e-06
8.93954e-08
1.02162e-05
2.83066e-07
4.41685e-05
4.82171e-07
3.20604e-06
9.44753e-05
-7.45888e-24
-5.07143e-24
-7.63116e-22
-5.53726e-22
-1.84754e-20
-6.05484e-20
-1.5735e-19
-1.58269e-18
-6.55843e-19
-1.74245e-17
-2.56758e-18
-9.19637e-17
-3.4809e-17
-2.69594e-16
-8.59789e-17
-1.14892e-15
-4.00856e-17
-4.5772e-15
-9.14717e-15
-3.36043e-14
9.67553e-14
-5.2565e-12
8.9073e-14
-1.22991e-12
4.16412e-13
-3.42023e-13
6.8191e-10
-2.03731e-09
7.06173e-09
-2.1575e-08
2.57973e-08
-4.73324e-08
3.40073e-08
-3.91801e-08
3.66678e-08
-2.23658e-08
5.79557e-08
-1.46989e-09
1.26865e-07
3.31802e-09
3.91247e-07
1.99846e-09
8.55076e-07
1.27027e-08
1.86095e-07
3.30508e-06
-7.09069e-23
6.58355e-23
-4.58713e-22
-4.36973e-22
-5.23978e-20
-7.97479e-20
-1.13101e-18
-4.35614e-18
-7.35144e-18
-5.4137e-17
-1.75124e-17
-2.4081e-16
-3.67348e-17
-5.21031e-16
-1.93861e-16
-1.14314e-15
2.79154e-15
-2.71029e-14
-5.37964e-13
-3.59408e-13
-2.88852e-13
-1.65993e-11
7.52839e-15
-2.60476e-12
9.01428e-12
-9.39731e-12
5.22905e-09
-7.62792e-09
1.69817e-08
-4.90262e-08
3.4797e-08
-6.43604e-08
5.0618e-08
-5.42308e-08
7.07191e-08
-4.16134e-08
8.70925e-08
-1.70832e-08
9.02276e-08
3.83513e-10
6.54008e-08
1.26009e-08
7.60279e-08
3.88294e-12
2.15789e-08
2.37603e-07
-3.05484e-23
1.10558e-22
-1.62616e-22
-2.02083e-22
-5.22542e-20
-7.22324e-20
-1.83788e-18
-4.89322e-18
-1.26714e-17
-6.65909e-17
-2.72303e-17
-2.9614e-16
-3.92292e-17
-6.01524e-16
-2.24096e-16
-8.29835e-16
1.03151e-14
-5.87137e-14
-1.61169e-12
-3.15232e-13
-5.00338e-13
-1.59835e-11
2.26273e-13
-4.58054e-12
1.98679e-11
-7.81629e-11
2.21576e-09
-3.81901e-09
4.68002e-09
-2.06579e-09
7.46334e-09
-6.65297e-08
1.61302e-08
-6.21103e-08
3.22078e-08
-5.69331e-08
4.34984e-08
-7.31643e-09
4.26712e-08
6.05073e-10
2.68214e-08
1.45663e-08
1.44499e-08
9.998e-09
1.48998e-08
1.93832e-08
-3.67158e-24
1.42706e-22
-3.49089e-22
1.43334e-22
-3.31155e-20
-4.67678e-20
-1.41433e-18
-4.75408e-18
-1.0534e-17
-6.67313e-17
-2.78112e-17
-2.9477e-16
-2.38826e-17
-6.0758e-16
-5.32542e-16
-4.70306e-16
3.58863e-15
-6.29067e-14
-8.9907e-13
-1.03199e-13
5.68947e-13
-1.57243e-11
4.61485e-12
-8.12584e-12
-5.87941e-11
-1.34502e-10
7.16456e-12
-8.15795e-14
-2.05806e-09
-4.82942e-13
-4.10496e-09
-7.97467e-11
-1.24632e-08
-5.51955e-09
-2.52282e-09
-5.54591e-08
-1.23143e-09
-1.15528e-08
3.30989e-09
-5.14605e-09
6.08659e-09
5.0195e-09
4.36421e-09
1.00752e-08
1.13595e-08
6.23057e-09
-5.52094e-25
1.71684e-22
-1.16991e-21
7.7463e-22
-1.52866e-20
-1.90541e-20
-7.95185e-19
-3.38022e-18
-5.06418e-18
-5.10438e-17
-1.27865e-17
-1.97358e-16
-1.04251e-18
-5.95763e-16
3.02257e-17
-3.87984e-16
1.32898e-15
-5.83764e-14
-4.70378e-14
-2.63809e-13
1.03088e-14
-5.40207e-13
-8.8279e-12
-2.70479e-12
-7.26199e-16
-1.01902e-12
-1.96044e-15
-7.97819e-14
-4.62723e-13
-2.14041e-14
-7.697e-11
-3.16197e-12
-5.33857e-09
-2.48158e-10
-2.97105e-09
-1.21943e-08
-8.05085e-09
-2.28554e-08
-5.03188e-09
-1.24422e-08
-2.74155e-09
1.54855e-09
-6.74177e-11
5.77555e-09
1.72308e-08
8.60549e-09
-3.30106e-24
1.89637e-22
-1.45166e-22
9.94271e-22
-4.20782e-21
-4.32465e-21
-2.68748e-19
-1.43248e-18
-8.1824e-19
-2.25422e-17
5.34049e-19
-8.66221e-17
1.43658e-17
-4.55027e-16
3.67252e-17
-4.00871e-16
8.68704e-15
-2.5043e-14
2.52546e-14
-4.30061e-13
1.47075e-14
-6.88801e-13
1.42284e-14
-9.61782e-13
-1.03695e-15
-9.30888e-13
-5.38256e-16
-2.25607e-13
-1.8493e-14
-3.69007e-15
-3.17917e-12
-1.39578e-15
-2.51206e-10
-1.31221e-13
-9.09504e-09
-7.19823e-12
-1.63891e-08
-2.59639e-10
-1.78359e-08
-1.87723e-09
-9.0191e-09
1.84996e-09
3.22475e-09
6.50506e-09
1.74055e-08
1.53017e-08
-4.7713e-24
1.89332e-22
-1.83965e-25
1.07572e-21
-5.19236e-22
7.51373e-23
-2.59037e-20
-4.0129e-19
6.1601e-20
-6.49206e-18
1.65006e-18
-3.07947e-17
1.59108e-17
-3.02548e-16
1.10572e-16
-5.05562e-16
1.38223e-15
-5.41637e-16
4.8775e-14
-1.8784e-13
3.2356e-14
-4.89021e-13
1.55925e-14
-7.81195e-13
4.6443e-15
-7.44095e-13
-9.77452e-16
-2.66122e-13
-1.10086e-17
-3.18391e-15
-1.43453e-15
-2.22614e-17
-1.32524e-13
-1.82466e-16
-7.32977e-12
-1.03772e-15
-2.66955e-10
-1.42182e-14
-1.51007e-09
-5.55402e-13
-3.42317e-09
-2.2148e-11
-3.65686e-09
-4.37066e-11
4.94181e-11
7.84648e-10
-4.68858e-24
1.68576e-22
-5.9649e-24
1.0192e-21
-1.57597e-25
5.25359e-22
2.44486e-21
-8.08934e-20
9.20017e-20
-1.38393e-18
8.78059e-19
-9.12223e-18
1.54563e-17
-1.76018e-16
3.75482e-17
-5.95586e-16
6.70261e-17
-6.42679e-16
3.63994e-14
-5.73131e-16
4.58513e-14
-1.86241e-13
4.38712e-14
-5.35858e-13
1.58246e-14
-4.77097e-13
-1.45841e-15
-1.14613e-13
-2.40199e-18
-4.44392e-16
-5.88668e-18
-6.87784e-17
-2.11436e-17
-2.1721e-16
-2.11393e-16
-8.96981e-16
-1.23497e-14
-2.16345e-15
-5.60971e-13
-7.21717e-15
-2.26982e-11
-8.36671e-15
-6.62488e-11
-1.71226e-13
1.78035e-13
-1.68822e-11
-3.77723e-24
1.32251e-22
-9.18354e-24
8.40602e-22
-4.5265e-24
6.79095e-22
1.18559e-21
-1.15625e-20
2.9719e-20
-2.22945e-19
3.13235e-19
-2.40268e-18
9.41645e-18
-7.32896e-17
3.33333e-17
-5.30089e-16
4.58252e-17
-6.32495e-16
3.91513e-17
-5.20769e-16
1.31549e-14
-1.23048e-16
2.30139e-14
-1.51103e-13
4.67607e-15
-1.68086e-15
-1.71306e-16
-2.89991e-15
-6.9858e-18
-4.13673e-16
-1.59425e-17
-1.00644e-16
-1.3805e-16
-1.3712e-16
-6.23806e-16
-3.6206e-16
-6.97827e-16
-7.15338e-16
-7.00878e-16
-8.6509e-16
-1.45702e-15
-1.18815e-15
-1.64228e-13
-2.60752e-15
-8.68859e-16
1.78547e-14
-2.65183e-24
9.01591e-23
-9.38056e-24
5.95593e-22
-8.78097e-24
6.13262e-22
2.36151e-22
-9.58201e-22
5.88851e-21
-2.65008e-20
9.26858e-20
-5.52447e-19
3.76003e-18
-1.99261e-17
2.83348e-17
-2.29935e-16
3.71817e-17
-5.5598e-16
2.96288e-17
-4.72673e-16
6.8341e-18
-1.48672e-16
1.60869e-15
-1.10827e-16
1.07679e-18
-6.233e-17
-9.00217e-18
-1.72635e-16
-6.93446e-18
-2.91672e-16
-1.15119e-17
-9.41994e-17
-2.4e-17
-2.33465e-17
-7.93769e-17
-2.6686e-17
-1.57105e-16
-5.27334e-17
-3.35851e-16
-1.10913e-16
-6.30593e-16
-2.43175e-16
6.72307e-17
-8.30639e-16
-7.68306e-16
5.60236e-16
-1.6378e-24
5.24626e-23
-7.47186e-24
3.55886e-22
-9.75749e-24
4.36751e-22
3.22211e-23
3.37006e-23
7.944e-22
-2.18401e-21
2.2961e-20
-1.06666e-19
1.0009e-18
-4.0819e-18
1.19945e-17
-5.08586e-17
2.37589e-17
-1.8618e-16
2.36019e-17
-2.61029e-16
7.842e-18
-1.72531e-16
2.19521e-18
-9.42638e-17
1.3293e-18
-5.02065e-17
5.76407e-19
-3.0309e-17
-3.07776e-18
-1.96865e-17
-7.46817e-19
-8.52649e-18
-1.1065e-18
-2.40816e-18
-2.0096e-18
-3.21259e-18
-4.34987e-18
-9.44129e-18
-4.78399e-18
-3.021e-17
2.13256e-17
-8.09262e-17
3.63522e-16
-2.98185e-16
-8.07807e-16
9.28436e-16
-8.85641e-25
2.54511e-23
-4.81199e-24
1.75065e-22
-7.88906e-24
2.49511e-22
-8.229e-25
5.36178e-23
7.25238e-23
-9.96119e-23
4.66377e-21
-1.68018e-20
2.06835e-19
-6.66662e-19
2.61836e-18
-7.55572e-18
8.44547e-18
-3.12643e-17
1.03882e-17
-7.02442e-17
1.00057e-17
-9.45149e-17
3.52417e-18
-7.52102e-17
1.4539e-18
-3.671e-17
4.21545e-19
-8.66747e-18
1.52419e-19
-1.51736e-18
2.45112e-20
-2.17461e-19
5.77335e-21
-1.84528e-19
2.88741e-20
-4.00667e-19
4.12523e-19
-1.87986e-18
3.92553e-18
-9.05324e-18
2.58965e-17
-3.39463e-17
2.00234e-16
-1.47526e-16
-4.30084e-16
9.40874e-16
-4.10824e-25
9.97476e-24
-2.49883e-24
6.86992e-23
-4.91639e-24
1.11555e-22
-1.424e-24
2.85872e-23
5.10825e-24
1.75901e-24
7.64946e-22
-2.14583e-21
3.44412e-20
-8.94834e-20
3.99124e-19
-9.35508e-19
1.61647e-18
-4.4371e-18
3.41387e-18
-1.28048e-17
4.01544e-18
-1.68969e-17
3.37813e-18
-1.56757e-17
9.16061e-19
-8.56977e-18
1.10043e-19
-2.00743e-18
1.34568e-20
-1.51513e-19
6.83362e-21
-5.6052e-21
7.64495e-21
-8.43859e-21
3.65488e-20
-5.25349e-20
3.10554e-19
-4.4797e-19
2.52636e-18
-3.12679e-18
1.64114e-17
-1.62317e-17
1.12496e-16
-8.13405e-17
-2.07593e-16
4.91679e-16
-1.578e-25
3.02342e-24
-1.02403e-24
2.06093e-23
-2.34631e-24
3.71075e-23
-8.10769e-25
9.57229e-24
-6.26723e-26
1.48396e-24
1.01469e-22
-2.21404e-22
4.76635e-21
-9.94664e-21
5.26933e-20
-1.22649e-19
2.53856e-19
-5.45649e-19
6.37639e-19
-1.78615e-18
7.40623e-19
-2.29533e-18
6.83524e-19
-2.00457e-18
2.64938e-19
-1.22322e-18
3.19178e-20
-3.8681e-19
9.46308e-22
-3.82295e-20
3.42441e-22
-6.7387e-22
8.27944e-22
-7.34391e-22
9.72306e-21
-1.02136e-20
1.21615e-19
-1.26958e-19
1.22766e-18
-1.15768e-18
9.47649e-18
-7.912e-18
6.36147e-17
-4.58642e-17
-1.35733e-16
2.40384e-16
-4.77602e-26
6.64638e-25
-3.1883e-25
4.44159e-24
-8.22207e-25
8.53063e-24
-2.86534e-25
2.13262e-24
-5.57874e-26
3.35829e-25
1.08621e-23
-1.67767e-23
5.54096e-22
-8.94706e-22
7.31573e-21
-1.49233e-20
3.36519e-20
-6.91803e-20
9.37084e-20
-2.02684e-19
1.10136e-19
-2.4997e-19
9.44991e-20
-2.14822e-19
4.79873e-20
-1.18646e-19
9.42336e-21
-2.8696e-20
3.3235e-22
-1.37709e-21
4.69341e-23
8.32482e-23
6.43385e-23
1.38997e-22
2.66182e-21
-2.23442e-21
4.41584e-20
-3.78851e-20
5.38008e-19
-4.3056e-19
5.01589e-18
-3.74325e-18
3.69955e-17
-2.66029e-17
-1.01208e-16
1.56342e-16
-1.06111e-26
9.50598e-26
-7.09686e-26
6.20024e-25
-1.97263e-25
1.22851e-24
-6.67751e-26
2.96051e-25
-1.32249e-26
4.65993e-26
8.5117e-25
-6.60827e-25
5.19219e-23
-5.3961e-23
9.35684e-22
-1.27703e-21
4.45542e-21
-7.34361e-21
1.09649e-20
-1.66782e-20
1.29167e-20
-2.13054e-20
1.10236e-20
-1.84478e-20
4.70021e-21
-1.01974e-20
5.5069e-22
-1.80645e-21
1.11593e-22
5.09522e-23
-1.52101e-23
4.40456e-22
-3.03512e-23
2.87879e-22
7.12954e-22
-3.69245e-22
1.49953e-20
-1.1317e-20
2.16892e-19
-1.55664e-19
2.44263e-18
-1.67242e-18
2.14943e-17
-1.44908e-17
-6.42711e-17
1.05123e-16
-1.54248e-27
6.83872e-27
-1.01783e-26
4.41415e-26
-2.94087e-26
9.32632e-26
-9.61725e-27
2.16595e-26
-1.9079e-27
3.46053e-27
3.54873e-26
3.69544e-29
3.21731e-24
-1.38094e-24
8.36671e-23
-5.97759e-23
4.66675e-22
-4.03208e-22
9.48334e-22
-8.49557e-22
1.15983e-21
-1.18952e-21
1.01445e-21
-1.02863e-21
4.21763e-22
-4.32051e-22
1.41453e-22
3.21382e-23
-8.87521e-24
3.76394e-22
-8.96677e-23
3.94561e-22
-6.93154e-23
2.22318e-22
1.85987e-22
3.8568e-24
4.8007e-21
-3.31854e-21
8.05185e-20
-5.27166e-20
1.08151e-18
-6.92649e-19
1.11414e-17
-7.08973e-18
-3.35999e-17
5.89323e-17
-1.12709e-28
6.94127e-36
-7.40089e-28
4.23592e-34
-2.2939e-27
1.17517e-32
-7.24214e-28
2.25248e-31
-1.46139e-28
3.26587e-30
-1.89691e-30
3.52206e-29
8.43961e-26
-5.00184e-27
4.02905e-24
-1.00478e-24
2.55047e-23
-7.88586e-24
5.11993e-23
-2.42699e-23
6.65731e-23
-2.70608e-23
5.75352e-23
-1.80899e-23
3.06995e-23
1.4174e-23
-5.19287e-24
1.2258e-22
-7.02183e-23
2.10667e-22
-8.55706e-23
1.76909e-22
-5.6448e-23
9.23127e-23
-1.15364e-24
6.68304e-24
1.44793e-21
-9.2652e-22
2.69568e-20
-1.62328e-20
4.31066e-19
-2.55756e-19
5.05788e-18
-3.02913e-18
-1.52039e-17
2.77611e-17
-1.15528e-37
3.93854e-36
-7.2153e-36
2.33504e-34
-2.95111e-34
6.68147e-33
-7.69598e-33
1.30678e-31
-1.41134e-31
1.97272e-30
-1.85351e-30
2.36193e-29
3.02882e-28
2.00147e-28
6.9435e-26
2.99974e-28
5.47035e-25
-7.43162e-27
1.31764e-24
-3.04055e-27
1.52562e-24
1.34903e-25
1.07694e-24
1.89486e-24
-2.08016e-24
1.60855e-23
-2.0635e-23
4.79637e-23
-4.08081e-23
6.45292e-23
-3.9585e-23
4.82879e-23
-2.39525e-23
2.31479e-23
-2.01731e-24
1.01696e-24
3.99562e-22
-2.41985e-22
7.98839e-21
-4.45298e-21
1.4964e-19
-8.17938e-20
1.97978e-18
-1.10431e-18
-5.77093e-18
1.13173e-17
-6.56758e-38
1.75308e-36
-4.03114e-36
1.01131e-34
-1.70667e-34
2.96281e-33
-4.53712e-33
5.86389e-32
-8.66465e-32
8.9494e-31
-1.26434e-30
1.09603e-29
-1.27614e-29
1.07705e-28
-2.24275e-29
7.45333e-28
1.67734e-28
3.84235e-27
1.15075e-29
2.13605e-26
-1.54535e-26
1.4372e-25
-2.48343e-25
9.06178e-25
-2.41047e-24
3.92405e-24
-8.22243e-24
9.19924e-24
-1.26716e-23
1.09842e-23
-1.088e-23
7.56594e-24
-5.99448e-24
3.23851e-24
-3.03064e-25
-7.15839e-25
9.99161e-23
-5.68149e-23
2.06767e-21
-1.07294e-21
4.43079e-20
-2.23872e-20
6.54869e-19
-3.41406e-19
-1.86415e-18
3.86885e-18
-2.91196e-38
5.7559e-37
-1.77357e-36
3.23142e-35
-7.69489e-35
9.60039e-34
-2.0624e-33
1.89755e-32
-3.97556e-32
2.87839e-31
-5.92977e-31
3.53272e-30
-6.93732e-30
3.52781e-29
-5.62699e-29
2.81139e-28
-3.36363e-28
1.79203e-27
-2.15232e-27
9.62015e-27
-1.65882e-26
4.8559e-26
-1.19456e-25
2.06325e-25
-5.89887e-25
6.16262e-25
-1.57599e-24
1.19481e-24
-2.14439e-24
1.20173e-24
-1.68338e-24
7.32217e-25
-8.21312e-25
2.51668e-25
1.2197e-24
-3.92878e-25
2.175e-23
-1.15348e-23
4.63297e-22
-2.25816e-22
1.1115e-20
-5.24759e-21
1.83315e-19
-9.18952e-20
-5.31458e-19
1.13233e-18
-9.52708e-39
1.24542e-37
-5.79437e-37
6.7961e-36
-2.53974e-35
2.02211e-34
-6.75203e-34
3.91159e-33
-1.28902e-32
5.71255e-32
-1.92231e-31
6.73079e-31
-2.28077e-30
6.552e-30
-2.12633e-29
5.24334e-29
-1.56845e-28
3.38553e-28
-9.67013e-28
1.73374e-27
-5.5768e-27
6.99845e-27
-2.6979e-26
2.22926e-26
-9.15424e-26
5.4897e-26
-2.01326e-25
9.25696e-26
-2.29447e-25
7.07387e-26
-1.58256e-25
3.42553e-26
-6.15115e-26
5.62104e-27
1.98654e-25
-8.82172e-26
4.05316e-24
-2.01524e-24
8.96535e-23
-4.14666e-23
2.3707e-21
-1.07036e-21
4.46204e-20
-2.19674e-20
-1.36792e-19
2.9176e-19
-2.06992e-39
1.35557e-38
-1.2548e-37
7.17406e-37
-5.45481e-36
2.10348e-35
-1.40631e-34
3.85595e-34
-2.57135e-33
5.08442e-33
-3.66806e-32
5.13723e-32
-4.22878e-31
4.13635e-31
-3.94673e-30
2.7265e-30
-2.93956e-29
1.49948e-29
-1.72294e-28
6.96018e-29
-7.916e-28
2.73038e-28
-2.85876e-27
8.88881e-28
-7.95894e-27
2.22794e-27
-1.5141e-26
3.3319e-27
-1.30297e-26
2.03187e-27
-7.09293e-27
7.04394e-28
-1.30595e-27
-2.72022e-28
2.7547e-26
-1.27866e-26
6.45549e-25
-2.98629e-25
1.49817e-23
-6.64451e-24
4.3665e-22
-1.92069e-22
9.58734e-21
-4.72062e-21
-3.19837e-20
6.71996e-20
-2.28916e-40
9.29772e-41
-1.36711e-38
5.03202e-39
-5.77041e-37
1.53186e-37
-1.39542e-35
2.98221e-36
-2.29004e-34
4.26712e-35
-2.78978e-33
4.78563e-34
-2.6507e-32
4.36656e-33
-2.0305e-31
3.31911e-32
-1.28338e-30
2.13033e-31
-6.79066e-30
1.15903e-30
-3.01846e-29
5.28618e-30
-1.10853e-28
1.91667e-29
-3.12383e-28
4.61481e-29
-5.23834e-28
3.06331e-29
-3.57331e-28
1.20434e-29
-1.38237e-28
-6.45022e-30
2.45686e-28
-6.16443e-29
3.34325e-27
-1.44764e-27
8.67249e-26
-3.67757e-26
2.16527e-24
-9.27973e-25
7.01331e-23
-3.0552e-23
1.83555e-21
-9.299e-22
-6.55912e-21
1.38066e-20
-1.61157e-42
2.07065e-43
-9.8407e-41
1.31364e-41
-4.23913e-39
4.69333e-40
-1.07798e-37
1.08251e-38
-1.90912e-36
1.84666e-37
-2.5717e-35
2.4788e-36
-2.76019e-34
2.71387e-35
-2.43065e-33
2.47784e-34
-1.78693e-32
1.90233e-33
-1.10404e-31
1.219e-32
-5.68072e-31
6.26164e-32
-2.31194e-30
2.24903e-31
-6.22307e-30
3.49333e-31
-4.60268e-30
1.72718e-31
-2.01008e-30
5.28199e-32
3.21669e-30
-2.75671e-32
1.22608e-29
-4.28188e-30
3.42298e-28
-1.28869e-28
9.64548e-27
-3.74371e-27
2.71592e-25
-1.15024e-25
9.93851e-24
-4.48127e-24
3.18231e-22
-1.70156e-22
-1.10579e-21
2.42578e-21
-3.70067e-45
3.81248e-46
-2.60052e-43
2.78604e-44
-1.29282e-41
1.15033e-42
-3.86226e-40
3.09705e-41
-8.11873e-39
6.21145e-40
-1.3051e-37
9.85751e-39
-1.67694e-36
1.27744e-37
-1.76995e-35
1.37312e-36
-1.55276e-34
1.22119e-35
-1.1268e-33
8.6621e-35
-6.50802e-33
4.29874e-34
-2.61315e-32
9.66131e-34
-4.51582e-32
4.31488e-34
-2.47375e-32
1.14087e-34
-8.34965e-33
2.05456e-35
1.40833e-32
-3.84108e-33
8.50212e-31
-2.73037e-31
2.78978e-29
-9.40606e-30
8.93365e-28
-3.49695e-28
3.03932e-26
-1.35641e-26
1.30116e-24
-6.30739e-25
5.036e-23
-2.7622e-23
-1.48605e-22
3.42892e-22
-7.01857e-48
2.3541e-49
-5.47398e-46
2.22602e-47
-3.09624e-44
1.1708e-45
-1.07269e-42
3.9863e-44
-2.64188e-41
9.99604e-43
-5.01021e-40
1.95289e-41
-7.60913e-39
3.05371e-40
-9.44404e-38
3.83289e-39
-9.58682e-37
3.67879e-38
-7.69041e-36
2.28481e-37
-4.28361e-35
4.15964e-37
-1.07368e-34
1.53387e-37
-5.31843e-35
3.37076e-38
-1.55192e-35
3.84839e-39
-3.06997e-36
-6.21205e-38
6.9185e-34
-2.73409e-34
5.03205e-32
-1.58914e-32
1.88883e-30
-7.18771e-31
7.7129e-29
-3.42804e-29
3.2605e-27
-1.51591e-27
1.63237e-25
-7.52302e-26
6.95385e-24
-3.44646e-24
-1.77788e-23
3.86584e-23
-4.44331e-51
5.56375e-53
-4.23422e-49
6.85796e-51
-3.00298e-47
4.51854e-49
-1.30916e-45
1.8831e-47
-4.01879e-44
5.65275e-46
-9.36575e-43
1.27811e-44
-1.71471e-41
2.15282e-43
-2.48409e-40
2.41883e-42
-2.72097e-39
1.20564e-41
-1.91095e-38
3.55899e-42
-3.90362e-38
8.6754e-43
-1.60433e-38
7.92247e-42
-3.90597e-39
2.33373e-42
-4.91331e-40
-1.162e-42
1.78725e-38
-2.29629e-39
4.39041e-35
-1.61243e-35
2.72325e-33
-9.23007e-34
1.34182e-31
-4.88804e-32
6.94522e-30
-2.70185e-30
3.28878e-28
-1.26683e-28
1.72155e-26
-6.07237e-27
7.50916e-25
-2.82535e-25
-2.29009e-24
4.06604e-24
-1.06812e-54
2.70713e-58
-1.22455e-52
3.85856e-56
-1.06796e-50
2.5569e-54
-5.67241e-49
8.45344e-53
-2.07749e-47
1.08054e-51
-5.59282e-46
1.66285e-52
-1.10201e-44
2.34273e-53
-1.4288e-43
5.39538e-51
-8.12959e-43
2.54698e-48
-2.7151e-43
7.13194e-46
-7.43105e-44
1.02269e-43
-7.5685e-43
3.07295e-42
-2.47137e-43
9.86343e-43
5.43052e-43
1.10864e-43
3.04456e-40
-1.25099e-40
2.33344e-36
-6.18371e-37
1.44135e-34
-4.62664e-35
8.25199e-33
-2.47023e-33
4.89742e-31
-1.43828e-31
2.43859e-29
-7.07033e-30
1.22538e-27
-3.45036e-28
5.61267e-26
-1.67123e-26
-2.71532e-25
4.86012e-25
-5.21895e-60
-3.45012e-75
-6.23127e-58
1.86607e-69
-5.33874e-56
8.85916e-66
-2.2365e-54
1.28915e-62
-3.47358e-53
9.82178e-60
-6.34889e-54
5.18265e-57
-1.04499e-54
2.4363e-54
-2.7758e-52
1.25488e-51
-1.49613e-49
5.33939e-49
-4.74334e-47
1.52744e-46
-7.64551e-45
2.09979e-44
-2.56548e-43
6.10448e-43
-9.14041e-44
1.74828e-43
-1.13388e-44
1.70516e-44
1.47781e-41
-6.26595e-42
7.76396e-38
-1.655e-38
6.29668e-36
-1.48089e-36
3.6342e-34
-1.01162e-34
2.26023e-32
-4.93847e-33
1.18427e-30
-2.95929e-31
6.10667e-29
-1.78319e-29
3.01284e-27
-9.46166e-28
-2.05579e-26
5.16664e-26
6.54501e-77
-7.71827e-76
-2.61095e-71
6.31464e-70
-1.55625e-67
3.004e-66
-2.84458e-64
4.36833e-63
-2.61868e-61
3.27112e-60
-1.63533e-58
1.58832e-57
-8.96383e-56
5.05784e-55
-5.32159e-53
1.12774e-52
-2.58572e-50
2.04982e-50
-8.38073e-48
3.96327e-48
-1.29624e-45
4.52969e-46
-4.21278e-44
9.93992e-47
-1.34082e-44
1.21832e-47
-1.44538e-45
9.73493e-47
6.03052e-43
-7.08168e-44
1.71213e-39