/*--------------------------------*- C++ -*----------------------------------*\
| =========                 |                                                 |
| \\      /  F ield         | OpenFOAM: The Open Source CFD Toolbox           |
|  \\    /   O peration     | Version:  2206                                  |
|   \\  /    A nd           | Website:  www.openfoam.com                      |
|    \\/     M anipulation  |                                                 |
\*---------------------------------------------------------------------------*/
FoamFile
{
    version     2.0;
    format      ascii;
    arch        "LSB;label=32;scalar=64";
    class       volScalarField;
    location    "0.375";
    object      p;
}
// * * * * * * * * * * * * * * * * * * * * * * * * * * * * * * * * * * * * * //

dimensions      [1 -1 -2 0 0 0 0];

internalField   nonuniform List<scalar> 
2268
(
971.548
974.567
983.267
989.803
990.961
986.644
979.876
973.498
968.966
966.829
967.363
970.842
977.632
988.253
1003.08
1022.15
1044.98
1069
1087.41
1092.13
1067.19
1045.22
1087.53
911.598
914.379
923.233
929.703
930.812
926.519
919.856
913.613
909.197
907.137
907.705
911.165
917.788
927.681
941.634
959.567
981.407
1005.56
1026.35
1033.75
1013.27
973.04
1020.33
850.496
853.016
862.082
868.387
869.394
865.152
858.699
852.722
848.531
846.618
847.247
850.691
857.245
867.294
880.748
897.801
917.663
938.603
957.132
965.503
951.537
916.494
961.342
788.456
790.448
799.988
805.917
806.769
802.611
796.471
790.876
787.006
785.294
786.004
789.426
795.881
805.659
818.797
835.16
853.768
872.471
888.161
896.008
890.37
876.348
915.44
725.754
727.307
736.535
742.366
743.056
739.011
733.259
728.134
724.649
723.173
723.969
727.354
733.676
743.218
756.025
771.81
789.57
807.208
821.705
829.84
831.973
832.957
873.852
662.666
663.438
672.189
677.896
678.416
674.504
669.183
664.57
661.496
660.258
661.124
664.448
670.611
679.914
692.419
707.768
724.953
742.067
756.428
765.241
771.112
778.275
815.567
599.521
599.007
607.027
612.455
612.804
609.09
604.276
600.22
597.562
596.542
597.448
600.676
606.655
615.713
627.939
642.961
659.819
676.748
691.332
700.603
706.526
711.652
735.634
536.668
534.246
540.821
545.755
546.042
542.68
538.486
535.041
532.797
531.954
532.838
535.907
541.666
550.52
562.565
577.343
594.035
611.012
625.914
635.426
639.177
636.931
631.726
201.809
201.738
201.619
201.468
201.301
201.128
200.957
200.795
200.644
200.507
200.385
200.279
200.188
200.112
200.051
200.002
199.966
199.941
199.922
201.767
201.691
201.565
201.41
201.241
201.066
200.894
200.731
200.581
200.444
200.322
200.216
200.124
200.048
199.986
199.937
199.901
199.875
199.856
201.733
201.648
201.514
201.353
201.181
201.004
200.83
200.666
200.515
200.377
200.255
200.147
200.055
199.978
199.916
199.866
199.829
199.803
199.783
201.708
201.612
201.466
201.298
201.121
200.94
200.763
200.597
200.444
200.306
200.182
200.074
199.981
199.903
199.84
199.789
199.751
199.724
199.703
201.696
201.583
201.42
201.242
201.059
200.875
200.693
200.524
200.37
200.231
200.106
199.995
199.901
199.822
199.758
199.706
199.667
199.638
199.616
201.7
201.56
201.373
201.182
200.995
200.808
200.619
200.446
200.291
200.152
200.024
199.911
199.815
199.735
199.67
199.616
199.576
199.546
199.521
201.723
201.538
201.321
201.117
200.928
200.74
200.541
200.363
200.208
200.068
199.937
199.821
199.723
199.643
199.576
199.521
199.478
199.446
199.419
201.768
201.515
201.264
201.043
200.853
200.672
200.456
200.271
200.118
199.981
199.845
199.726
199.625
199.544
199.475
199.418
199.373
199.338
199.308
438.875
433.162
436.132
440.54
441.035
438.154
434.756
432.109
430.372
429.673
430.38
433.024
438.209
446.515
458.494
473.387
490.5
508.331
524.247
534.197
532.606
510.007
418.941
310.302
299.361
294.69
297.339
297.493
294.165
290.992
288.953
287.613
286.974
287.461
289.622
293.928
300.512
309.488
322.907
340.981
361.807
381.818
396.01
397.189
381.578
340.063
189.563
174.287
154.123
148.225
147.08
142.974
139.428
137.697
136.557
135.715
135.718
137.361
141.961
150.7
163.469
177.844
196.325
222.104
249.052
269.298
279.742
281.351
272.83
87.858
67.0784
35.3923
30.7634
31.6489
30.0042
28.1494
27.0751
26.2111
25.2519
24.3337
23.7623
23.9679
25.106
27.3736
31.4001
43.1331
69.6696
105.719
138.456
164.619
182.353
188.157
23.8892
5.95423
1.69591
1.40254
1.44721
1.45006
1.46448
1.48574
1.51408
1.54975
1.59226
1.63903
1.69233
1.75909
1.84752
1.91374
2.18416
4.48272
10.1405
21.7022
43.7496
75.1266
100.178
1.2211
1.10402
1.08219
1.20725
1.26476
1.29556
1.31867
1.34378
1.37316
1.40736
1.4522
1.49561
1.54591
1.6111
1.68723
1.73989
1.73642
1.72801
1.69922
1.72982
2.50973
9.72771
27.4618
1.08366
1.05595
1.12792
1.10449
1.12039
1.14269
1.16553
1.1893
1.21635
1.24732
1.28393
1.32131
1.36322
1.42388
1.49095
1.52001
1.48492
1.43724
1.37423
1.27621
1.12953
1.16043
1.69996
0.930087
0.929376
0.952655
0.958373
0.970573
0.987485
1.00719
1.02898
1.05328
1.08055
1.11056
1.14178
1.16668
1.21379
1.2499
1.23525
1.14762
1.03503
0.932499
0.870887
0.868697
0.988531
1.11531
0.773099
0.777478
0.793036
0.802684
0.814928
0.829975
0.847582
0.867198
0.888673
0.911931
0.935911
0.957882
0.977491
0.993632
0.986335
0.950449
0.85077
0.688263
0.5247
0.473516
0.558386
0.771525
0.989213
0.618896
0.625177
0.635002
0.644394
0.656023
0.66985
0.685834
0.703521
0.722459
0.742378
0.76216
0.779716
0.793803
0.796012
0.777988
0.739057
0.666023
0.54084
0.394113
0.293428
0.406361
0.649914
0.91747
0.461234
0.466557
0.474364
0.483276
0.494337
0.507367
0.522244
0.538754
0.556012
0.574051
0.591653
0.607622
0.620227
0.623912
0.616458
0.59052
0.544361
0.485913
0.431592
0.415946
0.501461
0.67895
0.903662
0.300608
0.304675
0.311636
0.319848
0.330363
0.342835
0.357211
0.37298
0.389662
0.406909
0.424088
0.440216
0.454848
0.463668
0.466578
0.460495
0.443054
0.416039
0.405629
0.450461
0.573181
0.717986
0.882216
0.136661
0.139597
0.146677
0.154114
0.164198
0.17637
0.190405
0.205993
0.222749
0.240322
0.258323
0.276246
0.293591
0.308586
0.3216
0.332388
0.3416
0.350574
0.365816
0.410656
0.490414
0.61944
0.776809
-0.0302496
-0.0276253
-0.0213646
-0.0142096
-0.00421246
0.00781816
0.0217877
0.0375004
0.0546965
0.0731296
0.0925776
0.112813
0.133569
0.154362
0.175816
0.198512
0.223946
0.255729
0.301252
0.367424
0.454554
0.562286
0.68389
-0.200119
-0.197677
-0.192044
-0.184707
-0.174897
-0.162875
-0.148785
-0.132751
-0.114918
-0.0954099
-0.0743036
-0.0516232
-0.0273506
-0.00149856
0.0269154
0.0588217
0.0957496
0.140382
0.1965
0.267507
0.355628
0.461054
0.578377
-0.372827
-0.370454
-0.365134
-0.357731
-0.347927
-0.335813
-0.321485
-0.305009
-0.286439
-0.265793
-0.243024
-0.218004
-0.19052
-0.16031
-0.126472
-0.0877358
-0.0427898
0.0104201
0.0741782
0.150202
0.239077
0.340005
0.45258
-0.548283
-0.545906
-0.540731
-0.533282
-0.523402
-0.511128
-0.496501
-0.479534
-0.46021
-0.438464
-0.414159
-0.387059
-0.356798
-0.322816
-0.285329
-0.241517
-0.191164
-0.132795
-0.0650115
0.0131528
0.102024
0.2012
0.309492
-0.726432
-0.724019
-0.7189
-0.711398
-0.701413
-0.688955
-0.674019
-0.656574
-0.636551
-0.613824
-0.588197
-0.559379
-0.52697
-0.49046
-0.449314
-0.402286
-0.348584
-0.2871
-0.217013
-0.137738
-0.0491606
0.0484333
0.154285
-0.907249
-0.904796
-0.899686
-0.892132
-0.882046
-0.869416
-0.854205
-0.836345
-0.815728
-0.792191
-0.765499
-0.735335
-0.701284
-0.662838
-0.619385
-0.570105
-0.514242
-0.451034
-0.379884
-0.300392
-0.212464
-0.116259
-0.0121801
-1.09073
-1.08824
-1.08313
-1.07554
-1.06537
-1.05261
-1.03719
-1.01901
-0.997948
-0.973803
-0.946327
-0.915191
-0.879987
-0.840228
-0.795352
-0.744722
-0.687714
-0.62375
-0.55237
-0.47326
-0.386299
-0.291512
-0.189054
-1.27686
-1.27437
-1.26925
-1.26165
-1.25145
-1.23862
-1.22307
-1.2047
-1.18335
-1.15882
-1.13085
-1.09911
-1.06322
-1.02272
-0.977121
-0.925892
-0.868521
-0.804545
-0.733584
-0.655359
-0.569708
-0.47654
-0.37583
-1.46566
-1.46317
-1.45806
-1.45049
-1.44031
-1.42748
-1.41191
-1.39348
-1.37203
-1.34734
-1.31917
-1.28718
-1.25103
-1.2103
-1.16456
-1.11336
-1.05626
-0.99289
-0.922904
-0.846035
-0.762079
-0.670849
-0.572186
-1.6571
-1.65464
-1.64957
-1.64207
-1.63196
-1.61922
-1.60374
-1.58539
-1.56401
-1.5394
-1.5113
-1.4794
-1.44339
-1.40288
-1.3575
-1.30686
-1.25059
-1.18836
-1.11985
-1.04481
-0.962973
-0.874095
-0.777909
-1.85116
-1.84876
-1.84375
-1.83636
-1.8264
-1.81383
-1.79855
-1.78043
-1.7593
-1.73498
-1.70721
-1.67572
-1.6402
-1.60032
-1.55575
-1.50615
-1.45119
-1.39058
-1.32403
-1.25127
-1.17203
-1.08599
-0.992822
-2.04781
-2.04548
-2.04057
-2.03335
-2.0236
-2.01129
-1.99632
-1.97856
-1.95786
-1.93403
-1.90684
-1.87603
-1.84133
-1.80244
-1.75908
-1.71093
-1.65772
-1.59919
-1.53506
-1.46507
-1.38892
-1.30626
-1.21672
-2.24701
-2.24476
-2.23998
-2.23297
-2.22349
-2.21153
-2.19697
-2.17972
-2.1596
-2.13645
-2.11006
-2.08019
-2.04661
-2.00904
-1.96723
-1.92093
-1.86988
-1.81384
-1.75257
-1.68581
-1.61326
-1.53455
-1.44931
-2.44867
-2.44651
-2.4419
-2.43514
-2.426
-2.41447
-2.40044
-2.3838
-2.36442
-2.34213
-2.31674
-2.28804
-2.25583
-2.21987
-2.17994
-2.13582
-2.08729
-2.03414
-1.97614
-1.91307
-1.84463
-1.77046
-1.6902
-2.65273
-2.65066
-2.64625
-2.63978
-2.63104
-2.62001
-2.60659
-2.59069
-2.57218
-2.5509
-2.52669
-2.49938
-2.46877
-2.43467
-2.3969
-2.35526
-2.30958
-2.25967
-2.20534
-2.14638
-2.08253
-2.01345
-1.93886
-2.85907
-2.85711
-2.85292
-2.84678
-2.83849
-2.82803
-2.81532
-2.80025
-2.78273
-2.7626
-2.73974
-2.71398
-2.68518
-2.65316
-2.61779
-2.5789
-2.53636
-2.49
-2.43968
-2.38521
-2.32638
-2.26292
-2.1946
-3.06758
-3.06572
-3.06179
-3.05602
-3.04822
-3.0384
-3.02646
-3.01232
-2.99589
-2.97704
-2.95566
-2.93161
-2.90478
-2.87504
-2.84227
-2.80635
-2.76718
-2.72464
-2.6786
-2.62896
-2.57553
-2.51812
-2.4566
-3.2781
-3.27637
-3.2727
-3.26734
-3.26008
-3.25095
-3.23985
-3.22672
-3.21146
-3.19399
-3.17421
-3.152
-3.12728
-3.09996
-3.06995
-3.03718
-3.00156
-2.96303
-2.92151
-2.87693
-2.8292
-2.7782
-2.7239
-3.4905
-3.48892
-3.48553
-3.4806
-3.47392
-3.46552
-3.45532
-3.44325
-3.42926
-3.41325
-3.39515
-3.37489
-3.35239
-3.3276
-3.30047
-3.27096
-3.23902
-3.20463
-3.16776
-3.12841
-3.08656
-3.04219
-2.99542
-3.70465
-3.70325
-3.70014
-3.69568
-3.68961
-3.68198
-3.67272
-3.66178
-3.6491
-3.63462
-3.61828
-3.60003
-3.57983
-3.55765
-3.53348
-3.50729
-3.4791
-3.44891
-3.41675
-3.38268
-3.34679
-3.30916
-3.27005
-3.9204
-3.9192
-3.91638
-3.91242
-3.90697
-3.90016
-3.89187
-3.8821
-3.87079
-3.85789
-3.84336
-3.82718
-3.80933
-3.78981
-3.76862
-3.74578
-3.72133
-3.69532
-3.66784
-3.63902
-3.60902
-3.57809
-3.54659
-4.13748
-4.13652
-4.13398
-4.13055
-4.12575
-4.11976
-4.11249
-4.10392
-4.094
-4.08272
-4.07004
-4.05596
-4.04048
-4.02361
-4.0054
-3.98588
-3.96511
-3.94319
-3.92026
-3.8965
-3.87221
-3.84773
-3.8236
-4.35566
-4.35494
-4.35267
-4.3498
-4.34566
-4.34053
-4.33429
-4.32694
-4.31845
-4.3088
-4.29799
-4.28601
-4.27289
-4.25866
-4.24337
-4.22709
-4.20989
-4.1919
-4.1733
-4.15436
-4.13543
-4.11698
-4.09971
-4.57507
-4.57465
-4.57264
-4.57036
-4.56689
-4.56263
-4.55744
-4.55133
-4.54429
-4.53629
-4.52735
-4.51749
-4.50672
-4.49511
-4.4827
-4.46956
-4.45581
-4.44158
-4.42709
-4.41264
-4.39866
-4.3857
-4.37455
-4.79587
-4.79585
-4.79407
-4.79239
-4.78962
-4.78624
-4.78213
-4.77728
-4.7717
-4.76539
-4.75834
-4.75059
-4.74218
-4.73315
-4.72357
-4.71351
-4.70309
-4.69245
-4.68182
-4.67153
-4.66203
-4.65391
-4.64797
-5.01684
-5.01723
-5.0157
-5.01459
-5.01253
-5.01003
-5.00699
-5.00341
-4.99928
-4.99463
-4.98945
-4.98379
-4.97767
-4.97115
-4.9643
-4.95717
-4.94988
-4.94259
-4.93552
-4.92897
-4.92337
-4.91926
-4.91743
-5.23633
-5.23701
-5.23581
-5.23521
-5.23385
-5.23221
-5.23021
-5.22785
-5.22514
-5.22209
-5.21872
-5.21505
-5.21112
-5.20698
-5.20268
-5.19829
-5.19391
-5.18967
-5.18578
-5.18249
-5.18015
-5.17923
-5.18037
-5.45614
-5.45702
-5.4563
-5.45615
-5.45552
-5.45474
-5.45378
-5.45264
-5.45134
-5.44989
-5.44831
-5.44662
-5.44485
-5.44305
-5.44125
-5.43952
-5.43795
-5.43663
-5.43573
-5.43541
-5.43595
-5.43766
-5.44102
-5.68141
-5.6829
-5.6827
-5.68302
-5.68317
-5.68333
-5.6835
-5.6837
-5.68394
-5.68424
-5.68461
-5.68507
-5.68565
-5.68638
-5.68731
-5.68848
-5.68995
-5.69178
-5.69407
-5.69689
-5.7004
-5.70475
-5.71016
203.431
204.97
203.505
201.836
226.63
204.064
203.373
201.272
228.438
175.601
199.687
192.156
178.527
163.538
148.986
98.2583
118.576
127.805
112.048
85.7977
50.2554
72.7307
83.352
88.2691
5.82418
21.0904
35.6982
44.8757
1.09995
1.54444
2.25024
4.62914
1.22651
1.50408
1.70539
2.03874
1.16975
1.39046
1.56601
1.82738
1.10639
1.31064
1.52423
1.7442
1.06045
1.25281
1.44528
1.64049
0.956188
1.14333
1.33216
1.53062
0.844498
1.02843
1.21684
1.41558
0.729304
0.908359
1.09458
1.29186
0.596288
0.773754
0.959879
1.15811
0.449673
0.625899
0.813471
1.01372
0.292083
0.467582
0.65589
0.858191
0.123724
0.298337
0.48713
0.691232
-0.0549642
0.118448
0.307245
0.512658
-0.243762
-0.072046
0.116116
0.322185
-0.44256
-0.273226
-0.0865283
0.119327
-0.651322
-0.485254
-0.3011
-0.0966124
-0.870018
-0.708324
-0.528084
-0.326518
-1.09857
-0.942577
-0.767948
-0.571437
-1.33679
-1.188
-1.02101
-0.832336
-1.58433
-1.44433
-1.28728
-1.10973
-1.84062
-1.71102
-1.56621
-1.40326
-2.10491
-1.98716
-1.8567
-1.71153
-2.37626
-2.2716
-2.15714
-2.03217
-2.65352
-2.5629
-2.46557
-2.36216
-2.93542
-2.85949
-2.77996
-2.69842
-3.22065
-3.1598
-3.09839
-3.03848
-3.50778
-3.46211
-3.41896
-3.38059
-3.79506
-3.76427
-3.73942
-3.72353
-4.08073
-4.06398
-4.05701
-4.06479
-4.36404
-4.35965
-4.36881
-4.39926
-4.64442
-4.64969
-4.67093
-4.7178
-4.919
-4.93056
-4.95828
-5.01158
-5.18525
-5.19975
-5.22853
-5.27933
-5.44788
-5.46274
-5.48844
-5.53077
-5.71842
-5.73207
-5.75181
-5.78137
201.891
201.425
201.139
200.887
200.714
200.584
200.325
200.126
199.975
199.844
199.694
199.568
199.461
199.378
199.307
199.247
199.197
199.155
199.119
202.031
201.289
201.004
200.635
200.463
200.434
200.085
199.806
199.678
199.652
199.451
199.307
199.192
199.123
199.053
198.981
198.917
198.861
198.813
197.602
200.528
200.641
200.131
199.148
200.04
199.873
199.422
199.332
199.388
199.098
198.977
198.868
198.846
198.776
198.678
198.59
198.512
198.444
38.864
156.745
186.86
184.742
160.877
197.888
199.759
198.767
197.466
199.317
198.739
198.639
198.461
198.403
198.407
198.312
198.183
198.073
197.982
55.6206
119.54
155.439
115.534
75.283
147.961
177.356
185.877
161.571
193.689
196.854
197.138
197.592
197.446
197.811
197.861
197.658
197.508
197.427
84.0591
90.9303
100.752
94.4127
91.9176
125.126
146.285
123.131
55.6294
92.3558
149.164
156.14
186.01
195.098
197.456
197.411
197.086
196.93
196.898
46.9874
48.3013
51.618
54.7178
55.9534
62.0901
69.1528
70.8278
66.5282
82.0495
118.186
119.619
130.538
161.22
192.249
197.638
196.475
196.211
196.318
6.95023
8.59332
9.99745
11.5719
13.8069
17.2359
24.0205
33.5059
40.9016
49.0199
65.2674
88.0293
118.851
150.063
172.49
191.013
194.061
192.984
194.909
2.44025
2.56899
2.50073
2.42175
2.43315
2.51127
2.55622
2.73811
4.08838
7.4724
16.1568
43.0062
77.9201
112.301
145.569
172.435
179.042
180.987
191.816
2.1364
2.29779
2.36005
2.38033
2.3932
2.41636
2.47933
2.61362
2.79671
3.03479
3.47648
4.93996
17.0466
59.2101
105.849
135.869
141.201
145.275
196.991
1.93114
2.06604
2.1835
2.27253
2.34442
2.4202
2.51824
2.65207
2.8052
2.9607
3.13277
3.44138
4.71829
12.8375
64.1583
146.902
240.143
297.126
308.567
1.81105
1.94859
2.07821
2.19004
2.29073
2.39343
2.50789
2.6396
2.79332
2.97628
3.18534
3.39763
3.77005
5.12606
16.2541
116.813
317.524
490.084
524.955
1.70276
1.83868
1.97028
2.09382
2.21307
2.33521
2.46749
2.61711
2.79384
3.01041
3.2729
3.5512
3.83295
4.36449
5.90261
31.2631
306.881
571.72
634.839
1.58664
1.72176
1.85752
1.9925
2.12839
2.26914
2.42007
2.58903
2.78555
3.02343
3.31847
3.66736
4.04598
4.53811
5.37919
7.8502
237.123
549.977
621.45
1.4629
1.59993
1.74027
1.88435
2.03357
2.19067
2.35957
2.54629
2.75895
3.01062
3.31698
3.68225
4.09653
4.59173
5.10177
5.53231
148.937
489.443
561.628
1.33096
1.47043
1.61547
1.76676
1.92568
2.09464
2.27709
2.47744
2.70205
2.96094
3.26752
3.62103
4.0094
4.46108
4.87021
4.99575
70.4396
410.202
466.93
1.1891
1.33142
1.48055
1.63715
1.80224
1.9776
2.16649
2.37408
2.60616
2.86904
3.17306
3.5198
3.89197
4.32219
4.72519
4.84536
19.2237
344.609
401.38
1.03626
1.18131
1.33379
1.49407
1.66261
1.84049
2.03087
2.23943
2.47383
2.73941
3.04172
3.38746
3.7618
4.19839
4.69876
4.93493
6.64522
305.36
350.555
0.87182
1.01931
1.17458
1.33753
1.50783
1.686
1.87571
2.08313
2.31664
2.58148
2.88071
3.22241
3.597
4.0256
4.66838
5.23626
6.27725
299.195
316.341
0.695438
0.845124
1.00294
1.16839
1.34047
1.51949
1.70992
1.91856
2.15108
2.41082
2.70174
3.02989
3.38928
3.74743
4.30824
4.71543
7.67709
303.352
305.584
0.506789
0.658555
0.819113
0.987795
1.16329
1.34617
1.54091
1.75583
1.99093
2.24803
2.52832
2.84661
3.20857
3.5615
4.03594
4.03313
3.43704
319.856
364.742
0.305264
0.459025
0.622795
0.796245
0.978435
1.17076
1.37839
1.60327
1.8511
2.11522
2.38969
2.71432
3.10487
3.5164
3.93902
4.15165
4.01169
391.025
506.097
0.0898304
0.245201
0.412313
0.591745
0.783929
0.991237
1.21629
1.46235
1.73657
2.02315
2.27256
2.5572
3.03757
3.59564
4.00337
4.48749
5.84931
476.785
699.227
-0.140936
0.0151155
0.184916
0.370122
0.572828
0.795287
1.03838
1.30682
1.61289
1.93425
2.08514
2.3105
2.87044
3.51131
3.71551
3.6281
102.251
540.63
879.932
-0.388847
-0.233887
-0.063006
0.12672
0.339059
0.571921
0.819473
1.0867
1.39895
1.70955
1.82728
1.93201
2.52424
1.59113
-0.0844778
8.39494
54.1814
246.756
650.482
-0.655894
-0.50516
-0.336596
-0.145149
0.075722
0.316511
0.553574
0.788353
1.10922
1.4103
1.44202
1.36584
-1.45543
-13.0722
-17.7148
-6.38341
-55.5274
-135.468
209.899
-0.943729
-0.801898
-0.642125
-0.457441
-0.238178
0.00784969
0.232664
0.418701
0.741145
1.08378
1.06028
-0.423618
-1.4457
-10.5951
-20.6948
-18.4535
-44.7992
-164.862
86.7149
-1.25271
-1.12533
-0.983594
-0.821047
-0.631696
-0.416217
-0.233421
-0.102812
0.168103
0.0290283
-1.20461
2.30568
0.332175
-2.13459
-9.0663
-13.135
-24.6635
-48.2987
25.4007
-1.58098
-1.4734
-1.35895
-1.23394
-1.1007
-0.960068
-0.869198
-0.79232
-0.546241
-5.72855
-11.3528
-8.37325
-8.75172
-8.89171
-9.08271
-8.73873
-9.88014
-12.9451
0.640062
-1.92468
-1.84083
-1.75972
-1.68181
-1.61355
-1.5568
-1.53622
-1.53067
-1.66411
-6.57101
-10.3804
-9.36534
-9.05268
-9.00006
-8.81584
-8.0749
-7.9206
-8.75915
-6.63153
-2.27881
-2.22027
-2.1746
-2.14987
-2.1557
-2.19215
-2.22887
-2.23674
-2.29605
-5.65515
-10.4033
-9.54054
-9.27902
-9.12372
-8.85909
-8.5093
-8.95544
-9.54002
-8.41059
-2.63856
-2.60427
-2.59323
-2.62585
-2.71524
-2.85316
-2.93964
-2.9492
-2.83781
-5.22723
-11.3084
-9.91226
-9.63386
-9.49254
-9.28227
-8.96876
-8.96427
-8.55896
-7.34408
-3.00037
-2.98746
-3.00909
-3.09925
-3.27643
-3.5171
-3.66867
-3.76322
-3.97576
-7.59299
-12.1666
-10.4073
-10.2426
-10.1865
-10.1445
-9.90276
-9.4618
-8.31025
-6.7162
-3.36246
-3.36617
-3.41303
-3.55329
-3.82102
-4.15278
-4.35429
-4.49952
-4.87847
-5.23241
-12.209
-11.2738
-11.0646
-11.1898
-11.4526
-11.4581
-10.8745
-9.4096
-7.96706
-3.72636
-3.74186
-3.79972
-3.96245
-4.29544
-4.68508
-4.9018
-4.93472
-4.98815
-4.79243
-9.61128
-12.5538
-11.9818
-12.5063
-13.0399
-13.3204
-12.6603
-10.8805
-9.52305
-4.09153
-4.12731
-4.19522
-4.35693
-4.66407
-5.03542
-5.26869
-5.16682
-5.0765
-4.53985
-11.0476
-16.5879
-13.4806
-13.9078
-14.434
-15.0798
-14.3979
-11.9639
-10.6302
-4.45321
-4.51684
-4.61214
-4.76348
-4.99352
-5.2806
-5.51984
-5.48105
-5.5381
-6.03779
-8.03998
-16.2793
-14.4345
-14.471
-15.1849
-16.1854
-15.5242
-12.8744
-11.7761
-4.79309
-4.88039
-5.00653
-5.164
-5.33003
-5.49689
-5.65381
-5.71789
-5.78125
-6.20013
-6.43764
-14.5717
-16.9298
-14.1418
-15.3644
-15.6566
-15.4081
-14.1458
-13.1923
-5.09203
-5.18373
-5.31275
-5.4684
-5.60501
-5.69823
-5.76548
-5.79555
-5.81002
-6.62059
-7.69404
-14.2091
-15.4407
-14.2593
-14.8433
-13.6101
-14.2425
-15.0775
-14.1003
-5.35129
-5.42914
-5.53318
-5.65922
-5.77993
-5.86185
-5.8984
-5.88767
-5.84148
-6.32965
-5.33069
-19.7588
-18.7981
-19.7525
-12.5584
-11.3741
-12.4737
-14.4929
-13.775
-5.58769
-5.64672
-5.72237
-5.81415
-5.91577
-6.0125
-6.08761
-6.14602
-6.07225
-6.14507
-5.58377
-3.4351
-15.4411
-94.3225
-14.1559
-10.2576
-10.7734
-11.748
-11.562
-5.82005
-5.86078
-5.91601
-5.99092
-6.08876
-6.20326
-6.31797
-6.43827
-6.54534
-7.06906
-7.35664
-11.9796
-68.3477
-216.163
-20.4467
-9.67824
-9.83425
-9.18506
-8.02278
)
;

boundaryField
{
    leftWall
    {
        type            calculated;
        value           nonuniform List<scalar> 
50
(
971.548
911.598
850.496
788.456
725.754
662.666
599.521
536.668
438.875
310.302
189.563
87.858
23.8892
1.2211
1.08366
0.930087
0.773099
0.618896
0.461234
0.300608
0.136661
-0.0302496
-0.200119
-0.372827
-0.548283
-0.726432
-0.907249
-1.09073
-1.27686
-1.46566
-1.6571
-1.85116
-2.04781
-2.24701
-2.44867
-2.65273
-2.85907
-3.06758
-3.2781
-3.4905
-3.70465
-3.9204
-4.13748
-4.35566
-4.57507
-4.79587
-5.01684
-5.23633
-5.45614
-5.68141
)
;
    }
    rightWall
    {
        type            calculated;
        value           nonuniform List<scalar> 
50
(
199.922
199.856
199.783
199.703
199.616
199.521
199.419
199.308
199.119
198.813
198.444
197.982
197.427
196.898
196.318
194.909
191.816
196.991
308.567
524.955
634.839
621.45
561.628
466.93
401.38
350.555
316.341
305.584
364.742
506.097
699.227
879.932
650.482
209.899
86.7149
25.4007
0.640062
-6.63153
-8.41059
-7.34408
-6.7162
-7.96706
-9.52305
-10.6302
-11.7761
-13.1923
-14.1003
-13.775
-11.562
-8.02278
)
;
    }
    lowerWall
    {
        type            calculated;
        value           nonuniform List<scalar> 
62
(
1000.98
1004
1012.7
1019.23
1020.39
1016.07
1009.31
1002.93
998.395
996.258
996.792
1000.27
1007.06
1017.68
1032.5
1051.58
1074.41
1098.43
1116.84
1120.35
1091.41
1069.53
1115.22
1087.53
1020.33
961.342
915.44
873.852
815.567
735.634
631.726
236.094
205.033
203.567
201.899
201.809
201.767
201.733
201.708
201.696
201.7
201.723
201.768
201.838
201.768
201.648
201.498
201.33
201.158
200.987
200.824
200.674
200.537
200.415
200.309
200.218
200.142
200.08
200.031
199.996
199.97
199.951
)
;
    }
    atmosphere
    {
        type            calculated;
        value           nonuniform List<scalar> 
46
(
-5.7994
-5.80201
-5.80187
-5.80246
-5.80305
-5.80375
-5.80459
-5.80557
-5.80671
-5.80804
-5.80955
-5.81127
-5.81322
-5.81546
-5.81799
-5.82087
-5.82415
-5.82786
-5.83205
-5.83675
-5.84203
-5.84796
-5.85459
-5.86362
-5.87638
-5.89215
-5.91344
-5.94151
-5.97305
-6.02122
-6.09664
-6.20621
-6.33602
-6.45246
-6.54336
-6.59455
-6.80638
-6.87976
-5.77559
-219.072
-761.606
-326.844
-5.81756
-6.41426
-8.74316
-6.10292
)
;
    }
    defaultFaces
    {
        type            empty;
    }
}


// ************************************************************************* //
