/*--------------------------------*- C++ -*----------------------------------*\
| =========                 |                                                 |
| \\      /  F ield         | OpenFOAM: The Open Source CFD Toolbox           |
|  \\    /   O peration     | Version:  2206                                  |
|   \\  /    A nd           | Website:  www.openfoam.com                      |
|    \\/     M anipulation  |                                                 |
\*---------------------------------------------------------------------------*/
FoamFile
{
    version     2.0;
    format      ascii;
    arch        "LSB;label=32;scalar=64";
    class       volScalarField;
    location    "0.375";
    object      p_rgh;
}
// * * * * * * * * * * * * * * * * * * * * * * * * * * * * * * * * * * * * * //

dimensions      [1 -1 -2 0 0 0 0];

internalField   nonuniform List<scalar> 
2268
(
1000.98
1004
1012.7
1019.23
1020.39
1016.07
1009.31
1002.93
998.395
996.258
996.792
1000.27
1007.06
1017.68
1032.5
1051.58
1074.41
1098.43
1116.84
1120.35
1091.41
1069.53
1115.22
999.886
1002.67
1011.52
1017.99
1019.1
1014.81
1008.14
1001.9
997.485
995.425
995.993
999.453
1006.08
1015.97
1029.92
1047.85
1069.69
1093.85
1114.63
1121.85
1090.78
1053.41
1108.43
997.643
1000.16
1009.23
1015.53
1016.54
1012.3
1005.85
999.869
995.678
993.765
994.394
997.837
1004.39
1014.44
1027.89
1044.95
1064.81
1085.75
1104.28
1112.65
1098.09
1063.15
1108.18
994.462
996.454
1005.99
1011.92
1012.77
1008.62
1002.48
996.882
993.011
991.3
992.01
995.432
1001.89
1011.66
1024.8
1041.17
1059.77
1078.48
1094.17
1102.01
1096.38
1082.35
1120.93
990.618
992.172
1001.4
1007.23
1007.92
1003.88
998.123
992.998
989.513
988.037
988.833
992.218
998.54
1008.08
1020.89
1036.67
1054.43
1072.07
1086.57
1094.7
1096.84
1097.82
1138.07
986.389
987.161
995.912
1001.62
1002.14
998.227
992.906
988.293
985.219
983.981
984.847
988.171
994.334
1003.64
1016.14
1031.49
1048.68
1065.79
1080.15
1088.96
1094.84
1102
1138.5
982.103
981.589
989.609
995.037
995.386
991.671
986.858
982.802
980.144
979.124
980.03
983.258
989.237
998.295
1010.52
1025.54
1042.4
1059.33
1073.91
1083.18
1089.11
1094.23
1117.29
978.108
975.687
982.261
987.196
987.483
984.12
979.926
976.481
974.237
973.394
974.278
977.347
983.106
991.961
1004.01
1018.78
1035.48
1052.45
1067.35
1076.87
1080.62
1078.37
1072.38
201.838
201.768
201.648
201.498
201.33
201.158
200.987
200.824
200.674
200.537
200.415
200.309
200.218
200.142
200.08
200.031
199.996
199.97
199.951
201.856
201.779
201.653
201.499
201.329
201.154
200.982
200.82
200.669
200.532
200.411
200.304
200.213
200.136
200.074
200.025
199.989
199.963
199.944
201.88
201.795
201.661
201.501
201.328
201.151
200.977
200.813
200.662
200.524
200.402
200.294
200.202
200.126
200.063
200.013
199.976
199.95
199.93
201.914
201.818
201.672
201.504
201.327
201.146
200.969
200.803
200.65
200.512
200.388
200.28
200.187
200.109
200.046
199.995
199.957
199.93
199.909
201.961
201.847
201.685
201.506
201.324
201.14
200.958
200.788
200.635
200.496
200.37
200.26
200.166
200.087
200.022
199.971
199.932
199.903
199.881
202.024
201.883
201.696
201.506
201.319
201.131
200.943
200.769
200.615
200.475
200.348
200.235
200.139
200.059
199.993
199.94
199.9
199.87
199.845
202.106
201.921
201.703
201.5
201.31
201.123
200.923
200.745
200.59
200.451
200.32
200.204
200.106
200.025
199.958
199.903
199.861
199.828
199.801
202.21
201.956
201.706
201.485
201.295
201.113
200.897
200.712
200.559
200.422
200.287
200.167
200.067
199.985
199.917
199.86
199.815
199.779
199.749
972.342
966.629
969.599
974.007
974.502
971.621
968.223
965.576
963.839
963.14
963.847
966.491
971.676
979.982
991.961
1006.85
1023.97
1041.8
1057.71
1067.66
1066.07
1043.47
952.408
968.964
958.022
953.343
955.99
956.146
952.82
949.649
947.61
946.271
945.632
946.121
948.281
952.588
959.174
968.149
981.569
999.643
1020.47
1040.48
1054.67
1055.85
1040.24
998.725
973.419
958.071
933.065
926.389
926.158
920.435
914.463
910.943
908.118
905.198
903.081
903.617
909.159
921.318
939.514
960.883
980.181
1005.96
1032.91
1053.15
1063.6
1065.21
1056.69
981.579
775.149
475.649
458.425
468.027
442.869
414.405
397.378
383.415
367.967
353.143
343.629
346.096
362.856
397.386
460.108
590.775
772.641
968.922
1047.51
1073.67
1091.4
1097.21
392.161
84.4249
2.73015
2.43678
2.48146
2.4843
2.49873
2.51999
2.54833
2.584
2.62651
2.67328
2.72658
2.79334
2.88177
2.94801
10.394
48.6506
146.292
346.983
676.211
1032.63
1134.42
2.38054
2.26346
2.24163
2.36669
2.4242
2.455
2.47811
2.50322
2.5326
2.56679
2.61164
2.65505
2.70535
2.77053
2.8467
2.8994
2.89959
2.89678
3.03818
3.41123
27.3999
175.695
513.853
2.36829
2.34058
2.41256
2.38913
2.40502
2.42733
2.45016
2.47393
2.50098
2.53195
2.56858
2.60595
2.64786
2.71683
2.8442
3.07102
3.15228
3.05229
2.98883
2.92525
2.96503
2.84282
4.75446
2.33992
2.33921
2.36248
2.3682
2.3804
2.39731
2.41702
2.4388
2.46311
2.49038
2.52068
2.55166
2.57651
2.71869
3.32067
3.50494
3.41735
3.30418
3.20221
3.13286
2.97038
2.55229
2.69341
2.30812
2.3125
2.32806
2.33771
2.34995
2.365
2.38261
2.40222
2.4237
2.44696
2.47129
2.493
2.51266
2.69508
3.20115
3.41853
3.32201
3.15957
2.87126
2.93646
2.86848
2.43333
2.65494
2.27911
2.2854
2.29522
2.30461
2.31624
2.33007
2.34605
2.36374
2.38268
2.4026
2.42277
2.44006
2.45649
2.47911
2.43821
2.67855
3.1549
3.18884
2.26389
2.26582
2.31325
2.44327
2.71398
2.24665
2.25197
2.25978
2.26869
2.27975
2.29278
2.30766
2.32417
2.34143
2.35947
2.37724
2.39324
2.40899
2.40932
2.40187
2.37593
2.32981
2.49452
2.49612
2.37567
2.43189
2.60809
2.8461
2.21121
2.21528
2.22224
2.23046
2.24097
2.25344
2.26782
2.28359
2.30027
2.31753
2.33471
2.35086
2.36548
2.37428
2.37719
2.3711
2.35366
2.40659
3.33761
3.41025
3.53297
3.65412
3.81043
2.17246
2.1754
2.18248
2.18992
2.2
2.21217
2.22621
2.24179
2.25855
2.27614
2.29414
2.31206
2.3294
2.34439
2.3574
2.36819
2.3774
2.38638
2.40162
2.45155
2.64447
2.94448
3.23689
2.13075
2.13337
2.13963
2.14679
2.15678
2.16881
2.18278
2.1985
2.21569
2.23413
2.25359
2.27383
2.29459
2.31537
2.33681
2.35951
2.38494
2.41673
2.46225
2.52842
2.61555
2.72328
2.84491
2.08607
2.08851
2.09415
2.10148
2.11129
2.12332
2.13741
2.15344
2.17127
2.19078
2.21189
2.23458
2.25885
2.28469
2.31311
2.34501
2.38194
2.42657
2.48269
2.5537
2.64182
2.74724
2.86457
2.03856
2.04093
2.04625
2.05365
2.06346
2.07557
2.0899
2.10638
2.12495
2.14559
2.16836
2.19338
2.22086
2.25108
2.28491
2.32365
2.3686
2.42181
2.48556
2.56159
2.65046
2.75139
2.86397
1.9883
1.99067
1.99585
2.0033
2.01318
2.02545
2.04008
2.05705
2.07637
2.09812
2.12242
2.14952
2.17978
2.21376
2.25125
2.29506
2.34542
2.40378
2.47157
2.54973
2.6386
2.73778
2.84607
1.93534
1.93775
1.94287
1.95038
1.96036
1.97282
1.98775
2.0052
2.02522
2.04795
2.07358
2.1024
2.1348
2.17131
2.21246
2.25949
2.31319
2.37467
2.44476
2.52404
2.61261
2.71021
2.81606
1.87972
1.88217
1.88728
1.89484
1.90492
1.91755
1.93276
1.95062
1.97124
1.99478
2.02147
2.05163
2.08568
2.12413
2.16758
2.21686
2.27273
2.33593
2.40708
2.48658
2.5745
2.67071
2.77479
1.82144
1.82392
1.82904
1.83663
1.84679
1.85955
1.87497
1.89315
1.91422
1.93836
1.96584
1.99697
2.03218
2.07193
2.11681
2.16744
2.22445
2.28841
2.35979
2.4389
2.52586
2.62065
2.72311
1.76049
1.76299
1.76811
1.77571
1.78591
1.79874
1.81429
1.83266
1.85401
1.87854
1.90651
1.93824
1.97414
2.01464
2.06024
2.11147
2.16884
2.23281
2.30377
2.382
2.46765
2.56082
2.66153
1.69689
1.69938
1.70449
1.71206
1.72225
1.73508
1.75064
1.76907
1.79053
1.81521
1.84339
1.87537
1.91152
1.95225
1.99799
2.04919
2.10629
2.16966
2.23965
2.31652
2.40047
2.4917
2.59037
1.63065
1.6331
1.63818
1.64568
1.65579
1.66853
1.68401
1.70236
1.72373
1.74835
1.77645
1.80834
1.84436
1.88486
1.93024
1.98088
2.03715
2.09939
2.16789
2.24294
2.32477
2.41365
2.50984
1.56178
1.56418
1.56919
1.57658
1.58654
1.59911
1.61439
1.63251
1.65364
1.67796
1.70573
1.73722
1.77274
1.81262
1.85719
1.9068
1.96175
2.02237
2.08891
2.16167
2.24091
2.32695
2.42012
1.49032
1.49265
1.49756
1.50479
1.51454
1.52685
1.54182
1.55958
1.58027
1.60411
1.6313
1.66211
1.69681
1.73569
1.77906
1.8272
1.88041
1.93895
2.00308
2.07307
2.14922
2.23188
2.32142
1.41632
1.41857
1.42335
1.43037
1.43984
1.4518
1.46636
1.48361
1.50373
1.52688
1.55327
1.58314
1.61672
1.65429
1.6961
1.7424
1.79345
1.84949
1.91076
1.97752
2.05007
2.12878
2.21402
1.33985
1.34201
1.34662
1.35339
1.36252
1.37406
1.38809
1.40472
1.42411
1.4464
1.47179
1.50048
1.5327
1.56865
1.60858
1.65271
1.70124
1.75439
1.81238
1.87546
1.9439
2.01807
2.09833
1.26099
1.26306
1.26747
1.27394
1.28268
1.29371
1.30713
1.32303
1.34154
1.36282
1.38703
1.41434
1.44495
1.47905
1.51682
1.55846
1.60414
1.65405
1.70837
1.76734
1.83119
1.90026
1.97486
1.17984
1.18181
1.186
1.19213
1.20042
1.21088
1.2236
1.23866
1.25619
1.27631
1.29917
1.32493
1.35374
1.38575
1.42112
1.46001
1.50256
1.54891
1.59923
1.6537
1.71253
1.77599
1.84432
1.09653
1.09839
1.10232
1.10809
1.11589
1.12571
1.13765
1.15179
1.16822
1.18707
1.20845
1.23249
1.25933
1.28907
1.32184
1.35776
1.39693
1.43947
1.4855
1.53515
1.58858
1.64599
1.70751
1.0112
1.01293
1.0166
1.02196
1.02922
1.03836
1.04946
1.06259
1.07784
1.09531
1.1151
1.1373
1.16202
1.18934
1.21935
1.25213
1.28774
1.32627
1.36779
1.41237
1.4601
1.51111
1.5654
0.923998
0.925575
0.928967
0.933893
0.940575
0.948977
0.959182
0.971243
0.985239
1.00125
1.01935
1.03961
1.06211
1.0869
1.11403
1.14354
1.17548
1.20987
1.24674
1.28609
1.32794
1.3723
1.41907
0.835043
0.836441
0.839549
0.844007
0.850086
0.857713
0.866975
0.877914
0.890592
0.905072
0.921411
0.93966
0.95986
0.982039
1.00621
1.0324
1.06059
1.09078
1.12294
1.15701
1.1929
1.23053
1.26964
0.744489
0.745682
0.748505
0.752464
0.757913
0.764731
0.773013
0.782785
0.794099
0.806998
0.821523
0.837703
0.855556
0.875081
0.896269
0.919104
0.943553
0.969562
0.997045
1.02587
1.05586
1.0868
1.11829
0.652597
0.653565
0.656105
0.659535
0.664335
0.670319
0.67759
0.686165
0.696078
0.707361
0.720038
0.734121
0.749605
0.766469
0.784682
0.804203
0.82497
0.84689
0.869825
0.893577
0.917869
0.942348
0.966481
0.559614
0.560335
0.562604
0.565474
0.569613
0.574746
0.580986
0.588338
0.596828
0.606475
0.61729
0.629268
0.642389
0.656615
0.671901
0.688187
0.705388
0.723377
0.741974
0.760919
0.779849
0.798291
0.81557
0.465401
0.465815
0.467833
0.470115
0.473581
0.477844
0.483029
0.489137
0.496184
0.504177
0.513116
0.522983
0.533748
0.545363
0.557772
0.570905
0.58466
0.598889
0.613382
0.627832
0.641814
0.654768
0.665918
0.369794
0.369812
0.371594
0.373276
0.376047
0.379424
0.383535
0.38838
0.393961
0.400278
0.407322
0.415071
0.423485
0.432511
0.442091
0.45215
0.462579
0.473218
0.483844
0.49413
0.503632
0.511758
0.517696
0.27402
0.273627
0.27516
0.276265
0.27833
0.280826
0.283869
0.287454
0.291576
0.296231
0.301406
0.307073
0.313189
0.319704
0.326563
0.333691
0.340978
0.348268
0.355341
0.36189
0.367494
0.371594
0.37343
0.179726
0.179048
0.180246
0.180843
0.182202
0.183841
0.185843
0.188203
0.190912
0.193963
0.197338
0.201007
0.204932
0.209071
0.213372
0.217765
0.222148
0.226381
0.230273
0.233564
0.235906
0.236827
0.235684
0.0851069
0.0842275
0.0849522
0.0850951
0.0857281
0.0865074
0.0874688
0.0886043
0.0899039
0.0913542
0.0929367
0.0946273
0.0963952
0.0982017
0.0999986
0.101725
0.1033
0.104613
0.105521
0.105834
0.105302
0.103588
0.100228
-0.0149631
-0.0164571
-0.0162561
-0.0165781
-0.0167281
-0.016888
-0.0170609
-0.0172609
-0.0175021
-0.017799
-0.0181674
-0.0186271
-0.0192053
-0.0199371
-0.0208642
-0.0220348
-0.0235051
-0.0253413
-0.0276232
-0.0304521
-0.0339583
-0.0383083
-0.0437202
481.796
205.507
204.038
202.37
725.547
213.721
204.036
201.931
1012.13
666.641
268.583
215.369
1087.58
1072.21
897.306
727.479
1152.39
1161.2
1144.65
1114.54
968.549
1230.33
1237.66
1240.27
122.18
426.788
752.271
950.364
2.81725
3.58099
20.6255
68.1064
2.9037
3.21453
3.78887
4.9699
2.97134
3.20937
3.86996
5.59455
3.6894
4.1247
4.32497
4.16501
3.94215
3.79093
3.48602
3.55128
3.12689
3.1845
3.36801
3.56643
3.00552
3.18943
3.37785
3.57659
3.01549
3.19455
3.38078
3.57806
3.00767
3.18514
3.37128
3.5695
2.98625
3.16248
3.35006
3.55031
2.95386
3.12936
3.31767
3.51997
2.91069
3.08531
3.2741
3.4782
2.8572
3.03061
3.21941
3.42486
2.7936
2.96531
3.15347
3.35955
2.71999
2.88933
3.07602
3.28188
2.63642
2.80249
2.98665
3.19114
2.54292
2.70462
2.88486
3.08642
2.43956
2.59556
2.77019
2.9667
2.32654
2.47533
2.64232
2.831
2.2042
2.34419
2.50125
2.6788
2.0731
2.2027
2.34751
2.51046
1.934
2.05175
2.18221
2.32738
1.78785
1.89251
2.00697
2.13193
1.63579
1.72641
1.82373
1.92715
1.47908
1.555
1.63454
1.71607
1.31904
1.37989
1.4413
1.50121
1.1571
1.20278
1.24592
1.2843
0.99502
1.02581
1.05066
1.06655
0.834543
0.851295
0.858262
0.850486
0.676426
0.680822
0.671662
0.641209
0.521245
0.515978
0.494732
0.447869
0.371855
0.3603
0.332583
0.279282
0.230805
0.216303
0.187526
0.136728
0.0933686
0.0785106
0.0528094
0.0104817
-0.0519764
-0.0656295
-0.0853695
-0.114931
202.424
201.958
201.673
201.421
201.248
201.118
200.858
200.659
200.509
200.378
200.228
200.101
199.995
199.911
199.841
199.78
199.73
199.689
199.652
202.69
201.948
201.662
201.295
201.14
201.092
200.744
200.465
200.337
200.311
200.109
199.966
199.85
199.782
199.711
199.639
199.576
199.52
199.472
308.604
201.312
201.425
200.917
200.365
200.825
200.657
200.211
200.247
200.175
199.888
199.761
199.652
199.63
199.56
199.462
199.373
199.296
199.228
798.037
820.852
404.146
376.989
637.882
298.775
200.669
199.677
198.387
200.25
199.664
199.553
199.371
199.317
199.319
199.221
199.093
198.982
198.892
1081.15
1144.57
1125.8
1073
1090.18
1116.45
573.907
390.647
596.796
449.99
197.925
208.113
198.666
198.565
198.884
198.901
198.692
198.543
198.462
1235
1240.59
1249.86
1241.31
1236.41
1269.04
1274.44
1191.99
1152.73
1169.29
1032.18
887.916
356.106
231.486
199.13
198.631
198.253
198.097
198.061
1046.7
1096.92
1133.68
1174.11
1222.85
1276.91
1313.49
1304.26
1296.32
1307.3
1341.4
1336.59
1334.2
1104.36
352.557
199.45
197.826
197.566
197.651
112.888
147.344
181.466
220.624
271.177
338.263
483.776
718.596
925.176
1183.53
1400.84
1415.96
1444.41
1475.62
1355.41
494.749
196.051
194.913
196.788
5.49238
4.74656
4.18467
4.08261
4.12649
4.31577
4.63462
12.0646
44.6052
118.413
297.562
866.426
1521.19
1550.82
1576.74
1433.35
494.48
194.049
208.789
5.88549
4.79999
4.02498
4.04143
4.0557
4.08402
4.16178
4.32378
4.54534
4.88723
5.69682
17.2396
295.066
1342.63
1648.7
1661.14
1371.2
455.248
248.215
3.9289
3.89135
3.96905
4.05802
4.12991
4.20579
4.30456
4.43901
4.59596
4.75563
4.95367
5.38567
7.64077
220.292
1418.83
1773.37
1850.05
1244.99
404.007
3.72171
3.85921
3.98883
4.10066
4.20134
4.30405
4.41884
4.55179
4.70531
4.88888
5.09936
5.32124
5.78039
8.22515
508.411
1780.25
2026.74
1813.97
710.465
3.73857
3.87448
4.00608
4.12963
4.24889
4.37102
4.50469
4.6547
4.83108
5.04765
5.31039
5.58979
5.87997
6.50686
9.20484
1309.97
2122.02
1919.95
868.211
3.74765
3.88277
4.01852
4.15351
4.2894
4.43015
4.58115
4.75011
4.94794
5.18584
5.481
5.83018
6.20996
6.71101
7.66644
821.978
2137.97
1839.18
886.971
3.7491
3.88613
4.02647
4.17054
4.32129
4.47902
4.64651
4.83261
5.04531
5.33508
5.63513
5.97203
6.38827
6.88503
7.40734
477.797
2090.93
1826.21
843.463
3.74236
3.88182
4.02687
4.17815
4.34002
4.51374
4.69619
4.89127
5.11387
5.43381
5.784
6.09557
6.4307
6.88362
7.29613
233.939
1973.69
1979.85
777.265
3.72569
3.86801
4.01713
4.17373
4.33883
4.51891
4.71118
4.91443
5.14322
5.42757
5.82423
6.17377
6.4495
6.87482
7.27764
47.7367
1741.92
2062.4
867.071
3.69805
3.84314
3.99562
4.15587
4.32439
4.50227
4.69294
4.90171
5.13612
5.4017
5.77754
6.17479
6.54707
6.88051
7.3765
7.61336
1466.56
2101.44
978.255
3.65888
3.80642
3.96168
4.12454
4.29481
4.47495
4.66689
4.87189
5.10414
5.369
5.72342
6.14293
6.51782
6.86649
7.47149
8.03994
1232.99
2177.62
908.436
3.60774
3.75743
3.91524
4.0806
4.25265
4.43467
4.62648
4.83278
5.06382
5.3321
5.74422
6.08202
6.44123
6.73946
7.23686
8.5829
1271.91
1631.22
862.679
3.54418
3.696
3.85658
4.02525
4.2007
4.38359
4.57834
4.79326
5.06424
5.42449
5.71165
6.02985
6.39181
6.6412
7.08938
7.08897
939.973
1709.18
945.787
3.46782
3.62158
3.78535
3.95881
4.14135
4.33338
4.54101
4.79221
5.16237
5.42926
5.70351
6.02877
6.31814
6.69531
7.11783
7.33078
811.872
1846.79
1114.01
3.37758
3.53295
3.70006
3.87949
4.07315
4.28246
4.50411
4.80774
5.17697
5.4678
5.66229
5.88258
6.34233
6.90009
7.30777
7.79196
865.999
2001.84
1558.98
3.27201
3.42807
3.59787
3.78307
3.98577
4.23421
4.49747
4.81524
5.13859
5.38917
5.51741
5.74116
6.30073
6.94157
7.14577
119.601
1511.77
2137.33
2480.61
3.14929
3.30426
3.47514
3.66486
3.8772
4.15084
4.41465
4.68014
4.95843
5.26632
5.38387
5.48866
6.08074
145.649
233.727
1256.99
1709.45
1906.59
2315.39
3.00744
3.15818
3.32676
3.51818
3.73906
3.98162
4.27597
4.49191
4.79136
5.09245
5.12434
5.04828
455.706
904.364
847.083
830.545
1409.33
1585.92
1930.82
2.8448
2.98663
3.14643
3.33109
3.55517
3.80522
4.06791
4.23045
4.54791
4.89162
4.86826
268.977
947.344
938.194
836.113
116.618
370.766
1167.34
1397.66
2.66101
2.78839
2.93015
3.09268
3.29594
3.52012
3.69525
3.81694
4.08936
43.0523
142.854
479.934
559.852
438.831
149.056
-0.806929
4.41041
131.837
188.096
2.45793
2.56551
2.67997
2.80498
2.93822
3.09747
3.17702
3.25234
35.9544
335.916
323.778
133.981
6.80927
-2.25341
-2.9339
-1.92936
1.66394
9.1667
17.8015
2.23943
2.32328
2.40439
2.48234
2.55057
2.61355
2.63373
2.63927
93.0165
353.462
257.036
7.2368
-2.41837
-4.11434
-4.16788
-3.23287
-1.47639
2.16448
2.61574
2.01049
2.06904
2.1147
2.13949
2.13365
2.14094
2.08082
2.05867
99.0662
372.467
248.461
2.35883
-4.24613
-4.42263
-4.37354
-4.03694
-4.0893
-2.99196
-0.4275
1.77594
1.81022
1.82127
1.78867
1.69927
1.59607
1.52467
1.47274
108.313
402.233
286.319
8.68139
-4.83838
-4.86208
-4.73723
-4.4679
-4.35957
-3.54165
0.891383
1.53932
1.55223
1.53061
1.44045
1.26327
1.02261
0.926717
0.787088
60.5591
419.629
465.791
43.3085
-5.32254
-5.51237
-5.51533
-5.30208
-4.83482
-3.57277
1.64477
1.30243
1.29872
1.25186
1.11162
0.84388
0.512162
0.377239
0.184088
-0.191884
383.809
523.263
182.165
-5.71944
-6.40249
-6.72508
-6.73916
-6.14932
-4.65193
0.191073
1.06372
1.04822
0.990364
0.827675
0.495986
0.105446
0.327717
0.0268895
-0.175314
273.931
555.993
308.1
-4.01371
-7.58831
-8.19437
-8.48578
-7.81477
-6.02851
-3.73082
0.823749
0.787965
0.720057
0.558355
0.252919
-0.0647962
0.627115
0.115377
-0.128379
145.812
595.872
609.005
94.8559
-8.75926
-9.47293
-10.1335
-9.42397
-6.63153
-5.42069
0.587262
0.523628
0.428329
0.276996
0.047237
-0.144972
1.53886
2.04944
-0.361665
-0.770984
580.314
628.176
211.944
-9.27356
-10.1126
-11.1172
-10.3581
-5.18971
-6.51117
0.372579
0.285273
0.159132
0.00166475
-0.164285
-0.320615
1.11068
2.46559
0.224127
-0.661282
468.309
657.988
667.547
43.7425
-10.1704
-10.4625
-10.0461
-5.56644
-7.81479
0.198829
0.107132
-0.0218876
-0.177541
-0.314154
-0.407367
-0.474521
0.989512
1.15469
-1.08541
355.289
689.457
692.2
235.894
-9.51444
-8.29015
-8.3108
-6.13214
-8.59286
0.0647625
-0.0130834
-0.117125
-0.243165
-0.363878
-0.445801
-0.482343
-0.47162
-0.365414
-0.867943
159.315
704.626
705.587
704.632
30.7559
-5.9191
-5.22064
-5.28584
-8.06092
-0.0464453
-0.105467
-0.181124
-0.272901
-0.374527
-0.471254
-0.546359
-0.604774
-0.531002
-0.562476
-0.0425232
657.676
725.688
645.914
372.771
-4.64984
-3.7112
-2.34412
-5.50918
-0.153608
-0.194335
-0.249568
-0.324474
-0.422315
-0.536819
-0.651523
-0.77183
-0.878893
-1.40262
-1.6902
-3.16508
148.331
537.121
302.826
-3.92425
-3.49007
-0.53743
-1.98654
)
;

boundaryField
{
    leftWall
    {
        type            fixedFluxPressure;
        gradient        uniform 0;
        value           nonuniform List<scalar> 
50
(
1000.98
999.886
997.643
994.462
990.618
986.389
982.103
978.108
972.342
968.964
973.419
981.579
392.161
2.38054
2.36829
2.33992
2.30812
2.27911
2.24665
2.21121
2.17246
2.13075
2.08607
2.03856
1.9883
1.93534
1.87972
1.82144
1.76049
1.69689
1.63065
1.56178
1.49032
1.41632
1.33985
1.26099
1.17984
1.09653
1.0112
0.923998
0.835043
0.744489
0.652597
0.559614
0.465401
0.369794
0.27402
0.179726
0.0851069
-0.0149631
)
;
    }
    rightWall
    {
        type            fixedFluxPressure;
        gradient        uniform 0;
        value           nonuniform List<scalar> 
50
(
199.951
199.944
199.93
199.909
199.881
199.845
199.801
199.749
199.652
199.472
199.228
198.892
198.462
198.061
197.651
196.788
208.789
248.215
404.007
710.465
868.211
886.971
843.463
777.265
867.071
978.255
908.436
862.679
945.787
1114.01
1558.98
2480.61
2315.39
1930.82
1397.66
188.096
17.8015
2.61574
-0.4275
0.891383
1.64477
0.191073
-3.73082
-5.42069
-6.51117
-7.81479
-8.59286
-8.06092
-5.50918
-1.98654
)
;
    }
    lowerWall
    {
        type            fixedFluxPressure;
        gradient        uniform 0;
        value           nonuniform List<scalar> 
62
(
1000.98
1004
1012.7
1019.23
1020.39
1016.07
1009.31
1002.93
998.395
996.258
996.792
1000.27
1007.06
1017.68
1032.5
1051.58
1074.41
1098.43
1116.84
1120.35
1091.41
1069.53
1115.22
1115.22
1108.43
1108.18
1120.93
1138.07
1138.5
1117.29
1072.38
481.796
205.507
204.038
202.37
201.838
201.856
201.88
201.914
201.961
202.024
202.106
202.21
201.838
201.768
201.648
201.498
201.33
201.158
200.987
200.824
200.674
200.537
200.415
200.309
200.218
200.142
200.08
200.031
199.996
199.97
199.951
)
;
    }
    atmosphere
    {
        type            totalPressure;
        rho             rho;
        psi             none;
        gamma           1;
        p0              uniform 0;
        value           nonuniform List<scalar> 
46
(
-0.0703562
-0.0729719
-0.0728267
-0.0734241
-0.07401
-0.0747144
-0.075548
-0.0765292
-0.0776743
-0.0789956
-0.0805057
-0.0822255
-0.0841847
-0.0864153
-0.0889509
-0.0918333
-0.0951095
-0.0988221
-0.103007
-0.10771
-0.112993
-0.118923
-0.125552
-0.134579
-0.147342
-0.163115
-0.184395
-0.212467
-0.244009
-0.292183
-0.367599
-0.477173
-0.606983
-0.723418
-0.814318
-0.865513
-1.07734
-1.15072
-0.0465517
0
0
0
0
0
0
0
)
;
    }
    defaultFaces
    {
        type            empty;
    }
}


// ************************************************************************* //
