/*--------------------------------*- C++ -*----------------------------------*\
| =========                 |                                                 |
| \\      /  F ield         | OpenFOAM: The Open Source CFD Toolbox           |
|  \\    /   O peration     | Version:  2206                                  |
|   \\  /    A nd           | Website:  www.openfoam.com                      |
|    \\/     M anipulation  |                                                 |
\*---------------------------------------------------------------------------*/
FoamFile
{
    version     2.0;
    format      ascii;
    arch        "LSB;label=32;scalar=64";
    class       surfaceScalarField;
    location    "0.375";
    object      phi;
}
// * * * * * * * * * * * * * * * * * * * * * * * * * * * * * * * * * * * * * //

dimensions      [0 3 -1 0 0 0 0];

oriented        oriented;

internalField   nonuniform List<scalar> 
4432
(
-2.81288e-06
2.81288e-06
-1.21277e-06
-1.60011e-06
3.88443e-06
-5.0972e-06
1.04267e-05
-6.54224e-06
1.68357e-05
-6.40903e-06
2.23045e-05
-5.46881e-06
2.66372e-05
-4.3327e-06
2.99568e-05
-3.31962e-06
3.24844e-05
-2.52763e-06
3.44201e-05
-1.9357e-06
3.58892e-05
-1.46908e-06
3.69241e-05
-1.03491e-06
3.74444e-05
-5.20224e-07
3.7189e-05
2.55355e-07
3.56692e-05
1.51977e-06
3.21913e-05
3.47794e-06
2.58232e-05
6.36808e-06
1.5876e-05
9.94719e-06
3.51328e-06
1.23627e-05
-8.23555e-06
1.17488e-05
-1.72498e-05
9.01425e-06
-1.75033e-05
2.53522e-07
-1.75033e-05
-2.82651e-06
5.63939e-06
-9.89103e-07
-3.43752e-06
4.1707e-06
-1.0257e-05
1.07032e-05
-1.30748e-05
1.70621e-05
-1.27679e-05
2.24709e-05
-1.08777e-05
2.67599e-05
-8.62173e-06
3.00675e-05
-6.62722e-06
3.26192e-05
-5.07932e-06
3.46091e-05
-3.92555e-06
3.61528e-05
-3.01278e-06
3.72809e-05
-2.16308e-06
3.79784e-05
-1.21771e-06
3.82472e-05
-1.34449e-08
3.81831e-05
1.58388e-06
3.76735e-05
3.98758e-06
3.61739e-05
7.86761e-06
3.19992e-05
1.41219e-05
2.25858e-05
2.17761e-05
7.46861e-06
2.68661e-05
-7.32876e-06
2.38116e-05
-9.56189e-06
2.48664e-06
-2.70652e-05
-2.55779e-06
8.19718e-06
-5.86984e-07
-5.40832e-06
4.62014e-06
-1.54641e-05
1.10813e-05
-1.95359e-05
1.72843e-05
-1.89709e-05
2.25172e-05
-1.61105e-05
2.66647e-05
-1.27692e-05
2.98954e-05
-9.85794e-06
3.244e-05
-7.62395e-06
3.44804e-05
-5.96589e-06
3.61135e-05
-4.64585e-06
3.73545e-05
-3.40413e-06
3.81484e-05
-2.0116e-06
3.8406e-05
-2.7107e-07
3.80228e-05
1.96713e-06
3.70473e-05
4.96302e-06
3.58299e-05
9.08504e-06
3.47404e-05
1.52114e-05
3.22175e-05
2.4299e-05
2.50952e-05
3.39883e-05
1.37514e-05
3.51555e-05
4.30815e-06
1.19298e-05
-2.27571e-05
-2.20959e-06
1.04068e-05
2.23455e-08
-7.64026e-06
5.22839e-06
-2.06702e-05
1.15666e-05
-2.58741e-05
1.75416e-05
-2.49459e-05
2.25318e-05
-2.11008e-05
2.64983e-05
-1.67357e-05
2.96465e-05
-1.30061e-05
3.22067e-05
-1.01842e-05
3.43381e-05
-8.09732e-06
3.61093e-05
-6.41702e-06
3.75108e-05
-4.80568e-06
3.84776e-05
-2.97833e-06
3.89175e-05
-7.11035e-07
3.87112e-05
2.17345e-06
3.77964e-05
5.87781e-06
3.62747e-05
1.06068e-05
3.48754e-05
1.66107e-05
3.44993e-05
2.46751e-05
3.35601e-05
3.49274e-05
2.79311e-05
4.07845e-05
1.53958e-05
2.44651e-05
-7.36125e-06
-1.7686e-06
1.21754e-05
6.45521e-07
-1.00544e-05
5.94345e-06
-2.59681e-05
1.21149e-05
-3.20455e-05
1.77995e-05
-3.06306e-05
2.24963e-05
-2.57975e-05
2.62593e-05
-2.04987e-05
2.93329e-05
-1.60797e-05
3.19375e-05
-1.27888e-05
3.41987e-05
-1.03585e-05
3.61478e-05
-8.36617e-06
3.77473e-05
-6.40513e-06
3.89178e-05
-4.14885e-06
3.95639e-05
-1.35718e-06
3.95947e-05
2.14268e-06
3.89601e-05
6.51243e-06
3.76677e-05
1.18992e-05
3.59494e-05
1.83289e-05
3.49055e-05
2.57191e-05
3.52194e-05
3.46135e-05
3.29752e-05
4.30287e-05
2.10247e-05
3.64157e-05
1.36634e-05
-1.2149e-06
1.33903e-05
1.44742e-06
-1.27167e-05
6.74312e-06
-3.12638e-05
1.27017e-05
-3.80041e-05
1.80562e-05
-3.59851e-05
2.24358e-05
-3.01772e-05
2.59978e-05
-2.40607e-05
2.90214e-05
-1.91032e-05
3.17062e-05
-1.54735e-05
3.41334e-05
-1.27857e-05
3.62912e-05
-1.0524e-05
3.8111e-05
-8.22502e-06
3.94986e-05
-5.53638e-06
4.03566e-05
-2.21521e-06
4.06094e-05
1.88986e-06
4.02232e-05
6.89866e-06
3.92182e-05
1.29042e-05
3.76549e-05
1.98922e-05
3.5857e-05
2.75169e-05
3.49835e-05
3.5487e-05
3.33351e-05
4.46772e-05
2.30247e-05
4.6726e-05
3.66881e-05
-5.71259e-07
1.39615e-05
2.35107e-06
-1.5639e-05
7.57352e-06
-3.64863e-05
1.32724e-05
-4.3703e-05
1.82844e-05
-4.09971e-05
2.23614e-05
-3.42541e-05
2.57588e-05
-2.74582e-05
2.87805e-05
-2.21249e-05
3.15925e-05
-1.82856e-05
3.42239e-05
-1.54171e-05
3.66177e-05
-1.29177e-05
3.8676e-05
-1.02832e-05
4.02901e-05
-7.15049e-06
4.1359e-05
-3.28415e-06
4.18149e-05
1.43399e-06
4.16312e-05
7.08235e-06
4.08193e-05
1.37161e-05
3.94641e-05
2.12474e-05
3.74976e-05
2.94835e-05
3.53854e-05
3.75992e-05
3.28825e-05
4.71801e-05
2.41976e-05
5.5411e-05
6.08857e-05
1.42422e-07
1.38191e-05
3.34546e-06
-1.88421e-05
8.416e-06
-4.15568e-05
1.37794e-05
-4.90664e-05
1.844e-05
-4.56576e-05
2.22513e-05
-3.80654e-05
2.55411e-05
-3.0748e-05
2.86167e-05
-2.52006e-05
3.15975e-05
-2.12664e-05
3.44577e-05
-1.82773e-05
3.71013e-05
-1.55613e-05
3.94102e-05
-1.25921e-05
4.12658e-05
-9.00613e-06
4.25624e-05
-4.58074e-06
4.32531e-05
7.43264e-07
4.32711e-05
7.06434e-06
4.26082e-05
1.43791e-05
4.13569e-05
2.24987e-05
3.94747e-05
3.13657e-05
3.68451e-05
4.02287e-05
3.3208e-05
5.08172e-05
2.54931e-05
6.31259e-05
8.63788e-05
-7.24238e-06
7.24238e-06
-1.48945e-05
7.65224e-06
-2.27347e-05
7.84028e-06
-2.98101e-05
7.07547e-06
-3.56157e-05
5.80564e-06
-4.00658e-05
4.45003e-06
-4.32398e-05
3.17403e-06
-4.5178e-05
1.93806e-06
-4.58566e-05
6.78856e-07
-4.53538e-05
-5.02817e-07
-4.37588e-05
-1.59489e-06
-4.10875e-05
-2.67131e-06
-3.73846e-05
-3.70291e-06
-3.27315e-05
-4.65324e-06
-2.72451e-05
-5.48654e-06
-2.10418e-05
-6.20306e-06
-1.41289e-05
-6.91283e-06
-6.43797e-06
-7.69093e-06
-6.43776e-06
-1.22547e-05
1.94971e-05
-2.24849e-05
1.78826e-05
-3.06759e-05
1.60314e-05
-3.66291e-05
1.30287e-05
-4.06509e-05
9.82752e-06
-4.32578e-05
7.05684e-06
-4.49126e-05
4.82905e-06
-4.57445e-05
2.7698e-06
-4.57158e-05
6.5045e-07
-4.46451e-05
-1.57343e-06
-4.24892e-05
-3.75071e-06
-3.93318e-05
-5.82894e-06
-3.53038e-05
-7.731e-06
-3.05293e-05
-9.42757e-06
-2.51461e-05
-1.08698e-05
-1.92543e-05
-1.20946e-05
-1.28239e-05
-1.33431e-05
-5.7706e-06
-1.47447e-05
-1.22082e-05
-1.22538e-05
3.1751e-05
-2.19691e-05
2.75979e-05
-2.97369e-05
2.37992e-05
-3.5533e-05
1.88248e-05
-3.97186e-05
1.40132e-05
-4.27183e-05
1.00564e-05
-4.48973e-05
7.00835e-06
-4.61881e-05
4.06051e-06
-4.64124e-05
8.75006e-07
-4.549e-05
-2.49584e-06
-4.34465e-05
-5.79414e-06
-4.03482e-05
-8.92731e-06
-3.63046e-05
-1.17747e-05
-3.14417e-05
-1.42902e-05
-2.5909e-05
-1.64025e-05
-1.98379e-05
-1.81658e-05
-1.32017e-05
-1.99792e-05
-5.93889e-06
-2.20079e-05
-1.81469e-05
-1.2283e-05
4.40341e-05
-2.20348e-05
3.73497e-05
-3.01581e-05
3.19224e-05
-3.62402e-05
2.49069e-05
-4.05336e-05
1.83068e-05
-4.35081e-05
1.30308e-05
-4.57254e-05
9.2259e-06
-4.7089e-05
5.42404e-06
-4.7362e-05
1.14808e-06
-4.64406e-05
-3.41728e-06
-4.43954e-05
-7.83924e-06
-4.1289e-05
-1.20337e-05
-3.72218e-05
-1.58419e-05
-3.23016e-05
-1.92102e-05
-2.66698e-05
-2.20343e-05
-2.04547e-05
-2.4381e-05
-1.36179e-05
-2.68159e-05
-6.11541e-06
-2.95106e-05
-2.42621e-05
-1.34918e-05
5.75259e-05
-2.35753e-05
4.74332e-05
-3.21243e-05
4.04714e-05
-3.81911e-05
3.09738e-05
-4.21426e-05
2.22584e-05
-4.46916e-05
1.55797e-05
-4.6853e-05
1.13875e-05
-4.83156e-05
6.88655e-06
-4.86423e-05
1.47487e-06
-4.76764e-05
-4.38325e-06
-4.55592e-05
-9.9563e-06
-4.23566e-05
-1.52362e-05
-3.81835e-05
-2.0015e-05
-3.31371e-05
-2.42565e-05
-2.73705e-05
-2.78011e-05
-2.0986e-05
-3.07657e-05
-1.39531e-05
-3.38486e-05
-6.23686e-06
-3.7227e-05
-3.04988e-05
-1.52732e-05
7.27991e-05
-2.59055e-05
5.80655e-05
-3.49721e-05
4.9538e-05
-4.09015e-05
3.69033e-05
-4.42342e-05
2.55912e-05
-4.60403e-05
1.73858e-05
-4.81918e-05
1.3539e-05
-4.98707e-05
8.56538e-06
-5.02956e-05
1.89973e-06
-4.92478e-05
-5.43113e-06
-4.70353e-05
-1.21687e-05
-4.36974e-05
-1.85739e-05
-3.93847e-05
-2.43277e-05
-3.41526e-05
-2.94886e-05
-2.81856e-05
-3.37682e-05
-2.15867e-05
-3.73646e-05
-1.43117e-05
-4.11233e-05
-6.35355e-06
-4.51852e-05
-3.68522e-05
-1.95596e-05
9.23586e-05
-2.89733e-05
6.74793e-05
-3.8583e-05
5.91476e-05
-4.42276e-05
4.2548e-05
-4.6564e-05
2.79279e-05
-4.71082e-05
1.79299e-05
-4.94967e-05
1.59274e-05
-5.1649e-05
1.07175e-05
-5.22324e-05
2.4831e-06
-5.10171e-05
-6.64644e-06
-4.87065e-05
-1.44792e-05
-4.5247e-05
-2.20333e-05
-4.08023e-05
-2.87725e-05
-3.53542e-05
-3.49367e-05
-2.91387e-05
-3.99838e-05
-2.2273e-05
-4.42303e-05
-1.47046e-05
-4.86914e-05
-6.46821e-06
-5.34217e-05
-4.33204e-05
-2.04373e-05
0.000112796
-3.25703e-05
7.96124e-05
-4.28112e-05
6.93884e-05
-4.83232e-05
4.80599e-05
-4.92974e-05
2.89022e-05
-4.7647e-05
1.62794e-05
-5.04936e-05
1.87739e-05
-5.33591e-05
1.35829e-05
-5.44402e-05
3.5642e-06
-5.27199e-05
-8.3668e-06
-5.03656e-05
-1.68335e-05
-4.679e-05
-2.56089e-05
-4.22906e-05
-3.32719e-05
-3.66977e-05
-4.05296e-05
-3.02343e-05
-4.6447e-05
-2.30651e-05
-5.13995e-05
-1.51419e-05
-5.66145e-05
-6.58789e-06
-6.19758e-05
-4.99084e-05
3.62561e-06
1.01935e-05
1.16032e-05
-2.68197e-05
2.17269e-05
-5.16805e-05
3.14721e-05
-5.88116e-05
3.98318e-05
-5.40173e-05
4.70493e-05
-4.52829e-05
5.3861e-05
-3.75597e-05
6.0717e-05
-3.20566e-05
6.76288e-05
-2.81781e-05
7.43677e-05
-2.50162e-05
8.06493e-05
-2.18429e-05
8.62255e-05
-1.81683e-05
9.08871e-05
-1.36678e-05
9.436e-05
-8.05358e-06
9.66782e-05
-1.57494e-06
9.75899e-05
6.15265e-06
9.69424e-05
1.50265e-05
9.4781e-05
2.46601e-05
9.12892e-05
3.48575e-05
8.63392e-05
4.51787e-05
8.02348e-05
5.69216e-05
7.62333e-05
6.71273e-05
8.77028e-05
7.49093e-05
9.61206e-06
5.81433e-07
2.15795e-05
-3.87871e-05
3.04948e-05
-6.05959e-05
3.63521e-05
-6.46689e-05
4.15653e-05
-5.92305e-05
4.75127e-05
-5.12303e-05
5.43956e-05
-4.44427e-05
6.19357e-05
-3.95967e-05
6.96855e-05
-3.59279e-05
7.71864e-05
-3.25171e-05
8.40677e-05
-2.87242e-05
9.01178e-05
-2.42185e-05
9.53249e-05
-1.88749e-05
9.98195e-05
-1.25482e-05
0.000103016
-4.77134e-06
0.000104797
4.3716e-06
0.000105247
1.45761e-05
0.000104175
2.57324e-05
0.000101899
3.71336e-05
9.8555e-05
4.85226e-05
9.47007e-05
6.0776e-05
9.07162e-05
7.11119e-05
9.19244e-05
8.64945e-05
1.8645e-05
-1.80636e-05
3.96334e-05
-5.97755e-05
4.60396e-05
-6.70021e-05
4.46311e-05
-6.32604e-05
4.49081e-05
-5.95075e-05
4.96894e-05
-5.60116e-05
5.7376e-05
-5.21293e-05
6.62171e-05
-4.84377e-05
7.52514e-05
-4.49622e-05
8.3907e-05
-4.11727e-05
9.18051e-05
-3.66223e-05
9.8641e-05
-3.10544e-05
0.000104067
-2.43008e-05
0.000107827
-1.63078e-05
0.000110403
-7.34795e-06
0.000112423
2.35226e-06
0.000112131
1.48676e-05
0.000111343
2.65205e-05
0.000110365
3.81117e-05
0.000109009
4.9878e-05
0.000107305
6.248e-05
0.000104123
7.42947e-05
9.06449e-05
0.000105402
2.99167e-05
-4.79803e-05
5.83876e-05
-8.82463e-05
5.74814e-05
-6.6096e-05
4.65004e-05
-5.22793e-05
4.17397e-05
-5.47468e-05
4.47728e-05
-5.90447e-05
5.1555e-05
-5.89115e-05
5.97895e-05
-5.66723e-05
6.86103e-05
-5.3783e-05
7.79606e-05
-5.0523e-05
8.79883e-05
-4.665e-05
9.85196e-05
-4.15857e-05
0.000109327
-3.51083e-05
0.000120075
-2.7056e-05
0.000130078
-1.73511e-05
0.000135906
-3.475e-06
0.000135626
1.51471e-05
0.000132255
2.98915e-05
0.000127955
4.2412e-05
0.000123638
5.4195e-05
0.000120335
6.57829e-05
0.000118156
7.6474e-05
8.7558e-05
0.000121243
3.37083e-05
-8.16886e-05
5.86513e-05
-0.000113189
3.51971e-05
-4.26417e-05
1.68234e-05
-3.39058e-05
1.03606e-05
-4.82841e-05
6.71652e-06
-5.54007e-05
4.74837e-06
-5.69434e-05
4.8763e-06
-5.68002e-05
6.84162e-06
-5.57483e-05
1.20082e-05
-5.56895e-05
2.08638e-05
-5.55055e-05
3.20742e-05
-5.2796e-05
4.40464e-05
-4.70805e-05
5.82297e-05
-4.12393e-05
7.5509e-05
-3.46304e-05
9.17609e-05
-1.97269e-05
0.000120371
-1.34636e-05
0.000135114
1.51495e-05
0.000138294
3.92319e-05
0.00013774
5.47483e-05
0.000135605
6.79179e-05
0.000133822
7.8257e-05
8.67272e-05
0.000134653
-9.52302e-07
-8.07363e-05
-1.44893e-05
-9.96525e-05
-1.06455e-05
-4.64857e-05
1.36709e-07
-4.46882e-05
8.16185e-07
-4.89638e-05
-9.65734e-07
-5.36189e-05
-3.1669e-06
-5.47422e-05
-4.83911e-06
-5.51279e-05
-4.42962e-06
-5.61577e-05
-6.73132e-07
-5.94458e-05
6.4997e-06
-6.26783e-05
1.47409e-05
-6.10372e-05
2.15839e-05
-5.39235e-05
3.20648e-05
-5.17202e-05
5.41276e-05
-5.66933e-05
8.81195e-05
-5.37188e-05
0.000116199
-4.15432e-05
0.000138035
-6.68638e-06
0.00014518
3.2087e-05
0.000137289
6.26388e-05
0.000131993
7.32145e-05
0.000134716
7.55336e-05
8.23933e-05
0.00013905
-2.0323e-05
-6.04133e-05
-3.76865e-05
-8.22892e-05
-2.05148e-05
-6.36575e-05
-9.9817e-06
-5.52215e-05
-5.49079e-06
-5.34548e-05
-5.07348e-06
-5.40362e-05
-5.73661e-06
-5.40791e-05
-6.18773e-06
-5.46767e-05
-4.84521e-06
-5.75001e-05
-1.37087e-06
-6.29201e-05
4.14446e-06
-6.81935e-05
9.54888e-06
-6.64416e-05
1.2614e-05
-5.69886e-05
2.26173e-05
-6.17236e-05
4.63086e-05
-8.03846e-05
7.81209e-05
-8.55312e-05
0.000108488
-7.191e-05
0.000140705
-3.89036e-05
0.000164209
8.58299e-06
0.000172383
5.44642e-05
0.000163002
8.25957e-05
0.000144059
9.44769e-05
0.000103397
0.000123055
-1.31259e-05
-4.72875e-05
-1.49108e-05
-8.05043e-05
-1.13038e-05
-6.72646e-05
-7.92102e-06
-5.86044e-05
-5.89069e-06
-5.54852e-05
-5.11974e-06
-5.48072e-05
-5.19026e-06
-5.40085e-05
-5.54211e-06
-5.43248e-05
-5.43445e-06
-5.76077e-05
-4.73066e-06
-6.36238e-05
-3.287e-06
-6.96371e-05
-1.00936e-06
-6.87192e-05
2.50928e-06
-6.05072e-05
1.32025e-05
-7.24168e-05
3.1027e-05
-9.82091e-05
5.35749e-05
-0.000108079
8.05297e-05
-9.88649e-05
0.000113658
-7.20315e-05
0.0001492
-2.69597e-05
0.000172892
3.07723e-05
0.00017409
8.1398e-05
0.000159618
0.000108949
0.000111147
0.000151868
-4.32824e-06
-4.29594e-05
-7.46757e-06
-7.73651e-05
-7.94101e-06
-6.67913e-05
-6.75175e-06
-5.97937e-05
-5.24863e-06
-5.69884e-05
-4.44375e-06
-5.56121e-05
-4.27637e-06
-5.41759e-05
-4.74927e-06
-5.38518e-05
-5.83153e-06
-5.65253e-05
-7.39055e-06
-6.20647e-05
-8.67217e-06
-6.83555e-05
-7.38444e-06
-7.00069e-05
-1.20538e-06
-6.66863e-05
4.66307e-06
-7.82852e-05
5.07454e-06
-9.86206e-05
1.11279e-05
-0.000114132
2.57607e-05
-0.000113498
5.11905e-05
-9.74613e-05
8.39413e-05
-5.97106e-05
0.000115353
-6.39072e-07
0.000132329
6.44214e-05
0.000134679
0.000106599
0.000120107
0.00012572
-1.54107e-06
-4.14183e-05
-4.39716e-06
-7.4509e-05
-5.23994e-06
-6.59485e-05
-4.83132e-06
-6.02024e-05
-3.90498e-06
-5.79148e-05
-3.09889e-06
-5.64182e-05
-2.54966e-06
-5.47251e-05
-2.58849e-06
-5.3813e-05
-3.64064e-06
-5.54731e-05
-5.80659e-06
-5.98988e-05
-8.3428e-06
-6.58193e-05
-8.465e-06
-6.98847e-05
-4.44605e-06
-7.07052e-05
-4.37444e-06
-7.83568e-05
-1.12528e-05
-9.17423e-05
-1.80798e-05
-0.000107305
-2.19983e-05
-0.000109579
-2.02902e-05
-9.91696e-05
-5.38273e-06
-7.46181e-05
1.8674e-05
-2.46958e-05
4.40981e-05
3.89974e-05
6.17441e-05
8.8953e-05
0.000113212
6.86387e-05
1.10533e-07
-4.15289e-05
-2.10514e-06
-7.22933e-05
-3.12622e-06
-6.49274e-05
-2.9978e-06
-6.03308e-05
-2.3106e-06
-5.8602e-05
-1.44167e-06
-5.72871e-05
-4.17797e-07
-5.5749e-05
3.93123e-07
-5.46239e-05
2.91748e-07
-5.53718e-05
-1e-06
-5.8607e-05
-3.30171e-06
-6.35176e-05
-4.73583e-06
-6.84506e-05
-3.81426e-06
-7.16268e-05
-5.06016e-06
-7.71109e-05
-1.12975e-05
-8.5505e-05
-2.38227e-05
-9.47804e-05
-3.71712e-05
-9.62307e-05
-4.93821e-05
-8.69588e-05
-6.05647e-05
-6.34354e-05
-5.7317e-05
-2.79435e-05
-3.50289e-05
1.67094e-05
-2.04865e-06
5.59728e-05
7.89805e-05
3.21832e-05
7.47376e-07
-4.22763e-05
-8.10819e-07
-7.07351e-05
-1.63539e-06
-6.41028e-05
-1.55787e-06
-6.04083e-05
-1.01831e-06
-5.91415e-05
-1.33417e-07
-5.81719e-05
1.16176e-06
-5.70441e-05
2.65723e-06
-5.61193e-05
3.66357e-06
-5.63781e-05
3.60279e-06
-5.85462e-05
2.39014e-06
-6.23049e-05
5.97495e-07
-6.6658e-05
-6.21624e-07
-7.04077e-05
-3.03929e-06
-7.46933e-05
-9.75495e-06
-7.87894e-05
-2.16172e-05
-8.29182e-05
-3.29715e-05
-8.48764e-05
-3.87789e-05
-8.11515e-05
-3.77429e-05
-6.44715e-05
-3.41333e-05
-3.1553e-05
-1.92651e-05
1.84117e-06
6.07225e-06
3.06356e-05
4.71917e-05
3.78611e-05
1.02234e-06
-4.32986e-05
-7.19509e-08
-6.96407e-05
-6.60064e-07
-6.35146e-05
-5.50898e-07
-6.05174e-05
-8.85352e-08
-5.96038e-05
7.07866e-07
-5.89683e-05
1.94622e-06
-5.82824e-05
3.5601e-06
-5.77331e-05
5.05317e-06
-5.78711e-05
5.75791e-06
-5.92509e-05
5.28479e-06
-6.18318e-05
3.59524e-06
-6.49684e-05
1.11761e-06
-6.79301e-05
-3.01312e-06
-7.05626e-05
-9.48126e-06
-7.23213e-05
-1.9533e-05
-7.28666e-05
-3.34881e-05
-7.09214e-05
-4.89127e-05
-6.5727e-05
-5.97511e-05
-5.36332e-05
-5.7261e-05
-3.40431e-05
-4.41848e-05
-1.1235e-05
-2.07325e-05
7.18328e-06
2.36895e-05
2.76982e-06
1.03138e-06
-4.43299e-05
2.86399e-07
-6.88956e-05
-1.34089e-08
-6.32147e-05
1.23596e-07
-6.06543e-05
5.474e-07
-6.00275e-05
1.19894e-06
-5.96197e-05
2.15255e-06
-5.92359e-05
3.41133e-06
-5.89918e-05
4.68404e-06
-5.91438e-05
5.42531e-06
-5.99922e-05
5.16263e-06
-6.15691e-05
3.69474e-06
-6.35006e-05
1.04127e-06
-6.52767e-05
-2.99366e-06
-6.65278e-05
-8.41373e-06
-6.69013e-05
-1.53617e-05
-6.59187e-05
-2.36103e-05
-6.26728e-05
-3.28611e-05
-5.64763e-05
-4.02183e-05
-4.6276e-05
-4.17332e-05
-3.25282e-05
-3.53803e-05
-1.75879e-05
-2.46149e-05
-3.58201e-06
9.70627e-06
-1.06316e-05
9.54105e-07
-4.52839e-05
5.25094e-07
-6.84664e-05
4.05954e-07
-6.30954e-05
5.97474e-07
-6.08457e-05
9.75686e-07
-6.04056e-05
1.49316e-06
-6.01371e-05
2.15702e-06
-5.98997e-05
2.95967e-06
-5.97944e-05
3.74482e-06
-5.99289e-05
4.16344e-06
-6.04108e-05
3.83968e-06
-6.12454e-05
2.57391e-06
-6.22349e-05
3.39777e-07
-6.30427e-05
-2.86193e-06
-6.33262e-05
-6.96842e-06
-6.27949e-05
-1.18352e-05
-6.10519e-05
-1.69451e-05
-5.75629e-05
-2.15954e-05
-5.18262e-05
-2.43172e-05
-4.35543e-05
-2.37437e-05
-3.31017e-05
-1.95042e-05
-2.18274e-05
-1.2048e-05
-1.10381e-05
-1.21931e-06
-1.1224e-06
8.69962e-07
-4.61538e-05
6.7067e-07
-6.8267e-05
6.77294e-07
-6.3102e-05
9.16262e-07
-6.10846e-05
1.27298e-06
-6.07622e-05
1.70727e-06
-6.05714e-05
2.19171e-06
-6.03841e-05
2.68798e-06
-6.02907e-05
3.10067e-06
-6.03416e-05
3.24221e-06
-6.05523e-05
2.88877e-06
-6.0892e-05
1.89081e-06
-6.12371e-05
2.1641e-07
-6.13684e-05
-2.09167e-06
-6.10182e-05
-4.92638e-06
-5.99602e-05
-8.09162e-06
-5.78867e-05
-1.11982e-05
-5.44564e-05
-1.35854e-05
-4.9439e-05
-1.43735e-05
-4.27661e-05
-1.27179e-05
-3.47573e-05
-8.38309e-06
-2.61621e-05
-1.5385e-06
-1.78826e-05
-1.04703e-05
7.71248e-06
8.00966e-07
-4.69547e-05
7.64155e-07
-6.82301e-05
8.65577e-07
-6.32033e-05
1.1425e-06
-6.13615e-05
1.49431e-06
-6.1114e-05
1.88804e-06
-6.09651e-05
2.29346e-06
-6.07895e-05
2.66138e-06
-6.06586e-05
2.92068e-06
-6.06008e-05
2.97386e-06
-6.06055e-05
2.70681e-06
-6.06251e-05
2.03233e-06
-6.05627e-05
9.30473e-07
-6.02666e-05
-5.41014e-07
-5.95467e-05
-2.26712e-06
-5.82341e-05
-4.06252e-06
-5.60913e-05
-5.57803e-06
-5.29409e-05
-6.37517e-06
-4.8642e-05
-5.8996e-06
-4.32417e-05
-3.69961e-06
-3.69573e-05
4.38055e-07
-3.02997e-05
6.49414e-06
-2.39387e-05
-1.82887e-05
1.43125e-05
7.55636e-07
-4.77102e-05
8.30916e-07
-6.83053e-05
1.00344e-06
-6.33758e-05
1.31417e-06
-6.16722e-05
1.67247e-06
-6.14724e-05
2.05198e-06
-6.13447e-05
2.43224e-06
-6.11698e-05
2.77371e-06
-6.1e-05
3.02303e-06
-6.08501e-05
3.1211e-06
-6.07036e-05
3.00993e-06
-6.0514e-05
2.6494e-06
-6.02023e-05
2.04045e-06
-5.96578e-05
1.2425e-06
-5.87488e-05
3.48236e-07
-5.73398e-05
-4.57584e-07
-5.52855e-05
-9.24283e-07
-5.24742e-05
-7.14585e-07
-4.88517e-05
5.22044e-07
-4.44784e-05
3.10395e-06
-3.95392e-05
7.17451e-06
-3.43703e-05
1.26944e-05
-2.94587e-05
-2.51274e-05
1.95331e-05
7.33591e-07
-4.84438e-05
8.8394e-07
-6.84557e-05
1.11106e-06
-6.3603e-05
1.45414e-06
-6.20154e-05
1.82842e-06
-6.18468e-05
2.21206e-06
-6.17284e-05
2.59384e-06
-6.15516e-05
2.94934e-06
-6.13555e-05
3.24365e-06
-6.11444e-05
3.43907e-06
-6.08991e-05
3.50476e-06
-6.05797e-05
3.42779e-06
-6.01254e-05
3.22548e-06
-5.94555e-05
2.95385e-06
-5.84771e-05
2.70839e-06
-5.70943e-05
2.64005e-06
-5.52171e-05
2.94973e-06
-5.27839e-05
3.87934e-06
-4.97813e-05
5.66721e-06
-4.62663e-05
8.50761e-06
-4.23796e-05
1.24977e-05
-3.83604e-05
1.76131e-05
-3.45741e-05
-3.12665e-05
2.37522e-05
7.30576e-07
-4.91744e-05
9.30188e-07
-6.86553e-05
1.20106e-06
-6.3874e-05
1.57624e-06
-6.23907e-05
1.97385e-06
-6.22445e-05
2.37613e-06
-6.21308e-05
2.77809e-06
-6.19536e-05
3.1669e-06
-6.17442e-05
3.52393e-06
-6.15014e-05
3.82941e-06
-6.12045e-05
4.07038e-06
-6.08208e-05
4.24892e-06
-6.0304e-05
4.39062e-06
-5.95972e-05
4.55059e-06
-5.8637e-05
4.8169e-06
-5.73606e-05
5.31303e-06
-5.57132e-05
6.19193e-06
-5.36629e-05
7.62386e-06
-5.12133e-05
9.77232e-06
-4.84148e-05
1.27657e-05
-4.53731e-05
1.66719e-05
-4.22667e-05
2.14794e-05
-3.93816e-05
-3.69043e-05
2.71173e-05
7.42054e-07
-4.99165e-05
9.73107e-07
-6.88865e-05
1.28028e-06
-6.41812e-05
1.68716e-06
-6.27978e-05
2.11279e-06
-6.26703e-05
2.54376e-06
-6.25618e-05
2.97964e-06
-6.23894e-05
3.41555e-06
-6.21801e-05
3.84409e-06
-6.19298e-05
4.25925e-06
-6.16197e-05
4.66107e-06
-6.12226e-05
5.06125e-06
-6.07042e-05
5.48897e-06
-6.00249e-05
5.99538e-06
-5.91434e-05
6.65577e-06
-5.8021e-05
7.56911e-06
-5.66266e-05
8.85218e-06
-5.4946e-05
1.06286e-05
-5.29898e-05
1.3014e-05
-5.08002e-05
1.60977e-05
-4.84569e-05
1.99287e-05
-4.60977e-05
2.45027e-05
-4.39556e-05
-4.21739e-05
2.97724e-05
7.63613e-07
-5.06801e-05
1.01335e-06
-6.91363e-05
1.35159e-06
-6.45196e-05
1.78915e-06
-6.32355e-05
2.24479e-06
-6.31261e-05
2.70908e-06
-6.30262e-05
3.18567e-06
-6.2866e-05
3.67539e-06
-6.26697e-05
4.17811e-06
-6.24325e-05
4.69648e-06
-6.2138e-05
5.23891e-06
-6.1765e-05
5.82309e-06
-6.12884e-05
6.47944e-06
-6.06812e-05
7.25413e-06
-5.99181e-05
8.21034e-06
-5.89772e-05
9.42705e-06
-5.78433e-05
1.09941e-05
-5.65131e-05
1.30037e-05
-5.49994e-05
1.55402e-05
-5.33367e-05
1.86687e-05
-5.15854e-05
2.24268e-05
-4.98558e-05
2.68159e-05
-4.83446e-05
-4.71647e-05
3.18069e-05
7.90768e-07
-5.14709e-05
1.0498e-06
-6.93954e-05
1.41524e-06
-6.48852e-05
1.88153e-06
-6.37019e-05
2.36701e-06
-6.36117e-05
2.86518e-06
-6.35244e-05
3.38326e-06
-6.3384e-05
3.92611e-06
-6.32124e-05
4.49853e-06
-6.30048e-05
5.10848e-06
-6.27479e-05
5.76912e-06
-6.24257e-05
6.50107e-06
-6.20204e-05
7.3343e-06
-6.15144e-05
8.30988e-06
-6.08937e-05
9.48074e-06
-6.0148e-05
1.09108e-05
-5.92734e-05
1.26703e-05
-5.82727e-05
1.48302e-05
-5.71592e-05
1.74541e-05
-5.59607e-05
2.05926e-05
-5.47239e-05
2.42771e-05
-5.35403e-05
2.85138e-05
-5.25812e-05
-5.19403e-05
3.32895e-05
8.1864e-07
-5.22896e-05
1.08111e-06
-6.96579e-05
1.47081e-06
-6.5275e-05
1.96292e-06
-6.41942e-05
2.47597e-06
-6.41249e-05
3.00584e-06
-6.40543e-05
3.56241e-06
-6.39405e-05
4.15313e-06
-6.3803e-05
4.7861e-06
-6.36377e-05
5.47252e-06
-6.34344e-05
6.22795e-06
-6.31812e-05
7.07378e-06
-6.28662e-05
8.03834e-06
-6.2479e-05
9.15786e-06
-6.20132e-05
1.0477e-05
-6.14671e-05
1.20483e-05
-6.08446e-05
1.39284e-05
-6.01528e-05
1.61736e-05
-5.94045e-05
1.88346e-05
-5.86218e-05
2.19533e-05
-5.78426e-05
2.55584e-05
-5.71454e-05
2.96615e-05
-5.66842e-05
-5.65434e-05
3.42647e-05
8.42673e-07
-5.31323e-05
1.10756e-06
-6.99228e-05
1.51927e-06
-6.56868e-05
2.03318e-06
-6.47082e-05
2.56954e-06
-6.46612e-05
3.12673e-06
-6.46114e-05
3.71619e-06
-6.45298e-05
4.3469e-06
-6.44337e-05
5.02889e-06
-6.43197e-05
5.77502e-06
-6.41805e-05
6.60176e-06
-6.40079e-05
7.53008e-06
-6.37945e-05
8.5861e-06
-6.3535e-05
9.80152e-06
-6.32286e-05
1.12143e-05
-6.28799e-05
1.28683e-05
-6.24986e-05
1.48103e-05
-6.20949e-05
1.70874e-05
-6.16816e-05
1.97423e-05
-6.12768e-05
2.28123e-05
-6.09126e-05
2.63259e-05
-6.06589e-05
3.03011e-05
-6.06593e-05
-6.09977e-05
3.47554e-05
8.60548e-07
-5.39928e-05
1.13241e-06
-7.01947e-05
1.56428e-06
-6.61187e-05
2.09487e-06
-6.52388e-05
2.64888e-06
-6.52153e-05
3.22716e-06
-6.51896e-05
3.84174e-06
-6.51443e-05
4.50241e-06
-6.50943e-05
5.22013e-06
-6.50374e-05
6.00827e-06
-6.49686e-05
6.88327e-06
-6.48829e-05
7.86501e-06
-6.47762e-05
8.97724e-06
-6.46472e-05
1.02476e-05
-6.4499e-05
1.17086e-05
-6.43409e-05
1.33967e-05
-6.41867e-05
1.53519e-05
-6.40502e-05
1.76149e-05
-6.39446e-05
2.02242e-05
-6.38861e-05
2.32148e-05
-6.39033e-05
2.66167e-05
-6.40606e-05
3.04551e-05
-6.44977e-05
-6.53059e-05
3.47633e-05
8.73862e-07
-5.48667e-05
1.16152e-06
-7.04824e-05
1.61123e-06
-6.65684e-05
2.15249e-06
-6.57801e-05
2.71792e-06
-6.57807e-05
3.30998e-06
-6.57816e-05
3.94052e-06
-6.57748e-05
4.61962e-06
-6.57733e-05
5.3585e-06
-6.57763e-05
6.17039e-06
-6.57805e-05
7.07109e-06
-6.57835e-05
8.0791e-06
-6.57841e-05
9.21582e-06
-6.57839e-05
1.05054e-05
-6.57886e-05
1.19756e-05
-6.58112e-05
1.36567e-05
-6.58679e-05
1.55829e-05
-6.59765e-05
1.77903e-05
-6.61521e-05
2.03149e-05
-6.64108e-05
2.31913e-05
-6.67796e-05
2.64515e-05
-6.73207e-05
3.01284e-05
-6.81746e-05
-6.94484e-05
3.4271e-05
8.88109e-07
-5.57548e-05
1.20049e-06
-7.07948e-05
1.66375e-06
-6.70317e-05
2.20967e-06
-6.6326e-05
2.78029e-06
-6.63512e-05
3.37882e-06
-6.638e-05
4.01613e-06
-6.6412e-05
4.70211e-06
-6.64592e-05
5.44769e-06
-6.65217e-05
6.26557e-06
-6.65982e-05
7.17062e-06
-6.66885e-05
8.17982e-06
-6.67933e-05
9.31227e-06
-6.69163e-05
1.05892e-05
-6.70656e-05
1.20338e-05
-6.72559e-05
1.36715e-05
-6.75057e-05
1.55308e-05
-6.78359e-05
1.76433e-05
-6.82646e-05
2.00431e-05
-6.88106e-05
2.27642e-05
-6.95006e-05
2.58407e-05
-7.03972e-05
2.93123e-05
-7.16462e-05
-7.33775e-05
3.32415e-05
9.10227e-07
-5.6665e-05
1.25058e-06
-7.11352e-05
1.72037e-06
-6.75015e-05
2.26557e-06
-6.68711e-05
2.83576e-06
-6.69212e-05
3.43443e-06
-6.69785e-05
4.07075e-06
-6.70482e-05
4.75393e-06
-6.71423e-05
5.49405e-06
-6.72617e-05
6.30291e-06
-6.7407e-05
7.19409e-06
-6.75795e-05
8.18288e-06
-6.7782e-05
9.28611e-06
-6.80196e-05
1.05223e-05
-6.83019e-05
1.19108e-05
-6.86446e-05
1.34725e-05
-6.90674e-05
1.52301e-05
-6.95936e-05
1.72105e-05
-7.0245e-05
1.9444e-05
-7.1044e-05
2.19631e-05
-7.20196e-05
2.48025e-05
-7.32365e-05
2.80062e-05
-7.485e-05
-7.70163e-05
3.16449e-05
9.44694e-07
-5.76097e-05
1.30611e-06
-7.14966e-05
1.77356e-06
-6.79689e-05
2.31334e-06
-6.74108e-05
2.87855e-06
-6.74863e-05
3.47259e-06
-6.75724e-05
4.10272e-06
-6.76781e-05
4.77692e-06
-6.78163e-05
5.5039e-06
-6.79886e-05
6.29398e-06
-6.8197e-05
7.15897e-06
-6.84445e-05
8.11208e-06
-6.87352e-05
9.16782e-06
-6.90754e-05
1.03419e-05
-6.9476e-05
1.16504e-05
-6.99531e-05
1.31097e-05
-7.05268e-05
1.47371e-05
-7.12211e-05
1.65531e-05
-7.2061e-05
1.8582e-05
-7.30729e-05
2.0852e-05
-7.42895e-05
2.33955e-05
-7.578e-05
2.62553e-05
-7.77099e-05
-8.02627e-05
2.95017e-05
9.90983e-07
-5.86007e-05
1.35566e-06
-7.18614e-05
1.81222e-06
-6.84255e-05
2.34235e-06
-6.79408e-05
2.89907e-06
-6.80429e-05
3.48505e-06
-6.81582e-05
4.10614e-06
-6.82991e-05
4.76869e-06
-6.84788e-05
5.47967e-06
-6.86995e-05
6.24748e-06
-6.89647e-05
7.0817e-06
-6.92787e-05
7.99311e-06
-6.96466e-05
8.99352e-06
-7.00759e-05
1.00956e-05
-7.05781e-05
1.13118e-05
-7.11695e-05
1.26544e-05
-7.18695e-05
1.41351e-05
-7.27017e-05
1.57669e-05
-7.36927e-05
1.75657e-05
-7.48716e-05
1.95523e-05
-7.62759e-05
2.17515e-05
-7.79793e-05
2.41963e-05
-8.01548e-05
-8.30077e-05
2.69412e-05
1.0446e-06
-5.96454e-05
1.3865e-06
-7.22033e-05
1.8251e-06
-6.8864e-05
2.34147e-06
-6.8457e-05
2.88597e-06
-6.85872e-05
3.46039e-06
-6.87325e-05
4.06981e-06
-6.89084e-05
4.71903e-06
-6.91279e-05
5.41351e-06
-6.93939e-05
6.15976e-06
-6.97109e-05
6.96507e-06
-7.0084e-05
7.83752e-06
-7.0519e-05
8.78586e-06
-7.10242e-05
9.81924e-06
-7.16115e-05
1.09465e-05
-7.22968e-05
1.21753e-05
-7.30984e-05
1.35121e-05
-7.40385e-05
1.49623e-05
-7.51429e-05
1.65322e-05
-7.64414e-05
1.82317e-05
-7.79755e-05
2.00724e-05
-7.98202e-05
2.20657e-05
-8.21482e-05
-8.51716e-05
2.42295e-05
1.10027e-06
-6.07457e-05
1.38833e-06
-7.24913e-05
1.80183e-06
-6.92774e-05
2.29922e-06
-6.89543e-05
2.82517e-06
-6.9113e-05
3.38166e-06
-6.92889e-05
3.97361e-06
-6.95003e-05
4.60497e-06
-6.97593e-05
5.28033e-06
-7.00693e-05
6.00476e-06
-7.04353e-05
6.78353e-06
-7.08627e-05
7.62223e-06
-7.13577e-05
8.52674e-06
-7.19287e-05
9.50291e-06
-7.25877e-05
1.05559e-05
-7.33498e-05
1.16896e-05
-7.42321e-05
1.29054e-05
-7.52543e-05
1.42022e-05
-7.64397e-05
1.55771e-05
-7.78163e-05
1.70279e-05
-7.94262e-05
1.85482e-05
-8.13406e-05
2.01165e-05
-8.37167e-05
-8.67518e-05
2.16966e-05
1.15373e-06
-6.18994e-05
1.35347e-06
-7.2691e-05
1.73191e-06
-6.96557e-05
2.20175e-06
-6.9424e-05
2.69797e-06
-6.96091e-05
3.22504e-06
-6.98159e-05
3.78799e-06
-7.00632e-05
4.39069e-06
-7.0362e-05
5.03732e-06
-7.07159e-05
5.73205e-06
-7.113e-05
6.47887e-06
-7.16095e-05
7.28179e-06
-7.21605e-05
8.14476e-06
-7.27916e-05
9.07129e-06
-7.35143e-05
1.0064e-05
-7.43426e-05
1.11236e-05
-7.52918e-05
1.22485e-05
-7.63792e-05
1.34331e-05
-7.76242e-05
1.46676e-05
-7.90507e-05
1.59392e-05
-8.06978e-05
1.72237e-05
-8.26252e-05
1.8464e-05
-8.4957e-05
-8.78537e-05
1.95657e-05
1.20014e-06
-6.30995e-05
1.27649e-06
-7.27673e-05
1.60665e-06
-6.99859e-05
2.0356e-06
-6.98529e-05
2.4866e-06
-7.00601e-05
2.96791e-06
-7.02972e-05
3.48461e-06
-7.05799e-05
4.04053e-06
-7.09179e-05
4.63978e-06
-7.13151e-05
5.28632e-06
-7.17765e-05
5.98385e-06
-7.2307e-05
6.73577e-06
-7.29124e-05
7.54502e-06
-7.36009e-05
8.41397e-06
-7.43833e-05
9.34412e-06
-7.52728e-05
1.03354e-05
-7.62832e-05
1.13848e-05
-7.74287e-05
1.24855e-05
-7.87249e-05
1.36253e-05
-8.01905e-05
1.47854e-05
-8.18579e-05
1.59299e-05
-8.37697e-05
1.69776e-05
-8.60048e-05
-8.86712e-05
1.7795e-05
1.23221e-06
-6.43317e-05
1.15689e-06
-7.2692e-05
1.42598e-06
-7.0255e-05
1.79824e-06
-7.02252e-05
2.18776e-06
-7.04497e-05
2.6055e-06
-7.0715e-05
3.05638e-06
-7.10308e-05
3.54417e-06
-7.14056e-05
4.07327e-06
-7.18441e-05
4.64768e-06
-7.23508e-05
5.2709e-06
-7.29302e-05
5.94579e-06
-7.35873e-05
6.67483e-06
-7.433e-05
7.46047e-06
-7.51691e-05
8.30466e-06
-7.61171e-05
9.20806e-06
-7.71866e-05
1.01687e-05
-7.83893e-05
1.11814e-05
-7.97374e-05
1.2236e-05
-8.12451e-05
1.33141e-05
-8.29359e-05
1.43784e-05
-8.48341e-05
1.53478e-05
-8.69744e-05
-8.94091e-05
1.60856e-05
1.23903e-06
-6.55707e-05
1.00175e-06
-7.24547e-05
1.20292e-06
-7.04562e-05
1.50515e-06
-7.05275e-05
1.82066e-06
-7.07652e-05
2.16095e-06
-7.10553e-05
2.53094e-06
-7.14008e-05
2.93427e-06
-7.18089e-05
3.37491e-06
-7.22847e-05
3.85607e-06
-7.2832e-05
4.38045e-06
-7.34546e-05
4.95034e-06
-7.41573e-05
5.56835e-06