/*--------------------------------*- C++ -*----------------------------------*\
| =========                 |                                                 |
| \\      /  F ield         | OpenFOAM: The Open Source CFD Toolbox           |
|  \\    /   O peration     | Version:  2206                                  |
|   \\  /    A nd           | Website:  www.openfoam.com                      |
|    \\/     M anipulation  |                                                 |
\*---------------------------------------------------------------------------*/
FoamFile
{
    version     2.0;
    format      ascii;
    arch        "LSB;label=32;scalar=64";
    class       volVectorField;
    location    "0.375";
    object      U;
}
// * * * * * * * * * * * * * * * * * * * * * * * * * * * * * * * * * * * * * //

dimensions      [0 1 -1 0 0 0 0];

internalField   nonuniform List<vector> 
2268
(
(-0.0311512 0.00764279 0)
(-0.0350787 -0.00415896 0)
(0.0103582 -0.0136738 0)
(0.0807191 -0.0176125 0)
(0.155459 -0.0172719 0)
(0.224501 -0.0147276 0)
(0.281415 -0.0116374 0)
(0.325159 -0.00887218 0)
(0.358051 -0.00670435 0)
(0.383029 -0.00508294 0)
(0.402187 -0.00380823 0)
(0.41644 -0.00263372 0)
(0.425555 -0.00126924 0)
(0.428414 0.00122134 0)
(0.419908 0.00533535 0)
(0.394424 0.0123739 0)
(0.342832 0.0230148 0)
(0.253752 0.0355145 0)
(0.118871 0.0415046 0)
(-0.0301481 0.0268061 0)
(-0.174704 0.0142348 0)
(-0.255274 0.00730838 0)
(-0.095654 -0.0636217 0)
(-0.0338512 0.0227744 0)
(-0.0330247 -0.0136196 0)
(0.0131549 -0.0414876 0)
(0.084156 -0.0530853 0)
(0.158707 -0.0519852 0)
(0.226992 -0.0443728 0)
(0.283115 -0.0351843 0)
(0.326432 -0.0269948 0)
(0.359377 -0.0205953 0)
(0.384826 -0.0158102 0)
(0.40475 -0.0120378 0)
(0.419994 -0.008549 0)
(0.430563 -0.00460388 0)
(0.435595 0.000860803 0)
(0.436894 0.00901252 0)
(0.434466 0.0215183 0)
(0.426761 0.0409739 0)
(0.403648 0.068859 0)
(0.335953 0.0985195 0)
(0.190921 0.109215 0)
(-0.0198226 0.0816206 0)
(-0.178691 -0.0099889 0)
(1.49465e-06 -0.144242 0)
(-0.0315703 0.0373479 0)
(-0.0293605 -0.0238809 0)
(0.0180429 -0.069452 0)
(0.0891745 -0.0882063 0)
(0.162519 -0.0859862 0)
(0.228735 -0.0731845 0)
(0.282807 -0.0579986 0)
(0.324748 -0.044629 0)
(0.357204 -0.0342889 0)
(0.382945 -0.026593 0)
(0.403722 -0.020498 0)
(0.420154 -0.0148162 0)
(0.431983 -0.00846596 0)
(0.438358 -0.00078755 0)
(0.438039 0.00944255 0)
(0.430287 0.0235104 0)
(0.416932 0.0447203 0)
(0.404003 0.078649 0)
(0.395212 0.126959 0)
(0.348322 0.170664 0)
(0.226363 0.165933 0)
(0.0512398 0.0402728 0)
(0.0721791 -0.150472 0)
(-0.0295901 0.0502823 0)
(-0.0236337 -0.0351929 0)
(0.0250078 -0.0976097 0)
(0.0957465 -0.122865 0)
(0.167109 -0.118995 0)
(0.230424 -0.100895 0)
(0.281818 -0.0799588 0)
(0.32213 -0.0618429 0)
(0.354214 -0.0480186 0)
(0.380636 -0.037782 0)
(0.402798 -0.029609 0)
(0.421 -0.0218764 0)
(0.434763 -0.0131814 0)
(0.443171 -0.00237926 0)
(0.445052 0.0114883 0)
(0.439216 0.0296212 0)
(0.42537 0.0534112 0)
(0.405408 0.0857274 0)
(0.394618 0.132821 0)
(0.396591 0.191049 0)
(0.368635 0.215292 0)
(0.24008 0.10486 0)
(0.147654 -0.0822886 0)
(-0.0272631 0.0611015 0)
(-0.0159127 -0.0477006 0)
(0.0337289 -0.125997 0)
(0.103325 -0.156652 0)
(0.172016 -0.15049 0)
(0.231738 -0.127072 0)
(0.280031 -0.100837 0)
(0.318653 -0.0786201 0)
(0.350606 -0.0619139 0)
(0.378122 -0.0495775 0)
(0.402138 -0.0395872 0)
(0.422554 -0.0299157 0)
(0.438644 -0.01889 0)
(0.449386 -0.00522754 0)
(0.453714 0.0120087 0)
(0.450742 0.0338489 0)
(0.440214 0.0612736 0)
(0.422054 0.0947145 0)
(0.401257 0.135582 0)
(0.395442 0.188278 0)
(0.407423 0.230459 0)
(0.325787 0.168657 0)
(0.190792 0.0157524 0)
(-0.0239943 0.0693105 0)
(-0.00648191 -0.0614609 0)
(0.0437221 -0.154463 0)
(0.11161 -0.18916 0)
(0.177084 -0.18005 0)
(0.232812 -0.15138 0)
(0.277889 -0.120474 0)
(0.315008 -0.0949915 0)
(0.347209 -0.0761429 0)
(0.376256 -0.0622107 0)
(0.402519 -0.0506709 0)
(0.425455 -0.039162 0)
(0.44407 -0.0258311 0)
(0.457246 -0.00935511 0)
(0.463993 0.0111926 0)
(0.463601 0.0365783 0)
(0.455922 0.0673816 0)
(0.441239 0.103641 0)
(0.420461 0.143463 0)
(0.39664 0.187391 0)
(0.400894 0.235387 0)
(0.346485 0.224748 0)
(0.21058 0.137666 0)
(-0.0195938 0.0743275 0)
(0.00425666 -0.0765963 0)
(0.0543793 -0.1827 0)
(0.11989 -0.22059 0)
(0.18182 -0.208016 0)
(0.233566 -0.174114 0)
(0.275735 -0.139082 0)
(0.311871 -0.111096 0)
(0.3449 -0.0907749 0)
(0.375981 -0.0756794 0)
(0.404866 -0.0627802 0)
(0.430573 -0.0494481 0)
(0.451867 -0.0337473 0)
(0.467533 -0.0144257 0)
(0.476593 0.00919756 0)
(0.478446 0.0379396 0)
(0.47299 0.0721091 0)
(0.460314 0.111442 0)
(0.442459 0.154293 0)
(0.412505 0.196491 0)
(0.394843 0.246113 0)
(0.346529 0.275294 0)
(0.22816 0.261498 0)
(-0.0140722 0.0761935 0)
(0.0159078 -0.0927691 0)
(0.0657826 -0.211268 0)
(0.127767 -0.251628 0)
(0.185624 -0.235104 0)
(0.233608 -0.196028 0)
(0.273469 -0.157448 0)
(0.309314 -0.127679 0)
(0.343753 -0.106461 0)
(0.377242 -0.0905559 0)
(0.408943 -0.0764577 0)
(0.437536 -0.0613123 0)
(0.461657 -0.043084 0)
(0.480008 -0.0204769 0)
(0.491695 0.00666857 0)
(0.496024 0.0387126 0)
(0.49263 0.0757753 0)
(0.481295 0.1174 0)
(0.464541 0.163197 0)
(0.436773 0.208469 0)
(0.404875 0.261485 0)
(0.35168 0.320502 0)
(0.235418 0.398605 0)
(-0.0460198 0.0187461 0)
(-0.130407 0.0218973 0)
(-0.218608 0.0243364 0)
(-0.304536 0.0228041 0)
(-0.377751 0.0191897 0)
(-0.435878 0.0148931 0)
(-0.478988 0.0106867 0)
(-0.507932 0.00675552 0)
(-0.522526 0.00307681 0)
(-0.522549 -0.000241336 0)
(-0.510195 -0.0032841 0)
(-0.4856 -0.00666679 0)
(-0.448839 -0.0102366 0)
(-0.400649 -0.0136373 0)
(-0.342486 -0.0166331 0)
(-0.275655 -0.0193411 0)
(-0.200236 -0.0220881 0)
(-0.116856 -0.0250199 0)
(-0.0364694 -0.0208841 0)
(-0.0834366 0.078112 0)
(-0.20966 0.0758725 0)
(-0.312673 0.0715157 0)
(-0.391544 0.0603076 0)
(-0.446163 0.047102 0)
(-0.482481 0.0348023 0)
(-0.505687 0.024236 0)
(-0.519496 0.0142685 0)
(-0.52381 0.00406343 0)
(-0.517844 -0.00595038 0)
(-0.49896 -0.0155575 0)
(-0.467966 -0.0248501 0)
(-0.426379 -0.0335778 0)
(-0.375649 -0.0415864 0)
(-0.317418 -0.0485473 0)
(-0.253042 -0.0545589 0)
(-0.182377 -0.060596 0)
(-0.105357 -0.0673609 0)
(-0.0323902 -0.0563894 0)
(-0.0862632 0.151984 0)
(-0.207604 0.135208 0)
(-0.303762 0.118607 0)
(-0.378548 0.0947606 0)
(-0.433438 0.0707517 0)
(-0.473638 0.0506743 0)
(-0.502714 0.035019 0)
(-0.522471 0.0201867 0)
(-0.531016 0.00428117 0)
(-0.526749 -0.0122874 0)
(-0.509404 -0.0286513 0)
(-0.479558 -0.0440849 0)
(-0.438273 -0.0580043 0)
(-0.386941 -0.0703334 0)
(-0.32733 -0.0807871 0)
(-0.261024 -0.0895624 0)
(-0.188087 -0.0985579 0)
(-0.108502 -0.108658 0)
(-0.0332079 -0.089856 0)
(-0.0866481 0.227191 0)
(-0.208408 0.193618 0)
(-0.306133 0.166319 0)
(-0.384973 0.13051 0)
(-0.442308 0.0963662 0)
(-0.482971 0.0687949 0)
(-0.512071 0.0483473 0)
(-0.532503 0.0283026 0)
(-0.541695 0.00613688 0)
(-0.537669 -0.0172818 0)
(-0.520333 -0.0401871 0)
(-0.490475 -0.0620095 0)
(-0.449055 -0.0818504 0)
(-0.397328 -0.0993588 0)
(-0.336878 -0.114021 0)
(-0.269216 -0.126204 0)
(-0.194287 -0.138797 0)
(-0.111933 -0.152799 0)
(-0.0340762 -0.125823 0)
(-0.0964241 0.300473 0)
(-0.226585 0.251957 0)
(-0.326637 0.21611 0)
(-0.407817 0.167217 0)
(-0.462537 0.121445 0)
(-0.498653 0.0854163 0)
(-0.525078 0.0613423 0)
(-0.545997 0.0366858 0)
(-0.55616 0.00785411 0)
(-0.552199 -0.0228856 0)
(-0.534196 -0.0525315 0)
(-0.50337 -0.0806255 0)
(-0.460777 -0.106131 0)
(-0.407732 -0.128807 0)
(-0.345745 -0.147779 0)
(-0.276399 -0.163587 0)
(-0.199458 -0.17997 0)
(-0.11452 -0.198028 0)
(-0.0345854 -0.162588 0)
(-0.106813 0.392674 0)
(-0.256152 0.315516 0)
(-0.356622 0.269016 0)
(-0.440068 0.202871 0)
(-0.48941 0.142669 0)
(-0.517767 0.0979264 0)
(-0.540099 0.0741061 0)
(-0.562639 0.0461059 0)
(-0.574719 0.0100678 0)
(-0.570826 -0.0287941 0)
(-0.551792 -0.065294 0)
(-0.519663 -0.0999686 0)
(-0.47547 -0.131376 0)
(-0.420528 -0.15937 0)
(-0.356318 -0.182643 0)
(-0.284633 -0.202116 0)
(-0.205111 -0.222407 0)
(-0.117158 -0.244522 0)
(-0.0350176 -0.199923 0)
(-0.160317 0.481764 0)
(-0.297531 0.371705 0)
(-0.394262 0.322063 0)
(-0.480776 0.23897 0)
(-0.520573 0.1632 0)
(-0.536163 0.107875 0)
(-0.553303 0.0882286 0)
(-0.580643 0.0577281 0)
(-0.596261 0.0138492 0)
(-0.59221 -0.0362796 0)
(-0.571643 -0.0791504 0)
(-0.538173 -0.120681 0)
(-0.492616 -0.157761 0)
(-0.435589 -0.19097 0)
(-0.368783 -0.218675 0)
(-0.294135 -0.242012 0)
(-0.21141 -0.266442 0)
(-0.119907 -0.292503 0)
(-0.035392 -0.237944 0)
(-0.121504 0.612805 0)
(-0.350375 0.443573 0)
(-0.435011 0.394358 0)
(-0.531991 0.278819 0)
(-0.557075 0.170785 0)
(-0.55348 0.0942076 0)
(-0.561 0.0942993 0)
(-0.596524 0.0643205 0)
(-0.61917 0.0123208 0)
(-0.614687 -0.0442226 0)
(-0.591386 -0.0928795 0)
(-0.556198 -0.141223 0)
(-0.510082 -0.183486 0)
(-0.451973 -0.223383 0)
(-0.383027 -0.255844 0)
(-0.305148 -0.283236 0)
(-0.218469 -0.311895 0)
(-0.122926 -0.341908 0)
(-0.0357861 -0.276665 0)
(-0.00441514 0.0680919 0)
(0.0384404 -0.122318 0)
(0.0915818 -0.254171 0)
(0.14427 -0.294434 0)
(0.191977 -0.271467 0)
(0.233493 -0.226062 0)
(0.270749 -0.184389 0)
(0.307174 -0.153953 0)
(0.344216 -0.132661 0)
(0.381158 -0.116143 0)
(0.416442 -0.100517 0)
(0.44854 -0.0829549 0)
(0.476267 -0.0615364 0)
(0.498473 -0.0347278 0)
(0.514433 -0.000739072 0)
(0.52342 0.0400262 0)
(0.5245 0.085761 0)
(0.51723 0.134699 0)
(0.50192 0.186543 0)
(0.481004 0.238507 0)
(0.449243 0.29807 0)
(0.433615 0.361026 0)
(0.387867 0.507627 0)
(0.0110549 0.0383184 0)
(0.0840519 -0.17191 0)
(0.149665 -0.30388 0)
(0.182635 -0.337781 0)
(0.206941 -0.308508 0)
(0.237183 -0.259611 0)
(0.27243 -0.217904 0)
(0.311533 -0.188968 0)
(0.353001 -0.168383 0)
(0.39447 -0.150657 0)
(0.433452 -0.131894 0)
(0.468404 -0.109858 0)
(0.498634 -0.0836772 0)
(0.524408 -0.0533969 0)
(0.545086 -0.019071 0)
(0.55961 0.0205029 0)
(0.566148 0.0694498 0)
(0.564942 0.124005 0)
(0.555111 0.181915 0)
(0.54247 0.241975 0)
(0.515657 0.311168 0)
(0.509101 0.370747 0)
(0.465864 0.502651 0)
(0.0281688 -0.0341411 0)
(0.164364 -0.24849 0)
(0.252014 -0.345415 0)
(0.249082 -0.359586 0)
(0.232162 -0.332235 0)
(0.247904 -0.295977 0)
(0.285238 -0.26481 0)
(0.331071 -0.241372 0)
(0.379525 -0.222164 0)
(0.427665 -0.202628 0)
(0.472295 -0.179485 0)
(0.512181 -0.151056 0)
(0.545621 -0.116257 0)
(0.571115 -0.0741326 0)
(0.587799 -0.0239733 0)
(0.59793 0.0357082 0)
(0.603549 0.101892 0)
(0.602178 0.168971 0)
(0.596327 0.232253 0)
(0.591111 0.291789 0)
(0.578424 0.353122 0)
(0.575141 0.404221 0)
(0.54956 0.494198 0)
(0.0631082 -0.159398 0)
(0.251861 -0.38527 0)
(0.349844 -0.393916 0)
(0.282531 -0.344041 0)
(0.222329 -0.329519 0)
(0.224048 -0.327994 0)
(0.256017 -0.318441 0)
(0.297781 -0.303343 0)
(0.344094 -0.286404 0)
(0.392077 -0.266803 0)
(0.444324 -0.242878 0)
(0.499668 -0.212992 0)
(0.557423 -0.175906 0)
(0.615889 -0.130768 0)
(0.672403 -0.0780596 0)
(0.718805 -0.0233712 0)
(0.734781 0.0320779 0)
(0.724569 0.093262 0)
(0.701055 0.165909 0)
(0.675734 0.245962 0)
(0.652709 0.328313 0)
(0.639726 0.402554 0)
(0.632069 0.480352 0)
(0.0924367 -0.328346 0)
(0.231558 -0.587298 0)
(0.29507 -0.421908 0)
(0.166593 -0.204071 0)
(0.0584671 -0.246854 0)
(0.0477667 -0.304138 0)
(0.0303809 -0.316202 0)
(0.023102 -0.307617 0)
(0.0322748 -0.294188 0)
(0.0447749 -0.278653 0)
(0.0880247 -0.261166 0)
(0.142986 -0.234247 0)
(0.206426 -0.197087 0)
(0.271149 -0.151108 0)
(0.371902 -0.0919776 0)
(0.36061 -0.00110918 0)
(0.617926 0.0902931 0)
(0.715754 0.174278 0)
(0.743384 0.237887 0)
(0.744143 0.293337 0)
(0.737524 0.34896 0)
(0.7264 0.406943 0)
(0.715605 0.460295 0)
(0.0330265 -0.548069 0)
(-0.0544355 -0.624668 0)
(-0.0800842 -0.0215525 0)
(-0.0124744 -0.184758 0)
(0.00604776 -0.263283 0)
(-0.000120895 -0.278736 0)
(-0.0112379 -0.278975 0)
(-0.0224663 -0.280386 0)
(-0.0291591 -0.27849 0)
(-0.0182815 -0.288896 0)
(0.0119136 -0.299413 0)
(0.0569744 -0.294488 0)
(0.0981894 -0.269546 0)
(0.138455 -0.253326 0)
(0.221814 -0.247835 0)
(0.376727 -0.190856 0)
(0.546038 -0.177358 0)
(0.699125 0.0429963 0)
(0.769924 0.221297 0)
(0.751377 0.308518 0)
(0.727812 0.36483 0)
(0.730867 0.418901 0)
(0.738623 0.464358 0)
(-0.0720438 -0.359453 0)
(-0.180637 -0.410196 0)
(-0.170831 -0.324073 0)
(-0.073603 -0.275106 0)
(-0.0343166 -0.280375 0)
(-0.0243771 -0.289617 0)
(-0.0293813 -0.294202 0)
(-0.0337573 -0.298879 0)
(-0.0330015 -0.312896 0)
(-0.0187645 -0.340826 0)
(0.00520143 -0.368561 0)
(0.0364308 -0.360895 0)
(0.0601526 -0.313913 0)
(0.0836285 -0.309374 0)
(0.176721 -0.370639 0)
(0.32525 -0.386399 0)
(0.495697 -0.309261 0)
(0.672885 -0.118705 0)
(0.833881 0.148038 0)
(0.930317 0.373728 0)
(0.897879 0.448489 0)
(0.821187 0.437684 0)
(0.681998 0.453308 0)
(-0.0690938 -0.279445 0)
(-0.0754163 -0.475263 0)
(-0.0750289 -0.381509 0)
(-0.0490745 -0.316972 0)
(-0.0368792 -0.296584 0)
(-0.0273353 -0.293954 0)
(-0.0272879 -0.292091 0)
(-0.0289587 -0.295995 0)
(-0.0308291 -0.314426 0)
(-0.026687 -0.34697 0)
(-0.0222714 -0.378165 0)
(-0.0133553 -0.368968 0)
(0.000992448 -0.315926 0)
(0.0342124 -0.369991 0)
(0.119186 -0.512056 0)
(0.21477 -0.558582 0)
(0.344077 -0.50019 0)
(0.508235 -0.335861 0)
(0.706352 -0.0764278 0)
(0.88717 0.217328 0)
(0.963513 0.456459 0)
(0.922191 0.555183 0)
(0.814998 0.601051 0)
(-0.0209603 -0.239237 0)
(-0.027852 -0.421194 0)
(-0.046152 -0.356225 0)
(-0.0403699 -0.320677 0)
(-0.0322362 -0.304712 0)
(-0.025031 -0.298368 0)
(-0.0227003 -0.291944 0)
(-0.023283 -0.2923 0)
(-0.0279693 -0.309704 0)
(-0.0336603 -0.342395 0)
(-0.0436154 -0.376936 0)
(-0.0508654 -0.378237 0)
(-0.0279957 -0.347021 0)
(0.0173342 -0.427269 0)
(0.0312911 -0.559167 0)
(0.0308595 -0.621174 0)
(0.0822731 -0.591152 0)
(0.175177 -0.481096 0)
(0.341377 -0.249625 0)
(0.556847 0.0764345 0)
(0.707614 0.381555 0)
(0.73836 0.579704 0)
(0.711676 0.635465 0)
(-5.01213e-05 -0.223822 0)
(-0.0152298 -0.408567 0)
(-0.0299374 -0.359554 0)
(-0.0276391 -0.323943 0)
(-0.0238219 -0.310468 0)
(-0.0186336 -0.302412 0)
(-0.0147742 -0.29357 0)
(-0.0125316 -0.290133 0)
(-0.0150493 -0.30229 0)
(-0.0233384 -0.329885 0)
(-0.0376625 -0.363473 0)
(-0.0529196 -0.379696 0)
(-0.0332067 -0.374668 0)
(-0.0110678 -0.422444 0)
(-0.0375435 -0.508272 0)
(-0.0790143 -0.602938 0)
(-0.1146 -0.603615 0)
(-0.130449 -0.527296 0)
(-0.109338 -0.379907 0)
(0.032516 -0.0939454 0)
(0.19681 0.271044 0)
(0.308517 0.547002 0)
(0.377083 0.657767 0)
(0.00624345 -0.22218 0)
(-0.00451328 -0.39594 0)
(-0.0172134 -0.352765 0)
(-0.0171817 -0.325486 0)
(-0.0146059 -0.314719 0)
(-0.0103754 -0.306842 0)
(-0.00500855 -0.297623 0)
(0.000833244 -0.291491 0)
(0.00381245 -0.297399 0)
(4.12877e-05 -0.317863 0)
(-0.0103244 -0.347226 0)
(-0.02502 -0.373191 0)
(-0.0227636 -0.385212 0)
(-0.0177641 -0.414266 0)
(-0.034363 -0.472382 0)
(-0.0893631 -0.541271 0)
(-0.17114 -0.554967 0)
(-0.234131 -0.497685 0)
(-0.310632 -0.355171 0)
(-0.357777 -0.11869 0)
(-0.253673 0.212643 0)
(-0.100204 0.462986 0)
(0.084474 0.583031 0)
(0.0076838 -0.22578 0)
(0.000993843 -0.385259 0)
(-0.00914934 -0.347724 0)
(-0.0091119 -0.325708 0)
(-0.00736798 -0.317778 0)
(-0.00357483 -0.311562 0)
(0.00236391 -0.304118 0)
(0.0105885 -0.298016 0)
(0.0184564 -0.299888 0)
(0.0215866 -0.313814 0)
(0.018014 -0.336967 0)
(0.00825876 -0.363025 0)
(-0.000400955 -0.383426 0)
(-0.00639408 -0.410658 0)
(-0.0254596 -0.441227 0)
(-0.0787344 -0.473916 0)
(-0.156945 -0.488032 0)
(-0.209959 -0.462684 0)
(-0.212255 -0.355667 0)
(-0.193904 -0.196567 0)
(-0.156117 -0.00371593 0)
(-0.0495066 0.18435 0)
(0.12382 0.297826 0)
(0.00722487 -0.231045 0)
(0.00335365 -0.378264 0)
(-0.00392352 -0.343971 0)
(-0.00366169 -0.326182 0)
(-0.00208149 -0.320423 0)
(0.00125554 -0.31618 0)
(0.00661719 -0.311356 0)
(0.014682 -0.307226 0)
(0.0239207 -0.307761 0)
(0.0306384 -0.316636 0)
(0.0315448 -0.333308 0)
(0.0256569 -0.353528 0)
(0.0141648 -0.372488 0)
(-0.00301401 -0.390751 0)
(-0.0298316 -0.405116 0)
(-0.0729226 -0.416346 0)
(-0.138015 -0.416161 0)
(-0.226846 -0.392878 0)
(-0.307887 -0.312162 0)
(-0.333053 -0.15224 0)
(-0.286252 0.00900346 0)
(-0.175579 0.10879 0)
(-0.0338902 0.188072 0)
(0.00609807 -0.236829 0)
(0.00436343 -0.373349 0)
(-0.000533388 -0.341664 0)
(-1.5635e-05 -0.326835 0)
(0.0016507 -0.322796 0)
(0.00444304 -0.320101 0)
(0.00864589 -0.317409 0)
(0.0147404 -0.315409 0)
(0.0220936 -0.316044 0)
(0.0282405 -0.32161 0)
(0.0299939 -0.332335 0)
(0.0254574 -0.345592 0)
(0.0141371 -0.357977 0)
(-0.00380876 -0.368173 0)
(-0.029095 -0.373724 0)
(-0.0627408 -0.371313 0)
(-0.104667 -0.355711 0)
(-0.153336 -0.326038 0)
(-0.201775 -0.275128 0)
(-0.228192 -0.199934 0)
(-0.213248 -0.112402 0)
(-0.165125 -0.0143397 0)
(-0.0970069 0.078615 0)
(0.00498222 -0.242143 0)
(0.0046709 -0.370285 0)
(0.0016448 -0.340602 0)
(0.00242729 -0.327739 0)
(0.00414208 -0.324929 0)
(0.00651963 -0.323185 0)
(0.00965795 -0.321653 0)
(0.0136467 -0.320887 0)
(0.0181911 -0.321701 0)
(0.0219094 -0.325053 0)
(0.022562 -0.331101 0)
(0.0183313 -0.338472 0)
(0.00875139 -0.345002 0)
(-0.00591602 -0.348742 0)
(-0.0256619 -0.348105 0)
(-0.0503761 -0.340893 0)
(-0.0782633 -0.323409 0)
(-0.105656 -0.291379 0)
(-0.126754 -0.240827 0)
(-0.133396 -0.173359 0)
(-0.120152 -0.0976532 0)
(-0.0879712 -0.0314817 0)
(-0.0388376 0.0225642 0)
(0.00412607 -0.246976 0)
(0.0046966 -0.368681 0)
(0.003052 -0.340346 0)
(0.00408498 -0.328911 0)
(0.00582505 -0.326891 0)
(0.00795748 -0.325685 0)
(0.0104456 -0.32459 0)
(0.0131243 -0.324133 0)
(0.0156881 -0.324663 0)
(0.0174094 -0.326387 0)
(0.0170601 -0.329218 0)
(0.0134696 -0.332409 0)
(0.00613607 -0.334571 0)
(-0.00454519 -0.33411 0)
(-0.0183485 -0.329569 0)
(-0.0350499 -0.319103 0)
(-0.0527441 -0.300391 0)
(-0.0683261 -0.271963 0)
(-0.07759 -0.232987 0)
(-0.0757233 -0.185131 0)
(-0.0596959 -0.133401 0)
(-0.0292641 -0.0832283 0)
(0.0146968 -0.0367372 0)
(0.00352814 -0.251404 0)
(0.00464267 -0.368113 0)
(0.00397416 -0.340672 0)
(0.00525506 -0.330309 0)
(0.0070404 -0.328792 0)
(0.00905246 -0.327885 0)
(0.0112294 -0.326904 0)
(0.0133557 -0.326291 0)
(0.0150982 -0.326243 0)
(0.0160187 -0.326724 0)
(0.0155275 -0.327494 0)
(0.013005 -0.327996 0)
(0.0081227 -0.32731 0)
(0.00111709 -0.32426 0)
(-0.00764572 -0.317764 0)
(-0.01739 -0.306427 0)
(-0.026746 -0.288954 0)
(-0.0335042 -0.264353 0)
(-0.0349031 -0.232455 0)
(-0.0280375 -0.194624 0)
(-0.010876 -0.154035 0)
(0.0168651 -0.11486 0)
(0.0543284 -0.0797885 0)
(0.00315611 -0.255536 0)
(0.00461274 -0.368269 0)
(0.00460375 -0.341437 0)
(0.00612468 -0.331898 0)
(0.00798598 -0.330702 0)
(0.00996907 -0.329958 0)
(0.0120263 -0.329 0)
(0.0139995 -0.328154 0)
(0.0156198 -0.327539 0)
(0.0165758 -0.327077 0)
(0.0165501 -0.326502 0)
(0.0152527 -0.325345 0)
(0.0125547 -0.322929 0)
(0.00862305 -0.31843 0)
(0.00388966 -0.311054 0)
(-0.000900719 -0.299772 0)
(-0.004582 -0.283799 0)
(-0.00555449 -0.262658 0)
(-0.00192392 -0.236661 0)
(0.0081857 -0.206867 0)
(0.0259997 -0.175479 0)
(0.0519334 -0.145507 0)
(0.0851297 -0.11889 0)
(0.00295809 -0.259506 0)
(0.00464216 -0.368915 0)
(0.00506226 -0.342533 0)
(0.00681345 -0.333667 0)
(0.00878184 -0.332676 0)
(0.0108126 -0.332011 0)
(0.0128708 -0.331051 0)
(0.0148647 -0.330036 0)
(0.0166244 -0.329013 0)
(0.0179394 -0.327888 0)
(0.0186195 -0.326431 0)
(0.0185394 -0.324268 0)
(0.0177027 -0.320899 0)
(0.0163063 -0.315738 0)
(0.0147616 -0.308174 0)
(0.013737 -0.297594 0)
(0.014191 -0.283556 0)
(0.0173333 -0.265893 0)
(0.0244647 -0.244909 0)
(0.0367967 -0.221446 0)
(0.0550688 -0.196999 0)
(0.0796532 -0.173796 0)
(0.109823 -0.153364 0)
(0.00288083 -0.263423 0)
(0.00473262 -0.369885 0)
(0.00542564 -0.343891 0)
(0.00739674 -0.335612 0)
(0.00949756 -0.334763 0)
(0.0116374 -0.334131 0)
(0.0137915 -0.333165 0)
(0.0159133 -0.33205 0)
(0.0179119 -0.33079 0)
(0.0196742 -0.329276 0)
(0.021108 -0.327316 0)
(0.0221806 -0.324629 0)
(0.0229631 -0.320854 0)
(0.0236706 -0.315584 0)
(0.0246904 -0.308403 0)
(0.0265998 -0.298933 0)
(0.0301515 -0.286929 0)
(0.0362221 -0.272368 0)
(0.0457124 -0.255532 0)
(0.0594408 -0.237068 0)
(0.0778966 -0.218075 0)
(0.101394 -0.200271 0)
(0.129359 -0.184805 0)
(0.00288539 -0.267376 0)
(0.00487212 -0.371068 0)
(0.0057359 -0.345464 0)
(0.00791516 -0.337731 0)
(0.0101634 -0.336992 0)
(0.0124528 -0.336385 0)
(0.0147706 -0.335431 0)
(0.017101 -0.334284 0)
(0.0194042 -0.332928 0)
(0.0216408 -0.331257 0)
(0.0237953 -0.329109 0)
(0.0258963 -0.326274 0)
(0.0280514 -0.322497 0)
(0.0304758 -0.317509 0)
(0.0335105 -0.311043 0)
(0.0376301 -0.302877 0)
(0.0434219 -0.292887 0)
(0.0515335 -0.281114 0)
(0.0626094 -0.267803 0)
(0.077226 -0.25344 0)
(0.0957241 -0.238859 0)
(0.118372 -0.225436 0)
(0.144691 -0.214045 0)
(0.00294448 -0.271427 0)
(0.00504203 -0.372382 0)
(0.00600956 -0.347218 0)
(0.00838584 -0.34002 0)
(0.0107868 -0.339379 0)
(0.0132442 -0.338811 0)
(0.0157575 -0.337904 0)
(0.0183356 -0.336796 0)
(0.0209749 -0.335464 0)
(0.0236823 -0.333812 0)
(0.0264897 -0.33171 0)
(0.0294653 -0.329002 0)
(0.0327361 -0.325514 0)
(0.0365083 -0.321072 0)
(0.0410776 -0.315519 0)
(0.0468302 -0.308736 0)
(0.0542231 -0.300677 0)
(0.0637421 -0.291404 0)
(0.0758651 -0.28112 0)
(0.0910138 -0.270193 0)
(0.10944 -0.259279 0)
(0.131379 -0.249523 0)
(0.15643 -0.241603 0)
(0.00303603 -0.275619 0)
(0.00522103 -0.373771 0)
(0.00624871 -0.349127 0)
(0.00880953 -0.34247 0)
(0.0113596 -0.341929 0)
(0.0139862 -0.341419 0)
(0.0167003 -0.340601 0)
(0.0195273 -0.3396 0)
(0.0224927 -0.338389 0)
(0.0256325 -0.33689 0)
(0.0290047 -0.335003 0)
(0.0326981 -0.332614 0)
(0.0368467 -0.329607 0)
(0.0416432 -0.32588 0)
(0.0473438 -0.32135 0)
(0.0542624 -0.315967 0)
(0.0627612 -0.309733 0)
(0.0732126 -0.302718 0)
(0.0859851 -0.295085 0)
(0.101399 -0.287116 0)
(0.119656 -0.279345 0)
(0.140977 -0.272755 0)
(0.165018 -0.267889 0)
(0.00313634 -0.279969 0)
(0.00538731 -0.37519 0)
(0.00645433 -0.351175 0)
(0.00918234 -0.345068 0)
(0.0118689 -0.344636 0)
(0.0146532 -0.344207 0)
(0.0175549 -0.343517 0)
(0.0206104 -0.342679 0)
(0.0238658 -0.341668 0)
(0.0273756 -0.340422 0)
(0.031211 -0.338866 0)
(0.0354685 -0.336923 0)
(0.04028 -0.334519 0)
(0.0458239 -0.331601 0)
(0.0523213 -0.32814 0)
(0.0600293 -0.324137 0)
(0.0692419 -0.319621 0)
(0.0802536 -0.314661 0)
(0.0933645 -0.309387 0)
(0.108826 -0.304022 0)
(0.126817 -0.299019 0)
(0.14756 -0.295246 0)
(0.170748 -0.293171 0)
(0.00321994 -0.284464 0)
(0.00552606 -0.376617 0)
(0.00663667 -0.353347 0)
(0.00950685 -0.347796 0)
(0.0123079 -0.347483 0)
(0.0152279 -0.347156 0)
(0.0182898 -0.346628 0)
(0.02154 -0.345997 0)
(0.025036 -0.345244 0)
(0.0288413 -0.34432 0)
(0.0330323 -0.343174 0)
(0.0377063 -0.341755 0)
(0.0429885 -0.340022 0)
(0.0490429 -0.337958 0)
(0.0560589 -0.335573 0)
(0.0642495 -0.332903 0)
(0.073858 -0.329994 0)
(0.0851269 -0.326915 0)
(0.0983151 -0.323772 0)
(0.113628 -0.320749 0)
(0.131244 -0.318244 0)
(0.151391 -0.317051 0)
(0.173801 -0.317613 0)
(0.00326761 -0.289072 0)
(0.00564044 -0.37806 0)
(0.00682015 -0.355631 0)
(0.00979934 -0.350627 0)
(0.0126862 -0.350439 0)
(0.0157114 -0.350235 0)
(0.0188955 -0.349894 0)
(0.0222949 -0.349502 0)
(0.0259705 -0.349044 0)
(0.029989 -0.348488 0)
(0.0344259 -0.347798 0)
(0.0393758 -0.346946 0)
(0.0449559 -0.345915 0)
(0.0513159 -0.344713 0)
(0.0586159 -0.343378 0)
(0.0670354 -0.341974 0)
(0.0767774 -0.340563 0)
(0.088049 -0.339216 0)
(0.101083 -0.33802 0)
(0.116059 -0.33714 0)
(0.133164 -0.336936 0)
(0.152638 -0.338163 0)
(0.17425 -0.341286 0)
(0.00327869 -0.293755 0)
(0.00575515 -0.379557 0)
(0.00703691 -0.358014 0)
(0.0100857 -0.353529 0)
(0.0130261 -0.353469 0)
(0.0161221 -0.353404 0)
(0.019384 -0.353267 0)
(0.0228789 -0.353133 0)
(0.0266649 -0.352993 0)
(0.0308081 -0.352827 0)
(0.0353808 -0.352616 0)
(0.0404729 -0.352346 0)
(0.0461936 -0.352018 0)
(0.0526774 -0.351658 0)
(0.0600596 -0.351326 0)
(0.0684921 -0.351104 0)
(0.0781434 -0.351076 0)
(0.0891942 -0.351317 0)
(0.101858 -0.351913 0)
(0.116296 -0.353011 0)
(0.132719 -0.354953 0)
(0.151375 -0.358488 0)
(0.172073 -0.364144 0)
(0.00327944 -0.298505 0)
(0.00590623 -0.381168 0)
(0.00730689 -0.360488 0)
(0.0103863 -0.356471 0)
(0.0133462 -0.356544 0)
(0.0164795 -0.356626 0)
(0.0197752 -0.3567 0)
(0.0233109 -0.356831 0)
(0.0271376 -0.357017 0)
(0.0313183 -0.357247 0)
(0.0359215 -0.357514 0)
(0.0410314 -0.357818 0)
(0.0467494 -0.358172 0)
(0.0531932 -0.358615 0)
(0.0604785 -0.359222 0)
(0.0687323 -0.360089 0)
(0.0780939 -0.361322 0)
(0.0887181 -0.363008 0)
(0.100797 -0.36524 0)
(0.114483 -0.368161 0)
(0.130004 -0.372105 0)
(0.14761 -0.377842 0)
(0.167157 -0.386004 0)
(0.0033156 -0.303354 0)
(0.00612097 -0.382938 0)
(0.00761698 -0.363026 0)
(0.0106977 -0.359429 0)
(0.0136416 -0.359635 0)
(0.0167842 -0.359871 0)
(0.0200763 -0.360152 0)
(0.0236067 -0.360543 0)
(0.0274154 -0.361046 0)
(0.0315605 -0.36166 0)
(0.036105 -0.362386 0)
(0.0411266 -0.363236 0)
(0.0467177 -0.364234 0)
(0.0529786 -0.365427 0)
(0.0600087 -0.3669 0)
(0.0679136 -0.368757 0)
(0.0768068 -0.37112 0)
(0.086813 -0.374095 0)
(0.0980984 -0.377793 0)
(0.110798 -0.382361 0)
(0.125152 -0.388142 0)
(0.141399 -0.395944 0)
(0.159438 -0.406537 0)
(0.00342784 -0.308346 0)
(0.0063982 -0.384852 0)
(0.00791611 -0.365571 0)
(0.0109833 -0.362367 0)
(0.0138784 -0.362708 0)
(0.0170078 -0.363098 0)
(0.0202707 -0.363579 0)
(0.0237651 -0.364215 0)
(0.0275189 -0.365015 0)
(0.0315817 -0.365984 0)
(0.0360089 -0.367135 0)
(0.0408694 -0.368488 0)
(0.0462437 -0.370073 0)
(0.0522149 -0.371948 0)
(0.0588671 -0.374198 0)
(0.066288 -0.376934 0)
(0.074567 -0.380283 0)
(0.0837944 -0.384373 0)
(0.0941003 -0.389338 0)
(0.105588 -0.39534 0)
(0.118496 -0.402741 0)
(0.133031 -0.412407 0)
(0.149101 -0.425257 0)
(0.00362943 -0.313533 0)
(0.00670397 -0.386826 0)
(0.00813245 -0.368057 0)
(0.0111848 -0.365243 0)
(0.0140033 -0.365723 0)
(0.017101 -0.366269 0)
(0.0203193 -0.366939 0)
(0.0237623 -0.367803 0)
(0.0274462 -0.368872 0)
(0.0314099 -0.370163 0)
(0.0356989 -0.371695 0)
(0.0403707 -0.373494 0)
(0.045491 -0.375598 0)
(0.0511248 -0.378067 0)
(0.0573401 -0.38099 0)
(0.0642068 -0.384474 0)
(0.0717896 -0.388649 0)
(0.0801424 -0.393658 0)
(0.0893507 -0.399653 0)
(0.0994713 -0.406824 0)
(0.110719 -0.415559 0)
(0.123235 -0.426774 0)
(0.136871 -0.441536 0)
(0.00390803 -0.318991 0)
(0.00698725 -0.388753 0)
(0.00819689 -0.37046 0)
(0.0112427 -0.36805 0)
(0.0139574 -0.368675 0)
(0.0170027 -0.369378 0)
(0.0201608 -0.370233 0)
(0.0235394 -0.371313 0)
(0.0271464 -0.372632 0)
(0.031011 -0.374212 0)
(0.0351693 -0.376079 0)
(0.0396657 -0.378263 0)
(0.0445482 -0.380807 0)
(0.0498624 -0.383775 0)
(0.0556591 -0.387253 0)
(0.061989 -0.391346 0)
(0.0688909 -0.396178 0)
(0.0763839 -0.401895 0)
(0.0845055 -0.408658 0)
(0.0932591 -0.416686 0)
(0.102808 -0.426384 0)
(0.113182 -0.438699 0)
(0.124107 -0.454783 0)
(0.00424772 -0.324808 0)
(0.00720163 -0.390529 0)
(0.00805137 -0.372799 0)
(0.011102 -0.370818 0)
(0.0136722 -0.371597 0)
(0.0166305 -0.372462 0)
(0.0196949 -0.373506 0)
(0.0229797 -0.374799 0)
(0.0264893 -0.376356 0)
(0.0302459 -0.378203 0)
(0.0342793 -0.380369 0)
(0.0386208 -0.382887 0)
(0.0433009 -0.385804 0)
(0.0483475 -0.389185 0)
(0.0537962 -0.393114 0)
(0.0596789 -0.397688 0)
(0.0660096 -0.403022 0)
(0.072778 -0.40925 0)
(0.0799788 -0.416532 0)
(0.0875675 -0.425099 0)
(0.0956256 -0.435354 0)
(0.104044 -0.448213 0)
(0.112355 -0.464805 0)
(0.00464174 -0.330984 0)
(0.00731328 -0.391975 0)
(0.00764304 -0.375033 0)
(0.0107026 -0.373521 0)
(0.013059 -0.374454 0)
(0.0158709 -0.375488 0)
(0.0187789 -0.376727 0)
(0.021909 -0.378233 0)
(0.0252651 -0.380025 0)
(0.0288655 -0.382131 0)
(0.0327371 -0.384581 0)
(0.0369025 -0.387409 0)
(0.0413791 -0.390661 0)
(0.0461831 -0.394401 0)
(0.0513401 -0.398708 0)
(0.0568683 -0.40367 0)
(0.0627621 -0.409389 0)
(0.0689923 -0.41598 0)
(0.0755265 -0.423587 0)
(0.082287 -0.432433 0)
(0.0892596 -0.442884 0)
(0.0962193 -0.455723 0)
(0.102465 -0.471936 0)
(0.00507507 -0.337317 0)
(0.00729398 -0.392728 0)
(0.00693228 -0.376928 0)
(0.00998517 -0.375935 0)
(0.0120348 -0.377002 0)
(0.0146163 -0.378202 0)
(0.0172792 -0.379632 0)
(0.0201581 -0.381349 0)
(0.0232596 -0.383376 0)
(0.0266028 -0.385743 0)
(0.030216 -0.388473 0)
(0.0341163 -0.391599 0)
(0.0383135 -0.395164 0)
(0.0428187 -0.39923 0)
(0.0476553 -0.40387 0)
(0.0528354 -0.409164 0)
(0.0583436 -0.415197 0)
(0.0641479 -0.422064 0)
(0.0702101 -0.429881 0)
(0.0764412 -0.438844 0)
(0.0827504 -0.44924 0)
(0.0888595 -0.461626 0)
(0.0938882 -0.476745 0)
(0.00549457 -0.343601 0)
(0.00711787 -0.392463 0)
(0.00593184 -0.378259 0)
(0.00893652 -0.377821 0)
(0.0105894 -0.378987 0)
(0.012846 -0.380339 0)
(0.0151641 -0.381951 0)
(0.0176798 -0.383874 0)
(0.0204071 -0.386132 0)
(0.0233692 -0.388746 0)
(0.0265932 -0.391738 0)
(0.0300897 -0.395141 0)
(0.0338638 -0.398997 0)
(0.0379278 -0.403364 0)
(0.0423106 -0.408311 0)
(0.0470251 -0.413909 0)
(0.0520547 -0.420228 0)
(0.0573811 -0.427343 0)
(0.0629801 -0.435341 0)
(0.0687741 -0.444376 0)
(0.0746405 -0.45463 0)
(0.0803267 -0.466403 0)
(0.0849504 -0.480128 0)
(0.00578941 -0.350297 0)
(0.00675883 -0.391625 0)
(0.00474008 -0.379529 0)
(0.00761901 -0.379654 0)
(0.00882038 -0.380896 0)
(0.0106701 -0.382394 0)
(0.0125657 -0.384184 0)
(0.0146356 -0.386303 0)
(0.016899 -0.388773 0)
(0.0193764 -0.391617 0)
(0.0220878 -0.394857 0)
(0.0250368 -0.398524 0)
(0.0282277 -0.40266 0)
(0.0316791 -0.407321 0)
(0.0354274 -0.412576 0)
(0.0394872 -0.418488 0)
(0.0438453 -0.425116 0)
(0.048505 -0.432515 0)
(0.053464 -0.440754 0)
(0.0586705 -0.449938 0)
(0.0640224 -0.460153 0)
(0.0693557 -0.471481 0)
(0.0739947 -0.484064 0)
(0.00577556 -0.358021 0)
(0.0061579 -0.390998 0)
(0.00351186 -0.381507 0)
(0.00613077 -0.382167 0)
(0.00688623 -0.383483 0)
(0.0082907 -0.38512 0)
(0.00973823 -0.387072 0)
(0.0113313 -0.389367 0)
(0.013083 -0.392034 0)
(0.015008 -0.395096 0)
(0.0171222 -0.398574 0)
(0.0194271 -0.402492 0)
(0.0219264 -0.406892 0)
(0.0246437 -0.41184 0)
(0.0276186 -0.417404 0)
(0.0308628 -0.42364 0)
(0.0343697 -0.430594 0)
(0.0381626 -0.438316 0)
(0.0422532 -0.446867 0)
(0.0466136 -0.456305 0)
(0.0511973 -0.46666 0)
(0.0559459 -0.477888 0)
(0.0605163 -0.489941 0)
(0.00523725 -0.364451 0)
(0.00522687 -0.388844 0)
(0.00240117 -0.38223 0)
(0.00457271 -0.383328 0)
(0.00496209 -0.38471 0)
(0.00593697 -0.386448 0)
(0.00695259 -0.388514 0)
(0.00807129 -0.390937 0)
(0.00930282 -0.393747 0)
(0.0106648 -0.396964 0)
(0.0121695 -0.400602 0)