/*--------------------------------*- C++ -*----------------------------------*\
| =========                 |                                                 |
| \\      /  F ield         | OpenFOAM: The Open Source CFD Toolbox           |
|  \\    /   O peration     | Version:  2206                                  |
|   \\  /    A nd           | Website:  www.openfoam.com                      |
|    \\/     M anipulation  |                                                 |
\*---------------------------------------------------------------------------*/
FoamFile
{
    version     2.0;
    format      ascii;
    arch        "LSB;label=32;scalar=64";
    class       volScalarField;
    location    "0.675";
    object      p;
}
// * * * * * * * * * * * * * * * * * * * * * * * * * * * * * * * * * * * * * //

dimensions      [1 -1 -2 0 0 0 0];

internalField   nonuniform List<scalar> 
2268
(
1429.42
1428.57
1427.19
1425.07
1422.6
1419.76
1416.47
1412.83
1408.91
1404.79
1400.56
1396.29
1392.06
1387.94
1383.99
1380.26
1376.8
1373.63
1370.98
1368.49
1366.76
1365.23
1363.2
1252.64
1251.59
1250.14
1247.82
1245.21
1242.14
1238.61
1234.7
1230.5
1226.1
1221.6
1217.08
1212.62
1208.29
1204.15
1200.24
1196.76
1192.55
1189.53
1185.32
1181.95
1174.23
1176.54
1078.29
1077.09
1075.24
1072.59
1069.56
1066.02
1062
1057.56
1052.81
1047.86
1042.81
1037.78
1032.85
1028.11
1023.64
1019.5
1015.72
1012.25
1009.1
1005.81
1003.5
995.469
1000.37
906.89
905.355
902.916
899.535
895.813
891.516
886.664
881.336
875.657
869.768
863.805
857.898
852.152
846.71
841.66
837.088
833.082
829.753
827.23
825.443
824.455
825.168
827.397
739.294
737.414
734.11
729.825
724.89
719.295
713.081
706.348
699.237
691.933
684.614
677.416
670.49
663.925
657.852
652.398
647.701
643.901
641.113
639.43
639.021
639.98
641.665
574.6
572.479
568.872
562.807
556.288
549.06
541.076
532.46
523.405
514.121
504.828
495.686
486.837
478.488
470.861
464.181
458.627
454.326
451.421
450.056
450.152
450.945
451.49
413.022
409.885
405.153
398.883
390.694
381.029
370.272
358.834
347.094
335.375
324.159
313.763
304.356
295.489
287.16
279.463
272.535
266.566
261.629
257.717
256.451
259.504
261.934
261.115
256.443
251.815
243.013
230.824
217.443
203.256
188.413
172.694
156.485
140.764
127.042
114.421
102.835
92.6158
83.983
77.0579
71.8412
68.2288
67.475
66.658
75.2754
64.1346
190.736
166.403
116.672
70.1375
92.4045
160.089
197.98
167.109
136.491
130.933
144.544
188.862
210.573
204.434
187.085
184.227
244.546
352.239
408.324
110.1
42.1112
19.3128
16.9938
32.2402
70.778
84.7647
47.0302
40.354
63.3978
91.5442
128.008
149.357
139.673
136.201
136.496
147.765
203.426
360.64
43.4727
7.01943
1.93841
4.1812
15.1933
29.9887
32.2715
26.8416
29.0642
41.1142
77.8999
99.0577
124.383
120.495
127.54
129.65
129.406
140.514
246.443
15.2811
-6.5258
-0.288792
-1.91957
3.10319
11.3744
11.9568
12.9982
17.3794
34.938
55.6457
62.623
77.5515
102.464
118.04
121.537
117.986
117.047
147.597
20.9625
-4.8231
5.34287
5.49987
4.31998
6.38652
5.21195
5.66468
6.65186
22.399
20.3082
27.1941
37.1319
56.6277
88.5182
106.162
105.015
96.8558
122.089
51.9052
4.28934
10.5021
10.1375
5.3499
3.93468
4.49986
4.76564
5.19303
14.458
12.4998
12.4204
19.0698
19.9369
53.7044
69.8382
70.6465
61.3187
90.6515
74.9393
1.38135
4.34813
5.88288
3.16383
3.49318
3.85081
4.20641
4.2684
6.59844
7.16288
5.55907
6.91134
9.20219
21.8696
17.3158
14.3404
21.9148
36.4553
30.6644
6.51788
6.21571
2.46982
2.70822
2.93067
3.11454
3.12082
2.73354
2.22368
1.86294
2.73375
-1.10935
2.58702
8.44453
5.67789
5.20765
6.19349
11.0652
154.757
150.209
140.836
128.375
113.033
95.631
77.4516
59.9026
44.114
31.5418
21.978
15.9796
11.7291
8.08001
5.21052
3.15925
1.80707
1.02841
0.884058
1.01217
1.10647
2.48259
9.98482
85.9799
83.8604
71.747
54.9361
38.7635
24.8883
14.3172
7.12871
2.09306
0.226174
0.157387
0.211501
0.22509
0.238936
0.273484
0.323324
0.385337
0.461699
0.527989
0.58175
0.5275
0.43357
0.456517
34.0779
29.5437
19.3067
8.84092
2.5804
0.0440842
-0.0668176
-0.10857
-0.0767373
0.00137303
0.0060939
0.0340346
0.0590387
0.0889767
0.129233
0.177967
0.233145
0.295442
0.36166
0.405747
0.40382
0.315487
0.327537
0.95027
-0.107151
-0.406633
-0.418942
-0.435778
-0.40358
-0.329414
-0.300442
-0.255068
-0.156012
-0.12536
-0.0941122
-0.0607665
-0.0260336
0.0141788
0.0603726
0.111277
0.165466
0.218924
0.262296
0.295425
0.299454
0.346505
-0.729536
-0.736826
-0.646338
-0.598866
-0.567373
-0.487158
-0.43325
-0.397429
-0.354678
-0.304802
-0.267532
-0.233621
-0.197771
-0.1595
-0.117895
-0.0727843
-0.0248107
0.0249051
0.0742401
0.119753
0.159671
0.195551
0.244864
-0.80191
-0.804701
-0.761439
-0.712606
-0.661925
-0.603986
-0.561462
-0.525353
-0.487817
-0.446485
-0.407219
-0.37003
-0.332182
-0.292637
-0.250899
-0.206792
-0.160611
-0.112975
-0.0648079
-0.0171681
0.0299235
0.0782323
0.134032
-0.888216
-0.889306
-0.853756
-0.817793
-0.770075
-0.72529
-0.686813
-0.652412
-0.617519
-0.580717
-0.543329
-0.505884
-0.467555
-0.427781
-0.386326
-0.343113
-0.298239
-0.251922
-0.20443
-0.155909
-0.105929
-0.0531636
0.00501911
-0.971168
-0.965435
-0.94108
-0.914539
-0.880121
-0.845265
-0.812542
-0.78126
-0.748901
-0.714569
-0.678714
-0.641808
-0.603804
-0.564549
-0.523938
-0.481878
-0.438314
-0.393213
-0.346518
-0.298037
-0.247257
-0.193225
-0.134541
-1.0636
-1.05168
-1.03744
-1.01808
-0.993802
-0.966755
-0.939238
-0.910876
-0.880538
-0.847989
-0.813642
-0.777925
-0.741019
-0.702946
-0.663653
-0.623036
-0.580958
-0.537259
-0.491734
-0.444072
-0.39379
-0.340193
-0.282416
-1.17046
-1.16102
-1.14992
-1.13424
-1.11409
-1.09163
-1.06766
-1.04151
-1.01286
-0.981941
-0.949235
-0.915122
-0.879814
-0.843379
-0.805771
-0.766869
-0.726496
-0.684438
-0.640438
-0.594169
-0.545205
-0.493017
-0.436996
-1.29062
-1.28616
-1.2759
-1.26025
-1.24074
-1.22016
-1.19803
-1.17337
-1.14621
-1.11697
-1.08608
-1.05386
-1.02047
-0.985968
-0.950299
-0.913326
-0.874865
-0.834696
-0.792559
-0.748149
-0.701097
-0.650977
-0.597318
-1.41852
-1.41769
-1.40776
-1.39095
-1.37133
-1.35136
-1.33015
-1.30666
-1.281
-1.25354
-1.22462
-1.19446
-1.16318
-1.13079
-1.09722
-1.06234
-1.02598
-0.987937
-0.947967
-0.9058
-0.861117
-0.813558
-0.762729
-1.54841
-1.54997
-1.53992
-1.52332
-1.50384
-1.48431
-1.46383
-1.44153
-1.41748
-1.39191
-1.36505
-1.33704
-1.30795
-1.27777
-1.24641
-1.21377
-1.17968
-1.14397
-1.10644
-1.06685
-1.02491
-0.980321
-0.932722
-1.67691
-1.6816
-1.67041
-1.65548
-1.6372
-1.61853
-1.59903
-1.57811
-1.55579
-1.53219
-1.50742
-1.48159
-1.45473
-1.42679
-1.39773
-1.36743
-1.33577
-1.3026
-1.26776
-1.23103
-1.19216
-1.15089
-1.10688
-1.80758
-1.80912
-1.80111
-1.78789
-1.77137
-1.75401
-1.73579
-1.71644
-1.69594
-1.67432
-1.65165
-1.628
-1.60336
-1.57772
-1.55101
-1.52316
-1.49407
-1.46362
-1.43167
-1.39805
-1.36254
-1.3249
-1.28484
-1.93965
-1.93928
-1.93337
-1.92175
-1.90685
-1.89091
-1.87416
-1.85649
-1.83783
-1.81818
-1.7976
-1.77611
-1.75371
-1.73039
-1.70609
-1.68078
-1.65438
-1.6268
-1.59793
-1.56763
-1.53572
-1.502
-1.46622
-2.07365
-2.0733
-2.06843
-2.05775
-2.04395
-2.02932
-2.0141
-1.99813
-1.98131
-1.96362
-1.9451
-1.92576
-1.90561
-1.88463
-1.8628
-1.8401
-1.81648
-1.79189
-1.76624
-1.73943
-1.71134
-1.68179
-1.6506
-2.20931
-2.21031
-2.20603
-2.19566
-2.18253
-2.16913
-2.15545
-2.14119
-2.1262
-2.11046
-2.09399
-2.07679
-2.05889
-2.04027
-2.02095
-2.00091
-1.98014
-1.95862
-1.9363
-1.91312
-1.889
-1.86383
-1.83748
-2.34578
-2.34831
-2.34468
-2.3346
-2.32216
-2.31006
-2.298
-2.28547
-2.27232
-2.25852
-2.24408
-2.22902
-2.21336
-2.19712
-2.18032
-2.16297
-2.1451
-2.1267
-2.10777
-2.08831
-2.06827
-2.04762
-2.0263
-2.48211
-2.4855
-2.48282
-2.47363
-2.46238
-2.45186
-2.44153
-2.43078
-2.41948
-2.40761
-2.3952
-2.38227
-2.36884
-2.35497
-2.34069
-2.32605
-2.31108
-2.29582
-2.28032
-2.2646
-2.2487
-2.23264
-2.21644
-2.61778
-2.62115
-2.61978
-2.61234
-2.60297
-2.59434
-2.58587
-2.57696
-2.56752
-2.55759
-2.54719
-2.53636
-2.52515
-2.51363
-2.50185
-2.48989
-2.47781
-2.46568
-2.45358
-2.44161
-2.42983
-2.41836
-2.40731
-2.75298
-2.75576
-2.75587
-2.75088
-2.74398
-2.73748
-2.73094
-2.7239
-2.71634
-2.70832
-2.6999
-2.69114
-2.68211
-2.67289
-2.66357
-2.65424
-2.645
-2.63595
-2.62722
-2.61892
-2.61121
-2.60428
-2.59831
-2.88838
-2.89052
-2.89204
-2.88983
-2.88567
-2.88136
-2.87674
-2.87155
-2.86583
-2.85969
-2.85321
-2.84646
-2.83955
-2.83257
-2.82564
-2.81888
-2.8124
-2.80634
-2.80086
-2.79614
-2.79238
-2.78985
-2.78881
-3.02476
-3.02652
-3.02931
-3.02985
-3.02831
-3.02608
-3.0233
-3.01988
-3.01595
-3.01161
-3.00698
-3.00217
-2.99729
-2.99248
-2.98785
-2.98355
-2.97973
-2.97655
-2.9742
-2.9729
-2.97291
-2.97455
-2.9782
-3.16272
-3.16436
-3.16844
-3.17144
-3.17215
-3.17175
-3.17066
-3.16891
-3.16663
-3.164
-3.16113
-3.15815
-3.15521
-3.15244
-3.15
-3.14804
-3.14675
-3.1463
-3.14691
-3.14884
-3.15239
-3.15791
-3.1659
-3.30273
-3.30431
-3.30987
-3.31488
-3.31733
-3.31847
-3.31887
-3.31861
-3.31786
-3.31679
-3.31554
-3.31427
-3.31314
-3.3123
-3.31191
-3.31216
-3.31323
-3.31534
-3.31872
-3.32365
-3.33047
-3.33956
-3.35145
-3.44514
-3.44668
-3.45381
-3.46025
-3.4639
-3.46628
-3.46794
-3.46897
-3.46957
-3.4699
-3.47014
-3.47044
-3.47097
-3.47191
-3.47342
-3.47571
-3.47897
-3.48345
-3.48939
-3.49708
-3.50689
-3.51919
-3.53456
-3.59022
-3.59188
-3.60029
-3.60747
-3.61186
-3.61518
-3.61784
-3.61995
-3.6217
-3.62327
-3.62483
-3.62654
-3.62858
-3.63113
-3.63438
-3.63853
-3.6438
-3.65043
-3.65871
-3.66892
-3.68144
-3.69665
-3.71509
-3.738
-3.74002
-3.74912
-3.75638
-3.76113
-3.76509
-3.76851
-3.77149
-3.7742
-3.77682
-3.77952
-3.78247
-3.78585
-3.78984
-3.79464
-3.80046
-3.80754
-3.81612
-3.8265
-3.83899
-3.85396
-3.87179
-3.89301
-3.88843
-3.89085
-3.89987
-3.90671
-3.91157
-3.91591
-3.91986
-3.92348
-3.92696
-3.93046
-3.93412
-3.93814
-3.94267
-3.94792
-3.95408
-3.96138
-3.97005
-3.98036
-3.99261
-4.00713
-4.02428
-4.0445
-4.06825
-4.04076
-4.04364
-4.052
-4.05818
-4.06294
-4.06746
-4.07173
-4.07583
-4.07989
-4.08408
-4.08855
-4.09345
-4.09896
-4.10527
-4.1126
-4.12115
-4.13119
-4.14299
-4.15686
-4.17315
-4.19223
-4.21456
-4.24062
-4.19457
-4.19769
-4.205
-4.21046
-4.21502
-4.21956
-4.22399
-4.22839
-4.23288
-4.2376
-4.24269
-4.2483
-4.25461
-4.2618
-4.27008
-4.27967
-4.29085
-4.30388
-4.3191
-4.33686
-4.35758
-4.38172
-4.4098
-4.34923
-4.3524
-4.35847
-4.36327
-4.36756
-4.37199
-4.37647
-4.38104
-4.38582
-4.39092
-4.39647
-4.40262
-4.40954
-4.41741
-4.42643
-4.43683
-4.44889
-4.46288
-4.47915
-4.49807
-4.52008
-4.54566
-4.57537
-4.50418
-4.50729
-4.51213
-4.51634
-4.52033
-4.52459
-4.52901
-4.53364
-4.53858
-4.54392
-4.54979
-4.55632
-4.56367
-4.57202
-4.58157
-4.59254
-4.60521
-4.61987
-4.63686
-4.65658
-4.67946
-4.70603
-4.73689
-4.65904
-4.66199
-4.66576
-4.66945
-4.67312
-4.67716
-4.68146
-4.68607
-4.69106
-4.69652
-4.70257
-4.70933
-4.71694
-4.72558
-4.73543
-4.74674
-4.75975
-4.77477
-4.79213
-4.81223
-4.83553
-4.86257
-4.89396
-4.81354
-4.81629
-4.81919
-4.82246
-4.8258
-4.8296
-4.83374
-4.83825
-4.84321
-4.84869
-4.85479
-4.86163
-4.86933
-4.87807
-4.88803
-4.89943
-4.91251
-4.92757
-4.94493
-4.965
-4.98822
-5.01513
-5.04637
-4.96756
-4.97013
-4.97233
-4.97526
-4.97831
-4.98186
-4.9858
-4.99017
-4.99503
-5.00043
-5.00648
-5.01326
-5.02092
-5.02959
-5.03945
-5.05071
-5.06359
-5.07838
-5.09538
-5.11498
-5.13761
-5.1638
-5.19414
-5.12098
-5.12346
-5.1251
-5.12775
-5.13054
-5.13385
-5.13758
-5.14177
-5.14647
-5.15172
-5.15762
-5.16424
-5.17171
-5.18015
-5.18973
-5.20063
-5.21307
-5.22728
-5.24358
-5.2623
-5.28384
-5.30868
-5.33739
-5.27355
-5.27602
-5.27722
-5.27963
-5.28219
-5.28526
-5.28878
-5.29277
-5.29725
-5.30229
-5.30795
-5.31431
-5.32147
-5.32955
-5.33868
-5.34903
-5.36078
-5.37416
-5.38943
-5.40688
-5.42688
-5.44984
-5.47626
-5.42495
-5.42736
-5.42829
-5.43046
-5.43284
-5.43569
-5.43899
-5.44273
-5.44697
-5.45174
-5.45709
-5.4631
-5.46985
-5.47743
-5.48597
-5.4956
-5.50649
-5.51881
-5.53279
-5.54868
-5.56678
-5.58743
-5.61105
-5.57578
-5.57808
-5.57896
-5.58094
-5.58317
-5.58582
-5.5889
-5.5924
-5.59637
-5.60084
-5.60584
-5.61144
-5.6177
-5.62471
-5.63255
-5.64135
-5.65122
-5.66232
-5.67481
-5.6889
-5.70481
-5.72281
-5.74319
-5.72854
-5.73136
-5.73227
-5.73411
-5.73624
-5.73874
-5.74164
-5.74494
-5.74867
-5.75285
-5.75751
-5.7627
-5.76847
-5.77486
-5.78197
-5.78985
-5.7986
-5.80833
-5.81915
-5.83118
-5.84456
-5.85946
-5.87607
22.3145
24.206
25.0887
23.5367
0.666773
1.44978
1.83983
1.55299
0.43652
0.636333
0.780705
0.922373
0.415789
0.531184
0.658748
0.787377
0.317198
0.418285
0.534746
0.655972
0.205961
0.297363
0.401392
0.514048
0.0757794
0.16242
0.259577
0.365515
-0.0651073
0.0178062
0.109455
0.209249
-0.21498
-0.13558
-0.0485772
0.0459036
-0.372072
-0.296246
-0.21363
-0.124122
-0.535376
-0.463357
-0.385122
-0.300435
-0.70418
-0.636253
-0.56253
-0.48267
-0.877956
-0.814464
-0.745506
-0.670619
-1.0563
-0.997644
-0.933824
-0.864224
-1.23884
-1.18551
-1.12735
-1.06357
-1.42522
-1.37776
-1.32594
-1.26884
-1.61502
-1.57402
-1.52936
-1.48018
-1.80768
-1.77373
-1.73707
-1.69728
-2.00256
-1.97607
-1.94806
-1.91893
-2.1989
-2.1801
-2.16099
-2.14308
-2.39601
-2.38491
-2.37475
-2.36794
-2.59322
-2.58978
-2.58884
-2.59301
-2.7898
-2.79387
-2.80249
-2.81755
-2.98489
-2.99605
-3.01367
-3.03892
-3.17775
-3.19532
-3.22036
-3.25408
-3.36786
-3.39096
-3.42185
-3.46217
-3.55493
-3.58259
-3.618
-3.66274
-3.73893
-3.77039
-3.80924
-3.85673
-3.91999
-3.95485
-3.99684
-4.04696
-4.09813
-4.13626
-4.18154
-4.2349
-4.27321
-4.31451
-4.36327
-4.4205
-4.44482
-4.48913
-4.54137
-4.60279
-4.61243
-4.65933
-4.71475
-4.78021
-4.77539
-4.82422
-4.88209
-4.95089
-4.93315
-4.98295
-5.04217
-5.11294
-5.08537
-5.13498
-5.19409
-5.26493
-5.23199
-5.2801
-5.33745
-5.40616
-5.37312
-5.41842
-5.4723
-5.53664
-5.50899
-5.55031
-5.59921
-5.65727
-5.64013
-5.67658
-5.71942
-5.76987
-5.76807
-5.79889
-5.8347
-5.87635
-5.89596
-5.92005
-5.94737
-5.97837
15.3598
1.1472
1.55236
2.20652
2.37546
2.5693
2.70771
2.36349
2.11026
2.10856
0.724372
3.37615
-2.29136
1.3475
4.39144
4.2251
4.59791
4.672
9.30097
1.22866
1.46279
1.6364
1.99354
2.19939
2.36671
2.47469
2.02013
2.00806
2.23616
0.729951
3.12577
-4.74481
2.39717
4.23984
3.78173
4.32394
4.24399
9.79307
1.08098
1.2736
1.51232
1.81133
2.02907
2.20883
2.31534
2.03332
2.17535
2.42394
0.927542
-1.12398
-0.314866
2.66725
4.12984
3.58473
4.1425
3.31437
9.32722
0.952561
1.16158
1.3889
1.64021
1.86603
2.07013
2.23075
2.26763
2.52765
2.84224
1.69033
-0.228466
1.21973
2.90638
4.00892
3.56543
4.27811
2.92818
8.62231
0.813505
1.01432
1.23331
1.47033
1.70163
1.92753
2.15847
2.42425
2.84016
3.41831
2.94773
1.63278
1.90514
2.98263
4.05607
3.70298
4.55493
2.86802
6.64529
0.664561
0.859656
1.07107
1.29726
1.52966
1.7712
2.046
2.40463
2.97717
3.61993
3.75192
3.03228
2.54427
3.13362
4.10283
3.84391
4.67541
2.59427
0.968768
0.508555
0.695891
0.898865
1.11686
1.34682
1.59474
1.88579
2.25632
2.8818
3.54138
4.2369
4.57503
3.87699
3.40196
3.91126
3.72736
4.48836
2.4316
1.50116
0.344975
0.524337
0.719047
0.928644
1.15217
1.39737
1.68603
2.06749
2.66206
3.34829
4.42413
5.6313
4.96855
3.07439
3.13747
2.99832
3.75705
1.85859
1.63459
0.174716
0.345928
0.532095
0.732396
0.945778
1.17902
1.45053
1.82162
2.3513
2.93221
4.23999
5.79231
4.81668
1.36347
1.61346
1.4869
2.25738
0.539744
1.63033
-0.00194766
0.161172
0.338739
0.529034
0.728616
0.940607
1.18105
1.51594
1.99054
2.27435
3.84145
4.52796
-0.0735497
-3.14075
-1.09954
-1.25885
0.0790721
-1.57159
2.22068
-0.184666
-0.0293822
0.13987
0.320294
0.502996
0.685682
0.881324
1.1641
1.51255
1.44226
3.20438
3.29364
-3.596
-6.75796
-7.47141
-4.87742
-2.18926
-3.79056
2.85361
-0.373186
-0.225332
-0.0635591
0.108863
0.272476
0.418896
0.562008
0.796615
0.979668
0.629493
0.34765
-0.749974
-5.38764
-7.0606
-11.3407
-7.35456
-3.96251
-5.68759
-0.28376
-0.56744
-0.426518
-0.270746
-0.101244
0.0414095
0.145902
0.232785
0.401461
0.441345
0.206012
-0.841059
-4.28625
-5.88609
-5.93461
-7.55606
-7.5072
-4.94259
-6.83993
-3.57099
-0.767621
-0.633269
-0.481686
-0.304814
-0.186548
-0.127449
-0.103402
-0.0103748
-0.0905733
0.0369886
-4.891
-6.89567
-6.81745
-6.82444
-6.9189
-7.10047
-5.34602
-7.211
-4.58795
-0.974219
-0.846622
-0.697905
-0.49607
-0.412991
-0.408044
-0.428422
-0.371312
-0.492664
-0.646155
-8.68407
-8.59384
-6.73158
-6.75008
-6.72069
-6.80263
-5.5697
-7.15589
-4.45963
-1.18803
-1.06863
-0.923819
-0.664454
-0.640864
-0.711211
-0.737296
-0.700795
-0.803349
-1.42266
-2.69354
-5.68574
-6.19505
-6.35466
-5.95632
-6.49065
-5.64505
-6.95851
-4.06372
-1.41008
-1.30361
-1.17588
-0.820038
-0.878287
-1.05334
-1.05465
-1.00703
-1.00997
-1.6041
-2.19448
-2.53173
-5.42868
-5.84339
-4.94324
-6.1624
-5.57104
-6.6871
-3.47619
-1.64066
-1.55682
-1.47445
-1.10024
-1.26196
-1.48249
-1.38726
-1.22515
-0.961754
-1.15078
-1.71022
-2.09517
-3.67207
-6.25615
-4.576
-6.10252
-5.57101
-6.51749
1.59495
-1.87791
-1.82835
-1.78834
-1.67591
-1.96976
-2.01035
-1.72277
-1.4047
-0.952947
-0.917936
-1.21968
-1.41344
-4.79493
-7.62678
-5.86125
-6.54283
-5.89133
-6.65095
14.1467
-2.11752
-2.10672
-2.09379
-2.22951
-2.6482
-2.45307
-2.06138
-1.56647
-0.934995
-0.849964
-1.33396
-3.242
-5.81821
-7.70536
-7.40983
-7.07221
-6.46525
-6.80992
22.1933
-2.35608
-2.38414
-2.37452
-2.63095
-2.88604
-2.83079
-2.43401
-1.80135
-1.22835
-1.41598
-4.0732
-6.33922
-6.51619
-6.12658
-7.23182
-7.30398
-7.10551
-6.84656
20.9155
-2.5969
-2.66385
-2.74345
-3.13812
-3.0568
-3.2675
-3.20269
-2.71998
-2.98137
-5.15989
-9.39449
-8.6643
-6.06067
-5.47432
-6.44724
-7.03819
-6.93034
-6.11149
8.04011
-2.84598
-2.95292
-3.31927
-3.73189
-3.45761
-4.05213
-5.50254
-6.64135
-7.18886
-11.3854
-13.2117
-9.52639
-6.89676
-5.6396
-5.96086
-6.44261
-6.2378
-5.0043
1.22081
-3.09351
-3.21548
-3.60026
-3.99717
-4.28794
-5.52738
-8.46724
-9.95835
-9.62332
-12.851
-12.9002
-9.24905
-7.05531
-6.05261
-6.00592
-6.19465
-6.29547
-6.00853
-2.24017
-3.31955
-3.43413
-3.69959
-4.17451
-4.89683
-6.10706
-8.27121
-10.0578
-10.8817
-11.9797
-11.5401
-9.46289
-7.51412
-6.4958
-6.31123
-6.51928
-7.12576
-7.80499
-4.8098
-3.53294
-3.64971
-3.87026
-4.26872
-4.90221
-5.94149
-7.67154
-9.53434
-10.8378
-11.8112
-11.7089
-10.1694
-8.33323
-7.28173
-7.00738
-7.32555
-8.2579
-9.73136
-7.19448
-3.73631
-3.85561
-4.05471
-4.40223
-4.96909
-5.91789
-7.49112
-9.39301
-10.9776
-12.0402
-12.1757
-11.105
-9.51228
-8.45665
-7.99562
-8.42916
-9.46164
-11.5647
-9.45206
-3.9307
-4.05051
-4.23744
-4.55013
-5.07194
-6.00585
-7.55695
-9.52248
-11.3605
-12.6353
-12.9637
-12.2198
-10.8568
-9.73576
-9.08173
-9.63847
-10.7505
-13.1482
-11.4442
-4.12172
-4.2413
-4.42247
-4.70856
-5.19299
-6.13398
-7.73431
-9.81709
-11.9049
-13.4596
-14.0147
-13.472
-12.2553
-11.0022
-10.2302
-10.8254
-11.8084
-13.951
-12.7637
-4.31316
-4.43559
-4.61501
-4.88105
-5.3426
-6.31487
-8.0024
-10.2206
-12.5373
-14.4184
-15.3243
-14.9488
-13.7262
-12.3038
-11.5914
-11.8442
-12.4344
-14.0593
-13.262
-4.50448
-4.63365
-4.81579
-5.06994
-5.51988
-6.52418
-8.28974
-10.6082
-13.1286
-15.399
-16.695
-16.5408
-15.2664
-13.6626
-13.0864
-12.7551
-12.7166
-13.8449
-13.2528
-4.69363
-4.83249
-5.02205
-5.2747
-5.72035
-6.73991
-8.53542
-10.8771
-13.5255
-16.1009
-17.644
-17.6859
-16.5814
-15.0184
-14.3769
-13.455
-12.7899
-13.6295
-12.8962
-4.8779
-5.02784
-5.22912
-5.49143
-5.93476
-6.9376
-8.693
-10.988
-13.5862
-16.2797
-18.0137
-18.2151
-17.3964
-16.111
-15.3935
-13.8465
-12.7409
-13.1063
-12.3398
-5.05427
-5.21497
-5.43005
-5.71187
-6.15226
-7.09687
-8.7438
-10.9339
-13.3073
-15.8834
-17.9051
-18.3237
-17.7649
-16.8395
-16.0816
-13.8967
-12.5146
-12.2314
-11.6054
-5.21988
-5.38862
-5.61561
-5.9196
-6.35935
-7.20768
-8.68289
-10.7077
-12.8595
-15.1067
-17.1909
-18.0654
-17.8384
-17.2448
-16.4348
-13.6522
-12.0613
-11.2144
-10.6809
-5.37243
-5.54384
-5.77636
-6.09549
-6.52939
-7.25871
-8.50829
-10.3158
-12.3053
-14.2357
-16.1134
-17.3489
-17.5769
-17.2478
-16.3388
-13.2503
-11.5162
-10.073
-9.5866
-5.51057
-5.67739
-5.90454
-6.21435
-6.63593
-7.24189
-8.23549
-9.77001
-11.602
-13.4294
-15.1375
-16.4583
-17.0058
-16.8517
-15.8967
-12.8443
-11.0859
-8.81045
-8.46127
-5.63419
-5.78934
-5.9994
-6.2792
-6.66066
-7.15291
-7.8956
-9.09944
-10.6889
-12.4012
-14.0682
-15.4153
-16.2072
-16.3526
-15.539
-12.5545
-10.8152
-7.4833
-7.58318
-5.74484
-5.88302
-6.06696
-6.30528
-6.62427
-7.01785
-7.53871
-8.39071
-9.6512
-11.1256
-12.6445
-14.0302
-15.1466
-15.6307
-15.5193
-12.7053
-10.3272
-6.6717
-7.07963
-5.84542
-5.96347
-6.11741
-6.31321
-6.56723
-6.87663
-7.22337
-7.74319
-8.58071
-9.69015
-10.9102
-12.1293
-13.6722
-14.7395
-15.8314
-13.9668
-9.87645
-6.67181
-6.74274
-5.93809
-6.0331
-6.15426
-6.30602
-6.49759
-6.72854
-6.96376
-7.2316
-7.58971
-8.09298
-8.75588
-9.49256
-10.8282
-13.5967
-16.5985
-15.9424
-10.4227
-6.51505
-6.41682
-6.0232
-6.08964
-6.17071
-6.26863
-6.3929
-6.5399
-6.66605
-6.75659
-6.77474
-6.66695
-6.53391
-6.70607
-8.14241
-13.4246
-18.4521
-18.9689
-13.1336
-6.44277
-6.12408
)
;

boundaryField
{
    leftWall
    {
        type            calculated;
        value           nonuniform List<scalar> 
50
(
1429.42
1252.64
1078.29
906.89
739.294
574.6
413.022
261.115
154.757
85.9799
34.0779
0.95027
-0.729536
-0.80191
-0.888216
-0.971168
-1.0636
-1.17046
-1.29062
-1.41852
-1.54841
-1.67691
-1.80758
-1.93965
-2.07365
-2.20931
-2.34578
-2.48211
-2.61778
-2.75298
-2.88838
-3.02476
-3.16272
-3.30273
-3.44514
-3.59022
-3.738
-3.88843
-4.04076
-4.19457
-4.34923
-4.50418
-4.65904
-4.81354
-4.96756
-5.12098
-5.27355
-5.42495
-5.57578
-5.72854
)
;
    }
    rightWall
    {
        type            calculated;
        value           nonuniform List<scalar> 
50
(
408.324
360.64
246.443
147.597
122.089
90.6515
36.4553
11.0652
9.30097
9.79307
9.32722
8.62231
6.64529
0.968768
1.50116
1.63459
1.63033
2.22068
2.85361
-0.28376
-3.57099
-4.58795
-4.45963
-4.06372
-3.47619
1.59495
14.1467
22.1933
20.9155
8.04011
1.22081
-2.24017
-4.8098
-7.19448
-9.45206
-11.4442
-12.7637
-13.262
-13.2528
-12.8962
-12.3398
-11.6054
-10.6809
-9.5866
-8.46127
-7.58318
-7.07963
-6.74274
-6.41682
-6.12408
)
;
    }
    lowerWall
    {
        type            calculated;
        value           nonuniform List<scalar> 
62
(
1518.93
1518.09
1516.7
1514.58
1512.12
1509.28
1505.99
1502.34
1498.42
1494.31
1490.08
1485.81
1481.58
1477.46
1473.5
1469.77
1466.32
1463.15
1460.5
1458.01
1456.28
1454.75
1446.7
1363.2
1176.54
1000.37
827.397
641.665
451.49
261.934
64.1346
42.1945
44.0942
44.9769
43.4249
190.736
110.1
43.4727
15.2811
20.9625
51.9052
74.9393
30.6644
228.217
203.883
153.883
84.2593
104.007
180.721
218.712
187.698
171.169
172.196
185.813
230.137
251.846
245.708
227.37
219.174
279.679
387.286
443.205
)
;
    }
    atmosphere
    {
        type            calculated;
        value           nonuniform List<scalar> 
46
(
-5.80675
-5.81118
-5.8117
-5.81352
-5.81561
-5.81807
-5.82091
-5.82415
-5.82779
-5.83185
-5.83636
-5.84137
-5.84689
-5.85299
-5.8597
-5.8671
-5.87525
-5.88421
-5.89407
-5.90492
-5.91684
-5.92992
-5.94427
-5.96116
-5.98116
-6.00326
-6.02761
-6.0618
-6.11007
-6.16518
-6.227
-6.31232
-6.41531
-6.46076
-6.42054
-6.37606
-6.32924
-6.16556
-5.7987
-7.08811
-14.2503
-20.6809
-21.8692
-17.4258
-5.72914
-5.72914
)
;
    }
    defaultFaces
    {
        type            empty;
    }
}


// ************************************************************************* //
