/*--------------------------------*- C++ -*----------------------------------*\
| =========                 |                                                 |
| \\      /  F ield         | OpenFOAM: The Open Source CFD Toolbox           |
|  \\    /   O peration     | Version:  2206                                  |
|   \\  /    A nd           | Website:  www.openfoam.com                      |
|    \\/     M anipulation  |                                                 |
\*---------------------------------------------------------------------------*/
FoamFile
{
    version     2.0;
    format      ascii;
    arch        "LSB;label=32;scalar=64";
    class       volVectorField;
    location    "0.675";
    object      U;
}
// * * * * * * * * * * * * * * * * * * * * * * * * * * * * * * * * * * * * * //

dimensions      [0 1 -1 0 0 0 0];

internalField   nonuniform List<vector> 
2268
(
(-0.00971695 0.00880657 0)
(-0.00945088 -0.00307689 0)
(-0.00244933 -0.00588686 0)
(0.00136115 -0.00206502 0)
(0.001195 0.0016864 0)
(-0.00235743 0.00387566 0)
(-0.00690461 0.00442095 0)
(-0.011181 0.00408051 0)
(-0.0146613 0.003529 0)
(-0.0173578 0.00312675 0)
(-0.0194195 0.00296652 0)
(-0.0210275 0.00299468 0)
(-0.0222397 0.00305137 0)
(-0.0229866 0.00299289 0)
(-0.0230867 0.00275099 0)
(-0.0224861 0.00212318 0)
(-0.0209055 0.00053382 0)
(-0.017613 -0.00264519 0)
(-0.0100685 -0.0101238 0)
(-0.0011373 -0.0169091 0)
(0.0194861 -0.0353949 0)
(0.0470259 -0.0410186 0)
(0.054737 0.0393075 0)
(-0.0121674 0.0268573 0)
(-0.00852145 -0.00936986 0)
(-0.0056369 -0.0156901 0)
(-0.00221319 -0.00473895 0)
(-0.00375131 0.00601923 0)
(-0.00763814 0.0116632 0)
(-0.0120488 0.0124095 0)
(-0.015666 0.0106068 0)
(-0.0181266 0.00813078 0)
(-0.0195565 0.00583882 0)
(-0.0200591 0.00392178 0)
(-0.0196888 0.00225069 0)
(-0.0184973 0.000593155 0)
(-0.0164565 -0.0012768 0)
(-0.013537 -0.00355022 0)
(-0.00961309 -0.00655198 0)
(-0.00379847 -0.010814 0)
(-0.000292318 -0.0172129 0)
(0.0135199 -0.026542 0)
(0.0132599 -0.0409073 0)
(0.0458886 -0.0609584 0)
(0.0217059 -0.0478413 0)
(0.0420875 0.149766 0)
(-0.0112858 0.0459028 0)
(-0.00971862 -0.0119398 0)
(-0.00989167 -0.0206499 0)
(-0.00819955 -0.00380489 0)
(-0.0104764 0.0119967 0)
(-0.0140498 0.0194619 0)
(-0.0176603 0.0195875 0)
(-0.0204676 0.016047 0)
(-0.0224361 0.0116039 0)
(-0.0236648 0.00746085 0)
(-0.024266 0.00381071 0)
(-0.0243257 0.000486474 0)
(-0.0238575 -0.00269513 0)
(-0.0228913 -0.00594892 0)
(-0.0214495 -0.00957263 0)
(-0.0196675 -0.0139628 0)
(-0.0177686 -0.0197036 0)
(-0.0156675 -0.027933 0)
(-0.0140965 -0.038321 0)
(-0.0160018 -0.0583688 0)
(-0.0106995 -0.0644909 0)
(-0.0362846 0.00623494 0)
(-0.00717351 0.166298 0)
(-0.00957487 0.0651122 0)
(-0.012164 -0.00996305 0)
(-0.0167514 -0.0216085 0)
(-0.0167933 -0.00191878 0)
(-0.0201849 0.0164199 0)
(-0.0233838 0.0241343 0)
(-0.026197 0.0233418 0)
(-0.0281766 0.0186846 0)
(-0.029376 0.013404 0)
(-0.0299046 0.00876596 0)
(-0.0299387 0.00481547 0)
(-0.0296618 0.00121749 0)
(-0.0291658 -0.00232678 0)
(-0.028555 -0.00595512 0)
(-0.0279562 -0.00977749 0)
(-0.0275698 -0.0139951 0)
(-0.0276575 -0.0188115 0)
(-0.0283971 -0.0241201 0)
(-0.0308795 -0.0300665 0)
(-0.0376681 -0.038512 0)
(-0.0506856 -0.0454573 0)
(-0.0566415 -0.0223222 0)
(-0.0259113 0.0578012 0)
(-0.0113601 0.0885959 0)
(-0.0205737 0.00457552 0)
(-0.0275274 -0.0119339 0)
(-0.027816 0.00753238 0)
(-0.0313772 0.0262473 0)
(-0.0341332 0.0325542 0)
(-0.0357659 0.0298753 0)
(-0.0364607 0.0232087 0)
(-0.036551 0.0158605 0)
(-0.0363348 0.00925969 0)
(-0.0359271 0.00379235 0)
(-0.0352294 -0.000665474 0)
(-0.0342096 -0.0044414 0)
(-0.0329985 -0.00789981 0)
(-0.031727 -0.0113246 0)
(-0.0306298 -0.0149474 0)
(-0.029793 -0.0187441 0)
(-0.0292158 -0.0223475 0)
(-0.0293586 -0.025066 0)
(-0.0302178 -0.0274738 0)
(-0.0318692 -0.0338592 0)
(-0.0325984 -0.0394893 0)
(-0.0115396 -0.0116183 0)
(-0.0132706 0.119009 0)
(-0.0295086 0.0191152 0)
(-0.0408781 -0.00887626 0)
(-0.041007 0.00761971 0)
(-0.0445524 0.0256541 0)
(-0.0481787 0.0299118 0)
(-0.0507781 0.0261597 0)
(-0.0519401 0.0195997 0)
(-0.0515154 0.0132471 0)
(-0.0495104 0.00793657 0)
(-0.0467202 0.00288436 0)
(-0.0439967 -0.00258131 0)
(-0.0416569 -0.00794653 0)
(-0.0397546 -0.0127412 0)
(-0.0385672 -0.0168727 0)
(-0.0380351 -0.0204293 0)
(-0.0376131 -0.0235097 0)
(-0.0369619 -0.0261544 0)
(-0.0360329 -0.0280138 0)
(-0.0341493 -0.0291573 0)
(-0.0297869 -0.0354023 0)
(-0.0218797 -0.0511281 0)
(-0.00145097 -0.0301729 0)
(-0.00672508 0.165424 0)
(-0.0275743 0.0567026 0)
(-0.0480168 0.00610891 0)
(-0.0529816 0.018357 0)
(-0.0552669 0.0405833 0)
(-0.0564233 0.0429209 0)
(-0.0562588 0.0343212 0)
(-0.05498 0.0217008 0)
(-0.0533743 0.00868059 0)
(-0.0526175 -0.00169916 0)
(-0.0536831 -0.00737331 0)
(-0.0558155 -0.00885419 0)
(-0.0577114 -0.0087567 0)
(-0.0593107 -0.00797903 0)
(-0.0609215 -0.00704547 0)
(-0.0625679 -0.00795505 0)
(-0.0638173 -0.0115538 0)
(-0.0639319 -0.0163699 0)
(-0.0626447 -0.0218218 0)
(-0.0615563 -0.0317283 0)
(-0.0567447 -0.0543946 0)
(-0.039482 -0.0912271 0)
(-0.0166002 -0.0506889 0)
(0.00987403 0.181216 0)
(0.00165611 0.103019 0)
(-0.0133305 0.0294458 0)
(-0.031138 0.0235541 0)
(-0.0360678 0.0342659 0)
(-0.0390817 0.033198 0)
(-0.0444189 0.0276249 0)
(-0.0490885 0.0197301 0)
(-0.0519381 0.0121123 0)
(-0.0529545 0.00947597 0)
(-0.0549595 0.00967289 0)
(-0.0573816 0.00312403 0)
(-0.058459 -0.00748914 0)
(-0.05697 -0.0161729 0)
(-0.0509367 -0.0227823 0)
(-0.0405317 -0.0302195 0)
(-0.0277727 -0.0390045 0)
(-0.0144456 -0.0477611 0)
(-0.00415782 -0.0563504 0)
(-0.000408094 -0.0666113 0)
(-0.0291637 -0.0881081 0)
(-0.0232223 -0.151077 0)
(-0.0906134 -0.180585 0)
(-0.0498961 0.000313641 0)
(-0.25843 -0.0517973 0)
(-0.567317 -0.126746 0)
(-0.762109 -0.114314 0)
(-0.727534 -0.163527 0)
(-0.337694 -0.293657 0)
(0.250571 -0.369009 0)
(0.607203 -0.183467 0)
(0.720522 -0.0466441 0)
(0.618243 -0.0621953 0)
(0.531922 -0.106973 0)
(0.571447 -0.13904 0)
(0.653711 -0.102614 0)
(0.703813 -0.0231229 0)
(0.840968 -0.00865198 0)
(0.992658 0.0096407 0)
(0.947856 0.084266 0)
(0.47769 0.183251 0)
(-0.0302208 0.0194778 0)
(-0.0863584 0.304349 0)
(-0.499138 0.484359 0)
(-0.959759 0.475372 0)
(-0.881967 0.321608 0)
(-0.241124 -0.389045 0)
(0.491248 -0.96959 0)
(0.902992 -0.906315 0)
(1.1608 -0.434956 0)
(1.1209 0.0514455 0)
(0.945049 0.255431 0)
(0.865155 0.141327 0)
(0.662945 -0.0212466 0)
(0.388833 -0.0107771 0)
(0.486415 -0.220287 0)
(0.847597 -0.402508 0)
(0.960601 -0.0251247 0)
(1.11425 0.367082 0)
(0.938074 0.699542 0)
(0.253787 0.505984 0)
(-0.164003 0.519447 0)
(-0.242932 0.983012 0)
(-0.683804 0.454679 0)
(0.14653 -0.650863 0)
(0.569685 -1.17915 0)
(0.807648 -1.36593 0)
(0.898069 -1.16412 0)
(0.977444 -0.0200163 0)
(0.589818 0.452097 0)
(0.574314 0.208264 0)
(0.358119 0.25051 0)
(0.0527393 0.326095 0)
(-0.0304099 0.165653 0)
(0.0460443 -0.391572 0)
(0.533626 -0.588706 0)
(1.06501 -0.284727 0)
(0.962821 0.610398 0)
(0.754435 1.08953 0)
(0.294279 0.9949 0)
(-0.40133 0.638401 0)
(0.123025 1.33552 0)
(0.14362 -0.190839 0)
(0.627214 -0.984739 0)
(0.778748 -1.31462 0)
(0.802439 -1.4245 0)
(0.773448 -1.29587 0)
(0.486646 -0.0862458 0)
(0.431841 0.43867 0)
(0.230128 0.40381 0)
(-0.205544 0.6783 0)
(-0.661663 0.5329 0)
(-0.364129 -0.380214 0)
(-0.659378 -0.491143 0)
(0.107936 -1.56162 0)
(0.643993 -0.697839 0)
(1.12972 1.23828 0)
(0.459165 1.73523 0)
(0.29242 1.39341 0)
(-0.665825 0.739824 0)
(0.601586 0.873947 0)
(0.670168 -0.392604 0)
(0.7522 -1.05256 0)
(0.779079 -1.3311 0)
(0.729622 -1.40541 0)
(0.52467 -1.12836 0)
(0.201297 0.778824 0)
(0.391814 0.717314 0)
(-0.072666 0.713554 0)
(-0.364516 0.938812 0)
(-0.36152 0.128897 0)
(-1.34238 0.377541 0)
(-0.0874331 -1.59355 0)
(0.329621 -2.12633 0)
(0.530871 -1.61456 0)
(1.35021 1.01217 0)
(0.485454 2.91817 0)
(0.29869 1.65181 0)
(-0.751916 0.672478 0)
(0.790091 0.184273 0)
(0.778373 -0.684293 0)
(0.753845 -1.0915 0)
(0.73387 -1.26212 0)
(0.543987 -1.19151 0)
(0.0908847 -0.577438 0)
(0.00287199 0.692647 0)
(0.222836 0.891986 0)
(-0.308795 1.07205 0)
(-0.479531 1.47455 0)
(-0.891474 1.35624 0)
(-0.442937 -0.0709033 0)
(0.471892 -2.18346 0)
(0.546627 -2.36748 0)
(0.562058 -1.90239 0)
(1.016 -0.116712 0)
(0.39051 3.61788 0)
(0.310163 1.83127 0)
(-0.228599 0.561201 0)
(0.556846 -0.287734 0)
(0.692718 -0.788854 0)
(0.702386 -1.05371 0)
(0.586355 -1.06644 0)
(0.143748 -0.77166 0)
(0.0698386 -0.672431 0)
(0.182082 0.33179 0)
(0.274338 1.09313 0)
(-0.388816 1.29642 0)
(-0.237833 1.25039 0)
(-0.592371 1.14849 0)
(0.509514 -1.48177 0)
(0.685413 -2.33465 0)
(0.660916 -2.37426 0)
(0.602222 -1.99321 0)
(0.810413 0.0397063 0)
(-0.0795597 4.447 0)
(0.361455 1.96193 0)
(0.225953 -0.0899031 0)
(0.54024 -0.496772 0)
(0.650662 -0.848816 0)
(0.532647 -0.951945 0)
(0.20034 -0.724317 0)
(0.0469721 -0.639245 0)
(0.0970848 -0.722282 0)
(0.135837 0.116279 0)
(0.719814 1.39948 0)
(-0.0148643 1.65848 0)
(0.0510163 1.25426 0)
(0.164554 0.700651 0)
(0.695085 -1.73032 0)
(0.690154 -2.34506 0)
(0.644858 -2.35202 0)
(0.55291 -2.05446 0)
(0.833939 0.980039 0)
(-0.219322 4.96477 0)
(0.457027 2.05709 0)
(0.017737 0.151362 0)
(0.0276976 0.110836 0)
(0.0222066 0.0536865 0)
(-0.0104753 0.0547791 0)
(-0.0359247 0.062253 0)
(-0.063333 0.0625091 0)
(-0.0884993 0.053461 0)
(-0.109499 0.0333298 0)
(-0.1125 0.0125738 0)
(-0.0806437 0.00160088 0)
(-0.0431702 -0.000216674 0)
(-0.00126602 -0.00240486 0)
(0.0457164 -0.00936803 0)
(0.103513 -0.0207894 0)
(0.172187 -0.0352711 0)
(0.249437 -0.0488116 0)
(0.331124 -0.0591261 0)
(0.411321 -0.065182 0)
(0.462077 -0.0273913 0)
(0.410022 0.0392815 0)
(-0.102 0.0732382 0)
(-0.0558098 -0.0348245 0)
(-0.224353 -0.156814 0)
(0.00127751 0.140574 0)
(-0.00175812 0.118433 0)
(-0.0361235 0.098859 0)
(-0.0821749 0.100893 0)
(-0.10256 0.0958935 0)
(-0.103369 0.0854771 0)
(-0.0829668 0.0710748 0)
(-0.0357445 0.0430271 0)
(0.0869258 -0.0111195 0)
(0.344736 -0.0550423 0)
(0.429175 -0.0647407 0)
(0.357336 -0.0620038 0)
(0.337884 -0.083268 0)
(0.338175 -0.114306 0)
(0.325343 -0.140825 0)
(0.302833 -0.158245 0)
(0.269507 -0.168171 0)
(0.225051 -0.152705 0)
(0.189776 -0.0125518 0)
(0.266254 0.201477 0)
(0.303924 0.464286 0)
(0.372234 -0.00126285 0)
(0.0602425 -0.108467 0)
(-0.0291446 0.159581 0)
(-0.0452013 0.147832 0)
(-0.0552812 0.136017 0)
(-0.0383236 0.120846 0)
(0.00298041 0.0940925 0)
(0.139594 0.0666443 0)
(-0.0829569 0.0232299 0)
(-0.026387 -0.120089 0)
(-0.0132185 -0.476995 0)
(-0.00707213 -0.0987725 0)
(0.11315 -0.115847 0)
(0.169031 -0.0661071 0)
(0.222711 -0.0511059 0)
(0.256259 -0.061754 0)
(0.263702 -0.0702203 0)
(0.253232 -0.0691791 0)
(0.232234 -0.0581725 0)
(0.206954 -0.0350275 0)
(0.189873 0.00157402 0)
(0.220126 0.0523847 0)
(0.332876 0.152948 0)
(0.473514 0.088978 0)
(0.500194 0.128061 0)
(-0.0425062 0.183599 0)
(-0.0590249 0.127702 0)
(-0.0853131 0.113045 0)
(-0.152401 0.0553851 0)
(-0.201356 -0.124883 0)
(-0.0931397 0.193412 0)
(-0.0185227 0.0967618 0)
(0.144898 -0.107351 0)
(0.180624 -0.202844 0)
(0.171302 -0.193832 0)
(0.212062 -0.178478 0)
(0.235983 -0.146776 0)
(0.252372 -0.116671 0)
(0.259922 -0.0959421 0)
(0.255533 -0.0819174 0)
(0.244799 -0.0716226 0)
(0.23385 -0.0619271 0)
(0.227565 -0.0483458 0)
(0.233375 -0.0259488 0)
(0.255761 0.0032045 0)
(0.312867 0.0193718 0)
(0.371995 -0.0265834 0)
(0.436578 -0.0661647 0)
(-0.0955688 0.288069 0)
(-0.17716 0.171629 0)
(-0.217067 0.207356 0)
(-0.161008 0.105189 0)
(-0.124131 -0.00441984 0)
(-0.0348504 -0.0676228 0)
(0.125358 -0.166366 0)
(0.197452 -0.241587 0)
(0.200662 -0.275339 0)
(0.189719 -0.229151 0)
(0.189831 -0.183485 0)
(0.193679 -0.142028 0)
(0.198063 -0.109708 0)
(0.201747 -0.089503 0)
(0.203779 -0.0770392 0)
(0.20557 -0.0682631 0)
(0.209203 -0.0604787 0)
(0.216966 -0.051706 0)
(0.23214 -0.041336 0)
(0.257948 -0.0326549 0)
(0.29762 -0.0291744 0)
(0.340518 -0.0500153 0)
(0.378513 -0.0754854 0)
(-0.0650935 0.424296 0)
(-0.104894 0.286114 0)
(-0.140073 0.152675 0)
(-0.051621 -0.012367 0)
(-0.00518834 -0.132027 0)
(0.0568468 -0.159286 0)
(0.120787 -0.204922 0)
(0.15688 -0.239975 0)
(0.167483 -0.24381 0)
(0.166621 -0.216812 0)
(0.166043 -0.179925 0)
(0.167855 -0.144218 0)
(0.17175 -0.114341 0)
(0.177324 -0.0927016 0)
(0.18387 -0.0787519 0)
(0.191682 -0.0707757 0)
(0.201734 -0.066781 0)
(0.215216 -0.0648835 0)
(0.233472 -0.0642097 0)
(0.257291 -0.0659667 0)
(0.286426 -0.0730727 0)
(0.31682 -0.0913238 0)
(0.344057 -0.116687 0)
(-0.0133636 0.474426 0)
(-0.0130954 0.335453 0)
(-0.0345396 0.117691 0)
(0.00112923 -0.0516487 0)
(0.0170024 -0.148016 0)
(0.0609899 -0.212426 0)
(0.110023 -0.256948 0)
(0.143118 -0.271597 0)
(0.155183 -0.25735 0)
(0.153849 -0.223372 0)
(0.149234 -0.183486 0)
(0.147027 -0.147558 0)
(0.148952 -0.119814 0)
(0.155067 -0.101305 0)
(0.164721 -0.0907553 0)
(0.177299 -0.0859738 0)
(0.192415 -0.0849096 0)
(0.209886 -0.0860965 0)
(0.229718 -0.088996 0)
(0.251795 -0.0942071 0)
(0.27551 -0.103055 0)
(0.298963 -0.11731 0)
(0.319776 -0.136324 0)
(0.00986224 0.449658 0)
(0.0254489 0.342303 0)
(0.010809 0.115329 0)
(0.00557332 -0.0550466 0)
(0.0314984 -0.184783 0)
(0.0746901 -0.266137 0)
(0.111937 -0.29639 0)
(0.131996 -0.287818 0)
(0.135338 -0.256285 0)
(0.13 -0.216031 0)
(0.124435 -0.177486 0)
(0.1234 -0.146371 0)
(0.12814 -0.124278 0)
(0.138067 -0.110635 0)
(0.151911 -0.103824 0)
(0.168401 -0.101924 0)
(0.186558 -0.103235 0)
(0.205744 -0.10655 0)
(0.225578 -0.111334 0)
(0.245718 -0.117766 0)
(0.265609 -0.126515 0)
(0.28418 -0.138402 0)
(0.300214 -0.153468 0)
(0.000692157 0.426926 0)
(0.00944917 0.328696 0)
(-0.00653624 0.12013 0)
(0.0026108 -0.0743179 0)
(0.0420557 -0.228519 0)
(0.0809354 -0.307693 0)
(0.106384 -0.320761 0)
(0.115343 -0.294222 0)
(0.11284 -0.252279 0)
(0.10692 -0.210433 0)
(0.103934 -0.176055 0)
(0.106777 -0.151233 0)
(0.115634 -0.135297 0)
(0.12933 -0.126541 0)
(0.146257 -0.123032 0)
(0.164913 -0.123004 0)
(0.184165 -0.125108 0)
(0.203293 -0.128522 0)
(0.221895 -0.132966 0)
(0.239705 -0.138618 0)
(0.256405 -0.145905 0)
(0.271427 -0.155254 0)
(0.284167 -0.166718 0)
(-0.017376 0.437555 0)
(-0.0248733 0.331713 0)
(-0.0326471 0.11531 0)
(0.00296239 -0.113241 0)
(0.0466707 -0.274137 0)
(0.0801607 -0.340209 0)
(0.096344 -0.334259 0)
(0.0977731 -0.293447 0)
(0.0926505 -0.246221 0)
(0.0886321 -0.206618 0)
(0.0899365 -0.178323 0)
(0.09751 -0.160232 0)
(0.1104 -0.149883 0)
(0.126932 -0.144893 0)
(0.145402 -0.143359 0)
(0.164435 -0.143915 0)
(0.183113 -0.145704 0)
(0.200939 -0.148321 0)
(0.217695 -0.151719 0)
(0.233264 -0.156089 0)
(0.247491 -0.161716 0)
(0.26004 -0.168832 0)
(0.270573 -0.177446 0)
(-0.0273676 0.474075 0)
(-0.0424107 0.343099 0)
(-0.0369274 0.0920154 0)
(0.00866213 -0.159837 0)
(0.0501131 -0.316113 0)
(0.0764579 -0.363349 0)
(0.0848989 -0.339102 0)
(0.0819625 -0.288911 0)
(0.0772195 -0.241659 0)
(0.0769387 -0.207515 0)
(0.0830517 -0.186173 0)
(0.0948198 -0.17411 0)
(0.110502 -0.167903 0)
(0.128287 -0.165098 0)
(0.146709 -0.164166 0)
(0.164782 -0.164268 0)
(0.181967 -0.165032 0)
(0.198047 -0.166387 0)
(0.212968 -0.16844 0)
(0.226693 -0.171371 0)
(0.239121 -0.17535 0)
(0.250007 -0.180468 0)
(0.259126 -0.186673 0)
(-0.0243468 0.513499 0)
(-0.0365136 0.350584 0)
(-0.0251504 0.0621959 0)
(0.0192101 -0.204533 0)
(0.0544373 -0.350963 0)
(0.072663 -0.377931 0)
(0.075082 -0.338448 0)
(0.0705368 -0.283906 0)
(0.0681738 -0.240516 0)
(0.072119 -0.213313 0)
(0.0822566 -0.198425 0)
(0.0967319 -0.190858 0)
(0.113522 -0.187029 0)
(0.131046 -0.184912 0)
(0.148296 -0.183568 0)
(0.164751 -0.182686 0)
(0.180224 -0.182259 0)
(0.194687 -0.182397 0)
(0.208149 -0.183233 0)
(0.220566 -0.184875 0)
(0.231819 -0.187379 0)
(0.241681 -0.190743 0)
(0.249974 -0.194886 0)
(-0.0110513 0.53914 0)
(-0.01961 0.354243 0)
(-0.00746055 0.0338621 0)
(0.0321763 -0.243439 0)
(0.0594683 -0.377276 0)
(0.0702457 -0.385214 0)
(0.0686284 -0.334876 0)
(0.0644958 -0.280508 0)
(0.0653399 -0.243399 0)
(0.0729304 -0.223242 0)
(0.0856418 -0.213511 0)
(0.101142 -0.208716 0)
(0.117592 -0.205765 0)
(0.133886 -0.203356 0)
(0.14952 -0.201166 0)
(0.164352 -0.199271 0)
(0.178394 -0.197839 0)
(0.191675 -0.197003 0)
(0.204169 -0.196835 0)
(0.215778 -0.197351 0)
(0.226345 -0.198531 0)
(0.235647 -0.200323 0)
(0.243533 -0.202649 0)
(0.00326861 0.544742 0)
(-0.00440475 0.356025 0)
(0.0104044 0.00754041 0)
(0.0445009 -0.276073 0)
(0.064784 -0.395608 0)
(0.0696674 -0.387223 0)
(0.0659542 -0.330617 0)
(0.0634843 -0.279801 0)
(0.0674609 -0.249871 0)
(0.0775742 -0.235824 0)
(0.0913598 -0.22962 0)
(0.106565 -0.226106 0)
(0.121832 -0.223072 0)
(0.13659 -0.219992 0)
(0.150726 -0.217001 0)
(0.164301 -0.214357 0)
(0.177368 -0.212231 0)
(0.189913 -0.210684 0)
(0.201843 -0.2097 0)
(0.213008 -0.209228 0)
(0.223228 -0.209206 0)
(0.232282 -0.209568 0)
(0.240024 -0.210242 0)
(0.00876218 0.537197 0)
(0.00372563 0.352662 0)
(0.0249198 -0.0192511 0)
(0.0544507 -0.303325 0)
(0.0696266 -0.407675 0)
(0.070689 -0.386113 0)
(0.0665424 -0.327187 0)
(0.0662836 -0.281961 0)
(0.0727959 -0.258969 0)
(0.0842652 -0.249617 0)
(0.0980016 -0.24545 0)
(0.112193 -0.242225 0)
(0.126056 -0.238729 0)
(0.139449 -0.235048 0)
(0.152472 -0.23155 0)
(0.16522 -0.228485 0)
(0.177697 -0.225933 0)
(0.189819 -0.223861 0)
(0.201443 -0.222189 0)
(0.212395 -0.22083 0)
(0.222486 -0.219703 0)
(0.231494 -0.218734 0)
(0.239248 -0.21784 0)
(0.00692992 0.527435 0)
(0.0072396 0.340884 0)
(0.034917 -0.0480531 0)
(0.0624198 -0.327027 0)
(0.0740893 -0.415646 0)
(0.0730424 -0.383721 0)
(0.0695603 -0.325396 0)
(0.0715122 -0.286633 0)
(0.0797782 -0.269672 0)
(0.0916717 -0.26356 0)
(0.104718 -0.260314 0)
(0.117693 -0.256893 0)
(0.130313 -0.252957 0)
(0.142694 -0.248952 0)
(0.154981 -0.245262 0)
(0.167219 -0.24203 0)
(0.179343 -0.239227 0)
(0.191226 -0.236753 0)
(0.202711 -0.234495 0)
(0.213619 -0.232344 0)
(0.223757 -0.230203 0)
(0.232894 -0.227972 0)
(0.240812 -0.225546 0)
(0.00328732 0.519018 0)
(0.0106948 0.321491 0)
(0.0431735 -0.0784383 0)
(0.0697606 -0.348442 0)
(0.0788227 -0.421134 0)
(0.0766281 -0.381153 0)
(0.0742692 -0.325402 0)
(0.0780695 -0.293196 0)
(0.0873232 -0.281112 0)
(0.0989989 -0.27701 0)
(0.111084 -0.274001 0)
(0.122928 -0.270279 0)
(0.134591 -0.266124 0)
(0.146277 -0.262089 0)
(0.158091 -0.258448 0)
(0.170008 -0.255214 0)
(0.181926 -0.252282 0)
(0.193709 -0.249517 0)
(0.205208 -0.246784 0)
(0.216249 -0.243956 0)
(0.226636 -0.240906 0)
(0.236131 -0.237486 0)
(0.24446 -0.233565 0)
(0.00158491 0.509788 0)
(0.0166648 0.296984 0)
(0.0524838 -0.109845 0)
(0.0781694 -0.368034 0)
(0.0845899 -0.424785 0)
(0.0814238 -0.378713 0)
(0.0801287 -0.326909 0)
(0.0852307 -0.300953 0)
(0.0948056 -0.29262 0)
(0.105854 -0.289623 0)
(0.116921 -0.286541 0)
(0.127819 -0.28264 0)
(0.138783 -0.278537 0)
(0.149999 -0.274714 0)
(0.161504 -0.271289 0)
(0.17323 -0.268179 0)
(0.185068 -0.265236 0)
(0.1969 -0.262312 0)
(0.20859 -0.25925 0)
(0.219975 -0.255892 0)
(0.230867 -0.25208 0)
(0.241028 -0.247592 0)
(0.25016 -0.242283 0)
(0.00241924 0.496137 0)
(0.0254284 0.268389 0)
(0.0643551 -0.141808 0)
(0.0886063 -0.385448 0)
(0.0917161 -0.426355 0)
(0.0872622 -0.376125 0)
(0.0866955 -0.329393 0)
(0.0925168 -0.309241 0)
(0.101876 -0.303697 0)
(0.112058 -0.301239 0)
(0.122161 -0.298053 0)
(0.132305 -0.294213 0)
(0.142766 -0.29042 0)
(0.153664 -0.286993 0)
(0.164978 -0.283919 0)
(0.176629 -0.281058 0)
(0.188523 -0.278248 0)
(0.200562 -0.275329 0)
(0.212632 -0.27212 0)
(0.22459 -0.268429 0)
(0.236278 -0.264065 0)
(0.247475 -0.258726 0)
(0.257916 -0.25226 0)
(0.00457949 0.475564 0)
(0.035853 0.234625 0)
(0.0785581 -0.174307 0)
(0.100719 -0.399911 0)
(0.0997746 -0.425171 0)
(0.0936835 -0.372937 0)
(0.0935004 -0.332334 0)
(0.0995382 -0.317507 0)
(0.108295 -0.314003 0)
(0.117514 -0.311822 0)
(0.126768 -0.308694 0)
(0.136333 -0.305193 0)
(0.146439 -0.301931 0)
(0.157128 -0.299053 0)
(0.168351 -0.296459 0)
(0.180035 -0.293991 0)
(0.192109 -0.291479 0)
(0.204501 -0.288758 0)
(0.217122 -0.285619 0)
(0.22987 -0.281853 0)
(0.242642 -0.277236 0)
(0.255249 -0.271392 0)
(0.26755 -0.264156 0)
(0.00670907 0.447467 0)
(0.0465464 0.193516 0)
(0.0936213 -0.207624 0)
(0.113047 -0.410645 0)
(0.107706 -0.42069 0)
(0.0999838 -0.368902 0)
(0.100016 -0.335378 0)
(0.105916 -0.325362 0)
(0.113854 -0.32336 0)
(0.122138 -0.321435 0)
(0.130696 -0.318633 0)
(0.139835 -0.315741 0)
(0.149695 -0.313192 0)
(0.160261 -0.310997 0)
(0.171473 -0.309016 0)
(0.183277 -0.307094 0)
(0.195623 -0.305062 0)
(0.208475 -0.302752 0)
(0.221772 -0.299942 0)
(0.235486 -0.296425 0)
(0.249574 -0.291946 0)
(0.263917 -0.286089 0)
(0.278573 -0.278651 0)
(0.00809041 0.412703 0)
(0.0567842 0.143762 0)
(0.107703 -0.241685 0)
(0.123693 -0.417096 0)
(0.114239 -0.412897 0)
(0.105409 -0.364191 0)
(0.105713 -0.338401 0)
(0.111287 -0.332602 0)
(0.118358 -0.33175 0)
(0.125834 -0.330224 0)
(0.133868 -0.328044 0)
(0.142708 -0.325985 0)
(0.152403 -0.324294 0)
(0.162906 -0.322902 0)
(0.17416 -0.321666 0)
(0.186137 -0.320446 0)
(0.198805 -0.319081 0)
(0.212176 -0.317409 0)
(0.226217 -0.315222 0)
(0.241004 -0.312323 0)
(0.256528 -0.308449 0)
(0.272813 -0.303196 0)
(0.290114 -0.296305 0)
(0.00902424 0.372438 0)
(0.0666376 0.0859507 0)
(0.119228 -0.275651 0)
(0.131034 -0.418977 0)
(0.11835 -0.402426 0)
(0.109365 -0.359371 0)
(0.11014 -0.341463 0)
(0.115336 -0.339183 0)
(0.121631 -0.339285 0)
(0.128495 -0.338382 0)
(0.136172 -0.337086 0)
(0.144812 -0.336025 0)
(0.1544 -0.335301 0)
(0.164876 -0.334817 0)
(0.176201 -0.33445 0)
(0.188368 -0.33408 0)
(0.201369 -0.333568 0)
(0.215267 -0.332768 0)
(0.230058 -0.331507 0)
(0.245925 -0.329607 0)
(0.262863 -0.326825 0)
(0.281105 -0.322826 0)
(0.300976 -0.317314 0)
(0.0106902 0.327309 0)
(0.076088 0.0217796 0)
(0.12718 -0.307765 0)
(0.134154 -0.416288 0)
(0.119539 -0.390455 0)
(0.111514 -0.355202 0)
(0.112978 -0.344704 0)
(0.117837 -0.345188 0)
(0.123546 -0.346163 0)
(0.130014 -0.346115 0)
(0.137477 -0.345893 0)
(0.145994 -0.345934 0)
(0.155512 -0.346254 0)
(0.16598 -0.346764 0)
(0.177379 -0.347376 0)
(0.189725 -0.347993 0)
(0.203038 -0.34851 0)
(0.217424 -0.348805 0)
(0.232908 -0.348756 0)
(0.249762 -0.3482 0)
(0.267958 -0.346956 0)
(0.287973 -0.344772 0)
(0.309973 -0.341378 0)
(0.0142196 0.277088 0)
(0.0842357 -0.0453752 0)
(0.130879 -0.335844 0)
(0.132832 -0.409526 0)
(0.117844 -0.378499 0)
(0.111764 -0.35239 0)
(0.114044 -0.348256 0)
(0.118672 -0.350779 0)
(0.12403 -0.352627 0)
(0.130305 -0.353616 0)
(0.137669 -0.354573 0)
(0.146114 -0.355764 0)
(0.155584 -0.357173 0)
(0.166046 -0.358746 0)
(0.177502 -0.360428 0)
(0.189992 -0.362154 0)
(0.203565 -0.363856 0)
(0.218356 -0.365442 0)
(0.234423 -0.366844 0)
(0.252079 -0.367918 0)
(0.271299 -0.368568 0)
(0.292754 -0.368618 0)
(0.316316 -0.367893 0)
(0.0196745 0.221291 0)
(0.0899296 -0.112131 0)
(0.129999 -0.358069 0)
(0.127436 -0.399785 0)
(0.113708 -0.368097 0)
(0.110194 -0.351395 0)
(0.113295 -0.352203 0)
(0.117835 -0.356159 0)
(0.123076 -0.358915 0)
(0.129321 -0.361041 0)
(0.136665 -0.3632 0)
(0.14507 -0.365543 0)
(0.154497 -0.368065 0)
(0.164938 -0.370746 0)
(0.176416 -0.373569 0)
(0.188992 -0.376503 0)
(0.202742 -0.379515 0)
(0.21781 -0.382549 0)
(0.234294 -0.385581 0)
(0.252505 -0.388505 0)
(0.272461 -0.391312 0)
(0.29492 -0.393894 0)
(0.319544 -0.396226 0)
(0.0259039 0.160342 0)
(0.0922485 -0.175223 0)
(0.124567 -0.373506 0)
(0.118773 -0.388732 0)
(0.107764 -0.360496 0)
(0.106974 -0.352353 0)
(0.110812 -0.356584 0)
(0.115421 -0.361533 0)
(0.120737 -0.365223 0)
(0.127061 -0.368496 0)
(0.134427 -0.371818 0)
(0.142803 -0.375284 0)
(0.152176 -0.378914 0)
(0.162562 -0.382727 0)
(0.174007 -0.386738 0)
(0.186585 -0.390947 0)
(0.200393 -0.395354 0)
(0.215571 -0.399941 0)
(0.232251 -0.40472 0)
(0.250718 -0.409643 0)
(0.271062 -0.414777 0)
(0.294006 -0.42009 0)
(0.319192 -0.425725 0)
(0.0312939 0.0960911 0)
(0.090801 -0.231858 0)
(0.11518 -0.382409 0)
(0.107974 -0.378316 0)
(0.100651 -0.356383 0)
(0.102326 -0.355108 0)
(0.106784 -0.361413 0)
(0.111601 -0.367076 0)
(0.117117 -0.371682 0)
(0.123569 -0.376035 0)
(0.130967 -0.38044 0)
(0.139301 -0.384973 0)
(0.148589 -0.389686 0)
(0.158869 -0.39463 0)
(0.170202 -0.399844 0)
(0.18267 -0.405358 0)
(0.196379 -0.411198 0)
(0.211462 -0.417382 0)
(0.228072 -0.423957 0)
(0.246454 -0.430945 0)
(0.266767 -0.438477 0)
(0.289605 -0.44659 0)
(0.314733 -0.455585 0)
(0.0346457 0.0313327 0)
(0.0859066 -0.280193 0)
(0.102993 -0.386077 0)
(0.0962673 -0.37026 0)
(0.0928898 -0.35579 0)
(0.0965113 -0.359323 0)
(0.101478 -0.366686 0)
(0.10659 -0.372896 0)
(0.112351 -0.378346 0)
(0.118929 -0.383664 0)
(0.126335 -0.389045 0)
(0.134594 -0.394573 0)
(0.143746 -0.400324 0)
(0.153847 -0.40637 0)
(0.164966 -0.41277 0)
(0.177188 -0.419575 0)
(0.190617 -0.426832 0)
(0.205374 -0.434596 0)
(0.221617 -0.442945 0)
(0.239546 -0.451967 0)
(0.259358 -0.46184 0)
(0.281463 -0.472657 0)
(0.305801 -0.484818 0)
(0.0356757 -0.0313274 0)
(0.0784689 -0.319461 0)
(0.0894397 -0.386374 0)
(0.0846945 -0.365604 0)
(0.084852 -0.358209 0)
(0.0898216 -0.364611 0)
(0.0951943 -0.372381 0)
(0.100616 -0.379026 0)
(0.106598 -0.385205 0)
(0.113255 -0.391347 0)
(0.120621 -0.397591 0)
(0.128748 -0.404029 0)
(0.137695 -0.410752 0)
(0.147526 -0.417844 0)
(0.158313 -0.425376 0)
(0.170135 -0.433413 0)
(0.183089 -0.442021 0)
(0.197282 -0.451285 0)
(0.21286 -0.461312 0)
(0.22997 -0.472238 0)
(0.248811 -0.484257 0)
(0.269591 -0.497511 0)
(0.292412 -0.512401 0)
(0.0347668 -0.0900035 0)
(0.0695964 -0.349873 0)
(0.0758471 -0.385174 0)
(0.0739255 -0.364544 0)
(0.0767723 -0.362849 0)
(0.0825529 -0.370612 0)
(0.0882248 -0.378436 0)
(0.0939001 -0.385423 0)
(0.100023 -0.392193 0)
(0.106683 -0.399019 0)
(0.113939 -0.40601 0)
(0.121861 -0.413263 0)
(0.130518 -0.420874 0)
(0.139976 -0.428929 0)
(0.150303 -0.437506 0)
(0.16157 -0.446679 0)
(0.173862 -0.456529 0)
(0.187269 -0.467161 0)
(0.20191 -0.478701 0)
(0.217882 -0.49131 0)
(0.235348 -0.505169 0)
(0.254345 -0.520463 0)
(0.275066 -0.537489 0)
(0.032529 -0.143548 0)
(0.0602833 -0.372321 0)
(0.0631654 -0.383951 0)
(0.0642358 -0.366598 0)
(0.0688023 -0.368885 0)
(0.0749752 -0.377018 0)
(0.080821 -0.384738 0)
(0.0866384 -0.391979 0)
(0.0927909 -0.399205 0)
(0.0993592 -0.406584 0)
(0.106418 -0.41421 0)
(0.114049 -0.422177 0)
(0.122321 -0.430578 0)
(0.131297 -0.439494 0)
(0.141039 -0.449004 0)
(0.15161 -0.459189 0)
(0.163078 -0.470141 0)
(0.175517 -0.481972 0)
(0.18901 -0.494815 0)
(0.20361 -0.50883 0)
(0.21942 -0.524171 0)
(0.23638 -0.541041 0)
(0.254671 -0.559608 0)
(0.0296 -0.191324 0)
(0.0513109 -0.38811 0)
(0.051917 -0.383626 0)
(0.0556192 -0.37093 0)
(0.0610468 -0.375611 0)
(0.0673066 -0.383576 0)
(0.07318 -0.391138 0)
(0.0789973 -0.39855 0)
(0.0850517 -0.406112 0)
(0.0914198 -0.413931 0)
(0.0981851 -0.422087 0)
(0.105428 -0.430665 0)
(0.113216 -0.439747 0)
(0.121606 -0.44941 0)
(0.130653 -0.459731 0)
(0.140411 -0.470792 0)
(0.150933 -0.482689 0)
(0.162275 -0.495533 0)
(0.174483 -0.50945 0)
(0.187581 -0.524582 0)
(0.201611 -0.541059 0)
(0.216484 -0.559065 0)
(0.232302 -0.578685 0)
(0.0263735 -0.233126 0)
(0.0431253 -0.398638 0)
(0.0422964 -0.384587 0)
(0.047941 -0.376643 0)
(0.053576 -0.382495 0)
(0.0596972 -0.390067 0)
(0.0654394 -0.397464 0)
(0.0711023 -0.404976 0)
(0.0769245 -0.412778 0)
(0.082978 -0.420939 0)
(0.0893458 -0.429527 0)
(0.0961035 -0.438612 0)
(0.103312 -0.448266 0)
(0.111022 -0.45856 0)
(0.119284 -0.469567 0)
(0.128142 -0.481367 0)
(0.137637 -0.494052 0)
(0.147806 -0.507725 0)
(0.158669 -0.522499 0)
(0.170234 -0.538491 0)
(0.182496 -0.555812 0)
(0.195382 -0.574602 0)
(0.208905 -0.594927 0)
(0.0230968 -0.269177 0)
(0.0358982 -0.405171 0)
(0.0342365 -0.386791 0)
(0.0410352 -0.382952 0)
(0.046426 -0.38916 0)
(0.0522273 -0.396298 0)
(0.0576786 -0.403539 0)
(0.0630343 -0.411093 0)
(0.0684913 -0.419059 0)
(0.0741149 -0.42748 0)
(0.0799813 -0.436409 0)
(0.0861585 -0.445906 0)
(0.0927006 -0.45603 0)
(0.0996546 -0.466846 0)
(0.107063 -0.478421 0)
(0.114962 -0.490831 0)
(0.123384 -0.504159 0)
(0.13235 -0.518497 0)
(0.141868 -0.533944 0)
(0.151934 -0.550593 0)
(0.162528 -0.568538 0)
(0.173593 -0.587878 0)
(0.185097 -0.608679 0)
(0.0199359 -0.299914 0)
(0.02962 -0.408801 0)
(0.0275061 -0.38993 0)
(0.03474 -0.389274 0)
(0.0395979 -0.395376 0)
(0.0449183 -0.402125 0)
(0.0499279 -0.409221 0)
(0.0548349 -0.41678 0)
(0.0598017 -0.424852 0)
(0.0648857 -0.433466 0)
(0.0701537 -0.442661 0)
(0.0756649 -0.452485 0)
(0.0814675 -0.462989 0)
(0.0876028 -0.47423 0)
(0.0941073 -0.486269 0)
(0.101011 -0.499175 0)
(0.108338 -0.513022 0)
(0.116102 -0.527892 0)
(0.124305 -0.543867 0)
(0.132941 -0.561026 0)
(0.141988 -0.579445 0)
(0.151405 -0.599195 0)
(0.161151 -0.620337 0)
(0.0169516 -0.325894 0)
(0.0241788 -0.410436 0)
(0.021827 -0.393608 0)
(0.0288893 -0.395231 0)
(0.033059 -0.40103 0)
(0.037753 -0.407463 0)
(0.0421875 -0.414432 0)
(0.0465226 -0.421973 0)
(0.050889 -0.430112 0)
(0.0553371 -0.438866 0)
(0.0599229 -0.448265 0)
(0.0646968 -0.458346 0)
(0.0697002 -0.469153 0)
(0.0749691 -0.480734 0)
(0.0805341 -0.493147 0)
(0.0864199 -0.506452 0)
(0.0926449 -0.520716 0)
(0.0992201 -0.536009 0)
(0.106148 -0.552402 0)
(0.113421 -0.569963 0)
(0.121025 -0.588754 0)
(0.128928 -0.608828 0)
(0.137102 -0.630235 0)
(0.0140811 -0.347546 0)
(0.0193869 -0.410666 0)
(0.0169526 -0.397369 0)
(0.023335 -0.400489 0)
(0.0267596 -0.405957 0)
(0.0307053 -0.412151 0)
(0.0344546 -0.419012 0)
(0.0381174 -0.426527 0)
(0.0417944 -0.434708 0)
(0.0455288 -0.443564 0)
(0.0493656 -0.453117 0)
(0.0533459 -0.463397 0)
(0.0575043 -0.47444 0)
(0.0618706 -0.486291 0)
(0.0664702 -0.499 0)
(0.0713235 -0.512621 0)
(0.076446 -0.527214 0)
(0.0818472 -0.542841 0)
(0.0875303 -0.559565 0)
(0.0934912 -0.577443 0)
(0.0997207 -0.596527 0)
(0.106197 -0.616863 0)
(0.112909 -0.638485 0)
(0.0111941 -0.364901 0)
(0.0150178 -0.409625 0)
(0.0126942 -0.40054 0)
(0.0179784 -0.404515 0)
(0.020652 -0.409726 0)
(0.0237592 -0.415753 0)
(0.0267393 -0.422531 0)
(0.0296548 -0.430024 0)
(0.0325758 -0.438234 0)
(0.0355379 -0.447166 0)
(0.0385752 -0.456836 0)
(0.0417191 -0.467269 0)
(0.0449971 -0.478497 0)
(0.0484329 -0.490559 0)
(0.0520472 -0.503501 0)
(0.0558568 -0.517372 0)
(0.0598746 -0.532226 0)
(0.0641092 -0.548121 0)
(0.0685642 -0.56511 0)
(0.0732387 -0.583247 0)
(0.0781285 -0.602577 0)
(0.0832226 -0.62314 0)
(0.0885216 -0.644966 0)
(0.0082142 -0.377752 0)
(0.0108837 -0.407225 0)
(0.00889597 -0.402386 0)