/*--------------------------------*- C++ -*----------------------------------*\
| =========                 |                                                 |
| \\      /  F ield         | OpenFOAM: The Open Source CFD Toolbox           |
|  \\    /   O peration     | Version:  2206                                  |
|   \\  /    A nd           | Website:  www.openfoam.com                      |
|    \\/     M anipulation  |                                                 |
\*---------------------------------------------------------------------------*/
FoamFile
{
    version     2.0;
    format      ascii;
    arch        "LSB;label=32;scalar=64";
    class       volScalarField;
    location    "0.675";
    object      alpha.water;
}
// * * * * * * * * * * * * * * * * * * * * * * * * * * * * * * * * * * * * * //

dimensions      [0 0 0 0 0 0 0];

internalField   nonuniform List<scalar> 
2268
(
1
1
1
1
1
1
1
1
1
1
1
1
1
1
1
1
0.999925
0.96893
0.939403
0.963677
0.998215
0.998225
0.998173
1
1
1
1
1
1
1
1
1
1
1
1
1
1
1
1
1
0.992441
0.946586
0.938227
0.972173
0.984148
0.995754
1
1
1
1
1
1
1
1
1
1
1
1
1
1
1
1
1
0.999999
0.993181
0.938108
0.934941
0.934941
0.990651
1
1
1
1
1
1
1
1
1
1
1
1
1
1
1
1
1
1
0.999999
0.99305
0.935212
0.940572
0.99414
1
1
1
1
1
1
1
1
1
1
1
1
1
1
1
1
1
1
1
0.999999
0.973526
0.998619
0.999996
1
1
1
1
1
1
1
1
1
1
1
1
1
1
1
1
1
1
1
1
1
1
0.999997
1
1
1
1
0.999999
0.999994
0.999994
0.999999
1
1
1
1
1
1
1
1
1
1
1
1
1
1
0.999952
0.961674
0.923691
0.891039
0.861505
0.861083
0.87651
0.930806
0.992475
1
1
1
1
1
1
1
1
1
1
1
1
1
1
0.999952
0.851513
0.999962
0.999963
0.999965
0.999937
0.843734
0.583123
0.574785
0.78087
0.885304
0.885365
0.885373
0.885544
0.886114
0.886539
0.887402
0.888166
0.887878
0.801505
0.924444
0.999963
0.999965
0.999966
0.999966
0.999966
0.890457
0.628257
0.881736
0.885173
0.882784
0.780407
0.779197
0.82642
0.863497
0.887211
0.890938
0.894157
0.894214
0.86462
0.999962
0.9994
0.999965
0.999966
0.999966
0.906603
0.878142
0.87869
0.56253
0.173862
0.110298
0.111011
0.168375
0.265254
0.463243
0.722412
0.894421
0.894421
0.487849
0.902291
0.994952
0.999953
0.999964
0.999966
0.854927
0.878148
0.738033
0.01692
0.00169428
0.00018757
0.000216964
0.000662239
0.00238997
0.00881584
0.177644
0.829918
0.894421
0.469037
0.651476
0.987251
0.999799
0.999946
0.999962
0.892449
0.893958
0.54118
0.00188405
0.000179455
6.60865e-05
7.5163e-05
0.000154171
0.000587358
0.00237669
0.00878856
0.368716
0.89433
0.470043
0.767323
0.995156
0.998868
0.999736
0.999944
0.998252
0.800548
0.338427
0.000377517
6.31508e-05
5.33294e-05
5.47338e-05
6.34504e-05
0.000132732
0.000589651
0.00294358
0.193091
0.89368
0.71529
0.972291
0.996067
0.997316
0.948506
0.973705
0.996146
0.74054
0.172035
0.000114648
5.32562e-05
5.23468e-05
5.29144e-05
5.47264e-05
6.43264e-05
0.00012804
0.000681165
0.130445
0.890803
0.998696
0.998837
0.998073
0.98485
0.579842
0.617877
0.975888
0.882432
0.112314
0.000111337
5.22966e-05
5.25517e-05
5.23288e-05
5.29144e-05
6.12849e-05
9.98566e-05
0.000150847
0.0739373
0.880595
0.276113
0.258235
0.256435
0.275417
0.32926
0.432121
0.573037
0.726121
0.861258
0.958235
1
1
1
1
1
1
1
1
1
1
1
1
0.999972
5.63882e-06
2.80065e-05
0.0139057
0.0384816
0.0658802
0.0900393
0.106952
0.139364
0.224206
0.364328
0.539911
0.701833
0.815191
0.898221
0.990268
0.99979
1
1
0.999997
0.999997
0.999998
0.999997
0.999979
5.05232e-07
1.10078e-08
1.40939e-09
3.35617e-09
2.7976e-08
1.82573e-07
5.69074e-07
-1.25257e-09
-1.01709e-08
5.90914e-05
0.0247162
0.0831576
0.157655
0.2481
0.361515
0.518603
0.632334
0.680917
0.741794
0.836317
0.910817
0.944617
0.977429
4.53113e-08
1.40939e-09
1.40939e-09
1.40939e-09
1.10775e-09
6.46751e-09
8.36023e-10
3.34797e-10
3.30539e-10
3.5076e-10
3.74279e-09
4.4649e-08
4.22022e-07
3.33135e-06
2.21835e-05
0.000123382
0.0147159
0.0377423
0.0640686
0.135111
0.259272
0.521103
0.780578
3.58987e-09
1.81222e-08
1.87527e-08
2.70553e-09
1.8881e-10
2.69143e-10
2.67861e-10
3.35269e-10
3.35261e-10
3.36015e-10
4.85962e-10
3.74967e-09
4.46491e-08
4.2202e-07
3.33057e-06
2.21739e-05
0.000123343
0.000586276
0.00248716
0.0430714
0.340493
0.431461
0.0682007
2.70689e-10
3.28229e-09
8.52423e-09
2.08962e-09
1.4592e-10
2.35546e-11
4.45566e-11
1.93863e-10
7.70559e-08
2.79153e-07
1.2954e-07
4.70997e-08
8.82127e-07
9.78665e-06
1.13375e-05
1.74084e-05
6.34095e-05
0.000237859
0.00897303
0.111107
0.128672
0.0318998
0.00806232
2.83649e-11
1.0235e-10
4.94365e-10
3.99025e-10
5.69844e-11
8.76182e-12
2.39427e-11
3.06138e-10
1.52848e-07
2.82849e-07
2.24828e-07
2.16556e-08
7.76447e-07
1.31339e-05
1.83019e-05
1.00812e-05
5.95449e-05
0.000324623
0.000675783
0.000446461
0.00154002
0.0114532
0.207233
5.026e-12
7.07906e-12
8.13453e-12
1.72946e-11
8.41018e-12
8.07894e-12
8.66769e-12
2.58705e-11
1.30066e-07
2.82759e-07
2.54183e-07
5.03584e-09
5.56194e-07
2.45761e-06
2.31854e-06
3.92288e-07
3.03707e-06
5.7595e-05
0.000231931
0.000248803
0.000437913
0.00100103
0.0475311
7.86579e-13
1.54349e-12
9.26652e-13
1.17856e-12
4.19231e-12
8.02334e-12
8.07894e-12
2.70772e-11
4.08057e-08
1.59712e-07
9.58954e-08
3.30793e-09
3.74833e-08
9.04458e-09
7.29899e-09
2.29098e-08
1.50688e-07
3.8354e-06
5.19057e-05
0.000175667
0.000367284
0.000785382
0.00191765
6.75296e-14
1.40391e-13
7.17361e-14
3.50947e-13
3.10048e-12
7.70904e-12
1.16569e-11
6.36786e-11
2.94623e-10
1.26912e-09
6.08929e-10
2.97245e-09
3.24885e-09
4.53967e-09
8.1026e-10
5.95047e-09
1.23941e-07
3.38658e-07
1.11557e-06
6.7529e-05
0.000207847
0.000227077
0.000348164
4.9006e-15
6.76796e-15
5.044e-15
1.26059e-13
1.7604e-12
6.12604e-12
1.15777e-11
2.50588e-11
2.68962e-11
1.09635e-10
4.58683e-10
3.086e-09
5.49006e-09
4.30463e-09
2.35819e-10
1.58923e-09
2.80191e-08
4.79057e-08
2.0854e-07
2.04199e-05
8.97711e-05
0.000109719
0.000170093
3.80026e-16
3.32109e-16
5.03457e-16
3.52095e-14
6.09754e-13
3.4745e-12
9.91186e-12
1.68033e-11
3.2575e-11
2.89751e-10
1.23961e-09
3.40709e-09
4.67357e-09
2.38764e-09
1.197e-10
2.63647e-10
8.04354e-10
8.17751e-09
1.0718e-07
3.59095e-05
0.000118767
0.000155966
0.00021443
2.64032e-17
1.07206e-17
7.4927e-17
7.46605e-15
1.36218e-13
1.37562e-12
6.798e-12
1.37437e-11
3.83507e-11
6.14915e-10
2.40574e-09
3.23767e-09
1.94936e-09
4.07575e-10
4.14601e-11
7.37523e-11
3.59186e-10
6.77153e-09
1.43299e-07
7.23157e-05
0.000261019
0.000347758
0.000294495
4.81785e-19
1.24084e-19
9.4226e-18
1.39724e-15
2.60646e-14
3.94369e-13
3.28281e-12
9.29292e-12
3.90964e-11
6.778e-10
2.29493e-09
2.53763e-09
4.06565e-10
3.82798e-11
2.0796e-11
3.05889e-11
2.13043e-10
5.16879e-09
1.26167e-07
9.43849e-05
0.000253565
0.00023392
0.000152529
-1.08647e-18
-5.99009e-18
3.17575e-19
2.36598e-16
4.92926e-15
8.42907e-14
1.03212e-12
4.55927e-12
3.45539e-11
5.12569e-10
1.4376e-09
1.2922e-09
1.09013e-10
2.87855e-11
1.54294e-11
1.75415e-11
8.47559e-11
2.11886e-09
4.16527e-07
4.92288e-05
0.000119833
6.1613e-05
8.11853e-05
-3.46157e-18
-6.52454e-18
-3.2369e-18
3.13079e-17
8.55268e-16
1.48135e-14
2.4404e-13
1.89935e-12
2.02762e-11
1.96265e-10
4.16638e-10
3.23034e-10
5.6491e-11
2.7799e-11
9.64593e-12
1.61814e-11
3.01901e-11
4.75631e-10
2.92086e-07
1.51556e-06
2.31642e-06
4.30937e-05
0.000182387
-3.49486e-18
-4.81887e-18
-5.87828e-18
2.52162e-18
1.23799e-16
2.57569e-15
6.37809e-14
8.64233e-13
7.04014e-12
3.16834e-11
4.83755e-11
3.96047e-11
2.73586e-11
2.25027e-11
4.26566e-12
7.49995e-12
4.09152e-11
3.31293e-10
1.35172e-08
4.4874e-08
3.25384e-07
2.08996e-05
0.000270251
-2.8667e-18
-3.02018e-18
-5.41588e-18
4.31025e-20
1.47962e-17
4.96065e-16
1.85384e-14
3.50423e-13
1.74824e-12
3.25826e-12
3.96809e-12
3.99983e-12
8.25355e-12
1.05862e-11
1.23573e-12
1.42279e-12
2.16144e-11
1.18254e-10
2.67044e-10
4.90065e-09
4.49398e-08
3.25586e-07
0.000165309
-2.11789e-18
-1.67436e-18
-3.81844e-18
-2.14208e-19
1.65728e-18
1.00319e-16
4.21481e-15
8.87371e-14
3.47451e-13
4.86847e-13
6.01857e-13
5.69781e-13
1.24216e-12
2.06826e-12
2.19548e-13
1.73578e-13
3.73489e-12
3.44603e-11
6.11284e-11
5.70124e-10
5.54949e-09
4.73426e-08
1.83411e-06
-1.44216e-18
-8.29764e-19
-2.2702e-18
-4.03814e-19
1.97937e-19
1.82581e-17
6.28419e-16
1.18154e-14
5.1019e-14
9.42616e-14
1.37839e-13
1.15975e-13
1.15229e-13
1.75788e-13
2.78814e-14
1.94016e-14
3.33113e-13
5.90144e-12
2.33778e-11
8.27942e-11
5.96322e-10
5.18719e-09
6.55096e-08
-9.09705e-19
-3.69217e-19
-1.17753e-18
-3.31817e-19
1.94525e-20
2.60954e-18
7.14459e-17
1.08353e-15
5.94358e-15
1.57776e-14
2.71602e-14
2.31576e-14
1.1476e-14
1.28256e-14
3.10497e-15
2.05171e-15
2.65684e-14
5.70005e-13
6.73945e-12
1.59949e-11
6.05408e-11
6.05669e-10
4.62947e-09
-5.32025e-19
-1.47972e-19
-5.40942e-19
-1.98924e-19
0
2.82183e-19
7.89567e-18
1.11084e-16
6.68803e-16
1.96609e-15
3.53812e-15
3.32233e-15
1.38044e-15
1.17229e-15
3.38178e-16
2.00883e-16
2.15926e-15
4.38335e-14
7.70751e-13
4.35659e-12
9.96996e-12
6.20333e-11
7.62921e-10
-2.88495e-19
-5.36183e-20
-2.21974e-19
-9.75157e-20
-3.28377e-22
2.43339e-20
8.58844e-19
1.26529e-17
7.30962e-17
1.93617e-16
3.24283e-16
3.31373e-16
1.63464e-16
1.12897e-16
3.41601e-17
1.79033e-17
1.68408e-16
3.30359e-15
5.12181e-14
6.37164e-13
1.6225e-12
9.46524e-12
1.03896e-10
-1.45082e-19
-1.76895e-20
-8.18295e-20
-4.09748e-20
-8.20121e-22
1.8258e-21
8.14851e-20
1.27387e-18
6.96177e-18
1.69154e-17
2.6748e-17
2.81372e-17
1.68144e-17
9.98343e-18
2.80897e-18
1.11918e-18
1.19312e-17
2.37885e-16
3.58018e-15
4.59417e-14
2.83407e-13
9.04843e-13
9.71456e-12
-6.76998e-20
-5.37799e-21
-2.72285e-20
-1.51267e-20
-6.10566e-22
9.10628e-23
6.41571e-21
1.03827e-19
5.61502e-19
1.36673e-18
2.1692e-18
2.28988e-18
1.44731e-18
6.95013e-19
8.22395e-20
2.01435e-20
6.02235e-19
1.59017e-17
2.59844e-16
3.51101e-15
3.35846e-14
1.86518e-13
9.22419e-13
-2.93377e-20
-1.53584e-21
-8.2144e-21
-4.9816e-21
-3.14679e-22
-1.6327e-39
4.48585e-22
7.29847e-21
4.04261e-20
1.0173e-19
1.64596e-19
1.70928e-19
9.35704e-20
1.02901e-20
-4.59944e-20
-1.72371e-19
1.3588e-36
9.26623e-19
2.05005e-17
4.2678e-16
5.61293e-15
4.6116e-14
4.27097e-13
-1.18192e-20
-4.23466e-22
-2.25663e-21
-1.47889e-21
-1.28393e-22
0
2.98947e-23
4.85177e-22
2.74608e-21
7.04744e-21
1.13106e-20
1.01624e-20
1.38681e-21
-1.31448e-20
-1.60487e-19
-2.30501e-19
-3.38752e-20
1.40035e-20
2.2308e-18
9.07687e-17
1.81144e-15
1.77752e-14
1.8337e-13
-4.43186e-21
-1.16484e-22
-5.66983e-22
-3.9894e-22
-4.39011e-23
-6.70531e-25
1.83538e-24
3.13562e-23
1.78676e-22
4.52429e-22
5.96071e-22
1.28504e-22
-2.99379e-21
-4.04738e-20
-1.18135e-19
-1.51725e-19
-7.07095e-20
-1.67188e-36
3.97897e-19
2.71467e-17
7.5479e-16
8.30009e-15
7.10103e-14
-1.5485e-21
-3.28741e-23
-1.30861e-22
-9.84188e-23
-1.29914e-23
-3.78861e-25
7.61086e-26
1.87831e-24
1.04476e-23
2.05791e-23
7.54192e-24
-1.90914e-22
-5.85483e-21
-2.72394e-20
-6.12804e-20
-7.50255e-20
-4.31931e-20
-4.42325e-21
8.0869e-20
7.95164e-18
2.98525e-16
3.69529e-15
2.51875e-14
-5.04624e-22
-9.59791e-24
-2.78715e-23
-2.23265e-23
-3.39818e-24
-1.36601e-25
-1.59443e-42
6.27854e-26
2.50945e-25
2.64996e-25
-2.63579e-23
-5.17257e-22
-3.63712e-21
-1.28581e-20
-2.56523e-20
-3.04891e-20
-1.90265e-20
-4.51501e-21
1.32499e-20
1.70622e-18
8.79407e-17
1.30598e-15
8.07397e-15
-1.53459e-22
-2.84598e-24
-5.50494e-24
-4.67992e-24
-7.97566e-25
-4e-26
-3.45559e-27
7.51885e-28
3.57765e-27
-2.24338e-24
-4.08416e-23
-3.12182e-22
-1.60032e-21
-4.89957e-21
-9.08875e-21
-1.05586e-20
-6.83284e-21
-1.99021e-21
1.12093e-21
2.23614e-19
1.61677e-17
3.14963e-16
2.15341e-15
-4.35589e-23
-8.29931e-25
-1.01386e-24
-9.10522e-25
-1.69882e-25
-1.0252e-26
-5.62389e-27
-2.30116e-26
-1.96906e-25
-2.32187e-24
-2.18384e-23
-1.30383e-22
-5.68912e-22
-1.58616e-21
-2.79396e-21
-3.17977e-21
-2.08852e-21
-6.5534e-22
0
1.79066e-20
1.78637e-18
4.88951e-17
4.20886e-16
-1.15409e-23
-2.31724e-25
-1.75215e-25
-1.65157e-25
-3.31396e-26
-2.3884e-27
-2.95489e-27
-1.70805e-26
-1.29427e-25
-1.10639e-24
-8.34582e-24
-4.37873e-23
-1.7216e-22
-4.48118e-22
-7.57352e-22
-8.4433e-22
-5.55157e-22
-1.78376e-22
-3.07543e-24
1.04999e-21
1.36618e-19
5.38157e-18
5.88343e-17
-2.85394e-24
-6.10064e-26
-2.86204e-26
-2.80543e-26
-5.96714e-27
-5.18058e-28
-1.10662e-27
-7.18637e-27
-5.20773e-26
-3.90135e-25
-2.59946e-24
-1.25267e-23
-4.56299e-23
-1.12425e-22
-1.83245e-22
-1.99809e-22
-1.30066e-22
-4.1601e-23
-3.0396e-24
5.85734e-23
9.47147e-21
5.30667e-19
6.88749e-18
-6.58606e-25
-1.50196e-26
-4.45488e-27
-4.48336e-27
-9.98915e-28
-1.06365e-28
-3.38626e-28
-2.33068e-27
-1.64398e-26
-1.13764e-25
-6.9624e-25
-3.149e-24
-1.07943e-23
-2.53791e-23
-3.99842e-23
-4.25339e-23
-2.7133e-23
-8.45388e-24
-8.70069e-25
4.13243e-24
8.12334e-22
5.82483e-20
8.15574e-19
-1.4182e-25
-3.43841e-27
-6.665e-28
-6.77373e-28
-1.56553e-28
-2.0898e-29
-8.95018e-29
-6.36847e-28
-4.40203e-27
-2.87996e-26
-1.65195e-25
-7.09842e-25
-2.31184e-24
-5.21232e-24
-7.94277e-24
-8.2174e-24
-5.08677e-24
-1.51339e-24
-1.76077e-25
4.33989e-25
9.66237e-23
7.25583e-21
9.83996e-20
-2.85038e-26
-7.29396e-28
-9.65952e-29
-9.72433e-29
-2.31288e-29
-3.95282e-30
-2.10663e-29
-1.5291e-28
-1.03905e-27
-6.50805e-27
-3.54106e-26
-1.45656e-25
-4.53547e-25
-9.83597e-25
-1.44948e-24
-1.45382e-24
-8.65185e-25
-2.41088e-25
-2.85708e-26
5.70122e-26
1.25484e-23
8.50847e-22
1.05232e-20
-5.35287e-27
-1.43378e-28
-1.36366e-29
-1.33309e-29
-3.24279e-30
-7.21395e-31
-4.50424e-30
-3.30799e-29
-2.21348e-28
-1.33749e-27
-6.95751e-27
-2.75346e-26
-8.23302e-26
-1.72088e-25
-2.45129e-25
-2.37668e-25
-1.34812e-25
-3.45365e-26
-3.90276e-27
6.61007e-27
1.2659e-24
7.33707e-23
8.48433e-22
-9.41126e-28
-2.61366e-29
-1.87898e-30
-1.75326e-30
-4.34233e-31
-1.2702e-31
-8.87454e-31
-6.55873e-30
-4.32587e-29
-2.53436e-28
-1.26739e-27
-4.84307e-27
-1.395e-26
-2.81445e-26
-3.87323e-26
-3.62141e-26
-1.9428e-26
-4.4948e-27
-4.6123e-28
5.08379e-28
7.79812e-26
3.92846e-24
4.58474e-23
-1.55402e-28
-4.41872e-30
-2.52159e-31
-2.2214e-31
-5.58619e-32
-2.15584e-32
-1.62895e-31
-1.20681e-30
-7.85076e-30
-4.47514e-29
-2.16027e-28
-7.99249e-28
-2.22321e-27
-4.33428e-27
-5.76089e-27
-5.18453e-27
-2.61246e-27
-5.36387e-28
-4.79838e-29
2.3474e-29
2.91368e-27
1.33113e-25
1.60968e-24
-2.42142e-29
-6.97058e-31
-3.28449e-32
-2.72106e-32
-6.93989e-33
-3.52425e-33
-2.80966e-32
-2.08078e-31
-1.33572e-30
-7.42735e-30
-3.47209e-29
-1.24643e-28
-3.35493e-28
-6.32658e-28
-8.12034e-28
-7.0246e-28
-3.3038e-28
-5.90947e-29
-4.42955e-30
7.84712e-31
8.69946e-29
3.6141e-27
4.13183e-26
-3.57963e-30
-1.01459e-31
-4.09781e-33
-3.2319e-33
-8.35859e-34
-5.54735e-34
-4.58724e-33
-3.38874e-32
-2.14749e-31
-1.16726e-30
-5.29813e-30
-1.84884e-29
-4.82373e-29
-8.807e-29
-1.09162e-28
-9.0669e-29
-3.95358e-29
-6.01145e-30
-3.58047e-31
1.31191e-32
1.36928e-30
5.06084e-29
5.07742e-28
0.999961
0.999959
0.999956
0.999944
0.999962
0.999956
0.999944
0.999914
0.999906
0.991256
0.955143
0.91594
0.759203
0.419899
0.15306
0.0427464
0.00786363
0.00537784
0.00222331
0.0012894
0.00806221
0.00786374
0.00970212
0.0112977
0.309786
0.315394
0.319539
0.320982
0.247147
0.319539
0.320982
0.320982
0.0016816
0.0069604
0.0289659
0.166065
0.000574422
0.00166579
0.00574169
0.00960137
0.000349274
0.00127977
0.00373884
0.00878982
0.000401563
0.00155389
0.00491786
0.0144005
0.000398213
0.00122683
0.00480686
0.00771074
0.000233655
0.00197715
0.0106519
0.0125333
0.00013354
0.00287531
0.0101722
0.00443112
0.000287038
0.00205605
0.00783659
0.00125092
0.000425254
0.00065912
0.00337234
0.00200048
0.000174536
0.00015074
6.31762e-05
0.000511913
3.15116e-06
4.27438e-06
7.89655e-06
8.37637e-06
3.51323e-07
4.86752e-07
8.82958e-07
9.78158e-07
2.80436e-08
4.81986e-08
7.52956e-08
8.80279e-08
2.92338e-09
2.15264e-09
5.70789e-09
6.31434e-09
2.18006e-10
2.68634e-10
2.80813e-10
4.09065e-10
2.37168e-11
3.13427e-11
4.29959e-11
6.48959e-11
4.16564e-12
5.93706e-12
1.14963e-11
3.08026e-11
1.43723e-12
3.17469e-12
9.37294e-12
2.78466e-11
5.69164e-13
1.6092e-12
6.63585e-12
2.32755e-11
2.04259e-13
6.05671e-13
3.13271e-12
1.33152e-11
5.97455e-14
1.35355e-13
6.68931e-13
3.31904e-12
1.71126e-14
2.64074e-14
6.55646e-14
3.02996e-13
4.69842e-15
6.72046e-15
1.44061e-14
1.05141e-13
9.88382e-16
1.54497e-15
4.78819e-15
6.18366e-14
1.47162e-16
2.58785e-16
1.05839e-15
1.89501e-14
1.78229e-17
3.35627e-17
1.0094e-16
1.32882e-15
2.11167e-18
4.12857e-18
9.77351e-18
1.26012e-17
2.50712e-19
5.35377e-19
2.05142e-18
2.54565e-18
2.75055e-20
8.15554e-20
5.14083e-19
5.55405e-19
2.52485e-21
1.28704e-20
9.07558e-20
8.39289e-20
1.64963e-22
1.40379e-21
7.68377e-21
1.74647e-20
6.44777e-24
7.07064e-23
5.33518e-22
9.27311e-21
1.5555e-25
1.70214e-24
4.87908e-23
3.86719e-21
2.122e-27
1.8215e-26
2.04462e-24
3.49863e-22
0.999914
0.999747
0.958812
0.519846
0.127645
0.104281
0.643878
0.883815
0.183128
0.000792539
6.66984e-05
5.25125e-05
5.29144e-05
5.39226e-05
9.24361e-05
0.000173434
0.000241987
0.0311451
0.719137
0.999747
0.903363
0.262464
0.00884602
0.0778674
0.0845875
0.555969
0.874922
0.553831
0.0155704
0.000308589
6.72113e-05
5.38396e-05
7.44057e-05
0.000262472
0.000293506
0.000261736
0.00423185
0.603374
0.728669
0.0986786
0.00123779
0.00273234
0.224352
0.601913
0.775477
0.867833
0.861436
0.172325
0.00125743
0.000262285
7.23491e-05
0.000261849
0.0015808
0.00107029
0.000490209
0.000996725
0.577597
0.00456035
0.00111523
0.00108495
0.00405792
0.00424077
0.0211113
0.256374
0.841944
0.847607
0.610345
0.0345717
0.0012586
0.000268365
0.00314277
0.0610215
0.0188997
0.00316409
0.00116961
0.577311
0.00116063
0.00107215
0.00104594
0.00107152
0.00104714
0.00104939
0.00105787
0.350634
0.833087
0.580095
0.018019
0.00331728
0.010917
0.345765
0.643471
0.407525
0.0155374
0.00197936
0.609994
0.00753127
0.00116074
0.00107215
0.00104555
0.00105865
0.00113532
0.00887599
0.064757
0.445167
0.116486
0.010958
0.00813113
0.464198
0.852018
0.852281
0.821322
0.0565793
0.0313814
0.679008
0.206548
0.008466
0.00132556
0.00110799
0.00123806
0.00149826
0.0185538
0.0446154
0.0430366
0.0289793
0.0150595
0.39287
0.851981
0.852281
0.852281
0.852281
0.111949
0.18517
0.724093
0.320982
0.277239
0.00518529
0.00136139
0.00168571
0.00247998
0.0053473
0.00890005
0.0172353
0.0331897
0.225184
0.712408
0.815868
0.851981
0.852281
0.820678
0.193165
0.437482
0.744538
0.295332
0.297837
0.18921
0.00175942
0.00215728
0.00324294
0.00553635
0.0081044
0.017542
0.152612
0.393897
0.294906
0.272126
0.848724
0.850183
0.509561
0.323972
0.533629
0.746991
0.0470521
0.275925
0.362814
0.0382427
0.00288566
0.00499537
0.0497591
0.098821
0.129229
0.356258
0.270443
0.00331816
0.0794053
0.774484
0.838699
0.393405
0.342902
0.394876
0.748777
0.0397204
0.281851
0.502759
0.533582
0.47521
0.537356
0.595359
0.591333
0.581066
0.472185
0.0626194
0.00072107
0.00500634
0.226207
0.7975
0.733617
0.528916
0.605435
0.820684
0.163502
0.629016
0.64224
0.64224
0.64224
0.641945
0.637828
0.397266
0.0353568
0.00167413
0.00113987
0.000162199
0.000651561
0.0103522
0.419817
0.859721
0.91193
0.914768
0.914636
0.0208101
0.272276
0.566968
0.64224
0.626726
0.26828
0.0096986
0.00711628
0.00831877
0.00848823
0.00373019
5.66125e-06
3.0994e-05
0.000186679
0.0101359
0.44712
0.798837
0.914517
0.91485
0.000657449
5.16055e-07
2.63907e-06
0.0670242
0.0972261
0.0204278
0.00539569
0.0078828
0.00729357
0.000917484
9.66954e-05
9.30885e-07
3.42695e-06
1.65691e-05
8.82508e-05
0.000527553
0.145159
0.624969
0.914517
1.31387e-08
1.51597e-08
1.76715e-08
2.03855e-08
6.02151e-08
0.000448124
0.00397075
0.00126724
1.09008e-05
1.55374e-06
4.61303e-08
3.91557e-07
9.30761e-07
3.42688e-06
1.57725e-05
8.78186e-05
0.000534158
0.0625957
0.885036
1.32289e-08
1.31896e-08
1.51597e-08
1.04258e-08
5.4176e-09
3.31379e-09
7.75215e-09
8.00158e-08
7.50865e-08
2.65356e-08
2.40527e-08
1.40983e-07
3.94395e-06
9.42983e-06
1.32124e-05
2.74423e-05
0.000170326
0.0155936
0.302481
1.94093e-05
1.51597e-08
1.04258e-08
6.60137e-09
3.94396e-09
2.54629e-09
1.88713e-09
2.19647e-09
2.53178e-08
1.74824e-08
2.34497e-08
5.83244e-07
2.50338e-05
3.29464e-05
3.24011e-05
9.88372e-06
2.73444e-05
0.00349326
0.00385133
0.000205592
8.22003e-08
4.21845e-08
2.36666e-08
5.89318e-09
2.25484e-09
1.88538e-09
2.13607e-09
4.07292e-08
1.78242e-08
4.53072e-08
2.23027e-09
1.21815e-05
3.34938e-05
2.9677e-05
8.19874e-06
7.35809e-06
0.00130393
0.0176904
9.92974e-05
5.06165e-05
4.26443e-07
4.78628e-08
6.45004e-09
2.26583e-09
1.88255e-09
1.88255e-09
4.19729e-09
5.17873e-09
3.41968e-09
2.13085e-09
2.23023e-09
1.27805e-05
3.17365e-05
7.14073e-06
7.41091e-06
0.00239244
0.0791809
4.3642e-06
1.13603e-05
5.92276e-06
6.13206e-08
8.18593e-09
1.57074e-09
1.95782e-09
1.88255e-09
1.95782e-09
2.03676e-09
2.04973e-09
2.05846e-09
2.13085e-09
2.44674e-09
2.04545e-05
3.57754e-06
2.80936e-06
0.00060649
0.0791803
6.16947e-08
2.14557e-08
1.89812e-07
1.10152e-07
3.53089e-09
4.92315e-10
2.1418e-09
4.0153e-09
5.76715e-09
5.02206e-09
2.05775e-09
2.1898e-09
2.44674e-09
2.74333e-09
4.43109e-09
7.12709e-09
4.02424e-06
9.99383e-05
0.0791921
4.19178e-09
1.45723e-09
6.41313e-10
3.2696e-10
2.94039e-10
4.22935e-10
5.65975e-09
8.36294e-09
8.34438e-09
5.73974e-09
2.62345e-09
7.90332e-09
1.06752e-08
4.43107e-09
7.12708e-09
8.2116e-09
0.000439299
0.000151442
0.0781317
3.76224e-10
3.44289e-10
2.96526e-10
2.74123e-10
2.74454e-10
5.7209e-10
3.46309e-09
5.58469e-09
3.66847e-09
1.07974e-09
8.86896e-08
4.08872e-07
4.72247e-07
1.65812e-07
9.19546e-09
8.18902e-09
0.000623087
0.00022482
0.0750085
1.68689e-10
2.92422e-10
2.79995e-10
2.74123e-10
2.74123e-10
5.67582e-10
4.31892e-10
3.62888e-10
3.62888e-10
3.62888e-10
5.48527e-07
7.00216e-07
6.9966e-07
6.40356e-07
6.91793e-08
1.02014e-08
0.000625822
0.000226633
0.0747909
1.44848e-10
3.49516e-10
4.58259e-10
4.90318e-10
4.82409e-10
4.0829e-10
3.70288e-10
3.66575e-10
3.62861e-10
8.68092e-10
3.56446e-07
6.98024e-07
7.00304e-07
6.98804e-07
1.88589e-07
1.39465e-08
0.000595643
0.000229647
0.0740683
1.8125e-10
5.22091e-10
8.18422e-10
8.75205e-10
8.0939e-10
6.3212e-10
4.3729e-10
4.34038e-10
4.69732e-10
4.52057e-10
4.84088e-10
3.73584e-07
6.98024e-07
6.6187e-07
1.40266e-07
3.41337e-08
5.48003e-05
0.000284564
0.0496415
1.87854e-10
6.66545e-10
9.01997e-10
9.04013e-10
9.012e-10
6.73943e-10
5.49607e-10
9.53758e-10
1.81556e-09
7.17455e-10
4.89307e-10
1.7861e-08
5.19833e-07
3.36143e-07
1.53861e-07
5.45626e-06
6.74486e-06
0.000391569
0.000239333
1.41686e-10
4.90563e-10
7.91671e-10
7.76758e-10
1.50821e-09
9.84491e-10
6.78485e-10
1.49104e-09
2.91459e-09
1.25095e-09
4.86644e-09
1.21121e-08
6.93881e-09
7.62935e-07
1.506e-07
9.17033e-05
1.85844e-05
7.22285e-05
8.3928e-05
5.1182e-11
2.13305e-10
4.41577e-10
7.77851e-11
1.40827e-09
4.06001e-08
5.42309e-09
1.721e-09
2.96489e-09
1.32212e-09
8.19201e-09
6.93994e-09
6.94179e-09
1.49481e-06
1.47119e-06
9.2903e-05
2.15431e-05
5.66709e-07
0.0274579
1.15214e-11
1.16476e-10
1.54704e-10
7.75502e-11
3.37548e-11
8.43994e-08
8.15683e-09
3.69031e-09
3.51077e-09
1.74357e-09
7.89259e-09
6.94179e-09
2.1926e-08
2.5443e-06
2.68513e-07
4.20357e-05
2.70239e-06
4.56956e-07
0.111165
7.33696e-12
7.42642e-11
9.35602e-11
5.77224e-11
2.11803e-11
3.5669e-08
9.62742e-07
2.18317e-07
7.34062e-09
8.50682e-08
1.37848e-08
3.02366e-07
2.3805e-06
2.39022e-06
2.64581e-07
2.71687e-07
3.13003e-07
3.47205e-07
0.112214
5.20022e-12
4.38598e-11
6.5885e-11
5.12425e-11
2.08671e-11
8.35001e-12
2.80562e-06
3.76151e-06
5.78743e-07
2.14719e-07
1.6761e-07
2.85513e-06
3.443e-06
1.18978e-06
2.71687e-07
3.15154e-07
3.47205e-07
4.79586e-07
0.112379
2.17179e-12
1.53415e-11
3.87952e-11
3.5009e-11
1.8465e-11
8.27398e-12
2.34903e-06
5.35068e-06
4.02725e-06
1.36681e-06
1.00724e-06
3.33891e-06
3.09597e-06
8.46202e-07
4.72939e-06
7.45121e-06
1.93598e-06
2.92033e-05
0.112475
3.31568e-13
2.88615e-12
9.64203e-12
1.85405e-11
1.50624e-11
8.25417e-12
1.10516e-07
5.29276e-06
5.54536e-06
5.55429e-06
4.4375e-06
1.08521e-06
3.81156e-07
1.84896e-06
1.65952e-05
1.66033e-05
5.81965e-06
0.000131126
0.112475
1.79808e-14
2.81581e-13
1.21091e-12
1.01436e-11
1.52523e-11
8.2448e-12
9.99708e-13
8.21339e-07
5.22757e-06
5.56494e-06
5.56375e-06
3.8939e-06
3.81156e-07
1.59177e-05
1.66292e-05
3.74691e-06
4.70287e-06
0.000548893
0.112399
1.36621e-15
2.53049e-14
2.8433e-13
8.14424e-12
1.45003e-11
8.65774e-12
9.54878e-13
0
1.79355e-07
3.85326e-06
4.976e-06
1.12897e-06
2.03921e-06
1.74635e-05
1.44086e-05
8.60949e-07
1.44774e-06
0.00297807
0.111663
2.40582e-16
3.40163e-15
1.0435e-13
4.1672e-12
7.55291e-12
4.20135e-12
4.47327e-13
-2.54774e-15
-1.44755e-26
4.59129e-11
9.18845e-11
9.18258e-11
1.14316e-05
1.74635e-05
1.46137e-06
3.79304e-07
1.97936e-07
0.00424526
0.0336715
3.99358e-17
3.61654e-16
1.87886e-14
7.58854e-13
1.08878e-12
3.8831e-13
-1.07507e-13
-4.3257e-13
3.44291e-09
2.50275e-09
9.18845e-11
1.72401e-10
1.64911e-05
1.74635e-05
2.33907e-06
3.3061e-07
1.89268e-07
0.000883643
2.26911e-10
4.30806e-18
1.963e-17
7.78886e-16
2.54512e-14
1.98322e-14
-6.63725e-14
-7.76927e-13
-1.25902e-12
6.81111e-08
7.00442e-08
1.72401e-10
1.77615e-06
1.63665e-05
1.23179e-05
5.30789e-07
3.96165e-07
1.85046e-07
2.26911e-10
6.33016e-11
2.70742e-19
5.96938e-19
6.89307e-18
1.15779e-16
-7.05274e-15
-6.26349e-14
-1.4186e-12
-1.64324e-12
8.33251e-08
9.64373e-08
2.35108e-10
1.52423e-06
1.61514e-05
1.10089e-06
2.85884e-09
2.43164e-07
1.4242e-07
6.22239e-11
1.07768e-12
8.82125e-21
1.31537e-20
6.19826e-20
-1.72895e-19
-6.62601e-15
-2.76193e-14
-4.83218e-13
-3.43043e-13
-2.39775e-14
2.98039e-08
-7.79576e-19
7.37777e-06
9.82636e-06
3.05234e-07
-3.94408e-26
4.4388e-08
1.09139e-08
-8.30914e-28
2.21168e-28
3.57846e-22
3.6316e-22
4.61197e-22
-1.45954e-18
-2.2475e-15
-6.57313e-15
-3.2491e-14
-8.37333e-15
-1.4846e-15
-3.42294e-16
-3.08491e-17
4.95954e-06
1.23502e-05
-6.6813e-18
-8.04885e-19
-5.18358e-20
-3.23179e-21
-2.30649e-22
-9.13159e-24
)
;

boundaryField
{
    leftWall
    {
        type            zeroGradient;
    }
    rightWall
    {
        type            zeroGradient;
    }
    lowerWall
    {
        type            zeroGradient;
    }
    atmosphere
    {
        type            inletOutlet;
        inletValue      uniform 0;
        value           nonuniform List<scalar> 
46
(
-3.57963e-30
-1.01459e-31
-4.09781e-33
-3.2319e-33
-8.35859e-34
-5.54735e-34
-4.58724e-33
-3.38874e-32
-2.14749e-31
-1.16726e-30
-5.29813e-30
-1.84884e-29
-4.82373e-29
-8.807e-29
-1.09162e-28
-9.0669e-29
-3.95358e-29
-6.01145e-30
-3.58047e-31
1.31191e-32
1.36928e-30
5.06084e-29
5.07742e-28
2.122e-27
1.8215e-26
2.04462e-24
3.49863e-22
3.57846e-22
0
0
0
0
0
0
0
0
0
0
0
1.23502e-05
0
0
0
0
0
0
)
;
    }
    defaultFaces
    {
        type            empty;
    }
}


// ************************************************************************* //
