/*--------------------------------*- C++ -*----------------------------------*\
| =========                 |                                                 |
| \\      /  F ield         | OpenFOAM: The Open Source CFD Toolbox           |
|  \\    /   O peration     | Version:  2206                                  |
|   \\  /    A nd           | Website:  www.openfoam.com                      |
|    \\/     M anipulation  |                                                 |
\*---------------------------------------------------------------------------*/
FoamFile
{
    version     2.0;
    format      ascii;
    arch        "LSB;label=32;scalar=64";
    class       volScalarField;
    location    "0.975";
    object      alpha.water;
}
// * * * * * * * * * * * * * * * * * * * * * * * * * * * * * * * * * * * * * //

dimensions      [0 0 0 0 0 0 0];

internalField   nonuniform List<scalar> 
2268
(
1
1
1
1
1
1
1
1
1
1
1
1
0.999998
0.995477
0.971668
0.969297
0.98926
0.988581
0.976614
0.973511
0.992014
0.999393
0.999989
1
1
1
1
1
1
1
1
1
1
1
0.999999
0.999585
0.967774
0.950807
0.950691
0.95949
0.9595
0.962463
0.962936
0.971013
0.999989
0.999989
1
1
1
1
1
1
1
1
1
1
1
1
0.999995
0.988974
0.953739
0.950831
0.950722
0.974057
0.99433
0.996323
0.999442
0.999955
0.999989
1
1
1
1
1
1
1
1
1
1
1
1
0.999999
0.999886
0.99467
0.986168
0.993647
1
1
1
1
1
0.999994
1
1
1
1
1
1
1
1
1
1
1
1
1
1
0.999999
0.999999
1
1
1
1
1
1
1
1
1
1
1
0.999997
0.999993
1
1
1
1
1
1
1
1
1
0.999999
0.999999
0.999999
0.999997
0.999998
0.999999
0.999999
0.999996
1
1
1
1
1
0.999438
0.999512
0.999995
1
1
1
1
1
1
1
0.999999
0.999994
0.99995
0.999891
0.999807
0.999967
0.999981
0.999993
0.99999
0.999995
1
1
1
0.999105
0.998808
0.999872
1
1
1
1
1
1
0.999998
0.999969
0.981042
0.877759
0.755857
0.751096
0.886276
0.966081
0.999969
0.981129
0.981129
0.979823
0.976925
0.986301
0.987296
0.98729
0.978224
0.818145
0.803862
0.675299
0.675447
0.84951
0.8763
0.876364
0.876292
0.875007
0.874533
0.874533
0.981129
0.965778
0.826747
0.813479
0.980721
0.98729
0.987293
0.939944
0.677984
0.677116
0.755259
0.675313
0.841107
0.876359
0.858034
0.784752
0.794244
0.809835
0.862759
0.98083
0.889758
0.793882
0.79387
0.979548
0.987121
0.977933
0.803062
0.679496
0.778103
0.777366
0.677534
0.754972
0.871026
0.634099
0.529104
0.543238
0.572521
0.509187
0.978782
0.870735
0.793865
0.793974
0.974053
0.98696
0.918362
0.722209
0.711894
0.778533
0.779299
0.692683
0.613976
0.529149
0.489776
0.401165
0.266007
0.362185
0.461245
0.974085
0.810822
0.793974
0.824312
0.963603
0.984325
0.815441
0.433743
0.440263
0.779299
0.779721
0.779299
0.776486
0.769111
0.637281
0.139361
0.0572092
0.0906727
0.681181
0.978451
0.812808
0.882413
0.97079
0.962607
0.961439
0.478281
0.142148
0.192946
0.779689
0.779689
0.779712
0.778984
0.774489
0.292594
0.054391
0.055049
0.0572456
0.802514
0.988769
0.81595
0.954155
0.972428
0.944598
0.758805
0.131608
0.137968
0.295144
0.779689
0.779724
0.779689
0.778542
0.553967
0.0374113
0.0460348
0.056215
0.0809617
0.731535
0.99261
0.853845
0.94724
0.975061
0.944625
0.577242
0.129481
0.131608
0.361047
0.7788
0.779689
0.778542
0.648054
0.0885516
0.0094617
0.0967839
0.10822
0.106691
0.145232
0.945818
0.989768
0.999999
1
0.999994
0.999997
0.999997
0.999999
1
1
1
0.994992
0.994079
0.967932
0.888341
0.728846
0.482499
0.288762
0.251471
0.26608
0.564173
0.802288
0.970397
0.851647
0.898036
0.995457
0.998116
0.988707
0.999843
0.999996
0.837441
0.750489
0.740975
0.88241
0.896648
0.567983
0.181158
0.11989
0.120005
0.122292
0.129438
0.301849
0.612522
0.780749
0.857907
0.877597
0.85079
0.864998
0.960386
0.99773
0.996634
0.963706
0.445026
0.182096
0.312535
0.444353
0.329473
0.152809
0.125124
0.11989
0.119323
0.11989
0.125189
0.324744
0.860769
0.951802
0.957742
0.958167
0.962588
0.894714
0.941803
0.95916
0.843543
0.49852
0.228642
0.0653567
0.0365664
0.0328098
0.0683235
0.149919
0.172911
0.16463
0.12036
0.12238
0.339674
0.370928
0.343591
0.285927
0.753883
0.958039
0.957525
0.901053
0.861638
0.429348
0.133021
0.141233
0.090199
0.0693842
0.0420107
0.0328098
0.026492
0.0172781
0.0258002
0.130217
0.161568
0.155367
0.110572
0.0486009
0.0338129
0.0107349
0.0929137
0.725448
0.953654
0.867282
0.250427
0.790469
0.148209
0.00619686
0.0302464
0.0884831
0.0886012
0.0873616
0.0783608
0.0569575
0.0141275
0.00043109
0.000384409
0.000725859
0.00703691
0.0180144
0.0178698
0.00583375
0.00195236
0.0250344
0.467506
0.9198
0.484728
0.00400653
0.725308
0.0524699
0.00181976
0.0243788
0.0492225
0.0450489
0.0596908
0.0739462
0.0471782
0.00208168
8.87962e-05
6.54789e-05
0.000394078
0.0102514
0.018723
0.0194639
0.00483195
0.000461915
0.00166009
0.0305978
0.402092
0.558171
0.153569
0.715507
0.00347377
0.000574213
0.00156878
0.000706482
0.00192754
0.0074659
0.0123428
0.00491123
8.92188e-05
1.55005e-05
5.83787e-06
4.98621e-05
0.00114545
0.00387003
0.00489301
0.001781
0.000128505
0.000319967
0.00128821
0.0344348
0.414699
0.502934
0.671452
0.000583116
0.000191017
5.58165e-05
2.2318e-05
2.81291e-05
4.45122e-05
6.58599e-05
6.79952e-05
1.5575e-05
2.34402e-06
1.3461e-06
6.22971e-06
6.8746e-06
7.48929e-06
9.2241e-06
1.33217e-05
3.36598e-05
0.000124708
0.000145567
0.000281249
0.0339612
0.416383
0.568723
0.000193164
5.67797e-05
1.39296e-05
4.78794e-06
4.48534e-06
5.37509e-06
7.41666e-06
7.71209e-06
2.25389e-06
2.81039e-07
3.80654e-07
3.56477e-06
2.75226e-05
3.51367e-05
2.04253e-05
2.52079e-05
4.03167e-05
7.10501e-05
0.000129007
0.000145709
0.00012957
6.69245e-05
0.538043
6.23604e-05
1.42009e-05
4.08632e-06
1.54137e-06
1.03642e-06
7.51572e-07
9.15211e-07
9.09398e-07
3.0342e-07
2.60881e-08
1.68545e-08
2.76986e-06
3.85724e-05
4.5453e-05
4.40775e-05
2.6095e-05
9.53941e-05
0.000346981
0.000361202
0.000316387
0.000117408
5.63631e-05
0.568456
2.19085e-05
4.24159e-06
1.55943e-06
8.0538e-07
3.97531e-07
1.23709e-07
1.22651e-07
1.01056e-07
2.68787e-08
2.90838e-09
2.58334e-09
2.22815e-08
9.00521e-10
1.06401e-06
2.48114e-06
3.43807e-06
6.45091e-05
0.000210799
0.000367386
0.000361519
0.000359422
0.000158991
0.571834
0.000266105
1.40732e-06
7.5586e-07
6.92137e-07
2.84011e-07
2.91661e-08
2.3034e-08
1.36304e-08
2.88106e-09
1.24284e-09
8.82993e-10
8.72024e-10
8.0826e-10
7.58027e-10
7.138e-10
6.12428e-10
5.75312e-10
5.75312e-10
2.17505e-06
0.000167281
0.000160223
0.000330426
0.518259
0.00362015
-1.20697e-06
3.72321e-07
5.91692e-07
6.37085e-07
1.36224e-08
8.74593e-09
4.03187e-09
1.83e-09
1.65725e-09
1.45558e-09
8.82223e-10
8.93726e-10
7.46848e-10
6.12407e-10
5.75299e-10
5.60818e-10
4.93905e-10
3.60418e-10
3.60418e-10
1.51164e-09
0.000179853
0.0908053
0.00305287
7.24417e-06
1.96451e-07
2.26123e-07
6.70537e-07
1.12541e-08
6.47426e-09
4.89002e-09
3.80014e-09
1.75008e-09
3.50324e-09
1.91605e-09
2.48027e-09
1.36796e-09
7.53684e-10
8.82476e-10
9.7983e-10
7.69347e-10
3.59516e-10
3.60418e-10
3.596e-10
1.51164e-09
0.00100919
0.0010641
3.13847e-08
1.49152e-07
1.40568e-07
4.10971e-07
1.11182e-08
9.73424e-09
6.47392e-09
4.66804e-09
3.17268e-09
1.05225e-08
2.69871e-08
2.73926e-08
1.11187e-08
1.37625e-09
1.19474e-09
1.45745e-09
1.41465e-09
7.54195e-10
3.10916e-10
1.599e-08
3.19757e-08
0.0466382
3.35805e-06
3.34591e-08
1.32545e-07
1.36405e-07
7.82448e-08
1.15823e-08
1.04602e-08
8.454e-09
6.27866e-06
1.87598e-05
6.11641e-06
4.05998e-07
3.0098e-07
7.23636e-08
7.66242e-09
1.81072e-09
1.37757e-09
1.34239e-09
9.24365e-10
2.76423e-10
2.41208e-08
5.20655e-08
0.2686
1.31208e-06
1.26736e-07
1.28781e-07
1.32991e-07
1.371e-07
6.96775e-08
4.12053e-07
0.000169282
0.000272754
0.000272862
0.00012245
3.67356e-05
8.95123e-06
4.53865e-07
4.20179e-08
3.74637e-09
1.24669e-09
1.02908e-09
8.07217e-10
2.63488e-10
1.94437e-09
3.95585e-08
0.310017
2.7036e-05
1.04435e-07
1.28883e-07
1.28881e-07
1.81104e-07
1.24913e-05
0.000171603
0.000278162
0.000276386
0.000273696
0.000272689
0.000260687
0.000105615
1.48268e-05
1.98528e-07
7.58713e-08
8.28767e-09
1.33843e-09
5.80639e-10
2.93813e-10
2.3368e-12
2.04366e-12
0.311563
0.00124512
2.62338e-07
1.28623e-07
1.63951e-07
4.28303e-07
3.83645e-05
0.000278143
0.000280349
0.000280932
0.000125279
4.84376e-05
7.21544e-05
0.000162249
0.000136242
7.94468e-06
6.02143e-07
4.43317e-08
2.8109e-09
4.24006e-10
1.96344e-10
3.89707e-11
1.631e-12
0.311286
0.00368793
1.47817e-06
1.87239e-07
1.98882e-07
2.29421e-07
8.90417e-06
0.000280349
0.000281103
0.000280849
0.000164837
4.21416e-05
4.26124e-05
0.000147807
0.000151063
4.34549e-05
8.03411e-07
4.99114e-08
4.70892e-09
4.6468e-10
1.21092e-10
4.46069e-11
7.27203e-12
0.295758
0.0108948
1.67679e-05
1.13807e-06
2.20946e-07
5.90855e-07
8.77999e-07
5.27034e-05
0.000277764
0.000280935
0.000251383
4.55607e-05
4.18523e-05
4.42102e-05
0.000149931
6.61924e-05
2.14566e-06
1.01529e-07
1.12067e-08
1.20395e-09
1.15848e-10
3.35515e-11
7.63793e-12
0.0663329
0.0322845
0.00185367
1.65152e-05
1.17824e-06
8.77999e-07
2.91426e-06
4.84672e-06
3.47361e-05
0.000136544
0.00011852
4.25746e-05
4.16124e-05
4.36628e-05
9.73721e-05
7.65207e-05
1.16025e-05
2.26882e-07
2.47995e-08
2.41681e-09
2.42459e-10
2.41015e-11
6.30885e-12
0.00255207
0.0202217
0.011327
0.00336619
0.000376853
5.36444e-06
4.84672e-06
1.49717e-05
3.24719e-05
4.19863e-05
4.25745e-05
4.16124e-05
4.21652e-05
4.65413e-05
0.000127703
0.000115055
1.66651e-05
3.54398e-07
4.03613e-08
3.81662e-09
3.10065e-10
2.98205e-11
4.00646e-12
0.000473354
0.00128476
0.00495591
0.00445039
0.0024567
0.00100178
0.000469609
0.000250006
4.3586e-05
4.88738e-05
4.64512e-05
4.25746e-05
4.19907e-05
0.000109302
0.000132822
0.000104171
7.54875e-06
3.22944e-07
3.84613e-08
3.80012e-09
3.14127e-10
3.08079e-11
3.663e-12
7.69864e-05
0.000145576
0.000131437
0.000467135
0.000484191
0.000362959
0.000212633
0.000225292
0.000235298
0.000163171
5.73362e-05
4.73508e-05
7.81529e-05
0.000141654
0.00013468
6.17634e-05
2.28879e-06
2.00002e-07
2.40645e-08
2.42151e-09
2.05499e-10
2.00978e-11
2.37844e-12
1.07904e-05
2.34431e-05
1.83205e-05
8.19388e-06
2.71736e-06
2.39202e-06
3.64043e-06
2.04101e-05
4.98903e-05
5.67469e-05
7.81659e-05
0.000139784
0.000144346
0.000143084
0.00013408
2.13049e-05
6.23473e-07
8.59092e-08
9.9949e-09
9.91186e-10
9.30984e-11
7.851e-12
8.98191e-13
1.29082e-06
3.17841e-06
2.00641e-06
6.06916e-07
1.03344e-07
1.31747e-06
2.7637e-06
1.28724e-05
6.43588e-05
0.000141182
0.000145073
0.000145929
0.000145053
0.000144346
4.43217e-05
8.65315e-07
1.28021e-07
1.63749e-08
1.8188e-09
1.7445e-10
1.84179e-11
1.32246e-12
1.27878e-13
1.31938e-07
3.71189e-07
1.8712e-07
3.98576e-08
1.89454e-08
1.11925e-06
1.69149e-05
9.89379e-05
0.000143305
0.000145073
0.000145929
0.000145073
0.000132928
3.69371e-05
7.53545e-07
1.36224e-07
1.82331e-08
1.96e-09
2.0783e-10
2.32097e-11
2.12845e-12
1.6215e-13
1.09742e-14
1.1672e-08
3.82787e-08
1.55713e-08
2.61578e-09
1.44782e-08
1.50614e-07
4.35679e-06
2.89538e-05
9.03165e-05
0.000123101
0.000118295
7.72008e-05
1.65393e-05
4.64104e-07
9.86062e-08
1.6908e-08
2.12317e-09
2.39607e-10
2.57394e-11
3.31716e-12
3.35972e-13
1.86906e-14
7.62275e-16
9.20815e-10
3.56095e-09
1.18874e-09
1.70756e-10
3.25133e-09
2.12273e-10
1.85322e-09
4.4069e-08
2.38673e-06
8.09661e-06
6.32052e-06
1.21914e-06
1.99136e-07
4.87046e-08
1.03503e-08
1.62229e-09
2.29395e-10
2.91587e-11
5.15127e-12
4.93907e-13
2.81681e-14
1.36773e-15
5.67356e-17
6.96306e-11
3.06128e-10
8.76424e-11
1.46058e-11
1.45355e-11
1.77619e-11
1.125e-10
3.11737e-09
2.32086e-08
7.16894e-08
8.54264e-08
5.23202e-08
1.79727e-08
4.43791e-09
9.09203e-10
1.60514e-10
3.28915e-11
6.83402e-12
6.22539e-13
3.39066e-14
1.80805e-15
8.50721e-17
4.22471e-18
5.73902e-12
2.94196e-11
7.33561e-12
1.75619e-12
4.09724e-12
7.23894e-12
2.29234e-11
3.04946e-10
1.78196e-09
5.27668e-09
6.5599e-09
4.06297e-09
1.3938e-09
3.84473e-10
8.64033e-11
2.63938e-11
6.26052e-12
6.48647e-13
3.91618e-14
2.07406e-15
1.00573e-16
4.37925e-18
3.22112e-19
7.26359e-13
2.88137e-12
1.05773e-12
1.5496e-13
7.6489e-13
3.44189e-12
6.09464e-12
2.95126e-11
1.74259e-10
4.13344e-10
4.63536e-10
3.04277e-10
1.26059e-10
3.54867e-11
1.55618e-11
4.20819e-12
4.97117e-13
3.63195e-14
2.23562e-15
1.11893e-16
4.78842e-18
1.86136e-19
3.14034e-20
5.72159e-14
3.82062e-13
8.54142e-14
9.2176e-15
5.69456e-14
6.47964e-13
2.55012e-12
4.88392e-12
1.6313e-11
4.00838e-11
4.5456e-11
2.85828e-11
1.11542e-11
7.38293e-12
2.13272e-12
2.81138e-13
2.54661e-14
1.89546e-15
1.12204e-16
5.2649e-18
2.03508e-19
6.55328e-21
3.88037e-21
3.36037e-15
3.01848e-14
4.99217e-15
5.3145e-16
3.06462e-15
4.47308e-14
3.83255e-13
1.27407e-12
3.75117e-12
3.26815e-12
3.79751e-12
4.94768e-12
2.60716e-12
7.58263e-13
1.20022e-13
1.36685e-14
1.2443e-15
8.84775e-17
4.94267e-18
2.16769e-19
7.13722e-21
1.48837e-22
6.75024e-22
1.94262e-16
1.94494e-15
2.94342e-16
3.05335e-17
1.76149e-16
2.21132e-15
2.22786e-14
1.33515e-13
4.47194e-13
7.33632e-13
7.54054e-13
5.52614e-13
2.0452e-13
3.8293e-14
5.62552e-15
6.38126e-16
5.52526e-17
3.69959e-18
1.92597e-19
7.15151e-21
8.39275e-23
-1.03478e-22
1.61734e-22
1.0979e-17
1.26563e-16
1.72963e-17
1.71309e-18
1.03305e-17
1.22995e-16
1.10299e-15
6.90904e-15
2.68708e-14
5.90105e-14
5.48087e-14
2.99922e-14
9.09213e-15
1.77321e-15
2.55182e-16
2.74429e-17
2.23573e-18
1.39392e-19
6.21396e-21
8.2477e-23
-1.00144e-22
-1.06814e-22
5.32196e-23
5.92675e-19
8.00596e-18
1.00644e-18
9.35691e-20
5.8483e-19
7.03049e-18
6.01353e-17
3.48419e-16
1.36956e-15
2.71068e-15
2.47882e-15
1.40278e-15
4.191e-16
7.929e-17
1.08164e-17
1.09468e-18
8.30831e-20
4.4839e-21
6.8182e-23
-6.1856e-23
-9.97042e-23
-3.03793e-23
1.25829e-23
2.73128e-20
4.90889e-19
5.75553e-20
4.77351e-21
3.18449e-20
3.87141e-19
3.27599e-18
1.84561e-17
7.05521e-17
1.33487e-16
1.19485e-16
6.54089e-17
1.86415e-17
3.35251e-18
4.31557e-19
4.07582e-20
2.6991e-21
5.00138e-23
-2.77677e-23
-8.26562e-23
-3.09702e-23
-6.84081e-24
1.27866e-24
5.29651e-22
2.90047e-20
3.14489e-21
1.84864e-22
1.51501e-21
2.05103e-20
1.71131e-19
9.36703e-19
3.40793e-18
5.6682e-18
5.06077e-18
2.84165e-18
7.93468e-19
1.3704e-19
1.66609e-20
1.39232e-21
3.29053e-23
-3.55923e-24
-6.12812e-23
-2.75121e-23
-7.73171e-24
-1.34318e-24
4.7056e-29
-9.65694e-22
7.99178e-22
1.90701e-22
1.78043e-22
1.78043e-22
5.02412e-22
4.61934e-21
3.52852e-20
2.01036e-19
8.19636e-19
6.53749e-19
1.77475e-19
3.07428e-20
3.82348e-21
3.57867e-22
1.87344e-23
0
-3.92025e-23
-2.09529e-23
-6.84538e-24
-1.46325e-24
-1.71988e-25
-4.07312e-27
0.986665
0.984054
0.988535
0.992719
0.829189
0.828948
0.938866
0.992762
0.970655
0.977561
0.983744
0.988937
0.766899
0.7784
0.84529
0.866291
0.00754157
0.0121942
0.0272459
0.0327503
0.0038668
0.00378161
0.00378161
0.00378161
0.0142285
0.0102122
0.00378161
0.00396971
0.502934
0.370394
0.15483
0.240384
0.501519
0.50717
0.507903
0.507903
0.0156985
0.272894
0.369231
0.344479
4.28619e-05
2.24504e-05
2.08272e-05
1.89929e-05
5.41829e-05
2.08272e-05
1.8993e-05
1.63109e-05
0.000310892
2.16513e-05
2.13444e-05
1.94861e-05
6.81668e-05
3.80321e-05
2.68889e-05
1.34869e-05
4.29417e-09
8.56944e-09
4.44436e-06
1.04921e-07
1.69207e-08
1.33689e-08
1.41878e-08
8.74271e-08
5.20655e-08
1.48898e-08
3.69375e-08
3.47204e-07
4.10445e-08
1.87345e-08
3.09925e-10
1.94337e-07
1.72899e-09
7.02693e-10
1.47066e-12
1.06537e-12
9.43517e-13
9.19402e-13
1.04537e-12
1.04546e-12
8.60818e-13
9.07489e-13
9.42154e-13
1.10335e-12
7.78078e-13
4.83731e-13
2.80055e-13
2.54344e-13
4.35591e-13
2.27585e-13
1.07723e-13
9.06849e-14
3.79692e-13
1.85489e-13
5.51875e-14
3.88647e-14
3.7819e-13
1.46418e-13
2.70105e-14
1.49865e-14
2.45941e-13
7.7843e-14
1.08036e-14
4.53697e-15
8.78385e-14
2.35631e-14
2.56601e-15
8.73723e-16
1.22404e-14
3.51569e-15
3.78905e-16
1.47242e-16
9.58431e-16
3.52443e-16
6.12951e-17
6.48242e-17
6.2321e-17
3.33836e-17
2.4945e-17
4.31485e-17
3.84222e-18
6.66611e-18
1.3263e-17
2.39504e-17
6.27971e-19
2.34093e-18
5.20066e-18
9.1205e-18
3.13734e-19
6.55844e-19
1.39886e-18
2.35228e-18
6.27795e-20
1.23293e-19
2.65918e-19
4.44461e-19
1.06815e-20
2.31672e-20
5.15137e-20
8.7219e-20
2.74703e-21
6.23014e-21
1.35033e-20
2.24644e-20
9.47844e-22
1.99244e-21
3.90254e-21
6.49404e-21
2.88618e-22
5.19854e-22
9.67482e-22
1.92422e-21
5.61144e-23
8.8389e-23
2.01296e-22
5.69596e-22
5.90611e-24
9.83729e-24
2.93199e-23
2.38244e-22
3.62323e-25
7.59101e-25
4.53343e-24
3.39638e-22
8.33445e-27
2.70134e-26
7.12389e-25
2.97423e-22
0.992747
0.98791
0.987412
0.97563
0.973586
0.577958
0.129481
0.149122
0.30733
0.169512
0.220638
0.285212
0.0828669
0.000967471
0.000336002
0.0477733
0.104345
0.108517
0.0281987
0.992696
0.992125
0.970401
0.975073
0.89142
0.245263
0.129475
0.227336
0.179206
0.000448593
0.00306548
0.000622508
0.000533749
0.000249272
0.000235955
0.000336478
0.0313762
0.104172
0.0261357
0.969623
0.955357
0.881347
0.517432
0.34099
0.210656
0.217899
0.226253
0.00132522
0.000256317
0.000234313
0.000229689
0.000222944
0.00022552
0.000232028
0.000236337
0.000442588
0.0752501
0.0344271
0.66562
0.339815
0.188389
0.13343
0.147433
0.212345
0.212698
0.041873
0.000256651
0.00022562
0.000220361
0.000220845
0.000223462
0.000224604
0.00022565
0.000247069
0.00124387
0.0225664
0.0693446
0.0289897
0.0183737
0.0311791
0.134531
0.174523
0.10929
0.0267283
0.000400717
0.000225405
0.000220249
0.000219624
0.000220235
0.000220814
0.00022431
0.000241239
0.000374192
0.0818682
0.0640694
0.0693446
0.00396973
0.00433993
0.0242807
0.0548544
0.041589
0.00347145
0.0004585
0.000251239
0.000220179
0.000219624
0.000219624
0.000219624
0.000225019
0.000241101
0.000318417
0.0210653
0.193678
0.105804
0.0507987
0.00433991
0.00518142
0.00406182
0.00227977
0.000964533
0.000550166
0.000304684
0.000227579
0.000220896
0.000220249
0.000219624
0.00022503
0.000256678
0.000323632
0.000735944
0.200513
0.204925
0.0764694
0.0123723
0.213337
0.0693477
0.0321349
0.0128088
0.000746345
0.000340295
0.000249173
0.000233927
0.000227763
0.000220893
0.000224237
0.000271402
0.00041226
0.000732394
0.0412965
0.273932
0.214076
0.0149154
0.00376737
0.507903
0.461127
0.410281
0.332883
0.0688547
0.00296973
0.000495263
0.000248498
0.000233541
0.000224901
0.000281148
0.000550556
0.0012715
0.014727
0.283437
0.285245
0.112347
0.00309876
0.0014028
0.357091
0.49956
0.508873
0.508198
0.450348
0.249071
0.0144774
0.000440946
0.000280684
0.000401897
0.000843398
0.0229087
0.113424
0.307022
0.29872
0.272752
0.0251057
0.00221609
0.000452084
1.54299e-05
0.102732
0.281379
0.455327
0.512205
0.512191
0.363838
0.204419
0.114966
0.116863
0.158138
0.294612
0.314717
0.313582
0.280426
0.0156816
8.12331e-05
0.000414537
0.000119123
1.06073e-05
7.56897e-06
3.37841e-06
0.000112835
0.268165
0.484825
0.482046
0.473695
0.473173
0.466734
0.410569
0.370705
0.312188
0.187265
4.60164e-06
9.77525e-06
2.23109e-05
4.96992e-05
5.10909e-05
1.10347e-05
5.41228e-06
8.24279e-08
7.03531e-09
3.44178e-09
0.0303029
0.241796
0.306858
0.22333
0.142127
0.0599378
0.0234609
0.00985101
2.4517e-06
3.24002e-06
4.60164e-06
9.77525e-06
2.46416e-05
4.36802e-05
3.04118e-05
1.38224e-05
7.65344e-09
4.75212e-09
1.66199e-09
6.93304e-10
4.09147e-10
4.27704e-10
3.5134e-10
4.66031e-10
1.95357e-09
1.77208e-08
1.48289e-07
9.62198e-07
1.05038e-05
0.000139463
0.00025919
0.000217347
6.04733e-05
1.77278e-05
1.39571e-05
1.01559e-06
1.53814e-08
1.03238e-08
1.02416e-08
5.61395e-09
5.50645e-10
2.93534e-10
4.31395e-10
2.64092e-09
2.98384e-08
3.03033e-07
2.33388e-06
0.000166733
0.000414806
0.000414806
0.000406939
0.00013282
5.11974e-09
2.31981e-11
1.15163e-06
8.36016e-08
2.59954e-08
3.88559e-08
3.90274e-08
2.89195e-09
2.93534e-10
2.93534e-10
4.31395e-10
2.86869e-09
3.67639e-08
4.54397e-07
6.63631e-05
0.000387806
0.000402675
2.16416e-05
7.37447e-06
2.21313e-07
5.66736e-12
3.12719e-09
4.28736e-08
4.23705e-10
2.7433e-08
2.28078e-08
3.19133e-09
4.20754e-10
6.13429e-10
6.07199e-10
6.74712e-10
1.97125e-09
4.34199e-08
2.08936e-05
0.000172515
0.000143559
1.74283e-06
1.74283e-06
1.55283e-08
5.66736e-12
5.66733e-12
5.99385e-12
6.5985e-12
9.02125e-12
1.54943e-11
5.56625e-10
9.66805e-10
6.49715e-10
6.37256e-10
6.3042e-10
6.30912e-10
1.31152e-09
8.95152e-07
3.9064e-05
6.86667e-05
2.14262e-06
1.77796e-06
1.09353e-12
8.33636e-12
1.43174e-11
1.56811e-11
4.00069e-11
1.0188e-10
2.16898e-10
3.22039e-10
5.76942e-10
6.345e-10
6.30753e-10
6.30753e-10
6.26546e-10
6.22346e-10
1.31203e-09
3.19e-08
7.77085e-05
8.80606e-05
8.10419e-06
1.82575e-12
1.31254e-11
1.83445e-11
2.04258e-11
4.35334e-11
1.47812e-10
3.63042e-10
3.8292e-10
5.75059e-10
6.77357e-10
6.39884e-10
6.30753e-10
7.41689e-10
6.22348e-10
6.12912e-10
1.43613e-09
5.70766e-05
0.000133129
1.32909e-05
2.10116e-12
4.045e-12
6.47087e-12
1.37344e-11
4.29945e-11
1.48454e-10
3.42359e-10
4.22412e-10
1.37217e-09
1.40626e-09
6.03434e-09
8.02973e-09
2.45438e-09
1.12733e-09
5.95586e-10
6.1335e-10
0.000129253
0.000133152
1.05112e-05
3.51878e-13
7.95974e-13
2.00788e-12
1.25796e-11
5.71189e-11
1.51737e-10
1.87246e-10
9.18274e-10
1.05696e-07
2.69585e-07
1.57638e-07
2.6387e-08
2.20635e-09
1.48512e-09
5.8835e-10
1.36685e-09
0.000159081
8.88231e-05
6.97695e-07
1.26981e-13
2.53164e-13
1.2662e-12
1.65482e-11
7.12786e-11
1.14586e-10
3.32665e-09
2.99656e-07
2.86983e-06
1.65399e-06
2.05809e-07
5.78446e-10
5.32934e-10
1.17808e-09
5.89036e-10
5.88327e-10
0.000159077
2.65916e-06
3.40247e-07
5.09e-14
1.14188e-13
1.09865e-12
1.95902e-11
7.24316e-11
7.35963e-11
9.62058e-08
3.13688e-06
3.83404e-06
1.27277e-06
1.36317e-08
5.32934e-10
5.32934e-10
5.32931e-10
5.60274e-10
2.72581e-06
7.45944e-05
7.7153e-06
2.87868e-07
1.95173e-14
5.63062e-14
9.95127e-13
1.97338e-11
5.66266e-11
6.07191e-11
4.8818e-07
3.86519e-06
3.8028e-06
2.66918e-09
9.39777e-10
5.45185e-10
5.32933e-10
5.45174e-10
8.39844e-10
2.13739e-07
2.32076e-07
5.50744e-06
2.73363e-07
5.77429e-15
3.75228e-14
8.95459e-13
1.63006e-11
2.40193e-11
3.67863e-11
7.76488e-07
3.87143e-06
1.44183e-06
4.16859e-09
2.66918e-09
9.39777e-10
5.45185e-10
2.2877e-08
1.5055e-06
9.22097e-06
1.17132e-05
7.97198e-06
9.28077e-08
1.36326e-15
3.22198e-14
7.80741e-13
1.15017e-11
1.59714e-11
2.20216e-11
7.99768e-07
3.84296e-06
8.19598e-07
4.72312e-08
1.13936e-06
1.43476e-06
6.6488e-06
1.4435e-05
1.45789e-05
1.46692e-05
1.46673e-05
1.16016e-06
1.89073e-09
4.93878e-16
3.09222e-14
7.17187e-13
9.21465e-12
1.79539e-11
1.87814e-11
3.23284e-07
3.7119e-06
1.86957e-06
2.78985e-07
6.75234e-06
9.84881e-06
9.87919e-06
8.00419e-06
6.7668e-06
1.05899e-05
1.45496e-05
1.92416e-07
1.32991e-09
3.60039e-16
3.05978e-14
6.56702e-13
7.16453e-12
2.5528e-11
1.97349e-11
8.2029e-12
4.66901e-07
3.06163e-06
2.87356e-06
2.46167e-06
4.13726e-06
3.73717e-06
1.36849e-07
1.42288e-06
3.92978e-06
3.39613e-06
2.45906e-07
6.35138e-10
3.10088e-16
3.07704e-14
5.33287e-13
4.53875e-12
1.71017e-11
2.02853e-11
8.09099e-12
6.02352e-12
2.64705e-06
3.70184e-06
3.34041e-06
9.01425e-07
1.53693e-07
1.36695e-07
4.95093e-06
8.94397e-06
3.34948e-06
6.35138e-10
4.8545e-10
2.66543e-16
2.52241e-14
3.36962e-13
2.177e-12
7.74863e-12
1.35316e-11
1.13094e-11
5.97633e-12
6.02352e-12
2.29802e-06
3.86425e-06
4.0339e-06
3.07622e-06
1.40536e-07
2.28183e-06
8.94397e-06
5.04471e-06
9.35846e-09
7.45836e-11
2.01407e-16
1.22552e-14
1.33933e-13
7.39594e-13
2.64458e-12
6.75608e-12
9.67139e-12
5.98526e-12
5.97634e-12
7.06256e-12
3.24541e-07
3.20687e-06
3.16616e-06
4.77046e-07
2.84491e-08
2.3842e-06
5.62284e-07
8.83628e-11
3.79791e-11
8.952e-17
4.34256e-15
3.74838e-14
1.94797e-13
9.70103e-13
3.70927e-12
6.39761e-12
3.52761e-12
4.92586e-11
1.04367e-09
1.02313e-09
1.05337e-09
1.03362e-09
1.49595e-08
6.55061e-09
2.95977e-10
7.2529e-11
7.0509e-11
3.74362e-11
2.09518e-17
1.01194e-15
7.23743e-15
6.59776e-14
5.89075e-13
2.48461e-12
3.56495e-12
6.58904e-15
5.01932e-10
7.649e-09
6.0792e-09
1.44303e-09
1.33669e-09
3.08729e-07
8.58494e-07
2.15974e-07
3.99898e-11
2.43061e-11
2.53546e-11
3.19836e-18
1.55177e-16
1.48967e-15
4.19985e-14
4.51125e-13
1.4012e-12
1.18438e-12
-2.08726e-34
1.31765e-09
1.00032e-08
1.0004e-08
1.5824e-09
1.47184e-07
3.33842e-06
3.31091e-06
3.89947e-07
1.76613e-11
8.24757e-12
1.36995e-11
1.05935e-18
3.65489e-17
6.0831e-16
2.81825e-14
2.38374e-13
3.60846e-13
1.56935e-13
-5.6871e-14
1.00771e-09
9.88637e-09
5.01351e-09
1.87455e-09
3.06618e-06
3.86836e-06
3.25722e-06
9.7301e-08
1.21825e-12
4.63066e-12
4.41136e-12
7.24015e-19
1.35106e-17
2.5192e-16
9.69138e-15
4.94749e-14
3.77274e-14
-5.22479e-14
-1.9496e-13
1.23642e-10
2.97317e-09
4.4964e-17
5.41042e-08
3.86024e-06
3.86782e-06
1.8257e-07
2.95435e-14
2.738e-15
1.00622e-11
1.11806e-12
4.15194e-19
3.62522e-18
4.78434e-17
1.65395e-15
3.12865e-15
-2.56996e-15
-9.19884e-14
-1.73795e-13
3.65418e-12
5.50075e-48
-1.84723e-42
1.50729e-07
3.85288e-06
9.61821e-07
3.09371e-14
2.73761e-15
2.62573e-15
9.13237e-13
1.14168e-13
1.49728e-19
5.6904e-19
3.25079e-18
1.04012e-16
-8.47194e-16
-5.85365e-15
-6.29368e-14
-9.55745e-14
-4.61729e-14
-1.1217e-14
-1.55628e-15
1.3928e-07
3.09475e-06
1.46104e-10
1.44101e-10
7.24518e-13
1.68178e-15
1.32261e-14
4.57136e-15
3.03134e-20
4.91508e-20
7.88374e-20
3.23011e-19
-8.82501e-16
-3.18405e-15
-2.69055e-14
-3.21732e-14
-1.48587e-14
-3.65005e-15
-5.09157e-16
1.24786e-08
4.24728e-23
1.82497e-08
7.089e-10
8.39589e-16
3.97957e-16
3.74901e-16
1.91225e-16
2.79944e-21
1.89197e-21
1.66126e-21
-2.30152e-19
-4.13531e-16
-1.06772e-15
-6.18299e-15
-4.98856e-15
-1.75144e-15
-3.49079e-16
-4.09155e-17
-6.14655e-19
-1.46514e-21
1.69572e-08
7.62718e-10
1.51664e-31
-1.58987e-33
1.85071e-35
-8.64984e-41
1.07497e-22
1.9771e-23
2.94512e-24
-1.14776e-19
-9.49145e-17
-1.78112e-16
-4.84897e-16
-1.53367e-16
-2.50621e-17
-3.27835e-18
-3.24538e-19
-7.58188e-21
-3.39522e-23
-1.4991e-18
-3.20058e-19
-1.38915e-20
-2.92961e-22
-3.07023e-24
-8.35801e-27
)
;

boundaryField
{
    leftWall
    {
        type            zeroGradient;
    }
    rightWall
    {
        type            zeroGradient;
    }
    lowerWall
    {
        type            zeroGradient;
    }
    atmosphere
    {
        type            inletOutlet;
        inletValue      uniform 0;
        value           nonuniform List<scalar> 
46
(
-9.65694e-22
7.99178e-22
1.90701e-22
1.78043e-22
1.78043e-22
5.02412e-22
4.61934e-21
3.52852e-20
2.01036e-19
8.19636e-19
6.53749e-19
1.77475e-19
3.07428e-20
3.82348e-21
3.57867e-22
1.87344e-23
0
-3.92025e-23
-2.09529e-23
-6.84538e-24
-1.46325e-24
-1.71988e-25
-4.07312e-27
0
0
0
0
0
0
0
0
0
0
0
0
0
0
0
0
0
0
0
0
0
0
0
)
;
    }
    defaultFaces
    {
        type            empty;
    }
}


// ************************************************************************* //
