/*--------------------------------*- C++ -*----------------------------------*\
| =========                 |                                                 |
| \\      /  F ield         | OpenFOAM: The Open Source CFD Toolbox           |
|  \\    /   O peration     | Version:  2206                                  |
|   \\  /    A nd           | Website:  www.openfoam.com                      |
|    \\/     M anipulation  |                                                 |
\*---------------------------------------------------------------------------*/
FoamFile
{
    version     2.0;
    format      ascii;
    arch        "LSB;label=32;scalar=64";
    class       surfaceScalarField;
    location    "0.975";
    object      phi;
}
// * * * * * * * * * * * * * * * * * * * * * * * * * * * * * * * * * * * * * //

dimensions      [0 3 -1 0 0 0 0];

oriented        oriented;

internalField   nonuniform List<scalar> 
4432
(
4.27453e-06
-4.27453e-06
4.91944e-06
-6.449e-07
1.51886e-06
3.40059e-06
-2.56878e-06
4.08763e-06
-3.45774e-06
8.88964e-07
-1.6e-06
-1.85774e-06
-4.76963e-07
-1.12303e-06
-1.23762e-06
7.6066e-07
-3.12973e-06
1.89211e-06
-5.67239e-06
2.54265e-06
-8.41256e-06
2.74017e-06
-1.04498e-05
2.03726e-06
-1.0788e-05
3.38188e-07
-1.05627e-05
-2.25247e-07
-1.348e-05
2.9172e-06
-2.02556e-05
6.7756e-06
-2.59229e-05
5.66733e-06
-2.52098e-05
-7.13103e-07
-2.0313e-05
-4.89679e-06
-1.53853e-05
-4.92766e-06
-1.06993e-05
-4.686e-06
-5.0406e-06
-5.65873e-06
-5.0406e-06
-8.83906e-07
-3.39061e-06
-2.9859e-06
1.4571e-06
-5.61397e-06
6.02865e-06
-6.68424e-06
5.1579e-06
-5.06998e-06
-7.25291e-07
-2.33941e-06
-4.58831e-06
-8.81196e-07
-2.58125e-06
-1.55047e-06
1.42992e-06
-3.64527e-06
3.98691e-06
-6.3614e-06
5.25877e-06
-9.19044e-06
5.56921e-06
-1.19195e-05
4.76633e-06
-1.49878e-05
3.4065e-06
-1.88686e-05
3.65559e-06
-2.28417e-05
6.8902e-06
-2.42953e-05
8.22926e-06
-2.11608e-05
2.53284e-06
-1.58728e-05
-6.00112e-06
-1.15526e-05
-9.21698e-06
-8.63911e-06
-7.84118e-06
-6.17243e-06
-7.15266e-06
-3.06082e-06
-8.77037e-06
-8.1014e-06
-2.95678e-06
-4.33822e-07
-5.95827e-06
4.45859e-06
-7.70998e-06
7.78036e-06
-7.7515e-06
5.19942e-06
-6.0011e-06
-2.47567e-06
-3.15174e-06
-7.43767e-06
-1.40264e-06
-4.33035e-06
-1.86024e-06
1.88751e-06
-3.59152e-06
5.71819e-06
-5.72338e-06
7.39063e-06
-7.76291e-06
7.60873e-06
-9.80971e-06
6.81314e-06
-1.24643e-05
6.06107e-06
-1.5542e-05
6.73325e-06
-1.69275e-05
8.27574e-06
-1.47113e-05
6.01304e-06
-1.03534e-05
-1.82503e-06
-7.28258e-06
-9.07196e-06
-5.74092e-06
-1.07586e-05
-4.21463e-06
-9.36747e-06
-3.10387e-06
-8.26341e-06
-1.69879e-06
-1.01755e-05
-9.80017e-06
-2.44973e-06
2.01591e-06
-4.89781e-06
6.90667e-06
-6.4529e-06
9.33545e-06
-6.959e-06
5.70552e-06
-5.61749e-06
-3.81717e-06
-3.03783e-06
-1.00173e-05
-1.71115e-06
-5.65704e-06
-2.44073e-06
2.61709e-06
-4.23323e-06
7.51068e-06
-6.31914e-06
9.47654e-06
-8.10239e-06
9.39197e-06
-9.38515e-06
8.09588e-06
-1.02686e-05
6.94453e-06
-1.04618e-05
6.9264e-06
-8.88353e-06
6.69751e-06
-6.0322e-06
3.16171e-06
-4.15056e-06
-3.70668e-06
-4.15787e-06
-9.06464e-06
-4.52951e-06
-1.0387e-05
-3.9599e-06
-9.93708e-06
-3.21904e-06
-9.00427e-06
-1.88708e-06
-1.15074e-05
-1.16873e-05
-5.51657e-07
2.56757e-06
-1.85903e-06
8.21405e-06
-3.34994e-06
1.08264e-05
-4.25743e-06
6.61302e-06
-3.28594e-06
-4.78866e-06
-1.64039e-06
-1.16629e-05
-1.4285e-06
-5.86894e-06
-2.94285e-06
4.13143e-06
-5.16615e-06
9.73397e-06
-7.54396e-06
1.18543e-05
-9.48497e-06
1.1333e-05
-1.05204e-05
9.13128e-06
-1.04506e-05
6.87479e-06
-9.16865e-06
5.64441e-06
-6.83611e-06
4.36497e-06
-4.6335e-06
9.59104e-07
-3.8228e-06
-4.5174e-06
-3.9778e-06
-8.90964e-06
-4.10378e-06
-1.0261e-05
-3.92604e-06
-1.01148e-05
-3.41149e-06
-9.51882e-06
-2.16776e-06
-1.27512e-05
-1.3855e-05
2.17538e-06
3.92189e-07
2.33991e-06
8.04952e-06
8.84393e-07
1.22819e-05
1.85738e-07
7.31168e-06
1.05235e-06
-5.65527e-06
1.11151e-06
-1.17221e-05
-4.63249e-07
-4.29418e-06
-3.00611e-06
6.67429e-06
-5.80441e-06
1.25323e-05
-8.47063e-06
1.45206e-05
-1.05948e-05
1.34571e-05
-1.16266e-05
1.01632e-05
-1.13629e-05
6.61106e-06
-1.00135e-05
4.29501e-06
-7.80127e-06
2.15272e-06
-5.48268e-06
-1.35948e-06
-3.8068e-06
-6.19326e-06
-2.96091e-06
-9.75552e-06
-2.45376e-06
-1.07682e-05
-2.36017e-06
-1.02084e-05
-2.11503e-06
-9.76393e-06
-1.60504e-06
-1.32611e-05
-1.546e-05
5.49861e-06
-5.10642e-06
7.50354e-06
6.04459e-06
6.38255e-06
1.34029e-05
5.65049e-06
8.04374e-06
6.35765e-06
-6.36242e-06
5.06917e-06
-1.04336e-05
2.02695e-06
-1.25196e-06
-1.44442e-06
1.01457e-05
-4.62693e-06
1.57148e-05
-7.55924e-06
1.74529e-05
-9.91074e-06
1.58086e-05
-1.10086e-05
1.1261e-05
-1.06145e-05
6.21697e-06
-9.10078e-06
2.78131e-06
-6.86368e-06
-8.44005e-08
-4.59746e-06
-3.62572e-06
-2.95883e-06
-7.83189e-06
-2.09409e-06
-1.06203e-05
-1.3242e-06
-1.1538e-05
-7.83314e-07
-1.07493e-05
-2.95017e-07
-1.02522e-05
-2.38143e-07
-1.3318e-05
-1.56982e-05
9.39285e-06
-1.44993e-05
1.27247e-05
2.71271e-06
1.20473e-05
1.40803e-05
1.17103e-05
8.38075e-06
1.1353e-05
-6.00506e-06
8.67456e-06
-7.75518e-06
5.97515e-06
1.44746e-06
2.09304e-06
1.40278e-05
-1.43025e-06
1.9238e-05
-5.04386e-06
2.10665e-05
-7.91187e-06
1.86766e-05
-9.13844e-06
1.24875e-05
-8.61151e-06
5.69004e-06
-7.4719e-06
1.64171e-06
-6.23813e-06
-1.31816e-06
-5.61034e-06
-4.2535e-06
-6.27077e-06
-7.17147e-06
-8.15186e-06
-8.73919e-06
-8.18404e-06
-1.15059e-05
-5.20276e-06
-1.37306e-05
-8.20937e-07
-1.4634e-05
1.24664e-06
-1.53856e-05
-1.44515e-05
-3.10637e-06
3.10637e-06
-1.71843e-05
1.40779e-05
-1.46304e-05
-2.55386e-06
7.20679e-06
-2.18372e-05
2.96076e-05
-2.24008e-05
2.933e-05
2.77513e-07
1.95542e-05
9.77581e-06
1.70411e-05
2.51317e-06
2.66471e-05
-9.60598e-06
3.19679e-05
-5.32086e-06
1.40004e-05
1.79675e-05
-8.70698e-06
2.27074e-05
-2.44938e-05
1.57869e-05
-3.48367e-05
1.03428e-05
-3.41417e-05
-6.95008e-07
-2.37627e-05
-1.03789e-05
-9.38025e-06
-1.43825e-05
3.77694e-07
-9.75794e-06
3.77701e-07
-9.68652e-06
1.27929e-05
-1.69071e-05
2.12986e-05
-1.13073e-05
-8.15375e-06
6.67622e-06
-3.98207e-05
2.32914e-05
-3.9016e-05
2.46212e-05
-1.05225e-06
1.45963e-05
1.98007e-05
3.08095e-06
1.40285e-05
2.56029e-06
-9.08531e-06
1.29062e-05
-1.56668e-05
7.3439e-06
2.35298e-05
-2.01295e-05
5.01808e-05
-3.77791e-05
3.34364e-05
-3.72569e-05
9.82061e-06
-2.95199e-05
-8.43195e-06
-2.17702e-05
-1.81286e-05
-1.0187e-05
-2.59657e-05
2.91115e-06
-2.28561e-05
3.28885e-06
-9.85942e-06
2.26523e-05
-1.47217e-05
2.61609e-05
-8.64412e-06
-1.42314e-05
6.05634e-06
-5.45212e-05
1.33595e-05
-4.63191e-05
5.14464e-06
7.16259e-06
-1.84656e-05
4.3411e-05
-3.45929e-05
3.01557e-05
-2.53346e-05
-1.83436e-05
-1.17958e-05
-2.92055e-05
-1.11646e-05
2.28986e-05
-2.54105e-05
6.44267e-05
-3.36163e-05
4.16422e-05
-3.08453e-05
7.04967e-06
-3.06567e-05
-8.62054e-06
-3.09444e-05
-1.7841e-05
-1.98147e-05
-3.70953e-05
-2.15267e-06
-4.05182e-05
1.13618e-06
-7.15916e-06
2.98115e-05
-1.09203e-05
2.9922e-05
-6.64673e-06
-1.85049e-05
1.19738e-06
-6.23653e-05
-4.69537e-06
-4.04264e-05
-2.69962e-05
2.94634e-05
-4.82447e-05
6.46594e-05
-5.13481e-05
3.32592e-05
-4.06791e-05
-2.90127e-05
-3.04823e-05
-3.94023e-05
-2.57023e-05
1.81187e-05
-2.6822e-05
6.55463e-05
-2.84966e-05
4.33168e-05
-3.0504e-05
9.05706e-06
-3.94448e-05
3.2034e-07
-4.38186e-05
-1.34672e-05
-2.80214e-05
-5.28925e-05
-9.809e-06
-5.87306e-05
-8.67282e-06
-3.07653e-06
3.2888e-05
-4.62799e-06
3.14735e-05
-2.53735e-06
-2.05956e-05
-4.48286e-06
-6.04198e-05
-2.27084e-05
-2.22009e-05
-4.87393e-05
5.54943e-05
-5.72108e-05
7.31309e-05
-4.98863e-05
2.59348e-05
-4.42626e-05
-3.46364e-05
-4.13198e-05
-4.23452e-05
-3.46291e-05
1.14279e-05
-2.73314e-05
5.82487e-05
-2.82708e-05
4.42561e-05
-3.9107e-05
1.98934e-05
-5.86101e-05
1.98234e-05
-6.40599e-05
-8.01728e-06
-2.99215e-05
-8.7031e-05
-7.59499e-06
-8.1057e-05
-1.62678e-05
2.29485e-06
3.05932e-05
3.96123e-06
2.98071e-05
3.68132e-06
-2.03157e-05
-8.98989e-06
-4.77486e-05
-3.45392e-05
3.34847e-06
-5.72641e-05
7.82192e-05
-5.24906e-05
6.83574e-05
-3.91014e-05
1.25456e-05
-4.09838e-05
-3.27541e-05
-4.73552e-05
-3.59737e-05
-4.24371e-05
6.50986e-06
-3.14117e-05
4.72233e-05
-3.42314e-05
4.70758e-05
-5.90626e-05
4.47246e-05
-9.22909e-05
5.30518e-05
-7.97456e-05
-2.05626e-05
-2.54616e-05
-0.000141315
9.00012e-09
-0.000106528
-1.62588e-05
8.92207e-06
2.16711e-05
1.3797e-05
2.49322e-05
1.15361e-05
-1.80547e-05
-4.28647e-06
-3.1926e-05
-3.21646e-05
3.12266e-05
-4.78392e-05
9.38937e-05
-4.36496e-05
6.41678e-05
-3.67235e-05
5.61959e-06
-4.62627e-05
-2.32149e-05
-5.3066e-05
-2.91704e-05
-4.88173e-05
2.26114e-06
-3.96922e-05
3.80982e-05
-5.36173e-05
6.10008e-05
-9.61495e-05
8.72568e-05
-0.000114709
7.16117e-05
-6.65098e-05
-6.87622e-05
-2.63267e-05
-0.000181498
1.46668e-06
-0.000134321
-1.47921e-05
1.38525e-05
7.81857e-06
2.26508e-05
1.61339e-05
2.0801e-05
-1.62049e-05
6.79743e-06
-1.79225e-05
-2.02748e-05
5.82988e-05
-3.40167e-05
0.000107636
-3.03942e-05
6.05453e-05
-3.71748e-05
1.24002e-05
-5.45454e-05
-5.84431e-06
-6.21807e-05
-2.15351e-05
-6.25508e-05
2.6312e-06
-6.7242e-05
4.27895e-05
-8.84285e-05
8.21873e-05
-0.000107615
0.000106443
-0.000101078
6.50747e-05
-5.50767e-05
-0.000114763
-2.38376e-05
-0.000212737
5.80118e-06
-0.00016396
-8.99093e-06
3.38071e-05
-4.83064e-05
4.8391e-05
-1.18712e-05
4.62478e-05
1.62235e-05
3.99818e-05
1.46467e-05
3.01739e-05
3.80282e-06
2.12903e-05
1.1285e-06
1.60856e-05
6.65213e-06
5.9344e-07
2.95199e-05
-1.73833e-05
3.72148e-05
-3.00474e-05
3.37306e-05
-3.56692e-05
2.42984e-05
-3.61963e-05
1.30146e-05
-3.55007e-05
4.99442e-06
-3.67647e-05
2.90569e-06
-4.33381e-05
5.2552e-06
-5.85988e-05
1.10072e-05
-8.72749e-05
2.15047e-05
-0.000114032
1.80181e-05
-0.000107512
-1.80265e-05
-7.34462e-05
-4.7796e-05
-3.17167e-05
-5.63635e-05
-2.65343e-06
-4.44488e-05
-2.55273e-05
8.4223e-06
3.35095e-05
-8.18159e-05
5.39495e-05
-3.23112e-05
6.02511e-05
9.92182e-06
5.55819e-05
1.9316e-05
4.08685e-05
1.85162e-05
2.26948e-05
1.93022e-05
-5.98122e-06
3.53281e-05
-4.58996e-05
6.94383e-05
-8.48952e-05
7.62103e-05
-0.000110595
5.94306e-05
-0.000122603
3.63065e-05
-0.000124324
1.47355e-05
-0.000123534
4.20396e-06
-0.000140622
1.99941e-05
-0.000182327
4.69599e-05
-0.000227061
5.57413e-05
-0.000246816
4.12595e-05
-0.000220755
-8.04261e-06
-0.000165981
-7.28007e-05
-0.000110688
-0.000103089
-6.52304e-05
-0.000101821
-2.99845e-05
-7.96947e-05
-5.35563e-05
-1.95555e-06
1.60575e-05
-9.78734e-05
2.70743e-05
-4.33279e-05
3.3745e-05
3.25104e-06
3.04981e-05
2.25629e-05
1.3284e-05
3.57302e-05
-1.70255e-05
4.96117e-05
-9.086e-05
0.000109163
-0.0001736
0.000152179
-0.000222812
0.000125422
-0.000238439
7.50576e-05
-0.000235601
3.34686e-05
-0.000225437
4.57212e-06
-0.000221025
-2.08869e-07
-0.000228329
2.72984e-05
-0.000241659
6.02899e-05
-0.000239489
5.35718e-05
-0.000213602
1.53727e-05
-0.000180881
-4.07639e-05
-0.000150478
-0.000103204
-0.000117414
-0.000136153
-9.32931e-05
-0.000125942
-7.65826e-05
-9.64052e-05
-7.00573e-05
-6.00815e-05
-2.92756e-05
-6.85978e-05
-5.41896e-05
-1.84139e-05
-5.09788e-05
4.02269e-08
-5.23184e-05
2.39025e-05
-7.94289e-05
6.28408e-05
-0.000145043
0.000115226
-0.000204215
0.000168334
-0.000234747
0.000182711
-0.000266477
0.000157152
-0.000290368
9.89483e-05
-0.000283411
2.65119e-05
-0.000260475
-1.83643e-05
-0.000241174
-1.95093e-05
-0.00022673
1.28539e-05
-0.000212724
4.62845e-05
-0.000203432
4.42797e-05
-0.000199833
1.17729e-05
-0.000202746
-3.78501e-05
-0.000182417
-0.000123534
-0.000157728
-0.000160842
-0.000148047
-0.000135623
-0.000148986
-9.54656e-05
-6.76443e-05
-0.000151399
-7.06192e-05
2.02139e-06
-0.000133859
4.48255e-05
-0.000173071
3.92522e-05
-0.000203038
5.38702e-05
-0.000222549
8.23511e-05
-0.000217024
0.000109701
-0.000192633
0.000143943
-0.000177158
0.000167236
-0.0001867
0.000166693
-0.000229533
0.000141782
-0.000266517
6.34959e-05
-0.000269346
-1.55354e-05
-0.000258138
-3.07174e-05
-0.00023769
-7.59458e-06
-0.000214155
2.27502e-05
-0.000212161
4.22849e-05
-0.000230757
3.03692e-05
-0.000233554
-3.50531e-05
-0.000200938
-0.000156149
-0.000187776
-0.000174004
-0.000191192
-0.000132207
-0.000204248
-8.24097e-05
-5.89198e-05
-0.000212973
-6.31822e-05
6.52036e-05
-0.000160336
0.00014198
-0.000251416
0.000130332
-0.000271717
7.41718e-05
-0.000247442
5.80762e-05
-0.000214
7.6259e-05
-0.000175039
0.000104982
-0.000136731
0.000128928
-0.000125796
0.000155758
-0.000172692
0.000188678
-0.000242837
0.000133641
-0.000300692
4.23194e-05
-0.000314477
-1.69322e-05
-0.00029199
-3.00815e-05
-0.000251146
-1.8094e-05
-0.000218109
9.24839e-06
-0.000203527
1.57874e-05
-0.000190081
-4.84995e-05
-0.000192098
-0.000154132
-0.000194544
-0.000171558
-0.000197626
-0.000129125
-0.000209267
-7.07692e-05
-2.65046e-05
-0.000241682
-4.04209e-05
0.000105624
-0.000156955
0.000258514
-0.000257925
0.000231301
-0.000274624
9.0871e-05
-0.000253921
3.73733e-05
-0.00022949
5.18277e-05
-0.000203697
7.91897e-05
-0.000175179
0.00010041
-0.000164346
0.000144925
-0.000198402
0.000222734
-0.000246972
0.000182211
-0.00027259
6.79368e-05
-0.000280712
-8.80985e-06
-0.000269805
-4.0988e-05
-0.00024734
-4.05591e-05
-0.000215757
-2.23344e-05
-0.00018474
-1.52298e-05
-0.000175233
-5.80066e-05
-0.000188363
-0.000141002
-0.000201089
-0.000158832
-0.000193155
-0.000137058
-0.000176959
-8.69656e-05
-4.56027e-05
-0.000157861
-1.46771e-05
0.000120302
-0.000106094
0.000349931
-0.000175937
0.000301145
-0.00019833
0.000113264
-0.00022109
6.01328e-05
-0.000228402
5.91395e-05
-0.000215927
6.67153e-05
-0.000208466
9.29485e-05
-0.00022253
0.00015899
-0.000229422
0.000229625
-0.000232445
0.000185235
-0.000235376
7.0868e-05
-0.000243506
-6.80169e-07
-0.000251548
-3.2946e-05
-0.000251617
-4.049e-05
-0.000237944
-3.60072e-05
-0.000213444
-3.97294e-05
-0.000190333
-8.11178e-05
-0.000193231
-0.000138104
-0.000202052
-0.000150011
-0.000199919
-0.000139192
-0.00016943
-0.000117454
-8.84965e-05
-0.000126536
-1.23761e-05
0.000132678
-8.65782e-05
0.000424133
-0.000141443
0.00035601
-0.000197356
0.000169177
-0.000246875
0.000109652
-0.000272379
8.46435e-05
-0.000279725
7.40615e-05
-0.000284603
9.78272e-05
-0.000280223
0.00015461
-0.000247442
0.000196844
-0.000214915
0.000152708
-0.000207914
6.38663e-05
-0.00021484
6.24589e-06
-0.000224179
-2.36067e-05
-0.000224809
-3.98597e-05
-0.000215041
-4.57756e-05
-0.000194413
-6.03572e-05
-0.000176992
-9.8539e-05
-0.000179127
-0.000135969
-0.00018358
-0.000145558
-0.000191833
-0.000130938
-0.000190852
-0.000118435
-0.000122821
-0.000156528
-9.46289e-06
0.00014214
-7.65562e-05
0.000491227
-0.000120032
0.000399486
-0.000178252
0.000227397
-0.000229414
0.000160814
-0.000265415
0.000120645
-0.000289032
9.76785e-05
-0.000295521
0.000104316
-0.000274804
0.000133893
-0.000226996
0.000149037
-0.000186704
0.000112416
-0.00017443
5.15922e-05
-0.000174249
6.06459e-06
-0.000171764
-2.6091e-05
-0.000166156
-4.54684e-05
-0.000156066
-5.58652e-05
-0.000145289
-7.11342e-05
-0.000142358
-0.00010147
-0.000145363
-0.000132964
-0.000143703
-0.000147218
-0.000137822
-0.000136819
-0.00013692
-0.000119337
-0.000104308
-0.000155433
-1.04909e-05
0.000152631
-5.67463e-05
0.000537482
-8.71851e-05
0.000429925
-0.00013248
0.000272692
-0.000169079
0.000197413
-0.000195126
0.000146693
-0.000214451
0.000117003
-0.000221506
0.000111371
-0.000204188
0.000116575
-0.000165761
0.000110609
-0.000130905
7.75601e-05
-0.000112138
3.28256e-05
-0.000105135
-9.38605e-07
-0.000100786
-3.04402e-05
-9.76991e-05
-4.85552e-05
-9.1832e-05
-6.17325e-05
-8.6129e-05
-7.68373e-05
-8.87443e-05
-9.88546e-05
-9.91069e-05
-0.000122602
-0.000108311
-0.000138014
-0.000102812
-0.000142318
-8.0699e-05
-0.00014145
-0.000127754
-5.72533e-05
-1.10047e-05
0.000163636
-1.95039e-05
0.000545982
-5.11378e-05
0.000461559
-8.45559e-05
0.00030611
-0.00010749
0.000220348
-0.000121036
0.000160238
-0.000131854
0.000127822
-0.000137608
0.000117125
-0.000128858
0.000107826
-0.000107002
8.8753e-05
-8.58673e-05
5.64248e-05
-7.36571e-05
2.06153e-05
-6.5263e-05
-9.3329e-06
-6.12463e-05
-3.44571e-05
-5.65077e-05
-5.32939e-05
-5.02201e-05
-6.80202e-05
-4.49597e-05
-8.20979e-05
-4.52089e-05
-9.86055e-05
-5.28295e-05
-0.000114981
-6.34326e-05
-0.000127411
-7.0019e-05
-0.000135732
-7.2523e-05
-0.000138946
-0.000137314
-6.29642e-05
-2.06778e-06
0.000165704
4.86159e-05
0.000495298
-8.09624e-06
0.000518271
-4.42566e-05
0.000342271
-6.37243e-05
0.000239815
-7.5667e-05
0.000172181
-8.90077e-05
0.000141163
-0.000100746
0.000128863
-0.000104027
0.000111106
-9.97305e-05
8.44568e-05
-9.39271e-05
5.06212e-05
-8.93729e-05
1.6061e-05
-8.25479e-05
-1.61578e-05
-7.36243e-05
-4.3381e-05
-6.23601e-05
-6.45584e-05
-4.96341e-05
-8.07463e-05
-3.77774e-05
-9.39544e-05
-3.04504e-05
-0.000105933
-2.93622e-05
-0.000116069
-3.2684e-05
-0.000124089
-3.79586e-05
-0.000130457
-4.44974e-05
-0.000132406
-0.000135519
-4.62916e-05
3.88214e-06
0.000161822
4.25688e-05
0.000456612
1.31508e-05
0.000547689
-2.29577e-05
0.00037838
-4.19581e-05
0.000258816
-6.153e-05
0.000191753
-8.6478e-05
0.000166111
-0.000109803
0.000152188
-0.000126023
0.000127327
-0.000133744
9.2178e-05
-0.000133623
5.05002e-05
-0.000127135
9.57299e-06
-0.00011406
-2.92325e-05
-9.78631e-05
-5.95786e-05
-8.03472e-05
-8.20743e-05
-6.28539e-05
-9.82396e-05
-4.69236e-05
-0.000109884
-3.43796e-05
-0.000118476
-2.60212e-05
-0.000124428
-2.19426e-05
-0.000128168
-2.2104e-05
-0.000130296
-2.37509e-05
-0.00013076
-0.00013252
-2.675e-05
3.40193e-06
0.00015842
4.30779e-06
0.000455706
-6.54913e-06
0.000558546
-2.77075e-05
0.000399538
-4.2363e-05
0.000273472
-7.1614e-05
0.000221004
-0.000109486
0.000203983
-0.000145174
0.000187876
-0.000172229
0.000154381
-0.000186125
0.000106075
-0.000185774
5.01487e-05
-0.000172191
-4.00966e-06
-0.000150323
-5.11004e-05
-0.000124213
-8.56887e-05
-9.8412e-05
-0.000107876
-7.53153e-05
-0.000121336
-5.57673e-05
-0.000129433
-4.00965e-05
-0.000134147
-2.81789e-05
-0.000136346
-1.99028e-05
-0.000136444
-1.51195e-05
-0.000135079
-1.29693e-05
-0.00013291
-0.000131127
-1.43622e-05
-1.05572e-05
0.000168977
-5.36023e-05
0.000498751
-4.42788e-05
0.000549222
-4.50748e-05
0.000400334
-5.74557e-05
0.000285853
-9.60396e-05
0.000259587
-0.000145866
0.00025381
-0.000193429
0.000235439
-0.000229501
0.000190453
-0.000247718
0.000124291
-0.000245786
4.82173e-05
-0.000225837
-2.39593e-05
-0.00019286
-8.40778e-05
-0.000153511
-0.000125037
-0.000115873
-0.000145514
-8.46557e-05
-0.000152553
-6.05455e-05
-0.000153543
-4.25729e-05
-0.00015212
-2.946e-05
-0.000149458
-2.00662e-05
-0.000145838
-1.34867e-05
-0.000141659
-9.13588e-06
-0.000137261
-0.000132884
-7.37945e-06
-6.17756e-05
0.000230753
-9.09108e-05
0.000527886
-6.41489e-05
0.000522461
-5.72245e-05
0.00039341
-7.40618e-05
0.00030269
-0.000121086
0.000306612
-0.000179373
0.000312098
-0.000233223
0.000289289
-0.000272072
0.000229301
-0.000291397
0.000143617
-0.000289121
4.5941e-05
-0.000268334
-4.47461e-05
-0.00022919
-0.000123221
-0.000179347
-0.000174881
-0.000129837
-0.000195024
-8.93867e-05
-0.000193004
-5.97959e-05
-0.000183134
-3.92321e-05
-0.000172684
-2.54341e-05
-0.000163256
-1.64289e-05
-0.000154843
-1.07075e-05
-0.00014738
-7.13346e-06
-0.000140835
-0.000134989
-5.02812e-06
-3.38469e-05
0.0002646
-6.32427e-05
0.000557281
-5.15395e-05
0.000510758
-5.14276e-05
0.000393298
-7.70467e-05
0.000328309
-0.000126991
0.000356557
-0.000183173
0.000368279
-0.00023115
0.000337267
-0.000264077
0.000262229
-0.000282426
0.000161965
-0.000284014
4.75285e-05
-0.000269637
-5.91232e-05
-0.000234918
-0.00015794
-0.000185104
-0.000224695
-0.000130855
-0.000249273
-8.46959e-05
-0.000239164
-5.18005e-05
-0.000216029
-3.02023e-05
-0.000194282
-1.65486e-05
-0.00017691
-8.33316e-06
-0.000163059
-3.96825e-06
-0.000151745
-2.23652e-06
-0.000142567
-0.000135117
-2.10892e-06
-6.24532e-06
0.000270845
1.1048e-05
0.000539988
-1.4059e-05
0.000535865
-2.31025e-05
0.000402341
-5.59348e-05
0.000361142
-9.78118e-05
0.000398434
-0.000138239
0.000408706
-0.00017051
0.000369537
-0.000195815
0.000287534
-0.000213975
0.000180126
-0.000224726
5.8279e-05
-0.000217709
-6.61402e-05
-0.00019207
-0.000183579
-0.000152968
-0.000263797
-0.000106588
-0.000295653
-6.36534e-05
-0.000282098
-3.28699e-05
-0.000246813
-1.3727e-05
-0.000213425
-2.55164e-06
-0.000188085
3.44506e-06
-0.000169056
5.94518e-06
-0.000154245
5.97281e-06
-0.000142595
-0.000133376
4.23236e-06
1.92787e-06
0.000268917
1.8609e-05
0.000523307
1.3714e-05
0.00054076
6.42886e-06
0.000409626
-1.49786e-05
0.00038255
-3.20553e-05
0.00041551
-5.12932e-05
0.000427944
-6.61046e-05
0.000384349
-8.13075e-05
0.000302737
-9.71086e-05
0.000195927
-0.000113554
7.47241e-05
-0.000116235
-6.34593e-05
-0.000102868
-0.000196946
-7.84737e-05
-0.000288192
-5.03437e-05
-0.000323783
-2.2341e-05
-0.000310101
-8.83258e-07
-0.000268271
1.14255e-05
-0.000225734
1.70241e-05
-0.000193684
1.86959e-05
-0.000170728
1.8046e-05
-0.000153595
1.584e-05
-0.000140388
-0.000130023
1.24872e-05
4.0851e-06
0.000264832
1.82018e-05
0.00050919
3.30839e-05
0.000525878
2.95488e-05
0.000413162
3.18693e-05
0.00038023
5.1668e-05
0.000395712
6.93327e-05
0.00041028
7.4842e-05
0.00037884
7.11755e-05
0.000306404
6.0762e-05
0.00020634
4.87456e-05
8.67399e-05
3.72539e-05
-5.19682e-05
2.98846e-05
-0.000189577
3.08148e-05
-0.000289122
3.46595e-05
-0.000327628
3.94352e-05
-0.000314877
4.30154e-05
-0.000271851
4.31487e-05
-0.000225867
4.04973e-05
-0.000191033
3.64323e-05
-0.000166663
3.17069e-05
-0.00014887
2.66385e-05
-0.00013532
-0.000124728
2.13431e-05
7.154e-06
0.000257678
3.62628e-05
0.000480081
6.60033e-05
0.000496137
6.03563e-05
0.000418809
7.95164e-05
0.00036107
0.000128884
0.000346344
0.000184926
0.000354238
0.000223966
0.0003398
0.000241932
0.000288437
0.000243703
0.000204569
0.000235353
9.50896e-05
0.000214577
-3.11929e-05
0.00018522
-0.00016022
0.00015674
-0.000260642
0.000132224
-0.000303113
0.000110409
-0.000293062
9.24346e-05
-0.000253876
7.77679e-05
-0.000211201
6.54512e-05
-0.000178716
5.49057e-05
-0.000156117
4.57145e-05
-0.000139679
3.75455e-05
-0.000127151
-0.000117316
3.01329e-05
1.12023e-05
0.000246476
7.78483e-05
0.000413435
0.000116198
0.000457787
0.000130262
0.000404745
0.000159809
0.000331523
0.000213609
0.000292544
0.000284738
0.000283109
0.000348323
0.000276215
0.000388828
0.000247932
0.000404414
0.000188983
0.00039796
0.000101543
0.000370644
-3.8762e-06
0.000327375
-0.000116951
0.000275747
-0.000209015
0.000224417
-0.000251782
0.000177578
-0.000246223
0.000139161
-0.000215459
0.000110102
-0.000182142
8.85255e-05
-0.00015714
7.19264e-05
-0.000139518
5.86171e-05
-0.00012637
4.75892e-05
-0.000116123
-0.000107916
3.81893e-05
3.14701e-05
0.000215006
0.000105772
0.000339133
0.000180921
0.000382638
0.000243122
0.000342544
0.00029012
0.000284525
0.000339103
0.000243561
0.000398911
0.000223301
0.000458155
0.000216971
0.000501867
0.00020422
0.000520681
0.000170169
0.000512423
0.000109801
0.000480436
2.81109e-05
0.000428561
-6.50763e-05
0.000362931
-0.000143385
0.000292515
-0.000181367
0.000226942
-0.00018065
0.000173605
-0.000162122
0.000134425
-0.000142962
0.00010632
-0.000129035
8.53719e-05
-0.00011857
6.90461e-05
-0.000110044
5.58814e-05
-0.000102959
-9.69832e-05
4.49489e-05
2.99291e-05
0.000185077
9.70212e-05
0.00027204
0.000182727
0.000296932
0.000266707
0.000258564
0.000348904
0.000202329
0.000427046
0.000165419
0.00049506
0.000155287
0.000547861
0.00016417
0.000580377
0.000171705
0.00058976
0.000160785
0.000574606
0.000124954
0.000536936
6.57812e-05
0.000477782
-5.92287e-06
0.000402402
-6.80047e-05
0.000321088
-0.000100052
0.000247089
-0.000106651
0.000188766
-0.000103799
0.00014677
-0.000100966
0.000116539
-9.88038e-05
9.38192e-05
-9.58504e-05
7.60754e-05
-9.22999e-05
6.18033e-05
-8.86865e-05
-8.51906e-05
5.00106e-05
2.25259e-05
0.000162552
8.00891e-05
0.000214477
0.000162263
0.000214758
0.000246122
0.000174706
0.000327189
0.000121261
0.000405354
8.72539e-05
0.000475917
8.47242e-05
0.000532479
0.000107608
0.000567504
0.000136679
0.000576813
0.000151477
0.000560381
0.000141386
0.000520368
0.000105794
0.000459281
5.51639e-05
0.000382687
8.5897e-06
0.000303924
-2.12895e-05
0.000235998
-3.8724e-05
0.00018443
-5.2231e-05
0.000146997
-6.35334e-05
0.000118896
-7.07027e-05
9.69701e-05
-7.39241e-05
7.94434e-05
-7.47732e-05
6.51373e-05
-7.43804e-05
-7.32611e-05
5.32078e-05
2.28463e-05
0.000139706
6.47879e-05
0.000172535
0.000127902
0.000151643
0.000195497
0.000107111
0.000258901
5.78576e-05
0.000319903
2.62528e-05
0.000377375
2.7252e-05
0.000426153
5.88304e-05
0.000458084
0.000104747
0.000467978
0.000141583
0.000455377
0.000153988
0.000422245
0.000138926
0.000371354
0.000106055
0.000310062
6.9882e-05
0.000250968
3.78048e-05
0.000203338
8.9057e-06
0.00016693
-1.58226e-05
0.000138336
-3.49397e-05
0.000114916
-4.72823e-05
9.55629e-05
-5.45713e-05
7.95053e-05
-5.87156e-05
6.60436e-05
-6.09187e-05
-6.18217e-05
5.46041e-05
2.12928e-05
0.000118413
5.25346e-05
0.000141293
9.10999e-05
0.000113078
0.000128145
7.00663e-05
0.000160594
2.54083e-05
0.000192232
-5.38549e-06
0.000222869
-3.38464e-06
0.000253297
2.84025e-05
0.000277729
8.0316e-05
0.000292331
0.000126981
0.000293556
0.000152762
0.000280013
0.00015247
0.000253735
0.000132332
0.000221548
0.00010207
0.000191543
6.78091e-05
0.000166428
3.40205e-05
0.000145037
5.56941e-06
0.000125036
-1.49389e-05
0.000106877
-2.91239e-05
9.08815e-05
-3.85755e-05
7.69865e-05
-4.48205e-05
6.49332e-05
-4.88654e-05
-5.13211e-05
5.44326e-05
1.84975e-05
9.99155e-05
4.13086e-05
0.000118482
6.2707e-05
9.16793e-05
7.60087e-05
5.67648e-05
8.00638e-05
2.13531e-05
8.07337e-05
-6.0553e-06
8.48862e-05
-7.53719e-06
9.54614e-05
1.78274e-05
0.000111349
6.44284e-05
0.000129381
0.000108949
0.0001441
0.000138043
0.000151901
0.000144669
0.000152664
0.000131569
0.000149292
0.000105443
0.000143689
7.3412e-05
0.000135096
4.26135e-05
0.000123392
1.72734e-05
0.000110199
-1.74616e-06
9.68343e-05
-1.57594e-05
8.42289e-05
-2.59701e-05
7.27035e-05
-3.3295e-05
6.23181e-05
-3.84799e-05
-4.20184e-05
5.30154e-05
1.4764e-05
8.51512e-05
3.1535e-05
0.00010171
4.43017e-05
7.89127e-05
4.76038e-05
5.34627e-05
3.89311e-05
3.0026e-05
2.21684e-05
1.07075e-05
8.25259e-06
6.37859e-06
2.84956e-06
2.32307e-05
1.09831e-05
5.6295e-05
2.76321e-05
9.23004e-05
5.01266e-05
0.000115549
7.23714e-05
0.000122424
9.11271e-05
0.000112814
0.000104467
9.21027e-05
0.000110672
6.72071e-05
0.000109886
4.33995e-05
0.000104069
2.30902e-05
9.57362e-05
6.5866e-06
8.62655e-05
-6.28867e-06
7.66516e-05
-1.63562e-05
6.73835e-05
-2.40269e-05
5.86981e-05
-2.97945e-05
-3.40142e-05
5.06938e-05
1.07806e-05
7.43705e-05
2.30597e-05
8.94311e-05
3.17005e-05
7.02718e-05
3.30593e-05
5.21039e-05
2.44045e-05
3.8681e-05
6.96706e-06
2.8145e-05
-1.16839e-05
2.50298e-05
-2.30774e-05
3.46244e-05
-2.1524e-05
5.47417e-05
-6.50391e-06
7.72805e-05
1.60203e-05
9.30249e-05
4.13068e-05
9.7138e-05
6.37799e-05
9.03407e-05
7.97249e-05
7.61578e-05
8.81008e-05
5.88311e-05
9.00821e-05
4.14181e-05
8.76674e-05
2.55048e-05
8.25438e-05
1.17101e-05
7.60607e-05
1.94425e-07
6.88854e-05
-9.18093e-06
6.1596e-05
-1.67375e-05
5.44999e-05
-2.26984e-05
-2.72956e-05
4.77812e-05
7.47379e-06
6.68967e-05
1.64488e-05
8.0456e-05
2.27119e-05
6.40088e-05
2.39801e-05
5.08357e-05
1.92481e-05
4.34133e-05
8.53988e-06
3.88535e-05
-4.46706e-06
3.80371e-05
-1.32969e-05
4.34545e-05
-1.28296e-05
5.42746e-05
-2.26447e-06
6.67156e-05
1.51201e-05
7.56406e-05
3.46673e-05
7.75911e-05
5.19735e-05
7.30346e-05
6.45035e-05
6.36278e-05
7.17817e-05
5.15528e-05
7.45678e-05
3.86318e-05
7.3973e-05
2.60994e-05
7.10212e-05
1.46619e-05
6.6632e-05
4.58364e-06
6.13753e-05
-3.9241e-06
5.57397e-05
-1.11019e-05
5.00507e-05
-1.70093e-05
-2.17715e-05
4.45264e-05
5.17196e-06
6.17248e-05
1.17168e-05
7.39112e-05
1.63283e-05
5.93975e-05
1.75905e-05
4.95737e-05
1.55012e-05
4.55027e-05
1.04375e-05
4.39176e-05
4.21155e-06
4.42635e-05
1.95265e-07
4.7471e-05
1.1792e-06
5.32909e-05
8.21361e-06
5.96815e-05
1.9811e-05
6.40435e-05
3.27546e-05
6.46475e-05
4.45338e-05
6.12555e-05
5.36145e-05
5.4547e-05
5.94992e-05
4.56678e-05
6.23629e-05
3.57678e-05
6.27042e-05
2.5758e-05
6.11232e-05
1.62429e-05
5.81477e-05
7.55925e-06
5.43549e-05
-1.31305e-07
5.00514e-05
-6.79835e-06
4.55573e-05
-1.25152e-05
-1.72954e-05
4.10812e-05
3.65663e-06
5.80682e-05
8.62543e-06
6.89427e-05
1.21623e-05
5.58608e-05
1.34162e-05
4.83201e-05
1.26793e-05
4.62399e-05
1.05958e-05
4.60016e-05
8.21423e-06
4.66453e-05
7.20095e-06
4.84845e-05
9.04948e-06
5.14425e-05
1.42078e-05
5.45233e-05
2.1863e-05
5.63884e-05
3.04966e-05
5.60139e-05
3.86697e-05
5.30822e-05
4.53557e-05
4.78608e-05
5.00463e-05
4.0977e-05
5.26644e-05
3.31495e-05
5.34127e-05
2.50095e-05
5.2626e-05
1.70296e-05
5.06696e-05
9.51569e-06
4.79319e-05
2.60642e-06
4.4657e-05
-3.52348e-06
4.11085e-05
-8.96666e-06
-1.36618e-05
3.7475e-05
2.79047e-06
5.52778e-05
6.69689e-06
6.50365e-05
9.52756e-06
5.30304e-05
1.07499e-05
4.7098e-05
1.07582e-05
4.62319e-05
1.0177e-05
4.65829e-05
9.75398e-06
4.70685e-05
1.02932e-05
4.79453e-05
1.24695e-05
4.92662e-05
1.64782e-05
5.05146e-05
2.19267e-05
5.09398e-05
2.80227e-05
4.99177e-05
3.39129e-05
4.71919e-05
3.89072e-05
4.28662e-05
4.25939e-05
3.72899e-05
4.48351e-05
3.0908e-05
4.5696e-05
2.41486e-05
4.53622e-05
1.73634e-05
4.40696e-05
1.08084e-05
4.20253e-05
4.65069e-06
3.95034e-05
-1.00167e-06
3.66513e-05
-6.11448e-06
-1.06436e-05
3.36332e-05
2.32125e-06
5.29566e-05
5.50901e-06
6.18489e-05
7.82968e-06
5.07101e-05
9.05511e-06
4.58727e-05
9.56709e-06
4.572e-05
9.87003e-06
4.62799e-05
1.0414e-05
4.65243e-05
1.16202e-05
4.67391e-05
1.38085e-05
4.70778e-05
1.70526e-05
4.72704e-05
2.11339e-05
4.68582e-05
2.56035e-05
4.5448e-05
2.99395e-05
4.28557e-05
3.36877e-05
3.91178e-05
3.65449e-05
3.44325e-05
3.83741e-05
2.90787e-05
3.91754e-05
2.33471e-05
3.90413e-05
1.74975e-05
3.81105e-05
1.17392e-05
3.65357e-05
6.22537e-06
3.44916e-05
1.0424e-06
3.20856e-05
-3.70847e-06
-8.02185e-06
2.94639e-05
2.1268e-06
5.08299e-05
4.76147e-06
5.92145e-05
6.72784e-06
4.8744e-05
7.93805e-06
4.46625e-05
8.76329e-06
4.48947e-05
9.57447e-06
4.54686e-05
1.06162e-05
4.54825e-05
1.20849e-05
4.52703e-05
1.41314e-05
4.50313e-05
1.67868e-05
4.46149e-05
1.99202e-05
4.37248e-05
2.3262e-05
4.21061e-05
2.64855e-05
3.96322e-05
2.92902e-05
3.6313e-05
3.14576e-05
3.22649e-05
3.28694e-05
2.76668e-05
3.34975e-05
2.27189e-05
3.33812e-05
1.76136e-05