/*--------------------------------*- C++ -*----------------------------------*\
| =========                 |                                                 |
| \\      /  F ield         | OpenFOAM: The Open Source CFD Toolbox           |
|  \\    /   O peration     | Version:  2206                                  |
|   \\  /    A nd           | Website:  www.openfoam.com                      |
|    \\/     M anipulation  |                                                 |
\*---------------------------------------------------------------------------*/
FoamFile
{
    version     2.0;
    format      ascii;
    arch        "LSB;label=32;scalar=64";
    class       surfaceScalarField;
    location    "0.525";
    object      alphaPhi0.water;
}
// * * * * * * * * * * * * * * * * * * * * * * * * * * * * * * * * * * * * * //

dimensions      [0 3 -1 0 0 0 0];

oriented        oriented;

internalField   nonuniform List<scalar> 
4432
(
-3.64226e-06
3.64226e-06
-5.42981e-06
1.78755e-06
-4.0208e-06
-1.40901e-06
-4.81429e-07
-3.53938e-06
4.40026e-06
-4.88169e-06
9.70393e-06
-5.30367e-06
1.44651e-05
-4.76113e-06
1.80915e-05
-3.62643e-06
2.04806e-05
-2.3891e-06
2.18041e-05
-1.32353e-06
2.22823e-05
-4.78209e-07
2.20516e-05
2.30721e-07
2.11508e-05
9.00815e-07
1.95786e-05
1.57218e-06
1.71462e-05
2.43236e-06
1.34661e-05
3.68011e-06
8.14482e-06
5.32131e-06
1.4694e-06
6.67542e-06
-3.64085e-06
5.50188e-06
-8.17853e-06
4.50147e-06
-1.53914e-05
6.66661e-06
-1.5439e-05
-1.08806e-06
-1.5439e-05
-3.97944e-06
7.6217e-06
-5.09865e-06
2.90675e-06
-3.46968e-06
-3.03797e-06
3.6955e-08
-7.04602e-06
4.78629e-06
-9.63102e-06
1.00222e-05
-1.05396e-05
1.47199e-05
-9.45885e-06
1.82701e-05
-7.17658e-06
2.05924e-05
-4.71142e-06
2.18939e-05
-2.62506e-06
2.24425e-05
-1.02675e-06
2.25e-05
1.73228e-07
2.22887e-05
1.11204e-06
2.18875e-05
1.97346e-06
2.13215e-05
2.99832e-06
2.03942e-05
4.60737e-06
1.84071e-05
7.30841e-06
1.39907e-05
1.10919e-05
6.18986e-06
1.33027e-05
-3.47725e-06
1.50093e-05
-1.06078e-05
1.33058e-05
-9.25561e-06
-2.78577e-06
-2.46946e-05
-3.26306e-06
1.08848e-05
-4.01347e-06
3.65717e-06
-2.48508e-06
-4.56637e-06
6.28731e-07
-1.01598e-05
5.08162e-06
-1.40839e-05
1.01645e-05
-1.56225e-05
1.4753e-05
-1.40473e-05
1.81514e-05
-1.05751e-05
2.03076e-05
-6.86759e-06
2.14899e-05
-3.80738e-06
2.19789e-05
-1.51571e-06
2.19834e-05
1.68691e-07
2.16266e-05
1.46888e-06
2.10342e-05
2.56584e-06
2.03454e-05
3.68716e-06
1.97867e-05
5.16602e-06
1.95959e-05
7.49921e-06
1.90357e-05
1.16521e-05
1.57332e-05
1.66053e-05
8.75714e-06
2.20003e-05
9.05342e-09
2.16189e-05
-1.21228e-06
-1.52616e-06
-2.59069e-05
-2.21779e-06
1.31025e-05
-2.45802e-06
3.8974e-06
-1.07702e-06
-5.94737e-06
1.46372e-06
-1.27006e-05
5.42566e-06
-1.80458e-05
1.02273e-05
-2.04241e-05
1.46266e-05
-1.84466e-05
1.7833e-05
-1.37815e-05
1.9813e-05
-8.84752e-06
2.08841e-05
-4.87855e-06
2.13548e-05
-1.98639e-06
2.14159e-05
1.07609e-07
2.11836e-05
1.70119e-06
2.07224e-05
3.027e-06
2.00969e-05
4.31272e-06
1.94345e-05
5.82838e-06
1.90899e-05
7.84385e-06
1.95888e-05
1.11531e-05
2.00986e-05
1.60955e-05
1.89758e-05
2.31231e-05
1.48386e-05
2.64049e-05
8.52562e-06
5.48111e-06
-1.73267e-05
-8.30229e-07
1.39328e-05
-1.78849e-07
3.24602e-06
1.22821e-06
-7.35443e-06
3.46107e-06
-1.49334e-05
6.88602e-06
-2.14708e-05
1.10108e-05
-2.45489e-05
1.47591e-05
-2.21949e-05
1.74579e-05
-1.64803e-05
1.91361e-05
-1.05257e-05
2.01007e-05
-5.84317e-06
2.06032e-05
-2.48891e-06
2.07824e-05
-7.15583e-08
2.07257e-05
1.75795e-06
2.04815e-05
3.27112e-06
2.01021e-05
4.69215e-06
1.96625e-05
6.26795e-06
1.93121e-05
8.19431e-06
1.95662e-05
1.0899e-05
2.09751e-05
1.46866e-05
2.32038e-05
2.08944e-05
2.33457e-05
2.64248e-05
1.52159e-05
1.37451e-05
-2.10016e-06
1.10218e-06
1.28306e-05
3.19921e-06
1.14898e-06
5.43871e-06
-9.59392e-06
8.06169e-06
-1.75564e-05
1.09161e-05
-2.43252e-05
1.3638e-05
-2.72709e-05
1.59042e-05
-2.4461e-05
1.7502e-05
-1.80781e-05
1.85451e-05
-1.15689e-05
1.92688e-05
-6.56683e-06
1.97904e-05
-3.01049e-06
2.01459e-05
-4.27036e-07
2.03139e-05
1.58988e-06
2.03021e-05
3.28295e-06
2.01589e-05
4.83538e-06
1.99655e-05
6.46128e-06
1.98758e-05
8.28406e-06
2.00843e-05
1.06905e-05
2.10519e-05
1.3719e-05
2.36572e-05
1.82891e-05
2.54307e-05
2.46513e-05
1.82115e-05
2.09642e-05
1.6109e-05
3.53355e-06
9.29704e-06
7.82954e-06
-3.14701e-06
1.22458e-05
-1.40101e-05
1.5837e-05
-2.11476e-05
1.7702e-05
-2.61902e-05
1.81438e-05
-2.77126e-05
1.82258e-05
-2.45431e-05
1.83571e-05
-1.82094e-05
1.85595e-05
-1.17713e-05
1.88607e-05
-6.86811e-06
1.9224e-05
-3.37378e-06
1.95995e-05
-8.02543e-07
1.99721e-05
1.21733e-06
2.01918e-05
3.06328e-06
2.02902e-05
4.73696e-06
2.03121e-05
6.4394e-06
2.04577e-05
8.13841e-06
2.08602e-05
1.0288e-05
2.15239e-05
1.30553e-05
2.33275e-05
1.64855e-05
2.52765e-05
2.27023e-05
2.06625e-05
2.55782e-05
3.67692e-05
5.92455e-06
3.37249e-06
1.34299e-05
-1.06523e-05
2.08281e-05
-2.14075e-05
2.47505e-05
-2.5069e-05
2.46159e-05
-2.60543e-05
2.24018e-05
-2.54971e-05
2.04978e-05
-2.26382e-05
1.95777e-05
-1.72889e-05
1.93192e-05
-1.15126e-05
1.93933e-05
-6.94222e-06
1.96328e-05
-3.61331e-06
1.98387e-05
-1.00841e-06
1.99806e-05
1.07546e-06
2.01971e-05
2.84671e-06
2.03643e-05
4.56976e-06
2.05564e-05
6.24733e-06
2.09688e-05
7.72599e-06
2.16542e-05
9.60262e-06
2.24583e-05
1.22513e-05
2.37311e-05
1.52126e-05
2.52469e-05
2.11865e-05
2.18153e-05
2.90098e-05
5.85821e-05
1.06815e-05
-2.16934e-05
1.41399e-05
-1.60659e-05
1.94155e-06
-1.40101e-06
6.36138e-07
3.84495e-07
-5.63077e-09
5.84095e-07
-8.34878e-08
2.01828e-08
-3.63572e-08
-1.04805e-07
-1.21022e-06
1.00341e-06
-5.83664e-05
5.76982e-06
-8.47817e-05
9.57541e-06
-8.23799e-05
1.52983e-07
-7.24197e-05
-1.23795e-06
-9.4407e-05
-2.87672e-06
-0.000105763
-5.51982e-06
-0.000102947
-1.01854e-05
-8.82395e-05
-1.71677e-05
-7.06036e-05
-1.84414e-05
-2.59812e-05
-4.37777e-05
-2.80384e-05
8.88786e-06
-3.27857e-05
1.61568e-06
-4.36385e-06
2.75916e-07
-3.15948e-07
8.04403e-07
2.23176e-07
4.38479e-07
1.26277e-06
-2.78166e-08
7.76395e-07
-7.3959e-07
4.36519e-07
-1.5038e-05
5.00133e-06
-2.01405e-05
1.14949e-06
-2.51165e-06
1.27147e-06
-3.48658e-07
-9.55129e-09
-1.54675e-06
-3.96447e-08
-4.27392e-06
-1.50073e-07
-9.33009e-06
-4.70304e-07
-3.38495e-05
-1.91608e-06
-6.32311e-05
-6.79633e-06
-7.35132e-05
-1.82398e-05
-2.62601e-05
-9.20294e-05
-5.48298e-05
1.44009e-06
-3.45441e-05
2.39412e-08
-3.33789e-06
5.31032e-08
-5.70654e-07
1.42525e-07
1.07089e-08
3.58602e-07
5.94864e-07
-9.00136e-09
2.28094e-06
-5.42507e-06
2.43544e-06
-9.00311e-06
7.62448e-06
-1.17197e-06
-7.58412e-07
-2.24984e-08
1.2265e-07
-3.16427e-08
-3.82016e-10
-6.7477e-08
-3.8547e-09
-2.02816e-07
-1.52654e-08
-6.25177e-07
-5.04269e-08
-2.30588e-06
-2.42843e-07
-7.71267e-06
-1.43039e-06
-1.97419e-05
-6.46171e-06
-3.39621e-05
-0.000105324
-0.000121354
-6.23508e-06
-4.46216e-05
-3.94001e-07
-4.00324e-05
2.53927e-07
-1.53687e-06
6.33303e-08
-6.90918e-08
9.01055e-08
3.50681e-07
5.63352e-08
1.24726e-06
-3.6301e-06
1.99702e-06
-3.58569e-06
5.0452e-06
-1.19868e-07
9.1519e-07
-3.73965e-09
6.70379e-09
-3.92125e-09
-1.72677e-10
-7.32314e-09
-4.24732e-10
-2.12527e-08
-1.48633e-09
-6.60311e-08
-6.20366e-09
-2.74398e-07
-3.77751e-08
-1.39553e-06
-3.27006e-07
-4.89967e-06
-3.05439e-06
-4.08005e-05
-8.59517e-05
-0.000162077
-1.60497e-05
-5.2739e-05
-5.03457e-06
-0.000130564
1.91852e-07
-2.91774e-05
1.2416e-07
-2.19117e-07
3.52935e-08
2.21873e-07
-7.00498e-08
1.05885e-06
-2.40898e-06
1.65268e-06
-1.63537e-06
9.3393e-07
-6.70399e-09
7.13725e-07
-8.11639e-10
8.34932e-10
-8.31193e-10
-1.30817e-10
-6.79895e-10
-5.94121e-10
-2.0052e-09
-2.24996e-10
-7.82171e-09
-4.03656e-10
-4.33636e-08
-2.94832e-09
-3.37904e-07
-3.87333e-08
-2.20613e-06
-1.20248e-06
-3.06342e-05
-5.21808e-05
-0.000192668
-3.3217e-06
-4.94172e-05
-2.6235e-06
-0.000131262
-1.55044e-06
-0.000162663
3.1164e-07
-2.32967e-06
1.25755e-08
3.03281e-07
-5.37724e-08
8.76103e-07
-1.0456e-06
2.9462e-06
-5.16533e-07
2.76759e-07
-1.19578e-09
3.29427e-07
-8.22291e-10
5.14463e-10
-8.2464e-10
-1.45367e-10
-2.30128e-10
-1.25303e-09
-1.44718e-10
-3.49458e-10
-4.54019e-10
-9.28433e-11
-3.4142e-09
-1.86815e-11
-4.21416e-08
-1.54109e-12
-1.12995e-06
-1.18884e-07
-2.56168e-05
-2.85142e-05
-0.000218101
1.16803e-05
-6.10975e-05
1.17543e-05
-0.000131338
2.91281e-07
-0.000170805
8.92071e-07
-2.30389e-05
1.04126e-07
8.41918e-07
-5.00595e-08
7.77961e-07
-3.13853e-07
4.12536e-06
-2.02444e-07
2.1824e-06
-3.83478e-09
1.32179e-07
-2.99125e-09
1.30023e-09
-2.93303e-09
-1.44477e-10
-4.94693e-10
-3.69413e-09
-7.77494e-11
-7.73153e-10
-2.97418e-12
-1.71575e-10
-4.89712e-13
-2.22212e-11
9.46031e-14
-3.1391e-12
-1.1855e-07
-7.18881e-13
-1.88662e-05
-1.0891e-05
-0.000236567
2.71727e-05
-8.82554e-05
2.55954e-05
-0.000129758
1.39296e-05
-0.000159138
8.03695e-07
-5.53053e-05
1.80031e-07
1.21359e-06
3.4244e-08
7.0645e-07
-2.24173e-07
4.67145e-06
-1.69522e-07
3.55937e-06
-5.27879e-09
1.33441e-07
-6.55014e-09
3.28215e-09
-1.10761e-08
1.29773e-09
-1.73481e-09
-9.21169e-09
-2.58911e-10
-2.27091e-09
-2.17325e-11
-4.17989e-10
-2.55412e-12
-4.04853e-11
6.37022e-13
-2.88576e-12
2.16623e-13
-1.47706e-12
-1.03241e-05
-1.12188e-06
-0.000243301
2.05064e-05
-1.71078e-05
4.3299e-05
-2.88356e-05
5.34713e-05
-2.10298e-05
5.28691e-05
-1.13095e-05
4.81801e-05
-9.01609e-06
4.30547e-05
-1.05174e-05
3.89725e-05
-1.21017e-05
3.78785e-05
-1.19516e-05
3.93417e-05
-1.04701e-05
4.16742e-05
-8.32115e-06
4.38269e-05
-5.72826e-06
4.5498e-05
-2.67953e-06
4.66551e-05
-8.03396e-08
4.64872e-05
3.01461e-06
4.58908e-05
5.16616e-06
4.5256e-05
6.8821e-06
4.58381e-05
7.1439e-06
4.75806e-05
7.86008e-06
5.01793e-05
9.65263e-06
5.42163e-05
1.11756e-05
6.2254e-05
1.31489e-05
7.71905e-05
1.40733e-05
2.36402e-05
0.000112136
1.58151e-05
-1.58581e-22
1.06512e-05
-3.80975e-21
5.52901e-06
-2.62596e-17
3.87509e-06
-1.46553e-15
4.44826e-06
-4.84592e-14
4.424e-06
-1.61505e-12
3.73122e-06
-4.70567e-11
4.24017e-06
-1.06421e-09
7.38488e-06
-2.06325e-08
1.37115e-05
-3.43547e-07
2.37739e-05
-3.43677e-06
3.46916e-05
-3.67339e-06
4.36164e-05
-2.35136e-06
4.89838e-05
4.7331e-07
4.95216e-05
4.62843e-06
4.79779e-05
8.42572e-06
4.87287e-05
6.3931e-06
5.03634e-05
6.22544e-06
5.27313e-05
7.28469e-06
5.74103e-05
6.49661e-06
6.51994e-05
5.35971e-06
7.5476e-05
3.79675e-06
2.23377e-06
9.68825e-05
3.87405e-23
-2.91822e-22
2.69664e-23
-3.8886e-21
-2.62504e-17
-9.44473e-21
-1.49026e-15
-5.74259e-20
-4.99367e-14
-1.17948e-17
-1.66427e-12
-7.68706e-16
-4.87143e-11
1.27418e-15
-1.11293e-09
-2.31705e-18
-2.17455e-08
-1.29768e-14
-3.65292e-07
-6.07694e-13
-1.0153e-06
-1.65237e-11
-1.13881e-06
-3.855e-10
6.61841e-07
-6.61934e-09
6.11117e-06
-9.19135e-08
1.62485e-05
-5.09576e-07
3.26612e-05
-5.44235e-07
5.11157e-05
-1.22534e-06
5.51149e-05
2.78989e-06
5.4984e-05
7.4156e-06
5.70942e-05
4.38642e-06
6.13147e-05
1.1392e-06
6.7302e-05
-2.19055e-06
-8.6246e-06
7.81604e-05
-2.72152e-22
-1.08772e-22
-1.55944e-20
-5.09802e-22
-1.17485e-19
2.20614e-21
-2.43458e-19
1.91394e-20
-1.14607e-17
-2.16983e-18
-1.03607e-15
-1.36182e-18
-2.4869e-17
8.10359e-18
-1.32944e-16
1.72863e-18
-1.15043e-14
-1.79642e-15
-4.3749e-13
-1.81627e-13
-1.59466e-11
-1.01165e-12
-4.01054e-10
-4.05126e-13
-7.02029e-09
-1.41075e-13
-9.89077e-08
-2.60589e-11
-6.07545e-07
-9.36223e-10
-1.03248e-06
-8.19033e-09
-5.90138e-07
-4.49615e-08
7.10762e-06
-7.36567e-07
2.52428e-05
-1.97068e-06
4.95651e-05
-3.76178e-06
6.29395e-05
-4.26619e-06
6.89518e-05
-5.38329e-06
-1.22248e-05
7.4408e-05
-1.14304e-22
-3.7878e-23
-7.05932e-22
-1.89398e-21
-2.35872e-20
-2.51774e-20
-1.4425e-18
-3.893e-19
-6.67789e-18
-9.32692e-18
-8.57234e-18
-3.34311e-18
-5.3551e-18
1.35189e-18
-6.93714e-17
-2.9711e-18
-3.52958e-15
-6.24956e-15
-8.15495e-14
-6.84751e-13
-8.30276e-14
-3.25981e-12
-2.06294e-13
-3.24238e-13
-4.04118e-13
1.82588e-14
-2.65143e-11
5.1983e-14
-2.65198e-10
-6.97489e-10
-2.18883e-09
-6.26418e-09
-4.14902e-08
-5.55489e-09
-7.74438e-07
-2.64946e-09
-3.8772e-07
-4.55696e-09
-4.62759e-08
-4.16599e-09
3.65169e-06
-4.35589e-09
1.35647e-05
-4.56388e-09
-1.00324e-08
3.27523e-05
-3.10395e-23
-1.02951e-23
-3.93858e-21
-4.91644e-21
-3.4467e-19
-2.67357e-19
-1.43211e-17
-3.58984e-18
-4.676e-17
-1.73891e-17
-5.00959e-17
-1.36266e-17
-2.46324e-17
-1.7571e-19
-1.62436e-17
-4.24019e-17
-3.01948e-13
-4.7012e-14
-2.60992e-12
-2.08093e-12
-1.25402e-12
-4.47216e-12
2.04843e-14
-2.18321e-12
5.50877e-14
-9.55635e-16
9.06185e-14
1.56935e-14
-3.93059e-10
-1.75441e-10
-1.08864e-09
-3.67847e-09
-5.2215e-10
-3.62908e-09
-1.71886e-10
-1.39157e-09
-2.5043e-10
-2.78497e-09
-4.01736e-10
-2.23028e-09
-5.0315e-10
-2.36595e-09
-3.55782e-10
-2.72236e-09
-1.89566e-09
-6.37671e-09
-1.72745e-23
-8.49684e-25
-1.22259e-20
-1.12708e-21
-1.1293e-18
-1.55631e-19
-1.62633e-17
-3.48122e-18
-5.84256e-17
-1.6937e-17
-6.91082e-17
-2.5018e-17
-3.06657e-17
-1.51973e-17
-6.96774e-17
-1.6545e-17
-6.24793e-13
-1.7842e-15
-3.18851e-12
-1.94166e-12
-3.90644e-12
-3.61069e-12
-7.79003e-14
-4.12725e-12
-8.5798e-15
-7.10332e-14
8.27919e-15
-1.91504e-15
5.9655e-10
-7.6379e-14
3.65958e-10
-1.53514e-09
5.58116e-12
-2.88743e-11
2.06664e-10
-3.55636e-14
8.7499e-10
-1.34971e-09
3.14141e-09
3.46232e-10
4.18395e-09
4.50731e-10
4.49934e-09
4.0196e-10
-8.38897e-10
6.05312e-09
-1.59507e-24
5.93008e-25
-1.6543e-21
-1.34262e-22
-4.25249e-19
-3.60551e-20
-1.07979e-17
-1.66716e-18
-4.57935e-17
-1.40296e-17
-6.53761e-17
-3.12739e-17
-5.47292e-17
-2.80998e-17
-5.20326e-17
-2.24372e-17
-1.69962e-15
-1.07969e-16
-1.44306e-12
-3.07339e-13
-2.82981e-12
-2.0804e-12
-7.79957e-13
-1.22799e-12
-1.17041e-14
-8.8519e-14
1.59627e-14
-4.84774e-14
2.02568e-14
-9.87956e-14
2.8897e-11
-5.93216e-14
2.83258e-14
-3.46429e-15
1.50975e-15
-1.13942e-14
5.00507e-10
-2.96818e-09
2.8089e-09
-1.10403e-08
5.76563e-09
-9.93776e-09
9.64545e-09
-8.5971e-09
-3.85296e-09
1.55352e-08
-2.91273e-23
-6.62844e-24
-1.46039e-22
-4.1263e-23
-8.06572e-20
-6.85838e-21
-3.71538e-18
-4.71632e-19
-2.70622e-17
-5.60887e-18
-5.15126e-17
-2.34358e-17
-4.21792e-17
-4.04015e-17
-2.57701e-17
-4.95501e-17
-1.01205e-16
-5.70868e-17
-1.06665e-13
-1.45094e-15
-3.89836e-14
-7.49865e-15
-2.23933e-14
-2.10641e-14
-1.45068e-14
-3.02976e-14
3.89464e-14
-2.40185e-13
4.38808e-14
-1.6106e-13
1.49586e-16
-1.3481e-14
3.65451e-17
-1.05514e-16
4.26816e-13
-4.36064e-13
1.13781e-09
-2.86874e-09
4.31387e-09
-1.8355e-08
4.69794e-09
-2.00048e-08
5.40566e-09
-1.81362e-08
-2.70358e-09
2.65301e-09
-2.44497e-24
-3.62152e-23
-1.96464e-22
1.52756e-22
-1.36266e-20
-1.2851e-21
-6.81271e-19
-1.22701e-19
-6.70869e-18
-1.64433e-18
-3.14943e-17
-9.60471e-18
-4.63323e-17
-3.91125e-17
-2.86725e-17
-7.0362e-17
-9.53269e-18
-9.83499e-17
1.51737e-18
-1.48167e-15
5.17844e-18
-7.488e-15
6.30117e-17
-2.0977e-14
1.85035e-15
-3.53764e-14
4.52158e-14
-2.11914e-13
1.29937e-14
-1.23831e-13
5.94401e-16
-2.49299e-15
7.42594e-16
-8.84597e-17
-4.29645e-13
-4.00188e-15
-4.91138e-12
-1.86498e-11
-1.09288e-09
-1.42481e-09
-2.09267e-09
-2.60895e-08
-6.0129e-10
-2.86194e-08
-1.14423e-08
3.25717e-10
1.52553e-23
-6.46651e-23
-2.37363e-22
2.49127e-22
-2.59407e-21
-2.41971e-22
-1.31683e-19
-2.72199e-20
-1.30755e-18
-4.03139e-19
-1.08321e-17
-2.98e-18
-3.69345e-17
-2.55155e-17
-2.86534e-17
-7.57489e-17
-3.96705e-17
-9.29289e-17
1.28913e-16
-1.55938e-15
1.10697e-15
-1.38597e-14
2.76012e-15
-4.90276e-14
3.62749e-15
-5.77181e-14
6.30985e-15
-6.2061e-14
-4.14729e-17
-1.09563e-14
-9.52329e-18
-9.11191e-16
5.10104e-18
-7.62232e-17
-3.67899e-15
-3.07023e-16
-1.84533e-11
-1.98532e-13
-1.42181e-09
-2.07885e-11
-3.50182e-09
-2.09997e-09
-1.97422e-08
-2.13366e-08
-2.68579e-08
-9.39165e-09
1.75819e-23
-7.51086e-23
-3.29064e-23
2.15503e-22
-4.39013e-22
-5.47149e-23
-2.37585e-20
-4.93352e-21
-2.3297e-19
-8.52239e-20
-3.99692e-18
-6.8251e-19
-2.95901e-17
-9.41759e-18
-2.78988e-17
-4.48785e-17
-5.53139e-17
-7.73465e-17
-6.52304e-16
-8.66443e-16
-3.78269e-15
-1.48399e-14
-4.60867e-15
-4.46076e-14
-2.3585e-15
-4.0057e-14
-6.88093e-16
-1.24907e-15
-2.33682e-16
-7.34635e-16
-2.41786e-17
-6.26242e-16
-1.28567e-17
-6.02718e-17
-3.15405e-16
-6.40337e-18
-1.98111e-13
-7.63917e-16
-2.09089e-11
-7.90325e-14
-2.11692e-09
-4.01535e-12
-6.98814e-09
-1.4396e-10
-2.70967e-09
-1.88612e-08
1.10528e-23
-7.26786e-23
-1.09328e-24
1.61943e-22
-1.42646e-22
8.68383e-23
-4.32704e-21
-6.64378e-22
-4.21555e-20
-1.49409e-20
-8.62337e-19
-1.23053e-19
-1.05602e-17
-2.08065e-18
-1.8583e-17
-1.70566e-17
-3.55335e-17
-5.66727e-17
-1.74276e-15
-3.66123e-16
-1.17102e-14
-8.58295e-15
-1.08495e-14
-2.89637e-14
-4.44103e-16
-6.3043e-15
-2.09637e-16
-1.52488e-15
-2.3549e-16
-7.55282e-16
-3.79379e-17
-2.88449e-16
-2.62401e-18
-3.97703e-17
-3.56308e-18
-5.23673e-18
-7.63405e-16
-6.15268e-18
-7.97684e-14
-2.9659e-17
-4.09506e-12
-6.06948e-17
-1.48055e-10
-6.91515e-17
-6.77235e-17
-2.85773e-09
6.61231e-24
-6.34026e-23
1.38272e-23
1.05082e-22
-1.45261e-22
1.1734e-22
-6.88981e-22
-6.01974e-23
-7.25988e-21
-2.0233e-21
-1.34217e-19
-2.25643e-20
-2.45095e-18
-4.5751e-19
-1.06156e-17
-4.77702e-18
-3.31141e-17
-2.66024e-17
-9.74548e-16
-1.3096e-16
-7.28543e-15
-8.3385e-16
-2.31344e-15
-2.07887e-15
-1.06303e-15
-1.2654e-15
-5.66609e-16
-1.33497e-15
-1.90309e-16
-5.93823e-16
-3.27348e-17
-1.2642e-16
-3.17415e-18
-1.9995e-17
-4.01731e-18
-4.22711e-18
-5.5844e-18
-6.58708e-18
-8.57079e-18
-2.87493e-17
-1.20885e-17
-5.95524e-17
-1.7257e-17
-6.63545e-17
-5.72254e-17
-2.97898e-17
3.90298e-24
-4.98828e-23
1.8459e-23
5.8604e-23
-1.32485e-23
7.63611e-23
-7.03738e-23
-5.1945e-24
-1.13421e-21
-1.92868e-22
-2.75219e-20
-3.90752e-21
-5.47905e-19
-9.2508e-20
-5.15602e-18
-1.32497e-18
-2.59286e-17
-1.27937e-17
-1.86044e-16
-3.73548e-17
-4.31839e-16
-8.09069e-18
-4.87409e-16
-2.10133e-17
-8.42121e-16
-1.95737e-16
-5.20374e-16
-3.82241e-16
-1.13996e-16
-1.20768e-16
-1.88251e-17
-3.60622e-17
-3.26218e-18
-5.3044e-18
-4.24472e-18
-1.31222e-18
-1.66879e-17
-3.78815e-18
-6.13789e-17
-2.0848e-17
-1.24909e-16
-5.43667e-17
-1.67671e-16
-1.15276e-16
-1.30149e-16
-2.43634e-16
2.18729e-24
-3.50258e-23
1.27942e-23
2.83742e-23
-7.90378e-26
4.04321e-23
-1.11878e-23
5.91427e-24
-1.51857e-22
-1.25847e-23
-5.09762e-21
-6.1468e-22
-1.18246e-19
-1.61587e-20
-3.66078e-18
-2.61158e-19
-2.16614e-17
-3.2002e-18
-6.16665e-18
-9.62198e-18
-7.1969e-18
-6.1683e-18
-5.70621e-17
-5.54682e-18
-1.92642e-16
-4.93002e-18
-9.97202e-17
-6.97545e-18
-3.60232e-17
-9.28455e-18
-5.95111e-18
-5.14675e-18
-9.40793e-19
-1.05963e-18
-1.35225e-18
-2.61835e-19
-1.06085e-17
-2.62154e-19
-5.15432e-17
-2.8306e-18
-1.58208e-16
-2.07728e-17
-4.31076e-16
-7.04079e-17
-1.60629e-16
-9.46063e-16
1.13313e-24
-2.17052e-23
7.61247e-24
1.17246e-23
3.26815e-24
1.75434e-23
-5.47915e-24
3.61568e-24
-1.91237e-23
-5.59984e-25
-9.96095e-22
-9.33087e-23
-2.42145e-20
-2.44899e-21
-8.39751e-19
-2.53857e-20
-6.6093e-18
-1.86093e-19
-7.53471e-18
-8.85286e-19
-6.34002e-18
-2.01411e-18
-3.5188e-18
-2.65915e-18
-4.12717e-18
-1.37869e-18
-6.06943e-18
-3.19004e-19
-5.2833e-18
-9.58297e-20
-1.41619e-18
-7.88961e-20
-2.62262e-19
-6.72487e-20
-2.73657e-19
-4.45549e-20
-7.00798e-19
-6.383e-20
-9.82035e-18
-7.35769e-19
-7.86223e-17
-5.19093e-18
-4.06347e-16
-2.0266e-17
-4.35201e-17
-1.75669e-15
5.14397e-25
-1.17153e-23
3.85225e-24
4.03576e-24
2.53253e-24
6.10687e-24
-3.44362e-25
1.2338e-24
-2.85038e-24
-3.0205e-26
-2.53426e-22
-1.0124e-23
-4.59974e-21
-2.76356e-22
-4.91393e-20
-2.90244e-21
-4.06803e-19
-2.11509e-20
-1.43834e-18
-9.76991e-20
-2.80618e-18
-2.03282e-19
-2.06927e-18
-2.61828e-19
-5.19361e-19
-1.64175e-19
-1.09309e-19
-8.01756e-20
-8.05171e-20
-8.25995e-21
-7.64241e-20
-6.23361e-22
-5.34867e-20
-2.06746e-22
-6.34613e-20
-5.4547e-22
-2.76167e-19
-1.18491e-20
-3.82438e-18
-1.66198e-19
-2.94488e-17
-1.19932e-18
-1.68834e-16
-3.38826e-18
5.19284e-18
-9.2873e-16
1.9542e-25
-5.42803e-24
1.60965e-24
1.12084e-24
1.1758e-24
1.64789e-24
-2.15699e-26
2.79802e-25
-3.56106e-25
7.93716e-27
-3.59683e-23
-6.69056e-25
-7.01726e-22
-2.31708e-23
-8.11025e-21
-2.9808e-22
-7.01775e-20
-2.54421e-21
-2.1591e-19
-1.05345e-20
-3.05897e-19
-1.63527e-20
-2.61861e-19
-1.52567e-20
-1.662e-19
-1.00915e-20
-2.07155e-20
-3.8942e-21
-1.43543e-21
-7.80988e-22
-2.91514e-22
-5.53418e-23
-3.52724e-22
-1.21032e-24
-2.77398e-21
-7.91093e-23
-8.21924e-20
-1.80764e-21
-1.53767e-18
-2.37091e-20
-1.46011e-17
-8.43338e-20
-8.12455e-17
1.21431e-18
1.38701e-17
-3.88309e-16
5.96192e-26
-2.1241e-24
5.36691e-25
2.40325e-25
4.09363e-25
3.2584e-25
1.68805e-26
3.46665e-26
-8.86883e-25
5.80669e-27
-3.66095e-24
-2.59369e-26
-9.25601e-23
-1.25505e-24
-1.49084e-21
-1.9802e-23
-1.37728e-20
-1.41999e-22
-2.82112e-20
-4.58271e-22
-3.04212e-20
-6.75172e-22
-2.4405e-20
-7.20773e-22
-1.15004e-20
-5.16685e-22
-2.86114e-21
-2.09488e-22
-2.33034e-22
-3.64347e-23
-2.47689e-24
3.73896e-26
-1.20717e-23
6.10466e-26
-7.21691e-22
-3.39328e-24
-2.42505e-20
-4.45909e-23
-5.94387e-19
3.56271e-21
-7.16691e-18
1.52959e-19
-4.21464e-17
2.07717e-18
1.32111e-17
-1.86142e-16
1.39326e-26
-6.89502e-25
1.36195e-25
3.72894e-26
1.04805e-25
4.32962e-26
2.77139e-26
-1.58845e-27
-7.00457e-26
-1.34803e-27
-3.15498e-25
6.16591e-29
-1.26856e-23
-2.10329e-27
-1.89708e-22
-1.10837e-25
-1.14149e-21
-1.19857e-24
-2.16366e-21
-4.67817e-24
-2.46408e-21
-8.71675e-24
-2.29908e-21
-1.00975e-23
-1.20856e-21
-6.9937e-24
-2.6389e-22
-1.78192e-24
3.36681e-25
7.53996e-27
7.25526e-25
-4.77741e-27
-5.73582e-23
-2.6519e-26
-1.36646e-22
7.68177e-25
-6.81517e-21
1.06665e-22
-2.28977e-19
5.25237e-21
-3.5406e-18
1.51089e-19
-2.19568e-17
1.82332e-18
1.03901e-17
-9.4042e-17
2.33838e-27
-1.82286e-25
2.46924e-26
3.75064e-27
1.87535e-26
3.29076e-27
6.13819e-27
-6.75355e-27
-3.36372e-27
-1.88428e-27
-1.83657e-26
4.13121e-29
-1.17099e-24
5.52698e-27
-1.72139e-23
1.23044e-25
-8.32074e-23
7.22544e-25
-1.80361e-22
1.83879e-24
-2.08704e-22
2.89522e-24
-2.09017e-22
3.22961e-24
-1.03031e-22
2.48446e-24
2.62379e-24
6.69344e-24
1.92537e-23
-3.09144e-25
1.62513e-23
-2.52029e-24
-1.23416e-23
-2.42259e-24
-2.65208e-23
4.54757e-25
-1.80765e-21
5.46167e-23
-8.2832e-20
3.06735e-21
-1.70029e-18
9.92076e-20
-1.18349e-17
1.35325e-18
8.17858e-18
-5.33984e-17
2.53109e-28
-3.85839e-26
2.89385e-27
1.87551e-28
2.16772e-27
8.97069e-29
7.41016e-28
-1.5379e-27
-6.12131e-29
-4.21834e-28
-5.62924e-28
6.10845e-31
-6.18256e-26
2.89996e-28
-1.08236e-24
9.63791e-27
-5.45733e-24
7.09428e-26
-1.20232e-23
2.03968e-25
-1.38734e-23
3.14805e-25
-1.33143e-23
3.12745e-25
7.44343e-25
2.20875e-24
1.06109e-23
-1.71926e-25
1.90086e-23
-2.498e-24
1.48303e-23
-4.65434e-24
-2.77599e-24
-3.84475e-24
-5.06688e-24
1.70993e-25
-4.71261e-22
2.08669e-23
-2.78582e-20
1.46873e-21
-7.43331e-19
5.51057e-20
-6.6461e-18
8.90382e-19
6.41719e-18
-3.49549e-17
1.35506e-29
-6.46271e-27
1.71516e-28
6.08048e-35
1.30412e-28
-1.9131e-29
4.50134e-29
-1.40534e-28
-9.79958e-31
-3.80117e-29
-7.90029e-30
8.47052e-33
-1.70058e-27
4.06055e-30
-3.84213e-26
2.58016e-28
-2.23679e-25
2.40497e-27
-4.95289e-25
7.21676e-27
-5.38394e-25
6.81201e-26
3.49156e-25
1.59073e-25
2.77237e-24
-1.24956e-25
7.08002e-24
-9.78499e-25
9.76254e-24
-2.50241e-24
7.42611e-24
-3.50735e-24
-7.29565e-25
-2.74715e-24
-1.15065e-24
7.21008e-26
-1.32769e-22
8.70411e-24
-9.99379e-21
7.1106e-22
-3.15042e-19
3.13249e-20
-3.31246e-18
5.51572e-19
4.46551e-18
-2.55032e-17
4.65138e-36
-8.57258e-28
1.67343e-32
8.76867e-37
6.59262e-31
-1.27559e-32
2.56885e-31
-9.76785e-31
-5.9747e-33
-2.93776e-31
-2.23465e-32
5.46919e-33
-1.7097e-29
1.50175e-30
-7.97139e-28
1.12459e-28
-4.90296e-27
1.13906e-27
-3.89758e-27
2.93304e-27
6.38794e-26
3.43167e-28
3.85994e-25
-3.23373e-26
1.29755e-24
-1.88784e-25
2.53921e-24
-6.21441e-25
3.0998e-24
-1.20692e-24
2.22663e-24
-1.4797e-24
-2.41049e-25
-1.07887e-24
-3.5573e-25
3.34302e-26
-4.35668e-23
4.05317e-24
-4.32316e-21
3.48008e-22
-1.66182e-19
1.85127e-20
-1.76958e-18
3.39899e-19
2.36311e-18
-1.20006e-17
6.88171e-38
-9.20678e-29
2.32939e-35
1.87124e-37
3.08845e-33
-3.45995e-35
6.93098e-33
-5.99207e-33
7.43576e-32
-1.02527e-32
6.97898e-31
-8.82449e-32
4.6038e-30
-7.04371e-31
4.12305e-29
-4.09138e-30
5.22478e-28
-3.30282e-29
4.6133e-27
-3.84766e-28
2.83282e-26
-3.17642e-27
1.19683e-25
-1.85248e-26
3.27974e-25
-7.53106e-26
5.64715e-25
-2.01254e-25
6.38214e-25
-3.41814e-25
4.27093e-25
-3.85063e-25
-7.84212e-26
-2.59071e-25
-1.15502e-25
1.29361e-26
-1.34627e-23
1.56848e-24
-1.63427e-21
1.32741e-22
-8.09929e-20
8.53104e-21
-9.38124e-19
1.7963e-19
1.22164e-18
-4.99034e-18
1.37642e-38
-8.22548e-30
2.61518e-36
3.34202e-38
1.06623e-34
-6.11449e-36
1.96463e-33
-2.63752e-34
2.94882e-32
-3.66023e-33
3.44647e-31
-4.40811e-32
3.25802e-30
-4.3762e-31
2.6679e-29
-3.63653e-30
1.94968e-28
-2.68291e-29
1.21706e-27
-1.80144e-28
6.00533e-27
-1.05028e-27
2.15163e-26
-4.90959e-27
5.20653e-26
-1.68963e-26
8.27342e-26
-3.97252e-26
8.88139e-26
-6.19929e-26
5.55318e-26
-6.592e-26
-2.05193e-26
-4.11941e-26
-3.04319e-26
3.57796e-27
-3.36585e-24
4.30834e-25
-4.62095e-22
3.73087e-23
-3.01014e-20
2.84883e-21
-4.31152e-19
7.40279e-20
5.70126e-19
-2.15668e-18
1.69654e-39
-6.25538e-31
5.1426e-37
1.86222e-37
2.03864e-35
-1.75084e-36
4.29852e-34
-6.3304e-35
6.67543e-33
-9.91232e-34
8.18462e-32
-1.23484e-32
8.00804e-31
-1.2839e-31
6.31159e-30
-1.10232e-30
4.07542e-29
-7.82646e-30
2.15904e-28
-4.63678e-29
9.0614e-28
-2.29312e-28
2.82078e-27
-9.11183e-28
6.12297e-27
-2.71977e-27
8.95464e-27
-5.72005e-27
9.09745e-27
-8.19155e-27
5.19182e-27
-8.21664e-27
-4.11491e-27
-4.66372e-27
-6.10075e-27
8.18425e-28
-6.66108e-25
8.85541e-26
-1.01456e-22
8.212e-24
-8.42921e-21
7.39932e-22
-1.4764e-19
2.33213e-20
2.05681e-19
-8.59451e-19
-2.87779e-35
-4.11919e-32
6.79584e-38
4.62653e-38
2.93253e-36
-3.26325e-37
6.14987e-35
-1.12675e-35
9.32436e-34
-1.73437e-34
1.11833e-32
-2.10841e-33
1.0749e-31
-2.13931e-32
8.23912e-31
-1.80377e-31
4.98788e-30
-1.24328e-30
2.38466e-29
-6.90976e-30
8.93224e-29
-3.08338e-29
2.53044e-28
-1.09325e-28
5.0962e-28
-2.96682e-28
6.93544e-28
-5.78408e-28
6.61211e-28
-7.70394e-28
2.77018e-28
-7.23492e-28
-7.73845e-28
-3.00922e-28
-1.07843e-27
2.0411e-28
-1.02523e-25
1.38175e-26
-1.75964e-23
1.39835e-24
-1.91272e-21
1.51462e-22
-3.91193e-20
5.8668e-21
5.5864e-20
-2.39928e-19
-2.09488e-35
-2.3743e-33
4.9223e-39
-5.3713e-39
2.45682e-37
-3.32545e-38
5.05729e-36
-1.15427e-36
7.26683e-35
-1.72435e-35
8.07456e-34
-1.98197e-34
7.19585e-33
-1.86104e-33
5.20919e-32
-1.45168e-32
3.05684e-31
-9.44602e-32
1.44197e-30
-5.09123e-31
5.3593e-30
-2.2434e-30
1.50143e-29
-7.89586e-30
2.96455e-29
-2.12388e-29
3.93634e-29
-4.06365e-29
3.58215e-29
-5.27323e-29
6.1522e-30
-4.7354e-29
-9.93502e-29
-8.07946e-30
-1.35043e-28
2.32091e-29
-1.17713e-26
1.63758e-27
-2.19734e-24
1.72694e-25
-3.32723e-22
2.24969e-23
-8.24796e-21
1.15883e-21
1.24874e-20
-5.03808e-20
-2.10616e-36
-1.20629e-34
1.07196e-40
-5.31242e-39
8.13506e-39
-1.029e-39
1.73021e-37
-4.60164e-38
2.5593e-36
-7.01552e-37
2.94148e-35
-8.29308e-36
2.69188e-34
-8.00913e-35
2.00318e-33
-6.41053e-34
1.2167e-32
-4.28714e-33
5.96081e-32
-2.39145e-32
2.28669e-31
-1.09539e-31
6.52475e-31
-3.98827e-31
1.28619e-30
-1.09323e-30
1.71512e-30
-2.09309e-30
1.52391e-30
-2.73773e-30
-9.39234e-33
-2.40371e-30
-8.10899e-30
1.94132e-32
-1.35037e-29
2.44731e-30
-1.04568e-27
1.62191e-28
-1.94753e-25
1.66869e-26
-4.26283e-23
2.51298e-24
-1.38829e-21
1.80694e-22
2.34978e-21
-8.75276e-21
-1.46924e-37
-5.41767e-36
1.54251e-42
-6.70776e-40
1.80632e-40
-2.14621e-41
4.00886e-39
-1.20571e-39
6.24442e-38
-1.89112e-38
7.60666e-37
-2.34536e-37
7.36926e-36
-2.38361e-36
5.81091e-35
-2.01639e-35
3.74293e-34
-1.4266e-34
1.93863e-33
-8.43711e-34
7.76962e-33
-4.08748e-33
2.27054e-32
-1.5562e-32
4.52987e-32
-4.37605e-32
6.1812e-32
-8.49418e-32
5.31977e-32
-1.13967e-31
-2.25094e-32
-9.72524e-32
-3.27843e-32
3.76666e-32
-1.23194e-30
2.44595e-31
-8.35441e-29
1.58047e-29
-1.43408e-26
1.53771e-27
-4.41381e-24
2.51993e-25
-1.97543e-22
2.40507e-23
3.71667e-22
-1.2591e-21
-8.13389e-39
-2.14974e-37
1.78899e-44
-5.37909e-41
3.22046e-42
-3.724e-43
7.49324e-41
-2.4899e-41
1.24806e-39
-4.03075e-40
1.62026e-38
-5.28196e-39
1.68515e-37
-5.69061e-38
1.42234e-36
-5.13325e-37
9.79756e-36
-3.87852e-36
5.38912e-35
-2.44842e-35
2.26047e-34
-1.25808e-34
6.78994e-34
-5.00877e-34
1.38589e-33
-1.4479e-33
1.95288e-33
-2.87591e-33
1.58282e-33
-3.98749e-33
-1.66086e-33
-3.21129e-33
-2.62333e-33
4.07473e-34
-1.14878e-31
2.44414e-32
-7.12752e-30
1.63683e-30
-1.11747e-27
1.57591e-28
-4.39671e-25
2.68604e-26
-2.54313e-23
2.99509e-24
5.08412e-23
-1.58578e-22
-3.66592e-40
-7.51678e-39
1.81087e-46
-3.2336e-42
4.9976e-44
-5.8671e-45
1.22941e-42
-4.42452e-43
2.21028e-41
-7.41478e-42
3.06556e-40
-1.028e-40
3.42576e-39
-1.17651e-39
3.10583e-38
-1.13371e-38
2.29023e-37
-9.16284e-38
1.33659e-36
-6.1726e-37
5.86266e-36
-3.35625e-36
1.81763e-35
-1.39372e-35
3.82748e-35
-4.14547e-35
5.59169e-35
-8.48084e-35
3.87851e-35
-1.21481e-34
-1.12556e-34
-8.36858e-35
-1.89417e-34
2.69614e-35
-1.0848e-32
2.26626e-33
-6.88762e-31
1.70091e-31
-1.06351e-28
1.76328e-29
-4.77734e-26
3.07823e-27
-3.13066e-24
3.53311e-25
6.05792e-24
-1.86322e-23
-1.34778e-41
-2.30949e-40
1.72478e-48
-1.52696e-43
7.03854e-46
-8.74315e-47
1.84322e-44
-7.1115e-45
3.56398e-43
-1.23629e-43
5.29317e-42
-1.81179e-42
6.34924e-41
-2.2018e-41
6.17314e-40
-2.2633e-40
4.86161e-39
-1.95352e-39
3.00305e-38
-1.40063e-38
1.37542e-37
-8.0307e-38
4.40776e-37
-3.46831e-37
9.63397e-37
-1.06259e-36
1.44988e-36
-2.24694e-36
6.39769e-37
-3.30677e-36
-8.98932e-36
-1.44004e-36
-1.47409e-35
2.23549e-36
-9.46786e-34
1.77319e-34
-6.85124e-32
1.56073e-32
-1.12842e-29
1.81259e-30
-5.2822e-27
3.18654e-28
-3.51105e-25
3.52996e-26
5.95343e-25
-2.04698e-24
-4.11105e-43
-6.22088e-42
1.56842e-50
-5.87191e-45
9.18263e-48
-1.25639e-48
2.55133e-46
-1.06463e-46
5.29282e-45
-1.92368e-45
8.40066e-44
-2.97321e-44
1.07783e-42
-3.82992e-43
1.12073e-41
-4.18847e-42
9.39632e-41
-3.8497e-41
6.12158e-40
-2.92792e-40
2.92065e-39
-1.76454e-39
9.68748e-39
-7.90827e-39
2.20203e-38
-2.49876e-38
3.37541e-38
-5.47001e-38
2.91732e-39
-8.16565e-38
-5.90354e-37
-6.93504e-39
-9.22007e-37
1.1682e-37
-6.83871e-35
1.05775e-35
-5.85469e-33
1.08145e-33
-1.02925e-30
1.36379e-31
-4.70439e-28
2.31271e-29
-3.07694e-26
2.4985e-27
4.39563e-26
-1.92173e-25
-1.0452e-44
-1.46796e-43
1.38983e-52
-1.87555e-46
1.10672e-49
-1.75205e-50
3.27411e-48
-1.51105e-48
7.24606e-47
-2.84102e-47
1.22732e-45