/*--------------------------------*- C++ -*----------------------------------*\
| =========                 |                                                 |
| \\      /  F ield         | OpenFOAM: The Open Source CFD Toolbox           |
|  \\    /   O peration     | Version:  2206                                  |
|   \\  /    A nd           | Website:  www.openfoam.com                      |
|    \\/     M anipulation  |                                                 |
\*---------------------------------------------------------------------------*/
FoamFile
{
    version     2.0;
    format      ascii;
    arch        "LSB;label=32;scalar=64";
    class       volVectorField;
    location    "0.525";
    object      U;
}
// * * * * * * * * * * * * * * * * * * * * * * * * * * * * * * * * * * * * * //

dimensions      [0 1 -1 0 0 0 0];

internalField   nonuniform List<vector> 
2268
(
(-0.028836 0.00993458 0)
(-0.060046 0.00563012 0)
(-0.0611849 -0.00355687 0)
(-0.0305777 -0.00938645 0)
(0.0186638 -0.0131311 0)
(0.0785243 -0.014285 0)
(0.136988 -0.0128459 0)
(0.186193 -0.00977673 0)
(0.221327 -0.00640129 0)
(0.24243 -0.00347616 0)
(0.25217 -0.00115231 0)
(0.253478 0.00104478 0)
(0.246613 0.00320411 0)
(0.232674 0.00558479 0)
(0.210838 0.00884824 0)
(0.178162 0.0135973 0)
(0.128514 0.0195441 0)
(0.0591872 0.0230961 0)
(-0.0288444 0.0107285 0)
(-0.0578587 0.00782173 0)
(-0.168841 0.0246922 0)
(-0.233002 -0.00336847 0)
(-0.0846196 -0.053378 0)
(-0.0389229 0.0302745 0)
(-0.0582576 0.0130464 0)
(-0.0552983 -0.0119542 0)
(-0.0241602 -0.0287882 0)
(0.0239091 -0.0394122 0)
(0.0827774 -0.0429851 0)
(0.140507 -0.0386897 0)
(0.188819 -0.0295335 0)
(0.222973 -0.0195011 0)
(0.243451 -0.010879 0)
(0.253373 -0.00414678 0)
(0.255816 0.00120517 0)
(0.254637 0.00580061 0)
(0.250916 0.0102467 0)
(0.245464 0.015786 0)
(0.238448 0.0241296 0)
(0.225094 0.0365071 0)
(0.195703 0.0518522 0)
(0.117914 0.0534602 0)
(0.0334876 0.05182 0)
(-0.133314 0.0525373 0)
(-0.147395 -0.0134787 0)
(-0.0327605 -0.124826 0)
(-0.0344101 0.0498835 0)
(-0.0459306 0.0178225 0)
(-0.0430315 -0.0207315 0)
(-0.0144004 -0.0468545 0)
(0.0291103 -0.0641729 0)
(0.0851401 -0.0707452 0)
(0.141652 -0.0637069 0)
(0.18853 -0.0483114 0)
(0.220683 -0.0316471 0)
(0.239341 -0.0176002 0)
(0.2482 -0.00687678 0)
(0.250453 0.00100548 0)
(0.248061 0.00698341 0)
(0.242356 0.0120934 0)
(0.234651 0.0176516 0)
(0.227082 0.0258975 0)
(0.222197 0.0398088 0)
(0.224665 0.0629261 0)
(0.206809 0.084421 0)
(0.161271 0.103811 0)
(0.0383482 0.100838 0)
(-0.0451651 -0.024645 0)
(0.0290367 -0.152703 0)
(-0.026067 0.0650706 0)
(-0.0294692 0.0208932 0)
(-0.0245182 -0.0286728 0)
(-0.00123357 -0.0617012 0)
(0.035926 -0.0867378 0)
(0.0873433 -0.0976183 0)
(0.14129 -0.0882427 0)
(0.186045 -0.066253 0)
(0.215981 -0.042769 0)
(0.23283 -0.0236217 0)
(0.240871 -0.00946081 0)
(0.243386 0.000989528 0)
(0.242131 0.00888112 0)
(0.238037 0.0154736 0)
(0.231746 0.0219336 0)
(0.224223 0.0298621 0)
(0.216949 0.0413081 0)
(0.21764 0.0615197 0)
(0.227244 0.0905113 0)
(0.236163 0.127632 0)
(0.194348 0.142546 0)
(0.132364 0.00957564 0)
(0.0934961 -0.119852 0)
(-0.0160359 0.0735977 0)
(-0.00586213 0.0198414 0)
(0.00298487 -0.0354828 0)
(0.0243946 -0.0744008 0)
(0.0576904 -0.107303 0)
(0.101264 -0.122821 0)
(0.146529 -0.111359 0)
(0.184265 -0.0829851 0)
(0.209497 -0.0528679 0)
(0.224016 -0.028893 0)
(0.231717 -0.0117384 0)
(0.235196 0.00044784 0)
(0.235682 0.00972012 0)
(0.233864 0.017431 0)
(0.230274 0.0247517 0)
(0.225588 0.0330612 0)
(0.220695 0.0435035 0)
(0.218378 0.0591118 0)
(0.225679 0.0827995 0)
(0.253091 0.121523 0)
(0.273249 0.150182 0)
(0.232983 0.0572173 0)
(0.146052 -0.0576452 0)
(-0.00465012 0.0740116 0)
(0.0269067 0.0144872 0)
(0.0466139 -0.0443597 0)
(0.0776719 -0.0867453 0)
(0.11237 -0.124072 0)
(0.142084 -0.141854 0)
(0.167928 -0.128255 0)
(0.190088 -0.0953203 0)
(0.205428 -0.0610532 0)
(0.215043 -0.0339908 0)
(0.221676 -0.0144881 0)
(0.226529 -0.000598758 0)
(0.229501 0.00956664 0)
(0.230376 0.0181148 0)
(0.229468 0.026038 0)
(0.227435 0.0345968 0)
(0.225597 0.0447452 0)
(0.225798 0.0583272 0)
(0.229644 0.0757067 0)
(0.247689 0.104519 0)
(0.288453 0.137938 0)
(0.270794 0.0946905 0)
(0.173074 0.0380768 0)
(0.00965165 0.0616872 0)
(0.0650928 -0.00336772 0)
(0.112546 -0.0604049 0)
(0.167429 -0.0996861 0)
(0.203311 -0.134051 0)
(0.209244 -0.149045 0)
(0.205714 -0.133473 0)
(0.206735 -0.0986118 0)
(0.209412 -0.0636938 0)
(0.212041 -0.0372195 0)
(0.215477 -0.0181252 0)
(0.21965 -0.00305002 0)
(0.224023 0.00907579 0)
(0.227552 0.018497 0)
(0.229501 0.0267148 0)
(0.230108 0.0348659 0)
(0.230677 0.0436523 0)
(0.23355 0.0556978 0)
(0.239372 0.0709943 0)
(0.247761 0.0913539 0)
(0.280536 0.124975 0)
(0.282301 0.124227 0)
(0.208003 0.129222 0)
(0.0239597 0.0380404 0)
(0.104741 -0.0288991 0)
(0.197395 -0.0869222 0)
(0.278127 -0.122872 0)
(0.301411 -0.142798 0)
(0.273239 -0.145656 0)
(0.240354 -0.128659 0)
(0.225216 -0.0953847 0)
(0.220184 -0.0606983 0)
(0.219234 -0.035068 0)
(0.220733 -0.0182805 0)
(0.223229 -0.00641373 0)
(0.225253 0.0033084 0)
(0.227247 0.0137991 0)
(0.229477 0.0247404 0)
(0.231591 0.0356159 0)
(0.234757 0.0450915 0)
(0.240664 0.0554627 0)
(0.250107 0.0688928 0)
(0.259123 0.0841194 0)
(0.277867 0.115693 0)
(0.295547 0.153769 0)
(0.200151 0.28618 0)
(0.238739 -0.266406 0)
(0.955396 -0.334412 0)
(1.96111 -0.251221 0)
(2.12119 0.0952799 0)
(0.821368 0.413836 0)
(-1.14185 -0.020027 0)
(-0.48451 -0.441436 0)
(-0.725146 0.145577 0)
(-2.65746 0.0486268 0)
(-3.23282 -0.123717 0)
(-3.4265 -0.219196 0)
(-3.11746 -0.221341 0)
(-2.71519 -0.174203 0)
(-2.43262 -0.128241 0)
(-2.14324 -0.0784566 0)
(-1.85063 -0.0357663 0)
(-1.47406 -0.0334362 0)
(-0.889637 -0.13623 0)
(-0.195266 -0.127959 0)
(0.0314489 -0.474383 0)
(0.39736 -0.55742 0)
(1.03393 -0.172898 0)
(1.4675 0.219214 0)
(1.38373 0.667703 0)
(0.00879433 0.563181 0)
(-1.62373 0.170302 0)
(-3.40336 0.766527 0)
(-4.84314 0.682531 0)
(-5.58338 0.293652 0)
(-5.21318 0.0798739 0)
(-4.59475 -0.170566 0)
(-4.02039 -0.200284 0)
(-3.49902 -0.210465 0)
(-3.06758 -0.263735 0)
(-2.5725 -0.303907 0)
(-1.86218 -0.34909 0)
(-1.01907 -0.504367 0)
(-0.169378 -0.317148 0)
(-0.0837311 -0.470704 0)
(-0.0155444 -0.524998 0)
(0.362922 -0.463517 0)
(0.911532 0.212229 0)
(1.09328 1.06637 0)
(0.528237 1.19217 0)
(-2.70652 1.08657 0)
(-4.22734 1.48255 0)
(-5.24839 1.30198 0)
(-5.72527 0.212191 0)
(-4.8574 -0.357308 0)
(-4.81005 -0.496692 0)
(-4.32268 -0.47605 0)
(-3.92786 -0.397868 0)
(-3.77442 -0.457953 0)
(-3.52599 -0.559244 0)
(-2.54651 -0.684142 0)
(-1.06693 -1.14484 0)
(-0.176314 -0.611266 0)
(-0.164728 -0.36974 0)
(-0.310554 -0.642733 0)
(-0.0676689 -0.726588 0)
(0.625157 -0.112946 0)
(0.540022 1.41379 0)
(0.652671 1.86867 0)
(-2.47071 1.78204 0)
(-4.03482 1.99907 0)
(-4.56805 1.52901 0)
(-4.6698 0.192685 0)
(-4.4233 -0.322419 0)
(-4.20259 -0.596068 0)
(-3.3796 -0.648983 0)
(-2.77087 -0.483902 0)
(-2.65879 -0.49221 0)
(-2.84964 -0.626694 0)
(-2.17489 -0.863777 0)
(-0.835555 -1.72196 0)
(-0.0770957 -0.906959 0)
(-0.137742 -0.272322 0)
(-0.189498 -0.663733 0)
(-0.11724 -0.884602 0)
(0.323208 -0.262828 0)
(0.538249 1.47403 0)
(0.386306 2.46721 0)
(-1.86671 2.49542 0)
(-3.30369 2.45339 0)
(-3.77128 1.59637 0)
(-4.04402 0.265704 0)
(-4.46855 -0.448999 0)
(-4.11931 -0.944105 0)
(-3.14543 -1.10454 0)
(-2.09109 -0.822121 0)
(-1.48481 -0.607847 0)
(-1.6651 -0.637869 0)
(-1.37951 -1.15796 0)
(-0.704213 -2.09645 0)
(0.0534902 -1.1117 0)
(-0.0281306 -0.219925 0)
(-0.00500927 -0.642142 0)
(-0.0158319 -0.877974 0)
(-0.0865129 -0.405324 0)
(0.908096 1.50323 0)
(0.253546 3.19843 0)
(-1.0856 3.02097 0)
(-2.28452 2.95569 0)
(-2.89495 1.84699 0)
(-3.58571 0.570016 0)
(-4.30462 -0.393166 0)
(-4.00417 -1.214 0)
(-3.18177 -1.58168 0)
(-2.05328 -1.3192 0)
(-1.06555 -0.895587 0)
(-0.529212 -0.473462 0)
(-0.765338 -1.11712 0)
(-0.610829 -2.30366 0)
(0.132293 -1.29439 0)
(0.130281 -0.273797 0)
(0.1877 -0.640582 0)
(0.131025 -0.839161 0)
(-0.0448859 -0.831637 0)
(0.898168 1.19327 0)
(0.181102 3.71074 0)
(-0.225678 3.2318 0)
(-1.55496 3.34771 0)
(-1.98991 2.25615 0)
(-3.06237 0.942532 0)
(-3.83492 -0.271789 0)
(-3.67273 -1.39677 0)
(-3.07884 -2.0024 0)
(-2.01003 -1.78209 0)
(-1.08963 -1.29063 0)
(-0.391789 -0.83243 0)
(0.159403 -0.518291 0)
(-0.48021 -2.36015 0)
(0.177745 -1.46295 0)
(0.343649 -0.394941 0)
(0.355189 -0.646664 0)
(0.260998 -0.786479 0)
(0.11414 -0.86645 0)
(0.697132 1.00551 0)
(0.294196 3.85624 0)
(0.275271 3.41335 0)
(-1.09569 3.6951 0)
(-1.32021 2.68251 0)
(-2.41937 1.30484 0)
(-3.15413 -0.0810129 0)
(-3.15457 -1.52047 0)
(-2.84018 -2.40037 0)
(-1.86078 -2.24558 0)
(-0.995162 -1.66272 0)
(-0.328099 -1.26351 0)
(1.00053 -1.03745 0)
(-0.333878 -2.2121 0)
(0.201007 -1.58737 0)
(0.04107 -0.0299059 0)
(0.174256 -0.109007 0)
(0.307925 -0.168104 0)
(0.370281 -0.168067 0)
(0.340601 -0.142467 0)
(0.272027 -0.124062 0)
(0.223907 -0.113295 0)
(0.206877 -0.0937027 0)
(0.207727 -0.064925 0)
(0.216516 -0.0370789 0)
(0.227833 -0.0150932 0)
(0.238432 0.0025624 0)
(0.245845 0.0161694 0)
(0.248436 0.0238547 0)
(0.246311 0.0260861 0)
(0.242367 0.0275501 0)
(0.241356 0.0299429 0)
(0.247414 0.0390964 0)
(0.25953 0.0550757 0)
(0.279141 0.0713495 0)
(0.305649 0.0956808 0)
(0.385552 0.120034 0)
(0.47835 0.264411 0)
(0.0722605 -0.141525 0)
(0.239142 -0.286624 0)
(0.356521 -0.284246 0)
(0.253665 -0.133493 0)
(0.140891 -0.0539148 0)
(0.085443 -0.056184 0)
(0.0585403 -0.0739515 0)
(0.046446 -0.0822052 0)
(0.062093 -0.0798666 0)
(0.0954827 -0.0700743 0)
(0.143173 -0.0547141 0)
(0.202198 -0.0367782 0)
(0.245261 -0.0172987 0)
(0.26573 0.00502252 0)
(0.269084 0.0298093 0)
(0.260153 0.0499341 0)
(0.255023 0.0487698 0)
(0.261684 0.0456139 0)
(0.273024 0.0452109 0)
(0.291686 0.0440023 0)
(0.32221 0.0477344 0)
(0.368212 0.0447911 0)
(0.451657 0.0402757 0)
(0.043285 -0.402694 0)
(0.104678 -0.425174 0)
(-0.00787912 -0.153298 0)
(-0.333096 0.113679 0)
(-0.277921 0.0428217 0)
(-0.296194 -0.020519 0)
(-0.39297 -0.0323475 0)
(-0.494974 -0.0483551 0)
(-0.559708 -0.0782223 0)
(-0.571952 -0.119264 0)
(-0.483886 -0.151493 0)
(-0.20636 -0.0985798 0)
(-0.046679 -0.0447526 0)
(0.0776198 0.00177987 0)
(0.14123 0.0266357 0)
(0.198354 0.0361722 0)
(0.261209 0.0211371 0)
(0.297151 0.0242368 0)
(0.297566 0.0359429 0)
(0.293999 0.0211677 0)
(0.310768 0.00167873 0)
(0.340157 -0.0130035 0)
(0.387387 -0.0339217 0)
(-0.0706507 -0.307886 0)
(-0.185075 -0.0921749 0)
(-0.232048 0.155475 0)
(-0.234173 0.0789183 0)
(-0.0970679 -0.0710625 0)
(-0.109295 -0.00581907 0)
(-0.117493 0.0766767 0)
(-0.121337 0.0273999 0)
(-0.147839 -0.0425016 0)
(-0.196555 -0.122741 0)
(-0.305 -0.280407 0)
(-0.490271 -0.368729 0)
(-0.662215 -0.236907 0)
(-0.753306 -0.141358 0)
(-0.645224 -0.0841378 0)
(-0.352764 -0.0707843 0)
(-0.138038 -0.0543316 0)
(0.0497376 0.0167854 0)
(0.154806 0.0507502 0)
(0.24193 0.0330945 0)
(0.316023 0.0124699 0)
(0.359064 -0.0105719 0)
(0.383532 -0.0568926 0)
(-0.130835 -0.151748 0)
(-0.162144 -0.221314 0)
(-0.124938 -0.108539 0)
(-0.021966 -0.0305787 0)
(-0.0348568 -0.0302154 0)
(-0.0713849 0.00161194 0)
(-0.0437767 0.0201263 0)
(-0.0158006 0.014744 0)
(-0.00484531 0.0120944 0)
(0.00336486 0.00987465 0)
(-0.0188794 0.0298645 0)
(-0.081796 0.0692865 0)
(-0.173641 0.0350684 0)
(-0.311786 -0.109246 0)
(-0.409017 -0.240911 0)
(-0.441472 -0.439877 0)
(-0.509083 -0.36067 0)
(-0.385367 -0.238097 0)
(-0.181606 -0.169696 0)
(-0.0723884 -0.164055 0)
(0.0469409 -0.106652 0)
(0.132596 -0.0711043 0)
(0.221643 -0.0809765 0)
(-0.0608226 -0.0703805 0)
(-0.0503346 -0.141859 0)
(-0.0839561 -0.0367859 0)
(-0.0609886 -0.0218124 0)
(-0.0631328 -0.031541 0)
(-0.0643217 -0.0100127 0)
(-0.0569079 0.00244686 0)
(-0.0496317 -0.010465 0)
(-0.0483656 -0.043311 0)
(-0.048966 -0.0852896 0)
(-0.0445263 -0.115134 0)
(-0.0151546 -0.0795606 0)
(0.0395394 0.0316197 0)
(0.0517941 0.132312 0)
(-0.041768 0.0668081 0)
(-0.0397985 -0.17551 0)
(-0.0850132 -0.246708 0)
(-0.0480068 -0.211249 0)
(-0.0477974 -0.339541 0)
(-0.0568807 -0.163502 0)
(-0.157 -0.193453 0)
(-0.0556744 -0.200274 0)
(-0.0619278 -0.224725 0)
(-0.0395392 -0.0239696 0)
(-0.0448299 -0.133692 0)
(-0.064174 -0.0688073 0)
(-0.0507433 -0.0370776 0)
(-0.0517684 -0.0235097 0)
(-0.0482653 -0.0101302 0)
(-0.0413437 0.000537168 0)
(-0.0352608 -8.5569e-05 0)
(-0.036142 -0.0138123 0)
(-0.0452713 -0.0376067 0)
(-0.0607024 -0.0582152 0)
(-0.072342 -0.057917 0)
(-0.0608781 -0.0377519 0)
(0.00618527 -0.00703419 0)
(0.0512385 -0.123472 0)
(0.0602609 -0.271285 0)
(0.00134967 -0.269041 0)
(0.00681586 -0.217611 0)
(0.0287978 -0.212187 0)
(0.119096 -0.15478 0)
(0.250423 -0.0915447 0)
(0.351194 -0.136045 0)
(0.366641 -0.000477774 0)
(-0.0276946 0.0086232 0)
(-0.0359703 -0.121677 0)
(-0.0459164 -0.0626354 0)
(-0.0409456 -0.0377442 0)
(-0.0402353 -0.0271099 0)
(-0.0361219 -0.0173806 0)
(-0.030144 -0.00871079 0)
(-0.0246309 -0.00696924 0)
(-0.0240939 -0.0162337 0)
(-0.0304622 -0.0354985 0)
(-0.0409369 -0.0562204 0)
(-0.0452409 -0.0628226 0)
(-0.0301601 -0.045788 0)
(0.0143674 -0.0116914 0)
(0.0632371 -0.042405 0)
(0.0584852 -0.173526 0)
(0.0183139 -0.225162 0)
(0.000717236 -0.267832 0)
(0.00736479 -0.350036 0)
(0.0568705 -0.384759 0)
(0.186886 -0.372545 0)
(0.305332 -0.304514 0)
(0.43005 -0.0694489 0)
(-0.0184893 0.0356631 0)
(-0.0266042 -0.111403 0)
(-0.0340636 -0.0635543 0)
(-0.0321471 -0.0377263 0)
(-0.0319041 -0.0286414 0)
(-0.0287821 -0.0219929 0)
(-0.0234679 -0.0149919 0)
(-0.0168992 -0.011095 0)
(-0.0121686 -0.0150908 0)
(-0.0119537 -0.028758 0)
(-0.0163527 -0.0485213 0)
(-0.0217453 -0.067362 0)
(-0.0189585 -0.0818695 0)
(0.00365773 -0.0955134 0)
(0.0468457 -0.128993 0)
(0.0552307 -0.182333 0)
(0.0357209 -0.208366 0)
(0.0271782 -0.235953 0)
(0.0241039 -0.312358 0)
(0.0291684 -0.388637 0)
(0.085097 -0.404634 0)
(0.145637 -0.375071 0)
(0.232163 -0.215974 0)
(-0.0111183 0.055102 0)
(-0.0185692 -0.102949 0)
(-0.0254696 -0.0615053 0)
(-0.0256174 -0.0372182 0)
(-0.0256424 -0.029874 0)
(-0.0235834 -0.0256425 0)
(-0.0192685 -0.0212315 0)
(-0.0126682 -0.0183462 0)
(-0.00541064 -0.0204237 0)
(-2.23234e-05 -0.0299399 0)
(0.00201374 -0.0458034 0)
(0.00157878 -0.0643062 0)
(0.00345972 -0.0818775 0)
(0.0109702 -0.0998291 0)
(0.0232644 -0.126808 0)
(0.0241326 -0.168803 0)
(0.00948161 -0.200281 0)
(0.00317529 -0.239767 0)
(-0.00957552 -0.315365 0)
(-0.0368416 -0.402072 0)
(-0.0445183 -0.45209 0)
(-0.0441248 -0.424298 0)
(-0.0052334 -0.281973 0)
(-0.00620335 0.0673056 0)
(-0.0131377 -0.0960878 0)
(-0.0192077 -0.0587686 0)
(-0.0206523 -0.0359349 0)
(-0.0213179 -0.0303591 0)
(-0.0203966 -0.0281785 0)
(-0.0176409 -0.0262603 0)
(-0.0126859 -0.0254571 0)
(-0.00618051 -0.027863 0)
(-1.23615e-05 -0.0355249 0)
(0.00388785 -0.0486827 0)
(0.00496593 -0.0654933 0)
(0.00478079 -0.0837769 0)
(0.00400312 -0.104638 0)
(0.00279002 -0.129331 0)
(-0.00492838 -0.158514 0)
(-0.0201127 -0.186934 0)
(-0.0318049 -0.224217 0)
(-0.0526836 -0.286171 0)
(-0.087813 -0.361687 0)
(-0.139666 -0.41797 0)
(-0.195623 -0.39897 0)
(-0.226175 -0.280487 0)
(-0.00319936 0.0752042 0)
(-0.00950817 -0.0900118 0)
(-0.0149636 -0.0556049 0)
(-0.0172937 -0.0340644 0)
(-0.0186402 -0.0298957 0)
(-0.018855 -0.029229 0)
(-0.0178079 -0.0291151 0)
(-0.0152623 -0.0301414 0)
(-0.0114426 -0.0334908 0)
(-0.00747794 -0.040387 0)
(-0.00501562 -0.051296 0)
(-0.00523511 -0.0654275 0)
(-0.00795853 -0.081467 0)
(-0.0131012 -0.0996707 0)
(-0.0207789 -0.120368 0)
(-0.0329953 -0.144407 0)
(-0.0483683 -0.170177 0)
(-0.066687 -0.204138 0)
(-0.093508 -0.256472 0)
(-0.135608 -0.317395 0)
(-0.200394 -0.362935 0)
(-0.272792 -0.352869 0)
(-0.316663 -0.256815 0)
(-0.00148455 0.0805744 0)
(-0.00715112 -0.0845317 0)
(-0.0122474 -0.0519509 0)
(-0.0152601 -0.0316661 0)
(-0.0172284 -0.0286138 0)
(-0.0184523 -0.0289516 0)
(-0.0188916 -0.0298784 0)
(-0.0185696 -0.0319321 0)
(-0.0176498 -0.0358345 0)
(-0.0167498 -0.0421875 0)
(-0.0169758 -0.0512895 0)
(-0.0193622 -0.0628617 0)
(-0.0242257 -0.0763248 0)
(-0.031529 -0.0917465 0)
(-0.0415072 -0.109336 0)
(-0.0548656 -0.129415 0)
(-0.07138 -0.151304 0)
(-0.0920409 -0.178432 0)
(-0.123683 -0.216215 0)
(-0.174794 -0.259985 0)
(-0.246819 -0.293783 0)
(-0.324388 -0.292891 0)
(-0.3753 -0.240255 0)
(-0.000687698 0.0843327 0)
(-0.00579048 -0.0795624 0)
(-0.0106734 -0.0480209 0)
(-0.0141695 -0.0287625 0)
(-0.0167322 -0.0265669 0)
(-0.0188159 -0.0275524 0)
(-0.0204493 -0.0289864 0)
(-0.0217966 -0.0313897 0)
(-0.023089 -0.0352987 0)
(-0.0247202 -0.041005 0)
(-0.0273431 -0.0486291 0)
(-0.0316405 -0.0581134 0)
(-0.0380064 -0.0693024 0)
(-0.0466435 -0.0821922 0)
(-0.0579876 -0.0968774 0)
(-0.0726616 -0.11341 0)
(-0.0909363 -0.131431 0)
(-0.113808 -0.151191 0)
(-0.145856 -0.173615 0)
(-0.194784 -0.19815 0)
(-0.264535 -0.218495 0)
(-0.344395 -0.218106 0)
(-0.411879 -0.182695 0)
(-0.000473663 0.0873618 0)
(-0.005119 -0.0749038 0)
(-0.009937 -0.0438338 0)
(-0.0137816 -0.0254422 0)
(-0.0168561 -0.0238625 0)
(-0.0196579 -0.0252372 0)
(-0.0222438 -0.0268757 0)
(-0.0247926 -0.0292602 0)
(-0.027568 -0.0328357 0)
(-0.0308877 -0.0377815 0)
(-0.0351681 -0.0441489 0)
(-0.0408537 -0.0519211 0)
(-0.0483335 -0.0610467 0)
(-0.0580087 -0.0714602 0)
(-0.0703765 -0.0830795 0)
(-0.086087 -0.0957629 0)
(-0.106083 -0.109252 0)
(-0.131307 -0.123001 0)
(-0.162528 -0.135916 0)
(-0.202068 -0.146797 0)
(-0.253947 -0.15286 0)
(-0.316343 -0.146692 0)
(-0.378669 -0.121283 0)
(-0.000495117 0.0901352 0)
(-0.00485398 -0.0703805 0)
(-0.00975025 -0.0394419 0)
(-0.0138458 -0.0217696 0)
(-0.0173526 -0.0206104 0)
(-0.0207392 -0.0221683 0)
(-0.024094 -0.0238295 0)
(-0.0275567 -0.026028 0)
(-0.0313593 -0.0291325 0)
(-0.0357833 -0.0332762 0)
(-0.0411522 -0.0384905 0)
(-0.0478103 -0.0447317 0)
(-0.0561077 -0.051937 0)
(-0.066446 -0.0599973 0)
(-0.0792483 -0.0686936 0)
(-0.0949743 -0.0776659 0)
(-0.114277 -0.0866061 0)
(-0.137938 -0.0953877 0)
(-0.166761 -0.103394 0)
(-0.201469 -0.108361 0)
(-0.242339 -0.106309 0)
(-0.287055 -0.0930575 0)
(-0.33043 -0.0670859 0)
(-0.0006001 0.0929024 0)
(-0.00483025 -0.0658559 0)
(-0.00989272 -0.0348585 0)
(-0.0141684 -0.0178056 0)
(-0.018029 -0.0169126 0)
(-0.0218811 -0.01849 0)
(-0.025842 -0.0200404 0)
(-0.0300146 -0.0219598 0)
(-0.0345838 -0.0245506 0)
(-0.0397891 -0.027899 0)
(-0.0459014 -0.0320125 0)
(-0.0532179 -0.0368343 0)
(-0.0620417 -0.0422776 0)
(-0.0727018 -0.0482001 0)
(-0.0855449 -0.054369 0)
(-0.100914 -0.0604597 0)
(-0.11919 -0.0660016 0)
(-0.140793 -0.0703437 0)
(-0.166332 -0.0727227 0)
(-0.196374 -0.0721261 0)
(-0.230421 -0.066811 0)
(-0.265874 -0.0542029 0)
(-0.299181 -0.0324666 0)
(-0.000707169 0.0957514 0)
(-0.00491204 -0.0612314 0)
(-0.0102016 -0.0300986 0)
(-0.0146024 -0.013602 0)
(-0.0187427 -0.0128648 0)
(-0.0229493 -0.0143418 0)
(-0.0273627 -0.01568 0)
(-0.0320603 -0.0172539 0)
(-0.0371905 -0.0193115 0)
(-0.0429487 -0.0218938 0)
(-0.049554 -0.0249809 0)
(-0.057254 -0.0285095 0)
(-0.0663012 -0.0323778 0)
(-0.0769455 -0.036425 0)
(-0.0894561 -0.0404015 0)
(-0.104102 -0.0439764 0)
(-0.121146 -0.0467392 0)
(-0.140785 -0.0482171 0)
(-0.163148 -0.0477879 0)
(-0.188237 -0.0443629 0)
(-0.215602 -0.0364819 0)
(-0.24372 -0.0229843 0)
(-0.269988 -0.00322389 0)
(-0.000768418 0.0986816 0)
(-0.00501496 -0.0564474 0)
(-0.0105613 -0.0251816 0)
(-0.0150387 -0.0092123 0)
(-0.0193899 -0.00855176 0)
(-0.0238522 -0.00984885 0)
(-0.0285805 -0.0109114 0)
(-0.0336309 -0.0121005 0)
(-0.0391283 -0.0136211 0)
(-0.0452318 -0.0154829 0)
(-0.0521102 -0.0176423 0)
(-0.0599575 -0.0200283 0)
(-0.0689739 -0.0225262 0)
(-0.0793484 -0.0249783 0)
(-0.0912779 -0.0271518 0)
(-0.104932 -0.0287303 0)
(-0.120434 -0.0293177 0)
(-0.13786 -0.0284488 0)
(-0.157232 -0.0256313 0)
(-0.178389 -0.0201845 0)
(-0.200749 -0.0112276 0)
(-0.223147 0.00184652 0)
(-0.244093 0.0193236 0)
(-0.000764147 0.101665 0)
(-0.00509096 -0.0514731 0)
(-0.0108925 -0.0201361 0)
(-0.0153999 -0.00469047 0)
(-0.0198966 -0.00405199 0)
(-0.0245277 -0.00512106 0)
(-0.0294562 -0.00587727 0)
(-0.0347159 -0.00667253 0)
(-0.0404124 -0.00767491 0)
(-0.0466759 -0.00887324 0)
(-0.0536394 -0.0102054 0)
(-0.0614469 -0.0115964 0)
(-0.0702521 -0.012928 0)
(-0.0801951 -0.0140516 0)
(-0.0914049 -0.0147588 0)
(-0.103993 -0.0147648 0)
(-0.118 -0.0137303 0)
(-0.133397 -0.0112822 0)
(-0.150097 -0.00704126 0)
(-0.167847 -0.000506042 0)
(-0.186112 0.00893523 0)
(-0.204115 0.0214908 0)
(-0.220742 0.0370479 0)
(-0.000688369 0.104653 0)
(-0.00511501 -0.0463076 0)
(-0.0111362 -0.0150005 0)
(-0.0156281 -8.96404e-05 0)
(-0.0202112 0.000561519 0)
(-0.0249346 -0.000257578 0)
(-0.0299672 -0.000702861 0)
(-0.035322 -0.00111311 0)
(-0.041086 -0.00162964 0)
(-0.0473633 -0.00222557 0)
(-0.0542606 -0.0028312 0)
(-0.0618878 -0.00336611 0)
(-0.0703566 -0.00371964 0)
(-0.0797652 -0.00375237 0)
(-0.0901913 -0.00328564 0)
(-0.101692 -0.00208344 0)
(-0.114251 0.000149763 0)
(-0.127775 0.00371882 0)
(-0.142133 0.00888552 0)
(-0.157071 0.0159713 0)
(-0.172098 0.0253971 0)
(-0.186564 0.0371984 0)
(-0.199767 0.051062 0)
(-0.000549659 0.107584 0)
(-0.00507171 -0.0409799 0)
(-0.0112442 -0.00981922 0)
(-0.0156784 0.00454431 0)
(-0.0202978 0.00522819 0)
(-0.0250481 0.00466639 0)
(-0.0300995 0.00452262 0)
(-0.0354537 0.00447173 0)
(-0.0411838 0.00439739 0)
(-0.0473697 0.00433704 0)
(-0.054094 0.00436003 0)
(-0.0614388 0.00454862 0)
(-0.0694845 0.00500509 0)
(-0.0782969 0.00585395 0)
(-0.0879189 0.00724374 0)
(-0.0983639 0.00936473 0)
(-0.109579 0.0124538 0)
(-0.121449 0.0167502 0)
(-0.133824 0.0224234 0)
(-0.146447 0.0296531 0)
(-0.158882 0.0387495 0)
(-0.170615 0.049696 0)
(-0.181104 0.0619888 0)
(-0.000375385 0.11039 0)
(-0.00494472 -0.0355514 0)
(-0.0111751 -0.00465069 0)
(-0.0155127 0.00916568 0)
(-0.0201217 0.00989308 0)
(-0.0248386 0.00958389 0)
(-0.0298436 0.00972298 0)
(-0.0351239 0.00999775 0)
(-0.0407407 0.0103158 0)
(-0.0467561 0.0107208 0)
(-0.0532332 0.0112807 0)
(-0.0602321 0.0120736 0)
(-0.0678079 0.0131944 0)
(-0.0760012 0.0147481 0)
(-0.0848275 0.0168543 0)
(-0.0942803 0.0196646 0)
(-0.104289 0.0233542 0)
(-0.114721 0.0281021 0)
(-0.125435 0.0340246 0)
(-0.136197 0.0411954 0)
(-0.146599 0.0497808 0)
(-0.156176 0.0597888 0)
(-0.164629 0.0706684 0)
(-0.000196061 0.113021 0)
(-0.00471277 -0.030113 0)
(-0.0109099 0.000435702 0)
(-0.0151076 0.0137273 0)
(-0.0196625 0.0145022 0)
(-0.0242908 0.014429 0)
(-0.0291906 0.0148254 0)
(-0.0343365 0.0153941 0)
(-0.0397803 0.0160581 0)
(-0.0455702 0.016864 0)
(-0.0517538 0.0178757 0)
(-0.0583704 0.0191701 0)
(-0.0654572 0.0208324 0)
(-0.0730397 0.022944 0)
(-0.0811107 0.0256035 0)
(-0.0896517 0.0289159 0)
(-0.0985947 0.0330211 0)
(-0.107797 0.0380428 0)
(-0.117122 0.0440328 0)
(-0.126413 0.0509986 0)
(-0.135301 0.0590142 0)
(-0.14331 0.0680876 0)
(-0.150267 0.0776826 0)
(-2.27765e-05 0.115419 0)
(-0.00435444 -0.024769 0)
(-0.0104565 0.00537461 0)
(-0.01446 0.0181858 0)
(-0.0189177 0.019007 0)
(-0.0234022 0.01915 0)
(-0.0281429 0.0197781 0)
(-0.0331012 0.0206086 0)
(-0.0383238 0.0215751 0)
(-0.043848 0.0227249 0)
(-0.0497046 0.0241169 0)
(-0.0559167 0.0258289 0)
(-0.0625175 0.0279224 0)
(-0.0695143 0.0304654 0)
(-0.0768894 0.0335458 0)
(-0.0846122 0.0372358 0)
(-0.0926186 0.0416226 0)
(-0.100805 0.0468007 0)
(-0.109036 0.0527749 0)
(-0.11717 0.059474 0)
(-0.124929 0.0669235 0)
(-0.131857 0.0751336 0)
(-0.137861 0.0836639 0)
(0.00017048 0.117511 0)
(-0.00384907 -0.0196002 0)
(-0.00984938 0.0101175 0)
(-0.0135942 0.0224995 0)
(-0.0179116 0.023358 0)
(-0.0221967 0.0236965 0)
(-0.0267257 0.024534 0)
(-0.0314447 0.0255945 0)
(-0.0363986 0.026826 0)
(-0.0416159 0.0282743 0)
(-0.0471108 0.0299901 0)
(-0.0529062 0.0320437 0)
(-0.0590325 0.0344763 0)
(-0.0654684 0.0373627 0)
(-0.0721863 0.040766 0)
(-0.0791832 0.044743 0)
(-0.0863945 0.0493247 0)
(-0.0937204 0.0545918 0)
(-0.101071 0.0605358 0)
(-0.108336 0.0670141 0)
(-0.115312 0.0739696 0)
(-0.121595 0.0814277 0)
(-0.127134 0.0891049 0)
(0.000444532 0.119202 0)
(-0.00318071 -0.0146271 0)
(-0.00914108 0.0146339 0)
(-0.0125615 0.0266243 0)
(-0.0166992 0.0274997 0)
(-0.0207267 0.0280126 0)
(-0.0249959 0.0290351 0)
(-0.029424 0.0302989 0)
(-0.0340524 0.0317652 0)
(-0.0389129 0.0334727 0)
(-0.0440096 0.0354637 0)
(-0.0493649 0.0377905 0)
(-0.0549934 0.0405117 0)
(-0.0608656 0.0436794 0)
(-0.066963 0.0473412 0)
(-0.0732946 0.0515226 0)
(-0.0797937 0.0562686 0)
(-0.0863708 0.0616097 0)
(-0.093002 0.0675196 0)
(-0.0995943 0.0738555 0)
(-0.106026 0.0804653 0)
(-0.11199 0.0873661 0)
(-0.117434 0.0944768 0)
(0.000880574 0.120345 0)
(-0.00235661 -0.00979802 0)
(-0.00839342 0.0189123 0)
(-0.0114259 0.0304974 0)
(-0.015361 0.0313734 0)
(-0.0190794 0.0320443 0)
(-0.0230441 0.0332277 0)
(-0.0271278 0.0346778 0)
(-0.0313776 0.0363398 0)
(-0.0358288 0.0382575 0)
(-0.0404838 0.04048 0)
(-0.0453389 0.0430419 0)
(-0.0504208 0.0460087 0)
(-0.0557044 0.0493978 0)
(-0.061176 0.0532695 0)
(-0.0668326 0.0576257 0)
(-0.0726252 0.0625153 0)
(-0.0785103 0.0679333 0)
(-0.0844669 0.073855 0)
(-0.0904485 0.0801467 0)
(-0.0964234 0.0866117 0)
(-0.102186 0.0932204 0)
(-0.107698 0.100069 0)
(0.00152184 0.120718 0)
(-0.00141265 -0.00498718 0)
(-0.00768093 0.0229815 0)
(-0.0102545 0.0340904 0)
(-0.0139773 0.0349444 0)
(-0.0173557 0.035755 0)
(-0.0209848 0.0370751 0)
(-0.0247001 0.0386663 0)
(-0.0285521 0.0404863 0)
(-0.0325439 0.042576 0)
(-0.0366936 0.0449873 0)
(-0.0409987 0.0477474 0)
(-0.0454889 0.0509014 0)
(-0.050128 0.0544842 0)
(-0.054907 0.0585137 0)
(-0.0598436 0.0630196 0)
(-0.0648855 0.0680351 0)
(-0.0700061 0.0735481 0)
(-0.0752323 0.07953 0)
(-0.0805122 0.0858965 0)
(-0.0858776 0.0923979 0)
(-0.091305 0.0989692 0)
(-0.0967172 0.105867 0)
(0.00229128 0.120131 0)
(-0.000432864 -2.29283e-05 0)
(-0.00701557 0.0269079 0)
(-0.00911106 0.0374135 0)
(-0.0126636 0.0382071 0)
(-0.0156925 0.0391512 0)
(-0.0190048 0.0405612 0)
(-0.022355 0.0422509 0)
(-0.0257922 0.044196 0)
(-0.0293204 0.0464209 0)
(-0.0329566 0.04897 0)
(-0.0366972 0.0518752 0)
(-0.0405535 0.0551507 0)
(-0.0445212 0.0588651 0)
(-0.0485864 0.0630141 0)
(-0.0527248 0.0676166 0)
(-0.0569199 0.072732 0)
(-0.0611822 0.0783157 0)
(-0.0654996 0.0843878 0)
(-0.0698745 0.090865 0)
(-0.0743828 0.0975418 0)
(-0.0790292 0.10429 0)
(-0.0837811 0.111467 0)
(0.00316937 0.118636 0)
(0.000541652 0.00507277 0)
(-0.00645601 0.0307706 0)
(-0.00807125 0.0404825 0)
(-0.0115257 0.0411868 0)
(-0.0142364 0.042252 0)
(-0.0172902 0.0437175 0)
(-0.0203063 0.0454771 0)
(-0.0233837 0.0474909 0)
(-0.0265062 0.0497927 0)
(-0.0296776 0.0524182 0)
(-0.0329167 0.0554024 0)
(-0.0362074 0.0587573 0)
(-0.0395189 0.0625244 0)
(-0.0428823 0.06674 0)
(-0.0462395 0.0713987 0)
(-0.0495841 0.0765616 0)
(-0.0528958 0.082155 0)
(-0.0562014 0.0882295 0)
(-0.0594889 0.0947336 0)
(-0.0627949 0.101589 0)
(-0.0662291 0.108604 0)
(-0.0696352 0.11613 0)
(0.00419205 0.116137 0)
(0.00149998 0.0104169 0)
(-0.00603178 0.0346225 0)
(-0.0071868 0.0433164 0)
(-0.0106696 0.0439457 0)
(-0.0131036 0.0451094 0)
(-0.0159851 0.0466157 0)
(-0.0187661 0.0483837 0)
(-0.0215868 0.0504159 0)
(-0.0244102 0.0527449 0)
(-0.0272411 0.055396 0)
(-0.0300852 0.0584008 0)
(-0.0329337 0.0617878 0)
(-0.0357391 0.0655636 0)
(-0.0385243 0.0697515 0)
(-0.0412171 0.0743965 0)
(-0.0438346 0.07946 0)
(-0.0463667 0.0849865 0)
(-0.0487238 0.0909607 0)
(-0.050877 0.0973996 0)
(-0.0528954 0.104225 0)
(-0.0548827 0.111361 0)
(-0.0565048 0.119098 0)
(0.0053444 0.112533 0)
(0.00238724 0.016118 0)
(-0.00571038 0.038531 0)
(-0.00644575 0.0459689 0)
(-0.0100951 0.0465573 0)
(-0.0123188 0.0477915 0)
(-0.0151517 0.0493029 0)
(-0.0178084 0.0510578 0)
(-0.0204721 0.0530837 0)
(-0.0231266 0.0554107 0)
(-0.025763 0.0580559 0)
(-0.0283775 0.0610429 0)
(-0.0309627 0.0643988 0)
(-0.0334765 0.0681206 0)
(-0.0358962 0.0722152 0)
(-0.0382073 0.0767382 0)
(-0.0403631 0.0816248 0)
(-0.0422764 0.0869789 0)
(-0.0439368 0.0927286 0)
(-0.0452951 0.0989198 0)
(-0.0463032 0.10547 0)
(-0.0470458 0.112429 0)
(-0.0470282 0.120062 0)
(0.00647893 0.107871 0)
(0.00310864 0.0222889 0)
(-0.00542502 0.042576 0)
(-0.0058181 0.0485763 0)
(-0.00974482 0.0491387 0)
(-0.0118139 0.0504217 0)
(-0.0146574 0.0519096 0)
(-0.0172639 0.0536602 0)
(-0.0198682 0.0556704 0)
(-0.0224575 0.0579756 0)
(-0.0250285 0.0605966 0)
(-0.0275559 0.0635433 0)
(-0.0300415 0.066826 0)
(-0.0324477 0.0704563 0)
(-0.0347294 0.0744301 0)
(-0.0368731 0.0787511 0)
(-0.0388089 0.0834417 0)
(-0.0404905 0.0885106 0)
(-0.041847 0.0939036 0)
(-0.0428036 0.0996791 0)
(-0.0432876 0.105804 0)
(-0.0432996 0.112284 0)
(-0.0422672 0.119432 0)
(0.00738544 0.10256 0)
(0.00355633 0.0289481 0)
(-0.00515142 0.0468488 0)
(-0.00525057 0.0513398 0)
(-0.00946102 0.051928 0)
(-0.0113736 0.0532325 0)
(-0.0142533 0.0546926 0)
(-0.0168264 0.0564261 0)
(-0.0194112 0.0584242 0)
(-0.0219747 0.0607068 0)
(-0.0245218 0.0632977 0)
(-0.0270396 0.0662024 0)
(-0.0295021 0.0694112 0)
(-0.031878 0.0729354 0)
(-0.0341537 0.076761 0)
(-0.0362843 0.0808863 0)
(-0.0381956 0.0853325 0)
(-0.0398405 0.0900672 0)
(-0.0411445 0.095094 0)
(-0.042027 0.10038 0)
(-0.0424136 0.105951 0)
(-0.0422769 0.111763 0)
(-0.0409588 0.118149 0)
(0.00795856 0.0967988 0)
(0.00376888 0.0357132 0)
(-0.00484808 0.0509932 0)
(-0.00467611 0.054062 0)
(-0.00905009 0.0547228 0)
(-0.0107908 0.0559891 0)
(-0.0136665 0.0573998 0)
(-0.0161649 0.059131 0)
(-0.018687 0.0611065 0)
(-0.0211916 0.0633625 0)
(-0.023683 0.065916 0)
(-0.0261527 0.0687781 0)
(-0.028578 0.0719302 0)
(-0.0309246 0.075366 0)
(-0.0331722 0.0790573 0)
(-0.0352781 0.0830125 0)
(-0.0371895 0.0872231 0)
(-0.0388543 0.0916679 0)
(-0.0402109 0.0963297 0)
(-0.041177 0.101137 0)
(-0.0416499 0.106115 0)
(-0.0416165 0.111219 0)
(-0.0404615 0.116777 0)
(0.00813949 0.0904633 0)
(0.00371974 0.0421766 0)
(-0.00443797 0.0546355 0)
(-0.00403877 0.0564099 0)
(-0.00839881 0.0572012 0)
(-0.00993658 0.0583395 0)
(-0.0126838 0.059769 0)
(-0.015016 0.0614502 0)
(-0.0174194 0.0634338 0)
(-0.0197708 0.0657096 0)
(-0.0221018 0.0682575 0)
(-0.0244233 0.0710796 0)
(-0.0267054 0.0741874 0)
(-0.0289214 0.0775507 0)
(-0.0310599 0.0811386 0)
(-0.0330695 0.0849425 0)
(-0.0348982 0.0889311 0)
(-0.0364965 0.0930828 0)
(-0.037858 0.0973785 0)
(-0.0388749 0.10178 0)
(-0.0394102 0.106272 0)
(-0.0395081 0.110668 0)
(-0.0385958 0.115457 0)
(0.00764949 0.0840288 0)
(0.00336388 0.0482983 0)
(-0.00380373 0.0577735 0)
(-0.00330949 0.058428 0)
(-0.00739223 0.0594037 0)