/*--------------------------------*- C++ -*----------------------------------*\
| =========                 |                                                 |
| \\      /  F ield         | OpenFOAM: The Open Source CFD Toolbox           |
|  \\    /   O peration     | Version:  2206                                  |
|   \\  /    A nd           | Website:  www.openfoam.com                      |
|    \\/     M anipulation  |                                                 |
\*---------------------------------------------------------------------------*/
FoamFile
{
    version     2.0;
    format      ascii;
    arch        "LSB;label=32;scalar=64";
    class       surfaceScalarField;
    location    "0.3";
    object      alphaPhi0.water;
}
// * * * * * * * * * * * * * * * * * * * * * * * * * * * * * * * * * * * * * //

dimensions      [0 3 -1 0 0 0 0];

oriented        oriented;

internalField   nonuniform List<scalar> 
4432
(
-8.67959e-07
8.67959e-07
2.83773e-06
-3.70568e-06
8.95408e-06
-6.11636e-06
1.54697e-05
-6.51565e-06
2.13121e-05
-5.84242e-06
2.62344e-05
-4.92229e-06
3.03919e-05
-4.15746e-06
3.40318e-05
-3.63991e-06
3.73481e-05
-3.31633e-06
4.04343e-05
-3.08616e-06
4.32858e-05
-2.85149e-06
4.58205e-05
-2.53476e-06
4.78965e-05
-2.076e-06
4.92963e-05
-1.39983e-06
4.95554e-05
-2.59107e-07
4.77813e-05
1.77413e-06
4.26942e-05
5.08709e-06
3.28332e-05
9.86106e-06
1.78009e-05
1.50323e-05
8.71221e-08
1.77138e-05
-1.02718e-05
1.19674e-05
-1.32797e-05
2.7701e-06
-1.35828e-05
-7.86301e-07
1.65426e-06
2.98605e-06
-7.47803e-06
9.12112e-06
-1.22514e-05
1.56138e-05
-1.30083e-05
2.14258e-05
-1.16545e-05
2.63308e-05
-9.82721e-06
3.04933e-05
-8.32001e-06
3.41625e-05
-7.30912e-06
3.75268e-05
-6.68059e-06
4.06722e-05
-6.23154e-06
4.35888e-05
-5.76808e-06
4.61939e-05
-5.13993e-06
4.83501e-05
-4.23213e-06
4.98849e-05
-2.93464e-06
5.07867e-05
-1.16091e-06
5.11635e-05
1.39727e-06
5.09399e-05
5.31075e-06
4.88381e-05
1.19629e-05
4.17944e-05
2.20759e-05
2.68809e-05
3.26273e-05
6.17526e-06
3.31775e-05
-3.77523e-06
1.3771e-05
-1.99126e-05
-6.21068e-07
2.27533e-06
3.22569e-06
-1.13248e-05
9.35354e-06
-1.83793e-05
1.57516e-05
-1.94064e-05
2.14451e-05
-1.7348e-05
2.6259e-05
-1.46411e-05
3.03815e-05
-1.24425e-05
3.40623e-05
-1.09899e-05
3.74766e-05
-1.00949e-05
4.06943e-05
-9.44928e-06
4.36945e-05
-8.76824e-06
4.63904e-05
-7.83591e-06
4.86528e-05
-6.49452e-06
5.03272e-05
-4.609e-06
5.12033e-05
-2.03704e-06
5.11393e-05
1.46134e-06
5.02229e-05
6.22714e-06
4.91494e-05
1.30363e-05
4.79051e-05
2.33203e-05
4.32617e-05
3.72708e-05
3.05953e-05
4.58439e-05
1.33791e-05
3.09898e-05
-6.54173e-06
-3.74957e-07
2.65028e-06
3.57776e-06
-1.52775e-05
9.68329e-06
-2.44848e-05
1.59411e-05
-2.56641e-05
2.14661e-05
-2.2873e-05
2.61587e-05
-1.93338e-05
3.02383e-05
-1.65221e-05
3.39498e-05
-1.47014e-05
3.74464e-05
-1.35915e-05
4.07747e-05
-1.27776e-05
4.38984e-05
-1.18919e-05
4.67262e-05
-1.06637e-05
4.91327e-05
-8.90098e-06
5.09697e-05
-6.44599e-06
5.20686e-05
-3.13594e-06
5.22664e-05
1.26349e-06
5.14343e-05
7.05926e-06
4.98266e-05
1.4644e-05
4.86633e-05
2.44836e-05
4.80483e-05
3.78858e-05
4.22106e-05
5.16816e-05
2.50652e-05
4.81322e-05
1.82524e-05
-3.58036e-08
2.68609e-06
4.01913e-06
-1.93324e-05
1.00745e-05
-3.05402e-05
1.61451e-05
-3.17347e-05
2.14607e-05
-2.81886e-05
2.60134e-05
-2.38865e-05
3.00555e-05
-2.05641e-05
3.38191e-05
-1.8465e-05
3.74264e-05
-1.71988e-05
4.08947e-05
-1.62459e-05
4.41702e-05
-1.51675e-05
4.71576e-05
-1.36511e-05
4.9737e-05
-1.14804e-05
5.17744e-05
-8.48334e-06
5.31261e-05
-4.48766e-06
5.3664e-05
7.25629e-07
5.32932e-05
7.42999e-06
5.1965e-05
1.59722e-05
5.00313e-05
2.64172e-05
4.88337e-05
3.90834e-05
4.55921e-05
5.49233e-05
3.08406e-05
6.28836e-05
4.88211e-05
2.6567e-07
2.42042e-06
4.52171e-06
-2.35885e-05
1.05021e-05
-3.65206e-05
1.63418e-05
-3.75744e-05
2.1419e-05
-3.32658e-05
2.58278e-05
-2.82953e-05
2.98477e-05
-2.4584e-05
3.36874e-05
-2.23047e-05
3.74295e-05
-2.09408e-05
4.10588e-05
-1.98752e-05
4.45047e-05
-1.86134e-05
4.76697e-05
-1.68161e-05
5.04426e-05
-1.42533e-05
5.27045e-05
-1.07452e-05
5.43321e-05
-6.11526e-06
5.52171e-05
-1.59341e-07
5.52807e-05
7.36636e-06
5.4485e-05
1.67679e-05
5.26069e-05
2.82953e-05
5.01442e-05
4.15461e-05
4.65425e-05
5.85249e-05
3.34974e-05
7.59288e-05
8.20505e-05
6.43528e-07
1.7769e-06
5.08022e-06
-2.80252e-05
1.09494e-05
-4.23898e-05
1.65198e-05
-4.31447e-05
2.13443e-05
-3.80904e-05
2.56201e-05
-3.25711e-05
2.96422e-05
-2.86061e-05
3.35834e-05
-2.62459e-05
3.74806e-05
-2.48381e-05
4.12865e-05
-2.3681e-05
4.4917e-05
-2.22439e-05
4.82769e-05
-2.0176e-05
5.12658e-05
-1.72422e-05
5.37767e-05
-1.32561e-05
5.56988e-05
-8.0374e-06
5.69341e-05
-1.39466e-06
5.7411e-05
6.88953e-06
5.71006e-05
1.70783e-05
5.5765e-05
2.96309e-05
5.30253e-05
4.42858e-05
4.85258e-05
6.30245e-05
3.75735e-05
8.68811e-05
0.000119364
1.06459e-06
7.12305e-07
5.67626e-06
-3.26368e-05
1.13996e-05
-4.81131e-05
1.66821e-05
-4.84272e-05
2.12638e-05
-4.2672e-05
2.54345e-05
-3.67419e-05
2.94902e-05
-3.26618e-05
3.35585e-05
-3.03142e-05
3.76294e-05
-2.8909e-05
4.16273e-05
-2.76789e-05
4.54613e-05
-2.60779e-05
4.90425e-05
-2.37573e-05
5.22794e-05
-2.04791e-05
5.50693e-05
-1.60459e-05
5.73036e-05
-1.02717e-05
5.88884e-05
-2.97948e-06
5.97648e-05
6.01313e-06
5.98997e-05
1.69434e-05
5.91908e-05
3.03398e-05
5.71045e-05
4.63721e-05
5.2487e-05
6.7642e-05
4.16127e-05
9.77554e-05
0.000160719
3.12598e-13
-4.89525e-13
1.26955e-14
1.92875e-13
1.82699e-16
5.09597e-15
8.82481e-18
8.15303e-17
3.79628e-19
2.22649e-19
1.52719e-20
-3.51348e-21
7.26609e-22
-1.10333e-21
3.70931e-23
-7.2074e-23
1.94311e-24
-3.24409e-24
9.82283e-26
-1.02341e-25
4.68163e-27
-2.57657e-28
2.14435e-28
7.88271e-29
8.63031e-30
7.35158e-30
2.96643e-31
4.60625e-31
8.17915e-33
2.23165e-32
1.64718e-34
8.39722e-34
2.51981e-36
2.31843e-35
8.20289e-37
4.1273e-37
1.40446e-38
8.71333e-12
-1.01122e-11
5.49152e-13
6.68764e-12
9.05901e-15
2.89717e-13
7.35305e-17
8.63427e-15
1.03091e-17
3.14645e-17
5.99159e-19
-2.81912e-19
2.83035e-20
-7.94529e-20
1.58349e-21
-5.00976e-21
9.12699e-23
-2.17819e-22
5.08294e-24
-7.40784e-24
2.67788e-25
-1.11751e-25
1.35926e-26
1.17629e-26
6.24531e-28
1.48259e-27
2.4781e-29
1.12493e-28
7.97681e-31
6.47479e-30
1.89345e-32
2.88391e-31
2.80901e-34
9.44888e-33
2.93868e-36
2.02917e-34
2.14648e-36
1.54409e-10
-1.82914e-10
1.49963e-11
9.00445e-11
1.86005e-13
8.25957e-12
1.7563e-15
1.81781e-13
4.94944e-17
1.24348e-15
8.66433e-18
-7.87946e-18
5.73983e-19
-2.09067e-18
3.06343e-20
-1.20451e-19
1.8188e-21
-4.61801e-21
1.01627e-22
-1.57127e-22
5.17337e-24
-2.1484e-24
2.65143e-25
3.12814e-25
1.19817e-26
4.13197e-26
4.6396e-28
3.13606e-27
1.4571e-29
1.78575e-28
3.37412e-31
7.82218e-30
5.94145e-33
2.51722e-31
9.32611e-35
5.37599e-33
5.93337e-35
1.57375e-09
-1.96249e-09
2.28469e-10
6.75386e-10
2.11965e-12
1.56266e-10
2.0731e-14
2.16368e-12
2.30859e-16
1.72837e-14
5.48879e-17
-2.29509e-16
6.09615e-18
-2.22572e-17
4.1356e-19
-1.31366e-18
2.92572e-20
-9.55681e-20
3.34227e-21
-3.81088e-21
6.51776e-23
-1.35624e-22
3.6385e-24
8.68385e-24
1.72346e-25
7.61861e-25
6.42855e-27
5.81947e-26
1.99553e-28
3.30573e-27
5.41421e-30
1.43971e-28
1.05686e-31
4.67179e-30
1.68826e-33
1.00108e-31
1.11814e-33
9.21084e-09
-1.30843e-08
1.9588e-09
1.08834e-09
1.13397e-11
1.02078e-09
1.29237e-13
1.2433e-11
6.21684e-16
1.1386e-13
3.04873e-16
-2.13461e-15
4.51364e-17
-1.60639e-16
7.76288e-18
1.28892e-17
1.0793e-18
-2.00899e-18
2.10404e-19
-2.49915e-19
5.17773e-21
-2.16006e-20
8.91151e-23
2.9649e-22
4.77675e-24
2.53923e-23
1.72535e-25
1.9652e-24
6.48381e-27
1.12123e-25
1.93275e-28
5.00631e-27
3.83783e-30
1.65512e-28
4.68753e-32
3.59458e-30
3.9214e-32
3.11857e-08
-6.39026e-08
7.21832e-09
-1.23575e-08
3.11299e-11
2.4736e-09
4.2707e-13
3.98668e-11
1.76369e-14
4.24057e-13
3.91258e-15
-3.8197e-15
1.39878e-15
-3.67019e-16
5.44286e-16
4.7694e-16
5.63738e-17
4.04573e-16
9.79963e-18
-7.45816e-19
3.05805e-19
-1.13515e-18
4.63079e-21
1.72038e-20
2.6767e-22
1.56764e-21
9.42622e-24
1.24732e-22
3.87897e-25
7.24767e-24
1.28009e-26
3.32475e-25
2.69026e-28
1.13129e-26
3.00322e-30
2.52033e-28
2.76262e-30
5.14734e-08
-1.44654e-07
2.97938e-10
8.33748e-11
-3.53641e-11
1.74468e-09
2.65728e-13
6.19257e-12
1.55368e-13
6.07598e-13
1.05249e-13
-1.49095e-13
4.94151e-14
4.15683e-14
3.39379e-14
4.42278e-15
2.66547e-15
3.05097e-14
3.31553e-16
1.69822e-15
1.36611e-17
-3.15311e-17
2.28635e-19
8.91246e-19
1.33433e-20
8.69503e-20
5.2336e-22
7.13506e-21
2.34678e-23
4.29111e-22
8.00102e-25
2.03837e-23
1.73824e-26
7.15892e-25
2.0013e-28
1.6463e-26
1.88815e-28
-3.39547e-09
-5.69256e-08
-1.40796e-09
8.64526e-08
-3.35825e-11
2.68697e-10
2.34949e-12
-8.71816e-11
3.53565e-12
2.31774e-12
6.73754e-12
-3.22291e-12
1.95398e-12
4.45645e-12
1.28585e-12
2.72243e-13
9.83256e-14
1.13447e-12
1.03562e-14
7.69516e-14
4.44115e-16
2.35825e-15
9.29547e-18
4.81721e-17
5.4657e-19
4.00667e-18
2.51874e-20
3.29587e-19
1.17954e-21
2.07507e-20
4.17554e-23
1.026e-21
9.3664e-25
3.74894e-23
1.14228e-26
8.94004e-25
1.08632e-26
3.6708e-06
-2.95849e-06
1.40188e-05
-4.29849e-05
2.57344e-05
-5.98287e-05
3.60511e-05
-5.87439e-05
4.50975e-05
-5.17183e-05
5.3782e-05
-4.54264e-05
6.26542e-05
-4.1534e-05
7.17961e-05
-3.94561e-05
8.10418e-05
-3.81547e-05
9.01666e-05
-3.68037e-05
9.89812e-05
-3.48925e-05
0.000107324
-3.20997e-05
0.000115018
-2.81737e-05
0.000121871
-2.28984e-05
0.000127706
-1.6107e-05
0.000132376
-7.64935e-06
0.00013578
2.60903e-06
0.000137762
1.49609e-05
0.00013841
2.96921e-05
0.000137681
4.71011e-05
0.00013657
6.87532e-05
0.000142071
9.22538e-05
0.000131141
0.000171121
5.70932e-06
-8.66781e-06
1.67112e-05
-5.39867e-05
2.75693e-05
-7.06868e-05
3.66773e-05
-6.78518e-05
4.50106e-05
-6.00517e-05
5.3658e-05
-5.40737e-05
6.29459e-05
-5.08218e-05
7.26807e-05
-4.91908e-05
8.25311e-05
-4.80051e-05
9.22318e-05
-4.65044e-05
0.000101632
-4.42921e-05
0.000110611
-4.10793e-05
0.000119069
-3.66315e-05
0.000126923
-3.07524e-05
0.000134165
-2.33489e-05
0.00014099
-1.44741e-05
0.000147117
-3.51773e-06
0.000152572
9.50579e-06
0.00015717
2.5094e-05
0.000161995
4.22761e-05
0.000170324
6.04236e-05
0.000185254
7.73246e-05
0.000100731
0.000215704
7.99784e-06
-1.66657e-05
1.92729e-05
-6.52617e-05
2.87752e-05
-8.01881e-05
3.65921e-05
-7.56677e-05
4.44001e-05
-6.78589e-05
5.30997e-05
-6.27728e-05
6.25985e-05
-6.03199e-05
7.24428e-05
-5.90345e-05
8.22567e-05
-5.78174e-05
9.18659e-05
-5.61115e-05
0.000101251
-5.36752e-05
0.000110389
-5.02152e-05
0.000119447
-4.56867e-05
0.000128593
-3.98955e-05
0.000137782
-3.25362e-05
0.000146561
-2.32534e-05
0.000155373
-1.23301e-05
0.000164632
2.75481e-07
0.000171223
1.8503e-05
0.000178242
3.52568e-05
0.000187868
5.07981e-05
0.000199622
6.55705e-05
7.91223e-05
0.000221231
1.09289e-05
-2.75945e-05
2.19043e-05
-7.62329e-05
2.91338e-05
-8.74021e-05
3.53584e-05
-8.18782e-05
4.27105e-05
-7.51991e-05
5.14123e-05
-7.14638e-05
6.08682e-05
-6.97619e-05
7.05642e-05
-6.87085e-05
8.03099e-05
-6.75307e-05
9.02728e-05
-6.60308e-05
0.000101023
-6.43751e-05
0.000112061
-6.12021e-05
0.000122717
-5.32851e-05
0.000131457
-4.2048e-05
0.000138291
-3.04259e-05
0.00014332
-1.94304e-05
0.00014855
-1.04104e-05
0.000153864
-2.38025e-06
0.000166918
6.45793e-06
0.000183293
1.82927e-05
0.00019831
3.57816e-05
0.000208453
5.54274e-05
6.55087e-05
0.000222066
1.55288e-05
-4.31191e-05
2.62111e-05
-8.6798e-05
2.96286e-05
-9.06233e-05
3.38182e-05
-8.58842e-05
4.12469e-05
-8.24564e-05
5.0616e-05
-8.02823e-05
6.05792e-05
-7.52773e-05
6.95514e-05
-6.62804e-05
7.63412e-05
-5.46362e-05
7.95987e-05
-4.18263e-05
7.77874e-05
-2.81865e-05
6.70325e-05
-7.34138e-06
5.32382e-05
-1.32075e-06
4.06432e-05
-2.33633e-07
2.96052e-05
-4.37606e-08
2.05336e-05
-9.70533e-09
1.51688e-05
-5.63693e-09
1.42418e-05
-3.05704e-09
2.16346e-05
4.94358e-07
4.00984e-05
8.12295e-07
7.41251e-05
8.1018e-07
0.00012354
2.07957e-06
8.98217e-06
0.000176515
2.25488e-05
-6.06682e-05
2.56817e-05
-4.88611e-05
2.43886e-05
-3.27811e-05
2.59905e-05
-3.13559e-05
2.90744e-05
-2.77813e-05
3.0546e-05
-1.83236e-05
2.80934e-05
-1.22942e-06
2.34801e-05
-9.83854e-08
1.73379e-05
-8.54221e-09
1.04115e-05
-8.26492e-10
8.94716e-06
-9.16915e-11
1.6058e-06
-1.04592e-11
2.85147e-07
-1.2865e-11
5.34813e-08
-1.79224e-09
1.22117e-08
-2.28117e-09
7.29718e-09
-3.69442e-09
8.54925e-09
-2.96076e-09
8.88994e-09
-4.77812e-10
4.91381e-07
1.34362e-08
1.24496e-06
6.08544e-08
1.94388e-06
1.1229e-07
3.80418e-06
1.82641e-07
2.57227e-07
1.20181e-05
1.26362e-05
1.53697e-23
2.28597e-06
2.15283e-23
2.48344e-06
-2.21754e-21
2.54502e-06
-1.89547e-19
2.33189e-06
-6.00894e-18
1.33728e-06
-8.96176e-17
1.07856e-07
-2.64183e-16
9.4705e-09
-2.53752e-16
9.28323e-10
-3.66277e-14
1.01871e-10
-3.80864e-14
1.19455e-11
-2.2418e-12
1.47889e-12
-3.25679e-13
5.24791e-12
-1.66939e-12
4.31748e-10
-2.14067e-09
2.50855e-09
-4.18275e-09
7.4963e-09
-8.67698e-09
1.14268e-08
-9.20993e-09
1.12891e-08
-2.13219e-10
2.14087e-08
2.97132e-09
6.65572e-08
1.48044e-08
1.49826e-07
2.533e-08
3.20796e-07
2.53244e-08
9.73747e-08
6.45058e-07
-1.99484e-24
8.98581e-23
-4.57549e-24
1.20822e-22
8.44029e-23
-2.30652e-21
8.80423e-21
-1.95864e-19
2.91537e-19
-6.05738e-18
3.71418e-18
-8.5739e-17
1.62592e-17
-1.3097e-16
4.04166e-17
-7.82807e-17
2.40142e-15
-3.8862e-14
7.4526e-15
-4.52864e-14
2.77615e-13
-2.51066e-12
4.27389e-13
-7.87005e-13
1.65256e-11
-1.80945e-11
6.11808e-09
-8.1575e-09
5.7155e-08
-5.66749e-08
1.18622e-07
-6.27869e-08
7.11023e-08
-3.22408e-08
2.03659e-08
2.51822e-09
1.46962e-08
6.37787e-09
1.72973e-08
7.42839e-09
2.62043e-08
1.14585e-08
5.65089e-08
1.11273e-08
3.19761e-09
1.64096e-07
5.59187e-24
1.48166e-22
-7.79954e-25
3.05034e-22
6.04761e-22
-1.0198e-20
8.29171e-20
-7.05829e-19
2.8716e-18
-1.90094e-17
4.57798e-17
-3.79931e-16
7.93449e-17
-5.53846e-16
1.16125e-16
-9.13946e-17
4.09928e-14
-1.82322e-13
1.76887e-13
-1.80034e-13
3.37697e-12
-5.68583e-12
5.9026e-12
-3.46246e-12
1.70515e-10
-1.83983e-10
5.62261e-08
-6.69211e-08
1.07552e-07
-9.58032e-08
1.12195e-07
-5.86806e-08
1.08029e-07
-2.3689e-08
2.60149e-08
3.23084e-09
1.80799e-08
9.53762e-09
1.51438e-08
8.47594e-09
1.65352e-08
6.39905e-09
2.20451e-08
2.08481e-09
-1.03784e-08
8.39582e-07
6.80254e-24
2.20068e-22
-1.94586e-23
6.8652e-22
5.18407e-21
-3.25737e-20
8.14633e-19
-4.06674e-18
3.05342e-17
-1.29381e-16
2.69887e-16
-1.21141e-15
3.28727e-16
-1.05658e-15
3.16495e-16
-1.65405e-16
2.80153e-13
-2.37187e-13
1.76146e-12
-1.64985e-12
2.51367e-11
-1.29902e-10
3.11735e-11
-1.01937e-11
1.11133e-09
-1.26982e-09
5.67117e-08
-1.01179e-07
6.82492e-08
-9.51431e-08
4.86009e-08
-2.68346e-08
9.89768e-09
-1.07495e-08
1.01237e-08
6.87358e-10
1.36138e-08
5.97575e-09
1.44838e-08
4.57366e-09
3.10346e-07
2.22758e-08
3.88456e-07
-3.83874e-09
-6.69302e-09
4.37759e-07
-1.15364e-23
3.37342e-22
-6.15565e-23
1.32843e-21
1.00487e-20
-4.10777e-20
2.1148e-18
-7.23809e-18
8.50871e-17
-2.61949e-16
4.06619e-16
-1.51701e-15
4.24584e-16
-1.42551e-15
4.91107e-16
-2.85088e-16
6.75952e-13
-2.69497e-16
3.76757e-12
-1.20903e-11
7.06521e-11
-1.28767e-10
8.65187e-11
-3.74001e-11
6.83616e-09
-1.34006e-11
2.15636e-08
-1.37174e-08
2.15514e-08
-8.29332e-08
8.54085e-09
-1.01733e-07
1.0885e-08
-5.66902e-08
1.07092e-08
-1.80643e-08
5.96947e-08
1.88241e-09
1.91824e-07
6.49539e-09
2.85626e-07
-2.91874e-09
1.66706e-07
-1.20351e-08
-2.96595e-09
1.4393e-08
-2.52788e-23
4.8958e-22
-1.18053e-22
2.273e-21
1.08273e-20
-4.14171e-20
2.7357e-18
-8.42155e-18
1.12195e-16
-2.90471e-16
4.27186e-16
-1.57986e-15
4.84789e-16
-1.97137e-15
1.34288e-16
-3.39427e-16
2.30457e-16
-5.62272e-16
5.74012e-12
-9.42227e-12
2.91386e-11
-1.00322e-10
3.07867e-12
-2.45975e-11
1.2732e-11
-1.27453e-11
1.6261e-09
-1.02471e-12
8.43958e-09
-2.25478e-08
1.82027e-08
-8.00279e-08
4.46498e-08
-5.39833e-08
7.89042e-08
-3.96177e-08
1.04038e-07
-1.04168e-08
1.11204e-07
-7.00167e-09
1.55948e-08
-1.07902e-09
3.66792e-09
-1.02148e-10
-1.99113e-11
7.27415e-10
-3.59237e-23
6.43191e-22
-1.92243e-22
3.45915e-21
9.42641e-21
-2.56858e-20
2.80558e-18
-8.32778e-18
1.09819e-16
-2.61157e-16
4.73067e-16
-1.43082e-15
5.79017e-16
-2.2995e-15
2.82153e-16
-2.16173e-15
1.96735e-15
-1.19656e-15
8.29316e-12
-4.60238e-12
1.31744e-11
-5.38958e-12
1.51193e-14
-7.39239e-12
1.09179e-12
-1.19641e-11
6.70657e-14
-9.2572e-13
5.81126e-10
-1.71122e-13
5.09829e-09
-9.47644e-15
9.59998e-09
-5.5584e-16
1.82421e-08
-1.92545e-16
8.29889e-09
-3.05102e-16
1.19635e-09
-4.6756e-16
1.23677e-10
-2.78884e-15
2.32299e-11
-9.96348e-15
-1.46104e-14
3.34584e-12
-4.28742e-23
7.5724e-22
-2.7587e-22
4.65698e-21
4.26604e-21
-4.33022e-21
2.23214e-18
-4.91627e-18
7.35139e-17
-1.37432e-16
3.89806e-16
-7.26484e-16
7.686e-16
-2.30347e-15
1.21379e-15
-6.79662e-15
5.29738e-15
-4.13085e-15
6.97662e-13
-1.39902e-13
5.36271e-13
-4.09836e-12
7.73724e-13
-5.19692e-12
2.21506e-12
-8.15633e-12
1.24131e-13
-9.75675e-13
6.47897e-15
-5.29895e-14
3.19328e-16
-3.31715e-15
6.534e-17
-3.16725e-16
9.39581e-17
-2.2271e-16
1.42611e-16
-3.33985e-16
2.11249e-16
-4.74544e-16
4.67733e-16
-1.83538e-15
2.0138e-15
-3.3003e-15
-6.02891e-15
5.65461e-15
-4.37937e-23
7.90943e-22
-3.48484e-22
5.48897e-21
6.51507e-22
4.11634e-21
9.81136e-19
-1.53068e-18
3.08464e-17
-4.54416e-17
1.76899e-16
-2.31406e-16
5.19176e-16
-1.45879e-15
1.94267e-15
-4.8839e-15
2.25191e-15
-3.74568e-15
3.5589e-14
-1.72426e-13
1.45299e-12
-4.53529e-12
2.13844e-12
-5.36071e-12
1.7523e-12
-2.72369e-12
5.53363e-14
-6.71516e-14
3.34038e-15
-2.63975e-15
2.59313e-16
-3.07566e-16
8.0671e-17
-1.2483e-16
1.33945e-16
-2.62218e-16
3.18821e-16
-7.7214e-16
8.50241e-16
-1.6384e-15
4.67105e-15
-4.4943e-15
9.09745e-15
-5.88815e-15
-1.24554e-14
2.25632e-14
-3.95446e-23
7.24173e-22
-3.84729e-22
5.57684e-21
-4.30541e-22
7.08986e-21
2.56668e-19
-2.92433e-19
8.70493e-18
-9.65174e-18
5.18558e-17
-5.96912e-17
4.47843e-16
-7.88912e-16
1.37604e-15
-4.03088e-15
2.89143e-15
-3.65162e-15
2.82297e-13
-1.47976e-13
1.56092e-12
-3.02649e-12
1.68151e-12
-2.58302e-12
8.19281e-15
-1.01679e-12
9.21382e-16
-6.15239e-14
2.10309e-16
-3.20793e-15
6.03628e-17
-3.31985e-16
6.26129e-17
-9.90441e-17
3.0398e-16
-1.64155e-16
1.10973e-15
-3.46333e-16
2.89085e-15
-7.91385e-16
8.01658e-15
-2.94669e-15
1.19783e-14
-3.90786e-15
-1.49714e-14
3.41158e-14
-3.17523e-23
5.71157e-22
-3.66653e-22
4.78563e-21
-6.9875e-22
7.97982e-21
4.37317e-20
-3.15586e-20
1.66145e-18
-1.32815e-18
1.28698e-17
-1.39435e-17
2.31669e-16
-3.62027e-16
9.49661e-16
-3.0154e-15
3.00704e-15
-4.0068e-15
1.84848e-13
-4.19761e-14
8.12219e-13
-7.14435e-15
7.05343e-13
-5.75832e-16
4.64357e-14
-1.36035e-13
1.6685e-15
-6.05036e-14
2.40878e-16
-6.25418e-15
4.95261e-17
-2.91056e-16
4.69139e-17
-2.87206e-17
9.46639e-17
-2.65415e-17
2.84323e-16
-1.11084e-16
9.51752e-16
-4.76541e-16
3.63487e-15
-2.02463e-15
6.05669e-15
-3.17479e-15
-2.13632e-14
4.01309e-14
-2.23289e-23
3.78443e-22
-2.95571e-22
3.37713e-21
-7.41085e-22
6.90379e-21
4.97559e-21
-1.04207e-23
2.12914e-19
-1.15348e-19
2.94018e-18
-3.15527e-18
9.708e-17
-1.14681e-16
7.89348e-16
-1.21207e-15
1.48544e-15
-3.34774e-15
6.91169e-15
-1.14025e-15
4.22621e-16
-7.3671e-16
1.06981e-16
-3.85071e-16
1.80095e-14
-1.02008e-16
1.46168e-14
-1.39143e-15
5.02581e-16
-6.32289e-16
2.84964e-17
-6.44212e-17
6.70095e-18
-3.2929e-18
1.5184e-17
-8.72952e-18
1.10982e-16
-6.38885e-17
6.11628e-16
-3.62366e-16
2.5382e-15
-1.60757e-15
5.27174e-15
-3.18528e-15
-3.0738e-14
5.48504e-14
-1.33915e-23
2.03403e-22
-1.9618e-22
1.89162e-21
-6.0446e-22
4.56552e-21
1.03223e-23
5.60228e-22
1.74391e-20
-5.1543e-21
6.49054e-19
-7.52484e-19
2.70614e-17
-2.64273e-17
2.82365e-16
-2.12978e-16
6.3095e-16
-1.11202e-15
1.57431e-16
-1.36171e-15
1.11725e-16
-1.10483e-15
1.003e-16
-5.00441e-16
3.60046e-17
-1.07535e-16
2.20844e-16
-9.99843e-18
8.89225e-17
-1.09721e-18
3.84235e-18
-1.61583e-19
1.09923e-18
-2.96806e-19
6.48232e-18
-3.92519e-18
6.5741e-17
-3.99781e-17
4.34981e-16
-2.71913e-16
1.95441e-15
-1.31359e-15
5.23182e-15
-3.32116e-15
-3.475e-14
6.20367e-14
-6.59508e-24
8.44397e-23
-1.03443e-22
8.01469e-22
-3.76899e-22
2.16772e-21
-6.15293e-23
2.86459e-22
7.94904e-22
-2.74644e-23
1.4689e-19
-1.61514e-19
5.54146e-18
-4.72916e-18
4.7073e-17
-4.4344e-17
1.71158e-16
-1.69088e-16
3.65122e-16
-5.67903e-16
2.73248e-16
-6.63413e-16
8.43939e-17
-3.54826e-16
9.53376e-18
-9.96634e-17
5.22013e-19
-1.14197e-17
8.67922e-20
-7.13441e-19
4.86724e-20
-5.32854e-20
1.7302e-19
-1.08883e-19
3.20506e-18
-1.86442e-18
3.82101e-17
-2.29671e-17
2.93707e-16
-1.86533e-16
1.49261e-15
-9.92112e-16
5.0811e-15
-3.3867e-15
-3.08545e-14
5.80485e-14
-2.53018e-24
2.52281e-23
-4.12546e-23
2.39646e-22
-1.68629e-22
6.77914e-22
-2.96687e-23
8.2164e-23
4.00839e-23
3.54241e-24
2.86117e-20
-2.30117e-20
9.20996e-19
-7.42007e-19
9.13172e-18
-8.86412e-18
3.7582e-17
-3.61829e-17
1.47918e-16
-1.30512e-16
9.68998e-17
-1.18496e-16
4.76474e-17
-6.76315e-17
1.10562e-17
-1.95884e-17
7.80087e-19
-2.17187e-18
5.97541e-20
-9.40569e-20
1.70264e-20
-6.3124e-21
5.27047e-20
-3.19064e-20
1.41692e-18
-7.91109e-19
1.98104e-17
-1.1845e-17
1.80712e-16
-1.18194e-16
1.04538e-15
-7.40136e-16
4.55431e-15
-3.06007e-15
-3.04861e-14
4.15039e-14
-7.02189e-25
4.8497e-24
-1.16017e-23
4.54129e-23
-4.96261e-23
1.29286e-22
-8.01354e-24
1.43466e-23
-4.30917e-25
7.27231e-25
3.61926e-21
-1.44702e-21
1.33812e-19
-7.36872e-20
1.71993e-18
-1.36061e-18
7.42959e-18
-6.70357e-18
1.77086e-17
-1.35846e-17
1.68626e-17
-1.41233e-17
7.31195e-18
-9.10905e-18
1.26712e-18
-3.11468e-18
8.58547e-20
-3.49659e-19
9.63677e-21
-1.38118e-20
1.35538e-21
1.969e-21
1.71391e-20
-7.62149e-21
5.51958e-19
-3.22646e-19
9.28868e-18
-5.81222e-18
1.04177e-16
-7.20263e-17
7.1883e-16
-5.47701e-16
3.59329e-15
-2.63777e-15
-3.06168e-14
3.48849e-14
-1.25685e-25
4.72255e-25
-2.0645e-24
4.45248e-24
-8.88832e-24
1.33289e-23
-1.31479e-24
1.35071e-24
-8.31887e-26
9.51936e-26
2.02592e-22
-8.31391e-25
1.20942e-20
-2.38795e-21
2.44527e-19
-1.12142e-19
1.12658e-18
-7.14897e-19
1.79106e-18
-1.20263e-18
2.00811e-18
-1.68349e-18
1.00513e-18
-1.09066e-18
2.13316e-19
-3.68828e-19
2.77485e-20
-2.5405e-20
4.61703e-21
9.3196e-21
-7.99326e-22
7.61121e-21
4.46175e-21
3.55938e-22
2.09142e-19
-1.33159e-19
4.15615e-18
-2.76026e-18
5.76694e-17
-4.21075e-17
4.82496e-16
-3.87066e-16
2.77875e-15
-2.23724e-15
-2.74121e-14
2.68425e-14
-1.14005e-26
4.83699e-36
-1.8965e-25
3.14547e-34
-8.58317e-25
9.17127e-33
-1.15982e-25
1.70729e-31
-1.02081e-26
-2.76068e-30
1.19284e-25
-2.62761e-28
3.60758e-22
-5.74969e-24
1.85352e-20
-2.84681e-21
1.01607e-19
-2.58465e-20
1.66644e-19
-6.15425e-20
2.16822e-19
-5.91447e-20
1.07265e-19
-3.26622e-20
2.0677e-20
-8.99564e-21
6.12135e-21
4.44861e-22
-3.21188e-21
9.62922e-21
-2.85288e-21
4.62136e-21
-1.44739e-22
2.6861e-22
7.96975e-20
-5.43256e-20
1.77842e-18
-1.2406e-18
3.01679e-17
-2.29981e-17
3.04672e-16
-2.5778e-16
2.07537e-15
-1.79251e-15
-2.35784e-14
1.86172e-14
-1.08658e-37
4.568e-36
-1.25168e-35
3.05232e-34
-5.51402e-34
9.36595e-33
-1.36879e-32
1.8468e-31
5.56497e-31
2.70275e-30
2.74844e-29
3.19995e-29
8.06905e-25
-1.95663e-27
4.37014e-22
-2.67069e-24
3.67126e-21
-3.73864e-23
6.37738e-21
-1.20905e-22
6.38305e-21
-1.77595e-22
2.48231e-21
-1.20899e-22
1.40574e-21
2.51057e-22
-1.30093e-22
2.32363e-21
-3.05562e-21
3.65045e-21
-1.58625e-21
1.3979e-21
-9.94053e-23
-1.05133e-22
2.92756e-20
-2.12314e-20
7.11394e-19
-5.24489e-19
1.45614e-17
-1.16842e-17
1.79225e-16
-1.60349e-16
1.4567e-15
-1.39253e-15
-2.0286e-14
1.31855e-14
-9.52657e-38
3.3939e-36
-1.13062e-35
2.33211e-34
-5.2374e-34
7.52186e-33
-1.37687e-32
1.56695e-31
-2.51695e-31
2.44269e-30
-3.57528e-30
3.19751e-29
2.11189e-28
3.76371e-28
3.84244e-25
-2.7053e-27
5.21902e-24
-2.58787e-25
1.45055e-23
-1.61709e-24
1.84354e-23
-1.72771e-24
1.45215e-23
1.02742e-23
-6.20849e-23
1.36505e-22
-6.23333e-22
5.13973e-22
-1.05777e-21
6.72631e-22
-4.35809e-22
2.21587e-22
4.43267e-22
-1.242e-22
1.012e-20
-7.972e-21
2.66399e-19
-2.1492e-19
6.48268e-18
-5.56932e-18
9.74032e-17
-9.27338e-17
9.88577e-16
-1.04212e-15
-1.66178e-14
8.67435e-15
-6.54804e-38
1.86653e-36
-8.00639e-36
1.31779e-34
-3.89491e-34
4.45471e-33
-1.0814e-32
9.71709e-32
-2.10516e-31
1.58138e-30
-3.30476e-30
2.14796e-29
-4.53717e-29
2.60303e-28
1.07148e-28
2.67277e-27
3.41258e-26
2.06305e-26
1.29111e-25
1.35658e-25
1.02621e-25
1.04652e-24
-2.1364e-24
7.87031e-24
-3.08385e-23
3.48481e-23
-1.25448e-22
8.19478e-23
-1.76487e-22
7.724e-23
-6.22106e-23
2.0867e-23
1.35325e-22
-7.59752e-23
3.31761e-21
-2.87355e-21
9.58927e-20
-8.47821e-20
2.67098e-18
-2.44613e-18
4.83999e-17
-4.86676e-17
6.36657e-16
-7.45955e-16
-1.28115e-14
6.27842e-15
-3.31639e-38
6.81418e-37
-4.17242e-36
4.93916e-35
-2.12544e-34
1.73904e-33
-6.17617e-33
3.92798e-32
-1.25459e-31
6.52236e-31
-2.04229e-30
8.82031e-30
-2.88413e-29
1.05463e-28
-3.38092e-28
1.13604e-27
-2.93318e-27
1.0373e-26
-2.14135e-26
7.34341e-26
-1.81582e-25
3.83004e-25
-1.48867e-24
1.46915e-24
-7.13474e-24
4.11206e-24
-1.80466e-23
7.30595e-24
-1.81919e-23
2.94565e-24
-5.22805e-24
3.40484e-25
3.23461e-23
-2.54912e-23
1.03342e-21
-9.37337e-22
3.25445e-20
-3.04016e-20
9.93834e-19
-9.54702e-19
2.13935e-17
-2.26087e-17
3.89018e-16
-5.21475e-16
-9.82674e-15
4.86933e-15
-1.10885e-38
1.27e-37
-1.43493e-36
9.42718e-36
-7.60542e-35
3.43369e-34
-2.2869e-33
7.92858e-33
-4.73661e-32
1.30132e-31
-7.66967e-31
1.61374e-30
-1.0674e-29
1.57023e-29
-1.3107e-28
1.23022e-28
-1.3426e-27
7.91421e-28
-1.05276e-26
4.2246e-27
-6.01837e-26
1.87599e-26
-2.50791e-25
6.80446e-26
-7.5665e-25
1.84917e-25
-1.43895e-24
2.67053e-25
-6.16968e-25
5.19059e-26
-7.53726e-26
-1.2172e-25
7.58845e-24
-6.9064e-24
2.86447e-22
-2.71726e-22
9.83149e-21
-9.69664e-21
3.22827e-19
-3.28825e-19
8.23319e-18
-9.29749e-18
2.30115e-16
-3.64567e-16
-7.75874e-15
3.67641e-15
-1.88377e-39
1.65623e-39
-2.50133e-37
1.14657e-37
-1.36938e-35
3.98481e-36
-4.20515e-34
9.00371e-35
-8.60028e-33
1.48685e-33
-1.27545e-31
1.91327e-32
-1.44238e-30
1.98975e-31
-1.28585e-29
1.71301e-30
-9.25927e-29
1.23777e-29
-5.45968e-28
7.53678e-29
-2.6487e-27
3.82286e-28
-1.0396e-26
1.51045e-27
-3.03122e-26
3.59566e-27
-4.66004e-26
5.78957e-28
-9.5705e-27
-1.82376e-28
5.48861e-26
-2.47537e-26
1.68392e-24
-1.62572e-24
6.986e-23
-7.16142e-23
2.60779e-21
-2.82291e-21
9.12333e-20
-1.02037e-19
2.74648e-18
-3.37246e-18
1.31585e-16
-2.45528e-16
-5.88038e-15
2.52887e-15
-2.23149e-41
4.84763e-42
-2.76841e-39
3.71439e-40
-1.44239e-37
1.44181e-38
-4.32735e-36
3.68401e-37
-8.89105e-35
6.961e-36
-1.36601e-33
1.03536e-34
-1.64792e-32
1.25742e-33
-1.61071e-31
1.27564e-32
-1.29932e-30
1.09002e-31
-8.7119e-30
7.75913e-31
-4.80955e-29
4.35147e-30
-2.04722e-28
1.52849e-29
-5.20132e-28
1.98491e-30
-8.85967e-29
-8.80167e-32
1.42667e-28
-3.24449e-29
4.82352e-27
-5.9163e-27
3.32979e-25
-3.33787e-25
1.52269e-23
-1.64251e-23
6.18403e-22
-7.17645e-22
2.26547e-20
-2.76965e-20
7.77175e-19
-1.00735e-18
6.72867e-17
-1.41972e-16
-3.76026e-15
1.41931e-15
-5.93254e-44
9.3677e-45
-8.14152e-42
8.12933e-43
-4.71702e-40
3.60969e-41
-1.59642e-38
1.06668e-39
-3.74511e-37
2.35142e-38
-6.63657e-36
4.11334e-37
-9.32727e-35
5.88538e-36
-1.07138e-33
6.99213e-35
-1.0188e-32
6.85886e-34
-7.95639e-32
5.2835e-33
-4.83565e-31
2.54569e-32
-1.8205e-30
2.63562e-33
-2.50785e-31
1.11425e-34
2.5482e-31
-2.9811e-32
5.16499e-30
-6.63439e-30
9.7966e-28
-7.18396e-28
5.57955e-26
-5.46478e-26
2.80982e-24
-3.07052e-24
1.23916e-22
-1.50048e-22
4.726e-21
-6.09854e-21
1.71113e-19
-2.28008e-19
2.68005e-17
-6.14078e-17
-1.9003e-15
6.01178e-16
-1.04363e-46
4.23361e-48
-1.61399e-44
4.61474e-46
-1.06277e-42
2.565e-44
-4.14568e-41
9.46551e-43
-1.13157e-39
2.58937e-41
-2.35217e-38
5.54909e-40
-3.88367e-37
9.54647e-39
-5.20744e-36
1.31115e-37
-5.6637e-35
1.32588e-36
-4.76586e-34
7.11237e-36
-2.47592e-33
5.80863e-37
-2.73114e-34
1.66553e-38
-1.21619e-35
-2.02321e-36
4.58813e-33
-6.13649e-33
8.8903e-31
-6.98802e-31
9.48342e-29
-9.57488e-29
7.33746e-27
-7.4106e-27
4.12707e-25
-4.82369e-25
1.98142e-23
-2.70339e-23
7.68346e-22
-1.21276e-21
2.70264e-20
-4.58033e-20
7.19655e-18
-1.89807e-17
-7.54259e-16
1.76308e-16
-4.30728e-50
1.45656e-52
-8.26792e-48
2.19229e-50
-6.75769e-46
1.61092e-48
-3.27814e-44
7.59878e-47
-1.10691e-42
2.54112e-45
-2.81062e-41
6.08805e-44
-5.56269e-40
9.27584e-43
-8.59266e-39
4.53613e-42
-9.59488e-38
2.74613e-43
-5.59536e-37
9.65826e-45
-4.89901e-38
-3.21262e-42
-1.48639e-39
-9.13498e-40
3.74997e-37
-6.73214e-38
6.55433e-34
-3.71583e-34
7.4884e-32
-7.98102e-32
1.03542e-29
-1.04364e-29
7.83929e-28
-8.24204e-28
4.96431e-26
-6.32571e-26
2.62389e-24
-4.06739e-24
1.06783e-22
-2.20859e-22
3.48182e-21
-9.45347e-21
1.15824e-18
-4.74848e-18
-2.35772e-16
2.71155e-17
-1.35373e-54
8.11764e-57
-3.51851e-52
1.37442e-54
-3.76544e-50
1.07199e-52
-2.32382e-48
4.73978e-51
-9.56108e-47
1.00636e-49
-2.70635e-45
3.65827e-51
-4.72987e-44
8.71333e-53
-2.59272e-43
-2.04257e-51
-1.72625e-44
-1.94544e-50
-6.56785e-46
-4.30073e-46
4.63237e-43
-2.08589e-43
1.36867e-40
-1.84356e-40
5.29337e-39
-4.20429e-40
3.18059e-35
-3.03682e-35
6.95446e-33
-5.86582e-33
8.84503e-31
-7.64306e-31
6.70371e-29
-7.43288e-29
4.7803e-27
-6.04699e-27
2.73137e-25
-4.94522e-25
1.21068e-23
-3.1388e-23
3.68134e-22
-1.67838e-21
7.81262e-20
-9.2665e-19
-5.8552e-17
-3.44229e-18
-6.85659e-59
1.71967e-60
-1.95171e-56
3.74754e-58
-2.19484e-54
3.12378e-56
-1.26357e-52
1.00808e-54
-3.29077e-51
2.58227e-56
-1.40987e-52
4.14302e-58
-3.84259e-54
-3.764e-55
1.93375e-52
-3.88407e-53
1.99145e-51
-1.20581e-50
4.96709e-47
-9.4917e-48
1.34285e-44
-1.24534e-44
1.0059e-41
-6.12385e-42
2.51463e-41
-1.04868e-40
2.13084e-36
-1.32824e-36
4.01351e-34
-2.62682e-34
4.99733e-32
-3.83597e-32
4.5078e-30
-4.25444e-30
3.20653e-28
-4.22546e-28
2.08826e-26
-3.73981e-26
8.62681e-25
-3.26086e-24
1.42372e-23
-4.89093e-22
-7.58755e-20
-1.64024e-19
-1.25894e-17
-5.15882e-18
-1.3072e-62
8.20289e-65
-4.62315e-60
1.98375e-62
-5.5015e-58
9.16227e-61
-2.30144e-56
1.55771e-62
-7.2132e-58
1.87145e-64
-1.36149e-59
-4.28396e-61
2.78734e-56
-1.2395e-57
1.60853e-54
2.06454e-55
6.62199e-52
7.66703e-52
4.38129e-49
6.38098e-49
6.6527e-46
-1.82755e-47
3.26319e-43
-3.20194e-44
6.44107e-42
-3.46451e-42
7.41986e-38
-2.92925e-38
1.41273e-35
-5.74186e-36
1.92044e-33
-8.98207e-34
1.88165e-31
-1.29348e-31
1.50967e-29
-1.70303e-29
8.84206e-28
-1.99811e-27
2.43829e-26
-3.89754e-25
-2.49705e-23
-1.78683e-22
-4.13427e-20
-2.93999e-20
-2.84681e-18
-3.37895e-18
-5.54222e-67
3.30639e-70
-2.06827e-64