/*--------------------------------*- C++ -*----------------------------------*\
| =========                 |                                                 |
| \\      /  F ield         | OpenFOAM: The Open Source CFD Toolbox           |
|  \\    /   O peration     | Version:  2206                                  |
|   \\  /    A nd           | Website:  www.openfoam.com                      |
|    \\/     M anipulation  |                                                 |
\*---------------------------------------------------------------------------*/
FoamFile
{
    version     2.0;
    format      ascii;
    arch        "LSB;label=32;scalar=64";
    class       volScalarField;
    location    "0.3";
    object      p_rgh;
}
// * * * * * * * * * * * * * * * * * * * * * * * * * * * * * * * * * * * * * //

dimensions      [1 -1 -2 0 0 0 0];

internalField   nonuniform List<scalar> 
2268
(
1333.62
1338.28
1343.32
1343.61
1337.34
1326.59
1314.3
1302.13
1290.76
1280.67
1272.44
1266.86
1264.94
1268.08
1278.35
1297.36
1326.56
1365.3
1407.38
1438.11
1434.7
1408.35
1450.59
1332.67
1337.26
1342.3
1342.54
1336.22
1325.51
1313.3
1301.18
1289.82
1279.69
1271.37
1265.65
1263.54
1266.33
1275.24
1291.99
1318.37
1354.87
1397.87
1432.47
1436.29
1395.34
1451.52
1330.76
1335.28
1340.28
1340.38
1333.99
1323.37
1311.31
1299.29
1287.93
1277.71
1269.21
1263.22
1260.74
1262.99
1271.28
1287.04
1311.01
1342.79
1379.64
1413.14
1428.85
1419.82
1465.26
1328
1332.41
1337.3
1337.2
1330.7
1320.21
1308.36
1296.48
1285.12
1274.75
1265.96
1259.57
1256.56
1258.12
1265.49
1279.84
1301.64
1330.06
1361.98
1392.22
1416.82
1433.71
1491.31
1324.46
1328.74
1333.43
1333.05
1326.42
1316.1
1304.5
1292.76
1281.36
1270.77
1261.6
1254.66
1250.96
1251.64
1257.88
1270.65
1290.3
1316.02
1345.14
1373.49
1402.48
1434.49
1502.75
1320.22
1324.38
1328.78
1328.02
1321.26
1311.12
1299.77
1288.14
1276.66
1265.75
1256.07
1248.45
1243.89
1243.52
1248.43
1259.49
1276.98
1300.2
1327.04
1353.82
1382.43
1416.63
1481.41
1315.47
1319.35
1323.35
1322.12
1315.25
1305.33
1294.23
1282.68
1271.02
1259.7
1249.38
1240.93
1235.34
1233.72
1237.11
1246.3
1261.58
1282.28
1306.56
1330.98
1355.06
1379.79
1412.46
1310.3
1313.81
1317.17
1315.35
1308.4
1298.77
1287.95
1276.43
1264.52
1252.68
1241.6
1232.15
1225.37
1222.3
1223.96
1231.12
1244.07
1262.2
1283.48
1304.35
1320.17
1328.8
1285.32
51.1676
51.1147
51.0841
51.0921
51.1087
51.1272
51.1482
51.1678
51.1835
51.195
51.2026
51.2057
51.2044
51.1994
51.1919
51.1834
51.1754
51.1693
51.166
51.1637
51.1026
51.0785
51.0914
51.1079
51.1268
51.1485
51.1683
51.184
51.1956
51.203
51.2061
51.2046
51.1995
51.1917
51.1828
51.1746
51.1683
51.1649
51.1545
51.0717
51.0685
51.0895
51.1051
51.1256
51.1491
51.1692
51.185
51.1968
51.2044
51.2075
51.2057
51.1999
51.1912
51.1814
51.1723
51.1653
51.1616
51.1425
51.0067
51.0544
51.0865
51.1002
51.1243
51.1501
51.1706
51.1865
51.1986
51.2065
51.2096
51.2074
51.2005
51.1905
51.1791
51.1686
51.1606
51.1563
51.1318
50.9227
51.0481
51.0805
51.0925
51.1232
51.1515
51.1724
51.1885
51.2009
51.2094
51.2126
51.2097
51.2014
51.1894
51.1759
51.1635
51.1539
51.1488
51.2687
50.9686
51.089
51.0678
51.0826
51.123
51.1534
51.1746
51.1908
51.2038
51.213
51.2165
51.2128
51.2025
51.1879
51.1717
51.1567
51.1452
51.139
51.4166
50.9221
51.1167
51.0388
51.073
51.1235
51.1553
51.1774
51.1934
51.207
51.2176
51.2214
51.2166
51.2039
51.1861
51.1663
51.148
51.1341
51.1266
51.1532
50.575
51.1735
51.011
51.0655
51.1257
51.1587
51.1811
51.1957
51.2104
51.2231
51.2276
51.2214
51.2057
51.1838
51.1596
51.1372
51.1202
51.1111
1301.56
1304.46
1306.55
1303.79
1296.71
1287.43
1276.88
1265.25
1252.76
1239.88
1227.36
1216.08
1207.07
1201.38
1199.97
1203.59
1212.72
1226.94
1243.46
1257.67
1255.43
1214.16
962.22
1288.28
1290.03
1290.08
1285.8
1278.28
1268.98
1258.11
1245.6
1231.6
1216.6
1201.37
1186.78
1174
1163.95
1157.52
1155.21
1156.68
1163.89
1172.28
1177.99
1165.14
1114.24
996.578
1274.76
1274.27
1271.51
1265.63
1257.61
1247.94
1236.19
1222.28
1206.35
1188.85
1170.49
1152.18
1135.39
1120.35
1108
1101.02
1102.25
1106.1
1108.56
1117.42
1120.18
1100.36
1063.01
1262.05
1258.12
1252.13
1244.88
1236.06
1225.29
1211.62
1195.57
1177.01
1155.94
1132.73
1107.27
1078.7
1036.68
978.462
907.679
848.272
802.293
833.008
927.413
1050.94
1066.34
1062.08
1252.45
1244.08
1230.4
1221.22
1211.28
1198.09
1174.83
1137.33
1076.63
986.747
864.791
690.287
512.593
355.407
228.733
134.903
81.6752
55.2786
71.0101
119.33
225.168
419.874
651.289
1248.87
1026.52
903.072
888.422
838.385
741.371
591.174
439.954
293.436
164.408
48.24
-0.25505
-0.651351
-0.758566
-0.78676
-0.789242
-0.790923
-0.777653
-0.794705
-0.811309
-0.632251
0.0922199
22.1347
621.644
171.64
70.4453
64.0237
34.3323
-0.624715
-0.820331
-0.884762
-0.867197
-0.822395
-0.747238
-0.727042
-0.788273
-0.848105
-0.914511
-0.983157
-1.02669
-1.06941
-1.13994
-1.19527
-1.17403
-1.09098
-0.942623
-1.05452
-1.08249
-1.01321
-0.983117
-0.960984
-0.91537
-0.920299
-0.918129
-0.902908
-0.880345
-0.861622
-0.865742
-0.907095
-0.989998
-1.05251
-0.886097
-0.813927
-1.24004
-1.39063
-1.30534
-1.28135
-1.2929
-1.31298
-1.06435
-1.05412
-1.0311
-1.01676
-1.005
-0.989203
-0.981752
-0.976929
-0.972403
-0.971418
-0.98534
-1.02566
-1.09112
-1.04762
-0.614804
-0.929361
-1.12605
-1.45259
-1.6551
-1.45621
-1.3439
-1.34363
-1.15753
-1.10135
-1.07732
-1.07339
-1.06776
-1.06191
-1.05729
-1.05682
-1.05869
-1.06388
-1.07807
-1.11133
-1.17259
-1.25816
-0.504865
-0.796733
-1.10434
-1.67272
-2.04607
-1.78741
-1.51674
-0.22683
1.00296
0.725298
-1.14318
-1.13246
-1.12636
-1.12334
-1.12201
-1.124
-1.13005
-1.13952
-1.15423
-1.17968
-1.22268
-1.29386
-1.38685
-0.948804
-0.767153
-1.20963
-1.40668
-1.7463
-1.70059
0.292252
0.695691
0.430601
-1.58823
-1.18141
-1.17691
-1.17555
-1.17713
-1.18093
-1.18852
-1.2007
-1.21762
-1.24096
-1.27428
-1.3214
-1.39097
-1.47915
-1.59979
-0.908159
-0.0235622
-0.0174526
0.063691
0.18434
0.230197
-1.07813
-2.03087
-2.16216
-1.22251
-1.2236
-1.22533
-1.2303
-1.23824
-1.25031
-1.26744
-1.29024
-1.31992
-1.35843
-1.40723
-1.47109
-1.54767
-1.63936
-1.73812
-1.4983
-1.41423
-1.17606
-1.60264
-1.91086
-1.98352
-2.08472
-2.2126
-1.26599
-1.27014
-1.27423
-1.28183
-1.29297
-1.30845
-1.32922
-1.35607
-1.38993
-1.43173
-1.48198
-1.54065
-1.60741
-1.68153
-1.75621
-1.82024
-1.85965
-1.88433
-1.91125
-1.96219
-2.04412
-2.15134
-2.27726
-1.31011
-1.31571
-1.32159
-1.3312
-1.34477
-1.36284
-1.38626
-1.4158
-1.4522
-1.49592
-1.54665
-1.6034
-1.66506
-1.72989
-1.79374
-1.85037
-1.89356
-1.93241
-1.97862
-2.04344
-2.13157
-2.23912
-2.36155
-1.35372
-1.35983
-1.36699
-1.37812
-1.39353
-1.41362
-1.43906
-1.47053
-1.50861
-1.55353
-1.60476
-1.66121
-1.72137
-1.78297
-1.84332
-1.89976
-1.95176
-2.0035
-2.06304
-2.13715
-2.22926
-2.33826
-2.4611
-1.39566
-1.40182
-1.40993
-1.42223
-1.43908
-1.4608
-1.48794
-1.52104
-1.56056
-1.6066
-1.65866
-1.7156
-1.77584
-1.83755
-1.89915
-1.95951
-2.01946
-2.08225
-2.15314
-2.23681
-2.33573
-2.44969
-2.57666
-1.43505
-1.44114
-1.44995
-1.4632
-1.48122
-1.50432
-1.53295
-1.56759
-1.60856
-1.65591
-1.70918
-1.76734
-1.82901
-1.89281
-1.95786
-2.02414
-2.09278
-2.16637
-2.24852
-2.34245
-2.44993
-2.57139
-2.70578
-1.47127
-1.47729
-1.48665
-1.50071
-1.51973
-1.54403
-1.57404
-1.61016
-1.65266
-1.70156
-1.75646
-1.81652
-1.88066
-1.94795
-2.01798
-2.09116
-2.16883
-2.25309
-2.3465
-2.45143
-2.56933
-2.70117
-2.84647
-1.50383
-1.50986
-1.51967
-1.53442
-1.55434
-1.57975
-1.61106
-1.64865
-1.69279
-1.74348
-1.8004
-1.86293
-1.93027
-2.00188
-2.0777
-2.15841
-2.24532
-2.34026
-2.44522
-2.56212
-2.69232
-2.83722
-2.99678
-1.53234
-1.53843
-1.54864
-1.56403
-1.5848
-1.61126
-1.64383
-1.6829
-1.72873
-1.78139
-1.84065
-1.90605
-1.97709
-2.05352
-2.13557
-2.22406
-2.32037
-2.4261
-2.54292
-2.67261
-2.81664
-2.97703
-3.15416
-1.55643
-1.56266
-1.57323
-1.58922
-1.6108
-1.63829
-1.67209
-1.71263
-1.76019
-1.81492
-1.87667
-1.94519
-2.02018
-2.10168
-2.19013
-2.28651
-2.3922
-2.50871
-2.63759
-2.78061
-2.9396
-3.11722
-3.31437
-1.57579
-1.58219
-1.59311
-1.60969
-1.63205
-1.66052
-1.69553
-1.73749
-1.78677
-1.84355
-1.90785
-1.97954
-2.05856
-2.14515
-2.23995
-2.34408
-2.45897
-2.58608
-2.72697
-2.88353
-3.058
-3.2537
-3.47206
-1.59013
-1.59672
-1.60798
-1.62512
-1.64823
-1.67765
-1.71378
-1.7571
-1.80799
-1.86675
-1.9335
-2.00828
-2.09122
-2.18273
-2.28362
-2.39516
-2.51881
-2.6561
-2.80863
-2.97849
-3.16831
-3.38198
-3.62155
-1.59918
-1.60598
-1.61756
-1.63524
-1.65904
-1.68932
-1.72648
-1.77101
-1.82336
-1.88391
-1.95292
-2.03058
-2.11717
-2.21325
-2.31979
-2.43815
-2.56988
-2.71661
-2.88008
-3.06251
-3.26687
-3.49745
-3.75691
-1.60271
-1.60971
-1.62158
-1.63973
-1.66415
-1.69518
-1.73322
-1.77877
-1.83235
-1.89443
-1.96539
-2.04558
-2.13541
-2.23558
-2.34713
-2.47153
-2.61044
-2.76559
-2.93891
-3.13277
-3.35031
-3.59598
-3.87287
-1.6005
-1.60769
-1.61979
-1.63834
-1.66326
-1.69488
-1.73361
-1.77996
-1.83447
-1.89773
-1.97023
-2.05247
-2.145
-2.24859
-2.36438
-2.49388
-2.63883
-2.80116
-2.98299
-3.18676
-3.41578
-3.67441
-3.96583
-1.59238
-1.5997
-1.61198
-1.63082
-1.6561
-1.68814
-1.72733
-1.77418
-1.82928
-1.89329
-1.96683
-2.05052
-2.14505
-2.25127
-2.37035
-2.50382
-2.65355
-2.82163
-3.01038
-3.22238
-3.46104
-3.73048
-4.0338
-1.57825
-1.58563
-1.59801
-1.61701
-1.64248
-1.67474
-1.71413
-1.76116
-1.81647
-1.88074
-1.95473
-2.03917
-2.13488
-2.24277
-2.36403
-2.50021
-2.65328
-2.8255
-3.01939
-3.23776
-3.48411
-3.76242
-4.07559
-1.55807
-1.56543
-1.57783
-1.59683
-1.62232
-1.65455
-1.69387
-1.74076
-1.79584
-1.85986
-1.93365
-2.01807
-2.11401
-2.22246
-2.34464
-2.4821
-2.63689
-2.81143
-3.00847
-3.23112
-3.48298
-3.76814
-4.0896
-1.53182
-1.53907
-1.5514
-1.57025
-1.59553
-1.6275
-1.66644
-1.71282
-1.76725
-1.83048
-1.9034
-1.98694
-2.08209
-2.1899
-2.31158
-2.44872
-2.60342
-2.77823
-2.97616
-3.20062
-3.45544
-3.74497
-4.07309
-1.49948
-1.50654
-1.51868
-1.53721
-1.56205
-1.59347
-1.63171
-1.6772
-1.73051
-1.79239
-1.86373
-1.94552
-2.0388
-2.14464
-2.26429
-2.39934
-2.55193
-2.72473
-2.92096
-3.14433
-3.39896
-3.68971
-4.02186
-1.46119
-1.46799
-1.4798
-1.49782
-1.52198
-1.55254
-1.58973
-1.63393
-1.68564
-1.74559
-1.81463
-1.89376
-1.98403
-2.08653
-2.20251
-2.33355
-2.48181
-2.65004
-2.84161
-3.06042
-3.311
-3.59874
-3.93041
-1.4174
-1.42393
-1.43525
-1.45258
-1.4758
-1.50521
-1.54099
-1.58348
-1.63312
-1.69056
-1.7566
-1.83219
-1.91835
-2.01614
-2.12679
-2.25185
-2.39345
-2.55434
-2.73795
-2.9482
-3.1899
-3.46889
-3.79322
-1.36848
-1.37473
-1.38543
-1.4019
-1.42395
-1.45192
-1.48595
-1.52633
-1.57343
-1.6278
-1.69017
-1.7614
-1.84244
-1.93429
-2.03809
-2.15533
-2.28803
-2.43888
-2.61111
-2.80848
-3.03577
-3.29893
-3.60679
-1.31389
-1.31985
-1.32981
-1.34526
-1.36592
-1.39215
-1.42406
-1.46189
-1.50595
-1.55667
-1.61469
-1.68075
-1.75571
-1.84047
-1.93606
-2.04383
-2.16563
-2.30389
-2.46149
-2.64179
-2.84912
-3.08871
-3.36995
-1.25279
-1.25847
-1.26755
-1.2818
-1.30082
-1.32498
-1.35436
-1.38916
-1.4296
-1.47601
-1.5289
-1.58891
-1.65679
-1.7333
-1.81932
-1.91602
-2.02496
-2.14818
-2.28804
-2.44724
-2.62914
-2.83836
-3.08303
-1.18671
-1.19217
-1.20024
-1.21314
-1.2303
-1.25209
-1.27858
-1.30989
-1.34617
-1.38765
-1.43472
-1.4879
-1.54781
-1.61508
-1.69038
-1.77463
-1.86902
-1.97503
-2.09433
-2.22871
-2.3804
-2.55283
-2.75217
-1.12041
-1.12582
-1.13283
-1.14432
-1.15956
-1.17886
-1.20229
-1.2299
-1.26178
-1.2981
-1.33912
-1.38528
-1.43703
-1.49483
-1.55915
-1.63055
-1.70977
-1.79767
-1.89509
-2.00277
-2.12161
-2.25339
-2.40152
-1.05615
-1.06162
-1.06771
-1.07782
-1.09118
-1.10801
-1.12837
-1.15231
-1.17988
-1.21119
-1.24645
-1.28595
-1.32999
-1.37883
-1.4327
-1.49182
-1.55646
-1.62689
-1.70317
-1.78513
-1.87242
-1.96488
-2.06272
-0.984788
-0.990201
-0.995575
-1.00417
-1.01545
-1.02955
-1.04652
-1.06643
-1.08932
-1.11528
-1.14442
-1.17686
-1.2127
-1.252
-1.29476
-1.3409
-1.3903
-1.44266
-1.49746
-1.55391
-1.61072
-1.66611
-1.71784
-0.887889
-0.893732
-0.898026
-0.90457
-0.913002
-0.9234
-0.935821
-0.950318
-0.96693
-0.985664
-1.00648
-1.0293
-1.05398
-1.08036
-1.10818
-1.13708
-1.16651
-1.19569
-1.22356
-1.24891
-1.26956
-1.28292
-1.28534
497.509
547.755
583.627
132.6
838.851
769.923
680.871
588.73
997.745
937.047
882.084
851.764
1035.31
1012.03
992.729
980.774
844.252
1041.85
1076.08
1074.42
62.8313
120.965
199.044
305.012
0.215361
3.76937
3.34789
1.45046
-1.38361
8.42991
5.92144
0.176599
1.16034
7.92025
5.5249
4.34425
0.045161
-1.55727
-2.34416
-2.49901
-2.25113
-2.33641
-2.42674
-2.51368
-2.27435
-2.35215
-2.42827
-2.50015
-2.31743
-2.385
-2.45228
-2.5184
-2.37678
-2.441
-2.50537
-2.56882
-2.45829
-2.52108
-2.58422
-2.64719
-2.55837
-2.62205
-2.68661
-2.75176
-2.67745
-2.74401
-2.81207
-2.88162
-2.81299
-2.88453
-2.95842
-3.03486
-2.96294
-3.04123
-3.12261
-3.20725
-3.1253
-3.21214
-3.30249
-3.39645
-3.29798
-3.39588
-3.49796
-3.60489
-3.47612
-3.58711
-3.70365
-3.82777
-3.65288
-3.77754
-3.90942
-4.05118
-3.82158
-3.96001
-4.10764
-4.26647
-3.97482
-4.12619
-4.28881
-4.46419
-4.10575
-4.26757
-4.44172
-4.62978
-4.2104
-4.3797
-4.5612
-4.75627
-4.28747
-4.46211
-4.64833
-4.8468
-4.33687
-4.51594
-4.70617
-4.90766
-4.35805
-4.54181
-4.73683
-4.94289
-4.34845
-4.53741
-4.73876
-4.95221
-4.3033
-4.49743
-4.70596
-4.92882
-4.21517
-4.41299
-4.62774
-4.85973
-4.07538
-4.27305
-4.48994
-4.72629
-3.8773
-4.06816
-4.27912
-4.51051
-3.61785
-3.79309
-3.98738
-4.20091
-3.29757
-3.44883
-3.61589
-3.79849
-2.92458
-3.04509
-3.17674
-3.31871
-2.52532
-2.61033
-2.70138
-2.7974
-2.13798
-2.18721
-2.23738
-2.28731
-1.7504
-1.76847
-1.7832
-1.79338
-1.27551
-1.26443
-1.24799
-1.2252
118.832
49.4668
51.169
51.1116
51.0643
51.1315
51.171
51.1913
51.1978
51.2154
51.2336
51.2396
51.2307
51.2091
51.1793
51.1467
51.1166
51.0937
51.0815
611.095
200.394
93.8001
50.7098
50.8733
51.0927
51.19
51.1989
51.1868
51.2194
51.2551
51.2652
51.2502
51.216
51.17
51.1204
51.0749
51.0406
51.0222
808.674
742.349
712.161
296.925
85.8471
53.3271
51.3355
51.1151
51.1218
51.2267
51.2933
51.3058
51.2792
51.2254
51.1554
51.0807
51.0129
50.9619
50.9348
955.351
922.298
912.014
885.728
851.254
449.535
106.28
51.7153
51.0863
51.2779
51.3697
51.3706
51.3214
51.2369
51.1316
51.0207
50.9207
50.8461
50.8068
1071.28
1060.93
1048.71
1036.28
1032.47
1026.31
920.617
337.374
61.2901
51.8407
51.5622
51.4703
51.3802
51.2492
51.0923
50.9298
50.7843
50.6766
50.6203
469.753
812.494
1171.39
1178.24
1168.89
1161.37
1164.2
1118.58
556.53
79.1876
52.2262
51.6595
51.4482
51.2565
51.0279
50.7907
50.5813
50.4283
50.3491
-0.0454286
36.7391
147.651
286.232
679.561
1245.57
1277.94
1257.33
1237.83
680.753
86.4662
52.44
51.6076
51.2352
50.9184
50.577
50.2775
50.0642
49.9557
-1.14213
-2.6454
-2.91424
-2.77297
4.90891
54.6319
482.955
1307.21
1322.81
1270.69
634.133
69.286
52.5462
51.2766
50.7244
50.2386
49.8188
49.5301
49.3869
-1.09529
-2.92586
-3.07103
-3.11706
-3.1722
-3.31921
-3.33209
288.169
1246.12
1346.2
1195.06
404.359
60.089
52.2945
50.4754
49.6892
49.1168
48.7482
48.5714
-2.64567
-2.8688
-3.01666
-3.09591
-3.1694
-3.25667
-3.2982
-3.32525
485.221
1343.33
1345.2
874.822
143.214
54.9614
50.1942
48.7907
48.0451
47.6169
47.4206
-2.64757
-2.80036
-2.9255
-3.03069
-3.1146
-3.20544
-3.26476
-3.29531
0.881724
957.693
1368.19
1215.07
351.035
59.4044
49.6712
47.312
46.4369
46.0222
45.8421
-2.61676
-2.75653
-2.86461
-2.9464
-3.05418
-3.16692
-3.25148
-3.33417
-3.42337
377.983
1311.33
1259.03
653.539
83.0737
48.4834
45.0685
44.171
43.8863
43.7723
-2.62771
-2.76369
-2.87683
-2.97788
-3.08245
-3.19087
-3.28453
-3.36604
-3.44615
50.8688
1108.01
1267.44
903.148
128.22
46.533
41.9607
41.239
41.2214
41.2175
-2.67441
-2.81104
-2.93388
-3.05451
-3.17621
-3.29402
-3.38379
-3.4252
-3.40548
-2.4651
845.388
1291.49
998.165
183.456
43.2218
38.1274
37.8088
38.1493
38.2796
-2.75362
-2.89713
-3.03643
-3.17923
-3.31782
-3.44603
-3.54948
-3.58756
-3.58102
-3.09199
629.875
1259.95
1001.02
193.136
38.7388
33.943
34.2587
34.8978
35.1424
-2.86311
-3.01857
-3.17912
-3.34343
-3.4356
-3.54166
-3.72217
-3.82998
-3.8651
-3.79287
535.166
1231.2
969.564
176.702
33.7398
30.0599
30.9669
31.7124
32.0306
-3.00099
-3.17102
-3.3545
-3.51525
-3.56051
-3.71974
-3.86307
-4.05694
-4.12062
-4.1994
582.335
1203
878.182
132.863
29.2371
27.064
28.1402
28.7812
29.1157
-3.16622
-3.35764
-3.57134
-3.80334
-3.8941
-3.99431
-4.13881
-4.30595
-4.29856
-3.98791
663.345
1175.8
682.547
64.6251
25.6886
24.8871
25.6335
26.1457
26.4675
-3.35353
-3.57413
-3.83085
-4.11719
-4.35238
-4.47285
-4.55629
-4.60883
-4.46954
42.8801
703.336
1157.71
398.052
29.8544
22.946
23.0279
23.3714
23.794
24.0849
-3.55935
-3.80706
-4.09989
-4.44386
-4.73558
-4.92468
-5.04353
-5.00669
-4.71633
187.5
861.703
828.106
183.205
24.3494
20.6941
21.2414
21.2647
21.6787
21.946
-3.79032
-4.0697
-4.39375
-4.76689
-5.09274
-5.31531
-5.46314
-5.52339
24.56
705.709
897.186
642.935
70.4123
20.9095
19.2686
19.1916
19.3756
19.7747
20.033
-4.04442
-4.38584
-4.7952
-5.236
-5.5244
-5.69143
-5.88714
-6.01086
413.975
872.216
936.033
385.728
24.4916
17.851
17.8906
17.3608
17.6832
18.0654
18.3199
-4.30159
-4.72475
-5.25899
-5.88288
-6.1636
-6.26829
3.77519
329.742
785.604
822.39
661.422
136.371
18.6828
16.2203
15.9264
15.7418
16.1774
16.5407
16.7796
-4.55209
-5.04065
-5.64497
-6.39902
-6.74282
-7.67224
228.88
748.724
793.01
736.377
226.665
33.7012
17.8147
15.4116
14.1548
14.3902
14.8549
15.1865
15.3957
-4.78568
-5.32683
-6.03293
-6.82336
-7.33518
68.4311
554.92
707.808
572.617
224.853
32.5686
20.032
17.5718
13.7486
12.8077
13.2713
13.6929
13.9815
14.152
-4.97542
-5.55582
-6.38702
-7.22709
-8.17311
77.7031
562.639
383
100.085
25.108
17.4568
13.7761
13.4143
11.8247
11.8667
12.3036
12.6601
12.8996
13.029
-5.10941
-5.70103
-6.53402
-7.34259
-8.89252
112.528
506.289
125.189
23.3063
15.3599
11.9554
11.2443
10.4625
10.7165
11.1111
11.4497
11.7273
11.9153
12.0049
-5.19972
-5.78004
-6.51633
-7.07081
-8.12993
166.059
511.028
447.959
47.5032
12.0003
10.5014
10.1434
10.0034
10.1861
10.4456
10.6729
10.8663
11.0036
11.0587
-5.26278
-5.83574
-6.47594
-7.08004
-7.53742
-7.58888
495.626
503.724
50.0988
10.7999
10.1857
9.8238
9.69365
9.70834
9.81353
9.93335
10.0489
10.14
10.1698
-5.30552
-5.88016
-6.48473
-7.12234
-6.89752
-7.62684
375.348
515.71
268.853
16.8566
10.1098
9.58019
9.30169
9.18484
9.16398
9.197
9.25049
9.30239
9.32108
-5.32914
-5.92444
-6.55592
-7.24817
-7.06575
-7.73308
394.816
528.124
549.16
24.7472
9.90689
9.24934
8.80857
8.56829
8.46322
8.43878
8.45273
8.4745
8.49844
-5.32549
-5.96063
-6.67668
-7.48053
-7.96468
-7.87321
288.494
550.147
569.817
153.261
9.73519
8.74065
8.10107
7.82132
7.68794
7.64119
7.64349
7.64722
7.68968
-5.27728
-5.96404
-6.78496
-7.92455
-8.43043
-7.97972
10.5347
571.335
578.398
590.57
50.0641
7.7933
7.05244
6.90114
6.81814
6.79699
6.81694
6.81892
6.88557
-5.15574
-5.89839
-6.88931
-8.21522
-9.10308
-3.56928
-7.91866
581.744
584.085
602.056
197.761
5.55903
5.62197
5.79064
5.85814
5.91505
5.97569
5.99462
6.08321
-4.93649
-5.70785
-6.77221
-8.21084
-9.88649
-8.98934
12.5628
415.354
587.733
607.449
245.349
3.0384
4.3726
4.5921
4.87088
5.02993
5.13976
5.18497
5.28632
-4.59763
-5.33508
-6.36417
-7.82122
-9.85649
-12.337
3.90738
69.0072
549.076
402.325
132.851
6.06705
3.10143
3.56693
3.9653
4.18439
4.33123
4.40242
4.50249
-4.13782
-4.77003
-5.64395
-6.91887
-8.88981
-12.0629
-6.08201
10.3488
99.2559
30.618
1.87852
3.34725
2.15127
2.70533
3.16072
3.40598
3.56813
3.65609
3.73981
-3.58002
-4.05657
-4.69039
-5.59501
-7.00917
-9.20552
-5.61697
-0.763882
-6.92725
-3.23339
-3.37791
-0.175467
1.33214
2.01117
2.45355
2.69924
2.85618
2.9479
3.00408
-2.97084
-3.27358
-3.65232
-4.16054
-4.90755
-5.92087
-4.76137
-3.70136
-4.71417
-2.48812
-1.73942
-0.0213763
0.915194
1.49587
1.84712
2.05928
2.19262
2.27504
2.29842
-2.37252
-2.50417
-2.6486
-2.83036
-3.09296
-3.42255
-3.14629
-2.67092
-2.1163
-0.98792
-0.563904
0.201415
0.716482
1.08326
1.31185
1.46305
1.55951
1.62322
1.61809
-1.80187
-1.78629
-1.73145
-1.65236
-1.59938
-1.59979
-1.5259
-1.2339
-0.736893
-0.255042
-0.0357303
0.281583
0.52248
0.70165
0.818575
0.901197
0.95615
0.996648
0.967026
-1.17395
-1.05609
-0.877283
-0.647109
-0.431868
-0.316413
-0.261823
-0.189452
-0.0765265
-0.0022254
0.0014284
0.0823399
0.147548
0.199149
0.236861
0.265911
0.28355
0.300999
0.295482
)
;

boundaryField
{
    leftWall
    {
        type            fixedFluxPressure;
        gradient        uniform 0;
        value           nonuniform List<scalar> 
50
(
1333.62
1332.67
1330.76
1328
1324.46
1320.22
1315.47
1310.3
1301.56
1288.28
1274.76
1262.05
1252.45
1248.87
621.644
-1.05452
-1.06435
-1.10135
-1.14318
-1.18141
-1.22251
-1.26599
-1.31011
-1.35372
-1.39566
-1.43505
-1.47127
-1.50383
-1.53234
-1.55643
-1.57579
-1.59013
-1.59918
-1.60271
-1.6005
-1.59238
-1.57825
-1.55807
-1.53182
-1.49948
-1.46119
-1.4174
-1.36848
-1.31389
-1.25279
-1.18671
-1.12041
-1.05615
-0.984788
-0.887889
)
;
    }
    rightWall
    {
        type            fixedFluxPressure;
        gradient        uniform 0;
        value           nonuniform List<scalar> 
50
(
51.166
51.1649
51.1616
51.1563
51.1488
51.139
51.1266
51.1111
51.0815
51.0222
50.9348
50.8068
50.6203
50.3491
49.9557
49.3869
48.5714
47.4206
45.8421
43.7723
41.2175
38.2796
35.1424
32.0306
29.1157
26.4675
24.0849
21.946
20.033
18.3199
16.7796
15.3957
14.152
13.029
12.0049
11.0587
10.1698
9.32108
8.49844
7.68968
6.88557
6.08321
5.28632
4.50249
3.73981
3.00408
2.29842
1.61809
0.967026
0.295482
)
;
    }
    lowerWall
    {
        type            fixedFluxPressure;
        gradient        uniform 0;
        value           nonuniform List<scalar> 
62
(
1333.62
1338.28
1343.32
1343.61
1337.34
1326.59
1314.3
1302.13
1290.76
1280.67
1272.44
1266.86
1264.94
1268.08
1278.35
1297.36
1326.56
1365.3
1407.38
1438.11
1434.7
1408.35
1450.59
1450.59
1451.52
1465.26
1491.31
1502.75
1481.41
1412.46
1285.32
497.509
547.755
583.627
132.6
51.1676
51.1637
51.1545
51.1425
51.1318
51.2687
51.4166
51.1532
51.1676
51.1147
51.0841
51.0921
51.1087
51.1272
51.1482
51.1678
51.1835
51.195
51.2026
51.2057
51.2044
51.1994
51.1919
51.1834
51.1754
51.1693
51.166
)
;
    }
    atmosphere
    {
        type            totalPressure;
        rho             rho;
        psi             none;
        gamma           1;
        p0              uniform 0;
        value           nonuniform List<scalar> 
46
(
-0.816892
-0.824404
-0.827268
-0.832307
-0.838681
-0.846444
-0.855626
-0.866256
-0.878337
-0.891816
-0.906557
-0.92234
-0.938892
-0.955917
-0.972996
-0.989604
-1.00495
-1.01802
-1.02755
-1.03199
-1.02923
-1.01644
-0.989956
-0.957788
-0.932077
-0.901246
-0.864905
-0.789745
-0.647189
-0.463031
-0.256872
-0.0768465
0
0
0
0
0
0
0
0
0
0
0
0
0
0
)
;
    }
    defaultFaces
    {
        type            empty;
    }
}


// ************************************************************************* //
