/*--------------------------------*- C++ -*----------------------------------*\
| =========                 |                                                 |
| \\      /  F ield         | OpenFOAM: The Open Source CFD Toolbox           |
|  \\    /   O peration     | Version:  2206                                  |
|   \\  /    A nd           | Website:  www.openfoam.com                      |
|    \\/     M anipulation  |                                                 |
\*---------------------------------------------------------------------------*/
FoamFile
{
    version     2.0;
    format      ascii;
    arch        "LSB;label=32;scalar=64";
    class       volScalarField;
    location    "0.325";
    object      p_rgh;
}
// * * * * * * * * * * * * * * * * * * * * * * * * * * * * * * * * * * * * * //

dimensions      [1 -1 -2 0 0 0 0];

internalField   nonuniform List<scalar> 
2268
(
1211.78
1216.11
1224.23
1226.86
1222.96
1214.13
1203.59
1193.45
1184.63
1177.64
1173
1171.37
1173.61
1180.86
1194.84
1216.88
1247.63
1285.93
1325.78
1353.8
1350.24
1321.13
1372.96
1210.76
1215.03
1223.08
1225.67
1221.73
1212.94
1202.5
1192.44
1183.66
1176.66
1171.97
1170.23
1172.29
1179.17
1191.74
1211.57
1239.96
1276.88
1318.44
1350.31
1353.65
1306.87
1372.54
1208.71
1212.93
1220.82
1223.31
1219.28
1210.58
1200.32
1190.43
1181.73
1174.71
1169.89
1167.95
1169.7
1176.14
1188.36
1207.28
1233.36
1265.88
1302.12
1333.77
1347.95
1331.8
1381.27
1205.74
1209.86
1217.51
1219.83
1215.67
1207.1
1197.11
1187.44
1178.85
1171.78
1166.78
1164.52
1165.84
1171.7
1183.09
1200.76
1224.93
1254.46
1286.38
1315.66
1338.19
1348.24
1406.35
1202
1205.9
1213.24
1215.32
1210.99
1202.59
1192.93
1183.53
1175.03
1167.87
1162.6
1159.92
1160.67
1165.79
1176.21
1192.55
1214.9
1242.17
1271.75
1299.82
1327.85
1355.43
1424.17
1197.65
1201.18
1208.12
1209.86
1205.37
1197.16
1187.84
1178.7
1170.26
1162.95
1157.33
1154.11
1154.16
1158.4
1167.71
1182.66
1203.23
1228.46
1256.33
1283.6
1312.79
1346.21
1413.25
1192.79
1195.89
1202.24
1203.51
1198.84
1190.87
1181.92
1173.02
1164.59
1157.04
1150.95
1147.07
1146.28
1149.49
1157.55
1171.01
1189.81
1213.03
1239.05
1264.9
1291.33
1319.65
1361.83
1187.58
1190.18
1195.65
1196.25
1191.42
1183.76
1175.22
1166.53
1158.04
1150.15
1143.48
1138.81
1137.02
1139.05
1145.73
1157.65
1174.64
1195.8
1219.57
1243.03
1263.36
1280.58
1262.49
246.207
246.178
246.174
246.209
246.233
246.264
246.311
246.37
246.435
246.503
246.569
246.629
246.683
246.728
246.765
246.794
246.816
246.83
246.838
246.199
246.167
246.169
246.211
246.231
246.261
246.309
246.369
246.435
246.503
246.57
246.63
246.684
246.729
246.766
246.795
246.817
246.831
246.839
246.181
246.137
246.159
246.214
246.226
246.255
246.305
246.366
246.433
246.503
246.571
246.633
246.687
246.732
246.768
246.796
246.817
246.831
246.838
246.153
246.091
246.143
246.22
246.216
246.246
246.299
246.362
246.432
246.504
246.573
246.636
246.691
246.736
246.771
246.798
246.817
246.83
246.837
246.111
246.075
246.13
246.234
246.202
246.233
246.291
246.356
246.429
246.504
246.576
246.642
246.697
246.741
246.775
246.8
246.818
246.829
246.835
246.104
246.363
246.169
246.259
246.18
246.215
246.281
246.348
246.425
246.504
246.58
246.648
246.704
246.748
246.78
246.803
246.818
246.827
246.831
246.092
246.613
246.062
246.308
246.154
246.186
246.269
246.338
246.421
246.505
246.585
246.656
246.714
246.757
246.786
246.805
246.817
246.823
246.826
245.922
245.888
245.984
246.315
246.124
246.142
246.261
246.327
246.416
246.505
246.59
246.666
246.726
246.767
246.792
246.807
246.815
246.818
246.819
1178.99
1180.7
1184.35
1183.79
1178.7
1171.46
1163.42
1154.91
1146.15
1137.54
1129.75
1123.58
1119.96
1119.82
1124
1133.32
1147.77
1166.07
1186.27
1204.87
1210.84
1188.27
998.473
1166.77
1166.19
1166.56
1164.37
1158.91
1151.88
1143.92
1134.98
1125.31
1115.29
1105.51
1096.8
1090.13
1086.45
1086.19
1089.04
1096.68
1110.31
1125.61
1138.44
1137.73
1109.95
1038.51
1156.04
1151.4
1147.65
1143.84
1137.78
1130.46
1121.86
1111.63
1100.6
1088.81
1076.57
1064.6
1054.09
1046.72
1044.48
1048.44
1055.95
1062.88
1075.4
1090.79
1101.26
1096.9
1083.63
1150.45
1140.3
1127.32
1120.47
1113.26
1104.81
1094.34
1080.64
1064.19
1039.65
1004.31
958.414
904.873
849.124
798.408
758.712
737.732
757.374
819.177
929.731
1046.66
1065.83
1072.8
1160.21
1049.43
903.713
894.399
873.107
824.826
757.061
663.354
550.074
436.715
330.189
237.258
162.272
106.02
67.1918
44.3346
31.6461
40.3624
65.2348
121.128
235.481
445.304
696.198
824.559
296.752
111.543
114.836
95.5612
60.7569
25.0845
2.36886
2.20245
2.24259
2.3156
2.39413
2.47249
2.55422
2.6381
2.7057
2.74686
2.75151
2.70049
2.52445
2.47315
3.17629
31.1149
2.48524
1.76571
1.87917
1.94873
1.97339
2.00631
2.05383
2.13692
2.16244
2.2081
2.26761
2.33005
2.39093
2.45374
2.51576
2.53558
2.55438
2.52925
2.39042
2.24406
2.16848
2.14463
2.03273
1.87374
1.81475
1.86781
1.90972
1.93479
1.96396
2.00463
2.0566
2.0972
2.13815
2.18168
2.22267
2.26011
2.30026
2.40665
2.4784
2.97298
2.85936
2.7232
2.05166
1.94856
2.02619
2.04925
1.81635
1.83448
1.84129
1.86128
1.88208
1.90671
1.93746
1.97285
2.00667
2.03972
2.07138
2.09529
2.11195
2.12548
2.82965
3.00955
2.7375
2.50377
2.15183
1.62017
1.81347
1.99979
2.08179
1.75874
1.77027
1.7846
1.80156
1.82046
1.84114
1.86453
1.89008
1.91554
1.93964
1.96084
1.97277
1.97445
1.96506
2.63582
2.9127
2.70352
1.72057
1.52639
1.63863
1.86739
2.07203
2.20039
1.70498
1.71607
1.72678
1.73937
1.75435
1.77075
1.78834
1.80662
1.82425
1.83985
1.8524
1.8572
1.85219
1.83352
1.783
2.5931
2.81275
2.32699
1.90661
1.85329
2.34156
3.81579
4.08717
1.64787
1.6545
1.66265
1.67236
1.68396
1.69661
1.7097
1.72262
1.73431
1.74363
1.75006
1.75088
1.74512
1.72841
1.69549
1.64704
1.89984
2.95933
3.13366
3.22977
3.31886
3.15712
2.19937
1.58474
1.58813
1.59404
1.60138
1.61009
1.61962
1.62931
1.63846
1.64613
1.65143
1.65387
1.65311
1.64838
1.63753
1.61952
1.59787
1.58685
1.59695
1.63572
1.71631
1.7512
1.78144
1.80282
1.51625
1.51777
1.5217
1.52696
1.53325
1.54018
1.54716
1.55355
1.55853
1.56142
1.56202
1.56056
1.55711
1.55131
1.54377
1.53772
1.54096
1.5597
1.59582
1.64161
1.68354
1.71212
1.72478
1.44298
1.44344
1.44585
1.4494
1.45369
1.45845
1.46321
1.46741
1.47043
1.47181
1.47155
1.47005
1.46773
1.46519
1.46348
1.46522
1.47458
1.49472
1.52449
1.5587
1.58935
1.61046
1.62018
1.36575
1.36567
1.36694
1.36908
1.37173
1.37467
1.37754
1.37991
1.38135
1.38163
1.38084
1.37941
1.37789
1.37704
1.37798
1.38253
1.39279
1.41014
1.43339
1.45876
1.48113
1.49639
1.50293
1.28531
1.28495
1.28535
1.28637
1.28767
1.28908
1.29034
1.29113
1.29122
1.29052
1.28915
1.28747
1.28598
1.28539
1.28665
1.29098
1.29951
1.31256
1.32887
1.34573
1.35982
1.36839
1.37029
1.20229
1.20174
1.20151
1.20163
1.20182
1.20194
1.20179
1.20119
1.20003
1.1983
1.19608
1.19358
1.19119
1.18953
1.1894
1.1916
1.19658
1.20413
1.21315
1.22171
1.22764
1.229
1.22496
1.1172
1.11651
1.11582
1.11523
1.11449
1.11346
1.11203
1.11012
1.10771
1.10478
1.10132
1.09738
1.09325
1.0895
1.08678
1.08555
1.08586
1.08724
1.08873
1.08893
1.08628
1.07932
1.06747
1.03049
1.02969
1.02866
1.02748
1.02592
1.02383
1.02118
1.01797
1.01421
1.00985
1.00472
0.998796
0.992313
0.985755
0.979603
0.974046
0.968867
0.963499
0.957109
0.948545
0.936591
0.920076
0.898669
0.94256
0.941643
0.940359
0.938659
0.936309
0.933183
0.929301
0.924743
0.919519
0.91347
0.906352
0.898066
0.888807
0.878952
0.86877
0.858224
0.846949
0.834362
0.8197
0.801873
0.77977
0.752364
0.719579
0.853722
0.852666
0.851143
0.848918
0.845778
0.841608
0.836485
0.830529
0.823712
0.815789
0.806452
0.795571
0.783274
0.769774
0.755121
0.739106
0.721321
0.701178
0.677852
0.650179
0.617077
0.577531
0.531465
0.764198
0.762951
0.761164
0.758382
0.754433
0.749219
0.742858
0.735473
0.726974
0.717048
0.705358
0.691749
0.67624
0.658842
0.639408
0.617642
0.593138
0.565254
0.53298
0.494971
0.45011
0.397304
0.3362
0.674149
0.672644
0.670548
0.667186
0.662434
0.656204
0.648631
0.639797
0.629543
0.617521
0.603397
0.586983
0.568154
0.546713
0.522374
0.494821
0.463624
0.427989
0.386657
0.338098
0.281052
0.214111
0.136432
0.583721
0.581905
0.579475
0.575535
0.570012
0.562814
0.554054
0.54374
0.531657
0.517466
0.500867
0.481624
0.459455
0.433982
0.404839
0.371704
0.334055
0.290848
0.240566
0.181568
0.112402
0.0310941
-0.0639913
0.49311
0.490968
0.488206
0.483703
0.477435
0.469297
0.459344
0.447504
0.433539
0.417168
0.398138
0.376147
0.350752
0.321429
0.287767
0.249408
0.205663
0.155224
0.0963951
0.0274688
-0.0532603
-0.148404
-0.260513
0.402582
0.400134
0.397046
0.391971
0.384937
0.375838
0.364659
0.351266
0.335451
0.317018
0.295743
0.271226
0.242851
0.209984
0.17218
0.129005
0.0795711
0.0223852
-0.0442872
-0.122209
-0.213447
-0.321215
-0.44876
0.3124
0.309681
0.30623
0.300529
0.292674
0.282576
0.270167
0.25529
0.237797
0.217564
0.194345
0.167597
0.136536
0.100453
0.0588893
0.0113271
-0.0432801
-0.106494
-0.179986
-0.265605
-0.365828
-0.484325
-0.6247
0.222761
0.219782
0.21588
0.209477
0.200775
0.189703
0.176171
0.160018
0.141139
0.119426
0.0945496
0.0658065
0.0322976
-0.00668982
-0.0515982
-0.103015
-0.162081
-0.23033
-0.30937
-0.401183
-0.508529
-0.6352
-0.784859
0.133831
0.13056
0.126122
0.118991
0.109507
0.0975992
0.083163
0.0660133
0.0460392
0.0230907
-0.00327082
-0.0338636
-0.0696011
-0.111117
-0.158823
-0.213391
-0.276028
-0.348208
-0.431516
-0.528043
-0.640567
-0.772577
-0.927505
0.045831
0.0422231
0.0372561
0.0294769
0.0193705
0.00682755
-0.00828957
-0.0262218
-0.0471153
-0.0711712
-0.0989028
-0.131159
-0.168776
-0.212278
-0.262085
-0.318996
-0.384282
-0.459357
-0.545774
-0.645598
-0.761374
-0.89609
-1.05271
-0.0409835
-0.0449298
-0.0503033
-0.0585668
-0.0691108
-0.0821235
-0.0977942
-0.116413
-0.138132
-0.163166
-0.192052
-0.225616
-0.264597
-0.30945
-0.360671
-0.419191
-0.486293
-0.563302
-0.651699
-0.753361
-0.870486
-1.00566
-1.16138
-0.126452
-0.130696
-0.136302
-0.144895
-0.155743
-0.169136
-0.185305
-0.204533
-0.226926
-0.252681
-0.282363
-0.316783
-0.356613
-0.402291
-0.454399
-0.513929
-0.582089
-0.660094
-0.749342
-0.851466
-0.968283
-1.10205
-1.25496
-0.210466
-0.214983
-0.220684
-0.229516
-0.240584
-0.254295
-0.270878
-0.290556
-0.313362
-0.339511
-0.369633
-0.404545
-0.44485
-0.490956
-0.543485
-0.603425
-0.671881
-0.749997
-0.839112
-0.940622
-1.05596
-1.18704
-1.33588
-0.292608
-0.297418
-0.3031
-0.312106
-0.323308
-0.337248
-0.354104
-0.374006
-0.396955
-0.423235
-0.453556
-0.488693
-0.529133
-0.575236
-0.627649
-0.687336
-0.75533
-0.832744
-0.920839
-1.02078
-1.13373
-1.26132
-1.40535
-0.372064
-0.377183
-0.3827
-0.391793
-0.403027
-0.417076
-0.434029
-0.45393
-0.476795
-0.502998
-0.533274
-0.568281
-0.608379
-0.653941
-0.705661
-0.764429
-0.831156
-0.90691
-0.992845
-1.08989
-1.19917
-1.32234
-1.46091
-0.448571
-0.454034
-0.459241
-0.468335
-0.479499
-0.493485
-0.510324
-0.530011
-0.552602
-0.578518
-0.608421
-0.642821
-0.682033
-0.726513
-0.776968
-0.834099
-0.898631
-0.97159
-1.05405
-1.14674
-1.25068
-1.36756
-1.49899
-0.523268
-0.529247
-0.534084
-0.543065
-0.554016
-0.56774
-0.584308
-0.60369
-0.625932
-0.651412
-0.68068
-0.714153
-0.752168
-0.795243
-0.843997
-0.89892
-0.960607
-1.03001
-1.10804
-1.19527
-1.29255
-1.40124
-1.52321
-0.59687
-0.603547
-0.607997
-0.616651
-0.627279
-0.640718
-0.657051
-0.676141
-0.697981
-0.72295
-0.751556
-0.784142
-0.821005
-0.862638
-0.909564
-0.962151
-1.02091
-1.0866
-1.15985
-1.2411
-1.33114
-1.43104
-1.54243
-0.667354
-0.67446
-0.678601
-0.686791
-0.697192
-0.710433
-0.726463
-0.74507
-0.766372
-0.790855
-0.818926
-0.850704
-0.886393
-0.926518
-0.971569
-1.02178
-1.07748
-1.13927
-1.20754
-1.2826
-1.3651
-1.45592
-1.556
-0.734505
-0.741513
-0.745769
-0.753625
-0.763833
-0.776654
-0.792061
-0.810058
-0.83089
-0.854895
-0.882227
-0.912927
-0.94724
-0.985632
-1.02843
-1.07575
-1.12782
-1.18502
-1.24763
-1.3158
-1.38984
-1.47014
-1.55695
-0.807278
-0.815171
-0.819582
-0.827209
-0.837076
-0.849279
-0.864018
-0.88154
-0.901933
-0.925176
-0.951379
-0.980818
-1.01368
-1.05
-1.08987
-1.13359
-1.18134
-1.2331
-1.28893
-1.34887
-1.41266
-1.47976
-1.54975
627.383
711.247
777.164
438.472
932.648
892.143
831.556
742.948
1044.52
1004.87
970.579
952.082
1060.68
1049.35
1042.65
1040.46
865.83
970.366
1092.28
1096.46
77.2686
124.846
194.184
288.086
1.94174
1.91408
1.97568
2.16742
2.03026
2.02208
2.02558
2.02491
2.08775
2.08161
2.07271
2.05923
3.53073
3.92672
3.90176
3.8627
4.04934
4.03381
4.01535
2.89727
1.86623
1.86161
1.84609
1.83272
1.80008
1.79393
1.78624
1.77913
1.72254
1.71874
1.71372
1.70799
1.61921
1.61687
1.61349
1.60933
1.50152
1.49904
1.49574
1.49176
1.36657
1.36289
1.35858
1.35379
1.21743
1.21132
1.20481
1.1982
1.05446
1.04497
1.03529
1.02557
0.878499
0.864471
0.850511
0.836336
0.690716
0.670877
0.650823
0.630358
0.492045
0.465195
0.437597
0.408966
0.283887
0.248171
0.211307
0.172929
0.0693813
0.0231012
-0.0253126
-0.0759655
-0.14679
-0.204436
-0.265762
-0.331193
-0.358941
-0.427901
-0.502087
-0.582956
-0.561219
-0.640461
-0.726471
-0.821424
-0.748331
-0.83562
-0.931121
-1.03715
-0.916047
-1.00848
-1.1099
-1.22248
-1.06229
-1.15685
-1.26033
-1.37434
-1.18752
-1.28157
-1.38401
-1.49577
-1.29377
-1.38544
-1.48472
-1.59234
-1.38355
-1.47198
-1.56713
-1.66957
-1.45996
-1.54476
-1.63544
-1.73237
-1.52481
-1.60615
-1.69263
-1.78459
-1.57564
-1.65377
-1.73675
-1.82471
-1.608
-1.68228
-1.76138
-1.84537
-1.62442
-1.69347
-1.76714
-1.84555
-1.63421
-1.69668
-1.76327
-1.83433
-1.63739
-1.6924
-1.75053
-1.81227
-1.62585
-1.67174
-1.71947
-1.76928
-1.60258
-1.63661
-1.67066
-1.70453
327.337
246.005
245.726
246.215
246.071
246.057
246.257
246.3
246.411
246.507
246.6
246.685
246.748
246.785
246.803
246.81
246.809
246.805
246.803
778.472
564.533
294.956
294.351
245.765
245.625
246.319
246.225
246.377
246.485
246.614
246.721
246.79
246.817
246.819
246.807
246.788
246.771
246.76
936.45
908.264
914.293
898.991
446.846
326.966
265.263
246.267
246.352
246.382
246.608
246.778
246.853
246.855
246.829
246.79
246.745
246.705
246.682
1035.33
1023.15
1038.79
1053.06
1051.85
1089.47
884.171
453.815
295.557
246.669
246.701
246.875
246.943
246.894
246.824
246.746
246.66
246.585
246.541
1103.05
1109.18
1121.1
1128.73
1140.99
1159.12
1165.83
1198.11
1105.04
556.671
264.601
247.447
247.085
246.913
246.787
246.656
246.507
246.373
246.294
444.469
626.597
870.86
1147.93
1219.15
1224.46
1237.26
1267.03
1295.2
1323.3
905.83
319.764
247.47
246.868
246.665
246.486
246.241
246.003
245.863
3.67913
15.4012
53.1674
129.551
200.548
324.278
726.622
1243.19
1350.03
1382.67
1438.86
1091.1
355.609
247.208
246.568
246.193
245.776
245.357
245.11
3.30881
5.27201
4.70332
2.97994
2.33425
2.60118
3.46495
13.1089
234.878
1107.11
1474.05
1513.72
1117.44
342.588
246.871
245.839
244.963
244.201
243.77
4.25302
5.9492
5.9441
3.99707
1.96048
2.05899
2.19339
2.3879
2.41933
47.2608
842.964
1523.53
1534.28
943.656
277.22
245.268
243.462
242.118
241.356
3.6419
2.35137
1.87907
1.86322
1.92069
2.02843
2.13798
2.20194
2.18229
2.40676
43.0813
1003.09
1537.91
1446.4
598.794
244.664
239.955
238.047
236.962
1.83651
1.8251
1.83599
1.8548
1.89878
1.96344
2.04132
2.07697
2.09473
2.02087
2.40677
241.788
1376.4
1499.26
1088.26
280.634
232.116
230.389
229.232
1.81392
1.79606
1.80241
1.82611
1.86959
1.93261
1.9973
2.02746
2.03933
2.05504
1.96509
1.7496
833.907
1548.7
1362.83
417.007
217.807
216.584
216.063
1.76778
1.7544
1.75593
1.7745
1.80869
1.85623
1.90786
1.94611
1.96256
1.9811
1.9653
1.94282
309.143
1471.92
1480.35
599.576
197.412
194.141
195.012
1.69717
1.68478
1.68457
1.69934
1.72594
1.76052
1.79836
1.82975
1.84932
1.87895
1.94184
2.04038
51.6962
1239.46
1449.6
860.898
177.197
160.519
164.07
1.60131
1.59149
1.59022
1.59972
1.61653
1.63761
1.67001
1.71311
1.72741
1.74654
1.82588
1.89891
2.50855
969.072
1443.12
933.625
142.872
114.868
123.516
1.48421
1.47485
1.47167
1.47568
1.48246
1.49029
1.54173
1.64086
1.66373
1.62484
1.65375
1.70473
1.83036
756.107
1435.26
878.917
96.047
68.5108
82.4823
1.34537
1.33459
1.32814
1.32557
1.32176
1.31699
1.33567
1.45434
1.47655
1.50524
1.49946
1.52174
1.57522
709.329
1414.38
788.07
54.8001
38.6188
53.1933
1.18705
1.17193
1.15936
1.14775
1.13163
1.11568
1.11138
1.13465
1.26466
1.3048
1.28952
1.33914
1.64492
787.329
1400.01
630.654
19.583
26.9005
37.3941
1.0093
0.987039
0.965773
0.943494
0.915016
0.890389
0.888599
0.906395
0.944226
1.01895
1.10054
1.21069
88.6014
939.258
1284.28
389.367
10.5989
21.5864
27.3846
0.812006
0.77806
0.74415
0.708194
0.667315
0.640505
0.650388
0.689137
0.744807
0.831005
0.96861
1.13884
287.04
1022.78
925.806
158.693
13.2816
18.5224
19.7682
0.595429
0.544511
0.491128
0.433808
0.374422
0.346076
0.373245
0.447601
0.55433
0.710131
0.896943
1.08655
382.476
1057.01
575.049
25.0409
13.9834
14.3054
14.7159
0.360142
0.287663
0.209542
0.126808
0.044974
0.00540261
0.067147
0.206873
0.360797
0.580702
0.830967
29.3288
628.885
946.485
229.572
9.71562
13.126
9.59492
10.7308
0.106025
0.00446973
-0.104333
-0.212032
-0.310893
-0.354018
-0.254966
0.0357639
0.286483
0.477402
0.954659
533.568
807.103
635.569
61.9812
6.06074
11.4386
5.9236
7.85731
-0.166321
-0.309305
-0.46728
-0.623324
-0.77137
-0.822399
-0.64934
-0.122672
0.296579
0.243755
211.888
837.558
838.109
434.212
13.2236
10.419
7.28743
4.58275
6.21887
-0.449707
-0.645552
-0.880132
-1.14114
-1.44608
-1.58882
-1.3252
-0.647134
-0.697741
235.16
822.285
855.812
839.366
168.563
10.1606
12.609
3.97003
4.63967
5.44508
-0.730739
-0.984762
-1.30964
-1.71511
-2.28661
-2.63148
-2.48835
0.760468
431.3
823.175
858.618
872.472
429.853
22.4388
12.4945
6.64205
3.57923
4.97296
5.14243
-0.995549
-1.30609
-1.71202
-2.2731
-3.09297
-3.71334
-4.33068
162.448
791.609
828.054
807.468
419.586
38.8555
24.7186
10.2397
3.43634
4.34595
5.25293
5.09921
-1.23212
-1.58804
-2.05114
-2.73876
-3.67895
-4.84463
-1.48153
363.186
674.425
425.899
136.226
15.6006
7.87521
17.9494
5.10932
4.47131
5.12065
5.6037
5.20715
-1.43023
-1.81043
-2.29685
-3.03721
-3.99692
-5.4139
56.026
403.731
237.367
17.1393
7.22787
6.40668
6.04882
6.05563
5.29158
5.36419
5.7608
5.94681
5.3831
-1.58464
-1.96129
-2.43056
-3.14953
-3.97481
-4.93703
34.8787
430.22
112.915
8.07949
6.11096
5.90328
5.96983
5.98139
5.81017
5.93271
6.17648
6.18177
5.55212
-1.70024
-2.05123
-2.47566
-3.07084
-3.6351
-4.29086
32.4619
447.385
78.1939
6.54875
6.50181
6.35394
6.40428
6.36367
6.25907
6.28801
6.37933
6.28018
5.65854
-1.78716
-2.10742
-2.48941
-2.93482
-3.29508
-3.60151
37.0627
428.302
350.265
36.7867
7.2116
6.96071
6.97708
6.82349
6.6105
6.47724
6.41109
6.24946
5.67248
-1.85325
-2.14667
-2.49538
-2.85983
-3.23749
-2.94949
-3.54088
289.234
484.845
70.3398
7.92538
7.70912
7.52595
7.15248
6.77881
6.48243
6.28151
6.08911
5.57866
-1.90476
-2.17658
-2.49726
-2.82272
-3.22219
-3.0057
-3.78489
197.939
511.635
110.696
8.53402
8.20748
7.82691
7.22961
6.69857
6.2837
5.98844
5.78905
5.37089
-1.94727
-2.20307
-2.49926
-2.79617
-3.20711
-3.40181
-4.01878
260.099
530.873
497.061
28.5036
8.33073
7.72617
6.99327
6.3554
5.8871
5.54089
5.33561
5.05937
-1.98001
-2.22698
-2.50976
-2.79642
-3.2001
-3.22371
-3.68989
225.531
554.743
568.173
28.5468
8.05785
7.27402
6.41461
5.75721
5.2915
4.96099
4.76932
4.61175
-1.9941
-2.23746
-2.51987
-2.83317
-3.40132
-3.61903
-3.1837
-1.96592
534.715
579.27
440.207
17.0303
6.42064
5.40665
4.90367
4.51847
4.26192
4.0917
4.0606
-1.98534
-2.22056
-2.4971
-2.86321
-3.51347
-4.17787
1.36391
-3.60097
569.415
588.692
598.154
104.406
4.65857
3.82585
3.78094
3.58295
3.46317
3.33149
3.42024
-1.96199
-2.18296
-2.4084
-2.77183
-3.39689
-4.36567
-2.14118
9.8963
590.711
592.399
606.809
354.128
2.7926
1.90293
2.46785
2.54897
2.59608
2.54541
2.71814
-1.92279
-2.10944
-2.29263
-2.57668
-3.03098
-3.76614
-4.61662
32.8209
298.803
607.879
615.241
326.033
-0.115775
0.674204
1.23094
1.57998
1.73851
1.759
1.96284
-1.85668
-1.99501
-2.13771
-2.32982
-2.61748
-3.04708
-3.37978
-0.390901
14.839
517.778
367.036
101.176
2.15248
-0.0282015
0.480968
0.856387
0.985878
1.03101
1.21043
-1.7606
-1.83569
-1.90123
-1.97223
-2.07795
-2.23084
-2.30629
-2.44682
-3.29566
19.5341
7.94008
-1.89699
0.308898
-0.285189
-0.0497156
0.186802
0.270162
0.302272
0.324037
)
;

boundaryField
{
    leftWall
    {
        type            fixedFluxPressure;
        gradient        uniform 0;
        value           nonuniform List<scalar> 
50
(
1211.78
1210.76
1208.71
1205.74
1202
1197.65
1192.79
1187.58
1178.99
1166.77
1156.04
1150.45
1160.21
824.559
2.48524
1.87374
1.81635
1.75874
1.70498
1.64787
1.58474
1.51625
1.44298
1.36575
1.28531
1.20229
1.1172
1.03049
0.94256
0.853722
0.764198
0.674149
0.583721
0.49311
0.402582
0.3124
0.222761
0.133831
0.045831
-0.0409835
-0.126452
-0.210466
-0.292608
-0.372064
-0.448571
-0.523268
-0.59687
-0.667354
-0.734505
-0.807278
)
;
    }
    rightWall
    {
        type            fixedFluxPressure;
        gradient        uniform 0;
        value           nonuniform List<scalar> 
50
(
246.838
246.839
246.838
246.837
246.835
246.831
246.826
246.819
246.803
246.76
246.682
246.541
246.294
245.863
245.11
243.77
241.356
236.962
229.232
216.063
195.012
164.07
123.516
82.4823
53.1933
37.3941
27.3846
19.7682
14.7159
10.7308
7.85731
6.21887
5.44508
5.14243
5.09921
5.20715
5.3831
5.55212
5.65854
5.67248
5.57866
5.37089
5.05937
4.61175
4.0606
3.42024
2.71814
1.96284
1.21043
0.324037
)
;
    }
    lowerWall
    {
        type            fixedFluxPressure;
        gradient        uniform 0;
        value           nonuniform List<scalar> 
62
(
1211.78
1216.11
1224.23
1226.86
1222.96
1214.13
1203.59
1193.45
1184.63
1177.64
1173
1171.37
1173.61
1180.86
1194.84
1216.88
1247.63
1285.93
1325.78
1353.8
1350.24
1321.13
1372.96
1372.96
1372.54
1381.27
1406.35
1424.17
1413.25
1361.83
1262.49
627.383
711.247
777.164
438.472
246.207
246.199
246.181
246.153
246.111
246.104
246.092
245.922
246.207
246.178
246.174
246.209
246.233
246.264
246.311
246.37
246.435
246.503
246.569
246.629
246.683
246.728
246.765
246.794
246.816
246.83
246.838
)
;
    }
    atmosphere
    {
        type            totalPressure;
        rho             rho;
        psi             none;
        gamma           1;
        p0              uniform 0;
        value           nonuniform List<scalar> 
46
(
-0.848456
-0.859194
-0.862682
-0.870194
-0.879902
-0.891774
-0.906103
-0.92329
-0.943383
-0.966155
-0.991635
-1.02021
-1.05209
-1.08707
-1.1251
-1.16656
-1.2116
-1.25993
-1.31144
-1.36613
-1.42333
-1.48185
-1.54092
-1.58324
-1.60945
-1.63446
-1.65775
-1.69254
-1.72576
-1.72873
-1.69255
-1.63214
-1.63184
-1.62005
-0.890692
0
0
0
0
0
0
0
0
0
0
0
)
;
    }
    defaultFaces
    {
        type            empty;
    }
}


// ************************************************************************* //
