/*--------------------------------*- C++ -*----------------------------------*\
| =========                 |                                                 |
| \\      /  F ield         | OpenFOAM: The Open Source CFD Toolbox           |
|  \\    /   O peration     | Version:  2206                                  |
|   \\  /    A nd           | Website:  www.openfoam.com                      |
|    \\/     M anipulation  |                                                 |
\*---------------------------------------------------------------------------*/
FoamFile
{
    version     2.0;
    format      ascii;
    arch        "LSB;label=32;scalar=64";
    class       volVectorField;
    location    "0.325";
    object      U;
}
// * * * * * * * * * * * * * * * * * * * * * * * * * * * * * * * * * * * * * //

dimensions      [0 1 -1 0 0 0 0];

internalField   nonuniform List<vector> 
2268
(
(-0.0242753 0.00432564 0)
(-0.00995922 -0.00819871 0)
(0.0480088 -0.0158459 0)
(0.121553 -0.0180065 0)
(0.195787 -0.0165908 0)
(0.261729 -0.013925 0)
(0.315933 -0.0113803 0)
(0.359961 -0.00944402 0)
(0.397021 -0.00811581 0)
(0.429599 -0.00718672 0)
(0.458833 -0.00639199 0)
(0.484695 -0.00549279 0)
(0.506303 -0.0042574 0)
(0.521469 -0.00257508 0)
(0.529067 0.00126002 0)
(0.517957 0.00823723 0)
(0.478823 0.0194446 0)
(0.398307 0.03518 0)
(0.261172 0.0495678 0)
(0.075558 0.0473239 0)
(-0.115386 0.00756446 0)
(-0.217434 -0.014831 0)
(-0.0819297 -0.0642257 0)
(-0.0246963 0.0126706 0)
(-0.00829447 -0.0251358 0)
(0.0503124 -0.0478887 0)
(0.124097 -0.0542107 0)
(0.197992 -0.0499639 0)
(0.263317 -0.0420328 0)
(0.317111 -0.0344787 0)
(0.361136 -0.0287497 0)
(0.398562 -0.0248304 0)
(0.43176 -0.0220861 0)
(0.461765 -0.0197261 0)
(0.488498 -0.0170407 0)
(0.51101 -0.0134224 0)
(0.528209 -0.00834473 0)
(0.53683 -0.000147537 0)
(0.542144 0.0127662 0)
(0.543825 0.032983 0)
(0.535412 0.0638398 0)
(0.492462 0.103544 0)
(0.362891 0.134569 0)
(0.150416 0.113924 0)
(-0.125792 0.0314019 0)
(0.0271537 -0.12566 0)
(-0.0234667 0.0204241 0)
(-0.00533299 -0.0424412 0)
(0.0539296 -0.0799614 0)
(0.127397 -0.0899696 0)
(0.199976 -0.0826928 0)
(0.263566 -0.0695269 0)
(0.31603 -0.0571384 0)
(0.359497 -0.0478542 0)
(0.397085 -0.0415628 0)
(0.430953 -0.0371548 0)
(0.461922 -0.0333135 0)
(0.489763 -0.0288839 0)
(0.513523 -0.0229625 0)
(0.531787 -0.014707 0)
(0.542778 -0.0037273 0)
(0.544548 0.0113545 0)
(0.536836 0.033546 0)
(0.524028 0.0686631 0)
(0.517862 0.123417 0)
(0.492872 0.187333 0)
(0.393042 0.209037 0)
(0.158927 0.102579 0)
(0.119137 -0.0988856 0)
(-0.0221047 0.0269761 0)
(-0.000887909 -0.0604294 0)
(0.0590551 -0.112169 0)
(0.131787 -0.125147 0)
(0.20238 -0.114535 0)
(0.263611 -0.0962418 0)
(0.314402 -0.0793624 0)
(0.357311 -0.0669252 0)
(0.395333 -0.058599 0)
(0.430303 -0.0527488 0)
(0.462731 -0.047544 0)
(0.492185 -0.0414369 0)
(0.517639 -0.0332572 0)
(0.537708 -0.0220719 0)
(0.55082 -0.00702669 0)
(0.555354 0.0131447 0)
(0.549933 0.0401105 0)
(0.53384 0.0765891 0)
(0.515817 0.128507 0)
(0.51326 0.201041 0)
(0.501594 0.258258 0)
(0.350397 0.191172 0)
(0.205255 0.00111826 0)
(-0.0201881 0.0318734 0)
(0.00484487 -0.0792916 0)
(0.065336 -0.144299 0)
(0.13679 -0.159344 0)
(0.204727 -0.145073 0)
(0.263119 -0.121899 0)
(0.312077 -0.101064 0)
(0.354556 -0.0860278 0)
(0.393326 -0.0760882 0)
(0.429782 -0.0690475 0)
(0.464052 -0.0625957 0)
(0.495471 -0.0548572 0)
(0.522945 -0.0444618 0)
(0.545157 -0.0303673 0)
(0.560726 -0.0116278 0)
(0.568312 0.0128794 0)
(0.566966 0.0445974 0)
(0.555962 0.0851777 0)
(0.535468 0.135406 0)
(0.51516 0.200977 0)
(0.521268 0.275557 0)
(0.433003 0.269101 0)
(0.259992 0.140914 0)
(-0.0175862 0.0346322 0)
(0.0116379 -0.0990914 0)
(0.0725563 -0.176199 0)
(0.142164 -0.192311 0)
(0.206838 -0.174071 0)
(0.262085 -0.146381 0)
(0.309255 -0.122285 0)
(0.351578 -0.10533 0)
(0.39145 -0.0942638 0)
(0.429728 -0.0863009 0)
(0.466121 -0.0787136 0)
(0.499735 -0.0693845 0)
(0.52943 -0.0568184 0)
(0.553981 -0.0399184 0)
(0.572177 -0.0177427 0)
(0.582888 0.0107594 0)
(0.585395 0.0466793 0)
(0.579121 0.0914791 0)
(0.564586 0.145184 0)
(0.535322 0.207128 0)
(0.521377 0.286873 0)
(0.459727 0.337875 0)
(0.288509 0.305312 0)
(-0.0143265 0.0348172 0)
(0.0192363 -0.119855 0)
(0.0805437 -0.20784 0)
(0.14781 -0.224021 0)
(0.208781 -0.201565 0)
(0.260797 -0.16976 0)
(0.306423 -0.143096 0)
(0.34899 -0.124876 0)
(0.390362 -0.113124 0)
(0.430784 -0.104454 0)
(0.469542 -0.0957919 0)
(0.505551 -0.0848729 0)
(0.537662 -0.0701577 0)
(0.564737 -0.0505548 0)
(0.58569 -0.0251574 0)
(0.599474 0.00680937 0)
(0.605615 0.0465279 0)
(0.603408 0.0950033 0)
(0.59441 0.15363 0)
(0.570157 0.219713 0)
(0.539406 0.304701 0)
(0.481802 0.397936 0)
(0.33079 0.469735 0)
(-0.0106048 0.0328667 0)
(0.0272754 -0.141748 0)
(0.0889521 -0.239115 0)
(0.153549 -0.25433 0)
(0.210721 -0.227546 0)
(0.259782 -0.19216 0)
(0.304345 -0.163639 0)
(0.347652 -0.144727 0)
(0.390913 -0.132631 0)
(0.433737 -0.1234 0)
(0.47503 -0.113696 0)
(0.513593 -0.101186 0)
(0.548326 -0.0843377 0)
(0.578185 -0.0620611 0)
(0.602079 -0.0334336 0)
(0.619009 0.00221847 0)
(0.628607 0.0455585 0)
(0.63042 0.0972203 0)
(0.625363 0.159441 0)
(0.61086 0.231636 0)
(0.578616 0.325566 0)
(0.530043 0.457287 0)
(0.322989 0.687813 0)
(0.114241 -0.0371534 0)
(0.257597 -0.0134536 0)
(0.26534 0.00888672 0)
(0.203358 0.00772763 0)
(0.167676 0.00424047 0)
(0.160495 0.00082364 0)
(0.165751 -0.00181896 0)
(0.1806 -0.00359332 0)
(0.202286 -0.00448399 0)
(0.226255 -0.00440053 0)
(0.246966 -0.00302634 0)
(0.25933 -0.000566353 0)
(0.259128 0.00202829 0)
(0.245827 0.00442562 0)
(0.220161 0.00666132 0)
(0.183388 0.00852426 0)
(0.13748 0.00992066 0)
(0.0849733 0.0107934 0)
(0.0286249 0.0114051 0)
(0.153388 -0.13146 0)
(0.301172 -0.0361962 0)
(0.298744 0.0299552 0)
(0.227186 0.0234086 0)
(0.184563 0.0142235 0)
(0.173093 0.00260839 0)
(0.179372 -0.00681024 0)
(0.19667 -0.0125602 0)
(0.22128 -0.0154256 0)
(0.248516 -0.0152673 0)
(0.273192 -0.0116561 0)
(0.29135 -0.00522853 0)
(0.300019 0.00279859 0)
(0.294721 0.011422 0)
(0.27282 0.019933 0)
(0.233983 0.027557 0)
(0.179652 0.0337537 0)
(0.112953 0.0380473 0)
(0.0382591 0.0399581 0)
(0.146226 -0.250522 0)
(0.349126 -0.0634849 0)
(0.307752 0.0556345 0)
(0.211635 0.0403582 0)
(0.174396 0.0272174 0)
(0.1666 0.00444039 0)
(0.174983 -0.0122716 0)
(0.193888 -0.0218924 0)
(0.219938 -0.026935 0)
(0.24885 -0.0268524 0)
(0.274937 -0.0212963 0)
(0.293305 -0.0113431 0)
(0.300607 0.00191805 0)
(0.294188 0.017171 0)
(0.272106 0.0327812 0)
(0.233772 0.0473533 0)
(0.180037 0.0596116 0)
(0.113543 0.0684492 0)
(0.0384694 0.0725234 0)
(0.0891711 -0.355955 0)
(0.343739 -0.0887738 0)
(0.296221 0.0876242 0)
(0.191199 0.0598279 0)
(0.162487 0.0431381 0)
(0.155945 0.00360902 0)
(0.168194 -0.0190272 0)
(0.189764 -0.0318485 0)
(0.218157 -0.0393162 0)
(0.249808 -0.0393077 0)
(0.278464 -0.0312999 0)
(0.298571 -0.0168833 0)
(0.30636 0.00195254 0)
(0.299265 0.0235686 0)
(0.275915 0.046013 0)
(0.236258 0.0673291 0)
(0.181456 0.0855743 0)
(0.114237 0.098936 0)
(0.0386639 0.105266 0)
(0.0409218 -0.445859 0)
(0.286563 -0.115997 0)
(0.233769 0.105208 0)
(0.151167 0.0686156 0)
(0.14644 0.0602346 0)
(0.139803 -0.000244071 0)
(0.159112 -0.0267957 0)
(0.184121 -0.0425593 0)
(0.215641 -0.0530298 0)
(0.251243 -0.0532145 0)
(0.283575 -0.0425211 0)
(0.306423 -0.0233471 0)
(0.31592 0.0015991 0)
(0.309453 0.0301262 0)
(0.285624 0.0597164 0)
(0.244563 0.0878686 0)
(0.187703 0.112059 0)
(0.118075 0.129865 0)
(0.039963 0.138382 0)
(0.00748763 -0.541378 0)
(0.187029 -0.0876527 0)
(0.12666 0.144608 0)
(0.0887797 0.0630508 0)
(0.128152 0.0748903 0)
(0.117518 -0.00943171 0)
(0.148034 -0.0363277 0)
(0.176739 -0.054811 0)
(0.212027 -0.0686577 0)
(0.252957 -0.0690488 0)
(0.290208 -0.0552968 0)
(0.316651 -0.0308838 0)
(0.328434 0.000648459 0)
(0.323071 0.0365602 0)
(0.299132 0.0737784 0)
(0.256714 0.109184 0)
(0.197323 0.139627 0)
(0.124225 0.162071 0)
(0.042092 0.172857 0)
(-0.0360407 -0.591245 0)
(0.00979666 -0.175395 0)
(-0.325703 0.17794 0)
(-0.000897563 0.0587455 0)
(0.117352 0.0877379 0)
(0.0934612 -0.0267846 0)
(0.140005 -0.0507621 0)
(0.170895 -0.0707552 0)
(0.208931 -0.0878976 0)
(0.255372 -0.0877288 0)
(0.29843 -0.0700796 0)
(0.329344 -0.0398356 0)
(0.343948 -0.00112888 0)
(0.339924 0.0427316 0)
(0.315915 0.0881675 0)
(0.271973 0.131442 0)
(0.209575 0.168719 0)
(0.132164 0.196254 0)
(0.0448597 0.209524 0)
(-0.137658 -0.466959 0)
(-0.37975 0.0910653 0)
(-0.666766 0.0899024 0)
(-0.115 -0.18813 0)
(0.0907404 0.0880917 0)
(0.0376738 -0.0328903 0)
(0.130145 -0.063337 0)
(0.168058 -0.0826817 0)
(0.210064 -0.106353 0)
(0.261443 -0.108425 0)
(0.309139 -0.0869279 0)
(0.344714 -0.0502688 0)
(0.362691 -0.00381138 0)
(0.360164 0.0486505 0)
(0.336006 0.1029 0)
(0.29023 0.15459 0)
(0.224259 0.19922 0)
(0.141689 0.232317 0)
(0.0481672 0.248312 0)
(-0.00446757 0.0240696 0)
(0.0401838 -0.178869 0)
(0.101823 -0.286711 0)
(0.161554 -0.298079 0)
(0.213121 -0.264787 0)
(0.258684 -0.225725 0)
(0.302741 -0.196389 0)
(0.347859 -0.177848 0)
(0.394096 -0.16597 0)
(0.440202 -0.156184 0)
(0.484742 -0.145038 0)
(0.526579 -0.1303 0)
(0.564874 -0.110518 0)
(0.59889 -0.0845997 0)
(0.627779 -0.0515389 0)
(0.650643 -0.0101634 0)
(0.666639 0.0407643 0)
(0.676228 0.0994976 0)
(0.678913 0.168391 0)
(0.680668 0.248571 0)
(0.670682 0.352074 0)
(0.715619 0.479359 0)
(0.729299 0.800275 0)
(0.0043762 0.00112539 0)
(0.0591914 -0.233724 0)
(0.119043 -0.348911 0)
(0.170174 -0.352216 0)
(0.214057 -0.311065 0)
(0.256049 -0.26991 0)
(0.300438 -0.242186 0)
(0.34801 -0.22569 0)
(0.397184 -0.214545 0)
(0.44596 -0.203822 0)
(0.492906 -0.190382 0)
(0.537255 -0.1724 0)
(0.578629 -0.14864 0)
(0.616812 -0.118136 0)
(0.651803 -0.0804576 0)
(0.68391 -0.0359519 0)
(0.711712 0.0139873 0)
(0.73387 0.0733713 0)
(0.752134 0.142882 0)
(0.77304 0.221207 0)
(0.793969 0.313858 0)
(0.85276 0.409 0)
(0.944954 0.567507 0)
(0.0161138 -0.0389931 0)
(0.0855961 -0.294609 0)
(0.139616 -0.401814 0)
(0.1753 -0.394211 0)
(0.209891 -0.349542 0)
(0.249767 -0.311303 0)
(0.295604 -0.287898 0)
(0.345369 -0.273812 0)
(0.39636 -0.262463 0)
(0.446741 -0.249723 0)
(0.495702 -0.233363 0)
(0.542948 -0.212186 0)
(0.588291 -0.185091 0)
(0.631107 -0.150712 0)
(0.670553 -0.107702 0)
(0.706037 -0.0544494 0)
(0.739802 0.00973224 0)
(0.774547 0.0837513 0)
(0.804329 0.163385 0)
(0.831714 0.24003 0)
(0.86522 0.30868 0)
(0.913187 0.366629 0)
(0.992581 0.413305 0)
(0.0310243 -0.104465 0)
(0.132749 -0.357078 0)
(0.177359 -0.435824 0)
(0.185112 -0.420859 0)
(0.207614 -0.383927 0)
(0.24884 -0.355803 0)
(0.300209 -0.339147 0)
(0.356311 -0.328568 0)
(0.414062 -0.319108 0)
(0.472258 -0.308037 0)
(0.531319 -0.29389 0)
(0.591743 -0.276004 0)
(0.653926 -0.253448 0)
(0.7177 -0.224934 0)
(0.782585 -0.189172 0)
(0.845436 -0.143911 0)
(0.897884 -0.0889385 0)
(0.93244 -0.0291594 0)
(0.946302 0.0410892 0)
(0.945846 0.118248 0)
(0.950191 0.194042 0)
(0.968269 0.264568 0)
(1.0166 0.314239 0)
(0.0594781 -0.209521 0)
(0.20517 -0.433366 0)
(0.239169 -0.455849 0)
(0.20985 -0.436506 0)
(0.221377 -0.423902 0)
(0.269452 -0.415857 0)
(0.331594 -0.409363 0)
(0.397274 -0.40419 0)
(0.463394 -0.398072 0)
(0.532942 -0.39047 0)
(0.608887 -0.379665 0)
(0.693988 -0.36364 0)
(0.790088 -0.339729 0)
(0.898113 -0.305441 0)
(1.01889 -0.25776 0)
(1.14732 -0.187718 0)
(1.25029 -0.0914197 0)
(1.30127 0.0407949 0)
(1.23837 0.140323 0)
(1.15551 0.207543 0)
(1.09287 0.247817 0)
(1.05978 0.274502 0)
(1.05987 0.290493 0)
(0.0868915 -0.350184 0)
(0.253355 -0.565136 0)
(0.302308 -0.454436 0)
(0.249572 -0.419176 0)
(0.257602 -0.450342 0)
(0.306518 -0.475019 0)
(0.365337 -0.479508 0)
(0.409823 -0.468539 0)
(0.457145 -0.45207 0)
(0.51158 -0.440155 0)
(0.572835 -0.428446 0)
(0.652014 -0.414474 0)
(0.747045 -0.396258 0)
(0.853602 -0.374893 0)
(0.978813 -0.345897 0)
(1.12437 -0.280857 0)
(1.26952 -0.151007 0)
(1.41586 0.0276381 0)
(1.47075 0.239326 0)
(1.43866 0.331306 0)
(1.39019 0.359016 0)
(1.25375 0.349282 0)
(1.14088 0.311407 0)
(-0.00844101 -0.626928 0)
(0.133473 -0.699953 0)
(0.215756 -0.427163 0)
(0.217138 -0.382001 0)
(0.228154 -0.446305 0)
(0.240423 -0.484548 0)
(0.255469 -0.48272 0)
(0.282964 -0.448708 0)
(0.326961 -0.443176 0)
(0.386058 -0.460551 0)
(0.466205 -0.492393 0)
(0.566188 -0.519308 0)
(0.6758 -0.530539 0)
(0.789591 -0.539423 0)
(0.92937 -0.547141 0)
(1.09775 -0.499319 0)
(1.28233 -0.372579 0)
(1.45514 -0.163793 0)
(1.60425 0.11193 0)
(1.67101 0.337201 0)
(1.64255 0.43743 0)
(1.56464 0.498457 0)
(1.45973 0.435843 0)
(-0.0513909 -0.533812 0)
(-0.0797124 -0.453582 0)
(-0.01432 -0.482667 0)
(0.0815482 -0.475921 0)
(0.148446 -0.492865 0)
(0.185318 -0.509021 0)
(0.210642 -0.515 0)
(0.242322 -0.517898 0)
(0.287245 -0.537902 0)
(0.346835 -0.579028 0)
(0.420141 -0.628053 0)
(0.503113 -0.657476 0)
(0.596478 -0.657255 0)
(0.686795 -0.667459 0)
(0.80102 -0.713262 0)
(0.940579 -0.699999 0)
(1.11722 -0.582753 0)
(1.27986 -0.361414 0)
(1.42013 -0.0570505 0)
(1.50964 0.257539 0)
(1.51274 0.462522 0)
(1.45689 0.547737 0)
(1.39571 0.519498 0)
(-0.0549838 -0.470985 0)
(-0.0244941 -0.666991 0)
(0.0309863 -0.62237 0)
(0.0806067 -0.564398 0)
(0.129717 -0.547193 0)
(0.170627 -0.550016 0)
(0.204451 -0.555552 0)
(0.238954 -0.564379 0)
(0.277257 -0.588885 0)
(0.31923 -0.632058 0)
(0.364033 -0.683122 0)
(0.410311 -0.717229 0)
(0.47365 -0.716762 0)
(0.52888 -0.739701 0)
(0.579938 -0.83482 0)
(0.653382 -0.835554 0)
(0.749529 -0.714158 0)
(0.880191 -0.47271 0)
(1.00135 -0.127683 0)
(1.0928 0.230189 0)
(1.12607 0.475678 0)
(1.12678 0.574678 0)
(1.16653 0.545332 0)
(-0.00491347 -0.471181 0)
(0.0291914 -0.690368 0)
(0.0573589 -0.645576 0)
(0.0908639 -0.599375 0)
(0.129382 -0.58611 0)
(0.167776 -0.586273 0)
(0.202518 -0.587844 0)
(0.235068 -0.594638 0)
(0.264305 -0.617838 0)
(0.288597 -0.660339 0)
(0.308302 -0.712936 0)
(0.322637 -0.752911 0)
(0.352851 -0.754348 0)
(0.376976 -0.767077 0)
(0.350642 -0.843298 0)
(0.324216 -0.852367 0)
(0.340995 -0.735615 0)
(0.386588 -0.540277 0)
(0.484179 -0.20128 0)
(0.60597 0.193902 0)
(0.719635 0.453844 0)
(0.876648 0.505394 0)
(1.0815 0.405582 0)
(0.021858 -0.491643 0)
(0.0456371 -0.711773 0)
(0.0644721 -0.669627 0)
(0.0955984 -0.632603 0)
(0.131446 -0.622857 0)
(0.167274 -0.621521 0)
(0.201576 -0.620394 0)
(0.233549 -0.623419 0)
(0.259809 -0.640303 0)
(0.277181 -0.674893 0)
(0.285014 -0.719464 0)
(0.282028 -0.755824 0)
(0.286519 -0.757861 0)
(0.288577 -0.748077 0)
(0.259085 -0.777181 0)
(0.189116 -0.817929 0)
(0.165168 -0.725468 0)
(0.170336 -0.526099 0)
(0.200806 -0.271786 0)
(0.320729 0.0153125 0)
(0.558683 0.18515 0)
(0.842202 0.191257 0)
(1.08699 0.118775 0)
(0.026866 -0.52943 0)
(0.0520586 -0.738454 0)
(0.07089 -0.694816 0)
(0.100821 -0.665201 0)
(0.134809 -0.658157 0)
(0.169074 -0.65613 0)
(0.203484 -0.653275 0)
(0.237041 -0.652409 0)
(0.266223 -0.661432 0)
(0.286726 -0.685143 0)
(0.296071 -0.718222 0)
(0.294127 -0.748067 0)
(0.291477 -0.756085 0)
(0.296582 -0.748799 0)
(0.295745 -0.752898 0)
(0.257028 -0.776359 0)
(0.210148 -0.733705 0)
(0.214373 -0.586013 0)
(0.290856 -0.397557 0)
(0.43285 -0.230134 0)
(0.624441 -0.119416 0)
(0.822617 -0.056952 0)
(0.988071 -0.0403368 0)
(0.0263698 -0.569878 0)
(0.0543253 -0.761543 0)
(0.0749605 -0.719796 0)
(0.104684 -0.69633 0)
(0.137504 -0.691687 0)
(0.170933 -0.690222 0)
(0.205404 -0.687627 0)
(0.240828 -0.685428 0)
(0.274724 -0.689201 0)
(0.302651 -0.703525 0)
(0.321149 -0.726096 0)
(0.330416 -0.748863 0)
(0.334991 -0.761226 0)
(0.34273 -0.760221 0)
(0.352454 -0.751426 0)
(0.346365 -0.747289 0)
(0.320005 -0.713459 0)
(0.309148 -0.629863 0)
(0.347879 -0.489027 0)
(0.445494 -0.336579 0)
(0.586182 -0.230082 0)
(0.742536 -0.183229 0)
(0.896897 -0.180485 0)
(0.0245273 -0.610503 0)
(0.0540791 -0.786121 0)
(0.0771313 -0.74633 0)
(0.106918 -0.72738 0)
(0.139144 -0.724603 0)
(0.172021 -0.724111 0)
(0.206034 -0.722926 0)
(0.241776 -0.721654 0)
(0.278046 -0.723359 0)
(0.311405 -0.731531 0)
(0.33838 -0.746051 0)
(0.35804 -0.761654 0)
(0.371434 -0.771451 0)
(0.382439 -0.771412 0)
(0.393216 -0.760649 0)
(0.400444 -0.739604 0)
(0.403656 -0.696481 0)
(0.416729 -0.63068 0)
(0.458752 -0.547073 0)
(0.540773 -0.462328 0)
(0.656743 -0.396812 0)
(0.789796 -0.356314 0)
(0.923429 -0.337592 0)
(0.022429 -0.649993 0)
(0.0528347 -0.812093 0)
(0.0780492 -0.774105 0)
(0.108043 -0.758434 0)
(0.13988 -0.757026 0)
(0.172236 -0.757404 0)
(0.205419 -0.7576 0)
(0.239972 -0.75789 0)
(0.275601 -0.759547 0)
(0.310296 -0.764573 0)
(0.341177 -0.77333 0)
(0.366415 -0.782663 0)
(0.386409 -0.787858 0)
(0.40316 -0.785445 0)
(0.419055 -0.774141 0)
(0.43702 -0.752685 0)
(0.459049 -0.718374 0)
(0.49141 -0.669516 0)
(0.54257 -0.610157 0)
(0.617232 -0.549573 0)
(0.713211 -0.499517 0)
(0.822345 -0.466416 0)
(0.935731 -0.449888 0)
(0.0206746 -0.687623 0)
(0.0514232 -0.839356 0)
(0.0781942 -0.802762 0)
(0.108344 -0.789473 0)
(0.139851 -0.789021 0)
(0.171759 -0.789995 0)
(0.204171 -0.791023 0)
(0.237294 -0.792399 0)
(0.271128 -0.794516 0)
(0.30474 -0.798036 0)
(0.336272 -0.802993 0)
(0.364192 -0.807779 0)
(0.388698 -0.809478 0)
(0.411531 -0.805436 0)
(0.434913 -0.794544 0)
(0.460737 -0.775923 0)
(0.49236 -0.748327 0)
(0.533856 -0.711922 0)
(0.589425 -0.6704 0)
(0.661178 -0.629832 0)
(0.747986 -0.596587 0)
(0.845457 -0.573618 0)
(0.948418 -0.560112 0)
(0.0193588 -0.723712 0)
(0.0501041 -0.867581 0)
(0.0778538 -0.831955 0)
(0.108054 -0.820435 0)
(0.139262 -0.820679 0)
(0.170808 -0.822069 0)
(0.202709 -0.823513 0)
(0.234954 -0.825352 0)
(0.267483 -0.827697 0)
(0.299929 -0.830502 0)
(0.331478 -0.833504 0)
(0.361389 -0.835823 0)
(0.389812 -0.835885 0)
(0.418042 -0.831986 0)
(0.44789 -0.823 0)
(0.481291 -0.808485 0)
(0.520271 -0.788446 0)
(0.567456 -0.763453 0)
(0.62541 -0.735686 0)
(0.695188 -0.708623 0)
(0.776149 -0.686004 0)
(0.865593 -0.669696 0)
(0.960828 -0.659317 0)
(0.0184026 -0.758505 0)
(0.0489257 -0.896347 0)
(0.0771785 -0.861405 0)
(0.107325 -0.851253 0)
(0.138239 -0.85204 0)
(0.16946 -0.853787 0)
(0.201025 -0.855542 0)
(0.232894 -0.85761 0)
(0.264953 -0.860041 0)
(0.297066 -0.862643 0)
(0.32904 -0.865061 0)
(0.360731 -0.86669 0)
(0.392379 -0.866616 0)
(0.424834 -0.863844 0)
(0.45942 -0.857662 0)
(0.497675 -0.84769 0)
(0.541175 -0.834003 0)
(0.591508 -0.817299 0)
(0.650217 -0.799216 0)
(0.718002 -0.782137 0)
(0.794773 -0.768481 0)
(0.878841 -0.759114 0)
(0.968989 -0.75329 0)
(0.0177211 -0.792246 0)
(0.0478766 -0.925297 0)
(0.0762486 -0.890881 0)
(0.106233 -0.881856 0)
(0.136826 -0.8831 0)
(0.167716 -0.885197 0)
(0.198979 -0.887316 0)
(0.230633 -0.889693 0)
(0.262624 -0.892347 0)
(0.294909 -0.895122 0)
(0.327513 -0.897713 0)
(0.360558 -0.899666 0)
(0.394389 -0.900397 0)
(0.429664 -0.899313 0)
(0.467333 -0.895982 0)
(0.508515 -0.890225 0)
(0.554443 -0.882206 0)
(0.606346 -0.872562 0)
(0.665318 -0.862538 0)
(0.731799 -0.853779 0)
(0.805917 -0.847795 0)
(0.886459 -0.844723 0)
(0.973142 -0.843618 0)
(0.0172199 -0.825127 0)
(0.0469048 -0.954131 0)
(0.0750993 -0.920195 0)
(0.104812 -0.912168 0)
(0.135034 -0.913824 0)
(0.165559 -0.916277 0)
(0.196485 -0.918826 0)
(0.22789 -0.921661 0)
(0.259805 -0.924773 0)
(0.292265 -0.92803 0)
(0.325372 -0.931213 0)
(0.359346 -0.934014 0)
(0.394563 -0.936072 0)
(0.431575 -0.937046 0)
(0.471135 -0.936697 0)
(0.51413 -0.934964 0)
(0.561522 -0.932064 0)
(0.614241 -0.928551 0)
(0.673095 -0.925346 0)
(0.738383 -0.923608 0)
(0.810404 -0.924332 0)
(0.888258 -0.927203 0)
(0.97234 -0.931204 0)
(0.01682 -0.857271 0)
(0.0459525 -0.982616 0)
(0.0737436 -0.949196 0)
(0.103077 -0.942106 0)
(0.132854 -0.944157 0)
(0.162955 -0.946982 0)
(0.193493 -0.950007 0)
(0.224572 -0.953408 0)
(0.256282 -0.957163 0)
(0.288731 -0.961161 0)
(0.322084 -0.96525 0)
(0.356595 -0.969243 0)
(0.392625 -0.972936 0)
(0.430641 -0.976161 0)
(0.471257 -0.978819 0)
(0.515189 -0.980937 0)
(0.563216 -0.982714 0)
(0.616069 -0.984613 0)
(0.674374 -0.987362 0)
(0.738377 -0.991846 0)
(0.808537 -0.998728 0)
(0.884141 -1.00736 0)
(0.966115 -1.01674 0)
(0.0164685 -0.888735 0)
(0.0449715 -1.01057 0)
(0.0721832 -0.977752 0)
(0.101032 -0.971576 0)
(0.130276 -0.974019 0)
(0.159872 -0.97724 0)
(0.189944 -0.980785 0)
(0.220609 -0.984825 0)
(0.251986 -0.989347 0)
(0.284231 -0.994267 0)
(0.317548 -0.999485 0)
(0.352206 -1.0049 0)
(0.388532 -1.01041 0)
(0.42693 -1.01598 0)
(0.467912 -1.02159 0)
(0.512072 -1.02733 0)
(0.560052 -1.0334 0)
(0.612446 -1.0402 0)
(0.669781 -1.04833 0)
(0.732312 -1.0585 0)
(0.800624 -1.07117 0)
(0.874099 -1.08545 0)
(0.954119 -1.10044 0)
(0.016131 -0.91953 0)
(0.0439225 -1.03784 0)
(0.0704137 -1.00574 0)
(0.0986723 -1.00047 0)
(0.127288 -1.00331 0)
(0.15628 -1.00696 0)
(0.185781 -1.01106 0)
(0.215914 -1.0158 0)
(0.246817 -1.02117 0)
(0.278664 -1.02712 0)
(0.311676 -1.03359 0)
(0.346117 -1.04054 0)
(0.382281 -1.04797 0)
(0.420524 -1.05589 0)
(0.461286 -1.06436 0)
(0.505075 -1.07352 0)
(0.552426 -1.08356 0)
(0.603843 -1.09485 0)
(0.659786 -1.10791 0)
(0.72055 -1.12338 0)
(0.786814 -1.14158 0)
(0.858057 -1.16152 0)
(0.936074 -1.1824 0)
(0.0157823 -0.949631 0)
(0.0427728 -1.06429 0)
(0.0684279 -1.03306 0)
(0.0959938 -1.0287 0)
(0.12388 -1.03193 0)
(0.152158 -1.03602 0)
(0.180966 -1.04072 0)
(0.210427 -1.0462 0)
(0.240693 -1.05246 0)
(0.271941 -1.05949 0)
(0.30439 -1.06727 0)
(0.338286 -1.07581 0)
(0.373893 -1.08515 0)
(0.411526 -1.09536 0)
(0.451578 -1.10656 0)
(0.494481 -1.11891 0)
(0.540691 -1.13262 0)
(0.590639 -1.14806 0)
(0.644752 -1.1657 0)
(0.703366 -1.18615 0)
(0.767188 -1.20968 0)
(0.835825 -1.23527 0)
(0.911396 -1.26233 0)
(0.0154002 -0.978981 0)
(0.0414992 -1.08982 0)
(0.0662259 -1.05961 0)
(0.0929961 -1.05613 0)
(0.120046 -1.05977 0)
(0.147497 -1.06431 0)
(0.175485 -1.06962 0)
(0.204129 -1.07586 0)
(0.233586 -1.08304 0)
(0.264035 -1.09117 0)
(0.29568 -1.10026 0)
(0.328738 -1.11037 0)
(0.363443 -1.12156 0)
(0.400083 -1.13396 0)
(0.439002 -1.14772 0)
(0.480571 -1.16303 0)
(0.525172 -1.18013 0)
(0.57318 -1.19938 0)
(0.625002 -1.22125 0)
(0.681006 -1.24635 0)
(0.741877 -1.27496 0)
(0.807337 -1.30609 0)
(0.879648 -1.33938 0)
(0.0149647 -1.00749 0)
(0.0400923 -1.11431 0)
(0.0638209 -1.08527 0)
(0.0896903 -1.08268 0)
(0.115797 -1.0867 0)
(0.142305 -1.09171 0)
(0.169341 -1.09763 0)
(0.197025 -1.10462 0)
(0.225512 -1.11271 0)
(0.254971 -1.12192 0)
(0.285586 -1.13229 0)
(0.317544 -1.1439 0)
(0.351052 -1.15685 0)
(0.386367 -1.1713 0)
(0.423789 -1.18742 0)
(0.463625 -1.20544 0)
(0.506197 -1.22563 0)
(0.551832 -1.24835 0)
(0.600914 -1.27407 0)
(0.653805 -1.30344 0)
(0.711133 -1.33679 0)
(0.772728 -1.37321 0)
(0.840825 -1.41251 0)
(0.0144648 -1.03506 0)
(0.0385619 -1.1377 0)
(0.0612422 -1.10998 0)
(0.0861033 -1.10823 0)
(0.111161 -1.11263 0)
(0.136612 -1.11809 0)
(0.162568 -1.12462 0)
(0.189156 -1.13235 0)
(0.216518 -1.14131 0)
(0.244811 -1.15155 0)
(0.27419 -1.16312 0)
(0.304815 -1.17613 0)
(0.336867 -1.19071 0)
(0.370571 -1.20703 0)
(0.406178 -1.22529 0)
(0.443934 -1.24575 0)
(0.484104 -1.26871 0)
(0.526973 -1.29453 0)
(0.572893 -1.32369 0)
(0.622173 -1.35688 0)
(0.675352 -1.39453 0)
(0.732346 -1.43583 0)
(0.795245 -1.48068 0)
(0.0139088 -1.0616 0)
(0.0369385 -1.15996 0)
(0.0585289 -1.13366 0)
(0.0822791 -1.1327 0)
(0.106185 -1.13746 0)
(0.130473 -1.14335 0)
(0.155234 -1.15045 0)
(0.180596 -1.15887 0)
(0.206691 -1.16865 0)
(0.233652 -1.17985 0)
(0.261609 -1.19254 0)
(0.290691 -1.20684 0)
(0.321057 -1.22289 0)
(0.352899 -1.24088 0)
(0.386418 -1.26104 0)
(0.421806 -1.28365 0)
(0.45926 -1.30902 0)
(0.499033 -1.33753 0)
(0.541402 -1.36964 0)
(0.586608 -1.40614 0)
(0.635066 -1.44752 0)
(0.686741 -1.49309 0)
(0.743476 -1.54273 0)
(0.0133292 -1.08705 0)
(0.0352655 -1.18111 0)
(0.0557158 -1.15623 0)
(0.0782668 -1.15599 0)
(0.100927 -1.16108 0)
(0.123957 -1.16739 0)
(0.147419 -1.17502 0)
(0.171442 -1.18407 0)
(0.196137 -1.1946 0)
(0.221616 -1.20668 0)
(0.24798 -1.22038 0)
(0.275337 -1.23584 0)
(0.303821 -1.2532 0)
(0.33359 -1.27265 0)
(0.3648 -1.29445 0)
(0.397585 -1.31888 0)
(0.432079 -1.34627 0)
(0.468483 -1.377 0)
(0.506974 -1.41155 0)
(0.547715 -1.45075 0)
(0.590987 -1.49517 0)
(0.636741 -1.54417 0)
(0.686498 -1.59753 0)
(0.0127693 -1.11137 0)
(0.0335801 -1.20112 0)
(0.0528146 -1.17761 0)
(0.0740975 -1.17802 0)
(0.0954259 -1.1834 0)
(0.11712 -1.19009 0)
(0.139195 -1.19819 0)
(0.16178 -1.20782 0)
(0.184962 -1.21904 0)
(0.208831 -1.2319 0)
(0.233465 -1.2465 0)
(0.258949 -1.26297 0)
(0.285397 -1.28146 0)
(0.31293 -1.30216 0)
(0.341659 -1.32531 0)
(0.371663 -1.35122 0)
(0.403013 -1.38023 0)
(0.435839 -1.4127 0)
(0.470207 -1.44916 0)
(0.506212 -1.49039 0)
(0.543996 -1.53705 0)
(0.583451 -1.58856 0)
(0.625777 -1.64438 0)
(0.0122623 -1.13455 0)
(0.0318938 -1.2199 0)
(0.0498038 -1.19766 0)
(0.0697659 -1.19866 0)
(0.0896875 -1.20431 0)
(0.109981 -1.21134 0)
(0.1306 -1.21988 0)
(0.151669 -1.23002 0)
(0.173257 -1.24183 0)
(0.19543 -1.25537 0)
(0.218243 -1.27075 0)
(0.241762 -1.28806 0)
(0.266073 -1.30748 0)
(0.291264 -1.32918 0)
(0.317395 -1.35341 0)
(0.344498 -1.38047 0)
(0.372582 -1.41068 0)
(0.401698 -1.44443 0)
(0.43181 -1.48223 0)
(0.462956 -1.5248 0)
(0.495129 -1.57288 0)
(0.528157 -1.62598 0)
(0.563028 -1.68312 0)
(0.0118162 -1.15659 0)
(0.030186 -1.23733 0)
(0.046635 -1.21626 0)
(0.065234 -1.21783 0)
(0.0836853 -1.22374 0)
(0.102523 -1.23109 0)
(0.121634 -1.24 0)
(0.141143 -1.25059 0)
(0.161098 -1.2629 0)
(0.18154 -1.27701 0)
(0.202502 -1.293 0)
(0.224025 -1.31099 0)
(0.246167 -1.33113 0)
(0.268978 -1.3536 0)
(0.292471 -1.37864 0)
(0.316633 -1.4065 0)
(0.341425 -1.43752 0)
(0.366805 -1.47206 0)
(0.392657 -1.51062 0)
(0.418966 -1.55386 0)
(0.445548 -1.60257 0)
(0.472192 -1.65643 0)
(0.499808 -1.71405 0)
(0.0114142 -1.17758 0)
(0.028413 -1.25335 0)
(0.0432517 -1.23346 0)
(0.0604525 -1.23559 0)
(0.0773814 -1.24174 0)
(0.0947171 -1.24937 0)
(0.112289 -1.25862 0)
(0.130218 -1.26958 0)
(0.148532 -1.2823 0)
(0.167248 -1.29685 0)
(0.186375 -1.31333 0)
(0.205929 -1.33184 0)
(0.225939 -1.35252 0)
(0.246417 -1.37553 0)
(0.267337 -1.40109 0)
(0.288644 -1.42943 0)
(0.31025 -1.46086 0)
(0.33202 -1.49571 0)
(0.353772 -1.53446 0)
(0.37542 -1.5777 0)
(0.396613 -1.62628 0)
(0.417074 -1.68009 0)
(0.437627 -1.73753 0)
(0.0110302 -1.19764 0)
(0.0265242 -1.26789 0)
(0.0396022 -1.2493 0)
(0.0553777 -1.252 0)
(0.0707378 -1.25835 0)
(0.0865267 -1.26624 0)
(0.102528 -1.27579 0)
(0.118857 -1.28707 0)
(0.135524 -1.30014 0)
(0.152524 -1.31506 0)
(0.169846 -1.33193 0)
(0.187492 -1.35083 0)
(0.205466 -1.37189 0)
(0.223745 -1.39524 0)
(0.242263 -1.42107 0)
(0.260929 -1.4496 0)
(0.279603 -1.48108 0)
(0.29807 -1.51584 0)
(0.316092 -1.55426 0)
(0.333485 -1.59687 0)
(0.349762 -1.64456 0)
(0.364509 -1.69747 0)
(0.378281 -1.75409 0)
(0.0106438 -1.21658 0)
(0.0244796 -1.28064 0)
(0.0356443 -1.2636 0)
(0.0499664 -1.26684 0)
(0.0636973 -1.2734 0)
(0.0778749 -1.28153 0)
(0.0922498 -1.29136 0)
(0.106924 -1.30294 0)
(0.121904 -1.31632 0)
(0.137166 -1.33157 0)
(0.152695 -1.34876 0)
(0.168487 -1.36796 0)
(0.184525 -1.38927 0)
(0.200756 -1.41281 0)
(0.217082 -1.43874 0)
(0.233384 -1.46724 0)
(0.249479 -1.49851 0)
(0.265101 -1.53282 0)
(0.279971 -1.57049 0)
(0.2938 -1.61197 0)
(0.305977 -1.65804 0)
(0.315882 -1.70916 0)
(0.323611 -1.76412 0)
(0.010239 -1.23398 0)
(0.0222591 -1.29104 0)
(0.0313479 -1.2759 0)
(0.0441593 -1.2797 0)
(0.0561701 -1.28644 0)
(0.0686366 -1.29481 0)
(0.0812904 -1.30489 0)
(0.0942193 -1.31675 0)
(0.107426 -1.33041 0)
(0.120879 -1.34593 0)
(0.13457 -1.36338 0)
(0.148494 -1.38279 0)
(0.162618 -1.40426 0)
(0.176871 -1.42788 0)
(0.191145 -1.45379 0)
(0.20532 -1.4821 0)
(0.219196 -1.51295 0)
(0.23248 -1.54655 0)
(0.244861 -1.58313 0)
(0.255978 -1.62303 0)
(0.265114 -1.66686 0)
(0.271501 -1.7152 0)
(0.274639 -1.76738 0)
(0.00976347 -1.24979 0)
(0.0198406 -1.29894 0)
(0.0267106 -1.28617 0)
(0.0378978 -1.29055 0)
(0.0480899 -1.29744 0)
(0.0587295 -1.30601 0)
(0.0695527 -1.31632 0)
(0.0806221 -1.3284 0)
(0.0919328 -1.34229 0)
(0.103456 -1.35804 0)
(0.115195 -1.37567 0)
(0.127147 -1.39524 0)
(0.139272 -1.4168 0)
(0.151494 -1.44044 0)
(0.16373 -1.46623 0)
(0.175884 -1.49425 0)
(0.187759 -1.52457 0)
(0.199058 -1.55731 0)
(0.209474 -1.59261 0)
(0.218636 -1.63068 0)
(0.225788 -1.67185 0)
(0.230128 -1.71654 0)
(0.23055 -1.76464 0)
(0.00907 -1.26476 0)
(0.0171504 -1.30508 0)
(0.0217978 -1.29525 0)
(0.031198 -1.30016 0)
(0.0395141 -1.30717 0)
(0.0482256 -1.31591 0)
(0.0571054 -1.32641 0)
(0.0661871 -1.3387 0)
(0.0754626 -1.3528 0)
(0.0849153 -1.36875 0)
(0.0945598 -1.38657 0)
(0.104393 -1.4063 0)
(0.114373 -1.42797 0)
(0.124429 -1.45165 0)
(0.134515 -1.47738 0)
(0.144566 -1.50516 0)
(0.154404 -1.53505 0)
(0.163778 -1.56708 0)
(0.172439 -1.60126 0)
(0.180049 -1.63763 0)
(0.185959 -1.67625 0)
(0.189437 -1.71719 0)
(0.188959 -1.76056 0)
(0.00793671 -1.27894 0)
(0.0140702 -1.30978 0)
(0.0167724 -1.30341 0)
(0.0242 -1.30872 0)
(0.0306121 -1.31586 0)
(0.0373041 -1.32478 0)
(0.0441387 -1.33548 0)
(0.0511354 -1.34797 0)
(0.0582841 -1.36228 0)
(0.0655673 -1.37843 0)
(0.0729933 -1.39647 0)
(0.0805607 -1.41641 0)
(0.0882367 -1.43828 0)
(0.0959694 -1.46211 0)
(0.10374 -1.48792 0)
(0.111501 -1.5157 0)
(0.119105 -1.54544 0)
(0.126381 -1.57712 0)
(0.133163 -1.61065 0)
(0.139165 -1.64593 0)
(0.143918 -1.68277 0)
(0.14687 -1.72096 0)
(0.146656 -1.76041 0)
(0.00623425 -1.29014 0)
(0.0105556 -1.31154 0)
(0.011827 -1.30887 0)
(0.017078 -1.31445 0)
(0.0215532 -1.32174 0)
(0.0262111 -1.33081 0)
(0.0310054 -1.34165 0)
(0.0359207 -1.35428 0)
(0.0409101 -1.36875 0)
(0.045954 -1.3851 0)
(0.0510886 -1.40332 0)
(0.0563395 -1.42343 0)
(0.0616683 -1.44545 0)
(0.0670136 -1.46944 0)
(0.0723641 -1.49538 0)
(0.0776957 -1.52324 0)
(0.0829024 -1.55298 0)
(0.0878697 -1.58451 0)
(0.0924964 -1.61772 0)
(0.0965976 -1.65242 0)
(0.0998583 -1.68829 0)
(0.101926 -1.72495 0)
(0.101971 -1.76199 0)
(0.00406347 -1.29692 0)
(0.00666217 -1.31022 0)
(0.0070081 -1.31092 0)
(0.0100343 -1.31664 0)
(0.0126459 -1.32401 0)
(0.0153746 -1.33313 0)
(0.0181869 -1.34403 0)
(0.0210372 -1.35675 0)
(0.0238969 -1.37131 0)
(0.0267945 -1.3877 0)
(0.0297733 -1.40594 0)
(0.0328141 -1.42608 0)
(0.0358487 -1.44815 0)
(0.0388525 -1.47213 0)
(0.04186 -1.498 0)
(0.0448586 -1.52574 0)
(0.0477576 -1.5553 0)
(0.0504805 -1.58656 0)
(0.0529651 -1.61938 0)
(0.0550918 -1.65351 0)
(0.0566658 -1.6886 0)
(0.0575222 -1.72413 0)
(0.0572644 -1.75957 0)
(0.00152865 -1.30247 0)
(0.0023842 -1.31089 0)
(0.00229326 -1.3137 0)