/*--------------------------------*- C++ -*----------------------------------*\
| =========                 |                                                 |
| \\      /  F ield         | OpenFOAM: The Open Source CFD Toolbox           |
|  \\    /   O peration     | Version:  2206                                  |
|   \\  /    A nd           | Website:  www.openfoam.com                      |
|    \\/     M anipulation  |                                                 |
\*---------------------------------------------------------------------------*/
FoamFile
{
    version     2.0;
    format      ascii;
    arch        "LSB;label=32;scalar=64";
    class       volScalarField;
    location    "0.575";
    object      p;
}
// * * * * * * * * * * * * * * * * * * * * * * * * * * * * * * * * * * * * * //

dimensions      [1 -1 -2 0 0 0 0];

internalField   nonuniform List<scalar> 
2268
(
548.587
545.67
546.024
550.154
559.389
574.573
588.767
601.998
614.895
629.196
645.887
664.901
685.78
708.059
731.215
754.574
777.109
796.872
812.363
820.228
812.914
820.987
858.514
489.652
486.035
486.005
489.951
498.655
514.835
528.957
542.371
555.354
569.723
586.389
605.348
626.244
648.56
671.719
695.105
717.87
738.402
755.322
767.046
754.374
750.58
794.332
430.225
425.943
425.413
428.626
437.143
453.19
468.132
482.006
495.173
509.686
526.523
545.652
566.665
589.049
612.155
635.288
657.638
678.393
695.71
709.242
698.847
687.394
732.848
370.963
365.765
364.167
366.264
374.404
390.097
406.36
421.008
434.469
449.181
466.219
485.537
506.751
529.347
552.614
575.765
597.994
618.671
636.011
649.292
646.507
638.514
680.515
312.512
305.849
302.507
303.055
310.494
326.171
343.925
359.508
373.333
388.299
405.564
425.076
446.562
469.512
493.119
516.51
538.945
559.808
577.601
591.739
597.23
599.117
635.105
255.284
246.993
241.212
240.13
247.033
262.87
281.518
297.658
311.774
327.03
344.592
364.296
386.092
409.532
433.666
457.456
480.271
501.612
520.3
535.904
547.229
556.364
590.138
199.194
189.342
180.726
178.617
185.662
201.17
219.397
235.298
249.662
265.302
283.198
303.152
325.429
349.557
374.378
398.648
421.919
443.872
463.512
480.45
494.891
508.17
535.999
143.995
131.866
116.665
113.05
122.831
138.501
156.149
171.484
186.417
203.007
221.276
241.415
264.199
289.217
315.058
340.006
363.915
386.676
407.219
425.214
441.134
457.542
478.483
888.536
911.809
1149.53
1077.06
801.951
792.695
921.857
507.453
273.491
213.963
203.798
207.954
222.709
245.581
264.311
351.254
710.746
1180.76
1166.15
846.621
866.814
1004.82
986.03
704.761
716.377
740.231
281.437
189.11
178.991
174.551
174.118
180.383
193.62
207.284
254.571
553.128
1061.39
1109.49
760.568
749.327
837.149
835.821
602.443
613.934
382.8
208.099
183.776
176.066
169.908
167.258
170.405
178.673
186.675
205.877
317.766
802.683
1033.05
657.104
609.925
691.305
664.86
480.871
506.967
236.756
188.362
180.665
174.985
169.24
166.77
169.721
177.156
184.765
195.574
246.138
501.892
935.879
559.443
498.697
574.711
519.068
345.207
365.385
205.415
182.366
178.781
173.59
167.785
165.213
168.2
175.557
183.227
191.443
216.324
318.234
826.49
477.428
417.829
484.821
406.416
233.851
271.196
186.533
179.545
177.25
171.957
165.79
162.847
165.962
173.736
181.639
188.613
201.092
238.209
706.266
406.037
370.684
419.574
320.489
157.774
209.859
176.773
177.02
175.391
169.849
163.177
159.759
163.149
171.487
179.826
186.065
192.521
203.899
571.446
296.468
337.988
374.108
254.006
108.738
177.292
172.602
174.666
173.193
167.429
160.185
156.663
161.123
169.394
177.726
183.62
188.155
188.677
436.795
67.6207
52.6011
37.7249
32.8477
43.1837
56.6058
68.518
77.7484
89.1463
104.899
123.876
144.079
168.388
195.577
223.173
248.831
273.483
297.528
319.484
338.881
354.73
365.111
356.229
6.09931
1.16434
0.228718
0.432936
2.81731
7.14
9.30989
10.7635
13.679
18.94
26.0305
35.463
51.2251
72.1757
98.7284
125.449
152.258
178.504
202.042
223.494
244.72
265.338
286.55
-0.00552649
-0.0720665
-0.0845029
-0.0285141
-0.0747894
-0.0522683
-0.0724439
-0.0815266
-0.0873994
-0.110299
-0.125973
0.172821
2.36617
8.47173
18.7185
33.0351
49.4747
68.7997
88.3856
109.62
129.327
145.958
158.772
-0.124807
-0.135289
-0.150348
-0.236333
-0.312816
-0.250727
-0.263517
-0.278832
-0.282185
-0.26815
-0.243105
-0.226911
-0.294044
-0.318623
-0.174036
0.858963
2.82833
7.57095
17.4294
28.1216
39.3163
52.0575
58.8085
-0.276033
-0.280624
-0.278372
-0.334384
-0.334685
-0.351692
-0.376293
-0.391803
-0.403478
-0.421355
-0.436056
-0.437447
-0.446381
-0.437263
-0.401964
-0.331465
-0.263928
-0.247603
-0.226521
-0.174083
0.0444011
1.10201
3.87921
-0.446119
-0.455222
-0.450963
-0.484605
-0.508369
-0.508489
-0.516052
-0.524464
-0.530863
-0.533046
-0.531033
-0.527479
-0.544449
-0.540913
-0.518708
-0.483704
-0.440924
-0.423131
-0.376329
-0.30975
-0.222425
-0.154297
-0.190032
-0.598907
-0.601657
-0.609145
-0.628334
-0.639463
-0.648294
-0.656692
-0.664629
-0.671379
-0.677256
-0.679755
-0.676977
-0.677315
-0.660957
-0.639762
-0.611378
-0.575873
-0.546577
-0.508487
-0.45688
-0.414006
-0.390382
-0.349958
-0.757066
-0.760673
-0.764528
-0.775177
-0.783453
-0.7902
-0.796414
-0.801406
-0.804255
-0.804182
-0.799976
-0.799088
-0.797649
-0.786512
-0.775736
-0.752486
-0.726651
-0.703502
-0.674466
-0.6399
-0.607014
-0.59411
-0.578205
-0.910659
-0.912388
-0.915645
-0.922443
-0.928255
-0.933385
-0.937862
-0.941532
-0.944101
-0.945341
-0.94528
-0.940087
-0.932639
-0.921289
-0.907342
-0.89076
-0.871477
-0.852476
-0.833836
-0.820747
-0.813832
-0.839269
-0.866458
-1.06184
-1.063
-1.06521
-1.06946
-1.07346
-1.07717
-1.08031
-1.08264
-1.08384
-1.08354
-1.08152
-1.07738
-1.0707
-1.06104
-1.04876
-1.03397
-1.01777
-1.00147
-0.987557
-0.981027
-0.992386
-1.02684
-1.07113
-1.21147
-1.21212
-1.21359
-1.21631
-1.219
-1.22152
-1.22354
-1.22481
-1.22506
-1.22403
-1.22142
-1.21689
-1.21033
-1.20154
-1.19079
-1.17852
-1.16501
-1.15128
-1.13956
-1.13437
-1.14584
-1.17402
-1.19211
-1.35984
-1.36022
-1.36117
-1.36292
-1.36471
-1.36636
-1.36758
-1.36815
-1.36781
-1.36633
-1.36349
-1.35912
-1.35312
-1.34542
-1.33617
-1.32562
-1.31408
-1.30229
-1.2922
-1.28808
-1.29721
-1.32192
-1.33427
-1.50737
-1.50759
-1.50824
-1.50939
-1.51057
-1.51161
-1.51231
-1.51244
-1.5118
-1.5102
-1.50748
-1.50353
-1.49827
-1.49166
-1.48383
-1.47494
-1.46521
-1.4552
-1.44645
-1.44293
-1.45034
-1.47097
-1.49357
-1.65438
-1.65451
-1.65499
-1.65576
-1.65656
-1.65723
-1.65763
-1.65756
-1.65686
-1.6554
-1.65304
-1.6497
-1.64534
-1.63994
-1.63354
-1.62635
-1.61849
-1.61032
-1.60285
-1.59879
-1.60165
-1.61369
-1.6319
-1.80107
-1.80119
-1.80156
-1.8021
-1.80268
-1.80316
-1.80343
-1.80335
-1.80278
-1.80163
-1.7998
-1.79723
-1.79389
-1.7898
-1.78502
-1.77962
-1.77385
-1.76793
-1.7623
-1.75901
-1.75948
-1.76463
-1.77269
-1.94756
-1.94768
-1.94799
-1.94843
-1.94891
-1.94934
-1.94963
-1.94967
-1.94937
-1.94866
-1.94748
-1.94578
-1.94358
-1.94089
-1.9378
-1.93443
-1.931
-1.92786
-1.92568
-1.92457
-1.92591
-1.93065
-1.93915
-2.0939
-2.09403
-2.09433
-2.09475
-2.09523
-2.0957
-2.09611
-2.09638
-2.09646
-2.09628
-2.09582
-2.09508
-2.09406
-2.09283
-2.09147
-2.09014
-2.08907
-2.08855
-2.08906
-2.09114
-2.09569
-2.10349
-2.11583
-2.24012
-2.24027
-2.24058
-2.24103
-2.24157
-2.24217
-2.24278
-2.24336
-2.24387
-2.24429
-2.2446
-2.24484
-2.24503
-2.24526
-2.24564
-2.24634
-2.2476
-2.24973
-2.25319
-2.25862
-2.26687
-2.27878
-2.29568
-2.38622
-2.38638
-2.38673
-2.38725
-2.38791
-2.38868
-2.38954
-2.39047
-2.39145
-2.39249
-2.39359
-2.39481
-2.39619
-2.39785
-2.3999
-2.40256
-2.40606
-2.41074
-2.41706
-2.42566
-2.43733
-2.45296
-2.47381
-2.53217
-2.53235
-2.53275
-2.53337
-2.53416
-2.53514
-2.53628
-2.53758
-2.53905
-2.54071
-2.54259
-2.54475
-2.54728
-2.55028
-2.55391
-2.55837
-2.56394
-2.57095
-2.57985
-2.59125
-2.60587
-2.62452
-2.64831
-2.67794
-2.67815
-2.67861
-2.67933
-2.68028
-2.68147
-2.6829
-2.68458
-2.68653
-2.68879
-2.69141
-2.69446
-2.69804
-2.70227
-2.70733
-2.71343
-2.72084
-2.72989
-2.74103
-2.75478
-2.77183
-2.79288
-2.81881
-2.82351
-2.82374
-2.82425
-2.82508
-2.82619
-2.8276
-2.82931
-2.83136
-2.83377
-2.83659
-2.83989
-2.84374
-2.84827
-2.8536
-2.85992
-2.86744
-2.87644
-2.88722
-2.90021
-2.91589
-2.93483
-2.95767
-2.98514
-2.96882
-2.96907
-2.96964
-2.97058
-2.97184
-2.97346
-2.97544
-2.97782
-2.98065
-2.98397
-2.98787
-2.99244
-2.99779
-3.00407
-3.01146
-3.02018
-3.03048
-3.04268
-3.05715
-3.07431
-3.09469
-3.11881
-3.14729
-3.11385
-3.11411
-3.11473
-3.11578
-3.11718
-3.11898
-3.1212
-3.12388
-3.12707
-3.13084
-3.13525
-3.14042
-3.14646
-3.15353
-3.1618
-3.17148
-3.18282
-3.19611
-3.21169
-3.22995
-3.25133
-3.27629
-3.30535
-3.25856
-3.25882
-3.25949
-3.26062
-3.26214
-3.2641
-3.26653
-3.26946
-3.27296
-3.27709
-3.28193
-3.28759
-3.29418
-3.30187
-3.31081
-3.32122
-3.33333
-3.34741
-3.36376
-3.38275
-3.40474
-3.43015
-3.45942
-3.4029
-3.40318
-3.40388
-3.40508
-3.4067
-3.40879
-3.41138
-3.41451
-3.41825
-3.42266
-3.42783
-3.43386
-3.44087
-3.44901
-3.45843
-3.46935
-3.48197
-3.49655
-3.51336
-3.53273
-3.55498
-3.58047
-3.60959
-3.54686
-3.54716
-3.54786
-3.54912
-3.5508
-3.55299
-3.5557
-3.55898
-3.5629
-3.56751
-3.57291
-3.57919
-3.58648
-3.5949
-3.60463
-3.61583
-3.62873
-3.64353
-3.66051
-3.67994
-3.70212
-3.72736
-3.75599
-3.69037
-3.69076
-3.6914
-3.69271
-3.69443
-3.69668
-3.69947
-3.70284
-3.70687
-3.7116
-3.71713
-3.72355
-3.73098
-3.73954
-3.74939
-3.76069
-3.77362
-3.78841
-3.80528
-3.82449
-3.84629
-3.87096
-3.89878
-3.83342
-3.83392
-3.83448
-3.83583
-3.83756
-3.83984
-3.84266
-3.84607
-3.85014
-3.85492
-3.86049
-3.86694
-3.87438
-3.88294
-3.89274
-3.90394
-3.91672
-3.93127
-3.94778
-3.9665
-3.98765
-4.01145
-4.03814
-3.97601
-3.97659
-3.97707
-3.97847
-3.98018
-3.98245
-3.98526
-3.98867
-3.99271
-3.99745
-4.00298
-4.00936
-4.0167
-4.02511
-4.03472
-4.04566
-4.0581
-4.07219
-4.08814
-4.10613
-4.12639
-4.14908
-4.17426
-4.11816
-4.11878
-4.11919
-4.12062
-4.12228
-4.12453
-4.12729
-4.13063
-4.13459
-4.13923
-4.14461
-4.15083
-4.15796
-4.16611
-4.17539
-4.18592
-4.19785
-4.21132
-4.22649
-4.24355
-4.26271
-4.28425
-4.30726
-4.25985
-4.26049
-4.26084
-4.2623
-4.26388
-4.26607
-4.26874
-4.27196
-4.27578
-4.28025
-4.28543
-4.29139
-4.29822
-4.306
-4.31482
-4.32482
-4.33609
-4.34877
-4.363
-4.37893
-4.3967
-4.41646
-4.43817
-4.40111
-4.40173
-4.40208
-4.40352
-4.40501
-4.4071
-4.40964
-4.4127
-4.41633
-4.42056
-4.42546
-4.43109
-4.43752
-4.44483
-4.4531
-4.46243
-4.47293
-4.48469
-4.49784
-4.51249
-4.52876
-4.54676
-4.56658
-4.54196
-4.54249
-4.54297
-4.5443
-4.54567
-4.54765
-4.55002
-4.55289
-4.55627
-4.56021
-4.56477
-4.56999
-4.57594
-4.58269
-4.59031
-4.59889
-4.6085
-4.61924
-4.63119
-4.64446
-4.65913
-4.67529
-4.69301
-4.68246
-4.6829
-4.68344
-4.68466
-4.68593
-4.68776
-4.68993
-4.69255
-4.69564
-4.69925
-4.7034
-4.70815
-4.71356
-4.71967
-4.72656
-4.7343
-4.74294
-4.75256
-4.76324
-4.77504
-4.78804
-4.8023
-4.81783
-4.82265
-4.82299
-4.82355
-4.82465
-4.82579
-4.82746
-4.82939
-4.83174
-4.8345
-4.83771
-4.84141
-4.84564
-4.85044
-4.85586
-4.86195
-4.86877
-4.87638
-4.88482
-4.89416
-4.90444
-4.91571
-4.92803
-4.94138
-4.96255
-4.96281
-4.96334
-4.96431
-4.96531
-4.96677
-4.96845
-4.97049
-4.97289
-4.97568
-4.97888
-4.98253
-4.98667
-4.99134
-4.99658
-5.00244
-5.00895
-5.01616
-5.02412
-5.03284
-5.04238
-5.05274
-5.06391
-5.10223
-5.10241
-5.10289
-5.10372
-5.10455
-5.10579
-5.10719
-5.1089
-5.1109
-5.11323
-5.11589
-5.11893
-5.12237
-5.12624
-5.13059
-5.13543
-5.14082
-5.14676
-5.1533
-5.16046
-5.16825
-5.17668
-5.18574
-5.24176
-5.24187
-5.24227
-5.24294
-5.24359
-5.24459
-5.24569
-5.24705
-5.24863
-5.25046
-5.25256
-5.25495
-5.25766
-5.2607
-5.26412
-5.26792
-5.27214
-5.27679
-5.28189
-5.28747
-5.29351
-5.30005
-5.30702
-5.38115
-5.38119
-5.3815
-5.38199
-5.38245
-5.38318
-5.38397
-5.38496
-5.3861
-5.38742
-5.38894
-5.39066
-5.39261
-5.39481
-5.39727
-5.4
-5.40303
-5.40637
-5.41003
-5.41401
-5.41833
-5.42298
-5.42792
-5.52039
-5.52038
-5.52058
-5.52088
-5.52115
-5.5216
-5.52208
-5.52268
-5.52337
-5.52417
-5.52509
-5.52613
-5.52731
-5.52863
-5.53012
-5.53177
-5.53359
-5.5356
-5.5378
-5.5402
-5.54279
-5.54557
-5.54853
-5.65953
-5.65949
-5.65957
-5.65967
-5.65976
-5.65992
-5.66007
-5.66028
-5.66051
-5.66078
-5.66108
-5.66144
-5.66183
-5.66227
-5.66277
-5.66332
-5.66393
-5.66461
-5.66534
-5.66614
-5.66701
-5.66793
-5.66892
303.205
315.447
340.247
342.669
294.993
297.962
299.966
301.415
167.579
174.59
183.269
192.331
72.189
85.6342
98.4633
107.443
7.79682
11.0478
12.7707
14.2566
-0.309493
-0.410589
-0.428575
-0.237364
-0.346857
-0.387173
-0.396993
-0.355016
-0.562854
-0.552222
-0.52506
-0.449984
-0.854708
-0.823107
-0.764366
-0.663217
-1.07307
-1.04967
-0.995672
-0.88764
-1.18894
-1.1764
-1.13209
-1.04267
-1.31695
-1.30116
-1.26789
-1.20279
-1.49886
-1.49557
-1.48302
-1.45257
-1.64407
-1.65093
-1.65694
-1.65807
-1.78045
-1.78714
-1.79692
-1.81229
-1.9492
-1.95748
-1.9688
-1.98609
-2.13028
-2.14198
-2.1569
-2.17625
-2.31387
-2.32796
-2.34495
-2.3655
-2.49469
-2.51031
-2.52834
-2.54913
-2.6709
-2.68735
-2.70588
-2.72663
-2.84249
-2.85938
-2.87806
-2.89862
-3.0095
-3.02661
-3.0453
-3.06564
-3.17203
-3.18923
-3.20783
-3.22791
-3.33023
-3.34738
-3.3658
-3.38556
-3.4842
-3.50119
-3.51933
-3.53871
-3.63404
-3.65074
-3.66848
-3.68735
-3.77989
-3.79616
-3.81339
-3.83165
-3.9219
-3.9376
-3.95419
-3.97173
-4.06026
-4.07525
-4.09105
-4.10772
-4.19517
-4.20932
-4.22421
-4.23988
-4.3269
-4.34011
-4.35396
-4.36849
-4.45604
-4.46808
-4.4807
-4.49391
-4.58269
-4.59351
-4.60481
-4.61661
-4.70729
-4.71685
-4.72679
-4.73713
-4.83027
-4.83855
-4.84714
-4.85603
-4.95199
-4.95903
-4.96629
-4.97378
-5.07281
-5.07862
-5.08461
-5.09076
-5.19285
-5.19754
-5.20233
-5.20724
-5.31246
-5.31603
-5.31967
-5.32337
-5.43177
-5.4343
-5.43688
-5.43952
-5.55082
-5.55232
-5.55386
-5.55542
-5.66968
-5.67018
-5.67069
-5.6712
321.205
317.139
316.193
175.738
65.5733
156.7
168.99
171.317
169.663
163.853
156.294
154.273
159.725
167.11
174.681
180.353
183.853
181.206
290.298
293.992
272.848
253.281
119.329
80.1553
154.887
166.828
168.3
166.308
161.015
154.448
154.315
159.773
165.547
171.625
177.254
179.914
178.732
221.535
205.271
209.625
203.93
86.6749
49.2567
156.85
167.554
167.389
165.24
160.495
155.168
155.265
159.986
164.989
170.019
174.812
177.219
178.053
201.407
119.972
142.475
181.427
124.503
123.503
161.43
170.392
168.44
166.258
161.838
157.598
157.317
160.704
165.412
170.007
173.612
175.779
179.184
208.198
22.1424
47.7306
123.009
172.448
183.046
180.001
174.59
170.99
168.553
164.676
161.079
160.605
162.999
166.853
170.787
173.758
176.269
187.48
231.333
0.252523
4.61606
62.6953
200.051
211.359
205.129
182.51
173.878
170.986
167.846
164.943
164.345
165.891
168.776
172.117
175.462
182.732
215.912
279.59
-0.237338
-0.409355
4.96522
91.6298
188.129
244.252
194.511
176.765
173.025
170.676
168.797
168.666
169.645
170.815
173.255
178.819
194.986
283.403
368.295
-0.28208
-0.169731
-0.0902087
12.5173
90.2977
301.662
197.493
177.092
173.036
171.853
172.9
174.342
174.638
173.572
173.71
183.611
221.051
353.452
474.49
-0.480443
-0.361331
-0.271151
-0.296077
8.65907
76.8751
142.553
150.269
161.077
170.735
178.582
181.592
180.779
179.061
172.452
173.584
252.468
381.164
535.322
-0.672175
-0.540482
-0.472601
-0.44435
-0.497615
5.70975
33.1357
70.6539
96.8888
136.372
186.11
192.48
187.075
178.066
186.525
187.78
215.992
307.724
477.367
-0.876807
-0.816939
-0.815095
-0.721192
-0.631861
-1.78549
-2.67562
0.0416856
28.4851
126.927
241.411
218.967
219.555
222.881
173.772
131.227
145.928
204.172
302.932
-1.07303
-1.02253
-1.1353
-1.3274
-1.64532
-2.39287
-5.78059
-13.1608
-1.16542
118.708
280.048
326.012
275.578
227.589
151.76
92.0186
91.8266
150.036
197.983
-1.38458
-1.36357
-1.57442
-2.08156
-2.58409
-3.0283
-3.91918
-2.57735
11.8798
39.8361
58.309
42.6799
74.2569
128.899
123.884
97.5791
110.792
135.242
169.086
-1.64932
-1.69885
-1.99846
-2.54359
-2.93471
-3.03645
-2.7644
-1.6852
-0.922051
0.0600018
1.92131
3.5552
9.06109
26.4495
65.3475
83.9379
107.461
140.691
161.085
-1.84125
-1.92874
-2.19646
-2.62234
-2.93607
-2.87822
-2.4451
-1.8992
-1.50445
-1.1488
-0.588102
0.574146
2.59074
6.50318
13.6265
28.842
81.3105
128.764
149.49
-2.02226
-2.10923
-2.28908
-2.53722
-2.74545
-2.69248
-2.42401
-2.12694
-1.88384
-1.61911
-1.39782
-0.741879
0.59915
3.61504
9.23747
10.2159
57.3382
110.909
140.623
-2.21459
-2.29442
-2.41673
-2.56205
-2.68123
-2.68279
-2.553
-2.37816
-2.26885
-2.28493
-2.4477
-2.50046
-2.57189
1.87327
12.0925
23.2331
62.2569
118.852
138.776
-2.40529
-2.48068
-2.57848
-2.6838
-2.7684
-2.79259
-2.75314
-2.68699
-2.65266
-2.74181
-2.98018
-3.15902
-3.02115
4.12005
9.37988
32.5899
76.4729
150.192
139.238
-2.58847
-2.65895
-2.74362
-2.83189
-2.90662
-2.94956
-2.96502
-2.97954
-3.02515
-3.15183
-3.42617
-3.66059
-2.72129
3.33001
6.69708
29.5529
63.7987
124.259
127.575
-2.76507
-2.83116
-2.90768
-2.98784
-3.06219
-3.12291
-3.17551
-3.24232
-3.358
-3.56051
-3.96553
-4.50219
-4.95525
-3.60962
0.957656
13.975
30.3224
66.9984
78.9554
-2.93619
-2.99922
-3.07132
-3.14845
-3.22587
-3.3017
-3.38208
-3.48266
-3.64538
-3.89833
-4.36778
-5.04435
-5.53038
-5.57286
-5.21603
-2.71028
5.55459
28.3664
43.1524
-3.10244
-3.16325
-3.23278
-3.30894
-3.38919
-3.47409
-3.57035
-3.69454
-3.88005
-4.16614
-4.63298
-5.31971
-5.75935
-5.78421
-5.60949
-5.00506
-2.53538
8.55308
22.9384
-3.26399
-3.323
-3.39057
-3.46579
-3.54807
-3.63911
-3.74588
-3.88359
-4.0782
-4.36428
-4.78256
-5.39406
-5.87208
-5.98677
-5.86709
-5.52849
-4.55061
-2.1208
19.6049
-3.4209
-3.47815
-3.5438
-3.6178
-3.70084
-3.79554
-3.90849
-4.05186
-4.24354
-4.50756
-4.85791
-5.3505
-5.84649
-6.08152
-6.03273
-5.74979
-5.3019
-4.18761
21.7394
-3.57322
-3.62855
-3.69218
-3.7645
-3.8472
-3.94379
-4.05982
-4.2033
-4.3839
-4.61474
-4.89923
-5.27097
-5.69186
-5.96389
-6.00052
-5.75753
-5.46897
-4.62841
9.91601
-3.72084
-3.77435
-3.83567
-3.90577
-3.98739
-4.08465
-4.20164
-4.34204
-4.50805
-4.70176
-4.92072
-5.17497
-5.46209
-5.68355
-5.7479
-5.63351
-5.40191
-5.13169
-1.52058
-3.86395
-3.91543
-3.9742
-4.04165
-4.12162
-4.21872
-4.3357
-4.47262
-4.62422
-4.77988
-4.93217
-5.07898
-5.22386
-5.35121
-5.41411
-5.39709
-5.24443
-4.95023
-3.3648
-4.00266
-4.05184
-4.10775
-4.17216
-4.24997
-4.34682
-4.46365
-4.59755
-4.73736
-4.85629
-4.94518
-5.00381
-5.03617
-5.07494
-5.10709
-5.16038
-5.07601
-5.01808
-4.46865
-4.13713
-4.18365
-4.23636
-4.29705
-4.3712
-4.46443
-4.57822
-4.71092
-4.84141
-4.92832
-4.96329
-4.95675
-4.91464
-4.88813
-4.89823
-4.95823
-4.77203
-4.59032
-3.00673
-4.26749
-4.31099
-4.36
-4.41604
-4.48444
-4.56896
-4.67294
-4.79893
-4.92054
-4.98377
-4.97897
-4.93229
-4.85264
-4.79788
-4.812
-4.79586
-4.56597
-3.39541
-0.83057
-4.394
-4.43396
-4.47865
-4.52906
-4.59049
-4.65885
-4.74642
-4.85491
-4.96472
-5.01318
-4.98064
-4.92213
-4.84195
-4.79863
-4.83684
-4.66135
-4.12061
-2.31366
0.624289
-4.51705
-4.55299
-4.59265
-4.63618
-4.68639
-4.74229
-4.80907
-4.88714
-4.965
-5.0005
-4.97901
-4.92516
-4.86771
-4.86211
-4.89837
-4.83337
-3.91527
-2.14669
1.05843
-4.6372
-4.66887
-4.7033
-4.74021
-4.7801
-4.82196
-4.86585
-4.91559
-4.96105
-4.98444
-4.9773
-4.95265
-4.921
-4.93296
-4.94482
-4.92983
-4.35466
-3.03411
-0.238479
-4.7551
-4.78247
-4.81178
-4.84259
-4.87414
-4.9051
-4.93434
-4.96327
-4.98736
-5.00258
-5.00863
-5.00895
-5.00015
-5.00036
-4.9901
-5.0568
-4.82621
-4.39452
-2.66388
-4.87142
-4.89459
-4.91905
-4.94423
-4.96935
-4.99289
-5.01302
-5.03071
-5.04623
-5.05853
-5.06955
-5.07379
-5.06878
-5.06709
-5.06258
-5.10037
-5.05359
-4.95895
-4.54285
-4.9867
-5.00589
-5.02589
-5.04603
-5.0658
-5.08387
-5.09896
-5.11051
-5.1204
-5.12976
-5.13647
-5.13595
-5.12906
-5.13232
-5.13507
-5.15376
-5.1021
-5.04926
-4.58934
-5.10135
-5.11684
-5.1328
-5.14852
-5.16368
-5.17718
-5.1881
-5.1965
-5.20279
-5.20799
-5.21006
-5.20536
-5.19803
-5.20177
-5.21702
-5.25806
-5.22573
-5.21217
-4.70188
-5.21568
-5.22773
-5.24009
-5.25196
-5.26308
-5.27284
-5.27983
-5.28573
-5.29054
-5.29385
-5.29577
-5.28965
-5.2803
-5.27653
-5.31422
-5.40965
-5.44213
-5.55705
-4.79686
-5.32992
-5.33872
-5.3479
-5.35643
-5.36413
-5.37112
-5.37463
-5.37826
-5.38192
-5.3843
-5.38442
-5.38426
-5.36798
-5.35005
-5.39777
-5.48701
-5.59049
-5.99744
-6.56038
-5.44417
-5.44982
-5.45625
-5.46194
-5.4668
-5.47166
-5.47312
-5.47505
-5.47851
-5.48011
-5.4718
-5.47326
-5.45323
-5.43622
-5.4752
-5.44583
-5.48732
-5.16342
-3.81768
-5.55812
-5.56137
-5.56517
-5.56831
-5.57087
-5.5735
-5.57387
-5.57505
-5.57934
-5.57779
-5.58647
-5.62928
-5.57033
-5.58333
-5.63433
-5.56512
-5.71906
-5.24142
-4.40328
-5.67209
-5.67317
-5.67434
-5.67534
-5.67616
-5.67687
-5.67772
-5.67749
-5.69119
-5.67897
-5.72525
-5.82733
-5.71133
-5.79765
-5.83988
-5.86138
-6.08717
-6.7643
-9.97905
)
;

boundaryField
{
    leftWall
    {
        type            calculated;
        value           nonuniform List<scalar> 
50
(
548.587
489.652
430.225
370.963
312.512
255.284
199.194
143.995
67.6207
6.09931
-0.00552649
-0.124807
-0.276033
-0.446119
-0.598907
-0.757066
-0.910659
-1.06184
-1.21147
-1.35984
-1.50737
-1.65438
-1.80107
-1.94756
-2.0939
-2.24012
-2.38622
-2.53217
-2.67794
-2.82351
-2.96882
-3.11385
-3.25856
-3.4029
-3.54686
-3.69037
-3.83342
-3.97601
-4.11816
-4.25985
-4.40111
-4.54196
-4.68246
-4.82265
-4.96255
-5.10223
-5.24176
-5.38115
-5.52039
-5.65953
)
;
    }
    rightWall
    {
        type            calculated;
        value           nonuniform List<scalar> 
50
(
1166.15
1109.49
1033.05
935.879
826.49
706.266
571.446
436.795
290.298
221.535
201.407
208.198
231.333
279.59
368.295
474.49
535.322
477.367
302.932
197.983
169.086
161.085
149.49
140.623
138.776
139.238
127.575
78.9554
43.1524
22.9384
19.6049
21.7394
9.91601
-1.52058
-3.3648
-4.46865
-3.00673
-0.83057
0.624289
1.05843
-0.238479
-2.66388
-4.54285
-4.58934
-4.70188
-4.79686
-6.56038
-3.81768
-4.40328
-9.97905
)
;
    }
    lowerWall
    {
        type            calculated;
        value           nonuniform List<scalar> 
62
(
578.016
575.099
575.453
579.583
588.818
604.002
618.196
631.428
644.324
658.625
675.316
694.33
715.209
737.489
760.645
784.003
806.538
826.301
840.787
846.862
840.848
850.376
887.902
858.514
794.332
732.848
680.515
635.105
590.138
535.999
478.483
365.8
378.044
402.843
405.265
888.536
846.621
760.568
657.104
559.443
477.428
406.037
296.468
895.846
919.202
1168.15
1089.96
806.004
796.771
938.708
524.632
290.678
232.519
223.869
229.239
244.737
268.045
287.138
374.377
734.097
1204.29
1187.22
)
;
    }
    atmosphere
    {
        type            calculated;
        value           nonuniform List<scalar> 
46
(
-5.72904
-5.72904
-5.72904
-5.72904
-5.72904
-5.72904
-5.72904
-5.72904
-5.72904
-5.72904
-5.72904
-5.72904
-5.72904
-5.72904
-5.72904
-5.72904
-5.72904
-5.72904
-5.72904
-5.72904
-5.72904
-5.72904
-5.72904
-5.72904
-5.72904
-5.72904
-5.72904
-5.72904
-5.72904
-5.72904
-5.72904
-5.72904
-5.72904
-5.72928
-5.73226
-5.73811
-5.73222
-5.80979
-5.92787
-5.79799
-5.88921
-5.92847
-5.89272
-6.06911
-6.74431
-14.584
)
;
    }
    defaultFaces
    {
        type            empty;
    }
}


// ************************************************************************* //
