/*--------------------------------*- C++ -*----------------------------------*\
| =========                 |                                                 |
| \\      /  F ield         | OpenFOAM: The Open Source CFD Toolbox           |
|  \\    /   O peration     | Version:  2206                                  |
|   \\  /    A nd           | Website:  www.openfoam.com                      |
|    \\/     M anipulation  |                                                 |
\*---------------------------------------------------------------------------*/
FoamFile
{
    version     2.0;
    format      ascii;
    arch        "LSB;label=32;scalar=64";
    class       volScalarField;
    location    "0.575";
    object      p_rgh;
}
// * * * * * * * * * * * * * * * * * * * * * * * * * * * * * * * * * * * * * //

dimensions      [1 -1 -2 0 0 0 0];

internalField   nonuniform List<scalar> 
2268
(
578.016
575.099
575.453
579.583
588.818
604.002
618.196
631.428
644.324
658.625
675.316
694.33
715.209
737.489
760.645
784.003
806.538
826.301
840.787
846.862
840.848
850.376
887.902
577.94
574.323
574.293
578.239
586.943
603.123
617.245
630.659
643.642
658.012
674.677
693.636
714.532
736.848
760.007
783.393
806.159
826.691
843.473
848.332
835.719
837.875
882.498
577.372
573.09
572.56
575.773
584.289
600.337
615.279
629.153
642.319
656.833
673.67
692.799
713.812
736.195
759.302
782.435
804.785
825.54
842.857
855.679
834.422
826.497
879.726
576.969
571.771
570.173
572.269
580.409
596.103
612.365
627.013
640.474
655.187
672.224
691.542
712.756
735.353
758.619
781.771
804
824.677
842.017
855.297
836.347
830.866
885.475
577.376
570.714
567.371
567.919
575.359
591.035
608.789
624.372
638.197
653.163
670.428
689.94
711.426
734.376
757.983
781.374
803.809
824.672
842.466
856.603
857.014
860.976
899.646
579.007
570.716
564.935
563.853
570.756
586.593
605.241
621.381
635.497
650.753
668.315
688.019
709.815
733.255
757.389
781.179
803.994
825.335
844.023
859.627
870.952
880.086
913.831
581.776
571.924
563.308
561.198
568.243
583.751
601.978
617.879
632.244
647.883
665.78
685.734
708.011
732.139
756.96
781.23
804.501
826.453
846.094
863.032
877.472
890.752
918.53
585.435
573.3
558.062
552.322
562.154
579.795
597.562
612.913
627.855
644.447
662.717
682.855
705.639
730.657
756.498
781.447
805.356
828.117
848.66
866.654
882.575
898.982
919.866
895.846
919.202
1168.15
1089.96
806.004
796.771
938.708
524.632
290.678
232.519
223.869
229.239
244.737
268.045
287.138
374.377
734.097
1204.29
1187.22
893.936
916.757
1093.11
1053.81
718.098
728.604
787.766
293.429
194.684
188.905
189.413
193.182
203.705
222.198
244.307
304.318
617.306
1135.08
1183.65
873.443
896.47
984.292
981.595
655.386
634.037
440.136
208.391
183.949
176.235
170.089
167.461
170.637
178.973
187.172
207.088
347.772
898.604
1158.74
854.548
815.925
897.305
870.86
601.027
534.457
253.343
188.586
180.886
175.211
169.518
167.048
169.999
177.479
185.184
196.263
247.808
571.611
1112.23
824.289
763.546
839.568
783.924
537.911
402.707
205.863
182.651
179.061
173.874
168.077
165.517
168.526
175.914
183.644
191.98
217.337
370.639
1053.72
801.125
741.526
808.535
730.129
484.596
317.544
186.937
179.887
177.592
172.3
166.138
163.285
166.571
174.367
182.229
189.2
201.876
284.072
984.578
788.536
753.174
802.144
703.056
452.498
261.59
177.23
177.424
175.793
170.253
163.62
160.581
164.087
172.421
180.566
186.694
193.204
241.835
901.166
737.799
779.318
815.528
695.423
441.01
234.651
173.421
175.131
173.653
167.893
160.85
157.747
162.206
170.475
178.765
184.327
188.85
222.169
817.849
538.502
455.342
360.654
316.885
340.578
400.9
477.796
532.023
575.391
617.3
652.835
677.546
701.855
729.044
756.64
782.298
806.95
830.995
852.951
872.348
888.198
898.578
889.664
69.2382
11.9153
0.892846
1.10587
38.2385
84.566
108.079
124.501
158.703
219.241
299.771
400.075
520.163
652.237
757.39
784.111
810.919
837.165
860.703
882.156
903.382
924
945.207
0.77833
0.711792
0.699509
0.755342
0.709067
0.731588
0.711412
0.70233
0.696457
0.673559
0.657905
0.957024
42.0685
122.699
254.971
415.692
581.003
780.419
869.351
892.546
913.181
929.81
942.618
0.784244
0.773812
0.758708
0.672718
0.596234
0.658324
0.645534
0.630218
0.626866
0.640901
0.665948
0.682144
0.615013
0.590441
0.735228
18.7103
46.6627
122.69
275.47
437.086
600.469
744.698
800.588
0.758212
0.753622
0.755873
0.699861
0.699561
0.682553
0.657952
0.642442
0.630767
0.612904
0.598248
0.596806
0.587871
0.59699
0.632296
0.703024
0.771298
0.788246
0.809534
0.863588
1.08619
22.1744
75.4495
0.71332
0.704218
0.708476
0.674835
0.651071
0.65095
0.643387
0.634976
0.628594
0.626672
0.628768
0.632158
0.615
0.618533
0.670246
0.725378
0.756256
0.742803
0.790896
0.85733
0.945818
1.01547
0.981208
0.685728
0.682977
0.67549
0.6563
0.645172
0.63634
0.627943
0.620005
0.613283
0.607749
0.605279
0.607999
0.607321
0.623679
0.652763
0.723316
0.719535
0.744881
0.820699
0.930991
1.00938
1.03702
0.997227
0.652762
0.649155
0.645301
0.634652
0.626376
0.619629
0.613414
0.608423
0.605575
0.605824
0.610292
0.61093
0.612182
0.62332
0.634093
0.657343
0.683178
0.706328
0.795339
1.11963
1.2161
1.22895
1.21499
0.624364
0.622635
0.619378
0.61258
0.606768
0.601639
0.597161
0.593491
0.590923
0.589692
0.589777
0.594937
0.602391
0.613751
0.627689
0.644263
0.663546
0.682548
0.741102
0.834526
1.17106
1.14574
1.11844
0.598375
0.597217
0.595005
0.590755
0.586756
0.583045
0.57991
0.577581
0.576376
0.576674
0.578697
0.582838
0.589518
0.599197
0.61147
0.626253
0.642449
0.659215
0.67439
0.679312
0.84161
1.11994
0.920534
0.573945
0.573289
0.571826
0.569101
0.566412
0.563896
0.561873
0.560601
0.560349
0.561381
0.563993
0.56853
0.575086
0.583884
0.594623
0.606889
0.620401
0.634135
0.645851
0.65104
0.642806
1.02956
1.13189
0.550767
0.550386
0.549436
0.547683
0.545894
0.544249
0.543024
0.542459
0.5428
0.544277
0.547118
0.551492
0.557496
0.565186
0.574439
0.58499
0.596528
0.608316
0.618408
0.622532
0.613455
0.694113
1.15971
0.528428
0.528215
0.527557
0.526416
0.525235
0.524187
0.523491
0.52336
0.524
0.525599
0.52832
0.532275
0.537536
0.544144
0.551973
0.560865
0.570591
0.580605
0.589347
0.592869
0.585463
0.583407
0.721393
0.506614
0.506488
0.506002
0.505234
0.504439
0.503761
0.50337
0.503439
0.504132
0.505597
0.507958
0.511298
0.515658
0.521061
0.527451
0.534651
0.54251
0.550673
0.558148
0.562205
0.559351
0.547308
0.529101
0.485118
0.485001
0.484633
0.484087
0.483511
0.483026
0.482759
0.482844
0.483407
0.48456
0.486392
0.488964
0.4923
0.496391
0.501175
0.506568
0.512339
0.518262
0.523887
0.527176
0.526714
0.521561
0.513503
0.463828
0.463706
0.463393
0.462952
0.462472
0.462043
0.461758
0.461717
0.462012
0.462722
0.463907
0.465601
0.467808
0.470496
0.47359
0.476959
0.480383
0.48352
0.485706
0.486819
0.485473
0.480731
0.472233
0.442679
0.442548
0.442249
0.441832
0.441353
0.440876
0.440468
0.440196
0.440123
0.440299
0.440755
0.441501
0.442519
0.443754
0.44511
0.446438
0.447513
0.448027
0.447519
0.445441
0.440894
0.433094
0.420752
0.421652
0.421506
0.421192
0.420744
0.420199
0.4196
0.418991
0.418414
0.417905
0.417489
0.417171
0.416936
0.416743
0.416517
0.416138
0.415436
0.414179
0.412048
0.408587
0.403152
0.394905
0.382999
0.366093
0.40075
0.400585
0.400237
0.399719
0.399062
0.398291
0.397431
0.396502
0.395518
0.394481
0.393374
0.39216
0.390775
0.389124
0.387066
0.384413
0.380911
0.376227
0.369904
0.36131
0.34964
0.334009
0.313161
0.379994
0.379808
0.37941
0.378798
0.378001
0.377027
0.375887
0.374584
0.373112
0.371452
0.36957
0.367409
0.364887
0.361888
0.358258
0.353792
0.348225
0.341214
0.33231
0.320915
0.306298
0.287639
0.263857
0.359413
0.359205
0.358751
0.358032
0.357079
0.355889
0.354459
0.352778
0.350824
0.348564
0.345946
0.342897
0.339321
0.335086
0.330026
0.323926
0.316519
0.307464
0.296331
0.282574
0.265531
0.244483
0.218548
0.339043
0.338815
0.338302
0.337471
0.336359
0.334952
0.333238
0.331192
0.328783
0.325962
0.322666
0.318811
0.314286
0.308951
0.302631
0.295109
0.286116
0.275327
0.262341
0.246667
0.227723
0.204877
0.177416
0.318922
0.318678
0.318106
0.317166
0.315902
0.314289
0.312307
0.309925
0.307099
0.303773
0.299874
0.295309
0.289958
0.283676
0.276284
0.267566
0.257262
0.245063
0.2306
0.213434
0.19306
0.168932
0.140457
0.299089
0.298832
0.298207
0.297166
0.295762
0.293963
0.291742
0.28906
0.28587
0.282106
0.277689
0.27252
0.266477
0.259411
0.251144
0.241464
0.230124
0.216833
0.201253
0.182994
0.161615
0.136648
0.107587
0.279579
0.279311
0.278643
0.277514
0.275991
0.274031
0.271606
0.268672
0.265175
0.261047
0.256206
0.250549
0.243953
0.236269
0.227324
0.216915
0.204805
0.190726
0.174371
0.155389
0.133394
0.107982
0.0787172
0.260427
0.260146
0.259451
0.25825
0.256632
0.254542
0.251953
0.248817
0.245078
0.240666
0.235497
0.229469
0.22246
0.214324
0.204896
0.193982
0.18136
0.166782
0.149968
0.130605
0.108352
0.0828596
0.053744
0.241668
0.241361
0.240664
0.239406
0.237721
0.235535
0.232825
0.229542
0.225627
0.221012
0.215614
0.209332
0.202047
0.193621
0.183897
0.172691
0.159798
0.144991
0.128013
0.108583
0.0864044
0.0611679
0.0325362
0.223352
0.222964
0.222315
0.22101
0.219288
0.217041
0.214253
0.210876
0.206853
0.202117
0.196587
0.190165
0.182738
0.174176
0.164331
0.153034
0.140095
0.125305
0.108435
0.0892305
0.0674291
0.0427637
0.0149404
0.205496
0.204998
0.204435
0.203084
0.201355
0.199078
0.196257
0.192841
0.188776
0.183997
0.178427
0.171974
0.164531
0.155978
0.146178
0.134974
0.122193
0.107648
0.0911304
0.0724139
0.0512664
0.0274642
0.000777131
0.188097
0.187515
0.187035
0.185639
0.183932
0.181657
0.178845
0.175443
0.171399
0.166654
0.161133
0.154751
0.14741
0.138999
0.129392
0.118448
0.106012
0.0919154
0.0759707
0.0579765
0.037723
0.0150234
-0.0101484
0.171148
0.170524
0.170111
0.168679
0.167021
0.164776
0.162016
0.158678
0.154718
0.150077
0.144688
0.138473
0.131341
0.123193
0.113913
0.103379
0.0914523
0.0779845
0.0628106
0.0457496
0.026591
0.00505508
-0.0179531
0.154645
0.154004
0.153653
0.152197
0.150613
0.148426
0.145758
0.142534
0.138715
0.134247
0.129067
0.123105
0.116279
0.108502
0.0996725
0.0896805
0.0784085
0.0657263
0.0514949
0.0355685
0.0177993
-0.00196194
-0.0236713
0.138586
0.137961
0.137613
0.136172
0.134687
0.132589
0.130052
0.126988
0.123363
0.119129
0.114229
0.1086
0.10217
0.0948626
0.0865901
0.0772572
0.0667639
0.0549987
0.041849
0.0272005
0.0109346
-0.007071
-0.0268899
0.122931
0.1224
0.12192
0.12059
0.119212
0.117232
0.114865
0.112
0.108619
0.104676
0.100121
0.0948977
0.0889451
0.0821945
0.0745727
0.0659987
0.0563864
0.0456474
0.0336919
0.0204269
0.00576117
-0.0104038
-0.0281218
0.107621
0.107182
0.106642
0.105419
0.104156
0.102319
0.100154
0.0975285
0.0944362
0.0908359
0.0866835
0.081931
0.0765254
0.0704082
0.063517
0.0557849
0.047141
0.0375163
0.0268385
0.0150385
0.00204481
-0.012215
-0.027753
0.0926248
0.0922832
0.0917258
0.0906227
0.0894861
0.0878203
0.0858876
0.083536
0.0807731
0.0775614
0.0738635
0.0696376
0.0648388
0.0594188
0.0533256
0.0465037
0.038898
0.0304539
0.0211156
0.0108346
-0.000435638
-0.0127584
-0.0261046
0.0779179
0.0776646
0.0771276
0.0761561
0.0751642
0.0736974
0.0720218
0.0699757
0.0675777
0.0647935
0.0615934
0.0579422
0.0538016
0.0491322
0.0438913
0.0380348
0.0315209
0.0243079
0.0163546
0.00762573
-0.00190624
-0.0122733
-0.0234359
0.0634331
0.0632571
0.062771
0.0619472
0.0611152
0.0598729
0.0584744
0.0567628
0.0547604
0.0524388
0.0497736
0.0467363
0.0432961
0.0394213
0.0350771
0.0302299
0.0248481
0.0189026
0.012365
0.00520867
-0.00258169
-0.0110189
-0.0200745
0.0490973
0.0489933
0.0485843
0.0479221
0.0472696
0.0462697
0.0451711
0.0438139
0.0422327
0.0404025
0.0383022
0.0359097
0.0332022
0.0301547
0.0267415
0.0229382
0.0187214
0.0140693
0.00896506
0.00339301
-0.00265401
-0.00918668
-0.0161599
0.0348998
0.0348656
0.0345537
0.0340654
0.0336061
0.0328705
0.0320788
0.0310965
0.0299547
0.0286311
0.0271146
0.0253899
0.0234388
0.021243
0.0187852
0.0160489
0.01302
0.00968338
0.00602481
0.00204077
-0.00227472
-0.00692304
-0.0118681
0.0208555
0.0208691
0.0206685
0.0203678
0.020097
0.0196432
0.0191675
0.0185722
0.0178826
0.0170811
0.0161622
0.0151187
0.0139401
0.0126154
0.0111332
0.00948179
0.0076548
0.00564586
0.00344535
0.00105154
-0.00153966
-0.00432344
-0.00727774
0.00691431
0.00694833
0.00686966
0.00677144
0.00668158
0.00652175
0.00636826
0.00616487
0.00593523
0.00566706
0.00535818
0.0050072
0.00461193
0.00416902
0.00367405
0.00312166
0.00250978
0.00183751
0.00110192
0.000302133
-0.000563204
-0.00149112
-0.00247578
836.65
848.905
873.705
876.127
953.645
956.611
958.616
960.065
951.417
958.42
967.09
976.141
837.126
857.773
871.232
889.595
142.686
192.167
203.076
206.192
0.862097
0.763412
0.764097
0.999423
0.954505
0.91835
0.988932
1.02917
1.01319
0.975048
1.04171
1.10632
1.07946
0.948381
0.878246
0.978747
0.703388
0.726362
0.780208
0.888199
0.721226
0.733719
0.777865
0.867126
1.17703
1.19264
1.22354
1.28163
0.700392
0.55176
0.671689
0.807033
0.516931
0.510089
0.504131
0.503135
0.505745
0.499049
0.489275
0.473911
0.462182
0.453908
0.442588
0.425299
0.406304
0.394603
0.379685
0.360331
0.347902
0.333813
0.316825
0.29628
0.292275
0.276662
0.258626
0.237842
0.241258
0.224809
0.206283
0.185537
0.194866
0.17798
0.159301
0.138741
0.153054
0.13594
0.11725
0.0969143
0.115716
0.0985219
0.0799199
0.0598407
0.0827128
0.0655619
0.0471416
0.0273789
0.053937
0.0369493
0.0188063
-0.00056736
0.0292874
0.0125942
-0.00515221
-0.0240204
0.00863175
-0.0076329
-0.0248636
-0.0431219
-0.0081848
-0.0238837
-0.040474
-0.0580138
-0.0213428
-0.0363336
-0.0521401
-0.0688039
-0.0310601
-0.0452102
-0.0600997
-0.0757726
-0.0376006
-0.0508115
-0.0646584
-0.0791822
-0.0415411
-0.0535835
-0.0662021
-0.079411
-0.0429968
-0.0538165
-0.0651202
-0.0769148
-0.042404
-0.0519602
-0.0619041
-0.0722424
-0.0401873
-0.0484713
-0.0570548
-0.0659461
-0.0367192
-0.0437555
-0.051015
-0.0585057
-0.0323368
-0.0381521
-0.0441379
-0.0502948
-0.0271892
-0.0318732
-0.0366684
-0.0415787
-0.0216003
-0.025175
-0.0288154
-0.0325091
-0.0157153
-0.0182443
-0.0208248
-0.0234646
-0.00956986
-0.0110757
-0.0126076
-0.0141682
-0.00323911
-0.00373992
-0.00424661
-0.00476013
854.595
850.556
849.633
678.637
389.485
213.311
170.606
171.874
170.213
164.409
157.21
155.583
161.034
168.406
175.938
181.213
184.674
216.98
750.9
952.605
931.472
911.907
554.691
331.996
197.616
167.731
168.976
166.982
161.74
156.016
155.931
160.827
166.647
173.151
178.419
180.867
262.167
804.441
989.027
993.422
987.741
491.525
105.753
211.845
168.357
168.19
166.041
161.34
156.849
156.338
160.806
165.813
171.172
175.775
178.203
329.352
913.305
962.249
1051.02
1090.4
526.15
128.446
224.766
171.324
169.369
167.187
162.785
158.678
158.28
161.65
166.363
170.964
174.582
176.78
412.375
1041.66
351.094
827.962
1154.16
562.59
187.617
242.419
177.086
172.048
169.61
165.735
162.142
161.672
164.07
167.935
171.882
174.897
177.504
595.699
1186.28
1.72351
249.327
1030.71
582.788
215.648
212.619
184.261
175.083
172.172
169.038
166.139
165.543
167.089
170.014
173.374
176.846
184.462
950.289
1354.57
1.14455
1.21684
320.919
1197.79
1123.81
254.391
196.288
178.19
174.363
172.001
170.125
169.993
170.973
172.159
174.775
180.735
353.328
1353.94
1560.65
1.22608
1.34274
1.63123
477.862
1327.28
1356.27
477.577
179.05
174.599
173.33
174.362
175.798
176.115
175.224
176.005
187.668
1069.55
1662.01
1783.05
1.16148
1.28064
1.37551
1.53836
382.839
1248.68
1288.14
886.456
509.82
172.764
180.28
183.209
182.57
197.76
255.639
741.466
1642.54
1805.35
1960.08
1.1037
1.23538
1.30329
1.33859
1.48842
272.199
848.982
1065.32
1091.56
762.598
358.109
220.599
251.899
894.828
1391.72
1387.55
1352.74
1519.1
1957.48
1.05842
1.45389
1.44647
1.37968
1.5087
0.653301
83.0193
516.882
897.958
1245.4
1278.25
1309.55
1520.47
1524.13
1475.02
802.336
529.797
616.57
1684.12
1.4056
1.39154
0.913415
0.743621
0.680061
2.71531
-0.547892
19.4489
673.242
1498.5
1664.06
1712.09
1666.26
1635
1049.38
737.764
502.613
560.822
1791.32
0.91712
0.821513
0.568847
0.314867
0.0489927
-0.885077
-1.43164
20.1015
736.529
1365.54
1398.98
1098.04
1090.99
1627.23
1922.06
1906.73
1197.87
1155.84
2062.59
0.512217
0.46476
0.273969
0.0103643
-0.594216
-0.87435
-0.58486
4.59535
31.0087
60.8884
48.9601
7.39924
14.1847
319.31
1508.12
2093.29
2116.76
2145.53
2171.77
0.444988
0.358841
0.127155
-0.286931
-0.649618
-0.592004
-0.158121
0.634572
1.41548
2.22917
2.74383
4.28957
6.65748
11.9236
126.942
1767.77
2207.01
2254.28
2173.02
0.389131
0.302284
0.122445
-0.125627
-0.334045
-0.281095
-0.0126006
0.289946
1.15615
1.99373
1.93352
3.53943
5.54448
14.4345
33.8464
568.957
2299.25
2351.94
2018.08
0.321992
0.242167
0.119855
-0.0254585
-0.144646
-0.146213
-0.0164229
0.158513
0.294706
0.377021
0.248175
5.39457
95.5621
166.26
75.7479
327.988
1982.65
2473.91
2113.7
0.256486
0.181094
0.0832965
-0.0220207
-0.106624
-0.13081
-0.0913687
-0.0252059
0.00924523
-0.0773035
-0.281832
0.056258
221.419
537.21
443.18
435.462
1592
2617.53
2476.32
0.198499
0.128022
0.0433489
-0.044925
-0.119655
-0.162595
-0.178052
-0.19257
-0.238162
-0.364314
-0.622537
-0.433456
153.02
567.46
738.376
821.68
848.136
1547.69
2394.99
0.147097
0.0810079
0.00448502
-0.0756702
-0.150019
-0.210739
-0.263347
-0.330141
-0.445827
-0.647766
-1.00081
-1.45745
-1.87335
89.955
297.068
372.278
358.295
594.432
987.643
0.101165
0.0381398
-0.0339652
-0.111091
-0.18846
-0.264226
-0.344701
-0.445287
-0.608008
-0.860938
-1.26571
-1.50764
-2.34891
-2.41044
-1.90658
42.4131
136.76
536.217
555.418
0.0601147
-0.000700363
-0.0702255
-0.146383
-0.226601
-0.311431
-0.407717
-0.531969
-0.717477
-1.00357
-1.44965
-1.71127
-2.45176
-2.50482
-2.34151
-1.55921
18.5583
559.262
836.204
0.0237568
-0.035247
-0.102821
-0.17804
-0.260323
-0.351349
-0.457852
-0.595262
-0.790429
-1.0765
-1.49477
-1.92031
-2.33328
-2.58357
-2.49444
-2.14093
-0.833776
164.178
1009.92
-0.00795516
-0.0652088
-0.130853
-0.204858
-0.287901
-0.381931
-0.492814
-0.635843
-0.829516
-1.09458
-1.4449
-1.93729
-2.22877
-2.44299
-2.54144
-2.27398
-1.76116
70.2105
1050.02
-0.0350838
-0.0904146
-0.154041
-0.22636
-0.309067
-0.404413
-0.518491
-0.66197
-0.842573
-1.07482
-1.36079
-1.73248
-1.98373
-2.13936
-2.37311
-2.15899
-1.86567
36.1803
1060.12
-0.0575092
-0.111015
-0.172333
-0.242442
-0.324062
-0.421277
-0.536524
-0.675401
-0.841412
-1.03513
-1.25595
-1.5114
-1.68397
-1.7233
-1.86323
-1.90891
-1.67591
15.8774
264.755
-0.0754264
-0.1269
-0.185668
-0.253123
-0.333092
-0.430192
-0.547109
-0.682027
-0.833719
-0.988824
-1.14151
-1.2903
-1.43508
-1.26645
-1.33168
-1.54611
-1.3951
21.7157
23.5849
-0.0889395
-0.138114
-0.194031
-0.258437
-0.336248
-0.433097
-0.549795
-0.683301
-0.823306
-0.942458
-1.0296
-1.08998
-1.12229
-0.899326
-1.01985
-1.19622
-1.10336
32.4325
336.323
-0.0982199
-0.144739
-0.197439
-0.258125
-0.332247
-0.425497
-0.539282
-0.671955
-0.802309
-0.889356
-0.92409
-0.917789
-0.872064
-0.723987
-0.853295
-0.911724
2.37347
37.0396
500.434
-0.10338
-0.146877
-0.195893
-0.251867
-0.320051
-0.404685
-0.508806
-0.634802
-0.756387
-0.819626
-0.814832
-0.768149
-0.645184
-0.613471
-0.647562
-0.630865
36.1255
35.7765
518.32
-0.104697
-0.144659
-0.18935
-0.239732
-0.300812
-0.368956
-0.457094
-0.565586
-0.675389
-0.723854
-0.691314
-0.632783
-0.505401
-0.502291
-0.547339
1.37808
46.9687
18.8653
535.245
-0.102551
-0.138496
-0.178149
-0.22168
-0.271782
-0.326108
-0.393052
-0.472622
-0.55036
-0.579349
-0.555541
-0.500901
-0.443131
-0.447167
-0.483674
31.5566
48.5469
6.92365
550.022
-0.0975039
-0.129178
-0.163606
-0.200522
-0.240405
-0.280777
-0.313698
-0.365211
-0.421142
-0.441394
-0.425103
-0.398867
-0.379966
-0.39306
-0.404921
46.3144
49.8264
2.28584
498.371
-0.0902175
-0.11758
-0.146894
-0.177703
-0.209256
-0.240207
-0.25706
-0.272583
-0.29944
-0.325929
-0.32964
-0.334977
-0.334921
-0.335255
-0.325002
8.70871
32.3394
0.291001
484.16
-0.0813408
-0.104508
-0.128973
-0.154146
-0.179267
-0.20281
-0.220767
-0.218558
-0.226733
-0.239026
-0.250236
-0.275654
-0.2784
-0.27677
-0.272274
-0.309935
-0.263087
-0.162747
541.805
-0.071421
-0.090619
-0.110611
-0.130751
-0.150529
-0.168594
-0.183494
-0.194169
-0.185897
-0.189331
-0.201052
-0.216378
-0.213321
-0.21673
-0.216745
-0.237486
-0.176958
-0.119614
604.9
-0.0608774
-0.0763737
-0.0923294
-0.108049
-0.123205
-0.136706
-0.147634
-0.156031
-0.162034
-0.166492
-0.169237
-0.164683
-0.149936
-0.106413
-0.159766
-0.216383
-0.0121407
-0.143741
690.213
-0.0500143
-0.0620606
-0.0744265
-0.0862906
-0.097419
-0.107172
-0.11417
-0.120064
-0.124871
-0.128179
-0.130089
-0.12396
0.0468919
0.0484816
-0.129172
-0.242403
-0.247605
8.10844
761.175
-0.0390645
-0.0478641
-0.0570393
-0.0655689
-0.0732665
-0.0802581
-0.0837685
-0.0873976
-0.090969
-0.0932985
-0.0935409
0.0250953
0.128213
0.0330239
-0.10679
-0.194831
1.07874
0.726494
727.404
-0.028114
-0.033763
-0.0401918
-0.0458849
-0.0507462
-0.0556058
-0.0570665
-0.0589926
-0.0609927
-0.0625943
-0.055737
0.0866644
0.173019
-0.00797782
-0.0591409
-0.0296297
-0.0517992
50.6593
744.914
-0.0168744
-0.0201217
-0.0239172
-0.0270642
-0.0296171
-0.0322488
-0.0326251
-0.0338042
-0.0370641
-0.0354849
-0.0452245
0.0586796
0.0122262
-0.0420755
-0.0930797
0.0316545
-0.0485723
0.299829
429.259
-0.00565102
-0.00672875
-0.0078976
-0.00889523
-0.00971658
-0.0104285
-0.0112814
-0.0110486
-0.0247482
-0.0125289
-0.0588023
0.0357772
0.0233051
-0.131205
-0.173433
-0.194936
-0.420726
-1.09785
4.44562
)
;

boundaryField
{
    leftWall
    {
        type            fixedFluxPressure;
        gradient        uniform 0;
        value           nonuniform List<scalar> 
50
(
578.016
577.94
577.372
576.969
577.376
579.007
581.776
585.435
538.502
69.2382
0.77833
0.784244
0.758212
0.71332
0.685728
0.652762
0.624364
0.598375
0.573945
0.550767
0.528428
0.506614
0.485118
0.463828
0.442679
0.421652
0.40075
0.379994
0.359413
0.339043
0.318922
0.299089
0.279579
0.260427
0.241668
0.223352
0.205496
0.188097
0.171148
0.154645
0.138586
0.122931
0.107621
0.0926248
0.0779179
0.0634331
0.0490973
0.0348998
0.0208555
0.00691431
)
;
    }
    rightWall
    {
        type            fixedFluxPressure;
        gradient        uniform 0;
        value           nonuniform List<scalar> 
50
(
1187.22
1183.65
1158.74
1112.23
1053.72
984.578
901.166
817.849
750.9
804.441
913.305
1041.66
1186.28
1354.57
1560.65
1783.05
1960.08
1957.48
1684.12
1791.32
2062.59
2171.77
2173.02
2018.08
2113.7
2476.32
2394.99
987.643
555.418
836.204
1009.92
1050.02
1060.12
264.755
23.5849
336.323
500.434
518.32
535.245
550.022
498.371
484.16
541.805
604.9
690.213
761.175
727.404
744.914
429.259
4.44562
)
;
    }
    lowerWall
    {
        type            fixedFluxPressure;
        gradient        uniform 0;
        value           nonuniform List<scalar> 
62
(
578.016
575.099
575.453
579.583
588.818
604.002
618.196
631.428
644.324
658.625
675.316
694.33
715.209
737.489
760.645
784.003
806.538
826.301
840.787
846.862
840.848
850.376
887.902
887.902
882.498
879.726
885.475
899.646
913.831
918.53
919.866
836.65
848.905
873.705
876.127
895.846
893.936
873.443
854.548
824.289
801.125
788.536
737.799
895.846
919.202
1168.15
1089.96
806.004
796.771
938.708
524.632
290.678
232.519
223.869
229.239
244.737
268.045
287.138
374.377
734.097
1204.29
1187.22
)
;
    }
    atmosphere
    {
        type            totalPressure;
        rho             rho;
        psi             none;
        gamma           1;
        p0              uniform 0;
        value           nonuniform List<scalar> 
46
(
0
0
0
0
0
0
0
0
0
0
0
0
0
0
0
0
0
0
0
0
0
0
0
0
0
0
0
0
0
0
0
0
0
-0.000243338
-0.0032165
-0.00906727
-0.00317947
-0.0807533
0
0
-0.16017
-0.19943
-0.16368
-0.340066
-1.01527
0
)
;
    }
    defaultFaces
    {
        type            empty;
    }
}


// ************************************************************************* //
