/*--------------------------------*- C++ -*----------------------------------*\
| =========                 |                                                 |
| \\      /  F ield         | OpenFOAM: The Open Source CFD Toolbox           |
|  \\    /   O peration     | Version:  2206                                  |
|   \\  /    A nd           | Website:  www.openfoam.com                      |
|    \\/     M anipulation  |                                                 |
\*---------------------------------------------------------------------------*/
FoamFile
{
    version     2.0;
    format      ascii;
    arch        "LSB;label=32;scalar=64";
    class       volScalarField;
    location    "0.55";
    object      alpha.water;
}
// * * * * * * * * * * * * * * * * * * * * * * * * * * * * * * * * * * * * * //

dimensions      [0 0 0 0 0 0 0];

internalField   nonuniform List<scalar> 
2268
(
1
1
1
1
1
1
1
1
1
1
1
1
1
1
1
1
1
1
0.979667
0.895359
0.921599
0.998616
0.998616
1
1
1
1
1
1
1
1
1
1
1
1
1
1
1
1
1
1
0.999831
0.938421
0.911172
0.978112
0.998616
1
1
1
1
1
1
1
1
1
1
1
1
1
1
1
1
1
1
1
0.999218
0.911191
0.948394
0.998608
1
1
1
1
1
1
1
1
1
1
1
1
1
1
1
1
1
1
1
1
0.921294
0.944065
0.996778
1
1
1
1
1
1
1
1
1
1
1
1
1
1
1
1
1
1
1
1
0.990351
0.993871
0.999239
1
1
1
1
1
1
1
1
1
1
1
1
1
1
1
1
1
1
1
1
1
0.999999
0.999807
1
1
1
0.999999
0.999998
0.999998
0.999999
1
1
1
1
1
1
1
1
1
1
1
1
1
1
1
0.999807
1
0.999996
0.999965
0.999926
0.999913
0.999929
0.999961
0.999985
0.999996
1
1
1
1
1
1
1
1
1
1
1
1
1
0.999809
0.248927
0.206122
0.17784
0.18024
0.0434433
0.03761
0.296994
0.30633
0.291176
0.419878
0.545033
0.58571
0.615906
0.659879
0.70542
0.736129
0.743652
0.750618
0.664661
0.566356
0.169976
0.132927
0.0313678
0.022898
0.0483381
0.205047
0.0215962
0.00293637
1.00949e-05
0.000658747
0.0463954
0.135184
0.219019
0.313102
0.459256
0.642484
0.767987
0.767767
0.707381
0.788296
0.83284
0.0864606
0.0224323
0.0687762
0.0517597
4.31169e-05
3.43162e-06
3.76355e-06
8.28009e-06
2.22901e-05
6.89785e-05
0.000239656
0.00093848
0.00375245
0.0995358
0.540252
0.770916
0.955178
0.999974
0.999973
0.0540132
0.0225066
0.0687741
0.00125492
2.83306e-06
2.23153e-06
2.53304e-06
4.34147e-06
7.03178e-06
1.74382e-05
5.81037e-05
0.000239684
0.000936492
0.0039166
0.245158
0.773775
0.999974
0.999974
0.996983
0.216817
0.0225066
0.0661084
6.10627e-05
2.2039e-06
2.11621e-06
2.21281e-06
2.53522e-06
3.82175e-06
6.88603e-06
1.73591e-05
5.77615e-05
0.0002383
0.00125475
0.137221
0.777143
0.999974
0.999973
0.999972
0.91186
0.0598386
0.0661084
8.13183e-05
2.11621e-06
2.10418e-06
2.11621e-06
2.21251e-06
2.5573e-06
3.51331e-06
6.65891e-06
1.70406e-05
5.98541e-05
0.000346084
0.0838808
0.781694
0.999829
0.999916
0.999972
0.99997
0.143943
0.0525481
4.12249e-05
2.10418e-06
2.10418e-06
2.10418e-06
2.19071e-06
2.5994e-06
4.23075e-06
8.08938e-06
1.71902e-05
3.02606e-05
8.95201e-05
0.0428977
0.78474
0.999632
0.999754
0.99997
0.999965
0.259931
0.0169912
2.19552e-06
2.14259e-06
2.10418e-06
2.15894e-06
2.48064e-06
6.18174e-06
1.04359e-05
1.72957e-05
3.16744e-05
3.67279e-05
3.40794e-05
0.0268506
0.784342
0.975105
0.89458
0.764653
0.667029
0.691487
0.770145
0.85774
0.911089
0.950029
0.980546
0.996735
0.999971
1
1
1
1
1
1
1
1
1
1
0.999967
0.294428
0.148278
0.0320801
0.0248095
0.081835
0.159996
0.200588
0.22948
0.282439
0.369081
0.485965
0.619302
0.765273
0.904915
1
1
1
1
1
1
1
1
1
2.23843e-12
3.72147e-12
1.74078e-08
4.19215e-12
2.76859e-13
8.08251e-13
2.14369e-11
1.52229e-10
4.24283e-11
2.18732e-10
6.47923e-09
0.00787281
0.0618572
0.146375
0.292896
0.489406
0.736773
0.973535
1
1
1
1
0.999999
5.52822e-14
1.34818e-09
8.84333e-08
2.76859e-13
2.76859e-13
2.76859e-13
6.5001e-13
1.72256e-12
3.87678e-11
4.26872e-11
2.18732e-10
3.41773e-09
6.42975e-09
7.8033e-09
1.81344e-07
0.0168879
0.0515345
0.16211
0.348204
0.591903
0.824157
0.920273
0.938529
1.82342e-18
2.82095e-14
2.91123e-10
4.09585e-13
4.54333e-13
7.10687e-13
7.16253e-13
1.00181e-12
5.02578e-10
1.93871e-08
6.15828e-08
6.42976e-09
6.21296e-09
1.56088e-09
7.80331e-09
1.81382e-07
1.02714e-06
2.00803e-06
5.71612e-06
0.00208863
0.0435877
0.11487
0.189632
1.68587e-18
3.80704e-18
3.41105e-17
1.49525e-14
2.56937e-12
4.0915e-12
3.98805e-12
1.72256e-12
7.84881e-09
2.21678e-07
3.15322e-07
1.60326e-07
7.15317e-09
1.53677e-09
2.7857e-05
5.941e-05
4.50325e-05
9.54193e-06
9.52531e-06
1.00318e-05
1.0564e-05
1.12206e-05
1.17155e-05
3.80489e-19
2.29537e-16
3.42693e-14
7.17352e-13
3.73498e-12
7.36444e-12
8.44587e-12
5.50265e-12
1.62957e-08
2.75235e-07
3.15331e-07
2.89319e-07
1.53677e-09
1.53679e-09
8.72691e-06
5.60598e-05
2.07553e-05
9.51173e-06
2.35656e-05
4.09776e-05
4.38765e-05
4.15452e-05
5.45849e-05
1.74072e-20
1.77317e-17
1.16307e-14
4.88004e-13
3.53289e-12
8.25642e-12
1.06061e-11
1.05584e-11
5.81054e-11
1.10316e-07
3.15294e-07
1.64615e-07
4.0246e-09
1.85146e-09
1.18409e-11
1.10742e-11
1.00545e-11
3.62078e-11
3.84075e-05
0.000199936
0.000246863
0.000249285
0.000171516
-4.37994e-19
7.85203e-19
2.23038e-15
1.81328e-13
2.126e-12
7.14209e-12
1.0762e-11
1.11944e-11
1.75068e-11
5.55685e-09
2.56147e-08
7.3337e-11
4.49579e-09
1.02495e-08
4.9736e-09
1.37457e-10
8.40951e-12
1.00545e-11
3.85653e-05
0.00021396
0.000295241
0.000295149
0.000214277
-2.89154e-18
6.21922e-35
3.92447e-16
4.51261e-14
6.76699e-13
3.72146e-12
1.09399e-11
1.58439e-11
1.67079e-11
1.67117e-11
1.72246e-11
7.12592e-11
1.54305e-09
1.3169e-08
7.25321e-09
2.64439e-10
2.07542e-12
1.08137e-07
8.94387e-06
1.04944e-07
0.000226576
0.000295241
0.000185912
-4.80893e-18
-6.17858e-18
7.2575e-17
1.13083e-14
1.79708e-13
1.24408e-12
6.63074e-12
1.59112e-11
2.04928e-11
2.14871e-10
8.6631e-10
2.46855e-09
2.99953e-09
9.60412e-09
1.77939e-09
3.81315e-11
2.05057e-12
1.05393e-12
6.57807e-12
8.6543e-10
1.1684e-05
0.000265457
0.000294421
-5.37586e-18
-1.32725e-17
1.31713e-17
2.47636e-15
4.2065e-14
3.56618e-13
3.52022e-12
1.10049e-11
1.33294e-11
1.98417e-10
1.55692e-09
3.90607e-09
3.54798e-09
9.95907e-11
4.82736e-11
2.17083e-11
1.84033e-12
1.92627e-13
1.04329e-12
8.8031e-11
5.28536e-09
2.23373e-05
0.000296385
-5.02034e-18
-1.24232e-17
4.24874e-20
4.59492e-16
8.85311e-15
7.71517e-14
1.08782e-12
5.15478e-12
9.82849e-12
9.27246e-11
1.57384e-09
3.51791e-09
1.20637e-09
2.91144e-11
2.91243e-11
1.5211e-11
1.22431e-12
1.67249e-13
1.81985e-13
2.04333e-13
2.25684e-13
-6.3979e-12
3.71893e-06
-4.26856e-18
-9.98152e-18
-7.48796e-18
6.39363e-17
1.59314e-15
1.39002e-14
2.35415e-13
1.82939e-12
6.55641e-12
4.13358e-11
5.29218e-10
1.1083e-09
1.70818e-10
8.47691e-11
3.28905e-11
6.43737e-12
7.93945e-13
1.67303e-13
1.96284e-13
1.98027e-13
2.04551e-13
2.28401e-13
4.0342e-13
-3.31549e-18
-6.92775e-18
-1.2567e-17
6.09329e-18
2.29051e-16
2.73719e-15
5.44296e-14
5.48327e-13
3.11543e-12
1.25918e-11
3.89466e-11
4.91995e-11
5.50593e-11
7.40993e-11
1.96256e-11
2.95647e-12
3.92477e-13
1.37665e-13
3.81913e-13
1.34884e-12
2.57791e-12
3.71671e-12
6.20198e-12
-2.32442e-18
-4.10818e-18
-9.06563e-18
1.99753e-20
2.41881e-17
5.18439e-16
1.20094e-14
1.89563e-13
1.59533e-12
3.17221e-12
8.6627e-13
1.3564e-12
9.77378e-12
1.35176e-11
3.37565e-12
8.77544e-13
1.11974e-13
3.80427e-14
2.00103e-13
1.12863e-12
3.48262e-12
8.55829e-12
1.7598e-11
-1.45373e-18
-2.12373e-18
-5.38576e-18
-1.34169e-18
1.80035e-18
9.49442e-17
2.38637e-15
4.08094e-14
3.98279e-13
9.30321e-13
8.57319e-13
5.05306e-13
3.1234e-13
3.13699e-13
3.44848e-13
1.45784e-13
2.68655e-14
9.1317e-15
1.55265e-14
2.27895e-13
1.84087e-12
9.83031e-12
3.81675e-11
-8.0191e-19
-9.43138e-19
-2.66936e-18
-1.06072e-18
1.0801e-19
1.82685e-17
4.31191e-16
4.10869e-15
2.75542e-14
1.10143e-13
2.1899e-13
2.63842e-13
9.8549e-14
1.86247e-14
4.83716e-15
3.46748e-15
2.67289e-15
2.06932e-15
6.7755e-15
9.34545e-14
7.41225e-13
4.56051e-12
2.35348e-11
-3.85984e-19
-3.51887e-19
-1.08824e-18
-4.87998e-19
5.99499e-21
2.55598e-18
6.30665e-17
6.27889e-16
4.29611e-15
1.6164e-14
2.71017e-14
2.90147e-14
1.52636e-14
6.37871e-15
5.00626e-16
3.54115e-17
1.44658e-17
7.65273e-17
2.32889e-15
4.01453e-14
3.68728e-13
2.16488e-12
1.06775e-11
-1.60434e-19
-1.0704e-19
-3.57116e-19
-1.69961e-19
1.55605e-22
2.44216e-19
7.86301e-18
9.92923e-17
7.67674e-16
2.42426e-15
3.10033e-15
2.46569e-15
1.38308e-15
4.61093e-16
7.64519e-17
4.60426e-18
1.8112e-19
2.09747e-17
7.41042e-16
1.64798e-14
1.8576e-13
1.13415e-12
5.20666e-12
-5.70162e-20
-2.54502e-20
-9.09686e-20
-4.50385e-20
-6.89572e-21
1.88404e-20
8.71828e-19
1.26875e-17
7.79412e-17
1.98425e-16
2.45187e-16
2.27023e-16
1.38985e-16
4.77208e-17
6.77399e-18
1.7469e-20
1.46773e-20
3.59915e-18
2.21226e-16
6.61228e-15
9.24181e-14
6.06865e-13
2.80982e-12
-1.71806e-20
-4.44388e-21
-1.71472e-20
-8.75748e-21
-1.94179e-21
9.34549e-22
7.00561e-20
1.18199e-18
6.47679e-18
1.55588e-17
2.0877e-17
2.07716e-17
1.33412e-17
3.61931e-18
-3.91795e-36
-9.76836e-19
-4.46671e-19
4.45891e-19
6.04804e-17
2.48803e-15
4.42021e-14
3.31734e-13
1.79391e-12
-4.36522e-21
-5.11887e-22
-2.2366e-21
-1.20463e-21
-2.94195e-22
1.75586e-23
3.41318e-21
7.38317e-20
4.35473e-19
1.07286e-18
1.46677e-18
1.4545e-18
7.16245e-19
0
-7.32021e-19
-1.06134e-18
-6.04224e-19
7.55182e-20
1.5318e-17
8.59624e-16
2.01624e-14
1.89913e-13
1.16654e-12
-9.34092e-22
-3.04274e-23
-1.77565e-22
-1.08465e-22
-2.73353e-23
2.21792e-25
8.32728e-23
2.6353e-21
1.80584e-20
4.7364e-20
6.35986e-20
3.78921e-20
-5.3709e-22
-2.39422e-19
-5.28752e-19
-6.18556e-19
-3.65889e-19
1.53865e-20
4.06627e-18
2.9669e-16
8.65527e-15
1.03368e-13
8.63192e-13
-1.69098e-22
-1.17341e-25
-5.99144e-24
-5.46955e-24
-1.41729e-24
6.52698e-28
6.12378e-25
4.35205e-23
3.63916e-22
7.35705e-22
0
-6.10627e-21
-4.26813e-20
-1.27943e-19
-2.19653e-19
-2.3448e-19
-1.36738e-19
4.25032e-21
1.31691e-18
1.22953e-16
4.3858e-15
5.65557e-14
4.72973e-13
-2.61652e-23
-8.3157e-28
-1.41928e-25
-1.97706e-25
-5.51407e-26
-2.29147e-26
-7.34681e-26
5.46564e-26
0
-4.4004e-23
-7.63092e-22
-4.36864e-21
-1.63555e-20
-3.95289e-20
-6.12462e-20
-6.21127e-20
-3.50363e-20
1.52861e-21
4.45961e-19
4.91736e-17
2.2199e-15
3.02494e-14
2.02362e-13
-3.50612e-24
-1.0153e-29
-2.78929e-27
-5.87932e-27
-2.76847e-27
-1.32884e-26
-1.16808e-25
-8.48839e-25
-6.1354e-24
-4.4472e-23
-2.66726e-22
-1.18794e-21
-3.82061e-21
-8.40871e-21
-1.23367e-20
-1.21581e-20
-6.59931e-21
5.19035e-22
1.27524e-19
1.53402e-17
9.06032e-16
1.44261e-14
8.55403e-14
-4.12126e-25
-1.60105e-31
-4.97726e-29
-1.69504e-28
-3.65838e-28
-3.8662e-27
-3.73766e-26
-2.97315e-25
-2.02205e-24
-1.19335e-23
-5.88891e-23
-2.30144e-22
-6.71427e-22
-1.38056e-21
-1.9409e-21
-1.87072e-21
-9.66204e-22
1.32342e-22
2.84285e-20
3.60189e-18
2.7422e-16
5.45234e-15
3.48517e-14
-4.29379e-26
-4.85949e-30
-9.62216e-31
-7.43986e-30
-6.189e-29
-7.2868e-28
-7.12521e-27
-5.71492e-26
-3.78004e-25
-2.07089e-24
-9.32791e-24
-3.35931e-23
-9.19364e-23
-1.80472e-22
-2.45482e-22
-2.31711e-22
-1.07732e-22
3.73951e-23
4.91102e-21
6.65077e-19
6.44692e-17
1.58071e-15
1.13463e-14
-3.99419e-27
-2.91952e-30
-3.24773e-32
-5.97369e-31
-7.87676e-30
-9.21691e-29
-8.85193e-28
-7.00596e-27
-4.56561e-26
-2.4436e-25
-1.0675e-24
-3.7254e-24
-9.92918e-24
-1.9083e-23
-2.55077e-23
-2.36542e-23
-8.98576e-24
7.28252e-24
6.60536e-22
9.33234e-20
1.17537e-17
3.59697e-16
2.83684e-15
-3.33367e-28
-4.47419e-31
-1.7438e-33
-4.7471e-32
-6.90037e-31
-8.06227e-30
-7.71474e-29
-6.09927e-28
-3.98339e-27
-2.13893e-26
-9.3596e-26
-3.26483e-25
-8.69522e-25
-1.66774e-24
-2.22297e-24
-2.03787e-24
-5.48384e-25
9.4663e-25
7.07745e-23
9.57642e-21
1.58642e-18
6.49976e-17
5.847e-16
-2.50395e-29
-4.82661e-32
-9.12958e-35
-3.01602e-33
-4.51497e-32
-5.32885e-31
-5.14822e-30
-4.11737e-29
-2.72908e-28
-1.4919e-27
-6.64971e-27
-2.35811e-26
-6.36537e-26
-1.23276e-25
-1.65792e-25
-1.5111e-25
-2.26912e-26
1.06095e-25
6.67723e-24
7.90959e-22
1.66507e-19
9.60477e-18
1.02375e-16
-1.69416e-30
-4.23694e-33
-4.11827e-36
-1.5607e-34
-2.37781e-33
-2.85789e-32
-2.81035e-31
-2.29335e-30
-1.55516e-29
-8.72671e-29
-3.99656e-28
-1.45302e-27
-4.0038e-27
-7.88099e-27
-1.07736e-26
-9.78622e-27
-3.92431e-28
1.11796e-26
6.37792e-25
6.53104e-23
1.61051e-20
1.25146e-18
1.54608e-17
-1.03158e-31
-3.13607e-34
-1.62602e-37
-6.86695e-36
-1.06336e-34
-1.30769e-33
-1.31547e-32
-1.10085e-31
-7.67526e-31
-4.4411e-30
-2.09864e-29
-7.85152e-29
-2.21539e-28
-4.44697e-28
-6.20351e-28
-5.60899e-28
2.80534e-29
1.09684e-27
6.42909e-26
6.31411e-24
1.69517e-21
1.54847e-19
2.06558e-18
-5.64134e-33
-1.97652e-35
-5.79205e-39
-2.6618e-37
-4.1931e-36
-5.28831e-35
-5.45845e-34
-4.69837e-33
-3.37781e-32
-2.02026e-31
-9.86918e-31
-3.8046e-30
-1.10026e-29
-2.25634e-29
-3.21578e-29
-2.88035e-29
2.66927e-30
9.60673e-29
6.37765e-27
6.86344e-25
1.91213e-22
1.79324e-20
2.42507e-19
-2.76572e-34
-1.07727e-36
-2.01315e-40
-9.33175e-39
-1.4972e-37
-1.93819e-36
-2.05615e-35
-1.82337e-34
-1.35403e-33
-8.38173e-33
-4.23576e-32
-1.68279e-31
-4.98871e-31
-1.04599e-30
-1.52356e-30
-1.33725e-30
8.61551e-32
7.03897e-30
5.57344e-28
6.93201e-26
1.87832e-23
1.70952e-21
2.35005e-20
-1.21442e-35
-5.13949e-38
-8.46593e-42
-3.01498e-40
-4.93253e-39
-6.55371e-38
-7.15017e-37
-6.53886e-36
-5.02034e-35
-3.2184e-34
-1.68273e-33
-6.88783e-33
-2.09344e-32
-4.48988e-32
-6.6795e-32
-5.65164e-32
4.04409e-33
3.93748e-31
3.7467e-29
5.11293e-27
1.24328e-24
1.13183e-22
1.7122e-21
-4.77841e-37
-2.14687e-39
-3.73936e-43
-9.09391e-42
-1.51856e-40
-2.06898e-39
-2.32104e-38
-2.19131e-37
-1.73952e-36
-1.15519e-35
-6.2487e-35
-2.6355e-34
-8.21268e-34
-1.8031e-33
-2.73688e-33
-2.18808e-33
1.28374e-34
1.49483e-32
1.67913e-30
2.2985e-28
4.71561e-26
4.59105e-24
8.35165e-23
-1.69096e-38
-7.81981e-41
-1.36458e-44
-2.58217e-43
-4.40316e-42
-6.14168e-41
-7.08819e-40
-6.90453e-39
-5.66961e-38
-3.90201e-37
-2.18386e-36
-9.49079e-36
-3.03421e-35
-6.82502e-35
-1.05611e-34
-7.80566e-35
2.32016e-36
3.38409e-34
4.46318e-32
5.99581e-30
9.96709e-28
1.04321e-25
2.40855e-24
-5.42897e-40
-2.52679e-42
-5.31368e-46
-6.93344e-45
-1.20778e-43
-1.72203e-42
-2.04312e-41
-2.05394e-40
-1.74529e-39
-1.24472e-38
-7.21051e-38
-3.23129e-37
-1.06086e-36
-2.44707e-36
-3.85969e-36
-2.5784e-36
2.15129e-38
4.07434e-36
6.63082e-34
9.44973e-32
1.35311e-29
1.34611e-27
3.77508e-26
-1.59977e-41
-7.31688e-44
-1.95348e-47
-1.76583e-46
-3.14178e-45
-4.57158e-44
-5.57274e-43
-5.78227e-42
-5.08532e-41
-3.75867e-40
-2.25474e-39
-1.04289e-38
-3.521e-38
-8.34012e-38
-1.34136e-37
-7.92423e-38
1.05635e-40
2.80272e-38
6.82585e-36
1.13496e-33
1.54065e-31
1.3437e-29
3.75123e-28
-4.38508e-43
-1.87084e-45
-5.64145e-49
-4.27329e-48
-7.76063e-47
-1.1506e-45
-1.4412e-44
-1.54196e-43
-1.40447e-42
-1.07622e-41
-6.68783e-41
-3.19564e-40
-1.11086e-39
-2.70681e-39
-4.44529e-39
-2.27626e-39
8.39709e-44
2.84919e-41
2.6939e-38
6.70893e-36
9.10679e-34
7.30858e-32
1.9702e-30
0.999984
0.999995
0.999991
0.999686
0.999999
0.999997
0.999992
0.999987
0.999997
0.999993
0.999987
0.999983
0.94849
0.958253
0.975633
0.994264
0.251634
0.311192
0.395989
0.510574
1.2433e-05
2.41822e-05
6.23984e-05
9.09228e-05
4.1002e-05
0.000103679
9.08545e-05
8.24271e-05
0.000147953
0.00015677
0.000156359
9.28165e-05
0.000173943
0.000154388
7.02965e-05
6.96152e-05
6.97673e-05
6.97067e-05
6.96152e-05
6.95847e-05
0.000136495
6.99321e-05
6.96952e-05
6.96151e-05
0.000327298
0.000327298
0.000327176
0.000213839
0.000239818
0.000214763
1.06022e-08
1.23738e-05
4.09596e-12
4.46067e-11
6.38034e-09
1.26056e-08
1.86811e-11
6.3786e-11
1.58243e-10
2.12346e-10
2.97534e-11
6.72154e-11
1.47585e-10
2.31676e-10
8.40298e-11
1.32268e-10
1.97687e-10
2.84417e-10
6.31213e-11
1.08404e-10
1.63432e-10
2.3201e-10
3.14653e-11
6.11846e-11
9.74205e-11
1.38583e-10
1.54249e-11
3.24402e-11
5.31786e-11
7.36743e-11
9.21591e-12
2.48605e-11
4.69596e-11
6.70518e-11
8.44023e-12
4.19662e-11
1.05376e-10
1.59684e-10
5.81701e-12
5.03774e-11
2.09147e-10
4.36362e-10
5.44741e-12
6.44449e-11
3.13568e-10
6.84488e-10
3.01571e-12
4.07103e-11
2.35862e-10
5.87739e-10
9.27502e-13
1.37048e-11
1.11175e-10
3.56884e-10
2.57649e-13
2.28731e-12
2.59777e-11
1.26092e-10
9.21965e-14
2.81267e-13
2.08874e-12
1.90876e-11
3.07586e-14
7.61399e-14
4.19221e-13
5.71005e-12
7.95426e-15
2.65251e-14
3.79969e-13
7.57392e-12
1.70167e-15
6.70666e-15
1.10251e-13
3.14321e-12
3.09878e-16
1.16208e-15
7.40095e-15
1.24797e-13
4.68714e-17
1.50796e-16
4.40386e-16
2.76118e-16
6.20492e-18
2.01533e-17
5.58862e-17
2.85294e-17
7.46329e-19
3.06711e-18
9.47213e-18
4.4177e-18
7.92754e-20
4.68807e-19
1.59567e-18
6.04015e-19
7.02215e-21
6.10914e-20
2.17184e-19
7.37903e-20
4.15055e-22
5.22058e-21
2.25545e-20
2.38245e-20
1.24774e-23
1.78948e-22
1.7894e-21
2.42276e-20
2.12758e-25
3.38176e-24
1.28045e-22
5.76367e-21
2.33753e-27
4.40871e-26
3.66113e-24
2.06435e-22
1.71148e-29
2.59086e-28
1.92279e-26
8.83729e-25
0.999629
0.999771
0.999969
0.872455
0.288792
0.00256984
0.000600816
2.19553e-06
2.41014e-06
7.07661e-06
3.99783e-06
3.9461e-05
6.7396e-05
7.6023e-05
3.67989e-05
3.4213e-05
3.43912e-05
0.00865766
0.814321
0.999967
0.999969
0.999968
0.661563
0.194864
0.00199398
0.0018074
2.24693e-06
2.25527e-06
6.49445e-06
0.000597946
0.00113823
0.00129468
0.00136044
5.96193e-05
3.67983e-05
3.43912e-05
0.000406913
0.85079
0.999963
0.999967
0.999969
0.515389
0.0159028
0.0139822
0.00274776
2.29841e-06
2.47576e-06
3.12304e-06
6.22449e-05
0.000943064
0.00205428
0.00205008
0.00110403
6.3259e-05
5.08947e-05
0.0838475
0.889783
0.999857
0.999937
0.999966
0.506398
0.00119039
0.00554901
0.00783846
0.00125745
3.16592e-05
9.2359e-06
3.73494e-05
9.23269e-05
0.00192798
0.00205447
0.00203178
0.000271774
0.000118857
0.255529
0.918608
0.711906
0.964905
0.999929
0.706091
0.00116748
0.00145196
0.00367422
0.00357126
0.00194516
0.000706179
0.000526276
0.00169785
0.00198607
0.00203178
0.00189497
0.000511654
0.000312374
0.387809
0.928782
0.0969901
0.416539
0.961473
0.827854
0.0232324
0.00166597
0.00134229
0.00114963
0.000996973
0.000944762
0.00191746
0.00195036
0.00195041
0.00122817
0.00121037
0.00101505
0.000888793
0.517796
0.933149
7.14968e-05
0.000164004
0.358302
0.902464
0.900879
0.449817
0.00135975
0.00100163
0.000940837
0.000930817
0.000915518
0.00086048
0.000824274
0.000826756
0.000848379
0.0071895
0.0357251
0.746781
0.935218
6.96197e-05
6.99291e-05
9.98986e-05
0.243141
0.901348
0.901486
0.589284
0.217703
0.00100131
0.000907412
0.000850374
0.00082479
0.000826794
0.000826751
0.0497645
0.402915
0.71199
0.935218
0.935218
6.95847e-05
6.96197e-05
6.99291e-05
9.44654e-05
0.123122
0.653
0.72424
0.72424
0.561943
0.234473
0.00101038
0.00085037
0.000822832
0.014082
0.578058
0.931508
0.933998
0.935212
0.935218
6.95847e-05
6.95847e-05
0.000105807
0.000100158
2.55602e-05
0.0342012
0.298831
0.614486
0.649291
0.649291
0.406261
0.352208
0.509086
0.788166
0.83555
0.823745
0.735101
0.809771
0.933364
7.08818e-05
0.000232507
0.000346696
0.000180545
2.45108e-05
2.55602e-05
0.000529613
0.0597907
0.271099
0.446492
0.642829
0.712582
0.723863
0.72687
0.362967
0.213308
0.212896
0.329888
0.890741
0.00035738
0.000357443
0.000202622
1.10997e-05
1.98974e-05
0.00077186
0.00302633
0.00163156
0.00688424
0.0943505
0.316008
0.564971
0.714624
0.686736
0.352417
0.235983
0.212897
0.393539
0.919572
3.30183e-05
2.0201e-05
5.00266e-06
5.24892e-06
0.000152107
0.000412749
8.1531e-05
1.36398e-05
0.000108255
0.000595734
0.190204
0.529866
0.652201
0.747732
0.829587
0.831999
0.59336
0.763354
0.933202
2.98569e-09
7.40778e-09
2.98069e-08
4.90351e-06
3.87852e-05
2.5407e-05
2.54241e-07
1.96773e-06
0.000153434
0.000748195
0.000487675
0.000205031
0.000415375
0.206653
0.763246
0.929654
0.930118
0.933061
0.933061
3.6064e-10
6.96169e-10
1.01077e-08
3.27671e-07
7.58752e-08
9.50807e-08
1.38703e-08
8.10701e-08
6.25903e-05
0.000861384
0.000972513
0.000156016
9.60968e-05
0.000415375
0.107222
0.848977
0.93019
0.931234
0.827699
3.19792e-10
4.53048e-10
8.11418e-10
1.22706e-09
3.5962e-09
4.42923e-09
1.43318e-09
4.13e-09
1.57217e-06
0.000243575
0.000970597
0.000144805
3.98746e-05
9.60544e-05
0.0154889
0.437671
0.927999
0.923019
0.766353
4.43288e-10
6.30135e-10
7.02162e-10
6.09053e-10
5.66356e-10
6.51718e-10
8.47255e-10
1.02713e-09
4.13e-09
1.02506e-07
4.79974e-05
4.10811e-06
5.6316e-06
3.70255e-05
0.0238406
0.125786
0.52301
0.912896
0.767305
3.64056e-10
5.32771e-10
6.15622e-10
5.81651e-10
4.44823e-10
4.12875e-10
8.12847e-10
8.45235e-10
1.00445e-09
2.72489e-07
3.91945e-07
1.24459e-06
6.03755e-06
0.000359016
0.0137167
0.0217531
0.209933
0.804958
0.8574
2.1194e-10
3.0539e-10
3.49477e-10
3.48873e-10
3.49581e-10
3.51101e-10
3.94489e-10
5.02709e-09
1.1225e-08
5.45836e-07
5.96693e-07
1.46958e-06
0.00019978
0.023691
0.0527599
0.046291
0.139385
0.685725
0.8574
1.01707e-10
1.32092e-10
1.57356e-10
9.27927e-10
4.34049e-09
6.44724e-09
4.17994e-10
9.67343e-09
2.05224e-08
4.16828e-08
3.9252e-07
3.25076e-06
9.10815e-05
0.0547039
0.235451
0.243647
0.159794
0.252119
0.511799
8.8007e-11
1.03052e-10
1.0351e-10
1.21847e-10
1.84534e-08
6.58511e-08
4.76978e-08
9.71705e-09
1.57833e-08
1.67894e-08
8.41751e-08
3.66679e-06
0.000114081
0.0557659
0.245707
0.252425
0.257265
0.151577
0.153615
1.93033e-10
2.01346e-10
1.83374e-10
1.86636e-10
4.23423e-09
2.98955e-08
1.05676e-07
2.10427e-08
1.73059e-08
1.78353e-08
1.37598e-07
1.43642e-05
6.13581e-05
6.3248e-05
0.0256707
0.178256
0.262075
0.275612
0.166772
6.75385e-10
8.10686e-10
5.74138e-10
3.10167e-10
3.1174e-10
4.67131e-08
4.11016e-07
6.81049e-07
4.25391e-08
2.15318e-08
2.52936e-08
1.58863e-05
8.15656e-05
4.5579e-05
1.68837e-05
0.000109023
0.0787299
0.295909
0.303521
1.02012e-09
1.15172e-09
8.60665e-10
3.11093e-10
1.68462e-08
5.01736e-07
8.573e-07
9.22323e-07
7.07371e-07
3.98538e-07
1.7817e-07
9.73036e-06
7.96415e-05
5.34301e-05
1.16836e-05
1.68837e-05
0.000109023
0.081322
0.30353
9.72672e-10
1.15253e-09
8.98471e-10
3.62506e-10
1.69418e-08
4.96379e-07
8.85129e-07
9.22312e-07
9.22331e-07
9.17978e-07
7.36187e-07
2.46534e-06
7.3428e-05
0.00010316
1.16836e-05
1.0526e-05
2.03279e-05
0.00763744
0.303518
7.23992e-10
9.78652e-10
8.71668e-10
6.87084e-10
1.89597e-09
3.11413e-08
5.66433e-07
9.06412e-07
4.13096e-07
6.20029e-07
9.25661e-07
5.27886e-08
4.18041e-05
0.000107082
1.13468e-05
9.36796e-06
1.16279e-05
0.0108996
0.303303
3.76515e-10
6.54597e-10
7.5524e-10
7.79778e-10
7.79728e-10
7.82466e-10
1.15038e-07
4.5788e-07
7.05511e-08
4.04991e-08
9.0292e-07
2.08581e-08
1.96102e-05
0.000107082
2.26376e-05
9.36842e-06
9.35994e-06
1.17016e-05
0.265923
1.6218e-10
4.67488e-10
8.39434e-10
9.7169e-10
7.82466e-10
1.26679e-09
7.06829e-08
1.50679e-07
8.21326e-08
1.17191e-08
9.55905e-08
1.69125e-08
2.0624e-05
0.000102213
3.21263e-05
9.3682e-06
9.79874e-06
0.0023746
0.0602131
7.92944e-11
2.658e-10
7.11041e-10
2.69299e-09
7.49868e-09
6.20348e-09
5.481e-09
2.41548e-08
5.85397e-08
9.21218e-09
8.41056e-09
1.70538e-08
2.93575e-05
1.35771e-05
3.14479e-05
1.04968e-05
1.2103e-05
0.00745497
0.0575563
6.36481e-11
1.4098e-10
8.42735e-11
1.46944e-08
6.20801e-08
4.32943e-08
5.48295e-09
5.48085e-09
7.74402e-09
8.12307e-09
8.08005e-09
8.41056e-09
1.55156e-05
1.7308e-07
1.98559e-05
7.22772e-06
2.59608e-05
0.00999728
0.142204
3.85761e-11
9.32843e-11
6.53843e-11
3.58207e-09
8.17451e-08
1.2443e-07
5.48085e-09
5.48295e-09
5.70598e-09
6.44183e-07
2.10935e-06
2.95279e-06
5.71642e-08
2.78778e-08
3.96441e-08
1.99634e-07
0.00622495
0.0106301
0.142204
1.14392e-11
4.8275e-11
6.51339e-11
3.86968e-11
1.415e-10
3.30859e-07
6.90089e-07
5.70598e-09
6.62977e-09
1.70646e-06
3.7426e-06
3.73927e-06
2.97652e-08
2.74709e-08
2.73476e-08
0.00217983
0.0154017
0.00662391
0.142204
1.51161e-12
1.24861e-11
2.77511e-11
3.2462e-11
2.91339e-11
1.14748e-08
2.48097e-06
4.21116e-06
1.2074e-06
1.27634e-06
1.91536e-06
3.11758e-06
2.05417e-07
2.70679e-08
2.95107e-08
0.0125254
0.0153976
0.00334587
0.140944
1.39191e-13
1.68285e-12
5.91119e-12
2.55771e-11
2.26698e-11
4.12133e-11
1.36502e-06
6.44403e-06
6.507e-06
3.60339e-06
2.39587e-06
1.93018e-07
2.70543e-08
2.74093e-08
0.000837515
0.0153976
0.015432
0.00300695
0.133344
1.60247e-14
2.23125e-13
1.97807e-12
2.39597e-11
2.21948e-11
3.46192e-12
1.674e-07
2.77684e-06
6.50617e-06
6.50833e-06
5.51326e-06
4.2259e-07
2.80603e-08
2.70543e-08
0.00387167
0.0150614
0.0131592
0.00276212
0.133667
2.16062e-15
3.14984e-14
8.18611e-13
1.79754e-11
1.61431e-11
5.94837e-14
5.28121e-08
3.2055e-08
2.23668e-06
2.8008e-06
1.78091e-06
3.05766e-07
3.6076e-08
2.80603e-08
4.986e-08
0.0135955
0.00693699
0.00266309
0.13811
2.45749e-16
3.06707e-15
1.6814e-13
5.39714e-12
5.31563e-12
0
1.18971e-09
1.06455e-11
3.42421e-10
9.6269e-10
1.31119e-09
2.9392e-08
3.25081e-08
4.96961e-07
1.50797e-07
0.00179553
0.00378185
0.00262955
0.149295
2.12622e-17
1.58622e-16
8.40076e-15
3.16451e-13
3.52005e-13
-1.05104e-13
0
1.08225e-13
1.06455e-11
3.42421e-10
9.6269e-10
2.65908e-07
1.80247e-05
1.00584e-05
9.9824e-08
1.26428e-07
0.000702675
0.00266204
0.156923
1.33887e-18
5.10866e-18
9.2264e-17
2.61113e-15
1.48093e-15
-1.64697e-13
-6.57323e-29
0
4.19485e-08
6.73734e-08
1.31119e-09
3.54788e-05
4.67589e-05
1.22745e-05
1.48932e-08
7.7967e-08
0.000572966
0.0005925
0.143094
5.09976e-20
1.51104e-19
1.21454e-18
2.81582e-18
-1.7591e-14
-1.0609e-13
-3.98438e-12
-4.96136e-12
3.614e-07
3.61816e-07
3.04767e-07
5.13778e-05
4.69632e-05
9.97601e-07
1.36991e-10
1.48932e-08
0.000788037
0.00892372
0.137611
8.05819e-22
2.99388e-21
1.69947e-20
0
-9.31914e-15
-4.0882e-14
-1.38108e-12
-9.78791e-13
2.5047e-07
2.18946e-07
2.44827e-11
4.74297e-05
3.64486e-06
1.31895e-10
5.09516e-12
1.07981e-05
0.000154264
1.54069e-17
0.0924572
3.90314e-24
2.23563e-23
2.22546e-22
-2.95353e-18
-2.54151e-15
-9.27921e-15
-7.09495e-14
-1.08422e-14
-4.60265e-15
9.9032e-11
2.56408e-11
6.12865e-05
8.05898e-06
-3.65792e-17
1.05173e-27
0
6.41917e-32
0
0.00535333
)
;

boundaryField
{
    leftWall
    {
        type            zeroGradient;
    }
    rightWall
    {
        type            zeroGradient;
    }
    lowerWall
    {
        type            zeroGradient;
    }
    atmosphere
    {
        type            inletOutlet;
        inletValue      uniform 0;
        value           nonuniform List<scalar> 
46
(
-4.38508e-43
-1.87084e-45
-5.64145e-49
-4.27329e-48
-7.76063e-47
-1.1506e-45
-1.4412e-44
-1.54196e-43
-1.40447e-42
-1.07622e-41
-6.68783e-41
-3.19564e-40
-1.11086e-39
-2.70681e-39
-4.44529e-39
-2.27626e-39
8.39709e-44
2.84919e-41
2.6939e-38
6.70893e-36
9.10679e-34
7.30858e-32
1.9702e-30
1.71148e-29
2.59086e-28
1.92279e-26
8.83729e-25
3.90314e-24
2.23563e-23
2.22546e-22
-2.95353e-18
-2.54151e-15
-9.27921e-15
-7.09495e-14
0
0
0
0
6.12865e-05
0
0
0
0
0
0
0.00535333
)
;
    }
    defaultFaces
    {
        type            empty;
    }
}


// ************************************************************************* //
