/*--------------------------------*- C++ -*----------------------------------*\
| =========                 |                                                 |
| \\      /  F ield         | OpenFOAM: The Open Source CFD Toolbox           |
|  \\    /   O peration     | Version:  2206                                  |
|   \\  /    A nd           | Website:  www.openfoam.com                      |
|    \\/     M anipulation  |                                                 |
\*---------------------------------------------------------------------------*/
FoamFile
{
    version     2.0;
    format      ascii;
    arch        "LSB;label=32;scalar=64";
    class       surfaceScalarField;
    location    "0.175";
    object      alphaPhi0.water;
}
// * * * * * * * * * * * * * * * * * * * * * * * * * * * * * * * * * * * * * //

dimensions      [0 3 -1 0 0 0 0];

oriented        oriented;

internalField   nonuniform List<scalar> 
4432
(
3.3152e-06
-3.3152e-06
9.73893e-06
-6.42373e-06
1.63908e-05
-6.65187e-06
2.25889e-05
-6.19814e-06
2.8516e-05
-5.92703e-06
3.44305e-05
-5.91456e-06
4.04851e-05
-6.05459e-06
4.67325e-05
-6.24737e-06
5.3161e-05
-6.42856e-06
5.9717e-05
-6.556e-06
6.63073e-05
-6.59027e-06
7.27919e-05
-6.48451e-06
7.8966e-05
-6.17411e-06
8.45233e-05
-5.55728e-06
8.89925e-05
-4.4692e-06
9.165e-05
-2.65756e-06
9.1034e-05
6.16042e-07
8.46238e-05
6.41019e-06
6.9869e-05
1.47548e-05
4.45536e-05
2.53149e-05
1.21233e-05
3.24302e-05
-9.91907e-06
2.49635e-05
-1.13942e-05
3.35952e-06
-6.67473e-06
9.76952e-06
-1.28337e-05
1.64215e-05
-1.33039e-05
2.26317e-05
-1.24083e-05
2.85673e-05
-1.18627e-05
3.44935e-05
-1.18407e-05
4.05652e-05
-1.21263e-05
4.68335e-05
-1.25157e-05
5.32873e-05
-1.28824e-05
5.98767e-05
-1.31454e-05
6.65117e-05
-1.32253e-05
7.30553e-05
-1.30281e-05
7.93093e-05
-1.24281e-05
8.49801e-05
-1.1228e-05
8.96387e-05
-9.12784e-06
9.26999e-05
-5.71878e-06
9.39659e-05
-6.4991e-07
9.34476e-05
6.92849e-06
8.98431e-05
1.83593e-05
7.93321e-05
3.58254e-05
5.6166e-05
5.55962e-05
2.39482e-05
5.71812e-05
1.04625e-05
3.40365e-06
-1.00784e-05
9.78164e-06
-1.92117e-05
1.63839e-05
-1.99061e-05
2.2556e-05
-1.85805e-05
2.84674e-05
-1.77741e-05
3.43833e-05
-1.77566e-05
4.04566e-05
-1.81996e-05
4.67352e-05
-1.87943e-05
5.32096e-05
-1.93567e-05
5.98351e-05
-1.97709e-05
6.6529e-05
-1.99192e-05
7.31648e-05
-1.96638e-05
7.9559e-05
-1.88223e-05
8.54362e-05
-1.71053e-05
9.03939e-05
-1.40856e-05
9.38889e-05
-9.21377e-06
9.51646e-05
-1.92554e-06
9.36248e-05
8.46829e-06
8.93536e-05
2.26305e-05
8.32241e-05
4.19546e-05
7.10946e-05
6.77258e-05
4.33722e-05
8.49035e-05
5.12805e-05
3.46421e-06
-1.35426e-05
9.81036e-06
-2.55578e-05
1.63411e-05
-2.64368e-05
2.24532e-05
-2.46926e-05
2.83315e-05
-2.36524e-05
3.42388e-05
-2.36639e-05
4.03211e-05
-2.42819e-05
4.6622e-05
-2.50952e-05
5.31348e-05
-2.58695e-05
5.9822e-05
-2.64581e-05
6.66124e-05
-2.67096e-05
7.33976e-05
-2.6449e-05
8.0014e-05
-2.54387e-05
8.6204e-05
-2.32952e-05
9.15871e-05
-1.94687e-05
9.5653e-05
-1.32797e-05
9.76987e-05
-3.97117e-06
9.68663e-05
9.30061e-06
9.23168e-05
2.718e-05
8.43851e-05
4.98863e-05
7.31238e-05
7.8987e-05
4.86101e-05
0.000109417
9.26456e-05
3.54253e-06
-1.70851e-05
9.85241e-06
-3.18677e-05
1.62895e-05
-3.28739e-05
2.23217e-05
-3.07249e-05
2.81596e-05
-2.94903e-05
3.40603e-05
-2.95647e-05
4.01576e-05
-3.03792e-05
4.64898e-05
-3.14274e-05
5.30542e-05
-3.24339e-05
5.98226e-05
-3.32265e-05
6.67395e-05
-3.36266e-05
7.37212e-05
-3.34307e-05
8.06277e-05
-3.23453e-05
8.72189e-05
-2.98864e-05
9.31447e-05
-2.53944e-05
9.79509e-05
-1.80859e-05
0.000101
-7.02053e-06
0.000101363
8.93773e-06
9.79022e-05
3.06409e-05
8.90722e-05
5.87164e-05
7.50362e-05
9.3023e-05
4.99815e-05
0.000134472
0.000136858
3.64211e-06
-2.07272e-05
9.9042e-06
-3.81298e-05
1.62223e-05
-3.9192e-05
2.21562e-05
-3.66587e-05
2.79467e-05
-3.52808e-05
3.384e-05
-3.54579e-05
3.99527e-05
-3.64919e-05
4.63175e-05
-3.77922e-05
5.29372e-05
-3.90536e-05
5.97957e-05
-4.00849e-05
6.68577e-05
-4.06886e-05
7.40685e-05
-4.06415e-05
8.13141e-05
-3.95909e-05
8.83785e-05
-3.69508e-05
9.49556e-05
-3.19716e-05
0.000100659
-2.37896e-05
0.00010491
-1.12715e-05
0.000106698
7.15025e-06
0.000104784
3.25545e-05
9.67619e-05
6.67387e-05
8.0578e-05
0.000109207
5.32712e-05
0.000161779
0.000187382
3.76113e-06
-2.44883e-05
9.95498e-06
-4.43236e-05
1.61281e-05
-4.5365e-05
2.19479e-05
-4.24786e-05
2.76835e-05
-4.10164e-05
3.35639e-05
-4.13383e-05
3.96863e-05
-4.26142e-05
4.6078e-05
-4.41839e-05
5.275e-05
-4.57256e-05
5.97009e-05
-4.70358e-05
6.69203e-05
-4.7908e-05
7.43832e-05
-4.81044e-05
8.20023e-05
-4.721e-05
8.96018e-05
-4.45504e-05
9.69465e-05
-3.93162e-05
0.000103725
-3.05684e-05
0.000109394
-1.69407e-05
0.000112902
3.64264e-06
0.000113035
3.24219e-05
0.000106838
7.29333e-05
9.01451e-05
0.0001259
6.15278e-05
0.000190396
0.000265106
3.8895e-06
-2.83778e-05
9.9851e-06
-5.04192e-05
1.59967e-05
-5.13767e-05
2.16934e-05
-4.81753e-05
2.7366e-05
-4.6689e-05
3.32248e-05
-4.71971e-05
3.93467e-05
-4.87362e-05
4.57561e-05
-5.05933e-05
5.24737e-05
-5.24432e-05
5.95159e-05
-5.40779e-05
6.68999e-05
-5.5292e-05
7.46279e-05
-5.58324e-05
8.2641e-05
-5.52231e-05
9.08245e-05
-5.27339e-05
9.90375e-05
-4.75292e-05
0.000107036
-3.85668e-05
0.000114334
-2.42389e-05
0.000120051
-2.07417e-06
0.000122888
2.95843e-05
0.000119101
7.66766e-05
0.000103938
0.000141051
7.30957e-05
0.000221238
0.000338202
-3.95808e-23
9.54642e-23
-1.23024e-23
1.71803e-23
-1.30446e-24
2.39855e-24
-5.45787e-26
8.53298e-26
-2.35691e-27
6.07279e-28
-1.29087e-28
-1.32482e-28
-7.11473e-30
-1.61868e-29
-3.32894e-31
-1.32227e-30
-1.26859e-32
-7.99252e-32
-3.97923e-34
-3.63144e-33
-1.03085e-35
-1.30041e-34
-2.18374e-37
-3.74307e-36
-3.73282e-39
-8.58693e-38
-4.98759e-41
-1.60373e-39
-4.83962e-43
-2.45711e-41
-3.1256e-45
-2.71422e-43
-7.20472e-48
-2.01152e-45
-1.10305e-48
-5.64893e-48
-1.13913e-48
-2.70799e-21
6.54799e-21
-1.76112e-21
4.37236e-21
-2.17579e-22
8.81095e-22
-8.09857e-24
3.59449e-23
-2.69254e-25
8.32683e-26
-1.10469e-26
-4.5089e-26
-4.85725e-28
-2.73397e-27
-1.94319e-29
-1.52381e-28
-6.63118e-31
-7.37508e-30
-1.89847e-32
-2.93045e-31
-4.51229e-34
-9.51692e-33
-8.78787e-36
-2.51626e-34
-1.35354e-37
-5.42774e-36
-1.59114e-39
-9.22454e-38
-1.33372e-41
-1.19415e-39
-6.81562e-44
-1.01197e-41
-1.31397e-46
-5.91566e-44
-6.90029e-49
-1.84558e-46
-3.61639e-48
-1.07847e-19
2.57496e-19
-1.21252e-19
2.50584e-19
-4.37269e-20
1.18072e-19
-1.26328e-21
1.01748e-20
-2.09369e-23
-1.541e-23
-5.39914e-25
-6.64817e-24
-1.70491e-26
-2.31784e-25
-5.47918e-28
-8.57523e-27
-1.62939e-29
-3.12397e-28
-4.25155e-31
-1.03626e-29
-9.39504e-33
-2.98422e-31
-1.71052e-34
-7.15594e-33
-2.45793e-36
-1.39955e-34
-2.66779e-38
-2.06536e-36
-1.96462e-40
-2.37828e-38
-9.26429e-43
-2.07861e-40
-2.1274e-45
-1.26681e-42
-1.73089e-47
-4.37963e-45
-1.39668e-46
-2.75244e-18
3.69997e-18
-1.56512e-17
1.80841e-17
-4.74188e-18
2.18899e-17
-6.96174e-20
1.08167e-18
-8.29493e-22
-2.78423e-21
-1.81012e-23
-2.42579e-22
-4.51013e-25
-9.7319e-24
-1.15003e-26
-3.00516e-25
-2.89142e-28
-8.39482e-27
-6.67586e-30
-2.34437e-28
-1.33882e-31
-5.94042e-30
-2.23487e-33
-1.27152e-31
-2.98046e-35
-2.24159e-33
-3.0901e-37
-3.30834e-35
-2.46368e-39
-3.93782e-37
-1.27826e-41
-3.59997e-39
-2.55739e-44
-2.23847e-41
-3.7362e-46
-5.25989e-44
-3.7338e-45
-1.01803e-16
1.33903e-16
-4.71435e-16
7.09779e-16
-4.77797e-17
4.73623e-16
-7.68216e-19
6.69923e-18
-1.26044e-20
-4.71444e-20
-3.28627e-22
-3.87625e-21
-7.9071e-24
-2.04096e-22
-1.74986e-25
-6.18195e-24
-3.77432e-27
-1.38016e-25
-7.70324e-29
-3.17086e-27
-1.40783e-30
-7.17823e-29
-2.22898e-32
-1.4971e-30
-3.02133e-34
-2.75161e-32
-3.31547e-36
-4.2836e-34
-2.63655e-38
-5.28257e-36
-1.31399e-40
-4.79722e-38
-1.97893e-43
-2.88766e-40
-5.4549e-45
-6.29058e-43
-6.77175e-44
-4.9109e-15
6.19679e-15
-1.96732e-15
6.31114e-15
-8.51926e-17
8.78406e-16
-3.62907e-18
6.46094e-18
-1.30824e-19
-5.05624e-19
-3.5538e-21
-8.03486e-20
-9.07383e-23
-2.61278e-21
-1.98119e-24
-9.04773e-23
-3.85198e-26
-2.37949e-24
-7.07255e-28
-4.70702e-26
-1.23871e-29
-8.41596e-28
-1.98055e-31
-1.50497e-29
-2.66323e-33
-2.58354e-31
-2.83865e-35
-3.90372e-33
-2.21143e-37
-4.83362e-35
-1.05497e-39
-4.51477e-37
-1.74424e-42
-2.77742e-39
-5.93211e-44
-7.82289e-42
-9.18082e-43
-1.10769e-14
2.57511e-14
-2.26688e-15
1.14748e-14
-6.91719e-17
1.22648e-15
-1.17147e-17
1.51726e-18
-1.35816e-18
-2.8018e-18
-2.56995e-20
-1.13023e-18
-7.25589e-22
-1.5739e-20
-2.22561e-23
-6.24742e-22
-4.57063e-25
-4.00798e-23
-7.57305e-27
-1.17204e-24
-1.16066e-28
-2.27734e-26
-1.63616e-30
-3.55631e-28
-2.00944e-32
-4.67124e-30
-2.0408e-34
-5.12699e-32
-1.48092e-36
-4.83492e-34
-6.93532e-39
-3.54843e-36
-1.26393e-41
-1.82304e-38
-4.90783e-43
-5.09168e-41
-9.64445e-42
-9.2816e-15
4.9475e-14
-9.32573e-16
6.98696e-15
-2.13786e-17
1.11422e-16
-1.55674e-17
5.97179e-20
-6.03171e-18
-4.14344e-18
-1.1862e-19
-4.22374e-18
-3.55022e-21
-3.61869e-20
-1.60965e-22
-5.85737e-22
-4.37259e-24
-2.04203e-22
-8.90589e-26
-8.89209e-24
-1.43932e-27
-2.65522e-25
-1.89665e-29
-5.98519e-27
-1.99671e-31
-1.05082e-28
-1.63793e-33
-1.40552e-30
-1.01061e-35
-1.40049e-32
-3.78311e-38
-9.37496e-35
-5.93874e-41
-3.21251e-37
-3.14317e-42
-6.58948e-41
-4.02612e-41
8.52631e-06
-3.69041e-05
2.1295e-05
-6.31879e-05
3.3453e-05
-6.35346e-05
4.50823e-05
-5.98046e-05
5.69062e-05
-5.85129e-05
6.92504e-05
-5.95413e-05
8.22122e-05
-6.1698e-05
9.58482e-05
-6.42292e-05
0.000110245
-6.68398e-05
0.000125503
-6.93364e-05
0.000141753
-7.15419e-05
0.000159083
-7.31624e-05
0.000177503
-7.36432e-05
0.000197038
-7.22691e-05
0.000217685
-6.81754e-05
0.000239144
-6.00263e-05
0.000260466
-4.5561e-05
0.00028011
-2.17187e-05
0.000298904
1.07901e-05
0.000304561
7.10101e-05
0.000287896
0.000157712
0.000257167
0.000251965
0.000362229
0.000233136
8.94762e-06
-4.58518e-05
2.11129e-05
-7.53532e-05
3.2436e-05
-7.48577e-05
4.34541e-05
-7.08227e-05
5.49111e-05
-6.99699e-05
6.7023e-05
-7.16532e-05
7.98247e-05
-7.44998e-05
9.33886e-05
-7.77931e-05
0.000107869
-8.13198e-05
0.000123469
-8.49364e-05
0.000140432
-8.85058e-05
0.000158991
-9.17214e-05
0.000179446
-9.40978e-05
0.000202135
-9.49579e-05
0.000227323
-9.33643e-05
0.000255401
-8.81047e-05
0.000286895
-7.70611e-05
0.000321759
-5.66044e-05
0.000349951
-2.14184e-05
0.000351397
4.96855e-05
0.000324567
0.000118082
0.00031845
0.000205551
0.000374533
0.00030651
9.28611e-06
-5.51379e-05
2.06864e-05
-8.67536e-05
3.10615e-05
-8.52328e-05
4.14226e-05
-8.11837e-05
5.24356e-05
-8.09829e-05
6.41746e-05
-8.33922e-05
7.6635e-05
-8.69603e-05
8.99216e-05
-9.10797e-05
0.000104267
-9.56651e-05
0.000119967
-0.000100637
0.000137359
-0.000105897
0.000156891
-0.000111254
0.000179162
-0.000116368
0.000204417
-0.000120213
0.000232806
-0.000121754
0.000264709
-0.000120026
0.000297215
-0.000109709
0.000294449
-7.45934e-05
0.000182705
-1.11112e-05
9.02074e-05
3.57236e-06
0.000106967
1.2325e-05
0.000168375
4.1604e-05
0.000243976
0.000278598
9.48403e-06
-6.46219e-05
1.99619e-05
-9.72314e-05
2.93435e-05
-9.46144e-05
3.90151e-05
-9.08553e-05
4.94792e-05
-9.1447e-05
6.06702e-05
-9.45832e-05
7.25719e-05
-9.88619e-05
8.53313e-05
-0.000103839
9.9263e-05
-0.000109597
0.000114708
-0.000116082
0.000132123
-0.000123312
0.00015226
-0.000131391
0.000175708
-0.000139816
0.000201999
-0.000146502
0.00023056
-0.000150312
0.00025332
-0.000142994
0.000189202
-8.32286e-05
3.32523e-05
-1.92749e-05
7.49087e-06
-1.10439e-06
1.07528e-05
3.84279e-08
2.03161e-05
2.36015e-06
5.03713e-05
1.06662e-05
0.000103796
0.000229938
9.51584e-06
-7.41377e-05
1.8927e-05
-0.000106643
2.72991e-05
-0.000102987
3.62406e-05
-9.97968e-05
4.60238e-05
-0.00010123
5.64697e-05
-0.000105029
6.7573e-05
-0.000109965
7.95261e-05
-0.000115792
9.26992e-05
-0.00012277
0.000107409
-0.000130792
0.000124298
-0.000140201
0.000144179
-0.000151271
0.000167328
-0.000162963
0.000192303
-0.000171454
0.000208866
-0.000166712
0.000133243
-9.55164e-05
1.92564e-05
-1.53911e-05
1.91913e-06
-2.14937e-06
9.10465e-07
-1.37438e-07
9.24193e-07
1.02631e-08
2.95251e-06
3.22702e-07
1.13796e-05
2.18721e-06
4.65676e-05
0.000122845
9.36774e-06
-8.35055e-05
1.7599e-05
-0.000114874
2.49723e-05
-0.00011036
3.31354e-05
-0.00010796
4.20966e-05
-0.000110191
5.16058e-05
-0.000114538
6.16772e-05
-0.000120037
7.25305e-05
-0.000126645
8.44893e-05
-0.000134729
9.77924e-05
-0.000144094
0.000113166
-0.000155573
0.000131025
-0.000169124
0.000151903
-0.000183818
0.000168346
-0.000187707
0.000109098
-0.000108043
1.57729e-05
-1.51298e-05
2.17685e-06
-1.76409e-06
1.8212e-07
-1.6382e-07
4.56295e-08
-4.87115e-09
5.67077e-08
4.7059e-10
3.57874e-07
3.307e-08
2.17882e-06
3.68435e-07
7.25918e-06
4.14899e-05
9.04186e-06
-9.25473e-05
1.60313e-05
-0.000121863
2.24417e-05
-0.00011677
2.97766e-05
-0.000115295
3.77867e-05
-0.000118201
4.6187e-05
-0.000122938
5.49883e-05
-0.000128838
6.43651e-05
-0.000136021
7.44201e-05
-0.000144782
8.52803e-05
-0.000154949
9.72994e-05
-0.000167577
0.000111051
-0.000182823
0.000127844
-0.000200421
9.8295e-05
-0.000137546
1.51478e-05
-1.6291e-05
1.79193e-06
-1.61794e-06
1.66218e-07
-1.34919e-07
4.90963e-09
-4.03899e-09
6.16805e-10
-3.86275e-11
2.32605e-09
-1.60192e-10
3.5717e-08
1.00956e-09
3.45217e-07
6.63173e-08
1.547e-06
6.06348e-06
8.57068e-06
-0.000101118
1.42967e-05
-0.000127589
1.97896e-05
-0.000122262
2.62397e-05
-0.000121744
3.31629e-05
-0.000125123
4.02459e-05
-0.000130019
4.74312e-05
-0.000136018
5.47438e-05
-0.000143326
6.20148e-05
-0.000152038
6.92935e-05
-0.000162176
7.6479e-05
-0.000174632
8.65177e-05
-0.000192444
8.43935e-05
-0.000191251
1.55754e-05
-3.11816e-05
1.58091e-06
-2.14146e-06
1.35447e-07
-1.67895e-07
3.98247e-09
-5.1258e-09
1.27849e-12
4.28608e-12
-4.84019e-12
-1.52187e-12
1.65714e-11
-2.57771e-12
2.39733e-09
-1.07409e-10
6.61558e-08
4.86153e-09
2.31489e-07
1.38449e-06
7.9989e-06
-0.000109114
1.24081e-05
-0.000131991
1.69767e-05
-0.000126825
2.2424e-05
-0.000127184
2.80383e-05
-0.000130724
3.34731e-05
-0.000135429
3.85632e-05
-0.000141065
4.32128e-05
-0.000147903
4.73681e-05
-0.000156058
5.15682e-05
-0.000165938
5.53758e-05
-0.000177223
5.51592e-05
-0.000149875
1.55053e-05
-3.42122e-05
1.84077e-06
-1.76302e-06
1.48732e-07
-4.09284e-07
5.01949e-09
-2.43498e-08
-6.79488e-12
8.54647e-12
-2.4923e-12
3.6701e-12
2.9239e-13
-2.75893e-13
2.95884e-11
2.27093e-12
1.62959e-10
4.94973e-11
9.83932e-09
1.77145e-09
1.16166e-08
2.36537e-07
7.31071e-06
-0.00011639
1.02169e-05
-0.000134832
1.37235e-05
-0.000130272
1.79382e-05
-0.000131324
2.19323e-05
-0.000134586
2.54232e-05
-0.000138684
2.84429e-05
-0.000143685
3.12275e-05
-0.000150051
3.40374e-05
-0.000145224
3.26299e-05
-0.000107076
2.37118e-05
-5.32927e-05
2.00726e-05
-6.0922e-06
8.7692e-07
-5.7328e-07
8.96124e-08
-1.0012e-06
7.12599e-09
-5.51405e-07
2.78797e-10
-1.84349e-08
-6.50642e-12
3.00228e-10
-4.34733e-13
1.41203e-12
5.68552e-13
2.57247e-13
7.23048e-12
1.01189e-12
3.79401e-11
1.64035e-11
3.16841e-10
3.90573e-10
3.9125e-09
2.91517e-08
6.53908e-06
-0.000122544
7.50401e-06
-0.000132315
9.89084e-06
-0.000128557
1.28468e-05
-0.000124099
1.52071e-05
-0.000114474
1.67508e-05
-9.90289e-05
1.7304e-05
-7.81923e-05
1.62757e-05
-5.34332e-05
1.21898e-05
-7.6813e-06
5.20105e-06
-6.44797e-07
6.71233e-06
-7.13366e-08
6.38229e-07
-8.19054e-09
6.64645e-08
-1.41348e-09
5.49591e-07
-9.57936e-07
2.84067e-07
-1.60172e-06
4.21499e-09
-9.94068e-08
3.96996e-11
4.2597e-09
-1.32225e-12
4.43086e-11
-3.81516e-13
1.56298e-13
1.81498e-12
4.13967e-13
2.20352e-11
5.22199e-12
4.1909e-10
6.14684e-11
2.04035e-09
8.67797e-10
4.12585e-06
-4.14307e-05
3.12625e-06
-2.87954e-05
4.30073e-06
-2.34287e-05
5.0254e-06
-3.35523e-06
5.05367e-06
-7.52745e-08
4.51701e-06
-2.60987e-09
3.36653e-06
-1.2945e-10
5.13411e-06
-9.34755e-12
7.21901e-07
-1.57016e-12
7.71841e-08
-5.56935e-11
7.36201e-09
-1.71429e-09
1.79612e-09
-2.70515e-09
8.14178e-10
-1.24474e-09
3.46924e-07
-3.78583e-07
5.23098e-07
-1.34949e-06
7.31927e-09
-2.34471e-07
2.06514e-10
1.09538e-08
-3.10107e-13
2.51376e-10
-1.28735e-13
5.56837e-14
5.93063e-13
2.34822e-13
5.39791e-12
2.98577e-12
5.71195e-11
3.72101e-11
3.90764e-10
1.14812e-09
3.23856e-07
1.11202e-23
1.89917e-07
1.53626e-23
3.16441e-07
-2.16365e-22
7.80234e-08
-3.33333e-20
2.74895e-09
-2.77862e-18
1.39082e-10
-1.6773e-16
9.63736e-12
-5.91636e-15
4.43416e-13
-1.80172e-13
8.45974e-13
-1.25901e-12
7.83566e-12
-4.89106e-11
4.46219e-10
-2.13062e-09
2.04011e-09
-4.49884e-09
4.2361e-09
-3.97489e-09
1.46774e-07
-1.26474e-09
4.53241e-07
-1.19541e-06
6.28051e-09
-2.411e-07
-2.73778e-11
1.52912e-08
-7.16792e-14
2.24097e-10
-6.60627e-14
3.73124e-14
1.49207e-13
1.51562e-13
1.65928e-12
2.09573e-12
1.3983e-11
2.91073e-11
3.15332e-10
1.2706e-10
-4.92861e-25
2.13576e-23
-1.87921e-24
4.86722e-23
4.61529e-24
-2.2286e-22
1.0044e-21
-3.4359e-20
1.13263e-19
-2.89525e-18
8.91878e-18
-1.76877e-16
3.63381e-16
-6.27801e-15
7.16574e-14
-2.4597e-13
5.46314e-12
-6.61342e-12
1.54275e-10
-1.98947e-10
2.44209e-09
-4.43803e-09
7.59716e-09
-1.08426e-08
5.2971e-09
-2.85823e-09
3.62482e-09
-1.45304e-09
2.83973e-07
-8.95362e-07
6.66381e-09
-1.17653e-07
-2.28334e-10
1.7279e-08
-8.92849e-14
1.03297e-10
-8.99675e-14
1.99621e-14
8.81066e-14
1.00114e-13
1.04754e-12
1.12447e-12
1.28644e-11
1.44919e-11
1.29524e-10
2.14084e-10
-8.68609e-25
2.51803e-23
-4.51862e-24
1.21594e-22
4.82704e-23
-4.19372e-22
8.64271e-21
-6.6824e-20
8.85599e-19
-6.29579e-18
9.16749e-17
-3.93584e-16
1.20734e-14
-1.83631e-14
6.70911e-13
-8.7867e-13
2.17497e-11
-2.7668e-11
5.42578e-10
-7.22002e-10
1.17038e-08
-2.00893e-08
2.97851e-08
-2.08139e-07
1.77357e-08
-4.80511e-08
1.89442e-08
-4.60523e-09
1.19498e-07
-2.00754e-07
-1.39838e-08
2.53042e-08
-8.71886e-11
3.38351e-09
-5.13473e-14
1.61049e-11
-5.26459e-14
1.2057e-14
7.47162e-14
6.92266e-14
6.6203e-13
4.25001e-13
8.77787e-12
4.05145e-12
2.37795e-11
7.11832e-11
-7.47824e-25
3.0606e-23
-6.22845e-24
2.45396e-22
2.12214e-22
-2.97351e-21
3.52445e-20
-4.19826e-19
3.54583e-18
-4.0873e-17
3.9012e-16
-2.02185e-15
5.4093e-14
-9.43841e-14
2.50902e-12
-4.02085e-12
1.01501e-10
-1.26772e-10
3.84537e-09
-4.4883e-09
1.15089e-08
-1.05437e-07
1.86485e-08
-2.154e-07
1.17366e-08
-1.35052e-07
1.65132e-08
-4.11866e-08
-4.6677e-08
-1.29888e-08
-3.08557e-09
2.26938e-08
-1.45926e-11
3.13173e-10
-3.42675e-14
1.55739e-12
-3.12778e-14
4.48328e-15
-1.09383e-14
3.70473e-14
2.42499e-14
1.04655e-13
1.01422e-12
8.82178e-13
4.53945e-12
3.43607e-12
-3.53369e-25
5.64185e-23
-3.16575e-24
3.62856e-22
1.85102e-22
-1.08255e-20
1.86052e-20
-1.30906e-18
5.98878e-19
-8.43817e-17
1.69347e-16
-3.84329e-15
6.41603e-14
-2.07786e-13
3.32232e-12
-8.4793e-12
1.24202e-10
-2.39464e-10
9.83808e-10
-4.87068e-09
-6.02865e-08
-1.21613e-07
-7.71908e-08
-1.80865e-07
-8.56884e-08
-1.08924e-07
-8.3762e-08
-2.5482e-08
-4.61206e-08
1.50692e-08
-2.45742e-10
5.85867e-09
-1.29925e-12
6.83154e-11
-9.62433e-15
2.63902e-13
-1.1761e-14
1.37501e-15
-1.1559e-14
7.33093e-15
-3.05965e-14
1.46782e-14
-9.73439e-14
1.38339e-13
6.79592e-13
-1.86096e-12
2.39636e-24
1.19903e-22
-4.0597e-22
5.91081e-22
-1.59712e-21
-2.21874e-20
-5.31937e-19
-1.86307e-18
-6.49576e-18
-9.15465e-17
-1.16321e-15
-2.53853e-15
-1.20266e-13
-8.9931e-14
-6.31327e-12
-2.41129e-12
-1.98105e-10
-5.13118e-11
-4.16814e-09
-9.59386e-10
-8.11758e-08
-2.1025e-08
-1.41836e-07
-1.01913e-07
-1.70443e-07
-6.26862e-08
-2.07215e-08
-3.2986e-10
-5.56464e-09
1.28296e-10
-6.29956e-11
3.70193e-10
-2.42459e-13
5.60352e-12
-3.54897e-15
2.0552e-14
-2.85921e-15
1.58286e-16
-3.12824e-15
1.11882e-15
-7.60926e-15
2.29994e-15
-4.8716e-14
1.67139e-14
7.33246e-14
-5.03523e-13
1.25978e-23
2.32113e-22
-2.0436e-21
2.00144e-21
-5.75274e-21
-3.35714e-20
-7.00059e-19
-2.75024e-18
-3.41444e-17
-1.73327e-16
3.34357e-16
-5.2219e-15
-5.41382e-14
-2.86858e-14
-2.40316e-12
-4.35489e-14
-5.3429e-11
-2.44817e-13
-1.00923e-09
-3.23355e-12
-1.95863e-08
-2.77389e-11
-3.41075e-08
-2.15767e-10
-4.8765e-10
-1.14761e-09
-4.03945e-10
-1.37573e-10
-2.88162e-10
2.16501e-11
-5.14241e-12
4.58093e-11
-1.90233e-14
4.82566e-13
-2.83633e-16
1.67388e-15
-3.40682e-16
2.80384e-17
-6.14594e-16
1.53183e-16
-1.52875e-15
3.44114e-16
-8.6369e-15
1.54582e-15
7.89715e-15
-8.69713e-14
6.63535e-23
3.8473e-22
-4.63027e-21
6.36117e-21
-1.69734e-20
-2.1289e-20
-1.3749e-18
-1.86732e-18
-3.39783e-16
-1.10704e-16
-4.96645e-15
-3.78834e-15
-5.54946e-15
-1.37698e-14
-1.68253e-14
-1.29978e-14
-2.60306e-13
-7.02597e-15
-3.40684e-12
-8.47465e-14
-3.05788e-11
-5.01569e-13
-2.45679e-10
-7.13345e-13
-1.39214e-09
-1.30023e-12
-7.73068e-11
-1.06606e-13
-4.59161e-11
1.50509e-12
-4.76084e-13
4.51492e-13
-1.68793e-15
8.44505e-15
-3.405e-17
3.67784e-17
-5.78318e-17
7.87664e-18
-9.55515e-17
1.94093e-17
-2.23128e-16
3.65242e-17
-1.2264e-15
1.74367e-16
1.31092e-15
-1.06548e-14
2.7206e-22
4.6638e-22
-2.00859e-21
1.22615e-20
-1.55818e-19
1.32479e-19
-2.73467e-18
7.11679e-19
-1.89649e-16
1.47753e-18
-3.14388e-15
-2.84226e-18
-3.97084e-15
-5.29725e-17
-3.68223e-15
-6.68682e-16
-1.02921e-14
-5.21039e-15
-4.90559e-14
-5.06491e-14
-1.13679e-13
-3.40335e-13
-2.42507e-13
-6.56583e-13
-1.10545e-12
-4.88884e-13
-1.23738e-12
-2.15476e-13
-4.56205e-13
2.25024e-15
-8.29906e-15
1.20571e-14
-4.29489e-17
2.07359e-16
-6.90342e-18
5.56513e-19
-1.16015e-17
2.19212e-18
-1.40341e-17
2.91781e-18
-2.6269e-17
3.55807e-18
-1.53424e-16
1.54086e-17
1.21945e-16
-1.34589e-15
6.17338e-22
2.53008e-22
1.36392e-20
6.49185e-21
1.13053e-19
6.80022e-20
3.2546e-19
3.43708e-19
-8.44396e-19
5.22432e-19
-1.7414e-18
-2.13039e-18
-5.20142e-17
-5.13492e-17
-6.33208e-16
-8.21091e-16
-6.73899e-15
-3.34154e-15
-1.54619e-13
-4.19323e-15
-6.80318e-13
-8.84689e-15
-8.0885e-13
-5.33463e-15
-7.12465e-13
-9.84434e-16
-1.51037e-14
-3.01537e-16
-1.24564e-14
-3.21347e-17
-2.06631e-16
5.74722e-17
-1.29984e-18
2.3584e-18
-2.59115e-18
8.97059e-20
-2.73631e-18
5.6838e-19
-2.08201e-18
5.59562e-19
-2.75516e-18
3.32938e-19
-1.34007e-17
1.16078e-18
8.34585e-18
-1.27573e-16
3.6488e-22
6.49981e-23
7.79691e-21
1.64485e-21
6.06678e-20
1.68454e-20
1.27464e-19
8.09982e-20
-9.76786e-19
9.52704e-20
-2.37153e-18
-8.45032e-19
-1.22647e-16
-1.73877e-17
-1.48744e-15
-4.3785e-16
-3.3478e-15
-2.58834e-15
-1.85747e-15
-4.66922e-15
-6.0726e-16
-4.62378e-15
-3.18396e-16
-3.21268e-15
-2.1384e-16
-7.69851e-16
-2.03415e-16
-8.91578e-17
-7.13449e-17
-1.88215e-18
-2.11167e-18
4.36889e-19
-1.02923e-19
3.49482e-19
-4.42601e-19
4.35472e-20
-5.7631e-19
2.07149e-19
-2.43951e-19
7.9554e-20
-2.5968e-19
2.54758e-20
-1.09528e-18
7.12517e-20
5.07627e-19
-9.73758e-18
9.95707e-23
-7.15168e-29
2.07821e-21
-1.18294e-26
1.53614e-20
-9.53779e-25
2.49253e-20
-5.04918e-23
-2.73104e-19
-1.96072e-21
-1.04036e-18
-7.77765e-20
-2.27064e-17
-1.33685e-18
-7.02823e-16
-3.538e-17
-3.6901e-15
-6.14647e-16
-5.11188e-15
-2.70913e-15
-4.71741e-15
-3.02454e-15
-2.7829e-15
-2.71607e-15
-5.8693e-16
-1.74301e-15
-3.24338e-17
-3.22986e-16
-3.35057e-19
-1.21337e-17
9.2266e-20
9.56522e-21
9.87441e-19
-9.37632e-21
3.48051e-19
-2.07817e-19
-6.49343e-20
-1.115e-19
-1.70865e-20
3.33207e-21
-1.79639e-20
1.10544e-21
-7.37349e-20
3.60606e-21
2.63193e-20
-6.34489e-19
-7.14018e-29
-1.15025e-31
-1.18811e-26
-1.96864e-29
-9.64015e-25
-1.64586e-27
-5.13652e-23
-9.06808e-26
-2.0084e-21
-3.68449e-24
-7.9714e-20
-8.42325e-23
-1.44235e-18
-1.54484e-21
-5.12065e-17
-3.43688e-20
-8.26889e-16
-9.2332e-19
-3.23566e-15
-1.34878e-17
-4.14117e-15
-5.54353e-17
-4.02004e-15
-6.04592e-17
-1.82828e-15
-3.80856e-17
-1.56165e-16
-6.92638e-18
6.6795e-19
-4.16634e-19
1.6651e-18
3.15144e-20
1.4799e-18
-1.02532e-19
5.82904e-19
-2.49193e-19
-2.67612e-21
-1.60984e-19
-7.48141e-22
5.07967e-23
-8.45766e-22
3.52301e-23
-4.07927e-21
1.58925e-22
1.16101e-21
-3.53505e-20
-1.14603e-31
-4.48321e-34
-1.97256e-29
-8.07865e-32
-1.659e-27
-7.11427e-30
-9.19605e-26
-4.13837e-28
-3.76032e-24
-1.78228e-26
-8.75209e-23
-4.10866e-25
-1.62919e-21
-8.65464e-24
-3.69394e-20
-2.06854e-22
-1.34624e-18
-5.98028e-21
-1.80079e-17
-7.82938e-20
-5.91386e-17
-3.31149e-19
-5.12929e-17
-5.93945e-19
-1.79409e-17
-5.94923e-19
-2.70928e-18
-4.06406e-19
5.54794e-19
-6.93494e-20
9.38604e-19
4.62933e-21
8.59006e-19
-2.2338e-20
3.63074e-19
-1.11532e-19
-7.14958e-23
-8.56623e-20
-3.17553e-23
1.10738e-24
-3.68215e-23
1.19743e-24
-1.93728e-22
6.11993e-24
4.36417e-23
-1.68432e-21
-4.48067e-34
-2.97282e-37
-8.11861e-32
-5.70455e-35
-7.19092e-30
-5.36026e-33
-4.20745e-28
-3.33704e-31
-1.82303e-26
-1.54478e-29
-4.46249e-25
-3.78357e-28
-9.10269e-24
-8.92126e-27
-2.26425e-22
-2.2544e-25
-8.76455e-21
-5.05816e-24
-9.52029e-20
-1.36051e-22
-3.36338e-19
-1.88965e-21
-5.75095e-19
-8.42526e-21
-5.92347e-19
-1.44549e-20
-3.13689e-19
-1.32256e-20
4.78732e-20
-4.46558e-21
2.03334e-19
1.27016e-21
2.61583e-19
4.09459e-22
1.26343e-19
-2.44227e-20
-1.5389e-24
-2.5095e-20
-1.2417e-24
4.70859e-25
-1.60597e-24
3.56606e-26
-7.98143e-24
2.00218e-25
1.40165e-24
-6.88275e-23
-2.97031e-37
-3.32931e-40
-5.72575e-35
-7.22604e-38
-5.40567e-33
-7.67105e-36
-3.38114e-31
-5.38332e-34
-1.57268e-29
-2.80686e-32
-3.8948e-28
-7.6077e-31
-9.30398e-27
-2.12182e-29
-2.35025e-25
-5.88435e-28
-5.77534e-24
-1.43826e-26
-2.37655e-22
-4.09173e-25
-3.07031e-21
-8.008e-24
-1.11051e-20
-4.23953e-23
-1.66692e-20
-6.42894e-23
-1.42447e-20
-1.12422e-23
9.34623e-21
6.82081e-23
2.85637e-20
1.52943e-22
4.52181e-20
1.22567e-22
2.66302e-20
-2.6329e-21
3.74097e-25
-4.35098e-21
-4.32879e-26
-1.01094e-25
-5.60503e-26
8.30941e-28
-2.7964e-25
5.54965e-27
3.91135e-26
-2.42339e-24
-3.21188e-40
5.62295e-43
-6.97515e-38
-5.57494e-41
-7.43723e-36
-1.0032e-38
-5.2433e-34
-7.38741e-37
-2.7467e-32
-3.68843e-35
-7.88833e-31
-1.35251e-33
-2.20451e-29
-3.88956e-32
-6.1247e-28
-1.15608e-30
-1.55405e-26
-4.18897e-29
-8.07926e-25
-4.80864e-28
-1.59878e-23
1.45055e-27
-5.38791e-23
3.19926e-26
-4.85108e-23
2.23469e-25
2.23781e-22
9.54948e-25
8.70659e-22
2.93797e-24
2.25059e-21
6.6685e-24
4.49959e-21
9.05123e-24
3.4976e-21
-1.05173e-22
2.21797e-25
-4.52987e-22
-1.01824e-27
-5.255e-26
-1.52604e-27
1.6496e-29
-8.31526e-27
1.31096e-28
9.73491e-28
-7.45588e-26
-8.1552e-43
1.78144e-42
-2.98061e-40
2.41496e-40
-2.58025e-38
1.54724e-38
-1.39784e-36
6.33294e-37
-5.68231e-35
1.85409e-35
-1.82132e-33
4.11993e-34
-4.78414e-32
7.19464e-33
-2.15959e-30
1.00898e-31
-1.90254e-28
1.15183e-30
1.4392e-27
1.07931e-29
3.93617e-26
8.34613e-29
3.48453e-25
5.35008e-28
1.95771e-24
2.85767e-27
8.45112e-24
1.27796e-26
3.06956e-23
4.76859e-26
9.6382e-23
1.43172e-25
2.48864e-22
2.95339e-25
2.86961e-22
9.19904e-26
4.32634e-26
-2.7749e-23
-2.0186e-29
-8.89692e-27
-3.50822e-29
3.57034e-31
-2.11593e-28
2.66745e-30
2.09202e-29
-2.05682e-27
1.48987e-41
1.00838e-44
1.94127e-39
1.3117e-42
1.21612e-37
8.05302e-41
4.87475e-36
3.16223e-39
1.4005e-34
8.9094e-38
3.06048e-33
1.91591e-36
5.27025e-32
3.26619e-35
7.31504e-31
4.52776e-34
8.31009e-30
5.19723e-33
7.81747e-29
5.00798e-32
6.15792e-28
4.09614e-31
4.11702e-27
2.87121e-30
2.37734e-26
1.7389e-29
1.20856e-25
9.14465e-29
5.47566e-25
4.1601e-28
2.18637e-24
1.59268e-27
7.15842e-24
4.63811e-27
1.44296e-23
6.14187e-27
4.74088e-27
-9.27129e-25
-3.3683e-31
-8.34185e-28
-6.67193e-31
6.08642e-33
-4.64377e-30
4.68555e-32
3.92815e-31
-4.87614e-29
7.723e-44
3.95022e-47
9.64689e-42
4.76291e-45
5.79506e-40
2.72606e-43
2.23366e-38
1.00705e-41
6.20224e-37
2.70109e-40
1.32065e-35
5.61261e-39
2.24226e-34
9.41475e-38
3.11875e-33
1.31213e-36
3.62704e-32
1.55246e-35
3.58755e-31
1.58592e-34
3.06575e-30
1.41807e-33
2.29919e-29
1.12226e-32
1.53751e-28
7.92595e-32
9.30328e-28
5.01493e-31
5.14251e-27
2.82981e-30
2.59003e-26
1.39073e-29
1.15681e-25
5.5182e-29
4.22075e-25
1.31585e-28
3.25695e-28
-1.32376e-26
-4.74384e-33
-4.8012e-29
-1.05748e-32
8.79027e-35
-8.77384e-32
8.74992e-34
6.44367e-33
-1.0071e-30
2.64098e-46
5.39957e-51
3.07813e-44
7.65912e-49
1.73912e-42
5.14347e-47
6.37708e-41
2.22757e-45
1.70897e-39
7.00658e-44
3.5743e-38
1.70992e-42
6.0868e-37
3.37959e-41
8.69929e-36
5.5808e-40
1.06821e-34
7.89267e-39
1.14896e-33
9.76437e-38
1.10084e-32
1.07685e-36
9.53819e-32
1.07631e-35
7.57468e-31
9.87229e-35
5.57358e-30
8.35151e-34
3.82112e-29
6.46388e-33
2.42638e-28
4.43939e-32
1.38187e-27
2.50443e-31
6.33857e-27
9.25155e-31
1.44853e-29
9.49087e-32
-5.62715e-35
-1.73484e-30
-1.42609e-34
1.06581e-36
-1.41935e-33
1.38327e-35
9.31563e-35
-1.81398e-32
3.94345e-50
1.61395e-58
5.39698e-48
4.2373e-56
3.57431e-46
5.31563e-54
1.53599e-44
4.34615e-52
4.829e-43
2.60763e-50
1.18809e-41
1.22538e-48
2.39194e-40
4.70012e-47
4.07458e-39
1.51412e-45
6.03692e-38
4.18297e-44
7.97076e-37
1.00664e-42
9.58616e-36
2.13456e-41
1.07003e-34
4.01769e-40
1.12355e-33
6.7271e-39
1.11549e-32
9.96679e-38
1.04001e-31
1.28438e-36
8.88231e-31
1.38602e-35
6.53763e-30
1.1552e-34
3.44405e-29
6.07695e-34
4.17478e-31
7.90029e-34
-5.62836e-37
-3.86485e-32
-1.64975e-36
1.08622e-38
-1.94005e-35
1.88478e-37
1.19547e-36
-2.8693e-34
1.99341e-57
8.90383e-61
5.09841e-55
1.91075e-58
6.37341e-53
1.94398e-56
5.22091e-51
1.27943e-54
3.15715e-49
6.13883e-53
1.50508e-47
2.2938e-51
5.89913e-46
6.96308e-50
1.95782e-44
1.76909e-48
5.62369e-43
3.8472e-47
1.42164e-41
7.28996e-46
3.20241e-40
1.22141e-44
6.47962e-39
1.83172e-43
1.18034e-37
2.48301e-42
1.92472e-36
3.06256e-41
2.75909e-35
3.44152e-40
3.34133e-34
3.49268e-39
3.13262e-33
3.10417e-38
1.79072e-32
2.20339e-37
7.62607e-33
8.3344e-37
-4.75612e-39
-4.98008e-34
-1.64421e-38
9.346e-41
-2.3011e-37
2.23623e-39
1.3741e-38
-4.00319e-36
8.05106e-60
5.26654e-65
1.67014e-57
1.40836e-62
1.68016e-55
1.78546e-60
1.09989e-53
1.46598e-58
5.28295e-52
8.79347e-57
1.99021e-50
4.11917e-55
6.14029e-49
1.57329e-53
1.60027e-47
5.05236e-52
3.60848e-46
1.39667e-50
7.18059e-45
3.38766e-49
1.2827e-43
7.32622e-48
2.08849e-42
1.43187e-46
3.14179e-41
2.55643e-45
4.41728e-40
4.19794e-44
5.85256e-39
6.34407e-43
7.32662e-38
8.73466e-42
8.6037e-37
1.06269e-40
9.22972e-36
1.05413e-39
8.39777e-35
6.42448e-39
-3.40196e-41
-3.15329e-36
-1.41704e-40
6.85039e-43
-2.38828e-39
2.32632e-41
1.43017e-40
-4.94999e-38
5.1732e-64
1.26124e-70
1.33828e-61
4.92102e-68
1.67953e-59
9.11061e-66
1.37363e-57
1.09845e-63
8.26259e-56
9.74548e-62
3.91081e-54
6.80519e-60
1.52229e-52
3.90553e-58
5.03178e-51
1.89899e-56
1.44836e-49
8.00242e-55
3.70758e-48
2.9743e-53
8.59566e-47
9.88393e-52
1.83373e-45
2.96685e-50
3.6478e-44
8.09857e-49
6.8334e-43
2.01539e-47
1.2114e-41
4.55688e-46
2.02765e-40
9.24065e-45
3.16109e-39