/*--------------------------------*- C++ -*----------------------------------*\
| =========                 |                                                 |
| \\      /  F ield         | OpenFOAM: The Open Source CFD Toolbox           |
|  \\    /   O peration     | Version:  2206                                  |
|   \\  /    A nd           | Website:  www.openfoam.com                      |
|    \\/     M anipulation  |                                                 |
\*---------------------------------------------------------------------------*/
FoamFile
{
    version     2.0;
    format      ascii;
    arch        "LSB;label=32;scalar=64";
    class       surfaceScalarField;
    location    "0.175";
    object      phi;
}
// * * * * * * * * * * * * * * * * * * * * * * * * * * * * * * * * * * * * * //

dimensions      [0 3 -1 0 0 0 0];

oriented        oriented;

internalField   nonuniform List<scalar> 
4432
(
3.212e-06
-3.212e-06
9.57974e-06
-6.36774e-06
1.62088e-05
-6.62906e-06
2.23792e-05
-6.1704e-06
2.82593e-05
-5.88014e-06
3.41101e-05
-5.85078e-06
4.00896e-05
-5.97946e-06
4.62538e-05
-6.16424e-06
5.25913e-05
-6.33753e-06
5.90464e-05
-6.45507e-06
6.5523e-05
-6.47659e-06
7.18777e-05
-6.35471e-06
7.79032e-05
-6.02549e-06
8.32939e-05
-5.39068e-06
8.75813e-05
-4.28739e-06
9.00447e-05
-2.46342e-06
8.91803e-05
8.6445e-07
8.24968e-05
6.68347e-06
6.75437e-05
1.49531e-05
4.23149e-05
2.52288e-05
1.04505e-05
3.18644e-05
-1.47874e-05
2.52379e-05
-1.47874e-05
3.25683e-06
-6.46883e-06
9.61182e-06
-1.27227e-05
1.62409e-05
-1.32581e-05
2.24231e-05
-1.23526e-05
2.83118e-05
-1.17689e-05
3.41744e-05
-1.17134e-05
4.01716e-05
-1.19767e-05
4.63577e-05
-1.23503e-05
5.27213e-05
-1.27011e-05
5.92105e-05
-1.29443e-05
6.57329e-05
-1.2999e-05
7.2148e-05
-1.27698e-05
7.82543e-05
-1.21318e-05
8.37572e-05
-1.08936e-05
8.82357e-05
-8.76588e-06
9.11267e-05
-5.3544e-06
9.2279e-05
-2.8784e-07
9.17215e-05
7.24089e-06
8.80306e-05
1.8644e-05
7.73406e-05
3.59188e-05
5.42238e-05
5.49811e-05
2.39687e-05
5.54931e-05
9.18126e-06
3.30259e-06
-9.77142e-06
9.62705e-06
-1.90472e-05
1.6206e-05
-1.98371e-05
2.23492e-05
-1.84958e-05
2.82131e-05
-1.76328e-05
3.40657e-05
-1.7566e-05
4.00655e-05
-1.79765e-05
4.62633e-05
-1.8548e-05
5.2649e-05
-1.90869e-05
5.9176e-05
-1.94713e-05
6.57587e-05
-1.95817e-05
7.22672e-05
-1.92782e-05
7.85139e-05
-1.83786e-05
8.42222e-05
-1.66019e-05
8.89933e-05
-1.3537e-05
9.22911e-05
-8.65212e-06
9.33964e-05
-1.39321e-06
9.17556e-05
8.88172e-06
8.75509e-05
2.28487e-05
8.16306e-05
4.18391e-05
6.96919e-05
6.69198e-05
4.24738e-05
8.27112e-05
5.1655e-05
3.36585e-06
-1.31373e-05
9.66059e-06
-2.53419e-05
1.61677e-05
-2.63442e-05
2.22493e-05
-2.45774e-05
2.80793e-05
-2.34627e-05
3.39238e-05
-2.34105e-05
3.99341e-05
-2.39867e-05
4.61562e-05
-2.47701e-05
5.25825e-05
-2.55132e-05
5.91734e-05
-2.60622e-05
6.58546e-05
-2.6263e-05
7.25137e-05
-2.59373e-05
7.89828e-05
-2.48477e-05
8.50021e-05
-2.26212e-05
9.01915e-05
-1.87263e-05
9.40451e-05
-1.25058e-05
9.58851e-05
-3.23314e-06
9.4889e-05
9.87779e-06
9.03085e-05
2.74292e-05
8.26565e-05
4.94912e-05
7.18813e-05
7.7695e-05
4.7956e-05
0.000106637
9.96111e-05
3.44794e-06
-1.65852e-05
9.70896e-06
-3.16029e-05
1.61217e-05
-3.2757e-05
2.21214e-05
-3.05771e-05
2.79098e-05
-2.92512e-05
3.37484e-05
-2.9249e-05
3.97755e-05
-3.00139e-05
4.60313e-05
-3.1026e-05
5.25118e-05
-3.19937e-05
5.91865e-05
-3.27368e-05
6.59965e-05
-3.3073e-05
7.28534e-05
-3.27941e-05
7.96131e-05
-3.16073e-05
8.60323e-05
-2.90405e-05
9.17561e-05
-2.44501e-05
9.63275e-05
-1.70772e-05
9.91295e-05
-6.03511e-06
9.92816e-05
9.72572e-06
9.57073e-05
3.10035e-05
8.70493e-05
5.81491e-05
7.36228e-05
9.11216e-05
4.9418e-05
0.000130841
0.000149029
3.55216e-06
-2.01374e-05
9.76819e-06
-3.7819e-05
1.60609e-05
-3.90497e-05
2.19596e-05
-3.64758e-05
2.76994e-05
-3.49911e-05
3.35313e-05
-3.50809e-05
3.95761e-05
-3.60587e-05
4.58672e-05
-3.73171e-05
5.24061e-05
-3.85325e-05
5.91739e-05
-3.95046e-05
6.6132e-05
-4.00311e-05
7.32202e-05
-3.98824e-05
8.03207e-05
-3.87078e-05
8.72128e-05
-3.59325e-05
9.35791e-05
-3.08165e-05
9.90214e-05
-2.25194e-05
0.000102975
-9.98843e-06
0.000104488
8.21225e-06
0.000102375
3.31171e-05
9.43994e-05
6.61243e-05
7.88244e-05
0.000106697
5.25432e-05
0.000157123
0.000201572
3.67637e-06
-2.38137e-05
9.82719e-06
-4.39698e-05
1.59733e-05
-4.51958e-05
2.17552e-05
-4.22577e-05
2.74391e-05
-4.06749e-05
3.32593e-05
-4.0901e-05
3.93163e-05
-4.21157e-05
4.56377e-05
-4.36385e-05
5.22322e-05
-4.51271e-05
5.90963e-05
-4.63687e-05
6.62155e-05
-4.71504e-05
7.35598e-05
-4.72267e-05
8.10371e-05
-4.61852e-05
8.84636e-05
-4.33591e-05
9.55862e-05
-3.79391e-05
0.000102074
-2.90076e-05
0.000107392
-1.53061e-05
0.000110542
5.06228e-06
0.00011032
3.3339e-05
0.000104072
7.23722e-05
8.79663e-05
0.000122803
6.06e-05
0.000184489
0.000262172
3.81022e-06
-2.76239e-05
9.86606e-06
-5.00256e-05
1.58491e-05
-5.11788e-05
2.15052e-05
-4.79139e-05
2.71254e-05
-4.62951e-05
3.29255e-05
-4.67012e-05
3.89852e-05
-4.81755e-05
4.53279e-05
-4.99811e-05
5.1972e-05
-5.17712e-05
5.89316e-05
-5.33283e-05
6.62202e-05
-5.4439e-05
7.38351e-05
-5.48416e-05
8.17116e-05
-5.40616e-05
8.97217e-05
-5.13692e-05
9.76999e-05
-4.59174e-05
0.000105377
-3.66849e-05
0.000112266
-2.21953e-05
0.000117517
-1.88725e-07
0.000119796
3.10602e-05
0.000115805
7.63633e-05
0.000100957
0.000137651
7.12645e-05
0.000214181
0.000333437
-2.5835e-06
2.5835e-06
-4.42571e-06
1.84241e-06
-6.03896e-06
1.61326e-06
-6.80227e-06
7.63357e-07
-6.94578e-06
1.43478e-07
-6.63564e-06
-3.10108e-07
-6.06553e-06
-5.70266e-07
-5.35659e-06
-7.08926e-07
-4.58985e-06
-7.66523e-07
-3.83133e-06
-7.58716e-07
-3.12065e-06
-7.10503e-07
-2.48351e-06
-6.37176e-07
-1.94099e-06
-5.42586e-07
-1.48435e-06
-4.56401e-07
-1.08524e-06
-3.99262e-07
-7.62133e-07
-3.23299e-07
-4.79364e-07
-2.82541e-07
-2.35516e-07
-2.4409e-07
-2.35203e-07
-4.50598e-06
7.08958e-06
-6.01609e-06
3.35277e-06
-6.80241e-06
2.39949e-06
-6.9993e-06
9.60194e-07
-6.87239e-06
1.65109e-08
-6.36002e-06
-8.22266e-07
-5.61156e-06
-1.31881e-06
-4.75234e-06
-1.56831e-06
-3.89144e-06
-1.62688e-06
-3.09204e-06
-1.5583e-06
-2.38726e-06
-1.41536e-06
-1.79438e-06
-1.22986e-06
-1.29559e-06
-1.04164e-06
-9.04093e-07
-8.47829e-07
-6.14135e-07
-6.89e-07
-3.95948e-07
-5.41768e-07
-2.38211e-07
-4.39973e-07
-1.15702e-07
-3.67057e-07
-3.5065e-07
-4.56419e-06
1.16538e-05
-5.98169e-06
4.77034e-06
-6.90326e-06
3.3212e-06
-7.17797e-06
1.23494e-06
-7.03769e-06
-1.23937e-07
-6.49721e-06
-1.36247e-06
-5.73573e-06
-2.08006e-06
-4.87283e-06
-2.43133e-06
-4.00352e-06
-2.49598e-06
-3.19334e-06
-2.36862e-06
-2.47431e-06
-2.13453e-06
-1.86301e-06
-1.84083e-06
-1.35501e-06
-1.54986e-06
-9.55108e-07
-1.24778e-06
-6.5401e-07
-9.90032e-07
-4.23196e-07
-7.73087e-07
-2.59409e-07
-6.03325e-07
-1.25164e-07
-5.01766e-07
-4.75595e-07
-5.12965e-06
1.67835e-05
-6.58199e-06
6.22251e-06
-7.36408e-06
4.1034e-06
-7.51035e-06
1.38149e-06
-7.28741e-06
-3.46913e-07
-6.67569e-06
-1.974e-06
-5.8353e-06
-2.92027e-06
-4.92633e-06
-3.34039e-06
-4.04465e-06
-3.37756e-06
-3.21489e-06
-3.19834e-06
-2.47722e-06
-2.8724e-06
-1.84572e-06
-2.47215e-06
-1.34847e-06
-2.04752e-06
-9.39642e-07
-1.6567e-06
-6.36768e-07
-1.29262e-06
-4.16148e-07
-9.93891e-07
-2.45992e-07
-7.73114e-07
-1.19618e-07
-6.2844e-07
-5.9505e-07
-6.44231e-06
2.3226e-05
-7.6408e-06
7.42081e-06
-8.06039e-06
4.52302e-06
-7.98434e-06
1.30573e-06
-7.6053e-06
-7.259e-07
-6.87975e-06
-2.69947e-06
-5.9534e-06
-3.84644e-06
-4.99394e-06
-4.29985e-06
-4.0166e-06
-4.35495e-06
-3.15157e-06
-4.06357e-06
-2.39834e-06
-3.62598e-06
-1.77046e-06
-3.09957e-06
-1.2692e-06
-2.54866e-06
-8.86784e-07
-2.03921e-06
-5.89171e-07
-1.59031e-06
-3.74435e-07
-1.20896e-06
-2.19636e-07
-9.27526e-07
-1.06297e-07
-7.41831e-07
-7.01294e-07
-7.83162e-06
3.10578e-05
-8.90477e-06
8.49391e-06
-9.08261e-06
4.70094e-06
-8.69126e-06
9.14459e-07
-8.04654e-06
-1.37063e-06
-7.14892e-06
-3.59695e-06
-6.10597e-06
-4.88941e-06
-5.01391e-06
-5.39229e-06
-3.99412e-06
-5.37467e-06
-3.09755e-06
-4.95986e-06
-2.33739e-06
-4.38616e-06
-1.70706e-06
-3.72975e-06
-1.19008e-06
-3.06581e-06
-8.05149e-07
-2.42445e-06
-5.28734e-07
-1.86663e-06
-3.23936e-07
-1.41401e-06
-1.8752e-07
-1.06377e-06
-9.01771e-08
-8.39203e-07
-7.91463e-07
-1.03979e-05
4.14557e-05
-1.07021e-05
8.79803e-06
-1.05907e-05
4.58966e-06
-9.85331e-06
1.7716e-07
-8.73093e-06
-2.49325e-06
-7.55319e-06
-4.77464e-06
-6.27644e-06
-6.1659e-06
-5.08788e-06
-6.58115e-06
-3.99568e-06
-6.46682e-06
-3.02247e-06
-5.93295e-06
-2.22368e-06
-5.18497e-06
-1.58e-06
-4.37347e-06
-1.08215e-06
-3.56378e-06
-7.28604e-07
-2.77817e-06
-4.46697e-07
-2.14832e-06
-2.74422e-07
-1.58645e-06
-1.47525e-07
-1.19066e-06
-6.91309e-08
-9.1772e-07
-8.60526e-07
-1.29154e-05
5.43712e-05
-1.40993e-05
9.98205e-06
-1.24708e-05
2.96119e-06
-1.11426e-05
-1.15087e-06
-9.47897e-06
-4.15706e-06
-7.97193e-06
-6.28173e-06
-6.51732e-06
-7.6202e-06
-5.13933e-06
-7.95918e-06
-3.93616e-06
-7.66987e-06
-2.95196e-06
-6.91725e-06
-2.11494e-06
-6.02202e-06
-1.46543e-06
-5.02275e-06
-9.69878e-07
-4.05924e-06
-6.01428e-07
-3.14666e-06
-3.64226e-07
-2.38537e-06
-1.94765e-07
-1.75598e-06
-1.00089e-07
-1.28534e-06
-4.70114e-08
-9.70938e-07
-9.07506e-07
8.37848e-06
-3.60024e-05
2.10726e-05
-6.27197e-05
3.31646e-05
-6.32709e-05
4.47001e-05
-5.94493e-05
5.64128e-05
-5.80078e-05
6.86405e-05
-5.89288e-05
8.14817e-05
-6.10167e-05
9.49893e-05
-6.34887e-05
0.000109245
-6.60272e-05
0.000124347
-6.84303e-05
0.000140419
-7.05103e-05
0.00015754
-7.19633e-05
0.000175708
-7.22292e-05
0.000194904
-7.05656e-05
0.000215059
-6.60721e-05
0.000235805
-5.74304e-05
0.000256108
-4.24984e-05
0.000274402
-1.84827e-05
0.000290557
1.49044e-05
0.00029498
7.19407e-05
0.000280296
0.000152335
0.000253364
0.000241113
0.000350774
0.000236026
8.82922e-06
-4.48316e-05
2.09326e-05
-7.48231e-05
3.21833e-05
-7.45216e-05
4.3102e-05
-7.0368e-05
5.44525e-05
-6.93583e-05
6.64607e-05
-7.0937e-05
7.91586e-05
-7.37146e-05
9.26132e-05
-7.69433e-05
0.000106975
-8.03892e-05
0.000122449
-8.39039e-05
0.000139276
-8.7338e-05
0.000157688
-9.03745e-05
0.000177973
-9.25145e-05
0.000200432
-9.30247e-05
0.000225264
-9.09038e-05
0.000252742
-8.49084e-05
0.000283158
-7.29149e-05
0.000316296
-5.16206e-05
0.000347676
-1.64758e-05
0.00035728
6.23375e-05
0.000343806
0.000165808
0.00033329
0.000251629
0.000365489
0.000318576
9.19877e-06
-5.40304e-05
2.05479e-05
-8.61723e-05
3.0844e-05
-8.48177e-05
4.11041e-05
-8.06281e-05
5.20197e-05
-8.02739e-05
6.36695e-05
-8.25867e-05
7.60423e-05
-8.60874e-05
8.92371e-05
-9.01382e-05
0.000103487
-9.46387e-05
0.000119093
-9.95101e-05
0.000136398
-0.000104643
0.000155862
-0.000109838
0.000178093
-0.000114746
0.000203336
-0.000118268
0.000231765
-0.000119333
0.000264221
-0.000117364
0.000300804
-0.000109498
0.000337526
-8.83432e-05
0.000351629
-3.05783e-05
0.000356534
5.74321e-05
0.00034757
0.000174773
0.000343741
0.000255458
0.000376817
0.000332413
9.42757e-06
-6.3458e-05
1.98624e-05
-9.66071e-05
2.91604e-05
-9.41157e-05
3.87347e-05
-9.02025e-05
4.91139e-05
-9.06531e-05
6.02301e-05
-9.37029e-05
7.20579e-05
-9.79152e-05
8.47401e-05
-0.00010282
9.85956e-05
-0.000108494
0.000113976
-0.00011489
0.000131348
-0.000122015
0.000151484
-0.000129974
0.000175037
-0.000138299
0.000201668
-0.000144899
0.000231665
-0.00014933
0.000265276
-0.000150975
0.000298066
-0.000142288
0.000329428
-0.000119705
0.000334365
-3.55158e-05
0.000328102
6.36955e-05
0.000317909
0.000184965
0.000313098
0.00026027
0.000378522
0.000311392
9.4886e-06
-7.29466e-05
1.88627e-05
-0.000105981
2.71501e-05
-0.000102403
3.60037e-05
-9.9056e-05
4.57165e-05
-0.000100366
5.61013e-05
-0.000104088
6.71427e-05
-0.000108957
7.90304e-05
-0.000114708
9.21395e-05
-0.000121603
0.000106794
-0.000129545
0.00012364
-0.000138861
0.000143516
-0.00014985
0.000166945
-0.000161728
0.000193554
-0.000171508
0.00022306
-0.000178836
0.00025329
-0.000181205
0.000273895
-0.000162893
0.000272993
-0.000118802
0.00028617
-4.86933e-05
0.000289516
6.03501e-05
0.000275437
0.000199043
0.000250716
0.000284991
0.000352224
0.000277015
9.36768e-06
-8.23142e-05
1.75673e-05
-0.000114181
2.48606e-05
-0.000109696
3.29505e-05
-0.000107146
4.18582e-05
-0.000109274
5.132e-05
-0.00011355
6.1339e-05
-0.000118976
7.21304e-05
-0.000125499
8.40089e-05
-0.000133482
9.7205e-05
-0.000142741
0.000112428
-0.000154084
0.00013023
-0.000167651
0.00015217
-0.000183669
0.000178577
-0.000197915
0.000205628
-0.000205886
0.000226066
-0.000201643
0.000223443
-0.000160271
0.000206149
-0.000101507
0.0001895
-3.20448e-05
0.000200271
4.9579e-05
0.00020746
0.000191855
0.000194103
0.000298348
0.000314949
0.000231378
9.06976e-06
-9.1384e-05
1.60327e-05
-0.000121144
2.23734e-05
-0.000116037
2.9654e-05
-0.000114427
3.76269e-05
-0.000117247
4.59884e-05
-0.000121911
5.47331e-05
-0.00012772
6.4022e-05
-0.000134788
7.39256e-05
-0.000143386
8.4564e-05
-0.000153379
9.63398e-05
-0.00016586
0.000110442
-0.000181753
0.000132158
-0.000205386
0.000158216
-0.000223972
0.000182537
-0.000230207
0.000185098
-0.000204204
0.000162717
-0.00013789
0.000107788
-4.65781e-05
7.57951e-05
-5.17843e-08
8.75908e-05
3.77832e-05
0.000126614
0.000152832
0.000153264
0.000271697
0.000280212
0.000188002
8.62835e-06
-0.000100012
1.43269e-05
-0.000126842
1.97606e-05
-0.000121471
2.61716e-05
-0.000120838
3.30611e-05
-0.000124136
4.00924e-05
-0.000128942
4.71892e-05
-0.000134817
5.43673e-05
-0.000141966
6.14394e-05
-0.000150458
6.85796e-05
-0.000160519
7.61256e-05
-0.000173406
8.86416e-05
-0.000194269
0.000112211
-0.000228955
0.00013964
-0.000251401
0.000148868
-0.000239436
0.000136434
-0.00019177
7.29136e-05
-7.43696e-05
1.9384e-05
6.95096e-06
7.51495e-07
1.85807e-05
5.60076e-06
3.2934e-05
5.04437e-05
0.000107989
0.00010543
0.000216711
0.00024006
0.000145581
8.08001e-06
-0.000108092
1.24442e-05
-0.000131207
1.69537e-05
-0.00012598
2.23641e-05
-0.000126248
2.7931e-05
-0.000129703
3.32958e-05
-0.000134307
3.83081e-05
-0.00013983
4.29669e-05
-0.000146625
4.73577e-05
-0.000154848
5.23783e-05
-0.00016554
6.01583e-05
-0.000181186
7.91831e-05
-0.000213294
0.000105895
-0.000255668
0.000115976
-0.000261482
0.000118652
-0.000242112
7.36482e-05
-0.000146766
9.59047e-06
-1.03117e-05
-1.73969e-05
3.39384e-05
-3.27368e-05
3.39206e-05
-4.0079e-05
4.02762e-05
-1.13677e-05
7.92773e-05
5.23523e-05
0.000152991
0.00019042
0.000101993
7.42575e-06
-0.000115518
1.02463e-05
-0.000134027
1.3694e-05
-0.000129428
1.79135e-05
-0.000130467
2.19468e-05
-0.000133736
2.55725e-05
-0.000137933
2.8881e-05
-0.000143138
3.25155e-05
-0.00015026
3.83257e-05
-0.000160659
4.89997e-05
-0.000176214
6.95728e-05
-0.000201759
0.000108675
-0.000252396
0.000116492
-0.000263485
0.000109161
-0.000254151
9.28266e-05
-0.000225777
4.91187e-05
-0.000103058
3.1818e-06
3.56251e-05
-1.93501e-05
5.64702e-05
-4.00317e-05
5.46021e-05
-5.60165e-05
5.62611e-05
-4.79626e-05
7.12236e-05
-5.85672e-08
0.000105087
0.000137888
5.24736e-05
6.86108e-06
-0.000122379
7.70276e-06
-0.000134869
1.01311e-05
-0.000131856
1.34337e-05
-0.00013377
1.667e-05
-0.000136973
2.03281e-05
-0.000141591
2.5808e-05
-0.000148618
3.58476e-05
-0.000160299
5.44098e-05
-0.000179221
9.06188e-05
-0.000212423
0.000137868
-0.000249008
0.000157855
-0.000272383
0.000126968
-0.000232598
9.22919e-05
-0.000219474
7.43749e-05
-0.00020786
6.3713e-05
-9.23956e-05
2.06076e-05
7.87306e-05
-1.10682e-05
8.81459e-05
-3.63892e-05
7.99227e-05
-5.63823e-05
7.62539e-05
-6.23916e-05
7.72329e-05
-4.12146e-05
8.391e-05
9.82975e-05
-1.62433e-06
6.78576e-06
-0.000129165
6.34347e-06
-0.000134426
9.25228e-06
-0.000134765
1.39874e-05
-0.000138505
2.03664e-05
-0.000143352
3.06339e-05
-0.000151858
4.97297e-05
-0.000167714
8.63539e-05
-0.000196923
0.000127412
-0.000220279
0.000164711
-0.000249722
0.000187407
-0.000271704
0.000180624
-0.000265601
0.000137205
-0.000189179
8.9894e-05
-0.000172163
6.97063e-05
-0.000187673
6.61575e-05
-8.88469e-05
3.02573e-05
0.00011463
-6.90235e-06
0.000125306
-3.41133e-05
0.000107134
-5.50616e-05
9.72025e-05
-6.83499e-05
9.05208e-05
-6.85005e-05
8.40602e-05
8.04658e-05
-5.06691e-05
8.46356e-06
-0.000137629
1.22315e-05
-0.000138194
2.10179e-05
-0.000143551
3.38458e-05
-0.000151333
5.12835e-05
-0.000160789
7.36802e-05
-0.000174255
0.000100774
-0.000194808
0.00012468
-0.000220829
0.000153465
-0.000249063
0.000181706
-0.000277963
0.000199037
-0.000289035
0.000193419
-0.000259982
0.000170517
-0.000166277
0.000105974
-0.00010762
7.07946e-05
-0.000152493
5.05663e-05
-6.86185e-05
1.84919e-05
0.000146705
-1.44306e-05
0.000158228
-3.96185e-05
0.000132322
-5.91236e-05
0.000116708
-7.48457e-05
0.000106243
-8.75356e-05
9.67503e-05
8.82589e-05
-9.53285e-05
5.8116e-06
-0.00014344
1.73062e-05
-0.00014969
2.77471e-05
-0.000153992
3.92917e-05
-0.000162877
5.32152e-05
-0.000174713
6.97659e-05
-0.000190806
8.74192e-05
-0.000212461
0.000106227
-0.000239636
0.000130602
-0.000273438
0.000159247
-0.000306608
0.000178595
-0.000308382
0.000176129
-0.000257516
0.000166941
-0.000157089
0.000114287
-5.49663e-05
6.41444e-05
-0.00010235
2.46813e-05
-2.91554e-05
-8.97731e-06
0.000180363
-3.49602e-05
0.000184211
-5.35186e-05
0.00015088
-6.84855e-05
0.000131675
-8.22205e-05
0.000119978
-9.77989e-05
0.000112329
0.000109139
-0.000118679
5.76707e-06
-0.000149207
1.37328e-05
-0.000157655
2.13927e-05
-0.000161653
2.91169e-05
-0.000170602
3.75638e-05
-0.00018316
4.68811e-05
-0.000200123
5.71179e-05
-0.000222698
7.08395e-05
-0.000253358
9.18875e-05
-0.000294486
0.000114522
-0.000329243
0.000121353
-0.000315213
0.000110246
-0.00024641
9.77943e-05
-0.000144637
8.58234e-05
-4.29955e-05
3.36606e-05
-5.01874e-05
-2.04878e-05
2.49929e-05
-5.33059e-05
0.000213182
-6.49915e-05
0.000195897
-7.29225e-05
0.000158811
-8.05056e-05
0.000139258
-8.85612e-05
0.000128034
-9.8892e-05
0.00012266
0.000123998
-0.00011375
4.42017e-06
-0.000153627
7.81643e-06
-0.000161052
1.16469e-05
-0.000165483
1.51666e-05
-0.000174121
1.84438e-05
-0.000186437
2.1398e-05
-0.000203077
2.43425e-05
-0.000225642
2.97375e-05
-0.000258753
3.83277e-05
-0.000303076
4.14211e-05
-0.000332336
2.96366e-05
-0.000303428
1.17889e-05
-0.000228562
1.09324e-05
-0.00014378
1.69891e-05
-4.90519e-05
-2.79137e-05
-5.28481e-06
-9.56723e-05
9.27516e-05
-0.000107863
0.000225372
-9.86039e-05
0.000186638
-9.4029e-05
0.000154236
-9.29202e-05
0.000138149
-9.37612e-05
0.000128875
-9.63671e-05
0.000125266
0.000127873
-0.000100242
1.72336e-06
-0.00015535
1.87014e-06
-0.000161198
2.22101e-06
-0.000165834
1.77966e-06
-0.00017368
1.92816e-07
-0.00018485
-3.09883e-06
-0.000199785
-8.54048e-06
-0.000220201
-1.61338e-05
-0.000251159
-2.87688e-05
-0.000290441
-4.98873e-05
-0.000311217
-7.32709e-05
-0.000280045
-8.92565e-05
-0.000212577
-0.000100588
-0.000132449
-0.000103116
-4.65238e-05
-0.000143047
3.46461e-05
-0.000184949
0.000134654
-0.000157356
0.000197779
-0.00012796
0.000157242
-0.000112619
0.000138896
-0.000103578
0.000129107
-9.77814e-05
0.000123078
-9.38131e-05
0.000121297
0.000123907
-8.98469e-05
-1.12272e-06
-0.000154228
-3.31484e-06
-0.000159006
-5.97275e-06
-0.000163176
-9.9023e-06
-0.00016975
-1.58587e-05
-0.000178893
-2.48349e-05
-0.000190809
-3.83623e-05
-0.000206673
-5.96387e-05
-0.000229883
-9.15297e-05
-0.00025855
-0.000129876
-0.00027287
-0.000161915
-0.000248006
-0.000187358
-0.000187133
-0.000209674
-0.000110134
-0.000227361
-2.8836e-05
-0.00024446
5.17455e-05
-0.00023195
0.000122143
-0.000181053
0.000146883
-0.000145387
0.000121576
-0.000124744
0.000118253
-0.000110458
0.000114821
-9.99835e-05
0.000112604
-9.15202e-05
0.000112834
0.000115445
-8.30585e-05
-3.44157e-06
-0.000150786
-7.62217e-06
-0.000154826
-1.26836e-05
-0.000158114
-1.92712e-05
-0.000163163
-2.82435e-05
-0.000169921
-4.07684e-05
-0.000178284
-5.91022e-05
-0.000188339
-8.74648e-05
-0.000201521
-0.000128558
-0.000217457
-0.000176808
-0.00022462
-0.000220132
-0.000204683
-0.000253465
-0.0001538
-0.000275071
-8.85286e-05
-0.000282561
-2.13455e-05
-0.000270181
3.93649e-05
-0.000231662
8.36248e-05
-0.000180506
9.57272e-05
-0.000149863
9.09326e-05
-0.00012886
9.72495e-05
-0.000112661
9.86226e-05
-9.99195e-05
9.98624e-05
-8.9022e-05
0.000101937
0.000104786
-7.83629e-05
-5.17003e-06
-0.000145616
-1.09889e-05
-0.000149007
-1.77474e-05
-0.000151356
-2.60538e-05
-0.000154856
-3.66634e-05
-0.000159311
-5.05634e-05
-0.000164384
-6.94611e-05
-0.000169442
-9.66199e-05
-0.000174362
-0.000135076
-0.000179001
-0.000181851
-0.000177844
-0.000225952
-0.000160582
-0.000256554
-0.000123198
-0.000270756
-7.43266e-05
-0.000266018
-2.60838e-05
-0.00024204
1.53872e-05
-0.000203914
4.54983e-05
-0.000167803
5.9616e-05
-0.000145411
6.8541e-05
-0.000126486
7.83248e-05
-0.000110825
8.29608e-05
-9.77211e-05
8.67587e-05
-8.60237e-05
9.0239e-05
9.34585e-05
-7.46968e-05
-6.38813e-06
-0.000139228
-1.33375e-05
-0.000142057
-2.11553e-05
-0.000143538
-3.03558e-05
-0.000145656
-4.15303e-05
-0.000148137
-5.53307e-05
-0.000150583
-7.2535e-05
-0.000152238
-9.46568e-05
-0.00015224
-0.000123776
-0.000149882
-0.000158752
-0.000142869
-0.000192478
-0.000126856
-0.000215705
-9.99709e-05
-0.000223746
-6.6286e-05
-0.000217265
-3.25648e-05
-0.000197987
-3.89041e-06
-0.000173865
2.13764e-05
-0.000152825
3.85753e-05
-0.000136339
5.20549e-05
-0.000120279
6.22651e-05
-0.000106313
6.89951e-05
-9.39272e-05
7.43725e-05
-8.24798e-05
7.87916e-05
8.23885e-05
-7.141e-05
-7.14666e-06
-0.000132081
-1.4769e-05
-0.000134434
-2.31289e-05
-0.000135178
-3.26226e-05
-0.000136162
-4.36749e-05
-0.000137085
-5.66858e-05
-0.000137572
-7.19102e-05
-0.000137013
-8.95817e-05
-0.000134568
-0.000110193
-0.000129271
-0.000133207
-0.000119855
-0.000155111
-0.000104951
-0.00017069
-8.4392e-05
-0.000176715
-6.02615e-05
-0.000173579
-3.57007e-05
-0.000164285
-1.31848e-05
-0.000151352
8.44332e-06
-0.000138478
2.57022e-05
-0.000125477
3.90533e-05
-0.000112342
4.91298e-05
-0.000100326
5.69793e-05
-8.91269e-05
6.31734e-05
-7.84874e-05
6.81521e-05
7.20642e-05
-6.8163e-05
-7.5326e-06
-0.000124549
-1.54535e-05
-0.000126514
-2.39647e-05
-0.000126667
-3.33498e-05
-0.000126777
-4.38867e-05
-0.000126547
-5.58043e-05
-0.000125655
-6.91874e-05
-0.00012363
-8.38669e-05
-0.000119888
-9.94404e-05
-0.000113698
-0.000115136
-0.00010416
-0.000129379
-9.07079e-05
-0.000139954
-7.38174e-05
-0.000145279
-5.49363e-05
-0.000145345
-3.56351e-05
-0.000141547
-1.69827e-05
-0.000133987
8.83692e-07
-0.000124658
1.63735e-05
-0.000114315
2.87097e-05
-0.000103799
3.8614e-05
-9.36176e-05
4.67979e-05
-8.37573e-05
5.33132e-05
-7.41741e-05
5.85689e-05
6.27101e-05
-6.482e-05
-7.62108e-06
-0.000116927
-1.55522e-05
-0.000118582
-2.39274e-05
-0.000118292
-3.29444e-05
-0.00011776
-4.27682e-05
-0.000116724
-5.35068e-05
-0.000114916
-6.51611e-05
-0.000111976
-7.75556e-05
-0.000107494
-9.0216e-05
-0.000101037
-0.00010228
-9.20957e-05
-0.000112649
-8.03385e-05
-0.000120327
-6.61398e-05
-0.0001247
-5.05632e-05
-0.000125688
-3.46467e-05
-0.000123712
-1.8959e-05
-0.000118722
-4.10579e-06
-0.0001117
9.35134e-06
-0.00010364
2.0649e-05
-9.52186e-05
3.01928e-05
-8.66539e-05
3.82333e-05
-7.81183e-05
4.47775e-05
-6.96648e-05
5.01155e-05
5.44005e-05
-6.13552e-05
-7.48393e-06
-0.000109443
-1.52144e-05
-0.000110852
-2.32563e-05
-0.00011025
-3.17459e-05
-0.00010927
-4.07712e-05
-0.000107698
-5.03641e-05
-0.000105324
-6.04574e-05
-0.000101882
-7.08605e-05
-9.70911e-05
-8.12116e-05
-9.06864e-05
-9.08952e-05
-8.24121e-05
-9.91049e-05
-7.21286e-05
-0.000105151
-6.00937e-05
-0.000108717
-4.69974e-05
-0.000109818
-3.35462e-05
-0.000108576
-2.02009e-05
-0.000105086
-7.59545e-06
-9.99144e-05
4.17952e-06
-9.37077e-05
1.44422e-05
-8.69079e-05
2.33929e-05
-7.97385e-05
3.10638e-05
-7.24263e-05
3.74653e-05
-6.5074e-05
4.27631e-05
4.7116e-05
-5.77895e-05
-7.18741e-06
-0.000102256
-1.45698e-05
-0.000103469
-2.21562e-05
-0.000102664
-3.00352e-05
-0.000101391
-3.82442e-05
-9.94893e-05
-4.67701e-05
-9.67975e-05
-5.55192e-05
-9.31326e-05
-6.43013e-05
-8.8309e-05
-7.28256e-05
-8.21621e-05
-8.06828e-05
-7.4555e-05
-8.73528e-05
-6.54586e-05
-9.23478e-05
-5.50987e-05
-9.54036e-05
-4.39417e-05
-9.64963e-05
-3.24536e-05
-9.56984e-05
-2.09989e-05
-9.32651e-05
-1.00289e-05
-8.93666e-05
2.80993e-07
-8.45322e-05
9.60768e-06
-7.90163e-05
1.78768e-05
-7.30431e-05
2.50904e-05
-6.6824e-05
3.12461e-05
-6.0489e-05
3.6428e-05
4.07835e-05
-5.41565e-05
-6.78597e-06
-9.54698e-05
-1.37217e-05
-9.65334e-05
-2.07827e-05
-9.56029e-05
-2.80177e-05
-9.41558e-05
-3.54341e-05
-9.20731e-05
-4.29944e-05
-8.92369e-05
-5.06045e-05
-8.55223e-05
-5.81015e-05
-8.0812e-05
-6.52484e-05
-7.50151e-05
-7.173e-05
-6.80735e-05
-7.71864e-05
-6.00023e-05
-8.1314e-05
-5.09711e-05
-8.3953e-05
-4.13027e-05
-8.50594e-05
-3.13472e-05
-8.46509e-05
-2.14074e-05
-8.29101e-05
-1.17697e-05
-7.99323e-05
-2.69695e-06
-7.61047e-05
5.77983e-06
-7.16148e-05
1.33867e-05
-6.6651e-05
2.01264e-05
-6.13893e-05
2.59843e-05
-5.59648e-05
3.10035e-05
3.53086e-05
-5.04899e-05
-6.32343e-06
-8.91462e-05
-1.27552e-05
-9.01015e-05
-1.9257e-05
-8.9101e-05
-2.58452e-05
-8.75673e-05
-3.25102e-05
-8.54083e-05
-3.92023e-05
-8.25445e-05
-4.58307e-05
-7.8894e-05
-5.2256e-05
-7.43866e-05
-5.82966e-05
-6.89744e-05
-6.37293e-05
-6.26409e-05
-6.83021e-05
-5.54296e-05
-7.17934e-05
-4.74797e-05
-7.40784e-05
-3.90177e-05
-7.51258e-05
-3.02999e-05
-7.49659e-05
-2.15673e-05
-7.37056e-05
-1.30302e-05
-7.14436e-05
-4.9591e-06
-6.83956e-05
2.73164e-06
-6.47285e-05
9.71932e-06
-6.06018e-05
1.59996e-05
-5.61629e-05
2.15453e-05
-5.15364e-05
2.6377e-05
3.05939e-05
-4.68218e-05
-5.8292e-06
-8.3317e-05
-1.17314e-05
-8.41991e-05
-1.76642e-05
-8.31681e-05
-2.36225e-05
-8.1609e-05
-2.95854e-05
-7.94454e-05
-3.55007e-05
-7.66291e-05
-4.12863e-05
-7.31084e-05
-4.68276e-05
-6.88453e-05
-5.19808e-05
-6.38211e-05
-5.65776e-05
-5.8044e-05
-6.04412e-05
-5.15659e-05
-6.34207e-05
-4.45003e-05
-6.5422e-05
-3.70164e-05
-6.64146e-05
-2.93073e-05
-6.64207e-05
-2.15612e-05
-6.5497e-05
-1.3954e-05
-6.38001e-05
-6.65616e-06
-6.13434e-05
2.74815e-07
-5.83377e-05
6.71359e-06
-5.4905e-05
1.25667e-05
-5.11654e-05
1.78056e-05
-4.72288e-05
2.24402e-05
2.65466e-05
-4.31818e-05
-5.32162e-06
-7.79953e-05
-1.06904e-05
-7.88302e-05
-1.60608e-05
-7.77976e-05
-2.14167e-05
-7.62531e-05
-2.67299e-05
-7.41321e-05
-3.19498e-05
-7.14091e-05
-3.70039e-05
-6.80544e-05
-4.1798e-05
-6.40513e-05
-4.62198e-05
-5.93991e-05
-5.01441e-05
-5.41197e-05
-5.3443e-05
-4.8267e-05
-5.60078e-05
-4.19356e-05
-5.77688e-05
-3.52555e-05
-5.87006e-05
-2.83756e-05
-5.88146e-05
-2.14472e-05
-5.81563e-05
-1.46123e-05
-5.68231e-05
-7.98939e-06
-5.48584e-05
-1.68999e-06
-5.24011e-05
4.25625e-06
-4.95478e-05
9.71322e-06
-4.64017e-05
1.46593e-05
-4.30586e-05
1.90968e-05
2.30822e-05
-3.95944e-05
-4.81168e-06
-7.31835e-05
-9.65624e-06
-7.39856e-05
-1.44813e-05
-7.29724e-05
-1.92676e-05
-7.14669e-05
-2.3982e-05
-6.94175e-05
-2.85781e-05
-6.6813e-05
-3.29926e-05
-6.364e-05
-3.71487e-05
-5.98954e-05
-4.09579e-05
-5.55899e-05
-4.43252e-05
-5.07523e-05
-4.71574e-05
-4.54349e-05
-4.93755e-05
-3.97176e-05
-5.09272e-05
-3.3704e-05
-5.1791e-05
-2.75118e-05
-5.19755e-05
-2.12626e-05
-5.15156e-05
-1.50722e-05
-5.04692e-05
-9.03592e-06
-4.8894e-05
-3.26528e-06
-4.68798e-05
2.24196e-06
-4.45092e-05
7.34245e-06
-4.18667e-05
1.20166e-05
-3.90336e-05
1.62636e-05
2.01257e-05
-3.60772e-05
-4.30792e-06
-6.88754e-05
-8.64394e-06
-6.96494e-05
-1.29469e-05
-6.86692e-05
-1.71976e-05
-6.72163e-05
-2.1361e-05
-6.5254e-05
-2.53946e-05
-6.27794e-05
-2.92443e-05
-5.97903e-05
-3.28474e-05
-5.62925e-05
-3.6134e-05
-5.23034e-05
-3.90315e-05
-4.78548e-05
-4.14706e-05
-4.29959e-05
-4.33931e-05
-3.77951e-05
-4.476e-05
-3.23372e-05
-4.55538e-05
-2.67179e-05
-4.57798e-05
-2.10366e-05
-4.54634e-05
-1.53887e-05
-4.46416e-05
-9.85776e-06
-4.33905e-05
-4.51653e-06
-4.17327e-05
5.84137e-07
-3.97644e-05
5.37405e-06
-3.755e-05
9.8021e-06
-3.5156e-05
1.38695e-05
1.76111e-05
-3.26415e-05
-3.81794e-06
-6.50573e-05
-7.66443e-06
-6.58028e-05
-1.1471e-05
-6.48625e-05
-1.52189e-05
-6.34685e-05
-1.88735e-05
-6.15994e-05
-2.23966e-05
-5.92563e-05
-2.57423e-05
-5.64446e-05
-2.88592e-05
-5.31757e-05
-3.1692e-05
-4.94706e-05
-3.41848e-05
-4.53619e-05
-3.62855e-05
-4.08952e-05
-3.79507e-05
-3.61298e-05
-3.91509e-05
-3.11369e-05
-3.98731e-05
-2.59957e-05
-4.01208e-05
-2.0789e-05
-3.99122e-05
-1.55975e-05
-3.92774e-05
-1.04927e-05
-3.82638e-05
-5.53013e-06
-3.69095e-05
-7.7017e-07
-3.52842e-05
3.7487e-06
-3.34369e-05
7.95474e-06
-3.14228e-05
1.18554e-05
1.54818e-05
-2.92935e-05
-3.34851e-06
-6.17087e-05
-6.72557e-06
-6.24258e-05
-1.00611e-05
-6.1527e-05
-1.33364e-05
-6.01933e-05
-1.65191e-05
-5.84167e-05
-1.95751e-05
-5.62004e-05
-2.24657e-05
-5.35541e-05
-2.51489e-05
-5.04926e-05
-2.75807e-05
-4.70387e-05
-2.9718e-05
-4.32245e-05
-3.15211e-05
-3.90921e-05
-3.29575e-05
-3.46934e-05
-3.4005e-05
-3.00894e-05
-3.46538e-05
-2.53469e-05
-3.4907e-05
-2.05359e-05
-3.47789e-05
-1.57257e-05
-3.42927e-05
-1.0979e-05
-3.34782e-05
-6.34461e-06
-3.2379e-05
-1.86941e-06
-3.10405e-05
2.4102e-06
-2.95091e-05
6.42329e-06
-2.78263e-05
1.01725e-05
1.36902e-05
-2.60347e-05
-2.90202e-06
-5.88068e-05
-5.83022e-06
-5.94976e-05
-8.71859e-06
-5.86387e-05
-1.15484e-05
-5.73635e-05
-1.42907e-05
-5.56744e-05
-1.69156e-05
-5.35755e-05
-1.93906e-05
-5.10791e-05
-2.16813e-05
-4.82018e-05
-2.37532e-05
-4.49668e-05
-2.55725e-05
-4.14052e-05
-2.7109e-05
-3.75556e-05
-2.83382e-05
-3.34642e-05
-2.92436e-05
-2.9184e-05
-2.98181e-05
-2.47725e-05
-3.00644e-05
-2.02898e-05
-2.99942e-05
-1.5796e-05
-2.96253e-05
-1.1348e-05
-2.89791e-05
-6.99077e-06
-2.80946e-05
-2.754e-06
-2.70021e-05
1.3177e-06
-2.57457e-05
5.16692e-06
-2.4355e-05
8.78171e-06
1.21976e-05
-2.28624e-05
-2.47684e-06
-5.63302e-05
-4.97613e-06
-5.69983e-05
-7.43901e-06
-5.61759e-05
-9.84741e-06
-5.49549e-05
-1.21762e-05
-5.33456e-05
-1.43995e-05
-5.13523e-05
-1.64904e-05
-4.89882e-05
-1.84213e-05
-4.62708e-05
-2.01649e-05
-4.32232e-05
-2.16951e-05
-3.98751e-05
-2.29888e-05
-3.6262e-05
-2.40275e-05
-3.24255e-05
-2.47989e-05
-2.84126e-05
-2.52981e-05
-2.42734e-05
-2.55276e-05
-2.00604e-05
-2.54973e-05
-1.58264e-05
-2.52226e-05
-1.16227e-05
-2.47212e-05
-7.49211e-06
-2.40142e-05
-3.46103e-06
-2.31382e-05
4.41677e-07
-2.21246e-05
4.15327e-06
-2.09947e-05
7.65184e-06
1.09738e-05
-1.97708e-05
-2.0677e-06
-5.42625e-05
-4.15793e-06
-5.4908e-05
-6.21616e-06
-5.41177e-05