/*--------------------------------*- C++ -*----------------------------------*\
| =========                 |                                                 |
| \\      /  F ield         | OpenFOAM: The Open Source CFD Toolbox           |
|  \\    /   O peration     | Version:  2206                                  |
|   \\  /    A nd           | Website:  www.openfoam.com                      |
|    \\/     M anipulation  |                                                 |
\*---------------------------------------------------------------------------*/
FoamFile
{
    version     2.0;
    format      ascii;
    arch        "LSB;label=32;scalar=64";
    class       surfaceScalarField;
    location    "0.4";
    object      alphaPhi0.water;
}
// * * * * * * * * * * * * * * * * * * * * * * * * * * * * * * * * * * * * * //

dimensions      [0 3 -1 0 0 0 0];

oriented        oriented;

internalField   nonuniform List<scalar> 
4432
(
-3.23842e-06
3.23842e-06
-2.32273e-06
-9.15693e-07
2.34117e-06
-4.6639e-06
8.72782e-06
-6.38664e-06
1.52168e-05
-6.48895e-06
2.0854e-05
-5.63723e-06
2.53244e-05
-4.47038e-06
2.86902e-05
-3.36581e-06
3.11577e-05
-2.46752e-06
3.29419e-05
-1.78419e-06
3.42002e-05
-1.25828e-06
3.50007e-05
-8.00541e-07
3.52828e-05
-2.82051e-07
3.47974e-05
4.85363e-07
3.30782e-05
1.71924e-06
2.95012e-05
3.57696e-06
2.32268e-05
6.27442e-06
1.37583e-05
9.46847e-06
2.60985e-06
1.11485e-05
-6.17921e-06
9.64544e-06
-1.39613e-05
7.42583e-06
-1.54079e-05
3.67774e-07
-1.67819e-05
-3.30056e-06
6.53898e-06
-2.08504e-06
-2.13121e-06
2.6516e-06
-9.40053e-06
9.04233e-06
-1.27774e-05
1.54813e-05
-1.29279e-05
2.10499e-05
-1.12058e-05
2.54617e-05
-8.88224e-06
2.87985e-05
-6.70258e-06
3.12756e-05
-4.94463e-06
3.3105e-05
-3.61358e-06
3.44347e-05
-2.58792e-06
3.53361e-05
-1.70198e-06
3.58538e-05
-7.99717e-07
3.6041e-05
2.98175e-07
3.59877e-05
1.77254e-06
3.55171e-05
4.04754e-06
3.39711e-05
7.82037e-06
2.96045e-05
1.38351e-05
2.00331e-05
2.07198e-05
5.03988e-06
2.4803e-05
-6.95215e-06
2.07669e-05
-9.00408e-06
1.51218e-06
-2.58027e-05
-2.99208e-06
9.53107e-06
-1.65135e-06
-3.47194e-06
3.15754e-06
-1.42094e-05
9.49047e-06
-1.91103e-05
1.57715e-05
-1.9209e-05
2.11456e-05
-1.65798e-05
2.53854e-05
-1.31221e-05
2.86111e-05
-9.92824e-06
3.10512e-05
-7.38476e-06
3.29104e-05
-5.47274e-06
3.43198e-05
-3.99734e-06
3.53321e-05
-2.71432e-06
3.59231e-05
-1.39073e-06
3.60465e-05
1.74792e-07
3.56301e-05
2.18894e-06
3.47698e-05
4.90781e-06
3.38171e-05
8.77311e-06
3.2906e-05
1.47462e-05
3.01006e-05
2.35252e-05
2.23931e-05
3.25106e-05
1.12989e-05
3.29966e-05
3.48823e-06
9.61139e-06
-2.23313e-05
-2.58733e-06
1.21184e-05
-9.97204e-07
-5.06206e-06
3.84966e-06
-1.90563e-05
1.00666e-05
-2.53273e-05
1.61137e-05
-2.52561e-05
2.1216e-05
-2.16821e-05
2.52292e-05
-1.71353e-05
2.83244e-05
-1.30234e-05
3.07408e-05
-9.80125e-06
3.26659e-05
-7.39777e-06
3.42018e-05
-5.53324e-06
3.53731e-05
-3.88568e-06
3.61471e-05
-2.16475e-06
3.64504e-05
-1.28464e-07
3.6201e-05
2.4383e-06
3.53587e-05
5.7502e-06
3.40794e-05
1.00524e-05
3.31325e-05
1.56931e-05
3.30878e-05
2.357e-05
3.19819e-05
3.36164e-05
2.63584e-05
3.86201e-05
1.44065e-05
2.15635e-05
-7.95728e-06
-2.06099e-06
1.41794e-05
-8.45053e-08
-7.03854e-06
4.67615e-06
-2.38169e-05
1.07136e-05
-3.13648e-05
1.64697e-05
-3.10121e-05
2.12475e-05
-2.64599e-05
2.5001e-05
-2.08889e-05
2.79619e-05
-1.59842e-05
3.03762e-05
-1.22155e-05
3.24028e-05
-9.42439e-06
3.41051e-05
-7.23555e-06
3.5474e-05
-5.25452e-06
3.64554e-05
-3.1462e-06
3.69757e-05
-6.48781e-07
3.6971e-05
2.44309e-06
3.64106e-05
6.31055e-06
3.53257e-05
1.11373e-05
3.40282e-05
1.69906e-05
3.3645e-05
2.39532e-05
3.44747e-05
3.27867e-05
3.23765e-05
4.07184e-05
2.05329e-05
3.3407e-05
1.25449e-05
-1.40507e-06
1.55845e-05
7.65944e-07
-9.20955e-06
5.54563e-06
-2.85966e-05
1.13559e-05
-3.7175e-05
1.67958e-05
-3.64521e-05
2.12403e-05
-3.09043e-05
2.47416e-05
-2.43902e-05
2.75941e-05
-1.88367e-05
3.00436e-05
-1.46651e-05
3.2211e-05
-1.15917e-05
3.41131e-05
-9.13768e-06
3.57031e-05
-6.84457e-06
3.69051e-05
-4.34812e-06
3.764e-05
-1.38371e-06
3.78557e-05
2.22736e-06
3.75446e-05
6.6217e-06
3.6754e-05
1.19279e-05
3.55688e-05
1.81758e-05
3.44276e-05
2.50944e-05
3.44254e-05
3.27889e-05
3.33321e-05
4.18117e-05
2.3132e-05
4.36071e-05
3.56466e-05
-6.25567e-07
1.621e-05
1.81138e-06
-1.16465e-05
6.43472e-06
-3.32199e-05
1.19286e-05
-4.26689e-05
1.70266e-05
-4.155e-05
2.11558e-05
-3.50336e-05
2.44486e-05
-2.7683e-05
2.72501e-05
-2.16383e-05
2.97931e-05
-1.72081e-05
3.21501e-05
-1.39487e-05
3.42884e-05
-1.1276e-05
3.61241e-05
-8.68031e-06
3.75609e-05
-5.78494e-06
3.8512e-05
-2.33475e-06
3.8925e-05
1.81434e-06
3.8804e-05
6.74267e-06
3.82025e-05
1.25294e-05
3.72333e-05
1.9145e-05
3.58817e-05
2.64461e-05
3.47157e-05
3.39548e-05
3.31399e-05
4.33876e-05
2.4891e-05
5.18559e-05
6.05076e-05
3.16983e-07
1.58931e-05
3.13539e-06
-1.44649e-05
7.568e-06
-3.76525e-05
1.2605e-05
-4.77059e-05
1.72475e-05
-4.61923e-05
2.10328e-05
-3.88189e-05
2.41451e-05
-3.07952e-05
2.69409e-05
-2.4434e-05
2.96152e-05
-1.98824e-05
3.21844e-05
-1.6518e-05
3.45698e-05
-1.36613e-05
3.66594e-05
-1.07699e-05
3.83422e-05
-7.46776e-06
3.95326e-05
-3.52514e-06
4.01832e-05
1.16373e-06
4.02645e-05
6.66139e-06
3.98068e-05
1.29871e-05
3.89564e-05
1.99954e-05
3.77072e-05
2.76952e-05
3.60326e-05
3.56295e-05
3.36092e-05
4.5811e-05
2.64027e-05
5.90624e-05
8.68889e-05
-1.35572e-22
2.05423e-22
-8.93209e-23
5.85181e-22
-1.01895e-23
7.4669e-23
-7.66142e-25
3.80837e-24
-8.96674e-26
1.62981e-25
-1.57469e-26
1.248e-26
-1.03028e-26
1.86763e-27
-1.50467e-26
8.83222e-28
-2.7394e-26
5.61483e-28
-1.11026e-25
2.84592e-28
-2.65708e-25
-9.89566e-27
-5.09703e-25
-3.69543e-26
-9.12797e-25
-9.3297e-26
-1.39019e-24
-2.06697e-25
-1.92937e-24
-4.08577e-25
-3.09594e-24
-8.57718e-25
-1.55862e-24
-3.12464e-24
-1.15639e-25
-2.76464e-24
-1.06123e-24
-5.42645e-20
1.04318e-19
-1.41499e-20
1.37026e-19
-1.35676e-21
1.22896e-20
-1.11779e-22
7.841e-22
-1.72302e-23
4.60508e-23
-3.08711e-24
5.19832e-24
-9.54952e-25
6.99627e-25
-1.18248e-24
1.75891e-25
-5.76551e-24
1.47455e-25
-1.83102e-23
-5.17751e-25
-3.19362e-23
-3.89663e-24
-4.03609e-23
-1.02781e-23
-4.55822e-23
-1.90355e-23
-4.797e-23
-3.15912e-23
-5.29902e-23
-4.83235e-23
-9.22664e-23
-9.03341e-23
-1.35629e-22
-2.49049e-22
-5.44538e-25
-4.57249e-22
-3.27811e-24
-4.71027e-19
1.18668e-18
-3.74786e-19
1.79046e-18
-6.60737e-20
5.17532e-19
-1.28591e-20
5.82682e-20
-3.44941e-21
8.28523e-21
-6.50041e-22
1.56665e-21
-1.16192e-22
1.96577e-22
-1.29811e-22
3.01237e-23
-4.97663e-22
1.50211e-23
-1.68699e-21
-7.13135e-23
-3.19118e-21
-6.02706e-22
-3.85485e-21
-1.65748e-21
-4.09249e-21
-2.54352e-21
-3.93904e-21
-4.34492e-21
-3.81459e-21
-5.40095e-21
-5.10624e-21
-8.06934e-21
-7.28385e-21
-1.81204e-20
-5.05031e-23
-3.37626e-20
-3.5711e-22
-1.44498e-18
4.53393e-18
-2.34652e-18
8.50968e-18
-8.41338e-19
5.61085e-18
-4.38143e-19
1.17561e-18
-2.18145e-19
4.28528e-19
-6.12932e-20
1.39361e-19
-1.34226e-20
2.48711e-20
-1.39806e-20
4.36621e-21
-3.07498e-20
1.14822e-21
-9.88891e-20
-1.42054e-20
-2.04573e-19
-5.36515e-20
-2.33654e-19
-1.50938e-19
-2.18994e-19
-2.16985e-19
-1.90644e-19
-3.04565e-19
-1.68952e-19
-3.86246e-19
-1.77362e-19
-4.5454e-19
-2.46962e-19
-8.33958e-19
-2.48867e-21
-1.6783e-18
-2.33001e-20
-3.24705e-18
1.57899e-17
-7.26981e-18
2.50772e-17
-4.89458e-18
2.34523e-17
-3.45172e-18
8.25859e-18
-2.16244e-18
3.37057e-18
-9.32822e-19
1.52889e-18
-6.6032e-19
5.53466e-19
-8.24964e-19
2.42333e-19
-2.41336e-18
7.86787e-20
-3.83415e-18
-2.36827e-18
-6.05866e-18
-3.37329e-18
-8.05441e-18
-6.59622e-18
-5.43673e-18
-1.25617e-17
-5.03741e-18
-6.90358e-18
-4.32709e-18
-1.23523e-17
-4.26032e-18
-1.30743e-17
-5.55467e-18
-2.55237e-17
-8.8263e-20
-3.97968e-17
-1.24425e-18
-3.82609e-18
3.61734e-17
-1.11796e-17
4.77815e-17
-1.31894e-17
5.00366e-17
-6.18752e-18
1.69309e-17
-4.30695e-18
7.20648e-18
-4.34268e-18
4.24661e-18
-5.78737e-18
3.41811e-18
-1.68236e-17
3.68665e-18
-3.7383e-17
6.74183e-19
-6.41248e-17
-5.14249e-18
-7.63274e-17
-4.96518e-17
-1.28457e-16
-9.25369e-17
-5.86731e-17
-1.81688e-16
-5.39576e-17
-7.40452e-17
-5.73543e-17
-5.4571e-17
-6.94745e-17
-8.71934e-17
-7.00701e-17
-3.50743e-16
-2.15765e-18
-2.51577e-16
-2.10888e-17
-7.87504e-18
8.32223e-17
-7.4724e-17
1.43957e-16
-1.4019e-16
3.18372e-16
-1.05454e-16
2.75214e-16
-1.42823e-17
1.14546e-16
-1.87065e-17
1.30131e-17
-4.91673e-17
2.0437e-17
-1.45664e-16
5.10694e-17
-1.07183e-16
4.93694e-17
-2.37449e-16
1.25098e-16
-2.88142e-16
-5.71497e-17
-5.58085e-16
-9.76739e-17
-4.0051e-16
-2.09892e-16
-4.64976e-16
-1.96712e-16
-8.34681e-16
4.84484e-16
-5.65785e-16
-8.98323e-17
-7.66383e-16
-1.31452e-15
-3.19543e-17
-1.50281e-15
1.5768e-17
-1.24482e-18
1.19239e-16
-4.20904e-17
1.39571e-16
-8.04165e-17
2.08891e-16
-5.34271e-17
1.31337e-16
-1.77317e-17
5.41086e-17
-3.7227e-17
3.68963e-17
-1.4032e-15
9.50106e-16
-7.70263e-15
1.19592e-14
-1.18775e-14
1.00521e-13
-2.84963e-16
-3.15363e-15
-3.10822e-16
-7.17684e-17
-3.65605e-16
-2.0599e-17
-9.80458e-16
1.25462e-15
-1.6207e-14
1.5408e-14
-1.66979e-14
5.97858e-15
-4.05589e-15
-9.59749e-15
-1.10874e-14
4.22156e-15
-6.44951e-16
-1.72582e-14
-1.53922e-15
5.37739e-06
1.05157e-05
1.38723e-05
-2.29598e-05
2.32368e-05
-4.70158e-05
3.15964e-05
-5.60629e-05
3.88213e-05
-5.34149e-05
4.5211e-05
-4.5207e-05
5.12479e-05
-3.68313e-05
5.73168e-05
-3.05024e-05
6.34792e-05
-2.60446e-05
6.9534e-05
-2.25726e-05
7.5183e-05
-1.93102e-05
8.01577e-05
-1.57446e-05
8.42622e-05
-1.15722e-05
8.73378e-05
-6.60072e-06
8.93838e-05
-8.82323e-07
9.03058e-05
5.7394e-06
9.00475e-05
1.32454e-05
8.87887e-05
2.12542e-05
8.68664e-05
2.96176e-05
8.42947e-05
3.82011e-05
8.19035e-05
4.82021e-05
8.32735e-05
5.76925e-05
7.79678e-05
9.21946e-05
1.36572e-05
-3.14158e-06
2.99096e-05
-3.92102e-05
3.92526e-05
-5.63403e-05
4.19497e-05
-5.87333e-05
4.35603e-05
-5.50023e-05
4.70964e-05
-4.87259e-05
5.26595e-05
-4.23827e-05
5.94026e-05
-3.72378e-05
6.65597e-05
-3.31966e-05
7.35392e-05
-2.95488e-05
7.98602e-05
-2.56291e-05
8.52137e-05
-2.10969e-05
8.95192e-05
-1.58771e-05
9.29332e-05
-1.00147e-05
9.53392e-05
-3.28829e-06
9.66375e-05
4.44111e-06
9.6878e-05
1.30048e-05
9.6313e-05
2.18192e-05
9.56351e-05
3.02955e-05
9.50262e-05
3.881e-05
9.53746e-05
4.78538e-05
9.87305e-05
5.43366e-05
6.86377e-05
0.000108061
2.45568e-05
-2.76964e-05
4.652e-05
-5.19154e-05
4.4942e-05
-2.75707e-05
4.0472e-05
-2.175e-05
3.70043e-05
-2.20456e-05
3.75172e-05
-2.1488e-05
4.18964e-05
-1.98875e-05
4.87546e-05
-1.87387e-05
5.65122e-05
-1.77877e-05
6.4491e-05
-1.67195e-05
7.25093e-05
-1.52944e-05
8.05283e-05
-1.34564e-05
8.83004e-05
-1.10771e-05
9.52283e-05
-7.85221e-06
0.000100733
-3.34607e-06
0.000102977
3.34042e-06
0.000101933
1.40492e-05
0.000100688
2.30639e-05
0.000101005
2.9979e-05
0.000101597
3.82176e-05
0.00010217
4.72805e-05
0.000102336
5.41714e-05
6.3619e-05
0.000107354
2.23679e-05
-1.72426e-05
7.69777e-06
-8.38779e-07
4.45095e-06
-1.08897e-08
3.72947e-06
-6.95822e-11
3.24911e-06
-1.30932e-13
2.66007e-06
-1.76397e-17
2.73427e-06
-8.44809e-17
3.25958e-06
-3.08107e-16
4.24143e-06
-1.31052e-15
5.52187e-06
-4.09925e-14
7.32581e-06
-2.64619e-13
1.01116e-05
-3.51518e-14
1.45677e-05
-2.73318e-13
2.17315e-05
-3.18255e-11
3.30649e-05
-2.49658e-10
5.1218e-05
-5.63254e-10
7.93006e-05
6.26375e-07
0.000104826
6.95846e-06
0.000112735
2.24023e-05
0.000112505
3.84474e-05
0.000110137
4.96479e-05
0.000108351
5.5958e-05
6.24563e-05
0.000109513
8.49738e-07
-1.5282e-22
1.09595e-08
-6.36342e-21
6.97131e-11
-1.31331e-19
1.30919e-13
-1.59585e-18
-1.68788e-20
-1.28768e-17
-3.24854e-19
-4.02529e-18
-2.03078e-18
-3.45633e-17
-1.10969e-17
-2.70796e-16
-3.24058e-16
-1.01678e-15
-1.66618e-15
-3.98091e-14
-1.44047e-16
-2.70079e-13
4.23894e-16
-4.35982e-14
2.99348e-15
-2.84058e-13
4.17694e-13
-3.22939e-11
5.95308e-12
-2.57193e-10
4.33373e-11
-6.07855e-10
1.06451e-06
-2.28593e-08
9.26964e-06
-6.46265e-09
3.31068e-05
3.04593e-07
7.17912e-05
1.23943e-06
0.000104014
1.33088e-05
0.000116702
4.32701e-05
6.07177e-05
0.00011844
-8.21935e-23
-7.74824e-23
-2.70691e-21
-3.75331e-21
-3.65119e-20
-9.77448e-20
-1.47606e-19
-1.48979e-18
-5.03196e-19
-1.2585e-17
-1.04766e-18
-2.44666e-17
-2.33383e-17
-1.24745e-16
-6.84791e-17
-7.45824e-16
-2.60052e-15
-1.71477e-15
-3.3148e-14
-1.7589e-13
-3.94715e-15
-9.0741e-13
6.24592e-15
-8.889e-14
-4.59901e-13
-1.13296e-12
2.38716e-12
-2.13982e-10
1.89865e-10
-4.51888e-10
1.77095e-09
-6.59082e-09
3.34878e-09
-3.10113e-08
4.5137e-09
-1.23948e-08
2.85999e-07
1.81125e-08
1.47037e-06
6.30927e-08
1.36881e-05
2.24869e-07
5.44895e-05
6.96712e-07
8.24134e-06
0.000102227
-6.40939e-23
-1.17979e-23
-2.38577e-21
-1.44928e-21
-8.78147e-20
-1.27241e-19
-1.13683e-18
-3.92655e-18
-6.23982e-18
-3.7254e-17
-2.18637e-17
-1.51575e-16
-1.24863e-16
-3.49201e-16
-7.33109e-17
-8.66631e-16
2.45529e-15
-7.29643e-15
-1.02702e-12
-1.21174e-12
-2.53838e-13
-1.05782e-11
4.2329e-13
-7.80957e-13
6.25075e-12
-9.1666e-12
1.36062e-10
-2.67559e-09
1.09348e-08
-2.81142e-08
2.72222e-08
-3.60039e-08
3.20159e-08
-4.445e-08
4.08472e-08
-3.33697e-08
6.54766e-08
-6.81341e-09
1.32665e-07
-1.61388e-09
3.87457e-07
-2.61811e-08
1.0785e-06
9.36266e-09
2.47218e-07
8.15979e-06
-6.34249e-23
5.1627e-23
-7.42056e-22
-6.0154e-22
-1.20956e-19
-1.20091e-19
-3.24843e-18
-5.27957e-18
-2.13351e-17
-5.97279e-17
-5.20029e-17
-2.37855e-16
-1.2283e-16
-4.61926e-16
3.1144e-16
-6.85626e-16
1.71103e-14
-2.4713e-14
-2.48098e-12
-1.30406e-12
4.01002e-13
-1.08392e-11
1.61006e-12
-2.50912e-12
3.38739e-11
-4.34874e-11
1.50083e-09
-3.78822e-09
9.1031e-09
-2.01672e-08
1.6027e-08
-3.95752e-08
2.81672e-08
-5.39557e-08
4.64686e-08
-4.89577e-08
9.05849e-08
-3.19293e-08
1.02812e-07
-4.06651e-10
8.98586e-08
-1.43e-09
9.66896e-08
-6.77077e-09
2.18589e-08
3.23787e-07
-5.42405e-23
9.31057e-23
-4.03889e-22
-2.45375e-22
-9.17846e-20
-8.03364e-20
-3.26074e-18
-5.15611e-18
-2.41155e-17
-6.06543e-17
-6.58846e-17
-2.45301e-16
-8.03504e-17
-4.78844e-16
7.47759e-16
-6.11444e-16
7.37724e-14
-4.27107e-14
-2.2358e-12
-7.44727e-13
7.22518e-13
-1.12005e-11
5.76262e-12
-9.27723e-12
-1.15912e-10
-8.04273e-11
2.47051e-10
-2.98967e-14
1.64207e-10
-3.04384e-13
1.0397e-09
-1.53416e-10
5.00072e-09
-2.35392e-08
1.34634e-08
-5.47629e-08
2.27285e-08
-2.0348e-08
5.6925e-08
-7.75299e-09
4.37749e-08
5.6416e-09
1.97533e-08
6.77868e-09
1.3511e-08
2.77667e-08
-9.65755e-24
1.15541e-22
-1.79314e-22
-7.58168e-23
-5.08584e-20
-3.72978e-20
-2.29881e-18
-3.97821e-18
-1.86421e-17
-5.2995e-17
-5.42725e-17
-2.18638e-16
-5.52467e-17
-4.78536e-16
-6.46651e-17
-5.27417e-16
1.60486e-14
-4.49101e-14
-7.7124e-13
-1.89329e-13
-4.68267e-14
-3.85814e-12
-1.20406e-11
-8.46197e-12
-3.79989e-16
-5.23269e-11
-8.86335e-18
-1.45049e-14
-2.74617e-13
-1.58911e-14
-1.5105e-10
-2.3058e-12
-2.8564e-09
-2.29715e-10
-2.09394e-09
-9.56913e-09
-1.08663e-09
-1.78877e-08
2.26263e-09
-1.18658e-08
7.00659e-09
-1.06616e-11
5.48469e-09
7.7532e-09
1.08998e-08
7.55746e-09
-4.1635e-25
1.30848e-22
-6.90085e-22
6.13852e-22
-2.08624e-20
-1.14546e-20
-1.17975e-18
-2.04054e-18
-8.24251e-18
-2.90279e-17
-3.89243e-17
-1.13828e-16
-3.01536e-17
-4.22443e-16
-5.31314e-16
-3.26926e-16
-3.21752e-15
-3.22028e-14
-2.99854e-15
-2.82409e-13
9.51e-14
-3.91824e-13
-2.27873e-12
-1.24547e-12
-1.25227e-13
-3.4094e-13
-1.87581e-16
-1.25659e-13
-1.805e-15
-3.98672e-15
-1.43209e-12
-8.68389e-13
-1.48987e-10
-8.19362e-11
-6.91449e-09
-3.91854e-09
-9.34784e-09
-3.1995e-08
-7.44066e-09
-2.01369e-08
-3.36081e-09
-6.34749e-09
-9.98592e-10
4.85251e-09
8.0072e-09
1.34647e-09
-2.6917e-25
1.36295e-22
-2.96556e-22
8.20703e-22
-6.04012e-21
-2.14807e-21
-4.07929e-19
-6.72464e-19
-2.10645e-18
-1.01865e-17
-2.23484e-17
-4.38878e-17
-1.27784e-17
-2.90866e-16
-1.49097e-16
-3.52331e-16
4.56714e-16
-7.78672e-15
9.89565e-15
-2.52848e-13
6.18474e-15
-2.98682e-13
1.40608e-15
-3.99739e-13
-1.75373e-15
-4.13449e-13
-1.00099e-16
-2.05493e-13
6.78853e-16
-1.47134e-15
-8.6582e-13
-1.8916e-15
-8.26444e-11
-1.56318e-13
-2.68281e-09
-7.67543e-12
-1.60641e-08
-2.19204e-10
-2.3732e-08
-3.71011e-09
-1.98049e-08
-1.52386e-09
-1.50059e-08
1.83174e-09
3.16295e-09
3.47119e-10
-1.24315e-24
1.28544e-22
-3.40078e-23
8.20129e-22
-1.19227e-21
-3.14674e-22
-8.56241e-20
-1.59499e-19
-4.49621e-19
-2.56619e-18
-7.08766e-18
-1.41062e-17
-6.70678e-18
-1.79948e-16
-2.9597e-19
-4.351e-16
8.67752e-16
-4.67509e-16
1.08902e-14
-1.37807e-13
9.3154e-15
-2.62122e-13
1.92248e-15
-4.45154e-13
-9.29332e-15
-4.5181e-13
-1.84714e-15
-1.77688e-13
-2.40824e-17
-3.20454e-16
-1.90234e-15
-4.97558e-17
-1.58033e-13
-2.24268e-16
-7.83151e-12
-1.01605e-15
-2.27022e-10
-1.28371e-14
-3.93681e-09
-3.27795e-13
-6.72886e-09
-8.15632e-12
-7.47282e-09
-1.75357e-10
3.25167e-10
-4.52254e-09
-1.38809e-24
1.08366e-22
-1.51173e-24
7.15179e-22
-6.66668e-22
3.50482e-22
-1.26673e-20
-2.83253e-20
-7.90525e-20
-4.95981e-19
-1.7838e-18
-3.9023e-18
-1.26184e-17
-9.11376e-17
-6.01561e-18
-4.37412e-16
7.41406e-18
-4.87432e-16
1.27429e-15
-6.79274e-16
2.19727e-16
-3.85744e-14
-1.14172e-14
-2.327e-13
-1.30368e-14
-2.49374e-13
-1.61501e-15
-2.48668e-14
-9.58719e-18
-2.53524e-16
-1.69722e-17
-7.87844e-17
-3.79788e-17
-2.38571e-16
-3.13564e-16
-7.70761e-16
-1.18268e-14
-1.36945e-15
-3.38295e-13
-1.66515e-15
-8.48165e-12
-1.22484e-14
-1.83523e-10
-2.85596e-13
-2.35988e-12
-1.73648e-10
-1.01994e-24
8.05864e-23
3.82994e-24
5.44807e-22
-3.96328e-22
4.76408e-22
-1.4308e-21
-3.58745e-21
-1.22268e-20
-7.35145e-20
-3.95461e-19
-9.65438e-19
-1.12471e-17
-3.17901e-17
-1.31666e-17
-2.90548e-16
-7.96194e-18
-4.33324e-16
-2.2579e-16
-3.70939e-16
-7.72346e-15
-1.20809e-16
-1.37827e-14
-4.72179e-17
-3.2147e-15
-4.66355e-17
-1.26301e-16
-1.02402e-16
-1.74486e-17
-2.38709e-16
-3.5851e-17
-7.72085e-17
-2.54693e-16
-7.27816e-17
-4.9567e-16
-2.02083e-16
-6.11294e-16
-5.03991e-16
-8.71071e-16
-6.78958e-16
-1.10744e-14
-1.31255e-15
-2.91713e-13
-3.54924e-15
-6.74227e-15
-2.64382e-12
-5.95569e-25
5.21064e-23
4.20447e-24
3.57786e-22
-3.94636e-23
3.92076e-22
-1.19663e-22
-2.36013e-22
-1.69714e-21
-8.11931e-21
-8.14823e-20
-2.0716e-19
-3.48093e-18
-7.61559e-18
-1.54007e-17
-9.2061e-17
-1.6151e-17
-2.82812e-16
-1.83592e-18
-2.94944e-16
-2.38363e-18
-1.17225e-16
-3.42851e-18
-4.26539e-17
-5.24862e-18
-4.12664e-17
-4.04962e-17
-6.36358e-17
-1.78134e-17
-9.1819e-17
-1.32524e-17
-4.966e-17
-2.36851e-17
-9.10453e-18
-9.83809e-17
-1.22776e-17
-3.12127e-16
-3.0734e-17
-1.17943e-15
-8.10894e-17
-1.74954e-15
-2.48662e-16
-1.46752e-15
-7.03389e-16
-6.67729e-16
-7.19672e-15
-2.87688e-25
2.87708e-23
3.02402e-24
1.98851e-22
-1.94025e-24
2.56274e-22
-6.05931e-24
2.85749e-23
-2.10974e-22
-6.23282e-22
-1.5222e-20
-3.73296e-20
-6.87516e-19
-1.43303e-18
-6.47865e-18
-1.75043e-17
-1.05719e-17
-6.73478e-17
-9.23195e-18
-1.11816e-16
-3.29451e-18
-1.10345e-16
-3.69491e-18
-6.06678e-17
-6.44531e-18
-3.53738e-17
-1.56743e-17
-1.26637e-17
-1.13778e-17
-6.11191e-18
-1.47975e-18
-2.48512e-18
-1.89736e-18
-8.81214e-19
-4.20362e-18
-1.46524e-18
-1.34642e-17
-5.35553e-18
-4.82574e-17
-1.96393e-17
-3.42814e-16
-6.11732e-17
-9.29645e-16
-2.26526e-16
-5.575e-16
-7.04884e-16
-1.19405e-25
1.32529e-23
1.83456e-24
9.13115e-23
4.50615e-25
1.35352e-22
-7.47984e-24
3.05636e-23
-2.33481e-23
-2.56532e-23
-2.75208e-21
-5.51723e-21
-1.11949e-19
-2.18587e-19
-1.04773e-18
-2.42744e-18
-2.90078e-18
-1.03804e-17
-5.81108e-18
-2.54692e-17
-5.91693e-18
-3.99158e-17
-4.26968e-18
-3.36365e-17
-1.4405e-18
-1.60865e-17
-7.41816e-19
-3.42012e-18
-3.79565e-19
-4.80812e-19
-1.24676e-19
-6.59099e-20
-1.61376e-19
-6.32545e-20
-4.82022e-19
-1.75111e-19
-2.42094e-18
-9.95718e-19
-9.32206e-18
-5.32983e-18
-4.30423e-17
-2.21377e-17
-2.04681e-16
-9.25209e-17
-2.45807e-16
-2.4129e-16
-4.45986e-26
4.93707e-24
9.09238e-25
3.3587e-23
4.48534e-25
5.62258e-23
-3.02224e-25
1.45946e-23
-2.32611e-24
-5.33353e-25
-4.2885e-22
-6.62444e-22
-1.43715e-20
-2.76695e-20
-1.24748e-19
-2.9609e-19
-5.50776e-19
-1.41229e-18
-1.4949e-18
-4.22146e-18
-1.80368e-18
-5.58008e-18
-1.41644e-18
-5.1807e-18
-4.34534e-19
-2.94243e-18
-6.99312e-20
-7.38782e-19
-6.18872e-21
-5.79644e-20
-7.25755e-21
-1.85843e-21
-1.04514e-20
-2.97506e-21
-5.12712e-20
-2.29088e-20
-3.82942e-19
-2.20673e-19
-2.08575e-18
-1.65331e-18
-1.20359e-17
-9.19474e-18
-2.7054e-17
-4.48634e-17
-1.11825e-16
-1.15096e-16
-1.52186e-26
1.42466e-24
3.60325e-25
9.486e-24
2.02797e-25
1.74844e-23
-3.30606e-27
4.55944e-24
-4.86978e-24
6.08959e-25
-5.16887e-23
-6.39687e-23
-1.59849e-21
-2.91867e-21
-1.45807e-20
-3.76886e-20
-9.65864e-20
-1.70328e-19
-1.91472e-19
-5.5096e-19
-2.27553e-19
-7.10623e-19
-2.04676e-19
-6.23851e-19
-7.98605e-20
-3.82758e-19
-8.35061e-21
-1.2223e-19
-1.47961e-22
-1.22651e-20
-1.73121e-22
-1.61419e-22
-5.13096e-22
-1.72317e-22
-6.13925e-21
-4.20228e-21
-6.69762e-20
-5.68235e-20
-4.83711e-19
-5.43989e-19
-3.43978e-18
-3.89309e-18
-5.69856e-18
-2.28115e-17
-6.89304e-17
-2.50392e-17
-4.62986e-27
2.98763e-25
1.04633e-25
1.93382e-24
5.91574e-26
3.79085e-24
1.09898e-26
9.61e-25
-8.25728e-25
1.47436e-25
-4.2521e-24
-4.46813e-24
-1.92283e-22
-2.45828e-22
-1.63491e-21
-4.27175e-21
-1.17054e-20
-2.05575e-20
-2.23974e-20
-5.82924e-20
-2.55206e-20
-7.28648e-20
-2.22725e-20
-6.33032e-20
-1.03769e-20
-3.54027e-20
-1.43307e-21
-8.45837e-21
-2.62677e-24
-3.58795e-22
-2.88085e-24
1.43932e-22
-2.96632e-23
1.28188e-22
-8.95886e-22
-7.7374e-22
-1.19701e-20
-1.52849e-20
-1.01991e-19
-1.79736e-19
-7.26173e-19
-1.61339e-18
-8.51877e-19
-1.17616e-17
-4.56263e-17
5.70872e-18
-1.12365e-27
4.08385e-26
2.06381e-26
2.56426e-25
1.1598e-26
5.19472e-25
2.46174e-27
1.27369e-25
-5.21216e-26
2.02257e-26
-2.47948e-25
-1.61068e-25
-1.7703e-23
-1.36707e-23
-1.89614e-22
-3.34748e-22
-1.13025e-21
-1.97145e-21
-2.0175e-21
-4.44779e-21
-2.25424e-21
-5.78399e-21
-1.81436e-21
-5.06386e-21
-6.11115e-22
-2.80465e-21
-3.49298e-23
-4.64991e-22
1.42261e-23
1.02369e-22
1.37789e-23
2.72349e-22
-5.1644e-23
1.75158e-22
-1.2341e-22
-7.9596e-23
-1.94256e-21
-4.12322e-21
-1.69157e-20
-5.77173e-20
-8.09082e-20
-6.37699e-19
5.32629e-19
-5.66053e-18
-2.50566e-17
7.49974e-18
-1.82881e-28
2.80599e-27
2.55375e-27
1.73143e-26
1.39989e-27
3.73715e-26
3.06612e-28
8.86194e-27
-1.66769e-27
1.44166e-27
-8.51046e-27
-1.37136e-28
-9.80051e-25
-3.28446e-25
-1.75753e-23
-1.44067e-23
-7.26182e-23
-9.81563e-23
-1.3577e-22
-2.11549e-22
-1.48844e-22
-2.97108e-22
-1.17945e-22
-2.57696e-22
-2.99766e-23
-1.00505e-22
7.0207e-24
3.89761e-23
1.99199e-23
1.95747e-22
1.31816e-23
1.99597e-22
-3.00966e-24
1.14321e-22
-1.31833e-23
8.16723e-24
-2.43201e-22
-1.08645e-21
-1.22369e-21
-1.74443e-20
2.21565e-20
-2.34009e-19
6.17328e-19
-2.44285e-18
-1.15136e-17
5.16302e-18
-1.48768e-29
3.5567e-36
1.55535e-28
2.27692e-34
8.68197e-29
6.40513e-33
1.93599e-29
1.23009e-31
-2.07676e-30
1.7969e-30
-1.68403e-28
1.88181e-29
-2.96093e-26
-1.12539e-27
-7.34387e-25
-2.26582e-25
-2.74739e-24
-1.78997e-24
-5.66835e-24
-5.59149e-24
-6.10005e-24
-6.22569e-24
-3.99646e-24
-3.33029e-24
1.86638e-24
8.99624e-24
9.79153e-24
5.75453e-23
1.00409e-23
9.57794e-23
5.44504e-24
8.07306e-23
3.32483e-25
4.31286e-23
-1.87291e-23
5.22249e-24
-7.84718e-24
-2.7658e-22
5.23685e-22
-4.82248e-21
1.94328e-20
-7.65178e-20
3.59303e-19
-9.1957e-19
-4.57818e-18
2.62368e-18
-2.16426e-38
1.89101e-36
2.16908e-35
1.15454e-34
1.02546e-33
3.34593e-33
2.05827e-32
6.54117e-32
2.72577e-31
9.86827e-31
-9.86732e-30
1.18217e-29
-3.0461e-28
1.02766e-28
-8.09627e-27
2.91018e-28
-6.85015e-26
5.89377e-28
-9.08623e-26
5.10332e-27
-8.83041e-26
8.48319e-26
3.00844e-25
9.21915e-25
1.96095e-24
6.91048e-24
3.19494e-24
2.00205e-23
2.46736e-24
2.68496e-23
1.05707e-24
2.03889e-23
7.43887e-26
1.00827e-23
-7.62745e-27
9.24703e-25
8.0002e-24
-6.60901e-23
3.08871e-22
-1.19447e-21
8.67421e-21
-2.17815e-20
1.53696e-19
-2.96952e-19
-1.53579e-18
1.07607e-18
-1.29467e-38
7.90171e-37
7.55264e-36
4.61645e-35
4.34682e-34
1.36722e-33
9.05782e-33
2.69922e-32
1.37583e-31
4.10203e-31
1.44996e-30
5.0054e-30
4.79785e-30
4.90581e-29
1.09565e-29
3.45958e-28
1.04064e-28
1.85081e-27
1.85087e-27
1.01541e-26
2.08976e-26
6.42345e-26
1.56652e-25
3.80185e-25
4.30994e-25
1.57699e-24
5.02954e-25
3.63618e-24
2.79035e-25
4.33245e-24
5.70639e-26
3.03598e-24
-6.19118e-26
1.35311e-24
-2.08839e-26
-7.72025e-26
3.55369e-24
-1.43601e-23
1.02531e-22
-2.61868e-22
2.83683e-21
-5.36044e-21
5.1893e-20
-8.25663e-20
-4.46018e-19
3.58305e-19
-6.04636e-39
2.43958e-37
1.04435e-36
1.36833e-35
1.20279e-34
4.09835e-34
2.6583e-33
8.06867e-33
4.18222e-32
1.21508e-31
4.98896e-31
1.47916e-30
4.07625e-30
1.4663e-29
2.43291e-29
1.16263e-28
1.43555e-28
7.37628e-28
9.32777e-28
3.91764e-27
5.41441e-27
1.92721e-26
2.04882e-26
7.97602e-26
3.82468e-26
2.34371e-25
2.70396e-26
4.50166e-25
-8.27077e-28
4.5373e-25
-2.7795e-26
2.82153e-25
-2.90785e-26
1.03316e-25
4.89232e-26
-7.18211e-26
9.83409e-25
-2.67642e-24
2.56745e-23
-5.0592e-23
7.35583e-22
-1.14623e-21
1.43894e-20
-2.03036e-20
-1.16225e-19
1.00765e-19
-2.09327e-39
4.97113e-38
-1.06195e-38
2.67914e-36
1.61099e-35
8.03579e-35
4.11257e-34
1.54697e-33
6.92051e-33
2.23993e-32
8.60817e-32
2.61072e-31
7.94859e-31
2.51142e-30
5.52414e-30
1.98686e-29
3.02261e-29
1.26973e-28
1.43133e-28
6.44435e-28
4.97738e-28
2.58164e-27
9.57709e-28
8.1659e-27
2.93156e-28
1.99703e-26
-1.94733e-27
3.34679e-26
-5.12467e-27
2.60771e-26
-5.82301e-27
1.30227e-26
-3.39339e-27
2.62505e-27
9.8116e-27
-1.91487e-26
2.03273e-25
-4.31215e-25
5.21263e-24
-8.6076e-24
1.56966e-22
-2.16241e-22
3.40693e-21
-4.49524e-21
-2.76622e-20
2.47009e-20
-4.96341e-40
5.10692e-39
-7.8186e-39
2.64347e-37
-8.77337e-38
7.83594e-36
-1.36596e-37
1.4337e-34
1.76743e-34
1.88341e-33
3.18001e-33
1.8951e-32
3.18358e-32
1.51885e-31
2.03304e-31
9.96049e-31
7.46711e-31
5.44714e-30
3.39356e-31
2.5128e-29
-4.09905e-30
9.79039e-29
-3.49387e-29
3.16287e-28
-1.63059e-28
7.85829e-28
-4.52128e-28
1.16698e-27
-5.37523e-28
7.36463e-28
-3.87654e-28
2.70269e-28
-1.08359e-28
-5.39021e-29
1.33632e-27
-2.62244e-27
3.42502e-26
-5.92128e-26
8.87199e-25
-1.28866e-24
2.84715e-23
-3.63218e-23
7.0435e-22
-9.08267e-22
-5.98896e-21
5.34885e-21
-6.03958e-41
3.4527e-41
-1.37522e-39
1.83051e-39
-3.13092e-38
5.62795e-38
-5.14145e-37
1.09288e-36
-6.38642e-36
1.55732e-35
-6.48563e-35
1.7383e-34
-5.67246e-34
1.5775e-33
-4.37557e-33
1.19175e-32
-2.98335e-32
7.59664e-32
-1.78358e-31
4.10131e-31
-9.19193e-31
1.85438e-30
-3.96562e-30
6.6579e-30
-1.31576e-29
1.5877e-29
-2.59341e-29
1.09151e-29
-2.15027e-29
4.48702e-30
-1.02335e-29
-1.5451e-30
1.53268e-29
-1.24146e-29
1.71328e-28
-2.73597e-28
4.80973e-27
-6.80659e-27
1.30364e-25
-1.69888e-25
4.52138e-24
-5.4945e-24
1.30388e-22
-1.7033e-22
-1.13288e-21
1.02053e-21
-4.83207e-43
7.60114e-44
-1.35362e-41
4.73105e-42
-3.78079e-40
1.70529e-40
-7.5017e-39
3.92063e-39
-1.12874e-37
6.65738e-38
-1.37568e-36
8.88827e-37
-1.40515e-35
9.67086e-36
-1.22411e-34
8.76726e-35
-9.16395e-34
6.67702e-34
-5.8924e-33
4.23989e-33
-3.20647e-32
2.15553e-32
-1.39631e-31
7.6572e-32
-4.05866e-31
1.18929e-31
-3.40854e-31
6.18537e-32
-1.7104e-31
2.00734e-32
2.01564e-31
-2.14308e-33
6.63309e-31
-7.69577e-31
1.91958e-29
-2.28834e-29
5.73919e-28
-6.60393e-28
1.71712e-26
-2.02083e-26
6.58093e-25
-7.76193e-25
2.25157e-23
-2.95461e-23
-1.77428e-22
1.68136e-22
-1.24121e-45
1.38427e-46
-4.37863e-44
9.93631e-45
-1.53275e-42
4.13569e-43
-3.77898e-41
1.10929e-41
-7.03258e-40
2.21366e-40
-1.05138e-38
3.49225e-39
-1.30401e-37
4.49452e-38
-1.364e-36
4.79297e-37
-1.20827e-35
4.22422e-36
-8.97286e-35
2.96564e-35
-5.35407e-34
1.45551e-34
-2.23729e-33
3.25644e-34
-4.09218e-33
1.54695e-34
-2.50633e-33
4.37936e-35
-9.56422e-34
8.66487e-36
1.2032e-33
-6.87545e-34
5.21477e-32
-4.73619e-32
1.79341e-30
-1.62445e-30
6.02811e-29
-6.02639e-29
2.14286e-27
-2.29613e-27
9.41426e-26
-1.03199e-25
3.73089e-24
-4.43088e-24
-2.28651e-23
2.37927e-23
-2.58672e-48
8.46601e-50
-1.05206e-46
7.87266e-48
-4.36253e-45
4.17137e-46
-1.28593e-43
1.41439e-44
-2.86032e-42
3.52786e-43
-5.11309e-41
6.84854e-42
-7.55698e-40
1.06297e-40
-9.33241e-39
1.32282e-39
-9.57213e-38
1.25744e-38
-7.84051e-37
7.73266e-38
-4.49244e-36
1.40824e-37
-1.17264e-35
5.55153e-38
-6.48902e-36
1.31349e-38
-2.13492e-36
1.80196e-39
-4.89314e-37
-1.80922e-38
5.44384e-35
-4.83041e-35
3.66108e-33
-2.69586e-33
1.43984e-31
-1.20074e-31
6.14269e-30
-5.62654e-30
2.65558e-28
-2.40315e-28
1.32835e-26
-1.12889e-26
5.65241e-25
-4.99981e-25
-2.70651e-24
3.03446e-24
-1.77106e-51
1.98399e-53
-8.85455e-50
2.40793e-51
-4.65705e-48
1.59755e-49
-1.75207e-46
6.62945e-48
-4.89079e-45
1.97935e-46
-1.07959e-43
4.44652e-45
-1.93077e-42
7.43363e-44
-2.7923e-41
8.28255e-43
-3.1002e-40
4.09721e-42
-2.23165e-39
1.29985e-42
-4.75727e-39
3.4542e-43
-2.19178e-39
3.19807e-42
-6.04478e-40
1.06719e-42
-9.6336e-41
-2.29038e-43
2.34636e-39
-4.02405e-40
3.60474e-36
-2.7086e-36
2.27499e-34
-1.52681e-34
1.16357e-32
-7.80801e-33
6.22261e-31
-4.16444e-31
2.98662e-29
-1.87264e-29
1.54775e-27
-8.50739e-28
6.81309e-26
-3.7902e-26
-3.32067e-25
3.95564e-25
-4.52712e-55
9.5824e-59
-2.68723e-53
1.34686e-56
-1.71237e-51
8.98396e-55
-7.83482e-50
2.95809e-53
-2.59648e-48
3.76312e-52
-6.60291e-47
6.22567e-53
-1.27092e-45
9.44207e-54
-1.64941e-44
2.08673e-51
-9.57485e-44
9.61919e-49
-3.578e-44
2.66833e-46
-1.1209e-44
3.75999e-44
-1.22179e-43
1.10992e-42
-4.78665e-44
3.85276e-43
7.9533e-44
5.24812e-44
2.5408e-41
-2.2019e-41
1.98913e-37
-1.00463e-37
1.28832e-35
-7.37228e-36
7.58295e-34
-3.83877e-34
4.62296e-32
-2.1159e-32
2.35374e-30
-1.00525e-30
1.1962e-28
-4.72735e-29
5.61263e-27
-2.19003e-27
-3.59157e-26
5.52787e-26
-2.31655e-60
-1.3535e-75
-1.39937e-58
7.86413e-70
-8.38762e-57
3.73006e-66
-2.96488e-55
5.4041e-63
-4.08755e-54
4.0863e-60
-7.54069e-55
2.11485e-57
-1.30845e-55
9.37128e-55
-3.37139e-53
4.48137e-52
-1.83548e-50
1.83175e-49
-6.05699e-48
5.14283e-47
-1.018e-45
6.963e-45
-3.58135e-44
1.97194e-43
-1.47746e-44
6.11481e-44
-2.38338e-45
7.25619e-45
1.2418e-42
-1.03608e-42
6.4736e-39
-2.63413e-39
5.54701e-37
-2.31769e-37
3.36902e-35
-1.52945e-35
2.14569e-33
-7.22292e-34
1.17936e-31
-4.22831e-32
6.37818e-30
-2.3831e-30
3.29399e-28
-1.20592e-28
-2.5738e-27
6.23995e-27
3.34797e-77
-2.7069e-76
-7.16664e-72
2.40994e-70
-2.74755e-68
1.14888e-66
-4.04333e-65
1.66477e-63
-3.14877e-62
1.24038e-60
-1.75639e-59
5.98104e-58
-8.76806e-57
1.88273e-55
-4.88895e-54
4.09412e-53
-2.38575e-51
7.09272e-51
-8.10268e-49