/*--------------------------------*- C++ -*----------------------------------*\
| =========                 |                                                 |
| \\      /  F ield         | OpenFOAM: The Open Source CFD Toolbox           |
|  \\    /   O peration     | Version:  2206                                  |
|   \\  /    A nd           | Website:  www.openfoam.com                      |
|    \\/     M anipulation  |                                                 |
\*---------------------------------------------------------------------------*/
FoamFile
{
    version     2.0;
    format      ascii;
    arch        "LSB;label=32;scalar=64";
    class       volScalarField;
    location    "0.4";
    object      alpha.water;
}
// * * * * * * * * * * * * * * * * * * * * * * * * * * * * * * * * * * * * * //

dimensions      [0 0 0 0 0 0 0];

internalField   nonuniform List<scalar> 
2268
(
0.999999
0.999999
1
1
1
1
1
1
1
1
1
1
1
1
1
1
1
1
1
0.937283
0.827866
0.847779
0.97931
0.999999
1
1
1
1
1
1
1
1
1
1
1
1
1
1
1
1
1
1
0.994391
0.839291
0.929933
0.998032
1
1
1
1
1
1
1
1
1
1
1
1
1
1
1
1
1
1
1
1
0.976871
0.992564
0.998056
1
1
1
1
1
1
1
1
1
1
1
1
1
1
1
1
1
1
1
1
0.999995
0.999995
0.998328
1
1
1
1
1
1
1
1
1
1
1
1
1
1
1
1
1
1
1
1
1
1
0.998368
1
1
1
1
1
1
1
1
1
1
1
1
1
1
1
1
1
1
1
1
1
1
0.998379
1
1
1
1
1
1
1
1
1
1
1
1
1
1
1
1
1
1
1
1
1
1
0.998392
1
1
1
0.999999
0.999999
0.999999
1
1
1
1
1
1
1
1
1
1
1
1
1
1
1
1
0.998863
5.98857e-16
2.54892e-16
1.78575e-17
7.76967e-19
3.4717e-20
3.11225e-21
6.10742e-22
4.41012e-22
5.28532e-22
2.28498e-21
6.59606e-21
1.32412e-20
2.50356e-20
4.64104e-20
7.65903e-20
1.20358e-19
1.66747e-19
3.84755e-20
3.60877e-20
9.88951e-15
9.28935e-15
6.73919e-16
4.40375e-17
3.01321e-18
4.28013e-19
8.10289e-20
3.49506e-20
8.72577e-20
3.98963e-19
8.19735e-19
1.08216e-18
1.15332e-18
1.17238e-18
1.16975e-18
1.74055e-18
3.76135e-18
4.3822e-18
5.14695e-20
6.41287e-14
8.11006e-14
1.99155e-14
2.39133e-15
3.98268e-16
9.32847e-17
1.61457e-17
4.3775e-18
7.40815e-18
3.46454e-17
7.64669e-17
1.07742e-16
1.13861e-16
1.1931e-16
1.13508e-16
1.3227e-16
2.46373e-16
3.24415e-16
7.61309e-18
1.86347e-13
3.10697e-13
1.77117e-13
3.88007e-14
1.653e-14
6.53348e-15
1.56748e-15
5.00736e-16
5.2944e-16
1.99548e-15
4.71671e-15
7.22602e-15
7.24712e-15
7.5326e-15
6.68437e-15
6.45957e-15
9.88629e-15
1.49136e-14
4.09833e-16
5.50331e-13
8.49028e-13
7.16801e-13
2.47679e-13
1.3747e-13
6.95964e-14
3.03684e-14
2.33761e-14
4.49104e-14
1.16043e-13
1.65709e-13
2.46839e-13
2.86635e-13
2.07296e-13
2.13115e-13
1.86387e-13
2.84891e-13
4.20524e-13
1.73987e-14
1.20027e-12
1.27858e-12
1.18965e-12
6.38381e-13
2.41222e-13
1.70733e-13
1.57879e-13
3.21366e-13
8.95148e-13
1.69373e-12
2.62387e-12
3.22769e-12
4.89862e-12
2.13418e-12
1.83983e-12
1.77815e-12
4.467e-12
3.61312e-12
4.38798e-13
2.04498e-12
4.13088e-12
8.41665e-12
8.53499e-12
4.7731e-12
5.54602e-13
9.98998e-13
2.53083e-12
4.56824e-12
2.05146e-12
9.79408e-12
1.21018e-11
2.01759e-11
9.55086e-12
3.94207e-12
6.34256e-12
2.37783e-11
1.11124e-11
3.2776e-12
2.04488e-12
3.47092e-12
5.16131e-12
3.92779e-12
1.58447e-12
5.63722e-13
1.49284e-12
4.14457e-11
1.67295e-11
9.94426e-12
9.75226e-12
1.03201e-11
1.42146e-11
1.36098e-11
2.98896e-11
5.54473e-11
4.14119e-11
8.62144e-11
1.0402e-11
1
1
0.999989
0.999978
0.999982
0.999989
0.999993
0.999996
0.999998
0.999999
0.999999
1
1
1
1
1
1
1
1
1
1
1
1
1
0.999994
0.999847
0.999769
0.999808
0.999859
0.9999
0.999929
0.99995
0.999964
0.999975
0.999985
0.999993
0.999998
1
1
1
1
1
1
1
1
1
0.999994
0.968485
0.811383
0.774642
0.79787
0.802038
0.800247
0.806128
0.816578
0.828089
0.840915
0.85806
0.882229
0.913995
0.949708
0.992807
1
1
1
1
1
1
1
0.763427
0.357485
0.0897032
0.084696
0.102547
0.0937699
0.0834374
0.0843328
0.0897976
0.0969476
0.105625
0.119115
0.1415
0.177168
0.227618
0.304024
0.463169
0.709878
0.977296
1
1
1
1
0.0163009
2.07146e-18
4.69555e-17
6.91655e-16
6.13858e-15
2.33079e-14
3.50242e-14
6.57686e-14
1.94433e-13
7.27465e-13
1.6206e-11
5.59044e-11
8.05593e-11
1.82336e-10
1.22676e-08
1.1327e-07
0.00322202
0.0347681
0.136521
0.347941
0.69624
0.99999
0.999999
2.1653e-19
2.90481e-19
2.10311e-18
4.69871e-17
6.91655e-16
3.51435e-14
6.4643e-13
5.52386e-12
1.27182e-11
5.18489e-10
9.92294e-10
3.32994e-10
2.02184e-09
3.83284e-07
1.1327e-07
1.72517e-05
2.62472e-05
3.41408e-05
3.75014e-05
0.000370533
0.037734
0.220143
0.571844
6.71007e-20
8.463e-19
1.25968e-15
3.27681e-14
3.06609e-13
1.48593e-12
4.92432e-12
1.74349e-11
1.52941e-11
1.04987e-08
1.25895e-07
1.45797e-08
4.77975e-09
2.59962e-05
0.000223167
0.000448972
0.000462818
0.000390427
0.000318649
0.000356865
0.000513822
0.00037835
0.0150526
0
1.0164e-18
1.82674e-15
8.95095e-14
1.0182e-12
4.20742e-12
9.1522e-12
1.84127e-11
1.9474e-11
2.53279e-08
2.11014e-07
4.29692e-08
2.74137e-08
6.48727e-05
0.000513202
0.000588113
0.000590494
0.000590369
0.000507115
0.000572339
0.000602044
0.000153534
0.000154031
-1.35086e-18
1.01305e-19
1.5354e-15
1.03311e-13
1.28125e-12
5.34141e-12
1.07718e-11
1.24083e-11
4.63508e-10
2.55776e-08
2.11311e-07
8.51931e-08
1.12435e-06
5.88733e-05
2.27674e-05
0.000214797
0.000519023
0.000590461
0.000204822
0.00055498
0.000601405
0.000130202
9.30309e-05
-2.73833e-18
2.38163e-20
8.72972e-16
9.3211e-14
1.26314e-12
5.4138e-12
1.09875e-11
1.15291e-11
9.72928e-10
9.01911e-09
1.76569e-07
1.77311e-07
1.50069e-06
1.11486e-10
8.79881e-11
1.963e-10
5.54354e-08
0.00019922
0.000141659
0.000141816
0.000176463
8.87265e-05
8.87968e-05
-3.61032e-18
8.93325e-35
3.64256e-16
6.22448e-14
9.06367e-13
3.8638e-12
1.03617e-11
1.03386e-11
1.02434e-09
3.25924e-09
3.52653e-09
9.76873e-08
8.93303e-07
8.79881e-11
7.8292e-11
4.86197e-11
1.42653e-09
9.83763e-07
0.000329155
0.000139463
9.20834e-05
8.87968e-05
8.87273e-05
-4.1576e-18
-1.01412e-17
1.0085e-16
2.81485e-14
4.234e-13
1.71498e-12
8.07676e-12
7.44006e-12
4.75747e-10
5.85867e-09
5.50915e-09
6.28749e-09
2.11956e-09
2.12277e-09
1.81666e-11
1.73513e-12
6.88099e-11
3.33078e-05
0.000332287
0.000474652
0.0004749
0.000468176
0.000417706
-4.32179e-18
-1.39903e-17
1.62421e-17
8.53811e-15
1.35049e-13
6.19037e-13
5.05489e-12
7.76134e-12
9.20896e-11
5.38187e-09
5.57752e-09
4.98803e-09
4.93409e-09
3.42239e-09
1.49989e-11
7.60816e-13
8.25117e-13
-4.27334e-13
5.56687e-12
1.32524e-10
7.21022e-05
0.000196814
0.000244465
-4.03917e-18
-1.43295e-17
0
1.93043e-15
3.21299e-14
1.89432e-13
2.92481e-12
9.3511e-12
9.34295e-12
1.24577e-09
4.23144e-09
8.28479e-09
8.28479e-09
1.97335e-09
4.09117e-12
7.60816e-13
7.59005e-13
8.20131e-13
1.22249e-12
6.06036e-12
1.91006e-11
1.72929e-10
1.57229e-06
-3.36877e-18
-1.2742e-17
-6.91392e-18
3.29507e-16
5.95823e-15
5.0515e-14
1.33965e-12
8.75113e-12
1.02122e-11
7.19328e-12
1.82396e-10
4.45325e-09
3.09787e-09
1.67785e-10
4.36523e-12
1.30773e-12
4.08354e-12
1.31601e-11
1.65793e-11
1.67418e-11
1.72572e-11
2.26926e-11
4.21942e-11
-2.48181e-18
-9.85697e-18
-9.51071e-18
3.98058e-17
8.52236e-16
1.21382e-14
4.2321e-13
4.27537e-12
9.13345e-12
7.22592e-12
7.68711e-13
7.65306e-13
7.63881e-13
7.65306e-13
4.43167e-12
1.44212e-12
7.8943e-13
2.23963e-12
7.35138e-12
1.88531e-11
4.58687e-11
5.52577e-11
4.99592e-11
-1.59293e-18
-6.55412e-18
-7.90675e-18
2.18954e-18
9.0894e-17
2.53444e-15
9.5611e-14
1.18561e-12
3.96087e-12
4.71585e-12
2.40303e-12
8.40125e-13
7.64102e-13
1.25681e-12
1.82217e-12
6.41826e-13
1.03997e-13
1.46399e-13
4.20895e-13
1.37472e-12
5.54957e-12
2.66881e-11
4.99507e-11
-8.74712e-19
-3.68061e-18
-5.21426e-18
-6.02771e-19
6.66199e-18
4.45377e-16
1.74481e-14
2.12312e-13
8.31843e-13
1.48003e-12
1.97675e-12
1.26274e-12
6.27653e-13
1.57421e-13
6.6522e-14
2.69082e-14
1.04407e-14
1.90906e-14
8.19277e-14
3.71555e-13
1.45731e-12
7.12702e-12
2.64929e-11
-4.01259e-19
-1.70554e-18
-2.77627e-18
-6.48491e-19
2.45525e-19
6.44239e-17
2.60654e-15
2.88406e-14
1.24883e-13
3.19032e-13
5.03286e-13
4.47476e-13
2.14668e-13
4.53156e-14
5.70269e-15
7.4301e-16
7.62119e-16
2.37444e-15
1.58779e-14
1.02961e-13
5.34486e-13
2.7657e-12
8.70103e-12
-1.48978e-19
-6.32528e-19
-1.16196e-18
-3.11424e-19
0
7.59395e-18
3.24988e-16
3.52711e-15
1.69127e-14
5.14045e-14
6.7137e-14
6.25126e-14
3.63319e-14
9.51765e-15
7.50695e-16
2.15851e-17
3.5456e-17
3.25016e-16
3.65143e-15
3.21305e-14
2.15011e-13
1.25234e-12
3.6716e-12
-4.28575e-20
-1.80044e-19
-3.63897e-19
-9.78111e-20
-1.30907e-20
7.19118e-19
3.37807e-17
4.4981e-16
2.04204e-15
6.60125e-15
8.52956e-15
7.50511e-15
4.64246e-15
1.50777e-15
1.55286e-16
4.33465e-19
5.18533e-19
6.11734e-17
9.54302e-16
1.04012e-14
8.65219e-14
5.89889e-13
2.09314e-12
-8.95849e-21
-3.69815e-20
-7.94223e-20
-2.07201e-20
-3.18521e-21
4.88891e-20
2.78919e-18
5.01016e-17
2.45156e-16
6.86802e-16
8.63297e-16
7.55726e-16
4.24837e-16
1.0028e-16
2.96264e-18
-3.42035e-18
-3.14792e-18
1.07521e-17
2.55447e-16
3.33808e-15
3.38833e-14
2.79413e-13
1.21524e-12
-1.21997e-21
-4.94019e-21
-1.09523e-20
-2.75889e-21
-4.38969e-22
1.69344e-21
1.51024e-19
3.81738e-18
2.28638e-17
5.13222e-17
6.73842e-17
5.94858e-17
3.29984e-17
4.96041e-18
-2.39016e-18
-6.50568e-18
-4.30434e-18
8.96598e-19
6.79167e-17
1.03279e-15
1.25763e-14
1.22349e-13
5.75389e-13
-8.34498e-23
-3.36049e-22
-7.92509e-22
-1.92753e-22
-3.14185e-23
1.81346e-26
3.52891e-21
1.60114e-19
1.10181e-18
2.39513e-18
3.38219e-18
2.94156e-18
1.04381e-18
-8.9801e-19
-4.58369e-18
-4.7679e-18
-2.79633e-18
-2.05474e-19
1.75277e-17
2.97698e-16
4.30499e-15
4.81105e-14
2.35428e-13
-1.05218e-31
-4.45159e-30
-1.36565e-28
-2.68521e-27
-3.93004e-26
-4.12389e-25
1.02664e-23
2.46981e-21
1.9674e-20
6.1999e-20
6.84095e-20
2.67721e-20
-2.05117e-19
-1.32761e-18
-2.24123e-18
-1.92118e-18
-1.04651e-18
-1.29544e-19
4.32333e-18
7.80901e-17
1.31057e-15
1.65675e-14
8.44484e-14
-5.56035e-32
-2.27345e-30
-7.16803e-29
-1.43234e-27
-2.16482e-26
-2.59862e-25
-2.26554e-24
-6.43797e-24
-1.30912e-23
-1.13905e-22
-1.90459e-21
-2.08463e-20
-1.57598e-19
-4.61338e-19
-6.26207e-19
-4.82058e-19
-2.42096e-19
-2.25827e-20
9.94096e-19
1.83552e-17
3.48498e-16
4.93365e-15
2.58446e-14
-2.30763e-32
-9.15136e-31
-2.94151e-29
-5.92548e-28
-9.02065e-27
-1.10296e-25
-1.08403e-24
-7.66893e-24
-4.11802e-23
-2.26931e-22
-1.44314e-21
-8.59507e-21
-3.59152e-20
-8.35373e-20
-1.00519e-19
-7.12024e-20
-3.21106e-20
1.83031e-21
2.06711e-19
3.8283e-18
8.06298e-17
1.27984e-15
6.9647e-15
-7.07051e-33
-2.72859e-31
-8.84929e-30
-1.77485e-28
-2.67701e-27
-3.26522e-26
-3.24518e-25
-2.58061e-24
-1.64273e-23
-8.7581e-23
-4.32818e-22
-1.80075e-21
-5.32402e-21
-1.02974e-20
-1.04599e-20
-6.55853e-21
-2.42219e-21
1.35954e-21
3.68583e-20
7.06418e-19
1.63378e-17
2.96969e-16
1.70539e-15
-1.4285e-33
-5.37003e-32
-1.73999e-30
-3.40757e-29
-4.94128e-28
-5.7699e-27
-5.56347e-26
-4.41288e-25
-2.82829e-24
-1.4402e-23
-5.79084e-23
-1.83961e-22
-4.52095e-22
-7.61777e-22
-5.97022e-22
-2.99933e-22
-6.08114e-23
2.56037e-22
5.70615e-21
1.1532e-19
2.9435e-18
6.26041e-17
3.8437e-16
-1.45302e-34
-5.32009e-33
-1.70022e-31
-3.16128e-30
-4.15798e-29
-4.19078e-28
-3.36578e-27
-2.21225e-26
-1.2128e-25
-5.6099e-25
-2.19229e-24
-7.10623e-24
-1.77214e-23
-2.64222e-23
-1.67433e-23
-6.16902e-24
1.22915e-24
3.31903e-23
7.55031e-22
1.66479e-20
4.75611e-19
1.21496e-17
7.90787e-17
-9.70883e-37
-3.69566e-35
-1.22311e-33
-2.41093e-32
-3.43876e-31
-3.84394e-30
-3.4947e-29
-2.64519e-28
-1.68957e-27
-9.1416e-27
-4.14298e-26
-1.49122e-25
-3.56563e-25
-2.45802e-25
-1.01314e-25
3.48691e-26
1.51872e-25
3.34191e-24
8.40307e-23
2.12992e-21
6.98093e-20
2.20363e-18
1.42429e-17
-2.10791e-39
-9.57709e-38
-3.71069e-36
-8.64864e-35
-1.46947e-33
-1.9642e-32
-2.14033e-31
-1.94335e-30
-1.48241e-29
-9.42903e-29
-4.80192e-28
-1.70883e-27
-2.65883e-27
-1.38517e-27
-4.50184e-28
2.80694e-29
9.02784e-27
2.72317e-25
7.96935e-24
2.47903e-22
9.63386e-21
3.69846e-19
2.13863e-18
-3.7771e-42
-2.01679e-40
-9.00785e-39
-2.44573e-37
-4.88168e-36
-7.70778e-35
-9.93091e-34
-1.06023e-32
-9.355e-32
-6.57529e-31
-3.23071e-30
-7.2359e-30
-3.44074e-30
-9.7483e-31
-1.92963e-31
9.18962e-30
5.49443e-28
1.90506e-26
7.17877e-25
2.76365e-23
1.24592e-21
5.33154e-20
2.68424e-19
-2.26766e-45
-1.60324e-43
-9.09298e-42
-3.11555e-40
-7.76952e-39
-1.50897e-37
-2.34366e-36
-2.91847e-35
-2.77594e-34
-1.70804e-33
-3.11211e-33
-1.22729e-33
-2.90434e-34
-3.98415e-35
3.9903e-34
5.55523e-31
3.08925e-29
1.38875e-27
6.5683e-26
2.80977e-24
1.31137e-22
5.75623e-21
3.14686e-20
-5.20533e-49
-4.92662e-47
-3.48549e-45
-1.45869e-43
-4.35276e-42
-9.77872e-41
-1.63507e-39
-1.82199e-38
-9.01325e-38
-2.85921e-38
-7.59625e-39
-7.03009e-38
-2.34443e-38
4.97454e-39
4.48638e-36
3.04816e-32
1.72346e-30
8.81843e-29
4.70388e-27
2.10987e-25
9.5147e-24
4.20509e-22
3.80632e-21
-2.45802e-54
-2.7741e-52
-1.96241e-50
-6.50219e-49
-8.26464e-48
-1.36678e-48
-2.07219e-49
-4.57749e-47
-2.1088e-44
-5.84508e-42
-8.22816e-40
-2.42587e-38
-8.40773e-39
-1.14304e-39
2.47386e-37
1.10312e-33
8.12754e-32
4.23033e-30
2.31333e-28
1.09753e-26
5.14651e-25
2.3707e-23
3.96618e-22
3.38999e-71
-1.63451e-65
-8.16152e-62
-1.18714e-58
-8.96683e-56
-4.63711e-53
-2.05306e-50
-9.80783e-48
-4.00396e-45
-1.12248e-42
-1.51707e-40
-4.28753e-39
-1.32628e-39
-1.5692e-40
1.12924e-38
2.83472e-35
2.49735e-33
1.64399e-31
7.71581e-30
4.52136e-28
2.52111e-26
1.26735e-24
2.71435e-23
6.61641e-72
-5.06675e-66
-2.51942e-62
-3.65673e-59
-2.72122e-56
-1.31064e-53
-4.12034e-51
-8.94633e-49
-1.54708e-46
-2.87045e-44
-3.22777e-42
-7.54813e-43
-9.89848e-44
-9.99664e-43
1.23325e-40
4.32149e-37
5.83249e-35
3.79003e-33
2.3803e-31
1.88505e-29
7.96054e-28
4.33999e-26
1.30418e-24
1.09088e-74
-7.99439e-67
-3.93766e-63
-5.70859e-60
-4.22076e-57
-2.00415e-54
-5.984e-52
-1.05547e-49
-8.48796e-48
-2.11749e-46
-1.48151e-44
-2.65751e-45
-2.79315e-46
-6.07588e-43
1.5644e-42
2.99589e-39
5.24901e-37
5.16441e-35
4.40735e-33
3.34886e-31
1.91756e-29
1.50864e-27
3.84354e-26
-2.72523e-81
-1.17971e-70
-6.87991e-67
-1.22582e-63
-1.08821e-60
-5.39982e-58
-1.39338e-55
-1.51484e-53
-1.43622e-54
-7.8e-56
-3.20822e-57
-6.72622e-58
-1.95774e-52
-1.38885e-43
-1.23858e-44
3.16122e-43
2.07657e-40
3.34582e-38
7.05249e-36
9.49989e-34
1.37439e-31
1.94121e-29
6.71411e-28
-4.00303e-82
-2.10697e-77
-1.69507e-73
-2.61849e-70
-1.2806e-67
-4.74695e-69
-1.04723e-70
-2.07986e-71
-8.97757e-68
-2.63997e-64
-4.03566e-61
-1.99924e-58
-3.61706e-53
-3.63531e-53
-3.05593e-54
1.11437e-50
9.61253e-48
1.90833e-44
6.80975e-42
2.39972e-39
8.38252e-37
3.16759e-34
1.10826e-32
0
0
-1.07766e-93
-6.7449e-89
-1.03121e-84
-2.95501e-80
-4.29513e-76
-3.2717e-72
-1.55606e-68
-4.68963e-65
-7.13352e-62
-3.60832e-59
-9.37206e-61
-1.34826e-62
-1.42755e-64
-2.54722e-66
1.98602e-65
1.68086e-59
0
1.62604e-53
3.40396e-51
8.16057e-49
5.44009e-47
0.773065
0.0387872
5.83e-05
9.84084e-07
0.91945
0.192317
2.26486e-05
4.01257e-08
1
0.428287
0.000160668
8.29173e-06
0.999999
0.954358
0.240528
1.3729e-05
0.999911
0.999798
0.928268
0.592933
0.986382
0.997925
0.995671
0.992102
0.241892
0.655348
0.914213
0.982032
0.000340504
0.0369188
0.17703
0.353124
0.000108045
0.000162797
0.000360881
0.000759211
9.30312e-05
0.000108045
0.000194901
0.000453478
0.000132026
0.00032695
0.000469461
0.000466983
0.000413915
0.000395752
0.000247846
3.9382e-05
0.000257603
7.21266e-05
1.57355e-06
1.26353e-08
1.93013e-06
1.71178e-08
5.62581e-09
4.70357e-09
2.50543e-10
7.97266e-10
4.36696e-09
4.68384e-09
5.15196e-11
7.86671e-10
4.37609e-09
5.20684e-09
5.10447e-11
9.43314e-10
3.53667e-09
4.92803e-09
5.56588e-11
2.1457e-10
7.75518e-10
1.14082e-09
7.41145e-11
2.03147e-10
1.59327e-10
1.59432e-10
6.87537e-11
1.78352e-10
1.59272e-10
2.55293e-09
2.44206e-11
1.3931e-10
1.59198e-10
1.06775e-09
7.63971e-12
6.99915e-11
1.84753e-10
1.84409e-10
4.13135e-12
3.43791e-11
1.22502e-10
1.93898e-10
2.03586e-12
1.69111e-11
3.97245e-11
1.72691e-10
8.6725e-13
7.67111e-12
1.74302e-11
1.57247e-10
3.66222e-13
3.076e-12
9.30958e-12
1.60622e-10
1.52243e-13
1.34653e-12
5.63603e-12
1.09438e-10
6.03767e-14
6.1831e-13
3.66844e-12
3.83815e-11
2.24112e-14
2.57305e-13
2.15462e-12
1.72848e-11
7.17922e-15
9.75792e-14
9.69059e-13
9.54583e-12
1.88689e-15
3.25165e-14
3.9337e-13
5.46759e-12
4.00649e-16
9.11071e-15
1.85159e-13
3.59493e-12
6.74675e-17
2.13736e-15
9.66821e-14
2.6262e-12
8.97902e-18
4.10209e-16
5.13309e-14
1.77172e-12
9.50003e-19
5.93367e-17
2.6539e-14
9.27641e-13
7.84912e-20
5.78915e-18
1.11093e-14
3.46345e-13
4.5866e-21
3.05617e-19
3.30535e-15
9.1625e-14
1.69102e-22
6.03143e-21
6.43308e-16
1.62145e-14
1.92695e-24
5.55658e-22
7.3156e-17
1.82119e-15
5.00609e-26
1.45747e-23
3.94651e-18
1.1862e-16
4.40586e-30
6.56097e-25
1.02651e-19
2.53086e-18
0
-4.33544e-69
-1.97574e-38
-1.69375e-34
1.78415e-12
2.02167e-12
1.94523e-12
1.84603e-12
1.48097e-12
6.71466e-13
2.69928e-12
3.92318e-11
2.20597e-10
3.74767e-12
9.83146e-12
1.12994e-11
3.84267e-11
1.16242e-10
6.2602e-10
1.15795e-09
3.74671e-10
1.33063e-09
2.16445e-10
6.3915e-11
2.03289e-12
5.12247e-09
1.8858e-10
7.84327e-09
8.52777e-12
1.43301e-10
1.5834e-06
1.28877e-05
1.2544e-07
5.68825e-11
3.83951e-11
2.99176e-10
2.47684e-09
1.3346e-08
1.38114e-08
3.03115e-09
1.47082e-08
4.22209e-09
4.05178e-08
6.39316e-11
7.60377e-06
0.000423265
2.62731e-08
6.24622e-09
7.92899e-08
0.000127496
0.000308012
3.07826e-06
1.37169e-10
1.2316e-09
3.60872e-07
3.06526e-06
4.48053e-07
3.55363e-07
5.82214e-08
2.82364e-07
1.5611e-07
0.0888591
0.114738
9.85398e-06
1.66953e-05
0.0933836
0.0109634
0.031556
0.000128932
0.000108102
6.35525e-08
4.45668e-09
7.9166e-08
9.98177e-06
7.19469e-05
1.12181e-05
7.02158e-06
1.23971e-06
4.46723e-06
4.86224e-06
0.706693
0.854203
0.726523
0.341436
0.455396
0.781071
0.706912
0.017226
0.00178237
0.0439848
6.35529e-08
8.12377e-07
6.77088e-05
9.17818e-05
0.000185322
7.85683e-05
1.00182e-05
5.44892e-05
0.000101816
0.982032
0.975608
0.975608
0.965155
0.97022
0.975132
0.97522
0.840416
0.59719
0.646538
0.55164
0.540006
0.222264
0.0374951
0.0673765
0.000413834
8.10696e-05
0.000390097
0.00115662
0.975608
0.975608
0.975659
0.975608
0.975301
0.97522
0.975219
0.975219
0.971867
0.961123
0.949558
0.940654
0.899099
0.913166
0.825842
0.287428
0.0023484
0.00281254
0.00775473
0.482716
0.541503
0.576828
0.604723
0.624251
0.640958
0.678548
0.740384
0.825151
0.948642
0.940654
0.936956
0.936581
0.934999
0.934002
0.932771
0.467187
0.114477
0.212245
0.00365845
0.00798261
0.0124228
0.0170841
0.0216934
0.0263729
0.0358932
0.0587166
0.109696
0.222268
0.357679
0.503054
0.824378
0.934002
0.932771
0.930961
0.912417
0.716157
0.599878
0.000284098
6.15149e-05
1.22194e-05
1.27724e-05
1.48776e-05
1.54578e-05
1.74496e-05
3.06222e-05
7.64986e-05
0.000195871
0.000403424
0.006094
0.0530802
0.23465
0.815544
0.93037
0.925959
0.921489
0.712579
0.00033666
7.23579e-05
2.45445e-07
2.11977e-07
2.40954e-07
1.71789e-07
9.08948e-08
8.96597e-08
-3.78041e-07
6.06884e-06
1.22075e-05
3.32379e-05
0.000131744
0.000756068
0.168519
0.811719
0.921489
0.921009
0.568091
5.21792e-06
8.00921e-07
7.20964e-09
6.16751e-09
9.18433e-09
8.78794e-09
9.04536e-09
3.32765e-07
3.19005e-07
1.5149e-07
6.40373e-07
1.7604e-06
7.42288e-06
6.69032e-05
0.000753901
0.510986
0.915652
0.919174
0.509815
4.85072e-09
3.6868e-09
3.52097e-09
3.66706e-09
7.90597e-09
8.75628e-09
8.78794e-09
3.95599e-07
3.02735e-07
1.96033e-07
2.25588e-07
3.22933e-07
7.96201e-07
6.89899e-06
6.57986e-05
0.362451
0.888349
0.915715
0.394235
3.78371e-09
3.5268e-09
3.51042e-09
3.511e-09
2.14949e-08
1.19427e-08
1.61398e-08
2.31703e-08
1.44556e-07
1.94545e-07
1.97696e-07
2.32734e-07
3.36354e-07
4.41378e-07
2.44253e-05
0.296685
0.874603
0.832834
0.221628
4.65544e-09
3.86954e-09
3.50649e-09
3.50964e-09
2.16698e-08
1.10846e-06
1.14158e-06
2.28306e-07
1.26798e-07
3.22799e-06
2.27144e-07
3.19258e-07
3.40255e-07
5.27586e-07
5.59888e-05
0.221996
0.872523
0.630011
0.149264
5.20563e-09
4.26058e-09
3.51042e-09
3.50648e-09
3.50991e-09
1.93196e-06
2.82204e-06
2.28353e-06
1.2619e-07
2.51041e-06
2.18968e-05
3.40255e-07
7.88776e-07
1.22702e-06
4.88579e-05
0.159117
0.868213
0.52944
0.148826
4.43815e-09
4.25955e-09
4.64027e-09
3.892e-09
3.50693e-09
3.52585e-09
2.36549e-06
2.32231e-06
1.82364e-07
2.91247e-06
3.00635e-05
2.22687e-05
1.46357e-06
1.80991e-06
3.53037e-05
0.110653
0.810476
0.59575
0.148861
3.34024e-09
1.77436e-08
3.68628e-08
2.26884e-08
3.52585e-09
3.07466e-08
7.46415e-08
2.13451e-07
2.02525e-07
1.67474e-07
3.02343e-05
4.31771e-05
1.8367e-06
2.00858e-06
2.17723e-05
0.0634372
0.670031
0.677418
0.207383
2.199e-08
4.78346e-08
4.78346e-08
3.088e-08
3.91044e-09
1.70744e-07
1.0479e-06
1.07015e-06
3.13378e-07
1.358e-07
9.21702e-06
4.3307e-05
2.30505e-05
1.6372e-05
3.3838e-05
0.0362473
0.554703
0.677418
0.264679
2.95878e-08
4.70678e-08
4.78346e-08
2.95032e-08
4.63297e-09
1.55083e-07
9.89817e-07
1.07015e-06
3.81389e-07
1.16091e-07
1.358e-07
4.32952e-05
4.47833e-05
3.3838e-05
4.24875e-05
0.0477323
0.517787
0.634134
0.192156
1.01557e-09
6.51494e-09
1.88483e-08
1.70288e-08
4.06606e-08
1.87236e-08
1.88296e-08
9.77093e-08
9.77007e-08
1.00668e-07
1.15382e-05
4.64397e-05
5.5134e-05
4.25843e-05
5.19016e-05
0.0709714
0.443967
0.419561
0.192156
1.84869e-10
1.85615e-10
2.01186e-10
2.49288e-10
9.02163e-08
3.93726e-08
1.87227e-08
2.0222e-08
2.98945e-06
2.51748e-05
4.66424e-05
4.74224e-05
5.17358e-05
2.61535e-05
4.31415e-05
0.0375277
0.337466
0.416456
0.192156
1.90682e-10
1.22847e-09
1.32843e-09
2.66627e-10
2.25638e-09
1.30504e-06
1.24255e-07
3.33023e-07
4.09849e-05
4.64985e-05
4.67169e-05
4.68338e-05
3.6022e-05
1.36955e-05
0.000240841
0.0022173
0.142879
0.409676
0.252436
1.59861e-10
2.03091e-09
3.68458e-09
1.21693e-09
1.23605e-09
1.85036e-06
5.18492e-06
1.67741e-05
4.63531e-05
4.63772e-05
4.64985e-05
4.67169e-05
4.71627e-06
7.36537e-06
0.000103627
2.08394e-05
0.000171431
0.317377
0.432932
1.58837e-10
1.56719e-09
3.82824e-09
1.25558e-09
1.27997e-09
8.18349e-07
1.17838e-05
3.86218e-05
4.62422e-05
4.63531e-05
4.44535e-05
1.23874e-05
3.49256e-06
4.8845e-06
5.81378e-06
1.37443e-05
2.08394e-05
0.271447
0.434792
1.87282e-10
2.95417e-10
3.3491e-09
1.27997e-09
1.54887e-07
6.27298e-08
9.60902e-06
2.98165e-05
2.5438e-05
2.03341e-05
7.37691e-06
3.48248e-06
3.36576e-06
0.000301435
1.32002e-05
1.96983e-05
0.0276279
0.398686
0.435493
1.86345e-10
2.99145e-11
2.4772e-09
2.76343e-09
4.0599e-07
6.1561e-08
1.08418e-05
1.23539e-05
1.9266e-06
3.53446e-06
3.43282e-06
3.32278e-06
3.30179e-06
3.33307e-06
0.0662786
0.0529014
0.150061
0.435493
0.435493
1.29745e-10
2.94228e-11
1.34734e-09
1.27795e-09
1.22696e-09
1.49128e-06
9.19613e-06
2.56535e-06
1.46646e-06
4.85694e-06
3.32279e-06
3.30214e-06
3.30214e-06
0.0916436
0.150666
0.146196
0.0595838
0.381606
0.435493
4.27641e-11
2.43667e-11
1.2676e-10
1.13633e-09
1.16318e-09
9.41816e-07
1.97447e-06
1.35541e-06
1.38626e-06
1.45428e-06
0.00288704
0.00567476
0.00776307
0.135654
0.15012
0.101777
0.00193938
0.270374
0.434045
1.90216e-11
1.58284e-11
1.84776e-11
1.1585e-09
7.60435e-10
6.15024e-07
1.2457e-06
1.26938e-06
1.32712e-06
1.38626e-06
0.0182439
0.0638497
0.0599223
0.0290951
0.0254247
0.00504738
0.000472881
0.161724
0.429737
1.37533e-11
1.26153e-11
4.30564e-11
4.76255e-11
1.70616e-10
1.45777e-06
3.13166e-06
2.23577e-06
1.38626e-06
1.45414e-06
0.0306309
0.0758958
0.0411898
0.00209298
0.000553941
0.000265717
0.000276521
0.112445
0.425663
1.07898e-11
1.23523e-11
1.02465e-10
1.10249e-10
1.28182e-09
4.10769e-08
3.03722e-06
1.57683e-06
1.46105e-06
1.50308e-06
0.0383956
0.0781835
0.0289553
0.000553439
0.000265576
0.000185643
0.000241964
0.0934968
0.423574
7.9412e-12
2.13583e-11
3.70325e-10
8.20727e-09
5.62042e-07
3.19268e-07
1.2573e-06
1.57038e-06
1.52694e-06
1.55344e-06
0.0419049
0.079521
0.0309106
0.00034485
0.000185621
0.000176492
0.000185643
0.0784984
0.422147
5.06883e-12
2.45584e-11
5.66831e-10
4.78227e-08
3.00354e-06
4.88058e-05
6.54291e-05
7.99502e-06
1.57038e-06
1.91042e-06
0.0421779
0.0808706
0.0415458
0.000446738
0.000176425
0.000176492
0.000455834
0.0493091
0.172943
1.06615e-12
3.41566e-12
1.83947e-10
8.48644e-09
2.28436e-06
0.00020311
0.000363656
0.000105684
1.91042e-06
3.34354e-06
0.0346328
0.0818382
0.0562588
0.00159289
0.000178924
0.000176492
0.000428954
0.00976242
0.010841
4.94404e-14
5.80614e-16
4.03639e-18
5.82475e-09
9.8985e-07
0.000195799
0.000365521
0.000349094
2.14154e-05
3.96898e-06
0.0242917
0.0827527
0.0825732
0.00686662
0.00020139
0.000179284
0.000223449
0.000325781
0.00296332
3.34248e-14
2.58924e-16
-1.46267e-21
-6.25548e-25
-8.23901e-13
9.00336e-06
0.000259127
0.000344644
0.000118721
2.45113e-06
3.78882e-06
0.0829728
0.100302
0.0290785
0.000293357
0.000192962
0.00018067
0.000180653
0.00111733
4.26302e-15
1.67413e-16
-1.07044e-16
-1.32419e-13
-2.64058e-14
0
3.96015e-22
0.000122094
0.000124252
1.56157e-06
1.83214e-06
0.0597002
0.102964
0.0459532
0.00041858
0.00021164
0.000203907
0.000183343
0.000452649
6.11632e-16
3.21644e-17
-3.36724e-16
-1.27285e-14
-8.98364e-14
-2.46081e-14
-7.91508e-15
-1.51143e-15
-1.23755e-23
-3.86733e-25
2.06108e-09
0.0462716
0.107243
0.109625
0.0101792
0.000254524
0.000211433
0.000217415
0.000281159
3.58386e-17
1.37633e-18
-3.27558e-16
-2.56112e-16
-3.01873e-15
-9.52653e-15
-1.92527e-14
-6.11874e-15
-1.03586e-15
-9.46922e-17
-1.00625e-27
0.0521479
0.11064
0.111209
0.0358972
0.000315679
0.000187899
0.000137484
0.000157468
4.78083e-19
5.77197e-21
-4.11724e-18
-1.78931e-18
-1.75418e-16
-4.16302e-15
-2.05811e-14
-6.63389e-15
-1.24221e-15
-4.93352e-16
-9.12419e-19
0.0449751
0.110804
0.111143
0.0997143
0.00242711
0.000137484
0.000121194
0.000121643
-2.72312e-31
-3.39147e-28
-3.77394e-23
-6.68478e-24
-2.35097e-19
-8.20353e-17
-1.08225e-14
-2.3311e-15
-3.45349e-16
-6.0292e-16
-4.35269e-16
-1.87578e-16
2.0276e-19
0.068134
0.0469691
0.000152592
0.000121194
0.000121194
0.000121194
)
;

boundaryField
{
    leftWall
    {
        type            zeroGradient;
    }
    rightWall
    {
        type            zeroGradient;
    }
    lowerWall
    {
        type            zeroGradient;
    }
    atmosphere
    {
        type            inletOutlet;
        inletValue      uniform 0;
        value           nonuniform List<scalar> 
46
(
0
0
0
0
0
0
0
0
0
0
0
0
0
0
0
0
0
0
0
0
0
0
0
0
0
0
0
0
0
0
0
0
0
0
0
0
0
0
0
0
0.068134
0.0469691
0.000152592
0.000121194
0.000121194
0.000121194
)
;
    }
    defaultFaces
    {
        type            empty;
    }
}


// ************************************************************************* //
