/*--------------------------------*- C++ -*----------------------------------*\
| =========                 |                                                 |
| \\      /  F ield         | OpenFOAM: The Open Source CFD Toolbox           |
|  \\    /   O peration     | Version:  2206                                  |
|   \\  /    A nd           | Website:  www.openfoam.com                      |
|    \\/     M anipulation  |                                                 |
\*---------------------------------------------------------------------------*/
FoamFile
{
    version     2.0;
    format      ascii;
    arch        "LSB;label=32;scalar=64";
    class       volScalarField;
    location    "0.4";
    object      p;
}
// * * * * * * * * * * * * * * * * * * * * * * * * * * * * * * * * * * * * * //

dimensions      [1 -1 -2 0 0 0 0];

internalField   nonuniform List<scalar> 
2268
(
883.228
885.238
893.421
901.784
905.398
903.703
899.277
895.184
893.185
893.926
897.63
904.466
914.723
928.67
946.477
968.196
993.175
1018.84
1038.56
1047.77
1025.8
1012.01
1054.42
823.339
825.008
833.269
841.553
845.17
843.502
839.178
835.231
833.367
834.208
837.965
844.794
854.822
868.191
885.213
905.991
930.226
956.359
978.766
990.574
973.651
940.904
987.677
762.338
763.665
771.833
779.983
783.595
781.987
777.868
774.207
772.61
773.643
777.503
784.344
794.332
807.659
824.39
844.347
866.814
890.269
911.438
924.039
913.799
883.14
929.203
700.477
701.275
709.203
717.156
720.749
719.241
715.426
712.179
710.964
712.266
716.268
723.14
733.076
746.239
762.644
781.989
803.352
824.832
843.641
855.647
853.297
842.635
883.258
638.066
638.033
645.542
653.246
656.795
655.411
651.969
649.231
648.478
650.101
654.267
661.172
671.042
684.052
700.17
719.033
739.685
760.234
777.995
790.309
795.924
800.646
842.976
575.456
574.002
581.144
588.416
591.884
590.64
587.618
585.448
585.205
587.171
591.503
598.431
608.223
621.075
636.962
655.491
675.69
695.825
713.519
726.604
736.582
748.733
788.562
513.137
509.651
515.658
522.44
525.886
524.89
522.377
520.841
521.142
523.452
527.938
534.877
544.589
557.305
573.004
591.316
611.297
631.339
649.313
662.896
673.506
685.257
713.057
451.624
445.358
448.991
455.162
458.849
458.335
456.454
455.581
456.391
458.981
463.54
470.411
479.999
492.625
508.271
526.503
546.428
566.572
584.906
598.719
607.618
614.065
613.594
244.025
243.984
243.921
243.836
243.735
243.625
243.509
243.393
243.278
243.167
243.064
242.971
242.891
242.825
242.773
242.735
242.708
242.689
242.675
243.979
243.935
243.868
243.781
243.678
243.566
243.45
243.332
243.217
243.106
243.002
242.909
242.828
242.762
242.71
242.671
242.645
242.627
242.612
243.937
243.891
243.82
243.728
243.622
243.508
243.391
243.273
243.156
243.043
242.938
242.843
242.762
242.695
242.643
242.604
242.578
242.56
242.545
243.903
243.852
243.776
243.679
243.568
243.451
243.332
243.212
243.094
242.978
242.87
242.773
242.691
242.623
242.571
242.533
242.507
242.49
242.476
243.88
243.821
243.737
243.632
243.515
243.394
243.272
243.151
243.03
242.911
242.8
242.7
242.615
242.547
242.494
242.457
242.432
242.416
242.402
243.869
243.796
243.702
243.587
243.463
243.335
243.212
243.089
242.966
242.843
242.726
242.623
242.535
242.465
242.413
242.376
242.353
242.338
242.325
243.872
243.78
243.669
243.543
243.41
243.276
243.151
243.028
242.901
242.772
242.649
242.54
242.449
242.378
242.326
242.29
242.269
242.257
242.245
243.885
243.776
243.639
243.5
243.355
243.211
243.088
242.964
242.835
242.7
242.567
242.454
242.359
242.286
242.233
242.198
242.179
242.171
242.161
357.106
346.136
344.254
349.529
353.942
354.055
352.929
352.93
354.386
357.265
361.797
368.399
377.578
389.832
405.349
423.854
444.405
465.538
484.922
498.992
502.857
490.656
408.721
236.867
220.475
205.404
204.264
208.008
207.688
206.699
207.779
210.293
213.805
218.636
225.358
234.527
246.511
261.606
279.588
300.516
324.018
346.997
363.944
369.143
358.754
327.927
131.809
106.465
74.6802
65.9521
68.4297
67.8818
66.5842
67.4333
69.3311
71.6479
74.5803
78.9252
85.9008
96.9213
112.267
131.406
156.331
187.225
218.285
240.266
253.834
259.772
264.039
54.6717
23.3283
6.14579
5.82104
6.8986
6.37503
5.73207
5.77216
6.10658
6.55469
7.10453
7.95738
9.37255
11.6379
14.8659
19.6464
30.626
54.6913
89.5166
121.192
148.609
169.387
184.437
1.57129
0.26318
0.242092
0.353887
0.330545
0.342796
0.348198
0.347716
0.349798
0.357007
0.37062
0.391758
0.425239
0.477854
0.583457
0.64822
0.839539
2.55113
9.03261
22.3524
45.5828
74.7472
101.541
0.169728
0.0998285
0.136387
0.180545
0.187063
0.192887
0.198524
0.202082
0.207046
0.215748
0.22938
0.24907
0.27901
0.324419
0.423423
0.482229
0.50181
0.479005
0.458151
0.521092
1.72663
12.8769
33.8066
0.0238885
0.0223025
0.0213089
0.0304356
0.0362159
0.0407384
0.0455422
0.0499356
0.055531
0.063748
0.0752379
0.0909062
0.11415
0.148464
0.222001
0.257364
0.230352
0.158062
0.102506
-0.00574498
-0.221503
-0.139307
0.762876
-0.131947
-0.13505
-0.129524
-0.121642
-0.116063
-0.111546
-0.107184
-0.102828
-0.0977104
-0.0909026
-0.0822834
-0.0720414
-0.0589158
-0.0424975
-0.0290849
-0.0286329
-0.0774023
-0.173304
-0.290409
-0.394131
-0.501126
-0.488766
-0.447262
-0.282306
-0.279989
-0.275379
-0.271709
-0.267491
-0.263544
-0.259666
-0.255865
-0.251799
-0.246959
-0.241383
-0.235976
-0.232175
-0.233938
-0.253881
-0.281036
-0.343521
-0.460734
-0.629599
-0.796819
-0.850406
-0.762992
-0.621319
-0.431608
-0.428798
-0.425452
-0.422445
-0.419083
-0.415673
-0.412271
-0.409042
-0.405958
-0.40281
-0.39964
-0.397513
-0.398476
-0.408283
-0.425754
-0.462726
-0.526755
-0.628527
-0.770546
-0.957483
-1.03264
-0.914802
-0.724778
-0.581415
-0.579146
-0.576435
-0.573916
-0.57101
-0.567943
-0.564827
-0.561882
-0.559247
-0.55694
-0.555094
-0.554625
-0.55712
-0.565984
-0.581423
-0.611395
-0.661198
-0.735494
-0.831774
-0.94253
-0.973071
-0.921976
-0.754473
-0.731978
-0.730127
-0.728061
-0.725884
-0.723247
-0.720367
-0.71736
-0.714431
-0.71175
-0.709468
-0.707818
-0.70753
-0.709548
-0.715913
-0.727459
-0.748102
-0.781663
-0.832041
-0.898924
-0.948708
-0.940384
-0.870101
-0.768221
-0.883324
-0.882129
-0.880357
-0.878344
-0.875824
-0.872988
-0.869934
-0.866821
-0.863794
-0.861056
-0.858883
-0.857784
-0.858106
-0.861507
-0.868388
-0.880131
-0.898044
-0.924965
-0.960674
-0.983521
-0.973008
-0.921794
-0.838592
-1.03567
-1.03482
-1.03324
-1.03129
-1.02877
-1.02586
-1.02263
-1.01919
-1.01568
-1.01222
-1.00914
-1.00653
-1.00504
-1.0052
-1.0074
-1.01208
-1.01947
-1.02909
-1.03635
-1.03275
-1.01264
-0.972907
-0.913767
-1.18891
-1.18823
-1.18673
-1.18476
-1.18216
-1.17906
-1.17554
-1.17167
-1.16754
-1.16327
-1.159
-1.15488
-1.15118
-1.14813
-1.14579
-1.1441
-1.14272
-1.14049
-1.13427
-1.11925
-1.09105
-1.04825
-0.99333
-1.34299
-1.34238
-1.34087
-1.3388
-1.33605
-1.3327
-1.32882
-1.32444
-1.31962
-1.31443
-1.30893
-1.30318
-1.29726
-1.2912
-1.28485
-1.27789
-1.26965
-1.25876
-1.24299
-1.21987
-1.18747
-1.1451
-1.09369
-1.49789
-1.49727
-1.49571
-1.4935
-1.49055
-1.4869
-1.48261
-1.47767
-1.47213
-1.46598
-1.45924
-1.45189
-1.4439
-1.43514
-1.42538
-1.41418
-1.40084
-1.38426
-1.36298
-1.33544
-1.30045
-1.2576
-1.20758
-1.65362
-1.65294
-1.6513
-1.64893
-1.64575
-1.64179
-1.63706
-1.63156
-1.62528
-1.6182
-1.61028
-1.60145
-1.59159
-1.58051
-1.56792
-1.55338
-1.53624
-1.51562
-1.49051
-1.45994
-1.4232
-1.38005
-1.33083
-1.81018
-1.80944
-1.80771
-1.80517
-1.80174
-1.79746
-1.79231
-1.78626
-1.77929
-1.77134
-1.76235
-1.75219
-1.74071
-1.72769
-1.71282
-1.69569
-1.67573
-1.65228
-1.6246
-1.59203
-1.55411
-1.51065
-1.46182
-1.96762
-1.96682
-1.96497
-1.96227
-1.95862
-1.95404
-1.94848
-1.94193
-1.93432
-1.9256
-1.91566
-1.90437
-1.89154
-1.87694
-1.86029
-1.84119
-1.81918
-1.79372
-1.76427
-1.73035
-1.69162
-1.64791
-1.59929
-2.12597
-2.12511
-2.12317
-2.12032
-2.11646
-2.1116
-2.10569
-2.09869
-2.09054
-2.08115
-2.07042
-2.05819
-2.04427
-2.02844
-2.01042
-1.98987
-1.96639
-1.93955
-1.90891
-1.87409
-1.83482
-1.79094
-1.74243
-2.28527
-2.28436
-2.28233
-2.27936
-2.27532
-2.27022
-2.26401
-2.25665
-2.24805
-2.23813
-2.22676
-2.21379
-2.19903
-2.18228
-2.16328
-2.1417
-2.11722
-2.08945
-2.05805
-2.0227
-1.98313
-1.93917
-1.89079
-2.44556
-2.44462
-2.44251
-2.43945
-2.43526
-2.42998
-2.42354
-2.41589
-2.40695
-2.39662
-2.38477
-2.37126
-2.35591
-2.33852
-2.31885
-2.29662
-2.27151
-2.24321
-2.21141
-2.17581
-2.13616
-2.09228
-2.04407
-2.60687
-2.60592
-2.60375
-2.60062
-2.59633
-2.59092
-2.58432
-2.57647
-2.56729
-2.55669
-2.54453
-2.53067
-2.51494
-2.49718
-2.47713
-2.45455
-2.42915
-2.40064
-2.36876
-2.33319
-2.29368
-2.25003
-2.20209
-2.76924
-2.76828
-2.76607
-2.7629
-2.75855
-2.75307
-2.74639
-2.73843
-2.72913
-2.71837
-2.70606
-2.69203
-2.67615
-2.65824
-2.63808
-2.61544
-2.59003
-2.5616
-2.52998
-2.49467
-2.45554
-2.41232
-2.3648
-2.93269
-2.93173
-2.92948
-2.9263
-2.92195
-2.91646
-2.90976
-2.90179
-2.89246
-2.88169
-2.86936
-2.85535
-2.8395
-2.82165
-2.8016
-2.77921
-2.75408
-2.72605
-2.69482
-2.6601
-2.62162
-2.57909
-2.53222
-3.09725
-3.09628
-3.09396
-3.09083
-3.08652
-3.08108
-3.07444
-3.06654
-3.0573
-3.04663
-3.03444
-3.02059
-3.00495
-2.98736
-2.96758
-2.94585
-2.92117
-2.89374
-2.86325
-2.82938
-2.79185
-2.7503
-2.70441
-3.26288
-3.26197
-3.25946
-3.25649
-3.25227
-3.24694
-3.24042
-3.23267
-3.22361
-3.21316
-3.20125
-3.1877
-3.17242
-3.1554
-3.13622
-3.11491
-3.09108
-3.06456
-3.03509
-3.00238
-2.96612
-2.92592
-2.88143
-3.4295
-3.42851
-3.42621
-3.42336
-3.41918
-3.414
-3.40767
-3.40015
-3.39135
-3.38119
-3.36977
-3.35666
-3.34193
-3.32546
-3.30706
-3.28656
-3.26374
-3.23837
-3.2102
-3.17896
-3.14431
-3.10588
-3.06327
-3.59713
-3.59615
-3.59404
-3.5912
-3.58723
-3.58224
-3.57616
-3.56894
-3.56051
-3.55081
-3.53979
-3.52729
-3.51325
-3.49756
-3.48006
-3.4606
-3.43898
-3.41499
-3.38839
-3.35891
-3.32624
-3.29001
-3.24983
-3.76574
-3.7648
-3.76282
-3.76009
-3.75632
-3.75159
-3.74581
-3.73896
-3.73097
-3.72178
-3.71133
-3.69953
-3.6863
-3.67152
-3.65509
-3.63683
-3.6166
-3.59419
-3.5694
-3.54198
-3.51164
-3.47805
-3.44086
-3.93528
-3.9344
-3.93254
-3.92998
-3.92644
-3.92199
-3.91657
-3.91014
-3.90266
-3.89406
-3.88429
-3.87328
-3.86095
-3.84721
-3.83196
-3.81507
-3.79639
-3.77575
-3.75298
-3.72787
-3.70017
-3.66962
-3.63596
-4.1057
-4.10491
-4.10317
-4.10081
-4.09752
-4.0934
-4.08838
-4.08243
-4.07551
-4.06757
-4.05856
-4.04842
-4.0371
-4.0245
-4.01055
-3.99513
-3.97814
-3.95942
-3.93884
-3.91623
-3.89143
-3.86426
-3.83456
-4.27694
-4.27626
-4.27463
-4.27252
-4.26949
-4.26574
-4.26116
-4.25574
-4.24944
-4.24222
-4.23403
-4.22484
-4.21459
-4.20322
-4.19065
-4.17681
-4.1616
-4.14491
-4.12663
-4.10667
-4.08494
-4.06135
-4.03591
-4.44885
-4.44828
-4.44677
-4.44494
-4.4422
-4.43885
-4.43474
-4.42989
-4.42425
-4.41779
-4.41048
-4.40229
-4.39318
-4.3831
-4.37198
-4.35978
-4.34641
-4.3318
-4.3159
-4.29865
-4.28004
-4.26011
-4.23902
-4.62135
-4.62091
-4.61951
-4.61801
-4.61556
-4.61263
-4.60903
-4.60477
-4.59983
-4.59418
-4.58779
-4.58065
-4.57272
-4.56397
-4.55435
-4.54381
-4.53232
-4.51984
-4.50631
-4.49176
-4.47625
-4.45991
-4.44302
-4.79459
-4.79433
-4.79303
-4.7919
-4.78974
-4.78726
-4.78419
-4.78057
-4.77636
-4.77155
-4.76613
-4.76007
-4.75336
-4.74597
-4.73787
-4.72904
-4.71945
-4.70908
-4.69792
-4.68602
-4.6735
-4.66057
-4.64758
-4.96856
-4.96856
-4.96735
-4.9666
-4.96473
-4.96273
-4.96022
-4.95725
-4.9538
-4.94987
-4.94543
-4.94049
-4.93502
-4.92902
-4.92247
-4.91534
-4.90765
-4.89937
-4.89053
-4.88121
-4.87154
-4.86176
-4.85225
-5.14257
-5.1428
-5.1417
-5.14131
-5.13973
-5.13825
-5.13629
-5.13399
-5.13131
-5.12825
-5.12482
-5.12099
-5.11677
-5.11216
-5.10713
-5.10169
-5.09585
-5.08961
-5.08301
-5.07612
-5.06911
-5.0622
-5.05575
-5.31596
-5.31634
-5.31544
-5.3153
-5.3141
-5.31312
-5.31171
-5.31006
-5.30815
-5.30597
-5.30352
-5.30079
-5.29781
-5.29454
-5.291
-5.2872
-5.28314
-5.27885
-5.27437
-5.26978
-5.26522
-5.26089
-5.25707
-5.48956
-5.49005
-5.48946
-5.48947
-5.48877
-5.48819
-5.48737
-5.48638
-5.48526
-5.48394
-5.48248
-5.48086
-5.47909
-5.47716
-5.47509
-5.47289
-5.47059
-5.4682
-5.46578
-5.4634
-5.46116
-5.45921
-5.45775
-5.66554
-5.6664
-5.66613
-5.66628
-5.66611
-5.66597
-5.66575
-5.66548
-5.66516
-5.66479
-5.66438
-5.66394
-5.66346
-5.66295
-5.66244
-5.66195
-5.66149
-5.66111
-5.66085
-5.66076
-5.6609
-5.66138
-5.66231
209.083
244.295
244.519
244.091
245.293
244.263
244.345
243.923
242.813
241.87
244.184
243.965
196.819
224.836
231.664
243.03
130.085
169.282
177.936
204.108
61.1352
97.9769
122.997
148.746
13.3993
37.538
59.5399
80.4063
-0.40653
1.53288
10.7548
22.0205
-0.471982
-0.434388
-0.242747
-0.103489
-0.540086
-0.441586
-0.309931
-0.134606
-0.600151
-0.499703
-0.372845
-0.196727
-0.655565
-0.541854
-0.415796
-0.277536
-0.73353
-0.620239
-0.507231
-0.38018
-0.826707
-0.71964
-0.608705
-0.487248
-0.91755
-0.819754
-0.714807
-0.599581
-1.02247
-0.929183
-0.828642
-0.719175
-1.13934
-1.04912
-0.951077
-0.84538
-1.26418
-1.17608
-1.08024
-0.977422
-1.39615
-1.30955
-1.21535
-1.11459
-1.53423
-1.44869
-1.3556
-1.25614
-1.67782
-1.59293
-1.50041
-1.40148
-1.82648
-1.74191
-1.64944
-1.55019
-1.97999
-1.89549
-1.80258
-1.70215
-2.13826
-2.05371
-1.96002
-1.85763
-2.30137
-2.21683
-2.12223
-2.01736
-2.46947
-2.38522
-2.28991
-2.18253
-2.64277
-2.55937
-2.46395
-2.35462
-2.82147
-2.73975
-2.64526
-2.53521
-3.00571
-2.92677
-2.83463
-2.72575
-3.19549
-3.12067
-3.0327
-2.92747
-3.39062
-3.32144
-3.23982
-3.14129
-3.59067
-3.52869
-3.4559
-3.36785
-3.79498
-3.7416
-3.68012
-3.60733
-4.00252
-3.95875
-3.91035
-3.85529
-4.21198
-4.17818
-4.14392
-4.11037
-4.42207
-4.39768
-4.37662
-4.36344
-4.63208
-4.61564
-4.60479
-4.60545
-4.84142
-4.83117
-4.8269
-4.8336
-5.04881
-5.04326
-5.04303
-5.05131
-5.25336
-5.25147
-5.25404
-5.26307
-5.45685
-5.45805
-5.46309
-5.47376
-5.66421
-5.66845
-5.67611
-5.68938
243.984
243.782
243.58
243.421
243.269
243.106
242.992
242.871
242.733
242.586
242.434
242.313
242.209
242.131
242.078
242.044
242.03
242.032
242.028
244.032
243.989
243.421
243.358
243.174
242.863
242.84
242.739
242.573
242.439
242.262
242.102
241.966
241.881
241.836
241.807
241.804
241.832
241.843
243.573
243.58
242.892
242.818
242.808
242.546
242.678
242.587
242.339
242.253
241.953
241.77
241.659
241.578
241.571
241.517
241.505
241.589
241.668
236.198
239.277
241.874
241.305
239.119
240.001
240.535
242.743
242.084
241.946
241.657
241.665
241.443
241.16
241.131
241.019
240.989
241.309
241.596
156.149
131.187
197.872
219.503
166.897
179.406
217.896
243.302
240.897
239.351
241.03
240.889
240.86
239.856
239.848
240.257
240.238
241.028
241.709
124.065
111.71
148.514
175.593
128.447
127.722
166.876
191.478
189.069
172.174
206.813
207.504
228.773
231.761
233.528
240.38
239.39
239.877
241.652
83.9862
82.2297
84.898
91.6604
88.7976
91.033
102.799
114.837
125.892
122.653
144.103
144.209
144.811
162.868
191.255
227.413
236.317
229.933
241.22
29.6282
33.0438
35.156
37.1016
38.5206
38.9498
40.7466
46.1101
56.468
67.1875
76.2047
86.5224
102.443
137.064
172.488
197.315
204.156
188.093
244.867
0.164699
0.78522
1.29385
1.65295
1.98514
2.32354
2.96961
4.49714
7.87037
14.8886
23.5178
33.6053
55.3574
91.5997
145.455
213.433
276.987
308.383
464.516
0.071174
0.22084
0.33641
0.433215
0.521895
0.587977
0.627017
0.666149
0.737352
0.809754
0.956942
1.5425
5.15327
24.6654
94.2316
252.314
483.591
745.725
944.595
-0.0297882
0.078381
0.169722
0.266492
0.361055
0.437475
0.493432
0.543355
0.606077
0.693269
0.825752
1.02573
1.49592
3.89117
20.7002
171.185
492.515
800.502
1014.94
-0.155796
-0.0584779
0.0435523
0.145046
0.236679
0.313315
0.378384
0.443159
0.522866
0.633446
0.792786
1.01471
1.3117
1.87324
5.0448
40.2267
351.298
609.296
740.756
-0.265416
-0.171987
-0.0760109
0.0173789
0.103814
0.181843
0.254413
0.330006
0.420732
0.541666
0.709154
0.933862
1.20907
1.47536
2.44589
7.43479
209.547
390.718
458.801
-0.37938
-0.292757
-0.204633
-0.117154
-0.0327386
0.047536
0.125756
0.208161
0.303743
0.423496
0.579984
0.779336
0.995687
1.18574
1.53603
3.31289
117.75
238.619
275.253
-0.498864
-0.418159
-0.335617
-0.252474
-0.169896
-0.0880546
-0.00536534
0.0822684
0.18044
0.29563
0.434135
0.597004
0.746468
0.86842
0.696944
1.11324
62.8133
159.329
187.706
-0.623728
-0.547319
-0.46899
-0.389285
-0.308558
-0.22645
-0.141335
-0.0500576
0.0498345
0.161213
0.285639
0.421064
0.528341
0.612019
0.336888
0.034858
44.4641
126.877
147.958
-0.753779
-0.680629
-0.605562
-0.528825
-0.450451
-0.36998
-0.285803
-0.195087
-0.0949363
0.0143358
0.132728
0.259889
0.370082
0.461599
0.469624
0.588599
32.349
106.303
121.789
-0.888749
-0.818108
-0.745753
-0.671938
-0.596788
-0.519944
-0.439767
-0.353075
-0.256757
-0.150093
-0.0335043
0.0970875
0.236059
0.35359
0.535113
0.73956
16.921
82.4617
96.067
-1.02805
-0.959355
-0.889363
-0.81859
-0.747613
-0.676576
-0.603605
-0.524661
-0.435288
-0.33327
-0.219503
-0.0893607
0.0621351
0.213223
0.439587
0.601261
8.74218
60.8377
73.0078
-1.17098
-1.10366
-1.03561
-0.967804
-0.90157
-0.837687
-0.773739
-0.704437
-0.624563
-0.53067
-0.423727
-0.301677
-0.158918
-0.00679931
0.198748
0.187951
13.0971
47.1315
59.3515
-1.31681
-1.2501
-1.1832
-1.11766
-1.05577
-0.998903
-0.943714
-0.883871
-0.814619
-0.733472
-0.641097
-0.53711
-0.427054
-0.314718
-0.301415
-0.215301
13.873
37.2882
52.127
-1.46495
-1.39779
-1.33069
-1.2657
-1.206
-1.15358
-1.10492
-1.05355
-0.996047
-0.932797
-0.864448
-0.784962
-0.702819
-0.585722
-0.664064
-0.268625
4.70723
21.9117
40.2882
-1.61514
-1.54619
-1.47699
-1.40982
-1.34819
-1.29445
-1.24631
-1.20004
-1.15359
-1.10958
-1.06642
-1.00086
-0.91067
-0.73428
-0.61226
-0.532046
2.86641
3.30198
38.4942
-1.76761
-1.69541
-1.62185
-1.54904
-1.47987
-1.41665
-1.35991
-1.30751
-1.26138
-1.22422
-1.18599
-1.13216
-1.03461
-0.830903
-0.649378
-0.670274
-0.833218
-0.943543
74.1763
-1.92335
-1.84657
-1.76643
-1.68426
-1.60135
-1.51883
-1.44041
-1.37234
-1.31496
-1.25947
-1.21726
-1.22419
-1.21511
-0.987945
-0.645843
-0.768283
-0.374413
3.309
212.623
-2.08408
-2.00206
-1.91397
-1.81969
-1.71841
-1.60942
-1.50692
-1.42446
-1.3752
-1.32317
-1.27673
-1.35425
-1.48478
-1.29189
-0.760811
-0.675323
0.383997
90.327
300.432
-2.25218
-2.16526
-2.06958
-1.96331
-1.84303
-1.70313
-1.56904
-1.48638
-1.48217
-1.48452
-1.37486
-1.38002
-1.51162
-1.55579
-3.59998
-2.26142
49.4277
160.811
334.361
-2.43013
-2.33973
-2.23871
-2.1244
-1.99188
-1.83257
-1.66747
-1.57845
-1.64051
-1.78837
-1.51873
-1.40383
-1.59534
-2.95684
3.47269
18.7039
57.116
115.324
264.389
-2.62007
-2.52843
-2.42556
-2.31007
-2.17818
-2.02427
-1.86628
-1.80276
-1.95077
-2.23233
-2.11454
-1.54164
-1.54045
6.12672
10.6038
14.375
24.5784
39.5824
152.861
-2.82378
-2.73355
-2.63272
-2.52409
-2.40907
-2.2883
-2.17819
-2.15769
-2.32218
-2.52197
-2.67646
-2.84778
-1.99792
1.61376
2.30834
3.58342
6.7397
6.59936
60.456
-3.04272
-2.95689
-2.86222
-2.76982
-2.69062
-2.62928
-2.58208
-2.57394
-2.65987
-2.7281
-2.64918
-2.34241
-0.356801
0.301762
0.622229
0.940435
1.78435
1.03028
15.8293
-3.27831
-3.20075
-3.11532
-3.0503
-3.02815
-3.05256
-3.08055
-3.06856
-3.04763
-3.03406
-3.14823
-2.83386
-0.430927
-0.00927545
0.123533
0.131582
0.518774
-0.32908
12.7274
-3.53166
-3.47119
-3.38969
-3.35871
-3.3996
-3.51719
-3.6207
-3.60509
-3.46202
-3.33283
-3.36422
-3.28264
-0.58372
-0.170527
-0.114443
-0.237525
-0.148654
-1.17161
18.463
-3.80385
-3.7592
-3.7099
-3.69583
-3.75641
-3.93742
-4.10415
-4.0718
-3.81403
-3.62304
-3.68979
-4.05617
-0.831771
-0.281848
-0.203182
-0.324603
-0.421205
-1.38953
5.76803
-4.08916
-4.07785
-4.0689
-4.07388
-4.12251
-4.26274
-4.4432
-4.33592
-4.0465
-3.86186
-3.94645
-4.91826
-1.68031
-0.481756
-0.280053
-0.250089
-0.122246
-0.387905
-2.19536
-4.37096
-4.39419
-4.43143
-4.46272
-4.48073
-4.53302
-4.59168
-4.44894
-4.17808
-4.00905
-3.47533
-4.74178
-3.37329
-0.871151
-0.586123
-0.463449
-0.307798
-0.491288
-1.40888
-4.62912
-4.66927
-4.73003
-4.78552
-4.79817
-4.77295
-4.72369
-4.60733
-4.40179
-4.39949
-4.8154
-7.40319
-6.12459
-1.60436
-1.2585
-1.1916
-1.14021
-1.1661
-1.45887
-4.85864
-4.89473
-4.94803
-5.00384
-5.02794
-5.00551
-4.95711
-4.89701
-4.82684
-4.92164
-5.21281
-5.23481
-6.16245
-2.52994
-2.21905
-2.34413
-2.35145
-2.27883
-1.95632
-5.07114
-5.09556
-5.12929
-5.16866
-5.20009
-5.21256
-5.20619
-5.20599
-5.28657
-5.38268
-5.72572
-5.82142
-6.75999
-6.51529
-4.21626
-4.07747
-3.95905
-3.63131
-2.39919
-5.27915
-5.2968
-5.3197
-5.34804
-5.38011
-5.41329
-5.44293
-5.48369
-5.60824
-5.57953
-6.64804
-9.98898
-11.7017
-12.6742
-6.32196
-6.01441
-5.8238
-4.49255
-3.0526
-5.48989
-5.50712
-5.52973
-5.55881
-5.59537
-5.63928
-5.68753
-5.74421
-5.80897
-5.66592
-5.93706
-3.79219
0.390395
-56.612
-28.2974
-9.71669
-7.48676
-5.06213
-3.94146
-5.70838
-5.72915
-5.75762
-5.79582
-5.84495
-5.90344
-5.96756
-6.04128
-6.11878
-6.21514
-6.52942
-6.93394
-11.0942
-66.6348
-38.696
-10.916
-8.15627
-6.50791
-5.99652
)
;

boundaryField
{
    leftWall
    {
        type            calculated;
        value           nonuniform List<scalar> 
50
(
883.228
823.339
762.338
700.477
638.066
575.456
513.137
451.624
357.106
236.867
131.809
54.6717
1.57129
0.169728
0.0238885
-0.131947
-0.282306
-0.431608
-0.581415
-0.731978
-0.883324
-1.03567
-1.18891
-1.34299
-1.49789
-1.65362
-1.81018
-1.96762
-2.12597
-2.28527
-2.44556
-2.60687
-2.76924
-2.93269
-3.09725
-3.26288
-3.4295
-3.59713
-3.76574
-3.93528
-4.1057
-4.27694
-4.44885
-4.62135
-4.79459
-4.96856
-5.14257
-5.31596
-5.48956
-5.66554
)
;
    }
    rightWall
    {
        type            calculated;
        value           nonuniform List<scalar> 
50
(
242.675
242.612
242.545
242.476
242.402
242.325
242.245
242.161
242.028
241.843
241.668
241.596
241.709
241.652
241.22
244.867
464.516
944.595
1014.94
740.756
458.801
275.253
187.706
147.958
121.789
96.067
73.0078
59.3515
52.127
40.2882
38.4942
74.1763
212.623
300.432
334.361
264.389
152.861
60.456
15.8293
12.7274
18.463
5.76803
-2.19536
-1.40888
-1.45887
-1.95632
-2.39919
-3.0526
-3.94146
-5.99652
)
;
    }
    lowerWall
    {
        type            calculated;
        value           nonuniform List<scalar> 
62
(
912.657
914.668
922.85
931.213
934.827
933.132
928.706
924.614
922.614
923.355
927.059
933.896
944.152
958.099
975.906
997.625
1022.6
1048.27
1067.99
1075.36
1050.17
1036.96
1083.24
1054.42
987.677
929.203
883.258
842.976
788.562
713.057
613.594
257.489
246.783
244.586
244.154
244.025
243.979
243.937
243.903
243.88
243.869
243.872
243.885
244.055
244.013
243.95
243.865
243.765
243.654
243.539
243.422
243.307
243.196
243.093
243
242.921
242.855
242.803
242.764
242.737
242.719
242.704
)
;
    }
    atmosphere
    {
        type            calculated;
        value           nonuniform List<scalar> 
46
(
-5.75578
-5.75732
-5.75709
-5.75732
-5.75742
-5.75753
-5.75765
-5.75778
-5.75792
-5.75807
-5.75825
-5.75846
-5.75871
-5.75902
-5.75939
-5.75985
-5.76044
-5.76118
-5.76212
-5.76331
-5.7648
-5.76664
-5.76891
-5.77238
-5.77834
-5.78753
-5.8024
-5.8236
-5.84739
-5.881
-5.92764
-5.98883
-6.06066
-6.13407
-6.21406
-6.27474
-6.3309
-6.68559
-6.91645
-6.0313
-395.681
-274.548
-6.60237
-6.42267
-6.42267
-6.42267
)
;
    }
    defaultFaces
    {
        type            empty;
    }
}


// ************************************************************************* //
