/*--------------------------------*- C++ -*----------------------------------*\
| =========                 |                                                 |
| \\      /  F ield         | OpenFOAM: The Open Source CFD Toolbox           |
|  \\    /   O peration     | Version:  2206                                  |
|   \\  /    A nd           | Website:  www.openfoam.com                      |
|    \\/     M anipulation  |                                                 |
\*---------------------------------------------------------------------------*/
FoamFile
{
    version     2.0;
    format      ascii;
    arch        "LSB;label=32;scalar=64";
    class       volScalarField;
    location    "0.4";
    object      p_rgh;
}
// * * * * * * * * * * * * * * * * * * * * * * * * * * * * * * * * * * * * * //

dimensions      [1 -1 -2 0 0 0 0];

internalField   nonuniform List<scalar> 
2268
(
912.657
914.668
922.85
931.213
934.827
933.132
928.706
924.614
922.614
923.355
927.059
933.896
944.152
958.099
975.906
997.625
1022.6
1048.27
1067.99
1075.36
1050.17
1036.96
1083.24
911.627
913.296
921.557
929.841
933.458
931.79
927.466
923.519
921.655
922.496
926.253
933.082
943.111
956.479
973.501
994.279
1018.51
1044.65
1067.05
1078.37
1047.76
1023.01
1075.79
909.485
910.812
918.98
927.13
930.742
929.134
925.015
921.354
919.757
920.789
924.649
931.491
941.479
954.806
971.537
991.494
1013.96
1037.42
1058.58
1071.19
1057.55
1029.19
1076.06
906.482
907.281
915.209
923.161
926.755
925.246
921.431
918.185
916.969
918.271
922.273
929.145
939.082
952.244
968.65
987.995
1009.36
1030.84
1049.65
1061.65
1059.3
1048.64
1088.92
902.93
902.898
910.406
918.111
921.659
920.275
916.834
914.095
913.343
914.965
919.132
926.036
935.906
948.917
965.035
983.898
1004.55
1025.1
1042.86
1055.17
1060.79
1065.51
1107.41
899.179
897.725
904.867
912.139
915.607
914.363
911.341
909.171
908.928
910.894
915.226
922.154
931.946
944.798
960.685
979.214
999.413
1019.55
1037.24
1050.33
1060.31
1072.46
1111.76
895.718
892.233
898.24
905.022
908.468
907.472
904.959
903.423
903.724
906.034
910.52
917.458
927.171
939.887
955.586
973.898
993.879
1013.92
1031.89
1045.48
1056.09
1067.84
1095.02
893.065
886.798
890.432
896.602
900.289
899.775
897.895
897.022
897.832
900.421
904.981
911.852
921.439
934.065
949.712
967.943
987.869
1008.01
1026.35
1040.16
1049.06
1055.51
1054.53
244.055
244.013
243.95
243.865
243.765
243.654
243.539
243.422
243.307
243.196
243.093
243
242.921
242.855
242.803
242.764
242.737
242.719
242.704
244.067
244.023
243.957
243.869
243.766
243.654
243.538
243.421
243.305
243.194
243.09
242.997
242.917
242.85
242.798
242.76
242.733
242.715
242.7
244.084
244.038
243.967
243.875
243.769
243.655
243.538
243.42
243.303
243.19
243.085
242.99
242.909
242.842
242.79
242.751
242.725
242.707
242.693
244.109
244.058
243.982
243.885
243.774
243.657
243.538
243.418
243.3
243.184
243.076
242.979
242.897
242.829
242.777
242.739
242.713
242.696
242.682
244.145
244.085
244.002
243.897
243.78
243.658
243.537
243.416
243.295
243.176
243.065
242.965
242.88
242.811
242.759
242.722
242.697
242.681
242.667
244.193
244.12
244.025
243.911
243.787
243.659
243.536
243.413
243.289
243.166
243.05
242.946
242.859
242.789
242.736
242.7
242.676
242.662
242.649
244.255
244.163
244.052
243.926
243.792
243.658
243.534
243.41
243.283
243.155
243.031
242.923
242.832
242.761
242.708
242.673
242.651
242.639
242.627
244.326
244.217
244.08
243.941
243.797
243.652
243.529
243.406
243.276
243.141
243.009
242.895
242.8
242.727
242.675
242.64
242.62
242.613
242.603
890.573
879.603
877.716
882.985
887.399
887.516
886.392
886.395
887.853
890.732
895.263
901.866
911.045
923.299
938.816
957.321
977.872
999.005
1018.39
1032.46
1036.32
1024.12
942.188
895.528
879.133
863.964
862.773
866.544
866.257
865.294
866.394
868.921
872.442
877.281
884.009
893.183
905.171
920.268
938.249
959.178
982.68
1005.66
1022.61
1027.8
1017.42
986.589
915.661
865.642
710.836
673.336
694.003
696.719
694.019
699.474
709.555
720.885
733.862
751.632
777.533
813.429
856.742
909.63
940.187
971.081
1002.14
1024.12
1037.69
1043.63
1047.89
748.88
348.884
88.5181
83.6461
100.935
92.4404
82.4141
83.2674
88.5646
95.5059
103.936
117.04
138.784
173.44
222.484
296.652
452.158
700.27
977.949
1030.24
1057.66
1078.44
1093.49
19.4479
1.29743
1.27634
1.38813
1.36479
1.37704
1.38244
1.38196
1.38404
1.39125
1.40487
1.426
1.45948
1.5121
1.61771
1.68258
5.20281
39.5082
151.121
382.883
765.98
1108.98
1135.78
1.32917
1.25927
1.29583
1.33998
1.3465
1.35233
1.35796
1.36152
1.36649
1.37519
1.38882
1.40851
1.43845
1.4843
1.58299
1.66165
1.69165
1.67799
1.66103
2.10971
46.5926
269.024
697.322
1.30852
1.30694
1.30594
1.31507
1.32085
1.32537
1.33018
1.33457
1.34017
1.3484
1.36003
1.37556
1.39879
1.46646
1.79304
2.11819
2.10894
1.94375
1.79608
1.73687
1.72254
1.63088
21.3653
1.27788
1.27478
1.2803
1.28819
1.29377
1.29828
1.30264
1.307
1.31212
1.31896
1.32784
1.33785
1.35095
1.4587
2.10355
2.20951
2.16409
2.06801
1.83365
1.82179
1.75663
1.1373
1.17951
1.25272
1.25503
1.25964
1.26331
1.26753
1.27148
1.27536
1.27916
1.28323
1.2881
1.29396
1.29918
1.30457
1.39137
1.31606
1.58338
1.98742
1.97975
1.21952
1.58926
1.60687
0.971695
1.05637
1.22861
1.23142
1.23477
1.23777
1.24113
1.24454
1.24795
1.25118
1.25426
1.25742
1.26087
1.263
1.26423
1.25193
1.23446
1.19749
1.13355
1.36211
1.12462
0.937944
0.920256
0.892574
1.08271
1.204
1.20627
1.20898
1.2115
1.2144
1.21747
1.22059
1.22353
1.22617
1.22848
1.23033
1.23096
1.22989
1.21943
1.20399
1.17402
1.12422
1.05167
1.54073
1.09163
0.976584
1.02182
1.1892
1.17863
1.18048
1.18255
1.18472
1.18736
1.19024
1.19325
1.19618
1.19886
1.20115
1.2028
1.20309
1.20106
1.1947
1.18315
1.1625
1.12894
1.14214
1.64592
1.86787
1.87666
1.93411
1.93966
1.15248
1.15367
1.15544
1.15746
1.15998
1.16281
1.16587
1.16898
1.17201
1.17476
1.17693
1.17803
1.17771
1.1743
1.16741
1.15567
1.13776
1.11084
1.07513
1.05228
1.20943
1.51428
1.69439
1.12532
1.12618
1.12776
1.1297
1.13222
1.13514
1.13837
1.14181
1.14532
1.14877
1.15186
1.15449
1.15597
1.1558
1.15359
1.14892
1.14153
1.1319
1.12464
1.12824
1.14836
1.18809
1.25062
1.09728
1.09796
1.09946
1.10143
1.10403
1.10713
1.11065
1.11452
1.11865
1.12292
1.12719
1.13132
1.13502
1.13806
1.1404
1.14209
1.14347
1.1457
1.15192
1.16694
1.19514
1.23794
1.29286
1.06839
1.06901
1.07051
1.07258
1.07534
1.07868
1.08257
1.08695
1.09176
1.09696
1.10246
1.1082
1.11412
1.12019
1.12654
1.13349
1.14174
1.15262
1.16839
1.19152
1.22391
1.26628
1.31769
1.03869
1.03931
1.04087
1.04308
1.04603
1.04968
1.05397
1.0589
1.06445
1.0706
1.07734
1.08468
1.09268
1.10144
1.1112
1.1224
1.13574
1.15232
1.1736
1.20114
1.23613
1.27898
1.329
1.00816
1.00883
1.01047
1.01284
1.01603
1.01999
1.02472
1.03021
1.03649
1.04357
1.05149
1.06033
1.07019
1.08126
1.09385
1.1084
1.12554
1.14616
1.17126
1.20183
1.23857
1.28172
1.33095
0.976787
0.977525
0.979263
0.981803
0.985224
0.989505
0.99466
1.00071
1.00768
1.01563
1.02462
1.03478
1.04626
1.05928
1.07415
1.09128
1.11124
1.13469
1.16237
1.19494
1.23286
1.27632
1.32515
0.944541
0.945347
0.947189
0.94989
0.953539
0.958127
0.963682
0.970236
0.977841
0.986562
0.996503
1.00779
1.02062
1.03522
1.05188
1.07097
1.09298
1.11844
1.14789
1.18181
1.22054
1.26425
1.31288
0.911386
0.912251
0.914192
0.917037
0.920896
0.925761
0.931672
0.938671
0.946822
0.956206
0.966938
0.979168
0.993084
1.00891
1.02694
1.04748
1.07096
1.09781
1.12845
1.16327
1.20253
1.24642
1.29493
0.877281
0.878191
0.880221
0.88319
0.88723
0.892329
0.898539
0.905907
0.914503
0.924424
0.935795
0.948766
0.96352
0.98027
0.999276
1.02085
1.04533
1.0731
1.1045
1.13986
1.17942
1.22338
1.27176
0.842186
0.843126
0.845235
0.848299
0.852484
0.857768
0.864209
0.871861
0.8808
0.891127
0.902972
0.916488
0.931838
0.949225
0.968894
0.991127
1.01623
1.04454
1.07634
1.11194
1.15159
1.19547
1.24368
0.806068
0.807024
0.809191
0.812323
0.816611
0.822023
0.828624
0.836472
0.845647
0.856252
0.868411
0.882274
0.897997
0.915763
0.935807
0.95839
0.983789
1.0123
1.04418
1.07975
1.11926
1.16291
1.21085
0.768892
0.769853
0.772071
0.775237
0.779581
0.785063
0.79175
0.799706
0.80901
0.819761
0.832078
0.846101
0.861986
0.8799
0.90006
0.922701
0.948103
0.97654
1.00815
1.04347
1.0826
1.12581
1.17334
0.730636
0.731601
0.733852
0.737029
0.741381
0.74687
0.753571
0.761544
0.770869
0.781639
0.793967
0.807981
0.82383
0.841681
0.861729
0.884122
0.909246
0.937285
0.968509
1.00323
1.04171
1.08424
1.13111
0.691279
0.69224
0.694567
0.69769
0.702002
0.707441
0.714085
0.721988
0.731229
0.741896
0.754089
0.767938
0.783579
0.801163
0.820949
0.842676
0.867354
0.894784
0.925278
0.959143
0.996679
1.03822
1.08411
0.650836
0.651748
0.654255
0.657226
0.661448
0.666782
0.673301
0.681054
0.690114
0.700563
0.712472
0.726016
0.741303
0.758324
0.777504
0.798811
0.822638
0.849156
0.878626
0.911336
0.947604
0.987798
1.03229
0.609413
0.610402
0.612701
0.615554
0.619731
0.624909
0.631242
0.638768
0.647563
0.65772
0.66914
0.682252
0.696984
0.713449
0.731857
0.752351
0.775172
0.800541
0.82871
0.859957
0.894605
0.933037
0.975643
0.566974
0.567955
0.57007
0.57291
0.576882
0.581869
0.587952
0.595173
0.603601
0.613301
0.62432
0.636816
0.650858
0.666551
0.684046
0.703505
0.725126
0.749119
0.775721
0.805199
0.837867
0.874099
0.914279
0.523561
0.5245
0.526483
0.52921
0.532979
0.537717
0.543494
0.550347
0.558336
0.567523
0.57797
0.589771
0.603008
0.61778
0.634218
0.652468
0.672703
0.695108
0.719899
0.747321
0.777661
0.811257
0.848444
0.479219
0.480094
0.481957
0.484518
0.488062
0.492509
0.497929
0.504356
0.511842
0.52044
0.53021
0.541222
0.553549
0.567282
0.582533
0.599428
0.618112
0.638745
0.661513
0.686629
0.714329
0.74488
0.77854
0.433989
0.434779
0.436522
0.438878
0.442173
0.446291
0.45131
0.457257
0.464178
0.472119
0.481131
0.491268
0.502595
0.515188
0.52914
0.544557
0.561555
0.580269
0.600849
0.623457
0.64826
0.675434
0.705128
0.387944
0.388629
0.390254
0.392366
0.395392
0.399145
0.403723
0.409145
0.415448
0.422671
0.430857
0.440049
0.450298
0.461667
0.474232
0.488076
0.50329
0.519979
0.538252
0.558214
0.579949
0.603535
0.628975
0.341231
0.341802
0.343309
0.345138
0.347879
0.351235
0.355339
0.360194
0.365835
0.372293
0.3796
0.387789
0.3969
0.406983
0.418098
0.430306
0.443675
0.458277
0.47418
0.491432
0.510038
0.529967
0.551064
0.293929
0.294369
0.295765
0.297266
0.299716
0.302649
0.306247
0.310503
0.315445
0.321097
0.327481
0.334622
0.342551
0.351306
0.360929
0.371464
0.382952
0.39544
0.408961
0.423511
0.439023
0.455365
0.472252
0.245885
0.24614
0.247437
0.248571
0.25073
0.253209
0.256275
0.259901
0.264109
0.268918
0.274341
0.280396
0.287107
0.2945
0.3026
0.311431
0.321021
0.331394
0.342553
0.35445
0.366966
0.3799
0.392892
0.1971
0.19711
0.198317
0.199065
0.200936
0.202932
0.205443
0.208415
0.211862
0.215798
0.220232
0.225175
0.230641
0.236644
0.2432
0.25032
0.258018
0.266298
0.275136
0.284458
0.294124
0.303902
0.313412
0.148291
0.148064
0.149158
0.149553
0.151125
0.152611
0.154565
0.156873
0.159549
0.162605
0.166043
0.169869
0.174085
0.178703
0.183731
0.189168
0.195011
0.201251
0.207853
0.214736
0.221749
0.228655
0.235109
0.100092
0.0997134
0.10061
0.10075
0.101954
0.102934
0.104346
0.105992
0.107899
0.110079
0.11253
0.115259
0.118247
0.121514
0.125054
0.128858
0.132912
0.137201
0.141682
0.146274
0.150838
0.155168
0.158987
0.0516886
0.0511989
0.0517901
0.0517795
0.0524739
0.0530611
0.0538745
0.054865
0.0559927
0.0573107
0.0587702
0.0603876
0.0621619
0.0640913
0.066161
0.0683542
0.0706573
0.0730454
0.0754683
0.0778517
0.0800914
0.0820412
0.0834988
0.000904543
4.49304e-05
0.000310292
0.000167655
0.000329848
0.00047664
0.000689963
0.000961146
0.00127993
0.00164986
0.00205836
0.00250526
0.00298666
0.00349062
0.0039987
0.00449303
0.00495102
0.00533475
0.00559651
0.00568594
0.00553776
0.00506233
0.0041349
621.609
265.499
245.084
244.625
850.952
371.466
245.018
244.582
1026.67
578.033
245.094
244.756
1105.87
1092.44
451.007
243.952
1164.24
1203.32
1138.07
817.767
1204.8
1255.01
1277.42
1299.04
325.115
879.863
1234.08
1341.98
1.48287
54.9398
261.496
520.777
1.22873
1.35028
1.84568
2.59578
1.27443
1.39783
1.67354
2.27773
1.42075
1.86887
2.24991
2.42161
2.04508
2.12412
1.96787
1.70824
1.82618
1.56225
1.53177
1.65565
1.33846
1.44139
1.5523
1.67376
1.36864
1.46644
1.57139
1.68662
1.38892
1.4822
1.58275
1.69222
1.39724
1.48746
1.58551
1.69121
1.39759
1.48569
1.58153
1.68436
1.39082
1.47742
1.57162
1.67238
1.37794
1.46348
1.55657
1.65603
1.35954
1.44443
1.53695
1.63588
1.33607
1.42064
1.51312
1.61237
1.30776
1.39226
1.48517
1.5856
1.27468
1.35923
1.45292
1.55531
1.23677
1.32131
1.41591
1.52077
1.19386
1.27811
1.37342
1.4808
1.14576
1.22916
1.32457
1.4339
1.09225
1.17397
1.26846
1.37851
1.03321
1.11214
1.20428
1.31317
0.968623
1.04344
1.13141
1.23664
0.898687
0.967868
1.04948
1.14801
0.823823
0.88581
0.958598
1.04665
0.744714
0.798094
0.859573
0.93236
0.662365
0.706136
0.754532
0.8096
0.578104
0.611897
0.64616
0.679711
0.493209
0.517597
0.538654
0.55184
0.408392
0.424827
0.435683
0.43502
0.324245
0.334492
0.33876
0.332064
0.242053
0.247602
0.247831
0.239547
0.162698
0.164588
0.162015
0.152979
0.0843932
0.0831987
0.0781561
0.0674841
0.00223475
-0.00200364
-0.00967088
-0.0229331
244.517
244.315
244.114
243.955
243.802
243.64
243.525
243.405
243.266
243.119
242.967
242.847
242.742
242.665
242.611
242.577
242.563
242.565
242.561
244.691
244.648
244.08
244.017
243.832
243.522
243.498
243.398
243.241
243.098
242.921
242.76
242.625
242.54
242.495
242.465
242.463
242.49
242.502
244.357
244.364
243.682
243.933
243.592
243.33
243.462
243.47
243.364
243.039
242.737
242.554
242.443
242.364
242.355
242.302
242.289
242.373
242.452
317.804
344.384
242.792
242.229
324.833
250.867
270.101
243.769
243.091
242.855
242.566
242.574
242.361
242.134
242.05
241.935
241.899
242.222
242.509
887.346
1014.79
949.558
573.312
638.451
987.451
949.319
262.135
243.773
285.831
242.064
241.924
241.964
240.986
241.074
241.373
241.282
242.119
242.849
1262.69
1242.9
1279.7
1294.67
1253.39
1258.36
1297.61
1166.08
881.942
922.206
846.926
834.141
487.377
276.35
312.728
242.019
240.644
241.488
244.151
1337.32
1335.56
1338.29
1344.99
1341.73
1343.87
1355.63
1367.67
1374.42
1357.39
1364
1352.68
1299.95
1336.06
1252.38
597.568
240.616
234.827
252.456
710.905
797.117
848.981
890.215
919.137
943.098
997.837
1090.29
1220.04
1404.68
1402.45
1407.56
1422.95
1455.34
1489.36
1512.46
863.561
350.734
545.206
7.30991
14.5615
21.8791
29.3862
36.7867
44.301
59.5465
96.0734
177.623
357.269
573.549
806.568
1321.07
1525.42
1577.38
1642.59
1677.7
1408.14
1385.96
2.20258
1.98308
2.01689
2.11462
2.20679
2.27383
2.31618
2.37716
2.52445
2.79484
3.28626
13.31
94.8501
415.506
1448.52
1797.05
2021.01
2275.73
2128.11
2.3561
1.99285
1.95557
2.05228
2.1469
2.22319
2.27901
2.32893
2.39082
2.48951
2.63294
2.87043
3.51631
7.02513
323.061
1620.77
2137.89
2445.02
2029.99
1.76477
1.85366
1.95417
2.05566
2.1473
2.22394
2.28901
2.3544
2.43408
2.54434
2.70462
2.92867
3.23647
3.91155
8.39437
1017.46
2100.91
2365.63
1715.75
1.7704
1.86382
1.9598
2.05319
2.13963
2.21766
2.29023
2.36661
2.45715
2.57787
2.74541
2.97032
3.24649
3.5252
4.61551
746.61
2018.28
2255.1
1262.62
1.78162
1.86825
1.95637
2.04385
2.1283
2.20856
2.28679
2.36921
2.46505
2.58491
2.74141
2.94083
3.15741
3.34769
3.74975
645.967
2008.04
2038.73
755.873
1.78734
1.86804
1.95058
2.03372
2.11634
2.20067
2.28343
2.36898
2.46692
2.58919
2.72084
2.88392
3.03344
3.15582
3.11101
510.417
2057.86
1600.5
530.897
1.78767
1.86408
1.9424
2.02211
2.10284
2.18959
2.27685
2.36683
2.46152
2.57865
2.74977
2.83327
2.94163
3.02636
2.86597
385.754
2138.38
1404.69
508.887
1.78281
1.85596
1.93103
2.00776
2.08614
2.16661
2.25677
2.34738
2.44211
2.5583
2.74549
2.8529
2.91037
3.00276
3.09566
283.526
2088.67
1618.5
501.545
1.77303
1.84371
1.91612
1.9899
2.065
2.14191
2.22221
2.30927
2.40556
2.51213
2.70867
2.87367
2.90272
3.02071
3.25478
172.088
1801.27
1886.45
650.183
1.75898
1.82775
1.89774
1.96846
2.03937
2.11087
2.18628
2.26529
2.35255
2.45408
2.59313
2.81818
2.91328
3.04577
3.32077
104.307
1555.92
1949.68
812.709
1.74127
1.80864
1.87669
1.94445
2.01061
2.07493
2.1413
2.21084
2.28871
2.38183
2.48883
2.73644
2.88353
3.00381
3.23452
141.965
1522.38
1894.9
621.292
1.72055
1.78728
1.85421
1.91975
1.98171
2.03851
2.0937
2.15378
2.22304
2.30419
2.43127
2.64116
2.7776
2.85185
2.89343
218.172
1364.05
1313.41
638.226
1.6976
1.76476
1.83186
1.89685
1.95683
2.00909
2.05769
2.10906
2.17595
2.30929
2.44547
2.52742
2.62319
2.65946
2.63479
121.458
1074.06
1340.82
650.545
1.67261
1.74156
1.81076
1.87793
1.93957
1.99758
2.04184
2.0888
2.26877
2.33089
2.37477
2.44071
2.49539
2.59845
3.46652
10.0383
475.435
1352.16
870.898
1.64533
1.71754
1.79111
1.86391
1.93307
2.0026
2.07071
2.16262
2.30961
2.34685
2.38549
2.44007
2.39441
2.60715
3.11688
2.81372
3.16422
1084.58
1553.68
1.61479
1.69157
1.77172
1.85388
1.93679
2.0222
2.13937
2.30231
2.38662
2.4425
2.478
2.35773
2.33537
2.56746
2.91284
2.81843
3.23738
966.304
1752.98
1.57925
1.66127
1.74937
1.84364
1.94549
2.05414
2.19158
2.34799
2.38122
2.41458
2.4136
2.32183
2.19087
3.47459
2.95083
3.0601
105.156
1553.05
1897.86
1.53634
1.62326
1.71895
1.82522
1.94703
2.08563
2.26051
2.34891
2.31365
2.31738
2.42666
2.42109
2.2894
2.24534
251.035
201.745
621.159
1812.83
1986.38
1.48359
1.57399
1.67502
1.78932
1.92184
2.08698
2.2822
2.3453
2.27894
2.14434
2.40798
2.5228
2.33129
359.265
596.462
594.217
293.991
1611.24
1971
1.41884
1.51049
1.61335
1.72885
1.86074
2.01844
2.1806
2.24162
2.09374
1.81246
13.5732
25.3942
33.8215
557.513
620.357
429.07
36.4424
1134.55
1908.22
1.34033
1.43056
1.53139
1.64002
1.75504
1.87836
1.9911
2.0117
1.84745
1.64791
77.3814
266.927
251.44
126.812
112.238
28.7444
12.871
683.527
1852.3
1.24658
1.33241
1.42708
1.51948
1.59868
1.66627
1.72064
1.72494
1.63537
1.56743
132.894
327.161
180.431
13.5595
7.28518
6.36834
7.25855
487.146
1844.09
1.13619
1.21375
1.29918
1.3642
1.38635
1.36212
1.34734
1.35289
1.37331
1.38707
170.594
346.376
131.679
6.84593
5.70924
5.36478
6.00035
416.414
1885.14
1.00804
1.0685
1.15001
1.18102
1.14264
1.02395
0.924697
0.941725
1.08459
1.21391
191.221
361.897
144.14
5.93311
5.26707
5.10259
5.23296
359.37
1937.5
0.861033
0.905685
0.954988
0.969283
0.922473
0.954912
0.865654
0.630349
0.858179
1.05075
197.534
377.484
197.446
6.46494
5.28389
5.16278
6.36797
233.067
816.387
0.700924
0.712234
0.721185
0.716238
0.678498
1.49928
2.08708
0.959887
0.752726
0.944223
166.571
391.491
272.324
11.9308
5.36623
5.38456
6.72051
51.1182
54.472
0.544318
0.52109
0.483841
0.452583
0.439407
1.3437
2.11844
2.18051
0.842358
0.925719
120.721
406.519
407.006
37.7617
5.31805
5.33217
5.70469
6.02369
18.0574
0.411351
0.371201
0.310436
0.254955
0.242302
0.312861
1.62159
2.16857
1.23649
0.653321
0.244152
415.441
503.98
149.859
5.25915
4.82052
4.81001
4.78403
9.20782
0.307023
0.270935
0.217636
0.161827
0.137726
0.160157
0.208557
0.898725
0.98003
0.252086
-0.0376886
308.014
530.347
239.777
5.1067
3.9137
3.86647
3.83298
5.54524
0.21972
0.195296
0.16157
0.122201
0.0907655
0.0782978
0.0846672
0.0848664
0.00428789
-0.0918201
-0.43485
244.041
565.371
578.204
54.8776
2.5587
2.44935
2.80871
4.37775
0.136899
0.119252
0.0963495
0.0680114
0.0359412
0.0027592
-0.026881
-0.067635
-0.192183
-0.163479
-1.23199
277.581
592.348
594.453
193.321
1.10967
0.608904
1.66738
3.21546
0.0513565
0.0341233
0.0115177
-0.0175581
-0.0541256
-0.0980354
-0.146282
-0.202965
-0.267719
-0.124673
-0.395811
250.718
619.311
564.184
529.233
9.26033
-1.18444
1.15001
2.27317
-0.0419368
-0.0627096
-0.0911729
-0.129381
-0.178505
-0.236994
-0.301115
-0.374835
-0.45234
-0.548695
-0.862975
-1.2675
-5.42772
324.723
232.852
-4.38573
-1.80378
-0.155416
0.355969
)
;

boundaryField
{
    leftWall
    {
        type            fixedFluxPressure;
        gradient        uniform 0;
        value           nonuniform List<scalar> 
50
(
912.657
911.627
909.485
906.482
902.93
899.179
895.718
893.065
890.573
895.528
915.661
748.88
19.4479
1.32917
1.30852
1.27788
1.25272
1.22861
1.204
1.17863
1.15248
1.12532
1.09728
1.06839
1.03869
1.00816
0.976787
0.944541
0.911386
0.877281
0.842186
0.806068
0.768892
0.730636
0.691279
0.650836
0.609413
0.566974
0.523561
0.479219
0.433989
0.387944
0.341231
0.293929
0.245885
0.1971
0.148291
0.100092
0.0516886
0.000904543
)
;
    }
    rightWall
    {
        type            fixedFluxPressure;
        gradient        uniform 0;
        value           nonuniform List<scalar> 
50
(
242.704
242.7
242.693
242.682
242.667
242.649
242.627
242.603
242.561
242.502
242.452
242.509
242.849
244.151
252.456
545.206
1385.96
2128.11
2029.99
1715.75
1262.62
755.873
530.897
508.887
501.545
650.183
812.709
621.292
638.226
650.545
870.898
1553.68
1752.98
1897.86
1986.38
1971
1908.22
1852.3
1844.09
1885.14
1937.5
816.387
54.472
18.0574
9.20782
5.54524
4.37775
3.21546
2.27317
0.355969
)
;
    }
    lowerWall
    {
        type            fixedFluxPressure;
        gradient        uniform 0;
        value           nonuniform List<scalar> 
62
(
912.657
914.668
922.85
931.213
934.827
933.132
928.706
924.614
922.614
923.355
927.059
933.896
944.152
958.099
975.906
997.625
1022.6
1048.27
1067.99
1075.36
1050.17
1036.96
1083.24
1083.24
1075.79
1076.06
1088.92
1107.41
1111.76
1095.02
1054.53
621.609
265.499
245.084
244.625
244.055
244.067
244.084
244.109
244.145
244.193
244.255
244.326
244.055
244.013
243.95
243.865
243.765
243.654
243.539
243.422
243.307
243.196
243.093
243
242.921
242.855
242.803
242.764
242.737
242.719
242.704
)
;
    }
    atmosphere
    {
        type            totalPressure;
        rho             rho;
        psi             none;
        gamma           1;
        p0              uniform 0;
        value           nonuniform List<scalar> 
46
(
-0.0267419
-0.0282807
-0.0280487
-0.0282825
-0.0283751
-0.0284917
-0.0286093
-0.0287357
-0.0288768
-0.0290349
-0.0292145
-0.0294233
-0.029673
-0.0299765
-0.030349
-0.0308123
-0.0313967
-0.0321393
-0.033082
-0.0342713
-0.0357579
-0.037597
-0.0398658
-0.0433363
-0.0493016
-0.0584933
-0.073357
-0.0945624
-0.118354
-0.151957
-0.1986
-0.259788
-0.331617
-0.405032
-0.485023
-0.545702
-0.601863
-0.956547
-1.18741
-0.302264
0
0
0
0
0
0
)
;
    }
    defaultFaces
    {
        type            empty;
    }
}


// ************************************************************************* //
