/*--------------------------------*- C++ -*----------------------------------*\
| =========                 |                                                 |
| \\      /  F ield         | OpenFOAM: The Open Source CFD Toolbox           |
|  \\    /   O peration     | Version:  2206                                  |
|   \\  /    A nd           | Website:  www.openfoam.com                      |
|    \\/     M anipulation  |                                                 |
\*---------------------------------------------------------------------------*/
FoamFile
{
    version     2.0;
    format      ascii;
    arch        "LSB;label=32;scalar=64";
    class       surfaceScalarField;
    location    "0.4";
    object      phi;
}
// * * * * * * * * * * * * * * * * * * * * * * * * * * * * * * * * * * * * * //

dimensions      [0 3 -1 0 0 0 0];

oriented        oriented;

internalField   nonuniform List<scalar> 
4432
(
-3.26746e-06
3.26746e-06
-2.4049e-06
-8.62564e-07
2.22111e-06
-4.62601e-06
8.58908e-06
-6.36797e-06
1.50796e-05
-6.49053e-06
2.07274e-05
-5.64778e-06
2.52074e-05
-4.48003e-06
2.85767e-05
-3.36924e-06
3.10398e-05
-2.46315e-06
3.28125e-05
-1.77271e-06
3.40543e-05
-1.24178e-06
3.48359e-05
-7.8157e-07
3.50979e-05
-2.61975e-07
3.45923e-05
5.05552e-07
3.28566e-05
1.73569e-06
2.92707e-05
3.58588e-06
2.30029e-05
6.26787e-06
1.35729e-05
9.42995e-06
2.52195e-06
1.1051e-05
-7.4383e-06
9.96025e-06
-1.64043e-05
8.96602e-06
-1.67953e-05
3.90983e-07
-1.67953e-05
-3.33332e-06
6.60078e-06
-2.16555e-06
-2.03033e-06
2.5329e-06
-9.32445e-06
8.90641e-06
-1.27415e-05
1.53472e-05
-1.29313e-05
2.09258e-05
-1.12264e-05
2.53462e-05
-8.90045e-06
2.86851e-05
-6.70812e-06
3.11566e-05
-4.93467e-06
3.29737e-05
-3.58982e-06
3.42865e-05
-2.55463e-06
3.51695e-05
-1.66458e-06
3.5672e-05
-7.64379e-07
3.58505e-05
3.26964e-07
3.57936e-05
1.79267e-06
3.53219e-05
4.0575e-06
3.37706e-05
7.81924e-06
2.93919e-05
1.38087e-05
1.98166e-05
2.06262e-05
5.10629e-06
2.46706e-05
-7.99392e-06
2.20662e-05
-9.03326e-06
1.43033e-06
-2.58286e-05
-3.02143e-06
9.62221e-06
-1.72762e-06
-3.32413e-06
3.04298e-06
-1.40951e-05
9.35973e-06
-1.90582e-05
1.56427e-05
-1.92143e-05
2.10256e-05
-1.66093e-05
2.52718e-05
-1.31466e-05
2.84969e-05
-9.9332e-06
3.09289e-05
-7.36677e-06
3.2774e-05
-5.43492e-06
3.41657e-05
-3.94631e-06
3.51594e-05
-2.65828e-06
3.57333e-05
-1.33825e-06
3.58434e-05
2.16856e-07
3.54221e-05
2.21403e-06
3.45675e-05
4.9121e-06
3.36308e-05
8.75591e-06
3.27279e-05
1.47115e-05
2.9899e-05
2.34552e-05
2.21825e-05
3.2387e-05
1.13756e-05
3.28731e-05
3.42107e-06
9.3849e-06
-2.24075e-05
-2.61165e-06
1.22339e-05
-1.06675e-06
-4.86903e-06
3.741e-06
-1.89028e-05
9.94249e-06
-2.52597e-05
1.59916e-05
-2.52633e-05
2.1101e-05
-2.17187e-05
2.51172e-05
-1.71628e-05
2.82079e-05
-1.30239e-05
3.0613e-05
-9.77191e-06
3.25218e-05
-7.34363e-06
3.40388e-05
-5.46334e-06
3.51912e-05
-3.81067e-06
3.59483e-05
-2.09542e-06
3.62391e-05
-7.39318e-08
3.59836e-05
2.46958e-06
3.51435e-05
5.75218e-06
3.38787e-05
1.00207e-05
3.29594e-05
1.56308e-05
3.29298e-05
2.34848e-05
3.18092e-05
3.35076e-05
2.623e-05
3.84523e-05
1.43109e-05
2.1304e-05
-8.09657e-06
-2.07982e-06
1.43137e-05
-1.56161e-07
-6.79268e-06
4.57303e-06
-2.3632e-05
1.0595e-05
-3.12816e-05
1.63541e-05
-3.10225e-05
2.1138e-05
-2.65026e-05
2.48908e-05
-2.09156e-05
2.78426e-05
-1.59757e-05
3.02416e-05
-1.21709e-05
3.22493e-05
-9.35137e-06
3.39315e-05
-7.14557e-06
3.52812e-05
-5.16033e-06
3.62461e-05
-3.06034e-06
3.67547e-05
-5.82475e-07
3.67443e-05
2.47996e-06
3.61862e-05
6.31023e-06
3.5113e-05
1.1094e-05
3.3842e-05
1.69018e-05
3.34998e-05
2.38271e-05
3.43613e-05
3.26461e-05
3.22851e-05
4.05285e-05
2.04698e-05
3.31193e-05
1.23732e-05
-1.4122e-06
1.57259e-05
7.2582e-07
-8.93069e-06
5.44881e-06
-2.8355e-05
1.12375e-05
-3.70703e-05
1.66821e-05
-3.64671e-05
2.11333e-05
-3.09538e-05
2.46312e-05
-2.44135e-05
2.74704e-05
-1.88149e-05
2.99011e-05
-1.46016e-05
3.20473e-05
-1.14976e-05
3.39286e-05
-9.02678e-06
3.54995e-05
-6.73124e-06
3.66853e-05
-4.24616e-06
3.74087e-05
-1.30584e-06
3.76188e-05
2.26982e-06
3.731e-05
6.61905e-06
3.65313e-05
1.18726e-05
3.53696e-05
1.80635e-05
3.42712e-05
2.49255e-05
3.43278e-05
3.25894e-05
3.32779e-05
4.15785e-05
2.30998e-05
4.32974e-05
3.5473e-05
-6.18817e-07
1.63447e-05
1.78651e-06
-1.1336e-05
6.34889e-06
-3.29174e-05
1.18124e-05
-4.25338e-05
1.69122e-05
-4.15669e-05
2.10469e-05
-3.50885e-05
2.43329e-05
-2.76995e-05
2.71174e-05
-2.15993e-05
2.96386e-05
-1.71228e-05
3.19732e-05
-1.38323e-05
3.40906e-05
-1.11442e-05
3.5908e-05
-8.54861e-06
3.73297e-05
-5.66792e-06
3.827e-05
-2.24614e-06
3.86775e-05
1.86237e-06
3.85582e-05
6.73836e-06
3.79683e-05
1.24625e-05
3.70223e-05
1.90095e-05
3.571e-05
2.62377e-05
3.46077e-05
3.36917e-05
3.30955e-05
4.30907e-05
2.48923e-05
5.15006e-05
6.03653e-05
3.51073e-07
1.59936e-05
3.15001e-06
-1.4135e-05
7.52852e-06
-3.72959e-05
1.25239e-05
-4.75292e-05
1.71525e-05
-4.61955e-05
2.09314e-05
-3.88674e-05
2.40284e-05
-3.07964e-05
2.68005e-05
-2.43715e-05
2.94488e-05
-1.97711e-05
3.19933e-05
-1.63767e-05
3.43566e-05
-1.35075e-05
3.64275e-05
-1.06195e-05
3.80954e-05
-7.33579e-06
3.92757e-05
-3.4264e-06
3.99212e-05
1.21686e-06
4.00047e-05
6.6548e-06
3.95588e-05
1.29085e-05
3.87323e-05
1.9836e-05
3.75225e-05
2.74475e-05
3.5909e-05
3.53053e-05
3.35625e-05
4.54372e-05
2.64101e-05
5.8653e-05
8.67754e-05
5.40215e-08
-5.40215e-08
-1.80551e-06
1.85938e-06
-5.66079e-06
3.8553e-06
-1.03189e-05
4.65806e-06
-1.48447e-05
4.5256e-06
-1.87461e-05
3.90138e-06
-2.1759e-05
3.01269e-06
-2.37627e-05
2.00368e-06
-2.48015e-05
1.03887e-06
-2.50042e-05
2.02518e-07
-2.456e-05
-4.44248e-07
-2.35209e-05
-1.03915e-06
-2.18558e-05
-1.66487e-06
-1.95322e-05
-2.3236e-06
-1.65304e-05
-3.00176e-06
-1.2793e-05
-3.73757e-06
-8.18463e-06
-4.60808e-06
-3.00815e-06
-5.17652e-06
-3.00783e-06
-4.96518e-06
4.9112e-06
-1.01842e-05
7.07808e-06
-1.49798e-05
8.65068e-06
-1.88113e-05
8.48965e-06
-2.16185e-05
7.33242e-06
-2.35909e-05
5.8737e-06
-2.47861e-05
4.20776e-06
-2.52173e-05
2.43482e-06
-2.50542e-05
8.75828e-07
-2.45124e-05
-3.39533e-07
-2.36226e-05
-1.33386e-06
-2.23158e-05
-2.34604e-06
-2.05406e-05
-3.43987e-06
-1.82381e-05
-4.62612e-06
-1.53713e-05
-5.86828e-06
-1.18449e-05
-7.26412e-06
-7.4861e-06
-8.96627e-06
-2.64252e-06
-1.00199e-05
-5.65031e-06
-5.28665e-06
1.01979e-05
-1.01896e-05
1.19809e-05
-1.44179e-05
1.28788e-05
-1.77689e-05
1.18407e-05
-2.04572e-05
1.00204e-05
-2.27097e-05
8.12616e-06
-2.44024e-05
5.90035e-06
-2.53245e-05
3.35682e-06
-2.5504e-05
1.05532e-06
-2.51411e-05
-7.02511e-07
-2.43518e-05
-2.123e-06
-2.31189e-05
-3.57895e-06
-2.13743e-05
-5.18434e-06
-1.9045e-05
-6.95552e-06
-1.60837e-05
-8.82928e-06
-1.23955e-05
-1.09524e-05
-7.82469e-06
-1.35366e-05
-2.77518e-06
-1.50693e-05
-8.42555e-06
-4.10364e-06
1.43015e-05
-8.58417e-06
1.64614e-05
-1.3107e-05
1.74014e-05
-1.70562e-05
1.579e-05
-2.03106e-05
1.32745e-05
-2.30243e-05
1.08397e-05
-2.49984e-05
7.87443e-06
-2.59675e-05
4.32587e-06
-2.60559e-05
1.14371e-06
-2.56289e-05
-1.12958e-06
-2.48854e-05
-2.86638e-06
-2.37346e-05
-4.72987e-06
-2.20662e-05
-6.85262e-06
-1.97629e-05
-9.2589e-06
-1.67501e-05
-1.18417e-05
-1.29179e-05
-1.47846e-05
-8.12965e-06
-1.83248e-05
-2.86837e-06
-2.03304e-05
-1.12939e-05
-3.21025e-06
1.75117e-05
-7.81278e-06
2.1064e-05
-1.30481e-05
2.26365e-05
-1.75892e-05
2.03311e-05
-2.10754e-05
1.67606e-05
-2.3935e-05
1.36992e-05
-2.60036e-05
9.94288e-06
-2.68819e-05
5.20403e-06
-2.67464e-05
1.00826e-06
-2.61614e-05
-1.71466e-06
-2.54373e-05
-3.59033e-06
-2.43586e-05
-5.80857e-06
-2.27736e-05
-8.43744e-06
-2.04964e-05
-1.15362e-05
-1.74234e-05
-1.49144e-05
-1.34249e-05
-1.87832e-05
-8.40028e-06
-2.33494e-05
-2.92431e-06
-2.58062e-05
-1.42182e-05
-2.30079e-06
1.98124e-05
-7.62069e-06
2.6384e-05
-1.37116e-05
2.87273e-05
-1.87523e-05
2.53717e-05
-2.22281e-05
2.02364e-05
-2.51367e-05
1.66076e-05
-2.73205e-05
1.21266e-05
-2.80788e-05
5.96233e-06
-2.75897e-05
5.19211e-07
-2.67344e-05
-2.57e-06
-2.6064e-05
-4.26064e-06
-2.51025e-05
-6.77e-06
-2.36513e-05
-9.88835e-06
-2.14105e-05
-1.37771e-05
-1.82491e-05
-1.80756e-05
-1.4033e-05
-2.29994e-05
-8.71639e-06
-2.86659e-05
-2.98007e-06
-3.15423e-05
-1.71983e-05
-2.12841e-06
2.19407e-05
-7.65531e-06
3.19109e-05
-1.48072e-05
3.58792e-05
-2.03148e-05
3.08794e-05
-2.3524e-05
2.34454e-05
-2.64539e-05
1.95376e-05
-2.88496e-05
1.45222e-05
-2.94412e-05
6.55388e-06
-2.83498e-05
-5.71997e-07
-2.70498e-05
-3.87009e-06
-2.65123e-05
-4.79794e-06
-2.57635e-05
-7.51874e-06
-2.45592e-05
-1.10925e-05
-2.24433e-05
-1.58931e-05
-1.92288e-05
-2.12901e-05
-1.47712e-05
-2.7457e-05
-9.10867e-06
-3.43282e-05
-3.05947e-06
-3.75916e-05
-2.02578e-05
3.38962e-07
2.16017e-05
-6.57462e-06
3.88247e-05
-1.5379e-05
4.46835e-05
-2.16168e-05
3.71173e-05
-2.44841e-05
2.63125e-05
-2.76606e-05
2.2714e-05
-3.04377e-05
1.72994e-05
-3.08338e-05
6.95004e-06
-2.92724e-05
-2.13327e-06
-2.69797e-05
-6.16274e-06
-2.67367e-05
-5.04079e-06
-2.61903e-05
-8.06511e-06
-2.53536e-05
-1.19291e-05
-2.34861e-05
-1.77606e-05
-2.02953e-05
-2.44807e-05
-1.5634e-05
-3.21181e-05
-9.57383e-06
-4.03885e-05
-3.183e-06
-4.39825e-05
-2.34408e-05
5.5706e-06
1.0423e-05
1.41765e-05
-2.27408e-05
2.35209e-05
-4.66403e-05
3.17381e-05
-5.57464e-05
3.88173e-05
-5.32747e-05
4.51033e-05
-4.51534e-05
5.10626e-05
-3.67557e-05
5.70617e-05
-3.03707e-05
6.31592e-05
-2.58686e-05
6.91546e-05
-2.23721e-05
7.4748e-05
-1.91009e-05
7.96692e-05
-1.55407e-05
8.37223e-05
-1.13889e-05
8.67577e-05
-6.46179e-06
8.87746e-05
-7.99995e-07
8.96883e-05
5.74104e-06
8.94491e-05
1.31477e-05
8.82436e-05
2.10415e-05
8.64181e-05
2.92731e-05
8.39891e-05
3.77343e-05
8.18106e-05
4.76156e-05
8.34296e-05
5.7034e-05
7.7371e-05
9.28339e-05
1.40207e-05
-3.59769e-06
3.078e-05
-3.95001e-05
4.04813e-05
-5.63416e-05
4.29528e-05
-5.82179e-05
4.41394e-05
-5.44612e-05
4.74066e-05
-4.84207e-05
5.28304e-05
-4.21795e-05
5.94908e-05
-3.70311e-05
6.65851e-05
-3.29629e-05
7.35026e-05
-2.92896e-05
7.97461e-05
-2.53444e-05
8.49947e-05
-2.07893e-05
8.91657e-05
-1.556e-05
9.24219e-05
-9.71802e-06
9.47239e-05
-3.102e-06
9.59747e-05
4.49026e-06
9.61926e-05
1.29298e-05
9.56474e-05
2.15867e-05
9.50622e-05
2.98582e-05
9.46216e-05
3.81748e-05
9.52178e-05
4.70195e-05
9.89356e-05
5.33162e-05
6.74272e-05
0.000108879
2.5224e-05
-2.88217e-05
5.24002e-05
-6.66764e-05
5.97488e-05
-6.36902e-05
5.25652e-05
-5.10342e-05
4.60694e-05
-4.79655e-05
4.64347e-05
-4.87859e-05
5.17199e-05
-4.74648e-05
5.93577e-05
-4.46689e-05
6.78182e-05
-4.14234e-05
7.63333e-05
-3.78046e-05
8.44109e-05
-3.3422e-05
9.15826e-05
-2.7961e-05
9.73425e-05
-2.13198e-05
0.000101204
-1.35799e-05
0.000103152
-5.04937e-06
0.000103102
4.54021e-06
0.000101225
1.48071e-05
9.98456e-05
2.29658e-05
0.000100226
2.94783e-05
0.000100961
3.74394e-05
0.000101726
4.62545e-05
0.000102178
5.2864e-05
6.19416e-05
0.000107664
3.53561e-05
-6.41778e-05
6.32506e-05
-9.45708e-05
5.64294e-05
-5.6869e-05
3.8892e-05
-3.34968e-05
2.85969e-05
-3.76704e-05
2.66882e-05
-4.68772e-05
2.84194e-05
-4.9196e-05
3.3141e-05
-4.93905e-05
3.99149e-05
-4.81973e-05
4.85645e-05
-4.64542e-05
5.91654e-05
-4.40229e-05
7.11609e-05
-3.99565e-05
8.39155e-05
-3.40744e-05
9.72817e-05
-2.69461e-05
0.000109899
-1.76668e-05
0.000117214
-2.77464e-06
0.000118417
1.36044e-05
0.000117185
2.41971e-05
0.000115367
3.12966e-05
0.000112087
4.07193e-05
0.000109461
4.88808e-05
0.000107736
5.45885e-05
6.07234e-05
0.000108955
2.63069e-05
-9.04846e-05
1.5306e-05
-8.35699e-05
6.60133e-06
-4.81641e-05
1.06665e-06
-2.79619e-05
-1.25482e-06
-3.53489e-05
-3.91808e-06
-4.4214e-05
-7.41251e-06
-4.57016e-05
-1.01125e-05
-4.66905e-05
-1.10912e-05
-4.72186e-05
-8.71988e-06
-4.88256e-05
-2.95419e-06
-4.97886e-05
3.67583e-06
-4.65865e-05
8.33002e-06
-3.87286e-05
1.42417e-05
-3.28579e-05
2.60335e-05
-2.94585e-05
4.29852e-05
-1.97264e-05
7.52693e-05
-1.86798e-05
0.000103688
-4.22193e-06
0.000114168
2.08165e-05
0.000116705
3.81828e-05
0.000117814
4.77721e-05
0.000118124
5.42786e-05
6.12738e-05
0.000117573
-2.03636e-05
-7.01209e-05
-3.16507e-05
-7.22825e-05
-2.95463e-05
-5.02683e-05
-1.42838e-05
-4.32244e-05
-7.95604e-06
-4.16766e-05
-8.48888e-06
-4.36811e-05
-1.02621e-05
-4.39284e-05
-1.23734e-05
-4.45792e-05
-1.29529e-05
-4.6639e-05
-1.10857e-05
-5.06929e-05
-7.26026e-06
-5.36141e-05
-4.2847e-06
-4.95622e-05
-4.28693e-06
-3.87265e-05
-3.26569e-07
-3.68183e-05
2.08464e-05
-5.06316e-05
5.55712e-05
-5.44514e-05
8.76807e-05
-5.07893e-05
0.000110931
-2.74724e-05
0.000116571
1.51769e-05
0.000102382
5.23712e-05
0.000104775
4.53787e-05
0.000114174
4.48804e-05
5.46488e-05
0.000120799
-2.37878e-05
-4.63329e-05
-2.49333e-05
-7.11368e-05
-1.78648e-05
-5.73367e-05
-1.30665e-05
-4.80226e-05
-1.02854e-05
-4.44577e-05
-1.00704e-05
-4.38962e-05
-1.08161e-05
-4.31827e-05
-1.18251e-05
-4.35702e-05
-1.19793e-05
-4.64849e-05
-1.11234e-05
-5.15489e-05
-9.40911e-06
-5.53285e-05
-8.10379e-06
-5.08676e-05
-7.58805e-06
-3.92423e-05
8.3424e-10
-4.44072e-05
2.02053e-05
-7.08362e-05
4.89783e-05
-8.32245e-05
7.83816e-05
-8.01926e-05
0.000108816
-5.79068e-05
0.000139015
-1.50218e-05
0.000156639
3.47463e-05
0.000140922
6.10965e-05
0.000114962
7.08398e-05
7.29261e-05
9.6685e-05
-8.83298e-06
-3.74998e-05
-1.11852e-05
-6.87846e-05
-1.1996e-05
-5.65259e-05
-1.08526e-05
-4.91661e-05
-9.4976e-06
-4.58127e-05
-9.05689e-06
-4.43369e-05
-9.40603e-06
-4.28336e-05
-1.03817e-05
-4.25945e-05
-1.16097e-05
-4.5257e-05
-1.28723e-05
-5.02863e-05
-1.35553e-05
-5.46456e-05
-1.21327e-05
-5.22903e-05
-6.74248e-06
-4.46327e-05
3.50009e-06
-5.465e-05
1.25214e-05
-7.98576e-05
2.60831e-05
-9.67862e-05
4.67087e-05
-0.000100818
7.63811e-05
-8.75792e-05
0.00011381
-5.2451e-05
0.000151476
-2.91909e-06
0.000162969
4.96035e-05
0.000150985
8.2824e-05
9.09879e-05
0.000132923
-4.16816e-06
-3.33316e-05
-7.79648e-06
-6.51563e-05
-8.90316e-06
-5.54193e-05
-8.79448e-06
-4.92748e-05
-8.04723e-06
-4.656e-05
-7.61413e-06
-4.47701e-05
-7.58598e-06
-4.28618e-05
-8.21347e-06
-4.19671e-05
-9.69241e-06
-4.37781e-05
-1.18267e-05
-4.81522e-05
-1.34289e-05
-5.30436e-05
-1.12875e-05
-5.44317e-05
-3.13474e-06
-5.27856e-05
3.63669e-06
-6.14215e-05
2.06703e-06
-7.8288e-05
2.02025e-06
-9.67395e-05
8.66765e-06
-0.000107466
2.71626e-05
-0.000106074
5.98539e-05
-8.51422e-05
9.58863e-05
-3.89515e-05
0.00012203
2.34599e-05
0.000130575
7.4279e-05
9.9415e-05
0.000122148
-1.98823e-06
-3.13434e-05
-4.98417e-06
-6.21604e-05
-6.28182e-06
-5.41217e-05
-6.53249e-06
-4.90242e-05
-6.20265e-06
-4.68899e-05
-5.71411e-06
-4.52587e-05
-5.16726e-06
-4.34087e-05
-4.95172e-06
-4.21827e-05
-5.60242e-06
-4.31275e-05
-7.18446e-06
-4.65702e-05
-8.79284e-06
-5.14353e-05
-7.73533e-06
-5.54894e-05
-2.652e-06
-5.78691e-05
4.96177e-07
-6.45698e-05
-1.58529e-06
-7.62066e-05
-7.85793e-06
-9.04668e-05
-1.4182e-05
-0.000101142
-1.57203e-05
-0.000104536
-7.06784e-06
-9.37947e-05
1.65056e-05
-6.25249e-05
4.17213e-05
-1.75592e-06
6.28414e-05
5.31588e-05
8.82972e-05
7.39592e-05
-5.48594e-07
-3.07949e-05
-2.97465e-06
-5.97344e-05
-4.33391e-06
-5.27625e-05
-4.70667e-06
-4.86515e-05
-4.52501e-06
-4.70717e-05
-3.97688e-06
-4.58069e-05
-3.01904e-06
-4.43666e-05
-1.93983e-06
-4.32619e-05
-1.38716e-06
-4.36802e-05
-1.7281e-06
-4.62293e-05
-2.72448e-06
-5.0439e-05
-3.04335e-06
-5.51706e-05
-1.50785e-06
-5.94046e-05
-7.29809e-07
-6.53478e-05
-3.83713e-06
-7.30992e-05
-1.1792e-05
-8.25118e-05
-2.23127e-05
-9.06208e-05
-3.43226e-05
-9.25257e-05
-4.47132e-05
-8.34041e-05
-5.01282e-05
-5.71099e-05
-3.62407e-05
-1.56435e-05
-1.1197e-05
2.8115e-05
6.28482e-05
1.42519e-05
4.53351e-08
-3.08402e-05
-1.82154e-06
-5.78676e-05
-2.97994e-06
-5.16041e-05
-3.37094e-06
-4.82606e-05
-3.30432e-06
-4.71384e-05
-2.81407e-06
-4.62972e-05
-1.78997e-06
-4.53907e-05
-3.55031e-07
-4.46968e-05
9.25353e-07
-4.49606e-05
1.50919e-06
-4.68132e-05
1.20831e-06
-5.01381e-05
3.25843e-07
-5.42882e-05
-6.4958e-07
-5.84292e-05
-2.7865e-06
-6.32108e-05
-7.85383e-06
-6.80318e-05
-1.68071e-05
-7.35584e-05
-2.81717e-05
-7.92561e-05
-3.85784e-05
-8.2119e-05
-4.61264e-05
-7.58561e-05
-5.04409e-05
-5.27956e-05
-4.40865e-05
-2.1998e-05
-2.66724e-05
1.07009e-05
3.68031e-05
-6.27267e-07
2.61051e-07
-3.11013e-05
-1.1663e-06
-5.64403e-05
-2.10536e-06
-5.06651e-05
-2.47221e-06
-4.78939e-05
-2.48795e-06
-4.71228e-05
-2.16061e-06
-4.66246e-05
-1.3866e-06
-4.61647e-05
-1.92698e-07
-4.58907e-05
1.0498e-06
-4.6203e-05
1.78854e-06
-4.75519e-05
1.61359e-06
-4.99632e-05
3.70276e-07
-5.30449e-05
-1.84502e-06
-5.62139e-05
-5.56329e-06
-5.94925e-05
-1.11183e-05
-6.24767e-05
-1.97953e-05
-6.48813e-05
-3.28416e-05
-6.62098e-05
-4.8839e-05
-6.61216e-05
-6.35108e-05
-6.11843e-05
-6.79824e-05
-4.8324e-05
-6.03425e-05
-2.96379e-05
-4.17382e-05
-7.90343e-06
1.31137e-05
-1.8049e-05
3.18843e-07
-3.14201e-05
-7.9193e-07
-5.53296e-05
-1.54433e-06
-4.99128e-05
-1.89043e-06
-4.75479e-05
-1.97788e-06
-4.70354e-05
-1.8433e-06
-4.67592e-05
-1.4495e-06
-4.65585e-05
-7.83152e-07
-4.65569e-05
-4.94011e-08
-4.69366e-05
3.17726e-07
-4.79189e-05
-9.43196e-08
-4.95511e-05
-1.52401e-06
-5.16152e-05
-3.97138e-06
-5.37665e-05
-7.63634e-06
-5.58275e-05
-1.25956e-05
-5.75174e-05
-1.89951e-05
-5.84817e-05
-2.70923e-05
-5.81127e-05
-3.74651e-05
-5.57488e-05
-4.84687e-05
-5.01807e-05
-5.59488e-05
-4.08437e-05
-5.73212e-05
-2.82654e-05
-5.1697e-05
-1.35276e-05
1.86278e-06
-4.04461e-05
2.79388e-07
-3.16995e-05
-5.86375e-07
-5.4464e-05
-1.19907e-06
-4.93003e-05
-1.52944e-06
-4.72177e-05
-1.68447e-06
-4.68805e-05
-1.70812e-06
-4.67356e-05
-1.61011e-06
-4.66564e-05
-1.41828e-06
-4.67486e-05
-1.24562e-06
-4.71092e-05
-1.35393e-06
-4.78106e-05
-2.045e-06
-4.88601e-05
-3.5049e-06
-5.01553e-05
-5.79251e-06
-5.14789e-05
-8.99888e-06
-5.26211e-05
-1.31748e-05
-5.33415e-05
-1.83148e-05
-5.33417e-05
-2.42267e-05
-5.22007e-05
-3.06349e-05
-4.93405e-05
-3.67241e-05
-4.40914e-05
-4.13043e-05
-3.62634e-05
-4.30554e-05
-2.65142e-05
-4.08659e-05
-1.5717e-05
-5.02099e-06
-3.39821e-05
2.17373e-07
-3.1917e-05
-4.77661e-07
-5.37691e-05
-9.97074e-07
-4.87811e-05
-1.31494e-06
-4.69e-05
-1.51882e-06
-4.66767e-05
-1.64957e-06
-4.66048e-05
-1.7393e-06
-4.65666e-05
-1.83371e-06
-4.66542e-05
-2.02344e-06
-4.69195e-05
-2.45123e-06
-4.73828e-05
-3.28314e-06
-4.80282e-05
-4.66691e-06
-4.87715e-05
-6.66882e-06
-4.94769e-05
-9.33097e-06
-4.99589e-05
-1.26551e-05
-5.00174e-05
-1.66007e-05
-4.93961e-05
-2.10172e-05
-4.77842e-05
-2.55152e-05
-4.48425e-05
-2.93422e-05
-4.02642e-05
-3.15765e-05
-3.4029e-05
-3.15554e-05
-2.65352e-05
-2.88045e-05
-1.84679e-05
-1.05999e-05
-2.32256e-05
1.58128e-07
-3.20753e-05
-4.21328e-07
-5.31899e-05
-8.77868e-07
-4.83248e-05
-1.18587e-06
-4.65922e-05
-1.42475e-06
-4.64379e-05
-1.62678e-06
-4.64028e-05
-1.822e-06
-4.63714e-05
-2.06112e-06
-4.64151e-05
-2.41338e-06
-4.65673e-05
-2.96668e-06
-4.68296e-05
-3.81975e-06
-4.71751e-05
-5.06509e-06
-4.75262e-05
-6.74217e-06
-4.77999e-05
-8.87558e-06
-4.78255e-05
-1.1434e-05
-4.74589e-05
-1.43359e-05
-4.64941e-05
-1.73925e-05
-4.47275e-05
-2.02944e-05
-4.19405e-05
-2.25485e-05
-3.801e-05
-2.36097e-05
-3.29677e-05
-2.30122e-05
-2.71325e-05
-2.0436e-05
-2.1044e-05
-1.52269e-05
-1.58089e-05
1.13708e-07
-3.21891e-05
-3.93687e-07
-5.26827e-05
-8.09405e-07
-4.79092e-05
-1.1059e-06
-4.62958e-05
-1.36558e-06
-4.61783e-05
-1.61446e-06
-4.61539e-05
-1.87332e-06
-4.61125e-05
-2.18151e-06
-4.61069e-05
-2.58688e-06
-4.61619e-05
-3.15971e-06
-4.62568e-05
-3.95541e-06
-4.63795e-05
-5.03003e-06
-4.64516e-05
-6.41527e-06
-4.64146e-05
-8.0998e-06
-4.61409e-05
-1.00495e-05
-4.55092e-05
-1.21588e-05
-4.43848e-05
-1.42654e-05
-4.26209e-05
-1.61044e-05
-4.01015e-05
-1.73355e-05
-3.67788e-05
-1.75887e-05
-3.27143e-05
-1.65785e-05
-2.81427e-05
-1.41338e-05
-2.34886e-05
-1.91234e-05
-1.02372e-05
8.75906e-08
-3.22768e-05
-3.72638e-07
-5.22225e-05
-7.58701e-07
-4.75232e-05
-1.04752e-06
-4.6007e-05
-1.31643e-06
-4.59094e-05
-1.58982e-06
-4.58806e-05
-1.88215e-06
-4.58202e-05
-2.21934e-06
-4.57697e-05
-2.64467e-06
-4.57366e-05
-3.18448e-06
-4.5717e-05
-3.90093e-06
-4.56631e-05
-4.79626e-06
-4.55564e-05
-5.90288e-06
-4.53081e-05
-7.20314e-06
-4.48407e-05
-8.6324e-06
-4.40799e-05
-1.01062e-05
-4.29109e-05
-1.14747e-05
-4.12524e-05
-1.25363e-05
-3.90398e-05
-1.30539e-05
-3.62611e-05
-1.27863e-05
-3.29819e-05
-1.15446e-05
-2.93842e-05
-9.23989e-06
-2.57932e-05
-2.2496e-05
-5.86715e-06
7.77875e-08
-3.23546e-05
-3.57804e-07
-5.17869e-05
-7.22507e-07
-4.71585e-05
-9.96344e-07
-4.57332e-05
-1.26332e-06
-4.56425e-05
-1.54283e-06
-4.56011e-05
-1.84387e-06
-4.55192e-05
-2.18318e-06
-4.54303e-05
-2.58657e-06
-4.53332e-05
-3.08386e-06
-4.52197e-05
-3.68462e-06
-4.50624e-05
-4.41828e-06
-4.48228e-05
-5.27769e-06
-4.44488e-05
-6.22656e-06
-4.38918e-05
-7.23444e-06
-4.3072e-05
-8.20439e-06
-4.1941e-05
-9.0198e-06
-4.0437e-05
-9.52982e-06
-3.85298e-05
-9.56792e-06
-3.6223e-05
-8.97116e-06
-3.35786e-05
-7.61507e-06
-3.07402e-05
-5.43435e-06
-2.79738e-05
-2.5481e-05
-2.44943e-06
8.27357e-08
-3.24374e-05
-3.37795e-07
-5.13663e-05
-6.80264e-07
-4.6816e-05
-9.40813e-07
-4.54727e-05
-1.1983e-06
-4.53851e-05
-1.47039e-06
-4.5329e-05
-1.76331e-06
-4.52262e-05
-2.08853e-06
-4.5105e-05
-2.45288e-06
-4.49687e-05
-2.87742e-06
-4.47952e-05
-3.37391e-06
-4.4566e-05
-3.94703e-06
-4.42499e-05
-4.58606e-06
-4.38098e-05
-5.2665e-06
-4.32113e-05
-5.92633e-06
-4.24121e-05
-6.50629e-06
-4.1361e-05
-6.90952e-06
-4.00338e-05
-7.02859e-06
-3.84108e-05
-6.73993e-06
-3.65116e-05
-5.93238e-06
-3.4386e-05
-4.52077e-06
-3.21517e-05
-2.46392e-06
-3.00306e-05
-2.81803e-05
2.35324e-07
9.91604e-08
-3.25365e-05
-3.12417e-07
-5.09547e-05
-6.3846e-07
-4.649e-05
-8.7874e-07
-4.52325e-05
-1.11891e-06
-4.5145e-05
-1.37258e-06
-4.50753e-05
-1.64142e-06
-4.49572e-05
-1.93059e-06
-4.48157e-05
-2.25056e-06
-4.46487e-05
-2.60533e-06
-4.44405e-05
-2.99843e-06
-4.41731e-05
-3.42662e-06
-4.38218e-05
-3.87403e-06
-4.33624e-05
-4.31571e-06
-4.27696e-05
-4.71242e-06
-4.20154e-05
-5.00272e-06
-4.10707e-05
-5.11315e-06
-3.99234e-05
-4.95765e-06
-3.85663e-05
-4.45082e-06
-3.70184e-05
-3.51402e-06
-3.53227e-05
-2.0879e-06
-3.35777e-05
-1.4313e-07
-3.19754e-05
-3.06436e-05
2.32014e-06
1.22842e-07
-3.26593e-05
-2.8717e-07
-5.05446e-05
-5.8878e-07
-4.61884e-05
-8.07966e-07
-4.50133e-05
-1.02662e-06
-4.49263e-05
-1.25626e-06
-4.48456e-05
-1.49575e-06
-4.47175e-05
-1.74736e-06
-4.45639e-05
-2.01445e-06
-4.43815e-05
-2.29695e-06
-4.41581e-05
-2.59178e-06
-4.38784e-05
-2.8948e-06
-4.35189e-05
-3.18793e-06
-4.30692e-05
-3.44701e-06
-4.25104e-05
-3.6367e-06
-4.18256e-05
-3.71035e-06
-4.09971e-05
-3.6033e-06
-4.00305e-05
-3.26026e-06
-3.89093e-05
-2.61199e-06
-3.76667e-05
-1.60284e-06
-3.63318e-05
-1.89995e-07
-3.49905e-05
1.64693e-06
-3.38123e-05
-3.29078e-05
3.91104e-06
1.5031e-07
-3.28095e-05
-2.51893e-07
-5.01423e-05
-5.33539e-07
-4.59067e-05
-7.281e-07
-4.48189e-05
-9.21535e-07
-4.47329e-05
-1.12274e-06
-4.46443e-05
-1.32818e-06
-4.4512e-05
-1.53799e-06
-4.4354e-05
-1.75208e-06
-4.41674e-05
-1.9687e-06
-4.39415e-05
-2.18317e-06
-4.3664e-05
-2.37401e-06
-4.3328e-05
-2.54171e-06
-4.29014e-05
-2.65847e-06
-4.23936e-05
-2.6939e-06
-4.17902e-05
-2.60854e-06
-4.10824e-05
-2.36072e-06
-4.02783e-05
-1.88437e-06
-3.93856e-05
-1.14966e-06
-3.84013e-05
-1.0848e-07
-3.73729e-05
1.2699e-06
-3.63689e-05
3.0013e-06
-3.55438e-05
-3.5e-05
5.09336e-06
1.77208e-07
-3.29867e-05
-2.14749e-07
-4.97503e-05
-4.65934e-07
-4.56556e-05
-6.36706e-07
-4.46482e-05
-8.0415e-07
-4.45655e-05
-9.75395e-07
-4.4473e-05
-1.14519e-06
-4.43421e-05
-1.31313e-06
-4.41859e-05
-1.47582e-06
-4.40046e-05
-1.62897e-06
-4.37883e-05
-1.7659e-06
-4.3527e-05
-1.8821e-06
-4.32118e-05
-1.94616e-06
-4.28373e-05
-1.95373e-06
-4.2386e-05
-1.87759e-06
-4.18663e-05
-1.67687e-06
-4.12831e-05
-1.32235e-06
-4.06328e-05
-7.79743e-07
-3.99282e-05
-1.22355e-09
-3.91799e-05
1.03857e-06
-3.84127e-05
2.36479e-06
-3.76951e-05
3.99064e-06
-3.71697e-05
-3.69386e-05
5.92924e-06
2.03862e-07
-3.31905e-05
-1.6174e-07
-4.93846e-05
-3.8696e-07
-4.54303e-05
-5.30934e-07
-4.45042e-05
-6.72252e-07
-4.44242e-05
-8.14443e-07
-4.43308e-05
-9.52978e-07
-4.42035e-05
-1.08028e-06
-4.40585e-05
-1.19518e-06
-4.38896e-05
-1.29457e-06
-4.36889e-05
-1.37e-06
-4.34516e-05
-1.41031e-06
-4.31715e-05
-1.40384e-06
-4.28438e-05
-1.33142e-06
-4.24584e-05
-1.16992e-06
-4.20277e-05
-9.00839e-07
-4.15521e-05
-4.88467e-07
-4.10451e-05
9.51129e-08
-4.05118e-05
8.78572e-07
-3.99634e-05
1.88962e-06
-3.94237e-05
3.14685e-06
-3.89523e-05
4.66254e-06
-3.86854e-05
-3.87325e-05
6.45643e-06
2.33486e-07
-3.34239e-05
-9.16038e-08
-4.90593e-05
-2.84809e-07
-4.52371e-05
-4.05434e-07
-4.43836e-05
-5.20067e-07
-4.43096e-05
-6.32636e-07
-4.42182e-05
-7.37165e-07
-4.40988e-05
-8.31703e-07
-4.39638e-05
-9.11195e-07
-4.381e-05
-9.65737e-07
-4.36343e-05
-9.93792e-07
-4.34236e-05
-9.82556e-07
-4.31828e-05
-9.22171e-07
-4.29043e-05
-7.93468e-07
-4.2587e-05
-5.85567e-07
-4.22355e-05
-2.66967e-07
-4.18706e-05
1.73353e-07
-4.14855e-05
7.618e-07
-4.11004e-05
1.52374e-06
-4.07255e-05
2.48091e-06
-4.03809e-05
3.64942e-06
-4.01208e-05
5.04232e-06
-4.00783e-05
-4.03766e-05
6.68639e-06
2.70546e-07
-3.36944e-05
-6.73086e-09
-4.87818e-05
-1.67345e-07
-4.50765e-05
-2.61348e-07
-4.42896e-05
-3.49461e-07
-4.42215e-05
-4.33792e-07
-4.41338e-05
-5.09155e-07
-4.40233e-05
-5.72056e-07
-4.39008e-05
-6.17822e-07
-4.37642e-05
-6.42339e-07
-4.36099e-05
-6.32511e-07
-4.34336e-05
-5.83928e-07
-4.32315e-05
-4.8585e-07
-4.30024e-05
-3.21671e-07
-4.27511e-05
-7.89203e-08
-4.24781e-05
2.49975e-07
-4.21995e-05
6.89028e-07
-4.19247e-05
1.25531e-06
-4.16669e-05
1.96813e-06
-4.14384e-05
2.84481e-06
-4.12576e-05
3.89916e-06
-4.11751e-05
5.14501e-06
-4.13241e-05
-4.18459e-05
6.61428e-06
3.21249e-07
-3.40155e-05
9.27578e-08
-4.85531e-05
-2.9302e-08
-4.49543e-05
-1.00615e-07
-4.42183e-05
-1.64245e-07
-4.41578e-05
-2.20599e-07
-4.40773e-05
-2.67168e-07
-4.39767e-05
-3.00593e-07
-4.38674e-05
-3.17132e-07
-4.37478e-05
-3.1214e-07
-4.3615e-05
-2.74466e-07
-4.34714e-05
-1.99264e-07
-4.33068e-05
-7.61606e-08
-4.31254e-05
1.03074e-07
-4.29302e-05
3.52066e-07
-4.27271e-05
6.79716e-07
-4.25273e-05
1.09858e-06
-4.23438e-05
1.62134e-06
-4.21898e-05
2.26164e-06
-4.20786e-05
3.03228e-06
-4.20281e-05
3.94399e-06
-4.20868e-05
5.00929e-06
-4.23895e-05
-4.30963e-05
6.25962e-06
3.90533e-07
-3.44058e-05
2.08649e-07
-4.8371e-05
1.10216e-07
-4.48557e-05
6.15791e-08
-4.41695e-05
2.55659e-08
-4.41217e-05
-1.76017e-09
-4.40499e-05
-1.79808e-08
-4.39604e-05
-2.0536e-08
-4.38649e-05
-6.15415e-09
-4.37623e-05
3.03573e-08
-4.36517e-05
9.16945e-08
-4.35329e-05
1.88158e-07
-4.34033e-05
3.27017e-07
-4.32642e-05
5.161e-07
-4.31193e-05
7.64262e-07
-4.29753e-05
1.07888e-06
-4.28421e-05
1.46683e-06
-4.27318e-05
1.93489e-06
-4.26578e-05
2.48991e-06
-4.26335e-05
3.13888e-06
-4.26771e-05
3.88747e-06
-4.28355e-05
4.74174e-06
-4.32438e-05
-4.40765e-05
5.72205e-06
4.74122e-07
-3.48798e-05
3.19042e-07
-4.82156e-05
2.38314e-07
-4.47748e-05
2.15065e-07
-4.41462e-05
2.06389e-07
-4.41129e-05
2.09123e-07
-4.40526e-05
2.25074e-07
-4.39763e-05
2.55889e-07
-4.38957e-05
3.03836e-07
-4.38103e-05
3.72355e-07
-4.37203e-05
4.65253e-07
-4.36258e-05
5.8859e-07
-4.35266e-05
7.48407e-07
-4.34239e-05
9.50971e-07
-4.33218e-05
1.20248e-06
-4.32268e-05
1.50782e-06
-4.31474e-05
1.86992e-06
-4.30938e-05
2.28998e-06
-4.30777e-05
2.7679e-06
-4.31114e-05
3.30398e-06
-4.32132e-05
3.89584e-06
-4.34273e-05
4.53576e-06
-4.38836e-05
-4.47581e-05
5.21741e-06
5.66978e-07
-3.54466e-05
4.12497e-07
-4.80609e-05
3.45755e-07
-4.47079e-05
3.46013e-07
-4.41464e-05
3.63379e-07
-4.41302e-05
3.9483e-07
-4.4084e-05
4.42348e-07
-4.40238e-05
5.07113e-07
-4.39605e-05
5.90882e-07
-4.38942e-05
6.96244e-07
-4.38258e-05
8.26315e-07
-4.37559e-05
9.85049e-07
-4.36852e-05
1.17672e-06
-4.36155e-05
1.40574e-06
-4.35508e-05
1.67621e-06
-4.34973e-05
1.99086e-06
-4.3462e-05
2.34994e-06
-4.34528e-05
2.7507e-06
-4.34784e-05
3.18763e-06
-4.35484e-05
3.65447e-06
-4.36801e-05
4.13896e-06
-4.39118e-05
4.61269e-06
-4.43572e-05
-4.51741e-05
5.02871e-06
6.64877e-07
-3.61113e-05
4.79588e-07
-4.78755e-05
4.20755e-07
-4.46491e-05
4.40167e-07
-4.41657e-05
4.77604e-07
-4.41676e-05
5.31451e-07
-4.41378e-05
6.04335e-07
-4.40967e-05
6.97707e-07
-4.40539e-05
8.1347e-07
-4.40101e-05
9.53966e-07
-4.39664e-05
1.12173e-06
-4.39237e-05
1.31961e-06
-4.38831e-05
1.55066e-06
-4.38465e-05
1.81803e-06
-4.38181e-05
2.12457e-06
-4.38037e-05
2.47193e-06
-4.38092e-05
2.85932e-06
-4.38401e-05
3.2826e-06
-4.39017e-05
3.73403e-06
-4.39998e-05
4.20316e-06
-4.41492e-05
4.66929e-06
-4.43778e-05
5.08228e-06
-4.47703e-05
-4.54456e-05
5.35355e-06
7.63036e-07
-3.68743e-05
5.13024e-07
-4.76254e-05
4.52693e-07
-4.45887e-05
4.82252e-07
-4.41952e-05
5.28293e-07
-4.42136e-05
5.92289e-07
-4.42016e-05
6.77711e-07
-4.41821e-05
7.86638e-07
-4.41629e-05
9.21491e-07
-4.4145e-05
1.08482e-06
-4.41298e-05
1.27919e-06
-4.4118e-05
1.50727e-06
-4.4111e-05
1.77184e-06
-4.41109e-05
2.07586e-06
-4.41221e-05
2.42226e-06
-4.41501e-05
2.8132e-06
-4.42001e-05
3.24895e-06
-4.42758e-05
3.72708e-06
-4.43797e-05
4.24181e-06
-4.45144e-05
4.78321e-06
-4.46904e-05
5.32839e-06
-4.49231e-05
5.81603e-06
-4.52582e-05
-4.5765e-05
6.13518e-06
8.5364e-07
-3.77279e-05
5.09343e-07
-4.72811e-05
4.36475e-07
-4.45158e-05
4.63145e-07
-4.42218e-05
5.03213e-07
-4.42534e-05
5.61688e-07
-4.426e-05
6.42619e-07
-4.4263e-05
7.48518e-07
-4.42689e-05
8.82423e-07
-4.4279e-05
1.04738e-06
-4.42947e-05
1.24639e-06
-4.43169e-05
1.48233e-06
-4.43467e-05
1.75827e-06
-4.43867e-05
2.07799e-06
-4.44417e-05
2.44583e-06
-4.45179e-05
2.866e-06
-4.46202e-05
3.34166e-06
-4.47513e-05
3.87478e-06
-4.49127e-05
4.46572e-06
-4.51052e-05
5.1107e-06
-4.53354e-05
5.79417e-06
-4.56066e-05
6.46444e-06
-4.59286e-05
-4.63245e-05
7.02393e-06
9.28157e-07
-3.8656e-05
4.72171e-07
-4.68251e-05
3.78137e-07
-4.44216e-05
3.89375e-07
-4.42329e-05
4.10618e-07
-4.42745e-05
4.49499e-07
-4.42988e-05
5.10218e-07
-4.43237e-05
5.95427e-07
-4.43542e-05
7.08532e-07
-4.43921e-05
8.52774e-07
-4.44388e-05
1.03118e-06
-4.4495e-05
1.24662e-06
-4.45619e-05
1.50268e-06
-4.46427e-05
1.80463e-06
-4.47437e-05
2.15884e-06
-4.4872e-05
2.57196e-06
-4.50332e-05
3.05068e-06
-4.52299e-05
3.60263e-06
-4.54647e-05
4.23669e-06
-4.57393e-05
4.95909e-06
-4.60577e-05
5.76994e-06
-4.64175e-05
6.64769e-06
-4.68064e-05
-4.72193e-05
7.54237e-06
9.74936e-07