/*--------------------------------*- C++ -*----------------------------------*\
| =========                 |                                                 |
| \\      /  F ield         | OpenFOAM: The Open Source CFD Toolbox           |
|  \\    /   O peration     | Version:  2206                                  |
|   \\  /    A nd           | Website:  www.openfoam.com                      |
|    \\/     M anipulation  |                                                 |
\*---------------------------------------------------------------------------*/
FoamFile
{
    version     2.0;
    format      ascii;
    arch        "LSB;label=32;scalar=64";
    class       volVectorField;
    location    "0.4";
    object      U;
}
// * * * * * * * * * * * * * * * * * * * * * * * * * * * * * * * * * * * * * //

dimensions      [0 1 -1 0 0 0 0];

internalField   nonuniform List<vector> 
2268
(
(-0.0335712 0.00888262 0)
(-0.0445706 -0.00208292 0)
(-0.00596952 -0.0123952 0)
(0.0604817 -0.0171398 0)
(0.134635 -0.0174969 0)
(0.205127 -0.0152238 0)
(0.264175 -0.0120511 0)
(0.309357 -0.00902033 0)
(0.342297 -0.00653994 0)
(0.365944 -0.004647 0)
(0.382774 -0.0031947 0)
(0.394177 -0.00194902 0)
(0.400467 -0.000554739 0)
(0.400334 0.00198162 0)
(0.389042 0.00616968 0)
(0.361482 0.0128105 0)
(0.309602 0.022613 0)
(0.223271 0.0335677 0)
(0.0953526 0.0360278 0)
(-0.0282234 0.0203336 0)
(-0.163312 0.0211733 0)
(-0.245718 0.0108671 0)
(-0.0871223 -0.0620075 0)
(-0.0378171 0.0265592 0)
(-0.0422322 -0.00780439 0)
(-0.00296771 -0.0377201 0)
(0.0643268 -0.0517227 0)
(0.138389 -0.0526593 0)
(0.20811 -0.0458292 0)
(0.266204 -0.0363814 0)
(0.31072 -0.0273998 0)
(0.343492 -0.0200792 0)
(0.367457 -0.0145005 0)
(0.384983 -0.01021 0)
(0.397411 -0.00653245 0)
(0.40519 -0.00264178 0)
(0.408596 0.00252765 0)
(0.409516 0.0102422 0)
(0.407688 0.0220789 0)
(0.400183 0.0404097 0)
(0.375826 0.0665018 0)
(0.302902 0.0913284 0)
(0.162946 0.0967752 0)
(-0.0522903 0.0744139 0)
(-0.164468 -0.0125714 0)
(-0.000177589 -0.138617 0)
(-0.0349027 0.0437372 0)
(-0.03817 -0.0144926 0)
(0.00255419 -0.0632955 0)
(0.0701657 -0.0860427 0)
(0.143085 -0.0871114 0)
(0.210651 -0.0755248 0)
(0.26638 -0.0598418 0)
(0.309077 -0.0451259 0)
(0.340929 -0.0332688 0)
(0.364859 -0.0242995 0)
(0.383044 -0.0173988 0)
(0.396595 -0.0114663 0)
(0.405678 -0.00540715 0)
(0.409851 0.00151743 0)
(0.408362 0.0105668 0)
(0.400936 0.0235829 0)
(0.38982 0.043854 0)
(0.380999 0.0769045 0)
(0.371745 0.121881 0)
(0.319841 0.159924 0)
(0.185822 0.152923 0)
(0.036068 0.0289113 0)
(0.0675484 -0.146353 0)
(-0.0321633 0.0590287 0)
(-0.0317432 -0.0221076 0)
(0.0104396 -0.0892184 0)
(0.077845 -0.119987 0)
(0.148802 -0.120573 0)
(0.213288 -0.104002 0)
(0.265863 -0.0822448 0)
(0.306302 -0.0622047 0)
(0.337203 -0.0462984 0)
(0.361401 -0.0343707 0)
(0.380747 -0.0251756 0)
(0.395993 -0.0171859 0)
(0.407071 -0.00899079 0)
(0.413382 0.000719693 0)
(0.414077 0.0129679 0)
(0.40825 0.0291034 0)
(0.395958 0.0508624 0)
(0.380099 0.0817283 0)
(0.375887 0.127809 0)
(0.380196 0.18363 0)
(0.342752 0.202974 0)
(0.224928 0.0888019 0)
(0.140983 -0.0830501 0)
(-0.0290986 0.0717678 0)
(-0.0228708 -0.0314493 0)
(0.0202367 -0.114989 0)
(0.0866328 -0.152932 0)
(0.154957 -0.152379 0)
(0.215719 -0.13067 0)
(0.264632 -0.103201 0)
(0.3026 -0.0784943 0)
(0.332666 -0.0592253 0)
(0.357482 -0.0448862 0)
(0.378443 -0.0337519 0)
(0.395845 -0.0238861 0)
(0.409287 -0.0135745 0)
(0.418031 -0.00142891 0)
(0.42129 0.0137144 0)
(0.418428 0.0329602 0)
(0.409454 0.0574878 0)
(0.394553 0.0880937 0)
(0.38036 0.12735 0)
(0.384712 0.180006 0)
(0.396775 0.218368 0)
(0.319874 0.151666 0)
(0.186648 0.0102931 0)
(-0.0250625 0.0813616 0)
(-0.0115047 -0.0425201 0)
(0.0313486 -0.140269 0)
(0.0954661 -0.184428 0)
(0.160757 -0.182244 0)
(0.217649 -0.155298 0)
(0.262909 -0.122546 0)
(0.298619 -0.0939545 0)
(0.328245 -0.0721342 0)
(0.354147 -0.0560059 0)
(0.377159 -0.0433058 0)
(0.397052 -0.0317354 0)
(0.41307 -0.019391 0)
(0.4243 -0.00481957 0)
(0.429986 0.0131055 0)
(0.42969 0.0352529 0)
(0.42362 0.0623988 0)
(0.412369 0.094775 0)
(0.396959 0.131159 0)
(0.384131 0.174355 0)
(0.396945 0.220759 0)
(0.349338 0.20702 0)
(0.210675 0.131474 0)
(-0.0195569 0.0870309 0)
(0.00197387 -0.0549207 0)
(0.0434788 -0.165325 0)
(0.103934 -0.215172 0)
(0.165454 -0.211113 0)
(0.218441 -0.178741 0)
(0.26043 -0.140978 0)
(0.294499 -0.109142 0)
(0.324388 -0.0854436 0)
(0.352019 -0.0680089 0)
(0.37758 -0.0539696 0)
(0.400315 -0.0406939 0)
(0.419134 -0.0261779 0)
(0.432963 -0.00909093 0)
(0.440974 0.0114139 0)
(0.442817 0.0362178 0)
(0.43881 0.0659067 0)
(0.429674 0.100505 0)
(0.417351 0.13852 0)
(0.396854 0.177979 0)
(0.391412 0.226848 0)
(0.356046 0.255535 0)
(0.232865 0.25443 0)
(-0.0122953 0.088993 0)
(0.0175514 -0.0688582 0)
(0.0595251 -0.190782 0)
(0.115133 -0.245039 0)
(0.170765 -0.23868 0)
(0.218861 -0.200803 0)
(0.257623 -0.158476 0)
(0.290528 -0.124251 0)
(0.321184 -0.0995095 0)
(0.350882 -0.081371 0)
(0.379151 -0.0663669 0)
(0.404785 -0.0515677 0)
(0.426486 -0.0348279 0)
(0.443108 -0.0147152 0)
(0.453862 0.00916629 0)
(0.458213 0.0367419 0)
(0.456269 0.0683426 0)
(0.448383 0.103981 0)
(0.437777 0.143711 0)
(0.419054 0.184502 0)
(0.400054 0.236185 0)
(0.367278 0.299413 0)
(0.232772 0.403575 0)
(0.00275178 -0.00800835 0)
(-0.00470653 0.00215111 0)
(-0.0426478 0.0118825 0)
(-0.0940669 0.01575 0)
(-0.14727 0.0157603 0)
(-0.19544 0.0138288 0)
(-0.23476 0.010919 0)
(-0.263245 0.00770777 0)
(-0.280329 0.00471247 0)
(-0.287099 0.00213975 0)
(-0.284767 -0.000111799 0)
(-0.276091 -0.00220291 0)
(-0.260251 -0.00450895 0)
(-0.237097 -0.00690533 0)
(-0.206643 -0.00934996 0)
(-0.168078 -0.0120273 0)
(-0.119197 -0.0151438 0)
(-0.0618571 -0.0172263 0)
(-0.0150337 -0.0103547 0)
(-0.0359596 0.0092317 0)
(-0.0909793 0.0251533 0)
(-0.149934 0.0377634 0)
(-0.198918 0.0400316 0)
(-0.235317 0.0362832 0)
(-0.261548 0.0300409 0)
(-0.279062 0.0222649 0)
(-0.28788 0.0138112 0)
(-0.288765 0.00610831 0)
(-0.284242 -6.62068e-06 0)
(-0.276382 -0.00503968 0)
(-0.263436 -0.00978541 0)
(-0.245485 -0.0149166 0)
(-0.221898 -0.0204846 0)
(-0.192414 -0.0262955 0)
(-0.156009 -0.0327206 0)
(-0.110039 -0.0404555 0)
(-0.0555954 -0.0455474 0)
(-0.0123167 -0.0264662 0)
(-0.040491 0.0441398 0)
(-0.0940208 0.0563685 0)
(-0.147258 0.0639339 0)
(-0.188636 0.0603351 0)
(-0.221126 0.0513131 0)
(-0.248788 0.041156 0)
(-0.271466 0.0295495 0)
(-0.286443 0.0167968 0)
(-0.292453 0.00533867 0)
(-0.291118 -0.00339069 0)
(-0.284245 -0.0105337 0)
(-0.272431 -0.0177864 0)
(-0.255105 -0.0256376 0)
(-0.231562 -0.0342575 0)
(-0.201401 -0.043379 0)
(-0.163558 -0.0536882 0)
(-0.115427 -0.0662943 0)
(-0.0582515 -0.0739411 0)
(-0.0127148 -0.0414853 0)
(-0.0323166 0.0743963 0)
(-0.0754743 0.0850387 0)
(-0.1291 0.0901291 0)
(-0.176548 0.082115 0)
(-0.216249 0.0692234 0)
(-0.249985 0.0562752 0)
(-0.277105 0.0409148 0)
(-0.293935 0.0230401 0)
(-0.299382 0.00684547 0)
(-0.296986 -0.00518099 0)
(-0.290103 -0.0146641 0)
(-0.27911 -0.0245891 0)
(-0.262752 -0.0356576 0)
(-0.239855 -0.0480263 0)
(-0.209597 -0.061204 0)
(-0.170701 -0.0761693 0)
(-0.12046 -0.0942965 0)
(-0.0603425 -0.104849 0)
(-0.0128187 -0.0584656 0)
(-0.0258518 0.0945646 0)
(-0.062922 0.111264 0)
(-0.123887 0.118953 0)
(-0.180003 0.107879 0)
(-0.223882 0.0900155 0)
(-0.259384 0.0731766 0)
(-0.288181 0.0530014 0)
(-0.305144 0.0285614 0)
(-0.308536 0.00668295 0)
(-0.303865 -0.00822002 0)
(-0.296294 -0.0189859 0)
(-0.28593 -0.0310317 0)
(-0.270523 -0.0451494 0)
(-0.248296 -0.0615269 0)
(-0.217855 -0.0791937 0)
(-0.177725 -0.0993377 0)
(-0.125167 -0.123379 0)
(-0.061907 -0.136765 0)
(-0.0125765 -0.0757314 0)
(-0.014115 0.11231 0)
(-0.0552831 0.142156 0)
(-0.126871 0.153491 0)
(-0.191675 0.136292 0)
(-0.236874 0.109934 0)
(-0.272072 0.0893737 0)
(-0.302637 0.0649562 0)
(-0.319987 0.0331184 0)
(-0.320194 0.00486268 0)
(-0.31169 -0.012188 0)
(-0.303071 -0.0230996 0)
(-0.293888 -0.0373196 0)
(-0.28001 -0.0545299 0)
(-0.258756 -0.0751477 0)
(-0.228094 -0.0978192 0)
(-0.186222 -0.12375 0)
(-0.130663 -0.154088 0)
(-0.0636323 -0.169999 0)
(-0.0121761 -0.093205 0)
(-0.021802 0.126527 0)
(-0.0468899 0.168947 0)
(-0.13431 0.188045 0)
(-0.208683 0.16694 0)
(-0.252522 0.133378 0)
(-0.285502 0.111143 0)
(-0.319205 0.0817387 0)
(-0.337536 0.0398071 0)
(-0.332282 0.00226606 0)
(-0.317201 -0.0193409 0)
(-0.307225 -0.0276034 0)
(-0.30025 -0.0435993 0)
(-0.289184 -0.0630011 0)
(-0.270071 -0.0881027 0)
(-0.23999 -0.116494 0)
(-0.196565 -0.149079 0)
(-0.137247 -0.186061 0)
(-0.0658783 -0.204439 0)
(-0.0118009 -0.11092 0)
(0.0247634 0.104967 0)
(-0.0232021 0.222438 0)
(-0.132494 0.249333 0)
(-0.222628 0.210132 0)
(-0.2647 0.147521 0)
(-0.295617 0.115501 0)
(-0.335217 0.0838825 0)
(-0.356567 0.0318669 0)
(-0.345454 -0.0105978 0)
(-0.321035 -0.0297139 0)
(-0.307781 -0.0302424 0)
(-0.303832 -0.0460004 0)
(-0.296232 -0.067562 0)
(-0.281034 -0.0991188 0)
(-0.252092 -0.134985 0)
(-0.208664 -0.176223 0)
(-0.144994 -0.221188 0)
(-0.0684677 -0.242161 0)
(-0.0119615 -0.130104 0)
(0.00104105 0.0759234 0)
(0.0506466 -0.0967831 0)
(0.106093 -0.227879 0)
(0.151812 -0.281898 0)
(0.189263 -0.271258 0)
(0.224703 -0.227517 0)
(0.257916 -0.181135 0)
(0.289932 -0.145624 0)
(0.322403 -0.12088 0)
(0.355144 -0.102523 0)
(0.38661 -0.0864701 0)
(0.415124 -0.0698056 0)
(0.439446 -0.0506292 0)
(0.458783 -0.027626 0)
(0.472706 0.000978799 0)
(0.480825 0.0360878 0)
(0.4829 0.0758232 0)
(0.478997 0.117417 0)
(0.47077 0.160622 0)
(0.460304 0.204541 0)
(0.44571 0.257405 0)
(0.458941 0.321755 0)
(0.441199 0.492572 0)
(0.0199449 0.0309495 0)
(0.119185 -0.152391 0)
(0.207638 -0.272521 0)
(0.233679 -0.31511 0)
(0.230381 -0.299663 0)
(0.240645 -0.25648 0)
(0.266854 -0.212384 0)
(0.300607 -0.178822 0)
(0.338017 -0.154734 0)
(0.376286 -0.135006 0)
(0.412137 -0.115274 0)
(0.443334 -0.0931173 0)
(0.468683 -0.0677044 0)
(0.488294 -0.0394111 0)
(0.502919 -0.00911199 0)
(0.513263 0.0233305 0)
(0.517741 0.061282 0)
(0.517037 0.103238 0)
(0.512974 0.147966 0)
(0.511434 0.195737 0)
(0.506349 0.250552 0)
(0.519924 0.297072 0)
(0.551409 0.404544 0)
(0.0424692 -0.0709439 0)
(0.215267 -0.265913 0)
(0.33189 -0.332702 0)
(0.316714 -0.323748 0)
(0.254878 -0.301633 0)
(0.237586 -0.28036 0)
(0.259327 -0.257577 0)
(0.296729 -0.235286 0)
(0.34073 -0.215011 0)
(0.386837 -0.194747 0)
(0.431808 -0.171555 0)
(0.473258 -0.143749 0)
(0.50875 -0.110517 0)
(0.535929 -0.0711074 0)
(0.551546 -0.0247746 0)
(0.55492 0.0290061 0)
(0.549538 0.0875006 0)
(0.540765 0.14091 0)
(0.536275 0.182592 0)
(0.540368 0.222254 0)
(0.542715 0.263098 0)
(0.547212 0.29085 0)
(0.559456 0.338927 0)
(0.0840484 -0.214486 0)
(0.270174 -0.450601 0)
(0.374786 -0.39099 0)
(0.26368 -0.249529 0)
(0.162736 -0.231061 0)
(0.140227 -0.262089 0)
(0.143937 -0.272397 0)
(0.162257 -0.265782 0)
(0.194155 -0.251864 0)
(0.234216 -0.23393 0)
(0.286422 -0.211008 0)
(0.347957 -0.180972 0)
(0.415331 -0.143284 0)
(0.485458 -0.0985802 0)
(0.5579 -0.0471689 0)
(0.615065 0.00333622 0)
(0.638938 0.0481238 0)
(0.638556 0.0891202 0)
(0.628369 0.134244 0)
(0.611256 0.192726 0)
(0.592962 0.249118 0)
(0.582298 0.286273 0)
(0.574355 0.323396 0)
(0.0542643 -0.486159 0)
(0.131702 -0.619309 0)
(0.112648 -0.279229 0)
(-0.00130963 -0.103515 0)
(-0.00400928 -0.156869 0)
(-0.00603335 -0.227166 0)
(-0.0332247 -0.240335 0)
(-0.0496522 -0.245492 0)
(-0.0593779 -0.243846 0)
(-0.0593176 -0.241093 0)
(-0.0337581 -0.235296 0)
(0.00209229 -0.217084 0)
(0.0343993 -0.185428 0)
(0.0457185 -0.150011 0)
(0.138729 -0.103392 0)
(0.0795624 -0.016671 0)
(0.333872 0.0753589 0)
(0.529567 0.137202 0)
(0.60549 0.173342 0)
(0.62688 0.220031 0)
(0.633392 0.265304 0)
(0.638402 0.304263 0)
(0.631005 0.335074 0)
(-0.0621787 -0.487443 0)
(-0.17283 -0.26529 0)
(-0.171778 -0.154074 0)
(-0.1136 -0.185273 0)
(-0.0510141 -0.215441 0)
(-0.0407812 -0.231481 0)
(-0.0500271 -0.232651 0)
(-0.0618172 -0.238201 0)
(-0.0719928 -0.246001 0)
(-0.0673665 -0.26502 0)
(-0.0514024 -0.279666 0)
(-0.0280228 -0.264285 0)
(-0.0203646 -0.216546 0)
(-0.0302147 -0.192798 0)
(0.0349699 -0.21337 0)
(0.202454 -0.190912 0)
(0.380139 -0.225886 0)
(0.550826 -0.148426 0)
(0.618684 0.0963198 0)
(0.569273 0.212262 0)
(0.569538 0.254487 0)
(0.60581 0.292882 0)
(0.637362 0.337134 0)
(-0.102395 -0.282648 0)
(-0.142313 -0.417341 0)
(-0.124365 -0.352141 0)
(-0.0731303 -0.256555 0)
(-0.0608697 -0.235052 0)
(-0.0516327 -0.236676 0)
(-0.0560646 -0.236706 0)
(-0.0617768 -0.240718 0)
(-0.0660243 -0.256792 0)
(-0.0626361 -0.283838 0)
(-0.0563553 -0.303828 0)
(-0.0465379 -0.279375 0)
(-0.0437238 -0.212306 0)
(-0.0419039 -0.216049 0)
(0.0477392 -0.341446 0)
(0.179788 -0.401317 0)
(0.330569 -0.368631 0)
(0.500397 -0.220533 0)
(0.684834 0.0392494 0)
(0.819911 0.324174 0)
(0.798803 0.297081 0)
(0.673283 0.254404 0)
(0.54483 0.286149 0)
(-0.0497914 -0.225362 0)
(-0.0473988 -0.387339 0)
(-0.0683914 -0.30593 0)
(-0.061302 -0.266823 0)
(-0.0547083 -0.245078 0)
(-0.0482331 -0.237957 0)
(-0.0489674 -0.231633 0)
(-0.0527349 -0.232845 0)
(-0.0593138 -0.249198 0)
(-0.0647157 -0.277573 0)
(-0.072287 -0.299502 0)
(-0.0746287 -0.278028 0)
(-0.05782 -0.222654 0)
(-0.00960199 -0.277962 0)
(0.0507617 -0.439913 0)
(0.0938611 -0.519419 0)
(0.178378 -0.520428 0)
(0.312966 -0.426465 0)
(0.495577 -0.214901 0)
(0.723852 0.075559 0)
(0.876324 0.293663 0)
(0.892392 0.430099 0)
(0.742013 0.446966 0)
(-0.0147552 -0.186051 0)
(-0.0299832 -0.356193 0)
(-0.049917 -0.300385 0)
(-0.0482362 -0.265912 0)
(-0.0454015 -0.249924 0)
(-0.0414703 -0.240557 0)
(-0.0402179 -0.230897 0)
(-0.0414007 -0.22788 0)
(-0.0470939 -0.24077 0)
(-0.0561834 -0.267203 0)
(-0.0691276 -0.293039 0)
(-0.0752377 -0.290721 0)
(-0.0428209 -0.26819 0)
(0.014194 -0.325857 0)
(0.0206001 -0.432714 0)
(0.0061934 -0.534482 0)
(0.0171126 -0.576389 0)
(0.0700164 -0.541006 0)
(0.200355 -0.393178 0)
(0.412661 -0.1163 0)
(0.62058 0.195191 0)
(0.716637 0.437771 0)
(0.700858 0.552745 0)
(-0.00129616 -0.171653 0)
(-0.0183195 -0.343857 0)
(-0.0337371 -0.296743 0)
(-0.0349901 -0.265519 0)
(-0.0346511 -0.252459 0)
(-0.0321156 -0.242885 0)
(-0.0291029 -0.232274 0)
(-0.0262426 -0.226136 0)
(-0.0268068 -0.233482 0)
(-0.0327299 -0.254823 0)
(-0.0430195 -0.281991 0)
(-0.0505485 -0.298973 0)
(-0.0279088 -0.30324 0)
(0.00154422 -0.3388 0)
(0.00457731 -0.412183 0)
(-0.0175054 -0.503945 0)
(-0.0627084 -0.565294 0)
(-0.0952614 -0.571013 0)
(-0.0804153 -0.493568 0)
(-0.0216013 -0.307883 0)
(0.183256 0.0210013 0)
(0.309707 0.346449 0)
(0.404436 0.519085 0)
(0.00355687 -0.166223 0)
(-0.00870357 -0.328166 0)
(-0.022404 -0.28787 0)
(-0.0248881 -0.263674 0)
(-0.0252544 -0.253741 0)
(-0.0232934 -0.245758 0)
(-0.0191313 -0.23652 0)
(-0.0129531 -0.229607 0)
(-0.00766578 -0.232548 0)
(-0.00695227 -0.248354 0)
(-0.0108326 -0.273161 0)
(-0.0172847 -0.298862 0)
(-0.012776 -0.31855 0)
(-0.00244169 -0.35115 0)
(-0.00294561 -0.402668 0)
(-0.035537 -0.465099 0)
(-0.0924831 -0.518796 0)
(-0.151785 -0.534971 0)
(-0.226851 -0.470634 0)
(-0.286627 -0.305856 0)
(-0.260423 -0.0271739 0)
(-0.120436 0.262951 0)
(0.032164 0.449548 0)
(0.00481892 -0.165965 0)
(-0.00404951 -0.316733 0)
(-0.015073 -0.281285 0)
(-0.0174575 -0.261411 0)
(-0.0184046 -0.254265 0)
(-0.0169506 -0.248641 0)
(-0.013002 -0.242274 0)
(-0.00595716 -0.237102 0)
(0.00233558 -0.238284 0)
(0.00803345 -0.249577 0)
(0.00893844 -0.269712 0)
(0.00458729 -0.294382 0)
(-0.000660146 -0.31839 0)
(-0.00601794 -0.348067 0)
(-0.0219187 -0.379668 0)
(-0.0600826 -0.418082 0)
(-0.120711 -0.457477 0)
(-0.187834 -0.474493 0)
(-0.240622 -0.432312 0)
(-0.268477 -0.305864 0)
(-0.26069 -0.128284 0)
(-0.203507 0.0916884 0)
(-0.06929 0.266941 0)
(0.00470561 -0.167198 0)
(-0.00172393 -0.30798 0)
(-0.0104101 -0.275622 0)
(-0.0125887 -0.259364 0)
(-0.0136735 -0.254376 0)
(-0.0128805 -0.250902 0)
(-0.010123 -0.2474 0)
(-0.0046555 -0.244848 0)
(0.00268293 -0.246135 0)
(0.00889171 -0.25428 0)
(0.010833 -0.269382 0)
(0.00690881 -0.288702 0)
(-0.00217698 -0.308643 0)
(-0.0175587 -0.329863 0)
(-0.0416908 -0.350246 0)
(-0.0776033 -0.370323 0)
(-0.134552 -0.387985 0)
(-0.220855 -0.396278 0)
(-0.316711 -0.365373 0)
(-0.373522 -0.257746 0)
(-0.360143 -0.120849 0)
(-0.275895 0.00317626 0)
(-0.153189 0.115666 0)
(0.00393207 -0.168971 0)
(-0.000708614 -0.301187 0)
(-0.0074725 -0.271139 0)
(-0.00942187 -0.25743 0)
(-0.0106058 -0.254076 0)
(-0.0105062 -0.252106 0)
(-0.00916567 -0.250522 0)
(-0.0062136 -0.249987 0)
(-0.00200344 -0.251869 0)
(0.00161989 -0.257887 0)
(0.00197264 -0.268377 0)
(-0.00281485 -0.281824 0)
(-0.0131534 -0.295727 0)
(-0.0294929 -0.309804 0)
(-0.052676 -0.322146 0)
(-0.0833539 -0.330261 0)
(-0.122415 -0.331127 0)
(-0.173154 -0.324288 0)
(-0.234485 -0.3049 0)
(-0.287433 -0.260832 0)
(-0.311693 -0.186522 0)
(-0.300655 -0.0829943 0)
(-0.250383 0.0296551 0)
(0.00306899 -0.170564 0)
(-0.000353394 -0.295951 0)
(-0.00567302 -0.267519 0)
(-0.00747894 -0.255616 0)
(-0.00874983 -0.253391 0)
(-0.00921075 -0.252324 0)
(-0.00901007 -0.25168 0)
(-0.00816363 -0.252075 0)
(-0.00694578 -0.254145 0)
(-0.006378 -0.258544 0)
(-0.00816373 -0.265424 0)
(-0.0137941 -0.274066 0)
(-0.0238799 -0.283056 0)
(-0.0386536 -0.291322 0)
(-0.058514 -0.297532 0)
(-0.0839241 -0.300183 0)
(-0.114423 -0.296358 0)
(-0.148612 -0.281455 0)
(-0.183285 -0.249377 0)
(-0.212935 -0.198486 0)
(-0.23031 -0.136183 0)
(-0.228772 -0.0729332 0)
(-0.204601 -0.011379 0)
(0.00235542 -0.171846 0)
(-0.000302338 -0.291815 0)
(-0.00460066 -0.264505 0)
(-0.00631614 -0.253873 0)
(-0.00766673 -0.252402 0)
(-0.0085428 -0.25185 0)
(-0.00908689 -0.251566 0)
(-0.00950874 -0.252096 0)
(-0.0101566 -0.253797 0)
(-0.0116011 -0.256841 0)
(-0.0147826 -0.261174 0)
(-0.0205998 -0.266364 0)
(-0.0297204 -0.271536 0)
(-0.0422961 -0.275665 0)
(-0.0584279 -0.277507 0)
(-0.0783112 -0.275549 0)
(-0.101396 -0.26795 0)
(-0.126145 -0.252859 0)
(-0.149323 -0.228018 0)
(-0.16617 -0.192436 0)
(-0.172295 -0.147637 0)
(-0.164703 -0.0972116 0)
(-0.142007 -0.046611 0)
(0.00182294 -0.172799 0)
(-0.000369266 -0.288436 0)
(-0.00397441 -0.2619 0)
(-0.00561997 -0.25219 0)
(-0.00703656 -0.251196 0)
(-0.00820349 -0.250922 0)
(-0.00923149 -0.250735 0)
(-0.0103193 -0.251074 0)
(-0.0118289 -0.252164 0)
(-0.0141717 -0.254039 0)
(-0.0178466 -0.256572 0)
(-0.02337 -0.259321 0)
(-0.0312311 -0.261768 0)
(-0.041593 -0.262974 0)
(-0.054372 -0.262019 0)
(-0.0692917 -0.25771 0)
(-0.0857008 -0.248709 0)
(-0.102217 -0.233488 0)
(-0.116593 -0.210869 0)
(-0.12587 -0.180898 0)
(-0.127199 -0.145519 0)
(-0.118531 -0.108092 0)
(-0.0991482 -0.0718616 0)
(0.00146818 -0.173481 0)
(-0.000448801 -0.285547 0)
(-0.00360929 -0.259567 0)
(-0.00518516 -0.250562 0)
(-0.00664867 -0.249842 0)
(-0.0080027 -0.249688 0)
(-0.00934037 -0.249486 0)
(-0.0107985 -0.249562 0)
(-0.0126549 -0.250074 0)
(-0.0152497 -0.250967 0)
(-0.0188747 -0.25213 0)
(-0.0238776 -0.253148 0)
(-0.030522 -0.253652 0)
(-0.0388453 -0.252866 0)
(-0.0487608 -0.250096 0)
(-0.059903 -0.244429 0)
(-0.0715215 -0.234936 0)
(-0.0824359 -0.220787 0)
(-0.0909755 -0.201564 0)
(-0.0951691 -0.177497 0)
(-0.0932444 -0.149993 0)
(-0.0838341 -0.121556 0)
(-0.0669381 -0.0945325 0)
(0.00126408 -0.173985 0)
(-0.000492196 -0.282968 0)
(-0.00339062 -0.257418 0)
(-0.00487966 -0.248985 0)
(-0.00635561 -0.24841 0)
(-0.0078044 -0.248267 0)
(-0.00931108 -0.247986 0)
(-0.0109742 -0.247813 0)
(-0.0129535 -0.247828 0)
(-0.0155197 -0.247974 0)
(-0.0188556 -0.248077 0)
(-0.0231926 -0.2479 0)
(-0.0286564 -0.247035 0)
(-0.035171 -0.244954 0)
(-0.0426487 -0.241142 0)
(-0.0506574 -0.234947 0)
(-0.0585073 -0.225783 0)
(-0.065251 -0.213185 0)
(-0.0696785 -0.196986 0)
(-0.0704733 -0.17751 0)
(-0.0665367 -0.155833 0)
(-0.0569098 -0.133914 0)
(-0.0417847 -0.113497 0)
(0.00116974 -0.174404 0)
(-0.000482173 -0.280571 0)
(-0.0032296 -0.255402 0)
(-0.00461728 -0.247471 0)
(-0.00607502 -0.246964 0)
(-0.007537 -0.24677 0)
(-0.00909233 -0.246376 0)
(-0.0107973 -0.245982 0)
(-0.0127776 -0.245598 0)
(-0.0151702 -0.245192 0)
(-0.0181125 -0.244566 0)
(-0.0217357 -0.243564 0)
(-0.0260274 -0.241821 0)
(-0.0309589 -0.23901 0)
(-0.0363681 -0.234719 0)
(-0.041824 -0.228528 0)
(-0.046776 -0.22006 0)
(-0.0504873 -0.209066 0)
(-0.0520898 -0.195527 0)
(-0.0506772 -0.179773 0)
(-0.0455154 -0.162655 0)
(-0.0359492 -0.14573 0)
(-0.0221845 -0.130291 0)
(0.00116271 -0.174818 0)
(-0.000416806 -0.278276 0)
(-0.00309022 -0.253502 0)
(-0.00435163 -0.246033 0)
(-0.00575467 -0.245551 0)
(-0.00717177 -0.245282 0)
(-0.0086856 -0.244773 0)
(-0.0103171 -0.244189 0)
(-0.0121651 -0.243537 0)
(-0.0143122 -0.242729 0)
(-0.0168046 -0.241647 0)
(-0.0197044 -0.240102 0)
(-0.0229798 -0.237865 0)
(-0.026534 -0.234718 0)
(-0.0302285 -0.230344 0)
(-0.033709 -0.224479 0)
(-0.0364904 -0.216897 0)
(-0.0380216 -0.207469 0)
(-0.0376661 -0.196256 0)
(-0.0347912 -0.183549 0)
(-0.0288992 -0.170034 0)
(-0.0195072 -0.157007 0)
(-0.00684993 -0.145414 0)
(0.00121907 -0.175297 0)
(-0.000308872 -0.276043 0)
(-0.00294107 -0.251705 0)
(-0.00405343 -0.244687 0)
(-0.00537976 -0.244212 0)
(-0.00670403 -0.243868 0)
(-0.00811194 -0.243262 0)
(-0.00961364 -0.24254 0)
(-0.0112564 -0.241704 0)
(-0.0130808 -0.240652 0)
(-0.0151063 -0.239287 0)
(-0.0173383 -0.237458 0)
(-0.0197294 -0.23501 0)
(-0.0221757 -0.231782 0)
(-0.024507 -0.227594 0)
(-0.026441 -0.222233 0)
(-0.0276024 -0.215606 0)
(-0.0275695 -0.207641 0)
(-0.0258744 -0.198442 0)
(-0.0220529 -0.188249 0)
(-0.0157676 -0.177634 0)
(-0.00665133 -0.167699 0)
(0.00506545 -0.159201 0)
(0.00131277 -0.175894 0)
(-0.000167234 -0.273834 0)
(-0.00277034 -0.250017 0)
(-0.00372157 -0.243454 0)
(-0.00494551 -0.242981 0)
(-0.0061476 -0.24257 0)
(-0.00741307 -0.241898 0)
(-0.00873795 -0.241092 0)
(-0.0101393 -0.240137 0)
(-0.0116293 -0.238959 0)
(-0.0131981 -0.237468 0)
(-0.014836 -0.235537 0)
(-0.016485 -0.233073 0)
(-0.0180232 -0.229965 0)
(-0.0192864 -0.226092 0)
(-0.0200576 -0.221333 0)
(-0.0200382 -0.215674 0)
(-0.0189053 -0.209049 0)
(-0.0163096 -0.201598 0)
(-0.0119058 -0.193509 0)
(-0.00546096 -0.185271 0)
(0.00332259 -0.177849 0)
(0.0142094 -0.171871 0)
(0.00142267 -0.176636 0)
(-1.44418e-05 -0.271646 0)
(-0.00256765 -0.248448 0)
(-0.00334034 -0.242346 0)
(-0.0044537 -0.241878 0)
(-0.00551407 -0.241417 0)
(-0.00661477 -0.240709 0)
(-0.00774126 -0.239862 0)
(-0.00889203 -0.23886 0)
(-0.0100593 -0.23764 0)
(-0.0112041 -0.236129 0)
(-0.0123201 -0.234249 0)
(-0.0133587 -0.231883 0)
(-0.0141765 -0.22901 0)
(-0.0146116 -0.22555 0)
(-0.0145332 -0.221432 0)
(-0.0136712 -0.216694 0)
(-0.0117846 -0.211313 0)
(-0.00862781 -0.205367 0)
(-0.00390614 -0.199057 0)
(0.00253212 -0.192796 0)
(0.0109387 -0.187449 0)
(0.0210637 -0.183578 0)
(0.00151502 -0.177529 0)
(0.000154095 -0.269498 0)
(-0.00230372 -0.247016 0)
(-0.00290471 -0.24137 0)
(-0.0038971 -0.240915 0)
(-0.00480736 -0.240423 0)
(-0.00573407 -0.239711 0)
(-0.00665489 -0.238861 0)
(-0.00755933 -0.237865 0)
(-0.00842434 -0.236669 0)
(-0.00922164 -0.235214 0)
(-0.00988892 -0.233457 0)
(-0.0104094 -0.231303 0)
(-0.0106787 -0.228726 0)
(-0.0104921 -0.225715 0)
(-0.00979364 -0.222262 0)
(-0.00838817 -0.218375 0)
(-0.00601882 -0.214111 0)
(-0.0025213 -0.209487 0)
(0.00230262 -0.204695 0)
(0.00860368 -0.200102 0)
(0.0165856 -0.196502 0)
(0.0259892 -0.194435 0)
(0.00157866 -0.178565 0)
(0.000345647 -0.267442 0)
(-0.00194849 -0.245732 0)
(-0.00238337 -0.24053 0)
(-0.00326038 -0.240091 0)
(-0.00401836 -0.239588 0)
(-0.00477216 -0.238891 0)
(-0.00549466 -0.23808 0)
(-0.00617392 -0.237136 0)
(-0.00677243 -0.236012 0)
(-0.00726334 -0.234669 0)
(-0.00759325 -0.233069 0)
(-0.00771123 -0.231185 0)
(-0.00753688 -0.228944 0)
(-0.00692639 -0.226402 0)
(-0.00580563 -0.223576 0)
(-0.00403388 -0.220491 0)
(-0.00141035 -0.217193 0)
(0.00221922 -0.21374 0)
(0.00699445 -0.210261 0)
(0.0130367 -0.207097 0)
(0.0205364 -0.204996 0)
(0.0292245 -0.204518 0)
(0.00161802 -0.179743 0)
(0.000605397 -0.265563 0)
(-0.00147444 -0.244606 0)
(-0.00176765 -0.239823 0)
(-0.00251918 -0.239408 0)
(-0.00312555 -0.238909 0)
(-0.00372408 -0.238245 0)
(-0.00426925 -0.237493 0)
(-0.00474024 -0.236626 0)
(-0.00511204 -0.235615 0)
(-0.0053626 -0.234414 0)
(-0.00543355 -0.233019 0)
(-0.0052525 -0.231398 0)
(-0.00477226 -0.229521 0)
(-0.00386977 -0.227434 0)
(-0.00248609 -0.225197 0)
(-0.000525567 -0.222827 0)
(0.00219371 -0.220392 0)
(0.00578717 -0.217946 0)
(0.0103596 -0.215607 0)
(0.0160233 -0.213679 0)
(0.0229534 -0.212883 0)
(0.0308791 -0.213838 0)
(0.00166782 -0.181096 0)
(0.000970635 -0.263933 0)
(-0.000875133 -0.243664 0)
(-0.00105985 -0.239252 0)
(-0.00167775 -0.238869 0)
(-0.00213093 -0.238386 0)
(-0.00257824 -0.237769 0)
(-0.00295817 -0.237079 0)
(-0.00326054 -0.236303 0)
(-0.00344104 -0.235421 0)
(-0.00349794 -0.234388 0)
(-0.00338358 -0.233207 0)
(-0.00299995 -0.231854 0)
(-0.0023185 -0.23034 0)
(-0.00126439 -0.22868 0)
(0.000246024 -0.226975 0)
(0.00228214 -0.225232 0)
(0.00494716 -0.223543 0)
(0.00835579 -0.221965 0)
(0.0125809 -0.2206 0)
(0.017729 -0.219728 0)
(0.0239555 -0.220064 0)
(0.0309946 -0.222315 0)
(0.00178197 -0.182684 0)
(0.0014531 -0.262583 0)
(-0.000201498 -0.242921 0)
(-0.000289849 -0.238817 0)
(-0.000758808 -0.23847 0)
(-0.00105668 -0.238018 0)
(-0.00135448 -0.237452 0)
(-0.00157471 -0.236833 0)
(-0.00171729 -0.23615 0)
(-0.00173984 -0.235386 0)
(-0.00164033 -0.234536 0)
(-0.00137655 -0.233563 0)
(-0.000866701 -0.232474 0)
(-7.45495e-05 -0.231292 0)
(0.00105692 -0.230035 0)
(0.00258769 -0.228778 0)
(0.00457486 -0.227582 0)
(0.00707854 -0.22652 0)
(0.0101845 -0.22566 0)
(0.0139337 -0.225099 0)
(0.0184243 -0.225099 0)
(0.0237852 -0.226384 0)
(0.0297432 -0.229765 0)
(0.00200194 -0.184587 0)
(0.00200476 -0.261499 0)
(0.000470739 -0.242339 0)
(0.000516363 -0.2385 0)
(0.00017944 -0.238207 0)
(4.09138e-05 -0.237797 0)
(-9.79726e-05 -0.237288 0)
(-0.000151011 -0.23674 0)
(-0.000125171 -0.236148 0)
(3.67711e-06 -0.235502 0)
(0.000253807 -0.234806 0)
(0.000661053 -0.234029 0)
(0.0012766 -0.233185 0)
(0.00214161 -0.232293 0)
(0.00330073 -0.231387 0)
(0.0047993 -0.230524 0)
(0.00667735 -0.229775 0)
(0.00896263 -0.229212 0)
(0.0117048 -0.22891 0)
(0.0149055 -0.228962 0)
(0.0186474 -0.229629 0)
(0.0230163 -0.231639 0)
(0.0276917 -0.235907 0)
(0.00232819 -0.186884 0)
(0.00258276 -0.260606 0)
(0.00107406 -0.241846 0)
(0.00128922 -0.238293 0)
(0.00106506 -0.238073 0)
(0.00109387 -0.237716 0)
(0.00112204 -0.237269 0)
(0.00124748 -0.236796 0)
(0.0014563 -0.236294 0)
(0.00176392 -0.23576 0)
(0.00218798 -0.235195 0)
(0.00275652 -0.234593 0)
(0.00350518 -0.23396 0)
(0.00446606 -0.233317 0)
(0.00567351 -0.232701 0)
(0.00716136 -0.232162 0)
(0.00895373 -0.23176 0)
(0.0110528 -0.231567 0)
(0.0134728 -0.231654 0)
(0.0161747 -0.232121 0)
(0.0192164 -0.233217 0)
(0.0226145 -0.235666 0)
(0.0259447 -0.240437 0)
(0.00274749 -0.189663 0)
(0.00314214 -0.259797 0)
(0.00153772 -0.241441 0)
(0.00196011 -0.238219 0)
(0.00182505 -0.238084 0)
(0.00201487 -0.237795 0)
(0.00220482 -0.237424 0)
(0.00250748 -0.237036 0)
(0.00290577 -0.236628 0)
(0.00341036 -0.236204 0)
(0.0040365 -0.235767 0)
(0.00480463 -0.235317 0)
(0.00573824 -0.234864 0)
(0.00685863 -0.234431 0)
(0.00819132 -0.234051 0)
(0.00976036 -0.233767 0)
(0.0115771 -0.233629 0)
(0.013627 -0.233693 0)
(0.0158971 -0.234022 0)
(0.0183196 -0.234716 0)
(0.0209157 -0.236002 0)
(0.0236153 -0.238556 0)
(0.0258441 -0.243309 0)
(0.00324983 -0.193026 0)
(0.00364397 -0.258971 0)
(0.0018011 -0.241159 0)
(0.00246292 -0.238322 0)
(0.00236934 -0.238285 0)
(0.00268985 -0.238079 0)
(0.00300662 -0.237805 0)
(0.00345433 -0.237519 0)
(0.00401639 -0.237221 0)
(0.00470204 -0.236918 0)
(0.00552652 -0.236615 0)
(0.00650509 -0.236317 0)
(0.00765284 -0.236036 0)
(0.00898371 -0.235794 0)
(0.0105188 -0.235622 0)
(0.012277 -0.235558 0)
(0.0142627 -0.235636 0)
(0.0164562 -0.235894 0)
(0.0188338 -0.236378 0)
(0.0213212 -0.237177 0)
(0.0238979 -0.238478 0)
(0.0264265 -0.240837 0)
(0.0281687 -0.245022 0)
(0.00382369 -0.196972 0)
(0.00405315 -0.257923 0)
(0.00181563 -0.240937 0)
(0.00273281 -0.238554 0)
(0.00259942 -0.238615 0)
(0.00299193 -0.238504 0)
(0.00336783 -0.238342 0)
(0.00389038 -0.238175 0)
(0.00454533 -0.238007 0)
(0.00534323 -0.237849 0)
(0.00630227 -0.237704 0)
(0.00743628 -0.237578 0)
(0.00875686 -0.237484 0)
(0.0102763 -0.237442 0)
(0.0120179 -0.237486 0)
(0.0140029 -0.237644 0)
(0.0162371 -0.23794 0)
(0.0187098 -0.238395 0)
(0.0214079 -0.239033 0)
(0.0242763 -0.239925 0)
(0.0272687 -0.241193 0)
(0.0302425 -0.243199 0)
(0.0323463 -0.246463 0)
(0.00443161 -0.201254 0)
(0.00433498 -0.256251 0)
(0.00156761 -0.240489 0)
(0.00273136 -0.238624 0)
(0.00245811 -0.238766 0)
(0.00284692 -0.238754 0)
(0.00319528 -0.238708 0)
(0.00369594 -0.238672 0)
(0.00433855 -0.238652 0)
(0.00513768 -0.238656 0)
(0.00611543 -0.238687 0)
(0.00728509 -0.238751 0)
(0.00865741 -0.23886 0)
(0.010248 -0.239039 0)
(0.0120891 -0.239319 0)
(0.0142112 -0.239727 0)
(0.0166288 -0.240279 0)
(0.0193537 -0.240986 0)
(0.0224025 -0.241855 0)
(0.0257618 -0.242934 0)
(0.0293954 -0.244274 0)
(0.0332307 -0.246018 0)
(0.0364487 -0.248415 0)
(0.00499986 -0.20576 0)
(0.00446739 -0.253794 0)
(0.00111142 -0.239726 0)
(0.00248333 -0.238424 0)
(0.00198779 -0.238623 0)
(0.00230289 -0.238704 0)
(0.00254438 -0.238778 0)
(0.00293279 -0.238877 0)
(0.00346265 -0.239009 0)
(0.00415142 -0.239178 0)
(0.00502082 -0.239388 0)
(0.00608118 -0.239647 0)
(0.00734348 -0.239969 0)
(0.00883063 -0.240384 0)
(0.0105873 -0.240927 0)
(0.0126539 -0.241626 0)
(0.015056 -0.242495 0)
(0.0178348 -0.243543 0)
(0.0210452 -0.244776 0)
(0.0247251 -0.246221 0)
(0.0288867 -0.247876 0)
(0.0335768 -0.249716 0)
(0.0381977 -0.251773 0)
(0.00540159 -0.211173 0)
(0.00442487 -0.251274 0)
(0.000569179 -0.239401 0)
(0.00206757 -0.238684 0)
(0.00132407 -0.238926 0)
(0.00152404 -0.239104 0)
(0.00161602 -0.239301 0)
(0.00184338 -0.239534 0)
(0.00220001 -0.239814 0)
(0.00270086 -0.240147 0)
(0.00336329 -0.24054 0)
(0.00419526 -0.240999 0)
(0.00520973 -0.241544 0)
(0.00643795 -0.242215 0)
(0.00793337 -0.243053 0)
(0.00973978 -0.244091 0)
(0.0118921 -0.245345 0)
(0.0144585 -0.246832 0)
(0.0175241 -0.248572 0)
(0.0211676 -0.250585 0)
(0.0254703 -0.252856 0)
(0.0305972 -0.255291 0)
(0.036288 -0.25782 0)
(0.00542198 -0.217594 0)
(0.00413188 -0.249041 0)
(8.93123e-05 -0.239792 0)
(0.00156817 -0.239652 0)
(0.00063693 -0.239924 0)
(0.000720442 -0.240196 0)
(0.000667624 -0.240503 0)