/*--------------------------------*- C++ -*----------------------------------*\
| =========                 |                                                 |
| \\      /  F ield         | OpenFOAM: The Open Source CFD Toolbox           |
|  \\    /   O peration     | Version:  2206                                  |
|   \\  /    A nd           | Website:  www.openfoam.com                      |
|    \\/     M anipulation  |                                                 |
\*---------------------------------------------------------------------------*/
FoamFile
{
    version     2.0;
    format      ascii;
    arch        "LSB;label=32;scalar=64";
    class       surfaceScalarField;
    location    "0.3";
    object      alphaPhi0.water;
}
// * * * * * * * * * * * * * * * * * * * * * * * * * * * * * * * * * * * * * //

dimensions      [0 3 -1 0 0 0 0];

oriented        oriented;

internalField   nonuniform List<scalar> 
4432
(
-8.83339e-07
8.83339e-07
2.80147e-06
-3.68481e-06
8.88647e-06
-6.08499e-06
1.53564e-05
-6.46992e-06
2.11494e-05
-5.79304e-06
2.60269e-05
-4.87749e-06
3.01452e-05
-4.11834e-06
3.37485e-05
-3.60321e-06
3.70259e-05
-3.27744e-06
4.00664e-05
-3.04053e-06
4.28618e-05
-2.79535e-06
4.53274e-05
-2.46564e-06
4.73179e-05
-1.99051e-06
4.86136e-05
-1.29566e-06
4.87403e-05
-1.26756e-07
4.67693e-05
1.97102e-06
4.14838e-05
5.28555e-06
3.14709e-05
1.00129e-05
1.64263e-05
1.50446e-05
-1.10692e-06
1.75651e-05
-1.08451e-05
1.14675e-05
-1.33321e-05
2.25322e-06
-1.36447e-05
-8.02015e-07
1.68535e-06
2.94978e-06
-7.4366e-06
9.05418e-06
-1.21894e-05
1.55034e-05
-1.29192e-05
2.12675e-05
-1.15571e-05
2.61279e-05
-9.73789e-06
3.02514e-05
-8.24181e-06
3.38841e-05
-7.2359e-06
3.72098e-05
-6.60314e-06
4.031e-05
-6.14079e-06
4.31714e-05
-5.65674e-06
4.57086e-05
-5.00277e-06
4.77836e-05
-4.06554e-06
4.92226e-05
-2.73472e-06
5.00283e-05
-9.32373e-07
5.03332e-05
1.66607e-06
4.99829e-05
5.63589e-06
4.76564e-05
1.23394e-05
4.03324e-05
2.23686e-05
2.52726e-05
3.26248e-05
4.82538e-06
3.24848e-05
-4.41441e-06
1.24074e-05
-2.06603e-05
-6.36894e-07
2.32225e-06
3.19034e-06
-1.12638e-05
9.28804e-06
-1.82871e-05
1.56445e-05
-1.92757e-05
2.12921e-05
-1.72047e-05
2.6063e-05
-1.45088e-05
3.01475e-05
-1.23263e-05
3.37925e-05
-1.08809e-05
3.71688e-05
-9.97946e-06
4.03421e-05
-9.31414e-06
4.32882e-05
-8.60275e-06
4.5918e-05
-7.63257e-06
4.81007e-05
-6.24824e-06
4.96819e-05
-4.31597e-06
5.04495e-05
-1.69999e-06
5.02738e-05
1.84178e-06
4.92702e-05
6.63948e-06
4.81345e-05
1.34751e-05
4.67777e-05
2.37254e-05
4.19922e-05
3.74104e-05
2.93973e-05
4.50797e-05
1.26502e-05
2.91534e-05
-8.01506e-06
-3.90543e-07
2.71279e-06
3.54405e-06
-1.51984e-05
9.61971e-06
-2.43628e-05
1.58373e-05
-2.54933e-05
2.1319e-05
-2.26863e-05
2.59712e-05
-1.91611e-05
3.00147e-05
-1.63697e-05
3.36917e-05
-1.45579e-05
3.71514e-05
-1.34391e-05
4.04363e-05
-1.25991e-05
4.35074e-05
-1.16738e-05
4.62712e-05
-1.03964e-05
4.86006e-05
-8.57767e-06
5.03464e-05
-6.06177e-06
5.13366e-05
-2.69016e-06
5.14136e-05
1.76485e-06
5.04567e-05
7.59635e-06
4.8768e-05
1.51637e-05
4.75912e-05
2.49022e-05
4.69461e-05
3.80555e-05
4.10847e-05
5.09411e-05
2.42125e-05
4.60243e-05
1.59131e-05
-4.80037e-08
2.7608e-06
3.9871e-06
-1.92335e-05
1.00125e-05
-3.03881e-05
1.60443e-05
-3.15251e-05
2.13194e-05
-2.79614e-05
2.5835e-05
-2.36766e-05
2.98436e-05
-2.03783e-05
3.35746e-05
-1.82889e-05
3.71462e-05
-1.70107e-05
4.05724e-05
-1.60253e-05
4.37972e-05
-1.48985e-05
4.67231e-05
-1.33224e-05
4.92287e-05
-1.10832e-05
5.11776e-05
-8.01072e-06
5.24239e-05
-3.93644e-06
5.28403e-05
1.34848e-06
5.23313e-05
8.10533e-06
5.08665e-05
1.66285e-05
4.88584e-05
2.69103e-05
4.76529e-05
3.9261e-05
4.4382e-05
5.4212e-05
2.97925e-05
6.06138e-05
4.54203e-05
2.54819e-07
2.50598e-06
4.49013e-06
-2.34688e-05
1.04402e-05
-3.63382e-05
1.62429e-05
-3.73279e-05
2.12832e-05
-3.30017e-05
2.56586e-05
-2.80521e-05
2.96481e-05
-2.43679e-05
3.34572e-05
-2.2098e-05
3.71649e-05
-2.07184e-05
4.07535e-05
-1.9614e-05
4.41506e-05
-1.82956e-05
4.72568e-05
-1.64286e-05
4.99591e-05
-1.37855e-05
5.21355e-05
-1.01872e-05
5.36595e-05
-5.46038e-06
5.4422e-05
5.85975e-07
5.4339e-05
8.18832e-06
5.3376e-05
1.75915e-05
5.13315e-05
2.89548e-05
4.87681e-05
4.18244e-05
4.50861e-05
5.7894e-05
3.21936e-05
7.35063e-05
7.73317e-05
6.29562e-07
1.87642e-06
5.04682e-06
-2.78861e-05
1.08859e-05
-4.21773e-05
1.64219e-05
-4.28639e-05
2.12139e-05
-3.77936e-05
2.54606e-05
-3.22988e-05
2.94553e-05
-2.83626e-05
3.33675e-05
-2.60102e-05
3.72313e-05
-2.45822e-05
4.09972e-05
-2.33798e-05
4.45795e-05
-2.1878e-05
4.78818e-05
-1.97308e-05
5.08012e-05
-1.67049e-05
5.32278e-05
-1.26138e-05
5.50481e-05
-7.28069e-06
5.61571e-05
-5.23041e-07
5.64774e-05
7.86799e-06
5.5981e-05
1.80879e-05
5.44134e-05
3.05224e-05
5.14317e-05
4.48061e-05
4.67165e-05
6.26091e-05
3.56154e-05
8.46075e-05
0.000112667
1.05031e-06
8.26108e-07
5.6384e-06
-3.24742e-05
1.13312e-05
-4.787e-05
1.65832e-05
-4.8116e-05
2.11373e-05
-4.23477e-05
2.5283e-05
-3.64445e-05
2.93135e-05
-3.2393e-05
3.3353e-05
-3.00497e-05
3.73892e-05
-2.86184e-05
4.13448e-05
-2.73354e-05
4.5128e-05
-2.56611e-05
4.86488e-05
-2.32516e-05
5.18131e-05
-1.98692e-05
5.45158e-05
-1.53165e-05
5.66465e-05
-9.41141e-06
5.81051e-05
-1.98165e-06
5.88111e-05
7.16197e-06
5.87464e-05
1.81526e-05
5.77605e-05
3.15083e-05
5.53096e-05
4.7257e-05
5.02193e-05
6.76995e-05
3.94707e-05
9.5356e-05
0.000151882
3.08471e-21
-2.5926e-20
9.97002e-22
-3.45463e-21
8.87426e-23
-3.7628e-22
6.69149e-24
-2.28951e-23
8.32137e-25
-1.75802e-24
9.30169e-26
-1.57721e-25
8.46758e-27
-1.06626e-26
6.15626e-28
-6.20573e-28
2.15072e-29
-3.84154e-29
7.35247e-31
5.60452e-32
5.05357e-32
1.46045e-32
1.98783e-33
1.36927e-33
7.56958e-35
8.93626e-35
2.46795e-36
4.70811e-36
6.32132e-38
2.00497e-37
1.16152e-39
6.6987e-39
1.50203e-41
1.64671e-40
5.03733e-42
2.56489e-42
1.12777e-43
1.43493e-19
-6.45546e-19
9.28907e-20
-8.93543e-19
9.12535e-21
-9.67155e-20
8.00589e-22
-5.50348e-21
1.22989e-22
-4.05673e-22
1.53378e-23
-3.97686e-23
1.54803e-24
-2.84897e-24
1.19149e-25
-1.79401e-25
4.39893e-27
-9.30783e-27
1.42737e-28
-2.58643e-29
1.28756e-29
7.7777e-30
4.7424e-31
9.5748e-31
1.95143e-32
7.20221e-32
7.15393e-34
4.32931e-33
2.08041e-35
2.10584e-34
4.37485e-37
8.04596e-36
5.67557e-39
2.27169e-37
4.34069e-41
4.19296e-39
3.85951e-41
6.22188e-18
3.38669e-18
4.06305e-18
-1.5168e-17
4.80831e-19
-5.46095e-18
4.7427e-20
-4.83469e-19
8.94998e-21
-4.40336e-20
1.20723e-21
-4.41576e-21
1.3234e-22
-3.06261e-22
1.19535e-23
-2.12502e-23
5.08657e-25
-1.69702e-24
1.00959e-26
-8.19043e-27
1.02005e-27
7.87081e-28
3.52224e-29
1.03529e-28
1.31868e-30
7.53588e-30
4.65576e-32
4.40133e-31
1.30497e-33
2.07848e-32
2.64949e-35
7.70033e-34
4.27208e-37
2.10946e-35
4.1555e-39
3.85961e-37
3.5599e-39
2.2999e-16
-2.99442e-16
3.98374e-17
4.78468e-16
1.04215e-17
-3.4955e-17
1.65867e-18
-4.80958e-18
5.37399e-19
-2.18362e-18
6.94919e-20
-5.3081e-19
7.56233e-21
-2.247e-20
8.03794e-22
-1.55982e-21
4.10618e-23
-1.54703e-22
5.58732e-25
-1.0881e-24
4.48289e-26
5.60211e-26
1.88444e-27
7.30831e-27
7.17383e-29
5.40281e-28
2.49488e-30
3.14325e-29
6.90796e-32
1.47369e-30
1.76276e-33
5.41372e-32
2.98721e-35
1.50783e-33
2.91645e-37
2.77018e-35
2.5588e-37
6.4982e-15
-6.68625e-15
5.76998e-16
5.03364e-15
5.45756e-17
3.24507e-16
2.88321e-17
5.92708e-18
1.9373e-17
-1.16943e-17
3.08184e-18
-6.06328e-18
3.34005e-19
-1.22035e-18
4.00048e-20
-8.24733e-20
2.49744e-21
-9.20633e-21
2.69481e-23
-9.29627e-23
1.91683e-24
3.35031e-24
9.1386e-26
4.27838e-25
3.5428e-27
3.22801e-26
1.24223e-28
1.90204e-27
3.99798e-30
9.0005e-29
1.10509e-31
3.4029e-30
1.93265e-33
9.70464e-32
1.89667e-35
1.81768e-33
1.70983e-35
1.41886e-13
-9.61418e-14
1.26342e-14
1.08094e-13
1.70897e-15
9.04586e-15
7.77727e-16
1.29863e-16
3.78749e-16
1.92369e-16
7.3485e-17
2.71135e-16
1.37377e-17
-6.5661e-19
1.55904e-18
-2.63674e-18
1.19759e-19
-3.70797e-19
1.28079e-21
-5.79913e-21
8.16733e-23
2.02333e-22
4.30988e-24
2.28358e-23
1.69466e-25
1.77038e-24
6.15937e-27
1.0653e-25
2.32914e-28
5.15801e-27
6.67146e-30
2.02754e-28
1.20644e-31
5.94821e-30
1.20397e-33
1.14558e-31
1.10685e-33
2.96685e-12
-2.78141e-12
1.10589e-13
2.56866e-12
2.80648e-14
5.54773e-14
2.16363e-14
2.93239e-16
1.31328e-14
5.82128e-15
2.63379e-15
9.60999e-15
3.58107e-16
1.85162e-15
4.7974e-17
7.17205e-17
4.58116e-18
-1.04677e-17
6.59832e-20
-2.89774e-19
3.4052e-21
1.04842e-20
1.95009e-22
1.11932e-21
7.79964e-24
8.98046e-23
3.29944e-25
5.55388e-24
1.29834e-26
2.814e-25
3.85004e-28
1.14474e-26
7.24158e-30
3.4746e-28
7.42078e-32
6.92309e-30
6.91605e-32
1.03729e-10
-9.60328e-11
1.72446e-12
1.038e-10
5.27661e-13
8.95415e-13
6.33403e-13
-8.49936e-14
3.94762e-13
2.05509e-13
8.67898e-14
2.98063e-13
1.59444e-14
6.49123e-14
2.05318e-15
9.74643e-15
1.59015e-16
6.83375e-16
2.9626e-18
9.72361e-18
1.3476e-19
4.86774e-19
8.24672e-21
4.95862e-20
3.3833e-22
4.14534e-21
1.64208e-23
2.6575e-22
6.75729e-25
1.41579e-23
2.08007e-26
5.99789e-25
4.08622e-28
1.89421e-26
4.33951e-30
3.92776e-28
4.08714e-30
3.6266e-06
-2.80049e-06
1.39217e-05
-4.27693e-05
2.5573e-05
-5.95213e-05
3.58317e-05
-5.83747e-05
4.48321e-05
-5.1348e-05
5.3474e-05
-4.50865e-05
6.22965e-05
-4.12155e-05
7.13762e-05
-3.91295e-05
8.05478e-05
-3.779e-05
8.95878e-05
-3.63754e-05
9.83079e-05
-3.43812e-05
0.000106545
-3.14886e-05
0.000114115
-2.74397e-05
0.000120815
-2.20164e-05
0.000126465
-1.50609e-05
0.000130886
-6.40291e-06
0.000133828
4.22042e-06
0.000135279
1.67018e-05
0.000135135
3.16516e-05
0.000133283
4.9109e-05
0.000129955
7.1028e-05
0.000131285
9.40259e-05
0.000143098
0.000140069
5.67607e-06
-8.47656e-06
1.66182e-05
-5.37114e-05
2.74168e-05
-7.03198e-05
3.64775e-05
-6.74354e-05
4.47786e-05
-5.96491e-05
5.34003e-05
-5.37081e-05
6.26613e-05
-5.04765e-05
7.23694e-05
-4.88376e-05
8.22054e-05
-4.76259e-05
9.19136e-05
-4.60835e-05
0.000101347
-4.38145e-05
0.000110388
-4.05297e-05
0.00011892
-3.59718e-05
0.000126828
-2.99235e-05
0.000134085
-2.23184e-05
0.000140865
-1.3183e-05
0.00014649
-1.40362e-06
0.000151229
1.19624e-05
0.000154572
2.83089e-05
0.000157723
4.59579e-05
0.000163533
6.5218e-05
0.000175725
8.18334e-05
0.000115707
0.000203118
8.01038e-06
-1.64869e-05
1.93103e-05
-6.50113e-05
2.88178e-05
-7.98264e-05
3.66046e-05
-7.52214e-05
4.44042e-05
-6.74481e-05
5.31384e-05
-6.24418e-05
6.27115e-05
-6.0049e-05
7.26674e-05
-5.8793e-05
8.26454e-05
-5.76027e-05
9.24684e-05
-5.59048e-05
0.00010211
-5.34541e-05
0.00011156
-4.99781e-05
0.000120973
-4.53831e-05
0.000130452
-3.93995e-05
0.000139819
-3.16843e-05
0.000148449
-2.18128e-05
0.000157368
-1.03233e-05
0.000165998
3.3326e-06
0.000171405
2.29019e-05
0.000177178
4.01849e-05
0.00018546
5.69363e-05
0.000196056
7.12374e-05
8.99755e-05
0.000221787
1.10442e-05
-2.75311e-05
2.22281e-05
-7.61916e-05
2.95767e-05
-8.71621e-05
3.58021e-05
-8.1435e-05
4.31839e-05
-7.48198e-05
5.19837e-05
-7.12325e-05
6.15804e-05
-6.96342e-05
7.14239e-05
-6.86175e-05
8.13119e-05
-6.74622e-05
9.13469e-05
-6.59012e-05
0.000102047
-6.41102e-05
0.000113073
-6.09588e-05
0.000123665
-5.30761e-05
0.00013225
-4.16785e-05
0.000138858
-2.97695e-05
0.000143821
-1.84696e-05
0.000149691
-9.37376e-06
0.000155924
-1.12315e-06
0.000169362
9.45788e-06
0.000184463
2.35698e-05
0.000197351
4.40477e-05
0.00020657
6.20186e-05
7.3065e-05
0.00022348
1.57524e-05
-4.32797e-05
2.65851e-05
-8.69189e-05
3.00176e-05
-9.04218e-05
3.41862e-05
-8.54416e-05
4.1595e-05
-8.20759e-05
5.08775e-05
-8.02084e-05
6.07417e-05
-7.56042e-05
6.95553e-05
-6.67029e-05
7.61427e-05
-5.5016e-05
7.91375e-05
-4.20616e-05
7.72186e-05
-2.85275e-05
6.65187e-05
-7.51975e-06
5.24627e-05
-1.31381e-06
3.9715e-05
-2.25619e-07
2.8776e-05
-4.04127e-08
2.02453e-05
-7.13901e-09
1.59378e-05
-9.10776e-10
1.55955e-05
-5.74568e-11
2.49085e-05
5.70239e-07
4.70955e-05
6.80266e-07
8.66003e-05
8.1158e-07
0.000138662
3.46523e-06
1.95741e-05
0.000190845
2.27267e-05
-6.1166e-05
2.5776e-05
-4.97771e-05
2.38452e-05
-3.39446e-05
2.51881e-05
-3.19852e-05
2.83198e-05
-2.81128e-05
3.0041e-05
-2.04128e-05
2.7821e-05
-1.27698e-06
2.32364e-05
-9.4293e-08
1.72185e-05
-7.7175e-09
1.04811e-05
-7.2496e-10
9.10656e-06
-7.90687e-11
1.58684e-06
-9.37033e-12
2.73378e-07
-2.9242e-10
4.90189e-08
-1.16013e-09
9.89291e-09
-1.17821e-09
3.49625e-09
-9.79892e-10
2.66473e-09
-5.3653e-10
2.90545e-09
5.91722e-11
5.59691e-07
1.45251e-08
1.19704e-06
4.12835e-08
2.00181e-06
5.44198e-08
5.01267e-06
1.59155e-07
4.26369e-07
2.34261e-05
1.26889e-05
9.17763e-24
2.45039e-06
-6.98851e-23
2.44862e-06
-4.93255e-21
2.38059e-06
-2.30938e-19
1.42483e-06
-5.28322e-18
1.3798e-06
-2.50637e-17
1.02825e-07
-1.94835e-16
8.53199e-09
-2.54823e-15
8.14502e-10
-5.35653e-15
8.95467e-11
-3.11628e-15
1.09835e-11
-6.03103e-13
1.59932e-12
-5.34636e-14
5.48594e-11
-3.2722e-10
3.18338e-10
-1.36572e-09
1.30221e-09
-2.0629e-09
2.33339e-09
-1.90268e-09
2.66126e-09
-8.10854e-10
2.29479e-09
2.66372e-10
1.37454e-08
3.71749e-09
4.59288e-08
9.72643e-09
1.33616e-07
8.30424e-09
4.17454e-07
-7.43307e-09
-3.21857e-08
1.09454e-06
-1.24777e-24
5.50098e-23
1.45858e-24
-7.25914e-23
1.67273e-22
-5.03042e-21
9.44517e-21
-2.34087e-19
1.2785e-19
-5.08933e-18
2.30382e-18
-2.33847e-17
1.38912e-17
-1.44858e-16
1.22752e-16
-2.40407e-15
5.49601e-16
-1.88004e-15
1.07976e-15
-1.97463e-15
4.92785e-14
-6.50231e-13
9.906e-14
-1.38844e-13
7.71997e-10
-1.09918e-09
3.28155e-09
-3.81552e-09
1.82678e-08
-1.72805e-08
3.48008e-08
-3.56449e-08
1.72755e-08
-4.55718e-09
6.23969e-09
3.43742e-09
7.324e-09
3.67397e-09
1.31811e-08
4.17578e-09
5.70885e-08
7.32677e-09
3.84183e-07
2.83563e-09
-3.17946e-08
7.98042e-07
-3.4803e-24
8.19146e-23
-2.04311e-25
-3.2306e-22
1.18813e-21
-2.01914e-20
9.16943e-20
-7.17649e-19
2.29004e-18
-1.55117e-17
2.36715e-17
-1.69484e-16
1.16846e-16
-6.55517e-16
1.42063e-15
-7.89365e-15
1.53353e-15
-4.54948e-15
7.18839e-15
-6.31921e-15
5.57323e-13
-1.20172e-12
1.06455e-12
-6.84668e-13
6.83359e-09
-7.93203e-09
6.57116e-08
-7.01127e-08
1.13106e-07
-8.27775e-08
1.1026e-07
-4.52521e-08
2.94508e-08
-7.29846e-09
1.2741e-08
6.24087e-09
1.10831e-08
5.63841e-09
1.28417e-08
2.99743e-09
4.09306e-07
2.01769e-08
5.99327e-07
-2.82355e-08
-5.59104e-08
5.37036e-07
-1.42691e-23
1.31501e-22
5.95199e-23
-8.65182e-22
1.26351e-20
-9.7469e-20
1.02045e-18
-5.9451e-18
2.45633e-17
-1.13421e-16
1.89933e-16
-6.84596e-16
6.6061e-16
-1.75509e-15
4.3803e-15
-1.20363e-14
7.73075e-15
-1.40598e-14
5.30072e-14
-5.13806e-14
4.77458e-12
-5.91376e-12
7.30515e-12
-3.34542e-12
4.68166e-08
-7.12604e-08
8.06216e-08
-1.05587e-07
9.01048e-08
-8.77112e-08
6.45674e-08
-2.20703e-08
9.53288e-09
3.06824e-11
9.40393e-09
5.19003e-09
9.04734e-09
5.35247e-09
2.17473e-07
2.72023e-08
4.12357e-07
-6.07193e-09
4.16985e-07
-2.06683e-08
-2.74118e-08
2.52966e-07
-5.89488e-24
2.1565e-22
1.48456e-22
-9.01878e-22
2.97764e-20
-1.56511e-19
3.21139e-18
-1.42332e-17
6.70041e-17
-2.47403e-16
3.27483e-16
-1.05456e-15
8.50687e-16
-2.24886e-15
5.62389e-15
-1.15316e-14
3.2755e-14
-7.09815e-14
3.44512e-13
-3.67519e-13
2.13838e-11
-1.71573e-10
2.29532e-11
-5.44567e-12
2.80556e-08
-5.59044e-08
3.16527e-08
-1.04293e-07
3.0761e-08
-8.27093e-08
1.02263e-09
-1.9506e-08
5.5145e-09
-1.47395e-08
9.18387e-09
5.76768e-10
2.1221e-07
8.36417e-09
2.93905e-07
5.75548e-11
2.6304e-07
-6.7103e-09
3.85857e-08
-6.78606e-09
-7.42073e-10
1.00267e-08
-1.44452e-23
3.34345e-22
1.52647e-22
-6.12805e-22
3.43494e-20
-1.70102e-19
4.72942e-18
-2.00527e-17
8.85225e-17
-3.34627e-16
3.34292e-16
-1.22673e-15
7.60442e-16
-2.35069e-15
5.37639e-15
-2.07926e-15
1.18908e-13
-5.12114e-13
6.1001e-14
-2.02105e-12
2.81318e-11
-1.4462e-10
2.7064e-11
-4.94121e-12
6.78713e-10
-2.96341e-09
-3.32175e-09
-9.32555e-08
-5.31772e-10
-9.00351e-08
9.54106e-09
-6.67041e-08
4.3221e-08
-8.78672e-08
9.68004e-08
-1.90451e-08
1.39759e-07
-2.13388e-09
7.0941e-08
-4.29432e-09
7.79297e-09
-5.49338e-10
1.06404e-09
-6.61015e-11
-5.90765e-12
3.2704e-10
-2.16359e-23
4.76313e-22
6.34601e-23
5.41609e-22
3.30384e-20
-1.56973e-19
5.09568e-18
-2.08778e-17
8.98517e-17
-3.44297e-16
2.1793e-16
-1.24336e-15
4.80828e-16
-2.13569e-15
2.28592e-15
-1.89979e-15
3.24543e-13
-1.17927e-12
3.27228e-12
-4.50018e-12
1.81372e-12
-1.40686e-11
-2.28237e-12
-7.62409e-13
-2.96547e-09
-9.84579e-14
-3.89479e-09
-2.58479e-11
-9.94014e-09
-2.01515e-09
1.18526e-10
-3.41723e-08
9.55899e-09
-2.91151e-15
2.21889e-08
-8.55108e-15
4.91982e-09
-1.24151e-14
6.22437e-10
-2.30677e-14
7.2371e-11
-8.59694e-14
6.90338e-12
-5.36324e-13
-4.89477e-13
1.70006e-12
-2.68532e-23
6.16282e-22
-3.33753e-23
1.47658e-21
2.2609e-20
-7.50409e-20
4.67306e-18
-1.80769e-17
8.03665e-17
-2.93884e-16
2.59624e-16
-9.91328e-16
4.21376e-16
-1.9525e-15
5.91689e-16
-1.85663e-15
4.26191e-13
-1.29077e-12
3.65505e-13
-5.97161e-12
1.25794e-14
-4.55353e-12
-3.24356e-15
-5.38579e-13
-1.13797e-13
-6.90816e-14
-2.59685e-11
6.82042e-15
-2.04115e-09
3.03587e-14
-1.27387e-16
3.21064e-16
3.19592e-16
-6.89296e-15
1.16135e-15
-1.26936e-14
2.44433e-15
-1.70844e-14
4.6298e-15
-2.8756e-14
9.78388e-15
-9.43823e-14
5.79118e-14
-5.75231e-13
-7.5872e-13
4.23759e-13
-2.85581e-23
7.16254e-22
-8.22756e-23
2.5009e-21
7.96776e-21
-1.71515e-20
2.86742e-18
-7.8252e-18
4.89357e-17
-1.30713e-16
1.70414e-16
-5.11206e-16
3.56805e-16
-1.82496e-15
6.5231e-16
-1.8987e-15
1.7053e-13
-4.304e-13
7.05597e-13
-5.17793e-12
5.92939e-14
-6.03781e-12
2.5482e-14
-3.23622e-12
2.11666e-15
-2.04158e-13
-2.42406e-16
-6.57932e-15
-1.98334e-15
2.58612e-14
-4.52071e-17
2.8754e-16
2.60691e-15
-1.15643e-14
8.39329e-15
-2.40452e-14
1.72695e-14
-3.19794e-14
4.38896e-14
-3.79497e-14
2.23755e-13
-4.31113e-14
7.76433e-13
-3.00954e-13
-6.34185e-13
1.16861e-12
-2.7132e-23
7.37784e-22
-1.26505e-22
3.34466e-21
1.56954e-21
2.8511e-22
9.44415e-19
-1.87154e-18
1.74583e-17
-3.4917e-17
8.29417e-17
-2.10304e-16
3.10458e-16
-1.76142e-15
1.14485e-15
-2.43204e-15
3.47588e-13
-1.93676e-15
8.56938e-13
-3.17322e-12
8.86105e-13
-5.14395e-12
3.04982e-13
-5.08155e-12
6.11696e-17
-4.48286e-13
9.29974e-16
-1.15312e-14
-4.72938e-15
-4.29598e-16
-7.35319e-17
-2.24111e-15
7.06847e-15
-9.93154e-15
1.71082e-14
-1.25579e-14
2.83807e-14
-1.83459e-14
4.10367e-14
-3.47393e-14
6.77673e-14
-6.54368e-14
4.0252e-13
-7.78283e-14
-1.56166e-13
9.02989e-13
-2.32934e-23
6.60464e-22
-1.54227e-22
3.66417e-21
-1.93314e-23
2.03948e-21
1.89503e-19
-2.60847e-19
4.13751e-18
-6.04887e-18
3.29827e-17
-7.52094e-17
3.24537e-16
-1.55742e-15
4.70478e-16
-3.42668e-15
3.50049e-16
-2.06131e-15
5.61521e-13
-5.09556e-16
9.02815e-13
-3.24372e-12
5.27463e-13
-2.62268e-12
7.08133e-15
-2.41956e-13
2.25306e-16
-5.69531e-15
3.59653e-17
-2.40257e-16
1.08764e-15
-7.0063e-16
3.18476e-15
-1.87792e-15
4.81207e-15
-4.15482e-15
1.09263e-14
-8.78206e-15
2.13993e-14
-2.00732e-14
6.06205e-14
-5.5807e-14
5.94666e-14
-4.97151e-14
-6.6564e-14
2.1561e-13
-1.77865e-23
4.99392e-22
-1.54435e-22
3.23141e-21
-1.26827e-22
2.78126e-21
2.29928e-20
-1.81042e-20
6.48028e-19
-6.32229e-19
1.10907e-17
-2.24553e-17
1.76437e-16
-8.38347e-16
5.28138e-16
-3.0764e-15
3.48172e-16
-2.74489e-15
9.03974e-17
-8.06411e-16
1.40842e-13
-5.35256e-16
8.55796e-14
-8.89224e-17
4.88578e-15
-2.21632e-14
6.26069e-17
-2.37941e-15
3.40923e-17
-7.13373e-17
1.90433e-16
-1.36345e-16
6.27137e-16
-4.945e-16
1.81703e-15
-1.34418e-15
5.03653e-15
-3.46244e-15
1.50158e-14
-9.33214e-15
4.43616e-14
-2.94804e-14
5.10036e-14
-3.76689e-14
-5.20482e-14
5.69687e-14
-1.17172e-23
3.06335e-22
-1.24762e-22
2.20317e-21
-1.58914e-22
2.63995e-21
1.58259e-21
-1.2129e-22
6.11947e-20
-3.25168e-20
2.99676e-18
-5.02829e-18
1.27105e-16
-2.18785e-16
4.42233e-16
-2.00192e-15
3.72662e-16
-2.67612e-15
1.3462e-16
-1.5067e-15
2.68465e-17
-5.08929e-16
1.65995e-17
-1.60122e-16
1.70673e-15
-7.16989e-17
1.00164e-16
-8.32642e-18
1.14151e-17
-3.80306e-18
3.33058e-17
-1.87074e-17
1.69835e-16
-8.96115e-17
5.58804e-16
-3.58381e-16
1.83116e-15
-1.44173e-15
6.23495e-15
-5.1936e-15
2.00668e-14
-2.02399e-14
4.18279e-14
-5.97667e-14
-6.19445e-14
1.36641e-13
-6.36991e-24
1.44081e-22
-7.80731e-23
1.10103e-21
-1.38812e-22
1.74119e-21
1.56797e-22
8.30487e-23
2.85078e-21
-2.21213e-22
5.95321e-19
-8.24173e-19
2.86629e-17
-3.70833e-17
2.40812e-16
-3.37749e-16
3.35272e-16
-1.30006e-15
1.66471e-16
-1.36759e-15
4.21089e-17
-6.72964e-16
2.00294e-17
-2.36993e-16
1.32767e-18
-5.08646e-17
1.03084e-18
-5.79686e-18
5.58721e-19
-6.35784e-19
5.17084e-18
-1.72537e-18
2.95576e-17
-1.25958e-17
1.47414e-16
-9.39185e-17
7.52942e-16
-6.12114e-16
3.36126e-15
-2.97574e-15
9.88703e-15
-1.50444e-14
3.98651e-14
-6.14248e-14
-6.87461e-14
7.71259e-14
-2.68915e-24
4.80206e-23
-3.5835e-23
3.75718e-22
-8.42865e-23
6.96974e-22
-5.30594e-24
2.90096e-23
2.56486e-23
-3.30231e-23
8.77014e-20
-1.15375e-19
4.32403e-18
-5.23028e-18
4.03308e-17
-5.28706e-17
1.35764e-16
-1.77026e-16
1.62362e-16
-4.87842e-16
7.5462e-17
-3.75687e-16
1.90309e-17
-1.6246e-16
2.71544e-18
-3.12893e-17
1.6625e-19
-2.21764e-18
9.20781e-20
-1.00308e-19
4.11164e-19
-1.41132e-19
4.13223e-18
-2.00184e-18
3.84642e-17
-2.73981e-17
3.03049e-16
-2.62943e-16
1.76816e-15
-1.68749e-15
1.02451e-14
-8.17869e-15
3.53417e-14
-5.18444e-14
-7.23942e-14
6.39342e-14
-8.1039e-25
1.01097e-23
-1.12237e-23
7.82657e-23
-3.10253e-23
1.47854e-22
-1.70731e-24
5.36518e-24
4.86164e-24
-4.2196e-24
1.10597e-20
-1.18574e-20
5.61158e-19
-6.8293e-19
5.81767e-18
-9.79834e-18
1.98064e-17
-3.56718e-17
4.17615e-17
-7.67906e-17
3.04925e-17
-6.31819e-17
9.60316e-18
-3.14576e-17
9.09739e-19
-7.45923e-18
3.01546e-20
-5.27694e-19
1.2181e-20
-1.39832e-20
2.5556e-20
-1.14151e-20
6.53198e-19
-4.28614e-19
1.06453e-17
-8.29196e-18
1.18632e-16
-1.08441e-16
8.7094e-16
-9.11605e-16
4.78655e-15
-5.39254e-15
2.62637e-14
-2.57909e-14
-7.78826e-14
5.50268e-14
-1.54738e-25
1.08762e-24
-2.14192e-24
8.54761e-24
-6.03708e-24
1.77076e-23
-2.9003e-25
5.58373e-25
6.61895e-25
-1.16905e-27
9.88931e-22
-1.83674e-23
6.62266e-20
-3.5995e-20
1.00411e-18
-1.15582e-18
3.52898e-18
-5.1561e-18
5.65029e-18
-7.38273e-18
4.50661e-18
-9.25374e-18
1.62143e-18
-4.11518e-18
2.17353e-19
-1.10739e-18
2.87185e-20
-5.903e-20
6.00697e-22
1.41346e-20
1.65756e-21
2.27837e-21
1.33559e-19
-1.0555e-19
2.90912e-18
-2.47322e-18
4.31999e-17
-4.20045e-17
4.11128e-16
-4.64396e-16
2.72909e-15
-3.44664e-15
1.43526e-14
-1.83795e-14
-7.21168e-14
7.41293e-14
-1.51069e-26
5.15443e-35
-2.13648e-25
2.80238e-33
-6.60712e-25
7.26967e-32
-2.76073e-26
1.29394e-30
1.12425e-26
-1.84659e-29
1.34817e-24
-7.76553e-27
3.10311e-21
-1.88167e-22
1.0569e-19
-3.66121e-20
3.86861e-19
-2.32942e-19
5.45682e-19
-4.25468e-19
6.759e-19
-4.1786e-19
1.75658e-19
-2.11439e-19
2.88503e-20
-7.01495e-20
6.90896e-21
5.59393e-21
-2.73832e-21
1.85964e-20
-4.82939e-22
2.55814e-21
3.02352e-20
-2.63962e-20
7.62233e-19
-7.28968e-19
1.44224e-17
-1.50907e-17
1.78828e-16
-2.18439e-16
1.46918e-15
-2.06187e-15
8.59266e-15
-1.27858e-14
-4.47308e-14
4.01851e-14
-6.47856e-37
6.22998e-35
-6.36957e-35
3.57217e-33
-2.46661e-33
1.00307e-31
-5.81955e-32
1.91449e-30
1.83312e-31
2.72908e-29
5.00138e-28
2.76814e-28
1.45917e-23
-5.43331e-26
3.0195e-21
-4.54994e-23
1.67215e-20
-5.48888e-22
2.41117e-20
-1.43302e-21
2.51034e-20
-1.7803e-21
8.58483e-21
-8.60663e-22
5.65283e-21
3.00433e-21
-8.83595e-22
1.12486e-20
-3.18888e-21
1.02679e-20
-4.74795e-22
1.09485e-21
7.00605e-21
-7.15696e-21
1.93199e-19
-2.13222e-19
4.35726e-18
-5.04106e-18
6.9732e-17
-9.32213e-17
7.16394e-16
-1.10787e-15
4.57987e-15
-8.07855e-15
-3.37612e-14
2.06831e-14
-7.06633e-37
5.66218e-35
-7.34341e-35
3.39525e-33
-3.07636e-33
1.01825e-31
-7.78116e-32
2.10074e-30
-1.3783e-30
3.28734e-29
-1.66822e-29
3.90881e-28
3.575e-27
3.51134e-27
3.47131e-24
-7.71653e-26
3.89104e-23
-4.63867e-24
8.30628e-23
-2.08749e-23
9.68648e-23
-1.50745e-23
4.9655e-23
1.24483e-22
-3.85418e-22
1.09956e-21
-1.55768e-21
2.79778e-21
-1.52804e-21
2.42999e-21
-1.74295e-22
1.99962e-22
1.68578e-21
-1.94454e-21
4.71593e-20
-6.0596e-20
1.18768e-18
-1.56527e-18
2.37082e-17
-3.50371e-17
3.0205e-16
-5.35788e-16
2.28381e-15
-4.79874e-15
-2.13565e-14
1.11242e-14
-5.75575e-37
3.67228e-35
-6.26955e-35
2.26954e-33
-2.80282e-33
7.10288e-32
-7.65721e-32
1.53591e-30
-1.48753e-30
2.57659e-29
-2.10765e-29
3.46327e-28
-2.19328e-28
3.65317e-27
3.68044e-27
2.87973e-26
3.13369e-25
1.7912e-25
8.68603e-25
1.17058e-24
3.6151e-25
1.03211e-23
-1.28754e-23
6.50676e-23
-1.22352e-22
2.28068e-22
-3.32732e-22
4.49745e-22
-3.06911e-22
3.1586e-22
-2.66435e-23
1.89295e-23
3.62503e-22
-4.97742e-22
1.07751e-20
-1.6324e-20
2.88849e-19
-4.41757e-19
6.75352e-18
-1.1173e-17
1.08922e-16
-2.28591e-16
9.65668e-16
-2.49873e-15
-1.1008e-14
4.41034e-15
-3.32456e-37
1.52825e-35
-3.73432e-35
9.5674e-34
-1.7403e-33
3.02589e-32
-4.97728e-32
6.53693e-31
-1.03495e-30
1.09831e-29
-1.65425e-29
1.51796e-28
-2.01593e-28
1.73291e-27
-1.79701e-27
1.60147e-26
-1.24315e-26
1.16843e-25
-8.91524e-26
6.61172e-25
-8.52908e-25
2.88818e-24
-5.77676e-24
9.77179e-24
-2.15572e-23
2.50555e-23
-4.48628e-23
4.13446e-23
-3.29575e-23
1.03928e-23
-2.04725e-24
3.73123e-25
6.94955e-23
-1.18995e-22
2.21809e-21
-3.98077e-21
6.02007e-20
-1.09177e-19
1.5206e-18
-2.95734e-18
3.13579e-17
-7.82253e-17
3.14405e-16
-1.01912e-15
-4.97035e-15
1.3206e-15
-1.21973e-37
3.1015e-36
-1.38964e-35
1.92045e-34
-6.5378e-34
5.82017e-33
-1.86516e-32
1.13246e-31
-3.87651e-31
1.5882e-30
-6.35322e-30
1.70928e-29
-8.34877e-29
1.46795e-28
-8.68445e-28
1.03293e-27
-7.00601e-27
6.06661e-27
-4.31894e-26
3.00667e-26
-2.02883e-25
1.25793e-25
-7.29409e-25
4.35765e-25
-1.96388e-24
1.15148e-24
-3.36292e-24
1.66784e-24
-8.66278e-25
4.81413e-26
-3.1432e-26
-5.12657e-26
1.19575e-23
-2.42147e-23
3.82854e-22
-7.95457e-22
9.99354e-21
-2.23905e-20
2.52617e-19
-6.19639e-19
6.02448e-18
-1.88136e-17
6.33244e-17
-3.11812e-16
-1.8259e-15
2.41921e-16
-2.16314e-38
2.27954e-38
-2.43885e-36
1.43399e-36
-1.09799e-34
4.50182e-35
-2.81545e-33
9.26662e-34
-4.87104e-32
1.40592e-32
-6.19459e-31
1.67639e-31
-6.09557e-30
1.63068e-30
-4.79937e-29
1.32462e-29
-3.09353e-28
9.10506e-29
-1.65465e-27
5.31478e-28
-7.35758e-27
2.60465e-27
-2.66858e-26
1.01374e-26
-7.27063e-26
2.54281e-26
-1.06767e-25
3.81566e-27
-3.06516e-27
6.31265e-29
9.33622e-27
-5.0123e-26
1.62924e-24
-3.58185e-24
4.79704e-23
-1.24952e-22
1.16384e-21
-3.72145e-21
2.51753e-20
-1.04663e-19
4.97034e-19
-3.88454e-18
2.46111e-18
-7.71711e-17
-4.70873e-16
-1.85737e-17
-1.37644e-40
5.31885e-41
-1.57905e-38
3.89919e-39
-7.34671e-37
1.4351e-37
-1.98692e-35
3.491e-36
-3.70509e-34
6.30195e-35
-5.19593e-33
8.98094e-34
-5.75677e-32
1.04742e-32
-5.19324e-31
1.02203e-31
-3.88045e-30
8.41163e-31
-2.41525e-29
5.79598e-30
-1.23872e-28
3.21001e-29
-4.94911e-28
1.23301e-28
-1.24751e-27
1.70351e-28
-1.83419e-28
2.03202e-30
-2.88118e-30
-6.36039e-32
3.61534e-27
-6.21114e-27
1.40832e-25
-4.88334e-25
3.74529e-24
-1.73902e-23
6.66122e-23
-5.54918e-22
2.51837e-22
-1.72888e-20
-1.33486e-19
-6.795e-19
-2.24795e-18
-1.67176e-17
-1.62637e-16
-8.56907e-18
-2.7863e-43
1.02596e-43
-3.71039e-41
8.61253e-42
-2.01248e-39
3.65612e-40
-6.40092e-38
1.03509e-38
-1.41248e-36
2.19129e-37
-2.35237e-35
3.68469e-36
-3.10036e-34
5.07892e-35
-3.32689e-33
5.82862e-34
-2.93981e-32
5.55585e-33
-2.12579e-31
4.23865e-32
-1.20696e-30
2.25424e-31
-4.62986e-30
4.93302e-31
-6.1895e-30
4.17185e-33
-6.85083e-32
1.34773e-35
6.40506e-32
-7.75103e-33
1.53099e-28
-3.68362e-28
7.81794e-27
-3.84254e-26
7.03227e-26
-1.34811e-24
-5.6096e-24
-5.17476e-23
-6.78712e-22
-2.37549e-21
-6.81747e-20
-1.16491e-19
-1.19086e-18
-5.16078e-18
-1.25685e-16
5.16181e-18
-4.71448e-46
6.58984e-47
-7.10962e-44
7.11019e-45
-4.39775e-42
3.83568e-43
-1.61504e-40
1.36943e-41
-4.1462e-39
3.6156e-40
-8.07627e-38
7.46795e-39
-1.24483e-36
1.23964e-37
-1.55071e-35
1.65823e-36
-1.56103e-34
1.7002e-35
-1.22326e-33
1.11933e-34
-6.47963e-33
1.8805e-34
-1.36006e-32
1.14725e-36
-1.04819e-34
3.07554e-39
-2.85121e-37
-3.21687e-36
1.2977e-34
-5.71279e-34
2.90441e-30
-2.49177e-29
-1.11466e-28
-2.41171e-27
-2.18919e-26
-1.54128e-25
-2.04597e-24
-1.33665e-23
-1.86524e-22
-1.04402e-21
-2.49653e-20
-6.61797e-20
-9.57186e-19
-3.21421e-18
-1.14199e-16
2.62693e-17
-2.73591e-49
1.61403e-50
-5.15197e-47
2.25136e-48
-3.9711e-45
1.5164e-46
-1.81771e-43
6.60304e-45
-5.75714e-42
2.07956e-43
-1.3616e-40
4.95267e-42
-2.49301e-39
8.81514e-41
-3.55865e-38
1.04691e-39
-3.7693e-37
5.40738e-39
-2.4747e-36
2.8629e-41
-3.97207e-36
1.45153e-42
-2.18305e-38
2.4481e-41
-4.7959e-41
-5.09115e-40
6.76415e-38
-2.10471e-37
3.07438e-36
-1.58991e-33
-2.01722e-31
-2.74259e-30
-4.73752e-29
-3.89222e-28
-7.44724e-27
-5.72629e-26
-1.14163e-24
-6.70574e-24
-1.47847e-22
-5.76432e-22
-1.65232e-20
-3.63774e-20
-1.04405e-18
-1.71785e-18
-5.8715e-17
-4.74273e-17
-6.25188e-53
8.10626e-56
-1.45233e-50
1.29391e-53
-1.35967e-48
8.7282e-52
-7.47097e-47
3.00013e-50
-2.78532e-45
3.98567e-49
-7.49212e-44
1.71924e-51
-1.44715e-42
2.8071e-52
-1.79628e-41
2.35326e-49
-9.31963e-41
1.20956e-46
-4.72813e-43
2.01749e-44
-2.15467e-44
4.47572e-42
-2.94617e-43
1.03587e-40
8.18415e-42
-1.68174e-41
4.77509e-40
-5.59474e-37
-9.00337e-34
-8.61726e-34
-4.90462e-32
-4.81587e-31
-2.76415e-29
-1.07697e-28
-2.42163e-26
-1.69483e-26
-3.88596e-24
-1.87912e-24
-3.81531e-22
-1.5043e-22
-2.58895e-20
-8.93294e-21
-1.28381e-18
-4.03105e-19
-1.32216e-17
-4.60881e-17
-2.9899e-58
-1.08037e-73
-7.48381e-56
2.6225e-68
-6.78627e-54
1.3479e-64
-2.88923e-52
2.10846e-61
-4.47906e-51
2.1109e-58
-2.15144e-53
2.51064e-55
-3.74862e-54
3.85844e-52
-3.21166e-51
3.81822e-49
-1.60559e-48
2.06406e-46
-2.44058e-46
6.54247e-44
-4.45842e-44
9.78784e-42
-6.92591e-43
3.35865e-40
1.6867e-43
-5.00342e-41
-2.54673e-37
-2.52364e-37
-6.70003e-34
-1.70178e-34
-2.09563e-31
-6.56002e-32
-7.48136e-29
-1.43928e-29
-1.3525e-26
-2.15108e-27
-1.58127e-24
-2.28728e-25
-1.30306e-22
-1.78546e-23
-7.90281e-21
-1.04838e-21
-3.63384e-19
-4.72932e-20
-1.55864e-18
-1.20829e-17
3.80455e-76
-1.26862e-73
-1.35443e-70
4.26851e-68
-9.0342e-67
2.12842e-64
-1.7168e-63
3.19536e-61
-1.9791e-60
2.5446e-58
-2.58849e-57
1.35399e-55
-4.18354e-54
5.34354e-53
-4.14677e-51
1.95317e-50
-2.11333e-48
6.72573e-48
-5.78118e-46
1.80558e-45
-6.36015e-44
2.21347e-43
-1.02211e-42
1.59057e-46
-4.82895e-41
-2.76686e-42
-2.29174e-37
-1.80666e-38
-1.58901e-34
-9.93134e-36
-5.32867e-32
-3.9235e-33
-1.26425e-29
-8.81038e-31
-1.95615e-27
-1.35408e-28
-2.11475e-25
-1.49279e-26
-1.66952e-23
-1.21713e-24
-9.90484e-22
-7.50831e-23
-4.51923e-20
-3.57431e-21