/*--------------------------------*- C++ -*----------------------------------*\
| =========                 |                                                 |
| \\      /  F ield         | OpenFOAM: The Open Source CFD Toolbox           |
|  \\    /   O peration     | Version:  2206                                  |
|   \\  /    A nd           | Website:  www.openfoam.com                      |
|    \\/     M anipulation  |                                                 |
\*---------------------------------------------------------------------------*/
FoamFile
{
    version     2.0;
    format      ascii;
    arch        "LSB;label=32;scalar=64";
    class       volScalarField;
    location    "0.3";
    object      alpha.water;
}
// * * * * * * * * * * * * * * * * * * * * * * * * * * * * * * * * * * * * * //

dimensions      [0 0 0 0 0 0 0];

internalField   nonuniform List<scalar> 
2268
(
0.999999
0.999999
1
1
1
1
1
1
1
1
1
1
1
0.999999
0.999999
0.999999
1
1
1
0.999821
0.869511
0.799975
0.799858
1
1
1
1
1
1
1
1
1
1
1
1
1
1
1
1
1
1
1
1
0.976934
0.911858
0.969813
1
1
1
1
1
1
1
1
1
1
1
1
1
1
1
1
1
1
1
1
1
0.999922
0.99952
1
1
1
1
1
1
1
1
1
1
1
1
1
1
1
1
1
1
1
1
1
0.999974
0.989479
1
1
1
1
1
1
1
1
1
1
1
1
1
1
1
1
1
1
1
1
1
0.999998
0.989442
1
1
1
1
1
1
1
1
1
1
1
1
1
1
1
1
1
1
1
1
1
1
0.98958
1
1
1
1
1
1
1
1
1
1
1
1
1
1
1
1
1
1
1
1
1
1
0.989679
1
1
1
1
1
1
1
1
1
1
1
1
1
1
1
1
1
1
1
1
1
1
0.990634
3.73177e-16
1.03889e-16
1.62624e-17
9.17356e-19
7.15109e-20
7.54246e-21
4.03406e-22
9.19059e-24
3.52673e-25
2.21533e-26
5.6352e-27
3.53911e-28
1.3943e-29
5.18266e-31
1.63414e-32
4.01694e-34
6.97312e-36
5.06529e-38
3.40456e-38
1.39433e-14
1.11582e-14
2.10177e-15
1.38891e-16
1.17505e-17
1.24978e-18
7.04012e-20
1.30269e-21
7.70953e-24
1.62001e-24
9.72016e-25
7.59215e-26
2.64723e-27
9.91977e-29
3.23355e-30
7.99031e-32
1.28624e-33
8.7455e-36
3.40456e-38
1.93758e-13
4.42698e-13
1.29065e-13
1.05011e-14
9.8416e-16
1.05236e-16
6.02063e-18
8.9054e-20
1.22732e-21
5.91864e-23
5.15101e-23
5.86382e-24
1.65377e-25
5.35464e-27
1.54363e-28
3.14393e-30
3.11018e-32
2.25457e-34
3.69063e-36
2.8241e-12
2.60207e-12
1.30063e-12
2.23691e-13
5.52735e-14
7.88699e-15
3.80632e-16
5.48029e-18
9.64822e-20
4.41966e-21
2.24509e-21
2.48243e-22
7.77869e-24
2.30707e-25
5.74837e-27
8.11839e-29
1.32699e-30
1.1852e-32
2.14594e-34
6.12399e-11
2.04307e-11
2.62178e-12
6.93095e-13
7.65109e-13
2.25519e-13
2.0334e-14
3.72177e-16
5.54476e-18
2.47385e-19
7.69657e-20
9.57911e-21
3.18622e-22
8.7628e-24
1.75353e-25
3.05377e-27
6.70114e-29
6.16668e-31
1.11481e-32
1.5146e-09
3.15444e-10
3.37478e-11
4.6384e-12
2.38419e-12
6.79219e-13
4.10267e-13
2.49737e-14
2.68475e-16
1.18413e-17
2.23625e-18
3.66794e-19
1.27031e-20
3.12124e-22
4.73511e-24
1.45184e-25
3.44575e-27
3.20495e-29
5.72059e-31
3.39386e-08
6.58026e-09
5.40189e-10
9.6684e-11
4.62245e-11
1.4155e-11
2.18712e-12
4.02028e-13
1.15828e-14
5.21743e-16
7.37058e-17
1.36745e-17
4.8899e-19
1.01327e-20
2.14065e-22
6.99856e-24
1.71535e-25
1.64983e-27
2.95765e-29
5.76539e-07
6.84581e-08
6.68826e-09
1.96355e-09
1.08492e-09
2.98498e-10
5.3518e-11
6.30634e-12
4.43071e-13
2.12345e-14
2.33328e-15
4.83783e-16
1.78197e-17
2.9465e-19
9.4398e-21
3.30669e-22
8.16887e-24
8.14063e-26
1.49982e-27
1
1
1
1
1
1
1
1
1
1
1
1
1
1
1
1
1
1
1
1
1
1
1
1
1
1
1
1
1
1
1
1
1
0.999999
1
1
1
1
1
0.999999
1
1
1
1
1
1
1
1
0.999995
0.999996
0.999996
0.999997
0.999996
0.999996
0.999994
0.99999
0.999985
0.999981
0.999978
0.999972
0.999971
0.99998
0.999995
0.999999
1
1
1
1
1
1
0.99998
0.999926
0.999933
0.999939
0.999937
0.999925
0.999895
0.999838
0.999747
0.999627
0.999487
0.993183
0.970806
0.931013
0.879238
0.838224
0.810397
0.843084
0.937316
1
1
0.999995
0.99998
0.999404
0.999006
0.999059
0.99906
0.998789
0.993789
0.976285
0.937649
0.871727
0.775947
0.632603
0.472875
0.32851
0.212622
0.128146
0.0824175
0.0631259
0.0813058
0.139348
0.260095
0.449447
0.744793
0.992895
0.822684
0.740267
0.72777
0.687014
0.613465
0.496187
0.371214
0.248603
0.140522
0.0446272
4.62494e-09
1.41985e-07
8.33137e-07
3.38577e-06
7.88837e-06
1.03348e-05
1.01659e-05
1.03304e-05
0.000161507
0.00048823
0.0031357
0.0420548
0.467097
0.13501
0.0614876
0.0531936
0.0297875
0.000109694
1.33035e-13
1.36441e-12
4.65898e-12
7.73097e-12
2.97263e-10
3.78048e-10
4.62516e-09
1.41985e-07
8.33137e-07
3.38577e-06
8.11199e-06
1.01745e-05
1.01744e-05
2.87016e-05
9.6354e-05
0.000434611
0.00116607
-9.26253e-20
-1.26895e-55
3.17038e-20
2.32773e-18
1.0977e-16
5.3909e-15
2.58068e-14
1.33035e-13
1.36441e-12
5.73031e-12
7.73257e-12
2.15713e-10
3.34707e-10
6.95777e-07
2.60916e-05
0.000132691
0.000118833
4.01072e-05
1.91181e-05
2.79403e-05
5.61958e-05
0.000318955
0.00146822
-4.88738e-19
4.38607e-19
2.37401e-17
6.27821e-16
1.36467e-14
2.17881e-13
9.74772e-13
1.95793e-11
1.34647e-11
7.62104e-12
1.30217e-11
1.97571e-10
-1.62101e-09
6.26338e-05
0.000489989
0.000600278
0.000489228
4.99061e-05
2.79403e-05
3.27971e-05
0.000347632
0.00176653
0.00207178
-7.66353e-19
4.09996e-18
3.86608e-16
1.92069e-14
3.78653e-13
2.87242e-12
8.38752e-12
6.91352e-11
5.34295e-11
1.35017e-11
2.40708e-11
7.2326e-10
0.000141684
0.000617385
0.000618124
0.000617385
0.000263117
3.91626e-05
3.38031e-05
0.000121006
0.00147836
0.00180302
0.00164678
-1.2731e-18
6.43297e-18
9.45803e-16
7.43251e-14
1.3274e-12
6.45926e-12
1.42892e-11
8.23221e-11
1.41514e-10
4.39047e-11
2.56085e-07
3.53977e-09
0.000472003
0.000618392
0.000617385
0.000153969
8.24211e-05
4.75538e-05
0.000390398
0.00136545
0.00151229
0.000682295
3.05538e-06
-1.99819e-18
6.39272e-18
1.20787e-15
1.25205e-13
2.10567e-12
8.23081e-12
1.60915e-11
5.94537e-11
1.36939e-09
2.05656e-09
8.60882e-07
1.0818e-08
8.7973e-05
0.000610463
0.000627317
0.000636178
0.00109063
0.00114646
0.0011456
0.000983609
0.000111275
3.85388e-08
6.34712e-09
-2.90353e-18
1.63261e-18
1.25279e-15
1.48077e-13
2.43044e-12
8.84751e-12
1.63172e-11
1.24667e-11
5.36355e-09
9.81389e-09
7.68106e-07
2.33403e-09
3.44751e-10
0.000168554
0.000422376
0.00062029
0.00048346
0.000549389
9.72714e-05
-4.44193e-11
-1.37214e-09
2.92125e-10
1.23863e-09
-3.885e-18
-3.7216e-18
9.01771e-16
1.4911e-13
2.42841e-12
8.31222e-12
1.48204e-11
1.23513e-11
7.97917e-09
3.1595e-08
4.01481e-09
3.55869e-09
1.91052e-10
2.02637e-24
4.26511e-29
0.000130646
2.37106e-11
2.2765e-11
2.50699e-11
3.01516e-11
3.90445e-11
8.28631e-11
1.58649e-09
-4.75838e-18
-1.00048e-17
3.27956e-16
9.64516e-14
1.5565e-12
5.29439e-12
1.26396e-11
1.20586e-11
7.10394e-09
3.59694e-08
1.19071e-08
6.79692e-09
1.7906e-10
-4.31282e-11
-2.11035e-10
-2.51181e-12
4.4339e-11
1.12709e-10
1.68891e-10
2.67266e-10
6.39729e-10
5.37078e-09
6.91425e-09
-5.28536e-18
-1.66939e-17
6.05398e-17
3.32127e-14
5.61382e-13
2.39444e-12
1.17606e-11
1.17213e-11
1.02884e-09
3.43967e-08
3.62705e-08
2.97722e-08
1.81206e-09
0
-1.75054e-10
-2.10773e-12
9.39437e-11
2.15627e-10
3.05197e-10
3.67326e-10
3.93472e-10
1.38214e-09
5.14507e-09
-5.24553e-18
-2.19677e-17
-1.90161e-18
6.99258e-15
1.33338e-13
9.17306e-13
1.08987e-11
1.60082e-11
1.24141e-11
4.72484e-09
3.39662e-08
3.09645e-08
2.71619e-09
1.02676e-12
-1.2212e-28
1.53241e-11
5.04484e-11
6.10556e-11
9.76954e-11
2.09634e-10
5.02543e-10
3.58129e-10
4.16435e-10
-4.55207e-18
-2.36652e-17
-1.33233e-17
8.85345e-16
2.11004e-14
3.07367e-13
8.28819e-12
2.17741e-11
1.2989e-11
3.15391e-12
3.82411e-09
2.98717e-09
7.62745e-10
2.20707e-12
3.95352e-13
2.58851e-12
7.34658e-12
1.80571e-11
4.15675e-11
9.79499e-11
3.89247e-10
2.69562e-10
3.93555e-10
-3.35167e-18
-2.05231e-17
-1.78206e-17
5.62642e-17
2.04243e-15
8.51695e-14
3.423e-12
1.98869e-11
1.71816e-11
4.91614e-12
5.36489e-13
5.36489e-13
4.66375e-11
1.12862e-11
1.39649e-13
4.60639e-13
1.82513e-12
5.27488e-12
1.47423e-11
4.22599e-11
1.36861e-10
2.16378e-10
2.20563e-10
-2.00883e-18
-1.37668e-17
-1.66131e-17
4.13582e-20
9.82865e-17
1.7701e-14
7.73758e-13
7.71807e-12
1.41229e-11
9.25618e-12
3.04505e-12
9.23531e-13
3.6879e-14
3.50592e-14
1.22877e-14
5.89241e-14
2.9481e-13
1.28717e-12
5.77911e-12
2.24604e-11
9.42501e-11
3.20605e-10
2.84955e-10
-9.25586e-19
-6.77412e-18
-1.07752e-17
-5.12545e-19
6.98773e-19
2.75255e-15
1.23505e-13
1.12072e-12
4.70128e-12
6.38957e-12
4.03973e-12
1.41031e-12
2.91631e-13
2.43515e-14
1.62511e-15
5.07544e-15
3.93397e-14
3.23718e-13
2.31562e-12
1.20538e-11
6.1173e-11
3.20573e-10
3.18947e-10
-3.02834e-19
-2.27819e-18
-4.24662e-18
-1.76284e-19
1.07348e-19
3.68072e-16
1.6853e-14
1.75927e-13
5.83086e-13
1.67034e-12
1.33428e-12
6.1008e-13
1.12346e-13
6.42237e-15
1.76529e-16
3.88818e-16
6.23701e-15
9.16213e-14
9.40745e-13
6.41742e-12
3.12373e-11
1.8436e-10
3.214e-10
-6.26969e-20
-4.68179e-19
-8.8799e-19
-3.21381e-20
1.24765e-20
3.48132e-17
2.07471e-15
3.13858e-14
1.16194e-13
2.36885e-13
1.98301e-13
9.77107e-14
2.32679e-14
1.39483e-15
1.04119e-33
2.32387e-17
1.33897e-15
2.6751e-14
3.66543e-13
3.25669e-12
2.02353e-11
9.17168e-11
3.22938e-10
-6.64339e-21
-5.04947e-20
-1.04948e-19
-3.30072e-21
8.13789e-40
5.0442e-20
1.01151e-16
3.38166e-15
1.53185e-14
2.14044e-14
2.7105e-14
1.18738e-14
3.14883e-15
1.15193e-16
-7.62025e-17
-1.20778e-17
3.24873e-16
7.72144e-15
1.34803e-13
1.56572e-12
1.21431e-11
6.58843e-11
2.43491e-10
-3.1053e-31
-1.63658e-29
-4.25644e-28
-7.55647e-27
1.14533e-27
2.0209e-23
5.08252e-19
9.96687e-17
6.35343e-16
1.16199e-15
1.12046e-15
5.62371e-16
1.73761e-16
-3.00672e-17
-9.83468e-17
-1.32758e-17
8.02523e-17
2.21886e-15
4.63096e-14
6.96555e-13
6.8495e-12
4.31167e-11
1.46104e-10
-3.70667e-31
-2.06435e-29
-5.8083e-28
-1.10573e-26
-1.57043e-25
-1.58555e-24
1.3425e-22
1.20501e-19
1.45099e-18
3.77716e-18
4.61727e-18
1.8338e-18
-1.61537e-17
-5.95755e-17
-5.34434e-17
-5.5851e-18
2.15493e-17
6.34615e-16
1.49034e-14
2.81572e-13
3.47494e-12
2.59273e-11
1.08728e-10
-3.33107e-31
-1.94357e-29
-5.83745e-28
-1.20123e-26
-1.87293e-25
-2.21675e-24
-1.98019e-23
1.17757e-22
1.15913e-20
5.1026e-20
9.19269e-21
-6.70734e-19
-5.84461e-18
-1.46405e-17
-1.24889e-17
-1.00663e-18
5.74329e-18
1.76241e-16
4.4734e-15
1.00242e-13
1.59637e-12
1.46636e-11
6.18405e-11
-2.13867e-31
-1.28813e-29
-4.03549e-28
-8.70424e-27
-1.45499e-25
-1.94679e-24
-2.04211e-23
-1.59908e-22
-9.86913e-22
-6.39164e-21
-5.57728e-20
-3.47434e-19
-1.20118e-18
-2.3316e-18
-1.60808e-18
-9.43931e-20
1.43804e-18
4.62376e-17
1.21985e-15
3.0373e-14
6.4086e-13
7.09631e-12
3.01766e-11
-8.82035e-32
-5.38905e-30
-1.70546e-28
-3.67529e-27
-6.15363e-26
-8.46696e-25
-9.61301e-24
-8.82582e-23
-6.38997e-22
-3.58371e-21
-1.54945e-20
-5.18083e-20
-1.31051e-19
-2.12912e-19
-5.25753e-20
-1.84959e-21
3.34044e-19
1.0886e-17
2.90822e-16
7.67609e-15
2.03921e-13
2.67773e-12
1.29587e-11
-1.77587e-32
-1.0745e-30
-3.25734e-29
-6.32293e-28
-8.83775e-27
-9.47054e-26
-8.09018e-25
-5.65654e-24
-3.29746e-23
-1.62014e-22
-6.71102e-22
-2.29834e-21
-5.99427e-21
-8.55324e-21
-2.42701e-22
2.52951e-22
6.51654e-20
2.09402e-18
5.77363e-17
1.55341e-15
4.67025e-14
7.77026e-13
4.40623e-12
-1.29619e-34
-7.97633e-33
-2.50407e-31
-5.14284e-30
-7.7776e-29
-9.2356e-28
-8.93808e-27
-7.21637e-26
-4.92497e-25
-2.85109e-24
-1.38403e-23
-5.32854e-23
-1.32015e-22
-1.95326e-23
-3.18013e-25
2.15206e-22
9.37423e-21
3.2144e-19
9.398e-18
2.57883e-16
9.23962e-15
1.85058e-13
1.03348e-12
-3.00625e-37
-2.15784e-35
-7.94041e-34
-1.92751e-32
-3.46899e-31
-4.92441e-30
-5.71557e-29
-5.54506e-28
-4.53316e-27
-3.09938e-26
-1.70138e-25
-6.46958e-25
-8.83671e-25
-1.04052e-26
2.61527e-28
1.54746e-23
1.24238e-21
4.33332e-20
1.32611e-18
3.81275e-17
1.46305e-15
3.63909e-14
2.37188e-13
-5.76855e-40
-4.74541e-38
-2.01385e-36
-5.69042e-35
-1.20126e-33
-2.0126e-32
-2.76172e-31
-3.15251e-30
-2.98632e-29
-2.26208e-28
-1.19331e-27
-2.58751e-27
-2.16579e-29
-6.91606e-32
2.02826e-29
9.20387e-25
9.39963e-23
3.09147e-21
1.02544e-19
3.59857e-18
1.41697e-16
5.02353e-15
6.1995e-14
-3.68826e-43
-3.90299e-41
-2.10481e-39
-7.50144e-38
-1.97542e-36
-4.06658e-35
-6.72261e-34
-8.9489e-33
-9.12362e-32
-5.96793e-31
-9.95346e-31
-6.02313e-33
-1.60011e-35
1.65911e-32
1.09362e-30
6.01601e-26
5.01138e-24
2.01867e-22
8.76652e-21
4.01973e-19
2.04925e-17
9.29447e-16
2.72671e-14
-8.99621e-47
-1.23193e-44
-8.29534e-43
-3.60641e-41
-1.13314e-39
-2.69056e-38
-4.77117e-37
-5.64164e-36
-2.8993e-35
-1.52628e-37
-7.68928e-39
-1.28775e-37
2.65761e-36
4.00192e-34
3.00536e-31
4.42961e-27
2.64957e-25
1.81596e-23
1.28926e-21
8.89894e-20
5.32528e-18
2.66339e-16
7.45987e-15
-4.5008e-52
-7.06147e-50
-4.76271e-48
-1.63473e-46
-2.16722e-45
-9.32332e-48
-1.5173e-48
-1.26711e-45
-6.48429e-43
-1.07624e-40
-2.37468e-38
-5.46363e-37
3.25668e-38
6.52541e-38
2.61505e-32
2.13072e-28
2.10909e-26
1.88339e-24
1.65669e-22
1.29042e-20
8.29775e-19
4.33007e-17
1.25208e-15
5.97643e-70
-1.42814e-64
-7.34049e-61
-1.14673e-57
-1.14595e-54
-1.35973e-51
-2.08373e-48
-2.05521e-45
-1.10687e-42
-3.49401e-40
-5.20389e-38
-1.77722e-36
-2.6216e-53
2.0572e-37
2.55968e-33
9.36604e-30
1.21171e-27
1.34997e-25
1.36635e-23
1.15619e-21
7.85732e-20
4.2879e-18
1.45298e-16
6.99317e-70
-2.32058e-64
-1.15733e-60
-1.73535e-57
-1.37967e-54
-7.32598e-52
-2.88414e-49
-1.05126e-46
-3.60882e-44
-9.65582e-42
-1.17955e-39
-8.44539e-43
2.11711e-55
8.99172e-39
4.78689e-35
2.2278e-31
4.27687e-29
6.0257e-27
7.0871e-25
6.67062e-23
4.95148e-21
2.93067e-19
1.118e-17
2.81728e-70
-2.04045e-64
-9.77552e-61
-1.45914e-57
-1.11702e-54
-5.52001e-52
-1.72389e-49
-3.19602e-47
-2.71333e-45
-7.1491e-44
-5.3479e-42
-3.2244e-45
-5.12238e-45
3.2208e-40
6.84016e-37
1.7049e-33
5.48699e-31
1.09506e-28
1.67135e-26
1.94245e-24
1.73217e-22
1.21118e-20
5.81289e-19
-1.38153e-79
-2.97185e-68
-1.7043e-64
-3.11712e-61
-2.85236e-58
-1.4648e-55
-3.93056e-53
-4.47497e-51
-7.8106e-54
-8.52473e-57
-8.61255e-60
-3.02736e-58
-2.41817e-59
-6.44838e-41
1.52952e-40
2.07758e-37
2.27051e-34
7.92957e-32
2.11161e-29
4.24968e-27
6.4939e-25
7.65842e-23
6.67793e-21
-9.08926e-80
-5.21641e-75
-4.16862e-71
-6.58726e-68
-3.30661e-65
-4.19678e-68
-3.6439e-71
-4.241e-70
-2.1012e-66
-4.45196e-63
-7.11392e-60
-1.91349e-57
-1.3531e-50
-1.32947e-50
-4.94033e-47
6.44074e-45
8.07048e-42
2.71922e-38
2.11552e-35
1.27431e-32
5.94639e-30
2.16167e-27
5.70757e-25
0
0
-2.62056e-91
-1.67224e-86
-2.61448e-82
-7.69605e-78
-1.1542e-73
-9.11195e-70
-4.51158e-66
-1.42161e-62
-2.27025e-59
-1.21032e-56
-4.61107e-60
-3.48611e-56
-2.33454e-55
-5.92087e-49
-1.3018e-57
0
-5.25433e-51
-3.31008e-48
-1.00607e-45
-1.73543e-42
-1.15608e-27
0.92338
0.0015763
0.000257353
0.000180839
0.999871
0.786596
0.114918
0.000329743
0.999995
0.999691
0.916294
0.398361
0.999888
0.999818
0.999269
0.98041
0.999818
0.999269
0.997727
0.996743
0.199415
0.474499
0.876441
0.995414
0.00193669
0.00546254
0.0742404
0.211372
0.00192208
0.000758507
0.000156168
0.00015877
0.00214513
0.000915913
1.17051e-05
1.02161e-05
0.000420364
2.691e-06
1.2435e-06
2.06398e-07
1.71359e-07
1.99032e-07
9.61278e-07
1.27724e-06
1.91291e-09
1.44573e-07
1.24706e-06
1.37442e-06
2.19073e-09
2.92677e-09
4.36046e-06
5.22663e-06
1.85501e-09
1.6904e-08
1.20978e-08
1.13798e-07
4.34347e-09
4.44965e-09
4.57437e-09
2.87014e-08
4.44965e-09
4.51427e-09
4.66507e-09
8.99396e-06
9.14201e-09
4.66507e-09
1.56104e-06
7.4224e-06
2.16542e-08
5.45237e-09
9.63537e-09
1.44784e-05
1.93363e-08
2.07978e-08
8.8301e-09
1.07004e-05
2.35384e-09
4.32351e-08
1.11244e-08
4.38798e-07
3.29316e-10
4.30354e-08
2.70813e-08
3.40281e-08
1.49535e-09
1.72049e-09
7.7041e-08
6.03819e-08
3.74648e-09
2.89115e-09
6.86792e-08
7.22459e-08
1.69902e-09
4.01298e-09
4.29837e-09
1.60348e-06
9.79549e-10
7.84346e-09
2.20303e-08
2.28411e-06
8.55511e-10
2.47663e-09
4.14842e-08
1.26007e-07
4.45933e-10
1.95606e-09
2.13805e-09
2.06591e-07
2.36223e-10
1.03586e-09
1.92703e-09
3.65477e-07
1.11817e-10
4.77673e-10
2.89156e-09
6.53771e-08
4.59488e-11
2.06482e-10
1.22737e-09
2.37565e-08
1.75895e-11
9.43405e-11
7.09251e-10
2.35928e-08
6.2969e-12
5.5169e-11
7.62573e-10
1.47655e-08
2.35868e-12
4.07587e-11
5.50076e-10
1.0906e-08
1.05079e-12
2.28505e-11
3.46063e-10
6.89007e-09
3.16044e-13
7.603e-12
1.43859e-10
2.81677e-09
5.42266e-14
1.42376e-12
3.04683e-11
5.98617e-10
5.86199e-15
1.64225e-13
3.83547e-12
7.82111e-11
4.7323e-16
1.44285e-14
4.03863e-13
1.03351e-11
2.68496e-17
9.13858e-16
7.24164e-14
3.63886e-12
4.61476e-19
3.1207e-17
4.27058e-15
3.52338e-13
1.14191e-22
2.58659e-20
4.57102e-17
1.50232e-14
-4.93864e-27
-6.86011e-27
3.90041e-19
3.5977e-17
1.18366e-05
6.19924e-07
1.09508e-07
6.20218e-08
3.33366e-08
8.26633e-09
1.50149e-09
1.8126e-10
1.48871e-11
7.8301e-13
4.4839e-14
2.18746e-14
1.35783e-15
3.9179e-17
9.04515e-19
1.55927e-20
4.22618e-22
6.88663e-24
5.61776e-26
9.6104e-05
6.6561e-06
6.19918e-07
9.24237e-07
6.34369e-07
1.76338e-07
3.48041e-08
4.69472e-09
4.32736e-10
2.65517e-11
1.54086e-12
1.11846e-13
5.44312e-14
4.25315e-15
9.06094e-17
3.62512e-19
1.10717e-20
4.04797e-22
4.8358e-24
0.0448729
0.00420572
6.65622e-06
3.08291e-05
2.08057e-05
5.7169e-06
1.20556e-06
1.73945e-07
1.82077e-08
1.35621e-09
8.74528e-11
4.6704e-12
1.70386e-13
1.15418e-14
7.1608e-16
2.38522e-17
7.40309e-19
3.63447e-20
6.31612e-22
0.916992
0.472417
0.0461998
0.0235307
0.000427813
0.000124752
3.01206e-05
4.75538e-06
6.26799e-07
5.56884e-08
3.80916e-09
2.52688e-10
9.05476e-12
-2.76468e-13
-1.5581e-14
1.34543e-15
6.19793e-17
8.14919e-19
-4.30774e-20
0.995414
0.982677
0.975098
0.765193
0.200767
0.0154659
0.000505206
9.17553e-05
1.34428e-05
1.42065e-06
1.14854e-07
9.22574e-09
5.83141e-10
1.75161e-11
-1.47996e-12
-1.62234e-13
1.83349e-16
1.36185e-17
-1.30367e-17
0.992066
0.987902
0.985351
0.983872
0.967425
0.61463
0.0863533
0.00124669
0.000194161
2.47436e-05
2.55153e-06
2.35786e-07
1.95657e-08
1.21797e-09
3.47393e-11
-2.75292e-12
-3.80302e-13
-1.23338e-14
-5.30725e-16
0.46465
0.859745
0.983872
0.978064
0.969151
0.964757
0.770184
0.17675
0.00213923
0.000310271
3.98246e-05
4.3676e-06
4.67255e-07
4.27247e-08
3.07124e-09
1.42307e-10
-1.80859e-12
-1.33848e-12
5.35097e-15
0.00710181
0.0321008
0.106871
0.566134
0.964757
0.956696
0.935336
0.765893
0.200837
0.00332559
0.000490239
6.72009e-05
8.9826e-06
1.09073e-06
1.1414e-07
9.52197e-09
4.98592e-10
-1.12887e-11
1.50301e-12
1.37526e-05
3.09606e-05
4.71364e-05
0.00645963
0.160508
0.792156
0.917944
0.88577
0.658497
0.132867
0.00474776
0.000763346
0.000120618
1.80386e-05
2.38554e-06
2.5943e-07
1.9429e-08
2.45681e-10
5.02128e-11
2.15535e-06
2.61646e-06
4.42601e-06
6.16075e-06
4.25294e-05
0.130707
0.73884
0.859664
0.828653
0.44812
0.0402862
0.00377378
0.000754618
0.000135115
1.99295e-05
2.16435e-06
1.45935e-07
3.7203e-09
9.23974e-10
1.15899e-06
1.47104e-06
1.73374e-06
2.05145e-06
2.79685e-06
4.26808e-05
0.236808
0.780423
0.78511
0.694271
0.20096
0.00909492
0.00200126
0.000391872
6.35416e-05
7.74812e-06
6.0334e-07
2.77716e-08
7.79002e-09
1.36194e-06
1.37625e-06
1.48503e-06
1.73468e-06
2.01566e-06
2.79937e-06
0.000120683
0.515889
0.761554
0.715572
0.380494
0.0348942
0.00364774
0.000761582
0.000133117
1.74268e-05
1.50881e-06
9.1299e-08
3.63505e-08
4.7298e-06
1.59822e-06
1.73468e-06
1.94644e-06
2.029e-06
2.09817e-06
4.21622e-06
0.208254
0.697745
0.681626
0.51357
0.0774861
0.00536404
0.00115862
0.000207321
2.80918e-05
2.31651e-06
1.57097e-07
1.06423e-07
1.11369e-06
4.17898e-05
7.67284e-05
2.76779e-05
2.09822e-06
4.21681e-06
6.45746e-06
0.0579571
0.563974
0.665682
0.530574
0.101635
0.00622439
0.00137561
0.000245608
3.45411e-05
3.21973e-06
3.05191e-07
2.1809e-07
6.08284e-05
8.61052e-05
8.63499e-05
8.61052e-05
5.39589e-05
6.4582e-06
1.29096e-05
2.47207e-05
0.426735
0.627184
0.519305
0.116572
0.00643879
0.00140863
0.000255807
3.41851e-05
3.32848e-06
3.81425e-07
3.03929e-07
1.19368e-05
1.01831e-05
1.11995e-05
7.61494e-05
4.11175e-05
1.29099e-05
2.12263e-05
2.36253e-05
0.357623
0.586615
0.51645
0.141042
0.00640317
0.00135357
0.000228929
3.01858e-05
2.72431e-06
2.91687e-07
1.90687e-07
7.41027e-06
7.66324e-06
3.71448e-05
9.15848e-05
8.21413e-05
2.14105e-05
2.36253e-05
0.0173891
0.389128
0.550652
0.508089
0.157615
0.00597441
0.00116201
0.000181774
2.19688e-05
1.95086e-06
1.88277e-07
1.10234e-07
1.06093e-05
8.63743e-06
1.64214e-05
4.27044e-05
0.000158992
7.62198e-05
2.83167e-05
0.127284
0.499696
0.520698
0.475165
0.132757
0.0046777
0.000832331
0.000129385
2.42386e-05
3.0684e-06
2.76479e-07
5.87009e-08
3.00327e-05
1.31027e-05
1.90401e-05
0.000106513
0.000171853
0.00116071
0.0676116
0.413489
0.480607
0.504958
0.320894
0.042643
0.00292654
0.000692164
0.000174333
2.89004e-05
3.37394e-06
2.6603e-07
3.18152e-08
4.24478e-05
2.7664e-05
2.46154e-05
8.80673e-05
0.00119475
0.0511205
0.345376
0.423061
0.440334
0.295
0.0755589
0.0119295
0.00192775
0.000722768
0.000214203
3.40082e-05
3.63693e-06
2.85778e-07
1.82344e-08
3.89005e-05
3.2606e-05
2.93023e-05
2.97245e-05
0.0189797
0.25663
0.364816
0.354144
0.207119
0.0336949
0.00636936
0.00650951
0.00211322
0.000661294
0.000165149
2.29058e-05
2.37366e-06
1.88631e-07
1.11793e-08
2.74071e-05
3.4261e-05
2.97245e-05
3.32854e-05
0.102811
0.278709
0.270275
0.120155
0.0133738
0.00447997
0.00215463
0.00143971
0.00155888
0.000408651
7.81226e-05
1.09479e-05
1.22984e-06
1.02695e-07
6.15477e-09
6.54271e-06
7.92659e-05
3.32854e-05
4.05479e-05
0.130101
0.253334
0.0870592
0.0106841
0.00376221
0.00153443
0.000798055
0.000485212
0.000328959
0.000204807
2.7787e-05
4.36335e-06
5.38556e-07
4.78565e-08
3.06384e-09
7.9821e-07
0.000162036
4.33533e-05
5.82085e-05
0.132881
0.231265
0.0404391
0.00377005
0.00153587
0.000637618
0.000302325
0.000199105
0.000108093
5.28144e-05
1.32306e-05
2.05459e-06
2.59368e-07
2.29425e-08
1.51955e-09
4.72135e-07
0.000159328
8.02494e-05
0.000102924
0.125134
0.202814
0.123007
0.00535756
0.000638669
0.000304595
0.000153144
8.62982e-05
4.77891e-05
1.20769e-05
8.14153e-06
1.06894e-06
1.31562e-07
1.16416e-08
7.86473e-10
3.26738e-07
1.26895e-05
0.000506395
0.000122178
0.09317
0.189747
0.180533
0.0161187
0.000329575
0.000153385
8.70149e-05
4.09416e-05
1.82904e-05
5.27337e-06
3.30065e-06
5.67491e-07
6.02204e-08
5.5185e-09
3.97563e-10
2.76855e-06
1.18681e-05
0.000537595
0.000151758
0.0337088
0.180417
0.177801
0.160725
0.00355221
9.87697e-05
4.29291e-05
2.15044e-05
6.72973e-06
2.21123e-06
6.60023e-07
2.84768e-07
2.66162e-08
2.52606e-09
2.01943e-10
2.5879e-06
2.589e-06
0.000393571
0.000457863
0.000497412
0.164098
0.17762
0.177087
0.0956919
0.00149779
6.60637e-05
1.18359e-05
3.81728e-06
7.36895e-07
1.92255e-07
8.76546e-08
1.45313e-08
1.32727e-09
1.09075e-10
5.60187e-07
1.21008e-05
2.02353e-05
0.00193212
0.000988382
0.12608
0.177087
0.175831
0.174919
0.024785
0.000405748
4.6415e-05
4.49871e-06
5.93865e-07
7.89666e-08
1.69698e-08
7.85657e-09
8.33183e-10
6.25069e-11
2.62965e-07
6.58868e-06
3.38374e-05
0.00102744
0.00103707
0.040877
0.175831
0.17513
0.17513
0.166159
0.0193602
0.000207158
1.45439e-05
7.76573e-07
5.30369e-08
7.57369e-09
4.27786e-09
5.53409e-10
3.59005e-11
2.77992e-07
3.10496e-06
6.55232e-06
0.000309687
0.00420941
0.0043077
0.148517
0.17513
0.17456
0.174447
0.035563
0.000223388
1.3274e-05
1.06159e-06
2.82811e-07
1.84083e-08
3.17695e-09
3.45052e-10
1.86286e-11
1.57729e-07
2.14431e-06
1.28833e-05
5.4092e-05
0.00156519
0.00520446
0.0317007
0.160027
0.174291
0.115345
0.0230663
0.00113878
9.61554e-05
3.83836e-06
2.39991e-07
1.67741e-08
1.85744e-09
1.77768e-10
9.05634e-12
1.22952e-07
1.70232e-06
1.0804e-05
4.76667e-05
0.000264354
0.00365455
0.00608898
0.035762
0.0453028
0.013972
0.0064968
0.000698913
5.9807e-05
2.29896e-06
6.29734e-10
6.45876e-10
5.27206e-10
7.98383e-11
4.43518e-12
1.00826e-07
1.08342e-06
6.71247e-06
3.2766e-05
0.000135499
0.00188541
0.00310099
0.00207688
0.00267613
0.00176448
0.000276804
1.49271e-05
-3.06862e-08
-4.55086e-08
-3.22734e-09
2.02174e-10
1.70329e-10
3.89871e-11
2.08783e-12
4.05341e-08
4.2985e-07
2.6169e-06
1.13223e-05
3.96131e-05
0.000561134
0.000823419
0.000666636
0.000721037
0.000551851
0.000107692
6.29887e-06
1.50996e-07
-1.48278e-08
-6.52904e-10
1.07838e-10
8.39923e-11
1.89886e-11
9.3236e-13
8.66559e-09
8.16509e-08
4.29133e-07
1.87666e-06
7.07699e-06
0.000105274
0.000209391
0.000202263
0.000187487
0.000162939
3.74297e-05
2.53419e-06
9.52884e-08
-2.91445e-09
-1.68288e-10
6.29805e-11
4.98956e-11
8.97689e-12
3.93642e-13
1.17605e-09
1.07659e-08
6.08258e-08
2.96155e-07
1.24355e-06
1.78413e-05
3.80722e-05
4.49432e-05
4.69067e-05
4.33054e-05
1.19723e-05
8.73573e-07
3.99804e-08
-9.19367e-11
-1.77942e-11
3.10149e-11
2.715e-11
4.0985e-12
1.5767e-13
1.30541e-10
1.27114e-09
8.3698e-09
4.69309e-08
2.90851e-07
1.4841e-06
4.30745e-06
8.33719e-06
1.14099e-05
1.10915e-05
3.59807e-06
2.75716e-07
1.46797e-08
2.04372e-10
1.25095e-11
1.45072e-11
1.24275e-11
1.80839e-12
6.0263e-14
1.28298e-11
1.34605e-10
1.04512e-09
7.03702e-09
4.05594e-08
1.79041e-07
6.26805e-07
1.60927e-06
2.72304e-06
2.77068e-06
1.03526e-06
8.4211e-08
4.25345e-09
1.1554e-10
1.19629e-11
7.38166e-12
5.11526e-12
7.69439e-13
2.23002e-14
2.29497e-12
1.87992e-11
1.45283e-10
9.5823e-10
6.32418e-09
3.25528e-08
1.28279e-07
3.58966e-07
6.57389e-07
6.92557e-07
2.88321e-07
2.60096e-08
1.59503e-09
3.14722e-11
7.35014e-12
4.85308e-12
1.97992e-12
3.14504e-13
6.72282e-15
1.9795e-13
3.48764e-12
1.68733e-11
9.16229e-11
8.12699e-10
5.28383e-09
2.54803e-08
8.67928e-08
1.98329e-07
2.14464e-07
7.8852e-08
7.66584e-09
5.80326e-10
2.93163e-11
3.51023e-12
2.80439e-12
7.77907e-13
1.28771e-13
1.98499e-15
4.96844e-16
6.69836e-14
4.12542e-13
7.15701e-12
9.16229e-11
8.12699e-10
5.28383e-09
2.54807e-08
8.68005e-08
9.47706e-08
2.14356e-08
2.19787e-09
1.77726e-10
1.16411e-11
2.12852e-12
5.69153e-13
1.72602e-13
3.01136e-14
1.98499e-15
)
;

boundaryField
{
    leftWall
    {
        type            zeroGradient;
    }
    rightWall
    {
        type            zeroGradient;
    }
    lowerWall
    {
        type            zeroGradient;
    }
    atmosphere
    {
        type            inletOutlet;
        inletValue      uniform 0;
        value           nonuniform List<scalar> 
46
(
0
0
0
0
0
0
0
0
0
0
0
0
0
0
0
0
0
0
0
0
0
0
0
0
0
0
0
0
6.69836e-14
4.12542e-13
7.15701e-12
9.16229e-11
8.12699e-10
5.28383e-09
2.54807e-08
8.68005e-08
9.47706e-08
2.14356e-08
2.19787e-09
1.77726e-10
1.16411e-11
2.12852e-12
5.69153e-13
1.72602e-13
3.01136e-14
1.98499e-15
)
;
    }
    defaultFaces
    {
        type            empty;
    }
}


// ************************************************************************* //
