/*--------------------------------*- C++ -*----------------------------------*\
| =========                 |                                                 |
| \\      /  F ield         | OpenFOAM: The Open Source CFD Toolbox           |
|  \\    /   O peration     | Version:  2206                                  |
|   \\  /    A nd           | Website:  www.openfoam.com                      |
|    \\/     M anipulation  |                                                 |
\*---------------------------------------------------------------------------*/
FoamFile
{
    version     2.0;
    format      ascii;
    arch        "LSB;label=32;scalar=64";
    class       volScalarField;
    location    "0.3";
    object      p;
}
// * * * * * * * * * * * * * * * * * * * * * * * * * * * * * * * * * * * * * //

dimensions      [1 -1 -2 0 0 0 0];

internalField   nonuniform List<scalar> 
2268
(
1305.93
1310.6
1315.6
1315.93
1309.8
1299.31
1287.37
1275.6
1264.69
1255.13
1247.53
1242.67
1241.63
1245.8
1257.32
1277.44
1307.75
1347.29
1389.59
1419.94
1419.23
1395.7
1440.61
1246.12
1250.73
1255.73
1256
1249.83
1239.38
1227.52
1215.8
1204.89
1195.28
1187.59
1182.6
1181.35
1185.15
1195.11
1213.13
1240.72
1278.2
1321.61
1355.65
1360.29
1324.77
1379.19
1185.37
1189.9
1194.86
1195.01
1188.76
1178.4
1166.68
1155.05
1144.14
1134.44
1126.55
1121.29
1119.67
1122.91
1132.31
1149.31
1174.49
1207.3
1244.75
1278.06
1292.73
1283.74
1331.7
1123.76
1128.18
1133.04
1132.99
1126.64
1116.41
1104.89
1093.39
1082.46
1072.6
1064.43
1058.75
1056.59
1059.14
1067.64
1083.23
1106.29
1135.83
1168.56
1199.14
1223.47
1240.16
1300.49
1061.4
1065.65
1070.34
1070.01
1063.54
1053.47
1042.19
1030.81
1019.84
1009.75
1001.17
994.94
992.08
993.746
1001.11
1015.14
1036.12
1063.14
1093.35
1122.56
1152.2
1184.6
1256.03
998.288
1002.48
1006.86
1006.16
999.561
989.669
978.623
967.346
956.265
945.844
936.742
929.813
926.082
926.681
932.72
945.069
963.984
988.697
1016.99
1045.18
1075.41
1111.4
1181.27
934.688
938.626
942.625
941.455
934.737
925.059
914.251
903.029
891.756
880.901
871.144
863.36
858.582
857.918
862.431
872.935
889.734
912.164
938.293
964.743
991.589
1020.38
1063.92
870.656
874.264
877.631
875.879
869.082
859.678
849.126
837.922
826.378
814.981
804.441
795.647
789.642
787.508
790.276
798.773
813.319
833.456
856.977
880.539
900.494
915.815
894.377
44.0163
44.0248
44.0366
44.0498
44.0613
44.0687
44.0705
44.0659
44.0553
44.0396
44.02
43.9982
43.9756
43.9537
43.9336
43.9165
43.903
43.8939
43.8892
43.9541
43.9635
43.9766
43.9908
44.0031
44.011
44.013
44.0085
43.9976
43.9813
43.9614
43.9391
43.9162
43.8939
43.8735
43.8562
43.8426
43.8333
43.8286
43.8883
43.8999
43.9154
43.9317
43.9456
43.9545
43.9571
43.9526
43.9413
43.9245
43.9036
43.8804
43.8564
43.8332
43.8121
43.7941
43.78
43.7703
43.7654
43.8187
43.8338
43.8531
43.8726
43.8888
43.8994
43.9028
43.8983
43.8865
43.8685
43.8463
43.8217
43.7962
43.7717
43.7493
43.7302
43.7152
43.7049
43.6997
43.7445
43.7653
43.7898
43.8137
43.8331
43.8458
43.8503
43.8458
43.8331
43.8136
43.7896
43.7629
43.7355
43.709
43.6849
43.6644
43.6482
43.637
43.6314
43.6616
43.6937
43.7257
43.7552
43.7787
43.794
43.7998
43.7953
43.7813
43.7599
43.7333
43.704
43.674
43.6451
43.6189
43.5965
43.5787
43.5665
43.5604
43.5639
43.618
43.6609
43.6976
43.726
43.7445
43.7517
43.747
43.7313
43.7072
43.6775
43.6449
43.6117
43.5798
43.5509
43.5262
43.5066
43.4932
43.4864
43.4696
43.5446
43.5961
43.6424
43.676
43.6975
43.7063
43.7011
43.6832
43.6557
43.6221
43.5854
43.5484
43.5129
43.4808
43.4534
43.4317
43.4167
43.4092
769.931
772.931
775.047
772.374
765.448
756.371
746.063
734.713
722.556
710.099
698.085
687.419
679.163
674.383
674.048
678.952
689.746
706.484
725.804
743.702
747.795
723.074
528.804
631.465
633.331
633.478
629.329
621.957
612.83
602.166
589.887
576.177
561.549
546.76
532.702
520.568
511.364
506.024
504.818
506.945
517.669
529.461
539.366
531.48
489.728
366.924
492.821
492.441
489.872
484.113
476.202
466.674
455.053
441.3
425.563
408.294
390.207
372.139
355.498
340.705
329.275
324.423
328.696
331.398
338.575
350.916
353.905
331.045
283.849
355.086
351.292
345.505
338.227
329.43
318.801
305.2
289.247
270.75
249.741
226.685
201.302
178.423
155.998
133.372
111.203
94.6747
90.8099
99.9719
127.108
155.807
169.167
166.523
220.515
212.957
199.61
190.092
180.134
167.75
150.518
132.35
112.739
91.4962
69.2172
42.9099
28.8112
18.9887
11.6161
6.35556
3.52844
2.36688
3.90493
7.48429
14.9298
27.5022
45.4531
100.021
84.36
62.6966
56.1181
50.203
41.7504
29.5753
21.2914
13.5893
6.83186
1.11206
-1.48027
-1.89464
-2.00855
-2.04645
-2.05739
-2.05572
-2.04098
-2.06872
-2.18054
-2.10971
-1.70881
-0.0642768
27.3303
6.19273
1.67864
1.12629
-0.351471
-1.87037
-2.07625
-2.15307
-2.14527
-2.11803
-2.06924
-2.06836
-2.1509
-2.22855
-2.29492
-2.33979
-2.36073
-2.36344
-2.39232
-2.43383
-2.42003
-2.34124
-2.37978
-2.43777
-2.4738
-2.40093
-2.36978
-2.3511
-2.30252
-2.30647
-2.30895
-2.30185
-2.29507
-2.3019
-2.33358
-2.39912
-2.50937
-2.63811
-2.741
-2.78027
-2.74796
-2.69259
-2.69283
-2.70113
-2.69503
-2.81929
-2.57059
-2.56663
-2.54219
-2.52761
-2.5165
-2.50011
-2.49313
-2.49125
-2.49401
-2.50921
-2.55115
-2.62034
-2.71554
-2.89491
-3.13893
-3.31889
-3.34431
-3.22131
-3.04934
-2.96614
-2.96364
-3.07595
-3.34182
-2.73021
-2.70892
-2.70645
-2.70169
-2.69686
-2.69302
-2.69363
-2.69805
-2.71042
-2.74199
-2.80863
-2.89872
-3.03081
-3.30295
-3.64133
-3.84353
-3.81722
-3.59678
-3.30435
-3.13349
-3.19555
-3.45167
-3.7512
-2.89584
-2.88718
-2.88261
-2.88107
-2.88128
-2.88487
-2.89258
-2.90465
-2.92645
-2.96963
-3.04942
-3.15274
-3.30785
-3.58008
-3.86231
-3.97659
-3.91742
-3.715
-3.4619
-3.34666
-3.56784
-3.81462
-4.00326
-3.05748
-3.05493
-3.05498
-3.05845
-3.06435
-3.07433
-3.08894
-3.10895
-3.13888
-3.18774
-3.26576
-3.36479
-3.50624
-3.7232
-3.90991
-3.98749
-3.91699
-3.76993
-3.66683
-3.72153
-3.86574
-4.00759
-4.14836
-3.221
-3.22397
-3.227
-3.2343
-3.24491
-3.26012
-3.28061
-3.30731
-3.34322
-3.39376
-3.4641
-3.55341
-3.66562
-3.80926
-3.92556
-3.98734
-3.98343
-3.94389
-3.93645
-3.98478
-4.06562
-4.18399
-4.32422
-3.38581
-3.39187
-3.39717
-3.40736
-3.42157
-3.44072
-3.46562
-3.49721
-3.5373
-3.58841
-3.65241
-3.73001
-3.82201
-3.92433
-4.00701
-4.0652
-4.08862
-4.09455
-4.11283
-4.16875
-4.26209
-4.38462
-4.5261
-3.55006
-3.55736
-3.5645
-3.57679
-3.59364
-3.61561
-3.64351
-3.67815
-3.7207
-3.77211
-3.83263
-3.90223
-3.97986
-4.06038
-4.13113
-4.18683
-4.22072
-4.25522
-4.30301
-4.37705
-4.47888
-4.60342
-4.74629
-3.71234
-3.71986
-3.72839
-3.74216
-3.76088
-3.78482
-3.81464
-3.85101
-3.89469
-3.94612
-4.00496
-4.07042
-4.14082
-4.21231
-4.27878
-4.33787
-4.38926
-4.44329
-4.5091
-4.59402
-4.70135
-4.82967
-4.97691
-3.87141
-3.87872
-3.88828
-3.90314
-3.92317
-3.94852
-3.97968
-4.01712
-4.06139
-4.11275
-4.17079
-4.23457
-4.30237
-4.3715
-4.4391
-4.50388
-4.56775
-4.63611
-4.71568
-4.81171
-4.92705
-5.06157
-5.21477
-4.02645
-4.03349
-4.04378
-4.05945
-4.08043
-4.10684
-4.13901
-4.17733
-4.22217
-4.27372
-4.33167
-4.39511
-4.46265
-4.5325
-4.60337
-4.67508
-4.74951
-4.83051
-4.92257
-5.0294
-5.1535
-5.29593
-5.45705
-4.17695
-4.18377
-4.19456
-4.21083
-4.23254
-4.25978
-4.2928
-4.33191
-4.37744
-4.42952
-4.48795
-4.55202
-4.6207
-4.69292
-4.76819
-4.847
-4.93104
-5.02307
-5.12637
-5.24387
-5.37788
-5.53016
-5.70194
-4.32253
-4.32919
-4.34032
-4.35705
-4.37934
-4.40726
-4.44102
-4.4809
-4.5272
-4.58008
-4.63941
-4.70472
-4.77534
-4.85073
-4.93088
-5.01653
-5.10925
-5.21126
-5.32508
-5.45321
-5.59797
-5.7616
-5.94634
-4.46289
-4.46947
-4.48084
-4.49794
-4.52069
-4.54918
-4.5836
-4.62422
-4.67134
-4.72517
-4.78567
-4.85257
-4.92551
-5.00432
-5.08932
-5.18142
-5.28211
-5.39325
-5.51693
-5.65547
-5.81135
-5.98729
-6.18632
-4.59783
-4.60437
-4.61593
-4.63331
-4.65645
-4.68543
-4.72042
-4.76172
-4.80965
-4.86445
-4.9262
-4.9948
-5.07012
-5.15228
-5.24183
-5.33985
-5.44776
-5.56722
-5.7001
-5.84864
-6.01556
-6.20408
-6.4178
-4.72722
-4.73375
-4.74544
-4.76304
-4.78649
-4.81585
-4.85133
-4.89322
-4.94186
-4.99756
-5.06047
-5.13065
-5.20818
-5.29337
-5.38698
-5.4902
-5.60449
-5.73138
-5.87264
-6.03053
-6.20797
-6.40865
-6.63654
-4.85096
-4.85749
-4.86926
-4.88702
-4.91068
-4.94032
-4.97615
-5.01847
-5.06766
-5.12407
-5.18793
-5.25944
-5.33881
-5.42654
-5.52354
-5.63109
-5.75072
-5.88398
-6.0326
-6.19886
-6.38585
-6.59764
-6.8385
-4.969
-4.97551
-4.98732
-5.00515
-5.02892
-5.05871
-5.09472
-5.13728
-5.18678
-5.2436
-5.30808
-5.38052
-5.46126
-5.55091
-5.65047
-5.76135
-5.88511
-6.02341
-6.17806
-6.35139
-6.54656
-6.76798
-7.02014
-5.08131
-5.08778
-5.09957
-5.11739
-5.14114
-5.17092
-5.20692
-5.24947
-5.29896
-5.35584
-5.42051
-5.49336
-5.57486
-5.6657
-5.76693
-5.87999
-6.00652
-6.14829
-6.30732
-6.48607
-6.68767
-6.9168
-7.17817
-5.18792
-5.19432
-5.20602
-5.22372
-5.24731
-5.2769
-5.31267
-5.35492
-5.40407
-5.46056
-5.52489
-5.59754
-5.6791
-5.77031
-5.87223
-5.98625
-6.11406
-6.25757
-6.41908
-6.60116
-6.80703
-7.04147
-7.30949
-5.28888
-5.29518
-5.30671
-5.32417
-5.34744
-5.37664
-5.41193
-5.4536
-5.50201
-5.55766
-5.62105
-5.69282
-5.77363
-5.86429
-5.96583
-6.07956
-6.20711
-6.35056
-6.51241
-6.69538
-6.90288
-7.13977
-7.41132
-5.38432
-5.39046
-5.40174
-5.41881
-5.4416
-5.47019
-5.50475
-5.5455
-5.5928
-5.6471
-5.70897
-5.77912
-5.85831
-5.94743
-6.04746
-6.15957
-6.28529
-6.42679
-6.58669
-6.76792
-6.97395
-7.20991
-7.48114
-5.47439
-5.48032
-5.49125
-5.5078
-5.52991
-5.55767
-5.59121
-5.63073
-5.67652
-5.72901
-5.78877
-5.85657
-5.93327
-6.0198
-6.11711
-6.22622
-6.34851
-6.4861
-6.6417
-6.81837
-7.01949
-7.25059
-7.51651
-5.5593
-5.56494
-5.57543
-5.5913
-5.61253
-5.63921
-5.67146
-5.70943
-5.75335
-5.80359
-5.8607
-5.92546
-5.99882
-6.08174
-6.17513
-6.27985
-6.39709
-6.5288
-6.67772
-6.84699
-7.03923
-7.26079
-7.51593
-5.6392
-5.64449
-5.65443
-5.66948
-5.68962
-5.71499
-5.74566
-5.78176
-5.82347
-5.87106
-5.92504
-5.98616
-6.05539
-6.13373
-6.22205
-6.32104
-6.43167
-6.55562
-6.6954
-6.85406
-7.03468
-7.24199
-7.48056
-5.71433
-5.7192
-5.7285
-5.74258
-5.76144
-5.78524
-5.81404
-5.84797
-5.88712
-5.93171
-5.98213
-6.03908
-6.1035
-6.17638
-6.25853
-6.35054
-6.45309
-6.5675
-6.69615
-6.84167
-7.00699
-7.19601
-7.41269
-5.78514
-5.78957
-5.79815
-5.81112
-5.82851
-5.8505
-5.87717
-5.90861
-5.94489
-5.98614
-6.03264
-6.08498
-6.144
-6.21063
-6.28563
-6.36946
-6.46258
-6.566
-6.68163
-6.81179
-6.95896
-7.12619
-7.31656
-5.85215
-5.85614
-5.8639
-5.87566
-5.89143
-5.91142
-5.93571
-5.9644
-5.99753
-6.03515
-6.07744
-6.12481
-6.17797
-6.23773
-6.30477
-6.37943
-6.46196
-6.55308
-6.65425
-6.76734
-6.89426
-7.03718
-7.19818
-5.91516
-5.91873
-5.92561
-5.93608
-5.95012
-5.96795
-5.98966
-6.01537
-6.04511
-6.07885
-6.11667
-6.15881
-6.20578
-6.25824
-6.31673
-6.38149
-6.45262
-6.53055
-6.61635
-6.71137
-6.81689
-6.9342
-7.06435
-5.97357
-5.97673
-5.9827
-5.99182
-6.00402
-6.01954
-6.03849
-6.06099
-6.08706
-6.11664
-6.14969
-6.18631
-6.22678
-6.27158
-6.3211
-6.37549
-6.43471
-6.49899
-6.569
-6.64567
-6.72963
-6.82133
-6.92083
-6.02843
-6.03124
-6.03628
-6.044
-6.0543
-6.06741
-6.08344
-6.10252
-6.12466
-6.14977
-6.17773
-6.20848
-6.24213
-6.27894
-6.31915
-6.36283
-6.40985
-6.46024
-6.51436
-6.57273
-6.63547
-6.70228
-6.77244
-6.08337
-6.08594
-6.09005
-6.09643
-6.10487
-6.1156
-6.12871
-6.14431
-6.16241
-6.1829
-6.2056
-6.23032
-6.25703
-6.28581
-6.31678
-6.34988
-6.3849
-6.42164
-6.46019
-6.50065
-6.5427
-6.58547
-6.62772
-6.14029
-6.14276
-6.14604
-6.1512
-6.15796
-6.16646
-6.17678
-6.189
-6.20309
-6.21896
-6.2364
-6.2552
-6.27522
-6.29644
-6.3188
-6.34216
-6.36617
-6.39043
-6.41465
-6.43854
-6.46134
-6.48176
-6.49826
-6.19286
-6.19529
-6.19789
-6.20188
-6.20699
-6.21327
-6.22076
-6.22945
-6.23933
-6.25031
-6.26226
-6.275
-6.28836
-6.30228
-6.31642
-6.33056
-6.34425
-6.35697
-6.36809
-6.37694
-6.3825
-6.38338
-6.37792
-6.22741
-6.23024
-6.23202
-6.23455
-6.23761
-6.2412
-6.24527
-6.24976
-6.25462
-6.2598
-6.26525
-6.27089
-6.27655
-6.28196
-6.28672
-6.29042
-6.29259
-6.29268
-6.28993
-6.28339
-6.27206
-6.25493
-6.23073
38.973
42.7528
43.3845
43.4884
75.6661
-11.1484
37.0255
43.1109
135.012
10.792
10.4707
19.3985
116.792
43.0596
19.1604
-13.0829
53.8321
37.9324
22.8065
-0.253925
8.62316
23.4144
30.2106
21.1157
-2.67961
-3.27191
-0.662496
8.19039
-3.18227
-3.9128
-4.54676
-4.51969
-3.76468
-4.22892
-4.6443
-4.86847
-4.05978
-4.36784
-4.72334
-4.99408
-4.2038
-4.4717
-4.78601
-5.08019
-4.34382
-4.60807
-4.91038
-5.19772
-4.51605
-4.77756
-5.07711
-5.36572
-4.71774
-4.97717
-5.26866
-5.54919
-4.93925
-5.1995
-5.4844
-5.7659
-5.17456
-5.44036
-5.72127
-6.01552
-5.42121
-5.69813
-5.98835
-6.30026
-5.67627
-5.96901
-6.28842
-6.63342
-5.93648
-6.2508
-6.60552
-6.99827
-6.19864
-6.5409
-6.93354
-7.38804
-6.45847
-6.83234
-7.26997
-7.79608
-6.71072
-7.11832
-7.60551
-8.20225
-6.95008
-7.39156
-7.92718
-8.59747
-7.1712
-7.6432
-8.22162
-8.96327
-7.36934
-7.86648
-8.47914
-9.26354
-7.54074
-8.05815
-8.69632
-9.49701
-7.68218
-8.21627
-8.87408
-9.68667
-7.79052
-8.33783
-9.01016
-9.843
-7.86209
-8.41831
-9.09717
-9.96068
-7.89105
-8.44254
-9.13177
-10.0285
-7.87676
-8.4118
-9.09282
-10.0071
-7.81853
-8.32192
-8.97117
-9.86826
-7.71905
-8.17481
-8.76568
-9.59429
-7.58411
-7.97877
-8.48721
-9.19504
-7.42212
-7.74716
-8.15836
-8.71583
-7.24251
-7.49474
-7.80438
-8.20735
-7.0537
-7.23483
-7.44709
-7.70835
-6.86259
-6.97824
-7.10366
-7.24563
-6.6782
-6.73526
-6.78692
-6.83464
-6.51243
-6.51723
-6.5063
-6.48135
-6.36157
-6.32319
-6.26145
-6.18102
-6.1905
-6.12254
-6.03111
-5.92362
43.3798
43.44
43.4948
43.564
43.6037
43.6284
43.6396
43.6337
43.6113
43.5771
43.5359
43.4918
43.4476
43.4057
43.3676
43.3351
43.3095
43.2918
43.2829
42.8803
43.2879
43.363
43.4784
43.5097
43.5449
43.5648
43.557
43.5238
43.4749
43.4188
43.3608
43.3039
43.2502
43.2014
43.1596
43.1265
43.1036
43.092
38.4758
43.6745
43.5178
43.3655
43.3876
43.4562
43.5076
43.504
43.4495
43.3754
43.2981
43.2224
43.1497
43.0809
43.0181
42.9638
42.9207
42.8907
42.8755
-11.0492
22.7681
39.2406
41.5109
43.2059
43.3862
43.477
43.484
43.3899
43.2724
43.166
43.07
42.9794
42.8927
42.8118
42.7409
42.6841
42.6446
42.6244
-2.47383
-8.28068
-13.637
11.5485
30.181
42.3778
43.7736
43.5406
43.331
43.1464
43.011
42.8955
42.7864
42.6786
42.5745
42.4813
42.406
42.3534
42.3265
13.176
7.34142
14.4361
15.1217
4.51076
17.1729
40.3027
43.579
43.1723
42.9294
42.8047
42.6915
42.5651
42.4304
42.2953
42.1715
42.0708
42.0004
41.9645
21.2246
28.6588
22.9479
7.72307
9.01382
20.6491
36.2518
37.1294
42.6337
42.6587
42.5302
42.4485
42.3169
42.1407
41.9578
41.7909
41.6555
41.5613
41.5137
-4.34103
-3.62994
0.706482
17.0134
7.9484
1.26586
15.7229
25.9273
34.5726
41.9408
42.2884
42.1724
42.0185
41.7902
41.5347
41.3066
41.1261
41.0023
40.9403
-5.03165
-5.13055
-5.14868
-5.19209
-1.39216
-5.08768
-1.22399
13.6528
25.3059
37.549
41.6769
41.9225
41.6517
41.3219
40.9714
40.6653
40.4327
40.2767
40.1995
-5.13787
-5.22958
-5.31147
-5.42015
-5.60287
-3.36754
-9.65506
5.30506
22.2538
31.9695
40.73
41.39
41.0119
40.5925
40.1548
39.7795
39.5058
39.3256
39.2372
-5.24943
-5.35233
-5.44566
-5.53697
-5.60245
-5.60295
-4.37325
-6.47774
10.6258
24.8588
38.4749
39.924
39.7279
39.3263
38.9086
38.5343
38.2639
38.0848
37.9965
-5.37221
-5.47594
-5.56971
-5.65124
-5.70553
-5.69617
-5.02396
-11.8497
-1.58452
15.4773
30.3762
37.1566
37.7194
37.4071
37.1147
36.847
36.6462
36.5058
36.4349
-5.53872
-5.63469
-5.72474
-5.81104
-5.87136
-5.95702
-5.87545
-6.71075
-5.56924
11.8051
25.9243
34.1338
34.9597
34.8262
34.7613
34.7067
34.6436
34.5791
34.5434
-5.71517
-5.81471
-5.90815
-6.00737
-6.0751
-6.15865
-6.26932
-5.72016
1.41007
12.2186
21.5146
30.2623
31.6026
31.8138
32.0231
32.214
32.3179
32.3498
32.3608
-5.94813
-6.06261
-6.16977
-6.28616
-6.37848
-6.40852
-6.42918
-5.80349
7.99396
12.9939
17.8331
25.9313
27.9127
28.6279
29.0901
29.5144
29.7795
29.9083
29.9681
-6.24388
-6.40105
-6.55116
-6.72255
-6.85484
-6.81638
-6.7007
-6.23752
4.96363
10.2463
14.0905
21.4159
24.1252
25.2737
26.0255
26.726
27.1408
27.362
27.4691
-6.57494
-6.77122
-6.95276
-7.14994
-7.32246
-7.26483
-7.02803
-6.56784
-2.16351
6.44095
11.6747
17.9082
20.3695
21.7757
23.0246
23.9982
24.5243
24.8266
24.9739
-6.95438
-7.18044
-7.37396
-7.55355
-7.69709
-7.72849
-7.35272
-5.81873
-0.550106
9.84579
13.2396
16.1907
16.7092
18.7573
20.4509
21.4746
22.0546
22.4106
22.5828
-7.362
-7.61368
-7.80178
-7.94657
-8.11277
-8.43839
-8.52288
-0.675803
9.25887
15.8886
14.8322
13.7707
14.79
16.7755
18.3619
19.2517
19.827
20.1917
20.3688
-7.78527
-8.05555
-8.21727
-8.26612
-8.73682
-10.0884
-1.31066
9.5228
16.4164
17.0392
14.3527
12.7637
14.0354
15.4336
16.589
17.3341
17.8628
18.1993
18.3662
-8.24716
-8.54394
-8.63091
-8.50338
-9.68318
-8.47501
6.57695
14.88
15.9647
12.684
12.5507
12.4692
13.11
14.1328
15.0336
15.6743
16.1313
16.4229
16.5724
-8.75365
-9.10661
-9.21755
-8.85135
-10.5939
-7.89499
5.63278
11.796
11.4796
11.6469
11.7252
11.9136
12.2477
12.9993
13.7028
14.2245
14.5951
14.8336
14.9609
-9.27714
-9.72576
-10.1145
-10.495
-16.803
-14.0974
4.1908
9.86079
10.8037
10.831
11.0346
11.3157
11.6035
12.0842
12.5742
12.9472
13.2198
13.3986
13.4937
-9.74108
-10.3201
-11.0044
-12.6365
-20.2714
-19.512
5.27738
9.42425
10.2251
10.4363
10.6388
10.8353
11.0408
11.3109
11.5783
11.7944
11.9632
12.0794
12.1349
-10.0728
-10.7315
-11.4478
-12.4646
-12.931
-14.977
4.13787
9.06103
10.0833
10.2799
10.3791
10.4417
10.4829
10.5448
10.6213
10.6996
10.7722
10.8291
10.8536
-10.3022
-10.9174
-11.4242
-12.1122
-11.9424
-11.1549
-0.0388863
9.05691
9.95383
10.2185
10.1626
10.0233
9.85221
9.71612
9.63677
9.60367
9.59873
9.60754
9.61251
-10.4898
-11.0694
-11.4291
-11.929
-10.5779
-18.8766
-8.017
3.66463
9.52785
10.1138
9.92012
9.49372
9.07597
8.7655
8.57019
8.45857
8.40306
8.38287
8.37804
-10.6734
-11.3072
-11.7644
-12.1385
-12.5075
-14.0111
-11.5236
-1.43279
8.14503
9.82582
9.42342
8.70246
8.03931
7.61781
7.36807
7.22574
7.15605
7.13185
7.13022
-10.8625
-11.6273
-12.1513
-12.5678
-13.7784
-13.7336
-14.631
-7.92717
5.91451
9.23687
8.20375
7.38911
6.52431
6.1642
5.97535
5.87729
5.84333
5.84098
5.87074
-11.0316
-11.9241
-12.6898
-13.4497
-14.8543
-14.5278
-20.0591
-17.3339
-6.78784
1.5786
3.86857
4.08848
4.04927
4.27643
4.3446
4.40638
4.47268
4.50969
4.62325
-11.0836
-12.1124
-13.1721
-14.1779
-16.3797
-20.9689
-24.031
-25.5845
-19.9553
-12.3483
-5.87989
-1.48567
1.02611
2.08047
2.56343
2.87919
3.09485
3.193
3.38719
-10.9609
-12.0629
-13.3585
-14.8853
-17.6017
-23.9961
-30.7617
-38.0744
-32.8318
-18.4335
-12.0215
-4.99315
-1.31684
0.0785633
0.912856
1.44098
1.7813
1.96081
2.19852
-10.6075
-11.6541
-13.0403
-14.9682
-18.123
-23.8101
-32.3258
-40.4044
-39.2188
-23.6933
-12.5164
-6.22222
-2.81132
-1.38876
-0.402408
0.215534
0.619779
0.853766
1.08966
-10.033
-10.8805
-12.0412
-13.732
-16.3182
-20.3029
-25.3419
-30.1387
-30.8031
-21.8744
-11.8509
-6.33185
-3.70256
-2.3295
-1.37739
-0.768798
-0.362636
-0.109362
0.085307
-9.34094
-9.94347
-10.7378
-11.8365
-13.3139
-15.0736
-16.9151
-18.5386
-18.3417
-14.3582
-9.22844
-5.90634
-4.08975
-2.8974
-2.08847
-1.54768
-1.18138
-0.942786
-0.809488
-8.63129
-9.01869
-9.49731
-10.0957
-10.791
-11.4501
-11.938
-11.9014
-10.9817
-9.08881
-6.90826
-5.23884
-4.09665
-3.22928
-2.61313
-2.17597
-1.87319
-1.67512
-1.60524
-7.96297
-8.18114
-8.43036
-8.70597
-8.97915
-9.1974
-9.1828
-8.80234
-7.97812
-6.85661
-5.73494
-4.81469
-4.08767
-3.49783
-3.0511
-2.71976
-2.48529
-2.33805
-2.32049
-7.37018
-7.46731
-7.56626
-7.65655
-7.7151
-7.69484
-7.53892
-7.19323
-6.64972
-5.97383
-5.29641
-4.70873
-4.21467
-3.80419
-3.4811
-3.23606
-3.06147
-2.96082
-2.97859
-6.86583
-6.88278
-6.8921
-6.88536
-6.84603
-6.75077
-6.57596
-6.30627
-5.95157
-5.54419
-5.13292
-4.75848
-4.43112
-4.15262
-3.92702
-3.7522
-3.62781
-3.56384
-3.6019
-6.45066
-6.4212
-6.38632
-6.3399
-6.27171
-6.17243
-6.03249
-5.84724
-5.62414
-5.38087
-5.13917
-4.91543
-4.71583
-4.54298
-4.39883
-4.28427
-4.20273
-4.16522
-4.2109
-6.11212
-6.06233
-6.01917
-5.9725
-5.91597
-5.84525
-5.75726
-5.65132
-5.53083
-5.40343
-5.27821
-5.16223
-5.05848
-4.96788
-4.89038
-4.82672
-4.78039
-4.76115
-4.81094
-5.84193
-5.79876
-5.77444
-5.74936
-5.72346
-5.69617
-5.66759
-5.63816
-5.60854
-5.57936
-5.55153
-5.5259
-5.50254
-5.48135
-5.46246
-5.44757
-5.43881
-5.43093
-5.43982
)
;

boundaryField
{
    leftWall
    {
        type            calculated;
        value           nonuniform List<scalar> 
50
(
1305.93
1246.12
1185.37
1123.76
1061.4
998.288
934.688
870.656
769.931
631.465
492.821
355.086
220.515
100.021
27.3303
-2.43777
-2.57059
-2.73021
-2.89584
-3.05748
-3.221
-3.38581
-3.55006
-3.71234
-3.87141
-4.02645
-4.17695
-4.32253
-4.46289
-4.59783
-4.72722
-4.85096
-4.969
-5.08131
-5.18792
-5.28888
-5.38432
-5.47439
-5.5593
-5.6392
-5.71433
-5.78514
-5.85215
-5.91516
-5.97357
-6.02843
-6.08337
-6.14029
-6.19286
-6.22741
)
;
    }
    rightWall
    {
        type            calculated;
        value           nonuniform List<scalar> 
50
(
43.8892
43.8286
43.7654
43.6997
43.6314
43.5604
43.4864
43.4092
43.2829
43.092
42.8755
42.6244
42.3265
41.9645
41.5137
40.9403
40.1995
39.2372
37.9965
36.4349
34.5434
32.3608
29.9681
27.4691
24.9739
22.5828
20.3688
18.3662
16.5724
14.9609
13.4937
12.1349
10.8536
9.61251
8.37804
7.13022
5.87074
4.62325
3.38719
2.19852
1.08966
0.085307
-0.809488
-1.60524
-2.32049
-2.97859
-3.6019
-4.2109
-4.81094
-5.43982
)
;
    }
    lowerWall
    {
        type            calculated;
        value           nonuniform List<scalar> 
62
(
1335.36
1340.03
1345.03
1345.36
1339.22
1328.74
1316.8
1305.03
1294.12
1284.56
1276.96
1272.1
1271.06
1275.23
1286.75
1306.87
1337.18
1376.72
1419.02
1449.36
1444.82
1419.25
1464.15
1440.61
1379.19
1331.7
1300.49
1256.03
1181.27
1063.92
894.377
96.7788
42.914
43.4632
43.5623
44.0163
43.9541
43.8883
43.8187
43.7445
43.6616
43.5639
43.4696
44.0457
44.0543
44.0661
44.0792
44.0907
44.0981
44.0999
44.0954
44.0847
44.069
44.0495
44.0276
44.005
43.9831
43.963
43.9459
43.9325
43.9233
43.9186
)
;
    }
    atmosphere
    {
        type            calculated;
        value           nonuniform List<scalar> 
46
(
-6.22841
-6.23247
-6.23335
-6.23485
-6.23651
-6.23832
-6.24016
-6.24195
-6.24361
-6.24511
-6.24644
-6.24754
-6.24826
-6.24826
-6.24709
-6.24427
-6.23937
-6.23188
-6.22105
-6.20593
-6.18567
-6.15972
-6.12738
-6.07835
-6.00411
-5.91414
-5.81875
-5.75456
-5.72994
-5.72904
-5.72904
-5.72904
-5.72904
-5.72907
-5.72919
-5.72954
-5.72958
-5.72916
-5.72905
-5.72904
-5.72904
-5.72904
-5.72904
-5.72904
-5.72904
-5.72904
)
;
    }
    defaultFaces
    {
        type            empty;
    }
}


// ************************************************************************* //
