/*--------------------------------*- C++ -*----------------------------------*\
| =========                 |                                                 |
| \\      /  F ield         | OpenFOAM: The Open Source CFD Toolbox           |
|  \\    /   O peration     | Version:  2206                                  |
|   \\  /    A nd           | Website:  www.openfoam.com                      |
|    \\/     M anipulation  |                                                 |
\*---------------------------------------------------------------------------*/
FoamFile
{
    version     2.0;
    format      ascii;
    arch        "LSB;label=32;scalar=64";
    class       volScalarField;
    location    "0.3";
    object      p_rgh;
}
// * * * * * * * * * * * * * * * * * * * * * * * * * * * * * * * * * * * * * //

dimensions      [1 -1 -2 0 0 0 0];

internalField   nonuniform List<scalar> 
2268
(
1335.36
1340.03
1345.03
1345.36
1339.22
1328.74
1316.8
1305.03
1294.12
1284.56
1276.96
1272.1
1271.06
1275.23
1286.75
1306.87
1337.18
1376.72
1419.02
1449.36
1444.82
1419.25
1464.15
1334.41
1339.02
1344.02
1344.29
1338.11
1327.67
1315.81
1304.09
1293.18
1283.57
1275.88
1270.89
1269.64
1273.43
1283.4
1301.42
1329.01
1366.49
1409.9
1443.94
1446.54
1405.29
1464.82
1332.51
1337.05
1342.01
1342.16
1335.9
1325.55
1313.83
1302.2
1291.29
1281.59
1273.7
1268.44
1266.82
1270.06
1279.46
1296.46
1321.63
1354.45
1391.9
1425.21
1439.88
1430.87
1478.78
1329.76
1334.18
1339.04
1338.99
1332.64
1322.42
1310.9
1299.39
1288.47
1278.61
1270.43
1264.75
1262.59
1265.14
1273.64
1289.23
1312.29
1341.84
1374.57
1405.14
1429.48
1446.16
1504.33
1326.26
1330.51
1335.21
1334.87
1328.4
1318.34
1307.05
1295.68
1284.71
1274.61
1266.03
1259.8
1256.94
1258.61
1265.98
1280.01
1300.98
1328
1358.21
1387.42
1417.07
1449.46
1518.1
1322.01
1326.2
1330.59
1329.88
1323.28
1313.39
1302.35
1291.07
1279.99
1269.57
1260.47
1253.54
1249.81
1250.4
1256.44
1268.79
1287.71
1312.42
1340.71
1368.9
1399.13
1435.12
1501.62
1317.27
1321.21
1325.21
1324.04
1317.32
1307.64
1296.83
1285.61
1274.34
1263.48
1253.73
1245.94
1241.16
1240.5
1245.01
1255.52
1272.32
1294.75
1320.87
1347.32
1374.17
1402.97
1442.56
1312.1
1315.7
1319.07
1317.32
1310.52
1301.12
1290.57
1279.36
1267.82
1256.42
1245.88
1237.09
1231.08
1228.95
1231.72
1240.21
1254.76
1274.9
1298.42
1321.98
1341.93
1357.26
1331.69
44.0457
44.0543
44.0661
44.0792
44.0907
44.0981
44.0999
44.0954
44.0847
44.069
44.0495
44.0276
44.005
43.9831
43.963
43.9459
43.9325
43.9233
43.9186
44.0423
44.0518
44.0649
44.0791
44.0914
44.0993
44.1013
44.0968
44.0859
44.0696
44.0497
44.0274
44.0045
43.9822
43.9618
43.9445
43.9309
43.9216
43.9169
44.0354
44.0471
44.0625
44.0788
44.0927
44.1017
44.1042
44.0997
44.0885
44.0716
44.0507
44.0275
44.0036
43.9804
43.9592
43.9412
43.9271
43.9175
43.9126
44.0247
44.0398
44.0591
44.0786
44.0948
44.1054
44.1088
44.1043
44.0925
44.0745
44.0523
44.0277
44.0023
43.9777
43.9553
43.9362
43.9212
43.9109
43.9057
44.0094
44.0302
44.0547
44.0785
44.098
44.1106
44.1151
44.1107
44.0979
44.0785
44.0545
44.0278
44.0003
43.9739
43.9498
43.9293
43.9131
43.9019
43.8963
43.9854
44.0174
44.0494
44.0789
44.1025
44.1178
44.1235
44.119
44.105
44.0836
44.0571
44.0277
43.9977
43.9688
43.9426
43.9202
43.9025
43.8903
43.8841
43.9465
44.0006
44.0435
44.0802
44.1086
44.1271
44.1343
44.1296
44.1139
44.0898
44.0601
44.0275
43.9943
43.9624
43.9335
43.9088
43.8892
43.8758
43.869
43.9113
43.986
44.0375
44.0839
44.1175
44.1389
44.1477
44.1426
44.1247
44.0971
44.0635
44.0269
43.9898
43.9544
43.9223
43.8948
43.8731
43.8582
43.8506
1303.4
1306.4
1308.51
1305.84
1298.91
1289.84
1279.53
1268.18
1256.02
1243.57
1231.55
1220.89
1212.63
1207.85
1207.52
1212.42
1223.21
1239.95
1259.27
1277.17
1281.26
1256.54
1062.27
1290.13
1291.99
1292.14
1287.99
1280.62
1271.49
1260.83
1248.55
1234.84
1220.21
1205.42
1191.36
1179.23
1170.03
1164.69
1163.48
1165.61
1176.33
1188.12
1198.03
1190.14
1148.39
1025.59
1276.68
1276.3
1273.72
1267.97
1260.06
1250.53
1238.91
1225.15
1209.41
1192.14
1174.05
1155.98
1139.34
1124.54
1113.11
1108.26
1112.55
1115.25
1122.43
1134.77
1137.76
1114.9
1067.7
1264.14
1260.32
1254.49
1247.22
1238.43
1227.79
1214.18
1198.2
1179.65
1158.56
1135.4
1109.89
1081.28
1038.54
979.773
910.585
856.81
827.675
866.521
979.232
1064.86
1078.22
1075.57
1254.74
1246.59
1232.83
1223.37
1213.41
1200.74
1178.35
1142.09
1082.56
993.208
871.968
697.557
518.425
359.443
232.333
139.792
89.7174
68.6235
88.9452
152.494
284.697
492.91
816.016
1251.23
1038.42
921.293
900.239
847.117
753.475
605.458
452.42
302.701
170.755
53.9623
-0.320824
-0.735031
-0.848141
-0.883092
-0.888817
-0.88431
-0.869769
-0.897315
-0.834027
-0.38476
3.08265
49.8064
628.063
180.743
81.8733
70.677
39.1609
-0.444955
-0.791614
-0.86844
-0.860637
-0.833398
-0.784604
-0.783727
-0.866264
-0.943734
-1.00922
-1.05081
-1.06569
-1.06575
-1.09462
-1.11236
-1.01174
-0.498845
0.401325
-1.02794
-1.06397
-0.991102
-0.959949
-0.941267
-0.892691
-0.896642
-0.899117
-0.892022
-0.885238
-0.892074
-0.923751
-0.989287
-1.09856
-1.19153
-1.14429
-1.20307
-1.28165
-1.25584
-1.24365
-1.21216
-0.835975
0.658406
-1.03557
-1.03161
-1.00716
-0.992591
-0.981481
-0.965089
-0.958107
-0.956229
-0.958987
-0.974187
-1.01613
-1.08532
-1.18052
-1.26384
-0.852518
-0.863346
-1.05906
-1.60976
-1.47147
-1.38083
-0.895529
1.16803
1.37024
-1.06999
-1.0487
-1.04624
-1.04147
-1.03665
-1.0328
-1.03341
-1.03783
-1.0502
-1.08177
-1.14841
-1.2385
-1.1356
-0.618765
-0.955916
-1.15934
-1.72061
-1.87161
-1.58806
-1.27258
0.916619
1.19896
0.640306
-1.11042
-1.10176
-1.09719
-1.09566
-1.09587
-1.09946
-1.10716
-1.11923
-1.14104
-1.18422
-1.26355
-1.36732
-0.680564
-0.691689
-0.975715
-1.91656
-1.985
-1.84477
-0.980167
0.874209
0.914938
-0.81225
-2.2124
-1.14688
-1.14433
-1.14438
-1.14785
-1.15375
-1.16372
-1.17833
-1.19834
-1.22827
-1.27713
-1.35351
-1.45416
-1.42772
-0.647401
-0.80195
-0.862612
0.0752932
0.328934
0.430378
0.0664838
-1.74274
-2.09691
-2.23774
-1.18519
-1.18817
-1.1912
-1.1985
-1.20911
-1.22431
-1.24481
-1.27151
-1.30741
-1.35794
-1.42674
-1.5176
-1.62982
-1.43066
-1.03075
-0.690012
-0.964387
-0.790762
-1.70282
-1.94898
-2.02982
-2.14819
-2.28841
-1.22481
-1.23087
-1.23618
-1.24636
-1.26058
-1.27972
-1.30463
-1.33622
-1.37629
-1.42734
-1.4914
-1.56901
-1.66101
-1.76334
-1.84601
-1.62217
-1.92763
-1.93356
-1.95183
-2.00775
-2.10109
-2.22362
-2.3651
-1.26387
-1.27117
-1.27831
-1.2906
-1.30745
-1.32942
-1.35732
-1.39196
-1.43449
-1.48584
-1.54641
-1.61603
-1.69367
-1.77419
-1.84494
-1.90064
-1.93453
-1.96903
-2.01682
-2.09085
-2.19269
-2.31722
-2.46009
-1.30096
-1.30847
-1.317
-1.33078
-1.34949
-1.37343
-1.40326
-1.43962
-1.4833
-1.53465
-1.59348
-1.65896
-1.72943
-1.80093
-1.86739
-1.92649
-1.97788
-2.0319
-2.09772
-2.18263
-2.28996
-2.41828
-2.56552
-1.33483
-1.34214
-1.3517
-1.36656
-1.38659
-1.41194
-1.4431
-1.48054
-1.52481
-1.57616
-1.63413
-1.69791
-1.76578
-1.83492
-1.90252
-1.9673
-2.03117
-2.09953
-2.1791
-2.27513
-2.39047
-2.52499
-2.67819
-1.36468
-1.37172
-1.38201
-1.39767
-1.41866
-1.44507
-1.47724
-1.51555
-1.5604
-1.61195
-1.66988
-1.73333
-1.80087
-1.87073
-1.9416
-2.01331
-2.08774
-2.16873
-2.26079
-2.36763
-2.49173
-2.63416
-2.79528
-1.38998
-1.3968
-1.40759
-1.42386
-1.44557
-1.47281
-1.50583
-1.54494
-1.59047
-1.64255
-1.70098
-1.76505
-1.83373
-1.90595
-1.98122
-2.06003
-2.14407
-2.2361
-2.3394
-2.4569
-2.59092
-2.74319
-2.91497
-1.41036
-1.41703
-1.42816
-1.44489
-1.46718
-1.4951
-1.52885
-1.56873
-1.61504
-1.66792
-1.72725
-1.79256
-1.86318
-1.93857
-2.01872
-2.10437
-2.19709
-2.2991
-2.41292
-2.54104
-2.68581
-2.84943
-3.03418
-1.42553
-1.43211
-1.44348
-1.46058
-1.48333
-1.51183
-1.54624
-1.58686
-1.63399
-1.68781
-1.74831
-1.81521
-1.88815
-1.96696
-2.05196
-2.14407
-2.24476
-2.35589
-2.47957
-2.61811
-2.77399
-2.94993
-3.14896
-1.43528
-1.44182
-1.45337
-1.47076
-1.4939
-1.52287
-1.55787
-1.59917
-1.6471
-1.7019
-1.76365
-1.83225
-1.90757
-1.98973
-2.07928
-2.1773
-2.28521
-2.40466
-2.53754
-2.68609
-2.85301
-3.04153
-3.25524
-1.43948
-1.446
-1.45769
-1.4753
-1.49874
-1.5281
-1.56358
-1.60547
-1.65411
-1.70981
-1.77272
-1.84291
-1.92043
-2.00562
-2.09923
-2.20245
-2.31674
-2.44363
-2.58489
-2.74279
-2.92022
-3.1209
-3.3488
-1.43802
-1.44454
-1.45632
-1.47408
-1.49773
-1.52738
-1.56321
-1.60553
-1.65472
-1.71112
-1.77499
-1.8465
-1.92587
-2.0136
-2.1106
-2.21815
-2.33778
-2.47104
-2.61966
-2.78592
-2.97291
-3.1847
-3.42556
-1.43086
-1.43737
-1.44918
-1.46702
-1.49078
-1.52057
-1.55658
-1.59914
-1.64864
-1.70546
-1.76995
-1.84238
-1.92312
-2.01277
-2.11234
-2.22321
-2.34698
-2.48528
-2.63992
-2.81326
-3.00843
-3.22985
-3.482
-1.41798
-1.42445
-1.43624
-1.45406
-1.47781
-1.50759
-1.54359
-1.58614
-1.63563
-1.69251
-1.75717
-1.83002
-1.91153
-2.00237
-2.1036
-2.21666
-2.34319
-2.48496
-2.64399
-2.82274
-3.02434
-3.25347
-3.51484
-1.39939
-1.40579
-1.4175
-1.4352
-1.45878
-1.48837
-1.52414
-1.5664
-1.61554
-1.67204
-1.73636
-1.80901
-1.89057
-1.98178
-2.0837
-2.19773
-2.32554
-2.46905
-2.63055
-2.81263
-3.01851
-3.25294
-3.52097
-1.37516
-1.38146
-1.39299
-1.41045
-1.43372
-1.46292
-1.49821
-1.53988
-1.58829
-1.64394
-1.70734
-1.7791
-1.85991
-1.95057
-2.05212
-2.16584
-2.29339
-2.43684
-2.59869
-2.78166
-2.98916
-3.22605
-3.4976
-1.3454
-1.35155
-1.36282
-1.3799
-1.40269
-1.43128
-1.46583
-1.50659
-1.55388
-1.60818
-1.67006
-1.7402
-1.8194
-1.90852
-2.00854
-2.12065
-2.24638
-2.38787
-2.54778
-2.729
-2.93503
-3.17099
-3.44223
-1.31029
-1.31621
-1.32714
-1.34369
-1.3658
-1.39356
-1.4271
-1.46662
-1.51241
-1.5649
-1.62466
-1.69246
-1.76916
-1.85569
-1.953
-2.06211
-2.18441
-2.322
-2.47759
-2.65426
-2.85538
-3.08648
-3.3524
-1.27
-1.27564
-1.28612
-1.302
-1.32323
-1.34991
-1.38216
-1.42013
-1.46405
-1.51428
-1.5714
-1.63616
-1.70951
-1.79244
-1.88582
-1.99055
-2.10779
-2.2395
-2.38842
-2.55769
-2.74993
-2.97148
-3.22663
-1.2247
-1.22999
-1.23993
-1.25498
-1.27513
-1.30049
-1.33116
-1.36726
-1.40897
-1.45656
-1.51054
-1.57166
-1.64089
-1.71924
-1.80755
-1.90654
-2.01717
-2.14112
-2.28091
-2.43956
-2.62018
-2.82749
-3.06606
-1.17463
-1.1795
-1.18881
-1.20289
-1.22175
-1.24555
-1.27435
-1.30828
-1.34743
-1.39201
-1.44244
-1.49939
-1.56381
-1.63669
-1.71884
-1.81085
-1.9134
-2.02781
-2.15646
-2.30198
-2.4673
-2.65631
-2.87299
-1.12026
-1.12469
-1.13326
-1.14623
-1.16363
-1.18562
-1.21228
-1.24372
-1.28001
-1.32125
-1.36776
-1.42009
-1.47911
-1.54574
-1.62074
-1.70458
-1.79769
-1.90111
-2.01675
-2.1469
-2.29407
-2.4613
-2.65167
-1.06207
-1.06606
-1.07382
-1.08558
-1.10135
-1.12134
-1.14563
-1.17432
-1.20745
-1.24507
-1.28736
-1.33473
-1.38789
-1.44765
-1.51469
-1.58935
-1.67188
-1.763
-1.86417
-1.97726
-2.10418
-2.2471
-2.4081
-0.999885
-1.00345
-1.01034
-1.02081
-1.03484
-1.05267
-1.07439
-1.1001
-1.12983
-1.16357
-1.20139
-1.24353
-1.2905
-1.34296
-1.40146
-1.46622
-1.53735
-1.61528
-1.70107
-1.7961
-1.90162
-2.01892
-2.14908
-0.933096
-0.936261
-0.942234
-0.951352
-0.963551
-0.979074
-0.998024
-1.02052
-1.04659
-1.07617
-1.10922
-1.14584
-1.18631
-1.23111
-1.28063
-1.33502
-1.39424
-1.45852
-1.52853
-1.6052
-1.68916
-1.78086
-1.88036
-0.862766
-0.865579
-0.870611
-0.87834
-0.888635
-0.901744
-0.917777
-0.936853
-0.95899
-0.984103
-1.01206
-1.04281
-1.07646
-1.11327
-1.15349
-1.19717
-1.24419
-1.29457
-1.3487
-1.40707
-1.4698
-1.53662
-1.60677
-0.792508
-0.795082
-0.799186
-0.805566
-0.814011
-0.824737
-0.83785
-0.853452
-0.87155
-0.892042
-0.914737
-0.939462
-0.966169
-0.994951
-1.02592
-1.05902
-1.09404
-1.13078
-1.16933
-1.2098
-1.25184
-1.29461
-1.33686
-0.72424
-0.726706
-0.729986
-0.735146
-0.741903
-0.750404
-0.76073
-0.772945
-0.78704
-0.802907
-0.820346
-0.839145
-0.859164
-0.880384
-0.902743
-0.926107
-0.950121
-0.97438
-0.998601
-1.02249
-1.04529
-1.0657
-1.0822
-0.651616
-0.654047
-0.656646
-0.660632
-0.665738
-0.672022
-0.679508
-0.688205
-0.698084
-0.709064
-0.72101
-0.733748
-0.747114
-0.761037
-0.775173
-0.78931
-0.803005
-0.815718
-0.826845
-0.835694
-0.841253
-0.842132
-0.836676
-0.560968
-0.563793
-0.565582
-0.568108
-0.571166
-0.574756
-0.578828
-0.58332
-0.58818
-0.593358
-0.598811
-0.604444
-0.610107
-0.615516
-0.620275
-0.623973
-0.626147
-0.62624
-0.623487
-0.616946
-0.605616
-0.588486
-0.564286
531.606
44.1263
44.0551
44.1182
734.243
507.093
113.301
43.9865
918.864
794.406
728.779
332.128
1025.74
951.945
927.547
878.177
1087.89
1071.42
1054.7
1030.63
240.761
574.176
1046.53
1175.24
1.09046
5.02307
95.8985
280.739
0.934661
-1.43468
-2.91698
-2.88624
1.05988
-1.28935
-3.09133
-3.31778
-1.70237
-2.70316
-3.06106
-3.33352
-2.41808
-2.68593
-2.99889
-3.2925
-2.43321
-2.69719
-2.99739
-3.28449
-2.48024
-2.74176
-3.03244
-3.31929
-2.55674
-2.81613
-3.10763
-3.38795
-2.65304
-2.9133
-3.1982
-3.47965
-2.76317
-3.02896
-3.30987
-3.58247
-2.88461
-3.16154
-3.44782
-3.74487
-3.01444
-3.30722
-3.62662
-3.93315
-3.14946
-3.46378
-3.81852
-4.18151
-3.28647
-3.62862
-4.02134
-4.4746
-3.42111
-3.79486
-4.23253
-4.75862
-3.54817
-3.95576
-4.44272
-5.03951
-3.66232
-4.10381
-4.63921
-5.30949
-3.75825
-4.23024
-4.80866
-5.54486
-3.8312
-4.32832
-4.94093
-5.71733
-3.8774
-4.39481
-5.03284
-5.83322
-3.89366
-4.42774
-5.08555
-5.89736
-3.8768
-4.42411
-5.09643
-5.92785
-3.82317
-4.3794
-5.05824
-5.9215
-3.72694
-4.27844
-4.96765
-5.8643
-3.58745
-4.12249
-4.80351
-5.71766
-3.40404
-3.90743
-4.55667
-5.4537
-3.17936
-3.63512
-4.22599
-5.05455
-2.91923
-3.31389
-3.82232
-4.53012
-2.63204
-2.95708
-3.36827
-3.92573
-2.32723
-2.57947
-2.8891
-3.29207
-2.01323
-2.19436
-2.40662
-2.66788
-1.69692
-1.81257
-1.938
-2.07996
-1.38734
-1.4444
-1.49606
-1.54378
-1.09638
-1.10118
-1.09025
-1.0653
-0.820318
-0.781937
-0.720197
-0.639772
-0.52406
-0.456098
-0.364666
-0.257178
43.9195
43.9738
44.0284
44.0975
44.1372
44.1619
44.1731
44.1671
44.1448
44.1105
44.0694
44.0253
43.9811
43.9391
43.9011
43.8686
43.8429
43.8253
43.8163
43.6022
43.9509
44.022
44.1377
44.1687
44.2037
44.2235
44.2157
44.1825
44.1335
44.0775
44.0195
43.9626
43.9088
43.8601
43.8182
43.7851
43.7623
43.7507
74.3985
47.7517
44.3069
44.1735
44.1877
44.2445
44.2924
44.288
44.2334
44.1593
44.0819
44.0063
43.9336
43.8648
43.802
43.7477
43.7045
43.6746
43.6594
822.618
452.699
82.1056
63.7892
44.5035
44.4086
44.4134
44.3974
44.2995
44.1815
44.075
43.9791
43.8885
43.8017
43.7208
43.6499
43.5932
43.5536
43.5334
1027.03
1008.07
994.879
803.189
238.649
59.3915
45.3298
44.6697
44.3792
44.1821
44.0453
43.9297
43.8207
43.7129
43.6088
43.5156
43.4403
43.3876
43.3607
1163.43
1152.77
1156.91
1155.88
1126.22
730.246
141.483
46.1825
44.5567
44.1175
43.9671
43.8512
43.7245
43.5899
43.4547
43.3309
43.2302
43.1598
43.1239
618.817
1133.3
1286.88
1264.21
1254.06
1260.05
1025.95
265.247
46.6637
44.3415
43.866
43.7388
43.6021
43.4254
43.2424
43.0756
42.9401
42.846
42.7983
7.07112
42.9913
152.636
815.777
1368.14
1350.1
1334.48
1106.04
318.845
48.0345
44.3887
43.6769
43.441
43.2015
42.9447
42.7165
42.5359
42.4121
42.3501
-3.47554
-3.54805
-3.54137
6.2487
246.279
1211.21
1407.97
1373.51
1036.64
242.834
50.4925
44.6281
43.3717
42.8846
42.51
42.2007
41.9678
41.8117
41.7346
-3.47408
-3.56503
-3.64391
-3.74971
-3.87211
215.079
1217.41
1432.77
1398.28
776.863
109.207
49.3092
43.9237
42.4768
41.848
41.4433
41.1662
40.9858
40.8974
-3.46195
-3.5643
-3.65716
-3.7479
-3.81205
-3.74141
419.789
1387.29
1412.75
1264.97
398.698
57.9313
45.0828
41.8107
40.8074
40.3336
40.0504
39.8703
39.782
-3.459
-3.5627
-3.65627
-3.73733
-3.79107
-3.78022
-2.88301
974.737
1453.9
1383.2
758.534
105.67
46.5925
40.7713
39.2794
38.7909
38.5597
38.4165
38.3456
-3.4933
-3.59564
-3.68542
-3.77128
-3.83143
-3.91696
-3.83108
418.866
1415.52
1400.11
1072.44
193.758
47.9047
39.2184
37.2187
36.7996
36.6841
36.6152
36.5794
-3.55177
-3.5635
-3.58151
-3.78662
-3.90957
-3.98855
-4.09438
121.561
1221.1
1451.48
1169.1
251.837
47.2011
36.9446
34.7143
34.4496
34.4858
34.5114
34.5222
-3.52301
-3.57976
-3.68636
-3.80331
-3.96906
-4.10758
-4.1135
-3.46084
984.902
1447.71
1206.16
294.457
44.9045
34.1313
31.9605
31.8786
32.0733
32.1954
32.255
-3.80374
-3.96514
-4.11279
-4.12772
-4.3444
-4.3739
-4.23819
-3.76922
868.88
1425.8
1260.62
363.594
41.9617
30.9458
28.9884
29.2101
29.5588
29.7741
29.881
-4.01958
-4.21522
-4.32206
-4.38128
-4.57773
-4.674
-4.43158
40.0335
986.439
1404.35
1301.73
419.849
38.0455
27.2569
26.0218
26.5904
27.0659
27.3637
27.5108
-4.2644
-4.4957
-4.66852
-4.77822
-4.61254
-4.86404
-4.61565
335.305
1330.86
1397.1
1279.42
371.867
31.8094
23.6323
23.4567
24.2008
24.7245
25.0732
25.2447
-4.49141
-4.79023
-4.9618
-4.86305
-4.84733
-2.41981
182.507
1153.34
1350.14
1424.57
911.047
135.283
25.725
21.4896
21.6342
22.1191
22.6233
22.9794
23.1558
-4.74961
-5.06291
-5.2335
-5.09774
-2.34881
141.546
1006.39
1243.22
1300.37
878.18
237.085
50.3816
22.5559
20.4485
20.1243
20.3452
20.7855
21.1123
21.2784
-5.09177
-5.40765
-5.50464
-5.37583
50.9448
773.26
1116.58
1092.5
647.466
117.962
34.9147
35.2585
22.5595
19.1767
18.572
18.7811
19.1758
19.4609
19.6098
-5.5045
-5.83581
-5.96108
-5.58364
317.387
875.819
862.698
394.575
56.8953
28.9635
21.6951
19.6247
20.3353
17.4529
17.1121
17.4217
17.7615
17.9965
18.1235
-5.9679
-6.17767
-6.71742
-7.07411
413.796
821.256
293.421
48.2402
26.4483
19.1585
16.9436
16.1971
15.9717
16.0446
15.9533
16.2492
16.5094
16.6865
16.7815
-6.32542
-6.35467
-7.4436
-9.0251
436.203
772.405
146.569
25.6913
18.8746
16.0232
15.0826
14.9271
14.8223
14.9039
15.0364
15.2143
15.377
15.4924
15.5479
-6.53298
-6.63024
-7.62606
-8.56265
432.904
705.429
442.455
31.536
15.8789
14.8947
14.4585
14.2849
14.1899
14.1256
14.1882
14.2415
14.3108
14.3673
14.3917
-6.63763
-7.20763
-5.90764
-8.00178
332.692
686.92
664.315
71.7092
14.8233
14.4432
14.1444
13.8365
13.5825
13.3987
13.3122
13.2691
13.2623
13.2709
13.2758
-6.6908
-7.23598
-5.60591
-7.5661
120.789
667.744
668.702
615.754
26.7606
14.2761
13.8711
13.3636
12.89
12.5624
12.3612
12.2482
12.1917
12.1714
12.1666
-6.74957
-7.38334
-6.31193
-6.43466
-6.64902
631.494
686.851
694.859
386.195
19.5956
13.5954
12.6625
11.968
11.5344
11.2825
11.1398
11.0698
11.0456
11.0439
-6.82136
-7.53952
-8.03072
-0.733029
-5.75146
499.022
703.934
705.567
715.73
113.28
13.8798
11.6153
10.5814
10.2055
10.0146
9.91627
9.88228
9.8799
9.90966
-6.8664
-7.73255
-8.38498
-5.01148
-6.37603
159.682
715.551
715.36
725.906
696.956
88.5699
9.11435
8.27388
8.44376
8.50893
8.57052
8.63681
8.6738
8.78736
-6.79308
-7.80981
-8.85476
-8.56154
5.94696
1.77893
616.656
729.138
732.327
739.449
150.797
3.76085
5.37229
6.37432
6.85394
7.16857
7.38417
7.4823
7.6765
-6.54572
-7.63896
-8.88719
-10.2323
-6.28458
3.37045
113.455
672.074
740.222
494.662
94.1171
4.44348
3.52171
4.50999
5.32841
5.85555
6.19581
6.37531
6.61302
-6.06728
-7.10665
-8.4516
-10.2123
-12.3844
-2.69643
-0.17163
126.321
170.776
44.2116
21.4873
1.48715
1.99961
3.16136
4.13729
4.75523
5.15947
5.39346
5.62935
-5.36762
-6.21059
-7.34502
-8.91445
-11.0219
-6.85162
-6.22574
-15.795
-13.6668
-8.98661
-5.89604
-1.5974
0.962179
2.33518
3.28748
3.89609
4.30225
4.55552
4.75019
-4.55067
-5.15133
-5.93515
-6.99224
-8.33427
-7.59828
-8.18471
-10.5584
-10.1013
-6.9274
-3.92303
-1.08611
0.701054
1.89261
2.7016
3.2424
3.60871
3.84729
3.98059
-3.71597
-4.10301
-4.57993
-5.1712
-5.84095
-6.01787
-5.9945
-5.99295
-5.14575
-3.37344
-1.80919
-0.311123
0.819096
1.68598
2.30214
2.73931
3.04209
3.24016
3.31004
-2.9225
-3.14062
-3.38959
-3.664
-3.93241
-4.0671
-3.95062
-3.53556
-2.70146
-1.59808
-0.634184
0.230176
0.953006
1.54264
1.98937
2.32071
2.55518
2.70242
2.71998
-2.20452
-2.30163
-2.40055
-2.49065
-2.54793
-2.52151
-2.35103
-1.98454
-1.42518
-0.750924
-0.112174
0.45836
0.95107
1.36147
1.68457
1.92961
2.1042
2.20485
2.18708
-1.57497
-1.59193
-1.60124
-1.59447
-1.55495
-1.45897
-1.28178
-1.0069
-0.64632
-0.238684
0.163413
0.53282
0.859763
1.13824
1.36384
1.53866
1.66305
1.72702
1.68896
-1.03461
-1.00515
-0.970268
-0.92384
-0.855621
-0.756197
-0.615743
-0.429241
-0.204531
0.0389334
0.278446
0.50076
0.700231
0.873073
1.01723
1.13179
1.21332
1.25084
1.20515
-0.570872
-0.521085
-0.477917
-0.431248
-0.374713
-0.303974
-0.215873
-0.109588
0.0115114
0.13901
0.263476
0.37906
0.482773
0.573373
0.650866
0.714529
0.76086
0.780098
0.73031
-0.175485
-0.132315
-0.107999
-0.0829215
-0.0570177
-0.0297255
-0.00112122
0.0284263
0.0583985
0.0876192
0.115039
0.140559
0.163906
0.185094
0.203979
0.218877
0.227636
0.235514
0.226627
)
;

boundaryField
{
    leftWall
    {
        type            fixedFluxPressure;
        gradient        uniform 0;
        value           nonuniform List<scalar> 
50
(
1335.36
1334.41
1332.51
1329.76
1326.26
1322.01
1317.27
1312.1
1303.4
1290.13
1276.68
1264.14
1254.74
1251.23
628.063
-1.02794
-1.03557
-1.06999
-1.11042
-1.14688
-1.18519
-1.22481
-1.26387
-1.30096
-1.33483
-1.36468
-1.38998
-1.41036
-1.42553
-1.43528
-1.43948
-1.43802
-1.43086
-1.41798
-1.39939
-1.37516
-1.3454
-1.31029
-1.27
-1.2247
-1.17463
-1.12026
-1.06207
-0.999885
-0.933096
-0.862766
-0.792508
-0.72424
-0.651616
-0.560968
)
;
    }
    rightWall
    {
        type            fixedFluxPressure;
        gradient        uniform 0;
        value           nonuniform List<scalar> 
50
(
43.9186
43.9169
43.9126
43.9057
43.8963
43.8841
43.869
43.8506
43.8163
43.7507
43.6594
43.5334
43.3607
43.1239
42.7983
42.3501
41.7346
40.8974
39.782
38.3456
36.5794
34.5222
32.255
29.881
27.5108
25.2447
23.1558
21.2784
19.6098
18.1235
16.7815
15.5479
14.3917
13.2758
12.1666
11.0439
9.90966
8.78736
7.6765
6.61302
5.62935
4.75019
3.98059
3.31004
2.71998
2.18708
1.68896
1.20515
0.73031
0.226627
)
;
    }
    lowerWall
    {
        type            fixedFluxPressure;
        gradient        uniform 0;
        value           nonuniform List<scalar> 
62
(
1335.36
1340.03
1345.03
1345.36
1339.22
1328.74
1316.8
1305.03
1294.12
1284.56
1276.96
1272.1
1271.06
1275.23
1286.75
1306.87
1337.18
1376.72
1419.02
1449.36
1444.82
1419.25
1464.15
1464.15
1464.82
1478.78
1504.33
1518.1
1501.62
1442.56
1331.69
531.606
44.1263
44.0551
44.1182
44.0457
44.0423
44.0354
44.0247
44.0094
43.9854
43.9465
43.9113
44.0457
44.0543
44.0661
44.0792
44.0907
44.0981
44.0999
44.0954
44.0847
44.069
44.0495
44.0276
44.005
43.9831
43.963
43.9459
43.9325
43.9233
43.9186
)
;
    }
    atmosphere
    {
        type            totalPressure;
        rho             rho;
        psi             none;
        gamma           1;
        p0              uniform 0;
        value           nonuniform List<scalar> 
46
(
-0.49937
-0.50343
-0.504312
-0.505809
-0.507474
-0.509277
-0.511121
-0.512908
-0.51457
-0.516068
-0.517397
-0.518502
-0.519219
-0.519222
-0.518047
-0.515229
-0.51033
-0.502841
-0.492014
-0.476892
-0.456628
-0.430676
-0.39834
-0.349307
-0.275071
-0.185105
-0.0897079
-0.0255153
-0.000898156
0
0
0
0
0
0
0
0
0
0
0
0
0
0
0
0
0
)
;
    }
    defaultFaces
    {
        type            empty;
    }
}


// ************************************************************************* //
