/*--------------------------------*- C++ -*----------------------------------*\
| =========                 |                                                 |
| \\      /  F ield         | OpenFOAM: The Open Source CFD Toolbox           |
|  \\    /   O peration     | Version:  2206                                  |
|   \\  /    A nd           | Website:  www.openfoam.com                      |
|    \\/     M anipulation  |                                                 |
\*---------------------------------------------------------------------------*/
FoamFile
{
    version     2.0;
    format      ascii;
    arch        "LSB;label=32;scalar=64";
    class       surfaceScalarField;
    location    "0.3";
    object      phi;
}
// * * * * * * * * * * * * * * * * * * * * * * * * * * * * * * * * * * * * * //

dimensions      [0 3 -1 0 0 0 0];

oriented        oriented;

internalField   nonuniform List<scalar> 
4432
(
-9.46535e-07
9.46535e-07
2.68505e-06
-3.63158e-06
8.7577e-06
-6.07265e-06
1.52469e-05
-6.48921e-06
2.10685e-05
-5.82155e-06
2.59661e-05
-4.89767e-06
3.00886e-05
-4.12244e-06
3.36793e-05
-3.59071e-06
3.6931e-05
-3.25176e-06
3.99374e-05
-3.00633e-06
4.26942e-05
-2.7568e-06
4.512e-05
-2.4258e-06
4.70705e-05
-1.9505e-06
4.8327e-05
-1.25655e-06
4.84154e-05
-8.83976e-08
4.63923e-05
2.02312e-06
4.1068e-05
5.3243e-06
3.10473e-05
1.00207e-05
1.60646e-05
1.49828e-05
-1.33849e-06
1.74031e-05
-1.34466e-05
1.21081e-05
-1.61732e-05
2.7266e-06
-1.61732e-05
-8.6621e-07
1.81274e-06
2.83627e-06
-7.33407e-06
8.92901e-06
-1.21654e-05
1.53971e-05
-1.29573e-05
2.11887e-05
-1.16131e-05
2.6068e-05
-9.77703e-06
3.01944e-05
-8.24883e-06
3.38138e-05
-7.21014e-06
3.71137e-05
-6.55158e-06
4.018e-05
-6.07267e-06
4.30033e-05
-5.58015e-06
4.5501e-05
-4.92344e-06
4.75376e-05
-3.98712e-06
4.89406e-05
-2.65953e-06
4.97176e-05
-8.65439e-07
5.00121e-05
1.72859e-06
4.96413e-05
5.69517e-06
4.7269e-05
1.2393e-05
3.98782e-05
2.23735e-05
2.47911e-05
3.24901e-05
4.61967e-06
3.22795e-05
-4.78396e-06
1.21302e-05
-2.09572e-05
-6.99031e-07
2.51177e-06
3.08128e-06
-1.11144e-05
9.16935e-06
-1.82535e-05
1.55445e-05
-1.93324e-05
2.12175e-05
-1.72861e-05
2.60046e-05
-1.45641e-05
3.00893e-05
-1.23335e-05
3.37192e-05
-1.084e-05
3.70689e-05
-9.90131e-06
4.02085e-05
-9.21227e-06
4.31171e-05
-8.48877e-06
4.57083e-05
-7.51458e-06
4.78528e-05
-6.13165e-06
4.9398e-05
-4.20471e-06
5.01316e-05
-1.59912e-06
4.99316e-05
1.9286e-06
4.89205e-05
6.70627e-06
4.77936e-05
1.352e-05
4.64181e-05
2.3749e-05
4.15599e-05
3.73483e-05
2.89873e-05
4.48521e-05
1.23941e-05
2.87234e-05
-8.56301e-06
-4.51351e-07
2.96313e-06
3.4406e-06
-1.50063e-05
9.50925e-06
-2.43221e-05
1.57452e-05
-2.55684e-05
2.12494e-05
-2.27903e-05
2.59137e-05
-1.92284e-05
2.99538e-05
-1.63736e-05
3.36136e-05
-1.44997e-05
3.70459e-05
-1.33337e-05
4.02976e-05
-1.24639e-05
4.33322e-05
-1.15233e-05
4.60583e-05
-1.02407e-05
4.835e-05
-8.42331e-06
5.00592e-05
-5.914e-06
5.1015e-05
-2.55483e-06
5.10627e-05
1.88082e-06
5.00871e-05
7.68187e-06
4.84038e-05
1.52033e-05
4.72599e-05
2.4893e-05
4.66206e-05
3.79876e-05
4.07544e-05
5.07183e-05
2.39951e-05
4.54827e-05
1.5432e-05
-1.10326e-07
3.07345e-06
3.89046e-06
-1.90071e-05
9.9115e-06
-3.03431e-05
1.5961e-05
-3.16179e-05
2.1255e-05
-2.80843e-05
2.57778e-05
-2.37512e-05
2.97789e-05
-2.03747e-05
3.34903e-05
-1.82111e-05
3.70342e-05
-1.68776e-05
4.0428e-05
-1.58577e-05
4.36175e-05
-1.47129e-05
4.65067e-05
-1.31299e-05
4.89748e-05
-1.08914e-05
5.08866e-05
-7.8258e-06
5.20972e-05
-3.76545e-06
5.24819e-05
1.49608e-06
5.19496e-05
8.21422e-06
5.04766e-05
1.66763e-05
4.84977e-05
2.68718e-05
4.73517e-05
3.91337e-05
4.41213e-05
5.39487e-05
2.95889e-05
6.00152e-05
4.50209e-05
2.12649e-07
2.8608e-06
4.40362e-06
-2.31981e-05
1.03502e-05
-3.62897e-05
1.61692e-05
-3.74369e-05
2.12239e-05
-3.3139e-05
2.56012e-05
-2.81285e-05
2.95791e-05
-2.43526e-05
3.33666e-05
-2.19986e-05
3.70467e-05
-2.05577e-05
4.06042e-05
-1.94152e-05
4.39676e-05
-1.80763e-05
4.7038e-05
-1.62002e-05
4.97027e-05
-1.35561e-05
5.18409e-05
-9.96394e-06
5.33269e-05
-5.25147e-06
5.40537e-05
7.6927e-07
5.39427e-05
8.32526e-06
5.29653e-05
1.76537e-05
5.09318e-05
2.89053e-05
4.84285e-05
4.16369e-05
4.48258e-05
5.75514e-05
3.19989e-05
7.28421e-05
7.70198e-05
5.89835e-07
2.27097e-06
4.97054e-06
-2.75788e-05
1.08083e-05
-4.21275e-05
1.63587e-05
-4.29873e-05
2.11601e-05
-3.79404e-05
2.54032e-05
-3.23716e-05
2.93826e-05
-2.8332e-05
3.32721e-05
-2.58882e-05
3.71093e-05
-2.43948e-05
4.08459e-05
-2.31519e-05
4.43965e-05
-2.16269e-05
4.76637e-05
-1.94675e-05
5.05452e-05
-1.64376e-05
5.29317e-05
-1.23504e-05
5.47107e-05
-7.03048e-06
5.57787e-05
-2.9872e-07
5.60637e-05
8.04025e-06
5.55464e-05
1.81709e-05
5.39775e-05
3.04742e-05
5.1034e-05
4.45805e-05
4.6405e-05
6.21804e-05
3.53823e-05
8.38648e-05
0.000112402
1.01447e-06
1.2565e-06
5.57309e-06
-3.21374e-05
1.12675e-05
-4.78219e-05
1.65317e-05
-4.82516e-05
2.10902e-05
-4.24988e-05
2.52274e-05
-3.65089e-05
2.92398e-05
-3.23444e-05
3.32566e-05
-2.9905e-05
3.72681e-05
-2.84063e-05
4.11969e-05
-2.70807e-05
4.49501e-05
-2.53801e-05
4.84363e-05
-2.29537e-05
5.15616e-05
-1.95628e-05
5.42216e-05
-1.50105e-05
5.63065e-05
-9.11538e-06
5.77176e-05
-1.70982e-06
5.8379e-05
7.37886e-06
5.82845e-05
1.82654e-05
5.7288e-05
3.14707e-05
5.48523e-05
4.70162e-05
4.98317e-05
6.7201e-05
3.91889e-05
9.45076e-05
0.000151591
4.12704e-06
-4.12704e-06
8.32154e-06
-4.19451e-06
1.14233e-05
-3.10175e-06
1.38836e-05
-2.46032e-06
1.59956e-05
-2.11189e-06
1.7831e-05
-1.83538e-06
1.93696e-05
-1.53852e-06
2.05166e-05
-1.14698e-06
2.11338e-05
-6.17275e-07
2.11293e-05
4.38227e-09
2.04918e-05
6.37485e-07
1.92839e-05
1.20784e-06
1.75581e-05
1.72571e-06
1.53709e-05
2.1871e-06
1.2789e-05
2.58211e-06
9.87923e-06
2.90948e-06
6.71858e-06
3.16086e-06
3.40198e-06
3.31657e-06
3.40187e-06
3.25884e-06
-7.38598e-06
7.31155e-06
-8.24719e-06
1.06606e-05
-6.45066e-06
1.36106e-05
-5.41028e-06
1.6224e-05
-4.72515e-06
1.84397e-05
-4.05103e-06
2.02296e-05
-3.3285e-06
2.15597e-05
-2.47719e-06
2.23943e-05
-1.45192e-06
2.27072e-05
-3.08606e-07
2.24529e-05
8.91656e-07
2.15432e-05
2.11747e-06
1.99651e-05
3.30392e-06
1.77492e-05
4.40265e-06
1.49557e-05
5.376e-06
1.16699e-05
6.19494e-06
7.99502e-06
6.83583e-06
4.05961e-06
7.25224e-06
7.46138e-06
3.60533e-06
-1.09913e-05
7.83703e-06
-1.24789e-05
1.11897e-05
-9.80317e-06
1.40351e-05
-8.25562e-06
1.65169e-05
-7.20695e-06
1.8658e-05
-6.1921e-06
2.04431e-05
-5.11364e-06
2.17948e-05
-3.82902e-06
2.26178e-05
-2.27476e-06
2.28554e-05
-5.46317e-07
2.24769e-05
1.27011e-06
2.14688e-05
3.12549e-06
1.98336e-05
4.93932e-06
1.75967e-05
6.63918e-06
1.48104e-05
8.16257e-06
1.15487e-05
9.45638e-06
7.90805e-06
1.04764e-05
4.01309e-06
1.11473e-05
1.14743e-05
3.88631e-06
-1.48776e-05
8.14353e-06
-1.6736e-05
1.14757e-05
-1.31352e-05
1.42991e-05
-1.1079e-05
1.6756e-05
-9.66383e-06
1.89164e-05
-8.35248e-06
2.07619e-05
-6.95916e-06
2.21751e-05
-5.2423e-06
2.30435e-05
-3.143e-06
2.32949e-05
-7.97712e-07
2.28972e-05
1.6678e-06
2.18436e-05
4.17897e-06
2.01461e-05
6.63713e-06
1.78415e-05
8.94334e-06
1.49904e-05
1.10137e-05
1.16711e-05
1.27756e-05
7.98411e-06
1.41633e-05
4.04803e-06
1.50834e-05
1.55222e-05
3.96126e-06
-1.88388e-05
8.27146e-06
-2.10462e-05
1.16526e-05
-1.65163e-05
1.45002e-05
-1.39266e-05
1.69957e-05
-1.21594e-05
1.92397e-05
-1.05965e-05
2.11892e-05
-8.90867e-06
2.26968e-05
-6.7498e-06
2.36353e-05
-4.08139e-06
2.39292e-05
-1.09155e-06
2.35487e-05
2.04826e-06
2.24803e-05
5.24724e-06
2.07411e-05
8.37646e-06
1.83705e-05
1.13136e-05
1.54326e-05
1.39517e-05
1.20153e-05
1.61928e-05
8.21733e-06
1.79612e-05
4.16464e-06
1.91362e-05
1.96868e-05
3.83571e-06
-2.26745e-05
8.54263e-06
-2.57531e-05
1.19284e-05
-1.99021e-05
1.46247e-05
-1.66229e-05
1.7146e-05
-1.46807e-05
1.95663e-05
-1.30169e-05
2.16985e-05
-1.10408e-05
2.3346e-05
-8.3973e-06
2.43833e-05
-5.11867e-06
2.47361e-05
-1.44431e-06
2.43806e-05
2.40372e-06
2.33011e-05
6.32657e-06
2.15164e-05
1.01614e-05
1.90685e-05
1.37613e-05
1.60287e-05
1.69917e-05
1.24831e-05
1.97384e-05
8.53865e-06
2.19056e-05
4.32681e-06
2.33482e-05
2.40137e-05
4.51047e-06
-2.7185e-05
9.75061e-06
-3.09933e-05
1.25892e-05
-2.27407e-05
1.48113e-05
-1.88451e-05
1.72942e-05
-1.71637e-05
1.9938e-05
-1.56607e-05
2.23108e-05
-1.34135e-05
2.41377e-05
-1.02242e-05
2.52954e-05
-6.27634e-06
2.57192e-05
-1.86811e-06
2.53918e-05
2.73115e-06
2.42996e-05
7.41862e-06
2.24605e-05
1.20006e-05
1.99228e-05
1.62992e-05
1.67561e-05
2.01585e-05
1.30551e-05
2.34395e-05
8.93209e-06
2.60285e-05
4.52596e-06
2.77543e-05
2.85396e-05
9.19264e-06
-3.63776e-05
1.21681e-05
-3.39688e-05
1.31783e-05
-2.3751e-05
1.50757e-05
-2.07425e-05
1.76639e-05
-1.97519e-05
2.05128e-05
-1.85096e-05
2.31186e-05
-1.60193e-05
2.51375e-05
-1.22432e-05
2.64258e-05
-7.56478e-06
2.69186e-05
-2.36098e-06
2.66103e-05
3.03952e-06
2.54914e-05
8.53751e-06
2.35857e-05
1.39066e-05
2.09365e-05
1.89483e-05
1.7619e-05
2.34761e-05
1.37326e-05
2.7326e-05
9.39748e-06
3.03636e-05
4.76038e-06
3.23914e-05
3.32999e-05
3.57266e-06
-2.31616e-06
1.3819e-05
-4.23838e-05
2.54845e-05
-5.94873e-05
3.57636e-05
-5.85307e-05
4.4757e-05
-5.14922e-05
5.33672e-05
-4.51191e-05
6.2146e-05
-4.11233e-05
7.11791e-05
-3.8938e-05
8.03022e-05
-3.75294e-05
8.9288e-05
-3.60665e-05
9.79427e-05
-3.40348e-05
0.000106099
-3.11102e-05
0.000113578
-2.70413e-05
0.000120178
-2.16112e-05
0.00012572
-1.46572e-05
0.000130014
-6.00367e-06
0.000132818
4.57467e-06
0.000134175
1.69082e-05
0.000133977
3.16692e-05
0.000132112
4.88814e-05
0.000128825
7.04877e-05
0.000130178
9.31549e-05
0.000141746
0.000140023
5.65564e-06
-7.9718e-06
1.658e-05
-5.33082e-05
2.73897e-05
-7.0297e-05
3.64499e-05
-6.75909e-05
4.47211e-05
-5.97634e-05
5.32966e-05
-5.36946e-05
6.25067e-05
-5.03334e-05
7.21643e-05
-4.85957e-05
8.19467e-05
-4.73117e-05
9.15908e-05
-4.57107e-05
0.000100944
-4.33877e-05
0.000109885
-4.0051e-05
0.000118311
-3.54679e-05
0.000126108
-2.94078e-05
0.00013325
-2.17997e-05
0.00013991
-1.26637e-05
0.000145273
-7.87978e-07
0.000149871
1.23096e-05
0.000153098
2.84432e-05
0.000156171
4.58083e-05
0.000161928
6.47304e-05
0.000174076
8.10069e-05
0.000114385
0.000201437
8.06449e-06
-1.60363e-05
1.93682e-05
-6.46118e-05
2.88436e-05
-7.97725e-05
3.658e-05
-7.53272e-05
4.43212e-05
-6.75046e-05
5.29994e-05
-6.23729e-05
6.25144e-05
-5.98483e-05
7.24206e-05
-5.85019e-05
8.23552e-05
-5.72463e-05
9.21342e-05
-5.54896e-05
0.000101726
-5.29794e-05
0.000111122
-4.94476e-05
0.000120503
-4.4848e-05
0.000129951
-3.88563e-05
0.0001392
-3.1049e-05
0.000147587
-2.10504e-05
0.000156222
-9.42313e-06
0.000164309
4.22237e-06
0.000169566
2.31863e-05
0.000175249
4.01259e-05
0.000183462
5.65168e-05
0.000194021
7.04478e-05
8.87513e-05
0.000219655
1.12664e-05
-2.73027e-05
2.2541e-05
-7.58864e-05
2.97503e-05
-8.69818e-05
3.58224e-05
-8.13994e-05
4.31371e-05
-7.48193e-05
5.19524e-05
-7.11881e-05
6.15956e-05
-6.94915e-05
7.15773e-05
-6.84836e-05
8.17247e-05
-6.73936e-05
9.21111e-05
-6.58761e-05
0.000103056
-6.39245e-05
0.000114522
-6.09132e-05
0.000126769
-5.7095e-05
0.000140372
-5.2459e-05
0.000155232
-4.59088e-05
0.000169792
-3.56105e-05
0.000181698
-2.13298e-05
0.000188156
-2.23531e-06
0.000190503
2.08396e-05
0.000192611
3.80173e-05
0.000197352
5.17761e-05
0.000204684
6.31156e-05
7.2353e-05
0.000221083
1.63534e-05
-4.36561e-05
2.79235e-05
-8.74565e-05
3.10502e-05
-9.01085e-05
3.49093e-05
-8.52585e-05
4.23004e-05
-8.22104e-05
5.20508e-05
-8.09385e-05
6.2772e-05
-8.02128e-05
7.42035e-05
-7.99151e-05
8.66022e-05
-7.97924e-05
0.000100696
-7.99702e-05
0.000117704
-8.09317e-05
0.000135356
-7.85658e-05
0.000154134
-7.58728e-05
0.000175012
-7.33373e-05
0.000196503
-6.73996e-05
0.000214681
-5.37886e-05
0.000226566
-3.32143e-05
0.00022354
7.90366e-07
0.000214781
2.95986e-05
0.000207124
4.56747e-05
0.000204579
5.43203e-05
0.000206617
6.10782e-05
6.1882e-05
0.000217088
2.47544e-05
-6.84105e-05
3.67274e-05
-9.94295e-05
3.43515e-05
-8.77325e-05
3.65792e-05
-8.74863e-05
4.56264e-05
-9.12576e-05
5.80492e-05
-9.33612e-05
7.14051e-05
-9.35687e-05
8.64958e-05
-9.50057e-05
0.00010469
-9.79863e-05
0.000128086
-0.000103367
0.000156038
-0.000108884
0.000179003
-0.000101531
0.00020544
-0.000102309
0.000227247
-9.51445e-05
0.000242193
-8.23457e-05
0.000249882
-6.14773e-05
0.000249712
-3.30449e-05
0.000245042
5.46042e-06
0.000237011
3.76295e-05
0.000224946
5.77396e-05
0.000212343
6.69238e-05
0.000200873
7.25485e-05
6.06818e-05
0.000202073
3.23188e-05
-0.000100729
4.25581e-05
-0.000109669
4.16713e-05
-8.68458e-05
4.50394e-05
-9.08543e-05
5.67157e-05
-0.000102934
6.88084e-05
-0.000105454
8.14303e-05
-0.000106191
9.48756e-05
-0.000108451
0.000111428
-0.000114539
0.000130712
-0.00012265
0.000151127
-0.0001293
0.000180196
-0.0001306
0.000205595
-0.000127708
0.000228538
-0.000118087
0.000245429
-9.92365e-05
0.000252646
-6.86946e-05
0.000246173
-2.65719e-05
0.000229693
2.19404e-05
0.000201404
6.59182e-05
0.000172094
8.70499e-05
0.000164777
7.4241e-05
0.000184046
5.32796e-05
3.74001e-05
0.000207328
1.06077e-05
-0.000111337
1.88278e-05
-0.000117889
3.36259e-05
-0.000101644
4.18218e-05
-9.90502e-05
4.642e-05
-0.000107532
5.42502e-05
-0.000113284
6.51291e-05
-0.000117069
7.94475e-05
-0.000122769
9.78555e-05
-0.000132947
0.000120771
-0.000145565
0.00014562
-0.000154148
0.000171993
-0.000156973
0.000200439
-0.000156154
0.000227752
-0.0001454
0.000248438
-0.000119922
0.000259034
-7.92908e-05
0.000254855
-2.23923e-05
0.000230638
4.61566e-05
0.00019965
9.69068e-05
0.000185701
0.000100999
0.000203431
5.65108e-05
0.000243284
1.34271e-05
-6.80272e-06
0.000287487
-6.35139e-06
-0.000104986
-6.81992e-07
-0.000123558
1.51334e-05
-0.000117459
2.95994e-05
-0.000113516
3.85433e-05
-0.000116476
4.64684e-05
-0.000121209
5.60016e-05
-0.000126603
6.85477e-05
-0.000135315
8.50049e-05
-0.000149404
0.000104964
-0.000165524
0.000126542
-0.000175726
0.00014804
-0.00017847
0.000172361
-0.000180476
0.000196702
-0.000169741
0.000214614
-0.000137834
0.000224772
-8.94493e-05
0.000226321
-2.3941e-05
0.000216569
5.59084e-05
0.000210774
0.000102703
0.000226951
8.48215e-05
0.000253934
2.95275e-05
0.000276614
-9.2528e-06
-2.48276e-05
0.000294639
-2.94597e-06
-0.00010204
7.05667e-06
-0.000133561
1.61503e-05
-0.000126553
2.52676e-05
-0.000122634
3.30852e-05
-0.000124293
4.00679e-05
-0.000128192
4.73995e-05
-0.000133934
5.62597e-05
-0.000144176
6.72338e-05
-0.000160378
7.98217e-05
-0.000178112
9.34884e-05
-0.000189393
0.000105342
-0.000190324
0.000120339
-0.000195473
0.000132783
-0.000182185
0.000140239
-0.00014529
0.000145124
-9.4334e-05
0.000146138
-2.49554e-05
0.000155503
4.65435e-05
0.000184232
7.39741e-05
0.000221993
4.70606e-05
0.000246209
5.31109e-06
0.000256148
-1.91918e-05
-3.17533e-05
0.000263074
4.89509e-06
-0.000106935
1.04168e-05
-0.000139083
1.54984e-05
-0.000131634
2.17491e-05
-0.000128884
2.79943e-05
-0.000130539
3.34538e-05
-0.000133651
3.82569e-05
-0.000138737
4.27089e-05
-0.000148628
4.68016e-05
-0.000164471
5.04071e-05
-0.000181718
5.41574e-05
-0.000193143
5.59623e-05
-0.000192129
5.37101e-05
-0.00019322
5.00462e-05
-0.000178521
4.44872e-05
-0.000139731
4.19318e-05
-9.17786e-05
5.3382e-05
-3.64054e-05
9.22577e-05
7.66792e-06
0.000147933
1.82989e-05
0.000190143
4.85088e-06
0.000209587
-1.41337e-05
0.000217994
-2.7598e-05
-3.82477e-05
0.000224488
7.23055e-06
-0.000114165
1.04197e-05
-0.000142272
1.41287e-05
-0.000135343
1.92909e-05
-0.000134047
2.43192e-05
-0.000135567
2.84219e-05
-0.000137754
3.11089e-05
-0.000141424
3.17751e-05
-0.000149294
2.99462e-05
-0.000162642
2.57895e-05
-0.000177561
2.01174e-05
-0.000187471
1.3282e-05
-0.000185293
3.74294e-07
-0.000180313
-8.54765e-06
-0.000169599
-8.64231e-06
-0.000139636
5.87949e-06
-0.0001063
3.75056e-05
-6.80315e-05
8.107e-05
-3.58965e-05
0.000119129
-1.97605e-05
0.000145124
-2.11437e-05
0.000161024
-3.00331e-05
0.000176873
-4.3447e-05
-5.83289e-05
0.000196954
7.42461e-06
-0.00012159
9.78065e-06
-0.000144628
1.33242e-05
-0.000138887
1.77561e-05
-0.000138478
2.18894e-05
-0.0001397
2.52297e-05
-0.000141095
2.70251e-05
-0.00014322
2.61327e-05
-0.000148402
2.16878e-05
-0.000158197
1.39232e-05
-0.000169797
4.19883e-06
-0.000177747
-4.32434e-06
-0.00017677
-1.42432e-05
-0.000170394
-2.18826e-05
-0.000161959
-1.66082e-05
-0.00014491
-3.42642e-07
-0.000122566
2.18117e-05
-9.01858e-05
5.01074e-05
-6.41921e-05
7.95018e-05
-4.91549e-05
0.000107947
-4.95891e-05
0.000135948
-5.80338e-05
0.000162146
-6.96445e-05
-8.27902e-05
0.000186607
6.89947e-06
-0.000128489
9.06808e-06
-0.000146797
1.25648e-05
-0.000142384
1.65129e-05
-0.000142427
2.02286e-05
-0.000143416
2.34954e-05
-0.000144361
2.57299e-05
-0.000145454
2.56919e-05
-0.000148364
2.21907e-05
-0.000154696
1.52831e-05
-0.000162889
6.65653e-06
-0.00016912
8.20183e-08
-0.000170196
-4.58918e-06
-0.000165723
-8.93347e-06
-0.000157615
-9.36371e-06
-0.00014448
-2.46169e-06
-0.000129468
1.55663e-05
-0.000108214
4.28085e-05
-9.14343e-05
7.5442e-05
-8.17883e-05
0.000106077
-8.02239e-05
0.000132906
-8.48625e-05
0.000156623
-9.33617e-05
-0.000104161
0.000177994
6.0296e-06
-0.000134519
8.38779e-06
-0.000149155
1.18491e-05
-0.000145845
1.55167e-05
-0.000146094
1.90727e-05
-0.000146972
2.25127e-05
-0.000147801
2.56131e-05
-0.000148555
2.73883e-05
-0.000150139
2.6589e-05
-0.000153897
2.30995e-05
-0.0001594
1.81648e-05
-0.000164185
1.38204e-05
-0.000165851
1.13515e-05
-0.000163254
1.08482e-05
-0.000157112
1.40872e-05
-0.000147719
2.15739e-05
-0.000136955
3.73108e-05
-0.000123951
5.87793e-05
-0.000112903
8.28185e-05
-0.000105827
0.000106769
-0.000104175
0.000129197
-0.00010729
0.000150295
-0.00011446
-0.000123926
0.00017006
5.20584e-06
-0.000139725
7.78994e-06
-0.000151739
1.11834e-05
-0.000149238
1.46648e-05
-0.000149576
1.80889e-05
-0.000150396
2.15497e-05
-0.000151262
2.50785e-05
-0.000152083
2.81378e-05
-0.000153198
2.97456e-05
-0.000155505
2.94393e-05
-0.000159093
2.77781e-05
-0.000162524
2.58669e-05
-0.00016394
2.50395e-05
-0.000162427
2.61821e-05
-0.000158255
3.04484e-05
-0.000151986
3.77478e-05
-0.000144254
4.96782e-05
-0.000135881
6.56793e-05
-0.000128904
8.47649e-05
-0.000124913
0.000105137
-0.000124548
0.000125458
-0.00012761
0.000144918
-0.00013392
-0.000142719
0.000163711
4.54761e-06
-0.000144272
7.26777e-06
-0.000154459
1.05422e-05
-0.000152513
1.38562e-05
-0.00015289
1.71168e-05
-0.000153657
2.04013e-05
-0.000154547
2.38171e-05
-0.000155499
2.72073e-05
-0.000156588
2.99036e-05
-0.000158201
3.13065e-05
-0.000160496
3.15421e-05
-0.00016276
3.13945e-05
-0.000163793
3.18694e-05
-0.000162902
3.37244e-05
-0.00016011
3.77898e-05
-0.000156051
4.48195e-05
-0.000151284
5.54969e-05
-0.000146559
6.95161e-05
-0.000142923
8.59141e-05
-0.000141311
0.000103531
-0.000142165
0.000121621
-0.0001457
0.000139482
-0.000151781
-0.000160519
0.000157282
4.03856e-06
-0.000148311
6.79976e-06
-0.00015722
9.93433e-06
-0.000155648
1.30864e-05
-0.000156042
1.61829e-05
-0.000156753
1.92488e-05
-0.000157612
2.23548e-05
-0.000158605
2.5489e-05
-0.000159722
2.83224e-05
-0.000161035
3.04107e-05
-0.000162585
3.17441e-05
-0.000164093
3.28535e-05
-0.000164902
3.45037e-05
-0.000164552
3.74654e-05
-0.000163071
4.23241e-05
-0.00016091
4.95713e-05
-0.000158531
5.94168e-05
-0.000156404
7.16279e-05
-0.000155134
8.56301e-05
-0.000155313
0.000100885
-0.00015742
0.000116964
-0.000161778
0.000133475
-0.000168292
-0.000177081
0.000150037
3.64397e-06
-0.000151955
6.37379e-06
-0.00015995
9.36289e-06
-0.000158637
1.23583e-05
-0.000159037
1.53127e-05
-0.000159708
1.82167e-05
-0.000160516
2.10796e-05
-0.000161468
2.39154e-05
-0.000162558
2.66307e-05
-0.00016375
2.90513e-05
-0.000165005
3.11495e-05
-0.000166192
3.32661e-05
-0.000167019
3.59495e-05
-0.000167235
3.97564e-05
-0.000166878
4.50699e-05
-0.000166223
5.21263e-05
-0.000165588
6.10304e-05
-0.000165309
7.16867e-05
-0.000165791
8.38547e-05
-0.000167482
9.72436e-05
-0.000170809
0.00011156
-0.000176094
0.00012662
-0.000183353
-0.000192449
0.000141987
3.33075e-06
-0.000155286
5.98146e-06
-0.000162601
8.82391e-06
-0.000161479
1.16708e-05
-0.000161884
1.44917e-05
-0.000162528
1.72788e-05
-0.000163303
2.00246e-05
-0.000164214
2.27225e-05
-0.000165256
2.53771e-05
-0.000166405
2.79729e-05
-0.000167601
3.0546e-05
-0.000168765
3.3302e-05
-0.000169775
3.65899e-05
-0.000170523
4.07655e-05
-0.000171054
4.6085e-05
-0.000171543
5.27162e-05
-0.000172219
6.0744e-05
-0.000173336
7.0154e-05
-0.000175201
8.08296e-05
-0.000178157
9.26e-05
-0.00018258
0.000105306
-0.0001888
0.000118833
-0.00019688
-0.000206658
0.000133042
3.07302e-06
-0.000158359
5.61174e-06
-0.00016514
8.30707e-06
-0.000164175
1.10075e-05
-0.000164584
1.36955e-05
-0.000165216
1.63733e-05
-0.000165981
1.90387e-05
-0.000166879
2.16905e-05
-0.000167908
2.43412e-05
-0.000169055
2.70268e-05
-0.000170287
2.98179e-05
-0.000171556
3.28577e-05
-0.000172814
3.63739e-05
-0.000174039
4.0597e-05
-0.000175277
4.57015e-05
-0.000176648
5.18136e-05
-0.000178331
5.90167e-05
-0.00018054
6.73269e-05
-0.000183511
7.66829e-05
-0.000187513
8.69864e-05
-0.000192883
9.81536e-05
-0.000199968
0.000110134
-0.00020886
-0.000219444
0.00012292
2.84891e-06
-0.000161208
5.25633e-06
-0.000167547
7.80214e-06
-0.00016672
1.03542e-05
-0.000167136
1.29028e-05
-0.000167765
1.54565e-05
-0.000168535
1.80233e-05
-0.000169446
2.06108e-05
-0.000170496
2.32343e-05
-0.000171679
2.59334e-05
-0.000172986
2.8779e-05
-0.000174401
3.18812e-05
-0.000175917
3.53868e-05
-0.000177545
3.94498e-05
-0.00017934
4.4204e-05
-0.000181402
4.97521e-05
-0.000183879
5.61574e-05
-0.000186945
6.34357e-05
-0.000190789
7.15597e-05
-0.000195637
8.04778e-05
-0.000201801
9.01434e-05
-0.000209633
0.00010055
-0.000219267
-0.000230596
0.000111702
2.64433e-06
-0.000163852
4.90982e-06
-0.000169813
7.30208e-06
-0.000169113
9.7024e-06
-0.000169537
1.21049e-05
-0.000170168
1.45194e-05
-0.000170949
1.69577e-05
-0.000171885
1.94354e-05
-0.000172973
2.19736e-05
-0.000174217
2.46065e-05
-0.000175619
2.73899e-05
-0.000177185
3.04048e-05
-0.000178931
3.3753e-05
-0.000180893
3.7542e-05
-0.000183129
4.187e-05
-0.00018573
4.6809e-05
-0.000188818
5.24052e-05
-0.000192541
5.86763e-05
-0.000197061
6.5612e-05
-0.000202573
7.3185e-05
-0.000209374
8.13662e-05
-0.000217815
9.01683e-05
-0.000228069
-0.000240031
9.96036e-05
2.45207e-06
-0.000166304
4.56843e-06
-0.000171929
6.80273e-06
-0.000171347
9.0461e-06
-0.00017178
1.12946e-05
-0.000172416
1.35584e-05
-0.000173213
1.58492e-05
-0.000174175
1.81834e-05
-0.000175308
2.05832e-05
-0.000176617
2.30791e-05
-0.000178115
2.57128e-05
-0.000179819
2.85409e-05
-0.00018176
3.16325e-05
-0.000183985
3.50614e-05
-0.000186558
3.88945e-05
-0.000189563
4.31831e-05
-0.000193107
4.79579e-05
-0.000197316
5.32312e-05
-0.000202334
5.89984e-05
-0.00020834
6.5244e-05
-0.00021562
7.19471e-05
-0.000224518
7.91134e-05
-0.000235235
-0.000247695
8.67767e-05
2.26518e-06
-0.000168569
4.22956e-06
-0.000173893
6.3023e-06
-0.000173419
8.3833e-06
-0.000173861
1.04697e-05
-0.000174502
1.25709e-05
-0.000175314
1.46972e-05
-0.000176302
1.68626e-05
-0.000177473
1.90858e-05
-0.00017884
2.1391e-05
-0.00018042
2.38095e-05
-0.000182237
2.63791e-05
-0.000184329
2.91445e-05
-0.00018675
3.21513e-05
-0.000189565
3.5442e-05
-0.000192854
3.90485e-05
-0.000196713
4.299e-05
-0.000201257
4.72727e-05
-0.000206617
5.18906e-05
-0.000212958
5.6818e-05
-0.000220547
6.20309e-05
-0.00022973
6.75372e-05
-0.000240741
-0.00025353
7.33722e-05
2.08441e-06
-0.000170654
3.89262e-06
-0.000175701
5.80067e-06
-0.000175327
7.71459e-06
-0.000175775
9.63144e-06
-0.000176419
1.15587e-05
-0.000177242
1.3505e-05
-0.000178248
1.54809e-05
-0.000179449
1.74996e-05
-0.000180859
1.9578e-05
-0.000182499
2.17371e-05
-0.000184396
2.40002e-05
-0.000186592
2.63904e-05
-0.00018914
2.89337e-05
-0.000192108
3.1652e-05
-0.000195572
3.45602e-05
-0.000199621
3.76605e-05
-0.000204358
4.09454e-05
-0.000209901
4.44064e-05
-0.000216419
4.80125e-05
-0.000224153
5.17456e-05
-0.000233464
5.55949e-05
-0.000244591
-0.000257524
5.95892e-05
1.90411e-06
-0.000172558
3.55665e-06
-0.000177354
5.29911e-06
-0.00017707
7.04321e-06
-0.000177519
8.78623e-06
-0.000178162
1.05323e-05
-0.000178988
1.22874e-05
-0.000180003
1.40581e-05
-0.00018122
1.58526e-05
-0.000182654
1.76799e-05
-0.000184326
1.95503e-05
-0.000186267
2.14744e-05
-0.000188516
2.34625e-05
-0.000191128
2.55223e-05
-0.000194168
2.76578e-05
-0.000197707
2.98642e-05
-0.000201828
3.21309e-05
-0.000206624
3.44366e-05
-0.000212207
3.67557e-05
-0.000218738
3.90619e-05
-0.000226459
4.1301e-05
-0.000235703
4.34524e-05
-0.000246742
-0.000259582
4.551e-05
1.72714e-06
-0.000174285
3.22297e-06
-0.000178849
4.80019e-06
-0.000178647
6.37382e-06
-0.000179093
7.94096e-06
-0.000179729
9.50274e-06
-0.00018055
1.10614e-05
-0.000181562
1.26191e-05
-0.000182778
1.41786e-05
-0.000184213
1.57417e-05
-0.000185889
1.73095e-05
-0.000187835
1.88818e-05
-0.000190089
2.0456e-05
-0.000192703
2.20249e-05
-0.000195737
2.35769e-05
-0.000199259
2.50969e-05
-0.000203348
2.65483e-05
-0.000208076
2.79053e-05
-0.000213564
2.91343e-05
-0.000219967
3.01306e-05
-0.000227456
3.08904e-05
-0.000236463
3.13434e-05
-0.000247195
-0.000259703
3.14647e-05
1.55086e-06
-0.000175836
2.89363e-06
-0.000180192
4.30808e-06
-0.000180061
5.71312e-06
-0.000180498
7.10584e-06
-0.000181122
8.4835e-06
-0.000181927
9.84514e-06
-0.000182924
1.11884e-05
-0.000184121
1.25104e-05
-0.000185535
1.38068e-05
-0.000187185
1.50711e-05
-0.000189099
1.62936e-05
-0.000191311
1.74564e-05
-0.000193866
1.85433e-05
-0.000196824
1.9529e-05
-0.000200245
2.03808e-05
-0.0002042
2.10594e-05
-0.000208755
2.15178e-05
-0.000214023
2.1653e-05
-0.000220102
2.14597e-05
-0.000227262
2.07504e-05
-0.000235753
1.95328e-05
-0.000245978
-0.000257859
1.76888e-05
1.3802e-06
-0.000177216
2.5743e-06
-0.000181386
3.82977e-06
-0.000181317
5.06996e-06
-0.000181738
6.29144e-06
-0.000182344
7.48897e-06
-0.000183125
8.65765e-06
-0.000184092
9.79104e-06
-0.000185254
1.0881e-05
-0.000186625
1.19171e-05
-0.000188222
1.28859e-05
-0.000190068
1.37679e-05
-0.000192193
1.45401e-05
-0.000194638
1.517e-05
-0.000197454
1.56207e-05
-0.000200696
1.58477e-05
-0.000204427
1.57941e-05
-0.000208701
1.53845e-05
-0.000213613
1.45487e-05
-0.000219266
1.31418e-05
-0.000225855
1.11018e-05
-0.000233713
8.25129e-06
-0.000243127
-0.000254107
4.49926e-06
1.21802e-06
-0.000178434
2.27306e-06
-0.000182441
3.37524e-06
-0.000182419
4.45643e-06
-0.000182819
5.51262e-06
-0.0001834
6.53621e-06
-0.000184148
7.51917e-06
-0.000185075
8.45137e-06
-0.000186186
9.32036e-06
-0.000187494
1.01106e-05
-0.000189012
1.08014e-05
-0.000190758
1.13678e-05
-0.00019276
1.17776e-05
-0.000195048
1.19893e-05
-0.000197665
1.19566e-05
-0.000200663
1.16144e-05
-0.000204085
1.0905e-05
-0.000207992
9.72256e-06
-0.00021243
7.97775e-06
-0.000217521
5.53889e-06
-0.000223417
2.21454e-06
-0.000230389
-2.14478e-06
-0.000238768
-0.000248544
-7.70849e-06
1.07645e-06
-0.00017951
2.00108e-06
-0.000183366
2.9564e-06
-0.000183374
3.88665e-06
-0.000183749
4.78555e-06
-0.000184299
5.64403e-06
-0.000185007
6.45131e-06
-0.000185882
7.1944e-06
-0.00018693
7.85726e-06
-0.000188157
8.41993e-06
-0.000189574
8.85796e-06
-0.000191196
9.13956e-06
-0.000193041
9.22597e-06
-0.000195134
9.06717e-06
-0.000197507
8.60412e-06
-0.0002002
7.77073e-06
-0.000203251
6.48179e-06
-0.000206703
4.64372e-06
-0.000210592
2.1185e-06
-0.000214996
-1.24989e-06
-0.000220048
-5.64706e-06
-0.000225992
-1.13067e-05
-0.000233108
-0.000241401
-1.84498e-05
9.6039e-07
-0.000180471
1.76678e-06
-0.000184172
2.58389e-06
-0.000184191
3.37353e-06
-0.000184539
4.12604e-06
-0.000185051
4.83139e-06
-0.000185712
5.47613e-06
-0.000186527
6.04523e-06
-0.000187499
6.52019e-06
-0.000188632
6.87825e-06
-0.000189932
7.09139e-06
-0.00019141
7.12427e-06
-0.000193074
6.93289e-06
-0.000194943
6.46259e-06
-0.000197036
5.64533e-06
-0.000199383
4.40548e-06
-0.000202011
2.65009e-06
-0.000204947
2.68416e-07
-0.000208211
-2.87983e-06
-0.000211848
-6.97585e-06
-0.000215952
-1.22464e-05
-0.000220722
-1.89563e-05
-0.000226398
-0.000232978
-2.73794e-05
8.76867e-07
-0.000181348
1.5728e-06
-0.000184868
2.26128e-06
-0.00018488
2.92321e-06
-0.000185201
3.5437e-06
-0.000185671
4.11155e-06
-0.00018628
4.61123e-06
-0.000187027
5.0259e-06
-0.000187913
5.33535e-06
-0.000188941
5.51522e-06
-0.000190112
5.53574e-06
-0.00019143
5.36032e-06
-0.000192899
4.9411e-06
-0.000194524
4.22138e-06
-0.000196317
3.12883e-06
-0.000198291
1.57897e-06
-0.000200461
-5.27759e-07
-0.000202841
-3.30632e-06
-0.000205432
-6.90757e-06
-0.000208247
-1.15261e-05
-0.000211334
-1.74125e-05
-0.000214835
-2.4862e-05
-0.000218949
-0.000223653
-3.41862e-05
8.19842e-07
-0.000182167
1.41169e-06
-0.00018546
1.98281e-06
-0.000185451
2.52991e-06
-0.000185748
3.03464e-06
-0.000186176
3.48411e-06
-0.000186729
3.8609e-06
-0.000187404
4.1464e-06
-0.000188199
4.31893e-06
-0.000189114
4.35299e-06
-0.000190146
4.21838e-06
-0.000191295
3.87746e-06
-0.000192558
3.28469e-06
-0.000193931
2.38124e-06
-0.000195413
1.09482e-06
-0.000197004
-6.62463e-07
-0.000198704
-2.99373e-06
-0.000200509
-6.01988e-06
-0.000202406
-9.89272e-06
-0.000204374
-1.48102e-05
-0.000206416
-2.10319e-05
-0.000208613
-2.88709e-05
-0.00021111
-0.000213864
-3.86601e-05
7.76756e-07
-0.000182944
1.26833e-06
-0.000185952
1.73268e-06
-0.000185915
2.17786e-06
-0.000186193
2.58348e-06
-0.000186582
2.93517e-06
-0.000187081
3.21426e-06
-0.000187683
3.40044e-06
-0.000188385
3.47078e-06
-0.000189184
3.39889e-06
-0.000190074
3.15402e-06
-0.00019105
2.69959e-06
-0.000192103
1.99087e-06
-0.000193222
9.72126e-07
-0.000194394
-4.25894e-07
-0.000195606
-2.28875e-06
-0.000196841
-4.71965e-06
-0.000198078
-7.8405e-06
-0.000199285
-1.17999e-05
-0.000200414
-1.67887e-05
-0.000201427
-2.30582e-05
-0.000202344
-3.09216e-05
-0.000203246
-0.000204069
-4.07163e-05
7.35202e-07
-0.000183679
1.12982e-06
-0.000186346
1.49937e-06
-0.000186285
1.85588e-06
-0.000186549
2.1794e-06
-0.000186905
2.4539e-06
-0.000187355
2.66089e-06
-0.00018789
2.77957e-06
-0.000188504
2.78622e-06
-0.00018919
2.65373e-06
-0.000189942
2.35115e-06
-0.000190748
1.84224e-06
-0.000191594
1.0839e-06
-0.000192464
2.37323e-08
-0.000193334
-1.40224e-06
-0.00019418
-3.27313e-06
-0.00019497
-5.68606e-06
-0.000195665
-8.75773e-06
-0.000196213
-1.26281e-05
-0.000196544
-1.74718e-05
-0.000196583
-2.35164e-05
-0.000196299
-3.1056e-05
-0.000195706
-0.000194708