/*--------------------------------*- C++ -*----------------------------------*\
| =========                 |                                                 |
| \\      /  F ield         | OpenFOAM: The Open Source CFD Toolbox           |
|  \\    /   O peration     | Version:  2206                                  |
|   \\  /    A nd           | Website:  www.openfoam.com                      |
|    \\/     M anipulation  |                                                 |
\*---------------------------------------------------------------------------*/
FoamFile
{
    version     2.0;
    format      ascii;
    arch        "LSB;label=32;scalar=64";
    class       volVectorField;
    location    "0.3";
    object      U;
}
// * * * * * * * * * * * * * * * * * * * * * * * * * * * * * * * * * * * * * //

dimensions      [0 1 -1 0 0 0 0];

internalField   nonuniform List<vector> 
2268
(
(-0.0199929 0.00261887 0)
(0.00110755 -0.00975687 0)
(0.0634654 -0.016351 0)
(0.13643 -0.0174791 0)
(0.207766 -0.0156675 0)
(0.269888 -0.0131549 0)
(0.321394 -0.0110408 0)
(0.364892 -0.00958372 0)
(0.403482 -0.00865077 0)
(0.439004 -0.0079767 0)
(0.471924 -0.00729695 0)
(0.501699 -0.00639689 0)
(0.527026 -0.00511052 0)
(0.545699 -0.00328027 0)
(0.555869 0.000293566 0)
(0.548033 0.00687881 0)
(0.511436 0.0181919 0)
(0.431514 0.0348821 0)
(0.291516 0.051694 0)
(0.0964057 0.0539826 0)
(-0.12897 0.00940959 0)
(-0.230778 -0.033921 0)
(-0.0735218 -0.0765126 0)
(-0.0198644 0.00749129 0)
(0.00260154 -0.0296655 0)
(0.0655414 -0.0493164 0)
(0.138626 -0.0526289 0)
(0.209582 -0.0472235 0)
(0.271233 -0.0397507 0)
(0.322549 -0.0334795 0)
(0.366223 -0.0291787 0)
(0.405275 -0.0264355 0)
(0.441436 -0.0244498 0)
(0.475099 -0.0224325 0)
(0.505677 -0.0197602 0)
(0.531902 -0.0159468 0)
(0.552181 -0.0105105 0)
(0.563666 -0.00202866 0)
(0.569748 0.0110155 0)
(0.571559 0.0317343 0)
(0.564406 0.0638312 0)
(0.524732 0.106142 0)
(0.400315 0.143265 0)
(0.176547 0.124011 0)
(-0.108032 0.0445258 0)
(0.0357555 -0.127675 0)
(-0.0189642 0.0117613 0)
(0.00517686 -0.0497894 0)
(0.0685607 -0.0821735 0)
(0.141175 -0.0873397 0)
(0.210825 -0.0782273 0)
(0.271051 -0.0658675 0)
(0.321476 -0.055619 0)
(0.36497 -0.048682 0)
(0.404411 -0.0442945 0)
(0.441321 -0.0410969 0)
(0.47592 -0.0377923 0)
(0.507535 -0.0333794 0)
(0.534903 -0.0271082 0)
(0.556411 -0.0182765 0)
(0.570058 -0.00630271 0)
(0.573691 0.00984794 0)
(0.566535 0.0330421 0)
(0.55251 0.0691413 0)
(0.544178 0.125177 0)
(0.523758 0.193618 0)
(0.428495 0.218533 0)
(0.192514 0.116119 0)
(0.135974 -0.0892123 0)
(-0.0177154 0.0149861 0)
(0.00904298 -0.0704568 0)
(0.07283 -0.115018 0)
(0.144573 -0.121464 0)
(0.212333 -0.108479 0)
(0.270655 -0.0914187 0)
(0.320002 -0.0775397 0)
(0.363428 -0.068313 0)
(0.403579 -0.0625383 0)
(0.441662 -0.0582798 0)
(0.477659 -0.053765 0)
(0.510777 -0.0476612 0)
(0.53975 -0.0390087 0)
(0.563017 -0.0270058 0)
(0.578804 -0.0108915 0)
(0.585336 0.0106542 0)
(0.581054 0.0393213 0)
(0.564799 0.0777766 0)
(0.543754 0.131192 0)
(0.537327 0.205892 0)
(0.527859 0.266056 0)
(0.379155 0.206913 0)
(0.221499 0.0177472 0)
(-0.0159249 0.0166133 0)
(0.014019 -0.0917462 0)
(0.0780138 -0.147637 0)
(0.14839 -0.154628 0)
(0.213704 -0.137637 0)
(0.269771 -0.116221 0)
(0.317985 -0.0992274 0)
(0.361526 -0.0881726 0)
(0.402698 -0.0813227 0)
(0.442301 -0.0761695 0)
(0.480034 -0.0705173 0)
(0.514978 -0.0627665 0)
(0.545874 -0.0517954 0)
(0.571271 -0.0367096 0)
(0.589608 -0.0166197 0)
(0.599368 0.00964921 0)
(0.599389 0.0435893 0)
(0.588541 0.0869081 0)
(0.56656 0.139957 0)
(0.540038 0.207498 0)
(0.540047 0.284235 0)
(0.45225 0.287632 0)
(0.272767 0.165352 0)
(-0.0134544 0.0163487 0)
(0.0198907 -0.113786 0)
(0.0838351 -0.179866 0)
(0.152343 -0.186581 0)
(0.214734 -0.165487 0)
(0.268363 -0.140181 0)
(0.315549 -0.120731 0)
(0.359468 -0.108409 0)
(0.401958 -0.10084 0)
(0.44335 -0.0949712 0)
(0.483044 -0.0882623 0)
(0.520014 -0.0789243 0)
(0.553045 -0.0657297 0)
(0.58082 -0.0477196 0)
(0.601961 -0.0239712 0)
(0.615155 0.00662149 0)
(0.619401 0.0452927 0)
(0.613558 0.0935034 0)
(0.597918 0.151331 0)
(0.564115 0.21709 0)
(0.540117 0.299256 0)
(0.472489 0.359367 0)
(0.297808 0.332851 0)
(-0.0105157 0.014221 0)
(0.0263937 -0.136796 0)
(0.0901265 -0.211714 0)
(0.156263 -0.217355 0)
(0.215386 -0.19211 0)
(0.266577 -0.16339 0)
(0.312984 -0.142122 0)
(0.357601 -0.129055 0)
(0.401688 -0.121079 0)
(0.445069 -0.114628 0)
(0.486876 -0.106903 0)
(0.526025 -0.0960123 0)
(0.561392 -0.0806821 0)
(0.591793 -0.0599254 0)
(0.615982 -0.0328112 0)
(0.632726 0.00163199 0)
(0.641145 0.0445759 0)
(0.640029 0.0971049 0)
(0.630099 0.160854 0)
(0.602564 0.232831 0)
(0.56225 0.321998 0)
(0.493073 0.423042 0)
(0.334132 0.504661 0)
(-0.00713978 0.0103654 0)
(0.0332792 -0.160842 0)
(0.0966249 -0.243113 0)
(0.16004 -0.24688 0)
(0.215842 -0.217573 0)
(0.264849 -0.186006 0)
(0.310854 -0.163524 0)
(0.356511 -0.150131 0)
(0.402434 -0.141946 0)
(0.447965 -0.134954 0)
(0.49203 -0.126188 0)
(0.533565 -0.113736 0)
(0.571557 -0.0963258 0)
(0.604905 -0.0729426 0)
(0.632375 -0.0426177 0)
(0.652781 -0.00438994 0)
(0.665234 0.0427786 0)
(0.668902 0.0994827 0)
(0.663668 0.168046 0)
(0.646258 0.247839 0)
(0.606738 0.348401 0)
(0.542473 0.485681 0)
(0.334195 0.713753 0)
(0.0221782 -0.0145179 0)
(0.0717792 -0.0139541 0)
(0.114076 -0.00893868 0)
(0.145103 -0.00603097 0)
(0.170686 -0.00489253 0)
(0.193312 -0.00442557 0)
(0.212809 -0.00394891 0)
(0.228385 -0.00299937 0)
(0.23879 -0.00148175 0)
(0.242488 0.000437601 0)
(0.238589 0.00219539 0)
(0.227933 0.00376139 0)
(0.211091 0.00517131 0)
(0.188658 0.00642446 0)
(0.161311 0.00749094 0)
(0.129801 0.00836321 0)
(0.0949792 0.00903692 0)
(0.0579242 0.00945625 0)
(0.0194402 0.00984814 0)
(0.0140257 -0.0348133 0)
(0.0606316 -0.0366622 0)
(0.10323 -0.0278952 0)
(0.13872 -0.0230068 0)
(0.170678 -0.0201019 0)
(0.19863 -0.0173765 0)
(0.221502 -0.0144066 0)
(0.239401 -0.010741 0)
(0.251598 -0.00609288 0)
(0.258251 -0.000787601 0)
(0.258941 0.00466588 0)
(0.25245 0.00997645 0)
(0.238246 0.015008 0)
(0.216516 0.0196095 0)
(0.187777 0.0236431 0)
(0.152877 0.0270206 0)
(0.112882 0.029647 0)
(0.0692118 0.0313382 0)
(0.0232097 0.0321795 0)
(0.0161224 -0.054185 0)
(0.066344 -0.0611725 0)
(0.10988 -0.0483846 0)
(0.144327 -0.0409374 0)
(0.174749 -0.0357715 0)
(0.201475 -0.0306192 0)
(0.223888 -0.0251111 0)
(0.241912 -0.018707 0)
(0.254434 -0.0110473 0)
(0.260601 -0.00261754 0)
(0.259887 0.00638299 0)
(0.252049 0.0155506 0)
(0.236962 0.0244803 0)
(0.214809 0.0327978 0)
(0.186029 0.040211 0)
(0.151339 0.0464884 0)
(0.111689 0.05141 0)
(0.0684552 0.054626 0)
(0.02292 0.056196 0)
(0.0183729 -0.0770366 0)
(0.07012 -0.0868706 0)
(0.113829 -0.0679238 0)
(0.147495 -0.0571615 0)
(0.177644 -0.0499045 0)
(0.204389 -0.0430472 0)
(0.227184 -0.035721 0)
(0.245905 -0.0268298 0)
(0.2591 -0.0160082 0)
(0.265634 -0.0039293 0)
(0.264884 0.00877532 0)
(0.256655 0.0217247 0)
(0.240914 0.0343988 0)
(0.217991 0.046292 0)
(0.188447 0.0569675 0)
(0.153056 0.0660504 0)
(0.112797 0.0732073 0)
(0.0690687 0.0779366 0)
(0.023108 0.0802277 0)
(0.0182708 -0.0959322 0)
(0.071559 -0.110641 0)
(0.116553 -0.087443 0)
(0.149638 -0.0738567 0)
(0.180218 -0.0646023 0)
(0.207762 -0.0561423 0)
(0.231506 -0.0469895 0)
(0.251337 -0.0354747 0)
(0.265519 -0.0213484 0)
(0.272697 -0.00554322 0)
(0.272276 0.0110917 0)
(0.264066 0.02804 0)
(0.248016 0.0446139 0)
(0.224472 0.0601758 0)
(0.194048 0.0741513 0)
(0.157576 0.0860344 0)
(0.116102 0.095402 0)
(0.0710765 0.101628 0)
(0.0237723 0.104589 0)
(0.0151777 -0.121588 0)
(0.0736968 -0.137534 0)
(0.121214 -0.108414 0)
(0.151427 -0.0912039 0)
(0.181471 -0.0798068 0)
(0.210609 -0.0699276 0)
(0.236381 -0.0590422 0)
(0.258031 -0.044832 0)
(0.273588 -0.0271888 0)
(0.281657 -0.00742709 0)
(0.281711 0.0133049 0)
(0.273572 0.034432 0)
(0.257206 0.0550832 0)
(0.232969 0.0744783 0)
(0.201501 0.0918957 0)
(0.163688 0.106695 0)
(0.120644 0.118366 0)
(0.0738615 0.126138 0)
(0.0246928 0.129763 0)
(0.0230446 -0.168874 0)
(0.0888746 -0.174072 0)
(0.131566 -0.128985 0)
(0.154909 -0.106963 0)
(0.182789 -0.0951379 0)
(0.213541 -0.0849652 0)
(0.242086 -0.0723134 0)
(0.266189 -0.0551404 0)
(0.283447 -0.0337645 0)
(0.292555 -0.0097906 0)
(0.293175 0.0153086 0)
(0.285134 0.0408733 0)
(0.268395 0.0658556 0)
(0.243327 0.0892977 0)
(0.2106 0.110348 0)
(0.171161 0.128246 0)
(0.126207 0.14237 0)
(0.0772699 0.15178 0)
(0.0258185 0.156095 0)
(0.0860807 -0.185562 0)
(0.131885 -0.199523 0)
(0.142601 -0.141091 0)
(0.15806 -0.117345 0)
(0.186651 -0.109008 0)
(0.218942 -0.100999 0)
(0.249922 -0.086945 0)
(0.276609 -0.0663438 0)
(0.295758 -0.0408466 0)
(0.305967 -0.012459 0)
(0.30707 0.0171859 0)
(0.298984 0.0473701 0)
(0.281717 0.0768786 0)
(0.255624 0.104551 0)
(0.22139 0.129392 0)
(0.180023 0.150532 0)
(0.132799 0.167239 0)
(0.0812898 0.178385 0)
(0.0271365 0.18343 0)
(-0.00172999 -0.00132953 0)
(0.0440276 -0.200697 0)
(0.106575 -0.29037 0)
(0.165526 -0.289383 0)
(0.216646 -0.254493 0)
(0.26323 -0.220424 0)
(0.309513 -0.197793 0)
(0.357318 -0.184953 0)
(0.406264 -0.176943 0)
(0.4551 -0.169343 0)
(0.502627 -0.159205 0)
(0.547921 -0.144697 0)
(0.59012 -0.124536 0)
(0.628216 -0.0975536 0)
(0.661106 -0.0627515 0)
(0.687931 -0.0192679 0)
(0.707566 0.0345196 0)
(0.719787 0.0987297 0)
(0.722992 0.176481 0)
(0.722073 0.267607 0)
(0.703608 0.384558 0)
(0.733054 0.524117 0)
(0.675265 0.879317 0)
(0.00596681 -0.0255354 0)
(0.0591072 -0.257399 0)
(0.119952 -0.351595 0)
(0.172459 -0.342208 0)
(0.217787 -0.301265 0)
(0.262289 -0.266679 0)
(0.309919 -0.246257 0)
(0.360842 -0.235571 0)
(0.413356 -0.22846 0)
(0.465715 -0.220396 0)
(0.516813 -0.20876 0)
(0.565993 -0.191848 0)
(0.612733 -0.168225 0)
(0.656482 -0.136491 0)
(0.69671 -0.095807 0)
(0.73381 -0.0465582 0)
(0.766742 0.00962223 0)
(0.794943 0.0754122 0)
(0.815744 0.154727 0)
(0.835511 0.245143 0)
(0.847668 0.356918 0)
(0.907518 0.464223 0)
(0.971577 0.722526 0)
(0.0148568 -0.0623775 0)
(0.0755832 -0.318318 0)
(0.131996 -0.407585 0)
(0.176174 -0.387994 0)
(0.216291 -0.344414 0)
(0.259974 -0.313382 0)
(0.309125 -0.297441 0)
(0.361725 -0.289355 0)
(0.415268 -0.282597 0)
(0.468268 -0.27326 0)
(0.520205 -0.259441 0)
(0.570991 -0.239349 0)
(0.621256 -0.212066 0)
(0.671585 -0.176931 0)
(0.721843 -0.13292 0)
(0.77036 -0.0778801 0)
(0.816808 -0.00956267 0)
(0.861966 0.077911 0)
(0.898452 0.175789 0)
(0.92841 0.27124 0)
(0.959765 0.364156 0)
(1.00866 0.436166 0)
(1.09026 0.542865 0)
(0.0254132 -0.113013 0)
(0.097128 -0.380615 0)
(0.143619 -0.453813 0)
(0.174968 -0.425054 0)
(0.210063 -0.384021 0)
(0.2538 -0.359558 0)
(0.303985 -0.348051 0)
(0.357017 -0.341296 0)
(0.411084 -0.334121 0)
(0.465945 -0.324192 0)
(0.522783 -0.310987 0)
(0.582481 -0.293019 0)
(0.646127 -0.272384 0)
(0.715179 -0.248289 0)
(0.791861 -0.2189 0)
(0.872067 -0.179395 0)
(0.945999 -0.125295 0)
(0.998969 -0.0545865 0)
(1.02208 0.0332106 0)
(1.02992 0.128838 0)
(1.04506 0.230837 0)
(1.07418 0.326233 0)
(1.13055 0.409734 0)
(0.0403071 -0.187524 0)
(0.134263 -0.437944 0)
(0.161858 -0.482387 0)
(0.17225 -0.45232 0)
(0.203654 -0.423432 0)
(0.251547 -0.409311 0)
(0.307 -0.40329 0)
(0.366435 -0.400572 0)
(0.429726 -0.398242 0)
(0.499546 -0.395679 0)
(0.58238 -0.39387 0)
(0.676386 -0.391851 0)
(0.77378 -0.383907 0)
(0.881097 -0.366628 0)
(0.997352 -0.331895 0)
(1.10918 -0.264389 0)
(1.19526 -0.160151 0)
(1.2271 0.000653726 0)
(1.17994 0.132526 0)
(1.12555 0.217229 0)
(1.09938 0.272848 0)
(1.0981 0.317916 0)
(1.12902 0.356311 0)
(0.0686356 -0.291541 0)
(0.191021 -0.50021 0)
(0.194283 -0.495496 0)
(0.180063 -0.476481 0)
(0.214512 -0.47305 0)
(0.276134 -0.474682 0)
(0.345281 -0.476989 0)
(0.420206 -0.481576 0)
(0.507206 -0.488465 0)
(0.61558 -0.499265 0)
(0.755226 -0.520142 0)
(0.893261 -0.513031 0)
(1.04194 -0.488263 0)
(1.1723 -0.445283 0)
(1.27234 -0.380326 0)
(1.3326 -0.276982 0)
(1.35196 -0.146279 0)
(1.33556 0.0353502 0)
(1.2888 0.199532 0)
(1.2372 0.280976 0)
(1.17681 0.321755 0)
(1.09456 0.344756 0)
(1.07044 0.331469 0)
(0.084333 -0.427443 0)
(0.227091 -0.604643 0)
(0.240228 -0.480848 0)
(0.218162 -0.483651 0)
(0.263937 -0.52897 0)
(0.338598 -0.559488 0)
(0.398329 -0.559874 0)
(0.474121 -0.55928 0)
(0.556122 -0.57112 0)
(0.65116 -0.596535 0)
(0.758478 -0.621624 0)
(0.888553 -0.557775 0)
(1.03273 -0.553767 0)
(1.16732 -0.526671 0)
(1.28069 -0.456112 0)
(1.35413 -0.327679 0)
(1.36209 -0.155162 0)
(1.29273 0.0517062 0)
(1.15643 0.272124 0)
(0.988611 0.399884 0)
(0.883448 0.430755 0)
(0.924709 0.445779 0)
(1.04598 0.359282 0)
(0.00238171 -0.658266 0)
(0.0716975 -0.649685 0)
(0.181911 -0.474107 0)
(0.206929 -0.482696 0)
(0.233108 -0.555813 0)
(0.268996 -0.566614 0)
(0.318073 -0.569248 0)
(0.384409 -0.591372 0)
(0.470631 -0.640146 0)
(0.581631 -0.706138 0)
(0.712581 -0.754754 0)
(0.851685 -0.774412 0)
(0.998517 -0.777093 0)
(1.14878 -0.722939 0)
(1.28343 -0.597991 0)
(1.37475 -0.400451 0)
(1.41172 -0.123274 0)
(1.33788 0.188355 0)
(1.14775 0.44511 0)
(0.981636 0.529243 0)
(1.01929 0.363821 0)
(1.18592 0.135979 0)
(1.4184 0.00171972 0)
(-0.0385646 -0.575468 0)
(-0.0412969 -0.527964 0)
(0.0365101 -0.565544 0)
(0.125709 -0.573888 0)
(0.184865 -0.602055 0)
(0.228783 -0.628456 0)
(0.272954 -0.656964 0)
(0.331616 -0.701565 0)
(0.408832 -0.773491 0)
(0.506836 -0.856371 0)
(0.617106 -0.908215 0)
(0.740801 -0.922626 0)
(0.859829 -0.92279 0)
(0.983547 -0.87131 0)
(1.10333 -0.730894 0)
(1.18503 -0.499625 0)
(1.2354 -0.149591 0)
(1.22121 0.266316 0)
(1.1309 0.564529 0)
(1.13385 0.540316 0)
(1.29209 0.237698 0)
(1.43258 0.00380183 0)
(1.52376 -0.090296 0)
(-0.0266657 -0.545658 0)
(0.00580624 -0.715538 0)
(0.0617869 -0.671652 0)
(0.112389 -0.646416 0)
(0.157743 -0.654379 0)
(0.197815 -0.676916 0)
(0.234056 -0.708497 0)
(0.278461 -0.761635 0)
(0.331281 -0.846125 0)
(0.394281 -0.940253 0)
(0.457925 -0.99944 0)
(0.552662 -1.01189 0)
(0.596392 -1.0414 0)
(0.66829 -0.988459 0)
(0.721188 -0.805903 0)
(0.766145 -0.525394 0)
(0.796383 -0.150937 0)
(0.830705 0.297127 0)
(0.889414 0.545954 0)
(1.08311 0.39448 0)
(1.27084 0.0973609 0)
(1.35668 -0.0912396 0)
(1.38923 -0.167242 0)
(0.0150619 -0.560018 0)
(0.0428986 -0.740771 0)
(0.0657395 -0.700802 0)
(0.0997376 -0.681043 0)
(0.134413 -0.6901 0)
(0.166465 -0.709238 0)
(0.193771 -0.739506 0)
(0.221075 -0.796458 0)
(0.243525 -0.886795 0)
(0.263112 -0.984518 0)
(0.27307 -1.04874 0)
(0.320906 -1.04941 0)
(0.284435 -1.07057 0)
(0.257262 -0.984636 0)
(0.243586 -0.756063 0)
(0.223564 -0.466699 0)
(0.256549 -0.0900121 0)
(0.375529 0.231746 0)
(0.649665 0.273878 0)
(0.918971 0.117399 0)
(1.08249 -0.0469691 0)
(1.1635 -0.117418 0)
(1.1885 -0.160514 0)
(0.0306029 -0.594415 0)
(0.0506553 -0.759487 0)
(0.0611771 -0.720426 0)
(0.0896221 -0.710663 0)
(0.118356 -0.71999 0)
(0.143175 -0.734514 0)
(0.163052 -0.75891 0)
(0.17489 -0.808706 0)
(0.171583 -0.889551 0)
(0.153582 -0.977694 0)
(0.119274 -1.03554 0)
(0.108428 -1.02113 0)
(0.0319229 -1.00162 0)
(-0.0370213 -0.91864 0)
(-0.0673715 -0.713795 0)
(-0.0296867 -0.481772 0)
(0.113803 -0.25666 0)
(0.321875 -0.112101 0)
(0.539178 -0.0695026 0)
(0.715621 -0.0693557 0)
(0.831286 -0.0964028 0)
(0.907023 -0.161818 0)
(0.99521 -0.243085 0)
(0.0296404 -0.63699 0)
(0.0489294 -0.77516 0)
(0.0584946 -0.740268 0)
(0.083837 -0.736442 0)
(0.107602 -0.743901 0)
(0.127924 -0.753199 0)
(0.144098 -0.768465 0)
(0.149166 -0.80371 0)
(0.135365 -0.866433 0)
(0.100117 -0.937806 0)
(0.0470979 -0.983782 0)
(-0.000647571 -0.970874 0)
(-0.0497599 -0.933084 0)
(-0.121165 -0.878 0)
(-0.120843 -0.749642 0)
(-0.0518745 -0.608275 0)
(0.0497001 -0.446136 0)
(0.195605 -0.277862 0)
(0.343544 -0.157127 0)
(0.503842 -0.154265 0)
(0.65495 -0.223547 0)
(0.800318 -0.305655 0)
(0.939819 -0.387327 0)
(0.0252999 -0.676375 0)
(0.0449507 -0.786263 0)
(0.0557344 -0.759065 0)
(0.0785153 -0.758512 0)
(0.0994294 -0.764258 0)
(0.118319 -0.77 0)
(0.134963 -0.777661 0)
(0.143394 -0.798262 0)
(0.134791 -0.840692 0)
(0.10465 -0.892868 0)
(0.0589817 -0.92971 0)
(0.0130199 -0.930755 0)
(-0.0174061 -0.900173 0)
(-0.0448227 -0.857666 0)
(-0.049066 -0.786765 0)
(-0.046975 -0.683576 0)
(0.0280245 -0.527014 0)
(0.152782 -0.405015 0)
(0.316513 -0.354575 0)
(0.488071 -0.364781 0)
(0.645846 -0.399548 0)
(0.777756 -0.448576 0)
(0.903806 -0.509299 0)
(0.020526 -0.711311 0)
(0.0402279 -0.79821 0)
(0.0529949 -0.77778 0)
(0.0737394 -0.778742 0)
(0.0933292 -0.783621 0)
(0.112 -0.788002 0)
(0.13047 -0.792059 0)
(0.145695 -0.802591 0)
(0.149367 -0.828024 0)
(0.136574 -0.863764 0)
(0.11115 -0.893639 0)
(0.0826027 -0.902287 0)
(0.0628156 -0.885494 0)
(0.0556741 -0.849372 0)
(0.0612411 -0.789699 0)
(0.0896187 -0.726495 0)
(0.15142 -0.64101 0)
(0.255276 -0.574096 0)
(0.378672 -0.524632 0)
(0.508473 -0.507553 0)
(0.6358 -0.522155 0)
(0.749289 -0.56318 0)
(0.864908 -0.617497 0)
(0.0166158 -0.741226 0)
(0.035903 -0.811577 0)
(0.0502846 -0.7963 0)
(0.0695349 -0.797918 0)
(0.0882119 -0.802422 0)
(0.106428 -0.806863 0)
(0.125405 -0.810709 0)
(0.144501 -0.81692 0)
(0.158113 -0.831826 0)
(0.161219 -0.855523 0)
(0.154275 -0.877836 0)
(0.142376 -0.887231 0)
(0.132569 -0.878887 0)
(0.132896 -0.854097 0)
(0.148268 -0.814581 0)
(0.180374 -0.765702 0)
(0.231047 -0.708722 0)
(0.305983 -0.657179 0)
(0.401538 -0.625762 0)
(0.508897 -0.620696 0)
(0.619264 -0.637423 0)
(0.726413 -0.673343 0)
(0.829435 -0.721385 0)
(0.0138628 -0.76712 0)
(0.0323542 -0.825986 0)
(0.0475202 -0.814273 0)
(0.0655943 -0.816207 0)
(0.0833567 -0.820436 0)
(0.100735 -0.825199 0)
(0.11866 -0.83001 0)
(0.137563 -0.835628 0)
(0.154804 -0.845405 0)
(0.166002 -0.860522 0)
(0.169364 -0.875694 0)
(0.167963 -0.88263 0)
(0.167448 -0.877162 0)
(0.173164 -0.859892 0)
(0.189076 -0.832981 0)
(0.218505 -0.799111 0)
(0.266095 -0.763661 0)
(0.332885 -0.736573 0)
(0.415485 -0.722852 0)
(0.507635 -0.72412 0)
(0.603604 -0.74101 0)
(0.701922 -0.773069 0)
(0.794943 -0.820055 0)
(0.0119465 -0.789983 0)
(0.0294729 -0.840866 0)
(0.0447918 -0.831539 0)
(0.0618766 -0.833613 0)
(0.0787423 -0.837552 0)
(0.095234 -0.842293 0)
(0.111699 -0.847656 0)
(0.128624 -0.853659 0)
(0.145175 -0.861205 0)
(0.158676 -0.870896 0)
(0.167239 -0.880559 0)
(0.172526 -0.885478 0)
(0.178898 -0.88239 0)
(0.190787 -0.871192 0)
(0.211693 -0.854979 0)
(0.244084 -0.836911 0)
(0.290102 -0.819643 0)
(0.349923 -0.807203 0)
(0.420656 -0.803548 0)
(0.49947 -0.81137 0)
(0.583817 -0.832394 0)
(0.672137 -0.865812 0)
(0.760558 -0.912876 0)
(0.0105869 -0.810512 0)
(0.0271063 -0.855732 0)
(0.042177 -0.848033 0)
(0.058382 -0.850162 0)
(0.0744116 -0.853845 0)
(0.0901557 -0.85831 0)
(0.105608 -0.863581 0)
(0.12091 -0.869593 0)
(0.135942 -0.87623 0)
(0.149777 -0.8834 0)
(0.161545 -0.890219 0)
(0.172094 -0.8945 0)
(0.184277 -0.894435 0)
(0.201405 -0.890152 0)
(0.225812 -0.883214 0)
(0.259058 -0.875578 0)
(0.302052 -0.869613 0)
(0.354726 -0.86798 0)
(0.416146 -0.873341 0)
(0.484941 -0.888169 0)
(0.55957 -0.914151 0)
(0.638591 -0.951169 0)
(0.721095 -0.998868 0)
(0.00958971 -0.829199 0)
(0.0251116 -0.870271 0)
(0.0396917 -0.863742 0)
(0.0550725 -0.865902 0)
(0.0703168 -0.869412 0)
(0.085407 -0.873631 0)
(0.100276 -0.878608 0)
(0.114853 -0.88433 0)
(0.129151 -0.890601 0)
(0.143145 -0.897082 0)
(0.156777 -0.903251 0)
(0.170645 -0.908166 0)
(0.186476 -0.910924 0)
(0.206302 -0.911714 0)
(0.23174 -0.91174 0)
(0.263843 -0.912382 0)
(0.303225 -0.915092 0)
(0.350109 -0.921771 0)
(0.404133 -0.934592 0)
(0.464545 -0.955716 0)
(0.53038 -0.986874 0)
(0.600921 -1.02828 0)
(0.675292 -1.07894 0)
(0.00881147 -0.84639 0)
(0.0233669 -0.884278 0)
(0.0373104 -0.878666 0)
(0.0518857 -0.880854 0)
(0.0663649 -0.884275 0)
(0.080787 -0.888395 0)
(0.0951497 -0.893224 0)
(0.109398 -0.898759 0)
(0.12353 -0.904918 0)
(0.137705 -0.911439 0)
(0.152208 -0.917978 0)
(0.167605 -0.924141 0)
(0.18498 -0.929661 0)
(0.205636 -0.934744 0)
(0.230629 -0.940075 0)
(0.260706 -0.946733 0)
(0.296446 -0.956018 0)
(0.338155 -0.969388 0)
(0.385659 -0.988453 0)
(0.438546 -1.0151 0)
(0.496283 -1.05119 0)
(0.558446 -1.09709 0)
(0.624384 -1.15211 0)
(0.0081547 -0.862313 0)
(0.0217771 -0.897616 0)
(0.0349971 -0.892795 0)
(0.0487616 -0.895016 0)
(0.0624647 -0.898405 0)
(0.0761708 -0.902532 0)
(0.0899144 -0.907393 0)
(0.103722 -0.912971 0)
(0.117629 -0.919232 0)
(0.131779 -0.926075 0)
(0.146502 -0.933346 0)
(0.162322 -0.940903 0)
(0.179943 -0.948741 0)
(0.200175 -0.957132 0)
(0.223785 -0.966647 0)
(0.251407 -0.978154 0)
(0.283508 -0.992682 0)
(0.320301 -1.01136 0)
(0.361708 -1.03551 0)
(0.407548 -1.06687 0)
(0.457551 -1.10734 0)
(0.511295 -1.15752 0)
(0.56869 -1.21681 0)
(0.00756185 -0.877097 0)
(0.0202803 -0.910214 0)
(0.0327203 -0.906107 0)
(0.04566 -0.908371 0)
(0.0585593 -0.911762 0)
(0.0715006 -0.915944 0)
(0.08452 -0.920924 0)
(0.097683 -0.92669 0)
(0.111075 -0.933237 0)
(0.12485 -0.940556 0)
(0.139279 -0.948644 0)
(0.154756 -0.957532 0)
(0.171776 -0.967352 0)
(0.190885 -0.978403 0)
(0.212625 -0.991194 0)
(0.237472 -1.00645 0)
(0.26578 -1.02502 0)
(0.297705 -1.04785 0)
(0.333212 -1.07606 0)
(0.372252 -1.11129 0)
(0.414679 -1.15545 0)
(0.46002 -1.20934 0)
(0.508668 -1.27236 0)
(0.00700442 -0.890819 0)
(0.0188406 -0.922026 0)
(0.0304581 -0.91858 0)
(0.0425544 -0.920893 0)
(0.0546147 -0.92431 0)
(0.0667419 -0.928571 0)
(0.0789625 -0.933694 0)
(0.0913467 -0.939698 0)
(0.103992 -0.946606 0)
(0.117053 -0.954459 0)
(0.130752 -0.963333 0)
(0.145367 -0.973362 0)
(0.161235 -0.984776 0)
(0.17872 -0.997906 0)
(0.198186 -1.01322 0)
(0.219973 -1.03133 0)
(0.244335 -1.05296 0)
(0.27138 -1.07895 0)
(0.301077 -1.11028 0)
(0.333437 -1.14852 0)
(0.368353 -1.19556 0)
(0.405299 -1.2524 0)
(0.444978 -1.31851 0)
(0.00646676 -0.903526 0)
(0.0174351 -0.933023 0)
(0.0282009 -0.930189 0)
(0.0394325 -0.932553 0)
(0.0506169 -0.936003 0)
(0.0618751 -0.940351 0)
(0.0732228 -0.945621 0)
(0.0847225 -0.951852 0)
(0.096456 -0.959101 0)
(0.108552 -0.967445 0)
(0.121189 -0.977003 0)
(0.134561 -0.987966 0)
(0.148889 -1.00061 0)
(0.164396 -1.01528 0)
(0.181294 -1.03243 0)
(0.199809 -1.05259 0)
(0.220111 -1.07642 0)
(0.242253 -1.10466 0)
(0.266187 -1.13822 0)
(0.291943 -1.17861 0)
(0.319363 -1.22767 0)
(0.347845 -1.2866 0)
(0.378335 -1.35506 0)
(0.00594315 -0.915242 0)
(0.0160508 -0.943191 0)
(0.0259464 -0.940918 0)
(0.0362938 -0.943323 0)
(0.0465733 -0.946799 0)
(0.0569133 -0.951219 0)
(0.0673173 -0.956613 0)
(0.077834 -0.963034 0)
(0.0885266 -0.970555 0)
(0.0994854 -0.979282 0)
(0.110836 -0.989365 0)
(0.122705 -1.00101 0)
(0.135222 -1.01452 0)
(0.148505 -1.03024 0)
(0.16265 -1.0486 0)
(0.177776 -1.0701 0)
(0.19397 -1.09533 0)
(0.211221 -1.12496 0)
(0.229418 -1.15988 0)
(0.24861 -1.20154 0)
(0.268543 -1.25174 0)
(0.288447 -1.31183 0)
(0.309622 -1.38166 0)
(0.00542899 -0.925989 0)
(0.0146783 -0.952515 0)
(0.0236993 -0.950755 0)
(0.0331481 -0.953183 0)
(0.0425061 -0.956666 0)
(0.0518946 -0.961125 0)
(0.0613065 -0.966597 0)
(0.0707698 -0.973142 0)
(0.0803269 -0.980843 0)
(0.0900299 -0.989818 0)
(0.0999511 -1.00023 0)
(0.110154 -1.01229 0)
(0.120695 -1.02631 0)
(0.131611 -1.04262 0)
(0.142914 -1.06165 0)
(0.154617 -1.08383 0)
(0.166731 -1.10972 0)
(0.179143 -1.13992 0)
(0.19164 -1.17537 0)
(0.204322 -1.21732 0)
(0.216819 -1.26773 0)
(0.228126 -1.3279 0)
(0.239861 -1.39791 0)
(0.00491896 -0.93577 0)
(0.0133121 -0.960997 0)
(0.0214699 -0.959698 0)
(0.0300147 -0.962121 0)
(0.0384469 -0.965584 0)
(0.0468696 -0.970037 0)
(0.0552659 -0.975526 0)
(0.0636404 -0.982111 0)
(0.0720103 -0.989879 0)
(0.080392 -0.998949 0)
(0.08881 -1.00948 0)
(0.097264 -1.02169 0)
(0.105756 -1.03587 0)
(0.114258 -1.05236 0)
(0.122704 -1.07152 0)
(0.13103 -1.0938 0)
(0.139155 -1.11964 0)
(0.146801 -1.14969 0)
(0.15379 -1.18481 0)
(0.160089 -1.22607 0)
(0.165223 -1.27562 0)
(0.168049 -1.33475 0)
(0.170224 -1.40361 0)
(0.00441555 -0.9446 0)
(0.0119591 -0.968637 0)
(0.0192753 -0.967753 0)
(0.0269232 -0.97014 0)
(0.0344371 -0.973552 0)
(0.0418978 -0.977949 0)
(0.0492765 -0.983385 0)
(0.056557 -0.989916 0)
(0.0637294 -0.997628 0)
(0.0707767 -1.00663 0)
(0.0776768 -1.01708 0)
(0.0843795 -1.02918 0)
(0.0908298 -1.04319 0)
(0.0969458 -1.05944 0)
(0.102593 -1.07827 0)
(0.107661 -1.10008 0)
(0.111939 -1.12525 0)
(0.11503 -1.15444 0)
(0.116786 -1.18827 0)
(0.116924 -1.22806 0)
(0.114872 -1.27552 0)
(0.109408 -1.33244 0)
(0.10213 -1.39867 0)
(0.00392755 -0.952496 0)
(0.0106409 -0.975471 0)
(0.017146 -0.974946 0)
(0.0239176 -0.977264 0)
(0.0305307 -0.980592 0)
(0.0370497 -0.984881 0)
(0.0434279 -0.990194 0)
(0.0496351 -0.996577 0)
(0.0556345 -1.00411 0)
(0.0613769 -1.0129 0)
(0.0667993 -1.02307 0)
(0.0718127 -1.03481 0)
(0.0762993 -1.04834 0)
(0.0801329 -1.06398 0)
(0.0831241 -1.08203 0)
(0.0851148 -1.10285 0)
(0.0857715 -1.12677 0)
(0.0846837 -1.15435 0)
(0.0814725 -1.18616 0)
(0.0758587 -1.22344 0)
(0.0670274 -1.2678 0)
(0.0536238 -1.32108 0)
(0.0371695 -1.38313 0)
(0.0034786 -0.959496 0)
(0.00940136 -0.981531 0)
(0.0151278 -0.981304 0)
(0.021059 -0.983522 0)
(0.0267969 -0.986731 0)
(0.0324082 -0.990866 0)
(0.0378201 -0.995989 0)
(0.0429948 -1.00214 0)
(0.047871 -1.00938 0)
(0.0523734 -1.0178 0)
(0.0564037 -1.02751 0)
(0.0598339 -1.03867 0)
(0.0624982 -1.05147 0)
(0.0642285 -1.06617 0)
(0.0647881 -1.08306 0)
(0.0639708 -1.10241 0)
(0.0613584 -1.12456 0)
(0.0564588 -1.14985 0)
(0.0488172 -1.17894 0)
(0.0379272 -1.21275 0)
(0.0228913 -1.25294 0)
(0.00228028 -1.30116 0)
(-0.0227653 -1.35745 0)
(0.00310326 -0.965631 0)
(0.00829946 -0.986831 0)
(0.0132757 -0.986818 0)
(0.0184186 -0.98891 0)
(0.0233176 -0.991967 0)
(0.0280689 -0.995904 0)
(0.0325624 -1.00078 0)
(0.0367607 -1.00661 0)
(0.0405819 -1.01347 0)
(0.0439329 -1.0214 0)
(0.0466859 -1.0305 0)
(0.0486792 -1.0409 0)
(0.0497123 -1.05274 0)
(0.0495715 -1.06622 0)
(0.0480031 -1.08161 0)
(0.0447198 -1.09911 0)
(0.0392731 -1.11901 0)
(0.031079 -1.14152 0)
(0.019563 -1.16718 0)
(0.00417337 -1.19678 0)
(-0.0162302 -1.23173 0)
(-0.0431682 -1.27367 0)
(-0.0758188 -1.3226 0)
(0.00283692 -0.971009 0)
(0.00739179 -0.991413 0)
(0.0116369 -0.991512 0)
(0.0160586 -0.993458 0)
(0.0201704 -0.996327 0)
(0.0241253 -1.00002 0)
(0.0277666 -1.00459 0)
(0.0310612 -1.01005 0)
(0.0339125 -1.01642 0)
(0.0362155 -1.02377 0)
(0.0378256 -1.03214 0)
(0.0385548 -1.04161 0)
(0.0381799 -1.0523 0)
(0.0364513 -1.06436 0)
(0.0330911 -1.07797 0)
(0.0277652 -1.09332 0)
(0.0199817 -1.11057 0)
(0.00910708 -1.12989 0)
(-0.00553118 -1.1516 0)
(-0.0245823 -1.17632 0)
(-0.0492827 -1.20525 0)
(-0.0812831 -1.23981 0)
(-0.120168 -1.27999 0)
(0.00268469 -0.975945 0)
(0.00669477 -0.995479 0)
(0.0102287 -0.995581 0)
(0.014003 -0.997374 0)
(0.0173973 -1.00002 0)
(0.0206368 -1.00344 0)
(0.0235162 -1.00765 0)
(0.0260044 -1.01266 0)
(0.0279945 -1.01849 0)
(0.0293749 -1.02516 0)
(0.0299935 -1.03269 0)
(0.0296499 -1.04114 0)
(0.0281071 -1.05055 0)
(0.0250947 -1.06101 0)
(0.0203165 -1.07265 0)
(0.0134107 -1.08558 0)
(0.00386092 -1.09991 0)
(-0.00901412 -1.1157 0)
(-0.0259417 -1.13308 0)
(-0.0476476 -1.15245 0)
(-0.0754089 -1.17472 0)
(-0.11097 -1.20109 0)
(-0.154336 -1.23149 0)
(0.0026208 -0.980749 0)
(0.00617007 -0.9992 0)
(0.00901564 -0.999216 0)
(0.0122128 -1.00087 0)
(0.014973 -1.00329 0)
(0.0175899 -1.00641 0)
(0.0198202 -1.01024 0)
(0.0216284 -1.01477 0)
(0.0228997 -1.02 0)
(0.023517 -1.02594 0)
(0.0233256 -1.03259 0)
(0.0221267 -1.03994 0)
(0.0196763 -1.048 0)
(0.0156986 -1.0568 0)
(0.00989414 -1.06636 0)
(0.001895 -1.07674 0)
(-0.0088248 -1.08797 0)
(-0.0229675 -1.1 0)
(-0.0412961 -1.11281 0)
(-0.0645774 -1.12653 0)
(-0.0940579 -1.14176 0)
(-0.131511 -1.15944 0)
(-0.177329 -1.1794 0)
(0.00258928 -0.985131 0)
(0.00573244 -1.0022 0)
(0.00792611 -1.00208 0)
(0.010602 -1.00362 0)
(0.0128136 -1.00582 0)
(0.0149033 -1.00865 0)
(0.0166101 -1.01209 0)
(0.0178857 -1.01613 0)
(0.0186108 -1.02076 0)
(0.0186623 -1.02595 0)
(0.0178855 -1.03169 0)
(0.016084 -1.03794 0)
(0.0130182 -1.04466 0)
(0.00841792 -1.0518 0)
(0.0019916 -1.05932 0)
(-0.00661317 -1.06718 0)
(-0.0179037 -1.07531 0)
(-0.0325769 -1.08359 0)
(-0.0514062 -1.09182 0)
(-0.0751634 -1.09989 0)
(-0.104996 -1.10807 0)
(-0.142617 -1.11697 0)
(-0.188724 -1.12632 0)
(0.00253752 -0.988466 0)
(0.00530039 -1.00384 0)
(0.00690045 -1.00357 0)
(0.00910677 -1.00502 0)
(0.0108597 -1.00702 0)
(0.0125177 -1.00956 0)
(0.013827 -1.01261 0)
(0.0147239 -1.01615 0)
(0.0150909 -1.02014 0)
(0.0148007 -1.02456 0)
(0.0136978 -1.02937 0)
(0.0115915 -1.03449 0)
(0.00824648 -1.03986 0)
(0.00340202 -1.04537 0)
(-0.00322071 -1.05091 0)
(-0.0119471 -1.05634 0)
(-0.0232403 -1.06152 0)
(-0.0377527 -1.06621 0)
(-0.056231 -1.07009 0)
(-0.0794194 -1.07283 0)
(-0.108315 -1.07439 0)
(-0.144467 -1.07501 0)
(-0.188759 -1.07425 0)
(0.00244022 -0.991472 0)
(0.00483066 -1.00488 0)
(0.00591897 -1.00448 0)
(0.00772077 -1.00586 0)
(0.00911226 -1.00767 0)
(0.0104359 -1.00994 0)
(0.0114677 -1.01261 0)
(0.012136 -1.01565 0)
(0.0123318 -1.01902 0)
(0.0119304 -1.02266 0)
(0.0107833 -1.02651 0)
(0.00870837 -1.03048 0)
(0.00547863 -1.03446 0)
(0.000840542 -1.0383 0)
(-0.00547588 -1.04185 0)
(-0.0137748 -1.04488 0)
(-0.0244704 -1.04717 0)
(-0.0381443 -1.04837 0)
(-0.0554792 -1.04808 0)
(-0.0771633 -1.04581 0)
(-0.104017 -1.04128 0)
(-0.137346 -1.0344 0)
(-0.178086 -1.0245 0)
(0.00228166 -0.996407 0)
(0.00428191 -1.0076 0)
(0.00492916 -1.00718 0)
(0.00637659 -1.00855 0)
(0.00748262 -1.01026 0)
(0.0085473 -1.01235 0)
(0.00939104 -1.01475 0)
(0.0099456 -1.01741 0)
(0.0101168 -1.02029 0)
(0.00980024 -1.02331 0)
(0.00886941 -1.02636 0)
(0.0071603 -1.02934 0)
(0.0044709 -1.03209 0)
(0.000565943 -1.03442 0)
(-0.00481255 -1.03612 0)
(-0.0119532 -1.03693 0)
(-0.0212328 -1.0365 0)
(-0.0331659 -1.03441 0)
(-0.0483608 -1.03014 0)
(-0.0674472 -1.02312 0)
(-0.0910997 -1.01286 0)
(-0.120403 -0.998956 0)
(-0.156295 -0.980651 0)
(0.00200193 -1.00339 0)
(0.00354035 -1.01211 0)
(0.00378017 -1.01193 0)
(0.00485661 -1.01336 0)
(0.00568139 -1.01509 0)
(0.00648319 -1.01714 0)
(0.00713909 -1.01945 0)
(0.00759752 -1.02196 0)
(0.00778714 -1.02461 0)
(0.00763644 -1.0273 0)
(0.00705683 -1.02991 0)
(0.00591921 -1.0323 0)
(0.00407128 -1.03429 0)
(0.00132001 -1.03565 0)
(-0.00254614 -1.03612 0)
(-0.00776513 -1.03536 0)
(-0.0146591 -1.03297 0)
(-0.0236644 -1.02842 0)
(-0.0352988 -1.02108 0)
(-0.0501103 -1.01023 0)
(-0.0686798 -0.995152 0)
(-0.0919869 -0.975125 0)
(-0.121088 -0.949217 0)
(0.0014917 -1.00732 0)
(0.00246003 -1.01341 0)
(0.00234847 -1.01375 0)
(0.00296867 -1.01526 0)