/*--------------------------------*- C++ -*----------------------------------*\
| =========                 |                                                 |
| \\      /  F ield         | OpenFOAM: The Open Source CFD Toolbox           |
|  \\    /   O peration     | Version:  2206                                  |
|   \\  /    A nd           | Website:  www.openfoam.com                      |
|    \\/     M anipulation  |                                                 |
\*---------------------------------------------------------------------------*/
FoamFile
{
    version     2.0;
    format      ascii;
    arch        "LSB;label=32;scalar=64";
    class       volScalarField;
    location    "0.425";
    object      p_rgh;
}
// * * * * * * * * * * * * * * * * * * * * * * * * * * * * * * * * * * * * * //

dimensions      [1 -1 -2 0 0 0 0];

internalField   nonuniform List<scalar> 
2268
(
1080.95
1081.43
1082.09
1082.64
1082.93
1083.04
1083.14
1083.39
1083.86
1084.6
1085.66
1087.04
1088.79
1090.89
1093.31
1096
1098.82
1101.59
1104.06
1105.98
1107.33
1108.36
1109.26
1080.53
1081.02
1081.69
1082.27
1082.58
1082.7
1082.81
1083.06
1083.53
1084.27
1085.32
1086.68
1088.34
1090.32
1092.63
1095.24
1098.08
1101.01
1103.74
1105.99
1107.59
1108.83
1110
1079.68
1080.17
1080.89
1081.52
1081.87
1082.01
1082.12
1082.37
1082.85
1083.6
1084.66
1086.03
1087.72
1089.73
1092
1094.53
1097.23
1100.02
1102.79
1105.45
1107.91
1110.17
1111.97
1078.35
1078.85
1079.65
1080.34
1080.75
1080.92
1081.06
1081.32
1081.81
1082.58
1083.67
1085.06
1086.77
1088.77
1091.04
1093.55
1096.23
1099
1101.8
1104.62
1107.51
1110.36
1112.6
1076.5
1077
1077.91
1078.69
1079.17
1079.39
1079.57
1079.86
1080.38
1081.19
1082.31
1083.74
1085.48
1087.5
1089.79
1092.3
1094.98
1097.77
1100.6
1103.42
1106.25
1109.02
1111.33
1074.06
1074.57
1075.62
1076.48
1077.05
1077.36
1077.6
1077.95
1078.53
1079.39
1080.56
1082.05
1083.82
1085.88
1088.17
1090.67
1093.33
1096.06
1098.8
1101.45
1103.9
1106.05
1107.53
1070.99
1071.49
1072.71
1073.67
1074.38
1074.81
1075.14
1075.57
1076.23
1077.17
1078.41
1079.94
1081.76
1083.83
1086.12
1088.58
1091.13
1093.68
1096.08
1098.14
1099.5
1099.57
1097.69
1067.21
1067.84
1069.08
1070.3
1071.18
1071.72
1072.16
1072.72
1073.51
1074.56
1075.88
1077.48
1079.33
1081.41
1083.65
1086
1088.34
1090.53
1092.32
1093.4
1092.97
1090.73
1076.83
425.864
311.524
249.478
244.905
279.569
331.707
444.062
668.399
866.432
822.097
699.099
691.424
811.489
967.791
1060.48
1060.01
949.706
944.38
1318.88
430.671
277.993
223.264
227.654
257.03
305.984
408.531
641.506
841.327
788.358
673.08
664.933
782.511
954.117
1077.27
1063.4
940.026
886.02
1294.69
409
249.495
217.398
225.812
255.964
303.251
455.623
658.539
764.564
712.534
618.495
610.758
709.919
877.998
1034.34
1109.47
930.678
809.939
1247.4
404.054
246.349
219.251
226.422
255.5
356.191
516.123
620.262
681.307
633.769
559.69
552.196
628.016
775.748
941.074
1067.8
917.969
744.702
1207.69
414.236
260.075
225.877
229.14
307.997
488.226
529.354
579.23
600.549
548.5
488.109
484.541
541.673
671.193
832.692
974.185
973.938
768.51
1241.22
397.785
274.801
231.567
288.165
503.596
531.063
526.724
538.529
519.076
446.379
372.17
367.275
437.713
555.609
719.594
876.24
997.533
896.02
1351.21
378.023
287.619
326.319
549.015
566.131
543.533
524.933
501.2
386.431
202.899
95.4456
89.9286
146.87
392.372
599.213
778.968
972.991
1122.73
1528.68
510.907
523.635
632.474
606.418
587.054
557.487
523.344
379.117
124.3
2.98285
0.0682713
-0.121339
0.738577
60.4809
440.548
679.075
934.298
1231.53
1691.49
1059.96
1060.69
1062.2
1063.85
1065.12
1065.93
1066.6
1067.42
1068.46
1069.72
1071.2
1072.91
1074.8
1076.85
1078.96
1081.03
1082.84
1084.02
1083.85
1081.1
1071.87
1051.26
993.728
1046.02
1045.48
1047.09
1050.46
1053.52
1055.41
1056.7
1057.94
1059.33
1060.85
1062.51
1064.29
1066.15
1068.05
1069.85
1071.4
1072.43
1072.55
1071.14
1067.35
1060.15
1048.7
1034.01
1032.55
1028.09
1028.92
1035.38
1041.1
1043.59
1044.94
1046.39
1048.01
1049.74
1051.56
1053.44
1055.33
1057.16
1058.84
1060.25
1061.19
1061.41
1060.59
1058.2
1053.69
1045.85
1035.04
1032.8
1022.17
963.312
966.968
992.984
1002.61
1004.91
1009.06
1013.62
1017.79
1021.8
1025.79
1029.55
1033.02
1036.15
1038.92
1041.2
1042.76
1043.38
1042.68
1040.22
1035.76
1028.95
912.325
626.995
295.35
312.605
388.897
394.379
390.188
397.344
410.043
423.588
437.194
451.223
465.581
479.597
492.812
505.375
517.138
527.328
535.185
537.647
535.828
529.4
513.993
37.1043
-0.214575
-0.277284
-0.19833
-0.208097
-0.207764
-0.206478
-0.205794
-0.206201
-0.206781
-0.207308
-0.208132
-0.209349
-0.210992
-0.21323
-0.216286
-0.220315
-0.225511
-0.232051
-0.239692
-0.248574
-0.25863
-0.268592
-0.298004
-0.325523
-0.313209
-0.2599
-0.241935
-0.229459
-0.225857
-0.2241
-0.223236
-0.22289
-0.22288
-0.223288
-0.224164
-0.225518
-0.227465
-0.230198
-0.233877
-0.238611
-0.244542
-0.25155
-0.259344
-0.26718
-0.274938
-0.253075
-0.242212
-0.235838
-0.259871
-0.25362
-0.249025
-0.24704
-0.246101
-0.24593
-0.246186
-0.24673
-0.247643
-0.249017
-0.250916
-0.253466
-0.256926
-0.261589
-0.267598
-0.27497
-0.283526
-0.29264
-0.300607
-0.307287
-0.272021
-0.272123
-0.269171
-0.274885
-0.275092
-0.273747
-0.272983
-0.27262
-0.272696
-0.273294
-0.274388
-0.275985
-0.278161
-0.28105
-0.284881
-0.290002
-0.296858
-0.305769
-0.316684
-0.329138
-0.341843
-0.353195
-0.362432
-0.294681
-0.293993
-0.293154
-0.294161
-0.295167
-0.295617
-0.296089
-0.29686
-0.297983
-0.299527
-0.301555
-0.304135
-0.30739
-0.311556
-0.31707
-0.324565
-0.334712
-0.347839
-0.363745
-0.381726
-0.400012
-0.418733
-0.434222
-0.314143
-0.314179
-0.31471
-0.315549
-0.316668
-0.317934
-0.319385
-0.321124
-0.323228
-0.325773
-0.328846
-0.332551
-0.33707
-0.342771
-0.35028
-0.36042
-0.373857
-0.39064
-0.410221
-0.431177
-0.434375
-0.464863
-0.49557
-0.334671
-0.335138
-0.335926
-0.336987
-0.338407
-0.340165
-0.342269
-0.344764
-0.34771
-0.35117
-0.355225
-0.359987
-0.365681
-0.372733
-0.381803
-0.393686
-0.408856
-0.426665
-0.442262
-0.435479
-0.432297
-0.465706
-0.532282
-0.354091
-0.354796
-0.35582
-0.357192
-0.358983
-0.361204
-0.363876
-0.367031
-0.370712
-0.374973
-0.379885
-0.385557
-0.39219
-0.400159
-0.410009
-0.422343
-0.437391
-0.445188
-0.418904
-0.430449
-0.45739
-0.483859
-0.56197
-0.372307
-0.373143
-0.374325
-0.375932
-0.378028
-0.380623
-0.383746
-0.387425
-0.3917
-0.396614
-0.402234
-0.40866
-0.416027
-0.424569
-0.434623
-0.446674
-0.460749
-0.455496
-0.423281
-0.44455
-0.467037
-0.490351
-0.574086
-0.388844
-0.389716
-0.390989
-0.392763
-0.395087
-0.397968
-0.401433
-0.405512
-0.410241
-0.415662
-0.421833
-0.428831
-0.43674
-0.445666
-0.455869
-0.467524
-0.480695
-0.482792
-0.438021
-0.453332
-0.472123
-0.491457
-0.5222
-0.403317
-0.404175
-0.405496
-0.407364
-0.40983
-0.412899
-0.416596
-0.420946
-0.425982
-0.431743
-0.438276
-0.44563
-0.453858
-0.463074
-0.473368
-0.484829
-0.497528
-0.511535
-0.513848
-0.47071
-0.478636
-0.496972
-0.527609
-0.415422
-0.416231
-0.417567
-0.419485
-0.422029
-0.425202
-0.429026
-0.433522
-0.438717
-0.444642
-0.451331
-0.458813
-0.467158
-0.476409
-0.486618
-0.497827
-0.51008
-0.523398
-0.537716
-0.548732
-0.529212
-0.560604
-0.602114
-0.424997
-0.425742
-0.427065
-0.428994
-0.431563
-0.434773
-0.438639
-0.443178
-0.448405
-0.454346
-0.461029
-0.46848
-0.476731
-0.485812
-0.49575
-0.506565
-0.518274
-0.530882
-0.544362
-0.558629
-0.573564
-0.589025
-0.605297
-0.431981
-0.43268
-0.433982
-0.435891
-0.438444
-0.441633
-0.44547
-0.449966
-0.455136
-0.460995
-0.467562
-0.474854
-0.482892
-0.491694
-0.501275
-0.511642
-0.522798
-0.534746
-0.54748
-0.560954
-0.575119
-0.589961
-0.605558
-0.43638
-0.437046
-0.438323
-0.440201
-0.442703
-0.445829
-0.449585
-0.453981
-0.459027
-0.464733
-0.471113
-0.478177
-0.485939
-0.494413
-0.503605
-0.513522
-0.524163
-0.535526
-0.547615
-0.560404
-0.573887
-0.588082
-0.603001
-0.438291
-0.438924
-0.44016
-0.441981
-0.444406
-0.447433
-0.45107
-0.455322
-0.460197
-0.465703
-0.471848
-0.478642
-0.486094
-0.494211
-0.503002
-0.512469
-0.522617
-0.533444
-0.544943
-0.557121
-0.569975
-0.583525
-0.597773
-0.43774
-0.438339
-0.439525
-0.441272
-0.443599
-0.446505
-0.449995
-0.454074
-0.458748
-0.464022
-0.469905
-0.476401
-0.483519
-0.491266
-0.499646
-0.508664
-0.518325
-0.528628
-0.539575
-0.551167
-0.563415
-0.576331
-0.589921
-0.434754
-0.43532
-0.436443
-0.438107
-0.440324
-0.443094
-0.446423
-0.450312
-0.454767
-0.459792
-0.465394
-0.471577
-0.478349
-0.485714
-0.493677
-0.502245
-0.511419
-0.521203
-0.5316
-0.542613
-0.554252
-0.566531
-0.57946
-0.429391
-0.429922
-0.43098
-0.432555
-0.434657
-0.437285
-0.440443
-0.444132
-0.448358
-0.453123
-0.458433
-0.464293
-0.470708
-0.477685
-0.485226
-0.493337
-0.502021
-0.511283
-0.521125
-0.531553
-0.542575
-0.554205
-0.566454
-0.42176
-0.422255
-0.42325
-0.424736
-0.42672
-0.429202
-0.432184
-0.435667
-0.439656
-0.444153
-0.449163
-0.454692
-0.460743
-0.467323
-0.474434
-0.482081
-0.490267
-0.498997
-0.508275
-0.518103
-0.52849
-0.53945
-0.550992
-0.412025
-0.412486
-0.413419
-0.414815
-0.416679
-0.41901
-0.42181
-0.425081
-0.428825
-0.433047
-0.437749
-0.442938
-0.448617
-0.454791
-0.461463
-0.468636
-0.476314
-0.4845
-0.493196
-0.502407
-0.512137
-0.5224
-0.533202
-0.400367
-0.400796
-0.401668
-0.402972
-0.404712
-0.406887
-0.4095
-0.412551
-0.416044
-0.419981
-0.424367
-0.429207
-0.434504
-0.440262
-0.446484
-0.453172
-0.460328
-0.467955
-0.476054
-0.484626
-0.493677
-0.503214
-0.513243
-0.386962
-0.38736
-0.388168
-0.389378
-0.39099
-0.393006
-0.395426
-0.398251
-0.401484
-0.40513
-0.409191
-0.413673
-0.418579
-0.423911
-0.429671
-0.435862
-0.442483
-0.449537
-0.457021
-0.464937
-0.473285
-0.482071
-0.491296
-0.371966
-0.372335
-0.373078
-0.37419
-0.375672
-0.377523
-0.379745
-0.382339
-0.385309
-0.388656
-0.392387
-0.396503
-0.401008
-0.405905
-0.411195
-0.416877
-0.422953
-0.429421
-0.436278
-0.44352
-0.451148
-0.459163
-0.467562
-0.355518
-0.355856
-0.356535
-0.357547
-0.358896
-0.360581
-0.362603
-0.364963
-0.367665
-0.370712
-0.374107
-0.377853
-0.381953
-0.386408
-0.39122
-0.396388
-0.401911
-0.407785
-0.414005
-0.420565
-0.427462
-0.434693
-0.442251
-0.337747
-0.338053
-0.338666
-0.339578
-0.340794
-0.342312
-0.344133
-0.346259
-0.348694
-0.351438
-0.354497
-0.357871
-0.361564
-0.365576
-0.369908
-0.374559
-0.379526
-0.384804
-0.390385
-0.39626
-0.402423
-0.408867
-0.415581
-0.318782
-0.319053
-0.319599
-0.320412
-0.321493
-0.322845
-0.324467
-0.326361
-0.328528
-0.330973
-0.333696
-0.3367
-0.339987
-0.343558
-0.347413
-0.351549
-0.355964
-0.360649
-0.365595
-0.370789
-0.376222
-0.381884
-0.387761
-0.298745
-0.298978
-0.299454
-0.300168
-0.301116
-0.302303
-0.303728
-0.305393
-0.307298
-0.309446
-0.311838
-0.314477
-0.317364
-0.320499
-0.323883
-0.327512
-0.331381
-0.335482
-0.339802
-0.344326
-0.349042
-0.353936
-0.358993
-0.277746
-0.27794
-0.278345
-0.27896
-0.279778
-0.280804
-0.282037
-0.283477
-0.285125
-0.286984
-0.289053
-0.291335
-0.29383
-0.296539
-0.299462
-0.302594
-0.30593
-0.309459
-0.313168
-0.317039
-0.321057
-0.325206
-0.329471
-0.255911
-0.256065
-0.256405
-0.256921
-0.257613
-0.258485
-0.259532
-0.260755
-0.262155
-0.263733
-0.265489
-0.267424
-0.269539
-0.271834
-0.274308
-0.276957
-0.279774
-0.282747
-0.285863
-0.289102
-0.292448
-0.295883
-0.29939
-0.233391
-0.233474
-0.233761
-0.234185
-0.234759
-0.235485
-0.236354
-0.23737
-0.238532
-0.239841
-0.241295
-0.242896
-0.244644
-0.246538
-0.248577
-0.250758
-0.253072
-0.255508
-0.258052
-0.260685
-0.263387
-0.266141
-0.26893
-0.21021
-0.210205
-0.210445
-0.210788
-0.211249
-0.21184
-0.212543
-0.213364
-0.214301
-0.215352
-0.216518
-0.217798
-0.219193
-0.220702
-0.222324
-0.224054
-0.225885
-0.227807
-0.229804
-0.231858
-0.233949
-0.236059
-0.238171
-0.186333
-0.186295
-0.186469
-0.186757
-0.187114
-0.187582
-0.18813
-0.188767
-0.189489
-0.190295
-0.191186
-0.19216
-0.193217
-0.194357
-0.195577
-0.196875
-0.198243
-0.199672
-0.201148
-0.202653
-0.204166
-0.205671
-0.207152
-0.162094
-0.162148
-0.162267
-0.162519
-0.162766
-0.163126
-0.163534
-0.163999
-0.16452
-0.165095
-0.165724
-0.166405
-0.167138
-0.167923
-0.168757
-0.169639
-0.170561
-0.171517
-0.172492
-0.173471
-0.174437
-0.175373
-0.176271
-0.138118
-0.138333
-0.138396
-0.138615
-0.138822
-0.139085
-0.139368
-0.13968
-0.140016
-0.140377
-0.14076
-0.141165
-0.141591
-0.142037
-0.142503
-0.142986
-0.143483
-0.143984
-0.144481
-0.144961
-0.14541
-0.145817
-0.146178
-0.113783
-0.114086
-0.114158
-0.114391
-0.114579
-0.114788
-0.114966
-0.115136
-0.1153
-0.115456
-0.115604
-0.115743
-0.115874
-0.115997
-0.116109
-0.11621
-0.116295
-0.11636
-0.1164
-0.116408
-0.116376
-0.116295
-0.116161
-0.0859705
-0.087037
-0.0872747
-0.0875471
-0.0877119
-0.0878171
-0.087869
-0.0878764
-0.0878442
-0.087775
-0.0876695
-0.0875279
-0.0873501
-0.0871356
-0.086883
-0.0865905
-0.0862564
-0.0858799
-0.0854611
-0.0849988
-0.0844903
-0.0839316
-0.0833185
796.791
967.259
982.846
906.221
981.448
974.717
971.673
920.773
994.319
968.657
954.999
919.664
1000.18
913.59
750.051
541.509
410.781
197.38
4.24997
-0.587542
-0.286328
-0.264844
-0.265757
-0.628047
-0.287643
-0.234407
0.256095
0.00636646
-0.309226
1.03388
1.10128
0.757706
0.261152
1.35311
1.04749
0.776769
0.359917
1.32803
0.955581
-0.931402
-0.533477
0.0135107
-0.910456
-1.00219
-0.574129
-0.71005
-0.862427
-0.939481
-0.602609
-0.717134
-0.829463
-0.901071
-0.620153
-0.718642
-0.809067
-0.880233
-0.607581
-0.716281
-0.796929
-0.869429
-0.600072
-0.714291
-0.790192
-0.863708
-0.642153
-0.711496
-0.785655
-0.859825
-0.643393
-0.709746
-0.781163
-0.855773
-0.641901
-0.70553
-0.775511
-0.850575
-0.637747
-0.699186
-0.767878
-0.843345
-0.631013
-0.690409
-0.757686
-0.833142
-0.621679
-0.678963
-0.744536
-0.819327
-0.609718
-0.664707
-0.728178
-0.801481
-0.595155
-0.6476
-0.7085
-0.779421
-0.578054
-0.627681
-0.685517
-0.753174
-0.558533
-0.605065
-0.659362
-0.722945
-0.536752
-0.579936
-0.630273
-0.689091
-0.512904
-0.55253
-0.598565
-0.652082
-0.487209
-0.523122
-0.564611
-0.61246
-0.459901
-0.49201
-0.528815
-0.570806
-0.431223
-0.459502
-0.491593
-0.527702
-0.401414
-0.425902
-0.453349
-0.483705
-0.3707
-0.391499
-0.414459
-0.43932
-0.339301
-0.356558
-0.375261
-0.394984
-0.307429
-0.321334
-0.336061
-0.351071
-0.275277
-0.286048
-0.297119
-0.307885
-0.242932
-0.250813
-0.258578
-0.2656
-0.210442
-0.215682
-0.220491
-0.224262
-0.178214
-0.181041
-0.183188
-0.184115
-0.146888
-0.147523
-0.147269
-0.145665
-0.115737
-0.114407
-0.112032
-0.108239
-0.0818085
-0.0786463
-0.0743857
-0.0687866
815.422
739.275
689.779
655.782
623.102
531.121
355.473
91.8686
0.648206
-0.250386
-0.359004
-0.26464
-0.0960475
0.660822
54.485
357.767
843.218
1307.87
1856.65
855.327
795.681
749.553
657.608
472.112
91.379
-0.310377
-0.546435
-0.430503
-0.441848
-0.367215
-0.26815
-0.156666
0.0314182
0.937257
13.0915
579.934
1183.21
1805.7
856.901
730.526
516.779
121.717
-0.792353
-0.78993
-0.740171
-0.71822
-0.618435
-0.52563
-0.447244
-0.351351
-0.215176
-0.0536551
0.183556
1.65968
203.906
937.875
1597.38
313.023
41.9991
-1.03577
-0.871648
-0.822413
-0.831594
-0.816927
-0.786292
-0.720251
-0.628935
-0.532344
-0.415167
-0.27623
-0.140372
-0.0710646
0.0368902
2.1339
795.132
1410.97
-0.925321
-0.900553
-0.8901
-0.856778
-0.838267
-0.838767
-0.84099
-0.835464
-0.800536
-0.726016
-0.609022
-0.478104
-0.338472
-0.210114
-0.135339
-0.0274973
0.272746
829.486
1321.99
-0.879427
-0.910488
-0.873174
-0.84198
-0.829681
-0.835071
-0.844325
-0.841526
-0.809784
-0.740183
-0.634623
-0.512462
-0.382026
-0.249335
-0.150066
0.0365814
3.9512
654.698
1304.53
-0.533611
-0.908236
-0.881452
-0.843843
-0.839368
-0.844901
-0.843439
-0.824296
-0.78031
-0.70865
-0.61734
-0.51321
-0.40365
-0.27836
-0.204534
0.0575633
23.3138
619.676
1334.63
0.0156509
-0.973788
-0.908432
-0.873839
-0.86816
-0.86584
-0.853733
-0.823615
-0.770242
-0.694548
-0.604495
-0.5099
-0.418629
-0.324747
-0.303695
-0.0679803
165.607
1027.75
1400.48
-0.712777
-1.002
-0.935547
-0.906823
-0.898669
-0.892407
-0.875965
-0.841942
-0.786227
-0.710229
-0.62148
-0.532153
-0.453805
-0.397175
-0.4286
-0.406838
232.165
1362.73
1479.02
-1.05656
-0.989663
-0.949423
-0.932642
-0.928559
-0.92392
-0.908716
-0.876475
-0.823838
-0.752649
-0.670035
-0.589219
-0.52514
-0.516576
-0.580079
0.534058
78.554
1036.77
1569.43
-1.0005
-0.974196
-0.959903
-0.956436
-0.959832
-0.960997
-0.951807
-0.926491
-0.881763
-0.819559
-0.746767
-0.678223
-0.633639
-0.672531
-0.760119
-0.900841
-1.87739
239.135
1693.43
-0.962532
-0.964401
-0.970818
-0.980634
-0.994025
-1.00475
-1.00594
-0.992465
-0.960712
-0.912176
-0.854635
-0.799905
-0.777631
-0.85108
-0.95012
-1.3306
-1.31309
53.8604
1818.31
-0.940444
-0.961588
-0.983768
-1.00713
-1.0325
-1.05601
-1.07197
-1.07582
-1.06313
-1.03498
-1.00226
-0.962971
-0.96641
-1.06105
-1.12398
-1.26264
-0.946577
79.5481
1943.7
-0.928815
-0.964171
-0.99949
-1.03646
-1.07573
-1.11529
-1.15077
-1.1785
-1.19269
-1.19286
-1.1831
-1.18705
-1.23711
-1.36465
-1.38376
-1.30035
-1.01008
116.652
2065.82
-0.923751
-0.97035
-1.01767
-1.06836
-1.12334
-1.18227
-1.24252
-1.30256
-1.35574
-1.40456
-1.45963
-1.52038
-1.67709
-1.88386
-1.85009
-1.57303
-1.2268
146.613
2186.14
-0.922368
-0.978605
-1.03725
-1.10177
-1.17399
-1.25548
-1.34594
-1.44849
-1.55681
-1.69049
-1.87358
-2.07252
-2.46782
-2.86097
-2.7043
-2.11708
-1.64577
180.564
2305.29
-0.923158
-0.987452
-1.0567
-1.13494
-1.22531
-1.33177
-1.45735
-1.61239
-1.793
-2.06344
-2.44758
-2.93089
-3.69371
-4.42979
-4.10767
-3.0514
-2.35811
214.922
2423.08
-0.924403
-0.995288
-1.07419
-1.16555
-1.27413
-1.40644
-1.57022
-1.78402
-2.05146
-2.49955
-3.08105
-2.92899
-2.24589
-7.07307
-6.19008
-4.47834
-3.39399
243.476
2540.42
-0.924102
-1.00034
-1.08769
-1.191
-1.31667
-1.47366
-1.6756
-1.94816
-2.30963
-2.93312
-3.67689
2.31308
-0.456428
-3.63752
-8.0853
-6.28761
-4.58169
255.298
2657.41
-0.920757
-1.00101
-1.09527
-1.2087
-1.34904
-1.52731
-1.76327
-2.0882
-2.53866
-3.29905
-4.2013
3.0797
-1.73454
-4.24768
-9.98096
-8.01242
-5.5113
273.955
2735.16
-0.912667
-0.996631
-1.09529
-1.21638
-1.36806
-1.56158
-1.82367
-2.18889
-2.71209
-3.57398
-4.61222
-1.04655
-1.97664
-10.6654
-9.70724
-9.05502
-6.49195
320.536
2711.03
-0.899526
-0.984932
-1.08673
-1.21237
-1.37193
-1.57147
-1.84942
-2.23754
-2.80751
-3.73978
-4.75038
-3.16906
-4.58125
-12.9088
-11.1946
-9.34646
-6.77236
334.381
2734.98
-0.880917
-0.965979
-1.06796
-1.19376
-1.35293
-1.55823
-1.83915
-2.22906
-2.81329
-3.74964
-4.53902
-2.40744
-4.00839
-11.7602
-10.7007
-8.83984
-6.18486
256.61
2854.85
-0.856699
-0.939624
-1.03912
-1.16155
-1.31605
-1.51664
-1.78739
-2.16121
-2.72574
-3.59601
-3.98126
0.250538
-4.90971
-10.2497
-9.52643
-7.80198
-5.34735
226.721
2953.89
-0.82699
-0.906096
-1.0007
-1.11644
-1.2616
-1.44901
-1.6984
-2.03979
-2.55145
-3.31817
-3.81706
1.41816
-2.00317
-8.98448
-8.69691
-6.39438
-2.64033
706.001
2705.26
-0.79215
-0.865965
-0.953626
-1.05983
-1.19151
-1.35921
-1.57849
-1.87373
-2.30694
-2.95287
-3.62558
2.11272
7.78936
-7.96913
-7.44184
-3.5526
260.573
795.332
747.492
-0.752737
-0.820076
-0.899185
-0.993686
-1.10884
-1.25242
-1.43566
-1.67565
-2.01512
-2.52379
-3.08028
-2.34809
47.5788
69.6052
85.7845
272.257
594.936
635.01
34.1368
-0.70946
-0.769472
-0.838935
-0.920347
-1.01721
-1.1345
-1.2791
-1.4605
-1.70251
-2.04997
-2.40436
-1.98877
44.5343
214.936
264.868
297.662
307.968
75.9317
8.7386
-0.663116
-0.715302
-0.774555
-0.8423
-0.920401
-1.0113
-1.11804
-1.24376
-1.39721
-1.6014
-1.80276
-1.51448
19.4323
93.7765
150.931
139.003
37.6868
9.05095
2.36116
-0.614541
-0.658742
-0.707713
-0.761942
-0.821912
-0.888026
-0.960362
-1.03773
-1.1198
-1.21177
-1.28592
-0.999051
1.4313
4.39903
10.8518
12.0129
7.97036
2.34544
0.763669
-0.564553
-0.600913
-0.639957
-0.681419
-0.724724
-0.768809
-0.811759
-0.849871
-0.878223
-0.891136
-0.866023
-0.71221
-0.091689
1.12891
3.05462
3.64324
2.62671
0.765612
0.414169
-0.513914
-0.542832
-0.572641
-0.60252
-0.63117
-0.65661
-0.67582
-0.68397
-0.674455
-0.637932
-0.553405
-0.394306
-0.0661036
0.52195
1.18089
1.43405
1.07993
0.469982
0.370368
-0.463296
-0.485368
-0.506878
-0.526638
-0.542926
-0.553312
-0.554349
-0.54104
-0.506828
-0.443357
-0.340701
-0.170951
0.073477
0.396327
0.698395
0.801542
0.658438
0.430577
0.378851
-0.413257
-0.429211
-0.443509
-0.454755
-0.46106
-0.459877
-0.447814
-0.420326
-0.371756
-0.29552
-0.184662
-0.0290967
0.166967
0.382961
0.557129
0.608724
0.536757
0.426778
0.385197
-0.364243
-0.374876
-0.383104
-0.38747
-0.386092
-0.376556
-0.355817
-0.320109
-0.265107
-0.186614
-0.0802498
0.0551684
0.211595
0.367352
0.482636
0.517444
0.477895
0.413503
0.377487
-0.31659
-0.322709
-0.325992
-0.325031
-0.318088
-0.303039
-0.277347
-0.238111
-0.182423
-0.107794
-0.0127528
0.100655
0.223703
0.33893
0.420714
0.447801
0.425574
0.383867
0.353551
-0.270485
-0.272881
-0.272275
-0.267404
-0.256775
-0.238648
-0.211058
-0.171935
-0.119744
-0.0528951
0.028087
0.119972
0.214939
0.300104
0.359449
0.38122
0.369091
0.341463
0.316217
-0.225956
-0.225377
-0.221859
-0.21434
-0.201645
-0.182487
-0.155478
-0.119147
-0.0731932
-0.0165598
0.0494034
0.121276
0.192692
0.254586
0.29716
0.314105
0.307942
0.289961
0.269081
-0.183128
-0.180184
-0.174572
-0.165484
-0.152084
-0.13357
-0.109188
-0.0783938
-0.0400006
0.00523283
0.0561231
0.109728
0.16127
0.204671
0.234109
0.246393
0.243398
0.232075
0.21507
-0.142369
-0.137481
-0.130335
-0.120459
-0.107399
-0.0908393
-0.0705894
-0.0463979
-0.0175883
0.0154186
0.0515007
0.0884221
0.12291
0.151182
0.169992
0.177899
0.176297
0.169592
0.156355
-0.10304
-0.0966704
-0.0885455
-0.0785359
-0.0666002
-0.0529942
-0.0382169
-0.0222629
-0.00413974
0.0161057
0.0376994
0.0592444
0.0788512
0.0945088
0.104668
0.108839
0.107924
0.104613
0.0949764
-0.062214
-0.0550314
-0.0468101
-0.0377573
-0.0281806
-0.0188099
-0.0110108
-0.00490466
0.00157744
0.00867794
0.0160047
0.0229939
0.0289794
0.0333627
0.035812
0.0363452
0.0352273
0.0340538
0.0308623
)
;

boundaryField
{
    leftWall
    {
        type            fixedFluxPressure;
        gradient        uniform 0;
        value           nonuniform List<scalar> 
50
(
1080.95
1080.53
1079.68
1078.35
1076.5
1074.06
1070.99
1067.21
1059.96
1046.02
1032.55
1032.8
912.325
37.1043
-0.298004
-0.253075
-0.272021
-0.294681
-0.314143
-0.334671
-0.354091
-0.372307
-0.388844
-0.403317
-0.415422
-0.424997
-0.431981
-0.43638
-0.438291
-0.43774
-0.434754
-0.429391
-0.42176
-0.412025
-0.400367
-0.386962
-0.371966
-0.355518
-0.337747
-0.318782
-0.298745
-0.277746
-0.255911
-0.233391
-0.21021
-0.186333
-0.162094
-0.138118
-0.113783
-0.0859705
)
;
    }
    rightWall
    {
        type            fixedFluxPressure;
        gradient        uniform 0;
        value           nonuniform List<scalar> 
50
(
1318.88
1294.69
1247.4
1207.69
1241.22
1351.21
1528.68
1691.49
1856.65
1805.7
1597.38
1410.97
1321.99
1304.53
1334.63
1400.48
1479.02
1569.43
1693.43
1818.31
1943.7
2065.82
2186.14
2305.29
2423.08
2540.42
2657.41
2735.16
2711.03
2734.98
2854.85
2953.89
2705.26
747.492
34.1368
8.7386
2.36116
0.763669
0.414169
0.370368
0.378851
0.385197
0.377487
0.353551
0.316217
0.269081
0.21507
0.156355
0.0949764
0.0308623
)
;
    }
    lowerWall
    {
        type            fixedFluxPressure;
        gradient        uniform 0;
        value           nonuniform List<scalar> 
62
(
1080.95
1081.43
1082.09
1082.64
1082.93
1083.04
1083.14
1083.39
1083.86
1084.6
1085.66
1087.04
1088.79
1090.89
1093.31
1096
1098.82
1101.59
1104.06
1105.98
1107.33
1108.36
1109.26
1109.26
1110
1111.97
1112.6
1111.33
1107.53
1097.69
1076.83
796.791
967.259
982.846
906.221
425.864
430.671
409
404.054
414.236
397.785
378.023
510.907
425.864
311.524
249.478
244.905
279.569
331.707
444.062
668.399
866.432
822.097
699.099
691.424
811.489
967.791
1060.48
1060.01
949.706
944.38
1318.88
)
;
    }
    atmosphere
    {
        type            totalPressure;
        rho             rho;
        psi             none;
        gamma           1;
        p0              uniform 0;
        value           nonuniform List<scalar> 
46
(
-0.0675745
-0.0719568
-0.0716006
-0.0717707
-0.0718383
-0.0718484
-0.0717979
-0.0716937
-0.071539
-0.0713357
-0.0710843
-0.0707848
-0.0704361
-0.0700372
-0.0695865
-0.069083
-0.0685263
-0.0679171
-0.0672568
-0.0665477
-0.0657921
-0.0649908
-0.0641424
-0.0620766
-0.0580388
-0.0529517
-0.0466757
-0.0397544
-0.0325759
-0.024867
-0.0170876
-0.00973443
-0.00363842
-0.000211935
0
0
0
0
0
0
0
0
0
0
0
0
)
;
    }
    defaultFaces
    {
        type            empty;
    }
}


// ************************************************************************* //
