/*--------------------------------*- C++ -*----------------------------------*\
| =========                 |                                                 |
| \\      /  F ield         | OpenFOAM: The Open Source CFD Toolbox           |
|  \\    /   O peration     | Version:  2206                                  |
|   \\  /    A nd           | Website:  www.openfoam.com                      |
|    \\/     M anipulation  |                                                 |
\*---------------------------------------------------------------------------*/
FoamFile
{
    version     2.0;
    format      ascii;
    arch        "LSB;label=32;scalar=64";
    class       surfaceScalarField;
    location    "0.425";
    object      phi;
}
// * * * * * * * * * * * * * * * * * * * * * * * * * * * * * * * * * * * * * //

dimensions      [0 3 -1 0 0 0 0];

oriented        oriented;

internalField   nonuniform List<scalar> 
4432
(
-1.95711e-07
1.95711e-07
7.4778e-07
-9.43491e-07
2.24076e-06
-1.49298e-06
3.82977e-06
-1.58901e-06
5.2635e-06
-1.43373e-06
6.45285e-06
-1.18934e-06
7.40474e-06
-9.51895e-07
8.16368e-06
-7.58943e-07
8.77411e-06
-6.10429e-07
9.26273e-06
-4.88617e-07
9.63375e-06
-3.7102e-07
9.86709e-06
-2.33347e-07
9.9249e-06
-5.78108e-08
9.7328e-06
1.92107e-07
9.19273e-06
5.40068e-07
8.22167e-06
9.71058e-07
6.76974e-06
1.45193e-06
4.86418e-06
1.90556e-06
2.68615e-06
2.17803e-06
5.68431e-07
2.11772e-06
-9.24556e-07
1.49299e-06
-1.15539e-06
2.30831e-07
-1.15539e-06
-2.28046e-07
4.23757e-07
7.04729e-07
-1.87627e-06
2.21573e-06
-3.00397e-06
3.84748e-06
-3.22076e-06
5.33417e-06
-2.92042e-06
6.57268e-06
-2.42785e-06
7.56293e-06
-1.94215e-06
8.34992e-06
-1.54594e-06
8.98302e-06
-1.24352e-06
9.49602e-06
-1.00162e-06
9.90362e-06
-7.78623e-07
1.02113e-05
-5.41022e-07
1.04192e-05
-2.65718e-07
1.0522e-05
8.93292e-08
1.0547e-05
5.15002e-07
1.04416e-05
1.0765e-06
1.00934e-05
1.80017e-06
9.33115e-06
2.66777e-06
7.99232e-06
3.51685e-06
6.07068e-06
4.03936e-06
3.80607e-06
3.7576e-06
1.60569e-06
2.43121e-06
4.503e-07
-2.93621e-07
7.17378e-07
5.99156e-07
-2.76904e-06
2.12144e-06
-4.52626e-06
3.80777e-06
-4.9071e-06
5.36657e-06
-4.47922e-06
6.67025e-06
-3.73153e-06
7.70662e-06
-2.97852e-06
8.52128e-06
-2.3606e-06
9.17175e-06
-1.894e-06
9.70175e-06
-1.53162e-06
1.01332e-05
-1.21003e-06
1.04664e-05
-8.74294e-07
1.06844e-05
-4.83717e-07
1.07868e-05
-1.30839e-08
1.07494e-05
5.52411e-07
1.05978e-05
1.22812e-06
1.03611e-05
2.03688e-06
1.00279e-05
3.00098e-06
9.44636e-06
4.09838e-06
8.31252e-06
5.17319e-06
6.26773e-06
5.80239e-06
3.31135e-06
5.3876e-06
3.76164e-06
-3.83422e-07
1.1008e-06
4.52572e-07
-3.60503e-06
1.99239e-06
-6.06607e-06
3.75222e-06
-6.66693e-06
5.40724e-06
-6.13424e-06
6.79982e-06
-5.12412e-06
7.90251e-06
-4.0812e-06
8.7606e-06
-3.21869e-06
9.4405e-06
-2.57389e-06
9.99733e-06
-2.08845e-06
1.04624e-05
-1.67514e-06
1.08439e-05
-1.25575e-06
1.1134e-05
-7.7382e-07
1.13122e-05
-1.9129e-07
1.13506e-05
5.13977e-07
1.12244e-05
1.35439e-06
1.09215e-05
2.33979e-06
1.04529e-05
3.46959e-06
9.80435e-06
4.74688e-06
8.8089e-06
6.16864e-06
7.02983e-06
7.58146e-06
4.02078e-06
8.39665e-06
7.78243e-06
-4.93203e-07
1.59401e-06
2.7635e-07
-4.37459e-06
1.84332e-06
-7.63304e-06
3.68463e-06
-8.50825e-06
5.4429e-06
-7.8925e-06
6.93328e-06
-6.6145e-06
8.11389e-06
-5.26181e-06
9.02917e-06
-4.13396e-06
9.75327e-06
-3.29799e-06
1.03522e-05
-2.68733e-06
1.08672e-05
-2.19015e-06
1.13137e-05
-1.70232e-06
1.16867e-05
-1.14682e-06
1.19676e-05
-4.72121e-07
1.21251e-05
3.56397e-07
1.21224e-05
1.35717e-06
1.1908e-05
2.55417e-06
1.14235e-05
3.95406e-06
1.06159e-05
5.55451e-06
9.41773e-06
7.36682e-06
7.57872e-06
9.42047e-06
4.52737e-06
1.1448e-05
1.23098e-05
-6.15007e-07
2.20901e-06
9.90531e-08
-5.08864e-06
1.70333e-06
-9.23731e-06
3.618e-06
-1.04229e-05
5.46512e-06
-9.73962e-06
7.04408e-06
-8.19345e-06
8.3032e-06
-6.52094e-06
9.28591e-06
-5.11667e-06
1.00713e-05
-4.08335e-06
1.07325e-05
-3.34859e-06
1.13186e-05
-2.77618e-06
1.18511e-05
-2.23485e-06
1.23292e-05
-1.62489e-06
1.27357e-05
-8.78663e-07
1.3044e-05
4.81331e-08
1.32102e-05
1.19094e-06
1.31774e-05
2.58696e-06
1.28553e-05
4.27613e-06
1.2112e-05
6.2978e-06
1.07912e-05
8.68766e-06
8.6726e-06
1.15391e-05
5.20218e-06
1.49184e-05
1.7512e-05
-7.32718e-07
2.94173e-06
-4.27134e-08
-5.77865e-06
1.58349e-06
-1.08635e-05
3.55892e-06
-1.23984e-05
5.47089e-06
-1.16516e-05
7.11191e-06
-9.83448e-06
8.43474e-06
-7.84376e-06
9.48737e-06
-6.16931e-06
1.03509e-05
-4.94684e-06
1.10996e-05
-4.09731e-06
1.17846e-05
-3.46119e-06
1.24314e-05
-2.88164e-06
1.30439e-05
-2.23746e-06
1.36105e-05
-1.44523e-06
1.41047e-05
-4.46078e-07
1.44928e-05
8.02841e-07
1.47183e-05
2.36147e-06
1.46959e-05
4.29854e-06
1.42749e-05
6.71877e-06
1.32505e-05
9.71214e-06
1.12647e-05
1.35248e-05
7.92794e-06
1.82552e-05
2.54399e-05
-8.48016e-07
3.78975e-06
-2.26114e-07
-6.40055e-06
1.41636e-06
-1.2506e-05
3.47518e-06
-1.44572e-05
5.45656e-06
-1.3633e-05
7.13605e-06
-1.1514e-05
8.49659e-06
-9.20429e-06
9.60952e-06
-7.28223e-06
1.05606e-05
-5.8979e-06
1.14195e-05
-4.95621e-06
1.22326e-05
-4.27429e-06
1.30245e-05
-3.67354e-06
1.38025e-05
-3.01544e-06
1.45611e-05
-2.20385e-06
1.52851e-05
-1.17014e-06
1.59504e-05
1.37564e-07
1.65172e-05
1.79471e-06
1.69155e-05
3.90021e-06
1.69867e-05
6.64753e-06
1.64476e-05
1.02513e-05
1.452e-05
1.54524e-05
1.02804e-05
2.24948e-05
3.57203e-05
-2.57489e-05
2.57489e-05
-9.29871e-05
6.72383e-05
-0.000127137
3.41503e-05
-0.00012504
-2.09714e-06
-0.00010736
-1.76805e-05
-8.22591e-05
-2.51008e-05
-4.98597e-05
-3.23994e-05
4.42258e-06
-5.42823e-05
5.44859e-05
-5.00633e-05
8.17938e-05
-2.73079e-05
9.10553e-05
-9.26153e-06
8.30817e-05
7.97358e-06
5.49369e-05
2.81448e-05
1.44263e-05
4.05106e-05
-1.82246e-05
3.26508e-05
-3.33935e-05
1.5169e-05
-5.77562e-05
2.43627e-05
-5.52841e-05
-2.47208e-06
-5.52841e-05
-8.09386e-05
0.000106687
-0.00014938
0.00013568
-0.000170031
5.48009e-05
-0.000142085
-3.00427e-05
-9.05845e-05
-6.91811e-05
-4.2104e-05
-7.35813e-05
2.25302e-05
-9.70336e-05
7.76049e-05
-0.000109357
0.00010665
-7.91081e-05
0.000122275
-4.29336e-05
0.000128431
-1.54169e-05
0.000127722
8.6827e-06
0.000115801
4.00659e-05
8.27737e-05
7.35375e-05
2.86784e-05
8.67461e-05
-2.30942e-05
6.69416e-05
-4.73592e-05
4.86277e-05
-3.91552e-05
-1.06761e-05
-9.44394e-05
-4.01813e-05
0.000146869
-8.4594e-05
0.000180093
-4.74869e-05
1.76937e-05
2.74478e-06
-8.02744e-05
2.44628e-05
-9.08991e-05
6.14261e-05
-0.000110545
9.50896e-05
-0.000130697
0.000110401
-0.000124668
0.000122446
-9.11536e-05
0.000131503
-5.199e-05
0.000135743
-1.96573e-05
0.000135743
8.68239e-06
0.000132162
4.36476e-05
0.000118005
8.76939e-05
8.10614e-05
0.00012369
2.1169e-05
0.000126834
-2.43284e-05
9.41252e-05
-3.23367e-05
-2.66781e-06
-0.000126776
7.43324e-06
0.000139435
5.19662e-05
0.00013556
7.80992e-05
-8.43928e-06
8.03782e-05
-8.25534e-05
9.351e-05
-0.000104031
0.000107719
-0.000124754
0.000113923
-0.000136901
0.000118536
-0.000129281
0.000126523
-9.91408e-05
0.000134218
-5.96849e-05
0.000138526
-2.3965e-05
0.000139129
8.07941e-06
0.000136331
4.64459e-05
0.000130427
9.35971e-05
0.000111408
0.000142709
6.70152e-05
0.000171227
1.11161e-05
0.000150024
-1.66458e-05
2.5094e-05
-0.000143422
1.77193e-05
0.000121716
8.65268e-05
6.67521e-05
0.000110725
-3.26378e-05
0.000107505
-7.93328e-05
0.000111514
-0.00010804
0.00011487
-0.00012811
0.00011783
-0.000139861
0.000122773
-0.000134223
0.000130202
-0.00010657
0.000136678
-6.61608e-05
0.000140218
-2.75052e-05
0.000141584
6.71361e-06
0.000138899
4.91312e-05
0.000134745
9.77512e-05
0.000125806
0.000151648
0.000100112
0.000196921
5.80937e-05
0.000192043
1.40796e-05
6.91081e-05
-0.000129342
3.29537e-05
8.87625e-05
9.02033e-05
9.50253e-06
0.000102523
-4.49575e-05
0.000106695
-8.35046e-05
0.000111332
-0.000112677
0.000116369
-0.000133148
0.000120685
-0.000144176
0.000125696
-0.000139235
0.000131452
-0.000112326
0.000135495
-7.02034e-05
0.000137758
-2.97684e-05
0.000139014
5.45806e-06
0.000137745
5.04e-05
0.00013528
0.000100216
0.000131221
0.000155707
0.000118167
0.000209975
8.7117e-05
0.000223093
4.02132e-05
0.000116012
-8.9129e-05
4.96298e-05
3.91326e-05
7.98527e-05
-2.07203e-05
9.43233e-05
-5.94281e-05
0.000104655
-9.38361e-05
0.000112685
-0.000120708
0.000117733
-0.000138195
0.000121536
-0.00014798
0.00012539
-0.000143089
0.000128644
-0.00011558
0.000128562
-7.01213e-05
0.00012804
-2.92469e-05
0.00012923
4.2678e-06
0.000129032
5.05983e-05
0.00012917
0.000100078
0.000129751
0.000155126
0.000124727
0.000214999
0.000103118
0.000244701
5.78843e-05
0.000161246
-3.12448e-05
5.80554e-05
-1.89227e-05
8.2183e-05
-4.4848e-05
9.85582e-05
-7.58033e-05
0.00010802
-0.000103298
0.000113539
-0.000126227
0.000117056
-0.000141711
0.000120188
-0.000151112
0.000122461
-0.000145362
0.000122451
-0.000115569
0.000117332
-6.50019e-05
0.000110906
-2.28215e-05
0.000110211
4.96327e-06
0.000112523
4.82863e-05
0.000116718
9.58827e-05
0.000122572
0.000149272
0.000123458
0.000214113
0.00010919
0.000258969
6.64416e-05
0.000203994
3.51968e-05
-2.06733e-06
5.85708e-06
-1.17074e-06
-7.29714e-06
2.17077e-06
-1.58475e-05
6.88415e-06
-1.91706e-05
1.14339e-05
-1.81828e-05
1.51509e-05
-1.52309e-05
1.81332e-05
-1.21866e-05
2.06752e-05
-9.82425e-06
2.30011e-05
-8.22372e-06
2.52391e-05
-7.19422e-06
2.74568e-05
-6.49197e-06
2.9689e-05
-5.90577e-06
3.19549e-05
-5.28138e-06
3.4269e-05
-4.51794e-06
3.66514e-05
-3.55249e-06
3.91309e-05
-2.34196e-06
4.17883e-05
-8.62631e-07
4.47447e-05
9.43759e-07
4.82201e-05
3.1721e-06
5.2743e-05
5.72843e-06
5.92991e-05
8.89629e-06
7.04948e-05
1.12991e-05
1.84318e-05
8.77833e-05
-1.56359e-06
7.42067e-06
-1.30623e-06
-7.5545e-06
1.56889e-06
-1.87226e-05
6.43097e-06
-2.40326e-05
1.12654e-05
-2.30172e-05
1.51437e-05
-1.91092e-05
1.82485e-05
-1.52914e-05
2.10409e-05
-1.26167e-05
2.38035e-05
-1.09863e-05
2.66308e-05
-1.00215e-05
2.95342e-05
-9.39537e-06
3.25099e-05
-8.88143e-06
3.5567e-05
-8.33849e-06
3.87382e-05
-7.68916e-06
4.20862e-05
-6.90052e-06
4.57103e-05
-5.96602e-06
4.97408e-05
-4.89318e-06
5.43812e-05
-3.69655e-06
5.99271e-05
-2.37385e-06
6.66422e-05
-9.86646e-07
7.49185e-05
6.19915e-07
8.47419e-05
1.47566e-06
4.79816e-06
9.83756e-05
2.05542e-06
5.36525e-06
4.58881e-06
-1.00879e-05
8.07352e-06
-2.22073e-05
1.11513e-05
-2.71104e-05
1.38276e-05
-2.56935e-05
1.64449e-05
-2.17266e-05
1.91098e-05
-1.79563e-05
2.20006e-05
-1.55075e-05
2.51754e-05
-1.41612e-05
2.85656e-05
-1.34117e-05
3.20757e-05
-1.29054e-05
3.56438e-05
-1.24496e-05
3.92562e-05
-1.19509e-05
4.29397e-05
-1.13727e-05
4.6751e-05
-1.07118e-05
5.07677e-05
-9.9827e-06
5.50854e-05
-9.21092e-06
5.98165e-05
-8.42761e-06
6.51072e-05
-7.66459e-06
7.11108e-05
-6.99024e-06
7.81556e-05
-6.42483e-06
8.59265e-05
-6.29529e-06
-6.07855e-06
9.68032e-05
1.11347e-05
-5.76949e-06
2.48257e-05
-2.37788e-05
2.93923e-05
-2.67739e-05
2.44445e-05
-2.21626e-05
2.01119e-05
-2.13608e-05
1.9018e-05
-2.06327e-05
2.02551e-05
-1.91934e-05
2.29058e-05
-1.81582e-05
2.63562e-05
-1.76116e-05
3.016e-05
-1.72156e-05
3.40508e-05
-1.67962e-05
3.79253e-05
-1.6324e-05
4.17791e-05
-1.58048e-05
4.56507e-05
-1.52442e-05
4.95925e-05
-1.46536e-05
5.36747e-05
-1.40649e-05
5.79705e-05
-1.35067e-05
6.25475e-05
-1.30046e-05
6.74821e-05
-1.25992e-05
7.28307e-05
-1.23388e-05
7.86698e-05
-1.22639e-05
8.49605e-05
-1.2586e-05
-1.31233e-05
9.20052e-05
2.39268e-05
-2.96963e-05
5.21419e-05
-5.1994e-05
4.72614e-05
-2.18934e-05
2.93565e-05
-4.25764e-06
2.09227e-05
-1.29271e-05
1.85333e-05
-1.82433e-05
1.89133e-05
-1.95734e-05
2.10737e-05
-2.03186e-05
2.44998e-05
-2.10376e-05
2.83854e-05
-2.11012e-05
3.2313e-05
-2.07238e-05
3.62183e-05
-2.02293e-05
4.01464e-05
-1.97328e-05
4.4131e-05
-1.92289e-05
4.81887e-05
-1.87113e-05
5.23993e-05
-1.82755e-05
5.68183e-05
-1.79257e-05
6.14367e-05
-1.7623e-05
6.63294e-05
-1.74919e-05
7.14733e-05
-1.74827e-05
7.68176e-05
-1.76083e-05
8.26947e-05
-1.8463e-05
-2.02e-05
8.97714e-05
3.40588e-05
-6.37551e-05
2.11729e-05
-3.91081e-05
-2.05403e-07
-5.15116e-07
-3.34219e-06
-1.12088e-06
5.00774e-06
-2.1277e-05
9.21803e-06
-2.24537e-05
1.20295e-05
-2.2385e-05
1.51412e-05
-2.34304e-05
1.8399e-05
-2.42955e-05
2.18895e-05
-2.45918e-05
2.56707e-05
-2.4505e-05
2.9766e-05
-2.43247e-05
3.41673e-05
-2.41341e-05
3.88844e-05
-2.39458e-05
4.395e-05
-2.37768e-05
4.9503e-05
-2.38283e-05
5.55485e-05
-2.3971e-05
6.19529e-05
-2.40273e-05
6.85783e-05
-2.41171e-05
7.56643e-05
-2.45685e-05
8.30411e-05
-2.4985e-05
9.05518e-05
-2.59738e-05
-2.63105e-05
9.66623e-05
-1.94392e-05
-4.4316e-05
-3.33185e-05
-2.52289e-05
-3.59229e-05
2.08906e-06
-1.01705e-05
-2.68734e-05
1.87633e-07
-3.16352e-05
7.74655e-06
-3.00126e-05
1.40074e-05
-2.86459e-05
1.87258e-05
-2.81487e-05
2.25393e-05
-2.81091e-05
2.61068e-05
-2.81592e-05
2.9823e-05
-2.82212e-05
3.3806e-05
-2.83077e-05
3.81299e-05
-2.84581e-05
4.28604e-05
-2.86764e-05
4.80037e-05
-2.89203e-05
5.34206e-05
-2.92454e-05
5.91219e-05
-2.96726e-05
6.52275e-05
-3.01332e-05
7.16941e-05
-3.05839e-05
7.81598e-05
-3.10345e-05
8.43712e-05
-3.11966e-05
9.01433e-05
-3.17459e-05
-3.08218e-05
9.46546e-05
-2.28033e-05
-2.15127e-05
-2.04756e-05
-2.75567e-05
6.61705e-06
-2.50037e-05
1.2327e-05
-3.25835e-05
1.28864e-05
-3.21948e-05
1.44378e-05
-3.15643e-05
1.69464e-05
-3.11547e-05
1.97844e-05
-3.09869e-05
2.27622e-05
-3.1087e-05
2.59584e-05
-3.13554e-05
2.94374e-05
-3.17002e-05
3.32332e-05
-3.21034e-05
3.73406e-05
-3.25653e-05
4.18019e-05
-3.31374e-05
4.67459e-05
-3.38641e-05
5.22707e-05
-3.477e-05
5.84375e-05
-3.58391e-05
6.51958e-05
-3.68914e-05
7.22955e-05
-3.76835e-05
7.91525e-05
-3.78914e-05
8.52084e-05
-3.72525e-05
8.98854e-05
-3.6423e-05
-3.16966e-05
9.07602e-05
-2.00774e-06
-1.9505e-05
3.37654e-06
-3.29409e-05
1.1131e-05
-3.27581e-05
1.14077e-05
-3.28601e-05
1.19724e-05
-3.27594e-05
1.32289e-05
-3.28207e-05
1.51601e-05
-3.30858e-05
1.75819e-05
-3.34087e-05
2.02943e-05
-3.37994e-05
2.32178e-05
-3.4279e-05
2.63707e-05
-3.48532e-05
2.9797e-05
-3.55297e-05
3.35991e-05
-3.63674e-05
3.79329e-05
-3.74713e-05
4.30269e-05
-3.89581e-05
4.90529e-05
-4.07961e-05
5.5927e-05
-4.27133e-05
6.32817e-05
-4.42462e-05
7.0549e-05
-4.49508e-05
7.70326e-05
-4.43751e-05
8.22483e-05
-4.24682e-05
8.55331e-05
-3.97078e-05
-3.09595e-05
8.4796e-05
2.22911e-06
-2.17342e-05
3.74908e-06
-3.44611e-05
5.65115e-06
-3.46605e-05
7.07198e-06
-3.42813e-05
8.82383e-06
-3.45115e-05
1.08098e-05
-3.4807e-05
1.28746e-05
-3.51509e-05
1.50368e-05
-3.55711e-05
1.73263e-05
-3.60891e-05
1.9774e-05
-3.67267e-05
2.24216e-05
-3.75009e-05
2.53563e-05
-3.84644e-05
2.87453e-05
-3.97562e-05
3.28508e-05
-4.15767e-05
3.78819e-05
-4.39891e-05
4.37843e-05
-4.66984e-05
5.01766e-05
-4.91056e-05
5.6519e-05
-5.05886e-05
6.23707e-05
-5.08027e-05
6.74694e-05
-4.94739e-05
7.19008e-05
-4.68996e-05
7.51065e-05
-4.29134e-05
-3.3769e-05
7.7916e-05
2.11001e-06
-2.38441e-05
3.36203e-06
-3.57128e-05
4.70505e-06
-3.60032e-05
6.24377e-06
-3.58197e-05
7.75288e-06
-3.60205e-05
9.27677e-06
-3.63308e-05
1.08431e-05
-3.67172e-05
1.24795e-05
-3.72074e-05
1.42056e-05
-3.78152e-05
1.60317e-05
-3.85528e-05
1.79906e-05
-3.94597e-05
2.01791e-05
-4.06529e-05
2.27763e-05
-4.23533e-05
2.59688e-05
-4.47691e-05
2.97491e-05
-4.77693e-05
3.38057e-05
-5.0755e-05
3.77034e-05
-5.30034e-05
4.12072e-05
-5.40925e-05
4.44503e-05
-5.40457e-05
4.76607e-05
-5.26843e-05
5.11114e-05
-5.03502e-05
5.46266e-05
-4.64284e-05
-4.02547e-05
6.11124e-05
2.18844e-06
-2.60328e-05
3.25419e-06
-3.67789e-05
4.21179e-06
-3.69611e-05
5.30812e-06
-3.69164e-05
6.40473e-06
-3.71174e-05
7.49926e-06
-3.74256e-05
8.60673e-06
-3.78249e-05
9.7197e-06
-3.83206e-05
1.08242e-05
-3.89198e-05
1.19116e-05
-3.96403e-05
1.29999e-05
-4.0548e-05
1.41476e-05
-4.18005e-05
1.54302e-05
-4.36359e-05
1.68405e-05
-4.61793e-05
1.81923e-05
-4.91211e-05
1.92125e-05
-5.17753e-05
1.98288e-05
-5.36197e-05
2.03714e-05
-5.46352e-05
2.13872e-05
-5.50615e-05
2.29218e-05
-5.42189e-05
2.47719e-05
-5.22003e-05
2.70939e-05
-4.87503e-05
-4.44614e-05
3.13008e-05
1.97301e-06
-2.80055e-05
2.75754e-06
-3.7563e-05
3.4465e-06
-3.76498e-05
4.20253e-06
-3.76722e-05
4.95972e-06
-3.78745e-05
5.68753e-06
-3.81534e-05
6.36758e-06
-3.85051e-05
6.97624e-06
-3.89294e-05
7.48482e-06
-3.94285e-05
7.86999e-06
-4.00255e-05
8.11511e-06
-4.07931e-05
8.18824e-06
-4.18736e-05
8.00709e-06
-4.34547e-05
7.41948e-06
-4.55916e-05
6.27305e-06
-4.79746e-05
4.58108e-06
-5.00834e-05
2.64937e-06
-5.1688e-05
1.02288e-06
-5.30088e-05
1.86363e-08
-5.40573e-05
-6.6889e-07
-5.35313e-05
-1.12368e-06
-5.17453e-05
-1.11063e-06
-4.87631e-05
-4.48156e-05
-7.56256e-07
1.6083e-06
-2.9614e-05
2.12687e-06
-3.80817e-05
2.61445e-06
-3.81375e-05
3.1342e-06
-3.81921e-05
3.61701e-06
-3.83574e-05
4.03979e-06
-3.85764e-05
4.38119e-06
-3.88466e-05
4.61343e-06
-3.91617e-05
4.70377e-06
-3.95189e-05
4.61761e-06
-3.99393e-05
4.30688e-06
-4.04823e-05
3.67005e-06
-4.12367e-05
2.52441e-06
-4.23089e-05
6.61129e-07
-4.37283e-05
-1.95026e-06
-4.53633e-05
-5.09596e-06
-4.69378e-05
-8.45388e-06
-4.83302e-05
-1.17107e-05
-4.9752e-05
-1.47476e-05
-5.10204e-05
-1.75177e-05
-5.0761e-05
-1.99677e-05
-4.92952e-05
-2.18594e-05
-4.68713e-05
-4.37637e-05
-2.29111e-05
1.22186e-06
-3.08356e-05
1.55126e-06
-3.84109e-05
1.8793e-06
-3.84654e-05
2.20904e-06
-3.85219e-05
2.49271e-06
-3.86413e-05
2.71353e-06
-3.87974e-05
2.85177e-06
-3.89851e-05
2.88519e-06
-3.91954e-05
2.78526e-06
-3.94191e-05
2.52185e-06
-3.9676e-05
2.04306e-06
-4.00036e-05
1.23616e-06
-4.04297e-05
-8.51818e-08
-4.09875e-05
-2.07196e-06
-4.17415e-05
-4.75061e-06
-4.26846e-05
-7.97886e-06
-4.37096e-05
-1.15653e-05
-4.47438e-05
-1.5419e-05
-4.58983e-05
-1.93465e-05
-4.70929e-05
-2.26615e-05
-4.74461e-05
-2.51666e-05
-4.67899e-05
-2.66253e-05
-4.54125e-05
-4.36808e-05
-2.67081e-05
8.71243e-07
-3.17068e-05
1.07223e-06
-3.86117e-05
1.27928e-06
-3.86723e-05
1.47401e-06
-3.87165e-05
1.63052e-06
-3.87978e-05
1.73647e-06
-3.89034e-05
1.78023e-06
-3.9029e-05
1.74769e-06
-3.91629e-05
1.62407e-06
-3.92956e-05
1.38688e-06
-3.94388e-05
1.00527e-06
-3.96219e-05
4.28775e-07
-3.98532e-05
-4.39484e-07
-4.01192e-05
-1.73863e-06
-4.04423e-05
-3.5511e-06
-4.08722e-05
-5.83425e-06
-4.14265e-05
-8.48279e-06
-4.20954e-05
-1.14752e-05
-4.29059e-05
-1.47189e-05
-4.38492e-05
-1.7485e-05
-4.468e-05
-1.93681e-05
-4.49066e-05
-2.03463e-05
-4.44342e-05
-4.36454e-05
-2.03817e-05
5.87078e-07
-3.22939e-05
6.95988e-07
-3.87207e-05
8.10266e-07
-3.87868e-05
9.13834e-07
-3.88203e-05
9.91782e-07
-3.8876e-05
1.03768e-06
-3.89496e-05
1.04537e-06
-3.90369e-05
1.01046e-06
-3.91283e-05
9.282e-07
-3.92134e-05
7.88169e-07
-3.92988e-05
5.79855e-07
-3.94136e-05
3.00269e-07
-3.95735e-05
-6.71369e-08
-3.97518e-05
-5.92002e-07
-3.99175e-05
-1.36857e-06
-4.00957e-05
-2.44098e-06
-4.03541e-05
-3.79035e-06
-4.07461e-05
-5.4071e-06
-4.12892e-05
-7.30637e-06
-4.195e-05
-9.29037e-06
-4.2696e-05
-1.08673e-05
-4.33297e-05
-1.17728e-05
-4.35286e-05
-4.33781e-05
-1.20401e-05
3.75564e-07
-3.26693e-05
4.13834e-07
-3.87586e-05
4.58491e-07
-3.88312e-05
4.96384e-07
-3.88581e-05
5.21795e-07
-3.89015e-05
5.30512e-07
-3.89585e-05
5.20577e-07
-3.90271e-05
4.9253e-07
-3.91003e-05
4.47518e-07
-3.91685e-05
3.81376e-07
-3.92327e-05
2.86048e-07
-3.93182e-05
1.67729e-07
-3.94552e-05
5.04399e-08
-3.96345e-05
-6.01706e-08
-3.98068e-05
-2.11474e-07
-3.99444e-05
-4.8055e-07
-4.00851e-05
-9.24059e-07
-4.03026e-05
-1.56887e-06
-4.06444e-05
-2.41257e-06
-4.11063e-05
-3.46276e-06
-4.16458e-05
-4.58073e-06
-4.22117e-05
-5.45148e-06
-4.26579e-05
-4.289e-05
-5.93956e-06
2.23723e-07
-3.2893e-05
2.05443e-07
-3.87404e-05
1.9609e-07
-3.8822e-05
1.86764e-07
-3.8849e-05
1.7333e-07
-3.88882e-05
1.54071e-07
-3.89394e-05
1.27904e-07
-3.90012e-05
9.65518e-08
-3.90691e-05
6.38635e-08
-3.91359e-05
2.9024e-08
-3.91979e-05
-1.90285e-08
-3.92702e-05
-8.83674e-08
-3.93858e-05
-1.60884e-07
-3.95619e-05
-1.99305e-07
-3.97684e-05
-1.91775e-07
-3.99519e-05
-1.80552e-07
-4.00963e-05
-2.37285e-07
-4.02459e-05
-4.16943e-07
-4.04648e-05
-7.39461e-07
-4.07839e-05
-1.19851e-06
-4.11869e-05
-1.78263e-06
-4.16277e-05
-2.39341e-06
-4.20472e-05
-4.23702e-05
-2.91317e-06
1.18791e-07
-3.30117e-05
5.89043e-08
-3.86804e-05
9.64805e-09
-3.87727e-05
-3.666e-08
-3.88028e-05
-8.19116e-08
-3.88431e-05
-1.27266e-07
-3.88942e-05
-1.73467e-07
-3.89551e-05
-2.19439e-07
-3.90233e-05
-2.61517e-07
-3.90939e-05
-2.97664e-07
-3.91618e-05
-3.36493e-07
-3.92314e-05
-3.96234e-07
-3.93261e-05
-4.83004e-07
-3.94751e-05
-5.71902e-07
-3.96794e-05
-6.24947e-07
-3.98988e-05
-6.33289e-07
-4.00879e-05
-6.34129e-07
-4.0245e-05
-6.83682e-07
-4.04153e-05
-8.20335e-07
-4.06473e-05
-1.05441e-06
-4.09529e-05
-1.37726e-06
-4.13049e-05
-1.768e-06
-4.16565e-05
-4.19438e-05
-2.19437e-06
5.0269e-08
-3.3062e-05
-4.1128e-08
-3.8589e-05
-1.20256e-07
-3.86936e-05
-1.95655e-07
-3.87274e-05
-2.68505e-07
-3.87704e-05
-3.39578e-07
-3.88233e-05
-4.09582e-07
-3.88852e-05
-4.7835e-07
-3.89546e-05
-5.43652e-07
-3.90287e-05
-6.02318e-07
-3.91032e-05
-6.57171e-07
-3.91765e-05
-7.23739e-07
-3.92595e-05
-8.21723e-07
-3.93771e-05
-9.51987e-07
-3.95491e-05
-1.08745e-06
-3.97632e-05
-1.19722e-06
-3.99781e-05
-1.27987e-06
-4.01623e-05
-1.36752e-06
-4.03277e-05
-1.49912e-06
-4.05158e-05
-1.69566e-06
-4.07564e-05
-1.95816e-06
-4.10425e-05
-2.27934e-06
-4.13354e-05
-4.15829e-05
-2.64026e-06
7.81757e-09
-3.30697e-05
-1.07072e-07
-3.84741e-05
-2.09517e-07
-3.85912e-05
-3.09081e-07
-3.86279e-05
-4.06682e-07
-3.86729e-05
-5.03116e-07
-3.8727e-05
-5.99095e-07
-3.87894e-05
-6.95011e-07
-3.88588e-05
-7.90115e-07
-3.89336e-05
-8.82051e-07
-3.90113e-05
-9.69873e-07
-3.90887e-05
-1.06111e-06
-3.91682e-05
-1.17372e-06
-3.92645e-05
-1.32301e-06
-3.93997e-05
-1.5035e-06
-3.95827e-05
-1.69035e-06
-3.97912e-05
-1.86452e-06
-3.99882e-05
-2.03292e-06
-4.01593e-05
-2.22069e-06
-4.03281e-05
-2.44865e-06
-4.05286e-05
-2.7226e-06
-4.07686e-05
-3.03629e-06
-4.10217e-05
-4.12457e-05
-3.37351e-06
-1.89968e-08
-3.30507e-05
-1.52081e-07
-3.83409e-05
-2.73519e-07
-3.84697e-05
-3.94039e-07
-3.85074e-05
-5.14268e-07
-3.85527e-05
-6.35147e-07
-3.86062e-05
-7.57422e-07
-3.86672e-05
-8.81672e-07
-3.87346e-05
-1.00797e-06
-3.88074e-05
-1.13522e-06
-3.88841e-05
-1.26168e-06
-3.89623e-05
-1.38915e-06
-3.90408e-05
-1.52818e-06
-3.91254e-05
-1.69499e-06
-3.92329e-05
-1.89714e-06
-3.93804e-05
-2.12326e-06
-3.9565e-05
-2.35357e-06
-3.97579e-05
-2.58139e-06
-3.99315e-05
-2.81937e-06
-4.00902e-05
-3.08469e-06
-4.02633e-05
-3.38401e-06
-4.04694e-05
-3.71144e-06
-4.06943e-05
-4.09034e-05
-4.05378e-06
-3.86631e-08
-3.3012e-05
-1.86925e-07
-3.81926e-05
-3.25145e-07
-3.83315e-05
-4.64672e-07
-3.83679e-05
-6.0601e-07
-3.84114e-05
-7.50141e-07
-3.84621e-05
-8.97848e-07
-3.85195e-05
-1.04972e-06
-3.85828e-05
-1.20613e-06
-3.86511e-05
-1.36678e-06
-3.87235e-05
-1.53038e-06
-3.87988e-05
-1.69637e-06
-3.88748e-05
-1.86943e-06
-3.89523e-05
-2.06159e-06
-3.90406e-05
-2.28467e-06
-3.91573e-05
-2.53735e-06
-3.93123e-05
-2.80422e-06
-3.9491e-05
-3.07258e-06
-3.96633e-05
-3.34678e-06
-3.98161e-05
-3.64192e-06
-3.99682e-05
-3.96696e-06
-4.01444e-05
-4.31795e-06
-4.03434e-05
-4.05375e-05
-4.68395e-06
-5.64303e-08
-3.29555e-05
-2.18749e-07
-3.80302e-05
-3.72846e-07
-3.81774e-05
-5.30187e-07
-3.82106e-05
-6.91401e-07
-3.82502e-05
-8.57356e-07
-3.82961e-05
-1.02886e-06
-3.8348e-05
-1.20651e-06
-3.84052e-05
-1.39076e-06
-3.84669e-05
-1.58175e-06
-3.85326e-05
-1.77887e-06
-3.86017e-05
-1.98104e-06
-3.86727e-05
-2.18952e-06
-3.87438e-05
-2.41181e-06
-3.88183e-05
-2.65986e-06
-3.89092e-05
-2.93926e-06
-3.90329e-05
-3.24079e-06
-3.91895e-05
-3.54887e-06
-3.93553e-05
-3.85954e-06
-3.95055e-05
-4.18415e-06
-3.96437e-05
-4.53475e-06
-3.97938e-05
-4.91202e-06
-3.99662e-05
-4.01414e-05
-5.30821e-06
-7.45576e-08
-3.28809e-05
-2.50406e-07
-3.78543e-05
-4.19833e-07
-3.80079e-05
-5.93904e-07
-3.80365e-05
-7.73527e-07
-3.80705e-05
-9.59391e-07
-3.81102e-05
-1.15232e-06
-3.81551e-05
-1.35294e-06
-3.82046e-05
-1.56179e-06
-3.82581e-05
-1.77925e-06
-3.83153e-05
-2.00536e-06
-3.83757e-05
-2.23941e-06
-3.84387e-05
-2.48104e-06
-3.85022e-05
-2.73366e-06
-3.85657e-05
-3.00673e-06
-3.86362e-05
-3.30983e-06
-3.87298e-05
-3.64134e-06
-3.88581e-05
-3.9875e-06
-3.90092e-05
-4.33758e-06
-3.91555e-05
-4.6961e-06
-3.92852e-05
-5.07537e-06
-3.94146e-05
-5.48065e-06
-3.9561e-05
-3.97138e-05
-5.90834e-06
-9.27261e-08
-3.27882e-05
-2.81315e-07
-3.76657e-05
-4.65129e-07
-3.78241e-05
-6.54449e-07
-3.78471e-05
-8.50387e-07
-3.78746e-05
-1.0536e-06
-3.7907e-05
-1.26488e-06
-3.79438e-05
-1.485e-06
-3.79846e-05
-1.71452e-06
-3.80287e-05
-1.954e-06
-3.80759e-05
-2.20391e-06
-3.81259e-05
-2.46427e-06
-3.81784e-05
-2.73448e-06
-3.8232e-05
-3.01532e-06
-3.82849e-05
-3.31242e-06
-3.83391e-05
-3.63552e-06
-3.84068e-05
-3.98928e-06
-3.85044e-05
-4.36559e-06
-3.8633e-05
-4.75139e-06
-3.87697e-05
-5.14436e-06
-3.88923e-05
-5.55409e-06
-3.90049e-05
-5.98877e-06
-3.91264e-05
-3.92542e-05
-6.44848e-06
-1.1008e-07
-3.26781e-05
-3.10286e-07
-3.74655e-05
-5.06823e-07
-3.76275e-05
-7.0926e-07
-3.76446e-05
-9.18698e-07
-3.76651e-05
-1.13602e-06
-3.76896e-05
-1.36206e-06
-3.77178e-05
-1.59765e-06
-3.7749e-05
-1.84349e-06
-3.77829e-05
-2.10024e-06
-3.78192e-05
-2.36861e-06
-3.78575e-05
-2.64913e-06
-3.78979e-05
-2.94171e-06
-3.79394e-05
-3.24617e-06
-3.79804e-05
-3.56505e-06
-3.80203e-05
-3.90585e-06
-3.80661e-05
-4.27627e-06
-3.81341e-05
-4.67445e-06
-3.82349e-05
-5.08896e-06
-3.83553e-05
-5.51253e-06
-3.84687e-05
-5.95069e-06
-3.85668e-05
-6.41288e-06
-3.86643e-05
-3.87647e-05
-6.90239e-06
-1.27285e-07
-3.25508e-05
-3.37901e-07
-3.72549e-05
-5.44851e-07
-3.74206e-05
-7.57642e-07
-3.74318e-05
-9.77283e-07
-3.74454e-05
-1.20502e-06
-3.74619e-05
-1.44176e-06
-3.7481e-05
-1.68841e-06
-3.75023e-05
-1.94581e-06
-3.75255e-05
-2.21475e-06
-3.75502e-05
-2.49604e-06
-3.75762e-05
-2.79047e-06
-3.76034e-05
-3.09843e-06
-3.76315e-05
-3.41975e-06
-3.76592e-05
-3.75524e-06
-3.76849e-05
-4.10977e-06
-3.77117e-05
-4.49152e-06
-3.77525e-05
-4.90383e-06
-3.78226e-05
-5.33923e-06
-3.79199e-05
-5.78794e-06
-3.80201e-05
-6.25069e-06
-3.81041e-05
-6.73638e-06
-3.81786e-05
-3.82503e-05
-7.25088e-06
-1.46488e-07
-3.24043e-05
-3.66186e-07
-3.70353e-05
-5.80652e-07
-3.72061e-05
-8.00501e-07
-3.72119e-05
-1.02685e-06
-3.7219e-05
-1.26112e-06
-3.72275e-05
-1.50437e-06
-3.72377e-05
-1.75752e-06
-3.72492e-05
-2.02151e-06
-3.72616e-05
-2.29723e-06
-3.72745e-05
-2.58559e-06
-3.72879e-05
-2.88749e-06
-3.73015e-05
-3.20361e-06
-3.73154e-05
-3.53409e-06
-3.73288e-05
-3.87905e-06
-3.73401e-05
-4.24121e-06
-3.73497e-05
-4.6278e-06
-3.7366e-05
-5.04566e-06
-3.74049e-05
-5.49255e-06
-3.74731e-05
-5.95883e-06
-3.75539e-05
-6.44062e-06
-3.76224e-05
-6.94438e-06
-3.76749e-05
-3.77172e-05
-7.47749e-06
-1.68423e-07
-3.22359e-05
-3.95092e-07
-3.68087e-05
-6.13459e-07
-3.69878e-05
-8.36639e-07
-3.69887e-05
-1.06612e-06
-3.69895e-05
-1.30323e-06
-3.69904e-05
-1.54902e-06
-3.69919e-05
-1.80441e-06
-3.69938e-05
-2.07031e-06
-3.69956e-05
-2.34769e-06
-3.69972e-05
-2.6375e-06
-3.69981e-05
-2.94066e-06
-3.69984e-05
-3.25803e-06
-3.69981e-05
-3.59007e-06
-3.69968e-05
-3.93684e-06
-3.69935e-05
-4.29966e-06
-3.69871e-05
-4.6841e-06
-3.69817e-05
-5.09864e-06
-3.69904e-05
-5.54637e-06
-3.70254e-05
-6.02043e-06
-3.70799e-05
-6.51353e-06
-3.71294e-05
-7.02827e-06
-3.71602e-05
-3.71734e-05
-7.572e-06
-1.8812e-07
-3.20478e-05
-4.17383e-07
-3.65795e-05
-6.35268e-07
-3.67699e-05
-8.57847e-07
-3.67662e-05
-1.08692e-06
-3.67604e-05
-1.32357e-06
-3.67537e-05
-1.56857e-06
-3.67469e-05
-1.82272e-06
-3.67396e-05
-2.08682e-06
-3.67315e-05
-2.36179e-06
-3.67222e-05
-2.64853e-06
-3.67114e-05
-2.94796e-06
-3.6699e-05
-3.26098e-06
-3.66852e-05
-3.5883e-06
-3.66697e-05
-3.93021e-06
-3.66517e-05
-4.28729e-06
-3.66301e-05
-4.66323e-06
-3.66059e-05
-5.06637e-06
-3.65873e-05
-5.50404e-06
-3.65878e-05
-5.97419e-06
-3.66098e-05
-6.46864e-06
-3.66351e-05
-6.98547e-06
-3.66434e-05
-3.66285e-05
-7.53041e-06
-1.93178e-07
-3.18547e-05
-4.16156e-07
-3.63566e-05
-6.28861e-07
-3.65573e-05
-8.47161e-07
-3.65479e-05
-1.07257e-06
-3.65349e-05
-1.30583e-06
-3.65204e-05
-1.54728e-06
-3.65054e-05
-1.79748e-06
-3.64894e-05
-2.05707e-06
-3.6472e-05
-2.32679e-06
-3.64525e-05
-2.60745e-06
-3.64308e-05
-2.89985e-06
-3.64067e-05
-3.20485e-06
-3.63803e-05
-3.52331e-06
-3.63514e-05
-3.85578e-06
-3.63194e-05
-4.20265e-06
-3.62833e-05
-4.56594e-06
-3.62426e-05
-4.95228e-06
-3.6201e-05
-5.37101e-06
-3.61691e-05
-5.82555e-06
-3.61554e-05
-6.30989e-06
-3.61508e-05
-6.8186e-06
-3.61347e-05
-3.60928e-05
-7.35431e-06
-1.67476e-07
-3.16873e-05
-3.68795e-07
-3.61553e-05
-5.72776e-07
-3.63533e-05
-7.84263e-07
-3.63363e-05
-1.00322e-06
-3.63159e-05
-1.23023e-06
-3.62933e-05
-1.46526e-06
-3.62703e-05
-1.70869e-06
-3.6246e-05
-1.96104e-06
-3.62197e-05
-2.22293e-06
-3.61907e-05
-2.49501e-06
-3.61589e-05
-2.77797e-06
-3.6124e-05
-3.07259e-06
-3.60859e-05
-3.37973e-06
-3.60444e-05
-3.70014e-06
-3.5999e-05
-4.03433e-06
-3.59492e-05
-4.38325e-06
-3.58937e-05
-4.751e-06
-3.58332e-05
-5.14622e-06
-3.5774e-05
-5.57632e-06
-3.57253e-05
-6.03985e-06
-3.56873e-05
-6.53038e-06
-3.56442e-05
-3.55763e-05
-7.04678e-06
-1.03039e-07
-3.15843e-05
-2.60364e-07
-3.5998e-05
-4.54048e-07
-3.61595e-05
-6.57625e-07
-3.61327e-05
-8.67797e-07
-3.61057e-05
-1.08529e-06
-3.60758e-05
-1.31015e-06
-3.60455e-05
-1.5428e-06
-3.60133e-05
-1.78381e-06
-3.59787e-05
-2.03376e-06
-3.59409e-05
-2.29331e-06
-3.58995e-05
-2.56315e-06
-3.58543e-05
-2.84405e-06
-3.58051e-05
-3.13686e-06
-3.57516e-05
-3.44245e-06
-3.56935e-05
-3.76153e-06
-3.56301e-05
-4.09467e-06
-3.55605e-05
-4.44381e-06
-3.54841e-05
-4.81488e-06
-3.5403e-05
-5.21629e-06
-3.5324e-05
-5.65141e-06
-3.52522e-05
-6.11574e-06
-3.51798e-05
-3.5087e-05
-6.60506e-06
-1.25902e-08
-3.15717e-05
-9.8466e-08
-3.5912e-05
-2.81961e-07
-3.5976e-05
-4.77361e-07
-3.59372e-05
-6.76853e-07
-3.59062e-05
-8.8138e-07
-3.58713e-05
-1.09159e-06
-3.58353e-05
-1.30815e-06
-3.57969e-05
-1.53186e-06
-3.57551e-05
-1.76351e-06
-3.57094e-05
-2.00393e-06
-3.56592e-05
-2.25402e-06
-3.56044e-05
-2.51471e-06
-3.55445e-05
-2.78699e-06
-3.54794e-05
-3.07184e-06
-3.54086e-05
-3.37021e-06
-3.53317e-05
-3.68279e-06
-3.52479e-05
-4.01044e-06
-3.51565e-05
-4.3562e-06
-3.50573e-05
-4.72676e-06
-3.49535e-05
-5.1283e-06
-3.48506e-05
-5.56011e-06
-3.4748e-05
-3.46304e-05
-6.01675e-06
9.98918e-08
-3.16716e-05
8.05151e-08
-3.58925e-05