/*--------------------------------*- C++ -*----------------------------------*\
| =========                 |                                                 |
| \\      /  F ield         | OpenFOAM: The Open Source CFD Toolbox           |
|  \\    /   O peration     | Version:  2206                                  |
|   \\  /    A nd           | Website:  www.openfoam.com                      |
|    \\/     M anipulation  |                                                 |
\*---------------------------------------------------------------------------*/
FoamFile
{
    version     2.0;
    format      ascii;
    arch        "LSB;label=32;scalar=64";
    class       surfaceScalarField;
    location    "0.7";
    object      alphaPhi0.water;
}
// * * * * * * * * * * * * * * * * * * * * * * * * * * * * * * * * * * * * * //

dimensions      [0 3 -1 0 0 0 0];

oriented        oriented;

internalField   nonuniform List<scalar> 
4432
(
-3.81877e-06
3.81877e-06
-7.76265e-06
3.94389e-06
-1.04921e-05
2.72943e-06
-1.24289e-05
1.93685e-06
-1.3368e-05
9.39089e-07
-1.26177e-05
-7.50361e-07
-1.0212e-05
-2.40572e-06
-7.44488e-06
-2.76707e-06
-5.6049e-06
-1.83998e-06
-5.04476e-06
-5.60141e-07
-5.58221e-06
5.37451e-07
-6.92307e-06
1.34086e-06
-8.7764e-06
1.85334e-06
-1.10357e-05
2.25933e-06
-1.37569e-05
2.72122e-06
-1.63891e-05
2.63275e-06
-1.7189e-05
1.75438e-06
-2.00246e-05
2.61065e-06
-2.64063e-05
5.19768e-06
-3.0584e-05
4.18268e-06
-2.66633e-05
-3.91672e-06
-1.41686e-05
-1.24982e-05
-1.41721e-05
-4.92679e-06
8.74556e-06
-8.48447e-06
7.50157e-06
-1.06633e-05
4.90826e-06
-1.25191e-05
3.79264e-06
-1.36766e-05
2.09656e-06
-1.31174e-05
-1.30957e-06
-1.06535e-05
-4.86957e-06
-7.64019e-06
-5.78039e-06
-5.58891e-06
-3.89127e-06
-4.88388e-06
-1.26517e-06
-5.08256e-06
7.3614e-07
-5.83324e-06
2.09153e-06
-6.97416e-06
2.99426e-06
-8.50612e-06
3.79127e-06
-1.06624e-05
4.87747e-06
-1.38883e-05
5.85899e-06
-1.80056e-05
6.44389e-06
-2.27807e-05
7.78476e-06
-2.56524e-05
8.5075e-06
-2.49168e-05
2.72268e-06
-1.9296e-05
-9.16152e-06
-1.04844e-05
-2.11089e-05
-2.46811e-05
-4.0875e-06
1.28331e-05
-7.05297e-06
1.0467e-05
-9.37531e-06
7.23059e-06
-1.18029e-05
6.22028e-06
-1.35452e-05
3.83878e-06
-1.33082e-05
-1.54653e-06
-1.10637e-05
-7.11407e-06
-8.13725e-06
-8.70685e-06
-6.05116e-06
-5.97736e-06
-5.33281e-06
-1.98353e-06
-5.59166e-06
9.94995e-07
-6.26948e-06
2.76934e-06
-7.00095e-06
3.72573e-06
-7.62428e-06
4.4146e-06
-8.13401e-06
5.3872e-06
-9.07113e-06
6.79612e-06
-1.12332e-05
8.60991e-06
-1.33883e-05
1.06029e-05
-1.38965e-05
9.48992e-06
-1.25629e-05
1.32159e-06
-9.31763e-06
-1.24743e-05
-4.68983e-06
-2.69594e-05
-2.93947e-05
-2.69282e-06
1.55259e-05
-4.97795e-06
1.27522e-05
-7.20504e-06
9.45767e-06
-9.45473e-06
8.46998e-06
-1.09266e-05
5.31069e-06
-1.07941e-05
-1.67906e-06
-9.43908e-06
-8.46911e-06
-7.72956e-06
-1.04164e-05
-6.44648e-06
-7.26044e-06
-6.00633e-06
-2.42368e-06
-6.37432e-06
1.36299e-06
-7.15377e-06
3.54878e-06
-7.92441e-06
4.49638e-06
-8.37567e-06
4.86585e-06
-8.35145e-06
5.36299e-06
-7.76726e-06
6.21193e-06
-6.80633e-06
7.64899e-06
-5.38957e-06
9.18629e-06
-3.1684e-06
7.57272e-06
-1.37202e-06
-3.33313e-07
-3.65686e-07
-1.37376e-05
4.51529e-07
-2.78123e-05
-2.89665e-05
-8.65031e-07
1.63909e-05
-1.85297e-06
1.37401e-05
-3.29391e-06
1.08986e-05
-4.41541e-06
9.59148e-06
-4.60586e-06
5.50114e-06
-4.38597e-06
-1.89895e-06
-4.66282e-06
-8.19227e-06
-5.46941e-06
-9.60977e-06
-6.20117e-06
-6.52868e-06
-6.71242e-06
-1.91244e-06
-7.33047e-06
1.98104e-06
-8.10294e-06
4.32124e-06
-8.80716e-06
5.2006e-06
-9.18554e-06
5.24423e-06
-9.12704e-06
5.30449e-06
-8.3786e-06
5.46349e-06
-6.47999e-06
5.75037e-06
-3.21661e-06
5.92292e-06
6.99499e-07
3.65648e-06
3.62201e-06
-3.25583e-06
3.43188e-06
-1.42383e-05
2.36283e-06
-2.67274e-05
-2.66026e-05
1.44213e-06
1.49488e-05
2.29071e-06
1.28915e-05
2.53247e-06
1.06569e-05
3.16585e-06
8.9581e-06
4.25945e-06
4.40754e-06
4.21995e-06
-1.85945e-06
1.87717e-06
-5.84949e-06
-1.86562e-06
-5.86699e-06
-5.18012e-06
-3.21417e-06
-7.18869e-06
9.61248e-08
-8.34527e-06
3.13763e-06
-9.1794e-06
5.15536e-06
-9.72685e-06
5.74806e-06
-9.88791e-06
5.40529e-06
-9.70702e-06
5.1236e-06
-9.05338e-06
4.80985e-06
-7.54045e-06
4.23744e-06
-4.77267e-06
3.15515e-06
-1.23937e-06
1.23177e-07
1.6958e-06
-6.19099e-06
2.09079e-06
-1.46333e-05
1.90177e-06
-2.65384e-05
-2.47009e-05
3.30674e-06
1.1642e-05
6.50352e-06
9.69474e-06
9.59007e-06
7.57031e-06
1.27155e-05
5.83267e-06
1.44087e-05
2.71434e-06
1.25262e-05
2.29991e-08
7.27589e-06
-5.99346e-07
1.14625e-06
2.62747e-07
-4.0282e-06
1.96027e-06
-7.38711e-06
3.45504e-06
-9.31096e-06
5.06148e-06
-1.03251e-05
6.16948e-06
-1.07183e-05
6.14131e-06
-1.05728e-05
5.25974e-06
-1.0162e-05
4.71283e-06
-9.46988e-06
4.1177e-06
-8.26733e-06
3.03489e-06
-6.32396e-06
1.21178e-06
-3.98835e-06
-2.21243e-06
-1.94872e-06
-8.23063e-06
-1.07568e-06
-1.55064e-05
-1.68146e-07
-2.74459e-05
-2.48693e-05
5.85162e-06
4.8987e-06
1.22675e-05
2.09558e-06
1.70839e-05
1.51585e-06
1.96791e-05
1.84285e-06
1.88307e-05
2.4359e-06
1.4042e-05
3.91773e-06
7.21062e-06
5.71914e-06
8.75485e-07
6.59772e-06
-3.91845e-06
6.7542e-06
-7.24188e-06
6.77847e-06
-9.71118e-06
7.53078e-06
-1.12181e-05
7.6764e-06
-1.17611e-05
6.68431e-06
-1.1414e-05
4.91261e-06
-1.07724e-05
4.07124e-06
-9.92844e-06
3.27373e-06
-8.74191e-06
1.84836e-06
-7.12256e-06
-4.07564e-07
-5.57682e-06
-3.75817e-06
-4.6708e-06
-9.13665e-06
-4.36111e-06
-1.58161e-05
-4.41295e-06
-2.7394e-05
-2.92825e-05
5.16194e-06
-5.5038e-06
2.50226e-06
2.38519e-06
4.16817e-08
2.1792e-06
-4.56216e-05
4.32372e-05
-9.80723e-05
5.24606e-05
-0.000134032
3.59698e-05
-0.000148621
1.46001e-05
-0.000149702
1.0945e-06
-0.000146251
-3.42914e-06
-0.000140969
-5.21205e-06
-0.000134214
-6.48424e-06
-0.000123807
-9.83172e-06
-0.000106828
-1.65374e-05
-9.07085e-05
-1.58237e-05
-7.70762e-05
-1.3364e-05
-6.09545e-05
-1.58359e-05
-3.492e-05
-2.56494e-05
-5.57072e-06
-2.90065e-05
-6.11763e-06
1.04056e-05
-3.86055e-05
-2.33437e-07
1.26824e-05
-6.07172e-05
7.05705e-05
-0.000118931
0.000101514
-0.000147943
8.14827e-05
-0.000136283
2.76854e-05
-0.000119962
2.60294e-06
-0.000112719
-2.02372e-06
-0.000107869
-3.38426e-06
-0.000102973
-4.68961e-06
-9.92487e-05
-6.38762e-06
-9.61807e-05
-1.08675e-05
-8.83276e-05
-2.09236e-05
-8.4611e-05
-1.34483e-05
-8.23239e-05
-7.04159e-06
-7.44895e-05
-2.13095e-05
-5.6682e-05
-4.26207e-05
-2.91269e-05
-5.64468e-05
-3.51201e-05
-1.34002e-05
-3.92926e-05
-5.00178e-05
6.31462e-05
-0.000105676
0.000127132
-0.000101872
0.000100063
-3.62398e-05
2.09753e-05
-1.03092e-05
3.83615e-06
-6.37603e-06
-2.65071e-08
-6.49401e-06
-7.04935e-07
-6.88298e-06
-9.61932e-07
-7.26248e-06
-1.42522e-06
-8.92341e-06
-3.32787e-06
-8.16692e-06
-1.98259e-05
-2.53897e-06
-4.02715e-05
-3.73964e-06
-1.70032e-05
-1.18112e-05
-1.79145e-06
-2.07641e-05
-1.40978e-06
-4.80096e-05
-8.10187e-06
-3.75194e-05
-6.01878e-05
-7.25361e-05
-4.12471e-05
2.39043e-06
-8.41595e-05
0.000107138
-7.90585e-05
0.000123846
-1.96582e-05
3.47955e-05
-5.59998e-06
6.88294e-06
-2.86711e-06
9.06065e-07
-2.45082e-06
-6.03323e-07
-1.87388e-06
-1.44236e-06
-1.34883e-06
-1.66848e-06
-7.78611e-07
-2.2249e-06
6.82661e-08
-4.29017e-06
3.16521e-05
-4.94011e-05
4.91282e-05
-5.63854e-05
5.19296e-05
-3.10875e-05
2.54456e-05
-1.01386e-05
1.12404e-05
7.34453e-06
-6.99357e-06
4.51677e-06
-3.05225e-05
-1.98093e-05
-0.000102927
-5.24537e-05
5.51163e-05
-7.76086e-05
0.000133672
-2.92746e-05
7.61846e-05
-6.6732e-06
1.21221e-05
-2.80983e-06
2.82834e-06
-2.11776e-06
-1.6597e-08
-1.47418e-06
-1.44201e-06
-8.64237e-07
-2.25204e-06
1.47034e-07
-2.93027e-06
1.83555e-06
-4.02783e-06
2.34949e-05
-1.78701e-05
6.16872e-05
-7.88264e-05
6.60606e-05
-6.07789e-05
6.26128e-05
-2.77691e-05
6.23954e-05
-9.54059e-06
2.68433e-05
1.55716e-05
1.05356e-05
1.54232e-05
-1.32438e-05
-1.26279e-06
-0.000115379
-4.89444e-05
0.000105047
-4.71745e-05
0.000133798
-8.22725e-06
3.55162e-05
-2.99355e-06
6.71042e-06
-1.72738e-06
1.35138e-06
-1.06794e-06
-8.95776e-07
-4.97617e-07
-2.24288e-06
6.74628e-07
-3.74883e-06
4.04789e-06
-7.02654e-06
1.26614e-05
-1.29744e-05
6.37362e-05
-4.70618e-05
7.54444e-05
-8.91828e-05
6.9652e-05
-5.4261e-05
6.55204e-05
-2.30062e-05
6.13154e-05
-4.98048e-06
3.90191e-05
1.19324e-05
2.21014e-05
2.4994e-05
4.69665e-06
1.22682e-05
-9.80026e-05
-4.1048e-05
0.000147424
-2.13366e-05
0.00011165
-4.28346e-06
1.82558e-05
-1.58517e-06
3.82923e-06
-7.6922e-07
3.23055e-07
1.09812e-07
-1.98559e-06
1.40578e-06
-3.7757e-06
4.95718e-06
-8.02585e-06
1.35572e-05
-3.67419e-05
3.47776e-05
-5.65756e-05
8.39586e-05
-5.74511e-05
7.08311e-05
-6.37529e-05
6.32289e-05
-4.07753e-05
6.23555e-05
-2.14514e-05
6.01817e-05
-2.17576e-06
5.92918e-05
1.35038e-05
2.31933e-05
4.36816e-05
6.03635e-06
2.47331e-05
-6.62224e-05
-2.96594e-05
0.000177554
-9.41346e-06
8.6907e-05
-1.75554e-06
1.04284e-05
-5.66582e-07
2.48377e-06
2.66105e-07
-6.93924e-07
1.66835e-06
-3.5975e-06
7.19016e-06
-9.65405e-06
2.76328e-05
-5.13939e-05
5.83165e-05
-0.000129919
5.24912e-05
-0.000111516
3.71509e-05
-6.4395e-05
2.55965e-05
-2.59483e-05
3.29404e-05
-1.47427e-05
5.23238e-05
-1.78139e-05
5.33461e-05
-2.5167e-06
5.46396e-05
1.25138e-05
2.79886e-05
4.762e-05
7.20031e-06
4.04703e-05
-4.22616e-05
3.48053e-06
-5.69579e-07
3.27764e-06
-1.60487e-07
1.62542e-06
-2.97517e-07
-3.4191e-07
-2.13202e-07
-2.21327e-06
5.1248e-08
-4.76796e-06
7.68793e-07
-8.59862e-06
2.41828e-06
-1.29772e-05
4.46607e-06
-1.59933e-05
6.5043e-06
-1.82852e-05
9.07041e-06
-2.13227e-05
1.05683e-05
-2.44833e-05
1.0837e-05
-2.58825e-05
8.0835e-06
-2.46926e-05
3.72266e-06
-2.33593e-05
2.73793e-06
-2.2125e-05
2.03943e-06
-2.05155e-05
2.38865e-07
-1.77677e-05
-3.1554e-06
-1.54232e-05
-6.10261e-06
-1.49209e-05
-9.63899e-06
-1.68279e-05
-1.3909e-05
-2.46983e-05
-1.95235e-05
-1.58892e-05
-3.80905e-05
-5.76131e-07
-3.84017e-09
-2.11825e-06
6.2834e-09
-3.45949e-06
-3.49261e-09
-4.6953e-06
-2.88523e-08
-6.10871e-06
-1.16614e-07
-8.05013e-06
-1.01391e-07
-1.10231e-05
-2.29339e-07
-1.56263e-05
-8.34521e-08
-2.14744e-05
-3.14696e-08
-2.5406e-05
1.48711e-07
-2.59502e-05
1.94614e-06
-2.42523e-05
3.84432e-06
-2.18966e-05
3.32521e-06
-2.00789e-05
1.90492e-06
-2.00965e-05
2.75555e-06
-2.0966e-05
2.90894e-06
-2.08583e-05
1.31119e-07
-1.82691e-05
-5.74453e-06
-1.62989e-05
-8.07271e-06
-1.62445e-05
-9.69333e-06
-1.80644e-05
-1.20891e-05
-2.24315e-05
-1.51562e-05
-1.32593e-05
-2.50605e-05
-6.20688e-09
3.25476e-10
-3.1756e-10
3.18277e-11
-3.83176e-09
1.62446e-12
-3.26231e-08
-1.72248e-10
-1.48604e-07
-1.03034e-09
-2.82293e-07
1.24816e-09
-1.08537e-06
-1.47061e-11
-2.63824e-06
-1.31371e-10
-5.04228e-06
-1.0535e-09
-9.30261e-06
-7.22991e-09
-1.50283e-05
-4.31173e-08
-2.02677e-05
-2.06735e-07
-2.4335e-05
-6.90935e-07
-2.55891e-05
-2.40688e-06
-2.14464e-05
-4.05053e-06
-1.66973e-05
-2.90585e-06
-1.32961e-05
-3.40711e-06
-1.16567e-05
-6.14912e-06
-1.23033e-05
-6.65091e-06
-1.33812e-05
-8.06922e-06
-1.38403e-05
-1.14043e-05
-1.54359e-05
-1.35598e-05
-1.36221e-05
-1.50714e-05
-6.5674e-11
8.41568e-11
-2.00751e-11
-3.3736e-11
-2.61405e-11
2.92986e-12
-2.03787e-10
-1.89259e-14
-1.24668e-09
-6.90384e-13
-1.65022e-12
1.742e-12
-1.64308e-11
4.2309e-14
-1.47805e-10
-1.70303e-15
-1.20096e-09
-3.69431e-13
-8.42976e-09
-1.81036e-12
-5.15322e-08
-2.32765e-11
-2.58e-07
-3.38268e-10
-9.46399e-07
-3.00423e-09
-3.7928e-06
-1.64578e-08
-8.89376e-06
-7.61762e-08
-1.30018e-05
-2.83384e-07
-1.81253e-05
-6.89317e-07
-2.50487e-05
-1.82089e-06
-2.78852e-05
-3.60131e-06
-2.81594e-05
-7.01787e-06
-3.03805e-05
-1.50668e-05
-3.1947e-05
-1.61626e-05
-1.30918e-05
-2.98279e-05
3.84061e-11
8.88826e-12
2.77796e-12
-2.12034e-12
-4.79288e-13
3.26734e-12
-7.36515e-13
-2.85915e-13
-1.89542e-12
-4.92686e-15
-1.7597e-14
1.63019e-14
-5.8954e-15
2.68435e-15
-1.45606e-14
-3.26467e-15
-1.99271e-13
-1.89719e-13
-1.86361e-12
-1.69108e-13
-2.51426e-11
-7.01787e-13
-3.2979e-10
-4.20844e-11
-3.09266e-09
-3.12566e-10
-1.98216e-08
-1.9759e-10
-9.80914e-08
-2.78293e-10
-3.81186e-07
-2.66329e-12
-1.06587e-06
-4.13636e-09
-2.85971e-06
-2.42372e-08
-6.74637e-06
-8.12765e-08
-2.86397e-05
-3.91347e-07
-5.02393e-05
-1.24277e-06
-5.15609e-05
-3.98038e-06
-6.42907e-06
-3.71497e-05
4.52911e-12
5.67104e-13
1.47866e-12
1.26636e-13
6.22926e-13
8.2569e-13
6.63932e-14
8.73734e-14
6.78115e-14
-1.9454e-14
4.63163e-14
1.3654e-15
-2.59486e-16
6.49503e-15
-3.06406e-13
4.80188e-14
-1.25562e-13
1.33452e-12
1.70714e-12
1.98724e-12
-2.66957e-12
4.31878e-12
-8.7541e-10
1.40902e-10
-2.38927e-09
1.32406e-09
-2.49382e-09
1.65459e-09
-8.07388e-10
4.21599e-10
-8.40098e-10
5.5439e-11
-4.91336e-09
-1.82824e-11
-2.89391e-08
-4.69289e-11
-1.08001e-07
-1.4778e-09
-4.83314e-07
-1.61865e-08
-1.64774e-06
-8.80287e-08
-5.23776e-06
-3.29752e-07
-1.02334e-06
-4.74709e-06
1.96654e-13
4.18105e-14
1.77191e-13
2.41912e-14
1.57745e-13
-5.05899e-15
2.02953e-14
3.12154e-14
3.55837e-15
1.85352e-15
2.07962e-15
2.85482e-16
8.29965e-16
5.55698e-16
-2.42582e-13
4.15215e-14
-7.25164e-13
1.93388e-12
3.48433e-13
5.53e-12
2.87788e-12
6.08738e-12
-4.72745e-10
1.14141e-10
-1.46924e-09
5.99396e-10
-5.2538e-10
1.46969e-09
-8.36925e-11
2.25267e-11
-2.27711e-11
-5.32915e-13
-3.32672e-11
-1.45897e-12
-9.52722e-11
5.15537e-12
-6.35805e-10
2.24666e-11
-1.46294e-08
-1.51033e-09
-8.25315e-08
-2.02662e-08
-2.89946e-07
-1.30607e-07
-7.87211e-07
-5.95554e-07
4.19475e-15
4.64703e-15
1.4956e-14
1.77402e-15
4.74355e-15
1.02238e-15
3.13032e-15
1.6237e-15
2.78706e-16
1.10931e-15
9.99038e-17
4.05221e-16
1.20318e-16
5.0003e-16
-7.98807e-14
2.12326e-14
-8.17614e-13
1.78446e-12
2.35379e-13
3.31243e-12
-1.94684e-12
6.62858e-12
-1.13205e-10
1.06848e-11
-1.45408e-10
-2.33295e-11
-2.42184e-11
4.66287e-12
-2.53547e-12
1.0028e-12
-4.25018e-13
4.64388e-14
4.11847e-13
5.81055e-13
8.54308e-13
1.17095e-11
2.73171e-10
8.66583e-11
5.51097e-09
1.19587e-09
-1.02417e-08
-1.08271e-09
-1.34234e-07
-4.71663e-08
-5.98802e-07
-6.38579e-07
1.15159e-16
1.02378e-15
3.53265e-16
4.24489e-16
2.37508e-16
2.53319e-16
1.25398e-16
1.21568e-16
6.28695e-17
1.77713e-16
3.50304e-17
3.83469e-16
4.7535e-17
5.57188e-16
-3.61967e-15
4.06542e-15
-9.73577e-14
1.43139e-13
3.77392e-13
1.11936e-12
-8.90385e-12
6.63168e-12
-8.73709e-12
-3.22525e-12
-3.44336e-12
-1.80811e-12
-9.90897e-13
1.22059e-12
-2.0324e-13
1.73892e-13
-9.50367e-14
2.29458e-13
1.9852e-13
2.60319e-12
-5.53524e-12
2.00791e-11
4.10521e-11
4.39697e-11
1.60267e-09
1.93448e-09
2.32774e-08
5.39441e-09
-6.98051e-08
2.80486e-08
-4.01862e-08
-8.97518e-07
1.00167e-17
1.37391e-16
1.53873e-17
4.62761e-17
1.16101e-17
2.24155e-17
8.59938e-18
1.71391e-17
1.83469e-17
9.9869e-17
2.43076e-17
3.5848e-16
-6.74358e-18
6.01731e-16
-5.58283e-16
1.34506e-15
9.276e-15
7.89578e-15
-8.07423e-14
-4.76677e-15
-2.48328e-12
1.00417e-12
-4.06819e-12
-1.9373e-13
-1.12096e-12
3.71211e-12
-7.22055e-14
1.31603e-13
-1.72001e-14
7.10536e-14
-2.62507e-14
1.97257e-13
-5.60809e-12
1.88149e-11
3.17466e-12
8.4942e-11
6.46174e-11
1.09048e-10
-8.51207e-11
4.9363e-10
2.31915e-09
5.94584e-09
1.71221e-08
1.2334e-08
6.47482e-08
-1.48502e-07
7.31393e-19
1.08761e-17
5.92782e-19
2.39698e-18
7.00987e-19
1.32315e-18
1.07412e-18
4.98691e-18
9.06627e-18
6.67217e-17
1.82252e-17
2.86267e-16
1.03163e-17
5.94098e-16
-1.39477e-16
6.71457e-16
-1.3649e-15
1.73407e-14
-4.32425e-14
6.5809e-14
-5.61882e-14
4.31425e-14
-2.91241e-13
1.37145e-13
-1.76308e-13
-9.37483e-15
-2.29513e-14
3.26597e-13
-5.09819e-14
4.27112e-14
-2.74946e-13
3.7339e-13
-1.99769e-11
3.29017e-11
8.43792e-13
1.00118e-10
3.53395e-11
6.05849e-11
-3.04786e-10
6.12622e-10
-2.2089e-10
1.04635e-08
1.30434e-09
2.4314e-08
1.94956e-08
5.20209e-08
5.61094e-20
8.35083e-19
2.21475e-20
1.3102e-19
3.0292e-20
8.62962e-20
3.28521e-19
1.8896e-18
3.68261e-18
3.14346e-17
1.07684e-17
1.56139e-16
1.18745e-17
4.85873e-16
7.86238e-18
4.98226e-16
-1.59579e-15
1.5194e-14
-5.51082e-15
1.45972e-13
-1.26754e-14
1.21779e-13
-1.97394e-14
1.43976e-13
-3.35453e-14
6.05217e-14
-1.4124e-15
8.41868e-14
-5.31126e-14
3.59132e-14
-4.51342e-13
1.16862e-12
-5.62483e-12
5.5236e-12
1.30317e-12
1.46169e-12
2.69581e-11
1.98011e-11
-3.14159e-10
1.45957e-09
-4.02714e-10
1.19213e-08
5.32521e-09
2.64315e-08
1.77686e-08
3.20856e-09
5.23046e-21
6.57415e-20
1.04079e-21
7.39004e-21
1.43453e-21
6.19564e-21
8.03797e-20
5.79972e-19
1.00616e-18
8.9314e-18
3.98379e-18
5.50362e-17
8.65385e-18
3.10484e-16
1.14208e-17
4.93376e-16
3.15664e-17
6.98798e-15
-3.07725e-15
1.47524e-13
-8.70962e-15
1.74174e-13
-1.44927e-14
1.79399e-13
-5.0742e-15
1.16218e-13
-3.98554e-15
6.74412e-15
-4.26825e-14
2.72201e-14
-1.58996e-13
2.36982e-13
-1.37379e-13
3.6213e-14
4.70497e-13
2.81664e-13
1.14815e-12
1.60794e-11
-6.47071e-10
1.36774e-09
-5.12642e-09
6.55556e-09
-1.89098e-09
2.79361e-08
1.70289e-08
1.40809e-09
4.51001e-22
4.92634e-21
5.82801e-23
4.41496e-22
8.44906e-23
3.94752e-22
1.53889e-20
1.21749e-19
1.94734e-19
1.79578e-18
1.01944e-18
1.51214e-17
4.45333e-18
1.78381e-16
5.64235e-18
4.95571e-16
-1.53639e-16
2.22403e-15
-2.54105e-15
7.72433e-14
-8.53199e-15
1.52952e-13
-9.00619e-15
2.0201e-13
-1.19083e-15
1.14019e-13
-6.3771e-16
8.0348e-16
-7.13181e-15
3.0364e-15
-6.64891e-15
7.35244e-16
-8.75453e-15
1.33287e-14
-2.80189e-13
3.38303e-13
4.92281e-12
1.03042e-11
-1.36918e-09
9.08824e-10
-4.15093e-09
6.50761e-10
-3.5102e-09
2.35699e-09
1.91402e-08
-1.29048e-08
3.61688e-23
3.90764e-22
2.89206e-24
3.45768e-22
3.36791e-24
3.01076e-22
2.39993e-21
1.91298e-20
3.24386e-20
3.14003e-19
2.42053e-19
4.14437e-18
1.99545e-18
1.00466e-16
1.1964e-18
4.58251e-16
-8.99688e-17
7.14876e-16
-1.29832e-15
1.18481e-14
-7.00087e-15
5.73145e-14
-7.58898e-15
1.37994e-13
-3.04934e-16
3.50575e-14
-7.9106e-17
1.20928e-16
-1.97989e-16
1.89902e-16
-4.23156e-16
4.07774e-16
9.01475e-16
3.53141e-15
1.48144e-13
1.66071e-13
-6.24945e-11
1.71964e-11
-1.24678e-10
7.06945e-12
-1.29579e-10
5.15921e-11
-8.03235e-10
2.14321e-09
2.85298e-08
-1.28867e-08
3.28971e-24
2.89818e-22
-4.75691e-24
-2.7422e-22
-6.40326e-25
-3.76045e-23
3.27741e-22
2.42818e-21
5.25756e-21
4.97859e-20
6.58694e-20
1.16887e-18
1.05137e-18
4.75622e-17
5.6528e-19
3.12457e-16
-8.62984e-18
3.56835e-16
-2.10487e-16
8.76929e-16
-2.43877e-15
7.22182e-15
-1.26178e-15
2.74813e-14
-2.16714e-17
2.60163e-15
-1.02389e-17
4.55767e-17
-2.02434e-17
4.94352e-17
-5.00296e-17
1.00404e-16
2.50995e-15
9.49382e-16
-2.8954e-13
6.09291e-14
-1.91287e-13
2.68007e-13
-4.76512e-12
2.02891e-12
-1.1671e-10
1.1485e-10
-2.54058e-09
4.26049e-09
4.72168e-08
-2.51829e-08
-1.06972e-24
-1.05483e-22
-5.03102e-24
-3.0648e-22
-2.83779e-24
-1.77573e-22
4.08581e-23
2.21664e-22
8.33812e-22
6.87794e-21
2.00751e-20
3.0247e-19
5.72775e-19
1.52088e-17
1.31269e-18
1.30061e-16
-7.59079e-19
1.90926e-16
-1.31391e-17
1.56831e-16
-2.23776e-16
5.11779e-16
-6.76586e-17
1.60315e-15
-2.17938e-18
1.35238e-16
-2.92351e-18
1.9501e-17
-4.40906e-18
1.86187e-17
-1.35934e-17
2.44917e-17
-4.63208e-16
5.44821e-16
1.5118e-14
4.43383e-15
1.92269e-13
3.54681e-14
-1.45858e-13
1.48934e-12
3.24353e-11
7.19368e-11
2.71397e-09
1.38948e-09
7.15638e-08
-1.39386e-07
-1.48878e-24
-1.59274e-22
-3.47885e-24
-2.22249e-22
-3.35341e-24
-2.1319e-22
6.41554e-24
1.37041e-23
1.24513e-22
8.20144e-22
5.92684e-21
6.59123e-20
2.26685e-19
3.04462e-18
1.15548e-18
3.03129e-17
8.553e-19
7.18607e-17
-6.19944e-20
5.9969e-17
-6.10213e-18
7.22281e-17
-2.63817e-18
1.02325e-16
-4.63932e-19
1.44839e-17
-5.57285e-19
5.50496e-18
-8.13228e-19
4.0055e-18
-4.53904e-18
5.02579e-18
-9.19653e-17
1.32006e-16
2.26273e-17
8.22785e-16
2.22696e-14
5.29004e-15
1.25696e-12
1.45686e-13
6.58301e-11
5.11305e-12
-2.03999e-09
6.92327e-10
9.19929e-10
-5.41371e-10
-1.19274e-24
-1.3158e-22
-2.09762e-24
-1.36736e-22
-2.93016e-24
-1.80115e-22
2.43713e-24
7.14802e-24
1.72006e-23
8.84459e-23
1.53022e-21
1.18227e-20
5.95823e-20
4.35807e-19
4.51784e-19
4.38021e-18
7.65071e-19
1.58752e-17
6.61162e-19
2.32429e-17
4.73554e-19
2.13735e-17
5.8674e-20
1.26192e-17
-2.95755e-20
2.77696e-18
-3.34571e-20
8.67074e-19
-5.95637e-20
3.93841e-19
-4.12249e-19
6.18261e-19
-8.77786e-18
1.61755e-17
-7.88566e-17
1.93811e-16
1.8354e-15
1.85644e-15
1.22443e-13
1.26615e-14
1.73466e-13
4.47133e-13
3.31451e-12
3.89498e-12
1.4902e-10
3.70049e-10
-8.35837e-25
-9.09995e-23
-1.15943e-24
-7.45291e-23
-2.14293e-24
-1.22532e-22
-8.43118e-26
-4.08893e-24
2.3296e-24
9.20591e-24
3.27243e-22
1.74795e-21
1.16142e-20
5.47179e-20
1.02788e-19
5.29972e-19
3.11008e-19
2.36581e-18
4.25228e-19
5.78812e-18
4.10203e-19
6.44365e-18
1.21203e-19
2.40298e-18
1.31956e-20
6.68715e-19
2.72944e-21
1.09164e-19
1.13257e-21
3.03689e-20
-1.13295e-21
5.73639e-20
-1.64467e-19
1.57727e-18
-5.63205e-18
3.70811e-17
-2.99479e-17
7.33768e-16
1.797e-15
4.5635e-15
4.91079e-14
3.34358e-14
1.59524e-12
9.50169e-13
7.59479e-11
3.72206e-11
-5.37514e-25
-5.61829e-23
-5.88814e-25
-3.62984e-23
-1.36086e-24
-7.06406e-23
-1.65102e-25
-7.00108e-24
4.71315e-25
8.17675e-25
5.75125e-23
2.14825e-22
1.94862e-21
6.68179e-21
1.87277e-20
6.7232e-20
7.43814e-20
3.12932e-19
1.45238e-19
8.34261e-19
1.62269e-19
1.14705e-18
3.85187e-20
4.71605e-19
6.93476e-21
1.46163e-19
9.87115e-22
1.81824e-20
7.48899e-22
2.66939e-21
2.01686e-21
5.48121e-21
7.44345e-20
1.65849e-19
1.87613e-18
5.41045e-18
4.16553e-17
1.69414e-16
5.7879e-16
1.87772e-15
3.16106e-14
6.57405e-15
7.16823e-13
1.76615e-13
2.16679e-11
5.15285e-11
-3.18258e-25
-3.1445e-23
-2.72915e-25
-1.58241e-23
-7.57769e-25
-3.5353e-23
-1.48001e-25
-5.48539e-24
1.94013e-25
1.88594e-25
8.33019e-24
2.23322e-23
3.00044e-22
7.89186e-22
3.19052e-21
8.82259e-21
1.3645e-20
4.01661e-20
2.80492e-20
8.81706e-20
3.39012e-20
1.18782e-19
1.08538e-20
6.96823e-20
2.35103e-21
2.48925e-20
2.12668e-22
3.38698e-21
1.24567e-22
2.04508e-22
4.12816e-22
4.57055e-22
1.83255e-20
1.8646e-20
6.15865e-19
6.73456e-19
2.04242e-17
2.59016e-17
3.0207e-16
5.54065e-16
4.74245e-15
4.16477e-15
1.52038e-13
2.10984e-14
1.85363e-12
1.96496e-11
-1.73107e-25
-1.60262e-23
-1.14548e-25
-6.18286e-24
-3.71055e-25
-1.55581e-23
-9.53221e-26
-3.11319e-24
7.03246e-26
2.2947e-26
1.00574e-24
1.99202e-24
4.19673e-23
8.48255e-23
5.0033e-22
1.06193e-21
2.10043e-21
4.64132e-21
3.91336e-21
8.74955e-21
4.72706e-21
1.05858e-20
2.25813e-21
7.7129e-21
5.53446e-22
3.06361e-21
3.65909e-23
4.02857e-22
1.14943e-23
1.53771e-22
4.38203e-23
3.35109e-23
3.1297e-21
1.98776e-21
1.22229e-19
7.97378e-20
4.72412e-18
2.92502e-18
1.149e-16
8.9441e-17
9.94778e-16
1.31866e-15
2.3831e-14
2.75555e-15
2.00494e-13
1.65002e-12
-8.61352e-26
-7.45244e-24
-4.33407e-26
-2.17082e-24
-1.60248e-25
-6.07094e-24
-4.89983e-26
-1.42695e-24
-3.07653e-28
-7.16974e-27
1.0234e-25
1.54525e-25
5.06756e-24
7.73827e-24
6.69367e-23
1.05613e-22
2.71571e-22
4.48181e-22
4.73055e-22
8.18641e-22
5.67434e-22
9.60089e-22
3.29174e-22
7.06362e-22
7.80758e-23
2.54595e-22
3.00492e-23
2.03585e-23
-2.97593e-24
-1.79658e-23
6.99801e-24
1.92064e-23
4.25752e-22
1.51386e-22
1.96355e-20
8.87469e-21
7.53616e-19
2.99078e-19
2.24747e-17
8.42376e-18
3.28344e-16
1.62521e-16
5.2661e-15
8.31187e-16
1.22305e-14
1.89603e-13
-3.90511e-26
-3.16732e-24
-1.47776e-26
-6.87797e-25
-6.13141e-26
-2.11449e-24
-2.11182e-26
-5.54241e-25
-3.34226e-28
-6.97197e-27
9.31064e-27
1.07794e-26
5.06892e-25
5.90123e-25
7.23046e-24
8.45758e-24
2.9022e-23
3.5856e-23
5.01418e-23
6.68506e-23
6.03703e-23
7.90526e-23
3.46905e-23
5.30632e-23
5.964e-24
1.33652e-23
2.46752e-24
1.38852e-23
-1.72847e-23
-8.56901e-23
-1.07621e-23
-4.69164e-23
3.98275e-23
3.5179e-23
2.65985e-21
8.76598e-22
1.00894e-19
3.05878e-20
2.79929e-18
6.88715e-19
5.12564e-17
1.16503e-17
5.11669e-16
1.38314e-16
8.53716e-16
1.16234e-14
-1.61087e-26
-1.23276e-24
-4.56227e-27
-1.9779e-25
-2.091e-26
-6.61393e-25
-7.8276e-27
-1.8747e-25
-1.80369e-28
-3.41882e-27
9.00128e-28
6.56662e-28
4.27651e-26
3.99258e-26
6.39253e-25
5.82669e-25
2.59208e-24
2.50596e-24
4.50315e-24
4.74578e-24
5.42438e-24
5.44557e-24
2.60641e-24
2.88665e-24
1.68234e-24
9.32773e-24
-5.88623e-24
-2.86132e-23
-2.09015e-23
-8.90138e-23
-1.65189e-23
-6.1564e-23
1.41917e-23
4.46837e-24
3.01981e-22
7.11934e-23
1.24837e-20
3.1693e-21
3.05518e-19
6.49808e-20
5.03563e-18
8.44796e-19
4.13236e-17
8.24081e-18
5.76995e-17
8.68323e-16
-6.06279e-27
-4.40446e-25
-1.28201e-27
-5.19964e-26
-6.39835e-27
-1.86887e-25
-2.54425e-27
-5.62188e-26
-7.51696e-29
-1.31125e-27
1.25729e-28
6.18868e-29
3.22152e-27
2.53653e-27
4.93014e-26
3.74465e-26
2.02284e-25
1.62437e-25
3.39419e-25
3.01984e-25
4.01173e-25
2.88589e-25
3.63746e-25
2.07005e-24
-6.94743e-25
-3.4499e-24
-7.45577e-24
-3.23257e-23
-1.6685e-23
-6.31583e-23
-1.43347e-23
-4.73071e-23
-2.20113e-24
-6.32025e-24
2.77363e-23
8.01916e-24
1.479e-21
3.27074e-22
3.54414e-20
7.47992e-21
4.91741e-19
8.45036e-20
3.40569e-18
5.70448e-19
1.30751e-18
7.24012e-17
-2.09486e-27
-1.44836e-25
-3.30555e-28
-1.26035e-26
-1.76472e-27
-4.79805e-26
-7.35974e-28
-1.51392e-26
-2.65809e-29
-4.31525e-28
2.39532e-29
1.13528e-29
2.22382e-28
1.46252e-28
3.47554e-27
2.26474e-27
1.41354e-26
9.69843e-27
2.13208e-26
1.56572e-26
3.57833e-26
1.20801e-25
-2.5479e-26
-1.33345e-25
-1.19126e-24
-5.42754e-24
-5.38709e-24
-2.13788e-23
-1.01211e-23
-3.49751e-23
-9.06153e-24
-2.72349e-23
-2.45669e-24
-6.40951e-24
3.62366e-24
1.93881e-24
1.6911e-22
3.36369e-23
4.65691e-21
1.01121e-21
5.9703e-20
1.19809e-20
3.8537e-19
6.23746e-20
2.3517e-19
5.48094e-18
-6.69475e-28
-4.39544e-26
-7.89689e-29
-2.84536e-27
-4.413e-28
-1.12543e-26
-1.91142e-28
-3.69729e-27
-8.24607e-30
-1.25971e-28
2.25021e-30
8.56505e-31
1.30458e-29
8.14691e-30
2.19875e-28
1.14771e-28
7.96155e-28
5.23961e-28
1.86687e-27
7.91161e-27
9.28386e-28
5.24822e-27
-1.03205e-25
-5.06462e-25
-8.3998e-25
-3.58331e-24
-2.87865e-24
-1.06797e-23
-4.92713e-24
-1.58923e-23
-4.50992e-24
-1.26307e-23
-1.56347e-24
-3.79494e-24
3.33251e-25
4.20885e-26
1.90677e-23
3.57186e-24
6.91033e-22
1.53066e-22
9.29538e-21
2.00519e-21
5.17907e-20
1.0032e-20
2.44564e-20
1.99905e-19
-1.99356e-28
-1.23423e-26
-1.76715e-29
-6.05375e-28
-1.00362e-28
-2.42468e-27
-4.49129e-29
-8.25409e-28
-2.28067e-30
-3.3145e-29
-1.73148e-31
-2.0592e-30
7.90479e-31
6.01798e-30
1.1619e-29
6.39837e-29
5.49779e-29
3.96818e-28
3.72408e-29
2.31712e-28
-5.59691e-27
-3.01482e-26
-7.28271e-26
-3.40467e-25
-4.1626e-25
-1.691e-24
-1.23105e-24
-4.34674e-24
-1.98625e-24
-6.09178e-24
-1.83739e-24
-4.88859e-24
-7.35926e-25
-1.69504e-24
-9.06382e-26
-1.80221e-25
2.28036e-24
3.75835e-25
1.1129e-22
2.35969e-23
1.56014e-21
3.10307e-22
7.20523e-21
1.71717e-21
1.55584e-21
1.28005e-20
-5.55032e-29
-3.2142e-27
-3.74864e-30
-1.2296e-28
-2.08277e-29
-4.8231e-28
-9.59688e-30
-1.69568e-28
-5.67523e-31
-7.94033e-30
-1.32565e-31
-1.51888e-30
-2.81441e-31
-2.69621e-30
1.92836e-31
1.56717e-30
-7.80918e-30
-5.43676e-29
-2.60741e-28
-1.56532e-27
-3.98141e-27
-2.06978e-26
-3.42076e-26
-1.54381e-25
-1.63013e-25
-6.39426e-25
-4.38578e-25
-1.49538e-24
-6.77849e-25
-2.00735e-24
-6.28604e-25
-1.6143e-24
-2.76332e-25
-6.13907e-25
-5.33973e-26
-1.02307e-25
2.82171e-25
2.67526e-26
1.66757e-23
2.95379e-24
2.30842e-22
3.76744e-23
9.37632e-22
2.38382e-22
2.01341e-22
1.12277e-21
-1.44189e-29
-7.77895e-28
-7.61588e-31
-2.41366e-29
-3.95454e-30
-8.90292e-29
-1.87144e-30
-3.22412e-29
-1.2786e-31
-1.74628e-30
-6.31599e-32
-7.0691e-31
-2.91176e-31
-2.72526e-30
-1.38696e-30
-1.10123e-29
-1.36871e-29
-9.30947e-29
-1.71708e-28
-1.00707e-27
-1.78855e-27
-9.08478e-27
-1.2521e-26
-5.52214e-26
-5.30788e-26
-2.03498e-25
-1.33444e-25
-4.44773e-25
-1.99238e-25
-5.76785e-25
-1.84083e-25
-4.6208e-25
-8.599e-26
-1.8665e-25
-2.006e-26
-3.75185e-26
3.21543e-26
8.65911e-27
1.86915e-24
2.3772e-25
2.6993e-23
3.4053e-24
1.25225e-22
2.65647e-23
2.79075e-23
1.48705e-22
-3.4838e-30
-1.75275e-28
-1.49104e-31
-4.62111e-30
-6.88106e-31
-1.53274e-29
-3.33687e-31
-5.70314e-30
-2.61922e-32
-3.55289e-31
-2.31216e-32
-2.57148e-31
-1.41535e-31
-1.31601e-30
-8.48266e-31
-6.68825e-30
-7.28673e-30
-4.9184e-29
-7.16444e-29
-4.16677e-28
-6.1751e-28
-3.10824e-27
-3.78878e-27
-1.6549e-26
-1.4767e-26
-5.6049e-26
-3.52315e-26
-1.16201e-25
-5.10468e-26
-1.46179e-25
-4.67717e-26
-1.1606e-25
-2.27013e-26
-4.86694e-26
-5.83917e-27
-1.07729e-26
2.52966e-27
2.90292e-28
1.39131e-25
1.21481e-26
2.46792e-24
2.41128e-25
1.60566e-23
2.52516e-24
3.21104e-24
2.27134e-23
-7.81105e-31
-3.68257e-29
-2.81477e-32
-8.66569e-31
-1.09851e-31
-2.47376e-30
-5.44263e-32
-9.43091e-31
-4.89133e-33
-6.7376e-32
-6.9328e-33
-7.83411e-32
-4.94983e-32
-4.67466e-31
-3.27642e-31
-2.62172e-30
-2.65367e-30
-1.81533e-29
-2.29172e-29
-1.34887e-28
-1.74656e-28
-8.88289e-28
-9.74244e-28
-4.29295e-27
-3.56032e-27
-1.36112e-26
-8.13752e-27
-2.69949e-26
-1.14715e-26
-3.29894e-26
-1.03828e-26
-2.58307e-26
-5.14899e-27
-1.10457e-26
-1.39693e-27
-2.57236e-27
-5.90509e-29
-9.27634e-29
7.3977e-27
4.86263e-28
1.81874e-25
1.40579e-26
1.61673e-24
2.02846e-25
2.32989e-25
2.39345e-24
-1.6216e-31
-7.22495e-30
-5.09894e-33
-1.58973e-31
-1.60974e-32
-3.76244e-31
-8.11435e-33
-1.46478e-31
-8.33929e-34
-1.19985e-32
-1.75328e-33
-2.07193e-32
-1.3777e-32
-1.36045e-31
-9.66172e-32
-8.07608e-31
-7.54159e-31
-5.38043e-30
-5.97697e-30
-3.6616e-29
-4.16333e-29
-2.19889e-28
-2.15724e-28
-9.84744e-28
-7.4819e-28
-2.95552e-27
-1.64789e-27
-5.63366e-27
-2.26208e-27
-6.68581e-27
-2.01503e-27
-5.13665e-27
-1.00682e-27
-2.20582e-27
-2.80179e-28
-5.24831e-28
-2.51058e-29
-3.9922e-29
3.39723e-28
1.72419e-29
1.06661e-26
6.56891e-28
1.1193e-25
1.15782e-26
1.00686e-26
1.42719e-25
-3.09852e-32
-1.3256e-30
-8.77927e-34
-2.836e-32
-2.16774e-33
-5.4214e-32
-1.10495e-33
-2.14697e-32
-1.29893e-34
-2.02156e-33
-3.80131e-34
-4.86918e-33
-3.18222e-33
-3.4073e-32
-2.31553e-32
-2.0972e-31
-1.75813e-31
-1.35702e-30
-1.30758e-30
-8.64746e-30
-8.48764e-30
-4.82664e-29
-4.14056e-29
-2.02933e-28
-1.37299e-28
-5.80554e-28
-2.9225e-28
-1.06607e-27
-3.90338e-28
-1.2267e-27
-3.40648e-28
-9.19839e-28
-1.69261e-28
-3.91129e-28
-4.7246e-29
-9.28878e-29
-5.53752e-30
-9.18657e-30
1.64204e-29
1.9625e-30
4.77338e-28
2.42027e-29
5.06966e-27
4.39385e-28
3.22909e-28
5.47848e-27
-5.41877e-33
-2.27843e-31
-1.41885e-34
-4.8801e-33
-2.68481e-34
-7.4399e-33
-1.37413e-34
-2.98392e-33
-1.85039e-35
-3.24611e-34
-7.14234e-35
-1.03426e-33
-6.23752e-34
-7.56101e-33
-4.64866e-33
-4.76556e-32
-3.44977e-32
-3.00994e-31
-2.4387e-31
-1.81969e-30
-1.49298e-30
-9.55753e-30
-6.91594e-30
-3.80574e-29
-2.20186e-29
-1.0424e-28
-4.53338e-29
-1.84573e-28
-5.87781e-29