/*--------------------------------*- C++ -*----------------------------------*\
| =========                 |                                                 |
| \\      /  F ield         | OpenFOAM: The Open Source CFD Toolbox           |
|  \\    /   O peration     | Version:  2206                                  |
|   \\  /    A nd           | Website:  www.openfoam.com                      |
|    \\/     M anipulation  |                                                 |
\*---------------------------------------------------------------------------*/
FoamFile
{
    version     2.0;
    format      ascii;
    arch        "LSB;label=32;scalar=64";
    class       volScalarField;
    location    "0.7";
    object      alpha.water;
}
// * * * * * * * * * * * * * * * * * * * * * * * * * * * * * * * * * * * * * //

dimensions      [0 0 0 0 0 0 0];

internalField   nonuniform List<scalar> 
2268
(
0.999999
0.999999
1
1
1
1
1
1
1
1
1
1
1
1
1
0.999992
0.982604
0.94624
0.957158
0.998661
0.99875
0.998948
0.998948
0.999999
1
1
1
1
1
1
1
1
1
1
1
1
1
1
0.999997
0.992245
0.948573
0.943915
0.959415
0.976622
0.97743
0.999241
0.999999
1
1
1
1
1
1
1
1
1
1
1
1
1
1
1
0.999986
0.989283
0.943613
0.935766
0.935766
0.941983
0.999266
1
1
1
1
1
1
1
1
1
1
1
1
1
1
1
1
1
0.999997
0.995148
0.969338
0.936587
0.999906
0.999268
1
1
1
1
1
1
1
1
1
1
1
1
1
1
1
1
1
1
1
1
0.9937
0.999915
0.999992
1
1
1
1
1
1
1
1
1
1
1
1
1
1
1
1
1
1
1
1
1
1
0.999971
1
1
1
1
1
1
1
0.999996
1
1
1
1
1
1
1
1
1
1
1
1
1
1
0.999959
1
0.972599
0.948999
0.928787
0.9197
0.927836
0.96096
0.999999
1
1
1
1
1
1
1
1
1
1
1
1
1
0.999999
0.99997
0.074222
0.0728269
0.0732864
0.858582
0.904672
0.90468
0.904653
0.904507
0.904001
0.9021
0.899326
0.897707
0.900597
0.902363
0.903208
0.903582
0.907777
0.854775
0.840174
0.3857
0.074222
0.541172
0.896434
0.904676
0.867019
0.680493
0.652073
0.662356
0.665329
0.679331
0.712647
0.76564
0.801575
0.844568
0.890045
0.91516
0.922534
0.922424
0.727364
0.557393
0.838304
0.873273
0.321127
0.0760392
0.0351182
0.0298441
0.0428466
0.0561955
0.0903727
0.178117
0.306581
0.29862
0.29862
0.327693
0.556763
0.893861
0.922658
0.72736
0.756659
0.785898
0.325194
0.0173295
0.013375
0.0136662
0.0136661
0.0139078
0.0147851
0.0165826
0.502001
0.745374
0.755913
0.382961
0.18095
0.181828
0.35141
0.922393
0.72736
0.725236
0.640789
0.0185834
0.0131243
0.013178
0.0133883
0.0139078
0.0148071
0.0165842
0.0395275
0.658719
0.758988
0.761345
0.761353
0.346779
0.180838
0.19111
0.919044
0.725235
0.643244
0.118918
0.0136246
0.0126459
0.0129368
0.0131779
0.0151753
0.019275
0.0229111
0.352081
0.74707
0.759421
0.761359
0.761345
0.668399
0.189351
0.203506
0.866104
0.716404
0.61298
0.0159555
0.01256
0.0125999
0.0126459
0.0133687
0.0219154
0.0844593
0.149965
0.478544
0.683991
0.740059
0.760565
0.761359
0.760566
0.30871
0.201786
0.611945
0.704048
0.474222
0.0133866
0.0124251
0.0125145
0.0125794
0.0167381
0.150108
0.494841
0.632173
0.590487
0.247442
0.282948
0.658804
0.760565
0.758374
0.443196
0.206273
0.498293
0.321333
0.318142
0.328154
0.349513
0.407133
0.527444
0.695276
0.864585
0.97338
1
1
1
1
1
1
1
1
1
1
1
1
0.999999
0.999994
6.55473e-05
0.00927772
0.0288291
0.0552124
0.0926777
0.138115
0.198839
0.296336
0.457037
0.662225
0.826496
0.924195
0.976201
1
1
1
1
1
1
1
1
0.999999
0.999992
1.03024e-05
1.78832e-06
1.39399e-07
5.10144e-07
2.58741e-06
0.000130189
0.00215041
0.0113784
0.0314647
0.074526
0.163278
0.289738
0.420487
0.558484
0.700938
0.807324
0.871266
0.943332
0.983269
0.995067
0.998212
0.999983
0.999986
1.33682e-06
1.39397e-07
8.21339e-08
2.69484e-08
8.6539e-08
7.25525e-09
2.65368e-10
2.40408e-10
3.41928e-10
2.29239e-09
2.55729e-08
2.34282e-07
1.74011e-06
0.00188894
0.0535667
0.121722
0.19815
0.294279
0.421164
0.522343
0.647786
0.838517
0.927112
1.50411e-07
8.57988e-08
8.63949e-08
6.98464e-09
3.19445e-09
2.66277e-10
2.4257e-10
2.4257e-10
2.41138e-10
3.41928e-10
2.29239e-09
2.55729e-08
2.34233e-07
1.73943e-06
1.0194e-05
1.95664e-06
2.8894e-06
1.41033e-05
0.000424418
0.0757251
0.2303
0.326455
0.335434
1.38279e-08
1.59861e-08
4.96425e-08
5.83235e-09
2.42998e-10
2.24839e-10
2.07973e-10
2.52498e-09
2.01184e-08
7.55314e-09
9.64507e-09
3.17152e-06
3.24693e-05
3.3073e-05
2.12832e-05
1.23098e-07
2.09584e-07
1.21429e-06
8.12046e-06
4.38645e-05
0.000226501
0.000892562
0.0126633
1.12464e-09
8.3608e-10
4.86077e-09
1.908e-09
7.07848e-11
2.71074e-11
3.15573e-11
1.42251e-09
5.69937e-08
8.02303e-08
5.40908e-08
2.73938e-06
3.02627e-05
3.32832e-05
5.27335e-06
1.43045e-08
3.14421e-08
2.22402e-07
1.35371e-06
8.23872e-06
4.66384e-05
0.000228177
0.00101944
1.18139e-10
6.72749e-11
2.39926e-11
1.65309e-10
3.65668e-11
7.85638e-12
1.04112e-11
5.04202e-10
5.60142e-08
1.10696e-07
1.02708e-07
1.37434e-06
3.96084e-06
3.53645e-06
1.15611e-08
6.08318e-09
1.61235e-08
3.5698e-08
6.5569e-07
3.66855e-05
5.04038e-05
0.000183864
0.00108018
1.21055e-11
6.12804e-12
6.60268e-12
7.14212e-12
6.69168e-12
7.09566e-12
9.79869e-12
8.38916e-11
2.11764e-08
6.53877e-08
1.61536e-07
4.87296e-07
1.23881e-07
5.74119e-09
1.2916e-09
3.84241e-09
1.03131e-08
1.24439e-08
3.6159e-08
5.40881e-05
0.000132409
0.000178875
0.000831802
2.92136e-12
1.58922e-12
1.03256e-12
6.63991e-13
2.29406e-12
6.48568e-12
1.02155e-11
3.70604e-11
6.54138e-10
6.62582e-09
8.98807e-08
2.01781e-07
1.9674e-07
1.2916e-09
7.26842e-10
1.2916e-09
1.07345e-07
1.3947e-06
1.81265e-06
1.93359e-05
9.1447e-05
0.000100093
0.000245237
3.5227e-13
1.45943e-13
7.29797e-14
1.58478e-13
1.45335e-12
5.39862e-12
1.00004e-11
1.69331e-11
3.24944e-10
1.04991e-09
6.40481e-09
2.79721e-09
2.51782e-08
6.87113e-09
6.37078e-10
7.26842e-10
6.05875e-07
1.68797e-06
1.37532e-06
1.01509e-05
0.000122515
0.000156911
0.000174656
2.58379e-14
6.97969e-15
4.25608e-15
5.76076e-14
7.86251e-13
3.49493e-12
8.76127e-12
8.86216e-12
2.91004e-10
2.09882e-09
2.12614e-09
2.44657e-09
2.0966e-09
3.45538e-09
5.2945e-10
1.7481e-08
3.9071e-07
7.22657e-07
2.61488e-07
2.57716e-05
0.00026427
0.000375598
0.000385563
1.93563e-15
3.62395e-16
3.05127e-16
1.94758e-14
2.90049e-13
1.55944e-12
6.26194e-12
7.97139e-12
1.71143e-10
2.54183e-09
2.93704e-09
2.96605e-09
2.03129e-09
5.10168e-10
5.12515e-10
1.05182e-08
1.32186e-08
4.54525e-09
2.51044e-08
2.87188e-05
0.000286251
0.00037146
0.000259874
1.45271e-16
1.43701e-17
2.45511e-17
4.96143e-15
7.2668e-14
5.01648e-13
3.81899e-12
7.99025e-12
6.74406e-11
1.81606e-09
2.80456e-09
3.26681e-09
2.00433e-09
5.34831e-11
1.45775e-10
8.00601e-10
1.26195e-10
1.03455e-09
4.54525e-09
2.46643e-05
0.000149558
0.000174837
0.00013625
8.66924e-18
2.34499e-19
4.14587e-19
9.32227e-16
1.43288e-14
1.4217e-13
2.23152e-12
7.63198e-12
2.0532e-11
5.51857e-10
1.61034e-09
2.78849e-09
1.05138e-09
4.60719e-12
1.08945e-11
7.27314e-12
3.98059e-11
1.26195e-10
2.86922e-07
4.89652e-06
2.86643e-06
7.34052e-06
2.10793e-05
1.68835e-19
-4.68638e-18
-6.13815e-19
1.37818e-16
2.46928e-15
4.05258e-14
1.1745e-12
6.00435e-12
8.55271e-12
5.80787e-11
3.84806e-10
1.08529e-09
1.75804e-10
1.26942e-12
1.53169e-12
2.68425e-12
4.92525e-12
1.19468e-09
6.07319e-08
3.85785e-08
2.46003e-07
1.65855e-06
2.15984e-05
-1.38756e-18
-5.25446e-18
-2.89952e-18
1.54674e-17
3.7182e-16
1.1093e-14
4.66989e-13
3.26525e-12
4.52892e-12
5.89014e-12
3.50214e-11
1.26373e-10
9.40361e-12
5.26629e-13
5.54808e-13
7.67621e-13
8.32046e-12
1.42393e-10
2.0175e-10
3.35034e-09
4.07973e-08
7.28637e-07
0.000530363
-2.11472e-18
-3.82386e-18
-3.48409e-18
9.75663e-19
4.78853e-17
2.67206e-15
1.23409e-13
1.08052e-12
2.01439e-12
1.75136e-12
2.98264e-12
6.21812e-12
6.24632e-13
1.77115e-13
1.51955e-13
1.79905e-13
3.6645e-12
2.18588e-11
3.60647e-11
3.74578e-10
7.14723e-09
7.43321e-06
0.000248431
-1.76286e-18
-2.36118e-18
-2.94864e-18
3.24152e-21
5.37624e-18
5.40435e-16
2.19174e-14
2.12307e-13
5.94661e-13
6.83432e-13
7.05468e-13
5.3505e-13
1.02791e-13
3.71696e-14
2.1309e-14
2.7682e-14
6.72256e-13
5.47777e-12
2.44344e-11
5.66129e-11
8.76636e-09
1.56428e-06
1.02803e-06
-1.23038e-18
-1.29185e-18
-2.01148e-18
-6.56298e-20
5.6471e-19
9.02895e-17
3.02816e-15
2.91221e-14
1.12801e-13
2.09868e-13
2.2202e-13
9.58435e-14
2.41509e-14
5.06896e-15
1.70021e-15
2.85931e-15
7.34752e-14
1.2217e-12
1.41204e-11
5.47144e-11
7.23756e-10
2.98642e-09
9.24583e-08
-7.66899e-19
-6.31709e-19
-1.16416e-18
-1.12903e-19
5.7971e-20
1.24094e-17
3.80557e-16
3.68342e-15
1.64618e-14
4.07279e-14
5.09467e-14
2.00738e-14
5.59569e-15
7.39667e-16
1.33683e-16
2.62333e-16
7.23679e-15
2.0419e-13
4.59577e-12
3.30644e-11
3.80761e-11
2.59851e-10
8.09633e-09
-4.33569e-19
-2.76606e-19
-5.85583e-19
-8.89898e-20
3.15317e-21
1.41391e-18
4.62569e-17
4.86278e-16
2.21255e-15
5.16139e-15
6.91589e-15
3.43327e-15
1.09311e-15
1.41095e-16
1.08264e-17
2.41811e-17
7.92378e-16
2.71942e-14
8.97162e-13
1.27154e-11
4.84776e-11
5.62906e-11
7.88574e-10
-2.23358e-19
-1.08607e-19
-2.59319e-19
-5.08708e-20
0
1.35101e-19
5.27677e-18
6.23571e-17
2.74723e-16
5.37647e-16
6.60085e-16
4.38722e-16
1.63193e-16
2.21493e-17
2.69705e-19
1.14648e-18
8.91479e-17
3.32347e-15
1.19392e-13
2.89645e-12
2.68376e-11
2.29481e-11
8.76207e-11
-1.05066e-19
-3.83415e-20
-1.0194e-19
-2.35137e-20
-1.17771e-22
1.08293e-20
5.21775e-19
6.87392e-18
2.91199e-17
5.23124e-17
6.00085e-17
4.44137e-17
1.68437e-17
1.4423e-18
-2.60842e-19
4.16072e-21
8.91949e-18
3.92707e-16
1.2815e-14
3.65641e-13
5.7586e-12
1.46507e-11
1.04108e-11
-4.52041e-20
-1.22226e-20
-3.58078e-20
-9.2208e-21
-1.15661e-22
7.48535e-22
4.19705e-20
5.99191e-19
2.49837e-18
4.49857e-18
5.16948e-18
3.62541e-18
1.00589e-18
1.80152e-20
-1.27837e-18
-6.84001e-19
1.65863e-19
4.24334e-17
1.34181e-15
3.09628e-14
5.60357e-13
4.50216e-12
8.50099e-13
-1.78239e-20
-3.5391e-21
-1.13076e-20
-3.15216e-21
-5.7346e-23
4.57724e-23
2.80015e-21
4.16608e-20
1.75935e-19
3.25502e-19
3.72566e-19
2.16026e-19
1.43339e-20
-4.47621e-19
-1.37084e-18
-9.31351e-19
-1.40068e-35
4.01834e-18
1.47847e-16
2.78401e-15
3.75952e-14
4.46687e-13
8.19758e-14
-6.45587e-21
-9.37569e-22
-3.22907e-21
-9.56196e-22
-2.22618e-23
1.78519e-24
1.68665e-22
2.54079e-21
1.09496e-20
2.04494e-20
2.07225e-20
2.773e-21
-5.62079e-20
-5.21499e-19
-1.00774e-18
-7.45739e-19
-9.8337e-20
2.4889e-19
1.67847e-17
3.35755e-16
3.53408e-15
2.83189e-14
2.95554e-14
-2.15364e-21
-2.29198e-22
-8.38609e-22
-2.60681e-22
-7.42176e-24
-2.63365e-41
9.44674e-24
1.46211e-22
6.32897e-22
1.07527e-21
2.96726e-22
-2.2478e-21
-9.10267e-20
-3.56532e-19
-5.79768e-19
-4.48692e-19
-1.04967e-19
3.53507e-38
1.9044e-18
4.93153e-17
5.41841e-16
2.95233e-15
1.06376e-14
-6.63537e-22
-5.22216e-23
-1.99153e-22
-6.4494e-23
-2.19643e-24
0
3.75672e-25
7.32831e-24
2.9463e-23
1.41163e-23
0
-8.76895e-21
-6.19551e-20
-1.84415e-19
-2.74172e-19
-2.17882e-19
-6.5537e-20
5.47139e-38
2.20899e-19
8.04666e-18
1.02451e-16
5.17828e-16
1.59598e-15
-1.89329e-22
-1.12181e-23
-4.34708e-23
-1.45938e-23
-5.86225e-25
-3.6429e-26
3.48669e-27
8.71675e-26
3.00025e-25
0
-5.356e-22
-6.05948e-21
-3.01657e-20
-7.77819e-20
-1.09471e-19
-8.83662e-20
-3.08897e-20
-3.3213e-21
2.67289e-20
1.39857e-18
1.8889e-17
1.04706e-16
1.36937e-16
-5.01567e-23
-2.30083e-24
-8.76446e-24
-3.04002e-24
-1.42518e-25
-2.72928e-26
-4.8527e-26
1.66974e-42
-9.83012e-25
-2.8394e-23
-3.76945e-22
-2.82531e-21
-1.17721e-20
-2.77345e-20
-3.75757e-20
-3.05732e-20
-1.18014e-20
-2.00451e-21
2.80404e-21
2.20552e-19
2.92211e-18
1.82491e-17
1.74327e-17
-1.23638e-23
-4.55946e-25
-1.63991e-24
-5.86227e-25
-3.18152e-26
-1.29054e-26
-4.98955e-26
-2.02317e-25
-1.71778e-24
-1.86822e-23
-1.6963e-22
-1.03922e-21
-3.86611e-21
-8.54755e-21
-1.12412e-20
-9.16219e-21
-3.78083e-21
-7.80383e-22
7.08647e-23
2.48107e-20
3.46433e-19
2.5832e-18
2.72219e-18
-2.84118e-24
-8.80707e-26
-2.86083e-25
-1.05166e-25
-6.57031e-27
-4.76951e-27
-2.451e-26
-1.2518e-25
-9.2619e-25
-7.90516e-24
-5.94982e-23
-3.20198e-22
-1.09845e-21
-2.3127e-21
-2.96385e-21
-2.40674e-21
-1.03735e-21
-2.37448e-22
0
1.72102e-21
3.13895e-20
3.05407e-19
4.02351e-19
-6.09601e-25
-1.66454e-26
-4.6747e-26
-1.76302e-26
-1.26425e-27
-1.47573e-27
-8.85356e-27
-4.99724e-26
-3.4876e-25
-2.61618e-24
-1.74251e-23
-8.53585e-23
-2.75012e-22
-5.55972e-22
-6.95166e-22
-5.59501e-22
-2.47343e-22
-5.99711e-23
-2.27163e-24
7.88276e-23
2.28417e-21
3.15068e-20
4.35279e-20
-1.22284e-25
-3.07327e-27
-7.18873e-27
-2.77385e-27
-2.28259e-28
-3.96063e-28
-2.61806e-27
-1.56642e-26
-1.05371e-25
-7.2541e-25
-4.41636e-24
-2.01016e-23
-6.14982e-23
-1.19919e-22
-1.46214e-22
-1.16026e-22
-5.17965e-23
-1.2915e-23
-1.03995e-24
2.93608e-24
1.3299e-22
2.50819e-21
2.90511e-21
-2.29605e-26
-5.50859e-28
-1.04543e-27
-4.11345e-28
-3.89394e-29
-9.43292e-29
-6.65342e-28
-4.13335e-27
-2.70514e-26
-1.74725e-25
-9.90933e-25
-4.2454e-24
-1.2417e-23
-2.34047e-23
-2.77781e-23
-2.16121e-23
-9.60425e-24
-2.40529e-24
-2.53728e-25
7.97219e-26
5.86398e-24
1.31487e-22
1.27253e-22
-4.0403e-27
-9.50693e-29
-1.44485e-28
-5.77468e-29
-6.31945e-30
-2.02703e-29
-1.49535e-28
-9.52553e-28
-6.09489e-27
-3.7416e-26
-2.00097e-25
-8.13821e-25
-2.28511e-24
-4.1661e-24
-4.80056e-24
-3.64053e-24
-1.58852e-24
-3.91084e-25
-4.60558e-26
2.10365e-44
2.04615e-25
4.92412e-24
4.50352e-24
-6.67292e-28
-1.5676e-29
-1.90706e-29
-7.70892e-30
-9.81891e-31
-3.98153e-30
-3.03087e-29
-1.96306e-28
-1.23137e-27
-7.2445e-27
-3.68371e-26
-1.43061e-25
-3.86638e-25
-6.81648e-25
-7.60278e-25
-5.58698e-25
-2.36264e-25
-5.60283e-26
-6.77576e-27
0
6.5494e-27
1.45984e-25
2.12972e-25
-1.03646e-28
-2.453e-30
-2.41516e-30
-9.83016e-31
-1.46869e-31
-7.22493e-31
-5.62186e-30
-3.67968e-29
-2.26654e-28
-1.28514e-27
-6.2502e-27
-2.32747e-26
-6.06445e-26
-1.03325e-25
-1.11216e-25
-7.87657e-26
-3.18999e-26
-7.15082e-27
-8.41408e-28
-3.85929e-30
2.0365e-28
3.43504e-27
2.49039e-26
-1.51826e-29
-3.61883e-31
-2.94688e-31
-1.20263e-31
-2.12381e-32
-1.22202e-31
-9.6536e-31
-6.35596e-30
-3.84854e-29
-2.11152e-28
-9.86543e-28
-3.53359e-27
-8.88682e-27
-1.46221e-26
-1.51491e-26
-1.02923e-26
-3.95106e-27
-8.23374e-28
-9.06516e-29
-1.66239e-30
6.1521e-30
8.85548e-29
2.90398e-27
-2.10614e-30
-5.03253e-32
-3.47576e-32
-1.41735e-32
-2.97756e-33
-1.94107e-32
-1.54896e-31
-1.02224e-30
-6.08921e-30
-3.24242e-29
-1.46035e-28
-5.04347e-28
-1.22539e-27
-1.94599e-27
-1.93668e-27
-1.25766e-27
-4.53765e-28
-8.66613e-29
-8.65906e-30
-1.95733e-31
1.81141e-31
2.24083e-30
1.23302e-28
-2.78034e-31
-6.50363e-33
-3.97228e-33
-1.61421e-33
-4.04996e-34
-2.91509e-33
-2.34125e-32
-1.54457e-31
-9.05743e-31
-4.69211e-30
-2.04295e-29
-6.81675e-29
-1.6013e-28
-2.45313e-28
-2.34061e-28
-1.44758e-28
-4.86154e-29
-8.34897e-30
-7.27385e-31
-1.43792e-32
2.61766e-33
2.80935e-32
1.06952e-30
0.999887
0.999943
0.999552
0.80403
0.999982
0.999979
0.999962
0.886319
0.999979
0.999962
0.999862
0.994043
0.924364
0.788546
0.717937
0.887229
0.170854
0.0650228
0.0775225
0.333014
0.0208366
0.030113
0.121156
0.643981
0.00437114
0.157301
0.609909
0.796945
0.0167673
0.303526
0.571345
0.378264
0.0471814
0.208279
0.192592
0.00366682
0.0258632
0.0679655
0.0377809
0.00352226
0.0048632
0.036675
0.0201832
0.00349494
0.000354512
0.0313217
0.0769956
0.00352226
0.000278182
0.0398836
0.0790666
0.0168
0.000290009
0.0476909
0.0790666
0.0790666
0.000949688
0.0558682
0.0790666
0.0455936
0.00763611
0.0261191
0.0202713
0.00199446
0.00402443
0.000828328
0.000145721
0.000326381
5.87671e-05
3.03559e-05
4.34268e-05
0.0103712
2.65541e-06
2.30497e-05
7.76289e-05
0.0663281
1.7476e-06
5.46993e-05
0.02952
0.0665304
1.28131e-07
0.00245274
0.0620766
0.0642779
1.09093e-08
0.00280886
0.0208291
0.0098502
1.10744e-09
0.000673539
0.000121271
5.56575e-05
1.15282e-10
2.74524e-07
8.86836e-06
2.86066e-05
1.05742e-11
2.47586e-08
5.3261e-07
2.60852e-06
8.57234e-13
1.8757e-09
2.50322e-08
6.51258e-08
8.19758e-14
1.21148e-10
9.89288e-10
1.67023e-09
3.06636e-14
8.19751e-12
4.22641e-11
9.57694e-11
4.57893e-14
4.77317e-13
3.46255e-12
2.70839e-11
1.70686e-14
2.09168e-13
1.9212e-12
7.6146e-12
6.70879e-15
1.08961e-13
7.60386e-13
7.47624e-13
3.15743e-15
4.19788e-14
2.19685e-13
2.20683e-13
9.43017e-16
9.61148e-15
6.32479e-14
2.16377e-13
1.02693e-16
1.09332e-15
2.57322e-14
4.87017e-13
2.6652e-18
8.54642e-17
8.3837e-15
1.42994e-13
2.88421e-20
5.51462e-18
1.21974e-15
3.44268e-14
1.13956e-21
1.45472e-19
1.3878e-16
4.55969e-15
6.01426e-23
1.20287e-21
2.96922e-17
5.00993e-16
1.68959e-24
6.8085e-23
4.39746e-18
7.73765e-17
3.16258e-26
3.34542e-24
3.33986e-19
3.3441e-17
4.16104e-28
6.30292e-25
1.35745e-20
1.328e-18
3.34623e-30
2.85326e-26
2.01039e-23
4.11276e-22
0.621247
0.187507
0.0124251
0.0124251
0.0124233
0.0152846
0.203179
0.587148
0.750198
0.73597
0.393417
0.0903612
0.0659554
0.282178
0.724301
0.7569
0.752463
0.22747
0.459402
0.284227
0.10015
0.0126201
0.0124251
0.0545468
0.248856
0.746978
0.75072
0.750339
0.747134
0.410222
0.0937858
0.0345597
0.0555924
0.100027
0.179001
0.603078
0.511856
0.376787
0.486918
0.4278
0.124579
0.281868
0.638177
0.69985
0.75072
0.75072
0.75072
0.749851
0.72226
0.211231
0.00628108
0.00628281
0.00628235
0.00631616
0.206673
0.36175
0.255664
0.835191
0.822777
0.742487
0.750419
0.620947
0.547322
0.74784
0.75072
0.749851
0.746869
0.720505
0.313108
0.00628281
0.00628107
0.00631616
0.00635408
0.0101006
0.101617
0.156264
0.829799
0.821818
0.816209
0.594989
0.45567
0.709196
0.745641
0.748744
0.677547
0.415999
0.461076
0.463778
0.0417716
0.00649581
0.0364102
0.0562016
0.0188532
0.020978
0.29099
0.820953
0.818668
0.758613
0.42188
0.457133
0.51026
0.449623
0.734206
0.47392
0.310394
0.310394
0.317653
0.360029
0.3133
0.439297
0.544407
0.0283123
0.0184442
0.417089
0.810539
0.638866
0.416072
0.270105
0.184644
0.0624861
0.0273584
0.298082
0.529397
0.334354
0.310394
0.319001
0.330641
0.494901
0.545678
0.545412
0.245608
0.0184442
0.628605
0.0244168
0.0172009
0.0605219
0.091902
0.0111321
0.00275613
0.00434032
0.0801504
0.504221
0.624724
0.477693
0.495334
0.545063
0.175934
0.0560968
0.0512681
0.0469515
0.0406601
0.862403
0.00470073
0.00584855
0.0226866
0.0667043
0.033403
0.000860384
0.000629846
0.00254811
0.148049
0.621577
0.734202
0.734365
0.747084
0.635258
0.217223
0.169888
0.153096
0.412882
0.923173
0.00366682
0.00470073
0.0781737
0.154408
0.0254979
0.000293199
9.3169e-05
8.96126e-05
0.000410151
0.0479337
0.503701
0.700651
0.765401
0.79625
0.820334
0.844488
0.869088
0.90927
0.923204
0.00352226
0.00399573
0.0691536
0.158595
0.0756636
8.87137e-05
2.60673e-05
3.63342e-06
5.17604e-07
1.16648e-06
-1.83059e-05
0.0089836
0.238615
0.394786
0.50641
0.578346
0.694927
0.861448
0.922652
0.00349235
0.00367362
0.0419942
0.159533
0.105715
1.73374e-05
4.02033e-06
3.81799e-06
3.71338e-06
3.29501e-06
2.62341e-06
2.33584e-06
2.39956e-06
9.60387e-06
4.92573e-05
0.000261191
0.00476646
0.261907
0.718875
0.00367383
0.0040187
0.0512951
0.159533
0.132381
7.01625e-06
3.81752e-06
3.71703e-06
3.46409e-06
3.25942e-06
2.48708e-06
1.674e-06
5.09232e-07
2.48743e-07
2.07067e-06
4.28506e-05
0.000259681
0.00118571
0.0526806
0.0085544
0.00753984
0.119546
0.159533
0.0995285
4.86645e-06
4.05047e-06
3.81799e-06
5.4344e-06
7.95105e-06
3.8324e-06
2.23396e-06
3.33917e-07
1.19208e-07
8.35038e-09
-1.61511e-07
5.7092e-05
0.00216092
0.0186198
0.00453758
0.0308129
0.155703
0.158594
0.0485691
4.28414e-06
4.06294e-06
3.97593e-06
6.8971e-06
7.95105e-06
7.73567e-06
5.57962e-06
1.66835e-06
1.80169e-07
-2.68313e-10
-1.20724e-08
0.00114805
0.021021
0.084759
0.00372728
0.0929303
0.157654
0.112888
1.89472e-05
4.06294e-06
4.02037e-06
4.02037e-06
4.24037e-06
7.18157e-06
4.06322e-07
2.35958e-07
1.25701e-06
6.55802e-07
2.90886e-08
4.81269e-25
0.00135664
0.0293498
0.0847582
0.0159926
0.124124
0.124208
1.63273e-05
9.01904e-06
5.18988e-06
4.05054e-06
4.02037e-06
1.36655e-05
6.27052e-06
2.40175e-07
1.58178e-07
1.18107e-07
1.03147e-07
8.68709e-08
4.22987e-09
2.50999e-08
0.0489655
0.0847857
0.0920643
0.0851904
2.12709e-05
1.93189e-05
8.36044e-06
5.85954e-06
4.09656e-06
1.46414e-05
1.56318e-05
7.9048e-06
6.20851e-07
2.38497e-07
1.58178e-07
1.18107e-07
9.41961e-08
2.50999e-08
1.60934e-07
0.0440525
0.0846164
0.0920643
0.0302903
3.5394e-05
3.90679e-05
8.89698e-05
9.06986e-05
8.85988e-05
8.16792e-05
6.60093e-06
2.57294e-08
6.82832e-07
5.02172e-07
3.5114e-07
2.11394e-07
1.34559e-07
1.60934e-07
3.1051e-07
0.00675242
0.084141
0.0563763
6.65751e-05
6.49874e-05
7.7542e-05
4.28946e-05
2.34289e-06
7.43784e-08
1.96172e-08
2.08968e-08
2.31236e-08
2.57294e-08
1.37787e-05
6.67537e-06
2.43757e-06
3.447e-07
1.22308e-06
1.06089e-06
6.76049e-06
0.0826805
7.84062e-05
7.78376e-05
8.69954e-05
3.85149e-05
1.61037e-08
1.40717e-08
1.61361e-08
1.84948e-08
1.96172e-08
2.08968e-08
8.92384e-06
0.000110308
8.85948e-05
5.6214e-06
1.67884e-06
9.33605e-06
6.76041e-06
3.73743e-05
0.0698978
8.39997e-05
0.000140967
5.2038e-05
5.28486e-08
9.33981e-09
1.15773e-08
1.57861e-08
1.81988e-08
1.98926e-08
2.17718e-08
8.07892e-05
0.000118685
0.000118414
1.2001e-05
1.71022e-05
0.000241533
4.43976e-05
6.55133e-05
0.0571447
9.00572e-05
2.77757e-05
6.74277e-08
6.38161e-09
2.46517e-09
1.02825e-08
1.11145e-08
1.77629e-08
2.38963e-08
2.26798e-08
9.34073e-05
0.000118414
0.000118611
1.46256e-05
0.000508423
0.0047551
0.00258231
0.000237361
0.0616702
3.48331e-06
4.73607e-08
4.88814e-09
8.21496e-10
1.94041e-09
2.46517e-09
1.49863e-07
5.96418e-07
5.8683e-07
2.71275e-08
6.87089e-06
0.000110496
0.000109952
4.83033e-05
0.00327782
0.0062279
0.00623508
0.00367582
0.0646042
4.30395e-07
1.67312e-09
1.86964e-10
4.32996e-10
8.21525e-10
1.81541e-09
6.73639e-06
8.86795e-06
1.82619e-06
5.27154e-08
1.32396e-07
7.44992e-05
8.75439e-05
0.000442165
0.00611761
0.00623389
0.00595046
0.00569599
0.0646042
1.68255e-08
8.93954e-11
1.57526e-11
1.86964e-10
4.33246e-10
6.93881e-06
1.04412e-05
1.04412e-05
1.97275e-06
1.32396e-07
2.43172e-07
8.51273e-05
8.59576e-05
0.000992416
0.00602133
0.00453065
0.000835094
0.00476616
0.0573294
5.00659e-10
4.19409e-11
1.13362e-11
1.81314e-11
4.7346e-06
1.03808e-05
1.04412e-05
3.72547e-06
5.30552e-08
1.8663e-07
2.86413e-05
0.000105135
9.96819e-05
0.00121125
0.00401887
7.38865e-07
2.87746e-07
0.000910513
0.0027242
6.61581e-11
2.17111e-11
1.06568e-11
3.61553e-06
1.01916e-05
1.02579e-05
5.83535e-06
2.92514e-08
2.57585e-08
5.30528e-08
8.83282e-05
9.29656e-05
0.000104704
0.00164518
1.67981e-06
2.87746e-07
2.87746e-07
2.87746e-07
0.00349577
2.57158e-11
1.01106e-11
1.07237e-11
1.98223e-06
9.01369e-06
3.43096e-06
1.22559e-08
1.46743e-08
1.88397e-08
4.92098e-05
9.48985e-05
9.15731e-05
0.000222035
0.00164518
4.01587e-05
3.29806e-07
2.87746e-07
3.37877e-07
0.0802314
3.62212e-12
2.10724e-12
1.05958e-07
2.99313e-07
6.86022e-09
9.21947e-09
1.07482e-08
1.26362e-08
1.46754e-08
7.32162e-05
7.34598e-05
0.000103047
0.00109745
0.00121725
3.71866e-07
3.71867e-07
4.15094e-07
0.000138244
0.116642
7.59079e-13
9.06104e-13
5.19281e-08
4.3239e-08
6.18158e-09
9.11794e-09
9.95556e-09
1.27939e-08
2.25133e-08
8.63629e-05
7.59595e-05
0.000426219
0.00120973
1.06038e-06
3.49732e-07
5.01263e-07
4.24385e-07
0.000617406
0.116694
2.9533e-11
1.81386e-09
1.40183e-09
1.85936e-12
9.40059e-13
6.78731e-12
7.02409e-07
2.41897e-08
4.27759e-06
6.93166e-05
9.38059e-05
0.000858789
0.00108571
1.50759e-06
3.1495e-07
2.83624e-07
2.52517e-07
0.0018903
0.116694
4.3646e-11
7.28639e-11
2.20909e-11
7.94629e-13
8.55343e-13
9.40059e-13
1.87046e-06
4.58518e-06
4.5575e-06
1.82663e-05
0.000320715
0.00161321
0.000533804
2.77541e-06
8.21671e-06
2.52832e-07
2.52832e-07
0.00320399
0.116694
1.9888e-12
2.72004e-12
2.41642e-12
7.76002e-13
6.38095e-13
8.55343e-13
4.51729e-09
3.78081e-05
9.57249e-06
1.01436e-05
0.000321056
0.00162462
0.00149633
0.000145262
5.41378e-05
3.33887e-07
2.52316e-07
0.00426137
0.116231
4.40136e-13
4.4873e-13
2.73866e-13
1.18658e-14
1.92799e-14
3.23817e-12
1.92213e-05
5.74907e-05
1.52502e-05
1.12678e-05
1.15249e-05
0.00163336
0.00163652
0.00123278
7.43609e-05
9.06196e-07
2.55267e-07
0.00479635
0.076128
3.88739e-14
3.06964e-14
1.18393e-14
1.08196e-14
1.17663e-14
5.28188e-07
5.3562e-05
5.77199e-05
4.01835e-05
1.15249e-05
1.24183e-05
0.000579091
0.00163652
0.00137655
7.98829e-05
2.02764e-07
7.94801e-08
0.00169529
3.91597e-11
5.54246e-15
4.46201e-15
4.06949e-15
7.15242e-15
2.34184e-14
3.94969e-05
5.77199e-05
5.77329e-05
5.77244e-05
1.53573e-05
1.38473e-05
8.91015e-06
0.000651147
0.000226114
4.63837e-07
2.69492e-08
1.84262e-09
3.91597e-11
2.67799e-12
1.67895e-15
1.9856e-15
1.99206e-15
2.01096e-14
3.2263e-13
5.39144e-05
5.77327e-05
5.77321e-05
5.77326e-05
4.6239e-05
1.49868e-05
3.99736e-06
5.98128e-06
1.55974e-07
2.68175e-08
1.81508e-09
9.34933e-11
2.67799e-12
3.48525e-13
8.05698e-16
2.34536e-15
1.53377e-12
3.2263e-13
6.72267e-07
1.7685e-05
5.76381e-05
5.77327e-05
5.77244e-05
5.76847e-05
3.98777e-05
2.35867e-06
1.64409e-07
3.24632e-08
1.30418e-08
2.39725e-10
1.07509e-11
3.48525e-13
8.80367e-14
2.51696e-17
6.51563e-15
6.84103e-11
1.89676e-11
4.73648e-15
2.2371e-06
2.42416e-05
3.90324e-05
2.82946e-05
3.271e-05
2.44451e-05
2.22921e-06
1.45665e-06
1.06853e-06
9.84539e-08
4.13279e-11
7.14185e-12
5.07858e-14
1.74409e-15
1.99615e-20
2.05552e-20
2.31616e-10
1.48814e-09
1.31645e-15
4.62048e-15
2.41212e-13
1.0964e-11
3.57312e-10
8.9016e-08
9.66752e-07
7.29636e-07
1.58643e-06
5.87041e-07
2.57396e-10
-9.77013e-12
-2.25567e-12
7.85719e-17
-8.24503e-17
2.05928e-21
1.55615e-15
2.06292e-30
1.15792e-17
-1.43554e-32
0
0
2.95182e-10
5.43831e-09
2.39644e-09
1.92498e-24
6.34697e-07
7.02936e-07
1.61122e-08
-9.49376e-14
-2.2357e-14
-7.08408e-17
-4.91871e-17
0
)
;

boundaryField
{
    leftWall
    {
        type            zeroGradient;
    }
    rightWall
    {
        type            zeroGradient;
    }
    lowerWall
    {
        type            zeroGradient;
    }
    atmosphere
    {
        type            inletOutlet;
        inletValue      uniform 0;
        value           nonuniform List<scalar> 
46
(
-2.78034e-31
-6.50363e-33
-3.97228e-33
-1.61421e-33
-4.04996e-34
-2.91509e-33
-2.34125e-32
-1.54457e-31
-9.05743e-31
-4.69211e-30
-2.04295e-29
-6.81675e-29
-1.6013e-28
-2.45313e-28
-2.34061e-28
-1.44758e-28
-4.86154e-29
-8.34897e-30
-7.27385e-31
-1.43792e-32
2.61766e-33
2.80935e-32
1.06952e-30
3.34623e-30
2.85326e-26
0
0
0
0
0
0
0
0
0
0
0
0
0
0
0
0
0
0
0
0
0
)
;
    }
    defaultFaces
    {
        type            empty;
    }
}


// ************************************************************************* //
