/*--------------------------------*- C++ -*----------------------------------*\
| =========                 |                                                 |
| \\      /  F ield         | OpenFOAM: The Open Source CFD Toolbox           |
|  \\    /   O peration     | Version:  2206                                  |
|   \\  /    A nd           | Website:  www.openfoam.com                      |
|    \\/     M anipulation  |                                                 |
\*---------------------------------------------------------------------------*/
FoamFile
{
    version     2.0;
    format      ascii;
    arch        "LSB;label=32;scalar=64";
    class       volScalarField;
    location    "0.7";
    object      p;
}
// * * * * * * * * * * * * * * * * * * * * * * * * * * * * * * * * * * * * * //

dimensions      [1 -1 -2 0 0 0 0];

internalField   nonuniform List<scalar> 
2268
(
513.629
513.839
516.683
522.821
534.206
552.474
576.881
603.321
629.099
654.118
678.693
702.729
725.948
748.104
768.792
787.648
803.982
815.614
820.312
824.012
843.409
878.416
897.349
454.072
453.785
456.507
462.527
473.676
492.109
517.089
544.12
570.196
595.33
619.966
644.026
667.255
689.459
710.308
729.423
747.238
760.927
763.564
761.692
777.357
809.905
832.969
392.78
392.253
395.258
401.178
411.745
430.211
456.2
484.554
511.299
536.626
561.318
585.373
608.528
630.579
651.351
670.624
688.706
703.509
707.241
705.167
718.427
745.933
768.077
330.395
329.733
333.015
338.645
348.26
366.658
394.361
424.889
452.613
478.148
502.873
526.948
550.078
572.033
592.72
612.042
630.029
645.102
652.362
653.479
667.088
687.587
704.721
267.684
266.664
270.033
275.365
284.24
302.707
332.754
365.685
394.293
419.962
444.688
468.776
491.911
513.833
534.517
553.936
572.081
587.98
599.192
606.518
619.016
632.917
643.295
204.909
203.401
206.53
211.742
220.627
239.967
272.214
306.979
336.136
362.038
386.762
410.849
433.991
455.894
476.606
496.169
514.618
531.453
545.594
555.864
568.577
578.957
582.322
142.052
140.724
143.206
148.427
158.642
179.923
212.436
247.635
277.35
303.892
329.006
353.227
376.379
398.223
418.928
438.583
457.264
474.637
489.534
502.953
516.554
525.353
518.926
78.1345
78.0884
80.7806
86.4797
98.1376
121.095
153.807
187.871
218.008
245.421
271.195
295.724
318.929
340.742
361.481
381.218
400.103
417.915
434.108
449.129
463.975
472.796
457.216
988.884
940.404
962.261
982.162
885.706
687.38
542.514
483.927
472.893
486.696
535.296
690.824
925.151
1046.68
1069.48
1107.68
1174.36
1228.78
1291.75
957.804
898.496
943.964
907.386
696.595
445.695
371.468
381.863
405.454
424.065
460.125
611.337
882.244
1012.39
996.054
986.909
1045.79
1150.61
1243.94
945.51
824.802
849.112
641.965
398.189
337.911
340.083
357.993
380.337
399.363
429.321
548.549
828.404
996.548
964.46
904.304
904.993
1011.99
1183.1
1053.51
829.684
647.968
396.902
325.036
319.525
332.636
353.475
376.534
395.839
422.043
490.505
744.664
913.231
900.907
886.373
871.477
885.71
1079.67
1219.7
837.198
461.966
322.377
299.326
307.806
325.423
348.783
373.017
392.153
411.912
432.611
607.082
742.061
791.493
837.822
843.389
821.178
959.474
1224.86
728.056
371.011
294.44
286.462
298.795
319.048
342.863
367.373
383.715
382.104
347.93
441.695
568.277
651.678
738.119
803.142
811.102
877.765
1063.05
551.162
327.859
280.453
278.684
291.788
313.764
336.043
355.224
359.122
303.756
220.328
257.973
394.152
516.299
625.613
744.029
813.588
843.578
787.96
418.577
301.231
273.465
273.993
286.63
308.319
327.14
323.912
292.134
209.376
135.856
143.741
243.647
384.255
504.268
649.748
783.112
834.343
20.6391
22.1516
26.6061
32.406
40.331
52.9525
71.9922
96.8632
124.803
153.416
180.898
206.358
229.649
251.188
271.855
291.589
310.843
329.356
347.097
364.13
381.01
394.261
402.037
2.05578
1.50604
2.47936
3.93546
6.05856
9.07414
13.532
21.4143
33.2356
49.1021
69.1036
90.9771
111.497
131.348
151.585
170.433
187.404
207.7
227.937
247.378
265.661
282.54
301.474
1.09173
0.696192
0.666467
0.601463
0.461311
0.34393
0.476632
1.11961
2.43036
5.06349
10.562
18.7248
27.5725
37.2306
49.3893
63.1488
78.9695
95.2536
114.354
135.193
153.008
169.874
186.198
0.520705
0.310262
0.315446
0.307684
0.242637
0.194618
0.237975
0.322301
0.373031
0.394901
0.420156
0.439803
0.438233
0.600645
2.61993
6.80443
12.92
19.9375
29.5797
48.2062
57.9495
67.2554
83.0918
0.293676
0.156131
0.164648
0.140787
0.088136
0.0456181
0.0463821
0.112837
0.184714
0.220716
0.245143
0.289016
0.333783
0.308785
0.0700199
-0.232821
-0.413561
-0.666452
-0.39352
3.9528
13.2946
20.5958
26.3818
0.130843
0.0693951
0.0298527
-0.000838616
-0.0283755
-0.0421021
-0.0253133
0.0103239
0.0360526
0.0429695
0.0340946
0.0167702
-0.0157424
-0.0836085
-0.218343
-0.389681
-0.570824
-0.746618
-0.866497
-0.954359
-1.00218
-0.579601
0.572181
-0.0616408
-0.0769245
-0.112956
-0.142557
-0.160461
-0.169673
-0.168787
-0.161336
-0.152966
-0.150883
-0.161248
-0.180853
-0.213357
-0.275616
-0.406057
-0.589887
-0.785534
-0.972148
-1.11063
-1.21929
-1.24888
-1.19554
-1.34055
-0.254318
-0.253163
-0.272095
-0.29189
-0.307738
-0.319388
-0.323638
-0.322633
-0.325805
-0.334423
-0.348737
-0.373281
-0.411528
-0.468095
-0.559457
-0.684563
-0.80471
-0.920768
-1.02685
-1.04457
-0.963177
-0.862872
-1.08004
-0.431697
-0.431491
-0.443059
-0.455347
-0.467829
-0.478405
-0.484461
-0.48791
-0.495301
-0.508378
-0.527205
-0.554316
-0.591357
-0.639535
-0.702506
-0.777857
-0.847687
-0.901975
-0.930833
-0.871337
-0.658113
-0.451262
-0.00535116
-0.605514
-0.607451
-0.615762
-0.624727
-0.634163
-0.642794
-0.650091
-0.657306
-0.666942
-0.680093
-0.698203
-0.722355
-0.752774
-0.789729
-0.83448
-0.882735
-0.923816
-0.94461
-0.931416
-0.860464
-0.666974
-0.45136
-0.239242
-0.77874
-0.780721
-0.786644
-0.793508
-0.800995
-0.808808
-0.816608
-0.825085
-0.835271
-0.847949
-0.864153
-0.884462
-0.908677
-0.936377
-0.966938
-0.996979
-1.01915
-1.02474
-1.00448
-0.950582
-0.835559
-0.697329
-0.806032
-0.94962
-0.951592
-0.955754
-0.961109
-0.967294
-0.974427
-0.981957
-0.990298
-1.00008
-1.01187
-1.02602
-1.04261
-1.06135
-1.08163
-1.10209
-1.11995
-1.13041
-1.1288
-1.11157
-1.07776
-1.01691
-0.972026
-0.988706
-1.11832
-1.12026
-1.12336
-1.12784
-1.13311
-1.1394
-1.14632
-1.15414
-1.16314
-1.17345
-1.18529
-1.1985
-1.21268
-1.22708
-1.24036
-1.25035
-1.25408
-1.24915
-1.23428
-1.20956
-1.18618
-1.19406
-1.11116
-1.28548
-1.28706
-1.28964
-1.29349
-1.29809
-1.30364
-1.30989
-1.31699
-1.32496
-1.33378
-1.34349
-1.35385
-1.36437
-1.37428
-1.3824
-1.38709
-1.38645
-1.37916
-1.36416
-1.34135
-1.3286
-1.32191
-1.16963
-1.45128
-1.45246
-1.45476
-1.45807
-1.46213
-1.46704
-1.47262
-1.47892
-1.48583
-1.49335
-1.50128
-1.50933
-1.517
-1.52357
-1.52808
-1.52921
-1.52552
-1.51594
-1.49905
-1.47426
-1.45396
-1.42297
-1.26353
-1.61588
-1.61675
-1.61885
-1.62171
-1.62531
-1.62965
-1.6346
-1.64015
-1.64615
-1.65252
-1.65902
-1.66532
-1.67094
-1.67525
-1.67742
-1.67642
-1.67102
-1.66022
-1.64293
-1.61859
-1.59435
-1.57057
-1.53827
-1.7794
-1.78011
-1.78199
-1.78451
-1.78773
-1.79159
-1.796
-1.8009
-1.80616
-1.81162
-1.81704
-1.82215
-1.82647
-1.82947
-1.83047
-1.82867
-1.82315
-1.81314
-1.79832
-1.77959
-1.762
-1.76152
-1.83356
-1.94195
-1.94262
-1.94429
-1.94654
-1.94944
-1.95293
-1.9569
-1.96129
-1.96599
-1.97087
-1.97551
-1.97994
-1.98362
-1.98612
-1.98693
-1.98547
-1.98117
-1.97362
-1.9631
-1.95145
-1.94395
-1.95406
-2.02056
-2.10365
-2.1043
-2.1058
-2.10785
-2.11051
-2.11371
-2.11736
-2.1214
-2.12572
-2.13018
-2.13457
-2.1387
-2.14223
-2.14487
-2.14622
-2.1459
-2.14356
-2.13904
-2.13259
-2.12536
-2.11995
-2.1211
-2.13129
-2.26458
-2.26522
-2.26658
-2.2685
-2.27099
-2.27399
-2.27742
-2.28125
-2.28536
-2.28966
-2.294
-2.2982
-2.30204
-2.30529
-2.3077
-2.30903
-2.30903
-2.30755
-2.30459
-2.30019
-2.29394
-2.28474
-2.26032
-2.42477
-2.42542
-2.42668
-2.42851
-2.43089
-2.43377
-2.4371
-2.44082
-2.44489
-2.44921
-2.4537
-2.45824
-2.46268
-2.4669
-2.47073
-2.47405
-2.47674
-2.47863
-2.47961
-2.47929
-2.47626
-2.4679
-2.44428
-2.58427
-2.58492
-2.58612
-2.5879
-2.59023
-2.59306
-2.59635
-2.60008
-2.60421
-2.6087
-2.6135
-2.61855
-2.6238
-2.62921
-2.63472
-2.64033
-2.64605
-2.65191
-2.65798
-2.66416
-2.66969
-2.67256
-2.66784
-2.7431
-2.74375
-2.74491
-2.74668
-2.74899
-2.75182
-2.75515
-2.75896
-2.76324
-2.76798
-2.77319
-2.77887
-2.78504
-2.79174
-2.79905
-2.80709
-2.81608
-2.82635
-2.83842
-2.8531
-2.8716
-2.89623
-2.93407
-2.90126
-2.90192
-2.90306
-2.90484
-2.90716
-2.91003
-2.91343
-2.91737
-2.92185
-2.92691
-2.93258
-2.93892
-2.94602
-2.95401
-2.96308
-2.9735
-2.98569
-3.00028
-3.01829
-3.04143
-3.07266
-3.11762
-3.18874
-3.05877
-3.05944
-3.06058
-3.06237
-3.06471
-3.06764
-3.07114
-3.07523
-3.07994
-3.08532
-3.09144
-3.09842
-3.10639
-3.11556
-3.12621
-3.13873
-3.15368
-3.17191
-3.1947
-3.22409
-3.26339
-3.31796
-3.39666
-3.21564
-3.21631
-3.21745
-3.21926
-3.22164
-3.22463
-3.22823
-3.23246
-3.23738
-3.24306
-3.2496
-3.25713
-3.26585
-3.276
-3.28793
-3.30209
-3.31914
-3.33996
-3.36584
-3.39871
-3.4413
-3.49744
-3.5723
-3.37188
-3.37254
-3.37369
-3.37551
-3.37792
-3.38096
-3.38464
-3.389
-3.39409
-3.40002
-3.40688
-3.41485
-3.42414
-3.43502
-3.44786
-3.46315
-3.48152
-3.50384
-3.53126
-3.56538
-3.60828
-3.66261
-3.73154
-3.52748
-3.52815
-3.52929
-3.53112
-3.53353
-3.53661
-3.54034
-3.54478
-3.54999
-3.55609
-3.56318
-3.57144
-3.58109
-3.59242
-3.60578
-3.62166
-3.64065
-3.6635
-3.69121
-3.72499
-3.76641
-3.81719
-3.87922
-3.68246
-3.68313
-3.68426
-3.68608
-3.68848
-3.69156
-3.6953
-3.69977
-3.70503
-3.7112
-3.7184
-3.72679
-3.7366
-3.74809
-3.76161
-3.7776
-3.79658
-3.81919
-3.84623
-3.8786
-3.91739
-3.96368
-4.01847
-3.83684
-3.83752
-3.83861
-3.8404
-3.84277
-3.84581
-3.84951
-3.85395
-3.85919
-3.86533
-3.8725
-3.88086
-3.89061
-3.90201
-3.91536
-3.93104
-3.94952
-3.9713
-3.99699
-4.02725
-4.06282
-4.10433
-4.15228
-3.99063
-3.99131
-3.99236
-3.99411
-3.99641
-3.99937
-4.00298
-4.00732
-4.01244
-4.01846
-4.02548
-4.03366
-4.04316
-4.05423
-4.06712
-4.08217
-4.09975
-4.12027
-4.14417
-4.17194
-4.20404
-4.24084
-4.28255
-4.14385
-4.14452
-4.14552
-4.14721
-4.14941
-4.15226
-4.15572
-4.1599
-4.16483
-4.17062
-4.17737
-4.18521
-4.1943
-4.20484
-4.21705
-4.2312
-4.2476
-4.26655
-4.28841
-4.31348
-4.34207
-4.37438
-4.41048
-4.29654
-4.29719
-4.29813
-4.29973
-4.30181
-4.3045
-4.30777
-4.31172
-4.31638
-4.32185
-4.32821
-4.33559
-4.34412
-4.35396
-4.3653
-4.37835
-4.39336
-4.41057
-4.43022
-4.45253
-4.47769
-4.5058
-4.53685
-4.44874
-4.44935
-4.45023
-4.45172
-4.45364
-4.45614
-4.45918
-4.46284
-4.46716
-4.47222
-4.4781
-4.4849
-4.49273
-4.50173
-4.51206
-4.52387
-4.53736
-4.5527
-4.57007
-4.58963
-4.61148
-4.63567
-4.66219
-4.60048
-4.60103
-4.60184
-4.60321
-4.60495
-4.60723
-4.60998
-4.61331
-4.61722
-4.6218
-4.62712
-4.63325
-4.64029
-4.64834
-4.65754
-4.66801
-4.67988
-4.69329
-4.70837
-4.72522
-4.7439
-4.76445
-4.78685
-4.75182
-4.75229
-4.75303
-4.75425
-4.7558
-4.75782
-4.76026
-4.7632
-4.76667
-4.77071
-4.77539
-4.78078
-4.78695
-4.79398
-4.80197
-4.81102
-4.82123
-4.83269
-4.84549
-4.85971
-4.87539
-4.89255
-4.91116
-4.9028
-4.90317
-4.90383
-4.90489
-4.90622
-4.90797
-4.91007
-4.9126
-4.91557
-4.91903
-4.92303
-4.92763
-4.93287
-4.93883
-4.94557
-4.95317
-4.9617
-4.97123
-4.98182
-4.99351
-5.00635
-5.02034
-5.0355
-5.05348
-5.05372
-5.0543
-5.05518
-5.05629
-5.05774
-5.05947
-5.06157
-5.06402
-5.06688
-5.07017
-5.07393
-5.07822
-5.08308
-5.08856
-5.09471
-5.10158
-5.10922
-5.11767
-5.12697
-5.13713
-5.1482
-5.16018
-5.20391
-5.20401
-5.2045
-5.2052
-5.20607
-5.20722
-5.20857
-5.21022
-5.21213
-5.21436
-5.21692
-5.21984
-5.22316
-5.22691
-5.23113
-5.23585
-5.2411
-5.24692
-5.25333
-5.26036
-5.26803
-5.27637
-5.28542
-5.35415
-5.3541
-5.35452
-5.35502
-5.35565
-5.35647
-5.35744
-5.35862
-5.35999
-5.36158
-5.3634
-5.36548
-5.36783
-5.37048
-5.37346
-5.37677
-5.38046
-5.38452
-5.38899
-5.39387
-5.3992
-5.405
-5.4113
-5.50421
-5.50407
-5.50439
-5.50469
-5.50506
-5.50556
-5.50613
-5.50684
-5.50765
-5.5086
-5.50969
-5.51092
-5.51232
-5.51389
-5.51564
-5.5176
-5.51976
-5.52214
-5.52475
-5.5276
-5.53071
-5.53409
-5.53778
-5.65422
-5.65403
-5.65418
-5.65427
-5.65439
-5.65456
-5.65475
-5.65499
-5.65526
-5.65557
-5.65593
-5.65634
-5.65679
-5.65731
-5.65788
-5.65851
-5.6592
-5.65996
-5.6608
-5.66171
-5.6627
-5.66378
-5.66497
430.554
462.51
503.589
199.372
330.631
351.755
417.683
548.274
202.723
217.857
257.818
441.403
83.5004
51.3701
48.8955
199.308
12.3013
-15.1495
-29.2672
45.8978
-3.91212
-24.9479
-38.867
34.2832
-3.83339
-19.6772
-49.9248
42.5406
-1.89677
2.50704
-33.8105
11.9643
3.12871
21.4884
-11.2839
-9.58765
1.20007
11.9528
-7.6257
-13.3459
-0.580131
5.72537
-5.27926
-17.6062
-0.908327
-0.308426
-9.68414
-22.2415
-0.880459
-1.66433
-16.0398
-26.6322
-0.893277
-1.90831
-13.9747
-19.9199
-1.0873
-1.68499
-2.25616
1.63272
-1.68195
-0.383851
0.306814
1.15649
-2.06847
-1.68613
-0.929165
0.178442
-2.17885
-1.85068
-1.29748
-0.689043
-2.14098
-1.94406
-1.37876
-1.58588
-2.20224
-2.20144
-2.40451
-2.12574
-2.29989
-2.47508
-3.96489
-4.42376
-2.59011
-2.79934
-4.29334
-5.37855
-2.98822
-3.51995
-4.92653
-5.35944
-3.32774
-3.77335
-4.50375
-4.86414
-3.53596
-3.83032
-4.25065
-4.52586
-3.69304
-3.90494
-4.18081
-4.39654
-3.83676
-4.00324
-4.20049
-4.36437
-3.96994
-4.10336
-4.2516
-4.38126
-4.096
-4.20455
-4.3214
-4.42789
-4.21853
-4.30834
-4.40344
-4.49244
-4.33919
-4.41428
-4.49313
-4.56848
-4.45886
-4.52203
-4.58818
-4.6526
-4.57808
-4.63141
-4.68732
-4.74277
-4.69717
-4.74219
-4.78962
-4.8377
-4.81628
-4.85414
-4.8944
-4.93631
-4.9356
-4.96714
-5.00111
-5.03762
-5.0554
-5.08126
-5.10961
-5.14111
-5.17595
-5.19668
-5.2199
-5.24657
-5.2974
-5.31337
-5.33173
-5.35356
-5.41969
-5.4311
-5.44465
-5.46148
-5.54273
-5.54962
-5.55824
-5.5698
-5.6666
-5.66893
-5.67229
-5.67805
367.722
321.861
284.541
273.365
271.775
282.778
295.77
304.875
264.642
180.466
113.163
93.0402
91.5397
112.684
174.635
284.311
439.59
661.568
780.246
500.182
356.38
301.052
288.865
295.12
319.941
389.088
367.573
243.738
117.65
63.8929
69.7631
72.4634
74.407
75.5647
80.1942
120.846
351.619
540.238
621.105
456.618
355.675
313.077
466.045
605.838
585.745
415.494
222.402
75.1769
20.2
64.9771
67.9353
68.1463
66.3521
62.9696
58.4382
155.082
290.399
528.635
537.965
541.462
614.636
699.434
739.494
644.432
414.243
187.429
39.6981
-0.58886
64.7977
68.428
67.7408
65.974
68.1544
77.8562
94.3083
149.686
340.533
491.708
528.778
524.66
532.946
573.911
513.172
314.186
122.344
22.292
0.436985
62.0586
70.2776
62.5267
59.6624
91.2795
127.566
124.002
103.767
279.038
359.61
309.805
271.857
275.01
237.981
189.698
134.499
64.8878
23.1631
8.18657
25.8354
48.5411
33.7964
34.6461
161.893
171.973
161.902
145.287
86.8181
78.3216
90.0519
78.1191
51.0846
44.9932
45.8326
42.2357
31.1431
20.9101
17.135
24.4338
40.9604
52.3226
86.1711
120.787
163.597
178.345
175.914
5.43383
13.2735
21.4397
29.0658
26.5025
22.3319
19.8477
16.8207
10.1184
7.01395
16.8548
40.3888
66.564
81.4147
87.2042
107.551
147.279
174.951
170.917
-5.13894
0.188868
10.4354
25.3463
18.0663
10.669
7.52539
4.41318
0.184932
-8.60478
3.93113
38.1306
53.6683
60.5159
83.4384
121.867
158.907
168.362
168.46
-10.2173
-6.39426
-0.124824
16.0036
6.36391
1.91109
0.847526
-0.391638
-2.61029
-5.98589
6.89477
19.9443
19.5733
35.4194
66.0383
108.383
151.115
174.009
143.116
-15.7014
-12.8686
-9.81795
4.01408
1.00586
-1.8512
-1.89754
-2.29807
-2.75531
-3.36812
-4.5941
-4.452
9.26149
21.2642
37.0105
74.5605
133.288
152.447
113.01
-21.1052
-18.5451
-16.3919
-10.0307
-4.14394
-3.2662
-3.01492
-3.10579
-3.46082
-3.57852
-3.60159
-3.52209
-3.46724
-3.00172
-1.89839
0.851883
8.0058
51.3238
125.561
-25.0186
-21.6403
-17.6381
-13.2361
-8.4718
-3.93145
-3.46502
-3.47891
-3.89454
-3.94276
-3.80315
-3.56701
-3.34379
-3.1594
-3.11968
-3.13328
-1.39939
9.81958
49.0283
-19.3053
-17.5241
-15.9101
-10.8879
-6.15031
-4.38302
-4.02293
-4.10843
-4.29239
-4.182
-3.91954
-3.64042
-3.44475
-3.37889
-3.4372
-3.72417
-3.55496
0.231404
21.7787
-2.05537
-6.00896
-9.50026
-6.50823
-4.49659
-3.91851
-4.41845
-4.76021
-4.7018
-4.42355
-4.06893
-3.76873
-3.58243
-3.53598
-3.58356
-3.71834
-3.7597
-3.15758
6.52169
1.27768
-0.399175
-1.91738
3.18399
-2.66622
-3.44233
-4.37273
-4.95467
-4.77894
-4.44543
-4.09734
-3.84006
-3.68828
-3.63214
-3.63897
-3.69996
-3.83881
-4.02539
3.30347
-0.631565
-4.01852
-1.35221
-3.2947
-3.02003
-3.34721
-4.02715
-4.49269
-4.48969
-4.24268
-3.99439
-3.82484
-3.72222
-3.66534
-3.64123
-3.61679
-3.53828
-3.24077
-0.845491
-1.60012
-5.50989
-4.67572
-3.89513
-3.54557
-3.43494
-3.62592
-3.92507
-4.05005
-3.97361
-3.85716
-3.77388
-3.71466
-3.66576
-3.62828
-3.5681
-3.44127
-3.40306
-2.52653
-3.3389
-3.08093
-3.93151
-3.66017
-3.48043
-3.3323
-3.43727
-3.65389
-3.79278
-3.80661
-3.77432
-3.73904
-3.70141
-3.66091
-3.62631
-3.58115
-3.50785
-3.59995
-2.90834
-2.39221
-3.88183
-3.87714
-3.70785
-3.53308
-3.46216
-3.54807
-3.66121
-3.73686
-3.76325
-3.7578
-3.73335
-3.69533
-3.65311
-3.61116
-3.56414
-3.50077
-3.58594
-3.22002
-4.74556
-4.45922
-4.16744
-3.95934
-3.78814
-3.71665
-3.7254
-3.75835
-3.78549
-3.79676
-3.78614
-3.75254
-3.69942
-3.6453
-3.58207
-3.52381
-3.43532
-3.46835
-3.16928
-5.03709
-4.6255
-4.3486
-4.12912
-3.9798
-3.90545
-3.88096
-3.87769
-3.87772
-3.87063
-3.8453
-3.7975
-3.73196
-3.67942
-3.61127
-3.53673
-3.43334
-3.4407
-3.32716
-4.94774
-4.6144
-4.38493
-4.22032
-4.10929
-4.0471
-4.01787
-4.00338
-3.98879
-3.96483
-3.92665
-3.8694
-3.81113
-3.79375
-3.77428
-3.77744
-3.62567
-3.54528
-3.55744
-4.72107
-4.52597
-4.37749
-4.27513
-4.20479
-4.16307
-4.143
-4.12875
-4.10497
-4.06633
-4.0205
-3.96785
-3.9367
-3.93475
-4.03243
-4.06965
-4.04429
-3.86837
-4.15892
-4.52535
-4.45379
-4.38249
-4.32828
-4.28971
-4.26895
-4.26125
-4.24895
-4.2169
-4.16965
-4.12477
-4.09073
-4.10305
-4.15159
-4.30246
-4.35142
-4.3174
-4.15911
-4.56795
-4.43975
-4.42934
-4.40566
-4.38423
-4.37026
-4.36771
-4.3693
-4.35603
-4.31817
-4.27316
-4.24029
-4.22841
-4.2763
-4.40754
-4.58443
-4.643
-4.56714
-4.57425
-3.40544
-4.42653
-4.43919
-4.44331
-4.44395
-4.44771
-4.45703
-4.46153
-4.44447
-4.40743
-4.37408
-4.35768
-4.36011
-4.40427
-4.51169
-4.71296
-4.82194
-4.72372
-4.97074
-4.85898
-4.44641
-4.47645
-4.49304
-4.50687
-4.52112
-4.53478
-4.53671
-4.51695
-4.48696
-4.46789
-4.46514
-4.4661
-4.45828
-4.58065
-4.75652
-4.80985
-4.7774
-4.85625
-4.23657
-4.49037
-4.52547
-4.55139
-4.57204
-4.59032
-4.60315
-4.60144
-4.58239
-4.56058
-4.5538
-4.56537
-4.55399
-4.49677
-4.65975
-4.76673
-4.86094
-4.86426
-4.92337
-4.85371
-4.55001
-4.5858
-4.61471
-4.63847
-4.65812
-4.66989
-4.66732
-4.65148
-4.63458
-4.6377
-4.67374
-4.68301
-4.65999
-4.87479
-4.90166
-4.99643
-4.99202
-5.01189
-4.58325
-4.62062
-4.65516
-4.68454
-4.70986
-4.73096
-4.74456
-4.74545
-4.73524
-4.72382
-4.74412
-4.82427
-4.89517
-5.01078
-5.15645
-5.15181
-5.20457
-5.17971
-5.18548
-4.77267
-4.69954
-4.73233
-4.76198
-4.78925
-4.81407
-4.83398
-4.84356
-4.8428
-4.84178
-4.89067
-5.03797
-5.19403
-5.40021
-5.47067
-5.47387
-5.47096
-5.41892
-5.42433
-4.99688
-4.78521
-4.8165
-4.84696
-4.87779
-4.90971
-4.94117
-4.96465
-4.97805
-4.99223
-5.0698
-5.32317
-5.59929
-5.81365
-5.87007
-5.84624
-5.78961
-5.68836
-5.75428
-5.66152
-4.87641
-4.90675
-4.93893
-4.97489
-5.01686
-5.06378
-5.10535
-5.13741
-5.1793
-5.2974
-5.64063
-6.12718
-6.3462
-6.33315
-6.22224
-6.07431
-5.8619
-6.03902
-6.59231
-4.97195
-5.00173
-5.03588
-5.07735
-5.13038
-5.19355
-5.25669
-5.31865
-5.38169
-5.52175
-5.89952
-6.52317
-6.87265
-6.77173
-6.47843
-6.19654
-5.88484
-5.8357
-2.40063
-5.07038
-5.09928
-5.13445
-5.18017
-5.24175
-5.3164
-5.39602
-5.47502
-5.55397
-5.67755
-5.96511
-6.45066
-6.83241
-6.79823
-6.45181
-6.1421
-5.88395
-5.94111
-5.94905
-5.17072
-5.1979
-5.23217
-5.27886
-5.34289
-5.42112
-5.5098
-5.5975
-5.67209
-5.7432
-5.87574
-6.1004
-6.29038
-6.31386
-6.15189
-5.9667
-5.84929
-5.85667
-5.83879
-5.27259
-5.29697
-5.328
-5.37111
-5.42991
-5.50176
-5.58782
-5.67549
-5.73652
-5.75418
-5.74884
-5.77437
-5.82671
-5.84887
-5.82656
-5.77783
-5.75666
-5.76655
-5.77669
-5.37554
-5.39617
-5.42209
-5.45761
-5.50499
-5.56117
-5.63091
-5.70912
-5.75271
-5.73698
-5.66061
-5.57771
-5.54902
-5.57975
-5.62587
-5.6631
-5.69978
-5.73235
-5.75239
-5.47898
-5.49526
-5.51511
-5.54116
-5.57473
-5.61272
-5.65765
-5.70554
-5.72846
-5.70543
-5.61975
-5.52014
-5.4755
-5.50881
-5.57588
-5.64744
-5.71009
-5.75714
-5.78449
-5.58236
-5.59395
-5.60766
-5.6246
-5.64417
-5.66468
-5.68573
-5.70289
-5.70513
-5.68267
-5.63056
-5.57555
-5.55503
-5.57314
-5.63369
-5.71152
-5.7819
-5.83388
-5.86211
-5.685
-5.69142
-5.69873
-5.70712
-5.71466
-5.72085
-5.72507
-5.72415
-5.71603
-5.70363
-5.69026
-5.67115
-5.66465
-5.69334
-5.7594
-5.83934
-5.91084
-5.96315
-5.98651
)
;

boundaryField
{
    leftWall
    {
        type            calculated;
        value           nonuniform List<scalar> 
50
(
513.629
454.072
392.78
330.395
267.684
204.909
142.052
78.1345
20.6391
2.05578
1.09173
0.520705
0.293676
0.130843
-0.0616408
-0.254318
-0.431697
-0.605514
-0.77874
-0.94962
-1.11832
-1.28548
-1.45128
-1.61588
-1.7794
-1.94195
-2.10365
-2.26458
-2.42477
-2.58427
-2.7431
-2.90126
-3.05877
-3.21564
-3.37188
-3.52748
-3.68246
-3.83684
-3.99063
-4.14385
-4.29654
-4.44874
-4.60048
-4.75182
-4.9028
-5.05348
-5.20391
-5.35415
-5.50421
-5.65422
)
;
    }
    rightWall
    {
        type            calculated;
        value           nonuniform List<scalar> 
50
(
1291.75
1243.94
1183.1
1079.67
959.474
877.765
843.578
834.343
780.246
540.238
290.399
149.686
103.767
145.287
175.914
170.917
168.46
143.116
113.01
125.561
49.0283
21.7787
6.52169
3.30347
-0.845491
-2.52653
-2.90834
-3.22002
-3.16928
-3.32716
-3.55744
-4.15892
-4.56795
-3.40544
-4.85898
-4.23657
-4.85371
-4.58325
-4.77267
-4.99688
-5.66152
-6.59231
-2.40063
-5.94905
-5.83879
-5.77669
-5.75239
-5.78449
-5.86211
-5.98651
)
;
    }
    lowerWall
    {
        type            calculated;
        value           nonuniform List<scalar> 
62
(
543.058
543.268
546.112
552.251
563.635
581.903
606.311
632.751
658.529
683.548
708.122
732.159
755.377
777.533
798.221
817.077
832.9
843.463
848.482
853.402
872.802
907.814
926.747
897.349
832.969
768.077
704.721
643.295
582.322
518.926
457.216
493.144
525.104
566.158
249.715
988.884
957.804
945.51
1053.51
1219.7
1224.86
1063.05
787.96
991.095
942.575
964.445
1007.43
912.333
714.007
569.14
510.549
499.5
513.247
561.766
717.246
951.658
1073.23
1096.07
1134.28
1201.08
1253.94
1316.48
)
;
    }
    atmosphere
    {
        type            calculated;
        value           nonuniform List<scalar> 
46
(
-5.72904
-5.72904
-5.72904
-5.72904
-5.72904
-5.72904
-5.72904
-5.72904
-5.72904
-5.72904
-5.72904
-5.72904
-5.72904
-5.72904
-5.72904
-5.72904
-5.72904
-5.72904
-5.72904
-5.72904
-5.72904
-5.72904
-5.72904
-5.72904
-5.72904
-5.72948
-5.732
-5.73562
-5.73888
-5.74212
-5.74545
-5.74872
-5.75024
-5.74834
-5.74438
-5.73879
-5.73268
-5.72938
-5.72967
-5.73782
-5.77608
-5.85111
-5.93552
-6.00476
-6.05777
-6.07095
)
;
    }
    defaultFaces
    {
        type            empty;
    }
}


// ************************************************************************* //
