/*--------------------------------*- C++ -*----------------------------------*\
| =========                 |                                                 |
| \\      /  F ield         | OpenFOAM: The Open Source CFD Toolbox           |
|  \\    /   O peration     | Version:  2206                                  |
|   \\  /    A nd           | Website:  www.openfoam.com                      |
|    \\/     M anipulation  |                                                 |
\*---------------------------------------------------------------------------*/
FoamFile
{
    version     2.0;
    format      ascii;
    arch        "LSB;label=32;scalar=64";
    class       volScalarField;
    location    "0.7";
    object      p_rgh;
}
// * * * * * * * * * * * * * * * * * * * * * * * * * * * * * * * * * * * * * //

dimensions      [1 -1 -2 0 0 0 0];

internalField   nonuniform List<scalar> 
2268
(
543.058
543.268
546.112
552.251
563.635
581.903
606.311
632.751
658.529
683.548
708.122
732.159
755.377
777.533
798.221
817.077
832.9
843.463
848.482
853.402
872.802
907.814
926.747
542.36
542.073
544.795
550.815
561.964
580.397
605.377
632.408
658.484
683.618
708.254
732.314
755.543
777.747
798.596
817.711
834.842
844.68
846.906
846.4
863.584
896.202
921.19
539.927
539.4
542.405
548.324
558.892
577.358
603.347
631.701
658.446
683.773
708.465
732.52
755.675
777.726
798.498
817.771
835.85
849.081
846.099
842.872
856.131
884.552
915.116
536.4
535.738
539.021
544.651
554.266
572.664
600.366
630.895
658.618
684.154
708.879
732.953
756.084
778.038
798.726
818.047
836.035
851.107
857.368
853.174
860.043
893.573
910.576
532.548
531.528
534.897
540.229
549.105
567.572
597.618
630.55
659.158
684.827
709.552
733.64
756.776
778.697
799.381
818.8
836.945
852.844
864.056
871.382
882.213
897.759
908.157
528.632
527.124
530.253
535.465
544.35
563.689
595.937
630.702
659.859
685.761
710.485
734.572
757.714
779.617
800.329
819.892
838.341
855.175
869.317
879.587
892.3
902.68
906.036
524.634
523.306
525.788
531.008
541.224
562.504
595.017
630.215
659.932
686.473
711.588
735.808
758.961
780.804
801.51
821.165
839.846
857.219
872.116
885.535
899.136
907.935
901.492
519.575
507.445
499.73
496.515
504.166
530.711
578.031
629.311
659.448
686.861
712.636
737.164
760.369
782.183
802.922
822.659
841.543
859.355
875.549
890.569
905.416
914.235
898.643
991.095
942.575
964.445
1007.43
912.333
714.007
569.14
510.549
499.5
513.247
561.766
717.246
951.658
1073.23
1096.07
1134.28
1201.08
1253.94
1316.48
991.911
905.131
991.783
986.54
776.476
522.254
431.576
439.464
463.962
482.835
520.13
674.28
949.862
1083.18
1070.63
1065.5
1126.6
1232.06
1325.39
1052.58
906.886
972.49
770.483
445.541
349.236
345.392
362.527
386.782
407.771
442.753
574.88
873.618
1040.59
1008.5
952.622
986.984
1143.54
1318.88
1203.41
985.61
809.912
464.033
328.809
322.484
335.655
356.494
379.602
399.088
425.662
594.023
898.268
1069
979.926
923.818
909.104
958.236
1269.7
1412.42
1029.36
631.783
327.559
303.064
311.557
329.231
352.728
377.199
396.806
422.635
607.173
808.174
943.777
993.211
929.845
891.504
872.011
1202.92
1459.73
936.405
409.792
299.17
290.876
303.302
323.634
348.094
373.93
391.449
496.29
589.856
687.615
814.824
898.221
954.602
864.702
877.239
1158.19
1337.24
785.825
334.339
285.636
283.883
297.004
319.256
344.801
387.887
416.821
487.038
482.131
541.205
685.222
807.672
916.683
862.4
891.093
1077.85
1098.89
628.15
307.575
279.386
279.953
292.619
316.142
393.779
542.578
571.363
470.221
245.419
268.962
534.62
720.105
839.152
845.638
874.519
1054.53
192.422
192.234
202.024
219.207
257.84
334.578
443.061
558.163
644.083
686.883
714.365
739.825
763.116
784.655
805.322
825.056
844.31
862.823
880.564
897.597
914.477
927.728
935.501
2.75757
8.26946
22.1077
40.9241
67.6994
100.613
145.028
217.063
334.626
485.507
613.599
699.759
754.499
790.009
810.246
829.095
846.065
866.361
886.599
906.04
924.323
941.201
960.13
1.88366
1.48145
1.45043
1.38572
1.24719
1.22973
2.94442
10.8136
27.8533
64.2066
139.204
246.395
357.628
475.348
599.058
696.125
762.018
834.735
885.108
915.186
935.464
953.716
970.043
1.43097
1.21944
1.22457
1.21676
1.15177
1.10368
1.14703
1.23135
1.28208
1.30395
1.32923
1.34907
1.34886
3.22512
52.1751
118.255
193.777
288.094
412.966
523.476
647.14
829.657
925.949
1.32808
1.19046
1.19898
1.17504
1.12238
1.07986
1.08063
1.14708
1.21896
1.25496
1.27939
1.32329
1.36827
1.34483
1.1148
0.803446
0.62367
0.382365
1.07924
83.227
252.277
358.927
373.99
1.2903
1.22885
1.18935
1.15861
1.13106
1.11734
1.13413
1.16977
1.19552
1.20242
1.19355
1.17988
1.18131
1.11414
0.965749
0.769902
0.588858
0.414229
0.302349
0.255888
0.419614
1.61368
16.3993
1.22299
1.20771
1.17168
1.14208
1.12417
1.11496
1.11585
1.1233
1.13174
1.13385
1.12346
1.1073
1.11011
1.05173
0.885344
0.694766
0.499141
0.312772
0.175739
0.0759183
0.0956113
0.381928
1.25238
1.15551
1.15667
1.13773
1.11794
1.10209
1.09044
1.08619
1.0872
1.0841
1.07556
1.06124
1.03848
1.00388
0.946715
0.850388
0.725274
0.605142
0.489112
0.3839
0.41693
0.517641
0.805914
1.85114
1.10333
1.10353
1.09196
1.07968
1.06719
1.05662
1.05056
1.04711
1.03975
1.02675
1.00807
0.981454
0.943856
0.895497
0.83252
0.757172
0.687352
0.633067
0.604246
0.74663
1.07996
1.35806
2.80523
1.0547
1.05277
1.04446
1.03549
1.02606
1.01742
1.01013
1.00291
0.993277
0.980136
0.962164
0.938198
0.90777
0.870491
0.825739
0.777485
0.73658
0.717921
0.731809
0.831823
1.14491
1.37487
1.82771
1.00667
1.00469
0.998769
0.991905
0.984417
0.976604
0.968804
0.960327
0.950142
0.937465
0.92127
0.900956
0.87678
0.849048
0.818475
0.788434
0.767343
0.763684
0.783388
0.852936
1.16837
1.36795
1.2909
0.960987
0.959015
0.954853
0.949498
0.943313
0.93618
0.92865
0.920309
0.910525
0.898745
0.884595
0.868004
0.849257
0.828985
0.808516
0.790692
0.780939
0.783184
0.799537
0.882036
1.39811
1.65548
1.65782
0.917481
0.915545
0.912445
0.907964
0.902691
0.8964
0.889483
0.881665
0.872658
0.86236
0.850514
0.837303
0.823121
0.808726
0.795439
0.785477
0.781751
0.786666
0.80157
0.884649
1.43179
1.59721
1.45317
0.875519
0.873936
0.871353
0.867503
0.862902
0.857355
0.851104
0.84401
0.836041
0.827222
0.817513
0.807149
0.796626
0.786717
0.778593
0.77391
0.774543
0.781837
0.796848
0.87289
1.15526
1.21654
1.28551
0.834906
0.833735
0.831428
0.828119
0.824062
0.819155
0.813571
0.80727
0.800358
0.792845
0.784917
0.776866
0.769196
0.762618
0.75811
0.75698
0.760669
0.770251
0.787797
0.82311
0.838781
0.879983
1.0708
0.795506
0.794634
0.792538
0.789671
0.786076
0.781735
0.776782
0.771233
0.765235
0.758861
0.752367
0.746067
0.740445
0.736136
0.733961
0.734967
0.740363
0.751164
0.768599
0.792891
0.817628
0.844807
0.925148
0.757183
0.756467
0.754585
0.752066
0.748854
0.744989
0.740582
0.735682
0.73042
0.724956
0.719539
0.714435
0.710109
0.707107
0.706107
0.707912
0.713429
0.723445
0.738256
0.757002
0.774679
0.776911
2.04698
0.719821
0.719159
0.717488
0.715237
0.712332
0.708849
0.704878
0.700482
0.69578
0.690909
0.686261
0.68183
0.678157
0.675656
0.674847
0.676305
0.680606
0.68815
0.698676
0.710324
0.717843
0.727482
1.30182
0.683316
0.682665
0.681174
0.679119
0.676455
0.67326
0.66961
0.665571
0.661253
0.656791
0.652401
0.648264
0.644736
0.642101
0.640747
0.641064
0.643404
0.647931
0.654376
0.661613
0.667041
0.670228
0.658543
0.647586
0.646939
0.645583
0.643664
0.641173
0.638177
0.634739
0.630918
0.6268
0.622499
0.618162
0.613965
0.610127
0.606872
0.604462
0.603137
0.603132
0.604612
0.607571
0.611969
0.61823
0.627432
0.652111
0.612585
0.611939
0.610678
0.608846
0.606465
0.603586
0.600261
0.596535
0.59247
0.588146
0.583655
0.579123
0.574681
0.570459
0.566625
0.563303
0.560619
0.558724
0.557746
0.558069
0.561094
0.569459
0.593105
0.57828
0.577635
0.576434
0.574648
0.572326
0.569494
0.5662
0.562468
0.558339
0.553853
0.549052
0.544
0.53875
0.533342
0.527831
0.522224
0.516503
0.51064
0.504577
0.498394
0.492858
0.489995
0.49471
0.54465
0.544
0.542837
0.541064
0.53876
0.535926
0.532599
0.528786
0.524507
0.519762
0.514552
0.508872
0.502705
0.496007
0.4887
0.480657
0.471666
0.461393
0.449323
0.434644
0.416146
0.391512
0.35368
0.511682
0.511023
0.509879
0.5081
0.505786
0.502914
0.499512
0.495572
0.491087
0.486031
0.480363
0.474022
0.46692
0.458931
0.449863
0.439442
0.427255
0.412662
0.394648
0.371513
0.340283
0.295321
0.224199
0.479365
0.478701
0.477559
0.475766
0.473423
0.470493
0.466995
0.462906
0.458197
0.452817
0.446692
0.439717
0.431743
0.422571
0.411923
0.399407
0.384457
0.366228
0.343441
0.314047
0.274742
0.220171
0.141479
0.447689
0.447024
0.445878
0.444068
0.441692
0.4387
0.435104
0.430869
0.425947
0.420268
0.413731
0.406199
0.397481
0.387326
0.375399
0.361237
0.344195
0.323375
0.297486
0.264623
0.22203
0.165889
0.0910347
0.416649
0.415985
0.414836
0.413012
0.410609
0.407564
0.403887
0.399529
0.394432
0.388507
0.38164
0.37367
0.364383
0.353501
0.340662
0.325379
0.307005
0.284685
0.25726
0.22315
0.180245
0.125919
0.0569799
0.386239
0.385573
0.384429
0.382601
0.380187
0.377111
0.373383
0.368943
0.363725
0.357633
0.350541
0.342279
0.332627
0.321301
0.307935
0.292059
0.273071
0.250215
0.222511
0.188726
0.147313
0.0965281
0.0345001
0.35645
0.35578
0.354653
0.352834
0.350429
0.347355
0.343617
0.339147
0.333879
0.327712
0.320515
0.312123
0.302318
0.290827
0.277303
0.261317
0.242335
0.219719
0.192688
0.160315
0.121526
0.075232
0.0204399
0.327269
0.326592
0.325496
0.323704
0.321335
0.318298
0.314598
0.310163
0.304923
0.298779
0.291606
0.283246
0.273494
0.262099
0.248749
0.233064
0.214591
0.192809
0.167121
0.136854
0.10129
0.0597786
0.0118289
0.298677
0.297995
0.296944
0.295194
0.292893
0.289934
0.286323
0.281987
0.276858
0.270842
0.26382
0.255647
0.24614
0.235075
0.22218
0.207129
0.189551
0.169034
0.145128
0.117361
0.0852668
0.0484675
0.00675291
0.270648
0.269973
0.268974
0.267288
0.265084
0.262242
0.258774
0.254602
0.249666
0.243878
0.23713
0.229289
0.220197
0.209661
0.197451
0.183297
0.166902
0.147943
0.126089
0.101016
0.0724282
0.040117
0.00402125
0.243151
0.2425
0.241559
0.239958
0.23788
0.235194
0.231918
0.227973
0.223309
0.217843
0.211479
0.204102
0.195575
0.185737
0.174396
0.161338
0.146328
0.12912
0.10947
0.0871592
0.0620038
0.033896
0.00284241
0.21615
0.21554
0.214661
0.213167
0.211243
0.208749
0.205711
0.202051
0.19773
0.192671
0.186791
0.179991
0.172155
0.163152
0.152828
0.141014
0.127528
0.112186
0.0948138
0.0752597
0.0534113
0.0292163
0.00270129
0.189601
0.18905
0.188237
0.186872
0.185126
0.182855
0.180098
0.176775
0.172858
0.168278
0.162964
0.156835
0.149794
0.141736
0.132539
0.122074
0.110202
0.0967896
0.0817122
0.0648658
0.0461802
0.0256283
0.00323516
0.163455
0.162987
0.162244
0.161026
0.159478
0.157457
0.155016
0.152072
0.148609
0.144567
0.139886
0.134498
0.12833
0.121296
0.113304
0.104254
0.094047
0.082585
0.0697808
0.0555629
0.0398852
0.0227304
0.00411068
0.137666
0.137304
0.136639
0.135582
0.134248
0.132502
0.130405
0.127871
0.124902
0.121439
0.117438
0.112844
0.1076
0.101641
0.0948987
0.0872981
0.0787681
0.0692406
0.0586543
0.0469597
0.0341244
0.0201306
0.0049739
0.112187
0.111948
0.111369
0.110485
0.109377
0.107924
0.106191
0.104093
0.101643
0.0987895
0.0954996
0.0917319
0.0874425
0.0825845
0.0771074
0.0709584
0.0640874
0.0564476
0.0479958
0.038699
0.0285309
0.0174677
0.00548792
0.0869507
0.0868536
0.0863567
0.0856555
0.0847848
0.0836402
0.0822843
0.0806399
0.0787291
0.0765026
0.0739427
0.0710169
0.0676952
0.0639444
0.0597277
0.0550103
0.0497588
0.0439419
0.0375297
0.0304993
0.0228273
0.014485
0.00543708
0.0619001
0.0619491
0.0615361
0.0610291
0.0604044
0.0595788
0.0586097
0.0574308
0.0560677
0.0544784
0.0526557
0.0505768
0.0482217
0.0455689
0.0425953
0.0392788
0.035598
0.0315341
0.0270674
0.0221804
0.0168531
0.0110585
0.0047572
0.0370342
0.0371784
0.0368603
0.0365619
0.0361885
0.0356916
0.0351153
0.0344083
0.0335957
0.0326463
0.0315613
0.0303266
0.0289305
0.0273597
0.025604
0.023653
0.0214929
0.0191123
0.0165003
0.0136478
0.0105423
0.00716134
0.00347077
0.0122275
0.0124104
0.0122665
0.0121723
0.0120485
0.0118777
0.0116885
0.0114503
0.0111833
0.0108696
0.0105117
0.0101045
0.00964778
0.00913688
0.00856711
0.00793586
0.00724081
0.00647905
0.00564531
0.00473534
0.0037454
0.00266458
0.00147322
963.961
995.947
1036.82
628.401
989.281
1010.4
1076.32
1132.13
986.562
1001.68
1041.57
1220.59
923.863
768.39
701.793
1005.95
189.863
53.067
51.8642
391.006
21.382
11.0909
102.625
781.353
3.06095
183.48
734.087
1066.58
23.1285
431.409
772.292
546.129
77.0158
342.417
285.589
-2.4296
45.7559
126.338
56.6964
-5.84382
9.87941
72.9253
32.5055
-9.58716
1.67894
61.3857
139.188
-13.608
1.7211
81.4854
146.799
9.57084
1.8938
103.209
158.878
152.933
3.36789
128.199
180.611
108.05
19.1246
64.9477
51.5513
8.37248
10.6662
2.94947
1.97668
3.54208
0.639191
0.891812
1.47977
29.5508
0.653381
0.907082
1.62434
185.87
0.715008
0.869862
86.3889
194.34
0.737858
8.00468
187.433
193.653
0.572472
9.23751
64.6764
28.9046
0.299533
1.98001
-1.24047
-1.88889
0.0852034
-0.359469
-1.06057
-1.35366
0.00217463
-0.292096
-0.71063
-0.978508
-0.0297091
-0.241603
-0.517386
-0.732974
-0.048232
-0.214713
-0.411957
-0.575836
-0.0562168
-0.189639
-0.33788
-0.467538
-0.0570904
-0.165639
-0.282488
-0.388978
-0.0544251
-0.14423
-0.239336
-0.32833
-0.0498874
-0.124973
-0.203825
-0.279173
-0.0443592
-0.107534
-0.173686
-0.238098
-0.0383917
-0.0917179
-0.147624
-0.203083
-0.0322816
-0.0773
-0.124735
-0.172816
-0.0261969
-0.064056
-0.104318
-0.14623
-0.0203236
-0.051861
-0.0858386
-0.122344
-0.0149275
-0.0407898
-0.0691413
-0.100641
-0.0102878
-0.0310105
-0.0542316
-0.0809047
-0.00653888
-0.0225089
-0.0408696
-0.0626997
-0.00363852
-0.0150432
-0.0285994
-0.0454301
-0.00148603
-0.00836878
-0.0169946
-0.0285484
-0.000155495
-0.00248617
-0.00584942
-0.0116067
699.339
422.324
291.696
280.52
278.929
291.457
404.584
618.319
664.982
573.223
323.361
141.73
127.223
263.6
561.173
688.222
841.137
783.328
1025.61
687.862
422.938
310.015
297.7
331.671
484.348
881.26
862.207
738.123
609.925
334.479
132.133
95.8624
111.646
142.042
198.636
518.332
689.081
788.824
1003.18
792.401
454.013
534.583
966.567
1154.66
1174.4
1004.15
811.053
663.148
586.566
231.17
73.6376
73.85
72.0555
68.6995
221.062
439.143
491.387
1288.02
1286.07
1216.65
1297.03
1264.25
1237.45
1324.49
1096.91
869.309
718.87
654.641
350.054
75.0427
74.354
72.619
74.8338
87.938
187.5
292.505
1198.92
1341.85
1373.13
1140.44
1004.78
1307.69
1284.61
1088.83
823.427
453.141
477.86
542.274
114.471
70.2725
98.316
150.382
148.08
146.711
405.456
1231.09
1309.02
1189.65
761.672
805.658
830.164
711.648
986.075
614.979
383.845
368.869
394.926
466.715
397.845
544.634
793.628
205.926
184.425
629.553
1128.31
899.494
625.303
426.043
289.333
126.469
82.2276
426.064
711.829
451.288
416.763
435.108
466.573
688.738
787.752
822.026
480.083
203.3
983.918
41.2328
38.9095
108.09
159.912
43.591
27.6235
27.3705
131.116
721.683
888.297
691.057
739.437
835.651
330.613
167.622
181.168
214.817
233.628
1386.95
3.6046
10.6926
46.7601
129.172
70.8245
13.5234
10.0263
9.85571
228.752
946.111
1131.36
1165.81
1200.85
1036.21
418.083
383.923
395.213
803.047
1585.67
-2.47544
3.06239
131.191
273.759
50.3139
4.05759
2.66227
1.41721
-0.269811
75.1752
843.973
1183.67
1290.7
1357.71
1428.27
1510.68
1594.21
1683.75
1675.96
-7.63365
-3.95629
115.312
288.674
137.747
0.0924439
-0.0656289
-0.50618
-0.968976
-1.58063
-2.84134
13.3568
436.648
727.2
942.043
1107.9
1374.56
1690.73
1760.46
-12.5287
-9.62263
65.673
296.381
199.545
-1.3225
-1.09664
-1.18789
-1.54313
-1.66163
-1.68597
-1.60703
-1.55205
-1.07279
0.106237
3.26102
19.0141
553.136
1499.59
-15.5111
-11.4314
88.72
313.253
262.796
-1.88138
-1.42145
-1.43555
-1.8517
-1.90033
-1.76229
-1.5278
-1.30695
-1.12309
-1.07967
-1.01033
1.16454
14.2668
158.204
1.32326
0.914121
244.331
335.679
210.876
-2.21152
-1.85319
-1.93919
-2.11966
-2.00384
-1.75027
-1.4746
-1.28303
-1.21764
-1.27618
-1.56353
-1.27071
7.05747
64.1367
10.5942
66.651
348.398
357.991
108.717
-1.62254
-2.12298
-2.46494
-2.39986
-2.1192
-1.76507
-1.4698
-1.29243
-1.24938
-1.29737
-1.43217
1.14853
47.1387
202.389
12.668
225.879
380.279
277.54
-0.209196
-1.02116
-1.95166
-2.5336
-2.35734
-2.01674
-1.68497
-1.42811
-1.27387
-1.21917
-1.22751
-1.28857
1.8407
69.0888
209.895
42.4308
313.054
315.933
-0.716744
-0.460596
-0.797477
-1.48031
-1.94592
-1.91848
-1.69021
-1.4572
-1.28786
-1.18534
-1.1285
-1.10443
-1.0802
-1.00164
123.377
216.542
245.871
223.683
-1.95739
-1.18198
-0.861566
-0.757586
-0.953256
-1.22436
-1.34671
-1.29082
-1.19374
-1.11147
-1.05247
-1.00367
-0.96626
-0.906263
-0.779072
116.399
225.14
255.772
84.0398
-1.046
-0.764425
-0.445756
-0.292808
-0.403625
-0.639515
-0.98743
-1.01957
-0.985452
-0.95067
-0.91346
-0.873356
-0.83897
-0.793729
-0.720019
17.987
234.142
164.533
-0.775981
-0.775912
-0.570099
-0.496122
-0.543179
-0.635686
-0.748988
-0.824634
-0.851015
-0.845567
-0.781097
-0.763743
-0.733855
-0.697992
-0.648421
-0.585518
-0.654112
240.23
-1.4703
-1.18568
-0.866106
-0.805111
-0.750737
-0.679249
-0.687992
-0.720932
-0.748072
-0.759336
-0.7217
-0.380476
-0.393238
-0.590884
-0.539618
-0.458125
-0.377453
-0.31759
211.96
-1.60915
-1.01758
-1.02163
-0.966404
-0.81722
-0.742861
-0.718362
-0.715081
-0.715104
-0.708004
-0.427507
-0.259978
-0.195296
-0.478948
-0.394681
0.388922
-0.130517
-0.0711686
180.378
-1.36421
-1.23542
-1.09696
-0.93255
-0.821535
-0.75932
-0.73009
-0.715571
-0.700967
-0.677011
-0.332107
-0.192728
-0.133804
-0.457969
1.18336
15.1282
8.14356
0.522065
202.284
-1.29625
-1.11286
-0.964537
-0.862181
-0.791845
-0.75012
-0.729549
-0.71378
-0.690029
-0.653297
-0.584135
-0.178166
-0.14887
-0.357116
10.5563
20.5775
20.6273
12.0774
219.524
-0.98569
-0.915653
-0.844355
-0.790138
-0.751569
-0.730807
-0.6993
-0.679468
-0.672308
-0.631325
-0.586169
-0.289273
-0.255483
0.949417
20.8589
21.221
20.2532
19.5121
227.32
-0.776363
-0.766004
-0.742326
-0.720902
-0.706927
-0.678981
-0.667763
-0.654491
-0.647622
-0.60934
-0.576069
-0.253545
-0.298395
2.88771
21.115
15.601
2.15235
16.5316
210.064
-0.638004
-0.650669
-0.654781
-0.655422
-0.641262
-0.629218
-0.633486
-0.641847
-0.618709
-0.584852
-0.46076
-0.173677
-0.238472
3.86111
14.2859
-1.03062
-0.934109
2.26384
9.23993
-0.532694
-0.56273
-0.579322
-0.579016
-0.567552
-0.580954
-0.600176
-0.603119
-0.573144
-0.553964
-0.206072
-0.188903
-0.135185
5.76539
-0.836238
-0.89501
-0.862559
-0.941403
13.3449
-0.451458
-0.486557
-0.512479
-0.525126
-0.515035
-0.550395
-0.562478
-0.543413
-0.521589
-0.316327
-0.143554
-0.145589
0.438031
6.01724
-0.565777
-0.820694
-0.824186
-0.883089
322.909
-0.385904
-0.421695
-0.450158
-0.473112
-0.493978
-0.505745
-0.503162
-0.487322
-0.470413
-0.16902
-0.204047
-0.0902368
4.06946
4.35301
-0.736006
-0.830779
-0.826186
-0.272694
484.804
-0.331316
-0.365854
-0.395014
-0.420371
-0.441627
-0.455217
-0.456107
-0.445885
-0.434426
-0.0847518
-0.209478
1.22048
4.46224
-0.862601
-0.861004
-0.913124
-0.888585
1.74942
499.552
-0.285044
-0.317828
-0.347475
-0.374754
-0.399571
-0.419486
-0.425961
-0.428196
-0.408421
-0.170486
-0.209777
3.0078
3.80234
-1.04952
-1.05799
-1.05521
-1.00331
7.32653
514.047
-0.245518
-0.276807
-0.307269
-0.338101
-0.370021
-0.401481
-0.416476
-0.417559
-0.431866
-0.447268
0.671013
6.25655
1.14693
-1.31779
-1.26928
-1.24877
-1.14752
13.316
528.102
-0.211519
-0.241867
-0.274047
-0.310006
-0.351974
-0.398889
-0.440439
-0.296326
-0.469799
-0.585242
0.520443
6.1088
5.29189
-0.991312
-1.30506
-1.40787
-1.19584
18.4848
539.734
-0.181871
-0.211652
-0.245794
-0.28727
-0.340298
-0.403471
-0.374633
-0.253458
-0.518629
-0.677744
-1.05429
6.08301
5.74866
3.91756
-1.33251
-1.40212
-1.09354
21.9063
366.684
-0.155099
-0.184008
-0.219174
-0.264892
-0.326478
-0.398528
-0.217736
-0.276317
-0.44138
-0.705683
-0.98886
1.30817
6.11877
4.87642
-1.14428
-1.22583
-0.968289
7.29866
-1.03377
-0.130245
-0.157433
-0.191697
-0.23839
-0.302421
-0.181767
-0.178683
-0.266322
-0.340957
-0.625395
-0.765541
-1.01506
2.0289
-0.134803
-1.10909
-0.92609
-0.808815
-0.816198
-0.798318
-0.106928
-0.131303
-0.16234
-0.205445
-0.264246
-0.0578736
-0.124224
-0.211895
-0.27293
-0.3499
-0.505834
-0.588074
-0.630175
-0.6824
-0.660762
-0.612152
-0.590991
-0.600885
-0.611022
-0.0846807
-0.105313
-0.13123
-0.166748
-0.210577
-0.176833
-0.0353957
-0.113108
-0.156744
-0.141223
-0.158971
-0.274381
-0.257292
-0.288721
-0.33494
-0.37224
-0.408921
-0.441493
-0.461532
-0.0629298
-0.0792087
-0.0990514
-0.125103
-0.158676
-0.184561
-0.11043
-0.0783003
-0.159314
-0.11239
-0.0714329
-0.0920278
-0.0515602
-0.0869729
-0.159298
-0.231387
-0.294036
-0.34109
-0.368432
-0.0411088
-0.0526982
-0.0664132
-0.0833473
-0.102926
-0.123429
-0.144478
-0.16164
-0.163883
-0.140929
-0.0839584
-0.0302665
-0.00500418
-0.0286444
-0.0924361
-0.170275
-0.240649
-0.292628
-0.320862
-0.0185541
-0.0249796
-0.0322848
-0.0406734
-0.0482172
-0.0544041
-0.058627
-0.0577018
-0.0495533
-0.0371713
-0.0238151
-0.00111088
0.00577425
-0.026808
-0.0929608
-0.172896
-0.244394
-0.296703
-0.32007
)
;

boundaryField
{
    leftWall
    {
        type            fixedFluxPressure;
        gradient        uniform 0;
        value           nonuniform List<scalar> 
50
(
543.058
542.36
539.927
536.4
532.548
528.632
524.634
519.575
192.422
2.75757
1.88366
1.43097
1.32808
1.2903
1.22299
1.15551
1.10333
1.0547
1.00667
0.960987
0.917481
0.875519
0.834906
0.795506
0.757183
0.719821
0.683316
0.647586
0.612585
0.57828
0.54465
0.511682
0.479365
0.447689
0.416649
0.386239
0.35645
0.327269
0.298677
0.270648
0.243151
0.21615
0.189601
0.163455
0.137666
0.112187
0.0869507
0.0619001
0.0370342
0.0122275
)
;
    }
    rightWall
    {
        type            fixedFluxPressure;
        gradient        uniform 0;
        value           nonuniform List<scalar> 
50
(
1316.48
1325.39
1318.88
1269.7
1202.92
1158.19
1077.85
1054.53
1025.61
788.824
491.387
292.505
405.456
629.553
983.918
1386.95
1585.67
1675.96
1760.46
1499.59
158.204
64.1367
202.389
209.895
216.542
225.14
234.142
240.23
211.96
180.378
202.284
219.524
227.32
210.064
9.23993
13.3449
322.909
484.804
499.552
514.047
528.102
539.734
366.684
-1.03377
-0.798318
-0.611022
-0.461532
-0.368432
-0.320862
-0.32007
)
;
    }
    lowerWall
    {
        type            fixedFluxPressure;
        gradient        uniform 0;
        value           nonuniform List<scalar> 
62
(
543.058
543.268
546.112
552.251
563.635
581.903
606.311
632.751
658.529
683.548
708.122
732.159
755.377
777.533
798.221
817.077
832.9
843.463
848.482
853.402
872.802
907.814
926.747
926.747
921.19
915.116
910.576
908.157
906.036
901.492
898.643
963.961
995.947
1036.82
628.401
991.095
991.911
1052.58
1203.41
1412.42
1459.73
1337.24
1098.89
991.095
942.575
964.445
1007.43
912.333
714.007
569.14
510.549
499.5
513.247
561.766
717.246
951.658
1073.23
1096.07
1134.28
1201.08
1253.94
1316.48
)
;
    }
    atmosphere
    {
        type            totalPressure;
        rho             rho;
        psi             none;
        gamma           1;
        p0              uniform 0;
        value           nonuniform List<scalar> 
46
(
0
0
0
0
0
0
0
0
0
0
0
0
0
0
0
0
0
0
0
0
0
0
0
0
0
-0.000435124
-0.00296485
-0.00657678
-0.00983658
-0.0130766
-0.01641
-0.0196772
-0.0212046
-0.0193032
-0.0153371
-0.00974915
-0.00364026
-0.000337051
-0.0006306
-0.00878093
-0.0470402
-0.122072
-0.206478
-0.275721
-0.328729
-0.341912
)
;
    }
    defaultFaces
    {
        type            empty;
    }
}


// ************************************************************************* //
