/*--------------------------------*- C++ -*----------------------------------*\
| =========                 |                                                 |
| \\      /  F ield         | OpenFOAM: The Open Source CFD Toolbox           |
|  \\    /   O peration     | Version:  2206                                  |
|   \\  /    A nd           | Website:  www.openfoam.com                      |
|    \\/     M anipulation  |                                                 |
\*---------------------------------------------------------------------------*/
FoamFile
{
    version     2.0;
    format      ascii;
    arch        "LSB;label=32;scalar=64";
    class       surfaceScalarField;
    location    "0.7";
    object      phi;
}
// * * * * * * * * * * * * * * * * * * * * * * * * * * * * * * * * * * * * * //

dimensions      [0 3 -1 0 0 0 0];

oriented        oriented;

internalField   nonuniform List<scalar> 
4432
(
-3.8476e-06
3.8476e-06
-7.83121e-06
3.9836e-06
-1.06194e-05
2.78824e-06
-1.26272e-05
2.00776e-06
-1.36397e-05
1.0125e-06
-1.29424e-05
-6.97348e-07
-1.05655e-05
-2.37685e-06
-7.81189e-06
-2.75362e-06
-5.98207e-06
-1.82982e-06
-5.428e-06
-5.54072e-07
-5.96463e-06
5.36637e-07
-7.29839e-06
1.33376e-06
-9.14168e-06
1.8433e-06
-1.13926e-05
2.25089e-06
-1.40915e-05
2.69892e-06
-1.66538e-05
2.56228e-06
-1.83675e-05
1.71371e-06
-2.1203e-05
2.8355e-06
-2.67824e-05
5.57938e-06
-3.07893e-05
4.00691e-06
-2.66134e-05
-4.17586e-06
-1.40377e-05
-1.25758e-05
-1.40376e-05
-4.97833e-06
8.82594e-06
-8.59624e-06
7.60151e-06
-1.08393e-05
5.03132e-06
-1.27576e-05
3.92602e-06
-1.39722e-05
2.2271e-06
-1.34553e-05
-1.21427e-06
-1.10175e-05
-4.81463e-06
-8.01378e-06
-5.75733e-06
-5.96936e-06
-3.87424e-06
-5.26965e-06
-1.25378e-06
-5.4715e-06
7.38489e-07
-6.22368e-06
2.08593e-06
-7.36733e-06
2.98695e-06
-8.90954e-06
3.79309e-06
-1.10872e-05
4.87662e-06
-1.43437e-05
5.81879e-06
-1.90411e-05
6.41105e-06
-2.41905e-05
7.9849e-06
-2.72839e-05
8.67282e-06
-2.57135e-05
2.43642e-06
-1.97292e-05
-1.01601e-05
-1.03954e-05
-2.19096e-05
-2.4433e-05
-4.14481e-06
1.29707e-05
-7.16895e-06
1.06257e-05
-9.5514e-06
7.41377e-06
-1.20418e-05
6.41637e-06
-1.38455e-05
4.0308e-06
-1.3653e-05
-1.40673e-06
-1.14345e-05
-7.03312e-06
-8.51761e-06
-8.67422e-06
-6.4357e-06
-5.95615e-06
-5.71848e-06
-1.971e-06
-5.97159e-06
9.91592e-07
-6.63625e-06
2.75059e-06
-7.35062e-06
3.70132e-06
-7.95784e-06
4.40031e-06
-8.46837e-06
5.38715e-06
-9.4457e-06
6.79613e-06
-1.16493e-05
8.6147e-06
-1.42387e-05
1.05742e-05
-1.50619e-05
9.4961e-06
-1.34626e-05
8.37034e-07
-9.82644e-06
-1.37962e-05
-4.63458e-06
-2.71015e-05
-2.90676e-05
-2.75308e-06
1.57238e-05
-5.10154e-06
1.29741e-05
-7.38808e-06
9.70031e-06
-9.69694e-06
8.72523e-06
-1.12275e-05
5.5614e-06
-1.11421e-05
-1.49216e-06
-9.81477e-06
-8.36047e-06
-8.11574e-06
-1.03732e-05
-6.83626e-06
-7.23563e-06
-6.39445e-06
-2.41281e-06
-6.75564e-06
1.35279e-06
-7.52009e-06
3.51504e-06
-8.26787e-06
4.4491e-06
-8.691e-06
4.82345e-06
-8.63593e-06
5.33208e-06
-8.03504e-06
6.19523e-06
-7.06739e-06
7.64705e-06
-5.61659e-06
9.1234e-06
-3.35661e-06
7.23613e-06
-1.56751e-06
-9.52073e-07
-4.36088e-07
-1.49276e-05
4.35779e-07
-2.79734e-05
-2.86318e-05
-9.28096e-07
1.66519e-05
-1.99147e-06
1.40375e-05
-3.48838e-06
1.11972e-05
-4.66615e-06
9.903e-06
-4.91702e-06
5.81227e-06
-4.75413e-06
-1.65504e-06
-5.05664e-06
-8.05796e-06
-5.86727e-06
-9.56263e-06
-6.6014e-06
-6.5015e-06
-7.10566e-06
-1.90855e-06
-7.71229e-06
1.95942e-06
-8.46895e-06
4.2717e-06
-9.15098e-06
5.13113e-06
-9.50448e-06
5.17695e-06
-9.41462e-06
5.24223e-06
-8.62388e-06
5.40448e-06
-6.67362e-06
5.6968e-06
-3.3645e-06
5.81427e-06
5.34514e-07
3.33712e-06
3.41365e-06
-3.83121e-06
3.24555e-06
-1.47595e-05
2.28378e-06
-2.70116e-05
-2.6348e-05
1.37153e-06
1.52804e-05
2.13884e-06
1.32702e-05
2.30806e-06
1.1028e-05
2.86811e-06
9.34295e-06
3.91842e-06
4.76196e-06
3.8443e-06
-1.58092e-06
1.48155e-06
-5.69521e-06
-2.28427e-06
-5.7968e-06
-5.60027e-06
-3.18551e-06
-7.59298e-06
8.41655e-08
-8.72983e-06
3.09627e-06
-9.54227e-06
5.08414e-06
-1.00658e-05
5.65464e-06
-1.02052e-05
5.31636e-06
-1.00013e-05
5.03837e-06
-9.31585e-06
4.719e-06
-7.75459e-06
4.13554e-06
-4.94563e-06
3.0053e-06
-1.40974e-06
-1.98749e-07
1.42897e-06
-6.66993e-06
1.82595e-06
-1.51565e-05
1.79455e-06
-2.69802e-05
-2.45535e-05
3.24191e-06
1.20385e-05
6.32995e-06
1.01821e-05
9.31377e-06
8.04418e-06
1.23614e-05
6.29534e-06
1.40204e-05
3.10293e-06
1.21363e-05
3.03207e-07
6.85658e-06
-4.15515e-07
7.04416e-07
3.55359e-07
-4.47175e-06
1.99066e-06
-7.81224e-06
3.42465e-06
-9.70553e-06
4.98956e-06
-1.06868e-05
6.06543e-06
-1.10496e-05
6.01737e-06
-1.08837e-05
5.15045e-06
-1.0455e-05
4.60968e-06
-9.74129e-06
4.00532e-06
-8.50697e-06
2.90122e-06
-6.52897e-06
1.02729e-06
-4.20607e-06
-2.52164e-06
-2.22161e-06
-8.6544e-06
-1.32794e-06
-1.60502e-05
-3.35502e-07
-2.79727e-05
-2.4889e-05
5.72872e-06
6.30976e-06
1.25346e-05
3.3762e-06
1.79369e-05
2.64192e-06
2.10637e-05
3.1686e-06
2.01644e-05
4.00223e-06
1.46661e-05
5.80148e-06
7.03684e-06
7.21373e-06
4.37669e-07
6.95453e-06
-4.367e-06
6.79533e-06
-7.68563e-06
6.74328e-06
-1.01281e-05
7.43201e-06
-1.15919e-05
7.52924e-06
-1.20908e-05
6.51624e-06
-1.17202e-05
4.77985e-06
-1.10615e-05
3.95097e-06
-1.02008e-05
3.14466e-06
-8.99258e-06
1.69299e-06
-7.35841e-06
-6.0687e-07
-5.82241e-06
-4.05764e-06
-4.94917e-06
-9.52765e-06
-4.65166e-06
-1.63477e-05
-4.7092e-06
-2.79151e-05
-2.95982e-05
5.01616e-05
-5.01616e-05
2.57678e-05
2.43938e-05
-6.37011e-07
2.64047e-05
-5.06239e-05
4.99869e-05
-0.000108233
5.76087e-05
-0.00014766
3.94269e-05
-0.000163626
1.59668e-05
-0.000164902
1.27585e-06
-0.000161366
-3.53654e-06
-0.000156011
-5.35438e-06
-0.000149253
-6.75832e-06
-0.000137576
-1.16764e-05
-0.000117506
-2.00701e-05
-9.86844e-05
-1.88219e-05
-8.37103e-05
-1.49741e-05
-6.6238e-05
-1.74723e-05
-3.9334e-05
-2.6904e-05
-7.28523e-06
-3.20488e-05
-7.28523e-06
2.54376e-05
-7.55992e-05
-1.79144e-06
5.16228e-05
-7.0054e-05
9.46673e-05
-0.000134946
0.000114879
-0.000175857
9.85197e-05
-0.00018559
4.91595e-05
-0.000177925
8.30236e-06
-0.000169117
-7.53196e-06
-0.000161567
-1.10873e-05
-0.000152718
-1.42033e-05
-0.000142998
-1.64784e-05
-0.000129345
-2.53294e-05
-0.000111265
-3.81502e-05
-0.000100552
-2.95344e-05
-9.3258e-05
-2.22683e-05
-8.24085e-05
-2.83218e-05
-6.18163e-05
-4.74962e-05
-3.19851e-05
-6.188e-05
-3.92703e-05
-2.19466e-05
-5.36527e-05
-6.62118e-05
9.58881e-05
-0.000126338
0.000154793
-0.00017489
0.000163431
-0.000197807
0.000121437
-0.000199254
5.06061e-05
-0.00018901
-1.94203e-06
-0.000166078
-3.0463e-05
-0.000137562
-3.96041e-05
-0.000106593
-4.51718e-05
-7.17025e-05
-5.13691e-05
-3.18741e-05
-6.51578e-05
-4.9397e-06
-6.50845e-05
-7.30239e-06
-2.71717e-05
-2.6272e-05
-3.29863e-06
-5.26717e-05
-1.92208e-06
-6.10092e-05
-3.91587e-05
-4.02991e-05
-8.25901e-05
-7.95694e-05
-5.60816e-05
2.4289e-06
-0.000107817
0.000147624
-0.000156863
0.000203838
-0.000190226
0.000196795
-0.000210081
0.000141292
-0.000204709
4.52335e-05
-0.000169505
-3.71454e-05
-0.000124866
-7.51026e-05
-7.80072e-05
-8.64627e-05
-3.52569e-05
-8.7922e-05
3.67362e-06
-9.02996e-05
5.07061e-05
-0.00011219
6.73274e-05
-8.17059e-05
7.93447e-05
-3.9189e-05
8.73926e-05
-1.13465e-05
5.77943e-05
2.76762e-05
-1.2002e-05
3.06376e-05
-3.29713e-05
-6.16208e-05
-0.000112541
-7.23411e-05
7.477e-05
-0.000127338
0.00020262
-0.000166773
0.000243274
-0.000194448
0.000224469
-0.000188007
0.000134852
-0.000140297
-2.47712e-06
-8.77022e-05
-8.974e-05
-4.13123e-05
-0.000121492
6.97313e-06
-0.000134748
4.4363e-05
-0.000125312
8.03548e-05
-0.000126291
9.03605e-05
-0.000122196
8.87387e-05
-8.0084e-05
8.34376e-05
-3.3888e-05
8.14509e-05
-9.35972e-06
8.5953e-05
2.31741e-05
4.90753e-05
6.75153e-05
-1.22629e-05
-2.82709e-07
-0.000124804
-7.39847e-05
0.000148755
-0.000125684
0.00025432
-0.000160018
0.000277607
-0.000169786
0.000234238
-0.000126946
9.20121e-05
-6.62039e-05
-6.32192e-05
-2.12976e-05
-0.000134646
1.88673e-05
-0.000161657
5.63813e-05
-0.000172262
9.00745e-05
-0.000159005
0.000108115
-0.000144332
0.000102759
-0.00011684
9.31018e-05
-7.04267e-05
8.6535e-05
-2.73212e-05
7.9874e-05
-2.6988e-06
8.37063e-05
1.93419e-05
7.75157e-05
7.37059e-05
1.66817e-05
6.05513e-05
-0.000108122
-6.71871e-05
0.000215942
-0.000109312
0.000296445
-0.00013758
0.000305875
-0.000123091
0.000219749
-5.67577e-05
2.56789e-05
3.91623e-06
-0.000123893
3.53581e-05
-0.000166088
6.44685e-05
-0.000190768
8.68455e-05
-0.000194639
0.000103974
-0.000176134
0.000106759
-0.000147117
9.66352e-05
-0.000106717
8.49184e-05
-5.871e-05
8.10372e-05
-2.344e-05
7.76372e-05
7.01284e-07
7.76446e-05
1.93344e-05
7.451e-05
7.68405e-05
2.67828e-05
0.000108279
-8.13391e-05
-5.65832e-05
0.000272525
-8.52947e-05
0.000325156
-9.53735e-05
0.000315954
-4.77622e-05
0.000172137
1.56607e-05
-3.7744e-05
4.69637e-05
-0.000155196
6.94124e-05
-0.000188537
8.17593e-05
-0.000203115
8.82951e-05
-0.000201175
9.47826e-05
-0.000182621
9.39336e-05
-0.000146268
8.33038e-05
-9.60868e-05
7.2023e-05
-4.74291e-05
7.16918e-05
-2.31088e-05
7.2929e-05
-5.35934e-07
7.26404e-05
1.9623e-05
6.85899e-05
8.0891e-05
2.77523e-05
0.000149116
-5.35867e-05
1.04197e-05
-4.10992e-06
9.78783e-06
4.00804e-06
4.30085e-06
8.1289e-06
-1.50508e-06
8.97453e-06
-6.19245e-06
8.68959e-06
-9.73519e-06
9.34422e-06
-1.2547e-05
1.00255e-05
-1.48633e-05
9.27085e-06
-1.68712e-05
8.80317e-06
-1.91849e-05
9.05706e-06
-2.22202e-05
1.04672e-05
-2.53045e-05
1.06136e-05
-2.65899e-05
7.80162e-06
-2.53565e-05
3.54639e-06
-2.39947e-05
2.58918e-06
-2.27367e-05
1.88664e-06
-2.10858e-05
4.213e-08
-1.83266e-05
-3.36603e-06
-1.59921e-05
-6.39215e-06
-1.55231e-05
-9.99673e-06
-1.7533e-05
-1.43377e-05
-2.55248e-05
-1.99234e-05
-1.61827e-05
-3.89402e-05
-0.000110117
0.000106007
-0.000126058
1.99491e-05
-9.93168e-05
-1.86119e-05
-7.79448e-05
-1.23975e-05
-6.61451e-05
-3.11006e-06
-6.11642e-05
4.36335e-06
-5.8969e-05
7.83027e-06
-5.40819e-05
4.38379e-06
-4.51738e-05
-1.04994e-07
-3.68593e-05
7.42627e-07
-3.07417e-05
4.34959e-06
-2.60986e-05
5.97054e-06
-2.24957e-05
4.19871e-06
-2.07318e-05
1.78249e-06
-2.07557e-05
2.61312e-06
-2.15556e-05
2.68651e-06
-2.14266e-05
-8.69137e-08
-1.87559e-05
-6.03675e-06
-1.67919e-05
-8.35613e-06
-1.67426e-05
-1.0046e-05
-1.85853e-05
-1.2495e-05
-2.29546e-05
-1.5554e-05
-1.36084e-05
-2.55289e-05
-5.59856e-05
0.000161992
-0.000101922
6.58851e-05
-0.000137014
1.648e-05
-0.000172609
2.31983e-05
-0.000197318
2.15992e-05
-0.000203281
1.03263e-05
-0.000188627
-6.82396e-06
-0.000160484
-2.37588e-05
-0.000131099
-2.94905e-05
-0.000104381
-2.59751e-05
-8.29809e-05
-1.70508e-05
-6.93439e-05
-7.6665e-06
-5.81445e-05
-7.00064e-06
-4.47186e-05
-1.16434e-05
-3.00051e-05
-1.21004e-05
-2.10393e-05
-6.27927e-06
-1.52696e-05
-5.85669e-06
-1.27143e-05
-8.59204e-06
-1.31711e-05
-7.89932e-06
-1.40824e-05
-9.13467e-06
-1.44e-05
-1.21774e-05
-1.58504e-05
-1.41036e-05
-1.41575e-05
-1.53013e-05
-1.0646e-05
0.000172638
-4.2332e-05
9.75712e-05
-7.92227e-05
5.33707e-05
-9.94762e-05
4.34519e-05
-0.000112818
3.49414e-05
-0.000125123
2.2631e-05
-0.000136462
4.5152e-06
-0.000154497
-5.72388e-06
-0.00018148
-2.50716e-06
-0.000207419
-3.63352e-08
-0.000223149
-1.3202e-06
-0.000223347
-7.46869e-06
-0.000202463
-2.78845e-05
-0.000170535
-4.35719e-05
-0.000124486
-5.8149e-05
-0.00010158
-2.91848e-05
-9.32375e-05
-1.41996e-05
-8.3127e-05
-1.87025e-05
-7.12833e-05
-1.97431e-05
-5.91535e-05
-2.12644e-05
-4.55552e-05
-2.57758e-05
-3.73301e-05
-2.23287e-05
-1.85429e-05
-3.29447e-05
3.11855e-05
0.000141453
8.56641e-06
0.00012019
-9.44377e-06
7.1381e-05
-1.25356e-05
4.65438e-05
-1.50562e-05
3.74621e-05
-2.09287e-05
2.85037e-05
-2.70283e-05
1.06149e-05
-3.91399e-05
6.38783e-06
-6.27902e-05
2.11433e-05
-9.79504e-05
3.51239e-05
-0.000132311
3.30406e-05
-0.000167972
2.81928e-05
-0.000222117
2.62597e-05
-0.000284329
1.8641e-05
-0.000351673
9.19424e-06
-0.000387227
6.36971e-06
-0.000376062
-2.53648e-05
-0.000336676
-5.80882e-05
-0.000290049
-6.63703e-05
-0.00023451
-7.6803e-05
-0.000186946
-7.33402e-05
-0.000156043
-5.32313e-05
-4.04696e-05
-0.000134116
3.38076e-05
0.000107645
3.74648e-05
0.000116533
2.94645e-05
7.93813e-05
2.5464e-05
5.05443e-05
2.16151e-05
4.13111e-05
1.09491e-05
3.91697e-05
-5.438e-06
2.70021e-05
-1.84581e-05
1.9408e-05
-2.36262e-05
2.63113e-05
-3.06606e-05
4.21584e-05
-4.50223e-05
4.74024e-05
-5.88704e-05
4.2041e-05
-7.70225e-05
4.4412e-05
-0.000111728
5.33463e-05
-0.000165218
6.26841e-05
-0.000213462
5.46144e-05
-0.000268838
3.00109e-05
-0.000327685
7.59043e-07
-0.000361649
-3.24058e-05
-0.000364375
-7.40774e-05
-0.000344799
-9.29164e-05
-0.000307451
-9.05789e-05
-8.64062e-05
-0.000261514
1.66938e-05
9.09514e-05
3.62807e-05
9.69464e-05
3.80726e-05
7.75895e-05
3.06574e-05
5.79595e-05
2.23744e-05
4.95942e-05
1.44383e-05
4.71059e-05
1.28307e-06
4.01573e-05
-1.43596e-05
3.50507e-05
-2.34491e-05
3.54008e-05
-2.40457e-05
4.27552e-05
-2.81533e-05
5.15101e-05
-3.82833e-05
5.21712e-05
-4.41513e-05
5.02802e-05
-4.59018e-05
5.50969e-05
-5.30245e-05
6.98069e-05
-6.91038e-05
7.06938e-05
-9.95231e-05
6.04304e-05
-0.000147285
4.85209e-05
-0.000198277
1.85865e-05
-0.000240318
-3.20361e-05
-0.000256839
-7.63956e-05
-0.00024764
-9.97779e-05
-0.000101411
-0.000232636
4.51796e-06
8.64335e-05
2.23725e-05
7.90918e-05
2.74098e-05
7.25522e-05
2.27311e-05
6.26381e-05
1.56345e-05
5.66909e-05
9.18718e-06
5.35532e-05
-5.93988e-07
4.99384e-05
-1.29444e-05
4.7401e-05
-2.26619e-05
4.51184e-05
-2.66055e-05
4.66989e-05
-2.7367e-05
5.22717e-05
-3.03249e-05
5.51292e-05
-3.32609e-05
5.32164e-05
-3.23825e-05
5.42186e-05
-2.56902e-05
6.31147e-05
-2.33962e-05
6.83999e-05
-3.0212e-05
6.72463e-05
-4.32243e-05
6.15333e-05
-6.63183e-05
4.16805e-05
-0.000110932
1.2578e-05
-0.000169256
-1.80727e-05
-0.000214452
-5.45809e-05
-7.45954e-05
-0.000241268
1.35257e-06
8.50809e-05
1.14268e-05
6.90175e-05
1.53482e-05
6.86308e-05
1.35934e-05
6.43929e-05
9.58104e-06
6.07033e-05
4.90371e-06
5.82305e-05
-1.78509e-06
5.66272e-05
-9.56492e-06
5.51808e-05
-1.72042e-05
5.27577e-05
-2.23551e-05
5.18499e-05
-2.34955e-05
5.34123e-05
-2.31975e-05
5.48312e-05
-2.43471e-05
5.43661e-05
-2.5368e-05
5.52395e-05
-2.26969e-05
6.04436e-05
-1.88898e-05
6.4593e-05
-1.68179e-05
6.51745e-05
-1.66503e-05
6.13659e-05
-2.56569e-05
5.06873e-05
-4.95038e-05
3.64248e-05
-9.70035e-05
2.94269e-05
-0.000179024
2.74394e-05
-5.67272e-06
-0.000247947
1.17448e-06
8.39064e-05
5.92321e-06
6.42688e-05
8.27559e-06
6.62785e-05
7.83581e-06
6.48327e-05
5.89836e-06
6.26408e-05
3.18285e-06
6.0946e-05
-4.72712e-07
6.02827e-05
-4.8834e-06
5.95914e-05
-1.00413e-05
5.79157e-05
-1.44631e-05
5.62716e-05
-1.64542e-05
5.54035e-05
-1.66717e-05
5.50487e-05
-1.73862e-05
5.50805e-05
-1.85919e-05
5.64452e-05
-1.83166e-05
6.01684e-05
-1.66822e-05
6.29587e-05
-1.42903e-05
6.27827e-05
-1.24264e-05
5.95022e-05
-1.59779e-05
5.42389e-05
-2.79594e-05
4.84063e-05
-4.3331e-05
4.47985e-05
-9.94905e-05
8.35987e-05
7.44414e-05
-0.000179605
9.72507e-07
8.29339e-05
3.32032e-06
6.1921e-05
4.84137e-06
6.47574e-05
4.90253e-06
6.47716e-05
4.07133e-06
6.34719e-05
2.71345e-06
6.23038e-05
1.01926e-06
6.19768e-05
-1.15531e-06
6.17659e-05
-4.01713e-06
6.07774e-05
-6.91011e-06
5.91646e-05
-9.06007e-06
5.75534e-05
-1.05296e-05
5.65183e-05
-1.207e-05
5.66209e-05
-1.36011e-05
5.79763e-05
-1.40197e-05
6.05871e-05
-1.32851e-05
6.22241e-05
-1.16702e-05
6.11678e-05
-1.02807e-05
5.81127e-05
-1.10619e-05
5.502e-05
-1.35183e-05
5.08627e-05
-1.21409e-05
4.34208e-05
-1.9802e-05
9.12598e-05
0.000122009
-6.73698e-05
8.87638e-07
8.20462e-05
2.02751e-06
6.0781e-05
3.06715e-06
6.37178e-05
3.30572e-06
6.4533e-05
2.99497e-06
6.37826e-05
2.3324e-06
6.29663e-05
1.59012e-06
6.2719e-05
7.16367e-07
6.26395e-05
-5.94474e-07
6.20882e-05
-2.32094e-06
6.0891e-05
-4.31365e-06
5.95461e-05
-6.46314e-06
5.86678e-05
-8.62539e-06
5.87831e-05
-1.04507e-05
5.98016e-05
-1.12576e-05
6.13941e-05
-1.10908e-05
6.20575e-05
-1.047e-05
6.05471e-05
-1.00114e-05
5.76541e-05
-9.77221e-06
5.47808e-05
-7.82564e-06
4.89159e-05
-5.02172e-06
4.06169e-05
6.34087e-06
7.98972e-05
0.000141305
-1.29553e-05
9.9043e-07
8.10558e-05
1.45147e-06
6.03198e-05
2.09943e-06
6.30697e-05
2.32915e-06
6.43032e-05
2.19479e-06
6.39169e-05
1.8278e-06
6.33331e-05
1.44372e-06
6.31029e-05
1.06453e-06
6.30187e-05
4.19661e-07
6.27331e-05
-7.49157e-07
6.20598e-05
-2.4901e-06
6.1287e-05
-4.65976e-06
6.08373e-05
-6.89672e-06
6.102e-05
-8.76544e-06
6.16702e-05
-9.85878e-06
6.24874e-05
-1.03433e-05
6.2542e-05
-1.07024e-05
6.0906e-05
-1.09418e-05
5.78937e-05
-1.06937e-05
5.45327e-05
-1.06943e-05
4.89166e-05
-1.42538e-05
4.41762e-05
-1.46864e-05
8.03298e-05
0.000134144
-7.52527e-06
1.06778e-06
7.99879e-05
1.23502e-06
6.01524e-05
1.58217e-06
6.27224e-05
1.72827e-06
6.4157e-05
1.64576e-06
6.39994e-05
1.37851e-06
6.36003e-05
1.06013e-06
6.34212e-05
7.25285e-07
6.33534e-05
1.99684e-07
6.32586e-05
-7.59904e-07
6.30194e-05
-2.24523e-06
6.27723e-05
-4.14098e-06
6.2733e-05
-6.14656e-06
6.30254e-05
-7.96542e-06
6.34889e-05
-9.4113e-06
6.39333e-05
-1.07178e-05
6.38484e-05
-1.22027e-05
6.23909e-05
-1.36741e-05
5.93652e-05
-1.52691e-05
5.61278e-05
-1.98777e-05
5.35251e-05
-3.3487e-05
5.77855e-05
-4.47296e-05
9.15723e-05
0.000123206
-3.37916e-05
1.01748e-06
7.89703e-05
1.15691e-06
6.00128e-05
1.30711e-06
6.25721e-05
1.38309e-06
6.4081e-05
1.32269e-06
6.40597e-05
1.09896e-06
6.3824e-05
7.69599e-07
6.37505e-05
3.66807e-07
6.37562e-05
-1.91637e-07
6.3817e-05
-1.0638e-06
6.38916e-05
-2.32172e-06
6.40302e-05
-3.89667e-06
6.43078e-05
-5.63129e-06
6.47598e-05
-7.42926e-06
6.52868e-05
-9.29783e-06
6.58019e-05
-1.15045e-05
6.60549e-05
-1.44969e-05
6.53834e-05
-1.85296e-05
6.33978e-05
-2.40996e-05
6.16979e-05
-3.4276e-05
6.37015e-05
-5.31469e-05
7.66565e-05
-7.07143e-05
0.00010914
0.000129412
-7.69208e-05
9.13092e-07
7.80571e-05
1.09159e-06
5.9834e-05
1.15323e-06
6.25104e-05
1.20172e-06
6.40325e-05
1.17107e-06
6.40903e-05
9.95747e-07
6.39992e-05
6.98628e-07
6.40476e-05
2.86438e-07
6.41683e-05
-2.71344e-07
6.43748e-05
-1.04873e-06
6.46688e-05
-2.08827e-06
6.50696e-05
-3.37622e-06
6.55956e-05
-4.87884e-06
6.62622e-05
-6.63623e-06
6.70443e-05
-8.76309e-06
6.79289e-05
-1.15506e-05
6.88425e-05
-1.565e-05
6.94827e-05
-2.18517e-05
6.95997e-05
-3.06752e-05
7.05214e-05
-4.33702e-05
7.63964e-05
-6.10255e-05
9.43116e-05
-7.94799e-05
0.000127594
0.000141007
-9.10747e-05
8.07144e-07
7.72498e-05
1.02589e-06
5.96151e-05
1.0745e-06
6.24616e-05
1.13464e-06
6.39722e-05
1.14717e-06
6.40778e-05
1.0419e-06
6.41045e-05
8.25873e-07
6.42636e-05
4.8839e-07
6.45058e-05
1.56895e-08
6.48475e-05
-6.1995e-07
6.53044e-05
-1.44127e-06
6.5891e-05
-2.47399e-06
6.66283e-05
-3.74593e-06
6.7534e-05
-5.33968e-06
6.86381e-05
-7.39271e-06
6.99818e-05
-1.01648e-05
7.16147e-05
-1.42487e-05
7.35665e-05
-2.05089e-05
7.58599e-05
-2.92532e-05
7.92656e-05
-3.95603e-05
8.67035e-05
-4.89132e-05
0.000103664
-5.39105e-05
0.000132591
0.00014294
-5.58439e-05
7.34889e-07
7.65148e-05
9.70418e-07
5.93794e-05
1.04654e-06
6.23855e-05
1.15119e-06
6.38676e-05
1.21998e-06
6.40089e-05
1.19956e-06
6.41249e-05
1.09108e-06
6.43721e-05
8.79039e-07
6.47178e-05
5.55056e-07
6.51715e-05
1.02647e-07
6.57569e-05
-5.00821e-07
6.64945e-05
-1.2822e-06
6.74096e-05
-2.28333e-06
6.85351e-05
-3.57405e-06
6.99289e-05
-5.26072e-06
7.16687e-05
-7.51231e-06
7.38662e-05
-1.06455e-05
7.66995e-05
-1.51515e-05
8.03659e-05
-2.10983e-05
8.52123e-05
-2.68156e-05
9.24206e-05
-2.75038e-05
0.000104352
-1.76401e-05
0.000122727
0.000132658
-7.35806e-06
7.03261e-07
7.58114e-05
9.41853e-07
5.91407e-05
1.06805e-06
6.22592e-05
1.23454e-06
6.37011e-05
1.37194e-06
6.38716e-05
1.44437e-06
6.40526e-05
1.45165e-06
6.43649e-05
1.38298e-06
6.47864e-05
1.22977e-06
6.53246e-05
9.77848e-07
6.6009e-05
6.10259e-07
6.68623e-05
1.05787e-07
6.79141e-05
-5.78368e-07
6.92193e-05
-1.46663e-06
7.0817e-05
-2.62442e-06
7.28264e-05
-4.12112e-06
7.53626e-05
-6.02616e-06
7.86045e-05
-8.44551e-06
8.27851e-05
-1.12804e-05
8.8047e-05
-1.34094e-05
9.45495e-05
-1.14166e-05
0.00010236
-1.11631e-08
0.000111322
0.000116569
1.60787e-05
7.03109e-07
7.51082e-05
9.45077e-07
5.88986e-05
1.13217e-06
6.20721e-05
1.36833e-06
6.3465e-05
1.58122e-06
6.36589e-05
1.74802e-06
6.38859e-05
1.87169e-06
6.42414e-05
1.9487e-06
6.47095e-05
1.96575e-06
6.53075e-05
1.92075e-06
6.6054e-05
1.80629e-06
6.69769e-05
1.60193e-06
6.81184e-05
1.29965e-06
6.95216e-05
8.68507e-07
7.1248e-05
3.08576e-07
7.33863e-05
-3.89116e-07
7.60602e-05
-1.2235e-06
7.94387e-05
-2.09445e-06
8.36559e-05
-2.87265e-06
8.88251e-05
-3.17224e-06
9.48491e-05
-1.95787e-06
0.000101145
2.88094e-06
0.000106483
0.000108207
1.12422e-05
7.22834e-07
7.43853e-05
9.75389e-07
5.8646e-05
1.23038e-06
6.18172e-05
1.53999e-06
6.31554e-05
1.83491e-06
6.3364e-05
2.10173e-06
6.36192e-05
2.34362e-06
6.39994e-05
2.56192e-06
6.44913e-05
2.75667e-06
6.51128e-05
2.92629e-06
6.58845e-05
3.0591e-06
6.6844e-05
3.16457e-06
6.80129e-05
3.238e-06
6.94481e-05
3.27354e-06
7.12125e-05
3.2889e-06
7.33708e-05
3.30777e-06
7.60411e-05
3.38705e-06
7.93594e-05
3.59203e-06
8.34509e-05
4.00722e-06
8.84099e-05
4.63895e-06
9.42172e-05
5.2114e-06
0.000100573
4.88815e-06
0.000106806
0.000112419
6.76409e-07
7.54758e-07
7.36305e-05
1.02706e-06
5.83737e-05
1.35197e-06
6.14922e-05
1.73705e-06
6.27704e-05
2.1161e-06
6.2985e-05
2.48372e-06
6.32518e-05
2.84609e-06
6.3637e-05
3.20643e-06
6.41309e-05
3.57113e-06
6.47481e-05
3.94428e-06
6.55115e-05
4.3352e-06
6.64531e-05
4.74079e-06
6.76073e-05
5.17903e-06
6.90097e-05
5.67237e-06
7.07191e-05
6.24265e-06
7.28004e-05
6.93387e-06
7.53498e-05
7.80218e-06
7.8491e-05
8.9094e-06
8.23436e-05
1.02979e-05
8.70212e-05
1.18797e-05
9.26353e-05
1.31301e-05
9.93222e-05
1.25207e-05
0.000107416
0.000118301
6.63816e-06
7.94869e-07
7.28357e-05
1.09331e-06
5.80753e-05
1.48694e-06
6.10985e-05
1.94598e-06
6.23114e-05
2.40895e-06
6.2522e-05
2.87492e-06
6.27857e-05
3.35331e-06
6.31588e-05
3.85238e-06
6.36318e-05
4.3816e-06
6.42188e-05
4.95079e-06
6.49423e-05
5.57383e-06
6.583e-05
6.26871e-06
6.69123e-05
7.05469e-06
6.82237e-05
7.96488e-06
6.98088e-05
9.039e-06
7.17262e-05
1.03348e-05
7.4054e-05
1.19346e-05
7.68911e-05
1.39209e-05
8.03572e-05
1.63739e-05
8.45681e-05
1.93555e-05
8.96537e-05
2.27961e-05
9.58815e-05
2.64414e-05
0.00010377
0.000114596
3.01468e-05
8.39241e-07
7.19964e-05
1.16801e-06
5.77464e-05
1.62725e-06
6.06391e-05
2.1558e-06
6.17826e-05
2.69992e-06
6.19779e-05
3.25924e-06
6.22263e-05
3.84763e-06
6.25705e-05
4.47559e-06
6.30038e-05
5.15658e-06
6.35379e-05
5.90628e-06
6.41926e-05
6.74485e-06
6.49914e-05
7.69589e-06
6.59613e-05
8.79017e-06
6.71293e-05
1.00658e-05
6.85331e-05
1.15789e-05
7.0213e-05
1.34041e-05
7.22288e-05
1.56423e-05
7.46529e-05
1.84239e-05
7.75756e-05
2.19148e-05
8.10772e-05
2.63451e-05
8.52234e-05
3.21318e-05
9.00947e-05
4.01029e-05
9.57992e-05
0.00010253
5.21685e-05
8.83222e-07
7.11131e-05
1.24635e-06
5.73831e-05
1.76742e-06
6.0118e-05
2.3628e-06
6.1187e-05
2.97899e-06
6.13618e-05
3.62406e-06
6.15812e-05
4.3105e-06
6.18842e-05
5.05348e-06
6.22609e-05
5.86957e-06
6.2722e-05
6.77887e-06
6.32834e-05
7.80414e-06
6.39661e-05
8.97414e-06
6.47913e-05
1.0326e-05
6.57774e-05
1.19085e-05
6.69507e-05
1.37819e-05
6.83394e-05
1.6034e-05
6.99767e-05
1.87753e-05
7.19116e-05
2.21577e-05
7.41933e-05
2.63951e-05
7.68399e-05
3.17838e-05
7.98346e-05
3.87975e-05
8.30809e-05
4.8232e-05
8.63647e-05
8.93391e-05
6.14231e-05
9.2314e-07
7.01899e-05
1.32635e-06
5.69797e-05
1.90443e-06
5.95398e-05
2.55674e-06
6.05346e-05
3.23673e-06
6.06817e-05
3.95518e-06
6.08628e-05
4.72709e-06
6.11123e-05
5.56984e-06
6.14181e-05
6.50114e-06
6.17908e-05
7.54198e-06
6.22426e-05
8.72043e-06
6.27877e-05
1.00702e-05
6.34416e-05
1.16287e-05
6.42189e-05
1.34441e-05
6.51353e-05
1.55875e-05
6.6196e-05
1.81385e-05
6.74256e-05
2.1218e-05
6.88322e-05
2.49732e-05
7.04381e-05
2.95965e-05
7.22166e-05
3.53382e-05
7.40929e-05
4.25314e-05
7.58877e-05
5.16076e-05
7.72885e-05
7.78246e-05
6.3122e-05
9.58484e-07
6.92313e-05
1.40455e-06
5.65337e-05
2.03686e-06
5.89073e-05
2.73526e-06
5.98363e-05
3.47012e-06
5.99468e-05
4.25013e-06
6.00828e-05
5.0923e-06
6.02701e-05
6.01348e-06
6.0497e-05
7.03441e-06
6.07699e-05
8.17818e-06
6.10989e-05
9.47328e-06
6.14927e-05
1.09526e-05
6.19623e-05
1.26583e-05
6.25132e-05
1.46414e-05
6.31522e-05
1.69605e-05
6.38769e-05
1.97015e-05
6.46846e-05
2.29628e-05
6.5571e-05
2.6877e-05
6.6524e-05
3.15966e-05
6.7497e-05
3.73011e-05
6.83885e-05
4.41907e-05
6.89981e-05
5.24651e-05
6.90141e-05
6.79963e-05
6.22934e-05
9.91896e-07
6.82394e-05
1.47923e-06
5.60464e-05
2.15981e-06
5.82267e-05
2.89828e-06
5.90979e-05
3.67647e-06
5.91685e-05
4.50362e-06
5.92557e-05
5.39911e-06
5.93745e-05
6.37886e-06
5.95172e-05
7.46419e-06
5.96847e-05
8.6795e-06
5.98836e-05
1.00529e-05
6.01194e-05
1.1619e-05
6.03964e-05
1.34153e-05
6.0717e-05
1.54919e-05
6.10756e-05
1.79059e-05
6.14629e-05
2.07274e-05
6.18631e-05
2.40419e-05
6.22566e-05
2.79543e-05
6.26118e-05
3.25758e-05
6.28756e-05
3.80252e-05
6.29392e-05
4.44096e-05
6.26138e-05
5.18009e-05
6.1623e-05
5.96139e-05
6.01834e-05
1.02765e-06
6.72118e-05
1.54888e-06
5.55253e-05
2.27119e-06
5.75044e-05
3.03896e-06
5.83303e-05
3.85011e-06
5.83574e-05
4.7119e-06
5.8394e-05
5.64414e-06
5.84422e-05
6.6632e-06
5.84982e-05
7.7894e-06
5.85586e-05
9.04619e-06
5.86268e-05
1.04621e-05
5.87036e-05
1.20693e-05
5.87893e-05
1.3906e-05
5.88802e-05
1.60155e-05
5.89661e-05
1.84466e-05
5.90318e-05
2.12598e-05
5.90501e-05
2.45217e-05
5.89949e-05
2.83114e-05
5.88221e-05
3.27076e-05
5.84796e-05
3.77812e-05
5.78657e-05
4.35772e-05
5.68179e-05
5.00958e-05
5.51043e-05
5.24592e-05
5.72505e-05
1.07081e-06
6.61411e-05
1.61143e-06
5.49849e-05
2.36369e-06
5.67522e-05
3.15258e-06
5.75415e-05
3.98629e-06
5.75237e-05
4.87092e-06
5.75094e-05
5.82657e-06
5.74864e-05
6.86775e-06
5.74571e-05
8.0138e-06
5.74126e-05
9.28745e-06
5.73532e-05
1.07147e-05
5.72764e-05
1.23261e-05
5.71778e-05
1.41563e-05
5.70501e-05
1.62428e-05
5.68796e-05
1.86296e-05
5.66451e-05
2.13615e-05
5.63183e-05
2.4492e-05
5.58646e-05
2.80754e-05
5.52388e-05
3.21679e-05
5.43872e-05
3.68058e-05
5.32279e-05
4.20009e-05
5.16228e-05
4.77225e-05
4.93828e-05
4.63055e-05
5.38763e-05
1.12342e-06
6.50178e-05
1.66471e-06
5.44437e-05
2.4308e-06
5.59863e-05
3.23126e-06
5.67411e-05
4.0773e-06
5.66778e-05
4.97436e-06
5.66124e-05
5.94056e-06
5.65202e-05
6.98978e-06
5.6408e-05
8.13967e-06
5.62627e-05
9.41087e-06
5.60819e-05
1.0827e-05
5.58603e-05
1.24146e-05
5.55903e-05
1.42035e-05
5.52613e-05
1.62267e-05
5.48564e-05
1.85196e-05
5.43522e-05
2.11188e-05
5.37194e-05
2.4064e-05
5.29195e-05
2.73922e-05
5.19107e-05
3.11388e-05
5.06408e-05
3.53236e-05
4.90432e-05
3.99422e-05
4.70043e-05
4.49568e-05
4.43684e-05
4.09738e-05
5.02885e-05
1.18199e-06
6.38359e-05
1.70504e-06
5.39207e-05
2.46511e-06
5.52263e-05
3.26576e-06
5.59405e-05
4.11275e-06
5.5831e-05
5.00972e-06
5.57155e-05
5.9747e-06
5.55553e-05
7.01983e-06
5.53629e-05
8.16045e-06
5.51221e-05
9.41512e-06
5.48272e-05
1.08035e-05
5.44719e-05
1.23489e-05
5.4045e-05
1.40762e-05
5.3534e-05
1.60125e-05
5.29202e-05
1.81862e-05
5.21787e-05
2.06247e-05
5.12809e-05
2.33576e-05
5.01866e-05
2.64101e-05
4.88582e-05
2.98034e-05
4.72475e-05
3.35493e-05
4.52973e-05
3.76376e-05
4.2916e-05
4.20324e-05
3.99737e-05
3.63292e-05
4.66771e-05
1.24091e-06
6.25951e-05
1.72694e-06
5.34347e-05
2.45806e-06
5.44953e-05
3.24509e-06
5.51535e-05
4.07868e-06
5.49975e-05
4.9613e-06
5.48329e-05
5.91082e-06
5.46058e-05
6.93732e-06
5.43364e-05
8.05548e-06
5.40039e-05
9.28109e-06
5.36015e-05
1.06304e-05
5.31226e-05
1.21223e-05
5.25531e-05
1.37762e-05
5.18801e-05
1.56154e-05
5.10811e-05
1.766e-05
5.01341e-05
1.99329e-05
4.90081e-05
2.24529e-05
4.76665e-05
2.52373e-05
4.60738e-05
2.83e-05
4.41848e-05
3.16474e-05
4.19499e-05
3.52704e-05
3.92931e-05
3.91401e-05
3.61042e-05
3.22567e-05
4.32127e-05
1.29501e-06
6.13002e-05
1.72419e-06
5.30055e-05
2.40166e-06
5.38179e-05
3.15766e-06
5.43975e-05
3.9592e-06
5.4196e-05
4.80884e-06
5.39833e-05
5.72381e-06
5.36909e-05
6.71329e-06
5.33469e-05
7.79156e-06
5.29255e-05
8.97085e-06
5.24221e-05
1.02657e-05
5.18278e-05
1.1691e-05
5.11277e-05
1.32624e-05
5.03086e-05
1.49966e-05
4.9347e-05
1.69104e-05
4.82203e-05
1.90197e-05
4.68986e-05
2.13386e-05
4.53476e-05
2.38785e-05
4.35339e-05
2.66472e-05
4.14163e-05
2.96509e-05
3.89463e-05
3.2883e-05
3.60611e-05
3.632e-05
3.26674e-05
2.86514e-05
3.99253e-05
1.33877e-06
5.99614e-05
1.69146e-06
5.26528e-05
2.28968e-06
5.32197e-05
2.99388e-06
5.36932e-05
3.7412e-06
5.34487e-05
4.5346e-06
5.319e-05
5.39144e-06
5.28341e-05
6.31998e-06
5.24183e-05
7.33372e-06
5.19117e-05
8.44268e-06
5.13131e-05
9.65949e-06
5.06109e-05
1.09962e-05
4.97909e-05
1.24657e-05
4.8839e-05
1.408e-05
4.77327e-05
1.58516e-05
4.64486e-05
1.77935e-05
4.49566e-05
1.99139e-05
4.32273e-05
2.22221e-05
4.12258e-05
2.47231e-05
3.89153e-05
2.74214e-05
3.62481e-05
3.03135e-05
3.31689e-05
3.33801e-05
2.96007e-05
2.54456e-05
3.65858e-05
1.36137e-06
5.85999e-05
1.62504e-06
5.2389e-05
2.12201e-06
5.27228e-05
2.752e-06
5.3063e-05
3.42009e-06
5.27806e-05
4.13329e-06
5.24768e-05
4.90657e-06
5.20608e-05
5.7474e-06
5.15774e-05
6.66773e-06
5.09913e-05
7.6771e-06
5.03036e-05
8.78575e-06
4.95022e-05
1.00028e-05
4.85739e-05
1.13387e-05
4.75032e-05
1.28025e-05
4.6269e-05
1.44046e-05
4.48465e-05
1.61538e-05
4.32074e-05
1.80567e-05
4.13243e-05
2.01184e-05
3.91641e-05
2.23434e-05
3.66902e-05
2.4733e-05
3.38584e-05
2.72843e-05
3.06175e-05
2.99784e-05
2.69065e-05
2.26425e-05
3.27814e-05
1.35228e-06
5.72476e-05
1.52236e-06
5.22189e-05
1.90387e-06
5.23412e-05
2.44135e-06
5.25254e-05
3.00727e-06
5.22146e-05
3.62048e-06
5.18637e-05
4.28708e-06
5.13942e-05
5.01598e-06
5.08485e-05
5.81723e-06
5.01899e-05
6.69781e-06
4.94229e-05
7.66592e-06
4.8534e-05
8.72912e-06
4.75106e-05
9.89497e-06
4.63373e-05
1.1171e-05
4.49929e-05
1.25654e-05
4.3452e-05
1.40835e-05
4.16891e-05
1.57298e-05
3.96777e-05
1.75071e-05
3.73867e-05
1.94164e-05
3.47809e-05
2.14557e-05
3.18191e-05
2.36177e-05
2.84554e-05
2.58815e-05
2.46426e-05
2.03122e-05
2.82117e-05
1.30293e-06
5.59446e-05
1.38651e-06
5.21353e-05
1.64734e-06
5.20802e-05
2.08058e-06
5.20922e-05
2.53007e-06
5.17651e-05
3.03168e-06
5.1362e-05
3.57693e-06
5.08489e-05
4.17857e-06
5.02467e-05
4.84153e-06
4.95268e-05
5.57197e-06
4.86923e-05
6.37556e-06
4.77303e-05