/*--------------------------------*- C++ -*----------------------------------*\
| =========                 |                                                 |
| \\      /  F ield         | OpenFOAM: The Open Source CFD Toolbox           |
|  \\    /   O peration     | Version:  2206                                  |
|   \\  /    A nd           | Website:  www.openfoam.com                      |
|    \\/     M anipulation  |                                                 |
\*---------------------------------------------------------------------------*/
FoamFile
{
    version     2.0;
    format      ascii;
    arch        "LSB;label=32;scalar=64";
    class       volVectorField;
    location    "0.7";
    object      U;
}
// * * * * * * * * * * * * * * * * * * * * * * * * * * * * * * * * * * * * * //

dimensions      [0 1 -1 0 0 0 0];

internalField   nonuniform List<vector> 
2268
(
(-0.0219303 0.00998414 0)
(-0.0700394 0.0115834 0)
(-0.11052 0.00813079 0)
(-0.135899 0.00542536 0)
(-0.154202 0.00248613 0)
(-0.154546 -0.00195107 0)
(-0.134594 -0.00611533 0)
(-0.102999 -0.00705417 0)
(-0.0757433 -0.00467795 0)
(-0.0619267 -0.00122467 0)
(-0.0616975 0.00209867 0)
(-0.0735329 0.00457202 0)
(-0.0923313 0.00616386 0)
(-0.115277 0.00763615 0)
(-0.143422 0.00888874 0)
(-0.176758 0.00588015 0)
(-0.200121 -0.000654834 0)
(-0.214108 0.00467144 0)
(-0.270991 0.0207931 0)
(-0.358415 0.0181244 0)
(-0.353067 -0.0108204 0)
(-0.228253 -0.043589 0)
(-0.0787294 -0.0457448 0)
(-0.0353367 0.0338715 0)
(-0.0832178 0.0313973 0)
(-0.113974 0.0209755 0)
(-0.137178 0.0153766 0)
(-0.156706 0.00806579 0)
(-0.159895 -0.00532205 0)
(-0.140822 -0.0191521 0)
(-0.106863 -0.0227562 0)
(-0.0765148 -0.0153856 0)
(-0.0609161 -0.00498214 0)
(-0.0591743 0.00349384 0)
(-0.0651687 0.0095441 0)
(-0.0762623 0.013586 0)
(-0.0911173 0.0171321 0)
(-0.111233 0.0217392 0)
(-0.141595 0.0239556 0)
(-0.184317 0.0219774 0)
(-0.241622 0.029148 0)
(-0.309662 0.0398522 0)
(-0.333632 0.0181656 0)
(-0.263399 -0.0427815 0)
(-0.166753 -0.106744 0)
(-0.0550386 -0.115928 0)
(-0.032731 0.0589092 0)
(-0.0666334 0.0488745 0)
(-0.0960662 0.0330229 0)
(-0.125671 0.0271668 0)
(-0.153484 0.0161038 0)
(-0.160892 -0.00782628 0)
(-0.143795 -0.0333889 0)
(-0.112641 -0.0402845 0)
(-0.0825131 -0.0272235 0)
(-0.0659204 -0.00902559 0)
(-0.064394 0.00437304 0)
(-0.0709661 0.0127984 0)
(-0.0797661 0.0179774 0)
(-0.0876117 0.0223605 0)
(-0.0933682 0.0286304 0)
(-0.0997525 0.0362471 0)
(-0.114899 0.0440738 0)
(-0.143405 0.0529255 0)
(-0.179515 0.0487124 0)
(-0.183047 0.00427212 0)
(-0.133494 -0.0716212 0)
(-0.0774656 -0.139958 0)
(-0.0165581 -0.15415 0)
(-0.0237807 0.0783027 0)
(-0.0431425 0.0640825 0)
(-0.0711811 0.0458738 0)
(-0.100878 0.0407165 0)
(-0.126425 0.0255284 0)
(-0.129711 -0.00926645 0)
(-0.11698 -0.0452846 0)
(-0.1014 -0.0547289 0)
(-0.0848882 -0.0375554 0)
(-0.0732308 -0.0126289 0)
(-0.0727552 0.00604899 0)
(-0.0805363 0.0167183 0)
(-0.0903194 0.0219045 0)
(-0.0976698 0.024934 0)
(-0.100252 0.0292478 0)
(-0.0963377 0.036229 0)
(-0.0859061 0.0468563 0)
(-0.0706001 0.0580432 0)
(-0.0559857 0.0511886 0)
(-0.0306345 0.0034002 0)
(-0.00454573 -0.0741396 0)
(-0.00289453 -0.146236 0)
(0.0162038 -0.158699 0)
(-0.0114802 0.0904924 0)
(-0.0122934 0.0738779 0)
(-0.0313141 0.0582319 0)
(-0.0504913 0.0525527 0)
(-0.0613242 0.032542 0)
(-0.0531745 -0.00941534 0)
(-0.0491231 -0.047641 0)
(-0.0613295 -0.056929 0)
(-0.0740775 -0.0394245 0)
(-0.0791218 -0.0130377 0)
(-0.083394 0.00858233 0)
(-0.0916485 0.0210774 0)
(-0.101043 0.0261194 0)
(-0.107403 0.0272976 0)
(-0.10929 0.0287173 0)
(-0.105273 0.0313886 0)
(-0.0905414 0.0365374 0)
(-0.0586691 0.0423611 0)
(-0.0177521 0.0326821 0)
(0.0262113 -0.011247 0)
(0.0490784 -0.0759313 0)
(0.0244992 -0.144935 0)
(0.0337461 -0.14572 0)
(0.0029477 0.089351 0)
(0.0244646 0.0744765 0)
(0.0259262 0.0593779 0)
(0.0236281 0.0514601 0)
(0.035377 0.0274482 0)
(0.0543499 -0.0105391 0)
(0.0425218 -0.0388518 0)
(-0.00307144 -0.0437915 0)
(-0.0504815 -0.0283536 0)
(-0.0797465 -0.0062586 0)
(-0.0943403 0.0131514 0)
(-0.104314 0.0249751 0)
(-0.112602 0.0288812 0)
(-0.116625 0.0282593 0)
(-0.116176 0.0278264 0)
(-0.111928 0.0273267 0)
(-0.100398 0.0261264 0)
(-0.0748808 0.0227731 0)
(-0.0365166 0.0068559 0)
(0.00175076 -0.0307461 0)
(0.031425 -0.080127 0)
(0.00906797 -0.143637 0)
(0.0345884 -0.134227 0)
(0.014879 0.0796989 0)
(0.0546587 0.0740903 0)
(0.0877042 0.0634897 0)
(0.12017 0.0524884 0)
(0.155403 0.027335 0)
(0.165958 -0.00258983 0)
(0.121513 -0.0193429 0)
(0.042151 -0.0195605 0)
(-0.0283044 -0.00668748 0)
(-0.0756063 0.00719714 0)
(-0.103302 0.021059 0)
(-0.117745 0.0307478 0)
(-0.125358 0.0329575 0)
(-0.126225 0.029624 0)
(-0.122289 0.0267457 0)
(-0.116235 0.0235594 0)
(-0.105825 0.0183281 0)
(-0.0870727 0.00938424 0)
(-0.0608431 -0.00974039 0)
(-0.0380784 -0.0442267 0)
(-0.0101066 -0.0860594 0)
(-0.0172408 -0.150137 0)
(0.00683252 -0.138305 0)
(0.0218191 0.0459956 0)
(0.104792 0.0353015 0)
(0.177206 0.0214908 0)
(0.228213 0.0123029 0)
(0.247362 0.00460363 0)
(0.214848 0.00628379 0)
(0.1302 0.0174741 0)
(0.0365648 0.0246995 0)
(-0.0286232 0.0297425 0)
(-0.0718227 0.030628 0)
(-0.104542 0.0330439 0)
(-0.126552 0.0340598 0)
(-0.137592 0.0308817 0)
(-0.137399 0.02512 0)
(-0.130415 0.0227238 0)
(-0.122083 0.0201562 0)
(-0.110769 0.0137566 0)
(-0.0938345 0.00200293 0)
(-0.0739377 -0.0177066 0)
(-0.0613299 -0.0501934 0)
(-0.0477751 -0.0887742 0)
(-0.0502419 -0.153521 0)
(-0.0704302 -0.155495 0)
(0.220214 -0.239274 0)
(0.580647 0.150999 0)
(0.207938 0.0026199 0)
(-0.206181 0.171857 0)
(-0.975177 0.255132 0)
(-1.55154 0.172579 0)
(-1.82969 0.0667665 0)
(-1.89467 0.0136891 0)
(-1.86523 -0.00703855 0)
(-1.82248 -0.0153825 0)
(-1.75599 -0.0247125 0)
(-1.63949 -0.0401557 0)
(-1.45185 -0.054754 0)
(-1.23904 -0.0453467 0)
(-1.05211 -0.0286249 0)
(-0.858888 -0.0403979 0)
(-0.61751 -0.0838219 0)
(-0.305114 -0.0952546 0)
(0.166173 0.0163412 0)
(-0.12278 -0.516596 0)
(0.467582 0.0330849 0)
(-0.395618 0.377128 0)
(-1.19382 0.501458 0)
(-1.91808 0.415492 0)
(-2.14725 0.192068 0)
(-2.07527 0.0505569 0)
(-1.96414 -0.0173297 0)
(-1.89098 -0.0476835 0)
(-1.80777 -0.0602928 0)
(-1.70982 -0.074637 0)
(-1.54682 -0.107768 0)
(-1.32954 -0.163297 0)
(-1.21579 -0.170504 0)
(-1.12676 -0.171663 0)
(-1.0246 -0.210261 0)
(-0.84175 -0.270332 0)
(-0.546354 -0.26031 0)
(-0.158306 -0.0909769 0)
(-0.2998 -0.395065 0)
(-0.306759 0.459456 0)
(-1.1021 0.738268 0)
(-1.8232 0.780532 0)
(-2.2473 0.586785 0)
(-2.28188 0.282948 0)
(-2.24244 0.0564471 0)
(-2.03304 -0.057019 0)
(-1.73218 -0.0934099 0)
(-1.4642 -0.114088 0)
(-1.13079 -0.123673 0)
(-0.480173 -0.196938 0)
(0.00625438 -0.274461 0)
(-0.0569321 -0.0954471 0)
(-0.225315 -0.0258823 0)
(-0.464453 -0.18595 0)
(-0.740224 -0.380104 0)
(-0.610685 -0.501768 0)
(-0.233026 -0.345834 0)
(-0.512992 -0.149536 0)
(-0.882857 0.760851 0)
(-1.56457 1.05884 0)
(-2.0976 1.05069 0)
(-2.33135 0.806593 0)
(-2.43428 0.38883 0)
(-2.16955 -0.0613697 0)
(-1.62952 -0.286974 0)
(-1.17406 -0.345476 0)
(-0.759408 -0.378203 0)
(-0.309043 -0.424782 0)
(0.530816 -0.598808 0)
(0.758858 -0.493274 0)
(0.810043 -0.279277 0)
(0.896564 -0.0363561 0)
(1.11752 0.204794 0)
(0.113812 -0.00599316 0)
(-0.431842 -0.538166 0)
(-0.182481 -0.607008 0)
(-0.61166 0.227627 0)
(-1.18081 1.04567 0)
(-1.7935 1.32947 0)
(-2.14351 1.26355 0)
(-2.27518 0.910648 0)
(-1.93138 0.165189 0)
(-1.19853 -0.407648 0)
(-0.728702 -0.589204 0)
(-0.179287 -0.650258 0)
(0.294818 -0.609181 0)
(0.735479 -0.663281 0)
(1.07336 -0.711819 0)
(1.05998 -0.501252 0)
(0.979328 -0.234544 0)
(0.910993 -0.104641 0)
(1.00258 0.101599 0)
(0.919721 0.376545 0)
(-0.0130002 -0.256814 0)
(-0.115705 -0.766405 0)
(-0.605057 0.648124 0)
(-1.25366 1.34091 0)
(-1.76971 1.55328 0)
(-1.95627 1.41745 0)
(-1.82658 0.739394 0)
(-0.95635 -0.189019 0)
(-0.447033 -0.671375 0)
(0.0109601 -0.86303 0)
(0.456206 -0.935225 0)
(0.837952 -0.879089 0)
(1.17874 -0.843366 0)
(1.24951 -0.724939 0)
(1.12794 -0.45625 0)
(1.01663 -0.179666 0)
(0.946565 -0.0314571 0)
(0.913455 0.116823 0)
(1.06197 0.457022 0)
(0.519936 0.29818 0)
(-0.0613443 -0.726645 0)
(-0.544716 1.06842 0)
(-1.17673 1.62855 0)
(-1.53418 1.7363 0)
(-1.57183 1.38457 0)
(-1.11242 0.372853 0)
(-0.07752 -0.570252 0)
(0.237307 -0.90279 0)
(0.597199 -1.08572 0)
(0.889421 -1.14123 0)
(1.1056 -1.0427 0)
(1.22264 -0.889408 0)
(1.18235 -0.689148 0)
(1.03548 -0.409185 0)
(0.934392 -0.154284 0)
(0.9099 -0.0028767 0)
(0.871536 0.106239 0)
(0.962734 0.428171 0)
(0.673426 0.526373 0)
(-0.0413113 -0.553641 0)
(-0.458189 1.43535 0)
(-0.986953 1.87916 0)
(-1.1574 1.86686 0)
(-0.969311 1.19314 0)
(-0.00428981 -0.0975574 0)
(0.459985 -0.910206 0)
(0.706469 -1.11447 0)
(0.892488 -1.20321 0)
(0.959724 -1.2034 0)
(1.05318 -1.09395 0)
(1.08244 -0.881382 0)
(1.02963 -0.605852 0)
(0.871542 -0.324399 0)
(0.812326 -0.143899 0)
(0.833974 0.012388 0)
(0.818672 0.127433 0)
(0.870947 0.462973 0)
(0.702642 0.789611 0)
(-0.0681858 -0.368655 0)
(0.0389673 -0.00709153 0)
(0.062672 -0.0277002 0)
(0.0430148 -0.00568674 0)
(0.005968 0.0254034 0)
(-0.0236441 0.0521803 0)
(-0.0425289 0.0709947 0)
(-0.0594462 0.0659048 0)
(-0.0728825 0.0491127 0)
(-0.0835744 0.042387 0)
(-0.0941954 0.044456 0)
(-0.109448 0.053641 0)
(-0.128667 0.0563563 0)
(-0.143175 0.0461707 0)
(-0.141134 0.0272924 0)
(-0.132079 0.0174538 0)
(-0.126047 0.00862741 0)
(-0.118836 -0.000847616 0)
(-0.106431 -0.0139352 0)
(-0.0913958 -0.0298599 0)
(-0.0826764 -0.0538449 0)
(-0.0828438 -0.0848209 0)
(-0.106304 -0.128755 0)
(-0.183852 -0.104946 0)
(-0.653772 0.09166 0)
(-0.66981 0.080319 0)
(-0.57613 0.0790378 0)
(-0.453777 0.0547019 0)
(-0.369406 0.0329247 0)
(-0.337118 0.033659 0)
(-0.333008 0.0475529 0)
(-0.308744 0.0534156 0)
(-0.26403 0.0492479 0)
(-0.215004 0.0476335 0)
(-0.174597 0.0543543 0)
(-0.148891 0.0566309 0)
(-0.130179 0.0396881 0)
(-0.111174 0.0145774 0)
(-0.107596 0.0129651 0)
(-0.114646 0.0127674 0)
(-0.121136 -0.00010652 0)
(-0.107741 -0.0257327 0)
(-0.0930802 -0.0430618 0)
(-0.0889878 -0.0585471 0)
(-0.0918905 -0.0740026 0)
(-0.111903 -0.0924745 0)
(-0.139481 -0.0802868 0)
(-0.372056 0.726841 0)
(-0.389731 0.134573 0)
(-0.585622 -0.204049 0)
(-0.843637 -0.120205 0)
(-1.03374 -0.0313154 0)
(-1.12537 0.025073 0)
(-1.07044 0.0141949 0)
(-0.924377 -0.0226067 0)
(-0.769501 -0.0509459 0)
(-0.613064 -0.0353712 0)
(-0.475723 0.00123255 0)
(-0.391875 0.0145988 0)
(-0.342184 0.00862833 0)
(-0.28064 0.00796046 0)
(-0.18922 0.0186412 0)
(-0.130162 0.0200803 0)
(-0.0979611 0.000556502 0)
(-0.0692316 -0.0329316 0)
(-0.0643751 -0.0397492 0)
(-0.0756014 -0.0431324 0)
(-0.0785238 -0.0557132 0)
(-0.0779802 -0.0766833 0)
(-0.0895665 -0.0793001 0)
(-0.0584826 1.04748 0)
(-0.109211 0.467782 0)
(-0.291708 0.304211 0)
(-0.503049 0.283751 0)
(-0.594214 0.190256 0)
(-0.663068 0.0696607 0)
(-0.67917 -0.060241 0)
(-0.747477 -0.180169 0)
(-0.900792 -0.228862 0)
(-1.05949 -0.205276 0)
(-1.16673 -0.138801 0)
(-1.22609 -0.0952621 0)
(-1.1935 -0.129842 0)
(-1.0177 -0.175081 0)
(-0.741308 -0.152096 0)
(-0.572742 -0.0830431 0)
(-0.518812 -0.0617032 0)
(-0.482605 -0.0541718 0)
(-0.408992 -0.0403426 0)
(-0.343797 -0.0444092 0)
(-0.291889 -0.0770148 0)
(-0.210931 -0.0880753 0)
(-0.179873 -0.079546 0)
(0.137106 0.919928 0)
(0.130515 0.672349 0)
(-0.00551348 0.352028 0)
(-0.088957 0.235997 0)
(-0.0619775 0.212099 0)
(-0.11652 0.167722 0)
(-0.122109 0.0770824 0)
(-0.147806 0.0849524 0)
(-0.24317 0.182835 0)
(-0.434409 0.193039 0)
(-0.633061 0.109181 0)
(-0.787064 0.0338407 0)
(-1.00487 -0.0813402 0)
(-1.33329 -0.223342 0)
(-1.74813 -0.311391 0)
(-2.05058 -0.145899 0)
(-2.08962 -0.141682 0)
(-1.96605 -0.223063 0)
(-1.69237 -0.236905 0)
(-1.34864 -0.226351 0)
(-1.10743 -0.201605 0)
(-0.906916 -0.124142 0)
(-0.757302 -0.0952988 0)
(0.120438 0.641903 0)
(0.218689 0.665652 0)
(0.17876 0.416442 0)
(0.143944 0.251936 0)
(0.130123 0.201856 0)
(0.0875707 0.181534 0)
(0.0257859 0.0805747 0)
(-0.0755399 0.0135651 0)
(-0.119549 0.0780565 0)
(-0.132338 0.205684 0)
(-0.205526 0.237301 0)
(-0.273704 0.222423 0)
(-0.350309 0.290055 0)
(-0.467809 0.36054 0)
(-0.737691 0.323275 0)
(-1.03122 0.158984 0)
(-1.26892 -0.0781676 0)
(-1.6335 -0.307607 0)
(-1.88698 -0.428211 0)
(-1.97934 -0.560141 0)
(-1.94874 -0.55865 0)
(-1.75304 -0.448924 0)
(-1.50636 -0.37102 0)
(0.0157424 0.504153 0)
(0.167907 0.570645 0)
(0.20784 0.429872 0)
(0.197215 0.303034 0)
(0.135813 0.248392 0)
(0.0999725 0.228856 0)
(0.0538149 0.179522 0)
(-0.0375693 0.160743 0)
(-0.116172 0.176279 0)
(-0.130749 0.227604 0)
(-0.125772 0.272005 0)
(-0.17858 0.256774 0)
(-0.226902 0.239892 0)
(-0.230582 0.2799 0)
(-0.254352 0.389802 0)
(-0.323909 0.39755 0)
(-0.425444 0.341357 0)
(-0.662138 0.269122 0)
(-0.931525 0.0363281 0)
(-1.19132 -0.322382 0)
(-1.38907 -0.528597 0)
(-1.38153 -0.587706 0)
(-1.21715 -0.594279 0)
(-0.0298799 0.474976 0)
(0.0843946 0.462983 0)
(0.145972 0.402116 0)
(0.148087 0.327249 0)
(0.0959471 0.288217 0)
(0.0675241 0.272127 0)
(0.0305598 0.247201 0)
(-0.0346164 0.230677 0)
(-0.101941 0.2211 0)
(-0.142446 0.240723 0)
(-0.139753 0.28039 0)
(-0.152767 0.296556 0)
(-0.172455 0.283631 0)
(-0.178652 0.292146 0)
(-0.15957 0.352688 0)
(-0.126066 0.388757 0)
(-0.12856 0.374922 0)
(-0.192847 0.34381 0)
(-0.302206 0.239094 0)
(-0.425619 0.0377396 0)
(-0.734325 -0.223942 0)
(-1.08592 -0.454139 0)
(-1.24414 -0.497185 0)
(-0.0201434 0.463594 0)
(0.0375663 0.39068 0)
(0.0797495 0.377042 0)
(0.0851955 0.341904 0)
(0.0593998 0.317243 0)
(0.0408579 0.302327 0)
(0.0118573 0.289555 0)
(-0.0286216 0.277483 0)
(-0.0728512 0.262304 0)
(-0.111901 0.263247 0)
(-0.126714 0.28349 0)
(-0.124962 0.298853 0)
(-0.123581 0.295425 0)
(-0.133095 0.299521 0)
(-0.135723 0.332421 0)
(-0.112963 0.355625 0)
(-0.0952146 0.354871 0)
(-0.0863718 0.327837 0)
(-0.110703 0.25504 0)
(-0.191944 0.151339 0)
(-0.288524 0.0638967 0)
(-0.765495 -0.0644313 0)
(-1.32624 -0.184317 0)
(-0.00560912 0.455227 0)
(0.019651 0.355168 0)
(0.0410604 0.36227 0)
(0.0470925 0.349551 0)
(0.0364174 0.33462 0)
(0.0259206 0.322635 0)
(0.00846505 0.31709 0)
(-0.0127641 0.312119 0)
(-0.0392241 0.301563 0)
(-0.0676155 0.293062 0)
(-0.0866432 0.292286 0)
(-0.0897019 0.293813 0)
(-0.0882442 0.293518 0)
(-0.0958248 0.300042 0)
(-0.10245 0.32375 0)
(-0.0972596 0.341835 0)
(-0.0867764 0.343676 0)
(-0.0715653 0.323342 0)
(-0.0691894 0.276819 0)
(-0.122635 0.223122 0)
(-0.154929 0.205904 0)
(-0.282161 0.330486 0)
(-0.968193 0.100899 0)
(-0.000739991 0.450033 0)
(0.0117643 0.338379 0)
(0.0225529 0.352854 0)
(0.0287129 0.350176 0)
(0.0240173 0.341206 0)
(0.0188971 0.333526 0)
(0.0103335 0.331457 0)
(0.000853819 0.329991 0)
(-0.0128298 0.323386 0)
(-0.0295952 0.313615 0)
(-0.0439527 0.304915 0)
(-0.0528089 0.29978 0)
(-0.0592503 0.30052 0)
(-0.0690623 0.308703 0)
(-0.0764672 0.325462 0)
(-0.0760241 0.336952 0)
(-0.0692257 0.332758 0)
(-0.05885 0.314793 0)
(-0.0548408 0.292991 0)
(-0.0748619 0.269349 0)
(-0.0588319 0.233152 0)
(-0.0354136 0.493694 0)
(-0.239916 0.581218 0)
(0.000844312 0.445446 0)
(0.008381 0.330068 0)
(0.0133335 0.346114 0)
(0.018958 0.348651 0)
(0.0168247 0.343281 0)
(0.0146632 0.338217 0)
(0.0105218 0.336911 0)
(0.00675088 0.336411 0)
(0.00113305 0.332465 0)
(-0.00724963 0.324813 0)
(-0.0172025 0.316336 0)
(-0.0285181 0.310547 0)
(-0.0400686 0.31098 0)
(-0.051911 0.31764 0)
(-0.0602665 0.328826 0)
(-0.0616141 0.334431 0)
(-0.0583096 0.326102 0)
(-0.0545675 0.308878 0)
(-0.0530358 0.293334 0)
(-0.0527975 0.265732 0)
(-0.0164549 0.219315 0)
(-0.0412241 0.453636 0)
(0.106096 0.756579 0)
(0.00281875 0.440238 0)
(0.00720202 0.326373 0)
(0.00877603 0.341571 0)
(0.0131838 0.347361 0)
(0.0120646 0.344364 0)
(0.0111234 0.340606 0)
(0.00865349 0.339227 0)
(0.00695449 0.338788 0)
(0.00464475 0.3367 0)
(2.06977e-05 0.331766 0)
(-0.00765311 0.326012 0)
(-0.0186177 0.322351 0)
(-0.0309124 0.323142 0)
(-0.0427944 0.327603 0)
(-0.0513248 0.333722 0)
(-0.0547452 0.334982 0)
(-0.0561777 0.325935 0)
(-0.058358 0.310092 0)
(-0.0573865 0.293029 0)
(-0.0480333 0.257572 0)
(-0.0578228 0.217573 0)
(-0.129415 0.429183 0)
(-0.0168384 0.773692 0)
(0.004464 0.434451 0)
(0.00659993 0.324988 0)
(0.00686995 0.338991 0)
(0.00972589 0.346393 0)
(0.00901893 0.344997 0)
(0.00844611 0.342301 0)
(0.00645693 0.341066 0)
(0.00491996 0.340564 0)
(0.00299446 0.339606 0)
(-0.000672071 0.337267 0)
(-0.00715713 0.334673 0)
(-0.0166114 0.333547 0)
(-0.0274811 0.334901 0)
(-0.0382631 0.337719 0)
(-0.0471677 0.340555 0)
(-0.0537817 0.339804 0)
(-0.0609109 0.330976 0)
(-0.0696665 0.314268 0)
(-0.0746962 0.295488 0)
(-0.0781299 0.271103 0)
(-0.140598 0.271362 0)
(-0.26721 0.464827 0)
(-0.218029 0.702034 0)
(0.00500211 0.428664 0)
(0.00603518 0.324199 0)
(0.00619085 0.337779 0)
(0.00767219 0.345791 0)
(0.00728009 0.345378 0)
(0.00680392 0.343658 0)
(0.00504666 0.34291 0)
(0.0032037 0.342652 0)
(0.000842005 0.342565 0)
(-0.00275235 0.342281 0)
(-0.00841379 0.342215 0)
(-0.0162331 0.34302 0)
(-0.0253029 0.344991 0)
(-0.0349382 0.347379 0)
(-0.044711 0.349493 0)
(-0.0550236 0.349448 0)
(-0.0682596 0.342948 0)
(-0.087062 0.328036 0)
(-0.110271 0.313547 0)
(-0.141243 0.313345 0)
(-0.231586 0.363608 0)
(-0.382753 0.539274 0)
(-0.378868 0.670043 0)
(0.0046556 0.423402 0)
(0.00547256 0.323305 0)
(0.00589316 0.337309 0)
(0.00650958 0.345507 0)
(0.00642742 0.345641 0)
(0.00606828 0.344773 0)
(0.00467563 0.344691 0)
(0.00283313 0.344999 0)
(0.000323538 0.345736 0)
(-0.00311461 0.34685 0)
(-0.0079394 0.348459 0)
(-0.0142488 0.350705 0)
(-0.0217578 0.353667 0)
(-0.0304347 0.357018 0)
(-0.0406748 0.360536 0)
(-0.0533156 0.363418 0)
(-0.0705567 0.3629 0)
(-0.0971024 0.356912 0)
(-0.136559 0.354073 0)
(-0.188705 0.377508 0)
(-0.276004 0.466446 0)
(-0.392848 0.640277 0)
(-0.436903 0.697634 0)
(0.0040106 0.418799 0)
(0.0050003 0.322188 0)
(0.00564616 0.337085 0)
(0.00596588 0.345273 0)
(0.0061995 0.345723 0)
(0.00606424 0.345571 0)
(0.0051689 0.346149 0)
(0.00372272 0.347139 0)
(0.00158304 0.348643 0)
(-0.0013182 0.35073 0)
(-0.00517096 0.353467 0)
(-0.0101113 0.356918 0)
(-0.0162383 0.361155 0)
(-0.0237921 0.36622 0)
(-0.0333447 0.372194 0)
(-0.0458184 0.379072 0)
(-0.0630215 0.386275 0)
(-0.0892134 0.39307 0)
(-0.12928 0.404886 0)
(-0.180778 0.442002 0)
(-0.236814 0.540519 0)
(-0.269571 0.713227 0)
(-0.28211 0.770907 0)
(0.00347483 0.414692 0)
(0.00468997 0.320939 0)
(0.00543842 0.336788 0)
(0.00589138 0.344863 0)
(0.00644704 0.34553 0)
(0.00663889 0.34594 0)
(0.00628829 0.347062 0)
(0.00545774 0.348677 0)
(0.00403169 0.350854 0)
(0.00196525 0.353701 0)
(-0.000803819 0.357314 0)
(-0.00443064 0.361811 0)
(-0.00913666 0.367328 0)
(-0.0151652 0.37413 0)
(-0.02295 0.382549 0)
(-0.0331778 0.393088 0)
(-0.0469214 0.40654 0)
(-0.0662839 0.423671 0)
(-0.0941534 0.447104 0)
(-0.128057 0.487528 0)
(-0.152763 0.566669 0)
(-0.128625 0.701623 0)
(-0.0457797 0.784849 0)
(0.00316795 0.410854 0)
(0.00456113 0.31966 0)
(0.00535487 0.33626 0)
(0.00618084 0.344152 0)
(0.00706506 0.344995 0)
(0.00766201 0.345818 0)
(0.00786936 0.347352 0)
(0.00771996 0.349455 0)
(0.00713159 0.352168 0)
(0.00605132 0.35563 0)
(0.00443983 0.359963 0)
(0.00216273 0.365319 0)
(-0.000950218 0.37194 0)
(-0.00505707 0.380107 0)
(-0.0104141 0.390371 0)
(-0.0173563 0.403402 0)
(-0.0262357 0.420297 0)
(-0.0374297 0.442442 0)
(-0.051494 0.471071 0)
(-0.0667436 0.508923 0)
(-0.073476 0.561071 0)
(-0.0478299 0.63253 0)
(0.0478721 0.679857 0)
(0.0030448 0.407091 0)
(0.00459254 0.31838 0)
(0.00544526 0.335429 0)
(0.00673839 0.343081 0)
(0.00796909 0.344069 0)
(0.00902757 0.345187 0)
(0.0098073 0.347011 0)
(0.0103462 0.349444 0)
(0.0106148 0.352546 0)
(0.0105692 0.356453 0)
(0.0101588 0.361298 0)
(0.0093393 0.36728 0)
(0.00796461 0.374669 0)
(0.0060183 0.38374 0)
(0.00342093 0.395084 0)
(1.48401e-06 0.409371 0)
(-0.00407841 0.427575 0)
(-0.00857632 0.450773 0)
(-0.0131595 0.47967 0)
(-0.0168436 0.513839 0)
(-0.0165677 0.550156 0)
(-0.00659304 0.582461 0)
(0.0393224 0.591371 0)
(0.00302833 0.403268 0)
(0.00474576 0.317065 0)
(0.00570694 0.334249 0)
(0.00748472 0.341619 0)
(0.00908688 0.342713 0)
(0.0106387 0.344031 0)
(0.0119996 0.346037 0)
(0.0132431 0.348655 0)
(0.0143628 0.351984 0)
(0.0153313 0.356129 0)
(0.0161539 0.361264 0)
(0.0168403 0.367572 0)
(0.0172857 0.375319 0)
(0.0175834 0.384839 0)
(0.0177746 0.39657 0)
(0.0178495 0.411169 0)
(0.0180644 0.429459 0)
(0.0187463 0.452113 0)
(0.0202322 0.479648 0)
(0.0228397 0.511534 0)
(0.02612 0.54462 0)
(0.0255958 0.572076 0)
(0.014555 0.584588 0)
(0.00307221 0.399302 0)
(0.00498182 0.315664 0)
(0.0061024 0.332694 0)
(0.00835595 0.339755 0)
(0.010343 0.340906 0)
(0.0124008 0.342331 0)
(0.0143442 0.344417 0)
(0.0162916 0.3471 0)
(0.0182464 0.350479 0)
(0.0202232 0.354664 0)
(0.0222537 0.359851 0)
(0.0244035 0.366184 0)
(0.0266713 0.373921 0)
(0.029158 0.383399 0)
(0.032005 0.394956 0)
(0.0353421 0.40918 0)
(0.0394508 0.426765 0)
(0.0446966 0.448337 0)
(0.051313 0.474413 0)
(0.0592816 0.505211 0)
(0.067634 0.540291 0)
(0.0709067 0.578629 0)
(0.0550863 0.622829 0)
(0.00316198 0.395139 0)
(0.00527014 0.314137 0)
(0.00658338 0.330759 0)
(0.00929745 0.337484 0)
(0.0116646 0.338641 0)
(0.0142192 0.340088 0)
(0.0167353 0.342154 0)
(0.0193629 0.344787 0)
(0.0221188 0.348065 0)
(0.0250617 0.352112 0)
(0.0282501 0.357099 0)
(0.0317785 0.363191 0)
(0.035734 0.370583 0)
(0.0402527 0.379562 0)
(0.0455386 0.390451 0)
(0.0518456 0.403719 0)
(0.0595188 0.419977 0)
(0.0690514 0.439854 0)
(0.0809241 0.463969 0)
(0.0954802 0.493027 0)
(0.113135 0.528332 0)
(0.133368 0.572887 0)
(0.153561 0.635335 0)
(0.00328751 0.390738 0)
(0.00558505 0.31246 0)
(0.00711324 0.328459 0)
(0.0102598 0.33482 0)
(0.0129888 0.335927 0)
(0.0160128 0.337323 0)
(0.0190703 0.339276 0)
(0.0223345 0.341744 0)
(0.0258369 0.344794 0)
(0.0296658 0.348544 0)
(0.0339151 0.353131 0)
(0.0386972 0.358719 0)
(0.0441434 0.365467 0)
(0.0504605 0.373595 0)
(0.057897 0.38338 0)
(0.066786 0.395187 0)
(0.07758 0.40948 0)
(0.090926 0.426829 0)
(0.107636 0.447794 0)
(0.128738 0.472943 0)
(0.155976 0.503406 0)
(0.192569 0.541367 0)
(0.244424 0.591823 0)
(0.0034244 0.38609 0)
(0.00590128 0.310608 0)
(0.0076757 0.325815 0)
(0.0112013 0.331788 0)
(0.0142624 0.332794 0)
(0.0177182 0.33407 0)
(0.021264 0.335831 0)
(0.0251041 0.338035 0)
(0.0292752 0.340744 0)
(0.0338858 0.344052 0)
(0.0390554 0.34808 0)
(0.0449204 0.352958 0)
(0.0516434 0.358814 0)
(0.0594674 0.365814 0)
(0.0686842 0.374147 0)
(0.0796588 0.384069 0)
(0.0929197 0.395885 0)
(0.109223 0.409987 0)
(0.1295 0.426668 0)
(0.155088 0.446044 0)
(0.187925 0.468127 0)
(0.23132 0.492596 0)
(0.290183 0.518832 0)
(0.00354267 0.381214 0)
(0.00620163 0.30855 0)
(0.00825225 0.32285 0)
(0.0120988 0.328417 0)
(0.0154526 0.329292 0)
(0.0192905 0.330384 0)
(0.02326 0.331887 0)
(0.0275937 0.333746 0)
(0.0323307 0.336013 0)
(0.0375978 0.338767 0)
(0.0435311 0.342104 0)
(0.0502755 0.346121 0)
(0.0580194 0.350908 0)
(0.0670276 0.356576 0)
(0.0775978 0.363219 0)
(0.0901037 0.370982 0)
(0.105093 0.380024 0)
(0.123293 0.390526 0)
(0.145592 0.402455 0)
(0.173189 0.415561 0)
(0.207539 0.429015 0)
(0.250818 0.441207 0)
(0.305028 0.449442 0)
(0.00362372 0.376137 0)
(0.00648967 0.306264 0)
(0.00881982 0.319586 0)
(0.0129407 0.324764 0)
(0.0165438 0.32547 0)
(0.0206999 0.326333 0)
(0.0250171 0.327523 0)
(0.0297471 0.328971 0)
(0.034937 0.330726 0)
(0.0407181 0.332846 0)
(0.0472359 0.335397 0)
(0.054642 0.338446 0)
(0.0631401 0.342048 0)
(0.0729841 0.346264 0)
(0.0844734 0.351091 0)
(0.0979632 0.356592 0)
(0.113965 0.362774 0)
(0.133095 0.369659 0)
(0.15611 0.377013 0)
(0.183933 0.384362 0)
(0.217491 0.390607 0)
(0.258075 0.393985 0)
(0.306103 0.391876 0)
(0.00367059 0.370881 0)
(0.0067815 0.303745 0)
(0.00935891 0.316042 0)
(0.0137159 0.320883 0)
(0.0175154 0.321381 0)
(0.0219284 0.321989 0)
(0.0265101 0.322823 0)
(0.0315374 0.323825 0)
(0.0370601 0.325024 0)
(0.0432037 0.326455 0)
(0.0501207 0.328163 0)
(0.0579648 0.330187 0)
(0.0669463 0.332545 0)
(0.0772934 0.335247 0)
(0.0892937 0.338242 0)
(0.103263 0.341495 0)
(0.119639 0.344919 0)
(0.138927 0.348398 0)
(0.161707 0.351652 0)
(0.188638 0.354088 0)
(0.220252 0.354637 0)
(0.257226 0.351698 0)
(0.299278 0.343101 0)
(0.00370918 0.365449 0)
(0.00709149 0.301013 0)
(0.00983781 0.312251 0)
(0.0144053 0.316816 0)
(0.018345 0.317084 0)
(0.0229577 0.317422 0)
(0.0277241 0.317878 0)
(0.0329564 0.318418 0)
(0.03869 0.319036 0)
(0.0450544 0.319759 0)
(0.0521994 0.320605 0)
(0.0602709 0.321584 0)
(0.0694718 0.322694 0)
(0.0800152 0.32389 0)
(0.0921555 0.325103 0)
(0.106164 0.32621 0)
(0.122388 0.327086 0)
(0.141235 0.327513 0)
(0.163115 0.327212 0)
(0.188471 0.325595 0)
(0.217567 0.321712 0)
(0.250665 0.314182 0)
(0.287235 0.301332 0)
(0.00378403 0.359809 0)
(0.00743086 0.298131 0)
(0.0102192 0.30826 0)
(0.0149806 0.312608 0)
(0.0190013 0.312638 0)
(0.0237607 0.312699 0)
(0.0286373 0.312772 0)
(0.0339937 0.312846 0)
(0.0398391 0.312887 0)
(0.0463041 0.312912 0)
(0.0535246 0.312908 0)
(0.0616444 0.312865 0)
(0.070843 0.312761 0)
(0.0813131 0.312521 0)
(0.0932719 0.312048 0)
(0.106956 0.311182 0)
(0.122624 0.309766 0)
(0.140585 0.307546 0)
(0.161126 0.304234 0)
(0.184526 0.299338 0)
(0.210882 0.292038 0)
(0.240239 0.281198 0)
(0.272051 0.265575 0)
(0.00393735 0.353908 0)
(0.00779101 0.295201 0)
(0.0104766 0.304147 0)
(0.0154037 0.308314 0)
(0.0194397 0.308098 0)
(0.024296 0.307885 0)
(0.0292117 0.307576 0)
(0.0346268 0.307194 0)
(0.0405067 0.30668 0)
(0.046979 0.306031 0)
(0.0541613 0.30522 0)
(0.0621901 0.304214 0)
(0.0712207 0.302968 0)
(0.0814155 0.301398 0)
(0.0929568 0.29938 0)
(0.106048 0.296754 0)
(0.12088 0.293329 0)
(0.137666 0.288855 0)
(0.156613 0.283046 0)
(0.177888 0.275512 0)
(0.201499 0.265569 0)
(0.227408 0.252294 0)
(0.255135 0.234728 0)
(0.00418037 0.347701 0)
(0.00813796 0.292318 0)
(0.0105902 0.300011 0)
(0.0156271 0.303988 0)
(0.0196038 0.303523 0)
(0.0245032 0.303037 0)
(0.0293868 0.302357 0)
(0.0348018 0.301536 0)
(0.0406453 0.300494 0)
(0.0470521 0.299206 0)
(0.0541207 0.297644 0)
(0.061967 0.295756 0)
(0.0707258 0.293473 0)
(0.0805235 0.290703 0)
(0.0915158 0.287314 0)
(0.103868 0.28315 0)
(0.117714 0.277996 0)
(0.133199 0.271635 0)
(0.150471 0.26379 0)
(0.169624 0.254137 0)
(0.19064 0.242124 0)
(0.213454 0.226988 0)
(0.237672 0.207922 0)
(0.00449803 0.34117 0)
(0.00843422 0.289573 0)
(0.0105317 0.295962 0)
(0.0155957 0.299692 0)
(0.0194257 0.298978 0)
(0.0243031 0.298221 0)
(0.0290689 0.297178 0)
(0.0344125 0.295935 0)
(0.0401435 0.294389 0)
(0.0464133 0.292507 0)
(0.0533062 0.290253 0)
(0.0609084 0.287561 0)
(0.0693305 0.284355 0)
(0.0786761 0.280524 0)
(0.0890716 0.275946 0)
(0.100635 0.270455 0)
(0.113474 0.263843 0)
(0.127684 0.255916 0)
(0.143353 0.24642 0)
(0.160545 0.235067 0)
(0.179249 0.221411 0)
(0.199398 0.204803 0)
(0.220668 0.184521 0)
(0.00487101 0.334324 0)
(0.00864609 0.287071 0)
(0.0102676 0.292124 0)
(0.015259 0.295502 0)
(0.0188312 0.294542 0)
(0.0235971 0.293519 0)
(0.02814 0.292121 0)
(0.0333144 0.290469 0)
(0.0388338 0.288437 0)
(0.0448747 0.285999 0)
(0.0515015 0.283104 0)
(0.0587842 0.279675 0)
(0.0668083 0.275641 0)
(0.0756556 0.270881 0)
(0.0854277 0.26527 0)
(0.0962022 0.258643 0)
(0.10807 0.250814 0)
(0.121095 0.241589 0)
(0.135324 0.230743 0)
(0.150802 0.218009 0)
(0.167531 0.203015 0)
(0.185467 0.185209 0)
(0.204329 0.163939 0)
(0.00528013 0.327196 0)
(0.00874118 0.284945 0)
(0.00976967 0.288655 0)
(0.0145758 0.291535 0)
(0.0177602 0.290333 0)
(0.0223046 0.289058 0)
(0.0264928 0.287311 0)
(0.031372 0.285262 0)
(0.0365491 0.28276 0)
(0.0422338 0.279791 0)
(0.0484619 0.276291 0)
(0.0553016 0.272188 0)
(0.0628189 0.267401 0)
(0.0710724 0.261816 0)
(0.0801464 0.255303 0)
(0.0900942 0.247695 0)
(0.100983 0.238832 0)
(0.11286 0.228518 0)
(0.125753 0.216548 0)
(0.139694 0.202661 0)
(0.154689 0.18654 0)
(0.170725 0.167729 0)
(0.187544 0.145649 0)
(0.00567361 0.319884 0)
(0.00867334 0.283293 0)
(0.00903988 0.2857 0)
(0.0135375 0.287933 0)
(0.0161977 0.286503 0)
(0.0204014 0.284988 0)
(0.0240927 0.282902 0)
(0.0285445 0.280474 0)
(0.033226 0.277524 0)
(0.0383969 0.274049 0)
(0.0440682 0.269984 0)
(0.0502979 0.265266 0)
(0.0571378 0.259797 0)
(0.064636 0.253475 0)
(0.0728516 0.246163 0)
(0.081832 0.2377 0)
(0.0916255 0.227939 0)
(0.10226 0.216692 0)
(0.113754 0.203762 0)
(0.126133 0.188898 0)
(0.139384 0.171816 0)
(0.153517 0.152143 0)
(0.168287 0.129387 0)
(0.0059938 0.312544 0)
(0.00839833 0.282142 0)
(0.00809502 0.283336 0)
(0.0121808 0.284782 0)
(0.0142026 0.283167 0)
(0.0179588 0.281407 0)
(0.0210306 0.27901 0)
(0.0249384 0.276229 0)
(0.0289819 0.272865 0)
(0.0334943 0.268931 0)
(0.0384486 0.26436 0)
(0.043889 0.259086 0)
(0.0498596 0.253018 0)
(0.0564024 0.246048 0)
(0.0635577 0.238037 0)
(0.0713649 0.228838 0)
(0.0798542 0.218309 0)
(0.089037 0.206274 0)
(0.0989261 0.192539 0)
(0.109533 0.176871 0)
(0.120801 0.159008 0)
(0.132742 0.138653 0)
(0.145121 0.115396 0)
(0.006185 0.305295 0)
(0.00789092 0.281439 0)
(0.00698741 0.281569 0)
(0.0105777 0.28211 0)
(0.0119095 0.280377 0)
(0.0151342 0.278347 0)
(0.0175265 0.275686 0)
(0.0208112 0.272584 0)
(0.0241191 0.268857 0)
(0.0278693 0.264524 0)
(0.0319799 0.259513 0)
(0.0364954 0.253761 0)
(0.0414523 0.247185 0)
(0.0468792 0.239665 0)
(0.0528074 0.231068 0)
(0.0592671 0.221259 0)
(0.0662685 0.210103 0)
(0.0738068 0.197436 0)
(0.0818852 0.183072 0)
(0.090491 0.166795 0)
(0.0995326 0.148363 0)
(0.108991 0.12756 0)
(0.118654 0.104045 0)
(0.0061066 0.29841 0)
(0.00709433 0.281207 0)
(0.00581478 0.280476 0)
(0.00881949 0.280056 0)
(0.00950591 0.278261 0)
(0.0121519 0.275945 0)
(0.0138754 0.273078 0)
(0.0165016 0.26969 0)
(0.019047 0.265664 0)
(0.0219951 0.261003 0)
(0.0252133 0.255633 0)
(0.0287543 0.249503 0)
(0.0326406 0.242516 0)
(0.0368976 0.234554 0)
(0.0415456 0.225498 0)
(0.0465969 0.215225 0)
(0.0520498 0.203597 0)
(0.0578884 0.190467 0)
(0.064098 0.175663 0)
(0.0706388 0.158991 0)
(0.0774148 0.140244 0)
(0.0843734 0.119257 0)
(0.0913425 0.0957664 0)
(0.00554548 0.292266 0)
(0.00594407 0.281261 0)
(0.00464747 0.279958 0)
(0.00698605 0.27862 0)
(0.00717326 0.276799 0)
(0.00923192 0.274186 0)
(0.0103645 0.271169 0)
(0.0123443 0.26753 0)
(0.0141718 0.263275 0)
(0.0163495 0.258358 0)
(0.0187114 0.252718 0)
(0.0213154 0.246292 0)
(0.0241738 0.23899 0)
(0.0273162 0.230691 0)