/*--------------------------------*- C++ -*----------------------------------*\
| =========                 |                                                 |
| \\      /  F ield         | OpenFOAM: The Open Source CFD Toolbox           |
|  \\    /   O peration     | Version:  2206                                  |
|   \\  /    A nd           | Website:  www.openfoam.com                      |
|    \\/     M anipulation  |                                                 |
\*---------------------------------------------------------------------------*/
FoamFile
{
    version     2.0;
    format      ascii;
    arch        "LSB;label=32;scalar=64";
    class       volScalarField;
    location    "0.275";
    object      alpha.water;
}
// * * * * * * * * * * * * * * * * * * * * * * * * * * * * * * * * * * * * * //

dimensions      [0 0 0 0 0 0 0];

internalField   nonuniform List<scalar> 
2268
(
1
1
1
1
1
1
1
1
1
1
1
1
1
1
1
1
1
1
1
1
1
0.965906
0.837396
1
1
1
1
1
1
1
1
1
1
1
1
1
1
1
1
1
1
1
0.999949
0.999892
0.999994
0.898511
1
1
1
1
1
1
1
1
1
1
1
1
1
1
1
1
1
1
1
0.999992
0.999892
0.999995
0.950368
1
1
1
1
1
1
1
1
1
1
1
1
1
1
1
1
1
1
1
1
0.999981
0.999995
0.999519
1
1
1
1
1
1
1
1
1
1
1
1
1
1
1
1
1
1
1
1
1
0.999999
1
1
1
1
1
1
1
1
1
1
1
1
1
1
1
1
1
1
1
1
1
1
1
1
1
1
1
1
1
1
1
1
1
1
1
1
1
1
1
1
1
1
1
1
1
1
1
1
0.999993
0.999992
0.999995
0.999996
0.999996
0.999996
0.999997
0.999998
0.999998
0.999998
0.999999
1
1
1
1
1
1
1
1
1
1
1
9.55735e-25
6.0097e-26
3.12318e-27
2.08095e-29
2.6339e-33
1.25689e-35
5.36601e-38
2.51091e-40
2.58947e-41
2.47646e-41
6.9867e-43
2.33639e-45
1.24897e-47
7.43646e-50
3.63151e-52
1.35936e-54
3.56604e-57
4.18997e-60
2.71173e-60
3.6018e-23
2.02768e-23
3.17589e-24
2.05926e-26
4.73626e-31
2.6339e-33
1.25689e-35
5.36601e-38
2.51091e-40
2.44813e-38
1.14031e-39
2.76614e-42
8.54397e-45
4.72483e-47
2.13751e-49
7.06869e-52
1.46565e-54
1.17033e-57
2.71173e-60
1.20263e-20
6.6912e-21
1.10678e-21
7.21715e-24
4.49345e-28
2.83758e-30
1.52215e-32
6.81893e-35
2.88355e-37
4.44247e-35
4.59659e-37
6.19328e-40
3.43199e-42
1.85085e-44
7.60671e-47
2.10143e-49
3.17679e-52
1.62606e-55
4.26478e-58
2.4013e-18
1.52642e-18
2.95652e-19
2.21304e-21
5.30008e-25
1.60552e-27
1.02885e-29
5.26354e-32
2.9218e-34
1.35756e-32
2.17467e-34
2.2759e-37
1.13873e-39
5.7181e-42
2.02297e-44
4.43941e-47
6.30167e-50
5.21288e-53
2.1532e-55
3.50473e-16
7.98318e-16
6.3209e-17
3.91256e-19
1.72918e-21
6.04471e-25
4.80341e-27
3.01057e-29
1.48827e-31
1.73518e-30
3.20569e-32
5.03449e-35
2.73964e-37
1.24929e-39
3.7986e-42
8.58791e-45
1.77382e-47
1.46336e-50
8.58277e-53
3.20451e-14
5.11218e-13
2.77454e-14
1.07515e-16
3.74087e-19
4.1324e-21
3.74587e-23
1.56074e-25
3.38119e-27
1.35782e-28
1.31165e-30
9.21395e-33
5.12489e-35
2.06937e-37
6.47907e-40
2.02476e-42
3.99501e-45
2.33277e-48
2.59442e-50
3.29878e-12
1.54208e-11
1.25833e-12
1.62359e-14
1.68411e-16
2.49194e-18
3.45728e-20
4.5118e-22
4.51027e-24
4.21694e-26
3.41055e-28
2.25417e-30
1.13078e-32
4.77809e-35
1.82468e-37
5.01337e-40
6.51239e-43
2.08155e-46
1.05342e-47
2.91098e-11
4.17714e-11
6.47825e-12
3.54124e-13
2.25653e-14
7.22997e-16
9.34332e-18
8.82424e-20
7.43515e-22
6.11404e-24
4.66379e-26
3.25732e-28
1.8853e-30
9.18518e-33
3.37608e-35
7.0443e-38
6.34023e-41
6.623e-44
5.61341e-45
0.99998
0.999782
0.999771
0.999813
0.99983
0.99983
0.999825
0.999822
0.999827
0.999839
0.999861
0.999801
0.999188
0.998255
0.999081
1
1
1
1
1
1
1
1
0.964568
0.848842
0.844407
0.845263
0.833902
0.813712
0.787756
0.756539
0.720935
0.682377
0.643254
0.596371
0.558634
0.531141
0.534971
0.585041
0.684376
0.802502
0.955058
1
1
1
1
0.308832
0.144733
0.134982
0.129358
0.114548
0.0962468
0.0765781
0.0560923
0.0362269
0.0180583
0.000415927
0
8.73115e-13
4.79788e-12
8.28922e-12
0.00120696
0.0173231
0.064939
0.175967
0.450077
0.897847
0.999953
0.999995
-1.4225e-17
-1.00162e-16
-1.48567e-15
-1.54451e-14
-1.01897e-13
-4.02227e-13
-7.87005e-13
-1.05082e-12
-1.26386e-12
-7.13823e-13
-2.83623e-13
-7.26913e-14
1.26033e-28
8.73115e-13
5.94566e-12
-1.73571e-09
3.47906e-06
0.000124433
0.000583983
0.00472841
0.1415
0.483394
0.989858
-4.61549e-17
-3.43479e-16
-5.03874e-15
-5.02335e-14
-3.29896e-13
-1.3134e-12
-2.61456e-12
-3.55077e-12
-3.62213e-12
-1.83646e-12
-6.54957e-13
-1.5608e-13
4.43597e-11
2.45056e-10
5.03697e-11
9.27661e-11
4.91134e-09
7.11666e-06
0.000294631
0.00027998
5.70813e-05
0.00277199
0.209419
-3.97738e-17
-2.98933e-16
-5.73911e-15
-5.9956e-14
-3.99622e-13
-1.57894e-12
-3.10686e-12
-4.19722e-12
-4.25466e-12
-1.82076e-12
-3.95546e-13
-1.01398e-13
2.85188e-10
2.57094e-09
2.58692e-09
4.57591e-10
4.92602e-10
3.00367e-07
1.1965e-06
0.000312944
4.53714e-06
3.78099e-05
0.000277479
-1.1402e-17
-2.23957e-16
-4.35702e-15
-4.91899e-14
-3.31111e-13
-1.28173e-12
-2.45719e-12
-3.24007e-12
-3.16017e-12
-7.51564e-13
7.63221e-13
0
3.55988e-10
4.48653e-09
5.30744e-09
2.20989e-09
1.54929e-09
5.86136e-09
3.79174e-08
4.50815e-06
7.0205e-07
2.73493e-06
1.88117e-05
-6.13679e-18
-1.24595e-16
-2.61376e-15
-3.09678e-14
-2.08393e-13
-7.87019e-13
-1.4589e-12
-1.843e-12
-1.64882e-12
-8.88619e-14
4.36521e-12
6.49365e-14
2.10936e-10
2.72031e-09
5.30983e-09
4.90539e-09
2.38843e-09
1.69884e-09
1.77296e-09
3.79174e-08
3.8448e-07
7.06578e-07
2.73493e-06
-3.33244e-18
-5.61416e-17
-1.2473e-15
-1.50697e-14
-1.00407e-13
-3.68779e-13
-6.58892e-13
-7.85125e-13
-5.98985e-13
5.39327e-14
5.44262e-12
1.15505e-11
1.11444e-11
3.00442e-10
2.47608e-09
3.02747e-09
2.24796e-09
1.63669e-09
1.62171e-09
2.23389e-06
9.58868e-05
8.23454e-05
2.33969e-05
-1.34395e-18
-1.9996e-17
-4.60246e-16
-5.57392e-15
-3.65228e-14
-1.29885e-13
-2.22513e-13
-2.42246e-13
-1.29549e-13
2.4422e-13
4.46491e-12
1.91189e-11
2.14874e-11
7.25104e-11
8.46332e-10
2.13635e-09
2.13769e-09
1.63838e-09
1.48397e-09
1.27566e-09
0.000180476
0.000232931
0.000169007
-3.85959e-19
-5.30221e-18
-1.24439e-16
-1.4944e-15
-9.57983e-15
-3.28033e-14
-5.32502e-14
-4.78314e-14
0
2.80658e-13
3.11833e-12
1.50724e-11
2.00038e-11
4.76205e-11
6.4378e-10
2.03265e-09
2.23177e-09
2.23104e-09
1.64865e-09
1.19866e-09
1.27566e-09
0.000124977
0.000308556
-7.1591e-20
-9.32796e-19
-2.20737e-17
-2.60903e-16
-1.62789e-15
-5.32491e-15
-7.87522e-15
-2.94982e-15
2.66569e-14
2.27176e-13
1.2726e-12
7.17012e-12
1.55488e-11
3.39222e-11
1.80222e-10
8.00311e-10
1.96726e-09
2.09265e-09
1.26584e-09
1.13482e-09
1.19866e-09
0.000253131
0.000360698
-6.57914e-21
-8.2276e-20
-1.94334e-18
-2.24479e-17
-1.35282e-16
-4.12704e-16
-3.90784e-16
1.2332e-15
2.06258e-14
1.70057e-13
9.57196e-13
4.37101e-12
1.32313e-11
3.13913e-11
9.92311e-11
1.80757e-10
7.23462e-10
1.6412e-09
1.13482e-09
1.08941e-09
0.000151665
0.000524267
0.000527077
-2.58304e-23
-2.1439e-22
-2.37702e-21
-3.81955e-21
1.73248e-19
4.32511e-18
8.37847e-17
1.44239e-15
1.64745e-14
1.44137e-13
8.40317e-13
3.77732e-12
1.26278e-11
3.21511e-11
9.17564e-11
1.54879e-10
5.33748e-10
1.47465e-09
1.13667e-09
1.03522e-09
9.34478e-06
0.000500505
0.000527077
-5.19988e-25
1.26617e-24
1.05308e-22
4.5952e-21
1.29091e-19
3.14224e-18
6.29401e-17
1.06264e-15
1.43514e-14
1.3181e-13
7.86621e-13
3.50866e-12
1.22917e-11
3.04695e-11
7.72431e-11
2.05174e-10
5.46293e-10
1.29828e-09
1.30225e-09
9.90522e-10
1.03465e-09
0.000123909
0.000527077
-6.60212e-26
9.68441e-25
6.83348e-23
3.16116e-21
1.05373e-19
2.68828e-18
5.51378e-17
9.55688e-16
1.33047e-14
1.26396e-13
7.69923e-13
3.38702e-12
1.27211e-11
3.16359e-11
6.90071e-11
2.29952e-10
5.77513e-10
9.18393e-10
1.0009e-09
9.76988e-10
9.89961e-10
1.07673e-09
0.000361766
8.5949e-26
7.74944e-25
5.4625e-23
2.59777e-21
8.77752e-20
2.29618e-18
4.86505e-17
8.72781e-16
1.27333e-14
1.25129e-13
8.04392e-13
3.41606e-12
1.41305e-11
3.43694e-11
6.83639e-11
2.27513e-10
6.61031e-10
8.86947e-10
8.73324e-10
8.80028e-10
1.02497e-09
1.18691e-09
5.64151e-05
1.03837e-25
5.57093e-25
4.09265e-23
2.03093e-21
7.1691e-20
1.95823e-18
4.31932e-17
8.08039e-16
1.24151e-14
1.30941e-13
8.66515e-13
3.91171e-12
1.55161e-11
3.59301e-11
7.18713e-11
2.86707e-10
7.83297e-10
8.51449e-10
8.46797e-10
8.58998e-10
1.54203e-09
2.15896e-09
1.20467e-08
6.27692e-26
3.72361e-25
2.90918e-23
1.51771e-21
5.62405e-20
1.60852e-18
3.72477e-17
7.35227e-16
1.21305e-14
1.3452e-13
9.46628e-13
4.51204e-12
1.69586e-11
3.96904e-11
9.65717e-11
4.07898e-10
8.9549e-10
8.78122e-10
8.68926e-10
7.52865e-10
1.86924e-08
3.43338e-08
1.04182e-07
3.81472e-26
2.26754e-25
1.89869e-23
1.04903e-21
4.11387e-20
1.24212e-18
3.03851e-17
6.3847e-16
1.14429e-14
1.36076e-13
1.02352e-12
5.19536e-12
1.90129e-11
4.70339e-11
1.56825e-10
6.46191e-10
9.4649e-10
9.22439e-10
9.16943e-10
1.23848e-09
1.84468e-07
1.99816e-06
1.30306e-06
2.36213e-26
1.25047e-25
1.12977e-23
6.65089e-22
2.77573e-20
8.89656e-19
2.30992e-17
5.19373e-16
1.00477e-14
1.35129e-13
1.07824e-12
5.87384e-12
2.23424e-11
5.13107e-11
2.76753e-10
1.00023e-09
9.46255e-10
9.36993e-10
9.54436e-10
8.5521e-09
1.35652e-06
1.65269e-05
3.21214e-06
1.30257e-26
6.17863e-26
6.09023e-24
3.84636e-22
1.71689e-20
5.87462e-19
1.62783e-17
3.93345e-16
8.31302e-15
1.25163e-13
1.10593e-12
6.48332e-12
2.75905e-11
5.30483e-11
3.835e-10
1.09241e-09
9.96207e-10
9.94596e-10
1.1123e-09
5.00389e-08
0.000386463
0.000862341
0.000211822
6.60359e-27
2.75547e-26
2.98329e-24
2.03275e-22
9.74046e-21
3.57771e-19
1.06529e-17
2.77791e-16
6.44107e-15
1.08294e-13
1.1123e-12
6.90405e-12
3.56969e-11
5.38835e-11
3.41915e-10
1.39647e-09
1.20981e-09
1.12492e-09
1.17632e-09
2.49759e-07
0.0011483
0.00143291
0.000723593
3.05338e-27
1.12388e-26
1.34046e-24
9.88216e-23
5.09942e-21
2.0241e-19
6.52791e-18
1.84411e-16
4.68984e-15
9.0872e-14
1.06035e-12
7.13463e-12
4.43536e-11
5.01859e-11
5.20903e-11
9.75729e-09
5.37988e-09
1.47615e-09
-4.12123e-10
0.000404088
0.00143291
0.00144203
0.00102467
1.28025e-27
4.28237e-27
5.59345e-25
4.46089e-23
2.48948e-21
1.07574e-19
3.78297e-18
1.16045e-16
3.23764e-15
7.20268e-14
9.49116e-13
7.17211e-12
4.76231e-11
4.73869e-11
4.94053e-11
1.91963e-08
1.04195e-08
2.2024e-09
3.23606e-09
0.00106113
0.00144109
0.00143521
0.000661534
4.87758e-28
1.55195e-27
2.18377e-25
1.8833e-23
1.14281e-21
5.40301e-20
2.07774e-18
6.92254e-17
2.11284e-15
5.37065e-14
8.13861e-13
6.57192e-12
4.73504e-11
4.37322e-11
4.742e-10
1.93037e-08
1.08507e-08
3.2687e-09
2.42048e-05
0.00110519
0.00103208
0.000353875
8.64812e-05
1.70246e-28
5.31895e-28
7.91273e-26
7.41005e-24
4.91315e-22
2.53887e-20
1.06588e-18
3.85273e-17
1.28221e-15
3.68948e-14
6.29468e-13
5.67116e-12
4.07758e-11
4.08169e-11
4.85708e-10
1.93037e-08
1.09577e-08
4.30505e-09
5.88936e-06
0.00111522
0.00064991
8.64812e-05
6.42642e-05
5.52562e-29
1.66269e-28
2.59771e-26
2.67023e-24
1.93874e-22
1.08686e-20
4.95638e-19
1.94025e-17
7.02228e-16
2.26146e-14
4.36687e-13
4.43199e-12
3.15908e-11
8.05788e-11
8.0327e-11
1.90948e-08
1.08384e-08
5.35308e-09
6.71361e-09
0.000577044
0.000748289
0.000111692
5.84513e-05
1.68931e-29
4.53091e-29
7.56001e-27
8.64319e-25
6.85523e-23
4.12891e-21
2.03053e-19
8.57194e-18
3.35908e-16
1.19905e-14
2.64641e-13
3.11706e-12
2.38996e-11
1.09101e-10
9.52613e-11
8.01908e-09
9.22384e-09
6.71362e-09
2.28026e-05
2.32798e-05
0.000740437
8.05977e-05
5.78739e-05
4.81785e-30
1.0644e-29
1.96667e-27
2.51427e-25
2.15883e-23
1.38738e-21
7.28168e-20
3.27709e-18
1.37368e-16
5.37903e-15
1.3816e-13
1.93169e-12
1.69304e-11
9.19836e-11
1.97739e-10
2.57301e-09
2.2412e-08
8.40072e-09
1.13155e-05
4.10391e-05
0.000741047
0.000155218
5.80092e-05
1.22189e-30
2.30016e-30
4.79481e-28
6.75404e-26
6.18749e-24
4.22861e-22
2.33336e-20
1.09735e-18
4.79778e-17
2.02356e-15
6.11551e-14
1.03641e-12
1.0533e-11
6.49103e-11
5.57258e-11
4.3856e-09
3.89678e-08
6.51615e-09
6.77618e-06
4.70072e-05
0.000741047
0.000469122
5.80092e-05
2.55238e-31
5.05521e-31
1.13938e-28
1.71156e-26
1.65532e-24
1.19855e-22
6.85642e-21
3.3115e-19
1.45989e-17
6.41082e-16
2.26363e-14
4.7234e-13
5.72719e-12
4.27047e-11
4.36007e-11
3.53255e-09
3.9721e-08
3.59966e-09
4.11583e-06
6.8756e-05
0.000357908
0.000336085
5.67333e-05
4.05036e-32
1.07504e-31
2.52684e-29
3.95411e-27
4.04382e-25
3.08155e-23
1.83015e-21
9.11699e-20
3.97968e-18
1.74053e-16
6.94146e-15
1.79515e-13
2.6698e-12
2.35435e-11
1.06776e-10
7.4425e-10
3.60817e-08
3.09219e-09
1.30609e-07
0.000128498
0.00021795
7.30337e-05
4.33626e-05
4.54129e-33
1.75661e-32
4.64236e-30
7.6218e-28
8.28012e-26
6.6237e-24
4.1806e-22
2.20327e-20
9.76429e-19
4.15613e-17
1.76153e-15
5.56707e-14
1.04404e-12
1.13409e-11
7.59304e-11
6.76336e-10
4.98266e-09
8.27208e-10
1.68592e-09
0.000114328
0.000199513
4.89719e-05
3.38911e-05
3.33706e-34
1.98955e-33
6.33403e-31
1.10708e-28
1.27716e-26
1.09619e-24
7.58057e-23
4.31832e-21
2.05946e-19
8.8237e-18
3.73157e-16
1.38261e-14
3.3225e-13
4.51127e-12
3.93272e-11
4.04297e-10
2.50862e-09
3.51227e-10
8.49924e-07
2.35685e-05
0.000164888
4.96402e-05
2.13555e-05
1.38774e-35
1.58478e-34
5.9231e-32
1.11888e-29
1.40318e-27
1.33545e-25
1.02384e-23
6.41155e-22
3.45067e-20
1.59664e-18
6.6791e-17
2.73222e-15
8.36684e-14
1.45502e-12
1.59181e-11
1.72199e-10
1.95523e-09
2.44278e-10
1.63877e-06
9.99132e-06
6.5917e-05
3.07028e-05
1.00087e-05
2.97369e-37
7.37287e-36
3.33159e-33
7.1653e-31
1.01505e-28
1.09273e-26
9.68555e-25
7.03915e-23
4.30705e-21
2.2235e-19
9.98002e-18
4.31789e-16
1.60649e-14
3.62191e-13
5.14388e-12
7.25927e-11
8.23451e-10
1.98972e-10
1.95903e-07
9.90332e-06
2.20101e-05
2.92196e-06
3.87705e-06
1.97106e-39
1.86677e-37
1.03344e-34
2.65083e-32
4.40205e-30
5.53754e-28
5.88726e-26
4.99216e-24
3.59578e-22
2.18722e-20
1.12348e-18
5.21717e-17
2.23964e-15
6.62567e-14
1.2333e-12
2.03587e-11
2.2866e-10
1.60297e-10
5.08056e-08
4.05087e-06
4.68929e-06
2.5862e-09
7.62401e-07
1.43422e-42
1.44224e-39
7.99013e-37
2.6618e-34
6.47121e-32
1.17023e-29
1.59954e-27
1.6866e-25
1.53946e-23
1.14199e-21
7.06966e-20
4.03848e-18
2.06408e-16
8.11422e-15
2.04457e-13
3.3827e-12
4.26875e-11
1.29894e-10
2.00695e-08
0
-7.34613e-10
-4.32047e-28
0.00149574
1.47088e-47
3.64928e-44
3.18207e-41
2.07262e-38
9.28911e-36
2.84113e-33
8.60848e-31
2.09537e-28
3.8191e-26
6.49625e-24
9.0985e-22
9.6707e-20
8.02116e-18
4.75561e-16
1.83539e-14
2.54702e-13
2.67338e-12
4.35568e-10
9.28794e-17
-1.49751e-10
-3.39893e-09
-2.80096e-10
0.10074
6.97481e-59
2.54645e-54
9.08002e-51
2.06975e-47
3.17416e-44
3.47668e-41
3.38612e-38
2.55791e-35
1.38418e-32
7.72354e-30
3.01027e-27
1.02435e-24
2.76773e-22
5.91313e-20
6.03463e-18
3.46721e-16
1.37407e-14
1.136e-11
-4.47506e-12
-2.20064e-10
-4.54835e-09
-2.69273e-10
0.35572
0
1.28996e-68
2.64442e-65
7.35408e-63
-1.31252e-63
1.12214e-55
-1.29187e-56
-1.07588e-58
-3.09068e-50
-3.07284e-52
-1.85674e-54
-9.30706e-31
-5.52068e-27
-1.59254e-23
-1.29072e-20
-5.21611e-18
-1.10912e-15
-1.2135e-13
-6.33947e-12
-1.47641e-10
-2.58541e-09
-4.34176e-10
0.0916031
0.658279
3.66052e-05
7.43549e-07
7.51043e-09
0.952487
0.204311
7.17182e-06
1.23516e-07
0.998984
0.744794
0.067166
7.10711e-06
0.994561
0.988936
0.455977
0.00460183
0.867002
0.973455
0.885271
0.156247
0.207149
0.901219
0.904509
0.461198
4.1871e-05
0.444617
0.89092
0.751046
1.85499e-05
3.16478e-05
0.691845
0.734045
3.1423e-05
3.16478e-05
0.357744
0.711671
3.18855e-05
3.15485e-05
0.0837097
0.651382
5.50921e-05
3.65305e-05
4.54726e-05
0.494556
6.49559e-05
4.54749e-05
5.37323e-05
0.34033
0.000146637
5.37362e-05
6.59567e-05
0.253038
0.000295217
6.596e-05
5.94464e-05
0.190869
0.000407878
5.94464e-05
3.74922e-05
0.155172
0.000385534
4.86155e-05
1.50441e-05
0.152612
0.000113251
1.85656e-05
5.9618e-06
0.154043
4.09912e-07
9.89747e-07
3.10441e-06
0.173189
1.87508e-07
4.93239e-07
0.00116504
0.235784
4.93239e-07
8.79799e-07
0.0339656
0.271942
8.79799e-07
9.83876e-07
0.116716
0.273653
2.34903e-06
1.24591e-06
0.110936
0.273466
1.01793e-05
4.92771e-06
0.079925
0.273531
3.51439e-05
1.24959e-05
0.136946
0.153089
6.6944e-05
0.00209483
0.231293
0.0561299
0.000111115
0.0220532
0.243974
0.132698
8.64812e-05
0.162717
0.249705
0.243974
0.00395056
0.249705
0.251397
0.230939
0.00131856
0.251397
0.251397
0.161267
5.80092e-05
0.182646
0.251397
0.0959687
6.83652e-05
0.121471
0.25119
0.05109
7.90323e-05
0.195386
0.18274
0.017587
0.00330374
0.231048
0.0638129
0.00375378
0.00768679
0.23386
0.0546358
0.00112354
0.0210192
0.23386
0.0683524
0.000415948
0.133334
0.23386
0.0594589
0.000371486
0.335987
0.173348
0.0357889
0.000301649
0.35706
0.0520837
0.00734585
3.3883e-05
0.369849
0.0634336
7.8061e-05
2.44791e-06
0.374122
0.331837
0.00167279
0.00197407
0.373158
0.373158
0.131138
0.0220748
0.316389
0.359014
0.166469
4.09203e-05
4.31925e-11
2.85638e-12
1.25207e-12
8.97033e-13
2.16014e-13
1.4592e-14
2.297e-16
1.83914e-18
1.52283e-20
1.18877e-22
8.29857e-25
5.33448e-27
2.78027e-29
8.99063e-32
2.39874e-34
8.4468e-37
2.12518e-39
2.8627e-42
1.02282e-43
3.30684e-09
3.37516e-11
1.38245e-12
9.03172e-13
3.98478e-13
6.08799e-14
2.26786e-15
2.47891e-17
2.07413e-19
1.77262e-21
1.28293e-23
7.67243e-26
3.28721e-28
8.06573e-31
3.93304e-33
1.58651e-35
4.30325e-38
6.55927e-41
5.78669e-42
5.64774e-08
3.78719e-10
5.132e-12
3.70021e-13
2.86658e-13
9.07202e-14
6.83156e-15
1.1836e-16
1.04809e-18
1.05702e-20
9.63454e-23
7.01637e-25
3.85968e-27
1.22592e-29
3.15043e-32
1.30517e-34
3.75071e-37
6.42433e-40
9.31508e-41
1.64049e-06
3.6311e-09
1.16773e-10
1.58178e-12
4.57358e-14
1.00373e-14
9.39686e-15
3.31281e-16
2.28556e-18
2.51728e-20
2.86573e-22
2.6565e-24
1.93675e-26
1.04875e-28
3.49535e-31
5.67746e-34
1.59149e-36
2.85834e-39
6.46842e-40
3.84371e-05
1.44541e-07
3.02249e-09
5.24039e-11
1.06998e-12
1.62594e-14
2.27755e-16
6.01933e-18
2.32385e-18
4.44327e-20
3.97578e-22
4.08888e-24
3.43836e-26
2.24625e-28
1.04365e-30
2.59877e-33
3.66135e-36
7.07865e-39
2.83411e-39
0.0070373
3.15005e-06
6.22391e-08
1.53054e-09
3.50713e-11
6.94808e-13
1.2809e-14
2.27755e-16
1.68317e-17
2.26681e-19
1.53497e-21
1.40738e-23
1.41777e-25
1.19262e-27
7.98987e-30
4.0046e-32
1.33812e-34
2.26641e-37
7.01938e-39
0.0604617
5.55542e-05
9.96528e-07
2.31946e-08
5.93715e-10
1.39112e-11
2.98474e-13
6.78549e-15
4.85929e-16
6.04206e-18
3.92639e-20
4.71955e-22
5.06588e-24
4.47325e-26
3.14658e-28
1.65516e-30
5.79037e-33
1.01305e-35
2.23855e-37
0.190205
0.000284737
6.65441e-06
1.7853e-07
4.83642e-09
1.32302e-10
3.17225e-12
1.01274e-13
6.19996e-15
8.89922e-17
6.34391e-19
7.42348e-21
8.36037e-23
7.74313e-25
5.69017e-27
3.11943e-29
1.13609e-31
2.07461e-34
9.99948e-36
0.297342
0.000684084
2.2548e-05
6.82419e-07
2.18981e-08
6.61561e-10
1.98583e-11
6.82179e-13
3.38023e-14
6.80588e-16
6.35299e-18
5.98613e-20
7.00021e-22
6.79327e-24
5.19921e-26
2.96401e-28
1.12077e-30
2.14938e-33
2.05854e-34
0.364609
0.00283981
4.31721e-05
1.4811e-06
5.8177e-08
1.87052e-09
5.67204e-11
2.30315e-12
6.22366e-14
2.94833e-15
3.98685e-17
3.19479e-19
3.18488e-21
3.20756e-23
2.55581e-25
1.51017e-27
5.91085e-30
9.47046e-33
2.1446e-33
0.430535
0.0172367
6.63443e-05
2.85791e-06
1.13069e-07
3.95943e-09
1.23214e-10
5.33425e-12
1.38244e-13
8.66354e-15
1.46628e-16
1.37799e-18
1.01057e-20
1.02707e-22
8.50263e-25
5.19262e-27
2.09781e-29
4.03922e-32
1.21293e-32
0.415503
0.048874
0.000104095
5.01713e-06
2.15648e-07
8.12485e-09
2.69133e-10
1.10821e-11
3.18047e-13
1.97178e-14
3.81616e-16
4.08116e-18
3.10219e-20
2.88762e-22
2.45628e-24
1.5456e-26
6.41671e-29
1.33117e-31
4.64675e-32
0.39738
0.0727777
0.000154126
8.14845e-06
3.77075e-07
1.511e-08
5.27386e-10
2.02561e-11
6.52577e-13
3.78458e-14
8.4707e-16
1.03747e-17
9.59463e-20
7.23134e-22
6.13148e-24
3.96183e-26
1.68492e-28
4.19288e-31
1.48961e-31
0.390291
0.0811025
0.000190202
1.08369e-05
5.32559e-07
2.24742e-08
8.20774e-10
3.08122e-11
1.09691e-12
6.35395e-14
1.65846e-15
2.334e-17
2.61358e-19
2.15516e-21
1.28075e-23
8.16876e-26
3.52722e-28
9.89874e-31
4.21544e-31
0.371902
0.0776799
0.000195123
1.17411e-05
6.04002e-07
2.65846e-08
1.00889e-09
3.85071e-11
1.46055e-12
9.27067e-14
2.66992e-15
4.17966e-17
5.38091e-19
5.54808e-21
4.24819e-23
2.13188e-25
6.14691e-28
1.85926e-30
9.89986e-31
0.354082
0.0637537
0.00017432
1.09132e-05
5.80633e-07
2.63822e-08
1.03023e-09
3.99698e-11
1.55965e-12
1.11063e-13
3.30675e-15
5.5066e-17
7.75546e-19
8.98991e-21
8.17878e-23
5.52695e-25
2.52544e-27
4.82098e-30
1.85927e-30
0.310525
0.0381605
0.000125957
8.10916e-06
4.43251e-07
2.06588e-08
8.27063e-10
3.37211e-11
1.29696e-12
1.20968e-13
3.47074e-15
5.88658e-17
8.82424e-19
1.09396e-20
1.08014e-22
8.09453e-25
4.27504e-27
1.18311e-29
1.88554e-30
0.201545
0.0158885
7.66957e-05
5.05947e-06
2.82938e-07
1.34544e-08
5.49906e-10
2.41718e-11
8.89045e-13
9.39214e-14
2.6482e-15
4.59946e-17
7.2549e-19
9.53154e-21
1.01035e-22
8.36894e-25
5.06155e-27
1.8631e-29
1.25296e-30
0.197193
0.0094935
5.74513e-05
3.80627e-06
2.11096e-07
9.93463e-09
4.0064e-10
1.80095e-11
6.4381e-13
6.317e-14
1.70132e-15
2.94032e-17
4.63016e-19
6.10317e-21
6.53814e-23
5.45598e-25
3.34096e-27
1.2561e-29
8.24692e-31
0.246503
0.00860847
5.61552e-05
3.68572e-06
1.99085e-07
9.07765e-09
3.55269e-10
1.53525e-11
5.39781e-13
4.87553e-14
1.254e-15
2.10936e-17
3.22931e-19
4.14071e-21
4.31746e-23
3.5267e-25
2.12125e-27
7.87179e-30
5.08455e-31
0.218604
0.00565806
5.5245e-05
3.5217e-06
1.8531e-07
8.20485e-09
3.11284e-10
1.29178e-11
4.87856e-13
4.23819e-14
1.03854e-15
1.72768e-17
2.61419e-19
3.30716e-21
3.40335e-23
2.74642e-25
1.6341e-27
6.1317e-30
2.66472e-31
0.143598
0.00128873
3.94512e-05
2.46656e-06
1.25161e-07
5.47458e-09
2.04331e-10
8.40626e-12
5.70441e-13
3.56845e-14
7.90351e-16
1.35937e-17
2.07029e-19
2.63105e-21
2.72389e-23
2.21452e-25
1.33002e-27
5.15908e-30
1.12233e-31
0.0586968
0.000257288
1.87622e-05
1.13587e-06
5.83662e-08
2.48809e-09
9.34668e-11
4.03467e-12
5.67755e-13
2.17377e-14
4.28715e-16
7.73901e-18
1.19755e-19
1.54693e-21
1.62938e-23
1.34924e-25
8.26393e-28
3.30963e-30
3.78922e-32
0.00892981
8.61933e-05
6.12163e-06
3.63709e-07
1.86359e-08
8.32379e-10
3.35868e-11
2.02152e-12
2.78852e-13
8.22762e-15
1.61188e-16
2.98401e-18
4.69985e-20
6.18657e-22
6.64729e-24
5.61903e-26
3.51558e-28
1.44516e-30
1.05278e-32
0.000463195
2.46974e-05
1.53981e-06
9.94639e-08
4.98047e-09
2.17509e-10
1.14701e-11
1.81144e-12
9.05207e-14
2.13593e-15
4.59201e-17
8.62107e-19
1.37771e-20
1.84281e-22
2.01415e-24
1.73324e-26
1.10493e-28
4.63805e-31
2.49363e-33
0.00347577
1.02248e-05
5.61323e-07
2.26588e-08
1.30717e-09
5.73846e-11
3.35807e-12
7.10827e-13
2.43915e-14
5.2723e-16
1.10943e-17
2.0744e-19
3.33273e-21
4.49997e-23
4.97679e-25
4.34074e-27
2.80774e-29
1.19804e-31
5.285e-34
0.00718988
9.07499e-06
3.68908e-07
1.36291e-08
3.02158e-10
1.76725e-11
2.01612e-12
2.30813e-13
7.55161e-15
1.4717e-16
2.63931e-18
4.62013e-20
7.23265e-22
9.66932e-24
1.06891e-25
9.36925e-28
6.11015e-30
2.63497e-32
1.04641e-34
0.0055302
9.16128e-06
1.97553e-07
7.41452e-09
2.05854e-10
5.43861e-12
1.62004e-12
1.34485e-13
4.81709e-15
7.52445e-17
8.97252e-19
1.22939e-20
1.66787e-22
2.05229e-24
2.16921e-26
1.86272e-28
1.20463e-30
5.1828e-33
2.2952e-35
0.00185737
4.5413e-06
1.03982e-07
6.43797e-10
6.10135e-11
5.24548e-12
1.22598e-12
1.11648e-13
5.06002e-15
7.35905e-17
6.22241e-19
6.06693e-21
6.02147e-23
5.65497e-25
4.9768e-27
3.86809e-29
2.36334e-31
9.79401e-34
8.259e-36
0.000220548
9.04e-07
1.00318e-07
3.00526e-09
7.05317e-11
1.1979e-11
1.06165e-12
1.12291e-13
5.68113e-15
8.43921e-17
6.85984e-19
5.81865e-21
4.47921e-23
3.13743e-25
1.98636e-27
1.17309e-29
5.85786e-32
2.09385e-34
5.24006e-36
0.000191431
9.77755e-08
2.18823e-09
2.48447e-10
4.1644e-11
1.19052e-11
1.47e-12
1.18224e-13
5.42154e-15
8.92868e-17
7.5163e-19
5.91497e-21
4.51145e-23
3.00242e-25
1.67619e-27
7.83744e-30
2.92015e-32
7.69484e-35
4.32807e-36
0.000316784
1.08769e-08
2.54886e-10
2.17112e-11
1.9856e-11
1.33035e-11
2.18317e-12
1.25666e-13
5.54749e-15
1.0084e-16
8.0331e-19
5.31423e-21
3.50877e-23
2.30998e-25
1.34281e-27
6.29615e-30
2.20698e-32
5.20578e-35
3.90193e-36
0.000135191
1.08753e-09
3.40199e-11
1.05298e-11
1.68535e-11
1.5137e-11
2.50852e-12
1.26302e-13
6.97586e-15
1.49402e-16
1.05476e-18
5.99514e-21
3.45744e-23
1.73027e-25
7.15894e-28
2.54147e-30
8.24011e-33
2.42955e-35
3.67492e-36
1.1626e-06
6.8886e-07
1.05298e-11
8.45873e-12
1.72472e-11
1.47289e-11
2.41505e-12
1.23674e-13
9.77529e-15
2.53872e-16
1.87437e-18
1.16738e-20
7.08869e-23
3.52726e-25
1.39987e-27
4.22995e-30
1.06425e-32
2.01198e-35
3.28709e-36
3.9304e-06
4.08667e-06
8.45821e-12
8.30619e-12
1.65002e-11
1.44895e-11
2.09176e-12
1.14533e-13
1.32345e-14
3.90846e-16
3.15363e-18
2.42889e-20
1.82839e-22
1.09835e-24
5.11319e-27
1.84058e-29
4.76106e-32
7.96253e-35
2.06763e-36
3.73906e-06
4.81317e-06
1.88411e-07
8.33813e-12
1.76603e-11
1.52862e-11
1.77227e-12
9.05659e-14
1.46624e-14
4.66427e-16
3.61424e-18
2.97995e-20
2.37828e-22
1.55521e-24
8.097e-27
3.24462e-29
9.44895e-32
1.78291e-34
8.60785e-37
1.97891e-06
2.31525e-06
3.16214e-07
8.30629e-12
3.81834e-11
1.33024e-11
1.5047e-12
1.04924e-13
1.46215e-14
4.0805e-16
3.42822e-18
2.97301e-20
2.36912e-22
1.54885e-24
8.12511e-27
3.29246e-29
9.75982e-32
1.89264e-34
2.92107e-37
1.35354e-06
1.14486e-06
2.43524e-07
8.41182e-12
7.51749e-11
9.81128e-12
1.05069e-12
1.80183e-13
1.49916e-14
2.74046e-16
2.63301e-18
2.39228e-20
1.84576e-22
1.16134e-24
5.8707e-27
2.30447e-29
6.65626e-32
1.26686e-34
1.01682e-37
1.6749e-06
1.51897e-06
1.14316e-07
4.80633e-11
3.9012e-11
5.13272e-12
6.50823e-13
2.92738e-13
1.59618e-14
1.64474e-16
1.58026e-18
1.38321e-20
9.87549e-23
5.72247e-25
2.65943e-27
9.6427e-30
2.58774e-32
4.61411e-35
3.25143e-38
1.71497e-06
6.97305e-07
3.08248e-08
7.81342e-10
1.29381e-11
1.82364e-12
3.58337e-13
2.812e-13
1.41408e-14
9.02515e-17
7.47589e-19
5.74493e-21
3.60731e-23
1.85123e-25
7.6656e-28
2.49523e-30
6.05639e-33
9.84421e-36
6.81267e-39
1.16766e-05
6.97867e-07
2.22654e-08
7.58009e-10
5.62167e-12
1.42094e-12
1.11434e-12
2.06755e-13
5.56216e-15
3.69296e-17
2.67804e-19
1.72812e-21
9.31164e-24
4.16935e-26
1.53066e-28
4.48296e-31
9.92479e-34
1.49e-36
8.4649e-40
2.24913e-06
6.31391e-07
5.79774e-07
1.1996e-08
5.94146e-12
4.0779e-12
1.22147e-12
6.24322e-14
7.34841e-16
6.27176e-18
4.18888e-20
2.29969e-22
1.06412e-24
4.1593e-27
1.35905e-29
3.61023e-32
7.37632e-35
1.03645e-37
8.38866e-40
)
;

boundaryField
{
    leftWall
    {
        type            zeroGradient;
    }
    rightWall
    {
        type            zeroGradient;
    }
    lowerWall
    {
        type            zeroGradient;
    }
    atmosphere
    {
        type            inletOutlet;
        inletValue      uniform 0;
        value           nonuniform List<scalar> 
46
(
0
0
0
0
0
0
0
0
0
0
0
0
0
0
0
0
0
0
0
0
0
0
0.0916031
0.316389
0.359014
0.166469
4.09203e-05
2.24913e-06
6.31391e-07
5.79774e-07
1.1996e-08
5.94146e-12
4.0779e-12
1.22147e-12
6.24322e-14
7.34841e-16
6.27176e-18
4.18888e-20
2.29969e-22
1.06412e-24
4.1593e-27
1.35905e-29
3.61023e-32
7.37632e-35
1.03645e-37
8.38866e-40
)
;
    }
    defaultFaces
    {
        type            empty;
    }
}


// ************************************************************************* //
