/*--------------------------------*- C++ -*----------------------------------*\
| =========                 |                                                 |
| \\      /  F ield         | OpenFOAM: The Open Source CFD Toolbox           |
|  \\    /   O peration     | Version:  2206                                  |
|   \\  /    A nd           | Website:  www.openfoam.com                      |
|    \\/     M anipulation  |                                                 |
\*---------------------------------------------------------------------------*/
FoamFile
{
    version     2.0;
    format      ascii;
    arch        "LSB;label=32;scalar=64";
    class       volScalarField;
    location    "0.275";
    object      p;
}
// * * * * * * * * * * * * * * * * * * * * * * * * * * * * * * * * * * * * * //

dimensions      [1 -1 -2 0 0 0 0];

internalField   nonuniform List<scalar> 
2268
(
1639.24
1639.93
1640.46
1640.92
1641.35
1641.97
1642.91
1644.17
1645.75
1647.67
1649.91
1652.45
1655.2
1658.09
1661.01
1663.84
1666.42
1668.59
1670.22
1671.07
1671.11
1670.2
1667.5
1458.09
1458.8
1459.53
1460.13
1460.68
1461.4
1462.41
1463.74
1465.39
1467.36
1469.64
1472.21
1475.09
1478.2
1481.46
1484.76
1487.98
1490.97
1493.6
1495.65
1497.45
1498.02
1500.1
1274.9
1275.66
1276.71
1277.58
1278.33
1279.21
1280.36
1281.84
1283.68
1285.89
1288.48
1291.41
1294.66
1298.17
1301.89
1305.73
1309.58
1313.36
1317
1320.33
1323.75
1325.59
1329.71
1089.74
1090.58
1091.96
1093.12
1094.08
1095.12
1096.39
1098.01
1100.03
1102.47
1105.35
1108.69
1112.49
1116.71
1121.27
1126.06
1130.98
1135.86
1140.61
1144.86
1148.91
1150.96
1154.58
902.717
903.548
905.128
906.482
907.559
908.649
909.968
911.647
913.773
916.399
919.569
923.315
927.648
932.701
938.289
944.302
950.58
956.903
963.073
968.556
973.354
976.013
979.188
713.643
714.461
715.894
717.164
718.136
719.073
720.213
721.725
723.732
726.332
729.627
733.732
738.746
744.652
751.509
759.179
767.443
775.958
784.341
791.894
798.298
802.276
805.387
522.34
522.759
523.568
524.35
524.901
525.346
525.9
526.768
528.127
530.125
532.905
536.62
541.48
547.806
555.932
565.526
576.287
587.865
599.733
610.653
619.27
623.008
624.363
328.722
328.404
328.379
328.058
327.524
326.823
326.039
325.399
325.165
325.621
327.07
329.758
333.545
338.188
344.883
354.352
366.965
382.175
398.608
413.844
424.717
428.413
408.959
1.67581
1.67336
1.66854
1.66181
1.65351
1.64409
1.63394
1.62344
1.61293
1.60267
1.59289
1.58379
1.57552
1.56822
1.562
1.55693
1.55307
1.55047
1.54917
1.4996
1.4969
1.49169
1.48451
1.47574
1.46586
1.4553
1.44443
1.43359
1.42306
1.41305
1.40376
1.39534
1.38792
1.38159
1.37644
1.37252
1.36989
1.36857
1.32618
1.32301
1.31701
1.30894
1.2992
1.2884
1.27701
1.2654
1.25393
1.24285
1.23239
1.22272
1.21398
1.2063
1.19976
1.19445
1.19041
1.1877
1.18633
1.15663
1.15239
1.1449
1.13525
1.12388
1.11161
1.09893
1.08621
1.07379
1.06192
1.0508
1.04057
1.03136
1.02329
1.01645
1.01089
1.00668
1.00384
1.00242
0.990997
0.984963
0.975151
0.963192
0.949489
0.935232
0.920831
0.906642
0.89297
0.880104
0.868124
0.857175
0.847371
0.838805
0.831558
0.825688
0.82124
0.818251
0.816748
0.832752
0.821904
0.808341
0.792996
0.775954
0.759028
0.742457
0.726454
0.711267
0.697201
0.684195
0.672388
0.661868
0.652708
0.644975
0.638723
0.63399
0.630813
0.629216
0.683305
0.662154
0.643962
0.623693
0.602336
0.582253
0.563159
0.545166
0.528511
0.51295
0.498779
0.486008
0.474678
0.464839
0.456551
0.449859
0.444796
0.441399
0.439693
0.538888
0.508603
0.482228
0.454573
0.427853
0.40413
0.382351
0.362221
0.343808
0.326931
0.311592
0.297809
0.285607
0.275025
0.266122
0.258938
0.253504
0.249855
0.248023
176.764
174.594
172.47
170.25
167.992
165.472
162.404
158.967
155.423
152.116
149.651
149.583
153.559
161.551
171.486
179.459
195.885
218.834
243.053
261.688
266.019
249.96
159.386
75.0624
67.6448
63.4917
61.4098
59.0969
56.2489
52.6604
48.4908
43.8941
38.9784
33.7095
29.9582
27.8989
26.47
26.6297
30.2554
44.3181
69.8081
102.484
133.879
150.595
142.049
89.1213
15.1077
6.58508
6.08096
5.82745
5.07311
4.15427
3.16976
2.15192
1.17837
0.323259
-0.566267
-0.754282
-0.773172
-0.745886
-0.723828
-0.57737
0.210292
2.57902
8.21331
22.9637
47.4556
62.0515
56.0429
-0.957482
-0.953904
-0.928939
-0.920521
-0.912829
-0.900892
-0.884816
-0.864837
-0.841886
-0.819595
-0.815457
-0.842711
-0.845995
-0.8228
-0.793472
-0.758389
-0.695812
-0.781234
-0.92232
-0.522571
5.61366
20.5736
27.0408
-1.06766
-1.0565
-1.0472
-1.04049
-1.03308
-1.02255
-1.009
-0.99307
-0.975923
-0.960289
-0.951141
-0.950039
-0.94413
-0.928678
-0.907812
-0.881648
-0.848742
-0.906342
-0.987246
-0.894169
-0.930124
-0.643053
4.86387
-1.19204
-1.18215
-1.17563
-1.16899
-1.16124
-1.1515
-1.13974
-1.12635
-1.11221
-1.09871
-1.08751
-1.07824
-1.06709
-1.05158
-1.03123
-1.00568
-0.978528
-1.00997
-1.08785
-1.05723
-0.985928
-0.912214
-0.904731
-1.32404
-1.31626
-1.3085
-1.30156
-1.29378
-1.28459
-1.27397
-1.26208
-1.24944
-1.23668
-1.22437
-1.21225
-1.19907
-1.18348
-1.16407
-1.14094
-1.11401
-1.11061
-1.14131
-1.13982
-1.10547
-1.07382
-1.14598
-1.45805
-1.45086
-1.44409
-1.43751
-1.43007
-1.42141
-1.41156
-1.40065
-1.38892
-1.37669
-1.36422
-1.35155
-1.33841
-1.32422
-1.30774
-1.28811
-1.267
-1.25245
-1.25473
-1.25926
-1.25752
-1.2703
-1.34177
-1.59624
-1.59019
-1.58401
-1.57776
-1.57071
-1.56254
-1.55331
-1.54314
-1.5322
-1.52067
-1.50875
-1.49668
-1.48464
-1.47254
-1.45957
-1.44469
-1.42832
-1.41467
-1.4086
-1.40822
-1.40809
-1.42762
-1.48386
-1.73911
-1.73392
-1.7284
-1.72254
-1.71588
-1.7082
-1.69955
-1.69012
-1.68006
-1.66951
-1.65865
-1.6478
-1.63731
-1.62737
-1.61771
-1.60744
-1.59603
-1.58507
-1.57824
-1.57817
-1.58058
-1.59569
-1.63687
-1.88715
-1.8825
-1.8776
-1.87217
-1.86592
-1.85873
-1.85072
-1.84212
-1.83312
-1.82386
-1.8145
-1.8053
-1.79661
-1.78875
-1.78186
-1.77561
-1.76953
-1.76406
-1.76122
-1.76407
-1.77389
-1.79403
-1.83127
-2.04064
-2.03629
-2.03194
-2.02697
-2.02115
-2.01452
-2.00725
-1.99965
-1.99195
-1.98431
-1.97682
-1.96964
-1.96299
-1.95716
-1.95244
-1.94897
-1.94676
-1.94614
-1.94786
-1.95319
-1.96343
-1.99751
-2.05788
-2.19961
-2.19548
-2.19165
-2.18716
-2.18185
-2.17587
-2.16953
-2.16318
-2.15708
-2.15138
-2.14609
-2.1412
-2.13674
-2.13286
-2.12977
-2.12775
-2.12715
-2.12854
-2.13248
-2.13962
-2.15395
-2.19166
-2.27261
-2.36407
-2.36021
-2.35692
-2.35295
-2.34824
-2.34308
-2.3379
-2.33309
-2.32896
-2.32557
-2.3228
-2.32041
-2.3182
-2.31607
-2.31405
-2.31237
-2.31137
-2.31172
-2.31383
-2.3175
-2.32587
-2.34457
-2.40337
-2.53398
-2.5305
-2.52782
-2.52444
-2.52046
-2.51633
-2.51258
-2.50968
-2.50792
-2.50726
-2.50738
-2.50776
-2.50791
-2.50746
-2.50618
-2.50405
-2.50122
-2.49797
-2.49393
-2.48771
-2.47877
-2.46777
-2.47521
-2.70919
-2.70624
-2.70427
-2.70161
-2.69854
-2.69569
-2.69368
-2.69307
-2.69411
-2.69665
-2.70011
-2.70366
-2.70651
-2.70805
-2.70781
-2.70544
-2.7007
-2.69317
-2.68115
-2.66127
-2.63048
-2.58654
-2.54404
-2.8894
-2.88716
-2.88603
-2.88425
-2.88233
-2.88105
-2.88113
-2.88321
-2.88753
-2.89379
-2.90113
-2.9084
-2.9146
-2.91899
-2.92093
-2.91984
-2.91497
-2.905
-2.88697
-2.85587
-2.80747
-2.74151
-2.67446
-3.07416
-3.07283
-3.07266
-3.07195
-3.07144
-3.07204
-3.07456
-3.07974
-3.08785
-3.09841
-3.11035
-3.12221
-3.13291
-3.14173
-3.14807
-3.15139
-3.15022
-3.14227
-3.12397
-3.08949
-3.03471
-2.96199
-2.88804
-3.26291
-3.26264
-3.26355
-3.26408
-3.26522
-3.26795
-3.27322
-3.28188
-3.29423
-3.30974
-3.32715
-3.34485
-3.3619
-3.37781
-3.39246
-3.4057
-3.41509
-3.41771
-3.4116
-3.39192
-3.35219
-3.29173
-3.21002
-3.45488
-3.45581
-3.45785
-3.45975
-3.46268
-3.46772
-3.47594
-3.48832
-3.50528
-3.52633
-3.55016
-3.57524
-3.60103
-3.62772
-3.65632
-3.68778
-3.71891
-3.74875
-3.78017
-3.81051
-3.81892
-3.79567
-3.71015
-3.6491
-3.6513
-3.65445
-3.65777
-3.66258
-3.66998
-3.68118
-3.69733
-3.71906
-3.74604
-3.77714
-3.8112
-3.84829
-3.88996
-3.93889
-3.99841
-4.06573
-4.14861
-4.25782
-4.39028
-4.49387
-4.51237
-4.40429
-3.84438
-3.84784
-3.852
-3.85671
-3.86335
-3.87302
-3.88707
-3.90685
-3.93325
-3.96625
-4.00514
-4.04937
-4.09998
-4.1603
-4.23514
-4.33179
-4.44976
-4.61422
-4.84178
-5.13784
-5.44643
-5.59046
-5.46612
-4.03932
-4.04396
-4.04898
-4.05495
-4.06324
-4.07498
-4.09159
-4.11466
-4.14535
-4.18407
-4.23067
-4.28541
-4.35049
-4.43102
-4.53439
-4.67189
-4.84896
-5.11132
-5.47566
-5.99999
-6.60568
-7.10607
-6.86529
-4.23243
-4.23808
-4.24375
-4.25076
-4.26044
-4.27391
-4.29272
-4.31861
-4.35302
-4.39678
-4.45035
-4.5148
-4.59332
-4.69225
-4.82123
-4.99287
-5.22236
-5.56502
-6.04476
-6.81215
-7.51529
-7.9713
-7.77386
-4.42225
-4.42867
-4.43472
-4.44249
-4.4532
-4.46804
-4.48863
-4.51683
-4.5543
-4.60221
-4.66152
-4.73389
-4.82305
-4.93564
-5.08182
-5.27223
-5.53016
-5.89572
-6.41716
-7.24857
-7.86223
-8.19275
-8.10702
-4.60739
-4.61433
-4.6205
-4.62868
-4.64007
-4.65588
-4.67784
-4.70788
-4.74777
-4.79889
-4.86246
-4.94042
-5.03642
-5.15658
-5.30947
-5.50281
-5.75962
-6.09137
-6.57531
-7.23666
-7.80218
-8.03271
-8.0629
-4.78668
-4.79387
-4.7999
-4.80822
-4.81994
-4.83641
-4.85941
-4.8909
-4.93263
-4.98602
-5.05233
-5.13335
-5.23221
-5.3538
-5.50418
-5.68899
-5.92345
-6.20304
-6.61009
-7.01384
-7.59571
-7.84418
-7.91392
-4.95923
-4.96639
-4.97212
-4.98034
-4.99217
-5.00908
-5.03292
-5.06556
-5.10865
-5.16344
-5.23098
-5.31263
-5.41067
-5.52841
-5.66945
-5.83784
-6.04018
-6.27605
-6.59883
-6.83853
-7.33467
-7.57755
-7.66057
-5.12445
-5.13137
-5.13671
-5.14472
-5.15658
-5.17389
-5.19848
-5.23209
-5.2761
-5.33142
-5.39872
-5.47884
-5.5731
-5.68328
-5.81082
-5.95773
-6.12469
-6.31725
-6.55222
-6.73831
-7.0098
-7.16719
-7.23731
-5.28205
-5.28855
-5.29351
-5.30134
-5.31331
-5.33111
-5.35652
-5.39099
-5.43548
-5.49043
-5.55608
-5.63282
-5.72128
-5.82206
-5.93503
-6.0603
-6.19493
-6.34157
-6.48828
-6.59798
-6.6761
-6.77818
-6.79668
-5.43186
-5.43783
-5.44252
-5.45032
-5.46259
-5.4811
-5.50745
-5.54269
-5.5872
-5.64088
-5.70358
-5.77551
-5.85705
-5.94827
-6.04829
-6.15616
-6.26722
-6.38131
-6.47394
-6.51757
-6.48715
-6.60988
-6.62678
-5.57401
-5.57942
-5.58398
-5.59195
-5.60476
-5.6242
-5.65155
-5.68737
-5.73137
-5.7829
-5.84157
-5.90769
-5.98192
-6.06442
-6.15424
-6.2503
-6.34775
-6.44926
-6.53431
-6.60254
-6.63897
-6.81
-6.89559
-5.70917
-5.71406
-5.71866
-5.72703
-5.74059
-5.76105
-5.78929
-5.82529
-5.86812
-5.91667
-5.97054
-6.03043
-6.09757
-6.17245
-6.25422
-6.34176
-6.43105
-6.53044
-6.62947
-6.75399
-6.89718
-7.07111
-7.19351
-5.83821
-5.84275
-5.84754
-5.85654
-5.87098
-5.8924
-5.92121
-5.95679
-5.99769
-6.04259
-6.09132
-6.14525
-6.20623
-6.27493
-6.35006
-6.42981
-6.51093
-6.60549
-6.70739
-6.84934
-7.01519
-7.119
-7.17831
-5.96136
-5.96576
-5.97087
-5.98065
-5.99597
-6.01809
-6.04691
-6.08129
-6.11946
-6.16024
-6.20405
-6.25301
-6.30953
-6.374
-6.44416
-6.51697
-6.5891
-6.6728
-6.75762
-6.87871
-6.98439
-6.98619
-6.97975
-6.07827
-6.08278
-6.08822
-6.09881
-6.11477
-6.13709
-6.1651
-6.19731
-6.23193
-6.26824
-6.30754
-6.3528
-6.40659
-6.4686
-6.5355
-6.60376
-6.67023
-6.747
-6.81184
-6.90648
-6.9266
-6.8269
-6.7377
-6.18984
-6.19477
-6.20043
-6.21164
-6.22785
-6.24964
-6.27595
-6.30503
-6.33542
-6.36717
-6.40257
-6.44517
-6.49708
-6.5567
-6.61964
-6.68342
-6.74707
-6.82811
-6.89093
-6.99636
-6.98755
-6.81073
-6.63792
-6.29855
-6.30427
-6.31
-6.32156
-6.33755
-6.35815
-6.38201
-6.40749
-6.43371
-6.46172
-6.4946
-6.5358
-6.58598
-6.64164
-6.69768
-6.75356
-6.8113
-6.89854
-6.96514
-7.13843
-7.23977
-7.10222
-7.29944
-6.40482
-6.41154
-6.41723
-6.42871
-6.444
-6.46291
-6.48411
-6.50636
-6.52961
-6.55577
-6.58813
-6.62902
-6.67708
-6.72732
-6.7753
-6.82203
-6.86875
-6.94073
-6.96107
-7.17665
-7.36836
-7.3558
-8.74729
-6.50528
-6.51264
-6.51823
-6.52901
-6.54304
-6.55995
-6.5788
-6.599
-6.62105
-6.64694
-6.6792
-6.71873
-6.76327
-6.80869
-6.85344
-6.90048
-6.94908
-7.0064
-6.96644
-7.08691
-6.97201
-7.17575
-8.23351
-6.60335
-6.61078
-6.61637
-6.6259
-6.63817
-6.65301
-6.67011
-6.68935
-6.71114
-6.73649
-6.76647
-6.80134
-6.84021
-6.88223
-6.92854
-6.98269
-7.04636
-7.12139
-7.13786
-7.20809
-6.77839
-6.0489
-4.3864
-6.70939
-6.71832
-6.7235
-6.73153
-6.74177
-6.75443
-6.76974
-6.78782
-6.80859
-6.83177
-6.8571
-6.88485
-6.91636
-6.95381
-6.99924
-7.05445
-7.12376
-7.22192
-7.34686
-7.67644
-8.63388
-8.30353
-21.3835
-8.51922
0.95053
0.781925
0.635583
-6.62962
-2.90978
0.688032
0.559933
14.5983
-7.39007
-0.44769
0.420856
17.1203
-2.69707
-2.52622
0.251524
15.9402
2.25202
-9.11426
-1.16905
4.14955
-0.976388
-7.85408
-3.57356
-1.46212
1.61481
-0.596113
-7.61528
-1.54941
-1.94363
-8.53231
-6.86257
-1.64132
-1.70968
-1.47734
5.29515
-1.66913
-1.61666
-0.711789
8.31237
-1.82163
-1.81122
-1.22148
0.843118
-2.07296
-2.1357
-2.17391
-2.07889
-2.31687
-2.38271
-2.56007
-2.51053
-2.46012
-2.48642
-2.57841
-2.61627
-2.5011
-2.51685
-2.54458
-2.62548
-2.53986
-2.55343
-2.54542
-2.57879
-2.65138
-2.64113
-2.583
-2.58384
-2.8465
-2.7958
-2.65269
-2.56347
-3.14157
-3.08479
-2.919
1.48918
-3.5722
-3.46904
-3.54715
-3.2985
-4.17952
-3.95098
-3.18566
-3.46712
-5.09711
-4.75774
-3.98534
0.886645
-6.25215
-5.71022
-5.4869
2.51815
-7.14256
-6.38054
-6.55481
-2.91508
-7.62551
-6.82626
-6.93717
-3.82245
-7.67448
-7.65978
-7.53117
-3.5823
-7.61425
-8.31245
-6.47228
-1.95961
-7.53638
-8.63022
-4.68841
-1.12443
-6.93356
-8.57812
-3.65885
-1.16033
-6.67507
-7.63636
-1.25423
-1.60914
-6.70607
-7.03398
0.98516
-1.83469
-7.34792
-5.53678
-1.80211
-2.00742
-8.13044
-5.57239
-4.20364
-2.66217
-7.6726
-5.48531
-3.75685
-3.33503
-7.11475
-4.75247
-3.76925
-4.17126
-6.36003
-2.41939
-4.36387
-5.03114
-4.2677
-2.59249
-5.03913
-5.74863
-4.01979
-10.5896
-6.86998
-6.29374
-14.7254
-15.5469
-9.6982
-6.66195
-95.9501
-51.1015
-17.0364
-6.63646
-398.098
-454.161
-64.3832
-5.35558
-735.468
-912.139
-208.392
-9.74665
0.486148
0.399277
0.355956
0.31886
0.288134
0.261796
0.238181
0.216652
0.197047
0.179151
0.162902
0.148303
0.135383
0.12418
0.114754
0.107148
0.101391
0.097521
0.0955758
0.39052
0.306125
0.25567
0.217359
0.184814
0.157003
0.132317
0.109932
0.0895441
0.070931
0.0540282
0.0388327
0.0253769
0.0137066
0.00388373
-0.00404161
-0.0100472
-0.0140885
-0.0161183
0.238743
0.198636
0.150265
0.112598
0.0792753
0.050671
0.0253282
0.00228337
-0.0187873
-0.038071
-0.0556137
-0.0714073
-0.0854122
-0.0975632
-0.107796
-0.116056
-0.122321
-0.126541
-0.128661
0.177061
0.0724765
0.041825
0.00507537
-0.0285393
-0.0571918
-0.082807
-0.106329
-0.127982
-0.147893
-0.166064
-0.18246
-0.197027
-0.209674
-0.220329
-0.228939
-0.235474
-0.239882
-0.242097
0.0283706
-0.103569
-0.0766737
-0.106759
-0.138581
-0.166542
-0.192079
-0.215914
-0.23806
-0.258563
-0.277355
-0.294364
-0.309508
-0.32267
-0.333763
-0.342736
-0.349555
-0.35416
-0.356476
-0.166637
-0.27882
-0.186356
-0.222802
-0.25064
-0.277144
-0.302439
-0.326449
-0.349033
-0.370098
-0.389513
-0.407154
-0.422894
-0.436595
-0.448148
-0.457499
-0.464614
-0.469426
-0.471849
-0.588286
-0.382873
-0.313188
-0.342548
-0.364116
-0.38888
-0.413811
-0.437933
-0.460904
-0.482515
-0.502562
-0.520857
-0.537224
-0.551491
-0.563531
-0.573277
-0.580705
-0.585733
-0.588268
-0.451796
-0.393514
-0.47346
-0.461459
-0.477581
-0.501699
-0.52617
-0.550342
-0.573676
-0.595833
-0.616525
-0.635498
-0.652537
-0.667407
-0.679963
-0.690128
-0.697882
-0.703136
-0.705789
-0.311699
-0.566736
-0.626826
-0.582153
-0.591265
-0.615405
-0.63953
-0.663688
-0.687364
-0.710058
-0.731422
-0.751112
-0.76887
-0.784389
-0.797495
-0.808108
-0.816207
-0.821698
-0.824472
-1.42891
-0.947561
-0.74686
-0.698479
-0.706578
-0.729811
-0.753852
-0.777981
-0.801961
-0.825203
-0.847277
-0.867736
-0.886261
-0.902486
-0.916184
-0.927281
-0.935743
-0.941481
-0.944382
-8.24054
-1.2096
-0.836897
-0.80695
-0.823875
-0.845085
-0.869107
-0.893193
-0.917443
-0.941278
-0.96411
-0.985403
-1.00476
-1.02175
-1.03609
-1.04771
-1.05655
-1.06255
-1.06558
-13.9121
-0.887021
-0.890129
-0.915794
-0.942727
-0.961711
-0.985359
-1.00927
-1.03376
-1.05826
-1.08193
-1.10415
-1.12442
-1.14223
-1.15727
-1.16945
-1.1787
-1.18498
-1.18814
-13.0174
-0.869799
-0.945254
-1.03165
-1.06561
-1.08048
-1.10264
-1.12608
-1.1508
-1.17609
-1.20076
-1.22403
-1.2453
-1.264
-1.2798
-1.29257
-1.30227
-1.30882
-1.31213
-11.2332
-1.13842
-1.0455
-1.16617
-1.19621
-1.20172
-1.22073
-1.24335
-1.26843
-1.29471
-1.32058
-1.34507
-1.36746
-1.38713
-1.40374
-1.41715
-1.42731
-1.43416
-1.43761
-10.3864
-1.57328
-1.24046
-1.327
-1.33338
-1.32437
-1.33893
-1.36067
-1.38644
-1.41404
-1.44141
-1.46733
-1.49097
-1.51169
-1.52916
-1.54325
-1.5539
-1.56105
-1.56465
-8.88655
-2.16788
-1.52053
-1.50341
-1.46984
-1.44538
-1.45592
-1.4775
-1.50467
-1.53409
-1.56328
-1.59087
-1.6159
-1.63776
-1.65615
-1.67094
-1.6821
-1.68957
-1.69332
-7.06451
-3.02405
-1.81432
-1.66905
-1.59399
-1.56079
-1.5702
-1.59339
-1.62303
-1.6549
-1.68631
-1.71579
-1.74236
-1.76543
-1.78478
-1.80031
-1.81198
-1.81978
-1.82368
-5.48967
-3.09738
-1.9955
-1.79263
-1.69586
-1.6669
-1.6806
-1.70809
-1.7416
-1.77667
-1.81068
-1.84226
-1.87047
-1.89481
-1.91514
-1.93142
-1.94361
-1.95173
-1.95579
-3.45875
-2.83314
-2.05005
-1.85963
-1.77333
-1.76234
-1.78689
-1.8218
-1.86069
-1.89969
-1.93666
-1.97048
-2.00039
-2.02601
-2.04733
-2.06434
-2.07705
-2.08549
-2.08969
-2.2398
-2.7688
-1.98829
-1.87666
-1.82899
-1.849
-1.89026
-1.9353
-1.98084
-2.0244
-2.06458
-2.10071
-2.1323
-2.15918
-2.18145
-2.19916
-2.21236
-2.2211
-2.22544
-0.661158
-1.47322
-1.76057
-1.85098
-1.87082
-1.9319
-1.99318
-2.04993
-2.10286
-2.1513
-2.1948
-2.23321
-2.2664
-2.29446
-2.31759
-2.33594
-2.34959
-2.3586
-2.36308
-0.175602
-0.166508
-1.53494
-1.82165
-1.92185
-2.01917
-2.09908
-2.1674
-2.22765
-2.28093
-2.32767
-2.36824
-2.40291
-2.43199
-2.45587
-2.47476
-2.48879
-2.49804
-2.50262
-1.75967
-0.489976
-1.5308
-1.84887
-2.00079
-2.11747
-2.21119
-2.28933
-2.35612
-2.41383
-2.46354
-2.50604
-2.54198
-2.57191
-2.59637
-2.61568
-2.63
-2.63943
-2.6441
-1.74355
-1.29989
-1.69287
-1.94587
-2.10561
-2.22859
-2.33128
-2.41684
-2.48902
-2.55048
-2.60269
-2.6468
-2.68375
-2.71432
-2.73918
-2.75875
-2.77325
-2.78281
-2.78753
-2.11595
-1.80239
-1.89565
-2.08131
-2.22671
-2.35129
-2.4597
-2.55062
-2.62693
-2.69126
-2.74537
-2.79067
-2.82834
-2.8593
-2.88435
-2.90402
-2.91857
-2.92817
-2.93291
-3.00799
-2.10207
-2.08818
-2.22357
-2.35677
-2.48369
-2.5963
-2.69106
-2.77024
-2.83647
-2.89178
-2.93778
-2.97579
-3.00688
-3.03191
-3.05149
-3.06597
-3.07551
-3.08023
-3.12068
-2.21039
-2.22638
-2.35282
-2.49167
-2.62458
-2.74105
-2.83844
-2.91925
-2.98637
-3.04207
-3.08818
-3.12614
-3.15706
-3.18184
-3.20116
-3.21542
-3.22483
-3.22948
-1.99944
-2.11791
-2.29255
-2.46994
-2.63216
-2.77443
-2.89428
-2.993
-3.07417
-3.14111
-3.19635
-3.24193
-3.27937
-3.3098
-3.33411
-3.353
-3.36691
-3.37608
-3.38062
-0.855982
-2.00526
-2.34311
-2.59726
-2.78481
-2.93532
-3.05672
-3.15503
-3.23512
-3.30073
-3.35464
-3.39902
-3.43546
-3.46507
-3.48866
-3.50693
-3.52038
-3.52923
-3.53362
-0.865732
-2.01456
-2.4556
-2.75628
-2.95711
-3.10973
-3.22922
-3.32473
-3.40202
-3.46512
-3.51684
-3.55937
-3.59433
-3.62276
-3.64539
-3.6629
-3.67574
-3.6842
-3.6884
-1.70058
-2.18301
-2.6629
-2.95749
-3.15271
-3.29915
-3.41221
-3.50201
-3.57463
-3.634
-3.68272
-3.72282
-3.75586
-3.78277
-3.80421
-3.82078
-3.83293
-3.84092
-3.84488
-2.474
-2.52211
-2.93681
-3.19818
-3.37373
-3.50378
-3.60537
-3.6864
-3.75251
-3.80699
-3.85196
-3.88914
-3.91985
-3.94495
-3.96499
-3.98047
-3.99182
-3.99928
-4.00299
-3.01815
-2.96426
-3.27508
-3.47717
-3.61635
-3.72177
-3.80738
-3.87703
-3.93502
-3.9836
-4.02418
-4.058
-4.0861
-4.10913
-4.12758
-4.14185
-4.1523
-4.15919
-4.16261
-3.59284
-3.52772
-3.66803
-3.78479
-3.87534
-3.94952
-4.0161
-4.07256
-4.12132
-4.16323
-4.19893
-4.22909
-4.25433
-4.27512
-4.29181
-4.30476
-4.31425
-4.32051
-4.32362
-4.26541
-4.174
-4.09962
-4.10706
-4.14203
-4.18205
-4.22876
-4.27125
-4.31031
-4.34521
-4.37577
-4.40206
-4.42428
-4.44268
-4.45752
-4.46905
-4.47753
-4.48312
-4.4859
-4.95975
-4.83342
-4.53577
-4.42433
-4.4069
-4.41446
-4.44198
-4.47116
-4.50084
-4.52884
-4.55423
-4.57655
-4.59567
-4.61161
-4.62452
-4.63458
-4.64198
-4.64687
-4.64931
-5.5926
-5.41847
-4.92666
-4.71535
-4.66118
-4.64268
-4.65257
-4.67048
-4.69179
-4.71343
-4.73385
-4.75226
-4.76825
-4.78169
-4.79262
-4.80116
-4.80746
-4.81163
-4.81372
-6.09187
-5.86301
-5.21509
-4.95806
-4.9041
-4.86241
-4.85866
-4.86791
-4.88235
-4.8984
-4.91423
-4.92887
-4.94178
-4.95271
-4.96164
-4.96864
-4.97382
-4.97725
-4.97897
-6.39102
-6.05133
-5.44406
-5.16834
-5.10844
-5.06926
-5.05932
-5.06287
-5.07203
-5.08336
-5.09506
-5.10614
-5.11603
-5.12448
-5.13141
-5.13686
-5.1409
-5.14358
-5.14492
-6.154
-5.99037
-5.55312
-5.34145
-5.29365
-5.26506
-5.25479
-5.25533
-5.26068
-5.26811
-5.27611
-5.28384
-5.29082
-5.29681
-5.30175
-5.30564
-5.30853
-5.31045
-5.31142
-5.12022
-5.54318
-5.53556
-5.48752
-5.46923
-5.45362
-5.44643
-5.44587
-5.44851
-5.45265
-5.45728
-5.46183
-5.46598
-5.46955
-5.4725
-5.47484
-5.47658
-5.47773
-5.47832
-5.5284
-5.7256
-5.59577
-5.65226
-5.64477
-5.63772
-5.63495
-5.63462
-5.63545
-5.63681
-5.63835
-5.63988
-5.64126
-5.64246
-5.64345
-5.64423
-5.64482
-5.64521
-5.6454
)
;

boundaryField
{
    leftWall
    {
        type            calculated;
        value           nonuniform List<scalar> 
50
(
1639.24
1458.09
1274.9
1089.74
902.717
713.643
522.34
328.722
176.764
75.0624
15.1077
-0.957482
-1.06766
-1.19204
-1.32404
-1.45805
-1.59624
-1.73911
-1.88715
-2.04064
-2.19961
-2.36407
-2.53398
-2.70919
-2.8894
-3.07416
-3.26291
-3.45488
-3.6491
-3.84438
-4.03932
-4.23243
-4.42225
-4.60739
-4.78668
-4.95923
-5.12445
-5.28205
-5.43186
-5.57401
-5.70917
-5.83821
-5.96136
-6.07827
-6.18984
-6.29855
-6.40482
-6.50528
-6.60335
-6.70939
)
;
    }
    rightWall
    {
        type            calculated;
        value           nonuniform List<scalar> 
50
(
1.54917
1.36857
1.18633
1.00242
0.816748
0.629216
0.439693
0.248023
0.0955758
-0.0161183
-0.128661
-0.242097
-0.356476
-0.471849
-0.588268
-0.705789
-0.824472
-0.944382
-1.06558
-1.18814
-1.31213
-1.43761
-1.56465
-1.69332
-1.82368
-1.95579
-2.08969
-2.22544
-2.36308
-2.50262
-2.6441
-2.78753
-2.93291
-3.08023
-3.22948
-3.38062
-3.53362
-3.6884
-3.84488
-4.00299
-4.16261
-4.32362
-4.4859
-4.64931
-4.81372
-4.97897
-5.14492
-5.31142
-5.47832
-5.6454
)
;
    }
    lowerWall
    {
        type            calculated;
        value           nonuniform List<scalar> 
62
(
1728.75
1729.45
1729.97
1730.44
1730.86
1731.49
1732.42
1733.68
1735.27
1737.18
1739.43
1741.96
1744.72
1747.6
1750.52
1753.35
1755.94
1758.1
1759.73
1760.58
1760.63
1756.67
1742.48
1667.5
1500.1
1329.71
1154.58
979.188
805.387
624.363
408.959
25.1707
1.00355
0.833115
0.686735
1.67581
1.4996
1.32618
1.15663
0.990997
0.832752
0.683305
0.538888
1.76533
1.76287
1.75806
1.75132
1.74303
1.7336
1.72346
1.71296
1.70244
1.69218
1.68241
1.6733
1.66504
1.65774
1.65152
1.64644
1.64258
1.63999
1.63869
)
;
    }
    atmosphere
    {
        type            calculated;
        value           nonuniform List<scalar> 
46
(
-6.76848
-6.78165
-6.78532
-6.79251
-6.80163
-6.81295
-6.82685
-6.84356
-6.86292
-6.88425
-6.90672
-6.93019
-6.95616
-6.98778
-7.02806
-7.07813
-7.13908
-7.22063
-7.30899
-7.56501
-8.24125
-7.07785
-530.002
-1816.52
-2060.48
-958.485
-5.96324
-5.74191
-5.73265
-5.73236
-5.72911
-5.72904
-5.72904
-5.72904
-5.72904
-5.72904
-5.72904
-5.72904
-5.72904
-5.72904
-5.72904
-5.72904
-5.72904
-5.72904
-5.72904
-5.72904
)
;
    }
    defaultFaces
    {
        type            empty;
    }
}


// ************************************************************************* //
