/*--------------------------------*- C++ -*----------------------------------*\
| =========                 |                                                 |
| \\      /  F ield         | OpenFOAM: The Open Source CFD Toolbox           |
|  \\    /   O peration     | Version:  2206                                  |
|   \\  /    A nd           | Website:  www.openfoam.com                      |
|    \\/     M anipulation  |                                                 |
\*---------------------------------------------------------------------------*/
FoamFile
{
    version     2.0;
    format      ascii;
    arch        "LSB;label=32;scalar=64";
    class       volScalarField;
    location    "0.275";
    object      p_rgh;
}
// * * * * * * * * * * * * * * * * * * * * * * * * * * * * * * * * * * * * * //

dimensions      [1 -1 -2 0 0 0 0];

internalField   nonuniform List<scalar> 
2268
(
1728.75
1729.45
1729.97
1730.44
1730.86
1731.49
1732.42
1733.68
1735.27
1737.18
1739.43
1741.96
1744.72
1747.6
1750.52
1753.35
1755.94
1758.1
1759.73
1760.58
1760.63
1756.67
1742.48
1726.64
1727.35
1728.08
1728.68
1729.23
1729.95
1730.96
1732.29
1733.94
1735.91
1738.19
1740.76
1743.64
1746.75
1750
1753.31
1756.53
1759.52
1762.15
1764.18
1765.97
1766.57
1741.42
1722.48
1723.24
1724.29
1725.16
1725.91
1726.79
1727.94
1729.42
1731.26
1733.47
1736.06
1739
1742.24
1745.76
1749.47
1753.31
1757.16
1760.94
1764.59
1767.91
1771.28
1773.17
1755.09
1716.36
1717.19
1718.58
1719.73
1720.69
1721.73
1723.01
1724.63
1726.64
1729.08
1731.96
1735.3
1739.11
1743.32
1747.88
1752.68
1757.59
1762.47
1767.22
1771.48
1775.51
1777.57
1780.89
1708.36
1709.19
1710.77
1712.13
1713.2
1714.3
1715.61
1717.29
1719.42
1722.05
1725.22
1728.96
1733.29
1738.35
1743.93
1749.95
1756.23
1762.55
1768.72
1774.2
1779
1781.66
1784.83
1698.32
1699.14
1700.57
1701.84
1702.82
1703.75
1704.89
1706.4
1708.41
1711.01
1714.31
1718.41
1723.43
1729.33
1736.19
1743.86
1752.12
1760.64
1769.02
1776.57
1782.98
1786.96
1790.07
1686.05
1686.47
1687.28
1688.06
1688.61
1689.06
1689.61
1690.48
1691.84
1693.84
1696.62
1700.33
1705.19
1711.52
1719.64
1729.24
1740
1751.58
1763.44
1774.36
1782.98
1786.72
1788.07
1671.47
1671.14
1671.11
1670.79
1670.26
1669.56
1668.78
1668.14
1667.91
1668.36
1669.81
1672.5
1676.29
1680.93
1687.63
1697.1
1709.71
1724.92
1741.35
1756.59
1767.46
1771.16
1751.7
1.76533
1.76287
1.75806
1.75132
1.74303
1.7336
1.72346
1.71296
1.70244
1.69218
1.68241
1.6733
1.66504
1.65774
1.65152
1.64644
1.64258
1.63999
1.63869
1.76815
1.76545
1.76024
1.75306
1.74429
1.73441
1.72385
1.71298
1.70214
1.69161
1.6816
1.67231
1.66389
1.65647
1.65014
1.64499
1.64107
1.63844
1.63712
1.77376
1.7706
1.76459
1.75653
1.74678
1.73598
1.72459
1.71298
1.70151
1.69044
1.67998
1.6703
1.66156
1.65388
1.64734
1.64203
1.63799
1.63528
1.63391
1.78324
1.779
1.77152
1.76187
1.75049
1.73823
1.72555
1.71283
1.7004
1.68854
1.67741
1.66718
1.65798
1.64991
1.64306
1.6375
1.63329
1.63046
1.62903
1.79664
1.79061
1.7808
1.76884
1.75514
1.74088
1.72648
1.71229
1.69862
1.68575
1.67377
1.66282
1.65302
1.64445
1.6372
1.63133
1.62689
1.6239
1.62239
1.81743
1.80658
1.79302
1.77768
1.76063
1.74371
1.72714
1.71113
1.69595
1.68188
1.66887
1.65707
1.64655
1.63739
1.62965
1.6234
1.61867
1.61549
1.6139
1.84702
1.82587
1.80767
1.7874
1.76605
1.74596
1.72687
1.70888
1.69222
1.67666
1.66249
1.64972
1.63839
1.62855
1.62026
1.61357
1.60851
1.60511
1.6034
1.88163
1.85135
1.82497
1.79732
1.7706
1.74687
1.7251
1.70496
1.68655
1.66967
1.65434
1.64055
1.62835
1.61777
1.60887
1.60168
1.59625
1.5926
1.59077
1660.15
1657.68
1655.54
1653.38
1651.15
1648.63
1645.56
1642.12
1638.58
1635.29
1632.86
1632.7
1635.77
1642.38
1653.54
1662.87
1679.3
1702.25
1726.47
1745.1
1749.43
1733.37
1642.8
1604.65
1413.91
1402.73
1402
1381.69
1346.86
1302.15
1248.53
1187.54
1121.54
1054.29
976.273
914.433
869.453
875.679
958.622
1130.04
1342.66
1617.01
1719.6
1736.31
1727.77
1674.84
537.589
252.34
235.393
225.656
199.927
168.146
133.994
98.4303
63.957
32.4636
1.82315
0.933739
0.914849
0.942135
0.964193
3.14598
31.1109
113.776
306.641
783.63
1563.21
1749.99
1744.06
0.832843
0.836421
0.861386
0.869804
0.877496
0.889433
0.905509
0.925488
0.948439
0.97073
0.974868
0.947614
0.94433
0.967525
0.996853
1.03193
1.10074
1.23164
1.91248
9.72468
260.481
886.93
1799.23
0.824973
0.836132
0.845424
0.852139
0.85955
0.870078
0.883633
0.89956
0.916706
0.932341
0.941489
0.942591
0.948499
0.963951
0.984818
1.01098
1.0439
0.999743
1.46245
1.52783
1.07043
6.49068
402.713
0.802892
0.812782
0.8193
0.825947
0.833694
0.843434
0.855197
0.868584
0.882728
0.896225
0.907428
0.916689
0.927848
0.943359
0.96371
0.98925
1.01641
0.985563
0.90947
1.56138
1.01805
1.15807
1.6432
0.773201
0.780977
0.78874
0.795674
0.803454
0.812651
0.823271
0.835155
0.847801
0.860553
0.872866
0.884988
0.898171
0.913766
0.933177
0.956305
0.983232
0.986636
0.956005
0.966863
0.99324
1.02915
0.990673
0.741494
0.748685
0.755451
0.762031
0.769471
0.778135
0.787985
0.798893
0.810621
0.822851
0.835323
0.847995
0.861129
0.875325
0.891817
0.911443
0.932545
0.947097
0.944813
0.940364
0.94287
0.930799
0.863785
0.705605
0.711658
0.717838
0.724086
0.731138
0.739306
0.748541
0.758704
0.769645
0.781176
0.793098
0.80517
0.817205
0.829308
0.842281
0.857162
0.873529
0.887181
0.893253
0.898768
1.11425
1.06358
0.871785
0.665037
0.67023
0.675748
0.681612
0.688267
0.695954
0.704599
0.71403
0.724094
0.734645
0.745498
0.75635
0.766845
0.776781
0.786441
0.796713
0.808127
0.819081
0.825915
0.825982
1.25703
1.3679
1.17319
0.619305
0.623957
0.628856
0.634286
0.640534
0.647723
0.655732
0.664334
0.673338
0.682597
0.691954
0.701156
0.709847
0.717703
0.724593
0.730846
0.736933
0.7424
0.745238
0.742387
0.732566
1.02536
1.4478
0.568119
0.57247
0.576823
0.581794
0.587605
0.594243
0.601507
0.609107
0.616805
0.624451
0.631938
0.639123
0.645769
0.651596
0.656316
0.659796
0.662
0.662622
0.660905
0.655568
0.645337
1.27095
1.49091
0.511453
0.515582
0.519413
0.5239
0.529212
0.535189
0.541532
0.547886
0.553979
0.559681
0.564973
0.569868
0.574321
0.578206
0.581295
0.58331
0.583913
0.582527
0.578591
0.571449
0.967873
1.93931
1.86596
0.4493
0.453161
0.456448
0.460414
0.465132
0.470285
0.475473
0.480274
0.484404
0.487794
0.490568
0.492957
0.495167
0.497301
0.499314
0.501
0.501996
0.501654
0.499537
0.495867
0.513766
1.87549
1.89138
0.381695
0.385173
0.387855
0.39123
0.395216
0.399339
0.403095
0.405995
0.407754
0.408412
0.408293
0.407908
0.407758
0.408215
0.409494
0.411627
0.41445
0.417702
0.421745
0.427966
0.436907
0.808822
1.97571
0.30879
0.311732
0.313708
0.31637
0.319438
0.322284
0.324292
0.324911
0.323863
0.321323
0.317864
0.314317
0.311471
0.309926
0.310165
0.312538
0.317273
0.324807
0.33683
0.356707
0.387501
0.431435
1.56465
0.230886
0.233116
0.234253
0.236035
0.237951
0.239229
0.239146
0.237074
0.232748
0.226492
0.219147
0.211877
0.205682
0.20129
0.199353
0.200442
0.205313
0.215279
0.233313
0.264417
0.312819
0.378773
0.621673
0.148422
0.149756
0.149921
0.150634
0.151141
0.150548
0.148021
0.142841
0.134739
0.124174
0.112235
0.100379
0.0896756
0.0808502
0.074513
0.0711975
0.0723721
0.0803179
0.0986183
0.133095
0.187885
0.260597
0.334584
0.0619792
0.0622499
0.0613367
0.0608056
0.0596728
0.0569442
0.0516685
0.043012
0.0306603
0.0151466
-0.00226449
-0.019962
-0.0370138
-0.052922
-0.0675682
-0.0808096
-0.0901932
-0.092816
-0.0867102
-0.0670329
-0.0272372
0.033277
0.115212
-0.0276868
-0.0286127
-0.0306525
-0.0325524
-0.0354901
-0.0405296
-0.0487477
-0.061124
-0.0780858
-0.0991321
-0.122964
-0.14805
-0.173839
-0.200522
-0.229127
-0.260581
-0.291709
-0.321553
-0.352974
-0.383312
-0.391094
-0.361639
-0.278491
-0.119603
-0.121801
-0.124947
-0.12827
-0.133081
-0.140481
-0.151679
-0.167833
-0.189562
-0.216543
-0.247645
-0.2817
-0.318797
-0.360459
-0.409386
-0.468908
-0.536229
-0.619107
-0.728314
-0.86075
-0.959592
-0.924598
-0.863463
-0.212573
-0.216038
-0.2202
-0.224912
-0.231547
-0.241222
-0.255268
-0.275049
-0.301445
-0.334451
-0.373336
-0.417567
-0.468175
-0.528499
-0.603337
-0.699982
-0.817959
-0.982412
-1.20997
-1.50585
-0.412477
1.17006
-1.06579
-0.30521
-0.309849
-0.314871
-0.320844
-0.329138
-0.34087
-0.357488
-0.380555
-0.411244
-0.449966
-0.496562
-0.551307
-0.61638
-0.696913
-0.800283
-0.937774
-1.11485
-1.37721
-1.74155
-2.26495
1.412
1.97332
-0.431913
-0.396024
-0.40167
-0.407334
-0.414349
-0.424026
-0.437499
-0.456313
-0.4822
-0.516608
-0.560373
-0.613942
-0.678389
-0.756909
-0.855838
-0.98482
-1.15642
-1.38593
-1.7286
-2.20835
-1.42704
1.81284
1.3918
-0.0103261
-0.483534
-0.489959
-0.496008
-0.503772
-0.514488
-0.529322
-0.549911
-0.578113
-0.615581
-0.663498
-0.72281
-0.795177
-0.88433
-0.996925
-1.1431
-1.33344
-1.5914
-1.957
-2.47843
0.865457
1.74684
1.39319
-1.56531
-0.56637
-0.573312
-0.579476
-0.587665
-0.599051
-0.614863
-0.636825
-0.666865
-0.70675
-0.757866
-0.821445
-0.899398
-0.995404
-1.11556
-1.26845
-1.46171
-1.71856
-2.05034
-2.43658
1.26599
0.405307
-2.56311
-3.67276
-0.643359
-0.650542
-0.656578
-0.664893
-0.676619
-0.693083
-0.716087
-0.747574
-0.789308
-0.842699
-0.909007
-0.990027
-1.08889
-1.21048
-1.36085
-1.54559
-1.78008
-2.0597
-2.44239
1.74559
-0.762287
-3.3429
-3.50459
-0.713599
-0.720763
-0.726494
-0.73471
-0.746547
-0.763456
-0.787288
-0.819932
-0.863026
-0.917817
-0.985351
-1.06701
-1.16504
-1.28278
-1.42383
-1.59213
-1.7945
-2.0304
-2.35318
-0.145434
0.0847408
-2.85819
-3.16702
-0.776519
-0.783436
-0.788779
-0.796788
-0.808652
-0.825954
-0.850543
-0.884158
-0.928164
-0.983484
-1.05079
-1.13091
-1.22517
-1.33534
-1.46289
-1.60976
-1.77672
-1.96929
-2.10524
-2.28926
0.554287
-2.46917
-2.638
-0.831811
-0.83831
-0.843276
-0.851107
-0.863075
-0.880877
-0.906284
-0.940758
-0.985242
-1.04019
-1.10584
-1.18259
-1.27105
-1.37182
-1.4848
-1.61005
-1.7446
-1.8913
-1.98774
-1.96529
1.06867
-1.63788
-2.08854
-0.87932
-0.885294
-0.889981
-0.897777
-0.910046
-0.928563
-0.954912
-0.990152
-1.03466
-1.08834
-1.15104
-1.22296
-1.30451
-1.39573
-1.49575
-1.6036
-1.7145
-1.82874
-1.89058
-1.75124
1.43567
0.0762241
-1.81042
-0.919169
-0.92458
-0.929138
-0.937109
-0.949918
-0.969355
-0.996708
-1.03252
-1.07652
-1.12806
-1.18673
-1.25285
-1.32708
-1.40957
-1.49939
-1.59544
-1.69272
-1.7944
-1.86033
-1.62797
-0.319788
-0.592293
-1.97692
-0.952017
-0.956915
-0.96151
-0.969886
-0.983444
-1.0039
-1.03214
-1.06814
-1.11097
-1.15952
-1.21339
-1.27328
-1.34042
-1.4153
-1.49707
-1.5846
-1.67373
-1.77328
-1.8717
-1.38616
-1.10425
-1.96688
-2.23028
-0.978758
-0.983293
-0.988085
-0.997085
-1.01153
-1.03295
-1.06175
-1.09734
-1.13824
-1.18313
-1.23187
-1.28579
-1.34678
-1.41548
-1.49061
-1.57035
-1.65146
-1.74603
-1.84793
-1.43487
-1.18718
-2.02181
-2.15433
-0.999603
-1.004
-1.00911
-1.01889
-1.03421
-1.05634
-1.08515
-1.11953
-1.15771
-1.19849
-1.24229
-1.29126
-1.34777
-1.41224
-1.4824
-1.55521
-1.62733
-1.71104
-1.79165
-1.80012
-1.20532
-1.77838
-1.91213
-1.01421
-1.01872
-1.02416
-1.03474
-1.05071
-1.07302
-1.10104
-1.13325
-1.16787
-1.20418
-1.24348
-1.28874
-1.34253
-1.40454
-1.47144
-1.53969
-1.60616
-1.68294
-1.73949
-1.79188
-1.52906
-1.60751
-1.623
-1.02347
-1.0284
-1.03406
-1.04528
-1.06148
-1.08328
-1.10958
-1.13867
-1.16906
-1.2008
-1.2362
-1.27881
-1.33071
-1.39033
-1.45328
-1.51705
-1.5807
-1.66174
-1.72355
-1.77888
-1.70759
-1.62928
-1.45154
-1.02988
-1.0356
-1.04133
-1.05289
-1.06888
-1.08947
-1.11334
-1.13882
-1.16504
-1.19305
-1.22593
-1.26713
-1.31731
-1.37297
-1.42901
-1.48489
-1.54263
-1.62987
-1.6962
-1.84843
-1.94641
-1.83354
-2.02675
-1.03385
-1.04056
-1.04626
-1.05773
-1.07303
-1.09194
-1.11313
-1.13538
-1.15864
-1.1848
-1.21716
-1.25804
-1.30611
-1.35635
-1.40432
-1.45106
-1.49778
-1.56975
-1.58999
-1.80568
-1.99739
-1.98482
4.64925
-1.032
-1.03936
-1.04495
-1.05573
-1.06976
-1.08667
-1.10553
-1.12572
-1.14777
-1.17366
-1.20592
-1.24546
-1.28999
-1.33541
-1.38016
-1.4272
-1.4758
-1.53312
-1.49316
-1.61363
-1.49875
-1.70247
548.064
-1.02777
-1.0352
-1.04079
-1.05032
-1.06259
-1.07743
-1.09453
-1.11376
-1.13556
-1.16091
-1.19089
-1.22575
-1.26463
-1.30664
-1.35296
-1.4071
-1.47078
-1.54581
-1.56228
-1.63251
-1.20283
-0.473318
1982.55
-1.0315
-1.04043
-1.04562
-1.05364
-1.06388
-1.07654
-1.09185
-1.10993
-1.1307
-1.15388
-1.17921
-1.20696
-1.23847
-1.27592
-1.32136
-1.37656
-1.44587
-1.54403
-1.66897
-1.99855
-2.95601
-2.62565
503.886
968.487
2.48819
2.26644
2.11901
1503.82
322.332
2.28511
2.14585
1700.91
1250.27
114.504
2.12086
1797.72
1767.84
814.795
10.2724
1657.11
1844.69
1666.59
296.146
418.98
1797.09
1796.77
917.561
0.722846
935.247
1868.1
1568.03
0.690895
0.32545
1513.89
1608.28
0.732782
0.664946
823.473
1644.12
0.811598
0.863259
202.742
1575.17
0.822772
0.786703
1.39883
1241.69
0.705082
0.591578
0.574888
887.48
0.791341
0.473893
0.329626
685.517
1.18297
0.512335
0.402033
536.644
1.60262
0.571979
0.480294
452.27
1.64048
0.611121
0.517917
460.557
0.821927
0.537026
0.555864
480.714
0.377402
0.429973
0.579889
558.217
0.183943
0.241737
4.27564
787.984
-0.143322
-0.0388339
116.17
931.193
-0.64692
-0.418013
411.882
964.953
-1.45679
-1.12142
402.141
996.701
-2.48007
-1.95773
296.397
1026.63
-3.17145
-2.49624
522.139
587.646
-3.42339
5.35514
907.09
220.975
-3.18489
85.4096
981.426
536.159
-3.11297
669.345
1031.24
1012.03
13.4651
1054.71
1065.83
982.62
3.14166
1087.73
1092.65
703.663
-1.96694
808.819
1120.85
429.497
-1.84261
549.968
1147.94
235.074
-2.32556
907.702
852.63
84.4302
12.3274
1097.22
303.817
19.9344
34.5031
1134.67
266.337
6.97875
102.035
1159.4
340.002
2.85227
673.241
1185.74
301.503
1.91227
1734.99
897.26
184.841
0.974609
1880.6
268.816
37.0629
-0.846727
1975.11
330.184
-3.90838
-1.27784
1955.15
1768.79
-2.41665
9.63063
1685.97
1629.9
671.63
123.177
1064.84
1129.94
741.535
-3.83666
1.96956
1.88269
1.83937
1.80227
1.77155
1.74521
1.72159
1.70006
1.68046
1.66256
1.64631
1.63172
1.61879
1.60759
1.59817
1.59056
1.5848
1.58093
1.57899
1.97624
1.89184
1.84139
1.80308
1.77053
1.74272
1.71803
1.69565
1.67526
1.65665
1.63974
1.62455
1.61109
1.59942
1.5896
1.58167
1.57567
1.57163
1.5696
1.92686
1.88666
1.83829
1.80062
1.7673
1.73869
1.71335
1.6903
1.66923
1.64995
1.63241
1.61661
1.60261
1.59046
1.58022
1.57196
1.5657
1.56148
1.55936
1.97032
1.86281
1.83215
1.7954
1.76179
1.73313
1.70752
1.684
1.66234
1.64243
1.62426
1.60787
1.5933
1.58065
1.57
1.56139
1.55485
1.55044
1.54823
1.99367
1.78933
1.81596
1.78587
1.75405
1.72609
1.70055
1.67672
1.65457
1.63407
1.61527
1.59827
1.58312
1.56996
1.55887
1.54989
1.54307
1.53847
1.53615
15.8532
1.72239
1.8087
1.77214
1.74429
1.71779
1.69249
1.66848
1.6459
1.62484
1.60542
1.58778
1.57204
1.55834
1.54679
1.53743
1.53032
1.52551
1.52308
128.185
1.83076
1.78614
1.75474
1.73312
1.70836
1.68343
1.6593
1.63633
1.61472
1.59468
1.57638
1.56001
1.54575
1.53371
1.52396
1.51653
1.51151
1.50897
419.692
2.43169
1.7407
1.73848
1.72197
1.69784
1.67337
1.6492
1.62587
1.60371
1.58302
1.56404
1.54701
1.53214
1.51958
1.50941
1.50166
1.49641
1.49375
685.741
3.30819
1.72687
1.72126
1.71063
1.68644
1.66232
1.63816
1.61448
1.59179
1.57042
1.55073
1.53298
1.51746
1.50435
1.49374
1.48564
1.48015
1.47737
876.672
8.2771
1.76098
1.70923
1.69771
1.67434
1.6503
1.62617
1.60219
1.57895
1.55687
1.53641
1.51789
1.50166
1.48797
1.47687
1.46841
1.46267
1.45977
1072.3
44.4566
1.83568
1.70666
1.68286
1.66138
1.63735
1.61326
1.58901
1.56518
1.54234
1.52105
1.5017
1.48471
1.47037
1.45875
1.4499
1.4439
1.44087
1071.56
129.095
1.98992
1.70604
1.66659
1.64707
1.6234
1.59949
1.575
1.5505
1.52683
1.50461
1.48434
1.46653
1.45149
1.43931
1.43005
1.42378
1.42062
1065.94
198.949
2.18324
1.70148
1.64648
1.63063
1.60842
1.58499
1.56026
1.53497
1.51031
1.48704
1.46577
1.44706
1.43127
1.41849
1.4088
1.40224
1.39894
1088.51
229.618
2.30244
1.67766
1.61865
1.61171
1.59264
1.57002
1.54494
1.51866
1.49279
1.4683
1.44591
1.42624
1.40963
1.39622
1.38606
1.37921
1.37576
1075.79
227.605
2.24356
1.62287
1.58405
1.59138
1.57675
1.555
1.52924
1.50163
1.47426
1.44834
1.42471
1.40398
1.38651
1.37243
1.36177
1.35462
1.35102
1061.67
193.065
2.02301
1.54747
1.54988
1.57268
1.56206
1.54047
1.51331
1.48389
1.45469
1.42711
1.40208
1.38022
1.36183
1.34703
1.33588
1.3284
1.32465
964.011
119.049
1.69859
1.47651
1.52767
1.55955
1.55008
1.52689
1.49725
1.46538
1.43397
1.40449
1.37792
1.35485
1.3355
1.31997
1.3083
1.3005
1.2966
646.579
51.2762
1.474
1.44625
1.52764
1.55573
1.54199
1.51449
1.48098
1.44592
1.4119
1.38033
1.35212
1.32778
1.30744
1.29117
1.27897
1.27085
1.2668
654.854
32.025
1.46567
1.4779
1.55226
1.56258
1.538
1.50309
1.4642
1.4252
1.38823
1.35441
1.3245
1.29888
1.27756
1.26055
1.24784
1.2394
1.23519
845.157
30.1318
1.63116
1.56315
1.59888
1.57822
1.53694
1.4919
1.44635
1.40279
1.36261
1.32649
1.2949
1.26801
1.24575
1.22804
1.21484
1.20609
1.20175
773.66
22.0064
1.96372
1.69093
1.65933
1.59763
1.53632
1.47957
1.42664
1.3782
1.3347
1.29629
1.26309
1.23504
1.21191
1.19356
1.17991
1.17089
1.16642
524.455
8.14104
2.24
1.8191
1.71041
1.61265
1.53272
1.4644
1.40415
1.35087
1.30413
1.26356
1.2289
1.19981
1.17594
1.15704
1.14302
1.13376
1.12918
220.935
4.20391
2.2733
1.88948
1.73353
1.61664
1.52291
1.44478
1.37799
1.32028
1.27057
1.22807
1.19213
1.1622
1.13774
1.11843
1.10411
1.09467
1.09
36.317
2.86687
2.167
1.89194
1.73087
1.60783
1.50513
1.41957
1.34739
1.28593
1.23372
1.18961
1.15266
1.12209
1.09723
1.07766
1.06316
1.0536
1.04888
3.64533
2.2335
2.04912
1.8578
1.71202
1.58742
1.47902
1.3881
1.31179
1.24746
1.19334
1.14804
1.11038
1.07942
1.05437
1.0347
1.02014
1.01055
1.00581
15.0646
1.98023
1.95511
1.81754
1.68425
1.55733
1.44472
1.34996
1.27078
1.20455
1.14924
1.10324
1.06523
1.03414
1.00911
0.989529
0.975053
0.965507
0.960788
30.7828
1.97049
1.91848
1.79056
1.65166
1.51874
1.40227
1.30488
1.22408
1.15695
1.10125
1.05515
1.01718
0.986268
0.961482
0.942162
0.927899
0.918495
0.913843
25.7019
2.16657
1.95392
1.77572
1.61347
1.4712
1.35134
1.25263
1.17145
1.10451
1.04927
1.0037
0.966254
0.935824
0.911515
0.892632
0.878716
0.869543
0.865004
11.5596
2.36239
2.00527
1.75068
1.56313
1.41261
1.29121
1.19291
1.11281
1.0472
0.993289
0.948914
0.912468
0.882867
0.859274
0.840998
0.827556
0.818701
0.814315
4.56501
2.43969
1.99509
1.69397
1.49312
1.34051
1.22102
1.12551
1.04822
0.985117
0.933397
0.890864
0.855902
0.827479
0.804843
0.78734
0.774493
0.766034
0.761841
3.72259
2.36997
1.88965
1.59505
1.39983
1.25339
1.14033
1.05053
0.977915
0.918537
0.869824
0.829716
0.796683
0.769774
0.748329
0.731759
0.719614
0.711622
0.707657
3.65395
2.13278
1.71803
1.45667
1.28111
1.15106
1.04948
0.968442
0.90234
0.847853
0.802887
0.76571
0.73499
0.709895
0.689857
0.67437
0.663025
0.655562
0.651856
2.38148
1.79289
1.48207
1.27998
1.1408
1.03538
0.949769
0.880119
0.822126
0.773553
0.732974
0.699147
0.67105
0.648017
0.629574
0.615302
0.604844
0.597962
0.594544
1.27226
1.33508
1.19142
1.07466
0.984114
0.909936
0.843351
0.786898
0.738136
0.696227
0.66052
0.630362
0.605122
0.584338
0.567643
0.554696
0.5452
0.538945
0.535836
0.715828
0.80801
0.862138
0.854694
0.819731
0.779712
0.732999
0.690511
0.651444
0.616544
0.585985
0.559702
0.537479
0.519074
0.504238
0.492704
0.484231
0.478642
0.475861
0.12323
0.254996
0.529246
0.639731
0.657158
0.649606
0.622087
0.5929
0.563223
0.535218
0.509834
0.487509
0.46839
0.452447
0.439544
0.429484
0.422081
0.41719
0.414751
-0.416019
-0.240159
0.241342
0.451016
0.505182
0.523688
0.513794
0.49589
0.474573
0.452938
0.432519
0.414107
0.398114
0.384674
0.373748
0.365205
0.358902
0.354733
0.352649
-0.816078
-0.588309
0.0548617
0.310607
0.364575
0.406262
0.410016
0.400758
0.386324
0.370275
0.354441
0.339796
0.326891
0.315959
0.307031
0.300028
0.294849
0.291418
0.2897
-1.01106
-0.672204
-0.0724715
0.20264
0.262538
0.301715
0.311651
0.308101
0.298946
0.287616
0.275915
0.264835
0.25494
0.246496
0.239567
0.234116
0.230077
0.227397
0.226051
-0.671339
-0.513278
-0.0796679
0.131838
0.179631
0.208221
0.218491
0.217947
0.212596
0.20517
0.19717
0.189441
0.182461
0.176468
0.171532
0.167637
0.164745
0.162825
0.161858
0.5204
0.0362955
0.0401518
0.088064
0.106351
0.121963
0.129152
0.129716
0.12707
0.122933
0.118301
0.113751
0.109608
0.106033
0.103079
0.100743
0.0990051
0.0978488
0.0972662
0.162248
-0.0441285
0.0854082
0.0256956
0.033118
0.0401668
0.0429364
0.0432654
0.0424419
0.0410802
0.0395351
0.0380121
0.0366248
0.0354278
0.0344382
0.0336552
0.0330707
0.0326813
0.0324846
)
;

boundaryField
{
    leftWall
    {
        type            fixedFluxPressure;
        gradient        uniform 0;
        value           nonuniform List<scalar> 
50
(
1728.75
1726.64
1722.48
1716.36
1708.36
1698.32
1686.05
1671.47
1660.15
1604.65
537.589
0.832843
0.824973
0.802892
0.773201
0.741494
0.705605
0.665037
0.619305
0.568119
0.511453
0.4493
0.381695
0.30879
0.230886
0.148422
0.0619792
-0.0276868
-0.119603
-0.212573
-0.30521
-0.396024
-0.483534
-0.56637
-0.643359
-0.713599
-0.776519
-0.831811
-0.87932
-0.919169
-0.952017
-0.978758
-0.999603
-1.01421
-1.02347
-1.02988
-1.03385
-1.032
-1.02777
-1.0315
)
;
    }
    rightWall
    {
        type            fixedFluxPressure;
        gradient        uniform 0;
        value           nonuniform List<scalar> 
50
(
1.63869
1.63712
1.63391
1.62903
1.62239
1.6139
1.6034
1.59077
1.57899
1.5696
1.55936
1.54823
1.53615
1.52308
1.50897
1.49375
1.47737
1.45977
1.44087
1.42062
1.39894
1.37576
1.35102
1.32465
1.2966
1.2668
1.23519
1.20175
1.16642
1.12918
1.09
1.04888
1.00581
0.960788
0.913843
0.865004
0.814315
0.761841
0.707657
0.651856
0.594544
0.535836
0.475861
0.414751
0.352649
0.2897
0.226051
0.161858
0.0972662
0.0324846
)
;
    }
    lowerWall
    {
        type            fixedFluxPressure;
        gradient        uniform 0;
        value           nonuniform List<scalar> 
62
(
1728.75
1729.45
1729.97
1730.44
1730.86
1731.49
1732.42
1733.68
1735.27
1737.18
1739.43
1741.96
1744.72
1747.6
1750.52
1753.35
1755.94
1758.1
1759.73
1760.58
1760.63
1756.67
1742.48
1742.48
1741.42
1755.09
1780.89
1784.83
1790.07
1788.07
1751.7
968.487
2.48819
2.26644
2.11901
1.76533
1.76815
1.77376
1.78324
1.79664
1.81743
1.84702
1.88163
1.76533
1.76287
1.75806
1.75132
1.74303
1.7336
1.72346
1.71296
1.70244
1.69218
1.68241
1.6733
1.66504
1.65774
1.65152
1.64644
1.64258
1.63999
1.63869
)
;
    }
    atmosphere
    {
        type            totalPressure;
        rho             rho;
        psi             none;
        gamma           1;
        p0              uniform 0;
        value           nonuniform List<scalar> 
46
(
-1.03944
-1.05261
-1.05628
-1.06347
-1.07259
-1.08391
-1.09781
-1.11452
-1.13388
-1.15521
-1.17768
-1.20115
-1.22712
-1.25874
-1.29902
-1.34909
-1.41004
-1.49159
-1.57995
-1.83597
-2.51221
-1.34881
0
0
0
0
0
0
0
0
0
0
0
0
0
0
0
0
0
0
0
0
0
0
0
0
)
;
    }
    defaultFaces
    {
        type            empty;
    }
}


// ************************************************************************* //
