/*--------------------------------*- C++ -*----------------------------------*\
| =========                 |                                                 |
| \\      /  F ield         | OpenFOAM: The Open Source CFD Toolbox           |
|  \\    /   O peration     | Version:  2206                                  |
|   \\  /    A nd           | Website:  www.openfoam.com                      |
|    \\/     M anipulation  |                                                 |
\*---------------------------------------------------------------------------*/
FoamFile
{
    version     2.0;
    format      ascii;
    arch        "LSB;label=32;scalar=64";
    class       surfaceScalarField;
    location    "0.275";
    object      phi;
}
// * * * * * * * * * * * * * * * * * * * * * * * * * * * * * * * * * * * * * //

dimensions      [0 3 -1 0 0 0 0];

oriented        oriented;

internalField   nonuniform List<scalar> 
4432
(
-1.67038e-06
1.67038e-06
2.39444e-06
-4.06483e-06
7.42031e-06
-5.02587e-06
1.14123e-05
-3.99194e-06
1.42128e-05
-2.80058e-06
1.62533e-05
-2.04044e-06
1.78877e-05
-1.63442e-06
1.92526e-05
-1.36488e-06
2.03366e-05
-1.08406e-06
2.10673e-05
-7.30669e-07
2.13572e-05
-2.89919e-07
2.11433e-05
2.13924e-07
2.034e-05
8.03354e-07
1.89074e-05
1.43256e-06
1.68171e-05
2.09034e-06
1.4073e-05
2.74406e-06
1.07781e-05
3.29492e-06
7.08022e-06
3.69785e-06
3.25989e-06
3.82033e-06
-6.52874e-08
3.32518e-06
-2.33267e-06
2.26739e-06
-1.76731e-06
-5.65353e-07
-1.76731e-06
-1.28026e-06
2.95065e-06
2.79079e-06
-8.13587e-06
7.80962e-06
-1.00447e-05
1.18482e-05
-8.03049e-06
1.4784e-05
-5.7364e-06
1.70384e-05
-4.29485e-06
1.89353e-05
-3.53129e-06
2.059e-05
-3.01963e-06
2.19932e-05
-2.4873e-06
2.30972e-05
-1.83464e-06
2.38569e-05
-1.0496e-06
2.42026e-05
-1.31798e-07
2.42107e-05
7.95299e-07
2.38635e-05
1.7797e-06
2.31374e-05
2.81649e-06
2.20119e-05
3.86955e-06
2.04377e-05
4.86915e-06
1.84154e-05
5.72015e-06
1.59128e-05
6.32291e-06
1.28187e-05
6.41925e-06
9.26493e-06
5.82117e-06
4.87041e-06
3.82916e-06
3.1031e-06
-4.38452e-07
3.3891e-06
3.57192e-06
-1.21462e-05
8.57527e-06
-1.5048e-05
1.27287e-05
-1.21839e-05
1.59317e-05
-8.93946e-06
1.85639e-05
-6.92696e-06
2.08792e-05
-5.84657e-06
2.29385e-05
-5.07896e-06
2.47016e-05
-4.25046e-06
2.61037e-05
-3.23672e-06
2.70896e-05
-2.0355e-06
2.76376e-05
-6.79764e-07
2.7674e-05
7.58827e-07
2.72301e-05
2.22361e-06
2.63126e-05
3.73402e-06
2.49462e-05
5.23597e-06
2.31644e-05
6.65097e-06
2.0997e-05
7.88754e-06
1.83282e-05
8.99168e-06
1.47959e-05
9.95159e-06
1.03422e-05
1.02748e-05
5.19489e-06
8.97651e-06
8.29799e-06
7.09146e-07
2.67995e-06
4.82644e-06
-1.62635e-05
9.8486e-06
-2.00702e-05
1.41862e-05
-1.65215e-05
1.77941e-05
-1.25474e-05
2.09823e-05
-1.01151e-05
2.39122e-05
-8.77649e-06
2.65867e-05
-7.75349e-06
2.89437e-05
-6.60746e-06
3.0911e-05
-5.20396e-06
3.24185e-05
-3.54301e-06
3.33921e-05
-1.65335e-06
3.3715e-05
4.35915e-07
3.3416e-05
2.52262e-06
3.24226e-05
4.72746e-06
3.06943e-05
6.96422e-06
2.82157e-05
9.12957e-06
2.50142e-05
1.1089e-05
2.11275e-05
1.28784e-05
1.64684e-05
1.46107e-05
1.11714e-05
1.55718e-05
6.06215e-06
1.40858e-05
1.43601e-05
2.16865e-06
5.11302e-07
6.70166e-06
-2.07965e-05
1.17673e-05
-2.51358e-05
1.63174e-05
-2.10716e-05
2.0428e-05
-1.6658e-05
2.43132e-05
-1.40003e-05
2.80124e-05
-1.24758e-05
3.1459e-05
-1.12001e-05
3.45659e-05
-9.71437e-06
3.72547e-05
-7.89269e-06
3.9452e-05
-5.74037e-06
4.10814e-05
-3.2827e-06
4.20155e-05
-4.98212e-07
4.21552e-05
2.38288e-06
4.14479e-05
5.43477e-06
3.97796e-05
8.63259e-06
3.70529e-05
1.18562e-05
3.31924e-05
1.49495e-05
2.82057e-05
1.7865e-05
2.2186e-05
2.06305e-05
1.52662e-05
2.24916e-05
8.16101e-06
2.11909e-05
2.25212e-05
3.81656e-06
-3.30526e-06
9.14692e-06
-2.61269e-05
1.43768e-05
-3.03656e-05
1.9203e-05
-2.58979e-05
2.39131e-05
-2.1368e-05
2.86261e-05
-1.87133e-05
3.32495e-05
-1.70991e-05
3.76469e-05
-1.55975e-05
4.17115e-05
-1.3779e-05
4.53601e-05
-1.15413e-05
4.85059e-05
-8.88619e-06
5.10397e-05
-5.81653e-06
5.28634e-05
-2.32188e-06
5.36889e-05
1.55737e-06
5.34524e-05
5.67123e-06
5.19589e-05
1.01261e-05
4.9053e-05
1.47621e-05
4.46725e-05
1.93301e-05
3.89097e-05
2.36279e-05
3.18696e-05
2.76706e-05
2.29831e-05
3.13781e-05
1.18254e-05
3.23487e-05
3.43465e-05
5.73674e-06
-9.042e-06
1.20475e-05
-3.24377e-05
1.75338e-05
-3.58519e-05
2.27354e-05
-3.10995e-05
2.81832e-05
-2.68158e-05
3.38823e-05
-2.44124e-05
3.9605e-05
-2.28219e-05
4.51603e-05
-2.11528e-05
5.04395e-05
-1.90582e-05
5.53697e-05
-1.64715e-05
5.98767e-05
-1.33932e-05
6.38584e-05
-9.79823e-06
6.71484e-05
-5.61185e-06
6.94226e-05
-7.16784e-07
7.04355e-05
4.65834e-06
7.01034e-05
1.04582e-05
6.8073e-05
1.67925e-05
6.40091e-05
2.3394e-05
5.74799e-05
3.01571e-05
4.81762e-05
3.69743e-05
3.58254e-05
4.37289e-05
2.03965e-05
4.77776e-05
5.4743e-05
8.36953e-06
-1.74115e-05
1.54588e-05
-3.95269e-05
2.0706e-05
-4.10992e-05
2.60605e-05
-3.64541e-05
3.2254e-05
-3.30092e-05
3.89873e-05
-3.11456e-05
4.58697e-05
-2.97044e-05
5.27059e-05
-2.79889e-05
5.94192e-05
-2.57715e-05
6.5944e-05
-2.29962e-05
7.21876e-05
-1.96368e-05
7.80616e-05
-1.56723e-05
8.3552e-05
-1.11023e-05
8.83336e-05
-5.49837e-06
9.0851e-05
2.14092e-06
9.11318e-05
1.01774e-05
8.89097e-05
1.90146e-05
8.46794e-05
2.76243e-05
7.85425e-05
3.6294e-05
7.00084e-05
4.55084e-05
5.69272e-05
5.681e-05
3.66944e-05
6.80104e-05
9.14374e-05
1.78874e-06
-1.78874e-06
3.6786e-06
-1.88992e-06
5.29073e-06
-1.61218e-06
6.69597e-06
-1.4053e-06
7.86103e-06
-1.16513e-06
8.75128e-06
-8.90307e-07
9.37174e-06
-6.205e-07
9.71369e-06
-3.41954e-07
9.77593e-06
-6.22476e-08
9.57328e-06
2.02658e-07
9.12967e-06
4.43606e-07
8.4687e-06
6.6095e-07
7.6148e-06
8.53879e-07
6.59832e-06
1.01646e-06
5.44303e-06
1.1553e-06
4.17574e-06
1.26733e-06
2.82672e-06
1.34904e-06
1.43188e-06
1.39477e-06
1.4319e-06
1.81006e-06
-3.59886e-06
3.73789e-06
-3.81786e-06
5.35251e-06
-3.2269e-06
6.83466e-06
-2.88756e-06
8.07326e-06
-2.40383e-06
9.04297e-06
-1.86008e-06
9.71681e-06
-1.29436e-06
1.00919e-05
-7.17024e-07
1.01752e-05
-1.45539e-07
9.98475e-06
3.93068e-07
9.54195e-06
8.8638e-07
8.86669e-06
1.33617e-06
7.98598e-06
1.73457e-06
6.92521e-06
2.07724e-06
5.71507e-06
2.36547e-06
4.38799e-06
2.59438e-06
2.97129e-06
2.76575e-06
1.50453e-06
2.86156e-06
2.93644e-06
1.77124e-06
-5.37014e-06
4.01645e-06
-6.06317e-06
5.77219e-06
-4.98274e-06
7.43652e-06
-4.55197e-06
8.73231e-06
-3.69969e-06
9.7146e-06
-2.84242e-06
1.03781e-05
-1.95785e-06
1.07242e-05
-1.0632e-06
1.07621e-05
-1.83478e-07
1.05142e-05
6.40948e-07
1.00048e-05
1.39582e-06
9.26404e-06
2.07687e-06
8.31666e-06
2.68196e-06
7.19462e-06
3.19929e-06
5.92479e-06
3.63535e-06
4.54019e-06
3.97914e-06
3.07106e-06
4.23484e-06
1.55416e-06
4.37855e-06
4.49059e-06
2.478e-06
-7.84819e-06
5.16944e-06
-8.7547e-06
6.80026e-06
-6.61365e-06
8.49828e-06
-6.25009e-06
9.76613e-06
-4.96762e-06
1.07408e-05
-3.81716e-06
1.14034e-05
-2.62053e-06
1.17174e-05
-1.37719e-06
1.17e-05
-1.66122e-07
1.13787e-05
9.62213e-07
1.07875e-05
1.98697e-06
9.95525e-06
2.90915e-06
8.9094e-06
3.72788e-06
7.68453e-06
4.42424e-06
6.31765e-06
5.00225e-06
4.83587e-06
5.46091e-06
3.2681e-06
5.80266e-06
1.65184e-06
5.99492e-06
6.14242e-06
1.49665e-06
-9.3449e-06
4.91844e-06
-1.21766e-05
7.01653e-06
-8.71182e-06
9.31238e-06
-8.54604e-06
1.09084e-05
-6.56369e-06
1.20575e-05
-4.96632e-06
1.27655e-05
-3.32862e-06
1.3061e-05
-1.67266e-06
1.29718e-05
-7.69683e-08
1.25581e-05
1.37591e-06
1.18534e-05
2.69165e-06
1.08869e-05
3.87567e-06
9.71304e-06
4.90178e-06
8.35694e-06
5.78028e-06
6.85175e-06
6.5075e-06
5.23216e-06
7.0805e-06
3.52768e-06
7.50722e-06
1.77733e-06
7.74534e-06
7.91972e-06
3.16098e-06
-1.25059e-05
8.13458e-06
-1.71503e-05
9.8284e-06
-1.04057e-05
1.18407e-05
-1.05584e-05
1.30821e-05
-7.80521e-06
1.40701e-05
-5.95429e-06
1.46685e-05
-3.92716e-06
1.48532e-05
-1.85739e-06
1.46376e-05
1.38634e-07
1.40778e-05
1.93562e-06
1.32153e-05
3.55423e-06
1.20809e-05
5.00998e-06
1.07267e-05
6.25602e-06
9.19433e-06
7.31267e-06
7.51566e-06
8.1862e-06
5.7253e-06
8.87083e-06
3.85571e-06
9.37685e-06
1.9404e-06
9.66071e-06
9.86011e-06
-4.31031e-06
-8.19568e-06
4.12268e-06
-2.55834e-05
9.43973e-06
-1.57228e-05
1.25502e-05
-1.36689e-05
1.46762e-05
-9.93131e-06
1.61009e-05
-7.37902e-06
1.68471e-05
-4.67349e-06
1.70061e-05
-2.01636e-06
1.66666e-05
4.78064e-07
1.59376e-05
2.66454e-06
1.48658e-05
4.62611e-06
1.35244e-05
6.35143e-06
1.19504e-05
7.82997e-06
1.01951e-05
9.06795e-06
8.30774e-06
1.00736e-05
6.31303e-06
1.08655e-05
4.24471e-06
1.14452e-05
2.13104e-06
1.17744e-05
1.19912e-05
1.49635e-06
-9.69207e-06
8.72989e-06
-3.28171e-05
1.6209e-05
-2.3202e-05
1.66655e-05
-1.41255e-05
1.84384e-05
-1.17042e-05
1.94523e-05
-8.39294e-06
1.98773e-05
-5.09856e-06
1.97958e-05
-1.935e-06
1.92264e-05
1.04746e-06
1.8231e-05
3.65996e-06
1.68688e-05
5.98827e-06
1.52354e-05
7.98492e-06
1.33867e-05
9.67866e-06
1.13692e-05
1.10854e-05
9.22569e-06
1.22172e-05
6.99181e-06
1.30994e-05
4.69142e-06
1.37456e-05
2.34947e-06
1.41164e-05
1.43407e-05
7.53569e-06
-2.49472e-05
1.15847e-05
-4.3576e-05
1.32601e-05
-4.27746e-05
1.5983e-05
-3.9177e-05
1.99229e-05
-3.69491e-05
2.43703e-05
-3.55929e-05
2.89699e-05
-3.4304e-05
3.36824e-05
-3.27014e-05
3.85201e-05
-3.06092e-05
4.34683e-05
-2.79444e-05
4.84218e-05
-2.45903e-05
5.30994e-05
-2.03499e-05
5.70995e-05
-1.51024e-05
6.03807e-05
-8.77952e-06
6.44105e-05
-1.8889e-06
6.61918e-05
8.39612e-06
6.64334e-05
1.87729e-05
6.57935e-05
2.82643e-05
6.42051e-05
3.78824e-05
6.14724e-05
4.82411e-05
5.79343e-05
6.03481e-05
5.48242e-05
7.11205e-05
8.86491e-05
5.76126e-05
1.2752e-05
-3.76992e-05
1.52862e-05
-4.61102e-05
1.44928e-05
-4.19811e-05
1.71607e-05
-4.18449e-05
2.19313e-05
-4.17197e-05
2.71944e-05
-4.08561e-05
3.25315e-05
-3.96411e-05
3.8042e-05
-3.82119e-05
4.37687e-05
-3.63359e-05
4.96866e-05
-3.38623e-05
5.56688e-05
-3.05725e-05
6.17275e-05
-2.64086e-05
6.81248e-05
-2.14997e-05
7.41687e-05
-1.48234e-05
7.91824e-05
-6.90265e-06
8.17435e-05
5.83505e-06
8.1761e-05
1.87554e-05
8.03062e-05
2.9719e-05
7.8406e-05
3.97826e-05
7.70425e-05
4.96046e-05
7.76572e-05
5.97334e-05
7.9495e-05
6.92826e-05
8.31962e-05
8.4948e-05
1.66548e-05
-5.4354e-05
1.62817e-05
-4.57371e-05
1.53979e-05
-4.10974e-05
1.87762e-05
-4.52232e-05
2.39901e-05
-4.69336e-05
2.92526e-05
-4.61185e-05
3.42436e-05
-4.46321e-05
3.89188e-05
-4.28871e-05
4.2911e-05
-4.03281e-05
4.50269e-05
-3.59782e-05
4.4371e-05
-2.99166e-05
4.44692e-05
-2.65068e-05
4.60429e-05
-2.30733e-05
4.89579e-05
-1.77382e-05
5.51575e-05
-1.31022e-05
5.96485e-05
1.34395e-06
7.13732e-05
7.03072e-06
7.62399e-05
2.48523e-05
7.50022e-05
4.10203e-05
7.62044e-05
4.84024e-05
8.19915e-05
5.39463e-05
8.83448e-05
6.29294e-05
7.44322e-05
9.71087e-05
-1.74637e-07
-5.41794e-05
4.49154e-06
-5.04033e-05
1.04452e-05
-4.70511e-05
1.39809e-05
-4.87589e-05
1.58645e-05
-4.8817e-05
1.75781e-05
-4.7832e-05
1.88234e-05
-4.58774e-05
1.96369e-05
-4.37006e-05
1.99895e-05
-4.06809e-05
2.06713e-05
-3.66601e-05
2.26737e-05
-3.19192e-05
2.35333e-05
-2.73664e-05
2.35552e-05
-2.30951e-05
2.17464e-05
-1.59294e-05
2.1139e-05
-1.2495e-05
2.19017e-05
5.81114e-07
3.02945e-06
2.59029e-05
-1.43947e-05
4.22764e-05
4.19803e-06
2.24278e-05
2.68102e-05
2.57903e-05
6.08994e-05
1.98571e-05
8.08163e-05
4.30124e-05
5.89403e-05
9.63083e-05
-9.57536e-06
-4.46041e-05
-3.60799e-06
-5.63707e-05
5.11044e-06
-5.57694e-05
9.22998e-06
-5.28782e-05
1.10784e-05
-5.06652e-05
1.22427e-05
-4.89962e-05
1.3481e-05
-4.71157e-05
1.45241e-05
-4.47439e-05
1.55149e-05
-4.16719e-05
1.66093e-05
-3.77548e-05
1.78392e-05
-3.31491e-05
1.85027e-05
-2.80299e-05
1.82967e-05
-2.28891e-05
1.92802e-05
-1.6913e-05
2.09842e-05
-1.41992e-05
2.75142e-05
-5.94897e-06
2.67233e-05
2.66939e-05
2.02153e-05
4.87847e-05
1.17003e-05
3.0943e-05
2.11227e-05
1.6368e-05
3.26946e-05
8.28526e-06
4.48994e-05
3.08077e-05
2.43226e-05
7.95171e-05
-5.29403e-06
-3.93101e-05
1.12751e-06
-6.27923e-05
6.58118e-06
-6.1223e-05
1.00299e-05
-5.63268e-05
1.25965e-05
-5.32316e-05
1.48707e-05
-5.12704e-05
1.71172e-05
-4.93623e-05
1.9287e-05
-4.6914e-05
2.14296e-05
-4.38148e-05
2.35804e-05
-3.99057e-05
2.56446e-05
-3.52135e-05
2.75235e-05
-2.99088e-05
2.91885e-05
-2.45542e-05
3.21779e-05
-1.99025e-05
3.40001e-05
-1.60215e-05
4.02397e-05
-1.21887e-05
5.80795e-05
8.85424e-06
7.35972e-05
3.32672e-05
6.9502e-05
3.50384e-05
5.65567e-05
2.93133e-05
4.09084e-05
2.39336e-05
4.17947e-05
2.99215e-05
3.40431e-05
3.20742e-05
-2.5485e-07
-3.90553e-05
3.84793e-06
-6.6895e-05
7.83472e-06
-6.52096e-05
1.12318e-05
-5.97237e-05
1.44224e-05
-5.64221e-05
1.75363e-05
-5.43843e-05
2.05436e-05
-5.23697e-05
2.34776e-05
-4.98482e-05
2.6362e-05
-4.66995e-05
2.92436e-05
-4.27875e-05
3.20845e-05
-3.80545e-05
3.4933e-05
-3.27573e-05
3.78802e-05
-2.75015e-05
4.14256e-05
-2.34482e-05
4.61375e-05
-2.07335e-05
5.1106e-05
-1.71571e-05
6.67631e-05
-6.80282e-06
8.96949e-05
1.03356e-05
0.000103407
2.13269e-05
0.000106008
2.67119e-05
9.8701e-05
3.12405e-05
8.47888e-05
4.38336e-05
4.61491e-05
7.26828e-05
1.65003e-06
-4.07053e-05
5.51389e-06
-7.07588e-05
9.19511e-06
-6.88907e-05
1.27047e-05
-6.32331e-05
1.6269e-05
-5.99863e-05
1.98677e-05
-5.7983e-05
2.3435e-05
-5.59372e-05
2.69884e-05
-5.34019e-05
3.05687e-05
-5.028e-05
3.42444e-05
-4.64633e-05
3.80434e-05
-4.18536e-05
4.20016e-05
-3.67155e-05
4.61429e-05
-3.1643e-05
5.03416e-05
-2.76469e-05
5.49589e-05
-2.53509e-05
6.10329e-05
-2.32311e-05
7.13754e-05
-1.71452e-05
8.78525e-05
-6.14142e-06
0.000105565
3.6149e-06
0.0001221
1.01763e-05
0.000135908
1.74325e-05
0.000146065
3.36768e-05
5.96692e-05
0.000132545
2.80858e-06
-4.35138e-05
6.90058e-06
-7.48507e-05
1.07591e-05
-7.27491e-05
1.4575e-05
-6.70489e-05
1.85209e-05
-6.39322e-05
2.256e-05
-6.20221e-05
2.66458e-05
-6.00232e-05
3.07888e-05
-5.7545e-05
3.50353e-05
-5.45265e-05
3.94774e-05
-5.09056e-05
4.42085e-05
-4.65847e-05
4.92347e-05
-4.17417e-05
5.44223e-05
-3.68307e-05
5.93458e-05
-3.25705e-05
6.36972e-05
-2.97022e-05
6.82866e-05
-2.78205e-05
7.5454e-05
-2.43124e-05
8.67094e-05
-1.73968e-05
0.000100782
-1.04579e-05
0.000117786
-6.82788e-06
0.000138088
-2.86946e-06
0.000161153
1.06123e-05
4.45659e-05
0.000176256
3.63946e-06
-4.71532e-05
8.06508e-06
-7.92763e-05
1.22097e-05
-7.68936e-05
1.63797e-05
-7.12189e-05
2.07144e-05
-6.82668e-05
2.51787e-05
-6.64864e-05
2.97422e-05
-6.45869e-05
3.44168e-05
-6.22197e-05
3.92509e-05
-5.93608e-05
4.43395e-05
-5.59942e-05
4.98155e-05
-5.20607e-05
5.57073e-05
-4.76335e-05
6.18616e-05
-4.2985e-05
6.783e-05
-3.85389e-05
7.29579e-05
-3.483e-05
7.73094e-05
-3.21718e-05
8.26745e-05
-2.96773e-05
9.14769e-05
-2.6199e-05
0.000104012
-2.29934e-05
0.000119018
-2.18335e-05
0.000136275
-2.01268e-05
0.000157856
-1.09689e-05
2.14267e-05
0.000180995
4.21239e-06
-5.13656e-05
9.05628e-06
-8.41202e-05
1.35604e-05
-8.13977e-05
1.81004e-05
-7.57589e-05
2.28189e-05
-7.29852e-05
2.76936e-05
-7.13612e-05
3.2707e-05
-6.96003e-05
3.78745e-05
-6.73871e-05
4.3237e-05
-6.47233e-05
4.88686e-05
-6.16258e-05
5.489e-05
-5.80821e-05
6.1374e-05
-5.41176e-05
6.82524e-05
-4.98634e-05
7.5253e-05
-4.55395e-05
8.18467e-05
-4.14236e-05
8.75489e-05
-3.78738e-05
9.29541e-05
-3.50823e-05
9.98818e-05
-3.31266e-05
0.000109372
-3.24839e-05
0.00012087
-3.33317e-05
0.000134859
-3.41155e-05
0.00015182
-2.79304e-05
3.02424e-06
0.000170223
4.66996e-06
-5.60356e-05
9.94558e-06
-8.93959e-05
1.48176e-05
-8.62697e-05
1.97249e-05
-8.06662e-05
2.4823e-05
-7.80832e-05
3.00959e-05
-7.6634e-05
3.55339e-05
-7.50383e-05
4.11563e-05
-7.30094e-05
4.69958e-05
-7.05628e-05
5.30998e-05
-6.77298e-05
5.95413e-05
-6.45235e-05
6.63931e-05
-6.09694e-05
7.36603e-05
-5.71305e-05
8.12315e-05
-5.31106e-05
8.88434e-05
-4.90354e-05
9.60178e-05
-4.5048e-05
0.000102342
-4.14061e-05
0.000108176
-3.89612e-05
0.000114194
-3.85012e-05
0.000120777
-3.99156e-05
0.000130323
-4.36613e-05
0.000142113
-3.97207e-05
-1.08427e-05
0.00015598
5.09681e-06
-6.11324e-05
1.07609e-05
-9.50601e-05
1.59627e-05
-9.14715e-05
2.12149e-05
-8.59183e-05
2.66784e-05
-8.35467e-05
3.23319e-05
-8.22875e-05
3.81684e-05
-8.08748e-05
4.42113e-05
-7.90523e-05
5.04905e-05
-7.68421e-05
5.70356e-05
-7.42749e-05
6.38773e-05
-7.13652e-05
7.10491e-05
-6.81412e-05
7.8555e-05
-6.46364e-05
8.63471e-05
-6.09027e-05
9.42932e-05
-5.69814e-05
0.000102113
-5.28671e-05
0.000109254
-4.85473e-05
0.000115133
-4.48401e-05
0.000119552
-4.29201e-05
0.000122766
-4.31295e-05
0.000125389
-4.62846e-05
0.000129058
-4.33896e-05
-1.85393e-05
0.000136754
5.52507e-06
-6.66576e-05
1.15061e-05
-0.000101041
1.69825e-05
-9.69478e-05
2.25503e-05
-9.1486e-05
2.83577e-05
-8.93539e-05
3.43685e-05
-8.82982e-05
4.05772e-05
-8.70836e-05
4.70119e-05
-8.54871e-05
5.37044e-05
-8.35347e-05
6.06789e-05
-8.12495e-05
6.79484e-05
-7.86347e-05
7.55142e-05
-7.5707e-05
8.33457e-05
-7.24679e-05
9.13895e-05
-6.89464e-05
9.95265e-05
-6.51183e-05
0.000107529
-6.08697e-05
0.000115067
-5.60848e-05
0.000121464
-5.12379e-05
0.000125923
-4.73783e-05
0.000128226
-4.54326e-05
0.00012716
-4.52186e-05
0.000123975
-4.02051e-05
-1.78845e-05
0.000123321
5.95681e-06
-7.26145e-05
1.21729e-05
-0.000107257
1.78645e-05
-0.000102639
2.37142e-05
-9.73355e-05
2.98364e-05
-9.54761e-05
3.61749e-05
-9.46368e-05
4.27266e-05
-9.36355e-05
4.95264e-05
-9.2287e-05
5.6611e-05
-9.06193e-05
6.40077e-05
-8.86461e-05
7.17306e-05
-8.63575e-05
7.97748e-05
-8.3751e-05
8.80963e-05
-8.07894e-05
9.66265e-05
-7.74765e-05
0.000105225
-7.37164e-05
0.00011363
-6.9275e-05
0.000121557
-6.40121e-05
0.000128597
-5.82774e-05
0.000134139
-5.29201e-05
0.000137622
-4.89155e-05
0.000137524
-4.51209e-05
0.000132254
-3.49348e-05
-9.83729e-06
0.000124207
6.37564e-06
-7.89901e-05
1.27444e-05
-0.000113626
1.85967e-05
-0.000108492
2.46908e-05
-0.00010343
3.10906e-05
-0.000101876
3.77191e-05
-0.000101265
4.45789e-05
-0.000100496
5.17142e-05
-9.94223e-05
5.91698e-05
-9.8075e-05
6.69814e-05
-9.64577e-05
7.51744e-05
-9.45504e-05
8.37546e-05
-9.23312e-05
9.2694e-05
-8.97287e-05
0.000101938
-8.67199e-05
0.000111327
-8.31061e-05
0.000120628
-7.85754e-05
0.000129521
-7.29058e-05
0.000137648
-6.64045e-05
0.000144679
-5.99512e-05
0.000149783
-5.40194e-05
0.000151594
-4.69312e-05
0.000148366
-3.1707e-05
-1.40803e-06
0.000139937
6.75862e-06
-8.57486e-05
1.32015e-05
-0.000120068
1.91672e-05
-0.000114457
2.54645e-05
-0.000109727
3.20951e-05
-0.000108507
3.8966e-05
-0.000108136
4.60897e-05
-0.000107619
5.3522e-05
-0.000106855
6.13193e-05
-0.000105872
6.95314e-05
-0.00010467
7.82025e-05
-0.000103221
8.73598e-05
-0.000101488
9.70104e-05
-9.93792e-05
0.000107133
-9.6842e-05
0.000117581
-9.35548e-05
0.000128224
-8.92179e-05
0.000138777
-8.34588e-05
0.000148906
-7.6534e-05
0.000158762
-6.98067e-05
0.000167686
-6.29439e-05
0.000173071
-5.23157e-05
0.000172947
-3.15835e-05
4.49416e-06
0.000167045
7.08376e-06
-9.28323e-05
1.35276e-05
-0.000126512
1.9565e-05
-0.000120495
2.60182e-05
-0.00011618
3.28222e-05
-0.000115311
3.98767e-05
-0.000115191
4.72074e-05
-0.00011495
5.48831e-05
-0.00011453
6.29744e-05
-0.000113963
7.15506e-05
-0.000113246
8.06829e-05
-0.000112354
9.04307e-05
-0.000111236
0.000100857
-0.000109805
0.000111974
-0.000107959
0.000123727
-0.000105308
0.000136119
-0.00010161
0.00014894
-9.62798e-05
0.000162232
-8.98261e-05
0.000176797
-8.43715e-05
0.000191807
-7.79537e-05
0.000202394
-6.29026e-05
0.000204065
-3.32549e-05
1.17667e-05
0.000196793
7.33261e-06
-0.000100165
1.37103e-05
-0.00013289
1.97799e-05
-0.000126564
2.63345e-05
-0.000122735
3.32445e-05
-0.000122221
4.04116e-05
-0.000122358
4.78769e-05
-0.000122415
5.57217e-05
-0.000122375
6.40316e-05
-0.000122273
7.28983e-05
-0.000122112
8.24246e-05
-0.00012188
9.27151e-05
-0.000121526
0.000103902
-0.000120992
0.000116051
-0.000120108
0.000129295
-0.000118551
0.000143754
-0.000116069
0.00015945
-0.000111976
0.00017747
-0.000107846
0.000198808
-0.00010571
0.000221064
-0.00010021
0.000236588
-7.84267e-05
0.000237988
-3.46555e-05
2.51225e-05
0.000224633
7.49076e-06
-0.000107656
1.37428e-05
-0.000139142
1.98049e-05
-0.000132627
2.63989e-05
-0.000129329
3.33387e-05
-0.000129161
4.05367e-05
-0.000129556
4.80485e-05
-0.000129927
5.59654e-05
-0.000130292
6.43855e-05
-0.000130693
7.34217e-05
-0.000131149
8.32069e-05
-0.000131665
9.38965e-05
-0.000132216
0.000105688
-0.000132783
0.00011875
-0.000133171
0.000133439
-0.00013324
0.000150019
-0.000132648
0.000169103
-0.000131061
0.000193111
-0.000131854
0.000221957
-0.000134556
0.000249396
-0.000127649
0.000267286
-9.63167e-05
0.000266903
-3.42721e-05
4.72245e-05
0.000244801
7.55026e-06
-0.000115206
1.36244e-05
-0.000145216
1.96371e-05
-0.00013864
2.62022e-05
-0.000135894
3.30901e-05
-0.000136049
4.02294e-05
-0.000136696
4.7687e-05
-0.000137385
5.55585e-05
-0.000138164
6.39498e-05
-0.000139085
7.29875e-05
-0.000140186
8.28259e-05
-0.000141503
9.36624e-05
-0.000143052
0.00010574
-0.000144861
0.000119371
-0.000146802
0.000135043
-0.000148912
0.000153326
-0.000150931
0.000175642
-0.000153377
0.000204991
-0.000161203
0.000239723
-0.000169287
0.000266735
-0.000154661
0.000278334
-0.000107916
0.000274839
-3.07775e-05
7.29739e-05
0.00024909
7.50921e-06
-0.000122715
1.33608e-05
-0.000151068
1.92785e-05
-0.000144557
2.57434e-05
-0.000142359
3.24964e-05
-0.000142802
3.94846e-05
-0.000143684
4.678e-05
-0.00014468
5.44761e-05
-0.00014586
6.26778e-05
-0.000147287
7.15134e-05
-0.000149022
8.11438e-05
-0.000151134
9.17826e-05
-0.000153691
0.000103698
-0.000156777
0.000117309
-0.000160413
0.000133124
-0.000164728
0.000152159
-0.000169966
0.000176211
-0.000177429
0.000207649
-0.00019264
0.000244079
-0.000205718
0.00026398
-0.000174562
0.000263043
-0.000106979
0.000253658
-2.13927e-05
9.5831e-05
0.000230801
7.37144e-06
-0.000130087
1.29628e-05
-0.00015666
1.8738e-05
-0.000150333
2.50315e-05
-0.000148653
3.15703e-05
-0.000149341
3.83183e-05
-0.000150432
4.53455e-05
-0.000151708
5.27356e-05
-0.00015325
6.05825e-05
-0.000155133
6.9001e-05
-0.00015744
7.81363e-05
-0.000160269
8.81829e-05
-0.000163738
9.93994e-05
-0.000167993
0.000112199
-0.000173212
0.000127082
-0.000179612
0.000145264
-0.000188148
0.000168254
-0.000200418
0.000197408
-0.000221794
0.000229478
-0.000237788
0.000234346
-0.00017943
0.000221251
-9.38847e-05
0.000204525
-4.66688e-06
0.000115128
0.000185228
7.14587e-06
-0.000137233
1.24461e-05
-0.00016196
1.8031e-05
-0.000155917
2.40873e-05
-0.000154709
3.03413e-05
-0.000155594
3.67696e-05
-0.00015686
4.34344e-05
-0.000158372
5.0403e-05
-0.000160218
5.77485e-05
-0.000162479
6.55577e-05
-0.000165249
7.39377e-05
-0.000168649
8.30279e-05
-0.000172828
9.30197e-05
-0.000177985
0.000104194
-0.000184387
0.000116971
-0.000192389
0.000132151
-0.000203328
0.000150806
-0.000219074
0.000172903
-0.000243891
0.000193885
-0.000258771
0.000179116
-0.00016466
0.000163479
-7.82476e-05
0.000151442
7.3703e-06
0.000139249
0.000127321
6.84484e-06
-0.000144078
1.18303e-05
-0.000166945
1.718e-05
-0.000161267
2.29424e-05
-0.000160471
2.88533e-05
-0.000161505
3.48981e-05
-0.000162905
4.11265e-05
-0.000164601
4.75856e-05
-0.000166677
5.43224e-05
-0.000169215
6.13869e-05
-0.000172314
6.88343e-05
-0.000176097
7.67283e-05
-0.000180722
8.51461e-05
-0.000186403
9.41751e-05
-0.000193416
0.000103977
-0.00020219
0.000114587
-0.000213938
0.000126589
-0.000231075
0.000137415
-0.000254717
0.000143254
-0.00026461
0.000115506
-0.000136913
0.000109477
-7.22175e-05
0.000105189
1.16578e-05
0.000167297
7.71411e-05
6.48248e-06
-0.00015056
1.11372e-05
-0.0001716
1.62127e-05
-0.000166343
2.16359e-05
-0.000165894
2.71604e-05
-0.00016703
3.27766e-05
-0.000168521
3.85194e-05
-0.000170343
4.44155e-05
-0.000172573
5.04848e-05
-0.000175285
5.6741e-05
-0.00017857
6.31879e-05
-0.000182544
6.98149e-05
-0.000187349
7.65866e-05
-0.000193174
8.34184e-05
-0.000200247
9.01488e-05
-0.000208921
9.62675e-05
-0.000220057
0.000101513
-0.000236321
0.000101571
-0.000254776
9.59706e-05
-0.000259009
8.20082e-05
-0.00012295
8.28568e-05
-7.30659e-05
7.74525e-05
1.70619e-05
0.000192177
5.2572e-05
6.07387e-06
-0.000156634
1.03903e-05
-0.000175917
1.51603e-05
-0.000171113
2.02116e-05
-0.000170946
2.53217e-05
-0.00017214
3.04829e-05
-0.000173682
3.57156e-05
-0.000175576
4.10285e-05
-0.000177886
4.64186e-05
-0.000180675
5.18691e-05
-0.00018402
5.73433e-05
-0.000188018
6.27759e-05
-0.000192782
6.80548e-05
-0.000198453
7.29932e-05
-0.000205186
7.72443e-05
-0.000213172
8.01768e-05
-0.000222989
8.07243e-05
-0.000236868
7.56533e-05
-0.000249705
6.48607e-05
-0.000248216
7.81597e-05
-0.000136249
6.61024e-05
-6.10084e-05
5.45895e-05
2.85745e-05
0.000198918
4.78487e-05
5.63494e-06
-0.000162269
9.61383e-06
-0.000179896
1.40551e-05
-0.000175554
1.87142e-05
-0.000175605
2.33961e-05
-0.000176822
2.80929e-05
-0.000178379
3.28127e-05
-0.000180296
3.75499e-05
-0.000182623
4.22851e-05
-0.00018541
4.69805e-05
-0.000188716
5.15739e-05
-0.000192611
5.59692e-05
-0.000197177
6.00187e-05
-0.000202503
6.35012e-05
-0.000208668
6.60483e-05
-0.000215719
6.7121e-05
-0.000224062
6.5494e-05
-0.000235241
6.05444e-05
-0.000244755
5.04947e-05
-0.000238167
7.02453e-05
-0.000156
4.31785e-05
-3.39414e-05
2.96405e-05
4.21126e-05
0.000190146
3.84124e-05
5.18243e-06
-0.000167451
8.83187e-06
-0.000183545
1.29293e-05
-0.000179651
1.71871e-05
-0.000179862
2.14394e-05
-0.000181074
2.56768e-05
-0.000182616
2.98974e-05
-0.000184516
3.40864e-05
-0.000186812
3.82143e-05
-0.000189538
4.22326e-05
-0.000192734
4.60687e-05
-0.000196447
4.96178e-05
-0.000200726
5.27299e-05
-0.000205615
5.51915e-05
-0.00021113
5.66823e-05
-0.00021721
5.67275e-05
-0.000224107
5.43994e-05
-0.000232913
5.0421e-05
-0.000240776
4.3986e-05
-0.000231732
5.21715e-05
-0.000164185
2.48117e-05
-6.58145e-06
5.19521e-06
6.17293e-05
0.000179814
1.55272e-05
4.73358e-06
-0.000172185
8.06716e-06
-0.000186878
1.18133e-05
-0.000183397
1.56711e-05
-0.00018372
1.95023e-05
-0.000184905
2.32962e-05
-0.00018641
2.70435e-05
-0.000188263
3.07237e-05
-0.000190492
3.43033e-05
-0.000193117
3.77315e-05
-0.000196162
4.09375e-05
-0.000199653
4.38258e-05
-0.000203615
4.62698e-05
-0.000208059
4.80978e-05
-0.000212958
4.90744e-05
-0.000218186
4.88158e-05
-0.000223848
4.6714e-05
-0.000230812
4.30426e-05
-0.000237105
3.76367e-05
-0.000226326
3.77e-05
-0.000164248
2.7408e-05
3.71036e-06
7.31173e-06
8.18256e-05
0.000171823
1.53029e-05
4.30439e-06
-0.000176489
7.33942e-06
-0.000189913
1.07351e-05
-0.000186793
1.42038e-05
-0.000187188
1.76319e-05
-0.000188333
2.10068e-05
-0.000189785
2.43143e-05
-0.000191571
2.75313e-05
-0.000193709
3.06236e-05
-0.00019621
3.35436e-05
-0.000199083
3.62298e-05
-0.00020234
3.86057e-05
-0.000205991
4.05811e-05
-0.000210034
4.20468e-05
-0.000214423
4.28747e-05
-0.000219014
4.28459e-05
-0.00022382
4.16482e-05
-0.000229614
3.9552e-05
-0.000235008
3.73649e-05
-0.000224138
3.86214e-05
-0.000165505
4.98401e-05
-7.50852e-06
4.29185e-05
8.87471e-05
0.000154257
6.04843e-05
3.90794e-06
-0.000180397
6.66392e-06
-0.000192669
9.71975e-06
-0.000189849
1.28203e-05
-0.000190289
1.58724e-05
-0.000191385
1.88612e-05
-0.000192774
2.17693e-05
-0.000194479
2.45723e-05
-0.000196512
2.72369e-05
-0.000198874
2.97205e-05
-0.000201566
3.19725e-05
-0.000204592
3.39353e-05
-0.000207953
3.5554e-05
-0.000211653
3.67784e-05
-0.000215648
3.7578e-05
-0.000219814
3.78942e-05
-0.000224136
3.76397e-05
-0.00022936
3.75939e-05
-0.000234962
3.99348e-05
-0.000226479
4.69055e-05
-0.000172476
7.01698e-05
-3.07728e-05
8.20881e-05
7.68288e-05
0.000132846
0.000103499
3.55349e-06
-0.00018395
6.04886e-06
-0.000195164
8.78549e-06
-0.000192585
1.15491e-05
-0.000193053
1.42608e-05
-0.000194097
1.69049e-05
-0.000195418
1.94614e-05
-0.000197035
2.1905e-05
-0.000198956
2.42037e-05
-0.000201173
2.63186e-05
-0.000203681
2.82074e-05
-0.00020648
2.98265e-05
-0.000209572
3.11423e-05
-0.000212969
3.21412e-05
-0.000216647
3.28508e-05
-0.000220523
3.32977e-05
-0.000224583
3.3493e-05
-0.000229555
3.45007e-05
-0.00023597
3.91689e-05
-0.000231148
4.92712e-05
-0.000182578
6.94841e-05
-5.09852e-05
8.98847e-05
5.64284e-05
0.000128587
9.41435e-05
3.24408e-06
-0.000187195
5.48897e-06
-0.000197409
7.93238e-06
-0.000195029
1.03951e-05
-0.000195516
1.28074e-05
-0.000196509
1.51534e-05
-0.000197764
1.74113e-05
-0.000199293
1.95554e-05
-0.0002011
2.15548e-05
-0.000203173
2.33734e-05
-0.0002055
2.49716e-05
-0.000208079
2.63133e-05
-0.000210914
2.73697e-05
-0.000214025
2.81307e-05
-0.000217408
2.86357e-05
-0.000221028
2.89192e-05
-0.000224866
2.89762e-05
-0.000229612
2.96001e-05
-0.000236594
3.38277e-05
-0.000235375
4.2669e-05
-0.00019142
5.68044e-05
-6.5121e-05
7.4233e-05
3.90002e-05
0.000139803
6.30172e-05
2.97406e-06
-0.000190169
4.95889e-06
-0.000199394
7.13019e-06
-0.0001972
9.32195e-06
-0.000197707
1.14702e-05
-0.000198657
1.35597e-05
-0.000199853
1.55686e-05
-0.000201302
1.7471e-05
-0.000203003
1.92376e-05
-0.00020494
2.08358e-05
-0.000207098
2.22284e-05
-0.000209471
2.33787e-05
-0.000212064
2.42544e-05
-0.000214901
2.48268e-05
-0.000217981
2.51038e-05
-0.000221305
2.50935e-05
-0.000224856
2.47229e-05
-0.000229242
2.42239e-05
-0.000236095
2.71416e-05
-0.000238292
3.54647e-05
-0.000199743
4.78832e-05
-7.75398e-05
6.03889e-05
2.64949e-05
0.000157624
4.25681e-05
2.73037e-06
-0.000192899
4.41598e-06
-0.00020108
6.31757e-06
-0.000199102
8.25106e-06
-0.000199641
1.01536e-05
-0.00020056
1.20109e-05
-0.000201711
1.38026e-05
-0.000203094
1.55041e-05
-0.000204704
1.70894e-05
-0.000206525
1.85298e-05
-0.000208539
1.97947e-05
-0.000210736
2.08522e-05
-0.000213122
2.16522e-05
-0.000215701
2.21521e-05
-0.000218481
2.23187e-05
-0.000221472
2.21414e-05
-0.000224679
2.14622e-05
-0.000228563
1.99259e-05
-0.000234559
2.13891e-05
-0.000239756
3.00417e-05
-0.000208395
4.78938e-05
-9.5392e-05
5.76328e-05
1.67559e-05
0.000182741
3.25164e-05
2.49598e-06
-0.000195395
3.81872e-06
-0.000202403
5.43507e-06
-0.000200719
7.09865e-06
-0.000201304
8.74668e-06
-0.000202208
1.03679e-05
-0.000203332
1.19451e-05
-0.000204671
1.34566e-05
-0.000206216
1.48805e-05
-0.000207948
1.61963e-05
-0.000209854
1.73831e-05
-0.000211923
1.84135e-05
-0.000214152
1.9236e-05
-0.000216523
1.97772e-05
-0.000219022
1.99785e-05
-0.000221674
1.98588e-05
-0.000224559
1.92362e-05
-0.00022794
1.73893e-05
-0.000232712
1.72415e-05
-0.000239608
2.50685e-05
-0.000216221
5.28303e-05
-0.000123154
6.66908e-05
2.89525e-06
0.000217062
3.23697e-05
2.24448e-06
-0.00019764
3.14586e-06
-0.000203304
4.45374e-06
-0.000202027
5.81758e-06