/*--------------------------------*- C++ -*----------------------------------*\
| =========                 |                                                 |
| \\      /  F ield         | OpenFOAM: The Open Source CFD Toolbox           |
|  \\    /   O peration     | Version:  2206                                  |
|   \\  /    A nd           | Website:  www.openfoam.com                      |
|    \\/     M anipulation  |                                                 |
\*---------------------------------------------------------------------------*/
FoamFile
{
    version     2.0;
    format      ascii;
    arch        "LSB;label=32;scalar=64";
    class       surfaceScalarField;
    location    "0.875";
    object      alphaPhi0.water;
}
// * * * * * * * * * * * * * * * * * * * * * * * * * * * * * * * * * * * * * //

dimensions      [0 3 -1 0 0 0 0];

oriented        oriented;

internalField   nonuniform List<scalar> 
4432
(
-2.93038e-06
2.93038e-06
-7.94551e-06
5.01511e-06
-1.4482e-05
6.53649e-06
-2.03099e-05
5.82789e-06
-2.25194e-05
2.20949e-06
-2.14696e-05
-1.04983e-06
-1.98859e-05
-1.58364e-06
-1.911e-05
-7.75925e-07
-1.89591e-05
-1.50932e-07
-1.9299e-05
3.39975e-07
-1.98894e-05
5.90392e-07
-2.00943e-05
2.04834e-07
-1.92921e-05
-7.95168e-07
-1.81171e-05
-7.52058e-07
-2.01027e-05
2.13039e-06
-2.61931e-05
5.40229e-06
-3.03869e-05
4.22352e-06
-2.77691e-05
-2.50281e-06
-2.0566e-05
-7.01005e-06
-1.30613e-05
-7.47574e-06
-6.36293e-06
-6.74828e-06
-1.38263e-06
-5.00721e-06
-1.38303e-06
-8.40994e-06
1.13403e-05
-1.66331e-05
1.32383e-05
-2.29577e-05
1.2861e-05
-2.55592e-05
8.42947e-06
-2.46068e-05
1.2571e-06
-2.22717e-05
-3.38492e-06
-2.03716e-05
-3.48377e-06
-1.95131e-05
-1.63445e-06
-1.95329e-05
-1.3113e-07
-2.00003e-05
8.07305e-07
-2.08171e-05
1.40727e-06
-2.21889e-05
1.57678e-06
-2.42764e-05
1.50154e-06
-2.62723e-05
2.37858e-06
-2.90507e-05
4.85511e-06
-2.90277e-05
5.30932e-06
-2.43222e-05
-8.33385e-07
-1.74455e-05
-9.30486e-06
-1.12966e-05
-1.31058e-05
-6.01281e-06
-1.27675e-05
-1.15516e-06
-1.20356e-05
1.35064e-06
-7.51301e-06
-3.28146e-08
-9.93245e-06
2.12728e-05
-1.81316e-05
2.14374e-05
-2.36736e-05
1.84031e-05
-2.61757e-05
1.09315e-05
-2.57269e-05
8.08357e-07
-2.34407e-05
-5.67113e-06
-2.11508e-05
-5.77365e-06
-1.98393e-05
-2.94598e-06
-1.92195e-05
-7.50902e-07
-1.88982e-05
4.85935e-07
-1.88016e-05
1.31069e-06
-1.92506e-05
2.02591e-06
-2.06388e-05
2.89069e-06
-2.17274e-05
4.25245e-06
-2.13428e-05
5.06459e-06
-1.79639e-05
1.85572e-06
-1.2585e-05
-6.28559e-06
-8.56574e-06
-1.41874e-05
-5.6401e-06
-1.66895e-05
-2.10215e-06
-1.67413e-05
2.13064e-06
-1.62684e-05
3.88454e-06
-9.26691e-06
3.85159e-06
-9.51351e-06
3.07863e-05
-1.7241e-05
2.91649e-05
-2.28582e-05
2.40203e-05
-2.59091e-05
1.39824e-05
-2.58886e-05
7.87809e-07
-2.39435e-05
-7.61616e-06
-2.20004e-05
-7.71678e-06
-2.07391e-05
-4.20726e-06
-1.99945e-05
-1.49554e-06
-1.94651e-05
-4.34228e-08
-1.89054e-05
7.5093e-07
-1.82537e-05
1.3742e-06
-1.75029e-05
2.14006e-06
-1.61663e-05
2.94681e-06
-1.32027e-05
2.29636e-06
-9.35428e-06
-1.96748e-06
-6.52695e-06
-9.37473e-06
-5.59577e-06
-1.51186e-05
-4.88942e-06
-1.73958e-05
-2.35439e-06
-1.92763e-05
1.56602e-06
-2.01888e-05
3.92759e-06
-1.16285e-05
7.77922e-06
-8.44311e-06
3.92294e-05
-1.55568e-05
3.62786e-05
-2.09394e-05
2.94029e-05
-2.38725e-05
1.69154e-05
-2.41978e-05
1.1132e-06
-2.32319e-05
-8.58208e-06
-2.23731e-05
-8.57556e-06
-2.16421e-05
-4.93829e-06
-2.09692e-05
-2.16845e-06
-2.04308e-05
-5.81892e-07
-1.98638e-05
1.83958e-07
-1.90023e-05
5.12797e-07
-1.75203e-05
6.58002e-07
-1.49631e-05
3.89638e-07
-1.13204e-05
-1.34632e-06
-7.82531e-06
-5.46259e-06
-6.30793e-06
-1.08921e-05
-6.44281e-06
-1.49837e-05
-6.19934e-06
-1.76393e-05
-4.37936e-06
-2.10963e-05
-1.48348e-06
-2.30847e-05
1.8377e-06
-1.49497e-05
9.61704e-06
-7.08748e-06
4.63169e-05
-1.32432e-05
4.24343e-05
-1.77713e-05
3.3931e-05
-2.01602e-05
1.93044e-05
-2.09629e-05
1.91594e-06
-2.15183e-05
-8.02674e-06
-2.23134e-05
-7.78044e-06
-2.24252e-05
-4.82647e-06
-2.19009e-05
-2.69276e-06
-2.12761e-05
-1.20662e-06
-2.06425e-05
-4.49646e-07
-1.98229e-05
-3.06808e-07
-1.85084e-05
-6.56566e-07
-1.62548e-05
-1.86394e-06
-1.3002e-05
-4.59915e-06
-9.78017e-06
-8.68437e-06
-7.93676e-06
-1.27355e-05
-7.32388e-06
-1.55966e-05
-6.80653e-06
-1.81567e-05
-6.17939e-06
-2.17234e-05
-4.98127e-06
-2.42828e-05
-1.33882e-06
-1.85921e-05
8.27795e-06
-5.54118e-06
5.1858e-05
-1.06563e-05
4.75494e-05
-1.41678e-05
3.74425e-05
-1.56778e-05
2.08143e-05
-1.66847e-05
2.92397e-06
-1.92345e-05
-5.4741e-06
-2.21307e-05
-4.88325e-06
-2.30992e-05
-3.85794e-06
-2.27257e-05
-3.06622e-06
-2.19557e-05
-1.97663e-06
-2.11249e-05
-1.28043e-06
-2.0218e-05
-1.21374e-06
-1.90102e-05
-1.86433e-06
-1.70022e-05
-3.87199e-06
-1.38236e-05
-7.77774e-06
-1.02358e-05
-1.22721e-05
-7.69645e-06
-1.52749e-05
-6.60213e-06
-1.66909e-05
-6.25965e-06
-1.84991e-05
-6.52734e-06
-2.14557e-05
-6.77516e-06
-2.4035e-05
-5.10677e-06
-2.0261e-05
3.17116e-06
-4.10315e-06
5.59612e-05
-7.95148e-06
5.13977e-05
-9.36735e-06
3.88584e-05
-8.53354e-06
1.99805e-05
-1.01634e-05
4.55797e-06
-1.64403e-05
8.05814e-07
-2.1755e-05
4.18611e-07
-2.32103e-05
-2.40265e-06
-2.26681e-05
-3.60848e-06
-2.15508e-05
-3.09394e-06
-2.03902e-05
-2.44099e-06
-1.93321e-05
-2.27188e-06
-1.81738e-05
-3.02262e-06
-1.61896e-05
-5.85615e-06
-1.26352e-05
-1.13321e-05
-8.45168e-06
-1.64554e-05
-5.68932e-06
-1.80371e-05
-5.03372e-06
-1.73465e-05
-5.17751e-06
-1.83553e-05
-5.27065e-06
-2.13625e-05
-5.11858e-06
-2.4187e-05
-4.66354e-06
-2.07161e-05
-1.49219e-06
1.05562e-05
-1.07947e-05
5.16371e-06
4.76399e-06
3.22637e-06
2.31584e-06
1.19278e-05
-8.79416e-06
1.98135e-05
-8.59458e-06
2.55997e-05
-5.97653e-06
2.48808e-05
7.13294e-07
1.61755e-05
8.68442e-06
5.75546e-06
1.57598e-05
-1.098e-05
1.6737e-05
-1.39036e-05
2.9252e-06
-3.92111e-06
-9.98098e-06
-8.9987e-07
-3.01966e-06
-2.0761e-05
1.98606e-05
-4.64225e-05
2.59321e-05
-4.80257e-05
1.29507e-05
-5.41614e-05
-1.48985e-06
-3.0893e-05
-3.21398e-05
-3.8486e-05
2.02384e-06
-1.28929e-05
-3.73084e-06
1.08108e-05
9.9268e-06
-1.07727e-05
2.42685e-05
-2.40878e-05
3.15712e-05
-1.69116e-05
3.72296e-05
-7.65645e-06
3.56873e-05
2.77046e-06
3.09275e-05
1.34504e-05
2.13257e-05
2.55591e-05
1.26191e-05
2.75677e-05
-8.17186e-06
2.37178e-05
-2.20429e-05
3.89168e-06
-3.16435e-05
6.58026e-06
-3.73683e-05
2.41943e-05
-3.1491e-05
2.13093e-05
-2.81878e-05
9.57045e-06
-2.60408e-05
-7.96785e-06
-2.9786e-05
-4.22601e-05
-6.82541e-05
-4.50734e-06
-8.29947e-06
5.12133e-06
2.91548e-07
2.30776e-05
-2.96809e-05
3.10228e-05
-3.29849e-05
4.73971e-05
-2.38084e-05
5.11411e-05
-6.16535e-06
4.37581e-05
8.74206e-06
3.25988e-05
2.12985e-05
2.79794e-05
3.07531e-05
3.18527e-05
4.40977e-05
1.20976e-05
4.43446e-05
-1.52769e-05
2.69092e-05
-1.94015e-05
1.4581e-05
-1.88455e-05
2.33063e-05
-1.88991e-05
2.13287e-05
-1.5912e-05
6.49103e-06
-1.22415e-05
-1.17154e-05
-1.32728e-05
-5.99497e-05
-8.15262e-05
-6.91114e-06
-1.30273e-06
9.01137e-06
-1.53771e-05
2.01489e-05
-4.68021e-05
3.80834e-05
-5.21725e-05
3.99644e-05
-2.14409e-05
4.12455e-05
2.08359e-06
3.82024e-05
1.17039e-05
3.61586e-05
2.46275e-05
3.56436e-05
3.97214e-05
3.70496e-05
5.02274e-05
2.49429e-05
5.66588e-05
9.13944e-07
5.07882e-05
-6.66632e-06
3.37075e-05
-7.21689e-06
2.38335e-05
-6.19649e-06
2.0216e-05
-2.30697e-06
2.44779e-06
1.9318e-06
-1.60465e-05
7.50505e-06
-7.13323e-05
-7.38724e-05
-1.08043e-06
-6.71973e-08
1.44629e-05
-3.24779e-05
2.36956e-05
-5.6276e-05
2.37587e-05
-4.97729e-05
1.58574e-05
-9.76094e-06
1.92741e-05
1.13182e-06
2.31551e-05
1.03068e-05
2.59083e-05
2.23888e-05
2.77317e-05
3.7918e-05
3.17405e-05
4.64798e-05
3.01916e-05
5.83992e-05
1.48556e-05
6.7166e-05
2.1367e-07
6.18033e-05
1.09212e-06
2.27751e-05
5.4049e-06
1.56628e-05
8.89033e-06
-1.16911e-06
1.87807e-05
-3.03629e-05
2.10117e-05
-7.28267e-05
-5.25954e-05
2.46586e-06
-2.73319e-06
7.08279e-06
-3.79007e-05
1.56223e-05
-6.1557e-05
7.99667e-06
-2.04497e-05
4.42465e-06
-1.53232e-06
5.36528e-06
1.67183e-06
1.10887e-05
9.17713e-06
1.18912e-05
2.02337e-05
1.36895e-05
3.5821e-05
1.71304e-05
4.25425e-05
2.16469e-05
5.40742e-05
2.3095e-05
6.39354e-05
1.44764e-05
6.79765e-05
9.62478e-06
5.43433e-05
1.36693e-05
2.32812e-05
2.73281e-05
-7.48137e-06
3.8949e-05
-4.81427e-05
2.57175e-05
-5.93308e-05
-2.66125e-05
-1.39371e-06
-1.33884e-06
2.86446e-06
-5.51947e-05
1.18493e-05
-6.86472e-05
1.59443e-06
-9.04162e-06
8.67738e-07
-6.41333e-07
1.17466e-06
1.10821e-06
3.22578e-06
5.55926e-06
-3.26893e-06
1.07306e-05
-8.75437e-06
8.96414e-06
-7.89737e-06
1.13924e-05
1.38662e-06
9.40385e-06
1.64661e-05
2.4642e-05
2.36078e-05
5.85864e-05
3.00694e-05
4.49953e-05
3.75907e-05
2.11571e-05
4.37396e-05
-1.39171e-05
3.84828e-05
-4.27316e-05
2.15343e-05
-4.213e-05
-4.81286e-06
-9.02009e-06
7.96351e-06
-9.29913e-06
-5.4728e-05
-8.62211e-07
-7.38771e-05
-3.52737e-08
-7.46203e-06
-1.29685e-07
-6.41349e-07
-5.27693e-07
1.34016e-06
-3.58933e-06
1.63066e-06
-4.86071e-06
1.78147e-06
-6.54137e-06
2.17362e-06
-7.08185e-06
1.21119e-06
-6.7471e-06
6.92531e-08
-1.12964e-06
1.58372e-06
1.72059e-05
1.96348e-05
2.86937e-05
3.08052e-05
3.55255e-05
1.17587e-05
3.16917e-05
-1.38177e-05
1.89231e-05
-3.73116e-05
9.435e-06
-3.45075e-05
3.67622e-06
3.1386e-09
5.5958e-05
-3.4069e-06
5.48078e-05
-6.43634e-06
4.18878e-05
-1.60122e-05
2.95564e-05
-3.27688e-05
2.13149e-05
-4.69218e-05
1.49587e-05
-5.07873e-05
4.28414e-06
-4.87299e-05
-4.46067e-06
-4.52615e-05
-7.07769e-06
-4.21076e-05
-6.24962e-06
-3.97423e-05
-4.8081e-06
-3.81007e-05
-3.91488e-06
-3.69174e-05
-4.20686e-06
-3.43847e-05
-8.38829e-06
-2.71508e-05
-1.85581e-05
-1.67513e-05
-2.68417e-05
-9.67775e-06
-2.51055e-05
-9.58093e-06
-1.74419e-05
-1.13347e-05
-1.6599e-05
-9.11537e-06
-2.35754e-05
-2.81224e-08
-3.28885e-05
1.49339e-05
-3.55095e-05
-2.33235e-05
3.67864e-05
1.38903e-06
5.4569e-05
-7.91914e-06
6.4116e-05
-2.27103e-05
5.6679e-05
-4.12951e-05
4.81412e-05
-5.61425e-05
3.61623e-05
-6.28338e-05
2.16498e-05
-6.561e-05
7.05982e-06
-6.49206e-05
-4.0994e-06
-6.03657e-05
-6.97927e-06
-5.66402e-05
-4.54927e-06
-5.54587e-05
-2.94729e-06
-5.7186e-05
-1.22978e-06
-6.23914e-05
8.04066e-07
-6.59906e-05
-1.21617e-06
-5.74143e-05
-1.485e-05
-4.00614e-05
-3.41252e-05
-2.48228e-05
-3.15618e-05
-2.10102e-05
-9.64309e-06
-2.15898e-05
-8.18344e-06
-1.56976e-05
-2.08909e-05
-1.89067e-08
-4.7021e-05
1.60172e-05
-5.16962e-05
-3.40041e-05
2.66963e-05
-8.05785e-06
5.26025e-05
-4.11021e-05
8.52392e-05
-7.54475e-05
7.66501e-05
-9.30134e-05
5.06195e-05
-0.000103722
3.0914e-05
-0.000116189
1.55415e-05
-0.000120417
4.81251e-06
-8.65394e-05
-2.69608e-07
-4.59883e-05
-8.93119e-07
-3.29499e-05
-1.02589e-06
-3.30333e-05
4.95188e-08
-4.48307e-05
7.3558e-07
-5.30785e-05
5.27299e-07
-5.74276e-05
6.22879e-08
-7.56636e-05
-3.208e-05
-7.20915e-05
-6.73743e-05
-4.31584e-05
-5.11267e-05
-3.36305e-05
-2.21867e-05
-3.02382e-05
-1.45296e-05
-3.8441e-05
-2.44176e-05
-5.15093e-05
-5.49264e-05
-6.17412e-05
-4.14285e-05
-1.28737e-05
-8.28797e-05
-0.000111538
0.000118036
-0.000196009
5.84125e-05
-0.000232744
4.83701e-05
-0.000248465
3.58741e-05
-0.000240701
2.20526e-05
-0.000153711
5.37665e-06
-4.338e-05
-6.429e-07
-1.63107e-05
-2.21936e-06
-1.39972e-05
-3.32912e-06
-1.32864e-05
-2.47716e-06
-1.4141e-05
-8.95261e-08
-1.24632e-05
2.06883e-07
-1.0224e-05
1.63893e-06
-4.79008e-05
-1.75134e-06
-9.62873e-05
-5.2347e-05
-0.000103391
-8.05146e-05
-7.42368e-05
-5.35821e-05
-5.98676e-05
-3.94813e-05
-5.51634e-05
-2.69918e-05
-0.000139155
-3.60643e-05
-0.000168553
-2.54751e-05
-0.000204903
-5.00675e-06
1.19743e-05
-0.000229732
-6.73718e-05
9.61342e-05
-9.18113e-05
1.51126e-05
-9.2247e-05
9.18529e-06
-6.84671e-05
4.1868e-06
-2.83815e-05
3.64068e-07
-1.5086e-05
-4.10584e-08
-1.49676e-05
-1.14237e-07
-2.59988e-05
-1.34433e-07
-2.65509e-05
-2.00792e-07
-2.51047e-05
-8.19912e-07
-2.17783e-05
-8.41114e-07
-1.10319e-05
9.35606e-07
-7.7189e-06
2.74562e-07
-9.28297e-06
-3.48547e-07
-6.69339e-05
-1.3628e-05
-0.000109384
-5.79375e-05
-0.000111197
-8.1198e-05
-0.000117795
-5.13039e-05
-0.000184013
-3.27665e-05
-0.000213913
-9.46098e-06
-0.00024778
6.70796e-06
-0.000158788
7.62202e-06
5.18814e-06
-7.24782e-05
-2.17992e-05
1.52697e-06
-1.20884e-05
3.82977e-06
-4.39581e-06
1.2572e-06
-3.73566e-07
1.57671e-07
-1.07893e-08
-1.38684e-11
-5.17113e-08
-1.8944e-10
-1.65489e-07
-6.51368e-10
-3.16864e-07
-2.10173e-09
-1.7065e-06
-2.12083e-08
-8.92143e-06
-1.22043e-07
-1.25032e-05
-4.0434e-07
-7.01331e-06
1.40283e-06
-3.50602e-06
6.11397e-07
-1.89687e-06
-1.87539e-09
-1.34589e-05
-3.00474e-06
-0.000105786
-1.37304e-05
-0.000157411
-6.57395e-05
-0.000165227
-5.08894e-05
-0.000191933
-1.96042e-05
-0.000123099
6.42437e-06
-4.32436e-05
7.10635e-06
-2.65432e-05
3.94691e-06
2.83467e-06
-2.4501e-05
-3.55906e-06
2.54048e-08
-1.18561e-06
1.17911e-06
-1.4613e-07
2.17564e-07
-3.78347e-11
1.20926e-08
-5.18466e-11
1.32716e-13
-2.3915e-10
-1.89921e-12
-8.87549e-10
-1.07059e-11
-2.97784e-09
-5.49391e-11
-2.40675e-08
-3.60914e-10
-1.45026e-07
-2.1467e-09
-9.02418e-07
-1.77804e-09
-8.94331e-07
-2.6343e-08
-4.55028e-07
-1.43178e-08
-4.4787e-07
1.62419e-09
-2.9746e-06
-7.73219e-07
-1.43174e-05
-3.9728e-06
-0.000136203
-2.42292e-05
-0.000158049
-5.00318e-05
-3.19444e-05
-1.7008e-05
-2.30221e-05
2.13476e-06
-2.0106e-05
3.97513e-06
-1.95473e-05
3.08342e-06
1.36055e-06
-1.83953e-05
-1.03026e-06
7.59628e-07
-1.7316e-07
3.23644e-07
-1.07503e-08
6.19501e-08
-2.16779e-12
1.35658e-09
-2.15715e-12
9.54375e-14
-1.56905e-12
-2.35347e-14
-1.23274e-11
-2.70341e-13
-6.78276e-11
-1.20733e-12
-4.28094e-10
-5.54109e-12
-3.17923e-09
-1.58563e-11
-1.02652e-08
-6.15109e-12
-3.69868e-08
-1.0052e-09
-5.34057e-08
-1.79478e-09
-6.18698e-08
4.85896e-10
-7.54383e-07
-1.46977e-07
-4.03926e-06
-1.08097e-06
-5.37102e-05
-4.79643e-06
-0.00010854
-2.91244e-05
-2.86916e-05
-1.89059e-05
-1.55622e-05
5.755e-07
-1.39324e-05
1.98862e-06
-1.31457e-05
2.08166e-06
-9.79634e-07
-1.32142e-05
-1.92788e-07
8.99535e-07
-3.9553e-08
1.69703e-07
-1.1896e-09
2.38766e-08
-4.81021e-13
2.03441e-10
-5.02279e-13
8.28002e-14
-5.53182e-13
-2.01206e-14
-8.33104e-13
-8.69311e-14
-2.19102e-12
-1.36545e-13
-9.56809e-12
-1.90398e-13
-6.43739e-11
-2.93568e-13
-3.22259e-10
-7.19659e-12
-1.00021e-09
-7.18158e-11
-2.69239e-09
-3.01147e-10
-4.00675e-09
-3.72376e-10
-1.43234e-07
-1.41642e-08
-1.08909e-06
-1.68043e-07
-5.15807e-06
-8.92409e-07
-5.0992e-05
-4.47026e-06
-7.95937e-05
-1.81188e-05
-6.19631e-05
-1.0665e-05
-5.17165e-05
-1.67695e-06
-4.42058e-05
-3.34596e-07
-1.08475e-05
-4.35943e-05
4.06615e-08
8.78168e-07
-1.50936e-08
2.32198e-07
-1.75304e-10
8.96714e-09
-4.21464e-13
3.11092e-11
-4.91436e-13
1.05272e-13
-4.81183e-13
-6.62884e-14
-4.37208e-13
-1.39626e-13
-4.50451e-13
-1.65915e-13
-7.2295e-13
-1.82433e-13
-4.79829e-12
2.20995e-14
-9.12068e-11
9.71083e-13
-1.16985e-10
-3.6194e-12
-1.80174e-10
-1.99868e-11
-4.90272e-10
-7.94188e-11
-1.17976e-08
-1.94247e-10
-1.64202e-07
-1.20316e-08
-9.44423e-07
-8.94069e-08
-4.74214e-06
-5.29456e-07
-3.73305e-05
-2.56185e-06
-6.01043e-05
-1.12569e-05
-5.03447e-05
-5.21142e-06
-3.94524e-05
-6.54373e-06
-3.21742e-06
-1.06214e-05
1.36523e-07
7.17419e-07
-5.87507e-09
3.59372e-07
-2.79142e-11
3.12033e-09
-7.73647e-13
4.02403e-12
-8.49533e-13
1.38548e-13
-1.23406e-12
2.42447e-13
-6.43893e-13
-7.31834e-13
-5.19839e-13
-6.32336e-13
-9.88517e-13
-2.28299e-13
-5.69819e-12
-3.75046e-13
-4.2925e-12
-9.69012e-14
-8.08822e-12
5.65913e-13
-2.99042e-11
-4.40482e-13
-9.33992e-11
-3.23042e-12
-2.18762e-10
-1.34007e-11
-1.16569e-08
-5.91088e-10
-9.10742e-08
-9.44421e-09
-5.35565e-07
-6.40411e-08
-1.05266e-06
-2.91921e-07
-7.44451e-06
-1.76747e-06
-5.77684e-06
-9.17811e-06
-1.55382e-06
-1.04787e-05
-4.69472e-06
-5.18024e-07
1.85664e-07
4.67449e-07
1.65361e-08
5.21043e-07
-2.28559e-12
1.96604e-08
-1.45307e-12
4.51327e-12
-2.84402e-12
1.58492e-12
-8.85138e-12
6.33804e-12
-2.37027e-12
-7.24855e-12
-4.76847e-13
-3.04134e-12
-9.57076e-13
-4.84609e-13
-3.04891e-12
-2.52087e-13
-1.6251e-12
1.12505e-13
-7.73338e-13
2.25588e-13
-1.38309e-12
1.69126e-13
-3.9517e-12
6.89469e-14
-1.16003e-11
-4.09743e-12
-4.58976e-10
-5.10956e-12
-9.14557e-09
-6.13439e-10
-6.46854e-08
-7.51064e-09
-2.9774e-07
-5.27804e-08
-1.35236e-06
-2.92966e-07
-4.69883e-06
-3.98746e-06
-4.412e-06
-1.06094e-05
-6.45227e-06
-2.26325e-06
9.49992e-08
2.36959e-07
9.94695e-08
5.91218e-07
1.06584e-08
1.47368e-07
-4.75238e-13
1.06651e-08
-2.7839e-11
3.02704e-11
-4.98762e-11
4.03534e-11
-1.52736e-11
5.51661e-12
-9.65249e-13
-3.31141e-11
-3.86542e-13
-2.00478e-12
-1.25807e-12
-1.5814e-13
-7.84525e-13
1.17001e-14
-1.34034e-13
2.55229e-13
-7.15674e-14
1.03681e-13
-6.00413e-14
1.31904e-13
-4.79657e-12
1.58156e-13
1.86688e-11
-2.47015e-12
-6.31016e-10
3.93207e-13
-7.39692e-09
-6.15519e-10
-4.85353e-08
-1.04829e-08
-2.15764e-07
-1.14446e-07
-2.51668e-06
-7.46441e-07
-4.922e-06
-4.40032e-06
-5.39613e-06
-3.45786e-06
1.17745e-07
6.54473e-08
2.28111e-07
5.13936e-07
6.2925e-08
3.75145e-07
1.04123e-08
2.16878e-07
1.67868e-09
6.09687e-08
9.66883e-11
2.23268e-09
4.88589e-11
-7.90964e-10
-9.11118e-13
-1.01464e-10
4.13241e-15
-3.47729e-12
-1.51169e-14
-3.1546e-13
-4.0096e-14
5.90378e-15
-5.41002e-15
1.76281e-13
8.28491e-15
8.59248e-14
4.05207e-14
9.55736e-14
1.92548e-13
1.14103e-13
4.35268e-13
3.81949e-13
-8.22946e-12
2.87467e-12
-6.5607e-10
-2.64711e-11
-5.66074e-09
-6.5939e-09
1.15118e-08
-1.8332e-07
5.52974e-10
-1.07053e-06
-2.04449e-06
-3.49087e-06
-2.61493e-06
-2.35831e-06
3.89513e-08
1.1412e-08
2.21891e-07
3.05589e-07
1.95749e-07
3.58816e-07
1.08672e-07
2.68837e-07
5.76985e-08
1.50231e-07
4.74626e-09
5.07301e-08
-8.08587e-10
-2.52434e-09
-6.56821e-11
-8.70994e-10
-1.04691e-12
-6.92367e-11
2.22763e-13
-1.67952e-12
4.04255e-14
4.26941e-14
4.1543e-14
6.37622e-14
3.04222e-14
8.64599e-14
3.36454e-14
8.21651e-14
6.80191e-14
8.95842e-14
3.4872e-13
1.47962e-13
1.15981e-12
1.66361e-12
-2.24441e-10
1.91128e-10
-4.64244e-09
-3.31204e-09
-7.0518e-07
-3.11178e-07
-1.68638e-06
-3.78248e-06
-1.02177e-06
-5.12573e-06
-3.5385e-06
-7.1773e-08
1.05256e-08
4.952e-10
1.30417e-07
5.44528e-08
1.85412e-07
2.47662e-07
1.6946e-07
2.49632e-07
1.3896e-07
1.60075e-07
4.24457e-08
5.50992e-08
1.09424e-09
1.83515e-09
9.0372e-11
-2.59363e-10
5.77247e-12
-1.8898e-11
4.82881e-13
1.41098e-12
7.93342e-14
3.40855e-13
5.56742e-14
9.00038e-14
5.12705e-14
9.54628e-14
3.88777e-14
8.57529e-14
4.08347e-14
8.72245e-14
8.2521e-14
1.09788e-13
1.6017e-12
1.9609e-13
1.64495e-10
2.78247e-11
-4.79473e-09
1.37281e-09
-1.28931e-06
-1.46967e-07
-2.25609e-06
-3.76093e-06
-2.2535e-06
-4.894e-06
-4.42422e-06
-1.86039e-06
3.75819e-10
3.42704e-11
3.88416e-08
5.68657e-09
1.21956e-07
1.24058e-07
1.41462e-07
2.09469e-07
1.39536e-07
1.55972e-07
2.25002e-08
2.46455e-08
1.0849e-09
1.85508e-09
1.12561e-10
2.40783e-10
9.01135e-12
3.20627e-11
7.37241e-13
5.11593e-12
1.37991e-13
6.1318e-13
7.82863e-14
1.37784e-13
7.08317e-14
1.2281e-13
4.79918e-14
1.00792e-13
4.26048e-14
9.17195e-14
9.11302e-14
1.52855e-13
2.61669e-13
1.74776e-13
1.65894e-11
7.49562e-12
6.43097e-10
7.40178e-10
-2.47523e-07
-2.28526e-08
-2.19064e-06
-2.65084e-06
-2.35398e-06
-4.50236e-06
-4.09586e-06
-2.4399e-06
-4.2296e-11
1.99385e-11
5.09173e-09
4.76456e-10
6.51004e-08
6.21283e-09
7.70084e-08
5.73513e-08
3.2885e-08
2.17455e-08
-7.13448e-10
-9.11169e-10
8.69564e-11
5.81414e-10
1.19229e-11
8.59746e-11
4.74145e-13
1.54099e-11
4.25678e-13
2.3019e-12
1.95892e-13
3.29232e-13
1.13479e-13
1.44949e-13
1.01016e-13
1.51847e-13
5.9866e-14
1.22876e-13
4.66511e-14
9.79837e-14
8.93086e-14
1.99652e-13
1.58067e-13
1.98238e-13
6.46705e-12
1.17946e-12
3.78801e-10
3.67591e-10
-1.83919e-08
-3.91607e-09
-1.88946e-06
-8.28176e-07
-2.33914e-06
-3.86861e-06
-3.96504e-06
-2.22453e-06
-3.42835e-12
9.15102e-12
-2.2414e-11
1.87031e-10
4.17416e-09
1.08785e-09
9.24375e-09
3.41237e-09
4.65595e-09
3.48408e-10
7.52577e-10
-3.04292e-10
-5.64102e-12
3.22287e-11
-2.71559e-12
1.57006e-11
-2.03569e-13
3.36275e-12
2.12896e-13
5.97758e-13
1.1135e-13
1.2876e-13
1.28849e-13
1.38088e-13
1.21864e-13
1.70303e-13
7.16626e-14
1.41724e-13
5.28032e-14
9.39379e-14
8.35048e-14
2.01269e-13
1.19713e-13
2.05479e-13
1.15669e-12
1.38208e-13
9.57242e-11
7.57467e-10
-5.53277e-09
1.81859e-09
-1.01193e-06
-1.72551e-07
-2.47942e-06
-3.20828e-06
-2.95717e-06
-3.59642e-09
3.61207e-12
1.81722e-12
-4.51727e-11
2.49958e-11
5.80149e-10
1.77947e-10
1.72653e-09
5.86659e-10
8.39621e-10
1.04597e-10
1.33374e-10
-2.02728e-11
1.09984e-11
-1.09729e-13
-4.75313e-14
2.34876e-12
2.66328e-14
6.45936e-13
4.41073e-14
1.5731e-13
8.31069e-14
5.69939e-14
1.34729e-13
1.43287e-13
1.3017e-13
1.85403e-13
7.81135e-14
1.53349e-13
4.81779e-14
8.00511e-14
6.58823e-14
1.0738e-13
8.90155e-14
1.1315e-13
2.0487e-13
1.89724e-14
3.13835e-10
3.72693e-10
-3.77419e-10
2.43996e-09
-4.24445e-07
-8.37773e-08
-1.0747e-06
-2.03178e-06
-1.5276e-06
-1.24616e-09
8.98384e-13
3.00861e-13
-6.80763e-12
1.81974e-12
7.52409e-11
2.94055e-11
2.46681e-10
9.0829e-11
1.20937e-10
1.91102e-11
2.41136e-11
-4.01423e-13
2.94367e-12
4.36056e-13
2.15373e-13
4.13714e-13
6.05933e-14
1.33693e-13
4.07789e-14
3.81585e-14
4.72941e-14
3.61451e-14
1.29107e-13
1.21915e-13
1.34923e-13
1.93566e-13
7.78849e-14
1.52697e-13
3.61337e-14
6.4146e-14
3.0854e-14
3.84252e-14
3.40865e-14
3.01971e-14
4.6036e-14
5.33197e-15
3.29594e-10
4.31667e-11
3.89571e-10
2.37865e-09
-3.0106e-07
-2.05207e-08
-9.74449e-07
-1.1957e-06
-6.07487e-07
-6.79198e-10
5.33564e-14
7.52166e-14
-9.75261e-14
3.0905e-13
1.38635e-11
4.61792e-12
3.69226e-11
1.29035e-11
1.76686e-11
3.07907e-12
3.97885e-12
2.27582e-13
6.48715e-13
1.43866e-13
9.17122e-14
9.09148e-14
2.29988e-14
3.7228e-14
1.73396e-14
1.21362e-14
2.77308e-14
1.77651e-14
1.05504e-13
7.9314e-14
1.16025e-13
1.44769e-13
6.8689e-14
1.17471e-13
1.9801e-14
4.92676e-14
9.90145e-15
1.61967e-14
7.79936e-15
7.4536e-15
1.05412e-14
1.83339e-15
3.64751e-11
6.69596e-12
1.94879e-09
4.66627e-10
-1.84264e-07
2.82266e-08
-6.91463e-07
-5.4266e-07
-3.78301e-07
-6.80973e-10
6.46419e-15
2.18886e-14
1.9005e-13
8.05134e-14
2.50767e-12
7.5206e-13
5.28529e-12
1.73373e-12
2.49547e-12
4.74264e-13
6.25304e-13
1.08914e-13
1.24744e-13
5.5578e-14
2.71682e-14
3.08486e-14
8.19294e-15
1.12971e-14
5.87501e-15
3.54421e-15
1.09962e-14
6.13068e-15
5.6636e-14
3.43901e-14
6.97764e-14
6.71511e-14
4.90722e-14
6.16541e-14
1.37717e-14
3.12354e-14
3.94951e-15
8.72571e-15
2.82566e-15
2.99363e-15
3.53184e-15
6.89257e-16
5.85512e-12
8.43638e-13
4.10015e-10
6.25489e-11
-2.50614e-08
2.32908e-08
-2.77395e-07
-1.0261e-07
-3.05866e-07
-1.80953e-09
1.35256e-15
6.14386e-15
4.1066e-14
3.69744e-14
3.8455e-13
1.43643e-13
6.84423e-13
2.37668e-13
3.34402e-13
9.66785e-14
9.48798e-14
3.29925e-14
2.38413e-14
2.29647e-14
6.97344e-15
9.62078e-15
1.8625e-15
2.37964e-15
1.36457e-15
8.54006e-16
3.36713e-15
1.57432e-15
1.98324e-14
8.9668e-15
2.79214e-14
2.04071e-14
2.53404e-14
2.15165e-14
9.30565e-15
1.45552e-14
2.18698e-15
4.63849e-15
1.30955e-15
1.62247e-15
1.39568e-15
3.15312e-16
7.70785e-13
7.34658e-14
5.75379e-11
5.81592e-12
2.14386e-08
1.89236e-09
-7.96613e-08
6.62931e-08
-2.27034e-08
-6.89998e-09
2.00837e-16
1.38552e-15
6.93757e-15
1.45212e-14
4.99252e-14
2.40868e-14
8.61278e-14
3.85022e-14
4.39474e-14
1.56168e-14
1.44177e-14
1.46341e-14
4.85933e-15
6.40383e-15
1.24933e-15
1.78032e-15
3.62928e-16
3.99246e-16
3.0746e-16
2.01459e-16
8.00638e-16
3.4958e-16
4.71979e-15
1.65635e-15
8.42557e-15
4.51272e-15
8.7194e-15
5.4663e-15
4.85612e-15
4.68649e-15
1.30175e-15
1.99187e-15
5.83032e-16
8.57324e-16
4.8482e-16
1.92998e-16
6.56795e-14
7.99378e-15
5.11095e-12
7.52683e-13
1.651e-09
2.45921e-10
6.84817e-08
3.29342e-09
4.90204e-09
1.40566e-07
3.66582e-17
2.61529e-16
1.29143e-15
2.78833e-15
6.81201e-15
7.0354e-15
1.07337e-14
8.65031e-15
6.01051e-15
6.30919e-15
2.62094e-15
3.3135e-15
7.26546e-16
1.01956e-15
1.81361e-16
2.44522e-16
7.4526e-17
6.88e-17
7.03686e-17
4.79224e-17
1.71498e-16
7.57159e-17
8.96741e-16
2.81222e-16
2.00586e-15
8.33885e-16
2.22416e-15
1.14228e-15
1.75517e-15
1.09702e-15
6.30802e-16
6.18362e-16
2.79519e-16
3.30042e-16
1.62032e-16
1.28131e-16
7.32921e-15
4.60715e-16
7.11456e-13
4.89626e-14
2.33625e-10
1.29524e-11
3.34703e-09
1.74568e-10
1.23497e-10
8.24559e-09
6.69736e-18
4.50039e-17
2.35185e-16
4.21308e-16
1.00412e-15
1.33855e-15
1.4698e-15
1.60092e-15
9.15446e-16
1.14701e-15
3.26621e-16
4.33346e-16
9.29652e-17
1.2687e-16
2.65717e-17
3.25252e-17
1.56154e-17
1.16649e-17
1.59269e-17
1.07736e-17
3.59751e-17
1.6243e-17
1.57143e-16
4.8269e-17
3.99612e-16
1.41681e-16
4.73967e-16
2.08913e-16
4.55998e-16
2.07119e-16
2.19172e-16
1.42432e-16
1.18019e-16
8.08195e-17
7.10542e-17
5.07867e-17
5.09692e-16
1.41871e-17
4.66067e-14
2.89393e-15
1.24751e-11
5.1958e-13
1.80184e-10
6.66809e-12
1.22971e-12
3.08346e-10
1.14331e-18
7.24785e-18
3.59786e-17
6.21899e-17
1.31178e-16
1.59675e-16
1.86657e-16
1.96799e-16
1.09015e-16
1.25275e-16
3.92322e-17
5.07708e-17
1.15279e-17
1.544e-17
3.78204e-18
4.11797e-18
2.89439e-18
1.83472e-18
3.51939e-18
2.12525e-18
7.31217e-18
3.23722e-18
2.64781e-17
8.11372e-18
7.06625e-17
2.24951e-17
8.83057e-17
3.43419e-17
9.25661e-17
3.3929e-17
5.57428e-17
2.61163e-17
3.20262e-17
1.39848e-17
2.14709e-17
1.03812e-17
2.18527e-17
3.1054e-18
2.78747e-15
1.24363e-16
5.04376e-13
1.77118e-14
6.9889e-12
1.95336e-13
-3.05267e-14
8.37849e-12
1.8087e-19
1.09889e-18
5.05771e-18
8.87847e-18
1.52222e-17
1.86762e-17
2.11286e-17
2.1639e-17
1.23537e-17
1.40581e-17
4.52527e-18
5.81019e-18
1.36389e-18
1.79205e-18
5.13724e-19
4.96409e-19
4.69585e-19
2.65232e-19
6.87889e-19
3.61904e-19
1.37908e-18
5.75252e-19
4.23719e-18
1.28143e-18
1.12937e-17
3.3072e-18
1.46156e-17
5.10313e-18
1.5736e-17
4.97077e-18
1.10432e-17
3.99872e-18
6.0309e-18
2.03134e-18
4.46425e-18
1.31432e-18
2.87709e-18
7.43079e-19
1.23937e-16
1.7353e-18
1.72185e-14
5.91228e-16
2.18862e-13
4.88215e-15
-2.80586e-15
1.9714e-13
2.66141e-20
1.57354e-19
6.64546e-19
1.20313e-18
1.67622e-18
2.13727e-18
2.28253e-18
2.35487e-18
1.3369e-18
1.52796e-18
4.97998e-19
6.3629e-19
1.53805e-19
1.98088e-19
6.67237e-20
5.72663e-20
6.53249e-20
3.62292e-20
1.19749e-19
5.54307e-20
2.34258e-19
9.12398e-20
6.33702e-19
1.87409e-19
1.63991e-18
4.49775e-19
2.15909e-18
6.87419e-19
2.32947e-18
6.57613e-19
1.77059e-18
5.27804e-19
8.95458e-19
2.71408e-19
6.33529e-19
1.38247e-19
4.94199e-19
9.39889e-20
2.07607e-18
5.75953e-20
5.73802e-16
1.88361e-17
5.97029e-15
1.05787e-16
1.62491e-17
3.48312e-15
3.66819e-21
2.13779e-20
8.18431e-20
1.54796e-19
1.76451e-19
2.35272e-19
2.36751e-19
2.4696e-19
1.38298e-19
1.59396e-19
5.22719e-20
6.66761e-20
1.65521e-20
2.09004e-20
8.35532e-21
6.34959e-21
8.62466e-21
4.75293e-21
1.84516e-20
7.9328e-21
3.57476e-20
1.31936e-20
8.80343e-20
2.54715e-20
2.17673e-19
5.70137e-20
2.85956e-19
8.46247e-20
3.06004e-19
7.91351e-20
2.37371e-19
6.1739e-20
1.16448e-19
3.27321e-20
7.02276e-20
1.34501e-20
5.94655e-20
7.48351e-21
7.56238e-20
3.94803e-21
1.83514e-17
5.13047e-19
1.36063e-16
3.13479e-18
5.07778e-18
2.4771e-16
4.7701e-22
2.76827e-21
9.47007e-21
1.8999e-20
1.7859e-20
2.49206e-20
2.34881e-20
2.49578e-20
1.36835e-20
1.59812e-20
5.23724e-21
6.70093e-21
1.70194e-21
2.11026e-21
1.00067e-21
6.79104e-22
1.10807e-21
6.01417e-22
2.60175e-21
1.07148e-21
4.97262e-21
1.77469e-21
1.13714e-20
3.24462e-21
2.66148e-20
6.79721e-21
3.45239e-20
9.62015e-21
3.58768e-20
8.75368e-21
2.74435e-20
6.53691e-21
1.34979e-20
3.45206e-21
6.5051e-21
1.26848e-21
4.38063e-21
5.27978e-22
3.91015e-21
2.09842e-22
4.99962e-19
1.22211e-20
3.9178e-18
4.89432e-20
1.65837e-19
2.57903e-17
5.88896e-23
3.42745e-22
1.03123e-21
2.23271e-21
1.74513e-21
2.54887e-21
2.23077e-21
2.43534e-21
1.29692e-21
1.54421e-21
5.01295e-22
6.47476e-22
1.67604e-22
2.04447e-22
1.11985e-22
7.0436e-23
1.39071e-22
7.3138e-23
3.41073e-22
1.37302e-22
6.38763e-22
2.24519e-22
1.37141e-21
3.9036e-22
3.01941e-21
7.67942e-22
3.81855e-21
1.01975e-21
3.81055e-21
8.9772e-22
2.80131e-21
6.34043e-22
1.35724e-21
3.18348e-22
5.51809e-22
1.09514e-22
2.81503e-22
3.65075e-23
2.18579e-22
1.12345e-23
1.18335e-20
2.20537e-22
6.6907e-20
5.11614e-22
1.01407e-20
2.09875e-18
6.93149e-24
4.05294e-23
1.0571e-22
2.52026e-22
1.64219e-22
2.52384e-22
2.03265e-22
2.30034e-22
1.17904e-22
1.44109e-22
4.58948e-23
6.03045e-23
1.58463e-23
1.90644e-23
1.22468e-23
7.11473e-24
1.64979e-23
8.58699e-24
4.18466e-23
1.67525e-23
7.64802e-23
2.69038e-23
1.55192e-22
4.46459e-23
3.19552e-22
8.26945e-23
3.89748e-22
1.01254e-22
3.69074e-22
8.53596e-23
2.54092e-22
5.5451e-23
1.15628e-22
2.48973e-23
4.08064e-23
7.57122e-24
1.68529e-23
2.01444e-24
1.20155e-23
5.81433e-25
2.42779e-22
3.11863e-24
9.39027e-22
7.37404e-24
4.4689e-22
1.32926e-19
7.7596e-25
4.50608e-24
1.04716e-23
2.74001e-23
1.50891e-23
2.42215e-23
1.73538e-23
2.10753e-23
1.02817e-23
1.30162e-23
4.02535e-24
5.42801e-24
1.4447e-24
1.71662e-24
1.20553e-24
7.04751e-25
1.96444e-24
9.7516e-25
4.83839e-24
1.95803e-24
8.59204e-24
3.07233e-24
1.65594e-23
4.88091e-24
3.15612e-23
8.49128e-24
3.67555e-23
9.30048e-24
3.2108e-23
7.16709e-24
1.93006e-23
3.80105e-24
7.39666e-24
1.3591e-24
2.07924e-24
3.36879e-25
6.7524e-25
6.86004e-26
5.11132e-25
1.65373e-26
5.39142e-24
1.04846e-25
5.44134e-23
1.65791e-24
1.17224e-23
4.91595e-21
8.06272e-26
4.4249e-25
9.92682e-25
2.86893e-24
1.33036e-24
2.24853e-24
1.43309e-24
1.86814e-24
8.62295e-25
1.13996e-24
3.38488e-25
4.73114e-25
1.27454e-25
1.49706e-25
1.12055e-25
6.86225e-26
2.22754e-25
1.08224e-25
5.29067e-25
2.20194e-25
9.10598e-25
3.36101e-25
1.66969e-24
5.11437e-25
2.83914e-24
8.03031e-25
3.1218e-24
7.19897e-25
2.17017e-24
4.24258e-25
8.71805e-25
1.87972e-25
2.70617e-25
8.28527e-25
7.03127e-26
2.15664e-25
1.82843e-26
4.80353e-26
1.23275e-26
1.08435e-26
4.28374e-25
8.5705e-26
4.48627e-24
6.41811e-26
3.64161e-25
1.58924e-22
7.08161e-27
3.54664e-26
9.69953e-26
2.86628e-25
1.07833e-25
1.97819e-25
1.13926e-25
1.58457e-25
6.94778e-26
9.6258e-26
2.72984e-26
3.98837e-26
1.09168e-26
1.26579e-26
1.01367e-26
6.5956e-27
2.39446e-26
1.17799e-26
5.49204e-26
2.39794e-26
9.122e-26
3.52806e-26
1.56891e-25
4.96882e-26
2.1734e-25
5.80289e-26
1.82111e-25
3.88379e-26
9.36197e-26
2.70112e-25
9.85908e-26
1.18919e-25
-1.58177e-25
-1.62085e-25
-2.69337e-25
-2.29655e-25
-1.9656e-25
-1.35127e-25
-7.82414e-26
-4.12017e-26
7.13094e-27
3.32677e-28
2.18655e-25
1.7664e-27
9.99352e-27
4.08133e-24
4.72804e-28
2.71236e-26