/*--------------------------------*- C++ -*----------------------------------*\
| =========                 |                                                 |
| \\      /  F ield         | OpenFOAM: The Open Source CFD Toolbox           |
|  \\    /   O peration     | Version:  2206                                  |
|   \\  /    A nd           | Website:  www.openfoam.com                      |
|    \\/     M anipulation  |                                                 |
\*---------------------------------------------------------------------------*/
FoamFile
{
    version     2.0;
    format      ascii;
    arch        "LSB;label=32;scalar=64";
    class       volScalarField;
    location    "0.875";
    object      alpha.water;
}
// * * * * * * * * * * * * * * * * * * * * * * * * * * * * * * * * * * * * * //

dimensions      [0 0 0 0 0 0 0];

internalField   nonuniform List<scalar> 
2268
(
0.999999
1
1
1
1
1
1
1
1
1
1
1
0.999975
0.992246
0.970506
0.972888
0.993576
0.992951
0.985458
0.983513
0.991782
0.999106
0.999806
0.999999
1
1
1
1
1
1
1
1
1
1
0.999997
0.998718
0.960742
0.947453
0.947369
0.957546
0.965359
0.965421
0.965799
0.975761
1
0.999806
0.999999
1
1
1
1
1
1
1
1
1
1
0.999999
0.999987
0.987344
0.951011
0.947486
0.947393
0.962548
0.98243
0.993514
1
1
0.999828
0.999999
1
1
1
1
1
1
1
1
1
1
1
0.999999
0.999669
0.995095
0.98984
0.996385
1
1
1
1
1
0.999892
1
1
1
1
1
1
1
1
1
1
1
1
1
1
1
1
1
1
1
1
1
0.999999
0.999993
1
1
1
1
1
1
1
1
1
1
1
1
1
1
1
1
1
1
1
1
1
0.999993
0.99999
1
1
1
1
0.999978
0.999916
0.999907
1
1
1
1
1
1
1
1
1
1
1
1
1
1
0.999993
0.999976
1
1
1
1
0.999968
0.999412
0.999413
0.999996
1
1
1
1
1
1
0.999999
0.999997
0.999997
0.999998
0.999998
0.999998
0.999997
0.999992
0.999975
0.568049
0.577145
0.617424
0.611123
0.474574
0.474816
0.475486
0.475524
0.656463
0.891948
0.891947
0.891949
0.891941
0.891886
0.890011
0.550603
0.42018
0.775141
0.783209
0.581016
0.562775
0.564103
0.473742
0.474414
0.525201
0.547766
0.475498
0.480285
0.797375
0.891947
0.891941
0.891886
0.801051
0.383548
0.276819
0.309635
0.626231
0.783761
0.581791
0.573583
0.473742
0.473742
0.477793
0.784195
0.839717
0.655925
0.487889
0.589217
0.887904
0.880824
0.721626
0.323305
0.2761
0.274884
0.276819
0.443185
0.783774
0.581792
0.580473
0.542323
0.474487
0.516967
0.680391
0.852501
0.864078
0.77785
0.838765
0.884722
0.736351
0.506007
0.276072
0.274884
0.274884
0.274884
0.768868
0.783703
0.581305
0.463332
0.540499
0.534048
0.26183
0.350145
0.677291
0.873417
0.879922
0.881652
0.881825
0.87972
0.688793
0.275207
0.275153
0.274884
0.300389
0.780595
0.783675
0.581071
0.46017
0.531833
0.352966
0.0825192
0.0786148
0.528467
0.879265
0.880995
0.881924
0.881825
0.882061
0.879089
0.63226
0.3013
0.364966
0.766281
0.783677
0.783675
0.544952
0.498004
0.5367
0.0482281
0.0225381
0.0225777
0.406589
0.682105
0.601659
0.648774
0.625158
0.773868
0.862845
0.85032
0.762369
0.7848
0.782695
0.783358
0.783675
0.585693
0.585693
0.535742
0.0486192
0.0221759
0.0214633
0.0936663
0.112638
0.0602738
0.0867547
0.148971
0.374418
0.712437
0.82694
0.814846
0.809644
0.775537
0.692966
0.745258
1
1
1
1
0.999998
0.999991
0.999991
0.999996
0.999999
0.999998
0.999998
0.999999
0.999998
0.999991
0.999956
0.999897
0.999896
0.99994
0.999956
0.999949
0.999468
0.998237
0.999874
1
1
1
1
1
0.999998
0.999992
0.98797
0.957821
0.91647
0.891317
0.885939
0.888482
0.880541
0.834138
0.806561
0.811209
0.832958
0.880971
0.917719
0.954401
0.994224
0.999964
0.965276
0.998953
0.976175
0.862218
0.752122
0.746411
0.766184
0.61398
0.339291
0.205121
0.190581
0.227231
0.262681
0.265434
0.371585
0.509468
0.476339
0.39031
0.389058
0.51929
0.937115
0.999535
0.999903
0.849736
0.734147
0.760744
0.752718
0.714054
0.550746
0.223621
0.0651058
0.051392
0.0514413
0.0517386
0.0450449
0.0290627
0.114171
0.420149
0.553656
0.446879
0.388913
0.397833
0.725779
0.9964
0.999239
0.99953
0.608082
0.140386
0.228828
0.230281
0.114726
0.0592511
0.0484904
0.0796728
0.0963416
0.0968378
0.096343
0.0430112
0.0194088
0.0139125
0.284558
0.555821
0.679423
0.650571
0.79805
0.967612
0.981991
0.735598
0.278729
0.261836
0.0089563
0.00281515
0.000221977
-3.62325e-08
1.38927e-07
5.76391e-07
2.1999e-05
0.00207244
0.0240695
0.0536299
0.0530973
0.0251711
0.00220217
0.00752808
0.153266
0.676962
0.719558
0.737181
0.624737
0.207126
0.0788783
0.0713741
0.0124972
0.00224839
0.000222232
-1.06374e-06
2.7795e-09
7.05307e-09
2.23306e-08
1.23257e-07
7.04708e-07
3.45459e-06
0.000388128
0.00371405
0.00296646
0.000760391
0.00216957
0.00821102
0.265565
0.702372
0.41914
0.0743175
0.0715929
0.0713673
0.0713741
0.0023686
0.000451565
4.57516e-06
-1.10595e-07
1.94456e-09
3.49959e-09
2.78239e-09
7.46337e-09
2.90354e-08
8.12529e-07
7.74306e-06
7.626e-06
2.78985e-05
0.00012355
0.000552814
0.00262418
0.0576219
0.382692
0.453057
0.0721409
0.0719674
0.0715929
0.0740231
0.000589688
8.60221e-05
5.56966e-07
-4.73245e-08
1.9712e-09
1.99588e-09
2.10928e-09
2.70941e-09
7.19511e-09
6.87001e-08
6.11844e-07
1.58451e-06
3.88323e-06
1.98929e-05
5.8951e-05
0.000310193
0.00152205
0.0805375
0.344578
0.367294
0.367311
0.365585
0.351979
0.000306461
8.57735e-05
9.81774e-08
-7.49996e-10
1.99588e-09
1.97675e-09
2.02267e-09
2.45456e-09
3.20412e-09
1.07323e-08
5.63137e-07
1.1058e-06
5.90438e-07
1.60832e-06
4.45002e-06
2.23483e-05
0.000130992
0.000678823
0.0440337
0.316949
0.366398
0.362796
0.260995
0.000381686
0.000135098
1.513e-08
2.14121e-09
1.99072e-09
2.09496e-09
2.31454e-09
3.28693e-09
4.06114e-09
3.41618e-08
7.27091e-08
2.0495e-08
2.41178e-08
1.33297e-07
7.56957e-07
3.45231e-06
2.28073e-05
0.000129992
0.00152009
0.00915011
0.0509808
0.0534777
0.0317875
0.000578842
0.00022366
8.20039e-09
4.59877e-09
2.14121e-09
3.58563e-09
5.14559e-09
4.05762e-09
4.57262e-09
1.41304e-08
6.14921e-08
9.59891e-09
3.04276e-09
1.1215e-08
8.04664e-08
5.94032e-07
2.3283e-06
2.13985e-05
0.000145719
0.002339
0.0308155
0.0522121
0.0326516
0.00063674
0.000574678
4.83758e-06
8.20346e-09
4.59877e-09
1.82259e-08
4.43652e-08
4.38643e-08
4.89585e-09
5.26408e-09
4.1348e-08
1.06434e-08
1.91721e-09
2.01449e-09
1.80141e-08
5.73024e-07
2.15618e-07
2.29015e-06
2.16752e-05
0.000148214
0.00569486
0.0392571
0.0468601
0.000129393
0.000709323
0.000576423
0.000117991
1.54386e-06
2.12192e-07
3.33343e-06
4.68213e-07
5.43608e-09
4.02033e-09
4.27079e-09
9.25709e-09
1.85406e-09
1.41569e-09
1.9474e-09
1.91905e-08
1.94159e-08
2.18819e-07
4.15133e-06
0.00013122
0.000648609
0.00555194
0.0316185
2.38015e-05
0.000709323
0.00067974
0.00059044
0.000472849
0.000222942
1.26449e-05
2.90998e-07
1.82375e-08
3.0237e-09
2.50966e-09
2.53039e-09
1.85154e-09
1.38254e-09
1.26114e-09
1.4318e-09
2.57568e-09
1.66283e-08
3.55317e-06
0.00170611
0.0167798
0.0175363
0.00031625
1.53551e-06
0.00042814
0.000612677
0.000559912
0.000527388
0.000473994
5.91241e-05
1.17261e-06
1.03844e-07
8.22302e-09
2.09982e-09
1.79234e-09
1.77972e-09
1.38166e-09
1.23701e-09
1.25936e-09
1.43079e-09
2.53212e-09
1.08961e-06
0.00224608
0.0245548
0.024572
0.0233203
6.96106e-07
1.34221e-05
0.000500091
0.000527388
0.000506624
0.000372806
2.6954e-05
1.08923e-06
1.17881e-07
1.12689e-08
2.4628e-09
1.87737e-09
1.86874e-09
1.43144e-09
1.22843e-09
1.80657e-09
1.74291e-09
1.38245e-08
7.75635e-08
0.000499798
0.0174203
0.0245548
0.0246069
2.72012e-07
6.05852e-07
0.000175652
0.000447265
0.000373978
0.000101748
4.54265e-06
4.80781e-07
5.77238e-08
6.87142e-09
2.04156e-09
1.86794e-09
2.07676e-09
1.548e-09
1.21512e-09
2.26237e-09
2.08046e-09
7.43297e-10
6.69936e-09
4.05336e-06
0.00631843
0.0246015
0.0243309
5.71602e-08
8.32671e-07
3.91291e-06
6.65803e-05
3.30827e-05
5.4464e-06
2.41002e-06
1.61438e-07
1.89044e-08
2.95748e-09
1.22189e-09
1.72133e-09
2.08869e-09
1.65053e-09
1.12567e-09
2.26118e-09
2.11906e-09
1.3031e-10
8.76119e-06
7.39988e-06
0.00245723
0.0243309
0.0154591
1.27242e-08
4.20364e-07
9.60067e-07
3.75905e-06
2.30129e-06
8.24442e-07
2.61702e-07
4.49273e-08
5.21657e-09
1.09335e-09
6.49838e-10
1.64987e-09
2.09039e-09
1.68787e-09
9.42565e-10
1.55458e-09
1.51452e-09
3.44236e-11
5.47468e-06
3.08378e-06
0.00101222
0.0106245
0.0109068
2.74902e-09
5.58738e-08
1.91151e-07
6.96858e-07
4.17375e-07
1.48549e-07
3.92956e-08
8.76164e-09
1.37405e-09
3.44499e-10
4.4463e-10
1.43781e-09
2.08345e-09
1.64808e-09
7.33667e-10
6.56337e-10
5.75029e-10
1.23555e-11
-4.55244e-10
2.92598e-07
0.00102004
0.0093969
0.00610255
7.87127e-10
3.04403e-09
3.02087e-08
1.14614e-07
6.83224e-08
2.45414e-08
6.8316e-09
1.71614e-09
3.53075e-10
1.18272e-10
2.46933e-10
1.02769e-09
1.76216e-09
1.39282e-09
5.65921e-10
2.36763e-10
1.34824e-10
5.22561e-12
-1.23359e-11
3.45078e-08
0.000852715
0.00677342
0.0044414
2.36698e-10
3.76148e-10
4.87136e-09
1.72297e-08
1.03381e-08
3.79955e-09
1.17921e-09
3.31879e-10
1.05167e-10
4.4408e-11
1.0213e-10
5.38556e-10
1.03635e-09
8.78806e-10
3.90506e-10
1.11184e-10
3.90965e-11
3.08948e-12
4.94923e-12
4.19696e-09
0.000187053
0.00453452
0.00610797
7.52801e-11
1.53982e-10
1.01538e-09
2.43762e-09
1.48368e-09
6.45862e-10
2.21917e-10
9.15643e-11
2.9388e-11
1.33751e-11
3.06729e-11
1.82164e-10
3.99004e-10
3.8173e-10
2.15231e-10
6.06198e-11
1.90291e-11
2.07479e-12
7.35183e-13
3.53166e-10
-2.09395e-08
0.0034772
0.00616063
2.05578e-11
1.0062e-10
2.49833e-10
3.73375e-10
2.58625e-10
1.19946e-10
6.16798e-11
2.32658e-11
5.95539e-12
3.48867e-12
7.37553e-12
4.02108e-11
1.0535e-10
1.1712e-10
8.63049e-11
3.03289e-11
1.10665e-11
1.63642e-12
-6.30193e-13
-2.00579e-10
3.73828e-09
3.6769e-05
0.00249289
4.41572e-12
3.73503e-11
5.14794e-11
6.29348e-11
4.83754e-11
3.38002e-11
1.42144e-11
3.84219e-12
1.11277e-12
9.04628e-13
1.64845e-12
7.12536e-12
2.15141e-11
2.80579e-11
2.49671e-11
1.18272e-11
5.41491e-12
1.40899e-12
-6.76384e-13
6.1955e-12
4.12829e-10
1.85743e-07
1.22645e-06
8.19651e-13
6.65328e-12
1.44632e-11
1.60885e-11
1.28871e-11
6.58647e-12
2.03358e-12
5.27801e-13
2.14837e-13
2.26279e-13
3.69488e-13
1.24214e-12
3.8901e-12
5.72144e-12
5.5833e-12
3.4483e-12
1.84782e-12
8.59755e-13
1.12617e-13
6.63278e-13
3.69106e-11
1.74428e-08
4.53618e-08
1.4036e-13
1.00637e-12
2.5647e-12
2.86493e-12
2.04976e-12
8.30241e-13
2.53612e-13
7.02271e-14
3.87099e-14
5.01401e-14
7.9909e-14
2.196e-13
6.60493e-13
1.0415e-12
1.04821e-12
7.79809e-13
4.2856e-13
2.8806e-13
6.74778e-14
9.17028e-14
2.73941e-12
1.20583e-09
1.36105e-09
2.25959e-14
1.50313e-13
3.08904e-13
3.41116e-13
2.29303e-13
9.77866e-14
3.07176e-14
8.94719e-15
6.22761e-15
9.55321e-15
1.56673e-14
3.74815e-14
1.05163e-13
1.71743e-13
1.73705e-13
1.43501e-13
7.64366e-14
5.51968e-14
2.41134e-14
2.00453e-14
2.43267e-13
7.4276e-11
2.79735e-11
3.43333e-15
2.16348e-14
3.68496e-14
3.8298e-14
2.58843e-14
1.11781e-14
3.55403e-15
1.09585e-15
9.2465e-16
1.59584e-15
2.7354e-15
5.97327e-15
1.5568e-14
2.56892e-14
2.58821e-14
2.22875e-14
1.20125e-14
7.3932e-15
5.15526e-15
1.421e-15
1.60957e-14
2.88743e-12
2.21813e-12
4.94014e-16
2.95569e-15
4.28772e-15
4.22582e-15
2.82543e-15
1.22449e-15
3.92628e-16
1.2983e-16
1.31116e-16
2.44757e-16
4.30872e-16
8.83132e-16
2.14688e-15
3.499e-15
3.49329e-15
3.01063e-15
1.71034e-15
8.36226e-16
5.9731e-16
2.24684e-16
9.48376e-16
5.91176e-14
1.15082e-12
6.7614e-17
3.84047e-16
4.80327e-16
4.50185e-16
2.96275e-16
1.28615e-16
4.15112e-17
1.49118e-17
1.79321e-17
3.53524e-17
6.25637e-17
1.21889e-16
2.77875e-16
4.37441e-16
4.31066e-16
3.62611e-16
2.13397e-16
9.04213e-17
5.07687e-17
2.29379e-17
5.74349e-17
1.14461e-15
1.37443e-13
8.83564e-18
4.76651e-17
5.19042e-17
4.62839e-17
2.99244e-17
1.29841e-17
4.2107e-18
1.67406e-18
2.34423e-18
4.84654e-18
8.50455e-18
1.58298e-17
3.40026e-17
5.07012e-17
4.90335e-17
3.96471e-17
2.30543e-17
9.21099e-18
4.0824e-18
1.55146e-18
3.45223e-18
2.04376e-17
1.23745e-14
1.10341e-18
5.66913e-18
5.43069e-18
4.59799e-18
2.91974e-18
1.26281e-18
4.11017e-19
1.83276e-19
2.95478e-19
6.31198e-19
1.0914e-18
1.94717e-18
3.95647e-18
5.48493e-18
5.16786e-18
3.94669e-18
2.1491e-18
7.99182e-19
2.89046e-19
1.111e-19
1.18339e-19
6.94791e-19
9.4989e-16
1.30374e-19
6.47777e-19
5.506e-19
4.43077e-19
2.75248e-19
1.18595e-19
3.87438e-20
1.97324e-20
3.58299e-20
7.85123e-20
1.33016e-19
2.2813e-19
4.39075e-19
5.52439e-19
4.96682e-19
3.35904e-19
1.5153e-19
4.4434e-20
1.08823e-20
4.14583e-21
7.21502e-21
3.45282e-19
4.30957e-17
1.3871e-20
7.11761e-20
5.39353e-20
4.12577e-20
2.51361e-20
1.07774e-20
3.53723e-21
2.09396e-21
4.21508e-21
9.36651e-21
1.54749e-20
2.55461e-20
4.60842e-20
4.95249e-20
3.7415e-20
1.50524e-20
3.37986e-21
7.38648e-22
1.35459e-22
2.54872e-23
3.18789e-21
3.98179e-20
1.85686e-18
1.07319e-21
7.45867e-21
5.00463e-21
3.6536e-21
2.20851e-21
9.45964e-22
3.13397e-22
2.1866e-22
4.84596e-22
1.07723e-21
1.72369e-21
2.73259e-21
4.08439e-21
2.92994e-21
6.75649e-22
1.31881e-22
-3.78374e-21
-6.17379e-21
-4.34465e-21
-1.67917e-21
0
2.05787e-21
6.74509e-20
2.10139e-23
7.17112e-22
3.96759e-22
2.88183e-22
1.80024e-22
7.87936e-23
2.66535e-23
2.25708e-23
5.46417e-23
1.20115e-22
1.8323e-22
2.46675e-22
1.58603e-22
3.11176e-23
-8.62038e-22
-4.36407e-21
-6.99069e-21
-6.21995e-21
-3.67876e-21
-1.37658e-21
-2.68075e-22
3.8611e-23
2.0561e-21
-8.19961e-23
5.07806e-23
9.78725e-24
1.10179e-23
1.09253e-23
5.6697e-24
2.08565e-24
2.3208e-24
6.06138e-24
1.30851e-23
1.63314e-23
6.06349e-24
1.69387e-24
-4.22168e-22
-1.99664e-21
-3.96282e-21
-4.54068e-21
-3.42669e-21
-1.84171e-21
-6.5337e-22
-1.47139e-22
-1.11642e-23
5.76253e-23
-1.42802e-22
8.86608e-25
2.89252e-45
0
2.36899e-25
1.51828e-25
1.24316e-25
2.35688e-25
6.59837e-25
1.24278e-24
3.75253e-25
0
-8.14544e-23
-5.32843e-22
-1.44483e-21
-2.19966e-21
-2.12933e-21
-1.42751e-21
-6.98129e-22
-2.29523e-22
-4.98064e-23
-6.15816e-24
8.70937e-25
-9.80614e-23
-3.00865e-24
-1.79874e-23
-8.82168e-24
-1.62267e-24
-2.82658e-26
1.92614e-27
1.80717e-26
6.28266e-26
5.0438e-26
0
-9.29734e-24
-8.7041e-23
-3.54145e-22
-7.52174e-22
-9.683e-22
-8.24735e-22
-4.96469e-22
-2.19441e-22
-6.56574e-23
-1.28862e-23
-1.5559e-24
-6.82214e-26
-5.02629e-23
-5.19901e-24
-1.18786e-23
-6.05519e-24
-1.52835e-24
-2.32901e-25
-1.05938e-26
1.1576e-28
3.24575e-27
8.48775e-28
-6.74334e-25
-9.26158e-24
-5.72148e-23
-1.82882e-22
-3.27713e-22
-3.67528e-22
-2.76936e-22
-1.47891e-22
-5.74835e-23
-1.48235e-23
-2.36003e-24
-2.14506e-25
-8.64151e-27
0.999972
0.999972
0.999972
0.906462
0.99997
0.999972
0.999929
0.573106
0.999964
0.999723
0.64685
0.121142
0.865242
0.379736
0.116765
0.111735
0.113279
0.0723105
0.0731336
0.190068
0.0714459
0.0710307
0.0709139
0.127277
0.0709279
0.0708551
0.0743455
0.106693
0.0922161
0.0797319
0.0153221
0.00677662
0.1986
0.0432159
0.0145947
0.0133339
0.0532436
0.0314339
0.0472012
0.0424989
0.0316827
0.034306
0.0485298
0.0113428
0.0341483
0.0494625
0.0473136
0.000101971
0.0477495
0.0476961
0.00445606
6.63057e-05
0.029816
0.00309305
1.11663e-05
2.22176e-05
7.55342e-06
7.0195e-06
7.49644e-06
1.07938e-05
0.00348507
6.90506e-06
6.96252e-06
7.27265e-06
0.0211171
6.90339e-06
6.90506e-06
6.96252e-06
0.00469624
6.90506e-06
6.90315e-06
7.86585e-06
5.62937e-06
1.51929e-05
1.88176e-05
2.75752e-05
5.59772e-06
5.6001e-06
6.1086e-06
1.38551e-05
5.59898e-06
5.59602e-06
5.6001e-06
5.63358e-06
5.59863e-06
5.59976e-06
5.63323e-06
5.87293e-06
5.59976e-06
5.65003e-06
1.51426e-05
8.18526e-06
0.000147742
9.02199e-05
1.42842e-05
5.14523e-07
0.00247737
0.000324183
9.51268e-07
2.53592e-07
4.68939e-06
5.39682e-07
5.24674e-06
2.24799e-06
2.56641e-06
4.72809e-07
6.39483e-09
4.06397e-10
6.22044e-08
8.20542e-08
2.83295e-08
4.24553e-12
5.0484e-09
4.02298e-11
7.48236e-12
2.84503e-12
2.52856e-10
2.96468e-10
2.16279e-10
6.06567e-11
2.6023e-11
3.96756e-11
2.96159e-11
1.25758e-11
2.44406e-12
3.04577e-12
2.04067e-12
5.97972e-13
1.36316e-13
1.36313e-13
7.61491e-14
1.4897e-14
5.2419e-15
4.47758e-15
1.65828e-15
6.67297e-16
1.50235e-16
1.05383e-16
3.71629e-17
9.43418e-17
3.86109e-18
1.97717e-18
2.01424e-18
2.40019e-17
9.14883e-20
3.76255e-20
3.74678e-19
5.87063e-18
2.04247e-21
5.65191e-22
1.43998e-19
2.58875e-18
4.155e-23
9.29904e-24
3.08701e-20
1.39982e-18
6.63435e-25
4.00479e-25
3.88876e-21
4.34572e-19
3.7577e-27
7.29719e-26
2.67495e-22
9.40704e-21
-7.13094e-29
3.97931e-27
2.16838e-25
4.34701e-25
0.580994
0.535933
0.433191
0.165231
0.02344
0.0211131
0.021454
0.0224413
0.0252533
0.0303842
0.0748962
0.133941
0.190471
0.397607
0.5875
0.643107
0.687489
0.654777
0.627173
0.131892
0.147151
0.420284
0.306081
0.108265
0.0212677
0.0211072
0.021454
0.0224413
0.0343355
0.147988
0.342009
0.66271
0.684231
0.685269
0.681815
0.610438
0.56355
0.568246
0.126517
0.131892
0.292433
0.335013
0.32767
0.0456827
0.0212306
0.0210986
0.0214892
0.073966
0.443543
0.681686
0.683477
0.684733
0.618246
0.289727
0.20069
0.458925
0.563314
0.131144
0.136732
0.194113
0.335013
0.328983
0.283915
0.02612
0.0214892
0.036943
0.475549
0.679547
0.680966
0.681686
0.469185
0.0212903
0.00164463
0.00155519
0.058577
0.289852
0.444276
0.468019
0.305566
0.144005
0.179197
0.0949732
0.0483391
0.152973
0.592467
0.675944
0.680245
0.678696
0.433986
0.0295889
0.00163488
0.00128313
0.00126583
0.00155487
0.00291502
0.422055
0.555414
0.55303
0.140353
0.0448096
0.0448096
0.145967
0.596766
0.656421
0.665668
0.530128
0.229703
0.030706
0.00162674
0.00128294
0.00126451
0.00126587
0.00126502
0.0400671
0.0618623
0.167619
0.555414
0.554748
0.0447229
0.047206
0.322066
0.417322
0.179488
0.0165032
0.00125619
0.00152612
0.00159434
0.00145402
0.00138096
0.00156051
0.00126559
0.00156772
0.0602592
0.00530993
0.0104734
0.381375
0.560324
0.110555
0.0548686
0.150769
0.0018559
0.00117463
0.00122083
0.00124811
0.00127234
0.00135109
0.0018374
0.00208015
0.00248734
0.00132149
0.000174075
0.0602592
0.00526076
0.00310659
0.00128343
0.55885
0.345326
0.0440897
0.00088338
0.000335909
0.00105666
0.00274199
0.00292688
0.00292849
0.0028979
0.00282319
0.00274316
0.00237079
0.000374635
1.97592e-06
0.0375851
0.0104904
0.00133432
0.000957859
0.507968
0.220114
0.027232
0.000335732
0.000126822
0.00153551
0.00287585
0.00292808
0.00188718
0.000899015
0.00108841
0.0013606
1.93204e-06
1.93204e-06
1.92709e-06
1.97587e-06
0.00161043
0.00041159
0.000504439
0.45604
0.176994
0.0247738
0.000130503
3.98324e-05
0.00082049
0.00105953
0.000269044
1.26207e-06
1.71995e-06
1.8636e-06
1.94083e-06
1.93361e-06
1.92704e-06
1.93465e-06
2.05154e-06
0.000231029
0.000355267
0.0292782
0.193327
0.146404
0.000390079
3.83315e-05
9.53239e-06
2.94323e-05
8.5645e-07
7.68415e-07
8.58682e-07
3.07055e-06
1.98023e-06
1.94027e-06
1.94083e-06
1.93465e-06
1.98423e-06
2.16261e-06
0.000307349
0.0016969
0.0110885
0.0176177
0.0774494
7.46292e-05
9.52261e-06
1.87412e-06
1.34825e-06
1.4475e-06
6.88334e-07
5.26762e-06
8.41039e-06
5.40947e-06
1.98155e-06
1.98488e-06
1.98411e-06
2.23473e-06
2.62573e-06
0.00129444
0.00312239
0.00344543
0.00619823
0.000878659
1.89009e-05
1.80679e-06
6.70056e-07
5.55269e-07
5.26647e-07
6.35429e-07
8.30449e-06
8.45895e-06
6.95849e-06
1.97722e-06
2.26598e-06
2.23466e-06
8.28297e-06
6.95791e-06
2.22617e-05
0.000395832
0.00119071
0.000947574
0.000153016
2.97307e-06
6.72769e-07
5.54575e-07
5.26647e-07
5.25628e-07
7.88937e-07
7.12253e-06
4.84491e-06
1.00214e-06
1.49697e-06
3.26836e-06
1.13141e-05
6.55761e-05
3.3738e-05
8.61939e-06
6.52559e-05
0.000105148
6.72494e-05
3.0877e-05
2.58769e-06
7.56111e-07
5.32909e-07
5.25628e-07
5.25555e-07
5.03004e-07
4.79127e-07
4.79127e-07
4.79127e-07
6.82904e-05
9.34569e-05
4.64063e-05
7.56676e-05
3.63616e-05
7.2499e-06
8.60912e-06
1.23563e-05
3.44741e-05
0.000120843
0.000151228
6.98514e-05
6.85665e-07
6.05471e-07
5.25628e-07
9.76972e-07
6.07919e-07
4.62762e-07
5.50285e-07
0.0003962
0.000319296
3.79651e-05
7.56779e-05
1.08224e-05
7.98211e-06
9.23016e-06
1.31695e-05
0.000100513
0.000565369
0.000618959
0.000618959
0.000131862
3.06917e-06
5.31331e-07
4.04118e-06
3.72908e-06
4.09322e-07
0.000111446
0.000402243
0.000178294
1.62369e-05
7.56676e-05
6.82151e-06
1.7347e-05
1.64871e-05
0.00015509
0.00030592
0.000558848
0.000619825
0.000617271
0.000443932
7.61911e-06
6.10531e-07
4.17888e-06
3.63915e-06
3.62083e-07
0.000361949
0.000402243
1.48487e-05
1.5164e-05
7.53284e-05
6.18027e-06
3.73541e-05
0.000144245
0.000581839
0.000585937
0.000599671
0.000617271
0.00057699
0.000174012
3.7868e-08
1.29166e-06
4.23683e-06
1.53296e-06
3.31806e-07
0.000397466
0.000402153
1.4844e-05
1.4822e-05
6.06932e-05
6.18027e-06
9.68786e-05
0.000304654
0.000327213
0.000362894
0.000388981
0.000258777
1.09459e-10
1.11662e-10
5.36108e-09
2.54443e-06
4.29206e-06
2.24957e-06
2.74623e-07
0.000388202
0.000374667
1.49153e-05
1.13237e-05
6.91147e-06
6.19601e-06
2.56158e-09
2.98297e-10
1.21749e-10
1.06596e-10
1.02697e-10
1.06044e-10
1.07297e-10
1.09459e-10
1.11662e-10
3.36859e-06
4.30156e-06
2.69314e-06
2.00252e-07
0.000362526
9.18086e-05
1.50018e-05
1.57758e-05
1.0323e-05
7.00733e-06
3.86746e-07
1.03668e-09
1.60079e-10
1.02697e-10
9.76364e-11
1.02621e-10
1.06577e-10
1.0823e-10
4.32358e-09
4.07158e-06
4.30156e-06
1.98383e-06
1.30548e-07
0.000152737
5.85424e-05
1.59858e-05
0.000403068
0.000382619
2.781e-05
5.05319e-09
5.14313e-10
1.27793e-10
9.56367e-11
9.58117e-11
1.10843e-10
1.0823e-10
1.1105e-10
1.84071e-06
4.28062e-06
4.30156e-06
1.11458e-06
8.48363e-08
2.36911e-05
7.30161e-05
1.73588e-05
0.000852355
0.000874295
7.89087e-05
8.10417e-09
7.44617e-10
1.05109e-10
7.33529e-11
6.99494e-11
1.25054e-10
1.17307e-10
1.14986e-10
1.42838e-06
4.19647e-06
3.77571e-06
2.70925e-07
5.7421e-08
1.16293e-05
7.34629e-05
1.94251e-05
0.000870785
0.000874269
0.000135888
2.5586e-10
3.80671e-11
1.05093e-11
6.43573e-12
1.12234e-11
4.29836e-10
1.17951e-09
1.36983e-10
3.29871e-10
1.63432e-06
3.92356e-07
7.39767e-10
2.1486e-08
9.86306e-06
4.91543e-05
2.44588e-05
0.000820393
0.000874352
0.000161539
3.6129e-11
3.42392e-12
4.79468e-12
5.68268e-12
5.22147e-12
1.29225e-09
4.68925e-09
3.90494e-09
3.86479e-10
3.28287e-10
3.9054e-10
4.02173e-10
3.92531e-07
2.95691e-05
2.23985e-06
0.000236733
0.000870321
0.00087337
0.000158055
2.80652e-12
1.78886e-12
2.59267e-12
4.87528e-12
5.00066e-12
1.71113e-09
5.65934e-09
5.65934e-09
2.51004e-09
2.46936e-10
2.81633e-10
4.78507e-10
4.75153e-07
2.95395e-05
9.53099e-07
0.000418663
0.000856835
0.000870321
0.000126947
2.17052e-12
1.99267e-12
2.3334e-12
5.21305e-12
7.44935e-12
3.83687e-10
2.81142e-09
3.23349e-09
1.1708e-09
4.30686e-11
9.02401e-11
1.64261e-09
4.5723e-08
1.75837e-06
8.19863e-07
0.000140066
0.000833994
0.000720326
8.10478e-05
3.73212e-12
8.68699e-13
1.51174e-12
6.43104e-12
3.97822e-11
2.31625e-11
4.7269e-12
7.38799e-12
1.98026e-11
3.10042e-11
3.42745e-11
1.76009e-08
3.51327e-07
5.52237e-07
7.60033e-07
7.81256e-07
0.000691411
0.000419966
7.76407e-05
2.0134e-12
2.88892e-13
9.21133e-13
2.92143e-12
4.63904e-12
1.94287e-12
1.37878e-12
8.04768e-12
3.34577e-11
3.42803e-11
3.19193e-11
8.66942e-06
2.93189e-05
1.54158e-05
8.19863e-07
7.59971e-07
0.000610226
0.000499893
7.76407e-05
2.72017e-14
3.84847e-14
2.26274e-13
9.47447e-13
1.01121e-12
5.19318e-13
5.13768e-13
6.51012e-11
1.32791e-10
4.93166e-11
3.31761e-07
4.58879e-05
4.73416e-05
3.66347e-05
1.84405e-06
8.23766e-07
0.000552237
0.000637562
7.846e-05
4.504e-15
5.47882e-15
2.75004e-14
9.55452e-14
1.58908e-13
1.67722e-13
2.5663e-13
8.99254e-09
2.56176e-09
9.68503e-11
3.13258e-05
4.73416e-05
4.73571e-05
2.86707e-05
3.13949e-06
0.000131018
0.000674191
0.000612002
2.56199e-05
1.08046e-15
1.83268e-15
1.12063e-13
2.43853e-13
1.67913e-13
2.56533e-13
1.32639e-08
8.49066e-08
1.91101e-08
3.33843e-10
3.51571e-05
4.73691e-05
4.73525e-05
2.16962e-05
5.00256e-06
0.000405952
0.000674191
0.000334158
1.89736e-06
3.86665e-16
5.50267e-16
1.06668e-12
9.61097e-13
2.76337e-13
1.18082e-12
6.90469e-08
9.2374e-08
3.51818e-08
1.07758e-09
5.97972e-06
4.73525e-05
4.73693e-05
1.63347e-05
5.39506e-06
0.000282991
0.000674191
0.000111685
2.40293e-10
1.36125e-16
6.59068e-17
3.19534e-12
2.00157e-12
1.54708e-11
1.11281e-11
6.79098e-08
6.96008e-08
1.0046e-08
1.38079e-09
1.9807e-06
4.69981e-05
4.73375e-05
1.37358e-05
4.21143e-05
0.000200226
1.87034e-05
0
-2.94428e-26
3.11486e-17
9.38278e-19
4.70265e-12
4.58285e-12
2.85035e-10
2.53974e-09
7.21588e-10
4.10631e-12
4.94419e-12
8.10994e-12
1.27081e-06
2.13763e-05
4.02356e-05
1.46104e-05
2.84346e-06
-8.15125e-16
-6.35713e-15
-2.36359e-15
-2.37061e-16
1.00526e-17
5.54968e-19
4.64389e-12
2.80188e-11
5.71345e-10
1.11582e-09
1.33048e-12
3.68625e-12
1.67301e-12
4.024e-09
5.55344e-08
1.94518e-10
1.08253e-10
-1.43623e-31
-1.84669e-15
-8.46096e-15
-3.38455e-14
-1.118e-14
-9.7604e-16
2.47494e-18
4.07805e-19
4.19507e-12
4.94776e-11
9.70325e-11
8.44763e-14
6.71223e-14
6.79912e-12
1.65224e-12
1.67301e-12
2.02168e-12
1.03366e-10
3.87842e-09
2.00399e-08
-2.42782e-15
-1.29602e-14
-5.85402e-14
-1.45583e-14
-1.13526e-15
2.49263e-19
2.54742e-19
1.98038e-12
2.11012e-11
4.02436e-12
1.14207e-13
6.47673e-14
7.45373e-12
9.62509e-13
3.92483e-12
7.42031e-11
1.18798e-09
5.84994e-08
8.7933e-08
4.00312e-16
0
2.41201e-16
7.62187e-18
2.17645e-18
4.0203e-21
2.48699e-17
1.33673e-13
1.5899e-12
1.51721e-12
1.66442e-13
2.25229e-14
4.30803e-12
2.63616e-13
4.12016e-12
2.33895e-10
1.2971e-09
1.7543e-08
4.50778e-08
-1.49736e-18
-9.46264e-18
-5.49626e-19
-2.27725e-20
7.21242e-21
3.55079e-25
3.96569e-17
2.2251e-29
-6.01853e-38
0
0
1.50845e-16
1.17651e-13
4.28599e-15
1.62719e-13
1.29933e-10
6.05191e-10
-2.93694e-21
-2.881e-20
-2.65314e-19
-5.01411e-18
-4.47658e-19
-1.84072e-20
-2.77019e-22
)
;

boundaryField
{
    leftWall
    {
        type            zeroGradient;
    }
    rightWall
    {
        type            zeroGradient;
    }
    lowerWall
    {
        type            zeroGradient;
    }
    atmosphere
    {
        type            inletOutlet;
        inletValue      uniform 0;
        value           nonuniform List<scalar> 
46
(
-5.02629e-23
-5.19901e-24
-1.18786e-23
-6.05519e-24
-1.52835e-24
-2.32901e-25
-1.05938e-26
1.1576e-28
3.24575e-27
8.48775e-28
-6.74334e-25
-9.26158e-24
-5.72148e-23
-1.82882e-22
-3.27713e-22
-3.67528e-22
-2.76936e-22
-1.47891e-22
-5.74835e-23
-1.48235e-23
-2.36003e-24
-2.14506e-25
-8.64151e-27
0
0
0
0
0
0
0
0
0
0
0
0
0
0
0
0
0
0
0
0
0
0
0
)
;
    }
    defaultFaces
    {
        type            empty;
    }
}


// ************************************************************************* //
