/*--------------------------------*- C++ -*----------------------------------*\
| =========                 |                                                 |
| \\      /  F ield         | OpenFOAM: The Open Source CFD Toolbox           |
|  \\    /   O peration     | Version:  2206                                  |
|   \\  /    A nd           | Website:  www.openfoam.com                      |
|    \\/     M anipulation  |                                                 |
\*---------------------------------------------------------------------------*/
FoamFile
{
    version     2.0;
    format      ascii;
    arch        "LSB;label=32;scalar=64";
    class       volScalarField;
    location    "0.875";
    object      p;
}
// * * * * * * * * * * * * * * * * * * * * * * * * * * * * * * * * * * * * * //

dimensions      [1 -1 -2 0 0 0 0];

internalField   nonuniform List<scalar> 
2268
(
1296.05
1277.48
1244.09
1200.9
1153.9
1105.78
1058.64
1014.86
976.985
946.594
924.331
909.802
900.908
893.446
887.495
883.312
880.77
882.211
887.675
890.382
887.914
881.508
875.254
1242.13
1221.94
1185.92
1140.54
1093.07
1045.94
998.874
954.69
916.622
886.053
863.804
849.557
841.656
836.974
832.093
825.899
819.924
821.722
828.241
830.515
827.669
820.305
814.974
1187.6
1165.67
1127.25
1080.25
1033.18
985.829
938.166
893.103
854.196
823.482
801.459
787.839
781.32
779.429
776.497
769.563
763.96
764.825
768.839
769.603
766.082
757.583
753.015
1132.27
1108.92
1068.66
1019.85
972.275
925.042
876.681
830.251
790.246
759.027
737.27
724.593
719.637
719.823
719.471
714.512
708.972
707.755
708.869
707.965
703.463
693.133
689.012
1076.85
1052.58
1010.76
959.81
911.127
864.212
814.659
766.076
724.405
692.445
671.053
659.66
656.856
659.731
662.234
659.29
653.202
649.481
648.362
646.401
640.876
627.385
624.044
1022.72
997.622
954.516
901.636
851.878
804.154
752.263
700.505
656.523
623.596
602.618
592.836
592.778
599.216
604.863
603.178
596.1
590.427
587.971
585.309
578.688
563.101
560.546
971.243
945.195
901.26
846.962
795.433
744.904
689.442
633.361
586.362
552.213
531.951
524.262
527.338
538.388
548.097
547.31
538.349
530.771
527.79
524.856
517.562
503.806
497.586
923.81
896.249
852.025
796.95
741.427
686.757
625.984
564.505
513.644
477.96
458.615
453.298
460.247
477.631
492.593
492.094
479.925
470.196
467.778
465.241
457.446
446.566
435.752
706.475
676.468
650.465
588.937
551.34
539.366
550.248
578.803
613.775
641.122
654.64
654.395
619.168
584.102
521.588
414.478
471.2
717.293
925.592
668.804
632.116
620.997
544.365
502.49
492.042
502.536
532.557
566.963
584.922
595.1
607.508
580.462
527.48
441.779
343.287
368.381
567.655
833.394
648.698
614.978
585.051
498.898
429.131
413.809
434.448
469.72
506.183
529.819
549.355
579.677
572.955
490.047
382.002
289.409
301.216
456.295
738.06
638.784
625.033
539.8
422.365
326.395
303.397
352.853
397.844
430.789
459.931
492.867
530.896
536.707
466.051
347.849
260.908
271.219
392.591
669.536
617.176
615.715
496.934
319.988
237.578
229.393
286.584
329.87
352.56
384.266
420.302
465.892
477.388
444.111
338.68
262.896
275.412
384.524
621.41
626.838
603.723
440.261
225.398
196.351
201.668
240.547
271.017
281.087
312.474
344.391
389.619
415.14
415.94
347.676
286.927
296.025
392.949
559.702
642.221
597.2
357.194
193.406
185.237
192.672
210.359
225.839
233.682
260.023
288.451
326.794
363.726
395.639
365.441
333.863
346.712
379.825
476.772
670.988
577.09
289.432
185.293
181.38
189.503
197.736
202.897
214.219
237.514
263.338
287.294
323.245
391.346
418.17
400.176
374.193
351.309
392.209
856.933
827.015
784.408
731.201
672.744
605.664
530.512
454.738
394.262
355.373
338.329
337.82
352.141
383.852
411.401
410.353
388.025
373.347
374.572
374.601
363.384
342.337
311.387
789.848
755.81
708.95
637.034
549.906
455.751
364.853
282.112
208.68
162.098
146.664
153.895
185.485
266.201
337.447
326.028
266.467
242.853
257.296
266.982
241.88
167.158
102.744
743.26
692.412
641.978
563.932
474.61
368.001
235.092
121.231
73.1038
54.621
48.2508
51.8676
73.8907
152.261
211.898
210.366
162.728
154.538
172.803
179.095
125.621
7.78621
-82.3594
854.691
621.203
442.665
298.792
187.911
97.7237
54.3102
42.727
37.7731
35.797
34.8126
29.831
30.3988
46.0442
89.2175
103.472
91.7202
99.5836
115.824
110.898
62.687
-25.2364
-66.4547
524.205
243.284
86.0329
19.7619
5.32618
1.6907
1.02613
3.66924
6.4426
12.5294
20.6581
21.0159
15.0117
13.3899
20.6823
18.8985
21.5152
35.8806
52.082
57.9237
54.5192
50.1725
22.1117
87.1197
45.1145
9.9951
-0.787497
-1.97697
-2.10803
-2.17525
-2.21637
-1.99038
-1.09575
0.505517
3.85512
2.02424
1.6446
0.897559
-3.74752
-15.2771
16.0802
44.4417
53.9181
39.7955
23.5397
14.9433
17.8631
5.88269
-0.940217
-2.24105
-2.49105
-2.55936
-2.52923
-2.46807
-2.44904
-2.52081
-2.57826
-2.17608
-1.56889
-1.32988
-1.6198
-4.13039
-10.9234
16.785
48.4514
38.7663
30.583
17.8656
10.3029
1.88829
-1.79878
-3.11439
-3.16093
-3.15078
-3.10159
-2.99277
-2.86561
-2.76444
-2.66347
-2.56188
-2.55638
-2.38177
-2.33762
-2.53491
-2.82247
-2.45991
5.53175
26.8582
35.5241
28.3301
14.2231
5.44863
-2.18791
-3.98644
-3.83366
-3.79477
-3.76378
-3.6548
-3.48668
-3.2935
-3.11115
-2.95181
-2.83064
-2.74386
-2.71524
-2.78905
-2.91046
-2.97043
-2.85232
-0.623178
12.2291
29.3145
18.1164
1.35561
-6.03156
-2.63701
-5.12858
-4.58429
-4.64491
-4.55423
-4.32747
-4.00888
-3.68619
-3.40762
-3.18343
-3.02331
-2.93268
-2.92677
-2.9993
-3.08246
-3.08775
-3.01968
-2.78949
2.12964
28.4859
42.1679
38.0486
14.9186
-2.29958
-5.8775
-5.75698
-5.89768
-5.63802
-5.18843
-4.62368
-4.10277
-3.69691
-3.4047
-3.2057
-3.09716
-3.07566
-3.12766
-3.1919
-3.17334
-3.04498
-2.79946
-2.13029
0.972662
10.3847
11.6997
6.07671
-2.23678
-5.95985
-7.20729
-7.45096
-6.99712
-6.20782
-5.27714
-4.48125
-3.92368
-3.56462
-3.3421
-3.22166
-3.18624
-3.21977
-3.28015
-3.27783
-3.15735
-2.97039
-2.73072
-1.97065
0.848856
3.62138
2.55101
-2.22597
-5.18756
-7.99542
-8.59646
-8.05168
-7.04029
-5.79086
-4.73189
-4.04391
-3.65006
-3.42501
-3.30198
-3.26014
-3.27763
-3.32942
-3.34806
-3.27813
-3.16299
-3.06135
-2.79668
-2.08042
0.504331
0.934324
-2.33961
-4.00036
-7.25424
-8.49109
-8.22518
-7.22393
-5.88972
-4.7243
-4.0033
-3.65103
-3.44292
-3.34063
-3.30543
-3.31289
-3.34557
-3.36774
-3.33666
-3.2998
-3.26028
-3.05255
-2.5865
-1.57307
-0.86523
-2.90184
-3.5476
-5.42482
-6.85236
-7.13399
-6.43719
-5.38334
-4.43294
-3.83945
-3.55099
-3.40988
-3.34815
-3.33123
-3.34084
-3.36482
-3.3866
-3.38837
-3.38277
-3.37234
-3.22764
-3.17125
-2.20244
-1.81203
-3.51844
-3.78031
-4.10615
-4.6448
-5.06017
-4.9478
-4.43488
-3.91137
-3.57298
-3.41637
-3.35603
-3.33958
-3.34676
-3.3678
-3.3955
-3.42219
-3.44192
-3.46158
-3.50666
-3.61578
-3.55826
-2.50527
-1.90041
-3.77782
-3.82322
-3.46994
-3.21158
-3.36093
-3.53646
-3.52216
-3.41057
-3.31932
-3.29282
-3.3046
-3.32997
-3.36135
-3.39655
-3.43346
-3.46949
-3.50352
-3.54123
-3.61189
-3.78627
-3.68088
-3.09343
-2.95437
-3.61012
-3.54971
-3.11194
-2.63978
-2.57283
-2.77446
-2.97926
-3.08822
-3.15252
-3.21545
-3.27711
-3.33286
-3.38357
-3.43115
-3.4767
-3.52025
-3.56204
-3.60219
-3.65567
-3.73576
-3.64991
-3.5427
-3.67063
-3.29291
-3.22098
-2.86268
-2.49044
-2.39452
-2.56495
-2.78762
-2.95807
-3.08752
-3.19341
-3.28147
-3.35526
-3.41878
-3.47533
-3.52715
-3.57508
-3.61948
-3.65697
-3.69158
-3.71542
-3.67125
-3.78834
-3.62091
-3.06354
-3.00255
-2.77238
-2.53914
-2.49186
-2.61825
-2.79715
-2.96255
-3.10236
-3.219
-3.31626
-3.39816
-3.4686
-3.53075
-3.5869
-3.638
-3.68458
-3.72269
-3.75417
-3.77217
-3.77701
-3.88766
-3.47166
-3.00307
-2.95857
-2.81775
-2.69469
-2.67992
-2.76859
-2.9028
-3.04131
-3.16815
-3.27946
-3.37567
-3.45891
-3.53183
-3.59688
-3.65612
-3.71074
-3.76196
-3.80841
-3.85213
-3.8976
-3.94625
-3.87865
-3.52672
-3.04948
-3.02702
-2.93242
-2.87593
-2.87938
-2.94469
-3.04452
-3.15498
-3.26307
-3.363
-3.453
-3.53347
-3.6058
-3.67172
-3.73308
-3.79168
-3.84977
-3.9104
-3.97972
-4.06209
-4.24467
-4.19405
-3.79615
-3.14206
-3.13018
-3.0842
-3.05751
-3.06892
-3.11923
-3.19505
-3.28291
-3.37331
-3.46065
-3.54235
-3.61775
-3.6874
-3.75247
-3.8147
-3.8765
-3.94115
-4.01508
-4.11088
-4.23562
-4.48197
-4.52399
-4.09628
-3.26064
-3.25465
-3.23471
-3.22715
-3.24339
-3.28447
-3.34429
-3.41525
-3.49078
-3.56628
-3.63916
-3.70833
-3.77379
-3.83636
-3.89759
-3.96007
-4.02758
-4.10704
-4.21228
-4.35724
-4.6102
-4.83647
-4.61319
-3.39226
-3.38804
-3.38237
-3.38608
-3.40502
-3.44027
-3.48923
-3.54763
-3.61107
-3.67604
-3.7403
-3.80266
-3.86285
-3.92136
-3.9794
-4.03921
-4.10416
-4.18002
-4.27734
-4.41369
-4.64249
-4.93189
-4.98645
-3.52892
-3.52626
-3.52815
-3.53762
-3.55743
-3.58843
-3.62956
-3.67838
-3.73196
-3.78773
-3.84386
-3.89924
-3.95343
-4.00661
-4.05955
-4.11379
-4.17162
-4.23696
-4.31507
-4.41598
-4.56415
-4.7719
-4.87478
-3.66777
-3.66657
-3.67206
-3.68397
-3.70335
-3.73079
-3.76587
-3.80709
-3.8525
-3.90025
-3.94887
-3.99737
-4.04521
-4.0923
-4.13896
-4.18597
-4.23436
-4.28609
-4.34233
-4.40586
-4.47823
-4.57584
-4.64477
-3.80732
-3.80713
-3.81405
-3.82649
-3.84463
-3.86885
-3.89893
-3.93393
-3.97247
-4.0132
-4.05498
-4.09692
-4.13845
-4.17925
-4.21927
-4.25874
-4.29784
-4.33719
-4.37639
-4.41599
-4.45175
-4.48836
-4.51711
-3.94653
-3.94692
-3.95412
-3.96607
-3.98253
-4.00374
-4.02955
-4.05928
-4.09195
-4.12656
-4.16218
-4.19805
-4.23358
-4.26835
-4.30208
-4.33465
-4.36592
-4.39591
-4.42405
-4.45058
-4.47286
-4.49059
-4.50194
-4.08481
-4.08546
-4.09236
-4.10331
-4.11792
-4.13634
-4.1584
-4.18359
-4.21121
-4.24045
-4.27059
-4.30097
-4.33102
-4.36026
-4.38835
-4.415
-4.43995
-4.46302
-4.48376
-4.50212
-4.51689
-4.52711
-4.53187
-4.22187
-4.22261
-4.22891
-4.23866
-4.25141
-4.26724
-4.28599
-4.30726
-4.33048
-4.35505
-4.38036
-4.40584
-4.43098
-4.45531
-4.47845
-4.50007
-4.51987
-4.5376
-4.55287
-4.56549
-4.5749
-4.58065
-4.58248
-4.35764
-4.35835
-4.36396
-4.37245
-4.38342
-4.39689
-4.41272
-4.43056
-4.44996
-4.47045
-4.49153
-4.5127
-4.53351
-4.55354
-4.5724
-4.58978
-4.60536
-4.61889
-4.63011
-4.63885
-4.64491
-4.64826
-4.64899
-4.49213
-4.49278
-4.49766
-4.50494
-4.51425
-4.5256
-4.53883
-4.55368
-4.56977
-4.58672
-4.6041
-4.62152
-4.63856
-4.65485
-4.67006
-4.68388
-4.69605
-4.70635
-4.71461
-4.72077
-4.7248
-4.72682
-4.72701
-4.62545
-4.62601
-4.63017
-4.63632
-4.64411
-4.65355
-4.66451
-4.67675
-4.68997
-4.70384
-4.71803
-4.73219
-4.74598
-4.75908
-4.77119
-4.78206
-4.79148
-4.79927
-4.80534
-4.80968
-4.81234
-4.8135
-4.81337
-4.75771
-4.75816
-4.76164
-4.76675
-4.77317
-4.78092
-4.78988
-4.79984
-4.81056
-4.82178
-4.83321
-4.84458
-4.85558
-4.86597
-4.87548
-4.88391
-4.89109
-4.89691
-4.90129
-4.90427
-4.90596
-4.90654
-4.90625
-4.88903
-4.88936
-4.8922
-4.89637
-4.90157
-4.90782
-4.91502
-4.92301
-4.93158
-4.9405
-4.94957
-4.95853
-4.96717
-4.97526
-4.98259
-4.989
-4.99436
-4.99859
-5.00165
-5.00361
-5.00457
-5.00474
-5.00436
-5.01953
-5.01972
-5.022
-5.02534
-5.02944
-5.03437
-5.04004
-5.04631
-5.05301
-5.05996
-5.06699
-5.07391
-5.08053
-5.08668
-5.09219
-5.09694
-5.10082
-5.10377
-5.10579
-5.10695
-5.10736
-5.10723
-5.10677
-5.14937
-5.14941
-5.15119
-5.15378
-5.15692
-5.16069
-5.16502
-5.16979
-5.17487
-5.18012
-5.1854
-5.19058
-5.19549
-5.20001
-5.20401
-5.20738
-5.21005
-5.21199
-5.2132
-5.21374
-5.21374
-5.21338
-5.21291
-5.27868
-5.27855
-5.27991
-5.28184
-5.28412
-5.28688
-5.29003
-5.29348
-5.29716
-5.30094
-5.30472
-5.30841
-5.31187
-5.31503
-5.31777
-5.32002
-5.32174
-5.32289
-5.32348
-5.32358
-5.32331
-5.32283
-5.3224
-5.40764
-5.40735
-5.40834
-5.40967
-5.4112
-5.41306
-5.41516
-5.41747
-5.41992
-5.42243
-5.42492
-5.42733
-5.42958
-5.43159
-5.4333
-5.43466
-5.43563
-5.4362
-5.43638
-5.43621
-5.43581
-5.43532
-5.43499
-5.53621
-5.53581
-5.5365
-5.53729
-5.53814
-5.53919
-5.54038
-5.54167
-5.54304
-5.54444
-5.54583
-5.54715
-5.54837
-5.54945
-5.55034
-5.55102
-5.55146
-5.55165
-5.5516
-5.55135
-5.55096
-5.55054
-5.55028
-5.66528
-5.6649
-5.66511
-5.66535
-5.6656
-5.66593
-5.66628
-5.66666
-5.66705
-5.66744
-5.66782
-5.66818
-5.66848
-5.66873
-5.66891
-5.66902
-5.66903
-5.66896
-5.66881
-5.66859
-5.66833
-5.66808
-5.66793
261.335
267.554
393.505
469.37
58.2809
101.396
225.129
329.238
-117.404
-36.9816
111.874
208.162
-37.38
20.5275
82.4042
138.932
12.5715
37.1865
68.8396
90.0319
18.8905
40.4821
53.6857
56.6865
13.592
28.6841
34.9088
27.2155
8.34991
17.3398
20.3311
12.1429
6.68957
10.3568
14.6792
6.18955
4.22569
5.80708
9.05818
0.572771
2.3167
2.30525
1.84352
-3.30688
0.395978
-0.162474
-3.04698
-4.20976
-0.654144
-1.15468
-3.06358
-4.38016
-1.56645
-2.40569
-3.11217
-4.20507
-2.365
-2.53241
-3.02617
-3.86151
-1.83683
-2.63024
-3.09206
-3.77114
-2.73011
-3.0393
-3.42931
-3.96416
-3.8085
-3.45791
-3.8134
-4.2707
-3.75161
-3.60659
-3.89719
-4.24741
-3.68247
-3.63093
-3.712
-3.84197
-3.75155
-3.76232
-3.71598
-3.76113
-3.94048
-4.01775
-3.95804
-3.90373
-4.13792
-4.26076
-4.1864
-4.03543
-4.374
-4.49495
-4.37581
-4.16465
-4.6913
-4.63908
-4.47859
-4.24971
-4.79592
-4.63417
-4.46022
-4.27931
-4.64094
-4.54069
-4.41309
-4.29883
-4.52085
-4.4778
-4.40667
-4.33972
-4.50408
-4.48141
-4.43994
-4.39765
-4.53053
-4.51647
-4.49197
-4.46516
-4.58073
-4.57228
-4.55764
-4.54045
-4.64746
-4.64208
-4.63311
-4.62225
-4.72564
-4.72211
-4.71667
-4.70999
-4.81223
-4.80997
-4.80679
-4.80295
-4.90534
-4.90395
-4.90235
-4.90067
-5.00363
-5.00294
-5.00263
-5.00285
-5.10622
-5.10621
-5.10716
-5.1092
-5.21259
-5.2133
-5.21551
-5.21929
-5.32235
-5.3238
-5.32721
-5.33258
-5.43516
-5.4372
-5.44175
-5.44868
-5.55048
-5.55301
-5.55884
-5.56743
-5.66826
-5.67141
-5.67856
-5.68879
564.859
480.365
266.502
181.041
181.504
190.38
197.647
200.948
207.702
223.472
243.209
257.985
294.376
366.557
411.091
387.046
347.32
314.046
323.278
357.692
335.382
254.452
195.234
194.637
193.855
194.88
194.214
197.055
206.28
217.934
230.98
267.22
289.9
269.651
260.229
270.19
279.648
281.048
242.733
243.929
227.217
195.696
184.196
195.4
194.017
192.816
193.303
196.272
189.947
176.869
171.851
159.02
97.0375
77.3004
122.843
191.028
238.893
172.142
202.595
225.527
212.281
180.482
182.762
191.635
194.215
191.168
176.261
144.189
111.396
92.7029
63.7981
26.2455
20.6605
28.2956
58.966
181.653
119.103
179.82
242.097
243.217
204.672
181.493
186.364
182.705
158.313
119.077
81.0882
40.4689
21.4508
7.95703
4.52087
0.870369
2.00705
17.5054
68.2949
58.8797
101.783
184.77
241.898
218.005
199.121
181.655
147.028
88.1189
44.3699
34.5804
9.95211
0.787841
0.649624
-2.22603
-4.62066
-3.77852
1.80905
14.9376
17.446
26.8517
92.2698
192.639
190.336
158.207
103.607
41.3881
14.8911
4.41981
2.34581
1.4841
2.04775
1.57417
-1.11296
-3.19309
-2.51477
-1.61704
4.03039
7.63943
5.76237
17.0754
92.7334
140.272
76.6589
16.5824
6.61995
4.15809
2.92617
2.28532
2.76283
3.46312
2.90776
1.27837
-1.03898
-1.62187
-1.57201
0.0778081
2.45138
0.383371
-1.12669
5.0251
55.2517
9.77394
4.79872
3.0354
2.09558
1.23999
0.826282
1.17977
1.63659
1.60464
0.682675
-0.801711
-1.4834
-1.42989
-1.27989
-1.51458
-1.46981
-0.915407
2.55198
-7.04071
-4.96835
0.585489
0.11582
-1.04288
-1.89395
-1.56514
-1.03821
-0.685554
-0.636818
-0.902457
-1.31025
-1.5571
-1.5703
-1.85667
-3.4557
-2.92107
-1.62754
-0.183477
-51.7807
-6.10091
-2.12257
-2.327
-2.88243
-2.99154
-2.47697
-1.92958
-1.55933
-1.42006
-1.45026
-1.52065
-1.68617
-1.68268
-1.77058
-4.17092
-3.96048
-3.68771
-14.7561
-41.9782
-6.83047
-3.22377
-3.11459
-3.17714
-3.14539
-2.73244
-2.29033
-1.93394
-1.75731
-1.71299
-1.73063
-1.78993
-1.79831
-1.81783
-4.78601
-4.75814
-6.3018
-16.7777
-16.1091
-4.51692
-3.07666
-2.84889
-2.79345
-2.81913
-2.63265
-2.33717
-2.09853
-1.96451
-1.9021
-1.88798
-1.90075
-1.89712
-1.89569
-5.0219
-5.82718
-8.8073
-12.1259
-9.40221
-3.64395
-2.62926
-2.40069
-2.3857
-2.4639
-2.41301
-2.2824
-2.16683
-2.09615
-2.04519
-2.01707
-2.01134
-1.99516
-1.99476
-4.51595
-5.3001
-6.59544
-6.89444
-4.46857
-2.4439
-2.26053
-2.1388
-2.202
-2.28493
-2.31403
-2.28587
-2.24189
-2.20668
-2.16626
-2.13886
-2.12714
-2.1055
-2.11136
-4.16272
-4.43736
-4.44116
-3.72164
-2.38658
-1.78722
-2.04091
-2.07755
-2.19715
-2.29218
-2.34598
-2.35353
-2.33889
-2.31924
-2.28552
-2.26559
-2.25342
-2.23489
-2.24625
-4.1613
-4.13117
-3.80581
-3.09871
-2.3153
-2.03042
-2.14892
-2.20905
-2.31886
-2.40241
-2.45349
-2.46871
-2.46217
-2.44637
-2.42164
-2.40947
-2.39099
-2.38091
-2.3938
-4.3029
-4.1368
-3.81626
-3.39964
-2.99164
-2.6993
-2.52605
-2.45252
-2.52026
-2.56701
-2.60213
-2.61327
-2.6052
-2.58678
-2.57435
-2.57391
-2.53916
-2.53692
-2.54995
-4.23141
-4.09107
-3.86415
-3.56434
-3.30458
-3.05926
-2.85161
-2.73618
-2.73092
-2.7514
-2.76914
-2.77318
-2.76267
-2.74385
-2.7323
-2.73186
-2.70541
-2.70129
-2.71583
-3.92502
-3.89463
-3.75876
-3.56268
-3.38004
-3.21453
-3.08359
-2.99711
-2.95326
-2.94419
-2.94504
-2.9421
-2.9296
-2.91527
-2.90191
-2.90216
-2.88413
-2.87483
-2.88693
-3.81535
-3.79367
-3.71251
-3.60298
-3.49029
-3.38089
-3.28864
-3.21187
-3.15773
-3.13007
-3.11917
-3.11146
-3.0978
-3.08708
-3.08001
-3.09088
-3.07249
-3.05338
-3.05225
-3.87534
-3.83227
-3.77368
-3.70049
-3.61805
-3.5308
-3.44644
-3.37685
-3.32613
-3.29572
-3.2814
-3.27202
-3.25843
-3.25351
-3.25389
-3.27144
-3.24884
-3.22103
-3.20123
-3.95701
-3.90148
-3.84496
-3.78224
-3.71349
-3.64261
-3.57536
-3.51818
-3.47476
-3.4463
-3.43064
-3.41977
-3.40574
-3.40205
-3.40126
-3.42726
-3.41539
-3.37047
-3.33895
-4.04614
-3.97857
-3.92192
-3.86633
-3.80921
-3.75208
-3.69811
-3.65082
-3.61281
-3.5857
-3.56851
-3.55522
-3.53937
-3.53075
-3.53406
-3.55801
-3.56822
-3.5075
-3.47023
-4.12229
-4.05544
-4.00326
-3.95454
-3.90645
-3.85927
-3.81449
-3.77426
-3.74062
-3.71492
-3.69659
-3.68056
-3.66208
-3.64736
-3.64855
-3.66193
-3.68259
-3.61456
-3.57116
-4.18002
-4.12689
-4.0832
-4.04216
-4.00226
-3.96322
-3.92575
-3.89133
-3.86141
-3.83692
-3.81743
-3.79853
-3.77633
-3.75495
-3.74632
-3.74095
-3.74571
-3.681
-3.63475
-4.23617
-4.19926
-4.16482
-4.13113
-4.09825
-4.06591
-4.03439
-4.00464
-3.97766
-3.95412
-3.93366
-3.91228
-3.88587
-3.8579
-3.83741
-3.81709
-3.79674
-3.73344
-3.68023
-4.30031
-4.27431
-4.24766
-4.22063
-4.1939
-4.16731
-4.14094
-4.11535
-4.09125
-4.06908
-4.04838
-4.02564
-3.99631
-3.96357
-3.93281
-3.9051
-3.85479
-3.78192
-3.72598
-4.37075
-4.35191
-4.33188
-4.3109
-4.28965
-4.26818
-4.24653
-4.22507
-4.20434
-4.18459
-4.16514
-4.1428
-4.1128
-4.07632
-4.03577
-3.99535
-3.92026
-3.84149
-3.78913
-4.44647
-4.43284
-4.41815
-4.40232
-4.38587
-4.369
-4.35188
-4.3349
-4.31858
-4.30313
-4.28755
-4.2685
-4.2405
-4.20196
-4.15258
-4.09624
-4.01827
-3.93014
-3.87705
-4.52746
-4.51769
-4.50704
-4.49534
-4.48295
-4.47022
-4.45759
-4.44559
-4.43492
-4.4261
-4.41806
-4.40686
-4.38535
-4.34779
-4.29339
-4.22665
-4.14789
-4.04847
-3.99481
-4.61343
-4.60652
-4.59888
-4.59042
-4.58143
-4.57244
-4.56422
-4.55755
-4.55356
-4.55381
-4.55781
-4.56116
-4.55161
-4.51693
-4.45682
-4.37937
-4.29669
-4.20038
-4.14699
-4.70416
-4.69936
-4.69406
-4.68821
-4.68211
-4.67654
-4.67258
-4.67125
-4.67471
-4.68649
-4.70776
-4.73258
-4.74053
-4.70935
-4.63978
-4.54953
-4.45843
-4.37725
-4.32779
-4.79939
-4.79637
-4.79308
-4.7895
-4.78594
-4.78345
-4.78322
-4.78656
-4.79717
-4.82136
-4.86288
-4.91166
-4.9396
-4.91379
-4.83802
-4.73068
-4.62839
-4.56144
-4.52109
-4.89911
-4.89777
-4.89638
-4.89486
-4.89352
-4.89344
-4.89569
-4.90181
-4.91659
-4.94862
-5.00332
-5.06981
-5.11244
-5.08939
-5.00514
-4.89933
-4.8047
-4.74525
-4.71595
-5.00325
-5.00359
-5.00398
-5.00427
-5.00469
-5.0061
-5.00925
-5.01552
-5.02928
-5.05905
-5.11006
-5.1767
-5.22591
-5.20788
-5.12082
-5.0257
-4.96557
-4.92344
-4.90266
-5.11149
-5.1134
-5.11535
-5.11716
-5.11895
-5.12122
-5.12438
-5.12922
-5.13851
-5.15876
-5.19548
-5.24429
-5.27668
-5.26084
-5.20219
-5.14721
-5.10407
-5.07325
-5.05948
-5.22326
-5.22654
-5.22985
-5.23299
-5.236
-5.23912
-5.24247
-5.24622
-5.25142
-5.26144
-5.27922
-5.30209
-5.31498
-5.30487
-5.27708
-5.24836
-5.22426
-5.20727
-5.19926
-5.33807
-5.3426
-5.34719
-5.35167
-5.35597
-5.36014
-5.36413
-5.36776
-5.37112
-5.37526
-5.38075
-5.38627
-5.38723
-5.38054
-5.36861
-5.35596
-5.34382
-5.33443
-5.32943
-5.45568
-5.46148
-5.46743
-5.47331
-5.47895
-5.48423
-5.48893
-5.49267
-5.49521
-5.49662
-5.49675
-5.4951
-5.49141
-5.48574
-5.4786
-5.47084
-5.46346
-5.45779
-5.45416
-5.57603
-5.58318
-5.59056
-5.59794
-5.60504
-5.61157
-5.61708
-5.62101
-5.62286
-5.6223
-5.6192
-5.61389
-5.60741
-5.60063
-5.59397
-5.58788
-5.58278
-5.57907
-5.57623
-5.69902
-5.7076
-5.71657
-5.72569
-5.73465
-5.74295
-5.74991
-5.75466
-5.75636
-5.75421
-5.74798
-5.73836
-5.72751
-5.71779
-5.71019
-5.70467
-5.70082
-5.69841
-5.69631
)
;

boundaryField
{
    leftWall
    {
        type            calculated;
        value           nonuniform List<scalar> 
50
(
1296.05
1242.13
1187.6
1132.27
1076.85
1022.72
971.243
923.81
856.933
789.848
743.26
854.691
524.205
87.1197
17.8631
1.88829
-2.18791
-2.63701
-2.29958
-2.23678
-2.22597
-2.33961
-2.90184
-3.51844
-3.77782
-3.61012
-3.29291
-3.06354
-3.00307
-3.04948
-3.14206
-3.26064
-3.39226
-3.52892
-3.66777
-3.80732
-3.94653
-4.08481
-4.22187
-4.35764
-4.49213
-4.62545
-4.75771
-4.88903
-5.01953
-5.14937
-5.27868
-5.40764
-5.53621
-5.66528
)
;
    }
    rightWall
    {
        type            calculated;
        value           nonuniform List<scalar> 
50
(
925.592
833.394
738.06
669.536
621.41
559.702
476.772
392.209
323.278
281.048
238.893
181.653
68.2949
14.9376
4.03039
0.0778081
-1.27989
-1.85667
-1.77058
-1.81783
-1.89569
-1.99476
-2.11136
-2.24625
-2.3938
-2.54995
-2.71583
-2.88693
-3.05225
-3.20123
-3.33895
-3.47023
-3.57116
-3.63475
-3.68023
-3.72598
-3.78913
-3.87705
-3.99481
-4.14699
-4.32779
-4.52109
-4.71595
-4.90266
-5.05948
-5.19926
-5.32943
-5.45416
-5.57623
-5.69631
)
;
    }
    lowerWall
    {
        type            calculated;
        value           nonuniform List<scalar> 
62
(
1325.48
1306.91
1273.52
1230.33
1183.33
1135.21
1088.07
1044.29
1006.41
976.024
953.76
939.232
930.337
922.647
916.057
911.944
910.011
911.433
916.677
919.327
917.102
910.911
904.677
875.254
814.974
753.015
689.012
624.044
560.546
497.586
435.752
323.93
330.15
456.1
526.118
706.475
668.804
648.698
638.784
617.176
626.838
642.221
670.988
723.205
693.465
668.646
606.933
565.322
553.355
564.257
592.813
633.105
667.375
680.893
680.648
645.42
610.353
547.784
430.695
483.583
740.112
948.647
)
;
    }
    atmosphere
    {
        type            calculated;
        value           nonuniform List<scalar> 
46
(
-5.72904
-5.72904
-5.72904
-5.72904
-5.72904
-5.72904
-5.72904
-5.72904
-5.72904
-5.72904
-5.72904
-5.72904
-5.72904
-5.72904
-5.72904
-5.72904
-5.72904
-5.72904
-5.72904
-5.72904
-5.72904
-5.72904
-5.72904
-5.72915
-5.73232
-5.73976
-5.75065
-5.76171
-5.77105
-5.78093
-5.79115
-5.80138
-5.81106
-5.81933
-5.82511
-5.8273
-5.82462
-5.81643
-5.80326
-5.78828
-5.77586
-5.76739
-5.76202
-5.75883
-5.75729
-5.75537
)
;
    }
    defaultFaces
    {
        type            empty;
    }
}


// ************************************************************************* //
