/*--------------------------------*- C++ -*----------------------------------*\
| =========                 |                                                 |
| \\      /  F ield         | OpenFOAM: The Open Source CFD Toolbox           |
|  \\    /   O peration     | Version:  2206                                  |
|   \\  /    A nd           | Website:  www.openfoam.com                      |
|    \\/     M anipulation  |                                                 |
\*---------------------------------------------------------------------------*/
FoamFile
{
    version     2.0;
    format      ascii;
    arch        "LSB;label=32;scalar=64";
    class       volScalarField;
    location    "0.875";
    object      p_rgh;
}
// * * * * * * * * * * * * * * * * * * * * * * * * * * * * * * * * * * * * * //

dimensions      [1 -1 -2 0 0 0 0];

internalField   nonuniform List<scalar> 
2268
(
1325.48
1306.91
1273.52
1230.33
1183.33
1135.21
1088.07
1044.29
1006.41
976.024
953.76
939.232
930.337
922.647
916.057
911.944
910.011
911.433
916.677
919.327
917.102
910.911
904.677
1330.42
1310.23
1274.21
1228.83
1181.36
1134.23
1087.16
1042.98
1004.91
974.341
952.092
937.845
929.831
921.799
915.746
909.545
904.468
906.955
913.48
915.786
913.82
908.593
903.245
1334.75
1312.82
1274.39
1227.39
1180.33
1132.98
1085.31
1040.25
1001.34
970.628
948.606
934.986
928.465
924.716
916.442
908.99
903.373
906.467
913.403
915.796
913.228
904.73
900.137
1338.28
1314.92
1274.66
1225.86
1178.28
1131.05
1082.69
1036.26
996.252
965.032
943.276
930.599
925.642
925.761
924.467
918.426
914.234
913.761
914.875
913.971
909.469
899.139
894.995
1341.71
1317.44
1275.62
1224.67
1175.99
1129.08
1079.52
1030.94
989.269
957.309
935.917
924.524
921.72
924.595
927.098
924.155
918.067
914.345
913.227
911.266
905.74
892.249
888.906
1346.45
1321.35
1278.24
1225.36
1175.6
1127.88
1075.99
1024.23
980.246
947.319
926.341
916.559
916.501
922.939
928.586
926.901
919.823
914.15
911.694
909.032
902.411
886.821
884.266
1353.82
1327.78
1283.84
1229.54
1178.01
1127.45
1071.99
1015.94
968.944
934.795
914.532
906.843
909.919
920.969
930.679
929.891
920.93
913.353
910.372
907.438
900.144
886.385
880.158
1365.25
1337.69
1293.47
1238.39
1182.85
1127.94
1067.17
1005.94
955.084
919.4
900.055
894.738
901.688
919.071
934.033
933.533
921.364
911.635
909.218
906.681
898.885
888.003
877.182
723.205
693.465
668.646
606.933
565.322
553.355
564.257
592.813
633.105
667.375
680.893
680.648
645.42
610.353
547.784
430.695
483.583
740.112
948.647
720.137
681.841
670.839
586.237
544.422
538.452
550.937
574.584
609.413
655.339
673.858
686.266
659.214
598.22
475.696
367.79
395.779
622.977
902.61
734.368
699.442
654.838
568.685
499.514
529.232
558.033
566.288
578.05
616.581
680.024
709.305
679.181
537.72
422.735
329.964
342.056
521.59
853.421
758.722
744.7
651.616
520.22
432.993
443.627
528.503
575.876
591.076
632.754
675.148
682.643
641.049
523.073
404.626
317.684
327.996
551.029
831.027
771.254
738.577
640.215
461.561
307.123
322.306
466.059
561.241
585.652
617.815
653.897
698.93
659.908
517.195
411.75
335.894
355.16
591.334
829.035
815.079
752.865
612.579
339.87
223.362
227.416
411.777
555.694
566.323
598.012
629.897
675.2
699.761
620.736
445.441
405.28
544.163
646.713
813.465
850.883
787.919
562.702
212.221
194.234
201.684
366.14
486.921
464.018
508.366
527.768
622.948
693.888
721.014
657.201
634.196
646.24
679.606
776.674
929.72
835.821
526.135
207.175
191.601
199.41
239.484
253.012
241.242
276.214
329.475
452.854
637.87
756.468
777.957
757.669
716.646
657.348
721.308
1390.4
1360.48
1317.88
1264.67
1206.21
1139.13
1063.97
988.203
927.728
888.839
871.796
871.286
885.607
917.315
944.845
943.765
921.437
906.782
908.016
908.041
896.568
874.864
844.787
1448.51
1414.47
1367.61
1295.7
1208.57
1114.41
1023.51
932.859
839.587
765.797
733.812
737.505
770.768
846.258
886.971
857.406
800.903
791.6
837.636
871.503
870.537
822.02
761.382
1499.92
1475.45
1407.18
1239.89
1064.36
953.278
835.853
602.806
339.577
216.029
198.274
230.59
280.373
360.9
503.659
610.101
536.52
460.963
478.247
586.52
860.233
791.278
701.421
1627.28
1288.82
1134.44
983.276
837.282
598.788
258.299
102.761
85.3534
83.4221
82.7076
71.6472
57.7009
150.636
471.681
607.179
498.459
453.68
478.022
770.917
968.469
883.123
842.169
1153.52
389.366
323.495
258.725
124.897
63.9439
52.1612
87.0223
107.018
113.617
121.235
66.4898
36.0994
28.7987
315.725
594.213
724.536
709.092
877.67
1058.71
1070.16
811.234
311.132
391.559
56.6478
14.4153
0.629053
-0.81757
-0.948431
-1.01515
-1.03145
1.56953
27.9429
63.7834
66.5161
32.3389
5.35477
10.7766
174.937
769.994
850.689
899.463
778.698
280.865
116.062
98.7739
35.186
10.0528
0.629618
-0.957782
-1.20641
-1.27472
-1.24457
-1.18328
-1.1635
-1.23174
-0.795524
3.87498
3.52275
0.930599
2.44915
7.69185
331.173
919.459
587.639
135.426
123.746
110.739
103.185
6.6341
0.247042
-1.69812
-1.75126
-1.74095
-1.69176
-1.58294
-1.45578
-1.35457
-1.2525
-1.14114
-1.13581
-0.932652
-0.753782
-0.346488
2.28331
80.1057
545.933
666.363
138.539
131.1
116.466
111.114
0.251389
-2.3195
-2.29778
-2.25981
-2.22876
-2.11977
-1.95165
-1.75847
-1.57612
-1.41668
-1.29467
-1.20641
-1.17426
-1.22353
-1.28504
-0.959731
1.01674
124.415
542.171
594.09
582.919
563.511
535.259
-0.468508
-3.32611
-2.92391
-2.98469
-2.89401
-2.66725
-2.34866
-2.02597
-1.7474
-1.5232
-1.36216
-1.27063
-1.26557
-1.33642
-1.41486
-1.39047
-1.1422
-0.00340432
76.8223
555.824
651.52
641.426
449.454
0.166614
-3.85112
-3.97154
-4.11227
-3.8526
-3.40302
-2.83826
-2.31735
-1.91149
-1.61923
-1.42015
-1.31171
-1.29021
-1.34201
-1.40514
-1.38177
-1.21889
-0.782188
2.36639
19.0785
103.101
108.869
64.5592
0.778663
-3.62234
-5.29667
-5.54035
-5.0865
-4.29721
-3.36653
-2.57064
-2.01306
-1.65399
-1.43137
-1.31104
-1.27563
-1.30914
-1.36939
-1.36609
-1.2423
-1.01894
-0.541981
4.4044
61.5769
105.189
66.7836
1.10481
-1.983
-5.94978
-6.56064
-6.01587
-5.00445
-3.75497
-2.696
-2.00809
-1.61424
-1.38912
-1.26616
-1.22433
-1.24183
-1.29358
-1.31109
-1.24189
-1.12254
-0.981471
-0.45945
11.5374
82.3798
98.2725
0.100727
-0.308052
-3.84884
-6.07537
-6.06085
-5.06248
-3.72153
-2.56229
-1.84229
-1.49002
-1.28191
-1.17962
-1.14443
-1.15189
-1.18457
-1.2067
-1.17562
-1.13833
-1.09032
-0.608274
0.974733
12.5736
69.555
-0.56129
0.358619
-1.58616
-3.21766
-3.76786
-3.64182
-3.06827
-2.14609
-1.55322
-1.2648
-1.12368
-1.06195
-1.04504
-1.05465
-1.07862
-1.10041
-1.10218
-1.09654
-1.07803
2.95515
37.4384
40.1349
1.19644
-1.10335
-0.337542
-0.218844
-0.884597
-1.37832
-1.39457
-1.88106
-1.49716
-1.16135
-1.00497
-0.94464
-0.928186
-0.935375
-0.956408
-0.984108
-1.0108
-1.03053
-1.05019
-1.09265
4.20635
58.0049
59.0994
56.6889
-1.23948
-1.25263
0.333894
0.661427
0.459459
-0.0551781
-0.917274
-0.871231
-0.78244
-0.756215
-0.768012
-0.793391
-0.824769
-0.859965
-0.896876
-0.932909
-0.966935
-1.00462
-1.07511
0.0168157
42.9995
61.666
61.9371
-0.94762
-0.88633
0.0169079
1.21132
1.08339
0.157871
-0.305407
-0.425166
-0.490588
-0.553659
-0.615335
-0.671083
-0.721787
-0.769371
-0.81492
-0.858471
-0.900257
-0.940409
-0.993883
-1.06321
15.8133
64.5372
63.6898
-0.505787
-0.431691
-0.064818
0.481898
0.484555
0.237186
0.00605849
-0.170654
-0.3005
-0.406429
-0.494501
-0.568286
-0.631805
-0.68836
-0.740182
-0.78811
-0.832506
-0.870005
-0.880214
-0.907853
5.95709
66.7404
42.2069
-0.151336
-0.0891658
0.142578
0.383955
0.427003
0.296308
0.115777
-0.0502528
-0.190185
-0.30683
-0.404097
-0.48599
-0.55643
-0.618581
-0.674736
-0.725831
-0.772409
-0.810531
-0.826079
-0.851031
2.07994
29.9338
31.1712
0.034292
0.0789618
0.220184
0.344785
0.358706
0.269219
0.13468
-0.00392828
-0.130784
-0.242103
-0.338315
-0.421543
-0.494465
-0.559519
-0.618763
-0.673381
-0.724599
-0.77105
-0.814772
-0.859352
2.18624
27.6719
18.0277
0.113074
0.135539
0.23023
0.286984
0.283385
0.217944
0.118053
0.00757348
-0.10052
-0.200452
-0.29045
-0.37091
-0.443239
-0.50916
-0.570527
-0.62913
-0.687215
-0.747851
-0.817169
-0.899432
1.61194
20.3684
13.3985
0.145683
0.157564
0.203561
0.230291
0.218858
0.168531
0.0927017
0.00483668
-0.0855645
-0.172906
-0.254598
-0.330006
-0.399648
-0.464724
-0.526951
-0.588753
-0.653402
-0.727336
-0.823134
-0.947858
-0.579849
13.6572
19.2529
0.152304
0.158294
0.178239
0.185797
0.169554
0.128471
0.0686568
-0.00230701
-0.0778383
-0.153343
-0.226218
-0.295385
-0.360844
-0.42342
-0.484644
-0.547132
-0.614635
-0.694095
-0.799341
-0.944298
-1.19733
10.4321
19.8046
0.145878
0.150098
0.155767
0.152056
0.13312
0.0978657
0.0489057
-0.00949639
-0.0729307
-0.137908
-0.202165
-0.264529
-0.324715
-0.383221
-0.441262
-0.501072
-0.56602
-0.641883
-0.739206
-0.875554
-1.10434
-1.26379
7.36307
0.13441
0.137075
0.135185
0.12571
0.105902
0.0749015
0.0337661
-0.0150529
-0.0686262
-0.124399
-0.180531
-0.235912
-0.290099
-0.343276
-0.39622
-0.450463
-0.508286
-0.573626
-0.651743
-0.75265
-0.900818
-1.10789
-1.20696
0.120758
0.121952
0.116465
0.104558
0.0851773
0.0577365
0.0226594
-0.0185674
-0.0639796
-0.111725
-0.160345
-0.208846
-0.25669
-0.303779
-0.350434
-0.397441
-0.445832
-0.497563
-0.553807
-0.617339
-0.689706
-0.787246
-0.856071
0.106404
0.10659
0.0996721
0.0872315
0.0690911
0.0448733
0.0147845
-0.0202063
-0.058747
-0.0994817
-0.141258
-0.183202
-0.224728
-0.265529
-0.305556
-0.345023
-0.384121
-0.423474
-0.462669
-0.502273
-0.538028
-0.574641
-0.603383
0.0923822
0.0919983
0.0847955
0.0728474
0.0563819
0.0351692
0.0093592
-0.0203655
-0.0530376
-0.0876428
-0.123263
-0.159136
-0.194667
-0.229431
-0.263163
-0.295741
-0.327006
-0.357
-0.385135
-0.411664
-0.433948
-0.451672
-0.463021
0.0792962
0.0786469
0.0717502
0.060799
0.0461838
0.027773
0.00571095
-0.0194859
-0.0470967
-0.0763437
-0.106486
-0.136864
-0.166908
-0.196152
-0.224237
-0.250889
-0.275838
-0.298916
-0.319649
-0.338007
-0.352779
-0.363005
-0.367758
0.0674285
0.0666973
0.0603888
0.0506418
0.0378901
0.0220638
0.0033114
-0.017954
-0.0411757
-0.0657438
-0.0910538
-0.116537
-0.141673
-0.166004
-0.189145
-0.21077
-0.23057
-0.248292
-0.263566
-0.276185
-0.285598
-0.29135
-0.293177
0.05686
0.0561458
0.0505395
0.0420429
0.0310755
0.0176043
0.00177924
-0.0160578
-0.0354653
-0.0559551
-0.07703
-0.0982037
-0.119014
-0.139038
-0.157903
-0.175279
-0.190864
-0.204397
-0.215613
-0.224349
-0.230409
-0.233762
-0.234493
0.0475572
0.0469091
0.0420336
0.0347507
0.025442
0.0140959
0.000857008
-0.0139876
-0.0300807
-0.0470257
-0.064411
-0.0818251
-0.0988671
-0.115161
-0.130369
-0.14419
-0.15636
-0.16666
-0.174923
-0.18108
-0.18511
-0.187133
-0.187317
0.0394318
0.0388737
0.0347159
0.0285692
0.0207757
0.0113328
0.000373041
-0.0118616
-0.0250787
-0.0389521
-0.053141
-0.0673011
-0.0810922
-0.0941912
-0.106306
-0.117178
-0.126593
-0.134386
-0.140456
-0.144794
-0.147456
-0.148613
-0.148483
0.0323712
0.0319185
0.0284425
0.0233355
0.016911
0.00916217
0.000204693
-0.00975707
-0.020482
-0.031701
-0.0431335
-0.0544952
-0.0655032
-0.0758868
-0.0854005
-0.0938326
-0.101014
-0.106825
-0.111208
-0.114192
-0.115874
-0.116455
-0.116173
0.0262505
0.0259196
0.0230735
0.0189035
0.0137059
0.00745595
0.000252417
-0.00773215
-0.0162996
-0.0252287
-0.0342914
-0.0432567
-0.0518936
-0.0599802
-0.067315
-0.0737278
-0.0790885
-0.0833139
-0.0863779
-0.0883312
-0.0892935
-0.0894678
-0.0890878
0.0209382
0.0207472
0.0184675
0.0151327
0.0110275
0.00609706
0.000427588
-0.00583692
-0.0125363
-0.0194913
-0.0265202
-0.0334385
-0.0400612
-0.0462104
-0.0517243
-0.0564684
-0.060345
-0.0632981
-0.0653225
-0.066479
-0.0668914
-0.0667558
-0.0663011
0.016292
0.0162561
0.0144744
0.0118808
0.00874327
0.00497116
0.000644222
-0.00412214
-0.00920259
-0.0144554
-0.0197396
-0.0249112
-0.0298257
-0.0343448
-0.038342
-0.0417131
-0.0443861
-0.0463241
-0.0475335
-0.0480769
-0.0480751
-0.0477193
-0.047243
0.0121792
0.0123092
0.0109531
0.00901831
0.006737
0.00398241
0.000833946
-0.00262406
-0.00629778
-0.0100798
-0.0138656
-0.0175469
-0.0210154
-0.0241682
-0.0269105
-0.0291643
-0.0308774
-0.0320262
-0.0326223
-0.032725
-0.0324473
-0.0319733
-0.0315428
0.0084132
0.00869984
0.00771849
0.00638008
0.00485608
0.00299771
0.000889295
-0.00142085
-0.00386625
-0.00637225
-0.00886766
-0.0112758
-0.0135218
-0.0155346
-0.0172481
-0.0186082
-0.0195792
-0.0201469
-0.0203238
-0.02016
-0.0197522
-0.0192651
-0.0189372
0.00503564
0.00543383
0.00474759
0.00395634
0.00311076
0.00205476
0.000871243
-0.000426543
-0.00179529
-0.00319275
-0.0045776
-0.00590278
-0.00712446
-0.00820129
-0.00909414
-0.00977036
-0.0102086
-0.0104006
-0.0103546
-0.0101023
-0.00970783
-0.00928767
-0.00902692
0.00116131
0.00154606
0.00133631
0.00109365
0.000837961
0.000508168
0.00016497
-0.000215092
-0.000607307
-0.00100083
-0.0013817
-0.00173289
-0.00203996
-0.00228985
-0.00247085
-0.00257272
-0.00258919
-0.00251943
-0.00236874
-0.00215084
-0.001892
-0.00164125
-0.00149215
794.787
801.006
926.956
952.988
716.923
760.038
883.744
707.002
666.424
746.657
619.188
303.809
749.291
366.291
189.353
241.313
130.647
112.933
145.436
287.446
102.804
123.915
136.983
205.268
105.902
120.901
131.605
165.425
139.639
131.046
43.3209
23.0971
312.775
78.1629
38.5951
28.1719
94.1934
59.6022
89.0042
72.7199
60.6123
65.2798
90.188
18.7099
67.4854
96.1571
89.171
-2.10452
98.493
97.8838
8.0348
-2.20951
64.9624
6.43269
-0.927069
-1.99611
-0.0615569
-0.230192
-0.722859
-1.55067
8.96999
-0.202219
-0.663899
-1.34224
53.3181
-0.48523
-0.875233
-1.40994
11.3411
-0.77778
-1.13327
-1.58801
-0.948972
-0.777321
-1.05783
-1.38367
-0.754018
-0.702472
-0.782064
-0.889495
-0.697202
-0.707982
-0.66163
-0.706682
-0.760237
-0.837508
-0.777694
-0.722625
-0.831785
-0.954458
-0.848917
-0.720798
-0.457327
-0.774404
-0.914168
-0.749958
7.60334
0.0449116
-0.937093
-0.710674
-1.11543
-0.968861
-0.777683
-0.607755
-0.842701
-0.750378
-0.624544
-0.510301
-0.606889
-0.56376
-0.492836
-0.425998
-0.465147
-0.442494
-0.401031
-0.358738
-0.366419
-0.352359
-0.32786
-0.301055
-0.291424
-0.282975
-0.268334
-0.251147
-0.232965
-0.227584
-0.218617
-0.207757
-0.18595
-0.182418
-0.176977
-0.170303
-0.147347
-0.145079
-0.141904
-0.138066
-0.11526
-0.113873
-0.11227
-0.110584
-0.0883524
-0.0876633
-0.0873557
-0.08757
-0.0657489
-0.0657408
-0.066688
-0.0687317
-0.0469222
-0.0476372
-0.0498468
-0.0536235
-0.0314948
-0.0329381
-0.0363528
-0.0417191
-0.0191109
-0.0211509
-0.0256986
-0.0326223
-0.00923545
-0.0117608
-0.0175903
-0.0261831
-0.00182086
-0.00496289
-0.0121171
-0.0223461
875.024
766.515
497.897
269.632
194.53
202.166
209.614
213.441
221.694
240.198
283.657
329.9
396.417
578.989
724.723
730.313
714.24
663.532
658.053
445.136
432.867
531.658
397.295
266.534
208.508
209.427
208.99
212.48
229.532
315.97
456.681
703.944
740.785
721.218
709.524
672.518
651.124
655.614
342.589
347.994
456.997
458.82
441.569
231.957
211.426
210.122
210.914
254.976
538.056
711.463
707.847
696
581.953
304.961
280.781
551.184
680.793
292.148
327.676
402.718
517.429
480.154
441.506
216.264
214.639
225.626
609.037
762.223
730.718
712.679
490.794
46.4891
23.0631
30.617
113.071
445.789
579.167
664.417
558.846
393.039
390.855
280.654
237.342
341.792
771.49
818.504
784.959
742.74
470.884
39.5628
7.24429
3.23036
4.34916
20.1462
72.341
548.897
746.268
826.493
405.626
271.066
252.182
351.885
839.409
849.598
816.559
649.776
277.172
37.5134
3.69328
0.41941
-1.99656
-1.15284
4.43374
62.506
98.1215
243.25
806.345
905.859
249.016
220.073
518.216
578.243
246.522
26.8838
5.24258
4.72729
5.37847
4.72483
1.94393
0.0942297
0.394055
1.67952
82.6487
16.5279
21.9231
555.62
883.314
297.389
155.347
230.337
10.6437
7.22228
6.05545
5.45301
5.96465
6.77585
6.90543
5.61791
3.87406
1.64918
0.0829927
86.3579
12.0537
6.68232
2.37646
863.55
586.34
78.92
7.68839
5.08554
5.25098
6.97982
6.84964
7.2056
7.61551
7.469
6.4243
4.36889
0.626127
0.108165
57.8915
17.5445
2.40346
2.33348
846.706
359.691
41.8578
2.80254
1.98638
3.16407
4.53604
4.95147
3.75199
2.46573
2.82859
3.0144
0.353173
0.106324
0.0931168
-0.193174
1.20212
-0.401531
1.0576
815.007
265.697
39.8717
-0.104388
-0.470542
0.366431
0.683679
-0.211685
-0.141921
0.229152
0.368673
0.338612
0.268216
0.102677
0.10618
0.0184938
-1.81935
-1.37178
54.1062
356.156
239.374
-4.17532
-1.24
-1.18579
-1.21036
-1.23314
-0.820363
-0.378086
-0.0174687
0.157072
0.201319
0.183686
0.124373
0.116083
0.0969013
-2.12514
0.728761
18.2854
21.0885
143.441
-2.32934
-1.02149
-0.809279
-0.754905
-0.780381
-0.595451
-0.290657
-0.0456229
0.0822947
0.137727
0.151863
0.139089
0.143227
0.145447
-0.0664285
3.07453
0.791821
3.41606
-5.34434
-1.44215
-0.464365
-0.238247
-0.22351
-0.301764
-0.250647
-0.103475
0.0124285
0.0798707
0.120075
0.148817
0.154481
0.183713
0.181261
-2.17892
-2.10987
-1.58979
-2.44409
-1.83291
-0.150921
0.0271999
0.148653
0.0853888
0.00246122
-0.026034
0.0165867
0.0553668
0.0817967
0.123345
0.15479
0.184894
0.330458
0.25188
-1.73057
-1.86877
-1.77648
-1.14825
0.0991901
0.630402
0.372291
0.335116
0.215505
0.120476
0.0666198
0.0590064
0.0736537
0.0932989
0.290378
0.370927
0.269756
0.358773
0.252734
-1.60635
-1.57277
-1.23791
-0.474775
0.527499
0.889378
0.564667
0.329272
0.219252
0.135501
0.085561
0.0694124
0.075582
0.0916063
1.11893
0.936219
0.241794
0.347438
0.170202
-1.6199
-1.45048
-1.11947
-0.470588
1.17351
1.60836
1.78161
0.559887
0.149673
0.0961799
0.0703872
0.0584208
0.0576637
0.371338
1.15704
0.561965
0.165792
0.326064
0.129958
-1.39615
-1.2582
-0.64538
0.0743624
1.03833
1.45341
1.65395
1.28678
0.0772646
0.037268
0.0294605
0.0239157
0.0253117
1.05085
1.17458
0.0964531
0.123779
0.295408
0.0883443
-0.904188
-0.562817
0.846119
1.05412
1.27671
1.49343
1.50718
0.421296
-0.0409835
-0.0282708
-0.0205497
-0.0254791
-0.0164718
1.15322
1.18022
0.0531832
0.0711533
0.213907
0.0432082
-0.484036
0.168103
0.317713
0.535515
0.727359
0.441677
-0.251279
-0.174507
-0.120354
-0.0849961
-0.0687903
-0.067272
-0.0596067
1.1282
1.0942
-0.00826097
-0.000776736
0.0049493
0.0039097
-0.712781
-0.669721
-0.611131
-0.537942
-0.455496
-0.368244
-0.283884
-0.214295
-0.163573
-0.122522
-0.105259
-0.10096
-0.0952406
1.0544
0.198724
-0.0614962
-0.036448
-0.0258648
-0.0165359
-0.667997
-0.613731
-0.557217
-0.494489
-0.425745
-0.354862
-0.287609
-0.230437
-0.186999
-0.145182
-0.128765
-0.125508
-0.11756
0.387358
0.0787639
-0.0870132
1.19622
1.17397
0.0401377
-0.633183
-0.565626
-0.508977
-0.453391
-0.396273
-0.339134
-0.285173
-0.23788
-0.193593
-0.158162
-0.140904
-0.138475
-0.126144
-0.0370305
0.127833
-0.085881
2.75084
2.88637
0.211756
-0.584126
-0.517304
-0.465125
-0.416402
-0.368317
-0.321138
-0.276356
-0.236127
-0.197435
-0.16195
-0.145111
-0.141468
-0.123739
-0.0681213
0.149244
-0.0551385
2.93342
3.01377
0.447286
-0.516684
-0.463558
-0.419869
-0.37883
-0.338932
-0.29989
-0.262416
-0.227999
-0.198079
-0.167612
-0.152665
-0.135202
-0.112925
-0.0555206
0.0968961
0.0118903
2.91998
3.18217
0.619756
-0.447649
-0.410737
-0.376293
-0.342608
-0.309727
-0.277379
-0.245849
-0.216099
-0.189132
-0.165598
-0.145129
-0.123757
-0.0958566
0.0425371
-0.0404065
0.867402
3.28572
3.36056
0.706495
-0.386589
-0.360588
-0.333943
-0.306914
-0.280176
-0.253581
-0.227195
-0.201605
-0.177521
-0.155359
-0.134662
-0.111919
-0.080731
0.0656397
-0.0153645
1.64551
3.40898
3.53459
0.684077
-0.33184
-0.312992
-0.292962
-0.271987
-0.25074
-0.229269
-0.207608
-0.186144
-0.165417
-0.145678
-0.126226
-0.10388
-0.0736985
-0.0303153
0.00645091
0.608717
3.48372
3.10385
0.576805
-0.282364
-0.268735
-0.254042
-0.238216
-0.221761
-0.204892
-0.187776
-0.170795
-0.154472
-0.139024
-0.123437
-0.104317
-0.0749315
-0.0355539
0.0146853
0.0711151
3.02207
1.98101
0.610038
-0.238152
-0.228387
-0.217737
-0.206035
-0.193647
-0.180922
-0.168284
-0.156288
-0.145615
-0.136801
-0.128759
-0.0804102
0.0295848
0.00757246
-0.000573772
0.0659075
2.75624
2.38288
0.627186
-0.198933
-0.192022
-0.184384
-0.17592
-0.166929
-0.157939
-0.149722
-0.143048
-0.139059
-0.13931
-0.14185
0.055705
0.0716676
0.0591291
-0.0341885
0.0387596
2.55322
3.02582
0.613518
-0.164463
-0.159672
-0.154368
-0.148522
-0.142416
-0.136845
-0.132892
-0.131512
-0.135002
-0.146795
-0.0260052
0.0218088
0.01393
-0.0396303
-0.0858547
0.584347
3.13882
2.93796
0.328089
-0.134507
-0.131481
-0.128192
-0.124617
-0.121058
-0.11856
-0.118274
-0.121279
-0.132194
-0.156467
-0.0341571
-0.026026
-0.054043
-0.147789
-0.149822
1.82603
3.17838
1.66069
0.152641
-0.10903
-0.10769
-0.106302
-0.104781
-0.103439
-0.103354
-0.105279
-0.111288
-0.126337
-0.158531
-0.184627
-0.0531308
-0.0956859
-0.221146
-0.189247
1.24494
3.21158
0.579277
0.0741304
-0.0879722
-0.0883147
-0.088707
-0.088991
-0.0894188
-0.0908273
-0.0936439
-0.0999045
-0.113957
-0.143764
-0.185054
-0.0306445
-0.0781894
-0.225152
0.00125511
0.872758
0.0415488
-0.00816185
0.0126113
-0.0710174
-0.0729297
-0.0748832
-0.0766862
-0.0784746
-0.0807366
-0.0839056
-0.0887518
-0.0980381
-0.118288
-0.148614
-0.0961846
-0.0336068
-0.146796
-0.147399
-0.106742
-0.0636009
-0.0327796
-0.0190107
-0.0575985
-0.0608792
-0.0641854
-0.067328
-0.0703358
-0.0734522
-0.0768094
-0.08056
-0.0857547
-0.0957554
-0.113274
-0.13642
-0.149312
-0.13921
-0.11142
-0.0826957
-0.058592
-0.0416059
-0.0335941
-0.0472083
-0.051738
-0.0563354
-0.0608105
-0.0651058
-0.0692804
-0.0732701
-0.0768977
-0.0802566
-0.0843958
-0.0898891
-0.0954146
-0.0963524
-0.0895767
-0.0777545
-0.0650976
-0.0529614
-0.0435663
-0.0385699
-0.0396224
-0.0454283
-0.0513765
-0.0572514
-0.0628937
-0.0681804
-0.0728745
-0.076617
-0.0791516
-0.0805682
-0.0806997
-0.0790373
-0.0750382
-0.0692108
-0.0625416
-0.0547865
-0.0474052
-0.0417321
-0.0381016
-0.0347784
-0.0419301
-0.049315
-0.0566897
-0.0637956
-0.0703231
-0.075831
-0.0797611
-0.0816157
-0.0810544
-0.077948
-0.0726337
-0.0660611
-0.0591277
-0.0527194
-0.0466298
-0.0415333
-0.0378209
-0.0349814
-0.0325749
-0.0411525
-0.050124
-0.0592476
-0.0682035
-0.0765098
-0.0834678
-0.0882203
-0.0899215
-0.0877643
-0.0815337
-0.0719177
-0.0610624
-0.0513502
-0.0437482
-0.0382223
-0.0343785
-0.0319719
-0.0298647
)
;

boundaryField
{
    leftWall
    {
        type            fixedFluxPressure;
        gradient        uniform 0;
        value           nonuniform List<scalar> 
50
(
1325.48
1330.42
1334.75
1338.28
1341.71
1346.45
1353.82
1365.25
1390.4
1448.51
1499.92
1627.28
1153.52
391.559
35.186
6.6341
0.251389
-0.468508
0.166614
0.778663
1.10481
0.100727
-0.56129
-1.10335
-1.23948
-0.94762
-0.505787
-0.151336
0.034292
0.113074
0.145683
0.152304
0.145878
0.13441
0.120758
0.106404
0.0923822
0.0792962
0.0674285
0.05686
0.0475572
0.0394318
0.0323712
0.0262505
0.0209382
0.016292
0.0121792
0.0084132
0.00503564
0.00116131
)
;
    }
    rightWall
    {
        type            fixedFluxPressure;
        gradient        uniform 0;
        value           nonuniform List<scalar> 
50
(
948.647
902.61
853.421
831.027
829.035
813.465
776.674
721.308
658.053
655.614
680.793
445.789
72.341
62.506
82.6487
86.3579
57.8915
-0.193174
0.0184938
0.0969013
0.145447
0.181261
0.25188
0.252734
0.170202
0.129958
0.0883443
0.0432082
0.0039097
-0.0165359
0.0401377
0.211756
0.447286
0.619756
0.706495
0.684077
0.576805
0.610038
0.627186
0.613518
0.328089
0.152641
0.0741304
0.0126113
-0.0190107
-0.0335941
-0.0385699
-0.0381016
-0.0349814
-0.0298647
)
;
    }
    lowerWall
    {
        type            fixedFluxPressure;
        gradient        uniform 0;
        value           nonuniform List<scalar> 
62
(
1325.48
1306.91
1273.52
1230.33
1183.33
1135.21
1088.07
1044.29
1006.41
976.024
953.76
939.232
930.337
922.647
916.057
911.944
910.011
911.433
916.677
919.327
917.102
910.911
904.677
904.677
903.245
900.137
894.995
888.906
884.266
880.158
877.182
794.787
801.006
926.956
952.988
723.205
720.137
734.368
758.722
771.254
815.079
850.883
929.72
723.205
693.465
668.646
606.933
565.322
553.355
564.257
592.813
633.105
667.375
680.893
680.648
645.42
610.353
547.784
430.695
483.583
740.112
948.647
)
;
    }
    atmosphere
    {
        type            totalPressure;
        rho             rho;
        psi             none;
        gamma           1;
        p0              uniform 0;
        value           nonuniform List<scalar> 
46
(
0
0
0
0
0
0
0
0
0
0
0
0
0
0
0
0
0
0
0
0
0
0
0
-0.000113576
-0.00327598
-0.0107157
-0.0216144
-0.0326685
-0.0420129
-0.051895
-0.0621072
-0.0723353
-0.0820193
-0.0902871
-0.0960669
-0.098261
-0.0955846
-0.0873919
-0.0742181
-0.059238
-0.0468233
-0.0383549
-0.0329824
-0.0297893
-0.0282483
-0.0263316
)
;
    }
    defaultFaces
    {
        type            empty;
    }
}


// ************************************************************************* //
