/*--------------------------------*- C++ -*----------------------------------*\
| =========                 |                                                 |
| \\      /  F ield         | OpenFOAM: The Open Source CFD Toolbox           |
|  \\    /   O peration     | Version:  2206                                  |
|   \\  /    A nd           | Website:  www.openfoam.com                      |
|    \\/     M anipulation  |                                                 |
\*---------------------------------------------------------------------------*/
FoamFile
{
    version     2.0;
    format      ascii;
    arch        "LSB;label=32;scalar=64";
    class       surfaceScalarField;
    location    "0.875";
    object      phi;
}
// * * * * * * * * * * * * * * * * * * * * * * * * * * * * * * * * * * * * * //

dimensions      [0 3 -1 0 0 0 0];

oriented        oriented;

internalField   nonuniform List<scalar> 
4432
(
-2.62811e-06
2.62811e-06
-7.426e-06
4.79791e-06
-1.38344e-05
6.40841e-06
-1.95443e-05
5.70987e-06
-2.16404e-05
2.09617e-06
-2.05779e-05
-1.0626e-06
-1.90853e-05
-1.49256e-06
-1.84436e-05
-6.4174e-07
-1.84428e-05
-7.2125e-10
-1.89352e-05
4.92409e-07
-1.96482e-05
7.12937e-07
-1.99083e-05
2.60104e-07
-1.91192e-05
-7.89058e-07
-1.84417e-05
-6.77516e-07
-2.08131e-05
2.37142e-06
-2.65191e-05
5.70594e-06
-3.05414e-05
4.0223e-06
-2.77385e-05
-2.80284e-06
-2.04847e-05
-7.2538e-06
-1.29312e-05
-7.55358e-06
-6.13971e-06
-6.79145e-06
-1.27729e-06
-4.86242e-06
-1.2773e-06
-8.16101e-06
1.07891e-05
-1.61944e-05
1.28313e-05
-2.23438e-05
1.25579e-05
-2.47586e-05
8.12456e-06
-2.36904e-05
1.02797e-06
-2.13596e-05
-3.39334e-06
-1.95609e-05
-3.2913e-06
-1.88508e-05
-1.3518e-06
-1.9029e-05
1.77422e-07
-1.96607e-05
1.1242e-06
-2.06324e-05
1.68456e-06
-2.21492e-05
1.77692e-06
-2.45703e-05
1.63204e-06
-2.78274e-05
2.57963e-06
-3.06656e-05
5.20963e-06
-3.02792e-05
5.31946e-06
-2.49695e-05
-1.28731e-06
-1.77465e-05
-1.00258e-05
-1.14838e-05
-1.35165e-05
-6.04486e-06
-1.29925e-05
-9.45966e-07
-1.18903e-05
1.45935e-06
-7.26775e-06
1.82036e-07
-9.7478e-06
2.05369e-05
-1.77693e-05
2.08528e-05
-2.31025e-05
1.78911e-05
-2.53924e-05
1.04145e-05
-2.47965e-05
4.32053e-07
-2.25034e-05
-5.68651e-06
-2.03095e-05
-5.48515e-06
-1.91407e-05
-2.52062e-06
-1.86789e-05
-2.84404e-07
-1.85168e-05
9.62134e-07
-1.85858e-05
1.75357e-06
-1.92013e-05
2.39249e-06
-2.07231e-05
3.15382e-06
-2.25373e-05
4.39382e-06
-2.24254e-05
5.09771e-06
-1.8679e-05
1.57306e-06
-1.30315e-05
-6.93479e-06
-8.69814e-06
-1.43592e-05
-5.60725e-06
-1.66074e-05
-1.97753e-06
-1.66223e-05
2.26256e-06
-1.61305e-05
3.95251e-06
-8.95771e-06
4.13455e-06
-9.35134e-06
2.98883e-05
-1.68979e-05
2.83994e-05
-2.22997e-05
2.32929e-05
-2.5138e-05
1.32528e-05
-2.49639e-05
2.57961e-07
-2.30019e-05
-7.64849e-06
-2.11437e-05
-7.34341e-06
-2.00212e-05
-3.64311e-06
-1.94394e-05
-8.66198e-07
-1.90724e-05
5.95162e-07
-1.86649e-05
1.34606e-06
-1.81456e-05
1.87324e-06
-1.74804e-05
2.4886e-06
-1.61598e-05
3.07322e-06
-1.31888e-05
2.12674e-06
-9.23606e-06
-2.37972e-06
-6.43722e-06
-9.73363e-06
-5.59411e-06
-1.52023e-05
-4.88725e-06
-1.73143e-05
-2.31198e-06
-1.91975e-05
1.6159e-06
-2.00583e-05
3.94854e-06
-1.12904e-05
8.08309e-06
-8.27789e-06
3.81661e-05
-1.52053e-05
3.53268e-05
-2.03804e-05
2.8468e-05
-2.31109e-05
1.59832e-05
-2.33041e-05
4.51193e-07
-2.23151e-05
-8.63749e-06
-2.15163e-05
-8.14221e-06
-2.09073e-05
-4.25205e-06
-2.04039e-05
-1.36959e-06
-2.00477e-05
2.38882e-07
-1.9643e-05
9.41317e-07
-1.89042e-05
1.13447e-06
-1.74768e-05
1.06125e-06
-1.48853e-05
4.81648e-07
-1.1182e-05
-1.5765e-06
-7.71432e-06
-5.84742e-06
-6.28961e-06
-1.11583e-05
-6.4631e-06
-1.50288e-05
-6.17984e-06
-1.75975e-05
-4.33823e-06
-2.10391e-05
-1.47448e-06
-2.29221e-05
1.84053e-06
-1.46054e-05
9.92361e-06
-6.90999e-06
4.50761e-05
-1.28729e-05
4.12897e-05
-1.72028e-05
3.27979e-05
-1.94099e-05
1.81904e-05
-2.01032e-05
1.14445e-06
-2.06409e-05
-8.09979e-06
-2.14632e-05
-7.31991e-06
-2.16715e-05
-4.04382e-06
-2.132e-05
-1.72108e-06
-2.08981e-05
-1.82967e-07
-2.0451e-05
4.9415e-07
-1.97782e-05
4.61746e-07
-1.85361e-05
-1.80847e-07
-1.62407e-05
-1.81374e-06
-1.28901e-05
-4.92718e-06
-9.63699e-06
-9.10048e-06
-7.84215e-06
-1.29532e-05
-7.26159e-06
-1.56094e-05
-6.72823e-06
-1.81309e-05
-6.09467e-06
-2.16727e-05
-4.919e-06
-2.40978e-05
-1.26637e-06
-1.8258e-05
8.65724e-06
-5.34616e-06
5.04223e-05
-1.02535e-05
4.61971e-05
-1.35657e-05
3.61101e-05
-1.49089e-05
1.95336e-05
-1.58228e-05
2.05831e-06
-1.83768e-05
-5.54584e-06
-2.12663e-05
-4.4304e-06
-2.23107e-05
-2.99933e-06
-2.212e-05
-1.91186e-06
-2.15795e-05
-7.23393e-07
-2.09614e-05
-1.23947e-07
-2.02264e-05
-2.73223e-07
-1.9118e-05
-1.28935e-06
-1.70387e-05
-3.89299e-06
-1.36682e-05
-8.29768e-06
-9.96598e-06
-1.28027e-05
-7.47738e-06
-1.54418e-05
-6.47148e-06
-1.66153e-05
-6.13808e-06
-1.84643e-05
-6.3524e-06
-2.14584e-05
-6.54995e-06
-2.39002e-05
-4.90089e-06
-1.99071e-05
3.75636e-06
-3.90362e-06
5.43259e-05
-7.53271e-06
4.98261e-05
-8.735e-06
3.73124e-05
-7.72666e-06
1.85252e-05
-9.36667e-06
3.69833e-06
-1.56466e-05
7.34078e-07
-2.08464e-05
7.69373e-07
-2.23382e-05
-1.50751e-06
-2.19964e-05
-2.25359e-06
-2.11516e-05
-1.56826e-06
-2.02396e-05
-1.03594e-06
-1.93867e-05
-1.12607e-06
-1.83518e-05
-2.32431e-06
-1.62233e-05
-6.02146e-06
-1.23527e-05
-1.21682e-05
-8.00964e-06
-1.71458e-05
-5.37172e-06
-1.80797e-05
-4.89084e-06
-1.70961e-05
-5.05098e-06
-1.83042e-05
-5.01997e-06
-2.14894e-05
-4.70542e-06
-2.42148e-05
-4.32634e-06
-2.02861e-05
-5.6999e-07
1.87592e-05
-1.87592e-05
1.01097e-05
8.64954e-06
7.10937e-06
3.00033e-06
2.36871e-05
-1.65777e-05
4.18585e-05
-1.81714e-05
5.26205e-05
-1.0762e-05
5.1228e-05
1.39251e-06
3.33621e-05
1.78659e-05
6.94104e-06
2.64211e-05
-1.26955e-05
1.96366e-05
-1.53667e-05
2.67121e-06
-3.78101e-06
-1.15857e-05
-6.71144e-07
-3.10988e-06
-2.4611e-05
2.39399e-05
-6.50189e-05
4.04078e-05
-9.45439e-05
2.9525e-05
-9.03419e-05
-4.20202e-06
-4.83837e-05
-4.19582e-05
-4.83837e-05
4.31989e-06
-2.30791e-05
-3.42005e-06
1.63895e-05
1.95085e-05
-1.99282e-05
5.18899e-05
-4.89591e-05
6.63628e-05
-3.26444e-05
6.799e-05
-1.23891e-05
6.56054e-05
3.77717e-06
5.83115e-05
2.51597e-05
3.82072e-05
4.65254e-05
1.31683e-05
4.46755e-05
-1.001e-05
2.58495e-05
-2.4661e-05
3.06524e-06
-3.67205e-05
8.94965e-06
-6.59333e-05
5.31527e-05
-9.30764e-05
6.75509e-05
-9.58122e-05
3.22609e-05
-7.56235e-05
-2.43907e-05
-3.68999e-05
-8.06819e-05
-8.52836e-05
-7.41742e-06
-1.56617e-05
1.16803e-05
-2.70823e-06
4.93542e-05
-5.76022e-05
6.67246e-05
-6.63294e-05
6.88732e-05
-3.47929e-05
6.22543e-05
-5.77023e-06
5.64776e-05
9.55387e-06
5.49087e-05
2.67285e-05
5.01446e-05
5.12896e-05
3.62925e-05
5.85276e-05
1.18823e-05
5.02598e-05
-1.74301e-05
3.23776e-05
-3.88028e-05
3.03224e-05
-5.97249e-05
7.40747e-05
-6.664e-05
7.4466e-05
-5.53507e-05
2.09716e-05
-3.57198e-05
-4.40216e-05
-1.50336e-05
-0.000101368
-0.000100317
-1.11164e-05
-4.54525e-06
2.05865e-05
-3.44111e-05
5.30372e-05
-9.00529e-05
6.52722e-05
-7.85644e-05
6.39208e-05
-3.34415e-05
5.12842e-05
6.86643e-06
4.33831e-05
1.7455e-05
4.29142e-05
2.71974e-05
4.55615e-05
4.86424e-05
4.37981e-05
6.02909e-05
2.93532e-05
6.47047e-05
9.37893e-07
6.07929e-05
-2.09373e-05
5.21976e-05
-2.64326e-05
7.957e-05
-2.23746e-05
7.04081e-05
-7.20773e-06
5.80469e-06
6.88949e-06
-5.81188e-05
1.05002e-05
-0.000104979
-8.9817e-05
1.01702e-06
-5.56226e-06
3.45457e-05
-6.79398e-05
4.78176e-05
-0.000103325
5.55763e-05
-8.63231e-05
5.36527e-05
-3.1518e-05
3.6982e-05
2.35372e-05
2.95704e-05
2.48666e-05
2.96787e-05
2.70891e-05
3.26349e-05
4.56861e-05
3.70857e-05
5.58402e-05
3.43425e-05
6.74478e-05
1.80309e-05
7.71045e-05
-2.76805e-07
7.05053e-05
4.08267e-06
7.52105e-05
1.97917e-05
5.4699e-05
3.19749e-05
-6.37844e-06
3.77451e-05
-6.3889e-05
2.68175e-05
-9.40512e-05
-6.29995e-05
5.42503e-06
-1.09873e-05
3.22816e-05
-9.47964e-05
3.91279e-05
-0.000110171
4.81053e-05
-9.53005e-05
4.41868e-05
-2.75995e-05
2.1474e-05
4.625e-05
1.43284e-05
3.20121e-05
1.4369e-05
2.70485e-05
1.70151e-05
4.30401e-05
2.15454e-05
5.13098e-05
2.60006e-05
6.29926e-05
2.62563e-05
7.68487e-05
1.69733e-05
7.97883e-05
2.28822e-05
6.93016e-05
4.00821e-05
3.74991e-05
5.06585e-05
-1.69549e-05
5.15996e-05
-6.48301e-05
3.19523e-05
-7.44039e-05
-3.10472e-05
-3.01444e-06
-7.97284e-06
9.95004e-06
-0.000107761
2.62404e-05
-0.000126461
2.88057e-05
-9.78658e-05
2.2568e-05
-2.13618e-05
9.38865e-06
5.94293e-05
5.22414e-06
3.61766e-05
-4.33892e-06
3.66116e-05
-1.07838e-05
4.9485e-05
-9.15309e-06
4.96791e-05
5.02076e-06
4.88188e-05
2.16285e-05
6.0241e-05
2.68059e-05
7.46109e-05
3.56183e-05
6.04892e-05
4.8785e-05
2.43325e-05
5.44728e-05
-2.26427e-05
4.72727e-05
-5.763e-05
2.61533e-05
-5.32845e-05
-4.89379e-06
-1.56512e-05
7.6784e-06
-1.74032e-05
-0.000106009
-2.42842e-06
-0.000141436
-3.20445e-06
-9.70898e-05
-1.14442e-05
-1.31222e-05
-8.52229e-06
5.65074e-05
-2.80747e-05
5.5729e-05
-5.31808e-05
6.17177e-05
-6.80001e-05
6.43043e-05
-6.33408e-05
4.50198e-05
-3.4716e-05
2.0194e-05
-3.63875e-07
2.58889e-05
2.14679e-05
5.27792e-05
3.45849e-05
4.73721e-05
4.41218e-05
1.47956e-05
4.11679e-05
-1.96887e-05
2.62317e-05
-4.26939e-05
1.21208e-05
-3.91736e-05
7.22694e-06
3.35096e-07
5.39908e-05
-2.49025e-06
5.26515e-05
-4.89839e-06
3.97206e-05
-1.40769e-05
2.77037e-05
-3.06366e-05
2.0258e-05
-4.44098e-05
1.45073e-05
-4.80193e-05
4.37884e-06
-4.63795e-05
-3.14725e-06
-4.37023e-05
-4.93082e-06
-4.13867e-05
-3.88389e-06
-3.96681e-05
-2.75459e-06
-3.85944e-05
-2.19967e-06
-3.79889e-05
-2.92985e-06
-3.52586e-05
-8.75172e-06
-2.71838e-05
-2.0243e-05
-1.61097e-05
-2.82199e-05
-9.2973e-06
-2.48922e-05
-9.6586e-06
-1.67349e-05
-1.13348e-05
-1.6628e-05
-8.50395e-06
-2.43202e-05
1.49533e-06
-3.4214e-05
1.6416e-05
-3.52068e-05
-2.18914e-05
3.77374e-05
2.78759e-06
5.12032e-05
-5.23171e-06
6.06708e-05
-1.90417e-05
5.35306e-05
-3.72904e-05
4.59524e-05
-5.22483e-05
3.52159e-05
-5.94323e-05
2.16913e-05
-6.33163e-05
8.26286e-06
-6.41903e-05
-2.27321e-06
-6.31267e-05
-5.99448e-06
-6.26671e-05
-4.34343e-06
-6.32272e-05
-2.19455e-06
-6.63568e-05
9.29934e-07
-7.41886e-05
4.90196e-06
-8.0663e-05
-2.27729e-06
-7.22143e-05
-2.86917e-05
-5.02337e-05
-5.02005e-05
-3.16333e-05
-4.34926e-05
-2.60022e-05
-2.23659e-05
-2.49873e-05
-1.76429e-05
-1.64928e-05
-3.28148e-05
7.95175e-07
-5.1502e-05
1.61973e-05
-5.06089e-05
-3.20032e-05
2.63091e-05
-4.21579e-06
5.5419e-05
-3.44571e-05
9.09121e-05
-7.14819e-05
9.05554e-05
-0.000104038
7.85088e-05
-0.000128326
5.95034e-05
-0.000143785
3.71508e-05
-0.000151566
1.60437e-05
-0.000157144
3.30509e-06
-0.000158644
-4.49492e-06
-0.000159527
-3.46066e-06
-0.000171337
9.61609e-06
-0.000197183
2.67755e-05
-0.000229352
3.70714e-05
-0.000230512
-1.11742e-06
-0.000193098
-6.61064e-05
-0.000146409
-9.68889e-05
-0.000109743
-8.01585e-05
-8.65954e-05
-4.55138e-05
-7.08206e-05
-3.34177e-05
-5.77576e-05
-4.58777e-05
-5.41151e-05
-5.51446e-05
-6.5046e-05
-3.9678e-05
-1.16674e-05
-8.53818e-05
-0.00014103
0.000196449
-0.000247162
0.000197043
-0.000297512
0.000140906
-0.00031068
9.16766e-05
-0.000306826
5.56494e-05
-0.000296013
2.63383e-05
-0.000281588
1.61828e-06
-0.000270097
-8.18581e-06
-0.00026137
-1.32219e-05
-0.00025953
-5.30054e-06
-0.000273452
2.3538e-05
-0.000305372
5.8696e-05
-0.000314368
4.60673e-05
-0.00028057
-3.49154e-05
-0.000228122
-0.000118555
-0.000193926
-0.000131084
-0.000170301
-0.000103784
-0.000150205
-6.56101e-05
-0.000140716
-4.29064e-05
-0.000148559
-3.80351e-05
-0.000177801
-2.59023e-05
-0.000213221
-4.25796e-06
1.35554e-05
-0.000238444
-0.000227943
0.000424393
-0.00033854
0.000307639
-0.000366841
0.000169208
-0.000342241
6.70759e-05
-0.000299596
1.30047e-05
-0.000270329
-2.92861e-06
-0.00027187
3.1593e-06
-0.000281413
1.35682e-06
-0.000278381
-1.62538e-05
-0.000262808
-2.08728e-05
-0.000243767
4.4966e-06
-0.000232723
4.76517e-05
-0.000233006
4.63507e-05
-0.000236457
-3.1465e-05
-0.000224035
-0.000130976
-0.000214811
-0.000140308
-0.000206562
-0.000112033
-0.000201009
-7.11626e-05
-0.00020787
-3.60456e-05
-0.000235794
-1.01111e-05
-0.000271172
9.47496e-06
-0.000294187
1.87578e-05
2.67505e-05
-0.000307382
-0.000249064
0.000673457
-0.000279379
0.000337955
-0.000294321
0.000184149
-0.00027316
4.5915e-05
-0.0002533
-6.85551e-06
-0.000245938
-1.02904e-05
-0.000245623
2.84433e-06
-0.000247198
2.93175e-06
-0.000247773
-1.56787e-05
-0.000240814
-2.78315e-05
-0.000234634
-1.68363e-06
-0.000224216
3.72331e-05
-0.000226256
4.83913e-05
-0.000243311
-1.44097e-05
-0.000247604
-0.000126683
-0.000242199
-0.000145714
-0.000238155
-0.000116076
-0.000238339
-7.09791e-05
-0.000248459
-2.59258e-05
-0.000274095
1.55253e-05
-0.000300675
3.6055e-05
-0.000319984
3.80668e-05
3.02501e-05
-0.000323484
-0.000150742
0.000824199
-0.000176636
0.000363848
-0.000204127
0.000211641
-0.000226216
6.80042e-05
-0.000248153
1.50809e-05
-0.000258788
3.44539e-07
-0.000249988
-5.95552e-06
-0.000237107
-9.94977e-06
-0.000234789
-1.79962e-05
-0.00024312
-1.95e-05
-0.000251529
6.72459e-06
-0.00024668
3.23841e-05
-0.000246861
4.85727e-05
-0.000254416
-6.85563e-06
-0.000265264
-0.000115835
-0.000264786
-0.000146192
-0.000260941
-0.000119921
-0.000254469
-7.74517e-05
-0.000256415
-2.39801e-05
-0.000271542
3.06531e-05
-0.000275765
4.02777e-05
-0.000270729
3.30312e-05
9.08547e-06
-0.000249565
-7.70005e-05
0.0009012
-0.000113968
0.000400816
-0.000151593
0.000249266
-0.000180408
9.68194e-05
-0.000199495
3.41683e-05
-0.00020504
5.88901e-06
-0.000207966
-3.02998e-06
-0.000215882
-2.03352e-06
-0.000231486
-2.39285e-06
-0.000248934
-2.05118e-06
-0.000249598
7.3881e-06
-0.000247966
3.07528e-05
-0.00024257
4.31767e-05
-0.000247706
-1.72048e-06
-0.000272209
-9.13317e-05
-0.000277899
-0.000140502
-0.000266396
-0.000131424
-0.000247956
-9.58916e-05
-0.000229292
-4.26442e-05
-0.000207068
8.42933e-06
-0.000188389
2.15986e-05
-0.000170185
1.48274e-05
-1.57218e-05
-0.000145378
-3.56513e-05
0.000936851
-0.000105408
0.000470572
-0.000132926
0.000276784
-0.000174309
0.000138202
-0.000191215
5.10747e-05
-0.000188632
3.30512e-06
-0.000176807
-1.4855e-05
-0.000168898
-9.94187e-06
-0.000173315
2.02346e-06
-0.000187781
1.24154e-05
-0.000202997
2.26043e-05
-0.000207653
3.54077e-05
-0.000205746
4.12703e-05
-0.000220035
1.25682e-05
-0.000253754
-5.76125e-05
-0.000271307
-0.00012295
-0.00026652
-0.00013621
-0.000244412
-0.000118001
-0.000208803
-7.82525e-05
-0.000165204
-3.51694e-05
-0.000136914
-6.69155e-06
-0.000114603
-7.48446e-06
-3.88008e-05
-9.15235e-05
1.31089e-06
0.00093554
-0.000123607
0.00059549
-0.000159584
0.000312761
-0.000197954
0.000176572
-0.000212936
6.60566e-05
-0.000203055
-6.57581e-06
-0.000178613
-3.92975e-05
-0.000152828
-3.57265e-05
-0.000135578
-1.52263e-05
-0.00013085
7.68638e-06
-0.000138089
2.98441e-05
-0.00014827
4.55879e-05
-0.000157155
5.01554e-05
-0.000177479
3.28921e-05
-0.00021688
-1.82112e-05
-0.000251187
-8.86426e-05
-0.000255136
-0.000132262
-0.000247633
-0.000125503
-0.000225125
-0.000100761
-0.000180903
-7.93911e-05
-0.000136374
-5.12209e-05
-9.60441e-05
-4.78144e-05
-8.40706e-05
-5.07743e-05
5.78299e-05
0.00087771
-0.000100395
0.000753716
-0.000186595
0.000398961
-0.00022167
0.000211647
-0.000227246
7.16322e-05
-0.000209452
-2.43694e-05
-0.000177112
-7.16374e-05
-0.000143154
-6.96852e-05
-0.000117109
-4.12705e-05
-0.000100177
-9.24571e-06
-9.19338e-05
2.16008e-05
-9.38047e-05
4.74589e-05
-0.00010533
6.16809e-05
-0.000129291
5.68528e-05
-0.00016825
2.0748e-05
-0.000211226
-4.56671e-05
-0.000239819
-0.000103669
-0.000245811
-0.000119511
-0.000224834
-0.000121738
-0.000180314
-0.000123911
-0.000111395
-0.00012014
-4.67727e-05
-0.000112437
-0.000114344
-1.64996e-05
0.000122493
0.000755217
1.80723e-05
0.000858136
-0.000128666
0.000545699
-0.000194974
0.000277955
-0.000208239
8.48968e-05
-0.000190497
-4.21111e-05
-0.000156757
-0.000105378
-0.000120822
-0.00010562
-9.34684e-05
-6.86244e-05
-7.53104e-05
-2.74037e-05
-6.17837e-05
8.07392e-06
-5.30764e-05
3.87518e-05
-5.33224e-05
6.19271e-05
-6.8293e-05
7.18234e-05
-0.000102047
5.45019e-05
-0.000150773
3.05869e-06
-0.000198794
-5.56486e-05
-0.000224674
-9.363e-05
-0.000226752
-0.00011966
-0.0001999
-0.000150763
-0.00014489
-0.00017515
-9.21973e-05
-0.00016513
-0.000149813
-5.67282e-05
0.000187702
0.000567515
0.000190441
0.000855397
5.14983e-05
0.000684642
-6.09349e-05
0.000390388
-0.000112991
0.000136952
-0.000120537
-3.45646e-05
-0.000103045
-0.00012287
-7.80804e-05
-0.000130584
-5.77818e-05
-8.89233e-05
-4.55081e-05
-3.96775e-05
-3.60387e-05
-1.3955e-06
-2.57523e-05
2.84655e-05
-1.64367e-05
5.26117e-05
-1.51947e-05
7.05812e-05
-3.2445e-05
7.17518e-05
-7.24793e-05
4.30929e-05
-0.000125252
-2.87593e-06
-0.000166241
-5.26401e-05
-0.000183407
-0.000102495
-0.000172919
-0.000161251
-0.000142593
-0.000205475
-0.000106542
-0.000201181
-0.00017926
-7.70949e-05
0.000211355
0.00035616
0.000312528
0.000754224
0.000261369
0.000735801
0.000151901
0.000499857
5.74407e-05
0.000231412
3.53217e-06
1.93442e-05
-1.31437e-05
-0.000106194
-1.41428e-05
-0.000129585
-1.22118e-05
-9.08545e-05
-1.04551e-05
-4.14345e-05
-8.58411e-06
-3.26631e-06
-3.95379e-06
2.38355e-05
4.40271e-06
4.42553e-05
1.31111e-05
6.18727e-05
1.16345e-05
7.32283e-05
-1.10011e-05
6.57286e-05
-5.04567e-05
3.65798e-05
-9.50586e-05
-8.0381e-06
-0.000128697
-6.88558e-05
-0.000130483
-0.000159465
-0.000119316
-0.000216641
-0.000104677
-0.000215821
-0.000194076
-8.98615e-05
0.000176663
0.000179497
0.000331085
0.000599802
0.000370003
0.000696883
0.000319564
0.000550296
0.000235004
0.000315972
0.000155081
9.92684e-05
9.75784e-05
-4.86924e-05
6.31687e-05
-9.51751e-05
4.27697e-05
-7.04557e-05
2.91373e-05
-2.78021e-05
2.074e-05
5.13121e-06
1.73832e-05
2.71924e-05
1.86544e-05
4.2984e-05
2.41143e-05
5.64127e-05
2.84654e-05
6.88773e-05
2.11915e-05
7.30025e-05
-3.96802e-06
6.17395e-05
-4.27155e-05
3.07093e-05
-8.21418e-05
-2.94296e-05
-9.31217e-05
-0.000148485
-0.000103151
-0.000206612
-0.000105289
-0.000213683
-0.000199239
-0.000100126
0.00010743
7.2067e-05
0.00026469
0.000442542
0.000358451
0.000603122
0.000367958
0.000540788
0.000322911
0.000361019
0.000256336
0.000165843
0.000187745
1.98986e-05
0.000129788
-3.72177e-05
8.91128e-05
-2.97808e-05
6.31651e-05
-1.85423e-06
4.68186e-05
2.14779e-05
3.71166e-05
3.68944e-05
3.20746e-05
4.8026e-05
3.08219e-05
5.76655e-05
3.20347e-05
6.76647e-05
2.96398e-05
7.53974e-05
1.53123e-05
7.60669e-05
-1.42359e-05
6.02573e-05
-5.12975e-05
7.63188e-06
-8.01075e-05
-0.000119675
-9.51844e-05
-0.000191535
-0.000105413
-0.000203454
-0.000192709
-0.000111943
3.63803e-05
3.56865e-05
0.000161676
0.000317246
0.000271588
0.000493211
0.000323459
0.000488917
0.000321829
0.000362649
0.000284436
0.000203236
0.000224983
7.93513e-05
0.000164516
2.32491e-05
0.000117818
1.69179e-05
8.68397e-05
2.9124e-05
6.68194e-05
4.14983e-05
5.35189e-05
5.0195e-05
4.449e-05
5.70548e-05
3.83269e-05
6.38288e-05
3.45747e-05
7.14169e-05
3.1281e-05
7.86909e-05
2.30367e-05
8.4311e-05
2.75247e-06
8.05413e-05
-2.79851e-05
3.83693e-05
-7.10174e-05
-7.66431e-05
-9.19229e-05
-0.000170629
-0.000107104
-0.000188273
-0.000182196
-0.000117616
-1.33271e-05
4.90135e-05
6.53362e-05
0.000238583
0.000166858
0.000391689
0.000240997
0.000414777
0.000270819
0.000332827
0.000258662
0.000215393
0.000216905
0.000121108
0.000167858
7.22963e-05
0.000127295
5.74811e-05
9.88513e-05
5.75679e-05
7.93548e-05
6.09948e-05
6.53022e-05
6.42475e-05
5.46581e-05
6.7699e-05
4.61983e-05
7.22886e-05
3.94192e-05
7.81959e-05
3.38437e-05
8.42663e-05
2.74226e-05
9.07319e-05
1.33651e-05
9.45988e-05
-1.41549e-05
6.58894e-05
-6.08631e-05
-2.99349e-05
-8.73801e-05
-0.000144113
-0.000108442
-0.000167211
-0.000162026
-0.000128612
-3.64479e-05
8.54613e-05
2.20322e-06
0.000199932
8.11289e-05
0.000312764
0.000157828
0.000338078
0.000202786
0.000287869
0.000208477
0.000209702
0.000185596
0.000143989
0.000153008
0.000104885
0.000123744
8.67445e-05
0.000101588
7.9724e-05
8.51789e-05
7.74044e-05
7.24147e-05
7.70116e-05
6.19926e-05
7.81212e-05
5.31914e-05
8.10899e-05
4.55851e-05
8.58021e-05
3.87727e-05
9.10786e-05
3.24916e-05
9.70129e-05
2.21511e-05
0.000104939
-2.09691e-06
9.01374e-05
-4.64824e-05
1.44506e-05
-8.07151e-05
-0.00010988
-0.000105939
-0.000141987
-0.000135111
-0.000132855
-3.59242e-05
0.000121385
-2.39803e-05
0.000187988
3.35997e-05
0.000255184
9.94179e-05
0.00027226
0.000144123
0.000243165
0.000158337
0.000195488
0.000149879
0.000152447
0.00013202
0.000122744
0.000113835
0.00010493
9.8533e-05
9.50255e-05
8.61024e-05
8.9835e-05
7.56882e-05
8.7426e-05
6.66647e-05
8.71447e-05
5.87533e-05
8.90014e-05
5.17317e-05
9.28237e-05
4.50327e-05
9.77776e-05
3.86901e-05
0.000103355
3.04279e-05
0.000113202
8.13225e-06
0.000112433
-3.65796e-05
5.91623e-05
-7.51911e-05
-7.12684e-05
-0.000101908
-0.00011527
-0.000107659
-0.00012936
-2.26869e-05
0.000144072
-1.97676e-05
0.000185069
1.8942e-05
0.000216475
6.75474e-05
0.000223655
0.000103431
0.000207281
0.00011925
0.000179669
0.0001195
0.000152197
0.000111985
0.00013026
0.000102206
0.000114709
9.26599e-05
0.000104572
8.4049e-05
9.8446e-05
7.63125e-05
9.51627e-05
6.92983e-05
9.41589e-05
6.2996e-05
9.53037e-05
5.73563e-05
9.84634e-05
5.18148e-05
0.000103319
4.60638e-05
0.000109106
3.97613e-05
0.000119504
2.12942e-05
0.0001309
-2.48603e-05
0.000105317
-7.15726e-05
-2.45562e-05
-9.62911e-05
-9.05517e-05
-8.2231e-05
-0.000121719
-8.25389e-06
0.000152326
-5.64482e-06
0.00018246
1.9566e-05
0.000191264
5.23008e-05
0.00019092
7.81858e-05
0.000181396
9.24046e-05
0.00016545
9.689e-05
0.000147711
9.54742e-05
0.000131675
9.12109e-05
0.000118973
8.59413e-05
0.000109841
8.05731e-05
0.000103814
7.5431e-05
0.000100305
7.06419e-05
9.89481e-05
6.63372e-05
9.96086e-05
6.25815e-05
0.000102219
5.90393e-05
0.000106861
5.51237e-05
0.000113022
5.1701e-05
0.000122927
4.12634e-05
0.000141337
3.60672e-06
0.000142973
-5.62611e-05
3.53117e-05
-8.54487e-05
-6.13642e-05
-6.45109e-05
-0.000103169
1.09256e-06
0.000151234
5.81208e-06
0.00017774
2.34312e-05
0.000173645
4.49711e-05
0.00016938
6.30354e-05
0.000163331
7.48563e-05
0.000153629
8.08529e-05
0.000141715
8.25951e-05
0.000129933
8.1705e-05
0.000119863
7.9465e-05
0.000112081
7.67082e-05
0.000106571
7.38917e-05
0.000103121
7.12883e-05
0.000101552
6.91171e-05
0.00010178
6.75355e-05
0.000103801
6.6549e-05
0.000107848
6.57011e-05
0.00011387
6.62637e-05
0.000122364
6.70629e-05
0.000140538
5.02241e-05
0.000159812
-1.89192e-05
0.000104455
-6.32217e-05
-1.70616e-05
-4.36876e-05
-8.4045e-05
5.04494e-06
0.000146189
1.27673e-05
0.000170018
2.59162e-05
0.000160496
4.0575e-05
0.000154721
5.34825e-05
0.000150424
6.3158e-05
0.000143953
6.93758e-05
0.000135497
7.26419e-05
0.000126667
7.37971e-05
0.000118707
7.36891e-05
0.00011219
7.29857e-05
0.000107275
7.21522e-05
0.000103955
7.15266e-05
0.000102177
7.13943e-05
0.000101912
7.20078e-05
0.000103187
7.36629e-05
0.000106193
7.63636e-05
0.000111169
8.10028e-05
0.000117725
9.07639e-05
0.000130777
9.67524e-05
0.000153824
5.20535e-05
0.000149154
-1.21443e-05
4.71362e-05
-9.93049e-06
-4.59013e-05
6.03912e-06
0.000140149
1.52372e-05
0.00016082
2.60865e-05
0.000149646
3.69313e-05
0.000143876
4.67527e-05
0.000140602
5.4852e-05
0.000135854
6.08568e-05
0.000129492
6.48542e-05
0.00012267
6.72779e-05
0.000116284
6.86754e-05
0.000110792
6.95534e-05
0.000106397
7.03334e-05
0.000103175
7.13699e-05
0.000101141
7.29914e-05
0.000100291
7.55352e-05
0.000100644
7.94574e-05
0.000102271
8.52506e-05
0.000105376
9.35231e-05
0.000109453
0.000108351
0.000115949
0.000133192
0.000128983
0.000139127
0.000143219
9.07323e-05
9.55312e-05
2.51784e-05
5.56234e-05
6.09217e-06
0.000134057
1.53807e-05
0.000151531
2.47648e-05
0.000140262
3.34919e-05
0.000135149
4.15213e-05
0.000132573
4.85557e-05
0.00012882
5.42669e-05
0.000123781
5.86159e-05
0.000118321
6.18356e-05
0.000113064
6.4284e-05
0.000108344
6.63396e-05
0.000104341
6.83616e-05
0.000101153
7.06884e-05
9.8814e-05
7.36592e-05
9.732e-05
7.76533e-05
9.66498e-05
8.31671e-05
9.6757e-05
9.09079e-05
9.76356e-05
0.000101528
9.88326e-05
0.000117348
0.000100129
0.000145159
0.000101172
0.000178555
0.000109822
0.000182991
9.10954e-05
4.35142e-05
0.000164655
5.94322e-06
0.000128114
1.4636e-05
0.000142838
2.28626e-05
0.000132035
3.03024e-05
0.00012771
3.72387e-05
0.000125637
4.35422e-05
0.000122517
4.89692e-05
0.000118354
5.34648e-05
0.000113825
5.71677e-05
0.000109361
6.03201e-05
0.000105191
6.32043e-05
0.000101457
6.61143e-05
9.82429e-05
6.93496e-05
9.55787e-05
7.3225e-05
9.34446e-05
7.80973e-05
9.17774e-05
8.44049e-05
9.04495e-05
9.27403e-05
8.93002e-05
0.000103707
8.78655e-05
0.000118037
8.5799e-05
0.000138827
8.03831e-05
0.000170964
7.76841e-05
0.000195468
6.65914e-05
3.6338e-05
0.000202644
5.71708e-06
0.000122397
1.36206e-05
0.000134934
2.08807e-05
0.000124775
2.74407e-05
0.00012115
3.36359e-05
0.000119441
3.93968e-05
0.000116756
4.45538e-05
0.000113197
4.90678e-05
0.000109311
5.3032e-05
0.000105397
5.6617e-05
0.000101606
6.00338e-05
9.80403e-05
6.3515e-05
9.47615e-05
6.73086e-05
9.17851e-05
7.16781e-05
8.9075e-05
7.69126e-05
8.6543e-05
8.33364e-05
8.40258e-05
9.13254e-05
8.13111e-05
0.000101246
7.79449e-05
0.000113352
7.36928e-05
0.000127353
6.63826e-05
0.000147406
5.76307e-05
0.000168778
4.52189e-05
2.45797e-05
0.000180537
5.42225e-06
0.000116974
1.25511e-05
0.000127805
1.90093e-05
0.000118317
2.49041e-05
0.000115255
3.05363e-05
0.000113809
3.58565e-05
0.000111435
4.07489e-05
0.000108305
4.51923e-05
0.000104868
4.92558e-05
0.000101333
5.30633e-05
9.77986e-05
5.67722e-05
9.43313e-05
6.05617e-05
9.0972e-05
6.46255e-05
8.77213e-05
6.91673e-05
8.45332e-05
7.43989e-05
8.13115e-05
8.05315e-05
7.78932e-05
8.778e-05
7.40627e-05
9.62772e-05
6.94477e-05
0.000106196
6.37735e-05
0.000116602
5.59766e-05
0.000128354
4.5879e-05
0.000140762
3.28107e-05
1.60494e-05
0.000149293
5.07797e-06
0.000111896
1.1506e-05
0.000121377
1.72964e-05
0.000112526
2.2648e-05
0.000109903
2.78118e-05
0.000108645
3.27466e-05
0.0001065
3.73723e-05
0.000103679
4.16803e-05
0.00010056
4.57241e-05
9.72893e-05
4.95955e-05
9.39272e-05
5.34113e-05
9.05155e-05
5.73061e-05
8.70772e-05
6.14249e-05
8.36025e-05
6.59164e-05
8.00417e-05
7.09268e-05
7.63011e-05
7.65838e-05
7.22362e-05
8.29989e-05
6.76475e-05
9.01839e-05
6.22628e-05
9.81711e-05
5.57863e-05
0.000106403
4.77444e-05
0.00011444
3.78421e-05
0.000121636
2.56154e-05
1.13116e-05
0.000126373
4.71134e-06
0.000107185
1.05172e-05
0.000115571
1.57402e-05
0.000107304
2.0622e-05
0.000105021
2.53708e-05
0.000103896
2.99502e-05
0.000101921
3.43025e-05
9.93266e-05
3.84263e-05
9.64356e-05
4.23635e-05
9.3352e-05
4.6182e-05
9.01087e-05
4.99677e-05
8.67299e-05
5.38191e-05
8.32258e-05
5.78412e-05
7.95804e-05
6.21377e-05
7.57453e-05
6.68033e-05
7.16356e-05
7.19093e-05
6.71302e-05
7.74958e-05
6.20611e-05
8.35254e-05
5.62332e-05
8.99011e-05
4.94107e-05
9.63097e-05
4.13358e-05
0.00010228
3.18715e-05
0.000107137
2.0759e-05
8.24645e-06
0.000110202
4.34438e-06
0.000102841
9.59571e-06
0.00011032
1.43244e-05
0.000102575
1.87835e-05
0.000100562
2.31493e-05
9.95306e-05
2.73894e-05
9.76808e-05
3.14598e-05
9.52561e-05
3.53623e-05
9.25331e-05
3.91292e-05
8.95852e-05
4.28101e-05
8.6428e-05
4.64668e-05
8.30733e-05
5.01694e-05
7.95232e-05
5.3991e-05
7.57589e-05
5.79999e-05
7.17365e-05
6.22522e-05
6.73835e-05
6.67805e-05
6.2602e-05
7.158e-05
5.72618e-05
7.65925e-05
5.12208e-05
8.16833e-05
4.432e-05
8.66201e-05
3.63992e-05
9.10949e-05
2.73966e-05
9.46477e-05
1.72062e-05
6.03556e-06
9.68586e-05
3.99182e-06
9.88487e-05
8.74194e-06
0.00010557
1.303e-05
9.82869e-05
1.7099e-05
9.6493e-05
2.11029e-05
9.55268e-05
2.50128e-05
9.37709e-05
2.87935e-05
9.14755e-05
3.24469e-05
8.88797e-05
3.59973e-05
8.60349e-05
3.94799e-05
8.29454e-05
4.29379e-05
7.96153e-05
4.64193e-05
7.60418e-05
4.9972e-05
7.22062e-05
5.36382e-05
6.80705e-05
5.74462e-05
6.35757e-05
6.14038e-05
5.86447e-05
6.54847e-05
5.3181e-05
6.96241e-05
4.70816e-05
7.37015e-05
4.02427e-05
7.75329e-05
3.25679e-05
8.08996e-05
2.40298e-05
8.35019e-05
1.46039e-05
4.48453e-06
8.5053e-05
3.66291e-06
9.51859e-05
7.95266e-06
0.00010128
1.18385e-05
9.4401e-05
1.55414e-05
9.279e-05
1.91991e-05
9.18691e-05
2.27854e-05
9.01845e-05
2.62705e-05
8.79904e-05
2.96556e-05
8.54947e-05
3.29576e-05
8.27329e-05
3.62006e-05
7.97023e-05
3.94135e-05
7.64024e-05
4.2627e-05
7.28283e-05
4.58707e-05
6.89626e-05
4.91675e-05
6.47738e-05
5.2528e-05
6.02152e-05
5.59451e-05
5.52277e-05
5.93855e-05
4.97408e-05
6.27861e-05
4.36811e-05
6.60477e-05
3.69811e-05
6.90288e-05
2.95868e-05
7.15653e-05
2.14933e-05
7.34604e-05
1.27088e-05
3.39573e-06
7.45492e-05
3.36202e-06
9.18238e-05
7.22354e-06
9.74185e-05
1.07328e-05
9.08915e-05
1.40877e-05
8.9435e-05
1.74121e-05
8.85446e-05
2.0681e-05
8.69155e-05
2.38682e-05
8.48032e-05
2.69732e-05
8.23897e-05
3.00071e-05
7.96989e-05
3.29854e-05
7.6724e-05
3.59256e-05
7.34622e-05
3.88461e-05
6.99078e-05
4.17627e-05
6.6046e-05
4.46853e-05
6.18512e-05
4.76133e-05
5.72873e-05
5.05316e-05
5.23094e-05
5.3406e-05
4.68665e-05
5.61799e-05
4.09071e-05
5.87737e-05
3.43874e-05
6.10831e-05
2.72774e-05
6.29933e-05
1.95831e-05
6.43813e-05
1.13208e-05
2.62273e-06
6.51543e-05
3.08814e-06
8.87356e-05
6.54891e-06
9.39575e-05
9.69711e-06
8.77431e-05
1.27166e-05
8.64155e-05
1.57185e-05
8.55425e-05
1.86765e-05
8.39575e-05
2.15663e-05
8.19135e-05
2.4386e-05
7.957e-05
2.7142e-05
7.69428e-05
2.98431e-05
7.40228e-05
3.24985e-05
7.08068e-05
3.5117e-05
6.72893e-05
3.7705e-05
6.34581e-05
4.02632e-05
5.92929e-05
4.27842e-05
5.47662e-05
4.52492e-05
4.98444e-05
4.76256e-05
4.449e-05
4.98658e-05
3.86668e-05
5.19079e-05
3.23452e-05
5.36773e-05
2.55079e-05
5.50969e-05
1.81634e-05
5.60885e-05
1.03293e-05
2.11446e-06
5.65967e-05
2.83552e-06
8.58999e-05
5.92131e-06
9.08715e-05
8.71604e-06
8.49482e-05
1.14074e-05
8.3724e-05
1.40953e-05
8.28547e-05
1.67479e-05
8.1305e-05
1.93425e-05
7.93189e-05
2.18756e-05
7.70368e-05
2.43502e-05
7.44681e-05
2.67699e-05
7.16032e-05
2.91376e-05
6.84392e-05
3.14553e-05
6.49718e-05
3.37221e-05
6.11913e-05
3.59327e-05
5.70823e-05
3.80748e-05
5.2624e-05
4.0128e-05
4.7791e-05
4.20621e-05
4.25558e-05
4.38369e-05
3.68919e-05
4.54036e-05
3.07784e-05
4.67067e-05
2.42047e-05
4.76918e-05
1.71783e-05
4.83054e-05
9.71576e-06
1.90601e-06
4.85139e-05
2.59455e-06
8.33052e-05
5.32865e-06
8.81373e-05
7.77228e-06
8.25045e-05
1.01384e-05
8.13578e-05