/*--------------------------------*- C++ -*----------------------------------*\
| =========                 |                                                 |
| \\      /  F ield         | OpenFOAM: The Open Source CFD Toolbox           |
|  \\    /   O peration     | Version:  2206                                  |
|   \\  /    A nd           | Website:  www.openfoam.com                      |
|    \\/     M anipulation  |                                                 |
\*---------------------------------------------------------------------------*/
FoamFile
{
    version     2.0;
    format      ascii;
    arch        "LSB;label=32;scalar=64";
    class       volVectorField;
    location    "0.875";
    object      U;
}
// * * * * * * * * * * * * * * * * * * * * * * * * * * * * * * * * * * * * * //

dimensions      [0 1 -1 0 0 0 0];

internalField   nonuniform List<vector> 
2268
(
(-0.0110671 0.00168357 0)
(-0.0529134 0.0110196 0)
(-0.122133 0.0194527 0)
(-0.200897 0.0195951 0)
(-0.247195 0.00905736 0)
(-0.244463 -0.00177085 0)
(-0.223138 -0.00378009 0)
(-0.21251 -0.00183281 0)
(-0.209352 -0.000509616 0)
(-0.212341 0.00074962 0)
(-0.220336 0.00106902 0)
(-0.227904 -0.00216869 0)
(-0.22393 -0.00913398 0)
(-0.211051 -0.0122086 0)
(-0.212328 0.00128146 0)
(-0.264178 0.0239112 0)
(-0.344258 0.0238045 0)
(-0.354703 -0.0014869 0)
(-0.274493 -0.0237967 0)
(-0.186663 -0.0275482 0)
(-0.105334 -0.0254575 0)
(-0.0347025 -0.0202098 0)
(0.000674276 -0.00711622 0)
(-0.0480582 0.0328269 0)
(-0.142909 0.0468972 0)
(-0.232064 0.0525039 0)
(-0.284866 0.0389816 0)
(-0.282263 0.0101872 0)
(-0.253967 -0.0107707 0)
(-0.231261 -0.0122448 0)
(-0.216538 -0.00501006 0)
(-0.21488 0.000869759 0)
(-0.220089 0.0048837 0)
(-0.229228 0.00688863 0)
(-0.241839 0.0051154 0)
(-0.262554 0.00139093 0)
(-0.296193 0.00646016 0)
(-0.337836 0.0262574 0)
(-0.363145 0.0372628 0)
(-0.334862 0.0131943 0)
(-0.238284 -0.0333022 0)
(-0.158008 -0.0592632 0)
(-0.0985632 -0.0589244 0)
(-0.0369184 -0.0527545 0)
(0.0118385 -0.0356567 0)
(0.018508 -0.00716797 0)
(-0.0625213 0.0830622 0)
(-0.164946 0.0901866 0)
(-0.245686 0.0816044 0)
(-0.288821 0.0491363 0)
(-0.291229 0.00300836 0)
(-0.269643 -0.0247918 0)
(-0.241895 -0.0238664 0)
(-0.22332 -0.0101709 0)
(-0.215186 0.000624739 0)
(-0.212247 0.00687918 0)
(-0.211053 0.0110353 0)
(-0.213486 0.0138899 0)
(-0.224636 0.0164447 0)
(-0.245656 0.0221853 0)
(-0.264363 0.0293894 0)
(-0.250333 0.0168577 0)
(-0.184766 -0.0272414 0)
(-0.114325 -0.0714252 0)
(-0.0771908 -0.0852245 0)
(-0.0469038 -0.0820823 0)
(0.00413174 -0.0764066 0)
(0.0423438 -0.0431403 0)
(0.0441408 0.00929112 0)
(-0.0621982 0.135652 0)
(-0.156122 0.132639 0)
(-0.233772 0.11029 0)
(-0.282876 0.062225 0)
(-0.291286 0.00031925 0)
(-0.271899 -0.0382335 0)
(-0.250511 -0.0365547 0)
(-0.234485 -0.0175532 0)
(-0.224874 -0.00352311 0)
(-0.220252 0.00378235 0)
(-0.216022 0.00828059 0)
(-0.210477 0.0123553 0)
(-0.2037 0.0176553 0)
(-0.192856 0.0239581 0)
(-0.17094 0.023357 0)
(-0.131638 0.000164728 0)
(-0.0860324 -0.0431754 0)
(-0.0626374 -0.078752 0)
(-0.0605483 -0.0910287 0)
(-0.0479836 -0.0964092 0)
(-0.00168263 -0.0976561 0)
(0.0328724 -0.0543706 0)
(0.0561402 0.0333666 0)
(-0.0555224 0.18389 0)
(-0.137796 0.172026 0)
(-0.212656 0.139329 0)
(-0.260967 0.0778083 0)
(-0.26719 0.000364221 0)
(-0.255501 -0.0464647 0)
(-0.250485 -0.0436727 0)
(-0.244256 -0.0220771 0)
(-0.23623 -0.00592217 0)
(-0.231315 0.00258253 0)
(-0.227473 0.00635275 0)
(-0.221534 0.00814417 0)
(-0.209887 0.00960284 0)
(-0.186584 0.00969585 0)
(-0.148671 0.00132528 0)
(-0.10556 -0.0238228 0)
(-0.0757637 -0.05757 0)
(-0.0703208 -0.0818977 0)
(-0.0745524 -0.0942086 0)
(-0.0632038 -0.109997 0)
(-0.0305473 -0.118869 0)
(-0.0101084 -0.0743245 0)
(0.0563619 0.0483414 0)
(-0.0465356 0.225941 0)
(-0.11535 0.207501 0)
(-0.181147 0.165807 0)
(-0.220393 0.0915497 0)
(-0.222987 0.0026204 0)
(-0.223979 -0.0473171 0)
(-0.243394 -0.0439623 0)
(-0.251648 -0.0236258 0)
(-0.247148 -0.00881365 0)
(-0.241676 1.24875e-05 0)
(-0.236787 0.00385745 0)
(-0.230848 0.00418549 0)
(-0.220439 0.00201693 0)
(-0.199948 -0.00448197 0)
(-0.166057 -0.0188431 0)
(-0.126661 -0.041391 0)
(-0.0973321 -0.0652534 0)
(-0.0848075 -0.0821076 0)
(-0.0797389 -0.0966133 0)
(-0.0702445 -0.117269 0)
(-0.0626423 -0.130425 0)
(-0.0624035 -0.0914707 0)
(0.0386416 0.0596278 0)
(-0.0357653 0.258151 0)
(-0.0906712 0.236573 0)
(-0.145262 0.186382 0)
(-0.172573 0.10242 0)
(-0.167339 0.00833001 0)
(-0.18072 -0.0419062 0)
(-0.234756 -0.0363782 0)
(-0.25744 -0.0205523 0)
(-0.256685 -0.00965015 0)
(-0.250753 -0.00148491 0)
(-0.243532 0.00225251 0)
(-0.235892 0.00158519 0)
(-0.225713 -0.00316726 0)
(-0.207632 -0.0147087 0)
(-0.175756 -0.0346133 0)
(-0.13399 -0.0575342 0)
(-0.0973013 -0.0752815 0)
(-0.0772186 -0.0864537 0)
(-0.0699606 -0.0990987 0)
(-0.0665151 -0.11687 0)
(-0.0736997 -0.129341 0)
(-0.0861947 -0.098193 0)
(-0.0271744 0.0333503 0)
(-0.0266708 0.286677 0)
(-0.0678594 0.26087 0)
(-0.104699 0.201205 0)
(-0.100504 0.10391 0)
(-0.0748468 0.0076465 0)
(-0.12682 -0.0211303 0)
(-0.227127 -0.0128991 0)
(-0.258037 -0.012033 0)
(-0.256972 -0.00955505 0)
(-0.247983 -0.00456508 0)
(-0.236742 -0.00192054 0)
(-0.226453 -0.00303618 0)
(-0.216245 -0.0093016 0)
(-0.199 -0.0264021 0)
(-0.164024 -0.0556237 0)
(-0.114769 -0.0826141 0)
(-0.0726341 -0.0927847 0)
(-0.0551948 -0.0932605 0)
(-0.0556168 -0.100819 0)
(-0.0558446 -0.115874 0)
(-0.0563235 -0.126706 0)
(-0.0544802 -0.101319 0)
(-0.0534756 0.0179248 0)
(0.0901192 -0.0973942 0)
(0.292863 -0.0381798 0)
(-0.0299296 0.0408735 0)
(0.164331 -0.0185624 0)
(0.389478 -0.0372257 0)
(0.547829 -0.0399749 0)
(0.638 -0.00120554 0)
(0.54028 0.0638763 0)
(0.255705 0.100131 0)
(-0.0871045 0.0452132 0)
(-0.216224 -0.0706419 0)
(-0.107486 -0.104286 0)
(0.0106841 -0.0745792 0)
(-0.0228495 0.0412343 0)
(-0.531583 0.117197 0)
(-1.06351 0.0996085 0)
(-1.15927 -0.01743 0)
(-0.752133 -0.161224 0)
(-0.229801 -0.172664 0)
(0.00223074 -0.161775 0)
(0.0687357 0.10314 0)
(-0.100189 0.00852458 0)
(0.478088 -0.198756 0)
(0.730951 -0.174804 0)
(0.776384 -0.0862277 0)
(0.761922 0.0109 0)
(0.750113 0.130152 0)
(0.601225 0.227865 0)
(0.272993 0.200838 0)
(0.00781937 0.0895834 0)
(-0.213139 -0.0403946 0)
(-0.339702 0.0339058 0)
(-0.509488 0.244162 0)
(-1.00169 0.335479 0)
(-1.23902 0.205328 0)
(-1.00325 -0.0809684 0)
(-0.586406 -0.432261 0)
(-0.120614 -0.449735 0)
(-0.143225 -0.103048 0)
(-0.0618569 0.0780674 0)
(0.37079 -0.231742 0)
(0.694363 -0.344871 0)
(0.813796 -0.219408 0)
(0.761021 -0.0765121 0)
(0.669497 0.0254058 0)
(0.634057 0.151667 0)
(0.62988 0.304594 0)
(0.509698 0.324048 0)
(0.311863 0.244113 0)
(-0.0142962 0.0989321 0)
(-0.348663 0.110146 0)
(-0.557986 0.398844 0)
(-0.842642 0.428567 0)
(-0.779445 0.139024 0)
(-0.541955 -0.237882 0)
(-0.21846 -0.581883 0)
(-0.00249858 -0.605254 0)
(-0.218132 -0.0493145 0)
(-0.0353681 -0.0930889 0)
(0.501908 -0.481229 0)
(0.679382 -0.451304 0)
(0.775003 -0.22894 0)
(0.690697 -0.0184486 0)
(0.53051 0.0753741 0)
(0.470443 0.157697 0)
(0.503778 0.29412 0)
(0.529923 0.360628 0)
(0.469734 0.351108 0)
(0.226153 0.277208 0)
(-0.184614 0.224968 0)
(-0.276865 0.473849 0)
(-0.401989 0.446078 0)
(-0.196915 0.0800755 0)
(0.00771571 -0.307065 0)
(0.192448 -0.611392 0)
(0.138858 -0.585038 0)
(-0.227308 -0.0258326 0)
(0.276228 -0.332816 0)
(0.466196 -0.582788 0)
(0.560189 -0.509754 0)
(0.666745 -0.215936 0)
(0.577608 0.0806198 0)
(0.363659 0.132944 0)
(0.310466 0.168765 0)
(0.344456 0.280405 0)
(0.404329 0.35251 0)
(0.438901 0.403699 0)
(0.367962 0.427171 0)
(0.0513396 0.362594 0)
(-0.0406223 0.456241 0)
(0.0825784 0.38671 0)
(0.290232 -0.000245184 0)
(0.436743 -0.367621 0)
(0.474156 -0.587936 0)
(0.254337 -0.446123 0)
(-0.239452 -0.0307558 0)
(0.40931 -0.493135 0)
(0.267578 -0.627045 0)
(0.503715 -0.5693 0)
(0.587929 -0.218184 0)
(0.408408 0.172774 0)
(0.204521 0.160117 0)
(0.121409 0.149506 0)
(0.178966 0.246874 0)
(0.224814 0.297405 0)
(0.265136 0.379401 0)
(0.346271 0.471318 0)
(0.253418 0.46534 0)
(0.159808 0.426039 0)
(0.329441 0.262807 0)
(0.521117 -0.0809783 0)
(0.651953 -0.359045 0)
(0.536854 -0.488914 0)
(0.29075 -0.277106 0)
(-0.219891 -0.10767 0)
(0.188694 -0.599663 0)
(-0.0544909 -0.715297 0)
(0.413822 -0.598401 0)
(0.426909 -0.119746 0)
(0.146739 0.348087 0)
(0.159016 0.222242 0)
(-0.0323071 0.177455 0)
(-0.0959898 0.283375 0)
(-0.133526 0.330013 0)
(-0.0464834 0.396534 0)
(0.168804 0.467132 0)
(0.309965 0.491632 0)
(0.331266 0.40929 0)
(0.46301 0.203301 0)
(0.61483 -0.0859341 0)
(0.634975 -0.349715 0)
(0.425148 -0.384107 0)
(0.254297 -0.10833 0)
(-0.111737 0.0506502 0)
(-0.187782 -0.647072 0)
(-0.323172 -0.809533 0)
(0.146539 -0.560399 0)
(-0.126028 -0.0976655 0)
(-0.0484536 0.374108 0)
(-0.121845 0.244877 0)
(-0.522656 0.285986 0)
(-0.775797 0.34501 0)
(-0.752746 0.280469 0)
(-0.598163 0.17566 0)
(-0.214781 0.213922 0)
(0.196656 0.396702 0)
(0.33952 0.356849 0)
(0.466571 0.157718 0)
(0.520113 -0.118598 0)
(0.3967 -0.303912 0)
(0.16792 -0.267561 0)
(0.167748 0.02316 0)
(0.00711074 0.30229 0)
(-0.00511399 0.286561 0)
(-0.0196993 0.211036 0)
(-0.0316242 0.119682 0)
(-0.111707 0.0694666 0)
(-0.214375 0.0661144 0)
(-0.261135 0.0459515 0)
(-0.259517 0.00755828 0)
(-0.243906 -0.0148337 0)
(-0.2291 -0.016448 0)
(-0.21757 -0.0122398 0)
(-0.209903 -0.00972917 0)
(-0.205748 -0.0155888 0)
(-0.197331 -0.0440031 0)
(-0.16851 -0.0915504 0)
(-0.117075 -0.120588 0)
(-0.0643677 -0.111858 0)
(-0.0448327 -0.0919221 0)
(-0.0558073 -0.0952826 0)
(-0.0584166 -0.119836 0)
(-0.0280501 -0.146365 0)
(0.0441048 -0.141608 0)
(0.132659 -0.0579653 0)
(0.0137023 0.277462 0)
(0.0119734 0.289769 0)
(-0.056052 0.230168 0)
(-0.145374 0.177153 0)
(-0.253613 0.125817 0)
(-0.309149 0.0590695 0)
(-0.331667 -0.0145809 0)
(-0.344692 -0.0499237 0)
(-0.34756 -0.0490263 0)
(-0.339705 -0.0432591 0)
(-0.336678 -0.0366278 0)
(-0.345353 -0.0305164 0)
(-0.375328 -0.0285808 0)
(-0.414201 -0.0486297 0)
(-0.417424 -0.0953247 0)
(-0.34401 -0.148281 0)
(-0.225087 -0.138349 0)
(-0.136442 -0.0859821 0)
(-0.128953 -0.0790948 0)
(-0.118731 -0.130509 0)
(-0.0432954 -0.224284 0)
(0.0460236 -0.266775 0)
(0.11056 -0.213512 0)
(-0.00332575 0.222864 0)
(-0.0657445 0.365399 0)
(-0.281295 0.384115 0)
(-0.482557 0.386688 0)
(-0.632379 0.341101 0)
(-0.736778 0.249381 0)
(-0.802486 0.134833 0)
(-0.845879 0.029195 0)
(-0.857663 -0.026512 0)
(-0.842674 -0.0239853 0)
(-0.864274 -0.00835944 0)
(-0.978889 0.0308483 0)
(-1.16998 0.0745531 0)
(-1.26492 0.0293885 0)
(-1.14255 -0.213547 0)
(-0.918733 -0.404694 0)
(-0.705544 -0.344971 0)
(-0.502041 -0.167086 0)
(-0.396078 -0.117042 0)
(-0.319636 -0.222972 0)
(-0.289542 -0.343994 0)
(-0.326815 -0.324748 0)
(-0.406036 -0.19463 0)
(-0.608418 0.551496 0)
(-1.072 0.686393 0)
(-1.51728 0.571076 0)
(-1.66466 0.392662 0)
(-1.66797 0.206037 0)
(-1.63008 0.0549493 0)
(-1.55468 -0.0189764 0)
(-1.4669 0.00428562 0)
(-1.42496 0.0137339 0)
(-1.38076 0.0354235 0)
(-1.38484 0.135643 0)
(-1.57484 0.281317 0)
(-1.78242 0.298172 0)
(-1.59553 -0.107935 0)
(-1.28709 -0.563265 0)
(-1.12222 -0.670736 0)
(-0.986679 -0.531172 0)
(-0.849688 -0.330676 0)
(-0.744144 -0.258366 0)
(-0.739925 -0.295705 0)
(-0.85944 -0.254123 0)
(-1.07379 -0.0904405 0)
(-1.24018 0.104634 0)
(-1.11608 1.29039 0)
(-1.57981 1.14197 0)
(-1.97035 0.703056 0)
(-1.93175 0.433585 0)
(-1.71991 0.273051 0)
(-1.49125 0.144772 0)
(-1.41437 0.0038159 0)
(-1.49726 -0.137742 0)
(-1.5231 -0.218201 0)
(-1.46352 -0.142519 0)
(-1.3406 0.103312 0)
(-1.25557 0.375622 0)
(-1.29087 0.246817 0)
(-1.25701 -0.274747 0)
(-1.20502 -0.699884 0)
(-1.17831 -0.740643 0)
(-1.13219 -0.596751 0)
(-1.08293 -0.393449 0)
(-1.06604 -0.230362 0)
(-1.16788 -0.126679 0)
(-1.36888 -0.00905597 0)
(-1.53375 0.0768862 0)
(-1.6357 0.105526 0)
(-1.28147 2.50009 0)
(-1.51321 1.6841 0)
(-1.63317 0.80674 0)
(-1.54871 0.260373 0)
(-1.25888 -0.0414124 0)
(-1.29315 -0.075032 0)
(-1.32417 0.0944427 0)
(-1.33555 0.138354 0)
(-1.33478 -0.025125 0)
(-1.28793 -0.138211 0)
(-1.26402 -0.0957746 0)
(-1.2296 0.0859637 0)
(-1.1866 0.197416 0)
(-1.24391 -0.129797 0)
(-1.34391 -0.725859 0)
(-1.33341 -0.743559 0)
(-1.293 -0.590126 0)
(-1.26121 -0.355953 0)
(-1.28518 -0.129758 0)
(-1.38622 0.047891 0)
(-1.54991 0.133883 0)
(-1.69168 0.13573 0)
(-1.76298 0.145135 0)
(-0.800146 4.34972 0)
(-1.08631 2.04175 0)
(-0.984162 1.18681 0)
(-1.03748 0.295246 0)
(-1.22754 -0.0517797 0)
(-1.38091 -0.0653318 0)
(-1.37153 -0.0602096 0)
(-1.29676 -0.0505743 0)
(-1.23766 -0.0588458 0)
(-1.28638 -0.0744876 0)
(-1.37159 0.137286 0)
(-1.31785 0.2841 0)
(-1.28598 0.309387 0)
(-1.31441 0.00632499 0)
(-1.39101 -0.662757 0)
(-1.47 -0.796494 0)
(-1.43473 -0.599821 0)
(-1.36372 -0.381301 0)
(-1.34368 -0.128476 0)
(-1.41658 0.142801 0)
(-1.4853 0.235665 0)
(-1.49602 0.230632 0)
(-1.44143 0.143459 0)
(-0.44139 4.88593 0)
(-0.602936 2.18711 0)
(-0.618473 1.42573 0)
(-0.876682 0.519176 0)
(-1.03187 0.194961 0)
(-1.08068 0.0530891 0)
(-1.09365 -0.0203398 0)
(-1.1212 -0.0729794 0)
(-1.1943 -0.116226 0)
(-1.29787 -0.123708 0)
(-1.35906 -0.0456692 0)
(-1.35289 0.141867 0)
(-1.28945 0.246539 0)
(-1.2649 -0.0378007 0)
(-1.41157 -0.576463 0)
(-1.52278 -0.791409 0)
(-1.47211 -0.654498 0)
(-1.38274 -0.421803 0)
(-1.26904 -0.134492 0)
(-1.15747 0.129377 0)
(-1.06946 0.15691 0)
(-0.992633 0.0996228 0)
(-0.878357 -0.0774893 0)
(-0.269552 5.07193 0)
(-0.289179 2.34221 0)
(-0.63369 1.47127 0)
(-0.840088 0.640399 0)
(-1.01339 0.223774 0)
(-1.02455 0.0342226 0)
(-0.973498 -0.0131008 0)
(-0.908463 0.0286464 0)
(-0.899095 0.0674501 0)
(-0.960174 0.0702687 0)
(-1.05674 0.0955373 0)
(-1.11914 0.170261 0)
(-1.10217 0.225712 0)
(-1.10637 0.0406646 0)
(-1.2743 -0.40753 0)
(-1.45701 -0.749099 0)
(-1.47869 -0.762877 0)
(-1.37032 -0.561862 0)
(-1.20377 -0.290743 0)
(-0.983095 -0.0207974 0)
(-0.803913 0.0700173 0)
(-0.681967 0.0332465 0)
(-0.562568 -0.10184 0)
(-0.108958 5.15206 0)
(-0.101196 2.76473 0)
(-0.889148 1.54272 0)
(-0.940073 0.843089 0)
(-1.14354 0.329275 0)
(-1.12286 -0.0028804 0)
(-1.02076 -0.145761 0)
(-0.879053 -0.125633 0)
(-0.761076 -0.0341079 0)
(-0.697918 0.0720841 0)
(-0.709914 0.162827 0)
(-0.769598 0.220953 0)
(-0.81966 0.236743 0)
(-0.878751 0.12963 0)
(-1.04674 -0.189685 0)
(-1.2888 -0.585488 0)
(-1.42139 -0.760046 0)
(-1.39704 -0.69405 0)
(-1.22525 -0.501528 0)
(-1.04198 -0.304021 0)
(-0.838783 -0.104788 0)
(-0.629573 -0.0788459 0)
(-0.424545 -0.249947 0)
(0.104823 4.97873 0)
(0.164398 3.64122 0)
(-0.983837 1.75261 0)
(-1.06568 0.981499 0)
(-1.23702 0.345389 0)
(-1.16856 -0.099287 0)
(-1.02965 -0.30734 0)
(-0.85201 -0.283571 0)
(-0.693923 -0.14914 0)
(-0.579329 0.00175879 0)
(-0.504287 0.149239 0)
(-0.485048 0.266359 0)
(-0.521335 0.308458 0)
(-0.618338 0.239904 0)
(-0.796017 0.00299555 0)
(-1.03624 -0.368724 0)
(-1.25774 -0.656863 0)
(-1.3583 -0.699338 0)
(-1.30125 -0.664484 0)
(-1.08152 -0.630183 0)
(-0.769609 -0.515708 0)
(-0.434713 -0.493519 0)
(-0.12356 -0.627693 0)
(0.384352 4.48144 0)
(0.616937 4.48931 0)
(-0.428587 2.42152 0)
(-0.901392 1.15832 0)
(-1.10699 0.30927 0)
(-1.05347 -0.246267 0)
(-0.914537 -0.514108 0)
(-0.741145 -0.488946 0)
(-0.575719 -0.302434 0)
(-0.457339 -0.102528 0)
(-0.369629 0.0807639 0)
(-0.302019 0.240067 0)
(-0.268353 0.351766 0)
(-0.309029 0.368138 0)
(-0.452036 0.213175 0)
(-0.684502 -0.133147 0)
(-0.949894 -0.466629 0)
(-1.1803 -0.600599 0)
(-1.28329 -0.639632 0)
(-1.16499 -0.728186 0)
(-0.898051 -0.807489 0)
(-0.628889 -0.759243 0)
(-0.370786 -0.715218 0)
(0.663769 3.6891 0)
(1.16324 4.81653 0)
(0.686385 3.44101 0)
(-0.0765422 1.75682 0)
(-0.517588 0.498997 0)
(-0.625157 -0.303072 0)
(-0.576819 -0.669891 0)
(-0.487961 -0.665184 0)
(-0.373453 -0.436383 0)
(-0.283745 -0.188933 0)
(-0.227985 0.0103418 0)
(-0.171576 0.17972 0)
(-0.109204 0.316413 0)
(-0.0697494 0.408744 0)
(-0.112868 0.379327 0)
(-0.267943 0.165493 0)
(-0.520724 -0.148888 0)
(-0.795425 -0.423191 0)
(-1.00908 -0.643553 0)
(-1.01282 -0.880903 0)
(-0.818849 -1.06315 0)
(-0.650433 -0.98253 0)
(-0.490617 -0.872103 0)
(0.693127 2.46719 0)
(1.51379 4.46789 0)
(1.65336 4.03554 0)
(1.13029 2.52092 0)
(0.540063 1.02379 0)
(0.160389 -0.0905495 0)
(-0.00747908 -0.660774 0)
(-0.0816585 -0.732044 0)
(-0.0860173 -0.502255 0)
(-0.0647088 -0.228865 0)
(-0.0581875 -0.0234079 0)
(-0.0414352 0.135743 0)
(-0.00504637 0.257993 0)
(0.0482023 0.3634 0)
(0.0795669 0.415795 0)
(0.0258777 0.333412 0)
(-0.138033 0.122616 0)
(-0.378876 -0.152556 0)
(-0.664303 -0.45804 0)
(-0.767771 -0.845526 0)
(-0.657439 -1.1936 0)
(-0.567721 -1.1982 0)
(-0.540362 -1.02964 0)
(0.423594 1.29796 0)
(1.46359 3.65549 0)
(2.01112 3.98464 0)
(1.91337 2.98284 0)
(1.49936 1.59701 0)
(1.06963 0.387396 0)
(0.688022 -0.408118 0)
(0.417818 -0.621806 0)
(0.251082 -0.453159 0)
(0.169692 -0.198489 0)
(0.121506 -0.0025576 0)
(0.0927532 0.131796 0)
(0.089558 0.229431 0)
(0.107741 0.312748 0)
(0.14398 0.383892 0)
(0.150849 0.387985 0)
(0.0687949 0.289132 0)
(-0.107766 0.077818 0)
(-0.383152 -0.255247 0)
(-0.500339 -0.831736 0)
(-0.524764 -1.12063 0)
(-0.541525 -1.15392 0)
(-0.562749 -1.10043 0)
(0.0302755 0.560445 0)
(1.06905 2.75843 0)
(1.80314 3.53835 0)
(2.02958 3.02984 0)
(1.87925 1.92846 0)
(1.58117 0.804328 0)
(1.21666 -0.0344842 0)
(0.843245 -0.352869 0)
(0.555266 -0.279175 0)
(0.383437 -0.0878863 0)
(0.282436 0.0673033 0)
(0.216764 0.168799 0)
(0.180419 0.240728 0)
(0.162186 0.30079 0)
(0.164919 0.360402 0)
(0.173588 0.398107 0)
(0.14307 0.378031 0)
(0.0362512 0.254801 0)
(-0.191899 -0.059831 0)
(-0.388522 -0.768427 0)
(-0.470171 -1.06144 0)
(-0.54048 -1.11671 0)
(-0.582291 -1.03117 0)
(-0.221032 0.24979 0)
(0.548786 2.00787 0)
(1.26783 2.94952 0)
(1.67331 2.80636 0)
(1.76299 1.99959 0)
(1.65927 1.03831 0)
(1.39596 0.288221 0)
(1.04454 -0.027053 0)
(0.73329 -0.0310971 0)
(0.527562 0.0738163 0)
(0.401089 0.169229 0)
(0.316091 0.233427 0)
(0.25904 0.280916 0)
(0.218449 0.323777 0)
(0.191477 0.369319 0)
(0.177335 0.410732 0)
(0.157879 0.4335 0)
(0.10371 0.385196 0)
(-0.0654637 0.127924 0)
(-0.294155 -0.534029 0)
(-0.439839 -0.971653 0)
(-0.534768 -1.06639 0)
(-0.615795 -1.03272 0)
(-0.274557 0.228059 0)
(0.0867016 1.46199 0)
(0.681554 2.36619 0)
(1.15426 2.44291 0)
(1.41149 1.89011 0)
(1.45637 1.13443 0)
(1.30386 0.551546 0)
(1.03401 0.271425 0)
(0.775834 0.21086 0)
(0.591921 0.239425 0)
(0.469921 0.279019 0)
(0.383345 0.309449 0)
(0.318966 0.336018 0)
(0.268501 0.365829 0)
(0.22724 0.401289 0)
(0.195377 0.436998 0)
(0.16687 0.473317 0)
(0.136057 0.480045 0)
(0.00513106 0.289225 0)
(-0.199811 -0.270514 0)
(-0.414185 -0.850251 0)
(-0.520681 -0.962422 0)
(-0.644583 -0.936437 0)
(-0.241895 0.35813 0)
(-0.18361 1.13775 0)
(0.228739 1.86402 0)
(0.680375 2.01144 0)
(1.00275 1.66257 0)
(1.13996 1.14604 0)
(1.08157 0.725796 0)
(0.91122 0.492238 0)
(0.733953 0.401015 0)
(0.596118 0.377818 0)
(0.496043 0.377432 0)
(0.419958 0.383211 0)
(0.358732 0.39434 0)
(0.307642 0.414116 0)
(0.263552 0.4424 0)
(0.225905 0.47265 0)
(0.188603 0.507517 0)
(0.164081 0.545583 0)
(0.0634934 0.432069 0)
(-0.0948286 -0.0365908 0)
(-0.382687 -0.700265 0)
(-0.500813 -0.830081 0)
(-0.627657 -0.800555 0)
(-0.168995 0.556407 0)
(-0.23521 1.01504 0)
(0.011231 1.4951 0)
(0.375992 1.6148 0)
(0.683385 1.41354 0)
(0.842175 1.08923 0)
(0.845174 0.807005 0)
(0.760301 0.625658 0)
(0.656709 0.527177 0)
(0.566046 0.478197 0)
(0.492867 0.455394 0)
(0.432675 0.446354 0)
(0.380899 0.447706 0)
(0.335554 0.460214 0)
(0.295391 0.482979 0)
(0.260151 0.510252 0)
(0.221358 0.540951 0)
(0.194709 0.591932 0)
(0.126859 0.552904 0)
(-0.0332327 0.201473 0)
(-0.348168 -0.487786 0)
(-0.479027 -0.688051 0)
(-0.596295 -0.647938 0)
(-0.0880016 0.726712 0)
(-0.166373 0.992505 0)
(-0.0243608 1.245 0)
(0.241037 1.31037 0)
(0.47989 1.19748 0)
(0.618351 1.0069 0)
(0.653175 0.825953 0)
(0.625622 0.690087 0)
(0.575065 0.599463 0)
(0.521937 0.54362 0)
(0.473259 0.511637 0)
(0.429759 0.495391 0)
(0.390219 0.49139 0)
(0.35441 0.499095 0)
(0.322233 0.517628 0)
(0.293863 0.543826 0)
(0.261752 0.573491 0)
(0.232093 0.628484 0)
(0.19558 0.659812 0)
(0.0352298 0.437669 0)
(-0.317187 -0.273103 0)
(-0.4484 -0.560457 0)
(-0.557991 -0.505828 0)
(-0.0265263 0.812583 0)
(-0.0697822 0.989814 0)
(0.0181826 1.08304 0)
(0.19698 1.0987 0)
(0.362591 1.03524 0)
(0.470172 0.926475 0)
(0.516227 0.810664 0)
(0.520433 0.710691 0)
(0.502665 0.634672 0)
(0.475791 0.582099 0)
(0.446793 0.548684 0)
(0.418538 0.529945 0)
(0.391768 0.523337 0)
(0.367254 0.527992 0)
(0.345595 0.543331 0)
(0.327022 0.568911 0)
(0.308216 0.600598 0)
(0.284581 0.65507 0)
(0.274823 0.740986 0)
(0.198437 0.676893 0)
(-0.188568 -0.0202674 0)
(-0.388079 -0.422112 0)
(-0.488981 -0.394005 0)
(0.0041856 0.82472 0)
(0.00435049 0.975025 0)
(0.0696213 0.97616 0)
(0.185577 0.960426 0)
(0.296268 0.921635 0)
(0.376896 0.857333 0)
(0.42318 0.780923 0)
(0.442101 0.707689 0)
(0.442851 0.646879 0)
(0.43339 0.601294 0)
(0.419411 0.570022 0)
(0.404201 0.551139 0)
(0.389464 0.543212 0)
(0.376513 0.545592 0)
(0.366526 0.558075 0)
(0.359835 0.581785 0)
(0.357544 0.615048 0)
(0.351927 0.6646 0)
(0.366193 0.770628 0)
(0.383209 0.840399 0)
(0.0735103 0.37169 0)
(-0.25564 -0.238825 0)
(-0.369721 -0.303622 0)
(0.0131851 0.803383 0)
(0.0417071 0.940627 0)
(0.100594 0.897641 0)
(0.17969 0.868214 0)
(0.255558 0.84164 0)
(0.316738 0.800417 0)
(0.359064 0.747472 0)
(0.383719 0.693163 0)
(0.394669 0.645213 0)
(0.396703 0.606925 0)
(0.393993 0.578891 0)
(0.389535 0.560684 0)
(0.385382 0.551743 0)
(0.383153 0.551774 0)
(0.384487 0.560872 0)
(0.390266 0.580374 0)
(0.403851 0.611171 0)
(0.421313 0.6523 0)
(0.456855 0.74119 0)
(0.539705 0.877428 0)
(0.470319 0.740627 0)
(0.0377597 0.0432965 0)
(-0.135214 -0.175687 0)
(0.0136025 0.772271 0)
(0.0541234 0.892809 0)
(0.110797 0.834449 0)
(0.170201 0.802285 0)
(0.226172 0.782453 0)
(0.274754 0.75333 0)
(0.312687 0.714466 0)
(0.339198 0.673122 0)
(0.35589 0.635014 0)
(0.365599 0.602955 0)
(0.371255 0.578024 0)
(0.375354 0.560506 0)
(0.379953 0.550361 0)
(0.386822 0.547545 0)
(0.39786 0.552245 0)
(0.414716 0.565251 0)
(0.441237 0.588264 0)
(0.478473 0.618292 0)
(0.534597 0.671611 0)
(0.645973 0.783777 0)
(0.779753 0.861516 0)
(0.62564 0.443131 0)
(0.398087 0.0593586 0)
(0.0130585 0.739323 0)
(0.0558306 0.841742 0)
(0.108859 0.780395 0)
(0.157299 0.750863 0)
(0.202213 0.735433 0)
(0.242981 0.713053 0)
(0.277344 0.682925 0)
(0.304197 0.65038 0)
(0.324177 0.619433 0)
(0.339004 0.592197 0)
(0.350721 0.569745 0)
(0.361329 0.552597 0)
(0.372696 0.540937 0)
(0.386594 0.534784 0)
(0.404963 0.534188 0)
(0.429875 0.539242 0)
(0.465059 0.550691 0)
(0.513209 0.566261 0)
(0.582049 0.586597 0)
(0.686032 0.62347 0)
(0.879127 0.716355 0)
(0.984248 0.587046 0)
(0.949689 0.237794 0)
(0.0130997 0.706832 0)
(0.0540771 0.792915 0)
(0.101938 0.733171 0)
(0.143445 0.707896 0)
(0.181832 0.695608 0)
(0.217586 0.677363 0)
(0.249196 0.65292 0)
(0.275745 0.62637 0)
(0.297526 0.600489 0)
(0.315643 0.576763 0)
(0.331544 0.556071 0)
(0.346791 0.538924 0)
(0.362977 0.525525 0)
(0.38172 0.515829 0)
(0.404806 0.509624 0)
(0.434163 0.506423 0)
(0.473 0.505685 0)
(0.523084 0.505145 0)
(0.591935 0.502128 0)
(0.675057 0.482115 0)
(0.823223 0.492332 0)
(0.991306 0.439624 0)
(1.08789 0.248263 0)
(0.0132387 0.675364 0)
(0.0511979 0.748192 0)
(0.0936862 0.691647 0)
(0.130251 0.670459 0)
(0.164299 0.660444 0)
(0.19653 0.644962 0)
(0.225915 0.624379 0)
(0.251807 0.60195 0)
(0.2744 0.579593 0)
(0.294449 0.55831 0)
(0.312997 0.538752 0)
(0.331249 0.52132 0)
(0.350494 0.506142 0)
(0.372089 0.493064 0)
(0.397512 0.481655 0)
(0.428276 0.471068 0)
(0.466641 0.460131 0)
(0.513482 0.446153 0)
(0.573765 0.427514 0)
(0.640514 0.388022 0)
(0.729544 0.342619 0)
(0.848321 0.273386 0)
(0.953392 0.148827 0)
(0.0131027 0.645288 0)
(0.0478363 0.707783 0)
(0.0855188 0.654858 0)
(0.118263 0.637045 0)
(0.149053 0.628668 0)
(0.178541 0.615141 0)
(0.205999 0.597262 0)
(0.230997 0.577693 0)
(0.253704 0.557767 0)
(0.274664 0.538137 0)
(0.294643 0.519251 0)
(0.314554 0.501381 0)
(0.335399 0.484564 0)
(0.358245 0.468562 0)
(0.384202 0.452844 0)
(0.414387 0.436461 0)
(0.450073 0.418159 0)
(0.491882 0.395505 0)
(0.54172 0.367075 0)
(0.59663 0.324704 0)
(0.6551 0.268184 0)
(0.721299 0.192417 0)
(0.786771 0.0926399 0)
(0.0126614 0.616951 0)
(0.0442818 0.671353 0)
(0.0778854 0.621979 0)
(0.107496 0.606815 0)
(0.135599 0.599613 0)
(0.162767 0.587509 0)
(0.188452 0.571568 0)
(0.212376 0.554006 0)
(0.234693 0.535761 0)
(0.255808 0.517239 0)
(0.276288 0.498728 0)
(0.296813 0.48039 0)
(0.318142 0.462192 0)
(0.34107 0.443859 0)
(0.366379 0.424855 0)
(0.394853 0.404315 0)
(0.427108 0.381076 0)
(0.463562 0.353392 0)
(0.504414 0.31959 0)
(0.548573 0.276366 0)
(0.593021 0.221866 0)
(0.634376 0.152325 0)
(0.670358 0.0688789 0)
(0.012012 0.590552 0)
(0.040734 0.638467 0)
(0.0708861 0.592386 0)
(0.0978014 0.579275 0)
(0.123546 0.57291 0)
(0.14863 0.561856 0)
(0.172615 0.547326 0)
(0.195315 0.531195 0)
(0.216872 0.514125 0)
(0.237589 0.496353 0)
(0.257881 0.478051 0)
(0.278251 0.4593 0)
(0.299251 0.440022 0)
(0.321455 0.419943 0)
(0.345385 0.398568 0)
(0.371539 0.375174 0)
(0.400188 0.348751 0)
(0.431434 0.318082 0)
(0.464939 0.281671 0)
(0.499625 0.23774 0)
(0.533806 0.185319 0)
(0.563516 0.122227 0)
(0.586508 0.0499609 0)
(0.011255 0.566147 0)
(0.0373189 0.608727 0)
(0.0644972 0.565623 0)
(0.0890124 0.554119 0)
(0.112602 0.548343 0)
(0.135739 0.538067 0)
(0.15805 0.524581 0)
(0.179406 0.50949 0)
(0.199929 0.49326 0)
(0.219844 0.476016 0)
(0.23945 0.457848 0)
(0.259109 0.438783 0)
(0.279212 0.418721 0)
(0.300149 0.397409 0)
(0.322255 0.374413 0)
(0.345798 0.349143 0)
(0.37086 0.320787 0)
(0.397301 0.288444 0)
(0.424677 0.251052 0)
(0.451888 0.207475 0)
(0.477784 0.15727 0)
(0.499804 0.0996292 0)
(0.516351 0.0359652 0)
(0.0104667 0.54369 0)
(0.0341074 0.581809 0)
(0.05865 0.541356 0)
(0.0809816 0.531142 0)
(0.102556 0.525778 0)
(0.123829 0.51608 0)
(0.144475 0.503381 0)
(0.164391 0.489065 0)
(0.18368 0.47346 0)
(0.2025 0.456614 0)
(0.221066 0.438565 0)
(0.239626 0.419307 0)
(0.258446 0.398734 0)
(0.277776 0.376622 0)
(0.29781 0.352612 0)
(0.318662 0.326231 0)
(0.3403 0.296867 0)
(0.362484 0.263859 0)
(0.384765 0.226522 0)
(0.406251 0.184192 0)
(0.425985 0.136675 0)
(0.4423 0.0837677 0)
(0.454257 0.0266917 0)
(0.00970329 0.523077 0)
(0.0311386 0.557467 0)
(0.0532649 0.519344 0)
(0.0735837 0.510196 0)
(0.0932458 0.505121 0)
(0.112716 0.495857 0)
(0.131701 0.483766 0)
(0.150111 0.470049 0)
(0.168024 0.454932 0)
(0.185552 0.438416 0)
(0.202835 0.420508 0)
(0.220041 0.401184 0)
(0.237337 0.380342 0)
(0.254871 0.357794 0)
(0.272739 0.333254 0)
(0.29096 0.306354 0)
(0.309439 0.27665 0)
(0.327918 0.243675 0)
(0.345982 0.206989 0)
(0.362949 0.166223 0)
(0.378058 0.121313 0)
(0.390137 0.0722576 0)
(0.398685 0.0200697 0)
(0.00900287 0.504162 0)
(0.0284271 0.535513 0)
(0.0482685 0.499415 0)
(0.0667089 0.49117 0)
(0.0845346 0.486294 0)
(0.102257 0.477364 0)
(0.119592 0.465759 0)
(0.136456 0.452524 0)
(0.152909 0.437814 0)
(0.169019 0.421602 0)
(0.184876 0.403875 0)
(0.200581 0.384604 0)
(0.216231 0.3637 0)
(0.2319 0.341008 0)
(0.247617 0.316306 0)
(0.263349 0.289317 0)
(0.278969 0.259719 0)
(0.294236 0.227186 0)
(0.30879 0.191431 0)
(0.322115 0.152245 0)
(0.333654 0.109643 0)
(0.342608 0.06371 0)
(0.348751 0.0153021 0)
(0.00838235 0.486788 0)
(0.0259578 0.515788 0)
(0.0435973 0.481463 0)
(0.0602544 0.47398 0)
(0.0762972 0.469233 0)
(0.0923234 0.460568 0)
(0.108029 0.449361 0)
(0.123333 0.436531 0)
(0.138284 0.42218 0)
(0.152914 0.406265 0)
(0.167274 0.388766 0)
(0.181417 0.369654 0)
(0.195387 0.348852 0)
(0.209207 0.32624 0)
(0.222863 0.301646 0)
(0.236288 0.274862 0)
(0.249351 0.245656 0)
(0.261834 0.213798 0)
(0.273445 0.179098 0)
(0.283799 0.141439 0)
(0.292507 0.100871 0)
(0.29904 0.0575043 0)
(0.303306 0.0120287 0)
(0.00783634 0.470828 0)
(0.0236876 0.498162 0)
(0.039195 0.465433 0)
(0.0541205 0.458576 0)
(0.0684114 0.45389 0)
(0.0827888 0.445436 0)
(0.0968834 0.434567 0)
(0.110629 0.422089 0)
(0.124063 0.408067 0)
(0.13719 0.39245 0)
(0.150032 0.375218 0)
(0.162605 0.356346 0)
(0.174915 0.335774 0)
(0.186947 0.313407 0)
(0.198657 0.289115 0)
(0.209961 0.262742 0)
(0.220725 0.234117 0)
(0.230759 0.203077 0)
(0.239824 0.169491 0)
(0.247626 0.133292 0)
(0.253883 0.0945282 0)
(0.258224 0.053297 0)
(0.260638 0.0101423 0)
(0.00733762 0.456163 0)
(0.0215444 0.482468 0)
(0.0349935 0.451287 0)
(0.0481985 0.444919 0)
(0.0607463 0.440212 0)
(0.0735083 0.431926 0)
(0.0859978 0.421347 0)
(0.0981828 0.409179 0)
(0.110091 0.395462 0)
(0.121703 0.380141 0)
(0.13302 0.363206 0)
(0.144029 0.344636 0)
(0.154706 0.324387 0)
(0.165008 0.302386 0)
(0.174867 0.278539 0)
(0.184182 0.252727 0)
(0.192816 0.224824 0)
(0.20059 0.19471 0)
(0.207293 0.16229 0)
(0.212679 0.127519 0)
(0.216525 0.0904306 0)
(0.218554 0.0510993 0)
(0.218831 0.00995782 0)
(0.00685889 0.442863 0)
(0.019483 0.468707 0)
(0.030958 0.439091 0)
(0.0424189 0.433066 0)
(0.0532167 0.428253 0)
(0.0643837 0.420103 0)
(0.0752594 0.409776 0)
(0.085877 0.39789 0)
(0.0962458 0.384456 0)
(0.106327 0.36943 0)
(0.116108 0.352812 0)
(0.12555 0.33459 0)
(0.134604 0.314735 0)
(0.143202 0.293198 0)
(0.151253 0.269909 0)
(0.158636 0.244784 0)
(0.165202 0.217729 0)
(0.17077 0.188655 0)
(0.175133 0.157494 0)
(0.178071 0.124205 0)
(0.1794 0.0887911 0)
(0.178937 0.0512808 0)
(0.176853 0.0119808 0)
(0.00632 0.430498 0)
(0.0173073 0.456341 0)
(0.0268621 0.428603 0)
(0.0365216 0.422777 0)
(0.0455123 0.417752 0)
(0.0550396 0.409692 0)
(0.0642235 0.399581 0)
(0.0732117 0.387944 0)
(0.08197 0.37477 0)
(0.0904511 0.360035 0)
(0.0986303 0.343751 0)
(0.106447 0.325918 0)
(0.113831 0.306525 0)
(0.120694 0.285543 0)
(0.126923 0.262929 0)
(0.132382 0.238624 0)
(0.136913 0.21256 0)
(0.140328 0.184675 0)
(0.142424 0.154911 0)
(0.143012 0.12321 0)
(0.141961 0.0895056 0)
(0.139211 0.0537163 0)
(0.135055 0.0159053 0)
(0.0058865 0.421012 0)
(0.0155128 0.447093 0)
(0.0233408 0.420937 0)
(0.0312836 0.41516 0)
(0.0386424 0.409923 0)
(0.0467152 0.401968 0)
(0.0543738 0.392041 0)
(0.0619077 0.380633 0)
(0.0692244 0.36769 0)
(0.0762771 0.353226 0)
(0.0830309 0.337261 0)
(0.0894032 0.319806 0)
(0.0953078 0.300871 0)
(0.100637 0.280448 0)
(0.105261 0.258514 0)
(0.109033 0.235032 0)
(0.111777 0.209962 0)
(0.113296 0.183263 0)