/*--------------------------------*- C++ -*----------------------------------*\
| =========                 |                                                 |
| \\      /  F ield         | OpenFOAM: The Open Source CFD Toolbox           |
|  \\    /   O peration     | Version:  2206                                  |
|   \\  /    A nd           | Website:  www.openfoam.com                      |
|    \\/     M anipulation  |                                                 |
\*---------------------------------------------------------------------------*/
FoamFile
{
    version     2.0;
    format      ascii;
    arch        "LSB;label=32;scalar=64";
    class       volScalarField;
    location    "0.275";
    object      alpha.water;
}
// * * * * * * * * * * * * * * * * * * * * * * * * * * * * * * * * * * * * * //

dimensions      [0 0 0 0 0 0 0];

internalField   nonuniform List<scalar> 
2268
(
1
1
1
1
1
1
1
1
1
1
1
1
1
1
1
1
0.999999
0.999999
0.999999
0.999999
0.999999
1
1
1
1
1
1
1
1
1
1
1
1
1
1
1
1
1
0.999999
0.999999
0.999999
1
0.999998
0.999998
1
1
1
1
1
1
1
1
1
1
1
1
1
1
1
1
1
1
1
1
1
0.999999
0.999998
0.999999
1
1
1
1
1
1
1
1
1
1
1
1
1
1
1
1
1
1
1
1
1
1
1
1
1
1
1
1
1
1
1
1
1
1
1
1
1
1
1
1
1
1
1
1
1
1
1
1
1
1
1
1
1
1
1
1
1
1
0.999999
0.999999
1
1
1
1
1
1
1
1
1
1
1
1
1
1
1
1
1
1
1
1
1
0.999999
0.999999
0.999999
1
1
1
1
1
1
1
1
1
1
0.999999
0.999999
0.999999
1
1
1
1
1
1
1
1
0.999999
0.999999
0.999999
1
1
1
1
1
1
1
1
6.02765e-06
6.02765e-06
0.000138939
0.0940228
0.237875
0.290503
0.437412
0.669746
0.768915
0.822091
0.861681
0.860688
0.855294
0.870101
0.846292
0.498745
0.0258046
0.0258046
0.0258046
6.02765e-06
0.000344449
0.0233186
0.0380326
0.0228115
0.0184351
0.0253313
0.651348
0.982239
0.985384
0.986067
0.98623
0.986197
0.986255
0.984089
0.941247
0.463592
0.0258046
0.114366
2.45437e-05
0.00358403
0.0121957
0.00502135
0.00666678
0.0105431
0.469212
0.960589
0.985768
0.986074
0.986214
0.986284
0.986301
0.9863
0.986301
0.986121
0.980002
0.331316
0.409517
7.94312e-05
0.00107132
0.000719355
0.00201018
0.00403203
0.370114
0.954236
0.987469
0.986906
0.986362
0.986124
0.986214
0.986284
0.984788
0.986121
0.985836
0.984732
0.946438
0.453066
4.44732e-05
5.03253e-05
0.000136018
0.00116389
0.327402
0.95053
0.989966
0.989074
0.987628
0.98691
0.986435
0.986
0.980333
0.923242
0.812681
0.793992
0.940563
0.929155
0.685231
3.93662e-05
4.43906e-05
0.00908245
0.367381
0.970724
0.993704
0.991925
0.989965
0.989077
0.986832
0.982497
0.889615
0.635414
0.316189
0.118126
0.0973679
0.255803
0.809057
0.820035
4.09263e-05
0.0913969
0.577901
0.997277
0.996585
0.995145
0.993704
0.991935
0.986834
0.914223
0.604306
0.193154
0.00482776
0.000112458
5.00801e-05
0.000908013
0.00868652
0.54865
0.728053
0.585635
0.86693
0.99981
0.998981
0.997432
0.996586
0.994472
0.986469
0.849788
0.407273
0.0149629
0.000172951
0.000179119
3.73924e-05
1.21175e-06
3.82939e-05
0.000918382
0.0326596
0.681865
0.999999
0.999999
0.999999
1
1
1
1
1
1
1
1
1
0.999999
0.999999
0.999999
1
1
1
1
1
1
1
1
0.999999
0.999999
1
1
1
1
1
1
1
1
1
1
1
1
1
1
1
1
1
1
1
1
1
0.999999
1
1
1
1
1
1
1
1
1
1
1
1
1
1
1
1
1
1
1
1
1
1
1
1
1
1
1
1
1
1
1
1
1
1
1
1
1
1
1
1
1
1
1
1
1
1
1
0.999999
0.999999
1
1
1
0.999999
0.999999
0.999999
0.999999
0.999999
0.999999
0.999999
0.999999
0.999998
0.999998
0.999998
0.999999
0.999999
0.999993
0.999991
0.999984
1
0.999988
0.999986
0.99999
0.999991
0.999992
0.999991
0.99999
0.999988
0.999986
0.999984
0.999981
0.999979
0.999977
0.999972
0.999964
0.999954
0.999938
0.99991
0.999873
0.999807
0.999698
0.99954
0.999987
0.999811
0.999805
0.999839
0.999853
0.999848
0.999833
0.999811
0.999781
0.999743
0.999694
0.999632
0.999556
0.999467
0.999355
0.999206
0.997743
0.991593
0.976402
0.948498
0.906524
0.847454
0.749816
0.99959
0.972019
0.976717
0.977417
0.974282
0.969004
0.961472
0.950878
0.936768
0.918231
0.894346
0.864609
0.828054
0.783027
0.727763
0.661515
0.567432
0.465628
0.362849
0.263282
0.174497
0.0768315
6.00718e-08
0.660524
0.386842
0.392108
0.386964
0.369155
0.347685
0.320942
0.290609
0.256403
0.219781
0.181778
0.143836
0.106671
0.0708863
0.0373751
0.00331425
2.01476e-19
-6.26003e-20
6.99413e-35
-2.50973e-22
2.04198e-11
4.1795e-10
3.46966e-08
0.00108318
0
-4.01556e-21
0
-4.90181e-25
0
0
-3.88906e-12
-2.25665e-11
-1.24007e-10
-4.44674e-10
-1.06129e-09
-1.58235e-09
-1.65413e-09
-1.5811e-09
-1.31775e-09
-1.02811e-09
-7.37391e-10
-3.32638e-10
-8.89889e-11
-3.7993e-27
2.04198e-11
3.74605e-10
-3.08849e-18
-2.31777e-17
-2.32236e-16
-4.38354e-15
-5.75243e-14
-5.935e-13
-4.46291e-12
-2.73126e-11
-1.43721e-10
-6.01278e-10
-1.96709e-09
-4.23146e-09
-5.3161e-09
-5.12207e-09
-4.23824e-09
-3.18392e-09
-2.21788e-09
-1.41388e-09
-4.17549e-10
-2.17019e-13
1.13138e-11
2.75529e-10
4.26885e-09
-5.20444e-18
-4.83597e-17
-6.73643e-16
-1.12552e-14
-1.39652e-13
-1.36135e-12
-9.57436e-12
-5.52328e-11
-2.67963e-10
-1.04589e-09
-3.12949e-09
-6.20184e-09
-6.95966e-09
-6.03074e-09
-4.51917e-09
-3.06839e-09
-1.91945e-09
-1.06407e-09
6.59041e-11
1.00053e-11
2.19232e-10
2.73821e-09
4.15847e-08
-2.87309e-18
-5.9699e-17
-1.584e-15
-2.52042e-14
-2.94613e-13
-2.63286e-12
-1.74847e-11
-9.37981e-11
-4.13511e-10
-1.45329e-09
-3.8722e-09
-6.79687e-09
-6.41459e-09
-4.76195e-09
-3.08186e-09
-1.79357e-09
-9.43353e-10
-3.74362e-10
1.67656e-09
3.03285e-10
2.72177e-09
2.31719e-08
0.000145702
-1.98738e-18
-1.33218e-16
-3.49822e-15
-5.36488e-14
-5.8348e-13
-4.75703e-12
-2.93462e-11
-1.43589e-10
-5.61595e-10
-1.71715e-09
-3.91292e-09
-5.79506e-09
-4.31776e-09
-2.61211e-09
-1.37755e-09
-6.27141e-10
-2.29894e-10
0
2.94146e-09
3.26054e-08
1.69072e-07
2.15215e-07
0.00134461
-3.90181e-18
-2.91968e-16
-7.29858e-15
-1.05692e-13
-1.06548e-12
-7.9075e-12
-4.44129e-11
-1.9322e-10
-6.5046e-10
-1.65849e-09
-3.04828e-09
-3.56198e-09
-2.05309e-09
-9.89827e-10
-3.96346e-10
-1.08043e-10
6.95926e-12
1.99538e-10
5.4521e-09
9.02503e-08
1.87116e-06
8.40754e-05
0.00175922
-7.9327e-18
-4.79115e-16
-1.12703e-14
-1.56724e-13
-1.48205e-12
-1.01332e-11
-5.16127e-11
-1.98095e-10
-5.68311e-10
-1.18561e-09
-1.70033e-09
-1.50156e-09
-7.01098e-10
-2.68212e-10
-7.07814e-11
1.1144e-12
2.06196e-11
9.71322e-11
8.28635e-10
9.83441e-09
1.71869e-07
0.000107897
0.000722466
-1.0196e-17
-5.40022e-16
-1.19806e-14
-1.5738e-13
-1.3891e-12
-8.73598e-12
-4.01742e-11
-1.35818e-10
-3.33282e-10
-5.75263e-10
-6.59813e-10
-4.58875e-10
-1.78203e-10
-5.13924e-11
-2.64117e-12
7.77667e-12
2.05783e-11
1.59836e-10
1.22321e-09
1.06227e-08
1.03711e-07
9.18539e-06
5.68127e-05
-7.86284e-18
-3.77693e-16
-7.88935e-15
-9.71504e-14
-7.96382e-13
-4.59089e-12
-1.90381e-11
-5.69489e-11
-1.21145e-10
-1.7754e-10
-1.69975e-10
-9.84997e-11
-3.2495e-11
-5.96993e-12
1.07272e-12
1.40631e-11
3.06892e-11
1.85319e-10
1.12559e-09
8.45955e-09
2.19806e-07
1.35173e-06
2.41226e-06
-2.83357e-18
-1.24468e-16
-2.43608e-15
-2.79989e-14
-2.1263e-13
-1.12433e-12
-4.23013e-12
-1.13507e-11
-2.14328e-11
-2.76499e-11
-2.32183e-11
-1.18363e-11
-3.28408e-12
6.87774e-15
6.00355e-13
3.88694e-12
1.19406e-11
4.0775e-11
1.35378e-10
6.46252e-10
2.12676e-09
5.96386e-07
2.82773e-05
-2.38617e-22
-5.28671e-21
-5.0345e-20
-2.63714e-19
-7.81711e-19
-1.02942e-18
2.85323e-35
4.56517e-34
0
7.30427e-33
-7.53022e-34
-1.16798e-30
5.71547e-15
1.03452e-13
6.76319e-13
2.99127e-12
9.57824e-12
2.08954e-11
5.73617e-11
5.07698e-10
1.25587e-09
4.30917e-09
3.90613e-09
-1.51707e-22
-3.33245e-21
-3.25839e-20
-1.79461e-19
-5.76831e-19
-8.02497e-19
5.36692e-22
5.78033e-17
4.39529e-16
8.43688e-16
1.0291e-15
1.83417e-15
1.24751e-14
7.20117e-14
3.35467e-13
1.7819e-12
7.5817e-12
1.74364e-11
5.1837e-11
6.04376e-09
2.30013e-08
2.21929e-08
4.13429e-09
-6.37716e-23
-1.41355e-21
-1.4547e-20
-8.87252e-20
-3.56078e-19
-9.75247e-19
-1.80398e-18
-2.04702e-18
-6.74184e-19
-8.56104e-30
1.21266e-17
5.9478e-16
8.82518e-15
5.22979e-14
1.94572e-13
6.03439e-13
1.05077e-12
4.48518e-13
1.72035e-13
3.02282e-09
3.21163e-08
3.8723e-08
3.87312e-08
-1.27151e-23
-2.79912e-22
-2.92082e-21
-1.82041e-20
-7.52028e-20
-2.13644e-19
-4.12955e-19
-4.91751e-19
-1.6775e-19
-5.20537e-30
7.81583e-19
1.17074e-16
3.40134e-15
3.43722e-14
1.3461e-13
2.66064e-13
3.38442e-13
3.07873e-13
1.66986e-13
1.19402e-13
5.03096e-14
1.74681e-14
4.77852e-11
-4.96264e-30
-2.28411e-29
-2.20824e-29
-1.6608e-42
-8.83491e-40
-2.63398e-37
5.29559e-24
2.47084e-22
9.05699e-22
8.8867e-22
4.09865e-20
1.3418e-18
1.85486e-16
5.20085e-15
4.74654e-14
1.69149e-13
2.96877e-13
3.33644e-13
3.26322e-13
1.8697e-13
6.77741e-14
1.20503e-14
3.19904e-15
0
-3.16772e-51
0
1.09492e-33
7.80043e-32
4.45147e-30
2.6928e-28
1.66011e-26
5.9462e-25
9.93207e-24
4.88665e-22
1.4789e-20
2.39888e-18
2.11373e-16
4.35533e-15
3.28381e-14
1.16082e-13
2.30776e-13
2.74763e-13
2.82229e-13
2.82229e-13
2.82206e-13
2.28332e-13
0
0
5.53372e-39
5.71014e-37
4.40111e-35
1.79891e-33
1.12866e-31
1.13069e-29
4.73339e-28
-1.41248e-25
2.64286e-25
1.39194e-23
1.38363e-21
1.32579e-18
7.40466e-17
1.25035e-15
8.76153e-15
3.17726e-14
7.01474e-14
1.01887e-13
1.00552e-13
8.66751e-14
1.04618e-13
-3.90514e-40
-7.10446e-40
-4.4696e-44
2.7697e-40
-2.52429e-37
-1.8626e-35
-4.18933e-34
9.77653e-33
4.36319e-31
-3.01215e-29
4.27685e-28
1.68337e-26
7.97206e-25
8.20186e-22
7.99987e-20
1.99166e-18
1.96856e-17
9.56474e-17
2.86367e-16
6.32709e-16
1.14196e-15
1.71054e-15
2.0609e-15
-2.89278e-40
-1.26355e-39
-6.44818e-40
-2.89067e-41
-2.33486e-39
-1.60156e-37
1.36945e-39
7.28523e-38
6.32787e-36
1.41492e-34
5.32374e-33
2.31653e-31
2.10896e-29
2.52067e-25
1.04283e-22
3.96175e-21
4.93411e-20
2.53666e-19
7.04868e-19
1.33759e-18
2.01908e-18
2.62655e-18
3.04531e-18
-4.97039e-47
0
0
2.46822e-48
2.53151e-46
2.0767e-44
1.4215e-42
1.55543e-40
8.6569e-39
1.98442e-37
1.2744e-35
6.00309e-34
3.1197e-32
3.69308e-29
3.8806e-27
8.43227e-26
8.34302e-25
6.70506e-24
6.82179e-23
5.98036e-22
2.87909e-21
7.85558e-21
1.44442e-20
0
2.45928e-56
5.66668e-54
8.64009e-52
9.85198e-50
8.88897e-48
6.7683e-46
8.27308e-44
5.12823e-42
1.31233e-40
9.99289e-39
5.04105e-37
1.89931e-35
6.08765e-33
6.81763e-30
2.83825e-28
3.71503e-27
2.67131e-26
2.08084e-25
2.3975e-24
1.8289e-23
6.72171e-23
1.40713e-22
3.45626e-63
1.84362e-60
4.76283e-58
6.62815e-56
-1.28158e-53
-2.1447e-52
-6.51514e-50
9.92393e-48
8.55344e-46
-5.34276e-43
1.84192e-42
1.17933e-40
4.95662e-39
7.16504e-37
2.7452e-33
3.68511e-31
8.66187e-30
7.29234e-29
3.95208e-28
3.17668e-27
3.85352e-26
2.36849e-25
6.62328e-25
0
0
-7.53007e-61
-5.50447e-58
-2.8886e-56
-3.44831e-54
-2.17796e-52
6.9676e-55
5.03459e-53
-8.23313e-48
1.88893e-49
1.00452e-47
8.6996e-46
4.24516e-44
3.86064e-38
8.50061e-35
4.93892e-33
6.79621e-32
3.81847e-31
1.71412e-30
1.77876e-29
2.04419e-28
9.02671e-28
-5.3666e-66
-2.15856e-65
-1.98201e-66
-1.19987e-64
-1.71695e-62
-1.9105e-60
4.08619e-61
3.81958e-59
6.21905e-57
2.29008e-55
1.51325e-53
1.76989e-51
9.94898e-50
4.98532e-48
4.44108e-46
3.81157e-42
1.28727e-39
4.69792e-38
4.79157e-37
1.99708e-36
4.98503e-36
7.81862e-36
2.05442e-37
0
-5.95782e-88
4.85429e-74
1.21007e-71
2.26008e-69
3.37723e-67
4.20673e-65
7.09553e-63
8.42701e-61
3.54621e-59
3.5483e-57
3.63924e-55
2.30951e-53
1.36193e-51
7.33414e-50
2.69882e-47
1.11678e-43
1.13816e-41
2.05728e-40
1.15725e-39
3.28211e-39
5.38338e-39
9.31113e-41
1.61216e-84
1.43868e-81
6.28999e-79
1.82655e-76
3.83112e-74
5.57425e-72
9.22674e-70
1.25108e-67
2.71647e-65
1.32205e-63
1.13696e-61
1.83963e-59
1.35641e-57
9.2961e-56
5.8381e-54
2.09699e-51
2.45812e-47
5.61724e-45
1.35687e-43
7.94651e-43
1.93994e-42
2.56454e-42
2.54242e-44
7.40051e-90
8.61982e-87
3.95072e-84
-8.19335e-81
-5.11059e-78
-3.19526e-76
-9.52947e-74
1.82122e-72
6.09009e-70
-1.97711e-66
5.1692e-66
6.89299e-64
6.02827e-62
4.89995e-60
3.66967e-58
2.69405e-56
3.25709e-52
6.30468e-49
2.76439e-47
2.17996e-46
5.74125e-46
7.16997e-46
2.05688e-47
-1.03352e-105
-2.44423e-90
-1.40981e-86
-4.9532e-84
-5.53628e-82
-1.33617e-79
-1.99385e-77
2.90068e-77
8.72833e-75
1.61699e-73
1.07107e-70
1.85631e-68
1.99656e-66
1.99358e-64
1.86112e-62
1.60876e-60
2.16155e-57
2.77715e-53
4.89042e-51
8.34377e-50
3.30669e-49
4.71778e-49
1.95301e-50
-1.22993e-91
-1.24962e-93
-3.38361e-91
-6.3964e-89
-2.13054e-86
-5.33756e-84
2.72725e-87
6.80721e-85
1.47349e-82
2.81055e-80
4.80869e-78
7.47061e-76
2.2764e-73
2.97748e-71
3.63276e-69
4.123e-67
1.60768e-64
1.71468e-58
5.28537e-55
2.30086e-53
1.53697e-52
2.591e-52
1.56898e-54
0
8.73496e-109
6.66677e-105
9.87236e-102
8.26733e-99
4.85146e-96
2.20579e-93
8.48167e-91
6.10804e-88
7.80598e-86
1.97258e-83
9.76158e-81
2.03447e-78
3.88644e-76
6.90867e-74
1.15014e-71
1.80308e-69
2.67489e-67
3.77151e-65
5.07436e-63
6.53912e-61
8.21983e-59
-7.18439e-56
0
1.16816e-124
-5.05444e-114
-3.46021e-110
-3.05302e-105
-5.95242e-102
-1.33571e-99
-5.48433e-97
9.78426e-96
5.72416e-93
-1.84634e-88
1.9838e-87
7.97265e-85
2.65783e-82
8.24045e-80
2.39173e-77
6.53451e-75
1.68857e-72
4.14407e-70
9.6945e-68
2.16886e-65
4.70502e-63
-1.11111e-58
0
-1.2127e-123
-3.58186e-120
-4.96783e-115
-2.1928e-111
-1.03228e-108
-1.68747e-105
-1.61185e-103
6.92499e-108
-3.71218e-96
1.40165e-101
1.69425e-98
1.87194e-95
4.11759e-92
3.87986e-89
3.42815e-86
2.85755e-83
2.25811e-80
1.69873e-77
1.22091e-74
8.40859e-72
5.5988e-69
-4.19103e-65
0
-1.5321e-123
-4.25418e-125
-1.31066e-127
-2.42317e-124
-4.40187e-121
-1.73863e-117
-3.00435e-125
-1.93637e-121
-1.19321e-118
-1.03267e-115
-1.77665e-114
0
-9.2571e-106
2.05071e-105
-2.70651e-102
-8.39593e-100
1.34219e-96
-8.98324e-94
0
-1.18216e-87
-9.07895e-85
-2.81397e-70
1
1
1
1
1
1
1
1
1
1
0.999997
0.999982
0.999998
0.999982
0.999891
0.999514
0.999939
0.999532
0.954846
0.722547
0.986645
0.729164
0.270636
7.15144e-05
0.392948
2.92553e-05
1.69107e-06
-2.06896e-07
-7.45087e-08
5.36139e-08
2.18961e-08
5.84275e-09
5.48817e-08
2.12793e-08
6.45684e-09
5.1142e-09
6.43517e-08
1.13756e-07
3.89529e-08
1.5502e-09
3.96522e-07
1.08541e-06
2.72767e-06
6.04191e-11
1.09186e-05
0.000323437
2.24126e-05
4.48866e-11
0.000967171
0.00175865
8.90085e-05
3.80942e-11
0.00176107
0.00176245
1.6069e-05
3.18587e-11
0.00176258
0.0016465
3.18587e-11
2.61858e-11
0.0017243
0.000527532
2.50013e-11
2.06574e-11
0.000140699
0.000148227
1.77531e-11
1.38502e-11
2.98131e-05
0.00017049
3.0102e-10
8.54474e-12
6.56651e-05
6.81323e-05
3.93192e-13
8.35608e-12
1.5198e-09
6.94163e-07
2.93192e-13
1.47014e-12
8.82923e-10
1.02069e-12
1.70566e-13
1.69817e-13
3.87147e-08
2.79183e-08
1.66543e-12
3.70554e-16
3.19904e-15
3.48194e-09
6.95939e-09
3.71588e-16
8.97735e-16
4.30887e-17
4.30887e-17
2.08885e-17
1.31313e-13
3.30158e-14
7.97285e-17
1.55795e-18
1.19476e-13
5.16408e-14
1.5243e-16
6.67815e-20
2.13899e-15
2.03787e-16
4.92728e-19
2.55992e-21
3.34231e-18
2.49128e-18
6.56682e-20
8.19015e-23
2.91208e-20
4.70761e-20
5.07836e-20
3.91486e-24
2.93038e-22
4.56541e-22
3.44306e-22
7.85584e-26
1.6782e-24
2.81407e-24
2.39874e-24
1.87832e-27
3.14335e-27
5.83734e-27
5.49172e-27
3.15052e-29
1.14246e-32
1.18129e-31
3.77394e-31
6.41029e-31
9.92098e-36
3.49419e-34
2.58023e-33
8.06363e-33
2.26139e-39
4.54195e-37
1.03307e-35
7.50448e-35
5.05778e-45
1.01918e-40
2.06779e-38
5.15027e-37
1.91834e-48
3.1366e-45
3.17708e-41
2.52939e-39
1.76961e-51
1.26495e-48
3.38734e-44
8.45756e-42
8.6184e-55
4.66864e-52
2.05674e-47
2.0717e-44
1.45215e-58
1.13633e-55
1.35972e-51
3.14183e-47
1.05732e-63
4.05105e-60
4.22803e-55
2.46038e-50
-9.18041e-70
2.06657e-62
5.80582e-57
9.70016e-55
0.999999
0.999995
0.999964
0.99981
0.998982
0.995652
0.931909
0.6943
0.263807
0.000166339
1.20622e-05
8.02882e-07
1.66387e-06
8.50891e-06
9.61298e-07
1.00581e-06
4.2621e-05
0.00103745
0.555922
0.999995
0.999965
0.999811
0.998983
0.979111
0.779032
0.231715
0.000230445
1.5092e-05
8.96248e-07
8.29176e-08
7.02552e-09
1.67518e-06
1.21507e-06
6.85153e-07
1.17736e-07
-1.48626e-06
0.000164066
0.520824
0.999901
0.999434
0.987922
0.806046
0.353132
0.00026442
2.058e-05
1.32438e-06
6.69829e-08
6.03319e-08
2.13761e-09
1.18179e-09
1.04639e-08
8.53836e-10
3.78436e-09
-1.03091e-08
1.12057e-07
2.66799e-05
0.394087
0.97342
0.797166
0.406788
0.000201502
1.52597e-05
6.35553e-07
1.05608e-07
3.73877e-09
8.9901e-10
7.52188e-10
6.50399e-10
1.08839e-09
2.39217e-09
7.96684e-10
4.84811e-08
5.748e-08
1.88787e-08
5.25297e-06
0.106091
0.328364
0.000112084
8.86311e-06
-2.28825e-07
9.79319e-08
-4.4901e-09
2.57111e-09
5.38456e-10
4.27666e-10
4.74706e-10
5.97732e-10
1.09422e-09
9.42917e-10
7.16321e-10
2.72286e-07
4.1273e-07
3.08188e-07
1.44335e-06
7.22672e-05
6.44122e-06
-3.26296e-07
6.22353e-08
4.99383e-09
1.14667e-08
1.50591e-08
1.37112e-08
4.47984e-10
4.14059e-10
4.65062e-10
5.94647e-10
6.23062e-10
6.11896e-10
6.2035e-10
7.63076e-07
1.4509e-06
1.06187e-06
2.78145e-05
6.56711e-05
1.62716e-08
5.87672e-09
5.77501e-09
1.23089e-08
1.51964e-08
2.98403e-08
1.36567e-09
4.14059e-10
4.13058e-10
4.7701e-10
5.78495e-10
5.77581e-10
5.78814e-10
6.57876e-10
1.78843e-06
6.6683e-06
1.50776e-06
3.86821e-05
0.000110001
5.69483e-09
6.36113e-09
7.88111e-09
2.34315e-08
1.53555e-08
8.93426e-09
4.25552e-10
4.24268e-10
4.12425e-10
4.45568e-10
4.99457e-10
4.98447e-10
5.45178e-10
2.30618e-09
2.82491e-06
1.87536e-05
1.59476e-06
2.96559e-06
0.00261122
6.35438e-09
6.36609e-09
8.55625e-09
5.13701e-09
2.00856e-09
4.02134e-10
4.6085e-10
4.16389e-10
3.80557e-10
3.79397e-10
3.7981e-10
4.04002e-10
9.56691e-10
3.27769e-08
2.72517e-06
2.90297e-05
8.9229e-05
9.27948e-05
0.00824626
7.32811e-09
7.26446e-09
1.64712e-09
3.50968e-10
3.77315e-10
3.87376e-10
4.18944e-10
3.32981e-10
2.94975e-10
2.72534e-10
2.75448e-10
4.33056e-10
4.09869e-09
8.7758e-08
1.55573e-06
1.95671e-05
0.00233711
0.00641083
0.00824626
3.92225e-09
1.06955e-09
3.45722e-10
3.50547e-10
3.42008e-10
3.10156e-10
2.84873e-10
2.29656e-10
1.93703e-10
1.45085e-10
1.4857e-10
4.50928e-10
7.4487e-09
1.46146e-07
2.2856e-06
2.58707e-05
0.00264176
0.00819864
0.00824626
1.01984e-09
4.06949e-10
3.3834e-10
2.89897e-10
2.51164e-10
2.18e-10
1.85752e-10
1.46174e-10
9.98931e-11
5.57758e-11
5.44586e-11
2.39025e-10
4.19137e-09
7.63771e-08
1.12968e-06
6.00494e-05
0.000898818
0.00241687
0.00373302
3.51586e-10
3.91829e-10
2.83097e-10
2.19965e-10
1.80061e-10
1.49024e-10
1.14761e-10
7.39044e-11
3.60812e-11
1.49632e-11
1.27866e-11
5.72643e-11
8.28388e-10
1.42561e-08
2.0861e-07
1.19641e-05
5.06403e-05
9.00554e-05
8.25498e-05
2.77392e-10
3.07131e-10
2.06295e-10
1.54595e-10
1.1873e-10
8.61951e-11
5.32021e-11
2.49798e-11
8.41427e-12
2.77281e-12
2.37418e-12
1.26986e-11
1.67118e-10
2.59241e-09
4.12442e-08
5.5012e-07
4.49432e-06
1.70873e-05
1.31233e-05
2.51181e-10
1.95636e-10
1.31359e-10
9.02377e-11
5.97495e-11
3.48481e-11
1.5481e-11
5.08439e-12
1.25255e-12
3.74578e-13
4.68477e-13
4.23587e-12
3.46235e-11
4.3489e-10
5.90084e-09
7.79713e-08
6.815e-07
2.79164e-06
1.79112e-06
1.87081e-10
1.10504e-10
6.66915e-11
3.88705e-11
1.98385e-11
8.58809e-12
2.64097e-12
6.35977e-13
1.3631e-13
4.22599e-14
6.23753e-14
9.33385e-13
7.68491e-12
7.45218e-11
8.95903e-10
1.16686e-08
1.01313e-07
3.96749e-07
2.15309e-07
1.06271e-10
5.03226e-11
2.36784e-11
1.09419e-11
4.04333e-12
1.24254e-12
2.87299e-13
6.08418e-14
1.40228e-14
4.61882e-15
5.30597e-15
9.96216e-14
1.66346e-12
1.22083e-11
1.35519e-10
1.47032e-09
1.13808e-08
4.95988e-08
2.31145e-08
4.214e-11
1.60721e-11
5.19586e-12
1.82484e-12
5.07634e-13
1.19229e-13
2.59578e-14
5.99197e-15
1.55976e-15
5.10741e-16
3.22213e-16
6.39624e-15
1.64333e-13
2.91352e-12
2.28419e-11
1.93708e-10
1.24765e-09
5.51735e-09
2.24142e-09
1.12106e-11
3.30393e-12
6.59612e-13
1.84008e-13
4.47369e-14
1.02107e-14
2.51873e-15
6.51988e-16
1.77618e-16
5.48368e-17
2.04994e-17
4.36874e-16
1.06265e-14
3.28933e-13
5.03792e-12
2.53312e-11
1.55449e-10
5.54873e-10
2.0658e-10
1.99821e-12
4.53312e-13
5.24934e-14
1.42956e-14
3.67851e-15
9.69094e-16
2.64034e-16
7.08405e-17
1.90617e-17
5.6134e-18
1.53737e-18
2.48169e-17
7.31957e-16
2.13783e-14
5.63265e-13
5.36574e-12
2.54421e-11
6.35684e-11
2.20315e-11
2.19663e-13
4.27129e-14
3.55288e-15
1.15814e-15
3.33199e-16
9.65354e-17
2.6801e-17
7.11847e-18
1.87742e-18
5.35701e-19
1.07108e-19
1.53737e-18
4.49178e-17
1.41969e-15
4.17154e-14
5.89275e-13
4.3519e-12
6.73125e-12
3.26441e-12
1.13967e-14
2.88206e-15
2.63358e-16
9.97968e-17
3.04398e-17
8.998e-18
2.47991e-18
6.52804e-19
1.71146e-19
4.81687e-20
7.02913e-21
1.07108e-19
2.53471e-18
9.58818e-17
3.00304e-15
3.8821e-14
3.93111e-13
1.07212e-12
3.37054e-13
3.36064e-16
1.89309e-16
1.97855e-17
8.05353e-18
2.52981e-18
7.53658e-19
2.0924e-19
5.55451e-20
1.46476e-20
4.10596e-21
4.36943e-22
7.02913e-21
1.45616e-19
6.07732e-18
2.00602e-16
2.58072e-15
2.54646e-14
9.12414e-14
2.1674e-14
2.63545e-17
7.8753e-18
1.3335e-18
5.77872e-19
1.87823e-19
5.76149e-20
1.64214e-20
4.44709e-21
1.18565e-21
3.29931e-22
2.6422e-23
4.36943e-22
8.97341e-21
3.58939e-19
1.23985e-17
1.60376e-16
1.59559e-15
5.59066e-15
1.23448e-15
1.65095e-18
3.39809e-19
7.9226e-20
3.76581e-20
1.27735e-20
4.10835e-21
1.21295e-21
3.36577e-22
9.08979e-23
2.51803e-23
2.14221e-24
2.57563e-23
5.14839e-22
1.97862e-20
7.11551e-19
9.25701e-18
9.33807e-17
3.37031e-16
6.70372e-17
6.82544e-20
1.2128e-20
4.38915e-21
2.27757e-21
8.10899e-22
2.7555e-22
8.45849e-23
2.41181e-23
6.61293e-24
1.83234e-24
2.50273e-25
1.36417e-24
2.74762e-23
1.02079e-21
3.80485e-20
4.98079e-19
5.09997e-18
1.90585e-17
3.40725e-18
1.77522e-21
4.82816e-22
2.28752e-22
1.28299e-22
4.83219e-23
1.74143e-23
5.57836e-24
1.64016e-24
4.58329e-25
1.26508e-25
2.34371e-26
6.33174e-26
1.36417e-24
4.94053e-23
1.90173e-21
2.507e-20
2.60752e-19
1.00923e-18
1.62456e-19
5.20441e-23
2.12437e-23
1.10829e-23
6.72432e-24
2.71008e-24
1.03913e-24
3.48898e-25
1.06189e-25
3.0331e-26
8.38825e-27
1.83698e-27
2.75216e-27
6.33174e-26
2.24828e-24
8.91182e-23
1.18423e-21
1.25193e-20
5.02028e-20
7.29372e-21
1.49291e-24
8.38306e-25
5.06901e-25
3.276e-25
1.43499e-25
5.87167e-26
2.0762e-26
6.56668e-27
1.92299e-27
5.3569e-28
1.29743e-28
1.1225e-28
2.75216e-27
9.64268e-26
3.92719e-24
5.26599e-23
5.66108e-22
2.35312e-21
3.09451e-22
5.187e-26
3.03057e-26
2.18345e-26
1.49189e-26
7.18869e-27
3.15086e-27
1.17909e-27
3.89104e-28
1.17208e-28
3.30416e-29
8.48123e-30
4.30551e-30
1.12169e-28
3.90761e-27
1.63222e-25
2.21106e-24
2.41784e-23
1.04243e-22
1.24505e-23
1.69495e-27
1.06533e-27
8.69082e-28
6.40892e-28
3.40935e-28
1.60971e-28
6.40836e-29
2.21604e-29
6.89079e-30
1.97418e-30
5.23745e-31
1.55768e-31
4.21909e-30
1.49965e-28
6.41733e-27
8.79246e-26
9.78148e-25
4.37761e-24
4.76705e-25
4.5125e-29
3.38782e-29
3.19299e-29
2.60738e-29
1.53079e-29
7.84523e-30
3.34197e-30
1.21672e-30
3.92066e-31
1.14569e-31
3.10289e-32
5.37806e-33
1.49691e-31
5.46987e-30
2.39401e-28
3.32158e-27
3.75909e-26
1.74797e-25
1.74303e-26
8.31876e-31
9.89002e-31
1.06502e-30
1.00904e-30
6.50333e-31
3.65386e-31
1.6764e-31
6.45929e-32
2.16599e-32
6.47972e-33
1.78089e-33
1.81442e-34
5.04192e-33
1.90256e-31
8.50074e-30
1.19584e-28
1.37642e-27
6.65712e-27
6.10802e-28
1.61331e-32
2.53608e-32
3.24524e-32
3.46853e-32
2.64217e-32
1.62689e-32
8.10804e-33
3.32528e-33
1.16568e-33
3.58434e-34
9.96285e-35
6.3699e-36
1.61686e-34
6.33309e-33
2.88242e-31
4.11644e-30
4.81667e-29
2.426e-28
2.05879e-29
2.58691e-34
5.63578e-34
8.75031e-34
1.04261e-33
1.05335e-33
6.91388e-34
3.79029e-34
1.66485e-34
6.13133e-35
1.94602e-35
5.46829e-36
6.19591e-37
4.95144e-36
2.02491e-34
9.36465e-33
1.35945e-31
1.61607e-30
8.48774e-30
6.69975e-31
3.32626e-36
1.0293e-35
2.07512e-35
3.13373e-35
3.74112e-35
2.83047e-35
1.71575e-35
8.13003e-36
3.16231e-36
1.04062e-36
2.95904e-37
5.6887e-38
1.45255e-37
6.24346e-36
2.92539e-34
4.3225e-33
5.21615e-32
2.86088e-31
2.113e-32
3.145e-38
1.56859e-37
4.48035e-37
8.89197e-37
1.18356e-36
1.13e-36
7.53189e-37
3.88391e-37
1.60459e-37
5.49947e-38
1.58835e-38
3.70002e-39
4.09583e-39
1.86414e-37
8.81883e-36
1.32812e-34
1.62534e-33
9.32363e-33
6.48389e-34
2.02888e-40
1.93347e-39
8.48474e-39
2.24233e-38
3.61611e-38
4.28161e-38
3.21699e-38
1.82052e-38
8.03693e-39
2.8818e-39
8.50423e-40
2.14667e-40
1.11725e-40
5.41172e-39
2.57514e-37
3.95847e-36
4.90724e-35
2.94909e-34
1.94358e-35
8.99855e-43
1.85057e-41
1.34988e-40
5.12241e-40
1.08678e-39
1.50859e-39
1.34498e-39
8.39701e-40
3.98691e-40
1.50284e-40
4.55594e-41
1.18745e-41
3.0188e-42
1.53583e-40
7.312e-39
1.149e-37
1.44117e-36
9.08904e-36
5.71426e-37
2.30077e-45
1.28246e-43
1.78293e-42
1.06023e-41
3.09951e-41
5.04638e-41
5.51887e-41
3.8261e-41
1.9668e-41
7.83081e-42
2.44936e-42
6.48352e-43
1.12179e-43
4.29805e-42
2.0262e-40
3.26037e-39
4.13177e-38
2.74097e-37
1.61201e-38
2.67212e-48
5.94623e-46
1.90563e-44
1.93564e-43
8.01141e-43
1.60739e-42
2.06745e-42
1.68953e-42
9.60267e-43
4.09375e-43
1.32927e-43
3.22466e-44
5.49527e-45
1.17975e-43
5.50906e-42
9.00476e-41
1.14583e-39
7.95869e-39
4.44396e-40
2.63695e-53
8.08592e-49
9.36433e-47
2.12143e-45
1.44102e-44
5.06672e-44
8.20629e-44
5.38318e-44
2.83964e-44
1.19458e-44
4.27147e-45
4.27147e-45
4.27147e-45
5.49003e-45
8.0718e-44
2.18463e-42
3.4799e-41
2.7299e-40
4.42073e-40
)
;

boundaryField
{
    leftWall
    {
        type            zeroGradient;
    }
    rightWall
    {
        type            zeroGradient;
    }
    lowerWall
    {
        type            zeroGradient;
    }
    atmosphere
    {
        type            inletOutlet;
        inletValue      uniform 0;
        value           nonuniform List<scalar> 
46
(
0
0
0
0
0
0
0
0
0
0
0
0
0
0
0
0
0
0
0
0
0
0
0
0
0
0
0
0
0
9.36433e-47
2.12143e-45
1.44102e-44
5.06672e-44
8.20629e-44
5.38318e-44
2.83964e-44
1.19458e-44
4.27147e-45
4.27147e-45
4.27147e-45
5.49003e-45
8.0718e-44
2.18463e-42
3.4799e-41
2.7299e-40
4.42073e-40
)
;
    }
    defaultFaces
    {
        type            empty;
    }
}


// ************************************************************************* //
