/*--------------------------------*- C++ -*----------------------------------*\
| =========                 |                                                 |
| \\      /  F ield         | OpenFOAM: The Open Source CFD Toolbox           |
|  \\    /   O peration     | Version:  2206                                  |
|   \\  /    A nd           | Website:  www.openfoam.com                      |
|    \\/     M anipulation  |                                                 |
\*---------------------------------------------------------------------------*/
FoamFile
{
    version     2.0;
    format      ascii;
    arch        "LSB;label=32;scalar=64";
    class       volScalarField;
    location    "0.275";
    object      p;
}
// * * * * * * * * * * * * * * * * * * * * * * * * * * * * * * * * * * * * * //

dimensions      [1 -1 -2 0 0 0 0];

internalField   nonuniform List<scalar> 
2268
(
1619.26
1619.69
1619.62
1619.15
1618.42
1617.55
1616.61
1615.67
1614.79
1614.04
1613.48
1613.19
1613.26
1613.84
1614.92
1616.51
1618.54
1620.88
1623.3
1625.53
1627.41
1628.91
1629.92
1560.11
1560.54
1560.48
1560.02
1559.29
1558.4
1557.45
1556.5
1555.62
1554.85
1554.26
1553.92
1553.89
1554.21
1555.01
1556.38
1558.32
1560.75
1563.48
1566.24
1568.8
1570.94
1572.39
1500.64
1501.09
1501.05
1500.61
1499.87
1498.97
1497.99
1497.02
1496.11
1495.31
1494.68
1494.28
1494.19
1494.46
1495.17
1496.33
1497.96
1500.05
1502.55
1505.4
1508.46
1511.35
1513.39
1440.85
1441.33
1441.32
1440.9
1440.16
1439.23
1438.22
1437.22
1436.27
1435.43
1434.73
1434.25
1434.05
1434.17
1434.68
1435.62
1437
1438.81
1441.01
1443.58
1446.5
1449.55
1451.91
1380.71
1381.23
1381.26
1380.87
1380.12
1379.16
1378.11
1377.06
1376.06
1375.16
1374.38
1373.79
1373.44
1373.37
1373.64
1374.27
1375.31
1376.73
1378.49
1380.52
1382.75
1384.99
1386.8
1320.2
1320.76
1320.85
1320.48
1319.72
1318.72
1317.62
1316.51
1315.45
1314.46
1313.58
1312.84
1312.29
1311.97
1311.92
1312.14
1312.66
1313.43
1314.4
1315.44
1316.34
1316.84
1316.52
1259.29
1259.91
1260.05
1259.72
1258.94
1257.89
1256.73
1255.56
1254.41
1253.31
1252.28
1251.35
1250.55
1249.9
1249.4
1249.06
1248.82
1248.58
1248.15
1247.2
1245.08
1240.8
1232.86
1197.95
1198.65
1198.87
1198.56
1197.76
1196.68
1195.46
1194.21
1192.96
1191.73
1190.53
1189.37
1188.25
1187.17
1186.12
1185.01
1183.72
1182.02
1179.51
1175.62
1168.78
1158.65
1125.23
321.343
321.236
320.642
316.121
320.308
368.485
524.984
931.395
1310.25
1157.98
800.083
577.157
539.196
654.505
928.256
1243.82
1346.15
1309.79
1526.64
321.281
321.036
318.527
302.875
303.272
355.053
495.705
819.038
1173.55
1030.45
700.488
493.771
452.709
526.662
747.408
1088.6
1317.98
1263.94
1517.98
321.192
320.777
315.159
302.817
302.839
351.381
463.144
726.145
978.98
855.542
577.636
396.801
352.07
396.129
528.035
776.758
1096.59
1206.98
1568.09
321.06
320.513
315.612
304.335
302.645
335.913
424.736
614.262
778.684
675.978
448.644
293.057
242.187
256.01
303.761
440.888
714.701
1085.54
1899.55
320.891
320.449
316.512
306.439
294.804
309.318
372.726
499.637
590.885
491.73
305.52
177.119
120.894
92.996
74.8452
106.966
286.011
787.783
2080.92
320.767
320.531
316.801
297.62
270.554
273.294
313.397
387.76
412.992
300.221
149.144
56.6867
18.8951
7.93931
2.98789
8.22179
54.1201
391.867
1860.52
320.686
318.196
301.425
272.925
239.853
233.246
248.268
278.235
245.28
116.906
25.0709
4.14728
-1.55539
-1.64878
-1.40967
-0.435435
9.98006
106.412
1254.87
303.104
292.52
275.763
244.333
207.324
187.407
177.044
168.92
107.682
15.4844
-0.917483
-1.88632
-1.87677
-1.77545
-1.59873
-1.16865
2.49377
37.4062
654.662
1101.3
1102.1
1102.42
1102.16
1101.35
1100.2
1098.9
1097.51
1096.07
1094.59
1093.04
1091.42
1089.69
1087.81
1085.65
1083.03
1079.57
1074.6
1066.58
1053.1
1026.1
975.13
847.206
967.556
968.411
968.821
968.56
967.697
966.456
964.982
963.329
961.501
959.482
957.238
954.716
951.837
948.472
944.413
939.33
932.699
923.741
911.241
893.217
867.495
832.383
790.135
831.642
832.496
832.907
832.57
831.612
830.248
828.568
826.577
824.259
821.584
818.508
814.965
810.856
806.04
800.307
793.366
784.816
774.112
760.553
743.105
720.654
690.566
653.77
693.808
694.598
694.853
694.305
693.156
691.582
689.592
687.145
684.204
680.74
676.707
672.04
666.642
660.375
653.052
644.425
634.177
621.907
607.123
589.218
567.593
541.513
511.515
554.401
555.041
554.912
553.993
552.532
550.624
548.194
545.154
541.464
537.099
532.023
526.178
519.476
511.799
502.992
492.863
481.187
467.706
452.122
434.126
413.457
389.831
363.459
413.405
413.758
413.257
411.976
410.209
407.895
404.903
401.154
396.616
391.268
385.087
378.023
370.003
360.932
350.679
339.101
326.053
311.365
294.686
275.766
254.396
230.563
203.745
269.968
270.531
270.577
268.659
266.196
263.249
259.496
254.868
249.341
242.881
235.446
226.984
217.433
206.682
194.605
181.06
166.085
150.441
133.527
115.181
95.5579
75.2251
52.1809
133.643
130.978
128.346
124.528
120.854
117.534
113.589
108.87
103.348
97.1012
90.1155
82.4291
74.113
65.1317
55.5748
45.2312
34.864
27.9212
21.4222
15.1968
9.55816
3.48769
-0.561811
45.0334
25.146
22.8128
22.9681
21.8018
20.4337
18.7562
16.8527
14.7088
12.4169
10.0408
7.66727
5.34496
3.10507
1.01789
-0.886349
-1.35987
-1.4718
-1.48731
-1.48942
-1.49337
-1.49247
-1.49294
-1.06513
-1.33819
-1.4523
-1.47831
-1.49454
-1.50456
-1.51024
-1.51376
-1.51593
-1.51728
-1.5185
-1.52016
-1.52232
-1.52502
-1.52764
-1.53066
-1.55736
-1.5834
-1.60429
-1.62242
-1.64091
-1.66236
-1.67696
-1.70935
-1.73755
-1.68111
-1.67108
-1.66089
-1.65755
-1.65717
-1.65802
-1.65955
-1.66169
-1.6645
-1.66821
-1.67312
-1.67928
-1.68728
-1.69799
-1.71299
-1.7326
-1.7559
-1.78127
-1.80773
-1.83403
-1.85832
-1.81539
-1.80697
-1.80564
-1.80461
-1.80367
-1.80319
-1.80387
-1.80551
-1.80802
-1.81157
-1.81627
-1.82219
-1.82958
-1.83864
-1.84967
-1.86344
-1.88079
-1.90215
-1.92783
-1.95593
-1.98387
-2.00676
-2.02117
-1.94887
-1.94863
-1.94803
-1.94737
-1.94766
-1.94849
-1.95009
-1.95263
-1.95616
-1.96079
-1.96669
-1.97403
-1.983
-1.99389
-2.00713
-2.02349
-2.04409
-2.06977
-2.10029
-2.1314
-2.15997
-2.17721
-2.1852
-2.08639
-2.08655
-2.0868
-2.08711
-2.08827
-2.09005
-2.09256
-2.09594
-2.10033
-2.10589
-2.11284
-2.1214
-2.13184
-2.14452
-2.16015
-2.18003
-2.20576
-2.23788
-2.2746
-2.30978
-2.341
-2.35601
-2.37886
-2.22216
-2.22255
-2.22338
-2.22464
-2.22643
-2.22885
-2.23198
-2.23595
-2.24093
-2.24709
-2.25467
-2.26395
-2.27528
-2.28921
-2.30678
-2.32986
-2.36047
-2.39883
-2.44263
-2.4856
-2.52312
-2.53271
-2.59304
-2.35697
-2.3575
-2.35853
-2.36004
-2.36209
-2.36476
-2.36814
-2.37233
-2.37748
-2.38377
-2.39144
-2.40077
-2.41216
-2.42626
-2.44436
-2.46857
-2.50105
-2.5426
-2.59159
-2.64161
-2.6808
-2.71216
-2.79196
-2.49024
-2.49086
-2.49195
-2.49349
-2.49556
-2.49822
-2.50155
-2.50564
-2.51061
-2.5166
-2.52382
-2.53249
-2.54298
-2.55588
-2.57237
-2.59422
-2.62356
-2.662
-2.70844
-2.75606
-2.79773
-2.84328
-2.91638
-2.62226
-2.62283
-2.62385
-2.62529
-2.62725
-2.62975
-2.63287
-2.63667
-2.64122
-2.64665
-2.65307
-2.66065
-2.66964
-2.68045
-2.69378
-2.71081
-2.73319
-2.76245
-2.79811
-2.83614
-2.87343
-2.91621
-2.9732
-2.75283
-2.7533
-2.7542
-2.75553
-2.75734
-2.75965
-2.76251
-2.76596
-2.77006
-2.77488
-2.78051
-2.78703
-2.79459
-2.8034
-2.81379
-2.8263
-2.84188
-2.86159
-2.88531
-2.91094
-2.93734
-2.96903
-3.01066
-2.88192
-2.88231
-2.88313
-2.88435
-2.88602
-2.88816
-2.89078
-2.89392
-2.89763
-2.90194
-2.90693
-2.91264
-2.91918
-2.92665
-2.93517
-2.94495
-2.95644
-2.97019
-2.98622
-3.00344
-3.02153
-3.04373
-3.07315
-3.01002
-3.01037
-3.01112
-3.01227
-3.01383
-3.01581
-3.01823
-3.02111
-3.02449
-3.02839
-3.03287
-3.03797
-3.04376
-3.05031
-3.05769
-3.06596
-3.07533
-3.08604
-3.09805
-3.11079
-3.12431
-3.14071
-3.16147
-3.13772
-3.13804
-3.13875
-3.13983
-3.14128
-3.14313
-3.14537
-3.14803
-3.15114
-3.15471
-3.15878
-3.16339
-3.16858
-3.17442
-3.18093
-3.18817
-3.19624
-3.20524
-3.21507
-3.22544
-3.23647
-3.24933
-3.26459
-3.26549
-3.2658
-3.26646
-3.26746
-3.26881
-3.27052
-3.27259
-3.27504
-3.27789
-3.28116
-3.28487
-3.28905
-3.29374
-3.29896
-3.30474
-3.31112
-3.31816
-3.3259
-3.33426
-3.34306
-3.35241
-3.3629
-3.37465
-3.39346
-3.39375
-3.39437
-3.39531
-3.39656
-3.39813
-3.40004
-3.40229
-3.40489
-3.40787
-3.41124
-3.41502
-3.41922
-3.42388
-3.429
-3.43461
-3.44074
-3.44739
-3.45453
-3.46205
-3.46998
-3.47863
-3.48801
-3.52162
-3.52187
-3.52244
-3.52329
-3.52444
-3.52588
-3.52762
-3.52967
-3.53204
-3.53474
-3.53779
-3.54119
-3.54495
-3.54909
-3.55361
-3.55852
-3.56384
-3.56957
-3.57568
-3.58209
-3.58881
-3.59601
-3.6037
-3.64985
-3.6501
-3.65061
-3.65138
-3.65242
-3.65372
-3.65529
-3.65713
-3.65927
-3.66169
-3.66442
-3.66744
-3.67078
-3.67444
-3.67841
-3.6827
-3.6873
-3.69223
-3.69745
-3.70292
-3.70861
-3.71464
-3.72103
-3.77801
-3.77823
-3.77869
-3.77939
-3.78032
-3.78149
-3.78291
-3.78456
-3.78646
-3.78862
-3.79104
-3.79372
-3.79666
-3.79986
-3.80332
-3.80704
-3.81102
-3.81525
-3.81972
-3.82438
-3.82921
-3.83427
-3.83962
-3.90607
-3.90626
-3.90666
-3.90728
-3.9081
-3.90914
-3.91039
-3.91185
-3.91353
-3.91543
-3.91756
-3.91991
-3.92248
-3.92526
-3.92827
-3.93148
-3.93491
-3.93853
-3.94234
-3.9463
-3.95039
-3.95466
-3.95914
-4.03392
-4.03409
-4.03445
-4.03499
-4.03572
-4.03662
-4.03771
-4.03899
-4.04045
-4.04211
-4.04396
-4.046
-4.04822
-4.05062
-4.05321
-4.05598
-4.05891
-4.062
-4.06524
-4.06859
-4.07205
-4.07564
-4.0794
-4.16153
-4.16168
-4.162
-4.16247
-4.1631
-4.16389
-4.16483
-4.16594
-4.16721
-4.16864
-4.17023
-4.17198
-4.17388
-4.17594
-4.17815
-4.1805
-4.18299
-4.18561
-4.18835
-4.19118
-4.19409
-4.1971
-4.20024
-4.28895
-4.28908
-4.28935
-4.28975
-4.29029
-4.29096
-4.29176
-4.29271
-4.29379
-4.29501
-4.29637
-4.29785
-4.29946
-4.3012
-4.30307
-4.30505
-4.30715
-4.30935
-4.31165
-4.31402
-4.31646
-4.31896
-4.32158
-4.41614
-4.41625
-4.41648
-4.41682
-4.41727
-4.41784
-4.41852
-4.41932
-4.42023
-4.42125
-4.42238
-4.42362
-4.42497
-4.42642
-4.42798
-4.42963
-4.43138
-4.43321
-4.43511
-4.43708
-4.4391
-4.44117
-4.44332
-4.54312
-4.54321
-4.5434
-4.54368
-4.54405
-4.54453
-4.54509
-4.54575
-4.54651
-4.54735
-4.54828
-4.5493
-4.55041
-4.5516
-4.55288
-4.55423
-4.55567
-4.55716
-4.55872
-4.56033
-4.56198
-4.56366
-4.56541
-4.66994
-4.67001
-4.67016
-4.67038
-4.67068
-4.67106
-4.67152
-4.67205
-4.67265
-4.67333
-4.67408
-4.6749
-4.67579
-4.67675
-4.67778
-4.67887
-4.68001
-4.68121
-4.68245
-4.68374
-4.68506
-4.68641
-4.68781
-4.7966
-4.79665
-4.79677
-4.79694
-4.79717
-4.79747
-4.79782
-4.79823
-4.7987
-4.79923
-4.79981
-4.80045
-4.80115
-4.80189
-4.80269
-4.80354
-4.80442
-4.80535
-4.80631
-4.80731
-4.80834
-4.80939
-4.81047
-4.92313
-4.92317
-4.92325
-4.92337
-4.92353
-4.92375
-4.92401
-4.92432
-4.92467
-4.92506
-4.92549
-4.92596
-4.92647
-4.92703
-4.92762
-4.92825
-4.9289
-4.92959
-4.93031
-4.93105
-4.93181
-4.93259
-4.93338
-5.04958
-5.04959
-5.04963
-5.04971
-5.04982
-5.04996
-5.05013
-5.05034
-5.05057
-5.05083
-5.05112
-5.05144
-5.05179
-5.05217
-5.05257
-5.053
-5.05345
-5.05392
-5.05441
-5.05491
-5.05543
-5.05596
-5.0565
-5.17598
-5.17598
-5.17599
-5.17603
-5.17609
-5.17617
-5.17626
-5.17636
-5.17648
-5.17662
-5.17678
-5.17695
-5.17715
-5.17737
-5.17759
-5.17783
-5.17808
-5.17834
-5.17862
-5.1789
-5.1792
-5.1795
-5.17981
-5.30234
-5.30233
-5.30233
-5.30235
-5.30236
-5.30237
-5.30239
-5.30241
-5.30243
-5.30246
-5.3025
-5.30254
-5.30258
-5.30264
-5.30269
-5.30275
-5.30282
-5.30289
-5.30296
-5.30305
-5.30314
-5.30323
-5.30333
-5.4286
-5.42861
-5.42859
-5.42859
-5.42856
-5.42853
-5.42849
-5.42844
-5.42838
-5.42831
-5.42823
-5.42814
-5.42805
-5.42796
-5.42786
-5.42776
-5.42765
-5.42755
-5.42744
-5.42734
-5.42723
-5.42713
-5.42703
-5.55483
-5.55487
-5.55485
-5.55486
-5.55481
-5.55475
-5.55466
-5.55454
-5.5544
-5.55423
-5.55404
-5.55384
-5.55362
-5.55338
-5.55313
-5.55288
-5.55261
-5.55233
-5.55205
-5.55177
-5.55148
-5.55119
-5.5509
-5.68092
-5.6813
-5.68133
-5.68137
-5.68131
-5.68121
-5.68105
-5.68086
-5.68062
-5.68036
-5.68005
-5.67972
-5.67936
-5.67898
-5.67858
-5.67817
-5.67773
-5.67728
-5.67683
-5.67636
-5.67589
-5.67541
-5.67493
415.679
705.685
708.971
519.055
651.938
591.259
558.973
433.093
537.683
444.54
402.677
313.221
434.756
338.01
269.654
184.77
298.485
192.941
113.44
47.4654
141.169
50.4306
15.3319
-1.1581
22.9401
-0.870194
-1.63277
-1.62543
-1.56245
-1.48097
-1.68304
-1.77824
-1.60359
-1.66439
-1.80631
-1.91689
-1.74113
-1.84039
-1.95018
-2.02682
-1.91713
-1.99483
-2.09326
-2.13711
-2.06902
-2.14657
-2.24634
-2.26988
-2.26126
-2.39169
-2.43297
-2.41349
-2.54661
-2.71534
-2.62113
-2.55996
-2.84248
-2.99904
-2.77555
-2.69661
-3.04886
-3.13114
-2.89508
-2.81861
-3.11868
-3.13781
-2.97426
-2.92249
-3.09987
-3.11007
-3.03119
-3.01327
-3.0966
-3.1163
-3.09395
-3.09856
-3.13435
-3.16063
-3.17048
-3.18616
-3.20488
-3.23596
-3.25913
-3.27772
-3.2969
-3.32853
-3.35462
-3.37339
-3.39983
-3.42947
-3.45455
-3.47277
-3.50846
-3.53515
-3.558
-3.57527
-3.62066
-3.64412
-3.66448
-3.68046
-3.73526
-3.75562
-3.77354
-3.78801
-3.8516
-3.86911
-3.88473
-3.89762
-3.96923
-3.98419
-3.9977
-4.009
-4.08787
-4.10058
-4.11216
-4.12194
-4.20734
-4.21805
-4.2279
-4.23625
-4.32747
-4.33643
-4.34471
-4.35176
-4.44817
-4.45559
-4.46247
-4.46833
-4.56936
-4.5754
-4.58102
-4.58582
-4.69095
-4.69577
-4.70028
-4.70412
-4.8129
-4.81664
-4.82014
-4.82312
-4.93516
-4.93793
-4.94054
-4.94276
-5.05771
-5.05961
-5.06141
-5.06293
-5.18051
-5.18161
-5.18268
-5.18358
-5.30354
-5.30391
-5.3043
-5.30464
-5.42679
-5.42648
-5.42624
-5.42604
-5.55024
-5.54928
-5.54844
-5.54774
-5.67386
-5.67228
-5.67086
-5.66968
291.336
252.238
242.749
203.909
153.874
116.184
77.5615
44.2997
15.8888
-1.25099
-1.96336
-1.97529
-1.91043
-1.83482
-1.71499
-1.549
-0.217531
5.69982
114.094
282.045
208.902
172.287
124.407
74.6153
40.1573
12.5081
-1.15591
-1.76697
-1.87235
-1.93959
-1.98732
-2.02919
-2.02048
-1.90232
-1.7948
-0.822895
-2.4844
10.1228
200.941
126.285
84.6399
44.9909
18.828
-1.38428
-1.77144
-1.77993
-1.91272
-1.96129
-2.05304
-2.14692
-2.1991
-2.23269
-2.15553
-2.11247
-1.10218
-3.30299
4.21521
102.844
46.3335
21.7015
-1.34649
-1.8488
-1.73616
-1.85553
-1.91954
-1.99648
-2.08673
-2.17706
-2.27636
-2.3753
-2.4859
-2.51634
-2.6496
-1.98632
-3.65086
2.81473
18.2284
-1.3754
-1.99278
-1.77891
-1.87504
-1.8961
-1.95517
-2.02947
-2.11423
-2.19557
-2.29263
-2.41362
-2.56815
-2.78043
-2.99796
-3.43964
-3.16613
-4.59559
-2.57624
-1.83044
-1.76595
-1.92288
-1.94809
-1.98161
-2.02748
-2.07337
-2.13715
-2.2094
-2.29247
-2.4015
-2.54994
-2.75552
-3.07872
-3.5617
-4.52152
-4.71311
-5.75562
-2.80635
-1.82397
-1.91026
-2.00735
-2.08176
-2.11251
-2.14699
-2.18551
-2.23297
-2.29709
-2.38197
-2.4993
-2.66657
-2.92232
-3.31197
-4.09114
-5.72616
-6.25709
-6.70642
-3.39525
-1.9082
-2.02487
-2.11361
-2.1815
-2.22094
-2.24581
-2.2757
-2.31792
-2.3785
-2.46147
-2.57985
-2.74803
-3.01591
-3.45576
-4.37361
-6.55728
-7.15205
-7.32916
-3.53397
-2.01702
-2.11569
-2.20124
-2.25908
-2.29312
-2.32253
-2.35391
-2.39566
-2.45244
-2.52846
-2.63499
-2.79195
-3.03344
-3.45994
-4.49158
-6.39828
-7.19604
-6.95345
-2.40204
-2.11932
-2.20308
-2.27381
-2.32694
-2.36419
-2.39583
-2.42873
-2.46872
-2.51941
-2.58455
-2.6714
-2.80254
-2.9903
-3.33917
-4.17029
-5.45835
-6.45068
-5.92078
-1.00941
-2.22415
-2.29494
-2.35579
-2.4027
-2.43922
-2.47081
-2.50254
-2.53836
-2.58091
-2.63302
-2.70002
-2.79219
-2.91439
-3.13759
-3.63621
-4.21466
-4.55892
-4.35821
-0.269725
-2.3405
-2.39555
-2.44466
-2.48506
-2.51831
-2.54745
-2.57571
-2.60562
-2.63874
-2.67641
-2.72063
-2.77318
-2.83351
-2.92923
-3.11307
-3.17712
-2.67565
-1.9024
-0.102574
-2.46174
-2.50063
-2.53874
-2.57182
-2.60026
-2.62532
-2.64873
-2.6718
-2.69501
-2.71811
-2.74018
-2.75814
-2.76592
-2.76352
-2.73138
-2.51528
-1.86686
-1.08777
-0.59979
-2.58391
-2.60745
-2.63527
-2.66109
-2.68415
-2.70436
-2.72231
-2.73828
-2.7518
-2.76136
-2.76404
-2.75414
-2.72239
-2.65656
-2.51947
-2.21568
-1.68026
-1.1643
-1.02165
-2.70112
-2.71314
-2.73237
-2.75171
-2.76949
-2.78475
-2.79719
-2.80632
-2.81096
-2.80878
-2.79581
-2.76543
-2.70761
-2.60758
-2.43497
-2.14024
-1.73122
-1.40611
-1.34803
-2.81087
-2.81603
-2.82895
-2.84301
-2.85608
-2.86669
-2.87398
-2.87692
-2.87388
-2.86215
-2.83748
-2.79341
-2.72083
-2.60708
-2.43269
-2.17784
-1.86843
-1.63894
-1.60917
-2.91274
-2.91557
-2.92453
-2.93468
-2.94382
-2.95037
-2.95313
-2.95079
-2.94149
-2.92248
-2.88975
-2.83765
-2.75881
-2.64413
-2.48317
-2.27192
-2.03887
-1.87091
-1.84817
-3.00857
-3.01223
-3.01921
-3.0267
-3.03277
-3.03597
-3.03497
-3.02836
-3.01427
-2.99016
-2.95248
-2.8967
-2.81741
-2.70891
-2.56696
-2.39484
-2.21757
-2.09226
-2.07096
-3.10142
-3.10722
-3.11353
-3.11933
-3.12311
-3.12365
-3.1197
-3.10986
-3.09239
-3.06505
-3.02496
-2.96867
-2.89258
-2.79369
-2.67148
-2.53209
-2.39557
-2.29988
-2.27958
-3.19428
-3.20196
-3.20821
-3.21292
-3.21504
-3.21358
-3.20743
-3.19533
-3.17572
-3.14673
-3.10616
-3.05155
-2.98076
-2.89266
-2.78881
-2.67595
-2.56956
-2.49514
-2.47634
-3.28891
-3.29765
-3.30391
-3.30787
-3.30878
-3.30587
-3.2982
-3.28467
-3.26396
-3.2346
-3.19494
-3.14341
-3.07893
-3.00161
-2.91394
-2.8223
-2.73842
-2.67975
-2.66284
-3.3859
-3.39502
-3.40116
-3.40452
-3.40454
-3.40062
-3.39198
-3.37771
-3.35673
-3.32793
-3.29016
-3.24251
-3.18466
-3.11745
-3.04369
-2.96895
-2.90211
-2.85532
-2.84047
-3.48555
-3.49445
-3.50027
-3.50309
-3.50243
-3.49786
-3.4887
-3.47423
-3.45361
-3.42603
-3.39075
-3.34735
-3.29602
-3.23798
-3.17598
-3.11474
-3.06098
-3.02331
-3.01048
-3.58762
-3.59603
-3.60139
-3.60368
-3.60253
-3.59756
-3.58823
-3.57397
-3.55416
-3.52823
-3.49579
-3.45672
-3.41155
-3.36163
-3.30951
-3.25909
-3.21549
-3.18492
-3.17397
-3.69197
-3.69971
-3.70453
-3.70634
-3.70483
-3.69967
-3.69043
-3.67668
-3.65798
-3.63396
-3.60447
-3.56963
-3.53011
-3.4873
-3.44346
-3.40178
-3.36617
-3.3412
-3.33192
-3.79846
-3.80542
-3.80966
-3.81104
-3.80927
-3.80407
-3.79513
-3.78209
-3.76469
-3.74271
-3.71614
-3.6853
-3.6509
-3.61425
-3.57734
-3.54275
-3.5135
-3.49299
-3.48518
-3.90691
-3.91306
-3.91671
-3.91769
-3.91575
-3.91064
-3.90213
-3.88995
-3.87394
-3.85402
-3.83029
-3.80313
-3.7733
-3.74199
-3.71088
-3.68209
-3.65795
-3.64103
-3.63447
-4.01713
-4.02248
-4.02555
-4.02619
-4.02416
-4.01923
-4.01124
-3.99999
-3.98542
-3.96751
-3.94646
-3.92268
-3.8969
-3.87017
-3.84394
-3.81991
-3.79991
-3.78591
-3.78041
-4.12896
-4.13354
-4.13607
-4.13642
-4.13436
-4.12967
-4.12226
-4.11199
-4.09884
-4.08287
-4.06431
-4.04359
-4.02136
-3.99859
-3.97646
-3.95637
-3.93976
-3.92813
-3.92355
-4.24224
-4.24611
-4.24821
-4.24826
-4.24619
-4.2418
-4.235
-4.22572
-4.21395
-4.19982
-4.18355
-4.16557
-4.14648
-4.1271
-4.10844
-4.09163
-4.0778
-4.06813
-4.06432
-4.3568
-4.36003
-4.3617
-4.36155
-4.35952
-4.35546
-4.34929
-4.34098
-4.33054
-4.31811
-4.30394
-4.28841
-4.27206
-4.25561
-4.2399
-4.22583
-4.21432
-4.20627
-4.2031
-4.4725
-4.47514
-4.47642
-4.47613
-4.47419
-4.47049
-4.46495
-4.45757
-4.44838
-4.43754
-4.42527
-4.41193
-4.398
-4.38409
-4.37088
-4.35912
-4.34954
-4.34284
-4.34022
-4.5892
-4.59132
-4.59226
-4.59188
-4.59006
-4.58672
-4.58181
-4.57532
-4.56732
-4.55794
-4.5474
-4.53602
-4.52421
-4.51249
-4.50143
-4.49163
-4.48366
-4.4781
-4.47595
-4.70681
-4.70846
-4.70912
-4.70867
-4.70699
-4.70403
-4.69972
-4.69409
-4.6872
-4.67916
-4.67019
-4.66055
-4.65061
-4.6408
-4.63158
-4.62345
-4.61687
-4.61226
-4.61051
-4.8252
-4.82644
-4.82687
-4.82638
-4.82487
-4.82228
-4.81856
-4.81374
-4.80788
-4.80107
-4.79352
-4.78545
-4.77716
-4.76902
-4.7614
-4.75471
-4.7493
-4.74551
-4.74411
-4.94429
-4.94517
-4.94542
-4.94492
-4.94359
-4.94136
-4.93821
-4.93416
-4.92924
-4.92357
-4.91731
-4.91064
-4.90383
-4.89716
-4.89093
-4.88548
-4.88109
-4.878
-4.87689
-5.06398
-5.06456
-5.06465
-5.06417
-5.06302
-5.06116
-5.05856
-5.05522
-5.05119
-5.04657
-5.04148
-5.03608
-5.03058
-5.02522
-5.02022
-5.01586
-5.01235
-5.00987
-5.00903
-5.18419
-5.1845
-5.18447
-5.18403
-5.18308
-5.18158
-5.1795
-5.17684
-5.17364
-5.16999
-5.16597
-5.16173
-5.15742
-5.15322
-5.14932
-5.14591
-5.14319
-5.14124
-5.14063
-5.30485
-5.30492
-5.3048
-5.30442
-5.30368
-5.30253
-5.30094
-5.29893
-5.29652
-5.29376
-5.29073
-5.28755
-5.28432
-5.28117
-5.27826
-5.27572
-5.27369
-5.27222
-5.27181
-5.42588
-5.42574
-5.42556
-5.42526
-5.42473
-5.42393
-5.42282
-5.42142
-5.41974
-5.41783
-5.41573
-5.41352
-5.41128
-5.40911
-5.4071
-5.40534
-5.40395
-5.40291
-5.40268
-5.54724
-5.54689
-5.54668
-5.54648
-5.54617
-5.5457
-5.54506
-5.54424
-5.54326
-5.54213
-5.54091
-5.53962
-5.53831
-5.53704
-5.53586
-5.53484
-5.53403
-5.5334
-5.53332
-5.66885
-5.66833
-5.66807
-5.66804
-5.66794
-5.66779
-5.66759
-5.66733
-5.66701
-5.66666
-5.66627
-5.66585
-5.66544
-5.66503
-5.66466
-5.66433
-5.66408
-5.66387
-5.66386
)
;

boundaryField
{
    leftWall
    {
        type            calculated;
        value           nonuniform List<scalar> 
50
(
1619.26
1560.11
1500.64
1440.85
1380.71
1320.2
1259.29
1197.95
1101.3
967.556
831.642
693.808
554.401
413.405
269.968
133.643
45.0334
-1.06513
-1.70935
-1.81539
-1.94887
-2.08639
-2.22216
-2.35697
-2.49024
-2.62226
-2.75283
-2.88192
-3.01002
-3.13772
-3.26549
-3.39346
-3.52162
-3.64985
-3.77801
-3.90607
-4.03392
-4.16153
-4.28895
-4.41614
-4.54312
-4.66994
-4.7966
-4.92313
-5.04958
-5.17598
-5.30234
-5.4286
-5.55483
-5.68092
)
;
    }
    rightWall
    {
        type            calculated;
        value           nonuniform List<scalar> 
50
(
1526.64
1517.98
1568.09
1899.55
2080.92
1860.52
1254.87
654.662
114.094
10.1228
4.21521
2.81473
-2.57624
-2.80635
-3.39525
-3.53397
-2.40204
-1.00941
-0.269725
-0.102574
-0.59979
-1.02165
-1.34803
-1.60917
-1.84817
-2.07096
-2.27958
-2.47634
-2.66284
-2.84047
-3.01048
-3.17397
-3.33192
-3.48518
-3.63447
-3.78041
-3.92355
-4.06432
-4.2031
-4.34022
-4.47595
-4.61051
-4.74411
-4.87689
-5.00903
-5.14063
-5.27181
-5.40268
-5.53332
-5.66386
)
;
    }
    lowerWall
    {
        type            calculated;
        value           nonuniform List<scalar> 
62
(
1648.69
1649.12
1649.05
1648.58
1647.85
1646.97
1646.04
1645.1
1644.22
1643.47
1642.91
1642.62
1642.69
1643.26
1644.35
1645.94
1647.97
1650.31
1652.73
1654.96
1656.84
1658.34
1659.35
1629.92
1572.39
1513.39
1451.91
1386.8
1316.52
1232.86
1125.23
478.276
768.282
771.568
581.652
321.343
321.281
321.192
321.06
320.891
320.767
320.686
303.104
321.372
321.266
320.675
318.915
327.331
377.055
537.874
951.115
1332.89
1182.18
825.446
602.49
564.371
680.116
953.166
1258.52
1346.94
1310.58
1527.43
)
;
    }
    atmosphere
    {
        type            calculated;
        value           nonuniform List<scalar> 
46
(
-5.74328
-5.74507
-5.74493
-5.7449
-5.74481
-5.74465
-5.74445
-5.7442
-5.74391
-5.74358
-5.74321
-5.74281
-5.74238
-5.74192
-5.74144
-5.74093
-5.74041
-5.73987
-5.73931
-5.73875
-5.73818
-5.73761
-5.73704
-5.73575
-5.73384
-5.73214
-5.73074
-5.72978
-5.72923
-5.72904
-5.72904
-5.72904
-5.72904
-5.72904
-5.72904
-5.72904
-5.72904
-5.72904
-5.72904
-5.72904
-5.72904
-5.72904
-5.72904
-5.72904
-5.72904
-5.72904
)
;
    }
    defaultFaces
    {
        type            empty;
    }
}


// ************************************************************************* //
