/*--------------------------------*- C++ -*----------------------------------*\
| =========                 |                                                 |
| \\      /  F ield         | OpenFOAM: The Open Source CFD Toolbox           |
|  \\    /   O peration     | Version:  2206                                  |
|   \\  /    A nd           | Website:  www.openfoam.com                      |
|    \\/     M anipulation  |                                                 |
\*---------------------------------------------------------------------------*/
FoamFile
{
    version     2.0;
    format      ascii;
    arch        "LSB;label=32;scalar=64";
    class       volVectorField;
    location    "0.275";
    object      U;
}
// * * * * * * * * * * * * * * * * * * * * * * * * * * * * * * * * * * * * * //

dimensions      [0 1 -1 0 0 0 0];

internalField   nonuniform List<vector> 
2268
(
(0.00192148 -0.00352017 0)
(0.0146799 -0.00810491 0)
(0.0338862 -0.00875009 0)
(0.0522442 -0.00795413 0)
(0.0684033 -0.00706652 0)
(0.082782 -0.00642518 0)
(0.0960086 -0.00595637 0)
(0.108356 -0.00552428 0)
(0.11977 -0.00503571 0)
(0.130057 -0.00443953 0)
(0.138954 -0.00370415 0)
(0.146148 -0.00277423 0)
(0.151095 -0.00156121 0)
(0.153641 0.000321709 0)
(0.152015 0.00310187 0)
(0.145041 0.00669043 0)
(0.131879 0.0106605 0)
(0.112119 0.014199 0)
(0.0864916 0.0160951 0)
(0.0578082 0.014954 0)
(0.0306844 0.00972053 0)
(0.0105575 0.00153951 0)
(0.00125704 -0.00544188 0)
(0.00179454 -0.0106216 0)
(0.0146703 -0.0245477 0)
(0.0342051 -0.0266086 0)
(0.0529022 -0.0242609 0)
(0.0693749 -0.0215721 0)
(0.0840334 -0.0196127 0)
(0.0975116 -0.0181934 0)
(0.110109 -0.0169056 0)
(0.121804 -0.0154605 0)
(0.132427 -0.0137024 0)
(0.141751 -0.0115403 0)
(0.149506 -0.00887512 0)
(0.155552 -0.00557029 0)
(0.159284 -0.00133215 0)
(0.161508 0.00406494 0)
(0.16214 0.0107956 0)
(0.160377 0.0187702 0)
(0.154581 0.0274005 0)
(0.142314 0.0352603 0)
(0.121383 0.0399922 0)
(0.0914506 0.0386274 0)
(0.0552974 0.0298447 0)
(0.0181451 0.0179998 0)
(0.00154711 -0.017563 0)
(0.0143963 -0.0410332 0)
(0.0342962 -0.0447181 0)
(0.0534144 -0.0408709 0)
(0.0702744 -0.036319 0)
(0.0852477 -0.0329743 0)
(0.0989836 -0.0305862 0)
(0.111838 -0.0284704 0)
(0.123846 -0.0261254 0)
(0.134872 -0.0232833 0)
(0.144701 -0.0198005 0)
(0.153079 -0.0155696 0)
(0.159701 -0.0104721 0)
(0.164212 -0.00448217 0)
(0.166259 0.00254308 0)
(0.165672 0.0109299 0)
(0.162457 0.021099 0)
(0.156746 0.0332131 0)
(0.148062 0.0466781 0)
(0.13419 0.0595823 0)
(0.111215 0.0683309 0)
(0.0755531 0.0688449 0)
(0.0278809 0.0615967 0)
(0.0012024 -0.0242131 0)
(0.0140186 -0.0576376 0)
(0.0344268 -0.0632847 0)
(0.0541706 -0.0580035 0)
(0.0716166 -0.0514893 0)
(0.0870612 -0.0466555 0)
(0.101182 -0.0432653 0)
(0.11442 -0.0403589 0)
(0.12689 -0.0371972 0)
(0.138495 -0.0333798 0)
(0.14904 -0.0287031 0)
(0.158278 -0.0230232 0)
(0.165922 -0.0161855 0)
(0.171666 -0.00800059 0)
(0.175092 0.00175615 0)
(0.175696 0.0132399 0)
(0.172905 0.0265013 0)
(0.166168 0.0416068 0)
(0.155197 0.0586702 0)
(0.13949 0.0774825 0)
(0.116886 0.0961973 0)
(0.0823509 0.110036 0)
(0.0316836 0.113779 0)
(0.000799931 -0.030524 0)
(0.0135884 -0.0744748 0)
(0.0346016 -0.0825143 0)
(0.055118 -0.075881 0)
(0.0733048 -0.0672803 0)
(0.0893563 -0.0608238 0)
(0.103984 -0.056384 0)
(0.117732 -0.0527295 0)
(0.130807 -0.0488518 0)
(0.143167 -0.0441889 0)
(0.154641 -0.0384581 0)
(0.164995 -0.0314719 0)
(0.173958 -0.0230357 0)
(0.181207 -0.0129123 0)
(0.186377 -0.00085627 0)
(0.188977 0.0134849 0)
(0.188258 0.0303785 0)
(0.183215 0.0499632 0)
(0.172565 0.0722274 0)
(0.154988 0.0972024 0)
(0.12934 0.124746 0)
(0.0920855 0.151284 0)
(0.0377264 0.167216 0)
(0.000356503 -0.0364914 0)
(0.0131181 -0.0915563 0)
(0.0348276 -0.102489 0)
(0.0562199 -0.0946265 0)
(0.0752428 -0.083833 0)
(0.0919951 -0.0756334 0)
(0.107234 -0.0701152 0)
(0.121613 -0.0657838 0)
(0.135434 -0.061332 0)
(0.148717 -0.0560056 0)
(0.161325 -0.0494261 0)
(0.17305 -0.0413569 0)
(0.183644 -0.0315596 0)
(0.192817 -0.0197357 0)
(0.200213 -0.00549917 0)
(0.205341 0.0115892 0)
(0.20752 0.0320409 0)
(0.205711 0.0564348 0)
(0.198178 0.085256 0)
(0.182307 0.118843 0)
(0.154754 0.157752 0)
(0.111526 0.202784 0)
(0.0421588 0.243584 0)
(-0.000152168 -0.041929 0)
(0.0126271 -0.108782 0)
(0.0351135 -0.12313 0)
(0.0574352 -0.114141 0)
(0.077321 -0.101044 0)
(0.0948116 -0.0909879 0)
(0.110734 -0.0843709 0)
(0.125848 -0.0794434 0)
(0.140541 -0.0745727 0)
(0.154893 -0.0687883 0)
(0.168812 -0.0616056 0)
(0.182132 -0.0527411 0)
(0.194657 -0.0419239 0)
(0.206156 -0.02881 0)
(0.216353 -0.0129329 0)
(0.224806 0.00625926 0)
(0.230922 0.0297074 0)
(0.233783 0.0584506 0)
(0.23184 0.0938022 0)
(0.222149 0.136617 0)
(0.200828 0.188291 0)
(0.158786 0.245362 0)
(0.0799812 0.314223 0)
(-0.000636418 -0.0467972 0)
(0.0123326 -0.126303 0)
(0.0355732 -0.144509 0)
(0.0587515 -0.134404 0)
(0.0794297 -0.11887 0)
(0.0976433 -0.106845 0)
(0.114302 -0.0990997 0)
(0.130249 -0.0936313 0)
(0.14593 -0.0884605 0)
(0.161471 -0.0823796 0)
(0.176832 -0.0747883 0)
(0.191904 -0.0653588 0)
(0.206566 -0.0537971 0)
(0.220697 -0.0397222 0)
(0.234132 -0.0225949 0)
(0.246663 -0.00171512 0)
(0.257875 0.0240225 0)
(0.267188 0.0562489 0)
(0.272847 0.0979725 0)
(0.272914 0.152516 0)
(0.256575 0.228381 0)
(0.230269 0.333241 0)
(0.0688199 0.504426 0)
(0.126765 -0.0890699 0)
(0.408502 -0.00881722 0)
(-0.869165 0.074465 0)
(-2.06047 -0.0325047 0)
(-2.16748 -0.173813 0)
(-1.69474 -0.231697 0)
(-1.00751 -0.204032 0)
(-0.0772199 -0.186765 0)
(0.60741 -0.164764 0)
(1.18454 -0.109586 0)
(1.62322 -0.0718745 0)
(1.90076 -0.050142 0)
(2.04364 -0.0354943 0)
(2.11663 0.0016702 0)
(1.97562 0.0965356 0)
(1.27529 0.219395 0)
(0.187712 0.171804 0)
(-1.73563 -0.102136 0)
(-0.299678 -0.730144 0)
(-0.0209116 -0.0957807 0)
(-0.334568 0.295754 0)
(-1.65383 0.436602 0)
(-2.14649 0.314843 0)
(-1.19361 0.0126062 0)
(-0.619745 -0.215283 0)
(0.0563458 -0.283372 0)
(1.02479 -0.453545 0)
(1.47322 -0.376143 0)
(1.79874 -0.241797 0)
(2.05488 -0.146991 0)
(2.21592 -0.0913771 0)
(2.30308 -0.0499265 0)
(2.30373 0.012992 0)
(2.36369 0.145938 0)
(2.27957 0.371154 0)
(1.70809 0.482671 0)
(-0.0119919 0.605697 0)
(0.769079 -0.745979 0)
(-0.250295 0.106769 0)
(-0.718767 0.563585 0)
(-1.23768 0.601833 0)
(-0.483575 0.0164471 0)
(0.681999 -0.462311 0)
(0.822139 -0.432146 0)
(1.32417 -0.546301 0)
(1.60601 -0.593982 0)
(1.75931 -0.455354 0)
(1.93972 -0.288317 0)
(2.1217 -0.177219 0)
(2.25261 -0.113473 0)
(2.32579 -0.0604146 0)
(2.35444 0.00689415 0)
(2.34222 0.152381 0)
(2.36742 0.434028 0)
(2.33252 0.696566 0)
(1.45272 0.848958 0)
(1.29609 -0.271285 0)
(-0.321147 0.255922 0)
(-0.331298 0.573391 0)
(-0.0957851 0.450182 0)
(1.35527 -0.344124 0)
(1.33402 -0.397997 0)
(1.491 -0.496097 0)
(1.67484 -0.607159 0)
(1.77673 -0.624555 0)
(1.87186 -0.499345 0)
(2.01668 -0.341112 0)
(2.16764 -0.222833 0)
(2.27609 -0.147338 0)
(2.33744 -0.0838039 0)
(2.36728 0.00570388 0)
(2.37487 0.149796 0)
(2.34855 0.41178 0)
(2.41486 0.773286 0)
(2.06667 1.04175 0)
(1.63991 0.223427 0)
(-0.315214 0.350109 0)
(0.150827 0.386911 0)
(1.32013 -0.124948 0)
(1.34421 -0.286249 0)
(1.46439 -0.414014 0)
(1.66392 -0.559264 0)
(1.79485 -0.649773 0)
(1.86673 -0.650567 0)
(1.95041 -0.543242 0)
(2.06642 -0.387938 0)
(2.17606 -0.257776 0)
(2.24726 -0.171829 0)
(2.28151 -0.105608 0)
(2.30039 -0.0256421 0)
(2.32091 0.10141 0)
(2.31006 0.341717 0)
(2.33035 0.730169 0)
(2.19336 1.16168 0)
(1.77441 0.724688 0)
(-0.454165 0.4112 0)
(0.597418 -0.00671872 0)
(1.02464 -0.179259 0)
(1.34324 -0.342376 0)
(1.61223 -0.494989 0)
(1.77653 -0.61269 0)
(1.85726 -0.673303 0)
(1.91583 -0.669851 0)
(1.9855 -0.578122 0)
(2.05472 -0.426532 0)
(2.095 -0.293242 0)
(2.09945 -0.202357 0)
(2.0513 -0.121582 0)
(2.01005 -0.0175213 0)
(2.07519 0.132211 0)
(2.16781 0.389059 0)
(2.16606 0.773862 0)
(2.07579 1.28525 0)
(1.75167 1.27335 0)
(0.367883 0.362765 0)
(0.922703 -0.0692363 0)
(1.28512 -0.280121 0)
(1.55573 -0.434796 0)
(1.72467 -0.555704 0)
(1.81762 -0.64348 0)
(1.87511 -0.691851 0)
(1.93025 -0.69077 0)
(1.95573 -0.604103 0)
(1.9303 -0.448612 0)
(1.85155 -0.292536 0)
(1.70185 -0.155316 0)
(1.49091 -0.052783 0)
(1.29199 -0.000410013 0)
(1.24845 0.108451 0)
(1.67137 0.39402 0)
(1.81375 0.825622 0)
(1.70726 1.38642 0)
(1.64661 1.81532 0)
(0.700435 -0.1493 0)
(1.23387 -0.269029 0)
(1.50524 -0.383145 0)
(1.65919 -0.491448 0)
(1.7508 -0.585606 0)
(1.81635 -0.664847 0)
(1.86555 -0.71149 0)
(1.89172 -0.705271 0)
(1.81638 -0.594917 0)
(1.63774 -0.396832 0)
(1.40105 -0.198421 0)
(1.08045 -0.0629428 0)
(1.03968 0.0303401 0)
(1.11188 0.0232205 0)
(1.06792 0.0446092 0)
(1.03952 0.34733 0)
(1.22083 0.90205 0)
(0.824132 1.48212 0)
(1.53662 2.30238 0)
(-0.000928603 -0.0543625 0)
(0.0128309 -0.155098 0)
(0.0369829 -0.179691 0)
(0.0610659 -0.167694 0)
(0.0826316 -0.1483 0)
(0.101845 -0.133339 0)
(0.119721 -0.124086 0)
(0.137136 -0.118097 0)
(0.154549 -0.112846 0)
(0.172114 -0.106777 0)
(0.189854 -0.0991376 0)
(0.207763 -0.0895748 0)
(0.225863 -0.0778185 0)
(0.244238 -0.0635157 0)
(0.263029 -0.0461477 0)
(0.282572 -0.0249539 0)
(0.303135 0.00109964 0)
(0.326295 0.0332978 0)
(0.351992 0.0739857 0)
(0.388434 0.124831 0)
(0.426072 0.196744 0)
(0.522425 0.272332 0)
(0.556161 0.470279 0)
(-0.000672652 -0.0653799 0)
(0.0148046 -0.196138 0)
(0.0398781 -0.229439 0)
(0.0645345 -0.214625 0)
(0.0867184 -0.190201 0)
(0.107004 -0.171836 0)
(0.126531 -0.161204 0)
(0.14608 -0.155135 0)
(0.165991 -0.150399 0)
(0.186378 -0.145053 0)
(0.207311 -0.13824 0)
(0.228895 -0.129667 0)
(0.251309 -0.119208 0)
(0.274837 -0.106721 0)
(0.299895 -0.0919811 0)
(0.327078 -0.0746935 0)
(0.357235 -0.0544959 0)
(0.391448 -0.0312077 0)
(0.431112 -0.00416756 0)
(0.478912 0.0253255 0)
(0.536454 0.0617491 0)
(0.604555 0.0816185 0)
(0.69961 0.150898 0)
(0.000452898 -0.0798367 0)
(0.0183282 -0.240254 0)
(0.0438361 -0.28048 0)
(0.0681318 -0.261996 0)
(0.0900902 -0.233294 0)
(0.110947 -0.213036 0)
(0.13189 -0.202414 0)
(0.153407 -0.197222 0)
(0.175556 -0.193636 0)
(0.198323 -0.18956 0)
(0.221768 -0.184214 0)
(0.246043 -0.17746 0)
(0.271379 -0.16935 0)
(0.298076 -0.159942 0)
(0.326506 -0.149264 0)
(0.357111 -0.137354 0)
(0.390439 -0.124308 0)
(0.427073 -0.110398 0)
(0.467915 -0.0959464 0)
(0.513486 -0.0820883 0)
(0.566285 -0.0691443 0)
(0.623878 -0.062154 0)
(0.69681 -0.0508774 0)
(0.0024867 -0.0998079 0)
(0.0229054 -0.287189 0)
(0.0484963 -0.330758 0)
(0.0717303 -0.3076 0)
(0.0929385 -0.275983 0)
(0.114093 -0.255838 0)
(0.136232 -0.246695 0)
(0.159375 -0.243089 0)
(0.18325 -0.240872 0)
(0.207723 -0.238118 0)
(0.232855 -0.234309 0)
(0.258826 -0.229501 0)
(0.285877 -0.223876 0)
(0.314278 -0.217588 0)
(0.344321 -0.210761 0)
(0.376325 -0.203527 0)
(0.410642 -0.196067 0)
(0.447637 -0.188659 0)
(0.487723 -0.181665 0)
(0.531173 -0.175764 0)
(0.578474 -0.171358 0)
(0.62862 -0.171106 0)
(0.682954 -0.171263 0)
(0.00510994 -0.12679 0)
(0.0274582 -0.336836 0)
(0.0532415 -0.379472 0)
(0.075105 -0.350788 0)
(0.0954205 -0.318096 0)
(0.116856 -0.300177 0)
(0.139988 -0.293677 0)
(0.164292 -0.291958 0)
(0.189246 -0.291024 0)
(0.214683 -0.289448 0)
(0.240698 -0.287081 0)
(0.267491 -0.284152 0)
(0.295277 -0.280892 0)
(0.324267 -0.277462 0)
(0.354658 -0.273989 0)
(0.386637 -0.270613 0)
(0.420384 -0.267521 0)
(0.456071 -0.264968 0)
(0.493878 -0.26327 0)
(0.533873 -0.262808 0)
(0.576193 -0.263988 0)
(0.620277 -0.267504 0)
(0.666372 -0.272789 0)
(0.00745066 -0.160109 0)
(0.0315867 -0.388958 0)
(0.0574844 -0.426836 0)
(0.0778002 -0.39153 0)
(0.0974012 -0.359515 0)
(0.119355 -0.345504 0)
(0.143339 -0.342117 0)
(0.168308 -0.342034 0)
(0.193692 -0.342013 0)
(0.219417 -0.341347 0)
(0.245628 -0.340217 0)
(0.27251 -0.338922 0)
(0.300223 -0.337655 0)
(0.328908 -0.336536 0)
(0.358698 -0.335623 0)
(0.389687 -0.335025 0)
(0.421958 -0.334918 0)
(0.455686 -0.335656 0)
(0.491048 -0.337626 0)
(0.52819 -0.341134 0)
(0.567301 -0.346605 0)
(0.608705 -0.353842 0)
(0.651624 -0.364662 0)
(0.00963099 -0.203243 0)
(0.0417219 -0.444232 0)
(0.0625367 -0.471655 0)
(0.0794381 -0.429538 0)
(0.0986364 -0.400905 0)
(0.121137 -0.392076 0)
(0.145555 -0.391585 0)
(0.170475 -0.392592 0)
(0.195526 -0.393173 0)
(0.220781 -0.393317 0)
(0.246444 -0.393372 0)
(0.272606 -0.39362 0)
(0.299412 -0.394184 0)
(0.326927 -0.39526 0)
(0.355348 -0.396829 0)
(0.384854 -0.399011 0)
(0.415548 -0.402003 0)
(0.447298 -0.406588 0)
(0.480121 -0.412921 0)
(0.514347 -0.421493 0)
(0.550423 -0.433256 0)
(0.593243 -0.447493 0)
(0.633439 -0.461533 0)
(0.0257489 -0.270031 0)
(0.0779261 -0.499262 0)
(0.0710388 -0.503248 0)
(0.076945 -0.463828 0)
(0.096059 -0.446424 0)
(0.118231 -0.443793 0)
(0.14164 -0.445145 0)
(0.165007 -0.446554 0)
(0.18832 -0.447574 0)
(0.211618 -0.448503 0)
(0.23524 -0.449703 0)
(0.259238 -0.451298 0)
(0.283847 -0.453533 0)
(0.30934 -0.456651 0)
(0.335978 -0.460849 0)
(0.363956 -0.466375 0)
(0.393089 -0.472393 0)
(0.422418 -0.479365 0)
(0.453089 -0.487363 0)
(0.484613 -0.497326 0)
(0.519367 -0.513873 0)
(0.561654 -0.548329 0)
(0.598174 -0.504356 0)
(0.0637469 -0.390212 0)
(0.137875 -0.544991 0)
(0.0702319 -0.486399 0)
(0.0618628 -0.48605 0)
(0.0803073 -0.490776 0)
(0.0997179 -0.492612 0)
(0.118722 -0.493526 0)
(0.137873 -0.494488 0)
(0.156695 -0.495074 0)
(0.175651 -0.496355 0)
(0.194999 -0.498143 0)
(0.215339 -0.500189 0)
(0.236592 -0.503974 0)
(0.260002 -0.508185 0)
(0.284958 -0.514887 0)
(0.301715 -0.523999 0)
(0.31999 -0.521726 0)
(0.353244 -0.523589 0)
(0.383258 -0.527937 0)
(0.410723 -0.532388 0)
(0.437079 -0.555136 0)
(0.443145 -0.629743 0)
(0.479102 -0.397881 0)
(0.0225062 -0.733845 0)
(0.106521 -0.601816 0)
(0.0722079 -0.347833 0)
(0.0546482 -0.474498 0)
(0.0520548 -0.508472 0)
(0.0583069 -0.512359 0)
(0.0649774 -0.51206 0)
(0.0766877 -0.513364 0)
(0.0877642 -0.511926 0)
(0.101762 -0.513519 0)
(0.117679 -0.51561 0)
(0.136997 -0.518217 0)
(0.157703 -0.524578 0)
(0.180575 -0.529387 0)
(0.20403 -0.534449 0)
(0.231684 -0.521547 0)
(0.265903 -0.527749 0)
(0.301803 -0.547963 0)
(0.338258 -0.570698 0)
(0.376484 -0.594446 0)
(0.41781 -0.617553 0)
(0.454113 -0.628224 0)
(0.488583 -0.641008 0)
(-0.057537 -0.711773 0)
(-0.0705722 -0.297121 0)
(-0.0321943 -0.386011 0)
(0.0180779 -0.498437 0)
(0.031011 -0.509511 0)
(0.0432528 -0.514173 0)
(0.0550421 -0.519395 0)
(0.0661761 -0.524928 0)
(0.0794233 -0.52856 0)
(0.0941804 -0.538446 0)
(0.109748 -0.549446 0)
(0.127025 -0.560334 0)
(0.145548 -0.574843 0)
(0.165218 -0.586203 0)
(0.187417 -0.599852 0)
(0.212483 -0.615165 0)
(0.241319 -0.634053 0)
(0.275877 -0.657521 0)
(0.315695 -0.683952 0)
(0.358377 -0.707725 0)
(0.396922 -0.722048 0)
(0.422232 -0.713828 0)
(0.432526 -0.700959 0)
(-0.0468456 -0.522279 0)
(-0.045212 -0.504164 0)
(0.00646594 -0.537301 0)
(0.0188716 -0.547059 0)
(0.0286529 -0.548256 0)
(0.0369702 -0.548887 0)
(0.0467799 -0.554367 0)
(0.0570101 -0.561307 0)
(0.0681436 -0.570096 0)
(0.0800553 -0.580289 0)
(0.0924741 -0.592071 0)
(0.105627 -0.6048 0)
(0.120149 -0.617513 0)
(0.136096 -0.632158 0)
(0.153936 -0.648404 0)
(0.175593 -0.668946 0)
(0.203473 -0.696647 0)
(0.238569 -0.730116 0)
(0.27583 -0.760379 0)
(0.309446 -0.773302 0)
(0.323804 -0.756244 0)
(0.317035 -0.697299 0)
(0.290602 -0.681577 0)
(-0.0114838 -0.492695 0)
(-0.0021042 -0.569088 0)
(0.0123286 -0.566919 0)
(0.0121219 -0.559987 0)
(0.0173912 -0.561852 0)
(0.0226332 -0.566028 0)
(0.0285075 -0.57154 0)
(0.0349256 -0.579291 0)
(0.0415081 -0.588395 0)
(0.0485503 -0.598938 0)
(0.0562034 -0.61104 0)
(0.064486 -0.625002 0)
(0.0736984 -0.640489 0)
(0.0845821 -0.658235 0)
(0.0988102 -0.681982 0)
(0.1192 -0.716173 0)
(0.147056 -0.760194 0)
(0.179196 -0.802499 0)
(0.206143 -0.822628 0)
(0.222733 -0.800773 0)
(0.207459 -0.728852 0)
(0.187368 -0.617122 0)
(0.157103 -0.686834 0)
(0.0012167 -0.488535 0)
(0.00188774 -0.565645 0)
(-0.00100437 -0.5656 0)
(-0.000446486 -0.564821 0)
(0.00109835 -0.568222 0)
(0.00262616 -0.572894 0)
(0.00426147 -0.57922 0)
(0.00608939 -0.587253 0)
(0.0081819 -0.597125 0)
(0.0107119 -0.608993 0)
(0.0137836 -0.622771 0)
(0.0174704 -0.638483 0)
(0.0221581 -0.656879 0)
(0.0290967 -0.68123 0)
(0.0403458 -0.716934 0)
(0.0577161 -0.766337 0)
(0.0794597 -0.820482 0)
(0.0998259 -0.856976 0)
(0.110495 -0.850222 0)
(0.112121 -0.785973 0)
(0.0840013 -0.674029 0)
(0.0989511 -0.565764 0)
(0.0795929 -0.733166 0)
(0.0011091 -0.489421 0)
(-0.00306835 -0.559471 0)
(-0.00760746 -0.561291 0)
(-0.0102031 -0.563681 0)
(-0.0128112 -0.567102 0)
(-0.0151054 -0.572145 0)
(-0.0173738 -0.578668 0)
(-0.0194708 -0.587123 0)
(-0.0214681 -0.59764 0)
(-0.0233508 -0.610244 0)
(-0.0250552 -0.624932 0)
(-0.0265427 -0.642128 0)
(-0.0273726 -0.663767 0)
(-0.0264032 -0.694675 0)
(-0.0225839 -0.739979 0)
(-0.0164372 -0.797286 0)
(-0.0107604 -0.850627 0)
(-0.00843049 -0.874309 0)
(-0.0127854 -0.847402 0)
(-0.0181466 -0.767781 0)
(-0.0318298 -0.66652 0)
(0.0217187 -0.605161 0)
(-0.0207754 -0.731296 0)
(-0.000561847 -0.483841 0)
(-0.00651116 -0.549817 0)
(-0.0122455 -0.551768 0)
(-0.0179288 -0.554645 0)
(-0.0236148 -0.55843 0)
(-0.0292266 -0.563601 0)
(-0.0349313 -0.570297 0)
(-0.0408286 -0.578664 0)
(-0.0470207 -0.588914 0)
(-0.0536416 -0.601197 0)
(-0.0608263 -0.615553 0)
(-0.0686217 -0.63266 0)
(-0.0767602 -0.655342 0)
(-0.0849742 -0.688585 0)
(-0.0938697 -0.735662 0)
(-0.105144 -0.791326 0)
(-0.120025 -0.838698 0)
(-0.13792 -0.856001 0)
(-0.156644 -0.830268 0)
(-0.168397 -0.767748 0)
(-0.152491 -0.697544 0)
(-0.120153 -0.659331 0)
(-0.181388 -0.670853 0)
(-0.00172318 -0.47419 0)
(-0.00932558 -0.536229 0)
(-0.0169214 -0.537926 0)
(-0.0248405 -0.540572 0)
(-0.0329093 -0.544174 0)
(-0.0413165 -0.548935 0)
(-0.0501098 -0.554928 0)
(-0.0594921 -0.562315 0)
(-0.0696296 -0.571229 0)
(-0.0807675 -0.581715 0)
(-0.0931787 -0.593911 0)
(-0.107014 -0.608693 0)
(-0.122456 -0.628556 0)
(-0.140349 -0.657257 0)
(-0.162508 -0.697055 0)
(-0.190665 -0.743852 0)
(-0.224833 -0.784629 0)
(-0.262754 -0.802774 0)
(-0.298922 -0.788617 0)
(-0.322845 -0.745589 0)
(-0.329048 -0.68887 0)
(-0.340348 -0.638376 0)
(-0.390967 -0.595088 0)
(-0.00272346 -0.461388 0)
(-0.0118782 -0.519264 0)
(-0.0211764 -0.520363 0)
(-0.0309901 -0.5224 0)
(-0.0410422 -0.52526 0)
(-0.0516553 -0.52897 0)
(-0.0628837 -0.533642 0)
(-0.07493 -0.539299 0)
(-0.088023 -0.545973 0)
(-0.10245 -0.553641 0)
(-0.118513 -0.562411 0)
(-0.136509 -0.572966 0)
(-0.156987 -0.586802 0)
(-0.181212 -0.606079 0)
(-0.21129 -0.632567 0)
(-0.249347 -0.664793 0)
(-0.295888 -0.695041 0)
(-0.3483 -0.711269 0)
(-0.40063 -0.70412 0)
(-0.445495 -0.67277 0)
(-0.480911 -0.625404 0)
(-0.517819 -0.572262 0)
(-0.566899 -0.513253 0)
(-0.00357224 -0.445183 0)
(-0.0141012 -0.499031 0)
(-0.0247554 -0.499458 0)
(-0.035978 -0.50076 0)
(-0.0474938 -0.502658 0)
(-0.0595864 -0.505131 0)
(-0.0723756 -0.508198 0)
(-0.0860322 -0.511847 0)
(-0.100776 -0.516004 0)
(-0.116853 -0.520564 0)
(-0.13454 -0.525541 0)
(-0.154172 -0.531318 0)
(-0.176288 -0.538544 0)
(-0.201837 -0.547845 0)
(-0.232432 -0.559941 0)
(-0.27025 -0.575023 0)
(-0.316737 -0.590345 0)
(-0.370582 -0.599202 0)
(-0.4269 -0.594365 0)
(-0.479333 -0.572738 0)
(-0.525632 -0.536611 0)
(-0.571064 -0.490541 0)
(-0.618087 -0.435924 0)
(-0.00417764 -0.426125 0)
(-0.0157956 -0.476382 0)
(-0.0273721 -0.476195 0)
(-0.0394505 -0.476789 0)
(-0.0518542 -0.477723 0)
(-0.06476 -0.478978 0)
(-0.0783129 -0.480509 0)
(-0.0926469 -0.48226 0)
(-0.107929 -0.484121 0)
(-0.124333 -0.48592 0)
(-0.142048 -0.487575 0)
(-0.161333 -0.489309 0)
(-0.18256 -0.491429 0)
(-0.206141 -0.493751 0)
(-0.232672 -0.495755 0)
(-0.263388 -0.49744 0)
(-0.299903 -0.49876 0)
(-0.342479 -0.497756 0)
(-0.38841 -0.490707 0)
(-0.433056 -0.474939 0)
(-0.473991 -0.45064 0)
(-0.513661 -0.41926 0)
(-0.552234 -0.380432 0)
(-0.00458943 -0.405083 0)
(-0.0168956 -0.45229 0)
(-0.0289826 -0.451609 0)
(-0.0414642 -0.451597 0)
(-0.0542339 -0.451696 0)
(-0.0674159 -0.451891 0)
(-0.0811199 -0.452121 0)
(-0.0954505 -0.452311 0)
(-0.110519 -0.45234 0)
(-0.126428 -0.452022 0)
(-0.143274 -0.4512 0)
(-0.161217 -0.44997 0)
(-0.180513 -0.448659 0)
(-0.201329 -0.447203 0)
(-0.223582 -0.444714 0)
(-0.247339 -0.440204 0)
(-0.273345 -0.433509 0)
(-0.302371 -0.424787 0)
(-0.333627 -0.413423 0)
(-0.364709 -0.398363 0)
(-0.394323 -0.379298 0)
(-0.424003 -0.356389 0)
(-0.452733 -0.328628 0)
(-0.00487602 -0.382842 0)
(-0.0174497 -0.427536 0)
(-0.0296756 -0.426549 0)
(-0.0422122 -0.426076 0)
(-0.0549386 -0.425545 0)
(-0.0679754 -0.424928 0)
(-0.0813893 -0.424168 0)
(-0.0952529 -0.423194 0)
(-0.109637 -0.4219 0)
(-0.124595 -0.420123 0)
(-0.140158 -0.417667 0)
(-0.156383 -0.414491 0)
(-0.173432 -0.410869 0)
(-0.191476 -0.4071 0)
(-0.210417 -0.402827 0)
(-0.229876 -0.396927 0)
(-0.249635 -0.388377 0)
(-0.269823 -0.377045 0)
(-0.290306 -0.363476 0)
(-0.310373 -0.348318 0)
(-0.329887 -0.332041 0)
(-0.349973 -0.314455 0)
(-0.369522 -0.294055 0)
(-0.00502081 -0.360093 0)
(-0.0175083 -0.402767 0)
(-0.0295534 -0.401682 0)
(-0.0418372 -0.400914 0)
(-0.054222 -0.399962 0)
(-0.066808 -0.398795 0)
(-0.0796372 -0.397363 0)
(-0.0927538 -0.395608 0)
(-0.106199 -0.393445 0)
(-0.119999 -0.390753 0)
(-0.13415 -0.387364 0)
(-0.148637 -0.383153 0)
(-0.163505 -0.378212 0)
(-0.178886 -0.372883 0)
(-0.194861 -0.367363 0)
(-0.211254 -0.361201 0)
(-0.227637 -0.353371 0)
(-0.243542 -0.342986 0)
(-0.258558 -0.329966 0)
(-0.272475 -0.315108 0)
(-0.285784 -0.299525 0)
(-0.299533 -0.283664 0)
(-0.312971 -0.266678 0)
(-0.00497225 -0.337509 0)
(-0.0170808 -0.378578 0)
(-0.0287082 -0.377542 0)
(-0.0404825 -0.376624 0)
(-0.052307 -0.375426 0)
(-0.064243 -0.373927 0)
(-0.0763156 -0.372093 0)
(-0.08855 -0.369873 0)
(-0.100965 -0.367201 0)
(-0.113571 -0.363993 0)
(-0.126355 -0.360139 0)
(-0.139282 -0.355516 0)
(-0.152321 -0.350092 0)
(-0.165506 -0.344045 0)
(-0.178938 -0.337668 0)
(-0.192667 -0.331021 0)
(-0.206527 -0.323657 0)
(-0.220089 -0.31481 0)
(-0.232789 -0.303969 0)
(-0.244272 -0.291321 0)
(-0.254852 -0.277605 0)
(-0.26531 -0.263388 0)
(-0.275322 -0.248454 0)
(-0.00476163 -0.315695 0)
(-0.0162321 -0.355454 0)
(-0.0272661 -0.354541 0)
(-0.0383668 -0.353571 0)
(-0.049481 -0.352256 0)
(-0.0606458 -0.350592 0)
(-0.071872 -0.348554 0)
(-0.0831729 -0.3461 0)
(-0.0945534 -0.34318 0)
(-0.106012 -0.339734 0)
(-0.117534 -0.335693 0)
(-0.129088 -0.33097 0)
(-0.140629 -0.325501 0)
(-0.152131 -0.31934 0)
(-0.163632 -0.312698 0)
(-0.175202 -0.305776 0)
(-0.186827 -0.298487 0)
(-0.198284 -0.290361 0)
(-0.209172 -0.280871 0)
(-0.219161 -0.269919 0)
(-0.228361 -0.257955 0)
(-0.237247 -0.245508 0)
(-0.245628 -0.232617 0)
(-0.00447284 -0.295146 0)
(-0.0151167 -0.333738 0)
(-0.0254156 -0.332979 0)
(-0.0357472 -0.33201 0)
(-0.0460629 -0.330664 0)
(-0.0563928 -0.328944 0)
(-0.066736 -0.326833 0)
(-0.0770992 -0.324298 0)
(-0.0874792 -0.321301 0)
(-0.0978671 -0.3178 0)
(-0.108247 -0.31375 0)
(-0.118591 -0.309093 0)
(-0.128857 -0.303772 0)
(-0.139004 -0.297779 0)
(-0.149027 -0.291234 0)
(-0.158975 -0.284371 0)
(-0.168883 -0.277326 0)
(-0.178643 -0.2699 0)
(-0.187964 -0.26161 0)
(-0.19656 -0.252111 0)
(-0.204467 -0.241568 0)
(-0.212058 -0.230477 0)
(-0.219301 -0.219082 0)
(-0.00413927 -0.276209 0)
(-0.0138826 -0.313652 0)
(-0.0233602 -0.313052 0)
(-0.0328725 -0.312101 0)
(-0.0423508 -0.31077 0)
(-0.051826 -0.309056 0)
(-0.0612884 -0.306947 0)
(-0.0707392 -0.304419 0)
(-0.0801709 -0.301446 0)
(-0.0895716 -0.297996 0)
(-0.0989236 -0.29404 0)
(-0.108202 -0.289546 0)
(-0.117372 -0.284474 0)
(-0.126385 -0.278796 0)
(-0.135212 -0.272546 0)
(-0.143875 -0.265887 0)
(-0.152436 -0.259044 0)
(-0.160885 -0.252073 0)
(-0.169041 -0.244674 0)
(-0.17663 -0.236393 0)
(-0.18359 -0.227108 0)
(-0.190193 -0.217179 0)
(-0.196519 -0.206971 0)
(-0.00375364 -0.258963 0)
(-0.0126239 -0.295253 0)
(-0.0212627 -0.294806 0)
(-0.0299461 -0.293876 0)
(-0.0385934 -0.292579 0)
(-0.0472265 -0.290901 0)
(-0.0558367 -0.288832 0)
(-0.0644178 -0.286359 0)
(-0.07296 -0.283461 0)
(-0.0814508 -0.280118 0)
(-0.089873 -0.276311 0)
(-0.0982049 -0.272022 0)
(-0.106418 -0.267232 0)
(-0.114472 -0.261916 0)
(-0.122327 -0.256064 0)
(-0.129975 -0.24975 0)
(-0.13746 -0.243174 0)
(-0.144825 -0.236541 0)
(-0.151995 -0.229785 0)
(-0.158753 -0.222502 0)
(-0.164976 -0.21435 0)
(-0.170839 -0.205465 0)
(-0.176457 -0.196231 0)
(-0.00334493 -0.243301 0)
(-0.0114106 -0.278503 0)
(-0.0192405 -0.278192 0)
(-0.0271054 -0.27729 0)
(-0.0349531 -0.276031 0)
(-0.0427768 -0.2744 0)
(-0.0505747 -0.272392 0)
(-0.0583355 -0.269998 0)
(-0.0660479 -0.267204 0)
(-0.073699 -0.263996 0)
(-0.0812727 -0.260362 0)
(-0.0887496 -0.256294 0)
(-0.0961066 -0.251785 0)
(-0.103314 -0.24682 0)
(-0.110335 -0.241382 0)
(-0.117145 -0.235482 0)
(-0.123758 -0.229246 0)
(-0.130225 -0.22291 0)
(-0.136543 -0.216596 0)
(-0.142571 -0.210057 0)
(-0.148169 -0.202858 0)
(-0.153432 -0.194901 0)
(-0.158472 -0.186494 0)
(-0.0029753 -0.229139 0)
(-0.0102698 -0.263359 0)
(-0.017339 -0.263152 0)
(-0.0244193 -0.262281 0)
(-0.031499 -0.261056 0)
(-0.0385548 -0.259479 0)
(-0.0455811 -0.257542 0)
(-0.0525687 -0.255238 0)
(-0.0595054 -0.252559 0)
(-0.0663783 -0.249497 0)
(-0.0731718 -0.246045 0)
(-0.0798688 -0.242199 0)
(-0.0864505 -0.237957 0)
(-0.092895 -0.233315 0)
(-0.0991743 -0.228259 0)
(-0.10526 -0.222775 0)
(-0.111146 -0.216918 0)
(-0.116865 -0.210883 0)
(-0.122448 -0.204898 0)
(-0.127822 -0.198907 0)
(-0.132861 -0.1925 0)
(-0.137601 -0.18538 0)
(-0.142136 -0.177706 0)
(-0.00267537 -0.216462 0)
(-0.00918436 -0.249765 0)
(-0.0155309 -0.249645 0)
(-0.0218871 -0.248791 0)
(-0.0282314 -0.247598 0)
(-0.0345607 -0.246071 0)
(-0.040858 -0.244205 0)
(-0.047117 -0.241992 0)
(-0.0533268 -0.239428 0)
(-0.0594748 -0.23651 0)
(-0.0655469 -0.233233 0)
(-0.071528 -0.229596 0)
(-0.0774021 -0.225597 0)
(-0.0831525 -0.22124 0)
(-0.0887589 -0.216518 0)
(-0.094197 -0.211415 0)
(-0.0994503 -0.205941 0)
(-0.104531 -0.200228 0)
(-0.10947 -0.194524 0)
(-0.114247 -0.188931 0)
(-0.118772 -0.18315 0)
(-0.123044 -0.176764 0)
(-0.127125 -0.169748 0)
(-0.00241839 -0.205209 0)
(-0.00816241 -0.237612 0)
(-0.0138109 -0.237587 0)
(-0.0194911 -0.236732 0)
(-0.0251417 -0.235568 0)
(-0.0307813 -0.234087 0)
(-0.0363926 -0.232286 0)
(-0.0419676 -0.230159 0)
(-0.0474966 -0.227704 0)
(-0.0529683 -0.224921 0)
(-0.0583704 -0.221805 0)
(-0.0636898 -0.218358 0)
(-0.0689122 -0.214579 0)
(-0.0740239 -0.210472 0)
(-0.0790091 -0.206038 0)
(-0.0838492 -0.201267 0)
(-0.0885272 -0.196151 0)
(-0.0930408 -0.190766 0)
(-0.0974095 -0.185329 0)
(-0.10164 -0.180041 0)
(-0.105684 -0.174744 0)
(-0.109524 -0.168986 0)
(-0.113188 -0.16256 0)
(-0.00215495 -0.195239 0)
(-0.00723455 -0.226791 0)
(-0.0122251 -0.226857 0)
(-0.0172479 -0.226 0)
(-0.0222519 -0.224862 0)
(-0.0272384 -0.223422 0)
(-0.0322042 -0.22168 0)
(-0.0371368 -0.219633 0)
(-0.0420271 -0.217279 0)
(-0.0468648 -0.214619 0)
(-0.0516396 -0.21165 0)
(-0.0563401 -0.208375 0)
(-0.060954 -0.204794 0)
(-0.0654691 -0.200912 0)
(-0.0698725 -0.196731 0)
(-0.0741491 -0.192249 0)
(-0.0782843 -0.187455 0)
(-0.0822701 -0.182384 0)
(-0.0861137 -0.177206 0)
(-0.0898339 -0.172159 0)
(-0.0934232 -0.167225 0)
(-0.0968604 -0.161986 0)
(-0.100137 -0.156087 0)
(-0.00188773 -0.186377 0)
(-0.00640664 -0.217248 0)
(-0.0107914 -0.21739 0)
(-0.0151777 -0.216544 0)
(-0.0195772 -0.215427 0)
(-0.0239516 -0.214025 0)
(-0.0283099 -0.212337 0)
(-0.0326379 -0.210362 0)
(-0.0369269 -0.2081 0)
(-0.0411674 -0.205551 0)
(-0.0453503 -0.202714 0)
(-0.049466 -0.199591 0)
(-0.053504 -0.196186 0)
(-0.0574539 -0.192504 0)
(-0.0613047 -0.188548 0)
(-0.0650438 -0.184319 0)
(-0.0686588 -0.179809 0)
(-0.0721399 -0.175029 0)
(-0.0754855 -0.170093 0)
(-0.0787182 -0.165236 0)
(-0.0818658 -0.160552 0)
(-0.0849172 -0.155718 0)
(-0.0878279 -0.15028 0)
(-0.0016542 -0.178489 0)
(-0.00563467 -0.208926 0)
(-0.00945663 -0.209149 0)
(-0.0132467 -0.208316 0)
(-0.0170751 -0.207217 0)
(-0.0208778 -0.205851 0)
(-0.0246659 -0.204213 0)
(-0.0284259 -0.202305 0)
(-0.0321495 -0.200128 0)
(-0.0358281 -0.197681 0)
(-0.0394533 -0.194964 0)
(-0.0430166 -0.191978 0)
(-0.0465092 -0.18873 0)
(-0.0499221 -0.185223 0)
(-0.0532464 -0.181464 0)
(-0.0564722 -0.177456 0)
(-0.0595895 -0.173195 0)
(-0.0625885 -0.168679 0)
(-0.0654606 -0.163971 0)
(-0.0682247 -0.159263 0)
(-0.0709351 -0.154729 0)
(-0.0736042 -0.150177 0)
(-0.0761605 -0.145121 0)
(-0.00141454 -0.171523 0)
(-0.00479428 -0.201696 0)
(-0.00811318 -0.202012 0)
(-0.0113502 -0.201173 0)
(-0.014646 -0.200088 0)
(-0.0179161 -0.198749 0)
(-0.0211744 -0.197159 0)
(-0.0244055 -0.195318 0)
(-0.0276023 -0.193226 0)
(-0.0307563 -0.190879 0)
(-0.03386 -0.188277 0)
(-0.0369059 -0.185422 0)
(-0.0398865 -0.18232 0)
(-0.0427944 -0.178976 0)
(-0.0456224 -0.175397 0)
(-0.048363 -0.171586 0)
(-0.0510092 -0.167545 0)
(-0.0535532 -0.163269 0)
(-0.0559819 -0.158781 0)
(-0.0583035 -0.15421 0)
(-0.0605831 -0.149753 0)
(-0.0628638 -0.145363 0)
(-0.0650657 -0.140604 0)
(-0.00103332 -0.16576 0)
(-0.0036984 -0.195518 0)
(-0.00661527 -0.195893 0)
(-0.00934078 -0.195026 0)
(-0.0121572 -0.193943 0)
(-0.014936 -0.192624 0)
(-0.0177054 -0.191075 0)
(-0.0204459 -0.189295 0)
(-0.023153 -0.18728 0)
(-0.0258194 -0.185026 0)
(-0.0284386 -0.18253 0)
(-0.0310045 -0.179796 0)
(-0.0335112 -0.17683 0)
(-0.0359527 -0.173636 0)
(-0.0383229 -0.17022 0)
(-0.0406159 -0.166586 0)
(-0.0428265 -0.162737 0)
(-0.0449495 -0.158673 0)
(-0.0469719 -0.154395 0)
(-0.0488902 -0.149971 0)
(-0.0507612 -0.145565 0)
(-0.0526504 -0.141243 0)
(-0.0544927 -0.136686 0)
(-0.000416728 -0.161984 0)
(-0.00224895 -0.19056 0)
(-0.00485337 -0.190862 0)
(-0.00710651 -0.189976 0)
(-0.00949109 -0.188897 0)
(-0.011805 -0.187601 0)
(-0.0141068 -0.18609 0)
(-0.0163759 -0.184362 0)
(-0.0186123 -0.18241 0)
(-0.0208115 -0.180229 0)
(-0.0229695 -0.177819 0)
(-0.0250819 -0.175183 0)
(-0.0271448 -0.172326 0)
(-0.0291536 -0.169253 0)
(-0.0311036 -0.165968 0)
(-0.0329896 -0.162475 0)
(-0.0348074 -0.158779 0)
(-0.0365529 -0.154882 0)
(-0.0382159 -0.150784 0)
(-0.0397867 -0.146509 0)
(-0.0412994 -0.142161 0)
(-0.0428201 -0.137851 0)
(-0.0443166 -0.133406 0)
(0.000350889 -0.160643 0)
(-0.000638633 -0.186771 0)
(-0.00294805 -0.18669 0)
(-0.00472786 -0.185839 0)
(-0.00668672 -0.184809 0)
(-0.00852894 -0.18357 0)
(-0.0103526 -0.182121 0)
(-0.0121396 -0.180457 0)
(-0.013894 -0.178571 0)
(-0.015615 -0.176461 0)
(-0.0173015 -0.174128 0)
(-0.018952 -0.171574 0)
(-0.0205656 -0.168805 0)