/*--------------------------------*- C++ -*----------------------------------*\
| =========                 |                                                 |
| \\      /  F ield         | OpenFOAM: The Open Source CFD Toolbox           |
|  \\    /   O peration     | Version:  2206                                  |
|   \\  /    A nd           | Website:  www.openfoam.com                      |
|    \\/     M anipulation  |                                                 |
\*---------------------------------------------------------------------------*/
FoamFile
{
    version     2.0;
    format      ascii;
    arch        "LSB;label=32;scalar=64";
    class       volScalarField;
    location    "0.875";
    object      alpha.water;
}
// * * * * * * * * * * * * * * * * * * * * * * * * * * * * * * * * * * * * * //

dimensions      [0 0 0 0 0 0 0];

internalField   nonuniform List<scalar> 
2268
(
1
1
1
1
1
1
1
1
1
1
1
1
1
1
1
1
1
1
1
0.999998
0.999998
0.999998
0.985936
1
1
1
1
1
1
1
1
1
1
1
1
1
1
1
1
1
1
1
0.999998
0.999998
0.999998
0.989575
1
1
1
1
1
1
1
1
1
1
1
1
1
1
1
1
1
1
1
1
1
0.989802
0.92706
1
1
1
1
1
1
1
1
1
1
1
1
1
1
1
1
1
1
1
1
0.999897
0.952482
0.917146
1
1
1
1
1
1
1
1
1
1
1
1
1
1
1
1
1
1
1
1
1
0.977762
0.921593
1
1
0.999999
0.999999
1
1
1
1
1
1
1
1
1
1
1
1
1
1
1
1
0.999993
0.999432
0.992025
1
0.999985
0.99997
0.999972
0.999984
0.999994
0.999998
0.999999
1
1
1
1
1
1
1
1
1
1
1
1
1
1
0.999991
0.967793
0.932684
0.931769
0.940876
0.960151
0.980556
0.99366
0.999162
0.999979
0.999995
1
1
1
1
1
1
1
1
1
0.982837
0.93957
0.952695
0.996594
0.416724
0.416724
0.416697
0.183666
0.0573003
0.0561273
0.0678915
0.068143
0.0680352
0.0302342
0.0601875
0.436754
0.446084
0.446084
0.418646
0.429741
0.429771
0.429771
0.429771
0.416724
0.416697
0.40672
0.128084
0.0202365
0.017907
0.0172473
0.0161892
0.0151735
0.0215094
0.0226706
0.140552
0.405563
0.287915
0.0971807
0.0571026
0.12767
0.426868
0.426024
0.415357
0.408638
0.328474
0.0641975
0.0235442
0.0202137
0.0144811
0.0144056
0.0144219
0.0751221
0.131158
0.131044
0.00307063
0.00248626
0.00307063
0.0042405
0.00553408
0.250044
0.425239
0.147768
0.059395
0.130942
0.0324955
0.0268685
0.0779319
0.050122
0.0144811
0.0520125
0.104269
0.104525
0.00247152
0.00370097
0.00217919
0.00313288
0.00946698
0.00844681
0.0706894
0.376315
0.0060906
0.00602356
0.054144
0.0779079
0.0437558
0.0847759
0.0836669
0.0820852
0.0783844
0.0492555
0.00272617
0.00156346
0.00161078
0.00163225
0.00173491
0.00338403
0.010362
0.0181166
0.300393
0.00602284
0.0060906
0.0396235
0.0858283
0.0854266
0.0848564
0.0847763
0.072606
0.00868692
0.00187908
0.00156346
0.00156346
0.00156346
0.0036878
0.00185042
0.00199891
0.00582006
0.0295266
0.346585
0.0064323
0.0421585
0.0864235
0.0864998
0.0863269
0.0854169
0.0366582
0.00575396
0.00232156
0.00176669
0.00164262
0.00156346
0.00219776
0.00425524
0.00417151
0.00219953
0.00879968
0.0419391
0.346585
0.0240875
0.0864214
0.0864998
0.0864214
0.0858682
0.0462346
0.00237139
0.00187181
0.00351683
0.00420372
0.00421814
0.00281673
0.00220716
0.00424912
0.00293147
0.00209461
0.0143806
0.0415287
0.346585
0.247341
0.171796
0.175834
0.197759
0.251906
0.339794
0.451443
0.57589
0.704532
0.798518
0.840728
0.846598
0.84179
0.838965
0.849087
0.85545
0.841514
0.794869
0.719479
0.663732
0.664713
0.704276
0.702412
1.38003e-13
5.59713e-14
-1.86277e-41
6.30233e-27
6.30528e-18
1.62475e-16
2.9973e-15
6.56358e-14
0.0129288
0.0511874
0.100885
0.144381
0.171639
0.188302
0.204653
0.215669
0.203265
0.162381
0.122336
0.120269
0.136239
0.138368
0.0859507
5.59713e-14
1.23105e-29
-2.0813e-16
-3.25992e-17
0
6.30528e-18
1.62475e-16
2.9973e-15
6.56358e-14
2.32206e-12
4.07042e-11
6.01072e-10
-3.62654e-07
4.92813e-05
0.0001627
0.00026591
0.000304343
0.000356954
0.000622584
0.000570201
0.000428257
0.000245931
4.83159e-05
1.40195e-09
-1.99562e-28
-4.2224e-16
-9.50766e-17
-1.9507e-45
2.10337e-15
4.90148e-14
3.64553e-13
1.00758e-12
2.73941e-11
5.92606e-10
2.85895e-08
1.32938e-07
1.14404e-06
6.54218e-06
1.7725e-05
3.46085e-05
5.87395e-05
9.06439e-05
5.55168e-05
2.76239e-05
1.33e-05
3.88153e-06
4.12531e-08
1.26262e-26
-7.25786e-16
-4.57219e-16
1.13667e-18
1.11643e-16
6.70287e-15
1.46429e-13
7.17471e-13
1.73851e-11
3.32035e-09
5.82822e-08
1.33189e-08
1.85092e-07
2.80711e-07
1.3367e-06
4.45035e-06
9.64335e-06
1.18177e-05
5.34532e-06
1.77249e-06
7.69007e-07
3.10402e-07
7.65077e-08
6.33758e-09
-4.41767e-16
-2.44592e-16
-7.58891e-27
3.6043e-17
5.01548e-15
2.29682e-13
7.20766e-12
6.13059e-11
1.2234e-10
8.97824e-11
2.7329e-09
1.96116e-08
2.39109e-08
1.7048e-07
5.30651e-07
1.12646e-06
1.25735e-06
4.93747e-07
1.20623e-07
5.13663e-08
2.52357e-08
7.65499e-08
7.86902e-09
-1.16829e-35
3.49084e-18
8.43983e-19
4.46897e-18
4.45798e-16
1.93276e-14
2.93023e-13
1.87366e-12
8.83632e-12
3.64257e-11
1.15997e-10
5.71009e-10
3.56354e-09
1.5974e-08
5.3022e-08
1.07403e-07
1.26805e-07
4.30717e-08
9.09483e-09
3.92473e-09
2.27251e-09
7.65601e-08
4.33037e-19
4.92626e-19
2.93449e-18
1.98816e-19
1.73719e-18
8.75838e-17
2.29136e-15
4.13339e-14
4.65346e-13
3.22978e-12
1.45794e-11
3.71357e-11
6.03868e-11
3.01868e-10
1.26177e-09
4.49423e-09
9.17725e-09
1.11678e-08
3.60207e-09
7.45748e-10
3.34323e-10
2.1436e-10
7.71858e-08
4.29674e-19
4.91873e-19
2.12844e-18
2.03257e-20
4.33216e-19
1.61835e-17
3.48186e-16
5.90459e-15
7.33167e-14
5.37147e-13
2.40839e-12
8.472e-12
1.92598e-11
2.57797e-11
1.07954e-10
3.98429e-10
8.29157e-10
9.10383e-10
3.29474e-10
9.3298e-11
4.42829e-11
2.41552e-11
7.71641e-08
1.06337e-14
5.32931e-19
5.14713e-19
1.72662e-21
4.99707e-20
1.66502e-18
3.30396e-17
5.15252e-16
5.7244e-15
4.02122e-14
1.83073e-13
7.22405e-13
3.18342e-12
9.95491e-12
2.01364e-11
4.51994e-11
9.54866e-11
1.04873e-10
4.17302e-11
9.84962e-12
4.61443e-12
3.04157e-12
4.75929e-08
9.6168e-16
9.46518e-16
1.14799e-19
3.2311e-22
4.28966e-21
1.2809e-19
2.46686e-18
3.30036e-17
3.08163e-16
1.91702e-15
8.60948e-15
3.63367e-14
2.09562e-13
1.48365e-12
7.29645e-12
1.60905e-11
1.13475e-11
1.05302e-11
3.80893e-12
1.17209e-12
1.00486e-12
8.58229e-13
1.82137e-09
1.0089e-15
1.03753e-15
7.46578e-20
2.27235e-22
3.09128e-22
9.09021e-21
1.50738e-19
1.79027e-18
1.49028e-17
8.42893e-17
3.56168e-16
1.62497e-15
1.24064e-14
1.14164e-13
8.7812e-13
2.847e-12
3.09054e-12
1.8476e-12
3.61929e-13
1.52715e-13
1.98197e-13
4.90178e-13
7.68712e-14
3.27626e-14
5.97689e-16
2.87144e-20
1.02244e-22
1.5229e-23
5.15315e-22
7.63618e-21
8.48835e-20
6.73347e-19
3.71882e-18
1.67763e-17
1.07225e-16
9.32897e-16
8.96281e-15
6.76006e-14
2.41142e-13
3.62577e-13
2.35093e-13
4.33973e-14
3.80587e-14
4.52364e-14
2.83285e-13
2.34283e-11
3.52912e-13
3.90995e-16
1.13138e-20
5.27543e-23
6.91568e-25
1.91095e-23
2.83972e-22
3.1794e-21
2.60408e-20
1.62133e-19
1.04972e-18
8.44224e-18
7.70872e-17
7.33308e-16
5.38796e-15
1.87085e-14
2.60777e-14
2.29132e-14
3.11038e-14
3.80587e-14
3.80587e-14
8.88233e-14
2.19512e-11
3.69244e-13
2.64669e-16
5.91294e-21
4.17555e-23
1.92213e-25
4.442e-25
7.28333e-24
8.33675e-23
7.88922e-22
6.97712e-21
6.57686e-20
6.49e-19
6.33751e-18
5.88824e-17
3.89183e-16
1.31914e-15
2.57752e-15
5.76241e-15
1.34976e-14
3.10904e-14
4.52102e-14
1.75878e-13
1.24032e-11
3.34525e-13
1.88268e-16
5.24319e-21
4.18847e-23
1.68919e-25
1.36817e-27
2.0402e-25
2.85778e-24
3.18413e-23
3.53375e-22
4.01814e-21
4.48194e-20
4.86263e-19
4.34064e-18
2.62034e-17
1.0325e-16
3.49659e-16
1.67549e-15
1.21476e-14
1.44831e-13
1.17867e-12
1.13395e-11
6.86523e-12
2.81755e-13
1.25545e-16
7.2073e-21
6.65135e-23
2.83817e-25
3.61685e-43
1.36817e-27
9.3129e-26
1.12815e-24
1.59485e-23
2.30591e-22
2.92749e-21
3.42883e-20
3.05896e-19
2.03757e-18
1.30943e-17
9.99136e-17
1.13425e-15
1.68038e-14
2.86158e-13
2.72315e-12
1.1078e-11
4.60684e-12
2.49257e-13
7.03994e-17
1.58815e-20
1.59307e-22
5.97582e-25
-2.35925e-27
-2.24744e-46
4.88873e-27
6.52234e-26
8.02904e-25
1.21977e-23
1.87694e-22
2.3562e-21
2.47578e-20
2.33112e-19
2.52325e-18
3.5903e-17
6.73293e-16
1.23802e-14
2.18549e-13
2.60397e-12
1.11898e-11
3.90438e-12
2.3952e-13
2.47804e-17
3.96814e-20
4.61956e-22
1.56407e-24
4.53783e-27
-2.24744e-46
6.71689e-29
3.52474e-27
4.8668e-26
6.26278e-25
1.15435e-23
1.60188e-22
2.03253e-21
2.42085e-20
3.68554e-19
7.55761e-18
1.62432e-16
3.14011e-15
5.63355e-14
9.417e-13
7.44499e-12
3.84652e-12
2.38688e-13
1.17489e-17
1.08769e-19
1.45284e-21
5.70657e-24
1.80504e-26
-5.34833e-30
-4.38621e-44
1.83547e-28
2.7889e-27
3.90738e-26
6.72381e-25
1.09837e-23
1.47122e-22
2.04969e-21
3.50635e-20
6.82068e-19
1.29145e-17
2.29529e-16
4.02237e-15
7.48757e-14
1.32641e-12
3.93626e-12
2.4137e-13
1.47975e-17
2.89192e-19
4.04059e-21
2.15026e-23
8.01328e-26
3.78677e-28
1.05992e-29
1.02913e-29
1.47225e-28
2.24623e-27
3.31397e-26
6.29031e-25
9.64029e-24
1.5275e-22
2.72559e-21
4.88556e-20
8.34382e-19
1.28289e-17
1.93731e-16
3.13553e-15
7.467e-14
4.27159e-12
2.51795e-13
4.51503e-17
7.5572e-19
1.07263e-20
6.22816e-23
3.15075e-25
1.82311e-27
1.59093e-29
1.38983e-30
7.24484e-30
1.17562e-28
1.84773e-27
2.78466e-26
4.40914e-25
8.21218e-24
1.78866e-22
3.80787e-21
7.56574e-20
1.25816e-18
1.98893e-17
3.93689e-16
1.1012e-14
5.14316e-12
2.89618e-13
2.69284e-16
2.45063e-18
3.94383e-20
1.62243e-22
7.90461e-25
5.23256e-27
4.21102e-29
9.15821e-31
4.60719e-31
5.77354e-30
9.86378e-29
1.63281e-27
2.48193e-26
4.20134e-25
9.07682e-24
2.52521e-22
7.41989e-21
1.2738e-19
2.03965e-18
5.09068e-17
1.16253e-15
6.92201e-12
5.16689e-13
2.19011e-15
1.43119e-17
2.51267e-19
7.20762e-22
1.7082e-24
1.00324e-26
8.66028e-29
9.79228e-31
1.11635e-31
3.3287e-31
5.77354e-30
1.00583e-28
1.30458e-27
2.13213e-26
1.92687e-25
1.03341e-23
1.87678e-22
3.5198e-21
5.33175e-20
9.91483e-19
7.32214e-17
8.15474e-12
1.32718e-12
1.96238e-14
1.17871e-16
1.68192e-18
6.25083e-21
5.42619e-24
1.80469e-26
1.17665e-28
1.07174e-30
8.41337e-32
4.98044e-32
1.53841e-30
2.18834e-29
5.49304e-29
0
2.23903e-41
-1.17433e-33
-8.17765e-23
-6.79326e-21
-4.74194e-19
-3.4592e-19
7.67959e-19
8.19316e-12
2.69974e-12
1.23699e-13
9.51681e-16
9.65591e-18
4.66756e-20
5.69747e-23
4.719e-27
3.66674e-29
4.07903e-31
1.98701e-32
1.42289e-32
1.89401e-31
2.52272e-30
0
-1.99188e-27
-1.0123e-24
-2.17931e-23
-9.14018e-22
-2.30795e-20
-5.99525e-19
-3.41928e-18
-4.63361e-18
7.87226e-12
3.47775e-12
3.39405e-13
5.65375e-15
4.86397e-17
3.14803e-19
5.1776e-22
1.81932e-26
1.02464e-29
5.1443e-32
1.2506e-32
1.2506e-32
1.29617e-32
1.95025e-31
7.07676e-30
-1.25962e-27
-9.28093e-25
-2.08254e-23
-9.15664e-22
-2.14922e-20
-4.15773e-19
-2.49362e-18
-7.69345e-18
6.14181e-12
3.27176e-12
4.95135e-13
1.48106e-14
1.58529e-16
1.70119e-18
5.03555e-21
8.56166e-25
9.57441e-28
6.84201e-31
1.25297e-32
1.28728e-32
1.40549e-32
2.70041e-32
1.40472e-30
-1.00394e-27
-6.69678e-25
-1.52306e-23
-7.05616e-22
-1.52162e-20
-2.36832e-19
-1.35222e-18
-4.48953e-18
3.11458e-12
2.45726e-12
4.89399e-13
1.99521e-14
2.69336e-16
4.44442e-18
4.94958e-20
1.46481e-22
6.92869e-25
4.65813e-27
1.90645e-29
7.59148e-32
1.0806e-32
9.61469e-33
1.02132e-32
-9.19635e-28
-4.29929e-25
-9.92688e-24
-4.70348e-22
-9.19088e-21
-1.19032e-19
-6.27597e-19
-2.0204e-18
9.0085e-13
1.27801e-12
3.31865e-13
1.56347e-14
2.30833e-16
4.89198e-18
9.88588e-20
1.26986e-21
1.12678e-23
4.63326e-26
3.04362e-28
2.62e-30
2.36059e-32
0
-3.51391e-31
-7.20465e-28
-2.51924e-25
-5.93892e-24
-2.79994e-22
-4.93583e-21
-5.42462e-20
-2.59147e-19
-7.87283e-19
1.64124e-13
4.16902e-13
1.16064e-13
5.79668e-15
1.05725e-16
3.07504e-18
8.93142e-20
1.71108e-21
2.29339e-23
2.55175e-25
2.3801e-27
1.88621e-29
1.24183e-31
0
-4.43169e-31
-4.87711e-28
-1.36243e-25
-3.29277e-24
-1.51037e-22
-2.40446e-21
-2.27517e-20
-9.65598e-20
-2.78856e-19
2.49691e-14
8.95344e-14
2.31093e-14
1.18379e-15
2.81407e-17
1.00455e-18
3.54949e-20
9.22672e-22
1.89741e-23
3.09812e-25
4.13538e-27
4.61919e-29
4.44618e-31
1.20252e-33
-3.74797e-31
-2.93628e-28
-6.83584e-26
-1.69752e-24
-7.44163e-23
-1.07314e-21
-8.85009e-21
-3.24905e-20
-9.41928e-20
3.70818e-15
1.46845e-14
3.68491e-15
1.91833e-16
5.52743e-18
2.20156e-19
7.98722e-21
2.30462e-22
5.67406e-24
1.17772e-25
2.07294e-27
3.24068e-29
4.7334e-31
4.26006e-33
-2.6125e-31
-1.59671e-28
-3.18626e-26
-8.1359e-25
-3.36126e-23
-4.40456e-22
-3.19871e-21
-9.75801e-21
-3.26213e-20
5.23767e-16
2.06888e-15
5.29689e-16
2.69221e-17
8.75084e-19
3.72164e-20
1.37453e-21
4.13215e-23
1.06465e-24
2.40746e-26
4.83024e-28
8.82976e-30
1.51008e-31
1.72974e-33
-1.58031e-31
-7.8911e-29
-1.37747e-26
-3.61483e-25
-1.39197e-23
-1.6613e-22
-1.07076e-21
-2.56297e-21
-1.253e-20
6.71553e-17
2.53145e-16
6.55802e-17
3.17218e-18
1.13801e-19
5.03833e-21
1.90066e-22
5.9711e-24
1.61818e-25
3.83027e-27
8.04366e-29
1.53198e-30
2.71096e-32
3.32985e-34
-8.43162e-32
-3.54736e-29
-5.501e-27
-1.48132e-25
-5.26969e-24
-5.73491e-23
-3.29656e-22
-5.82349e-22
-5.33962e-21
7.68786e-18
2.66886e-17
6.83648e-18
3.14135e-19
1.24111e-20
5.64037e-22
2.1692e-23
7.05661e-25
1.98653e-26
4.8892e-28
1.06748e-29
2.10965e-31
3.83442e-33
4.52254e-35
-3.99072e-32
-1.44662e-29
-2.01701e-27
-5.55861e-26
-1.81375e-24
-1.7999e-23
-9.24456e-23
-1.20121e-22
-2.27968e-21
7.86045e-19
2.45782e-18
6.07636e-19
2.69417e-20
1.16986e-21
5.413e-23
2.11541e-24
7.04903e-26
2.03364e-27
5.13083e-29
1.14832e-30
2.32204e-32
4.20522e-34
3.37275e-36
-1.67611e-32
-5.32393e-30
-6.73742e-28
-1.89317e-26
-5.63367e-25
-5.09364e-24
-2.3368e-23
-2.52952e-23
-8.71505e-22
7.22745e-20
2.02899e-19
4.7246e-20
2.08204e-21
9.82539e-23
4.59558e-24
1.81451e-25
6.12573e-27
1.78982e-28
4.56942e-30
1.03353e-31
2.10699e-33
3.50421e-35
3.25823e-52
-6.22876e-33
-1.75691e-30
-2.03314e-28
-5.79591e-27
-1.56598e-25
-1.28832e-24
-5.26886e-24
-5.29977e-24
-2.8079e-22
6.04383e-21
1.545e-20
3.31261e-21
1.50069e-22
7.53437e-24
3.53303e-25
1.39875e-26
4.73233e-28
1.38417e-29
3.53285e-31
7.97298e-33
1.61674e-34
2.52112e-36
-1.98107e-36
-2.039e-33
-5.16243e-31
-5.49248e-29
-1.57979e-27
-3.86007e-26
-2.8862e-25
-1.04818e-24
-9.89734e-25
-7.7064e-23
4.63112e-22
1.11506e-21
2.15537e-22
1.02997e-23
5.36604e-25
2.4989e-26
9.82603e-28
3.29878e-29
9.54899e-31
2.40664e-32
5.35306e-34
1.06656e-35
1.69313e-37
-9.55968e-37
-5.84866e-34
-1.34094e-31
-1.31767e-29
-3.78988e-28
-8.35902e-27
-5.66568e-26
-1.81862e-25
-1.55013e-25
-1.91383e-23
2.33449e-23
7.74605e-23
1.34369e-23
6.84517e-25
3.61259e-26
1.65488e-27
6.39417e-29
2.10711e-30
5.9774e-32
1.47115e-33
3.18871e-35
6.17461e-37
9.87482e-39
-2.88173e-37
-1.46263e-34
-3.05744e-32
-2.78339e-30
-7.92592e-29
-1.57605e-27
-9.64675e-27
-2.72644e-26
-2.00268e-26
-4.37392e-24
1.34899e-23
3.37796e-24
4.38221e-25
2.31706e-26
1.21951e-27
5.45891e-29
2.05762e-30
6.60507e-32
1.82459e-33
4.36235e-35
9.16067e-37
1.71468e-38
2.68313e-40
-7.06535e-38
-3.18861e-35
-6.11323e-33
-5.16592e-31
-1.43745e-29
-2.5778e-28
-1.42145e-27
-3.5194e-27
-2.14208e-27
-8.05398e-25
0.149238
0.0897133
0.0856237
0.0871713
0.018775
0.0034595
0.00175315
0.0271314
4.47056e-05
3.48686e-05
0.000145361
0.000665861
4.14745e-06
5.53182e-06
3.26958e-05
0.000126498
4.0068e-07
7.99697e-07
4.35852e-06
1.96959e-05
3.95128e-08
1.03858e-07
4.82366e-07
2.12184e-06
3.96326e-09
1.23699e-08
5.27875e-08
1.78281e-07
4.11232e-10
1.41767e-09
5.55201e-09
1.5928e-08
4.81161e-11
1.84917e-10
7.40933e-10
2.41933e-09
9.20587e-12
3.86671e-11
2.2718e-10
8.22121e-10
3.70854e-12
1.61359e-11
6.92526e-11
2.70143e-10
2.30858e-12
1.68816e-11
6.78108e-11
1.5497e-10
2.19703e-12
1.30932e-11
4.65398e-11
6.25936e-11
3.8563e-13
1.36993e-12
2.0493e-12
1.7622e-11
6.92106e-13
-8.14883e-11
-4.04299e-12
-3.60841e-09
1.22128e-10
1.49235e-09
2.1732e-08
2.91944e-07
1.22442e-10
1.48109e-09
2.42922e-08
3.74347e-07
4.7667e-11
6.74038e-10
1.27732e-08
2.51218e-07
2.67515e-11
6.9583e-10
4.96085e-08
1.61278e-06
1.68771e-11
4.28607e-10
1.39995e-08
2.18323e-07
3.1331e-12
4.83458e-12
6.7742e-11
2.09116e-09
3.15393e-13
7.10253e-13
8.29371e-12
2.41828e-10
2.75922e-14
3.24664e-13
7.98957e-13
3.05484e-11
2.02563e-15
3.38092e-14
1.12458e-13
2.99909e-12
1.03615e-16
1.2612e-15
1.02605e-14
2.56514e-13
2.6379e-19
8.75687e-17
1.22238e-12
7.06265e-13
-7.03296e-18
5.23065e-18
2.05528e-12
9.26416e-13
-1.05452e-17
1.74201e-34
9.59131e-13
1.94483e-12
-4.89804e-18
6.16496e-16
3.18389e-13
2.36199e-12
-1.56894e-18
3.49143e-15
2.41165e-13
1.02832e-12
-3.38889e-19
5.57775e-15
9.70335e-14
2.498e-13
-6.00803e-20
4.17322e-15
1.69998e-14
9.839e-14
-7.96687e-20
9.87875e-16
1.54076e-15
1.83275e-14
-1.24331e-19
2.66358e-17
2.31538e-17
1.61734e-15
-1.35498e-19
-2.13472e-18
-1.29876e-17
5.66856e-18
-1.09545e-19
-7.61371e-18
-1.71493e-17
-1.60597e-17
-6.94675e-20
-4.87947e-18
-8.69226e-18
-8.08282e-18
-3.59968e-20
-2.27812e-18
-3.18397e-18
-2.33635e-18
-1.53269e-20
-8.78546e-19
-9.259e-19
-5.04743e-19
-5.18459e-21
-2.73505e-19
-2.04427e-19
-7.69751e-20
-1.31104e-21
-6.32694e-20
-3.02124e-20
-6.89426e-21
-2.2629e-22
-9.47988e-21
-2.33872e-21
-2.30499e-22
0.0871713
0.0816762
0.0864214
0.0863291
0.085768
0.0330452
0.00171698
0.00156548
0.00377821
0.0038006
0.000801537
0.000817849
0.00305371
0.00415367
0.000271575
0.000748156
0.0099114
0.0445523
0.110769
0.0444038
0.0644272
0.0672985
0.0449192
0.0548387
0.0392709
0.00146639
0.00124574
0.00254526
0.00243021
0.00079935
0.000814113
0.00307394
0.00102373
1.01002e-05
4.3432e-06
0.00214689
0.0531366
0.0528067
0.00361982
0.0117372
0.002129
0.00103248
0.0273718
0.0471944
0.0123837
0.000895877
0.000800178
0.000800145
0.000799335
0.0008106
0.00306588
8.17309e-05
4.3432e-06
3.87775e-06
3.82402e-06
0.0571063
0.10036
0.000375347
9.48327e-05
5.46284e-05
8.81008e-05
0.00437775
0.0437044
0.0498092
0.00083733
0.000806699
0.000799353
0.000803791
0.00152149
0.00160777
0.000129027
3.98814e-06
3.82402e-06
3.81787e-06
0.0473323
0.13795
5.80845e-05
4.11019e-05
4.22854e-05
2.14435e-05
0.000322487
0.0302988
0.0512897
0.0105534
0.00083733
0.00101042
0.000858014
0.00241428
7.4015e-05
9.07197e-06
3.86584e-06
3.81627e-06
3.82002e-06
0.0223967
0.137472
5.89106e-06
3.87286e-06
4.02362e-06
5.92877e-06
2.14436e-05
0.023087
0.0511907
0.0506078
0.00469865
0.00673641
0.0028959
0.00246841
0.000128134
5.50999e-06
3.95917e-06
3.82002e-06
3.81718e-06
0.007194
0.120491
4.16647e-07
2.14232e-07
5.62466e-07
1.37148e-06
5.28964e-06
0.0084176
0.0452996
0.0493842
0.0301978
0.00314612
0.00316928
0.000981015
3.36282e-05
9.48748e-06
4.36011e-06
3.84449e-06
3.82002e-06
0.00222046
0.198004
3.45776e-08
7.41939e-08
3.4427e-07
5.19948e-07
6.32086e-06
0.00230523
0.0108698
0.0193218
0.00548415
0.00291195
0.00255459
1.96599e-05
1.96599e-05
5.41497e-05
3.78765e-05
3.928e-06
3.84449e-06
0.00210373
0.203707
1.12615e-08
3.69749e-08
7.08535e-08
1.59795e-06
0.000128108
0.000292052
0.000451805
0.00149476
0.00421877
0.00359782
0.000420513
1.69704e-05
4.84529e-05
8.74278e-05
9.31546e-05
1.13778e-05
3.92793e-06
0.00312252
0.203737
2.55454e-09
8.99739e-09
7.58834e-08
1.45644e-05
9.97158e-05
7.71236e-05
0.000262084
0.00270687
0.00379733
0.00174382
1.5002e-05
1.48619e-05
6.66559e-05
8.15323e-05
0.00010207
0.000103578
3.32554e-05
0.00456208
0.203739
1.2474e-09
9.30064e-09
1.29344e-06
1.27866e-05
1.0037e-05
2.6428e-05
0.000735345
0.00350703
0.00354405
1.50017e-05
1.46715e-05
1.48569e-05
1.24193e-05
8.31387e-06
5.19528e-05
0.000154768
8.51654e-05
0.00558647
0.20374
7.69474e-10
4.92023e-09
5.16889e-07
2.87256e-06
3.6396e-06
9.7457e-06
0.000742037
0.00341613
0.00299412
1.76989e-05
1.5002e-05
1.25138e-05
8.31456e-06
8.31419e-06
8.27103e-06
1.20168e-05
3.12236e-05
0.00625789
0.20374
4.10964e-10
1.83284e-09
1.392e-08
4.62894e-07
1.0994e-05
1.29514e-05
0.000545344
0.00339633
0.00189052
1.68957e-05
2.91859e-05
2.25889e-05
8.42548e-06
8.25558e-06
7.75255e-06
9.34443e-06
0.000290727
0.00962319
0.20374
1.01954e-10
6.35782e-10
4.24029e-09
2.8906e-08
4.38399e-06
1.60453e-05
0.000677267
0.00319274
0.000911706
2.00185e-05
0.000176918
0.00102076
8.46672e-06
8.00215e-06
6.22692e-06
7.82904e-06
0.000919249
0.00948116
0.0776961
6.21892e-10
0.000132178
0.000628618
0.000383113
5.56119e-06
3.12892e-05
0.000663577
0.00302514
0.000254367
3.33731e-05
0.000439628
0.00194256
4.42414e-05
6.20593e-06
4.97212e-06
6.11521e-06
0.00135562
0.00922808
0.00452457
8.06687e-06
0.000641723
0.00124379
0.00124259
0.000110925
1.58567e-05
0.000379692
0.00217595
0.000151854
3.84485e-05
0.0011297
0.00194256
0.000918801
1.00187e-05
4.41043e-06
4.87275e-06
0.000760424
0.00824415
0.00413533
4.72296e-05
0.00102597
0.00124379
0.000438436
0.000149547
1.58567e-05
2.19612e-05
0.000229297
0.000246905
3.26691e-05
0.00188896
0.00194256
0.00192719
5.51152e-05
4.41043e-06
4.39112e-06
0.000116664
0.00400684
0.00404106
0.00018363
0.00100224
0.000532708
2.18104e-05
7.95708e-05
3.94934e-05
2.77015e-05
3.81206e-05
3.37295e-05
3.26691e-05
0.000473833
0.00192719
0.00183989
6.33524e-05
4.40921e-06
4.65246e-06
4.29809e-06
0.00110784
0.0143642
0.00013221
0.0009378
0.000424555
1.38794e-05
0.00026972
0.00026972
0.000215783
4.25249e-05
3.26691e-05
2.57822e-05
8.98516e-05
0.00183989
0.000681665
6.71803e-06
3.806e-06
4.29943e-06
2.93889e-06
5.36206e-06
0.205669
2.39154e-05
0.000265952
5.25767e-05
5.74052e-06
1.84234e-06
0.000198243
0.000235559
0.000235559
8.74408e-05
1.93883e-05
0.000437251
0.0016934
0.000525274
3.60486e-06
1.54407e-06
5.42112e-06
2.94211e-06
0.0022755
0.249383
5.78024e-08
2.18041e-06
2.34641e-06
3.62874e-07
4.54639e-08
8.2939e-06
0.000177948
0.000127616
8.2744e-06
1.4383e-05
0.00124435
0.0016052
0.000322339
1.47834e-06
3.85377e-07
3.34515e-05
2.94211e-06
0.00706245
0.249729
8.05591e-09
2.33244e-07
3.88103e-07
7.28312e-08
3.93911e-08
2.70864e-05
8.37186e-05
3.26213e-05
4.34587e-06
6.33346e-06
0.000857802
0.000444496
2.2553e-06
2.14545e-07
2.55791e-07
3.38568e-05
3.14351e-06
0.0105066
0.249768
9.35287e-10
2.83313e-08
4.61169e-08
3.64843e-08
3.93173e-08
3.47987e-05
7.03076e-05
1.77386e-05
3.42965e-06
8.93461e-05
1.46438e-05
1.43789e-06
3.61858e-07
4.91694e-08
2.11678e-08
3.37103e-05
3.81909e-06
0.0108401
0.249773
9.24056e-11
1.2562e-08
3.12793e-08
3.6582e-08
3.65498e-08
1.72108e-05
9.63748e-06
2.46796e-06
3.27081e-06
9.36158e-05
9.21171e-05
7.41183e-05
3.49357e-06
1.71541e-08
2.08356e-09
4.55544e-06
3.76838e-06
0.0106394
0.249773
3.83988e-08
1.03477e-07
1.79802e-07
1.80233e-07
1.3585e-07
1.8113e-07
1.33195e-06
2.23269e-06
5.9933e-06
6.12228e-05
6.28214e-05
2.36379e-06
-5.74947e-10
3.44497e-10
9.43816e-10
1.05965e-09
1.11171e-09
0.0102463
0.249774
5.54535e-08
1.13836e-07
8.75529e-08
2.95281e-08
4.73953e-09
2.86858e-06
1.5529e-05
1.5529e-05
1.4375e-05
1.08645e-08
1.32719e-09
5.25986e-10
4.26983e-10
7.01705e-10
8.4388e-10
9.43816e-10
1.01553e-09
0.00950705
0.249774
9.71586e-09
1.63888e-08
5.33063e-09
4.73953e-09
4.74785e-09
1.24274e-06
2.89401e-06
3.22854e-06
1.4721e-09
9.58865e-10
5.28892e-10
4.28663e-10
4.19609e-10
4.63789e-10
8.90181e-10
1.05539e-09
-6.99911e-10
0.00847511
0.249774
2.02689e-12
3.55977e-11
3.55098e-09
1.77411e-08
1.80254e-08
1.99536e-09
1.73341e-09
1.47195e-09
1.19717e-09
1.00096e-09
9.38389e-10
4.59586e-10
3.49425e-10
3.63864e-10
1.07497e-09
1.16525e-09
-8.70776e-10
0.0085778
0.249774
1.96078e-12
4.73805e-11
1.32987e-09
3.80194e-09
4.69015e-09
6.94077e-09
7.32974e-09
7.12448e-09
6.71419e-09
5.07238e-09
2.28288e-09
2.89874e-10
1.69652e-11
1.57489e-08
7.66372e-09
1.62665e-09
3.34927e-09
0.0111557
0.227373
1.20152e-12
9.97453e-11
1.45095e-10
9.67949e-12
1.26121e-11
1.54161e-11
1.55043e-10
2.5513e-11
8.88562e-12
2.57262e-12
9.09337e-13
5.05789e-13
9.09337e-13
1.33331e-07
1.688e-07
3.34086e-09
0.000310923
0.0193122
0.0300609
6.47791e-13
1.74762e-11
5.79419e-12
7.96397e-12
9.42626e-11
3.9145e-10
4.0675e-10
3.68018e-10
2.35602e-10
1.09515e-10
2.25183e-11
5.18207e-14
8.1423e-13
1.44499e-07
2.62795e-07
1.30057e-08
2.48882e-07
0.00885373
0.000342531
7.24002e-13
1.46425e-12
1.22212e-12
5.39506e-12
3.1947e-11
1.21152e-10
1.69519e-10
1.03498e-10
4.78741e-11
1.49251e-11
1.15395e-12
2.06878e-15
9.77862e-11
4.48498e-09
2.69688e-07
8.14571e-08
8.34048e-08
9.33513e-07
8.15002e-05
3.69521e-13
3.64097e-13
6.72093e-13
1.62574e-12
2.69566e-12
1.61188e-12
1.34643e-13
8.28372e-14
7.28038e-14
6.79845e-14
1.88262e-14
2.08009e-15
7.6832e-10
3.4914e-10
1.73014e-07
2.81968e-07
1.89971e-07
1.71776e-07
3.92897e-05
2.49599e-14
1.29025e-14
3.71096e-13
1.10946e-12
1.25768e-12
1.24838e-12
1.07814e-12
6.62627e-13
2.71686e-13
7.74153e-14
4.15604e-15
-1.20207e-32
-1.18189e-15
3.41103e-10
2.75574e-08
9.04538e-08
7.4884e-08
8.27175e-08
1.4255e-05
4.87627e-17
8.24177e-18
2.28323e-14
1.06234e-13
3.35991e-13
3.30146e-13
2.20504e-13
7.61205e-14
1.07412e-14
1.28778e-16
0
-1.61474e-15
-1.51509e-15
1.29332e-08
9.5165e-09
9.93471e-09
2.11053e-08
2.59478e-08
6.20948e-06
-8.01424e-18
-6.63495e-18
3.79255e-16
2.02052e-14
5.2312e-14
3.76201e-14
1.34633e-14
1.69247e-15
2.66906e-17
-1.51016e-35
-1.03105e-16
-1.19166e-15
-9.52964e-16
1.86299e-08
9.30545e-09
9.5165e-09
3.252e-08
3.55509e-08
2.5103e-06
-4.15811e-18
-1.60657e-18
1.47854e-16
8.19223e-15
6.23321e-15
2.43925e-15
3.91253e-16
1.36777e-17
4.60499e-35
-9.53841e-19
-6.55667e-17
-7.31941e-16
-4.95567e-16
1.41768e-08
8.65418e-09
9.00596e-09
2.7835e-08
3.41897e-08
5.06097e-07
-8.67429e-19
-2.5576e-19
1.88512e-17
4.7907e-16
3.67083e-16
1.24472e-16
1.23935e-17
3.25458e-20
-6.29454e-19
-6.67807e-19
-3.42413e-17
-3.81852e-16
-2.15526e-16
0
5.88656e-09
2.63763e-07
3.41897e-08
4.15281e-08
1.72399e-07
-1.31431e-19
-2.85454e-20
1.05398e-18
2.53628e-17
1.52507e-17
3.16163e-18
1.3716e-19
4.65237e-23
-2.66663e-19
-1.92786e-19
-1.44206e-17
-1.631e-16
-7.56119e-17
-3.00518e-33
3.79796e-09
8.93381e-07
5.39426e-05
3.66286e-06
6.45989e-07
-1.30424e-20
-1.96289e-21
5.21451e-20
5.34129e-19
2.29648e-19
2.64252e-20
6.13721e-22
8.03676e-26
-6.96103e-20
-3.62727e-20
-4.62269e-18
-5.3197e-17
-1.9202e-17
0
4.95016e-18
1.64763e-06
7.94216e-05
3.26175e-06
1.01663e-06
-6.3498e-22
-6.05004e-23
-5.31575e-24
-4.40636e-25
1.51452e-23
3.44456e-23
8.87103e-24
5.88296e-25
-1.2266e-20
-4.02272e-21
-1.00219e-18
-1.16898e-17
-2.59042e-18
6.08108e-16
1.51775e-18
3.73318e-21
6.78824e-05
3.06432e-05
1.14277e-06
-3.95065e-24
-2.67681e-25
-2.15097e-26
-1.33904e-27
-6.63674e-29
-2.77102e-30
-7.42755e-32
-1.3008e-33
-1.11174e-21
-1.55993e-22
-1.10691e-19
-1.29619e-18
-1.2008e-19
2.62139e-15
8.64754e-18
0
2.69494e-12
3.32757e-05
6.45079e-06
)
;

boundaryField
{
    leftWall
    {
        type            zeroGradient;
    }
    rightWall
    {
        type            zeroGradient;
    }
    lowerWall
    {
        type            zeroGradient;
    }
    atmosphere
    {
        type            inletOutlet;
        inletValue      uniform 0;
        value           nonuniform List<scalar> 
46
(
1.34899e-23
3.37796e-24
4.38221e-25
2.31706e-26
1.21951e-27
5.45891e-29
2.05762e-30
6.60507e-32
1.82459e-33
4.36235e-35
9.16067e-37
1.71468e-38
2.68313e-40
-7.06535e-38
-3.18861e-35
-6.11323e-33
-5.16592e-31
-1.43745e-29
-2.5778e-28
-1.42145e-27
-3.5194e-27
-2.14208e-27
-8.05398e-25
-2.2629e-22
-9.47988e-21
-2.33872e-21
-2.30499e-22
0
0
0
0
0
0
0
0
0
0
0
0
0
0
0
0
0
3.32757e-05
6.45079e-06
)
;
    }
    defaultFaces
    {
        type            empty;
    }
}


// ************************************************************************* //
