/*--------------------------------*- C++ -*----------------------------------*\
| =========                 |                                                 |
| \\      /  F ield         | OpenFOAM: The Open Source CFD Toolbox           |
|  \\    /   O peration     | Version:  2206                                  |
|   \\  /    A nd           | Website:  www.openfoam.com                      |
|    \\/     M anipulation  |                                                 |
\*---------------------------------------------------------------------------*/
FoamFile
{
    version     2.0;
    format      ascii;
    arch        "LSB;label=32;scalar=64";
    class       surfaceScalarField;
    location    "0.875";
    object      alphaPhi0.water;
}
// * * * * * * * * * * * * * * * * * * * * * * * * * * * * * * * * * * * * * //

dimensions      [0 3 -1 0 0 0 0];

oriented        oriented;

internalField   nonuniform List<scalar> 
4432
(
-2.48562e-07
2.48561e-07
2.87357e-06
-3.12214e-06
6.91725e-06
-4.04369e-06
9.9359e-06
-3.01865e-06
1.1626e-05
-1.6901e-06
1.23661e-05
-7.4014e-07
1.26305e-05
-2.64336e-07
1.27349e-05
-1.04434e-07
1.27938e-05
-5.89265e-08
1.28019e-05
-8.07855e-09
1.26927e-05
1.09251e-07
1.24245e-05
2.68215e-07
1.19827e-05
4.41777e-07
1.13794e-05
6.03277e-07
1.06431e-05
7.36367e-07
9.81178e-06
8.3129e-07
8.98003e-06
8.3175e-07
8.25933e-06
7.20696e-07
7.94605e-06
3.13258e-07
7.83724e-06
1.08785e-07
8.761e-06
-9.23763e-07
9.17257e-06
-4.11555e-07
8.95673e-06
-1.42518e-07
3.9109e-07
2.94653e-06
-6.21117e-06
6.5091e-06
-7.60625e-06
9.17949e-06
-5.68904e-06
1.07591e-05
-3.26967e-06
1.16008e-05
-1.58187e-06
1.21039e-05
-7.67469e-07
1.25182e-05
-5.18775e-07
1.29292e-05
-4.69871e-07
1.33264e-05
-4.0533e-07
1.36944e-05
-2.5871e-07
1.40077e-05
-4.51052e-08
1.428e-05
1.69436e-07
1.45093e-05
3.73993e-07
1.47197e-05
5.2591e-07
1.49701e-05
5.80914e-07
1.53074e-05
4.94519e-07
1.59256e-05
1.02441e-07
1.66712e-05
-4.32287e-07
1.82939e-05
-1.51397e-06
1.98718e-05
-2.50172e-06
1.50827e-05
4.37755e-06
2.33326e-05
2.06356e-07
1.84726e-07
2.87157e-06
-8.87638e-06
5.83547e-06
-1.05702e-05
8.15242e-06
-8.00599e-06
9.80658e-06
-4.92383e-06
1.10303e-05
-2.80558e-06
1.20224e-05
-1.75956e-06
1.28651e-05
-1.36141e-06
1.35672e-05
-1.17198e-06
1.41087e-05
-9.46899e-07
1.44796e-05
-6.29535e-07
1.4694e-05
-2.59484e-07
1.47289e-05
1.34507e-07
1.46255e-05
4.77412e-07
1.44395e-05
7.11874e-07
1.42528e-05
7.676e-07
1.41607e-05
5.8661e-07
1.42117e-05
5.14514e-08
1.47188e-05
-9.39429e-07
1.66143e-05
-3.40947e-06
1.74555e-05
-3.34287e-06
9.35535e-06
1.16363e-05
3.17263e-05
3.30732e-07
-1.46003e-07
2.18233e-06
-1.0728e-05
4.68293e-06
-1.30708e-05
7.03583e-06
-1.03589e-05
9.09734e-06
-6.98534e-06
1.09353e-05
-4.64357e-06
1.25531e-05
-3.3773e-06
1.39257e-05
-2.73405e-06
1.50283e-05
-2.27462e-06
1.58394e-05
-1.75794e-06
1.63371e-05
-1.1273e-06
1.6473e-05
-3.95313e-07
1.62757e-05
3.31755e-07
1.57091e-05
1.04403e-06
1.47498e-05
1.67116e-06
1.33884e-05
2.12904e-06
1.16331e-05
2.34185e-06
9.45232e-06
2.23228e-06
6.76018e-06
1.75272e-06
3.1064e-06
2.44316e-07
-8.08418e-07
5.74489e-07
-2.70003e-06
1.3447e-05
2.86316e-05
-1.65266e-07
1.92658e-08
5.94362e-08
-1.09527e-05
2.17516e-06
-1.51865e-05
5.45364e-06
-1.36374e-05
8.74943e-06
-1.02811e-05
1.16443e-05
-7.53842e-06
1.40825e-05
-5.81547e-06
1.60433e-05
-4.69492e-06
1.75071e-05
-3.73841e-06
1.84773e-05
-2.72816e-06
1.89764e-05
-1.62633e-06
1.90902e-05
-5.09109e-07
1.87737e-05
6.48216e-07
1.80654e-05
1.75231e-06
1.69183e-05
2.81824e-06
1.523e-05
3.81736e-06
1.28409e-05
4.73101e-06
9.5013e-06
5.57183e-06
4.77923e-06
6.47479e-06
-1.96761e-06
6.99116e-06
-8.4017e-06
7.00858e-06
-7.42886e-06
1.32694e-05
2.25704e-05
9.65649e-08
-7.72991e-08
2.54893e-08
-1.08817e-05
1.85619e-06
-1.70171e-05
5.98781e-06
-1.77689e-05
1.06438e-05
-1.49371e-05
1.45375e-05
-1.14321e-05
1.75288e-05
-8.80674e-06
1.98591e-05
-7.02522e-06
2.15954e-05
-5.47469e-06
2.27881e-05
-3.92094e-06
2.36438e-05
-2.48194e-06
2.41682e-05
-1.0335e-06
2.4224e-05
5.92388e-07
2.34867e-05
2.48964e-06
2.18465e-05
4.45839e-06
1.93607e-05
6.3032e-06
1.61642e-05
7.9275e-06
1.23187e-05
9.41735e-06
7.82715e-06
1.09663e-05
2.75811e-06
1.20602e-05
-2.3159e-06
1.20831e-05
-2.58721e-06
1.36311e-05
2.08619e-05
5.7638e-06
-5.84114e-06
1.0699e-05
-1.58156e-05
1.37914e-05
-2.01068e-05
1.67015e-05
-2.06762e-05
2.02216e-05
-1.84554e-05
2.36795e-05
-1.48892e-05
2.6566e-05
-1.16929e-05
2.88827e-05
-9.34186e-06
3.04843e-05
-7.07621e-06
3.09471e-05
-4.38373e-06
3.01293e-05
-1.66414e-06
2.85576e-05
5.38138e-07
2.68219e-05
2.32812e-06
2.50472e-05
4.26433e-06
2.28722e-05
6.63338e-06
2.0002e-05
9.17336e-06
1.66323e-05
1.12972e-05
1.3302e-05
1.27476e-05
1.01737e-05
1.40946e-05
7.52112e-06
1.47128e-05
5.8338e-06
1.37704e-05
4.80175e-06
1.46631e-05
2.56647e-05
1.55159e-05
-1.49418e-05
2.43552e-05
-1.47476e-05
2.76806e-05
-1.35189e-05
2.93324e-05
-1.32849e-05
3.14137e-05
-1.3563e-05
3.45268e-05
-1.37391e-05
3.7666e-05
-1.29248e-05
3.97893e-05
-1.10709e-05
4.05589e-05
-7.84416e-06
3.9943e-05
-3.76721e-06
3.80699e-05
2.08961e-07
3.52572e-05
3.35086e-06
3.16855e-05
5.89983e-06
2.80362e-05
7.91364e-06
2.50686e-05
9.60097e-06
2.3031e-05
1.12109e-05
2.16629e-05
1.26654e-05
2.05588e-05
1.38517e-05
1.91404e-05
1.5513e-05
1.73912e-05
1.23966e-05
1.60819e-05
1.03892e-05
9.6749e-06
1.60997e-05
3.03129e-05
3.18724e-05
-3.16632e-05
6.06926e-05
-2.8611e-05
6.70375e-05
-6.12002e-06
-4.03428e-07
9.99655e-06
4.07995e-07
2.63511e-06
5.75601e-06
-1.77664e-06
9.08304e-06
-3.04234e-06
9.36347e-06
-1.07666e-07
7.43869e-06
2.10013e-06
4.35394e-06
3.04687e-06
-1.00326e-06
3.84195e-06
-1.25575e-06
-3.14984e-07
1.29926e-05
-1.25964e-05
3.02767e-05
-1.56322e-05
3.99851e-05
-9.44649e-06
3.10474e-05
8.9613e-06
9.0209e-06
2.20401e-05
-6.14169e-06
1.51762e-05
-7.09651e-06
2.28977e-05
-5.43517e-05
4.49632e-05
-5.04517e-05
2.42053e-05
-1.27155e-05
-9.21773e-07
6.08638e-06
1.33561e-06
1.27484e-06
2.2499e-06
-1.15693e-06
3.00327e-06
-2.21549e-06
2.69464e-06
3.07177e-07
3.13517e-06
1.41124e-06
3.46432e-06
4.07032e-06
6.09097e-06
2.85804e-06
1.81409e-05
7.23531e-07
1.71632e-05
-1.08856e-06
1.00105e-05
-1.38594e-06
7.00287e-06
-2.03099e-06
1.30882e-05
-6.16636e-07
2.10573e-05
4.85577e-06
7.37598e-06
2.46468e-05
-1.34764e-06
8.05481e-06
-6.18821e-05
1.89701e-05
-5.34965e-05
1.29797e-05
-1.76916e-05
9.89498e-07
2.66582e-06
6.34768e-07
1.98916e-06
3.16849e-06
-2.47463e-06
2.13897e-06
-1.38529e-06
9.67756e-07
1.28212e-06
4.70865e-07
1.70972e-06
1.90029e-06
6.91281e-06
-9.18143e-07
8.5483e-06
-2.8226e-07
3.30498e-06
-3.07242e-07
-1.55639e-09
-3.01133e-07
-5.17831e-07
4.5236e-08
-1.33092e-06
1.58406e-06
-8.58326e-07
6.65351e-06
1.21457e-06
1.14087e-05
1.16338e-05
9.36156e-06
3.36207e-06
-1.32002e-06
3.09661e-06
-1.52157e-06
7.78685e-06
-1.39068e-05
3.95323e-06
1.85501e-06
5.18317e-06
1.72531e-07
6.35909e-06
-3.66618e-06
7.98451e-07
1.73415e-06
-1.73339e-06
5.06848e-06
-8.27145e-06
1.11486e-05
-1.12412e-05
1.23831e-05
-4.47013e-06
4.11876e-06
-1.69813e-06
5.38748e-07
-7.19795e-07
4.50735e-08
3.17032e-09
-2.81343e-07
-7.68521e-08
-4.6044e-07
9.9716e-07
-9.89805e-07
2.14218e-06
1.16959e-06
5.84535e-06
3.49037e-06
1.32875e-05
4.84706e-07
-2.09614e-06
2.45404e-07
-1.54207e-06
5.02778e-06
-5.42812e-06
6.19375e-06
-2.9511e-07
4.54809e-06
8.97505e-07
-2.88077e-06
4.10803e-06
-1.03764e-05
9.47636e-06
-1.7109e-05
1.23282e-05
-1.50627e-05
9.54297e-06
-4.37522e-06
1.90797e-06
-6.5879e-07
5.74625e-07
-4.41692e-07
2.40069e-07
-3.6064e-07
-1.19088e-07
-1.06739e-07
-6.12934e-07
-1.14197e-07
-5.27668e-07
3.31887e-09
-4.74598e-07
1.54685e-07
1.01574e-06
-2.36944e-06
4.47016e-06
9.49366e-06
3.44391e-07
-2.69975e-06
-3.19227e-08
-1.45716e-06
-2.1365e-06
-2.82552e-06
-7.42696e-06
1.92276e-06
-1.27435e-05
6.26379e-06
-1.62973e-05
8.09147e-06
-1.80093e-05
1.15333e-05
-1.1776e-05
6.69425e-06
-2.28088e-06
6.07409e-07
-6.78364e-07
2.44519e-07
-3.70421e-07
1.85101e-07
-3.54262e-07
1.42329e-07
-3.9075e-07
-1.64181e-07
-2.52657e-07
-1.47044e-06
-6.08584e-08
-7.77696e-07
-1.6089e-07
-4.27636e-07
3.17446e-07
4.27887e-07
-5.72722e-06
6.98067e-06
3.7789e-06
-1.31309e-06
-1.81367e-06
-1.5926e-05
-1.31001e-06
-2.10802e-05
2.5042e-06
-2.26994e-05
3.58853e-06
-2.16921e-05
5.1839e-06
-1.99949e-05
6.45533e-06
-7.41616e-06
4.20892e-06
-1.74693e-06
9.04998e-07
-9.85172e-07
1.9551e-07
-5.30816e-07
8.99566e-08
-1.71996e-07
7.63578e-08
-1.60541e-07
9.65986e-08
-3.08097e-07
-1.34394e-07
-2.00089e-07
-1.46781e-06
3.02014e-08
-1.63439e-06
-1.11659e-07
-3.09167e-07
2.43322e-07
-4.98293e-07
-3.36496e-06
7.76146e-06
4.26401e-07
-1.04684e-05
1.45562e-07
-2.43904e-05
3.4287e-06
-2.50254e-05
3.22682e-06
-2.29445e-05
1.68562e-06
-1.9608e-05
2.20978e-06
-4.59991e-06
3.33647e-06
-1.45308e-06
1.16638e-06
-8.60263e-07
2.42827e-07
-9.75852e-07
1.05193e-07
-7.27596e-07
4.08818e-09
-5.17387e-07
3.71312e-08
-1.71011e-07
-8.6791e-09
8.95685e-08
-6.32631e-07
2.2586e-07
-1.47768e-06
3.88796e-08
-4.09908e-07
9.24105e-08
-1.0422e-07
5.80545e-07
-1.3718e-06
-2.73253e-06
9.21455e-06
-2.29367e-06
3.07647e-06
-3.54692e-15
2.0388e-06
-4.69754e-17
1.70278e-06
-1.52184e-15
2.2356e-06
-4.21435e-14
4.13056e-06
-1.38658e-12
7.86529e-06
-4.81762e-11
1.29376e-05
-1.64455e-09
1.78505e-05
-5.61011e-08
2.05247e-05
-2.11595e-06
2.08333e-05
-9.10433e-07
2.06903e-05
2.74433e-07
2.1152e-05
1.33528e-06
2.11775e-05
2.76264e-06
2.05779e-05
4.19183e-06
1.98772e-05
5.36744e-06
1.9091e-05
6.09319e-06
1.84344e-05
6.01824e-06
1.71488e-05
5.48771e-06
1.455e-05
5.3101e-06
1.09815e-05
5.46467e-06
6.00977e-06
6.16885e-06
2.98826e-06
8.18463e-06
6.61353e-06
9.92304e-06
-2.65418e-19
-3.46712e-15
-4.07038e-17
-3.53949e-18
-1.56254e-15
3.4085e-21
-4.3706e-14
8.00625e-22
-1.43028e-12
-5.317e-21
-4.96065e-11
-1.65229e-19
-1.69415e-09
-3.19458e-18
-5.77953e-08
-7.46296e-17
6.61656e-07
-2.54994e-15
3.07524e-06
-4.05882e-14
6.22328e-06
-5.85503e-13
8.60944e-06
-7.88703e-12
9.77169e-06
1.01587e-07
1.00793e-05
1.30949e-07
9.92673e-06
4.28849e-08
9.20486e-06
-5.65731e-08
7.88033e-06
-1.30256e-07
5.76008e-06
-1.39558e-07
3.79248e-06
-1.50561e-07
2.01661e-06
8.02359e-09
6.65676e-07
1.01645e-07
1.0054e-06
1.41749e-07
-1.38202e-08
1.12918e-06
-5.37181e-18
-3.45875e-15
2.76123e-21
-8.91407e-18
2.81135e-22
8.87654e-21
-6.44683e-23
2.66895e-21
-8.88233e-22
-4.49324e-21
-1.71354e-20
-1.47514e-19
-2.13307e-19
-2.95998e-18
7.98979e-20
-7.38838e-17
-2.44086e-16
-2.27401e-15
3.51061e-16
-4.08772e-14
2.0502e-14
-6.21144e-13
4.83497e-13
-8.33142e-12
1.03137e-07
-1.52726e-09
2.37923e-07
-2.02236e-09
2.82019e-07
-1.14187e-09
2.22149e-07
6.73021e-11
8.59437e-08
-1.12043e-09
-5.45191e-08
-1.40302e-08
-2.24392e-07
-2.65373e-09
-2.33609e-07
3.63339e-09
-1.56657e-07
1.02778e-08
-3.29617e-08
1.44121e-08
2.15361e-10
-3.89706e-08
-5.22637e-16
-4.60842e-14
7.79517e-21
-5.31559e-16
1.60289e-21
1.63835e-20
-2.64924e-21
1.31691e-20
-6.49149e-21
-6.50984e-22
-9.80818e-20
-1.35251e-20
-1.36099e-18
-5.35931e-19
-1.90226e-17
-2.10543e-17
-1.18188e-15
-8.49921e-16
-2.35411e-14
-1.44808e-14
-3.91716e-13
-2.31145e-13
-6.79054e-12
-2.46684e-12
-1.4991e-09
-2.61282e-11
-3.38611e-09
-1.04692e-10
-4.04866e-09
-4.7775e-10
-4.04734e-09
-3.6349e-10
-6.5163e-09
-4.70912e-10
-2.11579e-08
-1.9036e-09
-2.73603e-08
8.83507e-10
-2.54682e-08
1.61338e-09
-1.6799e-08
1.04432e-09
-3.39824e-09
7.92991e-10
9.48693e-12
-2.92137e-09
-5.22798e-14
2.51443e-13
9.24141e-21
-5.28114e-14
5.55456e-21
1.02292e-20
-2.6318e-22
7.27349e-21
-3.15104e-22
-7.8481e-22
-9.62752e-21
-1.72956e-20
-4.9979e-19
-4.86861e-19
-1.87387e-17
-1.2451e-17
-6.28938e-16
-2.15782e-16
-1.3034e-14
-1.64056e-15
-7.12185e-13
-9.7934e-15
-5.14757e-13
-2.00984e-13
-1.21509e-11
-3.76227e-13
-1.42337e-10
-1.0478e-12
-6.02008e-10
-2.64538e-11
-9.95965e-10
-7.63072e-11
-1.63302e-09
-1.36001e-10
-3.80894e-09
-2.07094e-10
-3.42523e-09
2.35289e-10
-1.93578e-09
2.18148e-10
-9.79394e-10
7.31043e-11
-2.42004e-10
3.78247e-11
1.50898e-12
-2.27614e-10
-1.47367e-13
9.45993e-13
4.62676e-21
-4.77569e-14
2.86061e-21
-3.11763e-24
-4.5013e-22
-1.05184e-22
-1.06076e-21
-1.74185e-22
-2.24531e-20
-2.41346e-21
-8.70115e-19
-5.12177e-20
-3.22425e-17
-8.61275e-19
-8.32269e-16
-7.79402e-18
-3.05815e-15
-3.72486e-17
-7.59106e-15
-1.80911e-16
-2.1127e-13
-1.03877e-15
-5.63958e-13
-4.10959e-15
-4.32746e-12
-1.31733e-13
-3.21365e-11
-1.43508e-12
-1.14102e-10
-7.89707e-12
-2.68513e-10
-2.23486e-11
-5.14229e-10
-1.82934e-11
-3.30812e-10
3.43563e-11
-1.1906e-10
2.202e-11
-5.11194e-11
5.1953e-12
-1.70456e-11
2.2194e-12
2.90134e-13
-1.69795e-11
-9.02079e-14
1.5821e-12
-5.81757e-23
-9.12403e-25
-4.97174e-23
-1.1576e-23
-3.43912e-23
-9.54654e-23
-2.58399e-22
-3.48632e-23
-2.46392e-21
-5.39942e-22
-8.60381e-20
-8.56053e-21
-2.08754e-18
-9.88461e-20
-2.18158e-17
-7.66632e-19
-1.47016e-16
-2.99622e-18
-9.70096e-16
2.63422e-18
-4.22728e-15
9.64489e-17
-1.71223e-14
1.65423e-16
-1.7814e-13
-8.48811e-15
-1.83259e-12
-9.66388e-14
-1.0695e-11
-6.37985e-13
-3.58687e-11
-2.49063e-12
-5.87637e-11
-1.47642e-12
-2.95836e-11
3.66958e-12
-7.9835e-12
2.06818e-12
-3.204e-12
4.414e-13
-1.31142e-12
1.62661e-13
4.26937e-14
-1.41893e-12
-4.37042e-24
2.1267e-12
-8.57884e-24
6.646e-25
-3.86216e-23
-1.07348e-23
-1.24349e-23
-7.29204e-23
-6.24298e-23
-6.27534e-24
-7.50367e-22
-9.40301e-23
-1.80843e-20
-1.16671e-21
-3.44774e-19
-1.01206e-20
-4.8782e-18
-4.96708e-20
-4.57239e-17
1.86275e-19
-3.00778e-16
6.34338e-18
-1.43711e-15
5.0556e-17
-4.89434e-15
2.40965e-16
-2.23023e-14
5.68288e-16
-1.60489e-13
-4.60654e-15
-9.75072e-13
-4.18054e-14
-3.88281e-12
-2.05583e-13
-5.84918e-12
-1.00369e-13
-2.65934e-12
3.2009e-13
-6.39489e-13
1.84823e-13
-2.3801e-13
3.834e-14
-1.05422e-13
1.30364e-14
5.95731e-15
-1.2147e-13
-4.37031e-22
2.61895e-12
-3.00157e-23
9.3159e-24
-2.96406e-23
-3.6132e-23
-2.54312e-24
-2.1335e-23
-1.08996e-23
-5.79778e-25
-1.60512e-22
-7.82733e-24
-3.3236e-21
-7.7731e-23
-5.53456e-20
-4.34645e-22
-7.78787e-19
1.56242e-21
-7.85396e-18
8.85727e-20
-4.74611e-17
1.07281e-18
-2.21183e-16
6.96205e-18
-9.78781e-16
3.82393e-17
-3.41578e-15
1.94292e-16
-1.61496e-14
5.54106e-16
-8.72024e-14
-8.05167e-16
-3.47465e-13
-1.22634e-14
-5.01848e-13
-4.14698e-15
-2.24513e-13
2.65788e-14
-5.16686e-14
1.54679e-14
-1.82285e-14
3.07443e-15
-9.27926e-15
1.12614e-15
9.19112e-16
-1.12018e-14
-4.17307e-18
3.10604e-12
-1.24825e-20
2.32393e-19
-1.47818e-23
-1.24922e-20
-2.69124e-25
-3.35575e-24
-1.02628e-24
-3.87419e-26
-1.68701e-23
-4.11394e-25
-3.27157e-22
-2.83144e-24
-5.16684e-21
4.34186e-24
-6.87484e-20
4.94586e-22
-6.50225e-19
7.95134e-21
-3.91465e-18
7.41552e-20
-1.8371e-17
4.93406e-19
-9.1014e-17
2.97074e-18
-4.66013e-16
1.96491e-17
-1.88248e-15
1.26495e-16
-7.42259e-15
4.23486e-16
-2.81107e-14
8.39649e-16
-3.89354e-14
-1.52304e-16
-1.81878e-14
2.21091e-15
-3.97391e-15
1.30624e-15
-1.45836e-15
3.11312e-16
-9.11347e-16
1.78104e-16
1.74402e-16
-1.05754e-15
-2.55378e-19
4.48054e-13
-2.16308e-20
2.50748e-20
-3.20344e-24
-9.77918e-21
-2.3259e-26
-1.79881e-24
-6.81604e-26
-5.4653e-27
-1.23099e-24
-1.60124e-26
-2.35926e-23
-1.62851e-26
-3.71806e-22
2.38053e-24
-4.47436e-21
4.82491e-23
-3.78576e-20
5.53451e-22
-2.26005e-19
4.51531e-21
-1.14921e-18
3.06976e-20
-6.27474e-18
2.07986e-19
-3.84678e-17
1.52746e-18
-2.32981e-16
1.13953e-17
-1.09418e-15
7.58676e-17
-2.28929e-15
2.57102e-16
-2.90732e-15
3.00778e-16
-1.48587e-15
3.09795e-16
-3.18946e-16
1.22211e-16
-1.35864e-16
3.50403e-17
-1.20707e-16
2.685e-17
4.62871e-17
-1.58594e-16
-3.76151e-20
2.42115e-15
-1.2066e-20
2.27217e-20
-2.02802e-24
-4.27612e-21
-4.85958e-27
-6.27509e-25
-7.25403e-27
-1.35759e-27
-7.85386e-26
-3.47477e-28
-1.54914e-24
8.75016e-27
-2.29801e-23
2.51039e-25
-2.52846e-22
3.58882e-24
-2.00733e-21
3.62789e-23
-1.20602e-20
2.88079e-22
-6.7671e-20
2.0761e-21
-4.26648e-19
1.59392e-20
-2.93585e-18
1.28658e-19
-2.06404e-17
9.7533e-19
-1.2107e-16
6.18807e-18
-2.61296e-16
2.42068e-17
-2.654e-16
4.81746e-17
-1.19989e-16
3.841e-17
-2.68019e-17
1.39772e-17
-1.57007e-17
6.48358e-18
-1.92882e-17
5.22124e-18
2.08398e-17
-5.15413e-17
-4.14398e-17
2.49895e-15
-1.75655e-20
3.25922e-18
-7.68926e-25
-9.91766e-22
-2.47099e-27
-1.80254e-25
-1.29906e-27
-3.6606e-28
-4.68673e-27
1.0296e-29
-9.02663e-26
9.77066e-28
-1.25359e-24
1.83272e-26
-1.30976e-23
2.29751e-25
-1.02396e-22
2.25394e-24
-6.56212e-22
1.89094e-23
-4.32959e-21
1.55132e-22
-3.11351e-20
1.35101e-21
-2.31873e-19
1.13608e-20
-1.69938e-18
8.65553e-20
-9.80007e-18
5.25219e-19
-2.39735e-17
1.95827e-18
-2.34957e-17
3.56126e-18
-9.55765e-18
3.51716e-18
-2.66259e-18
4.42216e-18
-3.68973e-18
4.16905e-18
-5.61173e-18
3.07497e-18
1.12093e-17
-2.80006e-17
-3.67992e-18
1.90971e-15
-1.07776e-20
1.14423e-17
-3.24918e-25
4.61062e-22
-1.64578e-27
-5.41834e-26
-9.41171e-29
-1.19037e-28
-2.4312e-28
2.97388e-30
-4.51611e-27
7.68614e-29
-6.05592e-26
1.13119e-27
-6.25649e-25
1.32156e-26
-5.13847e-24
1.35125e-25
-3.84888e-23
1.28297e-24
-2.96331e-22
1.22128e-23
-2.33817e-21
1.14124e-22
-1.83004e-20
9.8802e-22
-1.37175e-19
7.55299e-21
-7.93585e-19
4.50709e-20
-1.92466e-18
1.64743e-19
-1.85896e-18
3.13043e-19
-1.47142e-18
5.7812e-19
-1.26865e-18
1.2983e-18
-1.80458e-18
1.47312e-18
-3.9317e-18
1.90459e-18
1.40898e-17
-7.47871e-18
-3.4602e-18
1.10576e-15
-6.66855e-21
1.32807e-17
-1.75978e-25
1.05973e-21
-1.32835e-27
-2.79989e-26
-7.69101e-30
-1.33514e-29
-1.80035e-29
2.44923e-30
-2.38579e-28
7.43343e-30
-2.8189e-27
8.73372e-29
-2.89037e-26
9.82269e-28
-2.66347e-25
1.04011e-26
-2.34614e-24
1.06113e-25
-2.04952e-23
1.02316e-24
-1.74681e-22
9.28007e-24
-1.42418e-21
8.29274e-23
-1.06175e-20
6.34088e-22
-5.39571e-20
3.67544e-21
-1.23339e-19
1.38661e-20
-1.97495e-19
3.80981e-20
-3.89302e-19
1.69083e-19
-1.46286e-18
1.00947e-18
-1.66709e-17
1.37173e-17
-2.15489e-16
1.96963e-16
2.75437e-15
-2.96324e-15
-3.46216e-18
6.0849e-16
-4.58879e-21
1.2786e-17
-1.55204e-25
1.24942e-21
-1.333e-27
-1.56059e-26
-4.93428e-30
7.00889e-29
-4.13526e-30
1.41357e-30
-1.65588e-29
4.00521e-30
-1.77683e-28
7.75476e-30
-1.84366e-27
7.31412e-29
-1.812e-26
7.78259e-28
-1.70974e-25
8.41906e-27
-1.5158e-24
8.39972e-26
-1.26216e-23
7.49581e-25
-1.06123e-22
6.66234e-24
-7.42336e-22
5.15644e-23
-3.35425e-21
3.09892e-22
-9.03138e-21
1.55713e-21
-2.87382e-20
9.78525e-21
-1.85086e-19
1.12904e-19
-2.39963e-18
1.67913e-18
-3.14777e-17
2.69951e-17
-3.12551e-16
3.86547e-16
5.54357e-15
-4.02391e-15
-3.28323e-18
4.02747e-16
-3.11819e-21
1.19975e-17
-2.10886e-25
1.08737e-21
-2.14764e-27
-6.33402e-27
-1.00135e-29
2.64925e-28
-2.52831e-32
3.21257e-30
-5.03229e-30
3.15521e-32
-1.2199e-29
5.92929e-31
-1.13741e-28
5.51784e-30
-1.17925e-27
6.1243e-29
-1.19351e-26
6.45135e-28
-1.10353e-25
6.52502e-27
-9.04169e-25
6.05523e-26
-7.32989e-24
5.27524e-25
-4.78137e-23
4.42714e-24
-2.33795e-22
3.36953e-23
-1.20835e-21
3.02941e-22
-1.02094e-20
4.2087e-21
-1.33264e-19
8.26873e-20
-2.09339e-18
1.53738e-18
-3.31605e-17
2.49025e-17
-2.45178e-16
3.37879e-16
4.25422e-15
5.78957e-17
-3.20415e-18
3.3563e-16
-1.89444e-21
1.23252e-17
-4.77503e-25
6.64211e-22
-5.29339e-27
2.32376e-26
-2.09997e-29
8.93435e-28
4.19693e-32
7.99336e-30
-2.75053e-31
-2.85148e-32
-7.42568e-31
1.66391e-31
-6.9866e-30
4.02395e-31
-7.65112e-29
4.35473e-30
-7.88701e-28
4.90287e-29
-7.56834e-27
4.80639e-28
-6.36296e-26
4.7984e-27
-4.85815e-25
4.30268e-26
-3.50659e-24
4.3376e-25
-2.59236e-23
4.75578e-24
-2.58207e-22
7.14019e-23
-3.66226e-21
1.44656e-21
-5.89118e-20
3.03405e-20
-9.52878e-19
5.71125e-19
-1.73778e-17
9.58595e-18
-1.34495e-16
1.4846e-16
1.39553e-15
1.83593e-15
-3.29449e-18
3.4056e-16
-8.44339e-22
1.34351e-17
-1.265e-24
2.72246e-22
-1.59648e-26
1.37477e-25
-5.48457e-29
2.78779e-27
-1.60571e-31
2.26519e-29
-1.16523e-33
1.14454e-31
-1.46623e-31
1.75812e-33
-4.38411e-31
2.37809e-32
-4.6741e-30
2.81234e-31
-5.09354e-29
3.42474e-30
-4.8775e-28
3.67439e-29
-4.34295e-27
3.77193e-28
-3.36667e-26
3.86489e-27
-3.00774e-25
4.36308e-26
-3.1493e-24
6.15154e-25
-4.36613e-23
1.08805e-23
-7.14666e-22
2.15853e-22
-1.16979e-20
4.09641e-21
-1.82735e-19
7.29584e-20
-2.94037e-18
1.24758e-18
-3.85069e-17
2.11693e-17
3.35036e-16
-5.76612e-18
-3.40459e-18
3.67537e-16
-5.44228e-22
1.48305e-17
-3.70026e-24
2.66404e-22
-5.25557e-26
5.43467e-25
-2.01684e-28
7.51317e-27
-6.17832e-31
8.14271e-29
8.7603e-35
3.54637e-31
-8.15987e-33
-6.87663e-35
-2.32887e-32
1.49499e-33
-2.66382e-31
1.71475e-32
-3.09114e-30
2.25521e-31
-3.14135e-29
2.69669e-30
-2.91573e-28
2.89348e-29
-2.56917e-27
3.49727e-28
-2.56064e-26
4.58106e-27
-3.24511e-25
6.98815e-26
-4.82874e-24
1.16093e-24
-7.59838e-23
1.97193e-23
-1.15823e-21
3.41889e-22
-1.65849e-20
5.76553e-21
-2.26106e-19
9.45958e-20
-2.73518e-18
1.52861e-18
2.65984e-17
-9.17459e-18
-3.42702e-18
4.11197e-16
-6.5927e-22
1.67395e-17
-1.0453e-23
4.64699e-22
-1.53136e-25
1.75398e-24
-7.64894e-28
1.28426e-26
-2.64468e-30
2.54237e-28
-1.15596e-32
1.46654e-30
-3.77939e-34
8.63503e-33
-1.33443e-33
3.35464e-34
-1.42516e-32
9.84716e-34
-1.7638e-31
1.38788e-32
-1.94135e-30
1.86926e-31
-1.8756e-29
2.32656e-30
-1.93024e-28
2.95991e-29
-2.20512e-27
4.287e-28
-2.97506e-26
6.8826e-27
-4.27375e-25
1.12247e-25
-6.14749e-24
1.78553e-24
-8.61071e-23
2.92435e-23
-1.10106e-21
4.81663e-22
-1.21538e-20
7.65661e-21
-9.54153e-20
1.22564e-19
2.20841e-18
-4.67295e-19
-3.28649e-18
4.95101e-16
-1.58848e-21
1.98413e-17
-2.86763e-23
2.27145e-21
-4.21309e-25
5.36222e-24
-2.20375e-27
2.16537e-27
-9.86949e-30
5.18177e-28
-5.22451e-32
4.7223e-30
-3.20964e-34
3.3162e-32
-1.30018e-34
2.09309e-34
-7.04763e-34
4.15938e-35
-9.2051e-33
7.22102e-34
-1.11651e-31
1.1173e-32
-1.2264e-30
1.57231e-31
-1.33328e-29
2.22928e-30
-1.64913e-28
3.5158e-29
-2.30164e-27
5.6173e-28
-3.19598e-26
9.04754e-27
-4.15989e-25
1.41307e-25
-5.08898e-24
2.33285e-24
-5.30642e-23
3.90044e-23
-3.49425e-22
6.33796e-22
2.45483e-21
1.14037e-20
2.44685e-19
2.29401e-19
-2.52597e-18
6.56892e-16
-7.79616e-21
2.75946e-17
-9.29041e-23
1.75287e-20
-1.56673e-24
2.11875e-23
-5.53641e-27
-1.67602e-25
-2.27145e-29
7.4558e-28
-1.32569e-31
9.15414e-30
-9.67185e-34
7.63737e-32
-1.61996e-35
6.97406e-34
-2.47098e-35
1.35113e-35
-3.98512e-34
1.19249e-35
-5.42985e-33
5.22357e-34
-6.62924e-32
8.07384e-33
-8.05097e-31
8.89892e-32
-1.09566e-29
2.21589e-30
-1.45235e-28
3.84941e-29
-1.81306e-27
6.7525e-28
-2.13881e-26
1.08864e-26
-2.03143e-25
2.03946e-25
-9.39266e-25
3.25742e-24
2.50482e-23
5.61489e-23
1.32121e-21
1.05045e-21
2.06528e-20
4.57736e-20
3.08236e-18
8.63107e-16
-4.48755e-20
6.76719e-17
-4.76095e-22
1.73864e-19
-9.18126e-24
1.62737e-22
-2.19869e-26
-2.40848e-24
-4.2256e-29
1.95742e-28
-2.11047e-31
1.58501e-29
-1.62702e-33
1.2307e-31
-1.33828e-35
1.16315e-33
-3.70732e-36
1.27168e-35
-5.86778e-36
1.69184e-36
-2.02285e-34
9.36573e-36
-2.75638e-33
1.95528e-34
-2.41241e-32
3.63998e-33
-4.96161e-31
1.05306e-31
-6.76071e-30
2.35796e-30
-8.06342e-29
2.07636e-28
-6.94056e-28
3.16619e-27
-1.19369e-27
1.28346e-25
1.75238e-25
2.25062e-24
6.13368e-24
3.85567e-23
1.60499e-22
7.23154e-22
1.74195e-21
5.44173e-21
5.82953e-17
8.42263e-16
-8.52005e-20
1.95372e-16
-2.54815e-21
1.84534e-18
-4.61524e-23
1.9029e-21
-1.4973e-25
-1.84641e-23
-1.01905e-28
-2.54049e-26
-2.8103e-31
4.39288e-29
-1.62202e-33
1.53996e-31
-1.29578e-35
1.23174e-33
-6.13358e-37
1.31187e-35
-5.67316e-37
6.27269e-37
-3.43642e-36
6.96764e-37
-7.04199e-35
1.48391e-35
-7.91078e-34
2.49158e-34
-1.95395e-32
6.0916e-33
-1.30995e-31
9.1168e-31
-9.65895e-30
8.57097e-30
3.47151e-30
2.34752e-28
-1.61098e-28
-2.07582e-27
-2.64822e-26
-1.81097e-25
-2.93161e-24
-1.32201e-23
-3.07027e-24
-1.00406e-23
1.10654e-21
4.5696e-22
9.39927e-17
7.73309e-16
6.36008e-18
3.43658e-16
-3.91381e-21
1.30031e-17
-1.26537e-22
2.23772e-20
-6.34722e-25
-1.24351e-22
-6.25965e-28
-2.49421e-25
-4.33203e-32
4.18763e-28
-3.01489e-34
3.82e-32
-3.04281e-36
1.70132e-34
-8.29529e-38
2.08616e-36
-6.34099e-38
3.06592e-37
-1.53392e-37
3.4697e-37
-5.73747e-36
8.87547e-37
-1.06805e-34
1.47857e-35
2.30171e-33
1.51763e-34
2.49675e-31
-4.07748e-32
-8.70601e-31
-2.18985e-29
-4.77983e-29
-4.95621e-28
-3.45735e-27
-2.17488e-26
-1.30658e-25
-5.71905e-25
-4.7144e-24
-1.5394e-23
-3.56482e-23
-9.04867e-23
-1.25532e-22
-6.20244e-23
9.60603e-17
6.21439e-16
1.99225e-17
3.68444e-16
2.93008e-19
2.97835e-17
4.04503e-22
2.37415e-19
-3.88178e-25
-1.03866e-21
-1.19104e-27
-5.63077e-24
-4.47123e-32
3.93057e-27
-2.74169e-35
2.04727e-31
-1.34923e-37
1.07151e-34
-1.737e-38
6.53018e-37
-1.69955e-38
1.68708e-37
-2.39591e-38
1.93086e-37
-2.99895e-38
4.35223e-37
-2.03678e-36
1.05838e-36
6.08352e-36
9.50435e-35
-1.73152e-33
-2.46968e-32
-2.26386e-30
-1.90889e-29
-7.75665e-29
-4.46845e-28
-4.80955e-27
-2.03888e-26
-1.51444e-25
-4.94017e-25
-3.796e-24
-9.80961e-24
-2.87435e-23
-6.00135e-23
-1.87445e-22
-1.09664e-22
6.23402e-17
3.56484e-16
2.60929e-17
3.18608e-16
1.16367e-18
3.4581e-17
1.0924e-20
5.53655e-19
7.86844e-23
-7.92775e-22
4.4845e-25
-1.99574e-23
4.23733e-27
4.72852e-25
2.01824e-29
4.5085e-27
5.78127e-32
2.0485e-29
1.12629e-34
5.79389e-32
3.82587e-37
1.12503e-34
1.27779e-38
3.65048e-37
1.39221e-38
2.34353e-37
8.5529e-38
5.45646e-37
3.24963e-36
4.63366e-36
-2.75451e-33
-1.88835e-32
-2.5057e-30
-1.31055e-29
-7.54443e-29
-3.08341e-28
-4.51118e-27
-1.46958e-26
-1.22885e-25
-3.24155e-25
-2.37201e-24
-5.12839e-24
-1.65328e-23
-2.95542e-23
-9.82169e-23
-6.60575e-23
2.19813e-17
1.19915e-16
2.59087e-17
1.90766e-16
1.77914e-18
3.1516e-17
3.00479e-20
6.4683e-19
4.67431e-22
1.95287e-21
6.31308e-24
4.10336e-23
5.72016e-26
3.59634e-24
8.58618e-28
7.21882e-26
7.82663e-30
8.81041e-28
5.34298e-32
7.98498e-30
3.34444e-34
5.73496e-32
2.6357e-36
3.52312e-34
1.78052e-37
2.15e-36
2.82736e-38
1.41622e-37
2.41177e-37
1.34046e-36
-3.54444e-33
-1.66395e-32
-2.04995e-30
-8.0207e-30
-5.84357e-29
-1.89866e-28
-3.39453e-27
-9.17009e-27
-8.05807e-26
-1.81546e-25
-1.25515e-24
-2.36601e-24
-7.87928e-24
-1.24553e-23
-3.96707e-23
-2.98946e-23
4.05494e-18
2.41736e-17
1.50893e-17
7.1007e-17
1.55453e-18
1.41536e-17
3.17751e-20
3.7558e-19
6.87151e-22
3.61241e-21
1.36259e-23
1.27428e-22
1.9465e-25
5.78541e-24
2.20639e-27
1.35338e-25
2.31002e-29
2.17619e-27
3.70487e-31
3.31316e-29
4.06155e-33
4.08464e-31
3.92234e-35
4.25197e-33
3.67127e-37
4.01931e-35
9.83403e-38
4.10409e-37
-1.43394e-36
-5.97739e-36
-3.39102e-33
-1.25847e-32
-1.39176e-30
-4.49385e-30
-3.88105e-29
-1.07589e-28
-2.16712e-27
-5.12148e-27
-4.51225e-26
-9.05762e-26
-5.8271e-25
-9.9145e-25
-3.24958e-24
-4.67717e-24
-1.38922e-23
-1.14382e-23
5.15464e-19
3.86036e-18
4.83716e-18
1.70134e-17
6.01732e-19
2.95524e-18
1.46053e-20
8.54025e-20
3.96237e-22
1.50965e-21
1.00024e-23
6.93862e-23
1.89428e-25
3.40921e-24
2.84215e-27
1.03365e-25
3.64637e-29
2.43528e-27
4.11467e-31
4.01655e-29
4.23622e-33
5.58736e-31
4.24264e-35
6.80176e-33
1.05603e-36
7.70175e-35
4.47147e-37
1.0193e-36
-2.11575e-36
-7.38513e-36
-2.58849e-33
-8.259e-33
-8.20509e-31
-2.3329e-30
-2.27716e-29
-5.67106e-29
-1.206e-27
-2.60117e-27
-2.21884e-26
-4.11341e-26
-2.42128e-25
-3.83649e-25
-1.1801e-24
-1.59024e-24
-4.43685e-24
-3.89179e-24
7.67832e-20
5.98816e-19
1.1936e-18
2.9932e-18
1.32671e-19
4.38686e-19
3.76968e-21
1.39509e-20
1.20624e-22
3.93938e-22
3.50669e-24
1.95059e-23
8.07769e-26
8.63302e-25
1.52984e-27
2.84329e-26
2.46839e-29
7.86937e-28
3.42426e-31
1.70671e-29
4.31584e-33
3.14956e-31
5.17872e-35
5.20747e-33
6.58833e-37
8.10086e-35
5.94252e-37
1.00548e-36
-1.95836e-36
-6.14581e-36
-1.66416e-33
-4.84247e-33
-4.29179e-31
-1.12876e-30
-1.19696e-29
-2.7924e-29
-5.9392e-28
-1.2124e-27
-9.7256e-27
-1.71975e-26
-9.10678e-26
-1.38371e-25
-3.78665e-25
-4.90745e-25
-1.35835e-24
-1.23811e-24
1.52902e-20
8.89395e-20
2.46424e-19
4.42943e-19
2.2987e-20
5.90382e-20
7.03531e-22
2.11007e-21
2.46882e-23
8.06577e-23
7.77919e-25
4.04152e-24
1.99386e-26
1.66209e-25
4.3235e-28
5.39416e-27
8.13404e-30
1.48682e-28
1.34744e-31
3.59832e-30
2.01984e-33
7.65327e-32
2.87105e-35
1.47392e-33
3.93809e-37
2.61354e-35
3.45801e-37
3.8894e-37
-1.42214e-36
-4.23296e-36
-9.26278e-34
-2.57619e-33
-2.01086e-31
-5.0988e-31
-5.66761e-30
-1.28505e-29
-2.60815e-28
-5.20956e-28
-3.82491e-27
-6.65117e-27
-3.11307e-26
-4.66581e-26
-1.06316e-25
-1.36039e-25
-4.29171e-25
-3.96678e-25
2.98566e-21
1.19658e-20
4.25662e-20
5.63888e-20
3.31445e-21
7.05546e-21
1.01259e-22
2.83994e-22
3.76139e-24
1.30639e-23
1.26092e-25
6.44781e-25
3.50398e-27
2.57777e-26
8.31815e-29
8.4861e-28
1.71676e-30
2.40558e-29
3.13769e-32
5.94068e-31
5.2325e-34
1.29651e-32
8.25135e-36
2.5488e-34
1.25122e-37
4.62762e-36
1.0733e-37
7.70294e-38
-8.60479e-37
-2.53916e-36
-4.51785e-34
-1.25107e-33
-8.45939e-32
-2.14699e-31
-2.41653e-30
-5.51298e-30
-1.02302e-28
-2.06491e-28
-1.3501e-27
-2.37951e-27
-9.64654e-27
-1.4674e-26
-2.56018e-26
-3.32191e-26
-1.51515e-25
-1.38497e-25
4.85771e-22
1.42675e-21
5.96591e-21
6.12335e-21
3.83176e-22
7.29037e-22
1.14886e-23
3.31426e-23
4.49216e-25
1.69526e-24
1.58944e-26
8.19956e-26
4.71263e-28
3.24816e-27
1.1971e-29
1.08865e-28
2.6444e-31
3.16261e-30
5.18012e-33
8.0219e-32
9.25231e-35
1.79862e-33
1.55446e-36
3.63147e-35
2.48736e-38
6.74466e-37
2.12298e-38
1.13139e-38
-4.42438e-37
-1.34749e-36
-1.93685e-34
-5.54863e-34
-3.18564e-32
-8.39202e-32
-9.23312e-31
-2.19369e-30
-3.57237e-29
-7.52955e-29
-4.2565e-28
-7.84543e-28
-2.68833e-27
-4.27607e-27
-5.22195e-27
-7.07504e-27
-5.98348e-26
-5.26131e-26
6.44125e-23
1.50717e-22
6.71999e-22
5.74419e-22
3.53179e-23
6.64068e-23
1.06083e-24
3.379e-24
4.38854e-26
1.82688e-25
1.62779e-27
8.70724e-27
5.07187e-29
3.4522e-28
1.35357e-30
1.1729e-29
3.14217e-32
3.45891e-31
6.47038e-34
8.91724e-33
1.21186e-35
2.03432e-34
2.12195e-37
4.17686e-36
3.49293e-39
7.84973e-38
2.96505e-39
1.33912e-39
-1.94575e-37
-6.35901e-37
-7.27708e-35
-2.24035e-34
-1.06632e-32
-3.02535e-32
-3.13339e-31
-8.03702e-31
-1.10194e-29
-2.51205e-29
-1.1871e-28
-2.36872e-28
-6.64585e-28
-1.14427e-27
-9.42799e-28
-1.3801e-27
-2.39071e-26
-1.95311e-26
7.04969e-24
1.42164e-23
6.16378e-23
4.78426e-23
2.65863e-24
5.49089e-24
8.2941e-26
3.06905e-25
3.63732e-27
1.70148e-26
1.3997e-28
8.04183e-28
4.51772e-30
3.19765e-29
1.24751e-31
1.09388e-30
2.99465e-33
3.24492e-32
6.37051e-35
8.41121e-34
1.22875e-36
1.92874e-35
2.19936e-38
3.97486e-37
3.71562e-40
7.40896e-39
3.06544e-40
4.73071e-40
-7.30898e-38
-2.66806e-37
-2.37785e-35
-8.18878e-35
-3.13675e-33
-9.97794e-33
-9.31793e-32
-2.6869e-31
-2.96372e-30