/*--------------------------------*- C++ -*----------------------------------*\
| =========                 |                                                 |
| \\      /  F ield         | OpenFOAM: The Open Source CFD Toolbox           |
|  \\    /   O peration     | Version:  2206                                  |
|   \\  /    A nd           | Website:  www.openfoam.com                      |
|    \\/     M anipulation  |                                                 |
\*---------------------------------------------------------------------------*/
FoamFile
{
    version     2.0;
    format      ascii;
    arch        "LSB;label=32;scalar=64";
    class       surfaceScalarField;
    location    "0.1";
    object      phi;
}
// * * * * * * * * * * * * * * * * * * * * * * * * * * * * * * * * * * * * * //

dimensions      [0 3 -1 0 0 0 0];

oriented        oriented;

internalField   nonuniform List<scalar> 
4432
(
4.74652e-06
-4.74652e-06
1.05529e-05
-5.80639e-06
1.6164e-05
-5.6111e-06
2.17834e-05
-5.61941e-06
2.75968e-05
-5.81341e-06
3.36871e-05
-6.09027e-06
4.01228e-05
-6.43573e-06
4.69663e-05
-6.84351e-06
5.43312e-05
-7.36488e-06
6.22726e-05
-7.94135e-06
7.09106e-05
-8.63799e-06
8.03474e-05
-9.43689e-06
9.08763e-05
-1.05289e-05
0.000102756
-1.18796e-05
0.000115135
-1.23793e-05
0.000125624
-1.04889e-05
0.000132503
-6.87851e-06
0.00013735
-4.84749e-06
0.000142477
-5.12674e-06
0.000143454
-9.77324e-07
0.000114611
2.88427e-05
4.96759e-05
6.49355e-05
4.96758e-05
4.76511e-06
-9.51164e-06
1.05563e-05
-1.15976e-05
1.61679e-05
-1.12227e-05
2.17877e-05
-1.12393e-05
2.75961e-05
-1.16219e-05
3.36788e-05
-1.21729e-05
4.01026e-05
-1.28595e-05
4.69376e-05
-1.36785e-05
5.42784e-05
-1.47057e-05
6.21927e-05
-1.58557e-05
7.08336e-05
-1.72788e-05
8.02651e-05
-1.88684e-05
9.05993e-05
-2.08631e-05
0.000102158
-2.34386e-05
0.000114725
-2.49464e-05
0.000127
-2.27639e-05
0.000137287
-1.71654e-05
0.000144533
-1.20936e-05
0.000150472
-1.1065e-05
0.000156466
-6.97153e-06
0.000147564
3.77447e-05
9.73883e-05
0.000115111
0.000147064
4.76241e-06
-1.42741e-05
1.05146e-05
-1.73497e-05
1.6095e-05
-1.68031e-05
2.16874e-05
-1.68316e-05
2.74641e-05
-1.73986e-05
3.35108e-05
-1.82196e-05
3.98928e-05
-1.92414e-05
4.66835e-05
-2.04692e-05
5.39673e-05
-2.19895e-05
6.18218e-05
-2.37102e-05
7.04247e-05
-2.58817e-05
7.98088e-05
-2.82525e-05
9.00046e-05
-3.10588e-05
0.000101394
-3.48281e-05
0.000114186
-3.77385e-05
0.000127982
-3.65597e-05
0.000142348
-3.15313e-05
0.000155369
-2.51147e-05
0.000157654
-1.33497e-05
0.000151176
-4.93401e-07
0.000141454
4.74658e-05
0.000104729
0.000151836
0.000251794
4.75229e-06
-1.90263e-05
1.04528e-05
-2.30502e-05
1.59868e-05
-2.23372e-05
2.15377e-05
-2.23824e-05
2.72695e-05
-2.31305e-05
3.32655e-05
-2.42157e-05
3.95894e-05
-2.55653e-05
4.63157e-05
-2.71956e-05
5.35245e-05
-2.91983e-05
6.12997e-05
-3.14854e-05
6.9827e-05
-3.4409e-05
7.91345e-05
-3.756e-05
8.92601e-05
-4.11844e-05
0.000100658
-4.62257e-05
0.000113848
-5.09284e-05
0.000128956
-5.1668e-05
0.000144884
-4.74592e-05
0.000158097
-3.83279e-05
0.000159829
-1.50822e-05
0.000144062
1.5274e-05
0.00011947
7.20579e-05
9.17475e-05
0.000179559
0.000343541
4.73466e-06
-2.3761e-05
1.03704e-05
-2.86859e-05
1.5844e-05
-2.78108e-05
2.13402e-05
-2.78786e-05
2.70143e-05
-2.88045e-05
3.29461e-05
-3.01475e-05
3.91971e-05
-3.18163e-05
4.58433e-05
-3.38418e-05
5.29599e-05
-3.63148e-05
6.06401e-05
-3.91656e-05
6.90746e-05
-4.28435e-05
7.82847e-05
-4.67701e-05
8.83474e-05
-5.12471e-05
9.98265e-05
-5.77049e-05
0.000113656
-6.47576e-05
0.000130455
-6.84676e-05
0.000148232
-6.52356e-05
0.000156293
-4.63891e-05
0.000151033
-9.82227e-06
0.000132
3.43069e-05
9.53008e-05
0.000108757
7.30422e-05
0.000201817
0.000416583
4.71153e-06
-2.84725e-05
1.02708e-05
-3.42452e-05
1.56727e-05
-3.32127e-05
2.11044e-05
-3.33103e-05
2.67122e-05
-3.44123e-05
3.25716e-05
-3.60069e-05
3.87421e-05
-3.79868e-05
4.53012e-05
-4.04009e-05
5.23198e-05
-4.33335e-05
5.98986e-05
-4.67443e-05
6.82356e-05
-5.11805e-05
7.73522e-05
-5.58867e-05
8.7339e-05
-6.12339e-05
9.88413e-05
-6.92073e-05
0.000113304
-7.92205e-05
0.000131533
-8.66967e-05
0.000149954
-8.36561e-05
0.000144654
-4.10892e-05
0.000125596
9.23552e-06
9.93726e-05
6.05308e-05
7.40769e-05
0.000134053
5.04194e-05
0.000225475
0.000467002
4.68876e-06
-3.31613e-05
1.01574e-05
-3.97138e-05
1.54778e-05
-3.85331e-05
2.08392e-05
-3.86718e-05
2.63759e-05
-3.9949e-05
3.21578e-05
-4.17887e-05
3.82428e-05
-4.40718e-05
4.47075e-05
-4.68656e-05
5.16226e-05
-5.02486e-05
5.90908e-05
-5.42125e-05
6.73044e-05
-5.93941e-05
7.62717e-05
-6.4854e-05
8.60969e-05
-7.10591e-05
9.75278e-05
-8.06382e-05
0.000112316
-9.40087e-05
0.000131052
-0.000105433
0.00014066
-9.32642e-05
0.000126232
-2.66614e-05
9.71688e-05
3.82991e-05
7.08495e-05
8.68502e-05
5.57433e-05
0.000149159
4.3971e-05
0.000237247
0.000510974
4.66676e-06
-3.7828e-05
1.00226e-05
-4.50696e-05
1.52521e-05
-4.37626e-05
2.05337e-05
-4.39534e-05
2.59881e-05
-4.54034e-05
3.16783e-05
-4.7479e-05
3.76603e-05
-5.00538e-05
4.40079e-05
-5.32132e-05
5.07865e-05
-5.70272e-05
5.81075e-05
-6.15335e-05
6.6142e-05
-6.74286e-05
7.48444e-05
-7.35564e-05
8.43558e-05
-8.05705e-05
9.56352e-05
-9.19175e-05
0.000110258
-0.000108631
0.000127691
-0.000122866
0.00012908
-9.46539e-05
0.000109669
-7.2502e-06
7.87206e-05
6.92474e-05
5.33147e-05
0.000112256
4.24904e-05
0.000159983
3.94606e-05
0.000240277
0.000550434
9.21724e-07
-9.21724e-07
4.55345e-06
-3.63168e-06
7.78847e-06
-3.23495e-06
9.9743e-06
-2.18583e-06
1.11702e-05
-1.19595e-06
1.15872e-05
-4.17015e-07
1.14533e-05
1.33961e-07
1.09588e-05
4.94303e-07
1.02367e-05
7.22244e-07
9.36767e-06
8.68805e-07
8.40781e-06
9.59777e-07
7.39398e-06
1.01367e-06
6.35073e-06
1.04329e-06
5.29303e-06
1.05754e-06
4.23015e-06
1.06283e-06
3.16744e-06
1.06281e-06
2.10636e-06
1.06084e-06
1.04933e-06
1.05724e-06
1.04898e-06
8.52274e-07
-1.77392e-06
4.82544e-06
-7.60481e-06
8.33234e-06
-6.74187e-06
1.06438e-05
-4.49727e-06
1.18838e-05
-2.43597e-06
1.2346e-05
-8.79419e-07
1.22677e-05
2.12505e-07
1.17858e-05
9.75811e-07
1.10305e-05
1.47754e-06
1.01012e-05
1.79782e-06
9.06657e-06
1.99438e-06
7.97096e-06
2.10896e-06
6.84341e-06
2.17087e-06
5.70122e-06
2.19969e-06
4.5546e-06
2.20921e-06
3.40949e-06
2.2082e-06
2.26689e-06
2.20295e-06
1.12785e-06
2.19668e-06
2.17655e-06
4.92428e-07
-2.26628e-06
4.80076e-06
-1.19131e-05
8.61955e-06
-1.05607e-05
1.09886e-05
-6.86633e-06
1.21604e-05
-3.60767e-06
1.2519e-05
-1.23819e-06
1.23296e-05
4.02168e-07
1.17702e-05
1.535e-06
1.0971e-05
2.27666e-06
1.0021e-05
2.7475e-06
8.98021e-06
3.03518e-06
7.88728e-06
3.20165e-06
6.76768e-06
3.29052e-06
5.63645e-06
3.33095e-06
4.50216e-06
3.34319e-06
3.37008e-06
3.34053e-06
2.24066e-06
3.33189e-06
1.11495e-06
3.32274e-06
3.29127e-06
-1.10473e-07
-2.15577e-06
4.68859e-06
-1.67121e-05
9.08495e-06
-1.49571e-05
1.15337e-05
-9.31511e-06
1.25877e-05
-4.66147e-06
1.28174e-05
-1.46802e-06
1.25229e-05
6.96896e-07
1.18858e-05
2.17187e-06
1.10336e-05
3.12877e-06
1.00498e-05
3.73112e-06
8.98854e-06
4.09648e-06
7.88416e-06
4.30584e-06
6.75889e-06
4.41575e-06
5.62579e-06
4.46409e-06
4.49188e-06
4.47679e-06
3.36156e-06
4.47111e-06
2.23475e-06
4.45829e-06
1.11205e-06
4.44572e-06
4.40314e-06
-1.42502e-06
-7.30749e-07
4.46938e-06
-2.26063e-05
9.77599e-06
-2.02637e-05
1.23137e-05
-1.18529e-05
1.31727e-05
-5.5203e-06
1.3218e-05
-1.51346e-06
1.27865e-05
1.12848e-06
1.20528e-05
2.90547e-06
1.11349e-05
4.0467e-06
1.01077e-05
4.75811e-06
9.0189e-06
5.18536e-06
7.89762e-06
5.42694e-06
6.76246e-06
5.5508e-06
5.62421e-06
5.60244e-06
4.48814e-06
5.61259e-06
3.35754e-06
5.60195e-06
2.23166e-06
5.58381e-06
1.11044e-06
5.56719e-06
5.51346e-06
-1.41066e-06
6.79903e-07
5.04265e-06
-2.90596e-05
1.08703e-05
-2.60914e-05
1.33508e-05
-1.43335e-05
1.3918e-05
-6.08725e-06
1.37116e-05
-1.30723e-06
1.31059e-05
1.73438e-06
1.22535e-05
3.75778e-06
1.12562e-05
5.04404e-06
1.01772e-05
5.83699e-06
9.0553e-06
6.30724e-06
7.91378e-06
6.56834e-06
6.76677e-06
6.69771e-06
5.62227e-06
6.74705e-06
4.48358e-06
6.75103e-06
3.3526e-06
6.73312e-06
2.22786e-06
6.70827e-06
1.10844e-06
6.68685e-06
6.62183e-06
2.46163e-06
-1.78173e-06
8.1282e-06
-3.47261e-05
1.2703e-05
-3.06661e-05
1.46215e-05
-1.62521e-05
1.47961e-05
-6.26161e-06
1.42901e-05
-8.01325e-07
1.34718e-05
2.55282e-06
1.24809e-05
4.74856e-06
1.13925e-05
6.13248e-06
1.02545e-05
6.97484e-06
9.09533e-06
7.46643e-06
7.931e-06
7.73263e-06
6.77072e-06
7.8579e-06
5.61924e-06
7.89863e-06
4.47773e-06
7.89232e-06
3.34647e-06
7.86453e-06
2.22319e-06
7.83136e-06
1.10599e-06
7.80426e-06
7.7278e-06
6.76992e-06
-8.55163e-06
1.25958e-05
-4.05519e-05
1.52376e-05
-3.33078e-05
1.60881e-05
-1.71024e-05
1.57578e-05
-5.93119e-06
1.49227e-05
3.38491e-08
1.38716e-05
3.60404e-06
1.27274e-05
5.89278e-06
1.15391e-05
7.32073e-06
1.0337e-05
8.17692e-06
9.13743e-06
8.66603e-06
7.9485e-06
8.92157e-06
6.77397e-06
9.03235e-06
5.61502e-06
9.05763e-06
4.47058e-06
9.0366e-06
3.33918e-06
8.99606e-06
2.21768e-06
8.95279e-06
1.10313e-06
8.91898e-06
8.83096e-06
9.72957e-06
-4.75576e-05
2.07722e-05
-5.61123e-05
3.15097e-05
-5.45002e-05
4.23934e-05
-5.4837e-05
5.36329e-05
-5.66429e-05
6.53277e-05
-5.91738e-05
7.75909e-05
-6.2317e-05
9.054e-05
-6.61623e-05
0.000104351
-7.08386e-05
0.00011918
-7.63623e-05
0.00013533
-8.35783e-05
0.000152724
-9.09508e-05
0.00017242
-0.000100266
0.000197071
-0.000116569
0.000225611
-0.000137171
0.000243518
-0.000140773
0.000218966
-7.01011e-05
0.000164385
4.733e-05
0.000113061
0.000120572
7.68718e-05
0.000148445
6.34634e-05
0.000173391
8.34974e-05
0.000220242
0.000452997
0.000180935
9.45176e-06
-5.70094e-05
1.98646e-05
-6.65251e-05
3.0034e-05
-6.46695e-05
4.03725e-05
-6.51756e-05
5.10287e-05
-6.72991e-05
6.20746e-05
-7.02197e-05
7.35987e-05
-7.38411e-05
8.57039e-05
-7.82676e-05
9.85107e-05
-8.36454e-05
0.000112164
-9.0016e-05
0.000126869
-9.82825e-05
0.000142386
-0.000106469
0.000160176
-0.000118055
0.000182402
-0.000138795
0.000205178
-0.000159948
0.000197389
-0.000132984
0.000148313
-2.10244e-05
9.54187e-05
0.000100224
6.50525e-05
0.000150938
5.09526e-05
0.000162545
5.23776e-05
0.000171967
7.94723e-05
0.000193148
0.000333291
0.000199179
9.09772e-06
-6.61071e-05
1.88054e-05
-7.62328e-05
2.83315e-05
-7.41956e-05
3.80482e-05
-7.48924e-05
4.80354e-05
-7.72863e-05
5.83372e-05
-8.05214e-05
6.90193e-05
-8.45232e-05
8.01586e-05
-8.94069e-05
9.18276e-05
-9.53143e-05
0.000104131
-0.000102319
0.000117157
-0.000111309
0.000130576
-0.000119888
0.0001463
-0.000133778
0.000164308
-0.000156803
0.00017386
-0.0001695
0.000149861
-0.000108985
8.60473e-05
4.27893e-05
5.05357e-05
0.000135735
4.1046e-05
0.000160428
4.13395e-05
0.000162251
4.86979e-05
0.000164608
6.78757e-05
0.00017397
0.000232778
0.000168388
8.66508e-06
-7.47722e-05
1.76112e-05
-8.51789e-05
2.64429e-05
-8.30273e-05
3.54742e-05
-8.39237e-05
4.47225e-05
-8.65346e-05
5.42071e-05
-9.0006e-05
6.39721e-05
-9.42882e-05
7.40643e-05
-9.9499e-05
8.45139e-05
-0.000105764
9.53758e-05
-0.000113181
0.000106607
-0.00012254
0.000117894
-0.000131174
0.000131321
-0.000147206
0.00014488
-0.000170362
0.000142453
-0.000167073
9.49628e-05
-6.14947e-05
4.20093e-05
9.57424e-05
2.72306e-05
0.000150514
3.08029e-05
0.000156855
3.77091e-05
0.000155344
4.7023e-05
0.000155294
6.38577e-05
0.000157135
0.00017095
0.000125686
8.16244e-06
-8.29346e-05
1.63084e-05
-9.33248e-05
2.44113e-05
-9.11302e-05
3.27109e-05
-9.22233e-05
4.11711e-05
-9.49948e-05
4.97921e-05
-9.86271e-05
5.85984e-05
-0.000103094
6.76091e-05
-0.00010851
7.68194e-05
-0.000114974
8.62411e-05
-0.000122603
9.57202e-05
-0.000132019
0.000105056
-0.000140511
0.00011605
-0.0001582
0.000124726
-0.000179038
0.000107733
-0.00015008
4.75446e-05
-1.30578e-06
1.67722e-05
0.000126515
1.80128e-05
0.000149273
2.70096e-05
0.000147859
3.64588e-05
0.000145895
4.74289e-05
0.000144324
6.29066e-05
0.000141658
0.000139579
9.42769e-05
7.59871e-06
-9.05333e-05
1.49236e-05
-0.00010065
2.22776e-05
-9.84842e-05
2.98145e-05
-9.97602e-05
3.74569e-05
-0.000102637
4.51914e-05
-0.000106362
5.30256e-05
-0.000110929
6.09564e-05
-0.000116441
6.89541e-05
-0.000122972
7.7001e-05
-0.00013065
8.48838e-05
-0.000139902
9.26021e-05
-0.000148229
0.000101125
-0.000166723
0.00010496
-0.000182873
8.16508e-05
-0.000126771
2.11103e-05
5.92344e-05
8.08732e-06
0.000139538
1.60132e-05
0.000141347
2.55767e-05
0.000138295
3.50861e-05
0.000136386
4.56195e-05
0.000133791
5.78035e-05
0.000129474
0.00012344
7.39423e-05
6.98471e-06
-9.7518e-05
1.34837e-05
-0.000107149
2.00802e-05
-0.000105081
2.6838e-05
-0.000106518
3.365e-05
-0.000109449
4.04944e-05
-0.000113206
4.73655e-05
-0.0001178
5.42437e-05
-0.000123319
6.10847e-05
-0.000129813
6.78529e-05
-0.000137418
7.43127e-05
-0.000146361
8.06375e-05
-0.000154554
8.69402e-05
-0.000173025
8.80551e-05
-0.000183988
5.13238e-05
-9.00395e-05
6.33084e-06
0.000104227
6.55215e-06
0.000139317
1.56905e-05
0.000132208
2.40094e-05
0.000129976
3.23999e-05
0.000127995
4.13056e-05
0.000124885
5.06203e-05
0.000120159
0.000113394
6.06665e-05
6.33367e-06
-0.000103852
1.20138e-05
-0.000112829
1.78538e-05
-0.000110921
2.38279e-05
-0.000112492
2.98109e-05
-0.000115432
3.57762e-05
-0.000119171
4.17084e-05
-0.000123732
4.75765e-05
-0.000129187
5.33296e-05
-0.000135566
5.89233e-05
-0.000143012
6.41277e-05
-0.000151566
6.92578e-05
-0.000159684
7.38723e-05
-0.00017764
7.25866e-05
-0.000182702
1.63731e-05
-3.38261e-05
-3.90925e-06
0.00012451
6.74953e-06
0.000128658
1.47234e-05
0.000124234
2.18396e-05
0.00012286
2.90295e-05
0.000120805
3.63364e-05
0.000117578
4.36128e-05
0.000112883
0.000106404
5.06036e-05
5.65888e-06
-0.000109511
1.05375e-05
-0.000117707
1.56291e-05
-0.000116012
2.08247e-05
-0.000117688
2.59915e-05
-0.000120599
3.10995e-05
-0.000124279
3.61262e-05
-0.000128759
4.10338e-05
-0.000134095
4.57696e-05
-0.000140302
5.02847e-05
-0.000147527
5.4379e-05
-0.00015566
5.84392e-05
-0.000163744
6.15615e-05
-0.000180762
5.55177e-05
-0.000176659
-5.71641e-06
2.74083e-05
-6.90035e-06
0.000125693
5.9601e-06
0.000115797
1.3288e-05
0.000116907
1.96266e-05
0.000116522
2.56637e-05
0.000114768
3.1517e-05
0.000111725
3.71019e-05
0.000107298
0.000101411
4.20945e-05
4.97254e-06
-0.000114483
9.07354e-06
-0.000121808
1.34305e-05
-0.000120369
1.78611e-05
-0.000122118
2.22321e-05
-0.00012497
2.65121e-05
-0.000128559
3.06731e-05
-0.00013292
3.46734e-05
-0.000138095
3.84612e-05
-0.00014409
4.19825e-05
-0.000151048
4.50851e-05
-0.000158763
4.80934e-05
-0.000166752
5.01509e-05
-0.00018282
3.52597e-05
-0.000161768
-8.09878e-06
7.07669e-05
-9.15533e-07
0.00011851
6.69758e-06
0.000108184
1.27607e-05
0.000110844
1.78701e-05
0.000111412
2.25701e-05
0.000110068
2.70224e-05
0.000107273
3.1175e-05
0.000103145
9.77945e-05
3.47917e-05
4.28192e-06
-0.000118765
7.63542e-06
-0.000125162
1.12766e-05
-0.00012401
1.4962e-05
-0.000125804
1.85633e-05
-0.000128571
2.20496e-05
-0.000132046
2.53894e-05
-0.000136259
2.85402e-05
-0.000141246
3.14533e-05
-0.000147003
3.4061e-05
-0.000153656
3.62606e-05
-0.000160962
3.81393e-05
-0.000168631
4.0015e-05
-0.000184695
1.56717e-05
-0.000137424
-1.85504e-06
8.82934e-05
6.04527e-06
0.00011061
9.68874e-06
0.000104541
1.32369e-05
0.000107295
1.65685e-05
0.00010808
1.97594e-05
0.000106877
2.28617e-05
0.00010417
2.58072e-05
0.0001002
9.51951e-05
2.84066e-05
3.60728e-06
-0.000122372
6.25232e-06
-0.000127807
9.20522e-06
-0.000126963
1.21758e-05
-0.000128774
1.50471e-05
-0.000131442
1.7787e-05
-0.000134786
2.03605e-05
-0.000138833
2.27204e-05
-0.000143606
2.48211e-05
-0.000149104
2.65338e-05
-0.000155369
2.77566e-05
-0.000162185
2.8208e-05
-0.000169082
2.91738e-05
-0.000185661
4.78448e-06
-0.000113035
2.31146e-06
9.07663e-05
1.01226e-05
0.000102798
1.22223e-05
0.000102441
1.38305e-05
0.000105687
1.53848e-05
0.000106526
1.70491e-05
0.000105213
1.88857e-05
0.000102334
2.0802e-05
9.82836e-05
9.33861e-05
2.26109e-05
2.99075e-06
-0.000125363
4.96886e-06
-0.000129785
7.28602e-06
-0.00012928
9.59706e-06
-0.000131085
1.1803e-05
-0.000133648
1.38647e-05
-0.000136847
1.57373e-05
-0.000140705
1.73534e-05
-0.000145222
1.86542e-05
-0.000150404
1.93499e-05
-0.000156064
1.91989e-05
-0.000162034
1.79955e-05
-0.000167879
1.49142e-05
-0.00018258
-1.07514e-05
-8.73696e-05
2.86164e-06
7.71535e-05
1.43691e-05
9.12908e-05
1.50139e-05
0.000101796
1.44829e-05
0.000106218
1.40818e-05
0.000106927
1.41901e-05
0.000105105
1.48559e-05
0.000101668
1.59123e-05
9.72272e-05
9.21717e-05
1.71268e-05
2.41888e-06
-0.000127782
3.76817e-06
-0.000131134
5.51956e-06
-0.000131032
7.23534e-06
-0.000132801
8.83151e-06
-0.000135245
1.02611e-05
-0.000138277
1.14591e-05
-0.000141903
1.23355e-05
-0.000146098
1.28045e-05
-0.000150873
1.25626e-05
-0.000155822
1.11549e-05
-0.000160626
1.02966e-05
-0.000167021
2.65014e-07
-0.000172548
-1.4863e-06
-8.56181e-05
2.2637e-05
5.30302e-05
2.38485e-05
9.00794e-05
1.95155e-05
0.000106129
1.52872e-05
0.000110446
1.23589e-05
0.000109856
1.08375e-05
0.000106626
1.04694e-05
0.000102036
1.08765e-05
9.68201e-05
9.13364e-05
1.17119e-05
1.77662e-06
-0.000129559
2.52301e-06
-0.000131881
3.7033e-06
-0.000132212
4.8043e-06
-0.000133902
5.7499e-06
-0.00013619
6.49422e-06
-0.000139021
6.95324e-06
-0.000142362
7.06083e-06
-0.000146206
6.71179e-06
-0.000150524
6.55639e-06
-0.000155667
7.17504e-06
-0.000161245
1.51516e-05
-0.000174997
1.03659e-05
-0.000167762
5.19269e-05
-0.000127179
6.87308e-05
3.62262e-05
4.43914e-05
0.000114419
2.55709e-05
0.00012495
1.54124e-05
0.000120605
9.45554e-06
0.000115812
6.43437e-06
0.000109647
5.33962e-06
0.000103131
5.41889e-06
9.67409e-05
9.06042e-05
6.15119e-06
8.38704e-07
-0.000130397
8.90751e-07
-0.000131933
1.29934e-06
-0.000132621
1.57586e-06
-0.000134179
1.65463e-06
-0.000136269
1.51113e-06
-0.000138878
1.18729e-06
-0.000142039
8.22086e-07
-0.00014584
4.57095e-07
-0.000150159
3.06094e-06
-0.000158271
1.32867e-05
-0.000171471
3.33889e-05
-0.000195099
5.37662e-05
-0.00018814
7.59984e-05
-0.000149411
0.00010577
6.45417e-06
6.2307e-05
0.000157882
2.84585e-05
0.000158798
1.20969e-05
0.000136966
3.85279e-06
0.000124057
2.1896e-07
0.000113281
-9.34912e-07
0.000104285
-6.97322e-07
9.65034e-05
8.96253e-05
2.81739e-07
-8.19966e-07
-0.000129577
-2.21202e-06
-0.000130541
-3.22842e-06
-0.000131604
-4.35336e-06
-0.000133054
-5.71965e-06
-0.000134903
-7.19664e-06
-0.000137401
-7.93688e-06
-0.000141299
-7.32165e-06
-0.000146456
-3.35758e-06
-0.000154123
9.33265e-06
-0.000170961
3.96392e-05
-0.000201777
5.12278e-05
-0.000206688
6.70823e-05
-0.000203994
5.69919e-05
-0.000139321
8.55017e-05
-2.20558e-05
4.81747e-05
0.000195209
1.72524e-05
0.00018972
7.05774e-07
0.000153513
-6.19665e-06
0.000130959
-8.63299e-06
0.000115717
-8.73142e-06
0.000104383
-7.62648e-06
9.53986e-05
8.7966e-05
-5.96711e-06
-2.95235e-06
-0.000126625
-6.24783e-06
-0.000127246
-8.7437e-06
-0.000129108
-1.10857e-05
-0.000130712
-1.30361e-05
-0.000132953
-1.38307e-05
-0.000136607
-1.21888e-05
-0.000142941
-7.8105e-06
-0.000150834
2.2576e-06
-0.000164192
2.18468e-05
-0.00019055
4.6877e-05
-0.000226808
6.72616e-05
-0.000227073
5.44159e-05
-0.000191149
1.76985e-05
-0.000102604
-1.69488e-06
-2.66235e-06
-4.61036e-06
0.000198125
-1.61239e-05
0.000201234
-2.06278e-05
0.000158017
-2.13372e-05
0.000131668
-2.01213e-05
0.000114501
-1.78972e-05
0.000102159
-1.52366e-05
9.2738e-05
8.52135e-05
-1.24841e-05
-3.52015e-06
-0.000123105
-6.72534e-06
-0.000124041
-1.0121e-05
-0.000125713
-1.32034e-05
-0.00012763
-1.58475e-05
-0.000130309
-1.78213e-05
-0.000134633
-1.95926e-05
-0.000141169
-2.0006e-05
-0.000150421
-1.83947e-05
-0.000165803
-1.47346e-05
-0.00019421
-1.26796e-05
-0.000228863
-6.85849e-06
-0.000232894
-2.54247e-05
-0.000172582
-5.39428e-05
-7.40854e-05
-8.61004e-05
2.94952e-05
-7.89629e-05
0.000190987
-5.99901e-05
0.000182261
-4.76869e-05
0.000145714
-3.94616e-05
0.000123443
-3.31009e-05
0.000108141
-2.77118e-05
9.677e-05
-2.3046e-05
8.80723e-05
8.11265e-05
-1.89589e-05
-4.2257e-06
-0.000118879
-7.99363e-06
-0.000120273
-1.22463e-05
-0.00012146
-1.66142e-05
-0.000123262
-2.09636e-05
-0.000125959
-2.56325e-05
-0.000129964
-3.12197e-05
-0.000135583
-3.8352e-05
-0.000143288
-4.8482e-05
-0.000155673
-6.55392e-05
-0.000177153
-9.13582e-05
-0.000203044
-0.00011607
-0.000208182
-0.000125119
-0.000163533
-0.00013718
-6.20237e-05
-0.000165609
5.79237e-05
-0.000138355
0.000163733
-9.73243e-05
0.00014123
-7.2409e-05
0.000120798
-5.65448e-05
0.000107579
-4.53696e-05
9.69653e-05
-3.69784e-05
8.83788e-05
-3.03665e-05
8.14605e-05
7.57179e-05
-2.49578e-05
-4.61472e-06
-0.000114264
-9.11761e-06
-0.00011577
-1.39453e-05
-0.000116633
-1.90465e-05
-0.000118161
-2.46592e-05
-0.000120347
-3.12107e-05
-0.000123412
-3.93374e-05
-0.000127456
-4.99398e-05
-0.000132686
-6.58745e-05
-0.000139739
-9.29238e-05
-0.000150104
-0.000132586
-0.000163381
-0.00017577
-0.000164998
-0.000211298
-0.000128005
-0.000227475
-4.58467e-05
-0.000219109
4.95581e-05
-0.00016076
0.000105385
-0.000115595
9.6064e-05
-8.77788e-05
9.29823e-05
-6.85975e-05
8.83975e-05
-5.47715e-05
8.31394e-05
-4.44618e-05
7.80692e-05
-3.64638e-05
7.34626e-05
6.92976e-05
-3.00433e-05
-5.05596e-06
-0.000109208
-1.02619e-05
-0.000110564
-1.57062e-05
-0.000111188
-2.15749e-05
-0.000112293
-2.81254e-05
-0.000113796
-3.57739e-05
-0.000115764
-4.50157e-05
-0.000118214
-5.65915e-05
-0.00012111
-7.23179e-05
-0.000124013
-9.59679e-05
-0.000126453
-0.000131564
-0.000127785
-0.000175682
-0.000120881
-0.000212437
-9.125e-05
-0.000222561
-3.57226e-05
-0.000197017
2.40141e-05
-0.000149922
5.82899e-05
-0.00011663
6.2772e-05
-9.26024e-05
6.89544e-05
-7.42502e-05
7.00453e-05
-6.02613e-05
6.91506e-05
-4.94283e-05
6.72363e-05
-4.08537e-05
6.4888e-05
6.2353e-05
-3.39091e-05
-5.35575e-06
-0.000103853
-1.0923e-05
-0.000104997
-1.67105e-05
-0.000105401
-2.30038e-05
-0.000106
-3.00216e-05
-0.000106778
-3.81201e-05
-0.000107666
-4.77436e-05
-0.00010859
-5.9543e-05
-0.000109311
-7.43598e-05
-0.000109196
-9.33025e-05
-0.000107511
-0.000118041
-0.000103046
-0.000147395
-9.15269e-05
-0.000171496
-6.71495e-05
-0.000176335
-3.0883e-05
-0.000157047
4.72631e-06
-0.000129119
3.03619e-05
-0.000108261
4.19135e-05
-8.99699e-05
5.06636e-05
-7.46485e-05
5.4724e-05
-6.2102e-05
5.66042e-05
-5.18495e-05
5.69839e-05
-4.34327e-05
5.64713e-05
5.53755e-05
-3.64553e-05
-5.55536e-06
-9.82974e-05
-1.12961e-05
-9.92564e-05
-1.7285e-05
-9.94117e-05
-2.37332e-05
-9.95512e-05
-3.0845e-05
-9.96662e-05
-3.88729e-05
-9.96379e-05
-4.81502e-05
-9.93127e-05
-5.91014e-05
-9.83596e-05
-7.20527e-05
-9.62441e-05
-8.71023e-05
-9.24613e-05
-0.000104228
-8.59207e-05
-0.000121924
-7.38309e-05
-0.00013515
-5.39231e-05
-0.000137479
-2.85545e-05
-0.000128426
-4.32594e-06
-0.000112625
1.45605e-05
-9.82297e-05
2.75184e-05
-8.43567e-05
3.67906e-05
-7.20716e-05
4.2439e-05
-6.13906e-05
4.59233e-05
-5.22343e-05
4.78277e-05
-4.44268e-05
4.86638e-05
4.87242e-05
-3.77756e-05
-5.60105e-06
-9.26965e-05
-1.13329e-05
-9.35245e-05
-1.73423e-05
-9.34028e-05
-2.37265e-05
-9.31672e-05
-3.06644e-05
-9.27285e-05
-3.83308e-05
-9.19714e-05
-4.6928e-05
-9.07157e-05
-5.66294e-05
-8.86581e-05
-6.74941e-05
-8.53792e-05
-7.95159e-05
-8.04395e-05
-9.23681e-05
-7.30685e-05
-0.0001043
-6.18989e-05
-0.000112007
-4.62162e-05
-0.000112938
-2.76238e-05
-0.000107758
-9.50526e-06
-9.87546e-05
5.557e-06
-8.8552e-05
1.73158e-05
-7.80206e-05
2.62593e-05
-6.81614e-05
3.25798e-05
-5.91983e-05
3.69603e-05
-5.12234e-05
3.98528e-05
-4.42035e-05
4.16439e-05
4.25929e-05
-3.80721e-05
-5.52187e-06
-8.71748e-05
-1.11527e-05
-8.78942e-05
-1.70122e-05
-8.75429e-05
-2.31771e-05
-8.70024e-05
-2.97688e-05
-8.61368e-05
-3.6899e-05
-8.48415e-05
-4.46723e-05
-8.29424e-05
-5.3131e-05
-8.01992e-05
-6.21948e-05
-7.63152e-05
-7.16809e-05
-7.09535e-05
-8.11479e-05
-6.36015e-05
-8.94242e-05
-5.36224e-05
-9.46732e-05
-4.09671e-05
-9.55634e-05
-2.67334e-05
-9.23977e-05
-1.26708e-05
-8.64679e-05
-3.72725e-07
-7.92531e-05
1.0101e-05
-7.13681e-05
1.83744e-05
-6.35394e-05
2.47511e-05
-5.61143e-05
2.95351e-05
-4.92774e-05
3.30158e-05
-4.30884e-05
3.54549e-05
3.70635e-05
-3.75589e-05
-5.32581e-06
-8.18486e-05
-1.07755e-05
-8.24443e-05
-1.63701e-05
-8.19488e-05
-2.22046e-05
-8.11676e-05
-2.83465e-05
-7.99946e-05
-3.48552e-05
-7.83325e-05
-4.17637e-05
-7.60335e-05
-4.90441e-05
-7.29188e-05
-5.65787e-05
-6.87806e-05
-6.41521e-05
-6.33799e-05
-7.13263e-05
-5.64271e-05
-7.72727e-05
-4.76758e-05
-8.09809e-05
-3.72588e-05
-8.18228e-05
-2.58913e-05
-7.98934e-05
-1.46001e-05
-7.60145e-05
-4.25158e-06
-7.07233e-05
4.80982e-06
-6.47515e-05
1.24026e-05
-5.85667e-05
1.85663e-05
-5.24827e-05
2.3451e-05
-4.66999e-05
2.7233e-05
-4.13264e-05
3.00813e-05
3.21581e-05
-3.6421e-05
-5.04794e-06
-7.68014e-05
-1.02246e-05
-7.72673e-05
-1.54878e-05
-7.66857e-05
-2.09229e-05
-7.5732e-05
-2.65641e-05
-7.43534e-05
-3.24324e-05
-7.24639e-05
-3.85186e-05
-6.9947e-05
-4.47632e-05
-6.66744e-05
-5.10371e-05
-6.25065e-05
-5.7126e-05
-5.72907e-05
-6.26724e-05
-5.08806e-05
-6.71333e-05
-4.32148e-05
-6.99254e-05
-3.44666e-05
-7.07107e-05
-2.51059e-05
-6.9551e-05
-1.57597e-05
-6.68451e-05
-6.95741e-06
-6.29968e-05
9.61506e-07
-5.84416e-05
7.84737e-06
-5.35472e-05
1.36717e-05
-4.85808e-05
1.84846e-05
-4.37293e-05
2.23814e-05
-3.91139e-05
2.54659e-05
2.78595e-05
-3.48153e-05
-4.72214e-06
-7.2079e-05
-9.55064e-06
-7.2439e-05
-1.44418e-05
-7.17943e-05
-1.94411e-05
-7.07324e-05
-2.45647e-05
-6.92302e-05
-2.98092e-05
-6.72192e-05
-3.51425e-05
-6.46136e-05
-4.04934e-05
-6.13235e-05
-4.57395e-05
-5.72603e-05
-5.06925e-05
-5.23374e-05
-5.50778e-05
-4.64953e-05
-5.85404e-05
-3.97523e-05
-6.07362e-05
-3.22706e-05
-6.14723e-05
-2.43697e-05
-6.07815e-05
-1.64504e-05
-5.88671e-05
-8.87182e-06
-5.60263e-05
-1.87929e-06
-5.25266e-05
4.34761e-06
-4.86436e-05
9.78864e-06
-4.45942e-05
1.44351e-05
-4.05423e-05
1.83295e-05
-3.66063e-05
2.15298e-05
2.41263e-05
-3.28732e-05
-4.37405e-06
-6.77044e-05
-8.81401e-06
-6.79992e-05
-1.33065e-05
-6.73018e-05
-1.7856e-05
-6.6183e-05
-2.24668e-05
-6.46195e-05
-2.71221e-05
-6.25639e-05
-3.17795e-05
-5.99561e-05
-3.63667e-05
-5.67363e-05
-4.07744e-05
-5.28525e-05
-4.48482e-05
-4.82637e-05
-4.83848e-05
-4.29588e-05
-5.11498e-05
-3.69873e-05
-5.29331e-05
-3.04872e-05
-5.36195e-05
-2.36833e-05
-5.3224e-05
-1.68459e-05
-5.1865e-05
-1.02308e-05
-4.97308e-05
-4.01356e-06
-4.70238e-05
1.64063e-06
-4.39332e-05
6.69799e-06
-4.06318e-05
1.11336e-05
-3.72577e-05
1.49555e-05
-3.39184e-05
1.81905e-05
2.09066e-05
-3.06987e-05
-4.0114e-06
-6.36932e-05
-8.05421e-06
-6.39561e-05
-1.21344e-05
-6.3222e-05
-1.62353e-05
-6.20818e-05
-2.03516e-05
-6.05032e-05
-2.44598e-05
-5.84559e-05
-2.85148e-05
-5.59012e-05
-3.24489e-05
-5.28022e-05
-3.61687e-05
-4.91328e-05
-3.95518e-05
-4.48808e-05
-4.245e-05
-4.00606e-05
-4.47064e-05
-3.47308e-05
-4.61882e-05
-2.90053e-05
-4.68228e-05
-2.30488e-05
-4.66164e-05
-1.70523e-05
-4.56473e-05
-1.11998e-05
-4.40245e-05
-5.6363e-06
-4.19208e-05
-4.63154e-07
-3.9451e-05
4.22819e-06
-3.67576e-05
8.44018e-06
-3.39539e-05
1.21518e-05
-3.11327e-05
1.53695e-05
1.81459e-05
-2.83719e-05
-3.63542e-06
-6.00579e-05
-7.28701e-06
-6.03045e-05
-1.0954e-05
-5.95553e-05
-1.46183e-05
-5.84172e-05
-1.82665e-05
-5.68552e-05
-2.18718e-05
-5.48509e-05
-2.53911e-05
-5.23819e-05
-2.87641e-05
-4.94292e-05
-3.19131e-05
-4.59838e-05
-3.4743e-05
-4.20509e-05
-3.71463e-05
-3.76573e-05
-3.90158e-05
-3.28613e-05
-4.02647e-05
-2.77565e-05
-4.08461e-05
-2.24674e-05
-4.07642e-05
-1.71343e-05
-4.00699e-05
-1.18941e-05
-3.88402e-05
-6.86596e-06
-3.71821e-05
-2.12125e-06
-3.52037e-05
2.2497e-06
-3.30058e-05
6.24231e-06
-3.06807e-05
9.82685e-06
-2.8307e-05
1.29958e-05
1.57914e-05
-2.59525e-05
-3.25046e-06
-5.68073e-05
-6.51868e-06
-5.70366e-05
-9.78169e-06
-5.62923e-05
-1.30273e-05
-5.51716e-05
-1.62365e-05
-5.36461e-05
-1.93819e-05
-5.17054e-05
-2.24241e-05
-4.93395e-05
-2.53115e-05
-4.65419e-05
-2.79805e-05
-4.33149e-05
-3.03581e-05
-3.96733e-05
-3.23659e-05
-3.56495e-05
-3.39297e-05
-3.12976e-05
-3.49911e-05
-2.66952e-05
-3.55195e-05
-2.19391e-05
-3.55173e-05
-1.71363e-05
-3.50185e-05
-1.23929e-05
-3.40812e-05
-7.80331e-06
-3.27696e-05
-3.43287e-06
-3.1184e-05
6.64095e-07
-2.93912e-05
4.4496e-06
-2.74681e-05
7.90375e-06
-2.54799e-05
1.10077e-05
1.37953e-05
-2.34837e-05
-2.86594e-06
-5.39414e-05
-5.75714e-06
-5.41456e-05
-8.63038e-06
-5.34191e-05
-1.1477e-05
-5.23251e-05
-1.42758e-05
-5.08472e-05
-1.70004e-05
-4.89808e-05
-1.96156e-05
-4.67243e-05
-2.20781e-05
-4.40796e-05
-2.4337e-05
-4.10561e-05
-2.63362e-05
-3.76741e-05
-2.80186e-05
-3.39672e-05
-2.93316e-05
-2.99846e-05
-3.02355e-05
-2.57913e-05
-3.07096e-05
-2.14649e-05
-3.07561e-05
-1.70898e-05
-3.03992e-05
-1.27497e-05
-2.96813e-05
-8.52115e-06
-2.86482e-05
-4.46593e-06
-2.7379e-05
-6.05147e-07
-2.59159e-05
2.98662e-06
-2.4331e-05
6.31885e-06
-2.26756e-05
9.35215e-06
1.2115e-05
-2.09954e-05
-2.49129e-06
-5.14501e-05
-5.0125e-06
-5.16244e-05
-7.51114e-06
-5.09206e-05
-9.97815e-06
-4.9858e-05
-1.23927e-05
-4.84325e-05
-1.473e-05
-4.66437e-05
-1.69595e-05
-4.4495e-05
-1.90453e-05
-4.19939e-05
-2.09473e-05
-3.91543e-05
-2.26226e-05
-3.59989e-05
-2.4029e-05
-3.25607e-05
-2.51294e-05
-2.88843e-05
-2.5896e-05
-2.50247e-05
-2.63151e-05
-2.10458e-05
-2.63889e-05
-1.70159e-05
-2.61356e-05
-1.3003e-05
-2.55864e-05
-9.0703e-06
-2.47799e-05
-5.27228e-06
-2.37525e-05
-1.6325e-06
-2.25701e-05
1.80424e-06
-2.12739e-05
5.02265e-06
-1.99074e-05
7.98549e-06
1.07142e-05
-1.85067e-05
-2.13131e-06
-4.93187e-05
-4.29244e-06
-4.94633e-05
-6.4311e-06
-4.8782e-05
-8.53655e-06
-4.77525e-05
-1.05894e-05
-4.63796e-05
-1.25673e-05
-4.4666e-05
-1.44443e-05
-4.26182e-05
-1.61912e-05
-4.0247e-05
-1.77766e-05
-3.75689e-05
-1.91679e-05
-3.46076e-05
-2.03341e-05
-3.13946e-05
-2.12484e-05
-2.797e-05
-2.18915e-05
-2.43815e-05
-2.22545e-05
-2.06828e-05
-2.23395e-05
-1.69308e-05
-2.21604e-05
-1.31821e-05
-2.17404e-05
-9.49011e-06
-2.11102e-05
-5.90224e-06
-2.02944e-05
-2.44824e-06
-1.93448e-05
8.5469e-07
-1.82953e-05
3.97296e-06
-1.7181e-05
6.87105e-06
9.5621e-06
-1.6029e-05
-1.78712e-06
-4.75316e-05
-3.59923e-06
-4.76513e-05
-5.39113e-06
-4.699e-05
-7.1508e-06
-4.59927e-05
-8.86093e-06
-4.46696e-05
-1.05021e-05
-4.30249e-05
-1.20531e-05
-4.10673e-05
-1.34905e-05
-3.88095e-05
-1.479e-05
-3.62694e-05
-1.5927e-05
-3.34706e-05
-1.68786e-05
-3.0443e-05
-1.76258e-05
-2.72229e-05
-1.81551e-05
-2.38522e-05
-1.84608e-05