/*--------------------------------*- C++ -*----------------------------------*\
| =========                 |                                                 |
| \\      /  F ield         | OpenFOAM: The Open Source CFD Toolbox           |
|  \\    /   O peration     | Version:  2206                                  |
|   \\  /    A nd           | Website:  www.openfoam.com                      |
|    \\/     M anipulation  |                                                 |
\*---------------------------------------------------------------------------*/
FoamFile
{
    version     2.0;
    format      ascii;
    arch        "LSB;label=32;scalar=64";
    class       volScalarField;
    location    "0.45";
    object      alpha.water;
}
// * * * * * * * * * * * * * * * * * * * * * * * * * * * * * * * * * * * * * //

dimensions      [0 0 0 0 0 0 0];

internalField   nonuniform List<scalar> 
2268
(
0.999999
0.999999
0.999999
1
1
1
1
1
1
1
1
1
1
1
1
1
1
1
1
0.904551
0.857473
0.914114
0.998496
0.999999
1
1
1
1
1
1
1
1
1
1
1
1
1
1
1
1
1
1
0.983746
0.857473
0.956296
0.998514
1
1
1
1
1
1
1
1
1
1
1
1
1
1
1
1
1
1
1
1
0.890459
0.969022
0.998535
1
1
1
1
1
1
1
1
1
1
1
1
1
1
1
1
1
1
1
1
0.994129
0.997581
0.998808
1
1
1
1
1
1
1
1
1
1
1
1
1
1
1
1
1
1
1
1
0.999999
0.999996
0.999343
1
1
1
1
1
1
1
1
1
1
1
1
1
1
1
1
1
1
1
1
1
0.999999
0.999303
1
1
1
0.999999
0.999999
0.999999
1
1
1
1
1
1
1
1
1
1
1
1
1
1
1
1
0.999302
1
1
0.999996
0.999982
0.999981
0.999988
0.999995
0.999998
0.999999
1
1
1
1
1
1
1
1
1
1
1
1
1
0.999303
8.46937e-16
3.71007e-16
3.88278e-17
9.19547e-19
3.03062e-19
5.15252e-19
4.02336e-17
1.94776e-15
6.34493e-14
1.08574e-12
9.53278e-12
1.293e-10
1.43272e-09
1.23973e-08
8.33803e-08
8.87547e-07
3.62392e-06
9.56854e-06
1.48871e-05
1.26178e-14
6.81978e-15
2.85956e-16
1.25909e-17
9.1084e-19
1.5202e-17
6.96767e-16
2.2028e-14
3.51601e-13
6.83605e-12
1.11947e-10
1.44372e-09
1.2671e-08
8.53198e-08
4.43053e-07
1.35323e-05
2.87159e-05
2.43958e-05
1.63797e-05
6.18329e-14
5.35682e-14
7.0083e-15
5.93579e-16
9.41025e-17
9.66942e-17
1.99425e-15
5.80999e-14
1.01364e-12
2.03344e-11
3.84979e-10
5.62565e-09
6.25047e-08
5.90933e-07
3.94076e-06
6.67652e-05
0.000156
0.000154517
6.9795e-05
6.91939e-14
2.19908e-13
7.3432e-14
1.12467e-14
3.91813e-15
1.56612e-15
4.67346e-15
9.49131e-14
2.11103e-12
4.33553e-11
8.64139e-10
1.38953e-08
1.85053e-07
1.75907e-06
1.29018e-05
0.000187486
0.000566533
0.00074814
0.000401247
1.37533e-13
2.77254e-13
3.54757e-13
8.32819e-14
3.89824e-14
1.82562e-14
2.00228e-14
1.35666e-13
2.65956e-12
5.9529e-11
1.35072e-09
2.60338e-08
3.58865e-07
3.82533e-06
3.08124e-05
0.000715424
0.00244918
0.00255011
0.00169577
1.37657e-13
1.38124e-13
1.50931e-13
1.83947e-13
9.16867e-14
7.51232e-14
1.25925e-13
4.89495e-13
2.29134e-12
5.63285e-11
1.54211e-09
3.0947e-08
4.89018e-07
5.93372e-06
5.38475e-05
0.00293381
0.0141955
0.00910775
0.0057023
1.38124e-13
1.38244e-07
-7.71034e-13
1.18584e-13
7.26831e-13
3.61979e-13
1.03913e-12
2.03359e-12
2.3667e-12
3.12012e-11
8.29809e-10
1.89811e-08
3.41698e-07
4.68922e-06
4.71248e-05
0.00054634
0.0252944
0.0554359
0.0163467
0.00018384
2.40213e-05
7.49262e-10
3.01944e-13
3.83906e-13
3.74159e-13
3.82814e-13
9.12395e-13
9.00711e-13
8.19207e-12
2.35344e-10
6.39854e-09
2.77461e-07
8.36404e-06
9.13766e-05
0.000164811
0.00995543
0.0790228
0.0371091
1
1
0.999889
0.999716
0.999722
0.999813
0.999893
0.999946
0.999975
0.999989
0.999996
0.999999
1
1
1
1
1
1
1
1
1
1
0.99984
1
0.988129
0.879386
0.792497
0.816411
0.853946
0.875067
0.896932
0.923036
0.94788
0.968641
0.985038
0.995867
0.999738
0.999966
1
1
1
1
1
1
1
1
0.787392
0.437615
0.151149
0.0901764
0.131703
0.157418
0.162814
0.180672
0.215655
0.262003
0.31776
0.388954
0.486073
0.615788
0.754692
0.920649
1
1
1
1
1
1
1
0.0226791
7.66959e-18
8.84641e-17
7.40662e-16
1.47465e-15
1.63208e-15
2.90632e-15
3.69182e-14
1.60654e-12
6.60048e-11
9.42662e-10
1.8102e-09
1.09809e-08
0.00157557
0.0335701
0.092932
0.212472
0.461714
0.862504
0.999999
1
1
1
2.16422e-18
2.52151e-18
7.79027e-18
8.85859e-17
9.8864e-15
6.08364e-14
2.57916e-13
1.35928e-12
2.61242e-11
3.44594e-11
3.22089e-10
1.63037e-09
1.81017e-09
1.09808e-08
4.2361e-07
4.24831e-06
4.05313e-05
0.0140905
0.0762187
0.212752
0.512665
0.953994
0.999998
1.30847e-18
4.77261e-17
3.99885e-15
4.66194e-14
3.15543e-13
1.31427e-12
3.91811e-12
6.12975e-12
2.57082e-10
2.2888e-08
6.06491e-08
1.81019e-09
3.30272e-09
1.88287e-05
0.000141139
0.00023109
0.00025645
0.000173114
0.000175275
0.000175275
0.0154732
0.123629
0.388413
3.3001e-19
4.71987e-17
6.36967e-15
1.57724e-13
1.23633e-12
4.36368e-12
8.63666e-12
8.57865e-12
1.28641e-11
6.66837e-08
1.61533e-07
4.51525e-09
7.23766e-09
5.89339e-05
0.000381879
0.000402085
0.000405324
0.000401982
0.000247218
0.000239655
0.000262438
0.000301728
0.00520851
2.47686e-35
3.93848e-18
5.03189e-15
1.90788e-13
1.71973e-12
6.00285e-12
1.05705e-11
1.05052e-11
1.92592e-11
7.05041e-08
1.61414e-07
5.17297e-08
3.2851e-07
5.09851e-05
3.47739e-05
0.00011999
0.00016761
0.00035246
0.00038793
0.000387652
0.000372498
0.000349469
0.000141585
-3.56462e-19
1.6026e-19
2.51823e-15
1.6276e-13
1.71023e-12
6.22912e-12
1.09567e-11
1.09584e-11
1.14318e-11
2.63563e-08
1.57516e-07
1.15278e-07
1.80624e-06
4.07511e-06
4.43102e-11
5.23422e-11
3.26402e-10
4.4176e-05
0.00015052
0.000158225
0.000382195
0.000375208
0.000120682
-2.79735e-18
2.52493e-20
9.42666e-16
9.86227e-14
1.22127e-12
4.99859e-12
1.07884e-11
1.38325e-11
8.73359e-10
3.98563e-09
2.53993e-08
1.7081e-07
7.50634e-07
4.43102e-11
3.1618e-11
4.25685e-11
3.74846e-08
2.38446e-06
0.000137003
0.000192151
0.000138301
0.00012073
0.000106442
-3.76797e-18
0
2.74436e-16
4.46069e-14
5.85012e-13
2.65842e-12
8.78903e-12
1.03286e-11
7.20639e-10
3.71247e-09
3.72559e-09
1.33552e-08
1.09824e-09
1.04956e-09
3.04425e-11
1.90816e-11
1.27018e-10
4.16921e-05
0.000268972
0.000269072
0.000171153
0.000110147
0.000106326
-4.19188e-18
-8.97348e-18
5.77907e-17
1.47077e-14
2.04954e-13
1.04307e-12
5.86257e-12
7.92596e-12
1.70082e-10
4.61167e-09
3.98571e-09
2.7579e-09
2.74038e-09
2.61634e-09
7.20332e-12
1.40644e-12
1.66719e-11
7.02912e-07
4.30897e-05
0.000249996
0.000362373
0.000362373
0.000360177
-4.14957e-18
-1.28322e-17
8.58495e-18
3.5959e-15
5.45506e-14
3.31598e-13
3.47778e-12
8.67525e-12
2.43895e-11
3.00875e-09
4.44852e-09
5.00622e-09
5.01864e-09
1.77222e-09
1.2405e-12
1.2405e-12
1.29372e-12
1.90141e-12
2.40023e-11
6.90912e-10
4.28345e-05
0.000210488
0.000257575
-3.70396e-18
-1.21177e-17
0
6.89713e-16
1.14776e-14
9.3052e-14
1.90586e-12
8.83074e-12
9.70542e-12
1.27441e-10
1.26304e-09
5.00961e-09
4.5031e-09
2.51214e-10
1.2405e-12
1.24957e-12
1.25009e-12
1.29885e-12
1.8987e-12
4.39658e-12
9.96288e-12
9.52136e-11
1.33843e-05
-2.95344e-18
-9.88642e-18
-4.20638e-18
1.00748e-16
1.93307e-15
2.30458e-14
7.52049e-13
5.70207e-12
8.98627e-12
5.21374e-12
3.60995e-11
1.76542e-09
2.8756e-10
8.84937e-12
3.06221e-12
1.42042e-12
3.45739e-12
5.49576e-12
5.46415e-12
5.57407e-12
6.00833e-12
9.94907e-12
1.79714e-11
-2.0826e-18
-7.05244e-18
-7.39592e-18
1.02317e-17
2.5489e-16
5.119e-15
1.96055e-13
2.03508e-12
5.41445e-12
5.23693e-12
8.58497e-13
6.34964e-13
6.30695e-13
8.50817e-13
2.07951e-12
5.03804e-13
2.26186e-13
1.45131e-12
7.98512e-12
1.78132e-11
2.10247e-11
2.11293e-11
2.15265e-11
-1.28202e-18
-4.33608e-18
-5.70825e-18
9.22807e-20
2.51805e-17
9.98497e-16
4.01168e-14
4.6942e-13
1.55586e-12
2.19713e-12
1.94085e-12
8.71587e-13
6.33803e-13
5.94164e-13
3.76977e-13
1.05822e-13
2.68422e-14
5.58528e-14
2.45858e-13
1.55441e-12
1.00285e-11
3.01665e-11
4.62269e-11
-6.76751e-19
-2.26443e-18
-3.46058e-18
-4.52158e-19
1.63015e-18
1.68074e-16
6.75774e-15
7.55324e-14
2.89487e-13
5.88079e-13
8.9571e-13
7.2603e-13
2.53493e-13
4.94273e-14
1.29083e-14
4.61874e-15
2.84653e-15
9.45575e-15
5.87805e-14
3.41638e-13
1.92638e-12
9.04572e-12
2.81274e-11
-2.99069e-19
-9.82236e-19
-1.70809e-18
-4.10678e-19
5.25576e-20
2.35747e-17
9.47188e-16
9.97463e-15
4.4184e-14
1.14455e-13
1.60362e-13
1.39364e-13
6.28025e-14
1.25178e-14
1.186e-15
1.74194e-16
2.27648e-16
1.36734e-15
1.29622e-14
1.01002e-13
5.98925e-13
3.07405e-12
1.9191e-11
-1.07161e-19
-3.43416e-19
-6.67073e-19
-1.79163e-19
2.48043e-22
2.67094e-18
1.13946e-16
1.25182e-15
6.1684e-15
1.69697e-14
2.07966e-14
1.84012e-14
9.91428e-15
2.44154e-15
1.80226e-16
4.32828e-18
1.3176e-17
2.225e-16
3.12933e-15
3.17893e-14
2.28544e-13
1.25585e-12
9.02458e-12
-2.98114e-20
-9.28047e-20
-1.96677e-19
-5.28991e-20
-4.83762e-38
2.3158e-19
1.1881e-17
1.57438e-16
7.5429e-16
2.1002e-15
2.57776e-15
2.17963e-15
1.22743e-15
3.44363e-16
2.90265e-17
-1.57262e-18
0
4.03607e-17
7.88743e-16
1.00486e-14
9.33599e-14
5.29159e-13
2.14814e-12
-6.04007e-21
-1.82193e-20
-4.08853e-20
-1.07247e-20
-7.53185e-22
1.39805e-20
9.71801e-19
1.69956e-17
8.52859e-17
2.08355e-16
2.5287e-16
2.13567e-16
1.08343e-16
2.05453e-17
-1.39035e-18
-4.12501e-18
-1.15701e-18
5.34266e-18
1.98977e-16
2.99198e-15
3.49247e-14
2.41973e-13
9.51661e-13
-7.98879e-22
-2.33917e-21
-5.43076e-21
-1.38008e-21
-1.85983e-22
4.31668e-22
5.14748e-20
1.26918e-18
7.09198e-18
1.49546e-17
1.89588e-17
1.61664e-17
7.65325e-18
-1.07466e-19
-3.35719e-18
-4.80204e-18
-2.51564e-18
5.60112e-19
4.9457e-17
8.58087e-16
1.19999e-14
9.63111e-14
4.16342e-13
-5.30586e-23
-1.5299e-22
-3.77336e-22
-9.28333e-23
-1.47708e-23
1.23075e-25
1.27665e-21
5.13816e-20
3.18338e-19
6.78418e-19
9.03793e-19
7.12601e-19
-3.07679e-20
-1.26282e-18
-3.17556e-18
-2.95281e-18
-1.52497e-18
4.95106e-20
1.17528e-17
2.29198e-16
3.78421e-15
3.41771e-14
1.56684e-13
-9.12268e-32
-4.55228e-30
-1.48825e-28
-2.8423e-27
-3.24254e-26
0
4.86701e-24
7.50791e-22
5.98537e-21
1.58973e-20
1.3898e-20
-2.2123e-20
-2.45818e-19
-9.16342e-19
-1.35651e-18
-1.09692e-18
-5.42222e-19
9.00158e-21
2.65755e-18
5.56434e-17
1.06302e-15
1.06816e-14
5.06355e-14
-4.51905e-32
-2.11477e-30
-7.15018e-29
-1.44715e-27
-2.15844e-26
-2.42337e-25
-1.84252e-24
-7.63631e-24
-3.70694e-23
-3.13896e-22
-3.01623e-21
-2.26939e-20
-1.13617e-19
-2.80144e-19
-3.52813e-19
-2.60991e-19
-1.20843e-19
2.46441e-21
5.71199e-19
1.2131e-17
2.62798e-16
2.91494e-15
1.42252e-14
-1.75695e-32
-7.62948e-31
-2.64051e-29
-5.40694e-28
-8.22026e-27
-9.83645e-26
-9.16114e-25
-6.41599e-24
-3.72612e-23
-2.18698e-22
-1.30684e-21
-6.61556e-21
-2.32893e-20
-4.83828e-20
-5.48602e-20
-3.75167e-20
-1.55447e-20
1.88161e-21
1.11442e-19
2.35981e-18
5.75734e-17
7.05674e-16
3.33077e-15
-5.03591e-33
-2.00664e-31
-7.07785e-30
-1.44729e-28
-2.18919e-27
-2.63833e-26
-2.55396e-25
-1.97465e-24
-1.23616e-23
-6.56291e-23
-3.08608e-22
-1.17646e-21
-3.20461e-21
-5.71514e-21
-5.55644e-21
-3.36981e-21
-1.07861e-21
7.2031e-22
1.85344e-20
4.09146e-19
1.14704e-17
1.55435e-16
5.80169e-16
-9.53203e-34
-3.45344e-32
-1.23035e-30
-2.4626e-29
-3.58799e-28
-4.1665e-27
-3.94694e-26
-3.04253e-25
-1.88416e-24
-9.26914e-24
-3.60773e-23
-1.1071e-22
-2.5913e-22
-4.07494e-22
-3.11238e-22
-1.50836e-22
-1.48583e-23
1.0815e-22
2.70069e-21
6.36785e-20
2.29785e-18
3.13418e-17
4.02434e-17
-9.19331e-35
-2.99264e-33
-1.06508e-31
-2.0216e-30
-2.66167e-29
-2.6746e-28
-2.13687e-27
-1.39548e-26
-7.59132e-26
-3.4752e-25
-1.33621e-24
-4.20095e-24
-9.89805e-24
-1.38794e-23
-8.61995e-24
-2.99312e-24
7.56419e-25
1.45585e-23
3.36134e-22
9.10234e-21
4.6815e-19
5.84349e-18
3.89502e-18
-6.09698e-37
-1.96407e-35
-7.39265e-34
-1.50378e-32
-2.16601e-31
-2.4314e-30
-2.21176e-29
-1.66997e-28
-1.06039e-27
-5.6717e-27
-2.50982e-26
-8.60398e-26
-1.88763e-25
-1.28273e-25
-5.02693e-26
1.89353e-26
5.82319e-26
1.37224e-24
3.53713e-23
1.13711e-21
7.62662e-20
1.03227e-18
7.1301e-19
-1.31346e-39
-4.92415e-38
-2.20692e-36
-5.3527e-35
-9.22552e-34
-1.24199e-32
-1.35608e-31
-1.22786e-30
-9.28287e-30
-5.78854e-29
-2.83042e-28
-9.39322e-28
-1.40185e-27
-7.27243e-28
-2.31834e-28
1.3537e-29
3.40405e-27
1.06233e-25
3.22477e-24
1.2402e-22
1.03039e-20
1.66877e-19
1.21904e-19
-2.32896e-42
-1.00889e-40
-5.27393e-39
-1.49882e-37
-3.04532e-36
-4.85242e-35
-6.26109e-34
-6.64267e-33
-5.75742e-32
-3.8944e-31
-1.79225e-30
-3.8173e-30
-1.81697e-30
-5.14258e-31
1.06858e-34
3.6511e-30
2.00027e-28
7.2506e-27
2.83863e-25
1.24012e-23
1.08182e-21
2.22815e-20
1.68235e-20
-1.38091e-45
-7.92281e-44
-5.34366e-42
-1.92276e-40
-4.89071e-39
-9.56285e-38
-1.47716e-36
-1.79933e-35
-1.63323e-34
-9.27112e-34
-1.64057e-33
-6.5013e-34
-1.54726e-34
1.73235e-52
1.0002e-34
1.94888e-31
1.09799e-29
5.12059e-28
2.4826e-26
1.13958e-24
9.52229e-23
2.23165e-21
1.32006e-21
-3.12395e-49
-2.4299e-47
-2.07643e-45
-9.13751e-44
-2.7719e-42
-6.17814e-41
-9.93951e-40
-1.02905e-38
-4.73346e-38
-1.5135e-38
-5.33164e-39
-4.53902e-38
-1.32983e-38
-6.96641e-70
1.09871e-36
1.02494e-32
5.96042e-31
3.11502e-29
1.68327e-27
7.73646e-26
4.69766e-24
1.54506e-22
1.3278e-22
-1.45132e-54
-1.37436e-52
-1.13352e-50
-3.66239e-49
-4.33688e-48
-7.50105e-49
-8.18113e-48
-1.53424e-45
-1.99242e-43
-1.67771e-41
-7.96062e-40
-1.42325e-38
-4.8363e-39
1.69175e-55
1.76225e-38
3.59482e-34
2.71136e-32
1.44593e-30
7.89333e-29
3.82125e-27
1.86937e-25
8.37548e-24
1.01208e-22
2.17124e-71
-2.53079e-64
-2.00052e-59
-2.253e-56
-1.38811e-53
-5.39607e-51
-1.43846e-48
-2.68045e-46
-3.43322e-44
-2.8444e-42
-1.31788e-40
-2.2741e-39
-7.028e-40
6.06366e-73
4.79101e-40
8.93142e-36
8.17563e-34
5.40515e-32
2.57729e-30
1.54564e-28
8.61133e-27
4.22778e-25
8.38075e-24
3.7775e-72
-1.14635e-65
-1.46475e-60
-1.35051e-57
-6.58903e-55
-2.01224e-52
-4.29664e-50
-6.63686e-48
-7.25831e-46
-5.08474e-44
-1.71358e-42
-4.00836e-43
-3.53571e-44
-1.13961e-44
3.12759e-42
1.31831e-37
1.83547e-35
1.20409e-33
7.80826e-32
6.13766e-30
2.60845e-28
1.40531e-26
3.98008e-25
3.49537e-75
-4.12209e-67
-1.05113e-61
-9.63165e-59
-4.2373e-56
-1.05625e-53
-1.60389e-51
-1.4673e-49
-7.77254e-48
-2.62069e-46
-7.86127e-45
-1.50538e-45
-8.02048e-45
-3.04837e-43
5.98216e-45
8.63093e-40
1.58254e-37
1.58287e-35
1.37007e-33
1.03499e-31
6.05091e-30
4.64015e-28
1.13324e-26
-1.63923e-81
-6.16662e-71
-8.46054e-66
-9.98945e-63
-4.84388e-60
-1.19444e-57
-1.52034e-55
-8.05186e-54
-1.65215e-54
-2.84234e-52
-6.83165e-50
-1.18043e-47
-1.32787e-45
-7.43808e-44
-2.86491e-45
6.77406e-44
5.95396e-41
9.6733e-39
2.09196e-36
2.82042e-34
4.15624e-32
5.66509e-30
1.8693e-28
-2.20043e-82
-1.11311e-77
-2.12131e-73
-2.59041e-70
-6.84132e-68
-2.54082e-69
-7.46238e-69
-6.76671e-66
-4.58377e-63
-2.27868e-60
-7.97654e-58
-1.78682e-55
-1.96637e-53
-1.95595e-53
0
1.87478e-51
1.64782e-48
5.40398e-45
1.95379e-42
6.93516e-40
2.49926e-37
9.0546e-35
2.99566e-33
0
0
-2.11225e-90
-1.47711e-85
-1.63617e-81
-9.3458e-78
-3.32104e-74
-7.87334e-71
-1.25434e-67
-1.28782e-64
-7.63914e-62
-1.95279e-59
-5.10257e-61
-7.40261e-63
-7.93163e-65
8.51207e-70
9.0973e-63
9.18106e-60
0
5.09834e-54
1.0199e-51
4.32307e-49
1.60239e-47
1
0.747127
0.190125
0.00174802
1
1
0.459408
0.00338775
1
1
0.456337
0.00216332
1
1
0.599121
0.00740598
1
1
0.882667
0.0107663
0.935473
0.999991
0.997877
0.619312
0.158797
0.719106
0.995182
0.987564
0.000116227
0.0571204
0.38056
0.800599
0.000106697
0.00010632
0.000100445
0.0846684
0.00010632
0.000102081
9.85564e-05
6.46351e-05
0.00010632
0.000106511
0.000313987
0.000312084
0.000321435
0.000315031
0.000293392
0.000106819
0.000240359
0.000222197
3.02085e-05
4.10272e-09
2.33082e-05
4.9437e-06
4.10272e-09
4.0282e-09
2.5365e-11
1.49921e-10
3.92272e-09
4.32275e-09
2.20363e-11
2.60489e-11
4.06374e-09
5.08791e-09
1.34459e-10
1.31509e-09
3.57915e-09
4.60457e-09
8.5699e-11
2.7314e-10
6.11107e-10
7.65619e-10
1.05083e-10
1.92057e-10
1.6575e-10
2.85291e-10
7.47906e-11
1.64452e-10
1.64466e-10
1.23821e-09
2.52123e-11
1.13979e-10
1.87169e-10
5.9297e-10
7.93405e-12
5.95343e-11
1.61403e-10
1.76219e-10
3.85086e-12
2.60665e-11
8.04597e-11
1.76266e-10
1.78991e-12
1.14339e-11
3.13504e-11
1.59591e-10
7.01871e-13
4.85237e-12
1.91402e-11
1.4686e-10
2.72542e-13
1.99345e-12
1.26678e-11
1.26229e-10
1.09568e-13
9.01026e-13
6.12757e-12
6.27521e-11
4.21325e-14
4.18279e-13
3.3698e-12
2.47013e-11
1.47677e-14
1.78926e-13
1.91487e-12
1.24743e-11
4.43409e-15
6.69517e-14
1.01924e-12
8.96774e-12
1.08398e-15
2.33572e-14
7.34163e-13
1.08479e-11
2.17028e-16
9.1224e-15
3.77982e-13
2.40671e-12
3.00201e-17
2.04781e-15
8.45657e-14
1.38813e-12
3.36295e-18
2.6137e-16
4.76911e-14
1.05624e-12
3.76551e-19
3.72912e-17
2.70559e-14
7.29428e-13
2.88521e-20
2.17574e-18
5.86195e-15
2.11829e-13
1.50541e-21
9.53389e-20
1.28021e-15
4.17992e-14
4.97398e-23
1.85713e-21
1.89339e-16
5.3571e-15
5.47573e-25
1.48751e-22
1.73745e-17
4.49715e-16
1.33309e-26
3.76519e-24
8.32435e-19
2.3096e-17
1.14407e-30
1.5711e-25
2.03763e-20
4.29987e-19
0
0
-8.88943e-39
-6.75953e-35
0.000116851
1.23523e-05
1.9477e-07
1.39004e-09
3.98099e-13
-7.92223e-13
1.36974e-14
4.64171e-13
5.1018e-13
2.46968e-12
4.30836e-11
4.50252e-09
2.64548e-07
7.70037e-06
7.62141e-05
8.26811e-05
0.00169481
0.0277953
0.297967
0.000112945
8.38272e-06
1.72771e-06
4.88356e-07
5.31256e-05
0.000339793
1.01427e-06
8.74375e-07
3.37418e-06
6.31758e-12
8.20597e-12
3.61575e-11
3.02595e-08
4.39015e-07
2.14178e-05
3.5092e-05
0.000150973
0.00140036
0.718942
4.03266e-05
3.17567e-06
1.11473e-06
9.36946e-07
0.000131327
0.00321327
5.89719e-05
0.000104214
1.48618e-05
-1.76717e-10
1.67779e-06
1.24747e-09
1.8343e-08
3.42552e-08
6.4527e-06
1.16442e-05
1.51453e-05
0.000183862
0.76469
6.77459e-06
1.58295e-06
7.78458e-07
7.71588e-07
4.39937e-05
2.96495e-06
0.0728362
0.000114142
0.000704724
0.000114763
2.86678e-06
1.06991e-07
1.33723e-07
4.78586e-07
6.9223e-07
1.68421e-06
1.42023e-05
0.000364704
0.764276
1.30902e-06
7.78458e-07
7.71588e-07
7.78458e-07
7.78458e-07
1.8684e-06
0.209737
0.000130308
0.000143697
0.106737
0.000117747
1.65387e-05
0.00105348
2.18639e-05
1.67747e-06
4.55322e-06
0.000370481
0.0081488
0.833298
0.0755028
0.0855746
0.238494
0.22302
0.109959
0.0184578
0.266806
0.482969
0.836866
0.796864
0.186045
0.0712214
1.13209e-05
3.52707e-06
4.55324e-06
0.0505131
0.123344
0.486429
0.917132
0.848943
0.79455
0.859521
0.879068
0.831495
0.740995
0.797122
0.923308
0.936734
0.936914
0.903401
0.866137
0.796745
0.416175
0.26176
0.547948
0.796566
0.924676
0.924756
0.914519
0.919586
0.921889
0.923179
0.926562
0.932015
0.935611
0.936734
0.936899
0.936734
0.936905
0.936431
0.934985
0.93037
0.910426
0.920233
0.924676
0.924756
0.924757
0.253117
0.40928
0.531779
0.595184
0.586944
0.570731
0.545474
0.505975
0.486892
0.493523
0.522119
0.592512
0.752762
0.923357
0.923758
0.924596
0.924737
0.924757
0.924757
2.66641e-05
0.000806322
0.00893729
0.0177931
0.0178363
0.0161844
0.0125491
0.00785581
0.00487344
0.00494402
0.0074893
0.0187483
0.0620854
0.154331
0.312387
0.701387
0.924596
0.924737
0.902747
2.30207e-05
8.89526e-07
3.28728e-06
4.95404e-06
6.66409e-06
7.35897e-06
6.38878e-06
3.93851e-06
1.70988e-06
2.88876e-07
8.91512e-08
-1.92493e-07
1.03226e-05
0.000260093
0.00230801
0.185047
0.77476
0.922869
0.800658
6.04059e-06
1.16086e-08
3.86229e-08
5.95305e-08
7.87151e-08
1.2054e-07
1.09852e-07
8.93065e-08
1.45717e-07
1.07719e-07
1.08478e-07
1.13677e-07
1.08263e-07
1.01308e-05
0.000260739
0.0486255
0.7412
0.915689
0.800313
1.52955e-08
3.85751e-09
3.67426e-09
3.77006e-09
7.39053e-09
5.93382e-08
6.71877e-08
6.25923e-08
1.67027e-07
1.06921e-07
1.0864e-07
1.08009e-07
2.1726e-06
5.93986e-05
0.000722515
0.163851
0.839471
0.914513
0.824983
3.89523e-09
3.81198e-09
3.51786e-09
3.53803e-09
8.15223e-09
6.22973e-08
6.42434e-08
5.84587e-08
5.84587e-08
5.91396e-08
9.72575e-08
2.26864e-06
5.83623e-05
0.000673934
0.0763031
0.629367
0.914513
0.914517
0.914513
4.25302e-09
3.81047e-09
3.51786e-09
3.51786e-09
3.53803e-09
5.32287e-07
1.8033e-06
7.82621e-07
5.91396e-08
1.01816e-07
4.93604e-07
1.07198e-05
0.000165258
0.00172249
0.341112
0.880999
0.914517
0.914513
0.857493
5.0877e-09
4.35061e-09
3.51786e-09
3.53226e-09
3.54143e-09
5.38447e-07
2.46343e-06
2.46414e-06
6.33349e-07
9.30893e-07
1.10691e-06
5.2812e-06
7.51829e-05
0.000906018
0.242031
0.802868
0.914401
0.73741
0.332029
4.23415e-09
4.34311e-09
9.88465e-09
8.13585e-09
3.53479e-09
3.53527e-09
7.05317e-07
2.46078e-06
6.36157e-07
1.13183e-06
2.16551e-06
3.38849e-06
2.41685e-05
0.000368795
0.15113
0.703797
0.786283
0.183464
0.1593
4.61345e-09
2.02876e-08
4.67838e-08
3.93097e-08
4.93405e-09
3.53478e-09
7.96468e-08
4.61686e-07
3.59589e-07
8.63481e-07
1.06502e-05
9.81062e-06
1.93264e-05
0.00026403
0.124078
0.659883
0.735785
0.1593
0.158602
1.81008e-08
4.67696e-08
4.67898e-08
4.67696e-08
9.09537e-09
3.53755e-09
5.6182e-07
8.14532e-07
3.60022e-07
5.48673e-07
2.70086e-05
2.41249e-05
2.93834e-05
0.000197432
0.0799454
0.637813
0.744528
0.392699
0.158602
1.34473e-08
2.83088e-08
4.23037e-08
2.57e-08
1.73653e-08
3.5783e-09
3.27952e-07
8.15012e-07
7.60269e-07
1.67344e-07
2.83745e-05
3.07229e-05
3.07572e-05
0.000140567
0.0509175
0.572409
0.744533
0.440954
0.158602
1.71935e-10
1.71637e-10
1.74452e-10
2.26747e-10
2.23337e-08
8.45265e-08
3.14205e-08
2.38645e-07
3.67989e-07
5.81252e-08
1.64493e-05
2.34928e-05
2.08197e-05
0.000113311
0.0618834
0.489878
0.612827
0.161683
0.158614
1.71639e-10
4.919e-10
6.0002e-10
4.41176e-10
5.75323e-10
5.95767e-07
1.53189e-07
6.6834e-08
5.80278e-08
5.70417e-08
1.37758e-06
7.94125e-06
1.13021e-05
6.97846e-05
0.0354541
0.259734
0.413643
0.299855
0.285612
1.76818e-10
1.39545e-09
2.76086e-09
8.59812e-10
5.7184e-10
5.54645e-07
5.6835e-07
7.85825e-08
5.70417e-08
5.69371e-08
5.70417e-08
9.24357e-06
1.31804e-05
0.00121929
0.00639699
0.000554822
0.080688
0.385309
0.384965
1.71243e-10
1.4945e-09
3.30379e-09
1.28338e-09
8.16514e-09
8.49536e-09
5.07535e-06
5.8248e-08
5.69763e-08
5.70417e-08
5.69372e-08
5.45323e-05
4.15675e-05
0.000865105
0.0021608
0.000257603
0.00117301
0.266796
0.385316
1.65296e-10
5.62838e-10
3.09934e-09
1.87266e-09
1.41985e-07
8.86502e-09
7.61005e-06
1.26646e-05
3.68415e-05
1.85175e-05
1.02876e-05
6.51083e-05
4.84947e-05
0.000775236
0.000247454
0.000239132
0.00025232
0.0571745
0.384148
1.66578e-10
1.12755e-10
1.69187e-09
6.47209e-09
1.61985e-07
1.76455e-08
8.57964e-06
5.14689e-05
5.34922e-05
5.44903e-05
6.51083e-05
6.59692e-05
5.83365e-05
0.000655691
0.00022349
0.000226593
0.000239132
0.0483929
0.374073
1.32028e-10
6.6106e-11
7.66514e-10
4.56901e-09
9.593e-08
5.34211e-08
1.07951e-05
4.95134e-05
5.26057e-05
5.34922e-05
2.82151e-05
2.99582e-05
0.000125362
0.000242706
0.000196205
0.000202143
0.000236708
0.0729665
0.371449
5.56406e-11
6.11945e-11
2.94651e-10
3.72271e-10
1.20805e-09
2.22372e-07
8.72283e-06
1.71761e-05
5.25924e-05
5.25136e-05
1.88944e-05
1.69944e-05
7.87832e-05
1.57925e-05
6.0272e-05
0.000687611
0.000311504
0.0833542
0.367338
2.5056e-11
2.88672e-11
2.06278e-10
1.06918e-09
7.1841e-09
1.24402e-07
1.21973e-06
6.72488e-07
2.49494e-05
4.46009e-05
2.67285e-05
1.46405e-05
1.0156e-05
9.90423e-06
8.12171e-05
0.0139212
0.00301661
0.11026
0.363835
1.32032e-11
8.59948e-11
1.13379e-08
4.83204e-08
9.00642e-08
2.30448e-07
5.63548e-07
6.72488e-07
7.01242e-07
7.87708e-06
4.27291e-05
2.84846e-05
6.74712e-06
8.7545e-06
0.0175676
0.0355934
0.0257908
0.0876173
0.357422
1.78756e-11
3.50916e-10
1.50562e-08
4.65522e-06
1.85016e-05
5.3771e-05
7.3052e-06
6.72488e-07
8.3586e-07
1.38788e-06
4.26717e-05
1.62569e-05
2.9643e-06
0.0197185
0.0451792
0.0433231
0.00803897
0.00164656
0.32716
3.68501e-11
1.49009e-09
3.23691e-08
1.29891e-05
0.000190563
0.0002523
0.00017541
6.28292e-06
9.03026e-07
6.87669e-07
2.70225e-05
2.15583e-06
2.1411e-06
0.0347433
0.0467964
0.0221627
0.00164656
0.00158971
0.284199
4.09369e-11
1.88524e-09
4.41373e-08
2.00098e-05
0.000239787
0.00025286
0.000252565
8.86187e-05
6.79187e-07
5.87385e-07
8.78208e-07
2.73759e-07
7.40799e-05
0.0385308
0.0486521
0.0168279
0.00158971
0.00157369
0.282187
1.32095e-12
2.25897e-12
5.19255e-10
3.79503e-08
3.52429e-05
0.000246722
0.00025286
0.000107898
5.27799e-07
4.82351e-07
2.24854e-07
1.93348e-07
0.00211952
0.0401945
0.0518031
0.0133209
0.00156806
0.00161962
0.284259
7.2122e-13
2.23756e-15
-9.20842e-14
-3.68627e-13
4.63723e-09
2.55914e-05
0.000222412
8.70137e-05
4.60382e-07
4.29464e-07
1.79778e-07
1.79778e-07
0.00591107
0.0435123
0.055761
0.0106659
0.00156438
0.00156636
0.284211
7.73131e-14
1.73856e-15
-1.60125e-13
-4.50028e-12
-1.34093e-12
3.25669e-09
1.61027e-07
7.92549e-05
5.30311e-07
5.59832e-07
1.7551e-07
1.76811e-07
0.00724113
0.0458393
0.0603544
0.0126512
0.00156636
0.00156247
0.128169
3.4928e-14
1.37253e-14
1.03471e-15
-1.27471e-13
-1.07384e-13
-1.60436e-13
2.75329e-09
3.75932e-06
4.69731e-05
1.0533e-06
1.75528e-07
1.75519e-07
0.000304717
0.0412248
0.0607145
0.0230801
0.00159842
0.00156636
0.0717471
3.88207e-15
1.2837e-15
3.10254e-17
-1.20749e-14
-2.0663e-14
-1.85225e-14
-7.65388e-13
1.99513e-07
9.39017e-06
7.16209e-06
2.4691e-07
1.28972e-07
2.30623e-07
0.0238311
0.0618918
0.0332183
0.00168569
0.00159842
0.2483
3.0112e-16
6.44621e-17
-7.63618e-17
-1.27081e-15
-7.32459e-15
-8.38787e-15
-1.10411e-14
-6.55075e-15
-2.40332e-15
-1.0222e-15
-2.5363e-14
6.09474e-24
1.36328e-07
0.0282497
0.0631539
0.0497967
0.00250797
0.00173184
0.294783
1.1834e-17
1.44433e-18
-5.47503e-17
-5.96548e-17
-3.42883e-16
-1.63852e-15
-7.42613e-15
-4.40797e-15
-1.62747e-15
-6.53325e-16
-7.85199e-14
6.8439e-05
4.53161e-07
0.039742
0.0636461
0.0633633
0.0133215
0.00362295
0.29519
1.29783e-19
5.18038e-21
-8.41926e-19
-5.09635e-19
-2.28107e-17
-4.61447e-16
-4.07491e-15
-1.82264e-15
-5.72052e-16
-2.47139e-16
-1.21909e-13
0.000164282
6.37609e-06
1.40545e-20
0.0412685
0.0635892
0.0268632
0.0146651
0.29519
-9.13681e-32
-9.78495e-29
-9.10249e-24
-2.09023e-24
-3.71298e-20
-1.0464e-17
-1.13429e-15
-3.20521e-16
-6.47879e-17
-3.88032e-17
-2.43118e-17
-1.18303e-17
-4.35696e-18
-1.42201e-18
-5.6826e-19
0.00821759
0.014852
0.0147438
0.206353
)
;

boundaryField
{
    leftWall
    {
        type            zeroGradient;
    }
    rightWall
    {
        type            zeroGradient;
    }
    lowerWall
    {
        type            zeroGradient;
    }
    atmosphere
    {
        type            inletOutlet;
        inletValue      uniform 0;
        value           nonuniform List<scalar> 
46
(
0
0
0
0
0
0
0
0
0
0
0
0
0
0
0
0
0
0
0
0
0
0
0
0
0
0
0
0
0
0
0
0
0
0
0
0
0
0
0
0
0
0
0.00821759
0.014852
0.0147438
0.206353
)
;
    }
    defaultFaces
    {
        type            empty;
    }
}


// ************************************************************************* //
