/*--------------------------------*- C++ -*----------------------------------*\
| =========                 |                                                 |
| \\      /  F ield         | OpenFOAM: The Open Source CFD Toolbox           |
|  \\    /   O peration     | Version:  2206                                  |
|   \\  /    A nd           | Website:  www.openfoam.com                      |
|    \\/     M anipulation  |                                                 |
\*---------------------------------------------------------------------------*/
FoamFile
{
    version     2.0;
    format      ascii;
    arch        "LSB;label=32;scalar=64";
    class       surfaceScalarField;
    location    "0.45";
    object      alphaPhi0.water;
}
// * * * * * * * * * * * * * * * * * * * * * * * * * * * * * * * * * * * * * //

dimensions      [0 3 -1 0 0 0 0];

oriented        oriented;

internalField   nonuniform List<scalar> 
4432
(
-3.80186e-06
3.80186e-06
-4.21828e-06
4.16417e-07
-7.28408e-07
-3.48987e-06
4.87665e-06
-5.60506e-06
1.11657e-05
-6.28904e-06
1.69454e-05
-5.77971e-06
2.16103e-05
-4.66486e-06
2.50534e-05
-3.44314e-06
2.74229e-05
-2.36947e-06
2.89407e-05
-1.51783e-06
2.98038e-05
-8.63096e-07
3.01316e-05
-3.27774e-07
2.98942e-05
2.37328e-07
2.88814e-05
1.01287e-06
2.67596e-05
2.12178e-06
2.29922e-05
3.7674e-06
1.69388e-05
6.05343e-06
8.5733e-06
8.36548e-06
1.75096e-07
8.3982e-06
-6.30871e-06
7.12905e-06
-1.48255e-05
7.59777e-06
-1.60623e-05
-1.10663e-07
-1.60722e-05
-3.95139e-06
7.75326e-06
-3.92258e-06
3.87599e-07
-3.16191e-07
-7.09626e-06
5.27002e-06
-1.11913e-05
1.15083e-05
-1.25273e-05
1.72112e-05
-1.14826e-05
2.17958e-05
-9.24947e-06
2.51763e-05
-6.82365e-06
2.75204e-05
-4.71353e-06
2.90566e-05
-3.05399e-06
2.99824e-05
-1.78887e-06
3.0443e-05
-7.88422e-07
3.05749e-05
1.05448e-07
3.05324e-05
1.0553e-06
3.0318e-05
2.33626e-06
2.9729e-05
4.35636e-06
2.80124e-05
7.77009e-06
2.34447e-05
1.29331e-05
1.40468e-05
1.77962e-05
8.37552e-07
2.05629e-05
-8.92104e-06
1.64373e-05
-8.98164e-06
-4.42954e-07
-2.50632e-05
-3.52848e-06
1.12817e-05
-3.33149e-06
1.9061e-07
2.94332e-07
-1.07221e-05
5.8419e-06
-1.67388e-05
1.19265e-05
-1.86119e-05
1.74248e-05
-1.6981e-05
2.17936e-05
-1.36182e-05
2.49944e-05
-1.00245e-05
2.72309e-05
-6.94996e-06
2.87408e-05
-4.56389e-06
2.97098e-05
-2.75791e-06
3.02508e-05
-1.32944e-06
3.04111e-05
-5.48398e-08
3.01918e-05
1.27462e-06
2.9631e-05
2.89711e-06
2.88887e-05
5.09866e-06
2.82941e-05
8.36468e-06
2.75236e-05
1.37035e-05
2.41814e-05
2.11384e-05
1.60798e-05
2.86645e-05
5.72885e-06
2.81829e-05
1.41647e-06
4.40502e-06
-2.36554e-05
-2.91443e-06
1.41962e-05
-2.45715e-06
-2.66677e-07
1.10535e-06
-1.42846e-05
6.51132e-06
-2.21448e-05
1.23776e-05
-2.44781e-05
1.76171e-05
-2.22205e-05
2.17109e-05
-1.7712e-05
2.46871e-05
-1.30007e-05
2.68015e-05
-9.06438e-06
2.83015e-05
-6.06389e-06
2.93516e-05
-3.80801e-06
3.00357e-05
-2.01357e-06
3.03763e-05
-3.95415e-07
3.03476e-05
1.30325e-06
2.9921e-05
3.32377e-06
2.91175e-05
5.90221e-06
2.81823e-05
9.29982e-06
2.78363e-05
1.40495e-05
2.79833e-05
2.09915e-05
2.65172e-05
3.01305e-05
2.14768e-05
3.38506e-05
1.14281e-05
1.46491e-05
-1.22288e-05
-2.12763e-06
1.63238e-05
-1.26924e-06
-1.12506e-06
2.09632e-06
-1.76502e-05
7.17253e-06
-2.7221e-05
1.27574e-05
-3.00631e-05
1.77205e-05
-2.71836e-05
2.15261e-05
-2.15176e-05
2.42733e-05
-1.57479e-05
2.6279e-05
-1.10701e-05
2.77977e-05
-7.58253e-06
2.8966e-05
-4.97636e-06
2.98317e-05
-2.87922e-06
3.03855e-05
-9.49242e-07
3.05906e-05
1.09816e-06
3.04226e-05
3.49173e-06
2.98916e-05
6.43329e-06
2.90646e-05
1.01268e-05
2.83663e-05
1.47479e-05
2.87999e-05
2.05578e-05
3.0234e-05
2.86964e-05
2.87983e-05
3.52864e-05
1.81352e-05
2.53123e-05
5.88766e-06
-1.11062e-06
1.74344e-05
3.05493e-07
-2.54118e-06
3.39564e-06
-2.07403e-05
8.02164e-06
-3.1847e-05
1.31924e-05
-3.52338e-05
1.77805e-05
-3.17717e-05
2.12525e-05
-2.49896e-05
2.37777e-05
-1.82732e-05
2.57162e-05
-1.30086e-05
2.73073e-05
-9.17361e-06
2.86444e-05
-6.31347e-06
2.97308e-05
-3.96559e-06
3.05218e-05
-1.74025e-06
3.09568e-05
6.63188e-07
3.10153e-05
3.43316e-06
3.07349e-05
6.71374e-06
3.0199e-05
1.06627e-05
2.95335e-05
1.54133e-05
2.93221e-05
2.07692e-05
3.05998e-05
2.74188e-05
3.06514e-05
3.52348e-05
2.13807e-05
3.4583e-05
2.72528e-05
1.04117e-07
1.73303e-05
2.34459e-06
-4.78165e-06
5.60911e-06
-2.40048e-05
9.79534e-06
-3.60333e-05
1.42359e-05
-3.96744e-05
1.81178e-05
-3.56536e-05
2.10706e-05
-2.79423e-05
2.3313e-05
-2.05157e-05
2.51879e-05
-1.48834e-05
2.68785e-05
-1.08643e-05
2.84166e-05
-7.8515e-06
2.97544e-05
-5.3034e-06
3.08095e-05
-2.79532e-06
3.15005e-05
-2.78814e-08
3.17723e-05
3.16137e-06
3.16821e-05
6.80399e-06
3.13338e-05
1.1011e-05
3.08617e-05
1.58854e-05
3.0365e-05
2.1266e-05
3.06503e-05
2.71334e-05
3.06441e-05
3.52411e-05
2.37725e-05
4.14546e-05
5.10097e-05
2.04946e-06
1.52808e-05
5.4359e-06
-8.16809e-06
9.52606e-06
-2.80947e-05
1.32573e-05
-3.97641e-05
1.64264e-05
-4.28429e-05
1.91045e-05
-3.83313e-05
2.13149e-05
-3.01525e-05
2.32183e-05
-2.24189e-05
2.50088e-05
-1.66739e-05
2.67597e-05
-1.26152e-05
2.8436e-05
-9.5277e-06
2.99549e-05
-6.82233e-06
3.12116e-05
-4.05202e-06
3.21135e-05
-9.29768e-07
3.2607e-05
2.66784e-06
3.27429e-05
6.6681e-06
3.25612e-05
1.11927e-05
3.22274e-05
1.62193e-05
3.18113e-05
2.1682e-05
3.15281e-05
2.74167e-05
3.09187e-05
3.58505e-05
2.54436e-05
4.69297e-05
7.64377e-05
2.60444e-21
-9.30751e-21
6.88189e-22
-1.10619e-21
1.18203e-23
6.14621e-23
-3.55036e-25
3.56387e-24
-1.21237e-22
1.30875e-24
-3.8474e-22
5.26444e-23
-2.03825e-20
2.90986e-21
-9.61983e-19
1.18422e-19
-3.105e-17
3.74432e-18
-5.60337e-16
1.114e-16
-9.19391e-15
5.24745e-15
-1.86073e-13
1.24305e-13
-2.37784e-12
1.61283e-12
-2.23979e-11
1.50976e-11
-1.39328e-10
8.46866e-11
-5.73148e-10
1.15183e-10
-2.68163e-09
8.05032e-10
-7.50679e-10
-5.19434e-09
-5.45276e-09
-1.95975e-20
-5.50975e-20
-2.02688e-21
9.19582e-21
-1.09658e-22
2.00496e-21
-6.26999e-23
1.62008e-22
-2.11722e-22
1.16878e-22
-1.05758e-20
4.02888e-21
-4.47147e-19
1.45945e-19
-1.44856e-17
5.13487e-18
-2.86369e-16
1.49718e-16
-6.74757e-15
3.86522e-15
-1.48852e-13
1.02026e-13
-2.36627e-12
1.75841e-12
-2.74353e-11
2.16294e-11
-2.39564e-10
1.93874e-10
-1.45776e-09
1.13556e-09
-7.38782e-09
1.5252e-09
-2.12556e-08
5.45091e-09
-4.94873e-09
-2.94155e-08
-1.52842e-08
-1.68259e-19
1.21606e-19
-5.85162e-20
2.30143e-19
-7.1846e-21
7.9546e-20
-1.09086e-21
1.08585e-20
-1.6747e-21
2.27337e-21
-3.06698e-20
1.3937e-20
-1.16839e-18
4.75292e-19
-3.71453e-17
1.87858e-17
-8.71969e-16
5.9772e-16
-2.21023e-14
1.75945e-14
-5.11606e-13
4.45908e-13
-8.67923e-12
7.85324e-12
-1.14594e-10
1.05354e-10
-1.16471e-09
1.03628e-09
-8.12228e-09
6.72054e-09
-3.70107e-08
1.06564e-08
-9.60072e-08
2.12673e-08
-2.62435e-08
-1.43762e-07
-6.07541e-08
-4.25976e-19
2.82238e-19
-3.01475e-19
8.37781e-19
-8.25336e-20
5.91152e-19
-3.82872e-20
2.6193e-19
-3.252e-20
1.04248e-19
-1.19316e-19
6.26866e-20
-2.03147e-18
9.94949e-19
-5.64885e-17
4.1805e-17
-1.65475e-15
1.44878e-15
-4.63737e-14
4.7706e-14
-1.11569e-12
1.22236e-12
-2.04553e-11
2.27039e-11
-3.00847e-10
3.26236e-10
-3.36394e-09
3.5603e-09
-2.66799e-08
2.61313e-08
-1.01802e-07
4.35952e-08
-2.88832e-07
8.18929e-08
-9.65232e-08
-5.27147e-07
-2.58074e-07
-2.12733e-19
7.74223e-19
-2.021e-19
1.33387e-18
-2.20128e-19
3.82066e-18
-3.58489e-19
2.11675e-18
-2.24724e-19
1.10557e-18
-3.00301e-19
5.13143e-19
-2.49587e-18
1.64404e-18
-4.97771e-17
5.62302e-17
-1.60736e-15
2.21857e-15
-5.07182e-14
7.79644e-14
-1.37434e-12
2.14407e-12
-2.89292e-11
4.26276e-11
-4.7541e-10
6.72494e-10
-5.83758e-09
7.82318e-09
-5.39251e-08
6.64761e-08
-3.01209e-07
1.00421e-07
-6.38371e-07
-1.9523e-07
-2.91444e-07
-1.44111e-06
-9.37836e-07
-1.1625e-19
1.26403e-18
1.60613e-19
1.47908e-18
-1.94434e-19
2.3583e-17
-6.60395e-19
8.76523e-18
-9.14191e-19
3.35886e-18
-1.1489e-18
2.18408e-18
-3.53249e-18
3.85255e-18
-3.78142e-17
6.5051e-17
-8.78857e-16
2.58808e-15
-3.13386e-14
9.18135e-14
-8.24566e-13
2.50582e-12
-1.86529e-11
5.24394e-11
-3.61263e-10
8.88886e-10
-4.46707e-09
1.05961e-08
-3.77773e-08
8.80983e-08
-8.32489e-07
1.37714e-07
-1.07618e-06
-3.65121e-06
-6.4034e-07
-4.3231e-06
-2.77496e-06
6.89773e-17
3.15378e-12
7.60107e-13
-1.39407e-11
9.69204e-16
7.58944e-13
-6.98684e-18
9.9353e-16
-4.8487e-18
3.42225e-17
-8.36155e-18
1.06133e-17
-1.42076e-17
1.90521e-17
-4.41503e-17
7.70249e-17
9.91606e-16
1.11313e-15
4.18521e-14
3.83802e-14
1.07029e-12
1.19319e-12
1.99887e-11
2.82864e-11
2.6498e-10
5.81428e-10
2.49411e-09
7.74881e-09
1.33626e-08
7.23892e-08
9.83338e-08
1.37953e-07
-1.83781e-06
-5.43862e-06
-1.3945e-06
-1.64616e-05
-7.33885e-06
2.07695e-09
-9.85372e-09
2.78989e-11
1.26621e-10
5.52512e-13
2.80551e-11
-2.25226e-18
5.53513e-13
-5.84159e-18
4.19769e-17
-6.31658e-18
1.53956e-17
-9.14315e-18
2.60282e-17
-1.44114e-17
4.73434e-17
9.54707e-18
7.26887e-16
1.85565e-14
9.00304e-15
6.40833e-13
3.0901e-13
1.83139e-11
6.35133e-12
3.15067e-10
1.77198e-10
1.365e-09
3.86159e-09
1.68809e-08
2.85711e-08
1.3996e-07
2.24632e-08
-9.66435e-07
-2.14238e-06
-1.86704e-06
-2.50712e-05
-1.44991e-05
1.18617e-05
3.41919e-06
2.66609e-05
-2.29673e-05
3.86674e-05
-4.0091e-05
4.3134e-05
-4.42102e-05
4.37157e-05
-4.34022e-05
4.45442e-05
-3.91426e-05
4.69723e-05
-3.25702e-05
5.0612e-05
-2.60532e-05
5.48195e-05
-2.0879e-05
5.91149e-05
-1.69095e-05
6.31284e-05
-1.35407e-05
6.65982e-05
-1.0292e-05
6.93725e-05
-6.82633e-06
7.12681e-05
-2.8253e-06
7.22122e-05
1.72361e-06
7.28134e-05
6.06698e-06
7.28642e-05
1.11418e-05
7.26047e-05
1.64788e-05
7.2604e-05
2.16827e-05
7.30318e-05
2.69888e-05
7.50521e-05
3.38302e-05
8.22524e-05
3.97294e-05
5.89979e-05
9.97152e-05
2.26864e-05
-1.92672e-05
4.74486e-05
-4.36103e-05
5.20776e-05
-2.92481e-05
4.7583e-05
-1.71455e-05
4.22979e-05
-1.68944e-05
3.94464e-05
-1.8453e-05
4.06365e-05
-1.82687e-05
4.55664e-05
-1.76007e-05
5.24868e-05
-1.69915e-05
5.98466e-05
-1.6192e-05
6.65729e-05
-1.47356e-05
7.18951e-05
-1.23826e-05
7.5327e-05
-8.97995e-06
7.72139e-05
-4.5652e-06
7.85965e-05
3.16231e-07
7.85488e-05
6.11462e-06
7.82256e-05
1.14651e-05
7.77493e-05
1.69551e-05
7.84908e-05
2.09411e-05
8.08556e-05
2.46241e-05
8.57557e-05
2.89301e-05
9.50523e-05
3.04328e-05
4.08322e-05
0.000113218
2.22813e-05
-1.52123e-05
1.18004e-05
-1.11934e-06
5.50374e-06
-1.65886e-08
4.39243e-06
-1.09655e-11
4.54774e-06
-2.14029e-19
3.95992e-06
-3.09587e-18
4.03837e-06
-8.02232e-17
5.55924e-06
-3.8075e-15
8.67178e-06
-1.55439e-13
1.33657e-05
-5.46442e-12
2e-05
-1.74658e-10
2.93491e-05
-5.13923e-09
4.21981e-05
-1.36457e-07
5.86783e-05
-2.9302e-06
7.29003e-05
-1.40756e-06
8.2327e-05
2.81132e-06
8.22577e-05
1.15344e-05
7.89899e-05
2.02228e-05
7.94225e-05
2.05086e-05
8.2063e-05
2.19836e-05
8.63328e-05
2.46603e-05
9.15348e-05
2.52307e-05
2.83542e-05
0.000104013
1.13594e-06
-8.3462e-22
1.65995e-08
-1.77803e-20
1.09655e-11
-1.97596e-19
-1.76405e-20
-1.35699e-18
-5.37466e-20
-2.54039e-19
-1.14442e-18
-2.04332e-18
-7.3246e-17
-8.15515e-18
-3.75127e-15
-1.2628e-16
-1.55358e-13
-3.60995e-15
-5.5229e-12
-8.57776e-14
-1.79416e-10
-7.55311e-13
-5.31847e-09
-1.86746e-13
-1.41753e-07
-2.2471e-11
3.45366e-08
-9.95846e-10
3.21514e-06
-8.80055e-09
1.20962e-05
-7.64164e-08
3.1231e-05
-9.52206e-08
6.07686e-05
8.80853e-07
8.42315e-05
7.31004e-06
8.94e-05
1.68151e-05
9.06319e-05
2.34284e-05
9.19704e-05
2.38922e-05
2.43719e-05
9.59527e-05
-2.70518e-22
-5.01321e-22
-4.78537e-21
-1.31549e-20
-4.60965e-20
-1.56584e-19
-2.96545e-19
-1.11511e-18
-3.05349e-19
-2.23691e-18
-1.22545e-18
-1.09336e-17
-4.48097e-18
-4.64216e-17
-1.95146e-16
-1.95981e-16
-2.09826e-15
-8.51309e-15
-2.36746e-14
-7.14607e-14
-2.1686e-14
-7.8067e-13
-1.23993e-13
-8.15949e-14
-1.64952e-11
-6.11002e-12
-3.2249e-10
-6.90153e-10
-4.08204e-09
-5.06049e-09
-7.31784e-08
-7.62712e-09
-1.52834e-07
-1.53526e-08
1.15433e-06
-3.54639e-08
1.08726e-05
-6.31323e-09
3.39894e-05
1.53614e-07
7.07611e-05
1.43758e-06
9.19829e-05
1.17692e-05
2.04403e-05
9.59146e-05
-4.03256e-22
-5.98182e-23
-1.35489e-20
-5.46593e-21
-2.15554e-19
-2.82393e-19
-1.59768e-18
-3.99988e-18
-7.96521e-18
-2.4496e-17
-3.11191e-17
-8.28927e-17
-5.47454e-17
-1.75109e-16
8.88929e-16
-2.99156e-16
-3.29904e-14
-1.07106e-14
-7.96654e-13
-1.38748e-12
1.37931e-13
-3.77953e-12
1.59465e-13
-1.13365e-13
-3.39298e-13
-5.6674e-12
-1.00724e-09
-1.19213e-09
-2.15778e-09
-1.20903e-08
3.13446e-09
-1.68131e-08
1.17092e-08
-3.49499e-08
1.15437e-08
-4.08043e-08
1.24866e-08
-1.29498e-08
1.45837e-07
1.45707e-08
2.7689e-06
1.52566e-08
2.15015e-05
-3.26814e-08
1.75565e-07
5.92948e-05
-2.61142e-23
-1.12941e-23
-5.73932e-21
-2.2892e-21
-3.91364e-19
-2.59786e-19
-5.79919e-18
-6.07688e-18
-3.11032e-17
-4.75926e-17
-8.61641e-17
-1.48387e-16
-1.04819e-16
-2.43639e-16
-1.76116e-16
-3.15786e-16
-6.547e-16
-1.06349e-14
-2.00847e-12
-2.0564e-12
7.26779e-13
-4.76031e-12
8.59434e-13
-3.54215e-13
1.145e-12
-5.87935e-12
-5.50335e-10
-1.66906e-09
1.43177e-09
-1.22199e-08
6.67402e-09
-1.35264e-08
7.5863e-09
-2.8107e-08
1.70117e-08
-4.16599e-08
1.8944e-08
-1.84724e-08
2.9462e-08
-9.82363e-11
4.60701e-08
-1.29947e-09
2.10265e-08
-5.89423e-10
-1.05764e-09
1.66948e-07
-1.86762e-23
7.38203e-24
-1.99369e-21
-7.50298e-22
-2.94633e-19
-1.54311e-19
-6.46173e-18
-5.85007e-18
-3.79277e-17
-4.88969e-17
-8.90793e-17
-1.62197e-16
-9.89485e-17
-2.6103e-16
-1.87391e-16
-2.58239e-16
-1.55653e-14
-2.37762e-15
-1.95451e-12
-1.57285e-12
3.22315e-13
-5.27281e-12
1.16719e-12
-2.3056e-12
4.49462e-11
-4.67715e-11
6.92556e-10
-1.26985e-09
6.81178e-10
-6.14536e-11
3.00669e-09
-6.79981e-13
7.34863e-09
-4.66624e-12
1.31163e-08
-2.41513e-08
2.15295e-08
-1.67162e-08
3.8035e-08
-6.56142e-09
4.60429e-08
1.11805e-10
4.25254e-08
5.60804e-09
-5.08808e-09
4.2217e-08
-8.08453e-23
4.69661e-23
-6.42049e-22
-1.92835e-22
-1.48364e-19
-6.30328e-20
-4.59322e-18
-4.07847e-18
-3.03545e-17
-4.31951e-17
-7.56099e-17
-1.54913e-16
-7.0717e-17
-2.683e-16
6.00471e-18
-3.38082e-16
1.86953e-14
-2.10602e-14
-7.16043e-13
-2.75269e-13
1.28504e-13
-3.39228e-12
6.11531e-13
-5.74509e-12
1.71933e-11
-5.69691e-11
6.21064e-11
-4.40869e-12
6.82362e-13
-3.12512e-14
8.46351e-15
-3.70116e-15
1.71917e-13
-4.76762e-12
2.369e-09
-2.22699e-09
8.57042e-09
-1.8719e-08
2.14783e-08
-1.64311e-08
3.55479e-08
-1.09259e-08
3.54355e-08
9.48016e-09
1.06681e-08
1.2589e-08
-1.01558e-23
5.58922e-23
-1.48689e-22
-5.45887e-23
-5.23781e-20
-1.93416e-20
-2.14119e-18
-2.01203e-18
-1.5451e-17
-2.40362e-17
-4.22355e-17
-9.93626e-17
-3.95874e-17
-2.56486e-16
-3.66779e-16
-2.93561e-16
-5.25385e-16
-2.10688e-14
4.06952e-15
-1.35023e-13
4.25942e-14
-1.79791e-13
4.52622e-13
-1.97124e-12
4.27833e-12
-2.50077e-13
2.98929e-14
-1.61955e-13
5.46105e-16
-3.74506e-15
1.09462e-14
-1.37732e-14
8.66315e-12
-1.03053e-11
1.00528e-10
-3.79652e-09
7.5641e-10
-2.42827e-08
1.50732e-09
-2.24592e-08
3.79343e-09
-6.98336e-09
7.34566e-09
4.43202e-10
9.32545e-09
8.63848e-09
-5.84253e-25
5.8644e-23
-4.17424e-22
3.62251e-22
-1.50975e-20
-4.29539e-21
-6.83082e-19
-7.09482e-19
-4.61108e-18
-9.21056e-18
-2.57712e-17
-4.34432e-17
-1.81463e-17
-1.94245e-16
-3.65741e-17
-2.08269e-16
2.13371e-15
-8.00703e-15
1.10408e-14
-1.33578e-13
1.17722e-14
-1.69646e-13
5.46507e-14
-1.6495e-13
5.36528e-15
-1.56035e-13
5.3058e-15
-1.19722e-13
3.10742e-16
-6.74885e-16
-9.9566e-15
-6.56561e-15
-7.04143e-12
-3.23825e-12
-1.95618e-09
-4.73131e-10
-6.50032e-09
-1.50877e-08
-4.70847e-09
-1.97181e-08
-3.99003e-09
-1.50797e-08
-6.30861e-10
-4.23418e-09
6.2774e-09
2.38792e-09
2.57988e-24
5.68591e-23
-1.73769e-22
4.9769e-22
-3.26084e-21
-7.0415e-22
-1.61648e-19
-1.81282e-19
-1.03854e-18
-2.60385e-18
-1.15551e-17
-1.47533e-17
-8.93169e-18
-1.24679e-16
1.60872e-18
-2.38612e-16
3.07043e-16
-1.13212e-15
1.47726e-14
-9.03224e-14
1.40913e-14
-1.53168e-13
9.44234e-15
-2.06426e-13
7.33507e-15
-2.04465e-13
2.43126e-15
-1.08206e-13
3.9972e-17
-6.18429e-17
-6.41632e-15
-9.69811e-17
-3.2143e-12
-2.82893e-14
1.84244e-10
-2.29341e-12
-2.76293e-09
-9.184e-11
-1.32908e-08
-2.07169e-09
-1.84664e-08
-6.44058e-09
-1.50538e-08
-4.18313e-09
1.90005e-09
-8.45786e-09
2.73248e-25
5.06743e-23
-1.93873e-23
4.54591e-22
-5.38648e-22
-1.10345e-22
-2.90578e-20
-3.58247e-20
-1.97757e-19
-5.71162e-19
-3.44093e-18
-4.3333e-18
-7.5865e-18
-7.41512e-17
-4.19169e-18
-2.54772e-16
1.68718e-16
-3.12265e-16
6.57998e-15
-1.52984e-14
8.58514e-15
-8.57545e-14
4.86204e-15
-1.85347e-13
-8.44153e-16
-1.75751e-13
-3.7807e-18
-2.36736e-14
-1.01942e-17
-6.01458e-17
-4.98762e-17
-6.20156e-17
-2.81697e-14
-1.74017e-16
-2.32015e-12
-1.42432e-15
-9.41076e-11
-5.23419e-14
-2.16416e-09
-1.6452e-12
-6.48628e-09
-3.88624e-11
-9.54519e-09
-7.12251e-10
-3.33966e-10
-8.70366e-09
-1.38037e-25
4.05165e-23
-8.87905e-25
3.60828e-22
-2.43659e-22
1.32426e-22
-4.12005e-21
-5.38703e-21
-3.42591e-20
-9.93838e-20
-1.03539e-18
-1.11484e-18
-1.54425e-17
-3.29175e-17
-1.30642e-17
-2.16991e-16
-1.89151e-17
-2.88934e-16
-2.25259e-16
-2.7661e-16
-4.42787e-15
-4.97507e-15
-1.00224e-14
-1.23257e-13
-3.4445e-15
-3.79827e-14
-7.81785e-17
-9.27681e-16
-1.21652e-17
-1.30876e-16
-1.82533e-17
-6.4603e-17
-3.62515e-17
-1.6459e-16
-1.18722e-15
-2.79766e-16
-5.30006e-14
-5.21307e-16
-1.69703e-12
-1.08232e-15
-4.05499e-11
-9.16365e-15
-7.52605e-10
-1.92198e-13
-4.42842e-12
-1.28043e-09
-8.71177e-26
2.86313e-23
3.48887e-24
2.51338e-22
-1.56361e-22
2.27994e-22
-4.73866e-22
-5.76613e-22
-5.58561e-21
-1.3508e-20
-2.69623e-19
-2.54355e-19
-8.66074e-18
-9.328e-18
-2.0615e-17
-9.23816e-17
-1.22333e-17
-2.18466e-16
-4.28441e-17
-1.66289e-16
-5.53426e-15
-4.76816e-17
-2.48374e-15
-3.88525e-17
-1.35463e-16
-3.32526e-17
-3.76358e-17
-4.27329e-17
-1.68849e-17
-1.06841e-16
-3.90877e-17
-3.24565e-17
-1.14766e-16
-1.85932e-17
-1.5266e-16
-1.10103e-16
-2.08343e-16
-3.34123e-16
-4.6444e-16
-6.94015e-16
-8.55885e-15
-9.23807e-16
-1.99322e-13
-1.11592e-15
-1.20079e-15
-4.62605e-12
1.08094e-25
1.76055e-23
5.74763e-24
1.51227e-22
-1.51323e-23
1.7243e-22
-4.11722e-23
-1.88823e-23
-8.52757e-22
-1.38639e-21
-5.78537e-20
-5.05951e-20
-2.28014e-18
-1.97626e-18
-1.59072e-17
-2.30063e-17
-1.77141e-17
-7.49035e-17
-4.09748e-18
-9.92798e-17
-3.00023e-18
-6.09753e-17
-3.75743e-18
-2.95365e-17
-6.49117e-18
-2.18989e-17
-2.07148e-17
-2.72358e-17
-9.53153e-18
-2.5034e-17
-3.95908e-18
-7.09645e-18
-9.37778e-18
-1.8749e-18
-1.07209e-16
-3.9627e-18
-4.89331e-16
-1.65803e-17
-7.77977e-16
-9.34888e-17
-8.83592e-16
-4.15387e-16
-9.48053e-16
-6.47403e-16
-6.92332e-16
-1.04491e-15
3.11742e-25
9.24483e-24
4.45815e-24
7.73696e-23
-2.04934e-25
1.02433e-22
-1.45107e-24
1.27007e-23
-1.18135e-22
-9.71624e-23
-1.16582e-20
-8.63553e-21
-4.95372e-19
-3.38415e-19
-4.00743e-18
-3.8187e-18
-8.76201e-18
-1.4549e-17
-1.00394e-17
-2.85644e-17
-5.98796e-18
-4.06231e-17
-4.58133e-18
-2.64454e-17
-5.38027e-18
-1.23519e-17
-5.37604e-18
-2.81523e-18
-2.25612e-18
-8.35124e-19
-4.50488e-19
-3.09898e-19
-6.30543e-19
-1.84266e-19
-2.03106e-18
-5.7738e-19
-1.27872e-17
-3.21451e-18
-1.33038e-16
-1.66234e-17
-7.28775e-16
-7.99386e-17
-1.19305e-15
-2.83197e-16
-5.30272e-16
-1.33367e-15
2.80409e-25
4.04842e-24
2.81507e-24
3.2883e-23
6.43249e-25
4.9519e-23
-3.91091e-24
1.13292e-23
-1.50609e-23
-4.23749e-24
-2.19952e-21
-1.22388e-21
-7.97812e-20
-4.76695e-20
-6.47578e-19
-5.03504e-19
-1.98944e-18
-2.21776e-18
-4.7828e-18
-5.69902e-18
-5.39238e-18
-8.25957e-18
-3.0229e-18
-7.26871e-18
-7.4526e-19
-3.22731e-18
-2.21592e-19
-6.4471e-19
-8.24383e-20
-6.76938e-20
-4.71337e-20
-1.08818e-20
-7.16646e-20
-1.40198e-20
-3.90197e-19
-7.76403e-20
-2.69589e-18
-6.4575e-19
-1.83132e-17
-4.29693e-18
-1.1667e-16
-2.16657e-17
-4.47092e-16
-9.22282e-17
-3.92855e-16
-1.05921e-15
1.62532e-25
1.43287e-24
1.46139e-24
1.12598e-23
6.05176e-25
1.89267e-23
-2.17711e-25
4.84748e-24
-1.81033e-24
-1.76318e-25
-3.44693e-22
-1.40101e-22
-1.0415e-20
-5.71917e-21
-9.07324e-20
-6.2023e-20
-4.32531e-19
-3.05841e-19
-9.37149e-19
-8.46933e-19
-1.07116e-18
-1.06052e-18
-7.56012e-19
-9.52414e-19
-2.0928e-19
-5.12678e-19
-2.41266e-20
-1.2456e-19
-2.34402e-21
-9.34764e-21
-2.78268e-21
-3.04528e-22
-6.27093e-21
-8.33708e-22
-5.91333e-20
-1.1798e-20
-6.20813e-19
-1.43821e-19
-4.6766e-18
-1.25201e-18
-2.49997e-17
-7.58127e-18
-1.62949e-16
-3.65355e-17
-2.27708e-16
-1.45649e-15
6.74191e-26
3.92763e-25
5.99465e-25
2.97766e-24
2.73937e-25
5.45632e-24
-1.42292e-26
1.40209e-24
-1.90941e-25
-2.31692e-26
-4.18384e-23
-1.23524e-23
-1.27638e-21
-5.9522e-22
-1.26748e-20
-7.67004e-21
-7.4895e-20
-3.68212e-20
-1.2838e-19
-1.03864e-19
-1.45624e-19
-1.28616e-19
-1.16259e-19
-1.09913e-19
-4.07394e-20
-6.24573e-20
-3.88936e-21
-1.76812e-20
-5.77608e-23
-1.53932e-21
-7.2785e-23
4.35291e-23
-5.17735e-22
-4.4122e-23
-1.00473e-20
-2.08509e-21
-1.46458e-19
-3.42932e-20
-1.42518e-18
-3.79254e-19
-8.24633e-18
-2.95949e-18
-5.36989e-17
-1.46457e-17
-5.95445e-17
-7.29635e-16
1.99906e-26
7.82763e-26
1.83935e-25
5.71458e-25
8.33102e-26
1.1081e-24
-1.26776e-27
2.78172e-25
-4.39922e-26
1.95553e-26
-3.80217e-24
-7.69746e-25
-1.63422e-22
-4.89702e-23
-1.60787e-21
-8.25478e-22
-9.59228e-21
-4.11671e-21
-1.63924e-20
-1.02213e-20
-1.80617e-20
-1.24485e-20
-1.42569e-20
-1.05466e-20
-5.6099e-21
-5.40215e-21
-6.34642e-22
-1.07803e-21
1.96282e-23
3.67744e-23
-9.16016e-24
1.07724e-22
-8.28646e-23
2.95824e-23
-1.86925e-21
-2.98102e-22
-3.44701e-20
-8.30622e-21
-4.76034e-19
-1.10516e-19
-3.75148e-18
-1.10346e-18
-1.40544e-17
-6.65756e-18
-2.50247e-17
-8.94213e-17
4.08027e-27
1.01742e-26
3.93361e-26
7.16424e-26
1.72587e-26
1.43674e-25
1.64576e-27
3.50009e-26
-4.73185e-26
4.71885e-27
-2.45051e-25
-2.55815e-26
-1.66029e-23
-2.627e-24
-1.98857e-22
-6.19388e-23
-9.8042e-22
-3.43148e-22
-1.62683e-21
-7.28529e-22
-1.78583e-21
-9.22199e-22
-1.3151e-21
-7.87115e-22
-3.6549e-22
-3.82038e-22
1.4865e-23
2.729e-24
4.94472e-23
8.44468e-23
1.54148e-23
1.18989e-22
-1.23066e-22
6.09856e-23
-3.34635e-22
-3.81494e-23
-7.96072e-21
-2.00514e-21
-1.36246e-19
-3.12363e-20
-1.50105e-18
-3.8031e-19
-6.13791e-18
-2.74178e-18
-1.14111e-17
-1.60747e-17
5.25244e-28
6.63817e-28
5.31515e-27
4.57026e-27
2.24324e-27
9.73853e-27
4.09835e-28
2.3007e-27
-1.66966e-27
3.65985e-28
-9.28991e-27
-1.05837e-28
-1.09259e-24
-6.64919e-26
-1.81113e-23
-2.51289e-24
-6.87959e-23
-1.54271e-23
-1.21645e-22
-3.27535e-23
-1.33519e-22
-4.36799e-23
-9.71394e-23
-3.51946e-23
9.92629e-25
7.53796e-25
3.46867e-23
3.06849e-23
5.51013e-23
7.62501e-23
3.1784e-23
6.9742e-23
-1.77573e-23
3.52404e-23
-6.08651e-23
-5.05876e-24
-1.84242e-21
-4.66356e-22
-3.77473e-20
-8.30689e-21
-5.02525e-19
-1.20711e-19
-2.29242e-18
-1.00093e-18
-4.58569e-18
-7.55018e-18
3.36296e-29
1.12128e-36
3.69596e-28
1.32531e-34
1.50443e-28
3.74555e-33
3.24107e-29
6.88101e-32
-1.1805e-29
7.84258e-31
-1.28356e-28
-2.50693e-30
-3.81852e-26
-3.35808e-28
-7.91589e-25
-3.67159e-26
-2.98464e-24
-2.88407e-25
-5.71222e-24
-7.67556e-25
-6.20043e-24
-7.36037e-25
2.45945e-25
5.25218e-25
1.12894e-23
5.78982e-24
3.15401e-23
2.13566e-23
3.23466e-23
3.11851e-23
1.82728e-23
2.47805e-23
-2.80448e-24
1.19869e-23
-1.14071e-23
-9.56247e-25
-4.07949e-22
-1.03137e-22
-9.90718e-21
-2.01619e-21
-1.55871e-19
-3.41958e-20
-7.48744e-19
-3.20248e-19
-1.56706e-18
-3.11427e-18
9.61556e-37
5.45893e-37
1.43251e-34
5.99785e-35
4.51253e-33
1.75482e-33
6.97764e-32
3.42177e-32
-4.26606e-32
5.0951e-31
-8.25943e-30
5.70984e-30
-4.02785e-28
4.32894e-29
-1.20002e-26
1.78824e-28
-8.58732e-26
8.64785e-28
-9.72298e-26
7.28869e-27
1.52354e-25
6.96195e-26
1.89846e-24
5.19795e-25
7.87597e-24
2.577e-24
1.28904e-23
6.27493e-24
1.14437e-23
7.7828e-24
6.16057e-24
5.65353e-24
-5.52098e-25
2.56201e-24
-2.25658e-24
-1.88982e-25
-8.51216e-23
-2.16241e-23
-2.37008e-21
-4.39124e-22
-4.38232e-20
-8.48933e-21
-2.18242e-19
-8.87247e-20
-4.66247e-19
-8.98353e-19
4.1633e-37
2.08776e-37
6.58245e-35
2.10864e-35
2.20466e-33
6.32124e-34
4.47276e-32
1.24879e-32
6.39131e-31
1.89396e-31
5.94568e-30
2.25962e-30
2.93411e-29
2.09599e-29
1.66251e-28
1.46124e-28
1.61949e-27
8.4413e-28
1.77023e-26
4.923e-27
1.50115e-25
2.91894e-26
8.40234e-25
1.46364e-25
2.29969e-24
5.09289e-25
3.19237e-24
1.04311e-24
2.58494e-24
1.16321e-24
1.30095e-24
7.8036e-25
-1.1341e-25
3.16409e-25
-4.52167e-25
-7.12787e-26
-1.658e-23
-4.13429e-24
-5.08375e-22
-8.50606e-23
-1.08516e-20
-1.8491e-21
-5.55065e-20
-2.15106e-20
-1.20148e-19
-2.31755e-19
1.306e-37
5.89795e-38
2.24791e-35
5.40953e-36
7.69754e-34
1.6539e-34
1.60524e-32
3.26609e-33
2.45524e-31
4.92497e-32
2.80461e-30
5.91157e-31
2.34168e-29
5.69298e-30
1.58909e-28
4.37584e-29
1.07348e-27
2.72086e-28
7.29396e-27
1.43318e-27
4.15856e-26
6.67562e-27
1.63506e-25
2.51641e-26
3.76603e-25
6.76331e-26
4.70085e-25
1.1873e-25
3.51632e-25
1.13347e-25
1.58285e-25
6.73636e-26
-3.53849e-26
2.10818e-26
-9.72773e-26
-2.52235e-26
-2.93529e-24
-6.76797e-25
-9.73189e-23
-1.46331e-23
-2.44694e-21
-3.59587e-22
-1.24235e-20
-4.67618e-21
-2.60811e-20
-3.07625e-20
2.58857e-38
1.10408e-38
5.34135e-36
9.09381e-37
1.87188e-34
2.8087e-35
3.93467e-33
5.43322e-34
6.10193e-32
7.88688e-33
7.27407e-31
9.11259e-32
6.7239e-30
8.57824e-31
4.9279e-29
6.56539e-30
3.01528e-28
4.03262e-29
1.6145e-27
1.9651e-28
6.93552e-27
7.56457e-28
2.111e-26
2.29143e-27
4.17535e-26
5.28279e-27
4.47084e-26
8.16387e-27
2.96737e-26
6.11263e-27
1.03367e-26
2.89795e-27
-9.69579e-27
2.78681e-28
-1.89459e-26
-3.94922e-27
-4.53535e-25
-9.68841e-26
-1.68098e-23
-2.26099e-24
-5.52515e-22
-6.61356e-23
-2.55598e-21
-9.17881e-22
-4.17999e-21
1.49824e-20
2.25854e-39
1.05885e-39
7.85104e-37
7.70902e-38
2.80842e-35
2.37791e-36
5.79053e-34
4.36451e-35
8.73195e-33
5.72242e-34
1.024e-31
5.71628e-33
9.47098e-31
4.53348e-32
6.88415e-30
2.93579e-31
3.9113e-29
1.58178e-30
1.73652e-28
7.16122e-30
6.0151e-28
2.71889e-29
1.57566e-27
8.42297e-29
2.75231e-27
1.95121e-28
2.31977e-27
2.68361e-28
1.23331e-27
1.6306e-28
1.32624e-28
5.52628e-29
-1.34241e-27
-1.58725e-29
-2.52723e-27
-5.12084e-28
-6.0625e-26
-1.19678e-26
-2.83679e-24
-3.26756e-25
-2.08499e-22
-1.28117e-23
-4.91978e-22
-1.65084e-22
-9.10142e-22
1.34137e-20
-1.81558e-42
7.03433e-42
5.43233e-38
4.9554e-40
1.97648e-36
1.61593e-38
3.7694e-35
3.18065e-37
4.96914e-34
4.56112e-36
4.94475e-33
5.08564e-35
3.8871e-32
4.5881e-34
2.48772e-31
3.43118e-33
1.31776e-30
2.15489e-32
5.78619e-30
1.13821e-31
2.05712e-29
4.96473e-31
5.43428e-29
1.67406e-30
8.48212e-29
3.60389e-30
5.82791e-29
2.39686e-30
2.22627e-29
9.16892e-31
-7.1911e-30
-3.4156e-31
-1.27328e-29
-2.05891e-30
-2.80743e-28
-4.75171e-29
-6.86529e-27
-1.24305e-27
-5.25944e-25
-4.08009e-26
-3.93083e-23
-2.02114e-24
-9.13711e-23
-2.78507e-23
-2.5498e-22
-7.37641e-22
-7.41354e-44
1.53136e-44
2.83287e-40
1.21751e-42
1.23041e-38
4.728e-41
2.6356e-37
1.11081e-39
3.92389e-36
1.90606e-38
4.47065e-35
2.54722e-37
4.07649e-34
2.75616e-36
3.04971e-33
2.4694e-35
1.88834e-32
1.84435e-34
9.54881e-32
1.13415e-33
3.70289e-31
5.45766e-33
9.11366e-31
1.77837e-32
6.90027e-31
2.59915e-32
2.99565e-31
1.31674e-32
-1.26424e-31
4.08666e-33
-1.47244e-31
-7.53033e-34
-9.16608e-31
-1.18073e-31
-2.32704e-29
-3.57405e-30
-6.59463e-28
-1.10008e-28
-6.92599e-26
-4.35517e-27
-5.9766e-24
-2.63417e-25
-1.58052e-23
-4.37242e-24
-7.30363e-23
-2.04398e-22
-3.08887e-46
2.77011e-47
5.91366e-43
2.44376e-45
3.59841e-41
1.10854e-43
9.51501e-40
3.05659e-42
1.71862e-38
6.18455e-41
2.3641e-37
9.77743e-40
2.59034e-36
1.2496e-38
2.30758e-35
1.31095e-37
1.66406e-34
1.12151e-36
9.28121e-34
7.47281e-36
3.47667e-33
3.38018e-35
5.80854e-33
7.05822e-35
3.35119e-33
3.28438e-35
1.18182e-33
9.05928e-36
-1.95768e-34
-3.17906e-37
-8.71786e-34
-1.2209e-34
-4.91044e-32
-6.68712e-33
-1.54559e-30
-2.35687e-31
-5.23339e-29
-9.07848e-30
-6.66563e-27
-4.04124e-28
-7.55049e-25
-2.67269e-26
-2.45436e-24
-5.80299e-25
-1.74003e-23
-6.30028e-23
-8.34364e-49
1.69195e-50
9.03423e-46
1.87713e-48
8.31102e-44
1.10272e-46
2.66856e-42
3.85927e-45
5.77186e-41
9.7791e-44
9.43674e-40
1.8965e-42
1.21334e-38
2.901e-41
1.23777e-37
3.49288e-40
9.65354e-37
3.12771e-39
5.04585e-36
1.74779e-38
1.20685e-35
3.03729e-38
6.39467e-36
1.17882e-38
2.0011e-36
2.73931e-39
-7.95153e-38
-4.73033e-41
-4.0954e-37
-1.55797e-38
-5.06812e-35
-6.70925e-36
-2.29897e-33
-3.58718e-34
-9.1649e-32
-1.60217e-32
-3.71334e-30
-7.38585e-31
-4.57754e-28
-3.35558e-29
-7.23902e-26
-2.20175e-27
-2.92934e-25
-4.87564e-26
-6.05589e-25
-1.82604e-23
-6.67236e-52
3.97856e-54
5.2827e-49
5.61568e-52
9.06221e-47
4.20757e-50
3.72407e-45
1.80752e-48
1.00238e-43
5.46302e-47
1.97294e-42
1.2075e-45
2.91522e-41
1.92376e-44
3.10861e-40
1.96849e-43
2.02652e-39
8.9311e-43
4.04953e-39
2.81048e-43
1.78926e-39
9.71946e-44
4.70124e-40
8.10024e-43
-9.1387e-42
2.31582e-43
-5.32312e-41
-3.21081e-42
-1.72692e-38
-5.94837e-40
-1.97967e-36
-3.44303e-37
-1.06615e-34
-1.90133e-35
-5.55136e-33
-9.48409e-34
-2.46635e-31
-4.78352e-32
-2.91473e-29
-2.08503e-30
-6.76094e-27
-1.06633e-28
-1.63923e-26
-3.20208e-27
-3.30165e-26
-6.72887e-25
-1.87022e-55
1.93524e-59
1.10779e-52
3.08664e-57
3.85139e-50
2.25517e-55
1.9146e-48
7.14608e-54
5.94658e-47
8.42956e-53
1.22387e-45
1.44592e-53
1.53829e-44
1.56189e-52
8.29715e-44
2.89529e-50
3.03523e-44
3.70897e-48
1.20128e-44
3.07385e-46
1.13288e-43
1.43188e-44
3.63552e-44
2.50603e-43
-2.93925e-43
8.30948e-44
-3.40824e-42
-9.64884e-44
-7.31125e-40
-1.90252e-41
-8.47918e-38
-1.22527e-38
-4.86524e-36
-8.54912e-37
-2.89275e-34
-4.33838e-35
-1.38241e-32
-2.221e-33
-9.40915e-31
-9.984e-32
-3.45391e-28
-4.43314e-30
-7.24032e-28
-1.72761e-28
-2.78151e-27
-2.38087e-26
-1.01234e-60
-3.04665e-76
3.0052e-58
5.50057e-69
1.44389e-55
3.90652e-64
2.81241e-54
4.3388e-61
6.86192e-55
2.66112e-58
9.57959e-54
1.02635e-55
2.18053e-51
2.71023e-53
3.31767e-49
4.99297e-51
3.19113e-47
6.30977e-49
1.69678e-45
5.14619e-47
3.34895e-44
2.34128e-45
1.24116e-44
3.9557e-44
-8.30719e-45
1.19323e-44
-1.0257e-43
-2.22542e-45
-1.91237e-41
-4.63457e-43
-3.08824e-39
-3.10099e-40
-1.95488e-37
-2.61284e-38
-1.1338e-35
-1.60792e-36
-5.78356e-34
-7.36775e-35
-2.86547e-32
-4.07653e-33
-2.37015e-30
-2.07824e-31
-2.65704e-29
-9.04589e-30
-1.72673e-28
1.08103e-26
1.66322e-77
-5.58983e-77
2.45458e-67
2.40232e-70
8.37962e-63
2.80762e-65
8.51151e-60
2.56824e-62
4.69977e-57
1.24619e-59
1.60454e-54
3.77815e-57
3.63003e-52
7.99283e-55
5.4472e-50
1.22086e-52
5.1554e-48
1.31759e-50
2.67715e-46
9.08821e-49
5.10069e-45
3.00804e-47
1.71872e-45
6.89119e-48
-1.82934e-46
5.93585e-49
-2.37422e-45