/*--------------------------------*- C++ -*----------------------------------*\
| =========                 |                                                 |
| \\      /  F ield         | OpenFOAM: The Open Source CFD Toolbox           |
|  \\    /   O peration     | Version:  2206                                  |
|   \\  /    A nd           | Website:  www.openfoam.com                      |
|    \\/     M anipulation  |                                                 |
\*---------------------------------------------------------------------------*/
FoamFile
{
    version     2.0;
    format      ascii;
    arch        "LSB;label=32;scalar=64";
    class       volScalarField;
    location    "0.45";
    object      p;
}
// * * * * * * * * * * * * * * * * * * * * * * * * * * * * * * * * * * * * * //

dimensions      [1 -1 -2 0 0 0 0];

internalField   nonuniform List<scalar> 
2268
(
746.843
746.031
751.673
760.972
768.265
771.753
772.194
772.467
774.884
780.387
789.109
800.994
815.996
833.954
854.784
878.233
903.276
927.516
944.68
959.963
938.359
930.954
975.578
687.241
685.831
691.329
700.674
707.983
711.528
712.056
712.464
715.035
720.674
729.486
741.352
756.109
773.673
793.978
816.853
841.649
866.815
887.456
904.156
885.532
859.279
909.268
626.75
624.598
629.489
639.037
646.295
649.966
650.672
651.348
654.225
660.129
669.13
681.107
695.95
713.513
733.611
755.81
779.322
802.952
823.727
839.638
829.855
798.663
849.661
565.761
562.534
566.642
575.779
583.266
587.18
588.153
589.211
592.525
598.808
608.08
620.229
635.131
652.686
672.622
694.455
717.25
739.567
759.003
773.579
771.965
757.962
801.29
504.78
499.888
502.855
511.162
519.033
523.335
524.636
526.166
530.025
536.773
546.374
558.732
573.753
591.322
611.176
632.806
655.28
677.075
695.978
710.492
716.323
717.723
759.91
444.401
437.315
438.216
445.227
453.636
458.546
460.21
462.253
466.746
474.039
484.023
496.635
511.805
529.434
549.291
570.868
593.26
614.989
634.136
649.459
660.378
670.904
711.416
385.285
374.956
372.95
378.225
387.213
392.954
395.068
397.63
402.752
410.589
420.969
433.869
449.251
467.027
486.976
508.628
531.136
553.069
572.779
588.858
601.473
614.177
644.538
328.419
314.662
308.528
311.294
320.299
326.725
329.459
332.753
338.545
346.826
357.461
370.521
386.002
404.042
424.214
446.17
469.001
491.296
511.629
528.256
540.2
550.514
557.2
265.247
265.254
265.265
265.282
265.306
265.337
265.379
265.435
265.514
265.625
265.781
266.002
266.296
266.666
267.357
269.057
272
274.79
275.639
265.186
265.194
265.205
265.222
265.244
265.275
265.315
265.369
265.445
265.552
265.701
265.91
266.183
266.478
267.008
268.633
271.705
274.75
275.646
265.122
265.134
265.145
265.159
265.18
265.209
265.246
265.293
265.361
265.455
265.581
265.754
265.97
266.136
266.39
267.831
271.046
274.619
275.721
265.055
265.073
265.083
265.094
265.112
265.139
265.172
265.21
265.266
265.34
265.431
265.546
265.673
265.646
265.434
266.455
269.639
274.141
275.885
264.986
265.012
265.019
265.027
265.042
265.068
265.097
265.12
265.161
265.212
265.262
265.302
265.309
265.034
264.14
264.157
266.812
273.066
276.405
264.907
264.952
264.955
264.957
264.967
264.995
265.022
265.024
265.05
265.077
265.082
265.039
264.9
264.347
262.539
259.817
261.462
271.193
278.012
264.835
264.897
264.893
264.883
264.888
264.92
264.951
264.921
264.936
264.941
264.9
264.775
264.488
263.693
261.289
257.023
254.646
267.475
281.657
264.718
264.841
264.829
264.804
264.8
264.841
264.883
264.808
264.822
264.809
264.728
264.533
264.13
263.201
260.774
257.107
253.424
261.938
287.787
242.849
225.77
210.981
207.066
214.941
221.713
225.092
229.819
237.107
246.382
257.571
270.967
286.429
303.855
324.144
347.084
371.124
394.763
416.703
434.446
443.181
438.938
372.573
135.912
113.884
85.3137
69.8437
75.661
81.4743
83.3523
87.5743
94.9754
104.384
115.712
130.144
149.064
171.137
192.579
214.655
239.069
264.415
289.248
309.798
321.228
321.245
307.448
55.9408
28.241
9.59681
5.90801
8.48643
10.1192
10.4478
11.5531
13.7404
16.6545
20.1632
24.6718
30.9301
40.8418
52.7475
73.7219
100.833
133.216
168.024
193.889
212.837
227.823
241.267
1.63643
0.0821877
-0.0190079
0.104895
0.100994
0.115161
0.126266
0.134899
0.149008
0.175944
0.22371
0.299334
0.398829
0.412517
1.45864
5.59819
13.2709
30.2856
58.9085
85.5059
113.155
139.02
158.761
-0.0625097
-0.123469
-0.105343
-0.0505176
-0.0385693
-0.0292408
-0.0198163
-0.00968343
0.00440784
0.0256152
0.0554158
0.0933441
0.123777
0.094095
0.0314663
0.0725822
0.144954
0.776459
4.89235
13.2894
31.2893
56.118
79.878
-0.193075
-0.193298
-0.19887
-0.188921
-0.18293
-0.175451
-0.16707
-0.158075
-0.146458
-0.131469
-0.114243
-0.0992687
-0.102436
-0.152058
-0.1732
-0.0933078
-0.000973459
0.053095
0.13426
0.214301
0.589113
6.83281
23.295
-0.341836
-0.346549
-0.344584
-0.336154
-0.329652
-0.32322
-0.316384
-0.308996
-0.300328
-0.290265
-0.280127
-0.273351
-0.277221
-0.301359
-0.314583
-0.276293
-0.233716
-0.235329
-0.224964
-0.218615
-0.219936
-0.00401898
0.101068
-0.489223
-0.488186
-0.484933
-0.481286
-0.476598
-0.471561
-0.466251
-0.460796
-0.454976
-0.448805
-0.44321
-0.441023
-0.447529
-0.465921
-0.483906
-0.475396
-0.465785
-0.469787
-0.476518
-0.479741
-0.540049
-0.61529
-0.613205
-0.63531
-0.633241
-0.630516
-0.627845
-0.624353
-0.620514
-0.616535
-0.612719
-0.609136
-0.605811
-0.60313
-0.602953
-0.607817
-0.62049
-0.632528
-0.639938
-0.650219
-0.678671
-0.727221
-0.807767
-0.916402
-0.981886
-0.917169
-0.782127
-0.780049
-0.777689
-0.775516
-0.772861
-0.769943
-0.766984
-0.764321
-0.762162
-0.760627
-0.759828
-0.760784
-0.764897
-0.773159
-0.78279
-0.793704
-0.810663
-0.843386
-0.908433
-1.01954
-1.15526
-1.21926
-1.12785
-0.929099
-0.927414
-0.925612
-0.923895
-0.921843
-0.919624
-0.917407
-0.915477
-0.91406
-0.91336
-0.913538
-0.915129
-0.918762
-0.925101
-0.933836
-0.945985
-0.963899
-0.99657
-1.05938
-1.1548
-1.26503
-1.32509
-1.23907
-1.0766
-1.0754
-1.07407
-1.07271
-1.07111
-1.06941
-1.06773
-1.06629
-1.06524
-1.06487
-1.06534
-1.06703
-1.0703
-1.07577
-1.08378
-1.09517
-1.11217
-1.14166
-1.19234
-1.25861
-1.32424
-1.34521
-1.28678
-1.22465
-1.22386
-1.22287
-1.22181
-1.22055
-1.21922
-1.21791
-1.21678
-1.21597
-1.2157
-1.21617
-1.21769
-1.22055
-1.22523
-1.2322
-1.24218
-1.25651
-1.27891
-1.31332
-1.35848
-1.39788
-1.40639
-1.37077
-1.37326
-1.37267
-1.37195
-1.37111
-1.37009
-1.36901
-1.36794
-1.36699
-1.36631
-1.36604
-1.36638
-1.36756
-1.36983
-1.37357
-1.37913
-1.38701
-1.398
-1.4135
-1.43425
-1.45823
-1.47851
-1.48446
-1.46643
-1.52224
-1.52185
-1.52128
-1.52058
-1.51971
-1.51878
-1.51783
-1.51697
-1.51629
-1.51593
-1.51603
-1.51676
-1.51833
-1.52096
-1.52489
-1.53036
-1.53775
-1.54737
-1.55884
-1.57015
-1.57704
-1.57472
-1.56161
-1.67158
-1.6713
-1.67082
-1.6702
-1.66942
-1.66855
-1.66764
-1.66677
-1.66601
-1.66546
-1.66522
-1.66543
-1.66621
-1.6677
-1.67002
-1.67325
-1.67745
-1.68247
-1.68763
-1.69149
-1.69166
-1.68578
-1.67323
-1.82122
-1.821
-1.82056
-1.81997
-1.81922
-1.81835
-1.81741
-1.81646
-1.81554
-1.81473
-1.8141
-1.81373
-1.8137
-1.81407
-1.81486
-1.81608
-1.81763
-1.8192
-1.82016
-1.8194
-1.81548
-1.80735
-1.79484
-1.97112
-1.97092
-1.9705
-1.96991
-1.96914
-1.96823
-1.96721
-1.96612
-1.96499
-1.96388
-1.96282
-1.96186
-1.96103
-1.96034
-1.95976
-1.95923
-1.95856
-1.95743
-1.9553
-1.95143
-1.94495
-1.93527
-1.92223
-2.12128
-2.12108
-2.12064
-2.12003
-2.11921
-2.11823
-2.11709
-2.11583
-2.11447
-2.11303
-2.11153
-2.10999
-2.10841
-2.10675
-2.10497
-2.10295
-2.10051
-2.09733
-2.09299
-2.08697
-2.07871
-2.06784
-2.05422
-2.27169
-2.27147
-2.27101
-2.27036
-2.26947
-2.26839
-2.26712
-2.26567
-2.26406
-2.26229
-2.26036
-2.25828
-2.256
-2.25349
-2.25067
-2.24741
-2.24353
-2.23876
-2.23277
-2.22519
-2.21564
-2.20385
-2.18968
-2.42236
-2.42212
-2.42162
-2.42092
-2.41996
-2.41878
-2.41736
-2.41572
-2.41385
-2.41176
-2.40943
-2.40684
-2.40395
-2.40069
-2.39698
-2.3927
-2.38767
-2.38167
-2.37443
-2.3657
-2.35517
-2.34266
-2.32804
-2.57329
-2.57304
-2.5725
-2.57174
-2.5707
-2.56941
-2.56785
-2.56603
-2.56392
-2.56153
-2.55883
-2.55579
-2.55236
-2.54846
-2.54402
-2.5389
-2.53294
-2.52598
-2.5178
-2.50818
-2.49691
-2.48384
-2.46886
-2.72451
-2.72423
-2.72366
-2.72285
-2.72173
-2.72034
-2.71865
-2.71665
-2.71433
-2.71167
-2.70865
-2.70521
-2.70131
-2.69689
-2.69183
-2.68603
-2.67936
-2.67165
-2.66274
-2.65245
-2.64061
-2.62709
-2.61181
-2.87602
-2.87572
-2.87511
-2.87426
-2.87307
-2.87159
-2.86978
-2.86763
-2.86512
-2.86223
-2.85893
-2.85516
-2.85088
-2.84602
-2.84048
-2.83415
-2.82691
-2.81863
-2.80916
-2.79836
-2.78608
-2.77221
-2.75668
-3.02785
-3.02753
-3.02689
-3.02599
-3.02475
-3.02319
-3.02128
-3.019
-3.01634
-3.01326
-3.00973
-3.0057
-3.00112
-2.99591
-2.98999
-2.98325
-2.9756
-2.96689
-2.95701
-2.94583
-2.93322
-2.91907
-2.90331
-3.18001
-3.17967
-3.179
-3.17807
-3.17678
-3.17516
-3.17317
-3.17079
-3.16801
-3.16478
-3.16108
-3.15685
-3.15204
-3.14658
-3.14039
-3.13336
-3.1254
-3.1164
-3.10625
-3.09481
-3.08196
-3.06761
-3.05165
-3.3325
-3.33215
-3.33147
-3.33051
-3.32918
-3.32751
-3.32546
-3.32302
-3.32015
-3.31683
-3.31301
-3.30865
-3.30369
-3.29806
-3.29168
-3.28447
-3.27633
-3.26715
-3.25683
-3.24525
-3.23228
-3.2178
-3.2017
-3.48535
-3.48499
-3.48429
-3.48331
-3.48196
-3.48027
-3.47819
-3.47571
-3.4728
-3.46942
-3.46553
-3.4611
-3.45605
-3.45034
-3.44387
-3.43658
-3.42836
-3.41913
-3.40876
-3.39715
-3.38416
-3.36967
-3.35352
-3.63853
-3.63817
-3.63746
-3.63648
-3.63513
-3.63342
-3.63134
-3.62886
-3.62594
-3.62255
-3.61866
-3.61421
-3.60916
-3.60343
-3.59697
-3.58969
-3.5815
-3.57231
-3.56202
-3.5505
-3.53763
-3.52325
-3.50721
-3.79204
-3.7917
-3.79099
-3.79001
-3.78867
-3.78698
-3.78492
-3.78246
-3.77958
-3.77623
-3.77238
-3.76798
-3.76298
-3.75733
-3.75095
-3.74377
-3.73572
-3.72669
-3.71658
-3.70529
-3.69268
-3.6786
-3.66285
-3.94587
-3.94555
-3.94484
-3.9439
-3.94258
-3.94094
-3.93892
-3.93652
-3.9337
-3.93044
-3.92668
-3.92239
-3.91752
-3.91201
-3.90579
-3.89882
-3.89099
-3.88223
-3.87244
-3.86151
-3.84931
-3.83571
-3.8205
-4.10002
-4.09971
-4.09903
-4.09813
-4.09685
-4.09527
-4.09333
-4.09102
-4.08831
-4.08517
-4.08156
-4.07744
-4.07275
-4.06745
-4.06149
-4.05479
-4.0473
-4.03891
-4.02954
-4.0191
-4.00748
-3.99454
-3.98012
-4.25446
-4.2542
-4.25354
-4.2527
-4.25148
-4.24999
-4.24814
-4.24596
-4.24339
-4.24042
-4.23699
-4.23309
-4.22865
-4.22363
-4.21799
-4.21167
-4.20459
-4.19668
-4.18785
-4.17803
-4.16712
-4.15501
-4.14159
-4.40918
-4.40896
-4.40834
-4.40758
-4.40643
-4.40505
-4.40333
-4.40129
-4.3989
-4.39613
-4.39294
-4.3893
-4.38516
-4.38049
-4.37525
-4.36937
-4.36279
-4.35545
-4.34728
-4.33819
-4.32812
-4.31697
-4.30468
-4.56413
-4.56397
-4.56338
-4.56272
-4.56166
-4.5604
-4.55882
-4.55696
-4.55477
-4.55223
-4.54932
-4.54599
-4.54221
-4.53794
-4.53315
-4.52778
-4.52179
-4.51511
-4.50767
-4.49941
-4.49026
-4.48015
-4.46907
-4.71932
-4.7192
-4.71867
-4.71811
-4.71715
-4.71603
-4.71462
-4.71295
-4.71099
-4.70872
-4.70611
-4.70313
-4.69974
-4.69593
-4.69165
-4.68685
-4.6815
-4.67554
-4.66891
-4.66155
-4.65339
-4.64437
-4.63447
-4.8748
-4.87477
-4.87427
-4.87383
-4.87298
-4.87202
-4.87079
-4.86934
-4.86762
-4.86564
-4.86336
-4.86076
-4.85781
-4.85448
-4.85076
-4.84659
-4.84194
-4.83676
-4.831
-4.82459
-4.81748
-4.8096
-4.80089
-5.03058
-5.03066
-5.03015
-5.02985
-5.02913
-5.02833
-5.02729
-5.02607
-5.02462
-5.02295
-5.02103
-5.01884
-5.01635
-5.01356
-5.01043
-5.00694
-5.00304
-4.99869
-4.99386
-4.98847
-4.98247
-4.97579
-4.96832
-5.18642
-5.18657
-5.1861
-5.1859
-5.18532
-5.18469
-5.18386
-5.18288
-5.18172
-5.18038
-5.17884
-5.17708
-5.17509
-5.17286
-5.17036
-5.16758
-5.16447
-5.16101
-5.15716
-5.15286
-5.14806
-5.14268
-5.1366
-5.34212
-5.34232
-5.34191
-5.3418
-5.34136
-5.3409
-5.34028
-5.33955
-5.33868
-5.33768
-5.33653
-5.33522
-5.33375
-5.3321
-5.33025
-5.3282
-5.32591
-5.32338
-5.32056
-5.3174
-5.31388
-5.30991
-5.3054
-5.49772
-5.49796
-5.49765
-5.49761
-5.49733
-5.49702
-5.49662
-5.49613
-5.49556
-5.49489
-5.49413
-5.49327
-5.4923
-5.49122
-5.49003
-5.4887
-5.48723
-5.48561
-5.48381
-5.48181
-5.47959
-5.4771
-5.47428
-5.65414
-5.65448
-5.6543
-5.65434
-5.6542
-5.65407
-5.65387
-5.65364
-5.65337
-5.65306
-5.6527
-5.6523
-5.65186
-5.65138
-5.65085
-5.65027
-5.64965
-5.64898
-5.64826
-5.64748
-5.64663
-5.64572
-5.64473
168.203
296.677
269.301
265.246
255.214
268.919
264.014
263.861
238.567
248.887
262.692
263.073
177.654
215.465
255.438
262.453
113.303
167.586
237.177
263.46
52.1875
100.041
174.11
235.137
7.01599
36.5661
90.0634
161.707
-0.818483
2.51521
22.8794
54.5993
-0.998729
-0.732015
-0.693251
3.24155
-1.01036
-0.964518
-0.973832
-1.25813
-1.06204
-1.00657
-1.0188
-1.21862
-1.17298
-1.13374
-1.12833
-1.17591
-1.30638
-1.2667
-1.2397
-1.24006
-1.4268
-1.39201
-1.35831
-1.32503
-1.53688
-1.50568
-1.47037
-1.42886
-1.65206
-1.62209
-1.58643
-1.54263
-1.77489
-1.74529
-1.70959
-1.6648
-1.90235
-1.87282
-1.83706
-1.79333
-2.03412
-2.00465
-1.96936
-1.92733
-2.16933
-2.14006
-2.10559
-2.06565
-2.30748
-2.27851
-2.24504
-2.2073
-2.44814
-2.41948
-2.387
-2.35133
-2.59094
-2.56253
-2.53084
-2.49681
-2.73564
-2.70731
-2.67606
-2.64303
-2.88206
-2.8536
-2.82231
-2.78942
-3.03016
-3.00136
-2.96952
-2.93573
-3.17999
-3.15071
-3.11791
-3.08221
-3.33167
-3.30194
-3.26801
-3.22977
-3.48541
-3.45548
-3.42067
-3.38001
-3.64141
-3.61179
-3.57693
-3.53526
-3.79981
-3.77125
-3.73774
-3.69819
-3.96057
-3.9339
-3.9034
-3.87027
-4.12351
-4.09935
-4.07302
-4.04945
-4.28829
-4.26692
-4.24512
-4.22942
-4.45441
-4.43561
-4.41768
-4.40318
-4.62133
-4.60415
-4.58663
-4.57027
-4.78923
-4.77288
-4.75481
-4.73317
-4.95811
-4.94332
-4.92556
-4.90229
-5.12814
-5.11561
-5.09973
-5.07798
-5.29904
-5.28948
-5.27699
-5.25958
-5.4703
-5.46433
-5.45652
-5.44564
-5.64335
-5.64144
-5.63909
-5.63605
264.618
264.743
264.747
264.665
264.634
264.714
264.828
264.615
264.645
264.617
264.479
264.2
263.686
262.746
260.662
258.16
256.427
255.299
287.619
263.898
264.166
264.281
264.271
264.224
264.433
264.51
264.299
264.375
264.428
264.25
263.951
263.465
262.723
261.528
260.103
259.77
258.661
271.329
263.411
263.641
263.743
263.709
263.388
262.798
264.022
263.852
264.245
264.35
264.116
263.8
263.407
263.027
262.694
262.368
262.27
262.194
270.134
263.198
263.29
263.326
263.209
262.725
261.832
262.288
263.046
262.929
264.145
264.079
263.742
263.418
263.304
263.492
263.957
263.798
263.824
267.148
263.399
263.1
263.073
263.026
262.851
262.399
262.739
262.446
260.69
260.383
263.989
263.139
262.838
263.232
263.579
264.009
263.836
265.236
271.126
258.919
257.011
248.13
249.693
256.231
259.879
212.611
231.926
210.267
239.004
253.773
260.913
261.892
262.621
263.099
261.473
256.244
265.051
383.145
204.511
206.889
189.17
199.314
207.732
213.022
151.82
146.188
151.773
172.566
192.299
206.699
214.391
238.052
246.785
225.657
265.26
424.002
651.043
89.324
105.173
105.782
109.55
112.849
113.657
98.7327
90.1432
90.185
94.758
109.282
133.435
168.473
209.692
237.499
296.066
458.127
699.081
930.113
14.9868
25.0399
32.4016
36.3417
36.5495
35.9787
34.0765
31.307
30.1075
30.7398
33.1949
40.3315
58.6048
97.1441
176.349
327.88
560.378
803.28
998.193
-1.00851
-0.7658
-0.283628
0.40072
0.539814
0.479921
0.294301
0.134306
0.155486
0.335038
0.665476
1.4866
4.24135
12.0399
44.2787
175.373
442.44
693.932
843.006
-1.04919
-0.931663
-0.831606
-0.73238
-0.642585
-0.558899
-0.470102
-0.367174
-0.254865
-0.156308
-0.080239
0.00411999
0.153345
0.738741
5.55071
32.1636
212.327
473.483
600.173
-1.10619
-1.0305
-0.951097
-0.864231
-0.773356
-0.680966
-0.58623
-0.485827
-0.379565
-0.269853
-0.154336
-0.0528136
0.0839161
0.192414
1.9122
6.36591
69.0551
294.357
375.939
-1.18138
-1.11759
-1.04691
-0.969745
-0.88677
-0.800075
-0.710594
-0.618419
-0.520637
-0.413411
-0.296286
-0.18208
-0.0904192
0.192082
2.18415
7.16025
76.3432
192.207
233.598
-1.27108
-1.21716
-1.15413
-1.08481
-1.00959
-0.929926
-0.846447
-0.761557
-0.670438
-0.563858
-0.439229
-0.34913
-0.354934
-0.135791
1.74611
28.1978
102.767
141.725
164.854
-1.37755
-1.32918
-1.27319
-1.20971
-1.14085
-1.06734
-0.989735
-0.908508
-0.822157
-0.729729
-0.630724
-0.5722
-0.83371
-1.6102
-0.214235
44.5191
83.9453
80.8703
118.307
-1.49378
-1.44924
-1.3982
-1.34094
-1.27813
-1.21043
-1.13796
-1.06146
-0.983308
-0.911546
-0.863564
-0.858098
-1.07983
-2.27148
-3.21874
16.6333
38.6442
30.4964
84.6197
-1.6184
-1.57721
-1.53068
-1.47876
-1.42141
-1.36022
-1.29353
-1.22392
-1.15565
-1.09847
-1.07688
-1.09045
-1.06299
-1.35177
-2.41178
7.03689
33.488
49.9105
77.328
-1.74982
-1.71197
-1.6698
-1.62317
-1.57198
-1.51649
-1.45698
-1.39625
-1.33809
-1.29056
-1.26239
-1.26177
-1.16547
-0.999182
-1.04929
10.1737
57.4502
74.2001
80.7706
-1.88692
-1.85248
-1.81466
-1.77348
-1.72877
-1.68065
-1.62981
-1.57892
-1.53182
-1.49453
-1.46791
-1.46279
-1.43144
-1.43575
-1.53243
6.93879
53.1955
74.984
81.2399
-2.02857
-1.99769
-1.96421
-1.92891
-1.89154
-1.85251
-1.81255
-1.77339
-1.73819
-1.71245
-1.70041
-1.70624
-1.71111
-1.78498
-2.05354
3.69511
49.6066
75.648
79.0977
-2.17356
-2.14628
-2.11734
-2.08824
-2.05908
-2.03081
-2.00369
-1.97787
-1.95575
-1.9417
-1.94571
-1.9659
-1.99778
-2.11759
-2.26237
6.91176
40.9785
57.5602
69.0695
-2.32068
-2.29689
-2.27249
-2.24971
-2.22934
-2.21295
-2.1997
-2.18748
-2.17804
-2.17578
-2.1941
-2.23015
-2.29063
-2.3459
-2.21189
9.89111
21.342
27.1763
53.2315
-2.46869
-2.44774
-2.42808
-2.4111
-2.39957
-2.39521
-2.39504
-2.39509
-2.39656
-2.40581
-2.43863
-2.4965
-2.61045
-2.76592
-4.01979
-3.01337
1.65933
12.6407
36.5036
-2.61662
-2.59778
-2.5817
-2.56939
-2.56601
-2.57257
-2.58395
-2.59384
-2.60442
-2.62544
-2.67196
-2.75567
-2.92397
-3.20731
-3.61507
-3.49589
-2.22912
5.39456
20.7389
-2.7635
-2.74547
-2.73097
-2.72213
-2.72421
-2.73849
-2.75971
-2.77885
-2.80143
-2.83544
-2.88783
-2.96848
-3.11007
-3.38287
-3.64236
-3.76396
-3.16802
-2.73728
8.52442
-2.90876
-2.88989
-2.87489
-2.86652
-2.87
-2.88719
-2.91387
-2.94305
-2.98133
-3.03139
-3.08097
-3.12741
-3.17603
-3.32953
-3.59201
-3.73789
-3.4379
-3.25205
9.23224
-3.05247
-3.03072
-3.01253
-3.00115
-3.00036
-3.01311
-3.03609
-3.06855
-3.11406
-3.18406
-3.22531
-3.23222
-3.18643
-3.1418
-3.22971
-3.30964
-3.154
-2.57246
18.5133
-3.19571
-3.16903
-3.14444
-3.12527
-3.11369
-3.11087
-3.11404
-3.14099
-3.18263
-3.24073
-3.28226
-3.28167
-3.18512
-3.0152
-2.93755
-2.73523
-1.91689
0.216815
30.8507
-3.34103
-3.30797
-3.27408
-3.24303
-3.21628
-3.19098
-3.16747
-3.16087
-3.17699
-3.22161
-3.28486
-3.3449
-3.31592
-3.11085
-2.94041
-2.65159
1.9334
12.0823
48.6285
-3.49278
-3.45379
-3.41025
-3.36733
-3.32932
-3.29335
-3.25629
-3.20699
-3.1847
-3.21625
-3.32258
-3.49376
-3.6532
-3.47274
-3.26561
2.30194
9.59001
22.9691
43.7237
-3.65728
-3.61757
-3.5702
-3.52011
-3.48178
-3.47405
-3.45041
-3.37922
-3.30684
-3.30789
-3.43187
-3.66537
-3.96093
-4.13617
1.49179
9.35205
12.3658
14.034
16.7053
-3.84033
-3.8122
-3.77562
-3.72994
-3.70046
-3.73449
-3.77164
-3.7037
-3.56651
-3.47435
-3.49811
-3.6183
-3.85234
-3.53536
5.07869
11.4618
12.7282
13.0128
14.18
-4.03865
-4.03381
-4.02308
-3.99307
-3.96702
-4.00986
-4.09166
-4.044
-3.84278
-3.60907
-3.4245
-3.34496
-3.50641
-3.22493
6.71162
12.3181
13.3974
13.5585
15.1628
-4.23512
-4.25333
-4.26407
-4.2419
-4.19335
-4.1876
-4.25256
-4.21041
-3.99661
-3.66194
-3.31224
-3.05816
-2.6664
-1.49058
8.35636
12.9677
13.9279
14.003
15.9407
-4.40688
-4.4321
-4.44234
-4.41059
-4.32913
-4.24965
-4.21931
-4.16039
-3.97463
-3.64354
-3.22946
-2.91528
-2.43635
-0.429738
9.43831
13.476
14.4669
14.443
17.1001
-4.56429
-4.56564
-4.56035
-4.51603
-4.4166
-4.28702
-4.16791
-4.0388
-3.86061
-3.60893
-3.28101
-2.98986
-2.63201
-1.19759
8.66281
13.6975
14.8557
14.7848
16.5868
-4.71493
-4.69674
-4.66968
-4.61644
-4.52392
-4.3942
-4.24692
-4.07947
-3.88701
-3.72098
-3.53691
-3.35204
-3.42311
-3.8176
5.68409
13.3981
14.8214
14.7439
16.1225
-4.87693
-4.85065
-4.81409
-4.76005
-4.68185
-4.57834
-4.45351
-4.3069
-4.14988
-4.0021
-3.90468
-3.79847
-3.7834
-3.51886
4.40146
12.6641
14.2032
14.0579
16.6096
-5.0526
-5.02678
-4.99236
-4.94621
-4.88535
-4.80869
-4.71639
-4.61053
-4.4849
-4.38388
-4.27483
-4.10477
-4.21172
-4.34774
3.21692
10.9519
12.1196
11.4636
17.364
-5.23904
-5.21859
-5.19217
-5.15814
-5.11497
-5.06203
-4.99915
-4.93019
-4.82736
-4.76164
-4.69086
-4.41924
-4.4954
-3.41246
0.0116855
7.16843
7.1377
4.40956
18.1387
-5.4329
-5.42036
-5.40435
-5.38404
-5.3587
-5.32798
-5.29173
-5.25179
-5.202
-5.17341
-5.16244
-5.1329
-5.08565
-5.00671
-1.58763
-0.692576
-12.3563
-15.7378
-45.4866
-5.63283
-5.62983
-5.62609
-5.62132
-5.61518
-5.60737
-5.59788
-5.58847
-5.58104
-5.59594
-5.64561
-5.8189
-6.16271
-7.86148
-9.96748
-22.2341
-55.1668
-58.4717
-194.261
)
;

boundaryField
{
    leftWall
    {
        type            calculated;
        value           nonuniform List<scalar> 
50
(
746.843
687.241
626.75
565.761
504.78
444.401
385.285
328.419
242.849
135.912
55.9408
1.63643
-0.0625097
-0.193075
-0.341836
-0.489223
-0.63531
-0.782127
-0.929099
-1.0766
-1.22465
-1.37326
-1.52224
-1.67158
-1.82122
-1.97112
-2.12128
-2.27169
-2.42236
-2.57329
-2.72451
-2.87602
-3.02785
-3.18001
-3.3325
-3.48535
-3.63853
-3.79204
-3.94587
-4.10002
-4.25446
-4.40918
-4.56413
-4.71932
-4.8748
-5.03058
-5.18642
-5.34212
-5.49772
-5.65414
)
;
    }
    rightWall
    {
        type            calculated;
        value           nonuniform List<scalar> 
50
(
275.639
275.646
275.721
275.885
276.405
278.012
281.657
287.787
287.619
271.329
270.134
267.148
271.126
383.145
651.043
930.113
998.193
843.006
600.173
375.939
233.598
164.854
118.307
84.6197
77.328
80.7706
81.2399
79.0977
69.0695
53.2315
36.5036
20.7389
8.52442
9.23224
18.5133
30.8507
48.6285
43.7237
16.7053
14.18
15.1628
15.9407
17.1001
16.5868
16.1225
16.6096
17.364
18.1387
-45.4866
-194.261
)
;
    }
    lowerWall
    {
        type            calculated;
        value           nonuniform List<scalar> 
62
(
776.272
775.461
781.102
790.401
797.694
801.182
801.624
801.896
804.313
809.816
818.538
830.423
845.426
863.384
884.214
907.663
932.706
956.945
974.11
986.587
963.598
957.859
1004.96
975.578
909.268
849.661
801.29
759.91
711.416
644.538
557.2
230.8
343.461
281.253
265.417
265.247
265.186
265.122
265.055
264.986
264.907
264.835
264.718
265.276
265.283
265.295
265.312
265.335
265.367
265.408
265.464
265.544
265.655
265.81
266.031
266.326
266.696
267.386
269.086
272.029
274.82
275.669
)
;
    }
    atmosphere
    {
        type            calculated;
        value           nonuniform List<scalar> 
46
(
-5.73301
-5.73359
-5.73344
-5.7335
-5.73344
-5.73339
-5.73331
-5.73321
-5.73309
-5.73296
-5.73281
-5.73264
-5.73247
-5.7323
-5.73211
-5.73193
-5.73175
-5.73157
-5.73141
-5.73126
-5.73114
-5.73106
-5.73103
-5.73109
-5.73139
-5.73211
-5.73353
-5.73583
-5.73843
-5.74191
-5.74629
-5.75135
-5.75637
-5.76061
-5.76562
-5.77183
-5.78901
-5.80188
-5.86296
-6.15862
-7.2212
-8.26082
-52.7609
-90.7319
-90.1121
-1186.75
)
;
    }
    defaultFaces
    {
        type            empty;
    }
}


// ************************************************************************* //
