/*--------------------------------*- C++ -*----------------------------------*\
| =========                 |                                                 |
| \\      /  F ield         | OpenFOAM: The Open Source CFD Toolbox           |
|  \\    /   O peration     | Version:  2206                                  |
|   \\  /    A nd           | Website:  www.openfoam.com                      |
|    \\/     M anipulation  |                                                 |
\*---------------------------------------------------------------------------*/
FoamFile
{
    version     2.0;
    format      ascii;
    arch        "LSB;label=32;scalar=64";
    class       volScalarField;
    location    "0.45";
    object      p_rgh;
}
// * * * * * * * * * * * * * * * * * * * * * * * * * * * * * * * * * * * * * //

dimensions      [1 -1 -2 0 0 0 0];

internalField   nonuniform List<scalar> 
2268
(
776.272
775.461
781.102
790.401
797.694
801.182
801.624
801.896
804.313
809.816
818.538
830.423
845.426
863.384
884.214
907.663
932.706
956.945
974.11
986.587
963.598
957.859
1004.96
775.529
774.119
779.617
788.962
796.271
799.816
800.344
800.752
803.323
808.962
817.774
829.64
844.397
861.961
882.266
905.141
929.937
955.103
975.744
991.011
961.249
943.713
997.425
773.897
771.744
776.636
786.184
793.442
797.113
797.819
798.494
801.371
807.276
816.276
828.254
843.097
860.66
880.758
902.957
926.469
950.099
970.874
986.784
960.899
941.256
996.592
771.766
768.54
772.648
781.785
789.271
793.185
794.158
795.217
798.53
804.814
814.086
826.234
841.136
858.692
878.627
900.461
923.256
945.572
965.008
979.585
976.762
963.47
1007.05
769.644
764.752
767.719
776.026
783.897
788.2
789.5
791.031
794.89
801.637
811.239
823.597
838.617
856.186
876.04
897.67
920.145
941.939
960.842
975.357
981.187
982.586
1024.6
768.124
761.037
761.939
768.95
777.358
782.269
783.933
785.976
790.469
797.762
807.746
820.358
835.528
853.157
873.014
894.591
916.983
938.712
957.859
973.182
984.101
994.627
1034.91
767.867
757.537
755.531
760.806
769.795
775.536
777.649
780.212
785.334
793.17
803.551
816.451
831.832
849.608
869.558
891.209
913.718
935.65
955.361
971.44
984.055
996.759
1026.85
769.86
756.103
749.966
752.727
761.731
768.16
770.897
774.193
779.985
788.267
798.901
811.961
827.442
845.482
865.655
887.61
910.442
932.736
953.07
969.696
981.64
991.954
998.333
265.276
265.283
265.295
265.312
265.335
265.367
265.408
265.464
265.544
265.655
265.81
266.031
266.326
266.696
267.386
269.086
272.029
274.82
275.669
265.274
265.282
265.294
265.31
265.333
265.363
265.403
265.457
265.533
265.64
265.789
265.998
266.271
266.567
267.096
268.723
271.796
274.84
275.735
265.269
265.281
265.292
265.306
265.327
265.356
265.393
265.44
265.508
265.602
265.728
265.901
266.117
266.284
266.538
267.988
271.216
274.789
275.878
265.261
265.279
265.289
265.3
265.318
265.345
265.378
265.416
265.472
265.546
265.637
265.752
265.879
265.852
265.643
266.7
269.962
274.501
276.174
265.251
265.277
265.284
265.292
265.307
265.333
265.362
265.385
265.426
265.477
265.527
265.567
265.574
265.3
264.413
264.611
267.725
274.005
277.118
265.231
265.276
265.279
265.281
265.291
265.318
265.345
265.347
265.374
265.401
265.405
265.362
265.224
264.672
262.88
261.089
266.377
274.463
280.18
265.218
265.279
265.275
265.266
265.27
265.302
265.334
265.303
265.319
265.323
265.283
265.157
264.87
264.078
261.69
257.615
264.696
289.045
288.287
265.241
265.293
265.27
265.245
265.241
265.283
265.324
265.25
265.263
265.251
265.17
264.975
264.571
263.646
261.256
257.621
258.256
297.228
304.593
776.316
759.237
744.389
740.381
748.26
755.08
758.502
763.257
770.56
779.843
791.036
804.434
819.896
837.322
857.611
880.551
904.591
928.23
950.17
967.913
976.648
972.405
905.955
794.573
764.735
664.611
591.967
613.52
644.032
659.808
678.417
702.994
728.75
753.739
778.96
805.006
829.626
851.218
873.317
897.731
923.076
947.909
968.46
979.89
979.906
966.11
673.31
371.709
128.742
77.3065
112.403
134.173
138.727
153.816
183.397
222.606
269.776
330.035
412.344
523.832
644.51
795.44
884.689
917.072
951.88
977.745
996.693
1011.68
1025.12
23.1414
0.991238
0.890043
1.01395
1.01004
1.02421
1.03532
1.04395
1.05806
1.08499
1.13276
1.20839
1.30789
2.75241
32.8541
90.9026
207.135
450.496
843.093
994.556
1022.21
1048.07
1067.81
0.971735
0.910776
0.928902
0.983728
0.995676
1.005
1.01443
1.02456
1.03865
1.05986
1.08966
1.12759
1.15802
1.12835
1.06615
1.11122
1.22108
16.3692
84.6766
234.141
562.014
1042.83
1114.12
0.966365
0.966142
0.96057
0.970519
0.97651
0.983988
0.99237
1.00136
1.01298
1.028
1.04527
1.06017
1.05701
1.02919
1.14972
1.3338
1.45551
1.41305
1.49672
1.57676
19.6708
151.189
474.346
0.942798
0.938086
0.94005
0.948481
0.954982
0.961415
0.96825
0.975639
0.984306
0.994455
1.00471
1.01129
1.00742
1.05891
1.46014
1.52436
1.57109
1.56519
1.37694
1.37358
1.4015
1.66784
8.07004
0.920606
0.921642
0.924895
0.928543
0.933231
0.938268
0.943578
0.949033
0.954853
0.961123
0.966846
0.968879
0.962762
1.01572
0.974899
1.10343
1.18011
1.43645
1.47968
1.47606
1.39441
1.28674
0.996034
0.899713
0.901782
0.904508
0.907178
0.910671
0.914509
0.918488
0.922305
0.925888
0.929253
0.932135
0.932247
0.929976
0.920782
0.902495
0.895085
0.884805
0.924095
1.03862
0.969893
1.20471
1.12851
0.802918
0.878091
0.880169
0.882529
0.884702
0.887357
0.890275
0.893234
0.895897
0.898057
0.899597
0.900432
0.899717
0.896566
0.887059
0.877428
0.866514
0.849617
0.820787
0.979013
0.959376
0.73434
0.641197
0.708908
0.856314
0.857998
0.859801
0.861517
0.863569
0.865788
0.868006
0.869935
0.871353
0.872058
0.871881
0.870307
0.866652
0.860314
0.851576
0.839427
0.821514
0.863206
1.20578
1.11053
0.825658
0.656786
0.735984
0.834011
0.835206
0.83654
0.837897
0.839493
0.841195
0.842875
0.844318
0.845369
0.845745
0.845275
0.843583
0.840315
0.834838
0.826822
0.815432
0.798434
0.770287
0.800514
1.12916
1.27802
1.25706
1.3113
0.811149
0.811943
0.812928
0.81399
0.815251
0.816584
0.817892
0.819025
0.819828
0.820104
0.819636
0.818119
0.815262
0.810577
0.803605
0.793618
0.779287
0.756894
0.722483
0.677324
0.72504
1.0575
1.18888
0.787732
0.788328
0.789044
0.789883
0.790904
0.79199
0.793061
0.794003
0.79469
0.794956
0.79462
0.793447
0.791173
0.787428
0.781867
0.773989
0.762994
0.747492
0.726746
0.702764
0.682489
0.676536
0.723462
0.763949
0.764338
0.764909
0.765608
0.766476
0.767415
0.76836
0.769222
0.769898
0.77026
0.770162
0.769431
0.767862
0.765227
0.761301
0.755826
0.748445
0.738819
0.727355
0.716045
0.709148
0.711469
0.724577
0.739808
0.740081
0.740562
0.741182
0.741966
0.742839
0.743746
0.74462
0.74538
0.745929
0.746161
0.745955
0.745174
0.743684
0.741368
0.738133
0.733933
0.728918
0.723756
0.719892
0.719721
0.725609
0.738154
0.715362
0.715584
0.716018
0.716605
0.717362
0.71823
0.719168
0.720124
0.721041
0.721849
0.722476
0.722846
0.722879
0.722514
0.721715
0.720495
0.718954
0.717383
0.716422
0.717179
0.721095
0.729225
0.741744
0.69065
0.690854
0.691276
0.691865
0.692636
0.693546
0.694565
0.695657
0.696781
0.697893
0.69895
0.699912
0.700743
0.701436
0.702009
0.702542
0.70321
0.704343
0.706473
0.710348
0.716824
0.726506
0.739543
0.665687
0.665891
0.666326
0.66694
0.667757
0.668741
0.669876
0.671137
0.6725
0.67394
0.675436
0.676975
0.678559
0.680215
0.681997
0.684015
0.686461
0.689639
0.693975
0.699997
0.708258
0.71913
0.732753
0.640473
0.64069
0.641152
0.641807
0.642689
0.643769
0.64504
0.646488
0.648103
0.649874
0.651799
0.653885
0.65616
0.658672
0.661495
0.664754
0.668636
0.673404
0.679389
0.68697
0.696524
0.708317
0.722482
0.615001
0.615236
0.615734
0.616439
0.617397
0.618582
0.619998
0.621639
0.623504
0.625595
0.627924
0.630516
0.633409
0.636665
0.640373
0.644657
0.64969
0.655692
0.662923
0.671662
0.682186
0.694699
0.709313
0.58926
0.589517
0.590053
0.590812
0.591849
0.593141
0.594699
0.596526
0.598628
0.601018
0.603718
0.606761
0.610195
0.614089
0.618535
0.623657
0.629608
0.636573
0.644756
0.654373
0.665639
0.678716
0.693693
0.563237
0.563516
0.564091
0.564901
0.566015
0.567408
0.5691
0.571098
0.573416
0.576074
0.579101
0.582537
0.586433
0.590861
0.595915
0.601712
0.608387
0.616097
0.62501
0.6353
0.647138
0.660661
0.675936
0.536917
0.537219
0.537828
0.538686
0.539868
0.541353
0.543163
0.545313
0.547819
0.550708
0.554013
0.557779
0.562058
0.56692
0.572462
0.578792
0.586029
0.594309
0.603777
0.614579
0.626859
0.640735
0.656264
0.510285
0.510607
0.511246
0.512144
0.513385
0.514948
0.51686
0.519136
0.521798
0.524877
0.528408
0.532437
0.537019
0.542225
0.548146
0.554881
0.56254
0.571243
0.581121
0.592302
0.604914
0.619065
0.634822
0.483324
0.483664
0.484326
0.485259
0.486548
0.488173
0.490165
0.49254
0.495323
0.498547
0.50225
0.506477
0.511286
0.516747
0.522944
0.529971
0.537927
0.546925
0.557085
0.568524
0.581366
0.595722
0.611676
0.456022
0.456375
0.457056
0.458016
0.459341
0.461013
0.463062
0.465505
0.46837
0.471693
0.475514
0.479877
0.484839
0.490469
0.496846
0.504057
0.512197
0.52137
0.531691
0.543275
0.556244
0.570725
0.586822
0.428373
0.428733
0.429431
0.430408
0.431756
0.433454
0.435534
0.438013
0.440924
0.444301
0.448186
0.452622
0.457665
0.463382
0.469846
0.47714
0.485355
0.494591
0.504958
0.516571
0.529555
0.544054
0.5602
0.400383
0.400741
0.401449
0.402432
0.403787
0.40549
0.407575
0.410059
0.412976
0.416363
0.420257
0.424705
0.429759
0.435483
0.441947
0.449228
0.457414
0.466602
0.476898
0.488416
0.501286
0.515662
0.531709
0.372069
0.372407
0.37312
0.374095
0.37544
0.377125
0.379187
0.381645
0.384532
0.387882
0.391733
0.39613
0.401126
0.406781
0.413161
0.420336
0.428391
0.43742
0.447525
0.458816
0.471426
0.485511
0.501254
0.343428
0.343755
0.344458
0.345406
0.346724
0.348367
0.350382
0.352782
0.3556
0.358867
0.362622
0.36691
0.371782
0.377296
0.383509
0.390487
0.398312
0.407072
0.416865
0.427796
0.439991
0.453597
0.468799
0.31448
0.314783
0.315469
0.316369
0.317645
0.319226
0.321167
0.323477
0.326186
0.329327
0.332937
0.337061
0.341748
0.347048
0.353012
0.359705
0.367201
0.375588
0.384953
0.395393
0.407019
0.419959
0.434376
0.285233
0.285495
0.286154
0.286992
0.288212
0.289707
0.291548
0.293736
0.296302
0.299277
0.302698
0.306606
0.311046
0.31606
0.321699
0.328022
0.335102
0.343014
0.351837
0.361657
0.372571
0.38468
0.398106
0.255709
0.255922
0.256545
0.257305
0.258453
0.259841
0.261558
0.263596
0.265987
0.26876
0.271949
0.275591
0.279725
0.284392
0.289637
0.295516
0.302093
0.309433
0.317607
0.326692
0.33677
0.347919
0.360207
0.22595
0.226116
0.226698
0.227362
0.228425
0.229685
0.231257
0.233121
0.23531
0.237848
0.240765
0.244095
0.247875
0.252139
0.25693
0.262297
0.268292
0.274976
0.282412
0.290672
0.299824
0.309928
0.321011
0.195956
0.196073
0.196606
0.197161
0.198125
0.199244
0.200652
0.202321
0.204282
0.206555
0.209167
0.21215
0.215533
0.219348
0.22363
0.228421
0.233771
0.239731
0.246362
0.253727
0.261889
0.270905
0.280804
0.165666
0.1657
0.166199
0.166636
0.167486
0.168452
0.169679
0.171134
0.172846
0.17483
0.177111
0.179714
0.182665
0.185987
0.189712
0.193879
0.19853
0.203711
0.209473
0.215879
0.22299
0.230875
0.23958
0.135085
0.135007
0.135513
0.135818
0.136538
0.137339
0.138371
0.139597
0.14104
0.142713
0.144635
0.146829
0.149312
0.152105
0.155233
0.158729
0.162629
0.166972
0.171806
0.177193
0.183191
0.189877
0.197341
0.104444
0.104285
0.10476
0.104957
0.105538
0.106171
0.106997
0.107981
0.109139
0.110481
0.112024
0.113783
0.11577
0.118
0.120495
0.123283
0.126392
0.129851
0.133703
0.137999
0.142798
0.148178
0.154256
0.0739377
0.0737328
0.0741485
0.0742559
0.07469
0.0751558
0.0757709
0.0765058
0.0773705
0.0783726
0.0795229
0.0808304
0.0823032
0.0839536
0.0857996
0.0878575
0.0901408
0.0926728
0.0954939
0.0986488
0.102177
0.106145
0.110657
0.0435272
0.0432922
0.0436003
0.0436349
0.0439219
0.0442247
0.0446299
0.045118
0.0456929
0.0463578
0.0471178
0.0479788
0.0489459
0.0500243
0.0512221
0.0525498
0.0540186
0.055643
0.0574426
0.0594378
0.0616562
0.0641455
0.066972
0.012303
0.011959
0.012141
0.0121053
0.012241
0.0123775
0.0125682
0.0128002
0.0130722
0.013385
0.0137414
0.0141416
0.0145822
0.0150633
0.0155916
0.016171
0.0167955
0.0174625
0.0181829
0.018966
0.0198101
0.0207204
0.0217114
701.67
695.38
371.158
266.711
913.876
927.581
566.964
266.749
1022.42
1032.74
620.82
265.551
1086.7
1124.52
800.434
270.087
1147.55
1201.83
1150.19
275.618
1136.89
1259.47
1331.09
953.634
212.093
960.715
1368.51
1430.38
0.755042
84.3746
560.277
1183.59
0.699913
0.96605
0.995804
134.615
0.826199
0.865008
0.849847
0.50929
0.913007
0.96882
1.32665
1.12344
1.35115
1.37817
1.34227
0.938577
1.21825
1.221
0.857537
0.795746
0.784517
0.779658
0.802693
0.835976
0.749312
0.780511
0.815825
0.85734
0.759328
0.789298
0.824961
0.868769
0.761687
0.791294
0.826995
0.871795
0.759421
0.788953
0.824716
0.868442
0.75285
0.782315
0.817613
0.85964
0.742837
0.772107
0.80657
0.846517
0.729877
0.758852
0.792315
0.830058
0.714417
0.743074
0.775548
0.811227
0.696807
0.725221
0.756903
0.790934
0.677306
0.705636
0.736886
0.769911
0.656074
0.684534
0.715827
0.74872
0.633166
0.66197
0.693813
0.727604
0.608536
0.637811
0.670617
0.70631
0.582052
0.611776
0.645711
0.683952
0.553505
0.583434
0.618244
0.658903
0.522694
0.552314
0.587176
0.628851
0.489497
0.518049
0.551563
0.591112
0.453927
0.480596
0.5111
0.544228
0.41618
0.440339
0.466669
0.490239
0.376596
0.397971
0.419768
0.435462
0.335667
0.354474
0.372401
0.386897
0.293943
0.311126
0.328644
0.345005
0.251239
0.267593
0.285658
0.307299
0.207555
0.222344
0.240103
0.263376
0.162721
0.175248
0.191134
0.212883
0.117014
0.126572
0.139068
0.156478
0.0709511
0.0769171
0.084733
0.0956101
0.0230897
0.025005
0.0273483
0.0303922
265.213
265.283
265.28
265.199
265.168
265.248
265.361
265.148
265.178
265.15
265.012
264.733
264.219
263.284
261.236
258.737
257.864
270.646
446.949
264.631
264.83
264.941
264.93
264.918
265.315
265.17
264.958
265.036
265.086
264.909
264.609
264.124
263.382
262.2
260.785
260.528
260.241
745.054
264.226
264.427
264.528
264.493
264.275
266.099
264.852
264.718
265.041
265.134
264.901
264.583
264.191
263.811
263.483
263.161
263.066
263.122
869.725
264.113
264.201
264.236
264.118
263.674
262.744
329.342
264.059
264.478
265.158
264.991
264.651
264.327
264.213
264.402
264.867
264.72
265.064
962.128
264.435
264.135
264.108
264.062
263.886
263.435
480.476
263.615
261.873
371.699
265.145
264.19
264.96
264.288
264.615
265.048
265.253
274.689
1133.13
347.532
357.289
525.532
509.172
384.754
282.417
522.806
792.499
1180.75
1163.16
470.425
344.567
263.064
263.784
264.263
321.141
400.271
829.632
1446.6
1295.29
1227.86
1293.52
1328.75
1276.12
1165.26
1176.09
1332.4
1355.21
1376.24
1352.96
1319.54
1238.18
773.434
583.999
930.151
1288.82
1611.97
1839.11
1378.76
1401.75
1405.6
1411.18
1419.25
1427.73
1417.87
1410.87
1411.14
1415.48
1430.25
1453.73
1486.73
1521.45
1521.17
1593.55
1761.87
2002.93
2233.97
404.673
654.201
849.413
950.585
938.156
912.722
872.089
808.748
778.285
789.087
835.394
950.477
1214.49
1514.64
1594.46
1747.27
1979.99
2222.92
2417.83
0.69593
2.23175
16.1996
31.5718
31.7825
28.9828
22.7679
14.8238
9.89858
10.1952
14.7471
34.242
108.874
269.667
564.051
1340.32
1977.6
2229.32
2341.92
0.777279
0.855336
0.95967
1.06187
1.15471
1.23964
1.32671
1.42526
1.5336
1.62962
1.70533
1.78919
1.95717
2.98806
11.4528
364.004
1595.99
2121.32
2030.03
0.815946
0.880125
0.959583
1.04649
1.1374
1.22987
1.32459
1.42495
1.53132
1.64096
1.75648
1.85801
1.99473
2.12236
4.32048
101.088
1485.69
2044.04
1905.4
0.85445
0.918221
0.9889
1.06606
1.14905
1.23585
1.32534
1.41751
1.5155
1.62261
1.73974
1.85394
1.9498
2.34869
5.68937
342.432
1785.67
2054.15
1913.46
0.889924
0.943847
1.00688
1.0762
1.15143
1.2312
1.31469
1.39957
1.49068
1.59727
1.72198
1.81676
1.93206
3.48012
168.633
1389.06
2079.21
2118.18
2141.3
0.908655
0.957016
1.01301
1.07648
1.14535
1.22006
1.30057
1.37947
1.46417
1.55669
1.65659
1.73847
1.82991
4.60998
781.14
2058.92
2174.9
2171.82
2079.03
0.917621
0.96216
1.01319
1.07045
1.13327
1.20225
1.27936
1.35586
1.4296
1.50208
1.55049
1.56601
1.51267
2.32248
582.239
1953.13
2243.82
1809.31
886.881
0.918194
0.959381
1.00592
1.05784
1.11517
1.17637
1.24483
1.31889
1.38255
1.44098
1.46519
1.45471
1.53483
2.11935
383.095
1793.03
2028.5
517.352
483.538
0.91197
0.949857
0.992101
1.03871
1.08981
1.1453
1.20501
1.26676
1.32464
1.37351
1.4277
1.42609
1.5477
2.36468
331.549
1767.54
2016.65
500.459
505.172
0.900095
0.934624
0.972442
1.01362
1.05822
1.10633
1.15872
1.21032
1.25615
1.29396
1.39425
1.39135
1.43734
1.90091
223.837
1785.51
2128.89
1171.12
525.603
0.883632
0.914552
0.94808
0.983332
1.02067
1.05966
1.10056
1.14114
1.17619
1.2002
1.2943
1.2953
1.29053
1.53613
148.99
1671.89
2218.55
1361.41
543.422
0.863802
0.891082
0.920015
0.949122
0.978343
1.00681
1.03376
1.06021
1.08273
1.09584
1.14156
1.14274
1.10275
1.26359
188.549
1496.4
1903.53
551.196
553.393
0.841875
0.865661
0.890065
0.912847
0.933213
0.951489
0.963337
0.975287
0.9847
0.986952
0.9728
0.957491
0.907629
1.03713
112.964
833.654
1331.37
977.698
958.755
0.819054
0.840011
0.859673
0.876646
0.888183
0.894363
0.894578
0.892918
0.891371
0.882128
0.849304
0.821603
0.720585
4.52652
20.2786
2.09667
269.963
1281.46
1304.19
0.79632
0.815171
0.83125
0.843557
0.846963
0.840397
0.846292
0.819297
0.808715
0.787697
0.741175
0.8432
0.630702
3.15523
7.16519
0.795352
5.18324
918.457
1337.9
0.774634
0.792671
0.807179
0.816015
0.814425
0.799676
0.805329
0.804045
0.866922
0.768146
0.686671
0.79979
0.599474
2.89541
0.770426
0.619408
1.26197
202.89
1369.87
0.754567
0.773438
0.788442
0.796835
0.793921
0.776205
0.780858
0.908638
0.877761
0.83136
0.820634
0.777347
0.70079
2.73341
0.889216
0.754697
1.10058
177.513
1381.88
0.736058
0.7578
0.775993
0.787395
0.788532
0.775617
0.79329
0.90737
0.87356
0.806918
0.669998
0.669693
1.07656
1.5653
1.3014
1.24394
1.53041
277.375
1428.14
0.718013
0.744687
0.769276
0.788454
0.800037
0.803714
0.833788
0.839883
0.936712
0.878303
0.705332
0.698499
1.03663
0.960261
1.21182
3.86691
3.21475
330.029
1470.98
0.697887
0.730946
0.764836
0.795891
0.822666
0.848431
0.876363
0.880762
0.962591
0.997265
0.861898
0.753085
0.763972
0.968027
1.4262
57.5575
18.1439
461.005
1520.7
0.671327
0.710317
0.753907
0.79698
0.835163
0.871714
0.910162
0.959911
0.982329
0.980629
1.01928
0.78884
0.538973
0.727786
73.9787
154.532
121.042
391.616
1534.74
0.632027
0.671734
0.719164
0.789139
0.8868
1.04566
0.870193
0.912966
0.986048
0.98736
1.04028
0.693597
0.341071
84.6472
199.375
199.281
51.1022
25.3788
1422.88
0.574171
0.602306
0.639019
0.74184
1.55443
1.79267
1.41644
0.738508
0.851972
0.943182
1.03556
0.805701
0.571597
154.1
215.869
113.616
24.4041
24.438
1271.94
0.501039
0.505892
0.516815
0.637373
1.66014
1.67659
1.59346
0.897592
0.699993
0.933289
1.11917
1.19598
1.36925
176.058
231.896
93.1749
25.1466
25.2351
1299.46
0.429763
0.411557
0.400823
0.423167
0.635774
1.62706
1.59071
0.957304
0.670737
1.00519
1.35369
1.60763
11.8759
190.49
254.435
79.7109
25.9003
26.2157
1345.32
0.383197
0.357979
0.347738
0.37949
0.460972
0.662894
1.63507
1.04608
0.817654
1.14859
1.56148
1.87566
30.6399
212.579
281.061
69.3054
26.743
26.7285
1381.92
0.35099
0.34964
0.354921
0.399241
0.498674
0.628269
0.748156
1.26565
1.05727
1.30909
1.63513
1.92629
37.8398
228.805
309.94
80.7348
27.4623
27.3723
650.856
0.325541
0.34373
0.37079
0.424031
0.516553
0.646267
0.793566
0.979926
1.38999
1.32479
1.50444
1.68931
3.15174
208.807
316.448
134.657
27.9106
27.6716
382.441
0.288737
0.315014
0.351579
0.405618
0.483815
0.587328
0.712151
0.85979
1.06424
1.20053
1.26226
1.36786
1.38346
124.627
328.959
189.253
28.0679
27.4722
1303.13
0.238261
0.264082
0.298496
0.344645
0.405509
0.482174
0.574468
0.68033
0.805962
0.906975
1.01603
1.18609
1.07986
150.259
342.312
279.447
30.6665
25.9082
1580.75
0.17701
0.197463
0.22388
0.257917
0.301081
0.354024
0.416899
0.485865
0.58869
0.654414
0.725192
1.36711
0.923108
217.033
349.793
355.42
84.6316
29.4281
1620.72
0.108343
0.120887
0.136896
0.157209
0.182548
0.21327
0.249517
0.289456
0.339247
0.36784
0.37881
1.31776
0.490897
0.53454
232.404
356.86
141.892
70.9853
1594.14
0.0336167
0.0366106
0.0403516
0.0451242
0.0512656
0.0590695
0.0685677
0.0779712
0.0854048
0.0704996
0.0208314
-0.152454
-0.496264
-2.19503
-4.30104
29.9503
34.5737
30.6559
979.526
)
;

boundaryField
{
    leftWall
    {
        type            fixedFluxPressure;
        gradient        uniform 0;
        value           nonuniform List<scalar> 
50
(
776.272
775.529
773.897
771.766
769.644
768.124
767.867
769.86
776.316
794.573
673.31
23.1414
0.971735
0.966365
0.942798
0.920606
0.899713
0.878091
0.856314
0.834011
0.811149
0.787732
0.763949
0.739808
0.715362
0.69065
0.665687
0.640473
0.615001
0.58926
0.563237
0.536917
0.510285
0.483324
0.456022
0.428373
0.400383
0.372069
0.343428
0.31448
0.285233
0.255709
0.22595
0.195956
0.165666
0.135085
0.104444
0.0739377
0.0435272
0.012303
)
;
    }
    rightWall
    {
        type            fixedFluxPressure;
        gradient        uniform 0;
        value           nonuniform List<scalar> 
50
(
275.669
275.735
275.878
276.174
277.118
280.18
288.287
304.593
446.949
745.054
869.725
962.128
1133.13
1446.6
1839.11
2233.97
2417.83
2341.92
2030.03
1905.4
1913.46
2141.3
2079.03
886.881
483.538
505.172
525.603
543.422
553.393
958.755
1304.19
1337.9
1369.87
1381.88
1428.14
1470.98
1520.7
1534.74
1422.88
1271.94
1299.46
1345.32
1381.92
650.856
382.441
1303.13
1580.75
1620.72
1594.14
979.526
)
;
    }
    lowerWall
    {
        type            fixedFluxPressure;
        gradient        uniform 0;
        value           nonuniform List<scalar> 
62
(
776.272
775.461
781.102
790.401
797.694
801.182
801.624
801.896
804.313
809.816
818.538
830.423
845.426
863.384
884.214
907.663
932.706
956.945
974.11
986.587
963.598
957.859
1004.96
1004.96
997.425
996.592
1007.05
1024.6
1034.91
1026.85
998.333
701.67
695.38
371.158
266.711
265.276
265.274
265.269
265.261
265.251
265.231
265.218
265.241
265.276
265.283
265.295
265.312
265.335
265.367
265.408
265.464
265.544
265.655
265.81
266.031
266.326
266.696
267.386
269.086
272.029
274.82
275.669
)
;
    }
    atmosphere
    {
        type            totalPressure;
        rho             rho;
        psi             none;
        gamma           1;
        p0              uniform 0;
        value           nonuniform List<scalar> 
46
(
-0.00397176
-0.00454922
-0.00439892
-0.00446013
-0.0043993
-0.00434685
-0.00426606
-0.00416633
-0.00404897
-0.00391503
-0.0037662
-0.00360474
-0.00343359
-0.00325577
-0.0030736
-0.00289024
-0.00270882
-0.0025336
-0.00236883
-0.00222169
-0.00210071
-0.00201798
-0.00199153
-0.00204762
-0.00234671
-0.00306523
-0.00449059
-0.00679431
-0.00939113
-0.0128655
-0.0172533
-0.0223074
-0.0273302
-0.0315651
-0.0365765
-0.0427927
-0.0599705
-0.0728444
-0.133921
-0.429576
-1.49216
-2.53178
0
0
0
0
)
;
    }
    defaultFaces
    {
        type            empty;
    }
}


// ************************************************************************* //
