/*--------------------------------*- C++ -*----------------------------------*\
| =========                 |                                                 |
| \\      /  F ield         | OpenFOAM: The Open Source CFD Toolbox           |
|  \\    /   O peration     | Version:  2206                                  |
|   \\  /    A nd           | Website:  www.openfoam.com                      |
|    \\/     M anipulation  |                                                 |
\*---------------------------------------------------------------------------*/
FoamFile
{
    version     2.0;
    format      ascii;
    arch        "LSB;label=32;scalar=64";
    class       surfaceScalarField;
    location    "0.45";
    object      phi;
}
// * * * * * * * * * * * * * * * * * * * * * * * * * * * * * * * * * * * * * //

dimensions      [0 3 -1 0 0 0 0];

oriented        oriented;

internalField   nonuniform List<scalar> 
4432
(
-3.8112e-06
3.8112e-06
-4.27836e-06
4.6715e-07
-8.46182e-07
-3.43217e-06
4.71947e-06
-5.56566e-06
1.099e-05
-6.27057e-06
1.67689e-05
-5.77888e-06
2.14387e-05
-4.66978e-06
2.48838e-05
-3.44512e-06
2.72492e-05
-2.36538e-06
2.87568e-05
-1.50763e-06
2.96047e-05
-8.47898e-07
2.99129e-05
-3.08188e-07
2.96543e-05
2.58618e-07
2.86216e-05
1.0327e-06
2.64853e-05
2.13629e-06
2.27133e-05
3.77199e-06
1.66734e-05
6.03989e-06
8.35826e-06
8.31514e-06
8.32003e-08
8.27506e-06
-7.39391e-06
7.47711e-06
-1.62281e-05
8.83422e-06
-1.60836e-05
-1.44497e-07
-1.60836e-05
-3.96519e-06
7.77639e-06
-3.97961e-06
4.81567e-07
-4.35699e-07
-6.97609e-06
5.11655e-06
-1.11179e-05
1.13359e-05
-1.249e-05
1.70378e-05
-1.14807e-05
2.16266e-05
-9.25863e-06
2.50079e-05
-6.82642e-06
2.73465e-05
-4.70395e-06
2.88712e-05
-3.03237e-06
2.97815e-05
-1.75812e-06
3.02263e-05
-7.53005e-07
3.03451e-05
1.39811e-07
3.02913e-05
1.08646e-06
3.00675e-05
2.36009e-06
2.94697e-05
4.36977e-06
2.77432e-05
7.76636e-06
2.3169e-05
1.28894e-05
1.37856e-05
1.76584e-05
6.62929e-07
2.05998e-05
-9.43036e-06
1.89275e-05
-9.01686e-06
-5.57998e-07
-2.51005e-05
-3.53573e-06
1.13121e-05
-3.37583e-06
3.21658e-07
2.07638e-07
-1.05596e-05
5.6953e-06
-1.66056e-05
1.1758e-05
-1.85527e-05
1.72558e-05
-1.69784e-05
2.16281e-05
-1.3631e-05
2.48275e-05
-1.00258e-05
2.70555e-05
-6.93198e-06
2.85515e-05
-4.52832e-06
2.95031e-05
-2.70974e-06
3.00254e-05
-1.27526e-06
3.01683e-05
-3.15529e-09
2.99358e-05
1.31895e-06
2.93693e-05
2.92668e-06
2.86307e-05
5.10833e-06
2.80475e-05
8.34958e-06
2.72784e-05
1.36585e-05
2.39127e-05
2.10241e-05
1.59928e-05
2.85198e-05
6.09411e-06
2.88262e-05
1.32116e-06
4.21494e-06
-2.37793e-05
-2.9131e-06
1.42252e-05
-2.48611e-06
-1.05333e-07
1.01882e-06
-1.40645e-05
6.36472e-06
-2.19515e-05
1.22079e-05
-2.43959e-05
1.74499e-05
-2.22204e-05
2.15485e-05
-1.77297e-05
2.4521e-05
-1.29982e-05
2.66232e-05
-9.03418e-06
2.81056e-05
-6.01079e-06
2.91358e-05
-3.7399e-06
2.98001e-05
-1.93959e-06
3.01225e-05
-3.2549e-07
3.00804e-05
1.361e-06
2.96464e-05
3.36068e-06
2.88439e-05
5.91087e-06
2.79215e-05
9.27195e-06
2.75957e-05
1.39843e-05
2.77422e-05
2.08775e-05
2.62801e-05
2.99818e-05
2.14316e-05
3.36747e-05
1.13324e-05
1.43141e-05
-1.24469e-05
-2.11207e-06
1.63373e-05
-1.27905e-06
-9.38351e-07
2.01844e-06
-1.7362e-05
7.02647e-06
-2.69595e-05
1.25844e-05
-2.99538e-05
1.75522e-05
-2.71883e-05
2.1364e-05
-2.15415e-05
2.41057e-05
-1.57399e-05
2.60956e-05
-1.10241e-05
2.75932e-05
-7.50839e-06
2.8739e-05
-4.88571e-06
2.95834e-05
-2.78399e-06
3.0119e-05
-8.61081e-07
3.03111e-05
1.16891e-06
3.01363e-05
3.53549e-06
2.96053e-05
6.44183e-06
2.87872e-05
1.00901e-05
2.81099e-05
1.46615e-05
2.85671e-05
2.04203e-05
3.0024e-05
2.85249e-05
2.86395e-05
3.50592e-05
1.80275e-05
2.49261e-05
5.58057e-06
-1.07818e-06
1.74155e-05
3.31852e-07
-2.34839e-06
3.3583e-06
-2.03884e-05
7.91254e-06
-3.15137e-05
1.30436e-05
-3.50848e-05
1.76248e-05
-3.17695e-05
2.10943e-05
-2.5011e-05
2.36068e-05
-1.82524e-05
2.5524e-05
-1.29413e-05
2.70905e-05
-9.07488e-06
2.84032e-05
-6.19836e-06
2.94678e-05
-3.8486e-06
3.02411e-05
-1.63441e-06
3.06639e-05
7.46139e-07
3.07163e-05
3.48306e-06
3.0436e-05
6.72213e-06
2.99084e-05
1.06178e-05
2.92607e-05
1.53092e-05
2.9079e-05
2.0602e-05
3.04e-05
2.72039e-05
3.04998e-05
3.49594e-05
2.12738e-05
3.41521e-05
2.68543e-05
1.92135e-07
1.72233e-05
2.43972e-06
-4.59598e-06
5.67549e-06
-2.36242e-05
9.8013e-06
-3.56395e-05
1.41771e-05
-3.94606e-05
1.80159e-05
-3.56084e-05
2.09383e-05
-2.79333e-05
2.31497e-05
-2.04639e-05
2.49916e-05
-1.47832e-05
2.66503e-05
-1.07336e-05
2.81596e-05
-7.7077e-06
2.9474e-05
-5.16303e-06
3.05118e-05
-2.67217e-06
3.11918e-05
6.61056e-08
3.14593e-05
3.21559e-06
3.13695e-05
6.81188e-06
3.10302e-05
1.09571e-05
3.05748e-05
1.57646e-05
3.0105e-05
2.10718e-05
3.04385e-05
2.68704e-05
3.04884e-05
3.49095e-05
2.36667e-05
4.09738e-05
5.05211e-05
2.15303e-06
1.50703e-05
5.6205e-06
-8.06344e-06
9.75259e-06
-2.77563e-05
1.34412e-05
-3.93281e-05
1.65092e-05
-4.25286e-05
1.90896e-05
-3.81888e-05
2.12322e-05
-3.00759e-05
2.30841e-05
-2.23158e-05
2.48291e-05
-1.65282e-05
2.65384e-05
-1.24429e-05
2.81776e-05
-9.34693e-06
2.96668e-05
-6.65217e-06
3.08995e-05
-3.9049e-06
3.17889e-05
-8.2334e-07
3.22766e-05
2.72794e-06
3.24127e-05
6.67582e-06
3.22418e-05
1.11279e-05
3.19261e-05
1.60803e-05
3.15356e-05
2.14622e-05
3.12969e-05
2.71091e-05
3.07452e-05
3.54612e-05
2.53224e-05
4.63967e-05
7.58434e-05
2.83308e-06
-2.83308e-06
3.73679e-06
-9.04288e-07
2.12034e-06
1.6166e-06
-1.52897e-06
3.64968e-06
-5.98075e-06
4.45185e-06
-1.07692e-05
4.78843e-06
-1.59746e-05
5.20524e-06
-2.218e-05
6.20551e-06
-2.99054e-05
7.72645e-06
-3.99439e-05
1.00382e-05
-5.34543e-05
1.35099e-05
-7.20003e-05
1.8546e-05
-9.82393e-05
2.62388e-05
-0.000135398
3.71593e-05
-0.00017584
4.04423e-05
-0.000189372
1.35322e-05
-0.000147675
-4.16969e-05
-5.86998e-05
-8.89752e-05
-5.86994e-05
-2.11143e-06
-7.21534e-07
-3.84241e-06
8.26203e-07
-6.14677e-06
3.92112e-06
-9.32024e-06
6.82378e-06
-1.28412e-05
7.97268e-06
-1.62038e-05
8.15103e-06
-1.99759e-05
8.97811e-06
-2.53061e-05
1.15352e-05
-3.30481e-05
1.54685e-05
-4.42424e-05
2.12321e-05
-6.02316e-05
2.94997e-05
-8.26089e-05
4.0924e-05
-0.000112885
5.6515e-05
-0.000151348
7.56219e-05
-0.000189127
7.82218e-05
-0.000199023
2.34274e-05
-0.000152083
-8.86362e-05
-6.05591e-05
-0.000180499
-0.000119259
-2.94928e-06
2.2279e-06
-4.7927e-06
2.66937e-06
-7.08644e-06
6.21466e-06
-9.94039e-06
9.67788e-06
-1.28481e-05
1.08801e-05
-1.55073e-05
1.08101e-05
-1.86417e-05
1.21135e-05
-2.35342e-05
1.64271e-05
-3.05629e-05
2.24969e-05
-4.05756e-05
3.12445e-05
-5.49213e-05
4.38456e-05
-7.54219e-05
6.14249e-05
-0.000104463
8.55563e-05
-0.000145037
0.000116196
-0.000190418
0.000123602
-0.000201556
3.45649e-05
-0.000147161
-0.00014303
-5.77471e-05
-0.000269913
-0.000177005
-2.12487e-06
4.35268e-06
-2.77483e-06
3.31919e-06
-4.86854e-06
8.30806e-06
-8.23876e-06
1.30482e-05
-1.17712e-05
1.44122e-05
-1.4491e-05
1.35296e-05
-1.71489e-05
1.47719e-05
-2.17181e-05
2.09958e-05
-2.80445e-05
2.88234e-05
-3.68742e-05
4.00745e-05
-4.95197e-05
5.6491e-05
-6.81173e-05
8.00225e-05
-9.62213e-05
0.00011366
-0.000138309
0.000158284
-0.000185743
0.000171036
-0.000187483
3.63053e-05
-0.00012728
-0.000203233
-5.1433e-05
-0.00034576
-0.000228439
-1.20598e-06
5.55836e-06
-7.52195e-07
2.86544e-06
-2.82143e-06
1.0377e-05
-7.09322e-06
1.73199e-05
-1.15581e-05
1.8877e-05
-1.4076e-05
1.6047e-05
-1.55453e-05
1.62412e-05
-1.9658e-05
2.51082e-05
-2.50892e-05
3.4255e-05
-3.25409e-05
4.75265e-05
-4.32779e-05
6.72278e-05
-5.9537e-05
9.62819e-05
-8.56286e-05
0.000139752
-0.000125013
0.000197668
-0.000164716
0.000210738
-0.000156418
2.8007e-05
-0.00010406
-0.00025559
-4.58112e-05
-0.00040401
-0.00027425
-1.31097e-06
6.86903e-06
8.45076e-07
7.09596e-07
-1.16777e-06
1.23895e-05
-6.51458e-06
2.26666e-05
-1.21418e-05
2.45043e-05
-1.41352e-05
1.80399e-05
-1.34555e-05
1.55618e-05
-1.72644e-05
2.89168e-05
-2.16014e-05
3.85921e-05
-2.7315e-05
5.32399e-05
-3.56461e-05
7.55588e-05
-4.83514e-05
0.000108987
-6.91885e-05
0.000160589
-9.85461e-05
0.000227026
-0.00011915
0.000231343
-0.000122269
3.11257e-05
-8.29015e-05
-0.000294958
-3.98318e-05
-0.000447079
-0.000314082
-4.01237e-07
7.2701e-06
3.40196e-06
-3.09328e-06
8.19276e-07
1.49719e-05
-6.24664e-06
2.97323e-05
-1.35443e-05
3.18021e-05
-1.47578e-05
1.92534e-05
-1.05524e-05
1.13567e-05
-1.45154e-05
3.28798e-05
-1.76046e-05
4.16812e-05
-2.12531e-05
5.68884e-05
-2.68303e-05
8.11358e-05
-3.49787e-05
0.000117135
-4.75316e-05
0.000173141
-6.31291e-05
0.000242624
-7.29589e-05
0.000241172
-8.7314e-05
4.54808e-05
-6.49101e-05
-0.000317362
-3.21326e-05
-0.000479857
-0.000346214
1.32351e-05
-5.96511e-06
8.1099e-06
2.03214e-06
3.844e-06
1.92377e-05
-5.5164e-06
3.90927e-05
-1.55905e-05
4.18763e-05
-1.58697e-05
1.95324e-05
-7.04572e-06
2.53282e-06
-1.14867e-05
3.73207e-05
-1.32178e-05
4.34121e-05
-1.43073e-05
5.79782e-05
-1.70572e-05
8.38857e-05
-2.06481e-05
0.000120726
-2.48731e-05
0.000177367
-2.66923e-05
0.000244443
-2.70355e-05
0.000241516
-3.07985e-05
4.92436e-05
-4.08482e-05
-0.000307312
-2.23671e-05
-0.000498338
-0.000368582
1.21626e-05
2.90769e-06
2.73441e-05
-2.32449e-05
3.97437e-05
-4.01559e-05
4.41652e-05
-4.37496e-05
4.43607e-05
-4.27242e-05
4.47864e-05
-3.86145e-05
4.6955e-05
-3.22445e-05
5.04316e-05
-2.57924e-05
5.45219e-05
-2.06185e-05
5.87195e-05
-1.66404e-05
6.26426e-05
-1.32701e-05
6.60373e-05
-1.00469e-05
6.87498e-05
-6.61743e-06
7.05788e-05
-2.6523e-06
7.14792e-05
1.82756e-06
7.20556e-05
6.09939e-06
7.21196e-05
1.1064e-05
7.18922e-05
1.63077e-05
7.1945e-05
2.14094e-05
7.2462e-05
2.65922e-05
7.46176e-05
3.33056e-05
8.19878e-05
3.90265e-05
5.82091e-05
9.96221e-05
2.31069e-05
-2.01992e-05
5.06204e-05
-5.07584e-05
6.52566e-05
-5.47922e-05
6.04764e-05
-3.89694e-05
5.04661e-05
-3.27138e-05
4.49646e-05
-3.3113e-05
4.52116e-05
-3.24915e-05
4.93745e-05
-2.99553e-05
5.53625e-05
-2.66066e-05
6.17658e-05
-2.30437e-05
6.75445e-05
-1.90488e-05
7.19911e-05
-1.44935e-05
7.48512e-05
-9.47752e-06
7.65692e-05
-4.3703e-06
7.78723e-05
5.24435e-07
7.77892e-05
6.18254e-06
7.74544e-05
1.13987e-05
7.6977e-05
1.67851e-05
7.77371e-05
2.06492e-05
8.01618e-05
2.41676e-05
8.51535e-05
2.83138e-05
9.4548e-05
2.96319e-05
3.98624e-05
0.000112895
3.33085e-05
-5.35077e-05
6.22394e-05
-7.96893e-05
6.32403e-05
-5.57931e-05
4.21366e-05
-1.78657e-05
2.69692e-05
-1.75464e-05
2.16552e-05
-2.77989e-05
2.09804e-05
-3.18167e-05
2.4743e-05
-3.37179e-05
3.17347e-05
-3.35983e-05
4.04644e-05
-3.17734e-05
4.99434e-05
-2.85278e-05
5.93744e-05
-2.39245e-05
6.83757e-05
-1.84788e-05
7.76622e-05
-1.36568e-05
8.3014e-05
-4.82729e-06
8.46727e-05
4.52382e-06
8.19659e-05
1.41054e-05
7.82309e-05
2.05202e-05
7.85644e-05
2.03157e-05
8.12014e-05
2.15306e-05
8.55156e-05
2.39996e-05
9.08051e-05
2.43425e-05
2.72425e-05
0.000103425
3.00969e-05
-8.36046e-05
1.61879e-05
-6.57802e-05
-1.10647e-06
-3.84986e-05
-1.20328e-05
-6.93924e-06
-1.34805e-05
-1.60987e-05
-1.69199e-05
-2.43595e-05
-2.37262e-05
-2.50104e-05
-2.96759e-05
-2.77683e-05
-3.494e-05
-2.83342e-05
-3.91718e-05
-2.75416e-05
-4.39636e-05
-2.3736e-05
-4.91113e-05
-1.87767e-05
-4.37548e-05
-2.38352e-05
-4.94649e-06
-5.24651e-05
4.50957e-05
-5.48694e-05
6.79756e-05
-1.83561e-05
7.61694e-05
5.91157e-06
8.1404e-05
1.52856e-05
8.77505e-05
1.39692e-05
8.92217e-05
2.00595e-05
8.98234e-05
2.33978e-05
9.12057e-05
2.29602e-05
2.31974e-05
9.52508e-05
-2.02713e-05
-6.33333e-05
-3.0785e-05
-5.52663e-05
-3.7322e-05
-3.19615e-05
-2.08254e-05
-2.34357e-05
-1.24272e-05
-2.44969e-05
-1.23017e-05
-2.44851e-05
-1.35199e-05
-2.37923e-05
-1.62198e-05
-2.50685e-05
-1.78942e-05
-2.66598e-05
-1.67417e-05
-2.86941e-05
-1.30898e-05
-2.73878e-05
-1.19875e-05
-1.98788e-05
-2.02036e-05
-1.5619e-05
-4.12052e-05
-3.14635e-05
-5.82665e-05
-3.7808e-05
-5.04678e-05
-2.61548e-05
-3.0181e-05
-1.43751e-05
2.67013e-05
-4.15967e-05
6.36917e-05
-2.30212e-05
7.71834e-05
6.56782e-06
8.72634e-05
1.33178e-05
9.39433e-05
1.62803e-05
2.16965e-05
9.54442e-05
-2.63267e-05
-3.70064e-05
-2.77136e-05
-5.38793e-05
-2.07059e-05
-3.89692e-05
-1.51287e-05
-2.90129e-05
-1.36184e-05
-2.60072e-05
-1.34977e-05
-2.46057e-05
-1.40302e-05
-2.32598e-05
-1.55185e-05
-2.35801e-05
-1.61021e-05
-2.60763e-05
-1.51367e-05
-2.96594e-05
-1.28414e-05
-2.96831e-05
-1.14809e-05
-2.12392e-05
-1.55288e-05
-1.1571e-05
-2.48858e-05
-2.21064e-05
-1.61079e-05
-4.65858e-05
9.91682e-06
-5.21794e-05
4.37384e-05
-4.81966e-05
6.08668e-05
-5.8725e-05
6.96167e-05
-3.1771e-05
4.76618e-05
2.85229e-05
4.59842e-05
1.49956e-05
6.88688e-05
-6.60433e-06
6.42172e-06
8.41436e-05
-1.10226e-05
-2.59837e-05
-1.38569e-05
-5.10449e-05
-1.48992e-05
-3.79268e-05
-1.33612e-05
-3.05508e-05
-1.24013e-05
-2.69671e-05
-1.20941e-05
-2.49129e-05
-1.23861e-05
-2.29679e-05
-1.32556e-05
-2.27107e-05
-1.4173e-05
-2.5159e-05
-1.47612e-05
-2.90713e-05
-1.42271e-05
-3.02172e-05
-1.17729e-05
-2.36934e-05
-7.85192e-06
-1.54919e-05
-3.01435e-06
-2.6944e-05
3.025e-06
-5.26251e-05
1.38738e-05
-6.30281e-05
3.53315e-05
-6.96541e-05
5.29461e-05
-7.63395e-05
7.83144e-05
-5.7139e-05
0.000105395
1.44218e-06
8.90259e-05
3.13652e-05
4.26207e-05
3.9801e-05
5.25682e-05
-3.52563e-06
-5.89681e-06
-2.00869e-05
-9.74021e-06
-4.72016e-05
-1.10844e-05
-3.65827e-05
-1.08671e-05
-3.07682e-05
-1.01328e-05
-2.77013e-05
-9.64283e-06
-2.54028e-05
-9.52855e-06
-2.30822e-05
-1.01128e-05
-2.21265e-05
-1.1391e-05
-2.38809e-05
-1.287e-05
-2.75923e-05
-1.27415e-05
-3.03458e-05
-7.75405e-06
-2.86809e-05
2.62356e-06
-2.58696e-05
1.17362e-05
-3.60565e-05
1.1495e-05
-5.23839e-05
1.36612e-05
-6.51942e-05
2.06178e-05
-7.66105e-05
3.20704e-05
-8.77918e-05
5.44858e-05
-7.95543e-05
9.6557e-05
-4.06289e-05
0.000124983
2.93912e-06
0.000114322
5.04629e-05
9.62459e-05
7.0644e-05
-3.91689e-06
-1.617e-05
-6.98015e-06
-4.41384e-05
-7.98672e-06
-3.55761e-05
-8.23223e-06
-3.05227e-05
-7.83726e-06
-2.80963e-05
-7.22079e-06
-2.60193e-05
-6.51612e-06
-2.37869e-05
-6.18636e-06
-2.24563e-05
-6.63241e-06
-2.34349e-05
-7.58429e-06
-2.66405e-05
-7.40096e-06
-3.05293e-05
-3.03771e-06
-3.30442e-05
6.07621e-06
-3.49835e-05
1.26696e-05
-4.26499e-05
1.37097e-05
-5.34238e-05
1.42381e-05
-6.57224e-05
1.57285e-05
-7.81007e-05
1.87088e-05
-9.07719e-05
3.30969e-05
-9.39423e-05
6.30455e-05
-7.05773e-05
9.51409e-05
-2.91561e-05
0.000115689
2.99147e-05
9.0334e-05
0.000121601
-1.96767e-06
-1.42024e-05
-4.4774e-06
-4.16289e-05
-5.66598e-06
-3.43876e-05
-5.99442e-06
-3.01942e-05
-5.73765e-06
-2.8353e-05
-5.0023e-06
-2.67546e-05
-3.79019e-06
-2.4999e-05
-2.47764e-06
-2.37688e-05
-1.6423e-06
-2.42703e-05
-1.38674e-06
-2.68962e-05
-9.74538e-07
-3.09415e-05
1.32066e-06
-3.53394e-05
5.74729e-06
-3.941e-05
8.99319e-06
-4.58956e-05
9.77977e-06
-5.42102e-05
8.11145e-06
-6.40538e-05
5.32763e-06
-7.53167e-05
1.60321e-06
-8.70474e-05
2.90761e-06
-9.52466e-05
1.58335e-05
-8.35031e-05
3.82045e-05
-5.15271e-05
6.4425e-05
3.69417e-06
6.33469e-05
9.14121e-05
-8.64e-07
-1.33385e-05
-2.86721e-06
-3.96259e-05
-3.98029e-06
-3.32746e-05
-4.34504e-06
-2.98295e-05
-4.17654e-06
-2.85215e-05
-3.47533e-06
-2.74558e-05
-2.13663e-06
-2.63377e-05
-3.51251e-07
-2.55542e-05
1.32877e-06
-2.59503e-05
2.49799e-06
-2.80654e-05
3.19973e-06
-3.16432e-05
3.90311e-06
-3.60427e-05
5.10255e-06
-4.06093e-05
5.4657e-06
-4.62586e-05
3.64613e-06
-5.23904e-05
-7.55928e-07
-5.96516e-05
-7.49747e-06
-6.8575e-05
-1.57603e-05
-7.87845e-05
-2.3759e-05
-8.72479e-05
-2.68197e-05
-8.04425e-05
-2.21594e-05
-5.61873e-05
-5.46981e-06
-1.29955e-05
3.49612e-05
2.29159e-05
-3.07019e-07
-1.30316e-05
-1.8895e-06
-3.80436e-05
-2.85277e-06
-3.23115e-05
-3.22252e-06
-2.94598e-05
-3.16353e-06
-2.85805e-05
-2.64729e-06
-2.7972e-05
-1.56024e-06
-2.74247e-05
4.62913e-08
-2.71608e-05
1.75051e-06
-2.76546e-05
3.05217e-06
-2.9367e-05
3.66991e-06
-3.22609e-05
3.57787e-06
-3.59505e-05
2.91676e-06
-3.99481e-05
1.11955e-06
-4.44612e-05
-2.24495e-06
-4.90258e-05
-7.74886e-06
-5.41475e-05
-1.5956e-05
-6.03678e-05
-2.65328e-05
-6.82077e-05
-3.90733e-05
-7.47074e-05
-4.79356e-05
-7.15803e-05
-5.06789e-05
-5.34441e-05
-4.2777e-05
-2.08975e-05
1.46174e-05
-2.24333e-05
-3.93029e-08
-1.29925e-05
-1.30807e-06
-3.67751e-05
-2.14237e-06
-3.14774e-05
-2.51686e-06
-2.90854e-05
-2.56702e-06
-2.85304e-05
-2.29411e-06
-2.8245e-05
-1.63402e-06
-2.80848e-05
-5.9744e-07
-2.81973e-05
5.68455e-07
-2.88204e-05
1.43315e-06
-3.02316e-05
1.64109e-06
-3.24687e-05
1.02178e-06
-3.53311e-05
-4.53385e-07
-3.84728e-05
-2.98473e-06
-4.19297e-05
-6.51605e-06
-4.54944e-05
-1.16402e-05
-4.90233e-05
-1.93484e-05
-5.26596e-05
-3.03533e-05
-5.72027e-05
-4.39648e-05
-6.10958e-05
-5.5584e-05
-5.99611e-05
-5.99739e-05
-4.90543e-05
-5.32171e-05
-2.76544e-05
-2.34154e-06
-3.62582e-05
2.59273e-08
-1.30185e-05
-9.94574e-07
-3.57548e-05
-1.72114e-06
-3.07509e-05
-2.11365e-06
-2.86931e-05
-2.27124e-06
-2.83729e-05
-2.22503e-06
-2.82912e-05
-1.97148e-06
-2.83384e-05
-1.52756e-06
-2.86413e-05
-1.02725e-06
-2.93207e-05
-7.59981e-07
-3.04988e-05
-1.0231e-06
-3.22055e-05
-1.99599e-06
-3.43582e-05
-3.68486e-06
-3.67839e-05
-6.20929e-06
-3.94053e-05
-9.60066e-06
-4.2103e-05
-1.38895e-05
-4.47345e-05
-1.94451e-05
-4.71039e-05
-2.76977e-05
-4.89501e-05
-3.94097e-05
-4.93838e-05
-5.23464e-05
-4.70245e-05
-6.15399e-05
-3.98609e-05
-6.2505e-05
-2.66894e-05
-1.06753e-05
-5.41713e-05
1.83708e-08
-1.30371e-05
-8.43415e-07
-3.48932e-05
-1.50267e-06
-3.00918e-05
-1.92064e-06
-2.82752e-05
-2.17808e-06
-2.81156e-05
-2.31284e-06
-2.81566e-05
-2.35035e-06
-2.8301e-05
-2.33544e-06
-2.86562e-05
-2.35668e-06
-2.92995e-05
-2.5808e-06
-3.02747e-05
-3.19374e-06
-3.15926e-05
-4.34143e-06
-3.32105e-05
-6.08873e-06
-3.50366e-05
-8.53871e-06
-3.69553e-05
-1.1795e-05
-3.88467e-05
-1.59628e-05
-4.05667e-05
-2.11425e-05
-4.19241e-05
-2.76029e-05
-4.24896e-05
-3.54758e-05
-4.15109e-05
-4.42049e-05
-3.82954e-05
-5.18258e-05
-3.22401e-05
-5.53561e-05
-2.3159e-05
-1.2682e-05
-5.33494e-05
-2.46205e-08
-1.30126e-05
-7.90619e-07
-3.41273e-05
-1.41537e-06
-2.94672e-05
-1.86295e-06
-2.78277e-05
-2.20718e-06
-2.77714e-05
-2.48231e-06
-2.78815e-05
-2.71947e-06
-2.80639e-05
-2.96936e-06
-2.84064e-05
-3.30768e-06
-2.89612e-05
-3.83406e-06
-2.97484e-05
-4.65987e-06
-3.07668e-05
-5.89777e-06
-3.19726e-05
-7.62866e-06
-3.33058e-05
-9.92596e-06
-3.46581e-05
-1.2859e-05
-3.59137e-05
-1.65157e-05
-3.69098e-05
-2.09889e-05
-3.74509e-05
-2.62426e-05
-3.72358e-05
-3.19208e-05
-3.58327e-05
-3.74128e-05
-3.28033e-05
-4.17834e-05
-2.78695e-05
-4.37022e-05
-2.12402e-05
-1.40152e-05
-4.2369e-05
-7.98773e-08
-1.29328e-05
-7.94325e-07
-3.3413e-05
-1.40674e-06
-2.88549e-05
-1.88551e-06
-2.7349e-05
-2.30416e-06
-2.73529e-05
-2.69136e-06
-2.74944e-05
-3.07255e-06
-2.76828e-05
-3.49297e-06
-2.7986e-05
-4.01443e-06
-2.84397e-05
-4.70866e-06
-2.90541e-05
-5.65622e-06
-2.98192e-05
-6.93385e-06
-3.0695e-05
-8.60646e-06
-3.16332e-05
-1.07288e-05
-3.25359e-05
-1.33359e-05
-3.33066e-05
-1.64447e-05
-3.3801e-05
-2.00473e-05
-3.38483e-05
-2.40701e-05
-3.3213e-05
-2.82681e-05
-3.16347e-05
-3.21642e-05
-2.89072e-05
-3.50263e-05
-2.50073e-05
-3.60772e-05
-2.01892e-05
-1.50865e-05
-3.50059e-05
-1.31278e-07
-1.28015e-05
-8.27e-07
-3.27173e-05
-1.44217e-06
-2.82397e-05
-1.95062e-06
-2.68406e-05
-2.42995e-06
-2.68736e-05
-2.90565e-06
-2.70188e-05
-3.3969e-06
-2.71916e-05
-3.93788e-06
-2.74451e-05
-4.57498e-06
-2.78026e-05
-5.36721e-06
-2.82619e-05
-6.37261e-06
-2.88138e-05
-7.6456e-06
-2.94221e-05
-9.23635e-06
-3.00425e-05
-1.1173e-05
-3.05993e-05
-1.34756e-05
-3.1004e-05
-1.61304e-05
-3.11463e-05
-1.90885e-05
-3.08903e-05
-2.22232e-05
-3.00785e-05
-2.5305e-05
-2.85529e-05
-2.79963e-05
-2.62159e-05
-2.98772e-05
-2.31263e-05
-3.05274e-05
-1.95389e-05
-1.58657e-05
-2.97482e-05
-1.72858e-07
-1.26287e-05
-8.69652e-07
-3.20206e-05
-1.49422e-06
-2.76152e-05
-2.03087e-06
-2.63041e-05
-2.55778e-06
-2.63468e-05
-3.09889e-06
-2.64778e-05
-3.66945e-06
-2.66211e-05
-4.29498e-06
-2.68195e-05
-5.01299e-06
-2.70846e-05
-5.85915e-06
-2.74156e-05
-6.88444e-06
-2.77885e-05
-8.118e-06
-2.81885e-05
-9.59891e-06
-2.85616e-05
-1.13421e-05
-2.88562e-05
-1.33406e-05
-2.90056e-05
-1.55689e-05
-2.89182e-05
-1.79614e-05
-2.84979e-05
-2.04017e-05
-2.76383e-05
-2.27083e-05
-2.62463e-05
-2.46373e-05
-2.42867e-05
-2.5916e-05
-2.18475e-05
-2.6307e-05
-1.91479e-05
-1.64802e-05
-2.56926e-05
-2.03858e-07
-1.24249e-05
-9.13424e-07
-3.13111e-05
-1.55078e-06
-2.6978e-05
-2.109e-06
-2.5746e-05
-2.6709e-06
-2.5785e-05
-3.2574e-06
-2.58913e-05
-3.88022e-06
-2.59983e-05
-4.55894e-06
-2.61408e-05
-5.31958e-06
-2.63239e-05
-6.19343e-06
-2.65417e-05
-7.20314e-06
-2.67787e-05
-8.38232e-06
-2.70092e-05
-9.74589e-06
-2.7198e-05
-1.12955e-05
-2.73066e-05
-1.30261e-05
-2.7275e-05
-1.48987e-05
-2.70457e-05
-1.68492e-05
-2.65476e-05
-1.87762e-05
-2.57114e-05
-2.05372e-05
-2.44853e-05
-2.19582e-05
-2.28656e-05
-2.28594e-05
-2.09464e-05
-2.30891e-05
-1.89183e-05
-1.69948e-05
-2.25747e-05
-2.23264e-07
-1.22017e-05
-9.50824e-07
-3.05837e-05
-1.59804e-06
-2.63309e-05
-2.17317e-06
-2.51709e-05
-2.75903e-06
-2.51992e-05
-3.37456e-06
-2.52758e-05
-4.02912e-06
-2.53438e-05
-4.73763e-06
-2.54323e-05
-5.51577e-06
-2.55457e-05
-6.38641e-06
-2.5671e-05
-7.369e-06
-2.57961e-05
-8.48049e-06
-2.58977e-05
-9.72913e-06
-2.59493e-05
-1.11145e-05
-2.59213e-05
-1.26145e-05
-2.57752e-05
-1.41982e-05
-2.54622e-05
-1.58057e-05
-2.49404e-05
-1.73549e-05
-2.41622e-05
-1.87349e-05
-2.31053e-05
-1.98208e-05
-2.17797e-05
-2.04883e-05
-2.0279e-05
-2.06345e-05
-1.87722e-05
-1.74323e-05
-2.0197e-05
-2.32254e-07
-1.19695e-05
-9.786e-07
-2.98375e-05
-1.63368e-06
-2.5676e-05
-2.21769e-06
-2.4587e-05
-2.8168e-06
-2.46001e-05
-3.44744e-06
-2.46453e-05
-4.11571e-06
-2.46756e-05
-4.83221e-06
-2.47159e-05
-5.61173e-06
-2.47662e-05
-6.46673e-06
-2.48161e-05
-7.41039e-06
-2.48524e-05
-8.45129e-06
-2.48567e-05
-9.59248e-06
-2.4808e-05
-1.08285e-05
-2.46853e-05
-1.21425e-05
-2.44613e-05
-1.35004e-05
-2.41044e-05
-1.48524e-05
-2.35885e-05
-1.61298e-05
-2.28848e-05
-1.72506e-05
-2.19845e-05
-1.81234e-05
-2.0907e-05
-1.8659e-05
-1.97434e-05
-1.87814e-05
-1.86499e-05
-1.77775e-05
-1.84362e-05
-2.33357e-07
-1.17363e-05
-9.95959e-07
-2.9075e-05
-1.65104e-06
-2.50209e-05
-2.2379e-06
-2.40002e-05
-2.84161e-06
-2.39965e-05
-3.47656e-06
-2.40104e-05
-4.14665e-06
-2.40056e-05
-4.86012e-06
-2.40025e-05
-5.62666e-06
-2.39998e-05
-6.45486e-06
-2.3988e-05
-7.3525e-06
-2.39548e-05
-8.3252e-06
-2.38839e-05
-9.37162e-06
-2.37615e-05
-1.04848e-05
-2.35721e-05
-1.1648e-05
-2.32982e-05
-1.28322e-05
-2.29204e-05
-1.39942e-05
-2.24266e-05
-1.50832e-05
-2.17959e-05
-1.60352e-05
-2.10326e-05
-1.67826e-05
-2.01596e-05
-1.72614e-05
-1.92646e-05
-1.74125e-05
-1.84986e-05
-1.80017e-05
-1.71882e-05
-2.29153e-07
-1.15072e-05
-9.97358e-07
-2.83068e-05
-1.64705e-06
-2.43712e-05
-2.22986e-06
-2.34173e-05
-2.83025e-06
-2.33961e-05
-3.46024e-06
-2.33805e-05
-4.12222e-06
-2.33438e-05
-4.82234e-06
-2.33026e-05
-5.56744e-06
-2.32549e-05
-6.36395e-06
-2.31916e-05
-7.21654e-06
-2.31022e-05
-8.12256e-06
-2.29778e-05
-9.08588e-06
-2.27982e-05
-1.00978e-05
-2.25603e-05
-1.11426e-05
-2.22535e-05
-1.21962e-05
-2.18668e-05
-1.32275e-05
-2.13954e-05
-1.41876e-05
-2.08358e-05
-1.50369e-05
-2.01832e-05
-1.57267e-05
-1.94697e-05
-1.62089e-05
-1.87824e-05
-1.64389e-05
-1.82685e-05
-1.80746e-05
-1.63662e-05
-2.20993e-07
-1.12862e-05
-9.80735e-07
-2.7547e-05
-1.6147e-06
-2.37371e-05
-2.18848e-06
-2.28435e-05
-2.77935e-06
-2.28052e-05
-3.39723e-06
-2.27627e-05
-4.0436e-06
-2.26975e-05
-4.72357e-06
-2.26228e-05
-5.4418e-06
-2.25368e-05
-6.20194e-06
-2.24315e-05
-7.00686e-06
-2.22972e-05
-7.85947e-06
-2.21251e-05
-8.74984e-06
-2.19078e-05
-9.67828e-06
-2.1632e-05
-1.06319e-05
-2.12999e-05
-1.1588e-05
-2.09108e-05
-1.25242e-05
-2.04593e-05
-1.34118e-05
-1.99482e-05
-1.42136e-05
-1.93814e-05
-1.48906e-05
-1.87926e-05
-1.54174e-05
-1.82554e-05
-1.57596e-05
-1.79262e-05
-1.7952e-05
-1.58824e-05
-2.06887e-07
-1.10792e-05
-9.389e-07
-2.68148e-05
-1.55075e-06
-2.31252e-05
-2.10935e-06
-2.22849e-05
-2.68479e-06
-2.22298e-05
-3.28512e-06
-2.21624e-05
-3.91187e-06
-2.20709e-05
-4.5666e-06
-2.19681e-05
-5.25418e-06
-2.18493e-05
-5.97811e-06
-2.17076e-05
-6.73946e-06
-2.15358e-05
-7.53726e-06
-2.13273e-05
-8.37019e-06
-2.10748e-05
-9.23133e-06
-2.07709e-05
-1.01119e-05
-2.04193e-05
-1.10009e-05
-2.00218e-05
-1.18782e-05
-1.95819e-05
-1.27228e-05
-1.91035e-05
-1.35088e-05
-1.85952e-05
-1.42171e-05
-1.80841e-05
-1.48285e-05
-1.76439e-05
-1.53244e-05
-1.74303e-05
-1.75947e-05
-1.56818e-05
-1.81237e-07
-1.08979e-05
-8.69563e-07
-2.61264e-05
-1.45103e-06
-2.25437e-05
-1.99018e-06
-2.17458e-05
-2.54389e-06
-2.16762e-05
-3.12022e-06
-2.15861e-05
-3.72018e-06
-2.14709e-05
-4.3476e-06
-2.13408e-05
-5.00487e-06
-2.11921e-05
-5.69254e-06
-2.102e-05
-6.41332e-06
-2.0815e-05
-7.16583e-06
-2.05747e-05
-7.94888e-06
-2.02918e-05
-8.75618e-06
-1.99636e-05
-9.58512e-06
-1.95904e-05
-1.04232e-05
-1.91836e-05
-1.1264e-05
-1.87409e-05
-1.20927e-05
-1.82747e-05
-1.2895e-05
-1.77929e-05
-1.36613e-05
-1.73177e-05
-1.43803e-05
-1.6925e-05
-1.50516e-05
-1.67591e-05
-1.69884e-05
-1.56581e-05
-1.38881e-07
-1.07589e-05
-7.72813e-07
-2.54925e-05
-1.32073e-06
-2.19958e-05
-1.8347e-06
-2.12318e-05
-2.36059e-06
-2.11503e-05
-2.9069e-06
-2.10398e-05
-3.47549e-06
-2.09023e-05
-4.06941e-06
-2.07468e-05
-4.69104e-06
-2.05705e-05
-5.34309e-06
-2.03679e-05
-6.02316e-06
-2.01349e-05
-6.73343e-06
-1.98644e-05
-7.47199e-06
-1.95532e-05
-8.23499e-06
-1.92006e-05
-9.01974e-06
-1.88056e-05
-9.82553e-06
-1.83778e-05
-1.06465e-05
-1.792e-05
-1.14769e-05
-1.74443e-05
-1.23127e-05
-1.6957e-05
-1.31524e-05
-1.64779e-05
-1.40061e-05
-1.60712e-05
-1.48706e-05
-1.58946e-05
-1.61009e-05
-1.57581e-05
-7.49078e-08
-1.0684e-05
-6.5616e-07
-2.49114e-05
-1.16769e-06
-2.14844e-05
-1.65097e-06
-2.07486e-05
-2.14308e-06
-2.06581e-05
-2.65251e-06
-2.05303e-05
-3.18245e-06
-2.03724e-05
-3.73572e-06
-2.01936e-05
-4.31527e-06
-1.99909e-05
-4.92368e-06
-1.97594e-05
-5.55981e-06
-1.94986e-05
-6.22519e-06
-1.91989e-05
-6.91886e-06
-1.88595e-05
-7.64032e-06
-1.84791e-05
-8.38836e-06
-1.80575e-05
-9.16555e-06
-1.76006e-05
-9.96917e-06
-1.71164e-05
-1.08055e-05
-1.6608e-05
-1.16776e-05
-1.60848e-05
-1.25946e-05
-1.55607e-05
-1.35745e-05
-1.50912e-05
-1.46453e-05
-1.48237e-05
-1.49081e-05
-1.58382e-05
1.01177e-08
-1.06943e-05
-5.28114e-07
-2.43733e-05
-1.00468e-06
-2.10079e-05
-1.45272e-06
-2.03005e-05
-1.90436e-06
-2.02065e-05
-2.37095e-06
-2.00638e-05
-2.85364e-06
-1.98897e-05
-3.35731e-06
-1.96899e-05
-3.88531e-06
-1.94628e-05
-4.43808e-06
-1.92064e-05
-5.02038e-06
-1.89161e-05
-5.63134e-06
-1.85879e-05
-6.27187e-06
-1.8219e-05
-6.94312e-06
-1.78078e-05
-7.64424e-06
-1.73562e-05
-8.38071e-06
-1.6864e-05
-9.15914e-06
-1.63379e-05
-9.98664e-06
-1.57804e-05
-1.08766e-05
-1.51948e-05
-1.18472e-05
-1.459e-05
-1.2926e-05
-1.40123e-05
-1.41595e-05
-1.35903e-05
-1.34627e-05
-1.56049e-05
1.1264e-07
-1.0807e-05
-4.00992e-07
-2.38597e-05
-8.44652e-07
-2.05642e-05
-1.25249e-06
-1.98927e-05
-1.65912e-06
-1.97999e-05
-2.07673e-06
-1.96462e-05
-2.50729e-06
-1.94591e-05
-2.95391e-06
-1.92432e-05
-3.41987e-06
-1.89966e-05
-3.90882e-06
-1.87172e-05
-4.42307e-06
-1.84017e-05
-4.96424e-06
-1.80467e-05
-5.53411e-06
-1.76491e-05
-6.13448e-06
-1.72072e-05
-6.76937e-06
-1.6721e-05
-7.44194e-06
-1.61911e-05
-8.16276e-06
-1.56169e-05
-8.94455e-06
-1.49986e-05
-9.80519e-06
-1.43341e-05
-1.07672e-05
-1.36279e-05
-1.18712e-05
-1.29083e-05
-1.31795e-05
-1.22819e-05
-1.18561e-05
-1.47861e-05
2.26719e-07
-1.10337e-05
-2.85262e-07
-2.33478e-05
-6.9804e-07
-2.01515e-05
-1.06602e-06
-1.95248e-05
-1.42764e-06
-1.94383e-05
-1.79696e-06
-1.92769e-05
-2.17363e-06
-1.90824e-05
-2.56093e-06
-1.88558e-05
-2.96184e-06
-1.85955e-05
-3.37933e-06
-1.82995e-05
-3.81591e-06
-1.7965e-05
-4.27403e-06
-1.75885e-05
-4.75611e-06
-1.71668e-05
-5.26491e-06
-1.66981e-05
-5.80447e-06
-1.61811e-05
-6.38033e-06
-1.56151e-05
-7.0017e-06
-1.49955e-05
-7.68256e-06
-1.43176e-05
-8.44206e-06
-1.35744e-05
-9.30584e-06
-1.2764e-05
-1.03149e-05
-1.18989e-05
-1.15497e-05
-1.1047e-05
-1.02718e-05
-1.31339e-05
3.50393e-07
-1.13842e-05
-1.87926e-07
-2.28096e-05
-5.79365e-07
-1.97601e-05
-9.09627e-07
-1.91946e-05
-1.23171e-06
-1.91162e-05
-1.55876e-06
-1.89498e-05
-1.88801e-06
-1.87531e-05
-2.22188e-06
-1.85218e-05
-2.56231e-06
-1.8255e-05
-2.91137e-06
-1.79504e-05
-3.27121e-06
-1.76051e-05
-3.64405e-06
-1.72155e-05
-4.03219e-06
-1.67785e-05
-4.43814e-06
-1.62919e-05
-4.86457e-06
-1.57545e-05
-5.31684e-06
-1.51628e-05
-5.80148e-06
-1.45108e-05
-6.32927e-06
-1.37897e-05
-6.91527e-06
-1.29882e-05
-7.58015e-06
-1.20988e-05
-8.36167e-06
-1.11171e-05
-9.33653e-06
-1.0072e-05
-8.98096e-06
-1.06274e-05
4.75832e-07
-1.186e-05
-1.14693e-07
-2.22192e-05
-4.95009e-07
-1.93799e-05
-7.93226e-07
-1.88964e-05
-1.08838e-06
-1.8821e-05
-1.38461e-06
-1.86535e-05
-1.6785e-06
-1.84592e-05
-1.97174e-06
-1.82286e-05
-2.26513e-06
-1.79615e-05
-2.55949e-06
-1.7656e-05
-2.85614e-06
-1.73083e-05
-3.15643e-06
-1.69152e-05
-3.46157e-06
-1.64732e-05
-3.77234e-06
-1.5981e-05
-4.08993e-06
-1.54368e-05
-4.41548e-06
-1.48371e-05
-4.75162e-06
-1.41745e-05
-5.10256e-06
-1.34384e-05
-5.47404e-06
-1.26165e-05
-5.8759e-06
-1.16968e-05
-6.32924e-06
-1.06637e-05
-6.88888e-06
-9.5124e-06
-8.21992e-06
-7.64991e-06
5.91725e-07
-1.24519e-05
-6.79339e-08
-2.15597e-05
-4.43562e-07
-1.90043e-05
-7.20236e-07
-1.86196e-05
-9.99895e-07
-1.85413e-05
-1.27686e-06
-1.83766e-05
-1.54912e-06
-1.8187e-05
-1.81654e-06
-1.79612e-05
-2.07925e-06
-1.76987e-05
-2.33791e-06
-1.73972e-05
-2.59263e-06
-1.70536e-05
-2.84361e-06
-1.66642e-05
-3.09061e-06
-1.62263e-05
-3.33213e-06
-1.57393e-05
-3.56599e-06
-1.52027e-05
-3.78941e-06
-1.46134e-05
-3.99947e-06
-1.39641e-05
-4.19199e-06
-1.32458e-05
-4.36043e-06
-1.24481e-05
-4.4998e-06
-1.15575e-05
-4.60677e-06
-1.05567e-05
-4.69558e-06
-9.42351e-06
-8.12329e-06
-4.79207e-06
6.90917e-07
-1.31429e-05
-3.98403e-08
-2.0829e-05
-4.14129e-07
-1.863e-05
-6.75038e-07
-1.83587e-05
-9.48385e-07
-1.82679e-05
-1.21193e-06
-1.8113e-05
-1.47017e-06
-1.79288e-05
-1.72259e-06
-1.77087e-05
-1.96868e-06
-1.74526e-05
-2.20803e-06
-1.71579e-05
-2.44049e-06
-1.68214e-05
-2.66564e-06
-1.64393e-05
-2.88168e-06
-1.60102e-05
-3.08435e-06
-1.55365e-05
-3.26897e-06
-1.50179e-05
-3.42936e-06
-1.44529e-05
-3.55777e-06
-1.38358e-05