/*--------------------------------*- C++ -*----------------------------------*\
| =========                 |                                                 |
| \\      /  F ield         | OpenFOAM: The Open Source CFD Toolbox           |
|  \\    /   O peration     | Version:  2206                                  |
|   \\  /    A nd           | Website:  www.openfoam.com                      |
|    \\/     M anipulation  |                                                 |
\*---------------------------------------------------------------------------*/
FoamFile
{
    version     2.0;
    format      ascii;
    arch        "LSB;label=32;scalar=64";
    class       volVectorField;
    location    "0.45";
    object      U;
}
// * * * * * * * * * * * * * * * * * * * * * * * * * * * * * * * * * * * * * //

dimensions      [0 1 -1 0 0 0 0];

internalField   nonuniform List<vector> 
2268
(
(-0.035512 0.0104113 0)
(-0.0578802 0.0018594 0)
(-0.0358752 -0.00919556 0)
(0.0188845 -0.0149537 0)
(0.0888015 -0.0169029 0)
(0.158508 -0.0155972 0)
(0.219592 -0.0125921 0)
(0.266909 -0.00925646 0)
(0.300128 -0.00630304 0)
(0.321753 -0.00394846 0)
(0.334701 -0.00213702 0)
(0.340995 -0.000684875 0)
(0.341818 0.00106289 0)
(0.335093 0.00357231 0)
(0.318406 0.00750947 0)
(0.2873 0.0135332 0)
(0.234708 0.0218517 0)
(0.154521 0.0296901 0)
(0.0392319 0.0245023 0)
(-0.0343025 0.0134796 0)
(-0.161502 0.02814 0)
(-0.238183 0.00681873 0)
(-0.0783555 -0.0596788 0)
(-0.0428538 0.0311474 0)
(-0.0546335 0.00282902 0)
(-0.0321764 -0.0282467 0)
(0.0236725 -0.0451927 0)
(0.0934561 -0.0508976 0)
(0.162445 -0.0469178 0)
(0.222435 -0.0379352 0)
(0.2687 -0.0280201 0)
(0.30129 -0.0192943 0)
(0.322853 -0.01237 0)
(0.336263 -0.00706336 0)
(0.343698 -0.00283601 0)
(0.346232 0.00123545 0)
(0.346459 0.0061538 0)
(0.345113 0.013008 0)
(0.341893 0.0235219 0)
(0.332697 0.0394935 0)
(0.306011 0.0611131 0)
(0.226339 0.0744496 0)
(0.109656 0.0761324 0)
(-0.101045 0.0652988 0)
(-0.151073 -0.0134952 0)
(-0.0110423 -0.132298 0)
(-0.0389228 0.0513488 0)
(-0.0488205 0.00232447 0)
(-0.0244847 -0.0476272 0)
(0.0312786 -0.0752087 0)
(0.0995355 -0.0842281 0)
(0.166477 -0.0773014 0)
(0.223873 -0.062254 0)
(0.26761 -0.0458628 0)
(0.298396 -0.0316304 0)
(0.319147 -0.0204704 0)
(0.332677 -0.0119924 0)
(0.340849 -0.00530215 0)
(0.344611 0.000478366 0)
(0.344176 0.00650044 0)
(0.339616 0.0139807 0)
(0.331796 0.0250082 0)
(0.323396 0.0427977 0)
(0.320034 0.0721729 0)
(0.306222 0.107539 0)
(0.253434 0.137124 0)
(0.109055 0.129698 0)
(-0.00373696 0.0047432 0)
(0.0520615 -0.148037 0)
(-0.0339436 0.0689484 0)
(-0.0396758 0.000873101 0)
(-0.013606 -0.0670364 0)
(0.0405733 -0.104686 0)
(0.106149 -0.116474 0)
(0.170467 -0.10635 0)
(0.224676 -0.0851775 0)
(0.265275 -0.0625772 0)
(0.293887 -0.043348 0)
(0.313833 -0.0285018 0)
(0.327808 -0.0173018 0)
(0.337328 -0.00846549 0)
(0.342999 -0.000620829 0)
(0.344806 0.00751363 0)
(0.342406 0.0172625 0)
(0.335519 0.0300042 0)
(0.324806 0.0476354 0)
(0.315175 0.0745109 0)
(0.317368 0.114966 0)
(0.323097 0.164184 0)
(0.273229 0.178247 0)
(0.178403 0.0535698 0)
(0.12165 -0.0982806 0)
(-0.0285407 0.0826525 0)
(-0.026492 -0.00263698 0)
(-0.000121469 -0.0852606 0)
(0.0504011 -0.132424 0)
(0.112104 -0.147015 0)
(0.173394 -0.13371 0)
(0.22431 -0.106357 0)
(0.261686 -0.0778221 0)
(0.288167 -0.0542221 0)
(0.307558 -0.0364045 0)
(0.322371 -0.0230741 0)
(0.333688 -0.0124766 0)
(0.341685 -0.00290238 0)
(0.346071 0.00715422 0)
(0.346458 0.0189782 0)
(0.342648 0.0337477 0)
(0.335024 0.0527089 0)
(0.324491 0.0774311 0)
(0.318985 0.11143 0)
(0.335545 0.160787 0)
(0.346372 0.192342 0)
(0.282457 0.111828 0)
(0.172313 -0.019879 0)
(-0.0217318 0.0915118 0)
(-0.00840292 -0.008506 0)
(0.0171418 -0.102131 0)
(0.0636245 -0.15844 0)
(0.119927 -0.176195 0)
(0.176381 -0.159797 0)
(0.223052 -0.126313 0)
(0.257004 -0.0921972 0)
(0.281656 -0.0647893 0)
(0.301072 -0.0445623 0)
(0.31736 -0.0295313 0)
(0.331009 -0.0174424 0)
(0.341709 -0.00631168 0)
(0.34881 0.00543658 0)
(0.351774 0.0191759 0)
(0.35056 0.0358191 0)
(0.34591 0.056296 0)
(0.338845 0.0812482 0)
(0.330552 0.110188 0)
(0.333227 0.149315 0)
(0.357661 0.189198 0)
(0.32235 0.161182 0)
(0.200988 0.0902087 0)
(-0.0125975 0.0945225 0)
(0.0149998 -0.0198618 0)
(0.0437897 -0.119796 0)
(0.0895679 -0.18288 0)
(0.138012 -0.203098 0)
(0.184621 -0.183477 0)
(0.223729 -0.144208 0)
(0.25292 -0.105575 0)
(0.275488 -0.0756156 0)
(0.295126 -0.0539044 0)
(0.313224 -0.037633 0)
(0.329557 -0.0240953 0)
(0.343281 -0.0110927 0)
(0.353431 0.00281835 0)
(0.359112 0.018514 0)
(0.36016 0.0366293 0)
(0.357471 0.0582398 0)
(0.352596 0.0841161 0)
(0.346883 0.1127 0)
(0.340041 0.144867 0)
(0.352301 0.187061 0)
(0.33446 0.202731 0)
(0.230554 0.203301 0)
(-0.00126915 0.0901611 0)
(0.0421981 -0.0327198 0)
(0.0884003 -0.137922 0)
(0.137904 -0.202953 0)
(0.173588 -0.22344 0)
(0.202784 -0.200861 0)
(0.230173 -0.156727 0)
(0.253384 -0.114697 0)
(0.273654 -0.0836259 0)
(0.293234 -0.061955 0)
(0.312507 -0.0458349 0)
(0.330646 -0.0320806 0)
(0.346507 -0.0181549 0)
(0.359 -0.00195198 0)
(0.367191 0.0171256 0)
(0.370801 0.0377826 0)
(0.370481 0.0604448 0)
(0.367042 0.0858332 0)
(0.363516 0.114047 0)
(0.357094 0.144042 0)
(0.355549 0.187466 0)
(0.348385 0.239611 0)
(0.228989 0.351025 0)
(0.0172819 -0.0170941 0)
(0.0452133 -0.0105499 0)
(0.0399157 0.00210178 0)
(0.00707513 0.0112132 0)
(-0.0426448 0.0146782 0)
(-0.0974087 0.0161138 0)
(-0.154204 0.0172922 0)
(-0.218294 0.0198669 0)
(-0.296318 0.023791 0)
(-0.395786 0.0299965 0)
(-0.527373 0.0396347 0)
(-0.703387 0.0541375 0)
(-0.952148 0.077571 0)
(-1.33876 0.111604 0)
(-1.84691 0.12192 0)
(-2.17844 0.0424074 0)
(-1.92544 -0.119984 0)
(-1.16281 -0.262211 0)
(-0.324935 -0.174396 0)
(-0.0147126 -0.0141846 0)
(-0.0326363 -0.0010328 0)
(-0.0568108 0.0173239 0)
(-0.0880532 0.0324408 0)
(-0.128412 0.038218 0)
(-0.167857 0.039738 0)
(-0.206962 0.0433169 0)
(-0.256529 0.0535821 0)
(-0.328555 0.0694235 0)
(-0.433997 0.0931456 0)
(-0.58577 0.127885 0)
(-0.797232 0.176759 0)
(-1.09306 0.245817 0)
(-1.52502 0.332717 0)
(-2.04017 0.349265 0)
(-2.30761 0.119373 0)
(-2.01789 -0.355075 0)
(-1.19088 -0.775127 0)
(-0.327852 -0.522515 0)
(-0.020238 0.00617298 0)
(-0.0423598 0.0110894 0)
(-0.0695399 0.0305298 0)
(-0.0983836 0.0492241 0)
(-0.131864 0.0560226 0)
(-0.162996 0.05629 0)
(-0.194552 0.0625078 0)
(-0.238809 0.0829698 0)
(-0.304834 0.112878 0)
(-0.399438 0.156154 0)
(-0.535101 0.21819 0)
(-0.725058 0.304038 0)
(-0.993529 0.420618 0)
(-1.42292 0.564763 0)
(-2.02068 0.597321 0)
(-2.38417 0.197541 0)
(-2.00929 -0.63655 0)
(-1.09566 -1.3311 0)
(-0.329133 -0.894365 0)
(-0.0150007 0.0200741 0)
(-0.0240243 0.0188063 0)
(-0.0428755 0.0433099 0)
(-0.0748059 0.0670971 0)
(-0.116112 0.0747168 0)
(-0.151531 0.0723039 0)
(-0.18058 0.0800157 0)
(-0.220204 0.111484 0)
(-0.280381 0.152968 0)
(-0.364229 0.212561 0)
(-0.483699 0.29894 0)
(-0.651413 0.420988 0)
(-0.890419 0.591458 0)
(-1.31856 0.811032 0)
(-1.99535 0.873472 0)
(-2.33267 0.2631 0)
(-1.7722 -0.990908 0)
(-0.891998 -1.86461 0)
(-0.319591 -1.24834 0)
(-0.0123662 0.0361122 0)
(-0.006302 0.0193317 0)
(-0.0149305 0.0554162 0)
(-0.0549434 0.089881 0)
(-0.10954 0.0990595 0)
(-0.149184 0.0886982 0)
(-0.169107 0.0929634 0)
(-0.199186 0.137566 0)
(-0.251753 0.188037 0)
(-0.322532 0.261019 0)
(-0.42361 0.368682 0)
(-0.566516 0.525158 0)
(-0.768061 0.754229 0)
(-1.16622 1.06152 0)
(-1.84813 1.15558 0)
(-2.03429 0.270111 0)
(-1.40563 -1.40004 0)
(-0.737587 -2.25794 0)
(-0.277854 -1.51449 0)
(-0.0170575 0.0180635 0)
(-0.000563498 0.0111957 0)
(0.00987013 0.0690919 0)
(-0.0402783 0.118706 0)
(-0.111863 0.128105 0)
(-0.154803 0.101371 0)
(-0.15668 0.0948929 0)
(-0.172956 0.160727 0)
(-0.218294 0.217372 0)
(-0.272717 0.300677 0)
(-0.350553 0.425976 0)
(-0.46147 0.612371 0)
(-0.607071 0.896535 0)
(-0.899283 1.26723 0)
(-1.43289 1.26194 0)
(-1.55146 -0.204342 0)
(-1.07286 -1.7419 0)
(-0.636775 -2.55477 0)
(-0.200423 -1.74 0)
(-0.0160521 0.0862095 0)
(0.0179827 0.000299496 0)
(0.0393301 0.0813192 0)
(-0.0263921 0.154879 0)
(-0.122224 0.16868 0)
(-0.170096 0.115992 0)
(-0.140655 0.087833 0)
(-0.13792 0.185823 0)
(-0.180058 0.239867 0)
(-0.215221 0.327747 0)
(-0.266156 0.466536 0)
(-0.339289 0.674368 0)
(-0.417549 0.997078 0)
(-0.55608 1.40454 0)
(-0.898593 1.41142 0)
(-1.09095 0.290664 0)
(-0.789576 -1.89775 0)
(-0.528928 -2.76674 0)
(-0.0865239 -1.94355 0)
(0.311147 -0.0301242 0)
(0.0685509 -0.0406972 0)
(0.0736047 0.0915657 0)
(-0.000561046 0.20497 0)
(-0.135494 0.21935 0)
(-0.196155 0.114143 0)
(-0.118391 0.0254972 0)
(-0.0924286 0.206236 0)
(-0.139358 0.254742 0)
(-0.15009 0.345871 0)
(-0.171102 0.495741 0)
(-0.205684 0.71346 0)
(-0.223906 1.05249 0)
(-0.232464 1.46473 0)
(-0.400162 1.46683 0)
(-0.380127 0.39411 0)
(-0.404806 -1.91498 0)
(-0.434604 -2.96205 0)
(0.0474454 -2.14476 0)
(0.018247 0.0587019 0)
(0.0993159 -0.0668862 0)
(0.190107 -0.17219 0)
(0.240556 -0.226229 0)
(0.24154 -0.237949 0)
(0.234037 -0.213736 0)
(0.242805 -0.170315 0)
(0.260423 -0.127889 0)
(0.28128 -0.095945 0)
(0.303865 -0.0733496 0)
(0.326097 -0.0560285 0)
(0.346086 -0.041117 0)
(0.362605 -0.0271494 0)
(0.374856 -0.0124868 0)
(0.382484 0.00512243 0)
(0.386482 0.0293201 0)
(0.388167 0.0584967 0)
(0.387615 0.0896068 0)
(0.386755 0.120664 0)
(0.389607 0.151121 0)
(0.391849 0.19123 0)
(0.439105 0.239613 0)
(0.45754 0.415934 0)
(0.0396109 -0.0318078 0)
(0.194633 -0.174626 0)
(0.3339 -0.253424 0)
(0.364108 -0.25428 0)
(0.299199 -0.234775 0)
(0.243333 -0.215102 0)
(0.234252 -0.190842 0)
(0.251128 -0.16256 0)
(0.279939 -0.13618 0)
(0.314234 -0.112797 0)
(0.347888 -0.0899293 0)
(0.376459 -0.0650059 0)
(0.396792 -0.0374062 0)
(0.408018 -0.00892784 0)
(0.414687 0.0204386 0)
(0.418488 0.0432261 0)
(0.417872 0.0641255 0)
(0.415367 0.0852469 0)
(0.414776 0.105541 0)
(0.423784 0.130575 0)
(0.438676 0.164096 0)
(0.478435 0.1864 0)
(0.543389 0.277091 0)
(0.0759719 -0.161448 0)
(0.258857 -0.364024 0)
(0.380491 -0.367015 0)
(0.306744 -0.197547 0)
(0.169439 -0.140156 0)
(0.119694 -0.162054 0)
(0.107264 -0.179121 0)
(0.117758 -0.180376 0)
(0.149166 -0.170956 0)
(0.191825 -0.156277 0)
(0.241738 -0.136602 0)
(0.29317 -0.112616 0)
(0.342627 -0.0848775 0)
(0.392329 -0.052704 0)
(0.437482 -0.0192571 0)
(0.45637 0.0130677 0)
(0.452084 0.0563458 0)
(0.431433 0.100889 0)
(0.417101 0.120409 0)
(0.424492 0.132311 0)
(0.445607 0.145443 0)
(0.469806 0.145296 0)
(0.513585 0.164599 0)
(0.0678592 -0.419886 0)
(0.152739 -0.536515 0)
(0.0934671 -0.288694 0)
(-0.0784716 0.00826807 0)
(-0.0862947 -0.0346672 0)
(-0.0628158 -0.118621 0)
(-0.111796 -0.14052 0)
(-0.14704 -0.157209 0)
(-0.175381 -0.161028 0)
(-0.202837 -0.153116 0)
(-0.220948 -0.131631 0)
(-0.257966 -0.104997 0)
(-0.293748 -0.102666 0)
(-0.196621 -0.136109 0)
(0.161572 -0.0422233 0)
(0.326485 0.0252846 0)
(0.398901 0.075795 0)
(0.428397 0.104937 0)
(0.461357 0.103242 0)
(0.478743 0.112254 0)
(0.481681 0.125888 0)
(0.483915 0.120384 0)
(0.493666 0.118987 0)
(-0.0628139 -0.469784 0)
(-0.16362 -0.17481 0)
(-0.187114 -0.0581936 0)
(-0.16348 -0.0664727 0)
(-0.0772069 -0.123138 0)
(-0.064713 -0.129191 0)
(-0.0686689 -0.122617 0)
(-0.0798677 -0.137632 0)
(-0.0950773 -0.14709 0)
(-0.0959244 -0.153814 0)
(-0.079173 -0.146969 0)
(-0.0510354 -0.124552 0)
(-0.0607394 -0.152109 0)
(-0.183404 -0.340724 0)
(-0.253056 -0.38528 0)
(-0.345804 -0.154704 0)
(-0.306777 0.0165104 0)
(0.0467191 0.0636047 0)
(0.295919 0.064041 0)
(0.39577 0.0990251 0)
(0.448653 0.128665 0)
(0.494445 0.139787 0)
(0.512344 0.13996 0)
(-0.115348 -0.237421 0)
(-0.158355 -0.322459 0)
(-0.140195 -0.252916 0)
(-0.0856594 -0.160183 0)
(-0.0743403 -0.138868 0)
(-0.0706202 -0.131787 0)
(-0.0732646 -0.126963 0)
(-0.0800477 -0.129811 0)
(-0.0870171 -0.141842 0)
(-0.0843281 -0.159281 0)
(-0.0747073 -0.155626 0)
(-0.0564384 -0.104058 0)
(-0.0659436 -0.0393157 0)
(-0.133115 -0.0693542 0)
(-0.124166 -0.172835 0)
(-0.0247162 -0.205492 0)
(0.145496 -0.188881 0)
(0.287324 -0.417079 0)
(0.380249 -0.259333 0)
(0.278596 0.0160192 0)
(0.224719 0.0426402 0)
(0.343473 0.0680044 0)
(0.423118 0.11702 0)
(-0.0636854 -0.171653 0)
(-0.0593162 -0.296431 0)
(-0.0864514 -0.20991 0)
(-0.0732707 -0.164323 0)
(-0.0693096 -0.143647 0)
(-0.0638173 -0.133618 0)
(-0.0653487 -0.125048 0)
(-0.0688459 -0.126371 0)
(-0.0738082 -0.141402 0)
(-0.0773027 -0.162409 0)
(-0.0796125 -0.164355 0)
(-0.071562 -0.118911 0)
(-0.0579639 -0.0668907 0)
(-0.0405527 -0.135237 0)
(0.0053317 -0.297253 0)
(0.0361994 -0.348986 0)
(0.12827 -0.362112 0)
(0.223726 -0.33202 0)
(0.355863 -0.168721 0)
(0.504973 0.193462 0)
(0.544617 0.166465 0)
(0.42639 -0.0721057 0)
(-0.159696 -0.0130244 0)
(-0.0273677 -0.119414 0)
(-0.0379911 -0.258772 0)
(-0.0621599 -0.197813 0)
(-0.059651 -0.16697 0)
(-0.0565442 -0.148236 0)
(-0.0522725 -0.135427 0)
(-0.050817 -0.12332 0)
(-0.0519334 -0.120203 0)
(-0.0569867 -0.132181 0)
(-0.0645305 -0.15336 0)
(-0.0720493 -0.163411 0)
(-0.0629039 -0.13976 0)
(-0.0208189 -0.109363 0)
(0.045859 -0.173127 0)
(0.0701212 -0.285757 0)
(0.0649148 -0.35283 0)
(0.0880563 -0.40678 0)
(0.12722 -0.471264 0)
(0.208507 -0.405705 0)
(0.394377 -0.161556 0)
(0.614092 0.0957814 0)
(0.700227 0.318339 0)
(0.611188 0.484108 0)
(-0.0113144 -0.0947649 0)
(-0.0289782 -0.24691 0)
(-0.0438377 -0.195999 0)
(-0.0439738 -0.165603 0)
(-0.0436458 -0.15095 0)
(-0.0404057 -0.138691 0)
(-0.0366454 -0.125842 0)
(-0.033326 -0.119248 0)
(-0.0333834 -0.126696 0)
(-0.0374687 -0.145916 0)
(-0.0424099 -0.165535 0)
(-0.0350724 -0.171262 0)
(0.00513096 -0.172063 0)
(0.0568398 -0.218224 0)
(0.0754256 -0.281799 0)
(0.0786287 -0.350847 0)
(0.082045 -0.418941 0)
(0.0860278 -0.487607 0)
(0.11497 -0.482339 0)
(0.228867 -0.327675 0)
(0.414882 -0.0825058 0)
(0.586299 0.228144 0)
(0.739265 0.543342 0)
(-0.00260961 -0.0796891 0)
(-0.0168997 -0.231027 0)
(-0.0300617 -0.188962 0)
(-0.0318856 -0.164091 0)
(-0.0321042 -0.15254 0)
(-0.0293059 -0.142403 0)
(-0.0239287 -0.131232 0)
(-0.0165014 -0.123676 0)
(-0.0101162 -0.127073 0)
(-0.0073675 -0.142724 0)
(-0.00651657 -0.165365 0)
(-0.00294725 -0.187159 0)
(0.017813 -0.205993 0)
(0.0422088 -0.241795 0)
(0.0560836 -0.293825 0)
(0.0535168 -0.353099 0)
(0.0390551 -0.41699 0)
(0.0223601 -0.481777 0)
(-0.00274074 -0.516471 0)
(0.0283459 -0.431679 0)
(0.112194 -0.245489 0)
(0.273392 0.0752385 0)
(0.482027 0.428204 0)
(0.00128117 -0.07299 0)
(-0.00957671 -0.218575 0)
(-0.0205971 -0.182273 0)
(-0.0228441 -0.162025 0)
(-0.0234687 -0.153647 0)
(-0.0211539 -0.146481 0)
(-0.0157148 -0.138632 0)
(-0.00686092 -0.132787 0)
(0.00324965 -0.134535 0)
(0.0111503 -0.146914 0)
(0.0161831 -0.167713 0)
(0.0186866 -0.192845 0)
(0.0241913 -0.217923 0)
(0.0308302 -0.251512 0)
(0.02941 -0.289342 0)
(0.012001 -0.334442 0)
(-0.0176048 -0.39028 0)
(-0.0562899 -0.451608 0)
(-0.115566 -0.492254 0)
(-0.153704 -0.434427 0)
(-0.162595 -0.279155 0)
(-0.112057 -0.027003 0)
(0.0727303 0.277058 0)
(0.00273437 -0.0707637 0)
(-0.00556939 -0.209165 0)
(-0.0144045 -0.176794 0)
(-0.0166487 -0.159964 0)
(-0.0176453 -0.154194 0)
(-0.0161152 -0.149837 0)
(-0.0119594 -0.145522 0)
(-0.00450269 -0.1427 0)
(0.00514617 -0.144769 0)
(0.0139191 -0.154694 0)
(0.0194406 -0.17197 0)
(0.0206015 -0.193976 0)
(0.0188136 -0.217691 0)
(0.0128819 -0.245195 0)
(-0.000232269 -0.273196 0)
(-0.0219017 -0.305767 0)
(-0.0567689 -0.346406 0)
(-0.109668 -0.396459 0)
(-0.18253 -0.436748 0)
(-0.249851 -0.406677 0)
(-0.283404 -0.284647 0)
(-0.262722 -0.083016 0)
(-0.171258 0.144866 0)
(0.00299874 -0.0702172 0)
(-0.00332795 -0.201522 0)
(-0.0105257 -0.171916 0)
(-0.0127535 -0.157953 0)
(-0.013991 -0.154198 0)
(-0.0133858 -0.151945 0)
(-0.0109926 -0.150276 0)
(-0.00633927 -0.150085 0)
(0.000104929 -0.153092 0)
(0.00625625 -0.161278 0)
(0.00959042 -0.174836 0)
(0.00847615 -0.19224 0)
(0.00305411 -0.211291 0)
(-0.00751067 -0.232411 0)
(-0.0234866 -0.254225 0)
(-0.0450635 -0.276614 0)
(-0.076715 -0.301878 0)
(-0.128626 -0.335249 0)
(-0.202819 -0.365881 0)
(-0.281025 -0.358881 0)
(-0.328913 -0.284679 0)
(-0.313642 -0.143952 0)
(-0.236098 0.016713 0)
(0.00265891 -0.0703593 0)
(-0.00225104 -0.19543 0)
(-0.00823017 -0.167765 0)
(-0.0104578 -0.155872 0)
(-0.0119838 -0.153606 0)
(-0.0122533 -0.152721 0)
(-0.0114574 -0.152578 0)
(-0.00949804 -0.1539 0)
(-0.00666499 -0.157526 0)
(-0.00415358 -0.164403 0)
(-0.00376769 -0.174755 0)
(-0.0069098 -0.187948 0)
(-0.0139677 -0.202672 0)
(-0.0251338 -0.218863 0)
(-0.0409655 -0.23558 0)
(-0.0615098 -0.251867 0)
(-0.0869372 -0.267092 0)
(-0.123056 -0.282835 0)
(-0.178356 -0.296303 0)
(-0.250332 -0.292331 0)
(-0.317798 -0.249285 0)
(-0.347227 -0.158061 0)
(-0.315975 -0.0454391 0)
(0.00212455 -0.0704863 0)
(-0.00186662 -0.190429 0)
(-0.00699621 -0.164062 0)
(-0.00930134 -0.153685 0)
(-0.0111211 -0.152454 0)
(-0.0121328 -0.152404 0)
(-0.0125505 -0.152997 0)
(-0.0125225 -0.15487 0)
(-0.0123669 -0.158505 0)
(-0.0127532 -0.164253 0)
(-0.0147427 -0.172211 0)
(-0.0193051 -0.182129 0)
(-0.0270203 -0.193377 0)
(-0.0382043 -0.205386 0)
(-0.0533833 -0.217557 0)
(-0.0732616 -0.229298 0)
(-0.0985123 -0.239282 0)
(-0.130147 -0.244306 0)
(-0.169327 -0.239356 0)
(-0.21564 -0.221442 0)
(-0.262072 -0.188383 0)
(-0.293736 -0.135509 0)
(-0.296227 -0.0670801 0)
(0.00160828 -0.0704431 0)
(-0.00186157 -0.186099 0)
(-0.00645144 -0.160626 0)
(-0.00886907 -0.15135 0)
(-0.0109818 -0.150811 0)
(-0.0126111 -0.151254 0)
(-0.0139301 -0.152162 0)
(-0.0151481 -0.154065 0)
(-0.0166202 -0.157296 0)
(-0.018792 -0.161998 0)
(-0.0222679 -0.168181 0)
(-0.0276699 -0.175626 0)
(-0.0355889 -0.183968 0)
(-0.0463664 -0.19262 0)
(-0.0603609 -0.20088 0)
(-0.078069 -0.20786 0)
(-0.100101 -0.212695 0)
(-0.126795 -0.214069 0)
(-0.157019 -0.209107 0)
(-0.187975 -0.193585 0)
(-0.215359 -0.164119 0)
(-0.232792 -0.122085 0)
(-0.233885 -0.0758982 0)
(0.00117505 -0.0701261 0)
(-0.00203983 -0.182151 0)
(-0.00633194 -0.157309 0)
(-0.00887319 -0.148853 0)
(-0.0112658 -0.148739 0)
(-0.0134026 -0.14944 0)
(-0.0154252 -0.150449 0)
(-0.0175006 -0.152183 0)
(-0.0199438 -0.154878 0)
(-0.0231269 -0.158603 0)
(-0.0274346 -0.163334 0)
(-0.03331 -0.168825 0)
(-0.0411932 -0.174822 0)
(-0.051388 -0.180768 0)
(-0.0641346 -0.186105 0)
(-0.0795845 -0.190019 0)
(-0.0978182 -0.191447 0)
(-0.118664 -0.18883 0)
(-0.141303 -0.18039 0)
(-0.163719 -0.164872 0)
(-0.18237 -0.141905 0)
(-0.193116 -0.11237 0)
(-0.192936 -0.080023 0)
(0.000844783 -0.0695209 0)
(-0.00228254 -0.178376 0)
(-0.00645287 -0.154009 0)
(-0.00911241 -0.146189 0)
(-0.0117589 -0.146304 0)
(-0.0142991 -0.147089 0)
(-0.0168671 -0.148067 0)
(-0.019583 -0.149557 0)
(-0.0226788 -0.151716 0)
(-0.0264671 -0.154562 0)
(-0.0312267 -0.158038 0)
(-0.0373014 -0.161954 0)
(-0.0449802 -0.166051 0)
(-0.054454 -0.169873 0)
(-0.0659059 -0.172931 0)
(-0.0793486 -0.174534 0)
(-0.0946278 -0.173893 0)
(-0.111287 -0.170045 0)
(-0.128348 -0.161898 0)
(-0.144229 -0.148589 0)
(-0.156752 -0.130192 0)
(-0.163676 -0.108124 0)
(-0.163493 -0.0850964 0)
(0.000614481 -0.0686678 0)
(-0.00251904 -0.174635 0)
(-0.00668949 -0.150669 0)
(-0.0094476 -0.143366 0)
(-0.0123102 -0.143579 0)
(-0.0151542 -0.144327 0)
(-0.0181216 -0.145179 0)
(-0.0212977 -0.146387 0)
(-0.0248515 -0.148035 0)
(-0.0290116 -0.150125 0)
(-0.033991 -0.152555 0)
(-0.0400427 -0.155207 0)
(-0.0473423 -0.1578 0)
(-0.0560153 -0.160012 0)
(-0.066146 -0.161426 0)
(-0.0776227 -0.161515 0)
(-0.0902011 -0.159666 0)
(-0.103395 -0.155184 0)
(-0.116387 -0.147417 0)
(-0.128004 -0.136042 0)
(-0.136769 -0.121458 0)
(-0.141308 -0.104899 0)
(-0.140935 -0.0881623 0)
(0.000474643 -0.0676265 0)
(-0.00271547 -0.170849 0)
(-0.00696087 -0.147265 0)
(-0.00978622 -0.140408 0)
(-0.0128219 -0.140632 0)
(-0.0158824 -0.141271 0)
(-0.0191198 -0.141941 0)
(-0.0225874 -0.142847 0)
(-0.0264283 -0.144033 0)
(-0.0307886 -0.145476 0)
(-0.0358244 -0.147077 0)
(-0.0417061 -0.148717 0)
(-0.0485312 -0.150171 0)
(-0.0563853 -0.151202 0)
(-0.0652795 -0.151469 0)
(-0.0750602 -0.150584 0)
(-0.08546 -0.148106 0)
(-0.0960322 -0.143576 0)
(-0.106105 -0.136622 0)
(-0.114813 -0.127141 0)
(-0.121148 -0.115614 0)
(-0.124212 -0.103121 0)
(-0.123669 -0.0909834 0)
(0.00041338 -0.0664545 0)
(-0.00285952 -0.166978 0)
(-0.00721585 -0.143799 0)
(-0.010071 -0.137346 0)
(-0.0132338 -0.137529 0)
(-0.0164359 -0.138019 0)
(-0.0198387 -0.138483 0)
(-0.0234729 -0.139093 0)
(-0.0274497 -0.139876 0)
(-0.0318759 -0.140773 0)
(-0.0368481 -0.141714 0)
(-0.0424756 -0.142566 0)
(-0.0488211 -0.143172 0)
(-0.0559093 -0.143349 0)
(-0.063721 -0.142844 0)
(-0.072102 -0.14137 0)
(-0.0807833 -0.138631 0)
(-0.0893845 -0.134323 0)
(-0.0973723 -0.128255 0)
(-0.104111 -0.120443 0)
(-0.108894 -0.111384 0)
(-0.111079 -0.102028 0)
(-0.110504 -0.0933919 0)
(0.000413082 -0.0652135 0)
(-0.00295082 -0.163003 0)
(-0.00741899 -0.140284 0)
(-0.0102678 -0.134217 0)
(-0.0135135 -0.134328 0)
(-0.0167919 -0.134652 0)
(-0.0202777 -0.134909 0)
(-0.0239874 -0.135247 0)
(-0.0279974 -0.135672 0)
(-0.0323832 -0.136125 0)
(-0.0372119 -0.136535 0)
(-0.0425491 -0.13679 0)
(-0.0484288 -0.136771 0)
(-0.0548469 -0.136341 0)
(-0.0617472 -0.135329 0)
(-0.0689934 -0.133521 0)
(-0.076349 -0.130743 0)
(-0.0835007 -0.126788 0)
(-0.090033 -0.121586 0)
(-0.0954717 -0.115208 0)
(-0.0993156 -0.108144 0)
(-0.101071 -0.10126 0)
(-0.100662 -0.0954101 0)
(0.000451603 -0.0639539 0)
(-0.00299408 -0.158929 0)
(-0.00754483 -0.136748 0)
(-0.0103538 -0.131058 0)
(-0.0136398 -0.131082 0)
(-0.0169409 -0.131237 0)
(-0.0204458 -0.131298 0)
(-0.0241561 -0.13139 0)
(-0.028127 -0.131506 0)
(-0.0324108 -0.131595 0)
(-0.0370457 -0.131586 0)
(-0.0420793 -0.131391 0)
(-0.0475295 -0.130909 0)
(-0.053363 -0.130057 0)
(-0.0595128 -0.128709 0)
(-0.0658748 -0.126734 0)
(-0.0722365 -0.124035 0)
(-0.0783519 -0.120479 0)
(-0.0839027 -0.116055 0)
(-0.08853 -0.110874 0)
(-0.091877 -0.105418 0)
(-0.0935439 -0.1005 0)
(-0.0935259 -0.096896 0)
(0.000502281 -0.0627098 0)
(-0.00299028 -0.154791 0)
(-0.00756279 -0.133227 0)
(-0.0103054 -0.127905 0)
(-0.0135941 -0.127836 0)
(-0.0168726 -0.127827 0)
(-0.0203451 -0.12771 0)
(-0.0240014 -0.127583 0)
(-0.0278833 -0.127438 0)
(-0.0320233 -0.127226 0)
(-0.0364457 -0.126884 0)
(-0.0411751 -0.12635 0)
(-0.046233 -0.125526 0)
(-0.0515745 -0.124369 0)
(-0.0571145 -0.122804 0)
(-0.0627975 -0.120757 0)
(-0.0684408 -0.118178 0)
(-0.073841 -0.115011 0)
(-0.0787622 -0.111242 0)
(-0.0829458 -0.107029 0)
(-0.0861339 -0.102838 0)
(-0.0879953 -0.0994646 0)
(-0.0885869 -0.097678 0)
(0.000537791 -0.0615019 0)
(-0.00292767 -0.150654 0)
(-0.00743788 -0.129762 0)
(-0.0100961 -0.124788 0)
(-0.0133527 -0.124627 0)
(-0.0165713 -0.124466 0)
(-0.0199714 -0.124188 0)
(-0.0235335 -0.123871 0)
(-0.0272925 -0.123505 0)
(-0.0312657 -0.123043 0)
(-0.0354757 -0.122435 0)
(-0.0399208 -0.121629 0)
(-0.0446218 -0.12056 0)
(-0.0495487 -0.119174 0)
(-0.0546078 -0.11746 0)
(-0.0597727 -0.115384 0)
(-0.0649151 -0.112923 0)
(-0.0698475 -0.110071 0)
(-0.0743996 -0.106829 0)
(-0.0784161 -0.103376 0)
(-0.0817031 -0.100134 0)
(-0.0840073 -0.0979269 0)
(-0.0853987 -0.0975295 0)
(0.000551389 -0.060349 0)
(-0.00277995 -0.146612 0)
(-0.00714151 -0.126399 0)
(-0.0096998 -0.121737 0)
(-0.012891 -0.121483 0)
(-0.0160163 -0.121184 0)
(-0.0193146 -0.120759 0)
(-0.0227552 -0.120279 0)
(-0.026369 -0.119725 0)
(-0.0301651 -0.119057 0)
(-0.0341626 -0.118228 0)
(-0.03836 -0.117202 0)
(-0.0427516 -0.115938 0)
(-0.0473252 -0.11438 0)
(-0.0520146 -0.112549 0)
(-0.0567933 -0.110447 0)
(-0.06158 -0.108071 0)
(-0.0662329 -0.105438 0)
(-0.070638 -0.102585 0)
(-0.0746839 -0.0996683 0)
(-0.0782541 -0.0970889 0)
(-0.0811828 -0.0956774 0)
(-0.0835546 -0.0962416 0)
(0.000563001 -0.0592939 0)
(-0.00251395 -0.142769 0)
(-0.0066654 -0.12318 0)
(-0.0091088 -0.118777 0)
(-0.0121982 -0.118439 0)
(-0.0151972 -0.118012 0)
(-0.0183682 -0.117454 0)
(-0.0216633 -0.116825 0)
(-0.0251141 -0.116104 0)
(-0.028725 -0.115261 0)
(-0.0325195 -0.114245 0)
(-0.0364916 -0.113039 0)
(-0.0406189 -0.1116 0)
(-0.0449067 -0.109906 0)
(-0.049307 -0.107965 0)
(-0.0538026 -0.105819 0)
(-0.0583522 -0.103465 0)
(-0.0628617 -0.100955 0)
(-0.0672593 -0.0983287 0)
(-0.0714877 -0.0957182 0)
(-0.0754856 -0.0935283 0)
(-0.0791785 -0.0925603 0)
(-0.0827222 -0.0936817 0)
(0.000619897 -0.0584179 0)
(-0.00211158 -0.139206 0)
(-0.00603412 -0.120143 0)
(-0.00833946 -0.11594 0)
(-0.0112949 -0.115529 0)
(-0.014131 -0.114987 0)
(-0.0171407 -0.114305 0)
(-0.0202601 -0.113535 0)
(-0.0235281 -0.112662 0)
(-0.0269392 -0.111653 0)
(-0.0305243 -0.110479 0)
(-0.0342796 -0.109108 0)
(-0.038174 -0.107515 0)
(-0.0422181 -0.105692 0)
(-0.0463927 -0.103635 0)
(-0.0506761 -0.101406 0)
(-0.0550613 -0.0990064 0)
(-0.0595174 -0.0965038 0)
(-0.063998 -0.0939355 0)
(-0.0685148 -0.0914151 0)
(-0.0730418 -0.0893154 0)
(-0.077595 -0.0884595 0)
(-0.0823958 -0.0896991 0)
(0.000769333 -0.0578285 0)
(-0.00158429 -0.135949 0)
(-0.00530384 -0.117302 0)
(-0.00743234 -0.113257 0)
(-0.0102294 -0.112789 0)
(-0.0128619 -0.112145 0)
(-0.0156725 -0.111348 0)
(-0.0185776 -0.110447 0)
(-0.0216196 -0.109427 0)
(-0.0248027 -0.10826 0)
(-0.0281515 -0.106936 0)
(-0.0316631 -0.105406 0)
(-0.0353215 -0.103663 0)
(-0.0391297 -0.1017 0)
(-0.0430875 -0.0995153 0)
(-0.0471867 -0.0971506 0)
(-0.0514395 -0.0946419 0)
(-0.055861 -0.0920254 0)
(-0.0604454 -0.0893476 0)
(-0.0652581 -0.0866957 0)
(-0.0703388 -0.0843948 0)
(-0.0757608 -0.083269 0)
(-0.0818328 -0.0841421 0)
(0.00104119 -0.0576332 0)
(-0.000970804 -0.132955 0)
(-0.00454829 -0.114643 0)
(-0.00644313 -0.110745 0)
(-0.00906996 -0.110243 0)
(-0.0114602 -0.109511 0)
(-0.0140321 -0.108615 0)
(-0.0166765 -0.107593 0)
(-0.0194426 -0.106434 0)
(-0.0223453 -0.105122 0)
(-0.0254019 -0.103639 0)
(-0.0286133 -0.101954 0)
(-0.0319811 -0.100055 0)
(-0.0355062 -0.0979335 0)
(-0.0391985 -0.0955973 0)
(-0.0430707 -0.0930597 0)
(-0.0471396 -0.0903624 0)
(-0.0514524 -0.087523 0)
(-0.0560523 -0.0845764 0)
(-0.0610459 -0.0815837 0)
(-0.0665172 -0.0788226 0)
(-0.072619 -0.0770443 0)
(-0.0798115 -0.0770472 0)
(0.00143653 -0.0579275 0)
(-0.000317954 -0.130133 0)
(-0.00384041 -0.112149 0)
(-0.00543995 -0.10842 0)
(-0.00789629 -0.107911 0)
(-0.010015 -0.107109 0)
(-0.012321 -0.106131 0)
(-0.0146662 -0.105007 0)
(-0.0171156 -0.103728 0)
(-0.0196798 -0.102282 0)
(-0.0223759 -0.100649 0)
(-0.0252139 -0.0988108 0)
(-0.0282015 -0.0967505 0)
(-0.0313495 -0.09446 0)
(-0.0346682 -0.0919433 0)
(-0.0381829 -0.0892036 0)
(-0.0419258 -0.0862553 0)
(-0.0459534 -0.0831088 0)
(-0.0503393 -0.079769 0)
(-0.055226 -0.0762735 0)
(-0.0607225 -0.072826 0)
(-0.0670607 -0.0700784 0)
(-0.0748344 -0.068706 0)
(0.00195463 -0.0588179 0)
(0.000334248 -0.127401 0)
(-0.00324811 -0.109843 0)
(-0.0044912 -0.106323 0)
(-0.00680461 -0.105838 0)
(-0.00863815 -0.104985 0)
(-0.0106801 -0.103951 0)
(-0.012721 -0.102753 0)
(-0.0148358 -0.101382 0)
(-0.0170325 -0.0998261 0)
(-0.0193263 -0.0980699 0)
(-0.0217302 -0.0960951 0)
(-0.024257 -0.0938854 0)
(-0.0269217 -0.0914315 0)
(-0.0297404 -0.0887296 0)
(-0.0327378 -0.0857798 0)
(-0.0359485 -0.0825669 0)
(-0.0394347 -0.0790792 0)
(-0.043276 -0.0752941 0)
(-0.047613 -0.0712193 0)
(-0.0525715 -0.066969 0)
(-0.0584251 -0.0630293 0)
(-0.0658771 -0.0598739 0)
(0.00258909 -0.0604282 0)
(0.000947442 -0.124672 0)
(-0.00282163 -0.107751 0)
(-0.00366515 -0.104512 0)
(-0.00590268 -0.104071 0)
(-0.00746177 -0.103185 0)
(-0.00927967 -0.102128 0)
(-0.0110491 -0.100889 0)
(-0.0128585 -0.0994623 0)
(-0.0147096 -0.0978377 0)
(-0.0166128 -0.0959993 0)
(-0.0185802 -0.0939289 0)
(-0.0206248 -0.0916091 0)
(-0.0227606 -0.0890293 0)
(-0.0250015 -0.0861832 0)
(-0.0273641 -0.0830577 0)
(-0.0298748 -0.0796241 0)
(-0.0325835 -0.0758443 0)
(-0.0355497 -0.0716684 0)
(-0.038883 -0.0670719 0)
(-0.0426899 -0.062078 0)
(-0.0472011 -0.0569536 0)
(-0.053215 -0.051924 0)
(0.00330567 -0.0627345 0)
(0.00148149 -0.121713 0)
(-0.00258846 -0.105743 0)
(-0.00301939 -0.102892 0)
(-0.0052702 -0.102486 0)
(-0.0065909 -0.101584 0)
(-0.00825434 -0.100529 0)
(-0.00981823 -0.0992816 0)
(-0.0113937 -0.0978393 0)
(-0.0129727 -0.0961921 0)
(-0.0145592 -0.094322 0)
(-0.0161617 -0.0922096 0)
(-0.0177892 -0.0898372 0)
(-0.0194504 -0.0871942 0)
(-0.0211455 -0.0842729 0)
(-0.0228755 -0.0810531 0)
(-0.0246512 -0.0774975 0)
(-0.0264916 -0.0735519 0)
(-0.0284136 -0.0691491 0)
(-0.0304623 -0.0642378 0)
(-0.0326997 -0.0587595 0)
(-0.0352101 -0.0527724 0)
(-0.0387496 -0.0462502 0)
(0.00403599 -0.0654692 0)
(0.00190626 -0.118185 0)
(-0.00252812 -0.103539 0)
(-0.0025631 -0.101181 0)
(-0.00490526 -0.100776 0)
(-0.00603712 -0.0998771 0)
(-0.00761945 -0.0988408 0)
(-0.00905158 -0.0976091 0)
(-0.0104791 -0.0961816 0)
(-0.0118823 -0.0945449 0)
(-0.0132597 -0.092681 0)
(-0.0146165 -0.0905696 0)
(-0.0159574 -0.0881945 0)
(-0.0172801 -0.08555 0)
(-0.0185669 -0.0826276 0)
(-0.0198 -0.0794101 0)
(-0.0209688 -0.0758567 0)
(-0.0220543 -0.0719125 0)
(-0.023016 -0.0675136 0)
(-0.0238216 -0.0625892 0)
(-0.0244666 -0.0570443 0)
(-0.0248124 -0.0507871 0)
(-0.0254221 -0.0436453 0)
(0.00470048 -0.0686924 0)
(0.00221941 -0.114211 0)
(-0.00256374 -0.101281 0)
(-0.00224611 -0.0995062 0)
(-0.00470819 -0.0990542 0)
(-0.00569298 -0.0981888 0)
(-0.00723749 -0.0971805 0)
(-0.00859001 -0.095979 0)
(-0.0099311 -0.0945819 0)
(-0.0112353 -0.0929739 0)
(-0.0125001 -0.0911385 0)
(-0.0137278 -0.0890561 0)
(-0.0149192 -0.0867143 0)
(-0.0160572 -0.0841178 0)
(-0.0171082 -0.0812636 0)
(-0.0180424 -0.07814 0)
(-0.0188286 -0.0747099 0)
(-0.0194157 -0.0709333 0)
(-0.019706 -0.0667736 0)
(-0.0196042 -0.0621512 0)
(-0.0190412 -0.0569924 0)
(-0.0176857 -0.051135 0)
(-0.0158283 -0.044466 0)
(0.00515632 -0.0730636 0)
(0.0023958 -0.110493 0)
(-0.00258022 -0.0996873 0)
(-0.00199163 -0.0985589 0)
(-0.00451598 -0.0980236 0)
(-0.00538277 -0.0972251 0)
(-0.00687449 -0.0962513 0)
(-0.00815609 -0.0950863 0)
(-0.00943003 -0.093727 0)
(-0.0106689 -0.0921605 0)
(-0.0118715 -0.09037 0)
(-0.0130373 -0.0883374 0)
(-0.0141615 -0.0860599 0)
(-0.0152143 -0.0835498 0)
(-0.016154 -0.0808227 0)
(-0.0169482 -0.0778655 0)
(-0.0175528 -0.0746555 0)
(-0.0179021 -0.0711793 0)
(-0.0178543 -0.0674249 0)
(-0.0172873 -0.063344 0)
(-0.0160765 -0.0589157 0)
(-0.0138361 -0.0540086 0)
(-0.0106374 -0.0486235 0)
(0.00515142 -0.0781064 0)
(0.00234637 -0.106937 0)
(-0.00244323 -0.0985441 0)
(-0.00172364 -0.0980499 0)
(-0.00415098 -0.0974225 0)
(-0.00490516 -0.0967035 0)