/*--------------------------------*- C++ -*----------------------------------*\
| =========                 |                                                 |
| \\      /  F ield         | OpenFOAM: The Open Source CFD Toolbox           |
|  \\    /   O peration     | Version:  2206                                  |
|   \\  /    A nd           | Website:  www.openfoam.com                      |
|    \\/     M anipulation  |                                                 |
\*---------------------------------------------------------------------------*/
FoamFile
{
    version     2.0;
    format      ascii;
    arch        "LSB;label=32;scalar=64";
    class       volScalarField;
    location    "0.225";
    object      p;
}
// * * * * * * * * * * * * * * * * * * * * * * * * * * * * * * * * * * * * * //

dimensions      [1 -1 -2 0 0 0 0];

internalField   nonuniform List<scalar> 
2268
(
1811.99
1812.84
1813.23
1813.71
1814.23
1815.01
1816.14
1817.64
1819.56
1821.91
1824.73
1828.03
1831.64
1835.54
1839.61
1843.68
1847.54
1850.96
1853.73
1855.48
1856.47
1855.38
1853.39
1630.69
1631.54
1632.1
1632.67
1633.26
1634.09
1635.25
1636.78
1638.71
1641.07
1643.86
1647.07
1650.83
1654.96
1659.41
1664.07
1668.77
1673.31
1677.47
1680.85
1683.77
1684.58
1687.89
1447.11
1448.14
1448.93
1449.6
1450.29
1451.17
1452.38
1453.97
1456.01
1458.53
1461.56
1465.14
1469.26
1473.89
1478.95
1484.34
1489.94
1495.58
1501.14
1506.25
1511.29
1514.31
1520.2
1261.59
1262.56
1263.57
1264.33
1265.05
1265.92
1267.09
1268.65
1270.68
1273.24
1276.4
1280.22
1284.77
1290.18
1296.25
1302.94
1310.1
1317.53
1325.01
1331.89
1338.34
1342.43
1348.58
1073.82
1074.79
1075.84
1076.56
1077.14
1077.82
1078.74
1080.05
1081.84
1084.24
1087.34
1091.28
1096.2
1102.22
1109.39
1117.63
1126.8
1136.66
1146.84
1156.38
1164.97
1170.84
1177.62
884.176
884.935
885.628
885.967
886.11
886.235
886.495
887.054
888.077
889.73
892.192
895.652
900.306
906.381
914.517
924.814
937.134
951.138
966.166
980.624
993.021
1001.36
1009.52
692.6
692.979
692.91
692.404
691.598
690.563
689.422
688.361
687.582
687.312
687.828
689.419
692.318
696.558
702.269
712.153
725.155
741.572
761.363
782.992
802.624
815.675
826.123
499.188
498.894
497.681
495.844
493.475
490.502
486.953
482.969
478.735
474.5
470.648
467.747
466.671
468.586
474.318
482.627
495.581
514.02
538.565
567.548
594.599
616.305
604.069
1.25017
1.24774
1.24325
1.23724
1.22982
1.22126
1.21183
1.20183
1.19153
1.18123
1.17117
1.16161
1.15275
1.14479
1.1379
1.13223
1.12788
1.12493
1.12344
1.07418
1.0711
1.06612
1.05984
1.0521
1.04323
1.03348
1.02314
1.01252
1.00191
0.991576
0.981755
0.972665
0.964512
0.95746
0.951655
0.947207
0.944197
0.94268
0.896655
0.895779
0.890449
0.884049
0.87574
0.866231
0.855812
0.844811
0.833546
0.822316
0.811402
0.801051
0.791497
0.782943
0.775565
0.769497
0.764853
0.761717
0.760135
0.734551
0.726733
0.718089
0.710601
0.700926
0.690303
0.678829
0.666803
0.65454
0.642355
0.630563
0.619415
0.609165
0.600011
0.592137
0.585678
0.580745
0.577418
0.575742
0.553248
0.553249
0.544519
0.538477
0.527216
0.515336
0.502485
0.489082
0.47546
0.461969
0.44897
0.43674
0.425543
0.415588
0.407056
0.400078
0.394766
0.391188
0.389389
0.398185
0.39166
0.373981
0.371462
0.355625
0.341626
0.326938
0.311692
0.296261
0.28106
0.266478
0.25286
0.240462
0.229502
0.220153
0.212539
0.206761
0.202875
0.200926
0.238214
0.226466
0.209342
0.205541
0.182713
0.168466
0.151907
0.134434
0.11674
0.0993738
0.0828639
0.0675416
0.0536899
0.0415316
0.0312156
0.0228574
0.0165368
0.0122978
0.0101749
0.0869268
0.0676768
0.0414183
0.0421384
0.0157986
-0.00195411
-0.0219291
-0.042559
-0.0631966
-0.0832293
-0.102141
-0.119508
-0.135062
-0.148605
-0.160015
-0.169205
-0.176127
-0.180754
-0.183068
346.901
345.622
343.184
340.102
336.233
331.306
325.288
318.207
310.075
300.905
290.733
279.617
267.461
255.262
243.926
239.955
242.473
239.803
260.151
313.989
359.645
363.025
227.721
236.721
234.892
231.635
227.318
222.082
215.518
207.372
197.514
185.732
171.769
155.286
135.828
113.831
87.4253
50.8751
32.5232
23.6577
12.9678
17.6484
50.5749
119.233
165.985
114.071
127.95
122.785
119.204
113.778
106.954
98.9437
89.3913
78.3117
65.6794
51.5468
35.2362
21.4772
12.0665
4.16997
-3.62635
-4.5024
-4.79794
-5.05168
-4.56251
-1.97893
7.77172
35.446
52.7447
38.6319
27.0655
26.1742
23.7008
19.5605
15.656
11.3681
6.88857
2.48646
-1.52325
-4.96002
-5.24225
-5.24065
-5.18365
-5.08266
-5.01078
-5.1033
-5.33571
-4.93346
-3.76785
-3.77607
-2.14891
10.1036
-3.24919
-5.60596
-5.70565
-5.6737
-5.6897
-5.70638
-5.70405
-5.68817
-5.65643
-5.60093
-5.49142
-5.4545
-5.40066
-5.34046
-5.27835
-5.19469
-5.39838
-5.94907
-5.79302
-4.47664
-4.28605
-4.58052
0.0501337
-5.91865
-5.88169
-5.86956
-5.85142
-5.8386
-5.83376
-5.8263
-5.81087
-5.78374
-5.74157
-5.68172
-5.62534
-5.56666
-5.50291
-5.43412
-5.35553
-5.45051
-5.81558
-5.85323
-5.3664
-5.02227
-5.24109
-4.99332
-6.02732
-6.00029
-5.99433
-5.98714
-5.97923
-5.9729
-5.96513
-5.9521
-5.93113
-5.9002
-5.85949
-5.81389
-5.7624
-5.7042
-5.64522
-5.59599
-5.59724
-5.77348
-5.89442
-5.83667
-5.67701
-5.88303
-6.45539
-6.15077
-6.13602
-6.13108
-6.12776
-6.12399
-6.12012
-6.11507
-6.10666
-6.0932
-6.07351
-6.04733
-6.01568
-5.97834
-5.93673
-5.90005
-5.88041
-5.88891
-5.96847
-6.0869
-6.13424
-6.1031
-6.22305
-6.51637
-6.28224
-6.27518
-6.27266
-6.27218
-6.27209
-6.27215
-6.2717
-6.26958
-6.26474
-6.25649
-6.24449
-6.22916
-6.21034
-6.19078
-6.17985
-6.18184
-6.19513
-6.26036
-6.38019
-6.447
-6.40558
-6.39861
-6.45644
-6.4206
-6.41823
-6.41861
-6.42103
-6.42473
-6.42931
-6.43438
-6.43935
-6.44366
-6.44701
-6.44928
-6.45092
-6.45171
-6.45498
-6.46883
-6.49352
-6.53288
-6.62637
-6.77988
-6.84156
-6.75388
-6.63196
-6.55288
-6.5647
-6.56538
-6.56849
-6.57384
-6.58132
-6.59065
-6.6016
-6.61391
-6.62733
-6.64182
-6.65747
-6.67463
-6.69326
-6.71581
-6.74857
-6.79401
-6.86712
-6.99432
-7.16473
-7.22799
-7.10479
-6.93795
-6.83442
-6.7129
-6.71565
-6.72119
-6.72951
-6.74081
-6.75495
-6.77187
-6.79148
-6.81369
-6.83849
-6.86594
-6.89614
-6.92903
-6.96531
-7.00792
-7.06346
-7.14099
-7.26795
-7.41412
-7.45998
-7.34701
-7.20178
-7.12776
-6.86359
-6.86795
-6.87567
-6.88694
-6.90206
-6.92103
-6.94391
-6.97074
-7.00147
-7.03588
-7.07374
-7.11479
-7.15852
-7.20399
-7.25012
-7.29951
-7.35504
-7.43274
-7.56259
-7.61022
-7.47834
-7.3729
-7.31166
-7.01498
-7.02075
-7.03053
-7.04473
-7.06371
-7.08758
-7.11653
-7.15068
-7.18995
-7.23388
-7.28179
-7.3329
-7.38607
-7.43916
-7.48823
-7.52728
-7.5505
-7.54514
-7.55197
-7.58007
-7.54568
-7.50099
-7.43059
-7.16516
-7.17228
-7.18406
-7.20124
-7.22421
-7.25315
-7.28844
-7.3303
-7.37864
-7.43283
-7.4918
-7.55421
-7.61843
-7.68141
-7.73737
-7.77602
-7.78318
-7.74328
-7.66653
-7.59729
-7.64419
-7.68086
-7.56064
-7.31203
-7.32054
-7.33431
-7.35456
-7.38169
-7.41601
-7.45808
-7.50833
-7.56674
-7.63267
-7.70492
-7.78191
-7.86182
-7.9412
-8.0134
-8.06741
-8.08454
-8.05256
-7.99235
-7.95179
-7.99958
-8.00136
-7.65976
-7.4534
-7.46336
-7.47917
-7.50258
-7.53406
-7.57411
-7.62353
-7.68302
-7.75281
-7.83247
-7.92104
-8.01722
-8.11968
-8.2251
-8.32795
-8.41692
-8.4761
-8.49566
-8.49192
-8.51047
-8.62396
-8.61684
-8.05303
-7.58698
-7.59846
-7.61633
-7.643
-7.67901
-7.72511
-7.78242
-7.85202
-7.93457
-8.03013
-8.13838
-8.259
-8.39191
-8.53503
-8.68593
-8.83429
-8.97197
-9.09584
-9.20944
-9.30139
-9.41243
-9.45931
-9.86664
-7.71051
-7.72349
-7.74344
-7.77339
-7.81403
-7.86636
-7.93191
-8.01225
-8.10862
-8.22187
-8.3528
-8.50275
-8.67393
-8.86724
-9.08586
-9.32254
-9.58801
-9.88481
-10.1769
-10.3601
-10.3837
-10.2265
-10.3533
-7.82174
-7.83611
-7.85807
-7.89124
-7.93643
-7.99496
-8.06875
-8.1599
-8.27037
-8.40197
-8.55695
-8.73902
-8.95375
-9.20757
-9.51281
-9.87137
-10.3306
-10.8812
-11.4267
-11.728
-11.6241
-11.2077
-10.4694
-7.91853
-7.93407
-7.95791
-7.99409
-8.04356
-8.10794
-8.1895
-8.29083
-8.41452
-8.56332
-8.74099
-8.95358
-9.2106
-9.52613
-9.92477
-10.429
-11.1399
-12.0104
-12.929
-13.3879
-13.1414
-12.6099
-11.9399
-7.99898
-8.0154
-8.04091
-8.07972
-8.13298
-8.20252
-8.29088
-8.40099
-8.53589
-8.69887
-8.89471
-9.13107
-9.42051
-9.78364
-10.2547
-10.882
-11.8118
-12.9979
-14.4748
-15.1352
-14.5486
-13.9416
-13.6959
-8.06154
-8.07849
-8.10536
-8.14633
-8.20268
-8.27642
-8.37021
-8.4871
-8.63023
-8.80301
-9.01039
-9.26036
-9.56642
-9.9506
-10.4476
-11.1165
-12.1138
-13.4604
-15.2334
-16.2636
-15.2212
-14.6032
-14.6863
-8.10513
-8.12223
-8.1501
-8.19263
-8.25124
-8.32802
-8.42562
-8.54698
-8.69497
-8.87278
-9.08479
-9.33806
-9.64449
-10.0217
-10.4952
-11.1145
-12.0182
-13.2253
-14.6335
-15.4283
-14.8622
-14.303
-14.686
-8.12915
-8.14599
-8.17448
-8.21791
-8.27785
-8.3564
-8.45608
-8.57957
-8.72923
-8.9079
-9.1189
-9.36794
-9.66435
-10.0157
-10.441
-10.9713
-11.6999
-12.5552
-13.3204
-13.8076
-13.8857
-13.4207
-14.1442
-8.1335
-8.14962
-8.1783
-8.222
-8.28231
-8.36132
-8.46138
-8.58492
-8.73311
-8.90954
-9.11575
-9.35586
-9.63549
-9.95904
-10.3313
-10.7695
-11.3055
-11.8294
-12.0635
-12.2124
-12.7895
-12.549
-13.1283
-8.11842
-8.13338
-8.16184
-8.20514
-8.26485
-8.34297
-8.44163
-8.56284
-8.70816
-8.87943
-9.07843
-9.30798
-9.57123
-9.86918
-10.2007
-10.5694
-10.9692
-11.2899
-11.3541
-11.3934
-11.8295
-11.9411
-11.7458
-8.08414
-8.09803
-8.12573
-8.16788
-8.22602
-8.302
-8.3977
-8.51483
-8.6548
-8.81907
-9.00945
-9.22832
-9.4777
-9.75719
-10.0644
-10.398
-10.7426
-11.0329
-11.1965
-11.2755
-11.5148
-11.6101
-10.849
-8.03144
-8.04449
-8.07085
-8.11112
-8.16673
-8.23939
-8.33074
-8.44219
-8.57497
-8.73054
-8.91102
-9.11905
-9.35668
-9.62386
-9.91956
-10.2441
-10.5883
-10.9247
-11.2539
-11.567
-11.7365
-12.0899
-11.5715
-7.96169
-7.97381
-7.99839
-8.03606
-8.08821
-8.15643
-8.24212
-8.34639
-8.47032
-8.61547
-8.78439
-8.98039
-9.20635
-9.46375
-9.75461
-10.084
-10.4523
-10.8542
-11.3119
-11.7819
-12.1285
-13.1549
-14.186
-7.87636
-7.88738
-7.90976
-7.94416
-7.99197
-8.05463
-8.13334
-8.22898
-8.34239
-8.47516
-8.63016
-8.81137
-9.02279
-9.2681
-9.55319
-9.889
-10.2852
-10.7511
-11.3193
-11.934
-12.3766
-13.0418
-17.8487
-7.777
-7.78677
-7.8066
-7.83717
-7.8798
-7.93585
-8.0063
-8.0918
-8.19297
-8.31121
-8.44938
-8.61166
-8.80288
-9.0287
-9.29866
-9.62915
-10.039
-10.5563
-11.2563
-12.1562
-13.0252
-13.9832
-20.2625
-7.66524
-7.67364
-7.69068
-7.71699
-7.75378
-7.80228
-7.8633
-7.93725
-8.02449
-8.12605
-8.24436
-8.38319
-8.54721
-8.74273
-8.98081
-9.27987
-9.66403
-10.1791
-10.9583
-12.1801
-13.796
-16.0038
-21.0886
-7.54272
-7.54972
-7.56384
-7.58564
-7.61616
-7.65644
-7.7071
-7.76834
-7.8402
-7.92322
-8.01911
-8.13064
-8.26134
-8.41617
-8.60421
-8.83998
-9.14297
-9.55467
-10.2032
-11.3089
-12.8937
-14.8866
-14.8698
-7.41135
-7.41696
-7.42815
-7.44536
-7.46942
-7.50113
-7.54093
-7.58878
-7.64438
-7.70771
-7.7796
-7.86163
-7.95558
-8.06373
-8.19043
-8.34207
-8.52568
-8.75831
-9.10393
-9.67849
-10.4131
-10.7149
-9.3443
-7.27283
-7.27708
-7.28542
-7.29815
-7.31581
-7.339
-7.36797
-7.40252
-7.44196
-7.48566
-7.53359
-7.58614
-7.64346
-7.70511
-7.77043
-7.83791
-7.90324
-7.96101
-8.01206
-8.05818
-7.98655
-7.41254
-5.79108
-7.12717
-7.13016
-7.13585
-7.14439
-7.15602
-7.17116
-7.18995
-7.2121
-7.23667
-7.26246
-7.28856
-7.31433
-7.33876
-7.35959
-7.37284
-7.37215
-7.3474
-7.28381
-7.15898
-6.93132
-6.50086
-5.69329
-4.3576
-6.97439
-6.97628
-6.97957
-6.98432
-6.99048
-6.99829
-7.0079
-7.01906
-7.03077
-7.04149
-7.04955
-7.05349
-7.05154
-7.04071
-7.01587
-6.96916
-6.88955
-6.76198
-6.56483
-6.26424
-5.80801
-5.11681
-4.20144
-6.82148
-6.8224
-6.82349
-6.8248
-6.82602
-6.82726
-6.82869
-6.83016
-6.83085
-6.82915
-6.82296
-6.81023
-6.78892
-6.75615
-6.70729
-6.63544
-6.53157
-6.38448
-6.18017
-5.90037
-5.52626
-5.04793
-4.50919
-6.67844
-6.67856
-6.6778
-6.67626
-6.67347
-6.66939
-6.66408
-6.65744
-6.64877
-6.63664
-6.619
-6.5937
-6.55875
-6.51198
-6.45019
-6.3688
-6.26211
-6.12404
-5.94858
-5.73008
-5.46652
-5.16564
-4.8646
-6.53033
-6.52995
-6.52799
-6.5246
-6.51931
-6.5119
-6.50215
-6.48973
-6.47401
-6.45391
-6.42798
-6.39464
-6.3524
-6.29979
-6.2351
-6.15632
-6.06148
-5.94944
-5.82061
-5.67656
-5.52246
-5.3598
-5.20819
-6.32595
-6.32587
-6.32302
-6.31821
-6.31126
-6.30182
-6.28939
-6.27335
-6.25317
-6.2284
-6.19869
-6.1636
-6.12253
-6.07482
-6.02009
-5.95872
-5.89208
-5.82297
-5.75636
-5.69933
-5.64651
-5.59605
-5.55208
-0.691574
0.350899
0.0411112
-0.0645512
-2.53805
-0.229198
-0.137025
-0.1616
4.3232
-0.544371
-0.473845
-0.382514
2.94338
-1.87913
-0.49121
-0.677481
-8.3032
-12.7481
-1.13965
-0.926668
-32.2213
-28.6595
-1.08885
-0.787727
-13.3536
-30.8304
-1.19046
-1.09826
-6.43117
-23.7026
-2.23606
-1.73008
-6.2028
-15.6613
-3.26234
-2.04511
-6.30771
-11.5464
-3.21177
-1.70682
-6.82502
-11.8661
-2.1775
-0.751836
-7.32922
-13.0909
0.126412
1.18369
-7.44113
-10.9695
1.42678
2.50146
-7.5438
-9.39595
0.504018
1.99747
-7.83042
-7.94456
-0.495148
0.563221
-7.41979
-3.26155
-0.645036
-0.32086
-3.65688
1.67373
-0.274301
-0.421871
-6.7439
0.00560848
-0.770262
-0.834489
-15.1979
-6.18267
-2.07728
-1.91081
-9.63965
-4.49399
-2.62124
-2.70397
-6.3008
-1.73106
-2.04116
-2.941
-12.0063
-3.05065
-1.97805
-3.14493
-14.2448
-4.09908
-3.09315
-3.65927
-12.7192
-4.4619
-4.34125
-4.49486
-12.219
-4.87647
-5.43457
-5.49467
-10.6022
-6.71371
-6.37857
-6.58821
-10.7104
-9.81352
-7.22397
-7.59819
-15.7141
-14.419
-7.68879
-8.21823
-14.0309
-9.49993
-5.95027
-8.14398
-13.623
-4.9409
-1.53474
-5.8412
-13.3782
-3.34065
-1.42705
-2.99371
-8.93862
-0.498596
-3.23611
-2.49665
-8.22714
-1.98847
-2.50807
-2.83297
-6.08043
-1.86176
-2.27622
-2.86003
-3.70707
-1.86284
-2.51184
-2.96507
-2.65456
-2.01246
-2.72916
-3.14125
-2.75288
-2.57959
-3.09852
-3.44286
-3.3614
-3.33908
-3.59034
-3.83555
-4.05501
-4.00253
-4.10829
-4.26682
-4.62293
-4.56055
-4.60425
-4.69305
-5.08999
-5.05007
-5.06711
-5.1121
-5.5191
-5.5074
-5.51222
-5.52541
-0.0380172
-0.0664265
-0.0834655
-0.0899486
-0.116468
-0.135577
-0.158137
-0.181709
-0.205202
-0.227778
-0.248936
-0.268163
-0.285224
-0.299969
-0.312309
-0.322196
-0.329617
-0.334562
-0.337031
-0.139906
-0.168673
-0.176317
-0.187922
-0.209605
-0.23185
-0.256862
-0.282974
-0.308851
-0.333541
-0.356438
-0.377111
-0.395324
-0.410975
-0.424005
-0.434408
-0.442191
-0.447368
-0.449947
-0.270137
-0.274943
-0.273072
-0.282973
-0.302523
-0.32724
-0.355251
-0.384374
-0.412986
-0.440001
-0.464798
-0.486998
-0.50641
-0.522986
-0.536711
-0.547626
-0.555766
-0.561166
-0.563852
-0.369369
-0.392541
-0.367657
-0.373479
-0.393584
-0.421524
-0.453313
-0.486024
-0.517775
-0.547324
-0.574159
-0.597949
-0.618589
-0.636086
-0.650498
-0.661908
-0.670389
-0.676002
-0.67879
-0.496842
-0.499652
-0.454608
-0.459033
-0.481915
-0.514512
-0.551131
-0.588108
-0.623294
-0.655706
-0.684696
-0.710112
-0.731975
-0.75037
-0.76544
-0.777314
-0.78611
-0.791918
-0.794802
-0.730275
-0.578671
-0.532155
-0.538195
-0.566851
-0.6062
-0.648937
-0.690952
-0.730078
-0.765421
-0.796614
-0.823648
-0.84669
-0.865934
-0.881611
-0.893903
-0.902977
-0.908957
-0.911923
-0.949389
-0.659874
-0.596975
-0.609925
-0.648169
-0.696875
-0.747195
-0.794976
-0.838354
-0.876754
-0.910134
-0.93872
-0.962859
-0.982874
-0.999081
-1.01173
-1.02104
-1.02716
-1.03019
-1.04537
-0.70798
-0.642125
-0.672392
-0.726271
-0.787276
-0.846624
-0.900772
-0.948587
-0.990033
-1.0255
-1.05551
-1.08061
-1.10128
-1.11792
-1.13084
-1.14032
-1.14655
-1.14962
-0.975245
-0.695589
-0.663878
-0.725849
-0.802446
-0.878741
-0.948258
-1.0091
-1.06131
-1.10563
-1.14297
-1.17419
-1.20007
-1.22123
-1.23817
-1.25128
-1.26087
-1.26715
-1.27025
-0.720204
-0.615751
-0.663956
-0.774301
-0.879501
-0.973224
-1.05341
-1.12083
-1.1771
-1.22393
-1.2628
-1.29493
-1.32134
-1.3428
-1.35989
-1.37308
-1.38269
-1.38897
-1.39208
-0.345933
-0.490213
-0.654515
-0.82386
-0.961695
-1.07328
-1.16364
-1.23691
-1.29657
-1.34532
-1.38522
-1.41788
-1.44452
-1.46604
-1.48312
-1.49625
-1.5058
-1.51203
-1.51511
0.113339
-0.355168
-0.6578
-0.887788
-1.0547
-1.18187
-1.28059
-1.35832
-1.42029
-1.47012
-1.51044
-1.54316
-1.56967
-1.59099
-1.60785
-1.62079
-1.63019
-1.63631
-1.63933
0.397066
-0.293132
-0.703906
-0.976295
-1.16388
-1.30174
-1.40574
-1.48587
-1.54872
-1.59861
-1.6386
-1.67083
-1.69682
-1.71766
-1.7341
-1.74669
-1.75584
-1.7618
-1.76473
0.312694
-0.36458
-0.811556
-1.09763
-1.29317
-1.43491
-1.54019
-1.62017
-1.68217
-1.73093
-1.76975
-1.80091
-1.82596
-1.84601
-1.86182
-1.87393
-1.88272
-1.88845
-1.89128
-0.0420057
-0.575829
-0.979758
-1.25335
-1.44394
-1.58229
-1.68444
-1.76147
-1.82073
-1.86709
-1.90387
-1.93334
-1.95703
-1.97599
-1.99096
-2.00245
-2.01079
-2.01624
-2.01892
-0.482258
-0.855929
-1.19382
-1.43998
-1.61527
-1.74365
-1.83844
-1.90967
-1.96429
-2.00694
-2.04081
-2.06799
-2.08991
-2.10752
-2.12145
-2.13218
-2.13999
-2.1451
-2.14762
-0.849054
-1.1602
-1.44011
-1.65242
-1.80516
-1.91804
-2.00153
-2.06427
-2.11244
-2.15019
-2.18032
-2.20468
-2.22446
-2.24045
-2.25318
-2.26303
-2.27024
-2.27496
-2.2773
-1.17726
-1.49441
-1.71287
-1.8863
-2.01101
-2.10385
-2.17261
-2.22447
-2.26459
-2.29637
-2.32207
-2.34313
-2.36046
-2.37463
-2.38603
-2.39492
-2.40146
-2.40576
-2.4079
-1.53396
-1.85637
-2.0091
-2.13741
-2.22997
-2.29897
-2.35015
-2.38915
-2.4199
-2.44488
-2.46561
-2.48303
-2.49769
-2.5099
-2.51987
-2.52772
-2.53356
-2.53742
-2.53933
-1.95934
-2.19351
-2.31706
-2.40179
-2.45894
-2.50098
-2.53226
-2.5569
-2.57738
-2.59501
-2.61045
-2.62402
-2.63587
-2.64604
-2.65453
-2.66133
-2.66643
-2.66984
-2.67153
-2.39081
-2.56878
-2.63993
-2.67764
-2.69507
-2.70709
-2.71678
-2.72614
-2.7359
-2.74597
-2.75602
-2.76571
-2.77474
-2.78286
-2.78986
-2.7956
-2.79998
-2.80293
-2.80441
-2.86672
-2.96734
-2.97847
-2.96237
-2.93473
-2.91415
-2.90124
-2.89513
-2.89425
-2.89692
-2.90175
-2.90769
-2.91399
-2.92014
-2.92571
-2.93043
-2.93411
-2.93662
-2.93789
-3.47973
-3.42288
-3.33201
-3.2529
-3.17347
-3.11837
-3.08296
-3.06204
-3.0512
-3.04703
-3.04706
-3.04956
-3.05336
-3.05768
-3.06193
-3.0657
-3.06872
-3.07082
-3.07188
-4.27386
-3.93671
-3.68897
-3.54665
-3.40475
-3.31517
-3.25906
-3.22508
-3.20562
-3.19556
-3.19145
-3.19097
-3.1926
-3.19531
-3.19837
-3.20129
-3.20371
-3.20543
-3.20632
-5.17784
-4.46366
-4.0539
-3.80616
-3.6175
-3.49929
-3.42672
-3.38262
-3.35649
-3.34186
-3.33449
-3.33164
-3.3315
-3.33287
-3.33493
-3.33711
-3.33902
-3.34041
-3.34113
-6.13191
-4.95217
-4.33845
-4.02391
-3.80429
-3.66696
-3.58382
-3.53337
-3.50304
-3.48544
-3.47588
-3.47134
-3.46989
-3.47024
-3.47151
-3.47309
-3.47456
-3.47567
-3.47626
-6.9648
-5.34835
-4.54646
-4.18875
-3.95966
-3.81569
-3.72899
-3.67657
-3.64483
-3.62605
-3.61543
-3.60996
-3.6077
-3.60735
-3.60804
-3.60916
-3.61029
-3.61118
-3.61165
-7.42841
-5.61115
-4.6673
-4.29491
-4.08116
-3.94403
-3.86183
-3.81214
-3.78185
-3.76367
-3.75313
-3.74746
-3.74487
-3.74416
-3.74449
-3.74529
-3.74617
-3.74688
-3.74727
-7.36706
-5.6084
-4.67934
-4.34471
-4.16545
-4.05301
-3.98335
-3.94075
-3.91451
-3.89853
-3.88911
-3.88393
-3.88146
-3.88067
-3.88084
-3.88145
-3.88217
-3.88275
-3.88307
-6.56497
-5.33031
-4.59566
-4.35065
-4.22875
-4.14744
-4.09589
-4.06372
-4.04357
-4.0311
-4.02364
-4.0195
-4.01753
-4.01692
-4.0171
-4.01764
-4.01826
-4.01877
-4.01905
-5.1879
-4.8457
-4.45601
-4.33595
-4.27695
-4.23263
-4.20251
-4.18284
-4.1701
-4.162
-4.15709
-4.1544
-4.15322
-4.15299
-4.1533
-4.15386
-4.15445
-4.15492
-4.15517
-4.12691
-4.37972
-4.32821
-4.32376
-4.32275
-4.31498
-4.30674
-4.30015
-4.2953
-4.29196
-4.28992
-4.28892
-4.28868
-4.28895
-4.2895
-4.29014
-4.29074
-4.2912
-4.29144
-3.68957
-4.09858
-4.24783
-4.32907
-4.37645
-4.40038
-4.41202
-4.41771
-4.42043
-4.42177
-4.4226
-4.42333
-4.4241
-4.42492
-4.42574
-4.4265
-4.42714
-4.4276
-4.42783
-3.4935
-3.97101
-4.22093
-4.36094
-4.44486
-4.49343
-4.52127
-4.53732
-4.54663
-4.55215
-4.55559
-4.55792
-4.55963
-4.56098
-4.56208
-4.56297
-4.56366
-4.56412
-4.56436
-3.48548
-3.96636
-4.25275
-4.42529
-4.53214
-4.59728
-4.63665
-4.66044
-4.67486
-4.68372
-4.68929
-4.69295
-4.69545
-4.69725
-4.69858
-4.69958
-4.7003
-4.70077
-4.70101
-3.61548
-4.05596
-4.34116
-4.52342
-4.64004
-4.7136
-4.75954
-4.78809
-4.80584
-4.81695
-4.82402
-4.82861
-4.83167
-4.83378
-4.83527
-4.83634
-4.83708
-4.83755
-4.83778
-3.84296
-4.21941
-4.47923
-4.65336
-4.76829
-4.84281
-4.8905
-4.92079
-4.93998
-4.95217
-4.95998
-4.96505
-4.96839
-4.97064
-4.97219
-4.97326
-4.97399
-4.97445
-4.97467
-4.13744
-4.4382
-4.65777
-4.81106
-4.91517
-4.9843
-5.02945
-5.05864
-5.07742
-5.08948
-5.09727
-5.10233
-5.10565
-5.10786
-5.10935
-5.11036
-5.11104
-5.11146
-5.11166
-4.47185
-4.69524
-4.86708
-4.99142
-5.07804
-5.13675
-5.17577
-5.20137
-5.21804
-5.22886
-5.23588
-5.24045
-5.24344
-5.24542
-5.24674
-5.24763
-5.24822
-5.24858
-5.24875
-4.82466
-4.9765
-5.09836
-5.18916
-5.25379
-5.29835
-5.32841
-5.34838
-5.36151
-5.3701
-5.37569
-5.37934
-5.38173
-5.38331
-5.38435
-5.38505
-5.38551
-5.38578
-5.38592
-5.18468
-5.27194
-5.34422
-5.39931
-5.43918
-5.46706
-5.48609
-5.49885
-5.50731
-5.51287
-5.51651
-5.51889
-5.52044
-5.52146
-5.52214
-5.52259
-5.52288
-5.52306
-5.52314
-5.54828
-5.5757
-5.59916
-5.61746
-5.63095
-5.64054
-5.64718
-5.65169
-5.6547
-5.65669
-5.65801
-5.65886
-5.65943
-5.6598
-5.66004
-5.6602
-5.66031
-5.66037
-5.6604
)
;

boundaryField
{
    leftWall
    {
        type            calculated;
        value           nonuniform List<scalar> 
50
(
1811.99
1630.69
1447.11
1261.59
1073.82
884.176
692.6
499.188
346.901
236.721
127.95
38.6319
-3.24919
-5.91865
-6.02732
-6.15077
-6.28224
-6.4206
-6.5647
-6.7129
-6.86359
-7.01498
-7.16516
-7.31203
-7.4534
-7.58698
-7.71051
-7.82174
-7.91853
-7.99898
-8.06154
-8.10513
-8.12915
-8.1335
-8.11842
-8.08414
-8.03144
-7.96169
-7.87636
-7.777
-7.66524
-7.54272
-7.41135
-7.27283
-7.12717
-6.97439
-6.82148
-6.67844
-6.53033
-6.32595
)
;
    }
    rightWall
    {
        type            calculated;
        value           nonuniform List<scalar> 
50
(
1.12344
0.94268
0.760135
0.575742
0.389389
0.200926
0.0101749
-0.183068
-0.337031
-0.449947
-0.563852
-0.67879
-0.794802
-0.911923
-1.03019
-1.14962
-1.27025
-1.39208
-1.51511
-1.63933
-1.76473
-1.89128
-2.01892
-2.14762
-2.2773
-2.4079
-2.53933
-2.67153
-2.80441
-2.93789
-3.07188
-3.20632
-3.34113
-3.47626
-3.61165
-3.74727
-3.88307
-4.01905
-4.15517
-4.29144
-4.42783
-4.56436
-4.70101
-4.83778
-4.97467
-5.11166
-5.24875
-5.38592
-5.52314
-5.6604
)
;
    }
    lowerWall
    {
        type            calculated;
        value           nonuniform List<scalar> 
62
(
1901.51
1902.35
1902.75
1903.22
1903.74
1904.52
1905.65
1907.16
1909.07
1911.43
1914.25
1917.54
1921.16
1925.06
1929.13
1933.2
1937.05
1940.48
1943.25
1945
1945.98
1942.79
1928.02
1853.39
1687.89
1520.2
1348.58
1177.62
1009.52
826.123
604.069
21.93
0.402052
0.0922637
-0.013399
1.25017
1.07418
0.896655
0.734551
0.553248
0.398185
0.238214
0.0869268
1.33969
1.33725
1.33276
1.32675
1.31933
1.31077
1.30135
1.29134
1.28105
1.27074
1.26069
1.25112
1.24226
1.23431
1.22742
1.22175
1.21739
1.21445
1.21296
)
;
    }
    atmosphere
    {
        type            calculated;
        value           nonuniform List<scalar> 
46
(
-6.17297
-6.1744
-6.17095
-6.16558
-6.15814
-6.14829
-6.13541
-6.11884
-6.09815
-6.07339
-6.04493
-6.01312
-5.97796
-5.93926
-5.89729
-5.8534
-5.81013
-5.77111
-5.74158
-5.72905
-5.72904
-5.72904
-5.72907
-5.7293
-5.7291
-5.72905
-5.72904
-5.72904
-5.72904
-5.72904
-5.72904
-5.72904
-5.72904
-5.72904
-5.72904
-5.72904
-5.72904
-5.72904
-5.72904
-5.72904
-5.72904
-5.72904
-5.72904
-5.72904
-5.72904
-5.72904
)
;
    }
    defaultFaces
    {
        type            empty;
    }
}


// ************************************************************************* //
