/*--------------------------------*- C++ -*----------------------------------*\
| =========                 |                                                 |
| \\      /  F ield         | OpenFOAM: The Open Source CFD Toolbox           |
|  \\    /   O peration     | Version:  2206                                  |
|   \\  /    A nd           | Website:  www.openfoam.com                      |
|    \\/     M anipulation  |                                                 |
\*---------------------------------------------------------------------------*/
FoamFile
{
    version     2.0;
    format      ascii;
    arch        "LSB;label=32;scalar=64";
    class       volScalarField;
    location    "0.575";
    object      alpha.water;
}
// * * * * * * * * * * * * * * * * * * * * * * * * * * * * * * * * * * * * * //

dimensions      [0 0 0 0 0 0 0];

internalField   nonuniform List<scalar> 
2268
(
0.999999
0.999999
1
1
1
1
1
1
1
1
1
1
1
1
1
1
1
0.999687
0.949088
0.908719
0.967806
0.998942
0.998942
0.999999
1
1
1
1
1
1
1
1
1
1
1
1
1
1
1
1
1
0.98967
0.908826
0.931025
0.99894
0.998942
1
1
1
1
1
1
1
1
1
1
1
1
1
1
1
1
1
1
1
0.978002
0.9196
0.953302
0.99894
1
1
1
1
1
1
1
1
1
1
1
1
1
1
1
1
1
1
1
0.999974
0.9196
0.936111
0.99729
1
1
1
1
1
1
1
1
1
1
1
1
1
1
1
1
1
1
1
1
0.97305
0.992354
0.999595
1
1
1
1
1
1
1
1
1
1
1
1
1
1
1
1
1
1
1
1
1
0.999971
0.999955
1
1
0.999999
0.999997
0.999995
0.999994
0.999997
0.999999
1
1
1
1
1
1
1
1
1
1
1
1
1
1
0.999903
1
0.999984
0.999921
0.998094
0.99826
0.999842
0.999911
0.999968
0.999994
1
1
1
1
1
1
1
1
1
1
1
1
1
0.999902
0.000192552
0.000133029
0.000135639
0.538332
0.635612
0.643726
0.644439
0.683048
0.690269
0.703709
0.743862
0.782053
0.812099
0.837795
0.854438
0.866113
0.874979
0.877883
0.772962
0.00254386
0.000192552
0.155111
0.528267
0.137841
0.0670522
0.0539095
0.0642264
0.0857762
0.117521
0.169783
0.2379
0.312529
0.395051
0.506454
0.665579
0.828466
0.921433
0.922135
0.0066637
0.0987677
0.248952
0.2655
0.00243289
6.09277e-05
5.95071e-05
6.09861e-05
7.08226e-05
0.000104794
0.000195808
0.000410519
0.000902773
0.00207066
0.00457552
0.0139551
0.283506
0.80404
0.923554
0.0128784
0.2204
0.231853
0.0746608
0.000130531
5.92728e-05
5.95071e-05
5.95071e-05
6.62394e-05
0.000101244
0.000381686
0.0014783
0.00165048
0.00365078
0.00580129
0.00629978
0.0139551
0.480535
0.923735
0.00375813
0.0925225
0.220438
0.0404187
0.00575739
9.81262e-05
5.92896e-05
6.25709e-05
6.47088e-05
6.97951e-05
7.91601e-05
0.00136167
0.014886
0.0339422
0.0180036
0.00736637
0.0084264
0.342838
0.923812
0.0149414
0.0158748
0.0383579
0.0120673
0.00412928
0.00071275
0.000159648
6.36449e-05
6.97951e-05
7.91624e-05
8.29381e-05
8.29381e-05
0.0450891
0.0467941
0.0467941
0.014227
0.0250336
0.366545
0.92384
0.096941
0.085905
0.137811
0.122739
0.0452334
0.00282934
0.000724631
0.000145475
7.8242e-05
8.5857e-05
8.29183e-05
0.000860673
0.0455018
0.0464437
0.0468155
0.0150996
0.0197999
0.502545
0.923845
0.62407
0.68452
0.861278
0.861572
0.598133
0.0571147
0.00377916
0.00115209
0.000335223
0.000133599
0.000102217
0.00809179
0.0450828
0.0455018
0.0058849
0.003962
0.0129166
0.541965
0.923845
0.897076
0.777684
0.640638
0.562804
0.585732
0.67261
0.792167
0.874547
0.932199
0.975547
0.998577
1
1
1
1
1
1
1
1
1
1
1
0.999991
0.111584
0.0297363
2.58233e-05
0.0056447
0.0657109
0.131655
0.167724
0.195759
0.252873
0.349983
0.476107
0.627956
0.80184
0.965663
1
1
1
1
1
1
1
1
1
2.41116e-09
9.53825e-09
8.67066e-07
4.34422e-10
4.00945e-12
7.68167e-11
1.3634e-09
7.50746e-09
3.0717e-09
4.04607e-08
6.40431e-07
0.0171226
0.0938003
0.221965
0.413221
0.626079
0.861047
0.99983
1
1
1
1
1
1.32155e-09
1.08588e-07
2.46215e-08
4.00945e-12
2.90297e-12
2.31815e-12
2.08147e-11
1.09213e-10
1.04406e-09
2.87274e-09
3.80603e-09
5.00961e-09
3.84197e-08
6.74719e-07
0.0168086
0.0573597
0.125246
0.294752
0.50805
0.736481
0.942383
0.993903
0.997149
3.29507e-11
1.30395e-09
3.36031e-10
2.71629e-12
1.79648e-12
2.05735e-12
2.31815e-12
3.51899e-11
1.85664e-09
3.24545e-09
3.56159e-09
3.84299e-09
5.01569e-09
3.85495e-08
6.75654e-07
2.43906e-06
5.17894e-06
2.42835e-06
0.0105037
0.0514886
0.162462
0.33369
0.494011
3.04458e-14
2.30541e-12
2.86622e-12
6.84822e-13
1.79354e-12
3.34497e-12
3.33122e-12
3.92171e-12
2.50664e-08
9.66216e-08
5.58906e-08
4.87832e-09
3.20876e-08
5.54283e-05
9.61948e-05
9.49295e-05
2.42709e-05
2.32486e-06
2.42835e-06
2.79582e-06
4.72598e-06
3.4193e-05
0.00424531
3.01552e-16
3.68164e-14
3.89379e-14
5.23882e-13
2.96885e-12
6.51556e-12
7.44398e-12
6.02721e-12
3.20963e-08
1.23076e-07
1.09288e-07
5.07942e-09
4.90665e-08
3.79207e-05
4.08573e-05
4.47255e-12
1.43589e-12
2.27859e-06
3.356e-05
0.000103918
0.0001143
8.99445e-05
8.99661e-05
7.25239e-19
1.00371e-16
1.99536e-14
4.90733e-13
3.01758e-12
7.57595e-12
1.07338e-11
9.14953e-12
7.54822e-09
9.50291e-08
1.21471e-07
9.49379e-08
7.41782e-08
2.05616e-07
4.47255e-12
1.43589e-12
1.43589e-12
1.43589e-12
1.55833e-05
5.67036e-05
0.00025345
0.000274211
0.000231936
3.31424e-21
1.01809e-17
6.62114e-15
2.85432e-13
2.38179e-12
7.15831e-12
1.10124e-11
1.16299e-11
1.2009e-11
9.03488e-09
8.52817e-08
1.68254e-07
8.36696e-07
7.92816e-09
1.5771e-12
1.43681e-12
1.43589e-12
1.43681e-12
9.74938e-06
0.000150612
0.000274211
0.000274211
0.000274211
-1.77169e-18
9.63712e-19
1.69203e-15
1.13775e-13
1.18349e-12
4.63285e-12
1.04053e-11
1.51522e-11
6.59916e-10
1.83414e-09
1.84922e-09
2.76286e-08
1.93517e-07
5.1521e-08
2.01219e-12
1.48184e-12
1.43681e-12
1.96972e-06
9.86585e-06
2.4342e-05
0.000233822
0.000274211
0.000274204
-3.21725e-18
0
3.57221e-16
3.61218e-14
4.29617e-13
2.16157e-12
7.52995e-12
7.84153e-12
3.10217e-10
3.10748e-09
3.13831e-09
5.14244e-10
2.27677e-10
2.20889e-10
2.20809e-10
7.2718e-12
3.4616e-12
2.95749e-06
4.37165e-09
6.71149e-09
0.000100013
0.000273892
0.00018138
-3.9809e-18
-7.74868e-18
6.01418e-17
9.38484e-15
1.2362e-13
7.53395e-13
4.57654e-12
7.73509e-12
2.81659e-11
3.16342e-09
3.58664e-09
3.52575e-09
3.11668e-09
1.29387e-09
4.40309e-11
1.35399e-12
6.62693e-12
1.72812e-09
8.77744e-10
1.11326e-08
7.83093e-05
0.000273062
0.000272316
-4.10456e-18
-1.09707e-17
8.26165e-18
1.96872e-15
2.89252e-14
2.22842e-13
2.67103e-12
8.50474e-12
9.00455e-12
1.03277e-09
2.59727e-09
4.10941e-09
3.95006e-09
3.33526e-10
1.35019e-12
1.34797e-12
1.53002e-12
2.08197e-12
2.03755e-11
6.89942e-10
8.60073e-06
0.000191044
0.000272086
-3.7722e-18
-9.69067e-18
2.23805e-20
3.3545e-16
5.60621e-15
6.20289e-14
1.44027e-12
7.38553e-12
8.77053e-12
5.37143e-12
2.51587e-10
2.87475e-09
8.07347e-10
9.05303e-12
1.59259e-12
1.33621e-12
2.41451e-12
3.52287e-12
3.85255e-12
7.45959e-12
5.17899e-11
9.81982e-10
1.50118e-05
-3.11378e-18
-7.41826e-18
-3.15047e-18
4.36824e-17
8.97002e-16
1.55591e-14
5.21293e-13
3.7119e-12
6.70578e-12
4.43857e-12
2.8129e-11
1.6662e-10
4.76956e-13
1.34934e-12
1.43866e-12
6.71362e-13
2.21538e-12
5.42101e-12
7.5776e-12
7.61061e-12
9.14854e-12
5.25194e-11
9.33214e-09
-2.29335e-18
-5.00315e-18
-5.76545e-18
3.92675e-18
1.15682e-16
3.46648e-15
1.33359e-13
1.21439e-12
2.97428e-12
3.3179e-12
9.42261e-13
4.76956e-13
4.7702e-13
4.6049e-13
4.02673e-13
7.87752e-14
2.77825e-13
3.10725e-12
1.01081e-11
1.57748e-11
1.80739e-11
9.14184e-11
8.50688e-10
-1.49273e-18
-2.91937e-18
-4.26096e-18
1.01292e-20
1.14817e-17
7.01025e-16
2.74675e-14
2.6478e-13
7.71265e-13
1.11474e-12
1.21045e-12
6.83772e-13
3.2598e-13
1.29012e-13
3.82654e-14
9.75243e-15
6.66538e-15
9.13492e-14
1.45176e-12
9.27448e-12
3.25007e-11
1.29777e-10
5.92194e-10
-8.48429e-19
-1.45945e-18
-2.4712e-18
-3.06179e-19
8.27185e-19
1.24239e-16
4.53577e-15
4.24237e-14
1.49335e-13
3.15848e-13
4.9472e-13
2.69029e-13
6.29685e-14
9.30091e-15
1.68733e-15
8.48779e-16
1.32443e-15
1.61844e-14
2.07613e-13
2.25828e-12
1.43967e-11
6.18845e-11
2.50109e-10
-4.14896e-19
-6.12032e-19
-1.18044e-18
-2.78811e-19
5.2205e-20
1.82019e-17
6.33595e-16
6.14153e-15
2.61404e-14
5.53583e-14
6.45368e-14
4.46881e-14
1.50705e-14
2.25581e-15
1.61424e-16
4.7003e-17
2.26315e-16
3.35618e-15
4.56338e-14
9.19095e-13
1.28348e-11
6.23174e-11
1.39925e-10
-1.71522e-19
-2.09076e-19
-4.51326e-19
-1.20979e-19
3.83252e-21
2.15529e-18
8.05599e-17
8.63521e-16
3.97186e-15
8.03883e-15
8.67449e-15
6.34429e-15
2.525e-15
4.43362e-16
2.35953e-17
5.19308e-19
3.38977e-17
8.49142e-16
1.26287e-14
2.12558e-13
4.52637e-12
3.60888e-11
9.70978e-11
-5.87845e-20
-5.58207e-20
-1.32851e-19
-3.62249e-20
2.48336e-22
2.01895e-19
9.46448e-18
1.14014e-16
5.12886e-16
1.02888e-15
1.11738e-15
7.94533e-16
3.31202e-16
6.21733e-17
2.08926e-18
-3.33024e-19
2.86952e-18
2.29819e-16
4.87708e-15
5.54955e-14
5.89671e-13
6.62015e-12
3.51579e-11
-1.6365e-20
-1.09726e-20
-2.84954e-20
-7.73056e-21
4.41743e-24
1.31861e-20
9.13539e-19
1.31333e-17
5.66784e-17
1.05574e-16
1.15164e-16
8.06815e-17
2.88317e-17
1.94329e-18
-2.34249e-18
-2.0851e-18
2.12931e-19
4.48848e-17
1.54975e-15
2.07198e-14
1.42224e-13
9.24579e-13
8.31055e-12
-3.63012e-21
-1.4414e-21
-4.14627e-21
-1.12943e-21
-6.11768e-23
4.89288e-22
6.01523e-20
1.06878e-18
4.55647e-18
8.03755e-18
9.0638e-18
6.25733e-18
1.14724e-18
-1.41351e-18
-3.18357e-18
-2.55669e-18
7.84701e-21
6.56855e-18
3.71349e-16
6.43797e-15
5.01428e-14
2.76936e-13
2.10203e-12
-6.32448e-22
-1.02745e-22
-3.65517e-22
-1.02398e-22
-1.09908e-23
6.87194e-24
2.05613e-21
4.73136e-20
2.16084e-19
3.89487e-19
4.28318e-19
8.34595e-20
-4.57581e-19
-1.61581e-18
-2.36595e-18
-1.70349e-18
-3.07741e-19
1.00487e-18
7.97465e-17
1.68987e-15
1.60218e-14
9.54577e-14
6.38976e-13
-8.63059e-23
-1.25961e-24
-1.28456e-23
-4.24465e-24
-5.4349e-25
1.65206e-26
1.92656e-23
8.61836e-22
4.51427e-21
6.37841e-21
0
-9.67361e-20
-4.03919e-19
-8.75097e-19
-1.03559e-18
-7.08565e-19
-2.02619e-19
1.75902e-19
1.66293e-17
4.26739e-16
4.55323e-15
2.57926e-14
1.38134e-13
-9.42021e-24
-1.16028e-26
-3.0128e-25
-1.21936e-25
-6.51185e-26
-4.34172e-25
-1.27066e-24
5.04825e-25
0
-1.08483e-21
-9.86452e-21
-4.9632e-20
-1.52048e-19
-2.79647e-19
-3.02872e-19
-2.00516e-19
-6.35895e-20
3.05903e-20
3.19379e-18
9.9553e-17
1.19866e-15
5.94985e-15
1.70517e-14
-8.46673e-25
-1.96979e-28
-5.69169e-27
-4.16327e-27
-2.29134e-26
-2.42522e-25
-1.98922e-24
-1.3361e-23
-9.03766e-23
-6.05215e-22
-3.22046e-21
-1.26871e-20
-3.41544e-20
-5.81548e-20
-6.01296e-20
-3.87916e-20
-1.19664e-20
5.84525e-21
5.60083e-19
2.3128e-17
3.33055e-16
1.22112e-15
3.86014e-16
-6.4386e-26
-1.90006e-29
-1.09821e-28
-4.63519e-28
-6.19111e-27
-7.05018e-26
-6.29882e-25
-4.55279e-24
-2.80563e-23
-1.4989e-22
-6.62753e-22
-2.25776e-21
-5.4842e-21
-8.76912e-21
-8.61056e-21
-5.34286e-21
-1.36602e-21
1.17756e-21
1.21576e-19
6.70802e-18
8.21884e-17
2.39503e-16
2.17636e-17
-4.23444e-27
-2.16801e-30
-4.59251e-30
-7.23838e-29
-1.06304e-27
-1.22006e-26
-1.1046e-25
-7.99262e-25
-4.70229e-24
-2.27696e-23
-9.00027e-23
-2.7923e-22
-6.35755e-22
-9.69245e-22
-8.96412e-22
-5.30608e-22
-9.2309e-23
2.12809e-22
2.23066e-20
1.46229e-18
1.7029e-17
4.7689e-17
6.76859e-18
-2.44799e-28
-1.93682e-31
-3.52608e-31
-7.42083e-30
-1.05395e-28
-1.16404e-27
-1.02477e-26
-7.29046e-26
-4.2284e-25
-2.00876e-24
-7.76516e-24
-2.36408e-23
-5.3033e-23
-7.91302e-23
-6.99044e-23
-3.96279e-23
-3.6694e-24
3.07605e-23
2.66992e-21
2.13594e-19
2.97146e-18
9.60605e-18
2.44504e-18
-1.25799e-29
-1.35289e-32
-1.82513e-32
-4.35753e-31
-6.12679e-30
-6.72964e-29
-5.918e-28
-4.23841e-27
-2.4918e-26
-1.20407e-25
-4.73788e-25
-1.46588e-24
-3.31529e-24
-4.89291e-24
-4.21881e-24
-2.30414e-24
0
2.85308e-24
2.1188e-22
2.31984e-20
4.59208e-19
1.85467e-18
1.29292e-18
-5.78772e-31
-7.89635e-34
-6.56318e-34
-1.76305e-32
-2.48266e-31
-2.76082e-30
-2.46456e-29
-1.80326e-28
-1.09057e-27
-5.44846e-27
-2.21963e-26
-7.07843e-26
-1.62801e-25
-2.38609e-25
-2.04048e-25
-1.07681e-25
1.22696e-26
1.94064e-25
1.2187e-23
1.87333e-21
6.04537e-20
3.21118e-19
1.39094e-19
-2.39358e-32
-3.98019e-35
-1.8362e-35
-5.51035e-34
-7.80372e-33
-8.86598e-32
-8.0933e-31
-6.09322e-30
-3.81687e-29
-1.98441e-28
-8.42022e-28
-2.77938e-27
-6.51732e-27
-9.50524e-27
-8.13368e-27
-4.1418e-27
4.8697e-28
1.1928e-26
6.7527e-25
1.2302e-22
6.29801e-21
4.2172e-20
8.18672e-21
-8.90964e-34
-1.74149e-36
-4.29108e-37
-1.42632e-35
-2.03366e-34
-2.36906e-33
-2.21674e-32
-1.72167e-31
-1.11956e-30
-6.06322e-30
-2.68093e-29
-9.1525e-29
-2.18572e-28
-3.17272e-28
-2.73067e-28
-1.33177e-28
1.47484e-29
7.63587e-28
4.30562e-26
6.80341e-24
4.85732e-22
3.90817e-21
5.28797e-22
-2.98336e-35
-6.68038e-38
-8.78643e-39
-3.19361e-37
-4.59096e-36
-5.48262e-35
-5.26162e-34
-4.21562e-33
-2.84212e-32
-1.59983e-31
-7.34772e-31
-2.58462e-30
-6.26936e-30
-9.05691e-30
-7.83912e-30
-3.60907e-30
7.91067e-31
4.54609e-29
2.56203e-27
2.63474e-25
2.42534e-23
2.52675e-22
2.98128e-23
-8.96914e-37
-2.24756e-39
-1.63247e-40
-6.37806e-39
-9.26104e-38
-1.1318e-36
-1.11334e-35
-9.18306e-35
-6.39872e-34
-3.72825e-33
-1.76984e-32
-6.38107e-32
-1.56608e-31
-2.24781e-31
-1.95154e-31
-8.25958e-32
3.68985e-32
2.11879e-30
1.16916e-28
7.93073e-27
8.41405e-25
1.23335e-23
1.5777e-24
-2.41571e-38
-6.68183e-41
-2.82571e-42
-1.16285e-40
-1.70919e-39
-2.13187e-38
-2.1452e-37
-1.81675e-36
-1.3037e-35
-7.82605e-35
-3.81557e-34
-1.40203e-33
-3.46656e-33
-4.93238e-33
-4.2751e-33
-1.59916e-33
1.20284e-33
7.59841e-32
3.82096e-30
2.44853e-28
2.67392e-26
5.58737e-25
1.87269e-25
-5.8171e-40
-1.73535e-42
-4.64454e-44
-1.97081e-42
-2.93642e-41
-3.72662e-40
-3.82665e-39
-3.31736e-38
-2.4419e-37
-1.50335e-36
-7.49133e-36
-2.78977e-35
-6.91485e-35
-9.72779e-35
-8.37185e-35
-2.63798e-35
2.62614e-35
1.77593e-33
1.14126e-31
8.18678e-30
4.69895e-28
1.80471e-26
1.26047e-25
-1.25393e-41
-3.92002e-44
-7.33286e-46
-3.14587e-44
-4.75264e-43
-6.11741e-42
-6.39473e-41
-5.65924e-40
-4.25919e-39
-2.6781e-38
-1.35802e-37
-5.102e-37
-1.26259e-36
-1.75193e-36
-1.48959e-36
-3.7752e-37
2.64777e-37
2.40939e-35
2.06588e-33
1.53739e-31
8.66536e-30
5.48344e-28
1.94299e-26
-2.43593e-43
-7.7651e-46
-1.11749e-47
-4.77177e-46
-7.30674e-45
-9.50971e-44
-1.00976e-42
-9.09975e-42
-6.98175e-41
-4.46889e-40
-2.2974e-39
-8.68204e-39
-2.1385e-38
-2.92014e-38
-2.44194e-38
-4.83187e-39
5.9567e-40
6.68752e-38
7.6778e-36
6.92337e-34
7.35444e-32
7.59952e-30
2.86078e-28
-4.31628e-45
-1.35817e-47
-1.64208e-49
-6.92063e-48
-1.07354e-46
-1.40792e-45
-1.51562e-44
-1.38811e-43
-1.08301e-42
-7.03692e-42
-3.65829e-41
-1.38735e-40
-3.39439e-40
-4.55394e-40
-3.73427e-40
-5.68787e-41
1.53947e-42
1.24664e-40
1.03113e-38
7.82466e-37
9.20149e-35
1.09128e-32
2.24463e-31
-7.09339e-47
-2.06308e-49
-2.31079e-51
-9.63524e-50
-1.51434e-48
-1.99401e-47
-2.17425e-46
-2.01911e-45
-1.59877e-44
-1.05253e-43
-5.52236e-43
-2.0972e-42
-5.092e-42
-6.70806e-42
-5.38211e-42
-6.28773e-43
4.46778e-45
3.35282e-43
2.24081e-41
1.3973e-39
8.23926e-38
4.77076e-36
2.63302e-34
0.999873
0.999224
0.999254
0.999739
0.999983
0.999987
0.999987
0.999987
0.999986
0.999986
0.999987
0.999966
0.999961
0.999931
0.999966
0.997244
0.648053
0.784463
0.995479
0.784099
0.0348842
0.151417
0.53572
0.629247
8.96837e-05
0.000106158
0.0416256
0.626856
9.71414e-05
0.00010409
0.00535397
0.344507
0.000265557
9.91233e-05
9.80104e-05
0.0363112
0.000273262
8.71993e-05
8.98316e-05
0.00118915
8.49115e-05
8.53248e-05
0.000205302
1.67386e-05
0.000269242
0.00020914
0.000177152
2.66952e-06
0.000261008
5.19812e-05
8.20194e-06
4.35643e-07
2.92682e-05
2.78853e-08
1.36924e-08
5.67231e-08
5.10304e-09
4.21817e-09
4.88127e-09
1.02078e-08
1.1731e-09
3.45766e-09
4.33881e-09
4.80016e-09
1.67778e-09
3.49813e-09
4.32824e-09
4.25023e-09
9.39205e-10
2.14663e-09
3.19137e-09
4.11776e-09
2.54263e-10
4.51609e-10
8.06778e-10
1.44199e-08
1.46428e-10
1.59028e-10
2.19089e-10
1.59917e-08
9.65798e-11
1.72249e-10
3.10171e-10
6.21585e-09
5.5434e-11
1.5141e-10
2.60194e-10
4.87933e-10
2.1107e-11
7.91932e-11
1.49012e-10
1.97754e-10
6.4345e-12
2.84098e-11
8.2879e-11
1.87117e-10
2.14833e-12
1.41938e-11
6.85096e-11
1.62922e-10
7.85807e-13
8.343e-12
5.60709e-11
1.31039e-10
3.0787e-13
3.82353e-12
3.16801e-11
7.93819e-11
1.33796e-13
1.87957e-12
1.22034e-11
1.38513e-11
6.11985e-14
9.95297e-13
4.19794e-12
6.07671e-13
3.77101e-14
3.89177e-13
3.96673e-13
1.65987e-13
1.59606e-14
1.2836e-13
1.2947e-13
1.66309e-13
3.19893e-15
3.90789e-14
5.27212e-13
9.54409e-12
2.76437e-16
9.57679e-15
4.27579e-13
8.07863e-12
1.14845e-17
1.46166e-15
1.74795e-13
6.19404e-12
5.9929e-19
1.91323e-16
5.27861e-14
1.66181e-12
3.79152e-20
1.02456e-17
6.75638e-15
1.86194e-13
1.75949e-21
1.28321e-19
7.56271e-16
2.41504e-14
5.4703e-23
1.58715e-21
1.14095e-16
2.90723e-15
6.57953e-25
1.20753e-22
1.1425e-17
2.48083e-16
1.28398e-26
3.39028e-24
6.06962e-19
1.51753e-17
1.68742e-29
6.75237e-25
1.79086e-20
2.89752e-19
6.9302e-32
1.65666e-27
3.59722e-26
2.1599e-24
0.999836
0.99968
0.998467
0.984009
0.972312
0.913119
0.80489
0.414519
0.00549304
0.000567405
0.000255815
0.0420238
0.0450828
0.0137361
0.00146023
0.0017231
0.0115792
0.529851
0.923982
0.999966
0.968434
0.760046
0.379747
0.0886534
0.0628597
0.218284
0.382241
0.215647
0.0147947
0.00444531
0.0827651
0.0281171
0.00146023
0.00146023
0.00146023
0.00209048
0.532981
0.924747
0.935619
0.32913
0.00465816
0.00372072
0.00361756
0.00354283
0.0035068
0.110367
0.214418
0.0465346
0.0992824
0.0959055
0.0113004
0.00159037
0.00146023
0.00178431
0.0330877
0.701034
0.927288
0.302555
0.00381942
0.00367975
0.00361756
0.00354283
0.00350473
0.00353734
0.0375684
0.156703
0.080639
0.109027
0.072358
0.00142657
0.00119035
0.0141355
0.074922
0.500795
0.908261
0.927759
0.0293038
0.00327691
0.00358172
0.00361427
0.00609896
0.00958952
0.0116254
0.020422
0.0478826
0.0325067
0.0875188
0.0444374
0.00119035
0.00110453
0.00115873
0.180639
0.871365
0.927759
0.927759
0.00327712
0.0031207
0.0036863
0.00344487
0.000962801
0.000744754
0.00143561
0.00471281
0.00629597
0.00913893
0.0105236
0.00989245
0.00275978
0.00113332
0.00110983
0.165391
0.840278
0.927615
0.927759
0.200281
0.00285213
0.00270007
0.00192264
0.000739716
0.000725739
0.000843778
0.00144371
0.00317565
0.00630157
0.00914566
0.0104772
0.010078
0.00515496
0.00115873
0.087827
0.749153
0.927149
0.927615
0.455348
0.00417845
0.000617048
0.000622232
0.000673894
0.000789357
0.00107755
0.00177291
0.0034763
0.0727394
0.199001
0.257218
0.381704
0.407623
0.250012
0.292509
0.740169
0.926482
0.927149
0.491506
0.316283
0.000621186
0.00061625
0.000666194
0.000956579
0.0017571
0.0254807
0.265575
0.596733
0.695066
0.776327
0.746327
0.731281
0.680214
0.40253
0.303133
0.634831
0.926482
0.164574
0.358421
0.153458
0.000659264
0.000684442
0.000954998
0.134311
0.638085
0.653055
0.655162
0.698001
0.883329
0.743664
0.434488
0.0872575
0.0236604
0.0284456
0.547097
0.925922
0.00497939
0.144842
0.197674
0.114366
0.170257
0.317218
0.612386
0.648332
0.63697
0.599157
0.737659
0.888872
0.603702
0.111
0.0236604
0.0236604
0.0397433
0.690614
0.925804
1.67385e-05
0.00293665
0.0750252
0.10285
0.172201
0.285782
0.417541
0.61049
0.712718
0.737376
0.888872
0.888872
0.888872
0.721137
0.0792436
0.0236604
0.0912197
0.807973
0.925806
3.03153e-06
3.97269e-05
0.000405634
0.0123522
0.0253499
0.0528805
0.149372
0.249638
0.158828
0.0756089
0.64522
0.888872
0.886039
0.889868
0.825843
0.524844
0.530874
0.90575
0.925805
4.05487e-07
6.48611e-06
5.43034e-05
0.000199599
0.000619946
0.001859
0.00261785
0.00159694
0.000802768
0.00357773
0.269178
0.874239
0.889
0.895794
0.907036
0.907113
0.907036
0.906282
0.882991
5.67241e-08
8.74567e-07
6.54866e-06
2.96775e-05
0.000114576
0.000306072
0.000461566
0.000187692
2.7963e-05
5.24802e-05
0.0429021
0.285137
0.406835
0.418052
0.803419
0.907036
0.907125
0.906585
0.885621
1.0217e-08
9.40943e-08
7.01619e-07
4.13172e-06
1.85024e-05
5.42558e-05
8.45178e-05
2.58865e-05
2.37541e-05
2.81758e-05
5.90054e-05
0.000251055
0.00140067
0.00775084
0.417511
0.832247
0.900728
0.905721
0.88695
4.79938e-09
1.25452e-08
6.96574e-08
4.69433e-07
2.42732e-06
8.8989e-06
1.49051e-05
7.91562e-06
2.00448e-05
2.10281e-05
2.89347e-05
7.05688e-05
0.000343694
0.0035109
0.025779
0.111734
0.331915
0.555799
0.701389
4.35044e-09
5.53578e-09
1.29762e-08
7.20026e-08
4.42629e-07
1.31845e-06
2.45969e-06
1.31714e-06
2.06872e-05
0.000108905
3.40872e-05
3.03694e-05
0.00094507
0.00198907
0.000118238
0.00036528
0.00146582
0.0761901
0.322866
3.88442e-08
3.48533e-08
2.97282e-08
2.37361e-08
1.07415e-07
2.58687e-07
4.02425e-07
3.22569e-07
1.12155e-05
0.000116731
3.61169e-05
2.9307e-05
3.04207e-05
3.51584e-05
5.15756e-05
0.000118238
0.000474649
0.0538124
0.295491
4.18434e-08
4.18502e-08
4.10519e-08
1.42715e-08
3.89577e-09
3.61272e-08
1.08609e-07
1.14552e-07
2.16228e-07
7.6304e-05
3.78906e-05
2.83448e-05
9.52936e-05
6.67288e-05
9.26609e-05
0.00013297
0.000270988
0.0516279
0.348849
2.75081e-08
3.7401e-08
3.49105e-08
1.23002e-08
1.41319e-09
3.54472e-09
1.89713e-08
4.95491e-08
1.41891e-07
1.32673e-06
1.88442e-06
5.21275e-07
0.00028743
0.000494659
0.000591955
0.000642022
0.00048902
0.0104957
0.348849
1.82621e-09
6.25039e-09
6.74621e-09
3.38754e-09
1.27066e-09
1.8122e-08
3.39211e-08
3.57556e-08
4.19612e-08
6.01328e-08
1.06971e-07
1.85379e-07
1.37901e-07
0.000401696
0.000754241
0.000786105
0.000585984
0.00272879
0.117668
2.5086e-10
8.87521e-10
1.6738e-09
1.27289e-09
1.27869e-09
3.19482e-08
5.2214e-08
5.03946e-08
4.85706e-08
5.34972e-08
9.22978e-08
1.21684e-07
1.12951e-07
2.99051e-07
0.000160521
0.000178467
0.000221442
0.00240629
0.043588
2.86008e-10
1.28474e-09
2.08077e-09
1.31118e-09
1.28672e-09
4.82059e-09
5.41652e-09
1.45625e-07
3.68877e-07
2.57045e-07
1.26216e-07
1.12995e-07
1.09314e-07
1.0764e-07
1.07022e-07
1.08564e-07
0.00490312
0.00735658
0.139877
2.07148e-10
5.8553e-10
7.68761e-10
5.16203e-10
1.22443e-09
3.553e-09
6.09465e-09
7.60309e-07
1.43991e-06
7.8254e-07
1.16674e-07
1.09313e-07
1.0764e-07
1.07022e-07
1.06966e-07
1.07022e-07
0.0188105
0.00971154
0.140054
1.38617e-10
1.40214e-10
1.42789e-10
2.04622e-08
1.10517e-05
5.25874e-05
5.74385e-05
2.55502e-05
2.04284e-06
1.52198e-07
1.13321e-07
1.07885e-07
1.07071e-07
1.06966e-07
1.0699e-07
0.00012979
0.0188923
0.00948232
0.125155
7.78943e-11
7.82103e-11
4.53066e-06
3.2008e-05
9.10405e-05
0.000180015
0.00018099
0.00017392
3.18862e-05
1.03298e-06
9.48719e-07
1.25039e-07
1.07648e-07
1.0699e-07
1.06965e-07
0.00711642
0.0189271
0.0105048
0.0130823
5.1932e-12
2.69054e-08
4.05426e-05
6.30891e-05
5.16711e-05
7.91767e-05
0.00018357
0.000183544
0.000173297
2.12666e-05
2.5954e-07
1.18411e-07
1.07641e-07
1.06985e-07
1.06971e-07
0.0177143
0.0181309
0.0144204
0.0686692
3.1257e-13
1.92213e-06
3.46706e-05
1.61023e-06
1.40499e-08
2.86452e-08
0.000110979
0.000183595
0.000181031
2.63407e-05
2.78092e-07
1.77816e-07
1.07345e-07
1.0697e-07
1.06985e-07
0.0175367
0.0150097
0.0175395
0.112939
1.84863e-13
1.95551e-06
2.69686e-11
3.32906e-11
1.03641e-09
1.40499e-08
6.79895e-05
0.000181031
0.000115054
7.54476e-06
3.3555e-06
4.17635e-07
1.18784e-07
1.24725e-07
1.06963e-07
0.00942901
0.0141179
0.0304773
0.113037
2.67652e-08
4.55827e-11
8.86492e-12
2.63025e-11
3.32906e-11
1.56316e-08
4.63449e-05
7.93582e-05
3.59782e-05
3.79297e-05
1.07409e-05
2.45154e-07
1.19008e-07
1.13424e-07
1.07226e-07
0.00468838
0.0265377
0.0404097
0.113105
3.33152e-09
3.06896e-10
1.64787e-12
8.86492e-12
1.128e-06
5.43873e-07
1.30749e-06
1.08156e-05
2.02005e-05
5.57195e-05
9.68069e-06
1.61028e-07
1.28637e-07
1.21969e-07
9.80998e-08
0.0193321
0.0377811
0.0416741
0.113104
3.66444e-12
3.6521e-12
1.58314e-12
1.64787e-12
5.68824e-06
3.53163e-06
2.78149e-06
1.42735e-05
5.833e-05
5.744e-05
8.24026e-06
1.93697e-07
4.0959e-07
4.09304e-06
0.00484629
0.0355611
0.0370208
0.0308394
0.113105
1.61716e-11
1.12248e-11
1.4869e-12
1.68304e-12
6.43829e-06
6.90441e-06
6.98084e-06
4.91866e-05
5.8402e-05
5.833e-05
2.40702e-05
2.0632e-06
9.67997e-06
0.00164406
0.0176556
0.0147881
0.0313012
0.0218773
0.098074
4.01793e-12
1.4291e-12
7.74978e-13
9.45091e-08
2.97593e-06
5.86023e-06
2.71637e-05
5.85765e-05
5.85057e-05
5.8402e-05
3.31025e-05
1.13009e-05
0.00034953
0.00302378
0.00257265
1.49799e-05
0.00621938
0.00841924
0.0120694
1.37068e-13
4.5353e-14
4.71033e-14
6.34521e-12
7.78073e-07
4.08434e-06
3.30089e-05
5.85765e-05
5.86094e-05
5.84585e-05
6.52022e-06
1.28854e-05
0.000313152
0.000625782
1.49799e-05
1.42673e-05
1.36657e-05
0.00137304
0.0579774
1.87276e-14
1.07253e-14
5.21147e-14
1.43981e-10
6.12445e-07
3.97691e-06
2.1495e-05
5.85938e-05
5.85765e-05
4.33744e-05
2.21626e-07
1.11082e-05
0.000131034
0.000114614
9.69744e-05
2.20293e-05
1.37525e-05
1.37525e-05
0.11993
2.36563e-15
2.44848e-15
1.54558e-12
2.64379e-10
5.35338e-07
5.71336e-06
1.13666e-05
2.46507e-05
4.15647e-05
8.79267e-06
4.44231e-08
2.26268e-06
3.21428e-07
0.000148719
0.000148947
4.6506e-05
9.54364e-06
0.00250865
0.173499
2.65187e-16
-5.411e-15
1.33007e-12
1.20861e-10
1.66415e-07
4.88387e-06
6.94524e-06
1.5569e-06
1.14704e-06
4.44231e-08
2.77802e-08
3.28401e-08
1.4817e-07
8.92984e-05
7.8332e-05
1.04069e-06
2.767e-06
0.00922264
0.190474
1.48052e-17
1.01415e-15
8.23421e-14
9.30894e-12
2.68841e-09
1.03875e-06
2.7638e-06
1.74373e-06
7.12934e-08
2.77802e-08
2.70501e-08
2.77802e-08
1.65787e-06
1.81561e-07
1.06457e-07
1.54914e-08
7.55444e-10
0.00708328
0.190472
1.80613e-19
6.89455e-17
9.43986e-15
3.00305e-13
4.82479e-11
2.91542e-10
6.79512e-08
9.55188e-07
4.68856e-07
7.61822e-08
2.71083e-08
5.58732e-06
1.41137e-05
7.5547e-06
5.32211e-09
1.57674e-10
7.63268e-12
7.64029e-13
0.120413
2.39013e-25
8.50395e-20
5.59755e-17
8.30535e-15
2.1937e-13
9.5763e-12
2.91542e-10
7.18707e-09
2.81517e-07
9.22474e-08
2.7693e-08
6.32967e-06
5.84474e-06
2.30055e-07
-1.00829e-11
-3.47564e-13
-2.75892e-16
0
0.00486594
)
;

boundaryField
{
    leftWall
    {
        type            zeroGradient;
    }
    rightWall
    {
        type            zeroGradient;
    }
    lowerWall
    {
        type            zeroGradient;
    }
    atmosphere
    {
        type            inletOutlet;
        inletValue      uniform 0;
        value           nonuniform List<scalar> 
46
(
-7.09339e-47
-2.06308e-49
-2.31079e-51
-9.63524e-50
-1.51434e-48
-1.99401e-47
-2.17425e-46
-2.01911e-45
-1.59877e-44
-1.05253e-43
-5.52236e-43
-2.0972e-42
-5.092e-42
-6.70806e-42
-5.38211e-42
-6.28773e-43
4.46778e-45
3.35282e-43
2.24081e-41
1.3973e-39
8.23926e-38
4.77076e-36
2.63302e-34
6.9302e-32
1.65666e-27
0
0
0
8.50395e-20
5.59755e-17
8.30535e-15
2.1937e-13
9.5763e-12
2.91542e-10
7.18707e-09
2.81517e-07
9.22474e-08
2.7693e-08
6.32967e-06
0
0
0
0
0
0
0.00486594
)
;
    }
    defaultFaces
    {
        type            empty;
    }
}


// ************************************************************************* //
