/*--------------------------------*- C++ -*----------------------------------*\
| =========                 |                                                 |
| \\      /  F ield         | OpenFOAM: The Open Source CFD Toolbox           |
|  \\    /   O peration     | Version:  2206                                  |
|   \\  /    A nd           | Website:  www.openfoam.com                      |
|    \\/     M anipulation  |                                                 |
\*---------------------------------------------------------------------------*/
FoamFile
{
    version     2.0;
    format      ascii;
    arch        "LSB;label=32;scalar=64";
    class       surfaceScalarField;
    location    "0.575";
    object      alphaPhi0.water;
}
// * * * * * * * * * * * * * * * * * * * * * * * * * * * * * * * * * * * * * //

dimensions      [0 3 -1 0 0 0 0];

oriented        oriented;

internalField   nonuniform List<scalar> 
4432
(
-3.34319e-06
3.34319e-06
-5.67693e-06
2.33374e-06
-5.51441e-06
-1.62522e-07
-3.68481e-06
-1.82961e-06
-4.19489e-07
-3.26532e-06
3.8811e-06
-4.30058e-06
8.243e-06
-4.3619e-06
1.17374e-05
-3.49445e-06
1.39408e-05
-2.2033e-06
1.49152e-05
-9.74464e-07
1.48658e-05
4.93921e-08
1.39483e-05
9.17554e-07
1.23615e-05
1.58678e-06
1.01659e-05
2.19557e-06
7.22878e-06
2.93714e-06
3.26485e-06
3.96394e-06
-1.82912e-06
5.09397e-06
-7.05441e-06
5.2715e-06
-9.96595e-06
3.59691e-06
-1.52289e-05
4.90256e-06
-2.20465e-05
5.6061e-06
-1.68542e-05
-5.19228e-06
-1.68541e-05
-3.80679e-06
7.14998e-06
-5.38527e-06
3.91221e-06
-4.89495e-06
-6.52846e-07
-3.19913e-06
-3.52542e-06
-1.34462e-07
-6.33e-06
4.03983e-06
-8.47488e-06
8.41154e-06
-8.73361e-06
1.19089e-05
-6.99186e-06
1.40834e-05
-4.37774e-06
1.50524e-05
-1.94349e-06
1.51909e-05
-8.90646e-08
1.48428e-05
1.26564e-06
1.41521e-05
2.27742e-06
1.32074e-05
3.14033e-06
1.19961e-05
4.14847e-06
1.02326e-05
5.72745e-06
7.20611e-06
8.12041e-06
1.93771e-06
1.05399e-05
-5.00663e-06
1.11316e-05
-1.20253e-05
1.15585e-05
-1.62554e-05
8.93492e-06
-1.15646e-05
-9.883e-06
-2.84185e-05
-2.93778e-06
1.00878e-05
-4.04953e-06
5.02395e-06
-3.74983e-06
-9.52546e-07
-2.58029e-06
-4.69496e-06
-3.98918e-08
-8.8704e-06
3.89448e-06
-1.24093e-05
8.25032e-06
-1.30894e-05
1.17332e-05
-1.04748e-05
1.38192e-05
-6.46376e-06
1.4673e-05
-2.79728e-06
1.46647e-05
-8.07161e-08
1.41107e-05
1.81961e-06
1.32437e-05
3.14441e-06
1.2249e-05
4.13504e-06
1.13173e-05
5.08017e-06
1.06696e-05
6.37523e-06
1.0271e-05
8.51895e-06
8.85061e-06
1.19603e-05
4.89439e-06
1.50878e-05
-9.9366e-07
1.85329e-05
-5.28753e-06
1.29243e-05
-4.0297e-06
-1.10432e-05
-3.24481e-05
-1.66086e-06
1.17486e-05
-2.10312e-06
5.46621e-06
-1.93876e-06
-1.11691e-06
-1.19625e-06
-5.43746e-06
8.20741e-07
-1.08874e-05
4.36293e-06
-1.59514e-05
8.33442e-06
-1.70609e-05
1.14961e-05
-1.36365e-05
1.33497e-05
-8.31731e-06
1.40629e-05
-3.51055e-06
1.3993e-05
-1.0771e-08
1.34414e-05
2.37123e-06
1.26135e-05
3.97228e-06
1.16588e-05
5.08978e-06
1.07126e-05
6.02636e-06
1.00014e-05
7.0864e-06
9.98684e-06
8.53354e-06
1.07312e-05
1.12159e-05
1.11195e-05
1.46995e-05
1.04628e-05
1.91998e-05
7.57941e-06
1.55032e-05
4.5485e-06
-7.67198e-06
-2.78604e-05
-2.80394e-08
1.17767e-05
7.96131e-07
4.64203e-06
1.36271e-06
-1.68349e-06
2.41302e-06
-6.48777e-06
4.43456e-06
-1.29089e-05
7.16316e-06
-1.868e-05
9.83488e-06
-1.97326e-05
1.18116e-05
-1.56131e-05
1.29039e-05
-9.40963e-06
1.3286e-05
-3.89265e-06
1.31551e-05
1.20096e-07
1.26697e-05
2.85669e-06
1.19828e-05
4.65913e-06
1.12231e-05
5.84952e-06
1.04724e-05
6.77703e-06
9.84864e-06
7.71016e-06
9.65334e-06
8.72883e-06
1.05062e-05
1.03631e-05
1.26238e-05
1.25819e-05
1.54905e-05
1.63331e-05
1.55932e-05
1.59244e-05
1.01041e-05
-2.14379e-06
-1.77665e-05
2.42543e-06
9.35122e-06
5.02988e-06
2.03758e-06
7.10363e-06
-3.75724e-06
9.41942e-06
-8.80356e-06
1.17123e-05
-1.52018e-05
1.30003e-05
-1.99681e-05
1.33591e-05
-2.00914e-05
1.32537e-05
-1.55078e-05
1.2942e-05
-9.09791e-06
1.26051e-05
-3.55577e-06
1.2272e-05
4.53237e-07
1.18442e-05
3.28442e-06
1.13238e-05
5.17959e-06
1.07895e-05
6.38383e-06
1.02737e-05
7.29281e-06
9.86496e-06
8.11887e-06
9.75967e-06
8.83413e-06
1.03171e-05
9.80567e-06
1.20361e-05
1.08629e-05
1.55125e-05
1.28567e-05
1.75406e-05
1.38963e-05
1.22001e-05
3.19389e-06
-5.5669e-06
4.95558e-06
4.39563e-06
1.0362e-05
-3.36885e-06
1.52275e-05
-8.62277e-06
1.92944e-05
-1.28705e-05
2.11067e-05
-1.70141e-05
2.00552e-05
-1.89166e-05
1.76886e-05
-1.77249e-05
1.54556e-05
-1.32748e-05
1.37304e-05
-7.37274e-06
1.24943e-05
-2.31971e-06
1.16999e-05
1.24772e-06
1.11373e-05
3.84696e-06
1.07034e-05
5.61352e-06
1.03944e-05
6.6928e-06
1.01081e-05
7.5791e-06
9.88474e-06
8.34225e-06
9.9557e-06
8.76316e-06
1.04875e-05
9.27383e-06
1.15195e-05
9.83096e-06
1.39849e-05
1.03912e-05
1.61851e-05
1.16961e-05
1.27434e-05
6.63561e-06
7.17519e-06
7.42851e-06
-3.03288e-06
1.6706e-05
-1.26459e-05
2.45904e-05
-1.65068e-05
2.85656e-05
-1.64814e-05
2.7673e-05
-1.57312e-05
2.38556e-05
-1.51003e-05
1.97956e-05
-1.36653e-05
1.6722e-05
-1.02015e-05
1.46134e-05
-5.26426e-06
1.31936e-05
-8.99858e-07
1.20793e-05
2.36202e-06
1.11246e-05
4.80161e-06
1.04202e-05
6.31795e-06
1.00649e-05
7.04807e-06
9.85471e-06
7.78932e-06
9.75869e-06
8.43827e-06
1.00407e-05
8.48115e-06
1.07507e-05
8.56383e-06
1.16008e-05
8.98088e-06
1.30407e-05
8.95131e-06
1.44851e-05
1.02517e-05
1.20836e-05
9.03709e-06
1.92576e-05
9.47878e-08
-9.90761e-08
2.56481e-08
5.77962e-08
3.05427e-09
1.02394e-08
-4.40013e-05
3.32459e-05
-9.11038e-05
3.67967e-05
-0.000115198
1.34034e-05
-0.000122679
7.19609e-07
-0.000121689
-1.78453e-06
-0.000119695
-2.06134e-06
-0.000120442
-2.2648e-06
-0.000123756
-2.47403e-06
-0.000126638
-2.4752e-06
-0.000128115
-3.00412e-06
-0.000125906
-5.81851e-06
-0.000118394
-1.03553e-05
-0.000105291
-1.55567e-05
-7.29109e-05
-3.5049e-05
-1.09846e-05
-6.21638e-05
-1.30851e-05
1.95991e-07
-6.25844e-07
-2.41458e-06
2.64197e-06
-3.29272e-05
3.59715e-05
-5.16918e-05
4.23918e-05
-2.59395e-05
1.08953e-05
-1.51629e-05
1.818e-06
-1.41753e-05
-2.26842e-09
-1.69769e-05
-1.02312e-08
-2.14845e-05
-3.20068e-08
-2.87275e-05
-8.05149e-08
-3.89709e-05
-1.71725e-07
-5.07404e-05
-3.99745e-07
-6.24818e-05
-7.54872e-07
-7.52419e-05
-1.65011e-06
-9.00188e-05
-4.43294e-06
-0.000104211
-1.05517e-05
-9.03298e-05
-5.61257e-05
-3.30034e-05
-0.000120337
-4.68799e-05
-1.03878e-06
-1.28231e-06
-2.41767e-05
3.03583e-05
-4.21954e-05
4.90288e-05
-1.08231e-05
5.65315e-06
-1.78052e-06
1.85215e-06
-1.27539e-08
4.81269e-08
-1.54783e-08
-1.27258e-09
-2.84005e-08
5.51921e-10
-6.53657e-08
1.28154e-09
-1.56879e-07
1.68824e-09
-3.4384e-07
-9.31485e-09
-6.5511e-07
-1.47125e-07
-1.15863e-06
-3.79652e-07
-2.50292e-06
-5.64948e-07
-7.38613e-06
-1.46682e-07
-1.73075e-05
-1.57049e-06
-6.50418e-05
-2.36792e-05
-4.70791e-05
-0.000151092
-9.43168e-05
-5.3486e-06
-9.4681e-08
-2.06874e-05
2.29092e-05
-1.5915e-05
4.11376e-05
-1.56669e-06
1.88033e-06
-4.14349e-08
3.34839e-07
-4.6314e-09
9.63068e-09
-8.87001e-09
1.32932e-09
-1.33146e-08
3.29445e-09
-2.25841e-08
7.5971e-09
-4.41977e-08
1.43201e-08
-1.25851e-07
-3.64578e-09
-3.81731e-07
-1.86605e-07
-6.5416e-07
-3.53276e-07
-2.63987e-07
-1.47847e-06
-1.06565e-06
-1.40511e-07
-3.9177e-06
4.26353e-07
-2.07526e-05
-7.7895e-06
-5.08181e-05
-0.000130013
-0.000145328
-2.36187e-07
-3.77681e-07
-8.71503e-06
1.10495e-05
-3.416e-07
1.92424e-05
-4.21135e-07
3.30283e-06
2.34155e-07
1.54367e-06
4.39569e-08
2.09762e-07
3.83412e-09
3.97767e-08
-2.27033e-09
6.18701e-09
-9.55616e-09
1.04443e-08
-1.42391e-08
1.55886e-08
-1.73791e-08
-2.02062e-09
-1.58477e-07
-1.484e-07
1.22702e-06
-4.37931e-06
2.34161e-06
-6.78365e-06
1.82773e-06
-1.91081e-06
4.02758e-07
1.00353e-06
-7.683e-06
-5.43681e-07
-4.54493e-05
-0.000109154
-0.000190866
-3.07336e-07
7.31677e-08
3.87216e-06
7.44616e-06
5.27009e-06
1.14086e-05
1.76899e-06
5.56227e-06
1.22614e-06
3.01557e-06
4.52567e-07
9.85883e-07
1.01919e-07
3.83695e-07
1.45625e-08
8.90814e-08
1.54128e-09
2.00511e-08
-6.50296e-10
1.49273e-08
1.83354e-09
-6.66034e-09
7.15961e-07
-8.63346e-07
3.86721e-06
-7.73403e-06
4.7605e-06
-7.29913e-06
5.93386e-06
-2.70637e-06
4.48412e-06
1.46241e-06
-2.85375e-08
2.71406e-06
-3.41351e-05
-0.000106799
-0.000225037
-2.27608e-06
9.71774e-06
6.55755e-06
4.1307e-06
2.14482e-05
-1.92425e-06
2.29403e-05
-1.23369e-06
6.73233e-06
9.67881e-06
3.35881e-06
4.37386e-06
1.14796e-06
2.5816e-06
2.63297e-07
9.57903e-07
6.81095e-08
2.12439e-07
2.2094e-08
5.73283e-08
3.32873e-08
-1.86623e-08
1.8269e-06
-1.92494e-06
4.35773e-06
-9.1455e-06
4.71367e-06
-7.14552e-06
3.89141e-06
-1.64306e-06
3.40081e-06
7.42443e-07
1.40697e-06
3.5193e-06
-2.2064e-05
-0.000118329
-0.00024711
2.35724e-05
-1.27495e-05
4.96825e-05
-1.67605e-05
7.2907e-05
-2.17072e-05
8.45265e-05
-2.15125e-05
4.3039e-05
-3.97496e-06
1.61279e-05
1.28135e-05
6.78579e-06
1.16434e-05
1.55355e-06
6.12084e-06
6.06144e-07
1.13943e-06
2.21624e-07
4.33942e-07
1.97348e-07
1.18897e-08
2.70807e-06
-9.04253e-07
4.04304e-06
-8.87054e-06
2.91405e-06
-4.89717e-06
2.06186e-07
-2.0201e-07
9.49477e-08
5.28093e-07
-1.39916e-06
3.82294e-06
-1.31565e-05
-0.000125945
-0.000260264
1.9821e-05
-1.2009e-05
3.27282e-05
-1.17719e-05
3.31065e-05
-1.39332e-06
3.03826e-05
-2.54702e-06
2.85754e-05
-2.63502e-06
2.78027e-05
-3.2126e-06
2.60837e-05
-4.01865e-06
2.43995e-05
-3.91279e-06
2.45687e-05
-2.90115e-06
2.57544e-05
-1.05188e-06
2.63224e-05
1.58656e-06
2.56353e-05
5.48871e-06
2.46448e-05
7.30851e-06
2.39257e-05
7.76714e-06
2.27035e-05
9.01151e-06
2.14117e-05
9.7301e-06
2.14886e-05
8.40427e-06
2.28933e-05
7.15913e-06
2.48444e-05
7.02974e-06
2.74577e-05
6.338e-06
3.15132e-05
6.19622e-06
3.64453e-05
4.10507e-06
1.24563e-05
4.32451e-05
3.017e-06
-1.51848e-11
1.14952e-06
-2.10913e-09
-2.37802e-07
-1.53624e-09
-1.61946e-06
3.53998e-09
-2.38729e-06
-1.04064e-12
-2.42099e-06
-1.71388e-11
-2.89017e-06
-2.24336e-10
-3.14414e-06
-2.42406e-09
-2.28586e-06
-2.31268e-08
-2.74371e-08
-1.89128e-07
5.82255e-06
-9.03792e-07
1.49566e-05
-1.06675e-06
2.33565e-05
4.48011e-07
2.70436e-05
3.80444e-06
2.58577e-05
1.01974e-05
2.25917e-05
1.29961e-05
2.22208e-05
8.77512e-06
2.35007e-05
5.87929e-06
2.51948e-05
5.3356e-06
2.79992e-05
3.53355e-06
3.20266e-05
2.1689e-06
3.64551e-05
-3.23472e-07
2.79176e-06
4.61197e-05
-1.48571e-11
-7.15664e-13
-2.10851e-09
-1.60037e-11
-3.51617e-09
1.92295e-11
-4.48718e-14
2.38149e-11
-1.08787e-12
-8.06154e-17
-1.82129e-11
-2.21831e-14
-2.42175e-10
-5.04304e-13
-2.66738e-09
4.02819e-13
-2.5792e-08
-2.34684e-12
-2.14839e-07
-8.34819e-11
-1.1172e-06
-1.46369e-09
-2.39175e-06
-1.89017e-08
-2.70322e-06
-1.80189e-07
-9.01945e-07
-1.0021e-06
5.21046e-06
-2.6121e-07
1.43077e-05
7.43565e-07
2.5092e-05
1.90776e-07
2.89397e-05
2.1674e-06
2.8315e-05
5.96033e-06
2.85912e-05
3.25737e-06
3.05461e-05
2.13945e-07
3.22617e-05
-2.03906e-06
-4.62941e-06
3.96829e-05
-9.93973e-13
-2.92615e-15
-4.26066e-11
1.90949e-14
-2.37996e-11
4.12348e-13
-7.20607e-17
1.29934e-14
-2.97837e-15
-1.07018e-17
-2.81827e-14
1.75038e-15
-5.35696e-13
8.39122e-16
-1.50643e-13
5.35217e-15
-2.48535e-12
-2.66861e-16
-8.56726e-11
-1.68737e-13
-1.54872e-09
-3.79734e-13
-2.04472e-08
-2.86223e-12
-2.00557e-07
-7.84735e-11
-1.20054e-06
-2.11981e-09
-2.21274e-06
-5.23224e-09
-2.93747e-06
-7.78785e-09
-4.32296e-06
-6.4567e-08
-1.41011e-06
-8.11341e-07
7.87136e-06
-1.9796e-06
2.26289e-05
-3.64432e-06
3.415e-05
-4.80909e-06
3.69936e-05
-3.58185e-06
-6.99782e-06
3.98796e-05
-1.37653e-14
5.69505e-18
-3.81293e-13
-1.70922e-15
-8.73987e-15
2.99465e-15
1.55038e-15
8.51578e-17
-1.18063e-17
9.51781e-18
-1.37147e-16
2.85844e-17
1.00853e-19
6.37428e-17
9.60888e-16
9.81267e-16
2.35242e-14
2.5975e-14
3.26963e-14
1.8669e-13
-2.98627e-14
-1.86782e-16
-2.61461e-12
3.54897e-14
-7.73688e-11
-3.42113e-12
-2.38035e-10
-1.95901e-09
-5.87839e-10
-4.88267e-09
-4.76582e-09
-3.53941e-09
-6.73691e-08
-1.64361e-09
-8.78336e-07
-1.93378e-10
-1.09361e-06
-1.20119e-09
-3.03989e-06
-4.49315e-09
-3.60628e-06
-6.77632e-08
-2.70821e-06
-6.82601e-07
-2.94154e-06
-1.7413e-07
-1.20312e-17
1.24278e-20
-2.39875e-15
-4.98542e-19
-3.23978e-17
2.5169e-17
-4.24552e-18
-5.02185e-18
-2.40038e-17
1.29895e-17
-1.98426e-17
4.59772e-17
2.28524e-17
5.31498e-17
-9.84572e-17
1.15662e-15
-4.49389e-13
1.18394e-13
-1.5309e-13
-1.43297e-13
3.29363e-13
2.16181e-13
2.3356e-13
3.82575e-14
-1.63547e-11
3.79052e-13
-1.19404e-09
-8.33525e-10
-1.33987e-09
-1.27072e-09
-1.18733e-09
-3.28588e-14
-9.11464e-11
-5.25309e-12
-6.5001e-11
-5.24317e-11
-2.45423e-10
-8.40119e-10
-3.97556e-09
-5.29711e-10
-6.97975e-08
-1.26142e-09
-7.42085e-07
-9.12734e-10
-3.26552e-09
-8.15673e-07
-1.24609e-19
3.53533e-22
-1.39045e-17
-8.94285e-22
-7.75959e-19
2.57764e-19
-3.62624e-18
3.51412e-18
-1.99646e-17
2.52635e-17
-2.00163e-17
7.70123e-17
1.06964e-17
1.04137e-16
9.71127e-16
2.86439e-16
-4.62556e-13
1.56558e-13
-7.28727e-13
2.15601e-13
-3.5287e-14
1.50939e-13
-1.96107e-13
1.36017e-14
-1.8525e-11
7.81077e-14
-3.41631e-11
-2.71747e-10
-1.9115e-15
-3.33432e-12
-3.1017e-14
-7.28286e-16
-5.28408e-12
-2.88412e-17
1.03483e-10
-7.9372e-14
1.7185e-09
-5.50304e-10
4.08209e-09
-6.25629e-10
4.02547e-09
-1.21242e-09
3.60438e-09
-1.44598e-09
-9.93706e-10
7.12121e-10
-4.37287e-23
9.4288e-24
-1.25148e-20
-7.53192e-23
-2.33102e-19
5.19231e-20
-3.09138e-18
3.0516e-18
-1.16052e-17
2.47212e-17
-1.23096e-17
7.41849e-17
-8.08637e-18
1.20738e-16
2.12612e-16
1.30763e-16
-1.33989e-13
6.06679e-15
-5.25649e-13
1.04365e-13
-1.95002e-13
-7.60918e-14
2.68559e-13
-3.57553e-13
6.33099e-13
-3.71907e-12
3.31378e-12
-2.43934e-12
6.89232e-16
-1.81995e-14
-9.36188e-19
-3.81565e-17
5.10791e-19
-3.0327e-17
9.6139e-13
-1.04076e-12
8.50221e-10
-4.36791e-10
8.8532e-09
-6.27766e-09
1.78746e-08
-1.15173e-08
2.62259e-08
-9.48415e-09
1.61212e-09
1.7829e-08
-8.44507e-25
8.47478e-24
-4.68889e-22
-7.96614e-24
-6.26032e-20
1.24079e-20
-1.18511e-18
1.31496e-18
-3.88579e-18
1.50951e-17
3.15617e-18
5.90611e-17
1.92869e-17
1.06378e-16
4.16452e-17
1.14632e-16
5.81608e-15
-6.87181e-17
5.23091e-14
-2.86836e-15
1.28528e-13
-3.45051e-15
4.64e-13
-3.36918e-13
5.53904e-12
-1.60319e-12
1.29941e-14
-8.5795e-13
8.10187e-18
-5.22698e-15
9.66382e-18
-3.9787e-17
1.36989e-17
-3.44008e-17
4.11796e-11
-4.22204e-11
1.9334e-09
-4.73304e-10
7.58564e-09
-4.47711e-09
1.3815e-08
-1.74335e-08
1.94515e-08
-1.48075e-08
-2.90325e-09
2.428e-08
-3.80224e-24
-3.83077e-23
-4.30273e-23
-2.77055e-24
-1.2442e-20
2.71666e-21
-2.12179e-19
3.88578e-19
1.78993e-19
5.05971e-18
8.50485e-18
2.54494e-17
3.7804e-17
7.9796e-17
1.76511e-16
1.21154e-16
6.21793e-15
4.25993e-15
1.30144e-14
5.39375e-15
2.60079e-14
-2.51619e-15
4.60752e-13
-4.61093e-14
1.20272e-12
-5.41337e-14
5.85928e-16
-2.41657e-14
-9.32133e-17
-4.5018e-15
1.0081e-17
-1.46273e-16
5.90744e-17
-8.34627e-17
7.12263e-11
-9.47037e-11
3.4667e-10
-3.37282e-12
2.32594e-09
-3.0122e-10
6.26701e-09
-1.4901e-08
8.85398e-09
-1.70813e-08
-3.94024e-09
1.01454e-08
-8.65156e-26
-7.07527e-23
-1.33261e-23
1.0469e-23
-1.70016e-21
4.52634e-22
-1.50369e-20
9.86237e-20
3.52397e-19
1.36344e-18
5.05671e-18
8.28239e-18
2.29409e-17
4.01217e-17
9.60458e-17
4.86731e-17
4.88109e-15
7.62596e-16
2.14978e-14
8.09208e-15
2.08316e-14
-2.70126e-15
3.521e-15
-1.69015e-14
1.49837e-15
-3.19021e-14
9.13627e-16
-2.06831e-14
4.54858e-16
-1.23892e-15
6.8077e-18
-2.59934e-17
1.25712e-18
-3.18763e-16
1.19208e-12
-5.50618e-14
-5.90177e-13
-1.27308e-12
-2.02862e-10
-9.81849e-11
-3.29323e-09
-8.57897e-09
-4.3086e-09
-1.57235e-08
-5.75368e-09
-3.07295e-09
-5.8135e-25
-8.69655e-23
-1.77464e-23
1.00954e-23
-1.52978e-22
6.15083e-23
1.4139e-21
2.07799e-20
1.18372e-19
3.0691e-19
1.60614e-18
2.15449e-18
1.42628e-17
1.91223e-17
4.17307e-17
3.8933e-17
1.31249e-15
3.98684e-17
1.6861e-14
5.67752e-15
1.89112e-14
-1.79951e-15
1.46576e-14
-1.5293e-14
7.71741e-15
-2.61222e-14
5.20856e-16
-5.99185e-15
-2.1327e-18
-1.81528e-17
-5.86769e-18
-2.2862e-17
-9.3825e-16
-4.7031e-17
-1.72565e-13
-2.05407e-14
-1.23129e-12
-2.84269e-13
-7.0206e-11
-2.96617e-11
-8.57714e-09
-1.89173e-09
-1.34e-08
-1.05441e-08
-4.43545e-09
-1.44156e-08
-1.62834e-24
-8.80387e-23
-4.03542e-26
5.02647e-24
-7.11394e-24
4.50135e-24
4.21747e-22
3.56589e-21
2.13728e-20
5.81729e-20
3.34301e-19
5.40207e-19
6.17651e-18
9.64826e-18
1.93491e-17
3.69365e-17
1.41595e-16
2.87482e-17
5.46647e-15
4.97949e-16
6.65062e-15
-2.07435e-16
6.35308e-15
-7.77196e-15
-7.79584e-18
-9.23459e-15
-5.27341e-18
-1.83801e-16
-6.05177e-18
-1.73993e-17
-9.73334e-18
-1.91012e-17
6.93441e-17
-4.42076e-17
-2.03034e-14
-1.45834e-16
-3.00536e-13
-5.26338e-15
-2.93095e-11
-6.95254e-13
-2.69257e-09
-3.59614e-11
-1.42504e-08
-8.81478e-10
-6.8331e-10
-1.7741e-08
-1.69827e-24
-7.92119e-23
-1.01711e-24
1.28662e-24
-4.56438e-25
2.08696e-25
1.51231e-23
4.95039e-22
1.66303e-21
9.40589e-21
4.14352e-20
1.36068e-19
1.5036e-18
4.37266e-18
6.92776e-18
2.68575e-17
8.17884e-18
2.68859e-17
1.13354e-17
8.12737e-18
8.30054e-17
1.09957e-17
-1.45285e-15
-8.65433e-16
-1.30828e-16
-5.69768e-18
-9.24895e-18
-1.2839e-17
-9.93047e-18
-1.29489e-17
-1.94479e-17
-1.0714e-17
-4.25918e-17
-3.2443e-17
-8.54852e-17
-8.96351e-17
-5.17164e-15
-1.91419e-16
-6.97563e-13
-3.17269e-15
-3.65824e-11
-8.46434e-14
-9.16528e-10
-1.70054e-12
-1.71319e-11
-2.29529e-09
-1.28098e-24
-6.41048e-23
-8.03799e-25
-9.61374e-25
-3.80673e-24
-1.31263e-23
-1.28726e-23
4.98727e-23
-1.77158e-22
1.26953e-21
-1.00008e-20
3.12808e-20
-2.61911e-19
1.19156e-18
-1.30073e-18
9.31899e-18
-1.81398e-18
1.81511e-17
-6.76731e-18
8.95561e-18
-2.76407e-16
4.10435e-18
-1.40594e-18
-2.02585e-19
-6.11646e-18
-9.63386e-19
-9.65367e-18
-2.57618e-18
-6.45669e-18
-3.65328e-18
-1.54669e-17
-1.0336e-18
-7.2391e-17
-4.87527e-18
-1.62738e-16
-4.70175e-17
-2.43863e-16
-1.19993e-16
-3.23209e-15
-2.01097e-16
-8.76364e-14
-5.35345e-16
-1.79178e-12
-4.40501e-15
-8.47921e-14
-2.36558e-11
-7.7563e-25
-4.64385e-23
-1.90435e-25
-2.15021e-24
-8.40018e-25
-2.54185e-23
-2.61394e-24
2.2108e-24
-9.0363e-23
1.3736e-22
-9.87881e-21
6.58933e-21
-3.9723e-19
2.50015e-19
-2.64488e-18
2.34605e-18
-4.62006e-18
6.01676e-18
-2.72601e-18
7.61776e-18
-1.39695e-18
1.89733e-18
-2.00061e-18
4.24856e-19
-2.77921e-18
-1.2211e-19
-3.62899e-18
-3.2808e-19
-8.62194e-19
-1.94241e-19
-1.34702e-18
-6.74764e-20
-2.04961e-17
-6.31432e-20
-1.64994e-16
-9.82589e-19
-4.1051e-16
-1.36695e-17
-6.22378e-16
-5.16267e-17
-1.16737e-15
-3.35143e-17
-3.23427e-14
4.52346e-16
3.64478e-15
-3.15955e-13
-3.87744e-25
-2.98389e-23
2.40585e-25
-2.17805e-24
-1.18175e-26
-2.00197e-23
-1.20032e-25
2.03607e-25
-2.20631e-23
1.12954e-23
-3.34567e-21
1.27285e-21
-1.29741e-19
4.55755e-20
-9.25478e-19
4.10926e-19
-2.23806e-18
1.23801e-18
-3.4798e-18
1.94883e-18
-2.63275e-18
3.59449e-18
-2.33038e-18
1.49412e-18
-1.3014e-18
3.1531e-19
-5.34453e-19
2.37288e-20
-1.36574e-19
-4.17448e-22
-1.09245e-19
-1.05683e-21
-2.50559e-19
-2.18687e-21
-7.28069e-18
-1.94811e-20
-9.95341e-17
1.0609e-19
-4.89427e-16
1.3269e-17
-2.06691e-15
1.87905e-16
-1.31213e-14
1.46282e-15
6.77165e-15
-4.78721e-14
-1.59535e-25
-1.68001e-23
3.99239e-25
-1.59926e-24
1.49534e-25
-1.24186e-23
-7.28173e-25
-1.90275e-24
-4.41291e-24
7.53925e-25
-7.79204e-22
2.0915e-22
-2.45656e-20
6.83208e-21
-1.82024e-19
6.008e-20
-6.31561e-19
2.29756e-19
-1.73715e-18
5.34384e-19
-1.70013e-18
8.95716e-19
-6.11474e-19
4.26758e-19
-1.18211e-19
6.66265e-20
-2.27899e-20
6.72649e-21
-9.97091e-21
5.00026e-22
-1.26825e-20
2.48503e-22
-4.75259e-20
1.09534e-21
-7.93627e-19
1.86826e-20
-1.40787e-17
3.47974e-19
-1.50713e-16
8.571e-18
-8.68707e-16
1.36168e-16
-4.34534e-15
9.2853e-16
3.45111e-15
-1.83345e-14
-5.31175e-26
-8.16247e-24
3.07302e-25
-9.08454e-25
1.72017e-25
-6.35328e-24
-6.89758e-26
-1.81409e-24
-7.43542e-25
5.89687e-26
-1.29812e-22
2.75368e-23
-3.72719e-21
9.18125e-22
-3.6401e-20
9.02731e-21
-1.54024e-19
4.11013e-20
-2.56798e-19
8.11034e-20
-2.80759e-19
7.55081e-20
-1.48244e-19
5.61215e-20
-3.10611e-20
2.28589e-20
-2.54815e-21
3.51773e-21
-5.61348e-22
1.53317e-22
-8.33039e-22
1.63674e-23
-8.12659e-21
3.77254e-22
-1.2787e-19
9.13875e-21
-2.963e-18
1.81921e-19
-9.04509e-17
5.58348e-18
-9.64574e-16
1.59287e-16
-3.20225e-15
1.08448e-15
2.44605e-15
-6.04987e-15
-1.39034e-26
-3.36055e-24
1.55434e-25
-3.99328e-25
8.75139e-26
-2.60021e-24
-7.15236e-27
-8.25842e-25
-9.22811e-26
5.35718e-27
-1.71146e-23
2.88518e-24
-5.44485e-22
1.16827e-22
-6.22256e-21
1.33555e-21
-2.59617e-20
6.1386e-21
-3.69343e-20
1.18123e-20
-4.05115e-20
1.20422e-20
-2.44701e-20
8.77175e-21
-6.06966e-21
3.83191e-21
-4.1898e-22
7.59516e-22
-9.44422e-24
3.1109e-23
-3.24208e-23
7.93229e-24
-1.50138e-21
7.34276e-23
-3.10225e-20
3.52373e-21
-5.53512e-19
7.58611e-20
-1.84554e-17
1.29322e-18
-3.86996e-16
3.15641e-17
-1.96296e-15
4.33805e-16
1.68367e-15
-3.77615e-15
-2.7771e-27
-1.14897e-24
5.44432e-26
-1.32138e-25
2.90936e-26
-8.1766e-25
-6.43244e-28
-2.59492e-25
-7.69536e-27
3.22726e-28
-1.90639e-24
2.27114e-25
-7.59739e-23
1.31497e-23
-8.56406e-22
1.76201e-22
-3.44898e-21
7.6269e-22
-4.87847e-21
1.46911e-21
-5.16896e-21
1.59815e-21
-3.14777e-21
1.12318e-21
-8.31375e-22
4.63957e-22
-3.95597e-23
7.53437e-23
3.41549e-24
1.6874e-23
-7.59742e-23
-2.77154e-24
-2.39211e-22
9.22512e-24
-1.07036e-20
1.09774e-21
-1.78415e-19
3.3429e-20
-2.18978e-18
4.21597e-19
-3.6718e-17
3.63581e-18
-3.80478e-16
4.1005e-17
4.04756e-16
-1.3511e-15
-4.17582e-28
-3.19445e-25
1.29794e-26
-3.12534e-26
6.61158e-27
-1.86775e-25
-3.40721e-29
-5.80359e-26
-3.75017e-28
2.12504e-28
-1.57331e-25
1.11077e-26
-9.01056e-24
1.06975e-24
-1.02047e-22
1.79552e-23
-3.56832e-22
7.54511e-23
-5.0193e-22
1.33329e-22
-5.23837e-22
1.49233e-22
-2.84356e-22
1.05457e-22
-4.1635e-23
2.90593e-23
1.90611e-23
1.91646e-23
1.95917e-23
-2.0864e-23
-9.61824e-24
-2.01971e-23
-2.84941e-23
1.26273e-24
-2.39527e-21
2.07204e-22
-6.52036e-20
1.01833e-20
-6.28522e-19
1.74174e-19
-4.11065e-18
1.27356e-18
-4.07467e-17
7.95175e-18
8.44906e-17
-3.66207e-16
-4.85935e-29
-7.08117e-26
1.99456e-27
-4.81835e-27
9.92005e-28
-2.88244e-26
7.4676e-29
-8.86572e-27
-1.08413e-27
-4.80079e-28
-8.32429e-27
2.67332e-28
-7.24943e-25
4.93254e-26
-8.524e-24
1.05849e-24
-2.62444e-23
4.60764e-24
-3.86303e-23
8.04927e-24
-4.02413e-23
9.35391e-24
-1.68666e-23
5.07955e-24
9.16586e-24
1.18141e-23
2.36641e-23
-1.3152e-23
2.16225e-23
-3.16152e-23
-1.06467e-24
-2.7497e-23
-2.68821e-24
1.32139e-24
-3.77968e-22
3.2298e-23
-1.48325e-20
2.25975e-21
-1.85612e-19
5.04983e-20
-1.09352e-18
4.9434e-19
-7.16422e-18
3.01767e-18
2.34137e-17
-7.03454e-17
-5.62943e-30
-1.23314e-26
1.77207e-28
-3.94187e-28
8.9216e-29
-2.68229e-27
1.32423e-29
-8.37952e-28
-2.36132e-29
-9.01574e-29
-2.22212e-28
2.57183e-30
-2.97861e-26
9.1232e-28
-3.93616e-25
2.74738e-26
-1.2693e-24
1.36598e-25
-1.77981e-24
2.40653e-25
-1.45283e-24
4.56274e-25
2.3702e-24
1.17565e-24
9.53325e-24
-4.37273e-24
1.57822e-23
-1.62791e-23
1.27387e-23
-2.54061e-23
2.5519e-24
-1.9708e-23
-1.67239e-23
-3.88299e-24
-5.58238e-23
5.76111e-24
-2.7075e-21
4.78993e-22
-4.34198e-20
1.25555e-20
-2.96229e-19
1.47646e-19
-1.73979e-18
9.8952e-19
6.54065e-18
-1.313e-17
-9.05067e-31
-1.68188e-27
5.9817e-30
-5.43231e-30
3.53038e-30
-9.89679e-29
6.25129e-31
-3.60871e-29
-2.67511e-31
-4.64132e-30
-1.68869e-30
1.5469e-30
-4.98984e-28
3.32363e-28
-9.89452e-27
2.33628e-28
-2.45791e-26
3.52718e-27
-2.65247e-26
8.59075e-26
3.98836e-25
3.09131e-26
1.89034e-24
-9.40115e-25
4.60929e-24
-4.09705e-24
6.08316e-24
-9.34754e-24
4.59636e-24
-1.17549e-23
1.43591e-24
-8.62263e-24
-2.46042e-24
-2.66851e-24
-8.03419e-24
1.05776e-24
-4.85338e-22
9.73976e-23
-9.68292e-21
3.04179e-21
-6.81632e-20
3.85859e-20
-2.82451e-19
2.23427e-19
1.02021e-18
-1.34172e-18
-1.86597e-31
-1.83389e-28
1.27218e-31
-5.51678e-32
9.26028e-32
-2.42275e-30
6.88275e-32
-1.07294e-30
5.94425e-31
-5.76425e-31
2.16182e-30
-3.87764e-30
-1.95608e-29
-1.14887e-29
-5.38778e-29
8.73851e-29
3.06451e-27
4.08793e-28
3.20064e-26
-1.03687e-26
1.82903e-25
-9.69711e-26
6.29745e-25
-5.04992e-25
1.28811e-24
-1.61286e-24
1.53596e-24
-3.11717e-24
1.10684e-24
-3.57372e-24
3.77368e-25
-2.52321e-24
-3.37824e-25
-8.59392e-25
-1.04744e-24
1.83399e-25
-7.79236e-23
1.75558e-23
-2.0515e-21
6.80422e-22
-1.58524e-20
9.85743e-21
-3.68279e-20
4.48278e-20
7.43609e-20
1.03087e-19
-3.51233e-32
-1.64475e-29
2.02202e-33
-1.01471e-33
2.7313e-33
-4.74813e-32
2.12667e-32
-3.7766e-32
2.93412e-31
-2.09281e-31
2.99776e-30
-2.23804e-30
2.43061e-29
-1.86065e-29
1.9412e-28
-1.26992e-28
1.5063e-27
-8.75297e-28
9.16092e-27
-5.99978e-27
4.07044e-26
-3.28288e-26
1.22082e-25
-1.3373e-25
2.28874e-25
-3.74624e-25
2.57159e-25
-6.68073e-25
1.77897e-25
-7.2809e-25
5.79421e-26
-4.9807e-25
-4.60066e-26
-1.63898e-25
-1.19305e-25
3.45628e-26
-1.127e-23
3.24214e-24
-4.96694e-22
1.69915e-22
-4.99916e-21
2.59817e-21
-3.12182e-21
8.33869e-21
3.06697e-21
5.85546e-20
-5.25164e-33
-1.24551e-30
2.94677e-35
-1.04524e-34
2.45005e-34
-9.44721e-34
4.76978e-33
-4.31675e-33
7.16569e-32
-5.80692e-32
8.02638e-31
-6.68782e-31
7.02402e-30
-6.06079e-30
5.10822e-29
-4.45376e-29
3.16352e-28
-2.79854e-28
1.59285e-27
-1.5298e-27
6.08631e-27
-6.94968e-27
1.63551e-26
-2.44447e-26
2.85162e-26
-6.1632e-26
3.00271e-26
-1.02801e-25
1.96719e-26
-1.05938e-25
5.21041e-27
-6.9307e-26
-6.58651e-27
-1.87721e-26
-1.52102e-26
6.51181e-27
-2.42504e-24
6.92695e-25
-1.006e-22
4.65922e-23
-6.52732e-22
5.58281e-22
-1.89302e-22
1.55478e-21
3.50537e-22
1.12527e-20
-6.07223e-34
-8.13054e-32
7.68536e-37
-1.25999e-35
2.79791e-35
-4.05124e-35
6.32393e-34
-6.89185e-34
9.76429e-33
-1.01891e-32
1.12096e-31
-1.18351e-31
9.8676e-31
-1.08713e-30
6.87391e-30
-8.00025e-30
3.85546e-29
-4.79916e-29
1.72998e-28
-2.37599e-28
5.99024e-28
-9.63848e-28
1.49851e-27
-3.08232e-27
2.46459e-27
-7.26271e-27
2.41347e-27
-1.15074e-26
1.47882e-27
-1.11134e-26
2.60067e-28
-6.89895e-27
-7.77613e-28
-1.26305e-27
-1.63402e-27
9.57949e-28
-3.3682e-25
9.7357e-26
-1.21447e-23
7.58367e-24
-5.52313e-23
9.7196e-23
-2.32304e-24
2.98527e-22
5.98025e-23
6.18869e-24
-5.61444e-35
-4.64422e-33
1.94204e-38
-1.1807e-36
1.78109e-36
-3.17567e-36
4.36828e-35
-7.19497e-35
6.70643e-34
-1.02723e-33
7.62085e-33
-1.14866e-32
6.65328e-32
-1.02585e-31
4.57094e-31
-7.42008e-31
2.50749e-30
-4.38616e-30
1.09673e-29
-2.12907e-29
3.70215e-29
-8.43504e-29
9.00858e-29
-2.64097e-28
1.42696e-28
-6.11378e-28
1.30719e-28
-9.44738e-28
7.45153e-29
-8.67364e-28
6.66884e-30
-5.12736e-28
-6.0871e-29
-4.96326e-29
-9.84527e-29
9.79296e-29
-1.81819e-26
7.75415e-27
-4.34111e-25
7.94296e-25
1.84431e-24
1.43628e-23
1.2974e-23
5.6226e-23
2.728e-23
6.46364e-24
-4.1347e-36
-2.34524e-34
-7.45511e-40
-8.61728e-38
4.58389e-38
-1.67301e-37
1.49598e-36
-4.28545e-36
2.42028e-35
-6.04218e-35
2.85023e-34
-6.72274e-34
2.53416e-33
-5.99298e-33
1.76526e-32
-4.36057e-32
9.75875e-32
-2.61018e-31
4.27498e-31
-1.28723e-30
1.43458e-30
-5.18276e-30
3.41698e-30
-1.64518e-29
5.13933e-30
-3.82843e-29
4.33277e-30
-5.83014e-29
2.17855e-30
-5.20014e-29
-7.49642e-34
-2.94556e-29
-7.34619e-31
1.00671e-31
-9.32075e-31
6.19715e-30
1.45904e-28
4.24356e-28
4.7003e-26
6.44869e-26
1.51834e-24
1.87443e-24
5.62668e-24
9.5667e-24
1.18956e-23
5.68428e-24
-2.52474e-37
-1.05374e-35
-1.14159e-40
-5.25986e-39
3.05678e-41
-6.11209e-39
2.43553e-38
-1.75086e-37
4.75784e-37
-2.46676e-36
6.31861e-36
-2.78117e-35
5.84932e-35
-2.51253e-34
4.14198e-34
-1.86523e-33
2.29437e-33
-1.14688e-32
9.84055e-33
-5.83687e-32
3.13341e-32
-2.42787e-31
6.67198e-32
-7.92083e-31
8.07204e-32
-1.86831e-30
4.48339e-32
-2.8148e-30
3.79311e-33
-2.47744e-30
-2.40776e-32
-1.34869e-30
5.00298e-32
1.58362e-31
4.22914e-31
3.44393e-31
4.38957e-29
2.02246e-29
9.57869e-27
3.97933e-27
3.85835e-25
1.96563e-25
1.54229e-24
1.31566e-24
3.45854e-25
8.9606e-25
-1.31796e-38
-4.22609e-37
-8.90137e-42
-2.78135e-40
-1.60456e-42
-1.735e-40
-1.21941e-41
-5.50815e-39
3.476e-39
-7.8015e-38
7.72638e-38
-8.98115e-37
7.76286e-37
-8.27658e-36
5.35458e-36
-6.31039e-35
2.63854e-35
-4.0111e-34
7.97749e-35
-2.11825e-33
6.75783e-35
-9.15067e-33
-2.33793e-34
-3.07995e-32
-1.53615e-33
-7.38043e-32
-4.28017e-33
-1.1009e-31
-5.90995e-33
-9.65072e-32
-4.52592e-33
-5.03586e-32
6.01465e-33
4.3858e-34
5.42365e-32
1.96863e-32
4.28168e-30
1.09952e-30
1.00667e-27
2.0768e-28
5.99718e-26
1.5126e-26
2.77093e-25
1.21185e-25
1.4419e-26
7.24873e-26
-5.87243e-40
-1.51435e-38
-4.84358e-43
-1.28327e-41
-5.70295e-44
-4.11686e-42
-1.02821e-42
-1.43442e-40
-3.04153e-42
-2.0447e-39
3.26161e-40
-2.40685e-38
4.90811e-39
-2.26997e-37
2.23943e-38
-1.78153e-36
-2.20157e-38
-1.17207e-35
-5.60947e-37
-6.4279e-35
-5.4964e-36
-2.8833e-34
-3.33214e-35
-9.99661e-34
-1.26411e-34
-2.42833e-33
-2.71179e-34
-3.58697e-33
-3.3162e-34
-3.14177e-33
-2.21416e-34
-1.55957e-33
3.2031e-34
1.71682e-35
4.75182e-33
1.16388e-33
3.51141e-31
6.61957e-32
7.1899e-29
8.53047e-30
5.89978e-27
7.80782e-28
3.13765e-26
7.36248e-27
7.63021e-28
5.48901e-27
-2.25723e-41
-4.845e-40
-2.06041e-44
-5.22201e-43
-1.22885e-45
-8.57776e-44
-2.48702e-44
-3.23152e-42
-6.71892e-44
-4.64491e-41
7.96716e-42
-5.58632e-40
1.37209e-40
-5.39703e-39
5.73376e-40
-4.35689e-38
-7.59407e-40
-2.96205e-37
-1.73954e-38
-1.68293e-36
-1.70796e-37
-7.81147e-36
-1.05728e-36
-2.77734e-35
-4.05302e-36
-6.81635e-35
-8.65865e-36
-9.95899e-35
-1.05672e-35
-8.71198e-35
-6.65166e-36
-4.04774e-35
1.22481e-35
9.33701e-37
3.11191e-34
5.69439e-35
2.27295e-32
3.17685e-33
3.14094e-30
2.33814e-31
3.34135e-28
2.46704e-29
2.22016e-27
3.10484e-28
3.26849e-29
3.28582e-28
-7.42716e-43
-1.38231e-41
-7.23715e-46
-1.87064e-44
-2.03635e-47
-1.62589e-45
-3.31003e-46
-6.50011e-44
3.08824e-44
-9.44315e-43
8.58215e-43
-1.15883e-41
9.63668e-42
-1.14509e-40
6.77513e-41
-9.49157e-40
2.80152e-40
-6.64905e-39
1.16036e-40
-3.89632e-38
-1.92755e-39
-1.8611e-37
-1.73044e-38
-6.75327e-37
-7.71524e-38
-1.66801e-36
-1.75981e-37
-2.40644e-36
-2.26048e-37
-2.09558e-36
-1.34953e-37
-8.87067e-37
3.53173e-37
3.40453e-38
1.36366e-35
2.01368e-36
9.85546e-34
1.0456e-34
9.22327e-32
5.72992e-33
1.15768e-29
6.14233e-31
1.04412e-28
1.09102e-29
2.09742e-30
1.63123e-29
-2.10623e-44
-3.51243e-43
-2.10489e-47
-5.93331e-46
-2.71557e-49
-2.87618e-47
-1.67125e-48
-1.19459e-45
1.79347e-45
-1.75962e-44
3.28509e-44
-2.19748e-43
3.6405e-43
-2.21646e-42
2.88982e-42
-1.88162e-41
1.65585e-41
-1.35337e-40
6.42788e-41
-8.14502e-40
1.26799e-40
-3.98253e-39
-4.82101e-41
-1.46632e-38
-7.39744e-40
-3.63017e-38
-2.24965e-39
-5.16078e-38