/*--------------------------------*- C++ -*----------------------------------*\
| =========                 |                                                 |
| \\      /  F ield         | OpenFOAM: The Open Source CFD Toolbox           |
|  \\    /   O peration     | Version:  2206                                  |
|   \\  /    A nd           | Website:  www.openfoam.com                      |
|    \\/     M anipulation  |                                                 |
\*---------------------------------------------------------------------------*/
FoamFile
{
    version     2.0;
    format      ascii;
    arch        "LSB;label=32;scalar=64";
    class       volScalarField;
    location    "0.575";
    object      p;
}
// * * * * * * * * * * * * * * * * * * * * * * * * * * * * * * * * * * * * * //

dimensions      [1 -1 -2 0 0 0 0];

internalField   nonuniform List<scalar> 
2268
(
553.765
551.08
551.57
556.085
565.95
580.72
595.821
610.125
624.387
640.379
659.034
680.239
703.437
728.111
753.649
779.29
803.876
824.865
841.752
848.16
843.107
860.846
899.205
494.794
491.406
491.488
495.839
505.48
520.688
536.023
550.504
564.832
580.87
599.473
620.634
643.888
668.618
694.174
719.891
744.75
766.638
785.408
794.825
781.838
789.095
834.499
435.335
431.227
430.794
434.346
443.41
459.532
475.292
490.157
504.621
520.771
539.579
560.832
584.191
608.976
634.458
659.902
684.458
706.919
725.694
738.139
725.538
724.042
772.228
376.018
370.892
369.405
371.75
380.336
396.611
413.621
429.178
443.863
460.15
479.089
500.561
524.148
549.16
574.779
600.227
624.668
647.236
666.06
679.298
675.225
674.506
718.43
317.522
310.746
307.578
308.267
316.185
332.678
351.253
367.677
382.64
399.094
418.14
439.877
463.797
489.194
515.14
540.858
565.58
588.491
608.005
623.042
628.834
634.857
671.969
260.024
251.804
246.054
245.003
252.446
269.276
288.821
305.751
320.93
337.599
356.843
378.801
403.146
429.094
455.533
481.696
506.951
530.54
551.284
568.783
581.799
594.042
626.761
203.733
194.088
185.299
182.937
190.656
207.356
226.526
243.204
258.573
275.552
295.014
317.318
342.285
368.984
396.031
422.745
448.672
473.1
495.166
514.785
532.134
548.789
578.466
148.344
136.791
121.533
117.434
127.34
144.317
162.915
179.105
195.078
212.852
232.522
255.158
280.902
308.644
336.512
363.965
390.784
416.188
439.495
460.853
480.867
501.033
528.825
717.605
714.124
713.828
715.078
514.393
342.761
286.779
274.286
271.793
271.516
275.705
290.247
325.781
366.019
397.121
568.943
1053.62
1475.27
1427.06
717.353
712.208
707.778
549.225
322.636
255.082
247.759
246.715
244.853
242.788
243.06
249.3
268.33
297.46
308.648
379.973
797.943
1323.23
1370.52
723.183
709.95
601.083
348.635
262.492
247.604
246.027
244.863
242.578
239.761
238.241
241.714
257.01
282.638
292.123
300.101
424.91
996.346
1290.72
746.425
723.544
476.092
297.026
254.66
247.22
246.249
244.818
242.359
239.125
237.499
240.733
255.854
283.225
295.081
281.831
303.391
599.221
1174.73
753.576
736.469
448.391
297.608
254.911
247.323
246.153
244.744
242.05
238.178
236.355
238.908
251.907
279.187
290.766
278.81
268.189
373.585
1028.09
752.923
725.271
520.549
314.554
258.727
247.953
245.993
244.411
241.59
237.442
235.385
237.515
246.209
264.035
268.864
267.268
260.961
362.186
871.852
749.644
728.108
587.288
330.467
256.673
246.265
244.868
243.664
241.008
236.997
234.871
237.032
242.829
244.022
234.25
236.663
262.23
352.147
715.62
720.763
723.276
562.488
319.341
235.963
231.74
235.838
240.435
239.629
237.159
236.564
239.813
239.697
229.868
224.149
226.969
248.41
291.039
571.178
70.2775
56.7908
40.3003
35.2228
46.1598
60.6352
73.0447
83.3091
96.345
113.759
133.502
157.08
185.002
214.95
243.943
272.403
300.58
327.573
352.779
376.745
399.655
421.765
444.563
7.18991
2.09277
0.615251
0.633243
3.57606
8.12955
10.5027
12.2839
15.8236
21.9311
30.1958
42.2443
61.9805
88.2309
117.431
148.506
179.719
208.853
235.857
262.66
289.818
317.154
347.274
0.0619006
0.00547821
0.0264649
0.0181811
-0.0494196
-0.0428774
-0.0511845
-0.0548649
-0.0651881
-0.0760889
0.0259242
0.829721
5.20184
13.2994
26.4249
45.9806
67.5327
92.413
120.503
148.946
175.41
202.753
231.206
-0.0614632
-0.0699705
-0.0865498
-0.191211
-0.253145
-0.225504
-0.233276
-0.242549
-0.239144
-0.224178
-0.221674
-0.253779
-0.305695
-0.206356
0.74736
3.38005
7.72502
17.9796
33.4006
51.8067
72.8993
94.8991
121.672
-0.213531
-0.216922
-0.232436
-0.303646
-0.30823
-0.330603
-0.351173
-0.362775
-0.376371
-0.391313
-0.402965
-0.413994
-0.414061
-0.37005
-0.311877
-0.261009
-0.244581
-0.209587
0.458998
2.82368
9.54803
20.2991
31.8075
-0.389625
-0.399948
-0.402465
-0.446094
-0.464472
-0.47411
-0.484461
-0.493747
-0.502318
-0.509019
-0.508837
-0.517397
-0.524719
-0.505573
-0.475645
-0.435902
-0.420886
-0.408052
-0.379271
-0.401377
-0.455285
-0.433372
-0.0951162
-0.547637
-0.551584
-0.563241
-0.587068
-0.599792
-0.611978
-0.622446
-0.631563
-0.638922
-0.643566
-0.643884
-0.646584
-0.644479
-0.632038
-0.609999
-0.584082
-0.568681
-0.555656
-0.551109
-0.55915
-0.556397
-0.515019
-0.491634
-0.707687
-0.711944
-0.718625
-0.732236
-0.742121
-0.751462
-0.759631
-0.766323
-0.771097
-0.774022
-0.773924
-0.774166
-0.772094
-0.76565
-0.75048
-0.730396
-0.716061
-0.704166
-0.690934
-0.673166
-0.668962
-0.68292
-0.709809
-0.862814
-0.865178
-0.869892
-0.878457
-0.885722
-0.89271
-0.899031
-0.904646
-0.909232
-0.912245
-0.914048
-0.9102
-0.904435
-0.897062
-0.886295
-0.873187
-0.862959
-0.85523
-0.850941
-0.851581
-0.869395
-0.914596
-0.937669
-1.01437
-1.01586
-1.019
-1.02454
-1.02971
-1.03482
-1.03941
-1.04325
-1.04591
-1.04685
-1.04529
-1.04417
-1.03999
-1.03378
-1.02552
-1.01607
-1.00798
-1.00185
-1.00065
-1.01261
-1.04859
-1.12358
-1.18058
-1.16359
-1.16457
-1.16665
-1.17035
-1.1739
-1.17745
-1.18056
-1.18298
-1.18446
-1.18474
-1.18361
-1.1811
-1.17696
-1.17139
-1.16475
-1.15751
-1.15109
-1.14613
-1.14611
-1.1582
-1.19833
-1.27479
-1.32939
-1.31121
-1.31197
-1.31327
-1.31581
-1.31821
-1.32057
-1.32256
-1.32395
-1.32453
-1.3241
-1.32249
-1.31984
-1.31594
-1.31087
-1.30508
-1.29892
-1.29306
-1.28861
-1.2882
-1.29751
-1.32901
-1.38328
-1.40724
-1.45788
-1.45848
-1.45918
-1.46104
-1.46258
-1.46408
-1.46524
-1.46589
-1.46584
-1.46494
-1.46311
-1.46039
-1.45677
-1.4518
-1.44665
-1.44103
-1.43548
-1.43094
-1.42948
-1.43587
-1.45857
-1.49421
-1.50397
-1.60393
-1.60428
-1.60487
-1.60608
-1.60702
-1.6079
-1.60849
-1.60863
-1.60817
-1.60702
-1.60511
-1.60236
-1.59881
-1.59443
-1.58954
-1.58425
-1.57885
-1.57392
-1.57072
-1.57268
-1.58475
-1.60487
-1.61064
-1.74964
-1.74984
-1.75032
-1.751
-1.75156
-1.75203
-1.75221
-1.75202
-1.75132
-1.75003
-1.74811
-1.74547
-1.74215
-1.73817
-1.73364
-1.7287
-1.72353
-1.71842
-1.71398
-1.71192
-1.71437
-1.71906
-1.71781
-1.89514
-1.89525
-1.89558
-1.89596
-1.89625
-1.89642
-1.89634
-1.89594
-1.89512
-1.89381
-1.89195
-1.88952
-1.8865
-1.88292
-1.87884
-1.87435
-1.86956
-1.86467
-1.86002
-1.85628
-1.85362
-1.85124
-1.84542
-2.04051
-2.04057
-2.04078
-2.04096
-2.04107
-2.04105
-2.04083
-2.04032
-2.03947
-2.03821
-2.03651
-2.03433
-2.03167
-2.02855
-2.02499
-2.02106
-2.01683
-2.01243
-2.00807
-2.00411
-2.00063
-1.99619
-1.9904
-2.18581
-2.18584
-2.18596
-2.18603
-2.18603
-2.1859
-2.18561
-2.18508
-2.18427
-2.18314
-2.18165
-2.17979
-2.17754
-2.17492
-2.17195
-2.16868
-2.16518
-2.16152
-2.15785
-2.15421
-2.15064
-2.14678
-2.14251
-2.33108
-2.3311
-2.33115
-2.33116
-2.3311
-2.33094
-2.33064
-2.33015
-2.32945
-2.32849
-2.32727
-2.32576
-2.32396
-2.32189
-2.31957
-2.31704
-2.31437
-2.3116
-2.30884
-2.30616
-2.3036
-2.30111
-2.2987
-2.47635
-2.47635
-2.47637
-2.47636
-2.47628
-2.47613
-2.47587
-2.47547
-2.47491
-2.47417
-2.47324
-2.47212
-2.4708
-2.46931
-2.46767
-2.46593
-2.46414
-2.46238
-2.46072
-2.45927
-2.45811
-2.45735
-2.45709
-2.6216
-2.6216
-2.62161
-2.6216
-2.62154
-2.62143
-2.62125
-2.62097
-2.62059
-2.62009
-2.61948
-2.61875
-2.61793
-2.61703
-2.61609
-2.61515
-2.61429
-2.61358
-2.61312
-2.61303
-2.61343
-2.61448
-2.61636
-2.76685
-2.76686
-2.76687
-2.76688
-2.76686
-2.76681
-2.76673
-2.7666
-2.76641
-2.76617
-2.76589
-2.76557
-2.76523
-2.76492
-2.76467
-2.76453
-2.76459
-2.76493
-2.76568
-2.76696
-2.76893
-2.77178
-2.7757
-2.91208
-2.9121
-2.91212
-2.91217
-2.9122
-2.91224
-2.91227
-2.91229
-2.91231
-2.91233
-2.91237
-2.91245
-2.91259
-2.91285
-2.91326
-2.9139
-2.91484
-2.9162
-2.9181
-2.9207
-2.92416
-2.92869
-2.93449
-3.0573
-3.05732
-3.05737
-3.05745
-3.05755
-3.05767
-3.05782
-3.05801
-3.05823
-3.05851
-3.05886
-3.05931
-3.0599
-3.06069
-3.06173
-3.06309
-3.06486
-3.06716
-3.07014
-3.07395
-3.07878
-3.08484
-3.09235
-3.20247
-3.20251
-3.20258
-3.20271
-3.20287
-3.20308
-3.20336
-3.2037
-3.20412
-3.20464
-3.20528
-3.20608
-3.20708
-3.20835
-3.20994
-3.21196
-3.21448
-3.21764
-3.22158
-3.22648
-3.23253
-3.23996
-3.24898
-3.34761
-3.34765
-3.34774
-3.34792
-3.34814
-3.34845
-3.34883
-3.34932
-3.34992
-3.35066
-3.35156
-3.35267
-3.35404
-3.35573
-3.35782
-3.3604
-3.36357
-3.36747
-3.37225
-3.37808
-3.38519
-3.3938
-3.40414
-3.49268
-3.49274
-3.49285
-3.49307
-3.49335
-3.49373
-3.49422
-3.49484
-3.4956
-3.49653
-3.49766
-3.49904
-3.50072
-3.50276
-3.50526
-3.50831
-3.51202
-3.51652
-3.52198
-3.52859
-3.53656
-3.54615
-3.55761
-3.63769
-3.63776
-3.63788
-3.63813
-3.63846
-3.63892
-3.6395
-3.64023
-3.64112
-3.64221
-3.64353
-3.64513
-3.64706
-3.64939
-3.65221
-3.65562
-3.65974
-3.6647
-3.67067
-3.67785
-3.68647
-3.69679
-3.70912
-3.78261
-3.7827
-3.78281
-3.78311
-3.78348
-3.78399
-3.78464
-3.78546
-3.78646
-3.78767
-3.78914
-3.7909
-3.79302
-3.79556
-3.79861
-3.80228
-3.80668
-3.81195
-3.81824
-3.82578
-3.83478
-3.84556
-3.85836
-3.92742
-3.92755
-3.92762
-3.92799
-3.92837
-3.92893
-3.92963
-3.93051
-3.93158
-3.93288
-3.93445
-3.93632
-3.93857
-3.94125
-3.94445
-3.94826
-3.95281
-3.95822
-3.96465
-3.9723
-3.98139
-3.99227
-4.00523
-4.07211
-4.07225
-4.07234
-4.07276
-4.07312
-4.07373
-4.07446
-4.07537
-4.07649
-4.07784
-4.07946
-4.08139
-4.0837
-4.08645
-4.0897
-4.09355
-4.09812
-4.10353
-4.10988
-4.11743
-4.12638
-4.13699
-4.14961
-4.21669
-4.21684
-4.21692
-4.2174
-4.2177
-4.21839
-4.2191
-4.22003
-4.22116
-4.22253
-4.22416
-4.2261
-4.22842
-4.23116
-4.23439
-4.23813
-4.24261
-4.24787
-4.25403
-4.26127
-4.26979
-4.27981
-4.29164
-4.36114
-4.36131
-4.36141
-4.36182
-4.36216
-4.36296
-4.36354
-4.36447
-4.3656
-4.36695
-4.36856
-4.37045
-4.37271
-4.37537
-4.37848
-4.38212
-4.38638
-4.39135
-4.39715
-4.4039
-4.41177
-4.42093
-4.43161
-4.50547
-4.50564
-4.50576
-4.50616
-4.50655
-4.50735
-4.50772
-4.50871
-4.5098
-4.5111
-4.51265
-4.51447
-4.51662
-4.51913
-4.52207
-4.52548
-4.52945
-4.53404
-4.53935
-4.54547
-4.55252
-4.56063
-4.56994
-4.64969
-4.64984
-4.64998
-4.65037
-4.65073
-4.65153
-4.65184
-4.65278
-4.65381
-4.65503
-4.65647
-4.65817
-4.66016
-4.66248
-4.66518
-4.6683
-4.6719
-4.67603
-4.68076
-4.68616
-4.6923
-4.69926
-4.7071
-4.7938
-4.79393
-4.79407
-4.79443
-4.79472
-4.79551
-4.7959
-4.7967
-4.79764
-4.79876
-4.80001
-4.80156
-4.80336
-4.80545
-4.80786
-4.81063
-4.81381
-4.81743
-4.82153
-4.82616
-4.83136
-4.83716
-4.84357
-4.93781
-4.93791
-4.93807
-4.9384
-4.93865
-4.93933
-4.93976
-4.94044
-4.94126
-4.94223
-4.94336
-4.9447
-4.94626
-4.94807
-4.95016
-4.95255
-4.95526
-4.95834
-4.9618
-4.96565
-4.96993
-4.97463
-4.97973
-5.08175
-5.08183
-5.08199
-5.08231
-5.08247
-5.08305
-5.08346
-5.08404
-5.08473
-5.08555
-5.0865
-5.08762
-5.08892
-5.09043
-5.09216
-5.09414
-5.09638
-5.09889
-5.1017
-5.10481
-5.10821
-5.11191
-5.11585
-5.22565
-5.22571
-5.22585
-5.22612
-5.22625
-5.22672
-5.22706
-5.22753
-5.22808
-5.22872
-5.22948
-5.23036
-5.23139
-5.23258
-5.23393
-5.23548
-5.23723
-5.23919
-5.24135
-5.24373
-5.24632
-5.2491
-5.25204
-5.36952
-5.36954
-5.36966
-5.36985
-5.36998
-5.37033
-5.37055
-5.37091
-5.37131
-5.37178
-5.37232
-5.37296
-5.37369
-5.37455
-5.37552
-5.37663
-5.37788
-5.37928
-5.38082
-5.3825
-5.38432
-5.38625
-5.38828
-5.51334
-5.51335
-5.51343
-5.51354
-5.51364
-5.51385
-5.51397
-5.5142
-5.51444
-5.51472
-5.51506
-5.51544
-5.51588
-5.51639
-5.51698
-5.51765
-5.5184
-5.51924
-5.52016
-5.52116
-5.52223
-5.52337
-5.52456
-5.65715
-5.65715
-5.65718
-5.65721
-5.65725
-5.65731
-5.65736
-5.65744
-5.65752
-5.65762
-5.65773
-5.65786
-5.658
-5.65817
-5.65837
-5.65859
-5.65884
-5.65912
-5.65942
-5.65975
-5.66011
-5.66048
-5.66086
473.351
537.606
581.776
607.188
385.805
428.312
459.544
466.362
268.121
308.48
338.697
329.1
155.905
196.492
229.362
208.058
52.2479
87.7817
120.198
124.418
1.87205
9.23584
22.9042
100.699
-0.561866
-0.530758
0.022457
49.8027
-0.68992
-0.559926
-0.203884
3.35818
-0.85948
-0.664206
-0.565147
-0.340493
-1.08686
-0.846614
-0.812865
-1.06782
-1.24727
-1.04583
-0.971211
-0.976757
-1.35102
-1.21951
-1.13525
-1.0309
-1.46385
-1.37498
-1.3066
-1.21883
-1.58626
-1.51926
-1.45965
-1.39367
-1.70151
-1.6604
-1.61539
-1.56622
-1.83214
-1.80695
-1.77838
-1.74652
-1.98013
-1.96363
-1.94689
-1.93183
-2.13612
-2.12713
-2.1199
-2.11861
-2.29575
-2.29322
-2.29439
-2.30382
-2.45744
-2.4602
-2.46804
-2.4851
-2.61981
-2.62703
-2.63981
-2.66153
-2.78196
-2.7929
-2.80932
-2.83349
-2.94329
-2.9574
-2.97656
-3.00173
-3.10342
-3.12037
-3.14194
-3.16792
-3.26211
-3.28175
-3.30593
-3.33347
-3.41912
-3.44137
-3.4688
-3.49951
-3.57419
-3.59891
-3.63031
-3.66632
-3.72701
-3.75415
-3.78908
-3.83213
-3.87711
-3.90599
-3.94428
-3.99561
-4.02418
-4.05357
-4.09351
-4.14972
-4.16801
-4.19639
-4.23508
-4.29023
-4.30871
-4.33458
-4.3691
-4.41726
-4.44676
-4.46903
-4.4974
-4.53459
-4.58285
-4.60105
-4.62275
-4.64863
-4.71773
-4.73206
-4.74806
-4.76609
-4.85207
-4.86311
-4.87481
-4.88729
-4.98637
-4.99472
-5.00323
-5.01185
-5.12092
-5.12713
-5.13325
-5.13921
-5.25576
-5.26026
-5.26458
-5.26864
-5.39084
-5.3939
-5.39677
-5.39938
-5.52605
-5.52784
-5.5295
-5.53092
-5.66135
-5.66193
-5.66247
-5.66291
599.842
535.645
396.619
258.471
182.136
138.604
157.593
203.972
232.948
238.657
244.616
252.521
237.409
226.073
222.752
222.922
226.381
223.371
408.5
399.446
283.854
162.024
114.104
94.2102
86.5956
90.1807
108.269
179.241
238.637
276.024
277.5
229.651
225.543
225.196
226.028
228.791
216.337
322.461
221.396
121.646
93.5554
83.0786
79.3338
76.8422
75.0989
76.549
134.098
228.902
300.566
233.74
216.642
218.436
220.065
223.315
233.651
228.594
308.024
115.886
94.6408
87.9087
82.517
77.657
73.3448
71.7663
69.4457
86.1061
180.768
251.53
202.016
205.824
209.341
206.503
207.084
220.048
274.404
367.402
94.6354
92.3284
89.5078
85.3237
80.8569
74.9065
71.3889
67.8228
86.1082
140.646
173.217
194.891
205.388
208.651
207.014
205.36
249.157
363.513
478.029
97.1348
91.9566
88.3486
84.1845
79.4416
75.177
73.3792
74.2088
91.3729
136.081
158.809
182.11
207.106
211.973
211.619
211.92
255.887
437.397
589.814
92.8685
91.9156
89.6846
86.5662
80.819
75.349
73.2679
77.9727
92.1835
113.14
134.294
169.396
199.898
213.277
214.666
217.152
259.275
476.83
650.274
90.5867
92.0891
91.3183
90.2562
86.6649
81.9131
79.7152
83.9868
87.7213
78.3226
94.3518
154.734
176.482
186.359
193.792
192.274
247.756
437.415
600.66
34.7779
89.9051
91.775
91.4159
90.7864
86.3502
79.1855
83.9806
105.254
140.735
199.89
172.993
108.807
81.1262
76.7506
66.1623
81.6669
219.852
359.955
-1.22507
39.943
86.0143
90.0012
89.4022
81.8371
55.2921
79.6381
281.201
406.265
352.297
187.308
38.8837
8.15764
16.0214
22.2335
32.628
52.5964
185.462
-0.405336
3.58236
38.0744
79.8632
74.9323
68.907
147.202
398.054
539.044
469.707
325.731
166.082
39.2664
15.0052
14.7404
18.0398
26.691
42.3253
105.055
-0.861371
-0.684843
2.38234
10.206
11.134
45.6433
150.405
270.677
269.473
225.007
175.823
98.9404
25.624
12.7533
22.5452
28.9178
35.014
56.2841
92.5398
-1.16557
-1.15452
-1.4743
-1.35068
-1.87335
4.44103
21.5409
27.6938
20.6751
31.9943
42.8
15.7195
-19.313
-26.6663
-14.2093
-1.3439
28.6205
73.6947
101.295
-1.34876
-1.31403
-1.24517
-1.31076
-1.79216
-1.84352
-0.951364
-0.781346
0.507062
1.63206
-3.24232
-22.9086
-33.6399
-33.6548
-18.2731
14.2906
60.592
106.771
124.668
-1.5254
-1.48784
-1.44233
-1.46906
-1.61609
-1.9665
-2.65667
-3.17281
-3.14582
-3.04421
-2.23785
7.65351
9.15739
-5.217
-17.2735
30.8977
102.286
144.351
141.627
-1.723
-1.70667
-1.70795
-1.7888
-1.99595
-2.38907
-3.05436
-3.66896
-3.87946
-3.87421
-3.91267
-4.68528
-6.96618
-12.2099
-5.18013
62.6528
141.267
186.732
143.853
-1.92751
-1.93309
-1.96073
-2.04591
-2.23939
-2.58739
-3.11675
-3.72849
-4.06032
-4.07581
-4.03696
-4.20537
-4.73683
-4.91745
-2.31049
9.8042
60.9398
145.898
123.366
-2.13043
-2.15165
-2.19476
-2.27968
-2.43829
-2.71377
-3.14147
-3.66641
-4.05504
-4.17896
-4.22826
-4.37747
-4.58686
-4.53346
-4.63766
-2.90388
9.36499
43.457
70.3822
-2.32677
-2.35783
-2.40923
-2.49276
-2.62803
-2.84989
-3.17936
-3.60494
-4.02295
-4.33053
-4.49357
-4.69631
-4.98034
-5.25805
-5.43167
-4.80064
-1.78334
5.35643
38.4217
-2.51429
-2.54967
-2.60372
-2.67652
-2.79437
-2.96896
-3.21955
-3.55643
-3.9506
-4.35667
-4.68629
-4.95781
-5.26019
-5.55036
-5.64421
-5.25497
-4.22096
-2.07653
30.5412
-2.6926
-2.72714
-2.7761
-2.84394
-2.94035
-3.07555
-3.26433
-3.52056
-3.84033
-4.21215
-4.58283
-4.89314
-5.18877
-5.4847
-5.58396
-5.27606
-4.58185
-3.21057
15.1996
-2.86333
-2.89474
-2.93688
-2.99385
-3.07154
-3.1774
-3.32065
-3.51022
-3.74454
-4.0167
-4.3075
-4.57215
-4.75101
-4.85158
-4.83851
-4.5905
-4.07584
-3.69663
-0.227463
-3.02926
-3.05573
-3.08912
-3.13312
-3.19315
-3.2759
-3.3874
-3.53034
-3.69796
-3.87521
-4.04041
-4.16041
-4.18468
-4.08044
-3.84644
-3.59038
-3.35552
-3.19055
-2.18596
-3.19266
-3.21365
-3.23736
-3.26748
-3.31068
-3.37586
-3.46726
-3.5819
-3.70485
-3.81358
-3.88129
-3.87451
-3.75498
-3.51763
-3.2108
-2.99066
-2.76178
-2.56983
-1.11246
-3.35652
-3.37293
-3.38746
-3.4037
-3.42853
-3.47738
-3.56052
-3.66646
-3.7652
-3.82916
-3.83717
-3.76475
-3.57941
-3.2801
-2.9315
-2.71748
-2.49999
-1.96434
0.214315
-3.52423
-3.53923
-3.54713
-3.54909
-3.56424
-3.60793
-3.69467
-3.80105
-3.88233
-3.91182
-3.88126
-3.7821
-3.58986
-3.29574
-2.97775
-2.6815
-2.83823
-2.16642
-0.154105
-3.6986
-3.72056
-3.72922
-3.7387
-3.75583
-3.80643
-3.907
-4.01917
-4.0778
-4.06473
-3.99547
-3.88204
-3.71366
-3.47743
-3.32062
-3.10281
-3.27118
-2.88134
-2.44531
-3.87878
-3.91531
-3.94193
-3.96922
-4.00374
-4.08021
-4.20763
-4.32491
-4.3515
-4.28087
-4.16448
-4.03023
-3.87721
-3.6828
-3.64973
-3.75716
-3.43521
-3.42272
-2.20512
-4.05551
-4.10937
-4.15957
-4.20138
-4.25746
-4.36764
-4.52858
-4.64765
-4.6417
-4.51541
-4.35215
-4.18341
-4.01037
-3.7985
-3.72234
-3.97444
-3.47403
-3.624
-1.32496
-4.21917
-4.28267
-4.34418
-4.39722
-4.47716
-4.61985
-4.79472
-4.89432
-4.85811
-4.70959
-4.52067
-4.30778
-4.07468
-3.77998
-3.47989
-3.79424
-3.39767
-3.33751
0.815728
-4.35873
-4.42225
-4.48487
-4.54683
-4.64438
-4.80352
-4.96457
-5.03517
-4.99068
-4.85464
-4.66315
-4.41352
-4.09061
-3.62944
-3.05296
-2.94205
-2.92217
-3.03437
0.963288
-4.47568
-4.5298
-4.58701
-4.65249
-4.76135
-4.92367
-5.05781
-5.10773
-5.08281
-4.98009
-4.8075
-4.5549
-4.15837
-3.48602
-2.72409
-2.45803
-2.66699
-3.42032
0.10025
-4.57678
-4.61792
-4.66677
-4.7326
-4.84829
-5.00893
-5.1218
-5.17609
-5.17976
-5.12076
-4.99446
-4.80876
-4.49085
-3.75776
-2.94351
-2.28876
-3.24167
-3.94863
-0.161194
-4.67717
-4.70528
-4.74477
-4.80641
-4.92
-5.07489
-5.17594
-5.24732
-5.28915
-5.28772
-5.25666
-5.27239
-5.32198
-4.96488
-3.76624
-4.55941
-4.65858
-4.11713
-0.63088
-4.78426
-4.80278
-4.83281
-4.88459
-4.99487
-5.11699
-5.21219
-5.29758
-5.37259
-5.43059
-5.51436
-5.7531
-6.19096
-6.78485
-6.17433
-5.90215
-5.69308
-4.76795
-4.26748
-4.89901
-4.91143
-4.93324
-4.97534
-5.05957
-5.15127
-5.23046
-5.31212
-5.39896
-5.4904
-5.63688
-5.97513
-6.57387
-6.94748
-6.63443
-6.14434
-5.94957
-5.47489
-5.51376
-5.01956
-5.02804
-5.04229
-5.07287
-5.12965
-5.19207
-5.25112
-5.31686
-5.3956
-5.4902
-5.63622
-5.90916
-6.39307
-6.63701
-6.53135
-6.26948
-5.99802
-5.84219
-5.41036
-5.1443
-5.14962
-5.15856
-5.17767
-5.21143
-5.25033
-5.29207
-5.34464
-5.41016
-5.49101
-5.6087
-5.79218
-6.0451
-6.22341
-6.27968
-6.25907
-6.12469
-6.46284
-6.02115
-5.2718
-5.27488
-5.27986
-5.28978
-5.30685
-5.32872
-5.35662
-5.39871
-5.45363
-5.51923
-5.60436
-5.71745
-5.86303
-5.97478
-6.04153
-5.98723
-6.05901
-7.32396
-8.137
-5.40108
-5.40245
-5.40453
-5.40863
-5.41585
-5.42623
-5.44201
-5.47097
-5.51388
-5.56504
-5.62653
-5.6983
-5.77749
-5.82905
-5.86632
-5.6436
-5.82824
-5.41857
0.948313
-5.53156
-5.5318
-5.53202
-5.53272
-5.53462
-5.53847
-5.54553
-5.55989
-5.58514
-5.61536
-5.64915
-5.69065
-5.72173
-5.76467
-5.85006
-5.77426
-5.97771
-5.10698
-3.18421
-5.66293
-5.66274
-5.66235
-5.66187
-5.66152
-5.66183
-5.66393
-5.66938
-5.67914
-5.68749
-5.6927
-5.69622
-5.70384
-5.77677
-5.92124
-6.0549
-6.4764
-7.26628
-13.8713
)
;

boundaryField
{
    leftWall
    {
        type            calculated;
        value           nonuniform List<scalar> 
50
(
553.765
494.794
435.335
376.018
317.522
260.024
203.733
148.344
70.2775
7.18991
0.0619006
-0.0614632
-0.213531
-0.389625
-0.547637
-0.707687
-0.862814
-1.01437
-1.16359
-1.31121
-1.45788
-1.60393
-1.74964
-1.89514
-2.04051
-2.18581
-2.33108
-2.47635
-2.6216
-2.76685
-2.91208
-3.0573
-3.20247
-3.34761
-3.49268
-3.63769
-3.78261
-3.92742
-4.07211
-4.21669
-4.36114
-4.50547
-4.64969
-4.7938
-4.93781
-5.08175
-5.22565
-5.36952
-5.51334
-5.65715
)
;
    }
    rightWall
    {
        type            calculated;
        value           nonuniform List<scalar> 
50
(
1427.06
1370.52
1290.72
1174.73
1028.09
871.852
715.62
571.178
408.5
322.461
308.024
367.402
478.029
589.814
650.274
600.66
359.955
185.462
105.055
92.5398
101.295
124.668
141.627
143.853
123.366
70.3822
38.4217
30.5412
15.1996
-0.227463
-2.18596
-1.11246
0.214315
-0.154105
-2.44531
-2.20512
-1.32496
0.815728
0.963288
0.10025
-0.161194
-0.63088
-4.26748
-5.51376
-5.41036
-6.02115
-8.137
0.948313
-3.18421
-13.8713
)
;
    }
    lowerWall
    {
        type            calculated;
        value           nonuniform List<scalar> 
62
(
583.194
580.509
581
585.514
595.379
610.15
625.251
639.554
653.817
669.809
688.463
709.668
732.867
757.54
783.078
808.719
833.305
854.285
869.685
874.906
871.59
890.244
928.603
899.205
834.499
772.228
718.43
671.969
626.761
578.466
528.825
535.94
600.155
644.327
669.769
717.605
717.353
723.183
746.425
753.576
752.923
749.644
720.763
717.64
714.157
713.861
730.935
533.109
361.716
305.755
294.397
292.116
292.234
297.604
313.269
349.686
390.679
422.271
594.437
1079.37
1501.11
1449.81
)
;
    }
    atmosphere
    {
        type            calculated;
        value           nonuniform List<scalar> 
46
(
-5.72904
-5.72904
-5.72904
-5.72904
-5.72904
-5.72904
-5.72904
-5.72904
-5.72904
-5.72904
-5.72904
-5.72904
-5.72904
-5.72904
-5.72904
-5.72904
-5.72904
-5.72904
-5.72904
-5.72904
-5.72904
-5.72904
-5.72904
-5.72904
-5.72904
-5.72905
-5.72908
-5.72905
-5.72904
-5.72904
-5.72904
-5.72904
-5.72904
-5.72904
-5.72908
-5.73065
-5.72957
-5.7292
-5.76527
-5.74878
-5.82797
-5.96423
-6.00344
-6.16618
-7.35776
-33.5783
)
;
    }
    defaultFaces
    {
        type            empty;
    }
}


// ************************************************************************* //
