/*--------------------------------*- C++ -*----------------------------------*\
| =========                 |                                                 |
| \\      /  F ield         | OpenFOAM: The Open Source CFD Toolbox           |
|  \\    /   O peration     | Version:  2206                                  |
|   \\  /    A nd           | Website:  www.openfoam.com                      |
|    \\/     M anipulation  |                                                 |
\*---------------------------------------------------------------------------*/
FoamFile
{
    version     2.0;
    format      ascii;
    arch        "LSB;label=32;scalar=64";
    class       volScalarField;
    location    "0.575";
    object      p_rgh;
}
// * * * * * * * * * * * * * * * * * * * * * * * * * * * * * * * * * * * * * //

dimensions      [1 -1 -2 0 0 0 0];

internalField   nonuniform List<scalar> 
2268
(
583.194
580.509
581
585.514
595.379
610.15
625.251
639.554
653.817
669.809
688.463
709.668
732.867
757.54
783.078
808.719
833.305
854.285
869.685
874.906
871.59
890.244
928.603
583.082
579.694
579.776
584.127
593.769
608.976
624.311
638.792
653.12
669.158
687.761
708.923
732.176
756.906
782.463
808.179
833.038
854.926
872.785
875.072
864.043
877.29
922.694
582.481
578.374
577.941
581.493
590.557
606.678
622.439
637.304
651.768
667.918
686.726
707.979
731.338
756.123
781.605
807.049
831.605
854.066
872.841
882.052
860.866
864.324
919.219
582.024
576.898
575.411
577.756
586.342
602.617
619.626
635.183
649.869
666.156
685.094
706.567
730.154
755.165
780.785
806.233
830.674
853.242
872.066
885.298
864.684
867.364
923.878
582.386
575.61
572.442
573.131
581.049
597.542
616.117
632.541
647.505
663.959
683.004
704.742
728.661
754.059
780.004
805.722
830.444
853.355
872.869
887.906
886.567
897.698
936.726
583.747
575.527
569.777
568.726
576.169
592.998
612.544
629.474
644.653
661.322
680.566
702.524
726.869
752.817
779.256
805.419
830.674
854.263
875.007
892.506
905.522
917.755
950.47
586.314
576.67
567.88
565.518
573.236
589.936
609.106
625.785
641.154
658.134
677.596
699.9
724.866
751.566
778.613
805.327
831.254
855.682
877.748
897.367
914.716
931.37
961.01
589.784
578.224
562.938
558.034
568.013
585.688
604.316
620.531
636.516
654.292
673.963
696.598
722.343
750.084
777.953
805.406
832.225
857.629
880.936
902.294
922.307
942.473
970.223
717.64
714.157
713.861
730.935
533.109
361.716
305.755
294.397
292.116
292.234
297.604
313.269
349.686
390.679
422.271
594.437
1079.37
1501.11
1449.81
717.666
712.313
721.547
595.906
334.882
261.084
252.602
252.468
252.507
253.241
258.123
270.371
295.984
332.391
353.405
438.765
871.102
1404.59
1451.94
724.309
724.616
637.826
387.811
262.997
247.761
246.183
245.019
242.735
239.923
238.417
241.921
257.29
283.09
292.943
302.3
466.732
1114.69
1426.63
749.281
769.109
524.014
312.597
254.893
247.438
246.467
245.036
242.578
239.352
237.784
241.243
256.4
284.182
296.481
283.333
306.469
698.321
1365.04
754.835
761.215
506.983
308.567
256.699
247.614
246.433
245.025
242.332
238.462
236.641
239.533
256.11
288.433
295.795
281.024
270.684
464.565
1272.8
758.078
730.729
533.278
318.78
260.386
248.507
246.368
244.755
241.936
237.792
235.735
237.866
261.115
279.492
284.321
272.192
269.381
481.05
1170.94
787.077
761.323
640.341
377.76
274.343
247.729
245.528
244.102
241.42
237.413
235.285
237.744
260.602
262.155
252.525
242.816
270.18
544.602
1069.1
996.418
1025.59
942.752
699.735
500.18
257.369
237.946
241.385
240.218
237.66
237.051
243.823
260.02
250.376
227.186
229.158
254.548
530.486
979.034
548.893
471.778
382.252
335.693
358.85
419.625
495.751
549.918
593.679
634.194
666.211
690.547
718.469
748.417
777.41
805.87
834.047
861.04
886.246
910.212
933.122
955.232
978.026
81.2709
22.318
1.2909
5.00613
47.4727
95.4173
121.524
141.752
182.874
252.879
344.134
456.1
590.252
724.299
776.093
807.168
838.381
867.515
894.519
921.322
948.48
975.815
1005.94
0.845759
0.789342
0.811
0.802038
0.734437
0.740979
0.732673
0.728997
0.71867
0.707799
0.810282
15.0218
79.4381
187.898
350.791
537.03
742.579
876.136
904.359
932.802
959.266
986.609
1015.06
0.847589
0.839179
0.822523
0.71784
0.655905
0.683547
0.675774
0.666502
0.669908
0.684875
0.68738
0.655276
0.60339
0.703308
16.921
56.3798
122.375
286.565
495.691
721.545
929.625
998.413
1028.13
0.820714
0.817324
0.801809
0.7306
0.726016
0.703642
0.683073
0.67147
0.657876
0.642936
0.631284
0.620255
0.620189
0.664235
0.723066
0.775756
0.795015
0.827167
12.3458
57.0566
178.44
366.106
543.26
0.769815
0.759492
0.756975
0.713345
0.694967
0.685329
0.674978
0.665693
0.657151
0.650533
0.650668
0.642048
0.634758
0.718068
0.795216
0.833492
0.766666
0.75408
0.782981
0.761301
0.709629
0.765672
5.98159
0.736997
0.73305
0.721393
0.697566
0.684843
0.672656
0.662188
0.653071
0.645754
0.641226
0.640891
0.638057
0.640218
0.701262
0.727069
0.700552
0.715954
0.731903
0.776594
0.858847
0.874923
0.885046
0.908458
0.702142
0.697885
0.691204
0.677593
0.667707
0.658366
0.650198
0.643506
0.638742
0.63594
0.636076
0.635797
0.637839
0.644468
0.659349
0.679432
0.693768
0.705662
0.740843
0.816526
1.09783
1.11311
1.02668
0.67221
0.669845
0.665132
0.656566
0.649301
0.642313
0.635993
0.630377
0.625791
0.622793
0.621106
0.625082
0.631871
0.637973
0.648729
0.661836
0.672064
0.679794
0.699033
0.914403
1.08613
1.04093
1.01785
0.645847
0.644362
0.641218
0.635678
0.630511
0.6254
0.620813
0.616965
0.614312
0.613369
0.614935
0.616095
0.620552
0.626522
0.634694
0.644152
0.652235
0.661637
0.675933
0.687981
0.999437
0.991437
0.934423
0.621822
0.620841
0.618764
0.615065
0.611513
0.607962
0.604855
0.602429
0.60095
0.600673
0.601812
0.604316
0.608456
0.614024
0.620666
0.627907
0.634326
0.644557
0.639314
0.627223
0.765472
0.999147
0.779536
0.599398
0.598636
0.597339
0.594793
0.5924
0.590032
0.588046
0.586654
0.586074
0.586518
0.588122
0.590776
0.594674
0.599736
0.605523
0.611689
0.617546
0.622005
0.622413
0.613117
0.731063
1.04851
1.02314
0.577924
0.577322
0.576622
0.574766
0.573225
0.571724
0.570559
0.569911
0.569964
0.570863
0.572701
0.575417
0.579043
0.584
0.58915
0.594767
0.60032
0.604865
0.606322
0.599934
0.594719
0.930131
1.08519
0.557067
0.55672
0.556125
0.554915
0.553976
0.553092
0.552507
0.552369
0.552823
0.553976
0.555891
0.558643
0.562186
0.566565
0.571456
0.576748
0.582145
0.58708
0.590271
0.588316
0.576242
0.556125
0.582766
0.536552
0.536347
0.535874
0.535191
0.534627
0.534165
0.533978
0.534175
0.534873
0.536158
0.538084
0.540719
0.54404
0.548025
0.55255
0.557492
0.562657
0.567766
0.572214
0.574267
0.571821
0.567135
0.568403
0.51625
0.516135
0.515801
0.51543
0.515137
0.51497
0.515042
0.515445
0.516267
0.517579
0.519434
0.521869
0.524888
0.528468
0.532547
0.53704
0.541821
0.546713
0.551368
0.555107
0.557761
0.560149
0.565963
0.496074
0.496013
0.495796
0.495616
0.49551
0.495528
0.495753
0.496258
0.497111
0.498367
0.500069
0.502247
0.504907
0.508033
0.511591
0.515522
0.519747
0.524149
0.528514
0.532467
0.535954
0.540392
0.546179
0.475964
0.47593
0.475815
0.475743
0.475749
0.47587
0.476166
0.476692
0.4775
0.478632
0.48012
0.481987
0.484236
0.486856
0.489822
0.493089
0.496598
0.500257
0.503927
0.507564
0.511136
0.514996
0.519264
0.455885
0.455869
0.455815
0.455804
0.455866
0.456027
0.45633
0.456815
0.45752
0.458475
0.459702
0.461213
0.46301
0.465081
0.4674
0.469925
0.472604
0.475368
0.478131
0.480813
0.483373
0.485858
0.48827
0.435818
0.435812
0.43579
0.435803
0.435879
0.436033
0.436295
0.436693
0.437251
0.43799
0.43892
0.440047
0.441365
0.442857
0.444495
0.446235
0.448021
0.449786
0.451439
0.45289
0.45405
0.454811
0.455075
0.415756
0.415753
0.415743
0.415754
0.415813
0.415925
0.416111
0.416387
0.416769
0.417264
0.417878
0.418603
0.419427
0.420328
0.42127
0.422205
0.423067
0.423777
0.424234
0.424324
0.423925
0.422875
0.420999
0.395702
0.395695
0.395683
0.395673
0.395693
0.395739
0.395824
0.395957
0.396142
0.39638
0.396667
0.396987
0.397319
0.397632
0.397884
0.398019
0.397962
0.397619
0.396872
0.39559
0.393618
0.39077
0.386855
0.375662
0.375648
0.375623
0.375579
0.375545
0.375509
0.375479
0.375455
0.375435
0.375412
0.375375
0.375299
0.375155
0.374901
0.374488
0.37385
0.372906
0.371549
0.369647
0.367051
0.363589
0.359057
0.353255
0.355645
0.355623
0.355576
0.355491
0.355395
0.35527
0.355118
0.354933
0.354708
0.354431
0.354082
0.35363
0.353037
0.352252
0.351216
0.349856
0.348082
0.345778
0.342803
0.338993
0.334163
0.328099
0.320596
0.335662
0.33563
0.335559
0.33543
0.335269
0.335052
0.334778
0.334437
0.334017
0.333499
0.332859
0.33206
0.331057
0.32979
0.328191
0.326178
0.323653
0.320494
0.316554
0.311657
0.305606
0.298178
0.289158
0.315722
0.31568
0.315587
0.315414
0.31519
0.314885
0.314496
0.31401
0.313409
0.312672
0.311768
0.310658
0.309291
0.307601
0.305512
0.302934
0.299759
0.29586
0.291083
0.285247
0.27814
0.269531
0.259186
0.29584
0.295784
0.295676
0.29546
0.295179
0.294794
0.294301
0.293685
0.292924
0.291995
0.290863
0.289485
0.287808
0.285761
0.283264
0.280218
0.276509
0.272004
0.266542
0.259936
0.251964
0.242378
0.230916
0.276029
0.275956
0.275843
0.275586
0.275255
0.274801
0.274219
0.273492
0.272598
0.271508
0.270187
0.268591
0.266662
0.26433
0.26151
0.258101
0.253984
0.24902
0.243045
0.235865
0.227248
0.216928
0.204602
0.256309
0.256211
0.256107
0.255804
0.255437
0.254925
0.254272
0.253457
0.252458
0.251244
0.249778
0.248016
0.245897
0.243353
0.240299
0.236633
0.232235
0.226968
0.220671
0.213138
0.20413
0.193359
0.180554
0.236693
0.236563
0.236484
0.236122
0.235742
0.235181
0.234476
0.233598
0.232524
0.231223
0.229659
0.227784
0.225539
0.222858
0.219659
0.215846
0.211299
0.205884
0.199459
0.191805
0.182715
0.171843
0.158883
0.217195
0.21705
0.216965
0.216547
0.216188
0.215577
0.214846
0.213931
0.212813
0.211462
0.209842
0.207908
0.2056
0.202855
0.199599
0.195754
0.191181
0.185769
0.179426
0.171875
0.162927
0.152313
0.139688
0.197812
0.197653
0.19758
0.197102
0.196796
0.196107
0.195395
0.194469
0.193335
0.191968
0.190334
0.188393
0.186081
0.183341
0.180105
0.176364
0.171884
0.166628
0.16047
0.153229
0.144711
0.134685
0.122853
0.178552
0.178386
0.178286
0.177877
0.177531
0.176733
0.176149
0.175222
0.174095
0.172743
0.171131
0.169242
0.166981
0.164325
0.161209
0.157577
0.153314
0.14834
0.142546
0.135793
0.127926
0.118762
0.10808
0.159415
0.15925
0.159126
0.158725
0.158341
0.157538
0.157163
0.156179
0.155085
0.153782
0.152236
0.150416
0.14827
0.145754
0.142818
0.139404
0.135437
0.130845
0.12554
0.119418
0.112365
0.104254
0.0949514
0.140393
0.140239
0.1401
0.139715
0.139349
0.138554
0.138241
0.137299
0.136272
0.135046
0.133612
0.131913
0.129923
0.127601
0.124902
0.121782
0.118183
0.114049
0.10932
0.103921
0.0977772
0.0908177
0.0829854
0.121474
0.121348
0.121201
0.12085
0.120556
0.11977
0.119372
0.118575
0.11764
0.116519
0.115261
0.113711
0.111915
0.109829
0.107417
0.104644
0.101468
0.0978484
0.0937456
0.0891138
0.0839108
0.0781111
0.0717079
0.102656
0.102556
0.102403
0.102073
0.101821
0.101144
0.100714
0.100025
0.0992093
0.0982388
0.0971061
0.0957656
0.0942087
0.0923963
0.0903103
0.0879229
0.0852052
0.0821292
0.0786737
0.0748162
0.0705373
0.0658371
0.0607396
0.0839113
0.0838329
0.0836713
0.0833505
0.0831994
0.0826158
0.0822081
0.0816202
0.0809314
0.0801175
0.0791634
0.0780446
0.0767421
0.0752389
0.0735041
0.0715267
0.069288
0.0667697
0.0639617
0.0608573
0.0574514
0.0537574
0.0498097
0.0652075
0.065151
0.0650064
0.0647367
0.064611
0.0641361
0.0638028
0.0633277
0.0627812
0.0621369
0.0613806
0.0604957
0.0594692
0.0582836
0.0569321
0.0553793
0.0536297
0.0516722
0.0495044
0.047125
0.0445364
0.0417568
0.03882
0.0465371
0.0465099
0.0463981
0.0462072
0.0460691
0.0457273
0.0454997
0.0451455
0.0447463
0.0442775
0.0437313
0.0430976
0.042361
0.0415082
0.0405343
0.0394228
0.0381708
0.036773
0.0352321
0.0335513
0.0317356
0.0298001
0.0277707
0.0279053
0.0278992
0.0278229
0.0277056
0.0276101
0.0273986
0.0272732
0.0270469
0.0268072
0.0265243
0.026192
0.0258093
0.0253689
0.0248584
0.0242708
0.0236023
0.0228498
0.0220119
0.0210918
0.0200917
0.0190164
0.017877
0.0166875
0.0092918
0.00929612
0.00926695
0.00922894
0.00919268
0.00913089
0.00907853
0.00900311
0.00892117
0.00882673
0.00871651
0.00858736
0.0084396
0.00826909
0.00807355
0.00785209
0.00760254
0.00732335
0.00701786
0.00668894
0.00633738
0.00596566
0.00557873
1006.75
1070.66
1114.85
1140.52
1044.46
1086.96
1118.2
1125.01
1051.97
1092.33
1122.54
1112.93
1064.92
1105.48
1138.38
1114.61
722.858
899.332
1149.77
935.591
43.4372
185.779
644.578
830.703
0.837863
0.890113
54.7273
855.563
0.856725
0.996504
8.74658
489.978
1.08277
1.02282
1.12017
56.8774
1.02658
0.958229
0.996344
2.56468
0.689595
0.891767
1.18038
0.83851
1.07349
1.09029
1.11349
0.884804
1.10278
0.76654
0.745878
0.817855
0.63792
0.641792
0.701372
0.767447
0.584691
0.625803
0.670814
0.719995
0.579252
0.604446
0.63302
0.664881
0.556452
0.572961
0.589702
0.604758
0.525661
0.534646
0.541881
0.543174
0.491221
0.493752
0.492576
0.483191
0.454727
0.451966
0.444128
0.427112
0.417546
0.410332
0.397546
0.375843
0.380593
0.369652
0.353235
0.329065
0.344461
0.330349
0.311184
0.286012
0.309524
0.292573
0.270998
0.245023
0.27603
0.25639
0.232205
0.204671
0.244212
0.22196
0.194529
0.163821
0.214337
0.189615
0.158215
0.122202
0.186712
0.159567
0.124639
0.0815858
0.161804
0.132929
0.0946316
0.0433056
0.139926
0.110538
0.0706008
0.0143858
0.121294
0.0929145
0.0542267
-0.000922832
0.105787
0.0799215
0.045401
-0.00276424
0.0929273
0.0706633
0.0422956
0.00509762
0.0820362
0.0638343
0.0421354
0.0162542
0.0723549
0.058024
0.0420175
0.0239906
0.0632049
0.0521682
0.0404691
0.0279816
0.0541011
0.0457543
0.0372356
0.0286233
0.0447456
0.0385367
0.0324143
0.0264524
0.0350957
0.0306024
0.0262809
0.0222235
0.025213
0.0221506
0.0192793
0.0166703
0.0151942
0.0134049
0.0117481
0.0103244
0.00509241
0.00451111
0.00396855
0.00353674
1133.22
1068.94
929.27
783.416
700.847
625.769
587.08
425.417
236.409
239.493
245.286
275.45
261.968
233.927
224.064
224.374
233.085
506.279
901.455
1058.08
921.745
662.795
364.637
153.203
128.616
234.471
360.444
321.796
249.03
279.607
332.618
248.811
227.163
226.816
227.648
230.825
567.699
931.606
954.837
380.163
97.9869
86.776
82.9504
80.4003
78.6289
163.758
302.787
266.125
379.095
309.625
226.275
220.465
221.993
225.496
260.345
778.338
1034.94
391.559
99.0184
92.1595
86.7113
81.7834
77.4366
75.8878
104.472
229.324
254.909
351.451
268.636
208.029
211.331
220.249
276.032
675.75
1100.14
1210.85
125.947
96.7484
94.2427
90.0923
88.1927
85.8487
84.4346
89.9573
136.615
175.267
264.677
241.838
207.652
210.826
209.246
393.032
1150.5
1323.12
1437.63
102.09
96.7307
93.7778
89.3341
81.7162
77.1991
76.2015
80.8269
99.8248
147.826
172.158
194.728
211.462
214.445
214.064
404.649
1230.32
1512.99
1665.58
351.184
96.8606
94.4344
90.3183
83.053
77.565
75.6354
81.1101
97.5436
122.512
147.315
184.127
214.116
221.178
217.438
331.15
1221.98
1667.97
1842.01
733.317
99.3839
93.5972
92.5424
89.0239
84.4347
82.6427
87.8936
94.0272
182.18
376.039
518.414
715.491
761.872
547.324
605.659
1291.63
1743.7
1907.88
790.032
576.456
94.2626
93.8959
93.343
89.3521
83.4151
124.59
514.045
1057.35
1267.3
1365.02
1254.83
1204.07
1121.39
684.972
548.053
1194.89
1782.24
273.39
636.065
342.194
92.7548
92.1976
85.0812
279.715
1139.6
1365.99
1494.55
1511.63
1654.02
1273.95
730.44
162.403
63.1358
81.4669
961.648
1722.82
10.2615
263.711
392.436
285.635
380.392
636.491
1241.26
1556.22
1676.95
1540.17
1643.23
1753.28
1117.83
214.773
58.7271
62.0265
99.3637
1275.91
1758.13
1.08118
6.83094
147.493
208.425
341.724
593.026
949.275
1437.83
1631.75
1634.35
1874.32
1797.44
1724.12
1391.09
175.708
75.9889
211.035
1600.37
1861.53
0.876397
0.962073
1.38647
25.8066
51.7182
114.023
327.364
537.436
345.73
187.801
1357.06
1825.51
1784.72
1785.15
1667.4
1068.1
1110.33
1917.81
1986.2
0.813109
0.860971
1.03306
1.28114
1.7072
4.33075
6.86113
4.82719
4.4011
11.5168
580.029
1866.59
1887.73
1902.38
1942.03
1974.76
2020.89
2065.44
2033.06
0.760917
0.800346
0.858819
0.884908
0.931778
1.01873
0.683692
-0.457947
-0.795762
-0.638162
98.0326
661.164
940.617
951.86
1819.94
2104.77
2176.36
2217.19
2166.59
0.688413
0.704946
0.705129
0.632535
0.460007
0.15302
-0.439375
-1.19522
-1.41085
-1.39495
-1.35914
-1.66911
-1.18061
8.87307
1003
2069.92
2313.51
2371
2282.9
0.60908
0.603518
0.576026
0.491857
0.303342
-0.0282558
-0.542402
-1.17186
-1.47295
-1.48594
-1.42705
-1.48997
-1.32931
6.5159
65.5511
295.479
904.562
1556.85
1903.25
0.53136
0.51014
0.467047
0.382283
0.224661
-0.048495
-0.47315
-1.00113
-1.33826
-1.2276
-1.47584
-1.63494
0.587963
3.41748
-1.66147
0.729219
15.9246
248.717
931.581
0.460306
0.429233
0.377825
0.294275
0.159242
-0.0621998
-0.391268
-0.817078
-1.20475
-1.21856
-1.60605
-1.82775
-2.10867
-2.3732
-2.50111
-1.68447
2.32514
157.967
863.909
0.397997
0.362619
0.308566
0.23568
0.1178
-0.0566907
-0.307068
-0.643934
-1.03781
-1.22252
-1.66389
-1.96318
-2.0708
-2.44407
-2.46248
-1.95596
-0.520425
151.034
1048.34
0.34484
0.31033
0.261364
0.193454
0.0970131
-0.0381864
-0.226918
-0.483055
-0.802542
-1.17077
-1.53975
-1.8542
-1.27926
-0.946389
-0.75042
-0.290604
-0.0606529
31.674
1076.76
0.299223
0.267827
0.225691
0.168717
0.0910176
-0.0147913
-0.157991
-0.347558
-0.581855
-0.853957
-1.14461
-1.40901
-1.58802
-0.419915
0.706989
1.05567
0.93806
8.08725
374.695
0.258484
0.232016
0.198634
0.154631
0.0945989
0.011953
-0.0994798
-0.242429
-0.410053
-0.587288
-0.752364
-0.872268
-0.896563
-0.791712
-0.0314648
0.283533
0.659548
8.00056
144.265
0.220285
0.199291
0.175584
0.14547
0.102261
0.037101
-0.0542956
-0.16846
-0.290647
-0.399765
-0.467917
-0.461186
-0.341666
-0.104322
0.202505
0.422651
17.3685
25.9256
479.216
0.181616
0.165206
0.150683
0.134435
0.109606
0.0607711
-0.0223626
-0.125641
-0.221976
-0.288258
-0.298621
-0.226226
-0.0408953
0.258413
0.607013
0.821034
67.5257
35.9002
498.786
0.139104
0.124099
0.116199
0.114317
0.139537
0.247858
0.178864
-0.0442124
-0.211528
-0.247936
-0.217519
-0.118372
0.0738614
0.367986
0.685969
1.45682
69.9648
36.199
461.533
0.0899266
0.0679646
0.0764476
0.17097
0.377261
0.663405
0.566522
0.427598
-0.168598
-0.272296
-0.203351
-0.0930446
0.0752696
0.311502
0.468313
27.6195
72.1513
40.665
50.8563
0.0349418
-0.00148668
0.130302
0.191163
0.112008
0.143074
0.423813
0.306434
0.239774
-0.284002
-0.249748
-0.11605
0.0369303
0.23134
0.264411
69.4159
71.3669
56.8721
270.192
-0.0165948
-0.0626985
0.0192367
-0.15597
-0.218493
-0.328606
-0.0418789
0.132049
0.12765
-0.37021
-0.312111
-0.143776
0.0289731
0.240844
0.317002
70.8231
61.127
71.1845
458.409
-0.0550586
-0.110425
-0.180068
-0.233113
-0.313051
-0.455687
-0.347781
0.0228713
-0.215379
-0.514101
-0.342608
-0.141935
0.0899267
0.384643
0.684662
39.594
59.4961
127.61
475.209
-0.0693091
-0.132942
-0.195571
-0.257524
-0.355078
-0.514149
-0.476676
-0.405813
-0.547215
-0.402805
-0.327822
-0.123166
0.199207
0.66035
1.2368
21.437
115.081
174.411
489.911
-0.0611683
-0.115305
-0.172513
-0.237988
-0.34188
-0.506772
-0.63755
-0.645535
-0.579228
-0.31986
-0.35031
-0.139696
0.256692
0.929019
1.69084
87.2126
168.365
184.781
503.313
-0.0370845
-0.0782278
-0.127074
-0.19291
-0.2828
-0.453219
-0.569494
-0.571668
-0.375532
-0.320569
-0.417394
-0.268187
0.0506975
0.800499
23.5748
163.526
169.193
140.453
517.326
-0.0122854
-0.0403958
-0.0798859
-0.141527
-0.225111
-0.377832
-0.478524
-0.353212
-0.352095
-0.351002
-0.479603
-0.597887
-0.611983
7.36168
83.1775
69.0215
145.877
102.501
461.081
0.00581716
-0.0127004
-0.0427248
-0.0940518
-0.190546
-0.298868
-0.292127
-0.227195
-0.302542
-0.361042
-0.565875
-0.908942
0.271723
12.4749
10.9266
-1.04038
28.8586
40.3106
58.2782
0.0162632
0.00385019
-0.0179603
-0.0600663
-0.140469
-0.215935
-0.153098
-0.10921
-0.195891
-0.288072
-0.689585
-0.996581
-0.120904
1.04061
-1.6456
-1.15901
-0.967195
6.18252
284.092
0.0209058
0.0124267
-0.00181635
-0.0324009
-0.0860947
-0.131573
-0.102418
0.0186515
-0.0601689
-0.231325
-0.594637
-0.812756
-0.692792
-1.01941
-1.00257
-1.11808
-0.888302
-0.732468
603.527
0.0213605
0.0160431
0.0071036
-0.0119998
-0.0429993
-0.0551809
-0.0677528
-0.0517666
-0.0300039
-0.279972
-0.442806
-0.61484
-0.87778
-0.290283
-0.345372
-0.853408
-0.909771
11.6487
894.485
0.0190574
0.0159818
0.0110031
0.00108157
-0.0151084
-0.0120515
-0.0290487
-0.0996176
-0.15671
-0.228135
-0.313357
-0.426414
-0.57139
-0.211928
-0.336646
-0.690869
-0.753529
46.7138
1003.92
0.0149711
0.0136075
0.0115253
0.00742789
0.00021755
-0.00455159
-0.0110007
-0.0454827
-0.0974434
-0.148835
-0.210331
-0.282097
-0.352468
-0.412011
-0.449692
-0.227466
-0.412179
38.3225
1036.94
0.00968338
0.00945252
0.0092292
0.00852549
0.00662799
0.00278206
-0.00390292
-0.0133581
-0.0412984
-0.0736893
-0.107749
-0.118468
-0.10235
-0.181597
-0.30878
-0.23301
-0.436458
0.434265
668.929
0.00351246
0.00370444
0.0040941
0.00457403
0.00492764
0.00461721
0.00251353
-0.0028944
-0.0111025
-0.0205271
-0.0261052
0.00605011
-0.0043119
-0.109026
-0.254797
-0.388455
-0.80996
-1.59983
19.3401
)
;

boundaryField
{
    leftWall
    {
        type            fixedFluxPressure;
        gradient        uniform 0;
        value           nonuniform List<scalar> 
50
(
583.194
583.082
582.481
582.024
582.386
583.747
586.314
589.784
548.893
81.2709
0.845759
0.847589
0.820714
0.769815
0.736997
0.702142
0.67221
0.645847
0.621822
0.599398
0.577924
0.557067
0.536552
0.51625
0.496074
0.475964
0.455885
0.435818
0.415756
0.395702
0.375662
0.355645
0.335662
0.315722
0.29584
0.276029
0.256309
0.236693
0.217195
0.197812
0.178552
0.159415
0.140393
0.121474
0.102656
0.0839113
0.0652075
0.0465371
0.0279053
0.0092918
)
;
    }
    rightWall
    {
        type            fixedFluxPressure;
        gradient        uniform 0;
        value           nonuniform List<scalar> 
50
(
1449.81
1451.94
1426.63
1365.04
1272.8
1170.94
1069.1
979.034
901.455
931.606
1034.94
1210.85
1437.63
1665.58
1842.01
1907.88
1782.24
1722.82
1758.13
1861.53
1986.2
2033.06
2166.59
2282.9
1903.25
931.581
863.909
1048.34
1076.76
374.695
144.265
479.216
498.786
461.533
50.8563
270.192
458.409
475.209
489.911
503.313
517.326
461.081
58.2782
284.092
603.527
894.485
1003.92
1036.94
668.929
19.3401
)
;
    }
    lowerWall
    {
        type            fixedFluxPressure;
        gradient        uniform 0;
        value           nonuniform List<scalar> 
62
(
583.194
580.509
581
585.514
595.379
610.15
625.251
639.554
653.817
669.809
688.463
709.668
732.867
757.54
783.078
808.719
833.305
854.285
869.685
874.906
871.59
890.244
928.603
928.603
922.694
919.219
923.878
936.726
950.47
961.01
970.223
1006.75
1070.66
1114.85
1140.52
717.64
717.666
724.309
749.281
754.835
758.078
787.077
996.418
717.64
714.157
713.861
730.935
533.109
361.716
305.755
294.397
292.116
292.234
297.604
313.269
349.686
390.679
422.271
594.437
1079.37
1501.11
1449.81
)
;
    }
    atmosphere
    {
        type            totalPressure;
        rho             rho;
        psi             none;
        gamma           1;
        p0              uniform 0;
        value           nonuniform List<scalar> 
46
(
0
0
0
0
0
0
0
0
0
0
0
0
0
0
0
0
0
0
0
0
0
0
0
0
0
-7.54621e-06
-3.89545e-05
-1.09559e-05
0
0
0
0
0
0
0
0
0
0
0
-0.0197367
-0.0989345
-0.235194
-0.2744
-0.437144
-1.62872
0
)
;
    }
    defaultFaces
    {
        type            empty;
    }
}


// ************************************************************************* //
