/*--------------------------------*- C++ -*----------------------------------*\
| =========                 |                                                 |
| \\      /  F ield         | OpenFOAM: The Open Source CFD Toolbox           |
|  \\    /   O peration     | Version:  2206                                  |
|   \\  /    A nd           | Website:  www.openfoam.com                      |
|    \\/     M anipulation  |                                                 |
\*---------------------------------------------------------------------------*/
FoamFile
{
    version     2.0;
    format      ascii;
    arch        "LSB;label=32;scalar=64";
    class       surfaceScalarField;
    location    "0.575";
    object      phi;
}
// * * * * * * * * * * * * * * * * * * * * * * * * * * * * * * * * * * * * * //

dimensions      [0 3 -1 0 0 0 0];

oriented        oriented;

internalField   nonuniform List<scalar> 
4432
(
-3.33109e-06
3.33109e-06
-5.68483e-06
2.35374e-06
-5.56749e-06
-1.17341e-07
-3.80509e-06
-1.7624e-06
-6.17787e-07
-3.18731e-06
3.63961e-06
-4.25739e-06
7.98191e-06
-4.34231e-06
1.14731e-05
-3.49122e-06
1.36745e-05
-2.20139e-06
1.46415e-05
-9.67002e-07
1.4577e-05
6.45278e-08
1.36407e-05
9.36341e-07
1.20364e-05
1.60426e-06
9.82792e-06
2.20847e-06
6.88429e-06
2.94364e-06
2.92401e-06
3.96028e-06
-2.14964e-06
5.07365e-06
-7.35031e-06
5.20067e-06
-1.10047e-05
3.65436e-06
-1.62905e-05
5.28582e-06
-2.22049e-05
5.91443e-06
-1.68772e-05
-5.32774e-06
-1.68772e-05
-3.79956e-06
7.13065e-06
-5.39482e-06
3.94899e-06
-4.9462e-06
-5.65957e-07
-3.31985e-06
-3.38875e-06
-3.415e-07
-6.16567e-06
3.78995e-06
-8.38884e-06
8.14392e-06
-8.69628e-06
1.16423e-05
-6.98956e-06
1.38175e-05
-4.37664e-06
1.47801e-05
-1.92964e-06
1.49079e-05
-6.32149e-08
1.45483e-05
1.29594e-06
1.38449e-05
2.30767e-06
1.28865e-05
3.16684e-06
1.16588e-05
4.1713e-06
9.87372e-06
5.74537e-06
6.82295e-06
8.12443e-06
1.54143e-06
1.04822e-05
-5.88707e-06
1.10829e-05
-1.3216e-05
1.26148e-05
-1.6654e-05
9.35238e-06
-1.16149e-05
-1.03668e-05
-2.84921e-05
-2.92546e-06
1.00561e-05
-4.05138e-06
5.07492e-06
-3.79417e-06
-8.23167e-07
-2.69482e-06
-4.48809e-06
-2.10336e-07
-8.65016e-06
3.63916e-06
-1.22383e-05
7.97395e-06
-1.30311e-05
1.14618e-05
-1.04774e-05
1.35526e-05
-6.46748e-06
1.44005e-05
-2.77753e-06
1.438e-05
-4.26681e-08
1.38101e-05
1.86578e-06
1.29312e-05
3.18655e-06
1.19309e-05
4.16714e-06
1.10005e-05
5.10168e-06
1.03574e-05
6.38856e-06
9.95527e-06
8.52651e-06
8.5059e-06
1.19315e-05
4.57792e-06
1.50109e-05
-1.33588e-06
1.85286e-05
-5.67601e-06
1.36925e-05
-4.1393e-06
-1.19035e-05
-3.26314e-05
-1.64044e-06
1.16965e-05
-2.09065e-06
5.52513e-06
-1.96452e-06
-9.49302e-07
-1.2835e-06
-5.16911e-06
6.64788e-07
-1.05985e-05
4.14109e-06
-1.57146e-05
8.07797e-06
-1.6968e-05
1.12321e-05
-1.36315e-05
1.30847e-05
-8.32007e-06
1.37905e-05
-3.48331e-06
1.37057e-05
4.21489e-08
1.31353e-05
2.4362e-06
1.22917e-05
4.03007e-06
1.13286e-05
5.13031e-06
1.03831e-05
6.04711e-06
9.68352e-06
7.08816e-06
9.69194e-06
8.51809e-06
1.04472e-05
1.11763e-05
1.08473e-05
1.46108e-05
1.03588e-05
1.9017e-05
8.01801e-06
1.60333e-05
4.56037e-06
-8.4459e-06
-2.8071e-05
-8.70881e-11
1.16966e-05
8.30545e-07
4.69449e-06
1.37326e-06
-1.49202e-06
2.3899e-06
-6.18575e-06
4.36347e-06
-1.2572e-05
7.03968e-06
-1.83909e-05
9.65337e-06
-1.95817e-05
1.15884e-05
-1.55666e-05
1.26543e-05
-9.38595e-06
1.30164e-05
-3.84539e-06
1.28634e-05
1.95095e-07
1.23567e-05
2.94293e-06
1.16524e-05
4.73438e-06
1.08833e-05
5.89936e-06
1.01316e-05
6.79889e-06
9.5151e-06
7.70463e-06
9.34072e-06
8.69246e-06
1.02255e-05
1.02915e-05
1.23785e-05
1.24578e-05
1.52829e-05
1.61126e-05
1.57974e-05
1.55189e-05
9.98293e-06
-2.63148e-06
-1.80881e-05
2.47135e-06
9.22528e-06
5.08525e-06
2.08059e-06
7.15523e-06
-3.56201e-06
9.4645e-06
-8.49503e-06
1.17474e-05
-1.48549e-05
1.29978e-05
-1.96413e-05
1.32811e-05
-1.98649e-05
1.30977e-05
-1.53832e-05
1.27255e-05
-9.01376e-06
1.23456e-05
-3.46544e-06
1.19776e-05
5.6305e-07
1.15218e-05
3.39877e-06
1.09816e-05
5.27459e-06
1.04385e-05
6.44246e-06
9.92246e-06
7.31488e-06
9.52e-06
8.10709e-06
9.42849e-06
8.78397e-06
1.00128e-05
9.70724e-06
1.17704e-05
1.07002e-05
1.52789e-05
1.26041e-05
1.73212e-05
1.34766e-05
1.2032e-05
2.65765e-06
-6.05604e-06
5.0034e-06
4.22188e-06
1.04234e-05
-3.33936e-06
1.5313e-05
-8.45165e-06
1.93974e-05
-1.25794e-05
2.12087e-05
-1.66663e-05
2.01197e-05
-1.85523e-05
1.76733e-05
-1.74185e-05
1.53485e-05
-1.30584e-05
1.35454e-05
-7.21067e-06
1.22503e-05
-2.17037e-06
1.14055e-05
1.40788e-06
1.08039e-05
4.00038e-06
1.03461e-05
5.73241e-06
1.00294e-05
6.75908e-06
9.7448e-06
7.59952e-06
9.52834e-06
8.32355e-06
9.61064e-06
8.70168e-06
1.01617e-05
9.15622e-06
1.12211e-05
9.64076e-06
1.37145e-05
1.01107e-05
1.59241e-05
1.1267e-05
1.25278e-05
6.05398e-06
6.47176e-06
7.49944e-06
-3.27757e-06
1.68773e-05
-1.27172e-05
2.4872e-05
-1.64464e-05
2.89029e-05
-1.66103e-05
2.79782e-05
-1.57416e-05
2.40172e-05
-1.45913e-05
1.98138e-05
-1.32151e-05
1.6623e-05
-9.86765e-06
1.44275e-05
-5.01522e-06
1.29513e-05
-6.94145e-07
1.17829e-05
2.57626e-06
1.07811e-05
5.00225e-06
1.00467e-05
6.4668e-06
9.6839e-06
7.12184e-06
9.47695e-06
7.80646e-06
9.38811e-06
8.41239e-06
9.68009e-06
8.4097e-06
1.04065e-05
8.42976e-06
1.12759e-05
8.77141e-06
1.27346e-05
8.65194e-06
1.41864e-05
9.81525e-06
1.18302e-05
8.41016e-06
1.8302e-05
0.000115491
-0.000115491
9.20801e-05
2.34101e-05
1.68101e-05
7.52703e-05
-7.84858e-05
9.52962e-05
-0.000149332
7.08464e-05
-0.000181613
3.22805e-05
-0.000182727
1.11389e-06
-0.000177746
-4.98098e-06
-0.00017274
-5.00596e-06
-0.000168092
-4.64734e-06
-0.000164022
-4.07043e-06
-0.000160731
-3.29126e-06
-0.000157057
-3.67381e-06
-0.000150169
-6.8879e-06
-0.000139084
-1.10852e-05
-0.000122158
-1.69255e-05
-8.08228e-05
-4.13353e-05
-1.39504e-05
-6.68725e-05
-1.39503e-05
3.39076e-05
-0.000149398
-1.30328e-05
7.03508e-05
-0.00010646
0.000168697
-0.000188436
0.000177272
-0.000245014
0.000127425
-0.000251156
3.84217e-05
-0.000234159
-1.58824e-05
-0.000226387
-1.27528e-05
-0.000218797
-1.25965e-05
-0.000211264
-1.21804e-05
-0.000203831
-1.15029e-05
-0.000197026
-1.00966e-05
-0.000190843
-9.85705e-06
-0.000182281
-1.54499e-05
-0.000167499
-2.5867e-05
-0.000148667
-3.57571e-05
-0.000104396
-8.56062e-05
-3.65377e-05
-0.000134731
-5.0488e-05
-4.37862e-05
-0.000105612
-0.000111105
0.000137669
-0.000168507
0.000226099
-0.000205971
0.000214736
-0.000220538
0.000141993
-0.000195608
1.34913e-05
-0.000186134
-2.53566e-05
-0.000212039
1.31527e-05
-0.000255513
3.08776e-05
-0.00030348
3.57863e-05
-0.000316228
1.24565e-06
-0.000289202
-3.71227e-05
-0.000234565
-6.44937e-05
-0.0001797
-7.03153e-05
-0.000182092
-2.34748e-05
-0.00017752
-4.03293e-05
-0.000123526
-0.0001396
-5.12698e-05
-0.000206988
-0.000101758
-6.91802e-05
-3.64316e-05
-0.00010899
0.000177479
-0.000109612
0.000226721
-6.65537e-05
0.000171678
-3.91795e-05
0.000114619
-6.46823e-05
3.89941e-05
-0.000111845
2.1806e-05
-0.000138988
4.02957e-05
-0.000183173
7.50631e-05
-0.000230499
8.31123e-05
-0.000232117
2.86288e-06
-0.000178093
-9.11461e-05
-0.000103956
-0.000138631
-5.31314e-05
-0.00012114
-6.45208e-05
-1.20853e-05
-0.000121181
1.6331e-05
-0.000119908
-0.000140873
-5.55913e-05
-0.000271304
-0.000157349
-8.14313e-06
-2.82884e-05
-5.77749e-05
0.00022711
-3.5667e-07
0.000169303
7.52107e-05
9.61104e-05
9.70229e-05
9.28063e-05
6.86191e-05
6.73978e-05
2.72317e-05
6.31933e-05
-2.03131e-05
8.78405e-05
-6.57379e-05
0.000120488
-0.000112215
0.00012959
-0.000101637
-7.71513e-06
-3.46371e-05
-0.000158147
4.27665e-05
-0.000216035
8.11284e-05
-0.000159501
0.000113274
-4.4231e-05
3.75681e-05
9.2037e-05
-8.41799e-05
-1.91252e-05
-4.96193e-05
-0.000305865
-0.000206968
-3.19371e-05
3.64874e-06
7.0682e-05
0.000124491
0.00016279
7.7195e-05
0.000209756
4.91448e-05
0.000225115
7.74469e-05
0.000194373
9.81399e-05
0.000136646
0.00012092
8.23124e-05
0.000142174
3.6926e-05
0.000165874
6.70045e-06
0.000159816
3.05879e-05
-3.16026e-05
7.35671e-05
-0.000201126
9.21987e-05
-0.000234666
0.000102708
-0.000170011
0.00012249
-6.40127e-05
0.000122536
9.19909e-05
-9.59338e-06
0.000113004
-3.67342e-05
-0.000278724
-0.000243703
-2.1006e-05
2.46548e-05
8.48121e-05
1.86728e-05
0.000162624
-6.17436e-07
0.000220018
-8.24921e-06
0.000275853
2.16122e-05
0.000298284
7.5709e-05
0.000279968
0.000139236
0.000231189
0.000190954
0.000167828
0.000229235
0.000127265
0.000200379
0.000116288
-2.06251e-05
0.000122228
-0.000207066
0.000103844
-0.000216283
0.000104921
-0.000171088
0.000112435
-7.15266e-05
9.28764e-05
0.000111549
4.04403e-06
0.000201837
-2.35943e-05
-0.000251086
-0.000267297
3.44721e-05
-9.81734e-06
6.65633e-05
-1.34184e-05
8.67782e-05
-2.08323e-05
0.000104836
-2.6307e-05
0.000137629
-1.11805e-05
0.0001884
2.4938e-05
0.000240861
8.67742e-05
0.000275461
0.000156354
0.000272798
0.000231897
0.000248385
0.000224792
0.000179554
4.82059e-05
0.000131536
-0.000159048
0.000102487
-0.000187234
8.94999e-05
-0.000158101
6.00422e-05
-4.20688e-05
2.12317e-06
0.000169468
-1.4412e-05
0.000218372
-1.4413e-05
-0.000251085
-0.00028171
2.29874e-05
-2.6265e-05
4.88514e-05
-3.85812e-05
5.77582e-05
-2.53532e-05
5.20454e-05
-1.08975e-05
4.37751e-05
-7.4713e-06
3.57069e-05
-6.52314e-06
2.95777e-05
-7.08584e-06
2.59971e-05
-6.28704e-06
2.4993e-05
-4.01118e-06
2.53896e-05
-1.09067e-06
2.56802e-05
2.28557e-06
2.48247e-05
5.8578e-06
2.37663e-05
7.52519e-06
2.30591e-05
7.82899e-06
2.18617e-05
9.00387e-06
2.05909e-05
9.68325e-06
2.06802e-05
8.32042e-06
2.21096e-05
7.00029e-06
2.40827e-05
6.79833e-06
2.67011e-05
6.03357e-06
3.07262e-05
5.79012e-06
3.55139e-05
3.62249e-06
1.17668e-05
4.2049e-05
2.7564e-05
-5.3829e-05
3.16209e-05
-4.26382e-05
-3.7304e-05
4.35718e-05
-6.10398e-05
1.28384e-05
-2.74769e-05
-4.10342e-05
-1.86632e-05
-1.53368e-05
-1.85474e-05
-7.20163e-06
-1.70661e-05
-7.7683e-06
-9.84652e-06
-1.12308e-05
-8.90095e-07
-1.00471e-05
8.57179e-06
-7.17631e-06
1.82705e-05
-3.84092e-06
2.45303e-05
1.26539e-06
2.69368e-05
5.42252e-06
2.50516e-05
1.0889e-05
2.17547e-05
1.29801e-05
2.13441e-05
8.73106e-06
2.26432e-05
5.70122e-06
2.4348e-05
5.09353e-06
2.71187e-05
3.26288e-06
3.10846e-05
1.82419e-06
3.5393e-05
-6.85933e-07
2.33369e-06
4.48261e-05
-9.53594e-06
-4.4293e-05
-4.1545e-05
-1.0629e-05
-4.80283e-05
5.00552e-05
-5.27201e-05
1.75303e-05
-7.64033e-05
-1.7351e-05
-9.77426e-05
6.00258e-06
-0.000119432
1.44873e-05
-0.000136148
8.94765e-06
-0.000145495
-1.88312e-06
-0.000139009
-1.65334e-05
-0.000114775
-3.14101e-05
-6.86875e-05
-4.99287e-05
-2.66864e-05
-4.07357e-05
-4.91067e-06
-1.63532e-05
7.56579e-06
-1.58744e-06
1.66219e-05
3.92406e-06
2.49928e-05
3.60156e-07
2.818e-05
2.51402e-06
2.7538e-05
5.7355e-06
2.77931e-05
3.00779e-06
2.96563e-05
-3.89658e-08
3.13768e-05
-2.40643e-06
-4.87323e-06
3.85837e-05
-2.98268e-05
-1.4466e-05
-4.26611e-05
2.20542e-06
-2.46376e-05
3.20318e-05
-1.40864e-05
6.97922e-06
-2.8683e-05
-2.75439e-06
-3.6414e-05
1.37336e-05
-3.87369e-05
1.68101e-05
-4.1718e-05
1.19287e-05
-5.20194e-05
8.41821e-06
-7.33742e-05
4.82146e-06
-0.000102651
-2.13377e-06
-0.000129038
-2.35412e-05
-0.00013281
-3.69642e-05
-0.000117675
-3.14873e-05
-8.13664e-05
-3.78965e-05
-5.0638e-05
-2.68043e-05
-3.05353e-05
-1.97426e-05
-5.76174e-06
-2.22595e-05
9.86794e-06
-9.89418e-06
2.41667e-05
-1.1291e-05
3.35925e-05
-9.46479e-06
3.62586e-05
-5.07253e-06
-7.66392e-06
3.90493e-05
-1.8607e-05
4.14107e-06
-1.50589e-05
-1.34256e-06
-5.06838e-07
1.74798e-05
1.18539e-06
5.28704e-06
-4.62942e-06
3.06044e-06
-3.68089e-06
1.2785e-05
2.75636e-07
1.28535e-05
4.17299e-06
8.03126e-06
8.44143e-06
4.14973e-06
8.78492e-06
4.47796e-06
-6.52642e-06
1.31776e-05
-3.7522e-05
7.45446e-06
-6.24748e-05
-1.20113e-05
-7.01062e-05
-2.38558e-05
-7.53632e-05
-3.26395e-05
-7.8918e-05
-2.32494e-05
-8.02309e-05
-1.84297e-05
-8.44323e-05
-1.80581e-05
-6.32219e-05
-3.11045e-05
-4.43437e-05
-3.01692e-05
-2.03428e-05
-3.34656e-05
-9.25654e-06
-1.61588e-05
-1.47382e-05
-2.18226e-06
-6.77404e-06
1.09152e-05
-6.82151e-06
-1.29504e-06
-4.23368e-07
1.10817e-05
-2.2155e-06
7.07921e-06
-6.80215e-06
7.64711e-06
-5.52399e-06
1.15069e-05
-5.24758e-06
1.25771e-05
-6.99161e-06
9.77529e-06
-6.76093e-06
3.91907e-06
-1.26373e-06
-1.01917e-06
9.84135e-06
2.07263e-06
1.16421e-05
5.65378e-06
-3.60151e-06
3.2324e-06
-1.25068e-05
-1.49505e-05
-1.44237e-05
-3.07225e-05
-1.21251e-05
-2.5548e-05
-1.54992e-05
-1.50555e-05
-2.23729e-05
-1.11845e-05
-3.85732e-05
-1.49042e-05
-6.44458e-05
-4.29661e-06
-8.91087e-05
-8.80278e-06
-0.000103122
-2.14602e-06
-1.56034e-05
-0.000102256
-4.81246e-06
1.57277e-05
-4.46304e-06
-1.64442e-06
-1.29391e-06
7.9126e-06
-1.90398e-06
7.68933e-06
-3.13949e-06
8.88266e-06
-2.60988e-06
1.09773e-05
-1.72307e-06
1.16904e-05
-1.78688e-06
9.83915e-06
-3.65707e-06
5.78935e-06
-6.65951e-06
1.98337e-06
-6.19995e-06
1.61317e-06
-3.11899e-06
2.57292e-06
-1.17977e-06
1.29326e-06
-1.27769e-06
-1.48525e-05
-6.29118e-06
-2.5709e-05
-7.04072e-06
-2.47984e-05
-2.63381e-06
-1.94624e-05
4.37878e-06
-1.81971e-05
1.43068e-05
-2.48323e-05
2.858e-05
-1.85698e-05
3.77969e-05
-1.80197e-05
3.98074e-05
-4.15653e-06
1.35284e-05
1.06757e-05
-3.19802e-06
1.89257e-05
-3.34091e-06
-1.5015e-06
-1.83816e-06
6.4099e-06
-1.90877e-06
7.75999e-06
-1.7604e-06
8.73435e-06
-1.06044e-06
1.02774e-05
-7.76904e-07
1.14069e-05
-1.70274e-06
1.07651e-05
-3.43525e-06
7.52195e-06
-4.323e-06
2.87123e-06
-2.08016e-06
-6.2957e-07
2.63389e-06
-2.14104e-06
8.16349e-06
-4.23627e-06
7.31287e-06
-1.40018e-05
2.23992e-06
-2.06359e-05
-9.49618e-07
-2.16089e-05
9.02651e-08
-2.05023e-05
3.97781e-06
-2.20846e-05
1.27577e-05
-3.36122e-05
3.66121e-05
-4.24241e-05
6.64997e-05
-4.79073e-05
9.78372e-05
-3.5494e-05
5.57276e-06
0.000105793
-2.22894e-06
2.11546e-05
-2.41875e-06
-1.31163e-06
-1.36134e-06
5.35256e-06
-1.06502e-06
7.46374e-06
-5.7141e-07
8.24081e-06
5.1605e-07
9.18998e-06
1.80665e-06
1.01164e-05
2.64518e-06
9.92659e-06
2.382e-06
7.78521e-06
1.11438e-06
4.13893e-06
4.26484e-07
5.83865e-08
2.60129e-06
-4.3158e-06
6.3709e-06
-8.00581e-06
6.61208e-06
-1.42429e-05
4.76535e-06
-1.87892e-05
4.01122e-06
-2.08547e-05
6.18959e-06
-2.26806e-05
1.19006e-05
-2.77956e-05
1.91241e-05
-4.08357e-05
3.32452e-05
-5.65453e-05
5.03728e-05
-6.50349e-05
6.93664e-05
-5.44875e-05
-1.15431e-05
8.64822e-05
-1.13807e-06
2.22927e-05
-1.40683e-06
-1.04283e-06
-8.57081e-07
4.80286e-06
-4.24331e-07
7.03103e-06
2.37334e-07
7.57917e-06
1.38421e-06
8.04314e-06
2.96326e-06
8.53733e-06
4.47043e-06
8.41945e-06
5.3631e-06
6.89256e-06
5.72992e-06
3.77214e-06
5.96742e-06
-1.79078e-07
6.22481e-06
-4.57314e-06
6.87265e-06
-8.65359e-06
5.87733e-06
-1.32476e-05
4.02581e-06
-1.69376e-05
2.77581e-06
-1.96047e-05
3.67655e-06
-2.35814e-05
7.36313e-06
-3.14822e-05
1.12604e-05
-4.47329e-05
1.54829e-05
-6.07678e-05
2.17035e-05
-7.12554e-05
2.92749e-05
-6.20588e-05
-2.0306e-05
3.80379e-05
-3.43342e-07
2.26361e-05
-6.96722e-07
-6.89439e-07
-4.10452e-07
4.51659e-06
-3.07011e-08
6.65126e-06
5.73381e-07
6.97506e-06
1.54766e-06
7.06883e-06
2.97312e-06
7.11184e-06
4.63106e-06
6.7615e-06
6.03777e-06
5.48585e-06
6.77506e-06
3.03485e-06
6.92174e-06
-3.25736e-07
6.45565e-06
-4.10701e-06
5.59277e-06
-7.79066e-06
3.88855e-06
-1.15433e-05
1.89094e-06
-1.494e-05
5.33588e-07
-1.82473e-05
1.40951e-07
-2.31887e-05
1.76454e-07
-3.15177e-05
-1.22569e-06
-4.33308e-05
-6.30835e-06
-5.56851e-05
-1.35393e-05
-6.40244e-05
-2.01617e-05
-5.54365e-05
-2.12882e-05
-1.91794e-05
1.65633e-07
2.24705e-05
-2.42889e-07
-2.80979e-07
-1.35257e-07
4.40888e-06
1.49847e-07
6.36607e-06
6.05859e-07
6.51896e-06
1.2988e-06
6.37582e-06
2.30303e-06
6.10756e-06
3.53685e-06
5.52765e-06
4.65502e-06
4.36767e-06
5.28517e-06
2.4047e-06
5.19081e-06
-2.31352e-07
4.34206e-06
-3.25822e-06
2.88012e-06
-6.32868e-06
8.70063e-07
-9.53324e-06
-1.25819e-06
-1.28117e-05
-3.21065e-06
-1.62949e-05
-5.48131e-06
-2.09181e-05
-9.13524e-06
-2.78638e-05
-1.52729e-05
-3.71931e-05
-2.4822e-05
-4.61359e-05
-3.79996e-05
-5.08467e-05
-5.01336e-05
-4.33025e-05
-1.61274e-05
-5.52944e-05
4.13546e-07
2.20569e-05
2.92354e-08
1.03201e-07
-8.61916e-09
4.44661e-06
1.5754e-07
6.19979e-06
4.49927e-07
6.22648e-06
8.64412e-07
5.96126e-06
1.42667e-06
5.54526e-06
2.09305e-06
4.86125e-06
2.67705e-06
3.78368e-06
2.87498e-06
2.20677e-06
2.47973e-06
1.63927e-07
1.42981e-06
-2.20828e-06
-1.51282e-07
-4.7476e-06
-2.21797e-06
-7.4666e-06
-4.65119e-06
-1.03786e-05
-7.36026e-06
-1.35859e-05
-1.09477e-05
-1.73308e-05
-1.65444e-05
-2.22671e-05
-2.50031e-05
-2.87343e-05
-3.59705e-05
-3.51685e-05
-4.91613e-05
-3.76558e-05
-6.15319e-05
-3.09319e-05
-1.05829e-05
-6.70764e-05
4.61082e-07
2.15958e-05
1.23201e-07
4.40923e-07
3.48588e-09
4.56619e-06
5.31327e-08
6.15004e-06
1.86259e-07
6.09328e-06
3.74902e-07
5.77259e-06
5.9445e-07
5.3257e-06
8.04655e-07
4.65105e-06
8.97352e-07
3.69098e-06
6.99144e-07
2.40498e-06
5.69245e-08
8.06148e-07
-1.09677e-06
-1.05461e-06
-2.75272e-06
-3.09169e-06
-4.91567e-06
-5.30371e-06
-7.62215e-06
-7.67216e-06
-1.09841e-05
-1.0224e-05
-1.5385e-05
-1.29299e-05
-2.16976e-05
-1.59545e-05
-3.08901e-05
-1.95418e-05
-4.30686e-05
-2.299e-05
-5.71428e-05
-2.35814e-05
-7.12932e-05
-1.67816e-05
-1.60356e-06
-8.02725e-05
4.18678e-07
2.1177e-05
1.22581e-07
7.36886e-07
-6.56689e-08
4.75435e-06
-1.21654e-07
6.20597e-06
-1.1902e-07
6.09064e-06
-1.09833e-07
5.76341e-06
-1.23994e-07
5.33989e-06
-2.11576e-07
4.73864e-06
-4.43452e-07
3.92286e-06
-9.20517e-07
2.88204e-06
-1.73916e-06
1.62477e-06
-2.97388e-06
1.80057e-07
-4.6584e-06
-1.40725e-06
-6.86701e-06
-3.09517e-06
-9.70126e-06
-4.83794e-06
-1.33168e-05
-6.60847e-06
-1.78849e-05
-8.36182e-06
-2.38666e-05
-9.9727e-06
-3.21868e-05
-1.12215e-05
-4.35215e-05
-1.16552e-05
-5.72014e-05
-9.90146e-06
-7.02207e-05
-3.7622e-06
7.11932e-06
-7.89436e-05
3.42884e-07
2.0834e-05
4.81003e-08
1.03161e-06
-1.92487e-07
4.99491e-06
-3.2872e-07
6.34222e-06
-4.36579e-07
6.19853e-06
-5.62821e-07
5.8897e-06
-7.36809e-07
5.5139e-06
-1.00622e-06
5.00805e-06
-1.42958e-06
4.34621e-06
-2.07238e-06
3.52483e-06
-3.00277e-06
2.55514e-06
-4.28934e-06
1.46659e-06
-5.98883e-06
2.92209e-07
-8.16858e-06
-9.15444e-07
-1.09102e-05
-2.09634e-06
-1.43424e-05
-3.17622e-06
-1.86423e-05
-4.06202e-06
-2.40323e-05
-4.58266e-06
-3.07891e-05
-4.46468e-06
-3.91744e-05
-3.26986e-06
-4.88337e-05
-2.42215e-07
-5.81081e-05
5.51222e-06
1.41299e-05
-6.51186e-05
2.62558e-07
2.05714e-05
-5.07193e-08
1.34488e-06
-3.3968e-07
5.28391e-06
-5.41368e-07
6.54396e-06
-7.39463e-07
6.39669e-06
-9.71758e-07
6.12203e-06
-1.26258e-06
5.80473e-06
-1.65161e-06
5.39708e-06
-2.18806e-06
4.88265e-06
-2.92511e-06
4.26186e-06
-3.92023e-06
3.55023e-06
-5.22883e-06
2.77517e-06
-6.90752e-06
1.9709e-06
-9.01544e-06
1.1925e-06
-1.16135e-05
5.01743e-07
-1.47813e-05
-8.37961e-09
-1.86337e-05
-2.09621e-07
-2.32837e-05
6.73857e-08
-2.87607e-05
1.01231e-06
-3.49747e-05
2.94407e-06
-4.16176e-05
6.40065e-06
-4.78625e-05
1.17572e-05
1.87856e-05
-5.25182e-05
1.89695e-07
2.03817e-05
-1.57898e-07
1.69251e-06
-4.85234e-07
5.61129e-06
-7.39539e-07
6.79832e-06
-1.00596e-06
6.66316e-06
-1.31796e-06
6.43406e-06
-1.69504e-06
6.1818e-06
-2.16744e-06
5.86948e-06
-2.77393e-06
5.48915e-06
-3.56065e-06
5.04859e-06
-4.5741e-06
4.56368e-06
-5.8595e-06
4.06058e-06
-7.46484e-06
3.57628e-06
-9.43427e-06
3.16196e-06
-1.18174e-05
2.88492e-06
-1.46586e-05
2.83272e-06
-1.79954e-05
3.1271e-06
-2.18533e-05
3.92524e-06
-2.62163e-05
5.37531e-06
-3.10081e-05
7.73583e-06
-3.57635e-05
1.1156e-05
-3.98684e-05
1.58621e-05
2.17222e-05
-4.2805e-05
1.28941e-07
2.02528e-05
-2.58245e-07
2.0797e-06
-6.15668e-07
5.96873e-06
-9.09227e-07
7.09189e-06
-1.22555e-06
6.97949e-06
-1.59221e-06
6.80073e-06
-2.02582e-06
6.61542e-06
-2.55016e-06
6.39383e-06
-3.19604e-06
6.13507e-06
-3.99672e-06
5.8493e-06
-4.99081e-06
5.55778e-06
-6.21216e-06
5.28193e-06
-7.69794e-06
5.06206e-06
-9.47802e-06
4.94202e-06
-1.15782e-05
4.98507e-06
-1.40189e-05
5.27331e-06
-1.68097e-05
5.91775e-06
-1.99322e-05
7.04762e-06
-2.33497e-05
8.79279e-06
-2.68985e-05
1.12846e-05
-3.03296e-05
1.45871e-05
-3.32017e-05
1.87342e-05
2.36484e-05
-3.51279e-05
8.15319e-08
2.01713e-05
-3.43239e-07
2.5044e-06
-7.22941e-07
6.34838e-06
-1.04407e-06
7.41298e-06
-1.39295e-06
7.32832e-06
-1.79323e-06
7.20098e-06
-2.25744e-06
7.07963e-06
-2.80503e-06
6.94145e-06
-3.45884e-06
6.78891e-06
-4.24536e-06
6.63584e-06
-5.18951e-06
6.50192e-06
-6.32067e-06
6.4131e-06
-7.66199e-06
6.40338e-06
-9.233e-06
6.51297e-06
-1.10468e-05
6.79874e-06
-1.31073e-05
7.33374e-06
-1.53979e-05
8.20823e-06
-1.78801e-05
9.52979e-06
-2.04876e-05
1.14003e-05
-2.30882e-05
1.38853e-05
-2.54789e-05
1.69778e-05
-2.73791e-05
2.06345e-05
2.47937e-05
-2.85245e-05
4.75267e-08
2.01237e-05
-4.08981e-07
2.96078e-06
-8.02797e-07
6.74209e-06
-1.14069e-06
7.75079e-06
-1.50785e-06
7.69543e-06
-1.92354e-06
7.61663e-06
-2.39835e-06
7.55443e-06
-2.94621e-06
7.48932e-06
-3.58445e-06
7.42716e-06
-4.33173e-06
7.38311e-06
-5.2074e-06
7.37756e-06
-6.23035e-06
7.43601e-06
-7.41555e-06
7.58855e-06
-8.77257e-06
7.86991e-06
-1.03031e-05
8.32919e-06
-1.19981e-05
9.02863e-06
-1.38292e-05
1.00393e-05
-1.5753e-05
1.14535e-05
-1.76937e-05
1.33411e-05
-1.95383e-05
1.57298e-05
-2.11391e-05
1.85787e-05
-2.22938e-05
2.17891e-05
2.53026e-05
-2.28026e-05
2.58066e-08
2.00978e-05
-4.54566e-07
3.44098e-06
-8.54445e-07
7.14182e-06
-1.19884e-06
8.09507e-06
-1.57164e-06
8.06816e-06
-1.98857e-06
8.03353e-06
-2.45676e-06
8.02261e-06
-2.987e-06
8.01956e-06
-3.59198e-06
8.03212e-06
-4.28511e-06
8.07617e-06
-5.07879e-06
8.17117e-06
-5.98392e-06
8.34107e-06
-7.00901e-06
8.61358e-06
-8.15732e-06
9.01813e-06
-9.41747e-06
9.58922e-06
-1.07816e-05
1.03927e-05
-1.22078e-05
1.14655e-05
-1.3659e-05
1.29047e-05
-1.50541e-05
1.47363e-05
-1.63028e-05
1.69785e-05
-1.72838e-05
1.95596e-05
-1.78658e-05
2.2371e-05
2.53217e-05
-1.78849e-05
1.38342e-08
2.00839e-05
-4.79747e-07
3.93435e-06
-8.76682e-07
7.53861e-06
-1.21894e-06
8.43721e-06
-1.58737e-06
8.43651e-06
-1.99391e-06
8.44005e-06
-2.4434e-06
8.47207e-06
-2.94368e-06
8.51982e-06
-3.50353e-06
8.59191e-06
-4.13138e-06
8.70394e-06
-4.83469e-06
8.87441e-06
-5.61814e-06
9.12445e-06
-6.4856e-06
9.48097e-06
-7.43274e-06
9.96519e-06
-8.45394e-06
1.06103e-05
-9.51819e-06
1.14568e-05
-1.06039e-05
1.25511e-05
-1.16512e-05
1.3952e-05
-1.2605e-05
1.56901e-05
-1.33783e-05
1.77518e-05
-1.38924e-05
2.00737e-05
-1.40357e-05
2.25144e-05
2.4988e-05
-1.37021e-05
9.60743e-09
2.00742e-05
-4.82975e-07
4.42677e-06
-8.68597e-07
7.92413e-06
-1.20149e-06
8.77005e-06
-1.55648e-06
8.79145e-06
-1.94376e-06
8.82731e-06
-2.3655e-06
8.8938e-06
-2.827e-06
8.98126e-06
-3.33402e-06
9.09886e-06
-3.89154e-06
9.26137e-06
-4.50189e-06
9.48467e-06
-5.16812e-06
9.7906e-06
-5.88487e-06
1.01976e-05
-6.65068e-06
1.07309e-05
-7.4518e-06
1.14113e-05
-8.25772e-06
1.22627e-05
-9.04167e-06
1.3335e-05
-9.7611e-06
1.46714e-05
-1.03568e-05
1.62858e-05
-1.07667e-05
1.81617e-05
-1.09185e-05
2.02256e-05
-1.0746e-05
2.23419e-05
2.44075e-05
-1.01654e-05
1.15107e-08
2.00626e-05
-4.6322e-07
4.90143e-06
-8.27959e-07
8.28882e-06
-1.14515e-06
9.08724e-06
-1.48068e-06
9.127e-06
-1.8418e-06
9.18843e-06
-2.22962e-06
9.28161e-06
-2.64692e-06
9.39852e-06
-3.09756e-06
9.54944e-06
-3.5825e-06
9.74628e-06
-4.10331e-06
1.00054e-05
-4.65584e-06
1.03431e-05
-5.23717e-06
1.07789e-05
-5.83665e-06
1.13303e-05
-6.43997e-06
1.20146e-05
-7.02788e-06
1.28506e-05
-7.56508e-06
1.38722e-05
-8.0082e-06
1.51145e-05
-8.31465e-06
1.65922e-05
-8.43923e-06
1.82863e-05
-8.32653e-06
2.0113e-05
-7.92205e-06
2.19374e-05
2.36721e-05
-7.18677e-06
2.11666e-08
2.00413e-05
-4.19254e-07
5.34186e-06
-7.5459e-07
8.62418e-06
-1.05028e-06
9.38296e-06
-1.36046e-06
9.43725e-06
-1.69058e-06
9.51858e-06
-2.04083e-06
9.63187e-06
-2.41229e-06
9.76998e-06
-2.80542e-06
9.94253e-06
-3.22093e-06
1.01618e-05
-3.65633e-06
1.04408e-05
-4.1065e-06
1.07932e-05
-4.56304e-06
1.12354e-05
-5.01843e-06
1.17856e-05
-5.45495e-06
1.24511e-05
-5.85447e-06
1.325e-05
-6.18067e-06
1.41984e-05
-6.40276e-06
1.53367e-05
-6.48275e-06
1.66722e-05
-6.37858e-06
1.8182e-05
-6.06124e-06
1.97957e-05
-5.49709e-06
2.13733e-05
2.28445e-05
-4.66952e-06
4.31463e-08
1.99982e-05
-3.51796e-07
5.73686e-06
-6.50193e-07
8.92265e-06
-9.19962e-07
9.65277e-06
-1.19913e-06
9.71649e-06
-1.4935e-06
9.81301e-06
-1.80248e-06
9.94086e-06
-2.12745e-06
1.0095e-05
-2.46402e-06
1.02791e-05
-2.81437e-06
1.05121e-05
-3.17161e-06
1.0798e-05
-3.52983e-06
1.11514e-05
-3.88138e-06
1.15869e-05
-4.21088e-06
1.21151e-05
-4.50592e-06
1.27461e-05
-4.7447e-06
1.34889e-05
-4.90547e-06
1.43592e-05
-4.94973e-06
1.53809e-05
-4.84488e-06
1.65674e-05
-4.57123e-06
1.79084e-05
-4.09484e-06
1.93192e-05
-3.4053e-06
2.06838e-05
2.19565e-05
-2.51722e-06
8.35391e-08
1.99147e-05
-2.64455e-07
6.08491e-06
-5.21788e-07
9.18005e-06
-7.60934e-07
9.89199e-06
-1.00389e-06
9.95951e-06
-1.25842e-06
1.00676e-05
-1.52314e-06
1.02056e-05
-1.79662e-06
1.03684e-05
-2.08122e-06
1.05637e-05
-2.3678e-06
1.07987e-05
-2.65271e-06
1.10829e-05
-2.93018e-06
1.14288e-05
-3.18897e-06
1.18457e-05
-3.41129e-06
1.23374e-05
-3.59017e-06
1.29251e-05
-3.70346e-06
1.36023e-05
-3.72629e-06
1.43823e-05
-3.62947e-06
1.52842e-05
-3.39039e-06
1.63283e-05
-2.97443e-06
1.74926e-05
-2.37539e-06
1.87203e-05
-1.58403e-06
1.98923e-05
2.10002e-05
-6.27702e-07
1.45607e-07
1.97691e-05
-1.63054e-07
6.39363e-06
-3.78878e-07
9.39593e-06
-5.84312e-07
1.00975e-05
-7.86301e-07
1.01616e-05
-9.97039e-07
1.02784e-05
-1.21257e-06
1.04212e-05
-1.43485e-06
1.05907e-05
-1.66046e-06
1.07892e-05
-1.88254e-06
1.10207e-05
-2.09758e-06
1.12979e-05
-2.2996e-06
1.16308e-05
-2.4737e-06
1.20199e-05
-2.60931e-06
1.24731e-05
-2.68728e-06
1.30031e-05
-2.69747e-06
1.36126e-05
-2.61427e-06
1.42992e-05
-2.40901e-06
1.50791e-05
-2.05876e-06
1.59781e-05
-1.53666e-06
1.69706e-05
-8.3188e-07
1.80158e-05
7.46817e-08
1.89858e-05
1.99231e-05
1.15178e-06
2.31664e-07
1.95375e-05
-4.99128e-08
6.67526e-06
-2.31647e-07
9.57771e-06
-4.03083e-07
1.02691e-05
-5.60803e-07
1.03194e-05
-7.24447e-07
1.04421e-05
-8.88792e-07
1.05855e-05
-1.05195e-06
1.07537e-05
-1.21306e-06
1.09503e-05
-1.36996e-06
1.11775e-05
-1.51511e-06
1.1443e-05
-1.63769e-06
1.17535e-05
-1.73035e-06
1.21127e-05
-1.78277e-06
1.25257e-05
-1.77623e-06
1.29968e-05
-1.69286e-06
1.35294e-05
-1.51231e-06
1.41187e-05
-1.22131e-06
1.47882e-05
-7.76813e-07
1.55338e-05
-1.59014e-07
1.63528e-05
6.67245e-07
1.71895e-05
1.68032e-06
1.79727e-05
1.86781e-05
2.9252e-06
3.30812e-07
1.92067e-05
5.93239e-08
6.94677e-06
-9.67852e-08
9.73385e-06
-2.32106e-07
1.04044e-05
-3.43083e-07
1.04304e-05
-4.61486e-07
1.05604e-05
-5.72885e-07
1.06967e-05
-6.77876e-07
1.08586e-05
-7.73581e-07
1.10459e-05
-8.5807e-07
1.1262e-05
-9.25848e-07
1.15109e-05
-9.67681e-07
1.17955e-05
-9.75418e-07
1.21205e-05
-9.3809e-07
1.24884e-05
-8.40326e-07
1.2899e-05
-6.65229e-07
1.33544e-05
-3.96364e-07
1.38499e-05
-4.90793e-09
1.43968e-05
5.34014e-07
1.49949e-05
1.24503e-06
1.5642e-05
2.15762e-06
1.6277e-05
3.31578e-06
1.68146e-05
1.7246e-05
4.7479e-06
4.38446e-07
1.87683e-05
1.49428e-07
7.23576e-06
6.16972e-09
9.87709e-06
-8.40789e-08
1.04946e-05
-1.54771e-07
1.0501e-05
-2.36229e-07
1.06418e-05
-2.98616e-07
1.0759e-05
-3.48259e-07
1.09081e-05
-3.83103e-07
1.10807e-05
-3.9799e-07
1.12769e-05
-3.8885e-07
1.15018e-05
-3.45834e-07
1.17525e-05
-2.62573e-07
1.20373e-05
-1.30025e-07
1.23559e-05
7.13197e-08
1.26978e-05
3.47134e-07
1.30787e-05
7.21224e-07
1.34759e-05
1.21626e-06
1.39019e-05
1.85031e-06
1.4361e-05
2.67415e-06
1.48183e-05
3.71654e-06
1.52347e-05
5.01283e-06
1.55184e-05
1.56269e-05
6.6319e-06
5.52875e-07
1.82154e-05
2.29037e-07
7.55951e-06
9.70158e-08
1.0009e-05
3.38156e-08
1.05577e-05
-2.52787e-08
1.056e-05
-7.64085e-08
1.06928e-05
-1.00907e-07
1.07834e-05
-1.08034e-07
1.09152e-05
-9.42084e-08
1.10668e-05
-4.86029e-08
1.12313e-05
3.04943e-08
1.14227e-05
1.4812e-07
1.16349e-05
3.10634e-07
1.18748e-05
5.37605e-07
1.2129e-05
8.28046e-07
1.24074e-05
1.21133e-06
1.26954e-05
1.69573e-06
1.29915e-05
2.30166e-06
1.3296e-05
3.07095e-06
1.35917e-05
4.02536e-06
1.3864e-05
5.20469e-06
1.40554e-05
6.65202e-06
1.40711e-05
1.38558e-05
8.42324e-06
6.61404e-07
1.75539e-05
2.84047e-07
7.93673e-06
1.43001e-07
1.015e-05
8.64009e-08
1.06142e-05
3.51181e-08
1.06111e-05
1.16564e-08
1.07162e-05
-2.10262e-10
1.07951e-05
1.3171e-08
1.09017e-05
5.8667e-08
1.10213e-05
1.38047e-07
1.11519e-05
2.58388e-07
1.13024e-05
4.26731e-07
1.14667e-05
6.51408e-07
1.16502e-05
9.39602e-07
1.18409e-05
1.31254e-06
1.20345e-05
1.77605e-06
1.22318e-05
2.35533e-06
1.24122e-05
3.07043e-06
1.2581e-05
3.94819e-06
1.2714e-05
5.02762e-06
1.27847e-05
6.33941e-06
1.27437e-05
7.91009e-06
1.25003e-05
1.1968e-05
9.79781e-06
7.58766e-07
1.67951e-05
3.14629e-07
8.38079e-06
1.49782e-07
1.03147e-05
9.20314e-08
1.06719e-05
3.46024e-08
1.06685e-05
1.07178e-08
1.074e-05
-5.0129e-09
1.08107e-05
1.21092e-08
1.08845e-05
6.43099e-08
1.0969e-05
1.5239e-07
1.10638e-05
2.84028e-07
1.11707e-05
4.69242e-07
1.12814e-05
7.16348e-07
1.14031e-05
1.03678e-06
1.15204e-05
1.44097e-06
1.16303e-05
1.94966e-06
1.17231e-05
2.5735e-06
1.17884e-05
3.34277e-06
1.18117e-05
4.28169e-06
1.17751e-05
5.42366e-06
1.16427e-05
6.79893e-06
1.13684e-05
8.42672e-06
1.08725e-05
1.00647e-05
1.033e-05
8.30109e-07
1.59649e-05
3.28083e-07
8.88282e-06
1.33659e-07
1.05091e-05
6.34281e-08
1.07421e-05
-1.39729e-08
1.07459e-05
-5.90314e-08
1.0785e-05
-8.06595e-08
1.08323e-05
-7.65168e-08
1.08803e-05
-3.99079e-08
1.09324e-05
3.59423e-08
1.09879e-05
1.57141e-07
1.10495e-05
3.26934e-07
1.11116e-05
5.57214e-07
1.11728e-05
8.57349e-07
1.12203e-05
1.24366e-06
1.12439e-05
1.73131e-06
1.12353e-05
2.33803e-06
1.11816e-05
3.08319e-06
1.10665e-05
3.99629e-06
1.0862e-05
5.09736e-06
1.05416e-05
6.41452e-06
1.00513e-05
7.95422e-06
9.33282e-06
8.2892e-06
9.72968e-06
8.73762e-07
1.50911e-05
3.21007e-07
9.43562e-06
1.04125e-07
1.0726e-05
2.42229e-08
1.0822e-05
-7.06246e-08
1.08408e-05
-1.36553e-07
1.08509e-05
-1.79116e-07
1.08748e-05
-1.95832e-07
1.08968e-05
-1.80856e-07
1.09173e-05
-1.32554e-07
1.09397e-05
-4.77609e-08
1.09648e-05
8.40937e-08
1.09798e-05
2.70502e-07
1.09863e-05
5.21699e-07
1.0969e-05
8.51405e-07
1.09141e-05
1.27117e-06
1.08154e-05
1.79734e-06
1.06556e-05
2.44994e-06
1.0414e-05
3.24491e-06
1.0067e-05
4.20311e-06
9.58347e-06
5.33327e-06
8.92119e-06
6.63352e-06
8.03252e-06
6.82512e-06