/*--------------------------------*- C++ -*----------------------------------*\
| =========                 |                                                 |
| \\      /  F ield         | OpenFOAM: The Open Source CFD Toolbox           |
|  \\    /   O peration     | Version:  2206                                  |
|   \\  /    A nd           | Website:  www.openfoam.com                      |
|    \\/     M anipulation  |                                                 |
\*---------------------------------------------------------------------------*/
FoamFile
{
    version     2.0;
    format      ascii;
    arch        "LSB;label=32;scalar=64";
    class       volVectorField;
    location    "0.575";
    object      U;
}
// * * * * * * * * * * * * * * * * * * * * * * * * * * * * * * * * * * * * * //

dimensions      [0 1 -1 0 0 0 0];

internalField   nonuniform List<vector> 
2268
(
(-0.0237852 0.00900347 0)
(-0.0578305 0.007199 0)
(-0.0712815 0.000185743 0)
(-0.0567559 -0.00479131 0)
(-0.0284517 -0.00876706 0)
(0.0157548 -0.0115612 0)
(0.0665923 -0.0117003 0)
(0.112574 -0.00937386 0)
(0.146259 -0.00587499 0)
(0.164671 -0.00252781 0)
(0.170026 0.000542783 0)
(0.163555 0.00314077 0)
(0.148624 0.00534914 0)
(0.127055 0.00749727 0)
(0.0986548 0.0102689 0)
(0.0609527 0.0141415 0)
(0.00944687 0.0180783 0)
(-0.0576339 0.0143074 0)
(-0.104407 0.00317824 0)
(-0.140271 0.0144497 0)
(-0.25684 0.0188259 0)
(-0.257504 -0.0193266 0)
(-0.0920331 -0.0559544 0)
(-0.0344847 0.0281755 0)
(-0.0584681 0.0172781 0)
(-0.0638708 -0.00189932 0)
(-0.0501188 -0.0147416 0)
(-0.0245685 -0.0260895 0)
(0.0177786 -0.0345388 0)
(0.0684912 -0.0353545 0)
(0.114708 -0.0284824 0)
(0.148153 -0.0180267 0)
(0.166288 -0.00807886 0)
(0.17139 -2.27595e-06 0)
(0.169657 0.00618067 0)
(0.163301 0.01095 0)
(0.15368 0.0151856 0)
(0.141552 0.0202599 0)
(0.126315 0.0277308 0)
(0.102207 0.0383101 0)
(0.056622 0.0457146 0)
(-0.0188602 0.0403449 0)
(-0.105802 0.0460789 0)
(-0.2222 0.0367407 0)
(-0.176557 -0.0498937 0)
(-0.0528158 -0.138441 0)
(-0.0301471 0.0466055 0)
(-0.0424622 0.024215 0)
(-0.0491225 -0.00441421 0)
(-0.0396375 -0.022436 0)
(-0.0212042 -0.0408126 0)
(0.0169829 -0.056079 0)
(0.0666165 -0.0588303 0)
(0.112918 -0.0473433 0)
(0.14583 -0.0295679 0)
(0.162562 -0.0129912 0)
(0.166559 -0.000466897 0)
(0.162454 0.00836173 0)
(0.153691 0.0146061 0)
(0.142581 0.0195039 0)
(0.131006 0.0246992 0)
(0.121772 0.0325637 0)
(0.116528 0.0457895 0)
(0.113958 0.0632342 0)
(0.0815113 0.0745058 0)
(0.0355539 0.085483 0)
(-0.0739353 0.0585426 0)
(-0.0732116 -0.0725013 0)
(0.003793 -0.179922 0)
(-0.0206709 0.0595116 0)
(-0.0215917 0.0292075 0)
(-0.025759 -0.00526555 0)
(-0.0215061 -0.0269115 0)
(-0.00766364 -0.0530686 0)
(0.0261447 -0.076991 0)
(0.0701639 -0.0823877 0)
(0.111828 -0.0660859 0)
(0.141541 -0.0405267 0)
(0.156193 -0.0172712 0)
(0.159018 -0.000156098 0)
(0.154602 0.0115681 0)
(0.146146 0.0195528 0)
(0.135587 0.0252251 0)
(0.124321 0.0302122 0)
(0.114382 0.0364476 0)
(0.108341 0.0461148 0)
(0.115931 0.0635264 0)
(0.124269 0.0839655 0)
(0.133907 0.107905 0)
(0.0894104 0.0870642 0)
(0.0706279 -0.0529478 0)
(0.0592728 -0.168289 0)
(-0.00848416 0.0650965 0)
(0.00766955 0.0278234 0)
(0.0106868 -0.00630294 0)
(0.0181469 -0.0314734 0)
(0.0376007 -0.0648766 0)
(0.0673897 -0.0954732 0)
(0.0963417 -0.101972 0)
(0.121593 -0.0813542 0)
(0.139686 -0.0493034 0)
(0.148291 -0.0203315 0)
(0.149227 0.000569538 0)
(0.145075 0.014606 0)
(0.1379 0.0238801 0)
(0.129302 0.0300811 0)
(0.120431 0.0350358 0)
(0.11241 0.04027 0)
(0.106537 0.0465415 0)
(0.109315 0.0577509 0)
(0.125397 0.0741992 0)
(0.162613 0.099701 0)
(0.179502 0.0934805 0)
(0.157407 -0.0269756 0)
(0.101534 -0.123573 0)
(0.00487829 0.0595562 0)
(0.0455471 0.021796 0)
(0.0668076 -0.0110838 0)
(0.0920959 -0.0378019 0)
(0.126168 -0.0742418 0)
(0.14865 -0.105131 0)
(0.151682 -0.109785 0)
(0.148973 -0.0864011 0)
(0.146608 -0.0518786 0)
(0.14317 -0.0209772 0)
(0.139144 0.00161497 0)
(0.134696 0.0169816 0)
(0.129139 0.0268445 0)
(0.122873 0.0332175 0)
(0.116682 0.0381577 0)
(0.11122 0.0429184 0)
(0.107826 0.0475772 0)
(0.109536 0.0541235 0)
(0.119791 0.0619549 0)
(0.150538 0.077506 0)
(0.195184 0.079964 0)
(0.181598 0.00159994 0)
(0.123038 -0.062666 0)
(0.0196124 0.0399486 0)
(0.0867006 0.00036579 0)
(0.143328 -0.0237292 0)
(0.20198 -0.0477375 0)
(0.244568 -0.0804474 0)
(0.246241 -0.102718 0)
(0.216085 -0.101956 0)
(0.184719 -0.0776123 0)
(0.16253 -0.0444203 0)
(0.146096 -0.0164616 0)
(0.134189 0.00465368 0)
(0.12643 0.0205542 0)
(0.120916 0.0311765 0)
(0.116754 0.0371431 0)
(0.113359 0.0411823 0)
(0.110296 0.0444916 0)
(0.108961 0.0467925 0)
(0.112151 0.0503789 0)
(0.120314 0.0539131 0)
(0.13551 0.0592352 0)
(0.176006 0.0647852 0)
(0.174133 0.0237596 0)
(0.138859 -0.00492318 0)
(0.0328052 0.00608497 0)
(0.132119 -0.032563 0)
(0.238657 -0.0654698 0)
(0.325399 -0.0849311 0)
(0.341373 -0.0943846 0)
(0.303793 -0.0937653 0)
(0.246343 -0.0843884 0)
(0.202578 -0.0617537 0)
(0.174726 -0.0310844 0)
(0.15501 -0.00573625 0)
(0.140136 0.0103821 0)
(0.128366 0.0216288 0)
(0.118768 0.0289153 0)
(0.112515 0.0340313 0)
(0.109504 0.0400931 0)
(0.107822 0.0456946 0)
(0.108477 0.0480997 0)
(0.113924 0.0495099 0)
(0.123871 0.0508768 0)
(0.13302 0.0497081 0)
(0.155785 0.0546129 0)
(0.160535 0.0430537 0)
(0.131546 0.0808135 0)
(0.536866 -0.726642 0)
(1.41993 -0.204411 0)
(1.02644 0.15682 0)
(-0.544542 0.276521 0)
(-1.41248 0.172004 0)
(-2.01927 0.0858459 0)
(-2.10413 0.0617527 0)
(-2.05529 0.053107 0)
(-1.99968 0.0496542 0)
(-1.9443 0.0480777 0)
(-1.89471 0.0519612 0)
(-1.85257 0.0609345 0)
(-1.81329 0.0673721 0)
(-1.76988 0.0619032 0)
(-1.70201 0.0459691 0)
(-1.53397 0.00878303 0)
(-1.14492 -0.0921205 0)
(-0.539714 -0.17595 0)
(0.107403 -0.00230065 0)
(0.0536882 -1.08361 0)
(0.569158 0.207288 0)
(-0.785903 0.690633 0)
(-1.83423 0.729795 0)
(-2.6277 0.463839 0)
(-2.94883 0.145595 0)
(-2.69912 -0.0808998 0)
(-2.62718 -0.122718 0)
(-2.54361 -0.113629 0)
(-2.45514 -0.10905 0)
(-2.36918 -0.107256 0)
(-2.28599 -0.111654 0)
(-2.20939 -0.130946 0)
(-2.13726 -0.170695 0)
(-2.05653 -0.216934 0)
(-1.87039 -0.283776 0)
(-1.4434 -0.446414 0)
(-0.785422 -0.584119 0)
(-0.157346 -0.152927 0)
(-0.263759 -0.613872 0)
(-0.890008 0.707309 0)
(-1.71602 1.17156 0)
(-2.36416 1.17696 0)
(-2.63428 0.775932 0)
(-2.41393 0.185132 0)
(-1.71658 -0.12034 0)
(-2.29408 -1.50775e-05 0)
(-2.68224 0.0355589 0)
(-3.33316 0.0772796 0)
(-3.77219 0.0562932 0)
(-3.59869 0.0175995 0)
(-2.82315 -0.0256291 0)
(-2.08846 -0.100067 0)
(-2.21501 -0.141241 0)
(-2.22121 -0.320133 0)
(-1.64187 -0.810801 0)
(-0.884933 -1.06762 0)
(-0.263598 -0.437105 0)
(-0.426839 0.0536231 0)
(-1.20729 0.970503 0)
(-1.56133 1.39834 0)
(-1.19424 1.36343 0)
(-0.974862 0.932853 0)
(0.348936 0.109586 0)
(-1.02715 -0.0519702 0)
(-1.3947 0.142522 0)
(-1.91668 0.270107 0)
(-2.57032 0.268808 0)
(-2.89512 -0.0571041 0)
(-2.50283 -0.396402 0)
(-1.41415 -0.564309 0)
(-0.264226 -0.519275 0)
(-0.692903 0.0737648 0)
(-1.52405 -0.223779 0)
(-1.42656 -1.01103 0)
(-0.838953 -1.50787 0)
(-0.255619 -0.777017 0)
(0.529926 -0.436023 0)
(-0.803651 1.13874 0)
(-0.978501 1.25356 0)
(0.819947 0.76591 0)
(0.790009 0.720376 0)
(1.36778 0.389532 0)
(0.726795 0.249764 0)
(0.0266909 0.424033 0)
(-0.613607 0.621334 0)
(-1.32441 0.60781 0)
(-1.43046 0.0180395 0)
(-0.798393 -0.811697 0)
(0.368104 -1.22726 0)
(0.83848 -0.946383 0)
(1.23504 -0.232632 0)
(1.05556 0.726562 0)
(-0.717854 -0.66602 0)
(-0.697585 -1.76867 0)
(-0.192456 -1.10245 0)
(-0.918511 -0.18365 0)
(0.504353 1.32426 0)
(0.549439 0.938788 0)
(2.37106 0.520045 0)
(2.70766 0.585469 0)
(2.62723 0.601406 0)
(2.02845 0.590745 0)
(1.24501 0.63697 0)
(0.638451 0.808951 0)
(-0.0798943 0.8408 0)
(0.02204 -0.212521 0)
(0.882329 -1.12773 0)
(1.01876 -1.41572 0)
(1.1266 -1.05881 0)
(1.20315 -0.474805 0)
(1.62529 0.373046 0)
(0.524333 0.594892 0)
(-0.515644 -1.73602 0)
(-0.131262 -1.36318 0)
(-0.974628 0.239962 0)
(0.667439 0.309163 0)
(1.20879 0.0499972 0)
(2.06553 0.0309385 0)
(2.9369 0.239536 0)
(3.42294 0.59246 0)
(3.43683 0.941328 0)
(2.99053 1.15074 0)
(2.3188 1.25212 0)
(1.21614 0.949986 0)
(1.41479 -0.470759 0)
(1.61957 -1.31694 0)
(1.21088 -1.37253 0)
(1.15495 -1.05988 0)
(1.13009 -0.508127 0)
(1.29505 0.297838 0)
(0.563909 1.03094 0)
(-0.324695 -1.5507 0)
(-0.0919813 -1.53882 0)
(0.217684 0.00642488 0)
(0.615452 -0.0561308 0)
(0.902308 -0.111826 0)
(1.00424 -0.127805 0)
(1.33578 -0.0149668 0)
(1.81012 0.198494 0)
(2.50223 0.611229 0)
(3.02526 1.05334 0)
(3.26428 1.50871 0)
(2.85368 1.45752 0)
(2.66991 0.130121 0)
(1.75659 -1.1006 0)
(1.20412 -1.22179 0)
(1.07611 -1.02847 0)
(0.782249 -0.479896 0)
(0.26055 0.914555 0)
(-0.0441261 1.17104 0)
(-0.181775 -1.4854 0)
(-0.0620076 -1.64589 0)
(0.0497954 -0.061567 0)
(0.195483 -0.143265 0)
(0.30603 -0.157317 0)
(0.306747 -0.128052 0)
(0.268045 -0.0898512 0)
(0.21252 -0.0657933 0)
(0.167693 -0.0584127 0)
(0.14266 -0.048755 0)
(0.135146 -0.0284335 0)
(0.136147 -0.0027438 0)
(0.13746 0.0216083 0)
(0.136218 0.041517 0)
(0.131247 0.0527847 0)
(0.126362 0.0520902 0)
(0.121204 0.049186 0)
(0.114051 0.0443393 0)
(0.109797 0.0372338 0)
(0.113654 0.0350218 0)
(0.123469 0.038852 0)
(0.136594 0.0400275 0)
(0.151118 0.0445369 0)
(0.183918 0.037348 0)
(0.201989 0.107217 0)
(0.084984 -0.214413 0)
(0.178946 -0.304722 0)
(0.0717918 -0.0711861 0)
(-0.414888 0.0385689 0)
(-0.167794 0.00660862 0)
(-0.107861 -0.00614968 0)
(-0.10079 -0.0214881 0)
(-0.106727 -0.0254255 0)
(-0.0774466 -0.0224529 0)
(-0.0260428 -0.0141227 0)
(0.0161607 -0.00266164 0)
(0.073405 0.0125271 0)
(0.122218 0.0195199 0)
(0.146207 0.0273866 0)
(0.145045 0.0475491 0)
(0.126728 0.0634727 0)
(0.112164 0.0547257 0)
(0.115569 0.0413134 0)
(0.125449 0.0333196 0)
(0.137715 0.0236937 0)
(0.153769 0.0213047 0)
(0.175658 0.0084967 0)
(0.209083 0.0379131 0)
(0.00296512 -0.359721 0)
(-0.135795 -0.13682 0)
(-0.243994 0.42828 0)
(-0.291016 0.071262 0)
(-0.317732 -0.314962 0)
(-0.472045 -0.104303 0)
(-0.586286 -0.0289103 0)
(-0.690543 -0.0362721 0)
(-0.777504 -0.0741256 0)
(-0.81848 -0.0946713 0)
(-0.723097 -0.0958868 0)
(-0.471108 -0.0663933 0)
(-0.202475 -0.0054328 0)
(-0.0742997 0.0281083 0)
(0.0242003 0.0610322 0)
(0.0661529 0.0703172 0)
(0.116042 0.0412485 0)
(0.152868 0.0240732 0)
(0.155275 0.0255522 0)
(0.144803 0.0111833 0)
(0.150481 -0.00606168 0)
(0.16111 -0.0179729 0)
(0.183212 -0.0202568 0)
(-0.126399 -0.122111 0)
(-0.20748 0.0582277 0)
(-0.205661 0.242102 0)
(-0.105099 0.0951884 0)
(-0.0684545 0.0269531 0)
(-0.194712 0.128735 0)
(-0.215521 0.142417 0)
(-0.210388 0.104632 0)
(-0.233616 0.042061 0)
(-0.305067 -0.069741 0)
(-0.461664 -0.223275 0)
(-0.654242 -0.402649 0)
(-0.78043 -0.343466 0)
(-0.699317 -0.164144 0)
(-0.494491 -0.0693058 0)
(-0.326082 -0.0262728 0)
(-0.229039 -0.0352692 0)
(-0.0769707 0.00974767 0)
(0.0194723 0.043609 0)
(0.0922138 0.0275444 0)
(0.16274 0.00734191 0)
(0.195579 -0.00371279 0)
(0.201037 -0.0255161 0)
(-0.108355 -0.0260268 0)
(-0.0912836 -0.0390571 0)
(-0.0583564 0.0996605 0)
(0.043203 0.00594554 0)
(-0.0230629 -0.0325319 0)
(-0.0347401 0.0528408 0)
(-0.00917828 0.0687965 0)
(0.0129977 0.0492692 0)
(0.0328042 0.0594241 0)
(0.0536192 0.106333 0)
(0.0466088 0.1959 0)
(-0.124568 0.095542 0)
(-0.301383 -0.137345 0)
(-0.363498 -0.223959 0)
(-0.36339 -0.302537 0)
(-0.421257 -0.22234 0)
(-0.470085 -0.177181 0)
(-0.469393 -0.209847 0)
(-0.375203 -0.164985 0)
(-0.304405 -0.147583 0)
(-0.141679 -0.0983507 0)
(-0.0682887 -0.0445609 0)
(-0.0320847 -0.0535069 0)
(-0.0456657 0.0620391 0)
(-0.0332893 0.012271 0)
(-0.0251492 0.0781789 0)
(0.0130313 0.0417638 0)
(-0.0311417 0.0481199 0)
(-0.0358111 0.0662967 0)
(-0.0253813 0.0608207 0)
(-0.0325417 0.0368498 0)
(-0.0404368 -0.00665513 0)
(-0.0324656 -0.042917 0)
(0.0237302 -0.0213813 0)
(0.0744879 0.00758129 0)
(0.0355409 0.0163853 0)
(-0.0686123 -0.031197 0)
(-0.0603157 -0.108141 0)
(-0.0778852 -0.0728033 0)
(-0.0663039 -0.036546 0)
(-0.0985017 -0.0327924 0)
(-0.112103 -0.145544 0)
(-0.305249 -0.136086 0)
(-0.449524 -0.204029 0)
(-0.529921 -0.112149 0)
(-0.560919 -0.130564 0)
(-0.0281657 0.0676364 0)
(-0.0242309 -0.016709 0)
(-0.0196331 0.0446415 0)
(-0.000197447 0.038109 0)
(-0.0161684 0.0450179 0)
(-0.0163623 0.0629021 0)
(-0.0108567 0.0690631 0)
(-0.00810587 0.0605529 0)
(-0.0123355 0.0424276 0)
(-0.0287924 0.0272705 0)
(-0.0417128 0.0371347 0)
(-0.0257179 0.0418815 0)
(-0.011625 0.0155552 0)
(-0.00139016 -0.114956 0)
(-0.0109071 -0.19374 0)
(-0.0497576 -0.17984 0)
(-0.0323455 -0.114888 0)
(0.00699312 -0.066806 0)
(0.0368214 -0.0380739 0)
(0.119324 0.0674386 0)
(0.159997 0.0739805 0)
(0.288921 0.0810198 0)
(0.160125 0.000913212 0)
(-0.0179765 0.09499 0)
(-0.0173887 -0.00694351 0)
(-0.0162072 0.0402689 0)
(-0.00753564 0.0422772 0)
(-0.0109772 0.0471455 0)
(-0.00759476 0.056675 0)
(-0.00410838 0.0615458 0)
(-0.00506274 0.0525326 0)
(-0.0131566 0.0269817 0)
(-0.022719 -0.00185832 0)
(-0.0213926 -0.0157589 0)
(-0.00327931 -0.00945268 0)
(0.0293304 -0.00248341 0)
(0.0525854 -0.0560568 0)
(0.0298995 -0.0991141 0)
(-0.00086603 -0.101633 0)
(-0.0102647 -0.101058 0)
(0.0100864 -0.118866 0)
(0.0307819 -0.197692 0)
(0.1206 -0.232645 0)
(0.263459 -0.244797 0)
(0.440482 -0.129365 0)
(0.584583 0.113814 0)
(-0.0108672 0.110162 0)
(-0.0124408 -0.00782431 0)
(-0.0119142 0.0303511 0)
(-0.00518755 0.0413005 0)
(-0.00532123 0.0463686 0)
(-0.000613554 0.0529661 0)
(0.00620457 0.0591672 0)
(0.0128469 0.0587846 0)
(0.0149596 0.0476915 0)
(0.00936033 0.028344 0)
(0.00186447 0.00509009 0)
(0.003421 -0.0186764 0)
(0.0254014 -0.0443747 0)
(0.0396508 -0.0879224 0)
(0.0323819 -0.115225 0)
(0.0230203 -0.122726 0)
(0.0213012 -0.121569 0)
(0.0467935 -0.130668 0)
(0.0846008 -0.190733 0)
(0.130856 -0.265399 0)
(0.223969 -0.311709 0)
(0.29014 -0.269931 0)
(0.430106 -0.0429568 0)
(-0.00493208 0.119121 0)
(-0.00665419 -0.00614005 0)
(-0.00766794 0.0271771 0)
(-0.00297734 0.0389617 0)
(-0.00123193 0.0425203 0)
(0.00364661 0.0463292 0)
(0.011109 0.0504764 0)
(0.0201416 0.0503719 0)
(0.0270134 0.0402724 0)
(0.0299159 0.0203641 0)
(0.0313625 -0.00257452 0)
(0.0318488 -0.0251344 0)
(0.0358742 -0.0461152 0)
(0.0364137 -0.072868 0)
(0.0277973 -0.0943319 0)
(0.0182 -0.107338 0)
(0.013082 -0.125419 0)
(0.0293945 -0.166139 0)
(0.0557525 -0.241567 0)
(0.0716131 -0.334641 0)
(0.0997182 -0.392767 0)
(0.109318 -0.340363 0)
(0.164852 -0.103955 0)
(-0.000595807 0.122531 0)
(-0.00278197 -0.00448686 0)
(-0.0042296 0.0250151 0)
(-0.0010305 0.0368401 0)
(0.000864265 0.039033 0)
(0.00508938 0.0403635 0)
(0.0114339 0.0417079 0)
(0.0201295 0.040612 0)
(0.0289705 0.0335037 0)
(0.0350159 0.0190588 0)
(0.0376444 -0.000792229 0)
(0.0366227 -0.0235427 0)
(0.0333318 -0.0455557 0)
(0.0268368 -0.0684829 0)
(0.015867 -0.0870315 0)
(0.00610792 -0.10268 0)
(0.000595837 -0.127487 0)
(0.00206607 -0.173283 0)
(0.0014149 -0.240997 0)
(-0.0113659 -0.316374 0)
(-0.0536374 -0.367408 0)
(-0.111185 -0.315748 0)
(-0.137084 -0.11335 0)
(0.00202532 0.122511 0)
(-0.000235382 -0.00252068 0)
(-0.00202566 0.0239724 0)
(7.77056e-05 0.0350199 0)
(0.00156606 0.0361958 0)
(0.00468749 0.0358641 0)
(0.00910134 0.0349901 0)
(0.0153281 0.0323045 0)
(0.0222096 0.0258169 0)
(0.0274418 0.0140134 0)
(0.0292486 -0.00198408 0)
(0.026619 -0.0202476 0)
(0.0205375 -0.0384304 0)
(0.0109527 -0.0569874 0)
(-0.00101931 -0.0749549 0)
(-0.0120268 -0.0934936 0)
(-0.0217262 -0.119896 0)
(-0.0348194 -0.162585 0)
(-0.058694 -0.221164 0)
(-0.0976149 -0.278311 0)
(-0.17127 -0.31004 0)
(-0.262004 -0.255905 0)
(-0.297918 -0.0863715 0)
(0.00323355 0.120396 0)
(0.00117507 -0.000185466 0)
(-0.000777375 0.023853 0)
(0.000434929 0.0338101 0)
(0.00132542 0.0342031 0)
(0.00329805 0.0329519 0)
(0.00583753 0.0308752 0)
(0.00925339 0.0272153 0)
(0.0129704 0.0210746 0)
(0.0155452 0.0116459 0)
(0.0153563 -0.000801316 0)
(0.0114164 -0.0151642 0)
(0.00423558 -0.030115 0)
(-0.00576827 -0.0460418 0)
(-0.0178689 -0.0628569 0)
(-0.0312288 -0.0811355 0)
(-0.0463341 -0.103887 0)
(-0.0683919 -0.135807 0)
(-0.104451 -0.178111 0)
(-0.15755 -0.220011 0)
(-0.233338 -0.240408 0)
(-0.317174 -0.202809 0)
(-0.352778 -0.0802056 0)
(0.00337329 0.117751 0)
(0.00164873 0.00164267 0)
(-0.00024476 0.0242958 0)
(0.000160347 0.0332416 0)
(0.000461458 0.033088 0)
(0.00141935 0.031416 0)
(0.00249653 0.0289584 0)
(0.00373111 0.025132 0)
(0.00475237 0.0195222 0)
(0.00475891 0.0118451 0)
(0.00271543 0.00217772 0)
(-0.00210528 -0.0090825 0)
(-0.0095933 -0.0213234 0)
(-0.0196366 -0.0345913 0)
(-0.0325531 -0.0488843 0)
(-0.0484808 -0.0645736 0)
(-0.0681636 -0.0818073 0)
(-0.0948193 -0.102509 0)
(-0.134389 -0.129 0)
(-0.193305 -0.155534 0)
(-0.27278 -0.164886 0)
(-0.357811 -0.131283 0)
(-0.414688 -0.0362423 0)
(0.00303484 0.115283 0)
(0.00158198 0.00326326 0)
(-0.000321525 0.0251287 0)
(-0.000526821 0.0332691 0)
(-0.000755264 0.0327491 0)
(-0.000650192 0.030947 0)
(-0.000616077 0.0285395 0)
(-0.000801022 0.0250317 0)
(-0.00153414 0.0201907 0)
(-0.0032646 0.0139316 0)
(-0.00658033 0.00631284 0)
(-0.0119686 -0.00250714 0)
(-0.0196926 -0.0122062 0)
(-0.0299765 -0.0226451 0)
(-0.0432535 -0.0336681 0)
(-0.0602779 -0.0452605 0)
(-0.0818987 -0.057111 0)
(-0.109055 -0.0690131 0)
(-0.145405 -0.0811271 0)
(-0.198847 -0.0904387 0)
(-0.272254 -0.0853732 0)
(-0.350167 -0.0499825 0)
(-0.407816 0.0192528 0)
(0.00258332 0.113217 0)
(0.00122387 0.00479013 0)
(-0.000758178 0.0262871 0)
(-0.00141629 0.0337977 0)
(-0.0021126 0.033055 0)
(-0.00269065 0.0313034 0)
(-0.00344409 0.0291177 0)
(-0.00454529 0.0261139 0)
(-0.00630171 0.0221242 0)
(-0.00904408 0.0171197 0)
(-0.0131379 0.0111555 0)
(-0.0189616 0.00439004 0)
(-0.0268756 -0.00299096 0)
(-0.037174 -0.0107199 0)
(-0.0502224 -0.0184628 0)
(-0.0665665 -0.0259565 0)
(-0.0870578 -0.0329643 0)
(-0.112685 -0.0385678 0)
(-0.144893 -0.0408489 0)
(-0.186278 -0.0376 0)
(-0.237311 -0.0246004 0)
(-0.290636 0.00560852 0)
(-0.335031 0.0554135 0)
(0.00216077 0.111598 0)
(0.000746623 0.00639691 0)
(-0.00138147 0.0277091 0)
(-0.00235796 0.034716 0)
(-0.00345741 0.0339002 0)
(-0.00457299 0.0323005 0)
(-0.00593642 0.0304133 0)
(-0.00768643 0.0279466 0)
(-0.010083 0.0247812 0)
(-0.0134149 0.0209172 0)
(-0.0179598 0.0164224 0)
(-0.0240435 0.0114529 0)
(-0.0319788 0.00618447 0)
(-0.0420614 0.000901639 0)
(-0.0546099 -0.00407059 0)
(-0.0699713 -0.00822611 0)
(-0.0886596 -0.0108179 0)
(-0.111361 -0.0109842 0)
(-0.138732 -0.00774832 0)
(-0.170839 0.00113843 0)
(-0.206537 0.0198124 0)
(-0.242508 0.0509818 0)
(-0.272277 0.0915732 0)
(0.00180606 0.110389 0)
(0.0002727 0.00816067 0)
(-0.00204799 0.0293699 0)
(-0.00325469 0.0359531 0)
(-0.00468173 0.0351721 0)
(-0.00619797 0.0337963 0)
(-0.00801783 0.0322511 0)
(-0.0102408 0.0303092 0)
(-0.0130678 0.0279075 0)
(-0.0167419 0.0250729 0)
(-0.0214948 0.0218913 0)
(-0.0276002 0.0184951 0)
(-0.0352965 0.0150929 0)
(-0.0448274 0.0119626 0)
(-0.0564632 0.00946628 0)
(-0.0704513 0.00807448 0)
(-0.0870189 0.00842781 0)
(-0.106338 0.0114585 0)
(-0.12859 0.0182943 0)
(-0.15373 0.030114 0)
(-0.180158 0.0484824 0)
(-0.204675 0.0749881 0)
(-0.223802 0.109432 0)
(0.00153603 0.109541 0)
(-0.000136096 0.010139 0)
(-0.00266811 0.0312216 0)
(-0.00403699 0.0374404 0)
(-0.00571598 0.0367624 0)
(-0.00751331 0.0356525 0)
(-0.009641 0.0344688 0)
(-0.0121695 0.0330333 0)
(-0.0152585 0.0313257 0)
(-0.0190886 0.0293929 0)
(-0.0238491 0.027339 0)
(-0.0297518 0.025289 0)
(-0.036975 0.0234571 0)
(-0.045706 0.0220916 0)
(-0.056108 0.0215443 0)
(-0.0682962 0.0222934 0)
(-0.0823616 0.0249827 0)
(-0.098322 0.0304007 0)
(-0.116086 0.0393452 0)
(-0.135099 0.0525693 0)
(-0.154275 0.0708826 0)
(-0.171771 0.0944426 0)
(-0.184884 0.122907 0)
(0.00134642 0.108992 0)
(-0.000469235 0.0123312 0)
(-0.00319831 0.0332153 0)
(-0.0046644 0.0391094 0)
(-0.00652379 0.0385712 0)
(-0.00849854 0.0377411 0)
(-0.0108054 0.036917 0)
(-0.0134871 0.0359539 0)
(-0.0166786 0.0348601 0)
(-0.0205061 0.0337024 0)
(-0.0251131 0.0325867 0)
(-0.0306543 0.0316529 0)
(-0.0372582 0.0310886 0)
(-0.0450585 0.0311238 0)
(-0.0541508 0.0320847 0)
(-0.0645747 0.0343872 0)
(-0.076306 0.0385755 0)
(-0.0892177 0.0452996 0)
(-0.103058 0.0551776 0)
(-0.117253 0.0686829 0)
(-0.130888 0.0859216 0)
(-0.142795 0.106794 0)
(-0.151274 0.131061 0)
(0.00122874 0.108662 0)
(-0.000721011 0.0147119 0)
(-0.00361448 0.0353071 0)
(-0.00511792 0.0408958 0)
(-0.00709355 0.0405149 0)
(-0.00915711 0.0399578 0)
(-0.0115382 0.0394691 0)
(-0.0142549 0.0389291 0)
(-0.0174145 0.0383625 0)
(-0.0211119 0.0378559 0)
(-0.025444 0.0375088 0)
(-0.0305201 0.0374674 0)
(-0.0364292 0.037897 0)
(-0.0432449 0.0390049 0)
(-0.0510125 0.0410724 0)
(-0.0597096 0.0444705 0)
(-0.0692346 0.0496453 0)
(-0.0794109 0.0571245 0)
(-0.0899276 0.0673392 0)
(-0.100244 0.0805328 0)
(-0.109637 0.0965413 0)
(-0.117311 0.114943 0)
(-0.122096 0.13547 0)
(0.00117003 0.108476 0)
(-0.000896357 0.0172482 0)
(-0.00390271 0.0374535 0)
(-0.00539386 0.0427427 0)
(-0.00742598 0.0425205 0)
(-0.00950605 0.0422172 0)
(-0.0118781 0.0420259 0)
(-0.0145403 0.0418508 0)
(-0.0175706 0.041729 0)
(-0.0210387 0.0417498 0)
(-0.0250127 0.0420163 0)
(-0.0295607 0.0426639 0)
(-0.0347375 0.0438467 0)
(-0.040576 0.0457433 0)
(-0.0470614 0.0485915 0)
(-0.0541461 0.0526829 0)
(-0.0616913 0.0583956 0)
(-0.0695005 0.0661177 0)
(-0.0772606 0.0761905 0)
(-0.084477 0.0886885 0)
(-0.0905535 0.103314 0)
(-0.0949575 0.119487 0)
(-0.0968797 0.136816 0)
(0.00115049 0.108376 0)
(-0.00100359 0.0198886 0)
(-0.00405214 0.0396091 0)
(-0.00549141 0.0445995 0)
(-0.0075289 0.0445242 0)
(-0.00956683 0.0444466 0)
(-0.0118646 0.0445096 0)
(-0.0144008 0.0446388 0)
(-0.0172352 0.0448795 0)
(-0.0204131 0.0453159 0)
(-0.0239748 0.0460524 0)
(-0.0279602 0.0472152 0)
(-0.0323965 0.0489364 0)
(-0.0372773 0.0513717 0)
(-0.0425806 0.0547137 0)
(-0.0482184 0.0591825 0)
(-0.054041 0.0650986 0)
(-0.059839 0.0727638 0)
(-0.0653067 0.0824154 0)
(-0.0700402 0.0940228 0)
(-0.0735604 0.1072 0)
(-0.0754809 0.1213 0)
(-0.0752523 0.135845 0)
(0.00114535 0.108314 0)
(-0.0010425 0.022565 0)
(-0.00404951 0.0417256 0)
(-0.00541028 0.0464234 0)
(-0.007407 0.0464785 0)
(-0.00935485 0.0465911 0)
(-0.0115299 0.0468625 0)
(-0.0138911 0.0472358 0)
(-0.0164843 0.047758 0)
(-0.0193347 0.0485122 0)
(-0.0224603 0.0495951 0)
(-0.0258836 0.0511161 0)
(-0.0296089 0.0532038 0)
(-0.0336023 0.05597 0)
(-0.0378244 0.0595711 0)
(-0.0421749 0.0642045 0)
(-0.0464862 0.0700731 0)
(-0.0505804 0.0774512 0)
(-0.0541907 0.0865084 0)
(-0.0569706 0.0971498 0)
(-0.0585247 0.108902 0)
(-0.0585821 0.121104 0)
(-0.0567947 0.133245 0)
(0.00113165 0.108256 0)
(-0.00100381 0.0251918 0)
(-0.00388362 0.0437546 0)
(-0.00514107 0.0481781 0)
(-0.00706034 0.0483451 0)
(-0.0088827 0.0486116 0)
(-0.0108992 0.0490475 0)
(-0.0130533 0.0496078 0)
(-0.0153799 0.0503383 0)
(-0.0178878 0.0513194 0)
(-0.0205859 0.0526393 0)
(-0.0234619 0.0543904 0)
(-0.0265165 0.0566888 0)
(-0.0297027 0.0596343 0)
(-0.0329404 0.0633301 0)
(-0.0361739 0.0679299 0)
(-0.0392404 0.0735877 0)
(-0.0419105 0.0805205 0)
(-0.043973 0.0888633 0)
(-0.0452024 0.0984878 0)
(-0.0452804 0.108924 0)
(-0.0439711 0.119455 0)
(-0.0410758 0.129594 0)
(0.0011011 0.108172 0)
(-0.000865057 0.0276742 0)
(-0.00355279 0.0456482 0)
(-0.00468369 0.0498353 0)
(-0.00649004 0.0500908 0)
(-0.00815652 0.0504794 0)
(-0.00999046 0.0510403 0)
(-0.0119215 0.0517361 0)
(-0.0139743 0.052611 0)
(-0.0161432 0.0537426 0)
(-0.0184301 0.0552063 0)
(-0.0208105 0.0570859 0)
(-0.0232512 0.0594706 0)
(-0.0257123 0.062455 0)
(-0.0281166 0.0661067 0)
(-0.0303888 0.0705286 0)
(-0.0323733 0.0758689 0)
(-0.0338775 0.0822726 0)
(-0.0347273 0.0898427 0)
(-0.0347102 0.0984622 0)
(-0.0336149 0.107666 0)
(-0.0312947 0.116768 0)
(-0.0276313 0.1253 0)
(0.00107265 0.108011 0)
(-0.00060343 0.0299314 0)
(-0.00307321 0.0473604 0)
(-0.00404946 0.0513646 0)
(-0.00571495 0.0516853 0)
(-0.00719682 0.052169 0)
(-0.00882993 0.0528223 0)
(-0.0105258 0.0536148 0)
(-0.0123002 0.0545922 0)
(-0.0141404 0.0558055 0)
(-0.0160461 0.0573374 0)
(-0.0179742 0.0592552 0)
(-0.0198831 0.0616361 0)
(-0.0217223 0.0645462 0)
(-0.0234061 0.0680569 0)
(-0.0248591 0.0722176 0)
(-0.0259644 0.0771469 0)
(-0.0265379 0.0829505 0)
(-0.0264008 0.089735 0)
(-0.0254158 0.0973909 0)
(-0.0234174 0.105474 0)
(-0.02031 0.11334 0)
(-0.0160745 0.120616 0)
(0.00109971 0.107712 0)
(-0.000214808 0.0319237 0)
(-0.00249 0.0488594 0)
(-0.00327016 0.0527384 0)
(-0.00477426 0.0530984 0)
(-0.00604191 0.053654 0)
(-0.0074533 0.054374 0)
(-0.00889147 0.0552349 0)
(-0.0103903 0.0562699 0)
(-0.0119169 0.0575229 0)
(-0.0134566 0.0590657 0)
(-0.0149776 0.0609606 0)
(-0.0164208 0.0632618 0)
(-0.0177208 0.0660322 0)
(-0.0188096 0.0693149 0)
(-0.0196063 0.073151 0)
(-0.0199899 0.0776098 0)
(-0.0198102 0.0827843 0)
(-0.0189225 0.0887736 0)
(-0.0171791 0.0954931 0)
(-0.0144534 0.102547 0)
(-0.0107116 0.109324 0)
(-0.0059468 0.115631 0)
(0.0012232 0.107127 0)
(0.000272193 0.0336681 0)
(-0.00186266 0.0501279 0)
(-0.00239191 0.0539388 0)
(-0.00373372 0.0543044 0)
(-0.00475502 0.0549106 0)
(-0.00592251 0.0556758 0)
(-0.00708961 0.0565755 0)
(-0.00829146 0.05764 0)
(-0.00948869 0.0589184 0)
(-0.0106662 0.0604356 0)
(-0.0117954 0.0622577 0)
(-0.0128119 0.0644372 0)
(-0.0136497 0.0670186 0)
(-0.0142303 0.0700182 0)
(-0.0144743 0.0734742 0)
(-0.0142912 0.0774357 0)
(-0.0135281 0.0819794 0)
(-0.0120434 0.0871642 0)
(-0.00970913 0.0929827 0)
(-0.00641186 0.099037 0)
(-0.00207804 0.104753 0)
(0.00328022 0.11019 0)
(0.00150424 0.106125 0)
(0.00083946 0.0352406 0)
(-0.00124431 0.0511939 0)
(-0.00146231 0.0549592 0)
(-0.00267411 0.0552785 0)
(-0.00341425 0.0559237 0)
(-0.00432582 0.0567061 0)
(-0.00519509 0.0576207 0)
(-0.00606307 0.0586917 0)
(-0.00691637 0.0599515 0)
(-0.00773185 0.0614216 0)
(-0.00845528 0.0631474 0)
(-0.009038 0.0651729 0)
(-0.00943217 0.0675247 0)
(-0.00956272 0.0702231 0)
(-0.00932866 0.0732824 0)
(-0.00862526 0.0767351 0)
(-0.00736889 0.0806352 0)
(-0.00539992 0.0850429 0)
(-0.00256421 0.0899309 0)
(0.00121125 0.0949658 0)
(0.00613663 0.0996622 0)
(0.0122438 0.104075 0)
(0.00192235 0.10463 0)
(0.0014272 0.0367332 0)
(-0.00067211 0.0521118 0)
(-0.000563746 0.0557998 0)
(-0.00169103 0.0560115 0)
(-0.00211643 0.0566955 0)
(-0.0027824 0.0574578 0)
(-0.00334916 0.0583592 0)
(-0.00388694 0.0594026 0)
(-0.00436983 0.0606048 0)
(-0.00478077 0.0619992 0)
(-0.00507767 0.0636084 0)
(-0.00521406 0.065459 0)
(-0.00514024 0.0675695 0)
(-0.00478237 0.0699514 0)
(-0.00405703 0.0726217 0)
(-0.00287537 0.0755692 0)
(-0.00112315 0.0788406 0)
(0.00132822 0.0824524 0)
(0.00464129 0.0864053 0)
(0.00900862 0.0903791 0)
(0.0145672 0.0939464 0)
(0.0214438 0.0970382 0)
(0.00244898 0.102577 0)
(0.00201324 0.0382215 0)
(-0.000190585 0.0529093 0)
(0.000211476 0.0564128 0)
(-0.000884422 0.0564986 0)
(-0.000974814 0.0572333 0)
(-0.00145497 0.0579247 0)
(-0.00173643 0.0587753 0)
(-0.00196359 0.0597585 0)
(-0.00209633 0.0608776 0)
(-0.00211337 0.0621641 0)
(-0.00197535 0.063634 0)
(-0.00163916 0.0652884 0)
(-0.00106967 0.0671344 0)
(-0.000192182 0.0691956 0)
(0.0010602 0.071441 0)
(0.00279706 0.0738663 0)
(0.00508643 0.0765247 0)
(0.0080928 0.0793748 0)
(0.0120104 0.0823788 0)
(0.0170238 0.0852676 0)
(0.0232715 0.087516 0)
(0.0309774 0.0890372 0)
(0.00308452 0.0999246 0)
(0.00258037 0.0398121 0)
(0.00012118 0.0536055 0)
(0.000763203 0.0567927 0)
(-0.000313189 0.0568295 0)
(-0.000114649 0.0575498 0)
(-0.000527186 0.0581222 0)
(-0.000569171 0.0589003 0)
(-0.000555272 0.0597778 0)
(-0.000397723 0.0607805 0)
(-6.68632e-05 0.061917 0)
(0.000447336 0.0631826 0)
(0.00118582 0.0646117 0)
(0.00222939 0.066173 0)
(0.00361475 0.0678625 0)
(0.0053882 0.0696763 0)
(0.00770803 0.0715839 0)
(0.0106381 0.0735733 0)
(0.014278 0.075657 0)
(0.0188657 0.0776874 0)
(0.0246185 0.07941 0)
(0.0316392 0.0802722 0)
(0.0401661 0.0800929 0)
(0.00376345 0.0966093 0)
(0.00305107 0.0416595 0)
(0.000245876 0.0542922 0)
(0.00112073 0.0570591 0)
(-3.78016e-05 0.0570702 0)
(0.000308165 0.0576952 0)
(-0.000101219 0.0581686 0)
(1.93739e-05 0.0588248 0)
(0.000164983 0.0595545 0)
(0.000498766 0.0603926 0)
(0.0010158 0.0613185 0)
(0.00178783 0.062343 0)
(0.00284662 0.0634819 0)
(0.0042065 0.0647133 0)
(0.00598062 0.0660026 0)
(0.00820868 0.0673331 0)
(0.0109877 0.0686871 0)
(0.014448 0.0699885 0)
(0.0187057 0.0712055 0)
(0.023916 0.0721871 0)
(0.0302899 0.0726759 0)
(0.0380358 0.0721705 0)
(0.0471897 0.070311 0)
(0.00444532 0.0927706 0)
(0.00341769 0.0439324 0)
(0.000198406 0.0551827 0)
(0.00124477 0.0574263 0)
(-9.24085e-05 0.0574004 0)
(0.000353132 0.0578802 0)
(-0.000150496 0.0582861 0)
(2.94216e-06 0.0587755 0)
(0.000173261 0.0593297 0)
(0.0005432 0.0599469 0)
(0.00112442 0.0606245 0)
(0.00197474 0.0613966 0)
(0.00312469 0.0622023 0)
(0.00463447 0.0630584 0)
(0.00656819 0.0639138 0)
(0.00899398 0.0646922 0)
(0.012018 0.0654067 0)
(0.0157382 0.0659598 0)
(0.0202825 0.0662629 0)
(0.0258286 0.0661321 0)
(0.0325483 0.0653455 0)
(0.0406549 0.0634527 0)
(0.0499773 0.059967 0)
(0.00503632 0.0885935 0)
(0.00365772 0.0465973 0)
(7.28558e-05 0.0562452 0)
(0.00120791 0.0578807 0)
(-0.000390716 0.0578613 0)
(0.000102978 0.0581732 0)
(-0.000516615 0.0584817 0)
(-0.000435352 0.0588097 0)
(-0.000340421 0.0591751 0)
(-5.16467e-05 0.0595753 0)
(0.000464476 0.0600238 0)
(0.00123346 0.060506 0)
(0.00229995 0.0609919 0)
(0.0037237 0.0614529 0)
(0.00554612 0.0618183 0)
(0.00787479 0.062055 0)
(0.0107963 0.0620954 0)
(0.0143986 0.0618582 0)
(0.0188157 0.0612119 0)
(0.0241828 0.0600116 0)
(0.0306094 0.0579765 0)
(0.0383339 0.0547201 0)
(0.0470995 0.0497331 0)
(0.00549143 0.0839232 0)
(0.00372328 0.0494084 0)
(-0.000101625 0.0573009 0)
(0.00108028 0.0581878 0)
(-0.000744283 0.0582574 0)
(-0.000249094 0.0583826 0)
(-0.000983475 0.0585701 0)
(-0.00101667 0.0587614 0)
(-0.00103471 0.0589666 0)
(-0.000865426 0.0591775 0)
(-0.000511847 0.0594016 0)
(5.58513e-05 0.0596123 0)
(0.000892213 0.0597982 0)
(0.00205293 0.0598835 0)
(0.00360259 0.059801 0)
(0.00559852 0.0595047 0)
(0.00811373 0.0589344 0)
(0.0112364 0.0579778 0)
(0.0151012 0.0565006 0)
(0.0197962 0.0543282 0)
(0.0253171 0.0512072 0)
(0.0318814 0.0468467 0)
(0.0391857 0.0406942 0)
(0.0055005 0.0788715 0)
(0.00353785 0.0523019 0)
(-0.00017903 0.0583512 0)
(0.000933283 0.0584842 0)
(-0.000943124 0.058633 0)
(-0.000524838 0.0586035 0)
(-0.00127348 0.0586739 0)