/*--------------------------------*- C++ -*----------------------------------*\
| =========                 |                                                 |
| \\      /  F ield         | OpenFOAM: The Open Source CFD Toolbox           |
|  \\    /   O peration     | Version:  2206                                  |
|   \\  /    A nd           | Website:  www.openfoam.com                      |
|    \\/     M anipulation  |                                                 |
\*---------------------------------------------------------------------------*/
FoamFile
{
    version     2.0;
    format      ascii;
    arch        "LSB;label=32;scalar=64";
    class       volScalarField;
    location    "0.775";
    object      p_rgh;
}
// * * * * * * * * * * * * * * * * * * * * * * * * * * * * * * * * * * * * * //

dimensions      [1 -1 -2 0 0 0 0];

internalField   nonuniform List<scalar> 
2268
(
740.759
740.527
740.314
740.044
739.58
738.917
738.142
737.388
736.742
736.222
735.802
735.455
735.167
734.934
734.747
734.591
734.429
734.21
733.815
733.269
732.923
733.175
733.741
740.797
740.512
740.29
739.987
739.5
738.808
738.016
737.262
736.62
736.102
735.691
735.357
735.074
734.834
734.637
734.476
734.314
734.065
733.555
732.708
732.224
732.497
733.272
740.787
740.493
740.24
739.879
739.33
738.566
737.748
737.008
736.403
735.928
735.545
735.225
734.942
734.685
734.451
734.234
734.016
733.76
733.413
733.024
732.877
733.024
733.627
740.722
740.444
740.14
739.725
739.086
738.195
737.336
736.629
736.094
735.682
735.348
735.053
734.776
734.509
734.253
734.009
733.77
733.531
733.3
733.125
733.148
733.449
734.018
740.505
740.189
739.772
739.276
738.594
737.728
736.867
736.191
735.738
735.41
735.133
734.868
734.599
734.323
734.048
733.784
733.536
733.306
733.109
732.989
733.052
733.37
733.904
739.934
739.308
738.515
737.791
737.342
736.937
736.398
735.854
735.459
735.185
734.951
734.703
734.43
734.135
733.834
733.542
733.269
733.021
732.813
732.68
732.692
732.903
733.271
738.896
737.626
735.957
734.951
735.025
735.616
735.862
735.67
735.34
735.074
734.835
734.574
734.274
733.943
733.603
733.271
732.96
732.667
732.4
732.17
731.985
731.833
731.678
738.009
735.702
733.209
731.921
732.691
734.335
735.368
735.602
735.397
735.115
734.837
734.512
734.139
733.741
733.342
732.958
732.601
732.247
731.893
731.543
731.136
730.748
728.863
370.483
371.204
365.708
326.858
331.87
385.745
470.769
576.27
701.415
860.539
1030.3
1229.55
1375.38
1397.96
1387.55
1376.86
1496.53
1780.88
1927.66
368.269
368.041
357.661
306.472
313.143
368.279
454.175
559.195
696.145
865.927
1032.77
1232.39
1386.68
1411.87
1390.15
1347.46
1447.73
1743.19
1913.38
367.329
368.91
324.253
299.543
309.38
366.515
466.834
596.587
718.698
876.456
1056.76
1255.33
1412.42
1457.35
1397.1
1306.36
1380.73
1665.04
1885.78
368.357
370.53
315.071
297.853
307.777
397.56
540.351
621.919
645.448
797.205
1057.3
1283.18
1441.67
1496
1407.94
1276.05
1315.08
1581.72
1848.75
369.879
342.787
316.163
298.454
347.791
513.793
574.224
471.098
408.709
651.431
1026.44
1322.69
1468.37
1500.32
1408.6
1234.07
1258.23
1489.91
1807.16
316.704
310.058
317.828
332.468
498.762
551.221
587.952
355.734
260.038
429.831
980.129
1369.29
1501.54
1501.52
1355.94
1202.7
1191.59
1368.85
1760.76
326.819
364.219
411.952
560.756
511.374
535.537
431.906
350.825
286.322
372.786
874.898
1421.9
1546.25
1547.62
1364.51
1218.09
1196.62
1339.44
1720.96
550.556
584.604
642.703
597.987
467.292
344.91
383.087
514.342
503.913
565.029
924.196
1456.02
1606.95
1568.98
1408.54
1244.52
1219.55
1403.2
1751.99
737.801
734.861
731.734
730.289
731.552
734.057
735.608
735.982
735.72
735.335
734.95
734.483
733.951
733.411
732.901
732.417
731.925
731.39
730.707
729.694
727.763
724.118
714.835
747.499
745.251
725.661
697.013
660.508
653.622
666.413
671.769
665.012
663.608
666.039
669.135
671.192
672.072
672.39
672.174
671.311
669.925
668.066
665.313
661.607
654.628
648.656
190.796
181.889
179.103
189.398
211.01
213.488
206.875
196.445
191.567
189.873
182.186
165.54
149.781
140.128
135.712
132.96
129.77
125.719
120.768
114.036
104.682
90.6485
74.0467
2.11276
2.09848
2.12596
2.08031
2.08217
2.08161
2.09259
2.10205
2.12411
2.1431
2.16758
2.18916
2.22091
2.24328
2.26589
2.2908
2.32036
2.35558
2.39654
2.44462
2.49462
2.52473
2.57196
2.1099
2.0968
2.09183
2.09175
2.087
2.08249
2.08048
2.0872
2.1047
2.12144
2.1398
2.16081
2.18453
2.20828
2.23342
2.2605
2.29036
2.32396
2.3627
2.4074
2.45767
2.52167
2.61529
2.05092
2.03301
2.02998
2.04018
2.05366
2.06491
2.07496
2.08388
2.0938
2.10518
2.11994
2.13714
2.1561
2.17612
2.19717
2.21957
2.24392
2.27078
2.30502
2.36432
2.40656
2.44135
2.46836
2.00701
2.00053
2.00112
2.012
2.02718
2.03943
2.04894
2.05901
2.06868
2.07883
2.09028
2.1033
2.11777
2.13327
2.14948
2.16649
2.18601
2.2332
2.26162
2.28148
2.30102
2.31846
2.33314
1.98848
1.99004
1.9929
2.00053
2.00947
2.01585
2.02203
2.02849
2.03556
2.04367
2.05288
2.06298
2.0737
2.08489
2.0964
2.10945
2.15117
2.17435
2.18436
2.19327
2.20051
2.18569
2.17065
1.9639
1.96854
1.97246
1.9752
1.97928
1.98273
1.98663
1.99123
1.9965
2.00254
2.00935
2.01682
2.02473
2.03286
2.04106
2.05261
2.09743
2.11001
2.10372
2.07123
2.07392
2.0711
2.06705
1.92623
1.92862
1.93101
1.93324
1.93612
1.93921
1.94268
1.94656
1.95087
1.9556
1.96073
1.96623
1.97199
1.97787
1.98374
1.99021
2.02414
2.04835
2.0192
2.00282
2.00187
1.9982
1.99199
1.88012
1.88077
1.88242
1.88464
1.8873
1.89017
1.89328
1.8966
1.90015
1.90392
1.9079
1.91202
1.91624
1.92046
1.92461
1.92869
1.94081
1.97083
1.95411
1.93767
1.93636
1.93266
1.92629
1.83015
1.83051
1.83208
1.83396
1.83605
1.83831
1.84074
1.84332
1.84605
1.84892
1.85189
1.85494
1.858
1.86102
1.86392
1.86673
1.86993
1.87359
1.87749
1.87593
1.8731
1.8703
1.86481
1.77769
1.77813
1.7793
1.78068
1.78217
1.78381
1.7856
1.78751
1.78953
1.79163
1.79378
1.79596
1.79812
1.80023
1.80222
1.80407
1.80561
1.8067
1.80714
1.80853
1.80891
1.80613
1.80118
1.72253
1.72294
1.72368
1.72467
1.72573
1.72693
1.72824
1.72964
1.73111
1.73263
1.73417
1.7357
1.73721
1.73866
1.74
1.7412
1.74216
1.74276
1.74285
1.74249
1.74285
1.74174
1.73744
1.66498
1.6653
1.6658
1.66651
1.66727
1.66815
1.6691
1.67011
1.67118
1.67228
1.67339
1.6745
1.67557
1.6766
1.67755
1.67838
1.67906
1.67949
1.67959
1.67932
1.67865
1.67732
1.67483
1.60556
1.60579
1.60614
1.60664
1.60718
1.60781
1.6085
1.60924
1.61003
1.61084
1.61168
1.61251
1.61334
1.61414
1.6149
1.6156
1.61621
1.61669
1.61699
1.61708
1.61698
1.61649
1.6153
1.54456
1.54472
1.54496
1.54531
1.54569
1.54615
1.54666
1.54721
1.54781
1.54845
1.54911
1.5498
1.5505
1.5512
1.55191
1.5526
1.55328
1.55392
1.55451
1.55506
1.55558
1.55597
1.55598
1.48218
1.48228
1.48244
1.48268
1.48296
1.4833
1.48368
1.48411
1.48458
1.4851
1.48566
1.48626
1.48689
1.48757
1.48828
1.48903
1.48983
1.49068
1.49159
1.49258
1.49371
1.4949
1.496
1.41856
1.41862
1.41872
1.41889
1.41908
1.41932
1.41961
1.41994
1.42032
1.42075
1.42122
1.42175
1.42234
1.42299
1.42371
1.42452
1.42542
1.42645
1.42762
1.42899
1.43062
1.43252
1.43453
1.35384
1.35386
1.35391
1.35401
1.35413
1.35429
1.35448
1.35472
1.355
1.35532
1.3557
1.35614
1.35665
1.35724
1.35792
1.35871
1.35964
1.36075
1.36207
1.36368
1.36567
1.36806
1.37078
1.28812
1.28811
1.28811
1.28815
1.28819
1.28826
1.28835
1.28846
1.28862
1.28881
1.28905
1.28934
1.2897
1.29014
1.29068
1.29134
1.29217
1.2932
1.2945
1.29614
1.29826
1.3009
1.30404
1.22155
1.22152
1.22147
1.22144
1.22138
1.22133
1.22129
1.22125
1.22123
1.22122
1.22125
1.22131
1.22142
1.2216
1.22186
1.22224
1.22278
1.22354
1.22458
1.22601
1.22794
1.23049
1.23367
1.15432
1.15425
1.15415
1.15403
1.15386
1.15366
1.15344
1.1532
1.15294
1.15267
1.15239
1.15212
1.15186
1.15163
1.15145
1.15136
1.1514
1.15164
1.15215
1.15303
1.15442
1.15646
1.1592
1.08661
1.08651
1.08634
1.08611
1.0858
1.08542
1.08498
1.08448
1.08391
1.08329
1.08262
1.0819
1.08113
1.08034
1.07955
1.07878
1.07808
1.07752
1.07718
1.07717
1.07759
1.07861
1.08036
1.01864
1.0185
1.01826
1.0179
1.01742
1.01683
1.01613
1.01531
1.01437
1.01332
1.01216
1.01088
1.00948
1.00798
1.00639
1.00473
1.00306
1.00143
0.999918
0.998611
0.997611
0.997084
0.997202
0.950668
0.950486
0.950151
0.949658
0.948987
0.948151
0.947145
0.945964
0.944605
0.94306
0.941322
0.939384
0.937241
0.934894
0.932351
0.92963
0.926765
0.923805
0.920811
0.91785
0.914982
0.912358
0.910197
0.882947
0.882719
0.882289
0.881645
0.880769
0.87967
0.878338
0.876766
0.874942
0.872855
0.870489
0.867828
0.86486
0.861573
0.857964
0.85404
0.849817
0.845325
0.840603
0.835682
0.83057
0.825375
0.820346
0.815756
0.815481
0.814954
0.814159
0.813075
0.811706
0.810041
0.808066
0.805766
0.803119
0.800103
0.796694
0.792866
0.788598
0.783872
0.778677
0.773011
0.766878
0.760284
0.75322
0.745626
0.737545
0.729228
0.749377
0.749058
0.748439
0.747499
0.746215
0.744588
0.742601
0.740239
0.737476
0.734288
0.730642
0.726505
0.721841
0.716616
0.710797
0.704357
0.697267
0.689504
0.68104
0.671817
0.661713
0.650678
0.638931
0.684085
0.683727
0.683026
0.681959
0.680495
0.678636
0.676361
0.67365
0.670473
0.666797
0.662585
0.657794
0.652378
0.646292
0.63949
0.631924
0.623548
0.614308
0.604139
0.592945
0.580546
0.566796
0.551838
0.620132
0.619744
0.618977
0.617806
0.616196
0.614146
0.611636
0.608639
0.605123
0.601051
0.596378
0.591055
0.58503
0.578248
0.570651
0.562178
0.552765
0.542334
0.530791
0.518009
0.503772
0.487852
0.470276
0.557731
0.557325
0.55651
0.555268
0.553553
0.55137
0.548693
0.545496
0.541742
0.537392
0.532399
0.526709
0.520265
0.513007
0.504871
0.495786
0.485677
0.474452
0.461998
0.448169
0.432739
0.415432
0.396148
0.49704
0.49663
0.495791
0.494514
0.492745
0.490495
0.487735
0.484437
0.480565
0.476079
0.47093
0.465064
0.458425
0.450949
0.442571
0.433219
0.422814
0.411258
0.398435
0.384195
0.368321
0.350534
0.330636
0.438151
0.43775
0.436915
0.435646
0.433882
0.431638
0.428886
0.425596
0.421735
0.417264
0.412136
0.4063
0.399702
0.392281
0.383974
0.374715
0.364427
0.353021
0.340386
0.326383
0.310824
0.293462
0.274066
0.381085
0.3807
0.379913
0.378701
0.377001
0.374839
0.372186
0.369014
0.365295
0.36099
0.356059
0.350455
0.344128
0.337025
0.329091
0.320266
0.310487
0.299676
0.28774
0.274562
0.259994
0.243844
0.225908
0.325922
0.325353
0.324773
0.323641
0.322067
0.320059
0.317593
0.314643
0.311186
0.307188
0.302616
0.297428
0.291583
0.285035
0.277739
0.269648
0.26071
0.250868
0.24005
0.228166
0.215107
0.200738
0.184891
0.27267
0.271663
0.271496
0.270371
0.268983
0.26719
0.264985
0.262347
0.259257
0.255689
0.251614
0.247001
0.241814
0.236018
0.229578
0.222458
0.214624
0.206034
0.19664
0.186379
0.175175
0.16294
0.149536
0.220955
0.219844
0.21994
0.218737
0.217611
0.216069
0.214181
0.211925
0.209287
0.206247
0.202783
0.198869
0.194479
0.189586
0.184166
0.178194
0.171647
0.164501
0.156729
0.148288
0.139132
0.12921
0.11842
0.170554
0.169688
0.169634
0.168524
0.167726
0.166457
0.164932
0.163113
0.160994
0.158558
0.155789
0.152669
0.149177
0.145296
0.141009
0.1363
0.131157
0.12557
0.119523
0.112998
0.105967
0.0984127
0.0902609
0.121057
0.120448
0.120328
0.11959
0.119078
0.118067
0.116932
0.11559
0.114038
0.112261
0.110247
0.107983
0.105457
0.102655
0.0995667
0.0961852
0.0925047
0.0885221
0.0842346
0.0796367
0.0747172
0.0694764
0.0638646
0.072351
0.0719905
0.0718235
0.0713757
0.0709858
0.0703657
0.0696947
0.0688853
0.0679484
0.0668774
0.0656655
0.0643057
0.0627907
0.061114
0.0592703
0.0572563
0.0550711
0.052716
0.050194
0.0475066
0.0446508
0.0416372
0.0384336
0.0234235
0.0238868
0.0240346
0.0238951
0.0237645
0.0235245
0.023288
0.0229924
0.0226562
0.0222747
0.0218459
0.0213668
0.0208346
0.0202465
0.0196004
0.0188956
0.0181327
0.0173136
0.0164417
0.0155199
0.0145476
0.013537
0.0124707
680.157
678.339
668.773
655.896
574.662
468.039
421.954
387.398
20.8435
3.91087
2.09886
6.91713
3.09946
2.82628
1.79568
2.19378
2.72712
2.39973
1.73706
1.75188
2.53584
2.3162
1.89076
1.93094
2.33592
2.19946
2.01703
1.90013
2.17285
2.0806
1.90663
1.75025
2.05479
1.981
1.8388
1.73476
1.97436
1.91328
1.81289
1.72914
1.90785
1.85801
1.78318
1.71628
1.8474
1.8059
1.74995
1.69717
1.78714
1.75438
1.71401
1.67497
1.72581
1.70408
1.67692
1.65118
1.66806
1.65516
1.63967
1.62673
1.61193
1.60667
1.60201
1.60165
1.55577
1.55765
1.56315
1.57539
1.49865
1.5071
1.52216
1.54702
1.43964
1.45389
1.47778
1.51517
1.37781
1.39678
1.42841
1.47779
1.31225
1.33443
1.3721
1.43211
1.24212
1.26544
1.30661
1.37447
1.16668
1.18841
1.22945
1.30023
1.08543
1.10211
1.13806
1.20395
0.998227
1.00571
1.0302
1.07984
0.905474
0.899115
0.904526
0.922894
0.80833
0.783554
0.761522
0.730999
0.708827
0.662137
0.604627
0.50867
0.609825
0.540219
0.442625
0.275646
0.514672
0.42464
0.289083
0.0623395
0.42663
0.321865
0.157773
-0.105539
0.348328
0.236243
0.0576998
-0.216504
0.281384
0.169378
-0.00936077
-0.269262
0.226241
0.121368
-0.0398439
-0.281523
0.182013
0.0877455
-0.0505812
-0.252296
0.146369
0.0655527
-0.0469614
-0.20133
0.117207
0.0514949
-0.0351318
-0.144987
0.0926329
0.0421352
-0.0209769
-0.094056
0.0709482
0.0345712
-0.00853894
-0.0538947
0.0506708
0.0267295
-0.000147402
-0.0258987
0.0309511
0.0178302
0.00391919
-0.00827503
0.00999359
0.0058432
0.00181018
-0.00101702
655.461
559.47
588.836
519.002
132.477
107.564
314.683
495.232
531.407
722.284
1153.78
1587.96
1702.85
1619.71
1517.11
1411.91
1384.78
1546.46
1812.15
309.118
116.325
169.667
104.534
30.4211
23.565
37.7847
22.5126
73.3815
498.096
1130.99
1589.65
1714.9
1571.82
1492.12
1520.06
1614.24
1739.05
1928.15
10.0206
1.73084
-10.6312
0.980494
7.53384
5.64614
5.56615
7.66954
18.9989
137.249
741.263
1382
1593.99
1379.27
1280.28
1294.02
1383.54
1722.45
1956.27
4.34398
4.36453
1.57555
2.20486
3.26534
2.52725
2.09167
2.74645
7.42323
29.9069
307.717
1112.01
1454.59
1600.19
1369.07
1302.97
1386.31
1713.05
1958.38
2.01278
2.11106
1.88211
2.026
2.28751
1.69506
1.03336
1.16381
2.91812
10.7959
58.2731
594.55
1340.84
1545.55
1683.41
1624.92
1731.52
1978.27
1996.64
1.78461
1.5864
1.44736
1.16311
1.01968
0.98543
0.650099
0.728452
1.41081
4.03286
15.661
245.487
1217.13
1492.46
1662.84
1810.32
1957.64
2055.6
2048.57
1.7381
1.57037
1.30826
0.926324
0.562712
0.428952
0.461266
0.732898
1.10905
1.70898
5.02559
25.3412
500.666
1425.13
1631.02
1806.79
1985.23
2098.67
2082.65
1.68551
1.55112
1.32625
0.996064
0.669547
0.528912
0.594719
0.829933
1.15034
1.28806
1.89624
7.43247
152.611
1038.4
1570.28
1769.23
1971.57
2104.08
2091.85
1.66661
1.56483
1.40389
1.16825
0.922787
0.794925
0.820803
0.963356
1.14427
1.2431
1.05642
1.51853
4.41508
130.504
1056.96
1639.24
1914.72
2083.89
2088.24
1.66686
1.58857
1.47537
1.32126
1.15698
1.04395
1.01179
1.04637
1.1021
1.14027
0.894623
0.691132
0.989574
2.57359
31.1095
697.383
1535.31
2046.11
2093.61
1.66144
1.59872
1.51554
1.40992
1.29419
1.19499
1.1326
1.10643
1.08793
1.05652
0.842615
0.555064
0.518066
0.883221
3.0074
18.9885
382.038
1833.91
2119.3
1.65111
1.60102
1.53755
1.45888
1.36959
1.2844
1.21569
1.16378
1.11035
1.03449
0.853156
0.550687
0.36381
0.514686
1.04716
3.83822
26.5011
704.155
2158.57
1.63982
1.60231
1.55477
1.4946
1.42348
1.35034
1.28237
1.21901
1.14851
1.05296
0.917066
0.691597
0.496917
0.562379
0.911225
1.31854
4.22421
253.26
2200.18
1.62809
1.60317
1.56995
1.52488
1.46793
1.4043
1.33872
1.27058
1.19173
1.09006
1.00019
0.921669
0.87538
0.921952
1.17502
1.29239
1.61131
232.842
2219.16
1.61612
1.6037
1.58378
1.55173
1.506
1.44981
1.38719
1.31871
1.2389
1.14123
1.08199
1.1199
1.23687
1.3716
1.59047
1.68904
2.13534
186.448
1974.91
1.60403
1.60448
1.59765
1.57753
1.54103
1.49028
1.4299
1.363
1.28804
1.19783
1.15875
1.2503
1.45079
1.65021
1.85166
2.08372
2.59384
145.033
604.804
1.59151
1.60576
1.61277
1.60448
1.57601
1.52876
1.46874
1.40326
1.33652
1.25358
1.22923
1.32648
1.52889
1.73917
1.8902
2.58555
3.5316
281.067
18.4787
1.57783
1.60746
1.63007
1.63465
1.61362
1.56765
1.50553
1.43856
1.3736
1.30701
1.28963
1.36312
1.52728
1.69098
1.77055
5.1623
70.217
349.253
3.53632
1.56175
1.60898
1.65027
1.67018
1.65683
1.60945
1.541
1.46901
1.4035
1.34782
1.32939
1.37149
1.47667
1.55311
1.59696
24.8324
334.23
377.148
1.15532
1.54113
1.60889
1.67365
1.71341
1.70932
1.65591
1.57567
1.4944
1.42514
1.37296
1.34932
1.3587
1.38202
1.34978
1.35327
81.7175
403.549
402.236
0.703806
1.51259
1.60431
1.69958
1.76666
1.77178
1.71031
1.6089
1.51343
1.43749
1.38414
1.35399
1.33805
1.32318
1.23579
1.0834
160.665
421.263
418.602
0.827267
1.47089
1.58987
1.72544
1.83314
1.85633
1.77516
1.63784
1.52306
1.43889
1.38347
1.34827
1.32054
1.29453
1.18409
1.02371
200.901
437.051
215.349
1.04204
1.40816
1.55591
1.74402
1.91332
1.96574
1.85103
1.65554
1.51785
1.4267
1.37234
1.34064
1.31021
1.29198
1.19977
1.05694
131.646
450.597
15.5679
1.33618
1.31296
1.48527
1.73933
2.00975
2.11651
1.93692
1.64915
1.48958
1.3982
1.35033
1.33087
1.31213
1.30317
1.25259
1.135
38.0546
462.664
9.5463
1.77145
1.16924
1.34843
1.69034
2.15099
2.36219
1.99571
1.60636
1.42367
1.34799
1.31795
1.31517
1.31402
1.32868
1.33681
1.29763
7.67028
471.126
48.0823
2.38861
0.95503
1.09604
1.63608
3.56692
9.03417
3.34442
1.54146
1.29999
1.27263
1.27295
1.29249
1.31311
1.35125
1.41953
1.48155
1.78274
297.771
80.0285
5.17346
0.650779
0.684754
1.9768
19.6568
32.9621
25.4538
1.62776
1.12069
1.16945
1.21839
1.26437
1.30517
1.35728
1.4483
1.53585
1.80441
28.4585
80.5497
9.54612
0.265626
0.102358
8.34278
32.9374
33.1573
33.2134
3.25697
0.918938
1.05326
1.16239
1.23204
1.28931
1.34281
1.39422
1.87709
1.8166
16.3637
57.8032
4.90679
-0.121288
-0.359585
16.6064
32.5543
33.3402
33.0243
23.2574
0.777789
0.943285
1.11156
1.20147
1.27222
1.32511
1.32723
2.11397
142.94
61.334
0.578461
-0.692576
-0.449776
-0.517407
22.1499
32.9174
28.8275
32.6356
31.2202
1.02708
0.840499
1.06829
1.17592
1.25924
1.32534
1.30778
2.38909
301.487
278.776
0.954996
-1.36904
-0.66602
-0.526228
19.8239
26.2805
-0.4286
8.58668
29.9262
10.7483
0.811595
1.03648
1.16025
1.24823
1.31648
1.3512
5.13484
310.984
175.09
0.388644
-1.40925
-0.741589
-0.377262
7.82915
0.127184
-0.890222
-0.815105
12.6742
19.6666
0.801112
1.02916
1.16069
1.23614
1.27888
1.38223
14.9617
318.504
-1.38015
-1.15527
-1.38801
-0.742146
-0.734518
2.50585
-1.25492
-0.935409
-0.720047
-0.00497964
19.9384
0.848056
1.06595
1.18462
1.23456
1.24208
1.38828
151.856
327.251
7.42563
-1.29084
-1.32623
-0.682544
-1.15133
1.91978
-1.10273
-0.92173
-0.538094
0.695832
8.48529
9.62905
1.15924
1.2318
1.26656
1.25788
2.6091
295.22
301.353
16.8612
-1.29193
-1.26718
-0.556362
-1.002
-0.891348
-0.306629
-0.370333
-0.319947
0.0316828
0.700502
15.1167
5.27341
1.29739
1.2915
1.3439
18.223
280.984
16.8232
3.71887
-1.24585
-1.22219
-0.412548
-0.703079
-0.976236
-0.211162
-0.183409
-0.148925
0.137426
0.337095
16.1244
32.5594
5.91057
1.2926
1.48592
119.598
277.696
0.399032
-1.2058
-1.18056
-1.16469
-0.278394
-0.436825
-0.598064
-0.483787
-0.346499
-0.0183837
0.167129
0.254853
3.97206
33.1797
9.96299
1.33349
16.6977
148.497
40.7651
-0.457126
-1.0972
-1.09195
-1.0967
-0.170174
-0.238993
-0.300029
-0.263507
-0.11985
0.066743
0.168843
0.226577
2.17244
21.1847
10.0487
2.55386
60.2129
71.5072
-0.946005
-1.01233
-1.00972
-1.02727
-1.03618
-0.0923987
-0.112904
-0.116557
-0.0707754
0.0100971
0.0986546
0.146113
0.214155
0.186215
0.469097
16.0633
19.1655
44.0718
-0.578233
-0.7105
-0.910375
-0.943302
-0.97473
-0.986587
-0.0424946
-0.0434954
-0.0279532
0.0108577
0.0545759
0.0889758
0.0973348
0.181705
0.0818716
0.65353
34.6597
34.0868
3.3912
-0.670025
-0.69245
-0.878026
-0.905306
-0.936205
-0.948257
-0.0136384
-0.0101344
0.0042115
0.0295825
0.0515673
0.0576787
0.0410149
0.094972
-0.0746167
0.468283
33.3937
26.8824
-0.690269
-0.82629
-0.788893
-0.864833
-0.879489
-0.90208
-0.912801
-0.000835083
0.00262333
0.00945692
0.018792
0.024303
0.0108698
-0.0178213
-0.0153071
-0.216442
-0.258369
5.76414
0.632483
-1.97539
-1.01881
-0.806742
-0.824254
-0.83643
-0.854874
-0.865664
)
;

boundaryField
{
    leftWall
    {
        type            fixedFluxPressure;
        gradient        uniform 0;
        value           nonuniform List<scalar> 
50
(
740.759
740.797
740.787
740.722
740.505
739.934
738.896
738.009
737.801
747.499
190.796
2.11276
2.1099
2.05092
2.00701
1.98848
1.9639
1.92623
1.88012
1.83015
1.77769
1.72253
1.66498
1.60556
1.54456
1.48218
1.41856
1.35384
1.28812
1.22155
1.15432
1.08661
1.01864
0.950668
0.882947
0.815756
0.749377
0.684085
0.620132
0.557731
0.49704
0.438151
0.381085
0.325922
0.27267
0.220955
0.170554
0.121057
0.072351
0.0234235
)
;
    }
    rightWall
    {
        type            fixedFluxPressure;
        gradient        uniform 0;
        value           nonuniform List<scalar> 
50
(
1927.66
1913.38
1885.78
1848.75
1807.16
1760.76
1720.96
1751.99
1812.15
1928.15
1956.27
1958.38
1996.64
2048.57
2082.65
2091.85
2088.24
2093.61
2119.3
2158.57
2200.18
2219.16
1974.91
604.804
18.4787
3.53632
1.15532
0.703806
0.827267
1.04204
1.33618
1.77145
2.38861
5.17346
9.54612
4.90679
-0.692576
-1.36904
-1.40925
-1.38801
-1.32623
-1.26718
-1.22219
-1.16469
-1.0967
-1.03618
-0.986587
-0.948257
-0.912801
-0.865664
)
;
    }
    lowerWall
    {
        type            fixedFluxPressure;
        gradient        uniform 0;
        value           nonuniform List<scalar> 
62
(
740.759
740.527
740.314
740.044
739.58
738.917
738.142
737.388
736.742
736.222
735.802
735.455
735.167
734.934
734.747
734.591
734.429
734.21
733.815
733.269
732.923
733.175
733.741
733.741
733.272
733.627
734.018
733.904
733.271
731.678
728.863
680.157
678.339
668.773
655.896
370.483
368.269
367.329
368.357
369.879
316.704
326.819
550.556
370.483
371.204
365.708
326.858
331.87
385.745
470.769
576.27
701.415
860.539
1030.3
1229.55
1375.38
1397.96
1387.55
1376.86
1496.53
1780.88
1927.66
)
;
    }
    atmosphere
    {
        type            totalPressure;
        rho             rho;
        psi             none;
        gamma           1;
        p0              uniform 0;
        value           nonuniform List<scalar> 
46
(
0
0
0
0
0
0
0
0
0
0
0
0
0
0
0
0
0
0
0
0
0
0
0
0
0
0
0
0
0
0
0
-0.00102927
-0.0215064
-0.0525978
-0.050989
-0.196607
-0.51117
0
0
-1.92164
-0.982719
-0.741438
-0.771147
-0.797493
-0.817705
-0.830119
)
;
    }
    defaultFaces
    {
        type            empty;
    }
}


// ************************************************************************* //
