/*--------------------------------*- C++ -*----------------------------------*\
| =========                 |                                                 |
| \\      /  F ield         | OpenFOAM: The Open Source CFD Toolbox           |
|  \\    /   O peration     | Version:  2206                                  |
|   \\  /    A nd           | Website:  www.openfoam.com                      |
|    \\/     M anipulation  |                                                 |
\*---------------------------------------------------------------------------*/
FoamFile
{
    version     2.0;
    format      ascii;
    arch        "LSB;label=32;scalar=64";
    class       surfaceScalarField;
    location    "0.9";
    object      alphaPhi0.water;
}
// * * * * * * * * * * * * * * * * * * * * * * * * * * * * * * * * * * * * * //

dimensions      [0 3 -1 0 0 0 0];

oriented        oriented;

internalField   nonuniform List<scalar> 
4432
(
-5.47914e-07
5.47914e-07
2.33063e-06
-2.87855e-06
6.22087e-06
-3.89025e-06
9.15343e-06
-2.93256e-06
1.07626e-05
-1.60916e-06
1.14064e-05
-6.43843e-07
1.15674e-05
-1.6093e-07
1.15833e-05
-1.58839e-08
1.15867e-05
-3.44421e-09
1.15782e-05
8.47231e-09
1.14889e-05
8.93329e-08
1.12707e-05
2.18199e-07
1.08991e-05
3.71548e-07
1.03775e-05
5.21666e-07
9.72585e-06
6.51615e-07
8.97327e-06
7.52573e-07
8.19994e-06
7.73331e-07
7.50383e-06
6.96101e-07
7.14493e-06
3.58897e-07
6.92157e-06
2.2334e-07
7.58828e-06
-6.66714e-07
7.92469e-06
-3.36385e-07
7.77183e-06
-4.51478e-07
9.99397e-07
2.37588e-06
-5.7059e-06
5.74068e-06
-7.25504e-06
8.26915e-06
-5.46103e-06
9.73315e-06
-3.07316e-06
1.04641e-05
-1.37482e-06
1.08645e-05
-5.61348e-07
1.11983e-05
-3.49686e-07
1.1564e-05
-3.69114e-07
1.19571e-05
-3.8467e-07
1.236e-05
-3.13564e-07
1.27416e-05
-1.63382e-07
1.31e-05
1.32113e-08
1.34313e-05
1.90297e-07
1.37427e-05
3.40278e-07
1.40832e-05
4.12093e-07
1.44919e-05
3.64573e-07
1.51328e-05
5.52028e-08
1.58395e-05
-3.47737e-07
1.72597e-05
-1.19698e-06
1.87362e-05
-2.14325e-06
1.44675e-05
3.93236e-06
2.17605e-05
-1.45469e-07
1.14486e-06
2.17953e-06
-8.03089e-06
4.85852e-06
-9.93402e-06
6.94693e-06
-7.54943e-06
8.42838e-06
-4.55459e-06
9.52345e-06
-2.46988e-06
1.04232e-05
-1.46109e-06
1.12133e-05
-1.13977e-06
1.19082e-05
-1.06406e-06
1.24891e-05
-9.65517e-07
1.29401e-05
-7.64562e-07
1.32642e-05
-4.87472e-07
1.34655e-05
-1.88134e-07
1.35474e-05
1.084e-07
1.35747e-05
3.12982e-07
1.3629e-05
3.57755e-07
1.38048e-05
1.88752e-07
1.4165e-05
-3.04964e-07
1.50154e-05
-1.19811e-06
1.73073e-05
-3.48894e-06
1.87706e-05
-3.60648e-06
1.07828e-05
1.13658e-05
3.11405e-05
-1.80505e-07
1.32537e-06
1.1068e-06
-9.3182e-06
3.16237e-06
-1.19896e-05
5.2435e-06
-9.63056e-06
7.1364e-06
-6.44749e-06
8.86052e-06
-4.194e-06
1.0413e-05
-3.01359e-06
1.1771e-05
-2.49772e-06
1.29133e-05
-2.20642e-06
1.38192e-05
-1.87142e-06
1.4464e-05
-1.4093e-06
1.48061e-05
-8.29583e-07
1.48053e-05
-1.87359e-07
1.44942e-05
4.19481e-07
1.38295e-05
9.7771e-07
1.28073e-05
1.37996e-06
1.14563e-05
1.53973e-06
9.78269e-06
1.36866e-06
7.75536e-06
8.2922e-07
5.1576e-06
-8.91192e-07
2.01269e-06
-4.6586e-07
-6.33997e-07
1.36085e-05
3.04055e-05
-7.41177e-07
2.06655e-06
-1.40198e-06
-8.65739e-06
-7.46166e-08
-1.3317e-05
2.81607e-06
-1.25212e-05
5.97252e-06
-9.60394e-06
8.78971e-06
-7.01119e-06
1.11738e-05
-5.39763e-06
1.31452e-05
-4.46915e-06
1.47053e-05
-3.76649e-06
1.58545e-05
-3.02064e-06
1.6593e-05
-2.14785e-06
1.695e-05
-1.1865e-06
1.69644e-05
-2.01773e-07
1.65277e-05
8.56175e-07
1.56595e-05
1.84587e-06
1.42517e-05
2.7878e-06
1.2133e-05
3.65846e-06
9.04897e-06
4.45266e-06
4.60906e-06
5.26914e-06
-1.89359e-06
5.61147e-06
-7.98817e-06
5.62874e-06
-7.02664e-06
1.36211e-05
2.32766e-05
-2.53362e-07
2.31992e-06
-8.55268e-07
-8.05548e-06
2.06601e-07
-1.43788e-05
3.44191e-06
-1.57565e-05
7.49779e-06
-1.36598e-05
1.10851e-05
-1.05985e-05
1.3906e-05
-8.21857e-06
1.61884e-05
-6.75155e-06
1.80617e-05
-5.63975e-06
1.9506e-05
-4.46498e-06
2.06291e-05
-3.2709e-06
2.15015e-05
-2.05898e-06
2.19376e-05
-6.37831e-07
2.16683e-05
1.1255e-06
2.04827e-05
3.03145e-06
1.83925e-05
4.878e-06
1.54865e-05
6.56445e-06
1.17768e-05
8.16233e-06
7.18302e-06
9.86295e-06
1.54877e-06
1.12457e-05
-4.36135e-06
1.15373e-05
-4.18041e-06
1.37118e-05
2.09869e-05
6.47065e-06
-4.15073e-06
1.12626e-05
-1.28477e-05
1.34843e-05
-1.65991e-05
1.4881e-05
-1.71508e-05
1.688e-05
-1.56565e-05
1.93463e-05
-1.30632e-05
2.17255e-05
-1.0597e-05
2.38514e-05
-8.87712e-06
2.56653e-05
-7.45349e-06
2.68071e-05
-5.60677e-06
2.68522e-05
-3.31594e-06
2.59684e-05
-1.17526e-06
2.47052e-05
6.25428e-07
2.33908e-05
2.43989e-06
2.17749e-05
4.64732e-06
1.94769e-05
7.17607e-06
1.65164e-05
9.52487e-06
1.32995e-05
1.13793e-05
9.99513e-06
1.31673e-05
6.79536e-06
1.44455e-05
3.95599e-06
1.43766e-05
3.14813e-06
1.45197e-05
2.41386e-05
1.54514e-05
-7.40756e-06
2.05601e-05
-5.80574e-06
2.11615e-05
-5.26468e-06
2.10355e-05
-5.48848e-06
2.21654e-05
-6.31524e-06
2.51478e-05
-7.50508e-06
2.88334e-05
-8.39864e-06
3.19156e-05
-8.70999e-06
3.38692e-05
-8.31331e-06
3.45093e-05
-6.2109e-06
3.38087e-05
-2.61453e-06
3.19803e-05
6.53205e-07
2.92571e-05
3.34863e-06
2.62483e-05
5.4487e-06
2.38124e-05
7.08322e-06
2.2328e-05
8.6605e-06
2.13542e-05
1.04986e-05
2.03203e-05
1.24132e-05
1.8699e-05
1.47886e-05
1.69838e-05
1.61606e-05
1.509e-05
1.32673e-05
1.02498e-05
1.71664e-05
3.44013e-05
2.78109e-05
-2.66374e-05
6.31362e-05
-3.41517e-05
8.4851e-05
-2.07451e-05
8.35404e-05
-8.81275e-07
2.29813e-07
1.00139e-05
2.24866e-07
1.94501e-06
7.11028e-06
-5.69984e-07
7.69298e-06
-1.39724e-07
6.63611e-06
1.52537e-06
3.73781e-06
2.00836e-06
-1.01448e-05
5.54548e-06
-5.81694e-06
-8.72333e-07
1.09746e-05
-1.33327e-05
2.81082e-05
-1.37299e-05
3.35945e-05
-4.78521e-06
2.4071e-05
9.52036e-06
2.8131e-06
2.12585e-05
-9.25039e-06
1.20642e-05
-9.24973e-06
1.84832e-05
-4.39475e-05
4.11482e-05
-5.54206e-05
5.6915e-05
-3.51968e-05
2.73222e-05
-3.19562e-06
2.41088e-06
3.43182e-06
3.2096e-06
7.3124e-07
3.16731e-06
-6.92289e-07
2.62712e-06
2.05249e-07
2.41161e-06
1.43866e-06
2.12637e-06
1.96307e-06
5.33275e-06
2.32516e-06
1.22041e-05
1.46684e-07
1.56893e-05
-3.73333e-06
9.66181e-06
-1.4272e-07
7.61855e-06
-1.45886e-07
1.29441e-05
2.06362e-07
1.14116e-05
5.32215e-06
-6.33732e-07
2.41102e-05
-9.88267e-06
7.36915e-06
-2.09952e-06
1.14753e-05
-2.21474e-06
2.39722e-05
-2.18346e-05
5.14614e-06
-1.5778e-06
7.35719e-07
4.45657e-06
2.20993e-06
-8.39215e-07
2.79773e-06
-1.50755e-06
1.56573e-06
1.19523e-06
9.74494e-07
1.78895e-06
3.97909e-06
5.44314e-06
2.90122e-06
6.8529e-06
3.96465e-06
2.54172e-06
-1.21171e-07
2.55248e-07
-1.44444e-07
-1.39222e-07
-1.34685e-07
-1.75421e-07
3.53029e-07
-3.0338e-07
4.00525e-06
1.09559e-06
6.35803e-06
1.11917e-05
-3.52863e-06
1.01516e-06
-3.51605e-06
7.50866e-07
-2.41423e-06
1.88677e-06
-4.03995e-06
3.6222e-06
-2.28269e-06
4.07834e-06
1.81615e-06
7.22572e-06
-1.69176e-06
2.95457e-06
1.20252e-06
1.12515e-08
3.9111e-06
-1.70758e-06
8.45487e-06
-4.58211e-06
7.52058e-06
-1.71883e-06
3.54076e-06
-4.5095e-07
4.63966e-07
-3.09165e-07
8.18752e-08
-6.89505e-08
-3.97341e-07
7.49862e-10
-2.57001e-07
2.22409e-07
-1.55651e-07
6.81671e-07
7.27642e-07
2.27633e-06
2.78673e-06
-5.24725e-07
1.21959e-06
-4.87581e-06
1.11192e-06
-2.79992e-06
1.66387e-06
-2.22396e-06
4.08016e-06
-2.60129e-06
4.53934e-06
1.43853e-06
-7.87192e-07
3.85604e-06
-7.71847e-06
8.19515e-06
-1.35144e-05
9.23766e-06
-1.09487e-05
6.4911e-06
-3.13036e-06
1.45823e-06
-7.07964e-07
5.6939e-07
-5.22464e-07
2.57539e-07
-4.76811e-07
-1.05848e-07
-1.62529e-07
-8.80663e-07
-3.89636e-08
-3.86356e-07
3.34571e-08
-1.00812e-07
2.3792e-07
9.77613e-07
-3.52831e-06
3.28961e-06
-7.69244e-06
-4.88644e-07
-5.10194e-06
-1.34219e-06
-1.00534e-05
-6.36991e-06
-4.28137e-06
-8.52921e-06
-2.51588e-07
-1.15994e-05
4.69706e-06
-1.48473e-05
7.31376e-06
-1.57166e-05
9.246e-06
-7.71643e-06
3.27681e-06
-1.7988e-06
4.83732e-07
-8.00579e-07
4.22343e-07
-5.64791e-07
3.35003e-07
-3.33017e-07
6.85329e-08
-4.50639e-07
-3.28667e-07
-2.17734e-07
-9.94916e-07
2.38193e-09
-9.50381e-07
-1.38425e-07
-2.0299e-09
5.54524e-07
3.41294e-07
-7.34927e-06
5.11602e-06
-1.49748e-05
-1.11433e-05
-1.07174e-05
-1.79081e-05
-3.37817e-06
-2.09353e-05
-1.18729e-06
-2.1681e-05
6.00855e-07
-2.09387e-05
4.14286e-06
-1.64892e-05
5.06173e-06
-4.72437e-06
6.98765e-07
-1.23327e-06
5.3689e-08
-8.64786e-07
6.15725e-08
-4.80235e-07
4.11126e-08
-1.83509e-07
8.1052e-08
-9.59548e-08
3.9856e-08
-5.28659e-08
-6.87762e-07
3.10297e-08
-9.60159e-07
5.58526e-09
-3.83532e-07
-1.23195e-07
1.34355e-07
1.45351e-07
-6.52016e-07
-3.40868e-06
4.9651e-06
-1.83115e-05
-1.8149e-05
3.2231e-06
-2.31657e-05
4.73991e-07
-2.32239e-05
-1.22041e-06
-2.2917e-05
3.0865e-07
-7.72038e-06
1.60702e-06
-1.6286e-06
1.0742e-06
-1.00479e-06
2.88773e-07
-1.04217e-06
-3.54407e-09
-1.01111e-06
6.85013e-08
-6.20416e-07
7.8111e-08
-1.56046e-07
1.17863e-07
3.75706e-08
-3.74271e-08
2.37019e-07
-9.40356e-07
1.33339e-07
-2.89422e-07
4.97781e-08
-1.19423e-08
3.44591e-08
1.13909e-07
3.93846e-07
-5.3615e-08
-2.27932e-06
4.34433e-06
-1.34317e-05
5.79182e-07
-2.12014e-15
1.73423e-07
-2.48708e-17
-5.27883e-08
-4.58397e-16
-1.01879e-07
-1.27439e-14
1.50887e-07
-5.70782e-13
1.20863e-06
-2.48585e-11
3.60615e-06
-6.67622e-10
7.67039e-06
-1.14115e-08
1.31993e-05
-1.60159e-07
1.742e-05
-1.89577e-06
1.87637e-05
-1.00668e-06
1.94377e-05
1.09589e-07
1.99841e-05
1.62736e-06
1.99491e-05
3.33525e-06
1.9642e-05
4.73096e-06
1.95775e-05
5.6327e-06
1.99962e-05
6.34859e-06
1.98149e-05
7.29351e-06
1.78131e-05
9.06908e-06
1.38053e-05
9.86015e-06
9.87835e-06
9.48841e-06
9.0863e-06
1.0842e-05
1.2985e-05
1.99886e-05
-8.83271e-19
-2.10995e-15
-1.96137e-17
-1.49759e-18
-4.78014e-16
3.10646e-21
-1.32219e-14
1.23341e-21
-5.84004e-13
-1.58497e-21
-2.54425e-11
-6.22738e-20
-6.93065e-10
-1.0279e-18
-1.21046e-08
-6.64408e-18
-1.72264e-07
-1.81185e-16
2.14128e-07
-1.19797e-14
2.44141e-06
-2.17732e-13
5.75738e-06
-2.88134e-12
9.2238e-06
2.65008e-13
1.17663e-05
1.83308e-07
1.31724e-05
8.44843e-08
1.32271e-05
-5.27528e-08
1.28989e-05
-1.25791e-07
1.17874e-05
-1.92945e-07
9.34271e-06
-1.56394e-07
5.96276e-06
9.54046e-08
2.94552e-06
1.29306e-07
3.13191e-06
2.67913e-07
-2.65468e-07
5.63259e-06
-3.90661e-18
-2.1014e-15
2.94559e-21
-5.40715e-18
4.13264e-22
7.549e-21
-1.61715e-23
3.34966e-21
-6.86988e-23
-1.53244e-21
2.18371e-22
-6.17794e-20
1.28175e-20
-1.021e-18
2.6486e-19
-6.58786e-18
1.09988e-17
-1.89657e-16
4.12142e-16
-1.19264e-14
1.19739e-14
-2.22904e-13
2.43628e-13
-2.92883e-12
-2.11277e-11
-2.16436e-11
1.92642e-07
-1.33636e-09
2.9272e-07
-2.4805e-09
2.5646e-07
-7.22758e-09
1.39082e-07
-1.33677e-08
-3.9341e-08
-2.97637e-08
-1.85811e-07
-2.29074e-08
-1.36189e-07
-2.47858e-09
-1.23217e-07
4.09023e-08
-3.80312e-08
5.04457e-08
-3.66433e-09
-3.78789e-07
-3.96359e-16
-6.75538e-15
5.92993e-21
-4.01772e-16
1.69728e-21
1.1347e-20
-7.23253e-22
7.45765e-21
-1.33612e-21
-1.03922e-21
-3.46037e-20
-3.00438e-20
-1.21095e-19
-7.23167e-19
-2.71627e-19
-1.26127e-17
3.27216e-17
-4.05881e-16
3.05579e-15
-1.31526e-14
8.76529e-15
-1.69744e-13
-2.44174e-13
-1.58239e-12
-1.41382e-11
-8.24426e-12
-1.08636e-09
-4.79158e-11
-2.93128e-09
-7.00204e-10
-9.31094e-09
-2.4933e-09
-2.36867e-08
-3.60605e-09
-5.37117e-08
-3.53678e-09
-7.72798e-08
-6.00335e-10
-8.68623e-08
7.0469e-10
-6.43957e-08
5.9526e-09
-3.15805e-08
4.11258e-09
3.25339e-09
-6.43735e-08
-2.8203e-14
3.97095e-13
5.16143e-21
-2.86048e-14
2.42376e-21
5.94845e-21
-3.53509e-22
2.96302e-21
-4.13085e-22
-2.08636e-21
-1.22514e-20
-6.504e-20
-8.79031e-19
-1.50947e-18
-1.27459e-17
-2.79439e-17
-1.4351e-16
-3.18571e-16
-8.17801e-15
-3.31156e-15
-1.1692e-13
-3.3559e-14
-5.1689e-13
-2.85873e-13
-1.34478e-11
-1.82743e-12
-1.07476e-10
-6.68892e-12
-9.14897e-10
-4.96604e-11
-3.49125e-09
-4.97336e-10
-7.32466e-09
-8.0521e-10
-1.13766e-08
3.28694e-12
-1.22855e-08
3.75095e-10
-1.28386e-08
1.90861e-10
-9.33549e-09
4.7596e-10
-8.75446e-09
6.36587e-10
7.16165e-10
-1.3181e-08
-1.12021e-13
9.1933e-13
2.3356e-21
-2.95453e-14
9.88447e-22
-5.00386e-24
-1.43794e-21
-1.51058e-22
-2.1341e-21
-1.47558e-21
-7.72902e-20
-2.50882e-20
-3.18583e-18
-4.23364e-19
-1.04956e-16
-5.73133e-18
-5.70475e-16
-5.66263e-17
-1.57797e-15
-4.07167e-16
-2.96635e-14
-3.24174e-15
-2.939e-13
-2.93395e-14
-2.50243e-12
-1.64644e-13
-1.52006e-11
-5.40114e-14
-1.31703e-10
-5.702e-12
-7.04251e-10
-6.75274e-11
-1.56932e-09
-1.08946e-10
-1.69286e-09
5.65027e-11
-1.37622e-09
1.00144e-10
-1.34308e-09
3.19287e-11
-1.26135e-09
6.074e-11
-1.42814e-09
9.98822e-11
1.45391e-10
-2.59325e-09
-6.29436e-14
1.39512e-12
-7.12014e-23
-1.02897e-24
-5.90125e-23
-1.71928e-23
-6.5007e-23
-1.08327e-22
-1.09505e-21
-7.89185e-22
-3.091e-20
-1.17889e-20
-7.52895e-19
-1.43925e-19
-1.46026e-17
-1.33055e-18
-1.92172e-16
-9.07251e-18
-1.34729e-15
-4.17559e-17
-7.31561e-15
-8.83429e-17
-5.67775e-14
2.72899e-16
-3.07334e-13
1.3404e-15
-1.48533e-12
-4.38672e-14
-2.49546e-11
-1.25305e-12
-1.26598e-10
-1.07968e-11
-2.53004e-10
-1.28316e-11
-2.21682e-10
1.16234e-11
-1.32377e-10
1.55298e-11
-1.29569e-10
5.21881e-12
-1.46352e-10
9.69248e-12
-2.41723e-10
1.73117e-11
2.40568e-11
-5.45002e-10
-3.67836e-24
1.8103e-12
-9.18619e-24
4.51532e-25
-1.48138e-23
-1.4483e-23
-6.15168e-23
-5.78157e-23
-8.93723e-22
-2.64273e-22
-2.08368e-20
-2.99562e-21
-3.87172e-19
-2.73109e-20
-5.68336e-18
-1.72208e-19
-6.79957e-17
-5.12326e-19
-6.30007e-16
4.89704e-18
-3.12888e-15
9.6182e-17
-9.24422e-15
5.38628e-16
-3.92833e-14
1.39755e-15
-3.15415e-13
-8.23722e-15
-3.45354e-12
-1.93722e-13
-1.81681e-11
-1.36328e-12
-3.47556e-11
-1.31968e-12
-2.70201e-11
1.52375e-12
-1.38498e-11
1.96802e-12
-1.36691e-11
8.0988e-13
-1.85176e-11
1.59136e-12
-4.01457e-11
2.9069e-12
3.52208e-12
-1.02362e-10
-2.34614e-23
2.23019e-12
-2.96331e-23
2.56411e-24
-1.77746e-23
-2.8014e-23
-2.94538e-23
-1.15686e-23
-3.93195e-22
-3.86603e-23
-6.42713e-21
-3.70138e-22
-1.03604e-19
-2.38014e-21
-1.33332e-18
-4.78956e-21
-1.42659e-17
1.39663e-19
-1.2667e-16
2.4323e-18
-8.79981e-16
2.49783e-17
-3.89855e-15
1.92695e-16
-1.37752e-14
8.01812e-16
-6.89335e-14
1.15014e-15
-4.35228e-13
-1.38579e-14
-2.21922e-12
-1.11528e-13
-4.13323e-12
-1.06961e-13
-3.19172e-12
1.74111e-13
-1.62021e-12
2.25388e-13
-1.6279e-12
1.20514e-13
-2.55996e-12
2.47063e-13
-6.48273e-12
4.63887e-13
5.14339e-13
-1.76878e-11
-1.17415e-20
2.62029e-12
-7.94729e-21
1.91487e-20
-4.64043e-24
-7.92525e-21
-6.13823e-24
-2.00395e-24
-6.65682e-23
-3.41087e-24
-1.08199e-21
-2.53444e-23
-1.61034e-20
-5.14195e-23
-1.95657e-19
1.80443e-21
-1.91647e-18
3.30402e-20
-1.53154e-17
3.56702e-19
-1.04992e-16
3.03231e-18
-6.2628e-16
2.2907e-17
-2.84533e-15
1.53318e-16
-1.17391e-14
7.05323e-16
-5.91979e-14
1.48872e-15
-2.40266e-13
-5.72409e-15
-4.39519e-13
-4.38473e-15
-3.47503e-13
2.19278e-14
-1.8754e-13
2.727e-14
-1.96546e-13
1.73128e-14
-3.63036e-13
3.79061e-14
-1.01735e-12
7.48118e-14
9.0416e-14
-2.88111e-12
-4.25422e-20
2.73103e-12
-1.09857e-20
8.28137e-21
-1.3359e-24
-7.27081e-21
-9.94118e-25
-9.47331e-25
-6.81732e-24
-2.23943e-25
-1.22886e-22
-8.40996e-25
-1.78119e-21
1.49273e-23
-2.00589e-20
3.3573e-22
-1.8175e-19
4.05227e-21
-1.38629e-18
3.83974e-20
-9.46962e-18
3.19113e-19
-6.02443e-17
2.45236e-18
-3.71368e-16
1.77716e-17
-1.93997e-15
1.21774e-16
-6.90176e-15
5.7597e-16
-2.48007e-14
1.45235e-15
-4.47657e-14
1.27721e-15
-3.69791e-14
3.05058e-15
-2.17866e-14
3.39367e-15
-2.32205e-14
2.77133e-15
-5.07757e-14
6.27046e-15
-1.53605e-13
1.31542e-14
2.09386e-14
-4.40867e-13
-1.9334e-20
3.55529e-14
-9.7068e-21
9.06311e-21
-6.02691e-25
-2.69733e-21
-2.36712e-25
-2.63128e-25
-7.10776e-25
-1.2155e-26
-1.18207e-23
6.43831e-26
-1.59707e-22
2.832e-24
-1.69722e-21
4.09518e-23
-1.51592e-20
4.45537e-22
-1.19872e-19
4.31364e-21
-8.62889e-19
3.81646e-20
-5.7621e-18
3.02906e-19
-3.69529e-17
2.1159e-18
-2.37741e-16
1.46222e-17
-1.29005e-15
9.53554e-17
-3.08903e-15
4.21686e-16
-4.61711e-15
6.50446e-16
-3.93753e-15
7.31243e-16
-2.54485e-15
6.25842e-16
-2.77954e-15
5.81424e-16
-6.87967e-15
1.24309e-15
-2.25614e-14
3.05997e-15
6.5968e-15
-6.34582e-14
-4.21343e-20
6.09305e-16
-4.48306e-21
1.01256e-20
-3.68383e-25
-5.99654e-22
-2.17144e-26
-7.05711e-26
-5.75959e-26
-4.27958e-28
-1.00846e-24
1.69068e-26
-1.32633e-23
3.90441e-25
-1.42628e-22
5.18118e-24
-1.31498e-21
5.50866e-23
-1.11393e-20
5.21872e-22
-8.6793e-20
4.54775e-21
-6.12846e-19
3.63471e-20
-3.85714e-18
2.59052e-19
-2.60756e-17
1.80545e-18
-1.58008e-16
1.13572e-17
-4.44913e-16
4.96825e-17
-5.79216e-16
1.09998e-16
-4.66847e-16
1.29618e-16
-3.33333e-16
9.9336e-17
-3.9352e-16
1.43351e-16
-1.0449e-15
3.66881e-16
-3.35762e-15
9.28871e-16
3.10548e-15
-9.23253e-15
-1.488e-17
4.05304e-15
-7.08576e-21
2.14048e-18
-1.54626e-25
1.34982e-22
-2.4502e-27
-1.93616e-26
-5.36424e-27
6.97765e-29
-8.35265e-26
2.99804e-27
-1.20109e-24
5.51371e-26
-1.34674e-23
6.6138e-25
-1.2883e-22
6.69411e-24
-1.10962e-21
6.19866e-23
-8.77718e-21
5.35002e-22
-6.35132e-20
4.27696e-21
-4.12792e-19
3.16642e-20
-2.86133e-18
2.21157e-19
-1.69148e-17
1.33351e-18
-5.18059e-17
5.43687e-18
-6.73127e-17
1.21697e-17
-5.19563e-17
1.63206e-17
-5.5997e-17
2.48961e-17
-8.61026e-17
4.36569e-17
-2.13406e-16
1.33862e-16
-6.22865e-16
3.78091e-16
1.88259e-15
-1.7199e-15
-3.41077e-18
3.50508e-15
-6.03698e-21
8.55338e-18
-9.18459e-26
5.37231e-22
-6.062e-28
-6.75613e-27
-8.54347e-28
1.49823e-28
-8.99325e-27
5.10617e-28
-1.22556e-25
7.05282e-27
-1.33831e-24
7.8538e-26
-1.27829e-23
7.87094e-25
-1.10974e-22
7.33144e-24
-8.86912e-22
6.33078e-23
-6.50196e-21
5.03011e-22
-4.43101e-20
3.76822e-21
-3.07706e-19
2.61422e-20
-1.72292e-18
1.52679e-19
-4.99712e-18
6.02072e-19
-7.14192e-18
1.43646e-18
-9.30192e-18
2.66128e-18
-1.59527e-17
8.61505e-18
-4.44199e-17
3.54042e-17
-3.43217e-16
2.9576e-16
-4.41241e-15
3.40549e-15
3.70587e-14
-4.37644e-14
-2.64865e-18
1.62101e-15
-3.78083e-21
9.79099e-18
-8.39036e-26
7.41654e-22
-5.92284e-28
1.55326e-27
-2.65545e-28
1.6741e-28
-1.12441e-27
7.77398e-29
-1.22965e-26
8.88637e-28
-1.29566e-25
9.50339e-27
-1.2559e-24
9.02745e-26
-1.11746e-23
8.27764e-25
-9.05863e-23
7.3055e-24
-6.67181e-22
5.81144e-23
-4.64196e-21
4.28819e-22
-3.17534e-20
2.97235e-21
-1.62156e-19
1.69651e-20
-4.48735e-19
6.83834e-20
-8.09736e-19
2.08291e-19
-1.81903e-18
7.89476e-19
-8.38958e-18
6.01941e-18
-6.7355e-17
5.8617e-17
-5.6788e-16
6.58374e-16
-6.71633e-15
7.8819e-15
9.70816e-14
-7.86565e-14
-2.48044e-18
7.51933e-16
-2.27448e-21
9.30426e-18
-1.15641e-25
6.90815e-22
-1.0924e-27
1.46673e-26
-2.89437e-29
3.53597e-28
-1.34634e-28
2.2372e-29
-1.2756e-27
1.03934e-28
-1.30857e-26
1.03887e-27
-1.22834e-25
1.00823e-26
-1.09293e-24
9.08043e-26
-9.13406e-24
7.95826e-25
-6.77792e-23
6.4589e-24
-4.64901e-22
4.64312e-23
-3.05949e-21
3.27447e-22
-1.43535e-20
1.90681e-21
-4.33476e-20
8.97591e-21
-1.33707e-19
4.42275e-20
-7.19996e-19
3.66204e-19
-6.83838e-18
4.86349e-18
-7.05762e-17
6.47695e-17
-4.42411e-16
7.36278e-16
-1.9387e-15
7.63125e-15
9.61092e-14
-1.46643e-14
-2.32845e-18
4.52235e-16
-1.32484e-21
8.71611e-18
-2.53942e-25
4.47005e-22
-2.59686e-27
5.95092e-26
-1.27021e-29
1.07809e-27
-2.6828e-29
8.27415e-30
-1.27241e-28
1.21633e-29
-1.23341e-27
1.04614e-28
-1.18426e-26
1.02996e-27
-1.04497e-25
9.64845e-27
-8.77693e-25
8.17863e-26
-6.65081e-24
6.83878e-25
-4.39235e-23
4.99894e-24
-2.78942e-22
3.55324e-23
-1.32883e-21
2.25938e-22
-5.5303e-21
1.37822e-21
-3.14029e-20
1.11852e-20
-2.97354e-19
1.47579e-19
-3.54591e-18
2.26978e-18
-4.38975e-17
3.32309e-17
-4.10856e-16
3.90307e-16
3.72813e-16
3.351e-15
2.67289e-14
5.61671e-14
-2.28959e-18
3.44953e-16
-6.04856e-22
8.86587e-18
-6.47706e-25
1.62697e-22
-7.62796e-27
1.93907e-25
-2.3488e-29
3.35705e-27
-2.41372e-30
1.35294e-29
-1.31417e-29
3.06526e-30
-1.09873e-28
1.0485e-29
-1.06593e-27
9.69099e-29
-9.68688e-27
9.40726e-28
-7.96565e-26
8.24601e-27
-6.19906e-25
6.85315e-26
-4.08641e-24
5.23066e-25
-2.52519e-23
3.77365e-24
-1.33843e-22
2.69262e-23
-7.55552e-22
2.0388e-22
-6.27698e-21
2.11413e-21
-7.24393e-20
2.93219e-20
-8.91723e-19
4.1724e-19
-1.10995e-17
5.59671e-18
-1.33043e-16
7.12092e-17
-4.48169e-16
7.48851e-16
5.15947e-15
1.11773e-14
-2.36026e-18
3.2127e-16
-2.98352e-22
9.47683e-18
-1.83525e-24
1.21627e-22
-2.4942e-26
6.05225e-25
-8.81723e-29
1.01954e-26
-6.06484e-31
5.81179e-29
-2.73295e-30
5.21457e-31
-9.84041e-30
9.77563e-31
-8.95967e-29
8.41143e-30
-8.33599e-28
8.44282e-29
-7.00056e-27
7.79934e-28
-5.44757e-26
6.44682e-27
-3.67866e-25
5.23319e-26
-2.25975e-24
3.88846e-25
-1.36581e-23
3.05341e-24
-9.55013e-23
2.67371e-23
-9.01592e-22
2.95135e-22
-1.00794e-20
3.70098e-21
-1.14051e-19
4.66732e-20
-1.22977e-18
5.71243e-19
-1.21227e-17
6.61447e-18
-6.97533e-17
7.28142e-17
7.57382e-16
3.67761e-16
-2.46308e-18
3.37812e-16
-3.13268e-22
1.0424e-17
-5.10798e-24
1.54545e-22
-7.43169e-26
1.69504e-24
-3.5018e-28
2.50551e-26
-1.11481e-30
2.06586e-28
-1.65007e-31
7.04083e-31
-8.26949e-31
1.79168e-31
-6.98756e-30
7.00601e-31
-6.63646e-29
6.97116e-30
-5.7502e-28
6.80957e-29
-4.45122e-27
5.73278e-28
-3.13458e-26
4.96455e-27
-1.95692e-25
4.03997e-26
-1.31865e-24
3.41135e-25
-1.05527e-23
3.26895e-24
-1.03928e-22
3.58831e-23
-1.10165e-21
4.48865e-22
-1.11891e-20
5.52152e-21
-1.01588e-19
6.48105e-20
-7.31753e-19
7.24552e-19
-3.57057e-18
8.0163e-18
1.03447e-16
9.11893e-18
-2.54695e-18
3.64709e-16
-5.93902e-22
1.16096e-17
-1.40112e-23
6.36523e-22
-2.13131e-25
4.58344e-24
-1.10319e-27
5.36245e-26
-4.86245e-30
5.28208e-28
-4.67067e-32
3.31446e-30
-1.15956e-31
3.71622e-32
-5.16919e-31
5.12871e-32
-4.83429e-30
5.19287e-31
-4.33342e-29
5.36963e-30
-3.3825e-28
4.85103e-29
-2.49573e-27
4.24562e-28
-1.66926e-26
3.77867e-27
-1.19156e-25
3.49194e-26
-1.01358e-24
3.56942e-25
-9.68632e-24
3.93917e-24
-9.82614e-23
4.87263e-23
-8.83256e-22
6.13871e-22
-6.18195e-21
7.29535e-21
-2.1188e-20
8.63435e-20
3.38323e-19
1.08617e-18
1.65205e-17
1.42245e-17
-2.52608e-18
4.16941e-16
-2.56975e-21
1.38785e-17
-4.6867e-23
4.36346e-21
-8.45748e-25
1.5784e-23
-3.08597e-27
1.2913e-25
-1.32759e-29
1.15445e-27
-7.51771e-32
7.66022e-30
-7.21719e-33
4.7361e-32
-3.34944e-32
4.89719e-33
-3.13853e-31
3.47474e-32
-2.91711e-30
3.77113e-31
-2.37702e-29
3.62668e-30
-1.76717e-28
3.25403e-29
-1.26068e-27
3.08117e-28
-9.61715e-27
3.0186e-27
-8.36837e-26
3.2132e-26
-7.49618e-25
3.57914e-25
-6.6097e-24
4.57792e-24
-4.51231e-23
5.9934e-23
-9.28949e-23
7.54197e-22
4.90654e-21
9.99611e-21
1.48302e-19
1.36313e-19
1.91532e-18
3.40533e-18
-2.05098e-18
5.21462e-16
-1.70293e-20
2.13541e-17
-2.72581e-22
3.84377e-20
-5.90798e-24
1.02221e-22
-1.43092e-26
1.34844e-25
-2.92137e-29
3.73681e-27
-1.5327e-31
1.50695e-29
-1.47727e-33
1.03219e-31
-2.34616e-33
1.24404e-33
-1.778e-32
2.02852e-33
-1.70517e-31
2.34158e-32
-1.44004e-30
2.38291e-31
-1.0836e-29
2.23465e-30
-7.98448e-29
2.21194e-29
-6.20534e-28
2.24204e-28
-5.25683e-27
2.432e-27
-4.15668e-26
2.7512e-26
-2.67574e-25
3.9084e-25
1.89068e-26
5.39358e-24
4.92946e-23
7.41123e-23
1.3373e-21
9.94523e-22
2.76809e-20
1.34811e-20
1.91394e-19
5.46175e-19
5.86911e-18
7.05437e-16
-1.04165e-19
6.51131e-17
-2.10327e-21
4.03603e-19
-4.29117e-23
1.03732e-21
-1.29677e-25
-4.92691e-24
-8.60077e-29
1.28344e-26
-2.66879e-31
4.43284e-29
-1.45145e-33
1.39317e-31
-1.74523e-34
1.00957e-33
-8.40414e-34
8.50952e-35
-8.40041e-33
1.29278e-33
-7.31484e-32
1.36675e-32
-5.58109e-31
1.37343e-31
-4.08961e-30
1.40637e-30
-3.03705e-29
1.45012e-29
-2.23643e-28
1.57497e-28
-1.17375e-27
2.11364e-27
5.05301e-27
3.15943e-26
3.95998e-25
4.55742e-25
9.99027e-24
6.1808e-24
1.98472e-22
9.34061e-23
3.72559e-21
1.15853e-21
1.71072e-20
6.96965e-20
6.29559e-17
7.34958e-16
-1.09466e-19
2.04044e-16
-1.22354e-20
3.94769e-18
-2.31399e-22
1.26123e-20
-9.2347e-25
-6.09184e-23
-7.5992e-28
-7.85294e-26
-8.22369e-32
4.17246e-28
-5.69823e-34
5.14829e-32
-7.43449e-36
2.89782e-34
-2.71788e-35
2.33186e-35
-3.35454e-34
9.10043e-35
-2.94416e-33
6.93887e-34
-2.26121e-32
7.56656e-33
-1.54871e-31
7.93574e-32
-9.43543e-31
8.39248e-31
-3.45186e-30
1.06741e-29
5.91882e-29
1.81697e-28
2.61439e-27
3.08905e-27
6.16703e-26
4.89885e-26
1.37909e-24
1.83513e-24
2.07464e-23
5.17465e-23
3.93379e-22
1.16067e-22
1.32219e-21
7.42691e-21
1.01326e-16
6.84718e-16
1.04317e-17
3.89025e-16
-1.1017e-20
2.59406e-17
-7.77383e-22
1.40936e-19
-4.83595e-24
-4.99362e-22
-4.68292e-27
-1.6897e-24
-1.25998e-31
3.43073e-27
-8.90249e-35
2.00904e-31
-7.23603e-37
1.32364e-34
-3.46202e-36
2.54794e-36
-1.32566e-35
2.39302e-35
-8.24958e-35
5.07562e-35
-5.84039e-34
5.48192e-34
-2.75563e-33
4.45222e-33
2.94837e-33
5.46578e-32
6.1199e-31
7.33143e-31
1.88231e-29
1.06725e-28
5.01358e-28
2.00858e-27
1.16677e-26
2.83621e-26
1.27186e-25
2.80693e-25
4.46269e-25
1.36803e-24
3.40016e-23
7.37513e-23
2.16306e-22
6.44317e-22
1.04787e-16
5.74946e-16
3.45704e-17
4.43581e-16
1.13545e-18
6.21867e-17
4.23607e-21
1.20202e-18
-3.32164e-24
-1.93314e-21
-7.63404e-27
-4.70096e-23
-2.38493e-31
3.04397e-26
-1.93038e-34
1.62163e-30
-2.30754e-37
1.81869e-33
-9.35175e-38
2.57236e-36
-7.25115e-37
1.8026e-36
-7.07978e-37
1.17109e-35
3.52473e-36
2.68017e-34
1.80061e-34
4.16657e-34
4.12222e-33
3.52526e-33
1.25204e-31
6.43749e-32
3.26487e-31
1.91893e-30
-1.25289e-29
-5.55321e-29
-2.92491e-27
-1.01176e-26
-9.41539e-26
-2.60234e-25
-2.10281e-24
-4.72098e-24
-9.66817e-24
-1.78315e-23
7.16115e-23
5.26117e-23
7.10328e-17
3.6505e-16
4.25812e-17
4.1033e-16
4.08887e-18
7.45003e-17
7.96724e-20
2.63232e-18
8.84414e-22
9.01276e-21
7.80807e-24
-4.54957e-23
1.10852e-25
7.56164e-24
9.82822e-28
1.20436e-25
5.96762e-30
1.01045e-27
2.92595e-32
6.02194e-30
2.79287e-34
2.91811e-32
1.085e-35
1.38287e-34
2.65023e-36
2.69778e-35
2.87986e-35
1.54489e-34
6.76239e-34
2.07543e-34
7.4941e-33
4.03971e-32
-1.82184e-30
-7.90238e-30
-5.47831e-29
-1.92868e-28
-3.40083e-27
-9.80578e-27
-8.51874e-26
-2.02792e-25
-1.47684e-24
-2.92121e-24
-8.99751e-24
-1.48519e-23
-3.17035e-23
-2.29624e-23
2.60538e-17
1.41527e-16
4.23227e-17
2.82536e-16
5.68266e-18
7.18946e-17
1.91962e-19
2.97528e-18
4.34138e-21
2.77132e-20
8.7676e-23
5.51108e-22
1.218e-24
4.87298e-23
2.69343e-26
1.46366e-24
3.88953e-28
2.74402e-26
4.39825e-30
3.91166e-28
4.47305e-32
4.57016e-30
7.24019e-34
4.68958e-32
5.14763e-35
4.63501e-34
5.33167e-36
2.87721e-35
3.89273e-35
1.38338e-35
-1.972e-33
-8.20766e-33
-1.51316e-30
-5.36657e-30
-4.2348e-29
-1.27048e-28
-2.37358e-27
-6.0081e-27
-5.20945e-26
-1.11214e-25
-7.46424e-25
-1.34427e-24
-4.37188e-24
-6.6399e-24
-1.87311e-23
-1.46442e-23
4.77157e-18
3.40317e-17
2.43766e-17
1.36905e-16
5.11061e-18
4.01176e-17
2.02742e-19
1.96846e-18
6.30865e-21
3.58081e-20
1.84494e-22
1.33675e-21
3.95158e-24
7.90659e-23
6.64168e-26
2.74671e-24
1.12545e-27
7.01124e-26
2.42893e-29
1.5029e-27
3.95923e-31
2.7002e-29
5.88142e-33
4.17479e-31
1.54686e-34
5.91024e-33
1.98816e-36
7.74435e-35
3.15469e-36
4.75986e-36
-2.49528e-33
-8.78531e-33
-9.43207e-31
-2.92441e-30
-2.59574e-29
-6.9866e-29
-1.38079e-27
-3.19832e-27
-2.68479e-26
-5.32269e-26
-3.2327e-25
-5.46417e-25
-1.70852e-24
-2.45335e-24
-6.95067e-24
-5.72131e-24
5.63716e-19
6.66751e-18
9.72805e-18
4.58167e-17
2.39097e-18
1.16855e-17
1.08135e-19
5.93717e-19
4.19417e-21
1.65667e-20
1.53687e-22
9.10338e-22
4.24613e-24
6.0025e-23
9.23241e-26
2.57659e-24
1.7242e-27
8.03017e-26
2.83524e-29
1.91235e-27
4.26034e-31
3.82923e-29
6.45565e-33
6.72661e-31
1.71259e-34
1.17319e-32
2.28024e-36
2.02076e-34
1.75715e-36
4.52117e-36
-1.76819e-33
-5.60762e-33
-5.11704e-31
-1.45878e-30
-1.40587e-29
-3.54002e-29
-7.06271e-28
-1.55179e-27
-1.22221e-26
-2.32295e-26
-1.25318e-25
-2.04654e-25
-5.79166e-25
-8.07742e-25
-2.22624e-24
-1.88093e-24
9.22099e-20
1.2877e-18
3.17032e-18
1.10898e-17
6.86976e-19
2.38351e-18
3.42872e-20
1.26239e-19
1.57652e-21
5.15916e-21
6.63434e-23
3.30068e-22
2.21079e-24
2.03875e-23
5.96148e-26
9.57542e-25
1.35511e-27
3.63106e-26
2.66168e-29
1.07271e-27
4.72572e-31
2.749e-29
7.96995e-33
6.3092e-31
1.33731e-34
1.26942e-32
3.3402e-36
2.24817e-34
2.3455e-36
5.20782e-36
-1.04318e-33
-3.13037e-33
-2.48904e-31
-6.80527e-31
-6.8743e-30
-1.68013e-29
-3.22689e-28
-6.95094e-28
-4.99277e-27
-9.37634e-27
-4.41353e-26
-7.16263e-26
-1.7303e-25
-2.4069e-25
-6.85213e-25
-5.79424e-25
2.62794e-20
2.39726e-19
8.74196e-19
2.18883e-18
1.54513e-19
4.23022e-19
8.09153e-21
2.44245e-20
4.08497e-22
1.31035e-21
1.85263e-23
8.8512e-23
6.81667e-25
5.12784e-24
2.09754e-26
2.35455e-25
5.55517e-28
9.13596e-27
1.28276e-29
3.07606e-28
2.66033e-31
9.03968e-30
5.16363e-33
2.41134e-31
9.62426e-35
5.40448e-33
2.28206e-36
1.11343e-34
1.61869e-36
3.1846e-36
-5.38396e-34
-1.59479e-33
-1.09385e-31
-2.97911e-31
-3.04706e-30
-7.48247e-30
-1.32392e-28
-2.88641e-28
-1.83938e-27
-3.51662e-27
-1.41698e-26
-2.3508e-26
-4.5345e-26
-6.46203e-26
-2.21878e-25
-1.83049e-25
7.14176e-21
4.07364e-20
2.01083e-19
3.71303e-19
2.89863e-20
6.68955e-20
1.49855e-21
4.23574e-21
7.9924e-23
2.71608e-22
3.83198e-24
1.85282e-23
1.5166e-25
1.04572e-24
5.07666e-27
4.8459e-26
1.46586e-28
1.91745e-27
3.71307e-30
6.56569e-29
8.48086e-32
1.96823e-30
1.80826e-33
5.25495e-32
3.68032e-35
1.28639e-33
1.0477e-36
2.85811e-35
5.97896e-37
1.63683e-36
-2.45739e-34
-7.47151e-34
-4.3426e-32
-1.22179e-31
-1.22158e-30
-3.11841e-30
-4.87577e-29
-1.11116e-28
-6.10398e-28
-1.22507e-27
-4.13293e-27
-7.21773e-27
-1.03287e-26
-1.55185e-26
-8.02187e-26
-6.28214e-26
1.52889e-21
6.19504e-21
3.75578e-20
5.44395e-20
4.39787e-21
9.26397e-21
2.21302e-22
6.4599e-22
1.23865e-23
4.62139e-23
6.23266e-25
3.12928e-24
2.61433e-26
1.74853e-25
9.30591e-28
8.21425e-27
2.85507e-29
3.31678e-28
7.6866e-31
1.15956e-29
1.86341e-32
3.54984e-31
4.19052e-34
9.67839e-33
8.87231e-36
2.39948e-34
5.54327e-36
5.32801e-36
3.59943e-38
1.22706e-37
-9.92725e-35
-3.2189e-34
-1.55052e-32
-4.67443e-32
-4.40151e-31
-1.20992e-30
-1.60421e-29
-3.9541e-29
-1.81342e-28
-3.95022e-28
-1.08469e-27
-2.0612e-27
-2.06317e-27
-3.37666e-27
-3.12093e-26
-2.24442e-26
2.60876e-22
8.44241e-22
5.65829e-21
6.98591e-21
5.37286e-22
1.1438e-21
2.68367e-23
8.74718e-23
1.58315e-24
6.64478e-24
8.30722e-26
4.45674e-25
3.64044e-27
2.4852e-26
1.35331e-28
1.17864e-27
4.33131e-30
4.81094e-29
1.21543e-31
1.7008e-30
3.06115e-33
5.26603e-32
7.10729e-35
1.45045e-33
1.54041e-36
3.62254e-35
1.25696e-36
8.11044e-37
-5.04248e-38
-1.90052e-37
-3.53443e-35
-1.27128e-34
-4.93815e-33
-1.65859e-32
-1.41078e-31
-4.3413e-31
-4.67149e-30
-1.29458e-29
-4.7701e-29
-1.17295e-28
-2.52547e-28