/*--------------------------------*- C++ -*----------------------------------*\
| =========                 |                                                 |
| \\      /  F ield         | OpenFOAM: The Open Source CFD Toolbox           |
|  \\    /   O peration     | Version:  2206                                  |
|   \\  /    A nd           | Website:  www.openfoam.com                      |
|    \\/     M anipulation  |                                                 |
\*---------------------------------------------------------------------------*/
FoamFile
{
    version     2.0;
    format      ascii;
    arch        "LSB;label=32;scalar=64";
    class       volScalarField;
    location    "0.9";
    object      p_rgh;
}
// * * * * * * * * * * * * * * * * * * * * * * * * * * * * * * * * * * * * * //

dimensions      [1 -1 -2 0 0 0 0];

internalField   nonuniform List<scalar> 
2268
(
1481.36
1481.94
1482.85
1483.9
1485.19
1486.86
1488.9
1491.22
1493.73
1496.34
1499.03
1501.72
1504.35
1506.88
1509.26
1511.48
1513.52
1515.38
1517.1
1518.73
1520.4
1522.4
1523.18
1479.28
1479.85
1480.88
1482.05
1483.58
1485.54
1487.84
1490.41
1493.16
1496.04
1498.94
1501.81
1504.59
1507.26
1509.75
1512.03
1514.12
1516.01
1517.69
1519.36
1521.15
1523.17
1524.43
1475.13
1475.73
1476.92
1478.43
1480.48
1483
1485.88
1489
1492.29
1495.66
1499.03
1502.31
1505.46
1508.37
1510.96
1513.19
1515.01
1516.32
1517.11
1517.07
1515.97
1512.47
1489.99
1468.69
1469.44
1470.86
1472.91
1475.77
1479.17
1482.93
1486.92
1491.04
1495.2
1499.3
1503.24
1506.94
1510.31
1513.36
1515.96
1518.02
1519.41
1519.93
1519.41
1516.81
1483.23
1466.65
1458.96
1459.89
1461.96
1465.15
1469.31
1473.92
1478.88
1484.11
1489.49
1494.87
1500.11
1505.09
1509.71
1513.95
1517.74
1521.08
1523.95
1526.34
1528.14
1528.97
1528.45
1502.56
1465.46
1444.92
1445.53
1448.66
1454.79
1460.81
1467.1
1473.66
1480.58
1487.72
1494.78
1501.47
1507.69
1513.39
1518.51
1523.04
1527
1530.39
1533.24
1535.6
1537.56
1539.01
1539.08
1518.4
1428.29
1427.52
1430.82
1437.97
1446.61
1455.77
1465.28
1475.24
1485.43
1495.27
1504.2
1511.91
1518.64
1524.51
1529.62
1533.93
1537.4
1540.02
1541.87
1543.18
1544.11
1546.03
1546.77
1248.57
1173.76
1175.03
1199.53
1252.87
1321.5
1386.76
1438.29
1475.64
1496.27
1507.96
1517.4
1526.24
1533.47
1539.29
1543.73
1546.64
1548.21
1548.71
1548.31
1517.1
1529.36
1548.12
291.468
280.575
223.788
151.852
91.5733
55.134
49.2069
51.5669
54.341
55.0715
64.1106
102.578
123.648
130.416
122.482
135.816
161.369
188.505
195.494
259.267
229.593
189.63
131.798
59.2218
41.8865
40.7428
39.339
41.1613
45.7141
45.1224
54.2848
126.825
100.133
39.9078
40.646
92.2375
185.288
200.603
158.765
95.0631
159.985
101.746
33.896
37.1973
37.9357
36.894
38.0708
53.4275
83.5989
71.0116
13.7744
13.0727
12.8378
13.1242
14.5815
154.806
237.626
26.8341
23.7959
23.65
36.1816
31.3949
63.0967
55.9532
30.6056
44.0273
84.594
75.1456
12.5051
12.3474
12.2887
12.0272
14.0949
13.9654
76.8073
272.404
21.7685
16.4767
16.1292
58.5082
43.2685
76.0178
70.571
71.6027
70.4757
43.8346
9.02825
8.77739
10.1599
11.5873
10.7371
9.88266
16.0357
36.2096
266.672
25.1705
31.4625
63.2968
75.0449
77.5759
78.2294
81.8263
63.6204
10.6088
6.29581
6.06833
6.04888
7.94924
9.94695
10.5433
9.21366
13.2178
64.3306
349.825
81.7189
113.895
100.455
94.0235
94.4982
95.1613
18.5062
9.49453
6.04981
5.95599
5.54673
4.981
7.13509
8.53838
9.20463
7.57759
21.4327
75.4465
409.335
181.09
146.963
128.038
123.443
80.74
8.59915
4.51723
5.59014
7.68076
6.84404
5.69699
4.66193
6.81443
6.6448
4.38838
5.7648
19.1816
79.8735
454.668
70.7513
43.9096
62.4948
82.8852
127.845
203.933
323.677
497.784
751.935
1063.29
1253.2
1322.47
1355.92
1386.24
1420.52
1449.92
1452.81
1433.86
1396.07
1329.93
1272.78
1337.83
1471.22
0.355644
0.355259
0.350806
0.34057
0.327929
0.316209
0.30512
0.284247
0.284199
7.60369
73.0797
164.371
265.677
364.7
457.614
533.646
535.918
506.807
491.503
497.795
513.718
491.217
399.064
0.348351
0.346003
0.337841
0.324465
0.309739
0.294614
0.277741
0.259219
0.241359
0.215622
0.149982
0.100012
0.0541459
0.0267363
0.322209
0.848837
1.48074
2.07849
2.81092
3.2001
3.52286
2.50408
1.44688
0.333565
0.324547
0.316147
0.305676
0.293448
0.279828
0.265009
0.249962
0.229724
0.194549
0.151322
0.107886
0.0687779
0.044359
0.0701935
0.206118
0.422606
0.596185
0.629612
0.575251
0.690916
0.740739
0.840981
0.313065
0.304772
0.298433
0.289271
0.278167
0.265718
0.252373
0.237997
0.22084
0.197668
0.166714
0.132127
0.100091
0.0816705
0.0790089
0.115956
0.189865
0.244203
0.261855
0.282267
0.339338
0.389984
0.445731
0.297204
0.290019
0.284325
0.275291
0.265051
0.253942
0.242126
0.229282
0.214728
0.197411
0.176567
0.153267
0.130741
0.114277
0.110522
0.124565
0.152959
0.173478
0.188921
0.220554
0.26104
0.287309
0.292877
0.282819
0.276614
0.270989
0.263027
0.253894
0.244045
0.233716
0.22266
0.210576
0.197219
0.182575
0.167452
0.153279
0.142509
0.138902
0.145647
0.157798
0.1656
0.17372
0.192991
0.215543
0.226748
0.219698
0.269401
0.264373
0.259472
0.252442
0.244521
0.235951
0.226882
0.217204
0.20691
0.196147
0.185174
0.174669
0.165805
0.159441
0.156853
0.159138
0.163706
0.165949
0.168393
0.1757
0.183086
0.18262
0.170506
0.257545
0.253092
0.248912
0.242919
0.236231
0.228832
0.220889
0.212408
0.203526
0.194423
0.185539
0.177478
0.170914
0.166281
0.163751
0.163034
0.162731
0.161253
0.159745
0.159702
0.158353
0.151569
0.137149
0.246266
0.242398
0.23883
0.233896
0.228227
0.221704
0.214545
0.206926
0.199098
0.191281
0.18378
0.17699
0.171288
0.166849
0.163526
0.160745
0.157597
0.15353
0.149128
0.144793
0.138897
0.129181
0.114241
0.235378
0.232176
0.229134
0.225031
0.220156
0.21432
0.207813
0.200868
0.193789
0.186817
0.180179
0.174088
0.168698
0.16401
0.159802
0.15562
0.150912
0.145365
0.139144
0.132246
0.123771
0.112543
0.0977354
0.224958
0.222355
0.219656
0.216061
0.211666
0.206277
0.200245
0.193886
0.187458
0.181135
0.175071
0.169378
0.164099
0.159148
0.154288
0.149178
0.143481
0.136995
0.129675
0.121354
0.11154
0.0996681
0.0852929
0.21525
0.212988
0.210348
0.206896
0.202694
0.197593
0.191934
0.18605
0.180166
0.174388
0.168778
0.163372
0.158158
0.15303
0.14777
0.142104
0.135786
0.128667
0.120664
0.111611
0.101226
0.0892462
0.0754144
0.206147
0.204022
0.201118
0.197467
0.19322
0.188284
0.182944
0.17749
0.172092
0.166795
0.161599
0.15648
0.151386
0.146211
0.140773
0.134844
0.128216
0.120759
0.112394
0.102987
0.0923756
0.0804482
0.067009
0.197217
0.195211
0.191786
0.187703
0.183258
0.17842
0.173369
0.168333
0.163408
0.15858
0.1538
0.14901
0.144134
0.13906
0.133633
0.127665
0.12097
0.113418
0.104926
0.0953775
0.0846487
0.0726854
0.0592643
0.188035
0.186179
0.18211
0.177511
0.172807
0.168056
0.163298
0.158678
0.15423
0.149886
0.145559
0.141159
0.136597
0.131761
0.126509
0.120675
0.114092
0.10662
0.0981629
0.0885939
0.0777603
0.0655588
0.051656
0.178286
0.176537
0.171867
0.166789
0.161849
0.157211
0.152777
0.148597
0.144641
0.140806
0.13697
0.133021
0.128856
0.124363
0.119411
0.113846
0.107508
0.100251
0.0919468
0.0824456
0.0715249
0.0589418
0.0442085
0.16769
0.165966
0.160857
0.155404
0.150326
0.145875
0.141831
0.13814
0.134714
0.131414
0.1281
0.124645
0.120934
0.116855
0.112286
0.107082
0.10109
0.0941508
0.0861067
0.0767754
0.0658707
0.0529848
0.0374856
0.155868
0.15413
0.148817
0.14316
0.138113
0.133991
0.130458
0.127347
0.124517
0.121798
0.119036
0.116099
0.112872
0.109244
0.105103
0.100316
0.0947359
0.088199
0.0805229
0.0714972
0.0608087
0.0479411
0.0321539
0.142219
0.140507
0.135301
0.129738
0.125013
0.121461
0.118637
0.116257
0.114128
0.112057
0.109886
0.107488
0.104756
0.101592
0.0978972
0.0935529
0.0884252
0.0823553
0.0751532
0.0665941
0.0563721
0.0439754
0.0286079
0.125882
0.124256
0.119571
0.114638
0.11075
0.10816
0.106347
0.104916
0.103638
0.102308
0.100777
0.0989386
0.0967075
0.0940072
0.0907579
0.0868645
0.0822111
0.076654
0.0700159
0.0620827
0.0525734
0.0410735
0.0268954
0.10597
0.104172
0.10049
0.0971226
0.0949758
0.0939877
0.0936111
0.09341
0.0931617
0.0926777
0.0918409
0.0905826
0.0888544
0.0866112
0.0838005
0.0803547
0.0761837
0.0711682
0.0651571
0.0579718
0.0493729
0.0390443
0.0265176
0.0818434
0.078743
0.0764934
0.0762249
0.0773527
0.0789376
0.0805644
0.0819127
0.0828675
0.0833187
0.083214
0.0825444
0.0813124
0.0795138
0.0771297
0.0741226
0.0704324
0.0659699
0.0606176
0.0542507
0.0466712
0.0376255
0.0268572
0.0555015
0.0462579
0.0462073
0.0509976
0.0578112
0.0632583
0.0675395
0.0707296
0.0730016
0.0744174
0.0750383
0.0749372
0.0741772
0.0728
0.0708233
0.0682409
0.0650219
0.0611068
0.0564033
0.0509054
0.0443219
0.0365772
0.0275164
0.0360347
0.00789416
0.0114977
0.0223318
0.036459
0.0476436
0.0551956
0.0603403
0.0638905
0.0661924
0.0674607
0.0678622
0.0675228
0.0665282
0.0649295
0.0627495
0.0599853
0.056608
0.0525695
0.0478096
0.0422269
0.0357364
0.0282575
0.0188294
-0.0147462
-0.0175936
-0.00371093
0.0176306
0.0341377
0.0446457
0.051378
0.055905
0.0588649
0.0606157
0.0614028
0.0614017
0.0607317
0.0594694
0.0576591
0.0553195
0.0524462
0.0490157
0.0449939
0.0403378
0.0349996
0.0289444
0.00958138
-0.0173873
-0.0312525
-0.0195078
0.00475127
0.0247599
0.0369177
0.0443963
0.0493443
0.0526008
0.0545976
0.0556128
0.055843
0.0554236
0.054444
0.0529606
0.0510076
0.0485977
0.0457306
0.0423989
0.0385889
0.0342872
0.0294899
0.00454609
-0.00883191
-0.0255097
-0.0215019
0.000537844
0.0213051
0.032594
0.0396057
0.0442953
0.0474453
0.0494309
0.0505037
0.050848
0.0505961
0.0498387
0.0486345
0.0470247
0.0450349
0.042681
0.0399736
0.0369201
0.0335309
0.0298215
0.00230873
0.00092657
-0.00888895
-0.00996069
0.00402022
0.0206532
0.0308128
0.0365464
0.0405518
0.0433033
0.0450623
0.0460378
0.046389
0.046226
0.0456276
0.0446512
0.0433387
0.0417213
0.0398242
0.0376693
0.035277
0.0326725
0.0298827
0.00497485
0.0100526
0.00794812
0.00459331
0.0117356
0.0230997
0.0307263
0.0349418
0.037896
0.0400145
0.0413821
0.0421406
0.0424079
0.0422642
0.0417694
0.0409715
0.0399089
0.0386132
0.0371132
0.0354364
0.0336096
0.0316654
0.0296375
0.0131668
0.0201414
0.0213705
0.0174056
0.0201584
0.0267451
0.0315197
0.0341164
0.0359613
0.0373406
0.0382294
0.0387
0.038823
0.0386461
0.0382082
0.0375444
0.0366859
0.0356614
0.0344989
0.0332267
0.0318736
0.0304741
0.0290646
0.0240603
0.0303599
0.0311638
0.0271346
0.0272914
0.030211
0.0324273
0.0335479
0.0343743
0.0350258
0.0354236
0.0355842
0.0355345
0.0352925
0.0348772
0.0343106
0.0336153
0.0328143
0.0319324
0.0309952
0.0300307
0.0290715
0.0281534
0.0337969
0.0383052
0.0376642
0.0337748
0.0322913
0.0326037
0.0328797
0.0328256
0.0328117
0.0328317
0.0327875
0.0326581
0.0324366
0.0321183
0.0317056
0.0312089
0.030642
0.0300217
0.0293679
0.0287021
0.0280492
0.0274379
0.0269013
0.039982
0.042827
0.0413053
0.0375421
0.0349352
0.0335642
0.0325586
0.0316736
0.0310347
0.0305654
0.0301672
0.0297982
0.0294296
0.0290414
0.0286246
0.0281799
0.0277138
0.0272373
0.0267648
0.0263134
0.0259035
0.0255599
0.0253111
0.0421299
0.0441813
0.0423639
0.0385907
0.0353111
0.0330464
0.0313227
0.0299343
0.0288902
0.0280892
0.0274437
0.0269027
0.0264265
0.0259875
0.0255699
0.0251679
0.0247825
0.0244194
0.0240881
0.023801
0.0235745
0.0234293
0.0233892
0.0409434
0.0427899
0.0409056
0.0371494
0.0337093
0.0311659
0.0291573
0.0275469
0.0262996
0.0253194
0.024535
0.0238949
0.0233578
0.0228945
0.0224868
0.0221256
0.0218076
0.0215339
0.0213101
0.0211447
0.0210505
0.0210446
0.0211461
0.0372829
0.0390475
0.0371675
0.0336762
0.0305422
0.028125
0.0261381
0.0245263
0.0232449
0.0222193
0.0213944
0.0207252
0.0201751
0.0197176
0.0193355
0.0190181
0.0187591
0.0185564
0.0184124
0.0183328
0.0183274
0.0184103
0.0185955
0.0318963
0.0334988
0.0317225
0.028782
0.0262313
0.0241581
0.0223922
0.0209348
0.0197488
0.0187842
0.0180015
0.0173653
0.016847
0.0164254
0.0160855
0.0158161
0.0156096
0.0154627
0.0153759
0.0153526
0.0154001
0.015529
0.0157497
0.025426
0.0267994
0.0252519
0.0230192
0.0211241
0.0194883
0.0180573
0.016853
0.0158523
0.0150271
0.0143509
0.0137993
0.0133518
0.0129926
0.0127096
0.0124924
0.0123342
0.0122322
0.0121849
0.0121944
0.0122652
0.0124058
0.0126234
0.0183521
0.019487
0.0182671
0.0167534
0.0154714
0.0143001
0.0132573
0.0123651
0.0116102
0.0109791
0.0104576
0.0100318
0.00968757
0.00941262
0.00919794
0.00903716
0.00892616
0.00886161
0.00884035
0.00886263
0.0089329
0.00905767
0.00924049
0.0110453
0.0119733
0.0110799
0.0102013
0.00946222
0.00875389
0.00811798
0.00756972
0.00710012
0.00670221
0.00637184
0.00610284
0.00588608
0.00571199
0.0055756
0.00547618
0.00541197
0.00537847
0.00537293
0.00539457
0.00544722
0.00553407
0.00565685
0.00348052
0.00403232
0.00372655
0.00345883
0.00322741
0.00299538
0.00278395
0.00259718
0.00243407
0.00229371
0.00217611
0.00207945
0.00200059
0.00193677
0.00188767
0.00185422
0.00183355
0.00182234
0.00182245
0.00183314
0.00185347
0.00188525
0.00193014
555.292
149.611
169.092
170.908
171.239
61.7348
122.247
162.107
2.23991
6.49009
64.8244
123.83
1.41375
2.78392
4.39593
10.5965
0.626106
0.769938
0.839641
0.251838
0.28596
0.2479
0.137094
-0.128162
0.191003
0.129225
0.0274493
-0.110876
0.143254
0.0938687
0.0244804
-0.0575946
0.112138
0.0729334
0.0235083
-0.0310659
0.0917898
0.0599924
0.0224863
-0.0180489
0.0776014
0.0513811
0.0217888
-0.0110097
0.0670144
0.044814
0.0205884
-0.00759926
0.0585446
0.0391573
0.0184047
-0.00743927
0.0509587
0.0332862
0.0142193
-0.0123486
0.0432051
0.0254422
0.00368805
-0.0315934
0.0344941
0.0138328
-0.0162642
-0.0647145
0.0251863
-0.000237952
-0.041085
-0.108848
0.016762
-0.0130333
-0.0617063
-0.147731
0.0107452
-0.021113
-0.0708338
-0.138132
0.00772218
-0.0229359
-0.0704664
-0.150763
0.00776213
-0.0195666
-0.0594892
-0.121067
0.0098657
-0.0129236
-0.0432048
-0.0847666
0.0129287
-0.00542479
-0.0280239
-0.0565032
0.0160923
0.00152894
-0.0155838
-0.0359811
0.0190235
0.00761271
-0.00538197
-0.0201254
0.021623
0.0128362
0.00311704
-0.00738547
0.0238143
0.0171913
0.0100973
0.00278327
0.0255314
0.0206663
0.0156433
0.0107074
0.0267374
0.0232852
0.0198748
0.0167152
0.0274219
0.0250918
0.0229227
0.021088
0.0275899
0.0261356
0.0249071
0.024047
0.0272568
0.0264714
0.0259425
0.0257847
0.0264452
0.026158
0.0261362
0.0264709
0.0251804
0.0252511
0.0255819
0.0262438
0.0234875
0.0238001
0.0243571
0.0252127
0.021392
0.0218495
0.0225279
0.023466
0.01892
0.0194408
0.0201533
0.0210819
0.0160957
0.0166136
0.017291
0.0181387
0.0129459
0.0134095
0.0139973
0.0147093
0.00950322
0.00987072
0.0103271
0.0108675
0.00582972
0.00606942
0.00636655
0.00671381
0.00199087
0.00207743
0.00218468
0.00231122
166.308
144.673
136.194
128.222
50.1355
5.96659
4.08902
4.77152
7.55411
4.77269
4.02278
3.99228
4.95021
2.70138
3.08785
3.13222
2.17869
72.7825
78.3434
153.421
89.8898
57.8983
87.0022
56.0103
5.7452
3.96634
3.96478
6.4964
3.60653
3.86463
3.87782
3.12708
2.60318
2.66146
2.54424
2.33219
35.3517
61.2385
57.9696
-0.100488
0.819121
33.256
72.2894
30.3494
3.87767
3.3068
3.10585
3.32603
3.70751
5.95605
2.97507
2.37124
2.36453
2.33786
2.26819
37.5063
190.915
-0.665317
-0.520316
-0.139687
3.55577
52.4757
77.7806
10.6416
3.37303
3.28221
3.33498
4.96674
6.27244
2.54038
2.15776
2.1278
2.08654
2.05943
78.2347
241.565
-0.65379
-0.431032
-0.193267
0.194678
23.6089
81.1932
79.7312
3.67544
3.77966
7.02617
9.73204
6.20773
2.18156
2.00287
1.89637
1.83911
1.8475
111.379
255.149
-0.38
-0.311632
-0.148826
0.0866918
9.98624
85.6532
90.87
17.9641
4.27137
10.5443
10.4198
2.37378
2.03792
1.92394
1.72983
1.57683
1.63867
79.0564
235.658
-0.249834
-0.270419
-0.157254
0.0768878
6.33623
78.9034
95.2769
97.9171
42.6563
9.74342
3.53503
1.95139
1.8978
1.76961
1.50386
1.29792
1.41249
27.0469
413.439
-0.150949
-0.227352
-0.172479
0.0514709
2.85665
42.8619
80.3524
54.7894
7.86783
3.39322
1.47972
1.7267
1.73444
1.56049
1.25085
1.01254
1.15723
13.1914
452.533
-0.103109
-0.183772
-0.169414
0.0967424
2.5996
3.83538
6.74212
10.2119
6.82138
0.876015
1.17627
1.40204
1.41352
1.24337
1.03119
0.94005
1.0178
14.974
472.258
-0.0759128
-0.148943
-0.160361
0.0799986
0.542334
0.357622
5.03273
9.86995
0.43913
0.44067
0.758182
1.00239
1.11468
1.05736
0.851743
1.1207
1.17353
18.5148
492.487
-0.059701
-0.119867
-0.138264
-0.0225489
-0.23911
-0.00424527
6.02751
8.38237
0.0836855
0.0730371
0.275817
0.623937
0.830792
0.911642
0.874495
0.968893
1.20459
22.4311
512.817
-0.0496608
-0.0956485
-0.117258
-0.148712
-0.374253
0.29295
5.77413
6.18064
-0.0244726
-0.322601
0.117616
1.75613
0.58499
0.80786
0.967567
1.15508
1.41076
22.2877
533.217
-0.0446416
-0.0755862
-0.0972094
-0.173197
-0.39826
-0.0755299
4.22952
5.78591
-0.217024
-0.628383
1.01596
4.05151
1.18615
0.753547
1.0709
1.36118
1.62606
29.3558
555.537
-0.0469427
-0.0573565
-0.0750846
-0.177103
-0.399764
-0.525105
3.05356
5.40243
-0.434979
-0.803154
2.26605
3.85943
4.41034
0.72467
1.10083
1.41352
2.43051
40.0706
235.063
-0.04168
0.927362
1.62679
-0.192395
-0.372344
-0.624333
2.35787
5.03333
-0.541197
-0.897438
3.36415
3.90524
4.94469
1.10658
1.05386
1.25556
3.7183
41.1858
12.8574
0.295449
3.24878
3.18812
2.67064
-0.34736
-0.511274
1.4498
5.21495
-0.583496
-0.937679
0.601697
4.11398
5.06684
1.94961
0.99182
1.09735
2.01129
40.3342
13.37
0.951337
3.19682
2.74232
0.225395
-0.28934
-0.355152
-0.433629
1.07989
0.206376
-0.82868
-0.931776
3.27954
5.24094
1.99559
0.948851
1.04234
1.38563
35.2968
13.7183
1.11951
3.12555
-0.191405
-0.164862
-0.0119957
-0.175195
-0.357573
-0.495731
-0.477771
-0.619719
-0.611806
0.620802
5.25723
1.19033
0.916023
1.02392
1.14182
6.08917
10.7542
0.950615
2.99059
0.194563
-0.189382
0.421915
0.421834
0.401956
0.00237858
-0.288945
-0.364836
-0.304757
1.43764
1.99677
0.862887
0.877364
1.02146
1.10398
1.09139
319.833
0.216261
1.35138
-0.0307843
-0.258465
-0.0686347
0.598815
0.62126
0.568677
0.495947
-0.184197
0.359977
2.32466
2.03529
0.699075
0.820382
0.970547
1.03967
1.42667
853.128
-0.243342
-0.322556
-0.270756
-0.233699
-0.145968
-0.0828688
0.41336
0.505608
-0.0349155
-0.0801893
1.59967
2.49252
1.30449
0.596445
0.746453
0.878834
0.96375
15.7249
887.313
-0.163607
-0.245217
-0.241686
-0.193432
-0.125682
-0.0749176
0.142859
0.0247625
-0.0380931
-0.00496556
0.386729
0.932177
0.37985
0.527583
0.668471
0.736976
0.850666
34.0489
912.705
-0.10336
-0.157339
-0.16751
-0.139898
-0.0973256
-0.0533455
0.136499
0.0410575
0.00826853
0.207711
0.106745
0.181468
0.345583
0.474197
0.600505
0.606327
0.744745
46.6037
937.575
-0.064803
-0.097992
-0.108522
-0.0952225
-0.0683054
-0.00950792
0.00288741
0.0173864
0.0436264
0.257443
0.302081
0.362197
0.346632
0.435267
0.543497
0.528071
0.660416
50.7247
962.857
-0.039352
-0.0605127
-0.068147
-0.0604094
-0.0415105
-0.0171445
0.0121169
0.0431415
0.0741605
0.144987
0.247505
0.219694
0.319911
0.405886
0.496625
0.462232
0.588549
51.753
988.1
-0.0204368
-0.0338387
-0.0392152
-0.0338757
-0.0193162
0.0016634
0.0672505
0.0947713
0.12318
0.114073
0.161088
0.229542
0.312754
0.384778
0.459676
0.411597
0.545005
53.0118
1013.1
-0.00590834
-0.0142701
-0.0172706
-0.0124335
-0.000104568
0.0199444
0.0434132
0.0741884
0.0952116
0.129238
0.175034
0.235719
0.306974
0.369863
0.433296
0.384961
0.500542
53.8962
1037.57
0.00511505
0.000349245
-0.000392375
0.00461196
0.0156288
0.0320986
0.0529113
0.0771476
0.105305
0.139546
0.183237
0.237872
0.300843
0.359346
0.418494
0.395386
0.51167
50.9592
1061.07
0.013385
0.0111858
0.0121304
0.0174351
0.0276673
0.042712
0.0619526
0.0849314
0.112125
0.145234
0.186299
0.235959
0.293288
0.351314
0.413113
0.427584
0.538311
55.3959
1090.02
0.0194031
0.0189968
0.0211665
0.0268005
0.0364716
0.0502553
0.0679724
0.0894792
0.115211
0.146439
0.184434
0.229778
0.283175
0.342961
0.414765
0.472541
0.52142
101.112
437.862
0.0235522
0.0244027
0.0274194
0.033273
0.0424163
0.0550263
0.0712034
0.090996
0.11481
0.143586
0.178182
0.219512
0.26912
0.32901
0.418265
0.555946
7.4184
99.4379
1.5787
0.0261358
0.0278507
0.0314011
0.0372979
0.0458549
0.0572934
0.0718757
0.0897511
0.111316
0.137251
0.168119
0.205293
0.250038
0.306096
0.397539
0.538242
1.51645
24.3484
1.55325
0.0274023
0.0296737
0.0335023
0.0392386
0.0471145
0.0573477
0.0702766
0.0860942
0.105166
0.127951
0.154735
0.187318
0.225826
0.273665
0.350481
0.441676
0.538271
0.270636
0.946453
0.027542
0.0301112
0.0339744
0.0393702
0.0464604
0.0554486
0.0666831
0.0803394
0.0967324
0.116139
0.13861
0.166034
0.197147
0.233829
0.288522
0.329362
0.356966
0.211209
0.505184
0.0267007
0.0293513
0.0330398
0.0379364
0.0441518
0.0518596
0.0613551
0.072762
0.0863637
0.102274
0.120402
0.142119
0.165186
0.189142
0.219581
0.211953
0.190221
0.149453
0.318947
0.0249956
0.0275506
0.0308979
0.0351727
0.0404304
0.0467946
0.0544862
0.063586
0.0743603
0.0867292
0.100561
0.116214
0.131361
0.142157
0.151228
0.0983716
0.0387989
0.0653929
0.273914
0.0225317
0.0248325
0.0277269
0.0312709
0.0354727
0.0404122
0.046251
0.0530339
0.060962
0.0697427
0.0792233
0.088744
0.0966977
0.095323
0.0921711
0.0103404
-0.0718954
-0.0246638
0.192602
0.019416
0.02135
0.0236846
0.0264072
0.0294898
0.0329785
0.0369743
0.041462
0.0465096
0.0516732
0.056739
0.060407
0.0618981
0.0509181
0.0445274
-0.0430058
-0.11808
-0.0805999
0.115835
0.0157465
0.0172093
0.0189651
0.0208623
0.0228555
0.0249478
0.0271638
0.0294197
0.0316474
0.0333684
0.0342806
0.0328939
0.028728
0.0113838
0.00363766
-0.0781346
0.190092
-0.083594
0.0555292
0.011634
0.0126723
0.0138373
0.0149363
0.0158867
0.0166357
0.0171347
0.0172572
0.0168504
0.0154794
0.0127809
0.00742636
-0.00122504
-0.0215487
-0.0331531
-0.1003
0.241036
-0.0941354
0.0144323
0.00720366
0.00788496
0.00842204
0.00867426
0.00850699
0.00781027
0.00647059
0.00432544
0.00117544
-0.0033743
-0.00970944
-0.0188313
-0.0315155
-0.0526936
-0.0680914
-0.125444
0.0553567
-0.027205
-0.0198927
0.00250258
0.00273559
0.00257363
0.00180212
0.000248665
-0.00226165
-0.00592983
-0.010999
-0.0177261
-0.0265511
-0.0378156
-0.0523671
-0.0703597
-0.094181
-0.112244
-0.166729
-0.144242
-0.0268549
0.00240297
)
;

boundaryField
{
    leftWall
    {
        type            fixedFluxPressure;
        gradient        uniform 0;
        value           nonuniform List<scalar> 
50
(
1481.36
1479.28
1475.13
1468.69
1458.96
1444.92
1428.29
1248.57
70.7513
0.355644
0.348351
0.333565
0.313065
0.297204
0.282819
0.269401
0.257545
0.246266
0.235378
0.224958
0.21525
0.206147
0.197217
0.188035
0.178286
0.16769
0.155868
0.142219
0.125882
0.10597
0.0818434
0.0555015
0.0360347
0.0188294
0.00958138
0.00454609
0.00230873
0.00497485
0.0131668
0.0240603
0.0337969
0.039982
0.0421299
0.0409434
0.0372829
0.0318963
0.025426
0.0183521
0.0110453
0.00348052
)
;
    }
    rightWall
    {
        type            fixedFluxPressure;
        gradient        uniform 0;
        value           nonuniform List<scalar> 
50
(
195.494
200.603
237.626
272.404
266.672
349.825
409.335
454.668
78.3434
61.2385
190.915
241.565
255.149
235.658
413.439
452.533
472.258
492.487
512.817
533.217
555.537
235.063
12.8574
13.37
13.7183
10.7542
319.833
853.128
887.313
912.705
937.575
962.857
988.1
1013.1
1037.57
1061.07
1090.02
437.862
1.5787
1.55325
0.946453
0.505184
0.318947
0.273914
0.192602
0.115835
0.0555292
0.0144323
-0.0198927
0.00240297
)
;
    }
    lowerWall
    {
        type            fixedFluxPressure;
        gradient        uniform 0;
        value           nonuniform List<scalar> 
62
(
1481.36
1481.94
1482.85
1483.9
1485.19
1486.86
1488.9
1491.22
1493.73
1496.34
1499.03
1501.72
1504.35
1506.88
1509.26
1511.48
1513.52
1515.38
1517.1
1518.73
1520.4
1522.4
1523.18
1523.18
1524.43
1489.99
1466.65
1465.46
1518.4
1546.77
1548.12
555.292
149.611
169.092
170.908
291.468
259.267
158.765
26.8341
21.7685
25.1705
81.7189
181.09
291.468
280.575
223.788
151.852
91.5733
55.134
49.2069
51.5669
54.341
55.0715
64.1106
102.578
123.648
130.416
122.482
135.816
161.369
188.505
195.494
)
;
    }
    atmosphere
    {
        type            totalPressure;
        rho             rho;
        psi             none;
        gamma           1;
        p0              uniform 0;
        value           nonuniform List<scalar> 
46
(
0
0
0
0
0
0
0
0
0
0
0
0
0
0
0
0
0
0
0
0
0
0
0
0
0
0
0
0
-4.61559e-05
-0.000653843
-0.00210171
-0.00458079
-0.0083181
-0.0135867
-0.0207125
-0.0300071
-0.0420216
-0.0569988
-0.0759949
-0.0982691
-0.125962
-0.143495
-0.211144
-0.13267
0
0
)
;
    }
    defaultFaces
    {
        type            empty;
    }
}


// ************************************************************************* //
