/*--------------------------------*- C++ -*----------------------------------*\
| =========                 |                                                 |
| \\      /  F ield         | OpenFOAM: The Open Source CFD Toolbox           |
|  \\    /   O peration     | Version:  2206                                  |
|   \\  /    A nd           | Website:  www.openfoam.com                      |
|    \\/     M anipulation  |                                                 |
\*---------------------------------------------------------------------------*/
FoamFile
{
    version     2.0;
    format      ascii;
    arch        "LSB;label=32;scalar=64";
    class       volScalarField;
    location    "0.925";
    object      p;
}
// * * * * * * * * * * * * * * * * * * * * * * * * * * * * * * * * * * * * * //

dimensions      [1 -1 -2 0 0 0 0];

internalField   nonuniform List<scalar> 
2268
(
904.917
894.35
877.571
856.508
833.562
809.079
783.172
757.793
736.322
720.929
711.99
708.789
709.725
711.676
710.398
706.452
701.307
697.29
698.903
704.709
709.935
715.615
719.069
848.552
837.363
819.37
797.161
774.04
750.086
723.974
698.077
676.225
660.669
651.774
648.836
650.261
653.461
654.79
651.107
642.744
635.943
639.018
645.685
650.492
655.133
659.778
793.906
781.678
761.523
737.397
714.312
690.977
664.413
637.446
614.658
598.671
589.835
587.597
590.231
595.049
598.72
595.785
586.301
579.403
580.339
585.002
589.882
594.63
601.023
740.226
726.515
704.067
677.61
654.206
631.81
604.649
576.007
551.728
535.106
526.348
525.113
529.566
536.391
541.778
540.666
532.241
523.192
520.306
522.494
527.974
534.295
543.026
687.67
672.104
647.417
618.408
594.614
573.274
544.931
513.749
487.31
469.866
461.196
461.299
468.322
478.132
485.966
486.44
477.84
465.447
457.947
458.474
465.495
474.362
486.298
637.274
619.137
592.13
560.728
536.609
515.989
485.358
450.536
421.127
402.731
394.09
395.939
406.5
420.413
431.446
433.141
421.814
405.121
392.954
392.654
401.815
414.717
431.076
589.549
568.373
538.612
505.503
481.287
460.353
425.798
385.92
352.458
333.105
324.345
328.37
343.756
363.139
378.143
380.477
364.974
342.673
325.6
324.306
336.604
355.109
377.58
544.992
519.645
486.243
453.527
429.912
406.057
365.67
318.981
281.045
261.127
251.696
258.471
280.754
307.798
328.629
331.939
311.839
280.683
255.271
251.235
268.966
298.574
327.225
672.169
633.048
624.731
662.941
652.063
577.728
597.918
636.343
574.429
466.751
358.862
341.477
393.963
408.963
401.283
406.533
433.043
440.079
417.703
617.596
566.806
554.152
593.153
578.267
494.438
531.529
590.555
538.044
423.759
297.853
291.205
346.79
353.815
341.422
346.377
372.483
376.978
360.263
561.325
499.714
489.636
529.874
519.367
423.482
471.376
542.168
489.61
369.792
245.975
232.022
287.378
301.181
287.733
296.845
319.974
323.71
310.439
502.328
433.135
426.813
469.339
478.971
390.883
406.936
425.875
373.335
293.288
204.233
180.644
225.696
254.41
254.396
264.527
281.668
288.252
280.94
444.148
369.475
366.224
416.216
455.495
358.87
291.909
213.676
181.95
203.187
174.778
143.905
171.629
209.714
215.219
222.258
232.507
245.848
246.38
392.09
316.873
312.805
370.477
417.342
305.86
182.829
122.96
139.761
158.991
151.599
113.253
124.556
162.929
161.887
149.074
149.101
181.643
204.246
347.161
278.865
263.382
319.482
342.566
236.824
147.318
111.837
132.879
146.349
127.007
81.0448
82.8325
114.296
84.9985
54.2588
86.8902
123.352
162.017
308.795
248.058
221.382
255.124
240.686
178.95
139.691
109.767
132.293
141.93
100.184
25.7869
30.5963
64.7766
35.0479
38.1714
64.1545
107.582
131.376
479.871
446.052
407.904
380.523
356.994
323.058
270.883
210.595
161.48
147.441
138.597
148.032
180.534
222.274
257.386
268.665
238.565
193.944
170.046
168.504
182.527
216.698
258.979
378.113
331.688
300.779
279.775
253.888
226.347
164.222
81.9916
64.9152
67.6754
67.2571
73.1975
90.4091
121.941
157.892
165.983
140.12
123.016
120.488
129.118
142.548
159.118
176.581
248.855
144.498
186.249
176.53
148.174
95.085
54.5474
47.961
50.5089
53.2774
52.288
47.8251
42.2992
43.3708
69.296
92.41
94.212
93.5788
97.2103
108.156
123.396
137.447
134.62
258.494
151.412
133.754
103.355
78.6064
65.1203
45.8419
39.798
43.3789
44.65
42.2815
34.7176
24.6842
21.3696
38.4547
53.4502
60.6641
63.8444
66.7591
70.8003
88.6505
97.8986
59.8943
403.404
201.311
85.2993
34.9189
18.7274
15.4961
18.6374
23.6282
30.9665
33.0549
30.8847
24.2036
16.1582
13.8516
21.6128
24.9711
27.4137
32.1166
30.6684
28.7346
25.9165
25.1547
5.51493
376.947
97.3118
22.9005
6.26112
2.43864
0.166962
-0.816521
0.334993
3.54234
3.56823
3.14351
4.73479
4.02109
3.58078
1.51833
1.57968
5.81109
9.55621
8.5589
9.09525
10.3264
9.13093
-2.09563
169.373
23.2277
5.25334
0.449949
-0.923089
-1.70805
-2.29208
-2.58264
-2.63277
-2.78049
-3.01398
-2.89296
-1.94139
-0.987071
-1.32114
-1.38747
-0.22285
2.77503
4.66294
4.63596
4.74897
4.90708
3.36748
32.0052
3.45742
0.0747441
-1.26015
-1.90771
-2.39434
-2.73521
-2.95015
-3.01966
-3.01084
-3.01263
-2.93903
-2.6086
-2.08491
-2.13662
-2.2037
-2.03137
-0.521156
1.64501
1.14097
2.96561
4.70671
9.69925
10.7874
-1.30939
-1.52971
-2.15805
-2.56267
-2.94154
-3.19869
-3.33672
-3.38399
-3.382
-3.32973
-3.20365
-2.96169
-2.76948
-2.77915
-2.83947
-2.95747
-2.70613
-1.76824
-1.08117
0.979047
3.42327
4.56172
3.48291
-2.34452
-2.21856
-2.82911
-3.11715
-3.37836
-3.53776
-3.60762
-3.61616
-3.58572
-3.52031
-3.4218
-3.3231
-3.26378
-3.24755
-3.2345
-3.20851
-3.18208
-3.06268
-2.7293
-2.42319
-0.528127
0.604863
-1.0469
-3.01951
-2.70123
-3.31346
-3.48564
-3.66471
-3.75924
-3.8049
-3.81504
-3.79578
-3.74655
-3.67844
-3.61911
-3.57203
-3.54281
-3.49475
-3.42136
-3.33929
-3.27083
-3.27135
-3.30846
-3.27547
-3.06289
-1.47569
-3.52805
-3.11309
-3.67111
-3.71365
-3.85413
-3.92564
-3.98186
-4.00628
-3.99248
-3.94204
-3.87092
-3.79677
-3.7478
-3.70807
-3.65521
-3.58438
-3.50814
-3.44942
-3.42432
-3.39026
-3.14922
-2.70826
-1.12156
-3.95793
-3.44064
-3.99078
-3.90646
-4.05561
-4.13897
-4.23054
-4.27221
-4.25353
-4.17823
-4.0765
-3.98012
-3.89805
-3.83004
-3.76751
-3.70253
-3.63547
-3.57649
-3.52788
-3.44398
-3.21123
-2.86504
-0.940075
-4.47155
-3.7071
-4.33038
-4.15253
-4.35409
-4.49537
-4.64783
-4.70227
-4.65852
-4.5085
-4.34684
-4.19643
-4.06782
-3.96066
-3.86894
-3.78927
-3.71792
-3.65336
-3.58861
-3.48583
-3.28663
-3.03048
11.4804
-4.57813
-4.17101
-4.64582
-4.48955
-4.79988
-5.08351
-5.35003
-5.40564
-5.24646
-5.00043
-4.71819
-4.46888
-4.26699
-4.10558
-3.97548
-3.86913
-3.77961
-3.69965
-3.6182
-3.51209
-3.35947
-3.17682
11.1571
-4.33637
-4.4154
-4.86224
-4.8871
-5.41618
-5.99077
-6.49205
-6.60379
-6.32581
-5.803
-5.25628
-4.81602
-4.4946
-4.26075
-4.08554
-3.94757
-3.83422
-3.73607
-3.64124
-3.5347
-3.40939
-3.27436
1.71091
-4.07193
-4.49256
-4.97597
-5.33019
-6.20396
-7.25617
-8.21291
-8.50299
-7.99178
-6.95202
-5.94893
-5.21633
-4.72687
-4.40638
-4.18587
-4.01917
-3.88726
-3.77547
-3.67236
-3.56861
-3.45779
-3.34103
-0.743494
-3.10109
-4.23913
-5.07025
-5.79656
-7.02487
-8.57089
-10.0836
-10.5699
-9.8047
-8.18942
-6.61902
-5.5629
-4.91232
-4.51512
-4.25427
-4.0689
-3.92711
-3.81051
-3.70653
-3.60678
-3.50696
-3.40758
-1.88527
-2.59715
-3.92461
-5.10861
-6.14373
-7.61884
-9.40426
-11.098
-11.7086
-10.8377
-8.95901
-7.02248
-5.72715
-4.98678
-4.5485
-4.27391
-4.08647
-3.94673
-3.83409
-3.73614
-3.6452
-3.55713
-3.47132
-2.51295
-2.75557
-3.65497
-4.96698
-6.21639
-7.75199
-9.50562
-11.0447
-11.5844
-10.8235
-8.958
-6.96756
-5.6267
-4.89788
-4.48814
-4.23652
-4.06819
-3.94426
-3.84483
-3.75883
-3.67982
-3.60448
-3.53192
-3.07216
-3.10547
-3.64656
-4.74166
-5.99205
-7.37959
-8.86983
-10.0883
-10.4289
-9.6924
-8.07272
-6.3531
-5.24151
-4.65778
-4.34158
-4.14922
-4.02025
-3.92425
-3.84572
-3.77652
-3.71211
-3.65023
-3.59032
-3.57842
-3.62461
-4.02503
-4.77746
-5.67532
-6.62775
-7.59761
-8.33768
-8.44743
-7.76268
-6.54461
-5.37952
-4.68349
-4.33306
-4.14931
-4.0367
-3.95831
-3.89667
-3.84307
-3.79311
-3.74455
-3.69643
-3.64874
-4.05108
-4.19773
-4.56709
-5.11654
-5.59185
-5.89952
-6.14292
-6.29732
-6.16318
-5.65196
-4.9723
-4.43041
-4.15046
-4.02751
-3.96896
-3.93169
-3.90181
-3.87355
-3.8444
-3.81337
-3.78025
-3.74528
-3.70905
-4.38987
-4.55516
-4.95893
-5.40055
-5.63546
-5.49012
-5.13678
-4.79092
-4.45019
-4.13565
-3.92057
-3.81732
-3.80045
-3.82111
-3.84407
-3.85966
-3.86635
-3.86481
-3.85617
-3.84156
-3.82208
-3.79882
-3.77279
-4.5653
-4.70306
-5.01587
-5.38442
-5.51435
-5.25779
-4.68641
-4.09727
-3.69525
-3.51573
-3.49922
-3.55983
-3.647
-3.72461
-3.78605
-3.8305
-3.85959
-3.87612
-3.88247
-3.88059
-3.87215
-3.85861
-3.8412
-4.63256
-4.7186
-4.90475
-5.11383
-5.17098
-4.92849
-4.43584
-3.92945
-3.58499
-3.44452
-3.4535
-3.53573
-3.63052
-3.71671
-3.78782
-3.84275
-3.88244
-3.90908
-3.92492
-3.93188
-3.93164
-3.92566
-3.91517
-4.65325
-4.69448
-4.76836
-4.82892
-4.79713
-4.60136
-4.27186
-3.92596
-3.67898
-3.57038
-3.56928
-3.62319
-3.69664
-3.7707
-3.83614
-3.88998
-3.93188
-3.96251
-3.98324
-3.99557
-4.00086
-4.00036
-3.99516
-4.66289
-4.6779
-4.69091
-4.67317
-4.5923
-4.42968
-4.20844
-3.98623
-3.82393
-3.74203
-3.72773
-3.75677
-3.80699
-3.86327
-3.91714
-3.9643
-4.00326
-4.0337
-4.05596
-4.07089
-4.07947
-4.08264
-4.08126
-4.67799
-4.67936
-4.66656
-4.62338
-4.53826
-4.40898
-4.25137
-4.0996
-3.98393
-3.91717
-3.89594
-3.90761
-3.93856
-3.97823
-4.01953
-4.05815
-4.09161
-4.1194
-4.14093
-4.15649
-4.16664
-4.17202
-4.17324
-4.70363
-4.69811
-4.67625
-4.62929
-4.55496
-4.45517
-4.33886
-4.22929
-4.14202
-4.08635
-4.06186
-4.06209
-4.07892
-4.10513
-4.13516
-4.1652
-4.19285
-4.21649
-4.23591
-4.2508
-4.26131
-4.26779
-4.27063
-4.74142
-4.73304
-4.70964
-4.66659
-4.60549
-4.52563
-4.4406
-4.35913
-4.29198
-4.24554
-4.22064
-4.21421
-4.22147
-4.23757
-4.25839
-4.28078
-4.3025
-4.32206
-4.33876
-4.35223
-4.36231
-4.36911
-4.37285
-4.79138
-4.78235
-4.76086
-4.72359
-4.67331
-4.61266
-4.54799
-4.4861
-4.4337
-4.39515
-4.37166
-4.36185
-4.36297
-4.37188
-4.3856
-4.40168
-4.4182
-4.43382
-4.44764
-4.45934
-4.46851
-4.47512
-4.47923
-4.8524
-4.84365
-4.82511
-4.79442
-4.75436
-4.70748
-4.65785
-4.61016
-4.56887
-4.53701
-4.51576
-4.50462
-4.50206
-4.50607
-4.51455
-4.52567
-4.53787
-4.54999
-4.56121
-4.57088
-4.57892
-4.58501
-4.58911
-4.92324
-4.91498
-4.89963
-4.87507
-4.84353
-4.80715
-4.7688
-4.73175
-4.69904
-4.67283
-4.65415
-4.64293
-4.63837
-4.63917
-4.64394
-4.65129
-4.66002
-4.66916
-4.67794
-4.68572
-4.69264
-4.69803
-4.70187
-5.00152
-4.99505
-4.98238
-4.96298
-4.93833
-4.91009
-4.88036
-4.85146
-4.82552
-4.80408
-4.78801
-4.77745
-4.77199
-4.77084
-4.77306
-4.77765
-4.7837
-4.79043
-4.79723
-4.80371
-4.80909
-4.81362
-4.81705
-5.08673
-5.08154
-5.07144
-5.05635
-5.03723
-5.01538
-4.99236
-4.96985
-4.94933
-4.93195
-4.9184
-4.9089
-4.90328
-4.90106
-4.90161
-4.90424
-4.90826
-4.91307
-4.91815
-4.92309
-4.92749
-4.93126
-4.93424
-5.17739
-5.17325
-5.16542
-5.15386
-5.1392
-5.12244
-5.10476
-5.08734
-5.07127
-5.05737
-5.04619
-5.03797
-5.03266
-5.02999
-5.02955
-5.03084
-5.03338
-5.0367
-5.04039
-5.04411
-5.04758
-5.05065
-5.0532
-5.27234
-5.26908
-5.2632
-5.25455
-5.24351
-5.23088
-5.21752
-5.20428
-5.19192
-5.18105
-5.1721
-5.16527
-5.16058
-5.1579
-5.15694
-5.15739
-5.1589
-5.16111
-5.16372
-5.16646
-5.16913
-5.17157
-5.1737
-5.37057
-5.36806
-5.36384
-5.35762
-5.3496
-5.3404
-5.33064
-5.32091
-5.31174
-5.30357
-5.2967
-5.29132
-5.28747
-5.28508
-5.28398
-5.28396
-5.28478
-5.28619
-5.28798
-5.28994
-5.29192
-5.2938
-5.29552
-5.47128
-5.46943
-5.46664
-5.46247
-5.45702
-5.45076
-5.4441
-5.43742
-5.43108
-5.42537
-5.42049
-5.4166
-5.41373
-5.41185
-5.41087
-5.41065
-5.41105
-5.41191
-5.41306
-5.41439
-5.41577
-5.41714
-5.41843
-5.57358
-5.57234
-5.57086
-5.5685
-5.56533
-5.56169
-5.5578
-5.55389
-5.55016
-5.54677
-5.54384
-5.54147
-5.53969
-5.53849
-5.53782
-5.53761
-5.53778
-5.53823
-5.53888
-5.53965
-5.54048
-5.54134
-5.5422
-5.67748
-5.67685
-5.67627
-5.67549
-5.67446
-5.67328
-5.67198
-5.67067
-5.6694
-5.66823
-5.66721
-5.66637
-5.66572
-5.66527
-5.665
-5.66489
-5.66492
-5.66506
-5.66526
-5.66551
-5.66576
-5.66599
-5.66616
271.278
272.339
269.328
265.997
183.468
176.063
164.567
151.958
105.729
80.8622
52.8984
24.9669
3.49113
-29.4473
-56.6601
-71.8352
-49.9757
-72.2194
-84.4244
-82.3342
-36.4277
-44.1295
-32.1972
-8.75969
-14.7477
-16.7322
6.33036
26.4251
18.0685
20.82
38.5175
47.0476
7.83191
11.5867
22.4938
41.1103
4.2773
4.45898
3.25827
8.30821
-1.73623
-1.52928
-1.39455
-0.604831
-2.60225
-2.57814
-2.50411
-2.37456
-2.63717
-2.54851
-2.52787
-2.49254
-2.8401
-2.7462
-2.69509
-2.65137
-3.01984
-2.9395
-2.88514
-2.84396
-3.16141
-3.09394
-3.04197
-2.99817
-3.25329
-3.20096
-3.15452
-3.11276
-3.33635
-3.29247
-3.25171
-3.2141
-3.41112
-3.37406
-3.33897
-3.30595
-3.48111
-3.44966
-3.41961
-3.39101
-3.5481
-3.5218
-3.49643
-3.47203
-3.61452
-3.59302
-3.57204
-3.55161
-3.68221
-3.66512
-3.64817
-3.63142
-3.75251
-3.73933
-3.72598
-3.71253
-3.82652
-3.81669
-3.80646
-3.7959
-3.90509
-3.89805
-3.89045
-3.88236
-3.98872
-3.98392
-3.97848
-3.97246
-4.07759
-4.07454
-4.07083
-4.0665
-4.1716
-4.16988
-4.16751
-4.16454
-4.27043
-4.26967
-4.26833
-4.26642
-4.3736
-4.37352
-4.37292
-4.37182
-4.48055
-4.48093
-4.48085
-4.48033
-4.59073
-4.59136
-4.59162
-4.5915
-4.70358
-4.70435
-4.70481
-4.70495
-4.81871
-4.81952
-4.82009
-4.8204
-4.9358
-4.9366
-4.93723
-4.93766
-5.05462
-5.0554
-5.05605
-5.05656
-5.17498
-5.17572
-5.17636
-5.17691
-5.29663
-5.29729
-5.2979
-5.29845
-5.41932
-5.41987
-5.42041
-5.42092
-5.54275
-5.54315
-5.54358
-5.54403
-5.66657
-5.66687
-5.66723
-5.66765
250.041
199.678
169.279
152.739
101.219
133.653
146.214
113.775
125.761
121.549
71.0181
22.1865
4.53915
21.9114
19.9948
23.2947
43.052
97.8766
101.166
134.073
111.198
95.8617
83.6217
62.2221
112.015
132.759
91.1652
76.7293
44.8545
20.3759
13.5248
11.7114
14.4127
14.8327
14.8293
17.8986
84.4905
89.9187
-3.58839
4.09399
20.0256
30.154
45.5283
82.9132
81.5244
34.127
16.226
13.624
13.1926
12.7436
13.4053
14.1151
14.3442
14.179
15.6199
62.4467
74.1114
-75.3162
-38.1575
16.6734
18.0414
26.904
38.5953
28.1731
13.4377
10.5709
10.9659
10.9863
11.4867
12.6001
13.5161
13.7808
14.1
16.5426
35.7227
40.2139
-46.8154
15.0801
14.629
16.1825
17.8696
18.1246
14.5439
12.3243
11.08
10.2943
10.0685
10.662
11.8288
12.6031
12.9559
12.66
11.3192
9.2565
7.11454
13.9093
16.0871
16.625
16.8629
16.4727
15.3422
13.9158
12.4133
10.9618
9.81902
9.55386
10.1659
11.256
11.8962
12.1955
11.7911
7.02072
3.86432
3.98919
21.7214
17.9268
17.1753
17.2784
16.6303
15.48
13.9604
12.3516
10.8117
9.69467
9.40803
10.0303
10.8648
11.4968
12.4668
11.6416
3.83353
2.60514
3.35499
22.4461
17.7384
17.1654
17.2023
16.6199
15.5484
14.0312
12.3875
10.9232
9.94681
9.6883
10.2191
10.8087
11.5564
12.7572
8.00592
2.95767
2.32964
2.64457
55.1522
-1.21792
-0.734159
14.5388
15.89
15.3638
14.0782
12.749
11.6116
10.8038
10.5208
10.8437
11.3798
12.9813
13.5645
2.46943
2.0556
2.12802
2.20563
34.8639
53.2369
52.6059
1.29631
4.65786
14.4403
13.5935
13.2551
13.0245
12.4018
11.7361
11.6467
12.4821
14.7482
7.44255
1.82945
1.67864
1.65398
1.70571
9.11337
31.6224
43.4353
38.2986
17.7497
11.2892
13.2298
13.5499
13.8824
13.5372
12.2962
11.759
12.3673
7.7273
0.657201
0.980336
1.1115
1.08126
1.15686
-2.07299
5.52192
20.678
21.0902
14.265
13.227
-15.5576
-2.34003
3.89006
1.33462
-2.94929
-4.13599
2.7794
7.00853
0.466487
-0.0765373
0.438385
0.530791
0.61297
-2.38244
-2.43212
-2.41347
0.222364
15.1679
15.9341
26.318
42.5405
33.3639
29.4025
21.649
21.5216
24.753
11.2303
-1.17122
-0.608705
-0.177084
0.0454544
0.107038
-2.58573
-2.60479
-2.60403
-2.57432
-2.6233
4.27318
19.1105
22.056
14.2983
10.9993
9.62676
8.30908
-1.30231
-1.8523
-1.51887
-1.10707
-0.672516
-0.393624
-0.361149
-2.77291
-2.72319
-2.70982
-2.71388
-2.70369
-2.64065
-2.59581
-2.54501
-2.42749
-2.28481
-2.15349
-1.97413
-1.83386
-1.83398
-1.57943
-1.31612
-1.07881
-0.83265
-0.835546
-2.93044
-2.85613
-2.8255
-2.80441
-2.77365
-2.75399
-2.69408
-2.60854
-2.50588
-2.3869
-2.26302
-2.12018
-1.99568
-1.90376
-1.75771
-1.61767
-1.49295
-1.2998
-1.29426
-3.04947
-2.97875
-2.9353
-2.90268
-2.86472
-2.82296
-2.76038
-2.68703
-2.59744
-2.49263
-2.38106
-2.26842
-2.1685
-2.07524
-1.97216
-1.90474
-1.86937
-1.72906
-1.67218
-3.15601
-3.08979
-3.04007
-2.99968
-2.95809
-2.91298
-2.85419
-2.78461
-2.7055
-2.61648
-2.52265
-2.42945
-2.34078
-2.25813
-2.18732
-2.152
-2.1871
-2.12331
-1.9904
-3.25402
-3.19243
-3.14145
-3.09759
-3.05376
-3.00614
-2.95085
-2.88863
-2.81974
-2.74428
-2.66478
-2.58525
-2.51091
-2.44337
-2.39565
-2.37214
-2.42577
-2.43651
-2.25937
-3.34549
-3.28935
-3.24028
-3.1961
-3.15254
-3.10634
-3.05552
-2.99973
-2.93918
-2.87463
-2.80796
-2.74199
-2.67975
-2.62436
-2.58574
-2.56634
-2.59624
-2.63541
-2.47507
-3.43275
-3.38274
-3.3374
-3.29519
-3.25354
-3.21018
-3.16394
-3.11458
-3.06235
-3.00857
-2.95454
-2.90107
-2.84907
-2.80113
-2.76341
-2.7378
-2.73494
-2.75586
-2.66818
-3.51827
-3.47451
-3.43367
-3.39469
-3.35611
-3.31652
-3.27531
-3.23238
-3.18837
-3.14606
-3.10599
-3.0657
-3.02244
-2.97741
-2.93541
-2.89857
-2.87104
-2.87715
-2.82578
-3.60367
-3.56599
-3.52982
-3.49463
-3.45963
-3.42415
-3.38808
-3.35155
-3.31663
-3.28859
-3.26549
-3.23882
-3.20137
-3.15438
-3.10414
-3.05381
-3.00861
-3.00818
-2.97087
-3.68983
-3.65792
-3.62637
-3.59505
-3.56372
-3.53219
-3.50099
-3.47052
-3.44615
-3.43534
-3.43065
-3.41533
-3.37908
-3.3269
-3.26528
-3.19673
-3.14631
-3.13861
-3.11275
-3.77769
-3.75102
-3.72382
-3.69619
-3.66825
-3.64008
-3.61281
-3.58715
-3.57302
-3.57778
-3.58707
-3.57799
-3.53914
-3.47908
-3.40383
-3.32195
-3.28707
-3.27427
-3.25913
-3.86805
-3.84608
-3.82282
-3.79855
-3.77356
-3.74796
-3.72328
-3.70003
-3.69078
-3.70204
-3.71464
-3.70602
-3.66764
-3.60328
-3.52152
-3.44018
-3.43597
-3.42345
-3.41415
-3.96146
-3.94361
-3.92393
-3.90276
-3.88036
-3.85675
-3.83282
-3.8102
-3.79952
-3.80496
-3.81109
-3.80012
-3.76584
-3.71477
-3.65162
-3.59424
-3.59171
-3.58176
-3.57355
-4.05827
-4.04402
-4.02761
-4.00939
-3.98958
-3.96814
-3.94541
-3.92251
-3.90612
-3.90114
-3.89993
-3.89224
-3.87447
-3.84485
-3.8055
-3.76779
-3.75261
-3.73987
-3.7307
-4.15858
-4.14745
-4.13404
-4.11869
-4.1016
-4.0828
-4.06241
-4.04096
-4.02182
-4.0104
-4.00633
-4.00518
-4.00146
-3.98701
-3.95997
-3.92801
-3.90726
-3.892
-3.88263
-4.2623
-4.25382
-4.24309
-4.23045
-4.21611
-4.20022
-4.18302
-4.16475
-4.14743
-4.13512
-4.13076
-4.13239
-4.13239
-4.12261
-4.10067
-4.07403
-4.05265
-4.0375
-4.02918
-4.36913
-4.36285
-4.35446
-4.34425
-4.33249
-4.31937
-4.30527
-4.29071
-4.27707
-4.26657
-4.26165
-4.26125
-4.25933
-4.24992
-4.23166
-4.2097
-4.19082
-4.17806
-4.17167
-4.47871
-4.4742
-4.46775
-4.45966
-4.45017
-4.43952
-4.42807
-4.4164
-4.40543
-4.3965
-4.39057
-4.3873
-4.38302
-4.37348
-4.35841
-4.34098
-4.32599
-4.31625
-4.31187
-4.59066
-4.58753
-4.58268
-4.57638
-4.56884
-4.56031
-4.55106
-4.54151
-4.53222
-4.52412
-4.51782
-4.51293
-4.50754
-4.4987
-4.48602
-4.47233
-4.46093
-4.45392
-4.4511
-4.70467
-4.7026
-4.69907
-4.69428
-4.68842
-4.68168
-4.67427
-4.66644
-4.65851
-4.65139
-4.64544
-4.64032
-4.63524
-4.62742
-4.61642
-4.60521
-4.59678
-4.59186
-4.59001
-4.82051
-4.81929
-4.81685
-4.81336
-4.80894
-4.80375
-4.79795
-4.79165
-4.78506
-4.77921
-4.77411
-4.7695
-4.76559
-4.75883
-4.74912
-4.73986
-4.7337
-4.73011
-4.72874
-4.93806
-4.93751
-4.936
-4.93362
-4.93044
-4.92658
-4.9222
-4.91728
-4.912
-4.90751
-4.90333
-4.89975
-4.89739
-4.89159
-4.88301
-4.87575
-4.87118
-4.86836
-4.86721
-5.05717
-5.05716
-5.05643
-5.05499
-5.05287
-5.05015
-5.04699
-5.04331
-5.03929
-5.03608
-5.0328
-5.03043
-5.0293
-5.02424
-5.01733
-5.01199
-5.00849
-5.00626
-5.00527
-5.17765
-5.17807
-5.17796
-5.17732
-5.1761
-5.17438
-5.17232
-5.16978
-5.16702
-5.16493
-5.16253
-5.16102
-5.16061
-5.15626
-5.15166
-5.14789
-5.14527
-5.14361
-5.14282
-5.29926
-5.3
-5.30041
-5.30043
-5.30001
-5.29921
-5.29818
-5.29678
-5.29525
-5.29414
-5.29258
-5.29147
-5.29151
-5.28855
-5.28568
-5.28324
-5.28144
-5.28034
-5.27976
-5.42174
-5.42273
-5.42356
-5.42417
-5.4245
-5.42461
-5.42456
-5.42426
-5.42388
-5.42364
-5.423
-5.42269
-5.42247
-5.42099
-5.41936
-5.41808
-5.41708
-5.41652
-5.41616
-5.54483
-5.54603
-5.54727
-5.54845
-5.54953
-5.55052
-5.55142
-5.55215
-5.55284
-5.55345
-5.55373
-5.5541
-5.55399
-5.55362
-5.55306
-5.55277
-5.55258
-5.55255
-5.55243
-5.66844
-5.66984
-5.67151
-5.67328
-5.67511
-5.67695
-5.67878
-5.68052
-5.68231
-5.68386
-5.68505
-5.68614
-5.68591
-5.68655
-5.6871
-5.68788
-5.68862
-5.68923
-5.68927
)
;

boundaryField
{
    leftWall
    {
        type            calculated;
        value           nonuniform List<scalar> 
50
(
904.917
848.552
793.906
740.226
687.67
637.274
589.549
544.992
479.871
378.113
248.855
258.494
403.404
376.947
169.373
32.0052
10.7874
3.48291
-1.0469
-1.47569
-1.12156
-0.940075
11.4804
11.1571
1.71091
-0.743494
-1.88527
-2.51295
-3.07216
-3.57842
-4.05108
-4.38987
-4.5653
-4.63256
-4.65325
-4.66289
-4.67799
-4.70363
-4.74142
-4.79138
-4.8524
-4.92324
-5.00152
-5.08673
-5.17739
-5.27234
-5.37057
-5.47128
-5.57358
-5.67748
)
;
    }
    rightWall
    {
        type            calculated;
        value           nonuniform List<scalar> 
50
(
417.703
360.263
310.439
280.94
246.38
204.246
162.017
131.376
101.166
89.9187
74.1114
40.2139
7.11454
3.98919
3.35499
2.64457
2.20563
1.70571
1.15686
0.61297
0.107038
-0.361149
-0.835546
-1.29426
-1.67218
-1.9904
-2.25937
-2.47507
-2.66818
-2.82578
-2.97087
-3.11275
-3.25913
-3.41415
-3.57355
-3.7307
-3.88263
-4.02918
-4.17167
-4.31187
-4.4511
-4.59001
-4.72874
-4.86721
-5.00527
-5.14282
-5.27976
-5.41616
-5.55243
-5.68927
)
;
    }
    lowerWall
    {
        type            calculated;
        value           nonuniform List<scalar> 
62
(
934.346
923.78
907
885.938
862.991
838.509
812.601
787.222
765.752
750.359
741.42
738.219
739.155
741.105
739.367
734.476
730.328
726.469
727.941
733.524
738.931
744.953
748.494
719.069
659.778
601.023
543.026
486.298
431.076
377.58
327.225
333.871
334.849
331.782
328.447
672.169
617.596
561.325
502.328
444.148
392.09
347.161
308.795
701.028
661.808
653.569
691.998
681.122
606.787
626.411
664.083
598.43
490.753
377.918
360.135
413.756
434.776
427.095
432.345
458.854
465.88
443.489
)
;
    }
    atmosphere
    {
        type            calculated;
        value           nonuniform List<scalar> 
46
(
-5.72904
-5.72904
-5.72904
-5.72904
-5.72904
-5.72904
-5.72904
-5.72904
-5.72904
-5.72904
-5.72904
-5.72904
-5.72904
-5.72904
-5.72904
-5.72904
-5.72904
-5.72904
-5.72904
-5.72904
-5.72904
-5.72904
-5.72904
-5.72909
-5.72921
-5.72943
-5.72975
-5.73054
-5.73204
-5.73397
-5.73597
-5.73817
-5.74041
-5.74273
-5.74496
-5.74744
-5.7495
-5.75118
-5.75279
-5.75205
-5.75325
-5.75441
-5.75592
-5.75725
-5.75833
-5.7583
)
;
    }
    defaultFaces
    {
        type            empty;
    }
}


// ************************************************************************* //
