/*--------------------------------*- C++ -*----------------------------------*\
| =========                 |                                                 |
| \\      /  F ield         | OpenFOAM: The Open Source CFD Toolbox           |
|  \\    /   O peration     | Version:  2206                                  |
|   \\  /    A nd           | Website:  www.openfoam.com                      |
|    \\/     M anipulation  |                                                 |
\*---------------------------------------------------------------------------*/
FoamFile
{
    version     2.0;
    format      ascii;
    arch        "LSB;label=32;scalar=64";
    class       surfaceScalarField;
    location    "0.925";
    object      phi;
}
// * * * * * * * * * * * * * * * * * * * * * * * * * * * * * * * * * * * * * //

dimensions      [0 3 -1 0 0 0 0];

oriented        oriented;

internalField   nonuniform List<scalar> 
4432
(
1.77185e-06
-1.77185e-06
5.63812e-07
1.20803e-06
-3.44681e-06
4.01062e-06
-7.79582e-06
4.34901e-06
-8.89343e-06
1.09761e-06
-7.07612e-06
-1.81731e-06
-5.3381e-06
-1.73801e-06
-5.01028e-06
-3.2782e-07
-5.8105e-06
8.00223e-07
-7.45244e-06
1.64194e-06
-9.75161e-06
2.29917e-06
-1.22263e-05
2.4747e-06
-1.39069e-05
1.68057e-06
-1.40426e-05
1.35705e-07
-1.44009e-05
3.58334e-07
-1.81281e-05
3.72716e-06
-2.39515e-05
5.8234e-06
-2.59785e-05
2.02705e-06
-2.19701e-05
-4.00837e-06
-1.56825e-05
-6.28761e-06
-1.01884e-05
-5.49416e-06
-4.58955e-06
-5.59883e-06
-4.58956e-06
-3.46309e-06
1.69123e-06
-7.782e-06
5.52694e-06
-1.1641e-05
7.86957e-06
-1.27681e-05
5.47619e-06
-1.08669e-05
-8.03582e-07
-7.87611e-06
-4.80814e-06
-5.78862e-06
-3.8255e-06
-5.20795e-06
-9.08488e-07
-5.89246e-06
1.48474e-06
-7.34561e-06
3.09509e-06
-9.34829e-06
4.30185e-06
-1.18314e-05
4.95776e-06
-1.48548e-05
4.70406e-06
-1.85772e-05
3.85809e-06
-2.26123e-05
4.39344e-06
-2.53691e-05
6.48394e-06
-2.42518e-05
4.70605e-06
-1.86827e-05
-3.54205e-06
-1.21555e-05
-1.05356e-05
-7.55955e-06
-1.08835e-05
-4.68433e-06
-8.36938e-06
-2.10122e-06
-8.18195e-06
-6.69077e-06
-5.35424e-06
7.04547e-06
-1.0172e-05
1.03447e-05
-1.30825e-05
1.07801e-05
-1.35512e-05
5.94487e-06
-1.17644e-05
-2.59036e-06
-8.82956e-06
-7.74299e-06
-6.51734e-06
-6.13772e-06
-5.70414e-06
-1.72169e-06
-6.10197e-06
1.88257e-06
-7.1391e-06
4.13223e-06
-8.48474e-06
5.6475e-06
-1.00962e-05
6.5692e-06
-1.21882e-05
6.79607e-06
-1.50226e-05
6.69251e-06
-1.76124e-05
6.98324e-06
-1.734e-05
6.21147e-06
-1.30632e-05
4.29289e-07
-7.48329e-06
-9.12195e-06
-3.42098e-06
-1.45979e-05
-9.13584e-07
-1.33909e-05
-1.43878e-07
-9.13908e-06
1.33534e-07
-8.45937e-06
-6.55724e-06
-4.77572e-06
1.18212e-05
-9.00881e-06
1.45777e-05
-1.17777e-05
1.3549e-05
-1.27734e-05
6.94059e-06
-1.14978e-05
-3.86592e-06
-8.8961e-06
-1.03447e-05
-7.04978e-06
-7.98404e-06
-6.42301e-06
-2.34844e-06
-6.8585e-06
2.31806e-06
-7.92017e-06
5.19391e-06
-9.26743e-06
6.99475e-06
-1.06608e-05
7.96259e-06
-1.18569e-05
7.99214e-06
-1.25331e-05
7.36869e-06
-1.18737e-05
6.32386e-06
-8.8471e-06
3.18489e-06
-4.66601e-06
-3.75179e-06
-1.7784e-06
-1.20096e-05
-4.15869e-07
-1.59604e-05
7.22257e-07
-1.4529e-05
9.13755e-07
-9.33058e-06
4.74923e-07
-8.02054e-06
-6.08231e-06
-3.06821e-06
1.48894e-05
-6.38156e-06
1.78911e-05
-8.96255e-06
1.61299e-05
-1.01394e-05
8.11743e-06
-9.37092e-06
-4.63439e-06
-7.73546e-06
-1.19802e-05
-6.99654e-06
-8.72296e-06
-6.96219e-06
-2.38278e-06
-7.61619e-06
2.97207e-06
-8.71573e-06
6.29346e-06
-1.01564e-05
8.43538e-06
-1.17518e-05
9.55807e-06
-1.29998e-05
9.24012e-06
-1.31071e-05
7.47597e-06
-1.12895e-05
4.50628e-06
-7.70595e-06
-3.98636e-07
-3.95399e-06
-7.50375e-06
-1.60109e-06
-1.43625e-05
-1.83868e-07
-1.73776e-05
9.37477e-07
-1.56504e-05
9.88856e-07
-9.38196e-06
4.01343e-07
-7.43302e-06
-5.68097e-06
-8.51564e-07
1.5741e-05
-2.89158e-06
1.99311e-05
-4.93508e-06
1.81734e-05
-5.98671e-06
9.16906e-06
-5.74946e-06
-4.87164e-06
-5.58087e-06
-1.21488e-05
-6.35316e-06
-7.95067e-06
-6.89957e-06
-1.83637e-06
-7.65301e-06
3.72552e-06
-8.53771e-06
7.17816e-06
-9.87989e-06
9.77758e-06
-1.17862e-05
1.14644e-05
-1.35919e-05
1.10458e-05
-1.42983e-05
8.18244e-06
-1.30391e-05
3.24705e-06
-9.68282e-06
-3.75492e-06
-5.35754e-06
-1.1829e-05
-1.43021e-06
-1.82898e-05
1.35558e-06
-2.01634e-05
2.89592e-06
-1.71907e-05
2.71739e-06
-9.20342e-06
1.03585e-06
-5.75148e-06
-4.64511e-06
1.88594e-06
1.3855e-05
1.04832e-06
2.07687e-05
-5.71881e-07
1.97936e-05
-9.84947e-07
9.58212e-06
-6.51249e-07
-5.20534e-06
-2.59736e-06
-1.02027e-05
-4.78667e-06
-5.76135e-06
-4.9672e-06
-1.65584e-06
-5.23022e-06
3.98855e-06
-5.7952e-06
7.74315e-06
-7.11076e-06
1.10931e-05
-9.51655e-06
1.38701e-05
-1.22141e-05
1.37433e-05
-1.39617e-05
9.93006e-06
-1.34287e-05
2.7141e-06
-1.00331e-05
-7.15061e-06
-4.87534e-06
-1.69868e-05
-3.17694e-07
-2.28474e-05
3.3826e-06
-2.38637e-05
5.69428e-06
-1.95024e-05
5.56548e-06
-9.07461e-06
2.43441e-06
-2.6204e-06
-2.2107e-06
4.91868e-06
8.93633e-06
5.26934e-06
2.04181e-05
4.85505e-06
2.02079e-05
6.19938e-06
8.23778e-06
5.30769e-06
-4.31365e-06
3.44175e-07
-5.23916e-06
-2.26363e-06
-3.15354e-06
-1.83447e-06
-2.085e-06
-2.9459e-06
5.09998e-06
-4.43667e-06
9.23393e-06
-6.04905e-06
1.27055e-05
-8.30331e-06
1.61244e-05
-1.10394e-05
1.64794e-05
-1.32909e-05
1.21816e-05
-1.33035e-05
2.7266e-06
-1.03373e-05
-1.01168e-05
-5.87768e-06
-2.14464e-05
-1.16154e-06
-2.75636e-05
4.19001e-06
-2.92152e-05
8.05378e-06
-2.33662e-05
7.7597e-06
-8.78053e-06
4.0181e-06
1.1212e-06
1.80741e-06
-5.88424e-06
5.88424e-06
-2.26176e-05
1.67334e-05
-1.9559e-05
-3.05855e-06
2.56105e-06
-2.21201e-05
2.26937e-05
-2.01326e-05
2.30927e-05
-3.98992e-07
7.79778e-06
1.52949e-05
-3.91994e-06
1.17177e-05
5.39111e-06
-9.31104e-06
2.43823e-05
-1.89912e-05
2.19743e-05
2.40804e-06
7.84315e-07
2.119e-05
-1.95944e-05
2.03787e-05
-3.36888e-05
1.40943e-05
-4.21747e-05
8.48593e-06
-3.81986e-05
-3.97612e-06
-2.1465e-05
-1.67336e-05
-3.89286e-06
-1.75721e-05
-3.89287e-06
-1.39418e-05
1.9826e-05
-2.22663e-05
2.50579e-05
-1.60345e-05
-9.2904e-06
-1.05977e-06
-3.70948e-05
1.39203e-05
-3.51127e-05
1.31496e-05
3.71734e-07
-3.09207e-06
3.15365e-05
-1.58779e-05
2.45036e-05
-1.39885e-05
-1.12005e-05
-4.15678e-06
-2.88229e-05
7.89052e-06
-9.63926e-06
-1.04607e-06
3.01266e-05
-2.44294e-05
4.37621e-05
-4.04995e-05
3.01644e-05
-4.20828e-05
1.00693e-05
-3.01125e-05
-1.59465e-05
-1.28388e-05
-3.40072e-05
2.82434e-06
-3.32353e-05
-1.06852e-06
-1.39456e-05
3.37717e-05
-1.87634e-05
2.98757e-05
-1.34109e-05
-1.46429e-05
-4.54493e-06
-4.59608e-05
-2.26847e-06
-3.73892e-05
-1.1722e-05
9.82532e-06
-3.69776e-05
5.67921e-05
-5.87652e-05
4.62912e-05
-5.79251e-05
-1.20406e-05
-3.98681e-05
-4.688e-05
-1.8572e-05
-3.09353e-05
-1.07945e-05
2.23491e-05
-2.01196e-05
5.30872e-05
-2.89225e-05
3.89673e-05
-2.84324e-05
9.57923e-06
-2.11103e-05
-2.32686e-05
-1.04673e-05
-4.46503e-05
2.03086e-06
-4.57335e-05
9.62359e-07
-1.06122e-05
4.43838e-05
-1.45844e-05
3.38479e-05
-9.66384e-06
-1.95634e-05
-4.92286e-06
-5.07018e-05
-1.20884e-05
-3.02236e-05
-4.21988e-05
3.99357e-05
-8.01014e-05
9.46947e-05
-9.52729e-05
6.14627e-05
-8.68893e-05
-2.04242e-05
-6.99549e-05
-6.38144e-05
-4.57602e-05
-5.513e-05
-2.56823e-05
2.27124e-06
-2.07506e-05
4.81555e-05
-2.35568e-05
4.17736e-05
-2.434e-05
1.03623e-05
-2.26328e-05
-2.49758e-05
-1.44056e-05
-5.28775e-05
-3.26849e-06
-5.68705e-05
-2.30617e-06
-5.53741e-06
4.99212e-05
-7.66702e-06
3.59775e-05
-2.58603e-06
-2.46444e-05
-2.09639e-06
-5.11914e-05
-1.954e-05
-1.278e-05
-6.4359e-05
8.47547e-05
-9.94521e-05
0.000129788
-9.78693e-05
5.98798e-05
-8.7492e-05
-3.08015e-05
-7.79955e-05
-7.3311e-05
-6.40902e-05
-6.90353e-05
-4.32932e-05
-1.85258e-05
-3.0138e-05
3.50003e-05
-2.87155e-05
4.03511e-05
-3.13668e-05
1.30136e-05
-3.18984e-05
-2.44442e-05
-2.20501e-05
-6.27258e-05
-5.6244e-06
-7.32962e-05
-7.93051e-06
2.43393e-07
4.96778e-05
3.08901e-06
3.31319e-05
6.83957e-06
-2.8395e-05
3.10692e-06
-4.74587e-05
-1.59211e-05
6.24802e-06
-6.30161e-05
0.00013185
-8.98676e-05
0.000156639
-6.83403e-05
3.83526e-05
-5.29358e-05
-4.6206e-05
-6.32492e-05
-6.29976e-05
-6.65624e-05
-6.57221e-05
-5.87377e-05
-2.63505e-05
-4.72593e-05
2.35219e-05
-4.25757e-05
3.56674e-05
-4.71275e-05
1.75655e-05
-5.32834e-05
-1.82883e-05
-4.08757e-05
-7.51336e-05
-9.12008e-06
-0.000105052
-1.70506e-05
7.76936e-06
4.19085e-05
1.30527e-05
2.78486e-05
1.57746e-05
-3.11169e-05
9.80941e-06
-4.14935e-05
-5.08249e-06
2.11399e-05
-4.07874e-05
0.000167555
-5.56794e-05
0.000171531
-3.54754e-05
1.81486e-05
-2.97689e-05
-5.19124e-05
-4.70934e-05
-4.56731e-05
-5.95094e-05
-5.33061e-05
-6.52288e-05
-2.06311e-05
-6.21464e-05
2.04396e-05
-6.0239e-05
3.376e-05
-7.657e-05
3.38965e-05
-0.000100395
5.53631e-06
-7.21799e-05
-0.000103348
-1.48847e-05
-0.000162347
-3.19353e-05
1.28917e-05
2.90167e-05
2.07153e-05
2.0025e-05
2.19149e-05
-3.23165e-05
1.5128e-05
-3.47066e-05
6.72386e-07
3.55955e-05
-2.3792e-05
0.000192019
-1.45258e-05
0.000162265
2.02087e-06
1.60181e-06
-2.06897e-05
-2.92018e-05
-4.82862e-05
-1.80766e-05
-6.39184e-05
-3.7674e-05
-6.53391e-05
-1.92104e-05
-7.1215e-05
2.63155e-05
-9.65566e-05
5.91015e-05
-0.000151724
8.9064e-05
-0.000185262
3.90737e-05
-9.70361e-05
-0.000191574
-2.00202e-05
-0.000239363
-5.19555e-05
2.54842e-05
-1.65479e-05
3.05256e-05
1.53767e-05
2.91197e-05
2.16138e-05
2.36393e-05
1.37181e-05
8.57625e-06
1.07494e-05
-4.63203e-06
7.96912e-06
-8.65918e-06
8.73608e-07
-1.45341e-05
3.78988e-06
-3.1815e-05
2.23809e-05
-4.2219e-05
1.9638e-05
-4.37819e-05
1.42684e-05
-4.412e-05
1.64625e-05
-4.5888e-05
1.82475e-05
-4.82934e-05
1.45869e-05
-4.91988e-05
3.63203e-06
-4.49588e-05
-1.43568e-05
-3.30994e-05
-3.33057e-05
-1.69377e-05
-4.37253e-05
-2.5796e-06
-4.35733e-05
7.57767e-06
-3.35234e-05
1.19837e-05
-1.31865e-05
1.07298e-05
2.37509e-06
6.49883e-06
6.03839e-06
3.36798e-05
-5.02277e-05
4.28325e-05
6.22402e-06
4.07416e-05
2.37047e-05
3.05759e-05
2.38839e-05
1.02655e-05
3.10598e-05
-1.80834e-05
3.6318e-05
-4.49827e-05
2.77729e-05
-5.65534e-05
1.53605e-05
-7.76336e-05
4.34611e-05
-9.88946e-05
4.0899e-05
-0.000119734
3.51081e-05
-0.000139748
3.6476e-05
-0.00014895
2.74497e-05
-0.000148283
1.39198e-05
-0.000134854
-9.7968e-06
-0.000106882
-4.2329e-05
-7.72703e-05
-6.29172e-05
-6.60045e-05
-5.49911e-05
-7.07267e-05
-3.88511e-05
-7.48559e-05
-2.93942e-05
-6.14089e-05
-2.66336e-05
-3.35418e-05
-2.54919e-05
-2.73025e-05
2.59501e-07
1.66053e-05
-6.6833e-05
1.84938e-05
4.33549e-06
4.63558e-06
3.75629e-05
-1.99157e-05
4.84351e-05
-4.68952e-05
5.80393e-05
-5.85125e-05
4.79353e-05
-7.82102e-05
4.74706e-05
-0.000127996
6.51468e-05
-0.000166478
8.19432e-05
-0.000206511
8.09321e-05
-0.000240263
6.88595e-05
-0.000255755
5.19681e-05
-0.000250373
2.20678e-05
-0.000236807
3.5412e-07
-0.000215065
-3.15391e-05
-0.000178069
-7.93251e-05
-0.00015264
-8.83457e-05
-0.00015158
-5.60517e-05
-0.000162916
-2.75151e-05
-0.000161075
-3.1235e-05
-0.000136432
-5.1277e-05
-9.26303e-05
-6.92933e-05
-7.31667e-05
-4.67662e-05
-3.8272e-05
-2.8561e-05
-7.97923e-05
4.58558e-05
-0.000122809
8.058e-05
-0.000160409
8.60349e-05
-0.000188172
8.58025e-05
-0.000207012
6.6775e-05
-0.000224772
6.52305e-05
-0.000231467
7.18416e-05
-0.000225358
7.58349e-05
-0.000216297
7.18705e-05
-0.000205384
5.7947e-05
-0.000199646
4.62298e-05
-0.000218886
4.13075e-05
-0.000255742
3.72106e-05
-0.000239795
-4.74862e-05
-0.000211604
-0.000107516
-0.000198593
-0.000101356
-0.00019366
-6.09852e-05
-0.000186714
-3.44611e-05
-0.000170948
-4.70006e-05
-0.000146033
-7.61918e-05
-0.000114231
-0.000101096
-0.000102309
-8.50881e-05
-8.66334e-05
5.80724e-05
-0.000162555
0.000121777
-0.000230706
0.000148731
-0.000302464
0.000157793
-0.000341119
0.000124458
-0.000332337
5.79938e-05
-0.000315705
4.85983e-05
-0.000291949
4.80857e-05
-0.000252217
3.61023e-05
-0.000207309
2.69631e-05
-0.000174553
2.51907e-05
-0.000159135
3.08121e-05
-0.000164601
4.67734e-05
-0.000218064
9.06728e-05
-0.000230813
-3.47365e-05
-0.000229495
-0.000108834
-0.00022432
-0.000106532
-0.000217135
-6.81701e-05
-0.000212959
-3.86372e-05
-0.000198043
-6.19161e-05
-0.000170995
-0.000103241
-0.000140363
-0.000131727
-0.000119308
-0.000123365
-8.61646e-05
0.000144237
-0.000159826
0.000195439
-0.000258528
0.000247432
-0.000319515
0.00021878
-0.000342414
0.000147357
-0.000348981
6.45599e-05
-0.000337402
3.70196e-05
-0.000318555
2.92395e-05
-0.000292104
9.6511e-06
-0.000263868
-1.27276e-06
-0.000241666
2.98838e-06
-0.000233566
2.27118e-05
-0.00024126
5.44676e-05
-0.000254434
0.000103847
-0.000274857
-1.43138e-05
-0.000267958
-0.000115733
-0.000258055
-0.000116434
-0.000243569
-8.26563e-05
-0.000236018
-4.61883e-05
-0.000215629
-8.23053e-05
-0.000187051
-0.000131819
-0.000165624
-0.000153154
-0.000128695
-0.000156237
-5.00235e-05
0.000194261
-0.000130082
0.000275498
-0.000225222
0.000342572
-0.000276511
0.000270068
-0.000302865
0.000173712
-0.000328859
9.05542e-05
-0.000350862
5.90219e-05
-0.000356193
3.45709e-05
-0.000355548
9.00591e-06
-0.000343919
-1.29022e-05
-0.00032258
-1.835e-05
-0.000306483
6.61455e-06
-0.000300357
4.83413e-05
-0.000266915
7.04053e-05
-0.000257925
-2.33039e-05
-0.000261038
-0.00011262
-0.000248825
-0.000128647
-0.000228556
-0.000102925
-0.000206079
-6.86656e-05
-0.000204786
-8.3598e-05
-0.000204093
-0.000132512
-0.000196898
-0.000160349
-0.000145956
-0.000179637
-3.67202e-05
0.000230981
-0.000111063
0.000349841
-0.000178828
0.000410337
-0.000217168
0.000308408
-0.000252553
0.000209097
-0.000293573
0.000131575
-0.000322357
8.78056e-05
-0.000340681
5.28951e-05
-0.000354621
2.29456e-05
-0.000365005
-2.51826e-06
-0.000370299
-1.30562e-05
-0.000359704
-3.98058e-06
-0.000327199
1.58362e-05
-0.000267806
1.10126e-05
-0.000245921
-4.51894e-05
-0.00025317
-0.000105371
-0.000242569
-0.000139248
-0.000221796
-0.000123698
-0.000197176
-9.32863e-05
-0.000200904
-7.98695e-05
-0.000204003
-0.000129414
-0.000200828
-0.000163524
-0.000151032
-0.000195752
-3.28866e-05
0.000263867
-0.000101526
0.00041848
-0.000138803
0.000447614
-0.000164183
0.000333788
-0.00018837
0.000233283
-0.000215294
0.000158499
-0.000231361
0.000103872
-0.000242337
6.38706e-05
-0.00025733
3.79386e-05
-0.000279008
1.91602e-05
-0.000298944
6.87922e-06
-0.000304618
1.69338e-06
-0.000286518
-2.26398e-06
-0.000254885
-2.06203e-05
-0.000238144
-6.19294e-05
-0.000235684
-0.00010783
-0.000240923
-0.00013401
-0.000231552
-0.000133068
-0.000219908
-0.00010493
-0.000218758
-8.10198e-05
-0.000204263
-0.000143909
-0.000188565
-0.000179222
-0.000151528
-0.000188069
-2.68519e-05
0.000290719
-8.37081e-05
0.000475336
-0.000103865
0.000467771
-0.000119513
0.000349436
-0.000130272
0.000244042
-0.000138669
0.000166896
-0.000141543
0.000106746
-0.000146643
6.8971e-05
-0.000156838
4.81332e-05
-0.0001713
3.36229e-05
-0.000186701
2.22793e-05
-0.00019789
1.28829e-05
-0.000201356
1.20154e-06
-0.000200846
-2.11304e-05
-0.00020611
-5.66644e-05
-0.000219702
-9.42381e-05
-0.000233258
-0.000120453
-0.000244685
-0.000121642
-0.000245959
-0.000103656
-0.00022065
-0.000106329
-0.000208982
-0.000155577
-0.000185437
-0.000202768
-0.000162024
-0.000174941
-2.98719e-05
0.000320591
-6.44458e-05
0.00050991
-7.40092e-05
0.000477335
-8.30802e-05
0.000358507
-8.41846e-05
0.000245147
-8.43382e-05
0.000167049
-8.59492e-05
0.000108357
-9.24447e-05
7.54666e-05
-9.92461e-05
5.49346e-05
-0.00010386
3.82367e-05
-0.000105599
2.40177e-05
-0.000105132
1.24161e-05
-0.000105854
1.92339e-06
-0.000111093
-1.58903e-05
-0.000127424
-4.03336e-05
-0.000152789
-6.88734e-05
-0.000180195
-9.30473e-05
-0.000197047
-0.00010479
-0.000192414
-0.000108289
-0.000176863
-0.00012188
-0.000168092
-0.000164347
-0.000177658
-0.000193202
-0.000160151
-0.000179531
-3.07311e-05
0.000351322
-5.37882e-05
0.000532967
-5.42427e-05
0.000477789
-5.725e-05
0.000361514
-5.70819e-05
0.000244979
-6.42507e-05
0.000174218
-7.92249e-05
0.000123331
-9.33867e-05
8.96284e-05
-9.83145e-05
5.98621e-05
-9.42251e-05
3.41474e-05
-8.41828e-05
1.39754e-05
-7.06952e-05
-1.07151e-06
-5.56832e-05
-1.30885e-05
-4.64146e-05
-2.51588e-05
-4.82158e-05
-3.85323e-05
-6.32517e-05
-5.38374e-05
-8.74048e-05
-6.88939e-05
-0.000110358
-8.1836e-05
-0.000122252
-9.63948e-05
-0.000126192
-0.00011794
-0.000142633
-0.000147906
-0.000170724
-0.000165111
-0.000161481
-0.000169393
-2.4468e-05
0.00037579
-4.92493e-05
0.000557749
-4.60633e-05
0.000474603
-4.33677e-05
0.000358819
-5.42447e-05
0.000255856
-7.95072e-05
0.000199481
-0.000110689
0.000154512
-0.000131078
0.000110018
-0.000134484
6.32681e-05
-0.000124117
2.37796e-05
-0.000103504
-6.63742e-06
-7.87496e-05
-2.5826e-05
-5.40639e-05
-3.77741e-05
-3.33189e-05
-4.59039e-05
-1.95717e-05
-5.22795e-05
-1.54467e-05
-5.79626e-05
-1.99323e-05
-6.44082e-05
-2.90035e-05
-7.27648e-05
-4.1328e-05
-8.40702e-05
-5.68746e-05
-0.000102394
-7.81539e-05
-0.000126627
-9.83475e-05
-0.000144918
-0.000151729
-0.000108099
-8.34967e-06
0.00038414
-3.48968e-05
0.000584296
-4.4514e-05
0.00048422
-4.15851e-05
0.00035589
-6.99124e-05
0.000284183
-0.000114196
0.000243764
-0.000157649
0.000197965
-0.000183329
0.000135698
-0.000185104
6.50434e-05
-0.000166803
5.47786e-06
-0.000134601
-3.88392e-05
-9.97381e-05
-6.06889e-05
-6.73406e-05
-7.01716e-05
-3.93433e-05
-7.39012e-05
-1.67422e-05
-7.48803e-05
-8.87308e-07
-7.38173e-05
6.48402e-06
-7.17793e-05
6.95364e-06
-7.32343e-05
3.10751e-06
-8.02239e-05
-5.38845e-06
-9.38974e-05
-1.99196e-05
-0.000112096
-3.57306e-05
-0.000129107
-0.000138987
-4.8473e-05
1.20552e-06
0.000382935
-2.89311e-05
0.000614432
-3.54833e-05
0.000490772
-4.22273e-05
0.000362634
-8.75615e-05
0.000329517
-0.000147758
0.000303961
-0.00020487
0.000255077
-0.000241654
0.000172482
-0.000245113
6.85028e-05
-0.000215869
-2.37665e-05
-0.000169221
-8.54873e-05
-0.000119366
-0.000110543
-7.71342e-05
-0.000112404
-4.39238e-05
-0.000107112
-1.7786e-05
-0.000101018
3.73692e-06
-9.53399e-05
2.16645e-05
-8.97071e-05
3.32365e-05
-8.48063e-05
3.68691e-05
-8.38566e-05
3.29679e-05
-8.9996e-05
2.26001e-05
-0.000101728
9.03705e-06
-0.000115543
-0.000126231
-3.71925e-06
1.07742e-05
0.00037216
2.38431e-05
0.000601363
3.35783e-06
0.000511257
-2.69467e-05
0.000392938
-8.69317e-05
0.000389502
-0.000160065
0.000377095
-0.000231489
0.0003265
-0.00027936
0.000220353
-0.000284334
7.34769e-05
-0.000253449
-5.46516e-05
-0.000196166
-0.00014277
-0.000131537
-0.000175172
-7.75715e-05
-0.000166369
-3.88845e-05
-0.000145798
-1.18132e-05
-0.00012809
8.49155e-06
-0.000115644
2.50327e-05
-0.000106248
3.94655e-05
-9.92387e-05
5.0124e-05
-9.4515e-05
5.33302e-05
-9.32022e-05
4.83097e-05
-9.67075e-05
3.7273e-05
-0.000104507
-0.000113217
2.42592e-05
3.62296e-05
0.000335931
7.63727e-05
0.00056122
6.081e-05
0.00052682
1.44753e-05
0.000439273
-4.85801e-05
0.000452557
-0.00012203
0.000450545
-0.000193132
0.000397602
-0.000239011
0.000266232
-0.000248908
8.3374e-05
-0.000229048
-7.45115e-05
-0.000180825
-0.000190994
-0.000119107
-0.00023689
-6.26031e-05
-0.000222874
-2.27321e-05
-0.000185669
3.6781e-06
-0.0001545
2.09752e-05
-0.000132942
3.33485e-05
-0.000118622
4.31136e-05
-0.000109004
5.13024e-05
-0.000102704
5.72281e-05
-9.9128e-05
5.87683e-05
-9.82477e-05
5.41244e-05
-9.9863e-05
-0.00010302
4.3928e-05
7.5976e-05
0.000259955
0.000135523
0.000501673
0.000126562
0.000535781
7.85523e-05
0.000487282
3.04407e-05
0.000500669
-2.48816e-05
0.000505867
-7.68016e-05
0.000449522
-0.000109044
0.000298474
-0.000126019
0.000100349
-0.000121649
-7.88812e-05
-0.00010106
-0.000211583
-6.54143e-05
-0.000272535
-2.48494e-05
-0.000263439
7.22312e-06
-0.000217742
2.7082e-05
-0.000174359
3.89628e-05
-0.000144822
4.63741e-05
-0.000126033
5.11689e-05
-0.000113799
5.42815e-05
-0.000105816
5.61363e-05
-0.000100983
5.66488e-05
-9.87602e-05
5.51237e-05
-9.83381e-05
-9.87747e-05
5.08779e-05
9.99312e-05
0.000160024
0.000192251
0.000409353
0.000208433
0.000519599
0.000168628
0.000527087
0.000134226
0.000535071
0.000106616
0.000533477
7.91132e-05
0.000477025
5.11913e-05
0.000326396
3.09866e-05
0.000120554
2.57121e-05
-7.36069e-05
2.40394e-05
-0.00020991
2.75366e-05
-0.000276033
3.81556e-05
-0.000274058
4.95405e-05
-0.000229127
5.67382e-05
-0.000181556
6.02331e-05
-0.000148317
6.1509e-05
-0.000127309
6.14094e-05
-0.000113699
6.02942e-05
-0.000104701
5.82922e-05
-9.8981e-05
5.53876e-05
-9.58556e-05
5.16881e-05
-9.46386e-05
-9.43368e-05
4.72503e-05
7.99746e-05
8.00488e-05
0.000217925
0.000271403
0.000291288
0.000446237
0.000287435
0.00053094
0.000263395
0.000559111
0.00024728
0.000549592
0.000237419
0.000486886
0.000220587
0.000343228
0.000199267
0.000141873
0.000180109
-5.44498e-05
0.000157993
-0.000187793
0.000132378
-0.000250419
0.000111662
-0.000253341
9.79991e-05
-0.000215464
8.90896e-05
-0.000172647
8.24034e-05
-0.000141631
7.68033e-05
-0.000121709
7.17719e-05
-0.000108668
6.69694e-05
-9.98987e-05
6.21006e-05
-9.41122e-05
5.68872e-05
-9.06423e-05
5.11739e-05
-8.89252e-05
-8.81268e-05
4.49641e-05
4.93909e-05
3.06578e-05
0.000188432
0.000132361
0.000322871
0.000311798
0.000390884
0.000462927
0.000406592
0.000543402
0.000404486
0.000551699
0.000401766
0.000489606
0.000392551
0.000352443
0.000369743
0.000164682
0.000329578
-1.4285e-05
0.000279964
-0.000138179
0.000226506
-0.000196961
0.000178669
-0.000205504
0.000142898
-0.000179693
0.000118842
-0.000148591
0.00010247
-0.000125258
9.04648e-05
-0.000109704
8.09962e-05
-9.91992e-05
7.30683e-05
-9.19708e-05
6.60147e-05
-8.70583e-05
5.92906e-05
-8.39181e-05
5.25063e-05
-8.21407e-05
-8.10988e-05
4.54784e-05
3.37799e-05
-3.12191e-06
0.000132826
3.33145e-05
0.0002809
0.000163725
0.000409681
0.000334146
0.000488686
0.000464397
0.00052653
0.000513854
0.000541209
0.000474927
0.000534904
0.000358748
0.00050071
0.000198876
0.000440448
4.59767e-05
0.000365228
-6.29593e-05
0.000290055
-0.000121788
0.000223883
-0.000139332
0.000174204
-0.000130014
0.000140428
-0.000114815
0.000117432
-0.000102263
0.000100837
-9.31095e-05
8.81236e-05
-8.64853e-05
7.78883e-05
-8.17353e-05
6.92382e-05
-7.84082e-05
6.15032e-05
-7.61829e-05
5.41642e-05
-7.48016e-05
-7.38827e-05
4.69483e-05
2.49644e-05
-2.80864e-05
7.75377e-05
-1.92587e-05
0.000188017
5.32451e-05
0.000325967
0.000196197
0.000446219
0.000344144
0.00052746
0.000432613
0.000568585
0.000433802
0.000570326
0.000357007
0.000534012
0.00023519
0.000467209
0.00011278
0.000386383
1.78669e-05
0.000306746
-4.21512e-05
0.00023787
-7.04549e-05
0.000186523
-7.8668e-05
0.000150761
-7.9053e-05
0.000125523
-7.70248e-05
0.000106893
-7.44792e-05
9.25241e-05
-7.21166e-05
8.09933e-05
-7.02045e-05
7.13707e-05
-6.87855e-05
6.29908e-05
-6.7803e-05
5.5363e-05
-6.71738e-05
-6.67005e-05
4.8181e-05
2.96481e-06
-3.10513e-05
1.60555e-05
-3.23494e-05
7.41585e-05
-4.85767e-06
0.000180416
8.99387e-05
0.000296859
0.000227702
0.000393936
0.000335536
0.000456191
0.000371548
0.000477108
0.00033609
0.000457152
0.000255146
0.000407147
0.000162785
0.000343259
8.17543e-05
0.00027924
2.18677e-05
0.000224325
-1.55398e-05
0.000182058
-3.64006e-05
0.00015057
-4.75654e-05
0.000126841
-5.32961e-05
0.000108528
-5.61657e-05
9.40127e-05
-5.76015e-05
8.21711e-05
-5.83629e-05
7.2214e-05
-5.88284e-05
6.3577e-05
-5.9166e-05
5.58532e-05
-5.945e-05
-5.96254e-05
4.87781e-05
-1.43213e-05
-1.673e-05
-2.85717e-05
-1.80992e-05
-1.90734e-05
-1.43559e-05
3.1843e-05
3.90223e-05
0.000118084
0.000141461
0.000208044
0.000245576
0.000278824
0.000300768
0.000318021
0.000296893
0.000323928
0.000249239
0.000304423
0.000182291
0.000270731
0.000115446
0.000232842
5.9757e-05
0.000197593
1.97088e-05
0.000167745
-6.55258e-06
0.000143011
-2.28311e-05
0.000122846
-3.31315e-05
0.000106398
-3.97175e-05
9.28406e-05
-4.40441e-05
8.14669e-05
-4.69892e-05
7.17302e-05
-4.90916e-05
6.32121e-05
-5.06479e-05
5.56056e-05
-5.18434e-05
-5.27162e-05
4.86963e-05
-2.00889e-05
3.35898e-06
-4.88057e-05
1.06175e-05
-6.91364e-05
5.97449e-06
-6.31877e-05
3.30738e-05
-1.90461e-05
9.73195e-05
4.95515e-05
0.000176978
0.000117489
0.000232831
0.000169429
0.000244953
0.000198909
0.000219758
0.000207934
0.000173266
0.000202423
0.000120957
0.000187765
7.44146e-05
0.000168899
3.85751e-05
0.000149344
1.30028e-05
0.000131355
-4.84245e-06
0.00011535
-1.71264e-05
0.000101484
-2.5851e-05
8.95117e-05
-3.20722e-05
7.91284e-05
-3.66059e-05
7.00224e-05
-3.99856e-05
6.1935e-05
-4.25606e-05
5.46548e-05
-4.45632e-05
-4.60811e-05
4.80196e-05
-1.77758e-05
2.11347e-05
-4.45209e-05
3.73625e-05
-7.10746e-05
3.25279e-05
-8.49894e-05
4.69886e-05
-7.23169e-05
8.46469e-05
-3.09986e-05
0.00013566
2.42449e-05
0.000177587
7.71521e-05
0.000192046
0.000117875
0.000179034
0.000142906
0.000148236
0.000152773
0.00011109
0.000151043
7.61442e-05
0.00014238
4.72381e-05
0.000130608
2.47748e-05
0.000118027
7.73902e-06
0.000105983
-5.08232e-06
9.4793e-05
-1.46615e-05
8.46517e-05
-2.19309e-05
7.55294e-05
-2.74836e-05
6.73089e-05
-3.17652e-05
5.98695e-05
-3.51212e-05
5.30841e-05
-3.77779e-05
-3.98461e-05
4.68491e-05
-1.3269e-05
3.44035e-05
-3.13573e-05
5.54506e-05
-4.98292e-05
5.09999e-05
-6.23766e-05
5.9536e-05
-6.01045e-05
8.23748e-05
-3.73431e-05
0.000112899
1.25878e-06
0.000138985
4.39466e-05
0.000149358
8.0678e-05
0.000142303
0.000106029
0.000122884
0.00011922
9.78994e-05
0.000122629
7.27352e-05
0.000119615
5.02514e-05
0.000113015
3.13748e-05
0.000104721
1.60335e-05
9.5874e-05
3.76471e-06
8.71681e-05
-5.95559e-06
7.88499e-05
-1.36127e-05
7.1065e-05
-1.96987e-05
6.38531e-05
-2.45533e-05
5.71823e-05
-2.84504e-05
5.10015e-05
-3.15972e-05
-3.41021e-05
4.52572e-05
-9.53736e-06
4.39407e-05
-1.98278e-05
6.57407e-05
-2.93064e-05
6.04788e-05
-3.46732e-05
6.49025e-05
-3.20656e-05
7.97673e-05
-1.74784e-05
9.83115e-05
7.70764e-06
0.000113799
3.7133e-05
0.000119933
6.38628e-05
0.000115573
8.37203e-05
0.000103027
9.56356e-05
8.5984e-05
0.000100672
6.76985e-05
0.000100671
5.02523e-05
9.73793e-05
3.46668e-05
9.21396e-05
2.12733e-05
8.58734e-05
1.0031e-05
7.92319e-05
6.85926e-07
7.25763e-05
-6.95707e-06
6.60905e-05
-1.32129e-05
5.98997e-05
-1.83625e-05
5.40417e-05
-2.25926e-05
4.85232e-05
-2.6079e-05
-2.89081e-05
4.3329e-05
-6.81951e-06
5.07601e-05
-1.19613e-05
7.08825e-05
-1.57846e-05
6.43021e-05
-1.66434e-05
6.57612e-05
-1.24373e-05
7.55612e-05
-1.77932e-06
8.76533e-05
1.50921e-05
9.69278e-05
3.48188e-05
0.000100206
5.34817e-05
9.69101e-05
6.8329e-05
8.81795e-05
7.82895e-05
7.60235e-05
8.35927e-05
6.23954e-05
8.51084e-05
4.87366e-05
8.38482e-05
3.5927e-05
8.07115e-05
2.44099e-05
7.64063e-05
1.43362e-05
7.14174e-05
5.67487e-06
6.61857e-05
-1.72527e-06
6.08877e-05
-7.91489e-06
5.56628e-05
-1.31377e-05
5.06088e-05
-1.75387e-05
4.57655e-05
-2.12358e-05
-2.42958e-05
4.11531e-05
-4.62954e-06
5.53896e-05
-6.66493e-06
7.29181e-05
-7.45731e-06
6.50942e-05
-6.27538e-06
6.45795e-05
-1.922e-06
7.12077e-05
6.41947e-06
7.93117e-05
1.84591e-05
8.48882e-05
3.23228e-05
8.6342e-05
4.5773e-05
8.34597e-05
5.7031e-05
7.69214e-05
6.52034e-05
6.78511e-05
7.01883e-05
5.74105e-05
7.23624e-05
4.65625e-05
7.22923e-05
3.59971e-05
7.05575e-05
2.61447e-05
6.76669e-05
1.72269e-05
6.4027e-05
9.31487e-06
5.99227e-05
2.37905e-06
5.56542e-05
-3.64635e-06
5.13153e-05
-8.79888e-06
4.70267e-05
-1.32502e-05
4.28451e-05
-1.70542e-05
-2.02797e-05
3.88291e-05
-2.83596e-06
5.82256e-05
-2.89964e-06
7.29818e-05
-2.06252e-06
6.42569e-05
-1.34841e-07
6.26521e-05
3.86012e-06
6.72126e-05
1.05561e-05
7.26157e-05
1.95693e-05
7.58751e-05
2.978e-05
7.61312e-05
3.97951e-05
7.34445e-05
4.84564e-05
6.82601e-05
5.50989e-05
6.12086e-05
5.95321e-05
5.29774e-05
6.1889e-05
4.42056e-05
6.24723e-05
3.54138e-05
6.16435e-05
2.69735e-05
5.97558e-05
1.91147e-05
5.71171e-05
1.19536e-05
5.397e-05
5.5263e-06
5.05686e-05
-2.44968e-07
4.7006e-05
-5.23617e-06
4.34093e-05
-9.65338e-06
3.9868e-05
-1.35128e-05
-1.68539e-05
3.64423e-05
-1.39029e-06
5.96159e-05
-2.7302e-07
7.18644e-05
1.40589e-06
6.25782e-05
3.67625e-06
6.03819e-05
7.26777e-06
6.36209e-05
1.26661e-05
6.72175e-05
1.96206e-05
6.89207e-05
2.73635e-05
6.83882e-05
3.49831e-05
6.58249e-05
4.17204e-05
6.1523e-05
4.71007e-05
5.58284e-05
5.09283e-05
4.91497e-05
5.32191e-05
4.19149e-05
5.41235e-05
3.45094e-05
5.38615e-05
2.72356e-05
5.2674e-05
2.03024e-05
5.07916e-05
1.38362e-05
4.84201e-05
7.89793e-06
4.56803e-05
2.49493e-06
4.28117e-05
-2.3674e-06
3.98504e-05
-6.69206e-06
3.68961e-05
-1.05584e-05
-1.39755e-05
3.40177e-05
-2.86587e-07
5.99026e-05
1.49676e-06
7.0081e-05
3.60482e-06
6.04705e-05
5.92836e-06
5.80583e-05
9.11799e-06
6.04312e-05
1.35618e-05
6.27739e-05
1.90576e-05
6.3425e-05
2.50582e-05
6.23878e-05
3.0957e-05
5.99262e-05
3.62544e-05
5.62257e-05
4.06148e-05
5.14681e-05
4.38652e-05
4.58993e-05
4.59701e-05
3.98101e-05
4.69958e-05
3.34837e-05
4.70732e-05
2.71583e-05
4.63636e-05
2.10122e-05
4.50338e-05
1.51661e-05
4.32392e-05
9.69263e-06
4.11066e-05
4.62769e-06
3.87915e-05
-5.22217e-08
3.63564e-05
-4.25707e-06
3.38924e-05
-8.09451e-06
-1.15541e-05
3.14708e-05
4.9257e-07
5.941e-05
2.62349e-06
6.79502e-05
4.86952e-06
5.82248e-05
7.11335e-06
5.58143e-05
9.94989e-06
5.75948e-05
1.36753e-05
5.90487e-05
1.81067e-05
5.89937e-05
2.28442e-05
5.76503e-05
2.7482e-05
5.52887e-05
3.16898e-05
5.2018e-05
3.5231e-05
4.7927e-05
3.79629e-05
4.31674e-05
3.98322e-05
3.79408e-05
4.08608e-05
3.24553e-05
4.1124e-05
2.68953e-05
4.07282e-05
2.14081e-05
3.97922e-05
1.61022e-05
3.84339e-05
1.10509e-05
3.67635e-05
6.29812e-06
3.48495e-05
1.86181e-06
3.283e-05
-2.23765e-06
3.07373e-05
-6.00196e-06
-9.44695e-06
2.86301e-05
1.09086e-06
5.83192e-05
3.32625e-06
6.57151e-05
5.50964e-06
5.60416e-05
7.60008e-06
5.37239e-05
1.01257e-05
5.50694e-05
1.329e-05
5.58843e-05
1.69181e-05
5.53656e-05
2.07137e-05
5.38549e-05
2.44047e-05
5.15978e-05
2.77733e-05
4.86496e-05
3.06518e-05
4.50484e-05
3.2927e-05
4.08923e-05
3.45434e-05
3.63243e-05
3.55002e-05
3.14986e-05
3.5838e-05
2.65575e-05
3.56248e-05
2.16212e-05
3.49423e-05
1.67847e-05
3.3875e-05
1.21181e-05
3.2503e-05
7.67004e-06
3.08939e-05
3.4709e-06
2.91328e-05
-4.76571e-07
2.72566e-05
-4.12574e-06
-7.51646e-06
2.53263e-05
1.52364e-06
5.67956e-05
3.74028e-06
6.34987e-05
5.74906e-06
5.40328e-05
7.64277e-06
5.18303e-05
9.88374e-06
5.28285e-05
1.25885e-05
5.31796e-05
1.55856e-05
5.23685e-05
1.86535e-05
5.07872e-05
2.16113e-05
4.864e-05
2.43151e-05
4.59457e-05
2.66458e-05
4.27177e-05
2.85139e-05
3.90241e-05
2.98689e-05
3.49694e-05
3.06983e-05
3.06692e-05
3.10211e-05
2.62346e-05
3.08784e-05
2.17639e-05
3.03238e-05