/*--------------------------------*- C++ -*----------------------------------*\
| =========                 |                                                 |
| \\      /  F ield         | OpenFOAM: The Open Source CFD Toolbox           |
|  \\    /   O peration     | Version:  2206                                  |
|   \\  /    A nd           | Website:  www.openfoam.com                      |
|    \\/     M anipulation  |                                                 |
\*---------------------------------------------------------------------------*/
FoamFile
{
    version     2.0;
    format      ascii;
    arch        "LSB;label=32;scalar=64";
    class       volScalarField;
    location    "0.775";
    object      p;
}
// * * * * * * * * * * * * * * * * * * * * * * * * * * * * * * * * * * * * * //

dimensions      [1 -1 -2 0 0 0 0];

internalField   nonuniform List<scalar> 
2268
(
570.376
570.583
572.533
576.86
586.049
602.968
627.076
653.897
680.625
707.83
735.948
764.762
793.441
820.599
844.477
863.042
873.748
876.057
871.113
866.625
873.004
889.101
896.29
510.794
510.443
512.129
516.111
524.665
541.9
567.051
594.516
621.484
648.782
677.076
706.074
735.031
762.581
786.783
806.305
819.575
821.941
813.21
804.201
809.544
823.631
833.082
448.516
447.872
449.842
453.817
461.832
479.357
505.769
534.572
562.081
589.476
617.878
647.17
676.64
704.927
730.023
750.271
764.205
767.304
758.592
748.654
751.034
760.717
768.911
384.218
383.503
385.962
389.844
397.036
414.72
443.409
474.38
502.651
530.076
558.577
588.312
618.608
648.051
674.469
695.707
709.692
713.211
706.125
695.44
694.985
699.046
704.61
318.872
318.02
320.82
324.68
331.611
350.378
381.662
414.749
443.41
470.6
499.123
529.393
560.788
591.836
620.08
642.695
657.043
660.777
654.455
642.45
637.898
636.9
640.039
253.168
251.857
254.806
259.024
266.838
287.419
321.605
355.771
384.239
410.973
439.378
470.231
502.963
536.077
566.718
591.139
605.904
608.976
601.594
587.03
578.214
574.084
575.339
187.512
185.751
188.642
193.823
203.829
227.001
262.83
296.55
324.414
350.77
379.214
410.775
445.074
480.795
514.535
541.312
556.562
558.244
548.167
530.328
517.053
510.442
511.689
121.382
120.182
122.324
128.413
141.795
168.65
205.762
237.681
264.082
289.733
318.171
350.551
386.694
425.7
463.421
493.328
509.13
508.615
494.36
471.351
454.011
444.853
449.091
965.374
891.521
895.631
997.441
1156.95
1341.65
1438.71
1600.9
1743.75
1806.4
1833.26
1906.86
1844.78
1539.31
1212.06
1037.99
957.533
901.219
919.362
904.105
803.93
806.891
920.173
1080.45
1264.38
1365.18
1565.39
1701.53
1688.83
1709.39
1808.19
1732.8
1412.2
1127.59
994.901
918.074
827.442
864.841
822.602
703.204
713.214
837.319
998.563
1173.59
1259.13
1478.21
1564.53
1492.46
1591.44
1675.7
1524.54
1213.88
997.095
902.316
809.367
768.764
817.417
729.985
606.945
630.488
762.385
924.85
1085.48
1140.91
1330.36
1320.09
1324.52
1446.32
1479.78
1267.27
989.79
836.371
735.124
671.208
718.837
795.145
645.708
525.285
572.639
704.592
862.737
1011.5
1038.68
1140.65
1088.11
1161.66
1278.18
1246.36
1007.73
764.62
668.804
568.309
519.529
660.044
777.471
576.508
470.121
528.012
645.734
800.47
950.314
949.495
900.53
878.096
965.817
1097.82
1005.52
730.508
513.531
482.554
404.036
394.962
623.211
763.81
517.215
436.291
485.877
574.789
717.506
882.745
837.388
628.844
678.463
749.619
875.226
767.069
462.075
351.308
339.562
259.851
329.68
590.448
740.286
457.627
399.691
431.428
492.904
615.026
808.034
717.806
388.205
464.246
561.707
651.36
547.469
338.565
326.594
308.39
224.805
294.874
526.154
694.278
46.5788
45.8987
49.4463
57.2004
70.7939
90.1931
115.378
142.023
167.287
192.568
221.219
255.107
294.193
339.385
385.799
422.63
439.622
434.331
411.307
377.108
352.12
338.286
334.08
8.68687
5.74443
5.92491
7.68661
12.315
20.4991
32.9246
50.5261
63.4975
74.4588
93.2912
126.265
172.713
233.718
298.885
353.958
375.348
359.399
315.485
255.644
209.604
194.62
188.794
3.64481
2.86578
1.6736
0.494364
-0.109391
0.334549
2.26287
6.64066
8.60384
4.66816
13.7358
40.8644
87.6658
150.233
226.551
297.438
319.016
298.888
233.086
145.493
110.09
109.517
109.094
2.13521
1.57667
0.810571
0.00495176
-0.647579
-1.01519
-0.893069
-0.379873
0.338297
0.772255
0.579653
3.22938
11.7845
31.8733
101.775
185.551
227.555
224.027
162.349
106.043
94.8724
96.7178
96.6264
0.880253
0.436801
-0.16887
-0.834314
-1.3232
-1.51129
-1.39594
-1.13811
-0.890711
-0.909199
-1.40485
-2.02551
-2.36817
1.02891
18.5133
74.8307
129.726
150.506
124.036
96.987
95.0961
95.4547
95.7644
-0.0317295
-0.406573
-0.878187
-1.37457
-1.66051
-1.68913
-1.50038
-1.27663
-1.1799
-1.28379
-1.66269
-2.19415
-2.56263
-2.13912
0.6644
11.5965
50.8687
79.4213
77.5818
87.8705
96.3282
94.0086
93.123
-0.622488
-1.0103
-1.30153
-1.62804
-1.76661
-1.75855
-1.61463
-1.43862
-1.36818
-1.51434
-1.89982
-2.3818
-2.74484
-2.83308
-2.56511
-1.65884
6.45627
25.0791
39.2644
55.3714
84.6476
88.8347
86.3374
-0.976586
-1.37143
-1.56062
-1.76083
-1.824
-1.80542
-1.72742
-1.64884
-1.64939
-1.79244
-2.10097
-2.50561
-2.83215
-2.96679
-2.96955
-2.78943
-2.12929
1.05071
12.0639
32.0775
52.6451
65.0515
65.3414
-1.19522
-1.51382
-1.7
-1.845
-1.88341
-1.87536
-1.85414
-1.85137
-1.90612
-2.04949
-2.27938
-2.57542
-2.83769
-2.96129
-2.99616
-2.95816
-2.84811
-2.72269
-2.08476
5.33386
14.7478
28.7784
29.8798
-1.40626
-1.55843
-1.72905
-1.86982
-1.92689
-1.95052
-1.97603
-2.02095
-2.10268
-2.23531
-2.41535
-2.62371
-2.81703
-2.9412
-2.99247
-3.00245
-2.98872
-2.95493
-3.02402
-3.27106
3.53763
12.6841
10.4935
-1.63388
-1.639
-1.74142
-1.8771
-1.96706
-2.03015
-2.09153
-2.16288
-2.25434
-2.37141
-2.51362
-2.6684
-2.81404
-2.92435
-2.98805
-3.02603
-3.06404
-3.07629
-3.01352
-2.95011
-3.15297
-3.44131
-3.44524
-1.83394
-1.78085
-1.8305
-1.94407
-2.04623
-2.13187
-2.21203
-2.29436
-2.38624
-2.49046
-2.60644
-2.72796
-2.84282
-2.93631
-3.00027
-3.04159
-3.08102
-3.09984
-3.05319
-3.01588
-3.14587
-3.38721
-3.56592
-1.99747
-1.95403
-1.99089
-2.07783
-2.16976
-2.25637
-2.33936
-2.42234
-2.50978
-2.60333
-2.70176
-2.80168
-2.89617
-2.97636
-3.03586
-3.07255
-3.08914
-3.08395
-3.04643
-3.02214
-3.17261
-3.47895
-3.81579
-2.15561
-2.14001
-2.17371
-2.23887
-2.3143
-2.39161
-2.46894
-2.54696
-2.62766
-2.71169
-2.79763
-2.88309
-2.9642
-3.0357
-3.09295
-3.13349
-3.15442
-3.16692
-3.17345
-3.18882
-3.35766
-3.794
-4.26088
-2.32174
-2.32296
-2.35114
-2.40134
-2.46245
-2.52881
-2.59787
-2.66879
-2.74197
-2.81738
-2.89379
-2.96944
-3.0421
-3.10913
-3.16833
-3.22013
-3.26693
-3.31609
-3.41197
-3.52362
-3.72156
-4.17792
-4.74529
-2.48752
-2.49365
-2.51773
-2.55806
-2.60813
-2.66468
-2.72532
-2.78869
-2.85442
-2.92207
-2.99073
-3.05921
-3.12632
-3.19117
-3.25382
-3.31669
-3.38656
-3.46947
-3.60093
-3.78559
-4.07765
-4.53894
-5.13369
-2.64665
-2.65365
-2.67486
-2.70814
-2.7498
-2.79803
-2.85084
-2.9069
-2.96552
-3.02614
-3.08808
-3.15059
-3.21317
-3.27588
-3.34002
-3.40879
-3.48899
-3.59
-3.73374
-3.95466
-4.27527
-4.73408
-5.32219
-2.79891
-2.80573
-2.82416
-2.85203
-2.88711
-2.92832
-2.97413
-3.02341
-3.07538
-3.12949
-3.18521
-3.2421
-3.29998
-3.35933
-3.42173
-3.49051
-3.57113
-3.67388
-3.81562
-4.02942
-4.32676
-4.728
-5.1766
-2.94488
-2.95113
-2.96692
-2.99048
-3.02023
-3.05549
-3.09515
-3.13825
-3.18407
-3.23206
-3.2818
-3.33299
-3.38559
-3.4401
-3.49787
-3.56164
-3.63552
-3.72638
-3.84539
-4.01879
-4.25384
-4.53491
-4.79967
-3.08518
-3.09067
-3.10418
-3.1242
-3.14953
-3.17972
-3.21398
-3.25149
-3.29161
-3.33383
-3.37777
-3.42316
-3.46995
-3.51849
-3.56968
-3.62524
-3.68777
-3.76067
-3.84822
-3.96276
-4.11492
-4.27946
-4.41829
-3.22054
-3.22522
-3.2368
-3.25384
-3.27543
-3.30127
-3.33075
-3.36322
-3.39809
-3.43491
-3.47327
-3.5129
-3.55369
-3.59573
-3.63947
-3.6857
-3.73563
-3.79048
-3.85064
-3.91703
-3.99492
-4.07107
-4.12791
-3.35166
-3.35558
-3.36551
-3.38001
-3.39839
-3.42046
-3.44573
-3.47366
-3.50374
-3.53552
-3.56862
-3.60273
-3.63762
-3.67321
-3.70955
-3.74683
-3.78528
-3.82496
-3.86514
-3.90353
-3.93884
-3.96521
-3.97528
-3.47918
-3.48244
-3.49093
-3.50325
-3.51888
-3.53766
-3.55922
-3.58309
-3.60881
-3.63598
-3.66422
-3.69317
-3.72254
-3.7521
-3.78164
-3.811
-3.83993
-3.86798
-3.89425
-3.91685
-3.93345
-3.94047
-3.93498
-3.6037
-3.60641
-3.61363
-3.62408
-3.63731
-3.65322
-3.67152
-3.69178
-3.7136
-3.7366
-3.76041
-3.78467
-3.80903
-3.83316
-3.85674
-3.8794
-3.9007
-3.92002
-3.93644
-3.94857
-3.95456
-3.95168
-3.93763
-3.72576
-3.72799
-3.73411
-3.74294
-3.75408
-3.7675
-3.78293
-3.8
-3.81836
-3.83765
-3.8575
-3.87757
-3.89749
-3.91689
-3.93537
-3.9525
-3.96777
-3.98052
-3.98991
-3.99483
-3.99397
-3.98557
-3.96837
-3.84579
-3.84762
-3.85278
-3.86021
-3.86955
-3.88079
-3.89372
-3.908
-3.92331
-3.93933
-3.95571
-3.97211
-3.98817
-4.00351
-4.01773
-4.03039
-4.04097
-4.04888
-4.0534
-4.0537
-4.04888
-4.03791
-4.02014
-3.96418
-3.96566
-3.97
-3.97623
-3.984
-3.99337
-4.00412
-4.01597
-4.02863
-4.04179
-4.05516
-4.06839
-4.08115
-4.09309
-4.10382
-4.11291
-4.11992
-4.12433
-4.12559
-4.12306
-4.11616
-4.10424
-4.08699
-4.08124
-4.08244
-4.08608
-4.09126
-4.09769
-4.10544
-4.11432
-4.12407
-4.13443
-4.14514
-4.15591
-4.16645
-4.17644
-4.18556
-4.19345
-4.19976
-4.20408
-4.206
-4.20508
-4.20088
-4.193
-4.18104
-4.16488
-4.19724
-4.19822
-4.20124
-4.20553
-4.21082
-4.21717
-4.22444
-4.23239
-4.24079
-4.2494
-4.25798
-4.26625
-4.27394
-4.28075
-4.28639
-4.29053
-4.29285
-4.29302
-4.2907
-4.28559
-4.27741
-4.26593
-4.25111
-4.31241
-4.31322
-4.31571
-4.31924
-4.32354
-4.32871
-4.3346
-4.34102
-4.34775
-4.35459
-4.36133
-4.36772
-4.37351
-4.37847
-4.38232
-4.38481
-4.38566
-4.38463
-4.38146
-4.37593
-4.36788
-4.35717
-4.34382
-4.42692
-4.42762
-4.42964
-4.43253
-4.43599
-4.44015
-4.44488
-4.45
-4.45533
-4.46069
-4.46589
-4.47073
-4.47499
-4.47846
-4.48093
-4.48216
-4.48197
-4.48014
-4.4765
-4.4709
-4.46324
-4.45344
-4.44155
-4.54094
-4.54155
-4.54317
-4.54552
-4.54827
-4.55159
-4.55534
-4.55936
-4.56352
-4.56765
-4.57159
-4.57516
-4.57819
-4.58049
-4.58188
-4.5822
-4.58127
-4.57895
-4.57511
-4.56966
-4.56252
-4.55367
-4.54319
-4.65458
-4.65512
-4.65641
-4.65831
-4.66047
-4.66308
-4.66601
-4.66913
-4.67231
-4.67543
-4.67833
-4.68088
-4.68292
-4.68431
-4.6849
-4.68455
-4.68313
-4.68054
-4.67668
-4.6715
-4.66495
-4.65705
-4.64786
-4.76797
-4.76841
-4.76945
-4.77097
-4.77264
-4.77467
-4.77692
-4.77928
-4.78167
-4.78395
-4.78602
-4.78775
-4.78902
-4.78971
-4.78971
-4.78889
-4.78717
-4.78447
-4.78071
-4.77588
-4.76995
-4.76294
-4.75493
-4.88118
-4.88152
-4.88236
-4.88358
-4.88484
-4.88639
-4.88808
-4.88983
-4.89156
-4.89317
-4.89458
-4.89567
-4.89635
-4.89652
-4.89609
-4.89498
-4.8931
-4.8904
-4.88684
-4.8824
-4.87709
-4.87094
-4.86401
-4.99427
-4.99451
-4.9952
-4.99617
-4.9971
-4.99825
-4.99949
-5.00074
-5.00195
-5.00304
-5.00392
-5.00453
-5.00477
-5.00458
-5.00388
-5.00259
-5.00068
-4.99809
-4.99481
-4.99082
-4.98615
-4.98081
-4.9749
-5.10732
-5.10742
-5.108
-5.10877
-5.10944
-5.11028
-5.11114
-5.11201
-5.11281
-5.11349
-5.11399
-5.11424
-5.11419
-5.11376
-5.11291
-5.11159
-5.10975
-5.10737
-5.10443
-5.10095
-5.09693
-5.09241
-5.08747
-5.22036
-5.2203
-5.22082
-5.22141
-5.22187
-5.22246
-5.22304
-5.22361
-5.2241
-5.22449
-5.22471
-5.22473
-5.2245
-5.22396
-5.22307
-5.22181
-5.22015
-5.21807
-5.21556
-5.21262
-5.20929
-5.2056
-5.20161
-5.33341
-5.33318
-5.33366
-5.3341
-5.33439
-5.3348
-5.33516
-5.3355
-5.33578
-5.33596
-5.33601
-5.3359
-5.33558
-5.33503
-5.33422
-5.33312
-5.33173
-5.33001
-5.32799
-5.32566
-5.32304
-5.32016
-5.31709
-5.44649
-5.4461
-5.44655
-5.44684
-5.44702
-5.44727
-5.44747
-5.44766
-5.44779
-5.44784
-5.4478
-5.44764
-5.44734
-5.44686
-5.44621
-5.44536
-5.4443
-5.44302
-5.44153
-5.43983
-5.43794
-5.43588
-5.4337
-5.5595
-5.55906
-5.55949
-5.55963
-5.55972
-5.55986
-5.55994
-5.56003
-5.56006
-5.56006
-5.56
-5.55986
-5.55963
-5.55931
-5.55888
-5.55833
-5.55766
-5.55687
-5.55595
-5.55491
-5.55375
-5.5525
-5.55119
-5.67284
-5.67235
-5.67253
-5.67255
-5.67258
-5.67263
-5.67264
-5.67266
-5.67265
-5.67263
-5.67258
-5.67251
-5.67241
-5.67228
-5.67211
-5.6719
-5.67166
-5.67137
-5.67104
-5.67068
-5.67029
-5.66987
-5.66944
326.948
322.281
321.022
326.126
178.524
170.022
160.348
149.106
105.348
101.905
98.816
98.4941
96.4323
96.1418
95.5963
95.3536
95.6949
95.4179
94.8743
94.4399
94.3948
96.4212
96.9347
95.0892
83.7776
86.325
84.2308
79.0975
65.1828
63.5555
63.7231
65.6369
30.3096
30.7838
32.1535
35.1911
7.27868
9.83307
9.78672
8.16824
-3.36688
-3.44628
-3.57723
-3.90209
-3.67111
-3.72476
-3.83256
-4.06
-4.05016
-4.18297
-4.33471
-4.52702
-4.5751
-4.74288
-4.87756
-4.98634
-5.1237
-5.32322
-5.46359
-5.53523
-5.53931
-5.74132
-5.86221
-5.9282
-5.6328
-5.77958
-5.86151
-5.91131
-5.49069
-5.65124
-5.72022
-5.70381
-4.94798
-5.00767
-5.03629
-4.98177
-4.47291
-4.47969
-4.4494
-4.382
-4.1352
-4.12329
-4.09463
-4.04756
-3.96117
-3.94056
-3.91334
-3.87829
-3.91415
-3.894
-3.86979
-3.84153
-3.91517
-3.89655
-3.8755
-3.85204
-3.94735
-3.93117
-3.91328
-3.89365
-4.00094
-3.9867
-3.97121
-3.95448
-4.0697
-4.05717
-4.04372
-4.02937
-4.14953
-4.13853
-4.12686
-4.11449
-4.23754
-4.22799
-4.21791
-4.20727
-4.33193
-4.32367
-4.31497
-4.30586
-4.43121
-4.4241
-4.41665
-4.40887
-4.53425
-4.52815
-4.52177
-4.51517
-4.64017
-4.63496
-4.62954
-4.62393
-4.74834
-4.7439
-4.7393
-4.73455
-4.85839
-4.85463
-4.85076
-4.84679
-4.97016
-4.96701
-4.96378
-4.96048
-5.08357
-5.08099
-5.07835
-5.07567
-5.19849
-5.19644
-5.19435
-5.19224
-5.31472
-5.31316
-5.31158
-5.31
-5.43203
-5.43094
-5.42984
-5.42876
-5.5502
-5.54955
-5.54891
-5.54829
-5.66912
-5.66892
-5.66872
-5.66854
343.832
339.347
341.86
392.84
493.715
672.124
489.347
189.207
182.514
272.275
375.116
347.911
306.27
314.015
302.524
271.04
301.625
411.352
582.28
140.106
178.12
291.5
296.063
361.449
489.814
204.267
49.5475
29.9457
50.7344
161.272
286.939
290.895
297.303
305.288
333.967
372.032
370.858
483.054
98.7355
103.212
142.882
194.065
263.067
327.455
68.622
-6.59147
-12.4363
-9.00605
32.7241
211.03
257.135
273.307
305.362
374.977
448.95
489.679
423.594
95.5999
95.8095
94.6875
103.057
170.007
215.731
21.8704
-18.1161
-20.4156
-13.2432
-2.49536
78.3146
184.345
221.233
271.035
353.95
444.425
460.362
391.117
94.1981
93.6034
89.1436
87.4778
107.306
147.055
9.74018
-12.9256
-18.9443
-11.5011
-3.85611
5.75497
58.1686
104.747
164.898
231.874
311.735
335.336
283.349
94.1778
93.5304
89.0862
85.972
82.599
105.07
28.1367
0.206533
-12.4233
-8.74728
-1.81773
-1.58084
4.80734
19.4161
21.3136
37.5304
110.299
188.102
140.802
86.0025
92.0502
86.3254
83.8692
88.7959
92.1406
61.8313
7.67571
-5.21727
-3.48361
-0.993347
-1.68443
-0.536979
-0.167595
-0.227223
2.49162
13.3226
32.3887
36.5377
70.7901
76.2263
82.4244
80.0725
78.3456
84.8394
53.1196
9.13534
0.281945
-0.0365597
0.628354
0.178367
-0.110441
-0.581935
-1.2033
-0.745876
1.14735
3.36236
47.248
36.5225
31.7945
71.5898
76.63
75.0466
71.9679
70.5041
44.3651
3.01636
0.901339
2.13379
0.603663
-0.751684
-1.30322
-1.98773
-1.98313
-1.44539
2.33797
40.721
8.56153
5.22721
32.3025
73.8298
73.763
71.1089
67.9531
32.8647
-3.82462
4.62591
5.79405
-6.64774
-4.1236
-2.19435
-2.33238
-2.3704
-2.00165
0.13623
10.3969
-5.08067
-6.83801
2.80717
48.7826
45.603
35.7652
18.4613
12.8787
20.9483
4.63485
8.55315
4.04607
-1.51363
-1.96893
-2.03574
-2.13412
-1.87419
-1.31791
1.34993
-4.49419
-4.81705
-4.85254
1.71202
20.8611
33.9372
28.907
30.5115
43.1073
32.9102
14.9643
10.7565
-2.11127
-1.82499
-1.63985
-1.74022
-1.54113
-1.49776
-0.0480074
-4.72038
-4.53642
-4.10016
-3.36443
-1.8267
4.37771
10.2346
16.8305
16.7545
14.9745
1.39649
-1.04473
-1.44706
-1.60434
-1.59518
-1.65045
-1.55155
-1.60898
-0.951491
-5.03259
-4.53442
-3.73985
-3.01227
-2.49187
-2.46979
-2.53043
-2.25357
-1.65144
-1.19189
-1.25615
-1.29775
-1.44056
-1.45632
-1.62907
-1.69525
-1.68839
-2.06385
-1.58449
-5.4656
-4.69661
-3.62595
-2.7457
-2.21129
-1.98362
-1.89488
-1.82433
-1.62751
-1.41266
-1.43462
-1.42771
-1.47603
-1.57157
-1.682
-1.76045
-1.77568
-2.12168
-1.54318
-5.86567
-4.90177
-3.62238
-2.76307
-2.28784
-1.99659
-1.80599
-1.67986
-1.61802
-1.62923
-1.65392
-1.64917
-1.6638
-1.71759
-1.77818
-1.84013
-1.8385
-2.0328
-1.94194
-5.85215
-4.79942
-3.54231
-2.81892
-2.4126
-2.16959
-2.02706
-1.93549
-1.87486
-1.84635
-1.84859
-1.84551
-1.84874
-1.87277
-1.90187
-1.93354
-1.90635
-1.95533
-1.46613
-5.43127
-4.46395
-3.54143
-2.95586
-2.6051
-2.38814
-2.25399
-2.16391
-2.1042
-2.06888
-2.05199
-2.04061
-2.03463
-2.03795
-2.04125
-2.04408
-1.99806
-2.01017
-1.5402
-4.74873
-4.15063
-3.53088
-3.08411
-2.79499
-2.6054
-2.47818
-2.38881
-2.32583
-2.28303
-2.25488
-2.23456
-2.21833
-2.2056
-2.18947
-2.17235
-2.11618
-2.12127
-1.72839
-4.23209
-3.89437
-3.49362
-3.17216
-2.95126
-2.79586
-2.68164
-2.59615
-2.53258
-2.48602
-2.45163
-2.42429
-2.39934
-2.37469
-2.34512
-2.31691
-2.25699
-2.26884
-1.927
-3.94422
-3.72993
-3.47947
-3.26198
-3.09526
-2.96733
-2.86712
-2.78841
-2.72717
-2.67998
-2.64288
-2.61124
-2.5799
-2.54674
-2.50795
-2.47488
-2.40809
-2.4304
-2.1353
-3.80926
-3.67661
-3.51676
-3.36258
-3.23232
-3.12566
-3.03862
-2.96817
-2.91173
-2.86695
-2.83052
-2.79751
-2.76214
-2.72313
-2.67751
-2.6434
-2.56373
-2.58705
-2.33688
-3.78734
-3.6909
-3.5768
-3.46199
-3.35928
-3.2716
-3.19805
-3.1372
-3.08774
-3.04855
-3.01658
-2.98558
-2.94845
-2.90497
-2.85221
-2.81935
-2.72369
-2.73418
-2.53311
-3.8087
-3.73462
-3.64907
-3.56147
-3.48034
-3.40905
-3.34811
-3.29739
-3.25687
-3.22698
-3.20405
-3.17883
-3.14209
-3.0945
-3.03183
-2.99559
-2.90155
-2.85894
-2.67258
-3.85782
-3.7986
-3.73187
-3.66328
-3.59845
-3.54045
-3.49061
-3.44996
-3.42019
-3.40383
-3.39493
-3.37893
-3.345
-3.29737
-3.23752
-3.17907
-3.091
-2.93714
-2.80799
-3.9244
-3.8759
-3.82229
-3.76729
-3.71478
-3.66731
-3.62687
-3.59574
-3.57808
-3.57905
-3.58757
-3.58217
-3.55222
-3.50933
-3.46467
-3.42313
-3.36046
-3.08387
-2.88184
-4.00379
-3.96335
-3.91931
-3.8742
-3.8308
-3.79119
-3.75807
-3.73496
-3.72932
-3.74808
-3.7728
-3.77738
-3.75166
-3.72574
-3.71678
-3.73951
-3.78003
-3.65416
-4.27892
-4.09262
-4.05851
-4.02175
-3.98408
-3.94747
-3.91346
-3.88535
-3.86726
-3.86997
-3.90051
-3.93344
-3.94261
-3.92969
-3.92486
-3.96314
-4.06173
-4.23102
-4.27369
-4.37041
-4.18854
-4.15966
-4.12875
-4.097
-4.06569
-4.03579
-4.01063
-3.99358
-3.99745
-4.02865
-4.05925
-4.07417
-4.0706
-4.08433
-4.14409
-4.26944
-4.48537
-4.64276
-4.48458
-4.28987
-4.26544
-4.23946
-4.21272
-4.18594
-4.15961
-4.13631
-4.11784
-4.11619
-4.13582
-4.15828
-4.17084
-4.18477
-4.21074
-4.26184
-4.3634
-4.52467
-4.68825
-4.4932
-4.39528
-4.37471
-4.35298
-4.33063
-4.30805
-4.28546
-4.26443
-4.24585
-4.23733
-4.24301
-4.26014
-4.28131
-4.30424
-4.32917
-4.36175
-4.40964
-4.48621
-4.55989
-4.42599
-4.50369
-4.48644
-4.46837
-4.44988
-4.43127
-4.41268
-4.39503
-4.37916
-4.36833
-4.36755
-4.3819
-4.40811
-4.43389
-4.45229
-4.46289
-4.46784
-4.47395
-4.47228
-4.38795
-4.61424
-4.59982
-4.58487
-4.56972
-4.55465
-4.53989
-4.52607
-4.5141
-4.5055
-4.50385
-4.51486
-4.53656
-4.55696
-4.5676
-4.56525
-4.55104
-4.52751
-4.49509
-4.43144
-4.72639
-4.71438
-4.70206
-4.68973
-4.67765
-4.6661
-4.65556
-4.64682
-4.64101
-4.64026
-4.64673
-4.66001
-4.67195
-4.67543
-4.66765
-4.64977
-4.62138
-4.5856
-4.53832
-4.83994
-4.82998
-4.81991
-4.80997
-4.80035
-4.79132
-4.78315
-4.7764
-4.77188
-4.7711
-4.77442
-4.78083
-4.78561
-4.78398
-4.77401
-4.75787
-4.73476
-4.70666
-4.67587
-4.95484
-4.9467
-4.93862
-4.93071
-4.92316
-4.91616
-4.90975
-4.90428
-4.90057
-4.89989
-4.90107
-4.90319
-4.90395
-4.89861
-4.88731
-4.87418
-4.85889
-4.84097
-4.82432
-5.0711
-5.06463
-5.05832
-5.05223
-5.04648
-5.04126
-5.03648
-5.03207
-5.02922
-5.0292
-5.0289
-5.02878
-5.02801
-5.01989
-5.00819
-4.99919
-4.99129
-4.98212
-4.97521
-5.18867
-5.18371
-5.179
-5.17457
-5.17043
-5.16681
-5.16366
-5.16044
-5.15886
-5.15978
-5.15834
-5.15832
-5.15801
-5.14743
-5.13728
-5.13347
-5.13117
-5.12794
-5.12616
-5.30735
-5.3038
-5.30055
-5.29765
-5.29503
-5.29286
-5.29125
-5.28938
-5.28948
-5.29144
-5.2903
-5.29334
-5.29404
-5.28096
-5.27519
-5.27548
-5.27637
-5.27665
-5.2769
-5.42697
-5.42471
-5.42284
-5.42138
-5.42026
-5.41958
-5.41949
-5.41928
-5.42103
-5.42373
-5.42414
-5.43029
-5.43136
-5.419
-5.41889
-5.42121
-5.42405
-5.42651
-5.42773
-5.54731
-5.54626
-5.54571
-5.54566
-5.5461
-5.5471
-5.54868
-5.55051
-5.55381
-5.55723
-5.55933
-5.56534
-5.56515
-5.56002
-5.56349
-5.56877
-5.57404
-5.57848
-5.58063
-5.66828
-5.66833
-5.66911
-5.67054
-5.67272
-5.67556
-5.67907
-5.68307
-5.68862
-5.69297
-5.69753
-5.70231
-5.6951
-5.70139
-5.71042
-5.72053
-5.72929
-5.73644
-5.73945
)
;

boundaryField
{
    leftWall
    {
        type            calculated;
        value           nonuniform List<scalar> 
50
(
570.376
510.794
448.516
384.218
318.872
253.168
187.512
121.382
46.5788
8.68687
3.64481
2.13521
0.880253
-0.0317295
-0.622488
-0.976586
-1.19522
-1.40626
-1.63388
-1.83394
-1.99747
-2.15561
-2.32174
-2.48752
-2.64665
-2.79891
-2.94488
-3.08518
-3.22054
-3.35166
-3.47918
-3.6037
-3.72576
-3.84579
-3.96418
-4.08124
-4.19724
-4.31241
-4.42692
-4.54094
-4.65458
-4.76797
-4.88118
-4.99427
-5.10732
-5.22036
-5.33341
-5.44649
-5.5595
-5.67284
)
;
    }
    rightWall
    {
        type            calculated;
        value           nonuniform List<scalar> 
50
(
919.362
864.841
817.417
795.145
777.471
763.81
740.286
694.278
582.28
483.054
423.594
391.117
283.349
140.802
36.5377
47.248
40.721
10.3969
1.34993
-0.0480074
-0.951491
-1.58449
-1.54318
-1.94194
-1.46613
-1.5402
-1.72839
-1.927
-2.1353
-2.33688
-2.53311
-2.67258
-2.80799
-2.88184
-4.27892
-4.37041
-4.48458
-4.4932
-4.42599
-4.38795
-4.43144
-4.53832
-4.67587
-4.82432
-4.97521
-5.12616
-5.2769
-5.42773
-5.58063
-5.73945
)
;
    }
    lowerWall
    {
        type            calculated;
        value           nonuniform List<scalar> 
62
(
599.805
600.013
601.962
606.289
615.478
632.398
656.506
683.326
710.055
737.259
765.377
794.191
822.871
850.029
873.906
892.395
902.088
903.921
900.268
895.961
902.338
918.42
925.624
896.29
833.082
768.911
704.61
640.039
575.339
511.689
449.091
389.505
384.782
383.465
388.49
965.374
904.105
822.602
729.985
645.708
576.508
517.215
457.627
994.168
920.933
925.053
1026.41
1184.36
1368.85
1465.78
1621.45
1764.48
1832.13
1859
1930.25
1866.73
1562.31
1235.69
1063.23
983.448
927.133
943.386
)
;
    }
    atmosphere
    {
        type            calculated;
        value           nonuniform List<scalar> 
46
(
-5.72904
-5.72904
-5.72904
-5.72904
-5.72904
-5.72904
-5.72904
-5.72904
-5.72904
-5.72904
-5.72904
-5.72904
-5.72904
-5.72904
-5.72904
-5.72904
-5.72904
-5.72904
-5.72904
-5.72904
-5.72904
-5.72904
-5.72904
-5.72904
-5.72904
-5.72904
-5.72904
-5.72906
-5.72963
-5.7312
-5.73337
-5.73658
-5.74029
-5.7449
-5.74985
-5.7576
-5.76195
-5.76946
-5.77362
-5.75709
-5.77207
-5.78685
-5.79996
-5.81103
-5.82058
-5.82349
)
;
    }
    defaultFaces
    {
        type            empty;
    }
}


// ************************************************************************* //
