/*--------------------------------*- C++ -*----------------------------------*\
| =========                 |                                                 |
| \\      /  F ield         | OpenFOAM: The Open Source CFD Toolbox           |
|  \\    /   O peration     | Version:  2206                                  |
|   \\  /    A nd           | Website:  www.openfoam.com                      |
|    \\/     M anipulation  |                                                 |
\*---------------------------------------------------------------------------*/
FoamFile
{
    version     2.0;
    format      ascii;
    arch        "LSB;label=32;scalar=64";
    class       surfaceScalarField;
    location    "0.8";
    object      alphaPhi0.water;
}
// * * * * * * * * * * * * * * * * * * * * * * * * * * * * * * * * * * * * * //

dimensions      [0 3 -1 0 0 0 0];

oriented        oriented;

internalField   nonuniform List<scalar> 
4432
(
-2.66008e-07
2.66008e-07
2.66477e-06
-2.93078e-06
6.25917e-06
-3.5944e-06
8.68487e-06
-2.4257e-06
9.87689e-06
-1.19202e-06
1.02651e-05
-3.88234e-07
1.03049e-05
-3.97426e-08
1.02324e-05
7.25179e-08
1.01241e-05
1.08241e-07
9.95785e-06
1.66269e-07
9.69116e-06
2.66696e-07
9.29791e-06
3.93246e-07
8.78294e-06
5.14977e-07
8.17601e-06
6.06934e-07
7.52334e-06
6.52665e-07
6.89238e-06
6.30967e-07
6.42944e-06
4.62934e-07
6.32851e-06
1.00933e-07
6.90056e-06
-5.72063e-07
8.05719e-06
-1.15665e-06
1.07863e-05
-2.72913e-06
1.24722e-05
-1.6859e-06
1.19372e-05
-1.9296e-07
4.58971e-07
2.71577e-06
-5.83951e-06
5.88463e-06
-6.76326e-06
8.04348e-06
-4.58455e-06
9.15111e-06
-2.29966e-06
9.63538e-06
-8.72504e-07
9.86633e-06
-2.70689e-07
1.00608e-05
-1.21993e-07
1.02639e-05
-9.48389e-08
1.04582e-05
-2.79762e-08
1.06445e-05
8.03217e-08
1.08171e-05
2.20658e-07
1.09789e-05
3.53186e-07
1.11534e-05
4.32466e-07
1.139e-05
4.16003e-07
1.17725e-05
2.48522e-07
1.2368e-05
-1.32613e-07
1.33661e-05
-8.97154e-07
1.48083e-05
-2.01425e-06
1.74438e-05
-3.7922e-06
1.9771e-05
-5.05639e-06
1.44656e-05
3.61949e-06
2.48672e-05
1.48866e-07
3.10103e-07
2.73147e-06
-8.42212e-06
5.40928e-06
-9.44106e-06
7.33219e-06
-6.50746e-06
8.55307e-06
-3.52053e-06
9.37188e-06
-1.69132e-06
1.00058e-05
-9.04643e-07
1.05175e-05
-6.33638e-07
1.08985e-05
-4.759e-07
1.11357e-05
-2.65087e-07
1.12203e-05
-4.32312e-09
1.11296e-05
3.11382e-07
1.09126e-05
5.70128e-07
1.05975e-05
7.47598e-07
1.02128e-05
8.00712e-07
9.8001e-06
6.61223e-07
9.38556e-06
2.81924e-07
9.01668e-06
-5.28278e-07
8.77455e-06
-1.77211e-06
9.50547e-06
-4.52313e-06
8.77604e-06
-4.32696e-06
3.12257e-06
8.62213e-06
2.78827e-05
5.24369e-07
-2.14265e-07
2.61632e-06
-1.05141e-05
4.96431e-06
-1.1789e-05
6.86762e-06
-8.41078e-06
8.36344e-06
-5.01635e-06
9.63763e-06
-2.96551e-06
1.07201e-05
-1.98711e-06
1.15931e-05
-1.50666e-06
1.22281e-05
-1.11092e-06
1.25988e-05
-6.35703e-07
1.26498e-05
-5.53592e-08
1.2455e-05
5.06207e-07
1.19403e-05
1.08484e-06
1.10771e-05
1.61076e-06
9.85643e-06
2.02138e-06
8.25933e-06
2.25832e-06
6.25924e-06
2.28202e-06
3.65476e-06
2.0762e-06
2.36143e-07
1.64651e-06
-4.71679e-06
4.29805e-07
-9.52186e-06
4.78103e-07
-8.24748e-06
8.24058e-06
1.95328e-05
3.46843e-07
-5.61109e-07
1.6252e-06
-1.17924e-05
4.09611e-06
-1.426e-05
6.61851e-06
-1.09332e-05
8.86043e-06
-7.25828e-06
1.0886e-05
-4.99108e-06
1.25959e-05
-3.69699e-06
1.38659e-05
-2.77665e-06
1.46393e-05
-1.88434e-06
1.49369e-05
-9.33334e-07
1.48944e-05
-1.28829e-08
1.4499e-05
9.01613e-07
1.38386e-05
1.74528e-06
1.28836e-05
2.56579e-06
1.15876e-05
3.31738e-06
9.89703e-06
3.94885e-06
7.73495e-06
4.44409e-06
4.96015e-06
4.851e-06
1.23819e-06
5.36847e-06
-3.92325e-06
5.59124e-06
-8.60931e-06
5.16416e-06
-7.18891e-06
7.15638e-06
1.40422e-05
-5.87307e-08
-5.02377e-07
3.56275e-07
-1.22074e-05
3.15662e-06
-1.70601e-05
7.1323e-06
-1.49089e-05
1.05435e-05
-1.06694e-05
1.3182e-05
-7.62958e-06
1.52742e-05
-5.78921e-06
1.68454e-05
-4.34788e-06
1.79002e-05
-2.93916e-06
1.85943e-05
-1.62742e-06
1.89265e-05
-3.45058e-07
1.89091e-05
9.1902e-07
1.82676e-05
2.38675e-06
1.68272e-05
4.0062e-06
1.45942e-05
5.55041e-06
1.17756e-05
6.76748e-06
8.64361e-06
7.57605e-06
5.45343e-06
8.04118e-06
2.5389e-06
8.283e-06
5.80756e-07
7.54938e-06
-3.98207e-07
6.14313e-06
4.70791e-07
6.28739e-06
1.45131e-05
3.36424e-06
-3.86662e-06
4.86639e-06
-1.37096e-05
7.99526e-06
-2.0191e-05
1.29914e-05
-1.99141e-05
1.77552e-05
-1.54329e-05
2.13189e-05
-1.11932e-05
2.39889e-05
-8.45919e-06
2.56957e-05
-6.05473e-06
2.58434e-05
-3.08687e-06
2.44118e-05
-1.95747e-07
2.23067e-05
1.75998e-06
2.02032e-05
3.02253e-06
1.81819e-05
4.40805e-06
1.57158e-05
6.47225e-06
1.25158e-05
8.75042e-06
8.83553e-06
1.04478e-05
5.17985e-06
1.12317e-05
2.35732e-06
1.08637e-05
6.9307e-07
9.94725e-06
9.64178e-07
7.27828e-06
3.03404e-06
4.07326e-06
3.80736e-06
5.51408e-06
1.83205e-05
1.22895e-05
-1.61561e-05
2.12101e-05
-2.263e-05
2.59293e-05
-2.49122e-05
2.95584e-05
-2.3641e-05
3.3026e-05
-1.89824e-05
3.55834e-05
-1.37505e-05
3.71794e-05
-1.0055e-05
3.80512e-05
-6.92647e-06
3.67504e-05
-1.78607e-06
3.36257e-05
2.92895e-06
2.98751e-05
5.51059e-06
2.62374e-05
6.66024e-06
2.26439e-05
8.00158e-06
1.89946e-05
7.90964e-06
1.52404e-05
8.51661e-06
1.24739e-05
8.59212e-06
1.04375e-05
8.15914e-06
9.33823e-06
6.80236e-06
9.72655e-06
4.6514e-06
1.03414e-05
2.43488e-06
7.35652e-06
2.52719e-06
-1.56204e-07
4.10922e-06
2.73807e-06
9.93096e-06
-9.93092e-06
-8.75712e-07
1.08067e-05
-1.20838e-05
1.05225e-05
-1.59445e-05
2.30159e-06
-4.31727e-06
-9.00653e-06
7.10337e-06
-8.53659e-06
1.56654e-05
-5.66258e-06
2.33789e-05
-4.81937e-06
2.53373e-05
-4.30112e-07
1.94577e-05
4.08241e-06
2.66174e-05
1.72389e-05
1.32833e-05
1.35221e-05
2.03528e-05
-6.88144e-06
3.851e-05
-1.79691e-05
5.84762e-05
-1.73088e-05
5.14718e-05
6.25403e-06
2.73536e-05
2.31807e-05
2.2125e-06
2.29853e-05
1.95744e-06
7.67337e-06
-1.76042e-05
-5.64206e-07
1.30559e-05
-2.67581e-06
5.70357e-06
-1.21639e-06
1.86122e-07
6.01789e-06
-1.78765e-05
5.49805e-06
-7.06288e-06
8.56808e-06
-1.4658e-06
9.85858e-06
-1.19014e-06
4.45919e-06
2.14201e-06
2.69678e-06
4.03284e-06
1.91655e-05
3.57072e-06
3.14491e-05
8.96885e-06
2.47709e-05
-1.51925e-08
1.37975e-05
-3.91975e-06
3.94751e-06
-3.46453e-06
8.49715e-06
-9.712e-08
2.39107e-05
4.38133e-06
1.77264e-05
2.60213e-05
1.94148e-05
1.23109e-05
-2.99148e-05
4.06526e-06
6.48166e-06
-1.38594e-07
4.86889e-06
1.17548e-07
-1.53065e-07
6.47457e-07
-1.37044e-05
1.58426e-06
-7.27929e-06
7.20909e-08
-7.34818e-07
-4.39584e-07
-1.45264e-06
-1.14989e-06
2.08771e-06
-7.77462e-06
1.11896e-05
-2.28053e-05
1.39888e-05
-9.11561e-06
1.17651e-06
2.70135e-06
-1.02597e-05
2.28049e-06
-3.87507e-06
2.98486e-06
-4.54508e-06
5.91912e-06
-3.14524e-06
8.23752e-06
2.58262e-06
2.28294e-05
7.4285e-06
3.82046e-05
6.40094e-06
-3.63045e-05
9.63995e-08
4.08705e-07
3.41985e-06
1.98736e-06
8.37637e-06
-5.16981e-06
9.09415e-06
-1.30873e-05
-8.92826e-07
-5.13955e-08
-6.96043e-06
2.84088e-06
-1.51147e-05
3.6845e-06
-2.58419e-05
1.61804e-05
-2.56174e-05
1.44764e-05
-1.23979e-05
-3.22664e-07
-9.54011e-06
-3.62243e-06
-2.77943e-06
-1.3273e-05
-7.66061e-07
-6.48511e-06
1.46366e-06
-7.31832e-06
5.50871e-06
-6.00484e-06
6.83179e-06
1.73911e-06
6.73085e-06
7.43787e-06
4.89144e-05
-5.55072e-07
-3.68533e-05
-4.25512e-07
-1.72901e-05
7.84391e-06
-9.52084e-06
1.58219e-05
-1.03861e-05
1.10699e-06
3.00395e-06
-1.28405e-05
8.38205e-06
-2.27999e-05
8.08755e-06
-2.75723e-05
1.14366e-05
-2.361e-05
1.5342e-05
-5.57878e-06
4.49781e-06
-5.92283e-06
-6.08303e-08
-3.05934e-06
-3.87792e-06
-4.88962e-06
-4.21921e-06
-2.87782e-06
-7.8482e-06
1.19174e-07
-1.11727e-05
2.00702e-06
-5.79859e-06
3.62227e-06
9.83073e-07
1.93774e-06
7.4696e-06
5.71384e-05
1.74541e-06
-3.43157e-05
6.3123e-06
-3.23147e-05
5.22654e-06
-1.06276e-05
3.99094e-07
1.84942e-07
-2.41461e-06
-2.6635e-07
-2.55103e-05
1.46549e-05
-2.59345e-05
9.96315e-06
-2.50561e-05
1.28099e-05
-5.96631e-06
6.51424e-06
-2.12475e-06
8.05727e-07
-2.12203e-06
3.06958e-08
-1.20998e-06
-4.98598e-07
-2.2217e-06
-7.37218e-07
-1.53357e-06
-8.30412e-06
-7.99519e-07
-1.35047e-05
2.40229e-07
-6.4182e-06
8.15946e-07
-5.85552e-09
1.22075e-08
6.64281e-06
5.82598e-05
2.55799e-06
-1.34207e-05
3.458e-07
-3.22746e-08
3.08533e-08
-1.33391e-08
1.77286e-08
5.87164e-09
-4.51039e-06
8.84851e-07
-2.79288e-05
9.85031e-06
-2.33873e-05
6.87323e-06
-2.03354e-05
1.12092e-05
-1.13089e-06
4.92203e-06
-8.06922e-07
5.81928e-07
-6.77494e-07
-3.68152e-09
-3.55609e-07
-6.90122e-07
-8.46876e-07
-3.67778e-07
-3.37955e-06
-8.72805e-06
-1.44746e-06
-1.41633e-05
-1.21115e-06
-6.89216e-06
1.94261e-08
5.07994e-07
-3.0671e-06
7.00476e-06
3.46247e-05
-1.20485e-09
-2.55533e-06
-3.84603e-10
-3.55553e-08
-1.40974e-08
-5.90772e-10
-1.98716e-08
8.26592e-09
2.08031e-07
2.50632e-07
-7.05162e-06
5.6138e-07
-1.76232e-05
5.18662e-07
-1.12618e-05
7.4533e-06
-1.05699e-06
9.51179e-06
-1.05493e-06
7.2957e-07
-9.44064e-07
-1.7258e-07
9.85469e-08
-2.90134e-06
-7.94129e-08
-2.02561e-07
-1.82857e-06
-6.0338e-06
-2.47564e-06
-1.22427e-05
-9.31884e-07
-9.76286e-06
3.56889e-08
-1.2688e-07
-6.40856e-08
4.29012e-06
1.62001e-05
9.36357e-06
-2.55147e-05
1.72102e-05
-3.03521e-05
2.08735e-05
-2.7824e-05
2.22443e-05
-2.3525e-05
2.2621e-05
-1.71519e-05
2.23245e-05
-1.1325e-05
2.1749e-05
-7.33039e-06
1.97378e-05
-3.82462e-06
1.6787e-05
-4.72594e-07
1.4639e-05
1.43851e-06
1.36831e-05
1.31652e-06
1.28315e-05
7.98839e-07
1.16046e-05
6.53971e-07
9.80093e-06
5.15296e-07
8.76046e-06
2.87364e-07
7.98609e-06
1.36492e-07
7.1942e-06
4.9115e-08
6.17198e-06
-4.95265e-08
5.04228e-06
-7.67143e-08
2.20502e-06
-1.34139e-07
-1.98526e-06
-1.01208e-07
-3.43134e-06
9.51757e-08
1.3814e-07
-3.62515e-06
6.64161e-06
-9.44483e-06
8.92747e-06
-1.44919e-07
9.87088e-06
9.98978e-23
1.02811e-05
2.13924e-22
1.01548e-05
-2.11691e-20
1.01889e-05
-4.05583e-19
8.97138e-06
-5.35411e-18
7.09955e-06
-8.13567e-17
5.98943e-06
-2.00587e-15
5.15055e-06
-5.62365e-14
3.80002e-06
-1.42649e-12
2.55729e-06
-3.41168e-12
1.72744e-06
-4.04488e-13
8.39369e-07
8.42331e-10
3.18832e-07
-5.95336e-10
2.07303e-07
-9.53265e-11
1.59563e-07
4.29481e-10
1.00224e-07
1.80955e-10
2.23606e-08
-6.506e-10
-1.14575e-07
-2.65959e-09
-2.25005e-07
1.16083e-09
-1.37778e-07
3.43415e-09
3.93291e-10
-2.00756e-11
1.44919e-07
-1.19444e-12
4.71836e-25
-2.83305e-14
4.1567e-23
2.68655e-21
-2.10878e-24
2.7537e-21
1.37877e-22
-2.1309e-20
3.56638e-21
-4.08916e-19
2.08e-20
-5.3219e-18
-9.16876e-18
-7.06901e-17
-1.8776e-16
-1.79071e-15
1.53099e-16
-5.60663e-14
1.3038e-14
-1.43683e-12
4.86267e-14
-3.42237e-12
2.27101e-14
-3.51822e-13
9.90268e-10
-1.47885e-10
1.18734e-10
4.09895e-11
-1.19711e-10
3.68745e-11
1.4081e-10
3.33785e-11
8.06318e-11
2.56357e-11
-7.50644e-10
-3.03227e-11
-3.85284e-09
-8.96583e-11
-3.6055e-09
2.39851e-10
-3.92507e-10
7.89203e-11
7.87544e-13
-3.11158e-19
-2.47129e-16
-1.19219e-12
2.1482e-21
-2.85776e-14
2.46192e-21
1.20783e-20
-1.58805e-20
3.20216e-20
-6.32902e-20
2.61006e-20
-9.09639e-19
-7.43086e-22
-9.10145e-18
-1.41246e-21
-8.02331e-17
-6.84514e-20
-1.87794e-15
-1.00342e-17
2.69076e-13
-5.31853e-16
1.0738e-12
-9.83722e-14
-1.73386e-12
-1.60613e-13
-5.77513e-11
4.34107e-12
-2.01183e-10
-3.50123e-12
-1.65379e-10
1.31174e-14
-1.31377e-10
3.48726e-13
-1.02474e-10
-1.03469e-13
-8.37137e-11
-5.54798e-13
-1.23203e-10
-4.67303e-12
-2.53014e-10
-4.17561e-12
-7.58565e-11
1.83391e-11
-7.83044e-13
2.87738e-12
5.87158e-15
-2.61249e-19
-2.69261e-13
-6.73178e-13
2.77181e-20
-1.64592e-13
4.4611e-20
2.34794e-20
3.22496e-20
5.65982e-20
-2.41733e-22
4.6182e-20
-1.90033e-21
9.15508e-22
-5.2553e-21
-2.07358e-21
-1.2721e-19
-7.60099e-20
-8.11482e-18
-2.77238e-18
-5.49417e-16
-1.78809e-17
-9.85788e-14
-3.64429e-16
-1.28735e-12
-9.38307e-15
-1.19707e-12
-3.26799e-14
-3.93015e-12
-5.84212e-14
-4.02261e-12
-6.76828e-15
-3.72658e-12
1.26661e-14
-3.95349e-12
-6.77697e-15
-4.88923e-12
-5.39028e-14
-1.06753e-11
-3.55086e-13
-1.79807e-11
-2.42756e-13
-2.73726e-12
1.04324e-12
-5.7919e-15
1.40722e-13
1.11155e-16
-3.57915e-19
-1.11537e-12
1.81863e-12
3.59827e-20
-6.69913e-14
4.82921e-20
-4.39679e-24
3.77101e-20
-2.41722e-22
9.22565e-22
-1.71092e-22
-4.98142e-21
-1.73763e-24
-7.38636e-21
-9.80899e-23
-4.94459e-19
-1.72806e-21
-1.94061e-17
-4.36043e-20
-7.46921e-17
-5.16981e-19
-2.36446e-16
8.55207e-19
-9.80069e-15
-4.03081e-17
-4.49717e-14
-4.95308e-16
-1.06865e-13
-1.48974e-15
-1.21429e-13
-2.87184e-16
-1.15145e-13
1.16633e-16
-1.28494e-13
-1.69439e-16
-2.0611e-13
-1.64252e-15
-6.4258e-13
-1.56961e-14
-1.04894e-12
-9.21636e-15
-1.35684e-13
4.24175e-14
-1.084e-16
5.07039e-15
2.45728e-18
-1.87871e-19
-4.01271e-13
3.54851e-12
-2.78558e-22
1.21824e-13
-2.78015e-22
-4.93999e-24
-1.43819e-22
-1.62679e-22
-8.16169e-25
3.60884e-24
-1.95657e-23
1.70119e-23
-1.40782e-22
2.31264e-23
-3.81028e-21
-5.68303e-23
-2.37326e-19
-7.36295e-22
-6.09163e-18
-5.16187e-21
-3.25317e-17
2.80989e-19
-7.99368e-17
3.81953e-18
-7.4516e-16
5.99739e-18
-2.53913e-15
1.45359e-17
-2.9062e-15
-1.67155e-17
-3.11296e-15
5.07691e-18
-3.95245e-15
-2.27921e-17
-7.50161e-15
-7.84674e-17
-2.73133e-14
-6.97995e-16
-4.23556e-14
-1.39767e-16
-4.90166e-15
1.56868e-15
-2.29775e-18
1.68692e-16
1.09048e-19
-5.18639e-20
-7.03421e-15
4.9011e-12
-1.975e-22
4.06124e-15
-1.28433e-22
-6.9046e-23
2.50771e-24
-3.01768e-22
1.38672e-23
1.2627e-24
2.65639e-23
6.32645e-24
-7.12299e-23
1.57139e-23
-1.44933e-22
1.68723e-23
-4.44001e-21
-9.94767e-24
-1.63244e-19
5.10972e-23
-2.21552e-18
8.88089e-21
-9.40392e-18
1.8301e-19
-2.74544e-17
2.00914e-18
-5.75617e-17
3.23177e-18
-7.44694e-17
2.50441e-18
-8.87179e-17
3.29969e-18
-1.35023e-16
5.48544e-18
-2.38211e-16
1.33128e-17
-9.53719e-16
2.84883e-17
-1.47189e-15
4.71839e-17
-1.63369e-16
5.23817e-17
-6.65624e-20
5.28728e-18
3.40032e-20
-5.66317e-20
-3.98161e-15
5.40616e-16
-5.39867e-21
7.96332e-17
-2.19229e-22
-5.19883e-21
8.21222e-25
-1.91607e-22
5.25262e-24
-1.868e-26
2.04629e-23
7.78596e-25
4.09558e-23
2.07073e-24
-4.82127e-23
2.85756e-24
-7.30819e-23
8.76403e-25
-2.91076e-21
2.81959e-24
-5.23491e-20
1.73899e-22
-4.88723e-19
3.16934e-21
-1.55934e-18
2.71049e-20
-2.55461e-18
7.2131e-20
-3.12201e-18
1.46296e-19
-3.8478e-18
2.66814e-19
-7.2732e-18
3.85278e-19
-1.86296e-17
1.13879e-18
-4.7226e-17
4.02045e-18
-4.78047e-17
4.14152e-18
-5.1432e-18
2.49898e-18
-4.22077e-20
1.58893e-19
3.43908e-20
-1.07717e-19
-7.81841e-17
6.00012e-16
-7.05847e-20
1.54284e-18
-2.54309e-22
-6.95042e-21
-5.31955e-25
-3.02515e-23
6.88585e-25
-2.19983e-25
3.20859e-24
4.2719e-26
9.60173e-24
1.15591e-25
1.25576e-23
1.53479e-25
-2.79885e-23
-6.31257e-26
-5.0979e-23
3.72232e-24
-1.13479e-21
3.34048e-24
-1.06657e-20
6.0485e-23
-3.73934e-20
4.08127e-22
-7.26734e-20
1.32278e-21
-1.05483e-19
2.82613e-21
-1.42676e-19
5.23471e-21
-3.00329e-19
9.95453e-21
-9.26211e-19
3.2218e-20
-2.14189e-18
8.91529e-20
-1.86254e-18
1.42954e-19
-1.67903e-19
1.04731e-19
-3.63251e-20
1.80006e-20
3.86384e-20
-6.73263e-20
-6.40895e-18
6.39221e-16
-9.41362e-20
2.92224e-17
-3.2e-23
9.0028e-21
-3.16217e-25
-1.87601e-23
4.24726e-26
-1.01331e-25
2.24891e-25
3.93725e-28
7.91394e-25
2.49072e-27
1.78984e-24
3.21895e-27
8.98694e-25
-1.15881e-25
-1.04587e-23
-1.54093e-25
-2.00511e-23
7.43993e-26
-2.11005e-22
1.05269e-24
-7.98286e-22
8.02732e-24
-1.65571e-21
2.78089e-23
-2.56351e-21
6.38163e-23
-4.05771e-21
1.28588e-22
-1.03217e-20
3.28897e-22
-3.39936e-20
1.12856e-21
-7.56534e-20
3.16237e-21
-6.95301e-20
5.84371e-21
-1.68452e-20
7.58808e-21
-2.05844e-20
1.18098e-20
3.74877e-20
-4.39659e-20
-7.41276e-18
7.05876e-16
-7.96404e-20
3.65184e-17
-2.19623e-23
2.15778e-20
-9.73058e-26
-8.1005e-24
4.56539e-28
-3.22969e-26
6.39228e-27
-2.01076e-28
3.14278e-26
1.38024e-29
1.33472e-25
1.80419e-29
3.10772e-25
-1.53436e-26
-1.63758e-25
-6.3772e-26
-3.627e-25
4.5918e-26
-3.50533e-24
1.47369e-26
-1.54877e-23
1.49102e-25
-3.67179e-23
6.8565e-25
-6.57175e-23
2.10771e-24
-1.27949e-22
5.82624e-24
-3.77706e-22
2.00925e-23
-1.21293e-21
7.70261e-23
-2.90431e-21
2.6369e-22
-4.4911e-21
8.4947e-22
-7.22247e-21
2.88091e-21
-1.43458e-20
1.01949e-20
3.84805e-20
-3.84282e-20
-7.97974e-18
5.53675e-16
-5.62281e-20
3.7415e-17
-9.39472e-24
1.8092e-20
-3.53143e-26
-2.55039e-24
-5.90412e-28
-1.0676e-26
4.97574e-29
-7.90742e-29
8.09268e-28
-7.20735e-32
7.04492e-27
-3.52931e-29
2.79489e-26
-1.12153e-27
3.1596e-26
-6.63925e-27
-3.29789e-26
-9.76554e-27
-4.63253e-26
2.7343e-28
-3.06298e-25
5.97632e-27
-1.07143e-24
4.63805e-26
-2.7449e-24
2.13554e-25
-7.95104e-24
9.31642e-25
-2.8341e-23
4.29714e-24
-9.80716e-23
1.88012e-23
-3.23666e-22
8.07098e-23
-1.12887e-21
3.80833e-22
-3.78962e-21
1.86662e-21
-1.03605e-20
8.10565e-21
3.55941e-20
-2.93683e-20
-8.39514e-18
3.86578e-16
-3.46178e-20
3.53849e-17
-3.4947e-24
1.33871e-20
-1.45824e-26
-6.98705e-25
-1.8518e-28
-4.49125e-27
-1.60751e-29
-2.32531e-29
2.44285e-29
-8.05273e-32
2.78533e-28
-2.40517e-30
1.47053e-27
-5.54014e-29
2.97517e-27
-3.98299e-28
-7.04024e-28
-1.01908e-27
-1.6488e-27
7.57381e-29
-2.07855e-26
1.56082e-27
-9.7964e-26
1.04694e-26
-3.82043e-25
5.541e-26
-1.58416e-24
3.06246e-25
-6.46939e-24
1.5894e-24
-2.50837e-23
7.55121e-24
-1.05684e-22
3.67889e-23
-5.03435e-22
2.04781e-22
-2.06508e-21
1.15894e-21
-6.47924e-21
5.57747e-21
3.23748e-20
-2.96156e-20
-8.48577e-18
3.89785e-16
-2.42576e-20
3.6051e-17
-1.39599e-24
1.13783e-20
-8.63737e-27
-3.51414e-25
-7.85988e-29
-3.56511e-27
-1.73891e-30
-1.28048e-29
2.18906e-31
-1.50861e-32
6.46696e-30
-3.13109e-32
4.22062e-29
-1.52282e-30
8.53249e-29
-1.29138e-29
-2.48705e-28
-3.26239e-29
-6.41516e-28
7.74161e-29
-4.09793e-27
5.4975e-28
-1.87168e-26
2.67201e-27
-8.84687e-26
1.56858e-26
-4.15136e-25
9.24825e-26
-1.79915e-24
4.93982e-25
-7.55928e-24
2.5198e-24
-3.63616e-23
1.37349e-23
-2.08843e-22
8.9166e-23
-1.37991e-21
6.42001e-22
-4.04144e-21
4.32433e-21
5.42485e-20
-7.08912e-21
-8.59389e-18
4.29908e-16
-1.70984e-20
3.90328e-17
-1.00542e-24
9.03178e-21
-7.9915e-27
-3.11354e-25
-5.96076e-29
-3.55499e-27
-5.58219e-31
-1.14348e-29
-8.89248e-32
-9.23365e-34
-3.29141e-32
1.04828e-32
-1.38263e-32
6.89728e-33
-1.80362e-30
4.64931e-32
-1.65502e-29
2.38429e-30
-1.27286e-28
1.61352e-29
-6.73794e-28
7.5241e-29
-3.59487e-27
5.10217e-28
-1.87525e-26
3.45825e-27
-9.00333e-26
2.01923e-26
-4.0662e-25
1.09947e-25
-1.84088e-24
6.16202e-25
-9.67159e-24
3.87979e-24
-6.59324e-23
3.12572e-23
-5.06063e-22
3.41821e-22
-5.63948e-21
5.8712e-21
1.79107e-19
-1.54205e-19
-8.27371e-18
5.51152e-16
-1.01634e-20
4.27063e-17
-1.09521e-24
5.53977e-21
-1.09115e-26
-3.89186e-25
-6.61767e-29
-5.84795e-27
-4.67084e-31
-1.52864e-29
-1.11491e-32
3.20088e-33
-1.12742e-32
1.05681e-33
-2.38991e-32
2.55426e-33
-2.64563e-31
4.77443e-32
-2.1459e-30
1.7636e-31
-1.42344e-29
1.11007e-30
-9.46819e-29
9.99678e-30
-6.10808e-28
8.71026e-29
-3.29427e-27
6.33043e-28
-1.57429e-26
3.67405e-27
-7.41447e-26
2.086e-26
-3.68619e-25
1.2959e-25
-2.21419e-24
9.66547e-25
-1.66598e-23
9.79962e-24
-1.71405e-22
1.25633e-22
-2.53436e-21
2.54022e-21
7.06997e-20
-1.39951e-19
-7.34887e-18
7.68123e-16
-4.83268e-21
4.64557e-17
-2.06946e-24
2.62852e-21
-2.37039e-26
-7.55166e-25
-1.21257e-28
-1.41851e-26
-6.33335e-31
-3.1772e-29
-5.93222e-33
4.33822e-33
-1.55351e-33
8.2658e-34
-2.48084e-33
1.89148e-34
-2.07112e-32
9.48239e-34
-1.8715e-31
1.10443e-32
-1.59916e-30
1.36631e-31
-1.28032e-29
1.49953e-30
-9.22693e-29
1.39284e-29
-5.02591e-28
1.06236e-28
-2.43069e-27
6.29295e-28
-1.17404e-26
3.80973e-27
-6.24991e-26
2.51875e-26
-4.78873e-25
2.35883e-25
-4.83558e-24
3.8989e-24
-4.36349e-23
4.3623e-23
-4.72231e-22
3.87563e-22
7.98965e-21
6.63962e-21
-5.57066e-18
9.79622e-16
-2.57309e-21
4.90699e-17
-4.86498e-24
2.22278e-21
-5.97446e-26
-1.7769e-24
-2.68932e-28
-4.38201e-26
-1.0949e-30
-9.90603e-29
-6.36394e-33
-8.5136e-33
-4.0115e-34
8.19013e-34
-4.35703e-34
8.29827e-35
-1.86716e-33
1.13734e-34
-1.91104e-32
1.39343e-33
-1.83301e-31
1.86686e-32
-1.59832e-30
2.11895e-31
-1.24449e-29
2.0647e-30
-6.88538e-29
1.6727e-29
-3.48074e-28
1.04042e-28
-1.58365e-27
6.86978e-28
-8.43635e-27
4.80601e-27
-1.68354e-25
1.4738e-25
-2.56322e-24
3.1417e-24
-8.19985e-24
1.2123e-23
-3.59816e-23
1.60121e-22
3.05107e-22
1.49289e-22
-2.79687e-18
1.03227e-15
-2.40288e-21
5.0421e-17
-1.21333e-23
3.53177e-21
-1.57762e-25
-4.0877e-24
-7.56946e-28
-1.32556e-25
-2.70781e-30
-3.99248e-28
-1.33059e-32
-1.33816e-31
-1.83472e-34
2.47138e-33
-1.17942e-34
6.38196e-35
-1.89545e-34
2.29647e-35
-1.89864e-33
1.66784e-34
-1.95782e-32
2.34453e-33
-1.80172e-31
2.81076e-32
-1.47561e-30
2.86022e-31
-8.38846e-30
2.45842e-30
-4.51098e-29
1.83434e-29
-1.64813e-28
1.37116e-28
-3.99621e-27
8.06751e-28
-6.6191e-25
1.79204e-25
-5.2906e-25
3.01782e-24
6.24126e-24
2.27923e-24
-6.02074e-24
-6.04322e-23
1.23454e-22
1.24597e-24
5.01245e-18
1.04631e-15
-3.50021e-21
6.69756e-17
-2.51553e-23
1.4818e-20
-3.31204e-25
-7.47843e-24
-1.90489e-27
-3.13427e-25
-8.03053e-30
-1.21103e-27
-3.92123e-32
-9.34148e-31
-2.24076e-34
8.7133e-33
-2.30192e-35
6.68941e-35
-2.72827e-35
1.12129e-35
-1.74804e-34
2.12231e-35
-1.91489e-33
2.82668e-34
-1.81366e-32
3.58703e-33
-1.3661e-31
3.78246e-32
-1.00629e-30
3.77314e-31
-1.47891e-29
4.63476e-30
-2.18483e-29
2.19782e-29
-2.73783e-28
4.06104e-28
-2.84497e-25
5.9035e-26
6.65888e-25
2.58543e-24
-1.8841e-25
-1.45698e-23
-1.70268e-23
-2.22178e-22
-1.02652e-21
-1.46721e-22
3.45243e-17
9.43874e-16
-4.167e-21
9.73776e-17
-3.48515e-23
9.81467e-20
-4.74379e-25
-1.01679e-23
-2.96956e-27
-6.62139e-25
-1.57549e-29
-2.30598e-27
-9.45502e-32
-2.28352e-30
-6.52443e-34
2.5476e-32
-1.04068e-35
3.49795e-34
-9.19352e-36
8.48379e-36
-1.55307e-35
3.8063e-36
-1.62928e-34
3.3435e-35
-1.44918e-33
4.43714e-34
-1.1273e-32
4.95427e-33
-7.14346e-31
6.1182e-32
-6.36567e-31
1.63005e-30
2.82628e-29
4.08775e-30
8.58796e-29
-2.67143e-28
-2.36319e-29
-1.83924e-27
7.12462e-26
9.22522e-25
-4.07386e-24
-2.84719e-23
-6.12576e-23
-2.89769e-22
-1.35318e-21
-3.84209e-22
4.42957e-17
6.53731e-16
4.84522e-19
1.01783e-16
-2.93913e-24
5.3178e-19
-3.10819e-25
-3.99396e-23
-2.27703e-27
-2.55623e-24
-1.30954e-29
-5.6055e-27
-9.20903e-32
-3.20988e-30
-7.97275e-34
4.26786e-32
-7.2985e-36
6.43248e-34
-1.07959e-36
7.7698e-36
-1.42949e-36
1.45883e-36
-1.10964e-35
4.26739e-36
-1.05452e-34
5.36233e-35
-5.32481e-34
6.29952e-34
-1.03582e-31
5.61024e-33
4.65459e-31
5.11934e-31
-2.26133e-31
-1.21957e-29
-4.21733e-29
-5.26585e-28
-2.59566e-27
-1.80962e-26
-7.23451e-26
-3.45739e-25
-8.75176e-24
-3.14312e-23
-9.285e-23
-2.63811e-22
-1.16238e-21
-5.0171e-22
3.1116e-17
2.93591e-16
1.23751e-18
7.29671e-17
1.8597e-21
7.20495e-19
2.45571e-24
1.20382e-22
4.94636e-27
-1.34837e-23
5.37679e-30
-4.4839e-26
-4.92934e-33
-1.26799e-29
-1.6362e-34
6.62289e-32
-2.12338e-36
8.24165e-34
-1.51699e-37
9.69284e-36
-1.57642e-37
7.72941e-37
-3.68678e-37
6.34658e-37
-2.62917e-36
6.33122e-36
1.03527e-36
7.60487e-35
2.52205e-34
6.66411e-34
2.43243e-32
6.11591e-32
-3.16904e-30
-2.03243e-29
-1.25688e-28
-5.84155e-28
-6.89363e-27
-2.47279e-26
-2.7827e-25
-8.01312e-25
-1.07301e-23
-2.54644e-23
-9.45165e-23
-1.88342e-22
-7.75157e-22
-4.57781e-22
1.18942e-17
7.45151e-17
1.27767e-18
2.73025e-17
5.02197e-21
5.38179e-19
1.9257e-23
3.43062e-22
1.01165e-25
-1.07781e-23
3.72857e-28
-5.88497e-26
9.22504e-31
3.23526e-29
1.97767e-33
8.14867e-31
5.70428e-36
3.61193e-33
7.413e-38
1.69707e-35
4.48828e-38
2.82363e-37
4.7909e-38
8.9483e-38
8.75695e-37
7.47843e-37
1.20169e-35
8.57847e-36
1.63136e-34
2.17228e-34
3.26651e-33
1.34032e-32
-5.94312e-30
-2.01269e-29
-1.82352e-28
-5.15027e-28
-1.04091e-26
-2.47822e-26
-3.69749e-25
-7.4932e-25
-9.5318e-24
-1.65792e-23
-7.35959e-23
-1.10602e-22
-4.22682e-22
-3.24122e-22
2.44399e-18
1.08965e-17
5.9193e-19
5.09646e-18
4.16762e-21
1.3009e-19
2.41407e-23
1.81142e-22
2.12223e-25
-3.60755e-24
1.35943e-27
-2.05259e-26
6.37457e-30
1.84127e-28
2.53583e-32
2.36012e-30
9.20992e-35
1.66098e-32
3.41009e-37
1.08783e-34
1.63997e-38
5.64116e-37
1.58646e-38
2.06821e-38
2.25354e-37
8.69082e-38
2.69522e-36
9.75794e-37
6.35933e-35
9.1374e-35
-3.70006e-33
-9.60566e-33
-6.92671e-30
-1.58894e-29
-1.94387e-28
-3.91079e-28
-1.14957e-26
-2.02277e-26
-3.4354e-25
-5.28566e-25
-6.78888e-24
-9.13983e-24
-4.66436e-23
-5.50008e-23
-1.93146e-22
-1.86996e-22
3.15957e-19
1.16494e-18
1.35112e-19
5.78259e-19
1.24443e-21
1.47064e-20
9.73471e-24
3.13071e-23
1.13339e-25
-4.1039e-25
9.84943e-28
-1.69788e-28
6.6658e-30
1.18083e-28
3.9387e-32
1.83635e-30
2.12305e-34
1.91484e-32
1.07721e-36
1.38616e-34
1.14812e-37
8.99794e-37
6.39308e-39
7.62019e-39
3.54867e-38
9.83113e-39
4.79161e-37
2.05081e-37
1.47864e-35
5.39144e-36
-8.46424e-33
-1.61789e-32
-6.2559e-30
-1.08461e-29
-1.70096e-28
-2.64148e-28
-1.01594e-26
-1.40224e-26
-2.58526e-25
-3.15654e-25
-4.12086e-24
-4.4364e-24
-2.52392e-23
-2.3896e-23
-7.62573e-23
-9.1843e-23
3.38154e-20
1.13438e-19
1.92788e-20
5.22784e-20
2.02606e-22
1.26371e-21
1.97195e-24
3.88062e-24
2.65528e-26
-9.08577e-27
2.74923e-28
8.10232e-28
2.36883e-30
2.30843e-29
1.82602e-32
3.28748e-31
1.29596e-34
3.8935e-33
8.56624e-37
4.14194e-35
4.56937e-38
3.99015e-37
2.37622e-39
3.49804e-39
3.75351e-39
1.07858e-39
1.23454e-37
6.90612e-38
2.47669e-37
4.05018e-37
-9.85219e-33
-1.50378e-32
-4.73386e-30
-6.61066e-30
-1.28045e-28
-1.61295e-28
-7.53309e-27
-8.47464e-27
-1.66345e-25
-1.65912e-25
-2.20521e-24
-1.93853e-24
-1.20197e-23
-9.2618e-24
-2.68295e-23
-3.99411e-23
3.63254e-21
1.03373e-20
2.11161e-21
4.1027e-21
2.34169e-23
9.22891e-23
2.55403e-25
4.06951e-25
3.65159e-27
3.95277e-27
4.27148e-29
1.50772e-28
4.25228e-31
2.92182e-30
3.85052e-33
3.97486e-32
3.23521e-35
4.77383e-34
2.57399e-37
5.33111e-36
6.15426e-39
5.58345e-38
3.57036e-40
5.49681e-40
4.28454e-40
1.18023e-40
2.3918e-38
9.01321e-39
-4.46395e-36
-6.15596e-36
-8.65098e-33
-1.11161e-32
-3.11024e-30
-3.65318e-30
-8.4922e-29
-8.98517e-29
-4.82146e-27
-4.54343e-27
-9.39045e-26
-7.80833e-26
-1.05936e-24
-7.70848e-25
-5.10095e-24
-3.22087e-24
-8.59068e-24
-1.58174e-23
3.88159e-22
8.39882e-22
1.83864e-22
2.69289e-22
1.99898e-24
5.44921e-24
2.32515e-26
3.53779e-26
3.4432e-28
6.2814e-28
4.35132e-30
1.55692e-29
4.8048e-32
2.60435e-31
4.86062e-34
3.51556e-33
4.56632e-36
4.32374e-35
4.07759e-38
4.94919e-37
5.19338e-40
5.33279e-39
4.40381e-41
5.45061e-41
5.64262e-41
2.07255e-41
2.11118e-39
2.71703e-39
-5.66855e-36
-6.89667e-36
-6.27837e-33
-7.06204e-33
-1.8064e-30
-1.84437e-30
-5.02405e-29
-4.58679e-29
-2.70985e-27
-2.18428e-27
-4.71392e-26
-3.31638e-26
-4.61171e-25
-2.80003e-25
-1.92766e-24
-9.97703e-25
-2.56276e-24
-5.89008e-24
3.73221e-23
5.88529e-23
1.22981e-23
1.43865e-23
1.2432e-25
2.58036e-25
1.52801e-27
2.44474e-27
2.33234e-29
5.18588e-29
3.12413e-31
1.0731e-30
3.7289e-33
1.68126e-32
4.08678e-35
2.27973e-34
4.16776e-37
2.85511e-36
4.05414e-39
3.33974e-38
3.89267e-41
3.69597e-40
7.91622e-42
3.92661e-42
1.29995e-41
5.18762e-42
-5.60607e-40
-6.68543e-40
-4.92517e-36
-5.4787e-36
-3.89971e-33
-3.96409e-33
-9.35634e-31
-8.5352e-31
-2.66709e-29
-2.14899e-29
-1.35018e-27
-9.46912e-28
-2.11796e-26
-1.27413e-26
-1.82442e-25
-9.26604e-26
-6.38794e-25
-2.6887e-25
-7.43613e-25
-2.18253e-24
3.0111e-24
3.51038e-24
6.1895e-25
6.26225e-25
5.66938e-27
1.01406e-26
7.46478e-29
1.32125e-28
1.18081e-30
2.89362e-30
1.66518e-32
5.43181e-32
2.1103e-34
8.29742e-34
2.45397e-36
1.13499e-35
2.66201e-38
1.43845e-37
2.76237e-40
1.70512e-39
2.82371e-42
1.91827e-41
1.00634e-42
2.10096e-43
1.84995e-42
3.97844e-43
-1.24827e-39
-1.42514e-39
-3.41508e-36
-3.58168e-36
-2.10347e-33
-1.98793e-33
-4.33038e-31
-3.6184e-31
-1.27086e-29
-9.22424e-30
-5.98416e-28
-3.70595e-28
-8.52692e-27
-4.41789e-27
-6.54218e-26
-2.77009e-26
-1.7931e-25
-6.01647e-26
-2.21705e-25
-8.70776e-25
1.98357e-25
1.7766e-25
2.35041e-26
2.25634e-26
1.97533e-28
3.44699e-28
2.84372e-30
5.69645e-30
4.69682e-32
1.22377e-31
6.92065e-34
2.17793e-33
9.17245e-36
3.30228e-35
1.11468e-37
4.54898e-37
1.26623e-39
5.79948e-39
1.37757e-41
6.9132e-41
1.48322e-43
7.82501e-43
5.72307e-44
9.00177e-45
1.05911e-43
1.29016e-43
-1.14945e-39
-1.29368e-39
-1.97036e-36
-2.00683e-36
-9.89485e-34
-8.93423e-34
-1.7859e-31
-1.40084e-31
-5.41502e-30
-3.61299e-30
-2.35478e-28
-1.306e-28
-3.06402e-27
-1.37353e-27
-2.11207e-26
-7.37268e-27
-4.00326e-26
-1.02922e-26
-6.68306e-26
-3.87094e-25
1.06431e-26
7.64681e-27
6.90976e-28
6.89874e-28
5.56955e-30
1.04906e-29
8.84955e-32
2.02379e-31
1.5268e-33
4.20122e-33
2.33062e-35
7.26556e-35
3.19112e-37
1.10061e-36
4.00347e-39
1.52001e-38
4.69781e-41
1.93721e-40
5.27574e-43
2.30417e-42
6.04323e-45
2.59798e-44
5.68479e-45
3.38515e-46
-2.46463e-44
-3.09477e-44
-7.6564e-40
-8.74976e-40
-9.5894e-37
-9.76312e-37
-4.04872e-34
-3.59247e-34
-6.51686e-32
-4.92391e-32
-2.04596e-30
-1.2827e-30
-8.16876e-29
-4.11832e-29
-9.74323e-28
-3.7882e-28
-6.06656e-27
-1.70856e-27
-6.50238e-27
-1.18385e-27
-1.63483e-26
-1.78802e-25
4.68581e-28
2.81719e-28
1.63198e-29
1.84756e-29
1.33746e-31
2.91669e-31
2.34195e-33
6.11632e-33
4.19131e-35
1.22789e-34
6.55397e-37
2.09036e-36
9.16666e-39
3.15951e-38
1.17385e-40
4.34717e-40
1.40461e-42
5.49973e-42
1.60404e-44
6.47434e-44
2.00293e-46
7.19809e-46
1.91806e-46
9.8664e-48
-4.23888e-44
-5.65109e-44
-4.00251e-40
-4.78895e-40
-3.93402e-37
-4.13061e-37
-1.42862e-34
-1.28464e-34
-2.07846e-32
-1.55737e-32
-6.77052e-31
-4.09066e-31
-2.46978e-29
-1.152e-29
-2.70742e-28
-9.13915e-29
-1.52758e-27
-3.33241e-28
-8.35767e-28
-9.04413e-29
-5.70838e-28
-7.62577e-26
1.71195e-29
8.97027e-30
3.24405e-31
4.48227e-31
2.84574e-33
7.49524e-33
5.41821e-35
1.62181e-34
9.90383e-37
3.16313e-36
1.5693e-38
5.314e-38
2.22082e-40
7.97197e-40
2.87166e-42
1.08547e-41
3.45961e-44
1.35314e-43
3.96204e-46
1.56298e-45
4.50852e-48
1.68374e-47
4.41828e-48
7.12589e-48
-2.96933e-44
-4.3392e-44
-1.67208e-40
-2.16628e-40
-1.34708e-37
-1.51021e-37
-4.28267e-35
-4.04201e-35
-5.6937e-33
-4.37762e-33
-1.92652e-31
-1.15764e-31
-6.39307e-30
-2.8259e-30
-6.44948e-29
-1.8955e-29
-3.29783e-28
-5.18547e-29
-2.17799e-28
-6.91951e-30
7.51476e-28
-2.72758e-26
5.26106e-31
2.49881e-31
5.67512e-33
1.01418e-32
5.47864e-35
1.79561e-34
1.10991e-36
3.8699e-36
2.04677e-38
7.35129e-38
3.24691e-40
1.21821e-39
4.60486e-42
1.79821e-41
5.94826e-44
2.40436e-43
7.12227e-46
2.93062e-45
8.0011e-48
3.29055e-47
7.45177e-48
3.36875e-49
-4.14026e-49
-7.66998e-49
-1.40935e-44
-2.34389e-44
-5.5449e-41
-8.09273e-41
-3.77462e-38
-4.70949e-38
-1.0657e-35
-1.10166e-35
-1.30552e-33
-1.07575e-33
-4.58868e-32
-2.86381e-32
-1.37994e-30