/*--------------------------------*- C++ -*----------------------------------*\
| =========                 |                                                 |
| \\      /  F ield         | OpenFOAM: The Open Source CFD Toolbox           |
|  \\    /   O peration     | Version:  2206                                  |
|   \\  /    A nd           | Website:  www.openfoam.com                      |
|    \\/     M anipulation  |                                                 |
\*---------------------------------------------------------------------------*/
FoamFile
{
    version     2.0;
    format      ascii;
    arch        "LSB;label=32;scalar=64";
    class       volVectorField;
    location    "0.8";
    object      U;
}
// * * * * * * * * * * * * * * * * * * * * * * * * * * * * * * * * * * * * * //

dimensions      [0 1 -1 0 0 0 0];

internalField   nonuniform List<vector> 
2268
(
(-0.00502113 0.000928242 0)
(0.00322146 -0.0104989 0)
(0.0174213 -0.0136925 0)
(0.0292938 -0.00936738 0)
(0.0361255 -0.00464359 0)
(0.0386854 -0.00140791 0)
(0.0391468 0.000192775 0)
(0.0389733 0.000792754 0)
(0.0386711 0.00113475 0)
(0.0382382 0.00160153 0)
(0.0375001 0.0023001 0)
(0.0362809 0.00319528 0)
(0.0345653 0.00412658 0)
(0.0324042 0.00495614 0)
(0.0300039 0.00562681 0)
(0.0273536 0.00607539 0)
(0.0254566 0.00552837 0)
(0.023251 0.00415511 0)
(0.025385 -0.000382145 0)
(0.0258187 -0.00195214 0)
(0.0351854 -0.0120692 0)
(0.0478832 -0.0163419 0)
(0.045002 0.040164 0)
(-0.00665547 0.00248652 0)
(0.00525487 -0.0325321 0)
(0.0160193 -0.0387949 0)
(0.027732 -0.0264385 0)
(0.033365 -0.0132121 0)
(0.0360028 -0.00466996 0)
(0.0370829 -0.00101298 0)
(0.0378 -0.000104623 0)
(0.0385966 5.76876e-05 0)
(0.0393883 0.000398578 0)
(0.0401494 0.00111915 0)
(0.0408434 0.00205531 0)
(0.0414697 0.00289806 0)
(0.0420535 0.00340545 0)
(0.0429391 0.00339428 0)
(0.0435134 0.00263154 0)
(0.0464901 0.000837556 0)
(0.0467402 -0.002581 0)
(0.0559916 -0.00841421 0)
(0.0544766 -0.0157224 0)
(0.0795387 -0.0291581 0)
(0.0619946 -0.00863054 0)
(0.0545046 0.132154 0)
(-0.00519877 0.00318147 0)
(0.00643894 -0.0530528 0)
(0.0149991 -0.0601236 0)
(0.0253165 -0.0407709 0)
(0.0305846 -0.0206888 0)
(0.034298 -0.00827447 0)
(0.0368814 -0.00316928 0)
(0.0390492 -0.00188243 0)
(0.040801 -0.00156633 0)
(0.0420257 -0.000937956 0)
(0.0426805 0.000168138 0)
(0.0426612 0.00143035 0)
(0.0421008 0.00260181 0)
(0.0411243 0.00330142 0)
(0.0398348 0.00310102 0)
(0.0382727 0.00139731 0)
(0.0372 -0.00210853 0)
(0.03407 -0.00934628 0)
(0.0369009 -0.0195582 0)
(0.0293054 -0.0404401 0)
(0.0472061 -0.0460491 0)
(0.0118912 0.0546114 0)
(0.0207812 0.239134 0)
(-0.00250217 -0.000231239 0)
(0.00668269 -0.0703306 0)
(0.0135802 -0.0781259 0)
(0.023579 -0.0550872 0)
(0.0290365 -0.0317462 0)
(0.0343886 -0.0173821 0)
(0.0388325 -0.0108525 0)
(0.0425874 -0.00809303 0)
(0.0454972 -0.00605102 0)
(0.0474349 -0.00351135 0)
(0.0482861 -0.000554796 0)
(0.0480858 0.00245608 0)
(0.0468095 0.00507319 0)
(0.0442119 0.00707927 0)
(0.0403416 0.00825443 0)
(0.035097 0.0082342 0)
(0.0284914 0.00662593 0)
(0.019783 0.00287308 0)
(0.00906523 -0.00388875 0)
(-0.00539856 -0.0199625 0)
(-0.0318891 -0.0117036 0)
(-0.0440584 0.0829809 0)
(-0.0153117 0.209533 0)
(-0.00113926 -0.0038075 0)
(0.00363233 -0.0810556 0)
(0.00923146 -0.093045 0)
(0.0215303 -0.0680614 0)
(0.029443 -0.0423089 0)
(0.0376796 -0.0266185 0)
(0.0448431 -0.0186128 0)
(0.0505994 -0.0140449 0)
(0.0546077 -0.0100618 0)
(0.0566658 -0.00558662 0)
(0.057083 -0.000414224 0)
(0.0562037 0.00541175 0)
(0.0542384 0.011554 0)
(0.0512663 0.0174858 0)
(0.0470737 0.0225521 0)
(0.0414722 0.0262704 0)
(0.0342465 0.0284906 0)
(0.0250618 0.0295553 0)
(0.0137202 0.0304796 0)
(-0.00360296 0.0278296 0)
(-0.0263041 0.0214403 0)
(-0.0356735 0.0511821 0)
(-0.0183881 0.113737 0)
(-0.0010476 -0.00586007 0)
(0.000569873 -0.0911311 0)
(0.00300295 -0.114775 0)
(0.0208833 -0.0924354 0)
(0.0341891 -0.0647922 0)
(0.0454903 -0.0471614 0)
(0.0544617 -0.0362246 0)
(0.0614511 -0.0275353 0)
(0.0663952 -0.0186027 0)
(0.0696908 -0.00908106 0)
(0.0717409 -0.000339147 0)
(0.0724739 0.00653399 0)
(0.0713968 0.0124219 0)
(0.0676175 0.0181533 0)
(0.060722 0.0237788 0)
(0.0510738 0.0290559 0)
(0.039649 0.0338929 0)
(0.0274849 0.0385102 0)
(0.0153374 0.0446201 0)
(0.0057412 0.0502438 0)
(-0.000596566 0.0498639 0)
(-0.000985315 0.0489443 0)
(0.00403592 0.0869707 0)
(0.0079741 -0.00398623 0)
(0.0161242 -0.0912138 0)
(0.0231129 -0.136193 0)
(0.0405129 -0.124532 0)
(0.0586795 -0.089377 0)
(0.0746661 -0.0624514 0)
(0.0867341 -0.0461178 0)
(0.095322 -0.0334059 0)
(0.0992259 -0.021983 0)
(0.096766 -0.0131784 0)
(0.0895385 -0.00441159 0)
(0.0810784 0.00748713 0)
(0.0734724 0.0233858 0)
(0.0655362 0.0419135 0)
(0.05518 0.059682 0)
(0.0419928 0.0725199 0)
(0.0274055 0.0792362 0)
(0.0147452 0.0807267 0)
(0.00551013 0.0778992 0)
(0.00296313 0.0622154 0)
(0.00607383 0.0408221 0)
(0.0195527 0.0476228 0)
(0.00805199 0.134085 0)
(0.0260907 -0.0555095 0)
(0.0646925 -0.110172 0)
(0.0941659 -0.160417 0)
(0.10679 -0.169023 0)
(0.117939 -0.140188 0)
(0.130291 -0.106195 0)
(0.138241 -0.0832066 0)
(0.142083 -0.0606761 0)
(0.144043 -0.026926 0)
(0.136103 0.00885451 0)
(0.121417 0.0301036 0)
(0.106197 0.0370545 0)
(0.0923519 0.0412623 0)
(0.0789808 0.0511011 0)
(0.0663689 0.0640588 0)
(0.05578 0.0738802 0)
(0.0469369 0.0771182 0)
(0.0431958 0.0695966 0)
(0.038786 0.0583135 0)
(0.0510546 0.0361997 0)
(0.051436 0.0144146 0)
(0.0361522 0.0282326 0)
(-0.0362581 0.114984 0)
(0.0649408 -0.0941507 0)
(0.148746 -0.00405406 0)
(-0.183214 0.0918443 0)
(-0.722264 -0.0831933 0)
(-0.385717 -0.355367 0)
(0.0392251 -0.438919 0)
(0.484842 -0.385978 0)
(0.82913 -0.29779 0)
(1.00544 -0.168309 0)
(0.853595 -0.0469118 0)
(0.393996 0.0528995 0)
(0.0984863 0.00355954 0)
(0.121359 -0.176285 0)
(0.212671 -0.200716 0)
(0.430032 -0.137113 0)
(0.542467 -0.0824244 0)
(0.392746 -0.0129985 0)
(0.119581 0.0632421 0)
(-0.093417 -0.0629305 0)
(0.113675 -0.123101 0)
(0.0323579 0.190241 0)
(-0.0424548 0.608085 0)
(-0.498461 0.457569 0)
(0.451235 -0.819341 0)
(0.43319 -0.831936 0)
(0.697552 -0.611858 0)
(0.74276 -0.425746 0)
(0.606174 0.0750795 0)
(0.381293 0.764101 0)
(0.346344 0.487506 0)
(0.351924 0.235408 0)
(0.251672 0.0815559 0)
(0.181077 -0.1068 0)
(0.565428 -0.333964 0)
(0.860969 0.195756 0)
(0.753801 0.386514 0)
(0.35828 0.372137 0)
(0.00161407 0.0976075 0)
(0.134482 -0.2231 0)
(0.0704218 0.217726 0)
(0.221797 0.724764 0)
(0.247469 -0.0579353 0)
(0.775752 -0.991931 0)
(0.345456 -0.808364 0)
(0.313202 -0.354213 0)
(-0.263918 -0.134327 0)
(-0.0862483 0.445967 0)
(-0.230457 0.545866 0)
(-0.28283 0.343855 0)
(-0.333002 0.305115 0)
(-0.0576042 -0.0903755 0)
(0.373337 -0.503001 0)
(0.500209 -0.64888 0)
(0.712813 -0.200221 0)
(1.0403 0.820222 0)
(0.526941 0.890571 0)
(0.0166916 0.321581 0)
(-0.0718675 -0.359245 0)
(0.181799 0.0669386 0)
(0.290995 0.492998 0)
(0.708641 -0.188517 0)
(0.868135 -0.791881 0)
(0.331263 -0.509364 0)
(-0.489987 0.0276934 0)
(-0.708161 0.050258 0)
(-0.797074 0.451285 0)
(-1.06125 0.724816 0)
(-1.19181 0.496398 0)
(-0.964012 -0.197192 0)
(-0.602435 -0.929752 0)
(-0.372139 -0.773335 0)
(0.108851 -0.850961 0)
(0.344859 -0.670007 0)
(0.902128 0.59282 0)
(0.449652 1.57025 0)
(0.00770998 0.523942 0)
(-0.300908 -0.389367 0)
(0.275732 -0.104511 0)
(0.49058 -0.141762 0)
(0.835134 -0.502398 0)
(0.694568 -0.478274 0)
(-0.530103 0.477892 0)
(-0.884532 0.328485 0)
(-0.941549 0.32059 0)
(-1.26866 0.720898 0)
(-1.47074 0.835273 0)
(-1.22154 0.259698 0)
(-0.934568 -0.462785 0)
(-1.08259 -0.87132 0)
(-0.870739 -1.14934 0)
(-0.183588 -1.55732 0)
(0.167708 -1.14902 0)
(0.660548 0.392681 0)
(0.177317 2.08933 0)
(0.0333479 0.639229 0)
(-0.169665 -0.38432 0)
(0.27368 -0.602016 0)
(0.564578 -0.609386 0)
(0.670448 -0.507163 0)
(-0.414592 0.790414 0)
(-1.08311 0.840924 0)
(-0.980246 0.446163 0)
(-0.993938 0.554921 0)
(-1.30668 0.910898 0)
(-1.36338 0.724501 0)
(-1.05473 0.0827408 0)
(-1.0393 -0.603542 0)
(-1.40071 -0.677151 0)
(-0.911727 -1.68697 0)
(-0.453451 -2.2841 0)
(-0.213062 -1.52392 0)
(0.385023 0.611331 0)
(-0.0521287 2.61055 0)
(0.0698327 0.678649 0)
(0.12864 -0.482895 0)
(0.0713452 -0.812537 0)
(0.102011 -0.70394 0)
(-0.089435 0.636023 0)
(-1.15342 1.56406 0)
(-1.18673 0.771079 0)
(-0.926736 0.366598 0)
(-0.859691 0.607002 0)
(-1.03682 1.08985 0)
(-1.14128 0.947938 0)
(-1.1915 0.191297 0)
(-1.02812 -0.334997 0)
(-0.924595 -0.702259 0)
(-0.485516 -2.13108 0)
(-0.477789 -2.49285 0)
(-0.505287 -1.76511 0)
(0.0438317 0.542087 0)
(-0.156895 2.55397 0)
(0.0873029 0.679569 0)
(0.289496 -0.537436 0)
(-0.435561 -0.79984 0)
(-0.235542 -0.463521 0)
(-0.207135 1.15726 0)
(-0.690766 2.23133 0)
(-1.13564 0.957182 0)
(-0.777808 0.235974 0)
(-0.638901 0.466765 0)
(-0.724531 1.16353 0)
(-0.769598 1.12425 0)
(-0.812859 -0.196876 0)
(-0.370965 -0.989978 0)
(-0.450989 -0.750749 0)
(-0.166418 -2.16484 0)
(-0.270137 -2.41614 0)
(-0.559512 -1.91592 0)
(0.00295175 0.289792 0)
(-0.085666 2.61153 0)
(0.0938956 0.532951 0)
(0.0314708 -0.155178 0)
(0.0916303 -0.194443 0)
(0.133581 -0.193766 0)
(0.147772 -0.175064 0)
(0.152094 -0.13646 0)
(0.154662 -0.0938801 0)
(0.153736 -0.062724 0)
(0.153674 -0.038829 0)
(0.146384 -0.00297715 0)
(0.144175 0.026524 0)
(0.141668 0.0407978 0)
(0.153006 0.0483273 0)
(0.1729 0.0593115 0)
(0.184454 0.0744736 0)
(0.176769 0.0860787 0)
(0.166163 0.0926917 0)
(0.157215 0.0947418 0)
(0.155275 0.08718 0)
(0.152875 0.0698955 0)
(0.143921 0.0453841 0)
(0.023476 0.0685102 0)
(-0.185885 0.146314 0)
(-0.272585 0.106345 0)
(0.0320652 -0.204006 0)
(0.0927239 -0.239872 0)
(0.122964 -0.208509 0)
(0.136984 -0.174044 0)
(0.16325 -0.135665 0)
(0.197544 -0.0982463 0)
(0.246503 -0.0796932 0)
(0.305799 -0.0644617 0)
(0.39133 -0.0188647 0)
(0.422427 0.0184041 0)
(0.438413 0.0271301 0)
(0.487313 0.0152864 0)
(0.545715 0.0138568 0)
(0.581861 0.0493667 0)
(0.574618 0.0850742 0)
(0.51325 0.114861 0)
(0.406858 0.136983 0)
(0.281025 0.1376 0)
(0.186085 0.109432 0)
(-0.0703562 0.232748 0)
(-0.270576 0.381 0)
(-0.285795 0.322304 0)
(-0.268417 0.153638 0)
(0.0292802 -0.316236 0)
(0.049918 -0.301507 0)
(-0.0235384 -0.241587 0)
(-0.037457 -0.253991 0)
(0.0300269 -0.241404 0)
(0.0770335 -0.220329 0)
(0.0768055 -0.211277 0)
(-0.0140746 -0.170341 0)
(-0.0720673 -0.0789191 0)
(0.0165152 -0.0324996 0)
(0.0348465 -0.0634895 0)
(0.0974001 -0.0896536 0)
(0.0779534 -0.0582686 0)
(0.0657764 0.115866 0)
(0.0261169 0.226985 0)
(0.00931116 0.250444 0)
(0.0028692 0.244114 0)
(0.0191058 0.247743 0)
(-0.00675407 0.300439 0)
(-0.0853605 0.362588 0)
(-0.187284 0.410756 0)
(-0.152155 0.306094 0)
(-0.0173578 0.0486807 0)
(-0.0314756 -0.339206 0)
(-0.103089 -0.167278 0)
(-0.177856 -0.15043 0)
(-0.236514 -0.218699 0)
(-0.25068 -0.195668 0)
(-0.235009 -0.0768185 0)
(-0.241977 0.0235355 0)
(-0.255182 0.0338779 0)
(-0.196178 -0.0596374 0)
(-0.175785 -0.0768585 0)
(-0.17406 -0.0639827 0)
(-0.209786 -0.0248522 0)
(-0.241765 0.0520679 0)
(-0.25774 0.132497 0)
(-0.247858 0.184308 0)
(-0.221729 0.193187 0)
(-0.199274 0.187751 0)
(-0.174551 0.231901 0)
(-0.151992 0.339096 0)
(-0.125705 0.418772 0)
(-0.12344 0.39323 0)
(-0.0456 0.177367 0)
(-0.0337297 -0.0405156 0)
(-0.142267 -0.119659 0)
(-0.251518 -0.01648 0)
(-0.259706 -0.082157 0)
(-0.253664 -0.204762 0)
(-0.257606 -0.247982 0)
(-0.240381 -0.224594 0)
(-0.186513 -0.190141 0)
(-0.134169 -0.178959 0)
(-0.122866 -0.139864 0)
(-0.146285 -0.0737347 0)
(-0.185931 -0.0417757 0)
(-0.230406 -0.00267751 0)
(-0.263235 0.0483251 0)
(-0.275813 0.106788 0)
(-0.266552 0.145625 0)
(-0.256295 0.161715 0)
(-0.25947 0.16662 0)
(-0.261885 0.201173 0)
(-0.232785 0.2844 0)
(-0.172437 0.361047 0)
(-0.111546 0.328571 0)
(-0.0479268 0.160378 0)
(-0.111236 0.0980619 0)
(-0.139219 0.0240139 0)
(-0.16714 -0.0758547 0)
(-0.156091 -0.157386 0)
(-0.166905 -0.216885 0)
(-0.176015 -0.225304 0)
(-0.173204 -0.181031 0)
(-0.165711 -0.127397 0)
(-0.168196 -0.0903173 0)
(-0.186259 -0.0627205 0)
(-0.201913 -0.0325884 0)
(-0.220688 0.00182633 0)
(-0.240657 0.0398799 0)
(-0.256159 0.0781433 0)
(-0.262288 0.117701 0)
(-0.26113 0.149562 0)
(-0.260975 0.169459 0)
(-0.268661 0.179212 0)
(-0.277063 0.195995 0)
(-0.26198 0.235291 0)
(-0.21075 0.276368 0)
(-0.146981 0.257874 0)
(-0.125005 0.178244 0)
(-0.162371 0.133244 0)
(-0.0935337 0.165335 0)
(-0.12392 0.0333236 0)
(-0.164376 -0.098518 0)
(-0.173857 -0.194683 0)
(-0.170133 -0.231873 0)
(-0.166811 -0.211225 0)
(-0.166112 -0.169344 0)
(-0.172162 -0.124479 0)
(-0.186635 -0.0758715 0)
(-0.206268 -0.0281049 0)
(-0.226831 0.0139773 0)
(-0.24527 0.0543425 0)
(-0.257401 0.0907142 0)
(-0.262628 0.123345 0)
(-0.26271 0.14987 0)
(-0.260788 0.169227 0)
(-0.260587 0.182325 0)
(-0.261839 0.194727 0)
(-0.254713 0.212202 0)
(-0.226978 0.2284 0)
(-0.190046 0.220951 0)
(-0.181471 0.187693 0)
(-0.193957 0.156688 0)
(-0.0628746 0.253969 0)
(-0.0959037 0.0593617 0)
(-0.135489 -0.0980606 0)
(-0.143925 -0.199488 0)
(-0.145534 -0.232275 0)
(-0.154786 -0.197138 0)
(-0.168423 -0.141525 0)
(-0.186799 -0.0874787 0)
(-0.206711 -0.040579 0)
(-0.225337 6.73006e-05 0)
(-0.240367 0.0359629 0)
(-0.251591 0.0687173 0)
(-0.258742 0.0989598 0)
(-0.261059 0.125539 0)
(-0.259152 0.147435 0)
(-0.25469 0.164562 0)
(-0.249611 0.17793 0)
(-0.244867 0.189407 0)
(-0.23823 0.200147 0)
(-0.225197 0.207778 0)
(-0.209756 0.205177 0)
(-0.205906 0.190674 0)
(-0.214187 0.174438 0)
(-0.0421442 0.324137 0)
(-0.0748499 0.116082 0)
(-0.121536 -0.0598907 0)
(-0.129135 -0.186895 0)
(-0.137749 -0.222365 0)
(-0.153751 -0.183269 0)
(-0.173797 -0.125353 0)
(-0.194986 -0.0706074 0)
(-0.214507 -0.0242621 0)
(-0.230519 0.014467 0)
(-0.242347 0.0477485 0)
(-0.249613 0.0764759 0)
(-0.252566 0.101876 0)
(-0.251786 0.124118 0)
(-0.248132 0.142968 0)
(-0.242818 0.158535 0)
(-0.236942 0.17151 0)
(-0.231107 0.182693 0)
(-0.225179 0.192136 0)
(-0.218797 0.198483 0)
(-0.213958 0.199184 0)
(-0.215126 0.194252 0)
(-0.224755 0.188073 0)
(-0.0270526 0.377486 0)
(-0.0591485 0.167013 0)
(-0.109283 -0.0318084 0)
(-0.114469 -0.175383 0)
(-0.130613 -0.206118 0)
(-0.151286 -0.160226 0)
(-0.175147 -0.0994282 0)
(-0.196954 -0.0465136 0)
(-0.214603 -0.00473425 0)
(-0.22727 0.0285015 0)
(-0.235189 0.0560808 0)
(-0.2389 0.0800937 0)
(-0.239018 0.101386 0)
(-0.2364 0.120374 0)
(-0.23205 0.137197 0)
(-0.227001 0.152025 0)
(-0.22206 0.165183 0)
(-0.217676 0.176967 0)
(-0.214067 0.187255 0)
(-0.211739 0.195262 0)
(-0.212113 0.199974 0)
(-0.217076 0.20186 0)
(-0.227924 0.202821 0)
(-0.0148487 0.414114 0)
(-0.0494908 0.213275 0)
(-0.099658 0.000197085 0)
(-0.105252 -0.159139 0)
(-0.125934 -0.184877 0)
(-0.148392 -0.135162 0)
(-0.172593 -0.0749003 0)
(-0.192681 -0.0263291 0)
(-0.207217 0.00977897 0)
(-0.216307 0.0376043 0)
(-0.220989 0.0605545 0)
(-0.222203 0.0807464 0)
(-0.220853 0.099193 0)
(-0.217813 0.116305 0)
(-0.213933 0.132221 0)
(-0.21 0.147037 0)
(-0.206612 0.160866 0)
(-0.204177 0.173761 0)
(-0.202985 0.185604 0)
(-0.203529 0.196015 0)
(-0.206805 0.204633 0)
(-0.21392 0.211798 0)
(-0.22552 0.218397 0)
(-0.00710541 0.441913 0)
(-0.049198 0.259027 0)
(-0.0937063 0.0293762 0)
(-0.100779 -0.140848 0)
(-0.122357 -0.162156 0)
(-0.144117 -0.110185 0)
(-0.166364 -0.0521918 0)
(-0.183465 -0.009084 0)
(-0.194732 0.0209998 0)
(-0.20088 0.0435293 0)
(-0.20329 0.0624595 0)
(-0.203163 0.0798373 0)
(-0.201443 0.0965311 0)
(-0.198887 0.112792 0)
(-0.196109 0.128608 0)
(-0.193614 0.143925 0)
(-0.191796 0.158706 0)
(-0.190978 0.172902 0)
(-0.191476 0.186457 0)
(-0.193736 0.199228 0)
(-0.198482 0.211185 0)
(-0.206476 0.222581 0)
(-0.21821 0.233938 0)
(-0.00670508 0.471847 0)
(-0.0572229 0.304539 0)
(-0.091162 0.0542301 0)
(-0.100109 -0.122062 0)
(-0.119727 -0.140592 0)
(-0.138884 -0.087822 0)
(-0.157741 -0.0330083 0)
(-0.171311 0.00455012 0)
(-0.179505 0.0289869 0)
(-0.183451 0.0471177 0)
(-0.184595 0.0630494 0)
(-0.18411 0.0786332 0)
(-0.182764 0.0944203 0)
(-0.181085 0.110413 0)
(-0.179445 0.126438 0)
(-0.178137 0.142338 0)
(-0.177433 0.158021 0)
(-0.177583 0.173441 0)
(-0.178906 0.188615 0)
(-0.181823 0.203562 0)
(-0.186924 0.218421 0)
(-0.194827 0.233464 0)
(-0.205976 0.249079 0)
(-0.0126901 0.510581 0)
(-0.067178 0.347899 0)
(-0.0908726 0.07537 0)
(-0.101572 -0.104769 0)
(-0.117658 -0.122195 0)
(-0.13302 -0.0694679 0)
(-0.147782 -0.0178994 0)
(-0.157803 0.0147225 0)
(-0.163357 0.0345096 0)
(-0.165722 0.0492964 0)
(-0.166272 0.063231 0)
(-0.165902 0.0778005 0)
(-0.165132 0.0931913 0)
(-0.164246 0.109156 0)
(-0.163422 0.125402 0)
(-0.162815 0.141736 0)
(-0.16262 0.158094 0)
(-0.163064 0.174506 0)
(-0.164452 0.191061 0)
(-0.167184 0.207919 0)
(-0.171763 0.225306 0)
(-0.178754 0.243573 0)
(-0.188563 0.26309 0)
(-0.0205292 0.5581 0)
(-0.0732143 0.388064 0)
(-0.0914888 0.094467 0)
(-0.103298 -0.0899427 0)
(-0.115572 -0.108003 0)
(-0.126742 -0.0557416 0)
(-0.137365 -0.00695195 0)
(-0.144015 0.0216767 0)
(-0.147294 0.0379841 0)
(-0.148484 0.0504973 0)
(-0.148694 0.0632882 0)
(-0.148498 0.0773938 0)
(-0.148129 0.0926334 0)
(-0.147679 0.108575 0)
(-0.147204 0.124899 0)
(-0.146779 0.141464 0)
(-0.14656 0.15827 0)
(-0.146754 0.175416 0)
(-0.147631 0.193071 0)
(-0.149545 0.211491 0)
(-0.152904 0.230985 0)
(-0.158231 0.251992 0)
(-0.165905 0.274994 0)
(-0.0261459 0.610625 0)
(-0.0733849 0.42578 0)
(-0.0916844 0.113322 0)
(-0.103959 -0.0775476 0)
(-0.112885 -0.0982262 0)
(-0.119978 -0.0466278 0)
(-0.126735 0.000199161 0)
(-0.130403 0.0258919 0)
(-0.131783 0.0397969 0)
(-0.131994 0.0509668 0)
(-0.131855 0.0632144 0)
(-0.131639 0.0771477 0)
(-0.131359 0.0922969 0)
(-0.130956 0.108142 0)
(-0.130396 0.124407 0)
(-0.129721 0.141012 0)
(-0.129075 0.158033 0)
(-0.128624 0.175646 0)
(-0.128565 0.194077 0)
(-0.129169 0.213636 0)
(-0.130749 0.23473 0)
(-0.133718 0.257869 0)
(-0.138432 0.283724 0)
(-0.0277088 0.663363 0)
(-0.0685355 0.462487 0)
(-0.0903143 0.133357 0)
(-0.102789 -0.0670338 0)
(-0.109084 -0.0926006 0)
(-0.112429 -0.0418313 0)
(-0.11581 0.00390725 0)
(-0.116985 0.0277147 0)
(-0.116766 0.0401884 0)
(-0.116146 0.0507545 0)
(-0.115618 0.0628892 0)
(-0.115194 0.0767963 0)
(-0.114714 0.0918315 0)
(-0.114026 0.10748 0)
(-0.113081 0.123543 0)
(-0.111908 0.140021 0)
(-0.110574 0.157032 0)
(-0.109187 0.174825 0)
(-0.107884 0.19365 0)
(-0.106813 0.213845 0)
(-0.106157 0.235903 0)
(-0.106156 0.260391 0)
(-0.107098 0.288141 0)
(-0.024916 0.711672 0)
(-0.0601558 0.499198 0)
(-0.0866329 0.155305 0)
(-0.099261 -0.0576935 0)
(-0.103694 -0.0906337 0)
(-0.103793 -0.0409051 0)
(-0.104245 0.00464557 0)
(-0.103397 0.0275522 0)
(-0.101968 0.0394038 0)
(-0.100683 0.0499011 0)
(-0.0997754 0.0621871 0)
(-0.0990358 0.0761348 0)
(-0.0982003 0.0910116 0)
(-0.0970856 0.106368 0)
(-0.0956109 0.122089 0)
(-0.0937844 0.13826 0)
(-0.0916032 0.155049 0)
(-0.0891096 0.172698 0)
(-0.0863899 0.191485 0)
(-0.0834225 0.211764 0)
(-0.080249 0.234036 0)
(-0.0769059 0.258891 0)
(-0.0734478 0.287192 0)
(-0.0178382 0.751408 0)
(-0.049106 0.536378 0)
(-0.0803209 0.179297 0)
(-0.0927784 -0.0490189 0)
(-0.0960599 -0.0917346 0)
(-0.0935326 -0.0432568 0)
(-0.0916031 0.00307948 0)
(-0.089268 0.0259683 0)
(-0.0870177 0.0377985 0)
(-0.0853297 0.0485653 0)
(-0.0841262 0.0611174 0)
(-0.0830771 0.0750949 0)
(-0.081861 0.0897409 0)
(-0.0802778 0.104705 0)
(-0.0782341 0.119953 0)
(-0.0757032 0.135652 0)
(-0.0726349 0.15198 0)
(-0.0689963 0.169147 0)
(-0.0647893 0.18745 0)
(-0.0598947 0.207238 0)
(-0.0542022 0.228937 0)
(-0.0475627 0.253088 0)
(-0.0396163 0.280368 0)
(-0.00508153 0.77982 0)
(-0.0343824 0.573904 0)
(-0.070811 0.205084 0)
(-0.0822684 -0.0408581 0)
(-0.0851196 -0.0951651 0)
(-0.0809142 -0.0480901 0)
(-0.0773133 -0.000177646 0)
(-0.0742128 0.0234557 0)
(-0.0716751 0.0357053 0)
(-0.0698753 0.0469534 0)
(-0.0685249 0.0598009 0)
(-0.0672444 0.0737183 0)
(-0.0657049 0.0880264 0)
(-0.0637262 0.102491 0)
(-0.0611529 0.117155 0)
(-0.0579303 0.132192 0)
(-0.0540184 0.147798 0)
(-0.0492966 0.164167 0)
(-0.0436929 0.18158 0)
(-0.0370059 0.200334 0)
(-0.0290468 0.220733 0)
(-0.0196051 0.243255 0)
(-0.00788021 0.268385 0)
(0.013447 0.790138 0)
(-0.0143582 0.616012 0)
(-0.0552372 0.232901 0)
(-0.0657874 -0.0326304 0)
(-0.0693373 -0.0995793 0)
(-0.065081 -0.0540084 0)
(-0.0610363 -0.00406573 0)
(-0.0579871 0.0207497 0)
(-0.0556765 0.0335963 0)
(-0.0541269 0.0453423 0)
(-0.0529045 0.0583899 0)
(-0.0515858 0.0721289 0)
(-0.0498417 0.0859664 0)
(-0.047526 0.0997863 0)
(-0.044525 0.113732 0)
(-0.0407442 0.127928 0)
(-0.0360888 0.142592 0)
(-0.0303982 0.15791 0)
(-0.0235617 0.174073 0)
(-0.0153926 0.191365 0)
(-0.00558017 0.209956 0)
(0.00622278 0.230217 0)
(0.0206374 0.252447 0)
(0.029536 0.774859 0)
(0.00843364 0.661106 0)
(-0.0297889 0.263543 0)
(-0.0415416 -0.0227821 0)
(-0.0474195 -0.102608 0)
(-0.0453544 -0.0588875 0)
(-0.0425309 -0.00718179 0)
(-0.040606 0.018789 0)
(-0.03917 0.0320839 0)
(-0.0382328 0.044118 0)
(-0.0373808 0.0571352 0)
(-0.0361978 0.0705028 0)
(-0.034424 0.0837123 0)
(-0.0319183 0.0967496 0)
(-0.0285957 0.109787 0)
(-0.0243583 0.122992 0)
(-0.0190757 0.13653 0)
(-0.0126239 0.150577 0)
(-0.00482454 0.165256 0)
(0.00455457 0.180768 0)
(0.0157844 0.19724 0)
(0.0292622 0.214864 0)
(0.0454293 0.233702 0)
(0.0379166 0.739363 0)
(0.0300057 0.69276 0)
(0.00287674 0.295042 0)
(-0.0095639 -0.0101423 0)
(-0.019542 -0.100983 0)
(-0.0221653 -0.060207 0)
(-0.0222951 -0.00814154 0)
(-0.0224025 0.0181467 0)
(-0.0224703 0.0315903 0)
(-0.0224642 0.043597 0)
(-0.0222042 0.0563026 0)
(-0.021336 0.0690355 0)
(-0.0196732 0.0814191 0)
(-0.0171197 0.0935162 0)
(-0.0136015 0.105505 0)
(-0.00904162 0.117559 0)
(-0.00330887 0.129816 0)
(0.00374499 0.14239 0)
(0.0122679 0.155414 0)
(0.0224989 0.168963 0)
(0.0347052 0.18311 0)
(0.0492469 0.197945 0)
(0.0664514 0.213346 0)
(0.0383695 0.692331 0)
(0.0456148 0.703227 0)
(0.0358541 0.318587 0)
(0.027702 0.00438125 0)
(0.0125459 -0.093506 0)
(0.00226579 -0.0563842 0)
(-0.00194399 -0.00581201 0)
(-0.00421252 0.0194749 0)
(-0.00597504 0.0324543 0)
(-0.00719789 0.0440307 0)
(-0.00770284 0.0560594 0)
(-0.00729158 0.0678838 0)
(-0.00586443 0.0792307 0)
(-0.00338253 0.0902162 0)
(0.000203177 0.10102 0)
(0.00496659 0.111782 0)
(0.0110022 0.122624 0)
(0.0184528 0.133614 0)
(0.0274657 0.144836 0)
(0.0382543 0.156326 0)
(0.0510587 0.168096 0)
(0.0661787 0.180161 0)
(0.0838913 0.192289 0)
(0.0333338 0.642153 0)
(0.0537668 0.692135 0)
(0.0624241 0.329365 0)
(0.0626629 0.0185245 0)
(0.0449835 -0.0806646 0)
(0.0263597 -0.0466059 0)
(0.0172375 0.000465794 0)
(0.0128857 0.0233527 0)
(0.00957871 0.0349775 0)
(0.00707086 0.0455804 0)
(0.00572051 0.0565301 0)
(0.00560975 0.0671529 0)
(0.0067247 0.0772529 0)
(0.00905304 0.0869655 0)
(0.0126111 0.0964488 0)
(0.0174529 0.105809 0)
(0.0236568 0.115124 0)
(0.0313418 0.124446 0)
(0.0406388 0.133807 0)
(0.0517363 0.14321 0)
(0.0648218 0.152626 0)
(0.0801503 0.16202 0)
(0.0979487 0.171125 0)
(0.0252934 0.595738 0)
(0.0551143 0.662119 0)
(0.0816186 0.3234 0)
(0.0908119 0.0296653 0)
(0.0720216 -0.0629012 0)
(0.0475355 -0.0310771 0)
(0.034401 0.0104794 0)
(0.0280871 0.0294496 0)
(0.0233306 0.0390237 0)
(0.0197451 0.0481954 0)
(0.0176565 0.0577117 0)
(0.017051 0.0668723 0)
(0.0178412 0.0755403 0)
(0.0199736 0.0838407 0)
(0.0234383 0.0918882 0)
(0.0282674 0.099752 0)
(0.034522 0.107473 0)
(0.042297 0.115076 0)
(0.0516999 0.122559 0)
(0.0628862 0.129898 0)
(0.0759967 0.137028 0)
(0.0912543 0.143891 0)
(0.108805 0.150226 0)
(0.0164796 0.556596 0)
(0.0528381 0.617466 0)
(0.0948805 0.301576 0)
(0.110714 0.036252 0)
(0.09134 -0.0413007 0)
(0.0637973 -0.0110734 0)
(0.0483098 0.0230458 0)
(0.040594 0.0370005 0)
(0.034794 0.0442006 0)
(0.030427 0.0516696 0)
(0.0277858 0.0594878 0)
(0.0267817 0.0669937 0)
(0.0272854 0.0740951 0)
(0.0292189 0.0808792 0)
(0.032553 0.0874091 0)
(0.0373011 0.0937138 0)
(0.0435063 0.0998025 0)
(0.0512392 0.105672 0)
(0.0605846 0.111295 0)
(0.0716631 0.116627 0)
(0.0845814 0.121579 0)
(0.0995244 0.126066 0)
(0.116576 0.129865 0)
(0.00927563 0.523975 0)
(0.0516781 0.562447 0)
(0.104509 0.268489 0)
(0.122619 0.0401281 0)
(0.102256 -0.0170405 0)
(0.0742486 0.011278 0)
(0.0584106 0.0365943 0)
(0.0500467 0.045325 0)
(0.0436589 0.0501102 0)
(0.0388601 0.0557139 0)
(0.0358972 0.0616747 0)
(0.0346376 0.06742 0)
(0.0349313 0.0728797 0)
(0.0366905 0.0780887 0)
(0.0398776 0.0830579 0)
(0.0444915 0.0877787 0)
(0.0505579 0.0922326 0)
(0.0581245 0.0963917 0)
(0.067256 0.100208 0)
(0.0780419 0.103619 0)
(0.0905651 0.10652 0)
(0.104966 0.108799 0)
(0.121292 0.110285 0)
(0.00543867 0.493949 0)
(0.0544711 0.500616 0)
(0.111323 0.230327 0)
(0.127166 0.044275 0)
(0.105626 0.00872128 0)
(0.0791767 0.0335821 0)
(0.0645772 0.0497534 0)
(0.0563328 0.053757 0)
(0.0498224 0.0563092 0)
(0.0449532 0.0599962 0)
(0.0419167 0.0640533 0)
(0.0405569 0.0680219 0)
(0.040731 0.0718289 0)
(0.0423566 0.0754553 0)
(0.0453926 0.0788661 0)
(0.0498274 0.0820211 0)
(0.0556724 0.0848778 0)
(0.062957 0.0873867 0)
(0.071729 0.0894828 0)
(0.0820513 0.0910849 0)
(0.0939884 0.0920824 0)
(0.107637 0.0923465 0)
(0.123015 0.0917483 0)
(0.00548888 0.462148 0)
(0.0600165 0.435301 0)
(0.11427 0.193177 0)
(0.124797 0.05132 0)
(0.102633 0.0344743 0)
(0.0795243 0.0536833 0)
(0.0672186 0.061521 0)
(0.0596087 0.0617762 0)
(0.053388 0.062379 0)
(0.0487724 0.0641988 0)
(0.045885 0.066409 0)
(0.044572 0.0686635 0)
(0.0447165 0.0708691 0)
(0.0462499 0.0729577 0)
(0.049133 0.0748588 0)
(0.0533488 0.0765086 0)
(0.058899 0.0778432 0)
(0.0658006 0.0787946 0)
(0.0740877 0.0792832 0)
(0.083803 0.0792139 0)
(0.0949924 0.0784759 0)
(0.107718 0.0769378 0)
(0.121966 0.0744978 0)
(0.00864782 0.426191 0)
(0.0647823 0.370335 0)
(0.111917 0.161968 0)
(0.116252 0.0621329 0)
(0.0949797 0.0581669 0)
(0.0764925 0.0702248 0)
(0.0668668 0.0714124 0)
(0.0601999 0.069021 0)
(0.0546098 0.0679665 0)
(0.0505024 0.068054 0)
(0.0479382 0.0685641 0)
(0.0467909 0.0692307 0)
(0.046978 0.0699371 0)
(0.0484504 0.070579 0)
(0.0511764 0.0710595 0)
(0.0551384 0.0713008 0)
(0.0603333 0.0712181 0)
(0.0667729 0.0707285 0)
(0.0744803 0.069742 0)
(0.0834833 0.0681556 0)
(0.0938115 0.0658624 0)
(0.105505 0.0627342 0)
(0.118526 0.0586876 0)
(0.0131383 0.386384 0)
(0.0661116 0.309928 0)
(0.103966 0.139136 0)
(0.102988 0.0753847 0)
(0.0845864 0.0778205 0)
(0.0712159 0.0826729 0)
(0.0641252 0.0793216 0)
(0.0585605 0.0752388 0)
(0.0538372 0.0728052 0)
(0.0504021 0.0713699 0)
(0.0482696 0.0703868 0)
(0.0473621 0.0696389 0)
(0.0476386 0.0689907 0)
(0.0490647 0.0683143 0)
(0.0516249 0.0675017 0)
(0.0553054 0.0664496 0)
(0.0600996 0.0650704 0)
(0.066022 0.0632696 0)
(0.0730883 0.0609493 0)
(0.0813178 0.0580037 0)
(0.0907236 0.0543281 0)
(0.10134 0.0498024 0)
(0.113123 0.0443513 0)
(0.0170761 0.344878 0)
(0.0633522 0.257358 0)
(0.0915971 0.124793 0)
(0.0874385 0.0888258 0)
(0.0733087 0.0923511 0)
(0.0645933 0.0912851 0)
(0.0596007 0.0853658 0)
(0.0552011 0.0802847 0)
(0.051457 0.0767426 0)
(0.0487516 0.0740441 0)
(0.047094 0.0718074 0)
(0.0464598 0.0698466 0)
(0.0468395 0.0680083 0)
(0.0482219 0.0661617 0)
(0.0505957 0.0641905 0)
(0.0539622 0.0619811 0)
(0.0583301 0.0594392 0)
(0.0637042 0.056464 0)
(0.0700972 0.0529508 0)
(0.077524 0.0487948 0)
(0.0859934 0.043891 0)
(0.0955423 0.0381258 0)
(0.106123 0.031429 0)
(0.0193488 0.304268 0)
(0.0574291 0.214376 0)
(0.0769791 0.117536 0)
(0.0717691 0.100203 0)
(0.0622463 0.10173 0)
(0.0572022 0.0967791 0)
(0.0538764 0.0897697 0)
(0.050615 0.0841373 0)
(0.0478309 0.0797513 0)
(0.0458259 0.076068 0)
(0.0446287 0.0728213 0)
(0.0442515 0.0698482 0)
(0.0447188 0.0669969 0)
(0.0460405 0.0641348 0)
(0.048217 0.0611425 0)
(0.0512598 0.0579159 0)
(0.0551803 0.0543451 0)
(0.0599864 0.050327 0)
(0.0656908 0.0457552 0)
(0.0723104 0.0405257 0)
(0.0798492 0.0345351 0)
(0.0883534 0.0276794 0)
(0.0977751 0.0198554 0)
(0.019799 0.266659 0)
(0.0497025 0.181261 0)
(0.0619805 0.11499 0)
(0.0574831 0.108252 0)
(0.0520889 0.106924 0)
(0.04955 0.100041 0)
(0.0474614 0.0928136 0)
(0.0452114 0.0869008 0)
(0.0432753 0.0819218 0)
(0.0418778 0.0775136 0)
(0.0410767 0.0734852 0)
(0.040922 0.0696939 0)
(0.0414484 0.0660048 0)
(0.0426822 0.0622864 0)
(0.0446438 0.0584248 0)
(0.0473478 0.0543126 0)
(0.0508092 0.0498421 0)
(0.0550407 0.0449099 0)
(0.0600565 0.0394092 0)
(0.0658745 0.0332346 0)
(0.0725066 0.0262834 0)
(0.0799632 0.0184519 0)
(0.0882268 0.00963593 0)
(0.018823 0.233331 0)
(0.0413944 0.157167 0)
(0.0481245 0.115026 0)
(0.0453303 0.11299 0)
(0.0429405 0.109228 0)
(0.0418818 0.101802 0)
(0.0407188 0.0947741 0)
(0.03931 0.0887634 0)
(0.0380578 0.0834146 0)
(0.0371488 0.0785013 0)
(0.0366638 0.073892 0)
(0.0366733 0.0694623 0)
(0.0372221 0.0650908 0)
(0.0383446 0.0606644 0)
(0.0400696 0.0560716 0)
(0.0424186 0.0512061 0)
(0.0454115 0.0459657 0)
(0.0490604 0.040247 0)
(0.0533772 0.0339382 0)
(0.0583803 0.0269399 0)
(0.0640751 0.0191492 0)
(0.0704767 0.0104589 0)
(0.0775579 0.000787707 0)
(0.0169661 0.204774 0)
(0.0333992 0.140633 0)
(0.0362093 0.115969 0)
(0.0352593 0.114977 0)
(0.034716 0.109723 0)
(0.0344747 0.102553 0)
(0.0339483 0.0959127 0)
(0.0331769 0.0898722 0)
(0.0324236 0.0843078 0)
(0.0318706 0.0790531 0)
(0.0316128 0.0740131 0)
(0.03172 0.069088 0)
(0.0322436 0.0641723 0)
(0.033222 0.059162 0)
(0.0346844 0.0539537 0)
(0.0366578 0.0484446 0)
(0.0391624 0.0425412 0)
(0.0422011 0.0361757 0)
(0.0457888 0.0291849 0)
(0.0499459 0.0215017 0)
(0.0546707 0.0129982 0)
(0.0599663 0.00359499 0)
(0.0658059 -0.00680061 0)
(0.0146703 0.180871 0)
(0.0261395 0.129961 0)
(0.0264065 0.116784 0)
(0.0269567 0.115087 0)
(0.0273047 0.109228 0)
(0.0274774 0.102562 0)
(0.027291 0.0962883 0)
(0.0268941 0.0903523 0)
(0.0265158 0.0846529 0)
(0.0261961 0.079154 0)
(0.0260734 0.0737961 0)
(0.0262126 0.0684956 0)
(0.026655 0.0631621 0)
(0.0274376 0.0576961 0)
(0.028592 0.0520086 0)
(0.0301508 0.0460147 0)
(0.0321718 0.0396295 0)
(0.0345888 0.0327115 0)
(0.037407 0.0252017 0)
(0.0406788 0.0169466 0)
(0.0443916 0.00786783 0)
(0.0485791 -0.00212397 0)
(0.0532035 -0.0130948 0)
(0.0120846 0.161404 0)
(0.019598 0.123842 0)
(0.0185048 0.117342 0)
(0.0199312 0.114369 0)
(0.0204441 0.108551 0)
(0.0207683 0.102403 0)
(0.0208321 0.0964062 0)
(0.0206216 0.0906369 0)
(0.0203542 0.0849515 0)
(0.020178 0.0793268 0)
(0.020129 0.0737718 0)
(0.0202488 0.0682268 0)
(0.0205724 0.0626186 0)
(0.02114 0.0568259 0)
(0.0219983 0.0507652 0)
(0.0231786 0.0443812 0)