/*--------------------------------*- C++ -*----------------------------------*\
| =========                 |                                                 |
| \\      /  F ield         | OpenFOAM: The Open Source CFD Toolbox           |
|  \\    /   O peration     | Version:  2206                                  |
|   \\  /    A nd           | Website:  www.openfoam.com                      |
|    \\/     M anipulation  |                                                 |
\*---------------------------------------------------------------------------*/
FoamFile
{
    version     2.0;
    format      ascii;
    arch        "LSB;label=32;scalar=64";
    class       surfaceScalarField;
    location    "0.1";
    object      phi;
}
// * * * * * * * * * * * * * * * * * * * * * * * * * * * * * * * * * * * * * //

dimensions      [0 3 -1 0 0 0 0];

oriented        oriented;

internalField   nonuniform List<scalar> 
4432
(
1.38162e-06
-1.38162e-06
2.9358e-06
-1.55416e-06
4.41287e-06
-1.47707e-06
5.84675e-06
-1.43389e-06
7.24538e-06
-1.39864e-06
8.59931e-06
-1.35394e-06
9.89535e-06
-1.29604e-06
1.11182e-05
-1.22285e-06
1.22497e-05
-1.13153e-06
1.32682e-05
-1.0185e-06
1.41476e-05
-8.79301e-07
1.48559e-05
-7.08286e-07
1.53528e-05
-4.96906e-07
1.55843e-05
-2.31527e-07
1.54785e-05
1.05792e-07
1.49508e-05
5.27727e-07
1.39733e-05
9.77543e-07
1.25366e-05
1.43663e-06
1.06516e-05
1.88507e-06
8.36156e-06
2.29008e-06
5.7456e-06
2.61601e-06
2.91384e-06
2.83176e-06
2.91383e-06
1.39175e-06
-2.77336e-06
2.95763e-06
-3.12005e-06
4.44738e-06
-2.96682e-06
5.89411e-06
-2.88063e-06
7.30639e-06
-2.81093e-06
8.67544e-06
-2.723e-06
9.98858e-06
-2.60918e-06
1.12311e-05
-2.46533e-06
1.23855e-05
-2.28592e-06
1.34309e-05
-2.06388e-06
1.43422e-05
-1.79063e-06
1.50899e-05
-1.45596e-06
1.56416e-05
-1.04857e-06
1.59683e-05
-5.58206e-07
1.60441e-05
3.0057e-08
1.58579e-05
7.13883e-07
1.53037e-05
1.53178e-06
1.42715e-05
2.46888e-06
1.26588e-05
3.49782e-06
1.03879e-05
4.56107e-06
7.4402e-06
5.56366e-06
3.89954e-06
6.3724e-06
6.81335e-06
1.40187e-06
-4.17523e-06
2.98309e-06
-4.70126e-06
4.48845e-06
-4.4722e-06
5.95188e-06
-4.34407e-06
7.38315e-06
-4.24221e-06
8.77444e-06
-4.1143e-06
1.0114e-05
-3.94872e-06
1.13881e-05
-3.73944e-06
1.25806e-05
-3.47839e-06
1.36719e-05
-3.15521e-06
1.46386e-05
-2.75728e-06
1.54523e-05
-2.26967e-06
1.6079e-05
-1.67525e-06
1.6476e-05
-9.55176e-07
1.65968e-05
-9.0727e-08
1.63776e-05
9.33081e-07
1.57665e-05
2.14286e-06
1.46905e-05
3.54491e-06
1.30609e-05
5.1275e-06
1.07844e-05
6.83752e-06
7.79648e-06
8.55155e-06
4.12356e-06
1.00453e-05
1.0937e-05
1.41621e-06
-5.59144e-06
3.02024e-06
-6.3053e-06
4.54856e-06
-6.00053e-06
6.03643e-06
-5.83195e-06
7.49557e-06
-5.70135e-06
8.91951e-06
-5.53825e-06
1.02978e-05
-5.327e-06
1.16183e-05
-5.05991e-06
1.28665e-05
-4.72662e-06
1.4025e-05
-4.31371e-06
1.50724e-05
-3.80464e-06
1.59822e-05
-3.17948e-06
1.67216e-05
-2.41463e-06
1.72492e-05
-1.48277e-06
1.75121e-05
-3.53633e-07
1.74436e-05
1.00151e-06
1.69629e-05
2.62353e-06
1.59769e-05
4.53095e-06
1.43727e-05
6.73168e-06
1.20262e-05
9.18396e-06
8.82454e-06
1.17533e-05
4.72976e-06
1.41401e-05
1.56667e-05
1.43471e-06
-7.02615e-06
3.06815e-06
-7.93875e-06
4.62598e-06
-7.55837e-06
6.14506e-06
-7.35105e-06
7.63978e-06
-7.19608e-06
9.10543e-06
-7.00391e-06
1.05332e-05
-6.75481e-06
1.1913e-05
-6.43971e-06
1.32327e-05
-6.04634e-06
1.44776e-05
-5.55859e-06
1.56293e-05
-4.95634e-06
1.66647e-05
-4.21491e-06
1.75543e-05
-3.3042e-06
1.82594e-05
-2.1879e-06
1.87289e-05
-8.23167e-07
1.88967e-05
8.3372e-07
1.86688e-05
2.85148e-06
1.79259e-05
5.27384e-06
1.65045e-05
8.15304e-06
1.42004e-05
1.14881e-05
1.07821e-05
1.51716e-05
6.02566e-06
1.88965e-05
2.16924e-05
1.45644e-06
-8.48259e-06
3.12562e-06
-9.60794e-06
4.71878e-06
-9.15153e-06
6.27498e-06
-8.90724e-06
7.81191e-06
-8.73302e-06
9.32704e-06
-8.51906e-06
1.08136e-05
-8.2414e-06
1.22638e-05
-7.88995e-06
1.36685e-05
-7.45107e-06
1.50164e-05
-6.90651e-06
1.62933e-05
-6.23322e-06
1.74808e-05
-5.40247e-06
1.85551e-05
-4.3785e-06
1.94838e-05
-3.11664e-06
2.02217e-05
-1.56109e-06
2.07071e-05
3.48331e-07
2.08454e-05
2.71318e-06
2.04957e-05
5.62357e-06
1.94438e-05
9.20497e-06
1.73658e-05
1.35661e-05
1.37675e-05
1.87699e-05
8.02037e-06
2.46437e-05
2.97128e-05
1.48239e-06
-9.96498e-06
3.19196e-06
-1.13175e-05
4.82516e-06
-1.07847e-05
6.42378e-06
-1.05059e-05
8.00892e-06
-1.03182e-05
9.58044e-06
-1.00906e-05
1.11339e-05
-9.79488e-06
1.26643e-05
-9.42035e-06
1.41657e-05
-8.95258e-06
1.56312e-05
-8.37197e-06
1.70514e-05
-7.6535e-06
1.84145e-05
-6.76553e-06
1.9704e-05
-5.66803e-06
2.08974e-05
-4.31014e-06
2.19636e-05
-2.62724e-06
2.28483e-05
-5.3642e-07
2.34896e-05
2.07189e-06
2.37319e-05
5.38126e-06
2.33487e-05
9.58817e-06
2.19822e-05
1.49326e-05
1.88851e-05
2.1867e-05
1.3203e-05
3.03258e-05
4.29158e-05
1.51561e-06
-1.14806e-05
3.26428e-06
-1.30662e-05
4.93992e-06
-1.24604e-05
6.58479e-06
-1.21508e-05
8.22242e-06
-1.19558e-05
9.85533e-06
-1.17235e-05
1.14817e-05
-1.14213e-05
1.30995e-05
-1.10382e-05
1.47069e-05
-1.05599e-05
1.63013e-05
-9.96645e-06
1.78799e-05
-9.23211e-06
1.94386e-05
-8.32422e-06
2.09714e-05
-7.20085e-06
2.24685e-05
-5.8073e-06
2.3912e-05
-4.07068e-06
2.52719e-05
-1.89635e-06
2.65352e-05
8.08615e-07
2.75762e-05
4.34027e-06
2.81856e-05
8.97873e-06
2.79011e-05
1.52171e-05
2.53909e-05
2.43773e-05
1.8505e-05
3.72117e-05
6.14208e-05
-2.08781e-05
2.08781e-05
-3.93666e-05
1.8489e-05
-3.56221e-05
-3.7445e-06
-2.44161e-06
-3.31814e-05
2.80545e-05
-3.04948e-05
3.94843e-05
-1.14307e-05
3.89732e-05
5.10665e-07
3.44425e-05
4.53179e-06
2.93936e-05
5.04807e-06
2.47415e-05
4.6522e-06
2.06605e-05
4.08147e-06
1.71096e-05
3.5503e-06
1.39908e-05
3.11986e-06
1.12163e-05
2.77476e-06
8.69162e-06
2.52421e-06
6.36236e-06
2.32986e-06
4.16854e-06
2.19306e-06
2.06156e-06
2.10743e-06
2.06204e-06
-2.35538e-05
4.44316e-05
-4.24301e-05
3.73651e-05
-3.771e-05
-8.46314e-06
-2.43378e-06
-6.84594e-05
3.04443e-05
-6.33716e-05
4.24982e-05
-2.34842e-05
4.20368e-05
9.70445e-07
3.73316e-05
9.23845e-06
3.18601e-05
1.05197e-05
2.67636e-05
9.74874e-06
2.22844e-05
8.56218e-06
1.84048e-05
7.42905e-06
1.50129e-05
6.51232e-06
1.20117e-05
5.7768e-06
9.29669e-06
5.23804e-06
6.79904e-06
4.82854e-06
4.45156e-06
4.54015e-06
2.19909e-06
4.35931e-06
4.26159e-06
-2.36735e-05
6.81051e-05
-4.49285e-05
5.86195e-05
-3.9875e-05
-1.35149e-05
-2.44543e-06
-0.00010589
3.29906e-05
-9.88068e-05
4.44861e-05
-3.49784e-05
4.24372e-05
3.01849e-06
3.69265e-05
1.47503e-05
3.12624e-05
1.61837e-05
2.62102e-05
1.48008e-05
2.18335e-05
1.29407e-05
1.80548e-05
1.12072e-05
1.4747e-05
9.81983e-06
1.18111e-05
8.71342e-06
9.15182e-06
7.89706e-06
6.69887e-06
7.28264e-06
4.38836e-06
6.84998e-06
2.16846e-06
6.57851e-06
6.43062e-06
-2.30754e-05
9.1181e-05
-3.856e-05
7.41031e-05
-2.59025e-05
-2.61705e-05
6.77862e-06
-0.000138574
3.77687e-05
-0.000129796
4.77115e-05
-4.49204e-05
4.36448e-05
7.08421e-06
3.70387e-05
2.13569e-05
3.10285e-05
2.21938e-05
2.59266e-05
1.9902e-05
2.15911e-05
1.72774e-05
1.78623e-05
1.49361e-05
1.46027e-05
1.308e-05
1.17035e-05
1.16129e-05
9.07464e-06
1.05247e-05
6.64573e-06
9.7127e-06
4.3551e-06
9.14045e-06
2.15251e-06
8.78032e-06
8.5838e-06
-1.58733e-05
0.000107055
-7.41212e-06
6.56394e-05
2.25899e-05
-5.61708e-05
3.76602e-05
-0.000153645
5.01887e-05
-0.000142325
5.21775e-05
-4.69088e-05
4.51893e-05
1.40715e-05
3.72376e-05
2.93088e-05
3.08107e-05
2.86214e-05
2.56449e-05
2.50677e-05
2.13445e-05
2.15785e-05
1.76638e-05
1.86161e-05
1.44515e-05
1.62927e-05
1.15899e-05
1.44751e-05
8.99192e-06
1.31214e-05
6.58809e-06
1.21174e-05
4.31883e-06
1.141e-05
2.13483e-06
1.09634e-05
1.07194e-05
2.16908e-07
0.000106839
4.94354e-05
1.64191e-05
9.73946e-05
-0.000104129
9.74759e-05
-0.000153726
7.9973e-05
-0.000124822
6.04164e-05
-2.73512e-05
4.67724e-05
2.77153e-05
3.72442e-05
3.8837e-05
3.04629e-05
3.54031e-05
2.52743e-05
3.02558e-05
2.10321e-05
2.58216e-05
1.74168e-05
2.22308e-05
1.42629e-05
1.94465e-05
1.14483e-05
1.72905e-05
8.88839e-06
1.56805e-05
6.51563e-06
1.44908e-05
4.27297e-06
1.36531e-05
2.11237e-06
1.31231e-05
1.28326e-05
5.69436e-05
4.98962e-05
0.000138657
-6.52943e-05
0.000158463
-0.000123935
0.000142424
-0.000137688
0.000104132
-8.65306e-05
6.91346e-05
7.64743e-06
4.78291e-05
4.90209e-05
3.68474e-05
4.98188e-05
2.99304e-05
4.23205e-05
2.4801e-05
3.53845e-05
2.06498e-05
2.99735e-05
1.712e-05
2.57607e-05
1.40371e-05
2.25291e-05
1.1279e-05
2.00494e-05
8.76445e-06
1.81946e-05
6.42868e-06
1.68268e-05
4.21764e-06
1.58645e-05
2.08521e-06
1.52546e-05
1.49184e-05
0.000141669
-9.17722e-05
0.000178322
-0.000101948
0.000175135
-0.000120748
0.000147419
-0.000109971
0.000107142
-4.62535e-05
6.9725e-05
4.50648e-05
4.70561e-05
7.16892e-05
3.59178e-05
6.09574e-05
2.91887e-05
4.905e-05
2.42201e-05
4.03524e-05
2.01987e-05
3.39951e-05
1.67755e-05
2.91843e-05
1.3776e-05
2.55283e-05
1.10831e-05
2.27426e-05
8.6207e-06
2.0657e-05
6.32746e-06
1.91202e-05
4.15291e-06
1.80396e-05
2.05335e-06
1.73531e-05
1.69721e-05
3.32787e-06
-1.48085e-05
7.18846e-06
-1.69268e-05
1.08876e-05
-1.61595e-05
1.4534e-05
-1.57971e-05
1.81878e-05
-1.56096e-05
2.18609e-05
-1.53966e-05
2.55578e-05
-1.51181e-05
2.92846e-05
-1.4765e-05
3.305e-05
-1.43253e-05
3.68651e-05
-1.37816e-05
4.0745e-05
-1.3112e-05
4.47101e-05
-1.22894e-05
4.87889e-05
-1.12797e-05
5.30219e-05
-1.00403e-05
5.74689e-05
-8.51764e-06
6.22168e-05
-6.64428e-06
6.73623e-05
-4.33684e-06
7.32326e-05
-1.53003e-06
8.02946e-05
1.9167e-06
8.93536e-05
6.15812e-06
0.000102452
1.12785e-05
0.000124281
1.53827e-05
2.58372e-05
0.000159865
3.47895e-06
-1.82874e-05
7.50147e-06
-2.09492e-05
1.13716e-05
-2.00296e-05
1.52087e-05
-1.96342e-05
1.90812e-05
-1.94821e-05
2.30098e-05
-1.93253e-05
2.70095e-05
-1.91177e-05
3.10985e-05
-1.88541e-05
3.53005e-05
-1.85272e-05
3.96451e-05
-1.81261e-05
4.41703e-05
-1.76373e-05
4.8926e-05
-1.70451e-05
5.39787e-05
-1.63324e-05
5.94189e-05
-1.54806e-05
6.53727e-05
-1.44714e-05
7.20185e-05
-1.32901e-05
7.96127e-05
-1.1931e-05
8.84883e-05
-1.04057e-05
9.91481e-05
-8.74306e-06
0.000112332
-7.02597e-06
0.000128815
-5.20409e-06
0.000148534
-4.33618e-06
-5.44237e-07
0.000174915
3.60811e-06
-2.18955e-05
7.73373e-06
-2.50748e-05
1.17176e-05
-2.40135e-05
1.56909e-05
-2.36075e-05
1.97217e-05
-2.35128e-05
2.38344e-05
-2.3438e-05
2.80501e-05
-2.33334e-05
3.23942e-05
-2.31982e-05
3.68977e-05
-2.30307e-05
4.15978e-05
-2.28263e-05
4.65402e-05
-2.25797e-05
5.17808e-05
-2.22858e-05
5.73891e-05
-2.19407e-05
6.3451e-05
-2.15425e-05
7.00729e-05
-2.10933e-05
7.73843e-05
-2.06014e-05
8.55379e-05
-2.00847e-05
9.47069e-05
-1.95747e-05
0.000105083
-1.91193e-05
0.000116869
-1.88114e-05
0.00013036
-1.8696e-05
0.000145253
-1.92285e-05
-1.96723e-05
0.000164381
3.69694e-06
-2.55924e-05
7.84395e-06
-2.92218e-05
1.18655e-05
-2.80351e-05
1.59e-05
-2.76419e-05
2.00064e-05
-2.76192e-05
2.42082e-05
-2.76398e-05
2.85288e-05
-2.7654e-05
3.2996e-05
-2.76653e-05
3.76419e-05
-2.76765e-05
4.25038e-05
-2.76883e-05
4.76255e-05
-2.77013e-05
5.30575e-05
-2.77179e-05
5.88593e-05
-2.77425e-05
6.50994e-05
-2.77826e-05
7.18564e-05
-2.78503e-05
7.92184e-05
-2.79634e-05
8.72817e-05
-2.81479e-05
9.61466e-05
-2.84397e-05
0.000105913
-2.8886e-05
0.000116663
-2.95614e-05
0.000128461
-3.04942e-05
0.000141205
-3.19715e-05
-3.34053e-05
0.000154937
3.731e-06
-2.93234e-05
7.8088e-06
-3.32996e-05
1.17839e-05
-3.20102e-05
1.57943e-05
-3.16523e-05
1.98831e-05
-3.1708e-05
2.40698e-05
-3.18265e-05
2.83773e-05
-3.19614e-05
3.28322e-05
-3.21202e-05
3.74642e-05
-3.23086e-05
4.23066e-05
-3.25307e-05
4.73965e-05
-3.27912e-05
5.27756e-05
-3.30969e-05
5.84899e-05
-3.34568e-05
6.45902e-05
-3.38829e-05
7.11309e-05
-3.43912e-05
7.81695e-05
-3.5002e-05
8.57634e-05
-3.57418e-05
9.39663e-05
-3.66425e-05
0.000102824
-3.77436e-05
0.00011236
-3.90976e-05
0.00012258
-4.07141e-05
0.00013345
-4.28412e-05
-4.4821e-05
0.000144865
3.70077e-06
-3.30241e-05
7.62092e-06
-3.72197e-05
1.14677e-05
-3.5857e-05
1.53692e-05
-3.55539e-05
1.93482e-05
-3.5687e-05
2.34188e-05
-3.5897e-05
2.76019e-05
-3.61445e-05
3.19213e-05
-3.64395e-05
3.64022e-05
-3.67895e-05
4.1072e-05
-3.72006e-05
4.59604e-05
-3.76797e-05
5.10993e-05
-3.82358e-05
5.65226e-05
-3.88801e-05
6.2266e-05
-3.96264e-05
6.83665e-05
-4.04916e-05
7.48608e-05
-4.14962e-05
8.1784e-05
-4.2665e-05
8.91674e-05
-4.4026e-05
9.70372e-05
-4.56134e-05
0.000105406
-4.74661e-05
0.000114284
-4.95925e-05
0.000123653
-5.22102e-05
-5.46144e-05
0.000133447
3.60181e-06
-3.66259e-05
7.28486e-06
-4.09028e-05
1.09301e-05
-3.95022e-05
1.46448e-05
-3.92686e-05
1.84304e-05
-3.94726e-05
2.22957e-05
-3.97623e-05
2.62587e-05
-4.01076e-05
3.03393e-05
-4.05201e-05
3.45576e-05
-4.10078e-05
3.89348e-05
-4.15778e-05
4.3493e-05
-4.22379e-05
4.82552e-05
-4.2998e-05
5.3245e-05
-4.38699e-05
5.84862e-05
-4.48675e-05
6.40022e-05
-4.60076e-05
6.98156e-05
-4.73096e-05
7.59467e-05
-4.87962e-05
8.24133e-05
-5.04926e-05
8.92303e-05
-5.24302e-05
9.64042e-05
-5.46401e-05
0.000103953
-5.71412e-05
0.000111858
-6.01148e-05
-6.29001e-05
0.000120143
3.4357e-06
-4.00616e-05
6.81597e-06
-4.4283e-05
1.01982e-05
-4.28845e-05
1.36592e-05
-4.27295e-05
1.71804e-05
-4.29939e-05
2.07667e-05
-4.33486e-05
2.44329e-05
-4.37737e-05
2.8194e-05
-4.42813e-05
3.20652e-05
-4.48791e-05
3.60615e-05
-4.55741e-05
4.01982e-05
-4.63745e-05
4.44903e-05
-4.72901e-05
4.89526e-05
-4.83322e-05
5.35992e-05
-4.95141e-05
5.84428e-05
-5.08513e-05
6.34947e-05
-5.23614e-05
6.87635e-05
-5.40649e-05
7.4255e-05
-5.59842e-05
7.99724e-05
-5.81476e-05
8.59118e-05
-6.05796e-05
9.2081e-05
-6.33105e-05
9.84419e-05
-6.64757e-05
-6.9529e-05
0.000105071
3.20824e-06
-4.32699e-05
6.23707e-06
-4.73118e-05
9.3092e-06
-4.59566e-05
1.24627e-05
-4.58831e-05
1.56635e-05
-4.61947e-05
1.89137e-05
-4.65987e-05
2.22245e-05
-4.70845e-05
2.56068e-05
-4.76636e-05
2.90706e-05
-4.83429e-05
3.26256e-05
-4.91291e-05
3.62809e-05
-5.00299e-05
4.00451e-05
-5.10543e-05
4.39256e-05
-5.22126e-05
4.79283e-05
-5.35168e-05
5.20575e-05
-5.49804e-05
5.63147e-05
-5.66186e-05
6.06988e-05
-5.8449e-05
6.52047e-05
-6.049e-05
6.98231e-05
-6.27661e-05
7.45367e-05
-6.52931e-05
7.93338e-05
-6.81075e-05
8.41436e-05
-7.12855e-05
-7.44191e-05
8.90337e-05
2.92776e-06
-4.61976e-05
5.57197e-06
-4.99561e-05
8.29991e-06
-4.86846e-05
1.11065e-05
-4.86897e-05
1.39466e-05
-4.90348e-05
1.68206e-05
-4.94727e-05
1.97366e-05
-5.00006e-05
2.27015e-05
-5.06284e-05
2.57207e-05
-5.13621e-05
2.87992e-05
-5.22076e-05
3.19411e-05
-5.31718e-05
3.51495e-05
-5.42626e-05
3.8426e-05
-5.54892e-05
4.17708e-05
-5.68615e-05
4.51814e-05
-5.83909e-05
4.86528e-05
-6.009e-05
5.21765e-05
-6.19727e-05
5.57396e-05
-6.40532e-05
5.93241e-05
-6.63506e-05
6.29029e-05
-6.88719e-05
6.64529e-05
-7.16576e-05
6.98882e-05
-7.47208e-05
-7.77977e-05
7.32668e-05
2.61005e-06
-4.88077e-05
4.8511e-06
-5.21971e-05
7.21248e-06
-5.1046e-05
9.64532e-06
-5.11225e-05
1.20988e-05
-5.14884e-05
1.45723e-05
-5.19462e-05
1.70707e-05
-5.24991e-05
1.95972e-05
-5.3155e-05
2.21539e-05
-5.39188e-05
2.4742e-05
-5.47957e-05
2.73615e-05
-5.57913e-05
3.00114e-05
-5.69125e-05
3.26887e-05
-5.81665e-05
3.53891e-05
-5.95619e-05
3.81058e-05
-6.11077e-05
4.08298e-05
-6.2814e-05
4.35488e-05
-6.46917e-05
4.62473e-05
-6.67517e-05
4.89045e-05
-6.90078e-05
5.14939e-05
-7.14612e-05
5.39868e-05
-7.41506e-05
5.63046e-05
-7.70384e-05
-8.00045e-05
5.85113e-05
2.27413e-06
-5.10818e-05
4.11183e-06
-5.40348e-05
6.09733e-06
-5.30315e-05
8.14135e-06
-5.31665e-05
1.01943e-05
-5.35413e-05
1.22559e-05
-5.40078e-05
1.43282e-05
-5.45714e-05
1.64113e-05
-5.52381e-05
1.8504e-05
-5.60115e-05
2.06043e-05
-5.6896e-05
2.27096e-05
-5.78966e-05
2.48157e-05
-5.90186e-05
2.69172e-05
-6.0268e-05
2.90066e-05
-6.16513e-05
3.10744e-05
-6.31755e-05
3.31089e-05
-6.48485e-05
3.50954e-05
-6.66782e-05
3.70182e-05
-6.86746e-05
3.88566e-05
-7.08462e-05
4.05925e-05
-7.31971e-05
4.21731e-05
-7.57312e-05
4.35434e-05
-7.84087e-05
-8.11732e-05
4.47121e-05
1.91557e-06
-5.29974e-05
3.35744e-06
-5.54766e-05
4.97224e-06
-5.46463e-05
6.63409e-06
-5.48284e-05
8.29549e-06
-5.52027e-05
9.95527e-06
-5.56677e-05
1.16134e-05
-5.62296e-05
1.32678e-05
-5.68925e-05
1.49156e-05
-5.76593e-05
1.65526e-05
-5.85331e-05
1.81736e-05
-5.95176e-05
1.97718e-05
-6.06168e-05
2.1339e-05
-6.18352e-05
2.28651e-05
-6.31774e-05
2.43375e-05
-6.46479e-05
2.5741e-05
-6.6252e-05
2.70572e-05
-6.79943e-05
2.8266e-05
-6.98834e-05
2.93425e-05
-7.19228e-05
3.02638e-05
-7.41183e-05
3.09062e-05
-7.63736e-05
3.12772e-05
-7.87797e-05
-8.11505e-05
3.12546e-05
1.58916e-06
-5.45865e-05
2.64206e-06
-5.65295e-05
3.88952e-06
-5.58937e-05
5.17401e-06
-5.61129e-05
6.45384e-06
-5.64826e-05
7.72752e-06
-5.69414e-05
8.99078e-06
-5.74929e-05
1.02385e-05
-5.81402e-05
1.14656e-05
-5.88865e-05
1.26666e-05
-5.97341e-05
1.38345e-05
-6.06855e-05
1.49605e-05
-6.17429e-05
1.60338e-05
-6.29085e-05
1.70407e-05
-6.41844e-05
1.79643e-05
-6.55714e-05
1.87834e-05
-6.70711e-05
1.94732e-05
-6.86841e-05
2.00044e-05
-7.04146e-05
2.03499e-05
-7.22681e-05
2.04548e-05
-7.42232e-05
2.01543e-05
-7.6073e-05
1.95305e-05
-7.8156e-05
-8.0152e-05
1.8532e-05
1.23766e-06
-5.58242e-05
1.87747e-06
-5.71693e-05
2.76332e-06
-5.67796e-05
3.67296e-06
-5.70225e-05
4.56855e-06
-5.73782e-05
5.45035e-06
-5.78232e-05
6.31213e-06
-5.83547e-05
7.14731e-06
-5.89754e-05
7.95005e-06
-5.96892e-05
8.71397e-06
-6.0498e-05
9.43152e-06
-6.1403e-05
1.00937e-05
-6.24051e-05
1.06901e-05
-6.35048e-05
1.12079e-05
-6.47022e-05
1.16304e-05
-6.5994e-05
1.19363e-05
-6.7377e-05
1.21042e-05
-6.8852e-05
1.21089e-05
-7.04193e-05
1.19537e-05
-7.21128e-05
1.15826e-05
-7.38522e-05
1.10911e-05
-7.55814e-05
1.06231e-05
-7.7688e-05
-8.07029e-05
1.11739e-05
8.15193e-07
-5.66394e-05
1.01321e-06
-5.73673e-05
1.50756e-06
-5.72739e-05
2.00543e-06
-5.75203e-05
2.47931e-06
-5.78521e-05
2.92952e-06
-5.82733e-05
3.35695e-06
-5.87821e-05
3.75171e-06
-5.93702e-05
4.10739e-06
-6.00449e-05
4.41889e-06
-6.08096e-05
4.67961e-06
-6.16638e-05
4.8815e-06
-6.26069e-05
5.01499e-06
-6.36383e-05
5.0723e-06
-6.47595e-05
5.0474e-06
-6.59691e-05
4.94081e-06
-6.72704e-05
4.75003e-06
-6.86612e-05
4.4961e-06
-7.01654e-05
4.32444e-06
-7.19411e-05
4.33305e-06
-7.38608e-05
5.66884e-06
-7.69173e-05
8.71202e-06
-8.07311e-05
-8.98244e-05
1.78335e-05
2.93652e-07
-5.6933e-05
-2.98623e-08
-5.70437e-05
3.54021e-08
-5.73391e-05
4.11633e-08
-5.75262e-05
1.95967e-08
-5.78305e-05
-5.59966e-08
-5.81978e-05
-1.53165e-07
-5.86849e-05
-2.8742e-07
-5.9236e-05
-4.70802e-07
-5.98616e-05
-7.05478e-07
-6.05749e-05
-9.95181e-07
-6.13741e-05
-1.34582e-06
-6.22563e-05
-1.76866e-06
-6.32154e-05
-2.27117e-06
-6.4257e-05
-2.82391e-06
-6.54163e-05
-3.37916e-06
-6.67151e-05
-3.88258e-06
-6.81577e-05
-4.11551e-06
-6.99322e-05
-3.43685e-06
-7.26199e-05
-7.06821e-07
-7.65905e-05
6.08594e-06
-8.37102e-05
1.79201e-05
-9.25651e-05
-9.97513e-05
2.78471e-05
-6.19875e-07
-5.63131e-05
-1.66846e-06
-5.59947e-05
-2.18104e-06
-5.68264e-05
-2.97258e-06
-5.67348e-05
-3.77721e-06
-5.70256e-05
-4.70963e-06
-5.72657e-05
-5.72164e-06
-5.76726e-05
-6.72749e-06
-5.82301e-05
-7.76663e-06
-5.88227e-05
-8.80759e-06
-5.95339e-05
-9.78187e-06
-6.03995e-05
-1.05683e-05
-6.14699e-05
-1.09948e-05
-6.2789e-05
-1.09187e-05
-6.43329e-05
-1.04952e-05
-6.58392e-05
-9.64196e-06
-6.75678e-05
-8.25361e-06
-6.95463e-05
-5.85776e-06
-7.23285e-05
-1.61717e-06
-7.68606e-05
6.50366e-06
-8.47116e-05
2.02e-05
-9.74064e-05
3.48106e-05
-0.000107176
-0.00010818
4.32388e-05
-1.22091e-06
-5.50914e-05
-1.48041e-06
-5.57374e-05
-2.23161e-06
-5.6076e-05
-2.93641e-06
-5.60281e-05
-3.77084e-06
-5.61937e-05
-4.69629e-06
-5.6339e-05
-5.57106e-06
-5.67984e-05
-6.4879e-06
-5.73132e-05
-7.3899e-06
-5.79205e-05
-8.27344e-06
-5.86501e-05
-9.14223e-06
-5.95295e-05
-1.00255e-05
-6.05853e-05
-1.09745e-05
-6.18397e-05
-1.19969e-05
-6.33111e-05
-1.27864e-05
-6.505e-05
-1.32042e-05
-6.71498e-05
-1.30098e-05
-6.97402e-05
-1.21366e-05
-7.32019e-05
-1.04229e-05
-7.85741e-05
-7.58625e-06
-8.75477e-05
-5.51743e-06
-9.94741e-05
-4.61649e-06
-0.000108076
-0.000104981
-7.81464e-06
-1.74727e-06
-5.33449e-05
-2.71424e-06
-5.47693e-05
-4.18321e-06
-5.46078e-05
-5.62075e-06
-5.45919e-05
-7.13124e-06
-5.46829e-05
-8.59987e-06
-5.48704e-05
-1.02268e-05
-5.51731e-05
-1.19447e-05
-5.55947e-05
-1.37267e-05
-5.61371e-05
-1.55824e-05
-5.67948e-05
-1.75392e-05
-5.75734e-05
-1.96375e-05
-5.84858e-05
-2.19244e-05
-5.95507e-05
-2.44396e-05
-6.0795e-05
-2.723e-05
-6.226e-05
-3.04083e-05
-6.3972e-05
-3.41807e-05
-6.59677e-05
-3.8876e-05
-6.85066e-05
-4.49562e-05
-7.24937e-05
-5.34154e-05
-7.90887e-05
-6.49583e-05
-8.79318e-05
-7.72714e-05
-9.5763e-05
-9.66725e-05
-8.558e-05
-2.45209e-06
-5.08925e-05
-4.54228e-06
-5.26791e-05
-6.608e-06
-5.2542e-05
-8.63167e-06
-5.25697e-05
-1.0646e-05
-5.26665e-05
-1.26838e-05
-5.2835e-05
-1.48005e-05
-5.3057e-05
-1.70372e-05
-5.33575e-05
-1.94312e-05
-5.37424e-05
-2.20093e-05
-5.42164e-05
-2.48039e-05
-5.47794e-05
-2.78624e-05
-5.54284e-05
-3.1253e-05
-5.61606e-05
-3.50696e-05
-5.69779e-05
-3.94476e-05
-5.78813e-05
-4.45718e-05
-5.88475e-05
-5.06764e-05
-5.98628e-05
-5.81073e-05
-6.10747e-05
-6.76835e-05
-6.29165e-05
-8.07007e-05
-6.60701e-05
-9.77539e-05
-7.08777e-05
-0.000117712
-7.58048e-05
-7.71653e-05
-0.000137219
-2.56783e-06
-4.83255e-05
-5.12583e-06
-5.0121e-05
-7.56724e-06
-5.01002e-05
-1.00163e-05
-5.0121e-05
-1.25038e-05
-5.01797e-05
-1.5038e-05
-5.03016e-05
-1.76224e-05
-5.04728e-05
-2.03005e-05
-5.06803e-05
-2.31216e-05
-5.09224e-05
-2.61363e-05
-5.12016e-05
-2.93945e-05
-5.15201e-05
-3.29455e-05
-5.18769e-05
-3.68417e-05
-5.22652e-05
-4.11475e-05
-5.26728e-05
-4.59515e-05
-5.30772e-05
-5.13559e-05
-5.34427e-05
-5.74761e-05
-5.37423e-05
-6.45586e-05
-5.39917e-05
-7.31654e-05
-5.43097e-05
-8.42083e-05
-5.50274e-05
-9.86494e-05
-5.64365e-05
-0.000116439
-5.80154e-05
-5.80242e-05
-0.00013558
-2.58173e-06
-4.57439e-05
-5.22734e-06
-4.74742e-05
-7.82555e-06
-4.75029e-05
-1.04199e-05
-4.7526e-05
-1.30535e-05
-4.75489e-05
-1.57654e-05
-4.75872e-05
-1.85862e-05
-4.76516e-05
-2.1529e-05
-4.77386e-05
-2.46112e-05
-4.78408e-05
-2.78625e-05
-4.79506e-05
-3.13228e-05
-4.806e-05
-3.5039e-05
-4.81604e-05
-3.90627e-05
-4.82414e-05
-4.34486e-05
-4.82871e-05
-4.82514e-05
-4.82746e-05
-5.35189e-05
-4.81752e-05
-5.93036e-05
-4.79571e-05
-6.57099e-05
-4.75852e-05
-7.29464e-05
-4.70728e-05
-8.13668e-05
-4.66074e-05
-9.13809e-05
-4.64227e-05
-0.000103137
-4.626e-05
-4.50511e-05
-0.00011611
-2.57662e-06
-4.31678e-05
-5.26866e-06
-4.47821e-05
-7.98245e-06
-4.47906e-05
-1.07114e-05
-4.47988e-05
-1.34465e-05
-4.48145e-05
-1.6222e-05
-4.48124e-05
-1.90815e-05
-4.47931e-05
-2.20575e-05
-4.47633e-05
-2.51745e-05
-4.47235e-05
-2.84549e-05
-4.46694e-05
-3.19227e-05
-4.45921e-05
-3.56037e-05
-4.44797e-05
-3.95261e-05
-4.43187e-05
-4.372e-05
-4.40923e-05
-4.82156e-05
-4.37785e-05
-5.30418e-05
-4.33489e-05
-5.82263e-05
-4.27723e-05
-6.37917e-05
-4.20197e-05
-6.97649e-05
-4.10993e-05
-7.62541e-05
-4.0118e-05
-8.34777e-05
-3.91987e-05
-9.1555e-05
-3.81824e-05
-3.64427e-05
-0.000100163
-2.54506e-06
-4.06237e-05
-5.16226e-06
-4.21647e-05
-7.80669e-06
-4.21447e-05
-1.04992e-05
-4.21068e-05
-1.32512e-05
-4.20588e-05
-1.60663e-05
-4.19986e-05
-1.8942e-05
-4.19167e-05
-2.18947e-05
-4.18088e-05
-2.49475e-05
-4.16705e-05
-2.81215e-05
-4.14962e-05
-3.14352e-05
-4.12791e-05
-3.49061e-05
-4.10093e-05
-3.85514e-05
-4.06739e-05
-4.23875e-05
-4.02569e-05
-4.64265e-05
-3.97401e-05
-5.06726e-05
-3.91034e-05
-5.51229e-05
-3.83229e-05
-5.97734e-05
-3.73699e-05
-6.46404e-05
-3.62327e-05
-6.97917e-05
-3.49671e-05
-7.53139e-05
-3.36763e-05
-8.11739e-05
-3.23222e-05
-3.0519e-05
-8.70973e-05
-2.52291e-06
-3.8102e-05
-5.12441e-06
-3.95642e-05
-7.72296e-06
-3.95459e-05
-1.03248e-05
-3.95047e-05
-1.29668e-05
-3.94178e-05
-1.56659e-05
-3.93005e-05
-1.84274e-05
-3.91555e-05
-2.1257e-05
-3.89776e-05
-2.41648e-05
-3.87614e-05
-2.71618e-05
-3.84995e-05
-3.02584e-05
-3.81831e-05
-3.34645e-05
-3.78032e-05
-3.67875e-05
-3.73507e-05
-4.02307e-05
-3.68142e-05
-4.3792e-05
-3.61795e-05
-4.74649e-05
-3.54307e-05
-5.12376e-05
-3.45503e-05
-5.50892e-05
-3.35184e-05
-5.90006e-05
-3.23212e-05
-6.29872e-05
-3.09804e-05
-6.71002e-05
-2.95628e-05
-7.13371e-05
-2.8085e-05
-2.63326e-05
-7.55236e-05
-2.3681e-06
-3.57328e-05
-4.84801e-06
-3.70845e-05
-7.34683e-06
-3.70471e-05
-9.87246e-06
-3.69766e-05
-1.24184e-05
-3.68736e-05
-1.4984e-05
-3.67316e-05
-1.75892e-05
-3.65496e-05
-2.02451e-05
-3.63236e-05
-2.29569e-05
-3.60502e-05
-2.57295e-05
-3.57258e-05
-2.85669e-05
-3.53445e-05
-3.14715e-05
-3.48983e-05
-3.44434e-05
-3.4379e-05
-3.74806e-05
-3.37773e-05
-4.05776e-05
-3.30827e-05
-4.37244e-05
-3.22838e-05
-4.69061e-05
-3.13685e-05
-5.01004e-05
-3.03238e-05
-5.32833e-05
-2.91382e-05
-5.64448e-05
-2.78191e-05
-5.95977e-05
-2.64099e-05
-6.27372e-05
-2.49458e-05
-2.33116e-05
-6.57583e-05
-2.27002e-06
-3.34619e-05
-4.60847e-06
-3.4746e-05
-6.94774e-06
-3.47075e-05
-9.30908e-06
-3.46151e-05
-1.16907e-05
-3.44918e-05
-1.4092e-05
-3.43295e-05
-1.65182e-05
-3.4122e-05
-1.89749e-05
-3.38672e-05
-2.14654e-05
-3.35611e-05
-2.39917e-05
-3.32001e-05
-2.65554e-05
-3.27803e-05
-2.91566e-05
-3.22965e-05
-3.17931e-05
-3.17426e-05
-3.44594e-05
-3.11116e-05
-3.71466e-05
-3.03957e-05
-3.98429e-05
-2.95873e-05
-4.25322e-05
-2.8679e-05
-4.51926e-05
-2.76631e-05
-4.77993e-05
-2.65317e-05
-5.03336e-05
-2.52853e-05
-5.27947e-05
-2.39492e-05
-5.51836e-05
-2.25571e-05
-2.10533e-05
-5.74419e-05
-2.13077e-06
-3.1331e-05
-4.31287e-06
-3.25635e-05
-6.50144e-06
-3.25189e-05
-8.68487e-06
-3.24326e-05
-1.08725e-05
-3.22998e-05
-1.30819e-05
-3.21215e-05
-1.53096e-05
-3.18949e-05
-1.75549e-05
-3.16198e-05
-1.98194e-05
-3.12946e-05
-2.21028e-05
-3.09159e-05
-2.44035e-05
-3.04795e-05
-2.67184e-05
-2.99814e-05
-2.9043e-05
-2.94174e-05
-3.13708e-05
-2.8783e-05
-3.36929e-05
-2.80727e-05
-3.59981e-05
-2.72817e-05
-3.82722e-05
-2.64052e-05
-4.04967e-05
-2.5439e-05
-4.26507e-05
-2.43784e-05
-4.47148e-05
-2.32221e-05
-4.66814e-05
-2.19832e-05
-4.8551e-05
-2.06877e-05
-1.93126e-05
-5.02916e-05
-1.94661e-06
-2.93842e-05
-3.94678e-06
-3.05606e-05
-5.95297e-06
-3.05121e-05
-7.96261e-06
-3.04236e-05
-9.97661e-06
-3.0286e-05
-1.19983e-05
-3.00999e-05
-1.40271e-05
-2.98665e-05
-1.6062e-05
-2.95846e-05
-1.81026e-05
-2.92532e-05
-2.01479e-05
-2.88704e-05
-2.21952e-05
-2.8433e-05
-2.42401e-05
-2.79374e-05
-2.62774e-05
-2.73804e-05
-2.83011e-05
-2.6759e-05
-3.03034e-05
-2.60699e-05
-3.22752e-05
-2.531e-05
-3.42045e-05
-2.44767e-05
-3.60765e-05
-2.35679e-05
-3.78745e-05
-2.25813e-05
-3.95819e-05
-2.15155e-05
-4.1189e-05
-2.03768e-05
-4.26943e-05
-1.9183e-05
-1.79299e-05
-4.40776e-05
-1.76557e-06
-2.76191e-05
-3.59019e-06
-2.87357e-05
-5.40438e-06
-2.86965e-05
-7.22407e-06
-2.86009e-05
-9.0525e-06
-2.846e-05
-1.08774e-05
-2.82728e-05
-1.27017e-05
-2.80408e-05
-1.45254e-05
-2.77617e-05
-1.63456e-05
-2.74338e-05
-1.816e-05
-2.70555e-05
-1.9967e-05
-2.66253e-05
-2.17633e-05
-2.61409e-05
-2.35443e-05
-2.55999e-05
-2.5304e-05
-2.5e-05
-2.70355e-05
-2.43394e-05
-2.87303e-05
-2.36163e-05
-3.03786e-05
-2.28297e-05
-3.19683e-05
-2.19789e-05
-3.34863e-05
-2.10637e-05
-3.49186e-05
-2.00833e-05
-3.62556e-05
-1.90399e-05
-3.74949e-05
-1.79443e-05
-1.68019e-05
-3.86238e-05
-1.57795e-06
-2.604e-05
-3.21287e-06
-2.71011e-05
-4.84713e-06
-2.70624e-05
-6.4811e-06
-2.6967e-05
-8.11366e-06
-2.68277e-05
-9.74116e-06
-2.6645e-05
-1.13647e-05
-2.64172e-05
-1.29837e-05
-2.61437e-05
-1.45957e-05
-2.5823e-05
-1.6198e-05
-2.54539e-05
-1.7788e-05
-2.50352e-05
-1.93631e-05
-2.45656e-05
-2.0919e-05
-2.40439e-05
-2.24503e-05
-2.3469e-05
-2.39504e-05
-2.28399e-05
-2.5412e-05
-2.21558e-05
-2.68264e-05
-2.14164e-05
-2.8184e-05
-2.06221e-05
-2.94746e-05
-1.97737e-05
-3.06868e-05
-1.88715e-05
-3.18119e-05
-1.79154e-05
-3.28467e-05
-1.69105e-05
-1.58654e-05
-3.37842e-05
-1.39853e-06
-2.4641e-05
-2.84246e-06
-2.56567e-05
-4.29362e-06
-2.56106e-05
-5.74308e-06
-2.55181e-05
-7.18397e-06
-2.53832e-05
-8.62381e-06
-2.52057e-05
-1.00589e-05
-2.49834e-05
-1.14862e-05
-2.47161e-05
-1.29049e-05
-2.44038e-05
-1.43133e-05
-2.40459e-05
-1.57081e-05
-2.36414e-05
-1.70855e-05
-2.31893e-05
-1.84412e-05
-2.26892e-05
-1.97702e-05
-2.21407e-05
-2.10667e-05
-2.15436e-05
-2.23244e-05
-2.0898e-05
-2.35366e-05
-2.02041e-05
-2.4696e-05
-1.94627e-05
-2.57949e-05
-1.8675e-05
-2.68251e-05
-1.78419e-05
-2.77786e-05
-1.69629e-05
-2.86508e-05
-1.60399e-05
-1.5081e-05
-2.94365e-05
-1.22298e-06
-2.34178e-05
-2.49058e-06
-2.43893e-05
-3.75897e-06
-2.43435e-05
-5.02519e-06
-2.42522e-05
-6.28775e-06
-2.412e-05
-7.54952e-06
-2.3945e-05
-8.80611e-06
-2.37274e-05
-1.00544e-05
-2.34669e-05
-1.12932e-05
-2.31637e-05
-1.25207e-05
-2.28178e-05
-1.37339e-05
-2.24285e-05
-1.4929e-05
-2.19952e-05
-1.61019e-05
-2.15178e-05
-1.72479e-05
-2.09961e-05
-1.83621e-05
-2.04303e-05
-1.94394e-05
-1.9821e-05
-2.04744e-05
-1.91688e-05
-2.14619e-05
-1.84747e-05
-2.23964e-05
-1.77402e-05
-2.32722e-05
-1.69663e-05
-2.40829e-05
-1.61531e-05
-2.48219e-05
-1.5302e-05
-1.44215e-05
-2.54822e-05
-1.04619e-06
-2.23713e-05
-2.14371e-06
-2.32908e-05
-3.23797e-06
-2.32491e-05
-4.33166e-06
-2.31579e-05
-5.42806e-06
-2.30257e-05
-6.52012e-06
-2.28527e-05
-7.60646e-06
-2.26399e-05
-8.68639e-06
-2.23871e-05
-9.75736e-06
-2.20938e-05
-1.08161e-05
-2.17598e-05
-1.18595e-05
-2.13851e-05
-1.28846e-05
-2.09697e-05
-1.38884e-05
-2.05136e-05
-1.48672e-05
-2.00171e-05
-1.58171e-05
-1.94805e-05
-1.67338e-05
-1.89045e-05
-1.76131e-05
-1.82897e-05
-1.84507e-05
-1.76375e-05
-1.92425e-05
-1.6949e-05
-1.99841e-05
-1.62254e-05
-2.06705e-05
-1.54674e-05
-2.12953e-05
-1.46778e-05
-1.3868e-05
-2.18489e-05
-8.79157e-07
-2.14927e-05
-1.81e-06
-2.23599e-05
-2.74173e-06
-2.23156e-05
-3.67604e-06
-2.22225e-05
-4.61229e-06
-2.209e-05
-5.54335e-06
-2.19199e-05
-6.46901e-06
-2.17123e-05
-7.38906e-06
-2.1467e-05
-8.30084e-06
-2.11833e-05
-9.2009e-06
-2.08611e-05
-1.00863e-05
-2.05003e-05
-1.09546e-05
-2.01013e-05
-1.18033e-05
-1.96645e-05
-1.26295e-05
-1.91905e-05
-1.34303e-05
-1.86797e-05
-1.4202e-05
-1.81329e-05
-1.49413e-05
-1.7551e-05
-1.56446e-05
-1.69351e-05
-1.63081e-05
-1.62863e-05
-1.69284e-05
-1.5606e-05
-1.75013e-05
-1.48949e-05
-1.80222e-05
-1.4157e-05
-1.34073e-05
-1.84827e-05
-7.33259e-07
-2.07595e-05
-1.50679e-06
-2.15874e-05
-2.28675e-06
-2.15363e-05
-3.06969e-06
-2.14399e-05
-3.85084e-06
-2.1308e-05
-4.62946e-06