/*--------------------------------*- C++ -*----------------------------------*\
| =========                 |                                                 |
| \\      /  F ield         | OpenFOAM: The Open Source CFD Toolbox           |
|  \\    /   O peration     | Version:  2206                                  |
|   \\  /    A nd           | Website:  www.openfoam.com                      |
|    \\/     M anipulation  |                                                 |
\*---------------------------------------------------------------------------*/
FoamFile
{
    version     2.0;
    format      ascii;
    arch        "LSB;label=32;scalar=64";
    class       surfaceScalarField;
    location    "0.775";
    object      alphaPhi0.water;
}
// * * * * * * * * * * * * * * * * * * * * * * * * * * * * * * * * * * * * * //

dimensions      [0 3 -1 0 0 0 0];

oriented        oriented;

internalField   nonuniform List<scalar> 
4432
(
-4.81005e-06
4.81005e-06
-1.00838e-05
5.2738e-06
-1.48298e-05
4.74598e-06
-1.9146e-05
4.31614e-06
-2.20938e-05
2.94779e-06
-2.21649e-05
7.10974e-08
-1.99612e-05
-2.20369e-06
-1.75644e-05
-2.3968e-06
-1.62364e-05
-1.32793e-06
-1.59539e-05
-2.8252e-07
-1.64405e-05
4.86586e-07
-1.75114e-05
1.07089e-06
-1.89968e-05
1.48537e-06
-2.04911e-05
1.49437e-06
-2.11908e-05
7.00308e-07
-2.10565e-05
3.78003e-07
-2.34454e-05
3.08093e-06
-3.0581e-05
5.70761e-06
-3.33749e-05
2.80804e-06
-2.87942e-05
-4.55659e-06
-1.91016e-05
-9.61449e-06
-7.75192e-06
-1.13127e-05
-7.76187e-06
-7.12635e-06
1.19364e-05
-1.31467e-05
1.12942e-05
-1.78203e-05
9.41956e-06
-2.15708e-05
8.0666e-06
-2.35764e-05
4.95336e-06
-2.31119e-05
-3.93382e-07
-2.06088e-05
-4.70673e-06
-1.78476e-05
-5.15806e-06
-1.63049e-05
-2.87062e-06
-1.59917e-05
-5.95709e-07
-1.64243e-05
9.19228e-07
-1.73374e-05
1.98395e-06
-1.86837e-05
2.83164e-06
-2.06069e-05
3.41763e-06
-2.35219e-05
3.61693e-06
-2.62411e-05
4.4038e-06
-2.9879e-05
6.61118e-06
-3.04937e-05
6.2237e-06
-2.62716e-05
-1.6621e-06
-1.93445e-05
-1.13226e-05
-1.21795e-05
-1.66253e-05
-4.63765e-06
-1.92265e-05
-1.24006e-05
-6.67345e-06
1.86099e-05
-1.21044e-05
1.67251e-05
-1.6717e-05
1.40322e-05
-2.09967e-05
1.23462e-05
-2.38596e-05
7.81631e-06
-2.37545e-05
-4.98536e-07
-2.13398e-05
-7.12139e-06
-1.85307e-05
-7.96722e-06
-1.68031e-05
-4.59821e-06
-1.6261e-05
-1.13777e-06
-1.63129e-05
9.71161e-07
-1.65111e-05
2.18213e-06
-1.67311e-05
3.05165e-06
-1.72312e-05
3.91767e-06
-1.86114e-05
4.99737e-06
-2.05276e-05
6.68218e-06
-2.05412e-05
7.83412e-06
-1.83135e-05
3.88926e-06
-1.36999e-05
-6.37429e-06
-8.94003e-06
-1.61942e-05
-4.85164e-06
-2.16848e-05
-6.19828e-07
-2.37281e-05
-1.30212e-05
-5.48013e-06
2.409e-05
-1.03456e-05
2.15906e-05
-1.48474e-05
1.8534e-05
-1.90455e-05
1.65443e-05
-2.18401e-05
1.06109e-05
-2.21864e-05
-1.5222e-07
-2.0594e-05
-8.71376e-06
-1.87315e-05
-9.82972e-06
-1.74622e-05
-5.86752e-06
-1.70034e-05
-1.5966e-06
-1.70801e-05
1.04789e-06
-1.71891e-05
2.29104e-06
-1.70061e-05
2.86871e-06
-1.64542e-05
3.3658e-06
-1.56677e-05
4.21079e-06
-1.44557e-05
5.47031e-06
-1.18704e-05
5.38801e-06
-8.20707e-06
4.60203e-07
-5.04484e-06
-9.78311e-06
-2.78889e-06
-1.90442e-05
-7.45327e-07
-2.39862e-05
1.84767e-06
-2.63227e-05
-1.11759e-05
-3.93555e-06
2.80255e-05
-7.91238e-06
2.55674e-05
-1.15994e-05
2.2221e-05
-1.47328e-05
1.96777e-05
-1.67046e-05
1.25828e-05
-1.7452e-05
5.95176e-07
-1.75361e-05
-8.6297e-06
-1.77682e-05
-9.59758e-06
-1.79028e-05
-5.73298e-06
-1.78941e-05
-1.60527e-06
-1.8029e-05
1.18281e-06
-1.81401e-05
2.40209e-06
-1.79409e-05
2.66955e-06
-1.72132e-05
2.63813e-06
-1.57077e-05
2.7053e-06
-1.30318e-05
2.79434e-06
-9.17738e-06
1.53361e-06
-5.44548e-06
-3.27169e-06
-3.56166e-06
-1.16669e-05
-2.56959e-06
-2.00362e-05
-7.30081e-07
-2.58257e-05
2.1143e-06
-2.91673e-05
-9.06189e-06
-1.92975e-06
2.99553e-05
-4.44358e-06
2.80812e-05
-6.84663e-06
2.4624e-05
-8.54624e-06
2.13773e-05
-9.47344e-06
1.351e-05
-1.06276e-05
1.74938e-06
-1.2919e-05
-6.33835e-06
-1.5897e-05
-6.61956e-06
-1.79797e-05
-3.65034e-06
-1.87771e-05
-8.07785e-07
-1.90385e-05
1.44421e-06
-1.90688e-05
2.43233e-06
-1.87766e-05
2.37735e-06
-1.80509e-05
1.91242e-06
-1.66832e-05
1.33765e-06
-1.43037e-05
4.14765e-07
-1.10009e-05
-1.76916e-06
-7.92165e-06
-6.35093e-06
-6.34385e-06
-1.32447e-05
-5.45015e-06
-2.09299e-05
-3.11278e-06
-2.81631e-05
-3.51838e-07
-3.19281e-05
-9.41369e-06
1.24421e-07
2.98309e-05
-6.47742e-07
2.88534e-05
-1.483e-06
2.54593e-05
-1.55922e-06
2.14536e-05
-1.30655e-06
1.32573e-05
-3.22218e-06
3.66503e-06
-8.60218e-06
-9.58337e-07
-1.42386e-05
-9.83162e-07
-1.79701e-05
8.11398e-08
-1.96431e-05
8.65261e-07
-2.01109e-05
1.91197e-06
-2.00054e-05
2.32683e-06
-1.95038e-05
1.87576e-06
-1.86384e-05
1.04704e-06
-1.73459e-05
4.51331e-08
-1.5374e-05
-1.55714e-06
-1.27783e-05
-4.36483e-06
-1.0322e-05
-8.80725e-06
-8.83092e-06
-1.47358e-05
-8.08804e-06
-2.16728e-05
-7.05145e-06
-2.91997e-05
-5.69017e-06
-3.32893e-05
-1.5104e-05
2.21661e-06
2.76143e-05
4.0762e-06
2.69938e-05
6.37558e-06
2.31599e-05
8.44191e-06
1.93872e-05
7.60826e-06
1.4091e-05
1.80686e-06
9.46643e-06
-6.91478e-06
7.60149e-06
-1.38919e-05
5.994e-06
-1.79756e-05
4.16482e-06
-2.01685e-05
3.05812e-06
-2.10457e-05
2.78913e-06
-2.10254e-05
2.30654e-06
-2.0394e-05
1.2444e-06
-1.93393e-05
-7.66522e-09
-1.79672e-05
-1.32692e-06
-1.6134e-05
-3.39039e-06
-1.3842e-05
-6.65686e-06
-1.1564e-05
-1.10852e-05
-1.00679e-05
-1.6232e-05
-9.88186e-06
-2.18588e-05
-1.1355e-05
-2.77265e-05
-1.22223e-05
-3.24221e-05
-2.73262e-05
1.29444e-05
-1.37286e-05
1.98287e-06
7.08206e-06
-3.38303e-05
2.83458e-05
-8.2699e-05
5.32368e-05
-9.30132e-05
1.79313e-05
-6.15348e-05
-1.80418e-05
-2.98506e-05
-2.84093e-05
-1.1469e-05
-2.38302e-05
-4.80079e-06
-7.45647e-06
-9.68791e-06
3.55446e-06
-1.81225e-05
8.16786e-06
-2.30196e-05
4.89715e-06
-2.71643e-05
4.14481e-06
-4.29151e-05
1.57508e-05
-5.46585e-05
1.17428e-05
-5.36204e-05
-1.04351e-06
-4.46816e-05
-8.97925e-06
-2.41425e-05
-2.04822e-05
-2.37069e-05
-7.54866e-08
-1.23444e-05
-2.72919e-05
3.04226e-05
-7.81856e-05
7.68749e-05
-7.52409e-05
5.8998e-05
-4.86031e-05
-5.85651e-06
-1.94324e-05
-5.50198e-05
4.90887e-06
-7.1327e-05
2.19883e-05
-4.26597e-05
3.4325e-05
-2.89236e-05
4.00208e-05
-5.38018e-06
3.32101e-05
1.07103e-05
1.17623e-05
2.74452e-05
-2.88782e-05
3.89384e-05
-4.95486e-05
3.64205e-05
-4.71033e-05
9.80797e-06
-3.88113e-05
-1.8871e-06
-3.48289e-05
-5.23651e-06
-2.28938e-05
-1.78445e-05
-2.611e-05
-1.39844e-05
3.32446e-06
-5.62047e-05
6.92277e-05
-8.1826e-05
0.000102893
-4.14087e-05
3.6248e-05
-2.58682e-05
-2.59065e-05
-1.07705e-05
-0.000106721
5.64005e-06
-8.76384e-05
2.06122e-05
-5.75471e-05
3.30719e-05
-3.67791e-05
4.48032e-05
-1.6991e-05
5.41108e-05
2.44832e-06
4.55994e-05
3.25784e-05
3.27109e-05
4.50488e-05
1.5381e-05
3.13194e-05
-1.39127e-06
1.68726e-05
-7.99226e-06
4.67371e-06
-9.17724e-06
-4.14742e-06
-6.50139e-06
-2.05605e-05
-2.58406e-05
-3.17046e-05
3.67464e-05
-7.05126e-05
0.000110404
-4.10388e-05
7.37369e-05
-2.26791e-05
8.50334e-06
-2.11245e-05
-3.18028e-05
-7.15048e-06
-0.000120625
3.41909e-06
-9.81231e-05
1.51911e-05
-6.92093e-05
2.70593e-05
-4.85288e-05
3.80137e-05
-2.78314e-05
4.88047e-05
-8.22712e-06
6.11033e-05
1.88624e-05
5.9491e-05
4.4714e-05
3.29093e-05
4.06552e-05
2.22593e-05
2.72618e-05
1.16358e-05
1.52008e-05
4.3912e-06
3.00457e-06
1.18435e-06
-1.75327e-05
-2.49395e-05
-3.75867e-05
7.60486e-05
-5.14077e-05
0.000126001
-2.55987e-05
5.94553e-05
-2.00032e-05
-6.47525e-06
-1.26665e-05
-8.66086e-05
-6.82499e-06
-0.000126453
-1.5767e-07
-0.000104721
8.53096e-06
-7.78222e-05
1.85287e-05
-5.84077e-05
2.90148e-05
-3.81969e-05
3.93312e-05
-1.8429e-05
5.33154e-05
4.91638e-06
7.07635e-05
2.72387e-05
6.79e-05
4.08921e-05
4.00512e-05
5.13447e-05
2.73496e-05
2.76417e-05
2.7475e-05
2.5223e-05
1.58139e-05
-4.63903e-06
-1.3105e-05
-3.61179e-05
0.000113943
-3.0729e-05
0.000123339
-1.89116e-05
4.06425e-05
-1.76802e-05
-1.70788e-05
-1.28938e-05
-0.000128243
-9.02137e-06
-0.000130466
-4.49241e-06
-0.000109011
6.01408e-07
-8.28073e-05
8.13775e-06
-6.57857e-05
1.63859e-05
-4.62499e-05
2.51482e-05
-1.98942e-05
3.43445e-05
-2.43153e-06
4.98214e-05
8.94397e-06
6.48926e-05
2.4236e-05
5.99443e-05
5.32667e-05
5.37666e-05
5.53823e-05
5.40474e-05
4.30841e-05
2.32372e-05
1.81924e-05
-1.72115e-06
-3.42855e-05
0.000150077
-1.97316e-05
0.000113721
-1.62764e-05
2.89101e-05
-1.84074e-05
-2.06191e-05
-1.48371e-05
-0.000130882
-1.22068e-05
-0.000133003
-9.74149e-06
-0.000110363
-9.30854e-06
-8.22009e-05
-4.62435e-06
-5.73202e-05
-1.64152e-07
-1.19943e-05
6.97074e-07
-7.82999e-07
2.25246e-06
-6.22655e-07
1.10111e-05
-1.53697e-07
3.74798e-05
2.58327e-06
6.4467e-05
2.90093e-05
6.09095e-05
5.99837e-05
5.03534e-05
5.37757e-05
3.05865e-05
3.80829e-05
2.14988e-05
-3.23528e-05
0.000184335
-1.67457e-05
0.000100414
-1.86264e-05
2.2514e-05
-1.97853e-05
-5.11403e-05
-1.79671e-05
-0.000131448
-1.5505e-05
-0.000133362
-1.30486e-05
-6.24897e-05
-1.13003e-05
-2.93608e-05
-1.84882e-06
-1.70817e-05
-4.74702e-07
-1.20877e-06
-4.64397e-07
-8.73838e-07
-1.22089e-07
-1.03379e-06
4.20921e-07
-8.09162e-07
3.53679e-06
-6.19039e-07
3.60813e-05
1.24652e-05
4.38543e-05
5.25987e-05
3.92484e-05
5.85133e-05
2.64641e-05
5.09783e-05
4.19976e-05
4.53081e-06
4.71717e-06
4.50278e-06
6.98889e-06
7.05735e-07
7.62475e-06
-6.27552e-06
8.15221e-06
-1.57817e-05
8.37821e-06
-2.85428e-05
1.02626e-05
-3.68795e-05
1.0742e-05
-4.00385e-05
9.15299e-06
-4.23126e-05
6.43888e-06
-4.43109e-05
5.05639e-06
-4.5639e-05
4.11726e-06
-4.57062e-05
2.37373e-06
-4.43353e-05
-1.26455e-07
-4.21754e-05
-2.16762e-06
-3.96564e-05
-3.84587e-06
-3.59418e-05
-7.10493e-06
-3.06586e-05
-1.19401e-05
-2.49378e-05
-1.68059e-05
-2.12879e-05
-1.98817e-05
-2.14727e-05
-2.16737e-05
-2.61187e-05
-2.30803e-05
-3.4771e-05
-2.37698e-05
-1.99807e-05
-4.21161e-05
-6.30963e-06
-4.22044e-07
-8.60308e-06
-3.15337e-07
-1.24209e-05
-5.22789e-07
-1.698e-05
-9.54434e-07
-2.41922e-05
-6.15453e-08
-3.33668e-05
8.00983e-07
-4.19628e-05
1.11905e-06
-4.76478e-05
7.25818e-07
-4.87067e-05
-2.77799e-07
-4.65864e-05
-6.16002e-07
-4.34582e-05
-4.12e-07
-4.09233e-05
-5.90112e-07
-3.95337e-05
-1.56874e-06
-3.87905e-05
-2.91061e-06
-3.71392e-05
-5.49658e-06
-3.35053e-05
-1.07375e-05
-2.82505e-05
-1.71923e-05
-2.3117e-05
-2.19357e-05
-1.97271e-05
-2.32678e-05
-1.8426e-05
-2.29716e-05
-1.94591e-05
-2.20451e-05
-2.31004e-05
-2.01279e-05
-1.78883e-05
-2.51925e-05
-5.40874e-07
6.37526e-09
-9.01875e-07
1.30072e-08
-1.45825e-06
1.81365e-08
-2.751e-06
2.35855e-08
-4.76668e-06
-1.69381e-09
-6.98477e-06
-7.10518e-09
-1.01137e-05
-2.63112e-08
-1.55681e-05
-9.05926e-08
-2.41099e-05
-2.87467e-07
-3.24324e-05
-7.95137e-07
-3.72161e-05
-1.55876e-06
-3.94048e-05
-2.00363e-06
-4.08736e-05
-4.07955e-06
-4.22887e-05
-5.78749e-06
-4.29289e-05
-6.1494e-06
-4.40811e-05
-7.36213e-06
-4.40514e-05
-1.14183e-05
-4.03248e-05
-1.5723e-05
-3.40002e-05
-1.785e-05
-2.79466e-05
-1.81661e-05
-2.45637e-05
-1.74555e-05
-2.61003e-05
-1.57136e-05
-1.12565e-05
-3.274e-05
-4.00756e-08
3.42974e-09
-3.66308e-08
3.98924e-09
-2.26997e-08
2.68577e-09
-3.32689e-10
9.90912e-10
-2.0602e-09
1.16459e-11
-9.16055e-09
-7.38231e-11
-3.5444e-08
-1.86084e-10
-1.26139e-07
-2.07244e-10
-4.13437e-07
-1.48514e-09
-1.20373e-06
-9.52119e-09
-2.74381e-06
-3.51862e-08
-7.8236e-06
-1.33622e-07
-1.85789e-05
-4.41983e-07
-3.15464e-05
-1.07486e-06
-3.79522e-05
-1.95272e-06
-3.59422e-05
-2.72161e-06
-2.92498e-05
-5.99423e-06
-2.25283e-05
-9.43464e-06
-1.72981e-05
-8.89431e-06
-1.40056e-05
-4.50177e-06
-1.26792e-05
-2.89802e-06
-2.02414e-05
-2.1599e-06
-1.86599e-06
-4.05053e-05
-4.68361e-09
2.52029e-09
-3.13899e-09
9.90124e-10
-9.68583e-10
3.03999e-10
-5.6643e-11
5.69139e-11
-4.99067e-11
2.68981e-12
-1.29631e-10
-3.93238e-13
-3.29128e-10
-7.91786e-13
-5.79384e-10
-1.38524e-12
-2.41379e-09
1.48427e-12
-1.30214e-08
-1.49219e-10
-5.04506e-08
-2.42072e-09
-1.81879e-07
-1.8514e-08
-5.94087e-07
-8.38732e-08
-1.59341e-06
-2.47314e-07
-3.07657e-06
-9.86389e-07
-3.8702e-06
-3.41077e-06
-8.78346e-06
-8.08167e-06
-1.4188e-05
-2.48248e-05
-1.28981e-05
-2.73873e-05
-1.12183e-05
-2.03652e-05
-1.02118e-05
-1.38736e-05
-1.14105e-05
-1.09301e-05
-5.33603e-06
-1.79107e-05
-3.36359e-10
1.72563e-09
-2.84336e-10
7.33835e-10
-5.45165e-11
3.78132e-11
-3.74905e-12
3.92615e-12
-1.54783e-12
2.43727e-13
-2.5934e-12
1.15449e-13
-4.73536e-12
1.44918e-13
-8.87875e-12
9.6034e-14
-3.98304e-11
4.97904e-12
-5.43278e-10
8.64033e-11
-5.93917e-09
3.98712e-10
-3.92415e-08
-1.05165e-09
-1.90439e-07
-1.19275e-08
-7.28618e-07
-5.71954e-08
-2.25204e-06
-8.40968e-07
-1.91978e-05
-7.75974e-06
-0.00010275
-4.96318e-05
-0.000138756
-6.5591e-05
-0.000132277
-5.74486e-05
-7.24442e-05
-4.13654e-05
-4.61608e-05
-2.71688e-05
-4.39605e-05
-3.52665e-05
-2.9614e-05
-7.06994e-05
4.65742e-10
8.31362e-10
3.39401e-12
1.18289e-09
-1.57227e-12
4.44394e-11
-7.83566e-14
2.18738e-12
-9.22223e-15
8.36063e-14
-2.20337e-16
4.42065e-14
2.92879e-14
2.59559e-14
-3.8705e-15
1.37325e-13
2.03709e-12
-5.11984e-13
7.8484e-11
2.83061e-12
2.14646e-10
7.01363e-11
-5.83237e-09
1.46019e-09
-8.16754e-08
2.59061e-08
-5.02628e-07
1.63909e-07
-1.97726e-06
1.64035e-07
-6.77297e-05
-2.44574e-06
-0.000193
-3.61008e-05
-0.000191938
-4.22483e-05
-0.000180879
-4.42355e-05
-0.000166819
-3.08459e-05
-0.000139664
-7.83966e-06
-0.000153227
-1.49535e-05
-2.30635e-05
-0.000158124
3.26242e-10
1.93099e-10
9.16129e-11
6.2223e-10
-2.76628e-13
1.20921e-10
6.98414e-14
1.81697e-12
1.21024e-14
7.61902e-14
8.05254e-15
1.55642e-14
1.69056e-14
6.29226e-15
1.2521e-13
9.78442e-14
1.17298e-12
1.41881e-12
3.50653e-12
2.33106e-12
5.26415e-11
2.19206e-11
8.84097e-10
3.4111e-10
-2.19792e-09
-5.55654e-10
-9.62582e-09
-1.86879e-09
1.33007e-07
-3.85409e-08
-2.13515e-06
-4.89247e-09
-7.02251e-05
-6.17294e-09
-0.000126238
-1.72333e-08
-8.72956e-05
-1.16848e-07
-5.89668e-06
-1.01159e-06
-6.99632e-06
-1.82528e-06
-1.69421e-05
-3.58276e-06
-4.81248e-06
-4.37373e-05
8.94091e-11
2.74735e-11
1.14408e-10
3.06671e-11
-4.84812e-12
8.90814e-11
2.20779e-13
3.85748e-12
1.10363e-14
2.62754e-13
2.4993e-15
1.02059e-14
3.50148e-15
2.04476e-15
8.92104e-14
1.07151e-14
2.21553e-12
3.35703e-12
3.23841e-12
7.15314e-12
1.411e-11
8.07642e-12
-1.98323e-11
8.66212e-13
1.40698e-11
5.28461e-11
-4.8949e-09
3.17927e-10
-4.2075e-08
-1.73113e-09
-6.02214e-10
3.85633e-10
-1.86269e-09
-7.44728e-10
-9.19109e-09
-5.05156e-09
-9.21263e-08
-3.00572e-08
-9.17592e-07
-1.77501e-07
-3.58263e-07
-5.9953e-07
-1.54126e-06
-1.28267e-06
-2.26795e-06
-3.10289e-06
1.46066e-11
2.67994e-12
2.16228e-11
6.27223e-12
1.06486e-11
-9.76969e-13
-7.37082e-14
3.62323e-12
2.38996e-15
1.56094e-13
1.5519e-15
9.56619e-15
9.12944e-16
1.26111e-15
9.26939e-15
1.86554e-15
1.99355e-12
2.30794e-12
3.3807e-12
6.54532e-12
3.25256e-12
1.6727e-11
7.89931e-12
-3.53892e-13
3.34712e-11
5.56073e-12
3.02613e-10
3.66643e-11
1.13441e-09
9.12805e-11
-2.83237e-11
-3.57218e-10
4.07923e-10
-1.33979e-11
-4.37838e-09
-4.46483e-10
-3.17189e-08
-6.40514e-09
-2.0255e-07
-3.46927e-08
-3.59977e-06
-2.83823e-07
-2.64311e-06
-4.4985e-07
-3.90261e-08
-2.66621e-06
8.27459e-13
3.2702e-13
3.18119e-12
8.27275e-13
6.99682e-13
3.6995e-14
2.9071e-13
9.38558e-14
1.59811e-15
7.84675e-14
6.56127e-16
5.42242e-15
4.05204e-16
1.04011e-15
6.14474e-16
1.08344e-15
8.01488e-13
1.71135e-13
7.16815e-13
2.7459e-12
2.08826e-12
1.86604e-11
5.64938e-13
-1.00944e-13
3.63329e-12
5.81958e-13
2.71116e-11
1.90442e-12
1.53184e-10
3.90295e-12
3.01874e-11
-1.62772e-11
2.55828e-11
-3.4819e-12
-4.63588e-10
1.20081e-11
-6.90923e-09
-1.52529e-10
-3.98704e-08
-3.23117e-09
-1.03664e-06
-3.03619e-08
-3.86521e-06
-2.62949e-07
-6.03454e-08
-3.22433e-06
1.99082e-14
7.31888e-14
2.88247e-13
1.27516e-13
7.10181e-14
3.85932e-14
1.66258e-14
1.67755e-14
3.4934e-15
9.68722e-15
3.5438e-16
1.73731e-15
2.65102e-16
9.41034e-16
2.45455e-15
1.68998e-15
9.1701e-14
9.40372e-15
4.43167e-13
-9.65487e-15
7.37679e-13
1.36838e-13
6.97342e-14
1.99441e-13
2.65018e-13
2.06054e-13
1.31576e-12
7.46873e-14
5.76044e-12
8.88003e-14
1.88709e-12
-9.18845e-13
-6.49478e-13
2.79449e-13
-1.20926e-11
3.81481e-12
-2.12988e-10
1.76799e-11
-3.43865e-09
-4.02251e-12
-1.82556e-08
-7.69488e-11
-2.62176e-07
-2.48966e-08
-6.55281e-08
-8.10465e-07
8.24936e-16
2.07688e-14
2.29827e-14
1.70465e-14
8.04603e-15
1.4299e-14
2.30032e-15
5.68321e-15
4.53597e-16
1.29457e-15
2.19422e-16
5.44899e-16
2.21273e-16
8.6645e-16
6.15038e-16
1.75082e-15
6.3435e-15
1.1253e-14
2.96426e-14
4.95607e-14
6.56778e-14
2.55039e-14
3.74999e-14
2.08947e-13
3.65723e-14
1.7582e-13
7.95033e-14
-5.07981e-15
1.98613e-13
1.70403e-14
-4.83136e-14
4.2977e-13
-4.2059e-13
3.44282e-12
-1.51974e-11
5.9699e-12
-1.17545e-10
1.00345e-10
1.22103e-09
1.56772e-09
9.27932e-09
1.04873e-08
-4.54395e-09
-6.10822e-10
-1.02527e-06
-2.63079e-07
4.33089e-16
7.4526e-15
2.3133e-15
6.35463e-15
1.13257e-15
3.43397e-15
2.73029e-16
9.61564e-16
9.72357e-17
2.131e-16
9.04928e-17
2.80461e-16
2.18616e-16
7.85145e-16
3.73904e-16
9.61724e-16
5.74155e-15
1.24253e-14
2.81927e-14
1.32504e-13
2.95029e-14
1.42468e-13
3.36677e-14
2.35231e-13
1.84696e-14
1.7283e-13
1.40622e-14
8.28675e-14
7.01157e-16
6.21005e-14
-9.01139e-14
7.1582e-13
3.77922e-13
4.97516e-13
-1.4442e-12
6.80857e-12
-1.10254e-10
1.98914e-10
7.84154e-09
4.47193e-09
3.52896e-09
2.33288e-08
-4.38832e-07
-2.53035e-07
-4.23133e-06
-4.43187e-06
1.41809e-16
1.73987e-15
3.17335e-16
1.29357e-15
1.19296e-16
4.69134e-16
3.16747e-17
1.20376e-16
2.22276e-17
4.33301e-17
5.48672e-17
1.46128e-16
1.54384e-16
6.24696e-16
2.30779e-16
7.41799e-16
5.4087e-15
9.57576e-15
4.00679e-14
1.50971e-13
4.30022e-14
2.37392e-13
3.58382e-14
2.69776e-13
1.29833e-14
1.79426e-13
5.1008e-15
5.73639e-14
-1.5542e-14
9.28472e-14
-2.88313e-14
2.75925e-13
-6.07245e-13
3.68862e-13
-1.25405e-11
1.74047e-11
-3.86929e-10
5.41364e-10
-8.80977e-09
1.21571e-08
-5.69497e-08
6.15453e-08
-1.63984e-06
-1.75493e-07
-2.1163e-06
-3.69862e-06
2.77359e-17
2.67296e-16
3.50014e-17
1.53248e-16
1.22991e-17
5.42427e-17
4.43041e-18
1.48604e-17
4.10628e-18
1.02395e-17
2.6315e-17
5.90084e-17
1.09341e-16
3.84428e-16
1.93696e-16
6.83819e-16
3.54211e-15
5.05461e-15
3.83729e-14
1.31357e-13
3.80231e-14
2.37741e-13
3.60583e-14
2.85683e-13
9.93591e-15
1.71248e-13
1.31884e-15
1.56786e-14
-1.85106e-15
4.66678e-14
-1.44225e-15
1.36114e-14
5.55216e-14
1.73175e-13
9.53836e-12
7.36912e-12
2.91567e-10
2.42621e-10
6.2773e-09
5.75836e-09
-2.37839e-07
6.13045e-08
-2.14655e-07
-8.78508e-08
-1.3799e-07
-2.39297e-07
4.15208e-18
3.80962e-17
3.55561e-18
1.83422e-17
1.30239e-18
6.39889e-18
6.87289e-19
1.82185e-18
8.85053e-19
2.27288e-18
8.89135e-18
1.72361e-17
6.67692e-17
2.01932e-16
1.66794e-16
6.27078e-16
1.4978e-15
2.07512e-15
2.47083e-14
6.42243e-14
3.67082e-14
1.62073e-13
3.12878e-14
2.61147e-13
6.15096e-15
1.1931e-13
3.69579e-16
3.95396e-15
-9.37073e-17
1.02513e-14
8.20593e-16
3.96434e-15
1.15656e-13
4.42426e-14
4.77563e-12
2.61008e-12
1.22757e-10
1.21372e-10
1.84893e-09
3.9447e-09
-8.44309e-08
7.07129e-08
-1.43104e-07
-2.10961e-10
-3.53793e-08
-9.09271e-08
5.62055e-19
5.32482e-18
3.6134e-19
2.18191e-18
1.38602e-19
7.42071e-19
1.00265e-19
2.21049e-19
1.8516e-19
4.20514e-19
2.35726e-18
4.17713e-18
3.5393e-17
9.74694e-17
1.28308e-16
5.23535e-16
4.27072e-16
8.99319e-16
8.7874e-15
1.48742e-14
1.99845e-14
5.6888e-14
2.2299e-14
1.39485e-13
2.83525e-15
4.95239e-14
1.52367e-16
1.30923e-15
9.41962e-17
1.58535e-15
-1.03782e-17
1.58956e-15
3.24094e-14
8.05088e-15
2.27514e-12
3.57005e-13
9.91669e-11
2.42418e-11
2.77586e-09
1.25475e-09
-5.6963e-08
6.645e-08
-3.79739e-08
9.54416e-09
-3.7345e-08
-1.52518e-07
7.2936e-20
7.22595e-19
3.64648e-20
2.52616e-19
1.47444e-20
8.37983e-20
1.12061e-20
2.64049e-20
3.6202e-20
6.73563e-20
5.69855e-19
9.92127e-19
1.62786e-17
4.02513e-17
7.9713e-17
3.4096e-16
1.34079e-16
4.30087e-16
1.72423e-15
2.16215e-15
5.98751e-15
1.03179e-14
9.45634e-15
3.52813e-14
9.68945e-16
1.1583e-14
6.81877e-17
4.39093e-16
4.56023e-17
2.59935e-16
2.86692e-17
5.20324e-16
1.1e-15
3.40897e-15
2.54331e-13
6.65068e-14
1.79625e-11
4.62233e-12
-5.63749e-10
7.76853e-10
-9.44078e-09
1.40982e-08
-5.98614e-09
3.82095e-09
-8.55986e-09
-1.00003e-07
9.24084e-21
9.46031e-20
3.63861e-21
2.83314e-20
1.55849e-21
9.10897e-21
1.25037e-21
3.04514e-21
6.05257e-21
1.01235e-20
1.35291e-19
2.32517e-19
6.02333e-18
1.24544e-17
3.93749e-17
1.4254e-16
5.61058e-17
1.94463e-16
2.65498e-16
3.54195e-16
1.12308e-15
1.41693e-15
2.26081e-15
5.14302e-15
2.61797e-16
1.92876e-15
1.65243e-17
1.27835e-16
1.3789e-17
4.76805e-17
3.14804e-17
1.27061e-16
4.84695e-16
1.65495e-15
1.98159e-14
1.8805e-14
4.50442e-12
1.48913e-12
3.13959e-10
1.05139e-10
2.15968e-10
4.41486e-10
-2.10999e-09
1.58428e-09
2.86834e-09
-1.87761e-08
1.15308e-21
1.19158e-20
3.55538e-22
3.03747e-21
1.59825e-22
9.02562e-22
1.36876e-22
3.2829e-22
9.40567e-22
1.45147e-21
3.07007e-20
4.97681e-20
1.65573e-18
2.68037e-18
1.46732e-17
3.43325e-17
2.32774e-17
6.90017e-17
4.51589e-17
7.86273e-17
1.80395e-16
2.10437e-16
3.93043e-16
6.79425e-16
6.3503e-17
3.04488e-16
4.20989e-18
3.23538e-17
3.68909e-18
9.14841e-18
1.28181e-17
2.45793e-17
2.34108e-16
6.68496e-16
1.28712e-14
3.45369e-15
1.28228e-12
2.13429e-13
6.2832e-11
1.90016e-11
1.52598e-10
3.10421e-10
-3.54412e-09
4.92265e-09
4.70701e-08
-1.72117e-07
1.40978e-22
1.41374e-21
3.22109e-23
2.9337e-22
1.47936e-23
2.38804e-22
1.39999e-23
3.67498e-23
1.39107e-22
1.95332e-22
6.30637e-21
9.19437e-21
3.36893e-19
4.29554e-19
3.62172e-18
5.32401e-18
7.10035e-18
1.66325e-17
9.87962e-18
1.99392e-17
2.98773e-17
3.6214e-17
6.40066e-17
9.51505e-17
1.44055e-17
4.88274e-17
1.09937e-18
7.27124e-18
9.17404e-19
1.72222e-18
3.39873e-18
4.01498e-18
9.9421e-17
1.46008e-16
2.14298e-15
8.54037e-16
1.88426e-13
3.27826e-14
1.6722e-11
3.91091e-12
4.2447e-12
3.19335e-10
-1.62347e-08
2.10211e-08
3.10376e-07
-6.21714e-07
1.62187e-23
1.44732e-22
5.35954e-24
1.01367e-22
1.24062e-24
5.4884e-23
1.31238e-24
2.64107e-23
1.91346e-23
2.22506e-23
1.1405e-21
1.46296e-21
5.55722e-20
5.98485e-20
6.34533e-19
6.96999e-19
1.72739e-18
2.75216e-18
2.59672e-18
4.61455e-18
5.3318e-18
6.73411e-18
1.03489e-17
1.35648e-17
3.05723e-18
7.71531e-18
2.80325e-19
1.47365e-18
2.12254e-19
3.08913e-19
7.06264e-19
5.94765e-19
2.66929e-17
1.94145e-17
3.47371e-16
2.18333e-16
2.90564e-14
3.98818e-15
3.17277e-12
7.65406e-13
2.63607e-10
5.86892e-11
-4.23909e-08
6.36949e-08
8.57181e-07
-1.66808e-06
2.58588e-24
7.65172e-23
6.51405e-25
1.48042e-23
-3.5667e-24
-5.63719e-23
-2.5434e-25
-3.11476e-24
2.41809e-24
2.54342e-24
1.83086e-22
2.07291e-22
8.2478e-21
7.95809e-21
9.51753e-20
9.03002e-20
3.28842e-19
3.74967e-19
5.97304e-19
8.41821e-19
9.93642e-19
1.19576e-18
1.64842e-18
1.90265e-18
6.06101e-19
1.17553e-18
6.78883e-20
2.75351e-19
4.58362e-20
5.30744e-20
1.25961e-19
8.30216e-20
5.05254e-18
2.24904e-18
6.62614e-17
3.85122e-17
3.72499e-15
2.99648e-16
6.80532e-13
9.52283e-14
5.31288e-11
6.24766e-12
5.89081e-08
4.83445e-09
1.67233e-07
-3.73019e-07
1.03466e-25
4.69348e-24
-7.98225e-25
-1.82001e-23
-3.19635e-24
-5.02436e-23
-6.18299e-25
-7.47064e-24
8.55041e-25
8.28633e-25
2.66972e-23
2.69835e-23
1.15372e-21
1.0177e-21
1.34382e-20
1.15575e-20
5.2021e-20
4.85257e-20
1.10872e-19
1.20924e-19
1.76579e-19
1.84639e-19
2.54078e-19
2.56671e-19
1.11837e-19
1.70135e-19
1.54863e-20
4.77335e-20
9.31481e-21
8.78383e-21
1.97202e-20
1.09489e-20
8.05398e-19
2.53562e-19
1.11881e-17
4.81936e-18
3.17759e-16
1.96533e-17
8.19491e-14
1.50287e-14
5.29944e-12
1.01278e-12
3.9722e-09
8.79433e-10
1.37546e-08
6.80696e-08
-3.68852e-25
-1.6517e-23
-6.22112e-25
-1.41355e-23
-1.92482e-24
-2.99306e-23
-4.89547e-25
-5.81245e-24
2.32973e-25
8.03708e-26
3.56966e-24
3.24181e-24
1.5274e-22
1.23434e-22
1.80614e-21
1.41338e-21
7.4209e-21
6.06107e-21
1.72041e-20
1.51706e-20
2.78517e-20
2.46466e-20
3.70299e-20
3.25978e-20
1.89974e-20
2.29726e-20
3.24951e-21
7.50646e-21
1.76069e-21
1.3496e-21
2.66321e-21
1.31814e-21
1.10996e-19
2.62647e-20
1.86988e-18
4.84133e-19
2.5362e-17
2.16615e-18
1.38471e-14
1.15723e-15
9.55633e-13
9.09432e-14
8.17168e-10
6.30865e-11
1.12398e-09
1.33294e-08
-3.18448e-25
-1.40766e-23
-3.28829e-25
-7.41946e-24
-9.87461e-25
-1.51549e-23
-2.99139e-25
-3.48692e-24
-1.85417e-26
-1.72567e-25
4.59204e-25
3.42287e-25
1.90525e-23
1.414e-23
2.28869e-22
1.62908e-22
9.79686e-22
7.14911e-22
2.3601e-21
1.78795e-21
3.90277e-21
2.97684e-21
5.01323e-21
3.85934e-21
2.91756e-21
2.8503e-21
5.94555e-22
1.0257e-21
2.67775e-22
1.68995e-22
3.07788e-22
1.23154e-22
1.30852e-20
2.40829e-21
2.50013e-19
4.33918e-20
1.92546e-18
4.35183e-19
1.21887e-15
6.4333e-17
8.51882e-14
6.72072e-15
6.01167e-11
3.71628e-12
6.48951e-11
1.10477e-09
-1.92315e-25
-8.4078e-24
-1.48331e-25
-3.32071e-24
-4.54986e-25
-6.89257e-24
-1.57171e-25
-1.80125e-24
-1.63799e-26
-1.49298e-25
6.26323e-26
3.5198e-26
2.24084e-24
1.53849e-24
2.71985e-23
1.77283e-23
1.20118e-22
7.91155e-23
2.9667e-22
1.99848e-22
4.96344e-22
3.3583e-22
6.2605e-22
4.25978e-22
3.97952e-22
3.2094e-22
8.5584e-23
1.10126e-22
2.38863e-23
4.10316e-23
2.67071e-23
8.89742e-23
1.30879e-21
1.85147e-22
2.60623e-20
3.54612e-21
2.4429e-19
3.33412e-20
6.20496e-17
2.1234e-18
6.91044e-15
4.78678e-16
3.55823e-12
1.64103e-13
3.07091e-12
6.43962e-11
-9.87939e-26
-4.28267e-24
-6.04977e-26
-1.34551e-24
-1.91679e-25
-2.87159e-24
-7.34405e-26
-8.30204e-25
-9.63796e-27
-8.6405e-26
1.30854e-26
8.99173e-27
2.50094e-25
1.6039e-25
3.03533e-24
1.83341e-24
1.37139e-23
8.26393e-24
3.4535e-23
2.10751e-23
5.7976e-23
3.5614e-23
7.19871e-23
4.36926e-23
4.65527e-23
3.11287e-23
1.50443e-23
9.46056e-24
4.02776e-24
8.30246e-24
-1.68613e-24
-3.01478e-24
1.06589e-22
4.04588e-23
2.31997e-21
2.5624e-22
2.08386e-20
1.94427e-21
2.03616e-18
1.15033e-19
4.55683e-16
2.36215e-17
1.71711e-13
6.54043e-15
1.22075e-13
3.03419e-12
-4.56685e-26
-1.96656e-24
-2.28004e-26
-5.05198e-25
-7.43952e-26
-1.10597e-24
-3.09872e-26
-3.47129e-25
-4.65835e-27
-4.13078e-26
3.0062e-27
1.32719e-27
2.64916e-26
1.59322e-26
3.19389e-25
1.81174e-25
1.46485e-24
8.20438e-25
3.73628e-24
2.10025e-24
6.21421e-24
3.53865e-24
7.54785e-24
4.02291e-24
4.59195e-24
2.46941e-24
2.73868e-24
6.18405e-24
-9.29756e-24
-1.82339e-23
-1.45265e-23
-2.46125e-23
1.56212e-23
1.03111e-23
1.72463e-22
2.57721e-23
1.53721e-21
1.20145e-22
1.1379e-19
7.01568e-21
2.31617e-17
4.05768e-19
6.31542e-15
2.42238e-16
4.58641e-15
1.16516e-13
-1.94548e-26
-8.32307e-25
-8.02388e-27
-1.77819e-25
-2.67067e-26
-3.95928e-25
-1.19094e-26
-1.32989e-25
-1.96052e-27
-1.73114e-26
-4.04517e-29
-2.92374e-28
2.66486e-27
1.46824e-27
3.18252e-26
1.71663e-26
1.47074e-25
7.77225e-26
3.76342e-25
1.9826e-25
5.88506e-25
3.20896e-25
7.13272e-25
3.29391e-25
7.16364e-25
1.81062e-24
-1.89259e-24
-4.15635e-24
-9.1822e-24
-1.7462e-23
-1.27311e-23
-2.08594e-23
-5.02841e-24
-7.04909e-24
1.40748e-23
6.66886e-24
1.02736e-22
8.42277e-24
6.64004e-21
3.72208e-22
3.86914e-19
1.4504e-20
2.33018e-16
9.18075e-18
1.37927e-16
4.2604e-15
-7.72901e-27
-3.28053e-25
-2.65357e-27
-5.90944e-26
-8.88911e-27
-1.32279e-25
-4.19291e-27
-4.70138e-26
-7.36477e-28
-6.52694e-27
-4.22237e-29
-3.06032e-28
2.78916e-28
1.16421e-28
3.0126e-27
1.5616e-27
1.39063e-26
7.01407e-27
3.47602e-26
1.73891e-26
5.22858e-26
2.38472e-26
8.17762e-26
2.35683e-25
-1.39584e-25
-3.49473e-25
-2.057e-24
-4.46598e-24
-5.77741e-24
-1.08413e-23
-7.61566e-24
-1.22905e-23
-4.92932e-24
-6.7951e-24
1.02647e-24
4.97143e-25
5.62985e-24
1.69998e-24
3.48387e-22
1.72424e-23
1.36177e-20
5.9988e-22
8.86332e-18
3.08703e-19
3.52165e-18
1.31668e-16
-2.87926e-27
-1.2107e-25
-8.28341e-28
-1.8641e-26
-2.74786e-27
-4.1391e-26
-1.35758e-27
-1.54223e-26
-2.5013e-28
-2.24588e-27
-2.04302e-29
-1.49961e-28
3.44222e-29
1.57765e-29
2.7158e-28
1.34626e-28
1.22302e-27
5.86937e-28
2.68883e-27
1.28705e-27
5.55078e-27
1.02389e-26
-3.34226e-27
-9.69182e-27
-2.34117e-25
-5.89061e-25
-1.24574e-24
-2.71493e-24
-2.87286e-24
-5.40533e-24
-3.63618e-24
-5.87738e-24
-2.66499e-24
-3.67517e-24
-8.49668e-25
-9.90431e-25
6.06594e-25
2.43719e-25
1.63939e-23
9.35319e-25
5.61088e-22
2.24955e-23
2.99067e-19
9.17684e-21
7.79567e-20
3.48242e-18
-1.0072e-27
-4.19687e-26
-2.44767e-28
-5.60561e-27
-7.89833e-28
-1.21714e-26
-4.05289e-28
-4.71716e-27
-7.73566e-29
-7.1182e-28
-7.64603e-30
-5.75113e-29
5.03597e-30
3.09447e-30
2.25244e-29
1.00345e-29
9.22278e-29
4.93619e-29
2.57676e-28
3.09074e-28
1.89822e-28
6.47595e-28
-1.56816e-26
-4.63897e-26
-1.47431e-25
-3.7815e-25
-5.84871e-25
-1.2985e-24
-1.20105e-24
-2.30052e-24
-1.46082e-24
-2.402e-24
-1.10581e-24
-1.54991e-24
-5.01201e-25
-5.9305e-25
-7.10084e-26
-6.99902e-26
7.43046e-25
1.21194e-25
2.09848e-23
7.33491e-25
8.91351e-21
2.42449e-22
1.48738e-21
8.00295e-20
-3.30641e-28
-1.36938e-26
-6.8551e-29
-1.61273e-27
-2.11208e-28
-3.37532e-27
-1.11716e-28
-1.3512e-27
-2.18655e-29
-2.09199e-28
-2.44149e-30
-1.90982e-29
3.54154e-31
2.98827e-31
1.77024e-30
1.68038e-30
9.74676e-30
3.46126e-29
1.32759e-29
5.42914e-29
-6.83542e-28
-2.41801e-27
-1.04338e-26
-3.1983e-26
-6.82754e-26
-1.81354e-25
-2.30084e-25
-5.28717e-25
-4.33794e-25
-8.59557e-25
-5.06232e-25
-8.60558e-25
-3.81495e-25
-5.52332e-25
-1.91084e-25
-2.33245e-25
-5.30457e-26
-5.38205e-26
4.8719e-26
1.9429e-26
7.07099e-25
2.18344e-26
2.35919e-22
5.68963e-24
2.41719e-23
1.60474e-21
-1.01657e-28
-4.21265e-27
-1.81936e-29
-4.4516e-28
-5.2539e-29
-8.85988e-28
-2.84376e-29
-3.63994e-28
-5.65508e-30
-5.73158e-29
-6.89452e-31
-5.71676e-30
-6.7269e-32
-4.66033e-31
8.51311e-32
4.99951e-31
-3.80914e-31
-1.91438e-30
-2.596e-29
-1.12353e-28
-4.84381e-28
-1.81214e-27
-4.81608e-27
-1.56027e-26
-2.6001e-26
-7.29504e-26
-7.81444e-26
-1.89578e-25
-1.37172e-25
-2.86811e-25
-1.53192e-25
-2.74632e-25
-1.12724e-25
-1.71972e-25
-5.76113e-26
-7.40049e-26
-1.90691e-26
-2.03161e-26
3.20429e-28
3.3663e-29
2.07895e-26
1.93569e-27
5.54297e-24
1.17453e-25
3.41871e-25
2.79552e-23
-2.91454e-29
-1.22382e-27
-4.56705e-30
-1.18117e-28
-1.21496e-29
-2.20991e-28
-6.67933e-30
-9.2601e-29
-1.33709e-30
-1.47078e-29
-1.75071e-31
-1.57746e-30
-4.73683e-32
-3.56753e-31
-1.26444e-31
-8.07271e-31
-1.27039e-30
-6.93855e-30
-1.83447e-29
-8.62405e-29
-2.22703e-28
-9.04525e-28
-1.78936e-27
-6.2904e-27
-8.46155e-27
-2.57503e-26
-2.3213e-26
-6.10636e-26
-3.81888e-26
-8.65605e-26
-4.06699e-26
-7.90193e-26
-2.8837e-26
-4.76614e-26
-1.44712e-26
-2.01242e-26
-5.01984e-27
-5.78146e-27
-7.09882e-28
-6.61411e-28
9.80339e-28