/*--------------------------------*- C++ -*----------------------------------*\
| =========                 |                                                 |
| \\      /  F ield         | OpenFOAM: The Open Source CFD Toolbox           |
|  \\    /   O peration     | Version:  2206                                  |
|   \\  /    A nd           | Website:  www.openfoam.com                      |
|    \\/     M anipulation  |                                                 |
\*---------------------------------------------------------------------------*/
FoamFile
{
    version     2.0;
    format      ascii;
    arch        "LSB;label=32;scalar=64";
    class       volScalarField;
    location    "0.775";
    object      alpha.water;
}
// * * * * * * * * * * * * * * * * * * * * * * * * * * * * * * * * * * * * * //

dimensions      [0 0 0 0 0 0 0];

internalField   nonuniform List<scalar> 
2268
(
0.999999
0.999999
1
1
1
1
1
1
1
1
1
1
1
0.999999
0.999985
0.986981
0.941843
0.979615
0.997716
0.997671
0.996776
0.996017
0.999418
0.999999
1
1
1
1
1
1
1
1
1
1
1
1
0.999999
0.999976
0.979659
0.941753
0.941034
0.959241
0.962693
0.959651
0.988683
0.999802
0.999999
1
1
1
1
1
1
1
1
1
1
1
1
1
0.999997
0.996466
0.962453
0.941233
0.941034
0.941273
0.946757
0.99693
0.999803
1
1
1
1
1
1
1
1
1
1
1
1
1
1
1
0.999999
0.998848
0.988949
0.985882
0.990265
1
0.999997
0.99981
1
1
1
1
1
1
1
1
1
1
1
1
1
1
1
1
1
1
1
1
1
0.999994
0.999994
1
1
1
1
1
1
1
1
1
1
1
1
1
1
1
1
1
1
1
1
1
0.999999
0.999981
1
1
1
1
1
1
1
0.999999
1
1
1
1
1
1
1
1
1
1
1
1
1
0.999994
0.99997
1
1
1
1
1
1
0.995018
1
1
1
1
1
1
1
1
1
1
1
1
1
1
0.999997
0.999971
0.576425
0.403669
0.446154
0.839224
0.831179
0.619712
0.623292
0.833407
0.852938
0.864364
0.886039
0.892841
0.892841
0.89284
0.892825
0.892687
0.891709
0.887267
0.879559
0.608663
0.403678
0.67378
0.817468
0.406881
0.420154
0.594695
0.607732
0.682455
0.55672
0.551858
0.598082
0.858907
0.892825
0.780099
0.608921
0.586533
0.677938
0.709095
0.607671
0.449561
0.667784
0.542292
0.294669
0.619244
0.732219
0.732173
0.704676
0.732042
0.717279
0.597944
0.604276
0.748389
0.434106
0.259743
0.2597
0.259743
0.261861
0.619797
0.6267
0.633824
0.233671
0.263257
0.731453
0.732173
0.732259
0.732122
0.732099
0.73208
0.730009
0.728729
0.353974
0.26347
0.259668
0.259743
0.260051
0.269656
0.619886
0.618877
0.318892
0.233681
0.375472
0.730737
0.731452
0.73195
0.73195
0.732042
0.732086
0.731069
0.730039
0.717513
0.34847
0.26347
0.329686
0.599753
0.322963
0.618877
0.556876
0.205327
0.228716
0.721864
0.729476
0.728474
0.729766
0.730438
0.729927
0.693873
0.676398
0.72773
0.721873
0.640074
0.48883
0.656925
0.721993
0.431594
0.614564
0.544446
0.202903
0.216976
0.717389
0.725497
0.718466
0.71908
0.687944
0.433876
0.142383
0.0875695
0.145308
0.38269
0.69599
0.717254
0.726184
0.728293
0.434086
0.608413
0.516693
0.202902
0.315645
0.714372
0.717017
0.520667
0.350466
0.224093
0.0151926
0.0151926
0.0151026
0.0152717
0.0153818
0.513388
0.725559
0.728489
0.728693
0.593901
0.708221
0.737083
0.744947
0.748406
0.761803
0.86337
0.973457
1
1
1
1
1
1
1
1
1
1
0.999999
0.999999
0.999998
0.999998
0.999995
0.999977
0.119859
0.091813
0.138312
0.19973
0.296401
0.44509
0.602229
0.747443
0.864028
0.937818
0.975571
0.99252
0.998687
0.999999
0.999997
0.999992
0.999981
0.999972
0.999969
0.999972
0.99998
0.999987
0.999975
0.00127526
0.000295161
0.000178119
0.00341644
0.021402
0.0393905
0.0662369
0.112929
0.19712
0.313708
0.420963
0.498809
0.576799
0.682296
0.770889
0.816568
0.843239
0.869395
0.890362
0.912101
0.940583
0.975431
0.999936
0.000342147
5.00279e-05
1.62835e-05
9.77477e-07
7.79961e-08
2.72349e-07
7.23738e-07
1.30113e-06
2.65266e-06
9.82089e-06
3.5412e-05
0.00916413
0.059325
0.127543
0.190498
0.212149
0.204874
0.196947
0.20469
0.217686
0.256451
0.378725
0.657424
4.9968e-05
1.34607e-05
2.03552e-06
7.80139e-08
7.2299e-09
2.16092e-08
5.64854e-08
1.23719e-07
6.62538e-07
2.48675e-06
9.72706e-06
3.51188e-05
0.000118655
0.000385258
0.00118912
0.00352801
0.0132747
0.0455638
0.0615179
0.0699874
0.0713543
0.0713543
0.0720643
1.0466e-05
2.84124e-06
3.25161e-07
7.22988e-09
1.68331e-09
1.76155e-09
4.47142e-09
9.99167e-09
5.76459e-08
5.26446e-07
5.11037e-06
3.30947e-05
0.000174818
0.000807985
0.003293
0.0287213
0.313327
0.507503
0.507087
0.286021
0.183779
0.215805
0.39407
6.60404e-06
4.81985e-06
5.41152e-08
1.68331e-09
1.28283e-09
3.36799e-10
3.68701e-10
1.0934e-09
1.24668e-08
4.85675e-08
5.27282e-07
7.0973e-06
8.33325e-05
0.000599072
0.0029716
0.0938785
0.499951
0.580617
0.580756
0.580431
0.541891
0.641408
0.690632
2.02252e-06
6.23453e-06
5.01692e-07
9.19551e-10
3.39854e-10
2.30031e-10
5.64548e-11
7.497e-11
1.2158e-08
1.7334e-08
4.99418e-08
1.16237e-05
5.51674e-05
0.000326553
0.000574562
0.000839412
0.0929816
0.415947
0.453256
0.0948912
0.0052538
0.0105174
0.0363126
3.10021e-07
1.85248e-06
7.10637e-07
4.84857e-09
1.62533e-10
6.52851e-11
1.84352e-11
1.54902e-11
4.12371e-08
6.13028e-08
6.50165e-08
6.7582e-06
8.35225e-06
9.15299e-06
0.00035899
0.000951978
2.58794e-06
5.93552e-06
1.39104e-05
6.7063e-05
0.00367324
0.0102757
0.0159292
4.37799e-08
5.91681e-08
2.66496e-07
3.65112e-08
1.18503e-10
1.95538e-11
1.2182e-11
1.08149e-11
3.71858e-08
9.07737e-08
1.99181e-07
6.70386e-08
1.003e-07
6.79613e-07
1.38562e-05
2.81091e-05
1.34665e-06
2.1037e-06
1.37834e-05
0.000112111
0.0113542
0.020666
0.0207589
6.22813e-09
9.68878e-09
4.05231e-09
9.48979e-09
8.90125e-10
3.25476e-11
9.60823e-12
1.04112e-11
1.17022e-08
6.35112e-08
2.04306e-07
7.07529e-09
1.027e-08
5.43225e-08
3.31148e-07
1.74823e-07
4.11561e-07
2.10305e-07
9.36486e-07
1.03149e-05
0.00133108
0.0174479
0.0224375
1.04433e-09
1.42783e-09
5.86625e-10
3.4665e-10
2.04757e-10
2.25091e-11
8.93583e-12
1.52902e-11
1.44472e-10
1.28935e-08
7.67081e-08
3.47495e-09
2.61705e-09
6.01093e-09
3.17032e-08
4.23598e-08
1.63903e-07
1.51972e-07
2.10188e-07
9.13528e-07
2.44295e-05
8.53347e-05
0.00157239
2.1648e-10
2.72123e-10
1.29033e-10
6.15583e-11
2.48763e-11
7.35428e-12
8.23216e-12
1.63835e-11
8.86264e-11
2.86036e-10
1.03156e-09
2.50445e-09
1.97636e-09
1.95124e-09
4.20252e-09
2.1371e-08
1.35788e-07
1.16706e-07
1.49441e-07
1.9089e-05
0.000153893
0.000201284
0.00213515
7.30992e-11
5.37555e-11
3.99807e-11
1.44484e-11
3.46239e-12
3.50765e-12
7.54191e-12
1.109e-11
1.20491e-10
1.06872e-09
1.22646e-09
2.45747e-09
1.92041e-09
1.44088e-09
1.76615e-09
1.93283e-08
1.85861e-08
2.24893e-08
6.8334e-08
1.77116e-05
3.59695e-05
0.00145671
0.0372124
2.38633e-11
1.62123e-11
8.21811e-12
2.11765e-12
7.0108e-13
1.90122e-12
6.41788e-12
7.48948e-12
1.03945e-10
1.48849e-09
2.13107e-09
2.78746e-09
1.93047e-09
9.34999e-10
1.4417e-09
9.79095e-09
3.58622e-09
5.5145e-09
1.42399e-07
3.85107e-06
6.67176e-05
0.00858123
0.0508717
4.77114e-12
2.85596e-12
1.00866e-12
2.56051e-13
1.81795e-13
8.82435e-13
4.47544e-12
6.64334e-12
6.53501e-11
1.3865e-09
2.44067e-09
2.85116e-09
1.85519e-09
3.37e-10
8.05563e-10
1.1426e-09
1.35681e-09
3.12531e-09
7.64759e-08
2.02847e-06
0.000554243
0.00371787
0.000682947
6.88801e-13
3.34584e-13
1.14454e-13
3.11127e-14
4.56159e-14
3.07538e-13
2.58817e-12
6.14641e-12
3.05758e-11
9.0879e-10
1.99491e-09
2.78798e-09
1.47436e-09
7.88866e-11
2.41616e-10
4.77438e-11
1.64564e-10
8.54236e-10
3.23563e-08
1.04712e-06
0.000671466
0.00306415
0.000581629
9.50954e-14
3.95344e-14
1.31633e-14
3.81767e-15
9.45506e-15
8.30687e-14
1.34346e-12
5.40148e-12
1.32001e-11
3.19992e-10
1.00134e-09
1.96278e-09
7.94943e-10
2.12534e-11
4.12855e-11
2.20026e-11
3.15163e-11
1.83438e-10
8.86372e-09
3.73693e-07
0.00072512
0.00233962
0.000568245
1.29251e-14
4.62579e-15
1.48728e-15
4.68248e-16
1.61575e-15
2.03408e-14
6.1925e-13
4.02432e-12
6.19315e-12
5.84118e-11
2.60603e-10
7.50131e-10
2.51381e-10
6.61581e-12
6.00487e-12
8.69627e-12
2.96075e-11
2.07019e-10
1.46312e-08
4.81544e-06
0.000524759
0.000678267
0.00037776
1.70609e-15
5.26051e-16
1.62694e-16
5.56663e-17
2.47722e-16
4.92493e-15
2.28605e-13
2.1598e-12
2.94167e-12
8.43429e-12
3.92706e-11
1.43957e-10
4.86005e-11
2.01476e-12
9.88064e-13
2.41919e-12
1.98291e-11
2.25365e-10
4.36358e-09
1.70129e-06
0.000115862
3.15436e-05
6.02958e-05
2.17163e-16
5.73932e-17
1.62025e-17
6.14798e-18
3.59666e-17
1.1273e-15
6.07846e-14
7.19742e-13
1.20474e-12
1.64362e-12
5.19783e-12
1.84376e-11
7.49774e-12
5.56958e-13
1.81936e-13
5.1244e-13
9.34709e-12
5.39546e-11
4.10572e-11
3.45021e-07
3.35009e-07
1.089e-05
0.000223511
2.62419e-17
5.59154e-18
9.45062e-19
5.47391e-19
4.97181e-18
2.26973e-16
1.13892e-14
1.43542e-13
3.62549e-13
4.14799e-13
8.25269e-13
2.34774e-12
1.15401e-12
1.3647e-13
3.40766e-14
8.73113e-14
2.74486e-12
1.16925e-11
-3.22459e-11
8.35011e-10
4.14823e-08
1.33893e-06
0.00168191
2.75449e-18
2.93069e-19
-3.09598e-35
1.49627e-20
6.1984e-19
3.89239e-17
1.66737e-15
2.00232e-14
7.34759e-14
1.0451e-13
1.55362e-13
3.25309e-13
1.81863e-13
2.97463e-14
6.12547e-15
1.28574e-14
4.4798e-13
3.33939e-12
2.79187e-12
2.53815e-11
4.67874e-09
6.11179e-08
0.00945295
1.10349e-19
0
-5.76367e-19
-3.14018e-20
4.62154e-20
5.77196e-18
2.20619e-16
2.51086e-15
1.08444e-14
2.18053e-14
2.96393e-14
4.64811e-14
2.84036e-14
5.91666e-15
1.05337e-15
1.76858e-15
4.90653e-14
7.31023e-13
4.71824e-13
-8.20935e-12
3.30023e-10
2.97205e-08
0.0054055
0
-1.89707e-19
-5.23852e-19
-7.68239e-20
2.55175e-22
7.70161e-19
2.81876e-17
3.16679e-16
1.39821e-15
3.49985e-15
5.01107e-15
6.53856e-15
4.29144e-15
1.09834e-15
1.77417e-16
2.36173e-16
4.92034e-15
1.06841e-13
5.32278e-14
-5.61497e-12
9.54947e-11
-1.40422e-08
0.000197137
-1.59673e-19
-1.50208e-19
-3.18384e-19
-6.1013e-20
0
9.41199e-20
3.45808e-18
3.92751e-17
1.74239e-16
4.57141e-16
7.16698e-16
8.73437e-16
6.12678e-16
1.88428e-16
2.90414e-17
3.05274e-17
4.82372e-16
1.06522e-14
1.00305e-14
4.44569e-14
-2.02225e-11
5.79577e-10
6.78796e-07
-1.39159e-19
-8.03809e-20
-1.64552e-19
-3.7387e-20
-1.84878e-21
1.0463e-20
4.01493e-19
4.62428e-18
2.0868e-17
5.40651e-17
8.96504e-17
1.08582e-16
8.08001e-17
2.87223e-17
4.20254e-18
3.33226e-18
4.32949e-17
8.62048e-16
7.28695e-15
-1.69533e-13
1.24544e-12
-8.2832e-10
7.5501e-08
-8.50196e-20
-3.66839e-20
-7.64247e-20
-1.97384e-20
-1.63545e-21
8.05713e-22
4.40803e-20
5.11764e-19
2.35252e-18
6.08788e-18
1.03285e-17
1.25275e-17
9.69658e-18
3.61026e-18
3.35468e-19
8.32129e-20
3.13994e-18
6.52373e-17
1.12844e-15
1.3596e-15
-7.21876e-13
5.7755e-12
6.19872e-09
-4.43054e-20
-1.51588e-20
-3.25261e-20
-9.30161e-21
-9.68333e-22
6.14635e-24
4.63622e-21
5.35541e-20
2.49401e-19
6.52229e-19
1.12101e-18
1.34344e-18
1.0284e-18
2.5936e-19
-1.54074e-35
-3.48236e-20
6.57658e-20
4.58165e-18
5.67932e-17
2.64401e-16
9.68409e-15
-1.45401e-11
4.54486e-10
-2.0817e-20
-5.80506e-21
-1.28004e-20
-3.97742e-21
-4.73773e-22
0
4.71133e-22
5.34594e-21
2.50785e-20
6.61819e-20
1.14705e-19
1.3115e-19
7.69835e-20
5.42144e-21
-2.22354e-19
-3.04851e-19
7.64289e-36
2.04074e-19
2.57115e-18
2.53968e-17
1.15932e-15
4.31585e-14
3.67835e-11
-9.01632e-21
-2.08379e-21
-4.68282e-21
-1.55841e-21
-2.03223e-22
-3.44722e-24
4.38522e-23
5.11923e-22
2.40801e-21
6.37446e-21
1.08928e-20
1.00027e-20
1.71082e-21
-5.27707e-20
-2.2605e-19
-2.76791e-19
-9.66017e-20
-7.76455e-37
1.3547e-19
1.3978e-18
7.49562e-17
2.78491e-15
2.00793e-12
-3.63751e-21
-7.0602e-22
-1.5986e-21
-5.63349e-22
-7.8416e-23
-3.69674e-24
3.59427e-24
4.71748e-23
2.21001e-22
5.78799e-22
8.48333e-22
1.92041e-22
-4.57001e-21
-5.96763e-20
-1.48756e-19
-1.74311e-19
-1.005e-19
0
2.23991e-21
7.99796e-20
4.33252e-18
1.468e-16
6.9072e-14
-1.37437e-21
-2.26927e-22
-5.10883e-22
-1.88893e-22
-2.76041e-23
-1.85519e-24
1.21974e-25
4.16389e-24
1.90431e-23
4.47572e-23
2.1452e-23
-1.29459e-22
-8.04763e-21
-3.81096e-20
-7.84159e-20
-8.87911e-20
-5.83998e-20
-1.67758e-20
0
3.88168e-21
2.26567e-19
6.87303e-18
1.83904e-15
-4.87855e-22
-6.94736e-23
-1.53311e-22
-5.90161e-23
-8.94476e-24
-7.28166e-25
4.62803e-44
3.26844e-25
1.33499e-24
1.38548e-24
0
-6.43357e-22
-5.38662e-21
-1.90992e-20
-3.51725e-20
-3.8497e-20
-2.63262e-20
-1.08295e-20
-1.4004e-21
-1.40833e-25
1.06457e-20
2.90147e-19
4.29059e-17
-1.63024e-22
-2.03262e-23
-4.33351e-23
-1.72506e-23
-2.68507e-24
-2.47229e-25
0
1.05277e-26
2.29537e-26
0
-3.38642e-23
-4.59601e-22
-2.68697e-21
-8.12448e-21
-1.37992e-20
-1.45666e-20
-9.97398e-21
-4.56212e-21
-1.16331e-21
3.0089e-38
4.0337e-22
1.11059e-20
8.80857e-19
-5.13617e-23
-5.69779e-24
-1.15751e-23
-4.73571e-24
-7.50395e-25
-7.55584e-26
-6.23318e-27
-9.18355e-43
-2.64226e-26
-1.58277e-24
-2.61548e-23
-2.31746e-22
-1.12094e-21
-3.0329e-21
-4.81494e-21
-4.8857e-21
-3.28246e-21
-1.53995e-21
-4.70687e-22
-3.01993e-27
1.05104e-24
3.79735e-22
1.59895e-20
-1.52764e-23
-1.53285e-24
-2.93177e-24
-1.2256e-24
-1.96075e-25
-2.12481e-26
-4.86859e-27
-1.11907e-26
-9.80152e-26
-1.24586e-24
-1.34178e-23
-9.62747e-23
-4.08912e-22
-1.01294e-21
-1.51242e-21
-1.46927e-21
-9.55378e-22
-4.42169e-22
-1.42327e-22
-1.88002e-23
1.24402e-40
1.17402e-23
2.76083e-22
-4.29528e-24
-3.96075e-25
-7.06753e-25
-3.00166e-25
-4.80947e-26
-5.58477e-27
-2.52831e-27
-8.88473e-27
-6.56406e-26
-6.3576e-25
-5.59076e-24
-3.48172e-23
-1.33629e-22
-3.06837e-22
-4.31967e-22
-3.99969e-22
-2.48911e-22
-1.10917e-22
-3.53738e-23
-6.42844e-24
-1.75396e-41
1.85396e-25
6.75567e-24
-1.14353e-24
-9.83255e-26
-1.62788e-25
-6.98473e-26
-1.11201e-26
-1.3906e-27
-1.08212e-27
-4.52266e-27
-3.12464e-26
-2.62493e-25
-2.0192e-24
-1.12786e-23
-3.97573e-23
-8.52329e-23
-1.13203e-22
-9.94327e-23
-5.86319e-23
-2.47006e-23
-7.51674e-24
-1.45797e-24
-9.70445e-26
-2.03633e-42
1.72374e-25
-2.88836e-25
-2.34373e-26
-3.59699e-26
-1.55052e-26
-2.43378e-27
-3.32181e-28
-4.05621e-28
-1.86361e-27
-1.23299e-26
-9.39711e-26
-6.52916e-25
-3.33326e-24
-1.09032e-23
-2.19216e-23
-2.74557e-23
-2.27706e-23
-1.26045e-23
-4.94409e-24
-1.39705e-24
-2.61909e-25
-2.46726e-26
1.83305e-42
6.00364e-27
-6.93952e-26
-5.37134e-27
-7.65394e-27
-3.29773e-27
-5.06993e-28
-7.71181e-29
-1.3703e-28
-6.67109e-28
-4.26656e-27
-3.0156e-26
-1.92743e-25
-9.10383e-25
-2.78306e-24
-5.26392e-24
-6.21301e-24
-4.84615e-24
-2.4984e-24
-9.01055e-25
-2.31575e-25
-3.97602e-26
-3.81141e-27
-1.0169e-45
3.11247e-28
-1.59031e-26
-1.17352e-27
-1.5744e-27
-6.73912e-28
-1.00403e-28
-1.7467e-29
-4.25272e-29
-2.15096e-28
-1.33683e-27
-8.87885e-27
-5.28358e-26
-2.3289e-25
-6.68703e-25
-1.19164e-24
-1.32248e-24
-9.64334e-25
-4.57581e-25
-1.48995e-25
-3.38686e-26
-5.03447e-27
-4.14942e-28
0
7.24345e-30
0.999899
0.999898
0.999874
0.993107
0.999904
0.99988
0.999832
0.847931
0.99988
0.999401
0.883936
0.388431
0.924308
0.98459
0.540792
0.0480271
0.365179
0.820487
0.26239
0.035983
0.634336
0.731857
0.17869
0.0327895
0.700475
0.720904
0.467016
0.0323262
0.396947
0.628901
0.622373
0.481319
0.013451
0.181948
0.359624
0.314626
0.0110154
0.00912936
0.00977333
0.0132958
0.0203267
0.00660755
0.00653583
0.00692337
0.0191968
0.0280408
0.00653624
0.0109918
0.0256238
0.0593289
0.00653669
0.025408
0.0648038
0.0648238
0.0169624
0.0762071
0.0646459
0.063909
0.0927621
0.0948661
0.00335526
0.0327863
0.0579297
0.0575555
0.000682947
0.00365243
0.026382
0.0139018
0.000937738
0.0199984
0.0348291
0.00896855
0.00312027
0.0341127
0.0362952
0.0113425
0.0106165
0.0393581
0.0371974
0.000388269
0.0225383
0.0393762
0.0217547
8.07175e-06
0.0287229
0.038794
6.87665e-05
8.01249e-06
0.0287927
0.0191151
2.83182e-05
2.7305e-05
0.0174568
0.000657598
6.48067e-05
4.88838e-05
0.000326681
0.000196858
7.38012e-05
2.86588e-07
2.30805e-06
2.28137e-05
4.98215e-06
2.67599e-08
1.40811e-07
1.51484e-06
2.6099e-07
7.27726e-10
6.97363e-09
7.02729e-08
6.68404e-09
6.11636e-11
2.93926e-10
2.41403e-09
7.54642e-10
2.37634e-11
1.44921e-11
1.20885e-10
7.23808e-11
2.31025e-11
4.69222e-12
9.75581e-12
5.59847e-12
1.32251e-12
3.81795e-13
3.7349e-13
2.40495e-13
1.06898e-13
1.29677e-14
9.86758e-15
1.35493e-14
3.41707e-14
2.79295e-16
4.56815e-16
2.2126e-15
3.50841e-14
5.56345e-18
2.0814e-17
6.49262e-16
1.01413e-14
8.90943e-20
9.83794e-19
1.02295e-16
3.0595e-15
1.46771e-21
3.11959e-20
1.55844e-17
3.98112e-16
4.14757e-23
3.51388e-22
4.50052e-18
5.53951e-17
1.39521e-24
2.26137e-23
8.32068e-19
1.69785e-17
3.37833e-26
1.5033e-24
7.9937e-20
8.14902e-18
6.48539e-28
3.61324e-25
4.14896e-21
2.64484e-19
2.09215e-29
2.1894e-26
5.7047e-24
4.38068e-23
0.532928
0.189279
0.19927
0.611499
0.71202
0.623612
0.103016
0.0410762
0.0244624
0.0153604
0.0150872
0.0151926
0.0153818
0.0579724
0.489519
0.728489
0.728766
0.728564
0.423847
0.230869
0.0992557
0.369635
0.680073
0.700764
0.428423
0.0293905
0.0191248
0.0161849
0.0154098
0.0154095
0.0314795
0.0867959
0.0557612
0.218935
0.724819
0.728489
0.540191
0.336656
0.0510649
0.0746269
0.45369
0.672846
0.577072
0.386947
0.301066
0.179975
0.0506226
0.0161849
0.0215978
0.187684
0.263307
0.0560527
0.133247
0.559444
0.68025
0.33846
0.336656
0.0367038
0.0445085
0.328063
0.548277
0.102682
0.315629
0.486129
0.490087
0.459809
0.236469
0.207314
0.331824
0.265102
0.151988
0.146246
0.458447
0.692972
0.452869
0.592666
0.0327895
0.0327185
0.243805
0.408727
0.0463421
0.298876
0.490087
0.49231
0.49231
0.49231
0.491289
0.359646
0.149991
0.152711
0.347741
0.648695
0.697046
0.721957
0.848364
0.0321923
0.0322151
0.45895
0.469574
0.0273318
0.0549686
0.386374
0.490087
0.49231
0.491289
0.482641
0.169113
0.150364
0.149945
0.154349
0.342076
0.413043
0.512507
0.849172
0.032348
0.192596
0.672274
0.49847
0.000369204
0.000168552
0.000816478
0.161117
0.42727
0.484679
0.395419
0.150364
0.149921
0.150364
0.164856
0.311902
0.49672
0.588623
0.847128
0.453786
0.665888
0.672481
0.474361
0.000168552
2.97236e-05
1.40866e-05
8.02884e-05
0.000398852
0.205613
0.332759
0.279384
0.150364
0.276999
0.441126
0.440041
0.338726
0.36583
0.684692
0.294018
0.526234
0.672378
0.595943
0.00133
2.19701e-05
6.29557e-07
-4.85008e-07
-3.00306e-06
-2.57419e-05
-8.69204e-07
0.0828753
0.186803
0.190127
0.073085
3.07879e-05
0.000135087
0.000997991
0.0747382
0.037669
0.152753
0.396583
0.590666
0.0444428
5.74589e-07
5.17322e-07
3.12202e-07
2.88695e-07
2.86147e-07
2.78292e-07
2.9716e-07
3.81445e-07
6.8097e-07
1.76486e-06
4.2019e-06
4.86666e-06
0.000135087
0.000997958
0.0569646
0.0874855
0.18075
0.219738
0.0385213
3.61408e-07
6.78989e-07
5.54481e-07
2.94285e-07
2.78305e-07
2.7836e-07
2.7836e-07
2.97206e-07
3.81445e-07
6.8097e-07
1.76494e-06
3.76389e-06
0.00112416
0.047582
0.116211
0.115969
0.0512918
0.00183896
0.00795827
1.13886e-06
8.19656e-07
1.14552e-05
6.17861e-06
2.94241e-07
2.7836e-07
2.97206e-07
3.81445e-07
6.8097e-07
1.7627e-06
4.20129e-06
4.86667e-06
0.000621637
0.0529241
0.116923
0.0850186
0.000408724
0.000300386
7.13721e-06
4.59502e-06
8.69811e-06
1.95166e-05
1.94999e-05
1.73781e-06
3.10858e-07
4.46343e-07
2.27555e-06
3.26294e-06
1.01258e-05
1.87457e-05
1.02202e-05
0.000116331
0.0529241
0.115738
0.0310751
0.000126626
7.44699e-05
5.20538e-06
2.95863e-06
1.2812e-05
1.95166e-05
1.95166e-05
1.40132e-05
4.8999e-07
1.01478e-06
1.48106e-05
0.000102323
0.000135726
0.000273773
2.62652e-05
0.00113389
0.0227964
0.0872352
0.00636366
5.40177e-05
2.182e-05
3.02417e-06
2.40732e-06
3.82081e-06
1.95166e-05
1.911e-05
8.82094e-06
1.04478e-06
4.27632e-06
1.01704e-05
0.000472585
0.00286273
0.0035397
9.23831e-05
0.00263358
0.010708
0.0123485
0.0100986
2.68476e-05
8.05581e-06
2.41006e-06
2.33106e-06
2.33934e-06
5.75524e-06
1.84269e-05
4.31798e-06
5.06329e-06
7.0047e-05
5.26686e-05
0.000869382
0.00464939
0.00465577
0.00214252
0.00298511
0.0338529
7.41065e-05
0.00290534
0.000133616
3.55068e-06
2.33106e-06
2.33106e-06
2.33106e-06
6.25458e-06
1.81468e-05
4.29879e-06
5.56237e-07
9.0589e-05
0.000184213
0.00072888
0.00465731
0.00464939
0.00461007
0.00196418
0.0293535
4.2383e-05
7.41065e-05
0.00169372
9.32081e-05
2.9006e-06
2.33106e-06
2.33934e-06
8.24335e-06
1.81452e-05
4.06177e-06
2.30096e-07
9.89098e-06
0.000185262
0.000293847
0.00464939
0.00461007
0.00360518
0.00067745
0.0393345
1.79648e-05
0.000296389
0.00177207
0.000512564
7.4986e-06
2.9006e-06
2.83853e-06
4.33043e-06
8.17938e-07
2.30096e-07
2.06916e-07
2.05845e-07
1.99679e-07
6.20453e-05
0.00460136
0.00345408
0.000193518
0.00014219
0.0838858
8.10399e-06
0.000120296
0.000720601
0.000451199
0.000148859
1.89415e-05
7.73235e-07
1.78861e-07
1.85906e-07
2.28293e-07
2.08212e-07
1.96552e-07
1.99679e-07
1.97033e-07
0.00396634
0.000210886
2.7268e-06
0.000161983
0.0855045
8.01873e-06
7.67129e-06
1.99714e-06
3.60629e-05
5.04446e-05
2.2751e-05
1.04053e-08
1.84678e-08
1.16445e-07
2.65952e-07
6.94178e-07
2.87635e-07
1.96958e-07
2.02718e-07
0.000546239
8.14244e-06
2.43937e-06
0.000426758
0.0855779
9.3183e-06
3.74717e-06
1.91472e-06
2.82391e-10
-2.52151e-10
1.53362e-10
9.00613e-10
1.00148e-08
2.85614e-07
4.89082e-06
4.56327e-06
4.90886e-07
2.02718e-07
2.35669e-07
2.23325e-06
2.96078e-06
2.43791e-06
0.000868834
0.0855779
8.36534e-06
7.38214e-07
7.47275e-10
2.95646e-10
2.36956e-10
2.92878e-10
3.02793e-10
9.14671e-10
5.59725e-06
6.72011e-06
5.04414e-06
4.88782e-07
2.35669e-07
8.18192e-05
4.52081e-05
4.46647e-06
2.35604e-06
0.00100571
0.0855779
1.51821e-06
6.21863e-09
6.36136e-10
2.21434e-10
1.97137e-10
2.3863e-10
2.80099e-10
3.49942e-06
6.99745e-06
6.8903e-06
1.22476e-06
6.14287e-07
3.55823e-07
0.0007941
0.000381484
2.35604e-06
2.26716e-06
0.000802401
0.0855233
2.64321e-08
2.33664e-09
2.62885e-10
9.20744e-11
8.12421e-11
9.44033e-11
3.59875e-07
6.96885e-06
6.99745e-06
3.44228e-06
1.84678e-07
3.59824e-07
1.36545e-05
0.000820895
0.000437156
2.26716e-06
2.25115e-06
0.000582678
0.0850544
3.09571e-09
3.34214e-10
8.07794e-11
7.83287e-11
7.89132e-11
8.12421e-11
4.36316e-06
6.86971e-06
6.99745e-06
1.05946e-06
7.49925e-08
7.35955e-06
5.69456e-05
0.000820936
9.09051e-05
2.25291e-06
2.25291e-06
0.000550845
0.0813211
1.01767e-10
1.55517e-11
4.95797e-11
6.7554e-11
7.83287e-11
4.15613e-07
6.68329e-06
6.7255e-06
3.48354e-06
3.38649e-08
2.03165e-08
5.03013e-05
7.1329e-05
0.000809389
2.63601e-06
2.34064e-06
2.25169e-06
0.00100375
0.0200246
1.70693e-11
9.16635e-12
5.18184e-11
5.52437e-11
6.81384e-11
6.62417e-07
6.10362e-06
5.03085e-06
1.93136e-07
7.8894e-09
8.06113e-09
7.6097e-05
0.000238633
7.78279e-05
3.37815e-06
2.63588e-06
2.34066e-06
0.000735167
2.40925e-08
2.63086e-11
6.23626e-12
2.40653e-10
4.17773e-09
1.11344e-10
3.51547e-07
1.5921e-07
5.43962e-09
6.58294e-09
7.40278e-09
7.80083e-09
7.5607e-05
0.000734999
0.000117707
3.85302e-06
4.07926e-06
1.71436e-06
2.42969e-08
2.37312e-08
4.00951e-12
5.05441e-12
5.50882e-12
1.72231e-08
1.99416e-08
2.97635e-09
4.06455e-09
4.97714e-09
5.90152e-09
6.72345e-09
7.40278e-09
0.000142448
0.000735783
0.000197966
5.55782e-06
1.10721e-05
1.80406e-05
2.69852e-08
2.43021e-08
8.49154e-13
1.78764e-11
1.13855e-11
2.09582e-09
5.95776e-09
2.77993e-09
1.00349e-08
1.38569e-08
7.63246e-09
7.40278e-09
7.80085e-09
2.35994e-05
0.000732967
0.000180494
7.62247e-05
0.000235674
4.96582e-05
3.55542e-08
2.69904e-08
3.42647e-13
5.98982e-11
1.25032e-10
3.42677e-12
2.84399e-12
2.80046e-12
1.99071e-09
3.03019e-09
6.7472e-09
1.02355e-08
8.38204e-09
1.2775e-08
0.000163991
0.000171962
0.00105437
0.00111731
6.95631e-05
5.74631e-08
3.55539e-08
4.50782e-13
2.74999e-12
8.83017e-12
7.40451e-12
2.85039e-12
2.48495e-12
2.80033e-12
1.36912e-09
5.07331e-08
4.41002e-08
1.27749e-08
0.000129953
0.000374324
0.000572825
0.00142393
0.00139446
7.17316e-05
1.03797e-07
6.34228e-08
1.05197e-13
2.33168e-13
3.3993e-13
2.94758e-13
2.78801e-13
2.75215e-13
-3.60679e-10
2.20713e-08
2.27556e-05
1.97825e-05
5.07162e-07
1.35812e-06
0.00117963
0.00142454
0.0014225
0.00106935
3.32874e-05
6.08719e-08
1.23928e-07
3.15982e-14
5.56505e-14
6.8141e-14
7.70631e-14
8.06001e-14
2.85725e-13
-1.6133e-10
1.38393e-05
5.5183e-05
5.54466e-05
8.64469e-06
4.48713e-06
0.000477024
0.00140956
0.00142431
0.000516638
1.88359e-06
8.17594e-08
3.54885e-08
7.35035e-15
6.85329e-15
2.28782e-14
6.01613e-14
9.70712e-14
4.26015e-12
4.25757e-06
5.5183e-05
5.54698e-05
5.53763e-05
4.2709e-05
6.30007e-06
9.27218e-06
0.000582251
0.00106107
0.00017639
4.64453e-08
-3.13575e-09
2.36543e-10
1.10478e-15
9.75738e-16
1.22814e-12
1.23993e-13
8.92771e-13
5.30659e-11
1.52223e-05
4.84513e-05
5.5271e-05
5.54685e-05
5.5271e-05
1.60251e-05
1.52032e-05
7.08951e-05
3.71336e-07
3.61472e-08
6.90004e-10
-4.09005e-10
4.93987e-12
2.63373e-16
3.45933e-18
1.18031e-11
1.8227e-12
2.66396e-11
1.41688e-07
2.96578e-07
1.90096e-06
2.51174e-05
5.5271e-05
5.5035e-05
5.49932e-05
3.39662e-05
3.70617e-07
3.84488e-08
3.12387e-09
8.20417e-11
-2.09264e-11
1.76014e-13
7.83749e-17
2.21992e-18
3.49411e-11
2.85147e-10
1.6081e-08
2.38715e-12
3.30264e-13
2.38834e-12
2.23481e-10
2.45269e-05
5.49932e-05
5.49977e-05
3.65316e-05
8.79007e-07
3.99064e-09
2.08234e-10
5.97915e-12
-4.27632e-13
2.5768e-15
4.82679e-18
1.14396e-18
6.70887e-11
3.54365e-10
8.13595e-11
1.03272e-13
3.10338e-13
3.30264e-13
2.83237e-12
1.20511e-11
1.39658e-05
2.09168e-05
5.43637e-06
6.03587e-07
2.432e-10
4.70932e-12
2.87915e-14
-1.36004e-15
5.64832e-17
6.49727e-20
6.64505e-20
3.18672e-11
2.40902e-10
1.71356e-11
1.2713e-25
3.52308e-13
1.68704e-11
4.74517e-12
2.53196e-12
1.20494e-11
3.40395e-10
1.09835e-06
6.48435e-07
3.36011e-10
-8.96117e-15
-4.2461e-14
-4.7194e-17
-3.62137e-18
1.05795e-22
4.21225e-16
5.71382e-30
-1.92579e-36
-1.63626e-35
-2.21535e-34
4.51464e-13
4.64068e-11
4.68634e-12
-1.29828e-16
7.05641e-10
3.16536e-08
-2.43912e-24
-1.44491e-19
-9.40789e-20
-3.77415e-17
-1.81891e-18
-3.64079e-20
-2.69829e-22
)
;

boundaryField
{
    leftWall
    {
        type            zeroGradient;
    }
    rightWall
    {
        type            zeroGradient;
    }
    lowerWall
    {
        type            zeroGradient;
    }
    atmosphere
    {
        type            inletOutlet;
        inletValue      uniform 0;
        value           nonuniform List<scalar> 
46
(
-1.59031e-26
-1.17352e-27
-1.5744e-27
-6.73912e-28
-1.00403e-28
-1.7467e-29
-4.25272e-29
-2.15096e-28
-1.33683e-27
-8.87885e-27
-5.28358e-26
-2.3289e-25
-6.68703e-25
-1.19164e-24
-1.32248e-24
-9.64334e-25
-4.57581e-25
-1.48995e-25
-3.38686e-26
-5.03447e-27
-4.14942e-28
0
7.24345e-30
2.09215e-29
0
0
0
0
0
0
0
0
0
0
0
0
0
0
0
0
0
0
0
0
0
0
)
;
    }
    defaultFaces
    {
        type            empty;
    }
}


// ************************************************************************* //
