/*--------------------------------*- C++ -*----------------------------------*\
| =========                 |                                                 |
| \\      /  F ield         | OpenFOAM: The Open Source CFD Toolbox           |
|  \\    /   O peration     | Version:  2206                                  |
|   \\  /    A nd           | Website:  www.openfoam.com                      |
|    \\/     M anipulation  |                                                 |
\*---------------------------------------------------------------------------*/
FoamFile
{
    version     2.0;
    format      ascii;
    arch        "LSB;label=32;scalar=64";
    class       volScalarField;
    location    "0.775";
    object      p;
}
// * * * * * * * * * * * * * * * * * * * * * * * * * * * * * * * * * * * * * //

dimensions      [1 -1 -2 0 0 0 0];

internalField   nonuniform List<scalar> 
2268
(
614.253
613.749
614.1
616.195
623.08
636.977
655.818
675.112
693.124
710.404
727.03
742.879
757.607
770.841
781.909
788.354
790.243
789.964
792.126
802.463
820.232
832.096
826.999
554.721
553.608
553.613
555.226
561.558
576.082
596.317
616.149
634.372
651.834
668.611
684.5
699.259
712.465
724.01
733.004
735.882
731.751
729.755
740.251
757.156
767.966
764.371
491.991
490.629
491.065
492.775
498.881
514.27
536.048
557.067
575.684
593.191
609.979
625.896
640.737
654.137
666.005
676.016
680.005
675.286
674.16
683.562
697.206
703.752
699.391
426.681
425.447
426.76
428.63
434.321
450.783
475.148
498.118
517.309
534.885
551.677
567.624
582.561
596.187
608.305
618.494
623.642
621.208
621.67
628.379
637.666
638.999
633.151
359.868
358.755
361.037
363.286
369.083
387.186
414.935
439.892
459.391
476.908
493.655
509.644
524.733
538.661
551.135
561.767
568.38
570.881
570.095
573.229
577.925
573.937
565.768
292.336
291.065
294.456
297.794
304.945
325.427
356.422
382.468
401.895
419.251
435.864
451.868
467.142
481.47
494.355
505.509
513.054
516.216
515.963
516.708
518.123
509.305
498.166
224.815
222.927
227.797
233.225
243.2
266.705
299.376
325.269
344.44
361.885
378.382
394.331
409.756
424.542
437.776
449.364
457.367
460.774
460.336
459.453
458.47
446.403
428.535
156.626
155.966
161.948
170.116
183.601
209.882
244.48
268.824
287.545
304.504
320.921
336.847
352.475
367.94
381.845
393.77
402.113
405.314
404.045
401.743
399.333
385.722
354.755
1506.46
1438.65
1480.34
1424.93
1392.77
1492.45
1538.51
1379.24
1156.82
975.263
857.972
790.968
730.805
604.108
505.783
489.453
555.695
694.232
785.125
1457.65
1393.84
1410.45
1240.67
1233.77
1388.51
1434.68
1259.03
1057.88
892.989
790.941
781.748
743.278
539.495
408.372
400.305
467.667
603.152
723.284
1426.83
1356.1
1240.33
1050.36
1109.51
1253.86
1245.78
1088.67
917.91
777.434
691.635
677.883
613.16
433.119
344.902
359.306
416.559
531.906
677.505
1438.35
1292.69
1033.24
960.691
1004.79
1091.85
1041.37
908.898
767.905
642.27
557.132
527.953
487.959
388.907
326.958
347.787
409.932
519.57
676.267
1417.9
1167.38
896.318
885.634
919.125
927.63
851.886
733.421
615.199
503.384
429.128
398.816
386.489
356.654
322.893
354.773
424.754
545.11
704.69
1307.29
993.532
812.812
809.811
827.023
775.842
671.638
565.063
460.869
355.086
287.099
264.143
272.9
284.146
289.015
348.982
456.77
613.574
745.913
1089.37
819.419
744.407
739.791
731.733
635.414
497.04
399.091
315.509
240.758
225.323
223.496
223.011
222.557
235.411
317.586
476.672
645.09
766.434
774.859
684.46
674.015
667.886
635.801
502.486
346.77
281.466
239.903
221.008
219.357
219.858
217.654
210.468
205.441
277.784
461.995
631.621
749.206
66.4932
66.9606
75.4004
88.6374
106.336
127.624
152.201
175.446
195.883
214.417
231.283
247.097
262.76
278.509
294.144
307.418
316.193
318.524
315.489
311.314
307.326
296.264
280.326
12.0576
9.2765
11.4127
16.2338
24.9977
36.1299
49.059
63.7663
79.744
96.2447
111.518
126.039
142.132
159.318
177.091
193.592
204.779
206.029
198.901
190.354
183.96
177.459
173.388
3.74051
2.55308
1.72461
1.60409
2.21258
3.17656
4.80912
7.72551
13.1163
20.6006
28.0404
36.8645
46.9474
58.5156
78.8399
104.275
121.087
116.099
94.5093
74.5718
64.223
62.9184
76.6361
2.29099
1.62194
1.2037
1.00976
0.886686
0.770568
0.641268
0.519373
0.397422
0.231545
0.182728
1.15291
4.12124
8.36174
17.8378
36.4463
50.9956
43.1936
18.084
-3.31692
-15.0228
-21.9316
-15.2413
1.24076
0.867089
0.631385
0.50163
0.455177
0.392761
0.264087
0.129086
0.0575938
0.0762823
0.26536
0.616472
0.858563
1.15267
3.72483
12.1018
21.2398
16.2549
-9.24339
-33.1005
-46.0906
-55.3174
-58.9133
0.628271
0.302143
0.188901
0.135571
0.150682
0.114606
0.00445497
-0.132716
-0.214249
-0.172047
-0.0163186
0.19173
0.378863
0.707473
1.89817
4.10651
-3.25516
-21.7431
-44.8091
-58.1035
-62.0954
-71.0576
-85.3226
0.281056
-0.0969482
-0.123628
-0.152152
-0.103259
-0.108951
-0.173674
-0.252767
-0.313125
-0.286697
-0.195223
-0.0391205
0.0190088
-0.302696
-0.964481
-0.0600308
-0.0914884
1.50986
-13.8906
-9.85233
23.7938
16.595
-15.4238
0.0491414
-0.266143
-0.352369
-0.36794
-0.322232
-0.317476
-0.355408
-0.405754
-0.446964
-0.457548
-0.444968
-0.435272
-0.554855
-1.12177
-2.07206
-2.51987
3.23608
25.4022
26.7511
0.355045
-3.35918
-1.74738
-2.20689
-0.171081
-0.328371
-0.438516
-0.486564
-0.481718
-0.49303
-0.532701
-0.581068
-0.62705
-0.666813
-0.71244
-0.797004
-0.983043
-1.37624
-1.89823
-2.32753
-2.1219
-1.81666
-1.91984
-2.28044
-2.36909
-0.402856
2.40224
-0.411108
-0.425098
-0.495744
-0.571227
-0.613548
-0.652946
-0.702788
-0.757291
-0.814149
-0.874387
-0.94682
-1.05163
-1.21373
-1.45083
-1.71035
-1.85397
-1.82758
-1.68956
-1.6747
-1.69081
-1.46089
1.11276
6.0668
-0.643642
-0.601429
-0.634572
-0.706456
-0.767879
-0.822925
-0.878887
-0.936365
-0.997313
-1.06387
-1.14052
-1.23595
-1.35665
-1.49865
-1.63611
-1.70863
-1.69415
-1.56059
-1.4909
-1.44602
-1.28265
-0.397475
1.78338
-0.849474
-0.815077
-0.839548
-0.894487
-0.950993
-1.00616
-1.06146
-1.11762
-1.17658
-1.24009
-1.31015
-1.38948
-1.47779
-1.56781
-1.64369
-1.67936
-1.65462
-1.58248
-1.48637
-1.34025
-1.14882
-0.934394
0.282592
-1.04743
-1.03547
-1.05818
-1.09854
-1.14498
-1.19407
-1.24478
-1.29693
-1.3515
-1.40929
-1.47072
-1.53592
-1.6027
-1.66483
-1.71142
-1.72917
-1.70946
-1.6534
-1.57273
-1.47392
-1.34419
-1.00286
-0.262261
-1.2493
-1.25162
-1.26961
-1.3007
-1.33881
-1.38118
-1.42629
-1.47349
-1.52296
-1.5747
-1.62824
-1.68264
-1.73556
-1.78237
-1.81571
-1.83168
-1.81933
-1.77982
-1.72278
-1.65829
-1.52773
-1.39155
-1.88136
-1.45155
-1.45701
-1.47229
-1.49778
-1.52951
-1.56597
-1.60575
-1.64798
-1.69234
-1.73833
-1.78521
-1.83182
-1.87619
-1.91525
-1.94478
-1.9618
-1.96247
-1.94522
-1.9195
-1.90371
-1.8652
-2.03142
-0.828136
-1.64839
-1.65379
-1.66782
-1.6894
-1.71633
-1.74793
-1.78296
-1.82062
-1.86033
-1.90144
-1.94317
-1.98448
-2.02395
-2.05968
-2.08955
-2.11254
-2.12901
-2.14091
-2.16178
-2.23901
-2.42691
-2.7854
-2.85008
-1.83961
-1.84438
-1.85721
-1.87577
-1.89907
-1.92675
-1.95776
-1.99145
-2.02722
-2.06445
-2.10242
-2.1403
-2.17719
-2.21211
-2.2444
-2.27459
-2.30525
-2.34137
-2.39713
-2.52471
-2.77757
-2.97643
-2.94419
-2.0256
-2.02975
-2.04129
-2.05745
-2.07792
-2.10242
-2.13013
-2.16051
-2.19304
-2.2272
-2.26241
-2.29806
-2.33362
-2.36874
-2.40358
-2.43923
-2.47836
-2.52579
-2.58869
-2.70019
-2.88215
-2.94189
-2.95882
-2.20665
-2.21036
-2.22068
-2.23489
-2.2531
-2.27501
-2.30001
-2.32768
-2.35757
-2.38927
-2.42236
-2.45644
-2.49123
-2.52664
-2.56307
-2.60156
-2.64402
-2.69324
-2.7522
-2.83227
-2.97499
-2.99905
-2.982
-2.38319
-2.38664
-2.39581
-2.40844
-2.42479
-2.44456
-2.46733
-2.49275
-2.52046
-2.55017
-2.58158
-2.61444
-2.6486
-2.68409
-2.72119
-2.76064
-2.80339
-2.85042
-2.90265
-2.95956
-3.03699
-3.03043
-2.98558
-2.55562
-2.55888
-2.56703
-2.57837
-2.59316
-2.61115
-2.63204
-2.65557
-2.68146
-2.70951
-2.73952
-2.77135
-2.80493
-2.8403
-2.87767
-2.91741
-2.95989
-3.00485
-3.05117
-3.09141
-3.12149
-3.08291
-3.04498
-2.72427
-2.72737
-2.73465
-2.74493
-2.75841
-2.77489
-2.79418
-2.81607
-2.8404
-2.86701
-2.89579
-2.9267
-2.95972
-2.99496
-3.03262
-3.07297
-3.11628
-3.16222
-3.20913
-3.25149
-3.27926
-3.2508
-3.25156
-2.88942
-2.89236
-2.89891
-2.90832
-2.92068
-2.93588
-2.95377
-2.97423
-2.99715
-3.02246
-3.05013
-3.08016
-3.11265
-3.14779
-3.18592
-3.22757
-3.27343
-3.32427
-3.38042
-3.44263
-3.5109
-3.60396
-3.88333
-3.05135
-3.05413
-3.06007
-3.06873
-3.08014
-3.09421
-3.11086
-3.13003
-3.15166
-3.17574
-3.20231
-3.23145
-3.26334
-3.29832
-3.33695
-3.38019
-3.42953
-3.48749
-3.55843
-3.65137
-3.79772
-4.0346
-4.66103
-3.21033
-3.21293
-3.21836
-3.22637
-3.23692
-3.24999
-3.26552
-3.28348
-3.30387
-3.32674
-3.35216
-3.38029
-3.41139
-3.44592
-3.48466
-3.52891
-3.58087
-3.64436
-3.7267
-3.84045
-4.03035
-4.32248
-5.04025
-3.3666
-3.36902
-3.37401
-3.38142
-3.3912
-3.40334
-3.41781
-3.43461
-3.45378
-3.4754
-3.49958
-3.52651
-3.5565
-3.59007
-3.6281
-3.67198
-3.72399
-3.78793
-3.87047
-3.98171
-4.14898
-4.38255
-4.80828
-3.52041
-3.52264
-3.52723
-3.53409
-3.54313
-3.55439
-3.56784
-3.58351
-3.60145
-3.62175
-3.64455
-3.67005
-3.69855
-3.73058
-3.76693
-3.80881
-3.85807
-3.9174
-3.99076
-4.08333
-4.20376
-4.35365
-4.5654
-3.67199
-3.67403
-3.67825
-3.68458
-3.69291
-3.70332
-3.71577
-3.7303
-3.74698
-3.7659
-3.78718
-3.81102
-3.8377
-3.86766
-3.90154
-3.94026
-3.98508
-4.03764
-4.09996
-4.17451
-4.26385
-4.36901
-4.49289
-3.82155
-3.82341
-3.82728
-3.83309
-3.84074
-3.8503
-3.86175
-3.87515
-3.89053
-3.90799
-3.92764
-3.94966
-3.97426
-4.0018
-4.03275
-4.06776
-4.10766
-4.15345
-4.20628
-4.26744
-4.33789
-4.41785
-4.50395
-3.9693
-3.97098
-3.97451
-3.97981
-3.98678
-3.99551
-4.00598
-4.01822
-4.03227
-4.04823
-4.06618
-4.08625
-4.10863
-4.13357
-4.16139
-4.19254
-4.22756
-4.26703
-4.31158
-4.36175
-4.41756
-4.4783
-4.54069
-4.11542
-4.11694
-4.12013
-4.12493
-4.13124
-4.13915
-4.14863
-4.15971
-4.17243
-4.18685
-4.20305
-4.22113
-4.24122
-4.26349
-4.28815
-4.31549
-4.34582
-4.37945
-4.41665
-4.45749
-4.50165
-4.54826
-4.59509
-4.26008
-4.26146
-4.26431
-4.26863
-4.2743
-4.28139
-4.28989
-4.29981
-4.3112
-4.32409
-4.33854
-4.35462
-4.37241
-4.39203
-4.4136
-4.43728
-4.46325
-4.49163
-4.52248
-4.55573
-4.59098
-4.62752
-4.66385
-4.40347
-4.4047
-4.40723
-4.41109
-4.41611
-4.42241
-4.42994
-4.43873
-4.4488
-4.46017
-4.47289
-4.487
-4.50255
-4.51959
-4.53821
-4.55848
-4.58047
-4.60422
-4.62969
-4.65676
-4.68507
-4.71407
-4.74275
-4.54574
-4.54683
-4.54905
-4.55244
-4.55684
-4.56236
-4.56895
-4.57663
-4.58541
-4.5953
-4.60634
-4.61854
-4.63192
-4.64652
-4.66237
-4.67948
-4.69789
-4.71757
-4.73846
-4.7604
-4.78313
-4.80624
-4.82911
-4.68705
-4.68798
-4.6899
-4.69285
-4.69664
-4.70141
-4.70708
-4.71369
-4.72122
-4.72969
-4.7391
-4.74947
-4.7608
-4.77309
-4.78636
-4.80059
-4.81578
-4.83188
-4.84881
-4.86645
-4.88458
-4.90295
-4.92115
-4.82754
-4.8283
-4.82995
-4.83247
-4.83567
-4.8397
-4.84449
-4.85006
-4.85639
-4.86349
-4.87136
-4.87999
-4.88939
-4.89953
-4.91042
-4.92202
-4.93432
-4.94725
-4.96075
-4.97472
-4.98901
-5.00344
-5.01778
-4.96734
-4.96793
-4.96931
-4.97141
-4.97404
-4.97738
-4.98132
-4.98589
-4.99108
-4.99688
-5.00329
-5.01029
-5.01788
-5.02603
-5.03474
-5.04396
-5.05366
-5.06379
-5.07431
-5.08512
-5.09614
-5.10727
-5.11837
-5.10659
-5.10697
-5.10811
-5.10981
-5.1119
-5.11457
-5.1177
-5.12133
-5.12543
-5.13
-5.13504
-5.14052
-5.14644
-5.15277
-5.15948
-5.16655
-5.17394
-5.18161
-5.18953
-5.19763
-5.20587
-5.2142
-5.22258
-5.2454
-5.24556
-5.24648
-5.24779
-5.24937
-5.25139
-5.25375
-5.25649
-5.25957
-5.26299
-5.26675
-5.27083
-5.27521
-5.27986
-5.28478
-5.28992
-5.29527
-5.30079
-5.30646
-5.31223
-5.3181
-5.32406
-5.33015
-5.38387
-5.38382
-5.38455
-5.38546
-5.38655
-5.38797
-5.3896
-5.3915
-5.39362
-5.39597
-5.39855
-5.40133
-5.4043
-5.40744
-5.41074
-5.41418
-5.41773
-5.42138
-5.4251
-5.42889
-5.43273
-5.43667
-5.44076
-5.52205
-5.52183
-5.52239
-5.52291
-5.52354
-5.52437
-5.52531
-5.52641
-5.52764
-5.52899
-5.53047
-5.53206
-5.53374
-5.53552
-5.53738
-5.5393
-5.54127
-5.54329
-5.54534
-5.54741
-5.54952
-5.55169
-5.55399
-5.66034
-5.65998
-5.66021
-5.66037
-5.66058
-5.66086
-5.66116
-5.66152
-5.6619
-5.66233
-5.66279
-5.66328
-5.66379
-5.66433
-5.66488
-5.66544
-5.66601
-5.66658
-5.66716
-5.66774
-5.66834
-5.66897
-5.66968
285.96
106.766
-102.888
-508.493
170.703
8.40764
-294.82
-270.467
100.443
31.32
-101.456
-49.7892
18.108
73.8042
56.1292
16.4046
-59.6151
0.060537
74.1703
36.6688
-98.9179
-43.7483
75.4219
48.9243
-52.5118
-23.7565
78.5556
65.6137
4.25927
-1.63145
68.1813
76.178
2.36058
5.6719
29.4526
61.1796
8.56605
6.63131
9.40603
25.2135
7.70078
10.7154
9.7241
16.1192
3.52734
8.14237
7.67668
10.5952
1.5706
3.99809
5.43053
4.98329
-1.51638
-0.765204
3.06109
1.37946
-0.778831
-2.10882
0.932176
2.60098
-2.824
-1.91829
4.27003
-1.19254
-2.99123
-2.46358
0.0349951
-3.6493
-2.96323
-2.80381
-2.35724
-3.99034
-2.97336
-3.27938
-3.22988
-3.84755
-3.00354
-3.65931
-3.02668
-3.78014
-3.31694
-3.94649
-3.50184
-3.78436
-3.97636
-4.43062
-4.33843
-3.95658
-5.55697
-4.46842
-4.50632
-4.17861
-6.05104
-5.54695
-4.69142
-4.38044
-5.90504
-5.59941
-4.84949
-4.47414
-5.27201
-5.22183
-4.81043
-4.50538
-4.84205
-4.89533
-4.72368
-4.53507
-4.65582
-4.72177
-4.67298
-4.57401
-4.60883
-4.67681
-4.66324
-4.61709
-4.61368
-4.66984
-4.68047
-4.6657
-4.64947
-4.69686
-4.71781
-4.7204
-4.706
-4.74556
-4.76994
-4.78171
-4.77614
-4.8088
-4.83359
-4.84952
-4.85612
-4.88509
-4.9064
-4.92328
-4.9428
-4.96633
-4.98586
-5.00239
-5.03497
-5.05413
-5.07127
-5.0868
-5.13184
-5.14739
-5.16225
-5.17679
-5.23295
-5.2455
-5.25842
-5.27223
-5.3379
-5.34787
-5.35909
-5.37226
-5.44617
-5.45372
-5.46329
-5.47573
-5.55718
-5.56226
-5.57014
-5.58168
-5.67073
-5.67314
-5.67911
-5.6894
236.337
486.583
539.913
540.818
489.377
335.997
256.518
237.632
223.512
219.266
218.027
217.98
214.975
203.701
187.798
235.105
409.798
566.76
678.799
89.575
229.401
306.138
353.588
331.374
242.546
234.302
227.037
220.202
215.565
213.787
212.49
201.616
183.912
178.207
216.166
366.272
529.372
626.37
32.9375
59.9243
98.991
185.716
206.946
184.183
213.66
212.031
210.714
208.77
205.4
196.591
165.951
158.696
157.791
194.345
346.956
501.032
592.281
7.61828
6.76533
25.0867
126.36
149.428
130.922
149.435
161.36
173.518
186.686
180.221
155.407
124.646
130.387
140.851
174.237
263.579
377.413
497.849
6.32664
2.7493
17.8199
103.957
98.4575
71.0515
76.1947
89.8727
102.835
117.419
121.235
107.654
98.2818
103.262
125.778
169.902
205.687
235.339
346.809
21.4226
8.35653
31.9778
75.5865
27.1933
14.9424
16.9902
29.6821
44.4861
64.6549
87.7003
90.9238
95.2036
112.978
150.039
188.53
202.541
185.535
233.972
42.2269
22.4453
42.1773
16.935
7.44602
3.44424
1.32044
3.35152
6.34285
25.9244
55.3971
75.3673
83.0546
104.081
140.315
171.409
188.554
168.878
144.042
46.055
53.8404
34.957
2.98186
2.30821
1.57135
1.15441
0.257278
-0.624369
5.74217
9.48488
29.5994
44.638
58.0989
69.1712
44.7905
47.0955
88.3863
128.993
98.2147
97.8733
52.5141
3.88426
2.04033
0.97292
0.672854
0.38966
0.120044
-0.635659
-0.760893
4.0577
11.0467
11.1825
5.6829
2.953
5.4458
16.3662
51.7062
45.9165
49.345
46.703
2.37938
0.431041
0.457407
0.327179
0.0373163
-0.176067
-0.306027
-0.34779
-0.442016
-0.549158
-0.647866
-0.498013
-0.461439
-0.303883
3.06904
17.6212
20.0242
5.41988
-21.2919
-16.0331
-1.24133
-0.139665
-0.0185922
-0.340555
-0.59685
-0.736603
-0.760526
-0.710133
-0.606125
-0.47262
-0.390814
-0.498629
-0.61648
-0.234408
3.13428
6.49447
-11.8968
-19.0047
-15.3664
-3.81039
-1.20267
-0.898151
-0.997996
-1.12883
-1.17957
-1.15491
-1.05993
-0.913748
-0.731755
-0.565248
-0.582764
-0.534772
-0.580599
0.327109
0.0394034
-7.07872
-8.81352
-8.29982
-4.8082
-2.62949
-2.29296
-2.05278
-1.92606
-1.80429
-1.67992
-1.53008
-1.34999
-1.11222
-0.880381
-0.780958
-0.68064
-0.656948
-0.416507
1.02927
-3.99007
-5.06604
-5.78342
-5.09646
-4.22197
-3.7935
-3.2869
-2.84622
-2.50678
-2.26025
-2.0478
-1.85672
-1.61383
-1.31127
-1.07323
-0.970016
-0.98058
-1.04168
1.60571
-2.15246
-4.41428
-5.4542
-5.72163
-5.57221
-5.14829
-4.46717
-3.73415
-3.18255
-2.82914
-2.5746
-2.40863
-2.23609
-1.93589
-1.51458
-1.3478
-1.47632
-1.44667
-4.48726
-2.66818
-4.61153
-5.8125
-6.48723
-6.58215
-6.15991
-5.33638
-4.39972
-3.71422
-3.31282
-3.05534
-2.9144
-2.90224
-2.74514
-2.20684
-1.87973
-2.06071
-1.81364
-3.93119
-3.85594
-4.72313
-5.99612
-6.76611
-6.91723
-6.52483
-5.66479
-4.68207
-4.0198
-3.65646
-3.4404
-3.31482
-3.43797
-3.36601
-2.90637
-2.62364
-2.74817
-2.34874
-3.76487
-3.83638
-4.27352
-5.59376
-6.2576
-6.44027
-6.14448
-5.45364
-4.6721
-4.13829
-3.85704
-3.69813
-3.60946
-3.66894
-3.69899
-3.44615
-3.23619
-3.44798
-2.9006
-3.76525
-3.67356
-3.85223
-4.61947
-5.1019
-5.34527
-5.2668
-4.89053
-4.43947
-4.1256
-3.95193
-3.84297
-3.7737
-3.78002
-3.80882
-3.78532
-3.59403
-3.73015
-3.31314
-3.68584
-3.52117
-3.39779
-3.63609
-4.02168
-4.35011
-4.47981
-4.39611
-4.22315
-4.08548
-3.99728
-3.92675
-3.87147
-3.85883
-3.8926
-3.87552
-3.7166
-3.76541
-3.41858
-3.65791
-3.45476
-3.27403
-3.36311
-3.6229
-3.91912
-4.10802
-4.15218
-4.11621
-4.07011
-4.0288
-3.98196
-3.94153
-3.91987
-3.94347
-3.883
-3.80523
-3.82797
-3.55048
-3.80583
-3.64422
-3.52059
-3.52059
-3.69417
-3.8929
-4.02407
-4.08151
-4.09105
-4.0807
-4.05855
-4.02345
-3.99319
-3.96142
-3.94792
-3.92873
-3.88536
-3.91995
-3.6203
-3.98748
-3.83723
-3.74456
-3.74599
-3.83671
-3.95001
-4.03797
-4.08896
-4.11053
-4.11122
-4.09316
-4.06009
-4.03344
-3.99171
-3.97575
-3.99073
-3.96626
-4.02703
-3.69159
-4.15682
-4.02546
-3.953
-3.94401
-3.98513
-4.04585
-4.1003
-4.13776
-4.15725
-4.15724
-4.1367
-4.10254
-4.08015
-4.02654
-4.02594
-4.062
-4.05706
-4.12022
-3.80466
-4.27876
-4.1775
-4.12142
-4.10533
-4.11979
-4.14976
-4.18155
-4.20702
-4.22031
-4.21599
-4.19275
-4.16223
-4.14801
-4.10315
-4.11999
-4.16291
-4.16129
-4.21515
-3.95258
-4.36474
-4.29646
-4.25537
-4.23776
-4.23946
-4.25294
-4.27073
-4.28686
-4.29355
-4.28536
-4.26123
-4.2427
-4.24346
-4.23975
-4.24631
-4.31592
-4.2685
-4.30844
-4.1918
-4.44193
-4.39654
-4.36709
-4.3514
-4.34799
-4.3532
-4.36296
-4.37251
-4.37398
-4.36337
-4.33873
-4.33712
-4.35492
-4.42567
-4.3983
-4.48457
-4.42588
-4.4409
-3.80721
-4.51491
-4.48448
-4.46426
-4.45241
-4.44821
-4.45005
-4.45576
-4.4613
-4.45942
-4.44729
-4.4231
-4.44021
-4.46917
-4.57598
-4.56251
-4.67114
-4.63115
-4.74767
-4.81099
-4.58336
-4.56482
-4.55247
-4.54515
-4.54246
-4.54384
-4.54824
-4.55211
-4.54917
-4.53615
-4.51481
-4.54829
-4.6085
-4.70787
-4.74383
-4.82145
-4.80132
-4.86834
-4.86586
-4.65012
-4.64103
-4.63533
-4.63251
-4.63244
-4.63513
-4.64029
-4.64492
-4.64393
-4.63267
-4.61871
-4.663
-4.77273
-4.87469
-4.93363
-4.9613
-4.93678
-4.94567
-4.94525
-4.71727
-4.71548
-4.7152
-4.71646
-4.71943
-4.7246
-4.73228
-4.74011
-4.74459
-4.74061
-4.74252
-4.79528
-4.9294
-5.03711
-5.08912
-5.10481
-5.07659
-5.04623
-5.02894
-4.78647
-4.78981
-4.79366
-4.79837
-4.8045
-4.81301
-4.8247
-4.83785
-4.84999
-4.85673
-4.87418
-4.93397
-5.05905
-5.16473
-5.24385
-5.27434
-5.21237
-5.14043
-5.10266
-4.85869
-4.86524
-4.872
-4.87955
-4.88889
-4.90161
-4.91876
-4.93894
-4.95901
-4.97423
-4.99254
-5.04196
-5.15721
-5.2989
-5.44962
-5.46873
-5.30922
-5.19115
-5.13219
-4.93448
-4.94278
-4.95147
-4.9613
-4.97391
-4.99162
-5.0154
-5.04423
-5.07401
-5.09784
-5.11307
-5.14952
-5.27176
-5.48445
-5.67289
-5.5934
-5.32659
-5.16485
-5.09154
-5.01424
-5.02338
-5.03334
-5.04497
-5.06085
-5.08373
-5.1141
-5.15297
-5.19676
-5.23479
-5.25535
-5.28194
-5.38973
-5.56526
-5.64105
-5.4622
-5.21808
-5.06484
-5.00051
-5.09875
-5.10836
-5.11918
-5.13219
-5.15098
-5.17788
-5.21324
-5.26273
-5.32427
-5.38165
-5.41376
-5.40825
-5.40876
-5.40764
-5.32599
-5.17618
-5.04896
-4.96527
-4.93069
-5.18886
-5.19895
-5.21046
-5.22449
-5.24499
-5.27342
-5.31074
-5.36752
-5.44357
-5.51925
-5.56013
-5.52551
-5.42271
-5.28648
-5.1577
-5.04776
-4.98684
-4.95467
-4.94262
-5.28462
-5.29531
-5.30754
-5.32229
-5.34281
-5.36984
-5.40475
-5.458
-5.53336
-5.61477
-5.66089
-5.61781
-5.47169
-5.29173
-5.15358
-5.07773
-5.04785
-5.03817
-5.03617
-5.385
-5.39625
-5.40913
-5.42436
-5.44389
-5.46786
-5.49639
-5.53539
-5.59086
-5.65265
-5.68887
-5.64627
-5.51596
-5.36422
-5.25482
-5.20174
-5.18504
-5.18159
-5.18181
-5.48856
-5.50009
-5.5133
-5.52863
-5.54683
-5.56748
-5.58946
-5.61358
-5.64206
-5.66913
-5.67586
-5.64136
-5.56631
-5.46565
-5.39988
-5.36409
-5.35166
-5.34938
-5.3499
-5.59423
-5.60563
-5.61874
-5.63367
-5.65047
-5.66836
-5.68575
-5.70092
-5.71208
-5.7141
-5.70231
-5.67346
-5.63103
-5.58341
-5.54844
-5.52961
-5.52466
-5.52633
-5.5286
-5.70122
-5.7121
-5.72467
-5.739
-5.75494
-5.77132
-5.78606
-5.79666
-5.79957
-5.78931
-5.76758
-5.74062
-5.71742
-5.70108
-5.69374
-5.6963
-5.70615
-5.71723
-5.72361
)
;

boundaryField
{
    leftWall
    {
        type            calculated;
        value           nonuniform List<scalar> 
50
(
614.253
554.721
491.991
426.681
359.868
292.336
224.815
156.626
66.4932
12.0576
3.74051
2.29099
1.24076
0.628271
0.281056
0.0491414
-0.171081
-0.411108
-0.643642
-0.849474
-1.04743
-1.2493
-1.45155
-1.64839
-1.83961
-2.0256
-2.20665
-2.38319
-2.55562
-2.72427
-2.88942
-3.05135
-3.21033
-3.3666
-3.52041
-3.67199
-3.82155
-3.9693
-4.11542
-4.26008
-4.40347
-4.54574
-4.68705
-4.82754
-4.96734
-5.10659
-5.2454
-5.38387
-5.52205
-5.66034
)
;
    }
    rightWall
    {
        type            calculated;
        value           nonuniform List<scalar> 
50
(
785.125
723.284
677.505
676.267
704.69
745.913
766.434
749.206
678.799
626.37
592.281
497.849
346.809
233.972
144.042
128.993
51.7062
17.6212
3.13428
0.327109
-0.416507
-1.04168
-1.44667
-1.81364
-2.34874
-2.9006
-3.31314
-3.41858
-3.55048
-3.6203
-3.69159
-3.80466
-3.95258
-4.1918
-3.80721
-4.81099
-4.86586
-4.94525
-5.02894
-5.10266
-5.13219
-5.09154
-5.00051
-4.93069
-4.94262
-5.03617
-5.18181
-5.3499
-5.5286
-5.72361
)
;
    }
    lowerWall
    {
        type            calculated;
        value           nonuniform List<scalar> 
62
(
643.682
643.178
643.53
645.625
652.509
666.407
685.247
704.541
722.554
739.834
756.46
772.308
787.036
800.27
811.338
817.401
817.963
818.794
821.488
831.823
849.566
861.408
856.411
826.999
764.371
699.391
633.151
565.768
498.166
428.535
354.755
348.551
169.357
-40.2989
-446.327
1506.46
1457.65
1426.83
1438.35
1417.9
1307.29
1089.37
774.859
1523.44
1450.55
1493.49
1449.63
1417.24
1510.7
1556.87
1403.78
1181.92
1000.7
884.051
817.246
757.084
630.387
532.062
515.727
581.941
720.347
811.013
)
;
    }
    atmosphere
    {
        type            calculated;
        value           nonuniform List<scalar> 
46
(
-5.72904
-5.72904
-5.72904
-5.72904
-5.72904
-5.72904
-5.72904
-5.72904
-5.72904
-5.72904
-5.72904
-5.72904
-5.72904
-5.72904
-5.72904
-5.72904
-5.72904
-5.72904
-5.72904
-5.72904
-5.72904
-5.72904
-5.72904
-5.72904
-5.7298
-5.73462
-5.744
-5.75514
-5.76553
-5.77753
-5.79146
-5.80752
-5.82419
-5.8385
-5.84781
-5.84853
-5.83611
-5.81071
-5.77904
-5.75648
-5.75237
-5.76276
-5.7825
-5.80515
-5.82466
-5.83403
)
;
    }
    defaultFaces
    {
        type            empty;
    }
}


// ************************************************************************* //
