/*--------------------------------*- C++ -*----------------------------------*\
| =========                 |                                                 |
| \\      /  F ield         | OpenFOAM: The Open Source CFD Toolbox           |
|  \\    /   O peration     | Version:  2206                                  |
|   \\  /    A nd           | Website:  www.openfoam.com                      |
|    \\/     M anipulation  |                                                 |
\*---------------------------------------------------------------------------*/
FoamFile
{
    version     2.0;
    format      ascii;
    arch        "LSB;label=32;scalar=64";
    class       volScalarField;
    location    "0.775";
    object      p_rgh;
}
// * * * * * * * * * * * * * * * * * * * * * * * * * * * * * * * * * * * * * //

dimensions      [1 -1 -2 0 0 0 0];

internalField   nonuniform List<scalar> 
2268
(
643.682
643.178
643.53
645.625
652.509
666.407
685.247
704.541
722.554
739.834
756.46
772.308
787.036
800.27
811.338
817.401
817.963
818.794
821.488
831.823
849.566
861.408
856.411
643.009
641.896
641.901
643.514
649.846
664.37
684.605
704.437
722.66
740.123
756.899
772.788
787.547
800.753
812.296
819.498
819.032
814.839
814.448
825.249
841.885
855.256
852.641
639.137
637.776
638.211
639.922
646.028
661.417
683.195
704.214
722.831
740.338
757.126
773.042
787.884
801.284
813.151
822.644
821.632
813.794
812.638
822.075
836.526
850.447
846.509
632.687
631.453
632.765
634.635
640.327
656.788
681.154
704.123
723.314
740.891
757.683
773.63
788.566
802.193
814.311
824.499
829.411
824.939
824.77
832.382
843.671
845.004
839.118
624.732
623.619
625.901
628.15
633.948
652.05
679.799
704.756
724.256
741.773
758.519
774.509
789.598
803.526
815.999
826.631
833.245
835.746
834.959
838.093
842.789
838.8
830.63
616.059
614.788
618.179
621.517
628.668
649.15
680.145
706.191
725.618
742.974
759.587
775.591
790.865
805.193
818.078
829.232
836.777
839.939
839.686
840.431
841.846
833.027
821.883
607.396
605.509
610.379
615.807
625.782
649.286
681.958
707.851
727.022
744.466
760.963
776.913
792.338
807.123
820.358
831.946
839.949
843.355
842.918
842.035
841.052
828.983
811.105
598.066
597.407
603.389
611.556
625.042
651.323
683.723
710.264
728.986
745.945
762.361
778.288
793.916
809.381
823.285
835.21
843.554
846.755
845.486
843.183
840.773
827.161
796.182
1523.44
1450.55
1493.49
1449.63
1417.24
1510.7
1556.87
1403.78
1181.92
1000.7
884.051
817.246
757.084
630.387
532.062
515.727
581.941
720.347
811.013
1511.42
1429.53
1469.97
1312.86
1269.75
1425.66
1487.22
1312.72
1118.16
942.18
839.703
834.587
819.122
618.33
477.265
454.1
519.487
663.034
785.915
1516.3
1422.34
1338.64
1130.22
1152.97
1345.04
1353.57
1196.44
1021.64
885.191
797.222
765.928
702.135
543.279
408.862
397.636
454.882
570.236
716.146
1566.11
1421.87
1163.88
1008.99
1059.17
1242.59
1192.26
1059.8
918.781
793.141
708
678.395
638.137
461.961
381.386
401.433
463.593
573.295
731.969
1582.19
1331.4
980.961
947.73
1018.74
1121.25
1045.69
927.36
809.137
697.347
623.102
592.521
579.922
546.773
415.363
424.752
512.254
704.07
790.411
1507.76
1173.95
879.538
884.101
1060.8
1012.08
907.55
801.392
697.416
591.468
511.821
483.214
508.571
517.923
496.339
507.393
669.542
847.39
885.814
1324.64
1027.89
822.339
823.102
1006.3
913.081
772.02
674.306
578.824
406.968
280.124
257.347
278.93
369.203
501.8
592.102
754.601
923.826
932.724
1043.61
912.763
763.937
807.526
951.279
819.131
576.826
436.462
339.17
228.149
226.499
226.959
224.83
217.692
432.286
598.196
783.7
953.416
1011.56
444.462
460.31
472.941
488.022
512.86
588.277
671.523
708.913
729.35
747.884
764.75
780.564
796.227
811.976
827.611
840.885
849.659
851.991
848.956
844.78
840.792
829.728
813.78
91.5841
70.3484
103.081
148.316
220.689
329.659
445.986
556.245
648.935
713.99
754.106
779.779
799.93
817.979
835.751
852.248
863.428
864.672
857.543
848.998
842.608
836.112
832.034
5.52298
3.56806
2.64795
5.06327
19.7557
34.806
57.4612
96.9409
168.26
267.041
358.469
428.252
499.406
593.586
683.286
744.491
782.188
797.682
792.511
789.597
801.551
827.535
860.442
3.51075
2.57643
2.12754
1.9197
1.79581
1.67987
1.55098
1.42961
1.30888
1.14951
1.12394
10.3843
58.9058
125.098
191.746
230.017
237.96
222.958
204.88
195.281
218.78
322.913
582.702
2.32663
1.91524
1.66773
1.53596
1.48943
1.42703
1.29839
1.16346
1.09252
1.1131
1.30965
1.687
2.0154
2.58496
5.98769
16.7812
35.9896
64.3661
55.3518
40.2455
28.6677
19.4409
16.5785
1.79983
1.46487
1.34872
1.29502
1.31012
1.27405
1.1639
1.02673
0.945257
0.988003
1.14904
1.3895
1.74079
2.80279
6.87183
38.5332
360.825
567.247
543.699
274.349
151.931
180.065
372.28
1.57417
1.19387
1.16108
1.13248
1.18138
1.17568
1.11096
1.03187
0.971525
0.998
1.09009
1.25462
1.41059
1.75076
4.13375
121.704
642.805
747.929
732.707
736.328
720.515
841.031
872.183
1.46182
1.15247
1.05817
1.04189
1.0876
1.09235
1.05442
1.00407
0.962882
0.952306
0.964931
0.990928
0.932673
0.747985
0.146988
0.0722067
135.603
612.64
666.536
135.411
5.45021
14.4753
50.3463
1.36442
1.20949
1.0976
1.04847
1.05331
1.04199
1.00232
0.953955
0.908036
0.868304
0.822683
0.748383
0.564789
0.172823
0.1873
0.667337
-0.582905
-0.272539
-0.363482
-0.642574
4.7988
16.8899
28.3645
1.24918
1.23522
1.16492
1.08905
1.04667
1.00727
0.95743
0.902926
0.846131
0.785981
0.713729
0.608698
0.446651
0.210512
-0.0271553
-0.147129
-0.165131
-0.0258579
0.00838183
0.155351
19.0309
37.0488
42.1569
1.14178
1.184
1.15085
1.07897
1.01753
0.962487
0.906526
0.849047
0.788121
0.721652
0.645255
0.54948
0.428778
0.286855
0.149896
0.0770918
0.0919984
0.225193
0.29618
0.357795
2.87691
32.5084
43.589
1.06113
1.09553
1.07106
1.01612
0.959614
0.904449
0.849143
0.792984
0.734025
0.670545
0.600601
0.521135
0.432826
0.342813
0.266977
0.231324
0.256295
0.328419
0.424633
0.572103
0.808413
1.13909
5.19441
0.988375
1.00033
0.977624
0.937259
0.89082
0.84173
0.791026
0.738873
0.684297
0.626513
0.565085
0.499889
0.433107
0.37098
0.324386
0.306671
0.326618
0.382634
0.463374
0.600706
1.00459
1.44231
6.11594
0.911696
0.909378
0.891387
0.860295
0.822188
0.77982
0.734707
0.68751
0.638032
0.5863
0.532759
0.47836
0.425444
0.378632
0.345287
0.329357
0.341702
0.381223
0.438362
0.540946
0.710917
3.91423
80.615
0.834641
0.829185
0.813902
0.788415
0.75668
0.720217
0.680444
0.638207
0.593851
0.547861
0.500987
0.45438
0.410003
0.370943
0.341418
0.324415
0.323725
0.340983
0.367014
0.391271
0.573371
19.8535
117.644
0.762991
0.757596
0.743562
0.721987
0.695056
0.663458
0.628429
0.590768
0.551059
0.509945
0.468225
0.426915
0.387437
0.351707
0.321837
0.298848
0.282375
0.270483
0.249784
0.177262
1.31963
8.58223
1.20651
0.696966
0.692195
0.679367
0.660809
0.637508
0.609834
0.578823
0.545133
0.509363
0.47213
0.434166
0.396285
0.35939
0.324472
0.292177
0.261987
0.231333
0.195211
0.139532
0.0145266
1.46053
7.32485
1.06626
0.636169
0.632027
0.620485
0.604328
0.583851
0.559351
0.531646
0.501262
0.468731
0.43457
0.39937
0.363722
0.328153
0.293033
0.25819
0.222545
0.183414
0.135983
0.0731115
-0.0374244
1.7078
5.9412
1.21398
0.580315
0.576605
0.56629
0.552076
0.533867
0.511959
0.486957
0.459289
0.429401
0.397696
0.364609
0.33053
0.295744
0.26033
0.223902
0.185411
0.142949
0.0937325
0.0348114
-0.0318953
1.273
1.67634
0.856719
0.52897
0.525526
0.516354
0.503722
0.487376
0.467605
0.444836
0.419417
0.391702
0.361989
0.330581
0.297722
0.26356
0.228077
0.190974
0.151526
0.108774
0.0617411
0.00952793
-0.0424497
0.212245
-0.026503
0.102003
0.481737
0.478476
0.470326
0.458983
0.444194
0.426206
0.405316
0.381791
0.355895
0.327843
0.297834
0.266008
0.232431
0.197059
0.159692
0.119948
0.0774714
0.0325048
-0.0138083
-0.0530073
-0.0831117
-0.0125107
0.670581
0.438286
0.435184
0.427905
0.417619
0.404143
0.38766
0.368376
0.346482
0.322157
0.295545
0.266758
0.235854
0.202828
0.167589
0.129937
0.0895795
0.0462754
0.000336185
-0.0465819
-0.0889384
-0.116572
-0.0840153
5.2248
0.398326
0.395386
0.388833
0.379427
0.367064
0.351869
0.33398
0.31352
0.290596
0.265285
0.237618
0.207582
0.175092
0.139953
0.101823
0.0601749
0.0143151
-0.0365212
-0.0926697
-0.15488
-0.223141
-0.316014
30.4522
0.361589
0.358816
0.352869
0.34421
0.332805
0.318731
0.302077
0.282911
0.261281
0.237201
0.210634
0.18149
0.149598
0.114622
0.0759899
0.0327544
-0.0165884
-0.0745535
-0.145488
-0.238424
-0.384778
-0.621555
17.1821
0.327809
0.325209
0.319774
0.311768
0.301214
0.288144
0.272617
0.254657
0.234263
0.2114
0.185978
0.157844
0.126742
0.0922138
0.0534779
0.00922525
-0.0427308
-0.106223
-0.188565
-0.302313
-0.492214
-0.784395
-0.805313
0.29673
0.294312
0.289323
0.281909
0.272135
0.259993
0.245524
0.228719
0.209546
0.187932
0.163755
0.136825
0.106833
0.0732557
0.0352316
-0.00864668
-0.0606612
-0.124598
-0.207139
-0.318379
-0.48565
-0.719217
-1.14247
0.268115
0.265882
0.261295
0.254434
0.245393
0.234133
0.220683
0.205013
0.187073
0.166772
0.143974
0.118479
0.0899708
0.0579415
0.0215963
-0.0202898
-0.0695456
-0.128878
-0.202234
-0.294809
-0.415235
-0.565126
-0.776585
0.241733
0.239686
0.235469
0.229142
0.220804
0.210401
0.19795
0.183415
0.166737
0.147823
0.12654
0.102699
0.0760169
0.0460581
0.012181
-0.02654
-0.0713579
-0.12392
-0.18624
-0.260786
-0.350127
-0.455286
-0.579148
0.217363
0.215502
0.211635
0.205829
0.198178
0.188616
0.177159
0.163768
0.148386
0.130927
0.111272
0.089258
0.0646513
0.0371128
0.0061654
-0.0288444
-0.0687424
-0.114534
-0.167363
-0.228526
-0.29898
-0.378938
-0.465031
0.194809
0.193124
0.189597
0.1843
0.177324
0.168594
0.158129
0.145892
0.131834
0.11588
0.0979313
0.0778557
0.0554737
0.0305387
0.00271559
-0.028436
-0.0634478
-0.102921
-0.147475
-0.197639
-0.253449
-0.314196
-0.376585
0.173887
0.172361
0.169173
0.164371
0.158058
0.150151
0.140674
0.129596
0.116875
0.102453
0.086251
0.0681689
0.0480784
0.0258119
0.0011486
-0.0261889
-0.0565151
-0.0901475
-0.127345
-0.168189
-0.212352
-0.25896
-0.30579
0.154417
0.153037
0.150184
0.145863
0.140202
0.133106
0.124608
0.114683
0.103297
0.0904098
0.0759609
0.0598807
0.0420845
0.0224679
0.000896984
-0.0227875
-0.04875
-0.0771279
-0.107986
-0.141229
-0.176485
-0.21302
-0.249348
0.136225
0.134987
0.13246
0.128606
0.123585
0.117286
0.109753
0.100964
0.0908962
0.0795232
0.066804
0.0526944
0.0371453
0.0200984
0.00148105
-0.0187867
-0.0407759
-0.0645234
-0.0900022
-0.117066
-0.145379
-0.174375
-0.203054
0.119148
0.118058
0.115841
0.112444
0.108048
0.102528
0.0959383
0.0882581
0.0794779
0.069582
0.0585462
0.0463474
0.0329616
0.018363
0.00252003
-0.0145973
-0.0330044
-0.0526852
-0.0735727
-0.0955156
-0.118244
-0.141355
-0.164225
0.103035
0.102099
0.100178
0.0972267
0.0934384
0.088674
0.0829997
0.0763953
0.0688622
0.0603939
0.0509793
0.0406114
0.0292823
0.0169874
0.0037227
-0.0105109
-0.0256974
-0.0417962
-0.0587292
-0.0763643
-0.0945005
-0.112866
-0.13107
0.0877403
0.0869707
0.0853296
0.0828101
0.0796102
0.0755749
0.0707844
0.0652167
0.0588829
0.0517833
0.0439159
0.0352839
0.0258904
0.0157439
0.00485809
-0.00674737
-0.0190414
-0.0319757
-0.0454781
-0.0594443
-0.0737325
-0.0881657
-0.102506
0.0731281
0.0725418
0.0711624
0.0690609
0.0664267
0.063091
0.0591503
0.0545752
0.0493866
0.0435883
0.0371837
0.0301821
0.0225941
0.0144367
0.00573369
-0.00348623
-0.0131876
-0.0233249
-0.0338392
-0.0446536
-0.0556746
-0.0667987
-0.0779016
0.0590723
0.0586903
0.0575517
0.0558545
0.0537601
0.0510939
0.0479655
0.0443346
0.040232
0.0356596
0.0306255
0.0251428
0.0192264
0.0128982
0.00618584
-0.000881721
-0.008272
-0.0159473
-0.0238629
-0.0319662
-0.0402031
-0.048531
-0.0569158
0.0454627
0.0453013
0.0443754
0.043072
0.041491
0.0394651
0.0371091
0.0343712
0.0312909
0.0278649
0.0241063
0.0200304
0.0156527
0.0109957
0.00608346
0.000940044
-0.00440791
-0.00993098
-0.0155972
-0.0213747
-0.0272422
-0.0332038
-0.0392918
0.0321801
0.0322367
0.031508
0.0305938
0.0295003
0.0280836
0.0264562
0.0245583
0.0224361
0.0200797
0.0175055
0.0147264
0.0117556
0.00861179
0.00531276
0.00187662
-0.00167626
-0.00532464
-0.00904831
-0.0128324
-0.0166782
-0.0206151
-0.0247107
0.0192013
0.0194138
0.0188606
0.0183386
0.0177053
0.0168734
0.0159351
0.0148334
0.0136121
0.0122552
0.0107797
0.00919304
0.00750447
0.00572679
0.00387127
0.0019494
-2.57265e-05
-0.0020415
-0.00408819
-0.0061617
-0.00826998
-0.0104425
-0.0127463
0.00610563
0.00646058
0.00622842
0.00606807
0.00586004
0.00557812
0.00528296
0.00492626
0.00454307
0.00411497
0.00365576
0.00316623
0.00265105
0.00211585
0.00156541
0.00100319
0.000432855
-0.000141838
-0.00071909
-0.00130108
-0.00189685
-0.0025272
-0.00323304
819.374
640.179
430.512
21.3007
829.301
666.991
363.731
288.133
884.206
814.707
591.514
255.164
858.42
968.861
548.154
60.9291
318.726
848.831
346.309
74.881
636.981
805.106
283.555
88.0631
847.727
902.7
679.185
108.384
564.737
885.535
946.153
755.486
24.5226
286.223
582.467
545.189
28.496
23.4331
27.2759
48.9256
45.7415
24.2862
23.167
30.2534
42.0788
63.5743
22.063
33.4858
55.7192
126.695
20.7604
58.6929
140.545
141.34
41.8411
168.059
149.152
146.139
215.078
221.552
7.67011
79.4744
146.232
139.868
1.27597
9.32842
69.4246
34.115
2.1921
53.036
92.9191
22.5198
8.501
94.4836
100.61
30.519
30.7947
113.755
108.102
0.261595
68.1088
118.571
65.5462
-0.722507
89.933
121.297
-0.958622
-0.768713
92.2991
61.602
-1.12556
-0.801177
56.8812
0.108085
-1.05752
-0.800828
-1.21221
-1.36546
-1.0505
-0.934991
-1.60023
-1.47501
-1.12887
-0.841955
-1.05299
-1.10108
-0.934164
-0.746543
-0.742069
-0.807776
-0.759234
-0.660288
-0.569917
-0.637891
-0.624321
-0.578176
-0.449574
-0.505734
-0.516366
-0.501589
-0.360164
-0.407561
-0.428508
-0.431098
-0.291505
-0.331062
-0.355439
-0.367213
-0.236449
-0.269113
-0.293894
-0.309828
-0.191231
-0.220205
-0.241513
-0.258394
-0.152722
-0.176252
-0.19578
-0.212305
-0.119696
-0.138856
-0.155999
-0.171525
-0.0913749
-0.106921
-0.121779
-0.136323
-0.0672893
-0.0798396
-0.092757
-0.106564
-0.0470359
-0.0570067
-0.0682272
-0.0813975
-0.0301177
-0.0376668
-0.0472349
-0.0596774
-0.0159352
-0.0210156
-0.0288888
-0.0404271
-0.00429117
-0.00670136
-0.012663
-0.0229528
520.885
587.99
646.644
867.24
869.37
668.874
311.952
260.056
237.082
227.986
226.601
226.61
223.706
235.13
449.213
623.875
798.715
955.569
905.215
242.146
295.37
550.018
801.736
793.137
525.108
254.299
240.28
231.51
226.364
224.585
233.862
259.387
221.262
322.925
693.758
846.279
885.478
848.549
73.7088
119.146
455.047
713.387
659.619
487.975
450.201
353.748
251.139
222.228
223.096
344.345
372.923
203.373
262.916
633.214
880.424
766.854
856.69
41.8596
48.0944
323.924
625.182
243.587
418.467
591.817
607.337
591.998
402.342
369.4
457.659
366.306
269.323
274.572
591.48
893.804
789.59
1036.98
41.2393
37.5886
270.757
527.293
147.373
380.887
583.592
599.567
612.53
627.114
629.875
480.278
254.288
262.079
486.102
841.175
926.917
982.308
1224.38
59.8698
46.8301
564.73
620.644
60.0106
79.7709
465.679
598.5
615.879
634.865
647.894
287.963
270.527
287.816
329.978
585.909
682.121
780.321
1218.71
85.0254
270.898
906.225
657.93
9.20447
4.94518
3.6529
211.406
555.964
649.222
564.142
269.621
276.741
298.336
353.168
572.974
827.305
925.573
1232.49
686.585
993.1
983.502
672.49
3.95544
3.02304
2.58408
1.78019
1.34721
296.742
479.559
424.499
257.823
449.64
691.871
665.963
525.573
605.038
1094.74
550.623
906.383
1085.13
919.29
5.61489
2.54163
2.20884
1.92394
1.65046
0.85989
0.772797
132.681
299.042
304.275
119.293
4.53524
7.18798
19.4316
167.851
110.053
304.355
706.118
983.693
75.8022
2.11858
1.98825
1.69805
1.48463
1.35467
1.31289
1.2187
1.11169
1.01348
1.16513
1.20575
1.36441
4.95331
20.9366
123.413
163.247
302.884
377.683
69.2518
1.64639
1.76803
1.44585
1.18909
1.04931
1.02538
1.07578
1.17982
1.31347
1.39581
1.28993
1.17565
3.55608
89.7882
230.217
211.364
80.8065
-9.9458
13.2901
0.710106
1.01402
0.934475
0.793566
0.731594
0.756224
0.851239
0.997587
1.18015
1.34872
1.33586
1.38512
2.51652
103.254
239.87
167.865
-5.94647
-5.6531
-2.75789
-0.584341
-0.239469
0.0227136
0.149401
0.235046
0.356509
0.506626
0.69044
0.93022
1.17601
1.29297
1.37595
1.61544
109.255
253.05
65.2568
-2.63168
-3.46166
-2.92423
-2.05459
-1.60484
-1.08377
-0.643094
-0.315536
-0.0981952
0.115389
0.336253
0.76806
1.14274
1.6788
1.24768
3.6283
50.333
203.129
14.6677
-2.00472
-3.11818
-3.42853
-3.28052
-2.85338
-2.1364
-1.40431
-0.876212
-0.540568
-0.278639
-0.0992104
1.12944
6.88851
8.85595
1.14939
6.82472
25.2956
27.6713
24.0705
-2.13547
-3.38171
-4.07004
-4.16515
-3.74289
-2.91113
-1.94394
-1.29244
-0.88924
-0.475213
-0.37614
1.60346
10.8665
11.4202
5.69293
7.54173
82.1486
-1.20682
6.04291
-1.84796
-3.45055
-4.22362
-4.37474
-3.98234
-3.11236
-2.09951
-1.47233
-1.11848
-0.674267
-0.311436
0.945623
10.9724
11.412
11.5951
4.76573
74.5708
-0.990395
-0.977545
2.89204
-2.68414
-3.58811
-3.7723
-3.47648
-2.76994
-1.96207
-1.46571
-1.19465
-1.01005
-0.455053
-0.225795
11.326
11.4743
9.01218
1.01521
104.356
-0.928261
-0.0613958
3.86851
-0.405429
-2.29405
-2.55023
-2.47193
-2.0915
-1.65022
-1.33799
-1.16438
-1.05543
-0.986172
-0.82031
11.7892
8.61843
-0.268275
-0.547301
233.027
-0.750102
-0.259039
1.61078
0.588727
-0.67645
-1.38284
-1.56539
-1.48343
-1.31044
-1.17265
-1.08451
-1.01402
-0.958725
-0.946097
10.5586
-0.349831
-0.7965
-0.381994
248.248
-0.596223
-0.39413
-0.230613
-0.216324
-0.432473
-0.812726
-1.07063
-1.11477
-1.07849
-1.03194
-0.989337
-0.943732
-0.903571
-0.881894
0.751349
-0.820938
-0.760466
0.50431
259.158
-0.613841
-0.469828
-0.351991
-0.358038
-0.531619
-0.73035
-0.861514
-0.918926
-0.927591
-0.902692
-0.881579
-0.859348
-0.829993
-0.798119
-0.778308
-0.756828
-0.71511
1.98758
269.916
-0.672254
-0.547056
-0.456815
-0.458244
-0.548962
-0.662265
-0.750226
-0.801211
-0.804398
-0.801399
-0.788847
-0.770733
-0.744918
-0.43523
-0.539514
-0.688317
-0.670775
2.56393
280.673
-0.738706
-0.612501
-0.540061
-0.531064
-0.572191
-0.632906
-0.68736
-0.712888
-0.720449
-0.720801
-0.719585
-0.687507
-0.665993
2.0939
0.687686
-0.641021
-0.636392
2.02853
291.202
-0.740536
-0.639357
-0.583279
-0.567197
-0.581658
-0.611626
-0.642138
-0.644251
-0.657444
-0.665687
-0.653963
-0.622819
-0.561613
2.33652
0.963314
-0.616757
-0.615202
1.38251
300.219
-0.701402
-0.633127
-0.592037
-0.574425
-0.576133
-0.589608
-0.591435
-0.598386
-0.604614
-0.618148
-0.597623
-0.552436
-0.371727
2.42793
-0.250301
-0.64434
-0.59692
1.3708
297.08
-0.653408
-0.608012
-0.578568
-0.562871
-0.559461
-0.563101
-0.549142
-0.558534
-0.572273
-0.574714
-0.550133
-0.358221
-0.296433
2.42618
-0.599797
-0.687188
-0.628829
3.14657
75.769
-0.601194
-0.570766
-0.55054
-0.538691
-0.53449
-0.53374
-0.518181
-0.527914
-0.544947
-0.533543
-0.509346
-0.228967
0.377559
-0.357966
-0.635582
-0.747112
-0.708275
2.04041
-0.897177
-0.544443
-0.52591
-0.513556
-0.506216
-0.503548
-0.50351
-0.508684
-0.513176
-0.510233
-0.497203
-0.475869
-0.204315
2.39604
-0.194029
-0.689372
-0.766075
-0.755492
-0.829324
-0.826849
-0.486016
-0.476925
-0.471218
-0.468334
-0.46825
-0.471012
-0.476161
-0.480791
-0.479797
-0.468535
-0.454569
0.0936894
2.45219
0.112944
-0.746399
-0.751129
-0.697625
-0.781451
-0.781043
-0.427966
-0.426178
-0.425901
-0.427149
-0.4301
-0.435282
-0.44293
-0.450747
-0.455256
-0.45128
-0.453187
-0.40485
2.50068
0.0256144
-0.473189
0.19436
-0.574497
-0.75677
-0.73952
-0.371977
-0.375315
-0.379157
-0.38387
-0.389999
-0.398515
-0.410196
-0.42334
-0.435465
-0.44219
-0.459645
-0.519419
0.0786645
0.00813266
3.82051
4.0676
-0.491097
-0.725679
-0.688001
-0.318998
-0.325548
-0.332304
-0.339854
-0.349193
-0.361914
-0.379072
-0.399242
-0.41909
-0.434338
-0.452787
0.0870909
1.0801
1.83864
5.54782
5.39503
-0.44421
-0.650984
-0.592206
-0.269589
-0.27789
-0.286582
-0.296416
-0.309023
-0.326736
-0.350513
-0.379244
-0.303076
-0.340767
-0.445823
-0.478303
4.89048
5.81909
5.62116
4.05489
-0.506576
-0.49968
-0.426076
-0.22416
-0.233303
-0.24326
-0.254892
-0.270767
-0.293644
-0.324019
-0.296668
-0.142613
-0.179385
-0.4239
-0.470391
1.68305
5.96997
5.96475
1.80015
-0.418982
-0.274365
-0.21026
-0.183471
-0.193083
-0.203901
-0.216913
-0.2357
-0.262608
-0.27706
-0.0764893
-0.136618
-0.194455
-0.288766
-0.462036
-0.447956
2.3667
4.79954
0.605239
-0.133461
-0.0500059
-0.01541
-0.148391
-0.158475
-0.169992
-0.184019
-0.204516
-0.232954
-0.193619
-0.0830788
-0.12479
-0.199469
-0.24135
-0.40435
-0.305687
0.110982
-0.11536
-0.00711124
0.0536289
0.085803
0.0978493
-0.11896
-0.129647
-0.141877
-0.156624
-0.177144
-0.203439
-0.237551
-0.282529
-0.238076
-0.163875
-0.211214
-0.16835
-0.13074
-0.124152
0.0122812
0.0879541
0.117813
0.127493
0.129496
-0.0941367
-0.105392
-0.118274
-0.133502
-0.152947
-0.177002
-0.205529
-0.244534
-0.299995
-0.232152
-0.107345
-0.0647198
-0.0320142
-0.0687195
0.0360637
0.0891157
0.105824
0.109269
0.109053
-0.0725104
-0.0840364
-0.0972509
-0.112575
-0.130774
-0.151425
-0.173402
-0.197521
-0.226011
-0.25308
-0.184239
-0.112136
-0.120847
-0.046331
0.0161754
0.051961
0.0643892
0.0666718
0.0661517
-0.0529791
-0.0643824
-0.0774902
-0.0924241
-0.109217
-0.127117
-0.1445
-0.159669
-0.170832
-0.172854
-0.161061
-0.13221
-0.0837013
-0.0385725
-0.007188
0.0116419
0.0165866
0.0149206
0.0126469
-0.0347724
-0.0456597
-0.0582247
-0.0725613
-0.0884989
-0.104874
-0.119618
-0.130217
-0.133124
-0.122868
-0.101134
-0.0740012
-0.0509744
-0.0346389
-0.0272979
-0.0298571
-0.0397121
-0.0507838
-0.0571665
)
;

boundaryField
{
    leftWall
    {
        type            fixedFluxPressure;
        gradient        uniform 0;
        value           nonuniform List<scalar> 
50
(
643.682
643.009
639.137
632.687
624.732
616.059
607.396
598.066
444.462
91.5841
5.52298
3.51075
2.32663
1.79983
1.57417
1.46182
1.36442
1.24918
1.14178
1.06113
0.988375
0.911696
0.834641
0.762991
0.696966
0.636169
0.580315
0.52897
0.481737
0.438286
0.398326
0.361589
0.327809
0.29673
0.268115
0.241733
0.217363
0.194809
0.173887
0.154417
0.136225
0.119148
0.103035
0.0877403
0.0731281
0.0590723
0.0454627
0.0321801
0.0192013
0.00610563
)
;
    }
    rightWall
    {
        type            fixedFluxPressure;
        gradient        uniform 0;
        value           nonuniform List<scalar> 
50
(
811.013
785.915
716.146
731.969
790.411
885.814
932.724
1011.56
905.215
848.549
856.69
1036.98
1224.38
1218.71
1232.49
1094.74
167.851
20.9366
89.7882
103.254
109.255
50.333
25.2956
82.1486
74.5708
104.356
233.027
248.248
259.158
269.916
280.673
291.202
300.219
297.08
75.769
-0.897177
-0.826849
-0.781043
-0.73952
-0.688001
-0.592206
-0.426076
-0.21026
-0.01541
0.0978493
0.129496
0.109053
0.0661517
0.0126469
-0.0571665
)
;
    }
    lowerWall
    {
        type            fixedFluxPressure;
        gradient        uniform 0;
        value           nonuniform List<scalar> 
62
(
643.682
643.178
643.53
645.625
652.509
666.407
685.247
704.541
722.554
739.834
756.46
772.308
787.036
800.27
811.338
817.401
817.963
818.794
821.488
831.823
849.566
861.408
856.411
856.411
852.641
846.509
839.118
830.63
821.883
811.105
796.182
819.374
640.179
430.512
21.3007
1523.44
1511.42
1516.3
1566.11
1582.19
1507.76
1324.64
1043.61
1523.44
1450.55
1493.49
1449.63
1417.24
1510.7
1556.87
1403.78
1181.92
1000.7
884.051
817.246
757.084
630.387
532.062
515.727
581.941
720.347
811.013
)
;
    }
    atmosphere
    {
        type            totalPressure;
        rho             rho;
        psi             none;
        gamma           1;
        p0              uniform 0;
        value           nonuniform List<scalar> 
46
(
0
0
0
0
0
0
0
0
0
0
0
0
0
0
0
0
0
0
0
0
0
0
0
0
-0.000761573
-0.00558244
-0.0149571
-0.026098
-0.0364928
-0.0484923
-0.0624211
-0.0784821
-0.0951526
-0.109461
-0.118775
-0.119492
-0.10707
-0.0816749
-0.0499958
-0.0274375
-0.0233294
-0.0337194
-0.0534609
-0.076114
-0.0956183
-0.104988
)
;
    }
    defaultFaces
    {
        type            empty;
    }
}


// ************************************************************************* //
