/*--------------------------------*- C++ -*----------------------------------*\
| =========                 |                                                 |
| \\      /  F ield         | OpenFOAM: The Open Source CFD Toolbox           |
|  \\    /   O peration     | Version:  2206                                  |
|   \\  /    A nd           | Website:  www.openfoam.com                      |
|    \\/     M anipulation  |                                                 |
\*---------------------------------------------------------------------------*/
FoamFile
{
    version     2.0;
    format      ascii;
    arch        "LSB;label=32;scalar=64";
    class       surfaceScalarField;
    location    "0.775";
    object      phi;
}
// * * * * * * * * * * * * * * * * * * * * * * * * * * * * * * * * * * * * * //

dimensions      [0 3 -1 0 0 0 0];

oriented        oriented;

internalField   nonuniform List<scalar> 
4432
(
-4.83196e-06
4.83196e-06
-1.01424e-05
5.31042e-06
-1.49543e-05
4.81195e-06
-1.93466e-05
4.39232e-06
-2.23334e-05
2.98677e-06
-2.23916e-05
5.82216e-08
-2.01772e-05
-2.21445e-06
-1.78028e-05
-2.37435e-06
-1.65049e-05
-1.29796e-06
-1.62379e-05
-2.66953e-07
-1.67262e-05
4.88348e-07
-1.7791e-05
1.06478e-06
-1.92563e-05
1.46529e-06
-2.06848e-05
1.42846e-06
-2.12745e-05
5.89725e-07
-2.16567e-05
3.8221e-07
-2.49715e-05
3.31477e-06
-3.09068e-05
5.93535e-06
-3.3422e-05
2.51516e-06
-2.85577e-05
-4.86432e-06
-1.88103e-05
-9.74735e-06
-7.53247e-06
-1.12778e-05
-7.53249e-06
-7.20859e-06
1.20406e-05
-1.33215e-05
1.14233e-05
-1.80834e-05
9.57388e-06
-2.18753e-05
8.18421e-06
-2.38587e-05
4.97013e-06
-2.33492e-05
-4.51263e-07
-2.08251e-05
-4.73852e-06
-1.80845e-05
-5.115e-06
-1.65774e-05
-2.805e-06
-1.62895e-05
-5.54848e-07
-1.67377e-05
9.36577e-07
-1.76609e-05
1.98792e-06
-1.90132e-05
2.81763e-06
-2.09451e-05
3.3604e-06
-2.38898e-05
3.53441e-06
-2.79664e-05
4.45879e-06
-3.16234e-05
6.97177e-06
-3.18957e-05
6.20765e-06
-2.70983e-05
-2.28232e-06
-1.98706e-05
-1.20919e-05
-1.22602e-05
-1.73578e-05
-4.41785e-06
-1.91202e-05
-1.19503e-05
-6.77909e-06
1.88197e-05
-1.23075e-05
1.69517e-05
-1.70002e-05
1.42666e-05
-2.13168e-05
1.25008e-05
-2.41607e-05
7.81402e-06
-2.40132e-05
-5.98813e-07
-2.15657e-05
-7.18602e-06
-1.87698e-05
-7.91084e-06
-1.70715e-05
-4.50337e-06
-1.65441e-05
-1.08219e-06
-1.65915e-05
9.84009e-07
-1.67753e-05
2.17167e-06
-1.6986e-05
3.02838e-06
-1.75043e-05
3.87864e-06
-1.89277e-05
4.95783e-06
-2.11177e-05
6.64877e-06
-2.18677e-05
7.72177e-06
-1.92773e-05
3.61726e-06
-1.43038e-05
-7.25585e-06
-9.31142e-06
-1.70843e-05
-4.75265e-06
-2.19166e-05
-4.81673e-07
-2.33911e-05
-1.2432e-05
-5.59559e-06
2.44153e-05
-1.05599e-05
2.1916e-05
-1.51429e-05
1.88496e-05
-1.93907e-05
1.67486e-05
-2.21855e-05
1.06088e-05
-2.24889e-05
-2.95453e-07
-2.08628e-05
-8.81213e-06
-1.89971e-05
-9.77654e-06
-1.77397e-05
-5.76077e-06
-1.72885e-05
-1.53334e-06
-1.73557e-05
1.05116e-06
-1.74372e-05
2.25321e-06
-1.72182e-05
2.80938e-06
-1.66361e-05
3.29652e-06
-1.58265e-05
4.14826e-06
-1.45591e-05
5.38132e-06
-1.19377e-05
5.1004e-06
-8.26898e-06
-5.14573e-08
-5.08505e-06
-1.04398e-05
-2.78726e-06
-1.9382e-05
-6.83433e-07
-2.40205e-05
1.94861e-06
-2.60231e-05
-1.04834e-05
-4.06454e-06
2.84798e-05
-8.15252e-06
2.6004e-05
-1.19234e-05
2.26205e-05
-1.5116e-05
1.99413e-05
-1.71092e-05
1.2602e-05
-1.78371e-05
4.3245e-07
-1.7889e-05
-8.76017e-06
-1.80948e-05
-9.57072e-06
-1.82068e-05
-5.64885e-06
-1.81847e-05
-1.55538e-06
-1.83064e-05
1.17284e-06
-1.83928e-05
2.3396e-06
-1.81562e-05
2.57279e-06
-1.73763e-05
2.51662e-06
-1.58011e-05
2.57303e-06
-1.30363e-05
2.61654e-06
-9.14438e-06
1.20849e-06
-5.43582e-06
-3.76e-06
-3.67575e-06
-1.21999e-05
-2.71017e-06
-2.03476e-05
-7.54579e-07
-2.59761e-05
2.15148e-06
-2.89292e-05
-8.33197e-06
-2.07311e-06
3.05529e-05
-4.72305e-06
2.8654e-05
-7.20991e-06
2.51073e-05
-8.97521e-06
2.17066e-05
-9.94943e-06
1.35762e-05
-1.11154e-05
1.59846e-06
-1.33767e-05
-6.4989e-06
-1.63057e-05
-6.64169e-06
-1.83268e-05
-3.62777e-06
-1.9079e-05
-8.03194e-07
-1.93148e-05
1.40867e-06
-1.93207e-05
2.34555e-06
-1.89985e-05
2.25054e-06
-1.82269e-05
1.74498e-06
-1.67938e-05
1.14e-06
-1.43284e-05
1.5115e-07
-1.09845e-05
-2.1355e-06
-7.93958e-06
-6.80487e-06
-6.45077e-06
-1.36887e-05
-5.56286e-06
-2.12355e-05
-3.18229e-06
-2.83567e-05
-4.04585e-07
-3.17069e-05
-8.73655e-06
-6.20648e-08
3.0615e-05
-9.61138e-07
2.9553e-05
-1.90091e-06
2.60471e-05
-2.05047e-06
2.18562e-05
-1.86518e-06
1.33909e-05
-3.81555e-06
3.54883e-06
-9.14436e-06
-1.17008e-06
-1.47125e-05
-1.0736e-06
-1.83631e-05
2.28545e-08
-1.99614e-05
7.95134e-07
-2.03847e-05
1.832e-06
-2.02507e-05
2.21154e-06
-1.97249e-05
1.7247e-06
-1.88197e-05
8.39746e-07
-1.74768e-05
-2.02852e-07
-1.54282e-05
-1.89743e-06
-1.27783e-05
-4.78544e-06
-1.03202e-05
-9.26293e-06
-8.86508e-06
-1.51438e-05
-8.14456e-06
-2.1956e-05
-7.17838e-06
-2.93229e-05
-5.84833e-06
-3.30369e-05
-1.45849e-05
2.08524e-06
2.85297e-05
3.7506e-06
2.78877e-05
5.91296e-06
2.38847e-05
7.91782e-06
1.98513e-05
7.09257e-06
1.42162e-05
1.33071e-06
9.31069e-06
-7.42767e-06
7.5883e-06
-1.43636e-05
5.86233e-06
-1.83774e-05
4.03666e-06
-2.05096e-05
2.92731e-06
-2.13311e-05
2.65349e-06
-2.12711e-05
2.15162e-06
-2.06168e-05
1.07037e-06
-1.95256e-05
-2.51438e-07
-1.81076e-05
-1.62088e-06
-1.62042e-05
-3.80076e-06
-1.38365e-05
-7.15317e-06
-1.15129e-05
-1.15866e-05
-1.0016e-05
-1.66407e-05
-9.86801e-06
-2.2104e-05
-1.14292e-05
-2.77617e-05
-1.23048e-05
-3.21613e-05
-2.68897e-05
2.20875e-05
-2.20875e-05
3.86127e-06
1.82262e-05
-4.31451e-05
4.70064e-05
-0.000105433
6.2288e-05
-0.000125614
2.01808e-05
-8.41004e-05
-4.15135e-05
-3.29644e-05
-5.1136e-05
-7.61504e-06
-2.53493e-05
-1.89556e-06
-5.71947e-06
-9.17497e-06
7.2794e-06
-1.92255e-05
1.00505e-05
-2.47317e-05
5.50617e-06
-2.90249e-05
4.29329e-06
-4.69969e-05
1.79719e-05
-6.12531e-05
1.42562e-05
-6.08141e-05
-4.39022e-07
-5.11725e-05
-9.64154e-06
-2.80936e-05
-2.3079e-05
-2.80936e-05
-7.53071e-07
-2.13345e-05
-4.67549e-05
6.4228e-05
-0.000113183
0.000113434
-0.000141494
9.05989e-05
-9.15843e-05
-2.97286e-05
-2.56805e-05
-0.000107417
1.187e-05
-8.86865e-05
3.76014e-05
-5.10808e-05
5.89607e-05
-2.70787e-05
7.03231e-05
-4.08307e-06
5.91451e-05
2.12286e-05
1.51336e-05
4.95176e-05
-3.38565e-05
5.32834e-05
-6.16454e-05
4.57608e-05
-6.97804e-05
2.23912e-05
-6.51984e-05
-5.02098e-06
-5.54015e-05
-1.94385e-05
-3.38366e-05
-4.46439e-05
-6.19301e-05
-2.85737e-05
7.23923e-06
-9.07336e-05
0.000126388
-0.000138604
0.000161305
-0.000108635
6.06295e-05
-4.60892e-05
-9.22742e-05
-1.05409e-05
-0.000142966
1.04634e-05
-0.000109691
3.0002e-05
-7.06194e-05
4.72517e-05
-4.43284e-05
6.20349e-05
-1.88662e-05
7.63488e-05
6.91464e-06
7.42418e-05
5.16246e-05
4.83484e-05
7.91769e-05
1.82103e-05
7.58988e-05
-1.05148e-05
5.11163e-05
-3.47836e-05
1.92478e-05
-3.77923e-05
-1.64298e-05
-2.60024e-05
-5.64338e-05
-8.79325e-05
-5.45197e-05
6.1759e-05
-0.000110938
0.000182807
-0.000125731
0.000176097
-7.24066e-05
7.30523e-06
-2.36921e-05
-0.000140989
-7.69987e-06
-0.000158958
6.49583e-06
-0.000123886
2.18955e-05
-8.60191e-05
3.74787e-05
-5.99116e-05
5.16829e-05
-3.30704e-05
6.58237e-05
-7.22618e-06
8.78137e-05
2.96346e-05
0.000100818
6.61726e-05
9.5987e-05
8.07297e-05
7.23933e-05
7.47101e-05
4.02018e-05
5.14392e-05
1.4483e-05
9.28894e-06
3.17938e-06
-4.51302e-05
-8.47531e-05
-6.4459e-05
0.000126218
-0.000111123
0.000229471
-0.000100829
0.000165803
-4.39826e-05
-4.95414e-05
-1.58674e-05
-0.000169104
-8.45653e-06
-0.000166369
8.03458e-07
-0.000133146
1.21611e-05
-9.73768e-05
2.54113e-05
-7.31618e-05
3.91796e-05
-4.68388e-05
5.27089e-05
-2.07554e-05
7.17369e-05
1.06066e-05
9.63704e-05
4.15391e-05
0.000115467
6.16335e-05
0.000112253
7.79235e-05
8.91912e-05
7.45013e-05
6.08365e-05
3.76436e-05
2.88388e-05
-1.31324e-05
-5.59144e-05
-6.47053e-05
0.000190923
-9.97002e-05
0.000264466
-7.61274e-05
0.000142231
-2.89151e-05
-9.67537e-05
-1.7886e-05
-0.000180133
-1.20015e-05
-0.000172253
-5.83613e-06
-0.000139312
3.08623e-07
-0.000103522
1.06007e-05
-8.34538e-05
2.22287e-05
-5.84668e-05
3.56515e-05
-3.41783e-05
4.90581e-05
-2.79995e-06
6.91459e-05
2.14512e-05
9.40487e-05
3.67307e-05
0.000106921
6.50508e-05
0.000100676
8.07465e-05
7.85209e-05
5.97989e-05
4.37898e-05
2.15987e-05
-1.21246e-05
-6.41232e-05
0.000255046
-8.86853e-05
0.000289028
-5.85216e-05
0.000112067
-2.52162e-05
-0.000130059
-2.27009e-05
-0.000182648
-1.73549e-05
-0.000177599
-1.50522e-05
-0.000141615
-1.4781e-05
-0.000103793
-9.1732e-06
-8.90617e-05
-3.7229e-06
-6.39171e-05
5.43192e-06
-4.33331e-05
2.1159e-05
-1.85271e-05
4.12605e-05
1.34979e-06
6.60004e-05
1.19908e-05
8.47599e-05
4.62913e-05
8.83951e-05
7.71113e-05
7.51723e-05
7.30217e-05
4.69281e-05
4.98429e-05
3.48035e-05
-6.35653e-05
0.000318612
-7.95167e-05
0.000304979
-5.08331e-05
8.33832e-05
-3.12632e-05
-0.000149629
-2.97152e-05
-0.000184196
-2.48424e-05
-0.000182472
-2.62124e-05
-0.000140245
-3.12672e-05
-9.87379e-05
-3.34612e-05
-8.68676e-05
-3.61334e-05
-6.12449e-05
-3.11081e-05
-4.83584e-05
-5.17062e-06
-4.44645e-05
2.34073e-05
-2.72281e-05
3.74421e-05
-2.04389e-06
5.55766e-05
2.81568e-05
6.28429e-05
6.9845e-05
5.66486e-05
7.92159e-05
3.80744e-05
6.84171e-05
7.28779e-05
6.40546e-06
2.21243e-05
6.03671e-06
2.82564e-05
9.66494e-07
2.89549e-05
-8.70398e-06
2.95218e-05
-2.08279e-05
2.63401e-05
-3.14901e-05
1.99728e-05
-3.75748e-05
1.3673e-05
-4.0773e-05
9.06055e-06
-4.30472e-05
6.31085e-06
-4.50064e-05
4.88648e-06
-4.62573e-05
3.90446e-06
-4.62371e-05
2.1314e-06
-4.48086e-05
-3.58138e-07
-4.2621e-05
-2.43905e-06
-3.99681e-05
-4.2738e-06
-3.59996e-05
-7.76922e-06
-3.04307e-05
-1.27221e-05
-2.45669e-05
-1.74504e-05
-2.09495e-05
-2.0258e-05
-2.12341e-05
-2.18194e-05
-2.59082e-05
-2.30875e-05
-3.42813e-05
-2.37882e-05
-2.04586e-05
-4.07124e-05
-6.18684e-05
8.39927e-05
-7.75402e-05
4.39282e-05
-8.61426e-05
3.75573e-05
-8.73354e-05
3.07146e-05
-8.22835e-05
2.12883e-05
-7.52444e-05
1.29337e-05
-6.83834e-05
6.812e-06
-6.15474e-05
2.22461e-06
-5.4739e-05
-4.97588e-07
-4.89251e-05
-9.27463e-07
-4.44214e-05
-5.99149e-07
-4.15262e-05
-7.63844e-07
-4.01017e-05
-1.78265e-06
-3.9355e-05
-3.18571e-06
-3.75628e-05
-6.06608e-06
-3.36943e-05
-1.16377e-05
-2.82075e-05
-1.82089e-05
-2.29513e-05
-2.27066e-05
-1.95651e-05
-2.36442e-05
-1.83116e-05
-2.3073e-05
-1.93243e-05
-2.20748e-05
-2.2795e-05
-2.03175e-05
-1.88479e-05
-2.44056e-05
-0.000131335
0.000215327
-0.000189297
0.000101891
-0.000201277
4.95368e-05
-0.000187239
1.66773e-05
-0.000165143
-8.08174e-07
-0.000149587
-2.62252e-06
-0.000137841
-4.93383e-06
-0.000126154
-9.46193e-06
-0.00011304
-1.36122e-05
-0.00010023
-1.37368e-05
-9.02069e-05
-1.06226e-05
-8.15515e-05
-9.41925e-06
-7.08526e-05
-1.24815e-05
-6.18065e-05
-1.22318e-05
-5.71572e-05
-1.07153e-05
-5.57971e-05
-1.29977e-05
-5.2893e-05
-2.11131e-05
-4.6196e-05
-2.94036e-05
-3.77703e-05
-3.207e-05
-3.03674e-05
-3.04758e-05
-2.59556e-05
-2.64866e-05
-2.67923e-05
-1.94808e-05
-1.18878e-05
-3.37524e-05
-8.1056e-05
0.000296383
-0.000149187
0.000170022
-0.000201901
0.000102251
-0.000245724
6.05013e-05
-0.00029111
4.45771e-05
-0.000337111
4.33786e-05
-0.000377496
3.54514e-05
-0.000400943
1.39849e-05
-0.000396774
-1.77809e-05
-0.000365407
-4.51035e-05
-0.000320846
-5.51845e-05
-0.000277005
-5.32602e-05
-0.000237573
-5.19135e-05
-0.00021006
-3.97448e-05
-0.000192815
-2.79595e-05
-0.00017463
-3.1183e-05
-0.000145704
-5.00393e-05
-0.000112115
-6.29926e-05
-8.52189e-05
-5.89661e-05
-6.73962e-05
-4.82985e-05
-5.47181e-05
-3.91647e-05
-4.86681e-05
-2.55308e-05
-7.98957e-06
-5.25664e-05
-4.39778e-05
0.000340361
-9.15496e-05
0.000217594
-0.000127197
0.000137898
-0.000156198
8.95024e-05
-0.000183575
7.19536e-05
-0.000214503
7.43069e-05
-0.000249031
6.99791e-05
-0.000284753
4.97065e-05
-0.00032159
1.90563e-05
-0.000355194
-1.14992e-05
-0.000381245
-2.91335e-05
-0.000397471
-3.70343e-05
-0.00041571
-3.36744e-05
-0.000421658
-3.37966e-05
-0.000394568
-5.50499e-05
-0.000334783
-9.09683e-05
-0.000269331
-0.000115491
-0.000225355
-0.000106968
-0.000195003
-8.93178e-05
-0.000168754
-7.45479e-05
-0.000143533
-6.4385e-05
-0.000122088
-4.69763e-05
-2.15536e-05
-0.000108524
-1.24897e-05
0.000352851
-4.57781e-05
0.000250883
-6.27255e-05
0.000154846
-7.00201e-05
9.67971e-05
-7.08392e-05
7.27728e-05
-7.3425e-05
7.68925e-05
-8.45068e-05
8.10608e-05
-0.000108925
7.4125e-05
-0.000145933
5.60641e-05
-0.000191339
3.39068e-05
-0.000233308
1.28357e-05
-0.000269812
-5.30232e-07
-0.000302213
-1.27365e-06
-0.000326723
-9.287e-06
-0.000332617
-4.91559e-05
-0.000311848
-0.000111737
-0.000302613
-0.000124726
-0.000295727
-0.000113854
-0.000283862
-0.000101183
-0.000264974
-9.3436e-05
-0.000236152
-9.3207e-05
-0.000201023
-8.21044e-05
-5.07908e-05
-0.000171786
2.53889e-05
0.000327462
4.98631e-08
0.000276222
-1.46074e-05
0.000169503
-1.24233e-05
9.46129e-05
-7.86997e-06
6.82193e-05
-1.55398e-06
7.05765e-05
2.24792e-06
7.72588e-05
-4.9731e-06
8.13461e-05
-2.61659e-05
7.72572e-05
-5.71394e-05
6.48804e-05
-9.53662e-05
5.10624e-05
-0.000145824
4.99278e-05
-0.000207963
6.08648e-05
-0.000266147
4.88975e-05
-0.000313943
-1.3599e-06
-0.000330223
-9.54573e-05
-0.000332921
-0.000122028
-0.000330493
-0.000116282
-0.000321709
-0.000109968
-0.000306642
-0.000108503
-0.000281068
-0.000118781
-0.000250662
-0.00011251
-7.83588e-05
-0.000223094
5.38989e-05
0.000273563
4.83534e-05
0.000281767
3.52543e-05
0.000182602
2.77468e-05
0.00010212
2.6659e-05
6.9307e-05
2.7567e-05
6.96685e-05
2.82415e-05
7.65843e-05
2.8555e-05
8.10324e-05
2.25657e-05
8.32466e-05
6.08654e-06
8.13596e-05
-1.96763e-05
7.68252e-05
-4.84436e-05
7.86953e-05
-8.1464e-05
9.38855e-05
-0.000128486
9.59194e-05
-0.000181732
5.18859e-05
-0.000259372
-1.78171e-05
-0.000284329
-9.7071e-05
-0.000287282
-0.000113329
-0.000277086
-0.000120164
-0.000253136
-0.000132454
-0.000259544
-0.000112372
-0.000269812
-0.000102243
-8.61395e-05
-0.000262031
6.08531e-05
0.00021271
8.26455e-05
0.000259974
7.69132e-05
0.000188334
6.27041e-05
0.000116329
4.98327e-05
8.21784e-05
4.0561e-05
7.89401e-05
3.34451e-05
8.37004e-05
2.88286e-05
8.56489e-05
2.62436e-05
8.58318e-05
2.04175e-05
8.71858e-05
9.04393e-06
8.81988e-05
-1.39182e-06
8.91311e-05
-3.58648e-06
9.60803e-05
-1.3672e-05
0.000106005
-4.66628e-05
8.48767e-05
-7.99903e-05
1.55103e-05
-9.63209e-05
-8.07403e-05
-7.88152e-05
-0.000130834
-9.05888e-05
-0.00010839
-0.000140744
-8.22987e-05
-0.00019903
-5.40869e-05
-0.000251877
-4.93951e-05
-6.35342e-05
-0.000274482
4.42632e-05
0.000168447
8.04282e-05
0.000223809
8.79266e-05
0.000180836
7.60798e-05
0.000128176
5.85922e-05
9.96659e-05
4.41814e-05
9.33508e-05
3.35728e-05
9.43091e-05
2.53787e-05
9.38431e-05
2.04368e-05
9.07737e-05
1.76412e-05
8.99816e-05
1.43653e-05
9.14749e-05
1.26083e-05
9.0888e-05
1.85063e-05
9.01823e-05
3.06027e-05
9.39088e-05
2.72345e-05
8.82447e-05
-8.49576e-06
5.12406e-05
-6.81565e-05
-2.10792e-05
-0.000136915
-6.20752e-05
-0.000163572
-8.17338e-05
-0.000169861
-7.60099e-05
-0.00017021
-5.37381e-05
-0.000193433
-2.61719e-05
-6.80673e-07
-0.000256287
1.95594e-05
0.000148887
5.57127e-05
0.000187655
7.18363e-05
0.000164712
6.71682e-05
0.000132844
5.35917e-05
0.000113242
4.11513e-05
0.000105791
3.19019e-05
0.000103559
2.42415e-05
0.000101504
1.81038e-05
9.69116e-05
1.47467e-05
9.33387e-05
1.38123e-05
9.24094e-05
1.44807e-05
9.02198e-05
1.86718e-05
8.59912e-05
2.85672e-05
8.40134e-05
3.63968e-05
8.04152e-05
2.59511e-05
6.16865e-05
-2.53115e-05
3.01834e-05
-9.32546e-05
5.86784e-06
-0.000155244
-1.9744e-05
-0.000190768
-4.04866e-05
-0.000194146
-5.03603e-05
-0.000171963
-4.83548e-05
-1.10043e-05
-0.000161639
4.23775e-06
0.000144649
3.18394e-05
0.000160054
4.84789e-05
0.000148072
4.94452e-05
0.000131878
4.27054e-05
0.000119982
3.54962e-05
0.000113001
2.97139e-05
0.000109341
2.45918e-05
0.000106626
1.94526e-05
0.000102051
1.56497e-05
9.71416e-05
1.43781e-05
9.36809e-05
1.45746e-05
9.00231e-05
1.51125e-05
8.54535e-05
1.73787e-05
8.17471e-05
2.01381e-05
7.7656e-05
1.40733e-05
6.77514e-05
-8.4729e-06
5.27297e-05
-4.19808e-05
3.93755e-05
-8.83264e-05
2.66013e-05
-0.0001447
1.5887e-05
-0.000192198
-2.86256e-06
-0.000214739
-2.58134e-05
-4.66359e-05
-0.000179107
8.18196e-07
0.000143831
1.8265e-05
0.000142607
3.08116e-05
0.000135526
3.42612e-05
0.000128429
3.28006e-05
0.000121443
3.01183e-05
0.000115683
2.75304e-05
0.000111929
2.50035e-05
0.000109153
2.18238e-05
0.000105231
1.85971e-05
0.000100368
1.65492e-05
9.57285e-05
1.51297e-05
9.14426e-05
1.30139e-05
8.75693e-05
1.02855e-05
8.44755e-05
6.81027e-06
8.11313e-05
-5.31679e-07
7.50932e-05
-1.39288e-05
6.61265e-05
-3.37527e-05
5.91994e-05
-5.92909e-05
5.21394e-05
-8.69935e-05
4.35898e-05
-0.000121013
3.11571e-05
-0.000132798
-1.4029e-05
-9.35158e-05
-8.59177e-05
2.3672e-06
0.000141464
1.24309e-05
0.000132543
2.07417e-05
0.000127215
2.47043e-05
0.000124466
2.59208e-05
0.000120227
2.58207e-05
0.000115784
2.52774e-05
0.000112472
2.45373e-05
0.000109893
2.30615e-05
0.000106707
2.08256e-05
0.000102604
1.83534e-05
9.82007e-05
1.55416e-05
9.42546e-05
1.17758e-05
9.1335e-05
6.93276e-06
8.93187e-05
7.13959e-07
8.735e-05
-7.79825e-06
8.36053e-05
-2.06233e-05
7.89516e-05
-3.73151e-05
7.58911e-05
-5.8955e-05
7.37792e-05
-8.81988e-05
7.28337e-05
-0.000106766
4.97243e-05
-7.8254e-05
-4.25406e-05
-9.85244e-05
-7.32454e-05
3.87543e-06
0.000137588
1.00726e-05
0.000126346
1.56007e-05
0.000121687
1.92517e-05
0.000120815
2.13573e-05
0.000118121
2.23678e-05
0.000114773
2.28335e-05
0.000112007
2.30012e-05
0.000109725
2.25121e-05
0.000107196
2.10533e-05
0.000104063
1.85982e-05
0.000100656
1.51678e-05
9.76849e-05
1.07677e-05
9.57351e-05
5.39877e-06
9.46877e-05
-1.20232e-06
9.3951e-05
-1.02186e-05
9.26216e-05
-2.25992e-05
9.1332e-05
-3.91522e-05
9.24436e-05
-6.5206e-05
9.9833e-05
-0.000103186
0.000110813
-0.000123513
7.00516e-05
-0.000124727
-4.13267e-05
-0.000100023
-0.000123228
4.2135e-06
0.000133375
8.79224e-06
0.000121768
1.27952e-05
0.000117684
1.59333e-05
0.000117677
1.81364e-05
0.000115918
1.95078e-05
0.000113402
2.03516e-05
0.000111163
2.08407e-05
0.000109237
2.07511e-05
0.000107285
1.97301e-05
0.000105084
1.75543e-05
0.000102832
1.42386e-05
0.000101001
9.98172e-06
9.99922e-05
4.8865e-06
9.97831e-05
-1.30472e-06
0.000100142
-9.4429e-06
0.000100759
-2.00631e-05
0.000101952
-3.41474e-05
0.000106528
-5.63288e-05
0.000122015
-8.41756e-05
0.00013866
-9.54463e-05
8.13222e-05
-0.000115715
-2.10578e-05
-8.29841e-05
-0.000132754
3.96356e-06
0.000129412
7.81294e-06
0.000117918
1.09823e-05
0.000114515
1.36651e-05
0.000114995
1.57456e-05
0.000113838
1.71914e-05
0.000111956
1.8139e-05
0.000110215
1.8693e-05
0.000108683
1.87239e-05
0.000107254
1.79585e-05
0.000105849
1.61891e-05
0.000104601
1.34155e-05
0.000103774
9.80097e-06
0.000103607
5.43317e-06
0.000104151
1.20173e-07
0.000105455
-6.6081e-06
0.000107488
-1.48031e-05
0.000110147
-2.47896e-05
0.000116514
-3.85268e-05
0.000135752
-5.24834e-05
0.000152616
-6.42037e-05
9.30426e-05
-8.78587e-05
2.59722e-06
-6.6358e-05
-0.000104485
3.57022e-06
0.000125841
6.99146e-06
0.000114497
9.66822e-06
0.000111838
1.20176e-05
0.000112645
1.39687e-05
0.000111887
1.54217e-05
0.000110503
1.6416e-05
0.000109221
1.70018e-05
0.000108097
1.71142e-05
0.000107142
1.659e-05
0.000106373
1.52991e-05
0.000105892
1.32319e-05
0.000105841
1.04679e-05
0.000106371
7.04192e-06
0.000107576
2.87701e-06
0.00010962
-2.24327e-06
0.000112608
-8.2262e-06
0.00011613
-1.43287e-05
0.000122617
-2.00047e-05
0.000141428
-2.72777e-05
0.00015989
-4.45435e-05
0.000110308
-6.35491e-05
2.16029e-05
-5.32499e-05
-7.66571e-05
3.20894e-06
0.000122633
6.3068e-06
0.000111399
8.67963e-06
0.000109466
1.0815e-05
0.00011051
1.26819e-05
0.00011002
1.41548e-05
0.00010903
1.5228e-05
0.000108148
1.59137e-05
0.000107411
1.61847e-05
0.000106871
1.59659e-05
0.000106592
1.51959e-05
0.000106662
1.38612e-05
0.000107176
1.19836e-05
0.000108248
9.56924e-06
0.000109991
6.6202e-06
0.000112569
3.11461e-06
0.000116113
-1.08838e-06
0.000120333
-4.60834e-06
0.000126137
-3.97956e-06
0.000140799
-3.88772e-06
0.000159798
-1.93731e-05
0.000125794
-4.36935e-05
4.59233e-05
-3.01618e-05
-6.67815e-05
2.92585e-06
0.000119707
5.74315e-06
0.000108582
7.93162e-06
0.000107277
9.95137e-06
0.00010849
1.17816e-05
0.00010819
1.33041e-05
0.000107508
1.45013e-05
0.000106951
1.53662e-05
0.000106546
1.58879e-05
0.000106349
1.60424e-05
0.000106438
1.58089e-05
0.000106895
1.51764e-05
0.000107808
1.41435e-05
0.000109281
1.2703e-05
0.000111431
1.08673e-05
0.000114404
8.66284e-06
0.000118318
5.97316e-06
0.000123023
3.5774e-06
0.000128532
5.88303e-06
0.000138494
1.19548e-05
0.000153726
-4.43518e-07
0.000138192
-2.74945e-05
7.29742e-05
2.63425e-07
-5.79195e-05
2.72636e-06
0.00011698
5.29335e-06
0.000106015
7.37451e-06
0.000105196
9.34741e-06
0.000106517
1.11792e-05
0.000106358
1.27771e-05
0.00010591
1.4127e-05
0.000105601
1.52193e-05
0.000105454
1.60495e-05
0.000105519
1.66152e-05
0.000105872
1.69143e-05
0.000106596
1.69437e-05
0.000107779
1.66986e-05
0.000109526
1.6173e-05
0.000111957
1.53675e-05
0.00011521
1.42673e-05
0.000119418
1.2678e-05
0.000124612
1.05971e-05
0.000130613
1.06655e-05
0.000138425
1.42779e-05
0.000150114
3.70496e-06
0.000148765
-2.74821e-05
0.000104161
2.74477e-05
-5.46663e-05
2.59729e-06
0.000114383
4.95209e-06
0.00010366
6.97473e-06
0.000103173
8.94174e-06
0.00010455
1.08021e-05
0.000104497
1.24919e-05
0.00010422
1.40057e-05
0.000104087
1.53397e-05
0.00010412
1.64947e-05
0.000104364
1.74778e-05
0.000104888
1.82978e-05
0.000105776
1.89604e-05
0.000107116
1.94699e-05
0.000109017
1.98245e-05
0.000111602
2.00075e-05
0.000115027
1.99543e-05
0.000119471
1.94286e-05
0.000125138
1.79034e-05
0.000132139
1.56384e-05
0.00014069
1.3449e-05
0.000152303
-1.27094e-06
0.000163485
-4.01541e-05
0.000143045
5.38919e-05
-6.65982e-05
2.51668e-06
0.000111866
4.70584e-06
0.000101471
6.70115e-06
0.000101178
8.68373e-06
0.000102567
1.05898e-05
0.000102592
1.23802e-05
0.00010243
1.40575e-05
0.000102409
1.56271e-05
0.00010255
1.70976e-05
0.000102893
1.84842e-05
0.000103502
1.98056e-05
0.000104455
2.10822e-05
0.00010584
2.23348e-05
0.000107764
2.35778e-05
0.000110359
2.48079e-05
0.000113797
2.59668e-05
0.000118313
2.68543e-05
0.00012425
2.69113e-05
0.000132082
2.51551e-05
0.000142446
2.06258e-05
0.000156832
4.43943e-06
0.000179672
-4.25968e-05
0.000190081
9.38733e-05
-8.25782e-05
2.46486e-06
0.000109401
4.53414e-06
9.94014e-05
6.5211e-06
9.91909e-05
8.52923e-06
0.000100559
1.04899e-05
0.000100631
1.23823e-05
0.000100537
1.42163e-05
0.000100575
1.60058e-05
0.000100761
1.77695e-05
0.00010113
1.95324e-05
0.000101739
2.13267e-05
0.00010266
2.31909e-05
0.000103975
2.51713e-05
0.000105783
2.73183e-05
0.000108211
2.96834e-05
0.000111432
3.23033e-05
0.000115693
3.51722e-05
0.000121381
3.81566e-05
0.000129097
4.08143e-05
0.000139789
4.27703e-05
0.000154876
4.41534e-05
0.000178289
2.28268e-05
0.000211407
0.000150521
-3.38209e-05
2.42859e-06
0.000106973
4.41536e-06
9.74146e-05
6.40316e-06
9.7203e-05
8.43982e-06
9.85225e-05
1.04562e-05
9.86144e-05
1.24449e-05
9.85485e-05
1.44225e-05
9.85974e-05
1.64104e-05
9.87726e-05
1.84366e-05
9.91031e-05
2.05373e-05
9.9638e-05
2.27591e-05
0.000100438
2.5161e-05
0.000101573
2.78187e-05
0.000103125
3.08306e-05
0.000105199
3.43272e-05
0.000107935
3.84916e-05
0.000111529
4.36037e-05
0.00011627
5.01288e-05
0.000122572
5.89038e-05
0.000131014
7.14967e-05
0.000142284
9.35228e-05
0.000156262
0.000124947
0.000179983
0.000154834
0.000120634
2.39921e-06
0.000104573
4.33033e-06
9.54833e-05
6.32065e-06
9.52124e-05
8.38253e-06
9.64605e-05
1.04486e-05
9.6548e-05
1.25211e-05
9.64758e-05
1.46225e-05
9.6496e-05
1.67803e-05
9.66148e-05
1.903e-05
9.68532e-05
2.14172e-05
9.72508e-05
2.40011e-05
9.78542e-05
2.68582e-05
9.87159e-05
3.00895e-05
9.9894e-05
3.38321e-05
0.000101457
3.82813e-05
0.000103486
4.37283e-05
0.000106082
5.06369e-05
0.000109361
5.97808e-05
0.000113429
7.24949e-05
0.0001183
9.10177e-05
0.000123761
0.000119033
0.000128247
0.000165536
0.00013348
0.000123383
0.000196986
2.37027e-06
0.000102203
4.26316e-06
9.35903e-05
6.25302e-06
9.32223e-05
8.33147e-06
9.43818e-05
1.0435e-05
9.44442e-05
1.25728e-05
9.43377e-05
1.47715e-05
9.42972e-05
1.70632e-05
9.4323e-05
1.94885e-05
9.44279e-05
2.20993e-05
9.464e-05
2.49621e-05
9.49912e-05
2.81634e-05
9.55145e-05
3.18168e-05
9.62406e-05
3.60754e-05
9.71985e-05
4.11528e-05
9.84089e-05
4.73566e-05
9.98786e-05
5.51391e-05
0.000101579
6.517e-05
0.000103398
7.8406e-05
0.000105064
9.62139e-05
0.000105953
0.000119613
0.000104848
0.000153331
9.97617e-05
8.82596e-05
0.000188454
2.33727e-06
9.98657e-05
4.20137e-06
9.17258e-05
6.18498e-06
9.12387e-05
8.26742e-06
9.2299e-05
1.03914e-05
9.23199e-05
1.2571e-05
9.21579e-05
1.48355e-05
9.20327e-05
1.72196e-05
9.19389e-05
1.97662e-05
9.18812e-05
2.25296e-05
9.18765e-05
2.55781e-05
9.19425e-05
2.89989e-05
9.20936e-05
3.29039e-05
9.23358e-05
3.74381e-05
9.26645e-05
4.27936e-05
9.30536e-05
4.92249e-05
9.34473e-05
5.70678e-05
9.3736e-05
6.67478e-05
9.3718e-05
7.87637e-05
9.30478e-05
9.36411e-05
9.10752e-05
0.000111575
8.69133e-05
0.000132771
7.85656e-05
6.53193e-05
0.000155712
2.29869e-06
9.7567e-05
4.1359e-06
8.98883e-05
6.10586e-06
8.92686e-05
8.17658e-06
9.02281e-05
1.03013e-05
9.0195e-05
1.24962e-05
8.99629e-05
1.47922e-05
8.97368e-05
1.72243e-05
8.95067e-05
1.98353e-05
8.92701e-05
2.26782e-05
8.90335e-05
2.58184e-05
8.88022e-05
2.93369e-05
8.8575e-05
3.33336e-05
8.83392e-05
3.7932e-05
8.80662e-05
4.32845e-05
8.77012e-05
4.95772e-05
8.71548e-05
5.70283e-05
8.6285e-05
6.58755e-05
8.48709e-05
7.63438e-05
8.25795e-05
8.85337e-05
7.88851e-05
0.000102328
7.31191e-05
0.000116706
6.41876e-05
5.16107e-05
0.000130414
2.2563e-06
9.53105e-05
4.06068e-06
8.80838e-05
6.00733e-06
8.73217e-05
8.04982e-06
8.81855e-05
1.01543e-05
8.80903e-05
1.23375e-05
8.77797e-05
1.46303e-05
8.74439e-05
1.70663e-05
8.70705e-05
1.96864e-05
8.66498e-05
2.25395e-05
8.61802e-05
2.56849e-05
8.56567e-05
2.91935e-05
8.50665e-05
3.31487e-05
8.43841e-05
3.76485e-05
8.35664e-05
4.28053e-05
8.25445e-05
4.87441e-05
8.12161e-05
5.55943e-05
7.94348e-05
6.34699e-05
7.69953e-05
7.24332e-05
7.36161e-05
8.23981e-05
6.89201e-05
9.30642e-05
6.2453e-05
0.00010357
5.36817e-05
4.24143e-05
0.000112767
2.21392e-06
9.30963e-05
3.97228e-06
8.63254e-05
5.88242e-06
8.54114e-05
7.88021e-06
8.61876e-05
9.94395e-06
8.60265e-05
1.20893e-05
8.56344e-05
1.43463e-05
8.51869e-05
1.67458e-05
8.46708e-05
1.9325e-05
8.40704e-05
2.21277e-05
8.33774e-05
2.52048e-05
8.25795e-05
2.86155e-05
8.16558e-05
3.24261e-05
8.05735e-05
3.67102e-05
7.92823e-05
4.1545e-05
7.77096e-05
4.7007e-05
7.57541e-05
5.31607e-05
7.32813e-05
6.00393e-05
7.01168e-05
6.76121e-05
6.60432e-05
7.57281e-05
6.08041e-05
8.40629e-05
5.41181e-05
9.20312e-05
4.57136e-05
3.55685e-05
9.88771e-05
2.1748e-06
9.09215e-05
3.86937e-06
8.46309e-05
5.72488e-06
8.3556e-05
7.6615e-06
8.4251e-05
9.66491e-06
8.40231e-05
1.17486e-05
8.35507e-05
1.39409e-05
8.29945e-05
1.62694e-05
8.23421e-05
1.87664e-05
8.15731e-05
2.14695e-05
8.06742e-05
2.44208e-05
7.96282e-05
2.76673e-05
7.84093e-05
3.12596e-05
7.69812e-05
3.52497e-05
7.52921e-05
3.9687e-05
7.32723e-05
4.46116e-05
7.08296e-05
5.0045e-05
6.7848e-05
5.59739e-05
6.41879e-05
6.23285e-05
5.96887e-05
6.89525e-05
5.418e-05
7.55745e-05
4.74962e-05
8.17898e-05
3.94984e-05
3.02326e-05
8.71257e-05
2.13903e-06
8.87825e-05
3.75102e-06
8.3019e-05
5.52902e-06
8.17782e-05
7.38735e-06
8.23926e-05
9.31167e-06
8.20988e-05
1.13123e-05
8.15499e-05
1.34153e-05
8.08913e-05
1.56447e-05
8.01127e-05
1.80274e-05
7.91903e-05
2.05945e-05
7.81071e-05
2.33793e-05
7.68434e-05
2.64175e-05
7.53711e-05
2.97456e-05
7.3653e-05
3.33982e-05
7.16394e-05
3.74037e-05
6.92666e-05
4.17783e-05
6.6455e-05
4.65181e-05
6.31083e-05
5.15878e-05
5.91181e-05
5.69082e-05
5.43683e-05
6.23406e-05
4.87474e-05
6.76755e-05
4.21612e-05
7.26315e-05
3.45425e-05
2.59508e-05
7.69133e-05
2.10313e-06
8.66795e-05
3.61461e-06
8.15077e-05
5.2893e-06
8.01035e-05
7.05077e-06
8.06311e-05
8.87735e-06
8.02722e-05
1.07748e-05
7.96524e-05
1.2767e-05
7.88991e-05
1.48738e-05
7.80058e-05
1.71177e-05
7.69463e-05
1.9523e-05
7.57017e-05
2.2115e-05
7.42515e-05
2.49196e-05
7.25665e-05
2.79612e-05
7.06112e-05
3.12611e-05
6.83394e-05
3.48329e-05
6.56948e-05
3.86779e-05
6.261e-05
4.27792e-05
5.9007e-05
4.70943e-05
5.48031e-05
5.15478e-05
4.99146e-05
5.60265e-05
4.42686e-05
6.03768e-05
3.78109e-05
6.44106e-05
3.05087e-05
2.241e-05
6.79514e-05
2.06187e-06
8.46177e-05
3.45551e-06
8.01141e-05
4.99957e-06
7.85595e-05
6.64375e-06
7.89869e-05
8.35294e-06
7.85629e-05
1.01265e-05
7.78787e-05
1.19865e-05
7.70391e-05
1.39492e-05
7.60431e-05
1.60331e-05
7.48624e-05
1.82564e-05
7.34784e-05
2.06376e-05
7.18702e-05
2.31943e-05
7.00097e-05
2.59416e-05
6.78638e-05
2.88905e-05
6.53905e-05
3.20444e-05
6.25408e-05
3.53965e-05
5.9258e-05
3.89239e-05
5.54796e-05
4.25849e-05
5.1142e-05
4.63145e-05
4.6185e-05
5.00248e-05
4.05582e-05
5.36084e-05
3.42273e-05
5.69427e-05
2.71745e-05
1.94299e-05
5.99227e-05
2.00861e-06
8.26091e-05
3.26842e-06
7.88543e-05
4.65408e-06
7.71738e-05
6.1584e-06
7.74826e-05
7.72803e-06
7.69931e-05
9.35468e-06
7.62521e-05
1.10594e-05
7.53343e-05
1.28551e-05
7.42475e-05
1.47567e-05
7.29607e-05
1.67778e-05
7.14573e-05
1.8931e-05
6.9717e-05
2.12272e-05
6.77135e-05
2.36744e-05
6.54165e-05
2.62761e-05
6.27888e-05
2.90292e-05
5.97878e-05
3.19218e-05
5.63653e-05
3.49299e-05
5.24714e-05
3.80152e-05
4.80567e-05
4.11241e-05
4.30761e-05
4.41902e-05
3.74921e-05
4.71381e-05
3.12794e-05
4.98866e-05
2.4426e-05
1.69499e-05
5.23665e-05
1.93354e-06
8.06756e-05
3.04798e-06
7.77397e-05
4.24939e-06
7.59723e-05
5.59006e-06
7.61419e-05
6.99492e-06
7.55883e-05
8.44985e-06
7.47972e-05
9.97407e-06
7.38102e-05
1.15774e-05
7.26443e-05
1.32723e-05
7.12659e-05
1.50677e-05
6.96619e-05
1.69718e-05
6.7813e-05
1.89902e-05
6.56952e-05
2.11254e-05
6.32814e-05
2.33754e-05
6.05389e-05
2.57327e-05
5.74304e-05
2.81828e-05
5.3915e-05
3.07015e-05
4.99526e-05
3.32544e-05
4.55039e-05
3.5797e-05
4.05336e-05
3.82774e-05
3.50118e-05
4.06402e-05
2.89167e-05
4.28261e-05
2.22401e-05
1.49939e-05
4.4782e-05
1.82717e-06
7.88483e-05
2.78987e-06
7.6777e-05
3.78554e-06
7.49767e-05
4.94059e-06
7.49869e-05
6.15481e-06
7.43743e-05
7.41416e-06
7.3538e-05
8.73309e-06
7.24914e-05
1.01194e-05
7.12581e-05