/*--------------------------------*- C++ -*----------------------------------*\
| =========                 |                                                 |
| \\      /  F ield         | OpenFOAM: The Open Source CFD Toolbox           |
|  \\    /   O peration     | Version:  2206                                  |
|   \\  /    A nd           | Website:  www.openfoam.com                      |
|    \\/     M anipulation  |                                                 |
\*---------------------------------------------------------------------------*/
FoamFile
{
    version     2.0;
    format      ascii;
    arch        "LSB;label=32;scalar=64";
    class       volVectorField;
    location    "0.775";
    object      U;
}
// * * * * * * * * * * * * * * * * * * * * * * * * * * * * * * * * * * * * * //

dimensions      [0 1 -1 0 0 0 0];

internalField   nonuniform List<vector> 
2268
(
(-0.0263082 0.0119037 0)
(-0.0873233 0.0149313 0)
(-0.146199 0.0135362 0)
(-0.199961 0.0123919 0)
(-0.24536 0.0088102 0)
(-0.261701 0.00107431 0)
(-0.242295 -0.00538382 0)
(-0.214043 -0.00581042 0)
(-0.193034 -0.00316377 0)
(-0.184581 -0.000349733 0)
(-0.185891 0.00189436 0)
(-0.195227 0.00367293 0)
(-0.210181 0.00462872 0)
(-0.228539 0.00297551 0)
(-0.241468 -0.00320478 0)
(-0.241498 -0.00651908 0)
(-0.253342 0.00825084 0)
(-0.319681 0.0249472 0)
(-0.394424 0.0161705 0)
(-0.374356 -0.0119985 0)
(-0.266195 -0.0342403 0)
(-0.145915 -0.0404684 0)
(-0.0417857 -0.0258753 0)
(-0.0462317 0.0445793 0)
(-0.122489 0.0450617 0)
(-0.182391 0.0386071 0)
(-0.234524 0.0336217 0)
(-0.269611 0.0212696 0)
(-0.272292 -0.000848515 0)
(-0.252438 -0.0180616 0)
(-0.219279 -0.0197579 0)
(-0.194542 -0.0109424 0)
(-0.184839 -0.00215112 0)
(-0.18677 0.00408167 0)
(-0.194914 0.00881099 0)
(-0.207588 0.0123704 0)
(-0.225885 0.0135445 0)
(-0.251807 0.0107358 0)
(-0.290528 0.0123449 0)
(-0.343705 0.0304963 0)
(-0.382578 0.037044 0)
(-0.35787 0.00429987 0)
(-0.264565 -0.0476097 0)
(-0.177005 -0.0805889 0)
(-0.0903188 -0.0916486 0)
(-0.0210575 -0.0607333 0)
(-0.0468448 0.0827437 0)
(-0.112264 0.0761697 0)
(-0.167495 0.0639166 0)
(-0.224273 0.0552516 0)
(-0.268673 0.0337541 0)
(-0.279775 -0.0033448 0)
(-0.259758 -0.0334866 0)
(-0.228193 -0.0362947 0)
(-0.201755 -0.0201117 0)
(-0.189474 -0.00445019 0)
(-0.188073 0.00523109 0)
(-0.190155 0.0115772 0)
(-0.192243 0.0167284 0)
(-0.195163 0.0214177 0)
(-0.204398 0.0261041 0)
(-0.224926 0.0334852 0)
(-0.251253 0.041348 0)
(-0.253216 0.0250089 0)
(-0.200218 -0.0297788 0)
(-0.128496 -0.0836224 0)
(-0.0734932 -0.110101 0)
(-0.0281756 -0.117714 0)
(0.0126024 -0.0724061 0)
(-0.0396425 0.117047 0)
(-0.0922758 0.10471 0)
(-0.145981 0.088965 0)
(-0.203139 0.0782341 0)
(-0.247429 0.0479094 0)
(-0.25796 -0.00408701 0)
(-0.244167 -0.0469979 0)
(-0.226814 -0.0507961 0)
(-0.209271 -0.0291142 0)
(-0.198075 -0.00743953 0)
(-0.196799 0.00530856 0)
(-0.198913 0.0118267 0)
(-0.198676 0.0159223 0)
(-0.194011 0.0201985 0)
(-0.185579 0.0268251 0)
(-0.17335 0.0364255 0)
(-0.154257 0.0394019 0)
(-0.121947 0.0127845 0)
(-0.0761423 -0.0442313 0)
(-0.0408668 -0.0952264 0)
(-0.0159036 -0.121479 0)
(0.00148374 -0.131605 0)
(0.0369215 -0.063598 0)
(-0.0290737 0.14437 0)
(-0.0676415 0.130226 0)
(-0.114747 0.113092 0)
(-0.160811 0.100295 0)
(-0.193429 0.0630885 0)
(-0.197431 0.00013479 0)
(-0.196037 -0.0507131 0)
(-0.206194 -0.0549774 0)
(-0.210843 -0.0326104 0)
(-0.208004 -0.00896338 0)
(-0.207611 0.00613577 0)
(-0.209806 0.0126357 0)
(-0.209705 0.0146877 0)
(-0.204536 0.0157497 0)
(-0.191949 0.0184011 0)
(-0.16705 0.0225151 0)
(-0.127589 0.0186642 0)
(-0.081941 -0.010607 0)
(-0.0481733 -0.0611839 0)
(-0.0369786 -0.106419 0)
(-0.0191801 -0.132053 0)
(0.000911116 -0.14721 0)
(0.0415539 -0.0476573 0)
(-0.0157874 0.162019 0)
(-0.0349619 0.147899 0)
(-0.0691849 0.128669 0)
(-0.0985562 0.112108 0)
(-0.114859 0.0695853 0)
(-0.112091 0.00333067 0)
(-0.127757 -0.0426021 0)
(-0.172502 -0.0461065 0)
(-0.20525 -0.026743 0)
(-0.21683 -0.00730911 0)
(-0.219581 0.00654381 0)
(-0.221011 0.0124175 0)
(-0.219656 0.0129396 0)
(-0.213793 0.011484 0)
(-0.202092 0.00977321 0)
(-0.180046 0.00660207 0)
(-0.144859 -0.00425982 0)
(-0.105444 -0.0311806 0)
(-0.0790673 -0.0719866 0)
(-0.0708261 -0.113279 0)
(-0.048499 -0.147682 0)
(-0.0260568 -0.165555 0)
(0.0137502 -0.0359802 0)
(-0.000789326 0.169628 0)
(-0.0018609 0.160671 0)
(-0.0184433 0.142361 0)
(-0.0268262 0.123573 0)
(-0.0233345 0.0792469 0)
(-0.0171419 0.0159826 0)
(-0.0625177 -0.0268278 0)
(-0.144041 -0.0273468 0)
(-0.198291 -0.0129411 0)
(-0.224249 -0.000809393 0)
(-0.232392 0.00938285 0)
(-0.232923 0.0135416 0)
(-0.229094 0.0118146 0)
(-0.220871 0.0075191 0)
(-0.208507 0.00230778 0)
(-0.189362 -0.00550645 0)
(-0.161121 -0.0197644 0)
(-0.129766 -0.0444445 0)
(-0.107958 -0.0787548 0)
(-0.0969402 -0.117932 0)
(-0.0803696 -0.159548 0)
(-0.0827283 -0.179198 0)
(-0.0652126 -0.0605374 0)
(0.00924229 0.159393 0)
(0.0338184 0.159763 0)
(0.0538899 0.136749 0)
(0.0773835 0.109852 0)
(0.0949346 0.0676544 0)
(0.0710076 0.0273586 0)
(-0.0311753 0.017833 0)
(-0.139781 0.018447 0)
(-0.195074 0.0137218 0)
(-0.226643 0.00983735 0)
(-0.242124 0.010065 0)
(-0.245256 0.00989869 0)
(-0.240349 0.00673188 0)
(-0.229783 0.00203877 0)
(-0.215609 -0.00426519 0)
(-0.196843 -0.0146862 0)
(-0.171505 -0.0313774 0)
(-0.143421 -0.0552872 0)
(-0.121567 -0.0855599 0)
(-0.109287 -0.120029 0)
(-0.107048 -0.156533 0)
(-0.145824 -0.181153 0)
(-0.162895 -0.126661 0)
(0.0729453 -0.111573 0)
(0.292212 -0.0539452 0)
(-0.133758 0.107786 0)
(-0.891834 0.206629 0)
(-1.58356 0.122906 0)
(-1.25518 -0.0472746 0)
(-0.566508 -0.0997487 0)
(-0.207145 -0.0107779 0)
(-0.0269191 0.0667018 0)
(-0.0454949 0.0562417 0)
(-0.185473 -0.047062 0)
(-0.244282 -0.0754336 0)
(-0.291294 0.026953 0)
(-0.435011 0.132855 0)
(-0.648794 0.110925 0)
(-0.733131 0.0529782 0)
(-0.654426 0.00794572 0)
(-0.450417 -0.0364962 0)
(-0.147684 -0.0493417 0)
(-0.0528127 -0.201008 0)
(0.00621336 0.222009 0)
(-0.939466 0.485577 0)
(-1.73439 0.486749 0)
(-1.56883 0.0397846 0)
(-0.430131 -0.480464 0)
(-0.0486739 -0.485764 0)
(0.268696 -0.279053 0)
(0.530848 -0.128218 0)
(0.759343 0.0327868 0)
(0.827008 0.189334 0)
(0.602255 0.189972 0)
(-0.230928 0.0736308 0)
(-0.646286 0.0847187 0)
(-0.7703 0.0185614 0)
(-0.783087 -0.0748835 0)
(-0.716744 -0.157061 0)
(-0.496781 -0.273282 0)
(-0.214058 -0.292874 0)
(-0.126553 -0.0965807 0)
(-0.55325 0.581619 0)
(-1.50322 0.833378 0)
(-1.76617 0.511937 0)
(-0.735166 -0.39262 0)
(-0.195984 -0.7934 0)
(-0.0129488 -0.630654 0)
(0.216034 -0.390385 0)
(0.432843 -0.237737 0)
(0.618467 -0.10286 0)
(0.789284 0.0466624 0)
(1.01232 0.321593 0)
(0.684849 0.45078 0)
(0.30376 0.386227 0)
(0.10124 0.216046 0)
(-0.32046 0.00572059 0)
(-0.524228 -0.130438 0)
(-0.300938 -0.348272 0)
(-0.16487 -0.508805 0)
(-0.308387 0.220444 0)
(-0.961993 0.939544 0)
(-1.65009 1.02684 0)
(-1.28779 0.22619 0)
(-0.309268 -0.719054 0)
(-0.146266 -0.918707 0)
(-0.0216634 -0.704201 0)
(0.150722 -0.473782 0)
(0.32798 -0.31273 0)
(0.50905 -0.149252 0)
(0.652217 0.0176645 0)
(0.888524 0.238221 0)
(1.11155 0.479733 0)
(1.13524 0.547663 0)
(1.02857 0.435412 0)
(0.673429 0.241476 0)
(0.206635 -0.0357311 0)
(0.129262 -0.325072 0)
(0.0177823 -0.545403 0)
(-0.413427 0.570095 0)
(-1.13021 1.23476 0)
(-1.51696 1.06031 0)
(-0.748059 -0.121708 0)
(-0.188728 -0.940892 0)
(-0.139033 -0.971727 0)
(-0.0537042 -0.767234 0)
(0.0673488 -0.551883 0)
(0.200474 -0.401139 0)
(0.362408 -0.240288 0)
(0.518391 -0.0824369 0)
(0.688788 0.139646 0)
(0.95709 0.333862 0)
(1.23369 0.443409 0)
(1.37386 0.484473 0)
(1.20081 0.40212 0)
(0.828683 0.164214 0)
(0.590022 -0.142063 0)
(0.219694 -0.404443 0)
(-0.447803 0.936265 0)
(-1.14343 1.46936 0)
(-1.22936 0.925864 0)
(-0.38849 -0.458139 0)
(-0.216346 -1.05056 0)
(-0.181713 -1.00435 0)
(-0.0976931 -0.811636 0)
(-0.0386329 -0.602707 0)
(0.0448415 -0.474178 0)
(0.179594 -0.33656 0)
(0.311934 -0.219228 0)
(0.483851 -0.0518938 0)
(0.661731 0.110065 0)
(0.920506 0.256614 0)
(1.20558 0.422098 0)
(1.24147 0.483313 0)
(1.06104 0.324835 0)
(0.773196 0.033343 0)
(0.340223 -0.195061 0)
(-0.479548 1.31799 0)
(-1.09758 1.64726 0)
(-0.965846 0.769874 0)
(-0.273931 -0.69396 0)
(-0.276699 -1.08113 0)
(-0.243252 -1.03899 0)
(-0.167963 -0.845696 0)
(-0.172421 -0.638252 0)
(-0.159779 -0.541339 0)
(-0.0768771 -0.420682 0)
(-0.00640281 -0.266316 0)
(0.149671 -0.0145565 0)
(0.356306 0.0979573 0)
(0.582195 0.150635 0)
(0.895345 0.326624 0)
(1.05577 0.469658 0)
(0.984916 0.398606 0)
(0.755256 0.21182 0)
(0.393642 0.0624006 0)
(-0.452484 1.67505 0)
(-1.04346 1.80717 0)
(-0.775841 0.594227 0)
(-0.33879 -0.864139 0)
(-0.360841 -1.08673 0)
(-0.328153 -1.07557 0)
(-0.265873 -0.861286 0)
(-0.323181 -0.629308 0)
(-0.390175 -0.544131 0)
(-0.423589 -0.35169 0)
(-0.385044 -0.192975 0)
(-0.219189 -0.12585 0)
(0.152935 -0.0545636 0)
(0.283722 3.75681e-05 0)
(0.545569 0.22445 0)
(0.752669 0.436716 0)
(0.724232 0.455903 0)
(0.585231 0.360015 0)
(0.332431 0.314001 0)
(0.0202858 0.113656 0)
(0.040938 0.109686 0)
(0.0265004 0.100679 0)
(-0.0157013 0.107394 0)
(-0.0803523 0.106691 0)
(-0.142654 0.0939901 0)
(-0.185788 0.0736127 0)
(-0.211745 0.0483817 0)
(-0.224804 0.0330033 0)
(-0.236225 0.0262982 0)
(-0.246567 0.022701 0)
(-0.251175 0.015414 0)
(-0.246055 0.00306177 0)
(-0.234523 -0.00906282 0)
(-0.222289 -0.0192299 0)
(-0.205706 -0.0335681 0)
(-0.17915 -0.0552106 0)
(-0.146235 -0.0813318 0)
(-0.120168 -0.104026 0)
(-0.107071 -0.121916 0)
(-0.114326 -0.13638 0)
(-0.166135 -0.141249 0)
(-0.221593 -0.117067 0)
(-0.376968 0.146455 0)
(-0.355846 0.18032 0)
(-0.446815 0.180422 0)
(-0.470175 0.1732 0)
(-0.454584 0.142482 0)
(-0.422228 0.10296 0)
(-0.385542 0.0740327 0)
(-0.34712 0.0512085 0)
(-0.309124 0.0353979 0)
(-0.27433 0.0264685 0)
(-0.247513 0.0192012 0)
(-0.229579 0.00765532 0)
(-0.217503 -0.00638914 0)
(-0.211262 -0.0156862 0)
(-0.208202 -0.0281388 0)
(-0.194784 -0.055949 0)
(-0.16598 -0.0907828 0)
(-0.134035 -0.116427 0)
(-0.113062 -0.121781 0)
(-0.100272 -0.117635 0)
(-0.0978941 -0.11453 0)
(-0.115836 -0.116029 0)
(-0.128795 -0.117125 0)
(-0.574584 0.788287 0)
(-0.967701 0.318395 0)
(-1.08573 0.203082 0)
(-1.04801 0.116686 0)
(-0.931574 0.0582876 0)
(-0.832482 0.0182928 0)
(-0.770403 -0.0121562 0)
(-0.711344 -0.0328281 0)
(-0.637244 -0.0403861 0)
(-0.560732 -0.0338099 0)
(-0.505758 -0.0233008 0)
(-0.461453 -0.0128121 0)
(-0.412656 -0.0091347 0)
(-0.353128 -0.0158585 0)
(-0.307432 -0.0293594 0)
(-0.296528 -0.0520412 0)
(-0.295049 -0.0804768 0)
(-0.271366 -0.102153 0)
(-0.227665 -0.112279 0)
(-0.184127 -0.117687 0)
(-0.149079 -0.116828 0)
(-0.137743 -0.102486 0)
(-0.147665 -0.0796594 0)
(-0.370081 1.40389 0)
(-0.649601 0.738254 0)
(-0.962935 0.371357 0)
(-1.1803 0.1206 0)
(-1.4281 -0.0220445 0)
(-1.68413 -0.00849516 0)
(-1.9328 -0.00208923 0)
(-2.11964 -0.0334061 0)
(-2.18001 -0.0995047 0)
(-2.08986 -0.151787 0)
(-1.85982 -0.145822 0)
(-1.57245 -0.13597 0)
(-1.35386 -0.149321 0)
(-1.17877 -0.119248 0)
(-1.07077 -0.0851221 0)
(-0.98859 -0.0949929 0)
(-0.865958 -0.154606 0)
(-0.692461 -0.223197 0)
(-0.527911 -0.239851 0)
(-0.404766 -0.211777 0)
(-0.322692 -0.167043 0)
(-0.270946 -0.110698 0)
(-0.255409 -0.0576482 0)
(-0.21976 1.77318 0)
(-0.342177 1.08916 0)
(-0.628504 0.681077 0)
(-0.747174 0.461152 0)
(-0.887927 0.39723 0)
(-1.05251 0.384967 0)
(-1.25105 0.309486 0)
(-1.44266 0.132691 0)
(-1.62916 -0.103426 0)
(-1.83674 -0.289854 0)
(-1.98691 -0.354819 0)
(-2.06911 -0.34088 0)
(-2.20311 -0.321902 0)
(-2.3441 -0.245581 0)
(-2.23056 -0.223588 0)
(-1.90014 -0.327958 0)
(-1.56207 -0.504405 0)
(-1.34634 -0.528492 0)
(-1.18264 -0.447944 0)
(-1.01026 -0.356482 0)
(-0.830374 -0.291295 0)
(-0.68731 -0.192195 0)
(-0.579014 -0.0418229 0)
(-0.108989 1.941 0)
(-0.0854968 1.26052 0)
(-0.362137 0.819142 0)
(-0.330754 0.537964 0)
(-0.366417 0.417924 0)
(-0.375375 0.441688 0)
(-0.41176 0.462129 0)
(-0.519587 0.40461 0)
(-0.687082 0.278018 0)
(-0.901962 0.133896 0)
(-1.14143 -0.0272271 0)
(-1.34981 -0.130126 0)
(-1.55745 -0.126814 0)
(-1.73368 -0.148119 0)
(-1.74504 -0.32888 0)
(-1.6925 -0.597921 0)
(-1.67268 -0.638698 0)
(-1.63706 -0.587836 0)
(-1.57972 -0.516601 0)
(-1.49079 -0.479178 0)
(-1.35679 -0.487609 0)
(-1.17741 -0.418886 0)
(-0.981083 -0.257386 0)
(0.0103362 1.89998 0)
(0.156358 1.44967 0)
(-0.127009 0.865176 0)
(-0.0481869 0.50991 0)
(-0.0585218 0.368009 0)
(-0.0279647 0.384299 0)
(0.00719427 0.422635 0)
(0.00584157 0.4428 0)
(-0.0654132 0.403099 0)
(-0.215862 0.302066 0)
(-0.400509 0.204522 0)
(-0.603527 0.167652 0)
(-0.910237 0.161921 0)
(-1.31775 0.0256961 0)
(-1.58983 -0.276953 0)
(-1.74353 -0.580732 0)
(-1.78979 -0.620113 0)
(-1.79796 -0.582909 0)
(-1.76857 -0.535594 0)
(-1.7003 -0.465292 0)
(-1.58273 -0.385119 0)
(-1.43035 -0.299431 0)
(-1.27034 -0.167027 0)
(0.124139 1.65776 0)
(0.356233 1.57168 0)
(0.192913 0.9703 0)
(0.183546 0.527729 0)
(0.153239 0.361843 0)
(0.139715 0.369152 0)
(0.146401 0.405738 0)
(0.147788 0.43148 0)
(0.14547 0.437756 0)
(0.0891531 0.405171 0)
(-0.0242563 0.354073 0)
(-0.164013 0.354211 0)
(-0.28952 0.43624 0)
(-0.54579 0.427725 0)
(-0.905661 0.206206 0)
(-1.25609 -0.374351 0)
(-1.40552 -0.606301 0)
(-1.5245 -0.603625 0)
(-1.53906 -0.587884 0)
(-1.45603 -0.660282 0)
(-1.28809 -0.857542 0)
(-1.45549 -0.826775 0)
(-1.46051 -0.562352 0)
(0.174945 1.29817 0)
(0.444608 1.50224 0)
(0.432852 1.03997 0)
(0.38792 0.60369 0)
(0.307607 0.407214 0)
(0.234417 0.396357 0)
(0.196001 0.4301 0)
(0.158315 0.44535 0)
(0.145281 0.451111 0)
(0.134402 0.453959 0)
(0.0913749 0.445982 0)
(0.0200352 0.452799 0)
(-0.0112285 0.524008 0)
(-0.0105046 0.592948 0)
(-0.142316 0.434602 0)
(-0.449227 0.0984551 0)
(-0.442271 -0.478171 0)
(-0.474473 -0.72683 0)
(-0.411598 -0.704274 0)
(-0.609356 -0.635318 0)
(-0.915569 -0.398253 0)
(-1.20479 -0.390645 0)
(-1.46152 -0.489033 0)
(0.119475 0.987151 0)
(0.376377 1.30464 0)
(0.4707 1.01081 0)
(0.458069 0.668602 0)
(0.366272 0.492158 0)
(0.267458 0.463845 0)
(0.206324 0.479356 0)
(0.153293 0.481724 0)
(0.116674 0.471171 0)
(0.102817 0.475435 0)
(0.0926887 0.488489 0)
(0.0694916 0.493675 0)
(0.0718571 0.513194 0)
(0.126231 0.564642 0)
(0.171009 0.515603 0)
(0.0773318 0.186651 0)
(-0.147154 -0.353254 0)
(-0.58378 -0.563555 0)
(-0.84252 -0.508031 0)
(-0.939924 -0.402673 0)
(-0.905708 -0.206213 0)
(-0.916212 -0.125126 0)
(-1.10907 -0.128512 0)
(0.0169019 0.829724 0)
(0.220865 1.09526 0)
(0.363557 0.926939 0)
(0.392998 0.705747 0)
(0.328555 0.579089 0)
(0.248517 0.54123 0)
(0.193689 0.535942 0)
(0.149198 0.527787 0)
(0.11037 0.504823 0)
(0.0844778 0.492752 0)
(0.077104 0.498542 0)
(0.0745791 0.494535 0)
(0.0828576 0.479675 0)
(0.114979 0.482034 0)
(0.176644 0.465295 0)
(0.194169 0.32155 0)
(0.048503 0.096216 0)
(-0.282827 -0.117255 0)
(-0.67424 -0.315959 0)
(-0.99941 -0.410508 0)
(-1.10367 -0.34915 0)
(-0.979323 -0.147031 0)
(-0.838233 0.0886082 0)
(-0.0377469 0.784197 0)
(0.0976585 0.920819 0)
(0.2336 0.835128 0)
(0.278913 0.715517 0)
(0.250714 0.635656 0)
(0.207544 0.596272 0)
(0.17352 0.57866 0)
(0.145803 0.565097 0)
(0.118093 0.539121 0)
(0.0911249 0.514147 0)
(0.0783389 0.501682 0)
(0.077478 0.486369 0)
(0.0787725 0.461151 0)
(0.0810676 0.440602 0)
(0.0985813 0.415337 0)
(0.105955 0.345136 0)
(0.0340378 0.23276 0)
(-0.116832 0.14694 0)
(-0.334279 0.0782374 0)
(-0.596647 -0.0210532 0)
(-0.93313 -0.180351 0)
(-1.27678 -0.290077 0)
(-1.06654 -0.166776 0)
(-0.0331222 0.778188 0)
(0.04789 0.80278 0)
(0.143082 0.758405 0)
(0.184094 0.70318 0)
(0.182402 0.655862 0)
(0.168855 0.621328 0)
(0.154175 0.60045 0)
(0.141511 0.585318 0)
(0.1268 0.562162 0)
(0.107449 0.534479 0)
(0.0925915 0.5105 0)
(0.0853226 0.487989 0)
(0.0763392 0.46488 0)
(0.060486 0.444595 0)
(0.0451436 0.420975 0)
(0.0237878 0.377081 0)
(-0.0307872 0.314921 0)
(-0.117339 0.266735 0)
(-0.242459 0.221645 0)
(-0.394681 0.169808 0)
(-0.566566 0.116738 0)
(-0.790916 -0.041111 0)
(-0.581485 -0.452252 0)
(-0.00980461 0.771463 0)
(0.038609 0.735579 0)
(0.0938341 0.704322 0)
(0.126607 0.681903 0)
(0.137649 0.653668 0)
(0.139718 0.626382 0)
(0.137063 0.607079 0)
(0.134191 0.592481 0)
(0.129001 0.573508 0)
(0.118305 0.549031 0)
(0.105075 0.523356 0)
(0.0915794 0.500077 0)
(0.0741627 0.481724 0)
(0.0499765 0.467728 0)
(0.0218584 0.452421 0)
(-0.015188 0.424933 0)
(-0.0730729 0.387551 0)
(-0.150058 0.360082 0)
(-0.24697 0.330595 0)
(-0.407732 0.305754 0)
(-0.545474 0.271255 0)
(-0.452597 -0.13704 0)
(-0.453723 -0.487257 0)
(0.00565002 0.753867 0)
(0.0375996 0.695868 0)
(0.0700538 0.668944 0)
(0.0959553 0.660962 0)
(0.110228 0.64323 0)
(0.118264 0.622547 0)
(0.121421 0.606154 0)
(0.123402 0.592987 0)
(0.123223 0.577755 0)
(0.118121 0.558276 0)
(0.107511 0.536777 0)
(0.0915294 0.51764 0)
(0.0702179 0.504383 0)
(0.0437063 0.496071 0)
(0.0123954 0.488451 0)
(-0.0278057 0.474244 0)
(-0.0854805 0.45782 0)
(-0.158135 0.451359 0)
(-0.252654 0.460402 0)
(-0.465136 0.4816 0)
(-0.634137 0.279387 0)
(-0.665398 -0.287826 0)
(-0.692457 -0.459497 0)
(0.0112048 0.730854 0)
(0.0354423 0.668235 0)
(0.0579667 0.644474 0)
(0.0785909 0.642761 0)
(0.0922192 0.631209 0)
(0.101815 0.615644 0)
(0.107205 0.602165 0)
(0.110909 0.590762 0)
(0.112502 0.578752 0)
(0.109919 0.564478 0)
(0.101491 0.549253 0)
(0.0863774 0.536281 0)
(0.0656324 0.528207 0)
(0.0405204 0.52458 0)
(0.0109321 0.523177 0)
(-0.025942 0.52093 0)
(-0.0765244 0.520701 0)
(-0.136294 0.535038 0)
(-0.213434 0.597002 0)
(-0.373105 0.675768 0)
(-0.501518 0.377095 0)
(-0.588347 -0.193464 0)
(-0.659008 -0.563241 0)
(0.0119608 0.708403 0)
(0.0320525 0.646007 0)
(0.0504681 0.625677 0)
(0.0671062 0.627191 0)
(0.0794215 0.619595 0)
(0.0890715 0.6079 0)
(0.0951457 0.597176 0)
(0.0992305 0.587781 0)
(0.101139 0.578696 0)
(0.0995395 0.56914 0)
(0.0929113 0.55995 0)
(0.0804551 0.552962 0)
(0.0630427 0.549767 0)
(0.0416889 0.550425 0)
(0.0162907 0.554593 0)
(-0.0145706 0.561653 0)
(-0.0548056 0.572124 0)
(-0.0994329 0.602767 0)
(-0.148269 0.702012 0)
(-0.242655 0.79497 0)
(-0.332409 0.488874 0)
(-0.413762 -0.0270551 0)
(-0.505085 -0.396182 0)
(0.0112004 0.688122 0)
(0.0285688 0.626564 0)
(0.0450161 0.610174 0)
(0.0587513 0.613754 0)
(0.0700866 0.60876 0)
(0.0794576 0.600068 0)
(0.085825 0.591945 0)
(0.0900979 0.584748 0)
(0.0921552 0.578355 0)
(0.0913023 0.572667 0)
(0.0865513 0.568265 0)
(0.0774285 0.566112 0)
(0.0643984 0.567143 0)
(0.0479392 0.571779 0)
(0.0279008 0.580779 0)
(0.00392705 0.594578 0)
(-0.0256985 0.611646 0)
(-0.0589241 0.648831 0)
(-0.0816263 0.759403 0)
(-0.118192 0.85799 0)
(-0.208232 0.552657 0)
(-0.291443 0.087941 0)
(-0.374118 -0.307882 0)
(0.0101002 0.669917 0)
(0.0256173 0.609025 0)
(0.0407276 0.596732 0)
(0.0525721 0.601797 0)
(0.0633419 0.598532 0)
(0.0724994 0.592223 0)
(0.0792363 0.586448 0)
(0.0839879 0.581454 0)
(0.0866359 0.577475 0)
(0.0869119 0.57479 0)
(0.0843334 0.573878 0)
(0.0786744 0.575312 0)
(0.0700953 0.579753 0)
(0.058742 0.58781 0)
(0.0444865 0.60051 0)
(0.0272912 0.618679 0)
(0.00717948 0.640301 0)
(-0.0168757 0.675025 0)
(-0.0268589 0.77074 0)
(-0.00372922 0.881173 0)
(-0.0592964 0.65832 0)
(-0.151796 0.177548 0)
(-0.286727 -0.265301 0)
(0.00907404 0.653464 0)
(0.0233328 0.593099 0)
(0.0372192 0.584544 0)
(0.0480759 0.590695 0)
(0.058571 0.588621 0)
(0.0676942 0.584193 0)
(0.0749607 0.580391 0)
(0.0805263 0.57738 0)
(0.0842794 0.575466 0)
(0.0861551 0.575065 0)
(0.0859909 0.576632 0)
(0.0836958 0.580636 0)
(0.07928 0.587655 0)
(0.0727597 0.598349 0)
(0.064059 0.613614 0)
(0.0532547 0.634234 0)
(0.0405757 0.659075 0)
(0.0243302 0.689749 0)
(0.0145366 0.75618 0)
(0.0529191 0.854825 0)
(0.0520382 0.730915 0)
(-0.0561823 0.317315 0)
(-0.199293 -0.0582737 0)
(0.00832012 0.638315 0)
(0.0216525 0.578618 0)
(0.0343783 0.573099 0)
(0.0448951 0.579991 0)
(0.0552944 0.578785 0)
(0.0645668 0.575808 0)
(0.0724745 0.573552 0)
(0.0790552 0.572149 0)
(0.0842298 0.571882 0)
(0.0879997 0.573176 0)
(0.0903488 0.576482 0)
(0.091266 0.582272 0)
(0.0907238 0.591115 0)
(0.0887184 0.603658 0)
(0.0851984 0.620672 0)
(0.0801212 0.642841 0)
(0.0731945 0.669944 0)
(0.0626295 0.700554 0)
(0.0492647 0.745028 0)
(0.0619304 0.815346 0)
(0.0759101 0.774454 0)
(-0.0293844 0.485596 0)
(-0.203407 0.0709438 0)
(0.00786965 0.624028 0)
(0.0204588 0.565401 0)
(0.032193 0.562075 0)
(0.0427275 0.569401 0)
(0.0531457 0.568856 0)
(0.06271 0.566961 0)
(0.07131 0.565839 0)
(0.0789686 0.565614 0)
(0.0856583 0.566541 0)
(0.0914052 0.569008 0)
(0.096253 0.573467 0)
(0.100258 0.580401 0)
(0.103423 0.590391 0)
(0.105778 0.604087 0)
(0.107287 0.622266 0)
(0.107739 0.645719 0)
(0.106486 0.675075 0)
(0.101391 0.709791 0)
(0.0889657 0.750612 0)
(0.073115 0.806929 0)
(0.0575557 0.831642 0)
(-0.0633105 0.661549 0)
(-0.300679 0.211934 0)
(0.00763672 0.610278 0)
(0.0196261 0.553207 0)
(0.0306124 0.551266 0)
(0.0413143 0.558766 0)
(0.0518316 0.558718 0)
(0.0617762 0.557587 0)
(0.0710795 0.557235 0)
(0.0797977 0.557778 0)
(0.0879586 0.559449 0)
(0.0956248 0.562602 0)
(0.102884 0.567678 0)
(0.109865 0.575158 0)
(0.116655 0.585624 0)
(0.123374 0.599766 0)
(0.130089 0.618457 0)
(0.136656 0.642789 0)
(0.142561 0.674228 0)
(0.145955 0.714343 0)
(0.143286 0.764347 0)
(0.126083 0.830615 0)
(0.089998 0.921548 0)
(-0.0168805 0.859586 0)
(-0.433643 0.354198 0)
(0.00751985 0.596865 0)
(0.0190466 0.541775 0)
(0.0295185 0.540541 0)
(0.0404307 0.548011 0)
(0.0510981 0.5483 0)
(0.0614599 0.547659 0)
(0.0714483 0.547761 0)
(0.0811669 0.548707 0)
(0.0906927 0.550706 0)
(0.100143 0.554081 0)
(0.109666 0.559246 0)
(0.119466 0.56666 0)
(0.129764 0.576883 0)
(0.140833 0.590623 0)
(0.152983 0.608823 0)
(0.166474 0.632815 0)
(0.181541 0.664634 0)
(0.197978 0.707374 0)
(0.215295 0.765599 0)
(0.233317 0.84683 0)
(0.231639 0.979054 0)
(0.318363 1.12292 0)
(-0.130292 0.61509 0)
(0.00745617 0.583678 0)
(0.018635 0.530875 0)
(0.0287678 0.529825 0)
(0.039884 0.537102 0)
(0.0507203 0.537573 0)
(0.0614901 0.537185 0)
(0.0721138 0.537468 0)
(0.082741 0.538499 0)
(0.093491 0.540454 0)
(0.104538 0.543623 0)
(0.116097 0.548367 0)
(0.12846 0.5551 0)
(0.141984 0.564318 0)
(0.15714 0.576664 0)
(0.174556 0.593009 0)
(0.195072 0.614617 0)
(0.21997 0.643436 0)
(0.25125 0.682503 0)
(0.292314 0.736682 0)
(0.354004 0.812855 0)
(0.425164 0.923796 0)
(0.649929 1.12133 0)
(0.615972 0.923876 0)
(0.00741427 0.570658 0)
(0.0183204 0.520335 0)
(0.0282329 0.519091 0)
(0.0395145 0.526041 0)
(0.0505045 0.52655 0)
(0.0616346 0.526214 0)
(0.0728074 0.526443 0)
(0.0842146 0.527286 0)
(0.0960094 0.52888 0)
(0.10841 0.531465 0)
(0.121694 0.535336 0)
(0.136225 0.540826 0)
(0.152471 0.548322 0)
(0.171072 0.558307 0)
(0.192904 0.571404 0)
(0.219235 0.588464 0)
(0.252037 0.610673 0)
(0.294454 0.639613 0)
(0.351791 0.677243 0)
(0.43464 0.725557 0)
(0.549033 0.779014 0)
(0.753985 0.86564 0)
(0.985245 0.823485 0)
(0.00737128 0.557787 0)
(0.0180432 0.510038 0)
(0.0278155 0.508347 0)
(0.0391976 0.514858 0)
(0.0502954 0.515284 0)
(0.0617043 0.514832 0)
(0.073306 0.514812 0)
(0.0853276 0.515243 0)
(0.0979455 0.516216 0)
(0.111406 0.517914 0)
(0.126026 0.520553 0)
(0.142212 0.524364 0)
(0.16049 0.529591 0)
(0.18157 0.536501 0)
(0.206414 0.545377 0)
(0.236372 0.556513 0)
(0.273419 0.57014 0)
(0.320389 0.586186 0)
(0.381705 0.603742 0)
(0.462807 0.61993 0)
(0.572384 0.625379 0)
(0.717066 0.610286 0)
(0.923721 0.545477 0)
(0.00730477 0.54508 0)
(0.017761 0.499909 0)
(0.0274402 0.49762 0)
(0.0388416 0.503615 0)
(0.0499773 0.503857 0)
(0.0615573 0.503156 0)
(0.0734421 0.502735 0)
(0.0858833 0.502581 0)
(0.0990706 0.502742 0)
(0.113261 0.503338 0)
(0.128783 0.504502 0)
(0.146049 0.506363 0)
(0.165585 0.509017 0)
(0.188074 0.512525 0)
(0.214404 0.516857 0)
(0.245743 0.521853 0)
(0.283648 0.52707 0)
(0.330097 0.531509 0)
(0.387736 0.533177 0)
(0.458889 0.527936 0)
(0.547386 0.509435 0)
(0.650089 0.463668 0)
(0.773782 0.38396 0)
(0.00719984 0.532569 0)
(0.0174549 0.48992 0)
(0.0270462 0.486946 0)
(0.038384 0.49239 0)
(0.04947 0.49237 0)
(0.0610977 0.491323 0)
(0.0731047 0.490393 0)
(0.0857562 0.489537 0)
(0.0992444 0.488763 0)
(0.11382 0.488131 0)
(0.129802 0.487701 0)
(0.147579 0.487507 0)
(0.167632 0.487524 0)
(0.190557 0.487654 0)
(0.217088 0.487656 0)
(0.24812 0.487106 0)
(0.284736 0.485262 0)
(0.328169 0.480886 0)
(0.379731 0.472012 0)
(0.440339 0.45531 0)
(0.51031 0.426595 0)
(0.586649 0.378097 0)
(0.663667 0.305604 0)
(0.00705911 0.520281 0)
(0.0171269 0.480082 0)
(0.0265809 0.476367 0)
(0.0377821 0.481274 0)
(0.0487202 0.480936 0)
(0.060268 0.47948 0)
(0.0722326 0.477974 0)
(0.0848856 0.476354 0)
(0.0984106 0.474587 0)
(0.11304 0.472685 0)
(0.12907 0.470646 0)
(0.146843 0.468428 0)
(0.166775 0.465923 0)
(0.189351 0.462925 0)
(0.215136 0.459086 0)
(0.244765 0.453863 0)
(0.278924 0.446448 0)
(0.318298 0.435653 0)
(0.363394 0.419794 0)
(0.414269 0.396469 0)
(0.46995 0.36267 0)
(0.527589 0.314434 0)
(0.582076 0.24971 0)
(0.00690644 0.508227 0)
(0.0167913 0.47045 0)
(0.0259987 0.465944 0)
(0.037003 0.470356 0)
(0.0476899 0.469667 0)
(0.0590352 0.467774 0)
(0.0707999 0.465664 0)
(0.0832608 0.463263 0)
(0.0965824 0.460504 0)
(0.110972 0.457358 0)
(0.126691 0.453776 0)
(0.14403 0.449662 0)
(0.163331 0.444855 0)
(0.184967 0.439094 0)
(0.209349 0.431986 0)
(0.236892 0.422966 0)
(0.267981 0.411262 0)
(0.302906 0.395832 0)
(0.341709 0.375319 0)
(0.383976 0.348026 0)
(0.428482 0.311975 0)
(0.472759 0.265095 0)
(0.51367 0.20695 0)
(0.00677779 0.496395 0)
(0.0164581 0.461113 0)
(0.0252661 0.455761 0)
(0.0360158 0.459723 0)
(0.0463452 0.458674 0)
(0.0573763 0.45634 0)
(0.0687985 0.45363 0)
(0.0808998 0.45047 0)
(0.0938156 0.446764 0)
(0.107725 0.442451 0)
(0.122848 0.43745 0)
(0.139423 0.43163 0)
(0.157715 0.4248 0)
(0.178002 0.416681 0)
(0.200559 0.40688 0)
(0.225637 0.394867 0)
(0.253405 0.379957 0)
(0.283907 0.361295 0)
(0.316943 0.337857 0)
(0.351945 0.308507 0)
(0.387794 0.272077 0)
(0.422589 0.227539 0)
(0.45432 0.175088 0)
(0.00670148 0.484764 0)
(0.0161183 0.452173 0)
(0.0243646 0.44593 0)
(0.0347865 0.449465 0)
(0.0446504 0.448058 0)
(0.0552678 0.445299 0)
(0.0662206 0.442016 0)
(0.0778236 0.438145 0)
(0.0901724 0.433566 0)
(0.103417 0.428196 0)
(0.117739 0.421933 0)
(0.133321 0.41463 0)
(0.150362 0.406082 0)
(0.169055 0.396015 0)
(0.189572 0.384063 0)
(0.212044 0.369759 0)
(0.236508 0.352528 0)
(0.26287 0.331699 0)
(0.290839 0.306533 0)
(0.319846 0.27629 0)
(0.34897 0.240308 0)
(0.376822 0.198083 0)
(0.402085 0.149943 0)
(0.00668347 0.473319 0)
(0.0157425 0.443726 0)
(0.0232815 0.436582 0)
(0.0332771 0.439677 0)
(0.0425656 0.437918 0)
(0.0526758 0.434759 0)
(0.063042 0.430943 0)
(0.0740283 0.426422 0)
(0.0856813 0.421059 0)
(0.0981254 0.414757 0)
(0.111506 0.407403 0)
(0.125957 0.398844 0)
(0.141616 0.388879 0)
(0.158609 0.377248 0)
(0.177034 0.363624 0)
(0.196938 0.347612 0)
(0.218283 0.328741 0)
(0.240918 0.306499 0)
(0.264531 0.280357 0)
(0.288623 0.249832 0)
(0.312481 0.214549 0)
(0.335138 0.174263 0)
(0.355762 0.129278 0)
(0.0067121 0.462075 0)
(0.0152941 0.435868 0)
(0.0219968 0.427862 0)
(0.0314459 0.430462 0)
(0.0400444 0.428353 0)
(0.0495498 0.424828 0)
(0.0592104 0.420524 0)
(0.069467 0.415416 0)
(0.0803081 0.409358 0)
(0.0918402 0.402246 0)
(0.104176 0.393968 0)
(0.117406 0.384366 0)
(0.131622 0.373255 0)
(0.146894 0.360396 0)
(0.163268 0.345504 0)
(0.180738 0.328245 0)
(0.199227 0.308242 0)
(0.218567 0.285106 0)
(0.238472 0.258455 0)
(0.258531 0.227968 0)
(0.278217 0.193422 0)
(0.296887 0.154695 0)
(0.314019 0.112003 0)
(0.00676581 0.451073 0)
(0.0147352 0.428692 0)
(0.0204859 0.419924 0)
(0.0292557 0.421938 0)
(0.0370377 0.419476 0)
(0.0458289 0.415624 0)
(0.0546524 0.410875 0)
(0.0640582 0.405246 0)
(0.0739644 0.398576 0)
(0.0844701 0.390767 0)
(0.0956586 0.38171 0)
(0.107586 0.371254 0)
(0.120307 0.359229 0)
(0.133851 0.345421 0)
(0.148226 0.329583 0)
(0.163392 0.311432 0)
(0.179257 0.290671 0)
(0.195656 0.266995 0)
(0.212338 0.240128 0)
(0.228981 0.209839 0)
(0.245198 0.175977 0)
(0.260562 0.138468 0)
(0.274733 0.0974364 0)
(0.00680758 0.440406 0)
(0.0140183 0.422281 0)
(0.0187312 0.412919 0)
(0.0266867 0.414237 0)
(0.0335123 0.411422 0)
(0.0414678 0.407282 0)
(0.0493093 0.402135 0)
(0.0577346 0.396046 0)
(0.066569 0.388842 0)
(0.0759187 0.380441 0)
(0.08584 0.370735 0)
(0.0963598 0.359589 0)
(0.107505 0.346846 0)
(0.119275 0.332318 0)
(0.131649 0.315792 0)
(0.14457 0.297027 0)
(0.157935 0.275783 0)
(0.171588 0.251823 0)
(0.185314 0.224933 0)
(0.198855 0.194937 0)
(0.211913 0.161709 0)
(0.224189 0.125195 0)
(0.235439 0.0854681 0)
(0.00678757 0.430212 0)
(0.0130898 0.416666 0)
(0.0167269 0.406969 0)
(0.0237483 0.407478 0)
(0.0294761 0.404322 0)
(0.0364749 0.399928 0)
(0.0431929 0.394432 0)
(0.0505144 0.387946 0)
(0.0581386 0.380286 0)
(0.0662009 0.371391 0)
(0.0747263 0.361158 0)
(0.0837172 0.349466 0)
(0.0931788 0.336177 0)
(0.10309 0.321126 0)
(0.11341 0.304125 0)
(0.12407 0.284969 0)
(0.134963 0.263464 0)
(0.145938 0.239421 0)
(0.156805 0.212668 0)
(0.167355 0.183056 0)
(0.177338 0.150472 0)
(0.186525 0.114873 0)
(0.194732 0.0763094 0)
(0.00666253 0.420689 0)
(0.0119276 0.411915 0)
(0.0145112 0.402176 0)
(0.0204922 0.401773 0)
(0.0250089 0.39832 0)
(0.0309527 0.393693 0)
(0.0364386 0.387903 0)
(0.0425634 0.381087 0)
(0.0488661 0.373051 0)
(0.0555382 0.363763 0)
(0.0625616 0.353121 0)
(0.0699231 0.341024 0)
(0.077613 0.327349 0)
(0.0855951 0.31195 0)
(0.0938175 0.29466 0)
(0.102205 0.275309 0)
(0.110649 0.253735 0)
(0.119004 0.229787 0)
(0.127102 0.203319 0)
(0.134767 0.1742 0)
(0.141787 0.142321 0)
(0.147987 0.107648 0)
(0.153257 0.0702031 0)
(0.00630129 0.4119 0)
(0.0104238 0.407942 0)
(0.0120982 0.398575 0)
(0.0169356 0.397168 0)
(0.0201988 0.39348 0)
(0.0250146 0.388613 0)
(0.0292118 0.382587 0)
(0.0340808 0.375493 0)
(0.0389951 0.367161 0)
(0.0442205 0.357575 0)
(0.049684 0.346635 0)
(0.0553708 0.334259 0)
(0.0612606 0.320338 0)
(0.0673121 0.304737 0)
(0.0734708 0.287314 0)
(0.0796578 0.267927 0)
(0.0857671 0.246442 0)
(0.0916683 0.222731 0)
(0.0972168 0.196666 0)
(0.102262 0.16813 0)
(0.10663 0.137013 0)
(0.110188 0.103263 0)
(0.112904 0.0668402 0)
(0.00588449 0.404859 0)
(0.00895229 0.405189 0)
(0.00985177 0.396229 0)
(0.013529 0.393893 0)
(0.0156359 0.390069 0)
(0.0193922 0.384995 0)
(0.0223899 0.378816 0)
(0.026091 0.371524 0)
(0.0297133 0.363 0)
(0.0336018 0.35323 0)
(0.0376229 0.342118 0)