/*--------------------------------*- C++ -*----------------------------------*\
| =========                 |                                                 |
| \\      /  F ield         | OpenFOAM: The Open Source CFD Toolbox           |
|  \\    /   O peration     | Version:  2206                                  |
|   \\  /    A nd           | Website:  www.openfoam.com                      |
|    \\/     M anipulation  |                                                 |
\*---------------------------------------------------------------------------*/
FoamFile
{
    version     2.0;
    format      ascii;
    arch        "LSB;label=32;scalar=64";
    class       volVectorField;
    location    "0.7";
    object      U;
}
// * * * * * * * * * * * * * * * * * * * * * * * * * * * * * * * * * * * * * //

dimensions      [0 1 -1 0 0 0 0];

internalField   nonuniform List<vector> 
2268
(
(-0.0202561 0.00924658 0)
(-0.0652783 0.010853 0)
(-0.102325 0.00726368 0)
(-0.123514 0.00447801 0)
(-0.138344 0.0017794 0)
(-0.136888 -0.00229678 0)
(-0.115946 -0.00652058 0)
(-0.0815356 -0.00804431 0)
(-0.0485409 -0.00619727 0)
(-0.0278617 -0.00301074 0)
(-0.02034 0.00034728 0)
(-0.0255155 0.0031239 0)
(-0.0387618 0.0050019 0)
(-0.0570394 0.00652329 0)
(-0.0797662 0.00851302 0)
(-0.109758 0.00927279 0)
(-0.143338 0.00381242 0)
(-0.160283 -0.000474264 0)
(-0.184045 0.0110085 0)
(-0.265824 0.0208368 0)
(-0.314782 0.00415618 0)
(-0.230147 -0.033829 0)
(-0.0810631 -0.0488595 0)
(-0.0328255 0.0313792 0)
(-0.076523 0.0289575 0)
(-0.103343 0.0182642 0)
(-0.122321 0.0126002 0)
(-0.13908 0.00609322 0)
(-0.141461 -0.00612039 0)
(-0.122106 -0.0201815 0)
(-0.0860884 -0.0257519 0)
(-0.0501851 -0.0199685 0)
(-0.0273946 -0.0100251 0)
(-0.0193578 -0.00133116 0)
(-0.0189417 0.00502878 0)
(-0.0235581 0.00944991 0)
(-0.0315479 0.0128453 0)
(-0.0427707 0.0171251 0)
(-0.0602613 0.0225369 0)
(-0.0922423 0.0240261 0)
(-0.136025 0.0228384 0)
(-0.196789 0.0329835 0)
(-0.260865 0.0342265 0)
(-0.247355 -0.00864326 0)
(-0.163645 -0.0864039 0)
(-0.0506752 -0.122036 0)
(-0.0299873 0.0542113 0)
(-0.0594318 0.0445153 0)
(-0.0848897 0.0283918 0)
(-0.109688 0.0225902 0)
(-0.134127 0.0130689 0)
(-0.140308 -0.00879407 0)
(-0.122915 -0.0346789 0)
(-0.090583 -0.0450037 0)
(-0.0566528 -0.0349478 0)
(-0.0334548 -0.0174177 0)
(-0.0250341 -0.00336471 0)
(-0.0264001 0.00565316 0)
(-0.0313773 0.0113298 0)
(-0.0361586 0.0151659 0)
(-0.0384354 0.0198212 0)
(-0.037148 0.0275687 0)
(-0.0387594 0.0367893 0)
(-0.0528422 0.0449403 0)
(-0.0831137 0.0530121 0)
(-0.115985 0.039744 0)
(-0.111235 -0.0266174 0)
(-0.0683976 -0.112621 0)
(-0.00661654 -0.159417 0)
(-0.0208371 0.0712613 0)
(-0.0350223 0.0574954 0)
(-0.058504 0.0391587 0)
(-0.0826474 0.0340823 0)
(-0.104404 0.0211288 0)
(-0.105373 -0.0105538 0)
(-0.0903661 -0.0466736 0)
(-0.0733226 -0.0601194 0)
(-0.0559806 -0.0473169 0)
(-0.041076 -0.0240871 0)
(-0.0344105 -0.00472357 0)
(-0.0361952 0.00747149 0)
(-0.0420515 0.0139698 0)
(-0.0474121 0.0169356 0)
(-0.0488885 0.0192969 0)
(-0.0438062 0.0247678 0)
(-0.0319743 0.0340374 0)
(-0.0130229 0.0466535 0)
(0.000863487 0.0574947 0)
(0.0225377 0.0454144 0)
(0.0332048 -0.019298 0)
(0.0267379 -0.109303 0)
(0.0325073 -0.155763 0)
(-0.00834187 0.080875 0)
(-0.00322818 0.0648799 0)
(-0.0165313 0.0496844 0)
(-0.03012 0.0438396 0)
(-0.0367339 0.0260245 0)
(-0.024585 -0.0128332 0)
(-0.0153729 -0.0501292 0)
(-0.0243291 -0.0623107 0)
(-0.0378666 -0.0492206 0)
(-0.0444094 -0.0257008 0)
(-0.0457772 -0.00519174 0)
(-0.0483397 0.00934447 0)
(-0.0534158 0.0167585 0)
(-0.0577749 0.0187075 0)
(-0.0577502 0.0185352 0)
(-0.052113 0.0204888 0)
(-0.0407927 0.0248765 0)
(-0.0160957 0.0331055 0)
(0.0187954 0.039888 0)
(0.0671263 0.0286084 0)
(0.0961189 -0.0209463 0)
(0.072567 -0.0990363 0)
(0.0567423 -0.131777 0)
(0.00593603 0.0764142 0)
(0.0332832 0.061571 0)
(0.0420198 0.0474451 0)
(0.0460465 0.0398658 0)
(0.0627737 0.0180791 0)
(0.086986 -0.0163506 0)
(0.08147 -0.0435317 0)
(0.0406888 -0.0498908 0)
(-0.00651756 -0.0372547 0)
(-0.039842 -0.0184985 0)
(-0.0557003 -0.00193119 0)
(-0.0615814 0.0113474 0)
(-0.0661036 0.0181146 0)
(-0.068651 0.0184437 0)
(-0.0656663 0.016037 0)
(-0.0573387 0.0159747 0)
(-0.0459366 0.0171083 0)
(-0.026965 0.0191436 0)
(0.00326344 0.0164737 0)
(0.0452179 0.00275239 0)
(0.0873469 -0.0275609 0)
(0.0663243 -0.087385 0)
(0.0656304 -0.108785 0)
(0.0166655 0.0649752 0)
(0.0626022 0.0596664 0)
(0.104602 0.0502407 0)
(0.145321 0.0395106 0)
(0.185531 0.0160097 0)
(0.198811 -0.0104137 0)
(0.159481 -0.0249407 0)
(0.0859097 -0.0253695 0)
(0.0178112 -0.01479 0)
(-0.0312065 -0.00442157 0)
(-0.0606337 0.0045854 0)
(-0.0736313 0.0151564 0)
(-0.0796876 0.0212452 0)
(-0.0806301 0.019873 0)
(-0.0739116 0.0139396 0)
(-0.0615797 0.0111288 0)
(-0.0479783 0.00983995 0)
(-0.0310924 0.00827718 0)
(-0.00796263 0.000936526 0)
(0.0161702 -0.0159298 0)
(0.0532527 -0.037325 0)
(0.0418025 -0.082678 0)
(0.0623518 -0.0840561 0)
(0.0272482 0.0274735 0)
(0.119326 0.0114896 0)
(0.191852 -0.000697062 0)
(0.238003 -0.00647964 0)
(0.252055 -0.00961852 0)
(0.222774 -0.00455592 0)
(0.151639 0.00749278 0)
(0.0706017 0.0148716 0)
(0.0107303 0.0205503 0)
(-0.0292534 0.0210676 0)
(-0.057126 0.0185861 0)
(-0.0757275 0.0200686 0)
(-0.0883534 0.0194996 0)
(-0.0922751 0.0136208 0)
(-0.0841014 0.00534381 0)
(-0.0680855 0.00349353 0)
(-0.0517262 0.00381148 0)
(-0.0340104 0.00157263 0)
(-0.0127681 -0.00635944 0)
(0.00532644 -0.0245655 0)
(0.0258874 -0.042278 0)
(0.0248104 -0.0801573 0)
(0.0496593 -0.049583 0)
(-0.237444 0.0685821 0)
(-0.511559 0.0504492 0)
(-0.570199 -0.0199517 0)
(-0.418596 -0.0500249 0)
(-0.274562 -0.0400914 0)
(-0.179153 -0.0367321 0)
(0.0207201 -0.0947621 0)
(0.330012 -0.0492137 0)
(0.26481 0.0270699 0)
(-0.442752 0.185711 0)
(-1.09945 0.175156 0)
(-1.43891 0.0827181 0)
(-1.50892 0.0188274 0)
(-1.4443 -0.00629424 0)
(-1.32973 -0.0146016 0)
(-1.11169 -0.0397891 0)
(-0.769022 -0.0999276 0)
(-0.31904 -0.148645 0)
(0.317402 0.00908035 0)
(-0.380371 0.215172 0)
(-0.495552 0.127015 0)
(-0.375665 -0.0395964 0)
(-0.262022 -0.0955941 0)
(-0.124401 -0.0849781 0)
(-0.0450954 -0.0843548 0)
(0.142529 -0.193932 0)
(0.262038 -0.040794 0)
(-0.345611 0.32181 0)
(-1.31374 0.414854 0)
(-1.77609 0.232709 0)
(-1.82386 0.048773 0)
(-1.76996 -0.0357743 0)
(-1.7078 -0.077814 0)
(-1.57647 -0.107899 0)
(-1.36881 -0.165631 0)
(-1.03136 -0.277277 0)
(-0.554793 -0.330628 0)
(0.0185534 -0.00842324 0)
(-0.356195 0.341923 0)
(-0.261315 0.138641 0)
(-0.177544 -0.111131 0)
(-0.0549438 -0.163367 0)
(0.0594689 -0.128974 0)
(0.0577364 -0.114035 0)
(0.115598 -0.199977 0)
(-0.221371 0.247577 0)
(-1.05654 0.633156 0)
(-1.82476 0.599694 0)
(-2.08627 0.310411 0)
(-2.2237 0.0709012 0)
(-2.24137 -0.0624262 0)
(-2.12183 -0.146233 0)
(-1.95443 -0.226925 0)
(-1.69749 -0.347904 0)
(-1.2747 -0.5284 0)
(-0.729999 -0.588693 0)
(-0.205053 -0.178386 0)
(-0.273061 0.43688 0)
(0.019293 0.111355 0)
(0.051813 -0.133499 0)
(0.157008 -0.210073 0)
(0.231534 -0.141021 0)
(0.140569 -0.0810701 0)
(0.0190793 -0.0957169 0)
(-0.551589 0.49802 0)
(-1.42345 0.929281 0)
(-1.96456 0.818898 0)
(-2.02218 0.485791 0)
(-2.20734 0.14501 0)
(-2.10661 -0.0600748 0)
(-1.9426 -0.180614 0)
(-1.88342 -0.271461 0)
(-1.85038 -0.437731 0)
(-1.46094 -0.729832 0)
(-0.783175 -0.902412 0)
(-0.246376 -0.406965 0)
(-0.150913 0.470107 0)
(0.192009 0.0582399 0)
(0.275882 -0.17864 0)
(0.365369 -0.242995 0)
(0.397 -0.127887 0)
(0.207277 0.00996684 0)
(-0.0682709 0.0951633 0)
(-0.77865 0.793934 0)
(-1.57101 1.21616 0)
(-1.87102 0.949822 0)
(-1.8167 0.629351 0)
(-1.95701 0.2121 0)
(-1.67029 -0.140623 0)
(-1.25621 -0.215691 0)
(-0.846517 -0.223703 0)
(-1.30121 -0.345331 0)
(-1.38136 -0.791834 0)
(-0.731073 -1.20815 0)
(-0.180253 -0.641477 0)
(0.0398258 0.395362 0)
(0.336781 0.0313549 0)
(0.462674 -0.220316 0)
(0.552058 -0.267977 0)
(0.550045 -0.0842459 0)
(0.280333 0.14774 0)
(-0.0694875 0.314222 0)
(-0.855369 1.07068 0)
(-1.49432 1.44212 0)
(-1.61064 0.990525 0)
(-1.48212 0.663121 0)
(-1.48115 0.0665656 0)
(-1.04143 -0.332391 0)
(-0.429336 -0.484738 0)
(0.529629 -0.39819 0)
(0.439837 -0.0227374 0)
(-0.65377 -0.696531 0)
(-0.616486 -1.43503 0)
(-0.0840034 -0.864407 0)
(0.179702 0.248433 0)
(0.42105 -0.0357778 0)
(0.601482 -0.277476 0)
(0.679977 -0.315868 0)
(0.650737 -0.0144526 0)
(0.352518 0.313548 0)
(-0.00369487 0.519474 0)
(-0.774436 1.28262 0)
(-1.04797 1.58242 0)
(-1.14441 1.03515 0)
(-1.09413 0.62249 0)
(-1.05967 -0.107315 0)
(-0.564771 -0.539283 0)
(0.0860021 -0.808924 0)
(0.602026 -0.922138 0)
(1.80965 0.0262969 0)
(0.8757 0.203831 0)
(-0.457615 -1.45175 0)
(-0.00510002 -1.06491 0)
(0.144134 0.0670941 0)
(0.48086 -0.138445 0)
(0.673899 -0.351099 0)
(0.635267 -0.350847 0)
(0.592235 -0.0441835 0)
(0.331415 0.39155 0)
(0.079147 0.680753 0)
(-0.63946 1.41087 0)
(-0.460007 1.70521 0)
(-0.633996 1.09748 0)
(-0.845455 0.564286 0)
(-0.754424 -0.270855 0)
(-0.171699 -0.792495 0)
(0.411617 -1.07683 0)
(0.735595 -1.17374 0)
(1.14433 -0.640053 0)
(2.17051 0.64029 0)
(-0.203149 -1.04987 0)
(0.0408572 -1.2001 0)
(0.037019 -0.027679 0)
(0.0319613 -0.0391114 0)
(0.00408076 -0.00663471 0)
(-0.0389672 0.0255198 0)
(-0.0537784 0.0456778 0)
(-0.0511329 0.0550552 0)
(-0.0558099 0.0479191 0)
(-0.061506 0.0355162 0)
(-0.0643366 0.0294088 0)
(-0.0647919 0.0257909 0)
(-0.0657651 0.0269023 0)
(-0.0730149 0.036742 0)
(-0.0860545 0.0386556 0)
(-0.0934385 0.0251786 0)
(-0.0813651 -0.000197676 0)
(-0.0632035 -0.00938833 0)
(-0.0504258 -0.0141062 0)
(-0.0374838 -0.0182884 0)
(-0.0206105 -0.0255937 0)
(-0.00204354 -0.0402 0)
(0.0137515 -0.0563502 0)
(0.0283517 -0.0922584 0)
(0.0492707 -0.0787042 0)
(-0.653555 0.106691 0)
(-0.664911 0.087315 0)
(-0.573243 0.060372 0)
(-0.459609 0.0212294 0)
(-0.385922 -0.0142654 0)
(-0.368996 -0.00987156 0)
(-0.373782 0.016309 0)
(-0.359374 0.0294382 0)
(-0.321718 0.027655 0)
(-0.264705 0.0237487 0)
(-0.19465 0.0253438 0)
(-0.13685 0.0321387 0)
(-0.106013 0.032101 0)
(-0.0759756 0.00909166 0)
(-0.0422197 -0.0214569 0)
(-0.0313882 -0.0209225 0)
(-0.0291329 -0.0164747 0)
(-0.0207025 -0.0242941 0)
(0.00419988 -0.0361969 0)
(0.0135097 -0.0478902 0)
(0.0197703 -0.072202 0)
(0.0286081 -0.106218 0)
(0.0556773 -0.124435 0)
(-0.369434 0.710579 0)
(-0.398132 0.131436 0)
(-0.606503 -0.191303 0)
(-0.87405 -0.0974126 0)
(-1.075 -0.0107963 0)
(-1.22966 0.0353847 0)
(-1.29591 0.0377085 0)
(-1.2774 -0.0191994 0)
(-1.18813 -0.0959198 0)
(-0.960656 -0.130178 0)
(-0.701377 -0.101344 0)
(-0.490998 -0.0450836 0)
(-0.398203 -0.0296439 0)
(-0.369885 -0.036134 0)
(-0.334153 -0.0361532 0)
(-0.245395 -0.0215591 0)
(-0.160156 -0.0147891 0)
(-0.114207 -0.0266688 0)
(-0.0744037 -0.0343309 0)
(-0.0365224 -0.0332824 0)
(-0.0339121 -0.0531802 0)
(-0.0377351 -0.106018 0)
(-0.0285353 -0.143781 0)
(-0.0663148 1.03953 0)
(-0.144507 0.477195 0)
(-0.361579 0.307487 0)
(-0.589579 0.281506 0)
(-0.718348 0.227281 0)
(-0.811572 0.165412 0)
(-0.845193 0.0688592 0)
(-0.910774 -0.0553045 0)
(-1.08441 -0.183468 0)
(-1.31982 -0.313278 0)
(-1.58018 -0.344866 0)
(-1.82782 -0.16696 0)
(-2.02403 -0.0460879 0)
(-2.12469 -0.0924836 0)
(-2.07163 -0.212374 0)
(-1.84359 -0.263205 0)
(-1.49157 -0.232256 0)
(-1.27019 -0.242277 0)
(-1.04229 -0.207494 0)
(-0.776302 -0.149709 0)
(-0.629246 -0.129184 0)
(-0.597294 -0.13928 0)
(-0.683527 -0.0884914 0)
(0.115128 0.950923 0)
(0.0958783 0.707844 0)
(-0.0697376 0.413791 0)
(-0.160893 0.306549 0)
(-0.185166 0.286297 0)
(-0.247419 0.241885 0)
(-0.236605 0.145013 0)
(-0.224842 0.134067 0)
(-0.288459 0.228954 0)
(-0.494966 0.265826 0)
(-0.785429 0.212095 0)
(-1.02975 0.204843 0)
(-1.23022 0.160451 0)
(-1.43396 0.0102611 0)
(-1.66307 -0.192481 0)
(-1.79587 -0.396416 0)
(-1.81994 -0.509846 0)
(-1.73934 -0.449436 0)
(-1.57226 -0.332163 0)
(-1.46858 -0.214831 0)
(-1.55179 -0.0953314 0)
(-1.82611 0.0586676 0)
(-1.91563 0.0233699 0)
(0.100354 0.706271 0)
(0.198274 0.723861 0)
(0.136409 0.489127 0)
(0.0977908 0.324763 0)
(0.0767506 0.288878 0)
(0.0279453 0.272526 0)
(-0.0228915 0.152739 0)
(-0.125751 0.0829956 0)
(-0.191883 0.137253 0)
(-0.225568 0.251969 0)
(-0.325239 0.3194 0)
(-0.459695 0.366568 0)
(-0.603884 0.41396 0)
(-0.821299 0.375208 0)
(-1.21934 0.18212 0)
(-1.63303 -0.245661 0)
(-1.71761 -0.425474 0)
(-1.76066 -0.459157 0)
(-1.88028 -0.392875 0)
(-1.83834 -0.213343 0)
(-1.66952 -0.129966 0)
(-1.43209 -0.183031 0)
(-1.23193 -0.245013 0)
(0.0100209 0.577363 0)
(0.160306 0.634982 0)
(0.188276 0.507066 0)
(0.174231 0.377347 0)
(0.112435 0.332745 0)
(0.0770064 0.318456 0)
(0.0242839 0.245853 0)
(-0.0846094 0.219053 0)
(-0.179122 0.243168 0)
(-0.216029 0.3063 0)
(-0.229175 0.381883 0)
(-0.265812 0.445978 0)
(-0.308642 0.508319 0)
(-0.342764 0.550406 0)
(-0.461982 0.474556 0)
(-0.652832 0.175539 0)
(-0.642207 -0.337252 0)
(-0.93761 -0.397391 0)
(-1.27325 -0.340961 0)
(-1.28105 -0.218411 0)
(-1.15329 -0.110098 0)
(-1.03288 -0.104174 0)
(-0.890511 -0.156114 0)
(-0.02872 0.546942 0)
(0.0817895 0.53227 0)
(0.138447 0.487118 0)
(0.135728 0.409773 0)
(0.0737867 0.37605 0)
(0.0495497 0.363296 0)
(0.00502092 0.327402 0)
(-0.0744145 0.314979 0)
(-0.154194 0.317184 0)
(-0.209756 0.345689 0)
(-0.226996 0.402824 0)
(-0.231018 0.469644 0)
(-0.229279 0.519338 0)
(-0.205046 0.546821 0)
(-0.193107 0.487447 0)
(-0.286891 0.203984 0)
(-0.521368 -0.0662157 0)
(-0.855074 -0.0589043 0)
(-1.2391 -0.163368 0)
(-1.48871 -0.398371 0)
(-1.39089 -0.627646 0)
(-1.14491 -0.515318 0)
(-0.916581 -0.396371 0)
(-0.0204074 0.537407 0)
(0.0336831 0.464852 0)
(0.0724973 0.467478 0)
(0.0726965 0.430211 0)
(0.0356607 0.409149 0)
(0.0191698 0.396112 0)
(-0.0176604 0.38148 0)
(-0.068775 0.374859 0)
(-0.123005 0.368761 0)
(-0.171491 0.377259 0)
(-0.19931 0.410858 0)
(-0.204198 0.462371 0)
(-0.194683 0.503227 0)
(-0.177297 0.515911 0)
(-0.163048 0.478674 0)
(-0.204751 0.343505 0)
(-0.349889 0.225197 0)
(-0.53739 0.257352 0)
(-0.770788 0.243863 0)
(-1.04795 0.0220688 0)
(-1.34467 -0.393558 0)
(-1.56462 -0.761342 0)
(-1.45146 -0.72331 0)
(-0.00859784 0.532344 0)
(0.0136616 0.433173 0)
(0.0313009 0.456849 0)
(0.0328054 0.443577 0)
(0.0142483 0.43176 0)
(0.00189921 0.42048 0)
(-0.0235685 0.41708 0)
(-0.053418 0.41701 0)
(-0.0879291 0.414607 0)
(-0.12382 0.416243 0)
(-0.152556 0.430526 0)
(-0.164163 0.458779 0)
(-0.159092 0.487435 0)
(-0.151807 0.500646 0)
(-0.154899 0.488195 0)
(-0.188761 0.431688 0)
(-0.278896 0.37035 0)
(-0.387909 0.3866 0)
(-0.50297 0.418199 0)
(-0.693707 0.306911 0)
(-1.03254 -0.00878361 0)
(-1.33584 -0.455896 0)
(-1.41351 -0.767336 0)
(-0.00573566 0.531377 0)
(0.00466295 0.420767 0)
(0.0124946 0.450933 0)
(0.015082 0.449628 0)
(0.00502209 0.443618 0)
(-0.00389105 0.437186 0)
(-0.0192205 0.438964 0)
(-0.0357503 0.442989 0)
(-0.056664 0.444979 0)
(-0.0808016 0.446253 0)
(-0.103941 0.451892 0)
(-0.119416 0.465842 0)
(-0.124333 0.485109 0)
(-0.127227 0.501653 0)
(-0.139689 0.506834 0)
(-0.172058 0.488775 0)
(-0.237235 0.459581 0)
(-0.320483 0.469018 0)
(-0.398257 0.528331 0)
(-0.538728 0.524848 0)
(-0.875982 0.245695 0)
(-1.19849 -0.246931 0)
(-1.35799 -0.615317 0)
(-0.00608367 0.533233 0)
(0.00052317 0.4151 0)
(0.00446644 0.446517 0)
(0.0073835 0.452086 0)
(0.00153941 0.449735 0)
(-0.00421602 0.447257 0)
(-0.0132724 0.450777 0)
(-0.022425 0.456542 0)
(-0.0340667 0.461328 0)
(-0.0485173 0.464562 0)
(-0.0646388 0.469066 0)
(-0.080104 0.478489 0)
(-0.0927688 0.494245 0)
(-0.104954 0.513575 0)
(-0.122584 0.52955 0)
(-0.15184 0.532707 0)
(-0.20142 0.526306 0)
(-0.27009 0.541565 0)
(-0.339056 0.62753 0)
(-0.436413 0.742281 0)
(-0.728586 0.585672 0)
(-1.17017 0.0238654 0)
(-1.46403 -0.527124 0)
(-0.00557018 0.536228 0)
(-0.000777462 0.41149 0)
(0.00141975 0.443049 0)
(0.00396756 0.453519 0)
(0.00062302 0.453677 0)
(-0.00286243 0.453329 0)
(-0.00825867 0.457306 0)
(-0.0133706 0.463742 0)
(-0.0194202 0.470413 0)
(-0.0275349 0.476241 0)
(-0.0383887 0.482823 0)
(-0.0517061 0.493012 0)
(-0.0663409 0.509062 0)
(-0.0820914 0.530425 0)
(-0.100723 0.552408 0)
(-0.125844 0.568314 0)
(-0.163686 0.579217 0)
(-0.217367 0.60536 0)
(-0.276203 0.706752 0)
(-0.333809 0.907254 0)
(-0.524567 0.940947 0)
(-0.899392 0.489919 0)
(-1.27028 -0.221372 0)
(-0.0039103 0.538898 0)
(-0.000572154 0.409198 0)
(0.00095892 0.44046 0)
(0.00310099 0.454115 0)
(0.00146367 0.455973 0)
(-0.000429884 0.457046 0)
(-0.00353102 0.461312 0)
(-0.00644098 0.467925 0)
(-0.00966951 0.475685 0)
(-0.0143315 0.483811 0)
(-0.0215679 0.49325 0)
(-0.0316662 0.506053 0)
(-0.0439299 0.523958 0)
(-0.0575882 0.547059 0)
(-0.0728525 0.572584 0)
(-0.0923332 0.59643 0)
(-0.120564 0.620419 0)
(-0.160367 0.658937 0)
(-0.208757 0.764961 0)
(-0.24655 0.998447 0)
(-0.337813 1.19066 0)
(-0.656036 0.777022 0)
(-0.981291 0.150454 0)
(-0.00193949 0.540359 0)
(0.000450586 0.407538 0)
(0.00186236 0.438361 0)
(0.00388476 0.453871 0)
(0.00367582 0.456813 0)
(0.00307936 0.458974 0)
(0.00164127 0.463593 0)
(0.000132153 0.470282 0)
(-0.00157587 0.478643 0)
(-0.0041411 0.488399 0)
(-0.00843933 0.500242 0)
(-0.0147521 0.515375 0)
(-0.0225831 0.534919 0)
(-0.0312272 0.559287 0)
(-0.0405869 0.587382 0)
(-0.0528421 0.616821 0)
(-0.0717026 0.650113 0)
(-0.0973841 0.700821 0)
(-0.129107 0.808918 0)
(-0.155301 1.03953 0)
(-0.176142 1.34057 0)
(-0.403265 1.12481 0)
(-0.792141 0.351932 0)
(-0.000218433 0.540319 0)
(0.00186732 0.405874 0)
(0.00352979 0.4363 0)
(0.00573317 0.452893 0)
(0.00675276 0.456485 0)
(0.00739815 0.459407 0)
(0.00747065 0.464411 0)
(0.00733378 0.471269 0)
(0.00698421 0.479989 0)
(0.00629762 0.490707 0)
(0.00484777 0.50391 0)
(0.00243798 0.520289 0)
(-0.000477938 0.54056 0)
(-0.00334526 0.565352 0)
(-0.00600609 0.594952 0)
(-0.00979823 0.628353 0)
(-0.0176851 0.667156 0)
(-0.0278148 0.724779 0)
(-0.0327783 0.832536 0)
(-0.0308205 1.03993 0)
(0.0189478 1.3845 0)
(-0.0152176 1.45271 0)
(-0.412385 0.683008 0)
(0.00108997 0.538705 0)
(0.003428 0.404043 0)
(0.00556193 0.433952 0)
(0.00820013 0.451104 0)
(0.0103336 0.45506 0)
(0.0122141 0.458442 0)
(0.0137909 0.463746 0)
(0.0152105 0.470769 0)
(0.0165641 0.479635 0)
(0.0179523 0.490694 0)
(0.0193427 0.504247 0)
(0.0207694 0.520803 0)
(0.0225813 0.540901 0)
(0.0252516 0.565227 0)
(0.0290613 0.594721 0)
(0.033951 0.629685 0)
(0.0384179 0.670349 0)
(0.0438867 0.725818 0)
(0.0628335 0.822238 0)
(0.106106 0.992605 0)
(0.214777 1.29594 0)
(0.361109 1.54495 0)
(0.255187 1.1712 0)
(0.00204673 0.535695 0)
(0.00495751 0.401807 0)
(0.00764514 0.431046 0)
(0.0109518 0.448412 0)
(0.0141358 0.452501 0)
(0.0172314 0.456078 0)
(0.0202812 0.461479 0)
(0.0233733 0.468519 0)
(0.0266597 0.477275 0)
(0.0303037 0.488114 0)
(0.034485 0.501315 0)
(0.0394309 0.517252 0)
(0.0455035 0.536373 0)
(0.0531947 0.559325 0)
(0.0630176 0.587099 0)
(0.0757295 0.620591 0)
(0.0914841 0.659635 0)
(0.11115 0.70772 0)
(0.144612 0.781492 0)
(0.213403 0.904627 0)
(0.342208 1.11923 0)
(0.588127 1.37844 0)
(0.721519 1.32932 0)
(0.00273441 0.531512 0)
(0.00636725 0.398987 0)
(0.00963525 0.427447 0)
(0.0137635 0.444793 0)
(0.0179554 0.448836 0)
(0.022216 0.452389 0)
(0.0266539 0.457635 0)
(0.0313536 0.464441 0)
(0.0365409 0.472794 0)
(0.0424182 0.482986 0)
(0.0492011 0.495287 0)
(0.0572299 0.509987 0)
(0.0669363 0.527457 0)
(0.0789715 0.548199 0)
(0.094031 0.572945 0)
(0.113114 0.602409 0)
(0.137489 0.636675 0)
(0.168357 0.676244 0)
(0.21029 0.726957 0)
(0.283792 0.802482 0)
(0.402953 0.924395 0)
(0.645614 1.10204 0)
(0.884652 1.14836 0)
(0.00324401 0.526341 0)
(0.00763849 0.395546 0)
(0.0114661 0.423086 0)
(0.0164762 0.440249 0)
(0.0216197 0.444107 0)
(0.0269556 0.447449 0)
(0.0326415 0.452342 0)
(0.0388137 0.458646 0)
(0.0456896 0.466324 0)
(0.0535302 0.475552 0)
(0.0625713 0.486557 0)
(0.0731954 0.499556 0)
(0.085893 0.514816 0)
(0.101388 0.532678 0)
(0.120502 0.553486 0)
(0.144263 0.577577 0)
(0.174245 0.60505 0)
(0.212203 0.635569 0)
(0.259852 0.669185 0)
(0.328783 0.709493 0)
(0.428679 0.761663 0)
(0.610085 0.847891 0)
(0.844999 0.87742 0)
(0.00365454 0.520301 0)
(0.00876957 0.391525 0)
(0.0130987 0.417949 0)
(0.0189782 0.434807 0)
(0.0249857 0.438394 0)
(0.031305 0.44137 0)
(0.0380816 0.445778 0)
(0.0455145 0.451386 0)
(0.0538146 0.458156 0)
(0.0632744 0.466183 0)
(0.0741409 0.475636 0)
(0.0868053 0.48664 0)
(0.101795 0.499319 0)
(0.119808 0.513846 0)
(0.141668 0.530285 0)
(0.168389 0.548634 0)
(0.201304 0.56873 0)
(0.242248 0.589903 0)
(0.292582 0.610782 0)
(0.356548 0.63008 0)
(0.439658 0.64385 0)
(0.561019 0.664017 0)
(0.733997 0.656394 0)
(0.00401089 0.513503 0)
(0.00975528 0.386994 0)
(0.0145146 0.412098 0)
(0.0212058 0.428551 0)
(0.0279592 0.43181 0)
(0.0351387 0.434313 0)
(0.0428483 0.438113 0)
(0.0513165 0.442893 0)
(0.0607549 0.448608 0)
(0.0714742 0.455267 0)
(0.0837371 0.463002 0)
(0.0978934 0.471836 0)
(0.11447 0.481776 0)
(0.134106 0.492828 0)
(0.157519 0.50488 0)
(0.185629 0.517677 0)
(0.219442 0.530769 0)
(0.260397 0.543292 0)
(0.309886 0.553747 0)
(0.369209 0.55998 0)
(0.440699 0.556945 0)
(0.526648 0.544693 0)
(0.64062 0.512296 0)
(0.00433305 0.50605 0)
(0.0105892 0.382025 0)
(0.0157147 0.405621 0)
(0.0231157 0.421601 0)
(0.030486 0.424473 0)
(0.0383705 0.426456 0)
(0.0468399 0.429552 0)
(0.0561321 0.433429 0)
(0.0664403 0.437991 0)
(0.0780762 0.44322 0)
(0.0913138 0.449165 0)
(0.106446 0.455775 0)
(0.123972 0.462983 0)
(0.144444 0.470657 0)
(0.168433 0.478565 0)
(0.196684 0.486311 0)
(0.229959 0.493272 0)
(0.269223 0.498508 0)
(0.315525 0.500571 0)
(0.369327 0.497485 0)
(0.431613 0.485919 0)
(0.500104 0.462211 0)
(0.578943 0.420874 0)
(0.00463517 0.498041 0)
(0.011274 0.376681 0)
(0.0167122 0.398613 0)
(0.0246902 0.414071 0)
(0.0325459 0.416513 0)
(0.0409777 0.417948 0)
(0.0500211 0.420297 0)
(0.059914 0.423235 0)
(0.0708418 0.4266 0)
(0.0830912 0.430394 0)
(0.0969093 0.434555 0)
(0.112559 0.439003 0)
(0.130479 0.443614 0)
(0.151125 0.448161 0)
(0.174934 0.452335 0)
(0.202463 0.455678 0)
(0.234248 0.457526 0)
(0.270885 0.456931 0)
(0.312977 0.45258 0)
(0.360578 0.442728 0)
(0.413996 0.42523 0)
(0.471122 0.397004 0)
(0.531083 0.354077 0)
(0.0049199 0.489579 0)
(0.0118166 0.37103 0)
(0.0175181 0.391195 0)
(0.0259353 0.406084 0)
(0.0341335 0.40808 0)
(0.0429631 0.408939 0)
(0.0523967 0.410533 0)
(0.0626751 0.412516 0)
(0.073986 0.414713 0)
(0.0865636 0.417093 0)
(0.100621 0.419543 0)
(0.116407 0.421967 0)
(0.134273 0.424195 0)
(0.154578 0.425954 0)
(0.177647 0.426891 0)
(0.203869 0.42653 0)
(0.23358 0.424218 0)
(0.267104 0.419097 0)
(0.304692 0.410026 0)
(0.346136 0.395566 0)
(0.39126 0.374157 0)
(0.438538 0.343748 0)
(0.486067 0.301514 0)
(0.00517618 0.480754 0)
(0.0122378 0.36515 0)
(0.0181405 0.383488 0)
(0.0268634 0.39779 0)
(0.0352653 0.399338 0)
(0.0443518 0.399623 0)
(0.0540044 0.400468 0)
(0.0644777 0.401527 0)
(0.0759473 0.40261 0)
(0.088595 0.403641 0)
(0.102608 0.404511 0)
(0.118212 0.405088 0)
(0.135671 0.405185 0)
(0.155259 0.404512 0)
(0.177201 0.402704 0)
(0.201741 0.399307 0)
(0.22907 0.393703 0)
(0.259314 0.385177 0)
(0.292497 0.372769 0)
(0.328279 0.355369 0)
(0.366216 0.331832 0)
(0.40506 0.30082 0)
(0.443015 0.260363 0)
(0.00540198 0.471614 0)
(0.0125733 0.359128 0)
(0.0185751 0.375578 0)
(0.0274982 0.389318 0)
(0.0359771 0.390429 0)
(0.045188 0.390159 0)
(0.0549106 0.390286 0)
(0.0654119 0.390476 0)
(0.0768361 0.390517 0)
(0.0893361 0.390309 0)
(0.10307 0.389744 0)
(0.118227 0.388677 0)
(0.135007 0.386907 0)
(0.153605 0.384158 0)
(0.174172 0.380072 0)
(0.19683 0.37424 0)
(0.22167 0.366115 0)
(0.248685 0.355101 0)
(0.277752 0.34043 0)
(0.308473 0.321252 0)
(0.340323 0.296741 0)
(0.372259 0.26605 0)
(0.40273 0.227822 0)
(0.00561836 0.462182 0)
(0.0128618 0.353059 0)
(0.0187947 0.367532 0)
(0.0278624 0.380762 0)
(0.036294 0.381445 0)
(0.0455213 0.380653 0)
(0.0551867 0.380118 0)
(0.0655715 0.379506 0)
(0.0767869 0.378595 0)
(0.0889591 0.377279 0)
(0.102225 0.37544 0)
(0.116737 0.372941 0)
(0.132642 0.369575 0)
(0.150065 0.365094 0)
(0.169107 0.359164 0)
(0.189807 0.351419 0)
(0.212168 0.341407 0)
(0.236103 0.328626 0)
(0.261416 0.312489 0)
(0.287684 0.292339 0)
(0.314377 0.267576 0)
(0.340645 0.237684 0)
(0.365215 0.201765 0)
(0.00587161 0.452472 0)
(0.0131452 0.347096 0)
(0.0187554 0.359453 0)
(0.0279613 0.372216 0)
(0.0362263 0.372484 0)
(0.0453928 0.371225 0)
(0.0548931 0.370093 0)
(0.0650435 0.368761 0)
(0.075927 0.367004 0)
(0.0876401 0.364713 0)
(0.100306 0.361775 0)
(0.11404 0.358053 0)
(0.128943 0.353353 0)
(0.145094 0.347447 0)
(0.162542 0.340052 0)
(0.181281 0.330837 0)
(0.201253 0.319441 0)
(0.222325 0.305457 0)
(0.244268 0.288443 0)
(0.266659 0.267894 0)
(0.288999 0.24337 0)
(0.310587 0.214559 0)
(0.330393 0.180905 0)
(0.00622515 0.442443 0)
(0.0134659 0.341471 0)
(0.018447 0.351486 0)
(0.0277904 0.363761 0)
(0.035781 0.36365 0)
(0.0448256 0.361997 0)
(0.0540655 0.360335 0)
(0.0638887 0.35837 0)
(0.0743481 0.355874 0)
(0.0855215 0.352739 0)
(0.0975104 0.348867 0)
(0.110396 0.344117 0)
(0.124242 0.338321 0)
(0.139097 0.331266 0)
(0.154971 0.322725 0)
(0.171828 0.312412 0)
(0.189572 0.300037 0)
(0.20805 0.285282 0)
(0.227019 0.267817 0)
(0.246092 0.247269 0)
(0.264808 0.223312 0)
(0.282571 0.195748 0)
(0.298539 0.164272 0)
(0.00671386 0.431984 0)
(0.0138271 0.336373 0)
(0.0179432 0.343785 0)
(0.0273451 0.355467 0)
(0.0349619 0.355022 0)
(0.043818 0.353046 0)
(0.0526996 0.350917 0)
(0.0621202 0.348399 0)
(0.072087 0.345266 0)
(0.0826694 0.341412 0)
(0.0939431 0.336753 0)
(0.105963 0.331154 0)
(0.118761 0.324469 0)
(0.132364 0.316514 0)
(0.146755 0.307097 0)
(0.161877 0.295983 0)
(0.177621 0.282946 0)
(0.193824 0.267741 0)
(0.210252 0.250124 0)
(0.226565 0.229835 0)
(0.24236 0.206636 0)
(0.257114 0.180394 0)
(0.270144 0.150978 0)
(0.00729817 0.421025 0)
(0.0141746 0.33185 0)
(0.0173393 0.336521 0)
(0.0266117 0.347422 0)
(0.0337546 0.346675 0)
(0.0423344 0.344433 0)
(0.0507488 0.341894 0)
(0.0596925 0.338893 0)
(0.0691034 0.335208 0)
(0.0790473 0.330746 0)
(0.0895811 0.325427 0)
(0.100734 0.319135 0)
(0.112519 0.311739 0)
(0.124944 0.303087 0)
(0.137973 0.293013 0)
(0.151544 0.281334 0)
(0.165544 0.267874 0)
(0.179811 0.25244 0)
(0.194134 0.234858 0)
(0.208233 0.214962 0)
(0.221775 0.192587 0)
(0.234306 0.167645 0)
(0.245288 0.140107 0)
(0.0078962 0.409611 0)
(0.0144448 0.327901 0)
(0.0166402 0.329881 0)
(0.0255596 0.339765 0)
(0.0321172 0.338726 0)
(0.0403062 0.336259 0)
(0.048128 0.333361 0)
(0.0565027 0.329931 0)
(0.0652748 0.325765 0)
(0.0745123 0.320782 0)
(0.0842578 0.314912 0)
(0.0945194 0.308052 0)
(0.105299 0.300089 0)
(0.116591 0.290894 0)
(0.128351 0.280327 0)
(0.140517 0.268252 0)
(0.152979 0.254521 0)
(0.165588 0.238991 0)
(0.178166 0.22154 0)
(0.190493 0.202066 0)
(0.202314 0.180469 0)
(0.213246 0.156694 0)
(0.222891 0.130764 0)
(0.00845405 0.39785 0)
(0.0146105 0.324546 0)
(0.0157913 0.324047 0)
(0.0241618 0.33266 0)
(0.0300008 0.331322 0)
(0.0376581 0.328666 0)
(0.0447432 0.325447 0)
(0.0524343 0.321639 0)
(0.0604548 0.31705 0)
(0.0688809 0.311618 0)
(0.0777429 0.30528 0)
(0.0870353 0.297948 0)
(0.096752 0.289522 0)
(0.10688 0.279894 0)
(0.117378 0.268947 0)
(0.128181 0.25658 0)
(0.139187 0.242669 0)
(0.150274 0.227115 0)
(0.161294 0.209823 0)
(0.172076 0.190732 0)
(0.182441 0.169788 0)
(0.192072 0.146968 0)
(0.200704 0.122316 0)
(0.00895613 0.385829 0)
(0.0146401 0.321813 0)
(0.0147843 0.319175 0)
(0.0224227 0.326267 0)
(0.0273915 0.324626 0)
(0.034362 0.321811 0)
(0.0405611 0.318303 0)
(0.0474451 0.314165 0)
(0.0545751 0.309206 0)
(0.0620549 0.303386 0)
(0.0699011 0.296651 0)
(0.0780978 0.288923 0)
(0.0866367 0.280114 0)
(0.0955013 0.270138 0)
(0.104654 0.258899 0)
(0.114028 0.246314 0)
(0.123535 0.232288 0)
(0.133075 0.216746 0)
(0.142528 0.199607 0)
(0.151759 0.180835 0)
(0.160648 0.160404 0)
(0.168934 0.138315 0)
(0.176467 0.114634 0)
(0.00936507 0.373672 0)
(0.0144395 0.319671 0)
(0.0136489 0.315365 0)
(0.0203843 0.320735 0)
(0.0243428 0.318795 0)
(0.0304871 0.315835 0)
(0.0356723 0.31207 0)
(0.0416393 0.307649 0)
(0.047748 0.302369 0)
(0.0541548 0.296222 0)
(0.0608568 0.289156 0)
(0.0678319 0.281105 0)
(0.0750751 0.271996 0)
(0.0825662 0.261757 0)
(0.0902658 0.250307 0)
(0.09811 0.237576 0)
(0.106024 0.22349 0)
(0.113922 0.207986 0)
(0.121709 0.190998 0)
(0.129279 0.172498 0)
(0.136549 0.152479 0)
(0.143299 0.13095 0)
(0.149476 0.108012 0)
(0.00960086 0.361657 0)
(0.0138874 0.318013 0)
(0.01237 0.31262 0)
(0.0181095 0.31618 0)
(0.0209706 0.313952 0)
(0.0261959 0.310834 0)
(0.0302957 0.30684 0)
(0.0352822 0.302177 0)
(0.0402832 0.296629 0)
(0.0455461 0.29022 0)
(0.0510343 0.282894 0)
(0.0567256 0.2746 0)
(0.0626188 0.265277 0)
(0.0686879 0.25486 0)
(0.0748903 0.243276 0)
(0.081168 0.230466 0)
(0.0874573 0.216371 0)
(0.0936881 0.200933 0)
(0.0997871 0.184107 0)
(0.105663 0.165865 0)
(0.111268 0.14621 0)
(0.116417 0.125134 0)
(0.121113 0.102799 0)
(0.00957342 0.350119 0)
(0.0129175 0.316741 0)
(0.0109159 0.310841 0)
(0.0156626 0.312612 0)
(0.0174175 0.31013 0)
(0.0217045 0.306816 0)
(0.0247246 0.302632 0)
(0.0287234 0.297755 0)
(0.0326098 0.291992 0)
(0.0367412 0.285384 0)
(0.0410306 0.277866 0)
(0.0454694 0.269402 0)
(0.0500548 0.259936 0)
(0.0547539 0.249408 0)
(0.059524 0.237753 0)
(0.0643165 0.224916 0)
(0.0690784 0.210852 0)
(0.0737622 0.19551 0)
(0.0783058 0.178858 0)
(0.0826365 0.16087 0)
(0.0867273 0.14155 0)
(0.0904182 0.120847 0)
(0.093765 0.099013 0)
(0.00919862 0.339434 0)
(0.0115181 0.315866 0)
(0.00930513 0.30994 0)
(0.0130971 0.310018 0)
(0.0138332 0.307346 0)
(0.0172231 0.303799 0)
(0.0192426 0.299452 0)
(0.0223027 0.294387 0)
(0.0251456 0.288459 0)
(0.028228 0.281698 0)
(0.0314116 0.274041 0)
(0.0347065 0.26546 0)
(0.0381042 0.255901 0)
(0.0415713 0.245305 0)
(0.0450689 0.233617 0)
(0.0485577 0.220791 0)
(0.0519972 0.206789 0)
(0.0553548 0.191571 0)
(0.0585792 0.175092 0)
(0.061621 0.157347 0)
(0.0644461 0.138305 0)
(0.0669263 0.117921 0)
(0.0691461 0.0964886 0)
(0.0083051 0.329934 0)
(0.00963934 0.315296 0)
(0.00757666 0.309783 0)
(0.0104378 0.308327 0)
(0.0103701 0.30554 0)
(0.0129285 0.301719 0)
(0.0140927 0.297242 0)
(0.0163101 0.292 0)
(0.0182297 0.285943 0)
(0.0203933 0.27906 0)
(0.0226155 0.271301 0)
(0.0249188 0.262632 0)
(0.0272899 0.253008 0)
(0.0297031 0.242373 0)
(0.0321267 0.230682 0)
(0.0345288 0.217888 0)
(0.0368778 0.203957 0)
(0.0391383 0.188858 0)
(0.0412726 0.172538 0)
(0.0432431 0.155002 0)
(0.0450114 0.13619 0)