/*--------------------------------*- C++ -*----------------------------------*\
| =========                 |                                                 |
| \\      /  F ield         | OpenFOAM: The Open Source CFD Toolbox           |
|  \\    /   O peration     | Version:  2206                                  |
|   \\  /    A nd           | Website:  www.openfoam.com                      |
|    \\/     M anipulation  |                                                 |
\*---------------------------------------------------------------------------*/
FoamFile
{
    version     2.0;
    format      ascii;
    arch        "LSB;label=32;scalar=64";
    class       volScalarField;
    location    "0.55";
    object      alpha.water;
}
// * * * * * * * * * * * * * * * * * * * * * * * * * * * * * * * * * * * * * //

dimensions      [0 0 0 0 0 0 0];

internalField   nonuniform List<scalar> 
2268
(
0.999999
0.999999
1
1
1
1
1
1
1
1
1
1
1
1
1
1
1
1
0.965819
0.897606
0.938309
0.998944
0.998944
0.999999
1
1
1
1
1
1
1
1
1
1
1
1
1
1
1
1
1
0.998171
0.914969
0.912855
0.992792
0.998944
1
1
1
1
1
1
1
1
1
1
1
1
1
1
1
1
1
1
1
0.994765
0.912735
0.956178
0.998943
1
1
1
1
1
1
1
1
1
1
1
1
1
1
1
1
1
1
1
1
0.915676
0.94528
0.998102
1
1
1
1
1
1
1
1
1
1
1
1
1
1
1
1
1
1
1
1
0.985679
0.994244
0.999484
1
1
1
1
1
1
1
1
1
1
1
1
1
1
1
1
1
1
1
1
1
0.999999
0.999904
1
1
1
0.999998
0.999997
0.999997
0.999999
1
1
1
1
1
1
1
1
1
1
1
1
1
1
0.999999
0.999868
1
1
0.99996
0.999905
0.999884
0.999908
0.999952
0.999983
0.999997
1
1
1
1
1
1
1
1
1
1
1
1
1
0.999868
2.53872e-05
2.54786e-05
2.54786e-05
0.0210276
0.431302
0.486461
0.486461
0.473043
0.499593
0.596546
0.665172
0.695757
0.714718
0.739613
0.766034
0.786576
0.796968
0.806479
0.710239
4.33686e-05
2.54786e-05
4.88566e-05
0.0759488
0.349472
0.0855054
0.0313488
0.0242109
0.0591825
0.0831959
0.0995279
0.114398
0.139728
0.193663
0.294582
0.45377
0.657374
0.84924
0.863174
8.56285e-05
7.12788e-05
9.59452e-05
0.0646081
0.193119
0.000500613
4.40095e-05
4.24115e-05
4.38352e-05
4.88373e-05
6.24185e-05
9.54621e-05
0.000174772
0.000356073
0.000958078
0.0043156
0.0643627
0.574085
0.882687
0.00016866
0.000188557
0.000172873
0.0587525
0.0610875
7.25183e-05
4.17578e-05
4.22334e-05
4.24122e-05
4.38344e-05
4.8837e-05
6.22318e-05
9.62504e-05
0.000176016
0.000355422
0.000956044
0.00447299
0.266933
0.884807
0.00959206
0.000202622
0.000419519
0.0543061
0.0011057
0.00025805
4.22397e-05
4.22663e-05
4.22379e-05
4.37823e-05
5.18093e-05
0.000100032
0.000169553
0.000356453
0.00117369
0.00179883
0.00190762
0.154073
0.886962
0.026221
0.0123791
0.0267479
0.0298839
0.00158701
0.000211794
4.52287e-05
4.22385e-05
4.37812e-05
4.54065e-05
5.4565e-05
0.000194554
0.000465738
0.00290536
0.010119
0.00462167
0.0017528
0.11058
0.888966
0.0405396
0.148358
0.181326
0.00524556
0.00179158
0.000556783
0.000132515
4.42097e-05
4.52926e-05
5.67466e-05
5.96212e-05
0.000253935
0.0084073
0.0233676
0.0241349
0.00402489
0.000787698
0.0716392
0.891347
0.409826
0.552563
0.760914
0.528134
0.0863419
0.00172249
0.0004953
0.000135773
5.81926e-05
6.06759e-05
9.80588e-05
0.00545798
0.0327864
0.0365467
0.00548079
0.000550839
0.000579466
0.0530071
0.89263
0.979986
0.90718
0.78472
0.691817
0.715457
0.791068
0.873994
0.924476
0.961265
0.987971
0.999106
1
1
1
1
1
1
1
1
1
1
1
0.99997
0.317615
0.16691
0.0444216
0.0366222
0.0947803
0.175178
0.217802
0.249681
0.309591
0.407731
0.537063
0.679173
0.829767
0.964961
1
1
1
1
1
1
1
1
1
6.15144e-12
9.58342e-12
4.3341e-08
2.959e-11
2.7333e-13
4.87924e-12
1.14044e-10
6.2031e-10
7.8118e-10
4.64394e-09
1.07095e-07
0.025494
0.0944864
0.20169
0.383291
0.606471
0.893192
1
1
1
1
1
1
7.65064e-13
1.23293e-09
9.31831e-08
1.8955e-13
2.0639e-13
2.7333e-13
1.45387e-12
7.88186e-11
6.77265e-10
7.81694e-10
2.69896e-09
5.0012e-09
2.0746e-08
4.28983e-07
0.00848671
0.0437632
0.113483
0.290582
0.533973
0.82619
0.992463
1
0.999995
5.48394e-13
2.02775e-11
7.12495e-10
3.88315e-14
2.0598e-13
5.87481e-13
6.36677e-13
7.56687e-11
2.2088e-09
5.15076e-09
4.63636e-09
4.61876e-09
5.00123e-09
2.07466e-08
4.28989e-07
2.18697e-06
5.6771e-06
6.42847e-06
0.0299494
0.0721783
0.202071
0.368504
0.594573
2.41697e-18
7.84012e-17
1.97437e-14
3.65106e-14
1.65931e-12
3.71706e-12
3.68544e-12
4.126e-12
2.00173e-08
9.42737e-08
6.28483e-08
4.6319e-09
4.70836e-09
5.45755e-05
0.000135887
0.00013616
6.276e-05
6.1214e-06
6.42847e-06
7.37135e-06
1.95208e-05
0.00911301
0.0336079
6.92812e-19
3.35731e-16
2.96908e-14
4.88128e-13
2.79354e-12
6.65371e-12
8.35035e-12
6.57213e-12
2.6445e-08
1.24067e-07
1.16759e-07
4.64687e-09
4.64559e-09
4.35521e-05
6.05007e-05
1.17462e-05
1.47002e-12
5.95628e-06
5.39384e-05
0.00013904
0.000109086
8.41313e-05
8.22704e-05
7.95258e-20
5.64884e-17
1.62244e-14
4.41924e-13
2.86779e-12
7.478e-12
1.08724e-11
9.73043e-12
5.12447e-09
9.08567e-08
1.23072e-07
9.55071e-08
2.88198e-08
4.04901e-06
2.61551e-11
1.57838e-12
1.41331e-12
1.65756e-12
2.66044e-05
9.51471e-05
0.00025749
0.000258263
0.000183211
1.30121e-21
6.51138e-18
5.51745e-15
2.56293e-13
2.24956e-12
7.05116e-12
1.10174e-11
1.16972e-11
1.17132e-11
9.21726e-09
8.95819e-08
1.72786e-07
9.36594e-07
1.34493e-10
1.57838e-12
1.41337e-12
1.41361e-12
1.41361e-12
4.08728e-05
0.00020046
0.000258263
0.00026252
0.0002584
-2.20817e-18
6.21588e-19
1.47605e-15
1.04728e-13
1.11199e-12
4.44389e-12
1.04382e-11
1.66951e-11
7.56522e-10
1.9423e-09
1.94336e-09
3.82074e-08
2.24337e-07
4.72499e-08
2.19019e-12
1.42392e-12
1.41332e-12
2.59512e-06
2.93987e-05
0.000154136
0.00025616
0.000268492
0.000260171
-3.49706e-18
-1.84862e-35
3.24011e-16
3.40931e-14
4.09298e-13
2.08873e-12
7.39727e-12
8.04949e-12
3.37485e-10
3.28005e-09
3.1398e-09
8.72415e-10
8.24421e-10
8.0363e-10
2.37244e-10
4.0232e-12
1.9921e-12
4.38438e-06
5.53235e-09
5.04369e-06
0.000170433
0.000277655
0.000170474
-4.11723e-18
-7.92835e-18
5.63688e-17
8.96381e-15
1.18665e-13
7.31006e-13
4.56299e-12
7.93099e-12
3.90944e-11
3.32835e-09
3.64507e-09
3.48056e-09
3.10249e-09
1.39776e-09
4.74741e-11
1.34386e-12
2.49043e-12
1.07411e-09
5.38627e-10
5.15825e-09
8.58456e-05
0.000278854
0.000278854
-4.11738e-18
-1.10743e-17
7.88029e-18
1.88778e-15
2.78475e-14
2.1749e-13
2.67633e-12
8.60754e-12
1.03699e-11
1.11263e-09
2.69128e-09
4.23398e-09
4.11979e-09
3.85862e-10
1.38658e-12
1.34316e-12
1.69678e-12
1.7336e-12
5.43491e-12
1.72885e-10
1.93389e-06
0.000182036
0.000278854
-3.70117e-18
-9.80429e-18
-9.31667e-36
3.21487e-16
5.3933e-15
6.05679e-14
1.4325e-12
7.40617e-12
8.78246e-12
4.42672e-12
2.76746e-10
3.01389e-09
9.78812e-10
1.30846e-11
1.62811e-12
1.34244e-12
2.28725e-12
3.32618e-12
3.36201e-12
5.42253e-12
1.04231e-11
1.08735e-10
1.00479e-05
-2.98586e-18
-7.52039e-18
-3.25522e-18
4.16577e-17
8.59598e-16
1.50064e-14
5.07499e-13
3.65724e-12
6.71303e-12
4.42536e-12
2.767e-11
1.98383e-10
4.79282e-13
1.48414e-12
1.59752e-12
7.25062e-13
2.058e-12
4.92074e-12
7.22536e-12
7.2184e-12
7.33662e-12
1.05227e-11
2.7107e-11
-2.14136e-18
-5.07856e-18
-5.83742e-18
3.70209e-18
1.09925e-16
3.26953e-15
1.26329e-13
1.17576e-12
2.9476e-12
3.37519e-12
9.55835e-13
4.79284e-13
4.79623e-13
4.93163e-13
4.96028e-13
9.05782e-14
1.8005e-13
2.37565e-12
8.89145e-12
1.50494e-11
1.79414e-11
1.77491e-11
1.85451e-11
-1.34986e-18
-2.96322e-18
-4.25968e-18
0
1.07148e-17
6.46863e-16
2.55089e-14
2.51485e-13
7.50834e-13
1.10239e-12
1.24104e-12
7.00434e-13
3.5085e-13
1.48761e-13
4.79e-14
1.17975e-14
6.6568e-15
5.15409e-14
8.41872e-13
6.65167e-12
2.29897e-11
6.19114e-11
3.04053e-10
-7.37111e-19
-1.47913e-18
-2.45325e-18
-3.25578e-19
7.43781e-19
1.12165e-16
4.15413e-15
3.97139e-14
1.42534e-13
3.04042e-13
4.93444e-13
2.8506e-13
7.02346e-14
1.08264e-14
1.9729e-15
9.00831e-16
1.13471e-15
1.14055e-14
1.19767e-13
1.21941e-12
8.67795e-12
3.61355e-11
1.16942e-10
-3.42218e-19
-6.18394e-19
-1.1608e-18
-2.81165e-19
4.24237e-20
1.61252e-17
5.73589e-16
5.62738e-15
2.43574e-14
5.31941e-14
6.24324e-14
4.57209e-14
1.65693e-14
2.63414e-15
1.90379e-16
4.63177e-17
1.67689e-16
2.42381e-15
2.7468e-14
3.43503e-13
5.65428e-12
4.13896e-11
1.1074e-10
-1.31957e-19
-2.10119e-19
-4.36966e-19
-1.16934e-19
2.75875e-21
1.87173e-18
7.17378e-17
7.74886e-16
3.63494e-15
7.68188e-15
8.45939e-15
6.39832e-15
2.68605e-15
5.03525e-16
2.83573e-17
3.39608e-19
2.08725e-17
5.70454e-16
8.41557e-15
9.3115e-14
1.42222e-12
1.71566e-11
7.07685e-11
-4.10812e-20
-5.56139e-20
-1.2521e-19
-3.3526e-20
1.57496e-22
1.70161e-19
8.22672e-18
1.00849e-16
4.62117e-16
9.69012e-16
1.0716e-15
7.85516e-16
3.4314e-16
6.82589e-17
2.62203e-18
-1.00239e-18
1.35921e-18
1.30334e-16
3.11388e-15
3.62245e-14
2.65253e-13
2.17273e-12
1.68287e-11
-9.98184e-21
-1.07652e-20
-2.55536e-20
-6.69112e-21
7.71517e-25
1.05727e-20
7.63978e-19
1.13967e-17
5.06374e-17
9.74474e-17
1.07878e-16
7.82258e-17
2.92697e-17
2.35527e-18
-2.54591e-18
-2.48773e-18
4.6199e-20
2.22002e-17
8.66592e-16
1.37545e-14
1.00252e-13
5.08937e-13
3.83586e-12
-1.81803e-21
-1.37015e-21
-3.36369e-21
-8.63188e-22
-7.58221e-23
3.65418e-22
4.77422e-20
8.99727e-19
3.99439e-18
7.23407e-18
8.29496e-18
5.94235e-18
1.34764e-18
-1.44576e-18
-3.27402e-18
-2.87033e-18
-2.06648e-19
2.96444e-18
2.04487e-16
4.01137e-15
3.56558e-14
1.91964e-13
1.20319e-12
-2.37045e-22
-8.91779e-23
-2.32041e-22
-5.86701e-23
-8.57724e-24
3.81011e-24
1.51769e-21
3.80496e-20
1.82256e-19
3.39785e-19
3.90678e-19
1.04142e-19
-4.82294e-19
-1.56727e-18
-2.36418e-18
-1.75812e-18
-5.22742e-19
5.36574e-19
4.59033e-17
1.06054e-15
1.10781e-14
6.66148e-14
4.14679e-13
-2.13043e-23
-6.63146e-29
-1.17638e-25
-1.42509e-25
-4.7032e-26
2.14037e-27
1.19823e-23
6.41718e-22
3.78784e-21
5.74856e-21
-8.54147e-21
-9.37901e-20
-3.71093e-19
-8.14096e-19
-9.586e-19
-6.63128e-19
-2.26322e-19
9.85399e-20
9.82724e-18
2.71378e-16
3.18215e-15
1.81724e-14
8.90758e-14
-1.40727e-24
-4.93226e-30
-2.60114e-28
-3.63948e-27
-4.49822e-26
-4.25742e-25
-2.9382e-24
-1.71741e-23
-1.47729e-22
-1.3244e-21
-8.88011e-21
-4.17396e-20
-1.28295e-19
-2.34387e-19
-2.50628e-19
-1.64658e-19
-5.63545e-20
1.84933e-20
1.93204e-18
6.266e-17
8.34941e-16
4.4261e-15
1.27612e-14
-7.29608e-26
-1.61463e-30
-5.95473e-29
-1.23032e-27
-1.80447e-26
-2.00237e-25
-1.7282e-24
-1.23489e-23
-8.03251e-23
-4.83157e-22
-2.45034e-21
-9.3888e-21
-2.4757e-20
-4.12707e-20
-4.14394e-20
-2.59041e-20
-7.90976e-21
4.11125e-21
3.49302e-19
1.42015e-17
2.26585e-16
9.61225e-16
6.28319e-16
-3.11678e-27
-4.64639e-31
-1.42954e-29
-3.01996e-28
-4.53624e-27
-5.25159e-26
-4.78174e-25
-3.49566e-24
-2.11259e-23
-1.07622e-22
-4.51493e-22
-1.45639e-21
-3.35153e-21
-5.09834e-21
-4.66548e-21
-2.67987e-21
-5.22676e-22
8.82714e-22
7.46741e-20
4.51826e-18
6.03476e-17
1.88407e-16
1.50864e-16
-1.1341e-28
-7.45714e-32
-2.1711e-30
-4.56597e-29
-6.71514e-28
-7.6813e-27
-6.96536e-26
-5.02592e-25
-2.88876e-24
-1.32491e-23
-4.84368e-23
-1.38507e-22
-2.93274e-22
-4.13179e-22
-3.32365e-22
-1.69177e-22
-6.79452e-24
1.60891e-22
1.33849e-20
9.64251e-19
1.26313e-17
3.81078e-17
2.38498e-17
-3.59367e-30
-5.18022e-33
-1.65915e-31
-3.37165e-30
-4.4952e-29
-4.60742e-28
-3.77522e-27
-2.53251e-26
-1.40378e-25
-6.42472e-25
-2.39922e-24
-7.05598e-24
-1.51299e-23
-2.06918e-23
-1.53562e-23
-6.97995e-24
6.42342e-25
2.31273e-23
1.6475e-21
1.44318e-19
2.24576e-18
7.7337e-18
4.82943e-18
-1.00491e-31
-7.8172e-35
-2.37023e-33
-6.2045e-32
-8.6656e-31
-9.46886e-30
-8.31829e-29
-6.0228e-28
-3.63294e-27
-1.81775e-26
-7.38356e-26
-2.30609e-25
-4.97656e-25
-6.28397e-25
-4.56591e-25
-1.80964e-25
1.09686e-25
2.09574e-24
1.42789e-22
1.66931e-20
3.57654e-19
1.49965e-18
7.84775e-19
-2.49748e-33
-1.86398e-36
-2.06771e-35
-7.07192e-34
-1.04985e-32
-1.25381e-31
-1.21354e-30
-9.74974e-30
-6.55412e-29
-3.6455e-28
-1.62105e-27
-5.35963e-27
-1.16047e-26
-1.38058e-26
-1.00423e-26
-3.26112e-27
4.88222e-27
1.50284e-25
8.98953e-24
1.41647e-21
4.84659e-20
2.60636e-19
2.81861e-20
-5.52936e-35
-4.92564e-38
-1.4176e-37
-6.21143e-36
-9.79822e-35
-1.28721e-33
-1.37749e-32
-1.23068e-31
-9.20842e-31
-5.65021e-30
-2.71568e-29
-9.38923e-29
-2.05252e-28
-2.38897e-28
-1.76397e-28
-3.97272e-29
2.5223e-28
9.71155e-27
5.5133e-25
9.93996e-23
5.19147e-21
3.38232e-20
5.02211e-21
-1.08905e-36
-1.13064e-39
-8.41222e-40
-4.59275e-38
-7.65676e-37
-1.1055e-35
-1.29921e-34
-1.27985e-33
-1.05438e-32
-7.0257e-32
-3.60447e-31
-1.30048e-30
-2.89596e-30
-3.39085e-30
-2.57016e-30
-1.13318e-31
1.34739e-29
6.48617e-28
3.71861e-26
5.70525e-24
4.09788e-22
3.16632e-21
2.3909e-22
-1.90025e-38
-2.24924e-41
-4.56605e-42
-2.99913e-40
-5.25955e-39
-8.27825e-38
-1.05713e-36
-1.13502e-35
-1.01497e-34
-7.24874e-34
-3.93447e-33
-1.47865e-32
-3.3772e-32
-4.05227e-32
-3.15191e-32
1.40931e-32
7.04941e-31
3.88106e-29
2.21346e-27
2.19892e-25
2.05643e-23
2.09548e-22
1.02617e-23
-2.91742e-40
-3.82363e-43
-2.35797e-44
-1.78633e-42
-3.28326e-41
-5.57447e-40
-7.65081e-39
-8.83677e-38
-8.46333e-37
-6.41137e-36
-3.65314e-35
-1.42732e-34
-3.35146e-34
-4.15298e-34
-3.27628e-34
4.86452e-34
3.16029e-32
1.78398e-30
9.96289e-29
6.83405e-27
7.3697e-25
1.06213e-23
6.71023e-25
-3.91034e-42
-5.60211e-45
-1.19647e-46
-9.94672e-45
-1.91179e-43
-3.45977e-42
-5.04917e-41
-6.20235e-40
-6.29223e-39
-5.00976e-38
-2.97614e-37
-1.20668e-36
-2.90492e-36
-3.72524e-36
-2.88071e-36
1.04164e-35
9.89589e-34
6.37044e-32
3.22462e-30
2.18555e-28
2.43328e-26
5.01596e-25
1.59325e-25
-4.53527e-44
-6.85434e-47
-6.10237e-49
-5.2705e-47
-1.05774e-45
-2.01739e-44
-3.10135e-43
-4.0118e-42
-4.27025e-41
-3.54967e-40
-2.19178e-39
-9.19998e-39
-2.25626e-38
-2.98563e-38
-2.12977e-38
1.62364e-37
2.11207e-35
1.44126e-33
9.86286e-32
7.3432e-30
3.99797e-28
1.6635e-26
1.3418e-25
-4.53244e-46
-6.97486e-49
-3.16283e-51
-2.68833e-49
-5.6287e-48
-1.11836e-46
-1.79706e-45
-2.4297e-44
-2.69745e-43
-2.33175e-42
-1.49563e-41
-6.48524e-41
-1.60472e-40
-2.18235e-40
-1.34689e-40
1.06415e-39
1.91482e-37
1.88696e-35
1.68387e-33
1.27942e-31
7.85886e-30
5.14274e-28
1.62262e-26
-3.91962e-48
-5.9632e-51
-1.66785e-53
-1.32777e-51
-2.89287e-50
-5.93501e-49
-9.9049e-48
-1.39175e-46
-1.60535e-45
-1.44227e-44
-9.63311e-44
-4.31227e-43
-1.06767e-42
-1.53943e-42
-7.58185e-43
6.7441e-43
1.8551e-40
2.71481e-38
4.0043e-36
4.39403e-34
6.02174e-32
6.61781e-30
1.88892e-28
-2.97466e-50
-4.28574e-53
-8.82157e-56
-6.35021e-54
-1.43697e-52
-3.02142e-51
-5.20859e-50
-7.5805e-49
-9.06546e-48
-8.47877e-47
-5.93851e-46
-2.73958e-45
-6.82337e-45
-1.21881e-44
-3.90418e-45
5.9244e-46
1.0135e-43
1.08162e-41
1.32751e-39
1.50929e-37
3.27086e-35
4.78403e-33
8.18268e-32
-2.03155e-52
-2.49456e-55
-4.45023e-58
-2.93963e-56
-6.89876e-55
-1.47584e-53
-2.61972e-52
-3.93392e-51
-4.87678e-50
-4.77087e-49
-3.53761e-48
-1.67642e-47
-4.34946e-47
-1.23385e-46
-1.87507e-47
7.43952e-49
1.1525e-46
1.21137e-44
1.08012e-42
8.94248e-41
7.05764e-39
5.74982e-37
3.97741e-35
0.999861
0.998961
0.999388
0.99964
0.999984
0.99999
0.999995
0.999995
1
0.999993
0.999995
0.999993
0.999994
0.999984
0.999993
0.911124
0.808547
0.949701
0.999915
0.786822
0.116882
0.305564
0.894854
0.731499
7.86379e-05
8.75153e-05
0.203257
0.756535
7.53006e-05
7.20206e-05
7.61013e-05
0.446714
0.000245702
6.85557e-05
6.16135e-05
7.19107e-05
0.000258132
7.01217e-05
5.93642e-05
5.12536e-05
5.69554e-05
5.50779e-05
0.000207201
4.90271e-05
0.000264941
0.00024072
0.000234096
6.44236e-09
0.000277043
9.90151e-05
1.5544e-07
3.86912e-09
2.85633e-05
3.66602e-06
3.83585e-09
3.74661e-09
3.44621e-10
1.06016e-09
3.70304e-09
3.74661e-09
2.98881e-11
6.52531e-10
4.45957e-09
4.31709e-09
1.38049e-09
3.18073e-09
4.50377e-09
4.32443e-09
4.78772e-10
1.26349e-09
2.01539e-09
3.46077e-09
1.75046e-10
2.22859e-10
2.31965e-10
1.1268e-08
1.32381e-10
1.60154e-10
1.61382e-10
7.65235e-09
7.41832e-11
1.66327e-10
3.1683e-10
1.69533e-09
3.69084e-11
1.23534e-10
2.07408e-10
2.15535e-10
1.26474e-11
5.22194e-11
1.16281e-10
1.96555e-10
4.32064e-12
2.0027e-11
7.06776e-11
1.8262e-10
1.54198e-12
1.12357e-11
6.32928e-11
1.54716e-10
5.80777e-13
6.50727e-12
4.99675e-11
1.22366e-10
2.39681e-13
2.83141e-12
2.43349e-11
6.6709e-11
1.07398e-13
1.50678e-12
9.41392e-12
9.72708e-12
5.07014e-14
8.5006e-13
3.35197e-12
2.91836e-12
3.30156e-14
3.09382e-13
1.40857e-13
3.10456e-13
1.3205e-14
1.06171e-13
1.06665e-13
3.95854e-13
2.40117e-15
3.55903e-14
7.96369e-13
2.22957e-11
2.09303e-16
9.04248e-15
4.86059e-13
7.84339e-12
9.48828e-18
1.42224e-15
2.01964e-13
7.32732e-12
6.09126e-19
2.07049e-16
6.60131e-14
2.39067e-12
3.95252e-20
1.05582e-17
8.50367e-15
2.44339e-13
1.79279e-21
1.31623e-19
9.48645e-16
3.14612e-14
5.507e-23
1.74088e-21
1.36474e-16
3.6439e-15
6.32442e-25
1.28934e-22
1.29527e-17
2.94371e-16
1.28275e-26
3.50722e-24
6.54602e-19
1.57176e-17
1.15686e-29
6.84556e-25
1.80945e-20
3.0489e-19
6.87576e-32
1.38718e-27
3.73309e-26
7.30651e-27
0.999739
0.999481
0.944607
0.938013
0.884027
0.555978
0.0303034
0.000994282
0.000267609
9.98603e-05
0.00171142
0.0514871
0.0514441
0.00967794
0.000526405
0.000550839
0.000550839
0.103886
0.892853
0.999925
0.838549
0.282304
0.0119591
0.0183271
0.174482
0.15651
0.0250748
0.00127364
0.000838782
0.0905263
0.0873221
0.0108105
0.000510151
0.000501972
0.000526405
0.000675396
0.38976
0.918812
0.722232
0.0707275
0.00260682
0.0020576
0.00220636
0.017204
0.111364
0.0267122
0.00154775
0.00154775
0.129221
0.0622227
0.000606906
0.000552898
0.000540824
0.000686961
0.00325852
0.503482
0.924174
0.192472
0.00260682
0.0020576
0.0020576
0.0020576
0.00711906
0.0220267
0.0150391
0.00216207
0.00368691
0.129305
0.0773547
0.000615965
0.00426565
0.00929954
0.00153745
0.00428808
0.525159
0.926614
0.0689701
0.00220777
0.00213287
0.00205757
0.00579237
0.0109143
0.00789104
0.0119582
0.00710862
0.00255342
0.102162
0.114776
0.00963727
0.00452217
0.297762
0.329947
0.27992
0.706719
0.929476
0.0532532
0.0029911
0.00352928
0.00876823
0.00854678
0.00638659
0.000712892
0.00475708
0.00341067
0.00112353
0.000504692
0.0156862
0.0302394
0.0299581
0.506465
0.887407
0.896233
0.92607
0.929704
0.40935
0.00292303
0.00272965
0.0087933
0.00843198
0.000320876
0.000328886
0.000401009
0.00064352
0.000740678
0.000504692
0.000894229
0.00225451
0.00381901
0.393505
0.923121
0.929436
0.929704
0.929704
0.648765
0.206993
0.00252396
0.00330766
0.00170007
0.000320876
0.000320876
0.000328886
0.00392182
0.0241573
0.0359677
0.0488543
0.0652928
0.0818657
0.553568
0.919518
0.928577
0.929641
0.929704
0.459933
0.45875
0.257928
0.000716939
0.000326717
0.000320876
0.0783383
0.4041
0.680608
0.654659
0.54791
0.639225
0.674959
0.675695
0.642441
0.490793
0.598501
0.890976
0.929641
0.0186048
0.258315
0.312496
0.31371
0.423354
0.59037
0.692768
0.699748
0.700266
0.700262
0.693902
0.690268
0.622506
0.417318
0.0435993
0.0145346
0.0777552
0.693134
0.928471
8.59967e-07
0.0011166
0.0739792
0.202482
0.38095
0.462466
0.406184
0.380431
0.4979
0.292917
0.209922
0.290217
0.292174
0.0326637
0.0145346
0.0145346
0.0176104
0.705336
0.926443
5.3611e-08
8.03195e-07
1.37027e-05
0.00626383
0.0273079
0.0268678
0.00916458
0.0190591
0.0514692
0.345908
0.854208
0.900373
0.907441
0.556678
0.0644987
0.0145346
0.0519339
0.766036
0.925845
6.44236e-09
7.46588e-08
6.20878e-07
7.42278e-06
5.03468e-05
0.000126586
0.000221595
0.00100459
0.00347813
0.0928999
0.42093
0.885803
0.907441
0.907441
0.806919
0.481028
0.553366
0.868522
0.92584
3.86912e-09
6.9525e-09
6.04985e-08
6.73111e-07
4.04461e-06
1.4669e-05
4.65243e-05
0.000214234
0.00117893
0.00468892
0.00833516
0.553459
0.907441
0.908137
0.909867
0.910082
0.910958
0.910615
0.873322
3.74661e-09
3.95446e-09
7.3422e-09
4.96225e-08
5.22132e-07
2.36487e-06
9.28398e-06
4.68318e-05
0.000260181
0.000882747
0.00565906
0.479957
0.906912
0.906498
0.847037
0.910958
0.910958
0.910732
0.868367
3.79882e-09
3.84865e-09
4.8007e-09
2.10052e-07
4.51079e-07
8.90125e-07
2.2046e-06
9.04838e-06
4.8103e-05
0.00018001
0.00518405
0.411176
0.860449
0.710308
0.261478
0.574569
0.910958
0.910615
0.909589
3.84865e-09
3.84865e-09
4.15906e-09
2.49503e-07
1.05898e-06
1.09703e-06
1.28558e-06
2.24792e-06
8.21797e-06
6.12683e-05
0.000149246
0.0620139
0.23113
0.348022
0.180682
0.191672
0.55084
0.802021
0.839426
1.51329e-08
2.3575e-08
1.39145e-08
5.64944e-08
6.33173e-07
1.38703e-06
1.98637e-06
2.05308e-06
2.0192e-05
0.000238089
0.000148538
8.59366e-05
0.000527276
0.0577531
0.182143
0.156945
0.156293
0.281891
0.300216
4.2685e-08
4.29809e-08
3.9576e-08
2.14012e-08
3.72527e-08
7.90318e-07
1.92874e-06
2.24675e-06
6.79735e-06
7.46223e-05
0.000133217
1.80158e-05
3.04296e-05
0.0054069
0.0384276
0.0339281
0.0913393
0.22325
0.271398
3.96632e-08
4.29637e-08
4.29779e-08
2.11262e-08
4.722e-09
4.03879e-08
8.71871e-07
1.29903e-06
1.05112e-06
7.48185e-07
1.44117e-05
1.65269e-05
1.80158e-05
3.04296e-05
6.40576e-05
0.000199822
0.00329301
0.141061
0.377927
7.79827e-09
2.01646e-08
2.12017e-08
8.66828e-09
4.44964e-09
3.15189e-08
3.61257e-08
5.95778e-08
4.85427e-07
1.75116e-07
2.042e-07
0.000120222
0.000423924
0.000241445
0.000162488
0.000200819
0.000274241
0.0221971
0.378099
2.29015e-10
7.60203e-10
1.16238e-09
1.09107e-09
2.47905e-09
1.01638e-07
5.86184e-08
6.37223e-08
3.49544e-07
9.68888e-08
1.11573e-07
2.29517e-06
0.000555117
0.000693062
0.000347177
0.000370191
0.000374083
0.0136391
0.37731
3.22587e-10
1.31852e-09
2.20758e-09
1.07966e-09
1.08671e-09
9.23808e-08
6.50637e-08
6.49322e-08
6.66227e-08
8.19635e-08
9.68903e-08
1.11543e-07
0.000224158
0.000717019
0.000925776
0.000920192
0.000501086
0.00155382
0.243549
2.94703e-10
1.44252e-09
2.4717e-09
1.06376e-09
9.06449e-09
9.26218e-09
3.27457e-07
1.12975e-06
4.52012e-07
9.72203e-08
1.09606e-07
1.1724e-07
2.10382e-07
0.000113508
0.000898309
0.000925776
0.000587353
0.000688252
0.116556
1.8184e-10
4.31972e-10
9.46387e-10
9.72231e-10
3.44164e-09
8.63307e-09
7.95683e-07
1.32363e-06
1.06063e-06
1.3079e-07
1.17249e-07
1.24451e-07
1.38894e-07
3.59586e-07
8.21154e-05
0.000728701
0.000659187
0.000762774
0.177957
1.31436e-10
1.31508e-10
1.39959e-10
3.01384e-09
2.6074e-08
7.13094e-07
7.06917e-07
1.28837e-06
1.7829e-07
1.34702e-07
1.32206e-07
1.34702e-07
1.38364e-07
1.79419e-07
3.97343e-07
7.03173e-06
0.0118907
0.00405762
0.187581
5.84295e-11
1.98783e-09
1.23561e-06
2.02795e-05
8.6347e-05
0.000129488
7.10467e-05
5.61144e-06
7.24758e-06
7.24315e-06
1.10124e-06
1.38364e-07
1.61646e-07
1.83268e-07
4.13847e-05
0.000214127
0.0241607
0.00513525
0.168614
2.52759e-11
2.48707e-09
3.66788e-05
0.000127924
0.000200816
0.000201712
0.00020143
9.21973e-05
1.53792e-05
5.81106e-06
2.14209e-07
1.87539e-07
1.83268e-07
1.87906e-07
4.25436e-05
0.013916
0.0243792
0.00798074
0.0331978
5.33931e-11
6.34442e-07
6.16586e-05
7.05292e-05
4.28723e-05
0.00019275
0.000201712
0.000155392
2.28259e-05
8.79883e-06
6.28162e-06
2.56761e-07
1.87907e-07
4.24026e-07
3.92116e-07
0.0280024
0.024531
0.00786567
0.0819241
4.43533e-11
2.40066e-06
6.00368e-06
1.22702e-10
3.28105e-09
3.31719e-05
0.000201168
0.000127068
2.50217e-05
4.66151e-05
1.15581e-05
1.98689e-07
1.95367e-07
9.54016e-07
2.86778e-07
0.0281829
0.00856116
0.00790245
0.1284
3.8269e-08
2.11699e-07
1.25375e-12
8.26697e-11
1.22702e-10
8.45465e-09
0.000192742
6.58229e-05
2.46883e-05
5.97452e-05
1.80364e-05
1.98213e-07
1.91373e-07
3.91221e-07
1.96947e-07
0.0267092
0.011022
0.0116951
0.128643
1.68097e-09
1.25281e-12
1.05036e-12
1.25375e-12
1.25953e-10
1.42119e-06
8.09648e-05
1.15973e-05
2.45101e-05
5.98331e-05
4.86284e-05
1.91373e-07
1.91219e-07
1.91373e-07
1.91947e-07
0.0203821
0.0333264
0.0213606
0.128704
1.14609e-11
5.05434e-12
9.94578e-13
1.05036e-12
1.19714e-06
2.68315e-06
2.81745e-06
6.67221e-06
5.52703e-05
5.98537e-05
5.98331e-05
1.00948e-05
1.91334e-07
1.91334e-07
1.91801e-07
0.0275682
0.035157
0.0234922
0.128693
2.49392e-11
1.14233e-11
9.02184e-13
2.55944e-08
4.5976e-06
5.74517e-06
3.00689e-06
2.08848e-05
5.98756e-05
5.98688e-05
5.98537e-05
4.35623e-05
1.91334e-07
1.92303e-07
0.0085614
0.0351157
0.0351069
0.0209368
0.119302
5.63704e-12
2.03691e-12
4.63407e-13
8.61116e-08
5.7988e-06
6.77609e-06
3.5496e-06
2.51936e-05
5.9841e-05
5.9883e-05
5.89471e-05
3.83812e-06
7.95889e-06
0.00138659
0.0249078
0.0351069
0.0351663
0.0192443
0.0498041
1.78225e-13
2.21322e-14
2.21322e-14
3.81356e-08
3.86655e-06
6.77653e-06
4.19816e-06
1.56352e-05
5.98539e-05
5.97695e-05
3.14582e-05
3.74554e-07
6.22354e-06
0.000410851
0.0013547
0.0215145
0.0351069
0.0173798
0.0580234
2.55571e-14
1.84462e-14
2.29292e-14
1.54725e-10
1.48791e-06
6.5194e-06
6.94035e-06
7.82913e-06
2.41401e-05
3.5994e-05
4.91396e-07
8.36975e-08
6.7616e-06
6.31917e-05
9.15321e-06
8.95259e-06
0.0115333
0.0146351
0.0994967
2.65239e-15
2.66169e-15
2.17586e-13
5.94895e-11
2.07849e-07
5.31442e-06
7.03072e-06
3.08462e-06
2.28356e-07
4.19191e-07
2.32519e-08
2.04968e-08
1.08983e-05
0.000289701
0.000106755
6.59578e-06
0.00179587
0.0126194
0.176072
1.81234e-16
5.05347e-16
7.44148e-14
1.00197e-11
6.9513e-10
1.61255e-06
6.86405e-06
3.43661e-06
1.24044e-07
2.00113e-08
1.35889e-08
1.46133e-08
2.04968e-08
0.000286783
0.000138073
2.25453e-06
0.000375001
0.0204968
0.194555
7.09127e-18
6.73038e-17
2.05673e-15
2.39515e-13
1.7272e-11
2.85838e-08
1.2836e-06
2.78801e-06
5.83408e-07
1.35889e-08
1.33752e-08
1.35708e-08
1.48007e-08
7.29283e-05
2.15964e-05
2.08361e-09
6.90743e-11
0.0109827
0.194507
8.09511e-20
5.36786e-19
2.09379e-16
2.36783e-14
2.38439e-13
1.3827e-11
4.12665e-10
1.26507e-07
7.25095e-07
1.46868e-07
1.33604e-08
1.38894e-05
2.63559e-05
2.69292e-07
2.01758e-09
6.60408e-11
3.05177e-12
3.36249e-13
0.162195
3.49271e-28
3.40998e-22
4.18677e-19
1.7196e-16
1.50451e-14
2.38468e-13
1.45526e-11
4.12665e-10
8.17478e-08
6.82394e-08
1.33604e-08
9.18435e-06
6.26537e-06
8.87908e-08
-1.43595e-12
1.16435e-26
1.19381e-32
7.81539e-29
0.0185873
)
;

boundaryField
{
    leftWall
    {
        type            zeroGradient;
    }
    rightWall
    {
        type            zeroGradient;
    }
    lowerWall
    {
        type            zeroGradient;
    }
    atmosphere
    {
        type            inletOutlet;
        inletValue      uniform 0;
        value           nonuniform List<scalar> 
46
(
-2.03155e-52
-2.49456e-55
-4.45023e-58
-2.93963e-56
-6.89876e-55
-1.47584e-53
-2.61972e-52
-3.93392e-51
-4.87678e-50
-4.77087e-49
-3.53761e-48
-1.67642e-47
-4.34946e-47
-1.23385e-46
-1.87507e-47
7.43952e-49
1.1525e-46
1.21137e-44
1.08012e-42
8.94248e-41
7.05764e-39
5.74982e-37
3.97741e-35
6.87576e-32
0
0
0
0
3.40998e-22
4.18677e-19
1.7196e-16
1.50451e-14
2.38468e-13
1.45526e-11
4.12665e-10
8.17478e-08
6.82394e-08
1.33604e-08
9.18435e-06
0
0
0
0
0
0
0.0185873
)
;
    }
    defaultFaces
    {
        type            empty;
    }
}


// ************************************************************************* //
