/*--------------------------------*- C++ -*----------------------------------*\
| =========                 |                                                 |
| \\      /  F ield         | OpenFOAM: The Open Source CFD Toolbox           |
|  \\    /   O peration     | Version:  2206                                  |
|   \\  /    A nd           | Website:  www.openfoam.com                      |
|    \\/     M anipulation  |                                                 |
\*---------------------------------------------------------------------------*/
FoamFile
{
    version     2.0;
    format      ascii;
    arch        "LSB;label=32;scalar=64";
    class       surfaceScalarField;
    location    "0.55";
    object      alphaPhi0.water;
}
// * * * * * * * * * * * * * * * * * * * * * * * * * * * * * * * * * * * * * //

dimensions      [0 3 -1 0 0 0 0];

oriented        oriented;

internalField   nonuniform List<scalar> 
4432
(
-3.51344e-06
3.51344e-06
-5.6077e-06
2.09426e-06
-4.86948e-06
-7.38222e-07
-2.23054e-06
-2.63895e-06
1.88021e-06
-4.11075e-06
6.7219e-06
-4.84169e-06
1.12888e-05
-4.56691e-06
1.48055e-05
-3.51666e-06
1.7032e-05
-2.22651e-06
1.81038e-05
-1.07182e-06
1.82279e-05
-1.24118e-07
1.75499e-05
6.78018e-07
1.61882e-05
1.36167e-06
1.41689e-05
2.01931e-06
1.13316e-05
2.83734e-06
7.3427e-06
3.98889e-06
1.98001e-06
5.36268e-06
-4.07504e-06
6.05506e-06
-7.70475e-06
4.40169e-06
-1.27971e-05
4.54102e-06
-2.04716e-05
6.20918e-06
-1.67501e-05
-3.72147e-06
-1.675e-05
-3.91834e-06
7.43178e-06
-5.29763e-06
3.47356e-06
-4.2821e-06
-1.75376e-06
-1.72975e-06
-5.1913e-06
2.20321e-06
-8.0437e-06
6.97694e-06
-9.61542e-06
1.15189e-05
-9.10892e-06
1.49919e-05
-6.98963e-06
1.71649e-05
-4.39947e-06
1.82214e-05
-2.12837e-06
1.84974e-05
-4.00093e-07
1.8282e-05
8.93466e-07
1.77449e-05
1.89875e-06
1.69681e-05
2.79611e-06
1.59569e-05
3.84851e-06
1.44555e-05
5.49031e-06
1.17532e-05
8.06495e-06
6.68904e-06
1.11192e-05
-8.07873e-07
1.20505e-05
-8.99246e-06
1.35701e-05
-1.41999e-05
1.0953e-05
-1.10783e-05
-7.44048e-06
-2.78283e-05
-3.12206e-06
1.05538e-05
-4.08099e-06
4.43249e-06
-3.22046e-06
-2.61428e-06
-1.1172e-06
-7.29456e-06
2.36678e-06
-1.15277e-05
6.96936e-06
-1.4218e-05
1.14693e-05
-1.36089e-05
1.48614e-05
-1.03817e-05
1.69006e-05
-6.43858e-06
1.78383e-05
-3.06607e-06
1.80006e-05
-5.62444e-07
1.76396e-05
1.2545e-06
1.69293e-05
2.60902e-06
1.60238e-05
3.70166e-06
1.51e-05
4.77221e-06
1.44064e-05
6.18399e-06
1.40378e-05
8.43352e-06
1.29031e-05
1.22539e-05
8.89905e-06
1.60546e-05
2.52826e-06
2.02747e-05
-3.68807e-06
1.67791e-05
-3.37692e-06
-7.61409e-06
-3.12051e-05
-1.95985e-06
1.25137e-05
-2.33817e-06
4.81082e-06
-1.6384e-06
-3.31405e-06
-3.08781e-08
-8.90208e-06
2.89474e-06
-1.44533e-05
7.13961e-06
-1.84629e-05
1.13964e-05
-1.78656e-05
1.45712e-05
-1.35566e-05
1.64223e-05
-8.28967e-06
1.72369e-05
-3.88073e-06
1.7363e-05
-6.8855e-07
1.70391e-05
1.57845e-06
1.64117e-05
3.23637e-06
1.55839e-05
4.52944e-06
1.46638e-05
5.69238e-06
1.38507e-05
6.99704e-06
1.35846e-05
8.69959e-06
1.41573e-05
1.16812e-05
1.44259e-05
1.5786e-05
1.33217e-05
2.13789e-05
9.86251e-06
2.03952e-05
5.78002e-06
-3.06714e-06
-2.53959e-05
-4.23919e-07
1.29376e-05
2.46122e-07
4.14078e-06
1.15197e-06
-4.2199e-06
2.68027e-06
-1.04304e-05
5.36021e-06
-1.71332e-05
8.80141e-06
-2.19041e-05
1.20962e-05
-2.11604e-05
1.44758e-05
-1.59362e-05
1.58382e-05
-9.65206e-06
1.6458e-05
-4.50048e-06
1.65817e-05
-8.12304e-07
1.63549e-05
1.80529e-06
1.58889e-05
3.7024e-06
1.52666e-05
5.1517e-06
1.45628e-05
6.39614e-06
1.38884e-05
7.67143e-06
1.34816e-05
9.10642e-06
1.3954e-05
1.12088e-05
1.56491e-05
1.40909e-05
1.81231e-05
1.89049e-05
1.81916e-05
2.07735e-05
1.17653e-05
3.49179e-06
-1.36287e-05
1.7669e-06
1.11707e-05
4.10176e-06
1.80591e-06
6.23718e-06
-6.35533e-06
8.64897e-06
-1.28422e-05
1.11343e-05
-1.96185e-05
1.30348e-05
-2.38046e-05
1.43556e-05
-2.24812e-05
1.51466e-05
-1.67271e-05
1.55191e-05
-1.00246e-05
1.56895e-05
-4.67087e-06
1.57492e-05
-8.72032e-07
1.56499e-05
1.90467e-06
1.53767e-05
3.97552e-06
1.4977e-05
5.55141e-06
1.4499e-05
6.87413e-06
1.40502e-05
8.12027e-06
1.38076e-05
9.34905e-06
1.40547e-05
1.09617e-05
1.53114e-05
1.28342e-05
1.83414e-05
1.58749e-05
2.02545e-05
1.88603e-05
1.41542e-05
9.59214e-06
5.21384e-07
4.26306e-06
6.90766e-06
9.18082e-06
-3.11185e-06
1.38967e-05
-1.10712e-05
1.77591e-05
-1.67047e-05
1.95262e-05
-2.13856e-05
1.90278e-05
-2.33062e-05
1.77596e-05
-2.12131e-05
1.66793e-05
-1.56468e-05
1.59013e-05
-9.2466e-06
1.54254e-05
-4.19494e-06
1.51576e-05
-6.04205e-07
1.50727e-05
1.98956e-06
1.49364e-05
4.11176e-06
1.47552e-05
5.73267e-06
1.4491e-05
7.13828e-06
1.42238e-05
8.38749e-06
1.41795e-05
9.39331e-06
1.4482e-05
1.06592e-05
1.5173e-05
1.21431e-05
1.72465e-05
1.38015e-05
1.92658e-05
1.6841e-05
1.51972e-05
1.36608e-05
1.57166e-05
6.64524e-06
2.62417e-07
1.51189e-05
-1.15856e-05
2.28428e-05
-1.87947e-05
2.6955e-05
-2.08168e-05
2.65667e-05
-2.09971e-05
2.33826e-05
-2.01218e-05
2.01638e-05
-1.79938e-05
1.80272e-05
-1.35101e-05
1.67557e-05
-7.97503e-06
1.60557e-05
-3.49503e-06
1.55741e-05
-1.2257e-07
1.5148e-05
2.41567e-06
1.48244e-05
4.43538e-06
1.46174e-05
5.93967e-06
1.44231e-05
7.3326e-06
1.42936e-05
8.51698e-06
1.4474e-05
9.21291e-06
1.49753e-05
1.0158e-05
1.55691e-05
1.15494e-05
1.67272e-05
1.26433e-05
1.79874e-05
1.55808e-05
1.49773e-05
1.66709e-05
3.0692e-05
7.80396e-09
-9.54588e-09
1.81204e-09
1.36657e-09
-1.6438e-08
1.2091e-08
-9.70327e-06
1.89707e-06
-6.29425e-05
1.77298e-05
-8.70811e-05
2.44126e-05
-9.77125e-05
1.09055e-05
-9.44439e-05
-3.40846e-07
-0.000100632
-2.4802e-06
-0.000115442
-2.18036e-06
-0.000122562
-2.32614e-06
-0.000123239
-2.87815e-06
-0.000121364
-4.07323e-06
-0.000117279
-6.83237e-06
-0.000108978
-1.15353e-05
-9.66471e-05
-1.57728e-05
-7.17521e-05
-2.83233e-05
-1.34394e-05
-6.15186e-05
-1.62297e-05
2.88655e-08
-3.57297e-08
3.7018e-08
8.61976e-09
-2.1912e-07
2.46455e-07
-2.61879e-05
1.22699e-05
-4.10934e-05
1.55433e-05
-1.67393e-05
6.16791e-06
-8.33698e-06
6.14112e-07
-1.26205e-05
-3.1094e-09
-1.92135e-05
-7.86503e-09
-2.28617e-05
-1.79543e-08
-2.50308e-05
-4.13522e-08
-2.76364e-05
-1.03617e-07
-3.31175e-05
-2.8116e-07
-4.36195e-05
-8.58776e-07
-5.87658e-05
-2.77987e-06
-7.53152e-05
-7.25381e-06
-8.44732e-05
-2.75233e-05
-2.96342e-05
-0.000122353
-5.07936e-05
1.71245e-08
-4.39431e-08
7.92885e-09
2.69082e-08
-5.00396e-08
2.52084e-07
-1.57337e-05
1.07454e-05
-5.64571e-06
2.65561e-06
-5.7683e-07
1.15554e-06
-1.54574e-08
5.2164e-08
-2.00907e-08
9.8983e-10
-2.82797e-08
-2.77367e-10
-4.40847e-08
-2.99975e-09
-7.92672e-08
-7.41326e-09
-1.70579e-07
-1.37343e-08
-4.34742e-07
-2.30113e-08
-1.25654e-06
-5.13314e-08
-3.84686e-06
-1.99751e-07
-1.00082e-05
-1.1667e-06
-3.47906e-05
-8.56345e-06
-4.46086e-05
-0.000119788
-9.78142e-05
-7.02916e-09
-1.63967e-09
6.76115e-10
5.52817e-08
1.04254e-07
5.18456e-08
-4.80528e-06
1.09859e-05
-9.94525e-07
3.34379e-06
-5.26483e-08
2.22255e-07
-1.10828e-08
9.99692e-09
-1.35335e-08
2.9068e-09
-1.5144e-08
7.9931e-10
-1.55863e-08
-3.15813e-09
-1.59983e-08
-7.85151e-09
-1.96696e-08
-1.16885e-08
-2.67693e-08
-1.9417e-08
-5.56891e-08
-3.02108e-08
-2.14855e-07
-5.49323e-08
-1.30513e-06
-8.67057e-08
-7.12827e-06
-2.77143e-06
-4.34506e-05
-8.73611e-05
-0.000143754
-2.41963e-08
-1.10514e-07
-3.45264e-10
7.76665e-08
4.56399e-07
1.00642e-06
9.83408e-07
1.20373e-05
2.85165e-07
3.89575e-06
-3.55827e-09
4.54156e-07
-4.57995e-09
1.04816e-08
-7.26187e-09
5.04031e-09
-9.87726e-09
2.87853e-09
-1.01808e-08
-3.49116e-09
-1.08148e-08
-8.37612e-09
-2.66683e-08
-2.55535e-09
-3.78674e-08
-1.59287e-08
-1.21103e-08
-4.83242e-08
1.01098e-07
-2.16067e-07
5.06415e-08
-6.93403e-08
-2.53476e-06
-2.46338e-07
-3.66698e-05
-5.70031e-05
-0.000182986
-1.7705e-06
4.00304e-07
-1.94861e-06
3.19632e-06
-8.28722e-07
3.47239e-06
2.28145e-06
1.70638e-05
7.51633e-07
5.35163e-06
1.48983e-07
1.0475e-06
1.04181e-08
1.49369e-07
-2.35087e-09
1.72795e-08
-5.56143e-09
5.45326e-09
-6.92214e-09
-2.89396e-09
-5.81887e-09
-1.08829e-08
-9.67613e-09
-7.81213e-09
1.37165e-07
-1.94641e-07
5.87274e-07
-1.15328e-06
1.24044e-06
-1.72916e-06
1.03777e-06
-2.01957e-07
3.41179e-07
3.04105e-07
-2.76385e-05
-3.35152e-05
-0.000213245
-9.06508e-06
4.28035e-06
-7.36479e-06
-1.64274e-06
-2.18548e-07
-3.53001e-06
1.88549e-06
1.4942e-05
1.5129e-06
5.68536e-06
5.53987e-07
1.98282e-06
1.56335e-07
5.43235e-07
2.23176e-08
1.49126e-07
9.31896e-10
2.61319e-08
2.66972e-11
-3.37038e-09
2.61129e-08
-3.74051e-08
3.06067e-07
-2.9325e-07
1.79717e-06
-2.45196e-06
2.6725e-06
-4.18705e-06
1.40001e-06
-2.8043e-06
9.21816e-07
-5.10429e-08
7.92581e-07
4.24108e-07
-1.84741e-05
-1.75701e-05
-0.000234371
1.90377e-05
-2.30769e-05
3.94609e-05
-2.49417e-05
4.50559e-05
-1.08997e-05
3.37658e-05
3.48291e-05
1.70591e-05
3.61157e-05
3.70529e-06
1.53051e-05
1.2939e-06
2.92216e-06
2.96013e-07
1.14403e-06
4.26482e-08
2.7729e-07
2.73068e-08
1.14727e-08
2.16025e-07
-2.27714e-07
1.92703e-06
-2.90078e-06
2.9999e-06
-4.66364e-06
2.12264e-06
-5.16428e-06
1.9237e-07
-2.98239e-07
1.20308e-07
1.49524e-08
2.90359e-07
2.5118e-07
-9.29931e-06
-1.06593e-05
-0.000246353
2.0818e-05
-1.61838e-05
4.02245e-05
-2.12227e-05
4.51573e-05
-1.14143e-05
4.31819e-05
-5.79395e-06
3.97196e-05
-4.7394e-06
3.63066e-05
-5.74793e-06
3.26303e-05
-6.92155e-06
3.08055e-05
-6.95317e-06
3.15197e-05
-5.83271e-06
3.31222e-05
-3.87103e-06
3.44784e-05
-1.32292e-06
3.51638e-05
1.73027e-06
3.49084e-05
4.69082e-06
3.41434e-05
6.70467e-06
3.27888e-05
8.68721e-06
3.14439e-05
9.86182e-06
3.14563e-05
9.20052e-06
3.25545e-05
9.05977e-06
3.41786e-05
9.92529e-06
3.66013e-05
1.02206e-05
4.08252e-05
1.13569e-05
4.70226e-05
1.04735e-05
2.11906e-05
5.65209e-05
8.51733e-06
-8.30027e-15
4.11698e-06
-1.42431e-10
1.22664e-06
-1.09134e-08
2.73436e-07
1.10605e-08
-9.80006e-08
-9.19169e-14
-4.63439e-07
-2.30832e-12
-9.72396e-07
-4.76273e-11
-8.51589e-07
-7.9234e-10
9.55412e-07
-1.15679e-08
5.60884e-06
-1.48731e-07
1.40824e-05
-1.31486e-06
2.5225e-05
-2.33075e-06
3.38504e-05
-2.70711e-07
3.70376e-05
3.70084e-06
3.58712e-05
9.85363e-06
3.30697e-05
1.26633e-05
3.3194e-05
9.07626e-06
3.41833e-05
8.07042e-06
3.56554e-05
8.45325e-06
3.86283e-05
7.24767e-06
4.32203e-05
6.76484e-06
4.88685e-05
4.82538e-06
8.79432e-06
6.12648e-05
4.94982e-17
-8.88836e-15
-1.40511e-10
-1.92063e-12
-1.10065e-08
-5.17176e-11
-3.6916e-15
5.39272e-11
-9.56217e-14
-8.77897e-19
-2.40264e-12
-1.80656e-15
-5.00091e-11
-2.83396e-14
-8.42458e-10
3.11015e-15
-1.24106e-08
-5.579e-15
-1.6113e-07
-1.21395e-11
-1.47567e-06
-3.24578e-10
-1.76235e-06
-6.1623e-09
-8.13405e-07
-7.88109e-08
3.34149e-06
-5.84164e-07
1.20096e-05
3.34596e-10
2.41749e-05
5.68306e-07
3.6677e-05
4.49413e-07
3.93636e-05
5.3838e-06
3.79113e-05
9.90555e-06
3.85938e-05
6.5652e-06
4.08581e-05
4.50056e-06
4.33768e-05
2.30665e-06
-9.75782e-07
5.31469e-05
-9.02253e-15
-7.39618e-17
-1.92673e-12
-1.01454e-14
-5.39074e-11
3.41842e-14
-1.1728e-16
1.99441e-14
-1.22084e-16
-1.40228e-18
-1.94623e-15
3.60601e-18
-3.03879e-14
1.2618e-18
-2.47765e-14
-1.5638e-15
-1.89382e-13
1.26923e-15
-1.24906e-11
-8.27379e-15
-3.37135e-10
-3.18785e-14
-6.49815e-09
-1.30564e-12
-8.52628e-08
-4.65731e-11
-6.67672e-07
-1.76291e-09
-1.38346e-06
-7.43935e-09
-1.89388e-06
-1.1463e-08
-1.8272e-06
-9.00259e-08
4.58457e-06
-1.20354e-06
1.91925e-05
-1.43122e-06
3.74565e-05
-2.79278e-06
4.5525e-05
-1.21583e-06
4.76251e-05
2.06486e-07
-5.00869e-06
5.16647e-05
-2.91385e-16
-8.14096e-21
-1.69171e-14
-2.27555e-17
-1.99354e-14
3.21363e-17
-6.3844e-19
-1.72435e-20
-5.91581e-18
-1.48464e-18
-5.08347e-18
4.68067e-18
-2.49863e-17
1.19152e-17
2.62996e-16
2.97677e-16
1.72139e-14
3.40675e-15
2.38718e-14
-1.4789e-14
-4.39519e-14
-1.17255e-15
-1.40627e-12
2.99926e-14
-4.75717e-11
-4.34086e-13
-2.30936e-10
-1.57987e-09
-5.648e-10
-7.11368e-09
-4.9564e-09
-7.03462e-09
-9.12905e-08
-3.46833e-09
-1.29327e-06
-8.10051e-10
-9.28685e-07
-3.88498e-09
-1.37071e-06
-3.64133e-08
1.08189e-06
-6.69791e-07
7.63018e-06
-1.70299e-06
-4.93234e-06
2.03372e-05
-8.17541e-21
-5.41694e-25
-2.27869e-17
-8.96753e-21
-2.5286e-19
-5.02034e-20
-9.70181e-18
2.71693e-21
-3.4757e-17
2.261e-18
-3.42802e-17
2.87717e-17
1.59803e-16
4.09711e-17
9.46924e-17
5.84365e-16
-5.68373e-13
-1.16563e-14
-5.40403e-13
-5.19687e-13
1.7601e-13
-1.84552e-13
1.62697e-13
2.82476e-14
-8.17363e-13
5.24796e-13
-9.95341e-10
-7.00236e-10
-1.04265e-09
-3.17679e-09
-1.53366e-09
-2.60931e-09
-2.90679e-10
-1.20916e-16
-1.02783e-10
-2.82469e-10
-1.02782e-09
-2.21174e-09
-3.62738e-08
-3.42242e-10
-7.0267e-07
-1.60943e-09
-1.23493e-06
-5.42996e-09
-8.01364e-09
-3.21092e-06
-4.25152e-23
1.88815e-24
-1.7812e-20
-1.86514e-21
-6.4415e-19
-5.41684e-20
-7.83534e-18
-5.54949e-20
-3.53836e-17
4.91723e-18
-4.09565e-17
3.27603e-17
2.8867e-17
5.9845e-17
5.69265e-16
2.09497e-16
-7.62238e-13
3.58946e-14
-8.98228e-13
-2.38696e-13
-3.91993e-14
-3.46555e-13
-1.87387e-14
3.85905e-15
4.96674e-13
5.80201e-15
2.84199e-10
-4.42704e-10
3.39724e-11
-5.46778e-11
-1.3418e-18
-2.82876e-13
7.58355e-18
-5.89281e-17
4.09568e-10
-2.16318e-13
9.27496e-10
-8.54591e-10
5.2412e-09
-6.59965e-10
5.45945e-09
-1.35244e-09
2.41823e-09
-8.41335e-10
-1.04087e-09
-3.92986e-09
-2.9345e-24
4.90774e-25
-3.90471e-21
-2.73233e-22
-3.86774e-19
-2.69198e-20
-6.00843e-18
-7.25596e-20
-2.40401e-17
3.95706e-18
-3.25285e-17
2.621e-17
-2.4297e-17
5.7564e-17
1.81872e-16
6.24757e-17
-1.2517e-13
2.83649e-15
-5.95861e-13
-7.46068e-14
-2.98379e-13
-4.06971e-13
4.16223e-13
-8.31334e-13
2.57827e-12
-6.56554e-12
5.48925e-11
-1.03471e-11
2.83049e-13
-6.73805e-14
6.62593e-16
-4.82157e-16
6.40565e-16
-4.07565e-17
1.76421e-12
-1.97982e-12
2.27447e-09
-1.90072e-09
1.59344e-08
-7.45454e-09
2.43926e-08
-7.66936e-09
2.65317e-08
-1.7063e-09
6.41206e-09
1.5453e-08
-1.62552e-25
4.96386e-25
-5.31245e-22
-3.40068e-23
-1.13459e-19
-8.60189e-21
-2.58057e-18
-7.46536e-20
-1.22764e-17
1.53745e-18
-1.34461e-17
1.52308e-17
2.79171e-18
4.07327e-17
2.04259e-17
4.91256e-17
2.89679e-15
-3.69392e-17
3.9432e-14
-5.46363e-15
3.19366e-13
-2.53858e-14
7.62267e-13
-7.62071e-13
9.03273e-12
-2.73739e-12
5.9546e-14
-1.39114e-12
4.21458e-16
-8.24791e-15
1.6284e-17
-8.08411e-17
1.61682e-17
-4.45161e-17
8.82136e-11
-9.01934e-11
4.75448e-09
-2.22298e-09
1.48628e-08
-1.577e-08
2.877e-08
-2.06435e-08
2.16709e-08
-3.36463e-10
1.69349e-09
2.73733e-08
-4.18202e-24
-3.10713e-23
-5.53154e-23
-1.18664e-23
-2.42348e-20
-2.01706e-21
-6.27278e-19
-4.22191e-20
-2.71729e-18
1.0967e-19
4.86857e-19
3.28268e-18
2.5461e-17
1.91304e-17
1.76922e-16
3.69558e-17
6.67548e-15
7.69837e-16
1.4531e-14
-6.35581e-15
2.15964e-14
-2.50258e-14
7.33976e-13
-1.08854e-13
1.85088e-12
-1.17984e-13
1.70746e-15
-9.7961e-14
-6.97128e-18
-6.51792e-15
2.38962e-17
-1.16888e-16
3.89249e-17
-6.34028e-17
2.27903e-10
-1.77143e-10
1.82138e-09
-1.70715e-11
7.57176e-09
-4.72121e-09
1.55083e-08
-2.50394e-08
1.14681e-08
-1.55233e-08
-2.03006e-09
1.30419e-08
-1.25276e-25
-5.1074e-23
-8.36301e-23
7.16385e-23
-4.04211e-21
-3.58569e-22
-1.04339e-19
-1.55584e-20
-3.36301e-19
-8.28199e-20
2.17986e-18
-4.09713e-20
1.82063e-17
1.84204e-18
9.8117e-17
2.03749e-18
5.26139e-15
-5.33158e-17
2.38886e-14
-1.02771e-14
2.29722e-14
-2.29409e-14
7.53158e-15
-3.90033e-14
6.76008e-15
-5.72147e-14
5.42931e-15
-3.60885e-14
3.63437e-16
-1.92019e-15
2.14146e-17
-3.60307e-17
6.98127e-18
-1.16603e-16
1.58568e-11
-4.30672e-14
1.44361e-13
-1.0125e-12
-1.51062e-10
-1.74209e-10
-2.21682e-09
-1.41939e-08
-1.86707e-09
-1.6708e-08
-5.46025e-09
-4.87447e-11
-8.27101e-26
-6.00487e-23
-3.73174e-23
9.29864e-23
-5.29062e-22
-5.20085e-23
-1.35129e-20
-4.03335e-21
-1.33835e-20
-4.13593e-20
8.97712e-19
-2.75496e-19
1.20001e-17
-2.95572e-18
4.34399e-17
-1.06561e-17
1.55655e-15
-2.7073e-17
1.95628e-14
-8.59329e-15
2.2856e-14
-1.79542e-14
1.90084e-14
-4.1377e-14
1.29312e-14
-5.24385e-14
2.03317e-15
-1.14933e-14
4.98203e-18
-3.17655e-17
1.46029e-19
-3.24042e-17
-2.55908e-16
-5.05628e-17
-5.53168e-14
-9.60769e-15
-9.98756e-13
-7.98472e-14
-1.62696e-10
-1.21554e-11
-8.18737e-09
-1.81725e-09
-1.24784e-08
-1.16082e-08
-5.24247e-09
-1.18874e-08
-1.15308e-24
-5.88976e-23
-2.0553e-24
7.71638e-23
-5.50713e-23
-6.8069e-24
-1.48523e-21
-7.73111e-22
4.33248e-22
-1.1064e-20
1.99297e-19
-1.2588e-19
5.38559e-18
-3.09417e-18
2.16218e-17
-1.76906e-17
1.80238e-16
-3.011e-17
7.05363e-15
-2.74475e-17
9.52708e-15
-4.61674e-15
1.24161e-14
-2.75847e-14
6.4682e-15
-2.44336e-14
2.4018e-18
-4.82725e-16
-2.6105e-18
-2.95171e-17
-6.47398e-18
-2.91388e-17
-1.12979e-17
-5.90307e-17
-9.52004e-15
-1.13892e-16
-8.80255e-14
-1.39545e-15
-1.19667e-11
-2.78302e-13
-2.19017e-09
-1.72137e-11
-1.28375e-08
-6.03029e-10
-1.26185e-09
-1.60093e-08
-1.33427e-24
-5.16096e-23
-3.29947e-27
5.59668e-23
-1.68648e-23
1.00546e-23
-1.8546e-22
-1.0543e-22
-6.71537e-22
-2.05461e-21
1.96268e-20
-3.83816e-20
1.33278e-18
-1.49768e-18
7.83485e-18
-1.30027e-17
1.10618e-17
-2.76729e-17
6.35599e-18
-2.14912e-17
6.79004e-16
-3.963e-16
6.69449e-16
-5.25434e-15
-7.32035e-17
-8.84091e-18
-6.04856e-18
-3.22983e-17
-7.07212e-18
-2.56037e-17
-1.48006e-17
-1.94443e-17
-3.54873e-17
-4.92073e-17
-6.23753e-17
-1.23303e-16
-1.29432e-15
-2.00266e-16
-2.79084e-13
-5.58871e-16
-1.74834e-11
-9.73602e-15
-6.20232e-10
-2.89082e-13
-7.87115e-12
-1.98602e-09
-1.03411e-24
-4.06009e-23
7.15648e-26
3.59245e-23
-1.07415e-23
1.66606e-23
-2.77531e-23
-9.50068e-24
-3.68062e-22
-2.76476e-22
-1.74733e-20
-9.00259e-21
-2.45995e-19
-4.17391e-19
-3.41953e-19
-4.79124e-18
-3.88531e-19
-1.47509e-17
-2.36536e-18
-1.83294e-17
-1.76957e-16
-6.19833e-18
-8.94962e-19
-5.33923e-18
-4.82924e-18
-4.52976e-18
-8.24063e-18
-8.34555e-18
-5.62818e-18
-1.07579e-17
-1.27585e-17
-2.47994e-18
-5.57424e-17
-6.20903e-18
-1.49124e-16
-7.03305e-17
-2.07579e-16
-1.87726e-16
-4.82931e-16
-3.29084e-16
-9.87627e-15
-3.93832e-16
-2.98404e-13
-8.93741e-16
-1.21208e-14
-8.15949e-12
-6.24549e-25
-2.84931e-23
3.34032e-25
1.99274e-23
-1.21956e-24
1.10108e-23
-3.33625e-24
-3.40202e-25
-1.04428e-22
-2.62598e-23
-9.99733e-21
-1.74797e-21
-3.60942e-19
-8.39006e-20
-2.19478e-18
-1.03696e-18
-3.74543e-18
-3.84895e-18
-2.12462e-18
-6.80698e-18
-1.10012e-18
-6.32427e-18
-1.60888e-18
-4.45325e-18
-2.36892e-18
-3.38806e-18
-3.36555e-18
-2.27521e-18
-8.4655e-19
-9.60105e-19
-1.18989e-18
-2.60252e-19
-1.23614e-17
-1.68434e-19
-1.23705e-16
-1.44757e-18
-3.63934e-16
-2.31328e-17
-6.3018e-16
-1.4158e-16
-7.97554e-16
-2.69341e-16
-1.29724e-15
-4.15609e-16
9.91056e-18
-1.38704e-14
-3.0141e-25
-1.76599e-23
5.74678e-25
9.41724e-24
-1.89548e-27
5.59416e-24
-6.67097e-25
3.24999e-25
-2.2147e-23
-1.65972e-24
-3.14227e-21
-2.74507e-22
-1.17542e-19
-1.24669e-20
-8.26198e-19
-1.48885e-19
-1.93926e-18
-6.57021e-19
-3.13686e-18
-1.69461e-18
-2.35349e-18
-2.09859e-18
-2.15602e-18
-2.27239e-18
-1.29864e-18
-7.17957e-19
-5.92359e-19
-1.35102e-19
-1.66972e-19
-3.06069e-20
-9.25579e-20
-1.55543e-20
-1.65964e-19
-2.0108e-20
-3.35626e-18
-1.99449e-19
-6.40659e-17
-2.04822e-18
-3.72686e-16
-1.67486e-17
-1.10682e-15
-6.26072e-17
-4.93566e-15
-4.2547e-17
1.39454e-15
-2.81486e-14
-1.15635e-25
-9.52778e-24
5.62215e-25
3.69845e-24
1.85129e-25
2.25296e-24
-6.76169e-25
2.08952e-25
-4.13844e-24
-8.09131e-26
-7.16606e-22
-3.2451e-23
-2.23989e-20
-1.42031e-21
-1.66328e-19
-1.73123e-20
-5.65089e-19
-9.23772e-20
-1.62173e-18
-2.51265e-19
-1.63702e-18
-3.70883e-19
-6.25685e-19
-3.211e-19
-1.2681e-19
-1.31026e-19
-2.54596e-20
-2.35108e-20
-9.87017e-21
-2.04671e-21
-1.24188e-20
-5.87632e-22
-3.59136e-20
-2.0747e-21
-4.65584e-19
-2.65774e-20
-6.84218e-18
-2.54881e-19
-8.4404e-17
-2.19019e-18
-5.32243e-16
-7.69829e-18
-2.02624e-15
9.62392e-17
7.97327e-16
-7.92763e-15
-3.38993e-26
-4.38956e-24
3.74937e-25
1.16799e-24
1.95292e-25
6.85728e-25
-5.55987e-26
5.18452e-26
-6.69534e-25
-3.88629e-27
-1.19361e-22
-2.66491e-24
-3.39855e-21
-1.27889e-22
-3.30004e-20
-1.7394e-21
-1.44492e-19
-1.02793e-20
-2.41166e-19
-2.71246e-20
-2.69583e-19
-3.64636e-20
-1.54269e-19
-3.27278e-20
-3.46463e-20
-1.56541e-20
-2.95508e-21
-3.22456e-21
-5.19827e-22
-2.02607e-22
-7.24384e-22
-7.53973e-24
-6.04257e-21
-1.65223e-22
-8.7778e-20
-3.21979e-21
-1.16041e-18
-2.78639e-20
-2.86602e-17
-3.61125e-20
-5.22918e-16
9.26387e-18
-2.57964e-15
2.27778e-16
9.574e-16
-4.91832e-15
-6.77143e-27
-1.68582e-24
1.78255e-25
2.83602e-25
9.43714e-26
1.46522e-25
-5.21757e-27
3.65128e-27
-8.08764e-26
-1.01782e-28
-1.56752e-23
-1.21284e-25
-4.95516e-22
-8.10896e-24
-5.62935e-21
-1.33879e-22
-2.46093e-20
-8.12023e-22
-3.59966e-20
-2.17444e-21
-3.98944e-20
-2.93982e-21
-2.54476e-20
-2.53887e-21
-6.78125e-21
-1.25533e-21
-5.00554e-22
-2.73419e-22
-4.86347e-24
-1.52575e-23
-1.72256e-23
2.02671e-24
-9.56156e-22
-5.93986e-24
-2.32004e-20
-1.76495e-22
-3.03058e-19
2.54591e-21
-5.03241e-18
1.19864e-19
-1.29495e-16
2.62708e-18
-1.22627e-15
6.03907e-17
5.09362e-16
-3.22325e-15
-5.90859e-28
-5.24239e-25
5.99667e-26
4.95868e-26
3.01302e-26
1.9177e-26
-4.30727e-28
-8.41104e-27
-6.47356e-27
4.00228e-30
-1.7122e-24
1.37078e-27
-6.94898e-23
-8.42421e-26
-7.79394e-22
-4.0075e-24
-3.30628e-21
-3.19006e-23
-4.80863e-21
-9.00512e-23
-5.14638e-21
-1.28917e-22
-3.28017e-21
-1.10271e-22
-9.22305e-22
-4.52989e-23
-5.45667e-23
-4.7273e-24
1.05658e-23
1.59731e-24
-3.36712e-23
6.7217e-25
-1.18483e-22
1.09753e-25
-6.62302e-21
6.47802e-23
-1.38084e-19
4.24091e-21
-1.28912e-18
8.96711e-20
-1.1335e-17
8.17828e-19
-1.36733e-16
6.41247e-18
7.64449e-17
-8.60151e-16
1.09332e-28
-1.2748e-25
1.36109e-26
5.59545e-27
6.46819e-27
1.0645e-27
-1.81286e-29
-4.19168e-27
-2.89682e-28
7.72474e-30
-1.34886e-25
5.23473e-28
-8.15074e-24
4.84634e-26
-9.47101e-23
7.24899e-25
-3.43629e-22
2.49594e-24
-4.94587e-22
3.43212e-24
-5.2339e-22
3.11778e-24
-2.96881e-22
2.29094e-24
-4.85182e-23
9.30839e-25
2.20471e-23
1.01447e-24
2.48992e-23
-1.83715e-24
-3.36414e-24
-3.00084e-24
-1.1982e-23
5.56827e-25
-1.22851e-21
2.17742e-23
-4.30375e-20
1.62418e-21
-5.20445e-19
4.22158e-20
-2.85558e-18
4.29218e-19
-1.86808e-17
2.51712e-18
2.12438e-17
-2.09595e-16
3.6649e-29
-2.3267e-26
1.91109e-27
3.15912e-28
8.69826e-28
-4.13811e-28
1.05439e-28
-8.71252e-28
-7.81951e-28
-7.43449e-29
-6.63509e-27
1.80963e-29
-6.37073e-25
4.07314e-27
-7.918e-24
9.40434e-26
-2.50389e-23
4.21154e-25
-3.79163e-23
7.48861e-25
-4.0028e-23
9.19409e-25
-1.91629e-23
5.64588e-25
1.03479e-23
1.65192e-24
2.69004e-23
-2.14807e-24
2.69082e-23
-6.15494e-24
2.19106e-24
-6.98778e-24
-5.78429e-23
-6.58825e-25
-2.02009e-22
4.75883e-24
-9.31993e-21
4.57222e-22
-1.47836e-19
1.27326e-20
-9.47983e-19
1.60191e-19
-5.22519e-18
1.10973e-18
7.75678e-18
-4.59891e-17
3.27719e-30
-3.04237e-27
1.35278e-28
1.98699e-34
5.979e-29
-1.29727e-28
1.20235e-29
-8.16704e-29
-1.12897e-29
-1.18914e-29
-1.52306e-28
1.09579e-31
-2.45304e-26
8.73816e-29
-3.49374e-25
3.19008e-27
-1.15803e-24
1.75067e-26
-1.75098e-24
3.29997e-26
-1.54244e-24
6.48903e-25
2.86176e-24
1.96542e-25
1.06194e-23
-9.92557e-25
1.81834e-23
-3.76351e-24
1.52456e-23
-6.76225e-24
5.06503e-24
-6.06951e-24
-9.94423e-24
-2.20857e-24
-3.45883e-23
1.20534e-24
-1.8765e-21
1.16364e-22
-3.58671e-20
3.57649e-21
-2.69253e-19
4.91424e-20
-1.52914e-18
3.56615e-19
2.40761e-18
-1.13785e-17
2.76273e-36
-2.74317e-28
6.76167e-32
1.21492e-35
1.42088e-31
-1.1544e-31
6.45505e-32
-2.51876e-31
-4.81693e-32
-8.38471e-32
-6.07385e-31
4.93071e-32
-3.22105e-28
2.65596e-29
-8.24875e-27
1.30095e-27
-2.17579e-26
7.91771e-27
3.64481e-26
1.28561e-26
4.59725e-25
-1.94709e-26
2.07302e-24
-2.3433e-25
5.14724e-24
-1.03701e-24
6.81007e-24
-2.59121e-24
5.25337e-24
-3.52596e-24
1.98352e-24
-2.84765e-24
-1.67496e-24
-1.14564e-24
-5.61383e-24
2.57605e-25
-3.71809e-22
2.63985e-23
-8.90603e-21
9.33867e-22
-7.02692e-20
1.37674e-20
-2.86647e-19
8.53349e-20
3.81007e-19
-1.15342e-18
1.83268e-37
-1.81725e-29
1.40499e-34
3.16505e-36
3.42156e-33
-3.59295e-34
5.85489e-32
-7.74816e-33
7.15862e-31
-9.72783e-32
6.13024e-30
-9.43288e-31
4.32494e-29
-6.73568e-30
4.40253e-28
-4.09526e-29
4.60185e-27
-3.69401e-28
3.55716e-26
-3.51129e-27
1.90922e-25
-2.52909e-26
6.64348e-25
-1.29507e-25
1.36273e-24
-4.4009e-25
1.62384e-24
-9.01926e-25
1.1791e-24
-1.09277e-24
4.42324e-25
-8.20377e-25
-2.71498e-25
-3.22644e-25
-8.54194e-25
5.47784e-26
-6.58611e-23
5.23763e-24
-2.0482e-21
2.15434e-22
-1.87211e-20
3.60972e-21
-4.97419e-20
1.90941e-20
4.737e-20
1.96108e-19
3.07368e-38
-9.43554e-31
2.85251e-35
6.97059e-37
1.04462e-33
-1.0429e-34
2.14969e-32
-3.04035e-33
3.09876e-31
-4.54517e-32
3.32691e-30
-5.19249e-31
2.87125e-29
-4.65318e-30
2.21003e-28
-3.47104e-29
1.54676e-27
-2.37007e-28
9.01989e-27
-1.51277e-27
3.93068e-26
-8.21748e-27
1.16752e-25
-3.41022e-26
2.17348e-25
-9.8554e-26
2.41463e-25
-1.81945e-25
1.65562e-25
-2.04073e-25
5.49306e-26
-1.43395e-25
-4.69982e-26
-4.94732e-26
-1.21286e-25
1.27654e-26
-1.08073e-23
1.05334e-24
-5.35496e-22
5.81424e-23
-6.57661e-21
9.95854e-22
-7.47569e-21
3.81964e-21
7.55721e-21
4.79963e-20
-6.08811e-35
-4.02465e-32
5.65606e-36
8.09086e-38
2.20841e-34
-2.98354e-35
4.75333e-33
-8.4191e-34
7.21451e-32
-1.29046e-32
8.21459e-31
-1.54256e-31
7.27394e-30
-1.46103e-30
5.20397e-29
-1.11626e-29
3.08965e-28
-7.09436e-29
1.48835e-27
-3.82782e-28
5.44769e-27
-1.71464e-27
1.40818e-26
-5.96157e-27
2.38241e-26
-1.49219e-26
2.39848e-26
-2.48626e-26
1.50242e-26
-2.51472e-26
3.16405e-27
-1.60331e-26
-8.41446e-27
-3.48468e-27
-1.79376e-26
2.64891e-27
-3.02325e-24
2.36695e-25
-1.56541e-22
1.83198e-23
-1.01371e-21
2.45418e-22
-1.44042e-21
7.32238e-22
3.04462e-21
-1.48589e-21
-8.83962e-36
-1.45561e-33
6.46091e-37
3.67477e-39
2.72501e-35
-5.18102e-36
5.92273e-34
-1.40315e-34
8.99897e-33
-2.10476e-33
1.02832e-31
-2.49034e-32
9.02017e-31
-2.34997e-31
6.15697e-30
-1.77409e-30
3.29291e-29
-1.07235e-29
1.38163e-28
-5.19868e-29
4.47799e-28
-2.02387e-28
1.06332e-27
-6.21355e-28
1.66078e-27
-1.42124e-27
1.46563e-27
-2.17612e-27
8.09051e-28
-1.91528e-27
3.48974e-29
-1.072e-27
-1.22909e-27
-4.7458e-29
-2.43361e-27
4.06319e-28
-5.27804e-25
3.464e-26
-2.78821e-23
2.90466e-24
-1.6107e-22
4.36214e-23
-2.38408e-22
1.50821e-22
9.08434e-22
1.54277e-21
-5.86346e-37
-4.55382e-35
3.14778e-38
2.7864e-41
1.53431e-36
-4.39968e-37
3.1751e-35
-1.12086e-35
4.40295e-34
-1.52102e-34
4.58814e-33
-1.61341e-33
3.76116e-32
-1.37553e-32
2.47754e-31
-9.64791e-32
1.32132e-30
-5.62046e-31
5.66508e-30
-2.71663e-30
1.88705e-29
-1.07763e-29
4.52228e-29
-3.38735e-29
6.83358e-29
-7.80657e-29
5.5445e-29
-1.15352e-28
2.72195e-29
-9.29303e-29
-3.00548e-30
-4.60392e-29
-4.53364e-30
4.91602e-30
-2.28033e-28
4.26673e-29
-5.28244e-26
3.14081e-27
-3.40276e-24
3.34926e-25
-2.32904e-23
6.88328e-24
-3.67716e-23
2.99405e-23
3.21082e-22
2.35905e-22
-2.65358e-38
-1.24687e-36
1.92989e-40
2.03651e-44
1.98201e-38
-6.84954e-39
4.6442e-37
-2.19693e-37
7.02794e-36
-3.11085e-36
7.95093e-35
-3.51799e-35
7.06705e-34
-3.21174e-34
5.06998e-33
-2.42823e-33
2.94782e-32
-1.5367e-32
1.36813e-31
-8.10648e-32
4.81267e-31
-3.48914e-31
1.15364e-30
-1.16039e-30
1.59798e-30
-2.6796e-30
1.25799e-30
-3.63649e-30
5.32865e-31
-2.84957e-30
-3.55032e-31
-1.22202e-30
-4.58772e-31
1.61981e-31
-1.27565e-29
2.73094e-30
-3.19103e-27
1.99726e-28
-3.05028e-25
3.00999e-26
-2.91327e-24
9.6214e-25
-3.50337e-24
5.25974e-24
2.95948e-23
3.22885e-22
-9.37657e-40
-3.00505e-38
-4.30636e-44
-6.36382e-43
1.43877e-40
-6.44375e-41
4.05296e-39
-2.63318e-39
6.94035e-38
-3.94458e-38
8.80862e-37
-4.87427e-37
8.71839e-36
-4.88981e-36
6.94508e-35
-4.09207e-35
4.45814e-34
-2.87931e-34
2.23945e-33
-1.68355e-33
8.22204e-33
-7.90768e-33
1.94284e-32
-2.77198e-32
2.48494e-32
-6.39433e-32
1.91589e-32
-8.13816e-32
6.46355e-33
-6.34176e-32
-1.11298e-32
-2.21504e-32
-1.53073e-32
3.53699e-33
-4.50551e-31
1.59117e-31
-9.63428e-29
9.88258e-30
-1.55856e-26
1.96383e-27
-3.04418e-25
1.06373e-25
-7.03466e-26
7.36137e-25
7.94793e-26
4.94417e-27
-2.7166e-41
-6.38146e-40
-4.76054e-45
-3.62531e-44
7.44145e-43
-4.72452e-43
2.67389e-41
-2.40781e-41
5.29985e-40
-3.81743e-40
7.62392e-39
-5.18644e-39
8.4141e-38
-5.72976e-38
7.39706e-37
-5.31247e-37
5.16684e-36
-4.14772e-36
2.73561e-35
-2.66183e-35
1.01727e-34
-1.3454e-34
2.34762e-34
-4.91267e-34
2.81847e-34
-1.13834e-33
2.07444e-34
-1.40731e-33
4.53343e-35
-1.10779e-33
-2.94309e-34
-2.66201e-34
-3.87805e-34
1.88443e-34
-8.90916e-33
9.43952e-33
-8.33754e-31
5.59508e-31
3.03769e-29
1.0826e-28
7.44316e-27
8.4814e-27
5.37884e-26
6.82483e-26
6.17762e-27
1.44119e-26
-6.55643e-43
-1.19131e-41
-1.70817e-46
-1.34187e-45
3.14889e-45
-2.98826e-45
1.55542e-43
-1.84209e-43
3.70689e-42
-3.08424e-42
5.92575e-41
-4.5878e-41
7.20015e-40
-5.54243e-40
6.91814e-39
-5.64445e-39
5.12148e-38
-4.82599e-38
2.81637e-37
-3.34661e-37
1.05429e-36
-1.79628e-36
2.32935e-36
-6.79611e-36
2.59442e-36
-1.59474e-35
1.76162e-36
-1.97046e-35
6.16068e-38
-1.57765e-35
-4.99484e-36
-7.36467e-37
-1.44539e-36
9.61473e-36
4.37309e-34
5.7606e-34
6.43124e-32
3.48736e-32
1.77854e-29
4.47069e-30
1.8527e-27
4.39999e-28
1.10885e-26
4.23902e-27
1.92281e-28
1.21431e-27
-1.339e-44
-1.94477e-43
-4.12243e-48
-3.84174e-47
1.54801e-47
-1.72918e-47
9.51771e-46
-1.24167e-45
2.59874e-44
-2.18851e-44
4.55435e-43
-3.53221e-43
6.06227e-42
-4.61891e-42
6.25813e-41
-5.09929e-41
4.88709e-40
-4.70408e-40
2.78951e-39
-3.47807e-39
1.05404e-38
-1.96224e-38
2.29622e-38
-7.67848e-38
2.4464e-38
-1.83399e-37
1.48685e-38
-2.30131e-37
-3.9259e-39
-1.87384e-37
-7.40264e-41
8.77094e-38
5.2469e-37
4.41792e-37
6.71245e-35
2.75156e-35
6.70303e-33
1.61657e-33
1.05891e-30
1.16614e-31
1.34699e-28
1.34811e-29
9.88487e-28
1.80885e-28
8.1141e-30
6.67513e-29
-2.27498e-46
-2.75823e-45
-7.80749e-50
-8.73108e-49
9.46412e-50
-9.53586e-50
6.18337e-48
-7.63728e-48
1.85652e-46
-1.41367e-46
3.48164e-45
-2.44657e-45
4.9581e-44
-3.42398e-44
5.48179e-43
-4.04668e-43
4.56382e-42
-3.97679e-42
2.73437e-41
-3.09981e-41
1.07142e-40
-1.82273e-40
2.40887e-40
-7.36637e-40
2.65054e-40
-1.79301e-39
1.65774e-40
-2.30356e-39
-1.48488e-40
-1.88228e-39
-2.11613e-41
1.62294e-40
2.36453e-38
1.49567e-38
3.18078e-36
9.2638e-37
3.13731e-34
5.02861e-35
3.43957e-32
2.90862e-33
5.14747e-30
3.37136e-31
5.1994e-29
6.42237e-30
1.07673e-30
4.34693e-30
-3.24147e-48
-3.37278e-47
-1.14684e-51
-1.62886e-50
6.26675e-52
-5.15886e-52
3.89587e-50
-4.39259e-50
1.23197e-48
-8.52272e-49
2.45191e-47
-1.56327e-47
3.72321e-46
-2.31761e-46
4.37935e-45
-2.89969e-45
3.84613e-44
-3.00179e-44
2.42621e-43