/*--------------------------------*- C++ -*----------------------------------*\
| =========                 |                                                 |
| \\      /  F ield         | OpenFOAM: The Open Source CFD Toolbox           |
|  \\    /   O peration     | Version:  2206                                  |
|   \\  /    A nd           | Website:  www.openfoam.com                      |
|    \\/     M anipulation  |                                                 |
\*---------------------------------------------------------------------------*/
FoamFile
{
    version     2.0;
    format      ascii;
    arch        "LSB;label=32;scalar=64";
    class       volScalarField;
    location    "0.55";
    object      p;
}
// * * * * * * * * * * * * * * * * * * * * * * * * * * * * * * * * * * * * * //

dimensions      [1 -1 -2 0 0 0 0];

internalField   nonuniform List<scalar> 
2268
(
578.783
575.624
576.353
581.399
591.668
604.547
617.076
628.309
639.907
653.726
670.539
690.095
711.943
735.638
760.669
786.329
811.433
833.578
850.939
859.078
850.042
861.526
901.803
519.802
515.894
516.235
521.063
531.246
544.42
557.223
568.591
580.258
594.144
610.894
630.403
652.259
675.956
700.943
726.605
751.972
775.061
793.98
806.226
791.087
789.815
836.966
460.312
455.636
455.296
459.35
469.344
483.054
496.414
508.055
519.855
533.892
550.828
570.504
592.467
616.192
641.064
666.397
691.244
714.524
733.88
748.303
735.184
725.261
774.997
400.982
395.204
393.558
396.34
405.995
420.444
434.723
446.812
458.806
473.046
490.198
510.087
532.24
556.13
581.099
606.404
631.089
654.211
673.554
687.833
683.786
676.228
722.544
342.506
335.017
331.328
332.282
341.378
356.795
372.309
384.965
397.196
411.694
429.084
449.221
471.646
495.825
521.057
546.598
571.553
594.894
614.764
630.282
635.932
638.469
677.849
285.252
276.119
269.203
268.151
276.812
293.164
309.616
322.639
335.049
349.841
367.526
387.946
410.693
435.286
460.94
486.905
512.398
536.364
557.348
574.884
587.598
598.198
633.857
229.547
218.893
207.784
204.719
213.693
230.509
246.82
259.72
272.317
287.441
305.406
326.298
349.514
374.64
400.808
427.32
453.533
478.348
500.616
520.076
536.97
552.608
583.981
175.189
164.089
145.636
138.807
148.965
166.761
182.658
195.26
208.523
224.454
242.123
263.883
287.637
313.568
340.507
367.822
395.07
420.923
444.435
465.552
484.721
503.472
529.656
389.751
388.067
389.804
391.586
361.393
340.213
234.02
190.173
179.287
183.872
189.82
196.232
208.827
228.632
251.78
363.773
751.222
1225.44
1167.25
389.11
386.608
389.703
390.508
268.242
203.946
164.513
159.412
157.995
158.801
161.15
163.554
166.591
171.779
178.753
209.759
483.302
1045.89
1107.9
388.318
384.487
389.081
387.833
213.864
175.97
162.341
158.716
156.3
156.161
157.813
159.76
161.933
164.735
167.192
171.428
244.719
662.433
1020.06
387.625
383.293
388.439
380.208
204.696
168.681
161.529
158.296
155.764
155.745
157.689
159.798
161.959
164.552
167.088
168.395
184.689
329.384
900.349
386.587
382.936
387.596
363.598
206.168
166.925
161.577
157.976
154.992
154.943
157.255
159.588
161.802
164.312
166.747
168.526
166.603
205.692
753.579
387.011
382.999
388.996
350.921
212.579
168.075
161.455
157.698
154.266
154.042
156.605
159.173
161.314
163.46
164.994
165.383
163.071
192.675
586.897
397.527
378.453
413.954
419.019
234.967
170.77
160.91
157.348
153.678
153.158
155.925
158.578
160.262
160.095
156.286
153.574
158.369
175.475
411.193
355.904
353.726
418.126
513.997
260.575
172.497
157.461
155.82
153.367
153.619
156.559
158.394
157.365
153.329
149.481
149.231
153.303
159.376
274.454
93.457
82.7593
57.8691
48.1197
58.7809
75.2869
86.8996
95.7897
108.096
125.225
145.765
166.405
191.292
218.657
246.493
274.884
303.795
331.444
356.994
380.771
402.08
420.368
430.628
19.9699
10.3563
2.83797
2.27825
5.74907
10.813
13.5332
15.5122
19.2499
25.4624
34.147
46.8716
63.738
87.7781
116.579
148.367
181.744
211.975
239.831
266.902
292.151
315.343
340.581
-0.164583
-0.206269
-0.191767
-0.179667
-0.16236
-0.172841
-0.176015
-0.175843
-0.18193
-0.179378
-0.0399299
1.06312
5.11856
12.0264
24.0561
43.2401
66.9853
94.3022
125.316
155.706
182.417
206.429
234.01
-0.279716
-0.302024
-0.306265
-0.339692
-0.361509
-0.350763
-0.360844
-0.363807
-0.355905
-0.333457
-0.328394
-0.378153
-0.447906
-0.424804
0.0897946
2.35226
6.66598
17.6103
36.5712
58.1082
77.9445
99.2189
128.501
-0.417663
-0.426832
-0.445537
-0.462679
-0.461807
-0.473139
-0.485692
-0.494273
-0.50605
-0.526268
-0.531544
-0.565813
-0.586631
-0.562858
-0.485766
-0.432951
-0.475696
-0.318884
1.4054
4.0401
11.5947
24.2958
43.2852
-0.588394
-0.589608
-0.594208
-0.611849
-0.61781
-0.620373
-0.625586
-0.630802
-0.63231
-0.635799
-0.644698
-0.667422
-0.695671
-0.694982
-0.662965
-0.616135
-0.600984
-0.548624
-0.49729
-0.505989
-0.578532
-0.140237
1.46589
-0.725973
-0.732138
-0.736491
-0.746281
-0.755453
-0.761979
-0.769239
-0.777868
-0.78933
-0.797951
-0.803677
-0.808446
-0.812923
-0.80819
-0.790581
-0.75765
-0.743502
-0.719764
-0.71254
-0.702745
-0.734655
-0.727677
-0.773767
-0.879283
-0.882142
-0.886648
-0.894243
-0.898501
-0.903534
-0.908965
-0.91429
-0.918593
-0.920238
-0.924777
-0.931849
-0.937368
-0.938705
-0.927727
-0.908251
-0.890956
-0.873196
-0.853815
-0.830105
-0.866056
-0.947881
-1.01688
-1.02824
-1.02957
-1.03237
-1.03735
-1.04121
-1.04542
-1.05006
-1.05521
-1.06069
-1.06614
-1.06821
-1.06945
-1.06884
-1.06683
-1.06009
-1.04953
-1.04028
-1.03355
-1.03112
-1.03898
-1.08851
-1.16791
-1.19522
-1.17479
-1.17539
-1.1772
-1.1805
-1.18366
-1.18712
-1.1908
-1.19465
-1.19833
-1.20129
-1.20404
-1.20515
-1.2048
-1.20303
-1.19892
-1.19319
-1.18871
-1.18729
-1.19355
-1.2203
-1.28211
-1.38923
-1.43984
-1.31961
-1.31996
-1.32122
-1.32355
-1.32606
-1.32876
-1.3316
-1.33446
-1.33717
-1.33942
-1.34112
-1.34181
-1.3414
-1.34003
-1.33776
-1.33513
-1.33389
-1.336
-1.34624
-1.37561
-1.43481
-1.53464
-1.59548
-1.46327
-1.46363
-1.46456
-1.46626
-1.46818
-1.47035
-1.47253
-1.47466
-1.47662
-1.47824
-1.47936
-1.47982
-1.47957
-1.47877
-1.47765
-1.47672
-1.47671
-1.47983
-1.48923
-1.51279
-1.56058
-1.63214
-1.65851
-1.60627
-1.60662
-1.60736
-1.60866
-1.61013
-1.61192
-1.6136
-1.61524
-1.61671
-1.6179
-1.61871
-1.61908
-1.61901
-1.61863
-1.61809
-1.61791
-1.61863
-1.62157
-1.62945
-1.64755
-1.68282
-1.72963
-1.74363
-1.74883
-1.74912
-1.74978
-1.75081
-1.752
-1.75339
-1.75476
-1.75608
-1.75726
-1.75822
-1.7589
-1.75928
-1.75937
-1.75928
-1.75915
-1.75933
-1.76025
-1.76271
-1.76834
-1.78049
-1.80303
-1.83226
-1.84314
-1.89106
-1.89131
-1.89189
-1.89273
-1.89372
-1.89485
-1.896
-1.89711
-1.89813
-1.89898
-1.89964
-1.9001
-1.90037
-1.90053
-1.90071
-1.90115
-1.90215
-1.9042
-1.90809
-1.91532
-1.92737
-1.94088
-1.94665
-2.03303
-2.03325
-2.03377
-2.03448
-2.03532
-2.03628
-2.03728
-2.03828
-2.03921
-2.04005
-2.04076
-2.04134
-2.04181
-2.04222
-2.04268
-2.04334
-2.04442
-2.04622
-2.04917
-2.05383
-2.06021
-2.06612
-2.06846
-2.17478
-2.17498
-2.17544
-2.17606
-2.17681
-2.17767
-2.17859
-2.17953
-2.18044
-2.18132
-2.18212
-2.18286
-2.18354
-2.18421
-2.18495
-2.18586
-2.18708
-2.18878
-2.19118
-2.19449
-2.19846
-2.20204
-2.20365
-2.31633
-2.31653
-2.31694
-2.31751
-2.3182
-2.319
-2.31988
-2.32081
-2.32176
-2.32271
-2.32364
-2.32456
-2.32548
-2.32643
-2.32747
-2.32866
-2.33011
-2.3319
-2.33412
-2.3368
-2.33969
-2.34245
-2.34418
-2.45771
-2.45789
-2.45828
-2.45881
-2.45948
-2.46026
-2.46114
-2.4621
-2.46311
-2.46416
-2.46525
-2.46638
-2.46755
-2.46879
-2.47016
-2.47169
-2.47345
-2.47549
-2.47786
-2.48047
-2.48344
-2.48607
-2.48838
-2.59891
-2.59909
-2.59946
-2.59998
-2.60064
-2.60143
-2.60234
-2.60334
-2.60444
-2.60562
-2.60688
-2.60822
-2.60966
-2.61122
-2.61293
-2.61483
-2.61698
-2.6194
-2.62213
-2.6252
-2.62824
-2.63139
-2.63451
-2.73994
-2.74012
-2.74048
-2.741
-2.74167
-2.74249
-2.74344
-2.74451
-2.74571
-2.74703
-2.74847
-2.75004
-2.75176
-2.75363
-2.75571
-2.75801
-2.7606
-2.7635
-2.7667
-2.77017
-2.77387
-2.77779
-2.78187
-2.88079
-2.88099
-2.88134
-2.88187
-2.88256
-2.88341
-2.88442
-2.88558
-2.88689
-2.88835
-2.88998
-2.89177
-2.89376
-2.89596
-2.89841
-2.90115
-2.90419
-2.90757
-2.91132
-2.91543
-2.9199
-2.92472
-2.92987
-3.02148
-3.02167
-3.02203
-3.02258
-3.0233
-3.0242
-3.02526
-3.0265
-3.02792
-3.02953
-3.03134
-3.03336
-3.03562
-3.03814
-3.04095
-3.04409
-3.0476
-3.05152
-3.05589
-3.06072
-3.06603
-3.07183
-3.07812
-3.162
-3.16219
-3.16255
-3.16313
-3.16387
-3.16481
-3.16594
-3.16726
-3.16879
-3.17054
-3.17252
-3.17475
-3.17726
-3.18008
-3.18323
-3.18678
-3.19076
-3.19523
-3.20023
-3.20581
-3.212
-3.21883
-3.2263
-3.30234
-3.30252
-3.3029
-3.30349
-3.30426
-3.30524
-3.30642
-3.30782
-3.30945
-3.31132
-3.31346
-3.31588
-3.31862
-3.32171
-3.3252
-3.32913
-3.33356
-3.33855
-3.34418
-3.3505
-3.35757
-3.36545
-3.37415
-3.4425
-3.44267
-3.44305
-3.44366
-3.44446
-3.44547
-3.4467
-3.44817
-3.44988
-3.45186
-3.45413
-3.45672
-3.45966
-3.46299
-3.46676
-3.47104
-3.47588
-3.48136
-3.48757
-3.4946
-3.50253
-3.51145
-3.5214
-3.58246
-3.58263
-3.58302
-3.58363
-3.58445
-3.58549
-3.58676
-3.58827
-3.59005
-3.59212
-3.5945
-3.59722
-3.60032
-3.60386
-3.60787
-3.61243
-3.61763
-3.62353
-3.63026
-3.63792
-3.64664
-3.65653
-3.66772
-3.72222
-3.7224
-3.72277
-3.7234
-3.72422
-3.72528
-3.72657
-3.72812
-3.72995
-3.73207
-3.73453
-3.73735
-3.74058
-3.74426
-3.74846
-3.75324
-3.75871
-3.76495
-3.77209
-3.78028
-3.78966
-3.80043
-3.81275
-3.86177
-3.86197
-3.86231
-3.86295
-3.86377
-3.86483
-3.86614
-3.8677
-3.86955
-3.87171
-3.87421
-3.87709
-3.88039
-3.88416
-3.88848
-3.89341
-3.89905
-3.90552
-3.91295
-3.92151
-3.9314
-3.94284
-3.9561
-4.00111
-4.00132
-4.00163
-4.00228
-4.00309
-4.00414
-4.00544
-4.00701
-4.00886
-4.01102
-4.01352
-4.01641
-4.01973
-4.02354
-4.0279
-4.03289
-4.0386
-4.04517
-4.05274
-4.06148
-4.07164
-4.0835
-4.09737
-4.14022
-4.14045
-4.14073
-4.14139
-4.14217
-4.14322
-4.1445
-4.14604
-4.14786
-4.14999
-4.15246
-4.15532
-4.15861
-4.16238
-4.1667
-4.17165
-4.17733
-4.18386
-4.19138
-4.2001
-4.21027
-4.2222
-4.23622
-4.27914
-4.27938
-4.27964
-4.2803
-4.28103
-4.28205
-4.2833
-4.28479
-4.28656
-4.28863
-4.29104
-4.29382
-4.29701
-4.30069
-4.3049
-4.30971
-4.31523
-4.32157
-4.32888
-4.33733
-4.3472
-4.35882
-4.37268
-4.41784
-4.41807
-4.41832
-4.419
-4.41966
-4.42066
-4.42185
-4.42328
-4.42498
-4.42695
-4.42925
-4.43191
-4.43496
-4.43848
-4.4425
-4.44709
-4.45233
-4.45833
-4.46524
-4.47319
-4.48239
-4.49311
-4.50555
-4.55636
-4.55658
-4.55682
-4.55749
-4.55809
-4.55905
-4.56017
-4.56152
-4.56311
-4.56496
-4.56712
-4.56961
-4.57248
-4.57577
-4.57954
-4.58383
-4.58868
-4.59418
-4.60057
-4.60786
-4.6162
-4.62578
-4.63675
-4.69471
-4.69491
-4.69514
-4.69579
-4.69633
-4.69724
-4.69826
-4.6995
-4.70097
-4.70268
-4.70466
-4.70695
-4.70958
-4.7126
-4.71606
-4.72001
-4.72424
-4.72931
-4.73504
-4.74152
-4.74886
-4.75714
-4.76646
-4.83291
-4.83308
-4.83332
-4.83391
-4.83439
-4.83523
-4.83614
-4.83727
-4.83858
-4.84012
-4.8419
-4.84395
-4.84631
-4.849
-4.85207
-4.85555
-4.85935
-4.86379
-4.86878
-4.87437
-4.88062
-4.88755
-4.89518
-4.97098
-4.97112
-4.97135
-4.97188
-4.9723
-4.97304
-4.97384
-4.97482
-4.97597
-4.97731
-4.97886
-4.98064
-4.98268
-4.98501
-4.98765
-4.99063
-4.99395
-4.99771
-5.00192
-5.0066
-5.01174
-5.01735
-5.02337
-5.10895
-5.10906
-5.10927
-5.10973
-5.11007
-5.11071
-5.11138
-5.11221
-5.11318
-5.1143
-5.1156
-5.11708
-5.11878
-5.12072
-5.12291
-5.12537
-5.12813
-5.13121
-5.13463
-5.13839
-5.14248
-5.14686
-5.15146
-5.24684
-5.24694
-5.2471
-5.24748
-5.24774
-5.24826
-5.24879
-5.24945
-5.25022
-5.25111
-5.25213
-5.25331
-5.25465
-5.25617
-5.25789
-5.25983
-5.26198
-5.26438
-5.26702
-5.2699
-5.27299
-5.27626
-5.27963
-5.38467
-5.38475
-5.38487
-5.38513
-5.38531
-5.38571
-5.38609
-5.38657
-5.38713
-5.38777
-5.38851
-5.38936
-5.39033
-5.39143
-5.39267
-5.39405
-5.3956
-5.39731
-5.39918
-5.4012
-5.40337
-5.40562
-5.40792
-5.52245
-5.52248
-5.52256
-5.52272
-5.52282
-5.52308
-5.5233
-5.52359
-5.52393
-5.52433
-5.52478
-5.52529
-5.52587
-5.52654
-5.52728
-5.52812
-5.52904
-5.53006
-5.53118
-5.53238
-5.53366
-5.53498
-5.53631
-5.66018
-5.66019
-5.66022
-5.66027
-5.66031
-5.6604
-5.66047
-5.66057
-5.66068
-5.66082
-5.66097
-5.66114
-5.66133
-5.66156
-5.6618
-5.66208
-5.66239
-5.66273
-5.6631
-5.66349
-5.66391
-5.66434
-5.66477
427
494.062
514.636
481.984
367.821
397.613
409.724
384.224
263.365
292.922
312.992
289.616
161.21
193.439
221.785
200.619
70.6814
101.732
139.887
144.83
6.5115
19.5811
58.5308
118.655
-0.954503
-0.544512
4.267
57.2149
-1.06576
-0.983895
-0.957784
15.1392
-1.14921
-0.998336
-0.863616
-1.19714
-1.3196
-1.10313
-0.95909
-0.904201
-1.46405
-1.2746
-1.15636
-1.18065
-1.57908
-1.45304
-1.38984
-1.37753
-1.6989
-1.62049
-1.58112
-1.5703
-1.82479
-1.77577
-1.74148
-1.73453
-1.93915
-1.91503
-1.89691
-1.89106
-2.06468
-2.05354
-2.04548
-2.04268
-2.20247
-2.19729
-2.19366
-2.19308
-2.34493
-2.3439
-2.34351
-2.3451
-2.49049
-2.49223
-2.49462
-2.49873
-2.63806
-2.64207
-2.64683
-2.65328
-2.78687
-2.79296
-2.79984
-2.80822
-2.93638
-2.9445
-2.95335
-2.96322
-3.08621
-3.0964
-3.1072
-3.1183
-3.23606
-3.24848
-3.26141
-3.27379
-3.38567
-3.4006
-3.41616
-3.43053
-3.53477
-3.55256
-3.57161
-3.58956
-3.68301
-3.70401
-3.72763
-3.75188
-3.8299
-3.85434
-3.88352
-3.91766
-3.97487
-4.00261
-4.03772
-4.08424
-4.11722
-4.14759
-4.18747
-4.2447
-4.25612
-4.28767
-4.33
-4.38864
-4.39061
-4.42106
-4.46205
-4.52207
-4.52284
-4.5497
-4.58538
-4.63573
-4.65201
-4.67435
-4.70229
-4.738
-4.77916
-4.79658
-4.8163
-4.83758
-4.90527
-4.91828
-4.93161
-4.94444
-5.0311
-5.04049
-5.0493
-5.05623
-5.15721
-5.16379
-5.16937
-5.17273
-5.28374
-5.28824
-5.29162
-5.29303
-5.41067
-5.41356
-5.4155
-5.416
-5.53789
-5.53951
-5.54053
-5.54054
-5.66527
-5.66579
-5.6661
-5.66604
351.971
307.747
288.388
222.788
191.426
148.559
137.206
146.613
152.401
156.467
163.016
161.708
154.788
150.398
148.531
148.091
151.388
152.198
192.252
279.593
190.128
136.228
115.691
101.865
87.8911
59.8698
113.101
143.234
160.634
188.116
163.674
152.06
150.819
149.831
150.782
153.457
152.579
172.854
176.788
120.119
105.215
98.8937
93.9636
88.8089
74.4189
103.71
135.096
150.777
157.243
152.422
150.079
149.573
149.754
151.065
152.835
151.716
182.361
119.787
107.988
98.747
95.7274
95.2965
92.8023
94.0158
112.607
129.007
136.097
129.299
147.421
148.989
145.695
148.277
150.6
152.217
152.476
201.758
114.106
105.993
98.8979
96.6065
98.1749
103.41
109.192
116.82
125.82
127.599
128.724
140.34
146.904
141.053
136.626
129.361
143.433
190.538
280.212
122.873
112.981
105.944
103.172
107.424
114.15
114.866
117.837
124.109
127.611
126.558
128.87
138.515
138.872
113.162
129.663
217.418
338.982
473.799
124.602
127.285
128.367
121.561
118.347
118.321
118.925
121.504
126.531
130.24
127.748
129.842
133.917
134.873
133.202
199.472
350.658
532.156
693.626
85.217
129.817
131.615
126.44
119.778
119.008
121.029
123.427
127.445
133.918
128.626
128.68
130.865
130.052
133.907
214.995
376.763
595.089
765.584
11.3183
81.1928
120.87
125.061
119.871
117.932
115.874
100.224
112.966
128.646
139.764
149.953
158.05
155.502
168.689
179.493
248.748
463.882
645.085
-0.461385
11.2871
35.4833
107.351
95.805
83.2131
94.1341
136.48
241.51
331.076
475.102
426.438
253.996
158.078
138.138
141.498
153.537
222.666
396.817
-1.28624
-0.876914
2.73944
12.4383
23.2303
27.6376
21.0667
34.1179
247.109
502.099
472.458
379.907
212.985
138.659
130.607
135.627
139.387
143.467
264.985
-1.50006
-1.4695
-1.62678
-1.73362
-1.27589
-0.636154
-0.740824
-6.41462
16.8493
119.264
243.928
244.215
169.331
120.84
133.562
137.406
139.556
143.6
202.514
-1.56725
-1.59324
-1.76759
-1.94518
-2.29326
-2.20128
-2.13413
-2.93889
-3.2275
-8.3228
5.33208
93.1338
107.901
99.8009
100.918
109.323
118.994
142.153
178.923
-1.74986
-1.78387
-1.86038
-1.93094
-1.97528
-1.99686
-1.91365
-1.59152
-1.74934
-3.31508
-7.95755
5.23316
36.1428
42.5591
53.2414
82.7134
111.551
144.52
175.029
-1.89987
-1.91726
-1.94533
-1.95882
-1.9236
-1.92157
-2.04289
-2.11164
-2.02807
-1.3788
-1.66601
-6.35475
-7.46026
-5.22507
8.87691
53.9633
109.947
156.284
178.166
-2.0456
-2.05116
-2.05781
-2.05808
-2.04232
-2.04325
-2.19122
-2.49659
-2.6778
-2.70707
-2.49251
-2.38619
-10.2358
-3.29388
3.30321
31.0689
97.8889
155.303
163.09
-2.19529
-2.19796
-2.20066
-2.20337
-2.21444
-2.25486
-2.38357
-2.6853
-3.06392
-3.34608
-3.39294
-2.20817
-5.48063
-6.36277
12.5602
35.4027
94.9401
177.528
170.639
-2.34904
-2.35366
-2.36039
-2.37113
-2.39618
-2.46032
-2.59854
-2.86541
-3.29568
-3.72274
-3.84321
-4.05792
-5.95084
-9.30529
5.80797
26.4208
61.2828
120.013
123.747
-2.50522
-2.51294
-2.52499
-2.54427
-2.5787
-2.64765
-2.78484
-3.035
-3.41371
-3.83456
-3.98618
-3.95527
-4.16827
-4.50011
-1.62944
4.96321
18.0317
49.3841
73.0615
-2.66215
-2.67243
-2.68824
-2.71296
-2.75327
-2.81724
-2.94126
-3.14961
-3.45971
-3.84535
-4.12026
-4.21639
-4.36522
-4.64976
-4.56802
-3.00125
-0.275111
6.21119
41.4657
-2.81857
-2.83015
-2.84745
-2.87359
-2.91363
-2.97704
-3.08306
-3.25216
-3.50384
-3.84985
-4.21529
-4.51477
-4.77525
-5.08377
-5.21154
-4.8753
-3.93953
-2.09155
29.1305
-2.97402
-2.98538
-3.0022
-3.02776
-3.06622
-3.12528
-3.21845
-3.36226
-3.57168
-3.86616
-4.23417
-4.61285
-5.00202
-5.41487
-5.60442
-5.369
-4.74002
-3.39971
11.9956
-3.12893
-3.13842
-3.15331
-3.17628
-3.2121
-3.26732
-3.35167
-3.4767
-3.65099
-3.88203
-4.17768
-4.51608
-4.87404
-5.21979
-5.41616
-5.26376
-4.67532
-3.93747
-1.53393
-3.28327
-3.29126
-3.30211
-3.32042
-3.35334
-3.40799
-3.48948
-3.6009
-3.74259
-3.90876
-4.09449
-4.28533
-4.44483
-4.51905
-4.49127
-4.34592
-3.9973
-3.78349
-3.22222
-3.43951
-3.44518
-3.45104
-3.46203
-3.49125
-3.54973
-3.6389
-3.74638
-3.86067
-3.96923
-4.05259
-4.08223
-4.02347
-3.84059
-3.57087
-3.3215
-3.02784
-3.10844
-1.55629
-3.59985
-3.60388
-3.60269
-3.60404
-3.63069
-3.69863
-3.80503
-3.91934
-4.01376
-4.07644
-4.08867
-4.01471
-3.81677
-3.4775
-3.07033
-2.68889
-2.44872
-2.34575
0.592449
-3.76708
-3.77183
-3.77017
-3.7686
-3.80242
-3.89229
-4.02715
-4.14159
-4.21007
-4.2307
-4.19863
-4.08245
-3.84659
-3.4844
-3.09639
-2.40425
-2.59095
-1.82874
1.50405
-3.94681
-3.9648
-3.97519
-3.99278
-4.04769
-4.16757
-4.33387
-4.43525
-4.45827
-4.42854
-4.36349
-4.23799
-4.03202
-3.72417
-3.64985
-3.14248
-2.29293
-2.0559
-1.1084
-4.13647
-4.17779
-4.21012
-4.25699
-4.33739
-4.49399
-4.68886
-4.77123
-4.72813
-4.64778
-4.55557
-4.42659
-4.26952
-4.02391
-4.08547
-4.1605
-1.91437
-2.19108
-0.511186
-4.32119
-4.38701
-4.4297
-4.49343
-4.59669
-4.78311
-4.98208
-5.03811
-4.95594
-4.85164
-4.73783
-4.59191
-4.45023
-4.2278
-4.19893
-4.18654
-2.31832
-2.52487
-0.631843
-4.48087
-4.54896
-4.60784
-4.67368
-4.78963
-4.98042
-5.16157
-5.19125
-5.10962
-5.01278
-4.88251
-4.70658
-4.54086
-4.28388
-4.0577
-4.39557
-2.76316
-2.85658
-0.849873
-4.60114
-4.6658
-4.72366
-4.78746
-4.90191
-5.08359
-5.24204
-5.25322
-5.20628
-5.12752
-4.98813
-4.79725
-4.56204
-4.2113
-3.72684
-3.97732
-3.37343
-3.17371
0.00536901
-4.69424
-4.74389
-4.79077
-4.8464
-4.9539
-5.14037
-5.25092
-5.27461
-5.26459
-5.20687
-5.07607
-4.88876
-4.62474
-4.15937
-3.46292
-3.644
-2.81723
-2.88234
2.14375
-4.77438
-4.80486
-4.83801
-4.8841
-4.98713
-5.14564
-5.23781
-5.27446
-5.29028
-5.25833
-5.15872
-5.021
-4.8652
-4.52439
-3.78618
-3.39248
-2.41646
-2.25873
3.42184
-4.85788
-4.87333
-4.89369
-4.92747
-5.01459
-5.13753
-5.2121
-5.25382
-5.28609
-5.29153
-5.25988
-5.24186
-5.31019
-5.28245
-4.36888
-3.55559
-2.7287
-1.87457
0.845144
-4.95322
-4.95926
-4.96983
-4.98923
-5.05292
-5.14118
-5.19925
-5.23901
-5.28317
-5.32788
-5.36797
-5.4531
-5.66768
-5.90226
-6.01582
-4.7568
-3.89817
-2.09349
0.00531327
-5.05873
-5.05966
-5.06273
-5.07288
-5.11136
-5.16839
-5.21371
-5.25496
-5.31064
-5.38182
-5.4612
-5.5915
-5.86844
-6.08468
-6.22169
-5.97638
-5.63631
-3.74593
-2.07873
-5.17227
-5.17084
-5.17006
-5.17331
-5.19131
-5.22183
-5.25531
-5.29807
-5.36147
-5.44523
-5.539
-5.65505
-5.86433
-6.05967
-6.15646
-6.13959
-5.97395
-6.32156
-5.91034
-5.29144
-5.2891
-5.2867
-5.28598
-5.29084
-5.30256
-5.32156
-5.35644
-5.41688
-5.4991
-5.59701
-5.69113
-5.82266
-5.93381
-6.00889
-6.0019
-6.00312
-7.99712
-10.7125
-5.41412
-5.41164
-5.40865
-5.4062
-5.40587
-5.40846
-5.41628
-5.43694
-5.48084
-5.54411
-5.6238
-5.69844
-5.76863
-5.81639
-5.84354
-5.57483
-5.81616
-5.30757
4.50906
-5.53904
-5.53706
-5.53448
-5.53168
-5.52959
-5.52917
-5.53213
-5.54174
-5.56414
-5.59832
-5.64071
-5.68722
-5.71296
-5.74912
-5.83673
-5.65622
-6.03948
-4.92677
-1.9584
-5.66537
-5.6645
-5.66326
-5.66182
-5.66051
-5.65985
-5.66088
-5.66481
-5.67223
-5.68157
-5.68921
-5.69735
-5.69182
-5.75969
-5.92421
-6.0667
-6.70943
-7.63146
-19.0913
)
;

boundaryField
{
    leftWall
    {
        type            calculated;
        value           nonuniform List<scalar> 
50
(
578.783
519.802
460.312
400.982
342.506
285.252
229.547
175.189
93.457
19.9699
-0.164583
-0.279716
-0.417663
-0.588394
-0.725973
-0.879283
-1.02824
-1.17479
-1.31961
-1.46327
-1.60627
-1.74883
-1.89106
-2.03303
-2.17478
-2.31633
-2.45771
-2.59891
-2.73994
-2.88079
-3.02148
-3.162
-3.30234
-3.4425
-3.58246
-3.72222
-3.86177
-4.00111
-4.14022
-4.27914
-4.41784
-4.55636
-4.69471
-4.83291
-4.97098
-5.10895
-5.24684
-5.38467
-5.52245
-5.66018
)
;
    }
    rightWall
    {
        type            calculated;
        value           nonuniform List<scalar> 
50
(
1167.25
1107.9
1020.06
900.349
753.579
586.897
411.193
274.454
192.252
172.854
182.361
201.758
280.212
473.799
693.626
765.584
645.085
396.817
264.985
202.514
178.923
175.029
178.166
163.09
170.639
123.747
73.0615
41.4657
29.1305
11.9956
-1.53393
-3.22222
-1.55629
0.592449
1.50405
-1.1084
-0.511186
-0.631843
-0.849873
0.00536901
2.14375
3.42184
0.845144
0.00531327
-2.07873
-5.91034
-10.7125
4.50906
-1.9584
-19.0913
)
;
    }
    lowerWall
    {
        type            calculated;
        value           nonuniform List<scalar> 
62
(
608.212
605.053
605.782
610.828
621.097
633.976
646.506
657.738
669.336
683.155
699.968
719.525
741.372
765.067
790.099
815.758
840.863
863.007
879.363
885.497
877.657
890.924
931.201
901.803
836.966
774.997
722.544
677.849
633.857
583.981
529.656
489.589
556.594
577.195
544.559
389.751
389.11
388.318
387.625
386.587
387.011
397.527
355.904
389.781
388.098
389.834
392.234
374.103
354.544
248.351
204.11
194.004
201.44
209.405
216.717
229.869
250.406
274.331
386.928
774.682
1249.18
1188.16
)
;
    }
    atmosphere
    {
        type            calculated;
        value           nonuniform List<scalar> 
46
(
-5.72904
-5.72904
-5.72904
-5.72904
-5.72904
-5.72904
-5.72904
-5.72904
-5.72904
-5.72904
-5.72904
-5.72904
-5.72904
-5.72904
-5.72904
-5.72904
-5.72904
-5.72904
-5.72904
-5.72904
-5.72904
-5.72904
-5.72904
-5.72904
-5.72904
-5.72907
-5.7291
-5.72907
-5.72904
-5.72904
-5.72904
-5.72904
-5.72904
-5.72904
-5.72904
-5.72951
-5.72943
-5.72912
-5.7816
-5.74133
-5.81064
-5.93217
-5.94242
-6.15439
-7.52009
-112.11
)
;
    }
    defaultFaces
    {
        type            empty;
    }
}


// ************************************************************************* //
