/*--------------------------------*- C++ -*----------------------------------*\
| =========                 |                                                 |
| \\      /  F ield         | OpenFOAM: The Open Source CFD Toolbox           |
|  \\    /   O peration     | Version:  2206                                  |
|   \\  /    A nd           | Website:  www.openfoam.com                      |
|    \\/     M anipulation  |                                                 |
\*---------------------------------------------------------------------------*/
FoamFile
{
    version     2.0;
    format      ascii;
    arch        "LSB;label=32;scalar=64";
    class       volScalarField;
    location    "0.55";
    object      p_rgh;
}
// * * * * * * * * * * * * * * * * * * * * * * * * * * * * * * * * * * * * * //

dimensions      [1 -1 -2 0 0 0 0];

internalField   nonuniform List<scalar> 
2268
(
608.212
605.053
605.782
610.828
621.097
633.976
646.506
657.738
669.336
683.155
699.968
719.525
741.372
765.067
790.099
815.758
840.863
863.007
879.363
885.497
877.657
890.924
931.201
608.09
604.182
604.523
609.351
619.534
632.708
645.512
656.879
668.546
682.432
699.182
718.691
740.548
764.244
789.232
814.893
840.26
863.349
882.107
887.015
871.689
877.468
925.161
607.459
602.783
602.442
606.497
616.491
630.2
643.561
655.202
667.002
681.038
697.974
717.651
739.614
763.339
788.211
813.543
838.391
861.671
881.027
894.68
869.503
865.966
921.988
606.987
601.21
599.564
602.345
612.001
626.45
640.729
652.817
664.811
679.052
696.204
716.092
738.246
762.136
787.105
812.41
837.095
860.217
879.56
893.838
872.438
870.972
928.159
607.37
599.881
596.192
597.146
606.242
621.659
637.173
649.83
662.06
676.559
693.948
714.086
736.511
760.689
785.922
811.462
836.417
859.758
879.628
895.146
897.007
901.81
942.577
608.975
599.842
592.926
591.874
600.535
616.887
633.339
646.362
658.772
673.564
691.249
711.669
734.416
759.009
784.663
810.628
836.121
860.087
881.071
898.607
911.321
921.92
957.548
612.129
601.475
590.365
587.301
596.274
613.089
629.401
642.302
654.899
670.023
687.987
708.88
732.096
757.222
783.39
809.902
836.115
860.929
883.198
902.657
919.552
935.189
966.513
616.629
605.53
587.059
580.205
590.354
608.16
624.077
636.693
649.962
665.895
683.564
705.324
729.077
755.008
781.947
809.262
836.511
862.363
885.876
906.992
926.161
944.913
971.038
389.781
388.098
389.834
392.234
374.103
354.544
248.351
204.11
194.004
201.44
209.405
216.717
229.869
250.406
274.331
386.928
774.682
1249.18
1188.16
389.202
386.698
389.796
397.295
299.154
211.576
167.367
161.636
163.303
166.227
170.017
173.732
179.003
188.948
204.824
249.87
541.37
1120.88
1184.12
388.477
384.645
389.242
397.477
242.4
176.191
162.494
158.869
156.453
156.315
157.969
159.921
162.106
164.934
167.48
172.209
254.327
746.97
1149.96
387.865
383.537
388.681
392.505
217.474
168.902
161.744
158.511
155.979
155.96
157.905
160.016
162.185
164.794
167.368
168.798
185.815
384.525
1082.65
389.39
383.254
387.972
378.232
206.725
167.258
161.853
158.252
155.268
155.22
157.533
159.879
162.112
164.671
167.322
169.267
167.373
246.724
988.533
395.814
387.326
397.97
360.91
213.415
168.468
161.793
158.036
154.604
154.381
156.946
159.56
161.788
164.724
168.59
167.201
163.962
228.76
874.712
413.403
435.538
483.639
421.407
236.034
171.365
161.343
157.747
154.077
153.562
156.33
159.058
163.858
169.408
165.893
155.495
159.053
203.238
752.247
537.078
597.847
754.13
747.345
299.093
173.698
158.121
156.322
153.834
154.087
157.044
161.242
172.265
169.887
152.34
149.916
154
183.194
668.544
616.258
566.76
476.606
417.346
440.605
497.407
553.214
589.007
620.919
652.281
678.756
699.872
724.759
752.125
779.96
808.351
837.262
864.911
890.461
914.238
935.547
953.835
964.079
229.62
120.842
32.7262
27.0344
68.7735
126.739
157.506
180.462
223.621
294.409
388.195
494.428
610.386
723.384
775.241
807.028
840.406
870.637
898.492
925.563
950.812
974.004
999.243
0.619273
0.577588
0.592123
0.604189
0.621496
0.611015
0.607841
0.608014
0.601927
0.604482
0.74401
21.8106
79.8921
170.748
324.985
518.935
767.203
878.158
909.172
939.562
966.273
990.285
1017.87
0.629335
0.607027
0.602871
0.569359
0.547541
0.558287
0.548207
0.545244
0.553146
0.575595
0.580659
0.530902
0.461164
0.484637
8.70598
43.0045
110.634
282.409
522.403
809.315
980.15
1008.27
1037.55
0.616582
0.607413
0.588709
0.571566
0.572438
0.561107
0.548554
0.539972
0.528198
0.507982
0.502706
0.468437
0.447619
0.471409
0.548922
0.603554
0.564415
0.722003
33.3837
79.6497
221.411
406.072
658.639
0.571046
0.569831
0.565232
0.547591
0.54163
0.539066
0.533854
0.528637
0.527153
0.52375
0.514815
0.492023
0.463774
0.527671
0.65387
0.701016
0.63115
0.617906
0.669595
0.661989
0.603518
11.5746
41.5527
0.558661
0.552496
0.548143
0.538353
0.529181
0.522655
0.515395
0.506766
0.495338
0.486842
0.481107
0.476194
0.471717
0.532337
0.571696
0.542059
0.541132
0.572515
0.641316
0.760325
0.689975
0.664927
0.616449
0.530546
0.527686
0.52318
0.515586
0.511328
0.506294
0.500863
0.495538
0.491243
0.489719
0.485225
0.478115
0.472501
0.476826
0.482102
0.501578
0.518872
0.536633
0.593484
0.713731
0.906427
0.82569
0.650987
0.506787
0.505455
0.502651
0.497671
0.493813
0.489599
0.484961
0.479811
0.474335
0.468896
0.466953
0.465837
0.467621
0.468193
0.474934
0.485491
0.494747
0.501474
0.566583
0.80345
0.842555
0.769687
0.736055
0.485424
0.484829
0.483015
0.479715
0.476562
0.473096
0.469414
0.465563
0.461886
0.45893
0.456182
0.455133
0.455789
0.457261
0.461295
0.46703
0.47151
0.477233
0.515426
0.695561
0.802964
0.716294
0.65189
0.465798
0.465453
0.464196
0.461864
0.459357
0.456653
0.453817
0.450951
0.448244
0.445995
0.444294
0.443603
0.444016
0.445385
0.447653
0.45028
0.451525
0.457234
0.439178
0.418798
0.654595
0.746004
0.493998
0.447332
0.446976
0.44605
0.444348
0.44243
0.440256
0.438077
0.435942
0.433987
0.432378
0.431256
0.430797
0.431039
0.431835
0.432961
0.433888
0.433894
0.430779
0.421381
0.397832
0.513879
0.810713
0.784341
0.429534
0.429185
0.42844
0.427143
0.425675
0.423879
0.422199
0.42056
0.419089
0.417902
0.417093
0.416727
0.416799
0.41717
0.417715
0.417895
0.417171
0.414227
0.406351
0.38825
0.356913
0.676388
0.859299
0.412169
0.411874
0.411221
0.410189
0.408993
0.407608
0.406234
0.404915
0.403737
0.402778
0.402098
0.401724
0.401623
0.401718
0.401845
0.401662
0.400747
0.398291
0.392658
0.380509
0.357964
0.328733
0.339551
0.395132
0.394882
0.394299
0.393458
0.392466
0.391343
0.390192
0.389077
0.388063
0.387208
0.386547
0.38609
0.38582
0.385658
0.385477
0.385045
0.384042
0.381989
0.378099
0.370869
0.358817
0.345309
0.339543
0.378357
0.378135
0.37762
0.376909
0.376062
0.375104
0.374101
0.373107
0.372172
0.371336
0.370625
0.370046
0.369579
0.369166
0.368708
0.368047
0.366964
0.36516
0.362213
0.357557
0.35118
0.345262
0.342924
0.361802
0.361597
0.361141
0.360518
0.359766
0.358908
0.35799
0.357054
0.356135
0.355264
0.354457
0.353721
0.353037
0.352365
0.35163
0.350723
0.349504
0.347803
0.3454
0.342092
0.338124
0.334537
0.332928
0.345442
0.345248
0.344836
0.344268
0.343574
0.34277
0.341889
0.340962
0.340014
0.339066
0.33813
0.337209
0.33629
0.33534
0.334305
0.33311
0.331666
0.329878
0.327651
0.324977
0.322087
0.319319
0.31759
0.329262
0.329076
0.328693
0.328156
0.32749
0.326705
0.325826
0.324872
0.323861
0.322807
0.321718
0.320592
0.319419
0.318174
0.316812
0.31528
0.313519
0.311475
0.30911
0.306499
0.303524
0.300895
0.298589
0.313255
0.313072
0.312708
0.312183
0.311523
0.310732
0.309827
0.30882
0.307723
0.306544
0.305284
0.30394
0.3025
0.300944
0.299234
0.29733
0.295185
0.292767
0.29003
0.286959
0.28392
0.280777
0.277649
0.29742
0.297235
0.296881
0.296358
0.295686
0.294869
0.293919
0.292844
0.291645
0.290326
0.288885
0.287315
0.285602
0.283724
0.281651
0.279348
0.276759
0.273861
0.270663
0.267184
0.26349
0.259572
0.25549
0.281761
0.281564
0.281214
0.28068
0.27999
0.27914
0.278134
0.276976
0.275666
0.274202
0.272576
0.270778
0.268791
0.266588
0.264138
0.261404
0.258365
0.254984
0.251236
0.247122
0.242656
0.237831
0.232681
0.266265
0.266072
0.265714
0.265162
0.264444
0.263551
0.262486
0.261244
0.259823
0.258214
0.256406
0.254383
0.252125
0.249608
0.246799
0.243655
0.240147
0.236226
0.231861
0.227029
0.22172
0.215914
0.20963
0.250941
0.250755
0.250387
0.249815
0.249067
0.24813
0.247004
0.245681
0.244152
0.242405
0.240424
0.238191
0.235681
0.232865
0.229707
0.22616
0.222181
0.217716
0.212715
0.207135
0.200943
0.19411
0.186639
0.235796
0.235616
0.235239
0.234647
0.233871
0.232894
0.231711
0.230313
0.228685
0.226812
0.224675
0.222251
0.219511
0.216421
0.212939
0.209011
0.20458
0.199584
0.19396
0.187639
0.180562
0.172681
0.163981
0.220832
0.22066
0.220276
0.219668
0.21887
0.217858
0.216627
0.215163
0.21345
0.211469
0.209197
0.206608
0.203669
0.200338
0.196567
0.192294
0.187452
0.181967
0.175757
0.168732
0.160801
0.151885
0.141934
0.206062
0.205892
0.205509
0.20489
0.204075
0.203037
0.201768
0.200252
0.198472
0.196405
0.194026
0.191304
0.1882
0.18467
0.180656
0.176091
0.170899
0.16499
0.158264
0.150605
0.141889
0.131992
0.12081
0.1915
0.191316
0.190946
0.190321
0.189498
0.188442
0.187148
0.185598
0.183772
0.181645
0.179189
0.176369
0.173143
0.169462
0.165264
0.160475
0.15501
0.148766
0.141624
0.133441
0.124056
0.113292
0.10097
0.177144
0.176947
0.176599
0.175967
0.175145
0.174083
0.172779
0.171213
0.169363
0.167204
0.164705
0.161828
0.158529
0.154754
0.150439
0.145506
0.13986
0.133391
0.125962
0.117404
0.107518
0.0960744
0.0828143
0.163003
0.16279
0.162475
0.161831
0.161023
0.159965
0.158664
0.157101
0.155253
0.153092
0.150587
0.147697
0.144377
0.140572
0.136213
0.131223
0.125504
0.118936
0.111373
0.102626
0.0924637
0.0806088
0.0667424
0.149079
0.148858
0.148572
0.147909
0.147131
0.146086
0.144806
0.143266
0.141443
0.139313
0.136839
0.133982
0.130696
0.126925
0.122602
0.11765
0.111971
0.105446
0.0979193
0.0891991
0.0790325
0.0671059
0.0530802
0.135361
0.135121
0.134857
0.134193
0.13347
0.132445
0.131202
0.129704
0.127933
0.125863
0.123459
0.120682
0.117484
0.113811
0.109602
0.104783
0.0992655
0.092928
0.0856224
0.0771628
0.0673015
0.0556759
0.0418194
0.121849
0.121619
0.121368
0.120696
0.120031
0.119031
0.117844
0.116409
0.114716
0.112737
0.11044
0.107785
0.104727
0.101216
0.0971939
0.0926007
0.0873614
0.0813598
0.0744475
0.0664982
0.0573041
0.0465846
0.0341441
0.108527
0.108305
0.108068
0.107399
0.106796
0.105834
0.104721
0.103371
0.10178
0.0999224
0.0977666
0.095276
0.0924071
0.0891139
0.0853483
0.0810547
0.0762087
0.0707015
0.0643162
0.057029
0.0486839
0.0391071
0.0281371
0.0953724
0.0951686
0.0949396
0.0942909
0.0937521
0.0928422
0.0918217
0.090576
0.0891106
0.0874012
0.0854191
0.0831302
0.0804972
0.0774778
0.0740218
0.0700671
0.0658376
0.0607705
0.0550412
0.0485582
0.0412215
0.0329367
0.0236185
0.0823643
0.0821965
0.0819589
0.0813614
0.0808838
0.0800455
0.0791327
0.0780095
0.0766908
0.0751542
0.0733752
0.0713245
0.0689703
0.0662767
0.0632077
0.0597285
0.0559224
0.0514889
0.0464994
0.0409037
0.0346548
0.0277223
0.0200992
0.0694914
0.0693511
0.0691206
0.0685853
0.0681747
0.0674251
0.0666323
0.0656484
0.0644957
0.0631553
0.0616067
0.0598259
0.0577856
0.0554576
0.0528165
0.0498393
0.0465175
0.0427592
0.0385489
0.0338747
0.0287271
0.0231193
0.0170979
0.0567187
0.0566004
0.056394
0.0559327
0.055591
0.0549508
0.0542861
0.0534573
0.0524889
0.0513651
0.0500695
0.0485826
0.0468825
0.0449471
0.0427565
0.0402937
0.0375376
0.0344576
0.0310355
0.0272737
0.023184
0.0188033
0.0142018
0.0440165
0.043919
0.0437605
0.0433771
0.0431203
0.0425947
0.0420713
0.0414106
0.0406413
0.0397498
0.0387242
0.0375492
0.0362084
0.0346853
0.0329646
0.031033
0.0288774
0.026482
0.0238419
0.0209638
0.0178678
0.0145988
0.0112277
0.0313789
0.0313078
0.0311874
0.0309224
0.0307434
0.0303429
0.0299684
0.0294859
0.0289272
0.028281
0.0275388
0.0266898
0.0257217
0.0246238
0.0233866
0.0220002
0.0204558
0.0187484
0.0168772
0.0148504
0.0126885
0.0104301
0.00813481
0.0188024
0.0187657
0.0186842
0.0185237
0.0184267
0.0181701
0.0179482
0.0176538
0.0173146
0.0169227
0.0164731
0.0159597
0.0153748
0.0147115
0.0139664
0.0131327
0.0122053
0.0111851
0.0100691
0.00886696
0.00759265
0.00627101
0.00493965
0.00626035
0.00625291
0.00622051
0.00617247
0.00613332
0.00604085
0.00597461
0.00587265
0.00575935
0.00562703
0.0054767
0.00530322
0.00510929
0.00488489
0.00463857
0.00435888
0.00404993
0.00371125
0.00334303
0.0029486
0.00253286
0.00210406
0.00167527
960.393
1026.98
1047.78
1015.26
1026.47
1056.27
1068.38
1042.88
1047.22
1076.77
1096.84
1073.47
1070.25
1102.48
1130.83
1028.96
907.116
1084.01
1174.04
958.817
143.053
374.669
1096.18
967.095
0.431051
0.852435
266.401
1029.4
0.450119
0.527369
0.559227
645.709
0.762595
0.641817
0.76589
0.44816
0.768742
0.673389
0.799586
0.841024
0.422946
0.609049
0.998624
0.69221
0.837221
0.91703
0.967588
0.533091
0.900342
0.616686
0.454998
0.465506
0.397872
0.393145
0.419524
0.426474
0.347045
0.371166
0.389286
0.395136
0.3467
0.357843
0.365919
0.368714
0.334118
0.339301
0.342936
0.343515
0.316849
0.317881
0.318273
0.316687
0.296482
0.294736
0.292346
0.288271
0.274102
0.27009
0.265336
0.258902
0.250492
0.244395
0.237521
0.229147
0.226173
0.21805
0.209204
0.199333
0.20154
0.191344
0.180548
0.169444
0.176885
0.164459
0.151532
0.139152
0.152465
0.137535
0.121975
0.107603
0.128558
0.110767
0.0917162
0.0737675
0.10552
0.0845188
0.0608945
0.036642
0.0838173
0.0593823
0.0302035
-0.00393775
0.064045
0.0363035
0.0011933
-0.0453228
0.0468889
0.0165183
-0.023357
-0.0805877
0.0331813
0.00162832
-0.0406983
-0.0993405
0.0238915
-0.00656519
-0.047556
-0.107577
0.0168538
-0.0100053
-0.0456919
-0.0960365
0.0128732
-0.00946376
-0.0374049
-0.0731148
0.0109226
-0.00650182
-0.0262165
-0.0475006
0.010009
-0.00300436
-0.0163389
-0.0291622
0.00936566
-1.90814e-05
-0.00883175
-0.0157627
0.00845246
0.00186975
-0.00370337
-0.00706549
0.00711526
0.00262362
-0.000758484
-0.00217154
0.00538291
0.00249818
0.000549256
5.38361e-05
0.00336278
0.00173327
0.000719484
0.000708718
0.00117018
0.000657661
0.000339904
0.000406481
885.299
840.937
792.335
723.22
663.087
445.392
153.889
147.676
153.077
157.053
164.461
189.68
182.738
156.089
149.345
148.918
152.215
208.095
668.617
938.205
742.555
322.643
124.219
114.583
203.36
163.512
130.259
144.73
161.844
248.341
221.791
159.832
151.813
150.82
151.787
154.56
409.701
778.094
743.132
176.288
108.04
101.289
96.4752
103.065
162.409
125.411
137.092
152.773
259.217
201.931
151.338
150.789
150.962
152.386
156.171
546.763
906.841
295.488
111.264
101.525
98.505
98.0742
100.176
114.928
127.173
131.88
140.354
247.635
218.579
150.457
150.477
157.631
152.905
157.02
630.304
1044.16
186.401
109.308
102.136
99.7667
105.194
115.721
118.38
130.21
134.199
131.272
235.312
259.962
157.896
146.76
445.311
471.3
433.684
921.762
1241.59
185.714
117.605
111.191
114.487
118.483
122.707
116.851
124.506
129.219
130.072
128.302
148.198
174.7
174.731
700.951
1158.69
1256.67
1412.79
1551.82
651.225
132.321
133.155
134.13
130.453
120.018
120.632
123.303
128.642
132.475
129.68
132.275
138.095
141.059
639.491
1385.44
1544.73
1726.58
1888.05
1000.36
422.759
136.579
132.508
123.583
120.87
122.891
125.3
134.378
169.351
180.694
198.897
224.234
246.763
914.973
1511.47
1686
1905.82
2076.41
718.155
786.216
517.935
127.695
121.907
119.959
237.539
721.442
1158.2
1134.09
981.513
1131.73
1194.63
1193.21
1155.4
933.654
1168.08
1831.72
2072.21
32.056
441.378
555.435
629.316
799.623
1064.04
1244.79
1298.71
1404.6
1494.16
1627.64
1572.95
1288.12
851.885
212.11
167.265
284.158
1373.93
1938.4
0.500705
2.90009
136.476
375.375
704.488
854.29
747.333
714.451
1136.96
1026.34
848.666
899.331
735.9
198.705
158.317
163.336
172.582
1403.31
1919.2
0.410645
0.442635
0.309982
12.1327
52.7572
52.5569
18.6622
31.874
116.999
781.408
1876.26
1964.66
1903.27
1185.28
258.581
167.059
240.593
1607.64
1971.58
0.46856
0.442709
0.269472
0.105713
-0.155068
0.0919694
0.352345
1.14001
5.88199
182.65
863.441
1896.68
1955.46
1947.36
1744.04
1089.66
1246.45
1910.56
2063.9
0.411144
0.377144
0.300751
0.231508
0.19445
0.195805
0.347788
1.03197
2.95678
8.96852
12.1977
1202.22
1997.32
2005.24
2019.66
2049.59
2080.32
2112.55
2062.55
0.386325
0.368938
0.340872
0.327488
0.363785
0.370024
0.264508
0.281513
0.852344
2.9235
13.5449
1092.11
2066.13
2067.42
1945.71
2136.79
2192.77
2238.59
2163.72
0.365792
0.360239
0.353585
0.353807
0.370151
0.370276
0.225474
-0.0634034
-0.150537
0.13795
12.4071
990.537
2064.97
1710.23
635.608
1417.6
2294.77
2351.36
2356.68
0.341296
0.33863
0.335932
0.333838
0.324818
0.284504
0.156269
-0.143021
-0.506517
-0.654245
-0.478162
157.474
582.749
878.076
472.953
523.645
1493.33
2212.42
2300.32
0.312778
0.308177
0.301418
0.290799
0.267274
0.205144
0.0685177
-0.198178
-0.580217
-0.427856
-0.786455
-1.16763
-1.88698
146.928
492.808
446.417
479.544
872.256
924.718
0.281869
0.274146
0.262092
0.242762
0.208368
0.141524
0.0074972
-0.241777
-0.607813
-0.839833
-0.828311
-1.11814
-1.29658
13.3407
108.147
102.212
275.124
673.739
831.471
0.250132
0.239856
0.224051
0.199268
0.158907
0.0950394
-0.0265599
-0.233667
-0.544492
-0.931009
-1.16617
-1.25615
-1.40064
-1.64907
-1.46949
0.492244
12.2173
419.507
1143.86
0.218808
0.20727
0.18997
0.163799
0.123742
0.0604134
-0.0455976
-0.214623
-0.465012
-0.811966
-1.17731
-1.11262
-0.451568
-1.31379
-1.68114
-1.22859
-0.0700398
68.2989
1179.44
0.18853
0.177174
0.160356
0.134798
0.0963391
0.0375906
-0.0557086
-0.199506
-0.40802
-0.703301
-1.07127
-1.44305
-0.0856328
-0.0626704
-1.345
-1.03687
-0.395595
42.854
1207.23
0.158817
0.149329
0.134442
0.11147
0.0756531
0.0207349
-0.0637081
-0.188741
-0.363023
-0.594013
-0.889618
-1.22796
-0.850056
0.422972
0.912255
1.04632
0.258224
4.45373
801.679
0.129673
0.121686
0.110841
0.0925272
0.0596369
0.00497787
-0.0754242
-0.184108
-0.328111
-0.495483
-0.681173
-0.871986
-1.03118
-0.719095
1.98448
2.22348
1.41823
1.97606
397.593
0.0986293
0.092962
0.0871017
0.0761081
0.0469024
-0.0115634
-0.0979482
-0.203564
-0.318781
-0.430632
-0.514035
-0.543654
-0.484845
-0.301181
0.257509
2.7923
2.84025
3.1258
630.989
0.0634782
0.0594524
0.0606363
0.0593051
0.0327329
-0.0326899
-0.139116
-0.251294
-0.349778
-0.41262
-0.42486
-0.350886
-0.152938
0.186482
0.59445
1.00017
44.7305
16.1671
690.741
0.0214404
0.0167026
0.0230343
0.0966744
0.312903
0.386309
0.0302645
-0.331824
-0.394115
-0.414758
-0.405934
-0.293402
-0.0574556
0.30482
0.848768
2.19469
92.6395
21.3954
643.452
-0.0330884
-0.0510712
0.0819342
0.421096
0.651182
0.534801
0.367403
-0.161057
-0.484423
-0.492098
-0.448936
-0.323539
-0.117583
0.19028
0.430205
55.18
96.9388
33.061
132.602
-0.0975555
-0.136317
0.0775793
0.0664988
-0.125492
0.322643
0.16394
-0.105332
-0.597112
-0.573362
-0.49131
-0.386642
-0.229851
0.016712
-0.0449723
112.865
101.104
33.5848
334.081
-0.157081
-0.212911
-0.240616
-0.329319
-0.432568
-0.481004
0.0188738
-0.345407
-0.687741
-0.493616
-0.525643
-0.42698
-0.285308
-0.0597242
-0.0336331
117.217
37.4597
34.513
537.668
-0.191402
-0.258748
-0.318536
-0.384373
-0.500327
-0.691078
-0.0463614
-0.61989
-0.714528
-0.467472
-0.515921
-0.416424
-0.250734
0.00710051
0.232448
114.343
48.7556
51.5464
554.677
-0.186639
-0.251299
-0.309158
-0.372967
-0.487416
-0.662825
-0.470484
-0.787577
-0.683694
-0.449149
-0.359173
-0.381908
-0.146695
0.204042
0.688504
90.3241
148.013
95.443
572.016
-0.154547
-0.204197
-0.251076
-0.306705
-0.40878
-0.588509
-0.698448
-0.704657
-0.474235
-0.395734
-0.265027
-0.303283
-0.0841814
0.381186
1.07764
125.922
161.165
108.198
590.326
-0.109497
-0.139971
-0.173128
-0.219098
-0.300817
-0.453984
-0.558911
-0.512247
-0.346355
-0.314437
-0.214902
-0.153104
-0.199423
0.141392
40.7767
164.919
165.854
99.9761
564.061
-0.0677992
-0.0832538
-0.103607
-0.136975
-0.196758
-0.315023
-0.405032
-0.34318
-0.209657
-0.214888
-0.187722
-0.433415
-0.482018
6.14287
119.612
169.231
170.343
95.0052
243.962
-0.0379446
-0.0439811
-0.0545531
-0.0737687
-0.118655
-0.192625
-0.263357
-0.246956
-0.073989
-0.119112
-0.298225
-0.535988
-0.721846
1.03044
5.55151
105.802
173.405
88.1628
289.836
-0.0182604
-0.0191931
-0.0222558
-0.0324067
-0.0634017
-0.0950935
-0.138291
-0.17507
-0.148617
-0.160108
-0.418259
-0.550612
-0.79392
-0.726011
-1.13513
-0.890827
57.4793
74.9884
503.97
-0.00660433
-0.00517223
-0.00439516
-0.00764311
-0.0245776
-0.0287399
-0.0533585
-0.116483
-0.194632
-0.277398
-0.373217
-0.489283
-0.642423
0.600999
-0.439887
-0.939889
8.45928
63.9667
907.875
-0.000583516
0.00175461
0.00415779
0.0048837
2.72909e-05
-0.00317489
0.00558429
-0.0474161
-0.125362
-0.208139
-0.306076
-0.400189
-0.531688
0.872862
0.0117602
-0.699129
1.26983
105.631
1022.91
0.00193182
0.00441174
0.00740004
0.00985292
0.0101836
0.00774933
0.00672337
-0.00580421
-0.0616278
-0.127985
-0.207674
-0.282317
-0.352495
-0.00575252
-0.310633
-0.158762
-0.400108
59.532
1062.33
0.00220547
0.00418805
0.00677057
0.00957149
0.0116608
0.0120831
0.00912106
0.000205704
-0.0188815
-0.0562569
-0.0993899
-0.0690797
-0.0258164
-0.206377
-0.295469
-0.114971
-0.498234
0.614475
901.449
0.0010691
0.00194597
0.00318652
0.00462034
0.00593743
0.0065972
0.00556132
0.00163033
-0.00532397
-0.0147428
-0.0226878
0.0210865
0.0100891
-0.0927474
-0.257768
-0.40026
-1.04298
-1.96502
91.7938
)
;

boundaryField
{
    leftWall
    {
        type            fixedFluxPressure;
        gradient        uniform 0;
        value           nonuniform List<scalar> 
50
(
608.212
608.09
607.459
606.987
607.37
608.975
612.129
616.629
616.258
229.62
0.619273
0.629335
0.616582
0.571046
0.558661
0.530546
0.506787
0.485424
0.465798
0.447332
0.429534
0.412169
0.395132
0.378357
0.361802
0.345442
0.329262
0.313255
0.29742
0.281761
0.266265
0.250941
0.235796
0.220832
0.206062
0.1915
0.177144
0.163003
0.149079
0.135361
0.121849
0.108527
0.0953724
0.0823643
0.0694914
0.0567187
0.0440165
0.0313789
0.0188024
0.00626035
)
;
    }
    rightWall
    {
        type            fixedFluxPressure;
        gradient        uniform 0;
        value           nonuniform List<scalar> 
50
(
1188.16
1184.12
1149.96
1082.65
988.533
874.712
752.247
668.544
668.617
778.094
906.841
1044.16
1241.59
1551.82
1888.05
2076.41
2072.21
1938.4
1919.2
1971.58
2063.9
2062.55
2163.72
2356.68
2300.32
924.718
831.471
1143.86
1179.44
1207.23
801.679
397.593
630.989
690.741
643.452
132.602
334.081
537.668
554.677
572.016
590.326
564.061
243.962
289.836
503.97
907.875
1022.91
1062.33
901.449
91.7938
)
;
    }
    lowerWall
    {
        type            fixedFluxPressure;
        gradient        uniform 0;
        value           nonuniform List<scalar> 
62
(
608.212
605.053
605.782
610.828
621.097
633.976
646.506
657.738
669.336
683.155
699.968
719.525
741.372
765.067
790.099
815.758
840.863
863.007
879.363
885.497
877.657
890.924
931.201
931.201
925.161
921.988
928.159
942.577
957.548
966.513
971.038
960.393
1026.98
1047.78
1015.26
389.781
389.202
388.477
387.865
389.39
395.814
413.403
537.078
389.781
388.098
389.834
392.234
374.103
354.544
248.351
204.11
194.004
201.44
209.405
216.717
229.869
250.406
274.331
386.928
774.682
1249.18
1188.16
)
;
    }
    atmosphere
    {
        type            totalPressure;
        rho             rho;
        psi             none;
        gamma           1;
        p0              uniform 0;
        value           nonuniform List<scalar> 
46
(
0
0
0
0
0
0
0
0
0
0
0
0
0
0
0
0
0
0
0
0
0
0
0
0
-7.87849e-08
-2.95963e-05
-6.42039e-05
-2.92331e-05
0
0
0
0
0
0
0
0
0
0
0
-0.0122861
-0.0815982
-0.203133
-0.213382
-0.425355
-1.79105
0
)
;
    }
    defaultFaces
    {
        type            empty;
    }
}


// ************************************************************************* //
