/*--------------------------------*- C++ -*----------------------------------*\
| =========                 |                                                 |
| \\      /  F ield         | OpenFOAM: The Open Source CFD Toolbox           |
|  \\    /   O peration     | Version:  2206                                  |
|   \\  /    A nd           | Website:  www.openfoam.com                      |
|    \\/     M anipulation  |                                                 |
\*---------------------------------------------------------------------------*/
FoamFile
{
    version     2.0;
    format      ascii;
    arch        "LSB;label=32;scalar=64";
    class       surfaceScalarField;
    location    "0.55";
    object      phi;
}
// * * * * * * * * * * * * * * * * * * * * * * * * * * * * * * * * * * * * * //

dimensions      [0 3 -1 0 0 0 0];

oriented        oriented;

internalField   nonuniform List<scalar> 
4432
(
-3.50247e-06
3.50247e-06
-5.61224e-06
2.10977e-06
-4.91133e-06
-7.00914e-07
-2.32363e-06
-2.58769e-06
1.7361e-06
-4.05973e-06
6.54844e-06
-4.81235e-06
1.11061e-05
-4.55765e-06
1.46227e-05
-3.51658e-06
1.68479e-05
-2.22522e-06
1.79136e-05
-1.06572e-06
1.80268e-05
-1.1318e-07
1.73339e-05
6.92927e-07
1.59578e-05
1.37611e-06
1.39266e-05
2.03117e-06
1.10819e-05
2.84469e-06
7.093e-06
3.98891e-06
1.74427e-06
5.34873e-06
-4.26751e-06
6.01177e-06
-8.71206e-06
4.44455e-06
-1.37832e-05
5.07115e-06
-2.06135e-05
6.83028e-06
-1.67767e-05
-3.83678e-06
-1.67767e-05
-3.911e-06
7.41348e-06
-5.30303e-06
3.50179e-06
-4.32129e-06
-1.68266e-06
-1.82358e-06
-5.0854e-06
2.05548e-06
-7.93879e-06
6.79868e-06
-9.55555e-06
1.13337e-05
-9.09265e-06
1.4809e-05
-6.99186e-06
1.69816e-05
-4.39787e-06
1.80322e-05
-2.11634e-06
1.82997e-05
-3.80681e-07
1.80761e-05
9.16589e-07
1.75296e-05
1.92257e-06
1.67424e-05
2.81843e-06
1.57187e-05
3.86832e-06
1.42011e-05
5.5065e-06
1.14796e-05
8.07025e-06
6.40352e-06
1.10878e-05
-1.15319e-06
1.20013e-05
-9.99029e-06
1.39082e-05
-1.50055e-05
1.18455e-05
-1.11238e-05
-7.7185e-06
-2.79005e-05
-3.10973e-06
1.05232e-05
-4.07785e-06
4.46991e-06
-3.25378e-06
-2.50673e-06
-1.21146e-06
-7.12773e-06
2.21356e-06
-1.13638e-05
6.78216e-06
-1.41241e-05
1.12778e-05
-1.35883e-05
1.46766e-05
-1.03907e-05
1.67178e-05
-6.43906e-06
1.76495e-05
-3.04803e-06
1.78006e-05
-5.31771e-07
1.74274e-05
1.28978e-06
1.67069e-05
2.64304e-06
1.57948e-05
3.73051e-06
1.48694e-05
4.79373e-06
1.41782e-05
6.19775e-06
1.38092e-05
8.43922e-06
1.26595e-05
1.22375e-05
8.66561e-06
1.59952e-05
2.32224e-06
2.02516e-05
-3.96478e-06
1.81325e-05
-3.45902e-06
-8.22428e-06
-3.13595e-05
-1.94006e-06
1.24633e-05
-2.3213e-06
4.85115e-06
-1.65732e-06
-3.1707e-06
-1.07157e-07
-8.6779e-06
2.76094e-06
-1.42319e-05
6.96524e-06
-1.83284e-05
1.12105e-05
-1.78336e-05
1.4388e-05
-1.35681e-05
1.62396e-05
-8.29068e-06
1.70473e-05
-3.85573e-06
1.71605e-05
-6.44964e-07
1.68224e-05
1.6279e-06
1.61824e-05
3.28306e-06
1.53457e-05
4.56721e-06
1.44222e-05
5.7172e-06
1.36136e-05
7.0063e-06
1.3362e-05
8.69084e-06
1.3947e-05
1.16525e-05
1.42243e-05
1.57179e-05
1.32291e-05
2.12468e-05
1.05174e-05
2.08442e-05
5.77768e-06
-3.48454e-06
-2.55818e-05
-3.95964e-07
1.28592e-05
2.84668e-07
4.17051e-06
1.1679e-06
-4.05393e-06
2.66349e-06
-1.01735e-05
5.29783e-06
-1.68663e-05
8.69183e-06
-2.17224e-05
1.1953e-05
-2.10947e-05
1.43132e-05
-1.59284e-05
1.56616e-05
-9.63908e-06
1.62675e-05
-4.46157e-06
1.6375e-05
-7.52481e-07
1.61324e-05
1.87046e-06
1.56527e-05
3.76277e-06
1.50209e-05
5.19903e-06
1.43126e-05
6.42547e-06
1.36396e-05
7.6793e-06
1.32441e-05
9.08641e-06
1.37394e-05
1.11571e-05
1.54605e-05
1.39968e-05
1.79601e-05
1.87472e-05
1.83068e-05
2.04975e-05
1.16857e-05
3.13652e-06
-1.38961e-05
1.81133e-06
1.10479e-05
4.16964e-06
1.8122e-06
6.30314e-06
-6.18743e-06
8.70801e-06
-1.25784e-05
1.11752e-05
-1.93334e-05
1.30287e-05
-2.35759e-05
1.42887e-05
-2.23547e-05
1.50281e-05
-1.66678e-05
1.53617e-05
-9.97269e-06
1.55028e-05
-4.60264e-06
1.5538e-05
-7.87732e-07
1.54196e-05
1.98892e-06
1.51314e-05
4.05093e-06
1.47222e-05
5.60827e-06
1.42401e-05
6.90753e-06
1.3792e-05
8.12738e-06
1.35566e-05
9.3218e-06
1.38221e-05
1.08916e-05
1.51071e-05
1.27119e-05
1.81652e-05
1.56891e-05
2.00987e-05
1.85641e-05
1.40337e-05
9.2015e-06
1.37581e-07
4.3104e-06
6.7375e-06
9.27246e-06
-3.14986e-06
1.40017e-05
-1.09167e-05
1.78786e-05
-1.64552e-05
1.96468e-05
-2.11016e-05
1.9104e-05
-2.30332e-05
1.77591e-05
-2.10098e-05
1.66055e-05
-1.55142e-05
1.57695e-05
-9.13671e-06
1.52497e-05
-4.08279e-06
1.49452e-05
-4.83264e-07
1.48342e-05
2.09996e-06
1.46803e-05
4.20479e-06
1.44896e-05
5.79901e-06
1.42219e-05
7.17525e-06
1.39553e-05
8.39393e-06
1.39172e-05
9.35987e-06
1.42338e-05
1.0575e-05
1.49463e-05
1.19994e-05
1.70456e-05
1.35898e-05
1.90812e-05
1.65285e-05
1.50512e-05
1.32315e-05
1.51888e-05
6.69305e-06
4.44498e-08
1.52714e-05
-1.17283e-05
2.31068e-05
-1.87521e-05
2.72818e-05
-2.06302e-05
2.68618e-05
-2.06816e-05
2.35515e-05
-1.97229e-05
2.02077e-05
-1.7666e-05
1.79755e-05
-1.3282e-05
1.66344e-05
-7.79563e-06
1.58911e-05
-3.33944e-06
1.53556e-05
5.22084e-08
1.49064e-05
2.54913e-06
1.45594e-05
4.5518e-06
1.43403e-05
6.0181e-06
1.4142e-05
7.37358e-06
1.40118e-05
8.52413e-06
1.41977e-05
9.17395e-06
1.47125e-05
1.00602e-05
1.53232e-05
1.13887e-05
1.6501e-05
1.2412e-05
1.77776e-05
1.52519e-05
1.48062e-05
1.62028e-05
2.99951e-05
0.000116609
-0.000116609
5.57253e-05
6.08838e-05
-1.10257e-05
6.6751e-05
-5.99913e-05
4.89655e-05
-0.000133314
7.33223e-05
-0.000179846
4.65326e-05
-0.000202735
2.28889e-05
-0.000201174
-1.56123e-06
-0.00019385
-7.32364e-06
-0.000188309
-5.541e-06
-0.000182743
-5.56611e-06
-0.000176296
-6.4466e-06
-0.000168235
-8.06116e-06
-0.000157041
-1.11944e-05
-0.000141819
-1.52216e-05
-0.000123394
-1.84253e-05
-8.80925e-05
-3.53015e-05
-1.86597e-05
-6.94328e-05
-1.86597e-05
8.56563e-05
-0.000202265
3.8101e-05
0.000108439
-3.81094e-05
0.000142961
-0.000137693
0.000148549
-0.000252085
0.000187715
-0.00030146
9.59071e-05
-0.000297309
1.87382e-05
-0.000281777
-1.70933e-05
-0.000266949
-2.21516e-05
-0.00024951
-2.29804e-05
-0.000236107
-1.89688e-05
-0.000224431
-1.8123e-05
-0.000213872
-1.86199e-05
-0.000201744
-2.33226e-05
-0.000181502
-3.5463e-05
-0.00015533
-4.45973e-05
-0.000113657
-7.69753e-05
-3.94857e-05
-0.000143604
-5.81453e-05
2.91861e-05
-0.000231451
3.33096e-06
0.000134294
-3.04182e-05
0.00017671
-0.00012161
0.000239741
-0.000254162
0.000320266
-0.000290547
0.000132292
-0.000330646
5.88375e-05
-0.0003674
1.96603e-05
-0.000383853
-5.69804e-06
-0.000365578
-4.12555e-05
-0.000320614
-6.39324e-05
-0.000275453
-6.32843e-05
-0.000241688
-5.2384e-05
-0.000220055
-4.49557e-05
-0.000205428
-5.00897e-05
-0.000188435
-6.15905e-05
-0.000137705
-0.000127706
-5.20876e-05
-0.000229221
-0.000110233
-9.44244e-06
-0.000222008
-9.91458e-06
0.000134766
2.26839e-05
0.000144112
-6.9461e-05
0.000331886
-0.000143867
0.000394672
-0.000211835
0.00020026
-0.000235103
8.21049e-05
-0.000276042
6.06003e-05
-0.00030064
1.88992e-05
-0.000291889
-5.00061e-05
-0.00025502
-0.000100802
-0.000216568
-0.000101736
-0.000173937
-9.5014e-05
-0.000129373
-8.95202e-05
-0.000101586
-7.78776e-05
-0.00012942
-3.37566e-05
-0.000129177
-0.000127948
-5.1744e-05
-0.000306654
-0.000161977
-4.72093e-05
-0.000174799
1.44459e-05
7.31107e-05
7.25421e-05
8.60158e-05
4.235e-05
0.000362079
4.53044e-05
0.000391717
-2.05387e-05
0.000266103
-0.000103487
0.000165053
-0.000154442
0.000111556
-0.000194219
5.86759e-05
-0.000189059
-5.51664e-05
-0.000146181
-0.000143679
-0.000104199
-0.000143719
-5.98814e-05
-0.000139331
-1.39314e-06
-0.000148009
4.36355e-05
-0.000122906
2.34561e-05
-1.35772e-05
-7.73582e-05
-2.71336e-05
-4.41282e-05
-0.000339884
-0.000206105
-0.00011239
-6.24088e-05
-7.04524e-05
3.11727e-05
-7.41608e-06
2.29795e-05
8.30088e-05
0.000271654
0.000167789
0.000306937
0.000138053
0.000295839
4.00075e-05
0.000263099
-4.5258e-05
0.000196821
-9.66071e-05
0.000110025
-0.000102484
-4.92897e-05
-5.92451e-05
-0.000186917
-9.40266e-06
-0.000193561
4.71026e-05
-0.000195837
0.000100541
-0.000201447
0.00013584
-0.000158205
0.000154229
-3.1966e-05
-8.3988e-06
0.000135494
-3.37374e-05
-0.000314545
-0.000239843
-7.81679e-05
1.57592e-05
-3.55091e-05
-1.14861e-05
-6.47394e-07
-1.18822e-05
0.000171859
9.91468e-05
0.00029669
0.000182106
0.000341871
0.000250658
0.000276521
0.000328448
0.000131067
0.000342275
1.85263e-05
0.000222566
-3.40445e-06
-2.73591e-05
2.02904e-05
-0.000210613
5.95793e-05
-0.00023285
9.60953e-05
-0.000232353
0.000130383
-0.000235734
0.000152256
-0.000180079
0.000135294
-1.50043e-05
2.65159e-05
0.000244272
-2.36234e-05
-0.000264406
-0.000263466
4.10407e-05
-2.52815e-05
5.84421e-05
-2.88874e-05
6.24751e-05
-1.59153e-05
0.000118548
4.30741e-05
0.00020639
9.42643e-05
0.000302357
0.000154691
0.000343668
0.000287138
0.000290746
0.000395196
0.000172352
0.000340961
7.80041e-05
6.69893e-05
7.60869e-05
-0.000208695
8.70508e-05
-0.000243814
9.83813e-05
-0.000243683
9.87491e-05
-0.000236102
8.30816e-05
-0.000164411
5.32653e-05
1.48122e-05
2.99604e-05
0.000267577
-1.41694e-05
-0.000220276
-0.000277636
2.1592e-05
-2.15475e-05
4.87126e-05
-3.88489e-05
6.37877e-05
-3.38272e-05
6.16044e-05
-1.8447e-05
5.19627e-05
-1.10399e-05
4.22379e-05
-9.99803e-06
3.53006e-05
-1.07288e-05
3.20714e-05
-1.00528e-05
3.18262e-05
-7.55046e-06
3.28031e-05
-4.31634e-06
3.40466e-05
-1.19129e-06
3.45976e-05
1.9981e-06
3.42983e-05
4.85108e-06
3.353e-05
6.78641e-06
3.21732e-05
8.73038e-06
3.08207e-05
9.87666e-06
3.08332e-05
9.16147e-06
3.19512e-05
8.94215e-06
3.35989e-05
9.74107e-06
3.60395e-05
9.97136e-06
4.02623e-05
1.10291e-05
4.63929e-05
1.00722e-05
2.0631e-05
5.57569e-05
3.04398e-05
-5.19873e-05
5.04646e-05
-5.88737e-05
3.09056e-05
-1.42681e-05
3.52996e-06
8.92866e-06
-2.36595e-06
-5.14395e-06
-3.49644e-06
-8.86753e-06
-5.38126e-06
-8.84396e-06
-4.28159e-06
-1.11524e-05
1.66429e-06
-1.34963e-05
9.94285e-06
-1.25949e-05
2.02124e-05
-1.14608e-05
3.05427e-05
-8.33227e-06
3.59529e-05
-5.59085e-07
3.73665e-05
5.37278e-06
3.52829e-05
1.0814e-05
3.24035e-05
1.27561e-05
3.2499e-05
9.06594e-06
3.35107e-05
7.93041e-06
3.50028e-05
8.24901e-06
3.79774e-05
6.99676e-06
4.25495e-05
6.45693e-06
4.81109e-05
4.51086e-06
8.39357e-06
6.03483e-05
4.18473e-06
-5.61721e-05
-2.20812e-05
-3.26077e-05
-5.30004e-05
1.66511e-05
-6.27258e-05
1.8654e-05
-6.5518e-05
-2.3517e-06
-8.05876e-05
6.20203e-06
-0.000100499
1.10676e-05
-0.000115443
3.79114e-06
-0.000124405
-4.53398e-06
-0.000116843
-2.01566e-05
-9.33224e-05
-3.49815e-05
-4.32962e-05
-5.83584e-05
-9.06354e-06
-3.47918e-05
8.91648e-06
-1.26072e-05
1.95145e-05
2.16002e-07
2.88708e-05
3.39983e-06
3.71921e-05
7.44624e-07
3.88069e-05
6.31556e-06
3.73181e-05
9.73781e-06
3.79705e-05
6.34442e-06
4.02234e-05
4.20394e-06
4.26813e-05
2.05304e-06
-1.2235e-06
5.22983e-05
-2.57117e-05
-3.04604e-05
-4.40963e-05
-1.4223e-05
-4.32889e-05
1.58437e-05
-2.79821e-05
3.34723e-06
-2.39577e-05
-6.37607e-06
-2.66088e-05
8.85312e-06
-2.84146e-05
1.28734e-05
-3.2433e-05
7.80961e-06
-4.16903e-05
4.72346e-06
-6.14987e-05
-3.48116e-07
-9.06575e-05
-5.82265e-06
-0.000126503
-2.2513e-05
-0.000134824
-2.64705e-05
-0.000117118
-3.03129e-05
-8.06789e-05
-3.62234e-05
-4.09558e-05
-3.63233e-05
-1.47709e-05
-2.54403e-05
8.21969e-06
-1.6675e-05
2.40828e-05
-6.12526e-06
3.8231e-05
-7.80383e-06
4.49562e-05
-2.52126e-06
4.69677e-05
4.15999e-08
-5.30235e-06
5.10465e-05
-2.25437e-05
-7.91666e-06
-2.05723e-05
-1.61944e-05
-7.78073e-06
3.05203e-06
-4.21871e-06
-2.14811e-07
-9.75058e-06
-8.44199e-07
-7.72778e-06
6.83033e-06
-2.68271e-06
7.8284e-06
1.13375e-06
3.99323e-06
5.12906e-06
7.28233e-07
4.79726e-06
-1.62372e-08
-8.03611e-06
7.0108e-06
-3.96218e-05
9.07278e-06
-6.17694e-05
-4.32276e-06
-7.21836e-05
-1.98987e-05
-7.40342e-05
-3.43728e-05
-7.69803e-05
-3.33771e-05
-7.57581e-05
-2.66624e-05
-6.84638e-05
-2.39693e-05
-3.02608e-05
-4.43282e-05
-1.55097e-05
-2.2555e-05
1.85729e-06
-1.98882e-05
1.22086e-05
-1.03097e-05
-1.78108e-05
2.47171e-05
-8.35441e-06
4.37734e-07
-1.01737e-05
-1.43752e-05
-7.21049e-06
8.87442e-08
-7.90215e-06
4.76821e-07
-1.00805e-05
1.33414e-06
-9.12201e-06
5.87186e-06
-8.82287e-06
7.52929e-06
-1.01805e-05
5.35087e-06
-9.20802e-06
-2.44152e-07
-5.28305e-06
-3.94113e-06
4.40724e-06
-2.67941e-06
8.47395e-06
5.00614e-06
-2.11133e-06
6.26256e-06
-8.88482e-06
-1.31252e-05
-9.03317e-06
-3.42244e-05
-8.13639e-06
-3.42738e-05
-1.25682e-05
-2.22306e-05
-1.48441e-05
-2.16934e-05
-3.38653e-05
-2.5307e-05
-6.18963e-05
5.47599e-06
-8.79648e-05
6.18019e-06
-8.75903e-05
-1.06843e-05
-2.75518e-05
-7.78493e-05
-5.82281e-06
6.26052e-06
-7.81445e-06
-1.23836e-05
-5.85501e-06
-1.87073e-06
-5.59322e-06
2.14996e-07
-6.37915e-06
2.12005e-06
-5.37411e-06
4.86683e-06
-4.16171e-06
6.31693e-06
-3.9679e-06
5.15711e-06
-5.95807e-06
1.74608e-06
-7.58805e-06
-2.3111e-06
-7.74414e-06
-2.52325e-06
-3.62878e-06
8.90817e-07
1.47968e-06
1.1541e-06
4.21986e-06
-1.58654e-05
4.37695e-07
-3.04423e-05
-9.35553e-07
-3.29006e-05
3.44508e-06
-2.66112e-05
9.62987e-06
-2.78782e-05
1.68929e-05
-3.25701e-05
3.67362e-05
-1.43675e-05
4.88428e-05
-5.92653e-06
2.96645e-05
8.494e-06
2.03664e-05
-1.82537e-05
-4.08555e-06
1.0346e-05
-5.36659e-06
-1.11026e-05
-4.64242e-06
-2.59493e-06
-4.5966e-06
1.69168e-07
-4.245e-06
1.76845e-06
-3.25665e-06
3.87852e-06
-2.51673e-06
5.57705e-06
-2.84811e-06
5.48855e-06
-3.77278e-06
2.67081e-06
-4.72949e-06
-1.35432e-06
-2.95317e-06
-4.29953e-06
3.15266e-06
-5.21499e-06
1.11821e-05
-6.87531e-06
1.26213e-05
-1.73046e-05
7.99087e-06
-2.58118e-05
4.20509e-06
-2.91148e-05
5.94517e-06
-2.83513e-05
9.47169e-06
-3.14047e-05
2.05318e-05
-4.36304e-05
5.20997e-05
-4.59355e-05
8.87543e-05
-4.25813e-05
0.000116744
-1.94959e-05
2.72498e-05
0.000109861
-2.71147e-06
1.30575e-05
-3.67844e-06
-1.01356e-05
-3.23901e-06
-3.03437e-06
-2.97902e-06
-9.0807e-08
-2.42309e-06
1.21255e-06
-1.18915e-06
2.64464e-06
3.45353e-07
4.04262e-06
1.44311e-06
4.39088e-06
1.39781e-06
2.7162e-06
8.24306e-07
-7.80733e-07
1.30078e-06
-4.77595e-06
4.41749e-06
-8.33168e-06
9.55567e-06
-1.20135e-05
1.10492e-05
-1.8798e-05
9.74485e-06
-2.45075e-05
8.67551e-06
-2.80454e-05
1.09891e-05
-3.06649e-05
1.61601e-05
-3.65758e-05
2.42533e-05
-5.17237e-05
4.32144e-05
-6.48967e-05
6.56132e-05
-6.49802e-05
9.25528e-05
-4.64355e-05
5.88636e-06
0.000113916
-1.41818e-06
1.44757e-05
-2.22653e-06
-9.32728e-06
-2.09636e-06
-3.16452e-06
-1.77964e-06
-4.0749e-07
-1.10405e-06
5.37017e-07
1.54405e-07
1.38625e-06
1.93041e-06
2.2667e-06
3.78686e-06
2.53452e-06
5.17322e-06
1.32995e-06
5.91276e-06
-1.52018e-06
6.49401e-06
-5.35713e-06
7.72571e-06
-9.56333e-06
9.44229e-06
-1.373e-05
9.41752e-06
-1.87732e-05
8.093e-06
-2.31829e-05
6.77205e-06
-2.67244e-05
7.49973e-06
-3.13926e-05
1.08021e-05
-3.98783e-05
1.39248e-05
-5.48466e-05
2.0643e-05
-7.1615e-05
3.17418e-05
-7.60792e-05
4.60104e-05
-6.07042e-05
-1.08806e-05
6.27774e-05
-5.23074e-07
1.49987e-05
-1.22977e-06
-8.62053e-06
-1.23977e-06
-3.15448e-06
-9.59945e-07
-6.87265e-07
-3.53679e-07
-6.91888e-08
7.09694e-07
3.22951e-07
2.31978e-06
6.56703e-07
4.26625e-06
5.88154e-07
6.03579e-06
-4.39485e-07
7.24505e-06
-2.72934e-06
7.88038e-06
-5.99238e-06
8.08276e-06
-9.76562e-06
7.96081e-06
-1.3608e-05
6.90666e-06
-1.7719e-05
5.30028e-06
-2.15765e-05
3.96871e-06
-2.53928e-05
3.4599e-06
-3.08838e-05
3.42782e-06
-3.98463e-05
1.29631e-06
-5.27152e-05
-4.12309e-06
-6.61958e-05
-8.51287e-06
-7.16895e-05
-1.03599e-05
-5.88573e-05
-2.00703e-05
-1.17017e-06
2.83715e-08
1.49704e-05
-5.96288e-07
-7.99581e-06
-6.8973e-07
-3.06099e-06
-4.84053e-07
-8.92893e-07
-1.89284e-08
-5.34264e-07
7.60341e-07
-4.56261e-07
1.93105e-06
-5.13937e-07
3.41938e-06
-9.00083e-07
4.87618e-06
-1.89619e-06
5.89905e-06
-3.75211e-06
6.26795e-06
-6.36116e-06
5.95304e-06
-9.4506e-06
5.04055e-06
-1.26953e-05
3.49649e-06
-1.61748e-05
1.72349e-06
-1.98034e-05
4.45655e-08
-2.37139e-05
-2.08612e-06
-2.87532e-05
-5.7138e-06
-3.62187e-05
-1.21326e-05
-4.62965e-05
-2.269e-05
-5.56385e-05
-3.5024e-05
-5.93556e-05
-4.48419e-05
-4.90395e-05
-1.91166e-05
-4.57956e-05
2.88479e-07
1.46819e-05
-2.28169e-07
-7.47911e-06
-3.79668e-07
-2.90944e-06
-2.63253e-07
-1.00928e-06
4.31199e-08
-8.40608e-07
5.42679e-07
-9.55786e-07
1.2542e-06
-1.22541e-06
2.13788e-06
-1.7837e-06
3.00747e-06
-2.7657e-06
3.54749e-06
-4.29203e-06
3.54033e-06
-6.3539e-06
2.91304e-06
-8.8232e-06
1.75039e-06
-1.15326e-05
9.18268e-08
-1.45162e-05
-1.97518e-06
-1.77364e-05
-4.38385e-06
-2.13053e-05
-7.70757e-06
-2.54296e-05
-1.31763e-05
-3.07501e-05
-2.18956e-05
-3.75773e-05
-3.33977e-05
-4.41365e-05
-4.66289e-05
-4.61245e-05
-5.72964e-05
-3.8372e-05
-1.73319e-05
-5.90812e-05
3.67797e-07
1.43142e-05
-5.29748e-08
-7.05829e-06
-2.45519e-07
-2.71687e-06
-2.20848e-07
-1.03394e-06
-5.91508e-08
-1.0023e-06
2.02591e-07
-1.21752e-06
5.50964e-07
-1.57377e-06
9.43219e-07
-2.17592e-06
1.27092e-06
-3.09333e-06
1.35679e-06
-4.37783e-06
1.03265e-06
-6.02969e-06
2.17533e-07
-8.00802e-06
-1.09072e-06
-1.02243e-05
-2.92323e-06
-1.26837e-05
-5.30419e-06
-1.53555e-05
-8.34483e-06
-1.82647e-05
-1.24184e-05
-2.1356e-05
-1.8461e-05
-2.47076e-05
-2.75536e-05
-2.84848e-05
-3.97005e-05
-3.19897e-05
-5.32689e-05
-3.25563e-05
-6.57324e-05
-2.59085e-05
-1.14058e-05
-7.16585e-05
3.52469e-07
1.39617e-05
-9.33984e-09
-6.69644e-06
-2.38697e-07
-2.4875e-06
-2.98769e-07
-9.73874e-07
-2.68019e-07
-1.03308e-06
-1.88921e-07
-1.29664e-06
-9.28085e-08
-1.66989e-06
-2.98944e-08
-2.23881e-06
-7.14394e-08
-3.05174e-06
-3.21748e-07
-4.12748e-06
-8.85754e-07
-5.46565e-06
-1.8496e-06
-7.04417e-06
-3.25266e-06
-8.82133e-06
-5.17984e-06
-1.07566e-05
-7.73457e-06
-1.28008e-05
-1.10796e-05
-1.49197e-05
-1.53741e-05
-1.70616e-05
-2.09994e-05
-1.90824e-05
-2.87731e-05
-2.07111e-05
-3.93474e-05
-2.14155e-05
-5.20362e-05
-1.98675e-05
-6.38151e-05
-1.41297e-05
-4.37153e-06
-7.08494e-05
2.96925e-07
1.36648e-05
-4.62502e-08
-6.35324e-06
-3.11142e-07
-2.22261e-06
-4.45521e-07
-8.39519e-07
-5.26973e-07
-9.51663e-07
-5.94019e-07
-1.22963e-06
-6.76991e-07
-1.58694e-06
-8.23206e-07
-2.09259e-06
-1.09326e-06
-2.78166e-06
-1.55631e-06
-3.66442e-06
-2.28511e-06
-4.73688e-06
-3.35482e-06
-5.97454e-06
-4.82783e-06
-7.34846e-06
-6.77668e-06
-8.80791e-06
-9.28444e-06
-1.02932e-05
-1.24772e-05
-1.1727e-05
-1.6523e-05
-1.30158e-05
-2.16156e-05
-1.39898e-05
-2.79667e-05
-1.436e-05
-3.57227e-05
-1.36595e-05
-4.4468e-05
-1.11222e-05
-5.25666e-05
-6.03113e-06
9.32742e-07
-5.7871e-05
2.27991e-07
1.34369e-05
-1.25103e-07
-6.00015e-06
-4.26011e-07
-1.92173e-06
-6.2423e-07
-6.41344e-07
-7.99356e-07
-7.76597e-07
-9.84621e-07
-1.04443e-06
-1.20426e-06
-1.36733e-06
-1.49732e-06
-1.79953e-06
-1.91477e-06
-2.36421e-06
-2.5128e-06
-3.06643e-06
-3.35263e-06
-3.89713e-06
-4.4934e-06
-4.83391e-06
-5.99614e-06
-5.8459e-06
-7.92266e-06
-6.88156e-06
-1.03356e-05
-7.88038e-06
-1.33094e-05
-8.75333e-06
-1.69492e-05
-9.37598e-06
-2.13649e-05
-9.57416e-06
-2.65833e-05
-9.1417e-06
-3.24581e-05
-7.78473e-06
-3.85183e-05
-5.06217e-06
-4.38527e-05
-6.96846e-07
4.95759e-06
-4.78776e-05
1.6119e-07
1.32757e-05
-2.20252e-07
-5.61875e-06
-5.56296e-07
-1.58574e-06
-8.08418e-07
-3.89294e-07
-1.05889e-06
-5.26212e-07
-1.33705e-06
-7.66335e-07
-1.66214e-06
-1.04228e-06
-2.06458e-06
-1.39709e-06
-2.58446e-06
-1.84434e-06
-3.26989e-06
-2.38105e-06
-4.17029e-06
-2.99684e-06
-5.33442e-06
-3.66994e-06
-6.81326e-06
-4.36725e-06
-8.65324e-06
-5.04175e-06
-1.0904e-05
-5.62974e-06
-1.36098e-05
-6.04756e-06
-1.6806e-05
-6.17977e-06
-2.05062e-05
-5.87403e-06
-2.46941e-05
-4.95381e-06
-2.92443e-05
-3.23465e-06
-3.37527e-05
-5.53795e-07
-3.75584e-05
3.10871e-06
7.73215e-06
-4.03331e-05
1.03131e-07
1.31725e-05
-3.1468e-07
-5.20103e-06
-6.8294e-07
-1.21758e-06
-9.7977e-07
-9.2565e-08
-1.28857e-06
-2.17507e-07
-1.63545e-06
-4.19538e-07
-2.03629e-06
-6.41475e-07
-2.51533e-06
-9.18051e-07
-3.10477e-06
-1.25494e-06
-3.83935e-06
-1.64654e-06
-4.76043e-06
-2.07586e-06
-5.90479e-06
-2.52572e-06
-7.31229e-06
-2.9599e-06
-9.01585e-06
-3.33829e-06
-1.10425e-05
-3.60315e-06
-1.34144e-05
-3.67559e-06
-1.61402e-05
-3.45396e-06
-1.92023e-05
-2.81198e-06
-2.25348e-05
-1.6214e-06
-2.59869e-05
2.17349e-07
-2.92994e-05
2.75859e-06
-3.21851e-05
5.99427e-06
9.80067e-06
-3.42537e-05
5.52531e-08
1.31172e-05
-3.9994e-07
-4.74598e-06
-7.95672e-07
-8.21974e-07
-1.12707e-06
2.3872e-07
-1.47885e-06
1.34169e-07
-1.87348e-06
-2.49923e-08
-2.32385e-06
-1.91154e-07
-2.84942e-06
-3.92518e-07
-3.47478e-06
-6.29664e-07
-4.22837e-06
-8.93048e-07
-5.13676e-06
-1.16756e-06
-6.2327e-06
-1.42989e-06
-7.54185e-06
-1.65085e-06
-9.08599e-06
-1.79422e-06
-1.08824e-05
-1.80671e-06
-1.29353e-05
-1.62275e-06
-1.52313e-05
-1.1579e-06
-1.77343e-05
-3.09001e-07
-2.03607e-05
1.00492e-06
-2.30035e-05
2.86005e-06
-2.54776e-05
5.23261e-06
-2.75471e-05
8.06368e-06
1.12428e-05
-2.89892e-05
1.83356e-08
1.30988e-05
-4.71071e-07
-4.25673e-06
-8.8739e-07
-4.05776e-07
-1.24385e-06
5.95069e-07
-1.62487e-06
5.15113e-07
-2.04974e-06
3.99788e-07
-2.52864e-06
2.87698e-07
-3.077e-06
1.55776e-07
-3.71264e-06
5.85833e-09
-4.45716e-06
-1.48645e-07
-5.33211e-06
-2.9272e-07
-6.35863e-06
-4.03467e-07
-7.55499e-06
-4.54581e-07
-8.93459e-06
-4.14669e-07
-1.05002e-05
-2.41121e-07
-1.22489e-05
1.25941e-07
-1.41512e-05
7.44423e-07
-1.61665e-05
1.70621e-06
-1.82314e-05
3.06989e-06
-2.02364e-05
4.86504e-06
-2.20559e-05
7.05211e-06
-2.35146e-05
9.52239e-06
1.21797e-05
-2.44515e-05
-6.46965e-09
1.31052e-05
-5.24836e-07
-3.73849e-06
-9.55148e-07
2.44542e-08
-1.32718e-06
9.67035e-07
-1.72524e-06
9.13107e-07
-2.16528e-06
8.39759e-07
-2.65484e-06
7.77205e-07
-3.20591e-06
7.06747e-07
-3.83328e-06
6.33096e-07
-4.55149e-06
5.69468e-07
-5.37614e-06
5.31845e-07
-6.32077e-06
5.41094e-07
-7.39742e-06
6.2201e-07
-8.61225e-06
8.00087e-07
-9.9571e-06
1.10369e-06
-1.14294e-05
1.59818e-06
-1.29903e-05
2.30534e-06
-1.46108e-05
3.3267e-06
-1.62156e-05
4.67474e-06
-1.77249e-05
6.37448e-06
-1.90275e-05
8.35474e-06
-2.00147e-05
1.05097e-05
1.27147e-05
-2.05498e-05
-2.28796e-08
1.3128e-05
-5.60169e-07
-3.20126e-06
-9.95774e-07
4.60023e-07
-1.37488e-06
1.34611e-06
-1.77973e-06
1.3179e-06
-2.22281e-06
1.28278e-06
-2.70985e-06
1.26418e-06
-3.2501e-06
1.24691e-06
-3.85423e-06
1.23711e-06
-4.53269e-06
1.24787e-06
-5.2958e-06
1.29491e-06
-6.15113e-06
1.39635e-06
-7.10612e-06
1.57693e-06
-8.15989e-06
1.85376e-06
-9.31242e-06
2.25614e-06
-1.05347e-05
2.82038e-06
-1.18151e-05
3.58578e-06
-1.30965e-05
4.60819e-06
-1.43342e-05
5.91257e-06
-1.54461e-05
7.48653e-06
-1.6368e-05
9.2767e-06
-1.69944e-05
1.11362e-05
1.29623e-05
-1.7242e-05
-3.281e-08
1.31608e-05
-5.74772e-07
-2.65929e-06
-1.00673e-06
8.91986e-07
-1.38539e-06
1.72478e-06
-1.78727e-06
1.71972e-06
-2.22361e-06
1.71905e-06
-2.69764e-06
1.73817e-06
-3.21626e-06
1.76546e-06
-3.78732e-06
1.8081e-06
-4.41817e-06
1.87868e-06
-5.11385e-06
1.99053e-06
-5.88109e-06
2.1635e-06
-6.71732e-06
2.41302e-06
-7.62628e-06
2.76259e-06
-8.59931e-06
3.22907e-06
-9.60915e-06
3.8302e-06
-1.06372e-05
4.61386e-06
-1.16483e-05
5.61948e-06
-1.25901e-05
6.85452e-06
-1.34079e-05
8.30457e-06
-1.40347e-05
9.90363e-06
-1.44117e-05
1.15133e-05
1.30124e-05
-1.44618e-05
-3.76828e-08
1.31984e-05
-5.66339e-07
-2.13059e-06
-9.84298e-07
1.30997e-06
-1.35547e-06
2.09595e-06
-1.74757e-06
2.11176e-06
-2.16898e-06
2.14041e-06
-2.62219e-06
2.19133e-06
-3.11168e-06
2.2549e-06
-3.64362e-06
2.34e-06
-4.22151e-06
2.45652e-06
-4.8501e-06
2.61903e-06
-5.52837e-06
2.84164e-06
-6.25774e-06
3.14222e-06
-7.03147e-06
3.53617e-06
-7.84063e-06
4.03814e-06
-8.67275e-06
4.66232e-06
-9.49868e-06
5.4399e-06
-1.02811e-05
6.40207e-06
-1.09857e-05
7.55938e-06
-1.1576e-05
8.89503e-06
-1.20002e-05
1.0328e-05
-1.22033e-05
1.17164e-05
1.29594e-05
-1.21503e-05
-3.31012e-08
1.32316e-05
-5.31551e-07
-1.6321e-06
-9.27058e-07
1.70552e-06
-1.2841e-06
2.45299e-06
-1.65938e-06
2.487e-06
-2.05958e-06
2.5406e-06
-2.48649e-06
2.61823e-06
-2.94306e-06
2.71145e-06
-3.43198e-06
2.8289e-06
-3.95703e-06
2.9815e-06
-4.51882e-06
3.18071e-06
-5.11577e-06
3.43844e-06
-5.74349e-06
3.76976e-06
-6.39949e-06
4.19204e-06
-7.07111e-06
4.70972e-06
-7.74751e-06
5.33875e-06
-8.39768e-06
6.09017e-06
-9.00002e-06
7.00451e-06
-9.52456e-06
8.08404e-06
-9.93472e-06
9.30531e-06
-1.02087e-05
1.06019e-05
-1.03128e-05
1.18205e-05
1.28754e-05
-1.02288e-05
-1.48549e-08
1.32465e-05
-4.70418e-07
-1.17654e-06
-8.35831e-07
2.07097e-06
-1.17347e-06
2.79063e-06
-1.52493e-06
2.83845e-06
-1.89744e-06
2.91313e-06
-2.29219e-06
3.01298e-06
-2.71278e-06
3.13204e-06
-3.15676e-06
3.27285e-06
-3.62992e-06
3.45458e-06
-4.12822e-06
3.67891e-06
-4.64964e-06
3.95975e-06
-5.19117e-06
4.31117e-06
-5.74157e-06
4.74237e-06
-6.29454e-06
5.26267e-06
-6.83475e-06
5.87897e-06
-7.34919e-06
6.60466e-06
-7.80614e-06
7.46151e-06
-8.18177e-06
8.45969e-06
-8.46773e-06
9.59129e-06
-8.63322e-06
1.07674e-05
-8.6729e-06
1.18602e-05
1.2806e-05
-8.60353e-06
2.35288e-08
1.3223e-05
-3.87209e-07
-7.65817e-07
-7.17991e-07
2.40178e-06
-1.02984e-06
3.10249e-06
-1.35082e-06
3.15945e-06
-1.68976e-06
3.25209e-06
-2.04718e-06
3.37041e-06
-2.42374e-06
3.50861e-06
-2.82488e-06
3.67397e-06
-3.24364e-06
3.87328e-06
-3.68003e-06
4.11526e-06
-4.13256e-06
4.41223e-06
-4.59424e-06
4.7728e-06
-5.0513e-06
5.19939e-06
-5.50422e-06
5.71556e-06
-5.93707e-06
6.3118e-06
-6.33287e-06
7.00042e-06
-6.67145e-06
7.8001e-06
-6.94235e-06
8.73063e-06
-7.11831e-06
9.76726e-06
-7.20631e-06
1.08554e-05
-7.20774e-06
1.18616e-05
1.27539e-05
-7.15569e-06
8.20579e-08
1.31409e-05
-2.89272e-07
-3.9451e-07
-5.83548e-07
2.69607e-06
-8.63979e-07
3.38295e-06
-1.14848e-06
3.444e-06
-1.44796e-06
3.5516e-06
-1.76073e-06
3.6832e-06
-2.09128e-06
3.8392e-06
-2.43874e-06
4.02143e-06
-2.79864e-06
4.23316e-06
-3.1713e-06
4.48792e-06
-3.55503e-06
4.79595e-06
-3.93878e-06
5.15651e-06
-4.31745e-06
5.57801e-06
-4.67687e-06
6.07491e-06
-5.01544e-06
6.65035e-06
-5.31552e-06
7.30051e-06
-5.55731e-06
8.04191e-06
-5.73161e-06
8.90498e-06
-5.82351e-06
9.85922e-06
-5.83651e-06
1.08684e-05
-5.786e-06
1.18112e-05
1.26862e-05
-5.71837e-06
1.6717e-07
1.29737e-05
-1.81453e-07
-4.58914e-08
-4.41899e-07
2.95655e-06
-6.88478e-07
3.62959e-06
-9.32671e-07
3.68825e-06
-1.18706e-06
3.80604e-06
-1.45119e-06
3.94739e-06
-1.72485e-06
4.11292e-06
-2.00993e-06
4.30655e-06
-2.30725e-06
4.53051e-06
-2.61235e-06
4.79303e-06
-2.91787e-06
5.10146e-06
-3.22119e-06
5.45982e-06
-3.51745e-06
5.87425e-06
-3.79303e-06
6.35047e-06
-4.03677e-06
6.89411e-06
-4.23663e-06
7.50042e-06
-4.39198e-06
8.1973e-06
-4.47047e-06
8.9835e-06
-4.47525e-06
9.86405e-06
-4.39348e-06
1.07867e-05
-4.24637e-06
1.16641e-05
1.25075e-05
-4.06762e-06
2.67754e-07
1.27059e-05
-7.27586e-08
2.94659e-07
-3.06516e-07
3.19038e-06
-5.18422e-07
3.8416e-06
-7.19606e-07
3.88953e-06
-9.27967e-07
4.01448e-06
-1.13987e-06
4.15939e-06
-1.35598e-06
4.32912e-06
-1.57554e-06
4.52616e-06
-1.79957e-06
4.75459e-06
-2.02553e-06
5.01902e-06
-2.24773e-06
5.32369e-06
-2.46228e-06
5.67441e-06
-2.66282e-06
6.07484e-06
-2.83884e-06
6.52652e-06
-2.9803e-06
7.03561e-06
-3.08264e-06
7.60278e-06
-3.12062e-06
8.23526e-06
-3.09126e-06
8.95414e-06
-2.97186e-06
9.74469e-06
-2.75404e-06
1.0569e-05
-2.44032e-06
1.13504e-05
1.21143e-05
-2.04702e-06
3.79112e-07
1.23268e-05
2.99223e-08
6.43936e-07
-1.91358e-07
3.41177e-06
-3.69059e-07
4.01943e-06
-5.31502e-07
4.05211e-06
-6.9869e-07
4.18179e-06
-8.61525e-07
4.32236e-06
-1.02104e-06
4.48872e-06
-1.17789e-06
4.68306e-06
-1.32938e-06
4.90613e-06
-1.47409e-06
5.1638e-06
-1.60537e-06
5.45507e-06
-1.72113e-06
5.79029e-06
-1.81766e-06
6.17147e-06
-1.87894e-06
6.58787e-06
-1.90358e-06
7.0603e-06
-1.87511e-06
7.57432e-06
-1.78446e-06
8.14461e-06
-1.60554e-06
8.77528e-06
-1.32247e-06
9.46174e-06
-9.05365e-07
1.0152e-05
-3.46451e-07
1.07916e-05
1.13471e-05
4.20911e-07
4.94711e-07
1.18321e-05
1.03894e-07
1.03488e-06
-1.07947e-07
3.62376e-06
-2.56392e-07
4.16801e-06
-3.90539e-07
4.18642e-06
-5.27281e-07
4.31868e-06
-6.52199e-07
4.44741e-06
-7.66125e-07
4.60272e-06
-8.71079e-07
4.78808e-06
-9.57159e-07
4.99227e-06
-1.02568e-06
5.23241e-06
-1.07745e-06
5.50698e-06
-1.10381e-06
5.8168e-06
-1.08927e-06
6.15703e-06
-1.04216e-06
6.54082e-06
-9.36893e-07
6.95509e-06
-7.6405e-07
7.40153e-06
-5.13163e-07
7.89382e-06
-1.53267e-07
8.41555e-06
3.46381e-07
8.9623e-06
9.92848e-07
9.50572e-06
1.82468e-06
9.95986e-06
1.03048e-05
2.86696e-06
6.05255e-07
1.12269e-05
1.58189e-07
1.4821e-06
-5.7265e-08
3.83939e-06
-1.87437e-07
4.29836e-06
-3.15114e-07
4.31429e-06
-4.31238e-07
4.43497e-06
-5.32721e-07
4.54901e-06
-6.20904e-07
4.69096e-06
-6.87881e-07
4.85509e-06
-7.33778e-07
5.03824e-06
-7.55842e-07
5.2546e-06
-7.41404e-07
5.4927e-06
-6.93072e-07
5.76861e-06
-6.03105e-07
6.06716e-06
-4.50065e-07
6.38785e-06
-2.36331e-07
6.74145e-06
6.53648e-08
7.09994e-06
4.70746e-07
7.48855e-06
1.00052e-06
7.88591e-06
1.68646e-06
8.27649e-06
2.56217e-06
8.63009e-06
3.64715e-06
8.87498e-06
8.95045e-06
5.00158e-06
7.07493e-07
1.05195e-05
1.90326e-07
1.99946e-06
-4.10263e-08
4.07093e-06
-1.66222e-07
4.42377e-06
-2.95143e-07
4.44338e-06
-4.07686e-07
4.54765e-06
-5.0636e-07
4.64774e-06
-5.83859e-07
4.76849e-06
-6.36047e-07
4.90732e-06
-6.64793e-07
5.06707e-06
-6.6189e-07
5.25184e-06
-6.21426e-07
5.4524e-06
-5.36738e-07
5.68404e-06
-3.95223e-07
5.92572e-06
-1.9086e-07
6.18356e-06
9.90738e-08
6.45161e-06
4.76499e-07
6.72259e-06
9.76263e-07
6.98885e-06
1.62088e-06
7.24139e-06
2.44359e-06
7.4539e-06
3.47904e-06
7.59474e-06
4.75413e-06
7.60002e-06
7.40101e-06
6.30369e-06
7.82448e-07
9.73715e-06
2.10715e-07
2.57142e-06
-4.30714e-08
4.3249e-06
-1.74871e-07
4.55576e-06
-3.15952e-07
4.58458e-06
-4.34093e-07
4.66587e-06
-5.3598e-07
4.74969e-06
-6.18129e-07
4.85072e-06
-6.77319e-07
4.9666e-06
-7.08528e-07
5.09839e-06
-7.0464e-07
5.24806e-06
-6.65954e-07
5.41379e-06
-5.77916e-07
5.59605e-06
-4.37261e-07
5.7851e-06
-2.28026e-07
5.97439e-06
6.7823e-08
6.15586e-06
4.63376e-07
6.32713e-06
9.80534e-07
6.47177e-06
1.65208e-06
6.56995e-06
2.50046e-06
6.60564e-06
3.56307e-06
6.5322e-06
4.85896e-06
6.3042e-06
5.83698e-06
6.42302e-06
8.31319e-07
8.90596e-06
2.10904e-07
3.19203e-06
-5.40903e-08
4.59003e-06
-1.91857e-07
4.69362e-06
-3.41163e-07
4.73395e-06
-4.67258e-07
4.79204e-06
-5.78356e-07
4.86092e-06
-6.7015e-07
4.94263e-06
-7.3763e-07
5.03414e-06
-7.80424e-07
5.14119e-06
-7.98197e-07
5.26583e-06
-7.80178e-07
5.39578e-06