/*--------------------------------*- C++ -*----------------------------------*\
| =========                 |                                                 |
| \\      /  F ield         | OpenFOAM: The Open Source CFD Toolbox           |
|  \\    /   O peration     | Version:  2206                                  |
|   \\  /    A nd           | Website:  www.openfoam.com                      |
|    \\/     M anipulation  |                                                 |
\*---------------------------------------------------------------------------*/
FoamFile
{
    version     2.0;
    format      ascii;
    arch        "LSB;label=32;scalar=64";
    class       volVectorField;
    location    "0.55";
    object      U;
}
// * * * * * * * * * * * * * * * * * * * * * * * * * * * * * * * * * * * * * //

dimensions      [0 1 -1 0 0 0 0];

internalField   nonuniform List<vector> 
2268
(
(-0.0261916 0.00951427 0)
(-0.0593438 0.00650595 0)
(-0.0671086 -0.00160665 0)
(-0.0449466 -0.00698126 0)
(-0.00566921 -0.0110468 0)
(0.0468763 -0.0130221 0)
(0.101315 -0.0122903 0)
(0.148706 -0.00945946 0)
(0.182464 -0.00594897 0)
(0.201339 -0.00278999 0)
(0.207967 -7.67367e-05 0)
(0.204201 0.00237361 0)
(0.192054 0.00462827 0)
(0.172864 0.0069646 0)
(0.146112 0.010052 0)
(0.10909 0.014415 0)
(0.0567336 0.0192875 0)
(-0.0139161 0.0188425 0)
(-0.0807072 0.00549553 0)
(-0.108737 0.011254 0)
(-0.228894 0.0218926 0)
(-0.255545 -0.0141375 0)
(-0.0923634 -0.0560503 0)
(-0.036648 0.0294055 0)
(-0.0587905 0.0154163 0)
(-0.0604686 -0.00660976 0)
(-0.0384892 -0.0214279 0)
(-0.00117383 -0.0330795 0)
(0.050137 -0.0391617 0)
(0.10424 -0.0370896 0)
(0.151268 -0.0286478 0)
(0.184329 -0.0181847 0)
(0.202713 -0.00884189 0)
(0.209301 -0.00138336 0)
(0.20895 0.00447011 0)
(0.20429 0.00926451 0)
(0.196547 0.0137516 0)
(0.18648 0.0192144 0)
(0.17384 0.0272528 0)
(0.153155 0.0388526 0)
(0.113116 0.0498523 0)
(0.0317719 0.0461749 0)
(-0.0540579 0.0484538 0)
(-0.19485 0.0449951 0)
(-0.170681 -0.0364206 0)
(-0.0491671 -0.136612 0)
(-0.032259 0.0485671 0)
(-0.0445064 0.0214078 0)
(-0.0469684 -0.0119909 0)
(-0.0287258 -0.0341 0)
(0.00253116 -0.0528779 0)
(0.0505831 -0.0642689 0)
(0.103919 -0.0613998 0)
(0.150462 -0.0471659 0)
(0.182198 -0.0295885 0)
(0.19889 -0.0142229 0)
(0.204392 -0.00257463 0)
(0.202536 0.00586483 0)
(0.195912 0.0121549 0)
(0.186288 0.0173799 0)
(0.175307 0.0229654 0)
(0.165694 0.0311987 0)
(0.159682 0.0450077 0)
(0.158988 0.065367 0)
(0.130425 0.0798002 0)
(0.0817833 0.0947933 0)
(-0.0391102 0.0781209 0)
(-0.067569 -0.0553756 0)
(0.010156 -0.175314 0)
(-0.023324 0.0627371 0)
(-0.0258716 0.0255617 0)
(-0.0261691 -0.0161262 0)
(-0.0136722 -0.0436135 0)
(0.0115073 -0.0700836 0)
(0.0547464 -0.0886292 0)
(0.104524 -0.0856707 0)
(0.148343 -0.0652875 0)
(0.177728 -0.0401795 0)
(0.192537 -0.0189309 0)
(0.197044 -0.00334275 0)
(0.195238 0.00788382 0)
(0.189404 0.0161292 0)
(0.18084 0.0225897 0)
(0.170573 0.0285505 0)
(0.160279 0.0357386 0)
(0.152179 0.0462417 0)
(0.1558 0.0651696 0)
(0.163909 0.0890703 0)
(0.171036 0.118631 0)
(0.123452 0.112366 0)
(0.0899099 -0.0319687 0)
(0.0689111 -0.157935 0)
(-0.0121782 0.0697775 0)
(0.000573906 0.0246313 0)
(0.00564867 -0.0196052 0)
(0.0189346 -0.0518298 0)
(0.0446579 -0.0861168 0)
(0.0808329 -0.11091 0)
(0.118485 -0.107586 0)
(0.151195 -0.0814425 0)
(0.173105 -0.0493679 0)
(0.184116 -0.0227103 0)
(0.187683 -0.00374359 0)
(0.18657 0.00956243 0)
(0.182289 0.0192341 0)
(0.175864 0.0266449 0)
(0.168131 0.0331284 0)
(0.160127 0.0400077 0)
(0.153045 0.0481679 0)
(0.151838 0.0613276 0)
(0.162941 0.0809305 0)
(0.194993 0.112262 0)
(0.211044 0.119882 0)
(0.182255 0.00167055 0)
(0.115792 -0.106828 0)
(0.000262261 0.0672695 0)
(0.0363049 0.0190238 0)
(0.0560384 -0.0260829 0)
(0.0842074 -0.0604256 0)
(0.118424 -0.098758 0)
(0.142657 -0.125181 0)
(0.156071 -0.120398 0)
(0.166712 -0.0904912 0)
(0.173829 -0.0547873 0)
(0.176784 -0.0253665 0)
(0.177674 -0.00412025 0)
(0.177315 0.0103834 0)
(0.175117 0.0210609 0)
(0.171153 0.0292176 0)
(0.165998 0.036125 0)
(0.160497 0.0429411 0)
(0.156175 0.0501474 0)
(0.155395 0.0597716 0)
(0.16094 0.0715632 0)
(0.185195 0.0928325 0)
(0.227844 0.106886 0)
(0.211926 0.0356604 0)
(0.138704 -0.0342947 0)
(0.0148441 0.0512018 0)
(0.0766049 -0.000875883 0)
(0.128667 -0.0410594 0)
(0.186588 -0.0719195 0)
(0.226776 -0.106071 0)
(0.228336 -0.126492 0)
(0.208745 -0.118791 0)
(0.193165 -0.0878455 0)
(0.183566 -0.0524459 0)
(0.176554 -0.0247544 0)
(0.171961 -0.00411719 0)
(0.169867 0.0118323 0)
(0.168814 0.0237511 0)
(0.167156 0.032072 0)
(0.164602 0.0387122 0)
(0.161366 0.0445527 0)
(0.159098 0.0499296 0)
(0.160338 0.0574609 0)
(0.16524 0.0659381 0)
(0.175559 0.0772299 0)
(0.212527 0.0928629 0)
(0.209852 0.0606312 0)
(0.159975 0.0347662 0)
(0.0286143 0.022994 0)
(0.118428 -0.0298865 0)
(0.218366 -0.073278 0)
(0.303038 -0.102433 0)
(0.327393 -0.117977 0)
(0.293158 -0.119424 0)
(0.244407 -0.106661 0)
(0.21308 -0.0780979 0)
(0.195734 -0.0443307 0)
(0.184858 -0.0185032 0)
(0.177605 -0.00245844 0)
(0.17252 0.00963966 0)
(0.168311 0.0198188 0)
(0.165141 0.0290035 0)
(0.162997 0.0384345 0)
(0.161084 0.0467321 0)
(0.160952 0.0522366 0)
(0.164577 0.0577365 0)
(0.171756 0.0641968 0)
(0.177814 0.0692422 0)
(0.197221 0.0834988 0)
(0.202574 0.0838975 0)
(0.154382 0.137056 0)
(0.583655 -0.409598 0)
(1.34196 0.208093 0)
(0.358516 0.251384 0)
(-0.516839 0.070392 0)
(-1.15631 0.122049 0)
(-1.89932 0.0144266 0)
(-2.28728 -0.0352711 0)
(-2.3324 -0.00299129 0)
(-2.24265 0.0300434 0)
(-2.17878 0.0569585 0)
(-2.11995 0.0683729 0)
(-2.05388 0.0645524 0)
(-1.97146 0.0505829 0)
(-1.86879 0.0344859 0)
(-1.74397 0.0236718 0)
(-1.55778 0.0114603 0)
(-1.19993 -0.0569395 0)
(-0.608521 -0.162012 0)
(0.055881 -0.0248299 0)
(0.0543331 -1.10062 0)
(1.12761 0.339061 0)
(0.343207 0.596668 0)
(-1.1725 0.581175 0)
(-2.35002 0.64205 0)
(-3.48004 0.353181 0)
(-3.48314 0.143625 0)
(-3.22251 -0.0631205 0)
(-3.16129 -0.129963 0)
(-2.92283 -0.13105 0)
(-2.76628 -0.142558 0)
(-2.62431 -0.153945 0)
(-2.50172 -0.171314 0)
(-2.38107 -0.204875 0)
(-2.2387 -0.249673 0)
(-2.00525 -0.307803 0)
(-1.54198 -0.454511 0)
(-0.837644 -0.63041 0)
(-0.172476 -0.199386 0)
(-0.503696 -1.41742 0)
(0.543594 0.618081 0)
(0.185584 0.999054 0)
(-1.00572 1.19401 0)
(-2.31813 1.47738 0)
(-3.71965 0.618163 0)
(-3.0876 0.195739 0)
(-4.02191 -0.0307043 0)
(-4.41818 -0.0437945 0)
(-4.29768 -0.096889 0)
(-3.90768 -0.121085 0)
(-3.39611 -0.115982 0)
(-2.91613 -0.0973218 0)
(-2.56512 -0.126358 0)
(-2.4865 -0.229585 0)
(-2.44848 -0.387637 0)
(-1.83887 -0.761239 0)
(-0.873701 -1.18551 0)
(-0.239085 -0.48832 0)
(-1.09811 -1.40476 0)
(0.284163 1.00421 0)
(0.447892 0.949669 0)
(-0.391536 1.72031 0)
(-1.74556 2.22322 0)
(-2.28587 0.929302 0)
(-1.92331 0.440114 0)
(-3.11144 0.184078 0)
(-3.39349 -0.0586211 0)
(-3.38357 -0.370116 0)
(-3.08187 -0.544322 0)
(-2.71092 -0.526847 0)
(-2.27998 -0.430502 0)
(-1.68196 -0.327146 0)
(-1.18534 -0.273856 0)
(-1.60822 -0.288518 0)
(-1.62118 -0.883141 0)
(-0.789818 -1.66485 0)
(-0.170538 -0.820361 0)
(-1.70327 -1.35351 0)
(-0.0185667 0.628885 0)
(1.19976 0.577056 0)
(-0.0278958 2.0448 0)
(0.0207808 2.33436 0)
(0.864909 1.54609 0)
(-0.473961 0.746592 0)
(-1.70959 0.545636 0)
(-2.13298 0.229181 0)
(-2.17367 -0.287303 0)
(-1.84024 -0.68184 0)
(-1.45343 -0.694015 0)
(-0.978823 -0.661371 0)
(-0.404598 -0.639648 0)
(0.399057 -0.550337 0)
(0.782918 0.185506 0)
(-0.701428 -0.646285 0)
(-0.662816 -1.95894 0)
(-0.067733 -1.11021 0)
(-1.82191 -0.492394 0)
(-1.03585 0.388923 0)
(-0.230365 0.496495 0)
(0.0721264 1.99657 0)
(1.08317 2.18751 0)
(2.50521 1.80346 0)
(1.51386 1.25687 0)
(-0.422354 0.777157 0)
(-0.940602 0.424299 0)
(-1.13199 -0.410226 0)
(-0.833371 -1.06831 0)
(-0.447367 -1.01849 0)
(0.187632 -0.991247 0)
(0.907257 -1.07223 0)
(1.36081 -0.906922 0)
(1.83965 -0.309305 0)
(0.696574 0.637188 0)
(-0.522639 -1.97634 0)
(0.0063173 -1.34674 0)
(-1.42517 0.0793869 0)
(-0.663625 -0.0358569 0)
(0.0580396 -0.0651179 0)
(0.302809 1.2396 0)
(2.52808 1.60139 0)
(4.22549 1.82326 0)
(4.21552 2.04944 0)
(2.33028 1.73823 0)
(0.335738 0.803623 0)
(0.0272344 -0.469277 0)
(0.0872727 -1.43423 0)
(0.433208 -1.39846 0)
(0.873467 -1.36222 0)
(1.33837 -1.40877 0)
(1.57346 -1.16128 0)
(1.70304 -0.409533 0)
(1.1117 0.950918 0)
(-0.372344 -1.76565 0)
(0.0450004 -1.52158 0)
(0.245915 -0.0483595 0)
(0.614337 -0.124664 0)
(0.796462 -0.0798049 0)
(0.79457 0.263048 0)
(1.64201 0.678097 0)
(2.94152 1.11442 0)
(4.02115 1.86103 0)
(3.96662 2.4045 0)
(2.53134 1.90857 0)
(1.30472 0.132076 0)
(0.819419 -1.32716 0)
(0.895351 -1.42241 0)
(1.03811 -1.47962 0)
(1.2146 -1.49699 0)
(0.991003 -1.11588 0)
(0.614596 0.0965609 0)
(0.815251 1.62116 0)
(-0.235034 -1.43553 0)
(0.0588318 -1.62416 0)
(0.0443775 -0.0467365 0)
(0.186362 -0.125339 0)
(0.317015 -0.164948 0)
(0.356777 -0.151807 0)
(0.318576 -0.118184 0)
(0.250747 -0.0939586 0)
(0.198555 -0.0838041 0)
(0.174263 -0.0693629 0)
(0.169825 -0.0442589 0)
(0.173927 -0.0162908 0)
(0.179813 0.00723883 0)
(0.184554 0.0259377 0)
(0.185803 0.0396263 0)
(0.183115 0.0442469 0)
(0.177204 0.0448749 0)
(0.169249 0.0432974 0)
(0.164723 0.0408329 0)
(0.167662 0.0447518 0)
(0.175558 0.0543964 0)
(0.187421 0.0615762 0)
(0.201136 0.0740673 0)
(0.240462 0.0776625 0)
(0.265446 0.170416 0)
(0.0771623 -0.170349 0)
(0.23147 -0.310334 0)
(0.275108 -0.224034 0)
(0.0630547 -0.0534979 0)
(-0.00780773 -0.00702244 0)
(-0.0144865 -0.0207994 0)
(-0.0256929 -0.0401837 0)
(-0.035023 -0.049061 0)
(-0.0113106 -0.0478855 0)
(0.0306712 -0.039675 0)
(0.0762894 -0.025734 0)
(0.139669 -0.00923368 0)
(0.185739 0.00550814 0)
(0.203118 0.0235527 0)
(0.199346 0.0486712 0)
(0.182392 0.0664953 0)
(0.171532 0.0598724 0)
(0.175511 0.0533563 0)
(0.183289 0.0495002 0)
(0.195233 0.0439661 0)
(0.212949 0.0471341 0)
(0.239499 0.0385061 0)
(0.283847 0.077354 0)
(0.0346234 -0.393733 0)
(-0.00734669 -0.325021 0)
(-0.210949 0.0543721 0)
(-0.353095 0.145897 0)
(-0.317849 -0.0229335 0)
(-0.385724 -0.0446391 0)
(-0.492367 -0.0291042 0)
(-0.585227 -0.044388 0)
(-0.663923 -0.0739382 0)
(-0.717472 -0.107696 0)
(-0.598426 -0.124874 0)
(-0.332721 -0.0945235 0)
(-0.10792 -0.0117958 0)
(0.0116205 0.0290133 0)
(0.0878229 0.0579931 0)
(0.130934 0.0632325 0)
(0.185041 0.0381093 0)
(0.214466 0.0358516 0)
(0.208251 0.0441198 0)
(0.197098 0.0303912 0)
(0.206213 0.0207554 0)
(0.219172 0.00893078 0)
(0.250025 0.00548933 0)
(-0.0988082 -0.21896 0)
(-0.199891 -0.00788839 0)
(-0.247027 0.161576 0)
(-0.224241 0.0592528 0)
(-0.0898055 -0.0223058 0)
(-0.144531 0.0834654 0)
(-0.156934 0.116553 0)
(-0.154089 0.0684107 0)
(-0.186789 0.0108147 0)
(-0.246757 -0.0828175 0)
(-0.387249 -0.227859 0)
(-0.610677 -0.432963 0)
(-0.775085 -0.280201 0)
(-0.728404 -0.137015 0)
(-0.502773 -0.051997 0)
(-0.287241 -0.0268896 0)
(-0.148934 -0.0265836 0)
(0.00356942 0.035574 0)
(0.0963786 0.0655545 0)
(0.171579 0.046615 0)
(0.230453 0.0308721 0)
(0.252222 0.0167762 0)
(0.260242 -0.0177758 0)
(-0.121827 -0.0953403 0)
(-0.124422 -0.133009 0)
(-0.0976387 0.0130028 0)
(0.00495527 -0.0123852 0)
(-0.0414183 -0.02121 0)
(-0.0619972 0.0314103 0)
(-0.0244628 0.0447107 0)
(-0.00153164 0.0319329 0)
(0.0144137 0.0385848 0)
(0.0357089 0.0719418 0)
(0.0264734 0.156796 0)
(-0.127408 0.118785 0)
(-0.310686 -0.0796935 0)
(-0.371907 -0.222004 0)
(-0.359818 -0.309575 0)
(-0.40714 -0.314634 0)
(-0.508928 -0.230463 0)
(-0.405445 -0.186863 0)
(-0.204873 -0.130733 0)
(-0.138193 -0.123214 0)
(-0.0148342 -0.0528522 0)
(0.0401305 -0.014692 0)
(0.101944 -0.0315012 0)
(-0.0509137 -0.00855442 0)
(-0.0431294 -0.0660558 0)
(-0.0588729 0.0165688 0)
(-0.0282647 0.00691495 0)
(-0.0508561 0.00500146 0)
(-0.0535047 0.0331516 0)
(-0.0461486 0.035695 0)
(-0.050476 0.014521 0)
(-0.0535993 -0.0263325 0)
(-0.0447825 -0.0641083 0)
(-0.00618439 -0.0580234 0)
(0.0506768 0.00525096 0)
(0.0288454 0.0412537 0)
(-0.0545129 -0.00728624 0)
(-0.0307647 -0.112389 0)
(-0.0538992 -0.0988545 0)
(-0.0500964 -0.0750699 0)
(-0.06869 -0.112925 0)
(-0.0730834 -0.278918 0)
(-0.305833 -0.0847475 0)
(-0.43767 -0.11242 0)
(-0.45412 -0.119683 0)
(-0.468849 -0.185124 0)
(-0.0310409 0.0161565 0)
(-0.03522 -0.0748121 0)
(-0.043666 -0.0135961 0)
(-0.0246958 -0.000104281 0)
(-0.033317 0.0126499 0)
(-0.0319309 0.0309707 0)
(-0.0248461 0.0405956 0)
(-0.0203808 0.0357518 0)
(-0.025231 0.0202376 0)
(-0.0374168 0.00572865 0)
(-0.0469389 0.0163461 0)
(-0.0352604 0.035619 0)
(-0.00603902 0.0216993 0)
(0.0198425 -0.116593 0)
(0.0253838 -0.221706 0)
(-0.0169892 -0.236637 0)
(0.00368026 -0.157073 0)
(0.0399748 -0.105547 0)
(0.0541734 -0.0574182 0)
(0.14611 0.117437 0)
(0.217604 0.140919 0)
(0.348692 0.0431515 0)
(-0.01225 -0.0729141 0)
(-0.0196811 0.0461846 0)
(-0.0254406 -0.0636852 0)
(-0.0301334 -0.0107676 0)
(-0.0230996 0.00133991 0)
(-0.0244409 0.0100177 0)
(-0.0200615 0.0229432 0)
(-0.0148055 0.0312739 0)
(-0.0131049 0.0260184 0)
(-0.0168045 0.00456335 0)
(-0.0242276 -0.0202629 0)
(-0.0258627 -0.0330575 0)
(-0.00556425 -0.0220508 0)
(0.0375156 -0.0090916 0)
(0.0752859 -0.0680783 0)
(0.0624219 -0.12415 0)
(0.0289302 -0.14052 0)
(0.0185273 -0.140902 0)
(0.0413738 -0.173572 0)
(0.0625282 -0.249922 0)
(0.182743 -0.240239 0)
(0.356315 -0.187867 0)
(0.587411 0.0155504 0)
(0.645294 0.254309 0)
(-0.0111774 0.0650527 0)
(-0.0171882 -0.0573603 0)
(-0.0209296 -0.0159967 0)
(-0.0160061 0.000323114 0)
(-0.0152536 0.00861864 0)
(-0.0100468 0.0181237 0)
(-0.00223456 0.0271474 0)
(0.00582345 0.0294404 0)
(0.00893236 0.0198065 0)
(0.00578586 -0.000337889 0)
(0.00348055 -0.0225504 0)
(0.0100541 -0.0415521 0)
(0.0383109 -0.0636717 0)
(0.0602244 -0.109853 0)
(0.0586929 -0.144705 0)
(0.0498755 -0.1617 0)
(0.0465435 -0.16454 0)
(0.0725778 -0.179238 0)
(0.10742 -0.250828 0)
(0.166328 -0.297736 0)
(0.28561 -0.301915 0)
(0.39037 -0.216071 0)
(0.589355 0.0781594 0)
(-0.00472506 0.0763132 0)
(-0.00970078 -0.0522184 0)
(-0.0135035 -0.0168965 0)
(-0.010326 -0.00156896 0)
(-0.00843254 0.00452652 0)
(-0.00328036 0.0106644 0)
(0.00498516 0.0170346 0)
(0.0154721 0.0193337 0)
(0.024655 0.011721 0)
(0.0299382 -0.00501149 0)
(0.0331485 -0.0264449 0)
(0.0369549 -0.0494405 0)
(0.0466182 -0.0713939 0)
(0.0528753 -0.101317 0)
(0.0490115 -0.127743 0)
(0.0409039 -0.146798 0)
(0.0339786 -0.168387 0)
(0.0505814 -0.212582 0)
(0.072443 -0.298431 0)
(0.08234 -0.390007 0)
(0.14118 -0.407456 0)
(0.165646 -0.315631 0)
(0.298328 -0.0369727 0)
(-0.000396644 0.0807167 0)
(-0.00475022 -0.0481426 0)
(-0.00810126 -0.0170503 0)
(-0.00599958 -0.00306908 0)
(-0.00414494 0.00104044 0)
(0.000292801 0.00422911 0)
(0.00739212 0.00740612 0)
(0.0173356 0.00813205 0)
(0.0279539 0.00262918 0)
(0.0362495 -0.0109153 0)
(0.0414492 -0.0301734 0)
(0.043462 -0.0523578 0)
(0.0439888 -0.0750444 0)
(0.0414629 -0.100155 0)
(0.0336991 -0.121781 0)
(0.0252556 -0.141013 0)
(0.0190852 -0.169082 0)
(0.0209613 -0.218173 0)
(0.0201 -0.292559 0)
(-0.00406864 -0.374229 0)
(-0.0366221 -0.402004 0)
(-0.0719985 -0.326033 0)
(-0.0642352 -0.0898243 0)
(0.00196728 0.0815585 0)
(-0.00161841 -0.044658 0)
(-0.00460057 -0.0167616 0)
(-0.00327876 -0.00434695 0)
(-0.00182232 -0.00182742 0)
(0.00151874 -0.000753026 0)
(0.00663203 -0.000270351 0)
(0.0139654 -0.00167465 0)
(0.0224444 -0.00703391 0)
(0.0296659 -0.0179962 0)
(0.0337672 -0.0337146 0)
(0.0338113 -0.0521911 0)
(0.0306949 -0.0713338 0)
(0.0239495 -0.091618 0)
(0.0144401 -0.111737 0)
(0.00499814 -0.132637 0)
(-0.00413078 -0.161357 0)
(-0.0163311 -0.207045 0)
(-0.0406009 -0.270501 0)
(-0.0854517 -0.331512 0)
(-0.16142 -0.353404 0)
(-0.241387 -0.279183 0)
(-0.259415 -0.0959624 0)
(0.00302764 0.0802376 0)
(0.00020727 -0.0414811 0)
(-0.00252919 -0.0160621 0)
(-0.0018445 -0.00520085 0)
(-0.000895676 -0.00387664 0)
(0.00131671 -0.0041255 0)
(0.00449316 -0.00523613 0)
(0.00887849 -0.00803086 0)
(0.0139396 -0.0134802 0)
(0.0182085 -0.0225089 0)
(0.0199889 -0.0349088 0)
(0.0182432 -0.0496806 0)
(0.0134345 -0.0655549 0)
(0.00566351 -0.0829114 0)
(-0.00444663 -0.101494 0)
(-0.0160601 -0.121782 0)
(-0.0296114 -0.146528 0)
(-0.0502535 -0.18083 0)
(-0.0870073 -0.226084 0)
(-0.143878 -0.269683 0)
(-0.221989 -0.286805 0)
(-0.300411 -0.237763 0)
(-0.3206 -0.101889 0)
(0.00313406 0.0782041 0)
(0.000947396 -0.039045 0)
(-0.00148366 -0.0151563 0)
(-0.00134203 -0.00556468 0)
(-0.000962392 -0.00510303 0)
(0.000244669 -0.00608495 0)
(0.00190157 -0.00790231 0)
(0.00396272 -0.0111966 0)
(0.00609903 -0.0164432 0)
(0.00749921 -0.0239987 0)
(0.00707406 -0.0338523 0)
(0.0040276 -0.045655 0)
(-0.00160677 -0.058826 0)
(-0.00981159 -0.0734633 0)
(-0.020978 -0.089384 0)
(-0.0352093 -0.107001 0)
(-0.053108 -0.12627 0)
(-0.0781165 -0.148626 0)
(-0.117226 -0.176137 0)
(-0.176705 -0.202893 0)
(-0.25503 -0.211499 0)
(-0.333571 -0.178731 0)
(-0.375545 -0.0875982 0)
(0.00283238 0.0761728 0)
(0.00106549 -0.0370178 0)
(-0.00119417 -0.014029 0)
(-0.00150504 -0.00546147 0)
(-0.00164733 -0.00559369 0)
(-0.00129219 -0.00694023 0)
(-0.000767645 -0.00896747 0)
(-0.000250066 -0.0121952 0)
(-6.31721e-05 -0.016915 0)
(-0.000673101 -0.0232679 0)
(-0.00269351 -0.0312472 0)
(-0.00666324 -0.0407273 0)
(-0.0129049 -0.0514125 0)
(-0.0216833 -0.0631739 0)
(-0.033465 -0.0758122 0)
(-0.0490083 -0.089305 0)
(-0.0692275 -0.10324 0)
(-0.0950451 -0.117046 0)
(-0.129542 -0.130567 0)
(-0.179525 -0.140966 0)
(-0.247645 -0.137004 0)
(-0.31901 -0.10343 0)
(-0.368293 -0.0391352 0)
(0.00242998 0.074414 0)
(0.000841314 -0.0351718 0)
(-0.00138539 -0.0127084 0)
(-0.00206313 -0.00493135 0)
(-0.00267368 -0.00543663 0)
(-0.00302645 -0.0069348 0)
(-0.00337494 -0.00893378 0)
(-0.00390131 -0.0118515 0)
(-0.00491707 -0.0159076 0)
(-0.00676782 -0.0211714 0)
(-0.00983901 -0.0276289 0)
(-0.0145391 -0.0351512 0)
(-0.0212674 -0.0435748 0)
(-0.030347 -0.0526438 0)
(-0.0421655 -0.0620137 0)
(-0.0572682 -0.0713711 0)
(-0.0764959 -0.0804766 0)
(-0.100816 -0.0885329 0)
(-0.131431 -0.093463 0)
(-0.170142 -0.0923271 0)
(-0.216884 -0.0811212 0)
(-0.264369 -0.0540944 0)
(-0.300052 -0.0107853 0)
(0.00203586 0.0730162 0)
(0.000460275 -0.0333301 0)
(-0.00184468 -0.0111902 0)
(-0.00282114 -0.00403056 0)
(-0.00384342 -0.00472692 0)
(-0.00477356 -0.00622506 0)
(-0.00582026 -0.00807731 0)
(-0.00712287 -0.0106111 0)
(-0.00894364 -0.0139841 0)
(-0.0115861 -0.0182332 0)
(-0.0153439 -0.0233251 0)
(-0.0205635 -0.0291288 0)
(-0.0275827 -0.0354924 0)
(-0.0367157 -0.0421397 0)
(-0.0482983 -0.0487585 0)
(-0.0626752 -0.0548573 0)
(-0.080327 -0.0596979 0)
(-0.101903 -0.0623403 0)
(-0.128035 -0.0617748 0)
(-0.158658 -0.0561032 0)
(-0.191886 -0.0416735 0)
(-0.223491 -0.0154972 0)
(-0.248704 0.0197102 0)
(0.00169968 0.0719778 0)
(4.37226e-05 -0.0313673 0)
(-0.00241977 -0.00947506 0)
(-0.00363703 -0.00281006 0)
(-0.0050113 -0.00356273 0)
(-0.00639559 -0.00494843 0)
(-0.00798586 -0.0065742 0)
(-0.00988306 -0.00869751 0)
(-0.0122914 -0.0114134 0)
(-0.0154639 -0.0147273 0)
(-0.0196445 -0.0185816 0)
(-0.0251254 -0.02287 0)
(-0.0321637 -0.027407 0)
(-0.0410166 -0.0319314 0)
(-0.0519646 -0.0361002 0)
(-0.0652559 -0.0394577 0)
(-0.0811216 -0.041404 0)
(-0.0997084 -0.0410554 0)
(-0.121116 -0.0372649 0)
(-0.145108 -0.0287824 0)
(-0.170158 -0.0142732 0)
(-0.193117 0.00698114 0)
(-0.210829 0.0339082 0)
(0.00144497 0.0712758 0)
(-0.000342717 -0.0292166 0)
(-0.00300979 -0.00757412 0)
(-0.00441256 -0.00132231 0)
(-0.0060772 -0.00203982 0)
(-0.0078027 -0.00323981 0)
(-0.00979025 -0.00458672 0)
(-0.0121106 -0.00628628 0)
(-0.014928 -0.00838438 0)
(-0.0184315 -0.0108616 0)
(-0.0228213 -0.0136386 0)
(-0.0283258 -0.016617 0)
(-0.0351383 -0.0196027 0)
(-0.0434609 -0.0223699 0)
(-0.0534728 -0.0245884 0)
(-0.0652976 -0.0258179 0)
(-0.0790327 -0.0254551 0)
(-0.0946862 -0.0227463 0)
(-0.112096 -0.0169063 0)
(-0.13064 -0.00715682 0)
(-0.14914 0.00711478 0)
(-0.166225 0.0258584 0)
(-0.179742 0.0480359 0)
(0.00126203 0.0708677 0)
(-0.000679543 -0.0268626 0)
(-0.00355445 -0.00550992 0)
(-0.00508737 0.000379537 0)
(-0.00697984 -0.000245487 0)
(-0.00894857 -0.00122176 0)
(-0.0112041 -0.00226711 0)
(-0.0137908 -0.00354856 0)
(-0.0168485 -0.00508239 0)
(-0.0205133 -0.00682283 0)
(-0.0249386 -0.00868838 0)
(-0.0302932 -0.0105623 0)
(-0.0367207 -0.0122764 0)
(-0.0443688 -0.0136254 0)
(-0.0533527 -0.0143095 0)
(-0.0637227 -0.0139423 0)
(-0.0754667 -0.0120242 0)
(-0.0884698 -0.0079332 0)
(-0.102432 -0.00105515 0)
(-0.116796 0.00901813 0)
(-0.130724 0.0223052 0)
(-0.143219 0.0384155 0)
(-0.152917 0.0570022 0)
(0.001144 0.0706865 0)
(-0.000954007 -0.0243121 0)
(-0.00401591 -0.00331481 0)
(-0.00562679 0.00224213 0)
(-0.00768702 0.00174176 0)
(-0.00981381 0.00100201 0)
(-0.0122311 0.00025627 0)
(-0.0149612 -0.000633679 0)
(-0.0181166 -0.00166438 0)
(-0.021802 -0.00276953 0)
(-0.0261273 -0.00386906 0)
(-0.031214 -0.00483771 0)
(-0.0371663 -0.0055305 0)
(-0.0440769 -0.00576369 0)
(-0.0520061 -0.00528307 0)
(-0.0609519 -0.00374291 0)
(-0.070826 -0.000741913 0)
(-0.0814509 0.00421895 0)
(-0.0925537 0.0115495 0)
(-0.103635 0.0214439 0)
(-0.114015 0.0337382 0)
(-0.123029 0.0479278 0)
(-0.129753 0.0634834 0)
(0.00107597 0.0706649 0)
(-0.00116696 -0.0215844 0)
(-0.00436857 -0.00102544 0)
(-0.00601316 0.00421313 0)
(-0.00818472 0.00385178 0)
(-0.0103963 0.00334538 0)
(-0.0128883 0.00288 0)
(-0.0156651 0.00234253 0)
(-0.0188128 0.00175321 0)
(-0.0224099 0.00118228 0)
(-0.0265361 0.000716102 0)
(-0.0312757 0.00047183 0)
(-0.0366998 0.000584486 0)
(-0.0428591 0.00121075 0)
(-0.0497558 0.00256816 0)
(-0.0573651 0.0049123 0)
(-0.0655715 0.008594 0)
(-0.0742016 0.0139532 0)
(-0.0829785 0.0213009 0)
(-0.0914565 0.0307213 0)
(-0.0990791 0.0419304 0)
(-0.105389 0.0543329 0)
(-0.109755 0.0673537 0)
(0.00104521 0.0707505 0)
(-0.00131735 -0.0187251 0)
(-0.00459497 0.00131626 0)
(-0.00623377 0.0062438 0)
(-0.00846506 0.0060212 0)
(-0.0107008 0.00573474 0)
(-0.0131978 0.00552157 0)
(-0.0159432 0.00529302 0)
(-0.0190049 0.00507947 0)
(-0.0224389 0.0049511 0)
(-0.0262981 0.004995 0)
(-0.0306383 0.00532234 0)
(-0.0355055 0.00604786 0)
(-0.0409102 0.00730886 0)
(-0.0468551 0.00927658 0)
(-0.0532748 0.0121391 0)
(-0.0600488 0.0161853 0)
(-0.0670002 0.0216866 0)
(-0.073855 0.0288607 0)
(-0.0802555 0.0376849 0)
(-0.0857686 0.0477933 0)
(-0.0900508 0.0585487 0)
(-0.0926552 0.0693483 0)
(0.00103169 0.0709018 0)
(-0.00139783 -0.0157977 0)
(-0.00467481 0.00366184 0)
(-0.00627805 0.00829051 0)
(-0.00852055 0.00819964 0)
(-0.0107284 0.00810924 0)
(-0.0131755 0.00811571 0)
(-0.0158315 0.00815071 0)
(-0.0187509 0.0082487 0)
(-0.0219707 0.00848039 0)
(-0.0255228 0.00892861 0)
(-0.0294464 0.00968758 0)
(-0.033766 0.010874 0)
(-0.0384669 0.0125817 0)
(-0.0435342 0.0149455 0)
(-0.0488974 0.0181452 0)
(-0.0544145 0.0223434 0)
(-0.0599458 0.0277931 0)
(-0.0652633 0.0346515 0)
(-0.0700626 0.0428375 0)
(-0.0739783 0.0518825 0)
(-0.0767654 0.0611375 0)
(-0.0781293 0.0700053 0)
(0.00101096 0.0710896 0)
(-0.00139588 -0.0128908 0)
(-0.00458847 0.00595957 0)
(-0.0061281 0.0103139 0)
(-0.00834078 0.0103446 0)
(-0.0104797 0.0104238 0)
(-0.0128334 0.0106172 0)
(-0.0153576 0.0108708 0)
(-0.0180971 0.01122 0)
(-0.0210732 0.011735 0)
(-0.0243108 0.0124926 0)
(-0.0278131 0.0135723 0)
(-0.0316024 0.0150791 0)
(-0.0356559 0.0171016 0)
(-0.0399131 0.0197237 0)
(-0.0443546 0.0230805 0)
(-0.0488548 0.0272978 0)
(-0.0532104 0.0325678 0)
(-0.057246 0.0390186 0)
(-0.060787 0.046525 0)
(-0.0635503 0.0546344 0)
(-0.065303 0.0626096 0)
(-0.0658591 0.0698942 0)
(0.000969461 0.0712838 0)
(-0.00129129 -0.0101045 0)
(-0.00432529 0.00815892 0)
(-0.00577662 0.0122817 0)
(-0.00791849 0.0124176 0)
(-0.00995113 0.0126426 0)
(-0.0121785 0.0129927 0)
(-0.0145442 0.0134231 0)
(-0.0170834 0.0139702 0)
(-0.0198038 0.0147037 0)
(-0.022724 0.0156898 0)
(-0.0258379 0.0170028 0)
(-0.0291313 0.0187214 0)
(-0.0325899 0.0209324 0)
(-0.0361632 0.0236907 0)
(-0.0398086 0.0270798 0)
(-0.0434061 0.0312321 0)
(-0.0467995 0.0362677 0)
(-0.0498603 0.0422761 0)
(-0.052411 0.0491471 0)
(-0.0542737 0.0564139 0)
(-0.0553258 0.0633645 0)
(-0.0554442 0.0694423 0)
(0.000929353 0.071425 0)
(-0.00105983 -0.00752473 0)
(-0.00389692 0.0102136 0)
(-0.00523111 0.014159 0)
(-0.0072672 0.0143817 0)
(-0.00915693 0.0147315 0)
(-0.0112298 0.0152125 0)
(-0.0134126 0.0157888 0)
(-0.0157321 0.0165015 0)
(-0.0181901 0.0173933 0)
(-0.0208041 0.0185423 0)
(-0.0235488 0.0200082 0)
(-0.0264042 0.0218616 0)
(-0.029345 0.0241605 0)
(-0.0323124 0.0269721 0)
(-0.0352646 0.0303303 0)
(-0.0381272 0.0343407 0)
(-0.0407566 0.0390874 0)
(-0.0430131 0.0446686 0)
(-0.0448141 0.0509747 0)
(-0.0460314 0.0575525 0)
(-0.046597 0.0637079 0)
(-0.046513 0.0689665 0)
(0.000949739 0.071449 0)
(-0.000692833 -0.00520265 0)
(-0.00334803 0.0120905 0)
(-0.00452343 0.015911 0)
(-0.00642314 0.0161996 0)
(-0.00813195 0.0166543 0)
(-0.0100184 0.0172452 0)
(-0.0119819 0.017945 0)
(-0.0140701 0.0187831 0)
(-0.0162635 0.0197991 0)
(-0.0185641 0.0210609 0)
(-0.0209616 0.0226272 0)
(-0.0234174 0.0245469 0)
(-0.0258903 0.026881 0)
(-0.0283431 0.0296669 0)
(-0.03073 0.0329417 0)
(-0.0329689 0.0367639 0)
(-0.0349554 0.0412145 0)
(-0.0366008 0.0463831 0)
(-0.0378092 0.0521849 0)
(-0.0385053 0.0582151 0)
(-0.038724 0.0637987 0)
(-0.0384908 0.0686239 0)
(0.00107306 0.0711951 0)
(-0.000213617 -0.00312376 0)
(-0.00274224 0.0137674 0)
(-0.00370171 0.0175089 0)
(-0.00544989 0.0178382 0)
(-0.00693851 0.0183769 0)
(-0.00860452 0.0190592 0)
(-0.0103232 0.0198555 0)
(-0.0121416 0.0207949 0)
(-0.0140349 0.021926 0)
(-0.0160053 0.0232685 0)
(-0.0180445 0.0248885 0)
(-0.0201096 0.0268384 0)
(-0.0221603 0.0291621 0)
(-0.0241465 0.031875 0)
(-0.0260228 0.0350156 0)
(-0.0277438 0.0386324 0)
(-0.0292043 0.0427984 0)
(-0.0303186 0.0475673 0)
(-0.0310309 0.0529412 0)
(-0.0312932 0.0585018 0)
(-0.0311386 0.0636793 0)
(-0.0306156 0.0683401 0)
(0.00135736 0.0705347 0)
(0.000356991 -0.00120415 0)
(-0.00213663 0.0152565 0)
(-0.0028143 0.0189345 0)
(-0.0044236 0.0192677 0)
(-0.0056554 0.0198742 0)
(-0.00707689 0.0206214 0)
(-0.00851053 0.0214919 0)
(-0.0100066 0.0225107 0)
(-0.0115687 0.0237097 0)
(-0.0131898 0.0251117 0)
(-0.0148324 0.0267627 0)
(-0.01647 0.0287095 0)
(-0.0180808 0.0309807 0)
(-0.0196192 0.0336025 0)
(-0.0210162 0.0365955 0)
(-0.0222051 0.0399981 0)
(-0.023155 0.0438656 0)
(-0.023771 0.0482805 0)
(-0.0239821 0.0532304 0)
(-0.0237418 0.0583876 0)
(-0.0230601 0.0632506 0)
(-0.0219487 0.0678404 0)
(0.00178005 0.0693851 0)
(0.000948397 0.000658681 0)
(-0.00158811 0.0165962 0)
(-0.00193389 0.0201859 0)
(-0.00343554 0.020478 0)
(-0.00438472 0.0211355 0)
(-0.00555565 0.0219152 0)
(-0.00669025 0.0228309 0)
(-0.00785815 0.0238924 0)
(-0.009047 0.0251185 0)
(-0.0102552 0.0265469 0)
(-0.0114594 0.028205 0)
(-0.0126332 0.0301229 0)
(-0.0137496 0.0323254 0)
(-0.0147595 0.034832 0)
(-0.015612 0.0376768 0)
(-0.0162636 0.0408672 0)
(-0.016629 0.0444426 0)
(-0.016636 0.0484868 0)
(-0.0162227 0.0529909 0)
(-0.0152736 0.0577037 0)
(-0.0137804 0.0621737 0)
(-0.0116999 0.0665115 0)
(0.00232699 0.0676633 0)
(0.00153241 0.00249119 0)
(-0.00114861 0.0178167 0)
(-0.00113508 0.0212415 0)
(-0.00259258 0.0214561 0)
(-0.003249 0.0221479 0)
(-0.00420287 0.022925 0)
(-0.00505208 0.0238438 0)
(-0.00590029 0.0249121 0)
(-0.0067259 0.0261369 0)
(-0.00752025 0.0275541 0)
(-0.00826059 0.0291896 0)
(-0.00892384 0.03105 0)
(-0.00949554 0.0331509 0)
(-0.0099194 0.035528 0)
(-0.0101486 0.0381624 0)
(-0.0101339 0.0410973 0)
(-0.00980606 0.044381 0)
(-0.00907023 0.0480201 0)
(-0.00782088 0.052033 0)
(-0.00590249 0.0561778 0)
(-0.00327335 0.0600427 0)
(8.72853e-05 0.0636679 0)
(0.00298118 0.0653288 0)
(0.00209557 0.00441673 0)
(-0.000840337 0.0189371 0)
(-0.000510845 0.0220837 0)
(-0.00199471 0.0222377 0)
(-0.00237845 0.0229233 0)
(-0.0031934 0.023662 0)
(-0.00381363 0.0245517 0)
(-0.00440197 0.0255775 0)
(-0.00491366 0.0267624 0)
(-0.00532733 0.0281191 0)
(-0.00564993 0.0296618 0)
(-0.00586069 0.0314154 0)
(-0.0058938 0.0333787 0)
(-0.00573254 0.0355538 0)
(-0.00532604 0.0379563 0)
(-0.00457559 0.040589 0)
(-0.00344047 0.0434742 0)
(-0.00181117 0.0466363 0)
(0.000427633 0.0500346 0)
(0.00347729 0.0534585 0)
(0.00741644 0.056475 0)
(0.0123605 0.0590469 0)
(0.00367402 0.0623121 0)
(0.00256738 0.00663226 0)
(-0.000690551 0.0200404 0)
(-8.03275e-05 0.0227783 0)
(-0.00169507 0.0228864 0)
(-0.00188169 0.0235487 0)
(-0.00262948 0.0242214 0)
(-0.0031084 0.0250368 0)
(-0.00352814 0.0259762 0)
(-0.00383163 0.0270663 0)
(-0.00401429 0.0282999 0)
(-0.00403436 0.0296915 0)
(-0.00386812 0.0312652 0)
(-0.00350505 0.0330216 0)
(-0.00285898 0.0349387 0)
(-0.00188157 0.0370315 0)
(-0.000518629 0.0392786 0)
(0.00134555 0.041682 0)
(0.00383723 0.0442282 0)
(0.00705638 0.0468191 0)
(0.0111986 0.0493369 0)
(0.0164818 0.0513631 0)
(0.0229114 0.0527227 0)
(0.00437554 0.0587769 0)
(0.00294602 0.00929791 0)
(-0.000706275 0.0213235 0)
(0.00012588 0.0235408 0)
(-0.00167077 0.0236275 0)
(-0.00171747 0.0242372 0)
(-0.00251139 0.0248171 0)
(-0.002939 0.0255285 0)
(-0.00329353 0.0263491 0)
(-0.00351308 0.0272829 0)
(-0.00358303 0.0283453 0)
(-0.00346756 0.0295625 0)
(-0.00313708 0.0309105 0)
(-0.00254127 0.0323955 0)
(-0.00162571 0.0339961 0)
(-0.000333693 0.0356664 0)
(0.00143048 0.0374209 0)
(0.00376683 0.0392262 0)
(0.00679443 0.0410285 0)
(0.0106936 0.0426989 0)
(0.0156484 0.044114 0)
(0.0219039 0.0449247 0)
(0.0293166 0.0447933 0)
(0.00498858 0.054892 0)
(0.00320982 0.0123585 0)
(-0.000788998 0.0227335 0)
(0.000192062 0.0243528 0)
(-0.00182371 0.024462 0)
(-0.00180689 0.0249767 0)
(-0.00267794 0.0254615 0)
(-0.0031115 0.0260599 0)
(-0.00349788 0.0267435 0)
(-0.00374199 0.0275247 0)
(-0.00381511 0.0284205 0)
(-0.00370286 0.0294267 0)
(-0.00337137 0.0305352 0)
(-0.00277118 0.0317165 0)
(-0.00184725 0.0329282 0)
(-0.000513491 0.0341534 0)
(0.00130961 0.0353581 0)
(0.00373028 0.0364811 0)
(0.00688625 0.0374369 0)
(0.0109232 0.0381403 0)
(0.0159834 0.0383702 0)
(0.0223725 0.0378208 0)
(0.0298955 0.0360797 0)
(0.00545037 0.0504394 0)
(0.00330193 0.0155291 0)
(-0.000900282 0.0240671 0)
(0.000180502 0.0249648 0)
(-0.00198659 0.0251624 0)
(-0.0019331 0.0255291 0)
(-0.00288902 0.0259361 0)
(-0.00336151 0.026432 0)
(-0.00379603 0.0270028 0)
(-0.00409208 0.0276484 0)
(-0.00425484 0.0283771 0)
(-0.00425779 0.0291791 0)
(-0.00405765 0.0300499 0)
(-0.00360279 0.0309343 0)
(-0.00282305 0.0317795 0)
(-0.00166905 0.032552 0)
(-7.43954e-05 0.0332247 0)