/*--------------------------------*- C++ -*----------------------------------*\
| =========                 |                                                 |
| \\      /  F ield         | OpenFOAM: The Open Source CFD Toolbox           |
|  \\    /   O peration     | Version:  2206                                  |
|   \\  /    A nd           | Website:  www.openfoam.com                      |
|    \\/     M anipulation  |                                                 |
\*---------------------------------------------------------------------------*/
FoamFile
{
    version     2.0;
    format      ascii;
    arch        "LSB;label=32;scalar=64";
    class       surfaceScalarField;
    location    "0.85";
    object      alphaPhi0.water;
}
// * * * * * * * * * * * * * * * * * * * * * * * * * * * * * * * * * * * * * //

dimensions      [0 3 -1 0 0 0 0];

oriented        oriented;

internalField   nonuniform List<scalar> 
4432
(
-6.82544e-07
6.82543e-07
-7.28125e-07
4.55774e-08
-8.91888e-08
-6.38939e-07
9.21778e-07
-1.01097e-06
2.04993e-06
-1.12815e-06
3.03759e-06
-9.87661e-07
3.75558e-06
-7.17994e-07
4.1707e-06
-4.15125e-07
4.30286e-06
-1.32163e-07
4.20721e-06
9.56516e-08
3.94849e-06
2.58712e-07
3.59645e-06
3.5204e-07
3.18448e-06
4.11967e-07
2.70121e-06
4.8327e-07
2.10151e-06
5.9969e-07
1.32831e-06
7.73198e-07
3.39455e-07
9.88855e-07
-9.17471e-07
1.25692e-06
-2.2549e-06
1.33743e-06
-3.15668e-06
9.01775e-07
-3.11735e-06
-3.93319e-08
-1.94913e-06
-1.16822e-06
-1.94914e-06
-8.10923e-07
1.49346e-06
-8.10075e-07
4.47226e-08
-1.74572e-07
-1.27445e-06
8.34821e-07
-2.02037e-06
1.9838e-06
-2.27714e-06
2.99564e-06
-1.9995e-06
3.72853e-06
-1.45089e-06
4.17776e-06
-8.64364e-07
4.39054e-06
-3.4494e-07
4.42206e-06
6.41194e-08
4.32901e-06
3.51759e-07
4.15217e-06
5.28878e-07
3.93029e-06
6.33842e-07
3.68599e-06
7.27569e-07
3.41192e-06
8.73749e-07
3.06547e-06
1.11965e-06
2.58026e-06
1.47405e-06
1.95289e-06
1.88429e-06
1.24732e-06
2.043e-06
5.29162e-07
1.61993e-06
-2.87949e-07
7.77774e-07
-5.69769e-07
-8.86405e-07
-2.51891e-06
-8.55591e-07
2.34905e-06
-9.60034e-07
1.49161e-07
-5.47784e-07
-1.6867e-06
2.64297e-07
-2.83245e-06
1.43687e-06
-3.44971e-06
2.59108e-06
-3.15372e-06
3.41727e-06
-2.27707e-06
3.90624e-06
-1.35333e-06
4.14924e-06
-5.87943e-07
4.22183e-06
-8.47785e-09
4.16093e-06
4.12652e-07
4.0247e-06
6.65108e-07
3.85826e-06
8.00277e-07
3.70113e-06
8.847e-07
3.58801e-06
9.86859e-07
3.54731e-06
1.16035e-06
3.5841e-06
1.43726e-06
3.67546e-06
1.79293e-06
3.64538e-06
2.07307e-06
3.27606e-06
1.98925e-06
2.62674e-06
1.42708e-06
1.42287e-06
3.17465e-07
-1.09604e-06
-9.92854e-07
3.3419e-06
-1.47982e-06
6.36125e-07
-1.72508e-06
-1.44145e-06
-1.34092e-06
-3.21661e-06
-1.86825e-07
-4.60381e-06
1.31123e-06
-4.65178e-06
2.52938e-06
-3.49523e-06
3.2704e-06
-2.09436e-06
3.67338e-06
-9.90922e-07
3.86767e-06
-2.02771e-07
3.9299e-06
3.50421e-07
3.90047e-06
6.94538e-07
3.8225e-06
8.78235e-07
3.73392e-06
9.73276e-07
3.6681e-06
1.05268e-06
3.65687e-06
1.17158e-06
3.73489e-06
1.35923e-06
3.91205e-06
1.61577e-06
4.08801e-06
1.8971e-06
3.99923e-06
2.07803e-06
3.36059e-06
2.06572e-06
1.92618e-06
1.75186e-06
8.30142e-07
-1.28351e-06
4.62541e-06
-2.48312e-06
1.83573e-06
-3.51637e-06
-4.08201e-07
-3.54517e-06
-3.18781e-06
-2.58652e-06
-5.56246e-06
-9.80423e-07
-6.25788e-06
7.77386e-07
-5.25304e-06
2.05547e-06
-3.37244e-06
2.81527e-06
-1.75072e-06
3.25311e-06
-6.40621e-07
3.51599e-06
8.75422e-08
3.66248e-06
5.48048e-07
3.73454e-06
8.06172e-07
3.7653e-06
9.42507e-07
3.78253e-06
1.03544e-06
3.80629e-06
1.14782e-06
3.84852e-06
1.317e-06
3.91025e-06
1.55404e-06
3.95579e-06
1.85155e-06
3.84522e-06
2.1886e-06
3.31882e-06
2.59211e-06
2.06537e-06
3.00532e-06
2.89551e-06
-1.56163e-06
6.18703e-06
-3.32575e-06
3.59986e-06
-4.65284e-06
9.18886e-07
-4.9912e-06
-2.84945e-06
-4.50994e-06
-6.04372e-06
-3.26126e-06
-7.50655e-06
-1.42935e-06
-7.08496e-06
3.45191e-07
-5.14698e-06
1.57576e-06
-2.9813e-06
2.35796e-06
-1.42282e-06
2.88288e-06
-4.37384e-07
3.25848e-06
1.72444e-07
3.52734e-06
5.37312e-07
3.7218e-06
7.48049e-07
3.86728e-06
8.89951e-07
3.98498e-06
1.03012e-06
4.08008e-06
1.22191e-06
4.13224e-06
1.50187e-06
4.08713e-06
1.89666e-06
3.85022e-06
2.4255e-06
3.2678e-06
3.17454e-06
2.06113e-06
4.21198e-06
4.95664e-06
-1.33537e-06
7.5224e-06
-2.89805e-06
5.16253e-06
-3.97719e-06
1.99803e-06
-4.30856e-06
-2.51808e-06
-4.37038e-06
-5.9819e-06
-3.9848e-06
-7.89213e-06
-2.86929e-06
-8.20047e-06
-1.27222e-06
-6.74406e-06
1.84579e-07
-4.4381e-06
1.27645e-06
-2.51468e-06
2.07675e-06
-1.23768e-06
2.6944e-06
-4.4521e-07
3.18906e-06
4.26543e-08
3.58292e-06
3.54184e-07
3.89688e-06
5.75987e-07
4.1554e-06
7.71595e-07
4.3703e-06
1.007e-06
4.53204e-06
1.34013e-06
4.58758e-06
1.84112e-06
4.45405e-06
2.55904e-06
3.96793e-06
3.66065e-06
2.95637e-06
5.22353e-06
7.91301e-06
-5.1613e-07
8.03853e-06
-1.31746e-06
5.96386e-06
-1.39219e-06
2.07276e-06
-1.30057e-06
-2.60971e-06
-1.63003e-06
-5.65244e-06
-2.23817e-06
-7.284e-06
-2.42631e-06
-8.01233e-06
-1.83969e-06
-7.33067e-06
-8.18752e-07
-5.45903e-06
2.83242e-07
-3.61668e-06
1.26809e-06
-2.22253e-06
2.10048e-06
-1.27761e-06
2.80065e-06
-6.57512e-07
3.38542e-06
-2.30582e-07
3.86939e-06
9.20108e-08
4.2942e-06
3.46785e-07
4.67133e-06
6.29869e-07
5.003e-06
1.00845e-06
5.24415e-06
1.59997e-06
5.28134e-06
2.52184e-06
4.79057e-06
4.15143e-06
3.51808e-06
6.49602e-06
1.14311e-05
3.81303e-07
-3.85798e-07
-7.43143e-06
2.97575e-06
-2.5994e-05
1.76863e-05
-3.50135e-05
1.14341e-05
-4.40655e-05
-5.89435e-07
-6.33485e-05
-2.37532e-06
-8.73419e-05
7.06333e-06
-0.000108967
1.37375e-05
-0.000100473
-1.4442e-06
-8.21209e-05
-2.08632e-05
-5.57269e-05
-2.90732e-05
-3.56434e-05
-2.2951e-05
-3.70103e-05
-1.79576e-06
-5.82742e-05
2.11913e-05
-8.05576e-05
2.22848e-05
-8.13841e-05
8.33736e-07
-6.43985e-05
-1.69763e-05
-3.22724e-05
-3.21261e-05
-3.22723e-05
-8.30474e-06
7.63753e-06
-2.43524e-05
1.41693e-05
-1.59242e-05
1.71445e-05
-9.92148e-06
-3.75525e-07
-4.89135e-06
-1.05715e-05
-2.21187e-05
3.4525e-06
-9.30729e-05
2.67338e-05
-0.000108845
2.96209e-05
-0.000108743
-1.44979e-06
-9.85285e-05
-3.09159e-05
-8.4814e-05
-4.28071e-05
-7.83503e-05
-2.9438e-05
-8.49867e-05
4.79979e-06
-9.3793e-05
2.99719e-05
-9.14195e-05
1.99153e-05
-7.91865e-05
-1.13944e-05
-6.27451e-05
-3.33846e-05
-3.33623e-05
-6.15088e-05
-6.56347e-05
-1.30525e-05
2.01335e-05
-1.39145e-05
1.53058e-05
-1.10745e-05
9.86223e-06
1.43239e-08
-1.72564e-05
1.05769e-05
-3.30817e-05
1.94882e-05
8.20877e-06
-3.85794e-06
5.64201e-05
-5.19811e-05
3.02205e-05
-8.56821e-05
1.26461e-05
-8.63921e-05
-3.02052e-05
-8.48191e-05
-4.43904e-05
-8.6263e-05
-2.80134e-05
-8.95683e-05
8.08172e-06
-8.6858e-05
2.72206e-05
-7.06189e-05
9.07884e-06
-5.82455e-05
-1.5608e-05
-4.71023e-05
-3.96268e-05
-2.8284e-05
-8.11154e-05
-9.39186e-05
-1.00086e-05
3.01163e-05
-9.94839e-06
3.20292e-05
-7.72424e-06
3.19578e-06
1.01483e-05
-5.84719e-05
3.4761e-05
-7.66985e-05
4.21778e-05
-1.98851e-06
3.65371e-05
9.48226e-05
2.34667e-05
3.96936e-05
-9.76684e-06
4.06666e-05
-4.76741e-05
4.30126e-06
-6.45361e-05
-2.75278e-05
-7.25684e-05
-2.00504e-05
-7.38577e-05
9.40025e-06
-6.35943e-05
2.02471e-05
-4.37859e-05
1.34286e-06
-3.69239e-05
-2.25618e-05
-2.78282e-05
-4.88371e-05
-1.74456e-05
-0.000102723
-0.000111364
-7.32125e-06
3.79239e-05
-7.25014e-06
2.71639e-05
-7.12003e-06
-2.3105e-06
1.19795e-05
-0.000140335
7.93503e-06
-7.46886e-05
1.79465e-05
-8.73176e-06
4.04833e-05
3.58041e-05
4.66498e-05
4.97433e-05
4.074e-05
5.24407e-05
-5.88628e-07
4.61092e-05
-3.49663e-05
7.48913e-06
-5.01728e-05
-5.85084e-06
-5.17389e-05
9.48671e-06
-4.0797e-05
1.38911e-05
-2.57349e-05
-5.97942e-06
-1.78584e-05
-3.05834e-05
-1.17443e-05
-5.50228e-05
-4.12419e-06
-0.000110281
-0.000115488
-6.54197e-06
3.54922e-05
-8.99878e-06
2.49289e-05
-1.04975e-05
-6.37862e-06
-2.55835e-05
-0.000123507
-2.1863e-05
-6.11055e-05
-1.40794e-05
-1.74988e-05
8.14205e-06
1.08146e-05
2.29603e-05
3.14821e-05
3.75573e-05
3.98873e-05
2.35013e-05
6.26381e-05
-7.99088e-06
3.94608e-05
-2.60256e-05
1.24775e-05
-2.24922e-05
1.17333e-05
-1.49005e-05
6.10098e-06
-6.90245e-06
-1.41757e-05
1.35584e-06
-3.90401e-05
7.68973e-06
-6.15563e-05
8.07423e-06
-0.000110265
-0.000107411
-6.77809e-06
3.67924e-05
-1.5394e-05
2.8352e-05
-3.63424e-05
-3.36248e-05
-7.07271e-05
-8.83972e-05
-6.09175e-05
-5.85569e-05
-3.13652e-05
-4.14831e-05
-1.49002e-05
-9.09341e-06
6.01994e-07
1.2537e-05
1.06825e-05
2.63639e-05
2.34985e-05
5.39958e-05
8.86926e-06
5.44038e-05
-4.36417e-06
2.58842e-05
-6.16977e-06
1.41993e-05
6.62371e-07
2.15157e-07
1.07528e-05
-2.44644e-05
1.92435e-05
-4.77304e-05
2.43462e-05
-6.67604e-05
1.69641e-05
-0.000101997
-9.043e-05
-9.45745e-06
4.08358e-05
-2.81634e-05
3.64926e-05
-6.85899e-05
-5.42417e-05
-0.000109943
-4.66633e-05
-0.000119528
-4.82461e-05
-9.85335e-05
-6.18609e-05
-4.1506e-05
-3.18777e-05
-2.15946e-05
-1.72029e-06
-1.08669e-05
1.51934e-05
3.31186e-06
3.29885e-05
1.05736e-05
4.5678e-05
1.18138e-05
2.47152e-05
1.55789e-05
1.04297e-05
2.29565e-05
-7.28034e-06
2.71692e-05
-3.49348e-05
3.31018e-05
-5.87188e-05
3.80039e-05
-7.07976e-05
2.2048e-05
-8.59106e-05
-6.83317e-05
4.75046e-06
3.28807e-06
7.28557e-06
3.42874e-06
8.86179e-06
4.96535e-07
9.73617e-06
-3.48408e-06
8.90629e-06
-4.82233e-06
5.95187e-06
-4.32956e-06
2.50342e-06
-4.56376e-06
4.34737e-07
-5.26158e-06
1.33531e-08
-5.03728e-06
7.92083e-07
-4.39517e-06
2.32489e-06
-3.75519e-06
4.13802e-06
-3.09066e-06
5.94835e-06
-2.46782e-06
7.63335e-06
-1.91558e-06
9.18305e-06
-1.4577e-06
1.06168e-05
-1.08693e-06
1.20107e-05
-7.641e-07
1.35038e-05
-4.8461e-07
1.53605e-05
-2.5677e-07
1.79218e-05
-3.94415e-08
2.13553e-05
7.1796e-07
2.67174e-05
1.13395e-06
2.44034e-06
3.57081e-05
5.42615e-06
-1.01578e-06
1.15004e-05
-1.42045e-06
1.54502e-05
-2.19494e-06
1.62022e-05
-2.82247e-06
1.49324e-05
-2.0444e-06
1.33348e-05
-8.88128e-07
1.15711e-05
-8.22291e-07
9.35692e-06
-1.27906e-06
7.41321e-06
-1.49872e-06
6.31007e-06
-1.56208e-06
6.02004e-06
-1.62049e-06
6.3967e-06
-1.57437e-06
7.11481e-06
-1.43217e-06
7.97218e-06
-1.24454e-06
9.07806e-06
-1.10806e-06
1.04383e-05
-1.02817e-06
1.19737e-05
-9.28963e-07
1.34925e-05
-8.19644e-07
1.52999e-05
-9.4508e-07
1.8162e-05
-1.29858e-06
2.02611e-05
-4.44814e-07
2.20249e-05
-1.1569e-07
-9.01413e-08
2.44544e-05
7.27501e-07
-1.16501e-12
1.0484e-06
-1.10109e-10
5.90259e-07
-3.17587e-09
-4.16523e-07
3.06005e-09
-6.60368e-07
-1.55629e-13
1.59121e-07
-5.25691e-12
1.1595e-06
-7.18056e-11
1.70133e-06
-6.62277e-10
1.86721e-06
-4.88182e-09
1.53661e-06
-3.07897e-08
7.71747e-07
-3.3487e-09
1.74955e-07
9.08751e-09
-2.64531e-07
-2.59068e-09
-5.5427e-07
-6.46435e-09
-5.48819e-07
-3.46878e-08
-4.56421e-07
-5.52692e-08
-8.92472e-07
-1.32116e-07
-2.55828e-06
-3.32381e-07
-4.38626e-06
-5.6358e-08
-2.06688e-06
2.84224e-07
-1.68975e-07
1.18108e-07
-2.09957e-07
3.56189e-08
1.31127e-08
-2.75531e-07
-2.86019e-13
-2.50364e-12
-8.90319e-11
-2.29662e-11
-2.80128e-09
-5.38439e-11
-7.20257e-14
2.58497e-10
-3.18514e-13
-2.53132e-13
-5.11602e-12
-7.7765e-13
-7.18692e-11
-5.62663e-12
-7.28514e-10
-8.83185e-12
-5.57643e-09
-5.25574e-11
-3.60122e-08
-4.89993e-10
-3.94684e-08
-1.1592e-10
-3.11332e-08
-3.82138e-11
-3.48453e-08
-5.45013e-11
-4.47892e-08
-2.73498e-11
-1.4327e-07
-1.12754e-09
-4.23629e-07
-1.14869e-08
-4.24884e-07
-2.36711e-08
-5.39603e-07
-2.8625e-08
-5.74503e-07
7.01974e-09
-2.94261e-07
1.4064e-08
-1.94415e-07
8.83906e-09
-2.14156e-07
1.14217e-08
-8.82969e-09
-2.14931e-07
-5.16346e-12
1.03517e-12
-1.13782e-10
7.64865e-12
-2.63349e-10
-1.64433e-12
-1.22041e-11
4.00443e-12
-1.78088e-11
1.97842e-12
-6.409e-11
3.01565e-11
-1.09628e-10
6.729e-11
-1.42794e-10
5.38302e-11
-2.6213e-10
1.82306e-11
-8.19021e-10
-1.18275e-11
-9.58605e-10
-1.23965e-11
-1.09534e-09
-2.61548e-12
-1.43208e-09
1.28022e-11
-2.59951e-09
1.68934e-10
-9.69996e-09
1.00585e-09
-9.36113e-08
6.9663e-10
-1.6164e-07
-6.18968e-09
-8.46901e-08
3.90552e-09
-7.1221e-08
6.77845e-09
-6.12983e-08
4.79342e-09
-6.35985e-08
3.37537e-09
-9.54687e-08
2.6683e-09
-1.53071e-08
-1.3801e-07
-4.80709e-12
1.89462e-12
-1.10042e-11
-2.05838e-13
-7.84001e-12
-3.77466e-14
-5.30684e-12
-3.6402e-14
-2.39027e-11
3.58059e-12
-1.4575e-10
3.57584e-11
-1.14398e-10
6.54867e-11
-3.55552e-11
1.01985e-11
-1.84256e-11
5.76437e-13
-3.13313e-11
-5.84042e-13
-4.89378e-11
-3.85929e-13
-7.0209e-11
1.08644e-12
-1.33898e-10
1.13115e-11
-2.39913e-10
7.08461e-11
-3.13485e-10
3.62703e-10
-2.07118e-08
6.0367e-10
-4.84904e-08
-2.25298e-11
-2.86815e-08
6.91423e-09
-1.83071e-08
1.77227e-09
-1.33895e-08
4.77575e-10
-1.10872e-08
3.06126e-10
-1.52425e-08
8.12052e-10
-2.14629e-09
-4.59821e-08
-3.09172e-13
1.42404e-12
-2.76079e-13
-7.69434e-14
-3.64341e-13
2.08935e-14
-6.12086e-13
-5.99146e-14
-1.62742e-11
2.07727e-12
-3.70923e-11
-5.259e-13
-1.17565e-11
1.19905e-12
-1.77366e-12
2.60163e-13
-1.30812e-12
4.25804e-14
-2.09494e-12
-1.32072e-14
-3.52228e-12
1.75366e-13
-6.43292e-12
1.20925e-12
-1.30038e-11
5.99245e-12
-3.66392e-11
3.18745e-11
-6.45721e-11
1.77936e-10
-1.74152e-09
7.40388e-10
-9.29169e-09
1.61763e-09
-8.63063e-09
1.2666e-09
-2.44893e-09
1.17211e-09
-1.3431e-09
-5.29537e-11
-1.60568e-09
-3.61351e-11
-3.24922e-09
-1.06516e-10
9.46282e-11
-6.8461e-09
-1.90604e-13
3.53252e-12
-2.78421e-14
2.00761e-13
-2.3707e-14
1.40134e-14
-3.2553e-13
3.48651e-15
-6.95076e-13
-5.05194e-14
-1.38558e-12
9.63292e-15
-3.74636e-13
7.19648e-14
-1.21617e-13
5.72652e-15
-1.02933e-13
1.03012e-14
-1.74785e-13
3.3846e-14
-4.17157e-13
1.44707e-13
-1.13127e-12
7.6828e-13
-3.55331e-12
5.13816e-12
-1.62525e-11
3.3737e-11
-5.55197e-11
1.78404e-10
-1.73664e-09
1.38854e-09
-3.88169e-09
5.80316e-10
-9.83724e-10
1.06972e-09
-1.57349e-10
1.70928e-10
-7.92825e-11
2.15053e-11
-9.57919e-11
-3.39582e-12
-1.9133e-10
-9.95008e-12
8.96851e-12
-2.03796e-10
4.84755e-14
3.6103e-12
-1.55229e-14
1.19328e-12
-3.57999e-15
1.79667e-15
-8.55258e-15
6.72412e-16
-6.51316e-14
-1.98274e-15
-7.13421e-14
2.04022e-15
-1.49778e-14
5.04172e-15
-1.26205e-14
1.93447e-15
-1.67029e-14
7.62865e-15
-3.3251e-14
3.10407e-14
-7.54385e-14
1.4344e-13
-3.48521e-13
9.53755e-13
-3.73149e-12
8.76203e-12
-6.56241e-11
9.96326e-11
-7.18284e-10
1.06372e-09
-2.33512e-09
2.01446e-09
-1.03604e-09
6.1992e-10
-1.66378e-10
2.54384e-10
-1.29358e-11
2.94286e-11
4.82375e-12
7.90232e-12
7.74118e-12
4.88578e-12
1.34361e-12
2.02205e-12
4.60102e-12
5.07573e-12
1.37379e-13
3.59917e-12
-1.77193e-15
1.34086e-12
-2.09541e-16
2.08176e-16
-6.47206e-16
1.20062e-16
-2.90523e-15
4.82742e-16
-3.86865e-15
8.76285e-16
-1.57367e-15
7.4607e-16
-2.07659e-15
1.05679e-15
-9.899e-16
5.08164e-15
-1.66487e-14
4.14247e-14
-3.05976e-13
4.29112e-13
-4.05707e-12
4.65926e-12
-3.28909e-11
3.68501e-11
-6.13782e-10
6.5909e-10
-1.13981e-09
1.43265e-09
-1.56694e-09
1.32026e-09
-2.8316e-10
4.93048e-10
-4.48729e-11
3.18086e-11
-1.07063e-11
6.89117e-12
-2.29432e-12
8.20646e-12
4.81916e-13
6.64938e-12
1.47398e-12
1.60149e-12
3.99393e-12
-3.15395e-13
-9.44669e-14
1.15566e-12
-2.00874e-16
6.95949e-13
-1.62173e-17
2.35165e-17
-5.8033e-17
1.18316e-16
-2.5013e-16
5.64379e-16
-3.97753e-16
9.55721e-16
-4.35795e-16
2.82962e-16
-8.89441e-16
4.92598e-16
-5.23967e-16
4.21565e-15
-1.37255e-14
4.90674e-14
-2.03734e-13
5.61992e-13
-2.68355e-12
6.46912e-12
-6.47441e-11
5.92098e-11
-1.60375e-09
7.19536e-10
-1.75051e-09
1.20934e-09
-4.85944e-10
5.8047e-10
-4.72574e-11
7.00937e-11
-1.23937e-11
6.71196e-12
-5.64421e-12
6.79918e-12
-3.61977e-12
7.855e-12
-1.92327e-12
5.78267e-12
-5.58698e-13
2.64199e-12
3.79412e-12
-3.27082e-13
-3.56901e-14
1.56555e-14
1.03613e-20
5.80871e-14
5.1378e-18
-1.47894e-19
6.56802e-18
-3.55097e-17
-5.49674e-18
-2.68354e-17
-5.15799e-17
1.62336e-17
-1.00646e-16
1.33023e-16
-2.98295e-16
3.08089e-16
1.45416e-15
3.06407e-15
8.58339e-15
3.50131e-14
5.37348e-14
4.4859e-13
3.79973e-13
5.37048e-12
2.01595e-11
3.13318e-11
-1.14998e-09
3.02071e-10
-1.40048e-09
8.72263e-10
-8.32338e-11
7.03725e-11
-1.1623e-11
8.25526e-12
-5.94663e-12
7.74442e-12
-3.70719e-12
8.7918e-12
-3.19292e-12
8.16803e-12
-2.58211e-12
6.39089e-12
-1.90821e-12
3.67419e-12
3.69767e-12
-2.68944e-12
-4.50538e-15
7.57819e-15
1.35107e-18
5.30396e-15
1.78415e-17
-1.38941e-17
6.93304e-17
-1.11813e-16
1.56459e-16
-2.97022e-16
1.75378e-16
-5.10212e-16
-1.51395e-16
-4.63619e-16
-2.36937e-16
3.38631e-16
1.95121e-16
1.96856e-15
1.06748e-14
1.9426e-14
1.27981e-13
2.75067e-13
2.91327e-12
1.94975e-12
-6.20644e-11
2.79359e-11
-2.9372e-10
-1.74957e-11
-1.88435e-10
1.1434e-11
-3.41978e-11
1.47325e-11
-1.27937e-11
1.27149e-11
-1.35815e-11
1.83061e-11
-4.28993e-11
4.21603e-11
-6.35111e-11
6.07573e-11
-3.06723e-12
4.27028e-11
-2.96635e-12
2.86196e-12
3.02739e-12
-2.91445e-12
-5.33857e-16
4.42528e-15
2.05831e-18
1.66436e-15
2.12804e-17
-1.99203e-17
8.33605e-17
-1.33197e-16
1.97184e-16
-3.78653e-16
2.63727e-16
-7.01416e-16
1.92782e-18
-7.71506e-16
-1.12341e-15
-4.80426e-18
-5.52763e-16
1.02056e-15
1.2007e-14
9.21675e-15
1.60294e-13
9.68492e-14
-3.6554e-12
1.08713e-12
-1.67207e-11
1.1322e-12
-1.92696e-11
-9.82446e-14
-1.40322e-11
2.64185e-12
-8.20629e-12
3.22746e-12
-1.16571e-11
1.72446e-11
-5.76673e-11
5.18726e-11
-7.91962e-11
6.56562e-11
-8.40287e-11
6.85585e-11
-1.02013e-10
6.61451e-11
-4.95786e-11
5.91494e-11
1.99973e-11
-1.56528e-11
-1.02588e-16
1.8317e-15
1.95722e-18
4.42218e-16
1.84105e-17
-2.04998e-17
7.29668e-17
-1.23671e-16
1.78611e-16
-3.59487e-16
2.64683e-16
-6.94836e-16
1.24789e-16
-8.51744e-16
-4.96949e-16
-3.43241e-16
-5.03766e-16
4.95976e-16
3.73285e-15
5.16738e-15
4.57308e-14
4.21756e-14
-1.57745e-12
6.22929e-13
-1.95744e-12
-3.6797e-14
-2.77432e-12
2.0694e-13
-1.53669e-12
5.49073e-13
-4.19593e-12
2.34319e-12
-6.38276e-11
2.29707e-11
-7.8914e-11
6.89261e-11
-8.40075e-11
7.26282e-11
-8.62917e-11
7.29035e-11
-8.62959e-11
6.91179e-11
-7.7077e-11
5.53878e-11
2.49535e-11
-3.09755e-11
-1.91264e-17
5.64428e-16
1.53223e-18
9.40409e-17
1.37138e-17
-1.81188e-17
5.52414e-17
-1.01389e-16
1.39237e-16
-2.97721e-16
2.21479e-16
-5.92132e-16
1.59184e-16
-7.7967e-16
-2.21502e-16
-4.79297e-16
-2.57934e-16
2.29691e-16
-2.27659e-15
3.69399e-15
-9.75666e-14
4.26271e-14
-1.82752e-13
7.61985e-14
-3.39463e-13
3.14855e-14
-3.00357e-13
6.12922e-14
-1.98382e-13
1.72753e-13
1.60707e-14
9.30528e-13
-2.62509e-11
6.56457e-12
-7.49236e-11
5.12209e-11
-7.80917e-11
7.73195e-11
-7.86776e-11
7.5424e-11
-6.60839e-11
5.85175e-11
-3.17116e-11
1.1498e-11
1.85137e-12
-1.0238e-11
-3.8076e-18
1.57221e-16
1.11604e-18
1.86832e-17
9.51346e-18
-1.46212e-17
3.862e-17
-7.69339e-17
9.93407e-17
-2.26668e-16
1.66064e-16
-4.59327e-16
1.44535e-16
-6.35118e-16
-1.04821e-16
-4.72523e-16
-1.77426e-16
1.4309e-16
-4.80075e-15
2.38935e-15
-3.05497e-14
1.81102e-14
-3.76566e-14
2.78766e-14
-4.88879e-14
2.57008e-14
-5.34799e-14
2.98088e-14
-6.31406e-14
8.36593e-14
3.01435e-13
3.33334e-13
1.38679e-12
1.34545e-12
-3.91805e-11
6.91272e-12
-7.21807e-11
4.77507e-11
-5.18023e-11
5.54874e-11
-1.26334e-11
6.93535e-12
-2.5059e-12
1.22924e-12
3.99333e-13
-1.12563e-12
-8.85176e-19
4.22737e-17
7.86633e-19
3.06748e-18
6.3343e-18
-1.10522e-17
2.56316e-17
-5.52098e-17
6.6655e-17
-1.62402e-16
1.15309e-16
-3.32775e-16
1.13128e-16
-4.75978e-16
-4.52805e-17
-3.98844e-16
-1.09649e-16
1.3427e-16
-2.36182e-15
9.87545e-16
-1.03782e-14
6.55037e-15
-1.38004e-14
1.34592e-14
-1.6356e-14
1.81438e-14
-1.9973e-14
2.18588e-14
-2.54612e-14
4.3069e-14
7.49919e-14
1.36062e-13
-6.25927e-15
5.56182e-13
-1.02167e-11
-6.11991e-13
-1.74825e-11
-8.51426e-14
-7.2879e-12
1.86849e-12
-1.21408e-12
8.34502e-13
-3.12062e-13
2.63473e-13
1.70028e-13
-1.70769e-13
-2.53455e-19
1.13638e-17
5.34623e-19
7.58741e-19
4.06618e-18
-7.91378e-18
1.629e-17
-3.78553e-17
4.25297e-17
-1.10804e-16
7.53017e-17
-2.28299e-16
8.07233e-17
-3.34259e-16
-1.14707e-18
-3.05823e-16
-2.49013e-16
3.79408e-18
-7.98545e-16
3.54021e-16
-3.30564e-15
2.32369e-15
-5.89632e-15
5.74987e-15
-7.98122e-15
9.63357e-15
-1.09715e-14
1.4607e-14
-1.9422e-14
3.40078e-14
-1.35827e-13
1.14827e-13
-2.87394e-13
1.62514e-13
-1.30484e-12
-2.76003e-14
-2.02921e-12
1.08931e-13
-8.23955e-13
3.05594e-13
-1.87579e-13
1.71332e-13
-8.81647e-14
1.04693e-13
8.94762e-14
-9.78554e-14
-9.02921e-20
3.05979e-18
3.46259e-19
3.2219e-19
2.5063e-18
-5.39688e-18
9.9191e-18
-2.49205e-17
2.58927e-17
-7.24517e-17
4.65605e-17
-1.49537e-16
5.32275e-17
-2.2244e-16
1.46866e-17
-2.16906e-16
-9.29711e-17
-5.21875e-17
-2.56269e-16
1.21399e-16
-1.07251e-15
8.02005e-16
-2.15521e-15
2.13582e-15
-3.63421e-15
4.09838e-15
-8.07475e-15
9.15481e-15
-3.12663e-14
3.04873e-14
-7.5924e-14
7.62401e-14
-1.04443e-13
8.03839e-14
-2.37478e-13
5.69048e-14
-2.74608e-13
5.85014e-14
-1.14848e-13
7.94024e-14
-6.28686e-14
8.55609e-14
-7.74545e-14
7.28801e-14
9.63436e-14
-1.43796e-13
3.29575e-22
8.1792e-19
2.12275e-19
-1.17735e-20
1.47675e-18
-3.51668e-18
5.77605e-18
-1.5789e-17
1.50458e-17
-4.55689e-17
2.73389e-17
-9.40048e-17
3.27391e-17
-1.41351e-16
1.54531e-17
-1.44321e-16
-2.9116e-17
-5.93404e-17
-7.63385e-17
3.60607e-17
-3.24661e-16
2.59839e-16
-7.32727e-16
7.6101e-16
-1.70334e-15
1.82431e-15
-6.41609e-15
6.04608e-15
-2.47901e-14
2.26294e-14
-4.3756e-14
4.71997e-14
-5.40403e-14
5.55836e-14
-6.16143e-14
5.36745e-14
-5.96416e-14
4.25508e-14
-4.21789e-14
3.83249e-14
-5.62029e-14
5.46593e-14
-9.01194e-14
7.81847e-14
3.04662e-13
-3.66763e-13
2.51068e-21
2.17933e-19
1.22902e-19
-9.5314e-20
8.29173e-19
-2.19472e-18
3.20983e-18
-9.64079e-18
8.33774e-18
-2.76318e-17
1.52607e-17
-5.69158e-17
1.89123e-17
-8.62363e-17
1.14046e-17
-9.10936e-17
-8.01858e-18
-4.78184e-17
-2.00097e-17
8.92391e-18
-9.27849e-17
7.97929e-17
-2.57121e-16
2.81866e-16
-8.81993e-16
9.06637e-16
-4.42683e-15
3.91064e-15
-1.47914e-14
1.40827e-14
-2.46985e-14
2.74401e-14
-2.93938e-14
3.44325e-14
-3.01207e-14
3.67082e-14
-2.69484e-14
3.28603e-14
-3.02214e-14
3.12103e-14
-5.83151e-14
5.04808e-14
-1.69686e-13
1.4463e-13
9.48496e-13
-9.95382e-13
2.25134e-21
5.7058e-20
6.71426e-20
-9.25978e-20
4.42513e-19
-1.31428e-18
1.69842e-18
-5.67847e-18
4.39974e-18
-1.61787e-17
8.0972e-18
-3.32704e-17
1.03036e-17
-5.07069e-17
7.15897e-18
-5.49962e-17
-1.91229e-18
-3.32527e-17
-4.52927e-18
5.78366e-18
-2.62668e-17
2.41551e-17
-9.757e-17
1.12065e-16
-4.713e-16
4.76335e-16
-2.50174e-15
2.26959e-15
-7.43194e-15
7.46871e-15
-1.22108e-14
1.40655e-14
-1.49739e-14
1.82892e-14
-1.61775e-14
1.99615e-14
-1.62925e-14
2.11038e-14
-1.70004e-14
2.27876e-14
-3.7039e-14
5.0167e-14
-2.03851e-13
2.52345e-13
1.84957e-12
-1.41875e-12
1.48681e-21
1.42589e-20
3.45618e-20
-6.76789e-20
2.23817e-19
-7.56311e-19
8.5327e-19
-3.22863e-18
2.20561e-18
-9.15701e-18
4.07793e-18
-1.88095e-17
5.3019e-18
-2.88152e-17
4.05901e-18
-3.19404e-17
-1.63215e-19
-2.12818e-17
-3.45617e-18
7.56443e-19
-7.63851e-18
7.57505e-18
-3.91994e-17
4.6865e-17
-2.33689e-16
2.41933e-16
-1.17068e-15
1.14021e-15
-3.17433e-15
3.42756e-15
-5.15771e-15
6.25549e-15
-6.46189e-15
8.25927e-15
-7.42118e-15
9.38885e-15
-8.15211e-15
1.04748e-14
-9.00336e-15
1.42576e-14
-2.46309e-14
4.85798e-14
-1.40904e-13
3.01557e-13
2.2724e-12
-9.20957e-13
8.37813e-22
3.15137e-21
1.67177e-20
-4.32696e-20
1.06879e-19
-4.18746e-19
4.05437e-19
-1.77312e-18
1.0466e-18
-5.01424e-18
1.94338e-18
-1.02975e-17
2.57317e-18
-1.58556e-17
2.11992e-18
-1.79102e-17
3.21329e-19
-1.28498e-17
-1.40308e-18
-1.72276e-18
-2.33335e-18
2.56816e-18
-1.55656e-17
1.95872e-17
-1.00527e-16
1.11574e-16
-4.60416e-16
4.96998e-16
-1.16455e-15
1.39294e-15
-1.86361e-15
2.47855e-15
-2.3619e-15
3.28313e-15
-2.80268e-15
3.83618e-15
-3.44076e-15
4.64724e-15
-4.62191e-15
8.44146e-15
-5.85722e-15
3.64843e-14
-4.57127e-14
2.80347e-13
2.20972e-12
-2.90078e-13
4.20214e-22
5.43381e-22
7.56404e-21
-2.53785e-20
4.79245e-20
-2.23304e-19
1.81187e-19
-9.41093e-19
4.67476e-19
-2.65819e-18
8.71719e-19
-5.46394e-18
1.17266e-18
-8.45897e-18
1.02282e-18
-9.71938e-18
2.96987e-19
-7.39193e-18
-3.96964e-19
-1.90104e-18
-7.14441e-19
8.68873e-19
-5.6734e-18
7.76555e-18
-3.66102e-17
4.5728e-17
-1.54652e-16
1.92241e-16
-3.7274e-16
5.1591e-16
-5.86984e-16
9.05955e-16
-7.47677e-16
1.20557e-15
-9.26024e-16
1.45116e-15
-1.37707e-15
1.98617e-15
-2.41083e-15
4.83733e-15
4.13967e-15
2.19177e-14
7.56314e-14
1.68371e-13
1.39088e-12
6.67113e-13
1.90056e-22
1.22749e-22
3.17778e-21
-1.39462e-20
2.00103e-20
-1.14804e-19
7.54953e-20
-4.82997e-19
1.94802e-19
-1.365e-18
3.64738e-19
-2.81177e-18
4.97498e-19
-4.37934e-18
4.5405e-19
-5.11257e-18
1.77108e-19
-4.07776e-18
-1.03978e-19
-1.41234e-18
-2.03467e-19
2.70932e-19
-1.80206e-18
2.8228e-18
-1.1264e-17
1.6773e-17
-4.48513e-17
6.77227e-17
-1.04879e-16
1.7811e-16
-1.6347e-16
3.12781e-16
-2.10264e-16
4.22296e-16
-2.72897e-16
5.2978e-16
-4.83534e-16
8.33538e-16
-1.28821e-15
2.7015e-15
-8.52931e-16
1.41165e-14
3.26937e-14
9.34261e-14
5.89036e-13
7.15021e-13
7.73619e-23
4.51181e-23
1.22388e-21
-7.26229e-21
7.67189e-21
-5.69578e-20
2.88976e-20
-2.39842e-19
7.45686e-20
-6.79294e-19
1.40091e-19
-1.40397e-18
1.93315e-19
-2.20141e-18
1.82961e-19
-2.60944e-18
8.49251e-20
-2.16699e-18
-2.34281e-20
-8.97171e-19
-5.01575e-20
7.07628e-20
-4.82277e-19
9.29112e-19
-2.91437e-18
5.59766e-18
-1.11542e-17
2.21353e-17
-2.56161e-17
5.80164e-17
-3.97796e-17
1.03049e-16
-5.19077e-17
1.42678e-16
-7.07789e-17
1.89143e-16
-1.46977e-16
3.50357e-16
-6.42953e-16
1.51672e-15
-3.98035e-15
1.05734e-14
-1.48434e-15
5.58618e-14
1.86495e-13
3.3319e-13
2.78363e-23
5.05584e-24
4.21427e-22
-3.60888e-21
2.6286e-21
-2.72968e-20
9.87116e-21
-1.15303e-19
2.54307e-20
-3.27768e-19
4.78289e-20
-6.80471e-19
6.65225e-20
-1.07487e-18
6.47244e-20
-1.29309e-18
3.37188e-20
-1.1126e-18
-3.89415e-21
-5.21616e-19
-9.69915e-21
1.59736e-20
-1.0409e-19
2.77666e-19
-6.11216e-19
1.72407e-18
-2.26924e-18
6.78033e-18
-5.13006e-18
1.79207e-17
-7.9184e-18
3.24907e-17
-1.04144e-17
4.65609e-17
-1.49087e-17
6.63741e-17
-3.81287e-17
1.52795e-16
-2.65373e-16
9.15619e-16
-2.11513e-15
7.41115e-15
-3.42589e-15
3.20932e-14
6.61699e-14
7.20101e-14
8.40378e-24
-7.5753e-24
1.22235e-22
-1.71976e-21
7.53791e-22
-1.26492e-20
2.80325e-21
-5.3701e-20
7.1629e-21
-1.53417e-19
1.33845e-20
-3.20248e-19
1.85799e-20
-5.09895e-19
1.83127e-20
-6.22339e-19
1.02715e-20
-5.52872e-19
-4.61571e-22
-2.85389e-19
-1.46482e-21
1.20215e-20
-1.57995e-20
7.6496e-20
-8.8769e-20
4.94653e-19
-3.12195e-19
1.95698e-18
-6.69378e-19
5.26213e-18
-9.73193e-19
9.80955e-18
-1.20161e-18
1.46712e-17
-1.66601e-18
2.30861e-17
-4.86601e-18
7.04058e-17
-3.87167e-17
5.74327e-16
-1.64475e-16
5.04926e-15
-4.827e-17
1.9066e-14
3.37973e-14
1.59314e-15
1.75906e-24
-7.07311e-24
2.41917e-23
-7.88749e-22
1.41712e-22
-5.67329e-21
5.02186e-22
-2.42468e-20
1.22441e-21
-6.96971e-20
2.17058e-21
-1.46404e-19
2.83185e-21
-2.35061e-19
2.60282e-21
-2.90957e-19
1.38368e-21
-2.6614e-19
3.6126e-23
-1.48854e-19
-3.66332e-22
-4.40825e-21
-4.00692e-22
2.00785e-20
-1.60854e-22
1.33636e-19
7.99073e-21
5.35797e-19
4.52287e-20
1.47294e-18
1.30853e-19
2.83621e-18
2.89055e-19
4.45949e-18
7.16048e-19
8.04872e-18
4.016e-18
3.4058e-17
5.1308e-17
3.54289e-16
5.42712e-16
3.38755e-15
2.03988e-15
1.2192e-14
1.71745e-14
5.39939e-15
-1.39205e-27
-4.49543e-24
-2.36227e-25
-3.49454e-22
-4.18989e-24
-2.46731e-21
-3.12879e-23
-1.06314e-20
-1.36382e-22
-3.07727e-20
-4.08807e-22
-6.50694e-20
-9.05604e-22
-1.05335e-19
-1.5152e-21
-1.32083e-19
-1.8605e-21
-1.23988e-19
-1.43284e-21
-7.42368e-20
-1.86787e-22
-7.63385e-21
8.55358e-22
4.87494e-21
5.20936e-21
3.47532e-20
2.35116e-20
1.40701e-19
7.11183e-20
3.94353e-19
1.52204e-19
7.84446e-19
2.88636e-19
1.30563e-18
7.30203e-19
2.8201e-18
4.93459e-18
1.64358e-17
6.73287e-17
1.99466e-16
7.0497e-16
2.05218e-15
2.26927e-15
7.80261e-15
9.99945e-15
3.95463e-15
-6.84502e-27
-2.58052e-24
-7.63046e-25
-1.50983e-22
-8.89311e-24
-1.047e-21
-5.4677e-23
-4.54465e-21
-2.09329e-22
-1.32354e-20
-5.63765e-22
-2.81472e-20
-1.13743e-21
-4.58909e-20
-1.75725e-21
-5.82004e-20
-2.03233e-21
-5.5888e-20
-1.5407e-21
-3.54858e-20
-3.17263e-22
-6.16305e-21
5.34662e-22
9.9019e-22
2.54736e-21
8.74575e-21
1.09879e-20
3.55735e-20
3.25907e-20
1.01366e-19
6.99529e-20
2.08012e-19
1.38446e-19
3.69041e-19
4.20799e-19
9.8502e-19
3.5901e-18
7.4563e-18
5.20614e-17
9.61947e-17
5.69908e-16
1.03448e-15
1.8893e-15
4.44166e-15
5.91454e-15
2.91864e-15
-6.49556e-27
-1.39377e-24
-5.67483e-25
-6.36249e-23
-6.27728e-24
-4.33445e-22
-3.77194e-23
-1.89449e-21
-1.41867e-22
-5.54811e-21
-3.76172e-22
-1.18579e-20
-7.48737e-22
-1.9453e-20
-1.14562e-21
-2.4916e-20
-1.3255e-21
-2.44046e-20
-1.03684e-21
-1.62963e-20
-2.88271e-22
-3.89303e-21
2.26799e-22
3.43899e-22
9.03813e-22
2.12747e-21
3.77513e-21
8.68894e-21
1.12577e-20
2.51044e-20
2.47997e-20
5.30329e-20
5.26177e-20
1.01106e-19
1.98465e-19
3.37356e-19
2.02099e-18
3.05198e-18
2.95396e-17
3.91763e-17
3.32453e-16
4.22067e-16
1.26006e-15
2.05943e-15
3.17102e-15
2.05034e-15
-4.46409e-27
-7.21317e-25
-3.19763e-25
-2.61558e-23
-3.41818e-24
-1.7509e-22
-2.03334e-23
-7.70551e-22
-7.59018e-23
-2.26835e-21
-2.00086e-22
-4.86919e-21
-3.9667e-22
-8.03071e-21
-6.06622e-22
-1.03742e-20
-7.07654e-22
-1.03369e-20
-5.72763e-22
-7.20589e-21
-1.96362e-22
-2.14139e-21
6.81178e-23
7.94197e-23
2.68555e-22
4.93441e-22
1.10906e-21
2.05882e-21
3.33957e-21
6.01657e-21
7.59576e-21
1.30536e-20
1.75111e-20
2.70101e-20
8.18743e-20
1.11692e-19
9.28602e-19
1.11495e-18
1.32226e-17
1.38662e-17
1.48715e-16
1.45997e-16
6.53783e-16
7.78031e-16
1.42324e-15
1.21575e-15
-2.60842e-27
-3.60852e-25
-1.55629e-25
-1.04917e-23
-1.61698e-24
-6.90459e-23
-9.55334e-24
-3.06061e-22
-3.55086e-23
-9.05454e-22
-9.3349e-23
-1.95091e-21
-1.84865e-22
-3.23225e-21
-2.83277e-22
-4.20603e-21
-3.33615e-22
-4.25279e-21
-2.78621e-22
-3.07459e-21
-1.11374e-22
-1.07068e-21
-2.25966e-24
-1.90199e-23
7.10383e-23
1.07104e-22
2.93737e-22
4.75646e-22
8.91573e-22
1.40238e-21
2.09802e-21
3.11992e-21
5.31789e-21
7.09266e-21
3.02591e-20
3.56249e-20
3.62261e-19
3.73158e-19
4.9899e-18
4.51363e-18
5.53085e-17
4.64974e-17
2.69947e-16
2.5922e-16
5.33188e-16
5.73956e-16
-1.41858e-27
-1.75242e-25
-6.77113e-26
-4.10912e-24
-6.88221e-25
-2.66015e-23
-4.05123e-24
-1.18858e-22
-1.50399e-23
-3.53309e-22
-3.95073e-23
-7.63662e-22
-7.8263e-23
-1.27e-21
-1.20273e-22
-1.66269e-21
-1.42963e-22
-1.70203e-21
-1.22725e-22
-1.26863e-21
-5.50955e-23
-4.97643e-22
-3.73789e-24
-2.96488e-23
1.83037e-23
2.16326e-23
7.18885e-23
1.07836e-22
2.1917e-22
3.19635e-22
5.34473e-22
7.29207e-22
1.50912e-21