/*--------------------------------*- C++ -*----------------------------------*\
| =========                 |                                                 |
| \\      /  F ield         | OpenFOAM: The Open Source CFD Toolbox           |
|  \\    /   O peration     | Version:  2206                                  |
|   \\  /    A nd           | Website:  www.openfoam.com                      |
|    \\/     M anipulation  |                                                 |
\*---------------------------------------------------------------------------*/
FoamFile
{
    version     2.0;
    format      ascii;
    arch        "LSB;label=32;scalar=64";
    class       volScalarField;
    location    "0.85";
    object      p;
}
// * * * * * * * * * * * * * * * * * * * * * * * * * * * * * * * * * * * * * //

dimensions      [1 -1 -2 0 0 0 0];

internalField   nonuniform List<scalar> 
2268
(
687.757
687.578
687.443
687.253
686.821
686.163
685.375
684.614
683.973
683.467
683.061
682.725
682.449
682.23
682.062
681.932
681.806
681.625
681.288
680.788
680.509
680.798
681.34
628.933
628.704
628.56
628.322
627.863
627.176
626.374
625.616
624.978
624.468
624.071
623.752
623.483
623.257
623.077
622.94
622.812
622.599
622.127
621.325
620.966
621.27
622.033
570.077
569.836
569.652
569.342
568.809
568.044
567.215
566.484
565.896
565.435
565.062
564.75
564.471
564.218
563.991
563.79
563.604
563.393
563.105
562.799
562.748
562.971
563.618
511.193
510.963
510.685
510.294
509.66
508.799
507.931
507.235
506.728
506.336
506.007
505.71
505.425
505.149
504.886
504.646
504.433
504.248
504.1
504.029
504.171
504.578
505.211
452.193
451.851
451.372
450.811
450.161
449.399
448.626
447.996
447.559
447.237
446.951
446.665
446.37
446.065
445.763
445.487
445.255
445.082
444.985
445.003
445.233
445.706
446.337
392.929
392.175
391.125
390.21
389.752
389.537
389.281
388.928
388.543
388.23
387.948
387.655
387.331
386.979
386.618
386.283
386.008
385.818
385.732
385.778
386.019
386.48
387.027
333.427
332.042
329.982
328.666
328.582
329.239
329.859
330.033
329.751
329.375
329.032
328.689
328.315
327.893
327.445
327.018
326.669
326.434
326.319
326.316
326.448
326.718
326.929
274.656
272.363
269.486
267.761
268.251
269.568
270.67
271.22
271.104
270.639
270.209
269.79
269.335
268.804
268.223
267.655
267.198
266.899
266.734
266.636
266.613
266.975
265.987
1043.43
1037.29
1024.32
993.755
976.169
917.526
786.27
640.734
700.157
922.221
1121.24
1172.13
1181.67
1207.93
1220.19
1250.33
1381.89
1602.43
1706.7
1029.72
1016.25
993.309
968.551
961.467
913.543
737.999
555.003
617.735
841.946
1055.3
1123.59
1128.13
1149.53
1146.6
1169
1300.78
1518.62
1639.64
1007.37
993.922
974.236
959.806
936.082
879.201
686.415
480.28
508.459
757.166
1003.31
1097.47
1109.33
1095.47
1074.41
1097.79
1210.05
1413.56
1561.45
973.312
972.196
968.259
935.884
856.483
731.268
585.692
445.615
483.552
712.502
962.549
1068.21
1079.37
1044.74
1015.14
1040.01
1133.58
1311.23
1476.02
926.88
953.238
964.61
890.016
686.681
455.957
438.629
433.02
500.792
714.637
933.673
1029.86
1037.53
996.907
969.213
994.322
1073.16
1219.48
1389.51
868.107
935.876
955.895
852.463
576.231
390.826
377.074
422.379
518.189
706.48
894.714
980.58
992.52
960.699
934.745
955.947
1025.14
1145.74
1308.53
811.522
913.04
935.593
819.374
535.009
378.806
364.493
414.41
517.541
682.797
853.505
926.805
943.007
927.372
909.205
926.22
988.428
1088.53
1236.4
758.273
865.184
904.813
806.191
518.319
356.847
341.478
404.821
509.108
660.485
814.463
879.086
899.086
898.74
897.763
914.362
961.029
1038.53
1164.76
183.856
181.351
178.1
176.134
176.252
177.629
178.83
179.465
179.456
178.68
178.228
177.736
177.174
176.449
175.563
174.714
174.111
173.744
173.411
172.696
171.266
169.663
163.614
73.5854
73.0072
70.7969
67.7349
65.4473
65.0835
66.3497
67.26
67.2089
66.5492
65.5839
64.4937
63.4098
62.0026
59.9784
57.6046
56.0193
55.3
55.8269
52.8406
48.4946
50.1386
52.3801
7.13151
7.10484
7.40945
7.95993
8.38399
8.86909
9.29652
9.47672
9.70089
9.66992
9.06701
8.10385
7.20525
6.31892
4.99959
3.26826
2.80997
2.93075
3.66717
3.75874
2.43595
1.81273
1.39985
0.752143
0.744638
0.742565
0.749342
0.756024
0.762338
0.769063
0.773508
0.771481
0.760278
0.754613
0.763547
0.769395
0.775713
0.750887
0.644816
0.302473
-0.370496
-0.804576
-0.528119
-0.136252
-0.00620113
0.114751
0.636238
0.622888
0.617425
0.615317
0.610179
0.601732
0.593159
0.584908
0.577371
0.572883
0.56865
0.560487
0.548836
0.529341
0.496036
0.454758
0.407545
0.245496
-0.0404123
-0.292664
-0.459726
-0.561988
-0.490534
0.50603
0.490594
0.478345
0.469691
0.463723
0.458524
0.449776
0.437604
0.424584
0.412103
0.398453
0.38078
0.358361
0.3286
0.280216
0.20287
0.109311
-0.0139658
-0.216578
-0.460422
-0.660643
-0.749856
-0.683032
0.33686
0.325938
0.318085
0.312162
0.305387
0.297275
0.287066
0.274974
0.261713
0.246847
0.229056
0.207095
0.18007
0.147347
0.105926
0.0463407
-0.0430666
-0.181215
-0.374023
-0.577847
-0.729866
-0.766298
-0.666495
0.150794
0.144709
0.143093
0.14247
0.137715
0.129369
0.119075
0.107301
0.0942194
0.0790383
0.0607829
0.0390033
0.0135853
-0.0158058
-0.0503396
-0.0938214
-0.154105
-0.24308
-0.363456
-0.496215
-0.595273
-0.61227
-0.531077
-0.0235881
-0.0275275
-0.0266706
-0.0256107
-0.029015
-0.0360525
-0.0450077
-0.0557298
-0.0680448
-0.0823394
-0.0990203
-0.118124
-0.139294
-0.162394
-0.188733
-0.220814
-0.259614
-0.300481
-0.345086
-0.394056
-0.432258
-0.434508
-0.386116
-0.189329
-0.19005
-0.189742
-0.189794
-0.193049
-0.19898
-0.206374
-0.21536
-0.2258
-0.237763
-0.25125
-0.266054
-0.281752
-0.298227
-0.316452
-0.336891
-0.357623
-0.372952
-0.380422
-0.379844
-0.370671
-0.350073
-0.312027
-0.355393
-0.354301
-0.35438
-0.355197
-0.357927
-0.362334
-0.3678
-0.374434
-0.382074
-0.390636
-0.399959
-0.409764
-0.419718
-0.429895
-0.440471
-0.451106
-0.458581
-0.461084
-0.456242
-0.441761
-0.417894
-0.386386
-0.348856
-0.521825
-0.52127
-0.521572
-0.522253
-0.523976
-0.526653
-0.530039
-0.534119
-0.538715
-0.543677
-0.548803
-0.553833
-0.558541
-0.563024
-0.567009
-0.570245
-0.570292
-0.566379
-0.557227
-0.541623
-0.519159
-0.489986
-0.456753
-0.689081
-0.689258
-0.689479
-0.689768
-0.690584
-0.691824
-0.693394
-0.695225
-0.697159
-0.699029
-0.700632
-0.701744
-0.702196
-0.702036
-0.701124
-0.698759
-0.694403
-0.687151
-0.676082
-0.660724
-0.640901
-0.616411
-0.588819
-0.858898
-0.859301
-0.858992
-0.858821
-0.85882
-0.858889
-0.858988
-0.859033
-0.858891
-0.858404
-0.85738
-0.855624
-0.852981
-0.849423
-0.84484
-0.839003
-0.831631
-0.822103
-0.809795
-0.79435
-0.775617
-0.753719
-0.729509
-1.03161
-1.03177
-1.03104
-1.03044
-1.02973
-1.02887
-1.02785
-1.02658
-1.02494
-1.0228
-1.01999
-1.01634
-1.01171
-1.00602
-0.999216
-0.991184
-0.98173
-0.970499
-0.957138
-0.941326
-0.922829
-0.901828
-0.878958
-1.20678
-1.20661
-1.20571
-1.20478
-1.2036
-1.20215
-1.20039
-1.19826
-1.19567
-1.19249
-1.18861
-1.18386
-1.17811
-1.17125
-1.16323
-1.15395
-1.14328
-1.131
-1.11689
-1.10071
-1.08216
-1.06135
-1.03877
-1.38444
-1.38405
-1.38315
-1.38203
-1.38062
-1.37885
-1.37671
-1.37413
-1.37105
-1.36737
-1.36298
-1.35775
-1.35154
-1.34425
-1.33577
-1.32602
-1.31488
-1.30221
-1.28782
-1.27152
-1.25301
-1.23227
-1.20963
-1.56487
-1.56441
-1.56356
-1.56241
-1.56094
-1.5591
-1.55686
-1.55418
-1.551
-1.54725
-1.54282
-1.53763
-1.53153
-1.5244
-1.51614
-1.50661
-1.49571
-1.48332
-1.46929
-1.45342
-1.43542
-1.41517
-1.39281
-1.74815
-1.74773
-1.74699
-1.74592
-1.74457
-1.74285
-1.74077
-1.73829
-1.73535
-1.73191
-1.72789
-1.72319
-1.7177
-1.71131
-1.70389
-1.6953
-1.68541
-1.67411
-1.66125
-1.64666
-1.63009
-1.61131
-1.59017
-1.93408
-1.93375
-1.93317
-1.93232
-1.93123
-1.92984
-1.92817
-1.92616
-1.9238
-1.92103
-1.91781
-1.91405
-1.90968
-1.90457
-1.89862
-1.89169
-1.88364
-1.87435
-1.86369
-1.85152
-1.83766
-1.82174
-1.80331
-2.12228
-2.12208
-2.12172
-2.12117
-2.12049
-2.11962
-2.11856
-2.1173
-2.11581
-2.11407
-2.11203
-2.10964
-2.10685
-2.10357
-2.0997
-2.09513
-2.08975
-2.08344
-2.0761
-2.06764
-2.05799
-2.04669
-2.03284
-2.31223
-2.31217
-2.31208
-2.31193
-2.31178
-2.31157
-2.31132
-2.31102
-2.31067
-2.31024
-2.30973
-2.3091
-2.30832
-2.30735
-2.30612
-2.30457
-2.30262
-2.3002
-2.29726
-2.29379
-2.28987
-2.28505
-2.27793
-2.50325
-2.50336
-2.50357
-2.50389
-2.50434
-2.50491
-2.50561
-2.50645
-2.50742
-2.50855
-2.50983
-2.51126
-2.51284
-2.51457
-2.51644
-2.51842
-2.52052
-2.52274
-2.52508
-2.52767
-2.53078
-2.53407
-2.53565
-2.6946
-2.69488
-2.69542
-2.69622
-2.69734
-2.69875
-2.70048
-2.70255
-2.70498
-2.7078
-2.71103
-2.71471
-2.71886
-2.72354
-2.72877
-2.73461
-2.74113
-2.74843
-2.75661
-2.76591
-2.77681
-2.78922
-2.80097
-2.88546
-2.8859
-2.88677
-2.88807
-2.88986
-2.89213
-2.89491
-2.89824
-2.90215
-2.90668
-2.9119
-2.91786
-2.92464
-2.9323
-2.94095
-2.9507
-2.9617
-2.97413
-2.98822
-3.0043
-3.02301
-3.04463
-3.06718
-3.07499
-3.07559
-3.07677
-3.07855
-3.08099
-3.08407
-3.08786
-3.09238
-3.0977
-3.10388
-3.11099
-3.11912
-3.12837
-3.13886
-3.15073
-3.16414
-3.17931
-3.1965
-3.21603
-3.23833
-3.26409
-3.2939
-3.32658
-3.26241
-3.26316
-3.26462
-3.26683
-3.26983
-3.27365
-3.27833
-3.28393
-3.29051
-3.29814
-3.30692
-3.31696
-3.32838
-3.34133
-3.35598
-3.37254
-3.39126
-3.41247
-3.43653
-3.46394
-3.49536
-3.53153
-3.57231
-3.44702
-3.44789
-3.44957
-3.45214
-3.45562
-3.46005
-3.46547
-3.47195
-3.47956
-3.48838
-3.49851
-3.51009
-3.52324
-3.53813
-3.55495
-3.57394
-3.59537
-3.61957
-3.64696
-3.67802
-3.71341
-3.75379
-3.79976
-3.62822
-3.62917
-3.63103
-3.63386
-3.63771
-3.64259
-3.64856
-3.65569
-3.66405
-3.67373
-3.68484
-3.6975
-3.71186
-3.72808
-3.74637
-3.76695
-3.79011
-3.81618
-3.84554
-3.87869
-3.91623
-3.95874
-4.00694
-3.80555
-3.80656
-3.80853
-3.81153
-3.8156
-3.82077
-3.82708
-3.83461
-3.84342
-3.85361
-3.86528
-3.87855
-3.89355
-3.91046
-3.92947
-3.95079
-3.97469
-4.00148
-4.03152
-4.06522
-4.10317
-4.14588
-4.19374
-3.97873
-3.97978
-3.98179
-3.98486
-3.98903
-3.9943
-4.00074
-4.00841
-4.01737
-4.02771
-4.03953
-4.05293
-4.06806
-4.08499
-4.10403
-4.1253
-4.14903
-4.17551
-4.20505
-4.23799
-4.27482
-4.31604
-4.36201
-4.14757
-4.14874
-4.15072
-4.15375
-4.15787
-4.16309
-4.16946
-4.17702
-4.18585
-4.19601
-4.20759
-4.22069
-4.23543
-4.25193
-4.27034
-4.29082
-4.31359
-4.33885
-4.36688
-4.39797
-4.43247
-4.47088
-4.5136
-4.31221
-4.31343
-4.31532
-4.31824
-4.3222
-4.32722
-4.33333
-4.34058
-4.34902
-4.35871
-4.36973
-4.38216
-4.3961
-4.41163
-4.4289
-4.44803
-4.46917
-4.4925
-4.51823
-4.5466
-4.57786
-4.61238
-4.65061
-4.47284
-4.47401
-4.47577
-4.47851
-4.48222
-4.48691
-4.49262
-4.49937
-4.50721
-4.5162
-4.52639
-4.53784
-4.55063
-4.56484
-4.58056
-4.59788
-4.61692
-4.63781
-4.66069
-4.68573
-4.71312
-4.74305
-4.77595
-4.62972
-4.63078
-4.63237
-4.63487
-4.63825
-4.64252
-4.6477
-4.65381
-4.6609
-4.669
-4.67815
-4.6884
-4.69981
-4.71242
-4.72631
-4.74153
-4.75817
-4.7763
-4.79602
-4.81742
-4.84064
-4.86573
-4.89302
-4.78318
-4.7841
-4.78551
-4.78773
-4.79072
-4.79449
-4.79905
-4.80442
-4.81064
-4.81771
-4.82569
-4.83459
-4.84445
-4.85532
-4.86722
-4.88019
-4.89429
-4.90954
-4.926
-4.94372
-4.96275
-4.98312
-5.00499
-4.93362
-4.93444
-4.93564
-4.93753
-4.9401
-4.94331
-4.94719
-4.95176
-4.95702
-4.963
-4.96972
-4.97719
-4.98544
-4.99448
-5.00434
-5.01503
-5.02657
-5.03898
-5.05226
-5.06643
-5.08151
-5.09749
-5.11444
-5.08147
-5.08231
-5.08323
-5.08479
-5.0869
-5.08951
-5.09268
-5.0964
-5.10067
-5.10552
-5.11095
-5.11697
-5.12358
-5.13081
-5.13865
-5.14711
-5.15618
-5.16587
-5.17617
-5.18706
-5.19855
-5.2106
-5.22324
-5.22722
-5.22815
-5.22873
-5.22999
-5.23161
-5.23362
-5.23606
-5.23891
-5.24219
-5.2459
-5.25004
-5.25462
-5.25964
-5.26509
-5.27098
-5.2773
-5.28404
-5.2912
-5.29876
-5.30668
-5.31498
-5.32358
-5.33252
-5.3715
-5.37244
-5.37265
-5.37364
-5.37474
-5.37616
-5.37788
-5.37989
-5.38219
-5.38479
-5.38769
-5.39087
-5.39435
-5.39812
-5.40218
-5.40651
-5.41111
-5.41596
-5.42105
-5.42636
-5.43185
-5.4375
-5.44331
-5.51451
-5.5155
-5.51541
-5.51612
-5.5167
-5.51755
-5.51854
-5.5197
-5.52104
-5.52254
-5.5242
-5.52603
-5.52802
-5.53016
-5.53246
-5.53491
-5.53749
-5.5402
-5.54302
-5.54594
-5.54894
-5.552
-5.55514
-5.65861
-5.65825
-5.65805
-5.65848
-5.65863
-5.65899
-5.65933
-5.65976
-5.66024
-5.66077
-5.66137
-5.66202
-5.66272
-5.66348
-5.66429
-5.66515
-5.66604
-5.66697
-5.66793
-5.66891
-5.6699
-5.67087
-5.67183
141.311
166.311
236.254
484.441
44.6919
32.1227
53.9992
327.46
0.820072
0.0883823
0.139393
66.2277
0.317718
-1.89255
-10.8521
-77.0489
-0.235075
-3.73443
-19.9803
-131.848
-0.396295
-1.91879
-9.41334
-46.6089
-0.279873
-0.0723012
-1.10572
-11.1041
-0.202868
0.286632
0.124414
-1.2177
-0.165898
0.220356
0.319154
0.182593
-0.181806
0.0875521
0.229285
0.170227
-0.262941
-0.0813297
0.0370954
-0.01466
-0.387504
-0.250442
-0.139329
-0.132555
-0.52665
-0.405712
-0.288548
-0.223438
-0.671182
-0.554735
-0.427668
-0.321205
-0.82256
-0.705847
-0.566933
-0.425317
-0.982763
-0.863264
-0.710361
-0.53219
-1.15348
-1.03118
-0.864438
-0.648142
-1.33735
-1.21539
-1.03966
-0.788072
-1.53765
-1.42241
-1.249
-0.974533
-1.75727
-1.65839
-1.50827
-1.2407
-1.99779
-1.92821
-1.83374
-1.61234
-2.259
-2.23545
-2.23374
-2.11952
-2.53781
-2.57663
-2.68058
-2.66159
-2.82807
-2.93836
-3.16738
-3.21289
-3.12118
-3.30086
-3.69343
-4.03878
-3.40642
-3.63775
-4.16458
-4.87231
-3.67346
-3.93318
-4.5004
-5.26568
-3.91499
-4.186
-4.72457
-5.48763
-4.12831
-4.4037
-4.88597
-5.62947
-4.31354
-4.58654
-5.03397
-5.75723
-4.47611
-4.73615
-5.14438
-5.83386
-4.61844
-4.853
-5.20607
-5.81618
-4.74337
-4.94395
-5.23105
-5.71899
-4.85493
-5.01887
-5.24019
-5.5947
-4.95788
-5.08674
-5.2503
-5.48811
-5.0565
-5.15432
-5.27108
-5.42118
-5.15396
-5.2258
-5.30666
-5.3973
-5.25239
-5.30328
-5.35759
-5.41048
-5.35294
-5.38723
-5.42222
-5.45193
-5.45644
-5.47772
-5.49866
-5.51431
-5.56223
-5.5732
-5.58373
-5.59081
-5.67389
-5.67689
-5.6794
-5.68027
661.529
749.53
860.19
775.32
474.739
314.043
292.036
361.748
468.605
614
745.849
809.612
849.264
878.588
900.055
911.276
920.244
951.48
1042.14
569.731
587.653
724.739
471.673
196.339
153.979
188.669
263.916
368.905
498.494
606.261
676.612
736.636
786.845
821.645
832.736
826.333
822.691
874.044
402.571
472.085
433.253
106.317
22.8117
26.9986
54.6556
129.914
226.157
337.238
436.652
520.818
587.06
640.613
684.168
713.949
727.808
730.917
741.6
98.9275
248.889
113.332
16.5394
3.48617
1.1259
1.79114
23.286
61.5527
157.288
247.734
328.944
396.767
450.701
500.899
558.359
609.234
630.85
625.421
-76.4752
48.5618
10.5019
2.06361
0.982258
0.661332
0.644487
0.263188
1.207
20.9538
46.0084
96.2917
152.015
192.847
235.158
326.913
438.776
503.097
507.923
-27.9475
3.22501
0.933791
0.486308
0.425544
0.272687
0.320988
0.372185
0.512228
-0.044974
-0.828549
4.27085
10.7586
16.8884
40.1048
110.611
231.86
345.001
405.448
-6.66822
-1.67257
-0.113722
-0.058821
-0.0811943
-0.0720211
0.0758997
0.159529
0.124943
-0.0716286
-0.413292
-0.922117
-1.18611
0.254909
10.3087
48.3865
126.097
215.663
328.644
-1.18078
-0.63373
-0.634555
-0.532857
-0.496088
-0.36611
-0.1417
-0.0271679
-0.1681
-0.488223
-0.879657
-1.3135
-1.7578
-1.50222
3.40233
26.2765
83.8114
158.462
228.308
-0.157668
-0.751645
-0.932846
-0.852737
-0.757076
-0.590602
-0.361901
-0.294137
-0.422603
-0.762955
-1.26622
-1.78473
-2.27926
-2.31293
0.32915
10.4721
46.275
93.1841
44.5844
-0.293171
-0.813027
-1.013
-0.974852
-0.876397
-0.739282
-0.59243
-0.577442
-0.691323
-1.01188
-1.50968
-2.05531
-2.4873
-2.55331
-1.45357
1.65782
20.2386
21.0013
11.889
-0.352255
-0.756287
-0.930052
-0.94968
-0.909843
-0.844984
-0.793439
-0.824448
-0.948219
-1.20229
-1.60502
-2.08688
-2.43194
-2.48245
-2.46587
-1.86906
8.85401
8.15755
8.54957
-0.323155
-0.586118
-0.764767
-0.854361
-0.908817
-0.938574
-0.969188
-1.03711
-1.16089
-1.35364
-1.63497
-1.95983
-2.18614
-2.22163
-2.34735
-1.46749
5.61402
7.12053
7.84737
-0.292747
-0.450683
-0.624707
-0.782066
-0.926857
-1.03965
-1.13162
-1.22722
-1.34611
-1.50277
-1.70786
-1.91898
-2.02866
-1.97303
-1.92555
-1.25533
6.05931
7.1187
7.25892
-0.308816
-0.392382
-0.550458
-0.759362
-0.97004
-1.15139
-1.29157
-1.40756
-1.52187
-1.65388
-1.81558
-1.95617
-1.98221
-1.86627
-1.80658
-1.90163
3.47853
6.88273
6.63869
-0.350422
-0.374229
-0.507832
-0.74484
-1.02887
-1.27953
-1.46081
-1.58838
-1.69331
-1.80297
-1.93318
-2.02809
-1.99354
-1.83413
-1.74438
-1.8631
-0.967818
6.238
6.02229
-0.396554
-0.360841
-0.465182
-0.734432
-1.10895
-1.43731
-1.65271
-1.77967
-1.86708
-1.95262
-2.05378
-2.10907
-2.01922
-1.80244
-1.5854
-1.5562
-1.09474
5.05521
5.47695
-0.44774
-0.341523
-0.403989
-0.718596
-1.22321
-1.64709
-1.88295
-1.99163
-2.05112
-2.10731
-2.17603
-2.1925
-2.05542
-1.78105
-1.39748
-1.20767
-1.13218
2.20347
4.16975
-0.519747
-0.323202
-0.322448
-0.722191
-1.40488
-1.95119
-2.17988
-2.23788
-2.254
-2.27522
-2.30685
-2.28551
-2.12621
-1.82511
-1.30275
-0.952625
-0.940233
-0.914588
0.829383
-0.643405
-0.334414
-0.275535
-0.897757
-1.77863
-2.39357
-2.58093
-2.53038
-2.48506
-2.46567
-2.46107
-2.40362
-2.24965
-1.95062
-1.3818
-0.934439
-1.25461
-1.95457
-1.80324
-0.85973
-0.503754
-0.539
-1.46893
-2.61362
-3.12614
-3.13118
-2.87643
-2.74615
-2.68497
-2.63949
-2.56385
-2.43681
-2.24341
-1.871
-1.64343
-1.92681
-2.597
-2.63816
-1.18397
-1.04486
-1.45372
-2.4646
-4.07896
-4.14895
-3.78746
-3.26079
-3.03039
-2.92711
-2.84253
-2.75364
-2.65302
-2.56797
-2.5163
-3.5608
-3.66371
-3.32538
-3.10884
-1.8721
-1.96207
-2.52824
-3.56694
-5.46518
-5.12258
-4.35129
-3.62085
-3.33157
-3.16993
-3.05648
-2.95441
-2.8533
-2.77359
-2.54909
-2.95908
-3.5057
-3.65579
-3.4527
-2.94395
-3.07655
-3.60001
-4.56695
-6.20972
-5.55249
-4.74283
-3.94278
-3.60482
-3.40475
-3.27151
-3.15824
-3.03934
-2.88952
-2.43687
-2.7508
-3.5466
-3.7404
-3.66011
-3.70204
-4.07998
-4.46518
-5.1952
-6.45865
-5.99783
-4.96786
-4.20488
-3.83643
-3.61927
-3.48072
-3.36948
-3.25017
-3.03631
-2.45666
-2.85275
-3.83651
-3.87947
-3.84423
-4.46822
-4.66103
-4.87197
-5.40635
-6.27273
-6.11675
-5.0505
-4.36879
-4.01347
-3.80539
-3.67881
-3.5949
-3.52458
-3.29767
-3.03132
-3.55608
-4.38044
-4.08767
-4.03243
-5.12018
-4.88041
-5.01933
-5.41116
-5.97048
-5.84946
-4.97569
-4.44418
-4.13682
-3.95931
-3.85917
-3.83123
-3.89259
-3.9205
-4.76013
-3.95217
-4.32257
-4.25172
-4.20546
-5.23694
-5.0362
-5.17192
-5.44999
-5.67994
-5.4115
-4.81052
-4.45712
-4.21702
-4.08052
-4.00954
-4.02349
-4.16571
-4.33226
-4.96974
-4.31762
-4.44262
-4.41949
-4.37699
-5.38495
-5.27015
-5.35993
-5.49852
-5.55818
-5.16009
-4.67098
-4.44591
-4.26969
-4.17305
-4.12724
-4.14956
-4.27401
-4.21282
-4.41779
-4.45555
-4.61411
-4.59631
-4.55523
-5.61938
-5.59205
-5.5911
-5.53538
-5.48194
-5.10975
-4.62454
-4.42929
-4.30316
-4.24414
-4.2249
-4.24593
-4.30877
-4.13556
-4.45085
-5.16996
-4.83869
-4.77067
-4.7247
-5.96299
-5.94398
-5.83473
-5.56235
-5.30741
-4.97127
-4.57695
-4.40942
-4.32362
-4.30068
-4.3183
-4.36577
-4.39573
-4.29244
-4.7745
-5.13152
-4.973
-4.91704
-4.87595
-6.20251
-6.24035
-6.04244
-5.5935
-5.16331
-4.86246
-4.52172
-4.37813
-4.3303
-4.34883
-4.41393
-4.52076
-4.57032
-4.86249
-5.12135
-5.15639
-5.09457
-5.04906
-5.01807
-6.2488
-6.37147
-6.15194
-5.61017
-5.09737
-4.7783
-4.51513
-4.36493
-4.33969
-4.39392
-4.50364
-4.66395
-4.67739
-5.00454
-5.48909
-5.27711
-5.21883
-5.17795
-5.15444
-6.13009
-6.27285
-6.0865
-5.58982
-5.07979
-4.76493
-4.62173
-4.46946
-4.42077
-4.46767
-4.59351
-4.7148
-4.74303
-5.01097
-5.527
-5.3862
-5.32271
-5.29716
-5.28117
-5.92372
-6.05116
-5.91537
-5.55395
-5.107
-4.84381
-4.80519
-4.6936
-4.67798
-4.6622
-4.7099
-4.75635
-4.85322
-5.18166
-5.49238
-5.45799
-5.42179
-5.40931
-5.40144
-5.71377
-5.81735
-5.73063
-5.47743
-5.1484
-4.93463
-4.93175
-4.95532
-4.94752
-4.91292
-4.82591
-4.84321
-5.04534
-5.54247
-5.5542
-5.52816
-5.52557
-5.52144
-5.51939
-5.55717
-5.62215
-5.5669
-5.39966
-5.17643
-5.02636
-5.03067
-5.10071
-5.15369
-5.07181
-4.88208
-4.94108
-5.19639
-5.5693
-5.62945
-5.61686
-5.63318
-5.63567
-5.63767
-5.47084
-5.49986
-5.45857
-5.34849
-5.20918
-5.11926
-5.13941
-5.20427
-5.34651
-5.26811
-5.02835
-5.20874
-5.46694
-5.61242
-5.70451
-5.7175
-5.74585
-5.75339
-5.75849
-5.44628
-5.45247
-5.41737
-5.34462
-5.26414
-5.21984
-5.25987
-5.31433
-5.47231
-5.40305
-5.31511
-5.42124
-5.61619
-5.72063
-5.80957
-5.83044
-5.86583
-5.87612
-5.88289
-5.46716
-5.46302
-5.43468
-5.38715
-5.34321
-5.32936
-5.38226
-5.41628
-5.61563
-5.49525
-5.51311
-5.67604
-5.79692
-5.85272
-5.94316
-5.95624
-5.99198
-6.00297
-6.00997
-5.51954
-5.51301
-5.49297
-5.46225
-5.44076
-5.44247
-5.49933
-5.53108
-5.69516
-5.57976
-5.5938
-5.85682
-6.03244
-6.00622
-6.09124
-6.09151
-6.12143
-6.13215
-6.13855
-5.59198
-5.58739
-5.57672
-5.55989
-5.54983
-5.55382
-5.60546
-5.64042
-5.77288
-5.74245
-6.38386
-6.16246
-6.27978
-6.17911
-6.23872
-6.23172
-6.25481
-6.26588
-6.2718
-5.67905
-5.67636
-5.6721
-5.66592
-5.66462
-5.66807
-5.7029
-5.7187
-5.84931
-6.07876
-8.07439
-6.51365
-6.49751
-6.33643
-6.38236
-6.37608
-6.39756
-6.41061
-6.41677
)
;

boundaryField
{
    leftWall
    {
        type            calculated;
        value           nonuniform List<scalar> 
50
(
687.757
628.933
570.077
511.193
452.193
392.929
333.427
274.656
183.856
73.5854
7.13151
0.752143
0.636238
0.50603
0.33686
0.150794
-0.0235881
-0.189329
-0.355393
-0.521825
-0.689081
-0.858898
-1.03161
-1.20678
-1.38444
-1.56487
-1.74815
-1.93408
-2.12228
-2.31223
-2.50325
-2.6946
-2.88546
-3.07499
-3.26241
-3.44702
-3.62822
-3.80555
-3.97873
-4.14757
-4.31221
-4.47284
-4.62972
-4.78318
-4.93362
-5.08147
-5.22722
-5.3715
-5.51451
-5.65861
)
;
    }
    rightWall
    {
        type            calculated;
        value           nonuniform List<scalar> 
50
(
1706.7
1639.64
1561.45
1476.02
1389.51
1308.53
1236.4
1164.76
1042.14
874.044
741.6
625.421
507.923
405.448
328.644
228.308
44.5844
11.889
8.54957
7.84737
7.25892
6.63869
6.02229
5.47695
4.16975
0.829383
-1.80324
-2.63816
-3.10884
-3.4527
-3.66011
-3.84423
-4.03243
-4.20546
-4.37699
-4.55523
-4.7247
-4.87595
-5.01807
-5.15444
-5.28117
-5.40144
-5.51939
-5.63767
-5.75849
-5.88289
-6.00997
-6.13855
-6.2718
-6.41677
)
;
    }
    lowerWall
    {
        type            calculated;
        value           nonuniform List<scalar> 
62
(
717.186
717.008
716.873
716.683
716.251
715.592
714.804
714.043
713.403
712.897
712.49
712.154
711.878
711.659
711.491
711.361
711.236
711.055
710.717
710.217
709.938
710.227
710.769
681.34
622.033
563.618
505.211
446.337
387.027
326.929
265.987
203.908
228.574
298.501
535.306
1043.43
1029.72
1007.37
973.312
926.88
868.107
811.522
758.273
1052.01
1048.17
1035.58
1004.7
987.665
936.088
810.877
668.451
726.152
947.31
1146.39
1197.67
1208.98
1235.89
1248.15
1278.29
1409.84
1630.39
1734.67
)
;
    }
    atmosphere
    {
        type            calculated;
        value           nonuniform List<scalar> 
46
(
-5.72904
-5.72904
-5.72904
-5.72904
-5.72904
-5.72904
-5.72904
-5.72904
-5.72904
-5.72904
-5.72904
-5.72904
-5.72904
-5.72904
-5.72904
-5.72904
-5.72904
-5.72904
-5.72904
-5.72904
-5.72904
-5.72904
-5.72904
-5.72904
-5.72904
-5.72904
-5.72904
-5.72904
-5.72904
-5.72904
-5.72904
-5.72904
-5.72921
-5.75306
-5.7462
-5.86338
-6.05857
-9.27317
-6.56137
-6.57954
-6.38617
-6.45562
-6.45073
-6.47637
-6.49185
-6.49833
)
;
    }
    defaultFaces
    {
        type            empty;
    }
}


// ************************************************************************* //
