/*--------------------------------*- C++ -*----------------------------------*\
| =========                 |                                                 |
| \\      /  F ield         | OpenFOAM: The Open Source CFD Toolbox           |
|  \\    /   O peration     | Version:  2206                                  |
|   \\  /    A nd           | Website:  www.openfoam.com                      |
|    \\/     M anipulation  |                                                 |
\*---------------------------------------------------------------------------*/
FoamFile
{
    version     2.0;
    format      ascii;
    arch        "LSB;label=32;scalar=64";
    class       volScalarField;
    location    "0.85";
    object      p_rgh;
}
// * * * * * * * * * * * * * * * * * * * * * * * * * * * * * * * * * * * * * //

dimensions      [1 -1 -2 0 0 0 0];

internalField   nonuniform List<scalar> 
2268
(
717.186
717.008
716.873
716.683
716.251
715.592
714.804
714.043
713.403
712.897
712.49
712.154
711.878
711.659
711.491
711.361
711.236
711.055
710.717
710.217
709.938
710.227
710.769
717.222
716.992
716.848
716.61
716.152
715.464
714.662
713.904
713.266
712.756
712.359
712.04
711.771
711.545
711.365
711.228
711.1
710.887
710.415
709.613
709.254
709.558
710.321
717.224
716.983
716.799
716.489
715.955
715.19
714.362
713.63
713.043
712.582
712.209
711.897
711.618
711.365
711.138
710.937
710.751
710.54
710.252
709.946
709.895
710.118
710.765
717.199
716.969
716.691
716.299
715.666
714.805
713.937
713.24
712.734
712.341
712.013
711.716
711.431
711.155
710.892
710.652
710.439
710.254
710.106
710.035
710.176
710.584
711.217
717.058
716.716
716.237
715.675
715.026
714.264
713.49
712.861
712.423
712.101
711.815
711.529
711.234
710.929
710.628
710.351
710.12
709.946
709.849
709.867
710.097
710.57
711.201
716.652
715.898
714.848
713.933
713.475
713.26
713.004
712.651
712.266
711.953
711.671
711.378
711.055
710.702
710.342
710.006
709.731
709.541
709.455
709.501
709.743
710.203
710.75
716.008
714.624
712.564
711.248
711.164
711.821
712.441
712.615
712.333
711.956
711.613
711.271
710.897
710.475
710.027
709.6
709.251
709.016
708.901
708.898
709.029
709.3
709.51
716.096
713.804
710.926
709.201
709.691
711.007
712.109
712.659
712.544
712.079
711.65
711.23
710.775
710.245
709.663
709.096
708.639
708.339
708.175
708.077
708.054
708.415
707.427
1052.01
1048.17
1035.58
1004.7
987.665
936.088
810.877
668.451
726.152
947.31
1146.39
1197.67
1208.98
1235.89
1248.15
1278.29
1409.84
1630.39
1734.67
1055.6
1048.43
1015.5
980.772
973.689
927.541
804.105
638.77
701.505
925.682
1139.14
1207.44
1211.98
1233.39
1230.46
1252.87
1384.66
1602.52
1723.54
1055.05
1042.33
993.489
979.813
959.18
912.76
723.409
565.222
638.317
896.893
1143.05
1237.21
1249.07
1235.22
1210.12
1217.31
1327.17
1545.45
1701.28
1039.35
1016.73
995.213
971.609
984.813
865.468
677.504
544.342
644.825
900.073
1158.17
1263.67
1274.93
1238.03
1170.94
1184.16
1277.81
1481.39
1671.78
1011.13
988.683
1000.16
1091.14
888.276
632.381
611.369
573.714
707.934
964.973
1184.07
1274.55
1286.83
1239.84
1169.48
1179.66
1258.51
1471.12
1641.2
964.301
979.815
999.961
1132.96
815.651
498.799
482.054
526.335
667.328
999.635
1200.68
1286.07
1249.37
1187.21
1161.26
1182.46
1251.71
1452.76
1616.14
861.36
964.574
1056.02
1154.53
823.752
520.083
487.351
537.267
640.398
1004.62
1214.58
1287.37
1293.21
1240.02
1176.9
1193.97
1257.56
1448.71
1599.88
814.273
927.189
1231.53
1193.4
905.04
741.938
590.408
546.579
653.964
948.345
1224.27
1295.06
1315
1314.44
1277.93
1242.51
1350.01
1457.23
1583.93
717.323
714.818
711.567
709.601
709.697
711.064
712.263
712.9
712.899
712.132
711.687
711.199
710.64
709.915
709.03
708.181
707.578
707.211
706.878
706.163
704.733
703.13
697.081
714.652
705.154
679.585
639.426
592.462
569.555
583.906
600.335
592.337
578.336
576.131
581.374
589.763
593.626
591.169
585.142
578.721
575.015
576.074
572.357
567.191
576.801
597.025
86.23
85.7907
90.0135
96.7738
102.898
110.02
116.079
118.702
122.283
123.136
113.533
99.19
87.5493
75.6155
61.0959
46.5984
39.5135
44.2711
59.6607
50.4634
10.6361
3.20193
2.93956
1.66127
1.65376
1.65974
1.6584
1.66508
1.67139
1.67812
1.68265
1.68145
1.67331
1.67224
1.68196
1.69128
1.715
1.881
2.75971
2.69268
1.01538
0.322866
0.587954
1.04163
1.43567
1.72461
1.67057
1.65965
1.66266
1.64964
1.64448
1.63709
1.63105
1.6228
1.61384
1.60898
1.60355
1.59579
1.58563
1.57195
1.56433
1.91802
2.33483
1.60163
1.06727
0.804343
0.679283
0.778904
1.14963
1.6656
1.65041
1.63803
1.62915
1.62333
1.62069
1.61334
1.59844
1.58404
1.57157
1.55797
1.54041
1.51847
1.49031
1.44785
1.48261
1.65953
1.51562
0.979433
0.717026
0.521981
0.473284
0.585769
1.62155
1.61058
1.60272
1.5968
1.59022
1.58289
1.57269
1.55961
1.54635
1.53149
1.51371
1.49178
1.4649
1.43275
1.3931
1.34498
1.36931
1.32513
0.937506
0.713049
0.564471
0.537571
0.629175
1.56069
1.55454
1.55292
1.5523
1.54757
1.5392
1.52891
1.51713
1.50405
1.48887
1.47062
1.44885
1.42347
1.39421
1.36028
1.3434
1.38618
1.22108
1.05352
0.916435
0.816581
0.79903
0.880159
1.51155
1.50752
1.50835
1.50941
1.50601
1.49897
1.49002
1.47929
1.46698
1.45268
1.436
1.41691
1.39576
1.37284
1.36407
1.39112
1.3533
1.23599
1.19065
1.14156
1.10323
1.10085
1.14921
1.47102
1.47021
1.47048
1.47042
1.46717
1.46124
1.45384
1.44486
1.43442
1.42246
1.40897
1.39418
1.3786
1.37961
1.4128
1.40313
1.32473
1.2876
1.28
1.28053
1.28969
1.31027
1.34835
1.43013
1.43115
1.43103
1.43022
1.42749
1.42308
1.41761
1.41098
1.40334
1.39478
1.38546
1.37567
1.36607
1.39384
1.41796
1.39038
1.32719
1.32451
1.32931
1.34377
1.36762
1.39912
1.43666
1.3888
1.38935
1.38904
1.38835
1.38663
1.38395
1.38057
1.37649
1.37189
1.36693
1.36181
1.35679
1.35225
1.3758
1.41811
1.35836
1.3405
1.34438
1.35351
1.3691
1.39155
1.42071
1.45394
1.34672
1.34654
1.34632
1.34603
1.34522
1.34398
1.34241
1.34058
1.33864
1.33677
1.33517
1.33407
1.33485
1.34405
1.34732
1.33845
1.34174
1.34885
1.36075
1.37754
1.39543
1.41949
1.44708
1.3021
1.30169
1.302
1.30218
1.30218
1.30211
1.30201
1.30196
1.3021
1.30259
1.30362
1.30542
1.30872
1.31193
1.31627
1.32214
1.32991
1.341
1.35414
1.36957
1.38827
1.40886
1.43191
1.25458
1.25442
1.25515
1.25575
1.25647
1.25732
1.25834
1.25961
1.26125
1.26339
1.2662
1.26988
1.27459
1.28019
1.287
1.29508
1.30555
1.3188
1.33217
1.34798
1.36646
1.38742
1.4084
1.2046
1.20478
1.20567
1.2066
1.20779
1.20924
1.211
1.21313
1.21572
1.21889
1.22278
1.22754
1.23328
1.24014
1.24817
1.25746
1.26866
1.2836
1.29778
1.31397
1.3325
1.35127
1.37295
1.15214
1.15253
1.15343
1.15455
1.15596
1.15773
1.15987
1.16245
1.16553
1.16921
1.1736
1.17883
1.18504
1.19233
1.20081
1.21057
1.22175
1.23582
1.25222
1.26851
1.28451
1.30432
1.32696
1.09691
1.09736
1.09821
1.09937
1.10083
1.10268
1.10491
1.10759
1.11077
1.11453
1.11895
1.12415
1.13025
1.13737
1.14564
1.15516
1.16609
1.17871
1.1933
1.20918
1.22637
1.24661
1.26897
1.03882
1.03924
1.03998
1.04105
1.0424
1.04412
1.0462
1.04868
1.05162
1.05506
1.05908
1.06378
1.06927
1.07566
1.08308
1.09167
1.10157
1.11287
1.12573
1.14032
1.15688
1.17566
1.1968
0.978078
0.978408
0.97899
0.979847
0.980936
0.982321
0.983998
0.986004
0.988366
0.991131
0.994354
0.99811
1.00249
1.00759
1.01355
1.02048
1.02853
1.03782
1.04848
1.06064
1.07451
1.09042
1.10886
0.915075
0.91528
0.915642
0.916185
0.916868
0.917739
0.918793
0.920056
0.921546
0.923291
0.925329
0.927713
0.930507
0.933791
0.937662
0.942229
0.947609
0.953917
0.961259
0.969716
0.979374
0.990674
1.00452
0.850322
0.85038
0.850473
0.850618
0.850776
0.850985
0.851232
0.85153
0.851885
0.852311
0.852824
0.853452
0.854229
0.855204
0.856433
0.857986
0.859934
0.862349
0.865294
0.868762
0.872681
0.877502
0.884631
0.784492
0.784386
0.784173
0.78386
0.783405
0.782836
0.782135
0.7813
0.780323
0.779197
0.777919
0.776486
0.774902
0.773173
0.77131
0.769326
0.767226
0.765009
0.762663
0.760075
0.756968
0.753677
0.752102
0.71834
0.718063
0.717525
0.716719
0.715602
0.71419
0.712457
0.710388
0.707958
0.705142
0.701912
0.698234
0.694077
0.689402
0.684171
0.67833
0.671807
0.664511
0.656329
0.647033
0.636137
0.623725
0.61198
0.652681
0.652235
0.651368
0.650062
0.648274
0.646007
0.643225
0.639898
0.635989
0.631451
0.626232
0.620271
0.613497
0.605833
0.597184
0.587435
0.576438
0.564006
0.549919
0.533839
0.515124
0.493509
0.470965
0.588342
0.587737
0.58656
0.584776
0.582345
0.57926
0.575474
0.570948
0.565627
0.559449
0.552339
0.544208
0.534958
0.524469
0.512605
0.499194
0.484024
0.466829
0.447296
0.424999
0.399237
0.369431
0.336758
0.526111
0.525365
0.523909
0.521699
0.518691
0.514872
0.51019
0.504594
0.498018
0.490384
0.481601
0.471562
0.460141
0.447193
0.432545
0.415987
0.397263
0.376057
0.351993
0.324587
0.293161
0.256992
0.216222
0.466697
0.465834
0.464148
0.461583
0.458096
0.453668
0.448245
0.441768
0.434163
0.425343
0.415205
0.40363
0.39048
0.375589
0.358766
0.339779
0.318352
0.294146
0.266764
0.235698
0.200313
0.159929
0.113962
0.410697
0.409747
0.407888
0.405055
0.401207
0.396326
0.390352
0.383224
0.374865
0.365184
0.354074
0.341413
0.327056
0.310834
0.292548
0.271965
0.248805
0.222737
0.193372
0.160223
0.122681
0.0801765
0.0319782
0.358557
0.357551
0.355583
0.352578
0.348504
0.343338
0.337024
0.329499
0.320687
0.310499
0.298831
0.285562
0.270554
0.253647
0.234642
0.213319
0.189417
0.162626
0.132592
0.0988853
0.0609381
0.0182294
-0.0296295
0.310577
0.309526
0.307512
0.304439
0.300275
0.295
0.288559
0.280894
0.271934
0.261594
0.249777
0.236369
0.22124
0.204308
0.185275
0.164007
0.140271
0.113793
0.0842575
0.0513132
0.0144876
-0.0267334
-0.0727091
0.266927
0.265759
0.263782
0.260744
0.256623
0.251405
0.245039
0.237476
0.228651
0.21849
0.206907
0.193804
0.179067
0.162571
0.144162
0.123673
0.100911
0.0756482
0.0476176
0.0165318
-0.0179729
-0.0563799
-0.0991019
0.227486
0.226263
0.224371
0.221451
0.217487
0.212471
0.206361
0.199114
0.190676
0.180982
0.169961
0.157531
0.143597
0.128057
0.110792
0.0916642
0.0705254
0.0471955
0.0214604
-0.00690713
-0.0381697
-0.072683
-0.110917
0.192047
0.190872
0.189117
0.186379
0.182665
0.177974
0.172271
0.165519
0.157675
0.148688
0.1385
0.127045
0.114252
0.100043
0.0843276
0.0670048
0.0479659
0.0270813
0.00419838
-0.0208472
-0.0482373
-0.0781679
-0.111066
0.160362
0.1593
0.157712
0.155212
0.151826
0.147561
0.142384
0.136269
0.129181
0.121084
0.111933
0.101681
0.0902748
0.0776587
0.0637718
0.0485467
0.0319101
0.0137799
-0.0059363
-0.0273417
-0.0505544
-0.0756488
-0.102936
0.132093
0.131172
0.129764
0.12755
0.124553
0.120788
0.116229
0.110854
0.10464
0.0975607
0.0895872
0.0806862
0.0708225
0.0599587
0.048058
0.0350816
0.0209878
0.00573382
-0.0107254
-0.0284401
-0.0474768
-0.0678419
-0.0897182
0.106851
0.106028
0.104826
0.102936
0.100368
0.0971599
0.0932792
0.0887134
0.0834481
0.0774667
0.0707506
0.0632804
0.0550347
0.0459918
0.0361331
0.0254413
0.0138997
0.0014942
-0.011788
-0.0259588
-0.0410447
-0.0570206
-0.0739726
0.0841949
0.083356
0.082431
0.0808763
0.0787658
0.0761526
0.0729856
0.0692676
0.0649896
0.0601412
0.0547133
0.0486963
0.0420802
0.0348554
0.0270162
0.0185595
0.00948489
-0.000203968
-0.0105007
-0.0213945
-0.0328852
-0.0449337
-0.0575722
0.0636358
0.0627077
0.0621255
0.0608702
0.059249
0.0572439
0.0548036
0.0519486
0.0486677
0.0449571
0.0408146
0.0362372
0.0312228
0.0257702
0.0198812
0.0135602
0.00681491
-0.0003426
-0.0078967
-0.0158257
-0.0241161
-0.0327245
-0.0416633
0.0445583
0.0436096
0.0434001
0.0424122
0.0413093
0.0398917
0.0381709
0.0361653
0.0338608
0.0312615
0.0283677
0.0251801
0.0217003
0.0179308
0.0138761
0.00954346
0.00494304
8.909e-05
-0.00500042
-0.0103014
-0.0157977
-0.0214477
-0.0272594
0.0267432
0.0257515
0.0258354
0.025125
0.0245509
0.0237028
0.0227061
0.0215435
0.0202088
0.0187101
0.0170467
0.0152202
0.0132325
0.0110866
0.00878718
0.00634141
0.00375829
0.00104931
-0.00177235
-0.00468837
-0.00769057
-0.0107493
-0.0138874
0.00783381
0.00818981
0.00839492
0.00796361
0.00781016
0.0074568
0.00710946
0.00668627
0.00620686
0.00567092
0.00507698
0.00442651
0.00372061
0.00296144
0.00215225
0.0012973
0.000401334
-0.000530076
-0.0014907
-0.00246812
-0.00345725
-0.00443022
-0.00539147
674.778
696.925
766.738
917.924
498.446
358.352
428.426
860.735
2.60547
2.21639
64.1211
450.054
2.18545
0.402615
50.053
452.031
2.06286
-0.000574372
102.439
543.645
1.1497
1.10994
69.4991
407.993
1.05591
1.64087
25.8403
43.4931
1.2154
1.87535
4.75001
4.53104
1.37261
1.79968
2.01396
2.47941
1.48254
1.75251
1.90989
2.00273
1.52293
1.70474
1.82658
1.80473
1.5232
1.66031
1.77219
1.78434
1.50923
1.63012
1.74744
1.81331
1.48989
1.60627
1.73336
1.83991
1.46366
1.58035
1.71926
1.86089
1.42868
1.54812
1.70103
1.8792
1.38311
1.5054
1.67214
1.88844
1.32442
1.44639
1.62212
1.87371
1.24932
1.36456
1.53798
1.81248
1.1549
1.25378
1.40394
1.67244
1.03957
1.10918
1.20407
1.43204
0.903576
0.927264
0.930923
1.0711
0.749989
0.711304
0.612591
0.749627
0.584961
0.475139
0.253632
0.831899
0.417058
0.237893
-0.145693
1.71233
0.256998
0.0261
-0.492098
2.00943
0.115099
-0.144363
-0.70603
1.78139
-0.00125265
-0.271841
-0.772639
0.776933
-0.0893745
-0.364105
-0.825081
-0.095402
-0.149411
-0.421996
-0.869457
-0.546683
-0.186802
-0.446847
-0.854968
-1.18251
-0.203939
-0.438496
-0.791545
-1.40114
-0.203672
-0.404259
-0.691348
-1.17915
-0.19004
-0.353981
-0.575299
-0.929783
-0.167799
-0.29666
-0.460218
-0.698015
-0.141221
-0.23904
-0.355804
-0.505899
-0.11349
-0.185332
-0.266193
-0.356825
-0.0867292
-0.137612
-0.191923
-0.244818
-0.0620806
-0.0963655
-0.131355
-0.161074
-0.0403823
-0.0616613
-0.0826107
-0.0982567
-0.0209819
-0.031947
-0.0424864
-0.0495589
-0.00745041
-0.010447
-0.0129578
-0.0138318
729.205
841.955
1328.16
1243.54
942.668
780.542
759.668
807.238
882.222
1032.37
1240.39
1303.36
1321.12
1344.99
1363.74
1372.86
1384.15
1407.78
1543.75
665.215
904.354
1302.84
1046.87
670.418
694.55
769.75
845.389
950.377
1079.97
1154.03
1108.38
1168.41
1218.62
1253.88
1266.88
1265.24
1275.49
1499.42
946.134
1103.24
1080.76
289.714
54.059
324.06
663.677
819.971
918.152
1026.74
1128.48
1105.89
1104.72
1172.37
1255.92
1353
1417.81
1459.9
1491.99
779.113
937.028
723.286
21.1738
4.64401
2.39389
4.4643
365.532
765.427
956.772
1057.81
1155.68
1231.06
1292.59
1353.59
1422.89
1480.28
1502.96
1497.71
682.929
755.349
94.2868
3.37472
2.03453
1.70298
1.6942
1.37294
3.33477
391.252
754.222
921.381
1000.15
1029.1
1065.49
1225.66
1423.38
1495.52
1500.35
616.261
294.354
2.79892
1.6592
1.58703
1.43275
1.47877
1.52838
1.66548
1.12945
0.392074
113.859
218.129
208.749
191.019
337.135
835.488
1450.44
1518.01
97.2559
5.51389
1.28274
1.22733
1.20429
1.21351
1.36115
1.4445
1.41009
1.21562
0.884409
0.425739
0.332449
2.2363
13.4721
54.8118
143.268
825.735
1560.66
6.00085
2.01847
0.791766
0.878163
0.914783
1.04475
1.26887
1.38301
1.24193
0.921694
0.531321
0.105183
-0.290961
0.204951
5.92502
31.7731
124.352
303.298
1559.01
2.7974
1.01582
0.607156
0.685154
0.781578
0.94463
1.17313
1.24131
1.11262
0.772088
0.26896
-0.248896
-0.742275
-0.71611
2.3595
54.1546
228.87
240.574
647.679
1.69952
0.894456
0.657616
0.698525
0.790041
0.920949
1.06779
1.08278
0.968899
0.648353
0.153109
-0.393395
-0.826907
-0.893591
0.274819
91.3451
217.594
200.87
15.5229
1.50656
1.05603
0.873896
0.842561
0.877641
0.940451
0.991974
0.960965
0.837193
0.583127
0.182385
-0.299501
-0.646281
-0.697013
-0.33543
172.131
221.628
85.4248
12.4328
1.60009
1.3301
1.15111
1.05668
1.0018
0.972033
0.941419
0.873492
0.74972
0.556964
0.275671
-0.0487975
-0.275176
-0.311007
-0.437502
221.907
232.268
18.4678
12.0029
1.74476
1.58554
1.41114
1.25374
1.10894
0.996155
0.904184
0.808577
0.689692
0.533032
0.327943
0.116825
0.00726026
0.0628025
0.109441
177.454
244.2
12.3026
11.6868
1.85236
1.76864
1.61054
1.40163
1.19096
1.0096
0.869425
0.753432
0.639129
0.507117
0.345418
0.204826
0.178849
0.294761
0.354415
11.5191
251.096
14.9101
11.3507
1.93579
1.91197
1.77837
1.54136
1.25732
1.00666
0.825383
0.697811
0.592883
0.483216
0.353013
0.258096
0.292678
0.452085
0.541808
0.423092
254.725
46.8042
11.0756
2.01484
2.05055
1.94621
1.67698
1.30244
0.974075
0.758672
0.63171
0.544302
0.458767
0.357607
0.302319
0.392164
0.608947
0.825984
0.855192
118.121
91.311
11.5367
2.08884
2.19506
2.13288
1.81894
1.31374
0.889542
0.653636
0.544945
0.485457
0.429274
0.360549
0.344076
0.481158
0.755532
1.1391
1.3291
2.05564
82.5693
19.8356
2.14204
2.33896
2.34697
1.95745
1.26384
0.712023
0.481938
0.4239
0.407777
0.386556
0.354924
0.376266
0.536412
0.83668
1.35905
1.71334
3.20337
22.1073
22.202
2.14428
2.46319
2.61663
2.5441
1.09034
0.413556
0.20653
0.256613
0.301913
0.321302
0.325897
0.38499
0.544791
0.840321
1.46748
1.91749
2.62155
1.69348
3.6595
2.06424
2.8171
11.0496
14.9797
6.37558
0.0540816
-0.215799
0.035848
0.166019
0.227197
0.272676
0.349631
0.482266
0.67388
2.28949
30.6555
13.5805
0.409116
0.28307
1.99578
9.80073
20.5005
19.4478
17.865
1.56489
-0.743062
-0.223256
0.00697329
0.110248
0.194831
0.283744
0.384523
0.471997
2.93575
138.123
106.865
0.359673
-0.0707579
4.42243
20.612
20.2743
19.3319
17.3754
2.02535
-1.18489
-0.458258
-0.169021
-0.00738142
0.106068
0.208142
0.309298
0.390031
2.38571
145.879
145.403
-0.166531
-0.289418
10.2492
19.961
19.8676
19.0438
17.4833
6.13532
-1.43815
-0.654605
-0.317073
-0.117002
0.0162386
0.129512
0.248457
0.399278
2.34277
152.122
151.057
-0.452538
-0.37161
16.0694
19.6539
12.8626
12.0038
17.773
16.2189
-1.5548
-0.79194
-0.423487
-0.206325
-0.0677788
0.0434727
0.163089
0.38356
2.53058
157.918
89.0199
-0.46645
-0.430488
17.6465
17.8034
-0.966875
-1.43705
11.4695
9.65055
-1.51234
-0.830657
-0.475335
-0.267248
-0.14067
-0.0566527
0.015912
0.283986
13.777
163.112
-0.684599
-0.549481
-0.493624
16.762
3.2948
-0.975579
-1.36741
-1.86075
1.18752
-1.31236
-0.780844
-0.473484
-0.295981
-0.19582
-0.167621
-0.224068
0.667797
111.775
168.467
0.353715
-0.588343
-0.542049
7.63496
-0.878646
-1.00576
-1.26805
-1.4203
-0.488813
-1.02199
-0.668597
-0.428494
-0.291997
-0.221003
-0.234871
-0.375682
0.255989
166.072
171.994
3.57501
-0.630922
-0.588346
1.46631
-0.975207
-1.08237
-1.06699
1.73189
2.28577
-0.757262
-0.532189
-0.355969
-0.259331
-0.213517
-0.235812
-0.359894
0.0915613
171.404
90.4433
3.91683
-0.682548
-0.64138
1.28686
-1.17766
-1.18568
-0.945144
3.3825
3.88341
3.003
-0.390375
-0.26424
-0.205219
-0.185981
-0.206979
-0.269192
1.05487
172.886
0.868512
0.985012
-0.731728
-0.685742
1.57416
-1.20616
-1.35689
-1.15131
-0.461715
4.30065
2.96091
-0.245312
-0.159505
-0.136561
-0.154174
-0.201395
-0.226384
9.27211
165.705
2.04165
-0.808852
-0.752932
-0.711836
0.75141
0.343883
-1.30151
-1.09069
-0.742819
0.572039
1.81261
-0.0888243
-0.040966
-0.0595001
-0.124328
-0.230959
-0.16559
49.1789
36.7193
3.84038
-0.805158
-0.759761
-0.728766
-1.40819
0.401792
0.387148
-0.845146
-0.633524
0.477621
5.09251
0.908052
0.0786482
0.0208063
-0.0887424
-0.249035
0.0235151
56.3568
0.356334
0.27697
-0.80388
-0.763452
-0.739939
-1.58215
-0.288265
0.0110436
-0.390815
-0.536476
0.401703
8.66341
10.3193
3.82782
0.0724272
-0.0534062
-0.174695
0.802864
58.0906
2.74004
-0.84485
-0.783
-0.75747
-0.741474
-1.25662
-1.36872
-0.878151
-0.887106
-0.441735
-0.176521
1.93034
16.1548
16.1364
7.04349
-0.0445916
-0.091036
8.82543
37.3428
4.07783
-0.791445
-0.756881
-0.744429
-0.736555
-0.923436
-1.02686
-0.927715
-0.687016
-0.35821
-0.14454
-0.139211
6.39856
16.4692
16.3822
-0.0353872
0.00759896
16.3255
-0.42104
-0.438657
-0.736232
-0.735482
-0.731357
-0.729308
-0.641852
-0.706803
-0.651521
-0.484366
-0.261139
-0.111072
-0.115391
-0.163122
13.1404
16.6264
0.535643
0.439851
15.3098
-0.520948
-0.713873
-0.701582
-0.717902
-0.720393
-0.722393
-0.430364
-0.45938
-0.418091
-0.308001
-0.168692
-0.0787786
-0.0989399
-0.163722
-0.297244
5.06846
12.3888
13.2583
-0.40698
-0.571411
-0.664035
-0.677034
-0.705384
-0.71292
-0.718017
-0.280611
-0.286804
-0.251703
-0.178937
-0.0984342
-0.0541588
-0.0942073
-0.148668
-0.30477
3.2241
17.6105
14.7734
-0.450529
-0.554965
-0.643904
-0.664774
-0.700165
-0.710458
-0.717229
-0.176304
-0.17216
-0.14382
-0.0962671
-0.0523057
-0.0384745
-0.0913957
-0.125418
-0.324775
2.03398
17.9087
-0.385177
-0.506068
-0.561858
-0.652302
-0.665384
-0.701125
-0.712108
-0.719113
-0.103487
-0.0969596
-0.0769194
-0.0461774
-0.024691
-0.0264128
-0.0832734
-0.115029
-0.279107
-0.16371
10.526
-0.440768
-0.616387
-0.590171
-0.675184
-0.675458
-0.705379
-0.716099
-0.722496
-0.0507269
-0.0461445
-0.0354674
-0.0186424
-0.00857921
-0.0125693
-0.0642081
-0.0991757
-0.231635
-0.2012
10.6669
-0.621208
-0.73853
-0.637858
-0.697467
-0.69047
-0.713558
-0.724633
-0.730547
-0.0126052
-0.00992128
-0.00566107
0.000521213
0.00182341
-0.00162705
-0.0364572
-0.0522588
-0.182872
-0.412313
1.09745
-0.847211
-0.83107
-0.669992
-0.715917
-0.709638
-0.731115
-0.744166
-0.750331
)
;

boundaryField
{
    leftWall
    {
        type            fixedFluxPressure;
        gradient        uniform 0;
        value           nonuniform List<scalar> 
50
(
717.186
717.222
717.224
717.199
717.058
716.652
716.008
716.096
717.323
714.652
86.23
1.66127
1.67057
1.6656
1.62155
1.56069
1.51155
1.47102
1.43013
1.3888
1.34672
1.3021
1.25458
1.2046
1.15214
1.09691
1.03882
0.978078
0.915075
0.850322
0.784492
0.71834
0.652681
0.588342
0.526111
0.466697
0.410697
0.358557
0.310577
0.266927
0.227486
0.192047
0.160362
0.132093
0.106851
0.0841949
0.0636358
0.0445583
0.0267432
0.00783381
)
;
    }
    rightWall
    {
        type            fixedFluxPressure;
        gradient        uniform 0;
        value           nonuniform List<scalar> 
50
(
1734.67
1723.54
1701.28
1671.78
1641.2
1616.14
1599.88
1583.93
1543.75
1499.42
1491.99
1497.71
1500.35
1518.01
1560.66
1559.01
647.679
15.5229
12.4328
12.0029
11.6868
11.3507
11.0756
11.5367
19.8356
22.202
3.6595
0.28307
-0.0707579
-0.289418
-0.37161
-0.430488
-0.493624
-0.542049
-0.588346
-0.64138
-0.685742
-0.711836
-0.728766
-0.739939
-0.741474
-0.736555
-0.729308
-0.722393
-0.718017
-0.717229
-0.719113
-0.722496
-0.730547
-0.750331
)
;
    }
    lowerWall
    {
        type            fixedFluxPressure;
        gradient        uniform 0;
        value           nonuniform List<scalar> 
62
(
717.186
717.008
716.873
716.683
716.251
715.592
714.804
714.043
713.403
712.897
712.49
712.154
711.878
711.659
711.491
711.361
711.236
711.055
710.717
710.217
709.938
710.227
710.769
710.769
710.321
710.765
711.217
711.201
710.75
709.51
707.427
674.778
696.925
766.738
917.924
1052.01
1055.6
1055.05
1039.35
1011.13
964.301
861.36
814.273
1052.01
1048.17
1035.58
1004.7
987.665
936.088
810.877
668.451
726.152
947.31
1146.39
1197.67
1208.98
1235.89
1248.15
1278.29
1409.84
1630.39
1734.67
)
;
    }
    atmosphere
    {
        type            totalPressure;
        rho             rho;
        psi             none;
        gamma           1;
        p0              uniform 0;
        value           nonuniform List<scalar> 
46
(
0
0
0
0
0
0
0
0
0
0
0
0
0
0
0
0
0
0
0
0
0
0
0
0
0
0
0
0
0
0
0
0
-0.000168284
-0.0240215
-0.0171581
-0.134342
-0.329528
0
-0.83233
-0.850497
-0.657134
-0.726576
-0.721694
-0.747325
-0.762811
-0.769293
)
;
    }
    defaultFaces
    {
        type            empty;
    }
}


// ************************************************************************* //
