/*--------------------------------*- C++ -*----------------------------------*\
| =========                 |                                                 |
| \\      /  F ield         | OpenFOAM: The Open Source CFD Toolbox           |
|  \\    /   O peration     | Version:  2206                                  |
|   \\  /    A nd           | Website:  www.openfoam.com                      |
|    \\/     M anipulation  |                                                 |
\*---------------------------------------------------------------------------*/
FoamFile
{
    version     2.0;
    format      ascii;
    arch        "LSB;label=32;scalar=64";
    class       surfaceScalarField;
    location    "0.875";
    object      phi;
}
// * * * * * * * * * * * * * * * * * * * * * * * * * * * * * * * * * * * * * //

dimensions      [0 3 -1 0 0 0 0];

oriented        oriented;

internalField   nonuniform List<scalar> 
4432
(
-2.17446e-06
2.17446e-06
-6.11942e-06
3.94497e-06
-1.16643e-05
5.54492e-06
-1.73973e-05
5.73293e-06
-2.0298e-05
2.90071e-06
-1.95725e-05
-7.25511e-07
-1.76033e-05
-1.96913e-06
-1.61013e-05
-1.50205e-06
-1.50293e-05
-1.07196e-06
-1.42071e-05
-8.22228e-07
-1.3787e-05
-4.20155e-07
-1.38814e-05
9.44437e-08
-1.42146e-05
3.33191e-07
-1.42072e-05
-7.40688e-09
-1.37709e-05
-4.36326e-07
-1.53226e-05
1.55174e-06
-2.06892e-05
5.3666e-06
-2.65444e-05
5.85518e-06
-2.68605e-05
3.16067e-07
-2.13892e-05
-5.47123e-06
-1.38482e-05
-7.54104e-06
-6.0343e-06
-7.81391e-06
-6.03429e-06
-7.11326e-06
9.28772e-06
-1.42345e-05
1.10663e-05
-2.02058e-05
1.15162e-05
-2.33265e-05
8.85364e-06
-2.29246e-05
2.49881e-06
-2.06445e-05
-3.00567e-06
-1.8244e-05
-4.36959e-06
-1.64775e-05
-3.26862e-06
-1.52049e-05
-2.34456e-06
-1.40512e-05
-1.9759e-06
-1.30637e-05
-1.40763e-06
-1.25655e-05
-4.03739e-07
-1.29734e-05
7.41105e-07
-1.46912e-05
1.71039e-06
-1.79258e-05
2.79827e-06
-2.19291e-05
5.55505e-06
-2.47886e-05
8.22608e-06
-2.37916e-05
4.85817e-06
-1.87564e-05
-4.71912e-06
-1.27534e-05
-1.14742e-05
-7.7222e-06
-1.25723e-05
-3.07863e-06
-1.24575e-05
-9.11291e-06
-8.18645e-06
1.74742e-05
-1.52405e-05
1.81203e-05
-2.05253e-05
1.6801e-05
-2.34581e-05
1.17865e-05
-2.36879e-05
2.72857e-06
-2.1766e-05
-4.92754e-06
-1.93233e-05
-6.81228e-06
-1.74181e-05
-5.17388e-06
-1.58704e-05
-3.89223e-06
-1.43325e-05
-3.5138e-06
-1.28019e-05
-2.93826e-06
-1.14916e-05
-1.71403e-06
-1.06984e-05
-5.20466e-08
-1.08845e-05
1.89645e-06
-1.25405e-05
4.45429e-06
-1.45932e-05
7.60779e-06
-1.46251e-05
8.25794e-06
-1.1642e-05
1.87502e-06
-7.35631e-06
-9.00475e-06
-3.52153e-06
-1.5309e-05
-1.21889e-06
-1.48749e-05
4.97718e-08
-1.37262e-05
-9.06313e-06
-7.3908e-06
2.4865e-05
-1.37382e-05
2.44678e-05
-1.88767e-05
2.19395e-05
-2.22877e-05
1.51974e-05
-2.30967e-05
3.53751e-06
-2.18117e-05
-6.21249e-06
-2.01306e-05
-8.49336e-06
-1.86583e-05
-6.6462e-06
-1.70941e-05
-5.45645e-06
-1.5371e-05
-5.23689e-06
-1.36797e-05
-4.62951e-06
-1.22211e-05
-3.17268e-06
-1.10461e-05
-1.22702e-06
-1.00625e-05
9.12808e-07
-9.17149e-06
3.56329e-06
-7.85484e-06
6.29113e-06
-5.514e-06
5.91711e-06
-3.17959e-06
-4.59391e-07
-1.32869e-06
-1.08557e-05
3.72639e-07
-1.70103e-05
1.24212e-06
-1.57444e-05
1.32174e-06
-1.38058e-05
-7.74138e-06
-5.94304e-06
3.0808e-05
-1.14019e-05
2.99267e-05
-1.60508e-05
2.65884e-05
-1.92368e-05
1.83835e-05
-2.03562e-05
4.65694e-06
-2.02632e-05
-6.30551e-06
-2.02177e-05
-8.53889e-06
-1.98312e-05
-7.03268e-06
-1.84972e-05
-6.79043e-06
-1.64883e-05
-7.24587e-06
-1.44286e-05
-6.68921e-06
-1.27647e-05
-4.83657e-06
-1.15556e-05
-2.43613e-06
-1.05282e-05
-1.14595e-07
-9.25463e-06
2.28974e-06
-7.20401e-06
4.2405e-06
-4.68192e-06
3.39503e-06
-2.78391e-06
-2.35741e-06
-1.87591e-06
-1.17636e-05
-2.77202e-07
-1.8609e-05
1.11431e-06
-1.71358e-05
1.52849e-06
-1.422e-05
-6.21289e-06
-4.11518e-06
3.49232e-05
-8.37893e-06
3.41904e-05
-1.19996e-05
3.0209e-05
-1.45429e-05
2.09267e-05
-1.60495e-05
6.16356e-06
-1.7623e-05
-4.73194e-06
-1.98256e-05
-6.33633e-06
-2.09082e-05
-5.95011e-06
-1.98054e-05
-7.8932e-06
-1.71117e-05
-9.93954e-06
-1.41556e-05
-9.64537e-06
-1.1967e-05
-7.02513e-06
-1.06985e-05
-3.70461e-06
-9.91913e-06
-8.94001e-07
-9.19402e-06
1.56464e-06
-8.13723e-06
3.18371e-06
-6.75279e-06
2.01058e-06
-5.38473e-06
-3.72546e-06
-3.57858e-06
-1.35698e-05
-4.31535e-07
-2.17561e-05
2.29958e-06
-1.9867e-05
2.51277e-06
-1.44332e-05
-3.70011e-06
-2.01177e-06
3.6935e-05
-5.09892e-06
3.72776e-05
-7.62491e-06
3.2735e-05
-9.23261e-06
2.25344e-05
-1.09342e-05
7.86512e-06
-1.47032e-05
-9.62946e-07
-1.95331e-05
-1.50639e-06
-2.16328e-05
-3.8504e-06
-1.97935e-05
-9.73246e-06
-1.55e-05
-1.42331e-05
-1.13229e-05
-1.38224e-05
-8.70799e-06
-9.64005e-06
-7.56845e-06
-4.84414e-06
-7.22236e-06
-1.24009e-06
-7.19055e-06
1.53284e-06
-7.32752e-06
3.32068e-06
-7.21573e-06
1.89879e-06
-6.23746e-06
-4.70375e-06
-3.10817e-06
-1.66991e-05
1.71352e-06
-2.65778e-05
5.67614e-06
-2.38296e-05
4.81458e-06
-1.35716e-05
1.11446e-06
-9.93159e-09
3.69449e-05
-1.29377e-06
3.85614e-05
-1.77007e-06
3.32114e-05
-1.17605e-06
2.19404e-05
-3.67938e-06
1.03685e-05
-1.16116e-05
6.96932e-06
-1.92447e-05
6.12671e-06
-2.1389e-05
-1.70615e-06
-1.82327e-05
-1.28888e-05
-1.34068e-05
-1.9059e-05
-9.68411e-06
-1.75451e-05
-7.31536e-06
-1.20088e-05
-5.94137e-06
-6.21813e-06
-5.32662e-06
-1.85484e-06
-5.05021e-06
1.25643e-06
-5.75081e-06
4.02127e-06
-6.70185e-06
2.84983e-06
-6.03092e-06
-5.37468e-06
-2.56721e-06
-2.01628e-05
3.42306e-06
-3.25681e-05
9.5366e-06
-2.99431e-05
7.72431e-06
-1.17593e-05
8.83877e-06
-9.55105e-06
9.55105e-06
-3.04348e-05
2.08838e-05
-3.076e-05
3.25167e-07
-8.53048e-06
-2.22295e-05
1.41873e-05
-2.27177e-05
2.17273e-05
-7.54e-06
8.53829e-06
1.3189e-05
-1.50094e-05
2.35476e-05
-1.33092e-05
-1.70012e-06
2.71694e-06
-1.60262e-05
1.13986e-05
-8.68169e-06
1.12677e-05
1.30909e-07
1.06945e-06
1.01983e-05
-1.42749e-05
1.53444e-05
-2.96779e-05
1.5403e-05
-3.82579e-05
8.58e-06
-3.52108e-05
-3.04712e-06
-1.9518e-05
-1.56928e-05
-1.9518e-05
-2.0785e-05
3.03361e-05
-3.27616e-05
3.28603e-05
-2.57306e-05
-6.70575e-06
-7.94016e-06
-4.002e-05
5.33213e-06
-3.599e-05
-7.49458e-07
-1.45842e-06
-1.59974e-05
2.84369e-05
-1.75547e-05
2.5105e-05
-1.52649e-05
-3.98992e-06
-9.99093e-06
-2.13001e-05
5.15504e-06
-2.38277e-05
1.0223e-05
-4.93704e-06
6.53885e-06
1.38824e-05
-4.46957e-06
2.63528e-05
-2.42069e-05
3.51403e-05
-3.84119e-05
2.2785e-05
-3.24826e-05
-8.97637e-06
-1.07943e-05
-3.73811e-05
-3.03123e-05
-1.9754e-05
5.009e-05
-2.57943e-05
3.89007e-05
-2.01733e-05
-1.23267e-05
-1.16441e-05
-4.85492e-05
-1.30951e-05
-3.4539e-05
-2.49761e-05
1.04226e-05
-2.85584e-05
3.20192e-05
-3.29901e-05
2.95366e-05
-4.98399e-05
1.28599e-05
-4.88078e-05
-2.23322e-05
-2.83214e-05
-4.43141e-05
-1.03602e-05
-2.28982e-05
-3.9667e-06
7.48891e-06
-6.48064e-06
2.88667e-05
-1.31485e-05
4.18081e-05
-1.82314e-05
2.78679e-05
-1.4522e-05
-1.26857e-05
1.06834e-06
-5.29714e-05
-2.9244e-05
-1.45831e-05
6.46731e-05
-1.92376e-05
4.35552e-05
-1.52967e-05
-1.62676e-05
-1.18825e-05
-5.19635e-05
-2.00249e-05
-2.63966e-05
-3.11877e-05
2.15855e-05
-4.05891e-05
4.14205e-05
-6.68491e-05
5.57967e-05
-9.36183e-05
3.96291e-05
-9.49521e-05
-2.09985e-05
-7.52627e-05
-6.40035e-05
-4.59198e-05
-5.22411e-05
-2.51793e-05
-1.32516e-05
-1.87561e-05
2.24435e-05
-1.48814e-05
3.79333e-05
-9.65717e-06
2.26437e-05
-4.9698e-06
-1.73731e-05
-2.94477e-07
-5.76467e-05
-2.95385e-05
-8.14434e-06
7.28175e-05
-1.13188e-05
4.67296e-05
-7.70716e-06
-1.98792e-05
-8.51514e-06
-5.11555e-05
-1.85337e-05
-1.6378e-05
-3.00704e-05
3.31222e-05
-5.41488e-05
6.54989e-05
-8.07757e-05
8.24237e-05
-0.00010166
6.05133e-05
-0.000116107
-6.5509e-06
-0.00011238
-6.77311e-05
-8.86348e-05
-7.59862e-05
-5.77197e-05
-4.41667e-05
-3.80014e-05
2.72525e-06
-2.86854e-05
2.86174e-05
-1.9543e-05
1.35013e-05
-1.21533e-05
-2.47628e-05
-7.53663e-06
-6.22634e-05
-3.70751e-05
-2.11825e-06
7.49357e-05
-1.17496e-06
4.57863e-05
2.07248e-06
-2.31266e-05
-4.16631e-06
-4.49167e-05
-1.58841e-05
-4.66023e-06
-2.75622e-05
4.48002e-05
-5.9657e-05
9.75937e-05
-7.07681e-05
9.35348e-05
-7.47254e-05
6.44706e-05
-9.7251e-05
1.59747e-05
-0.000119302
-4.568e-05
-0.000116828
-7.84602e-05
-9.43458e-05
-6.66489e-05
-6.66229e-05
-2.49976e-05
-5.0131e-05
1.21255e-05
-3.90063e-05
2.37656e-06
-2.14627e-05
-4.23064e-05
-5.22388e-06
-7.85022e-05
-4.2299e-05
4.25726e-06
7.06785e-05
9.73825e-06
4.03053e-05
1.1458e-05
-2.48464e-05
-9.01241e-08
-3.33685e-05
-1.57548e-05
1.10044e-05
-3.40607e-05
6.31062e-05
-6.30263e-05
0.000126559
-5.77557e-05
8.82642e-05
-3.49956e-05
4.17105e-05
-4.53747e-05
2.63538e-05
-8.87482e-05
-2.30655e-06
-0.000108669
-5.85395e-05
-0.000107589
-6.77288e-05
-9.30347e-05
-3.95519e-05
-7.14376e-05
-9.47163e-06
-4.75115e-05
-2.15496e-05
-2.2829e-05
-6.69888e-05
-2.79554e-06
-9.85357e-05
-4.50945e-05
1.04535e-05
6.02249e-05
1.82476e-05
3.25113e-05
1.84899e-05
-2.50887e-05
2.42984e-06
-1.73085e-05
-1.83205e-05
3.17547e-05
-5.12259e-05
9.60116e-05
-7.22479e-05
0.000147581
-5.94946e-05
7.55109e-05
-3.85e-05
2.07159e-05
-3.64077e-05
2.42615e-05
-5.71134e-05
1.83991e-05
-7.34433e-05
-4.22097e-05
-7.52811e-05
-6.58909e-05
-6.90758e-05
-4.57572e-05
-5.61497e-05
-2.23977e-05
-4.61937e-05
-3.15056e-05
-3.15847e-05
-8.15979e-05
-6.81762e-06
-0.000123303
-5.19121e-05
1.41926e-05
2.27522e-05
1.54484e-05
3.73057e-05
1.34036e-05
3.52561e-05
2.84926e-06
3.24947e-05
-1.76454e-05
3.08632e-05
-3.81578e-05
2.74817e-05
-4.95196e-05
1.74885e-05
-5.48891e-05
3.66337e-06
-5.60333e-05
-1.17446e-05
-5.55636e-05
-1.95287e-05
-5.17174e-05
-2.13913e-05
-4.50262e-05
-1.86999e-05
-3.68873e-05
-1.43571e-05
-2.85837e-05
-1.01584e-05
-2.31767e-05
-4.15064e-06
-2.15776e-05
2.42221e-06
-2.36505e-05
4.92277e-06
-2.7366e-05
-1.65926e-06
-2.36982e-05
-2.38306e-05
-5.77633e-07
-5.56886e-05
2.89961e-05
-5.95169e-05
3.14969e-05
-1.42601e-05
1.82498e-05
2.20858e-05
1.47311e-05
8.02118e-06
9.35877e-06
4.2678e-05
-4.68267e-06
4.92976e-05
-1.99985e-05
4.78106e-05
-3.51549e-05
4.60196e-05
-5.11035e-05
4.34303e-05
-7.31214e-05
3.95063e-05
-0.000109325
3.98674e-05
-0.000139505
1.8435e-05
-0.000143993
-1.50411e-05
-0.000131521
-3.38627e-05
-0.000121715
-2.8506e-05
-0.000109804
-2.62684e-05
-9.61174e-05
-2.38449e-05
-8.9397e-05
-1.0871e-05
-9.74569e-05
1.04821e-05
-0.000107932
1.53982e-05
-0.000100849
-8.74265e-06
-6.73397e-05
-5.73399e-05
-1.41425e-05
-0.000108886
2.87349e-05
-0.000102394
3.58858e-05
-2.14111e-05
2.44997e-05
2.96359e-05
-2.81287e-05
3.61499e-05
-5.33557e-05
6.7905e-05
-8.98803e-05
8.58221e-05
-0.000126497
8.44271e-05
-0.000159626
7.91489e-05
-0.000195187
7.89911e-05
-0.000225389
6.97088e-05
-0.000251264
6.5742e-05
-0.000260683
2.78537e-05
-0.000246604
-2.91193e-05
-0.000225714
-5.47529e-05
-0.000221379
-3.28415e-05
-0.00024259
-5.05702e-06
-0.000274178
7.74278e-06
-0.000289843
4.79443e-06
-0.000278758
-6.03538e-07
-0.000232371
-3.09888e-05
-0.000166438
-7.4675e-05
-9.75058e-05
-0.000126272
-5.70938e-05
-0.000149298
-4.6884e-05
-0.000112604
-5.59335e-05
-1.23617e-05
2.32329e-05
-5.46666e-05
-0.000129916
0.000166066
-0.000202272
0.000140261
-0.000240931
0.000124481
-0.000270416
0.000113912
-0.000303666
0.000112399
-0.000351063
0.000126388
-0.000386036
0.000104681
-0.000386897
6.66037e-05
-0.000347188
-1.18553e-05
-0.000314241
-6.20671e-05
-0.000292376
-7.66171e-05
-0.000266521
-5.86967e-05
-0.000239801
-3.17775e-05
-0.000221769
-1.02888e-05
-0.000213287
-3.68795e-06
-0.000203071
-1.08198e-05
-0.00017583
-5.82292e-05
-0.000135835
-0.00011467
-0.000109527
-0.000152581
-0.000112789
-0.000146036
-0.000135894
-8.94985e-05
-0.000152867
4.6113e-06
9.90499e-06
-0.000139539
-0.000183917
0.000349983
-0.000278495
0.000234839
-0.000322636
0.000168622
-0.000341988
0.000133264
-0.000367654
0.000138066
-0.000386971
0.000145704
-0.000387678
0.000105388
-0.00037453
5.34561e-05
-0.000364596
-2.17889e-05
-0.000346351
-8.03128e-05
-0.000327584
-9.5384e-05
-0.000302277
-8.40033e-05
-0.000262301
-7.17538e-05
-0.000213949
-5.86404e-05
-0.000177425
-4.02126e-05
-0.000156379
-3.18657e-05
-0.000151634
-6.29742e-05
-0.000150317
-0.000115987
-0.000146921
-0.000155976
-0.000157053
-0.000135904
-0.000185804
-6.07481e-05
-0.000203201
2.20089e-05
-9.20042e-06
-0.000184096
-0.000146788
0.000496772
-0.00019861
0.000286661
-0.000286092
0.000256103
-0.00034537
0.000192541
-0.000370609
0.000163306
-0.000366989
0.000142084
-0.000360335
9.87339e-05
-0.000352698
4.58193e-05
-0.000356595
-1.78925e-05
-0.000365233
-7.16749e-05
-0.00036278
-9.78371e-05
-0.000344987
-0.000101795
-0.000313627
-0.000103114
-0.000272826
-9.94415e-05
-0.000236918
-7.61206e-05
-0.000208247
-6.05368e-05
-0.000197684
-7.35371e-05
-0.000198193
-0.000115478
-0.000196243
-0.000157926
-0.000204243
-0.000127904
-0.000224599
-4.03928e-05
-0.000242031
3.94413e-05
-2.83945e-05
-0.000222837
-0.000109477
0.000606248
-0.000144014
0.000321198
-0.000220794
0.000332884
-0.00027259
0.000244338
-0.000302071
0.000192786
-0.000308606
0.00014862
-0.000312318
0.000102445
-0.000321648
5.51487e-05
-0.000339639
9.93292e-08
-0.000365111
-4.62039e-05
-0.000384048
-7.88999e-05
-0.000387867
-9.79759e-05
-0.000378612
-0.00011237
-0.000363752
-0.000114301
-0.000338008
-0.000101865
-0.000303567
-9.49777e-05
-0.000269097
-0.000108007
-0.000234269
-0.000150306
-0.000232023
-0.000160172
-0.000230436
-0.000129491
-0.000225964
-4.4865e-05
-0.000246126
5.9604e-05
-4.10869e-05
-0.000233434
-9.18066e-05
0.000698055
-0.000117209
0.0003466
-0.000177215
0.00039289
-0.000211135
0.000278258
-0.000229363
0.000211014
-0.000237541
0.000156798
-0.000243414
0.000108317
-0.00025124
6.2975e-05
-0.000268571
1.74308e-05
-0.000292581
-2.2195e-05
-0.000318783
-5.26972e-05
-0.000340497
-7.62624e-05
-0.000357958
-9.49085e-05
-0.000363623
-0.000108636
-0.00034418
-0.000121308
-0.000304771
-0.000134386
-0.00026204
-0.000150738
-0.000241256
-0.00017109
-0.000239086
-0.000162343
-0.000243159
-0.000125418
-0.000231405
-5.6619e-05
-0.000213853
4.20524e-05
-2.11221e-05
-0.000233818
-8.26802e-05
0.000780735
-0.000127603
0.000391523
-0.000150311
0.000415599
-0.000167522
0.000295469
-0.00016931
0.000212802
-0.000163889
0.000151377
-0.000154886
9.93145e-05
-0.000148717
5.68061e-05
-0.000153452
2.21652e-05
-0.000170647
-5.00094e-06
-0.000194169
-2.91749e-05
-0.000222502
-4.79291e-05
-0.000253654
-6.37576e-05
-0.000282598
-7.96923e-05
-0.000302812
-0.000101094
-0.00030621
-0.000130989
-0.000289686
-0.000167262
-0.000269997
-0.000190779
-0.000260048
-0.000172293
-0.000253696
-0.00013177
-0.000236632
-7.36832e-05
-0.000189026
-5.55361e-06
-2.53845e-05
-0.000184763
-8.98749e-05
0.00087061
-0.000168659
0.000470307
-0.000151896
0.000398836
-0.000156307
0.000299879
-0.00015144
0.000207935
-0.000137462
0.000137399
-0.000116737
7.859e-05
-9.6571e-05
3.66395e-05
-8.49689e-05
1.05628e-05
-8.52167e-05
-4.7533e-06
-9.81165e-05
-1.6275e-05
-0.000119873
-2.61728e-05
-0.000148166
-3.5465e-05
-0.000182175
-4.56828e-05
-0.000220943
-6.23265e-05
-0.000257834
-9.40973e-05
-0.000281222
-0.000143874
-0.000284263
-0.000187738
-0.00026795
-0.000188606
-0.00025299
-0.000146729
-0.000233285
-9.33888e-05
-0.000183069
-5.57695e-05
-6.11946e-05
-0.000147259
-6.05177e-05
0.000931128
-0.000198893
0.000608683
-0.000177116
0.000377059
-0.000177353
0.000300115
-0.000178369
0.000208951
-0.000166587
0.000125617
-0.000141402
5.34049e-05
-0.000108524
3.76134e-06
-7.68051e-05
-2.11564e-05
-5.41849e-05
-2.73736e-05
-4.61758e-05
-2.42843e-05
-5.17805e-05
-2.05685e-05
-6.70764e-05
-2.01693e-05
-9.00994e-05
-2.26596e-05
-0.000123069
-2.93573e-05
-0.000170091
-4.70753e-05
-0.000228461
-8.55041e-05
-0.000276581
-0.000139618
-0.000288638
-0.00017655
-0.000273796
-0.00016157
-0.000240748
-0.000126437
-0.000203146
-9.33718e-05
-7.95966e-05
-0.000184744
1.69827e-05
0.000914145
-0.000162943
0.000788608
-0.000199851
0.000413967
-0.000202383
0.000302647
-0.000209001
0.000215569
-0.000200758
0.000117374
-0.000173188
2.58343e-05
-0.000133905
-3.55222e-05
-9.02715e-05
-6.47894e-05
-5.26415e-05
-6.50038e-05
-2.63141e-05
-5.0612e-05
-1.32947e-05
-3.35882e-05
-1.31196e-05
-2.03445e-05
-2.3082e-05
-1.26973e-05
-4.16398e-05
-1.07997e-05
-7.06593e-05
-1.8056e-05
-0.000118226
-3.79375e-05
-0.000186845
-7.09991e-05
-0.000254292
-0.000109103
-0.000287832
-0.00012803
-0.000292265
-0.000122004
-0.000277701
-0.000107935
-0.000103337
-0.000253961
0.000107579
0.000806566
-2.98641e-05
0.000926051
-0.000169562
0.000553665
-0.000202796
0.000335882
-0.000210408
0.000223181
-0.000202516
0.000109482
-0.000175979
-7.03018e-07
-0.000134555
-7.69458e-05
-8.83367e-05
-0.000111008
-4.73483e-05
-0.000105993
-1.67437e-05
-8.12167e-05
5.16218e-06
-5.54942e-05
1.73509e-05
-3.25335e-05
2.01036e-05
-1.54502e-05
1.4232e-05
-4.92827e-06
-1.23408e-06
-2.58994e-06
-2.22516e-05
-1.69201e-05
-5.44714e-05
-3.87792e-05
-0.000104634
-5.89406e-05
-0.000153209
-7.94548e-05
-0.000178304
-9.69085e-05
-0.00017798
-0.00010826
-0.000117629
-0.000163688
0.000189283
0.000617284
0.000162789
0.000952545
-1.97414e-05
0.000736195
-0.000127908
0.000444048
-0.000158278
0.000253551
-0.000155367
0.000106571
-0.000133539
-2.2531e-05
-9.67499e-05
-0.000113735
-5.72547e-05
-0.000150504
-2.30298e-05
-0.000140218
3.62744e-06
-0.000107874
2.19863e-05
-7.38531e-05
3.57951e-05
-4.63423e-05
4.49929e-05
-2.46483e-05
4.86049e-05
-8.54039e-06
4.3977e-05
2.03808e-06
2.42524e-05
2.80443e-06
-3.95623e-07
-1.41312e-05
-2.3617e-05
-3.57194e-05
-5.10077e-05
-5.20642e-05
-7.98051e-05
-6.81111e-05
-9.94644e-05
-8.86004e-05
-0.000112266
-0.000104828
0.000227823
0.000389461
0.000320744
0.000859623
0.000220509
0.00083643
7.29221e-05
0.000591635
-1.16881e-05
0.000338161
-3.58523e-05
0.000130735
-3.08102e-05
-2.75731e-05
-1.41674e-05
-0.000130378
5.49969e-06
-0.000170171
2.37612e-05
-0.000158479
3.69283e-05
-0.000121041
4.58166e-05
-8.27413e-05
5.3355e-05
-5.38808e-05
6.10606e-05
-3.23539e-05
6.79285e-05
-1.54084e-05
7.23715e-05
-2.40485e-06
6.85742e-05
6.60182e-06
4.8817e-05
5.62586e-06
2.47363e-05
-1.16388e-05
6.99114e-06
-3.4319e-05
-4.55516e-06
-5.65648e-05
-1.65097e-05
-7.66457e-05
-9.82916e-05
-3.0484e-05
0.000204403
0.000185058
0.000380943
0.000683084
0.000406209
0.000811164
0.000320177
0.000677668
0.000217564
0.000440773
0.000147887
0.000200413
0.000111096
9.21709e-06
9.68937e-05
-0.000116175
8.82015e-05
-0.000161479
8.21681e-05
-0.000152446
7.79128e-05
-0.000116786
7.50268e-05
-7.98553e-05
7.39938e-05
-5.2848e-05
7.5962e-05
-3.43222e-05
8.06779e-05
-2.01242e-05
8.7091e-05
-8.81795e-06
9.31378e-05
5.54967e-07
9.26073e-05
6.15625e-06
7.82619e-05
2.70659e-06
5.76111e-05
-1.36683e-05
4.14674e-05
-4.0421e-05
3.24458e-05
-6.76242e-05
-9.07554e-05
2.49096e-05
0.000134224
5.0834e-05
0.000341778
0.000475529
0.000457152
0.00069579
0.000463486
0.000671334
0.00040626
0.000498
0.000332225
0.000274447
0.000269321
7.21213e-05
0.000215054
-6.19074e-05
0.000172609
-0.000119034
0.000140426
-0.000120262
0.000118117
-9.44766e-05
0.000103865
-6.56035e-05
9.53334e-05
-4.4316e-05
9.14287e-05
-3.04174e-05
9.17629e-05
-2.04583e-05
9.56113e-05
-1.26663e-05
0.000102697
-6.5305e-06
0.000110783
-1.92967e-06
0.000114573
-1.0841e-06
0.000108781
-7.87609e-06
9.39101e-05
-2.55501e-05
7.73755e-05
-5.10896e-05
-7.70892e-05
6.37091e-05
5.77867e-05
-6.95254e-06
0.000238525
0.000294791
0.000391179
0.000543137
0.000464438
0.000598074
0.000466335
0.000496103
0.000425028
0.000315754
0.000361406
0.000135743
0.000292568
6.93176e-06
0.000230797
-5.72637e-05
0.000182147
-7.16122e-05
0.000148078
-6.0408e-05
0.000126375
-4.39004e-05
0.000113059
-3.09999e-05
0.000105268
-2.26266e-05
0.000101832
-1.70225e-05
0.000102161
-1.29949e-05
0.000105853
-1.02225e-05
0.000112805
-8.88127e-06
0.000121349
-9.62889e-06
0.000127375
-1.39018e-05
0.000126633
-2.4808e-05
0.000117186
-4.16428e-05
-6.2172e-05
0.000102269
3.23676e-06
-1.01893e-05
0.000119972
0.000178056
0.000262467
0.000400641
0.000367262
0.000493279
0.000414138
0.000449228
0.000409028
0.000320864
0.000367184
0.000177588
0.000307876
6.62395e-05
0.000248252
2.36007e-06
0.000198572
-2.19318e-05
0.00016273
-2.45666e-05
0.000139264
-2.0434e-05
0.000124346
-1.60815e-05
0.000114838
-1.3119e-05
0.000109255
-1.14393e-05
0.000106883
-1.06225e-05
0.000107189
-1.05291e-05
0.000109981
-1.16726e-05
0.000115051
-1.46996e-05
0.000121213
-2.00638e-05
0.00012512
-2.87153e-05
0.00012418
-4.07027e-05
-5.53e-05
0.000117308
-2.73249e-05
1.71355e-05
2.2829e-05
0.000127902
0.000127735
0.000295735
0.00023291
0.000388104
0.000303619
0.000378518
0.000328417
0.000296066
0.000314682
0.000191322
0.00027778
0.000103142
0.00023353
4.66098e-05
0.000193732
1.78668e-05
0.000163642
5.52301e-06
0.000142793
4.14929e-07
0.000128677
-1.96582e-06
0.000119069
-3.51038e-06
0.000112628
-4.99877e-06
0.000108731
-6.72533e-06
0.00010692
-8.7179e-06
0.000106707
-1.14598e-05
0.00010774
-1.5732e-05
0.000109611
-2.19355e-05
0.000111041
-3.01454e-05
0.000110454
-4.01151e-05
-5.14419e-05
0.000106596
-4.00231e-05
5.71586e-05
-3.43447e-05
0.000122224
3.22758e-05
0.000229115
0.000119957
0.000300423
0.000194802
0.000303673
0.000237378
0.00025349
0.000246019
0.000182681
0.000230479
0.000118682
0.000204074
7.30151e-05
0.000177496
4.44451e-05
0.000155711
2.73079e-05
0.000139286
1.68402e-05
0.000127217
1.01032e-05
0.000118395
5.31202e-06
0.000111991
1.40529e-06
0.000107459
-2.19333e-06
0.000104512
-5.77068e-06
0.000102727
-9.67536e-06
0.000101502
-1.45071e-05
0.000100327
-2.076e-05
9.86294e-05
-2.8448e-05
9.55536e-05
-3.70393e-05
-4.59484e-05
9.00601e-05
-3.43772e-05
9.15359e-05
-4.61447e-05
0.000133991
-7.48362e-06
0.000190454
5.84363e-05
0.000234503
0.000123737
0.000238373
0.000168346
0.000208881
0.00018685
0.000164178
0.000185051
0.00012048
0.000172707
8.53594e-05
0.000157526
5.96267e-05
0.000143352
4.14818e-05
0.0001314
2.87915e-05
0.000121777
1.97264e-05
0.000114204
1.28853e-05
0.000108305
7.30421e-06
0.000103751
2.36072e-06
0.000100323
-2.34235e-06
9.77585e-05
-7.11108e-06
9.56031e-05
-1.23517e-05
9.31876e-05
-1.83444e-05
8.99783e-05
-2.52387e-05
8.55565e-05
-3.26174e-05
-3.99465e-05
7.95546e-05
-1.9609e-05
0.000111145
-3.07057e-05
0.000145088
-8.01293e-06
0.000167761
3.83886e-05
0.000188102
8.7673e-05
0.000189088
0.000124404
0.000172149
0.000143724
0.000144858
0.000148784
0.000115419
0.000145325
8.88185e-05
0.000137987
6.69652e-05
0.000129524
4.99447e-05
0.00012135
3.69656e-05
0.000114095
2.69814e-05
0.000107936
1.90439e-05
0.000102819
1.24216e-05
9.8602e-05
6.57779e-06
9.51363e-05
1.12326e-06
9.22561e-05
-4.23094e-06
8.96168e-05
-9.71235e-06
8.6788e-05
-1.55156e-05
8.32553e-05
-2.17059e-05
7.87298e-05
-2.80918e-05
-3.42814e-05
7.30649e-05
-6.18501e-06
0.00011733
-9.61473e-06
0.000148518
5.64517e-06
0.000152501
3.71031e-05
0.000156644
7.08609e-05
0.00015533
9.76602e-05
0.00014535
0.000114273
0.000128245
0.000121847
0.000107846
0.000123062
8.7603e-05
0.000120444
6.95839e-05
0.000115884
5.45048e-05
0.000110645
4.2205e-05
0.000105464
3.21625e-05
0.000100698
2.38103e-05
9.64661e-05
1.6653e-05
9.27577e-05
1.02862e-05
8.94897e-05
4.39112e-06
8.65321e-05
-1.27328e-06
8.36951e-05
-6.87533e-06
8.06906e-05
-1.25109e-05
7.72151e-05
-1.82304e-05
7.30485e-05
-2.39251e-05
-2.93551e-05
6.81223e-05
1.11526e-06
0.000116215
4.56008e-06
0.000145073
1.7915e-05
0.000139147
3.91083e-05
0.000135451
6.15814e-05
0.000132857
8.05572e-05
0.000126375
9.39884e-05
0.000114814
0.000101863
9.99709e-05
0.000105169
8.42972e-05
0.000105206
6.95471e-05
0.000103208
5.65034e-05
0.000100141
4.52719e-05
9.66562e-05
3.56473e-05
9.31355e-05
2.73311e-05
8.97685e-05
2.00199e-05
8.66165e-05
1.34382e-05
8.36555e-05
7.35213e-06
8.08026e-05
1.57964e-06
7.79552e-05
-4.02777e-06
7.49473e-05
-9.50299e-06
7.16093e-05
-1.48924e-05
6.78289e-05
-2.01446e-05
-2.50928e-05
6.35665e-05
3.80147e-06
0.000112413
1.15458e-05
0.000137329
2.37904e-05
0.000126902
3.9032e-05
0.000120209
5.4617e-05
0.000117273
6.84376e-05
0.000112554
7.92334e-05
0.000104018
8.65619e-05
9.26426e-05
9.06451e-05
8.02141e-05
9.21217e-05
6.80706e-05
9.17579e-05
5.68672e-05
9.02352e-05
4.67948e-05
8.80627e-05
3.78198e-05
8.55789e-05
2.98148e-05
8.29836e-05
2.26152e-05
8.03723e-05
1.60495e-05
7.77645e-05
9.96003e-06
7.51244e-05
4.21991e-06
7.2417e-05
-1.32038e-06
6.95342e-05
-6.62013e-06
6.63888e-05
-1.1747e-05
6.29238e-05
-1.66798e-05
-2.12863e-05
5.91172e-05
4.64458e-06
0.000107769
1.39225e-05
0.000128051
2.51216e-05
0.000115703
3.69027e-05
0.000108428
4.84608e-05
0.000105715
5.90414e-05
0.000101973
6.78743e-05
9.51853e-05
7.44477e-05
8.60693e-05
7.86906e-05
7.59712e-05
8.09012e-05
6.58601e-05
8.1543e-05
5.62254e-05
8.10753e-05
4.72625e-05
7.98732e-05
3.9022e-05
7.82107e-05
3.14773e-05
7.62705e-05
2.45555e-05
7.41597e-05
1.81604e-05
7.19275e-05
1.21924e-05
6.95844e-05
6.563e-06
6.70692e-05
1.19486e-06
6.43917e-05
-3.94272e-06
6.14962e-05
-8.85143e-06
5.83424e-05
-1.3526e-05
-1.78769e-05
5.49331e-05
4.93736e-06
0.000102832
1.42796e-05
0.000118709
2.42793e-05
0.000105703
3.38185e-05
9.88889e-05
4.29047e-05
9.66284e-05
5.13874e-05
9.34907e-05
5.87714e-05
8.78014e-05
6.45981e-05
8.02426e-05
6.87115e-05
7.18578e-05
7.12437e-05
6.33278e-05
7.24723e-05
5.49968e-05
7.26991e-05
4.70357e-05
7.21906e-05
3.95305e-05
7.11586e-05
3.25094e-05
6.97583e-05
2.59558e-05
6.80937e-05
1.98251e-05
6.62248e-05
1.40613e-05
6.41772e-05
8.6106e-06
6.19433e-05
3.4288e-06
5.95235e-05
-1.52292e-06
5.69014e-05
-6.22927e-06
5.40547e-05
-1.06793e-05
-1.48285e-05
5.10065e-05
4.98218e-06
9.78494e-05
1.37856e-05
0.000109906
2.2568e-05
9.69209e-05
3.04984e-05
9.09586e-05
3.79422e-05
8.91846e-05
4.4981e-05
8.6452e-05
5.12636e-05
8.15189e-05
5.64117e-05
7.50946e-05
6.02671e-05
6.80024e-05
6.28843e-05
6.07107e-05
6.44286e-05
5.34527e-05
6.50953e-05
4.63691e-05
6.50698e-05
3.95561e-05
6.45113e-05
3.30681e-05
6.35462e-05
2.69211e-05
6.22671e-05
2.11043e-05
6.07358e-05
1.55927e-05
5.89881e-05
1.03583e-05
5.704e-05
5.37691e-06
5.4886e-05
6.31215e-07
5.2547e-05
-3.8902e-06
5.00211e-05
-8.15333e-06
-1.21174e-05
4.73101e-05
4.85729e-06
9.29921e-05
1.28975e-05
0.000101866
2.05479e-05
8.92706e-05
2.72565e-05
8.42501e-05
3.35305e-05
8.29107e-05
3.95137e-05
8.04691e-05
4.49315e-05
7.61013e-05
4.9482e-05
7.05441e-05
5.30329e-05
6.44516e-05
5.56036e-05
5.81401e-05
5.72921e-05
5.17642e-05
5.82235e-05
4.54378e-05
5.85253e-05
3.92544e-05
5.83149e-05
3.32786e-05
5.76922e-05
2.7544e-05
5.67361e-05
2.20604e-05
5.55048e-05
1.68241e-05
5.40378e-05
1.18254e-05
5.23601e-05
7.05466e-06
5.04835e-05
2.50796e-06
4.84234e-05
-1.82995e-06
4.61984e-05
-5.92819e-06
-9.73401e-06
4.38151e-05
4.63313e-06
8.83589e-05
1.18374e-05
9.46616e-05
1.84765e-05
8.26315e-05
2.42229e-05
7.85038e-05
2.96137e-05
7.75201e-05
3.47832e-05
7.52997e-05
3.95012e-05
7.13832e-05
4.3531e-05
6.65143e-05
4.67702e-05
6.12125e-05
4.92237e-05
5.56867e-05
5.09491e-05
5.00389e-05
5.20258e-05
4.43611e-05
5.25408e-05
3.87396e-05
5.25797e-05
3.32399e-05
5.22202e-05
2.79035e-05
5.15281e-05
2.27526e-05
5.05556e-05
1.77966e-05
4.93429e-05
1.30382e-05
4.79199e-05
8.47779e-06
4.63097e-05
4.11826e-06
4.45246e-05
-4.46326e-08
4.2586e-05
-3.98946e-06
-7.67971e-06
4.05317e-05
4.36924e-06
8.39898e-05
1.07361e-05
8.82948e-05
1.64848e-05
7.68829e-05
2.14493e-05
7.35394e-05
2.61391e-05
7.28304e-05
3.06526e-05
7.0786e-05
3.47891e-05
6.72467e-05
3.83641e-05
6.29394e-05
4.13019e-05
5.82747e-05
4.36018e-05
5.33869e-05
4.52973e-05
4.83435e-05
4.64382e-05
4.32203e-05
4.70837e-05
3.80943e-05
4.7296e-05
3.30277e-05
4.71354e-05
2.80642e-05
4.6656e-05
2.32321e-05
4.59041e-05
1.85486e-05
4.49184e-05
1.40241e-05
4.37308e-05
9.6655e-06
4.23687e-05
5.48056e-06
4.08509e-05
1.47325e-06
3.92161e-05
-2.35466e-06
-5.95368e-06
3.74901e-05
4.1063e-06
7.98837e-05
9.66918e-06
8.27319e-05
1.46328e-05
7.19193e-05
1.89445e-05
6.92278e-05
2.30563e-05
6.87185e-05
2.70224e-05
6.68198e-05
3.06642e-05
6.36049e-05
3.38388e-05
5.97649e-05
3.64922e-05
5.56214e-05
3.86217e-05
5.12574e-05
4.02464e-05
4.67189e-05
4.13973e-05
4.20696e-05
4.21145e-05
3.73771e-05
4.24439e-05
3.26984e-05
4.24321e-05
2.80761e-05
4.21237e-05
2.35406e-05
4.15594e-05
1.9113e-05
4.07755e-05
1.48081e-05
3.98044e-05
1.06367e-05
3.86759e-05
6.60913e-06
3.7416e-05
2.73312e-06
3.60665e-05
-1.00515e-06
-4.53508e-06
3.46479e-05
3.86693e-06
7.60167e-05
8.67832e-06
7.79206e-05
1.29417e-05
6.7656e-05
1.66944e-05
6.54752e-05
2.03152e-05
6.50976e-05
2.3812e-05
6.33231e-05
2.70245e-05
6.03926e-05
2.9843e-05
5.69465e-05
3.22302e-05
5.32344e-05
3.41834e-05
4.93044e-05
3.5713e-05
4.51895e-05
3.68379e-05
4.09447e-05
3.75858e-05
3.66294e-05
3.79902e-05
3.22941e-05
3.80875e-05
2.79788e-05
3.79143e-05
2.37139e-05
3.75056e-05
1.95218e-05
3.68942e-05
1.54196e-05
3.61112e-05
1.14197e-05
3.51872e-05
7.5332e-06
3.41535e-05
3.76671e-06
3.30194e-05
1.28951e-07
-3.37117e-06
3.18555e-05
3.65645e-06
7.23602e-05
7.78581e-06
7.37913e-05
1.14165e-05
6.40253e-05
1.46765e-05
6.22152e-05
1.7867e-05
6.19072e-05
2.09506e-05
6.02396e-05
2.37826e-05
5.75609e-05
2.62793e-05
5.44499e-05
2.84164e-05
5.10974e-05
3.01921e-05
4.75288e-05
3.1611e-05
4.37706e-05
3.26843e-05
3.98715e-05
3.34307e-05
3.58831e-05
3.38745e-05
3.18504e-05
3.40436e-05
2.78099e-05
3.39669e-05
2.37907e-05
3.36732e-05
1.98156e-05
3.31902e-05
1.59026e-05
3.25446e-05
1.20653e-05
3.17625e-05
8.31525e-06
3.08695e-05
4.65967e-06
2.98879e-05
1.11048e-06
-2.33682e-06
2.88536e-05
3.46544e-06
6.88948e-05
6.99773e-06
7.02592e-05
1.00528e-05
6.09703e-05
1.28638e-05
5.94043e-05
1.56627e-05
5.91085e-05
1.83712e-05
5.75314e-05
2.08565e-05
5.50757e-05
2.30555e-05
5.2251e-05
2.49535e-05
4.91996e-05
2.65493e-05
4.59332e-05
2.78434e-05
4.24766e-05
2.88413e-05
3.88737e-05
2.95545e-05
3.51699e-05
3e-05
3.1405e-05
3.01976e-05
2.76124e-05
3.01687e-05
2.38196e-05
2.99352e-05
2.00492e-05
2.95179e-05
1.63198e-05
2.89375e-05
1.26457e-05
2.82144e-05
9.03828e-06
2.73692e-05
5.50486e-06
2.64231e-05
2.05652e-06
-1.31985e-06
2.54061e-05
3.27738e-06
6.56176e-05
6.30462e-06
6.72322e-05
8.83445e-06
5.84406e-05
1.12235e-05
5.70155e-05
1.36526e-05
5.66797e-05
1.60082e-05
5.5176e-05
1.81673e-05
5.29166e-05
2.00819e-05
5.03366e-05
2.17443e-05
4.75373e-05
2.31527e-05
4.45248e-05
2.43042e-05
4.13251e-05
2.51993e-05
3.79786e-05
2.5844e-05
3.45253e-05
2.62481e-05
3.10009e-05
2.64246e-05
2.7436e-05
2.63878e-05
2.38565e-05
2.61523e-05
2.02847e-05
2.5733e-05
1.6739e-05
2.5145e-05