/*--------------------------------*- C++ -*----------------------------------*\
| =========                 |                                                 |
| \\      /  F ield         | OpenFOAM: The Open Source CFD Toolbox           |
|  \\    /   O peration     | Version:  2206                                  |
|   \\  /    A nd           | Website:  www.openfoam.com                      |
|    \\/     M anipulation  |                                                 |
\*---------------------------------------------------------------------------*/
FoamFile
{
    version     2.0;
    format      ascii;
    arch        "LSB;label=32;scalar=64";
    class       volScalarField;
    location    "0.6";
    object      alpha.water;
}
// * * * * * * * * * * * * * * * * * * * * * * * * * * * * * * * * * * * * * //

dimensions      [0 0 0 0 0 0 0];

internalField   nonuniform List<scalar> 
2268
(
1
1
1
1
1
1
1
1
1
1
1
1
1
1
1
1
1
1
1
0.999998
0.999997
0.999997
0.895402
1
1
1
1
1
1
1
1
1
1
1
1
1
1
1
1
1
1
1
0.999988
0.999985
0.997325
0.887701
1
1
1
1
1
1
1
1
1
1
1
1
1
1
1
1
1
1
1
1
1
0.984034
0.895711
1
1
1
1
1
1
1
1
1
1
1
1
1
1
1
1
1
1
1
1
1
0.998654
0.992598
1
1
1
1
1
1
1
1
1
1
1
1
1
1
1
1
1
1
1
1
1
1
1
1
1
1
1
1
1
1
1
1
1
1
1
1
1
1
1
1
1
1
1
1
1
1
1
1
1
1
1
1
1
1
1
1
1
1
1
1
1
1
0.999999
0.999999
0.999999
0.999999
0.999999
0.999999
1
1
1
0.981818
0.964433
0.972261
0.995412
1
1
1
1
1
0.999999
0.999212
0.995856
0.991009
0.985293
0.979552
0.97584
0.974859
0.976367
0.979838
0.988415
0.997402
0.418803
0.418803
0.404849
0.333629
0.396569
0.433746
0.454019
0.463332
0.463614
0.463614
0.463614
0.463554
0.451218
0.44393
0.426477
0.305618
0.343952
0.351258
0.351258
0.395337
0.0197928
0.0164478
0.00520585
0.0180272
0.0761473
0.105714
0.273281
0.463332
0.463614
0.456477
0.255967
0.0898924
0.0476263
0.0342387
0.0321214
0.0393615
0.0692544
0.347333
0.269176
0.00179731
0.00179731
0.00179731
0.0653675
0.119001
0.0502004
0.00838979
0.0858647
0.0787389
0.0485028
0.0550605
0.0581715
0.0891481
0.0469237
0.00337045
0.000867618
0.00190703
0.300876
0.0325769
0.00224636
0.00179731
0.035344
0.161372
0.159842
0.104888
0.00378122
0.00091843
0.00730853
0.0401084
0.0780088
0.0928123
0.0928123
0.0512025
0.000732046
0.000230074
0.000533642
0.239589
0.000696536
0.001969
0.00227925
0.163073
0.163192
0.140346
0.0172675
0.000333571
0.00022663
0.0140476
0.0449922
0.088845
0.0928123
0.0570565
0.000334452
0.000148103
0.000133462
0.000210146
0.130062
0.000385826
0.000696536
0.172825
0.17083
0.139289
0.000184669
2.4272e-06
0.00027762
0.000112752
0.00227173
0.00159579
0.0284221
0.037487
0.00032323
0.000148109
0.000133476
0.000122245
0.000133476
0.00753458
0.000385898
0.230021
0.228775
0.149781
0.000168274
1.75593e-06
7.7306e-08
5.22373e-06
6.56619e-06
3.48802e-05
0.00229499
0.0156752
0.0158053
0.00710171
0.000474619
0.000122245
0.000119571
0.000122245
0.000160304
0.537118
0.482019
0.138752
2.57996e-05
6.21791e-07
3.33887e-08
2.9706e-08
7.5985e-08
6.26112e-07
0.00177093
0.052507
0.0643069
0.0642819
0.0545344
0.00198373
0.000119553
0.000110708
0.000496461
0.0005328
0.758909
0.779868
0.75147
0.762833
0.764116
0.756227
0.748481
0.739503
0.748412
0.753361
0.743189
0.676156
0.555449
0.459557
0.39432
0.347188
0.314954
0.296474
0.29219
0.299914
0.323961
0.407907
0.545815
0.117637
0.156513
0.209093
0.243124
0.222135
0.172661
0.137198
0.106725
0.0731873
0.0429329
0.0194387
1.99856e-07
2.36835e-07
1.05715e-07
1.23303e-08
1.62925e-09
1.8429e-10
2.11472e-11
4.22348e-12
2.51366e-12
2.32646e-12
2.17452e-12
-2.45247e-10
0.000225926
0.000257083
0.00029073
0.000253609
0.000145714
5.60062e-05
8.15145e-06
1.24338e-07
2.69202e-07
2.35064e-07
1.99856e-07
1.77462e-07
1.99856e-07
3.23901e-07
4.00117e-07
2.70943e-07
3.86107e-08
1.36906e-10
1.31982e-11
7.3255e-12
2.3953e-12
2.32644e-12
-5.73721e-11
2.00707e-05
1.63663e-05
1.31747e-05
8.39767e-06
3.13864e-06
4.43123e-07
3.01993e-08
2.29576e-09
8.6457e-07
8.77409e-07
2.5189e-07
1.26343e-07
1.12063e-06
1.55731e-06
1.56332e-06
1.30086e-06
6.59039e-08
-6.65426e-25
-4.14297e-26
2.42287e-12
1.60464e-12
2.33502e-12
9.42557e-12
1.46533e-06
9.62436e-07
4.34266e-07
9.51622e-08
-2.01216e-08
-2.52858e-09
-1.77878e-10
-2.78916e-12
1.34392e-13
8.96739e-15
4.80545e-16
2.01948e-29
-1.26218e-30
-3.9443e-32
-3.27218e-15
-6.30651e-15
-9.00202e-15
-1.07147e-14
-1.10596e-14
-9.92719e-15
-7.45019e-15
3.24357e-12
2.62982e-15
1.00878e-07
4.88274e-08
1.01186e-08
4.64306e-10
-4.07088e-10
-1.16123e-10
-1.58495e-12
-2.44342e-14
5.66173e-17
-1.29432e-30
7.88861e-32
-3.7988e-15
-9.22722e-15
-1.39565e-14
-1.74639e-14
-1.95549e-14
-2.01172e-14
-1.91675e-14
-1.68343e-14
-1.32457e-14
-8.62584e-15
-3.61847e-15
-1.60318e-17
6.50891e-09
2.09559e-09
1.62304e-10
-1.4706e-12
-3.75778e-13
-1.81638e-13
-1.09799e-14
-9.64743e-17
-4.40244e-24
-2.81298e-15
-6.62557e-15
-1.09062e-14
-1.47475e-14
-1.73928e-14
-1.84917e-14
-1.80743e-14
-1.64048e-14
-1.3835e-14
-1.06805e-14
-7.17858e-15
-3.3185e-15
-3.9443e-32
8.20761e-15
4.78069e-10
8.46458e-11
1.18972e-12
-3.17737e-14
-2.1125e-15
-4.28113e-18
-2.32398e-18
-1.46888e-16
-5.20023e-16
-1.0344e-15
-1.65453e-15
-2.27322e-15
-2.75839e-15
-3.01164e-15
-2.99882e-15
-2.74125e-15
-2.28532e-15
-1.69027e-15
-9.68268e-16
-1.68781e-16
9.12386e-16
4.18491e-15
1.05923e-14
5.52736e-11
2.24429e-12
1.47122e-14
2.02951e-16
5.40701e-18
-5.87118e-20
-7.05172e-18
-3.48909e-17
-8.22169e-17
-1.50122e-16
-2.27874e-16
-2.96682e-16
-3.39004e-16
-3.45693e-16
-3.16341e-16
-2.56294e-16
-1.61108e-16
-3.26364e-17
1.3772e-16
6.72489e-16
2.03846e-15
5.07077e-15
1.18796e-14
1.14086e-11
2.22512e-12
4.861e-14
1.86491e-17
1.96616e-19
-1.98384e-22
-8.82792e-19
-3.60799e-18
-8.37011e-18
-1.47274e-17
-2.10295e-17
-2.52108e-17
-2.58569e-17
-2.24411e-17
-1.38383e-17
-1.51797e-18
2.11145e-17
9.61502e-17
2.99574e-16
8.66015e-16
2.42504e-15
6.52781e-15
1.63274e-14
9.67633e-12
1.37207e-12
9.33478e-15
3.33088e-18
6.35765e-20
-1.90173e-22
-4.99401e-20
-2.4784e-19
-5.54807e-19
-8.92001e-19
-1.11076e-18
-1.05412e-18
-5.8899e-19
4.39503e-20
2.44697e-18
9.84359e-18
3.1702e-17
9.56201e-17
2.92023e-16
8.98196e-16
2.62605e-15
7.2039e-15
1.79566e-14
6.10036e-12
4.61376e-13
1.21992e-15
7.22601e-19
1.57702e-20
2.30115e-22
7.52316e-38
-8.92917e-21
-1.7675e-20
-1.88432e-20
-6.65976e-21
2.08716e-20
1.49326e-19
6.24445e-19
1.80838e-18
5.41656e-18
1.88029e-17
7.07825e-17
2.63915e-16
8.9175e-16
2.63566e-15
7.29563e-15
1.81371e-14
2.82537e-12
1.20429e-13
1.20714e-16
1.84641e-19
4.08387e-21
3.92674e-23
9.11817e-24
1.492e-23
1.27627e-22
8.75845e-22
4.76177e-21
1.51335e-20
5.12335e-20
1.95117e-19
7.51144e-19
2.99888e-18
1.2594e-17
5.2823e-17
2.03987e-16
6.84887e-16
2.06733e-15
6.48107e-15
1.65093e-14
7.37855e-13
2.0877e-14
6.32045e-18
3.48576e-20
7.58525e-22
5.44714e-24
1.37813e-24
1.31133e-23
2.79711e-23
1.16537e-22
6.46775e-22
3.7526e-21
2.0043e-20
8.92488e-20
3.65861e-19
1.59013e-18
7.26568e-18
3.10614e-17
1.15446e-16
4.01374e-16
1.49799e-15
5.79318e-15
1.5637e-14
8.14178e-14
1.90734e-15
5.30212e-19
3.70335e-21
7.83858e-23
6.51745e-25
1.12362e-25
5.41038e-25
4.23758e-24
3.28834e-23
2.23639e-22
1.37443e-21
7.50521e-21
3.41702e-20
1.53272e-19
7.4616e-19
3.57193e-18
1.50869e-17
5.66505e-17
2.49003e-16
1.25464e-15
5.47338e-15
1.54926e-14
4.49527e-15
1.18936e-16
4.0176e-20
2.5946e-22
5.32218e-24
9.93609e-26
1.0056e-26
1.38076e-25
1.13769e-24
8.57563e-24
6.13377e-23
4.15459e-22
2.49775e-21
1.21658e-20
6.07483e-20
3.13049e-19
1.47225e-18
6.37764e-18
2.78764e-17
1.72327e-16
1.07979e-15
4.69156e-15
1.38142e-14
2.26772e-16
7.35462e-18
3.00611e-21
1.61713e-23
3.24152e-25
9.26667e-27
2.01441e-27
2.57563e-26
2.39264e-25
2.01925e-24
1.6094e-23
1.19335e-22
7.74046e-22
4.05191e-21
2.24624e-20
1.14522e-19
5.25975e-19
2.63225e-18
1.44748e-17
1.14976e-16
7.55102e-16
3.15744e-15
1.00643e-14
1.23792e-17
4.60068e-19
2.21276e-22
1.01423e-24
1.99827e-26
8.8181e-28
4.83901e-28
5.02542e-27
4.96663e-26
4.5358e-25
3.95409e-24
3.18971e-23
2.23255e-22
1.27965e-21
7.73018e-21
3.67908e-20
1.78859e-19
1.12954e-18
7.41564e-18
6.32654e-17
4.35694e-16
2.19589e-15
7.71873e-15
6.27339e-19
2.70573e-20
1.62394e-23
6.66268e-26
1.28661e-27
7.44485e-29
8.345e-29
9.08094e-28
9.6753e-27
9.66518e-26
9.21233e-25
8.03969e-24
6.06136e-23
3.84485e-22
2.45492e-21
1.08191e-20
6.32269e-20
4.72922e-19
3.42945e-18
3.24261e-17
3.09856e-16
1.89899e-15
6.49829e-15
2.71654e-20
1.41252e-21
1.10818e-24
3.9777e-27
7.53915e-29
3.71557e-30
1.29984e-29
1.58147e-28
1.82378e-27
1.97933e-26
2.04394e-25
1.91827e-24
1.55959e-23
1.09417e-22
7.20255e-22
3.08252e-21
2.3107e-20
1.72515e-19
1.46441e-18
2.04181e-17
2.66412e-16
1.73596e-15
4.82437e-15
9.69359e-22
6.23227e-23
6.59079e-26
2.02205e-28
3.78392e-30
1.55628e-31
1.95081e-30
2.65353e-29
3.32526e-28
3.89934e-27
4.32762e-26
4.35097e-25
3.82127e-24
2.92878e-23
1.97992e-22
8.74345e-22
7.98261e-21
5.30129e-20
6.55171e-19
1.5559e-17
2.25166e-16
1.16142e-15
1.26577e-15
2.71747e-23
2.21707e-24
3.24067e-27
8.19102e-30
1.56349e-31
7.67152e-33
2.81691e-31
4.31689e-30
5.87125e-29
7.39286e-28
8.75149e-27
9.40302e-26
8.92208e-25
7.35475e-24
5.17918e-23
2.4528e-22
2.40698e-21
1.42925e-20
3.27862e-19
1.32745e-17
1.33274e-16
1.20814e-16
-7.74464e-16
5.52069e-25
5.99005e-26
1.25837e-28
2.44217e-31
4.94439e-33
1.5236e-33
4.0312e-32
6.78605e-31
9.99426e-30
1.34534e-28
1.68906e-27
1.93616e-26
1.98039e-25
1.74039e-24
1.29119e-23
6.71397e-23
6.2634e-22
3.36778e-21
1.79399e-19
1.21905e-17
4.96413e-18
-3.0948e-16
-1.8212e-15
6.97157e-27
1.10699e-27
3.54415e-30
3.20325e-33
5.19173e-35
2.70108e-34
5.63172e-33
1.02533e-31
1.63024e-30
2.34e-29
3.10467e-28
3.78956e-27
4.16549e-26
3.90054e-25
3.03577e-24
1.84166e-23
1.41037e-22
4.9932e-22
1.02079e-19
6.3314e-18
-4.9523e-17
-5.36341e-16
-2.13571e-15
3.70842e-29
1.09252e-29
7.50455e-32
5.02375e-36
2.49356e-37
3.34443e-35
7.52327e-34
1.47804e-32
2.5298e-31
3.86864e-30
5.41556e-29
7.02336e-28
8.27871e-27
8.27498e-26
6.65493e-25
5.77809e-24
1.80751e-23
-1.72132e-22
5.24175e-20
-9.69286e-20
-8.17038e-17
-5.84805e-16
-1.90289e-15
7.64072e-33
1.50617e-32
3.28744e-34
2.59206e-39
1.16829e-37
3.82081e-36
9.52492e-35
2.01552e-33
3.70647e-32
6.04096e-31
8.92178e-30
1.2271e-28
1.54938e-27
1.65361e-26
1.3612e-25
2.24878e-24
-1.3409e-23
-5.30876e-22
6.89527e-22
-1.55047e-18
-8.79048e-17
-5.11232e-16
-1.41639e-15
7.77884e-38
6.10566e-39
9.10643e-42
1.88216e-40
1.20443e-38
4.24236e-37
1.13205e-35
2.57728e-34
5.088e-33
8.84829e-32
1.38017e-30
2.01136e-29
2.71754e-28
3.09365e-27
2.65343e-26
6.3205e-25
-2.94917e-23
-7.81742e-22
-3.07336e-20
-2.24732e-18
-7.64287e-17
-3.84682e-16
-9.11295e-16
1.17543e-39
9.66817e-41
2.24818e-43
1.75267e-41
1.20922e-39
4.35914e-38
1.25219e-36
3.06348e-35
6.49348e-34
1.20667e-32
1.99167e-31
3.07547e-30
4.44106e-29
5.38062e-28
5.17171e-27
9.72198e-26
-3.68593e-23
-8.93011e-22
-5.36596e-20
-2.32849e-18
-5.74317e-17
-2.56561e-16
-5.12457e-16
1.56043e-41
1.32139e-42
1.53293e-44
1.67261e-42
1.08932e-40
4.11437e-39
1.27628e-37
3.35512e-36
7.64233e-35
1.51975e-33
2.66076e-32
4.35664e-31
6.71795e-30
8.63524e-29
1.16148e-27
-9.05104e-27
-3.58668e-23
-8.63785e-22
-6.12697e-20
-1.99529e-18
-3.82866e-17
-1.53437e-16
-2.52205e-16
1.87636e-43
1.6076e-44
1.08801e-45
1.39144e-43
8.79123e-42
3.53238e-40
1.18613e-38
3.35428e-37
8.22086e-36
1.75173e-34
3.26181e-33
5.67026e-32
9.33345e-31
1.28245e-29
2.34157e-28
-3.22203e-26
-2.93889e-23
-7.29939e-22
-5.51248e-20
-1.47082e-18
-2.28644e-17
-8.23294e-17
-1.08996e-16
2.08345e-45
1.74389e-46
6.7011e-47
9.97724e-45
6.30597e-43
2.72754e-41
9.93802e-40
3.0295e-38
7.99994e-37
1.82867e-35
3.63097e-34
6.71398e-33
1.17933e-31
1.84139e-30
1.94921e-29
-3.86524e-26
-2.09072e-23
-5.45626e-22
-4.14406e-20
-9.45993e-19
-1.22515e-17
-3.92507e-17
-4.27291e-17
2.14744e-47
1.79353e-48
3.47089e-48
6.11351e-46
3.97901e-44
1.869e-42
7.41039e-41
2.44151e-39
6.95623e-38
1.70753e-36
3.62431e-35
7.1475e-34
1.34001e-32
2.8701e-31
-1.05268e-29
-3.34588e-26
-1.30689e-23
-3.62149e-22
-2.66481e-20
-5.33221e-19
-5.87215e-18
-1.62145e-17
-1.72263e-17
2.03097e-49
1.76577e-50
1.82541e-49
3.16541e-47
2.17748e-45
1.11817e-43
4.84166e-42
1.72879e-40
5.32216e-39
1.40444e-37
3.19422e-36
6.74267e-35
1.36379e-33
3.1903e-32
-1.75523e-29
-2.34114e-26
-7.20144e-24
-2.13091e-22
-1.47717e-20
-2.63067e-19
-2.50173e-18
-5.44862e-18
-9.12973e-18
1.70949e-51
1.60482e-52
8.2117e-51
1.36364e-48
1.01307e-46
5.72064e-45
2.71681e-43
1.05392e-41
3.51188e-40
9.97651e-39
2.43781e-37
5.53442e-36
1.30727e-34
-3.2333e-34
-1.58795e-29
-1.36943e-26
-3.48835e-24
-1.1055e-22
-7.06297e-21
-1.13019e-19
-9.38916e-19
-1.18833e-18
-6.90377e-18
1.21455e-53
1.40289e-54
2.91843e-52
4.767e-50
3.89343e-48
2.43356e-46
1.27386e-44
5.37979e-43
1.9451e-41
5.96077e-40
1.57073e-38
3.86295e-37
1.17369e-35
-3.42793e-33
-1.05828e-29
-6.76524e-27
-1.474e-24
-5.01083e-23
-2.89879e-21
-4.19248e-20
-3.06824e-19
1.07261e-19
-5.91121e-18
6.7085e-56
1.36511e-56
7.79043e-54
1.2971e-51
1.18341e-49
8.26542e-48
4.79443e-46
2.20887e-44
8.69722e-43
2.88517e-41
8.25198e-40
2.2445e-38
5.81733e-37
-3.32409e-33
-5.56034e-30
-2.81421e-27
-5.36581e-25
-1.95792e-23
-1.01075e-21
-1.32641e-20
-8.60019e-20
2.83384e-19
-4.59179e-18
2.51386e-58
1.56069e-58
1.4503e-55
2.55105e-53
2.64913e-51
2.10073e-49
1.3585e-47
6.85131e-46
2.95495e-44
1.06821e-42
3.35895e-41
1.12696e-39
-1.06479e-37
-2.03047e-33
-2.3319e-30
-9.73455e-28
-1.65207e-25
-6.47018e-24
-2.94517e-22
-3.51738e-21
-2.0273e-20
1.56756e-19
-2.84372e-18
4.2822e-61
1.52726e-60
1.61703e-57
3.12017e-55
3.82028e-53
3.54379e-51
2.57767e-49
1.43547e-47
6.85295e-46
2.74177e-44
9.78063e-43
3.49617e-41
-1.37663e-37
-8.81499e-34
-7.71887e-31
-2.73553e-28
-4.18856e-26
-1.75936e-24
-6.99577e-23
-7.62657e-22
-3.91311e-21
1.05624e-20
-1.23901e-18
1.21059e-64
7.81371e-63
6.8463e-60
1.58204e-57
2.54987e-55
2.95944e-53
2.47683e-51
1.56657e-49
8.5164e-48
3.97288e-46
1.85583e-44
-2.91254e-42
-7.34526e-38
-2.74919e-34
-1.95176e-31
-6.01116e-29
-8.40289e-27
-3.77957e-25
-1.30489e-23
-1.30338e-22
-5.95517e-22
2.19065e-22
-2.98158e-19
6.34541e-70
2.23587e-67
2.49707e-64
1.14242e-61
3.4068e-59
6.59586e-57
1.20623e-54
1.70662e-52
1.74366e-50
1.63609e-48
1.4543e-46
-2.94807e-42
-2.25585e-38
-5.89567e-35
-3.54545e-32
-9.69306e-30
-1.25157e-27
-6.01305e-26
-1.79918e-24
-1.65544e-23
-6.73981e-23
-8.29633e-24
-2.06093e-20
1.95794e-81
2.04285e-77
7.79564e-74
1.31765e-70
1.42565e-67
1.04486e-64
6.46638e-62
2.95475e-59
9.21601e-57
2.82448e-54
6.87422e-52
-8.28939e-43
-3.80045e-39
-7.75837e-36
-4.10871e-33
-1.01948e-30
-1.23175e-28
-6.29818e-27
-1.63757e-25
-1.40035e-24
-5.09491e-24
-4.83979e-25
-8.28737e-21
0
2.17752e-91
2.20829e-87
4.27896e-84
-7.09457e-76
-1.65018e-78
-4.61895e-69
-6.3236e-70
-6.70409e-63
-1.10338e-63
-9.92748e-65
-6.69867e-44
-2.5727e-40
-4.63856e-37
-2.26042e-34
-5.24251e-32
-6.02084e-30
-3.26106e-28
-7.40655e-27
-5.98049e-26
-1.95642e-25
-1.30473e-26
-1.72587e-21
0.742226
0.742228
0.741194
0.739167
0.108129
0.234533
0.211587
0.0961761
2.1411e-08
2.33847e-09
6.2216e-10
2.42746e-10
1.59253e-14
6.79215e-11
2.83471e-10
3.49975e-10
1.32049e-15
2.86439e-11
8.08695e-10
9.85053e-10
2.20783e-15
3.3053e-15
3.78082e-15
6.27224e-14
2.66176e-14
6.34148e-14
1.32209e-13
2.36595e-13
2.41282e-14
5.48072e-14
1.22905e-13
2.19212e-13
3.0811e-14
7.73458e-14
1.71314e-13
3.03799e-13
4.14305e-14
9.82816e-14
2.07313e-13
4.63534e-13
4.449e-14
1.0998e-13
3.19947e-13
1.94241e-12
4.4724e-14
2.07692e-13
1.66968e-12
1.0342e-11
5.36127e-14
6.02842e-13
6.22926e-12
2.62842e-11
7.37496e-14
1.02623e-12
1.19427e-11
3.56002e-11
8.37507e-14
1.17136e-12
1.47348e-11
3.56431e-11
8.37513e-14
1.12386e-12
7.33329e-12
2.48217e-11
6.00667e-14
6.36401e-13
4.27747e-12
6.89639e-12
3.44401e-14
3.08882e-13
1.08799e-12
1.9521e-12
1.84334e-14
9.61463e-14
2.06739e-13
6.35979e-13
5.49575e-15
1.44401e-14
3.40436e-14
2.01719e-14
-1.39033e-15
-2.61168e-15
-1.93434e-18
1.90269e-14
-5.07395e-15
-6.86881e-15
-1.74784e-15
3.03828e-13
-6.14443e-15
-7.1116e-15
-3.72659e-17
2.81284e-12
-5.18219e-15
-5.14575e-15
-1.55754e-13
3.08532e-11
-3.45841e-15
-2.85859e-15
-9.89401e-12
2.86365e-10
-1.9208e-15
-1.10021e-15
-3.77177e-12
2.42633e-09
-9.10584e-16
-3.01948e-20
-4.64251e-11
1.00342e-05
-3.62791e-16
-5.31293e-21
-4.94955e-11
5.82493e-05
-9.58223e-17
-2.17054e-18
3.40264e-06
6.29087e-05
-7.94812e-33
1.31878e-17
8.72815e-06
6.23048e-05
-1.38786e-32
1.34998e-16
7.49653e-06
4.90275e-05
3.15532e-31
1.27421e-15
1.45744e-06
8.66451e-10
2.22056e-14
6.81477e-11
2.0408e-12
3.21489e-12
5.88992e-14
1.16621e-10
6.10855e-13
1.48342e-08
3.32073e-14
6.74197e-11
2.14249e-14
9.48917e-08
4.68465e-15
2.62277e-12
7.57304e-30
9.03318e-08
-3.15567e-17
-1.15837e-14
-2.29645e-15
1.16813e-09
-2.46353e-17
-6.763e-15
-7.01542e-16
-8.72272e-17
-1.76815e-17
-2.86779e-15
1.72591e-16
-4.41162e-17
-1.07249e-17
-1.04023e-15
3.15338e-16
-2.30155e-17
-4.48566e-18
-4.26947e-16
1.49252e-16
-6.74518e-18
-9.62573e-19
-9.08759e-17
1.0387e-18
3.47702e-19
0.449175
0.000160863
9.13332e-06
3.27673e-07
2.4873e-08
2.9706e-08
2.96779e-08
2.77305e-08
8.6737e-08
0.0426794
0.0630745
0.0639575
0.0643718
0.0481042
0.0027227
0.000107764
9.356e-05
0.00201851
0.00171439
-5.37986e-07
-1.63454e-09
-1.05711e-08
-8.91621e-11
4.76252e-08
7.00319e-08
2.95414e-08
2.57271e-08
3.15322e-08
0.0235262
0.0524122
0.0630745
0.0635324
0.0050962
0.000120677
9.33129e-05
8.84755e-05
0.00213066
0.00140349
5.09064e-11
2.48541e-11
2.29734e-11
2.297e-11
5.63139e-08
1.2572e-07
9.37905e-08
2.57271e-08
1.34527e-07
1.354e-07
2.67497e-05
0.0229331
0.0139853
0.000601573
9.66658e-05
8.67888e-05
8.49175e-05
0.00112114
0.000772636
3.28858e-10
1.87042e-10
2.83491e-11
2.26876e-11
7.20383e-08
1.2572e-07
8.9325e-08
3.55982e-08
0.00251167
0.000439562
9.2139e-05
0.000133402
0.000165453
0.000100044
8.67882e-05
8.49175e-05
8.46649e-05
0.000132062
0.000573694
7.66033e-10
2.28267e-10
2.38061e-11
2.23496e-11
2.21744e-11
3.22326e-08
1.98186e-08
1.81528e-08
0.000205343
1.72829e-05
2.13405e-05
0.000108167
0.0003036
0.000317496
9.01398e-05
8.4661e-05
8.49175e-05
0.000294934
0.00336863
6.26128e-14
7.43128e-13
1.03523e-11
3.70056e-11
2.81756e-11
0
-3.88178e-10
1.43835e-06
1.63525e-06
2.67911e-06
4.06858e-06
0.000410339
0.000894054
0.00133479
0.000155134
8.49815e-05
8.47335e-05
0.00113086
0.00895319
4.10521e-13
1.89309e-12
1.13483e-11
6.29667e-11
2.34947e-10
2.31381e-10
-3.50848e-10
3.07477e-05
3.07632e-05
4.98704e-06
4.38914e-06
0.0360604
0.016162
0.00114795
9.94311e-05
9.01886e-05
8.4981e-05
0.00109192
0.00939457
6.22207e-13
5.0295e-12
2.31405e-11
7.55303e-11
2.94411e-10
4.917e-10
0
1.97204e-05
8.21557e-06
6.58218e-06
0.0183428
0.0800788
0.0486373
0.000549399
9.89163e-05
9.73905e-05
9.01882e-05
0.000293354
0.00957788
1.52823e-12
1.43608e-11
4.65651e-11
9.10393e-11
2.91982e-10
1.08882e-09
1.00246e-09
4.44572e-10
4.44574e-10
-2.20982e-08
0.07508
0.080237
0.0529326
0.000538807
0.000167273
9.89163e-05
0.000111457
0.000929882
0.00963005
6.10018e-12
3.95874e-11
8.79011e-11
1.10836e-10
2.97012e-10
1.52706e-09
1.95283e-09
6.04914e-10
4.44572e-10
0.000508297
0.080237
0.080237
0.0395088
0.000344747
0.000226593
0.000933676
0.00338765
0.00932875
0.00959871
2.00183e-11
7.1085e-11
1.13598e-10
1.21003e-10
2.30772e-10
1.4131e-09
1.95476e-09
7.27611e-10
4.57255e-10
0.0309135
0.0801784
0.080237
0.0604326
0.00162918
0.000267118
0.00362308
0.00749083
0.0085569
0.00851537
4.13055e-11
8.66883e-11
1.12838e-10
1.14845e-10
1.78483e-10
1.10764e-09
1.21815e-09
7.84888e-10
6.52209e-10
0.0758797
0.0796472
0.0801784
0.0796472
0.00491683
0.00015448
0.00270412
0.0066011
0.00677808
0.00120434
5.34978e-11
7.77287e-11
7.61564e-11
7.23824e-11
7.49749e-10
3.54249e-09
3.06938e-09
1.2002e-09
6.86544e-09
0.0266626
0.0768817
0.0796472
0.0731168
0.00510291
0.000117969
0.000562149
0.00253957
0.00240862
0.000131895
5.19707e-11
2.80527e-11
1.87891e-11
1.60152e-10
8.62523e-09
3.62803e-08
2.69316e-08
5.77489e-08
6.71734e-05
0.000683257
0.0167899
0.0458699
0.00728281
0.00127751
0.00011785
8.66078e-05
0.000238185
0.000130603
5.42451e-05
2.12476e-11
7.44062e-12
-1.96707e-11
1.82689e-09
1.1177e-07
4.44992e-07
3.15117e-07
3.82751e-06
0.00254669
0.000286966
1.48984e-05
1.36041e-05
1.36041e-05
0.000343303
0.000152399
3.91783e-05
9.83433e-05
4.48639e-05
1.71177e-05
2.51956e-12
1.72892e-12
-1.46544e-10
2.23241e-08
1.27143e-06
6.02094e-05
3.15075e-05
3.71581e-06
2.57354e-05
1.80891e-05
1.43834e-05
1.37034e-05
1.35773e-05
0.000355133
0.00035333
1.66597e-05
3.83874e-05
1.65853e-05
6.58013e-06
-8.57703e-12
-6.4658e-14
-9.82815e-10
2.82557e-07
0.000209284
0.000537025
0.000471319
0.000274361
0.00013722
0.000129732
6.25552e-05
1.43834e-05
1.37034e-05
0.000352727
0.000285428
7.69151e-06
1.5204e-05
6.33946e-06
2.72108e-06
-1.66407e-11
-1.50659e-12
2.29238e-10
0.000225873
0.00056295
0.000571798
0.000579104
0.000581191
0.000574813
0.000449559
8.12463e-05
1.83151e-05
3.45996e-05
0.000292994
7.57986e-05
3.73134e-06
6.15365e-06
2.46107e-06
9.92771e-07
-4.16189e-12
-4.67571e-13
5.52206e-05
0.000537817
0.000561782
0.000577591
0.000583559
0.000587507
0.000510893
0.000190455
6.37886e-05
3.03122e-05
0.00024983
7.64717e-05
6.4155e-06
1.82617e-06
2.69197e-06
9.54947e-07
3.6246e-07
-2.7977e-19
2.33477e-11
0.000117059
0.000258737
0.000348243
0.000478261
0.00058552
0.000587507
0.000555295
0.000509751
0.00024288
0.000146567
0.000231493
6.4432e-05
3.46922e-06
1.23763e-06
1.04792e-06
3.78521e-07
1.40648e-07
9.94774e-12
1.51502e-06
1.53658e-06
2.12164e-06
2.61334e-06
2.45441e-05
0.000254961
0.000408469
0.00194167
0.0319201
0.00791153
0.000598204
0.00024112
0.000252788
1.44465e-05
8.47162e-07
4.21687e-07
1.4504e-07
5.57805e-08
5.21014e-09
4.40968e-06
2.2016e-06
2.54235e-06
2.91357e-06
3.42626e-06
9.31218e-06
1.41115e-05
0.0530249
0.0795532
0.0429854
0.000905352
0.000255123
0.00025378
2.34243e-05
4.67146e-07
2.0089e-07
5.68274e-08
2.33151e-08
1.03171e-09
5.74751e-08
5.46956e-08
2.07445e-06
3.4385e-06
3.35922e-06
3.37921e-06
0.00294271
0.0795532
0.0795532
0.0640608
0.0029506
0.000298579
5.88042e-05
1.79137e-05
2.63359e-07
1.22543e-07
2.4474e-08
1.09553e-08
7.67884e-09
4.81525e-08
5.892e-08
4.78337e-06
2.09084e-05
9.1705e-06
3.35673e-06
0.0245956
0.0794435
0.0795532
0.0494803
0.00179111
0.000327386
1.41412e-05
5.42165e-06
1.80334e-07
1.18955e-07
1.2212e-08
6.32302e-09
6.5797e-08
5.89202e-08
0.000725559
7.01024e-05
8.3015e-05
1.42027e-05
3.44901e-06
0.0170076
0.0731807
0.0794435
0.0499107
0.00112441
0.000269584
6.13242e-05
6.80847e-06
1.01431e-07
1.21472e-07
9.37349e-09
4.39671e-09
5.46171e-06
3.37903e-07
0.00212655
0.00221086
0.000112503
1.14174e-05
3.99276e-06
1.00223e-05
0.00822731
0.0782447
0.0769457
0.00934268
0.000365094
0.000505387
1.884e-05
5.53703e-08
6.53394e-08
1.14361e-08
3.59773e-09
5.81344e-05
5.40198e-07
0.00207379
0.00393928
0.000111347
1.78803e-05
1.00223e-05
4.5174e-05
0.000972279
0.0715656
0.0757959
0.0257796
0.000388228
0.000562166
2.92139e-05
3.19755e-08
1.94235e-08
1.19077e-08
3.09369e-09
6.29651e-05
7.67957e-07
0.000320315
0.00396223
0.000601926
5.91019e-05
8.46399e-05
0.0009398
0.0519318
0.0741622
0.0757075
0.0305718
0.000199411
0.000260208
4.14146e-05
2.97275e-08
3.11182e-08
8.22179e-09
2.50924e-09
6.31407e-05
1.06591e-06
1.02918e-08
0.00344965
0.00628955
0.0039935
0.00819198
0.0464401
0.0715236
0.072874
0.0518889
0.0109144
8.95671e-05
1.83751e-05
3.59599e-05
2.4621e-08
3.30742e-08
5.13707e-09
1.90356e-09
5.90743e-05
5.83588e-07
3.71896e-09
0.000146568
0.00690454
0.0272904
0.0605286
0.0693128
0.070251
0.0479955
0.000390881
0.000485613
0.000454479
6.22032e-06
4.97329e-06
1.55595e-08
1.91597e-08
3.15571e-09
1.41729e-09
2.90062e-06
3.71896e-09
3.24739e-09
3.53548e-09
3.5665e-09
0.0242176
0.0602848
0.0661212
0.0363359
4.8693e-05
0.000248051
0.000970145
0.000971753
2.8795e-06
1.54865e-08
1.12181e-08
6.66131e-09
1.7385e-09
1.04518e-09
5.11334e-09
3.24891e-09
3.24891e-09
4.79994e-09
4.36286e-09
5.10017e-09
0.00387493
0.00127267
1.30189e-05
2.06961e-05
0.000329656
0.000756429
0.000585315
5.57981e-07
1.67194e-08
1.15077e-08
1.65507e-09
1.0185e-09
7.60201e-10
3.76909e-08
4.26676e-08
4.94457e-09
1.37654e-08
5.18469e-09
7.40338e-09
2.05165e-06
8.34823e-06
1.30189e-05
1.84401e-05
0.000691464
0.000209553
1.02613e-05
2.83527e-07
7.59241e-09
1.05109e-08
8.14931e-10
7.83105e-10
5.41969e-10
2.71251e-07
1.48162e-07
2.24701e-09
1.11468e-08
5.95101e-09
1.44489e-05
8.48326e-05
7.11661e-05
1.27842e-05
0.000201216
0.000691749
2.12469e-05
2.35101e-07
6.17814e-08
3.47092e-09
2.02301e-09
6.98479e-10
6.74489e-10
3.75944e-10
2.71251e-07
1.12537e-07
3.61995e-10
1.7195e-09
2.17364e-09
0.000105503
0.000200516
0.000199903
8.91478e-05
0.000370266
0.000522884
1.48386e-06
7.35909e-08
1.93005e-08
1.46049e-09
6.51083e-10
5.96755e-10
5.70631e-10
2.51873e-10
2.71251e-07
1.76437e-08
3.4966e-11
1.39675e-09
8.2762e-08
0.00010183
0.000199488
0.000201134
0.000198178
0.000138637
1.68409e-05
5.89456e-07
1.62165e-08
5.84295e-09
8.05169e-10
5.72138e-10
5.43687e-10
4.61077e-10
1.62359e-10
5.80161e-08
1.81375e-09
2.36147e-11
3.4966e-11
2.80985e-09
3.51717e-06
0.0001685
0.000155202
4.77565e-07
4.77799e-07
4.13494e-07
8.16437e-08
7.19761e-09
1.83183e-09
6.43597e-10
5.50526e-10
4.89577e-10
3.55261e-10
1.00557e-10
-4.52662e-18
-1.00974e-29
1.17063e-11
4.75757e-10
1.3365e-09
1.07792e-08
1.36449e-08
2.11111e-06
1.15959e-07
6.11398e-08
9.36478e-08
1.91015e-08
2.09789e-09
1.10096e-09
6.53677e-10
5.87959e-10
4.22703e-10
2.6106e-10
5.99047e-11
-3.5332e-18
3.53257e-15
4.12409e-11
2.94707e-09
1.2131e-08
1.3195e-08
9.1804e-09
1.822e-09
1.16815e-07
1.12076e-08
2.07935e-08
4.68063e-09
1.26228e-09
9.49038e-10
7.52716e-10
6.61517e-10
3.58034e-10
1.84114e-10
3.40863e-11
1.10028e-18
2.23483e-18
1.6653e-13
4.42978e-09
1.05991e-07
1.48822e-07
2.52151e-08
1.09632e-09
1.02054e-08
2.99901e-09
3.55891e-09
1.71016e-09
1.0766e-09
1.00053e-09
1.02157e-09
7.41537e-10
2.98618e-10
1.2541e-10
1.9532e-11
-2.32442e-29
9.12518e-18
9.86782e-15
6.30523e-10
1.08195e-07
1.78873e-07
1.47373e-07
2.12954e-10
7.24525e-10
1.3099e-09
1.3896e-09
1.09658e-09
9.83095e-10
9.8926e-10
1.06365e-09
8.29266e-10
2.50271e-10
8.70352e-11
7.5467e-12
-1.05052e-23
-2.51443e-27
-1.55426e-17
-1.65478e-22
-1.94795e-20
6.55099e-08
1.37057e-08
1.39929e-10
9.6693e-10
1.06448e-09
1.1194e-09
1.01909e-09
9.488e-10
9.488e-10
1.05033e-09
7.252e-10
1.7548e-10
4.84925e-11
5.37091e-12
)
;

boundaryField
{
    leftWall
    {
        type            zeroGradient;
    }
    rightWall
    {
        type            zeroGradient;
    }
    lowerWall
    {
        type            zeroGradient;
    }
    atmosphere
    {
        type            inletOutlet;
        inletValue      uniform 0;
        value           nonuniform List<scalar> 
46
(
0
0
0
0
0
0
0
0
0
0
0
0
0
0
0
0
0
0
0
0
0
0
0
0
0
0
0
0
0
0
0
0
0
0
0
9.6693e-10
1.06448e-09
1.1194e-09
1.01909e-09
9.488e-10
9.488e-10
1.05033e-09
7.252e-10
1.7548e-10
4.84925e-11
5.37091e-12
)
;
    }
    defaultFaces
    {
        type            empty;
    }
}


// ************************************************************************* //
