/*--------------------------------*- C++ -*----------------------------------*\
| =========                 |                                                 |
| \\      /  F ield         | OpenFOAM: The Open Source CFD Toolbox           |
|  \\    /   O peration     | Version:  2206                                  |
|   \\  /    A nd           | Website:  www.openfoam.com                      |
|    \\/     M anipulation  |                                                 |
\*---------------------------------------------------------------------------*/
FoamFile
{
    version     2.0;
    format      ascii;
    arch        "LSB;label=32;scalar=64";
    class       volScalarField;
    location    "0.6";
    object      p;
}
// * * * * * * * * * * * * * * * * * * * * * * * * * * * * * * * * * * * * * //

dimensions      [1 -1 -2 0 0 0 0];

internalField   nonuniform List<scalar> 
2268
(
1436.16
1435.42
1434.53
1433.48
1432.34
1431.12
1429.77
1428.27
1426.65
1424.93
1423.16
1421.36
1419.55
1417.78
1416.05
1414.39
1412.79
1411.28
1409.91
1408.42
1407.16
1405.32
1401.76
1258.04
1257.02
1256.06
1254.9
1253.72
1252.46
1251.04
1249.45
1247.73
1245.92
1244.07
1242.2
1240.37
1238.59
1236.86
1235.19
1233.52
1231.85
1230.63
1227.38
1226.34
1219.09
1220.81
1080.54
1079.41
1078.15
1076.73
1075.38
1074.02
1072.54
1070.88
1069.05
1067.11
1065.1
1063.08
1061.07
1059.13
1057.3
1055.6
1054.04
1052.68
1051.46
1050.27
1049.51
1045.7
1049.73
903.796
902.443
900.744
898.918
897.326
895.817
894.205
892.388
890.37
888.19
885.903
883.568
881.243
878.989
876.871
874.95
873.287
871.968
871.038
870.618
870.824
872.039
875.085
727.536
726.185
724.073
721.808
719.947
718.243
716.409
714.314
711.938
709.331
706.567
703.711
700.819
697.992
695.341
692.963
690.944
689.363
688.239
687.66
687.698
688.408
690.071
548.136
547.006
545.611
543.564
541.707
540.007
538.085
535.783
533.116
530.102
526.744
523.142
519.427
515.784
512.37
509.341
506.803
504.825
503.441
502.684
502.452
502.607
503.356
366.856
365.992
366.67
365.711
364.104
362.238
359.796
356.873
353.604
349.999
346.104
341.69
336.899
332.017
327.394
323.347
319.955
317.288
315.469
314.419
313.986
314.308
314.833
186.823
187.18
190.493
191.713
189.84
187.123
184.295
180.975
176.942
172.332
167.255
161.074
152.895
144.425
136.952
131.015
126.694
123.912
122.478
122.072
122.895
125.29
123.269
447.551
306.738
155.583
68.4994
149.352
284.495
325.737
320.162
322.139
346.728
393.071
441.337
445.23
415.661
325.523
311.002
502.562
829.212
1114.38
124.918
37.8787
20.948
17.2014
36.0156
127.663
157.92
95.438
70.5296
142.907
278.503
338.629
298.021
238.477
128.692
51.6549
81.1376
281.071
827.1
26.0078
11.5586
13.2777
15.6501
19.526
57.9856
55.7017
38.6525
19.3016
19.0667
82.1226
168.003
180.284
121.101
40.2927
15.8666
21.3573
60.9264
234.508
29.5461
14.0435
14.4096
16.6529
15.5507
18.6194
6.04392
3.17506
2.25489
0.788543
6.99676
66.2043
90.5572
47.4875
4.67782
1.94498
2.19774
4.08844
21.375
32.9524
25.5065
22.7776
17.883
8.83051
3.81099
-3.6635
-3.21032
-1.99569
-2.00601
-1.14598
15.6315
27.9017
4.7684
-1.84377
-2.1485
-1.64311
-1.44118
6.43307
34.7153
30.5453
18.6387
7.3851
2.41671
-2.01662
-3.5236
-3.10065
-2.09941
-0.298742
-0.4625
0.471733
3.70578
-2.40683
-3.53145
-3.79356
-3.10336
-3.61894
0.383235
34.9597
34.4984
11.129
2.16331
-1.68448
-1.57221
-2.39485
-2.36178
-1.32895
0.0604637
0.442239
-0.0549608
-0.0094901
-3.69002
-4.53149
-5.10953
-4.68329
-5.68287
-3.53193
-11.0993
-0.0275009
6.81842
-1.50106
-1.52343
-1.49103
-1.68852
-1.68449
-1.48479
-0.468276
-0.960183
-1.90721
-3.12768
-5.86184
-6.48955
-6.65333
-6.21226
-7.64365
-6.60617
52.2324
57.1383
62.0483
65.6794
63.8633
59.1499
54.9796
50.6584
46.0995
42.3387
39.2228
34.745
27.5074
22.374
18.9743
16.5574
14.9149
13.9811
13.7676
14.1558
15.3936
19.5707
26.113
4.7235
6.66102
9.59823
11.4811
10.2286
7.46884
5.51525
3.92456
2.22088
0.575434
-0.981269
-1.10147
-1.06064
-1.14593
-1.20161
-1.22876
-1.24069
-1.24169
-1.2338
-1.20744
-1.15467
-1.07456
-1.08937
-1.30764
-1.42029
-1.47071
-1.52598
-1.60818
-1.68182
-1.7297
-1.73464
-1.68484
-1.63207
-1.58068
-1.42485
-1.32531
-1.31925
-1.3383
-1.35302
-1.36004
-1.36072
-1.35856
-1.35731
-1.36838
-1.3956
-1.57436
-1.47008
-1.55587
-1.61895
-1.68317
-1.74289
-1.78325
-1.78625
-1.76368
-1.72762
-1.69138
-1.65577
-1.57673
-1.50731
-1.47929
-1.47645
-1.4796
-1.48245
-1.48462
-1.48705
-1.49215
-1.50396
-1.53474
-1.59573
-1.62219
-1.67712
-1.6916
-1.71601
-1.73973
-1.76259
-1.78474
-1.7898
-1.77715
-1.75355
-1.7215
-1.67758
-1.63686
-1.61293
-1.60384
-1.60226
-1.60369
-1.60693
-1.61267
-1.62314
-1.64195
-1.67515
-1.72746
-1.73049
-1.74774
-1.75188
-1.76349
-1.78249
-1.80713
-1.83059
-1.84258
-1.84036
-1.82713
-1.80665
-1.7815
-1.75701
-1.73871
-1.72822
-1.72386
-1.72367
-1.72678
-1.73338
-1.74462
-1.76244
-1.78936
-1.82643
-1.82274
-1.81875
-1.82443
-1.83766
-1.85596
-1.87752
-1.89846
-1.91233
-1.91593
-1.91021
-1.89798
-1.8822
-1.86613
-1.85286
-1.84409
-1.8399
-1.83962
-1.84278
-1.84948
-1.86035
-1.87646
-1.89891
-1.92811
-1.92811
-1.92084
-1.92341
-1.93188
-1.94562
-1.96417
-1.98317
-1.9969
-2.00253
-2.00058
-1.99327
-1.9831
-1.97241
-1.96313
-1.95656
-1.95321
-1.95311
-1.95615
-1.96243
-1.97226
-1.98612
-2.00441
-2.02702
-2.04073
-2.03823
-2.03497
-2.03824
-2.04779
-2.06287
-2.0787
-2.09037
-2.09579
-2.09541
-2.09091
-2.0842
-2.07697
-2.07059
-2.06601
-2.06377
-2.06409
-2.06705
-2.07271
-2.08125
-2.09285
-2.10762
-2.12529
-2.15344
-2.15585
-2.15044
-2.15045
-2.15657
-2.16819
-2.18064
-2.18973
-2.19402
-2.19401
-2.19102
-2.18648
-2.18159
-2.17731
-2.17432
-2.17304
-2.17374
-2.17652
-2.18147
-2.18867
-2.19816
-2.20991
-2.22363
-2.26663
-2.26985
-2.26545
-2.26434
-2.26834
-2.27707
-2.28632
-2.29278
-2.2956
-2.29539
-2.29319
-2.29002
-2.28674
-2.28395
-2.28214
-2.28159
-2.28251
-2.28503
-2.28922
-2.2951
-2.30268
-2.31183
-2.32232
-2.37953
-2.38196
-2.37937
-2.37815
-2.38101
-2.3875
-2.39401
-2.39816
-2.39964
-2.39909
-2.39735
-2.3951
-2.39291
-2.39117
-2.39015
-2.39005
-2.39104
-2.3932
-2.39659
-2.40124
-2.40709
-2.41402
-2.42179
-2.49175
-2.49323
-2.492
-2.49127
-2.49365
-2.49849
-2.50284
-2.50519
-2.50563
-2.50481
-2.50337
-2.50176
-2.5003
-2.49922
-2.49868
-2.4988
-2.49969
-2.50141
-2.50403
-2.50752
-2.51183
-2.51683
-2.52232
-2.60351
-2.6042
-2.60377
-2.60376
-2.60606
-2.60969
-2.61242
-2.61349
-2.61327
-2.61233
-2.61114
-2.60997
-2.60899
-2.6083
-2.60798
-2.60813
-2.60881
-2.61006
-2.61192
-2.61436
-2.61732
-2.62066
-2.62421
-2.71534
-2.71546
-2.71546
-2.7161
-2.71839
-2.7211
-2.72269
-2.72296
-2.72239
-2.72147
-2.72051
-2.71965
-2.71895
-2.71846
-2.71822
-2.71827
-2.71868
-2.71946
-2.72061
-2.72211
-2.72389
-2.72581
-2.72771
-2.82772
-2.82759
-2.82777
-2.82875
-2.8309
-2.83286
-2.83369
-2.83353
-2.83286
-2.83206
-2.83132
-2.83067
-2.83014
-2.82973
-2.82947
-2.82939
-2.82951
-2.82985
-2.83038
-2.83106
-2.83182
-2.83254
-2.83306
-2.9408
-2.94072
-2.94099
-2.94193
-2.94373
-2.9451
-2.94547
-2.94514
-2.94454
-2.94392
-2.94338
-2.9429
-2.94247
-2.94211
-2.94181
-2.9416
-2.94147
-2.94143
-2.94144
-2.94145
-2.94137
-2.9411
-2.94048
-3.05433
-3.05464
-3.05489
-3.05555
-3.05693
-3.05787
-3.05801
-3.05771
-3.05727
-3.05687
-3.05652
-3.0562
-3.05588
-3.05557
-3.05527
-3.05497
-3.05468
-3.05436
-3.05398
-3.05347
-3.05275
-3.0517
-3.05018
-3.16781
-3.16856
-3.16893
-3.16935
-3.1704
-3.17112
-3.17124
-3.17109
-3.17091
-3.17076
-3.17063
-3.17048
-3.17031
-3.1701
-3.16986
-3.16957
-3.16921
-3.16875
-3.16813
-3.16729
-3.16613
-3.16453
-3.16236
-3.28077
-3.28193
-3.2826
-3.28307
-3.28405
-3.28478
-3.28506
-3.28518
-3.28531
-3.28546
-3.28559
-3.28567
-3.2857
-3.28568
-3.28558
-3.2854
-3.28511
-3.28466
-3.28399
-3.28303
-3.28168
-3.27981
-3.27726
-3.39294
-3.39442
-3.39566
-3.39661
-3.39782
-3.39878
-3.39939
-3.39988
-3.40039
-3.40088
-3.40132
-3.4017
-3.40201
-3.40225
-3.40241
-3.40246
-3.40238
-3.40213
-3.40163
-3.4008
-3.39953
-3.39769
-3.3951
-3.50439
-3.5061
-3.50819
-3.51003
-3.51174
-3.5131
-3.51416
-3.51512
-3.51605
-3.51694
-3.51776
-3.5185
-3.51918
-3.51978
-3.5203
-3.52073
-3.52102
-3.52115
-3.52105
-3.52061
-3.51975
-3.51829
-3.51608
-3.61541
-3.6173
-3.6205
-3.6235
-3.62586
-3.62776
-3.62936
-3.63084
-3.63226
-3.6336
-3.63485
-3.63602
-3.63713
-3.63819
-3.63919
-3.64012
-3.64096
-3.64167
-3.6422
-3.64245
-3.64233
-3.64167
-3.64031
-3.72644
-3.72849
-3.73304
-3.73727
-3.74032
-3.74282
-3.74502
-3.74706
-3.74898
-3.7508
-3.75253
-3.75419
-3.75581
-3.75741
-3.75899
-3.76056
-3.7621
-3.76358
-3.76497
-3.76618
-3.76716
-3.76772
-3.76777
-3.838
-3.84016
-3.84624
-3.85157
-3.85525
-3.85836
-3.86116
-3.86375
-3.86619
-3.86851
-3.87075
-3.87294
-3.87513
-3.87733
-3.87958
-3.88189
-3.88427
-3.8867
-3.88917
-3.89161
-3.89402
-3.89622
-3.89821
-3.95058
-3.95289
-3.96047
-3.9666
-3.9708
-3.97447
-3.97782
-3.98093
-3.98387
-3.98669
-3.98945
-3.99219
-3.99498
-3.99785
-4.00083
-4.00397
-4.00729
-4.0108
-4.01452
-4.01842
-4.02254
-4.02673
-4.03115
-4.06468
-4.06722
-4.07597
-4.08252
-4.08708
-4.09122
-4.09503
-4.09859
-4.10199
-4.10529
-4.10856
-4.11187
-4.11527
-4.11881
-4.12257
-4.12658
-4.13091
-4.13559
-4.14069
-4.14619
-4.15223
-4.15865
-4.16585
-4.18053
-4.18345
-4.1928
-4.19937
-4.20414
-4.20861
-4.21278
-4.21672
-4.22052
-4.22427
-4.22802
-4.23187
-4.23587
-4.24009
-4.24462
-4.24952
-4.25488
-4.26076
-4.26728
-4.27445
-4.28247
-4.29122
-4.3013
-4.29817
-4.30154
-4.31085
-4.31714
-4.32197
-4.32664
-4.33105
-4.33528
-4.33942
-4.34355
-4.34774
-4.35209
-4.35665
-4.36152
-4.36679
-4.37255
-4.37891
-4.38597
-4.39385
-4.40265
-4.41258
-4.42361
-4.43642
-4.41741
-4.42118
-4.42989
-4.43573
-4.44049
-4.44522
-4.44977
-4.45419
-4.4586
-4.46305
-4.46763
-4.47241
-4.47749
-4.48295
-4.4889
-4.49545
-4.50273
-4.51086
-4.51999
-4.53025
-4.54189
-4.55498
-4.57017
-4.53793
-4.54196
-4.54963
-4.55498
-4.55957
-4.56426
-4.56884
-4.57339
-4.57798
-4.58269
-4.58759
-4.59275
-4.59827
-4.60425
-4.6108
-4.61804
-4.6261
-4.63514
-4.6453
-4.65678
-4.6698
-4.68454
-4.7016
-4.6593
-4.66344
-4.66984
-4.67472
-4.67907
-4.68363
-4.68819
-4.69278
-4.69751
-4.7024
-4.70755
-4.71302
-4.71891
-4.72532
-4.73236
-4.74015
-4.74884
-4.75857
-4.76952
-4.78187
-4.79585
-4.81168
-4.82987
-4.78106
-4.78518
-4.79031
-4.79474
-4.79882
-4.8032
-4.80767
-4.81227
-4.81706
-4.82209
-4.82742
-4.83313
-4.83931
-4.84604
-4.85345
-4.86166
-4.87079
-4.88101
-4.89245
-4.90532
-4.91979
-4.9361
-4.95462
-4.9028
-4.90678
-4.9108
-4.91481
-4.91859
-4.92278
-4.92713
-4.93169
-4.9365
-4.94161
-4.94707
-4.95295
-4.95933
-4.9663
-4.97397
-4.98244
-4.99185
-5.00232
-5.014
-5.02704
-5.04158
-5.05783
-5.076
-5.02424
-5.02802
-5.03109
-5.03476
-5.03825
-5.04223
-5.04645
-5.05094
-5.05575
-5.0609
-5.06644
-5.07243
-5.07894
-5.08606
-5.09387
-5.10248
-5.11201
-5.12256
-5.13424
-5.14718
-5.16145
-5.17722
-5.19457
-5.14532
-5.14889
-5.15118
-5.15456
-5.1578
-5.16157
-5.16566
-5.17008
-5.17486
-5.18002
-5.1856
-5.19165
-5.19824
-5.20543
-5.2133
-5.22195
-5.23147
-5.24195
-5.25347
-5.26609
-5.27987
-5.29488
-5.31112
-5.26598
-5.2694
-5.27108
-5.27423
-5.27726
-5.28086
-5.28483
-5.28917
-5.29391
-5.29905
-5.30465
-5.31072
-5.31734
-5.32455
-5.33242
-5.34103
-5.35044
-5.36074
-5.37197
-5.38416
-5.3973
-5.4114
-5.4264
-5.38595
-5.38929
-5.39052
-5.39347
-5.39635
-5.39979
-5.40366
-5.40794
-5.41263
-5.41776
-5.42335
-5.42943
-5.43604
-5.44322
-5.45104
-5.45954
-5.46879
-5.47883
-5.48969
-5.50137
-5.51383
-5.52699
-5.54075
-5.50468
-5.50803
-5.50895
-5.51172
-5.5145
-5.51783
-5.52162
-5.52584
-5.53049
-5.53559
-5.54116
-5.54722
-5.55379
-5.56092
-5.56865
-5.57701
-5.58604
-5.59578
-5.60624
-5.61739
-5.62916
-5.64143
-5.65407
-5.62212
-5.62542
-5.62623
-5.62882
-5.63157
-5.63483
-5.63855
-5.64272
-5.64734
-5.65241
-5.65795
-5.66397
-5.6705
-5.67756
-5.68517
-5.69337
-5.70216
-5.71158
-5.72161
-5.73223
-5.74335
-5.75485
-5.76658
-5.73905
-5.74225
-5.74326
-5.74573
-5.74848
-5.75171
-5.7554
-5.75955
-5.76414
-5.7692
-5.77473
-5.78074
-5.78724
-5.79424
-5.80176
-5.8098
-5.81838
-5.82749
-5.83713
-5.84725
-5.85781
-5.86868
-5.87973
-5.85609
-5.86019
-5.86141
-5.86383
-5.8666
-5.86984
-5.87355
-5.87771
-5.88234
-5.88744
-5.893
-5.89904
-5.90556
-5.91256
-5.92004
-5.928
-5.93643
-5.94533
-5.95467
-5.96443
-5.97455
-5.98498
-5.9956
47.3536
59.3144
60.5852
42.9467
2.65522
10.6687
9.24585
2.92671
-1.88335
-1.74303
-1.76195
-1.86448
-1.79006
-1.85384
-1.84505
-1.89736
-1.82004
-1.8866
-1.90971
-1.94652
-1.8806
-1.9355
-1.97106
-2.00282
-1.96646
-2.00824
-2.0414
-2.06861
-2.0551
-2.08636
-2.11415
-2.13755
-2.14667
-2.1705
-2.19267
-2.21169
-2.23989
-2.2579
-2.27488
-2.28953
-2.33454
-2.34788
-2.36033
-2.37084
-2.43068
-2.44013
-2.44865
-2.45535
-2.52841
-2.5346
-2.53974
-2.54304
-2.62795
-2.63138
-2.63364
-2.634
-2.72948
-2.7306
-2.73045
-2.72834
-2.83319
-2.83238
-2.83024
-2.82615
-2.93925
-2.93683
-2.93306
-2.92738
-3.04784
-3.04411
-3.03897
-3.03197
-3.15919
-3.15443
-3.14809
-3.13996
-3.27355
-3.26808
-3.26073
-3.2517
-3.39126
-3.3855
-3.37758
-3.3679
-3.51263
-3.50715
-3.49945
-3.48963
-3.63788
-3.63347
-3.6271
-3.61803
-3.76708
-3.76474
-3.76122
-3.75457
-3.90002
-3.90089
-3.9022
-3.90076
-4.03608
-4.04128
-4.0493
-4.05585
-4.17427
-4.18471
-4.20018
-4.21586
-4.31326
-4.32928
-4.35117
-4.37572
-4.45173
-4.47277
-4.49882
-4.53142
-4.58854
-4.61356
-4.64294
-4.68319
-4.7224
-4.75023
-4.78278
-4.82987
-4.8521
-4.88126
-4.91552
-4.96341
-4.97717
-5.00597
-5.03942
-5.08335
-5.09798
-5.12521
-5.15664
-5.19501
-5.21533
-5.24029
-5.26901
-5.30178
-5.33023
-5.35262
-5.37802
-5.40577
-5.44366
-5.46339
-5.48512
-5.50815
-5.55619
-5.57338
-5.59148
-5.60996
-5.66793
-5.68291
-5.69789
-5.71225
-5.77922
-5.79253
-5.80518
-5.8163
-5.8916
-5.90391
-5.91523
-5.92454
-6.00707
-6.01902
-6.03007
-6.0392
11.2549
-3.36373
-2.1267
-1.58177
-1.61588
-1.59038
-1.6174
-1.82443
-2.44898
-3.70229
-3.13271
-4.66418
-9.53098
-8.30698
-8.47582
-7.72802
-7.27334
-9.07922
-7.18147
-2.46683
-2.06021
-1.90055
-1.71951
-1.68329
-1.69916
-1.78332
-2.15565
-3.04352
-5.75345
-5.1034
-5.87608
-12.927
-10.7296
-9.2743
-8.4477
-8.12821
-10.136
-7.16797
-1.97116
-2.01666
-1.93123
-1.80334
-1.77619
-1.82827
-1.94748
-2.42564
-3.30778
-5.89171
-5.87394
-5.56832
-11.3924
-11.7453
-10.2552
-9.57519
-9.23396
-11.0463
-7.19926
-1.99435
-2.0183
-1.9561
-1.88924
-1.87906
-1.94057
-2.052
-2.4572
-3.30537
-5.34154
-6.15106
-7.58512
-11.19
-12.4552
-11.9772
-11.6253
-10.9438
-12.1368
-7.0628
-2.00263
-2.0299
-2.00784
-1.97284
-1.97419
-2.03052
-2.14514
-2.49194
-3.36223
-4.43351
-5.40515
-7.54954
-11.8093
-13.8636
-14.42
-14.7776
-13.7477
-13.9337
-6.56197
-2.04544
-2.07305
-2.06607
-2.04938
-2.05833
-2.10642
-2.21365
-2.41703
-2.92156
-3.67976
-4.6305
-7.07923
-12.6181
-15.5867
-17.2198
-18.6717
-17.6011
-15.8255
-5.71519
-2.10048
-2.12402
-2.12596
-2.12099
-2.13223
-2.17278
-2.25559
-2.37815
-2.6663
-3.14982
-3.55677
-6.97006
-14.2681
-17.3128
-19.7312
-22.4554
-21.6356
-16.8435
-4.69255
-2.16336
-2.18341
-2.18856
-2.18832
-2.19809
-2.22963
-2.29005
-2.36301
-2.52407
-2.77684
-2.54728
-7.11604
-16.8267
-17.9505
-21.0025
-24.7732
-24.009
-16.8517
-4.36534
-2.23196
-2.24749
-2.25206
-2.2522
-2.25836
-2.28037
-2.32422
-2.35072
-2.46951
-2.3891
-2.83829
-8.20892
-17.1646
-17.0775
-20.309
-24.536
-22.8134
-15.7137
-4.23624
-2.30469
-2.31526
-2.31686
-2.31422
-2.31471
-2.32906
-2.36189
-2.3609
-2.4964
-1.75292
-3.02487
-8.1526
-14.5682
-14.6618
-17.6155
-22.1669
-19.0999
-13.0284
-5.12574
-2.38103
-2.38622
-2.38309
-2.37516
-2.36768
-2.3768
-2.40255
-2.42332
-2.59896
-2.3408
-4.90182
-6.72436
-11.4381
-10.7274
-12.5375
-16.6306
-14.2081
-10.0096
-6.18997
-2.46082
-2.46044
-2.45137
-2.43582
-2.4176
-2.42043
-2.43647
-2.51399
-2.73917
-3.30281
-6.37673
-5.27578
-7.68023
-5.68501
-6.75472
-8.00209
-7.6405
-6.95621
-6.46359
-2.54417
-2.53833
-2.52265
-2.49724
-2.46613
-2.45628
-2.45152
-2.55347
-2.814
-4.0239
-4.1001
-2.66094
-2.09702
-2.24487
-2.82877
-2.68508
-3.11561
-5.19047
-6.08749
-2.63132
-2.62055
-2.59815
-2.56131
-2.51651
-2.48519
-2.45735
-2.49843
-2.75532
-3.58978
-1.84353
0.338666
-0.71819
-1.06305
-1.2075
-0.915396
-1.80487
-4.20958
-5.40653
-2.72255
-2.7079
-2.67971
-2.63165
-2.57393
-2.51884
-2.47726
-2.40991
-2.4413
-2.68532
-2.34561
-1.70197
-1.05303
-0.775063
-0.853784
-0.921856
-1.82861
-3.71235
-4.61248
-2.81796
-2.80119
-2.76965
-2.7133
-2.64687
-2.57912
-2.51965
-2.40362
-2.31132
-2.27621
-2.15717
-1.68404
-1.12695
-0.787014
-0.908038
-1.30787
-2.07242
-3.42297
-4.0262
-2.91746
-2.90081
-2.86929
-2.80927
-2.74639
-2.68877
-2.6178
-2.43261
-2.13971
-2.08831
-2.13098
-1.77065
-1.25798
-0.959807
-1.16802
-1.75226
-2.36435
-3.28775
-3.70375
-3.02086
-3.00549
-2.97781
-2.92715
-2.88726
-2.85027
-2.78548
-2.50004
-1.89674
-1.7755
-2.15979
-2.02581
-1.55811
-1.31981
-1.60479
-2.2322
-2.70536
-3.34416
-3.61184
-3.12772
-3.11187
-3.09096
-3.07287
-3.06988
-3.05339
-2.98861
-2.55132
-1.48549
-1.51777
-2.419
-2.55221
-2.15763
-1.93528
-2.20819
-2.74281
-3.10349
-3.53564
-3.69464
-3.23759
-3.21892
-3.20278
-3.22098
-3.26147
-3.27375
-3.23134
-2.74997
-1.28252
-1.57906
-3.0587
-3.34398
-3.09883
-2.75502
-2.94066
-3.30996
-3.54266
-3.81126
-3.89665
-3.35138
-3.32863
-3.30701
-3.33902
-3.41877
-3.44856
-3.4712
-3.12053
-1.72973
-3.37455
-4.51123
-4.39263
-4.28015
-3.77903
-3.77696
-3.9156
-4.0062
-4.14043
-4.17023
-3.47177
-3.44513
-3.40159
-3.44486
-3.5621
-3.58961
-3.7226
-3.33846
-3.90283
-7.83951
-6.98708
-5.7664
-5.5854
-4.8759
-4.62944
-4.52314
-4.47686
-4.50017
-4.47912
-3.60116
-3.57037
-3.49297
-3.5544
-3.70024
-3.7023
-3.9128
-3.73599
-6.16666
-8.59978
-7.61294
-7.30973
-6.49362
-5.76866
-5.39992
-5.09791
-4.9359
-4.86913
-4.79519
-3.74228
-3.70605
-3.57912
-3.66567
-3.81893
-3.82026
-4.02952
-5.24459
-11.2154
-8.88196
-7.67911
-7.30797
-6.95841
-6.45873
-6.05819
-5.62007
-5.36649
-5.23189
-5.09463
-3.89984
-3.86405
-3.69021
-3.76773
-3.9031
-3.91531
-3.94867
-4.06093
-9.66012
-8.58642
-7.60719
-7.32684
-7.40854
-7.10463
-6.63183
-6.08933
-5.75781
-5.57619
-5.36051
-4.07411
-4.05289
-3.91726
-3.91992
-3.97981
-3.96645
-3.95985
-4.43616
-5.48031
-6.14825
-8.72911
-8.91498
-8.23041
-7.85867
-7.16861
-6.51476
-6.10579
-5.87718
-5.5938
-4.25653
-4.2586
-4.29471
-4.14669
-4.06044
-3.97085
-3.90767
-4.2353
-4.64099
-6.81223
-9.75242
-11.6505
-9.57612
-8.7074
-7.67451
-6.89074
-6.39884
-6.1272
-5.7932
-4.43308
-4.46065
-4.59591
-4.48657
-4.19221
-4.01424
-3.98937
-4.31182
-5.85579
-8.36796
-8.85471
-11.8082
-10.5001
-9.33675
-8.10282
-7.18799
-6.62842
-6.31854
-5.95383
-4.59673
-4.64889
-4.78518
-4.90909
-4.60182
-4.40775
-4.69352
-6.4499
-8.07356
-9.44483
-7.13357
-11.1189
-10.688
-9.59917
-8.34976
-7.3763
-6.78787
-6.44687
-6.07189
-4.7536
-4.82338
-4.97029
-5.17302
-5.09387
-5.85311
-7.46623
-7.32551
-9.22403
-9.39447
-9.86845
-11.0758
-10.6
-9.56477
-8.39572
-7.45228
-6.87537
-6.51295
-6.14812
-4.90333
-4.9837
-5.13953
-5.35216
-5.52008
-5.24047
-6.6253
-6.41606
-8.52895
-10.0618
-10.13
-10.9408
-10.4512
-9.39749
-8.30336
-7.43752
-6.89663
-6.52349
-6.1873
-5.03661
-5.12692
-5.28365
-5.5215
-5.87794
-6.6718
-7.75936
-9.34044
-9.63791
-9.74955
-10.0729
-10.7896
-10.2558
-9.18299
-8.13066
-7.3586
-6.86267
-6.48991
-6.19645
-5.15292
-5.24913
-5.40225
-5.63452
-6.03515
-6.91349
-8.21567
-9.34634
-9.76289
-9.9024
-10.1049
-10.5067
-9.92791
-8.89205
-7.90277
-7.23375
-6.78559
-6.42552
-6.18321
-5.2562
-5.35145
-5.49946
-5.72231
-6.15244
-7.08538
-8.39458
-9.51336
-10.0428
-10.1597
-10.2037
-10.1483
-9.49398
-8.50774
-7.63459
-7.07328
-6.67671
-6.3428
-6.15463
-5.35275
-5.43851
-5.57352
-5.77539
-6.20744
-7.18998
-8.50216
-9.56503
-10.1189
-10.2586
-10.1291
-9.73239
-8.97961
-8.07106
-7.34679
-6.88742
-6.54701
-6.25192
-6.11634
-5.44682
-5.51726
-5.63015
-5.78968
-6.17731
-7.12702
-8.33348
-9.3092
-9.85966
-9.95806
-9.70962
-9.17631
-8.41144
-7.63005
-7.057
-6.68859
-6.407
-6.16023
-6.07236
-5.5401
-5.5935
-5.67834
-5.77296
-6.09557
-6.92067
-7.94937
-8.79667
-9.28235
-9.34695
-9.054
-8.4981
-7.82564
-7.20814
-6.77525
-6.48833
-6.26541
-6.07227
-6.02509
-5.63358
-5.66881
-5.71827
-5.75863
-5.97776
-6.62191
-7.46079
-8.154
-8.55419
-8.56142
-8.26978
-7.79111
-7.26983
-6.82052
-6.51056
-6.29664
-6.12969
-5.99101
-5.97594
-5.72857
-5.74725
-5.76116
-5.74706
-5.85167
-6.29184
-6.94407
-7.46832
-7.71995
-7.72525
-7.49203
-7.14152
-6.77959
-6.47878
-6.27059
-6.1202
-6.00415
-5.91605
-5.92468
-5.82657
-5.8317
-5.81584
-5.7523
-5.7508
-5.99498
-6.44604
-6.81195
-6.97874
-6.96909
-6.81769
-6.59824
-6.37633
-6.19493
-6.06691
-5.97014
-5.89836
-5.8522
-5.8734
-5.93171
-5.9283
-5.89305
-5.80012
-5.71246
-5.76722
-5.97097
-6.20202
-6.32713
-6.33153
-6.26054
-6.15224
-6.0426
-5.95347
-5.8888
-5.837
-5.8007
-5.78427
-5.81496
-6.04678
-6.04433
-6.00406
-5.90726
-5.77198
-5.66323
-5.5928
-5.67534
-5.81409
-5.87418
-5.87884
-5.85929
-5.83328
-5.80987
-5.79122
-5.77729
-5.77362
-5.7755
-5.77701
)
;

boundaryField
{
    leftWall
    {
        type            calculated;
        value           nonuniform List<scalar> 
50
(
1436.16
1258.04
1080.54
903.796
727.536
548.136
366.856
186.823
52.2324
4.7235
-1.30764
-1.47008
-1.62219
-1.73049
-1.82274
-1.92811
-2.04073
-2.15344
-2.26663
-2.37953
-2.49175
-2.60351
-2.71534
-2.82772
-2.9408
-3.05433
-3.16781
-3.28077
-3.39294
-3.50439
-3.61541
-3.72644
-3.838
-3.95058
-4.06468
-4.18053
-4.29817
-4.41741
-4.53793
-4.6593
-4.78106
-4.9028
-5.02424
-5.14532
-5.26598
-5.38595
-5.50468
-5.62212
-5.73905
-5.85609
)
;
    }
    rightWall
    {
        type            calculated;
        value           nonuniform List<scalar> 
50
(
1114.38
827.1
234.508
21.375
6.43307
0.383235
-3.53193
-6.60617
-7.18147
-7.16797
-7.19926
-7.0628
-6.56197
-5.71519
-4.69255
-4.36534
-4.23624
-5.12574
-6.18997
-6.46359
-6.08749
-5.40653
-4.61248
-4.0262
-3.70375
-3.61184
-3.69464
-3.89665
-4.17023
-4.47912
-4.79519
-5.09463
-5.36051
-5.5938
-5.7932
-5.95383
-6.07189
-6.14812
-6.1873
-6.19645
-6.18321
-6.15463
-6.11634
-6.07236
-6.02509
-5.97594
-5.92468
-5.8734
-5.81496
-5.77701
)
;
    }
    lowerWall
    {
        type            calculated;
        value           nonuniform List<scalar> 
62
(
1525.67
1524.94
1524.04
1522.99
1521.85
1520.64
1519.29
1517.79
1516.16
1514.45
1512.67
1510.87
1509.07
1507.29
1505.57
1503.91
1502.31
1500.8
1499.42
1497.94
1496.68
1494.83
1481.92
1401.76
1220.81
1049.73
875.085
690.071
503.356
314.833
123.269
85.3332
97.2941
98.5121
80.77
447.551
124.918
26.0078
29.5461
32.9524
34.7153
34.9597
-11.0993
485.093
344.28
191.877
98.4243
184.906
323.373
366.428
361.685
363.688
388.277
434.62
482.881
485.671
455.45
363.751
338.422
533.41
860.714
1145.89
)
;
    }
    atmosphere
    {
        type            calculated;
        value           nonuniform List<scalar> 
46
(
-5.91467
-5.92129
-5.92191
-5.92435
-5.92714
-5.93041
-5.93414
-5.93835
-5.94303
-5.94818
-5.95381
-5.95991
-5.96648
-5.97352
-5.98104
-5.98901
-5.99743
-6.00629
-6.01556
-6.02522
-6.03521
-6.04551
-6.05603
-6.06746
-6.0795
-6.09091
-6.10067
-6.11058
-6.11471
-6.0806
-5.98876
-5.84003
-5.76327
-5.75277
-5.73281
-5.72905
-5.72905
-5.72905
-5.72905
-5.72905
-5.72905
-5.72905
-5.72904
-5.72904
-5.72904
-5.72904
)
;
    }
    defaultFaces
    {
        type            empty;
    }
}


// ************************************************************************* //
