/*--------------------------------*- C++ -*----------------------------------*\
| =========                 |                                                 |
| \\      /  F ield         | OpenFOAM: The Open Source CFD Toolbox           |
|  \\    /   O peration     | Version:  2206                                  |
|   \\  /    A nd           | Website:  www.openfoam.com                      |
|    \\/     M anipulation  |                                                 |
\*---------------------------------------------------------------------------*/
FoamFile
{
    version     2.0;
    format      ascii;
    arch        "LSB;label=32;scalar=64";
    class       volScalarField;
    location    "0.6";
    object      p_rgh;
}
// * * * * * * * * * * * * * * * * * * * * * * * * * * * * * * * * * * * * * //

dimensions      [1 -1 -2 0 0 0 0];

internalField   nonuniform List<scalar> 
2268
(
1525.67
1524.94
1524.04
1522.99
1521.85
1520.64
1519.29
1517.79
1516.16
1514.45
1512.67
1510.87
1509.07
1507.29
1505.57
1503.91
1502.31
1500.8
1499.42
1497.94
1496.68
1494.83
1481.92
1526.58
1525.57
1524.61
1523.45
1522.27
1521.01
1519.59
1518
1516.28
1514.47
1512.61
1510.75
1508.92
1507.14
1505.41
1503.73
1502.07
1500.4
1499.17
1495.93
1494.89
1486.92
1459.23
1528.12
1527
1525.74
1524.31
1522.96
1521.61
1520.12
1518.46
1516.63
1514.69
1512.68
1510.66
1508.65
1506.71
1504.88
1503.18
1501.62
1500.26
1499.04
1497.85
1497.09
1486.14
1450.68
1530.41
1529.06
1527.36
1525.53
1523.94
1522.43
1520.82
1519
1516.98
1514.8
1512.52
1510.18
1507.86
1505.6
1503.48
1501.56
1499.9
1498.58
1497.65
1497.23
1497.44
1497.81
1497.06
1533.18
1531.83
1529.72
1527.45
1525.59
1523.89
1522.06
1519.96
1517.58
1514.98
1512.21
1509.36
1506.47
1503.64
1500.99
1498.61
1496.59
1495.01
1493.89
1493.31
1493.34
1494.05
1495.72
1532.82
1531.68
1530.29
1528.24
1526.39
1524.69
1522.76
1520.46
1517.8
1514.78
1511.42
1507.82
1504.11
1500.46
1497.05
1494.02
1491.48
1489.5
1488.12
1487.36
1487.13
1487.29
1488.03
1530.57
1529.7
1530.38
1529.42
1527.81
1525.95
1523.51
1520.58
1517.32
1513.71
1509.82
1505.4
1500.61
1495.73
1491.11
1487.06
1483.67
1481
1479.18
1478.13
1477.7
1478.02
1478.54
1529.57
1529.92
1508.85
1486.75
1495.37
1523.71
1527.04
1523.72
1519.69
1515.08
1510
1503.82
1494.58
1481.61
1467.64
1454.03
1442.01
1434.25
1431.5
1433.12
1438.59
1452.49
1462.53
485.093
344.28
191.877
98.4243
184.906
323.373
366.428
361.685
363.688
388.277
434.62
482.881
485.671
455.45
363.751
338.422
533.41
860.714
1145.89
231.248
43.4572
25.6292
18.8665
41.1205
148.361
186.55
169.023
195.101
267.554
401.235
407.568
322.406
251.522
138.146
60.541
91.966
299.919
920.551
146.813
12.8098
14.5289
16.9014
49.2016
111.643
78.5955
42.8514
58.1422
54.7211
104.257
193.07
206.742
161.41
61.7214
17.8212
22.1928
62.2267
369.487
50.5654
16.0763
16.1613
39.4044
117.194
119.305
72.3289
6.16867
3.45643
5.9902
32.7307
115.663
149.283
106.213
37.3566
3.02985
2.96837
5.0491
171.981
34.3186
27.8969
25.4176
149.937
140.98
117.573
11.0397
-2.1362
-1.00765
10.1057
35.8712
87.9432
103.406
51.4954
-0.768945
-1.22365
-0.730044
-0.466396
111.918
36.0796
32.2151
189.631
176.415
140.419
-0.850284
-2.53654
-1.84288
-1.00382
2.92062
2.09194
29.4151
41.5662
-1.10419
-2.40108
-2.67758
-1.99843
-2.50296
8.77963
36.572
303.073
278.254
177.455
-0.32514
-0.406462
-1.23105
-1.19199
-0.157606
1.26472
4.27399
19.3319
19.5286
5.72977
-2.81601
-3.80371
-3.38057
-4.37705
-2.18185
710.734
647.896
194.283
-0.123711
-0.179848
-0.148237
-0.345734
-0.341649
-0.141204
3.25
70.8155
85.6969
84.4429
68.6335
-2.48583
-5.15022
-4.72102
-5.63495
-4.54872
1178.37
1214.33
1177.16
1197.63
1197.71
1181.31
1165.66
1148.03
1156.68
1160.25
1142.06
1038.24
852.127
704.888
604.811
532.549
483.138
454.818
448.255
460.09
496.965
625.543
836.455
192.662
256.183
342.415
398.207
363.705
282.573
224.44
174.577
119.745
70.1725
31.3978
0.484562
0.525452
0.439951
0.384129
0.356961
0.345024
0.344022
0.351915
0.378274
0.431047
0.511152
0.496343
0.761366
0.70126
0.707579
0.589711
0.325567
0.100644
-0.0279353
-0.0464068
0.00363507
0.0563489
0.107679
0.26347
0.363048
0.36932
0.350397
0.335455
0.328046
0.327302
0.329462
0.330706
0.319644
0.292418
0.113664
0.356147
0.263724
0.194937
0.122179
0.053045
0.00787003
0.00413014
0.0266475
0.0642515
0.100513
0.135003
0.213822
0.285022
0.313825
0.316668
0.313054
0.307992
0.305702
0.303273
0.298175
0.286365
0.255589
0.194592
0.273213
0.217326
0.201851
0.176797
0.152865
0.130038
0.107884
0.102832
0.115476
0.139075
0.17113
0.215049
0.255772
0.279698
0.288788
0.290374
0.288935
0.285704
0.279957
0.269486
0.250683
0.217483
0.165168
0.264646
0.247295
0.243078
0.231446
0.212441
0.187804
0.164342
0.15235
0.154576
0.167808
0.188287
0.213437
0.237926
0.256221
0.266714
0.271069
0.27126
0.268152
0.26155
0.250315
0.232494
0.205577
0.168504
0.274514
0.278494
0.272811
0.259579
0.241278
0.219718
0.198777
0.184906
0.181309
0.187033
0.199261
0.21504
0.231103
0.244378
0.253147
0.25734
0.25762
0.254454
0.247761
0.236888
0.220777
0.198328
0.169125
0.271434
0.2787
0.276136
0.267667
0.253919
0.235371
0.216374
0.202641
0.197008
0.198961
0.206273
0.216437
0.227132
0.236412
0.242986
0.246329
0.246434
0.243388
0.237113
0.227285
0.213422
0.195134
0.172524
0.261118
0.263619
0.266879
0.263605
0.254055
0.238973
0.223144
0.211477
0.206059
0.20644
0.210937
0.217648
0.224874
0.231256
0.23584
0.238079
0.237756
0.234798
0.229131
0.220596
0.208992
0.19423
0.176555
0.250713
0.248305
0.253714
0.253705
0.247584
0.235961
0.223512
0.214418
0.210131
0.210142
0.213128
0.217674
0.222561
0.226841
0.229834
0.231106
0.230414
0.227631
0.22268
0.215483
0.205987
0.194241
0.180526
0.239822
0.236601
0.24101
0.242115
0.238114
0.229383
0.220137
0.21368
0.210856
0.211069
0.213268
0.216431
0.21972
0.2225
0.224319
0.224866
0.223941
0.221423
0.217239
0.211354
0.20378
0.19462
0.184138
0.229228
0.226794
0.22939
0.230606
0.227749
0.221259
0.214748
0.210594
0.209116
0.209664
0.211414
0.213655
0.215845
0.217592
0.218613
0.218705
0.217721
0.21556
0.212165
0.207522
0.201674
0.194742
0.186966
0.219315
0.21783
0.219059
0.219798
0.217409
0.212572
0.208227
0.205879
0.205436
0.206251
0.207696
0.209306
0.210761
0.211841
0.212385
0.212265
0.211378
0.209649
0.207037
0.203547
0.199236
0.19423
0.188743
0.209856
0.20917
0.209594
0.209607
0.207306
0.203678
0.200949
0.199875
0.200102
0.201038
0.20223
0.203399
0.204382
0.205072
0.205384
0.205236
0.20456
0.203303
0.201446
0.199006
0.196051
0.192705
0.189161
0.200329
0.200211
0.200216
0.199576
0.197279
0.194572
0.192984
0.192714
0.193284
0.1942
0.195161
0.196022
0.19672
0.197214
0.197457
0.197399
0.196995
0.196215
0.195059
0.193558
0.191786
0.189863
0.187964
0.190254
0.190389
0.190205
0.189228
0.18708
0.185114
0.184285
0.184448
0.185114
0.185912
0.186659
0.187304
0.187836
0.188245
0.188506
0.188587
0.188464
0.188129
0.187597
0.186912
0.186152
0.185433
0.184916
0.179484
0.179557
0.179291
0.17835
0.176548
0.175177
0.174808
0.175137
0.175739
0.176357
0.176905
0.177383
0.177806
0.178173
0.178471
0.178684
0.178806
0.178848
0.178837
0.17883
0.178907
0.17918
0.1798
0.168253
0.167941
0.167692
0.16703
0.165658
0.164717
0.16457
0.164879
0.165311
0.165712
0.166061
0.166384
0.1667
0.167013
0.167317
0.167611
0.167905
0.168222
0.168604
0.169114
0.169837
0.170889
0.172409
0.157078
0.156328
0.155963
0.15554
0.154491
0.153772
0.153645
0.153797
0.153983
0.154131
0.154261
0.154405
0.154578
0.154784
0.155029
0.155321
0.155681
0.156143
0.156758
0.1576
0.158759
0.160356
0.162529
0.146425
0.145264
0.144593
0.144122
0.143144
0.142417
0.14213
0.142009
0.141882
0.141736
0.141607
0.141521
0.141489
0.141516
0.141611
0.141793
0.142088
0.142538
0.143201
0.144159
0.14551
0.147387
0.149935
0.136556
0.135076
0.133835
0.132886
0.131673
0.130718
0.130112
0.129616
0.129113
0.128622
0.128179
0.127799
0.127486
0.127244
0.127087
0.127034
0.127114
0.127372
0.12787
0.128701
0.129966
0.131812
0.134399
0.127411
0.125702
0.123617
0.121776
0.120066
0.118702
0.117644
0.116687
0.115749
0.11486
0.114044
0.1133
0.112625
0.112022
0.1115
0.111076
0.110778
0.110652
0.110756
0.11119
0.112054
0.11351
0.115724
0.118697
0.116803
0.113609
0.110607
0.108246
0.106347
0.104743
0.103262
0.101843
0.100508
0.0992604
0.0980858
0.0969721
0.0959139
0.0949142
0.0939838
0.0931433
0.0924339
0.0919052
0.0916594
0.0917801
0.0924409
0.093795
0.109974
0.107926
0.103374
0.0991433
0.0960934
0.0935917
0.0913913
0.0893555
0.0874279
0.08561
0.0838844
0.0822216
0.0805992
0.0790012
0.0774196
0.0758542
0.0743145
0.0728314
0.0714367
0.0702258
0.0692509
0.0686868
0.0686434
0.100716
0.0985575
0.0924783
0.0871482
0.083466
0.0803531
0.0775555
0.0749674
0.0725249
0.070205
0.0679698
0.0657761
0.0635897
0.061382
0.0591306
0.0568207
0.054445
0.0520178
0.0495436
0.0471027
0.0446955
0.0424929
0.0405082
0.0904389
0.0881301
0.0805532
0.0744178
0.070221
0.0665462
0.063198
0.060093
0.0571525
0.0543312
0.0515738
0.0488254
0.0460392
0.0431731
0.040188
0.0370509
0.0337326
0.0302242
0.0264953
0.0226024
0.0184763
0.0142847
0.00987023
0.0786394
0.0761023
0.067356
0.060808
0.0562462
0.0521079
0.0482941
0.044734
0.0413338
0.0380317
0.0347603
0.0314546
0.0280563
0.0245089
0.0207553
0.0167416
0.0124132
0.00773222
0.00263123
-0.00286758
-0.00890711
-0.0153309
-0.0225239
0.0650935
0.0621808
0.0528265
0.0462588
0.0414878
0.0370149
0.0328437
0.028908
0.0251037
0.02136
0.0176029
0.0137597
0.00976135
0.00553697
0.00101171
-0.00389027
-0.00924964
-0.0151364
-0.0216514
-0.0288189
-0.036839
-0.0455951
-0.0556713
0.0497658
0.0463962
0.0370785
0.0307927
0.0259619
0.0212935
0.0168802
0.0126566
0.00851558
0.00438493
0.00018794
-0.00415325
-0.00871708
-0.0135874
-0.0188553
-0.0246171
-0.0309766
-0.0380356
-0.0459217
-0.0547144
-0.0646453
-0.0756785
-0.0884835
0.0328256
0.0290552
0.0203509
0.0145098
0.00974923
0.00501648
0.000469814
-0.00395433
-0.00835881
-0.0128124
-0.0173909
-0.0221753
-0.0272511
-0.0327126
-0.0386636
-0.0452165
-0.0524928
-0.0606217
-0.0697509
-0.0800141
-0.0916551
-0.104744
-0.119937
0.0146065
0.0105832
0.00291442
-0.00243787
-0.00702843
-0.0117158
-0.0163024
-0.020847
-0.0254428
-0.0301518
-0.0350471
-0.0402101
-0.0457306
-0.051709
-0.0582567
-0.0654958
-0.0735594
-0.082595
-0.0927634
-0.104238
-0.117262
-0.132002
-0.149056
-0.00445068
-0.00859462
-0.0149966
-0.0198733
-0.0242271
-0.0287885
-0.0333416
-0.0379388
-0.0426601
-0.0475598
-0.052706
-0.0581781
-0.0640664
-0.0704727
-0.0775104
-0.0853043
-0.0939924
-0.103729
-0.114678
-0.127029
-0.141007
-0.156838
-0.175024
-0.0239059
-0.0280331
-0.0331616
-0.0375907
-0.0416684
-0.0460532
-0.0505212
-0.0551175
-0.0599083
-0.0649396
-0.0702731
-0.0759835
-0.0821577
-0.0888946
-0.0963043
-0.104509
-0.113643
-0.123857
-0.135306
-0.14817
-0.162638
-0.17895
-0.197469
-0.0433459
-0.0473303
-0.0513435
-0.0553577
-0.0591403
-0.0633232
-0.0676748
-0.0722316
-0.077047
-0.0821586
-0.0876206
-0.0935012
-0.0998805
-0.106851
-0.114515
-0.122988
-0.132395
-0.14287
-0.15455
-0.167588
-0.182125
-0.198374
-0.21655
-0.0624869
-0.0662663
-0.0693361
-0.0729998
-0.0764932
-0.080468
-0.0846892
-0.089182
-0.0939886
-0.099139
-0.10468
-0.11067
-0.117182
-0.124299
-0.132113
-0.140726
-0.150251
-0.1608
-0.172487
-0.18542
-0.199693
-0.21546
-0.232815
-0.0812538
-0.084827
-0.0871198
-0.0905011
-0.0937365
-0.097512
-0.101602
-0.10602
-0.110796
-0.115956
-0.121536
-0.127588
-0.134173
-0.141364
-0.149241
-0.157892
-0.167409
-0.177886
-0.189405
-0.202031
-0.215811
-0.230815
-0.247058
-0.0996179
-0.103032
-0.104714
-0.107866
-0.110892
-0.114489
-0.118459
-0.122802
-0.127539
-0.132688
-0.13828
-0.144357
-0.150972
-0.158181
-0.166053
-0.17466
-0.184077
-0.194372
-0.205602
-0.217791
-0.230938
-0.245033
-0.260032
-0.117274
-0.120623
-0.121849
-0.124803
-0.127676
-0.131124
-0.134992
-0.139268
-0.143963
-0.149092
-0.154678
-0.160755
-0.167364
-0.174551
-0.182367
-0.19087
-0.200118
-0.210159
-0.221022
-0.232704
-0.245162
-0.258317
-0.272076
-0.133701
-0.13706
-0.137979
-0.140743
-0.143523
-0.146857
-0.150644
-0.154862
-0.159515
-0.164616
-0.170182
-0.17624
-0.182818
-0.189949
-0.197672
-0.206031
-0.215065
-0.224806
-0.235263
-0.246412
-0.258183
-0.270457
-0.283095
-0.148838
-0.152139
-0.152952
-0.155543
-0.158287
-0.161547
-0.165271
-0.16944
-0.174056
-0.179127
-0.184667
-0.190693
-0.197224
-0.204282
-0.211893
-0.220086
-0.228884
-0.238302
-0.248335
-0.258951
-0.270073
-0.281575
-0.293297
-0.16347
-0.16667
-0.167675
-0.170143
-0.172897
-0.176125
-0.179817
-0.183962
-0.188561
-0.19362
-0.199149
-0.205158
-0.211656
-0.218657
-0.226171
-0.234214
-0.242792
-0.251906
-0.261543
-0.27167
-0.282223
-0.293098
-0.304151
-0.178204
-0.182305
-0.18352
-0.185938
-0.188715
-0.191955
-0.195658
-0.199823
-0.204452
-0.209547
-0.215113
-0.221153
-0.227671
-0.234669
-0.242149
-0.250108
-0.258543
-0.267441
-0.276783
-0.286538
-0.296662
-0.307088
-0.317716
1148.76
1160.73
1160.47
1139.82
175.531
383.786
346.013
156.868
-0.195288
-0.0550026
-0.0739323
-0.17646
0.000261089
-0.063511
-0.0547238
-0.10703
0.0725928
0.00603235
-0.0170837
-0.0538892
0.114331
0.0594375
0.0238707
-0.00788632
0.130782
0.088998
0.0558378
0.0286249
0.144438
0.113186
0.0853942
0.0619932
0.155178
0.131346
0.109181
0.0901588
0.164259
0.146249
0.129271
0.114622
0.171916
0.158576
0.146121
0.135614
0.178084
0.168632
0.160108
0.153407
0.18265
0.176464
0.171325
0.168023
0.185416
0.181984
0.179725
0.179373
0.186192
0.185069
0.185222
0.187329
0.184789
0.185597
0.187739
0.191826
0.181032
0.183447
0.18722
0.192901
0.17474
0.178472
0.183611
0.190619
0.165702
0.170463
0.176801
0.184925
0.153643
0.159111
0.166462
0.175494
0.138238
0.143997
0.151921
0.161599
0.119175
0.124649
0.13235
0.142175
0.0962259
0.100635
0.107009
0.11608
0.0693267
0.0716691
0.0751937
0.0818411
0.0386991
0.0378288
0.0365194
0.0379571
0.00494222
-0.000257151
-0.00827659
-0.0148245
-0.0309466
-0.0413815
-0.0568564
-0.0310006
-0.0676351
-0.0836487
-0.105545
0.116969
-0.103802
-0.124834
-0.136113
0.089759
-0.138304
-0.163326
-0.153897
0.0440439
-0.169863
-0.197687
-0.196146
-0.0543501
-0.197259
-0.226413
-0.253895
-0.30856
-0.220019
-0.248823
-0.282268
-0.326198
-0.238525
-0.265759
-0.297187
-0.335481
-0.253569
-0.278536
-0.307247
-0.339551
-0.266165
-0.288555
-0.313961
-0.341254
-0.277291
-0.297026
-0.318749
-0.341779
-0.28752
-0.30471
-0.322813
-0.341292
-0.296956
-0.311933
-0.326913
-0.34128
-0.305944
-0.319247
-0.331899
-0.343023
-0.316016
-0.328323
-0.339648
-0.348955
-0.329183
-0.341135
-0.352183
-0.361311
678.383
-1.64193
-0.629757
-0.0978727
-0.132429
-0.106929
-0.133947
-0.340978
-0.965435
61.0289
91.8226
91.5997
87.3469
64.4634
-2.95757
-6.08491
-5.65128
-4.60452
-3.15746
-0.881966
-0.474493
-0.314851
-0.133791
-0.0974982
-0.113334
-0.197557
-0.569888
-1.45775
33.1009
79.5101
95.6279
89.3023
-1.07087
-7.49742
-6.71417
-6.40234
-5.17509
-3.35894
-0.283141
-0.328636
-0.243208
-0.11532
-0.0880752
-0.140038
-0.259297
-0.737575
-1.61954
-4.20346
-4.14081
34.7925
13.8794
-9.04286
-8.40413
-7.74081
-7.40274
-7.46766
-4.20832
-0.204023
-0.227974
-0.165773
-0.0989168
-0.0886052
-0.150016
-0.261512
-0.666813
2.97717
-2.76504
-4.19595
-5.5562
-9.10378
-10.486
-10.0317
-9.68312
-9.00205
-10.1103
-4.2464
-0.109999
-0.137268
-0.115209
-0.0802064
-0.0815591
-0.137831
-0.252475
-0.59928
-1.08135
-2.5082
-3.47217
-5.45239
-9.34269
-11.3707
-12.3569
-12.7249
-11.6945
-11.4834
1.69985
-0.0505075
-0.0781164
-0.0711399
-0.0544503
-0.0633941
-0.111489
-0.218719
-0.419231
-0.92337
-1.67949
-2.62746
-4.26651
-8.84136
-10.9317
-14.9157
-16.5074
-15.4373
-11.5768
14.1229
-0.00324431
-0.026781
-0.028723
-0.0237537
-0.0349959
-0.0755395
-0.158357
-0.216488
-0.504605
-1.04213
-1.45034
70.6787
21.6908
-12.8105
-17.4257
-20.1692
-19.3603
-12.4585
17.0876
0.0361869
0.0161277
0.0109844
0.0112236
0.00144807
-0.0300885
-0.0905082
-0.120131
-0.306479
-0.562837
39.9577
171.044
92.2457
-14.5437
-18.5856
-22.3597
-21.6113
-14.0076
18.8801
0.0698818
0.0543615
0.0497829
0.0496503
0.0434897
0.0214769
-0.0223705
-0.0488716
-0.167664
-0.0873007
172.113
178.601
106.858
-13.5367
-17.6225
-22.0066
-20.2553
-11.2736
20.2103
0.0994657
0.088894
0.0872891
0.0899348
0.0894386
0.0750902
0.0422605
0.0432519
-0.0922446
1.87203
192.088
186.96
82.7261
-11.4297
-14.6672
-17.5203
-8.55949
11.7811
20.3321
0.125423
0.120233
0.123367
0.131296
0.138772
0.129654
0.103915
0.0831395
-0.0925031
77.5716
198.367
196.691
142.388
-4.1416
-9.36217
-5.05212
7.05506
13.9229
17.6385
0.147935
0.148318
0.157386
0.172939
0.191162
0.18833
0.17229
0.094771
-0.130406
197.06
203.805
206.29
202.501
9.73774
-3.74336
1.654
12.1717
13.3173
-0.716132
0.166895
0.172732
0.188416
0.21382
0.244933
0.254792
0.259554
0.157601
-0.102921
70.8988
206.834
215.763
198.64
14.2867
0.201793
1.54848
6.4735
4.04398
-3.0192
0.182049
0.192814
0.215213
0.25206
0.296879
0.32828
0.356095
0.315097
0.246845
1.14392
48.1588
132.072
22.5639
5.34084
1.9371
2.14139
1.67793
-1.02914
-2.44071
0.193127
0.207769
0.235957
0.284029
0.342068
0.398132
0.439332
0.516912
7.89225
1.06621
0.613461
1.25333
1.90227
3.14057
2.50579
2.10793
1.37351
-0.665998
-1.64695
0.200021
0.216782
0.248328
0.304742
0.374941
0.620383
0.593318
0.625561
0.784249
0.796303
0.90417
1.37525
1.93196
3.30167
3.17521
1.76034
1.06129
-0.354988
-0.988388
0.202823
0.21947
0.250988
0.311888
1.02627
2.1055
1.97166
1.5429
1.40831
1.43637
1.1843
1.39447
1.90502
3.25998
2.84199
1.392
0.803323
-0.147706
-0.574992
0.201726
0.2171
0.244779
1.0226
2.14767
2.21314
2.30145
2.59361
3.17638
2.89438
1.32435
1.25573
1.77586
2.84603
1.86181
1.0024
0.537035
-0.113653
-0.386055
0.197171
0.213023
0.417349
2.03841
2.12101
2.19001
2.2746
2.72502
3.53636
2.43973
1.11777
0.873363
1.99708
1.64361
1.138
0.588146
0.230343
-0.207584
-0.368545
0.189606
0.208269
0.625191
1.09207
1.35802
1.7909
2.20054
2.68871
4.04588
3.5934
1.20006
0.585024
1.12094
0.892771
0.498413
0.121471
-0.111878
-0.382765
-0.468975
0.178122
0.206212
0.227902
0.197955
0.119944
0.167481
0.957279
1.84921
8.64603
112.704
26.9141
1.24611
0.0995302
0.641788
-0.196529
-0.383119
-0.475212
-0.610425
-0.640538
0.160047
0.202667
0.238196
0.196169
0.080277
0.0546268
-0.0570096
0.344546
192.112
284.425
152.603
1.15017
-1.02797
-0.323343
-0.912653
-0.889646
-0.844332
-0.868166
-0.84723
0.132945
0.163956
0.241344
0.187441
0.0466977
0.04434
-0.166089
10.9755
294.33
291.897
235.092
7.43122
-1.6457
-1.81519
-1.59899
-1.36282
-1.20133
-1.13494
-1.06104
0.0941578
0.130543
0.25752
0.189075
0.0976165
0.0513006
-0.180246
92.8562
297.094
299.848
185.794
3.39302
-1.86727
-2.56812
-2.20101
-1.78297
-1.52962
-1.39543
-1.25819
0.0391361
0.0749012
3.10342
0.44682
0.362261
0.0792899
0.00361527
66.7988
282.228
307.945
192.719
1.03615
-2.40907
-2.92461
-2.66632
-2.15021
-1.81861
-1.63744
-1.42178
-0.0110391
-0.0105095
8.70861
9.04629
0.51538
0.12066
0.0972897
-0.354676
31.7742
313.765
305.94
32.8422
-2.71551
-1.77741
-3.05154
-2.47352
-2.0645
-1.83611
-1.55277
0.127421
-0.113041
8.4324
16.302
0.54377
0.246483
0.27714
0.0950038
3.52677
293.554
308.124
99.1994
-3.82585
-2.23717
-3.41026
-2.74729
-2.25544
-1.98383
-1.64986
0.0796067
-0.211767
1.00829
16.5644
2.60642
0.482064
0.615244
3.91986
218.652
310.428
316.496
122.104
-5.40873
-3.98748
-3.68154
-2.94224
-2.38266
-2.07288
-1.70819
0.0254588
-0.296332
-0.4372
14.4227
27.0653
17.2863
35.237
199.614
306.943
311.438
222.598
40.6365
-5.95102
-5.17142
-3.84563
-3.02826
-2.43979
-2.09891
-1.72395
-0.0407276
-0.370553
-0.520035
-0.0711753
30.0525
119.924
266.081
305.275
307.547
208.434
-3.68044
-4.46665
-4.12922
-5.08688
-3.92337
-3.00197
-2.42505
-2.0627
-1.69788
-0.337597
-0.43114
-0.586974
-0.799606
-0.967526
109.453
272.102
298.855
161.279
-5.28784
-4.44931
-1.97608
-1.47919
-4.83185
-3.75074
-2.88493
-2.34406
-1.97094
-1.63476
-0.381743
-0.472063
-0.628791
-0.866628
-1.22307
-2.01693
14.9147
1.23255
-4.92253
-4.99846
-3.8851
-2.61721
-2.87913
-4.52555
-3.47574
-2.7037
-2.20782
-1.83506
-1.5416
-0.395594
-0.491777
-0.645077
-0.877303
-1.27798
-2.15631
-3.44877
-4.54952
-4.94387
-5.05761
-2.06167
-4.75368
-5.12199
-4.13356
-3.14559
-2.47655
-2.02843
-1.66837
-1.42605
-0.395428
-0.491275
-0.64
-0.8628
-1.29295
-2.15579
-3.1233
-4.30843
-5.12129
-4.32346
-1.98614
-5.18575
-4.63338
-3.64799
-2.77512
-2.21382
-1.81725
-1.48335
-1.29517
-0.389652
-0.47619
-0.611764
-0.813623
-1.24567
-1.70526
-2.54649
-3.61239
-4.71521
-3.46147
-2.57554
-4.76328
-4.01748
-3.10921
-2.38503
-1.92566
-1.58525
-1.29016
-1.15458
-0.381385
-0.453106
-0.566084
-0.725612
-1.11283
-1.5478
-2.26021
-3.2276
-3.79301
-4.19263
-4.56036
-4.10927
-3.3473
-2.56596
-1.99294
-1.62453
-1.34294
-1.09616
-1.0083
-0.373433
-0.427125
-0.511974
-0.606591
-0.929184
-1.73616
-1.91334
-2.82927
-4.11352
-4.17812
-3.8855
-3.33131
-2.65924
-2.04176
-1.60888
-1.32196
-1.09905
-0.905905
-0.858727
-0.364913
-0.400139
-0.449596
-0.489954
-0.709077
-1.35318
-2.19205
-2.87421
-3.28491
-3.29243
-3.00061
-2.52234
-2.00115
-1.55184
-1.24189
-1.02796
-0.861021
-0.72234
-0.707269
-0.357598
-0.376278
-0.39018
-0.376073
-0.480628
-0.920795
-1.57304
-2.09734
-2.34835
-2.35421
-2.12094
-1.77052
-1.40861
-1.1078
-0.899612
-0.749224
-0.633171
-0.545071
-0.553702
-0.353288
-0.358424
-0.342557
-0.278996
-0.276945
-0.520891
-0.972625
-1.33867
-1.5054
-1.49579
-1.34439
-1.12495
-0.903044
-0.721641
-0.593624
-0.496859
-0.425083
-0.378921
-0.400124
-0.35613
-0.352719
-0.317463
-0.22453
-0.136277
-0.190645
-0.39457
-0.62644
-0.751547
-0.755942
-0.684946
-0.576646
-0.467013
-0.377878
-0.313212
-0.261411
-0.225113
-0.208685
-0.239379
-0.368896
-0.366446
-0.326176
-0.229375
-0.0940913
0.0150289
0.0851638
0.00254636
-0.136195
-0.196288
-0.200942
-0.181398
-0.155391
-0.131977
-0.113324
-0.0994026
-0.0957269
-0.0976071
-0.0991242
)
;

boundaryField
{
    leftWall
    {
        type            fixedFluxPressure;
        gradient        uniform 0;
        value           nonuniform List<scalar> 
50
(
1525.67
1526.58
1528.12
1530.41
1533.18
1532.82
1530.57
1529.57
1178.37
192.662
0.761366
0.356147
0.273213
0.264646
0.274514
0.271434
0.261118
0.250713
0.239822
0.229228
0.219315
0.209856
0.200329
0.190254
0.179484
0.168253
0.157078
0.146425
0.136556
0.127411
0.118697
0.109974
0.100716
0.0904389
0.0786394
0.0650935
0.0497658
0.0328256
0.0146065
-0.00445068
-0.0239059
-0.0433459
-0.0624869
-0.0812538
-0.0996179
-0.117274
-0.133701
-0.148838
-0.16347
-0.178204
)
;
    }
    rightWall
    {
        type            fixedFluxPressure;
        gradient        uniform 0;
        value           nonuniform List<scalar> 
50
(
1145.89
920.551
369.487
171.981
111.918
8.77963
-2.18185
-4.54872
-3.15746
-3.35894
-4.20832
-4.2464
1.69985
14.1229
17.0876
18.8801
20.2103
20.3321
17.6385
-0.716132
-3.0192
-2.44071
-1.64695
-0.988388
-0.574992
-0.386055
-0.368545
-0.468975
-0.640538
-0.84723
-1.06104
-1.25819
-1.42178
-1.55277
-1.64986
-1.70819
-1.72395
-1.69788
-1.63476
-1.5416
-1.42605
-1.29517
-1.15458
-1.0083
-0.858727
-0.707269
-0.553702
-0.400124
-0.239379
-0.0991242
)
;
    }
    lowerWall
    {
        type            fixedFluxPressure;
        gradient        uniform 0;
        value           nonuniform List<scalar> 
62
(
1525.67
1524.94
1524.04
1522.99
1521.85
1520.64
1519.29
1517.79
1516.16
1514.45
1512.67
1510.87
1509.07
1507.29
1505.57
1503.91
1502.31
1500.8
1499.42
1497.94
1496.68
1494.83
1481.92
1481.92
1459.23
1450.68
1497.06
1495.72
1488.03
1478.54
1462.53
1148.76
1160.73
1160.47
1139.82
485.093
231.248
146.813
50.5654
34.3186
36.0796
36.572
710.734
485.093
344.28
191.877
98.4243
184.906
323.373
366.428
361.685
363.688
388.277
434.62
482.881
485.671
455.45
363.751
338.422
533.41
860.714
1145.89
)
;
    }
    atmosphere
    {
        type            totalPressure;
        rho             rho;
        psi             none;
        gamma           1;
        p0              uniform 0;
        value           nonuniform List<scalar> 
46
(
-0.185626
-0.192251
-0.192872
-0.195305
-0.1981
-0.201366
-0.205104
-0.209314
-0.213993
-0.219144
-0.224768
-0.230866
-0.237438
-0.244483
-0.251996
-0.25997
-0.268394
-0.277252
-0.286522
-0.296175
-0.306173
-0.316468
-0.326992
-0.338418
-0.350461
-0.36187
-0.371633
-0.381542
-0.385674
-0.351563
-0.259716
-0.110987
-0.0342263
-0.0237275
-0.00376963
0
0
0
0
0
0
0
0
0
0
0
)
;
    }
    defaultFaces
    {
        type            empty;
    }
}


// ************************************************************************* //
