/*--------------------------------*- C++ -*----------------------------------*\
| =========                 |                                                 |
| \\      /  F ield         | OpenFOAM: The Open Source CFD Toolbox           |
|  \\    /   O peration     | Version:  2206                                  |
|   \\  /    A nd           | Website:  www.openfoam.com                      |
|    \\/     M anipulation  |                                                 |
\*---------------------------------------------------------------------------*/
FoamFile
{
    version     2.0;
    format      ascii;
    arch        "LSB;label=32;scalar=64";
    class       volVectorField;
    location    "0.6";
    object      U;
}
// * * * * * * * * * * * * * * * * * * * * * * * * * * * * * * * * * * * * * //

dimensions      [0 1 -1 0 0 0 0];

internalField   nonuniform List<vector> 
2268
(
(-0.0134433 0.0145618 0)
(-0.0181003 0.000807969 0)
(-0.0142332 -0.00281481 0)
(-0.0131806 0.000379339 0)
(-0.0155428 0.00400591 0)
(-0.0213048 0.00611629 0)
(-0.0281101 0.00645744 0)
(-0.0343717 0.00574032 0)
(-0.0394016 0.00469327 0)
(-0.0431582 0.00375563 0)
(-0.0457742 0.00308273 0)
(-0.0474701 0.00268124 0)
(-0.0483545 0.00242365 0)
(-0.0484327 0.00214011 0)
(-0.0476127 0.00173387 0)
(-0.0459058 0.0010438 0)
(-0.0430964 -0.000444242 0)
(-0.0383882 -0.00391225 0)
(-0.0301234 -0.0109126 0)
(-0.0184055 -0.0212526 0)
(0.00312132 -0.0415935 0)
(0.0373696 -0.0511356 0)
(0.0499883 0.0344775 0)
(-0.0162795 0.0445613 0)
(-0.0180634 0.00298442 0)
(-0.0182399 -0.00670924 0)
(-0.0178061 0.00242612 0)
(-0.0213354 0.0127581 0)
(-0.0274615 0.0183221 0)
(-0.0341545 0.0186354 0)
(-0.0398777 0.0158603 0)
(-0.0440454 0.0120534 0)
(-0.0466859 0.00830034 0)
(-0.0478761 0.0049676 0)
(-0.0476732 0.00202362 0)
(-0.0461714 -0.000693125 0)
(-0.0434137 -0.00340378 0)
(-0.0393981 -0.00627103 0)
(-0.0341528 -0.00958182 0)
(-0.027939 -0.01382 0)
(-0.0207957 -0.0199844 0)
(-0.00862203 -0.0293548 0)
(-0.00806017 -0.0431073 0)
(0.0192831 -0.0658009 0)
(0.00163925 -0.0646066 0)
(0.0275182 0.130523 0)
(-0.0157114 0.0768546 0)
(-0.0208763 0.00994185 0)
(-0.02496 -0.00562974 0)
(-0.0263459 0.00782492 0)
(-0.0309373 0.0230893 0)
(-0.0370489 0.0306132 0)
(-0.0432769 0.0300983 0)
(-0.0483911 0.0249519 0)
(-0.0521291 0.0182663 0)
(-0.0544873 0.0116475 0)
(-0.0555514 0.00553952 0)
(-0.0554405 -0.000124692 0)
(-0.0542033 -0.00545363 0)
(-0.051887 -0.0105557 0)
(-0.0485214 -0.0156015 0)
(-0.0442765 -0.0208581 0)
(-0.0395907 -0.0267462 0)
(-0.0344401 -0.0338511 0)
(-0.0292222 -0.0428559 0)
(-0.0281419 -0.0573543 0)
(-0.0225163 -0.0680871 0)
(-0.0437332 -0.0325546 0)
(-0.0151059 0.102873 0)
(-0.015419 0.112634 0)
(-0.0261133 0.0249951 0)
(-0.0359441 0.001557 0)
(-0.0392263 0.0157581 0)
(-0.0450689 0.0333672 0)
(-0.0513396 0.0411549 0)
(-0.0571757 0.0391759 0)
(-0.0617471 0.031812 0)
(-0.0648612 0.0228586 0)
(-0.0665462 0.0142409 0)
(-0.066938 0.00639686 0)
(-0.0661661 -0.000845294 0)
(-0.0643505 -0.00780549 0)
(-0.0616994 -0.0145831 0)
(-0.0583673 -0.0211497 0)
(-0.0545296 -0.0275251 0)
(-0.0505263 -0.0338603 0)
(-0.0463435 -0.0401139 0)
(-0.0427726 -0.0458885 0)
(-0.0424246 -0.0516928 0)
(-0.0439352 -0.0584463 0)
(-0.0511882 -0.0534699 0)
(-0.0217727 0.00334694 0)
(-0.0184319 0.155177 0)
(-0.0376064 0.0544955 0)
(-0.0533217 0.0194642 0)
(-0.0573495 0.0302853 0)
(-0.0635962 0.0489239 0)
(-0.0700711 0.0559894 0)
(-0.075301 0.0518211 0)
(-0.0789086 0.041399 0)
(-0.0809891 0.0289499 0)
(-0.0817405 0.0166716 0)
(-0.0813634 0.00535706 0)
(-0.0799343 -0.00480818 0)
(-0.0773868 -0.0139408 0)
(-0.0736295 -0.0222082 0)
(-0.0687783 -0.0297011 0)
(-0.0631629 -0.0366286 0)
(-0.0571441 -0.0431133 0)
(-0.0507598 -0.048993 0)
(-0.0446154 -0.0536235 0)
(-0.0392932 -0.0562552 0)
(-0.0324876 -0.0599486 0)
(-0.031792 -0.0703333 0)
(-0.00832343 -0.0517319 0)
(-0.0160404 0.208765 0)
(-0.0437514 0.088408 0)
(-0.069687 0.0335252 0)
(-0.0770524 0.0356561 0)
(-0.0841916 0.0539347 0)
(-0.0921611 0.0586869 0)
(-0.09955 0.0517736 0)
(-0.104709 0.0394375 0)
(-0.107503 0.026021 0)
(-0.107677 0.0137822 0)
(-0.105423 0.00257258 0)
(-0.101426 -0.00879962 0)
(-0.096315 -0.0201999 0)
(-0.0899669 -0.0308616 0)
(-0.0826125 -0.0404467 0)
(-0.0747268 -0.0490039 0)
(-0.0661767 -0.0564831 0)
(-0.0567245 -0.0628637 0)
(-0.0467097 -0.0681135 0)
(-0.0360489 -0.0712179 0)
(-0.0241104 -0.0738438 0)
(-0.0160266 -0.0880998 0)
(-0.000125025 -0.0782537 0)
(-0.000392141 0.271019 0)
(-0.0280812 0.167393 0)
(-0.0652686 0.0807392 0)
(-0.0907737 0.0620904 0)
(-0.105048 0.0836993 0)
(-0.11415 0.0894824 0)
(-0.120332 0.0771681 0)
(-0.12285 0.0569246 0)
(-0.122897 0.0336169 0)
(-0.121997 0.0112309 0)
(-0.122104 -0.00801105 0)
(-0.121885 -0.0233828 0)
(-0.11867 -0.0362871 0)
(-0.11237 -0.0479457 0)
(-0.104928 -0.0575826 0)
(-0.0972369 -0.0660422 0)
(-0.0884405 -0.075042 0)
(-0.0778808 -0.083717 0)
(-0.0653401 -0.091323 0)
(-0.0519826 -0.0969817 0)
(-0.038574 -0.102329 0)
(-0.01681 -0.114307 0)
(-0.00505471 -0.0897237 0)
(0.0128261 0.253445 0)
(0.00653117 0.222957 0)
(-0.0195433 0.142117 0)
(-0.0735852 0.107577 0)
(-0.101449 0.100086 0)
(-0.111026 0.0894185 0)
(-0.12236 0.0720087 0)
(-0.132648 0.0513806 0)
(-0.140484 0.0302022 0)
(-0.145068 0.0157778 0)
(-0.147302 0.0041131 0)
(-0.147463 -0.0133914 0)
(-0.146228 -0.0356533 0)
(-0.143132 -0.0568305 0)
(-0.137286 -0.0719295 0)
(-0.128849 -0.085508 0)
(-0.118187 -0.100675 0)
(-0.106051 -0.113991 0)
(-0.0912827 -0.123884 0)
(-0.0753774 -0.131304 0)
(-0.059179 -0.14131 0)
(-0.0339821 -0.155332 0)
(-0.039569 -0.133435 0)
(-0.364033 -0.0733487 0)
(-0.619526 -0.37013 0)
(-0.903621 -0.397697 0)
(-1.01289 -0.368439 0)
(-0.77689 -0.354053 0)
(-0.302417 -0.374229 0)
(0.104366 -0.308356 0)
(0.408814 -0.226417 0)
(0.672607 -0.14883 0)
(0.874466 -0.104048 0)
(0.987152 -0.132505 0)
(1.10761 -0.145869 0)
(1.36809 -0.175451 0)
(1.79036 -0.198585 0)
(2.25752 -0.171306 0)
(2.37837 -0.129225 0)
(1.93821 -0.143881 0)
(1.10166 -0.0482734 0)
(0.512842 0.188273 0)
(-0.918912 0.801034 0)
(-0.91394 0.606618 0)
(-1.29891 0.555495 0)
(-0.882225 0.289013 0)
(0.0592571 -0.673292 0)
(0.495801 -0.832796 0)
(0.823044 -0.602893 0)
(0.997109 -0.49784 0)
(0.916231 -0.423093 0)
(0.787024 -0.255436 0)
(0.52514 -0.111386 0)
(0.570527 -0.211037 0)
(1.17682 -0.659999 0)
(1.65902 -0.970635 0)
(2.27915 -0.633146 0)
(3.23173 0.329863 0)
(3.27547 1.05201 0)
(2.00143 1.25153 0)
(1.11056 1.25131 0)
(-1.15326 1.92641 0)
(-0.0789941 0.926718 0)
(-0.356743 -0.657134 0)
(0.516557 -0.959976 0)
(0.757344 -1.20713 0)
(0.881203 -1.27159 0)
(1.04394 -0.975927 0)
(1.70215 -0.040325 0)
(0.219896 0.247494 0)
(-0.817182 0.471441 0)
(-0.595196 -0.107652 0)
(0.227871 -1.12855 0)
(0.845129 -1.32069 0)
(1.21991 -1.52924 0)
(1.4178 -1.47966 0)
(1.89173 -0.626011 0)
(2.0715 1.39344 0)
(1.25809 2.73975 0)
(1.44903 2.6106 0)
(-1.03137 2.08847 0)
(0.903191 0.87794 0)
(1.06865 -0.553534 0)
(0.946985 -0.899629 0)
(0.893972 -1.1497 0)
(0.900303 -1.31473 0)
(0.88355 -1.31729 0)
(1.22458 0.117931 0)
(0.388543 1.74351 0)
(-0.620193 0.92126 0)
(0.32686 -1.0812 0)
(0.617487 -1.7715 0)
(0.857284 -1.72162 0)
(1.04808 -1.71414 0)
(1.11911 -1.68775 0)
(1.12984 -0.281329 0)
(1.38296 2.25936 0)
(0.814449 3.67699 0)
(1.48869 3.99163 0)
(-0.404317 1.39378 0)
(0.984896 -0.832587 0)
(0.806989 -0.899464 0)
(0.78273 -0.979921 0)
(0.849594 -1.17957 0)
(0.87639 -1.33495 0)
(0.746143 -1.33731 0)
(0.983831 0.869978 0)
(0.432874 2.42686 0)
(0.305831 0.922681 0)
(0.655042 -1.21699 0)
(0.763788 -1.92213 0)
(0.833916 -1.92934 0)
(0.961769 -1.89473 0)
(1.14123 -1.66549 0)
(0.796432 -0.326343 0)
(0.975758 2.093 0)
(0.35333 3.59341 0)
(1.31365 4.93928 0)
(0.382699 0.767361 0)
(0.615743 -0.359011 0)
(0.635755 -0.714277 0)
(0.752713 -1.01062 0)
(0.826596 -1.21659 0)
(0.756921 -1.2525 0)
(0.375732 -1.29621 0)
(0.236619 0.703753 0)
(0.0614453 2.62944 0)
(0.541679 0.741437 0)
(0.757407 -1.44653 0)
(0.854644 -2.02174 0)
(0.821233 -2.06198 0)
(0.834909 -2.05467 0)
(0.994855 -1.36125 0)
(0.54399 -0.162997 0)
(0.754451 1.76169 0)
(0.0337067 3.56528 0)
(1.14496 5.22834 0)
(0.547608 0.324132 0)
(0.451912 -0.507188 0)
(0.600224 -0.874518 0)
(0.755932 -1.10861 0)
(0.693076 -1.15871 0)
(0.392964 -1.00719 0)
(-0.288121 -0.583209 0)
(-0.59549 0.976099 0)
(-0.248198 2.21482 0)
(0.348985 -0.190074 0)
(0.744708 -1.6385 0)
(0.802449 -2.04879 0)
(0.716178 -2.04627 0)
(0.664769 -1.97928 0)
(0.799341 -1.22275 0)
(0.527832 0.0698389 0)
(0.682248 1.8098 0)
(-0.191519 3.70968 0)
(0.882205 5.59329 0)
(0.222518 -0.320863 0)
(0.498069 -0.659595 0)
(0.669558 -0.950104 0)
(0.659633 -1.06397 0)
(0.360156 -0.836785 0)
(-0.0873266 -0.453837 0)
(-0.470868 -0.0925384 0)
(-0.684717 0.722137 0)
(-0.202629 1.30599 0)
(0.446414 -0.606023 0)
(0.754448 -1.7138 0)
(0.767429 -1.9922 0)
(0.680522 -1.97668 0)
(0.587226 -1.90145 0)
(0.573237 -1.36682 0)
(0.571182 0.224464 0)
(0.714174 2.02448 0)
(-0.334927 3.8634 0)
(0.718113 5.8741 0)
(0.00379681 0.221767 0)
(-0.000769971 0.22644 0)
(-0.0351659 0.204404 0)
(-0.0978051 0.17557 0)
(-0.146255 0.141967 0)
(-0.182395 0.122196 0)
(-0.207049 0.104061 0)
(-0.221537 0.0767702 0)
(-0.223247 0.0447588 0)
(-0.213614 0.0191355 0)
(-0.200549 -0.00241765 0)
(-0.176084 -0.0259495 0)
(-0.142344 -0.0508356 0)
(-0.105744 -0.0721847 0)
(-0.0659136 -0.0899509 0)
(-0.0225558 -0.107213 0)
(0.0189751 -0.122866 0)
(0.0519162 -0.13633 0)
(0.0760412 -0.148941 0)
(0.0952806 -0.15726 0)
(0.102455 -0.16038 0)
(0.0837406 -0.156644 0)
(-0.0534708 -0.165308 0)
(-0.0426928 0.239773 0)
(-0.0805242 0.255201 0)
(-0.15161 0.25973 0)
(-0.238682 0.226816 0)
(-0.323783 0.185346 0)
(-0.371523 0.151486 0)
(-0.383419 0.112871 0)
(-0.373522 0.0640123 0)
(-0.339641 0.0187797 0)
(-0.267048 -0.00948187 0)
(-0.121238 -0.0489249 0)
(0.244776 -0.139544 0)
(0.328154 -0.108658 0)
(0.425706 -0.114166 0)
(0.471063 -0.133937 0)
(0.5021 -0.153346 0)
(0.522039 -0.160993 0)
(0.537895 -0.159306 0)
(0.54654 -0.155696 0)
(0.52704 -0.144041 0)
(0.468386 -0.0959312 0)
(0.395132 0.0429802 0)
(-0.0901865 0.0786126 0)
(-0.148284 0.416569 0)
(-0.222703 0.410643 0)
(-0.272708 0.385727 0)
(-0.298104 0.319027 0)
(-0.317682 0.243259 0)
(-0.308031 0.172156 0)
(-0.259431 0.0954533 0)
(-0.138341 0.0110201 0)
(0.0545337 -0.0866048 0)
(0.193022 -0.222146 0)
(0.282807 -0.430606 0)
(0.31866 -0.38671 0)
(0.347556 -0.299708 0)
(0.390086 -0.248999 0)
(0.423315 -0.215203 0)
(0.446065 -0.190557 0)
(0.459793 -0.18069 0)
(0.465783 -0.176181 0)
(0.472172 -0.154519 0)
(0.489651 -0.112543 0)
(0.5196 -0.0522393 0)
(0.638513 0.0369461 0)
(0.69212 0.374934 0)
(-0.101932 0.547305 0)
(-0.0937621 0.428089 0)
(-0.0996003 0.367268 0)
(-0.0224452 0.335854 0)
(0.0549944 0.267021 0)
(0.159265 0.151168 0)
(0.296102 -0.0116259 0)
(0.420315 -0.176632 0)
(0.495721 -0.278569 0)
(0.530583 -0.316053 0)
(0.529886 -0.317523 0)
(0.501461 -0.27685 0)
(0.47152 -0.226638 0)
(0.459862 -0.193438 0)
(0.462575 -0.179098 0)
(0.471448 -0.17741 0)
(0.482809 -0.179701 0)
(0.493928 -0.179549 0)
(0.506691 -0.174317 0)
(0.528477 -0.162316 0)
(0.566474 -0.144974 0)
(0.612992 -0.125664 0)
(0.747997 -0.123256 0)
(-0.0195725 0.608994 0)
(0.0467398 0.455241 0)
(0.0791867 0.282054 0)
(0.188473 0.171219 0)
(0.3072 0.0650816 0)
(0.423928 -0.058432 0)
(0.511905 -0.167782 0)
(0.551915 -0.239773 0)
(0.550751 -0.272813 0)
(0.526571 -0.280841 0)
(0.492948 -0.278207 0)
(0.459165 -0.266323 0)
(0.435658 -0.245156 0)
(0.42796 -0.224299 0)
(0.433142 -0.210282 0)
(0.445262 -0.202891 0)
(0.460374 -0.200281 0)
(0.477339 -0.199479 0)
(0.497854 -0.196286 0)
(0.525503 -0.189301 0)
(0.564328 -0.180182 0)
(0.617549 -0.173457 0)
(0.692901 -0.166235 0)
(0.0253644 0.530213 0)
(0.100724 0.403161 0)
(0.147401 0.191732 0)
(0.219772 0.0471888 0)
(0.298241 -0.0507807 0)
(0.371474 -0.126219 0)
(0.425591 -0.188052 0)
(0.452732 -0.231707 0)
(0.457262 -0.254022 0)
(0.449054 -0.258205 0)
(0.436382 -0.251185 0)
(0.424516 -0.238218 0)
(0.417413 -0.223975 0)
(0.41767 -0.213492 0)
(0.425417 -0.209429 0)
(0.439041 -0.210824 0)
(0.4569 -0.215024 0)
(0.478059 -0.219424 0)
(0.502702 -0.22242 0)
(0.532043 -0.224264 0)
(0.567371 -0.227205 0)
(0.608487 -0.235468 0)
(0.655522 -0.254553 0)
(0.0139071 0.446686 0)
(0.0665102 0.313827 0)
(0.109213 0.122631 0)
(0.161371 -0.0132564 0)
(0.228217 -0.114658 0)
(0.296724 -0.189247 0)
(0.352229 -0.237816 0)
(0.386658 -0.26197 0)
(0.401246 -0.266679 0)
(0.402866 -0.259537 0)
(0.399195 -0.248133 0)
(0.395927 -0.237539 0)
(0.396452 -0.230248 0)
(0.402458 -0.227255 0)
(0.414152 -0.228567 0)
(0.430574 -0.233182 0)
(0.450468 -0.239676 0)
(0.473015 -0.246777 0)
(0.498161 -0.253723 0)
(0.526466 -0.260692 0)
(0.558407 -0.268953 0)
(0.593561 -0.280659 0)
(0.630513 -0.297752 0)
(-0.00947298 0.433926 0)
(0.0192968 0.268532 0)
(0.0577216 0.0756613 0)
(0.117802 -0.0849657 0)
(0.18828 -0.196892 0)
(0.254685 -0.259315 0)
(0.305612 -0.284062 0)
(0.336871 -0.284922 0)
(0.351693 -0.27355 0)
(0.356943 -0.258534 0)
(0.359291 -0.245542 0)
(0.363238 -0.237525 0)
(0.371014 -0.235175 0)
(0.38327 -0.237794 0)
(0.399691 -0.244142 0)
(0.419444 -0.252811 0)
(0.441634 -0.262489 0)
(0.465641 -0.272241 0)
(0.491242 -0.281708 0)
(0.518485 -0.291261 0)
(0.547337 -0.301976 0)
(0.577289 -0.31531 0)
(0.607271 -0.332514 0)
(-0.0144733 0.445463 0)
(0.001753 0.246467 0)
(0.035188 0.0209508 0)
(0.0983272 -0.158896 0)
(0.165753 -0.27019 0)
(0.224898 -0.318118 0)
(0.267636 -0.323255 0)
(0.293363 -0.307057 0)
(0.307043 -0.284999 0)
(0.315177 -0.265917 0)
(0.323028 -0.253716 0)
(0.333604 -0.249158 0)
(0.347916 -0.251184 0)
(0.365739 -0.257931 0)
(0.386308 -0.267494 0)
(0.408761 -0.278329 0)
(0.4324 -0.289414 0)
(0.456812 -0.300265 0)
(0.481874 -0.310891 0)
(0.507629 -0.321717 0)
(0.534049 -0.33346 0)
(0.560773 -0.346924 0)
(0.587061 -0.362693 0)
(-0.00631268 0.450644 0)
(0.00452561 0.227123 0)
(0.0335827 -0.0311452 0)
(0.0927233 -0.228492 0)
(0.153305 -0.336693 0)
(0.203245 -0.368532 0)
(0.237058 -0.355192 0)
(0.257093 -0.325242 0)
(0.269571 -0.296388 0)
(0.280371 -0.276341 0)
(0.293184 -0.266638 0)
(0.30943 -0.265853 0)
(0.328962 -0.271492 0)
(0.350894 -0.281006 0)
(0.374229 -0.292339 0)
(0.398194 -0.304135 0)
(0.422349 -0.315706 0)
(0.446548 -0.326888 0)
(0.470832 -0.337871 0)
(0.495283 -0.349069 0)
(0.519877 -0.361004 0)
(0.544357 -0.374179 0)
(0.568254 -0.388887 0)
(0.00185946 0.445038 0)
(0.0109878 0.211314 0)
(0.0405987 -0.0790822 0)
(0.0946087 -0.291627 0)
(0.147033 -0.393356 0)
(0.186866 -0.408291 0)
(0.211894 -0.379209 0)
(0.227083 -0.340246 0)
(0.239158 -0.309187 0)
(0.25284 -0.291289 0)
(0.270078 -0.285431 0)
(0.29081 -0.288331 0)
(0.313988 -0.296595 0)
(0.338382 -0.307517 0)
(0.363034 -0.319303 0)
(0.387415 -0.330999 0)
(0.411374 -0.342292 0)
(0.434991 -0.353262 0)
(0.458429 -0.364189 0)
(0.481812 -0.375416 0)
(0.505138 -0.38727 0)
(0.528225 -0.399999 0)
(0.550753 -0.413701 0)
(0.00552492 0.433116 0)
(0.016475 0.193872 0)
(0.050105 -0.125338 0)
(0.0998529 -0.348047 0)
(0.143794 -0.439714 0)
(0.173652 -0.437928 0)
(0.191013 -0.39664 0)
(0.202866 -0.353364 0)
(0.215589 -0.323901 0)
(0.232258 -0.310148 0)
(0.253089 -0.308444 0)
(0.276845 -0.314245 0)
(0.301982 -0.323896 0)
(0.327273 -0.33501 0)
(0.352025 -0.346312 0)
(0.376026 -0.357319 0)
(0.399375 -0.368018 0)
(0.422291 -0.378609 0)
(0.444981 -0.389346 0)
(0.467557 -0.400453 0)
(0.490001 -0.412096 0)
(0.512175 -0.424372 0)
(0.53386 -0.437279 0)
(0.00570546 0.418002 0)
(0.0210568 0.171138 0)
(0.0594401 -0.171575 0)
(0.105689 -0.397858 0)
(0.141351 -0.475912 0)
(0.162201 -0.458496 0)
(0.173644 -0.409152 0)
(0.183856 -0.366016 0)
(0.198069 -0.341043 0)
(0.21745 -0.332395 0)
(0.240725 -0.3344 0)
(0.26595 -0.342011 0)
(0.291516 -0.351923 0)
(0.316482 -0.362396 0)
(0.340521 -0.372755 0)
(0.363708 -0.382907 0)
(0.38629 -0.393006 0)
(0.408523 -0.403254 0)
(0.430585 -0.413813 0)
(0.452548 -0.424783 0)
(0.474386 -0.436208 0)
(0.495996 -0.448088 0)
(0.517234 -0.460366 0)
(0.00433473 0.401475 0)
(0.0248608 0.141925 0)
(0.0673939 -0.218439 0)
(0.110348 -0.441262 0)
(0.138391 -0.50286 0)
(0.151871 -0.471846 0)
(0.159478 -0.418779 0)
(0.169586 -0.379454 0)
(0.185663 -0.360643 0)
(0.207034 -0.357003 0)
(0.23141 -0.361705 0)
(0.256664 -0.369976 0)
(0.281482 -0.37931 0)
(0.305348 -0.388738 0)
(0.328275 -0.398094 0)
(0.350514 -0.407513 0)
(0.372345 -0.417175 0)
(0.39398 -0.427202 0)
(0.415539 -0.43765 0)
(0.437063 -0.448519 0)
(0.458524 -0.459779 0)
(0.479859 -0.47138 0)
(0.500977 -0.483233 0)
(0.00281763 0.384533 0)
(0.0280025 0.106252 0)
(0.0735179 -0.265765 0)
(0.113086 -0.478592 0)
(0.134553 -0.522068 0)
(0.142684 -0.480253 0)
(0.148502 -0.427456 0)
(0.159581 -0.394426 0)
(0.17734 -0.382185 0)
(0.199654 -0.382671 0)
(0.22383 -0.388867 0)
(0.248011 -0.396899 0)
(0.271377 -0.405259 0)
(0.293823 -0.413659 0)
(0.315576 -0.422246 0)
(0.336928 -0.43121 0)
(0.358105 -0.44066 0)
(0.379249 -0.450619 0)
(0.400429 -0.461058 0)
(0.421671 -0.471921 0)
(0.442964 -0.483139 0)
(0.464281 -0.49463 0)
(0.485563 -0.506276 0)
(0.00181725 0.367399 0)
(0.0308126 0.065656 0)
(0.0781952 -0.312693 0)
(0.11417 -0.510347 0)
(0.130215 -0.535374 0)
(0.134983 -0.485965 0)
(0.140635 -0.436633 0)
(0.153144 -0.411048 0)
(0.171969 -0.404747 0)
(0.194142 -0.408084 0)
(0.217127 -0.414734 0)
(0.23962 -0.422056 0)
(0.261306 -0.429471 0)
(0.282356 -0.437144 0)
(0.303058 -0.44532 0)
(0.323645 -0.454125 0)
(0.344261 -0.463572 0)
(0.364984 -0.47361 0)
(0.385862 -0.484166 0)
(0.406926 -0.495159 0)
(0.428186 -0.5065 0)
(0.449647 -0.51808 0)
(0.47127 -0.529754 0)
(0.00145075 0.349433 0)
(0.0341413 0.0217682 0)
(0.0823671 -0.358236 0)
(0.114473 -0.537091 0)
(0.12607 -0.544499 0)
(0.129033 -0.490728 0)
(0.135492 -0.447052 0)
(0.149324 -0.428906 0)
(0.168422 -0.427308 0)
(0.189599 -0.432246 0)
(0.210857 -0.438691 0)
(0.23151 -0.445255 0)
(0.251613 -0.452033 0)
(0.271442 -0.459374 0)
(0.291231 -0.467475 0)
(0.311123 -0.476359 0)
(0.33119 -0.485968 0)
(0.351485 -0.49622 0)
(0.372051 -0.507031 0)
(0.39294 -0.518315 0)
(0.414183 -0.529965 0)
(0.435813 -0.541845 0)
(0.457813 -0.553807 0)
(0.00173887 0.329344 0)
(0.0388345 -0.0243411 0)
(0.0869931 -0.401576 0)
(0.114903 -0.55924 0)
(0.122673 -0.550683 0)
(0.124805 -0.495557 0)
(0.132402 -0.45879 0)
(0.147092 -0.447325 0)
(0.165734 -0.449036 0)
(0.185411 -0.454621 0)
(0.20481 -0.460612 0)
(0.223752 -0.466645 0)
(0.242478 -0.47317 0)
(0.261236 -0.48052 0)
(0.280167 -0.488783 0)
(0.299336 -0.497905 0)
(0.318785 -0.5078 0)
(0.338563 -0.518388 0)
(0.358726 -0.529594 0)
(0.379343 -0.541331 0)
(0.400469 -0.553478 0)
(0.42217 -0.565883 0)
(0.444469 -0.578426 0)
(0.00271811 0.305664 0)
(0.0450568 -0.0722089 0)
(0.0926165 -0.442154 0)
(0.115944 -0.576948 0)
(0.120185 -0.554601 0)
(0.121975 -0.500824 0)
(0.130609 -0.471512 0)
(0.145565 -0.465612 0)
(0.163209 -0.469398 0)
(0.181185 -0.475057 0)
(0.198824 -0.480641 0)
(0.216266 -0.486464 0)
(0.23378 -0.493058 0)
(0.251525 -0.500641 0)
(0.269564 -0.509205 0)
(0.287923 -0.518665 0)
(0.306641 -0.528946 0)
(0.325775 -0.539982 0)
(0.345393 -0.551711 0)
(0.365581 -0.564053 0)
(0.38642 -0.576879 0)
(0.408021 -0.590052 0)
(0.430467 -0.603509 0)
(0.00435581 0.277147 0)
(0.0525158 -0.122094 0)
(0.099107 -0.47957 0)
(0.117474 -0.590135 0)
(0.118369 -0.556555 0)
(0.120063 -0.506534 0)
(0.129439 -0.484727 0)
(0.144102 -0.483196 0)
(0.160406 -0.488117 0)
(0.176674 -0.493611 0)
(0.19273 -0.49899 0)
(0.208847 -0.504895 0)
(0.225232 -0.51177 0)
(0.241955 -0.519706 0)
(0.259035 -0.52865 0)
(0.276489 -0.53852 0)
(0.294366 -0.549268 0)
(0.312726 -0.560845 0)
(0.331647 -0.573205 0)
(0.351225 -0.586282 0)
(0.37158 -0.599959 0)
(0.392874 -0.614151 0)
(0.415271 -0.62889 0)
(0.00653117 0.242965 0)
(0.0607213 -0.174473 0)
(0.105756 -0.513415 0)
(0.118883 -0.598666 0)
(0.116753 -0.556778 0)
(0.118566 -0.512606 0)
(0.128352 -0.49796 0)
(0.142278 -0.499661 0)
(0.157072 -0.505098 0)
(0.171728 -0.510427 0)
(0.186377 -0.515843 0)
(0.201288 -0.522041 0)
(0.216578 -0.529312 0)
(0.232254 -0.537663 0)
(0.248325 -0.547034 0)
(0.264803 -0.557369 0)
(0.281749 -0.568645 0)
(0.299212 -0.580828 0)
(0.317285 -0.59389 0)
(0.336069 -0.607808 0)
(0.355735 -0.622494 0)
(0.376492 -0.637941 0)
(0.398585 -0.654322 0)
(0.00927046 0.202825 0)
(0.0690503 -0.229376 0)
(0.111554 -0.543144 0)
(0.119363 -0.602564 0)
(0.114833 -0.555674 0)
(0.117038 -0.519003 0)
(0.126936 -0.510824 0)
(0.13982 -0.514753 0)
(0.153081 -0.520369 0)
(0.16628 -0.525673 0)
(0.179678 -0.531343 0)
(0.193467 -0.537963 0)
(0.207686 -0.545685 0)
(0.222308 -0.55448 0)
(0.237345 -0.564308 0)
(0.252799 -0.575139 0)
(0.268737 -0.586968 0)
(0.285188 -0.599786 0)
(0.302262 -0.613585 0)
(0.320071 -0.628422 0)
(0.338826 -0.644237 0)
(0.358779 -0.661128 0)
(0.380229 -0.679438 0)
(0.0129199 0.156772 0)
(0.0767783 -0.286056 0)
(0.115497 -0.56808 0)
(0.118214 -0.602188 0)
(0.112226 -0.553886 0)
(0.115126 -0.52575 0)
(0.124882 -0.523035 0)
(0.136569 -0.528371 0)
(0.148395 -0.534057 0)
(0.160321 -0.539526 0)
(0.172607 -0.545609 0)
(0.185349 -0.552716 0)
(0.198532 -0.560906 0)
(0.212115 -0.570154 0)
(0.226108 -0.580441 0)
(0.240499 -0.591768 0)
(0.255353 -0.604133 0)
(0.270678 -0.617576 0)
(0.286602 -0.632105 0)
(0.303252 -0.6479 0)
(0.32083 -0.664897 0)
(0.339671 -0.683349 0)
(0.36002 -0.703704 0)
(0.0177637 0.104853 0)
(0.083095 -0.34299 0)
(0.116801 -0.587555 0)
(0.115041 -0.598329 0)
(0.108741 -0.552219 0)
(0.112573 -0.532874 0)
(0.121982 -0.53442 0)
(0.132466 -0.54056 0)
(0.14304 -0.546356 0)
(0.153885 -0.552169 0)
(0.165185 -0.558754 0)
(0.176953 -0.566361 0)
(0.189142 -0.575008 0)
(0.201708 -0.584692 0)
(0.214651 -0.595411 0)
(0.227944 -0.607189 0)
(0.241637 -0.620037 0)
(0.255737 -0.634052 0)
(0.270349 -0.649262 0)
(0.285659 -0.665983 0)
(0.301727 -0.684124 0)
(0.319119 -0.704139 0)
(0.33775 -0.726454 0)
(0.0234405 0.0474317 0)
(0.0872268 -0.39819 0)
(0.115018 -0.601179 0)
(0.109821 -0.592193 0)
(0.104361 -0.551465 0)
(0.109214 -0.540349 0)
(0.118137 -0.54491 0)
(0.127532 -0.551477 0)
(0.137079 -0.557495 0)
(0.147022 -0.56377 0)
(0.157445 -0.57088 0)
(0.168308 -0.578962 0)
(0.17955 -0.58803 0)
(0.191124 -0.598102 0)
(0.203011 -0.609192 0)
(0.215179 -0.621344 0)
(0.227647 -0.634587 0)
(0.240442 -0.649072 0)
(0.253588 -0.664866 0)
(0.267382 -0.68237 0)
(0.281556 -0.701518 0)
(0.297158 -0.722922 0)
(0.313276 -0.746971 0)
(0.0290351 -0.0142741 0)
(0.0886479 -0.449575 0)
(0.11009 -0.609079 0)
(0.102866 -0.585253 0)
(0.0991852 -0.552224 0)
(0.104972 -0.548088 0)
(0.113349 -0.554541 0)
(0.121846 -0.561344 0)
(0.130589 -0.567693 0)
(0.139778 -0.574475 0)
(0.149416 -0.582078 0)
(0.159438 -0.59058 0)
(0.16978 -0.600009 0)
(0.180389 -0.610398 0)
(0.191229 -0.621773 0)
(0.202266 -0.634193 0)
(0.21348 -0.647716 0)
(0.224921 -0.662521 0)
(0.236488 -0.678737 0)
(0.248604 -0.696753 0)
(0.260544 -0.716662 0)
(0.273998 -0.73904 0)
(0.286741 -0.764505 0)
(0.0335391 -0.078531 0)
(0.0871135 -0.495395 0)
(0.102358 -0.612013 0)
(0.0947129 -0.578998 0)
(0.0933583 -0.554776 0)
(0.0998614 -0.555964 0)
(0.10771 -0.563422 0)
(0.11552 -0.570395 0)
(0.123642 -0.577134 0)
(0.132191 -0.584398 0)
(0.141121 -0.592426 0)
(0.150364 -0.601276 0)
(0.159855 -0.610988 0)
(0.169539 -0.621605 0)
(0.179364 -0.633166 0)
(0.189296 -0.645735 0)
(0.19928 -0.659402 0)
(0.209364 -0.674338 0)
(0.21933 -0.690743 0)
(0.229644 -0.708898 0)
(0.239186 -0.729167 0)
(0.250119 -0.751859 0)
(0.258836 -0.778191 0)
(0.0364653 -0.14338 0)
(0.0829339 -0.534419 0)
(0.0925564 -0.611259 0)
(0.0859861 -0.57462 0)
(0.0870363 -0.559062 0)
(0.0939796 -0.563843 0)
(0.101372 -0.571703 0)
(0.108682 -0.578834 0)
(0.116313 -0.585958 0)
(0.124303 -0.59363 0)
(0.13259 -0.601996 0)
(0.141111 -0.61111 0)
(0.149806 -0.621021 0)
(0.15862 -0.631775 0)
(0.167495 -0.643421 0)
(0.176389 -0.656023 0)
(0.185225 -0.669687 0)
(0.194014 -0.68455 0)
(0.202477 -0.700852 0)
(0.210977 -0.71873 0)
(0.218246 -0.738782 0)
(0.226396 -0.760964 0)
(0.23102 -0.787116 0)
(0.0375518 -0.206686 0)
(0.076651 -0.566066 0)
(0.0815983 -0.608353 0)
(0.0772403 -0.572797 0)
(0.0803662 -0.564763 0)
(0.0874896 -0.571615 0)
(0.0945139 -0.579522 0)
(0.101454 -0.586802 0)
(0.108676 -0.594253 0)
(0.116162 -0.602237 0)
(0.123857 -0.610847 0)
(0.131712 -0.620141 0)
(0.139674 -0.630171 0)
(0.147689 -0.640983 0)
(0.155703 -0.652627 0)
(0.163664 -0.665162 0)
(0.171487 -0.678686 0)
(0.179125 -0.693292 0)
(0.186304 -0.709197 0)
(0.193172 -0.726421 0)
(0.198612 -0.745605 0)
(0.204132 -0.766458 0)
(0.205473 -0.790915 0)
(0.0369363 -0.26675 0)
(0.0690179 -0.590429 0)
(0.0703869 -0.604776 0)
(0.0688597 -0.57364 0)
(0.0734892 -0.571431 0)
(0.0805881 -0.579204 0)
(0.0873149 -0.586983 0)
(0.0939563 -0.594382 0)
(0.100804 -0.602069 0)
(0.107821 -0.610263 0)
(0.114966 -0.619031 0)
(0.122205 -0.628431 0)
(0.129496 -0.638513 0)
(0.136793 -0.649323 0)
(0.144049 -0.660903 0)
(0.151206 -0.673302 0)
(0.158184 -0.686586 0)
(0.164881 -0.700809 0)
(0.171082 -0.716103 0)
(0.176722 -0.732436 0)
(0.181015 -0.750264 0)
(0.184682 -0.769231 0)
(0.184356 -0.790658 0)
(0.0350478 -0.322344 0)
(0.0608184 -0.608157 0)
(0.0596491 -0.601713 0)
(0.0610343 -0.576809 0)
(0.0665405 -0.578621 0)
(0.0734706 -0.586563 0)
(0.0799313 -0.594144 0)
(0.0862895 -0.601609 0)
(0.0927693 -0.609435 0)
(0.099332 -0.617747 0)
(0.105956 -0.626599 0)
(0.112621 -0.636046 0)
(0.119299 -0.646134 0)
(0.125956 -0.656904 0)
(0.132554 -0.668389 0)
(0.139037 -0.680619 0)
(0.145333 -0.693622 0)
(0.151326 -0.707418 0)
(0.156873 -0.722041 0)
(0.161798 -0.737451 0)
(0.16567 -0.753824 0)
(0.168656 -0.770831 0)
(0.168485 -0.788895 0)
(0.032351 -0.372696 0)
(0.0526997 -0.620246 0)
(0.0498705 -0.599924 0)
(0.0538072 -0.581719 0)
(0.0596433 -0.585966 0)
(0.066304 -0.593659 0)
(0.0724865 -0.60102 0)
(0.0785376 -0.608488 0)
(0.0846316 -0.616364 0)
(0.09074 -0.624718 0)
(0.096858 -0.633597 0)
(0.102981 -0.64305 0)
(0.109093 -0.653118 0)
(0.115173 -0.663834 0)
(0.121192 -0.675218 0)
(0.127104 -0.687281 0)
(0.132851 -0.70002 0)
(0.138337 -0.71343 0)
(0.143484 -0.727482 0)
(0.148131 -0.742138 0)
(0.152113 -0.757354 0)
(0.155389 -0.772832 0)
(0.156669 -0.788359 0)
(0.0292157 -0.417462 0)
(0.0450826 -0.627781 0)
(0.0412935 -0.5997 0)
(0.0471487 -0.587689 0)
(0.0529002 -0.593158 0)
(0.0592126 -0.600424 0)
(0.0650699 -0.607559 0)
(0.0707654 -0.614968 0)
(0.0764414 -0.622823 0)
(0.0820828 -0.631164 0)
(0.0876991 -0.640031 0)
(0.0932972 -0.649464 0)
(0.0988731 -0.659501 0)
(0.104416 -0.670162 0)
(0.109903 -0.681456 0)
(0.115303 -0.693377 0)
(0.120573 -0.705908 0)
(0.12566 -0.719032 0)
(0.130534 -0.732704 0)
(0.135105 -0.746888 0)
(0.13938 -0.761444 0)
(0.143288 -0.776101 0)
(0.146371 -0.790443 0)
(0.0259301 -0.45661 0)
(0.0381784 -0.631763 0)
(0.033942 -0.600913 0)
(0.0410093 -0.594054 0)
(0.0463881 -0.599926 0)
(0.0522765 -0.606728 0)
(0.0577418 -0.613638 0)
(0.0630223 -0.620942 0)
(0.0682405 -0.628728 0)
(0.0733944 -0.63702 0)
(0.0785029 -0.64585 0)
(0.0835804 -0.655252 0)
(0.0886302 -0.665253 0)
(0.0936466 -0.675864 0)
(0.0986142 -0.687084 0)
(0.103512 -0.698898 0)
(0.108316 -0.71129 0)
(0.11301 -0.724242 0)
(0.11759 -0.737724 0)
(0.122035 -0.751703 0)
(0.12643 -0.76604 0)
(0.130701 -0.780527 0)
(0.135033 -0.794784 0)
(0.0226927 -0.490425 0)
(0.0320448 -0.633156 0)
(0.0277014 -0.603228 0)
(0.0353319 -0.600333 0)
(0.0401549 -0.606127 0)
(0.0455385 -0.612501 0)
(0.0505387 -0.619193 0)
(0.0553448 -0.626362 0)
(0.0600645 -0.634052 0)
(0.064706 -0.642277 0)
(0.0692922 -0.651059 0)
(0.0738401 -0.660424 0)
(0.0783552 -0.670389 0)
(0.0828336 -0.680954 0)
(0.0872643 -0.692113 0)
(0.0916345 -0.70385 0)
(0.095934 -0.716154 0)
(0.100164 -0.729016 0)
(0.104328 -0.742426 0)
(0.108435 -0.756357 0)
(0.112568 -0.770706 0)
(0.116645 -0.785355 0)
(0.12116 -0.800002 0)
(0.0195837 -0.519522 0)
(0.0266558 -0.6329 0)
(0.0224165 -0.606362 0)
(0.0300339 -0.60633 0)
(0.0342153 -0.611818 0)
(0.0390136 -0.617826 0)
(0.0434794 -0.624312 0)
(0.0477575 -0.631337 0)
(0.0519404 -0.638921 0)
(0.0560425 -0.647071 0)
(0.0600857 -0.6558 0)
(0.064085 -0.665122 0)
(0.0680445 -0.675044 0)
(0.07196 -0.685561 0)
(0.0758231 -0.696661 0)
(0.079625 -0.708332 0)
(0.0833608 -0.720568 0)
(0.0870309 -0.733368 0)
(0.0906298 -0.74673 0)
(0.0941647 -0.760627 0)
(0.0976642 -0.774994 0)
(0.101051 -0.789776 0)
(0.104768 -0.804733 0)
(0.0165986 -0.544414 0)
(0.0219143 -0.631672 0)
(0.0179216 -0.609997 0)
(0.0250351 -0.611887 0)
(0.0285584 -0.617012 0)
(0.0326994 -0.622722 0)
(0.0365712 -0.62902 0)
(0.0402753 -0.635906 0)
(0.0438866 -0.643385 0)
(0.0474216 -0.651457 0)
(0.0508975 -0.660127 0)
(0.0543247 -0.669398 0)
(0.0577044 -0.679266 0)
(0.0610316 -0.689723 0)
(0.0642985 -0.700755 0)
(0.0674973 -0.712352 0)
(0.0706205 -0.72451 0)
(0.0736579 -0.737227 0)
(0.0765904 -0.750495 0)
(0.0794045 -0.764283 0)
(0.0820707 -0.778544 0)
(0.0845286 -0.793227 0)
(0.0869822 -0.808167 0)
(0.0136884 -0.56508 0)
(0.0176822 -0.62964 0)
(0.0140599 -0.613473 0)
(0.0202678 -0.61653 0)
(0.0231536 -0.621335 0)
(0.0265806 -0.626819 0)
(0.0298091 -0.632959 0)
(0.0329003 -0.639725 0)
(0.0359087 -0.647111 0)
(0.0388494 -0.65511 0)
(0.0417337 -0.663719 0)
(0.0445666 -0.672931 0)
(0.0473468 -0.682737 0)
(0.0500686 -0.693124 0)
(0.0527246 -0.704077 0)
(0.0553051 -0.715587 0)
(0.0577971 -0.727645 0)
(0.0601799 -0.740242 0)
(0.0624233 -0.753358 0)
(0.0644929 -0.766952 0)
(0.0663299 -0.780973 0)
(0.0678804 -0.795346 0)
(0.0691446 -0.809972 0)
(0.010793 -0.581323 0)
(0.0137989 -0.626708 0)
(0.0106853 -0.616024 0)
(0.0156738 -0.619684 0)
(0.0179452 -0.624267 0)
(0.0206185 -0.629592 0)
(0.023164 -0.635613 0)
(0.0256083 -0.642286 0)
(0.0279851 -0.649598 0)
(0.0303055 -0.657535 0)
(0.0325755 -0.666086 0)
(0.0347963 -0.675241 0)
(0.0369652 -0.684985 0)
(0.0390766 -0.695303 0)
(0.0411224 -0.706178 0)
(0.0430913 -0.717598 0)
(0.0449663 -0.729546 0)
(0.0467215 -0.742002 0)
(0.0483225 -0.754935 0)
(0.0497261 -0.768292 0)
(0.0508722 -0.782006 0)
(0.0517035 -0.795983 0)
(0.052138 -0.810146 0)
(0.00788019 -0.593596 0)
(0.010104 -0.623266 0)
(0.00763862 -0.617572 0)
(0.0111895 -0.621463 0)
(0.0128457 -0.625934 0)
(0.0147458 -0.631162 0)
(0.0165788 -0.637099 0)
(0.0183472 -0.643704 0)
(0.0200664 -0.650957 0)
(0.0217429 -0.658842 0)
(0.0233791 -0.667344 0)
(0.0249748 -0.676448 0)
(0.0265269 -0.686136 0)
(0.02803 -0.696393 0)
(0.0294762 -0.707199 0)