/*--------------------------------*- C++ -*----------------------------------*\
| =========                 |                                                 |
| \\      /  F ield         | OpenFOAM: The Open Source CFD Toolbox           |
|  \\    /   O peration     | Version:  2206                                  |
|   \\  /    A nd           | Website:  www.openfoam.com                      |
|    \\/     M anipulation  |                                                 |
\*---------------------------------------------------------------------------*/
FoamFile
{
    version     2.0;
    format      ascii;
    arch        "LSB;label=32;scalar=64";
    class       volScalarField;
    location    "0.125";
    object      alpha.water;
}
// * * * * * * * * * * * * * * * * * * * * * * * * * * * * * * * * * * * * * //

dimensions      [0 0 0 0 0 0 0];

internalField   nonuniform List<scalar> 
2268
(
1
0.999999
1
1
1
1
1
0.999999
1
1
1
1
1
0.999998
0.999998
0.999999
0.999999
0.999999
0.999999
0.999999
1
0.999999
1
0.999999
1
1
1
1
1
0.999999
1
1
1
1
0.999999
0.999998
0.999998
0.999999
0.999999
0.999999
0.999999
0.999999
0.999999
0.999999
1
1
1
1
1
1
1
1
1
1
1
1
1
1
1
1
1
1
1
0.999999
0.999999
0.999999
1
1
1
1
1
1
1
1
1
1
1
1
1
1
1
1
1
1
1
1
1
1
1
1
1
1
1
1
1
1
1
1
1
1
1
1
1
1
1
1
1
1
1
1
1
1
1
1
1
1
1
1
1
1
1
1
0.999999
0.999999
1
1
1
1
1
1
1
1
1
1
1
1
1
1
1
1
1
1
1
1
1
0.999999
0.999999
0.999999
1
1
1
1
1
1
1
1
1
1
1
1
1
1
1
1
1
1
1
1
1
0.999999
0.999999
1
1
1
1
1
1
1
1
1
1
1
1
1
1.12414e-07
1.12414e-07
3.47284e-06
1.55204e-05
2.33774e-05
1.55542e-05
5.08136e-06
5.59282e-07
3.39938e-08
3.42694e-09
2.87774e-10
2.03385e-11
1.72616e-12
1.33779e-13
5.21051e-15
1.3532e-16
2.48348e-18
2.56917e-20
1.30835e-20
1.12414e-07
2.65664e-07
2.11026e-05
8.82244e-05
6.38447e-05
7.08106e-05
3.31325e-05
4.22044e-06
2.75312e-07
3.34396e-08
3.2204e-09
2.41706e-10
1.47776e-11
8.25135e-13
5.21096e-14
1.58602e-15
2.72652e-17
2.06812e-19
1.30835e-20
2.65664e-07
7.46072e-07
2.3155e-05
0.000227871
0.000319074
0.000424525
0.000144105
1.68434e-05
1.41961e-06
1.4558e-07
1.31164e-08
9.49371e-10
5.606e-11
2.78547e-12
1.3397e-13
4.77037e-15
8.22116e-17
5.43018e-19
1.26216e-19
8.65955e-07
1.45425e-06
0.000133674
0.000183662
0.00146686
0.0016771
0.00156312
0.000130839
5.37208e-06
5.58392e-07
4.71262e-08
3.30252e-09
1.91083e-10
8.79868e-12
3.43687e-13
1.08448e-14
1.709e-16
1.64087e-18
5.21235e-19
2.51126e-06
5.66209e-05
4.3446e-05
0.00047563
0.0046429
0.0180236
0.00727085
0.000211856
1.84122e-05
1.82774e-06
1.50247e-07
1.02543e-08
5.73595e-10
2.59562e-11
9.80593e-13
2.53297e-14
4.26145e-16
4.67369e-18
1.64087e-18
3.43836e-06
1.76419e-05
-3.17343e-06
0.00709292
0.0647988
0.0679603
0.0103124
0.000305398
3.64798e-05
3.54934e-06
2.87131e-07
1.92645e-08
1.06179e-09
4.73088e-11
1.82165e-12
6.95207e-14
1.7619e-15
1.66028e-17
4.67369e-18
4.39655e-06
0.0190995
0.103321
0.201164
0.166495
0.0475617
0.00184248
0.000287672
3.48387e-05
3.44361e-06
2.81915e-07
1.90877e-08
1.05881e-09
4.73003e-11
1.90084e-12
1.01813e-13
2.59077e-15
2.60992e-17
5.90221e-18
0.367126
0.546113
0.536815
0.367201
0.0404562
0.00407399
0.0014199
0.00040004
3.79548e-05
2.13407e-06
1.80148e-07
1.2474e-08
7.04643e-10
3.34583e-11
1.52775e-12
1.4609e-13
3.66383e-15
4.25399e-17
1.88208e-18
1
1
1
1
1
1
1
1
0.999999
0.999999
0.999999
1
1
1
1
1
1
1
1
1
1
1
1
0.999999
0.999999
1
1
1
1
1
1
0.999999
0.999999
0.999999
1
1
1
1
1
1
1
1
1
1
1
1
0.999999
0.999999
0.999999
1
1
1
1
1
0.999999
1
1
1
1
1
1
1
1
1
1
1
1
1
1
0.999999
0.999999
1
1
1
1
1
1
1
1
1
1
1
1
1
1
1
1
1
1
1
1
1
0.999999
1
1
1
1
1
1
1
1
1
1
0.999999
1
1
1
1
1
1
1
1
1
1
1
1
1
1
1
1
1
1
1
1
1
1
0.999999
1
1
1
1
1
1
1
1
1
1
1
1
1
1
1
1
1
1
1
1
1
1
0.999999
1
1
1
1
1
1
1
0.999999
0.999999
0.999998
0.999998
1
1
1
1
1
1
1
1
1
1
0.999999
0.999999
0.999999
0.999999
0.999999
0.999999
0.999998
0.999998
0.999997
0.999997
0.999994
0.99999
0.999986
0.999999
0.999999
0.999999
0.999999
0.999999
0.999999
0.999998
0.999998
0.999998
0.999998
0.999997
0.999997
0.999996
0.999995
0.999994
0.999992
0.99999
0.999988
0.999982
0.999979
0.999969
0.99995
0.999927
0.999995
0.999992
0.999993
0.999993
0.999993
0.999992
0.999991
0.99999
0.999989
0.999987
0.999985
0.999982
0.999978
0.999973
0.999967
0.999958
0.999947
0.999935
0.999918
0.999879
0.999837
0.999765
0.999666
0.999972
0.999959
0.999962
0.999962
0.999959
0.999956
0.999952
0.999946
0.99994
0.999931
0.99992
0.999905
0.999887
0.999864
0.999834
0.999795
0.999745
0.999687
0.999613
0.99948
0.999257
0.998988
0.998626
0.999843
0.999787
0.999802
0.999797
0.999786
0.99977
0.999749
0.999723
0.999691
0.999651
0.999599
0.999534
0.999453
0.999351
0.999223
0.999062
0.998857
0.998606
0.9983
0.997829
0.997019
0.996003
0.994797
0.999161
0.998947
0.998999
0.998973
0.998919
0.998846
0.998753
0.998637
0.998493
0.998317
0.998095
0.997819
0.997481
0.997065
0.996556
0.995934
0.995163
0.994216
0.992998
0.99138
0.988615
0.985254
0.98145
0.995703
0.994955
0.995111
0.994975
0.994737
0.99442
0.994022
0.993527
0.992921
0.99219
0.991286
0.990178
0.988848
0.987244
0.982021
0.972723
0.959942
0.94206
0.912879
0.869718
0.795298
0.732277
0.686203
0.884808
0.870264
0.870253
0.864468
0.855539
0.843826
0.829236
0.81133
0.789862
0.764555
0.734196
0.698082
0.656595
0.609335
0.558727
0.502686
0.441598
0.378699
0.311821
0.246675
0.162768
0.105832
0.071872
0.22769
0.211868
0.210433
0.203177
0.192949
0.180612
0.166289
0.150121
0.132508
0.113833
0.0953942
0.0770721
0.059199
0.0424701
0.0270305
0.0162981
0.00742237
0.000199942
4.85955e-09
3.71728e-08
2.44235e-07
1.25699e-06
6.11948e-06
-6.40591e-21
-2.21241e-18
-8.29206e-18
-4.3395e-16
-2.07334e-14
-5.39444e-13
-2.77212e-12
-1.29048e-11
-1.20981e-10
-1.00253e-09
-9.37544e-09
-2.64294e-08
-1.53534e-08
-8.90935e-09
-5.41837e-09
-4.06149e-09
-2.25964e-09
-3.91586e-17
4.10781e-10
4.85955e-09
3.71728e-08
2.44235e-07
2.93197e-06
-2.64236e-20
-2.08305e-18
-2.45929e-17
-1.64545e-15
-8.55165e-14
-2.55032e-12
-1.29574e-11
-5.6637e-11
-5.31811e-10
-4.34293e-09
-2.38452e-08
-6.80144e-08
-3.8776e-08
-2.19447e-08
-1.29449e-08
-9.15339e-09
-3.39672e-09
5.91269e-10
8.02714e-09
3.48243e-08
2.08162e-07
1.56816e-06
1.36732e-05
-4.60362e-22
-4.44062e-20
-3.51002e-18
-1.76802e-16
-6.38448e-15
-1.68915e-13
-3.35895e-12
-5.09505e-11
-5.73027e-10
-4.58498e-09
-2.37648e-08
-6.31662e-08
-3.51492e-08
-1.93356e-08
-1.08838e-08
-5.75092e-09
-9.40419e-11
1.52086e-09
2.1156e-08
1.34952e-07
5.98747e-07
2.18098e-06
1.06692e-05
-1.35959e-26
-5.93916e-25
-1.13265e-23
-8.94111e-23
-2.07953e-21
-1.85323e-20
-2.30861e-20
-1.2326e-34
-3.9443e-33
3.15544e-32
5.04871e-31
-3.02874e-40
-7.12528e-40
2.58494e-28
-2.03001e-33
-1.33059e-17
-8.22347e-16
6.88352e-10
3.86876e-09
1.81502e-08
2.33797e-09
2.71766e-07
1.65435e-07
-3.07593e-26
-1.65213e-24
-4.28194e-23
-7.08206e-22
-8.10767e-21
-6.39959e-20
-2.94376e-19
-3.08149e-35
-3.9443e-33
-1.27476e-29
-8.10088e-26
2.23611e-14
6.0468e-13
2.1695e-12
1.73388e-12
1.36256e-12
8.03481e-12
4.76997e-11
2.28837e-10
8.60468e-10
4.15973e-09
-1.52322e-08
3.30456e-08
-3.33627e-26
-1.9863e-24
-5.69026e-23
-1.05627e-21
-1.41329e-20
-1.43546e-19
-1.13087e-18
-6.90907e-18
-3.17588e-17
-9.89271e-17
-1.18951e-16
6.95342e-32
2.69956e-16
3.96868e-15
3.57573e-14
1.46596e-13
8.69417e-13
4.26769e-12
7.82836e-12
1.15984e-10
4.90933e-10
1.67802e-09
6.02576e-09
-1.60331e-26
-1.01779e-24
-3.14512e-23
-6.29334e-22
-9.12149e-21
-1.01215e-19
-8.84074e-19
-6.14061e-18
-3.37313e-17
-1.42584e-16
-4.3045e-16
-7.16359e-16
-7.37418e-32
4.9883e-17
3.72746e-16
2.26614e-15
-1.13688e-14
-6.45043e-13
3.74843e-13
1.68327e-12
5.99905e-12
-5.10599e-12
-6.4479e-12
-1.54431e-29
-5.65703e-28
-8.32451e-27
-5.38021e-26
-2.87575e-26
-4.49925e-33
-2.71543e-31
-8.93282e-30
-1.98469e-28
1.33265e-21
1.41802e-19
3.59984e-18
7.55197e-18
5.85912e-18
5.06243e-17
1.88509e-16
-8.87874e-16
7.46854e-15
2.47527e-14
5.0104e-14
3.11901e-14
-5.44435e-13
-9.40987e-12
2.73691e-50
6.12515e-67
6.12515e-67
-7.82946e-39
-2.92532e-35
1.19517e-27
2.52927e-26
4.38973e-25
6.46346e-24
8.37571e-23
9.49702e-22
1.26852e-20
1.19919e-19
7.76153e-19
7.12065e-18
4.15545e-17
8.94868e-16
8.91076e-15
3.05389e-14
5.51968e-14
8.49423e-14
1.99058e-13
4.13709e-13
9.21596e-38
1.01839e-35
5.60501e-34
2.05577e-32
5.66141e-31
1.2509e-29
2.30628e-28
3.2003e-28
3.27392e-27
-7.0801e-26
2.07435e-24
7.00142e-23
1.09731e-21
7.95584e-21
7.15328e-20
1.46405e-18
5.35792e-17
8.37483e-16
6.24594e-15
2.42199e-14
8.54089e-14
3.68688e-13
1.07243e-12
0
0
-1.54424e-37
-9.3032e-37
-4.78328e-34
-2.14109e-32
-1.38038e-29
-2.05573e-28
-3.19451e-27
-4.20713e-26
-1.91211e-25
1.15867e-25
1.35224e-24
1.28833e-23
1.21103e-22
3.60329e-21
3.4389e-19
6.38509e-18
5.64123e-17
3.10049e-16
1.67495e-15
8.12853e-15
2.48025e-14
-1.72923e-39
-6.79986e-38
-3.69432e-37
-3.62344e-37
-1.81736e-35
-2.95019e-33
-4.29613e-32
-7.17202e-31
-1.02526e-29
-1.02875e-28
4.82166e-31
5.32593e-30
5.51314e-29
5.48158e-28
7.13623e-27
5.53076e-24
7.21959e-22
1.32005e-20
1.26358e-19
7.84586e-19
4.59601e-18
2.44204e-17
8.08324e-17
-1.2791e-44
0
0
-1.58577e-40
-4.73657e-39
8.64077e-40
1.91005e-38
3.66681e-37
6.16289e-36
8.94656e-35
1.20529e-33
1.46573e-32
1.81019e-31
2.91525e-30
2.66427e-29
5.55034e-28
4.29461e-26
8.27926e-25
1.08885e-23
1.00318e-22
5.64471e-22
7.51891e-22
7.22292e-23
0
1.70007e-49
1.22033e-47
5.8417e-46
2.09559e-44
4.44202e-43
1.47115e-41
3.02781e-40
1.32471e-39
1.99596e-38
-5.69826e-38
-4.41034e-36
1.62907e-34
4.33838e-33
4.34373e-32
1.36644e-30
1.45773e-28
2.85408e-27
4.44126e-26
5.00345e-25
3.28869e-24
4.94108e-24
2.8612e-25
1.39347e-55
2.23007e-53
1.77398e-51
1.93401e-50
-6.66386e-47
8.78718e-47
1.93402e-46
-1.45511e-42
-2.5901e-41
-5.22e-40
-9.49445e-39
-9.99672e-38
9.9962e-38
1.88421e-36
2.24028e-35
8.68207e-34
1.68971e-31
4.78673e-30
9.20351e-29
1.30765e-27
1.02066e-26
1.72701e-26
3.80744e-28
1.19984e-62
2.15744e-60
-4.69844e-54
-3.68529e-51
-9.81467e-52
-1.73611e-49
-7.43275e-47
-1.40751e-45
-3.03417e-44
-5.70083e-43
-8.42578e-42
1.38166e-45
1.20272e-44
-7.17018e-44
-9.13906e-43
4.07311e-39
1.82765e-35
2.28445e-33
5.8734e-32
1.09924e-30
1.04674e-29
2.01021e-29
4.14465e-34
4.52991e-67
-5.64744e-62
-4.27273e-59
2.46939e-61
-2.66351e-57
-1.12578e-54
-2.03455e-53
-4.84774e-52
-1.00124e-50
-1.51487e-49
1.8989e-50
3.58136e-49
6.12561e-48
9.9167e-47
2.40083e-45
3.26289e-44
2.06725e-42
8.56747e-40
4.02615e-38
9.61e-37
9.70114e-36
2.00919e-35
3.58614e-37
-8.96181e-68
-1.81282e-65
9.89136e-67
7.80095e-65
-1.36875e-60
2.14265e-61
8.29418e-60
2.40508e-58
8.14477e-57
1.90607e-55
4.36266e-54
8.48976e-53
1.54891e-51
5.15376e-50
1.13249e-48
1.88759e-47
2.80734e-46
1.49863e-44
5.8244e-42
2.73955e-40
4.74916e-39
1.27155e-38
3.34031e-40
5.97129e-76
3.4674e-74
2.36613e-71
2.17064e-69
1.47999e-67
2.34718e-66
-2.51577e-63
6.33165e-64
-1.91499e-60
-6.60066e-59
-2.30403e-57
-6.59615e-56
-1.07811e-54
6.27097e-54
1.67967e-52
3.24994e-51
5.56017e-50
1.45363e-48
1.64217e-45
2.42809e-43
5.17819e-42
1.51368e-41
-3.81486e-43
9.94928e-81
3.33107e-78
5.474e-76
5.08164e-74
-4.50202e-71
-2.48385e-68
-1.40848e-67
-2.46771e-65
-9.75119e-64
-3.47881e-62
-1.08544e-60
-2.44425e-59
-9.67747e-59
1.11161e-57
2.92301e-56
6.69515e-55
1.45097e-53
2.99159e-52
1.13789e-49
6.4179e-47
1.89058e-45
6.22829e-45
-7.94408e-46
1.64453e-85
6.58957e-83
-3.92126e-80
-1.7734e-76
-7.9372e-74
-7.32805e-73
-8.86689e-71
-4.4876e-69
-1.86032e-67
-6.66771e-66
-1.81456e-64
-1.96511e-63
5.44229e-63
2.37396e-61
7.33511e-60
2.04327e-58
5.38985e-57
1.40448e-55
4.73465e-54
7.3086e-51
7.20413e-49
3.37608e-48
-2.96434e-48
7.92865e-91
-1.39375e-85
-2.69743e-82
-8.4268e-80
-1.23606e-78
-1.08929e-76
-7.69403e-75
-3.9299e-73
-1.67177e-71
-5.29281e-70
-9.85906e-69
1.08658e-68
4.58572e-67
2.46448e-65
9.7743e-64
3.44648e-62
1.15904e-60
4.15229e-59
1.21717e-57
9.31562e-55
3.55175e-52
2.50688e-51
-7.60033e-51
-3.66919e-92
-1.91749e-89
-3.31689e-87
2.97286e-89
5.12744e-87
7.00955e-85
7.95389e-83
5.57339e-81
-7.22122e-79
-1.10806e-76
7.69354e-76
-2.14173e-74
-5.34935e-72
7.41918e-70
4.49459e-68
2.15549e-66
9.79867e-65
5.17819e-63
2.19946e-61
8.4276e-60
4.2894e-57
1.78713e-55
1.66318e-55
6.2409e-106
1.89425e-102
1.38602e-99
5.72702e-97
8.06486e-95
-2.59698e-92
-1.88457e-87
-1.41357e-84
-2.13773e-82
-4.86821e-81
-5.8127e-79
-5.85562e-77
-3.07155e-75
1.49856e-75
1.9329e-73
1.49933e-71
1.10233e-69
8.60327e-68
6.65948e-66
4.2697e-64
2.64682e-62
1.65237e-60
-2.61711e-59
0
-1.6447e-119
5.20093e-115
-4.69827e-103
-5.95426e-100
-8.72826e-96
-7.88177e-93
-1.73087e-90
-6.4968e-89
-1.25776e-86
-1.97216e-84
-1.84097e-82
-1.47911e-81
-5.25157e-86
6.16133e-83
1.5565e-80
3.47283e-78
9.46795e-76
2.04417e-73
5.69746e-71
1.03459e-68
1.92201e-66
-5.45398e-62
0
0
-1.09023e-118
-3.29798e-115
-2.96896e-111
-3.16605e-108
-2.84349e-105
-2.35804e-103
-1.75305e-100
-8.90135e-98
-2.57428e-95
-3.47212e-93
-2.43652e-95
-1.65761e-93
-9.30998e-94
-1.42166e-93
-4.30102e-91
-1.2175e-88
-3.20299e-86
-7.86051e-84
-1.8159e-81
-3.96217e-79
-8.41307e-67
1
0.999982
0.999756
0.999619
1
1
0.999593
0.983378
1
0.999999
0.997703
0.726719
1
0.999984
0.844059
0.261393
1
0.999866
0.441394
0.0311187
0.999998
0.8442
0.133483
0.00769315
0.999986
0.526416
0.0246929
0.00220305
0.99993
0.24396
0.00405429
0.000514865
0.94013
0.0891413
0.000947561
9.88796e-05
0.6574
0.0190878
0.000134072
1.88264e-05
0.407041
0.000898142
2.30377e-05
3.277e-06
0.248388
0.000134499
4.17998e-06
5.78504e-07
0.159431
1.57074e-05
7.3031e-07
1.09272e-07
0.095836
2.3886e-06
1.28964e-07
1.83212e-08
0.0337496
0.00015141
2.0588e-08
3.04233e-09
0.00125109
0.00119631
3.20777e-09
4.86136e-10
6.11948e-06
0.0032524
5.29929e-05
7.82381e-11
0.000233043
0.00399354
0.00025114
1.27561e-11
0.000659438
0.00344982
4.86819e-05
2.05854e-12
0.000328869
0.000866366
2.93878e-12
3.10889e-13
1.30125e-07
2.92946e-05
2.24612e-06
4.08667e-14
5.15413e-08
9.94835e-07
1.29324e-06
3.93711e-15
3.14195e-08
1.07777e-07
-5.10588e-17
2.30893e-16
2.1696e-10
1.22764e-09
2.30868e-16
9.92434e-18
2.90281e-12
1.37298e-12
6.92561e-18
3.48878e-19
2.24166e-12
2.63145e-12
5.82036e-14
6.77838e-20
6.06077e-14
8.67171e-14
1.35232e-16
9.37372e-21
2.14611e-16
3.18445e-16
4.49326e-18
5.63202e-22
9.84129e-20
6.44957e-19
1.02835e-18
1.19977e-22
7.69015e-22
6.34474e-21
1.10095e-20
8.33438e-25
3.26028e-24
3.39063e-23
6.49506e-23
8.52999e-27
4.66034e-27
6.03482e-26
1.27292e-25
4.2095e-29
2.09806e-33
1.41808e-31
1.06893e-30
2.05727e-30
9.86813e-38
1.26867e-34
3.85327e-33
1.52264e-32
2.79899e-41
1.31222e-37
9.44742e-36
8.19269e-35
2.73705e-45
3.32411e-42
5.63266e-39
2.49185e-37
4.21369e-48
8.13121e-46
1.44317e-42
6.22261e-40
1.52625e-50
1.47823e-48
6.20792e-46
1.75551e-42
1.24754e-53
1.73982e-51
8.28199e-49
4.46372e-45
3.45631e-57
9.52165e-55
7.98841e-52
8.06055e-48
-3.02521e-62
2.9949e-59
5.20976e-55
1.014e-50
-1.82918e-66
1.36468e-64
2.45995e-57
1.87907e-54
0.998165
0.943424
0.665701
0.0753113
0.00527533
0.00147497
0.000380896
9.80039e-05
1.23296e-05
8.02324e-07
5.62413e-08
3.94121e-09
2.25348e-10
1.28201e-11
1.65586e-12
8.01057e-14
1.66384e-15
2.2377e-17
4.64435e-19
0.782614
0.212188
0.0188547
0.00542539
0.00131046
0.00118453
0.00018617
1.25894e-05
1.60188e-06
1.66649e-07
1.42275e-08
9.9859e-10
6.52359e-11
4.31326e-12
5.8988e-13
1.9793e-14
3.88365e-16
5.31092e-18
9.91679e-20
0.182648
0.018966
0.00539273
0.0013553
0.000403518
0.000154473
3.70077e-05
3.80965e-06
4.01231e-07
3.89609e-08
3.14416e-09
2.51593e-10
1.91173e-11
3.08689e-12
1.68533e-13
4.65183e-15
9.93906e-17
1.39214e-18
1.96155e-20
0.0207518
0.00603701
0.00157134
0.00037855
8.10442e-05
1.58399e-05
4.49755e-06
7.69429e-07
8.35353e-08
8.06347e-09
7.15929e-10
6.20246e-11
1.15732e-11
1.01866e-12
3.53202e-14
1.02171e-15
2.20783e-17
3.13251e-19
3.48126e-21
0.00638983
0.00184054
0.000461965
8.60911e-05
1.66541e-05
3.47782e-06
8.31689e-07
1.39901e-07
1.58289e-08
1.61073e-09
1.62574e-10
3.1298e-11
3.88452e-12
1.86694e-13
6.83227e-15
2.00334e-16
4.32779e-18
6.16941e-20
5.65369e-22
0.0018146
0.000487651
9.81795e-05
1.78663e-05
3.34886e-06
6.79451e-07
1.5334e-07
2.45673e-08
2.90156e-09
3.41921e-10
6.40849e-11
1.12296e-11
7.44351e-13
3.31108e-14
1.2361e-15
3.60004e-17
7.73485e-19
1.10204e-20
8.49173e-23
0.000474438
9.96503e-05
1.91183e-05
3.43206e-06
6.37113e-07
1.22788e-07
2.65143e-08
4.24192e-09
5.8423e-10
1.0133e-10
2.48474e-11
2.30479e-12
1.22719e-13
5.61908e-15
2.07496e-16
5.96974e-18
1.271e-19
1.80149e-21
1.28867e-23
9.46959e-05
1.87865e-05
3.73275e-06
6.43912e-07
1.1689e-07
2.13751e-08
4.6028e-09
8.22399e-10
1.41912e-10
4.37883e-11
5.59678e-12
3.59035e-13
1.97371e-14
8.92538e-16
3.23821e-17
9.17966e-19
1.93171e-20
2.71526e-22
1.92334e-24
1.86114e-05
3.73198e-06
7.22497e-07
1.18624e-07
2.06648e-08
3.84557e-09
9.18376e-10
1.85869e-10
6.37039e-11
1.09527e-11
8.50443e-13
5.53001e-14
2.99716e-15
1.32461e-16
4.71131e-18
1.31365e-19
2.72756e-21
3.79523e-23
2.66773e-25
3.4464e-06
6.95761e-07
1.33143e-07
2.11534e-08
3.62834e-09
8.0601e-10
2.12206e-10
7.78158e-11
1.71825e-11
1.65288e-12
1.26426e-13
8.09827e-15
4.26651e-16
1.83897e-17
6.40473e-19
1.75464e-20
3.59113e-22
4.94148e-24
3.43652e-26
6.043e-07
1.21867e-07
2.34963e-08
3.70992e-09
7.3952e-10
2.02391e-10
8.33979e-11
2.19075e-11
2.65278e-12
2.38916e-13
1.79638e-14
1.11321e-15
5.69007e-17
2.39104e-18
8.15036e-20
2.193e-21
4.42269e-23
6.01632e-25
4.14254e-27
9.95405e-08
2.00832e-08
4.03465e-09
7.06907e-10
1.99845e-10
8.21241e-11
2.41172e-11
3.59193e-12
3.7724e-13
3.31342e-14
2.39737e-15
1.43369e-16
7.11304e-18
2.91456e-19
9.72529e-21
2.57059e-22
5.1097e-24
6.87336e-26
4.68699e-28
1.74186e-08
3.33122e-09
6.95082e-10
1.91327e-10
7.80349e-11
2.39779e-11
4.22559e-12
5.14174e-13
5.1793e-14
4.32156e-15
2.99274e-16
1.72988e-17
8.33974e-19
3.33452e-20
1.08999e-21
2.83238e-23
5.55338e-25
7.39235e-27
4.99331e-29
2.92504e-09
5.7474e-10
1.81686e-10
7.03847e-11
2.25232e-11
4.30489e-12
6.18467e-13
7.17688e-14
6.80407e-15
5.33191e-16
3.50914e-17
1.95637e-18
9.17178e-20
3.58473e-21
1.14956e-22
2.94031e-24
5.69316e-26
7.508e-28
5.02623e-30
4.85699e-10
1.43535e-10
6.34005e-11
2.09349e-11
4.12213e-12
6.48468e-13
8.74831e-14
9.57552e-15
8.54163e-16
6.32138e-17
3.94236e-18
2.09511e-19
9.50734e-21
3.62614e-22
1.14203e-23
2.88129e-25
5.51947e-27
7.22308e-29
4.79537e-31
7.82361e-11
5.07126e-11
1.92397e-11
3.95676e-12
6.30882e-13
9.30813e-14
1.18147e-14
1.21564e-15
1.0259e-16
7.22518e-18
4.29986e-19
2.18535e-20
9.50254e-22
3.50024e-23
1.07818e-24
2.67955e-26
5.0754e-28
6.59426e-30
4.34303e-32
1.26851e-11
1.86176e-11
4.00057e-12
6.07437e-13
9.14338e-14
1.26891e-14
1.51087e-15
1.46986e-16
1.18145e-17
7.9626e-19
4.5497e-20
2.22705e-21
9.34116e-23
3.33062e-24
9.9611e-26
2.41796e-27
4.50363e-29
5.7931e-31
3.78906e-33
2.05706e-12
5.07404e-12
6.78211e-13
8.82386e-14
1.24678e-14
1.62566e-15
1.82621e-16
1.69261e-17
1.30437e-18
8.46116e-20
4.66732e-21
2.21187e-22
9.00642e-24
3.12735e-25
9.13261e-27
2.17284e-28
3.98843e-30
5.08172e-32
3.29849e-34
3.10889e-13
9.2747e-13
1.0372e-13
1.18617e-14
1.57926e-15
1.94794e-16
2.08339e-17
1.85364e-18
1.3785e-19
8.65987e-21
4.63813e-22
2.13848e-23
8.49096e-25
2.88356e-26
8.26077e-28
1.93484e-29
3.51145e-31
4.44443e-33
2.86484e-35
4.14158e-14
1.10874e-13
1.34227e-14
1.44833e-15
1.84223e-16
2.17615e-17
2.23867e-18
1.92744e-19
1.39273e-20
8.52486e-22
4.45674e-23
2.00952e-24
7.81569e-26
2.60613e-27
7.34842e-29
1.69892e-30
3.05442e-32
3.8485e-34
2.4628e-36
4.68686e-15
7.73374e-15
1.45518e-15
1.5872e-16
1.96746e-17
2.25875e-18
2.26023e-19
1.89957e-20
1.34334e-21
8.0604e-23
4.13583e-24
1.83259e-25
7.01215e-27
2.30447e-28
6.41591e-30
1.46818e-31
2.61985e-33
3.29173e-35
2.08974e-37
4.42427e-16
6.22947e-16
1.39099e-16
1.54825e-17
1.91512e-18
2.17157e-19
2.13944e-20
1.7716e-21
1.23542e-22
7.31293e-24
3.70307e-25
1.62014e-26
6.12474e-28
1.99075e-29
5.48934e-31
1.24629e-32
2.21149e-34
2.77586e-36
1.74688e-38
3.71502e-17
1.05755e-16
1.16185e-17
1.33916e-18
1.69447e-19
1.92976e-20
1.89566e-21
1.56177e-22
1.08232e-23
6.36139e-25
3.19648e-26
1.38737e-27
5.20278e-29
1.67836e-30
4.59684e-32
1.03785e-33
1.83448e-35
2.3041e-37
1.43629e-39
6.8774e-18
9.72381e-18
8.20451e-19
1.02714e-19
1.36156e-20
1.58365e-21
1.57101e-22
1.3005e-23
9.02743e-25
5.30282e-26
2.65856e-27
1.15006e-28
4.29531e-30
1.37986e-31
3.76422e-33
8.46982e-35
1.49371e-36
1.88012e-38
1.16012e-40
3.80765e-19
4.40442e-19
4.63639e-20
7.00736e-21
9.94243e-22
1.20035e-22
1.21765e-23
1.02279e-24
7.16744e-26
4.23504e-27
2.12994e-28
9.22538e-30
3.44481e-31
1.10561e-32
3.01208e-34
6.7685e-36
1.19279e-37
1.5066e-39
9.19664e-42
5.59513e-20
2.53212e-20
2.4009e-21
4.25763e-22
6.61263e-23
8.41348e-24
8.83286e-25
7.60023e-26
5.41828e-27
3.24081e-28
1.64373e-29
7.16018e-31
2.68315e-32
8.63047e-34
2.35411e-35
5.29347e-37
9.33511e-39
1.18461e-40
7.15015e-43
2.66086e-21
1.25075e-21
1.15848e-22
2.32349e-23
4.02116e-24
5.46581e-25
6.0053e-26
5.34131e-27
3.90258e-28
2.37738e-29
1.22227e-30
5.3778e-32
2.02972e-33
6.56264e-35
1.79661e-36
4.05013e-38
7.15713e-40
9.1339e-42
5.44942e-44
1.29297e-22
4.60332e-23
5.13593e-24
1.15626e-24
2.24739e-25
3.30175e-26
3.83483e-27
3.5555e-28
2.68109e-29
1.67321e-30
8.7627e-32
3.91033e-33
1.49162e-34
4.86174e-36
1.33889e-37
3.0313e-39
5.37443e-41
6.90357e-43
4.0703e-45
5.41783e-24
1.47108e-24
2.11961e-25
5.36215e-26
1.16274e-26
1.86192e-27
2.30626e-28
2.24617e-29
1.75952e-30
1.13115e-31
6.06244e-33
2.75462e-34
1.06547e-35
3.51026e-37
9.74563e-39
2.2196e-40
3.95285e-42
5.11418e-44
2.97949e-46
1.77873e-25
4.59112e-26
8.19203e-27
2.32302e-27
5.60941e-28
9.84549e-29
1.31037e-29
1.34994e-30
1.10515e-31
7.35643e-33
4.05257e-34
1.88184e-35
7.40355e-37
2.4717e-38
6.932e-40
1.59062e-41
2.84833e-43
3.71376e-45
2.13795e-47
4.56805e-27
1.39715e-27
2.95068e-28
9.38315e-29
2.53881e-29
4.90444e-30
7.05844e-31
7.73925e-32
6.65815e-33
4.61094e-34
2.62153e-35
1.24835e-36
5.00973e-38
1.69883e-39
4.82181e-41
1.11627e-42
2.01184e-44
2.64451e-46
1.50451e-48
9.16386e-29
3.53318e-29
9.85595e-30
3.54542e-30
1.08358e-30
2.31188e-31
3.61775e-32
4.24536e-33
3.85743e-34
2.7914e-35
1.64404e-36
8.05381e-38
3.30556e-39
1.14101e-40
3.28315e-42
7.67813e-44
1.39394e-45
1.84772e-47
1.03907e-49
1.24632e-30
8.06627e-31
3.30957e-31
1.27826e-31
4.37358e-32
1.03549e-32
1.77093e-33
2.23549e-34
2.15515e-35
1.63615e-36
1.00167e-37
5.06254e-39
2.1302e-40
7.4994e-42
2.19095e-43
5.18198e-45
9.48349e-47
1.26781e-48
7.04938e-51
1.81544e-32
1.55406e-32
1.06685e-32
4.33505e-33
1.67231e-33
4.42294e-34
8.31044e-35
1.13391e-35
1.16474e-36
9.31047e-38
5.94317e-39
3.10704e-40
1.3432e-41
4.83128e-43
1.43505e-44
3.43607e-46
6.34295e-48
8.55195e-50
4.70347e-52
2.03915e-34
2.97774e-34
2.62257e-34
1.37715e-34
6.07287e-35
1.80751e-35
3.75281e-36
5.5606e-37
6.10948e-38
5.15892e-39
3.44303e-40
1.86616e-41
8.30432e-43
3.05637e-44
9.24103e-46
2.24193e-47
4.17668e-49
5.67852e-51
3.09061e-53
2.09818e-36
5.13089e-36
5.60348e-36
4.03899e-36
2.09797e-36
7.0899e-37
1.63722e-37
2.64659e-38
3.12145e-39
2.79246e-40
1.95319e-41
1.09975e-42
5.04561e-44
1.90264e-45
5.86158e-47
1.44188e-48
2.71203e-50
3.71721e-52
2.00314e-54
1.59207e-38
7.60232e-38
1.06731e-37
1.08909e-37
6.90273e-38
2.67859e-38
6.92922e-39
1.22765e-39
1.55941e-40
1.48172e-41
1.08839e-42
6.37659e-44
3.02035e-45
1.16816e-46
3.66986e-48
9.15832e-50
1.73966e-51
2.40299e-53
1.28288e-55
8.56418e-41
8.84055e-40
1.98554e-39
2.62013e-39
2.16583e-39
9.78616e-40
2.85799e-40
5.5747e-41
7.64892e-42
7.73595e-43
5.97728e-44
3.64869e-45
1.78609e-46
7.09088e-48
2.273e-49
5.75693e-51
1.1046e-52
1.53691e-54
8.13399e-57
3.51485e-43
8.46989e-42
3.29148e-41
5.93441e-41
6.40189e-41
3.47395e-41
1.1545e-41
2.49001e-42
3.69983e-43
3.98971e-44
3.24669e-45
2.06687e-46
1.04639e-47
4.26659e-49
1.39605e-50
3.58939e-52
6.95713e-54
9.74514e-56
5.11679e-58
8.81056e-46
6.17353e-44
4.72712e-43
1.29075e-42
1.79511e-42
1.20514e-42
4.59366e-43
1.09978e-43
1.7732e-44
2.04112e-45
1.75068e-46
1.16293e-47
6.09148e-49
2.55165e-50
8.5239e-52
2.22497e-53
4.35625e-55
6.13905e-57
3.03587e-59
1.15171e-48
3.24092e-46
5.77845e-45
2.60969e-44
4.46473e-44
3.60556e-44
1.68358e-44
4.63811e-45
8.28925e-46
1.03255e-46
9.41464e-48
6.53691e-49
3.5431e-50
1.52484e-51
5.20044e-53
1.37805e-54
2.72511e-56
3.86084e-58
1.77004e-60
3.87729e-53
7.15296e-49
3.69675e-47
7.4949e-46
4.13427e-45
5.00538e-45
1.45412e-45
2.75299e-46
3.62604e-47
3.50768e-48
2.64735e-49
1.83259e-50
1.02941e-51
4.55815e-53
1.58921e-54
4.28043e-56
8.55957e-58
1.22052e-59
1.77004e-60
)
;

boundaryField
{
    leftWall
    {
        type            zeroGradient;
    }
    rightWall
    {
        type            zeroGradient;
    }
    lowerWall
    {
        type            zeroGradient;
    }
    atmosphere
    {
        type            inletOutlet;
        inletValue      uniform 0;
        value           nonuniform List<scalar> 
46
(
0
0
0
0
0
0
0
0
0
0
0
0
0
0
0
0
0
0
0
0
0
0
0
0
0
0
0
0
7.15296e-49
3.69675e-47
7.4949e-46
4.13427e-45
5.00538e-45
1.45412e-45
2.75299e-46
3.62604e-47
3.50768e-48
2.64735e-49
1.83259e-50
1.02941e-51
4.55815e-53
1.58921e-54
4.28043e-56
8.55957e-58
1.22052e-59
1.77004e-60
)
;
    }
    defaultFaces
    {
        type            empty;
    }
}


// ************************************************************************* //
