/*--------------------------------*- C++ -*----------------------------------*\
| =========                 |                                                 |
| \\      /  F ield         | OpenFOAM: The Open Source CFD Toolbox           |
|  \\    /   O peration     | Version:  2206                                  |
|   \\  /    A nd           | Website:  www.openfoam.com                      |
|    \\/     M anipulation  |                                                 |
\*---------------------------------------------------------------------------*/
FoamFile
{
    version     2.0;
    format      ascii;
    arch        "LSB;label=32;scalar=64";
    class       volScalarField;
    location    "0.125";
    object      p;
}
// * * * * * * * * * * * * * * * * * * * * * * * * * * * * * * * * * * * * * //

dimensions      [1 -1 -2 0 0 0 0];

internalField   nonuniform List<scalar> 
2268
(
2420.96
2420.82
2420.01
2418.68
2416.98
2414.92
2412.54
2409.9
2407.08
2404.15
2401.24
2398.46
2395.96
2393.93
2392.55
2391.87
2391.94
2392.76
2394.28
2396.28
2398.38
2400.16
2401.19
2361.92
2361.78
2360.97
2359.64
2357.93
2355.86
2353.47
2350.81
2347.96
2345
2342.04
2339.19
2336.58
2334.35
2332.61
2331.59
2331.42
2332.15
2333.73
2335.95
2338.46
2340.72
2342.1
2302.68
2302.56
2301.74
2300.4
2298.68
2296.59
2294.17
2291.48
2288.58
2285.55
2282.49
2279.51
2276.73
2274.3
2272.36
2271.04
2270.49
2270.77
2271.87
2273.71
2276.01
2278.23
2279.67
2243.23
2243.14
2242.31
2240.96
2239.21
2237.09
2234.63
2231.88
2228.9
2225.77
2222.56
2219.39
2216.37
2213.63
2211.3
2209.51
2208.41
2208.06
2208.46
2209.53
2211.03
2212.56
2213.6
2183.57
2183.5
2182.66
2181.29
2179.51
2177.36
2174.84
2172.01
2168.92
2165.63
2162.23
2158.8
2155.44
2152.26
2149.37
2146.91
2144.96
2143.61
2142.86
2142.61
2142.66
2142.64
2142.51
2123.67
2123.63
2122.78
2121.37
2119.56
2117.34
2114.75
2111.81
2108.58
2105.1
2101.44
2097.67
2093.87
2090.11
2086.5
2083.09
2079.95
2077.09
2074.47
2071.94
2069.26
2066.13
2062.63
2063.5
2063.5
2062.63
2061.19
2059.32
2057.03
2054.34
2051.27
2047.85
2044.13
2040.16
2035.97
2031.61
2027.14
2022.58
2017.93
2013.15
2008.11
2002.57
1996.05
1987.71
1976.17
1960.54
2003.07
2003.09
2002.2
2000.71
1998.79
1996.41
1993.6
1990.38
1986.75
1982.75
1978.4
1973.72
1968.71
1963.37
1957.66
1951.47
1944.58
1936.61
1926.9
1914.51
1897.06
1873.49
1817.42
-0.135495
-0.323959
-0.633193
-0.473323
0.809294
2.57379
3.02363
2.51427
2.01381
1.70572
1.48688
1.32532
1.20739
1.12023
1.05567
1.00849
0.975361
0.954247
0.943989
-0.189151
-0.383015
-0.745597
-0.669449
0.609855
2.50641
3.01376
2.4482
1.93756
1.63644
1.42089
1.26149
1.14501
1.05878
0.994808
0.94798
0.915083
0.894111
0.88392
-0.252101
-0.452367
-0.892886
-0.998556
0.259297
2.42737
3.05243
2.37703
1.84491
1.55388
1.34518
1.19109
1.07812
0.994089
0.931493
0.885519
0.853154
0.8325
0.822455
-0.32259
-0.517208
-1.02976
-1.28838
-0.157772
2.25701
3.04134
2.26874
1.73478
1.45741
1.26027
1.11474
1.00714
0.926422
0.865889
0.821206
0.789645
0.769471
0.759649
-0.393205
-0.56762
-1.08568
-1.42397
-0.367955
1.53936
2.5811
1.99011
1.59456
1.346
1.16654
1.03296
0.932412
0.855984
0.79812
0.755123
0.724618
0.705069
0.69554
-0.458487
-0.581931
-1.02908
-0.898814
-1.35648
-0.109888
1.10459
1.45998
1.40321
1.21753
1.0647
0.946266
0.854245
0.782957
0.728298
0.68734
0.658122
0.639336
0.630161
-0.523465
-1.13933
-2.92717
-2.43026
-0.190173
-0.486732
0.0718288
0.965893
1.18218
1.07588
0.95655
0.855431
0.773039
0.707568
0.656563
0.617946
0.590219
0.572318
0.563556
-11.4786
-16.3839
-5.81177
-2.05003
-0.951749
-0.637399
-0.0775074
0.690698
0.972974
0.930205
0.844638
0.761377
0.689257
0.630077
0.583074
0.547049
0.520982
0.504073
0.495775
1908.13
1908.15
1907.23
1905.66
1903.61
1901.07
1898.04
1894.51
1890.48
1885.95
1880.9
1875.3
1869.07
1862.12
1854.23
1845.07
1834.04
1820.04
1800.65
1771.85
1721.31
1631.16
1418.08
1777.52
1777.52
1776.49
1774.75
1772.45
1769.58
1766.1
1761.98
1757.2
1751.69
1745.37
1738.13
1729.8
1720.11
1708.67
1694.87
1677.76
1655.87
1626.99
1587.48
1532.49
1456.97
1362.96
1645.38
1645.32
1644.13
1642.18
1639.59
1636.32
1632.31
1627.53
1621.89
1615.31
1607.66
1598.76
1588.38
1576.21
1561.81
1544.59
1523.75
1498.22
1466.68
1427.27
1378.05
1315.47
1238.99
1511.77
1511.59
1510.22
1508.03
1505.13
1501.42
1496.86
1491.37
1484.85
1477.19
1468.23
1457.76
1445.52
1431.18
1414.32
1394.38
1370.7
1342.41
1308.51
1267.7
1218.73
1159.93
1090.7
1376.95
1376.62
1375.05
1372.64
1369.43
1365.31
1360.22
1354.06
1346.74
1338.1
1327.97
1316.14
1302.33
1286.22
1267.41
1245.4
1219.63
1189.42
1154.01
1112.46
1064.11
1007.64
942.868
1241.36
1240.83
1239.09
1236.5
1233.03
1228.57
1223.03
1216.33
1208.34
1198.9
1187.85
1174.94
1159.91
1142.45
1122.16
1098.62
1071.29
1039.6
1002.9
960.408
911.674
855.055
791.6
1105.49
1104.77
1102.89
1100.18
1096.52
1091.81
1085.95
1078.87
1070.42
1060.44
1048.75
1035.11
1019.26
1000.88
979.605
955
926.568
893.778
855.978
812.496
762.872
705.271
642.247
969.921
969.005
967.047
964.257
960.48
955.612
949.583
942.29
933.6
923.352
911.35
897.366
881.128
862.318
840.563
815.433
786.414
752.963
714.355
669.975
619.064
560.071
496.164
835.139
834.044
832.051
829.234
825.414
820.504
814.438
807.119
798.419
788.181
776.213
762.291
746.148
727.468
705.881
680.947
652.132
618.855
580.272
535.741
483.885
423.679
356.317
701.378
700.151
698.211
695.458
691.713
686.905
680.974
673.836
665.376
655.452
643.891
630.484
614.984
597.099
576.479
552.709
525.272
493.585
456.762
414.159
363.794
305.473
236.221
569.162
567.862
566.073
563.483
559.931
555.364
549.732
542.968
534.981
525.651
514.835
502.358
488.014
471.557
452.691
431.064
406.235
377.702
344.698
306.705
261.647
210.685
147.759
439.315
437.814
436.167
433.758
430.433
426.171
420.938
414.682
407.334
398.802
388.975
377.719
364.879
350.27
333.678
314.854
293.468
269.173
241.434
209.918
173.085
133.05
83.0049
311.399
309.418
307.776
305.504
302.402
298.477
293.703
288.043
281.453
273.88
265.258
255.512
244.556
232.276
218.542
203.259
186.266
167.416
146.392
123.121
96.96
69.741
36.2567
185.835
184.307
183.083
181.012
178.274
174.83
170.686
165.837
160.272
153.973
146.906
139.071
130.478
121.115
110.999
100.198
88.7316
76.6907
64.094
51.347
38.4517
26.7867
12.7102
73.7443
72.4503
71.8001
70.4096
68.6196
66.4007
63.7773
60.7769
57.4354
53.7755
49.7726
45.4503
40.9299
36.2777
31.6163
27.1036
22.7539
18.5311
14.6256
10.8906
6.44593
2.85077
0.507277
11.2397
10.2452
10.1435
9.70217
9.05542
8.27943
7.37895
6.36268
5.25457
4.07458
2.91312
1.7608
0.623748
-0.446857
-1.43069
-2.17329
-2.77882
-3.24305
-3.44365
-3.62701
-3.70842
-3.73461
-3.75123
-3.14994
-3.14445
-3.14642
-3.14919
-3.15323
-3.1582
-3.1645
-3.17231
-3.18198
-3.19418
-3.20858
-3.22548
-3.24694
-3.27341
-3.30608
-3.34809
-3.3976
-3.45533
-3.53055
-3.61653
-3.70712
-3.79722
-3.87071
-3.27543
-3.27524
-3.27889
-3.27996
-3.2835
-3.28857
-3.29535
-3.30383
-3.31402
-3.32605
-3.34024
-3.3571
-3.37675
-3.40041
-3.42872
-3.46265
-3.50293
-3.55077
-3.60881
-3.68346
-3.78133
-3.90537
-4.04552
-3.38255
-3.38345
-3.38567
-3.38785
-3.39104
-3.39547
-3.40118
-3.40826
-3.41676
-3.42671
-3.43828
-3.45187
-3.46786
-3.48682
-3.50939
-3.53618
-3.56735
-3.60454
-3.65282
-3.72042
-3.8168
-3.95385
-4.13581
-3.47729
-3.47701
-3.47825
-3.48094
-3.48435
-3.48853
-3.49348
-3.49929
-3.50608
-3.51393
-3.52291
-3.53312
-3.54473
-3.55804
-3.57351
-3.59143
-3.61217
-3.63742
-3.67116
-3.71751
-3.78359
-3.89034
-4.05526
-3.56278
-3.56359
-3.56516
-3.56754
-3.57052
-3.57404
-3.57815
-3.58288
-3.58826
-3.59429
-3.60093
-3.60815
-3.61595
-3.62446
-3.63389
-3.64433
-3.65606
-3.67018
-3.68804
-3.70914
-3.73423
-3.78085
-3.87859
-3.64432
-3.64602
-3.64797
-3.64989
-3.65211
-3.65471
-3.65781
-3.66142
-3.66553
-3.67009
-3.675
-3.68015
-3.68546
-3.69089
-3.69647
-3.70225
-3.70844
-3.71562
-3.72387
-3.73133
-3.73761
-3.75435
-3.79911
-3.72586
-3.72681
-3.72806
-3.7294
-3.73101
-3.73299
-3.73536
-3.73812
-3.74124
-3.74465
-3.74826
-3.75194
-3.75553
-3.75894
-3.76204
-3.76478
-3.76728
-3.76976
-3.77193
-3.77241
-3.77129
-3.77542
-3.79236
-3.80479
-3.80487
-3.80529
-3.80615
-3.80742
-3.80909
-3.81105
-3.81328
-3.8157
-3.81824
-3.82081
-3.82331
-3.82558
-3.82749
-3.82886
-3.82958
-3.82966
-3.82917
-3.8278
-3.82472
-3.8203
-3.81858
-3.82258
-3.87936
-3.87911
-3.87918
-3.87978
-3.88079
-3.88209
-3.8836
-3.88525
-3.88697
-3.8887
-3.89035
-3.89182
-3.89302
-3.8938
-3.89405
-3.89362
-3.89246
-3.89059
-3.8878
-3.88366
-3.87851
-3.87462
-3.87333
-3.95466
-3.9543
-3.95423
-3.95458
-3.95516
-3.95588
-3.95671
-3.95759
-3.95846
-3.95929
-3.96004
-3.96063
-3.96099
-3.96103
-3.96065
-3.95978
-3.95836
-3.95639
-3.95376
-3.95024
-3.94609
-3.94261
-3.94032
-4.03616
-4.03584
-4.03568
-4.03567
-4.0357
-4.03574
-4.03579
-4.03584
-4.03587
-4.03583
-4.03573
-4.03555
-4.03523
-4.03474
-4.03403
-4.03303
-4.03175
-4.03016
-4.02821
-4.02577
-4.023
-4.02063
-4.01875
-4.12569
-4.12545
-4.12518
-4.12484
-4.12439
-4.1239
-4.12334
-4.12273
-4.12209
-4.1214
-4.12067
-4.11988
-4.11903
-4.11812
-4.11715
-4.11609
-4.11493
-4.11368
-4.1123
-4.11072
-4.10904
-4.10768
-4.10649
-4.22277
-4.22254
-4.22214
-4.22156
-4.22085
-4.22002
-4.21909
-4.21809
-4.21702
-4.21591
-4.21477
-4.2136
-4.2124
-4.21119
-4.20999
-4.2088
-4.20763
-4.20649
-4.20537
-4.20423
-4.20314
-4.20234
-4.20159
-4.32551
-4.32526
-4.32479
-4.32414
-4.32335
-4.32239
-4.32132
-4.32015
-4.31888
-4.31754
-4.31616
-4.31476
-4.31334
-4.31193
-4.31055
-4.30921
-4.30793
-4.30675
-4.30565
-4.30463
-4.30373
-4.30309
-4.3025
-4.43212
-4.43186
-4.43142
-4.4308
-4.43001
-4.42907
-4.42799
-4.42678
-4.42547
-4.42406
-4.42259
-4.42108
-4.41955
-4.41802
-4.41652
-4.41508
-4.4137
-4.41242
-4.41125
-4.41018
-4.40924
-4.40853
-4.40786
-4.54146
-4.54126
-4.54088
-4.54033
-4.53958
-4.53869
-4.53764
-4.53646
-4.53517
-4.53379
-4.53234
-4.53083
-4.52929
-4.52773
-4.52619
-4.52468
-4.52323
-4.52185
-4.52057
-4.51939
-4.51832
-4.51743
-4.5166
-4.65283
-4.65269
-4.65236
-4.65184
-4.65117
-4.65033
-4.64935
-4.64824
-4.64702
-4.64571
-4.64432
-4.64287
-4.64137
-4.63984
-4.6383
-4.63678
-4.63528
-4.63383
-4.63246
-4.63116
-4.62995
-4.62887
-4.62786
-4.76578
-4.76566
-4.76534
-4.76484
-4.76423
-4.76345
-4.76255
-4.76154
-4.76041
-4.75918
-4.75786
-4.75647
-4.75503
-4.75355
-4.75204
-4.75053
-4.74902
-4.74755
-4.74612
-4.74474
-4.74342
-4.74219
-4.74103
-4.87981
-4.87967
-4.87936
-4.87892
-4.87836
-4.87766
-4.87683
-4.8759
-4.87486
-4.87371
-4.87248
-4.87117
-4.86979
-4.86837
-4.86692
-4.86544
-4.86395
-4.86247
-4.86102
-4.85961
-4.85823
-4.85691
-4.85565
-4.99469
-4.99454
-4.99427
-4.99388
-4.99336
-4.99272
-4.99197
-4.9911
-4.99013
-4.98906
-4.98791
-4.98668
-4.98539
-4.98405
-4.98265
-4.98123
-4.97978
-4.97834
-4.9769
-4.97548
-4.97409
-4.97273
-4.97143
-5.1103
-5.11016
-5.10993
-5.10958
-5.10911
-5.10852
-5.10783
-5.10703
-5.10613
-5.10514
-5.10407
-5.10292
-5.1017
-5.10043
-5.09911
-5.09775
-5.09636
-5.09497
-5.09357
-5.09218
-5.0908
-5.08945
-5.08813
-5.22656
-5.22645
-5.22623
-5.22591
-5.22549
-5.22495
-5.2243
-5.22356
-5.22273
-5.22181
-5.22081
-5.21974
-5.21859
-5.21739
-5.21614
-5.21485
-5.21354
-5.2122
-5.21086
-5.20952
-5.20818
-5.20686
-5.20555
-5.34361
-5.34353
-5.34332
-5.34302
-5.34262
-5.34211
-5.3415
-5.3408
-5.34001
-5.33914
-5.33819
-5.33717
-5.33609
-5.33496
-5.33378
-5.33256
-5.3313
-5.33002
-5.32873
-5.32743
-5.32614
-5.32486
-5.32358
-5.46162
-5.46157
-5.46139
-5.46111
-5.46072
-5.46024
-5.45967
-5.45901
-5.45825
-5.4574
-5.45649
-5.4555
-5.45446
-5.45336
-5.45222
-5.45103
-5.44981
-5.44856
-5.4473
-5.44604
-5.44477
-5.44352
-5.44228
-5.57998
-5.57995
-5.57981
-5.57958
-5.57924
-5.57881
-5.57828
-5.57765
-5.57693
-5.57612
-5.57523
-5.57429
-5.57328
-5.57221
-5.5711
-5.56995
-5.56876
-5.56755
-5.56633
-5.5651
-5.56387
-5.56265
-5.56144
-5.69759
-5.69784
-5.6978
-5.69764
-5.69735
-5.69695
-5.69645
-5.69586
-5.69519
-5.69443
-5.6936
-5.69271
-5.69176
-5.69075
-5.6897
-5.68861
-5.68748
-5.68634
-5.68519
-5.68403
-5.68287
-5.68172
-5.68059
720.183
919.096
845.099
430.869
1076.63
862.748
665.384
311.767
1013.95
709.334
437.448
148.023
913.512
587.259
243.871
42.8378
780.098
419.046
88.4513
8.65668
628.218
236.434
25.0803
0.416824
471.8
90.5933
5.57252
-1.75555
316.628
25.6405
-0.373257
-2.42032
165.842
6.73945
-1.95486
-2.57331
52.5781
-0.0721206
-2.8156
-2.58613
8.42808
-2.1021
-3.05347
-2.65565
-0.981854
-2.90523
-3.07896
-2.74124
-3.16571
-3.26502
-3.05202
-2.82135
-2.94931
-3.10632
-3.02952
-2.90117
-3.17091
-3.03089
-3.03551
-2.98425
-3.8121
-3.30056
-3.17134
-3.08636
-4.06172
-3.7564
-3.34574
-3.20511
-4.34397
-4.19406
-3.55884
-3.32728
-4.51948
-4.50941
-3.74029
-3.43523
-4.42511
-4.41413
-3.80053
-3.50866
-4.13148
-4.10745
-3.75326
-3.54634
-3.90764
-3.83743
-3.67555
-3.57817
-3.82693
-3.76813
-3.67866
-3.62894
-3.827
-3.78699
-3.73555
-3.69782
-3.86743
-3.83903
-3.80801
-3.77763
-3.93266
-3.91115
-3.8893
-3.86493
-4.01244
-3.99596
-3.97878
-3.95851
-4.1019
-4.08884
-4.07458
-4.05738
-4.19829
-4.18753
-4.17527
-4.16052
-4.29985
-4.29064
-4.27989
-4.26709
-4.4054
-4.39724
-4.38767
-4.37643
-4.51406
-4.50663
-4.498
-4.48805
-4.62516
-4.61826
-4.61042
-4.60156
-4.73816
-4.7317
-4.72454
-4.71664
-4.85268
-4.84661
-4.84006
-4.83303
-4.9684
-4.9627
-4.95673
-4.95049
-5.08511
-5.07977
-5.07434
-5.06884
-5.20258
-5.19763
-5.19274
-5.18795
-5.32072
-5.31615
-5.31178
-5.30767
-5.43951
-5.43527
-5.43139
-5.42792
-5.55877
-5.55487
-5.55145
-5.54861
-5.67811
-5.67463
-5.67175
-5.66959
16.1934
-3.54347
19.3304
2.90848
0.123231
-0.153036
-0.0299087
0.430531
0.680678
0.706778
0.667205
0.610822
0.555027
0.506103
0.465732
0.434059
0.410801
0.395578
0.388073
48.367
-0.951452
-1.92831
0.022866
0.0475566
-0.0766347
-0.0837784
0.189885
0.372701
0.431639
0.430068
0.402367
0.366667
0.331469
0.30046
0.275138
0.256066
0.24339
0.237095
15.3977
-1.78417
-0.705549
-0.37857
-0.253925
-0.252947
-0.207789
-0.0227804
0.116388
0.182687
0.201844
0.194765
0.175731
0.152986
0.13098
0.11201
0.0972394
0.0872198
0.0821951
3.10907
-1.08554
-0.916042
-0.677257
-0.502752
-0.441505
-0.366163
-0.226759
-0.114594
-0.0478031
-0.0167675
-0.00935791
-0.0152315
-0.0272997
-0.0411378
-0.05412
-0.0647215
-0.0721203
-0.0758839
-0.504567
-1.32164
-1.17255
-0.928561
-0.748916
-0.647292
-0.54577
-0.427654
-0.330579
-0.264599
-0.22644
-0.208911
-0.20465
-0.20789
-0.214612
-0.22218
-0.228912
-0.233833
-0.236393
-1.6232
-1.56954
-1.35674
-1.1435
-0.96962
-0.84645
-0.733886
-0.625563
-0.536179
-0.470911
-0.428266
-0.403612
-0.391636
-0.387744
-0.388443
-0.391265
-0.394526
-0.397185
-0.398636
-2.01071
-1.76452
-1.53734
-1.33285
-1.1666
-1.03642
-0.921533
-0.818583
-0.733528
-0.668796
-0.623219
-0.593503
-0.575696
-0.566137
-0.561853
-0.560623
-0.560856
-0.561512
-0.561971
-2.17194
-1.92125
-1.70178
-1.50692
-1.34895
-1.21822
-1.1045
-1.00557
-0.923609
-0.859477
-0.812028
-0.77874
-0.756571
-0.742576
-0.734252
-0.729643
-0.7273
-0.726228
-0.725821
-2.27737
-2.05839
-1.85123
-1.67159
-1.52074
-1.39267
-1.28177
-1.18643
-1.10711
-1.04377
-0.995258
-0.959521
-0.934147
-0.916741
-0.905207
-0.897844
-0.893358
-0.89083
-0.889688
-2.37464
-2.17859
-1.99224
-1.82704
-1.68384
-1.5602
-1.45316
-1.36138
-1.28459
-1.2223
-1.17336
-1.13605
-1.1084
-1.08843
-1.07441
-1.06485
-1.05863
-1.0549
-1.05315
-2.48211
-2.29488
-2.12729
-1.97431
-1.83931
-1.72128
-1.61868
-1.53066
-1.45649
-1.39554
-1.34671
-1.30853
-1.27935
-1.25754
-1.24164
-1.23039
-1.22279
-1.2181
-1.21586
-2.58217
-2.4101
-2.25689
-2.11497
-1.98828
-1.87645
-1.77876
-1.69454
-1.62319
-1.56389
-1.51564
-1.47716
-1.44707
-1.42402
-1.40677
-1.39425
-1.3856
-1.38017
-1.37754
-2.67449
-2.52212
-2.38134
-2.25009
-2.13165
-2.02628
-1.93374
-1.85353
-1.7851
-1.72771
-1.68045
-1.64215
-1.61166
-1.58786
-1.56971
-1.5563
-1.54688
-1.5409
-1.53798
-2.76571
-2.63147
-2.50173
-2.38053
-2.27013
-2.1713
-2.08403
-2.00797
-1.94266
-1.88742
-1.84138
-1.8037
-1.77322
-1.7491
-1.73043
-1.71645
-1.70652
-1.70016
-1.69702
-2.85972
-2.73949
-2.61921
-2.50707
-2.40437
-2.31199
-2.23003
-2.15824
-2.09621
-2.04333
-1.99885
-1.96199
-1.93188
-1.90782
-1.88895
-1.87466
-1.86442
-1.85784
-1.85455
-2.95995
-2.84687
-2.73439
-2.63028
-2.53486
-2.44881
-2.37215
-2.3047
-2.24606
-2.19572
-2.15303
-2.11731
-2.08787
-2.06409
-2.04528
-2.03091
-2.02055
-2.01392
-2.01048
-3.06555
-2.95352
-2.84739
-2.75049
-2.66201
-2.58215
-2.51079
-2.44771
-2.39256
-2.34489
-2.30417
-2.26984
-2.24131
-2.21805
-2.19952
-2.18528
-2.17496
-2.16827
-2.16479
-3.17109
-3.05823
-2.9579
-2.86783
-2.78613
-2.71239
-2.6463
-2.58762
-2.53603
-2.49115
-2.45256
-2.41978
-2.39235
-2.36982
-2.35175
-2.33778
-2.3276
-2.32098
-2.31751
-3.26995
-3.15904
-3.06536
-2.9824
-2.90754
-2.8399
-2.77906
-2.72478
-2.67679
-2.63478
-2.59843
-2.56734
-2.54116
-2.51951
-2.50205
-2.48848
-2.47854
-2.47206
-2.46866
-3.3556
-3.25428
-3.16944
-3.09437
-3.02657
-2.96505
-2.90945
-2.85955
-2.81516
-2.77607
-2.74202
-2.71273
-2.68791
-2.66726
-2.65052
-2.63745
-2.62784
-2.62155
-2.61826
-3.42875
-3.34421
-3.2705
-3.20422
-3.14367
-3.08828
-3.03784
-2.99227
-2.95147
-2.9153
-2.88359
-2.85616
-2.83277
-2.81321
-2.79728
-2.78479
-2.77557
-2.76952
-2.76637
-3.49799
-3.43169
-3.36995
-3.31274
-3.25942
-3.21003
-3.16464
-3.12329
-3.086
-3.05272
-3.02336
-2.99781
-2.97591
-2.9575
-2.94244
-2.93059
-2.92181
-2.91604
-2.91305
-3.57187
-3.5205
-3.46965
-3.4209
-3.37444
-3.33079
-3.29022
-3.25293
-3.21904
-3.18858
-3.16155
-3.13788
-3.11749
-3.10027
-3.08612
-3.07494
-3.06665
-3.06118
-3.05836
-3.65383
-3.61297
-3.57096
-3.52956
-3.48933
-3.45098
-3.41493
-3.38149
-3.35085
-3.32312
-3.29835
-3.27655
-3.25766
-3.24165
-3.22844
-3.21797
-3.21017
-3.20502
-3.20239
-3.74281
-3.70944
-3.67445
-3.63925
-3.60452
-3.57097
-3.53909
-3.50924
-3.48167
-3.45655
-3.43397
-3.41398
-3.39658
-3.38177
-3.3695
-3.35975
-3.35248
-3.34766
-3.34522
-3.8371
-3.80954
-3.78022
-3.75025
-3.7203
-3.69103
-3.66294
-3.6364
-3.61171
-3.58905
-3.56856
-3.55033
-3.53438
-3.52075
-3.50943
-3.5004
-3.49365
-3.48916
-3.48691
-3.93582
-3.91287
-3.8882
-3.86264
-3.83683
-3.81135
-3.78667
-3.76317
-3.74114
-3.72079
-3.70229
-3.68573
-3.67119
-3.65872
-3.64832
-3.64
-3.63377
-3.62963
-3.62757
-4.03846
-4.01914
-3.99827
-3.97644
-3.95419
-3.93204
-3.91042
-3.88968
-3.8701
-3.85191
-3.83527
-3.82032
-3.80713
-3.79577
-3.78627
-3.77866
-3.77295
-3.76914
-3.76726
-4.14445
-4.12805
-4.11028
-4.09159
-4.07241
-4.05319
-4.03429
-4.01605
-3.99872
-3.98253
-3.96764
-3.9542
-3.9423
-3.93202
-3.92339
-3.91646
-3.91125
-3.90777
-3.90607
-4.25326
-4.23923
-4.22403
-4.208
-4.19148
-4.17482
-4.15835
-4.14236
-4.12709
-4.11274
-4.09949
-4.08748
-4.0768
-4.06754
-4.05976
-4.05349
-4.04877
-4.04562
-4.04409
-4.36444
-4.35238
-4.33934
-4.32557
-4.31134
-4.29694
-4.28264
-4.26868
-4.25528
-4.24264
-4.23091
-4.22024
-4.21072
-4.20244
-4.19546
-4.18983
-4.18558
-4.18274
-4.18138
-4.47761
-4.4672
-4.456
-4.44418
-4.43195
-4.41954
-4.40717
-4.39504
-4.38336
-4.37229
-4.36198
-4.35256
-4.34413
-4.33678
-4.33057
-4.32555
-4.32176
-4.31922
-4.31802
-4.59246
-4.58346
-4.57384
-4.56371
-4.55324
-4.5426
-4.53196
-4.52149
-4.51137
-4.50175
-4.49275
-4.48451
-4.47711
-4.47064
-4.46516
-4.46073
-4.45738
-4.45513
-4.45408
-4.7087
-4.70093
-4.69269
-4.68406
-4.67515
-4.66608
-4.657
-4.64804
-4.63935
-4.63106
-4.62329
-4.61614
-4.60971
-4.60408
-4.5993
-4.59543
-4.59249
-4.59052
-4.58961
-4.82611
-4.81943
-4.81243
-4.80513
-4.79761
-4.78996
-4.78229
-4.77471
-4.76733
-4.76028
-4.75364
-4.74753
-4.74201
-4.73717
-4.73305
-4.72971
-4.72718
-4.72547
-4.7247
-4.9445
-4.93881
-4.93292
-4.92682
-4.92056
-4.9142
-4.90782
-4.9015
-4.89533
-4.88942
-4.88385
-4.8787
-4.87405
-4.86995
-4.86647
-4.86363
-4.86148
-4.86003
-4.85939
-5.06371
-5.05894
-5.05406
-5.04906
-5.04396
-5.03878
-5.03357
-5.02842
-5.02338
-5.01853
-5.01396
-5.00972
-5.00588
-5.00249
-4.99961
-4.99726
-4.99547
-4.99426
-4.99374
-5.18362
-5.1797
-5.17577
-5.17179
-5.16775
-5.16366
-5.15955
-5.15547
-5.15148
-5.14763
-5.14399
-5.14061
-5.13754
-5.13483
-5.13251
-5.13063
-5.12919
-5.12821
-5.12781
-5.30412
-5.30101
-5.29798
-5.29496
-5.29191
-5.28883
-5.28574
-5.28267
-5.27965
-5.27674
-5.27398
-5.27141
-5.26908
-5.26701
-5.26524
-5.2638
-5.2627
-5.26195
-5.26165
-5.42511
-5.42279
-5.42063
-5.41852
-5.4164
-5.41427
-5.41213
-5.41
-5.40791
-5.40588
-5.40396
-5.40216
-5.40053
-5.39908
-5.39784
-5.39682
-5.39605
-5.39551
-5.39532
-5.54652
-5.54499
-5.54368
-5.54244
-5.54121
-5.53997
-5.53872
-5.53748
-5.53626
-5.53508
-5.53395
-5.53289
-5.53193
-5.53107
-5.53034
-5.52974
-5.52928
-5.52896
-5.52887
-5.66827
-5.66756
-5.66712
-5.66672
-5.66632
-5.66592
-5.66553
-5.66513
-5.66473
-5.66435
-5.66399
-5.66364
-5.66333
-5.66305
-5.66281
-5.66262
-5.66247
-5.66236
-5.66234
)
;

boundaryField
{
    leftWall
    {
        type            calculated;
        value           nonuniform List<scalar> 
50
(
2420.96
2361.92
2302.68
2243.23
2183.57
2123.67
2063.5
2003.07
1908.13
1777.52
1645.38
1511.77
1376.95
1241.36
1105.49
969.921
835.139
701.378
569.162
439.315
311.399
185.835
73.7443
11.2397
-3.14994
-3.27543
-3.38255
-3.47729
-3.56278
-3.64432
-3.72586
-3.80479
-3.87936
-3.95466
-4.03616
-4.12569
-4.22277
-4.32551
-4.43212
-4.54146
-4.65283
-4.76578
-4.87981
-4.99469
-5.1103
-5.22656
-5.34361
-5.46162
-5.57998
-5.69759
)
;
    }
    rightWall
    {
        type            calculated;
        value           nonuniform List<scalar> 
50
(
0.943989
0.88392
0.822455
0.759649
0.69554
0.630161
0.563556
0.495775
0.388073
0.237095
0.0821951
-0.0758839
-0.236393
-0.398636
-0.561971
-0.725821
-0.889688
-1.05315
-1.21586
-1.37754
-1.53798
-1.69702
-1.85455
-2.01048
-2.16479
-2.31751
-2.46866
-2.61826
-2.76637
-2.91305
-3.05836
-3.20239
-3.34522
-3.48691
-3.62757
-3.76726
-3.90607
-4.04409
-4.18138
-4.31802
-4.45408
-4.58961
-4.7247
-4.85939
-4.99374
-5.12781
-5.26165
-5.39532
-5.52887
-5.66234
)
;
    }
    lowerWall
    {
        type            calculated;
        value           nonuniform List<scalar> 
62
(
2450.39
2450.25
2449.44
2448.11
2446.41
2444.35
2441.97
2439.33
2436.51
2433.58
2430.67
2427.89
2425.39
2423.36
2421.98
2421.3
2421.36
2422.19
2423.71
2425.7
2427.81
2429.59
2430.62
2401.19
2342.1
2279.67
2213.6
2142.51
2062.63
1960.54
1817.42
782.78
981.692
907.681
493.442
-0.135495
-0.189151
-0.252101
-0.32259
-0.393205
-0.458487
-0.523465
-11.4786
-0.106063
-0.294526
-0.603661
-0.443438
0.83941
2.60368
3.05321
2.54372
2.04324
1.73515
1.51631
1.35475
1.23682
1.14966
1.0851
1.03792
1.00479
0.983677
0.973418
)
;
    }
    atmosphere
    {
        type            calculated;
        value           nonuniform List<scalar> 
46
(
-5.75491
-5.75632
-5.7562
-5.75601
-5.75571
-5.75532
-5.75485
-5.75429
-5.75365
-5.75293
-5.75215
-5.75131
-5.75041
-5.74946
-5.74847
-5.74744
-5.74639
-5.74532
-5.74423
-5.74314
-5.74205
-5.74097
-5.7399
-5.73763
-5.73446
-5.73194
-5.73018
-5.72929
-5.72904
-5.72904
-5.72904
-5.72904
-5.72904
-5.72904
-5.72904
-5.72904
-5.72904
-5.72904
-5.72904
-5.72904
-5.72904
-5.72904
-5.72904
-5.72904
-5.72904
-5.72904
)
;
    }
    defaultFaces
    {
        type            empty;
    }
}


// ************************************************************************* //
