/*--------------------------------*- C++ -*----------------------------------*\
| =========                 |                                                 |
| \\      /  F ield         | OpenFOAM: The Open Source CFD Toolbox           |
|  \\    /   O peration     | Version:  2206                                  |
|   \\  /    A nd           | Website:  www.openfoam.com                      |
|    \\/     M anipulation  |                                                 |
\*---------------------------------------------------------------------------*/
FoamFile
{
    version     2.0;
    format      ascii;
    arch        "LSB;label=32;scalar=64";
    class       volVectorField;
    location    "0.125";
    object      U;
}
// * * * * * * * * * * * * * * * * * * * * * * * * * * * * * * * * * * * * * //

dimensions      [0 1 -1 0 0 0 0];

internalField   nonuniform List<vector> 
2268
(
(0.00791317 -0.00752815 0)
(0.0254462 -0.00905894 0)
(0.0440831 -0.00853706 0)
(0.0619135 -0.00817737 0)
(0.0790059 -0.00794495 0)
(0.0955911 -0.00768272 0)
(0.111577 -0.00734329 0)
(0.126764 -0.00691307 0)
(0.140946 -0.00637743 0)
(0.153883 -0.00571617 0)
(0.165289 -0.0049033 0)
(0.17481 -0.00390475 0)
(0.182009 -0.00266296 0)
(0.186338 -0.0010648 0)
(0.187123 0.00117147 0)
(0.182682 0.00394702 0)
(0.17262 0.00691414 0)
(0.15689 0.00971278 0)
(0.135693 0.0120974 0)
(0.109706 0.0138714 0)
(0.0801141 0.0148057 0)
(0.0483931 0.0148972 0)
(0.0161483 0.01457 0)
(0.00792949 -0.0226203 0)
(0.0256382 -0.0272376 0)
(0.0444818 -0.0256982 0)
(0.0624773 -0.0246294 0)
(0.0797407 -0.0239401 0)
(0.0965157 -0.0231665 0)
(0.112711 -0.0221651 0)
(0.128134 -0.020894 0)
(0.142586 -0.0193098 0)
(0.155838 -0.0173531 0)
(0.167614 -0.0149492 0)
(0.177593 -0.0120052 0)
(0.185411 -0.00840046 0)
(0.190697 -0.00396839 0)
(0.193072 0.00151827 0)
(0.19302 0.00812568 0)
(0.189561 0.0156102 0)
(0.181159 0.0236475 0)
(0.166249 0.0318489 0)
(0.143447 0.0396253 0)
(0.111905 0.0461335 0)
(0.0717596 0.0505996 0)
(0.0250659 0.0525676 0)
(0.00794144 -0.0378372 0)
(0.0258272 -0.0455936 0)
(0.0449198 -0.0430432 0)
(0.0631175 -0.0412642 0)
(0.0805964 -0.040129 0)
(0.0976243 -0.038868 0)
(0.114116 -0.0372375 0)
(0.129891 -0.0351672 0)
(0.144763 -0.0325868 0)
(0.158521 -0.0294003 0)
(0.170906 -0.0254884 0)
(0.181612 -0.020709 0)
(0.190273 -0.0149036 0)
(0.196432 -0.00791547 0)
(0.199572 0.000324421 0)
(0.199091 0.0100658 0)
(0.194394 0.0215419 0)
(0.18487 0.0348209 0)
(0.169599 0.0496266 0)
(0.147272 0.0651851 0)
(0.116432 0.0801085 0)
(0.0759836 0.0923807 0)
(0.0269971 0.0992433 0)
(0.00796958 -0.0531838 0)
(0.0261076 -0.0642059 0)
(0.0455518 -0.0606498 0)
(0.0640514 -0.058159 0)
(0.0818486 -0.0566007 0)
(0.0992463 -0.054894 0)
(0.116172 -0.0526901 0)
(0.132462 -0.049891 0)
(0.14795 -0.046402 0)
(0.162445 -0.0420933 0)
(0.175714 -0.0368017 0)
(0.187474 -0.0303326 0)
(0.197374 -0.02246 0)
(0.204978 -0.0129347 0)
(0.20975 -0.0014654 0)
(0.210987 0.0121477 0)
(0.207806 0.0281734 0)
(0.199205 0.0468153 0)
(0.184027 0.068059 0)
(0.160903 0.0914231 0)
(0.128276 0.1155 0)
(0.0844873 0.137505 0)
(0.0301411 0.151882 0)
(0.00801008 -0.0686721 0)
(0.0264693 -0.083135 0)
(0.0463604 -0.0785829 0)
(0.0652512 -0.0753816 0)
(0.0834569 -0.0734377 0)
(0.101327 -0.0713494 0)
(0.118808 -0.068655 0)
(0.135757 -0.0652289 0)
(0.152033 -0.0609556 0)
(0.167475 -0.0556742 0)
(0.181883 -0.0491797 0)
(0.195011 -0.0412218 0)
(0.206547 -0.0315011 0)
(0.216091 -0.0196643 0)
(0.223129 -0.00529411 0)
(0.226976 0.0120204 0)
(0.226701 0.0327276 0)
(0.221055 0.0572529 0)
(0.208373 0.0858311 0)
(0.186484 0.118216 0)
(0.152863 0.153077 0)
(0.104079 0.186654 0)
(0.0390112 0.210094 0)
(0.0080608 -0.0843304 0)
(0.0269036 -0.102453 0)
(0.0473266 -0.0969108 0)
(0.0666894 -0.0929964 0)
(0.0853849 -0.0907122 0)
(0.103819 -0.0883223 0)
(0.121964 -0.0852413 0)
(0.139701 -0.0813171 0)
(0.15692 -0.076418 0)
(0.173495 -0.0703576 0)
(0.18927 -0.0628937 0)
(0.20405 -0.0537254 0)
(0.217582 -0.0424827 0)
(0.229536 -0.0287122 0)
(0.239466 -0.011856 0)
(0.246761 0.00875559 0)
(0.250516 0.0338257 0)
(0.249411 0.0642596 0)
(0.241411 0.100926 0)
(0.223413 0.144393 0)
(0.190734 0.194328 0)
(0.136125 0.249476 0)
(0.0488907 0.299363 0)
(0.00815025 -0.100294 0)
(0.0274249 -0.122327 0)
(0.0484189 -0.115793 0)
(0.0683174 -0.111153 0)
(0.0875739 -0.108567 0)
(0.106652 -0.105953 0)
(0.125556 -0.10259 0)
(0.144194 -0.0982999 0)
(0.162491 -0.0929409 0)
(0.180366 -0.0863092 0)
(0.197717 -0.0781347 0)
(0.214412 -0.0680768 0)
(0.230282 -0.0557086 0)
(0.245092 -0.0404939 0)
(0.258524 -0.0217558 0)
(0.270108 0.00135372 0)
(0.279132 0.0298866 0)
(0.284458 0.0653529 0)
(0.284068 0.109656 0)
(0.274401 0.164429 0)
(0.250573 0.231495 0)
(0.198783 0.305828 0)
(0.0975076 0.38896 0)
(0.00831081 -0.116523 0)
(0.0280301 -0.142688 0)
(0.0495678 -0.13518 0)
(0.070036 -0.129815 0)
(0.0898973 -0.126969 0)
(0.109666 -0.124209 0)
(0.129384 -0.120669 0)
(0.148993 -0.116145 0)
(0.168458 -0.110491 0)
(0.187749 -0.103493 0)
(0.206826 -0.0948645 0)
(0.225643 -0.0842371 0)
(0.244136 -0.0711442 0)
(0.262216 -0.0549858 0)
(0.279739 -0.0349785 0)
(0.296482 -0.0100645 0)
(0.311938 0.0210737 0)
(0.325597 0.0605996 0)
(0.33562 0.112119 0)
(0.339428 0.180198 0)
(0.32508 0.27563 0)
(0.295062 0.40988 0)
(0.0884354 0.626684 0)
(-0.0719296 0.0281104 0)
(-0.365948 0.0558258 0)
(-0.811588 0.0721206 0)
(-1.08163 0.0378497 0)
(-0.873185 -0.0624683 0)
(-0.223258 -0.150848 0)
(0.501738 -0.0839942 0)
(0.794699 -0.000687121 0)
(0.708364 0.0236869 0)
(0.5514 0.0207449 0)
(0.434225 0.0158998 0)
(0.345903 0.0124887 0)
(0.275157 0.0100288 0)
(0.217401 0.00833295 0)
(0.168458 0.00717121 0)
(0.125704 0.00638739 0)
(0.0870643 0.00587013 0)
(0.0511864 0.00553137 0)
(0.0168857 0.00542866 0)
(-0.147799 0.106112 0)
(-0.508866 0.168525 0)
(-0.900038 0.189918 0)
(-0.998551 0.0698375 0)
(-0.632155 -0.221984 0)
(-0.101317 -0.431041 0)
(0.533346 -0.260536 0)
(0.877907 -0.0136523 0)
(0.80477 0.0690091 0)
(0.628773 0.066455 0)
(0.491357 0.0523273 0)
(0.387762 0.0408022 0)
(0.306144 0.0325652 0)
(0.240464 0.0269257 0)
(0.185527 0.023084 0)
(0.138012 0.0204507 0)
(0.0954092 0.0187166 0)
(0.0560233 0.0176235 0)
(0.018435 0.0170358 0)
(-0.141828 0.196016 0)
(-0.461458 0.265711 0)
(-0.721286 0.247264 0)
(-0.572387 -0.00691671 0)
(0.055436 -0.392821 0)
(0.333411 -0.62176 0)
(0.61958 -0.402738 0)
(0.90716 -0.0161276 0)
(0.798351 0.117329 0)
(0.60843 0.115185 0)
(0.473514 0.0907225 0)
(0.37445 0.0701873 0)
(0.296616 0.0558131 0)
(0.233688 0.046013 0)
(0.180744 0.0393656 0)
(0.134704 0.0348064 0)
(0.0932655 0.0317911 0)
(0.0548162 0.0299174 0)
(0.018037 0.028923 0)
(-0.120915 0.279054 0)
(-0.347511 0.32501 0)
(-0.404673 0.200482 0)
(0.174472 -0.0999594 0)
(0.942775 -0.537925 0)
(1.07992 -0.689771 0)
(0.995702 -0.44204 0)
(0.996198 0.0272462 0)
(0.801957 0.178091 0)
(0.593264 0.165845 0)
(0.459243 0.128098 0)
(0.364243 0.0982836 0)
(0.289775 0.0781238 0)
(0.229097 0.0644697 0)
(0.177658 0.0551867 0)
(0.132646 0.0488324 0)
(0.0919658 0.0446258 0)
(0.054095 0.0420213 0)
(0.0178034 0.0406475 0)
(-0.101079 0.339301 0)
(-0.177506 0.29762 0)
(0.177607 0.122005 0)
(1.13836 -0.330742 0)
(1.63596 -0.650223 0)
(1.66928 -0.712143 0)
(1.46075 -0.445502 0)
(1.13796 0.0812104 0)
(0.797444 0.255901 0)
(0.57487 0.21956 0)
(0.444932 0.164432 0)
(0.354388 0.125111 0)
(0.283255 0.099521 0)
(0.224722 0.082317 0)
(0.174709 0.0706021 0)
(0.130671 0.0625777 0)
(0.090708 0.0572481 0)
(0.0533908 0.0539557 0)
(0.0175743 0.0522147 0)
(-0.0361069 0.36667 0)
(-0.0526471 0.257749 0)
(1.08787 -0.190982 0)
(1.72121 -0.508896 0)
(1.97624 -0.7052 0)
(1.86012 -0.679859 0)
(1.63067 -0.409334 0)
(1.12582 0.189434 0)
(0.730653 0.350055 0)
(0.541022 0.274568 0)
(0.426382 0.198626 0)
(0.342587 0.150447 0)
(0.275535 0.119988 0)
(0.219516 0.0995666 0)
(0.171171 0.0856142 0)
(0.128286 0.0760353 0)
(0.0891763 0.0696521 0)
(0.0525278 0.065712 0)
(0.0172931 0.0636204 0)
(-0.0976006 0.430366 0)
(1.11537 -0.115223 0)
(1.73353 -0.407477 0)
(2.01951 -0.590053 0)
(1.95573 -0.656564 0)
(1.69605 -0.577478 0)
(1.34795 -0.175567 0)
(0.88465 0.374054 0)
(0.608684 0.43984 0)
(0.495137 0.320575 0)
(0.403915 0.22859 0)
(0.328818 0.17388 0)
(0.266565 0.139356 0)
(0.213453 0.116114 0)
(0.16703 0.100151 0)
(0.125481 0.0891515 0)
(0.0873653 0.0817967 0)
(0.0515042 0.0772553 0)
(0.0169596 0.0748323 0)
(0.968764 -0.168077 0)
(1.63827 -0.305963 0)
(1.91775 -0.453065 0)
(1.956 -0.571048 0)
(1.75897 -0.603048 0)
(1.32622 -0.47544 0)
(0.977956 -0.0186071 0)
(0.639014 0.468414 0)
(0.503071 0.489238 0)
(0.450045 0.351815 0)
(0.379249 0.253785 0)
(0.313579 0.195188 0)
(0.25657 0.157475 0)
(0.206663 0.131858 0)
(0.162365 0.114135 0)
(0.122305 0.101859 0)
(0.085303 0.0936112 0)
(0.0503336 0.0885059 0)
(0.0165774 0.0857672 0)
(0.00864272 -0.142524 0)
(0.029044 -0.175448 0)
(0.0513576 -0.166389 0)
(0.0727132 -0.159984 0)
(0.0935234 -0.156918 0)
(0.114371 -0.154173 0)
(0.135363 -0.150666 0)
(0.15649 -0.146169 0)
(0.17778 -0.140546 0)
(0.199281 -0.133597 0)
(0.22106 -0.125046 0)
(0.243203 -0.114537 0)
(0.265836 -0.10162 0)
(0.289139 -0.0857178 0)
(0.313366 -0.0660696 0)
(0.338951 -0.041656 0)
(0.366423 -0.0110854 0)
(0.397289 0.0273948 0)
(0.432171 0.0767212 0)
(0.480625 0.139392 0)
(0.532953 0.228445 0)
(0.659822 0.324995 0)
(0.70181 0.571059 0)
(0.00906024 -0.179332 0)
(0.0304317 -0.222211 0)
(0.0537943 -0.211026 0)
(0.0762288 -0.203293 0)
(0.0982604 -0.200191 0)
(0.120526 -0.197843 0)
(0.143176 -0.194861 0)
(0.166265 -0.191002 0)
(0.189897 -0.186179 0)
(0.214213 -0.180249 0)
(0.239394 -0.173009 0)
(0.265671 -0.164207 0)
(0.293352 -0.153542 0)
(0.322858 -0.140662 0)
(0.354762 -0.125159 0)
(0.389894 -0.106568 0)
(0.429384 -0.0844082 0)
(0.474865 -0.0582305 0)
(0.528457 -0.0276675 0)
(0.59332 0.00649481 0)
(0.672915 0.047739 0)
(0.768241 0.071811 0)
(0.897051 0.144024 0)
(0.00951245 -0.218034 0)
(0.0316364 -0.270804 0)
(0.0556517 -0.257522 0)
(0.078806 -0.24876 0)
(0.10174 -0.245982 0)
(0.125075 -0.244452 0)
(0.148962 -0.242514 0)
(0.173496 -0.239937 0)
(0.198825 -0.236703 0)
(0.225135 -0.232747 0)
(0.252651 -0.227963 0)
(0.281643 -0.222228 0)
(0.312447 -0.215416 0)
(0.345478 -0.20741 0)
(0.381239 -0.198125 0)
(0.420369 -0.187542 0)
(0.463579 -0.175763 0)
(0.511751 -0.163125 0)
(0.565917 -0.1502 0)
(0.62667 -0.138414 0)
(0.696674 -0.128729 0)
(0.773254 -0.127717 0)
(0.865869 -0.123265 0)
(0.00995312 -0.258394 0)
(0.0324907 -0.32026 0)
(0.0566381 -0.304879 0)
(0.0800458 -0.295475 0)
(0.103445 -0.293329 0)
(0.127367 -0.292871 0)
(0.151934 -0.292256 0)
(0.177256 -0.291294 0)
(0.203501 -0.29003 0)
(0.230864 -0.288468 0)
(0.259568 -0.286577 0)
(0.289872 -0.284331 0)
(0.322073 -0.281716 0)
(0.356519 -0.278752 0)
(0.393599 -0.2755 0)
(0.433775 -0.272093 0)
(0.477492 -0.268754 0)
(0.525346 -0.265853 0)
(0.577796 -0.26385 0)
(0.635163 -0.263628 0)
(0.698639 -0.2656 0)
(0.765793 -0.273022 0)
(0.840089 -0.280565 0)
(0.0103229 -0.300062 0)
(0.0328514 -0.369458 0)
(0.0565607 -0.35203 0)
(0.0797146 -0.342463 0)
(0.103078 -0.341211 0)
(0.127031 -0.341952 0)
(0.151647 -0.342778 0)
(0.177047 -0.343565 0)
(0.203399 -0.344414 0)
(0.230885 -0.345373 0)
(0.259708 -0.346465 0)
(0.29009 -0.347721 0)
(0.322277 -0.349195 0)
(0.356543 -0.350968 0)
(0.393169 -0.353163 0)
(0.432484 -0.355958 0)
(0.474738 -0.359589 0)
(0.520339 -0.364391 0)
(0.569373 -0.370728 0)
(0.622 -0.379281 0)
(0.67907 -0.39016 0)
(0.737336 -0.405615 0)
(0.803481 -0.421333 0)
(0.0105607 -0.342469 0)
(0.0326118 -0.417211 0)
(0.0553261 -0.3979 0)
(0.0777399 -0.388699 0)
(0.10056 -0.388521 0)
(0.123977 -0.390472 0)
(0.148022 -0.392723 0)
(0.172817 -0.395236 0)
(0.198521 -0.39815 0)
(0.225299 -0.401539 0)
(0.253324 -0.405457 0)
(0.282781 -0.409971 0)
(0.31387 -0.415164 0)
(0.346802 -0.421147 0)
(0.381787 -0.428059 0)
(0.41907 -0.436072 0)
(0.45879 -0.445397 0)
(0.501301 -0.456294 0)
(0.546452 -0.469002 0)
(0.59464 -0.484026 0)
(0.646354 -0.501082 0)
(0.697925 -0.522382 0)
(0.760674 -0.542525 0)
(0.010615 -0.384895 0)
(0.0317139 -0.462408 0)
(0.0529305 -0.441548 0)
(0.0741665 -0.433227 0)
(0.0959597 -0.434203 0)
(0.118305 -0.437285 0)
(0.141208 -0.440858 0)
(0.164787 -0.444975 0)
(0.189187 -0.449793 0)
(0.214548 -0.4554 0)
(0.241014 -0.461867 0)
(0.26874 -0.469279 0)
(0.297885 -0.47774 0)
(0.328618 -0.487372 0)
(0.361105 -0.498315 0)
(0.39554 -0.510735 0)
(0.43201 -0.524814 0)
(0.470879 -0.540759 0)
(0.511799 -0.558746 0)
(0.555651 -0.579163 0)
(0.601984 -0.601537 0)
(0.648209 -0.628287 0)
(0.707948 -0.652744 0)
(0.0104474 -0.426427 0)
(0.0301511 -0.504017 0)
(0.049463 -0.482132 0)
(0.0691496 -0.475133 0)
(0.0894745 -0.477238 0)
(0.110268 -0.481303 0)
(0.131528 -0.486034 0)
(0.153367 -0.491564 0)
(0.175905 -0.498051 0)
(0.199258 -0.505584 0)
(0.223543 -0.514249 0)
(0.248883 -0.524145 0)
(0.275409 -0.535387 0)
(0.303255 -0.548106 0)
(0.332557 -0.562452 0)
(0.363482 -0.578588 0)
(0.396093 -0.596695 0)
(0.430791 -0.616959 0)
(0.467071 -0.639549 0)
(0.506456 -0.664775 0)
(0.546958 -0.692163 0)
(0.589344 -0.724148 0)
(0.643447 -0.753435 0)
(0.0100363 -0.466113 0)
(0.0279565 -0.541201 0)
(0.0450654 -0.518984 0)
(0.0629114 -0.513622 0)
(0.0813939 -0.51673 0)
(0.100235 -0.521591 0)
(0.119442 -0.52728 0)
(0.139114 -0.533982 0)
(0.159343 -0.541844 0)
(0.180216 -0.550956 0)
(0.201823 -0.561412 0)
(0.224256 -0.573322 0)
(0.247616 -0.586814 0)
(0.272007 -0.60203 0)
(0.297535 -0.619133 0)
(0.324341 -0.638301 0)
(0.352475 -0.659736 0)
(0.382351 -0.683639 0)
(0.413356 -0.710243 0)
(0.447653 -0.739824 0)
(0.481383 -0.772164 0)
(0.520843 -0.809465 0)
(0.563971 -0.845199 0)
(0.00940441 -0.503455 0)
(0.0252565 -0.573712 0)
(0.0399623 -0.551929 0)
(0.0557503 -0.548335 0)
(0.0720982 -0.552227 0)
(0.0886836 -0.557656 0)
(0.105534 -0.564062 0)
(0.122722 -0.571648 0)
(0.140311 -0.58054 0)
(0.15836 -0.590828 0)
(0.176927 -0.602611 0)
(0.196074 -0.616007 0)
(0.215865 -0.631151 0)
(0.236371 -0.648199 0)
(0.257659 -0.667325 0)
(0.279828 -0.68873 0)
(0.302902 -0.712642 0)
(0.327234 -0.739303 0)
(0.352145 -0.769035 0)
(0.380168 -0.802111 0)
(0.405552 -0.83875 0)
(0.440911 -0.880659 0)
(0.464875 -0.923439 0)
(0.0086131 -0.537692 0)
(0.0222818 -0.601166 0)
(0.0344978 -0.580626 0)
(0.0480813 -0.578776 0)
(0.0620945 -0.583203 0)
(0.0762282 -0.588986 0)
(0.0905264 -0.595868 0)
(0.105035 -0.60404 0)
(0.119784 -0.613606 0)
(0.134805 -0.624653 0)
(0.150123 -0.637281 0)
(0.165765 -0.65161 0)
(0.181755 -0.667778 0)
(0.198122 -0.685944 0)
(0.214883 -0.706288 0)
(0.232076 -0.729019 0)
(0.249669 -0.754371 0)
(0.267879 -0.782627 0)
(0.286022 -0.814134 0)
(0.306484 -0.849177 0)
(0.322237 -0.888114 0)
(0.350586 -0.932012 0)
(0.349853 -0.979205 0)
(0.00766685 -0.567035 0)
(0.0191421 -0.622268 0)
(0.0288472 -0.603751 0)
(0.0401479 -0.603527 0)
(0.0517344 -0.608286 0)
(0.0633393 -0.614264 0)
(0.0750129 -0.62142 0)
(0.0867663 -0.629911 0)
(0.0986014 -0.639824 0)
(0.11052 -0.651246 0)
(0.122518 -0.664271 0)
(0.134584 -0.679016 0)
(0.146699 -0.69562 0)
(0.158845 -0.714234 0)
(0.17098 -0.735024 0)
(0.183082 -0.758194 0)
(0.195012 -0.783939 0)
(0.206893 -0.812561 0)
(0.218011 -0.844318 0)
(0.230249 -0.879498 0)
(0.236663 -0.917558 0)
(0.25539 -0.960059 0)
(0.233444 -1.00806 0)
(0.00656918 -0.593081 0)
(0.0158527 -0.638675 0)
(0.023011 -0.622991 0)
(0.0320223 -0.624165 0)
(0.0411848 -0.629064 0)
(0.0502642 -0.635114 0)
(0.0593135 -0.642378 0)
(0.0683022 -0.650967 0)
(0.077204 -0.660961 0)
(0.085994 -0.672437 0)
(0.0946245 -0.685453 0)
(0.103059 -0.700107 0)
(0.111222 -0.716531 0)
(0.119057 -0.734837 0)
(0.126448 -0.755145 0)
(0.133354 -0.777614 0)
(0.139528 -0.802357 0)
(0.145135 -0.829649 0)
(0.149298 -0.859695 0)
(0.15395 -0.892524 0)
(0.153115 -0.925629 0)
(0.162506 -0.964547 0)
(0.132884 -1.01276 0)
(0.00574242 -0.618406 0)
(0.0123998 -0.651843 0)
(0.0164947 -0.639919 0)
(0.0232214 -0.642149 0)
(0.0297214 -0.646797 0)
(0.0360757 -0.652557 0)
(0.0423089 -0.659482 0)
(0.0483486 -0.667619 0)
(0.0541444 -0.677053 0)
(0.0596461 -0.687851 0)
(0.0647656 -0.700029 0)
(0.0694737 -0.713639 0)
(0.073633 -0.728801 0)
(0.0771758 -0.745576 0)
(0.0800062 -0.764046 0)
(0.0821412 -0.784465 0)
(0.0833307 -0.806769 0)
(0.0840943 -0.831241 0)
(0.0833263 -0.858817 0)
(0.084504 -0.888286 0)
(0.0819671 -0.916919 0)
(0.0918274 -0.954242 0)
(0.0779513 -1.01054 0)
(0.00501048 -0.633806 0)
(0.00804758 -0.654705 0)
(0.00929472 -0.64781 0)
(0.0135814 -0.650795 0)
(0.0173463 -0.654922 0)
(0.0208507 -0.660119 0)
(0.0241565 -0.666387 0)
(0.0272209 -0.673667 0)
(0.0299217 -0.682059 0)
(0.0321486 -0.691639 0)
(0.033788 -0.702451 0)
(0.0351109 -0.714548 0)
(0.0357678 -0.727957 0)
(0.0358049 -0.742778 0)
(0.0352579 -0.759137 0)
(0.0342224 -0.777337 0)
(0.0330048 -0.797512 0)
(0.0317984 -0.820156 0)
(0.0307541 -0.847723 0)
(0.0375784 -0.878688 0)
(0.0462697 -0.916431 0)
(0.0767159 -0.970349 0)
(0.105545 -1.07894 0)
(0.00551598 -0.636199 0)
(0.002496 -0.643234 0)
(0.00177464 -0.643233 0)
(0.00310078 -0.646414 0)
(0.00403183 -0.650211 0)
(0.00443509 -0.655068 0)
(0.00450888 -0.661202 0)
(0.00456848 -0.668291 0)
(0.00432241 -0.676356 0)
(0.00353574 -0.685572 0)
(0.00308014 -0.696382 0)
(0.0012975 -0.708431 0)
(1.76547e-05 -0.721979 0)
(-0.000897156 -0.737702 0)
(-0.000586559 -0.755635 0)
(0.000861149 -0.776952 0)
(0.00934963 -0.802525 0)
(0.0157535 -0.831334 0)
(0.0309332 -0.876693 0)
(0.0632812 -0.93947 0)
(0.128416 -1.02374 0)
(0.212117 -1.11222 0)
(0.284354 -1.25448 0)
(0.00722204 -0.658351 0)
(-0.00666773 -0.646436 0)
(-0.000714458 -0.658858 0)
(-0.00296051 -0.66099 0)
(-0.00311798 -0.664456 0)
(-0.00397783 -0.66893 0)
(-0.0050031 -0.675611 0)
(-0.00497797 -0.683656 0)
(-0.00413957 -0.692611 0)
(-0.00220175 -0.703221 0)
(0.00570232 -0.715299 0)
(0.00799754 -0.728582 0)
(0.0155745 -0.745445 0)
(0.0258592 -0.767109 0)
(0.0417939 -0.790488 0)
(0.0608098 -0.826203 0)
(0.0908276 -0.861091 0)
(0.119233 -0.895073 0)
(0.158457 -0.975751 0)
(0.200635 -1.08812 0)
(0.252389 -1.19201 0)
(0.305404 -1.27889 0)
(0.372419 -1.25217 0)
(0.000613317 -0.652305 0)
(-0.00650643 -0.654145 0)
(0.00224078 -0.664888 0)
(-0.000407875 -0.663832 0)
(0.000759728 -0.667329 0)
(0.00100974 -0.671344 0)
(0.000903852 -0.678301 0)
(0.00115505 -0.688034 0)
(0.00118347 -0.699601 0)
(0.00136285 -0.711862 0)
(0.00255682 -0.724318 0)
(0.00555159 -0.743136 0)
(0.00958931 -0.764643 0)
(0.0145455 -0.792942 0)
(0.0201716 -0.825908 0)
(0.0255104 -0.863839 0)
(0.0299639 -0.902062 0)
(0.0413485 -0.959869 0)
(0.055557 -1.04303 0)
(0.0717307 -1.15843 0)
(0.0884011 -1.27998 0)
(0.0954311 -1.32756 0)
(0.0918995 -1.22446 0)
(-0.00349215 -0.644304 0)
(-0.00905515 -0.661643 0)
(-0.0101547 -0.66339 0)
(-0.014673 -0.662158 0)
(-0.0183768 -0.664601 0)
(-0.0221079 -0.668164 0)
(-0.0263427 -0.674034 0)
(-0.0310786 -0.681798 0)
(-0.0362727 -0.691393 0)
(-0.0418781 -0.703272 0)
(-0.0478637 -0.717754 0)
(-0.0545097 -0.735076 0)
(-0.0623377 -0.756174 0)
(-0.0717662 -0.780603 0)
(-0.0834679 -0.808443 0)
(-0.097581 -0.841817 0)
(-0.112846 -0.883611 0)
(-0.130731 -0.939196 0)
(-0.152999 -1.02332 0)
(-0.178726 -1.13747 0)
(-0.207329 -1.24237 0)
(-0.251179 -1.26262 0)
(-0.31571 -1.15009 0)
(-0.00509708 -0.616781 0)
(-0.0143485 -0.641923 0)
(-0.0238021 -0.640088 0)
(-0.0320605 -0.640571 0)
(-0.0410152 -0.642547 0)
(-0.0496537 -0.646267 0)
(-0.058571 -0.651625 0)
(-0.0681622 -0.658493 0)
(-0.0784983 -0.667167 0)
(-0.0898295 -0.677665 0)
(-0.102443 -0.690132 0)
(-0.116668 -0.704751 0)
(-0.132913 -0.721724 0)
(-0.151832 -0.741422 0)
(-0.174292 -0.763989 0)
(-0.200757 -0.789084 0)
(-0.232083 -0.819209 0)
(-0.271262 -0.863373 0)
(-0.321269 -0.932826 0)
(-0.381126 -1.02487 0)
(-0.452932 -1.11006 0)
(-0.545925 -1.13792 0)
(-0.644447 -1.06909 0)
(-0.00600383 -0.58927 0)
(-0.0185082 -0.617638 0)
(-0.0303178 -0.617291 0)
(-0.041805 -0.618883 0)
(-0.0535306 -0.621131 0)
(-0.0654095 -0.624525 0)
(-0.0777541 -0.628984 0)
(-0.0907681 -0.634681 0)
(-0.10476 -0.641567 0)
(-0.119979 -0.649713 0)
(-0.136725 -0.659169 0)
(-0.155347 -0.669934 0)
(-0.17628 -0.681955 0)
(-0.200177 -0.695068 0)
(-0.227715 -0.708953 0)
(-0.259292 -0.723411 0)
(-0.296026 -0.739849 0)
(-0.341016 -0.763425 0)
(-0.39844 -0.801485 0)
(-0.470936 -0.855534 0)
(-0.560201 -0.912143 0)
(-0.675185 -0.942395 0)
(-0.815142 -0.915759 0)
(-0.00632476 -0.566661 0)
(-0.0199712 -0.593075 0)
(-0.0331745 -0.593802 0)
(-0.046845 -0.595049 0)
(-0.0603276 -0.596801 0)
(-0.0743109 -0.59916 0)
(-0.088847 -0.602227 0)
(-0.104173 -0.606014 0)
(-0.1205 -0.610532 0)
(-0.138062 -0.615733 0)
(-0.157115 -0.621561 0)
(-0.177948 -0.627929 0)
(-0.200907 -0.634707 0)
(-0.226399 -0.641658 0)
(-0.254774 -0.648348 0)
(-0.28628 -0.654342 0)
(-0.321583 -0.659934 0)
(-0.362471 -0.666889 0)
(-0.411243 -0.677999 0)
(-0.469035 -0.694521 0)
(-0.538766 -0.712732 0)
(-0.630137 -0.721755 0)
(-0.743919 -0.703264 0)
(-0.00651567 -0.538995 0)
(-0.0206141 -0.563605 0)
(-0.03491 -0.56405 0)
(-0.0493228 -0.564612 0)
(-0.0639715 -0.565619 0)
(-0.0791364 -0.566984 0)
(-0.0949452 -0.568709 0)
(-0.111516 -0.570789 0)
(-0.128998 -0.573186 0)
(-0.14758 -0.575822 0)
(-0.167468 -0.578579 0)
(-0.188887 -0.581323 0)
(-0.212085 -0.583882 0)
(-0.237318 -0.585994 0)
(-0.264793 -0.587274 0)
(-0.294688 -0.587312 0)
(-0.32739 -0.586026 0)
(-0.363557 -0.584176 0)
(-0.403542 -0.583176 0)
(-0.447104 -0.583385 0)
(-0.496075 -0.582249 0)
(-0.557497 -0.574104 0)
(-0.632374 -0.549482 0)
(-0.00639605 -0.512013 0)
(-0.0212362 -0.535365 0)
(-0.0361253 -0.535401 0)
(-0.050906 -0.535538 0)
(-0.0662337 -0.53587 0)
(-0.0819025 -0.53634 0)
(-0.0981069 -0.536909 0)
(-0.114949 -0.537503 0)
(-0.13256 -0.538044 0)
(-0.151081 -0.538453 0)
(-0.170669 -0.538615 0)
(-0.19148 -0.538374 0)
(-0.213662 -0.537544 0)
(-0.237343 -0.53588 0)
(-0.26261 -0.533059 0)
(-0.28954 -0.52874 0)
(-0.318338 -0.522789 0)
(-0.349322 -0.515573 0)
(-0.382472 -0.507867 0)
(-0.417395 -0.499768 0)
(-0.455133 -0.489223 0)
(-0.499422 -0.471949 0)
(-0.548743 -0.441972 0)
(-0.00659168 -0.482712 0)
(-0.021287 -0.504551 0)
(-0.0359778 -0.504089 0)
(-0.0509457 -0.503831 0)
(-0.0663295 -0.503463 0)
(-0.0820213 -0.503016 0)
(-0.0981025 -0.502444 0)
(-0.11467 -0.501694 0)
(-0.131836 -0.500683 0)
(-0.149705 -0.499313 0)
(-0.168378 -0.497477 0)
(-0.187949 -0.495042 0)
(-0.208496 -0.491835 0)
(-0.230074 -0.48764 0)
(-0.252703 -0.482201 0)
(-0.276375 -0.475221 0)
(-0.30114 -0.466426 0)
(-0.327126 -0.455808 0)
(-0.354273 -0.443909 0)
(-0.382325 -0.431481 0)
(-0.411855 -0.418031 0)
(-0.44474 -0.400606 0)
(-0.478792 -0.374224 0)
(-0.00659412 -0.45487 0)
(-0.0211097 -0.475126 0)
(-0.0358042 -0.474523 0)
(-0.0506036 -0.473899 0)
(-0.0655181 -0.473044 0)
(-0.0807132 -0.471931 0)
(-0.0962125 -0.470499 0)
(-0.112092 -0.468707 0)
(-0.128421 -0.466513 0)
(-0.145263 -0.463833 0)
(-0.162671 -0.460558 0)
(-0.180694 -0.456575 0)
(-0.199358 -0.451755 0)
(-0.21867 -0.445933 0)
(-0.238606 -0.438913 0)
(-0.259123 -0.430474 0)
(-0.280196 -0.420389 0)
(-0.301792 -0.408537 0)
(-0.323688 -0.395119 0)
(-0.345632 -0.380664 0)
(-0.368194 -0.365215 0)
(-0.392733 -0.34721 0)
(-0.417278 -0.323422 0)
(-0.0062151 -0.427638 0)
(-0.0204351 -0.446934 0)
(-0.034909 -0.446266 0)
(-0.0490965 -0.445237 0)
(-0.0633705 -0.443921 0)
(-0.0778006 -0.442247 0)
(-0.0924554 -0.440181 0)
(-0.107389 -0.437655 0)
(-0.122637 -0.434625 0)
(-0.138233 -0.431032 0)
(-0.1542 -0.426788 0)
(-0.170552 -0.421789 0)
(-0.187285 -0.415928 0)
(-0.20438 -0.409085 0)
(-0.22179 -0.401126 0)
(-0.239449 -0.391901 0)
(-0.2573 -0.381248 0)
(-0.275289 -0.369025 0)
(-0.293198 -0.355293 0)
(-0.310752 -0.340469 0)
(-0.328321 -0.3249 0)
(-0.346817 -0.307839 0)
(-0.36471 -0.286994 0)
(-0.00604544 -0.400602 0)
(-0.0197919 -0.419433 0)
(-0.0333805 -0.418717 0)
(-0.0466356 -0.417569 0)
(-0.0600815 -0.416018 0)
(-0.0736144 -0.414023 0)
(-0.0873008 -0.411571 0)
(-0.101162 -0.408636 0)
(-0.115216 -0.40516 0)
(-0.129474 -0.401081 0)
(-0.143945 -0.396333 0)
(-0.158629 -0.390836 0)
(-0.173508 -0.3845 0)
(-0.188548 -0.377229 0)
(-0.203691 -0.368925 0)
(-0.218862 -0.359495 0)
(-0.233988 -0.348839 0)
(-0.249005 -0.336853 0)
(-0.263716 -0.323516 0)
(-0.277865 -0.309073 0)
(-0.291732 -0.293909 0)
(-0.306021 -0.277834 0)
(-0.319544 -0.259409 0)
(-0.00590637 -0.37539 0)
(-0.0186797 -0.39356 0)
(-0.031123 -0.392744 0)
(-0.0435316 -0.391554 0)
(-0.0560256 -0.389888 0)
(-0.0685883 -0.387754 0)
(-0.0812311 -0.385101 0)
(-0.0939574 -0.381928 0)
(-0.106774 -0.378204 0)
(-0.119678 -0.373871 0)
(-0.132665 -0.36887 0)
(-0.145723 -0.363144 0)
(-0.158837 -0.356631 0)
(-0.171973 -0.349259 0)
(-0.185083 -0.340957 0)
(-0.198097 -0.331657 0)
(-0.210945 -0.321306 0)
(-0.223569 -0.309841 0)
(-0.235814 -0.297232 0)
(-0.24744 -0.283611 0)
(-0.258625 -0.269302 0)
(-0.269939 -0.254369 0)
(-0.28049 -0.237948 0)
(-0.00551118 -0.351971 0)
(-0.0170264 -0.369332 0)
(-0.028379 -0.368669 0)
(-0.039921 -0.367518 0)
(-0.0514147 -0.365851 0)
(-0.0629341 -0.363677 0)
(-0.0744663 -0.360973 0)
(-0.0860161 -0.357709 0)
(-0.0975837 -0.353865 0)
(-0.109163 -0.349415 0)
(-0.12074 -0.344316 0)
(-0.1323 -0.338525 0)
(-0.143823 -0.332 0)
(-0.155282 -0.324702 0)
(-0.166638 -0.316585 0)
(-0.177833 -0.307611 0)
(-0.188805 -0.297748 0)
(-0.199505 -0.286965 0)
(-0.209817 -0.27523 0)
(-0.21953 -0.262605 0)
(-0.228748 -0.24932 0)
(-0.237933 -0.235545 0)
(-0.246417 -0.220795 0)
(-0.00483287 -0.330279 0)
(-0.0152494 -0.346896 0)
(-0.0256983 -0.346446 0)
(-0.0361379 -0.345364 0)
(-0.0465527 -0.343761 0)
(-0.0569462 -0.341603 0)
(-0.067321 -0.338913 0)
(-0.077682 -0.335663 0)
(-0.0880236 -0.331827 0)
(-0.0983375 -0.327391 0)
(-0.108611 -0.322335 0)
(-0.118827 -0.316632 0)
(-0.12896 -0.310255 0)
(-0.138983 -0.303179 0)
(-0.14886 -0.29538 0)
(-0.158541 -0.286838 0)
(-0.167973 -0.277542 0)
(-0.177116 -0.267482 0)
(-0.185886 -0.256637 0)
(-0.194111 -0.245023 0)
(-0.201832 -0.232786 0)
(-0.209423 -0.220106 0)
(-0.216413 -0.206748 0)
(-0.00418965 -0.310918 0)
(-0.0135899 -0.326988 0)
(-0.0230618 -0.326558 0)
(-0.0323485 -0.325488 0)
(-0.0416506 -0.323898 0)
(-0.0509252 -0.321767 0)
(-0.0601784 -0.319097 0)
(-0.0694035 -0.315888 0)
(-0.0785902 -0.312125 0)
(-0.0877279 -0.307792 0)
(-0.0968035 -0.302874 0)
(-0.1058 -0.297355 0)
(-0.114693 -0.29122 0)
(-0.123457 -0.284454 0)
(-0.132055 -0.277045 0)
(-0.140446 -0.268983 0)
(-0.148582 -0.260267 0)
(-0.156428 -0.2509 0)
(-0.163931 -0.240875 0)
(-0.170955 -0.230192 0)
(-0.177494 -0.218926 0)
(-0.183837 -0.207232 0)
(-0.189702 -0.195049 0)
(-0.00382691 -0.294016 0)
(-0.0121205 -0.309553 0)
(-0.0203562 -0.309065 0)
(-0.0285947 -0.30799 0)
(-0.0368165 -0.306389 0)
(-0.0450318 -0.304288 0)
(-0.053226 -0.301661 0)
(-0.0613838 -0.298511 0)
(-0.0694951 -0.294841 0)
(-0.0775477 -0.29064 0)
(-0.0855254 -0.285892 0)
(-0.0934092 -0.280585 0)
(-0.101177 -0.274711 0)
(-0.108805 -0.268263 0)
(-0.116263 -0.261237 0)
(-0.123517 -0.253632 0)
(-0.130526 -0.245451 0)
(-0.137263 -0.236704 0)
(-0.143693 -0.227398 0)
(-0.149722 -0.21753 0)
(-0.155299 -0.207137 0)
(-0.160643 -0.196336 0)
(-0.165634 -0.18519 0)
(-0.00350284 -0.279369 0)
(-0.0106382 -0.294135 0)
(-0.0176477 -0.293631 0)
(-0.0249035 -0.292539 0)
(-0.0321185 -0.290952 0)
(-0.0393338 -0.288878 0)
(-0.046522 -0.286314 0)
(-0.05367 -0.283252 0)
(-0.0607691 -0.27969 0)
(-0.067807 -0.275625 0)
(-0.0747662 -0.271049 0)
(-0.0816268 -0.265954 0)
(-0.0883677 -0.260335 0)
(-0.0949671 -0.254192 0)
(-0.101401 -0.247524 0)
(-0.107643 -0.240338 0)
(-0.113661 -0.23264 0)
(-0.119432 -0.224445 0)
(-0.124937 -0.215765 0)
(-0.13011 -0.206604 0)
(-0.134876 -0.196984 0)
(-0.139395 -0.18701 0)
(-0.143675 -0.176821 0)
(-0.00296999 -0.266545 0)
(-0.00904414 -0.280426 0)
(-0.015105 -0.279939 0)
(-0.0213895 -0.278838 0)
(-0.0276601 -0.277277 0)
(-0.0339173 -0.275243 0)
(-0.0401465 -0.272749 0)
(-0.0463384 -0.269788 0)
(-0.0524812 -0.266348 0)
(-0.0585612 -0.262427 0)
(-0.0645628 -0.258022 0)
(-0.0704692 -0.253134 0)
(-0.0762624 -0.247764 0)
(-0.0819234 -0.241915 0)
(-0.0874324 -0.235591 0)
(-0.0927675 -0.2288 0)
(-0.0979038 -0.221552 0)
(-0.10282 -0.21386 0)
(-0.107505 -0.205739 0)
(-0.11191 -0.197195 0)
(-0.115957 -0.188251 0)
(-0.119762 -0.179028 0)
(-0.123415 -0.169714 0)
(-0.00236112 -0.255388 0)
(-0.00754136 -0.268548 0)
(-0.0128571 -0.268049 0)
(-0.0181979 -0.266949 0)
(-0.0235528 -0.265408 0)
(-0.0288846 -0.263425 0)
(-0.034195 -0.261 0)
(-0.0394749 -0.258127 0)
(-0.0447089 -0.254803 0)
(-0.0498827 -0.251023 0)
(-0.054983 -0.246789 0)
(-0.0599963 -0.242104 0)
(-0.0649075 -0.236973 0)
(-0.0697003 -0.231403 0)
(-0.0743573 -0.2254 0)
(-0.0788604 -0.218973 0)
(-0.0831893 -0.212133 0)
(-0.0873257 -0.204892 0)
(-0.0912578 -0.197265 0)
(-0.0949506 -0.189259 0)
(-0.0983351 -0.180896 0)
(-0.101498 -0.172312 0)
(-0.104556 -0.163735 0)
(-0.00189734 -0.245971 0)
(-0.00629856 -0.258675 0)
(-0.0108657 -0.25813 0)
(-0.0153143 -0.257011 0)
(-0.019778 -0.255476 0)
(-0.024229 -0.253528 0)
(-0.0286635 -0.251156 0)
(-0.0330697 -0.248354 0)
(-0.0374341 -0.245126 0)
(-0.0417455 -0.241475 0)
(-0.0459933 -0.2374 0)
(-0.0501653 -0.232904 0)
(-0.0542478 -0.227993 0)
(-0.0582261 -0.222676 0)
(-0.0620851 -0.21696 0)
(-0.0658093 -0.210854 0)
(-0.0693824 -0.204369 0)
(-0.0727889 -0.197518 0)
(-0.0760172 -0.190315 0)
(-0.0790411 -0.182768 0)
(-0.0818081 -0.174895 0)
(-0.0843797 -0.166823 0)
(-0.0868648 -0.158799 0)
(-0.00159288 -0.238058 0)
(-0.00522994 -0.250486 0)
(-0.00896237 -0.249886 0)
(-0.0125761 -0.248728 0)
(-0.0162014 -0.247188 0)
(-0.019828 -0.245255 0)
(-0.0234378 -0.242922 0)
(-0.0270166 -0.240187 0)
(-0.0305565 -0.237053 0)
(-0.034051 -0.233521 0)
(-0.037491 -0.229592 0)
(-0.0408651 -0.225269 0)
(-0.0441608 -0.220557 0)
(-0.0473658 -0.215465 0)
(-0.0504678 -0.210003 0)
(-0.0534544 -0.204179 0)
(-0.0563124 -0.198004 0)
(-0.0590291 -0.19149 0)
(-0.0615939 -0.184651 0)
(-0.0639886 -0.177497 0)
(-0.0661793 -0.170043 0)
(-0.0682034 -0.16238 0)
(-0.0701411 -0.154745 0)
(-0.00124498 -0.231954 0)
(-0.00405995 -0.244135 0)
(-0.0069958 -0.243473 0)
(-0.00984801 -0.242277 0)
(-0.0127122 -0.240722 0)
(-0.0155695 -0.238792 0)
(-0.0184065 -0.236486 0)
(-0.0212125 -0.233805 0)
(-0.0239825 -0.230748 0)
(-0.0267108 -0.227312 0)
(-0.0293892 -0.223495 0)
(-0.0320078 -0.219303 0)
(-0.0345575 -0.214742 0)
(-0.0370295 -0.209823 0)
(-0.039415 -0.204555 0)
(-0.0417046 -0.198948 0)