/*--------------------------------*- C++ -*----------------------------------*\
| =========                 |                                                 |
| \\      /  F ield         | OpenFOAM: The Open Source CFD Toolbox           |
|  \\    /   O peration     | Version:  2206                                  |
|   \\  /    A nd           | Website:  www.openfoam.com                      |
|    \\/     M anipulation  |                                                 |
\*---------------------------------------------------------------------------*/
FoamFile
{
    version     2.0;
    format      ascii;
    arch        "LSB;label=32;scalar=64";
    class       surfaceScalarField;
    location    "0.025";
    object      phi;
}
// * * * * * * * * * * * * * * * * * * * * * * * * * * * * * * * * * * * * * //

dimensions      [0 3 -1 0 0 0 0];

oriented        oriented;

internalField   nonuniform List<scalar> 
4432
(
1.76378e-06
-1.76378e-06
3.5762e-06
-1.81252e-06
5.44176e-06
-1.86555e-06
7.40749e-06
-1.96564e-06
9.52116e-06
-2.11371e-06
1.18472e-05
-2.32597e-06
1.44783e-05
-2.63116e-06
1.75605e-05
-3.08211e-06
2.13436e-05
-3.78314e-06
2.63533e-05
-5.00959e-06
3.35367e-05
-7.18356e-06
4.57903e-05
-1.22535e-05
6.87494e-05
-2.2959e-05
6.69725e-05
1.77748e-06
5.07635e-05
1.62081e-05
3.82775e-05
1.24852e-05
2.74731e-05
1.08034e-05
2.10092e-05
6.46398e-06
1.63742e-05
4.63621e-06
1.23687e-05
4.00491e-06
8.46649e-06
3.90187e-06
4.36623e-06
4.10072e-06
4.36509e-06
1.75868e-06
-3.52243e-06
3.56526e-06
-3.61907e-06
5.42393e-06
-3.72424e-06
7.38068e-06
-3.9223e-06
9.48186e-06
-4.2149e-06
1.17892e-05
-4.63325e-06
1.43902e-05
-5.2323e-06
1.74189e-05
-6.11073e-06
2.1093e-05
-7.45738e-06
2.58106e-05
-9.72716e-06
3.20997e-05
-1.34728e-05
4.17723e-05
-2.1926e-05
5.84465e-05
-3.96333e-05
7.13296e-05
-1.1105e-05
5.98719e-05
2.76664e-05
3.86037e-05
3.37531e-05
2.77152e-05
2.16951e-05
2.14325e-05
1.27451e-05
1.67716e-05
9.29607e-06
1.27402e-05
8.03609e-06
8.785e-06
7.8533e-06
4.56928e-06
8.31659e-06
8.93373e-06
1.74576e-06
-5.26819e-06
3.53777e-06
-5.41099e-06
5.37978e-06
-5.56625e-06
7.31562e-06
-5.8581e-06
9.38874e-06
-6.28806e-06
1.16557e-05
-6.90018e-06
1.4194e-05
-7.77069e-06
1.7116e-05
-9.03262e-06
2.05881e-05
-1.09295e-05
2.48529e-05
-1.39917e-05
3.01907e-05
-1.88106e-05
3.73208e-05
-2.90562e-05
4.46481e-05
-4.69605e-05
4.79924e-05
-1.44493e-05
3.85234e-05
3.7133e-05
3.03602e-05
4.19161e-05
2.51092e-05
2.69497e-05
2.03909e-05
1.74631e-05
1.63074e-05
1.33791e-05
1.25754e-05
1.17696e-05
8.79929e-06
1.16279e-05
4.65572e-06
1.24584e-05
1.35891e-05
1.72661e-06
-6.99477e-06
3.49707e-06
-7.18137e-06
5.3145e-06
-7.38369e-06
7.21966e-06
-7.76331e-06
9.25196e-06
-8.32043e-06
1.14608e-05
-9.10911e-06
1.39109e-05
-1.02207e-05
1.6688e-05
-1.18096e-05
1.99023e-05
-1.4144e-05
2.36626e-05
-1.7752e-05
2.80388e-05
-2.31869e-05
3.27688e-05
-3.37861e-05
3.4874e-05
-4.90657e-05
3.05886e-05
-1.01648e-05
2.59091e-05
4.18133e-05
2.54071e-05
4.24182e-05
2.29676e-05
2.93886e-05
1.94075e-05
2.10223e-05
1.59148e-05
1.68705e-05
1.25255e-05
1.51609e-05
8.96694e-06
1.51849e-05
4.88835e-06
1.65356e-05
1.84779e-05
1.70155e-06
-8.69629e-06
3.4439e-06
-8.92372e-06
5.22942e-06
-9.16924e-06
7.09508e-06
-9.62902e-06
9.07538e-06
-1.03007e-05
1.12116e-05
-1.12453e-05
1.35538e-05
-1.2563e-05
1.61612e-05
-1.44169e-05
1.90922e-05
-1.70751e-05
2.23584e-05
-2.10181e-05
2.58766e-05
-2.67052e-05
2.89594e-05
-3.6869e-05
3.01939e-05
-5.03e-05
2.3287e-05
-3.25658e-06
2.15157e-05
4.35854e-05
2.26359e-05
4.12962e-05
2.11621e-05
3.08609e-05
1.84465e-05
2.37419e-05
1.55167e-05
1.98001e-05
1.25211e-05
1.81556e-05
9.25399e-06
1.84502e-05
5.28554e-06
2.05039e-05
2.37639e-05
1.67101e-06
-1.03673e-05
3.37924e-06
-1.0632e-05
5.12625e-06
-1.09163e-05
6.94471e-06
-1.14475e-05
8.86369e-06
-1.22197e-05
1.09159e-05
-1.32974e-05
1.3137e-05
-1.47842e-05
1.55619e-05
-1.68417e-05
1.82069e-05
-1.97202e-05
2.10202e-05
-2.38314e-05
2.38195e-05
-2.95045e-05
2.5869e-05
-3.89185e-05
2.66638e-05
-5.10947e-05
1.98288e-05
3.57746e-06
1.95894e-05
4.38235e-05
2.06088e-05
4.02799e-05
1.96165e-05
3.18531e-05
1.75439e-05
2.58144e-05
1.51371e-05
2.22046e-05
1.25789e-05
2.07145e-05
9.69731e-06
2.13316e-05
5.93426e-06
2.42673e-05
2.96975e-05
1.63549e-06
-1.20028e-05
3.30424e-06
-1.23008e-05
5.00696e-06
-1.26189e-05
6.7717e-06
-1.32122e-05
8.62194e-06
-1.40699e-05
1.05819e-05
-1.52573e-05
1.26742e-05
-1.68766e-05
1.49126e-05
-1.90801e-05
1.72825e-05
-2.20902e-05
1.96957e-05
-2.62445e-05
2.19092e-05
-3.17179e-05
2.33184e-05
-4.03277e-05
2.38117e-05
-5.15879e-05
1.77688e-05
9.62134e-06
1.81481e-05
4.34434e-05
1.89724e-05
3.94561e-05
1.82965e-05
3.25292e-05
1.6723e-05
2.73879e-05
1.47965e-05
2.41284e-05
1.27127e-05
2.27996e-05
1.03445e-05
2.37005e-05
6.98904e-06
2.76239e-05
3.66846e-05
1.59542e-06
-1.35982e-05
3.21972e-06
-1.39252e-05
4.87296e-06
-1.42721e-05
6.57833e-06
-1.49176e-05
8.35374e-06
-1.58453e-05
1.02153e-05
-1.71189e-05
1.21738e-05
-1.88352e-05
1.42263e-05
-2.11327e-05
1.63373e-05
-2.42011e-05
1.84038e-05
-2.8311e-05
2.01255e-05
-3.34396e-05
2.11248e-05
-4.1327e-05
2.0802e-05
-5.12647e-05
1.64503e-05
1.39738e-05
1.6926e-05
4.29675e-05
1.76355e-05
3.87459e-05
1.71697e-05
3.29934e-05
1.59866e-05
2.8572e-05
1.44966e-05
2.56168e-05
1.29146e-05
2.43815e-05
1.12216e-05
2.5393e-05
8.4473e-06
3.03988e-05
4.51306e-05
1.50313e-06
-1.50313e-06
2.64409e-06
-1.14076e-06
3.33431e-06
-6.90126e-07
3.66242e-06
-3.28059e-07
3.73821e-06
-7.59017e-08
3.65316e-06
8.49016e-08
3.46984e-06
1.83287e-07
3.22841e-06
2.41363e-07
2.95411e-06
2.74182e-07
2.66224e-06
2.91674e-07
2.36242e-06
2.99909e-07
2.06009e-06
3.02385e-07
1.75844e-06
3.01458e-07
1.45898e-06
2.99192e-07
1.16248e-06
2.96647e-07
8.68797e-07
2.94019e-07
5.77562e-07
2.9153e-07
2.88193e-07
2.8973e-07
2.88826e-07
1.58225e-06
-3.08529e-06
2.75143e-06
-2.3097e-06
3.43634e-06
-1.37503e-06
3.74908e-06
-6.40902e-07
3.81036e-06
-1.37354e-07
3.71466e-06
1.8039e-07
3.52315e-06
3.74626e-07
3.27494e-06
4.894e-07
2.99485e-06
5.54471e-07
2.69784e-06
5.88713e-07
2.39327e-06
6.04129e-07
2.0865e-06
6.08576e-07
1.78075e-06
6.07214e-07
1.47739e-06
6.03074e-07
1.17704e-06
5.97665e-07
8.79584e-07
5.91923e-07
5.84712e-07
5.87015e-07
2.91756e-07
5.83785e-07
5.8123e-07
1.71683e-06
-4.80202e-06
2.9139e-06
-3.50654e-06
3.56826e-06
-2.0294e-06
3.84028e-06
-9.13031e-07
3.86794e-06
-1.65217e-07
3.74883e-06
2.99373e-07
3.54218e-06
5.81506e-07
3.28467e-06
7.4702e-07
2.99898e-06
8.40037e-07
2.6987e-06
8.8846e-07
2.39236e-06
9.1009e-07
2.08477e-06
9.16186e-07
1.77875e-06
9.13725e-07
1.47538e-06
9.06794e-07
1.1752e-06
8.98002e-07
8.78105e-07
8.89255e-07
5.83738e-07
8.82127e-07
2.91318e-07
8.77338e-07
8.73144e-07
1.93849e-06
-6.7404e-06
3.17082e-06
-4.73868e-06
3.76934e-06
-2.62796e-06
3.97569e-06
-1.11948e-06
3.9526e-06
-1.42214e-07
3.79999e-06
4.51977e-07
3.57204e-06
8.09697e-07
3.30136e-06
1.01764e-06
3.0076e-06
1.13348e-06
2.70249e-06
1.19312e-06
2.39335e-06
1.21913e-06
2.08424e-06
1.22549e-06
1.77743e-06
1.22084e-06
1.47375e-06
1.21052e-06
1.17359e-06
1.19822e-06
8.76796e-07
1.18649e-06
5.8286e-07
1.17698e-06
2.90881e-07
1.1704e-06
1.1645e-06
2.27414e-06
-9.01444e-06
3.53811e-06
-6.00251e-06
4.04199e-06
-3.13191e-06
4.15303e-06
-1.23058e-06
4.06099e-06
-5.02256e-08
3.86488e-06
6.48047e-07
3.60964e-06
1.06508e-06
3.32223e-06
1.30494e-06
3.01828e-06
1.43718e-06
2.7071e-06
1.50406e-06
2.39443e-06
1.5318e-06
2.08335e-06
1.53662e-06
1.77553e-06
1.52869e-06
1.4715e-06
1.51449e-06
1.17145e-06
1.49848e-06
8.75067e-07
1.48352e-06
5.81663e-07
1.47133e-06
2.90249e-07
1.46273e-06
1.45509e-06
2.75897e-06
-1.17733e-05
4.03714e-06
-7.28056e-06
4.3871e-06
-3.48187e-06
4.36525e-06
-1.20875e-06
4.19089e-06
1.24056e-07
3.94055e-06
8.98343e-07
3.65304e-06
1.35271e-06
3.34607e-06
1.61185e-06
3.03028e-06
1.75283e-06
2.71203e-06
1.82215e-06
2.39524e-06
1.84855e-06
2.08187e-06
1.84989e-06
1.77293e-06
1.83758e-06
1.46858e-06
1.81889e-06
1.16873e-06
1.7987e-06
8.72853e-07
1.7801e-06
5.801e-07
1.7649e-06
2.89411e-07
1.75411e-06
1.74472e-06
3.43732e-06
-1.52105e-05
4.69545e-06
-8.53855e-06
4.80215e-06
-3.58838e-06
4.60802e-06
-1.01464e-06
4.33242e-06
3.99603e-07
4.02297e-06
1.20779e-06
3.69991e-06
1.67588e-06
3.37149e-06
1.94023e-06
3.04274e-06
2.08146e-06
2.71673e-06
2.14797e-06
2.39542e-06
2.16977e-06
2.0796e-06
2.16565e-06
1.76952e-06
2.14771e-06
1.46491e-06
2.12368e-06
1.16535e-06
2.0987e-06
8.70093e-07
2.07598e-06
5.78142e-07
2.05748e-06
2.88366e-07
2.04439e-06
2.03326e-06
5.12951e-06
-2.03397e-05
5.60924e-06
-9.01833e-06
5.27965e-06
-3.25874e-06
4.86704e-06
-6.02082e-07
4.48018e-06
7.86515e-07
4.10818e-06
1.5799e-06
3.74804e-06
2.0361e-06
3.39725e-06
2.29091e-06
3.05493e-06
2.42356e-06
2.72081e-06
2.48186e-06
2.39478e-06
2.49571e-06
2.07644e-06
2.48402e-06
1.76523e-06
2.45907e-06
1.46044e-06
2.42875e-06
1.16128e-06
2.39828e-06
8.66771e-07
2.37095e-06
5.75787e-07
2.34888e-06
2.87123e-07
2.33341e-06
2.32052e-06
3.24786e-06
-1.68461e-05
6.54314e-06
-1.72205e-05
9.88304e-06
-1.7612e-05
1.33021e-05
-1.83367e-05
1.68218e-05
-1.93649e-05
2.04541e-05
-2.07512e-05
2.41929e-05
-2.2574e-05
2.79954e-05
-2.49353e-05
3.17537e-05
-2.79594e-05
3.52326e-05
-3.17899e-05
3.82268e-05
-3.64338e-05
3.95825e-05
-4.26827e-05
4.07836e-05
-5.24652e-05
3.1831e-05
2.2926e-05
3.30682e-05
4.17306e-05
3.38924e-05
3.79239e-05
3.33149e-05
3.35708e-05
3.18128e-05
3.00757e-05
2.99307e-05
2.74989e-05
2.82953e-05
2.6016e-05
2.79571e-05
2.57295e-05
3.19653e-05
2.63904e-05
2.71479e-05
4.99475e-05
3.02157e-06
-1.98676e-05
6.07212e-06
-2.02711e-05
9.1457e-06
-2.06855e-05
1.22588e-05
-2.14499e-05
1.54146e-05
-2.25207e-05
1.86037e-05
-2.39403e-05
2.17956e-05
-2.57659e-05
2.4926e-05
-2.80657e-05
2.78788e-05
-3.09121e-05
3.04628e-05
-3.43739e-05
3.24414e-05
-3.84124e-05
3.32628e-05
-4.35042e-05
3.33173e-05
-5.25193e-05
2.82993e-05
2.79436e-05
2.91952e-05
4.08319e-05
2.99351e-05
3.71849e-05
2.98499e-05
3.36557e-05
2.92273e-05
3.06983e-05
2.84621e-05
2.82646e-05
2.8085e-05
2.63924e-05
2.88723e-05
2.49407e-05
3.18468e-05
2.34156e-05
2.10044e-05
3.79897e-05
2.77957e-06
-2.26472e-05
5.57161e-06
-2.30631e-05
8.36887e-06
-2.34829e-05
1.11733e-05
-2.42543e-05
1.39754e-05
-2.53228e-05
1.67531e-05
-2.6718e-05
1.94654e-05
-2.84782e-05
2.20437e-05
-3.0644e-05
2.43835e-05
-3.32519e-05
2.63351e-05
-3.63256e-05
2.77232e-05
-3.98005e-05
2.82477e-05
-4.40287e-05
2.81636e-05
-5.24348e-05
2.49034e-05
3.12059e-05
2.59165e-05
3.98177e-05
2.66828e-05
3.64181e-05
2.68969e-05
3.34416e-05
2.67733e-05
3.08201e-05
2.65685e-05
2.8469e-05
2.65851e-05
2.63755e-05
2.7126e-05
2.43996e-05
2.8332e-05
2.22102e-05
1.92713e-05
3.00643e-05
2.53192e-06
-2.51792e-05
5.06277e-06
-2.5594e-05
7.58536e-06
-2.60055e-05
1.00909e-05
-2.67598e-05
1.2562e-05
-2.77939e-05
1.49707e-05
-2.91266e-05
1.72731e-05
-3.07806e-05
1.94059e-05
-3.27769e-05
2.12822e-05
-3.51282e-05
2.279e-05
-3.78334e-05
2.38113e-05
-4.08218e-05
2.4167e-05
-4.43844e-05
2.40357e-05
-5.23031e-05
2.23068e-05
3.29357e-05
2.32075e-05
3.89172e-05
2.391e-05
3.57139e-05
2.42656e-05
3.30863e-05
2.43942e-05
3.06902e-05
2.44385e-05
2.84247e-05
2.45502e-05
2.62639e-05
2.48412e-05
2.41086e-05
2.52771e-05
2.17738e-05
1.90327e-05
2.55144e-05
2.28669e-06
-2.74659e-05
4.56202e-06
-2.78693e-05
6.81981e-06
-2.82633e-05
9.04395e-06
-2.89838e-05
1.12129e-05
-2.99629e-05
1.32969e-05
-3.12105e-05
1.52541e-05
-3.27379e-05
1.70294e-05
-3.45523e-05
1.85534e-05
-3.66523e-05
1.97443e-05
-3.90243e-05
2.05235e-05
-4.1601e-05
2.07753e-05
-4.46362e-05
2.05981e-05
-5.21255e-05
1.98632e-05
3.36695e-05
2.07486e-05
3.80318e-05
2.1426e-05
3.5035e-05
2.18524e-05
3.26598e-05
2.21e-05
3.04422e-05
2.22434e-05
2.82817e-05
2.23522e-05
2.61548e-05
2.24576e-05
2.4003e-05
2.24934e-05
2.17379e-05
1.92817e-05
2.22439e-05
2.0498e-06
-2.95157e-05
4.08099e-06
-2.99005e-05
6.08898e-06
-3.02712e-05
8.05318e-06
-3.0948e-05
9.95063e-06
-3.18604e-05
1.17521e-05
-3.3012e-05
1.34199e-05
-3.44057e-05
1.49077e-05
-3.60401e-05
1.6161e-05
-3.79056e-05
1.71197e-05
-3.9983e-05
1.7731e-05
-4.22123e-05
1.79145e-05
-4.48196e-05
1.76969e-05
-5.19077e-05
1.75654e-05
3.37989e-05
1.84751e-05
3.71222e-05
1.91519e-05
3.43572e-05
1.9614e-05
3.2197e-05
1.99121e-05
3.01432e-05
2.00862e-05
2.81077e-05
2.01666e-05
2.60737e-05
2.01573e-05
2.4012e-05
2.00078e-05
2.18873e-05
1.9683e-05
1.96065e-05
1.82511e-06
-3.13408e-05
3.62702e-06
-3.17024e-05
5.403e-06
-3.20472e-05
7.13023e-06
-3.26752e-05
8.78601e-06
-3.35162e-05
1.0343e-05
-3.4569e-05
1.17683e-05
-3.5831e-05
1.30234e-05
-3.72952e-05
1.40655e-05
-3.89477e-05
1.48501e-05
-4.07676e-05
1.53404e-05
-4.27025e-05
1.54767e-05
-4.4956e-05
1.5223e-05
-5.16538e-05
1.54582e-05
3.35625e-05
1.63855e-05
3.61948e-05
1.70631e-05
3.36784e-05
1.75386e-05
3.17204e-05
1.78513e-05
2.98299e-05
1.80257e-05
2.79335e-05
1.8077e-05
2.60217e-05
1.80052e-05
2.40835e-05
1.77804e-05
2.21116e-05
2.01138e-05
1.73504e-05
1.61483e-06
-3.29556e-05
3.204e-06
-3.32916e-05
4.76682e-06
-3.36101e-05
6.27983e-06
-3.41882e-05
7.72163e-06
-3.4958e-05
9.0675e-06
-3.59149e-05
1.0289e-05
-3.70526e-05
1.13544e-05
-3.83605e-05
1.22297e-05
-3.98229e-05
1.28809e-05
-4.14187e-05
1.32813e-05
-4.31029e-05
1.33842e-05
-4.50589e-05
1.3096e-05
-5.13655e-05
1.35499e-05
3.31078e-05
1.44834e-05
3.52608e-05
1.51555e-05
3.3005e-05
1.56272e-05
3.12483e-05
1.59321e-05
2.9525e-05
1.60904e-05
2.77756e-05
1.61149e-05
2.59963e-05
1.601e-05
2.41886e-05
1.5762e-05
2.23591e-05
2.05267e-05
1.535e-05
1.41979e-06
-3.43754e-05
2.81312e-06
-3.46849e-05
4.1814e-06
-3.49784e-05
5.50169e-06
-3.55085e-05
6.75449e-06
-3.62108e-05
7.91796e-06
-3.70784e-05
8.9678e-06
-3.81024e-05
9.87763e-06
-3.92703e-05
1.06198e-05
-4.05651e-05
1.11676e-05
-4.19664e-05
1.15002e-05
-4.34355e-05
1.15787e-05
-4.51373e-05
1.1257e-05
-5.10435e-05
1.18483e-05
3.25152e-05
1.27773e-05
3.43314e-05
1.34338e-05
3.23475e-05
1.38843e-05
3.07981e-05
1.41619e-05
2.92474e-05
1.42903e-05
2.76473e-05
1.42861e-05
2.59996e-05
1.416e-05
2.43149e-05
1.39105e-05
2.2609e-05
2.09059e-05
1.35316e-05
1.2398e-06
-3.56152e-05
2.45356e-06
-3.58987e-05
3.64482e-06
-3.61696e-05
4.79199e-06
-3.66557e-05
5.87785e-06
-3.72966e-05
6.88353e-06
-3.80841e-05
7.78835e-06
-3.90073e-05
8.57022e-06
-4.00521e-05
9.20608e-06
-4.1201e-05
9.6735e-06
-4.24337e-05
9.95509e-06
-4.37171e-05
1.00155e-05
-4.51976e-05
9.66187e-06
-5.06895e-05
1.03614e-05
3.18145e-05
1.12803e-05
3.34121e-05
1.19081e-05
3.17189e-05
1.23156e-05
3.03906e-05
1.25432e-05
2.90193e-05
1.26238e-05
2.75663e-05
1.25825e-05
2.60404e-05
1.24354e-05
2.44617e-05
1.21896e-05
2.28552e-05
2.12495e-05
1.18461e-05
1.07389e-06
-3.6689e-05
2.123e-06
-3.69478e-05
3.15309e-06
-3.71997e-05
4.14446e-06
-3.76471e-05
5.08248e-06
-3.82347e-05
5.95126e-06
-3.89529e-05
6.73346e-06
-3.97895e-05
7.4104e-06
-4.0729e-05
7.96224e-06
-4.17528e-05
8.36878e-06
-4.28403e-05
8.61361e-06
-4.39619e-05
8.66036e-06
-4.52444e-05
8.2794e-06
-5.03085e-05
9.10509e-06
3.09881e-05
1.00161e-05
3.25005e-05
1.05954e-05
3.11387e-05
1.0928e-05
3.00577e-05
1.10737e-05
2.88731e-05
1.1081e-05
2.75582e-05
1.09866e-05
2.61348e-05
1.08115e-05
2.46365e-05
1.05671e-05
2.31002e-05
2.15605e-05
1.02566e-05
9.20509e-07
-3.76095e-05
1.81806e-06
-3.78453e-05
2.7007e-06
-3.80823e-05
3.55105e-06
-3.84976e-05
4.35733e-06
-3.9041e-05
5.10674e-06
-3.97023e-05
5.78522e-06
-4.04679e-05
6.37718e-06
-4.13209e-05
6.86504e-06
-4.22406e-05
7.2291e-06
-4.32043e-05
7.45136e-06
-4.41841e-05
7.48811e-06
-4.52811e-05
7.09509e-06
-4.99154e-05
8.12346e-06
2.99588e-05
9.03133e-06
3.15919e-05
9.52406e-06
3.06452e-05
9.72914e-06
2.98521e-05
9.7443e-06
2.88574e-05
9.64249e-06
2.76591e-05
9.47254e-06
2.63051e-05
9.25896e-06
2.48507e-05
9.01134e-06
2.33484e-05
2.18415e-05
8.73119e-06
7.77702e-07
-3.83872e-05
1.53457e-06
-3.86022e-05
2.28105e-06
-3.88288e-05
3.00241e-06
-3.9219e-05
3.68989e-06
-3.97285e-05
4.33412e-06
-4.03465e-05
4.92477e-06
-4.10586e-05
5.44959e-06
-4.18458e-05
5.89309e-06
-4.26841e-05
6.23485e-06
-4.35461e-05
6.45209e-06
-4.44014e-05
6.48101e-06
-4.531e-05
6.08506e-06
-4.95192e-05
7.53022e-06
2.85125e-05
8.42141e-06
3.07005e-05
8.73722e-06
3.03284e-05
8.72314e-06
2.98653e-05
8.53405e-06
2.90463e-05
8.27517e-06
2.79176e-05
8.00363e-06
2.65771e-05
7.741e-06
2.51141e-05
7.48863e-06
2.36009e-05
2.20905e-05
7.23981e-06
6.43223e-07
-3.90304e-05
1.26784e-06
-3.92268e-05
1.88675e-06
-3.94477e-05
2.48803e-06
-3.98203e-05
3.06619e-06
-4.03067e-05
3.61582e-06
-4.08962e-05
4.13115e-06
-4.1574e-05
4.60471e-06
-4.23193e-05
5.02451e-06
-4.31039e-05
5.37043e-06
-4.3892e-05
5.61208e-06
-4.46431e-05
5.63145e-06
-4.53294e-05
5.35916e-06
-4.92467e-05
7.60957e-06
2.62613e-05
8.3458e-06
2.99642e-05
8.29304e-06
3.03801e-05
7.8973e-06
3.02602e-05
7.39662e-06
2.95469e-05
6.92332e-06
2.8391e-05
6.52719e-06
2.69733e-05
6.21256e-06
2.54291e-05
5.96264e-06
2.38511e-05
2.22984e-05
5.75437e-06
5.15339e-07
-3.95458e-05
1.01318e-06
-3.97247e-05
1.51013e-06
-3.99447e-05
1.99669e-06
-4.03069e-05
2.47085e-06
-4.07808e-05
2.93181e-06
-4.13571e-05
3.37972e-06
-4.20219e-05
3.81438e-06
-4.27539e-05
4.23024e-06
-4.35198e-05
4.61602e-06
-4.42777e-05
4.9524e-06
-4.49794e-05
4.94609e-06
-4.53231e-05
6.48228e-06
-5.07829e-05
9.07195e-06
2.36712e-05
9.05114e-06
2.99844e-05
8.22957e-06
3.1201e-05
7.18668e-06
3.13026e-05
6.23827e-06
3.04951e-05
5.49732e-06
2.91323e-05
4.97054e-06
2.75002e-05
4.6194e-06
2.57803e-05
4.39393e-06
2.40767e-05
2.24443e-05
4.24784e-06
3.90686e-07
-3.99365e-05
7.66528e-07
-4.01005e-05
1.14578e-06
-4.03239e-05
1.52048e-06
-4.06816e-05
1.89235e-06
-4.11527e-05
2.26579e-06
-4.17306e-05
2.64912e-06
-4.24052e-05
3.05409e-06
-4.31589e-05
3.48403e-06
-4.39497e-05
3.93819e-06
-4.47319e-05
4.46104e-06
-4.55023e-05
4.41155e-06
-4.52735e-05
7.17911e-06
-5.35506e-05
1.23465e-05
1.85035e-05
1.06267e-05
3.17034e-05
8.41865e-06
3.34083e-05
6.40526e-06
3.33153e-05
4.88434e-06
3.20156e-05
3.86025e-06
3.01563e-05
3.23802e-06
2.81223e-05
2.89966e-06
2.61188e-05
2.74449e-06
2.4232e-05
2.24916e-05
2.69739e-06
2.75335e-07
-4.02119e-05
5.36125e-07
-4.03613e-05
8.0277e-07
-4.05906e-05
1.06964e-06
-4.09486e-05
1.34044e-06
-4.14235e-05
1.62375e-06
-4.20139e-05
1.9374e-06
-4.27189e-05
2.3148e-06
-4.35363e-05
2.80046e-06
-4.44354e-05
3.44021e-06
-4.53716e-05
4.16514e-06
-4.62273e-05
2.33674e-06
-4.3445e-05
1.1629e-05
-6.28428e-05
1.89189e-05
1.12131e-05
1.32038e-05
3.74174e-05
8.52754e-06
3.80835e-05
5.18324e-06
3.66594e-05
3.05882e-06
3.41397e-05
1.83859e-06
3.13765e-05
1.23032e-06
2.87307e-05
9.9781e-07
2.63515e-05
9.85571e-07
2.42446e-05
2.23878e-05
1.08988e-06
1.7523e-07
-4.03872e-05
3.41527e-07
-4.05276e-05
5.13788e-07
-4.07628e-05
6.88295e-07
-4.11231e-05
8.68e-07
-4.16032e-05
1.059e-06
-4.22049e-05
1.27394e-06
-4.29338e-05
1.54274e-06
-4.38051e-05
1.99253e-06
-4.48853e-05
2.86578e-06
-4.62448e-05
4.88049e-06
-4.82421e-05
1.53023e-05
-5.38668e-05
7.40362e-06
-5.49439e-05
2.04981e-05
-1.88218e-06
1.40246e-05
4.38896e-05
7.51973e-06
4.45878e-05
2.89916e-06
4.12798e-05
3.24703e-07
3.67138e-05
-8.15912e-07
3.2517e-05
-1.18203e-06
2.90969e-05
-1.13601e-06
2.63056e-05
-8.933e-07
2.40023e-05
2.20652e-05
-5.70185e-07
-5.21077e-08
-4.03351e-05
-1.15342e-07
-4.04645e-05
-1.74075e-07
-4.07041e-05
-2.37849e-07
-4.10593e-05
-3.05542e-07
-4.15355e-05
-3.77041e-07
-4.21335e-05
-4.4899e-07
-4.28619e-05
-4.77739e-07
-4.37763e-05
-7.45525e-07
-4.46176e-05
2.19452e-07
-4.72096e-05
2.42518e-06
-5.04479e-05
3.94507e-05
-9.08924e-05
0.000126704
-0.000142198
7.16054e-05
5.32163e-05
2.83179e-05
8.71768e-05
5.74142e-06
6.7164e-05
-1.69949e-06
4.87205e-05
-3.89687e-06
3.89111e-05
-4.30096e-06
3.29211e-05
-4.01169e-06
2.88077e-05
-3.47017e-06
2.57644e-05
-2.85609e-06
2.33887e-05
2.14595e-05
-2.24999e-06
-1.71623e-06
-3.86189e-05
-3.5226e-06
-3.86582e-05
-5.34118e-06
-3.88858e-05
-7.20055e-06
-3.92002e-05
-9.09663e-06
-3.96393e-05
-1.09793e-05
-4.02508e-05
-1.2701e-05
-4.11409e-05
-1.40201e-05
-4.24572e-05
-1.40344e-05
-4.46033e-05
-1.10747e-05
-5.01696e-05
-5.98657e-06
-5.55359e-05
6.0039e-06
-0.000102883
-3.45171e-05
-0.000101677
-2.23365e-05
4.10356e-05
-1.8967e-05
8.38072e-05
-1.41386e-05
6.23352e-05
-1.18131e-05
4.63949e-05
-1.00586e-05
3.71567e-05
-8.49877e-06
3.13611e-05
-7.10886e-06
2.74179e-05
-5.8842e-06
2.45402e-05
-4.81495e-06
2.23199e-05
2.05323e-05
-3.88734e-06
-1.90638e-06
-3.6713e-05
-3.73427e-06
-3.68304e-05
-5.64933e-06
-3.69707e-05
-7.64889e-06
-3.72014e-05
-9.7492e-06
-3.75395e-05
-1.19716e-05
-3.80286e-05
-1.4357e-05
-3.8756e-05
-1.69879e-05
-3.9827e-05
-1.9724e-05
-4.18675e-05
-2.42139e-05
-4.56797e-05
-3.34305e-05
-4.63192e-05
-6.91782e-05
-6.7135e-05
-0.000121252
-4.96024e-05
-9.72943e-05
1.70775e-05
-5.40595e-05
4.05723e-05
-3.21509e-05
4.04265e-05
-2.17789e-05
3.60229e-05
-1.61266e-05
3.15043e-05
-1.25642e-05
2.77986e-05
-1.00539e-05
2.49078e-05
-8.14848e-06
2.26351e-05
-6.63313e-06
2.08049e-05
1.92961e-05
-5.39663e-06
-1.94237e-06
-3.47709e-05
-3.88684e-06
-3.48863e-05
-5.89623e-06
-3.49611e-05
-8.00794e-06
-3.50897e-05
-1.0266e-05
-3.52816e-05
-1.27381e-05
-3.55573e-05
-1.55399e-05
-3.59542e-05
-1.88489e-05
-3.65184e-05
-2.33022e-05
-3.74142e-05
-3.09109e-05
-3.8071e-05
-3.87183e-05
-3.8512e-05
-6.30892e-05
-4.27642e-05
-8.71094e-05
-2.55821e-05
-7.35882e-05
3.55602e-06
-5.22822e-05
1.92664e-05
-3.67238e-05
2.48683e-05
-2.65577e-05
2.58567e-05
-1.99721e-05
2.49186e-05
-1.55344e-05
2.33609e-05
-1.23753e-05
2.17487e-05
-1.00099e-05
2.02699e-05
-8.16795e-06
1.89632e-05
1.78198e-05
-6.69135e-06
-1.9664e-06
-3.28046e-05
-3.96238e-06
-3.2891e-05
-6.02542e-06
-3.28988e-05
-8.20086e-06
-3.2915e-05
-1.05434e-05
-3.29388e-05
-1.31405e-05
-3.29606e-05
-1.61185e-05
-3.29765e-05
-1.96803e-05
-3.29567e-05
-2.42169e-05
-3.28776e-05
-3.00941e-05
-3.21939e-05
-3.75055e-05
-3.11006e-05
-5.17559e-05
-2.85136e-05
-6.02123e-05
-1.71256e-05
-5.47473e-05
-1.9089e-06
-4.45793e-05
9.09846e-06
-3.50295e-05
1.53183e-05
-2.7344e-05
1.81709e-05
-2.15179e-05
1.90923e-05
-1.71653e-05
1.90082e-05
-1.38761e-05
1.84595e-05
-1.13361e-05
1.77299e-05
-9.32928e-06
1.69565e-05
1.62018e-05
-7.71114e-06
-1.96731e-06
-3.08372e-05
-3.97015e-06
-3.08877e-05
-6.04064e-06
-3.08279e-05
-8.22409e-06
-3.0732e-05
-1.05757e-05
-3.05874e-05
-1.3155e-05
-3.0381e-05
-1.60692e-05
-3.00628e-05
-1.94524e-05
-2.95737e-05
-2.35498e-05
-2.87803e-05
-2.83647e-05
-2.73793e-05
-3.42814e-05
-2.5184e-05
-4.16672e-05
-2.11277e-05
-4.54203e-05
-1.33722e-05
-4.32984e-05
-4.03069e-06
-3.79756e-05
3.77537e-06
-3.18915e-05
9.23404e-06
-2.6286e-05
1.25651e-05
-2.15514e-05
1.43574e-05
-1.77016e-05
1.5158e-05
-1.4608e-05
1.53657e-05
-1.21168e-05
1.52387e-05
-1.00937e-05
1.49334e-05
1.45411e-05
-8.43286e-06
-1.9371e-06
-2.89006e-05
-3.90848e-06
-2.89167e-05
-5.94156e-06
-2.8795e-05
-8.07354e-06
-2.86e-05
-1.03469e-05
-2.83142e-05
-1.28189e-05
-2.79088e-05
-1.55494e-05
-2.73328e-05
-1.86144e-05
-2.65089e-05
-2.20874e-05
-2.5307e-05
-2.59403e-05
-2.35265e-05
-3.01934e-05
-2.09308e-05
-3.43161e-05
-1.70047e-05
-3.63096e-05
-1.13786e-05
-3.53251e-05
-5.0154e-06
-3.2346e-05
7.9604e-07
-2.84317e-05
5.31963e-06
-2.44102e-05
8.54334e-06
-2.07049e-05
1.06517e-05
-1.74726e-05
1.19254e-05
-1.47273e-05
1.26202e-05
-1.24214e-05
1.29327e-05
-1.04892e-05
1.30011e-05
1.29179e-05
-8.86593e-06
-1.87691e-06
-2.70235e-05
-3.78331e-06
-2.70096e-05
-5.74161e-06
-2.68364e-05
-7.78026e-06
-2.65613e-05
-9.93071e-06
-2.6164e-05
-1.22269e-05
-2.56126e-05
-1.47011e-05
-2.48588e-05
-1.7379e-05
-2.38312e-05
-2.02582e-05
-2.24279e-05
-2.32699e-05
-2.05146e-05
-2.6267e-05
-1.79334e-05
-2.87825e-05
-1.44893e-05
-2.99849e-05
-1.01764e-05
-2.95149e-05
-5.48542e-06
-2.77249e-05
-9.93994e-07
-2.51337e-05
2.72822e-06
-2.22466e-05
5.656e-06
-1.93947e-05
7.79943e-06
-1.6756e-05
9.28635e-06
-1.44032e-05
1.02671e-05
-1.23478e-05
1.0877e-05
-1.05708e-05
1.12239e-05
1.1388e-05
-9.04098e-06
-1.79107e-06
-2.52329e-05
-3.60626e-06
-2.51949e-05
-5.46092e-06
-2.49818e-05
-7.37493e-06
-2.4647e-05
-9.36844e-06
-2.41707e-05
-1.14581e-05
-2.35232e-05
-1.36534e-05
-2.26632e-05
-1.595e-05
-2.15346e-05
-1.83128e-05
-2.00654e-05
-2.06547e-05
-1.81727e-05
-2.28134e-05
-1.57747e-05
-2.4486e-05
-1.28168e-05
-2.52912e-05
-9.3712e-06
-2.50656e-05
-5.71096e-06
-2.39047e-05
-2.15488e-06
-2.21542e-05
9.77532e-07
-2.00642e-05
3.56588e-06
-1.78789e-05
5.61392e-06
-1.57553e-05
7.16245e-06
-1.37806e-05
8.29197e-06
-1.19932e-05
9.08923e-06
-1.04019e-05
9.6323e-06
9.98464e-06
-8.99864e-06
-1.68547e-06
-2.3547e-05
-3.3891e-06
-2.3491e-05
-5.12021e-06
-2.3251e-05
-6.89069e-06
-2.28765e-05
-8.71055e-06
-2.23508e-05
-1.05846e-05
-2.16495e-05
-1.2508e-05
-2.07398e-05
-1.44606e-05
-1.95819e-05
-1.6397e-05
-1.81293e-05
-1.8234e-05
-1.63358e-05
-1.9841e-05
-1.41676e-05
-2.10317e-05
-1.16262e-05
-2.16148e-05
-8.78803e-06
-2.15061e-05
-5.81962e-06
-2.07401e-05
-2.92078e-06
-1.95251e-05
-2.37495e-07
-1.79862e-05
2.02683e-06
-1.6307e-05
3.93455e-06
-1.46082e-05
5.46334e-06
-1.29707e-05
6.65407e-06
-1.14415e-05
7.55965e-06
-1.00429e-05
8.23358e-06
8.72303e-06
-8.7814e-06
-1.5662e-06
-2.19811e-05
-3.14493e-06
-2.19124e-05
-4.73993e-06
-2.16559e-05
-6.35744e-06
-2.12592e-05
-7.99938e-06
-2.07087e-05
-9.66277e-06
-1.9986e-05
-1.13355e-05
-1.90675e-05
-1.2991e-05
-1.79266e-05
-1.45847e-05
-1.65359e-05
-1.60472e-05
-1.48733e-05
-1.72831e-05
-1.29316e-05
-1.81778e-05
-1.07316e-05
-1.8628e-05
-8.33792e-06
-1.85878e-05
-5.85965e-06
-1.80849e-05
-3.4236e-06
-1.7188e-05
-1.13433e-06
-1.6053e-05
8.91767e-07
-1.47584e-05
2.63962e-06
-1.34018e-05
4.10645e-06
-1.2053e-05
5.30501e-06
-1.07584e-05
6.26479e-06
-9.54563e-06
7.02063e-06
7.60596e-06
-8.42859e-06
-1.43827e-06
-2.05429e-05
-2.8844e-06
-2.04664e-05
-4.33771e-06
-2.02024e-05
-5.79971e-06
-1.97975e-05
-7.26749e-06
-1.92413e-05
-8.73324e-06
-1.85204e-05
-1.01815e-05
-1.76197e-05
-1.15855e-05
-1.65227e-05
-1.2906e-05
-1.52155e-05
-1.40888e-05
-1.36908e-05
-1.50666e-05
-1.1954e-05
-1.57672e-05
-1.00311e-05
-1.61312e-05
-7.9739e-06
-1.61327e-05
-5.85804e-06
-1.57873e-05
-3.76889e-06
-1.51364e-05
-1.7853e-06
-1.4282e-05
3.72171e-08
-1.3274e-05
1.63139e-06
-1.21889e-05
3.02113e-06
-1.10816e-05
4.19756e-06
-9.9933e-06
5.17622e-06
-8.95173e-06
5.97891e-06
6.6283e-06
-7.9741e-06
-1.30635e-06
-1.92367e-05
-2.61673e-06
-1.91562e-05
-3.92762e-06
-1.88918e-05
-5.23666e-06
-1.84886e-05
-6.53818e-06
-1.79398e-05
-7.82242e-06
-1.72366e-05
-9.07285e-06
-1.63697e-05
-1.02651e-05
-1.53306e-05
-1.13669e-05
-1.41141e-05
-1.23369e-05
-1.27212e-05
-1.3128e-05
-1.11632e-05
-1.36936e-05
-9.46558e-06
-1.39979e-05
-7.6696e-06
-1.40258e-05
-5.83009e-06
-1.37875e-05
-4.00729e-06
-1.33147e-05
-2.25826e-06
-1.26535e-05
-6.2403e-07
-1.18681e-05
8.45882e-07
-1.09991e-05
2.15199e-06
-1.00918e-05
3.29007e-06
-9.1813e-06
4.26547e-06
-8.29337e-06
5.09076e-06
5.78056e-06
-7.44571e-06
-1.17384e-06
-1.80628e-05
-2.34898e-06
-1.79812e-05
-3.51962e-06
-1.77213e-05
-4.68159e-06
-1.73271e-05
-5.82721e-06
-1.67943e-05
-6.94634e-06
-1.6118e-05
-8.02321e-06
-1.52934e-05
-9.03679e-06
-1.43173e-05
-9.96105e-06
-1.31901e-05
-1.07652e-05
-1.19175e-05
-1.14159e-05
-1.05127e-05
-1.18824e-05
-8.99911e-06
-1.21424e-05
-7.40974e-06
-1.21869e-05
-5.7857e-06
-1.2023e-05
-4.1713e-06
-1.16725e-05
-2.60883e-06
-1.11638e-05
-1.13268e-06
-1.05464e-05
2.28479e-07
-9.84835e-06
1.45383e-06
-9.10557e-06
2.54702e-06
-8.34674e-06
3.50632e-06
-7.59441e-06
4.33814e-06
5.05131e-06
-6.86537e-06
-1.04323e-06
-1.70196e-05
-2.086e-06
-1.69389e-05
-3.12088e-06
-1.66866e-05
-4.14307e-06
-1.63057e-05
-5.14383e-06
-1.57939e-05
-6.11331e-06
-1.51491e-05
-7.03752e-06
-1.43697e-05
-7.89882e-06
-1.34564e-05
-8.67659e-06
-1.24127e-05
-9.34779e-06
-1.12467e-05
-9.88883e-06
-9.97196e-06
-1.0279e-05
-8.60915e-06
-1.05037e-05
-7.18516e-06
-1.05577e-05
-5.73181e-06
-1.04461e-05
-4.28289e-06
-1.01839e-05
-2.87091e-06
-9.7923e-06
-1.52416e-06
-9.30449e-06
-2.59353e-07
-8.74305e-06
8.92188e-07
-8.13578e-06
1.93942e-06
-7.50575e-06
2.8759e-06
-6.87207e-06
3.70409e-06
4.42873e-06
-6.24988e-06
-9.16273e-07
-1.61036e-05
-1.83082e-06
-1.60248e-05
-2.73584e-06
-1.57819e-05
-3.62589e-06
-1.54164e-05
-4.49245e-06
-1.49277e-05
-5.32623e-06
-1.43156e-05
-6.11531e-06
-1.35811e-05
-6.84521e-06
-1.2727e-05
-7.49965e-06
-1.17587e-05
-8.0614e-06
-1.06853e-05
-8.51361e-06
-9.52003e-06
-8.84199e-06
-8.28094e-06
-9.03693e-06
-6.99031e-06
-9.0952e-06
-5.6735e-06
-9.02081e-06
-4.35712e-06
-8.82469e-06
-3.06684e-06
-8.52338e-06
-1.82537e-06
-8.13349e-06
-6.49316e-07
-7.68393e-06
4.42385e-07
-7.18909e-06
1.44422e-06
-6.66852e-06
2.35492e-06
-6.13834e-06
3.17345e-06
3.90162e-06
-5.61176e-06
-7.93804e-07
-1.531e-05
-1.58517e-06
-1.52338e-05
-2.36652e-06
-1.50009e-05
-3.13209e-06
-1.46514e-05
-3.87424e-06
-1.41859e-05
-4.58451e-06
-1.36057e-05
-5.25291e-06
-1.29133e-05
-5.8677e-06
-1.21128e-05
-6.41611e-06
-1.12108e-05
-6.88525e-06
-1.02165e-05
-7.26298e-06
-9.14252e-06
-7.53931e-06
-8.00473e-06
-7.70771e-06
-6.8219e-06
-7.76626e-06
-5.61483e-06
-7.71813e-06
-4.40507e-06
-7.57132e-06
-3.21349e-06
-7.33774e-06
-2.0589e-06
-7.0304e-06
-9.56744e-07
-6.67033e-06
8.20921e-08
-6.26847e-06
1.04203e-06
-5.84112e-06
1.92718e-06
-5.40125e-06
2.73312e-06
3.45984e-06
-4.96004e-06
-6.76192e-07
-1.4634e-05
-1.34973e-06
-1.45606e-05
-2.01341e-06
-1.43375e-05
-2.6618e-06
-1.40035e-05
-3.28826e-06
-1.35599e-05
-3.88531e-06
-1.30091e-05
-4.44469e-06
-1.23545e-05
-4.95699e-06
-1.16011e-05
-5.41234e-06
-1.07558e-05
-5.80107e-06
-9.828e-06
-6.1144e-06
-8.82938e-06
-6.3452e-06
-7.77403e-06
-6.48904e-06
-6.67806e-06
-6.54478e-06
-5.55898e-06
-6.51493e-06
-4.43475e-06
-6.40547e-06
-3.32283e-06
-6.22519e-06
-2.23914e-06
-5.98464e-06
-1.19736e-06
-5.69668e-06
-2.06035e-07
-5.37366e-06
7.18755e-07
-5.02649e-06
1.57969e-06
-4.66582e-06
2.37207e-06
3.09453e-06
-4.30097e-06
-5.63476e-07
-1.40709e-05
-1.12423e-06
-1.40002e-05
-1.67593e-06
-1.37861e-05
-2.21373e-06
-1.34661e-05
-2.73196e-06
-1.30422e-05
-3.22427e-06
-1.25172e-05
-3.6839e-06
-1.18953e-05
-4.10351e-06
-1.11818e-05
-4.47555e-06
-1.03841e-05
-4.7928e-06
-9.51101e-06
-5.04884e-06
-8.57357e-06
-5.2386e-06
-7.58442e-06
-5.35902e-06
-6.55768e-06
-5.40949e-06
-5.50843e-06
-5.392e-06
-4.45211e-06
-5.31106e-06
-3.40367e-06
-5.17324e-06
-2.37692e-06
-4.98671e-06
-1.38392e-06
-4.75921e-06
-4.33644e-07
-4.50324e-06
4.62634e-07
-4.2256e-06
1.30185e-06