/*--------------------------------*- C++ -*----------------------------------*\
| =========                 |                                                 |
| \\      /  F ield         | OpenFOAM: The Open Source CFD Toolbox           |
|  \\    /   O peration     | Version:  2206                                  |
|   \\  /    A nd           | Website:  www.openfoam.com                      |
|    \\/     M anipulation  |                                                 |
\*---------------------------------------------------------------------------*/
FoamFile
{
    version     2.0;
    format      ascii;
    arch        "LSB;label=32;scalar=64";
    class       volScalarField;
    location    "0.8";
    object      alpha.water;
}
// * * * * * * * * * * * * * * * * * * * * * * * * * * * * * * * * * * * * * //

dimensions      [0 0 0 0 0 0 0];

internalField   nonuniform List<scalar> 
2268
(
1
1
1
1
1
1
1
1
1
1
1
1
1
1
1
1
1
1
1
1
1
1
1
1
1
1
1
1
1
1
1
1
1
1
1
1
1
1
1
1
1
1
1
1
1
1
1
1
1
1
1
1
1
1
1
1
1
1
1
1
1
1
1
1
1
1
1
1
0.999999
1
1
1
1
1
1
1
1
1
1
1
1
1
1
1
1
1
1
1
1
1
1
0.999999
1
1
1
1
1
1
1
1
1
1
1
1
1
1
1
1
1
1
1
1
1
1
1
1
1
1
1
1
1
1
1
1
1
1
1
1
1
1
1
1
1
1
1
1
1
1
1
1
1
1
1
1
1
1
1
1
1
1
1
1
1
1
1
1
1
1
1
1
1
1
1
1
1
0.999997
0.999995
0.999995
0.999997
0.999999
1
1
1
1
1
1
1
1
1
1
1
1
1
1
0.290576
0.294822
0.31365
0.319982
0.319168
0.348433
0.40695
0.479818
0.641662
0.800013
0.702987
0.708885
0.842706
0.883976
0.936634
0.949986
0.950031
0.950075
0.950075
0.290789
0.293115
0.285681
0.0722038
0.0688499
0.0729735
0.0799282
0.211753
0.593037
0.834108
0.919136
0.947463
0.947647
0.947641
0.949761
0.949986
0.949992
0.950007
0.950075
0.290639
0.290833
0.137731
0.0618544
0.0648666
0.0687606
0.261484
0.507087
0.585639
0.811152
0.936887
0.946474
0.947463
0.948032
0.949011
0.921497
0.929396
0.949002
0.949905
0.29058
0.289575
0.0618544
0.0611682
0.0618544
0.36425
0.601992
0.859719
0.921311
0.934643
0.936792
0.936537
0.924586
0.947181
0.945818
0.887488
0.850427
0.893327
0.948152
0.290254
0.180268
0.0611682
0.0614098
0.217233
0.662875
0.647215
0.422638
0.667692
0.931412
0.934702
0.933056
0.896442
0.934575
0.938137
0.768306
0.698386
0.70122
0.907225
0.0877908
0.0658132
0.0640297
0.0990847
0.726623
0.717181
0.448962
0.17909
0.181126
0.833485
0.932221
0.93194
0.903858
0.724307
0.715003
0.696193
0.696623
0.704063
0.934916
0.08121
0.07611
0.0742348
0.683016
0.816711
0.485161
0.251167
0.236183
0.20056
0.302815
0.921118
0.930558
0.927477
0.897721
0.696193
0.696193
0.696193
0.916484
0.951553
0.386844
0.421292
0.724436
0.851762
0.827637
0.497182
0.671406
0.8126
0.592214
0.482648
0.70718
0.887687
0.926392
0.924997
0.743642
0.696193
0.732845
0.951553
0.951553
1
1
1
1
0.999945
0.999912
0.999913
0.999928
0.999949
0.99997
0.999986
0.999994
0.999998
0.999999
1
1
1
1
1
1
1
1
1
0.999335
0.991724
0.961208
0.914625
0.855127
0.836675
0.856742
0.868693
0.854974
0.847146
0.850971
0.859661
0.866142
0.867998
0.867339
0.866112
0.864752
0.863004
0.860461
0.856237
0.851277
0.846384
0.842652
0.17878
0.173269
0.175901
0.188227
0.204579
0.213655
0.214388
0.206449
0.196847
0.18992
0.181471
0.166654
0.14678
0.129084
0.117386
0.110667
0.105948
0.100954
0.0941248
0.0838808
0.0733216
0.0706839
0.0466333
5.07756e-08
8.08284e-08
0.000100162
1.4586e-09
1.46237e-09
1.44961e-09
2.23423e-09
6.10928e-09
5.17497e-08
7.31858e-07
6.13726e-05
5.04262e-06
2.5997e-08
1.6175e-08
2.65628e-08
9.71805e-08
4.62758e-07
2.14318e-06
9.50948e-06
4.09016e-05
0.000172847
0.000446621
0.000409642
2.28584e-08
5.27068e-07
2.6118e-06
7.50964e-10
9.58453e-10
2.23423e-09
9.40495e-07
4.42335e-06
4.50083e-06
1.93673e-06
1.03742e-07
1.48493e-07
1.61739e-08
1.40101e-08
1.61742e-08
4.49712e-08
2.10484e-07
9.79485e-07
4.27328e-06
3.95556e-05
0.000180271
0.000105888
0.000102514
1.96163e-08
3.87782e-09
1.18719e-11
1.786e-11
2.46224e-10
2.85392e-09
5.76089e-07
1.55093e-06
1.10798e-06
7.64237e-08
7.69545e-09
1.67591e-08
1.45553e-08
1.40103e-08
1.40078e-08
3.16363e-08
1.37196e-07
6.16228e-07
3.54962e-06
3.9523e-05
9.62668e-05
4.16064e-05
2.17826e-05
7.61533e-08
7.35397e-09
6.62448e-12
6.8854e-13
1.32656e-11
4.29158e-09
1.79583e-08
1.12597e-09
1.1769e-09
8.73676e-10
2.55715e-09
1.16714e-08
1.67593e-08
1.40096e-08
3.16564e-08
1.37127e-07
1.09315e-05
2.60915e-05
3.69973e-05
4.96888e-05
4.4148e-05
9.81216e-06
5.07737e-06
8.82046e-08
3.08053e-08
6.8854e-13
-9.59997e-29
3.47362e-12
8.10356e-11
3.23288e-11
6.28359e-11
1.08291e-10
4.05792e-10
1.11033e-09
2.72553e-09
1.05929e-08
5.51279e-08
5.71219e-07
1.65356e-05
3.26035e-05
3.38224e-05
3.73438e-05
3.83263e-05
1.12694e-05
1.17174e-06
9.92145e-07
8.0699e-08
2.54262e-08
4.55411e-12
-1.86993e-13
-5.77681e-13
7.12749e-13
-8.6845e-29
8.6845e-29
1.94393e-11
1.54285e-10
3.87307e-10
1.91507e-09
1.28545e-08
8.54911e-08
3.18204e-06
2.80381e-05
3.14424e-05
3.08514e-05
4.43018e-06
2.005e-06
1.53707e-06
2.37993e-07
2.84952e-07
1.42898e-08
7.49384e-09
2.01003e-11
-7.05787e-13
-4.79746e-12
-1.19332e-11
-1.70267e-11
-9.6382e-12
6.38778e-13
2.08351e-11
1.94957e-10
1.25234e-09
9.01411e-09
6.15553e-08
1.63079e-06
2.25633e-05
3.02312e-05
1.34972e-05
2.03215e-07
1.83911e-07
1.71065e-07
1.64076e-07
1.69788e-07
1.50448e-10
1.66718e-10
4.83442e-12
-9.59645e-13
-5.03181e-12
-1.48653e-11
-2.99225e-11
-3.95592e-11
-1.13703e-11
2.99252e-12
9.41923e-11
6.71756e-10
4.54253e-09
2.91203e-08
1.83597e-07
1.02806e-05
2.83218e-05
6.48688e-06
1.83911e-07
1.7107e-07
1.64083e-07
1.64079e-07
1.44117e-07
4.20198e-11
1.58547e-11
2.46816e-14
-9.35445e-13
-4.24734e-12
-1.25038e-11
-2.63146e-11
-3.90425e-11
-2.94364e-11
2.92505e-12
3.93703e-11
2.78017e-10
1.68872e-09
9.64756e-09
6.63777e-08
2.3386e-06
6.45993e-06
5.33499e-06
2.94471e-07
1.83911e-07
2.96274e-07
1.26672e-06
9.22339e-07
2.0523e-11
4.28019e-12
-6.73161e-30
-7.58201e-13
-3.19346e-12
-9.18678e-12
-1.93914e-11
-3.01091e-11
-2.95067e-11
0
1.8446e-11
1.2154e-10
4.94989e-10
3.59064e-09
6.85443e-08
1.04286e-07
5.51858e-08
2.93509e-07
1.05045e-06
1.40555e-06
1.49219e-06
1.48498e-06
1.45591e-06
5.82955e-12
7.18964e-13
-4.13052e-14
-5.50966e-13
-2.21081e-12
-6.19717e-12
-1.29387e-11
-2.03998e-11
-2.24492e-11
-8.38485e-12
6.31621e-12
6.43874e-11
2.70212e-10
2.84666e-09
1.03766e-08
5.15696e-09
9.34681e-09
1.92551e-08
3.77216e-07
1.47583e-06
1.49175e-06
1.49175e-06
1.48498e-06
1.08141e-12
9.17328e-14
-4.83972e-14
-3.70379e-13
-1.42871e-12
-3.89887e-12
-7.99869e-12
-1.25881e-11
-1.45333e-11
-8.75118e-12
1.40586e-12
3.05329e-11
2.82538e-10
1.08662e-09
1.01619e-09
1.05329e-09
2.30735e-09
5.19816e-09
2.18637e-08
4.86032e-07
1.0721e-06
8.96376e-07
2.81284e-07
1.97443e-13
9.4809e-15
-3.67962e-14
-2.32495e-13
-8.65984e-13
-2.30134e-12
-4.62546e-12
-7.19849e-12
-8.43724e-12
-5.91649e-12
3.85492e-13
1.48714e-11
1.57417e-10
4.37236e-10
4.52972e-10
4.32323e-10
9.80461e-10
2.21911e-09
8.35357e-09
1.41234e-08
3.71448e-08
2.61933e-08
3.84875e-09
3.74457e-14
3.88075e-16
-2.37825e-14
-1.36706e-13
-4.93554e-13
-1.27896e-12
-2.51651e-12
-3.85545e-12
-4.51641e-12
-3.3878e-12
-1.50652e-46
6.59993e-12
5.33247e-11
1.27393e-10
1.6776e-10
2.6924e-10
7.0394e-10
1.46088e-09
2.19583e-09
1.9116e-09
2.11134e-09
1.72644e-09
1.07175e-09
7.27805e-15
0
-1.39129e-14
-7.55237e-14
-2.65264e-13
-6.7154e-13
-1.29424e-12
-1.94884e-12
-2.2659e-12
-1.76889e-12
3.36581e-30
1.96974e-12
1.26051e-11
2.88401e-11
5.72725e-11
1.82712e-10
5.78173e-10
1.14064e-09
1.35568e-09
1.06013e-09
9.30809e-10
8.03294e-10
7.0886e-10
1.41666e-15
-2.1877e-16
-7.54276e-15
-3.93538e-14
-1.34933e-13
-3.34434e-13
-6.32098e-13
-9.35438e-13
-1.07637e-12
-8.62144e-13
-1.40597e-13
4.43095e-13
2.6478e-12
7.34174e-12
2.42226e-11
1.11945e-10
3.84951e-10
7.50659e-10
9.11506e-10
8.42864e-10
6.94335e-10
6.30126e-10
6.29852e-10
2.76456e-16
-2.65542e-16
-3.83606e-15
-1.94282e-14
-6.52323e-14
-1.58633e-13
-2.94498e-13
-4.28674e-13
-4.87632e-13
-3.96678e-13
-1.15381e-13
9.42395e-14
6.39709e-13
2.47462e-12
1.17218e-11
5.81508e-11
1.89531e-10
3.61121e-10
4.5901e-10
4.82285e-10
4.49132e-10
4.28976e-10
4.41917e-10
5.22333e-17
-1.72374e-16
-1.8451e-15
-9.12956e-15
-3.01023e-14
-7.19761e-14
-1.31472e-13
-1.88464e-13
-2.11922e-13
-1.73795e-13
-6.44804e-14
2.17318e-14
1.9026e-13
9.89171e-13
5.36627e-12
2.42321e-11
6.93664e-11
1.24789e-10
1.61481e-10
1.77787e-10
1.87586e-10
1.94502e-10
1.99924e-10
8.80808e-18
-9.19102e-17
-8.44637e-16
-4.10214e-15
-1.33162e-14
-3.13693e-14
-5.64776e-14
-7.98456e-14
-8.87956e-14
-7.30463e-14
-3.06581e-14
6.00363e-15
6.51061e-14
4.00234e-13
2.1133e-12
8.21407e-12
2.03736e-11
3.35033e-11
4.21628e-11
4.73361e-11
5.19734e-11
5.4183e-11
5.20377e-11
1.03286e-18
-4.4078e-17
-3.69916e-16
-1.76989e-15
-5.66931e-15
-1.31834e-14
-2.34363e-14
-3.27286e-14
-3.60282e-14
-2.96419e-14
-1.33426e-14
1.74229e-15
2.34992e-14
1.49513e-13
7.17356e-13
2.43645e-12
5.38497e-12
8.16897e-12
9.89937e-12
1.07132e-11
1.04234e-11
1.19964e-11
1.53789e-11
5.9474e-20
-1.96867e-17
-1.5568e-16
-7.36019e-16
-2.3313e-15
-5.36123e-15
-9.42701e-15
-1.30252e-14
-1.42093e-14
-1.16751e-14
-5.48715e-15
5.63603e-16
8.25449e-15
5.06625e-14
2.20198e-13
6.76216e-13
1.38309e-12
1.99354e-12
2.26444e-12
2.30909e-12
3.49663e-12
4.86021e-12
8.87138e-12
0
-8.33127e-18
-6.31934e-17
-2.9598e-16
-9.28817e-16
-2.11605e-15
-3.6866e-15
-5.04811e-15
-5.46476e-15
-4.4824e-15
-2.16985e-15
1.90607e-16
2.72016e-15
1.58828e-14
6.37787e-14
1.81725e-13
3.48301e-13
4.74668e-13
5.569e-13
8.61217e-13
1.35791e-12
4.41283e-12
2.04811e-11
-2.06968e-20
-3.37416e-18
-2.48183e-17
-1.15416e-16
-3.59473e-16
-8.12677e-16
-1.40516e-15
-1.91003e-15
-2.0548e-15
-1.68316e-15
-8.34049e-16
5.63801e-17
8.43133e-16
4.71163e-15
1.77591e-14
4.72287e-14
8.53579e-14
1.20303e-13
1.75589e-13
3.23515e-13
1.03973e-12
7.57601e-12
4.65782e-11
-3.16411e-20
-1.31613e-18
-9.45407e-18
-4.374e-17
-1.35437e-16
-3.04325e-16
-5.23065e-16
-7.0694e-16
-7.56936e-16
-6.19744e-16
-3.13649e-16
1.35535e-17
2.49328e-16
1.33802e-15
4.76517e-15
1.19134e-14
2.10799e-14
3.21006e-14
6.32013e-14
2.46115e-13
2.05022e-12
1.95725e-11
7.69851e-11
-2.12485e-20
-4.9654e-19
-3.49979e-18
-1.61384e-17
-4.9759e-17
-1.11299e-16
-1.90455e-16
-2.5634e-16
-2.73594e-16
-2.24162e-16
-1.15763e-16
3.52621e-18
6.97118e-17
3.64952e-16
1.2313e-15
2.94244e-15
5.44395e-15
1.05141e-14
4.11909e-14
3.12998e-13
3.85252e-12
3.04164e-11
8.22278e-11
-1.1541e-20
-1.81703e-19
-1.26072e-18
-5.80465e-18
-1.78497e-17
-3.98034e-17
-6.79118e-17
-9.11634e-17
-9.71337e-17
-7.97425e-17
-4.20306e-17
4.23853e-19
1.85465e-17
9.56018e-17
3.08107e-16
7.32577e-16
1.54985e-15
4.85477e-15
3.63814e-14
4.22254e-13
6.36006e-12
3.97276e-11
7.13941e-11
-5.64512e-21
-6.46131e-20
-4.42299e-19
-2.0372e-18
-6.25797e-18
-1.39321e-17
-2.37343e-17
-3.1821e-17
-3.3895e-17
-2.79181e-17
-1.50306e-17
5.13581e-35
4.70503e-18
2.41202e-17
7.56501e-17
1.89195e-16
5.11254e-16
2.8256e-15
3.03286e-14
4.01584e-13
5.90307e-12
3.44443e-11
4.17641e-11
-2.58588e-21
-2.23534e-20
-1.51209e-19
-6.98174e-19
-2.14593e-18
-4.77625e-18
-8.13465e-18
-1.09067e-17
-1.1629e-17
-9.62145e-18
-5.29358e-18
-9.62539e-20
1.14902e-18
5.90028e-18
1.85074e-17
5.11638e-17
1.95593e-16
1.6967e-15
2.15337e-14
3.03202e-13
4.09641e-12
2.10304e-11
2.38092e-11
-1.1301e-21
-7.52993e-21
-5.04008e-20
-2.33826e-19
-7.20258e-19
-1.60464e-18
-2.73534e-18
-3.67166e-18
-3.92291e-18
-3.26355e-18
-1.83489e-18
-1.28493e-19
2.81965e-19
1.40981e-18
4.54711e-18
1.45578e-17
8.20429e-17
9.44215e-16
1.27698e-14
1.83687e-13
2.23742e-12
1.05014e-11
1.28933e-11
-4.7601e-22
-2.47181e-21
-1.63918e-20
-7.65984e-20
-2.36799e-19
-5.28595e-19
-9.02684e-19
-1.21414e-18
-1.30102e-18
-1.08908e-18
-6.25434e-19
-7.23227e-20
6.76683e-20
3.31026e-19
1.12294e-18
4.36479e-18
3.48797e-17
4.62741e-16
6.40764e-15
9.16674e-14
1.03741e-12
4.61064e-12
6.82974e-12
-1.94414e-22
-7.91504e-22
-5.20785e-21
-2.45713e-20
-7.6323e-20
-1.70832e-19
-2.92446e-19
-3.94398e-19
-4.24103e-19
-3.57375e-19
-2.09435e-19
-3.24556e-20
1.57642e-20
7.66549e-20
2.78493e-19
1.35638e-18
1.40076e-17
1.96708e-16
2.74008e-15
3.85015e-14
4.23062e-13
1.87424e-12
3.00477e-12
-7.72905e-23
-2.47584e-22
-1.61884e-21
-7.72818e-21
-2.41383e-20
-5.41965e-20
-9.30433e-20
-1.25861e-19
-1.35857e-19
-1.15251e-19
-6.88372e-20
-1.29824e-20
3.59007e-21
1.75298e-20
6.91933e-20
4.21608e-19
5.09627e-18
7.28081e-17
1.01368e-15
1.41307e-14
1.55629e-13
7.13354e-13
1.17729e-12
-2.99738e-23
-7.58064e-23
-4.93206e-22
-2.38644e-21
-7.4977e-21
-1.6889e-20
-2.90818e-20
-3.94642e-20
-4.27626e-20
-3.65126e-20
-2.21915e-20
-4.81805e-21
7.94854e-22
3.95993e-21
1.71091e-20
1.26918e-19
1.67599e-18
2.42548e-17
3.39686e-16
4.71276e-15
5.22465e-14
2.52549e-13
4.37878e-13
-1.13579e-23
-2.27733e-23
-1.47605e-22
-7.24417e-22
-2.28923e-21
-5.17325e-21
-8.93462e-21
-1.21613e-20
-1.32244e-20
-1.13569e-20
-7.00786e-21
-1.69908e-21
1.64048e-22
8.89395e-22
4.23192e-21
3.6834e-20
5.13104e-19
7.50726e-18
1.05582e-16
1.44889e-15
1.60336e-14
8.22004e-14
1.54728e-13
-4.20162e-24
-6.74506e-24
-4.34617e-23
-2.16525e-22
-6.87803e-22
-1.55884e-21
-2.69949e-21
-3.68433e-21
-4.01884e-21
-3.46874e-21
-2.16899e-21
-5.73966e-22
3.14825e-23
1.99515e-22
1.04532e-21
1.02859e-20
1.48169e-19
2.17746e-18
3.05254e-17
4.12059e-16
4.52363e-15
2.44955e-14
5.12544e-14
-1.51292e-24
-1.97956e-24
-1.26029e-23
-6.37385e-23
-2.03475e-22
-4.62432e-22
-8.0274e-22
-1.09817e-21
-1.201e-21
-1.04097e-21
-6.58254e-22
-1.86666e-22
5.6759e-24
4.47159e-23
2.56785e-22
2.77001e-21
4.07213e-20
5.98675e-19
8.34452e-18
1.10691e-16
1.20059e-15
6.77025e-15
1.58657e-14
-5.28852e-25
-5.77644e-25
-3.60428e-24
-1.84952e-23
-5.93274e-23
-1.35184e-22
-2.35181e-22
-3.22374e-22
-3.53284e-22
-3.07211e-22
-1.96038e-22
-5.86816e-23
1.00262e-24
1.00068e-23
6.26884e-23
7.25722e-22
1.08131e-20
1.58674e-19
2.19756e-18
2.87346e-17
3.08124e-16
1.77943e-15
4.61523e-15
-1.79167e-25
-1.67805e-25
-1.01814e-24
-5.29696e-24
-1.70707e-23
-3.89963e-23
-6.79744e-23
-9.33214e-23
-1.02414e-22
-8.92577e-23
-5.73473e-23
-1.78817e-23
2.20437e-25
2.29913e-24
1.5781e-23
1.94241e-22
2.92613e-21
4.28736e-20
5.90777e-19
7.64309e-18
8.11734e-17
4.74542e-16
1.33394e-15
-5.87314e-26
-4.84829e-26
-2.85244e-25
-1.50061e-24
-4.85658e-24
-1.11207e-23
-1.9417e-23
-2.66813e-23
-2.92966e-23
-2.55589e-23
-1.64944e-23
-5.29708e-24
3.50236e-26
2.85578e-25
2.20103e-24
2.91002e-23
4.4441e-22
6.50996e-21
8.93231e-20
1.14337e-18
1.20185e-17
7.12151e-17
2.17607e-16
1
0.996365
0.990248
0.986513
0.731292
0.58195
0.531855
0.53522
0.000431781
0.000675118
0.0126763
0.0418285
0.00013906
0.000132624
0.00110681
0.0114109
4.73823e-05
3.97898e-05
0.00026284
0.00231356
1.2899e-05
2.23806e-05
9.65265e-05
0.000234955
4.98248e-06
1.88382e-05
0.000118149
7.62744e-05
2.79731e-06
2.57151e-05
5.85108e-05
5.17979e-06
1.89471e-06
1.08749e-05
1.1619e-06
1.07345e-06
2.26088e-07
1.78949e-07
1.51705e-07
2.11971e-07
8.95797e-08
2.92859e-08
2.55767e-08
3.86745e-08
4.49483e-08
5.62048e-09
4.83761e-09
6.8756e-09
1.02191e-06
2.21179e-09
1.55404e-09
1.5414e-09
5.54177e-07
1.55404e-09
1.01828e-09
6.49844e-10
6.7819e-09
3.11435e-09
9.47869e-10
4.65382e-10
1.95782e-09
5.4344e-09
1.52688e-09
3.82962e-10
1.08752e-09
3.78409e-09
1.66112e-09
3.04982e-10
7.44736e-10
1.17453e-09
1.10107e-09
1.82897e-10
5.76046e-10
4.10124e-10
3.36231e-10
6.79173e-11
3.78097e-10
2.2017e-10
8.14622e-11
2.5203e-11
1.72236e-10
9.57951e-11
4.88365e-11
2.50132e-11
5.46205e-11
6.16207e-11
5.68225e-11
6.83163e-11
2.16505e-11
3.97147e-11
3.24664e-10
3.93217e-09
3.66805e-11
2.50346e-10
4.34248e-09
6.62144e-08
1.61988e-10
1.18324e-09
2.04149e-08
3.10144e-07
3.97539e-10
2.73133e-09
4.82704e-08
9.24155e-07
6.5376e-10
4.24323e-09
9.67402e-08
1.56538e-06
7.222e-10
5.09399e-09
1.03367e-07
1.80769e-06
5.29499e-10
3.28656e-09
6.87941e-08
1.28612e-06
2.08987e-10
3.55236e-09
1.15147e-07
2.75361e-06
2.23424e-10
3.973e-09
1.47077e-07
3.99662e-06
2.01971e-10
3.95309e-09
1.06344e-07
2.04461e-06
1.27632e-10
1.59732e-09
1.59113e-08
1.76843e-07
6.88873e-11
4.55603e-10
6.65174e-10
6.50441e-09
3.4091e-11
2.28943e-10
2.40589e-10
2.06992e-09
1.54e-11
1.34755e-10
1.27223e-10
8.58122e-11
6.13807e-12
7.10379e-11
7.42747e-11
1.63507e-10
2.12958e-12
3.05478e-11
8.02432e-11
1.09246e-10
6.50801e-13
1.09035e-11
6.35293e-11
8.45976e-11
1.81316e-13
3.30224e-12
3.02301e-11
5.31229e-11
4.96956e-14
9.23874e-13
9.90198e-12
2.41504e-11
7.5969e-15
1.42271e-13
1.6291e-12
5.87429e-12
0.977622
0.967301
0.950578
0.869524
0.702996
0.705183
0.861849
0.873355
0.87978
0.875751
0.853878
0.908818
0.924997
0.924997
0.924997
0.913763
0.948709
0.951484
0.951555
0.530196
0.612367
0.797076
0.34845
0.111332
0.123709
0.171642
0.640469
0.871849
0.900895
0.903971
0.908015
0.849468
0.710235
0.715184
0.731972
0.795194
0.90525
0.953634
0.0736283
0.130871
0.189844
0.0199841
0.00659557
0.00255102
0.00586306
0.0309164
0.451043
0.844237
0.904826
0.918612
0.797089
0.527355
0.522943
0.522943
0.522943
0.717124
0.956811
0.0179592
0.0132217
0.00919083
0.00543938
0.00121068
0.000437483
0.00107097
0.00418184
0.0165849
0.369212
0.87106
0.928113
0.93618
0.934833
0.676691
0.600021
0.725439
0.904864
0.956927
0.00407086
0.00341847
0.00252991
0.00121303
0.000200942
8.0045e-05
0.000134044
0.000655771
0.00326272
0.0142028
0.378901
0.925066
0.948125
0.95333
0.955982
0.95765
0.95812
0.958715
0.95706
0.000268664
0.00053031
0.000678579
0.000200883
3.43105e-05
4.03398e-05
1.42488e-05
6.16705e-05
0.000449715
0.00255195
0.0113873
0.383792
0.928806
0.948125
0.95333
0.956415
0.958719
0.959708
0.959796
6.55539e-05
0.000151582
0.000172385
3.42899e-05
7.57519e-06
3.80623e-06
6.4874e-06
1.91763e-06
1.92854e-05
0.000231497
0.00128091
0.00583821
0.384682
0.850102
0.940615
0.949071
0.955432
0.959797
0.959796
1.61935e-05
3.77432e-05
4.48821e-05
1.02205e-05
3.06206e-06
1.7439e-06
6.78708e-06
1.37336e-06
-5.23583e-08
1.64589e-06
3.29239e-05
0.000211641
0.000942534
0.138364
0.493018
0.721698
0.913875
0.959621
0.959796
3.56526e-06
9.11515e-06
1.12095e-05
6.06823e-06
3.75774e-06
6.74777e-07
1.10164e-06
1.03855e-06
1.56495e-08
4.83195e-07
2.41847e-06
8.30584e-06
5.70307e-05
0.000322844
0.00161905
0.0581617
0.398809
0.943217
0.959621
7.30057e-07
1.93003e-06
2.28391e-06
1.45587e-06
1.4193e-06
2.3287e-07
3.56467e-09
4.16956e-10
7.93847e-11
1.1741e-09
4.18684e-06
8.76687e-08
1.19215e-06
1.34626e-05
0.000162664
0.00141706
0.00872234
0.457604
0.95834
1.32721e-07
3.47586e-07
3.90494e-07
1.84156e-07
4.6568e-08
1.4668e-08
3.9738e-10
6.2503e-11
2.89197e-11
6.94903e-11
2.41664e-07
2.61886e-07
1.18137e-07
-9.51745e-08
6.89407e-07
0.00016528
0.00131055
0.118174
0.95209
2.17977e-08
5.40407e-08
5.61653e-08
2.13546e-08
3.43723e-09
5.68085e-10
1.82413e-10
4.24478e-11
2.64278e-11
2.88605e-11
1.97704e-09
3.05521e-07
2.17435e-07
4.28929e-08
9.46934e-08
-1.04494e-06
0.000134661
0.095597
0.916993
3.35573e-09
7.45899e-09
6.94396e-09
2.28403e-09
4.53069e-10
9.76979e-11
7.16781e-11
3.32329e-11
2.63221e-11
2.64379e-11
8.60599e-11
1.57766e-08
2.24707e-07
4.34121e-08
-3.45158e-07
-9.13967e-06
0.00037805
0.0736536
0.396094
6.43674e-10
9.63567e-10
8.15636e-10
2.68294e-10
6.50766e-11
5.6589e-11
2.68163e-11
2.09234e-11
2.63168e-11
2.63383e-11
2.63623e-11
3.55097e-10
1.8045e-07
5.44897e-09
2.58218e-06
0.000336555
0.00135898
0.0816709
0.0139051
1.66844e-10
1.78116e-10
1.23992e-10
3.64036e-11
3.62069e-11
2.12806e-11
1.22457e-11
1.76037e-11
4.41949e-11
4.52809e-11
3.18093e-11
4.84285e-11
2.7293e-08
1.51946e-09
-4.91364e-07
0.00294346
0.0640547
0.123022
0.00119222
8.52642e-11
5.67288e-11
3.36248e-11
1.86724e-11
9.91982e-12
5.89656e-12
8.95899e-12
1.72754e-11
3.7095e-11
4.48096e-11
3.40799e-11
3.40799e-11
6.07865e-11
1.47757e-09
-4.90417e-07
0.0104529
0.132943
0.127787
0.00116839
4.45937e-11
1.80718e-11
7.39975e-12
3.57497e-12
1.80988e-12
3.19602e-12
9.66496e-12
1.90935e-11
2.66986e-11
4.2447e-11
3.47031e-11
3.43379e-11
3.59507e-11
1.5477e-10
3.01645e-06
0.0297368
0.132919
0.132713
0.00114812
2.53154e-11
4.08721e-12
1.67762e-12
1.67762e-12
1.74375e-12
3.03838e-12
1.04967e-11
2.02592e-11
2.55383e-11
3.60012e-11
1.0729e-10
3.51323e-11
1.35762e-06
1.08186e-06
2.45096e-08
0.0722753
0.133047
0.121374
0.00114812
1.12871e-11
4.05024e-12
1.67762e-12
1.89632e-12
5.21362e-11
9.85418e-12
1.10727e-11
2.03781e-11
3.16732e-11
3.16953e-11
6.8909e-11
1.61723e-07
5.26254e-06
1.53055e-06
2.96953e-08
0.0941557
0.132625
0.0259855
0.00115364
8.76813e-12
7.55149e-11
9.88854e-10
9.9177e-10
6.88331e-09
3.69343e-10
3.09131e-11
2.11414e-11
4.22736e-11
4.58065e-11
5.67994e-11
4.88978e-08
1.32945e-06
1.04984e-06
2.96953e-08
0.0358056
0.131461
0.00279201
0.00117426
-3.40334e-11
2.30811e-09
4.67492e-08
8.40645e-08
2.33195e-07
1.15657e-08
3.84283e-10
3.74974e-11
4.67165e-11
7.14905e-11
4.75127e-11
6.94186e-10
1.38327e-09
3.8838e-07
3.3451e-08
0.00477456
0.129649
0.0043229
0.00122943
4.9803e-10
5.40069e-08
9.36035e-07
2.03938e-06
3.65166e-06
1.96997e-07
6.58949e-09
1.81256e-10
5.2445e-11
7.35425e-11
4.38864e-11
6.66893e-11
9.82732e-10
1.17602e-07
2.52371e-08
0.000865462
0.12653
0.0199251
0.00151567
5.0546e-08
1.01376e-06
1.48651e-05
2.59565e-05
3.75334e-05
4.54355e-06
1.14483e-07
2.59532e-09
7.47225e-11
4.59863e-11
3.40292e-11
5.92815e-11
9.11712e-10
7.80854e-10
2.92272e-09
6.86964e-07
0.0835254
0.0356821
0.00304127
8.22883e-07
6.5449e-06
0.000186739
0.00143103
0.00232383
7.20047e-05
1.28163e-06
3.61311e-08
2.77766e-10
1.80792e-11
2.19192e-11
5.30246e-11
1.43687e-10
3.56038e-10
4.02872e-08
5.18562e-06
0.0086424
0.0278741
0.00446885
4.27816e-06
3.71784e-05
0.00176609
0.00728518
0.00733928
0.00257503
1.42071e-05
1.4644e-07
9.75392e-10
1.33329e-11
1.44768e-11
2.0276e-11
1.19066e-10
4.02002e-07
5.52944e-05
4.16717e-05
0.00221267
0.00300699
0.00241545
1.0533e-05
0.000448005
0.00579173
0.00736318
0.00736527
0.00733961
0.000242933
9.13467e-08
7.28663e-11
3.35522e-11
1.44585e-11
4.65004e-11
2.11911e-09
1.19152e-07
0.000211439
0.00823877
0.0018319
0.000287101
7.36371e-05
1.87663e-05
0.00192473
0.00721363
0.00736469
0.00733928
0.00711429
9.66137e-05
8.16387e-08
3.95408e-09
5.26295e-11
3.37621e-11
1.01243e-10
2.84539e-09
1.14749e-07
4.52031e-06
0.0554751
0.028376
6.90776e-06
1.12961e-06
2.31944e-05
0.00317823
0.00705466
0.00721303
0.0068039
0.00681543
0.00208864
1.53417e-09
4.0497e-10
5.90061e-11
6.56311e-11
2.82475e-10
7.17977e-09
2.2045e-07
0.000507582
0.0617773
0.061523
0.000105801
1.00119e-06
3.15397e-05
0.00347542
0.00695232
0.00199344
0.000724931
0.00629741
0.00493332
9.04033e-09
1.4768e-08
6.5538e-11
2.01017e-10
3.4858e-09
8.60399e-08
2.02182e-06
0.000835607
0.0617773
0.0365307
2.87094e-05
9.39225e-07
8.6473e-05
0.00251671
0.00352796
6.79526e-05
8.03124e-05
0.000837687
0.00492788
1.58922e-09
7.9711e-10
2.01017e-10
1.09569e-09
1.93634e-08
4.08199e-07
7.79733e-06
0.00351564
0.0617773
0.000152213
0.000108798
7.32298e-07
0.000110283
0.00134013
6.79526e-05
6.43913e-05
6.24895e-05
0.000331919
0.00455978
0.000637779
1.03142e-09
6.73585e-10
1.58229e-09
2.01818e-08
2.43824e-07
3.52582e-05
0.0308369
0.0617459
0.0012686
1.56523e-05
6.29134e-07
6.31995e-05
0.000682371
0.000182215
6.06111e-05
5.57655e-05
5.28272e-05
0.000637549
0.00209636
5.3121e-09
1.48921e-09
2.88586e-09
1.9015e-08
2.91994e-07
0.000180814
0.0553039
0.0592766
0.00276733
3.78173e-07
2.52894e-07
1.30285e-06
0.000174473
0.000474736
7.52604e-05
4.61035e-05
2.06603e-05
0.000616432
0.0020982
8.92441e-09
2.78262e-09
2.07593e-08
5.65512e-08
6.79712e-07
0.000874281
0.0515717
0.00987315
0.00125758
8.54808e-08
4.18332e-09
1.9022e-07
7.9442e-06
0.000474736
0.000194392
6.07886e-05
2.68614e-06
0.000235638
0.00172995
0.000913671
1.36336e-07
5.65631e-08
1.74679e-07
2.88673e-06
0.00979283
0.0514067
0.000117843
4.97371e-05
4.18331e-09
1.1919e-09
4.22845e-08
7.3467e-07
0.000127156
0.00015526
7.86663e-05
2.40489e-07
2.67164e-06
0.000590122
0.00399194
0.00233198
1.74679e-07
2.37767e-06
9.86593e-06
0.0258091
0.0262321
0.000523742
1.46531e-07
1.1919e-09
2.63083e-10
1.10759e-08
1.66732e-07
3.4889e-07
3.31512e-05
5.06796e-09
-3.07581e-10
2.3814e-07
8.65357e-05
0.00420183
0.00541189
0.000790227
9.86597e-06
0.00303633
0.0224727
5.52774e-05
5.14832e-05
2.27897e-08
2.63083e-10
2.02419e-11
2.33812e-09
2.80928e-08
3.41886e-08
6.53868e-09
1.18861e-09
1.00371e-09
-5.84461e-10
8.29048e-07
0.000851178
0.00541189
0.00102458
0.000156824
0.00946262
0.00712425
5.07964e-05
1.16523e-07
3.73659e-10
-5.93123e-10
1.14206e-13
7.22034e-10
4.75851e-09
4.81269e-09
1.10735e-08
2.31087e-09
9.51135e-10
-5.74451e-10
2.58246e-07
0.000378972
0.00146682
0.00127156
0.00243843
0.00549907
3.63859e-06
1.12076e-07
2.15097e-09
2.03042e-11
-7.40874e-12
-3.5224e-15
2.16924e-10
8.96109e-10
4.48999e-10
1.70139e-08
1.29264e-08
9.13074e-10
-3.41544e-11
-1.58671e-09
-7.10998e-10
3.1563e-06
0.00348482
0.00382029
0.000222733
-1.76136e-11
-1.36599e-12
-2.62098e-11
-2.35653e-14
2.98473e-30
2.20339e-16
7.46038e-11
1.85982e-10
1.22829e-10
4.10332e-09
1.52042e-09
6.31912e-11
-2.37044e-13
-1.59521e-14
-1.76932e-14
-4.92442e-15
0.00494017
0.0036968
-1.39596e-12
-1.68585e-11
-1.46659e-12
-3.27294e-14
-9.5231e-15
-7.94324e-16
-2.04919e-17
4.77583e-11
6.53996e-11
6.94956e-11
1.84767e-10
6.16666e-11
1.24756e-12
-6.57769e-16
-6.48394e-14
-1.42933e-14
-4.65821e-15
0.00488373
0.00156288
-9.26251e-16
-3.28209e-15
-9.09342e-15
-3.93487e-15
-1.19273e-15
-9.31154e-17
-2.32136e-18
1.66557e-11
2.17509e-11
2.6776e-11
1.31547e-11
1.39105e-12
-1.17834e-13
-3.95086e-14
-7.22906e-15
-1.02749e-15
-2.18107e-16
0.00139948
9.03502e-22
-5.03039e-28
-3.39285e-27
-1.2733e-38
-4.93284e-38
-8.54702e-40
-5.80172e-42
3.11737e-25
)
;

boundaryField
{
    leftWall
    {
        type            zeroGradient;
    }
    rightWall
    {
        type            zeroGradient;
    }
    lowerWall
    {
        type            zeroGradient;
    }
    atmosphere
    {
        type            inletOutlet;
        inletValue      uniform 0;
        value           nonuniform List<scalar> 
46
(
-5.87314e-26
-4.84829e-26
-2.85244e-25
-1.50061e-24
-4.85658e-24
-1.11207e-23
-1.9417e-23
-2.66813e-23
-2.92966e-23
-2.55589e-23
-1.64944e-23
-5.29708e-24
3.50236e-26
2.85578e-25
2.20103e-24
2.91002e-23
4.4441e-22
6.50996e-21
8.93231e-20
1.14337e-18
1.20185e-17
7.12151e-17
2.17607e-16
7.5969e-15
1.42271e-13
1.6291e-12
5.87429e-12
1.66557e-11
2.17509e-11
2.6776e-11
1.31547e-11
1.39105e-12
0
0
0
0
0
0.00139948
0
0
0
0
0
0
0
0
)
;
    }
    defaultFaces
    {
        type            empty;
    }
}


// ************************************************************************* //
