/*--------------------------------*- C++ -*----------------------------------*\
| =========                 |                                                 |
| \\      /  F ield         | OpenFOAM: The Open Source CFD Toolbox           |
|  \\    /   O peration     | Version:  2206                                  |
|   \\  /    A nd           | Website:  www.openfoam.com                      |
|    \\/     M anipulation  |                                                 |
\*---------------------------------------------------------------------------*/
FoamFile
{
    version     2.0;
    format      ascii;
    arch        "LSB;label=32;scalar=64";
    class       surfaceScalarField;
    location    "0.8";
    object      phi;
}
// * * * * * * * * * * * * * * * * * * * * * * * * * * * * * * * * * * * * * //

dimensions      [0 3 -1 0 0 0 0];

oriented        oriented;

internalField   nonuniform List<scalar> 
4432
(
-7.79709e-07
7.79709e-07
-8.80569e-07
1.00858e-07
-2.92873e-07
-5.87698e-07
6.73737e-07
-9.66611e-07
1.75488e-06
-1.08114e-06
2.70389e-06
-9.49012e-07
3.39434e-06
-6.90451e-07
3.79076e-06
-3.96424e-07
3.91516e-06
-1.24405e-07
3.82669e-06
8.847e-08
3.59083e-06
2.35865e-07
3.27074e-06
3.20089e-07
2.89306e-06
3.77674e-07
2.44247e-06
4.5059e-07
1.87192e-06
5.7055e-07
1.12336e-06
7.48558e-07
1.58328e-07
9.65028e-07
-1.0711e-06
1.22943e-06
-2.40028e-06
1.32918e-06
-3.31485e-06
9.14564e-07
-3.25625e-06
-5.86e-08
-2.05766e-06
-1.19859e-06
-2.05766e-06
-9.13571e-07
1.69328e-06
-9.79357e-07
1.66642e-07
-3.92114e-07
-1.17494e-06
5.81528e-07
-1.94025e-06
1.68546e-06
-2.18508e-06
2.6566e-06
-1.92015e-06
3.3703e-06
-1.40415e-06
3.80942e-06
-8.35553e-07
4.00955e-06
-3.24536e-07
4.02889e-06
6.91263e-08
3.93273e-06
3.3203e-07
3.76928e-06
4.8353e-07
3.57808e-06
5.68876e-07
3.37953e-06
6.49139e-07
3.16302e-06
7.8705e-07
2.88283e-06
1.02875e-06
2.46659e-06
1.38126e-06
1.90237e-06
1.79364e-06
1.2479e-06
1.98365e-06
5.65892e-07
1.59657e-06
-2.62616e-07
7.69906e-07
-5.79303e-07
-8.81908e-07
-2.63696e-06
-9.6268e-07
2.65596e-06
-1.12421e-06
3.2817e-07
-6.90619e-07
-1.60854e-06
1.50327e-07
-2.7812e-06
1.28551e-06
-3.32026e-06
2.35405e-06
-2.9887e-06
3.11768e-06
-2.16778e-06
3.58338e-06
-1.30125e-06
3.81563e-06
-5.56792e-07
3.87499e-06
9.76844e-09
3.80557e-06
4.01446e-07
3.67029e-06
6.18809e-07
3.51726e-06
7.21905e-07
3.38477e-06
7.81624e-07
3.30656e-06
8.65262e-07
3.31205e-06
1.02325e-06
3.40564e-06
1.28768e-06
3.55899e-06
1.64029e-06
3.6019e-06
1.94074e-06
3.27892e-06
1.91955e-06
2.621e-06
1.42782e-06
1.42681e-06
3.1228e-07
-1.21015e-06
-1.09322e-06
3.74918e-06
-1.56312e-06
7.98067e-07
-1.6756e-06
-1.49606e-06
-1.20119e-06
-3.25561e-06
-2.18778e-08
-4.49958e-06
1.3965e-06
-4.40708e-06
2.4535e-06
-3.22478e-06
3.07918e-06
-1.92693e-06
3.42249e-06
-9.00107e-07
3.58341e-06
-1.51151e-07
3.62068e-06
3.64171e-07
3.57717e-06
6.62315e-07
3.49909e-06
7.99982e-07
3.42432e-06
8.56399e-07
3.38311e-06
9.06462e-07
3.40247e-06
1.00389e-06
3.51364e-06
1.17651e-06
3.7278e-06
1.42613e-06
3.95062e-06
1.71791e-06
3.92208e-06
1.94809e-06
3.34261e-06
2.00729e-06
1.93431e-06
1.72057e-06
7.24157e-07
-1.36489e-06
5.11407e-06
-2.49678e-06
1.92996e-06
-3.4301e-06
-5.62742e-07
-3.35563e-06
-3.33008e-06
-2.2368e-06
-5.6184e-06
-5.71363e-07
-6.07253e-06
1.04034e-06
-4.83648e-06
2.09148e-06
-2.97807e-06
2.6993e-06
-1.50793e-06
3.05117e-06
-5.03025e-07
3.25984e-06
1.55502e-07
3.37028e-06
5.51871e-07
3.42369e-06
7.46572e-07
3.45536e-06
8.24725e-07
3.49219e-06
8.69629e-07
3.54917e-06
9.46909e-07
3.63074e-06
1.09493e-06
3.73104e-06
1.32583e-06
3.81512e-06
1.63382e-06
3.75764e-06
2.00556e-06
3.2952e-06
2.46973e-06
2.07755e-06
2.93822e-06
2.80171e-06
-1.68944e-06
6.80351e-06
-3.50498e-06
3.74549e-06
-4.8925e-06
8.24776e-07
-5.15617e-06
-3.06641e-06
-4.42456e-06
-6.35001e-06
-2.91605e-06
-7.58104e-06
-1.02582e-06
-6.72671e-06
5.64477e-07
-4.56837e-06
1.59026e-06
-2.53371e-06
2.2371e-06
-1.14987e-06
2.67776e-06
-2.85158e-07
2.99468e-06
2.34949e-07
3.22575e-06
5.15503e-07
3.40604e-06
6.44436e-07
3.56337e-06
7.12293e-07
3.71557e-06
7.94712e-07
3.86176e-06
9.48737e-07
3.97164e-06
1.21596e-06
3.98143e-06
1.62402e-06
3.79786e-06
2.18913e-06
3.26816e-06
2.99943e-06
2.0863e-06
4.12008e-06
4.88801e-06
-1.61038e-06
8.41389e-06
-3.44729e-06
5.5824e-06
-4.73713e-06
2.11461e-06
-5.10936e-06
-2.69417e-06
-4.99996e-06
-6.45942e-06
-4.24224e-06
-8.33876e-06
-2.7954e-06
-8.17355e-06
-1.12461e-06
-6.23915e-06
2.375e-07
-3.89583e-06
1.20318e-06
-2.11555e-06
1.9031e-06
-9.85085e-07
2.44717e-06
-3.0912e-07
2.88797e-06
7.46991e-08
3.2549e-06
2.7751e-07
3.57465e-06
3.92541e-07
3.86711e-06
5.02245e-07
4.14353e-06
6.72322e-07
4.38242e-06
9.7706e-07
4.51619e-06
1.49026e-06
4.45436e-06
2.25096e-06
4.02739e-06
3.42639e-06
3.03458e-06
5.11289e-06
7.92259e-06
-9.53372e-07
9.36726e-06
-2.12149e-06
6.75051e-06
-2.48049e-06
2.47361e-06
-2.66087e-06
-2.51379e-06
-3.05925e-06
-6.06104e-06
-3.36602e-06
-8.03199e-06
-3.09313e-06
-8.44644e-06
-2.14854e-06
-7.18375e-06
-9.44918e-07
-5.09945e-06
1.83973e-07
-3.24444e-06
1.10321e-06
-1.90432e-06
1.84784e-06
-1.05375e-06
2.47164e-06
-5.49098e-07
3.01691e-06
-2.67757e-07
3.51448e-06
-1.05034e-07
3.97815e-06
3.85775e-08
4.43676e-06
2.13706e-07
4.86909e-06
5.44729e-07
5.20907e-06
1.15028e-06
5.34203e-06
2.11801e-06
4.94785e-06
3.82057e-06
3.7105e-06
6.35024e-06
1.16331e-05
9.74646e-06
-9.74646e-06
-2.06123e-06
1.18077e-05
-5.0861e-05
4.87998e-05
-9.45089e-05
4.36479e-05
-0.000104689
1.01802e-05
-0.000101142
-3.54731e-06
-9.54293e-05
-5.71251e-06
-9.86223e-05
3.193e-06
-0.000107478
8.85538e-06
-0.000106352
-1.1259e-06
-8.82467e-05
-1.81051e-05
-5.61832e-05
-3.20635e-05
-2.95606e-05
-2.66226e-05
-3.25014e-05
2.94075e-06
-6.30778e-05
3.05764e-05
-8.59771e-05
2.28993e-05
-7.48351e-05
-1.1142e-05
-3.64752e-05
-3.83599e-05
-3.64752e-05
2.14404e-06
-1.18905e-05
-2.34213e-05
3.7373e-05
-9.34255e-05
0.000118804
-0.000143023
9.32453e-05
-0.000141957
9.11456e-06
-0.000109112
-3.63922e-05
-7.38313e-05
-4.09935e-05
-6.15798e-05
-9.05847e-06
-7.49656e-05
2.22412e-05
-8.76193e-05
1.15278e-05
-8.50723e-05
-2.06521e-05
-7.35408e-05
-4.3595e-05
-6.79405e-05
-3.22229e-05
-8.00664e-05
1.50667e-05
-9.47027e-05
4.52127e-05
-9.1907e-05
2.01036e-05
-7.31302e-05
-2.99188e-05
-3.98292e-05
-7.16609e-05
-7.63044e-05
-6.34858e-06
-5.54189e-06
-3.41618e-05
6.51863e-05
-7.86244e-05
0.000163267
-7.50368e-05
8.96576e-05
-4.35274e-05
-2.23949e-05
1.33441e-05
-9.32636e-05
5.88786e-05
-8.6528e-05
5.77374e-05
-7.9173e-06
1.62595e-05
6.37191e-05
-3.35411e-05
6.13283e-05
-6.43605e-05
1.01673e-05
-7.48205e-05
-3.31349e-05
-8.02826e-05
-2.67609e-05
-8.76596e-05
2.24437e-05
-8.93125e-05
4.68657e-05
-8.06275e-05
1.14185e-05
-6.5968e-05
-4.45782e-05
-3.83157e-05
-9.93133e-05
-0.00011462
-1.48063e-05
9.26438e-06
-3.79565e-05
8.83365e-05
-4.50834e-05
0.000170393
-1.70642e-05
6.16384e-05
2.7928e-05
-6.73871e-05
7.6909e-05
-0.000142245
9.69791e-05
-0.000106598
9.72483e-05
-8.18647e-06
7.2532e-05
8.84355e-05
2.31086e-05
0.000110752
-2.59934e-05
5.92693e-05
-5.58862e-05
-3.24207e-06
-6.94765e-05
-1.31707e-05
-7.38118e-05
2.67791e-05
-7.04303e-05
4.34842e-05
-6.29205e-05
3.90868e-06
-5.34403e-05
-5.40584e-05
-3.27473e-05
-0.000120006
-0.000147367
-1.81102e-05
2.73745e-05
-3.64919e-05
0.000106718
-1.46121e-05
0.000148514
3.10367e-05
1.59896e-05
6.89763e-05
-0.000105327
7.51958e-05
-0.000148464
7.16293e-05
-0.000103032
7.22411e-05
-8.7983e-06
7.1105e-05
8.95716e-05
4.80872e-05
0.000133769
6.42147e-06
0.000100935
-2.94658e-05
3.26452e-05
-4.80086e-05
5.37212e-06
-5.08445e-05
2.96151e-05
-4.6832e-05
3.94717e-05
-4.23476e-05
-5.7575e-07
-3.69145e-05
-5.94915e-05
-2.33926e-05
-0.000133528
-0.00017076
-2.35928e-05
5.09673e-05
-3.30026e-05
0.000116128
7.72324e-06
0.000107788
5.34723e-05
-2.97595e-05
5.9175e-05
-0.000111029
1.00582e-05
-9.93474e-05
-2.29059e-05
-7.00676e-05
-8.1577e-06
-2.35465e-05
2.66465e-05
5.47674e-05
4.20125e-05
0.000118403
2.36864e-05
0.000119261
-4.5862e-06
6.09178e-05
-2.31234e-05
2.39093e-05
-2.43056e-05
3.07973e-05
-2.11144e-05
3.62804e-05
-1.85191e-05
-3.17105e-06
-1.54933e-05
-6.25173e-05
-9.85869e-06
-0.000139163
-0.000180619
-2.67054e-05
7.76727e-05
-1.71193e-05
0.000106542
3.60376e-05
5.46308e-05
5.78323e-05
-5.15542e-05
-1.06434e-06
-5.21327e-05
-8.83182e-05
-1.20935e-05
-0.000108426
-4.99602e-05
-8.54947e-05
-4.64774e-05
-4.26925e-05
1.19652e-05
9.28199e-06
6.64289e-05
2.39989e-05
0.000104544
1.44942e-05
7.04225e-05
1.28664e-06
3.71168e-05
-1.35738e-06
3.34413e-05
3.12964e-06
3.17934e-05
6.30861e-06
-6.35002e-06
6.98069e-06
-6.31894e-05
5.22266e-06
-0.000137405
-0.000175396
1.1094e-05
6.65787e-05
3.19766e-05
8.56595e-05
5.64484e-05
3.01591e-05
1.70459e-05
-1.21517e-05
-8.83362e-05
5.32494e-05
-0.000144832
4.44022e-05
-0.00014213
-5.26617e-05
-0.000126714
-6.1894e-05
-8.99202e-05
-2.48284e-05
-4.09744e-05
1.74831e-05
6.29299e-06
5.72768e-05
2.32317e-05
5.34838e-05
2.58247e-05
3.45239e-05
2.44956e-05
3.47705e-05
2.6789e-05
2.95e-05
2.74742e-05
-7.03526e-06
2.64534e-05
-6.21685e-05
1.604e-05
-0.000126991
-0.000159356
3.94937e-06
5.4179e-06
5.56533e-06
5.13455e-06
6.57843e-06
1.46051e-06
6.9294e-06
-2.86476e-06
5.60051e-06
-4.73215e-06
2.48202e-06
-4.9135e-06
-6.61923e-07
-5.3025e-06
-2.17652e-06
-5.66915e-06
-2.04656e-06
-5.22941e-06
-7.38472e-07
-4.55253e-06
1.1156e-06
-3.75839e-06
2.99338e-06
-2.93154e-06
4.72316e-06
-2.27888e-06
6.33737e-06
-1.88197e-06
7.91376e-06
-1.68142e-06
9.53141e-06
-1.57907e-06
1.12315e-05
-1.48634e-06
1.31205e-05
-1.34436e-06
1.53696e-05
-1.0988e-06
1.82148e-05
-7.27199e-07
2.21007e-05
-6.53304e-08
2.80565e-05
3.94422e-07
2.09768e-06
3.7592e-05
5.8635e-06
-4.45607e-07
1.24517e-05
-1.45369e-06
1.76808e-05
-3.76859e-06
2.03824e-05
-5.5663e-06
1.98083e-05
-4.15813e-06
1.6464e-05
-1.56911e-06
1.194e-05
-7.78498e-07
7.72398e-06
-1.45317e-06
4.81812e-06
-2.32356e-06
3.73035e-06
-3.46475e-06
4.01144e-06
-4.03949e-06
4.7789e-06
-3.69899e-06
5.76735e-06
-3.26733e-06
7.04603e-06
-3.16064e-06
8.7042e-06
-3.3396e-06
1.07035e-05
-3.57834e-06
1.29725e-05
-3.75533e-06
1.5539e-05
-3.91092e-06
1.85879e-05
-4.14772e-06
2.2322e-05
-4.46127e-06
2.65802e-05
-4.32349e-06
3.06942e-05
-3.71965e-06
-5.67294e-06
3.84649e-05
1.02926e-05
-1.07382e-05
1.60624e-05
-7.22357e-06
1.23997e-05
-1.058e-07
3.59864e-06
3.23473e-06
1.78138e-06
-2.34087e-06
7.15233e-06
-6.94006e-06
1.2931e-05
-6.55716e-06
1.53464e-05
-3.86861e-06
1.42042e-05
-1.18129e-06
1.07445e-05
-5.08638e-09
6.71166e-06
-6.64999e-09
2.39916e-06
6.13518e-07
-1.51632e-06
6.48151e-07
-4.2296e-06
-4.47362e-07
-5.12017e-06
-2.44902e-06
-4.60297e-06
-4.09553e-06
-3.38334e-06
-4.97495e-06
-1.55749e-06
-5.73676e-06
1.94443e-06
-7.64963e-06
8.1074e-06
-1.06242e-05
6.01899e-06
-2.23508e-06
-1.82044e-05
2.05037e-05
5.25469e-05
-7.64242e-05
-4.26966e-06
-6.4685e-06
-4.09752e-06
-7.39563e-06
-4.16565e-06
-3.75972e-08
-3.98851e-06
3.05764e-06
-4.2754e-06
-2.05395e-06
-7.5554e-06
-3.66006e-06
-1.32774e-05
-8.35134e-07
-2.21334e-05
4.98734e-06
-3.2233e-05
8.91828e-06
-4.24229e-05
1.01848e-05
-5.19355e-05
9.50578e-06
-5.88956e-05
7.57349e-06
-6.37339e-05
5.48623e-06
-6.76386e-05
3.45721e-06
-7.16959e-05
1.608e-06
-7.59207e-05
1.29052e-07
-7.93213e-05
-1.57459e-06
-8.13912e-05
-3.66703e-06
-8.3048e-05
-5.99301e-06
-9.04591e-05
-3.21315e-06
-0.000114094
2.14e-05
-0.000155699
6.21087e-05
8.33309e-05
-0.000186483
-2.37148e-05
1.72464e-05
-3.55505e-05
4.44013e-06
-3.54976e-05
-9.04424e-08
-3.15671e-05
-8.72856e-07
-3.25641e-05
-1.05695e-06
-3.71742e-05
9.50067e-07
-4.3487e-05
5.47768e-06
-4.91061e-05
1.06066e-05
-5.3677e-05
1.34894e-05
-5.67191e-05
1.32273e-05
-5.836e-05
1.1147e-05
-5.98836e-05
9.09745e-06
-6.23319e-05
7.93484e-06
-6.63861e-05
7.51158e-06
-7.19772e-05
7.19941e-06
-7.85456e-05
6.69771e-06
-8.63176e-05
6.19769e-06
-9.62126e-05
6.2281e-06
-0.000109655
7.44945e-06
-0.000126012
1.31435e-05
-0.000137199
3.25877e-05
-0.000144803
6.97123e-05
0.000101794
-0.000163266
-1.7294e-05
3.45406e-05
-3.47134e-05
2.18596e-05
-4.40836e-05
9.27977e-06
-4.43015e-05
-6.54948e-07
-4.5175e-05
-1.83431e-07
-4.74215e-05
3.19655e-06
-4.89405e-05
6.99673e-06
-4.96174e-05
1.12834e-05
-5.00561e-05
1.39279e-05
-5.06542e-05
1.38252e-05
-5.21688e-05
1.26613e-05
-5.54297e-05
1.23581e-05
-6.03554e-05
1.28603e-05
-6.6074e-05
1.32299e-05
-7.1912e-05
1.30371e-05
-7.76918e-05
1.24773e-05
-8.37318e-05
1.22375e-05
-9.10791e-05
1.35753e-05
-0.000101407
1.7777e-05
-0.000114267
2.60041e-05
-0.000122567
4.08867e-05
-0.000116759
6.39043e-05
8.64578e-05
-0.000101423
-3.27807e-06
3.78186e-05
-1.49744e-05
3.35559e-05
-2.08434e-05
1.51488e-05
-2.3964e-05
2.46572e-06
-2.91281e-05
4.98071e-06
-3.52174e-05
9.28601e-06
-4.02509e-05
1.20303e-05
-4.30623e-05
1.40951e-05
-4.47564e-05
1.56224e-05
-4.72333e-05
1.63023e-05
-5.11862e-05
1.66144e-05
-5.5932e-05
1.71041e-05
-6.06589e-05
1.75873e-05
-6.5015e-05
1.75861e-05
-6.87622e-05
1.67844e-05
-7.17425e-05
1.54576e-05
-7.45495e-05
1.50445e-05
-7.83927e-05
1.74185e-05
-8.38274e-05
2.32117e-05
-8.98991e-05
3.20756e-05
-9.31123e-05
4.40998e-05
-8.77294e-05
5.85213e-05
7.13551e-05
-7.26269e-05
5.01727e-06
3.28014e-05
-5.76219e-07
3.91494e-05
-6.84886e-06
2.14214e-05
-1.54595e-05
1.10763e-05
-2.34198e-05
1.2941e-05
-2.92736e-05
1.51398e-05
-3.39374e-05
1.66941e-05
-3.7825e-05
1.79826e-05
-4.12682e-05
1.90655e-05
-4.4964e-05
1.9998e-05
-4.91563e-05
2.08067e-05
-5.3492e-05
2.14396e-05
-5.76039e-05
2.1699e-05
-6.12263e-05
2.12084e-05
-6.40562e-05
1.96143e-05
-6.60942e-05
1.74957e-05
-6.81775e-05
1.71279e-05
-7.09386e-05
2.01796e-05
-7.38444e-05
2.61174e-05
-7.56066e-05
3.38379e-05
-7.45449e-05
4.30379e-05
-6.89654e-05
5.29416e-05
6.11442e-05
-5.87544e-05
1.57977e-06
3.12217e-05
1.78838e-06
3.89408e-05
-2.13754e-06
2.53474e-05
-1.05891e-05
1.95279e-05
-1.78582e-05
2.02104e-05
-2.36617e-05
2.09435e-05
-2.86154e-05
2.1648e-05
-3.31267e-05
2.24942e-05
-3.74137e-05
2.33525e-05
-4.16112e-05
2.41956e-05
-4.57689e-05
2.49644e-05
-4.98711e-05
2.55418e-05
-5.3876e-05
2.57039e-05
-5.76451e-05
2.49774e-05
-6.10341e-05
2.30032e-05
-6.41562e-05
2.06177e-05
-6.73509e-05
2.03226e-05
-7.04904e-05
2.33192e-05
-7.27256e-05
2.83524e-05
-7.29025e-05
3.40147e-05
-7.0298e-05
4.04335e-05
-6.46923e-05
4.73358e-05
5.32075e-05
-5.67557e-05
-3.70048e-06
3.49221e-05
-1.5823e-06
3.68225e-05
-3.91057e-06
2.76756e-05
-9.8105e-06
2.54278e-05
-1.53399e-05
2.57397e-05
-2.0396e-05
2.59996e-05
-2.51318e-05
2.63837e-05
-2.96024e-05
2.69647e-05
-3.38991e-05
2.76493e-05
-3.80726e-05
2.83691e-05
-4.21541e-05
2.90459e-05
-4.61978e-05
2.95854e-05
-5.02765e-05
2.97826e-05
-5.44823e-05
2.91832e-05
-5.89315e-05
2.74525e-05
-6.36405e-05
2.53268e-05
-6.81523e-05
2.48344e-05
-7.19502e-05
2.71171e-05
-7.43593e-05
3.07615e-05
-7.48443e-05
3.44995e-05
-7.31677e-05
3.87568e-05
-6.93525e-05
4.35206e-05
4.7863e-05
-6.4008e-05
-4.93068e-06
3.98529e-05
-4.25363e-06
3.61456e-05
-6.71922e-06
3.01413e-05
-1.08038e-05
2.95126e-05
-1.49753e-05
2.99115e-05
-1.91293e-05
3.01538e-05
-2.32191e-05
3.04736e-05
-2.71985e-05
3.09442e-05
-3.10765e-05
3.15272e-05
-3.4873e-05
3.21656e-05
-3.86199e-05
3.27927e-05
-4.23732e-05
3.33385e-05
-4.62453e-05
3.36546e-05
-5.04703e-05
3.34082e-05
-5.53285e-05
3.23107e-05
-6.07761e-05
3.07744e-05
-6.60651e-05
3.01234e-05
-7.0312e-05
3.13639e-05
-7.32058e-05
3.36554e-05
-7.47658e-05
3.60595e-05
-7.48332e-05
3.88241e-05
-7.33615e-05
4.20488e-05
4.51958e-05
-7.06942e-05
-3.96043e-06
4.38132e-05
-5.0578e-06
3.7243e-05
-7.80582e-06
3.28893e-05
-1.12057e-05
3.29124e-05
-1.46848e-05
3.33905e-05
-1.81993e-05
3.36682e-05
-2.1711e-05
3.39853e-05
-2.51777e-05
3.44109e-05
-2.85806e-05
3.493e-05
-3.19186e-05
3.55035e-05
-3.52103e-05
3.60843e-05
-3.84971e-05
3.66252e-05
-4.18799e-05
3.70374e-05
-4.55967e-05
3.7125e-05
-4.99686e-05
3.66826e-05
-5.50407e-05
3.58464e-05
-6.02173e-05
3.53001e-05
-6.45334e-05
3.568e-05
-6.76963e-05
3.68182e-05
-6.99164e-05
3.82795e-05
-7.11555e-05
4.00633e-05
-7.12915e-05
4.21848e-05
4.43334e-05
-7.04291e-05
-2.72131e-06
4.65346e-05
-4.72166e-06
3.92435e-05
-7.63117e-06
3.5799e-05
-1.07953e-05
3.60768e-05
-1.39425e-05
3.6538e-05
-1.70824e-05
3.68082e-05
-2.02045e-05
3.71074e-05
-2.32816e-05
3.74879e-05
-2.62921e-05
3.79405e-05
-2.92272e-05
3.84385e-05
-3.20922e-05
3.89492e-05
-3.49087e-05
3.94418e-05
-3.7741e-05
3.98696e-05
-4.07547e-05
4.01388e-05
-4.42085e-05
4.01365e-05
-4.82303e-05
3.98683e-05
-5.24993e-05
3.95692e-05
-5.63673e-05
3.9548e-05
-5.94606e-05
3.99115e-05
-6.1811e-05
4.06301e-05
-6.34409e-05
4.16933e-05
-6.42798e-05
4.30236e-05
4.43877e-05
-6.4334e-05
-1.97916e-06
4.85138e-05
-4.22546e-06
4.14898e-05
-7.15422e-06
3.87278e-05
-1.01609e-05
3.90834e-05
-1.30912e-05
3.94683e-05
-1.59807e-05
3.96976e-05
-1.88279e-05
3.99545e-05
-2.16143e-05
4.02741e-05
-2.43227e-05
4.06487e-05
-2.69433e-05
4.1059e-05
-2.94737e-05
4.14795e-05
-3.19194e-05
4.18874e-05
-3.43098e-05
4.226e-05
-3.67334e-05
4.25623e-05
-3.93464e-05
4.27495e-05
-4.22751e-05
4.2797e-05
-4.54414e-05
4.27354e-05
-4.8543e-05
4.26495e-05
-5.1286e-05
4.26546e-05
-5.35305e-05
4.28747e-05
-5.52213e-05
4.33842e-05
-5.6325e-05
4.41273e-05
4.4917e-05
-5.68542e-05
-1.75001e-06
5.02639e-05
-4.00063e-06
4.37405e-05
-6.8117e-06
4.1539e-05
-9.63048e-06
4.19024e-05
-1.23655e-05
4.22035e-05
-1.50503e-05
4.23824e-05
-1.76828e-05
4.25869e-05
-2.0249e-05
4.28401e-05
-2.27357e-05
4.31354e-05
-2.5135e-05
4.34582e-05
-2.74422e-05
4.37867e-05
-2.96552e-05
4.41003e-05
-3.17815e-05
4.43864e-05
-3.38571e-05
4.46379e-05
-3.59548e-05
4.48472e-05
-3.81565e-05
4.49987e-05
-4.04882e-05
4.50671e-05
-4.28775e-05
4.50388e-05
-4.51818e-05
4.49589e-05
-4.72487e-05
4.49417e-05
-4.89593e-05
4.50949e-05
-5.02575e-05
4.54255e-05
4.58115e-05
-5.11519e-05
-1.76584e-06
5.20297e-05
-3.97402e-06
4.59487e-05
-6.60898e-06
4.4174e-05
-9.23031e-06
4.45238e-05
-1.17864e-05
4.47596e-05
-1.42986e-05
4.48945e-05
-1.67625e-05
4.50508e-05
-1.91668e-05
4.52444e-05
-2.15016e-05
4.547e-05
-2.37608e-05
4.57174e-05
-2.59424e-05
4.59682e-05
-2.80442e-05
4.62021e-05
-3.00657e-05
4.64078e-05
-3.20147e-05
4.65869e-05
-3.39149e-05
4.67474e-05
-3.58039e-05
4.68876e-05
-3.77208e-05
4.6984e-05
-3.96836e-05
4.70016e-05
-4.1662e-05
4.69374e-05
-4.35707e-05
4.68507e-05
-4.53059e-05
4.68301e-05
-4.67969e-05
4.69164e-05
4.70443e-05
-4.80297e-05
-1.82321e-06
5.3853e-05
-3.99102e-06
4.81166e-05
-6.4576e-06
4.66407e-05
-8.90737e-06
4.69736e-05
-1.13131e-05
4.71654e-05
-1.3686e-05
4.72673e-05
-1.60211e-05
4.73858e-05
-1.83101e-05
4.75332e-05
-2.05452e-05
4.77051e-05
-2.27227e-05
4.78949e-05
-2.48434e-05
4.80889e-05
-2.69097e-05
4.82685e-05
-2.89217e-05
4.84197e-05
-3.08771e-05
4.85423e-05
-3.27764e-05
4.86466e-05
-3.46289e-05
4.87401e-05
-3.64576e-05
4.88126e-05
-3.82924e-05
4.88364e-05
-4.0147e-05
4.8792e-05
-4.19966e-05
4.87005e-05
-4.3786e-05
4.86196e-05
-4.54623e-05
4.85927e-05
4.8581e-05
-4.69989e-05
-1.86139e-06
5.57144e-05
-3.98789e-06
5.02431e-05
-6.31247e-06
4.89653e-05
-8.62368e-06
4.9285e-05
-1.09075e-05
4.94493e-05
-1.31694e-05
4.95292e-05
-1.54058e-05
4.96222e-05
-1.76112e-05
4.97385e-05
-1.97803e-05
4.98742e-05
-2.19108e-05
5.00254e-05
-2.40052e-05
5.01833e-05
-2.60695e-05
5.03328e-05
-2.81084e-05
5.04586e-05
-3.01202e-05
5.05541e-05
-3.20986e-05
5.06249e-05
-3.40393e-05
5.06809e-05
-3.5949e-05
5.07223e-05
-3.78461e-05
5.07335e-05
-3.97504e-05
5.06963e-05
-4.1666e-05
5.06162e-05
-4.3576e-05
5.05297e-05
-4.54525e-05
5.04692e-05
5.03977e-05
-4.72692e-05
-1.87902e-06
5.75934e-05
-3.95482e-06
5.23189e-05
-6.15828e-06
5.11688e-05
-8.35529e-06
5.1482e-05
-1.05377e-05
5.16316e-05
-1.27082e-05
5.16998e-05
-1.48652e-05
5.17791e-05
-1.70058e-05
5.1879e-05
-1.91271e-05
5.19955e-05
-2.12279e-05
5.21262e-05
-2.33106e-05
5.22662e-05
-2.53828e-05
5.2405e-05
-2.74525e-05
5.25283e-05
-2.95233e-05
5.26248e-05
-3.15911e-05
5.26927e-05
-3.36488e-05
5.27386e-05
-3.5694e-05
5.27674e-05
-3.77343e-05
5.27738e-05
-3.97849e-05
5.27469e-05
-4.18583e-05
5.26897e-05
-4.39555e-05
5.2627e-05
-4.60648e-05
5.25784e-05
5.25001e-05
-4.81672e-05
-1.87858e-06
5.9472e-05
-3.89119e-06
5.43315e-05
-5.98709e-06
5.32647e-05
-8.08448e-06
5.35793e-05
-1.01773e-05
5.37244e-05
-1.22675e-05
5.379e-05
-1.4355e-05
5.38666e-05
-1.64392e-05
5.39632e-05
-1.85194e-05
5.40757e-05
-2.05954e-05
5.42023e-05
-2.26696e-05
5.43405e-05
-2.47484e-05
5.4484e-05
-2.68417e-05
5.46216e-05
-2.89576e-05
5.47407e-05
-3.10982e-05
5.48333e-05
-3.32595e-05
5.48999e-05
-3.54373e-05
5.49453e-05
-3.76342e-05
5.49707e-05
-3.98609e-05
5.49736e-05
-4.21309e-05
5.49597e-05
-4.44517e-05
5.49478e-05
-4.68202e-05
5.49469e-05
5.4905e-05
-4.92251e-05
-1.85896e-06
6.13309e-05
-3.79784e-06
5.62703e-05
-5.79357e-06
5.52605e-05
-7.79796e-06
5.55836e-05
-9.80588e-06
5.57323e-05
-1.18192e-05
5.58033e-05
-1.38391e-05
5.58866e-05
-1.5867e-05
5.5991e-05
-1.79038e-05
5.61126e-05
-1.9951e-05
5.62494e-05
-2.20108e-05
5.64004e-05
-2.40888e-05
5.65622e-05
-2.61946e-05
5.67275e-05
-2.83388e-05
5.68849e-05
-3.05293e-05
5.70237e-05
-3.27681e-05
5.71387e-05
-3.50542e-05
5.72315e-05
-3.73891e-05
5.73057e-05
-3.97819e-05
5.73662e-05
-4.22459e-05
5.74237e-05
-4.47924e-05
5.74942e-05
-4.74243e-05
5.75787e-05
5.76185e-05
-5.01377e-05
-1.81863e-06
6.31495e-05
-3.67468e-06
5.81264e-05
-5.57262e-06
5.71582e-05
-7.48457e-06
5.74954e-05
-9.4061e-06
5.76537e-05
-1.13395e-05
5.77367e-05
-1.32873e-05
5.78344e-05
-1.5252e-05
5.79557e-05
-1.72362e-05
5.80968e-05
-1.92427e-05
5.82559e-05
-2.12747e-05
5.84325e-05
-2.33374e-05
5.86251e-05
-2.54395e-05
5.88296e-05
-2.75926e-05
5.9038e-05
-2.98082e-05
5.92394e-05
-3.20945e-05
5.94251e-05
-3.44554e-05
5.95924e-05
-3.68949e-05
5.97453e-05
-3.9422e-05
5.98933e-05
-4.20514e-05
6.0053e-05
-4.4798e-05
6.02408e-05
-4.76709e-05
6.04516e-05
6.06221e-05
-5.06745e-05
-1.75698e-06
6.49064e-05
-3.52139e-06
5.98909e-05
-5.31937e-06
5.8956e-05
-7.13462e-06
5.93104e-05
-8.96332e-06
5.94823e-05
-1.08087e-05
5.95822e-05
-1.26742e-05
5.96999e-05
-1.45632e-05
5.98447e-05
-1.64795e-05
6.00131e-05
-1.84272e-05
6.02037e-05
-2.04108e-05
6.04162e-05
-2.24358e-05
6.06503e-05
-2.45103e-05
6.09043e-05
-2.6646e-05
6.11737e-05
-2.88564e-05
6.14497e-05
-3.1154e-05
6.17227e-05
-3.35484e-05
6.19868e-05
-3.60472e-05
6.22441e-05
-3.86612e-05
6.25073e-05
-4.1407e-05
6.27988e-05
-4.43037e-05
6.31375e-05
-4.73665e-05
6.35144e-05
6.38644e-05
-5.06088e-05
-1.67468e-06
6.65811e-05
-3.33817e-06
6.15542e-05
-5.03035e-06
6.0648e-05
-6.74066e-06
6.10205e-05
-8.46626e-06
6.12079e-05
-1.02114e-05
6.13274e-05
-1.19801e-05
6.14687e-05
-1.37764e-05
6.1641e-05
-1.56049e-05
6.18416e-05
-1.74706e-05
6.20694e-05
-1.93791e-05
6.23248e-05
-2.13366e-05
6.26079e-05
-2.33514e-05
6.29192e-05
-2.54344e-05
6.32567e-05
-2.75998e-05
6.36152e-05
-2.98632e-05
6.39861e-05
-3.22385e-05
6.4362e-05
-3.47377e-05
6.47432e-05
-3.73742e-05
6.51438e-05
-4.01665e-05
6.55911e-05
-4.31369e-05
6.61079e-05
-4.63059e-05
6.66836e-05
6.72542e-05
-4.96957e-05
-1.57324e-06
6.81544e-05
-3.12607e-06
6.31069e-05
-4.70423e-06
6.22259e-05
-6.2986e-06
6.26147e-05
-7.90818e-06
6.28175e-05
-9.53817e-06
6.29574e-05
-1.11929e-05
6.31233e-05
-1.28765e-05
6.33247e-05
-1.4594e-05
6.35591e-05
-1.63509e-05
6.38264e-05
-1.81534e-05
6.41273e-05
-2.00085e-05
6.4463e-05
-2.19241e-05
6.48348e-05
-2.39108e-05
6.52434e-05
-2.59825e-05
6.56869e-05
-2.81558e-05
6.61594e-05
-3.04476e-05
6.66539e-05
-3.28739e-05
6.71694e-05
-3.54505e-05
6.77203e-05
-3.81969e-05
6.83375e-05
-4.11368e-05
6.9048e-05
-4.42937e-05
6.98406e-05
7.06565e-05
-4.7696e-05
-1.45493e-06
6.96093e-05
-2.88768e-06
6.45396e-05
-4.34174e-06
6.36797e-05
-5.8077e-06
6.40807e-05
-7.28713e-06
6.42969e-05
-8.78595e-06
6.44561e-05
-1.03083e-05
6.46456e-05
-1.18581e-05
6.48746e-05
-1.34402e-05
6.51414e-05
-1.50601e-05
6.54465e-05
-1.67241e-05
6.57914e-05
-1.8439e-05
6.61779e-05
-2.02126e-05
6.66084e-05
-2.20545e-05
6.70853e-05
-2.39773e-05
6.76098e-05
-2.59973e-05
6.81794e-05
-2.81326e-05
6.87892e-05
-3.04012e-05
6.9438e-05
-3.28206e-05
7.01396e-05
-3.54098e-05
7.09266e-05
-3.81911e-05
7.18293e-05
-4.11871e-05
7.28367e-05
7.38974e-05
-4.4428e-05
-1.3225e-06
7.09318e-05
-2.62621e-06
6.5843e-05
-3.9447e-06
6.49981e-05
-5.26952e-06
6.54057e-05
-6.60502e-06
6.56324e-05
-7.9572e-06
6.58082e-05
-9.32948e-06
6.60179e-05
-1.07253e-05
6.62705e-05
-1.21487e-05
6.6565e-05
-1.36046e-05
6.69026e-05
-1.50986e-05
6.72854e-05
-1.66367e-05
6.7716e-05
-1.82259e-05
6.81974e-05
-1.98742e-05
6.87336e-05
-2.15924e-05
6.9328e-05
-2.33946e-05
6.99816e-05
-2.52978e-05
7.06924e-05
-2.73203e-05
7.14604e-05
-2.94791e-05
7.22983e-05
-3.17907e-05
7.32382e-05
-3.42726e-05
7.43113e-05
-3.69433e-05
7.55074e-05
7.67826e-05
-3.98284e-05
-1.17921e-06
7.2111e-05
-2.34381e-06
6.70072e-05
-3.51447e-06
6.61689e-05
-4.68658e-06
6.65779e-05
-5.86628e-06
6.6812e-05
-7.05857e-06
6.70004e-05
-8.26578e-06
6.72251e-05
-9.49026e-06
6.74951e-05
-1.0735e-05
6.78099e-05
-1.20037e-05
6.81713e-05
-1.33004e-05
6.85821e-05
-1.46298e-05
6.90453e-05
-1.59971e-05
6.95647e-05
-1.74085e-05
7.0145e-05
-1.88717e-05
7.07911e-05
-2.03975e-05
7.15072e-05
-2.19997e-05
7.22946e-05
-2.36941e-05
7.31547e-05
-2.54953e-05
7.40995e-05
-2.74151e-05
7.5158e-05
-2.94636e-05
7.63599e-05
-3.16519e-05
7.76958e-05
7.91295e-05
-3.39987e-05
-1.02872e-06
7.31396e-05
-2.04155e-06
6.80197e-05
-3.05195e-06
6.71795e-05
-4.0623e-06
6.75882e-05
-5.07773e-06
6.78274e-05
-6.10065e-06
6.80234e-05
-7.13188e-06
6.82565e-05
-8.17244e-06
6.85358e-05
-9.22384e-06
6.88614e-05
-1.0288e-05
6.92355e-05
-1.1367e-05
6.96612e-05
-1.24637e-05
7.0142e-05
-1.35809e-05
7.0682e-05
-1.47221e-05
7.12861e-05
-1.58916e-05
7.19605e-05
-1.70956e-05
7.27111e-05
-1.8343e-05
7.3542e-05
-1.96452e-05
7.44568e-05
-2.1012e-05
7.54663e-05
-2.2449e-05
7.6595e-05
-2.39573e-05
7.78683e-05
-2.55394e-05
7.9278e-05
8.0799e-05
-2.72089e-05
-8.74646e-07
7.40139e-05
-1.7203e-06
6.88654e-05
-2.55944e-06
6.80186e-05
-3.4033e-06
6.84319e-05
-4.25075e-06
6.86749e-05
-5.09977e-06
6.88726e-05
-5.94944e-06
6.91063e-05
-6.79937e-06
6.93858e-05
-7.64934e-06
6.97113e-05
-8.49927e-06
7.00853e-05
-9.34924e-06
7.05111e-05
-1.01995e-05
7.09922e-05
-1.10502e-05
7.15327e-05
-1.19018e-05
7.21377e-05
-1.27547e-05
7.28134e-05
-1.36102e-05
7.35666e-05
-1.44716e-05
7.44032e-05
-1.53437e-05
7.53287e-05
-1.62303e-05
7.63529e-05
-1.71301e-05
7.74949e-05
-1.80353e-05
7.87735e-05
-1.89397e-05
8.01825e-05
8.17128e-05
-1.98534e-05
-7.20981e-07
7.47346e-05
-1.3835e-06
6.95281e-05
-2.04458e-06
6.86795e-05
-2.72313e-06
6.91104e-05
-3.40466e-06
6.93565e-05
-4.08102e-06
6.95491e-05
-4.74968e-06
6.97751e-05
-5.40894e-06
7.0045e-05
-6.0569e-06
7.03592e-05
-6.69153e-06
7.07199e-05
-7.3107e-06
7.11302e-05
-7.91213e-06
7.15936e-05
-8.49332e-06
7.21139e-05
-9.05139e-06
7.26958e-05
-9.58304e-06
7.3345e-05
-1.00849e-05
7.40683e-05
-1.05541e-05
7.48724e-05
-1.09888e-05
7.57633e-05
-1.13859e-05
7.675e-05
-1.17375e-05
7.78465e-05
-1.20281e-05
7.90643e-05
-1.2243e-05
8.03974e-05
8.18561e-05
-1.23863e-05
-5.72592e-07
7.53072e-05
-1.03997e-06
6.99956e-05
-1.52431e-06
6.91637e-05
-2.0456e-06
6.96317e-05
-2.56905e-06
6.98801e-05
-3.07985e-06
7.006e-05
-3.57437e-06
7.02696e-05
-4.04992e-06
7.05205e-05
-4.50309e-06
7.08123e-05
-4.93007e-06
7.11467e-05
-5.3267e-06
7.15267e-05
-5.68844e-06
7.19553e-05
-6.01023e-06
7.24357e-05
-6.28629e-06
7.29719e-05
-6.51e-06
7.35688e-05
-6.67383e-06
7.42322e-05
-6.76976e-06
7.49682e-05
-6.78952e-06
7.5783e-05
-6.72345e-06
7.66838e-05
-6.55762e-06
7.76807e-05
-6.27135e-06
7.87781e-05
-5.84133e-06
7.99674e-05
8.12717e-05
-5.25683e-06
-4.34797e-07
7.57422e-05
-7.0556e-07
7.02663e-05
-1.02563e-06
6.94838e-05
-1.40382e-06
7.001e-05
-1.78177e-06
7.02581e-05
-2.13939e-06
7.04176e-05
-2.47265e-06
7.06028e-05
-2.77816e-06
7.08259e-05
-3.05127e-06
7.10853e-05
-3.28668e-06
7.13821e-05
-3.47857e-06
7.17186e-05
-3.62051e-06
7.20972e-05
-3.70535e-06
7.25205e-05
-3.72497e-06
7.29915e-05
-3.67008e-06
7.35139e-05
-3.53e-06
7.40921e-05
-3.29279e-06
7.47309e-05
-2.94524e-06
7.54353e-05
-2.47238e-06
7.62109e-05
-1.85541e-06
7.70638e-05
-1.07067e-06
7.79934e-05
-8.79978e-08
7.89847e-05
8.00621e-05
1.1217e-06
-3.09281e-07
7.60516e-05
-4.00971e-07
7.0358e-05
-5.81041e-07
6.96641e-05
-8.34133e-07
7.02632e-05
-1.08232e-06
7.05063e-05
-1.30321e-06
7.06384e-05
-1.49317e-06
7.07926e-05
-1.64823e-06
7.09808e-05
-1.76274e-06
7.11998e-05
-1.83024e-06
7.14496e-05
-1.84362e-06
7.1732e-05
-1.79507e-06
7.20487e-05
-1.6759e-06
7.24014e-05
-1.47633e-06
7.2792e-05
-1.18526e-06
7.32229e-05
-7.899e-07
7.36967e-05
-2.75997e-07
7.42169e-05
3.72925e-07
7.47862e-05
1.17513e-06
7.54086e-05
2.15171e-06
7.60872e-05
3.32713e-06
7.6818e-05
4.72774e-06
7.75841e-05
7.84e-05
6.38995e-06
-2.05826e-07
7.62574e-05
-1.49947e-07
7.03023e-05
-2.17729e-07
6.9732e-05
-3.66238e-07
7.04117e-05
-5.0248e-07
7.06424e-05
-6.06121e-07
7.07419e-05
-6.74788e-07
7.08611e-05
-7.03797e-07
7.10098e-05
-6.86633e-07
7.11826e-05
-6.16003e-07
7.1379e-05
-4.83924e-07
7.16e-05
-2.81561e-07
7.18463e-05
7.01458e-10
7.21191e-05
3.7368e-07
7.2419e-05
8.49569e-07
7.2747e-05
1.44184e-06
7.31044e-05
2.16603e-06
7.34927e-05
3.0388e-06
7.39134e-05
4.07961e-06
7.43678e-05
5.31073e-06
7.48562e-05
6.75451e-06
7.53743e-05
8.43845e-06
7.59001e-05
7.64393e-05
1.03992e-05
-6.74063e-08
7.63249e-05
2.01269e-08
7.02149e-05
4.91573e-08
6.97029e-05
-1.98599e-08
7.04807e-05
-6.04636e-08
7.0683e-05
-6.79045e-08
7.07492e-05
-4.01857e-08
7.08333e-05
2.89077e-08
7.09406e-05
1.4679e-07
7.10647e-05
3.21428e-07
7.12044e-05
5.61468e-07
7.136e-05
8.76035e-07
7.15318e-05
1.27541e-06
7.17197e-05
1.77073e-06
7.19236e-05
2.37423e-06
7.21435e-05
3.09965e-06
7.23791e-05
3.96201e-06
7.26304e-05
4.97839e-06
7.2897e-05
6.16756e-06
7.31785e-05
7.54876e-06
7.34749e-05
9.14497e-06
7.3778e-05
1.09794e-05
7.40656e-05
7.43323e-05
1.30865e-05
2.21185e-07
7.61037e-05
1.42505e-07
7.02935e-05
2.06751e-07
6.96386e-05
2.09312e-07
7.04781e-05
2.46636e-07
7.06456e-05
3.09753e-07
7.06861e-05
4.05416e-07
7.07376e-05
5.4156e-07
7.08044e-05
7.26354e-07
7.08798e-05
9.68198e-07
7.09626e-05
1.27589e-06
7.10523e-05
1.65901e-06
7.11487e-05
2.12767e-06
7.1251e-05
2.69276e-06
7.13586e-05
3.36618e-06
7.14702e-05
4.16076e-06
7.15846e-05
5.09056e-06
7.17006e-05
6.17087e-06
7.18166e-05
7.41886e-06
7.19304e-05
8.85379e-06
7.20399e-05
1.04938e-05
7.21381e-05
1.23568e-05