/*--------------------------------*- C++ -*----------------------------------*\
| =========                 |                                                 |
| \\      /  F ield         | OpenFOAM: The Open Source CFD Toolbox           |
|  \\    /   O peration     | Version:  2206                                  |
|   \\  /    A nd           | Website:  www.openfoam.com                      |
|    \\/     M anipulation  |                                                 |
\*---------------------------------------------------------------------------*/
FoamFile
{
    version     2.0;
    format      ascii;
    arch        "LSB;label=32;scalar=64";
    class       volScalarField;
    location    "0.45";
    object      alpha.water;
}
// * * * * * * * * * * * * * * * * * * * * * * * * * * * * * * * * * * * * * //

dimensions      [0 0 0 0 0 0 0];

internalField   nonuniform List<scalar> 
2268
(
1
1
1
1
1
1
1
1
1
1
1
1
1
1
1
1
1
1
1
1
1
0.970013
0.860419
1
1
1
1
1
1
1
1
1
1
1
1
1
1
1
1
1
1
1
0.999983
0.999935
0.999935
0.886398
1
1
1
1
1
1
1
1
1
1
1
1
1
1
1
1
1
1
1
1
0.99994
0.998442
0.939665
1
1
1
1
1
1
1
1
1
1
1
1
1
1
1
1
1
1
1
1
0.999976
0.999879
0.996807
1
1
1
1
1
1
1
1
1
1
1
1
1
1
1
1
1
1
1
1
1
0.999997
1
1
1
1
0.999999
1
1
1
1
1
1
1
1
1
1
1
1
1
1
1
1
1
1
1
1
0.999898
0.998482
0.999437
0.999971
0.999995
1
1
1
1
1
1
1
1
1
1
1
1
1
1
1
1
1
0.550643
0.512639
0.497329
0.529859
0.585236
0.648114
0.726268
0.793396
0.860929
0.923269
0.971939
1
1
1
1
1
1
1
1
1
1
1
1
4.00518e-10
4.00518e-10
9.45305e-09
4.58805e-07
2.62736e-06
5.9679e-07
7.20634e-08
1.01647e-08
1.41899e-09
1.88245e-10
2.52205e-11
4.48696e-12
6.4866e-13
5.97835e-14
4.19074e-15
2.32237e-16
9.11817e-18
1.99496e-19
1.07572e-19
4.00518e-10
9.47789e-09
2.59472e-06
1.39185e-05
1.08924e-05
3.1545e-06
5.29663e-07
7.17852e-08
1.00495e-08
1.38275e-09
1.81948e-10
2.35829e-11
3.82213e-12
1.18238e-12
1.18986e-13
5.8012e-15
2.12685e-16
2.84646e-18
1.06791e-19
3.099e-08
1.0468e-06
0.000127794
0.000281804
0.000175921
8.88784e-05
1.69146e-05
1.38589e-06
2.05216e-07
2.97032e-08
4.11443e-09
5.35045e-10
6.54466e-11
7.37289e-12
7.43462e-13
4.48717e-14
1.49772e-15
2.59996e-17
2.45664e-18
2.02699e-06
8.27242e-05
0.000527988
0.00259073
0.00168872
0.0012314
0.000183271
1.59186e-05
2.57033e-06
3.93497e-07
5.6298e-08
7.41457e-09
8.69114e-10
7.83523e-11
6.02048e-12
3.60982e-13
1.31939e-14
2.22138e-16
2.81842e-17
3.94692e-05
0.000585736
0.000741589
0.0433313
0.011046
0.00685476
0.000596599
8.48554e-05
1.48607e-05
2.34503e-06
3.3081e-07
4.11522e-08
4.42927e-09
4.01704e-10
2.95729e-11
1.97186e-12
7.28706e-14
1.24848e-15
2.58456e-16
5.68607e-05
5.8648e-05
0.24878
0.504562
0.2549
0.0128435
0.00101394
0.00019629
3.60019e-05
5.96457e-06
8.79698e-07
1.13633e-07
1.26266e-08
1.17553e-09
8.86792e-11
6.05232e-12
2.37473e-13
4.23789e-15
1.49692e-15
5.8648e-05
0.123562
0.727427
0.742655
0.592972
0.124619
0.00306502
0.00058764
0.000110388
1.87682e-05
2.82289e-06
3.69397e-07
4.14404e-08
3.8827e-09
2.93946e-10
1.72793e-11
7.71084e-13
1.2649e-14
5.39707e-15
0.41201
0.783765
0.757431
0.750341
0.7279
0.444231
0.0533034
0.0016703
0.000321381
5.64553e-05
8.70179e-06
1.16276e-06
1.31835e-07
1.24253e-08
9.43142e-10
5.60016e-11
2.504e-12
3.72656e-14
1.81586e-14
1.12327e-08
1.10478e-07
0.000454951
0.00142421
0.000125932
5.63425e-06
0.000457241
0.0216316
0.0695016
0.147307
0.261858
0.421839
0.614859
0.830816
0.998954
1
0.999999
0.999998
1
1
1
1
1
4.9054e-31
2.10521e-08
7.85275e-25
-7.24554e-12
1.38751e-07
1.70474e-07
2.12584e-06
3.43265e-07
3.37866e-06
5.451e-05
0.00458183
0.0210608
0.0584203
0.166823
0.38342
0.616555
0.800984
0.963537
0.992475
0.999213
0.999918
0.999948
0.999997
-5.86559e-16
-9.53088e-16
-2.71446e-15
-2.36557e-14
-8.67014e-16
4.67023e-10
3.0745e-08
1.34227e-07
1.33427e-07
3.28812e-06
1.22657e-05
4.46906e-06
3.9541e-06
2.754e-06
5.14214e-05
0.0253377
0.11747
0.259669
0.420987
0.553451
0.73353
0.83486
0.883559
-3.20283e-16
-4.33885e-16
-1.89943e-15
-1.869e-14
-1.05647e-13
-1.60238e-11
-1.50141e-10
-9.77559e-11
2.0478e-09
8.8237e-08
3.44018e-07
2.029e-06
3.71805e-06
6.97239e-08
1.50489e-06
9.60468e-07
1.19754e-07
1.39376e-08
1.43479e-08
6.36886e-09
0.0261773
0.0740134
0.115728
-1.29358e-16
-1.33894e-16
-9.73952e-16
-1.00924e-14
-6.18742e-14
-2.34282e-13
-1.20429e-13
-5.28471e-13
-1.17665e-11
-9.32134e-12
-2.22671e-17
5.07765e-08
5.27297e-08
-9.93734e-24
9.28822e-23
1.3461e-06
7.17364e-07
2.55251e-13
1.06045e-12
2.21228e-12
6.36886e-09
1.41917e-08
2.34808e-08
-4.22745e-17
-3.00056e-17
-3.74324e-16
-4.04116e-15
-2.65717e-14
-1.03817e-13
-2.49207e-13
-4.46707e-13
-6.60043e-13
-8.20335e-13
-9.06715e-13
-1.49455e-13
-2.95415e-14
-6.42219e-15
-4.12212e-15
-2.73149e-12
-4.66883e-13
1.81097e-14
3.8988e-13
1.06045e-12
4.83647e-08
2.05419e-07
2.07344e-07
-1.29953e-17
-9.45849e-18
-1.10934e-16
-1.25811e-15
-8.73469e-15
-3.508e-14
-8.58696e-14
-1.55413e-13
-2.29851e-13
-2.85907e-13
-2.94363e-13
-2.25134e-13
-1.28795e-13
-3.2238e-14
7.67146e-15
5.73977e-14
1.79433e-13
8.14354e-13
2.2263e-12
3.34363e-12
3.32105e-12
3.79795e-12
4.84666e-12
-4.32355e-18
-2.74499e-18
-2.64568e-17
-3.0758e-16
-2.22502e-15
-9.1397e-15
-2.26897e-14
-4.11321e-14
-6.01548e-14
-7.35305e-14
-7.39715e-14
-5.69019e-14
-2.13128e-14
8.62776e-14
3.8541e-13
7.59869e-13
2.11495e-12
8.74065e-12
1.5531e-11
1.61031e-11
1.56749e-11
1.61254e-11
1.78885e-11
-1.64383e-18
-6.28207e-19
-5.00585e-18
-5.84873e-17
-4.37382e-16
-1.82948e-15
-4.57837e-15
-8.23706e-15
-1.173e-14
-1.36824e-14
-1.28089e-14
-8.44302e-15
-1.12104e-15
1.91185e-14
8.69404e-14
2.60098e-13
5.38341e-13
9.85931e-13
1.84529e-12
3.35097e-12
6.39681e-12
1.32801e-11
2.80405e-11
-5.54774e-19
-1.12129e-19
-7.22348e-19
-8.41363e-18
-6.47293e-17
-2.74314e-16
-6.86405e-16
-1.20798e-15
-1.62656e-15
-1.6864e-15
-1.20476e-15
-2.00115e-16
2.22749e-15
1.04501e-14
3.19149e-14
8.27711e-14
1.93423e-13
4.13879e-13
8.23249e-13
1.55172e-12
2.7681e-12
4.76815e-12
8.14569e-12
-1.40233e-19
-1.49453e-20
-7.4635e-20
-8.66637e-19
-6.83571e-18
-2.91493e-17
-7.18437e-17
-1.1959e-16
-1.39503e-16
-9.11539e-17
7.9391e-18
5.21923e-16
2.1945e-15
6.93005e-15
1.98883e-14
5.21673e-14
1.27253e-13
2.89503e-13
6.16656e-13
1.22345e-12
2.28762e-12
4.01914e-12
6.32356e-12
-2.38326e-20
-1.39505e-21
-4.93072e-21
-5.72571e-20
-4.61023e-19
-1.95065e-18
-4.49291e-18
-6.13524e-18
-2.03048e-18
1.09027e-17
9.21178e-17
3.95443e-16
1.50148e-15
5.10504e-15
1.55044e-14
4.31888e-14
1.12184e-13
2.68879e-13
5.89429e-13
1.19025e-12
2.25005e-12
3.95233e-12
6.22538e-12
-2.3601e-21
-7.68768e-23
-1.5793e-22
-1.82377e-21
-1.46961e-20
-5.67048e-20
-5.97212e-20
9.90381e-20
1.66798e-18
1.03765e-17
5.41879e-17
2.66167e-16
1.11714e-15
4.05454e-15
1.31932e-14
4.02654e-14
1.10692e-13
2.83151e-13
6.71417e-13
1.41118e-12
2.65474e-12
4.40656e-12
6.9128e-12
-1.06008e-22
-1.41159e-24
7.87161e-43
3.08681e-24
7.44074e-23
1.18981e-21
1.34252e-20
1.30879e-19
7.1708e-19
5.10706e-18
3.4306e-17
1.86717e-16
8.34701e-16
3.26059e-15
1.17795e-14
3.99708e-14
1.30897e-13
3.83154e-13
9.36062e-13
1.90541e-12
3.35975e-12
5.35282e-12
9.34755e-12
-1.82991e-24
-1.0426e-26
2.00867e-26
3.72755e-25
1.21942e-23
2.41875e-22
3.22958e-21
3.37236e-20
3.30449e-19
2.8053e-18
2.1141e-17
1.26089e-16
6.05244e-16
2.61398e-15
1.08425e-14
4.42544e-14
1.63736e-13
4.91325e-13
1.14882e-12
2.21493e-12
3.8421e-12
6.54763e-12
1.76513e-11
3.71528e-26
3.75269e-27
2.89351e-27
1.221e-25
4.45473e-24
9.43246e-23
1.34407e-21
1.52944e-20
1.5348e-19
1.43342e-18
1.2298e-17
8.10505e-17
4.20104e-16
2.05302e-15
1.01159e-14
4.65695e-14
1.81978e-13
5.41692e-13
1.2119e-12
2.28561e-12
4.18471e-12
8.77296e-12
3.0955e-11
2.14453e-26
1.25458e-27
8.1205e-28
3.25354e-26
1.29927e-24
2.98197e-23
4.62949e-22
5.77193e-21
6.51905e-20
6.91902e-19
6.66961e-18
4.84341e-17
2.70626e-16
1.50951e-15
8.90571e-15
4.66864e-14
1.87043e-13
5.49027e-13
1.15984e-12
2.21289e-12
4.90908e-12
1.33657e-11
4.50623e-11
4.1631e-27
2.69315e-28
1.73742e-28
8.4749e-27
3.71685e-25
9.15893e-24
1.54056e-22
2.10398e-21
2.60437e-20
3.09061e-19
3.277e-18
2.61635e-17
1.56331e-16
9.76153e-16
7.03285e-15
4.25434e-14
1.75118e-13
4.53176e-13
9.42054e-13
2.11676e-12
6.19408e-12
1.88487e-11
5.06099e-11
1.16375e-27
7.02433e-29
3.79273e-29
2.09361e-27
9.90505e-26
2.60573e-24
4.73516e-23
7.04449e-22
9.53474e-21
1.24862e-19
1.43479e-18
1.25694e-17
7.98452e-17
5.41234e-16
4.96137e-15
3.28465e-14
1.20693e-13
2.95443e-13
7.79687e-13
2.45891e-12
7.60134e-12
1.9538e-11
4.92841e-11
2.42759e-28
1.38236e-29
7.49903e-30
4.8926e-28
2.48617e-26
6.93322e-25
1.35218e-23
2.17626e-22
3.1877e-21
4.52986e-20
5.59517e-19
5.36797e-18
3.65011e-17
2.61037e-16
3.04737e-15
1.95432e-14
6.38998e-14
1.93091e-13
7.62676e-13
3.10129e-12
8.04604e-12
1.44197e-11
1.21003e-10
4.25111e-29
2.34828e-30
1.40442e-30
1.08545e-28
5.85083e-27
1.71716e-25
3.57495e-24
6.18974e-23
9.73727e-22
1.48328e-20
1.96397e-19
2.06046e-18
1.52601e-17
1.12746e-16
1.51446e-15
8.22176e-15
2.88855e-14
1.51675e-13
1.00374e-12
3.80944e-12
4.39208e-12
3.16327e-11
8.67547e-10
6.46631e-30
3.50938e-31
2.47905e-31
2.27939e-29
1.29002e-27
3.96636e-26
8.79115e-25
1.63239e-23
2.74074e-22
4.4361e-21
6.29662e-20
7.20769e-19
5.92579e-18
4.52503e-17
5.72276e-16
2.51134e-15
1.48441e-14
1.49308e-13
1.19435e-12
3.3146e-12
1.16694e-12
3.12083e-10
1.84117e-09
8.64929e-31
4.68809e-32
4.16968e-32
4.53401e-30
2.66458e-28
8.57066e-27
2.0228e-25
4.02363e-24
7.17797e-23
1.22635e-21
1.86716e-20
2.3234e-19
2.15116e-18
1.7406e-17
1.676e-16
7.005e-16
1.03278e-14
1.56549e-13
1.19289e-12
1.50225e-12
1.02644e-12
6.18409e-10
1.88749e-09
1.03483e-31
5.70668e-33
6.71173e-33
8.52895e-31
5.15598e-29
1.73752e-27
4.37517e-26
9.32139e-25
1.76182e-23
3.16117e-22
5.15573e-21
6.95302e-20
7.28944e-19
6.39524e-18
4.61485e-17
2.29325e-16
7.75035e-15
1.09191e-13
4.02483e-13
9.26454e-13
9.29542e-13
2.95921e-10
1.68853e-09
1.10506e-32
6.29546e-34
1.04603e-33
1.51114e-31
9.32937e-30
3.30353e-28
8.89573e-27
2.03004e-25
4.06086e-24
7.6284e-23
1.32663e-21
1.93891e-20
2.28755e-19
2.17405e-18
1.4637e-17
9.10385e-17
4.54308e-15
3.72658e-14
1.8406e-13
8.12709e-13
9.80073e-13
8.55048e-11
3.43018e-10
1.03871e-33
6.17473e-35
1.58319e-34
2.50137e-32
1.57051e-30
5.86181e-29
1.69134e-27
4.13428e-26
8.76138e-25
1.7221e-23
3.17223e-22
5.03022e-21
6.58394e-20
6.76929e-19
4.94783e-18
3.55683e-17
1.85151e-15
8.87703e-15
1.28881e-13
9.32278e-13
1.97623e-12
2.09043e-11
6.71012e-15
8.44827e-35
5.28677e-36
2.29706e-35
3.82274e-33
2.43878e-31
9.62231e-30
2.97968e-28
7.80279e-27
1.75701e-25
3.62102e-24
7.02204e-23
1.20587e-21
1.7304e-20
1.94351e-19
1.58425e-18
1.19883e-17
5.51799e-16
2.5605e-15
1.14642e-13
1.13834e-12
2.14244e-12
1.57643e-12
0
5.86188e-36
3.89811e-37
3.13099e-36
5.31831e-34
3.45588e-32
1.44561e-30
4.81192e-29
1.35066e-27
3.24571e-26
7.04492e-25
1.43262e-23
2.64939e-22
4.15565e-21
5.10477e-20
4.6547e-19
3.55623e-18
1.06164e-16
6.55167e-16
8.4775e-14
9.79193e-13
1.13239e-12
1.46529e-13
-1.03958e-12
3.43945e-37
2.46306e-38
3.91539e-37
6.63884e-35
4.41746e-33
1.96593e-31
7.04721e-30
2.12268e-28
5.47029e-27
1.25795e-25
2.67955e-24
5.30252e-23
9.0941e-22
1.21474e-20
1.22555e-19
9.61406e-19
2.17371e-17
1.76607e-16
3.85167e-14
3.78329e-13
2.84729e-13
-1.66109e-13
-1.28286e-12
1.69766e-38
1.33926e-39
4.38808e-38
7.33421e-36
5.03555e-34
2.39455e-32
9.26521e-31
3.00027e-29
8.33054e-28
2.04233e-26
4.56501e-25
9.62068e-24
1.79833e-22
2.60168e-21
2.87434e-20
2.44103e-19
3.69767e-18
4.6638e-17
1.49223e-14
1.10761e-13
1.42027e-14
-4.22748e-13
-1.20326e-12
7.01315e-40
6.34933e-41
4.31254e-39
7.07708e-37
5.06104e-35
2.58483e-33
1.08258e-31
3.77873e-30
1.1349e-28
2.98279e-27
7.02619e-26
1.5723e-24
3.18457e-23
4.99918e-22
5.984e-21
5.72931e-20
5.73633e-19
1.1581e-17
5.94287e-15
2.02979e-14
-4.45877e-14
-4.01674e-13
-8.86999e-13
2.4037e-41
2.68556e-42
3.63981e-40
5.8843e-38
4.43029e-36
2.44419e-34
1.11181e-32
4.19756e-31
1.36777e-29
3.87062e-28
9.6655e-27
2.29339e-25
5.01245e-24
8.539e-23
1.10051e-21
1.21257e-20
7.78952e-20
2.50747e-18
1.79905e-15
2.5076e-15
-6.69275e-14
-2.87811e-13
-5.46348e-13
6.72331e-43
1.04278e-43
2.58049e-41
4.14967e-39
3.32851e-37
1.99567e-35
9.90072e-34
4.06009e-32
1.43845e-30
4.3966e-29
1.17144e-27
2.94969e-26
6.9353e-25
1.28428e-23
1.77773e-22
2.33312e-21
7.63546e-21
4.24384e-19
3.10799e-16
-1.63654e-16
-5.15536e-14
-1.67485e-13
-2.85534e-13
1.4903e-44
3.77816e-45
1.49692e-42
2.43167e-40
2.10496e-38
1.38012e-36
7.50742e-35
3.35934e-33
1.29627e-31
4.28931e-30
1.22701e-28
3.29036e-27
8.31424e-26
1.67571e-24
2.50151e-23
3.85355e-22
-1.87805e-21
2.45261e-20
1.64177e-17
-6.51203e-16
-2.87999e-14
-8.06681e-14
-1.27542e-13
2.49224e-46
1.24461e-46
6.86447e-44
1.15022e-41
1.08953e-39
7.86521e-38
4.72359e-36
2.31654e-34
9.75624e-33
3.50321e-31
1.08201e-29
3.11162e-28
8.46628e-27
1.86025e-25
3.03924e-24
4.21625e-23
-3.8122e-21
-4.9368e-20
-9.70722e-18
-5.94273e-16
-1.32403e-14
-3.28574e-14
-4.90414e-14
2.90676e-48
3.42637e-48
2.36838e-45
4.20069e-43
4.41968e-41
3.54624e-39
2.37153e-37
1.27931e-35
5.90326e-34
2.30832e-32
7.74411e-31
2.41568e-29
7.1235e-28
1.71049e-26
3.11878e-25
0
-3.39105e-21
-7.10899e-20
-1.14118e-17
-3.5787e-16
-5.11715e-15
-1.12878e-14
-1.61132e-14
2.08599e-50
7.28838e-50
5.68087e-47
1.09741e-44
1.30646e-42
1.18518e-40
8.91141e-39
5.30552e-37
2.70224e-35
1.15797e-33
4.26023e-32
1.46847e-30
4.75333e-29
1.25734e-27
2.38017e-26
-3.7068e-24
-2.13382e-21
-5.87551e-20
-7.20573e-18
-1.58872e-16
-1.63778e-15
-3.20565e-15
-4.42764e-15
6.05234e-53
1.01925e-51
8.09445e-49
1.75237e-46
2.44688e-44
2.60082e-42
2.22383e-40
1.4725e-38
8.38913e-37
3.99128e-35
1.64738e-33
6.47945e-32
2.35493e-30
6.88845e-29
-6.65177e-28
-3.1941e-24
-1.01501e-21
-3.47098e-20
-3.12863e-18
-5.31617e-17
-4.2105e-16
-7.25946e-16
-9.76549e-16
2.55018e-56
5.76907e-54
4.01988e-51
1.06574e-48
2.00726e-46
2.75284e-44
2.75775e-42
2.09677e-40
1.37346e-38
7.55611e-37
3.76252e-35
1.80369e-33
7.66745e-32
1.27231e-30
-2.20254e-27
-1.60717e-24
-3.61202e-22
-1.4921e-20
-9.62128e-19
-1.3281e-17
-8.37681e-17
-1.24319e-16
-1.60705e-16
1.79067e-61
1.51822e-58
1.48772e-55
7.77426e-53
2.69443e-50
6.15761e-48
1.34859e-45
2.30913e-43
2.88411e-41
3.31988e-39
3.15855e-37
2.24761e-35
1.00051e-33
-9.48932e-31
-1.21907e-27
-5.19839e-25
-9.16513e-23
-4.4786e-21
-2.06506e-19
-2.40525e-18
-1.23672e-17
-1.49549e-17
-1.75593e-17
6.66513e-73
1.22323e-68
4.45709e-65
8.44897e-62
1.04149e-58
8.84683e-56
6.45006e-53
3.52499e-50
1.33411e-47
5.03122e-45
1.32921e-42
-2.07149e-38
-1.64156e-34
-4.68791e-31
-3.20204e-28
-9.99284e-26
-1.48755e-23
-8.41637e-22
-2.88775e-20
-2.93086e-19
-1.26283e-18
-1.12185e-18
-1.00635e-18
0
1.29411e-82
1.26072e-78
2.73626e-75
-3.01107e-71
8.98653e-70
-2.30605e-64
-2.20249e-65
-4.09877e-58
-4.78859e-59
-3.12403e-60
-5.95656e-39
-2.63709e-35
-5.52241e-32
-3.14616e-29
-8.57673e-27
-1.16217e-24
-7.43781e-23
-1.99177e-21
-1.87913e-20
-7.05832e-20
-3.90599e-20
-1.37067e-20
1
0.999999
0.934666
0.897648
0.999999
0.999877
0.994586
0.977119
0.878235
0.829788
0.70122
0.478379
0.114542
0.0655918
-1.4688e-07
-6.34466e-06
4.05925e-08
4.18433e-08
3.12537e-08
2.15618e-08
2.10386e-07
1.44849e-07
4.93708e-08
5.53319e-09
3.15792e-09
3.38446e-08
2.69613e-08
4.05039e-11
1.89737e-11
2.25847e-11
2.9199e-11
3.54523e-11
6.57702e-11
7.08812e-11
3.6558e-11
4.38785e-11
2.27614e-11
6.63881e-11
3.90353e-11
4.45489e-11
1.30498e-11
2.22592e-11
2.66431e-11
6.98567e-10
1.22769e-11
1.27307e-11
1.68281e-11
2.48981e-09
1.20148e-11
2.76595e-11
9.67061e-11
2.37348e-09
3.8374e-11
1.8125e-10
4.91543e-10
8.36526e-10
1.08672e-10
4.42186e-10
8.25344e-10
8.57717e-10
1.78178e-10
5.95741e-10
8.05316e-10
8.02379e-10
1.98933e-10
6.09944e-10
5.74538e-10
6.14863e-10
1.90386e-10
4.87456e-10
4.97534e-10
5.43096e-10
3.25638e-10
4.92138e-10
5.10896e-10
6.52273e-10
1.10628e-09
7.89957e-10
6.52273e-10
1.27533e-09
1.91408e-09
9.94241e-10
9.46069e-10
3.5428e-09
1.92289e-09
9.81701e-10
5.73155e-10
1.18086e-08
1.83484e-09
4.73081e-10
-6.23152e-10
4.23547e-08
9.62755e-10
8.46363e-11
-1.25452e-09
1.94393e-07
1.40184e-10
8.34784e-12
4.08421e-07
4.30276e-06
6.92396e-30
5.54417e-14
1.22901e-06
1.16146e-05
-1.66119e-12
-1.02121e-27
1.86592e-06
7.65095e-06
-2.80725e-12
2.00048e-11
1.13416e-10
2.08111e-06
-3.08793e-12
3.00269e-10
-4.1877e-09
6.68672e-06
-3.14091e-12
-1.41193e-12
-1.35829e-08
2.10434e-05
-2.86667e-12
-3.30731e-13
2.69581e-05
0.00043016
-2.42587e-12
-2.8075e-13
0.000433328
0.00134342
-1.8171e-12
2.76958e-29
0.000562782
0.00134342
-1.11164e-12
-5.09873e-53
0.000111105
0.00134342
-4.99627e-13
1.98934e-60
5.84815e-06
0.00132543
-1.40922e-13
-7.58614e-28
3.84498e-07
0.000540096
-2.85532e-14
3.29345e-11
1.00142e-07
1.22051e-07
-1.71704e-14
1.09818e-10
1.29751e-11
1.47711e-11
-8.25834e-15
8.83291e-11
1.18773e-27
4.81931e-07
-2.7198e-15
-1.75174e-15
-8.37189e-16
1.16045e-22
-4.44136e-16
-2.74869e-16
-1.24259e-16
-5.16677e-18
-3.51599e-21
-8.70061e-22
-2.35339e-22
1.68992e-06
0.890503
0.746788
0.495176
0.44613
0.620377
0.617174
0.218612
0.00389935
0.000600887
0.000103398
1.56926e-05
2.03695e-06
2.27628e-07
2.11444e-08
1.5873e-09
9.41399e-11
4.29651e-12
5.98479e-14
5.91414e-14
0.80593
0.131478
0.000547245
6.09981e-05
0.138393
0.510214
0.304887
0.0175303
0.000750331
0.000132926
2.03343e-05
2.74777e-06
3.14988e-07
2.99157e-08
2.28197e-09
1.39535e-10
6.30509e-12
1.33129e-13
1.23772e-13
0.0176303
2.37796e-05
3.87722e-06
9.58623e-07
6.09981e-05
0.268979
0.316111
0.0395883
0.000808692
0.00014255
2.28769e-05
3.18626e-06
3.74126e-07
3.61787e-08
2.78524e-09
1.73116e-10
8.75588e-12
1.75202e-13
2.04163e-13
-8.40612e-07
1.77667e-07
4.15598e-07
5.31881e-07
9.58619e-07
0.083921
0.152918
0.0431316
0.00073031
0.000136439
2.27554e-05
3.28808e-06
3.97078e-07
3.93222e-08
3.08838e-09
1.85476e-10
1.06872e-11
2.67422e-13
3.01183e-13
3.11638e-08
3.94145e-08
1.78006e-07
4.15434e-07
5.32665e-07
0.0398657
0.0299244
0.00944132
0.000787491
0.000102478
1.88818e-05
2.91707e-06
3.69704e-07
3.7971e-08
3.06932e-09
1.89881e-10
1.14834e-11
3.48403e-13
3.96403e-13
1.90629e-08
2.31944e-07
3.11172e-07
5.31996e-07
0.0110877
0.0524246
0.0359235
0.00418188
0.000655861
0.000103553
1.83794e-05
2.72303e-06
3.40481e-07
3.60228e-08
2.93692e-09
1.85494e-10
1.14141e-11
5.90067e-13
4.72539e-13
5.24783e-09
7.20902e-06
5.53531e-06
7.32245e-07
0.051678
0.150088
0.159145
0.0714334
0.00260496
0.000211245
2.84582e-05
3.92467e-06
4.32207e-07
4.03635e-08
3.12341e-09
1.84172e-10
1.06927e-11
3.71324e-13
5.19935e-13
2.81948e-06
8.67359e-06
8.3766e-06
6.50295e-07
0.045355
0.15926
0.159208
0.152734
0.0256668
0.000404015
5.64697e-05
6.24486e-06
6.61171e-07
5.58857e-08
3.89006e-09
2.10583e-10
1.03681e-11
5.5176e-13
5.44636e-13
4.31342e-06
8.40575e-06
6.22326e-06
9.24509e-08
6.50295e-07
0.139414
0.159882
0.159412
0.0592301
0.000605778
7.98751e-05
9.19718e-06
8.78592e-07
7.33065e-08
4.88163e-09
2.50256e-10
1.11143e-11
5.91773e-13
5.64951e-13
1.04844e-10
4.40886e-06
3.66259e-07
1.29854e-09
9.24509e-08
0.060667
0.157902
0.159888
0.0596612
0.000594001
7.89581e-05
9.29297e-06
9.34126e-07
7.79535e-08
5.26874e-09
2.69288e-10
1.24868e-11
6.07188e-13
5.43881e-13
4.58916e-10
8.82781e-10
9.74344e-10
1.04942e-09
1.29854e-09
0.043259
0.152111
0.146591
0.018683
0.000467042
0.000124046
1.00808e-05
7.74757e-07
6.84263e-08
4.78599e-09
2.51278e-10
1.28642e-11
6.36603e-13
4.52555e-13
2.80147e-09
1.38792e-09
1.26323e-09
1.32811e-09
1.49931e-09
0.0439927
0.145436
0.0530199
0.00107745
0.000292514
0.000137058
1.23739e-05
5.72135e-07
5.88387e-08
4.09805e-09
2.51542e-10
1.20379e-11
1.3424e-12
3.55732e-13
3.12941e-09
1.98942e-09
1.49144e-09
1.49931e-09
1.57715e-09
0.0518115
0.140416
0.0375103
0.000613656
0.000124018
2.55508e-05
6.30181e-06
5.44136e-07
4.65022e-08
3.33081e-09
2.17428e-10
8.52353e-12
2.01083e-12
2.68585e-13
9.24649e-10
1.15858e-09
1.37776e-09
1.53431e-09
1.6556e-09
0.101391
0.136381
0.043191
0.000603756
9.21868e-05
1.06601e-05
2.05684e-06
2.78304e-07
3.19015e-08
2.47693e-09
1.72367e-10
1.61504e-11
2.22815e-12
1.97248e-13
8.61835e-10
1.183e-09
1.53431e-09
1.65562e-09
0.000130688
0.130662
0.132387
0.115019
0.0117737
0.000125191
1.48209e-05
1.65505e-06
1.80861e-07
1.85775e-08
1.71514e-09
1.3109e-10
2.94598e-11
2.32496e-12
1.42456e-13
1.419e-09
1.83973e-09
1.95195e-09
2.12327e-09
1.81617e-09
0.102884
0.130736
0.128927
0.0308525
0.00020784
2.02668e-05
8.31624e-07
1.61215e-07
1.31119e-08
1.14039e-09
9.73469e-11
3.05086e-11
2.08261e-12
1.01704e-13
3.36168e-08
3.86971e-08
6.52896e-09
3.75831e-09
9.21349e-09
0.0165917
0.128192
0.126761
0.0358675
0.000253507
2.44058e-05
2.01663e-06
1.37222e-07
1.13696e-08
8.05485e-10
7.16236e-11
2.60025e-11
1.67619e-12
7.14301e-14
6.1909e-08
8.65636e-08
1.68393e-08
9.24988e-09
3.20549e-08
1.13289e-05
0.0410852
0.0592025
0.0217237
0.000214929
2.30462e-05
2.02014e-06
1.50655e-07
1.00338e-08
6.27865e-10
5.3143e-11
1.83707e-11
1.24144e-12
4.9128e-14
2.61155e-08
7.65247e-08
2.29081e-08
2.95016e-08
1.59215e-07
6.49527e-05
0.0020022
0.00461507
0.0110754
0.00199427
1.99442e-05
1.74994e-06
1.33551e-07
8.52393e-09
5.27063e-10
3.97288e-11
1.30478e-11
8.91313e-13
3.30779e-14
5.97618e-09
3.77648e-08
3.65499e-08
9.66189e-07
1.16349e-06
0.0120977
0.00793776
0.0057083
0.00545359
0.002659
1.64949e-05
1.37654e-06
1.02324e-07
7.27258e-09
4.42258e-10
2.33509e-11
1.01476e-11
6.44732e-13
2.18008e-14
2.40787e-08
8.31895e-08
6.25329e-08
1.24179e-07
1.32377e-07
0.0919021
0.103368
0.0161498
0.00149131
0.00161047
0.00011095
1.10061e-06
4.96408e-08
4.82761e-09
3.51644e-10
1.70069e-11
8.49548e-12
4.82651e-13
1.39827e-14
9.61149e-08
2.67585e-07
1.54407e-07
1.51254e-07
0.0194916
0.123429
0.123592
0.0613492
0.00119181
9.6461e-05
3.47555e-05
-4.09768e-07
5.53112e-08
1.17919e-09
1.70851e-10
2.90099e-11
7.35104e-12
3.2867e-13
8.78999e-15
3.60489e-07
1.0121e-06
5.1437e-07
2.23419e-07
0.0330725
0.123592
0.123592
0.115712
0.011145
8.03203e-05
6.9802e-06
2.5254e-07
-6.91749e-09
2.24894e-09
2.15003e-10
5.22886e-11
6.14756e-12
2.24493e-13
5.52232e-15
2.73997e-06
1.93468e-05
5.54151e-06
5.67145e-07
0.0058243
0.115463
0.123592
0.122904
0.0376077
0.000133957
8.15356e-06
4.65153e-07
1.74634e-08
4.79717e-10
2.99808e-10
5.98999e-11
4.8028e-12
1.52927e-13
3.42712e-15
1.06956e-05
0.000100534
5.45967e-05
1.80169e-06
0.00113052
0.0340055
0.104767
0.122712
0.0421492
0.000185207
9.52186e-06
4.04251e-07
1.73302e-08
9.302e-10
3.41222e-10
6.00939e-11
3.50976e-12
1.02979e-13
2.08306e-15
2.33309e-05
0.000121863
0.000129169
1.25035e-05
1.13026e-05
1.18221e-05
1.2536e-05
0.00395347
0.0239458
0.00328622
7.6777e-06
3.20859e-07
5.58645e-08
3.15918e-09
3.51632e-10
4.8634e-11
2.39155e-12
6.7233e-14
1.2342e-15
1.10787e-05
0.000129303
0.000133974
0.000100375
2.28279e-05
1.2536e-05
1.38659e-05
2.17481e-05
0.0100624
0.00407151
9.36538e-05
3.80031e-06
1.16613e-07
4.64348e-09
3.61721e-10
3.40932e-11
1.53025e-12
4.18475e-14
7.07498e-16
1.19662e-05
4.97472e-05
0.00013418
0.000133978
5.42406e-05
2.30367e-05
2.58463e-05
2.90743e-05
0.00195191
0.00297932
5.44792e-05
4.58009e-06
1.42731e-07
4.87894e-09
2.85521e-10
2.12829e-11
9.11858e-13
2.44431e-14
3.8787e-16
2.44307e-05
5.23254e-05
0.000133293
0.000133187
4.42119e-05
3.64353e-05
4.96511e-05
5.11137e-05
4.62308e-05
0.000755034
1.15824e-06
3.19082e-08
3.04497e-08
2.25826e-09
1.69979e-10
1.20017e-11
4.99453e-13
1.31528e-14
1.99458e-16
0.000117006
9.31131e-05
0.000131696
7.59186e-05
0.000336287
0.000241088
3.42156e-05
3.42172e-05
2.71137e-05
7.74004e-06
2.90438e-07
1.93959e-08
8.89444e-10
9.04302e-10
9.24328e-11
6.33783e-12
2.57223e-13
6.65982e-15
9.80593e-17
0.000673871
0.000221026
6.84677e-05
3.67778e-05
0.0100763
0.0333143
4.39723e-05
2.92226e-05
1.62575e-05
3.27935e-06
-3.89023e-07
-1.54868e-09
6.54702e-10
3.88796e-10
4.97863e-11
3.25616e-12
1.29735e-13
3.31248e-15
4.77042e-17
0.00116096
0.000169835
3.67778e-05
3.6158e-05
0.0103735
0.112307
0.0495004
2.54747e-05
1.61837e-05
1.72281e-06
-6.72668e-08
-1.97439e-08
2.15284e-10
2.09328e-10
2.63048e-11
1.62335e-12
6.36289e-14
1.60882e-15
2.27228e-17
0.000596319
4.11976e-05
3.61505e-05
3.67778e-05
0.0454871
0.123339
0.111923
0.0100795
1.05784e-05
6.79265e-07
3.18526e-08
-4.13264e-09
-1.39726e-10
1.30161e-10
1.35168e-11
7.93391e-13
3.06867e-14
7.69526e-16
1.06755e-17
0.000420984
0.000912902
4.11976e-05
3.61396e-05
0.108084
0.124229
0.123339
0.0197461
4.0004e-06
2.66003e-07
1.28007e-08
6.3832e-10
1.47608e-11
7.97685e-11
6.75478e-12
3.81616e-13
1.45846e-14
3.63249e-16
4.95154e-18
0.00040403
0.0111878
0.0163626
0.0975372
0.12412
0.123339
0.0813426
0.00907731
0.0001084
9.83189e-08
5.07213e-09
3.41889e-10
9.39552e-11
4.50549e-11
3.30435e-12
1.81084e-13
6.84258e-15
1.69462e-16
2.26966e-18
0.000393736
0.00712386
0.118382
0.123907
0.123901
0.107225
0.020684
0.00373344
0.000108898
3.41864e-08
9.9147e-10
2.15851e-10
1.21985e-10
2.35417e-11
1.59018e-12
8.49005e-14
3.17384e-15
7.82149e-17
1.02903e-18
0.000334495
0.00011461
0.0467121
0.122264
0.117465
0.0395429
0.000839481
0.00111527
3.18174e-05
1.46296e-08
5.26053e-10
1.08858e-10
1.09734e-10
1.17615e-11
7.55754e-13
3.93943e-14
1.45739e-15
3.57465e-17
4.61868e-19
0.000172687
7.92488e-05
4.45219e-05
0.0202938
0.0118002
0.00092654
0.000201404
2.28759e-05
6.95446e-08
5.58893e-09
3.29049e-10
7.55486e-11
6.25266e-11
5.73916e-12
3.5564e-13
1.81225e-14
6.6343e-16
1.61929e-17
2.05182e-19
0.00028806
9.14106e-05
3.97224e-05
7.35595e-06
1.52367e-05
3.57419e-05
4.47469e-05
8.30533e-06
3.31908e-08
1.93586e-09
2.1306e-10
9.9358e-11
3.23937e-11
2.76074e-12
1.66122e-13
8.28238e-15
2.99898e-16
7.27934e-18
9.16746e-20
0.000287989
2.25783e-05
5.30957e-08
4.61351e-06
4.32838e-06
1.26225e-05
1.28296e-05
2.94902e-06
1.19076e-08
8.68876e-10
1.18978e-10
1.02204e-10
1.61134e-11
1.30953e-12
7.68467e-14
3.7529e-15
1.34367e-16
3.24084e-18
3.14978e-20
0.000264321
4.22728e-08
2.82305e-09
3.38708e-07
1.92608e-06
3.90232e-06
4.14343e-06
9.51514e-07
4.17813e-09
3.40056e-10
6.84044e-11
6.78433e-11
8.26738e-12
6.49468e-13
3.72386e-14
1.78047e-15
6.29414e-17
1.50566e-18
1.29605e-20
0.000195731
0
0
2.82305e-09
2.83753e-07
1.18761e-06
2.22666e-06
3.04156e-07
1.4499e-09
1.3411e-10
3.67049e-11
2.49584e-11
2.7247e-12
2.03874e-13
1.12683e-14
5.20324e-16
1.79904e-17
4.23805e-19
1.29605e-20
)
;

boundaryField
{
    leftWall
    {
        type            zeroGradient;
    }
    rightWall
    {
        type            zeroGradient;
    }
    lowerWall
    {
        type            zeroGradient;
    }
    atmosphere
    {
        type            inletOutlet;
        inletValue      uniform 0;
        value           nonuniform List<scalar> 
46
(
0
0
0
0
0
0
0
0
0
0
0
0
0
0
0
0
0
0
0
0
0
0
0
0
0
0
0
0.000195731
0
0
2.82305e-09
2.83753e-07
1.18761e-06
2.22666e-06
3.04156e-07
1.4499e-09
1.3411e-10
3.67049e-11
2.49584e-11
2.7247e-12
2.03874e-13
1.12683e-14
5.20324e-16
1.79904e-17
4.23805e-19
1.29605e-20
)
;
    }
    defaultFaces
    {
        type            empty;
    }
}


// ************************************************************************* //
