/*--------------------------------*- C++ -*----------------------------------*\
| =========                 |                                                 |
| \\      /  F ield         | OpenFOAM: The Open Source CFD Toolbox           |
|  \\    /   O peration     | Version:  2206                                  |
|   \\  /    A nd           | Website:  www.openfoam.com                      |
|    \\/     M anipulation  |                                                 |
\*---------------------------------------------------------------------------*/
FoamFile
{
    version     2.0;
    format      ascii;
    arch        "LSB;label=32;scalar=64";
    class       surfaceScalarField;
    location    "0.45";
    object      alphaPhi0.water;
}
// * * * * * * * * * * * * * * * * * * * * * * * * * * * * * * * * * * * * * //

dimensions      [0 3 -1 0 0 0 0];

oriented        oriented;

internalField   nonuniform List<scalar> 
4432
(
-4.10342e-06
4.10342e-06
-2.87182e-06
-1.23159e-06
-5.69827e-08
-2.81484e-06
2.0672e-06
-2.12418e-06
3.00248e-06
-9.35281e-07
3.0138e-06
-1.13218e-08
2.56645e-06
4.47347e-07
2.00279e-06
5.63665e-07
1.47098e-06
5.31801e-07
9.88037e-07
4.82942e-07
5.11904e-07
4.7613e-07
-8.63538e-09
5.20536e-07
-6.10147e-07
6.01509e-07
-1.31656e-06
7.06415e-07
-2.11692e-06
8.00352e-07
-2.95234e-06
8.35421e-07
-3.76498e-06
8.12638e-07
-4.39349e-06
6.28511e-07
-4.47857e-06
8.50844e-08
-3.2614e-06
-1.21715e-06
6.35606e-07
-3.89698e-06
6.28353e-06
-5.84026e-06
5.5736e-06
-4.22947e-06
8.33288e-06
-3.3054e-06
-2.15566e-06
-6.9388e-07
-5.42636e-06
1.42963e-06
-4.2477e-06
2.47881e-06
-1.98446e-06
2.67059e-06
-2.03102e-07
2.42312e-06
6.94815e-07
2.06865e-06
9.18131e-07
1.75859e-06
8.41863e-07
1.52439e-06
7.17151e-07
1.37014e-06
6.30384e-07
1.29418e-06
5.96498e-07
1.29791e-06
5.97775e-07
1.39063e-06
6.13696e-07
1.56343e-06
6.2755e-07
1.77803e-06
6.2082e-07
2.03652e-06
5.54141e-07
2.34337e-06
3.21667e-07
2.67442e-06
-2.45971e-07
2.70745e-06
-1.2504e-06
2.16202e-06
-3.35172e-06
1.24315e-06
-4.92153e-06
7.29418e-06
-4.20598e-06
1.25389e-05
-4.05156e-06
-2.31009e-06
-1.84436e-06
-7.63356e-06
2.6727e-07
-6.35933e-06
1.50999e-06
-3.22719e-06
1.9695e-06
-6.62608e-07
1.96643e-06
6.97875e-07
1.80964e-06
1.07492e-06
1.62434e-06
1.02715e-06
1.46795e-06
8.73542e-07
1.32956e-06
7.68768e-07
1.21287e-06
7.13185e-07
1.12682e-06
6.83819e-07
1.09223e-06
6.48287e-07
1.12983e-06
5.89949e-07
1.24521e-06
5.05442e-07
1.41779e-06
3.81569e-07
1.56286e-06
1.76596e-07
1.48335e-06
-1.66464e-07
8.10592e-07
-5.77642e-07
-1.24081e-06
-1.30141e-06
-3.55302e-06
-2.49414e-06
4.02188e-06
-4.00478e-06
1.65436e-05
-4.83796e-06
-1.47691e-06
-3.19853e-06
-9.27299e-06
-1.02698e-06
-8.53089e-06
5.24206e-07
-4.77837e-06
1.36516e-06
-1.50356e-06
1.67993e-06
3.83102e-07
1.76681e-06
9.88046e-07
1.75689e-06
1.03707e-06
1.69322e-06
9.37212e-07
1.60808e-06
8.53913e-07
1.50054e-06
8.20722e-07
1.37855e-06
8.05799e-07
1.24062e-06
7.86215e-07
1.08934e-06
7.41227e-07
9.22881e-07
6.71903e-07
7.26787e-07
5.7766e-07
4.79049e-07
4.24332e-07
9.97097e-08
2.12874e-07
-4.99645e-07
2.17242e-08
-1.99149e-06
1.90279e-07
-3.35257e-06
-1.1234e-06
6.9032e-07
-3.02161e-06
1.95653e-05
-5.13922e-06
6.40704e-07
-4.27493e-06
-1.01373e-05
-1.83441e-06
-1.09714e-05
1.09798e-07
-6.72257e-06
1.13768e-06
-2.53144e-06
1.62734e-06
-1.06554e-07
1.922e-06
6.93376e-07
2.04424e-06
9.14842e-07
2.05695e-06
9.24499e-07
1.96742e-06
9.43442e-07
1.83991e-06
9.48228e-07
1.67326e-06
9.72449e-07
1.52042e-06
9.39058e-07
1.41538e-06
8.46264e-07
1.34602e-06
7.41262e-07
1.26404e-06
6.5964e-07
1.10886e-06
5.79514e-07
8.38235e-07
4.83499e-07
3.76424e-07
4.83535e-07
-3.61835e-07
9.28541e-07
-9.60051e-07
-5.2521e-07
-2.69733e-07
8.22741e-07
1.87425e-05
-1.49412e-06
2.95757e-06
-1.57265e-06
-1.00587e-05
1.15787e-07
-1.266e-05
1.87792e-06
-8.48476e-06
2.95148e-06
-3.60502e-06
3.16116e-06
-3.16231e-07
2.85858e-06
9.9595e-07
2.48229e-06
1.29113e-06
2.06677e-06
1.34001e-06
1.73412e-06
1.2761e-06
1.56814e-06
1.1142e-06
1.52093e-06
1.01966e-06
1.60812e-06
8.51865e-07
1.74172e-06
7.12662e-07
1.85558e-06
6.27396e-07
1.97894e-06
5.3628e-07
2.06567e-06
4.92786e-07
1.99699e-06
5.52178e-07
1.76313e-06
7.17394e-07
1.41014e-06
1.28153e-06
4.85634e-07
3.99296e-07
2.15901e-07
1.04832e-05
8.25926e-06
1.46285e-05
-1.17433e-06
1.2092e-05
-7.31144e-06
7.65605e-06
-8.09675e-06
5.05355e-06
-5.88581e-06
4.34406e-06
-2.89684e-06
4.97923e-06
-9.51679e-07
5.81668e-06
1.58496e-07
6.28845e-06
8.19369e-07
6.02352e-06
1.60495e-06
4.93707e-06
2.36254e-06
3.32164e-06
2.72964e-06
1.53177e-06
2.80953e-06
3.86628e-07
1.997e-06
1.16602e-07
9.82687e-07
5.32688e-07
2.1131e-07
1.63e-06
-5.61028e-07
3.18093e-06
-1.05814e-06
4.6687e-06
-9.35596e-07
5.97712e-06
-5.91029e-07
6.81294e-06
4.45713e-07
5.99028e-06
1.22195e-06
6.20618e-06
1.3792e-05
-6.81582e-11
1.73235e-05
-1.5481e-08
1.34548e-05
1.12263e-07
8.51017e-06
3.19728e-07
5.45241e-06
4.35272e-08
4.87508e-06
-7.5948e-08
5.08272e-06
-1.21798e-07
5.7121e-06
-4.21438e-08
5.92315e-06
5.09559e-07
5.13408e-06
1.68163e-06
3.36412e-06
3.00042e-06
1.1879e-06
4.90585e-06
-5.16556e-07
4.51399e-06
6.50538e-08
1.41539e-06
1.21801e-06
-1.70266e-07
1.59388e-06
-1.64565e-07
2.57165e-06
-1.5388e-06
4.52309e-06
-3.00957e-06
6.68411e-06
-3.09662e-06
8.89022e-06
-2.79714e-06
9.9879e-06
-6.5197e-07
8.78745e-06
2.42241e-06
1.49936e-05
-3.32042e-13
7.16717e-15
-2.13866e-12
1.48174e-12
-1.68875e-11
8.39122e-12
8.72494e-10
-1.07449e-09
8.40143e-10
-1.99576e-09
1.05444e-10
2.67969e-10
1.33005e-11
3.37657e-11
1.99637e-12
2.29088e-12
3.3557e-13
2.65139e-13
4.75216e-14
1.28671e-13
5.87217e-15
2.10377e-14
7.10505e-16
1.41403e-15
6.46638e-17
6.74396e-17
4.56975e-18
5.41061e-18
2.57301e-19
4.46772e-19
1.05002e-20
3.06176e-20
3.47473e-22
1.59229e-21
1.03875e-22
5.48756e-23
2.09438e-24
-2.20208e-11
2.17031e-11
-3.00216e-10
2.73294e-10
-7.95358e-09
5.23174e-09
1.92326e-08
-3.68702e-08
1.42938e-08
-5.15821e-09
1.15664e-09
1.08233e-08
1.0951e-10
6.48783e-10
2.45545e-11
2.70302e-11
5.92327e-12
9.59752e-12
1.03391e-12
3.8391e-12
1.35591e-13
7.6125e-13
1.22926e-14
1.04143e-13
1.73957e-15
8.5802e-15
1.72533e-16
6.14865e-16
9.83013e-18
5.41417e-17
4.478e-19
4.13574e-18
1.27777e-20
2.40951e-19
3.07139e-22
9.8842e-21
2.0813e-22
-6.69901e-10
6.69045e-10
-7.88622e-09
6.83063e-09
-1.65077e-07
5.62703e-08
1.05281e-07
-4.58935e-07
1.31069e-07
-1.50198e-07
1.34576e-08
5.42662e-08
1.41513e-09
-1.41056e-09
4.43621e-10
-4.60649e-11
9.11895e-11
1.9969e-10
1.53274e-11
5.55488e-11
2.15602e-12
1.05082e-11
2.45056e-13
1.5617e-12
2.09014e-14
1.7715e-13
1.64384e-15
1.36792e-14
1.10993e-16
9.71256e-16
5.26073e-18
7.08007e-17
1.80578e-19
3.98151e-18
5.56505e-21
1.61407e-19
3.49034e-21
-7.83703e-09
7.52514e-09
-8.06739e-09
4.47963e-08
-3.6349e-07
2.29612e-07
8.52338e-07
-2.82705e-06
6.8465e-07
-1.00577e-06
1.17009e-07
-2.71289e-07
2.01823e-08
-4.34868e-08
4.58282e-09
4.16461e-09
8.44787e-10
2.01988e-09
1.36883e-10
4.60213e-10
1.94415e-11
8.33695e-11
2.35753e-12
1.26356e-11
2.23512e-13
1.59544e-12
1.6816e-14
1.57019e-13
1.1213e-15
1.18387e-14
5.60537e-17
8.32919e-16
2.0084e-18
4.67738e-17
6.32839e-20
1.91392e-18
4.12769e-20
-1.62582e-08
1.48752e-08
-2.76609e-08
1.6165e-07
4.69375e-06
-4.24079e-06
6.71455e-06
-4.13983e-05
2.77456e-06
-3.62019e-06
2.76053e-07
-1.99069e-06
7.79295e-08
-2.12619e-07
2.08342e-08
1.37835e-08
3.95435e-09
1.01047e-08
6.39382e-10
2.32611e-09
9.05715e-11
4.20474e-10
1.10806e-11
6.48343e-11
1.12695e-12
8.50657e-12
8.90152e-14
9.10256e-13
5.92438e-15
7.33351e-14
3.06571e-16
4.95985e-15
1.15777e-17
2.85285e-16
4.60032e-19
1.2029e-17
2.76883e-19
7.11368e-09
1.17452e-08
8.14309e-06
-7.96695e-06
7.50209e-05
-0.000124515
5.81466e-05
-0.000233602
3.99621e-06
-0.000104435
-2.91295e-07
-5.23363e-06
9.44266e-08
-1.02878e-06
4.51722e-08
-2.35829e-08
1.0215e-08
2.80729e-08
1.75166e-09
7.78061e-09
2.56291e-10
1.44429e-09
3.23106e-11
2.24526e-10
3.41728e-12
2.99001e-11
2.84522e-13
3.31349e-12
1.77733e-14
2.82878e-13
9.46629e-16
1.77787e-14
3.79176e-17
1.02757e-15
2.05192e-18
4.47998e-17
1.13341e-18
1.1264e-08
7.86068e-09
8.58383e-05
-9.85914e-05
0.00011855
-0.000169859
0.000107717
-0.000196964
3.04605e-05
-0.000196049
-1.0329e-06
-7.51141e-05
1.33159e-07
-3.66496e-06
1.36729e-07
-3.11265e-07
3.55158e-08
7.36852e-08
6.22956e-09
2.71563e-08
9.10184e-10
5.20719e-09
1.146e-10
8.08127e-10
1.22167e-11
1.07582e-10
1.05854e-12
1.20743e-11
6.68199e-14
1.08729e-12
3.63369e-15
7.06067e-14
1.5041e-16
3.9867e-15
7.3248e-18
1.79136e-16
4.49997e-18
7.32118e-05
-8.39788e-05
0.000154351
-0.000140999
0.000134496
-0.000137541
0.000115019
-0.000157571
9.81308e-05
-0.00018149
1.49087e-05
-0.000140996
-8.27893e-07
-2.98184e-05
2.7624e-07
-2.08137e-06
9.00787e-08
1.26967e-07
1.70043e-08
7.54587e-08
2.57214e-09
1.55856e-08
3.3032e-10
2.47571e-09
3.58424e-11
3.33464e-10
3.17339e-12
3.79637e-11
2.09707e-13
3.51564e-12
1.12052e-14
2.36051e-13
4.84283e-16
1.31588e-14
2.44833e-17
6.14565e-16
1.62127e-17
-6.99125e-11
-1.67177e-12
-1.54569e-08
-1.28211e-10
-3.13574e-08
1.13744e-10
-4.49101e-09
2.77255e-10
-3.28037e-09
-1.14484e-10
-8.00573e-08
5.47552e-11
-3.44584e-07
1.9306e-09
-9.76057e-07
-2.49167e-09
-1.26337e-06
-4.64237e-08
-1.37784e-06
-2.15002e-07
-1.59678e-06
-2.29406e-08
-1.90083e-06
1.73416e-07
-1.09122e-06
3.19166e-07
8.93886e-07
-6.47178e-07
1.51548e-06
-6.10807e-07
6.32441e-07
7.18479e-07
7.97236e-07
-1.70319e-06
2.30296e-06
-4.51498e-06
4.32195e-06
-5.11543e-06
7.69876e-06
-6.17384e-06
1.30552e-05
-6.00841e-06
2.09009e-05
-5.42329e-06
1.63794e-06
3.42566e-05
-1.67177e-12
3.28653e-21
-1.37004e-10
6.8303e-21
-2.32606e-11
1.03416e-20
2.53996e-10
4.14989e-20
1.2964e-10
3.64603e-12
1.48714e-10
3.25918e-12
1.66782e-09
7.89169e-11
-8.83374e-10
-2.72065e-12
-4.82071e-08
3.82065e-10
-2.73708e-07
4.1218e-09
-9.0827e-07
4.93921e-09
-2.0954e-06
-7.86526e-09
-3.63543e-06
-5.24333e-09
-6.88534e-06
-1.7126e-07
-8.52648e-06
-1.31101e-06
-5.51132e-06
-3.18488e-06
2.84735e-07
-5.00166e-06
5.23615e-06
-6.46768e-06
7.80013e-06
-6.66063e-06
1.16791e-05
-9.82945e-06
1.76047e-05
-1.19223e-05
2.46535e-05
-1.24637e-05
-1.0043e-05
3.63349e-05
7.33825e-21
-1.22958e-21
5.76209e-21
5.52916e-21
-1.35284e-20
2.07146e-20
-2.38979e-19
1.27978e-19
3.63987e-12
1.37084e-19
6.52323e-12
7.15498e-14
7.74293e-11
1.15579e-12
4.82861e-11
5.06731e-13
3.76971e-10
2.47273e-11
3.65276e-09
3.50147e-10
7.47957e-09
6.77299e-10
2.11514e-10
-1.33908e-10
-4.3786e-09
-9.88754e-11
-1.75081e-07
4.03853e-11
-1.48881e-06
5.47923e-09
-2.26776e-06
-5.2339e-09
-4.43408e-06
-6.40706e-10
-4.91815e-06
-7.44789e-11
-2.63771e-06
-5.37598e-12
2.64293e-06
-5.8387e-07
1.20674e-05
-6.724e-06
1.92741e-05
-8.07357e-06
-9.14438e-06
2.71643e-05
2.02047e-21
-2.16284e-21
2.19112e-21
2.17531e-21
-1.00664e-20
1.69068e-20
-2.17116e-19
1.3286e-19
-1.90045e-18
4.63278e-19
7.60979e-14
6.70013e-19
1.27484e-12
1.69219e-15
1.68713e-12
9.3244e-15
2.54274e-11
3.80624e-13
3.53704e-10
8.25497e-12
1.00554e-09
1.69072e-11
2.32394e-10
-7.93423e-13
3.30129e-10
9.62278e-14
3.88403e-10
4.76851e-12
5.81651e-09
1.79639e-10
6.53545e-10
-6.85527e-11
5.12474e-11
-2.5898e-11
3.59013e-12
-5.00198e-12
2.98171e-13
-8.47645e-13
1.13204e-08
-4.51501e-12
4.09986e-07
-4.81878e-12
1.7082e-06
-1.04022e-11
-1.53961e-11
3.61652e-06
4.32766e-22
-1.29164e-21
2.16692e-22
5.77796e-22
-6.04411e-21
8.90414e-21
-1.32928e-19
8.13471e-20
-1.23231e-18
3.78187e-19
-6.17992e-18
9.62207e-19
1.52962e-15
1.49287e-18
1.1013e-14
1.75372e-18
3.57694e-13
1.26921e-18
8.52408e-12
1.00462e-19
2.55154e-11
1.16519e-19
7.55909e-12
3.82923e-19
7.04761e-12
1.49092e-19
1.18165e-11
1.83852e-20
1.91546e-10
5.57816e-21
1.14084e-10
2.06124e-17
1.08586e-11
5.17559e-18
5.89175e-12
-1.81603e-16
5.05425e-12
-4.04559e-16
1.4578e-12
-6.64698e-17
1.83837e-12
-3.59333e-12
3.75453e-12
-9.46787e-12
-1.26545e-11
6.1906e-12
5.51498e-23
-4.99809e-22
-2.49886e-23
2.07397e-22
-2.68696e-21
3.34272e-21
-5.80802e-20
3.43762e-20
-5.67003e-19
1.85168e-19
-2.89664e-18
5.55339e-19
-8.54263e-18
1.06182e-18
-1.82242e-17
1.62272e-18
-3.1836e-17
2.14023e-18
-4.66356e-17
2.49429e-18
-5.95967e-17
2.64468e-18
-1.09582e-17
2.28723e-18
-2.35874e-18
1.49024e-18
-5.70596e-19
3.82519e-19
-4.10711e-19
-1.64707e-19
-2.92464e-16
-9.54474e-19
-5.34777e-17
-3.92712e-18
4.74034e-17
-1.20854e-17
2.19862e-16
-4.04807e-17
9.92691e-16
-9.74666e-17
2.61671e-11
-8.30767e-16
3.20909e-11
-1.17349e-15
-1.12402e-15
3.35012e-11
7.43756e-24
-1.63861e-22
-1.71033e-23
6.73115e-23
-8.88606e-22
9.61298e-22
-1.92055e-20
1.06357e-20
-1.95237e-19
6.29359e-20
-1.01678e-18
2.05304e-19
-3.03591e-18
4.25105e-19
-6.49725e-18
6.94841e-19
-1.11958e-17
9.75337e-19
-1.60627e-17
1.19096e-18
-1.88053e-17
1.23443e-18
-1.60632e-17
1.00284e-18
-1.01199e-17
4.00573e-19
-2.78976e-18
-2.05951e-18
3.21128e-18
-8.30358e-18
1.01545e-17
-1.78085e-17
3.43385e-17
-5.61439e-17
1.52632e-16
-2.51514e-16
3.51439e-16
-4.6129e-16
5.0255e-16
-5.59634e-16
5.87086e-16
-9.38175e-16
7.84233e-16
-1.18646e-15
-1.23771e-15
1.01442e-15
7.12332e-26
-5.46291e-23
-7.39642e-24
1.71136e-23
-2.3164e-22
2.12225e-22
-4.90019e-21
2.44212e-21
-5.11326e-20
1.54548e-20
-2.70367e-19
5.31713e-20
-8.1424e-19
1.14641e-19
-1.73518e-18
1.9104e-19
-2.93143e-18
2.66972e-19
-4.08954e-18
3.15822e-19
-4.64111e-18
3.05017e-19
-3.97883e-18
2.09444e-19
-1.6432e-18
2.91135e-20
1.48857e-17
-7.81107e-19
5.19892e-17
-4.01435e-18
1.06297e-16
-1.23242e-17
3.57408e-16
-2.77251e-17
1.39687e-15
-5.52229e-17
1.83107e-15
-1.10391e-16
2.06678e-15
-1.77866e-16
2.14138e-15
-4.23507e-16
2.39999e-15
-7.91017e-16
-1.56577e-15
3.07215e-15
-9.37261e-25
-1.98331e-23
-2.18609e-24
3.38086e-24
-4.72578e-23
3.49298e-23
-9.61104e-22
4.10136e-22
-1.01921e-20
2.73185e-21
-5.44519e-20
9.74494e-21
-1.64603e-19
2.14354e-20
-3.46851e-19
3.54531e-20
-5.67968e-19
4.72861e-20
-7.52012e-19
4.99585e-20
-7.90312e-19
3.68066e-20
-5.78732e-19
6.33412e-21
-8.45715e-20
-8.58262e-20
3.03392e-18
-4.62801e-19
1.27333e-17
-1.54728e-18
3.66713e-17
-4.22388e-18
7.55718e-17
-1.0197e-17
1.45467e-16
-2.23372e-17
2.8904e-16
-4.57379e-17
5.52295e-16
-8.98395e-17
1.12786e-15
-1.68029e-16
2.50802e-15
-3.0737e-16
-5.94866e-16
5.50224e-15
-5.03285e-25
-6.19018e-24
-4.69999e-25
4.9971e-25
-7.29066e-24
4.04949e-24
-1.41597e-22
4.80837e-23
-1.51548e-21
3.33495e-22
-8.13376e-21
1.21738e-21
-2.44994e-20
2.6776e-21
-5.0407e-20
4.23172e-21
-7.78912e-20
4.91467e-21
-9.14223e-20
3.27688e-21
-7.31056e-20
-8.32385e-22
-1.34562e-20
-2.19848e-20
3.22997e-19
-9.29354e-20
1.37005e-18
-3.43289e-19
4.24324e-18
-1.01057e-18
1.14109e-17
-2.68894e-18
2.7652e-17
-6.60618e-18
6.11215e-17
-1.52808e-17
1.25586e-16
-3.3395e-17
2.43722e-16
-6.87701e-17
4.46246e-16
-1.34536e-16
7.91634e-16
-2.49303e-16
-4.16422e-16
1.48765e-15
-1.71752e-25
-1.39298e-24
-7.31688e-26
5.17659e-26
-8.02858e-25
2.96427e-25
-1.48916e-23
3.54474e-24
-1.59961e-22
2.53585e-23
-8.55764e-22
9.30868e-23
-2.53097e-21
1.93828e-22
-4.92213e-21
2.53477e-22
-6.58594e-21
8.38207e-23
-4.86623e-21
-5.28138e-22
6.09057e-21
-4.12154e-21
6.29011e-20
-2.12489e-20
2.54711e-19
-8.29512e-20
8.45986e-19
-2.81757e-19
2.55953e-18
-8.55545e-19
7.04362e-18
-2.35601e-18
1.79216e-17
-6.10708e-18
4.24075e-17
-1.50639e-17
9.30789e-17
-3.44875e-17
1.8934e-16
-7.27098e-17
3.60896e-16
-1.43453e-16
6.35533e-16
-2.62538e-16
-4.35635e-16
1.05807e-15
-3.85842e-26
-1.98154e-25
-7.90323e-27
3.16371e-27
-5.65441e-26
1.04109e-26
-1.00385e-24
1.23969e-25
-1.07573e-23
8.93614e-25
-5.65272e-23
3.02611e-24
-1.55764e-22
2.91626e-24
-2.48458e-22
-5.48454e-24
-9.43327e-23
-8.45719e-23
1.229e-21
-5.52946e-22
9.44907e-21
-3.45045e-21
4.24784e-20
-1.66033e-20
1.7243e-19
-6.89585e-20
6.19531e-19
-2.48586e-19
1.97882e-18
-7.96602e-19
5.78721e-18
-2.36112e-18
1.56984e-17
-6.66752e-18
3.88226e-17
-1.68182e-17
8.75116e-17
-3.9159e-17
1.80672e-16
-8.35439e-17
3.46721e-16
-1.64275e-16
6.09337e-16
-2.90921e-16
-4.75434e-16
1.01239e-15
-4.88743e-27
-1.47356e-26
-5.00405e-28
6.43561e-29
-1.93005e-27
-7.09904e-31
-3.26124e-26
-2.34692e-28
-3.4158e-25
-5.12884e-27
-1.62012e-24
-7.32643e-26
-2.03546e-24
-7.70455e-25
1.02744e-23
-7.08475e-24
1.4154e-22
-5.48456e-23
9.36829e-22
-3.78664e-22
5.42573e-21
-2.43596e-21
2.87688e-20
-1.30136e-20
1.27847e-19
-5.77032e-20
4.89179e-19
-2.2177e-19
1.6818e-18
-7.7514e-19
5.38472e-18
-2.57474e-18
1.54675e-17
-7.84357e-18
4.10507e-17
-2.24384e-17
9.85854e-17
-5.66462e-17
2.07596e-16
-1.20968e-16
3.89422e-16
-2.23069e-16
6.55057e-16
-3.63993e-16
-6.04419e-16
1.1113e-15
-2.7013e-28
-3.9175e-28
-1.04364e-29
5.26437e-31
3.48109e-30
-1.60628e-30
1.11947e-28
-5.00078e-29
3.34372e-27
-1.42574e-27
6.38559e-26
-2.47056e-26
8.43828e-25
-3.01548e-25
9.17466e-24
-3.01653e-24
5.78708e-23
-2.78395e-23
4.72992e-22
-2.29621e-22
3.46309e-21
-1.68632e-21
2.00602e-20
-9.85806e-21
9.48529e-20
-4.67117e-20
3.92925e-19
-1.96117e-19
1.50741e-18
-7.74673e-19
5.42671e-18
-3.01818e-18
1.85079e-17
-1.09584e-17
5.46485e-17
-3.34979e-17
1.32177e-16
-8.15567e-17
2.65887e-16
-1.63702e-16
4.70712e-16
-2.82772e-16
7.9486e-16
-4.69151e-16
-1.09706e-15
1.69723e-15
-5.53367e-30
-1.22853e-30
-8.62993e-32
-2.0589e-31
6.71393e-31
-4.10168e-31
1.39617e-29
-1.65594e-29
5.67586e-28
-5.31593e-28
1.3275e-26
-9.99527e-27
2.05737e-25
-1.32159e-25
2.47619e-24
-1.446e-24
2.74843e-23
-1.43581e-23
2.59354e-22
-1.31501e-22
2.1235e-21
-1.09795e-21
1.34508e-20
-7.07329e-21
6.84451e-20
-3.61141e-20
3.15857e-19
-1.70257e-19
1.40507e-18
-7.88374e-19
6.07122e-18
-3.53892e-18
2.29509e-17
-1.37855e-17
6.79736e-17
-4.19401e-17
1.55346e-16
-9.59606e-17
2.99857e-16
-1.84815e-16
5.36936e-16
-3.29957e-16
1.03783e-15
-6.3559e-16
-2.20451e-15
3.60441e-15
1.2942e-31
-6.01671e-32
2.76554e-32
-1.22587e-31
4.3451e-32
-1.19996e-31
4.6917e-30
-4.78679e-30
2.06145e-28
-1.69365e-28
5.1153e-27
-3.49123e-27
8.46046e-26
-5.08056e-26
1.10675e-24
-6.13444e-25
1.26182e-23
-6.78713e-24
1.31717e-22
-7.0411e-23
1.22838e-21
-6.64099e-22
8.5795e-21
-4.71732e-21
4.73156e-20
-2.60061e-20
2.49217e-19
-1.40178e-19
1.31511e-18
-7.73332e-19
6.33234e-18
-3.80947e-18
2.48862e-17
-1.5391e-17
7.21681e-17
-4.55802e-17
1.58419e-16
-1.01289e-16
3.05354e-16
-1.94597e-16
6.06741e-16
-3.95435e-16
1.4817e-15
-9.97994e-16
-3.72281e-15
6.39539e-15
8.38613e-32
-4.53178e-32
8.46143e-33
-3.01165e-32
1.2683e-32
-2.80279e-32
1.26391e-30
-1.31546e-30
6.00276e-29
-5.13631e-29
1.60761e-27
-1.152e-27
2.89527e-26
-1.83816e-26
4.15269e-25
-2.44713e-25
5.32647e-24
-2.98537e-24
6.31017e-23
-3.47995e-23
6.60661e-22
-3.63366e-22
5.08046e-21
-2.84233e-21
3.03346e-20
-1.6814e-20
1.83851e-19
-1.02744e-19
1.16064e-18
-6.88202e-19
6.25504e-18
-3.93976e-18
2.48757e-17
-1.61434e-17
7.01069e-17
-4.51088e-17
1.48046e-16
-9.26867e-17
3.03549e-16
-1.98076e-16
7.49708e-16
-5.32018e-16
2.29634e-15
-1.65091e-15
-4.97258e-15
8.79081e-15
1.80023e-32
-2.07388e-32
1.93554e-33
-8.66596e-33
2.79675e-33
-6.51693e-33
3.30862e-31
-3.41888e-31
1.70506e-29
-1.44976e-29
4.89138e-28
-3.51775e-28
9.5467e-27
-6.13356e-27
1.4991e-25
-8.95569e-26
2.10658e-24
-1.19854e-24
2.78833e-23
-1.54933e-23
3.21177e-22
-1.7609e-22
2.71567e-21
-1.51465e-21
1.73857e-20
-9.53598e-21
1.19039e-19
-6.4154e-20
9.1931e-19
-5.44257e-19
5.63118e-18
-3.53551e-18
2.22177e-17
-1.37474e-17
5.60983e-17
-3.37729e-17
1.22029e-16
-7.74947e-17
3.08628e-16
-2.21939e-16
9.96029e-16
-7.28866e-16
3.16754e-15
-2.0623e-15
-5.57945e-15
1.00149e-14
5.4587e-33
-6.46032e-33
4.49163e-34
-1.94136e-33
6.22015e-34
-1.3705e-33
8.13947e-32
-8.35793e-32
4.49093e-30
-3.83263e-30
1.3752e-28
-9.98978e-29
2.90183e-27
-1.88905e-27
4.96111e-26
-3.00082e-26
7.61512e-25
-4.36101e-25
1.11095e-23
-6.14476e-24
1.38779e-22
-7.52441e-23
1.28838e-21
-7.10406e-22
8.77198e-21
-4.77399e-21
6.58275e-20
-3.42162e-20
6.46585e-19
-3.77372e-19
4.21784e-18
-2.50301e-18
1.48522e-17
-8.45754e-18
3.75787e-17
-2.23783e-17
1.09651e-16
-7.85699e-17
3.69706e-16
-2.85985e-16
1.16643e-15
-8.11215e-16
3.55309e-15
-1.85909e-15
-8.5636e-15
1.24454e-14
1.21963e-33
-1.53356e-33
9.17269e-35
-3.66009e-34
1.23409e-34
-2.69761e-34
1.8766e-32
-1.92998e-32
1.10711e-30
-9.46842e-31
3.5999e-29
-2.63059e-29
8.16192e-28
-5.35642e-28
1.50851e-26
-9.19079e-27
2.50233e-25
-1.43778e-25
3.9572e-24
-2.17797e-24
5.31968e-23
-2.86183e-23
5.41773e-22
-2.96119e-22
3.94261e-21
-2.15792e-21
3.13975e-20
-1.60282e-20
3.9069e-19
-2.1425e-19
2.41882e-18
-1.24265e-18
7.924e-18
-4.08787e-18
2.60818e-17
-1.67727e-17
1.1397e-16
-9.7242e-17
4.4202e-16
-3.88232e-16
1.09078e-15
-6.42581e-16
3.80935e-15
-2.82911e-15
-4.58244e-14
3.54886e-14
2.26589e-34
-2.99379e-34
1.73943e-35
-6.00543e-35
2.28599e-35
-4.96755e-35
4.06722e-33
-4.20101e-33
2.54214e-31
-2.18484e-31
8.72619e-30
-6.4334e-30
2.1143e-28
-1.40392e-28
4.1992e-27
-2.5898e-27
7.46796e-26
-4.33009e-26
1.2648e-24
-6.98293e-25
1.82507e-23
-9.84167e-24
2.03866e-22
-1.11364e-22
1.61191e-21
-8.97955e-22
1.32468e-20
-6.86137e-21
1.87022e-19
-9.16187e-20
9.9534e-19
-4.22801e-19
3.73561e-18
-2.02764e-18
2.23075e-17
-1.67075e-17
1.47392e-16
-1.3324e-16
3.84548e-16
-3.98527e-16
5.84075e-16
-1.72218e-16
1.41651e-14
-1.86428e-14
-1.93666e-13
1.47699e-13
3.64339e-35
-4.9543e-35
3.07162e-36
-8.72019e-36
3.94518e-36
-8.65814e-36
8.27602e-34
-8.63004e-34
5.43882e-32
-4.71082e-32
1.96258e-30
-1.46604e-30
5.0644e-29
-3.42282e-29
1.07679e-27
-6.77269e-28
2.03956e-26
-1.20411e-26
3.66756e-25
-2.05254e-25
5.68098e-24
-3.10547e-24
6.95128e-23
-3.8283e-23
6.09025e-22
-3.47367e-22
5.12644e-21
-2.79099e-21
6.65918e-20
-2.91569e-20
3.03738e-19
-1.22202e-19
2.03658e-18
-1.38789e-18
2.21047e-17
-1.81655e-17
1.62154e-16
-1.40225e-16
2.93588e-16
-2.2507e-16
3.38013e-16
-1.45577e-16
6.75508e-14
-7.56053e-14
-2.23766e-13
1.86307e-13
5.15828e-36
-7.14812e-36
5.14581e-37
-1.14295e-36
6.43846e-37
-1.43797e-36
1.58682e-34
-1.67217e-34
1.0864e-32
-9.49579e-33
4.11219e-31
-3.12311e-31
1.12891e-29
-7.80442e-30
2.56478e-28
-1.65508e-28
5.14963e-27
-3.11883e-27
9.76879e-26
-5.58938e-26
1.6253e-24
-9.07217e-25
2.17123e-23
-1.21407e-23
2.14324e-22
-1.25013e-22
1.87804e-21
-1.08613e-21
1.84255e-20
-8.27802e-21
8.40813e-20
-3.98633e-20
1.44838e-18
-1.10635e-18
2.23546e-17
-1.67931e-17
1.16251e-16
-7.10945e-17
1.35502e-16
-1.27545e-16
1.89201e-16
-1.33972e-16
6.97751e-14
-5.78669e-14
-2.04743e-13
1.941e-13
6.55267e-37
-9.04656e-37
7.12125e-38
-1.34776e-37
1.14176e-37
-2.30076e-37
2.87121e-35
-3.04704e-35
2.03028e-33
-1.78723e-33
8.06057e-32
-6.22097e-32
2.35546e-30
-1.66596e-30
5.71421e-29
-3.78579e-29
1.21265e-27
-7.55188e-28
2.41476e-26
-1.41807e-26
4.30961e-25
-2.45933e-25
6.26547e-24
-3.5711e-24
7.0188e-23
-4.15675e-23
6.52981e-22
-3.92086e-22
4.88111e-21
-2.66858e-21
2.72926e-20
-1.61097e-20
1.05628e-18
-7.52109e-19
1.41403e-17
-7.32266e-18
4.80483e-17
-2.99123e-17
8.89999e-17
-1.03495e-16
1.59125e-16
-1.53793e-16
6.10518e-14
-1.85769e-14
-9.79841e-14
1.6387e-13
7.434e-38
-9.94724e-38
7.84693e-39
-1.40462e-38
2.09051e-38
-3.559e-38
4.89136e-36
-5.18459e-36
3.54646e-34
-3.12622e-34
1.4786e-32
-1.15357e-32
4.60543e-31
-3.31479e-31
1.19296e-29
-8.07193e-30
2.67351e-28
-1.70609e-28
5.57125e-27
-3.35372e-27
1.0617e-25
-6.17427e-26
1.67872e-24
-9.74156e-25
2.12088e-23
-1.26405e-23
2.11988e-22
-1.29174e-22
1.50252e-21
-9.35289e-22
1.06327e-20
-6.66858e-21
5.80167e-19
-3.5556e-19
4.69106e-18
-1.85221e-18
2.38914e-17
-1.89963e-17
7.82764e-17
-1.13092e-16
1.66373e-16
-2.46181e-16
1.39514e-14
-5.00995e-15
-1.54935e-15
3.51772e-14
7.38567e-39
-9.3557e-39
7.63266e-40
-1.26934e-39
3.50099e-39
-5.26605e-39
7.7797e-37
-8.14533e-37
5.75671e-35
-5.03981e-35
2.52505e-33
-1.97441e-33
8.39696e-32
-6.0948e-32
2.32334e-30
-1.59087e-30
5.50599e-29
-3.57357e-29
1.19989e-27
-7.36728e-28
2.42515e-26
-1.4305e-26
4.17153e-25
-2.44946e-25
5.85685e-24
-3.49635e-24
6.35026e-23
-3.90682e-23
4.92075e-22
-3.15117e-22
4.01263e-21
-2.40673e-21
2.16268e-19
-1.18311e-19
1.08556e-18
-5.51675e-19
1.75035e-17
-1.7351e-17
1.05598e-16
-1.50605e-16
2.43047e-16
-2.97384e-16
1.85359e-15
-4.51508e-16
-4.14068e-18
3.47905e-16
6.27628e-40
-7.4203e-40
6.40927e-41
-9.80384e-41
5.33136e-40
-7.31327e-40
1.13958e-37
-1.16522e-37
8.5939e-36
-7.40628e-36
3.97468e-34
-3.08568e-34
1.41389e-32
-1.02462e-32
4.18189e-31
-2.86874e-31
1.05156e-29
-6.87946e-30
2.4011e-28
-1.49392e-28
5.11337e-27
-3.04581e-27
9.54364e-26
-5.62991e-26
1.47165e-24
-8.80174e-25
1.75027e-23
-1.07829e-23
1.51274e-22
-9.76218e-23
1.288e-21
-7.54751e-22
6.06346e-20
-2.43879e-20
3.03761e-19
-1.46835e-19
1.53532e-17
-1.49313e-17
7.87178e-17
-1.53088e-16
1.6689e-16
-1.49762e-16
1.63097e-16
-6.10118e-17
1.57752e-16
1.20423e-18
4.47514e-41
-4.91721e-41
4.56546e-42
-6.43559e-42
7.29117e-41
-9.31485e-41
1.51248e-38
-1.4957e-38
1.16474e-36
-9.80382e-37
5.69664e-35
-4.35447e-35
2.17247e-33
-1.55813e-33
6.87687e-32
-4.68503e-32
1.84347e-30
-1.20554e-30
4.42936e-29
-2.77411e-29
9.89433e-28
-5.92924e-28
1.99151e-26
-1.1752e-26
3.36206e-25
-2.01281e-25
4.38859e-24
-2.68851e-24
4.23157e-23
-2.70605e-23
3.59439e-22
-2.13418e-22
1.12737e-20
-5.16749e-21
7.61387e-20
-4.06189e-20
1.10263e-17
-8.09323e-18
7.48929e-17
-8.48454e-17
8.0966e-17
-7.89435e-17
1.73481e-17
2.54258e-17
2.02576e-16
-8.86887e-17
2.64617e-42
-2.70757e-42
2.73699e-43
-3.6042e-43
8.83033e-42
-1.06303e-41
1.7893e-39
-1.69862e-39
1.41408e-37
-1.15523e-37
7.34181e-36
-5.48956e-36
3.00942e-34
-2.12152e-34
1.02121e-32
-6.86361e-33
2.93341e-31
-1.90428e-31
7.45981e-30
-4.67342e-30
1.74506e-28
-1.04865e-28
3.76217e-27
-2.21714e-27
6.9524e-26
-4.14803e-26
9.88945e-25
-6.01218e-25
1.05354e-23
-6.65371e-24
9.1026e-23
-5.64043e-23
2.1939e-21
-9.18753e-22
1.9685e-20
-1.10979e-20
4.65452e-18
-3.27459e-18
2.56371e-17
-2.77214e-17
2.43053e-17
-1.09957e-17
-1.2319e-17
6.67546e-17
1.96695e-16
-1.02272e-16
1.28949e-43
-1.23269e-43
1.38439e-44
-1.74463e-44
9.33809e-43
-1.06354e-42
1.85813e-40
-1.68385e-40
1.51809e-38
-1.1977e-38
8.40769e-37
-6.11736e-37
3.71519e-35
-2.56057e-35
1.35442e-33
-8.93666e-34
4.18907e-32
-2.68437e-32
1.13451e-30
-7.06666e-31
2.78326e-29
-1.67154e-29
6.3936e-28
-3.75733e-28
1.28863e-26
-7.63284e-27
1.98785e-25
-1.20211e-25
2.322e-24
-1.4458e-24
2.14367e-23
-1.37734e-23
3.50243e-22
-1.47677e-22
4.9398e-21
-2.86913e-21
1.63843e-18
-1.37143e-18
6.94993e-18
-5.77791e-18
2.1536e-18
7.00918e-18
-2.89236e-17
6.51201e-17
1.49151e-16
-8.79608e-17
5.15117e-45
-4.60202e-45
5.98188e-46
-7.47028e-46
8.49579e-44
-9.13539e-44
1.66938e-41
-1.43689e-41
1.42283e-39
-1.07908e-39
8.45413e-38
-5.95655e-38
4.04055e-36
-2.70964e-36
1.58706e-34
-1.0237e-34
5.3066e-33
-3.33945e-33
1.53917e-31
-9.47296e-32
3.97634e-30
-2.37607e-30
9.69967e-29
-5.66868e-29
2.11935e-27
-1.2447e-27
3.54942e-26
-2.13018e-26
4.50369e-25
-2.76378e-25
4.59847e-24
-3.0256e-24
4.98117e-23
-2.1148e-23
1.14303e-21
-6.50817e-22
5.50391e-19
-4.57129e-19
1.36486e-18
-8.05044e-19
-2.61661e-18
1.07611e-17
-2.49783e-17
4.76679e-17
9.39237e-17
-5.84934e-17
1.67328e-46
-1.38677e-46
2.25947e-47
-2.91529e-47
6.53862e-45
-6.58951e-45
1.27815e-42
-1.03866e-42
1.14843e-40
-8.32539e-41
7.3671e-39
-4.9964e-39
3.8229e-37
-2.48051e-37
1.6237e-35
-1.01869e-35
5.8876e-34
-3.61681e-34
1.8372e-32
-1.10912e-32
5.02776e-31
-2.96955e-31
1.30017e-29
-7.52348e-30
3.06637e-28
-1.77947e-28
5.57378e-27
-3.31419e-27
7.63543e-26
-4.62298e-26
8.70387e-25
-5.978e-25
6.08287e-24
-2.39584e-24
2.26141e-22
-1.20749e-22
1.13598e-19
-9.19245e-20
1.65604e-19
2.60865e-20
-3.54796e-18
8.44709e-18
-1.60783e-17
2.8217e-17
4.99323e-17
-3.21393e-17
4.35153e-48
-3.27827e-48
7.68335e-49
-1.05727e-48
4.17084e-46
-3.88782e-46
8.19641e-44
-6.2293e-44
7.85485e-42
-5.39478e-42
5.47599e-40
-3.54194e-40
3.09928e-38
-1.92937e-38
1.42968e-36
-8.65294e-37
5.63488e-35
-3.34934e-35
1.89815e-33
-1.11296e-33
5.53927e-32
-3.20103e-32
1.51967e-30
-8.64118e-31
3.85647e-29
-2.19865e-29
7.62031e-28
-4.46161e-28
1.12473e-26
-6.7129e-27
1.38368e-25
-1.06689e-25
4.79906e-25
2.83891e-25
3.49904e-23
-1.32584e-23
1.66623e-20
-6.64937e-21
-7.34612e-21
1.05455e-19
-2.44298e-18
4.79085e-18
-8.32824e-18
1.37791e-17
2.25705e-17
-1.47956e-17
8.80438e-50
-5.79266e-50
2.39628e-50
-3.48594e-50
2.14828e-47
-1.81245e-47
4.30591e-45
-3.01069e-45
4.45802e-43
-2.85523e-43
3.40011e-41
-2.06495e-41
2.11081e-39
-1.24273e-39
1.06261e-37
-6.11374e-38
4.56118e-36
-2.58527e-36
1.66306e-34
-9.33056e-35
5.20877e-33
-2.89943e-33
1.52149e-31
-8.39663e-32
4.15069e-30
-2.30202e-30
8.9295e-29
-5.09755e-29
1.42607e-27
-8.36161e-28
1.49095e-26
-1.25083e-26
-6.27509e-26
5.84571e-25
1.75157e-24
7.73439e-24
9.30026e-22
1.55549e-21
-2.6069e-20
9.75472e-20
-1.20974e-18
2.22864e-18
-3.54701e-18
5.67704e-18
8.72454e-18
-5.72749e-18
1.31952e-51
-7.07813e-52
6.69316e-52
-9.61658e-52
8.62401e-49
-6.35263e-49
1.79671e-46
-1.12146e-46
2.03767e-44
-1.18199e-44
1.71251e-42
-9.5061e-43
1.17446e-40
-6.37543e-41
6.48186e-39
-3.45319e-39
3.03723e-37
-1.60127e-37
1.20182e-35
-6.29863e-36
4.06386e-34
-2.1274e-34
1.27291e-32
-6.68464e-33
3.7406e-31
-1.98717e-31
8.78064e-30
-4.81297e-30
1.52246e-28
-9.0886e-29
1.49807e-27
-3.13118e-28
-1.12655e-25
5.26551e-25
-1.55554e-24
1.12767e-23
-3.24875e-22
1.85097e-21
-2.10404e-20
5.94361e-20
-4.90565e-19
8.69751e-19
-1.27485e-18
1.97001e-18
2.86825e-18
-1.90791e-18
1.35311e-53
-5.28138e-54
1.75644e-53
-2.05208e-53
2.56175e-50
-1.54654e-50
5.67909e-48
-2.98284e-48
7.1617e-46
-3.5591e-46
6.69674e-44
-3.23787e-44
5.11759e-42
-2.44373e-42
3.10798e-40
-1.46216e-40
1.59613e-38
-7.48975e-39
6.87936e-37
-3.23108e-37
2.52701e-35
-1.19745e-35
8.5866e-34
-4.15876e-34
2.73585e-32
-1.35759e-32
7.03406e-31
-3.61787e-31
1.2219e-29
-7.28987e-30
1.51835e-29
5.7024e-28
-8.72699e-26
3.34978e-25
-1.95315e-24
9.42226e-24
-3.3366e-22
1.18147e-21
-1.10847e-20
2.66618e-20
-1.66661e-19
2.80983e-19
-3.8629e-19
5.64769e-19
7.90058e-19
-5.58379e-19
8.35573e-56
-1.58182e-56
4.58379e-55
-2.88149e-55
5.17678e-52
-2.23419e-52
1.25341e-49
-4.84055e-50
1.79037e-47
-6.77774e-48
1.89472e-45
-7.22892e-46
1.62886e-43
-6.21022e-44
1.09219e-41
-4.13598e-42
6.19311e-40
-2.37176e-40
2.92585e-38
-1.13674e-38
1.17893e-36
-4.72797e-37
4.42724e-35
-1.87426e-35
1.54888e-33
-6.87307e-34
4.3758e-32
-2.0812e-32
5.95e-31
1.01306e-31
-7.57227e-29
4.95959e-28
-4.67621e-26
1.60851e-25
-1.37786e-24
5.61955e-24
-1.80458e-22
5.17961e-22
-4.23321e-21
9.00669e-21
-4.64307e-20
7.29541e-20
-9.61322e-20
1.29086e-19
1.75945e-19
-1.40451e-19