/*--------------------------------*- C++ -*----------------------------------*\
| =========                 |                                                 |
| \\      /  F ield         | OpenFOAM: The Open Source CFD Toolbox           |
|  \\    /   O peration     | Version:  2206                                  |
|   \\  /    A nd           | Website:  www.openfoam.com                      |
|    \\/     M anipulation  |                                                 |
\*---------------------------------------------------------------------------*/
FoamFile
{
    version     2.0;
    format      ascii;
    arch        "LSB;label=32;scalar=64";
    class       volScalarField;
    location    "0.45";
    object      p;
}
// * * * * * * * * * * * * * * * * * * * * * * * * * * * * * * * * * * * * * //

dimensions      [1 -1 -2 0 0 0 0];

internalField   nonuniform List<scalar> 
2268
(
1357.71
1358.22
1359.45
1361.28
1363.83
1367.12
1371.1
1375.63
1380.61
1385.95
1391.53
1397.27
1403.45
1409.03
1414.39
1419.39
1423.88
1427.72
1430.8
1433.14
1434.43
1434.45
1431.97
1175.42
1175.9
1177.27
1179.32
1182.12
1185.71
1190.02
1194.92
1200.3
1206.06
1212.1
1218.31
1224.6
1230.75
1236.68
1242.25
1247.36
1251.87
1255.75
1258.63
1261.18
1262.17
1263.55
989.515
990.147
991.818
994.314
997.65
1001.86
1006.83
1012.44
1018.59
1025.16
1032.05
1039.14
1046.28
1053.35
1060.21
1066.72
1072.79
1078.26
1083.22
1086.61
1090.87
1092.82
1096.04
799.524
800.43
802.699
805.955
810.216
815.346
821.354
828.017
835.308
843.123
851.326
859.77
868.301
876.761
884.996
892.849
900.216
906.929
913.806
917.09
922.216
925.044
927.744
604.997
605.855
609.187
613.879
619.572
625.706
633.605
641.521
650.345
659.832
669.811
680.124
690.579
700.995
711.154
720.805
729.727
737.676
744.664
749.6
756.432
759.324
761.69
407.409
405.237
410.939
418.606
424.926
431.977
439.627
450.711
462.059
474.142
486.853
499.988
513.291
526.568
539.486
551.627
562.69
572.54
581.179
588.397
594.914
599.569
601.905
206.335
205.122
210.03
220.583
230.806
242.049
254.09
263.887
275.263
289.092
304.159
319.879
335.961
352.663
369.688
385.965
399.812
412.106
422.805
431.49
437.635
442.59
447.003
48.3859
44.7668
43.5539
46.9179
51.4792
56.9162
63.873
73.1214
85.4997
100.713
118.195
137.716
158.257
181.291
202.445
221.357
240.484
257.111
271.724
285.3
298.001
308.878
311.503
9.6211
9.73771
9.9826
10.3434
10.4234
10.2411
9.91087
9.56039
9.24793
8.97971
8.75115
8.55921
8.40054
8.27144
8.16878
8.08991
8.03259
7.99522
7.97689
9.29556
9.41365
9.74518
10.2416
10.4098
10.1546
9.73531
9.34134
9.01516
8.74394
8.51801
8.33121
8.17766
8.05269
7.95311
7.87644
7.82066
7.78427
7.76641
8.78513
8.80143
9.08861
9.85706
10.4616
10.1203
9.50551
9.05008
8.72483
8.459
8.2386
8.05789
7.9098
7.7892
7.6931
7.61928
7.56575
7.53091
7.51382
8.0937
7.77309
7.55695
8.47594
10.1262
9.81581
9.02649
8.60804
8.34284
8.1055
7.90153
7.73426
7.59622
7.48295
7.39232
7.32252
7.27181
7.23869
7.22236
7.56046
6.64205
6.42399
5.68279
8.95934
8.52964
8.19899
7.98601
7.84783
7.676
7.50531
7.35991
7.23697
7.13449
7.05175
6.98754
6.94057
6.90968
6.89433
7.36167
6.17137
-3.64871
-12.7955
-3.04916
6.37684
7.54261
7.50078
7.35048
7.20233
7.0635
6.9413
6.83474
6.74487
6.67175
6.61445
6.57217
6.54417
6.5302
7.71286
7.46534
-7.59652
-20.0038
-18.836
3.63745
7.39113
7.16674
6.85604
6.69259
6.5836
6.48294
6.3915
6.31502
6.25284
6.20364
6.16708
6.14277
6.13064
-30.0283
-22.1696
-13.5961
-21.7008
-32.8513
-12.7296
5.02941
6.83752
6.26527
6.08105
6.0501
5.98306
5.90761
5.84644
5.7967
5.75679
5.72703
5.7072
5.6973
-1.12273
-1.13985
-1.09054
-0.979613
-0.96874
-1.01919
-1.02723
-0.322692
2.13147
5.86128
12.0046
21.9875
36.3154
55.6017
80.3189
102.523
122.081
139.562
155.209
169.928
182.649
194.247
197.248
-1.23717
-1.24025
-1.23453
-1.21809
-1.19235
-1.20965
-1.25286
-1.27708
-1.22929
-1.33915
-1.53212
-0.942497
1.23228
6.54839
16.8862
31.4918
46.3277
61.0385
75.6247
89.3855
103.839
116.426
128.353
-1.35698
-1.35738
-1.35369
-1.35061
-1.35045
-1.36993
-1.40677
-1.46377
-1.4946
-1.60537
-1.78763
-1.89412
-1.85243
-1.83809
-1.89482
-0.773016
3.82939
11.0742
19.2008
26.0476
37.0856
45.6231
51.2621
-1.48414
-1.4845
-1.48107
-1.48335
-1.49153
-1.51144
-1.54372
-1.58885
-1.64323
-1.72778
-1.83938
-1.94331
-1.99663
-2.01264
-2.09144
-2.17912
-2.20558
-2.24982
-2.33255
-2.23705
-1.2329
1.27526
3.23214
-1.61032
-1.61079
-1.60803
-1.61299
-1.62468
-1.64543
-1.67623
-1.71571
-1.76369
-1.82384
-1.89817
-1.97229
-2.02407
-2.07176
-2.13595
-2.23001
-2.29738
-2.3338
-2.39741
-2.46336
-2.57179
-2.62903
-2.72165
-1.73608
-1.7365
-1.73486
-1.74045
-1.75319
-1.77376
-1.80231
-1.83831
-1.88164
-1.93337
-1.99247
-2.05275
-2.10822
-2.15801
-2.20999
-2.27359
-2.33302
-2.38257
-2.44098
-2.51155
-2.59129
-2.66684
-2.74698
-1.86065
-1.86106
-1.86019
-1.86587
-1.87864
-1.89848
-1.92504
-1.95788
-1.99665
-2.04115
-2.09046
-2.14204
-2.19293
-2.24209
-2.29274
-2.34951
-2.40813
-2.46265
-2.51792
-2.57924
-2.64281
-2.70413
-2.76665
-1.9837
-1.98435
-1.98406
-1.98967
-2.00209
-2.02095
-2.04561
-2.07555
-2.11041
-2.14978
-2.19291
-2.23843
-2.28475
-2.33103
-2.37819
-2.428
-2.47967
-2.53119
-2.58424
-2.6414
-2.70047
-2.758
-2.81415
-2.10567
-2.1063
-2.10661
-2.11219
-2.12419
-2.14201
-2.16485
-2.19224
-2.22386
-2.2593
-2.29791
-2.33873
-2.3807
-2.4233
-2.46694
-2.51268
-2.56071
-2.61021
-2.66102
-2.71314
-2.76512
-2.81557
-2.86483
-2.227
-2.22751
-2.2282
-2.23378
-2.24537
-2.26216
-2.28333
-2.30849
-2.33741
-2.36971
-2.40478
-2.4418
-2.47999
-2.519
-2.55918
-2.60122
-2.64552
-2.69171
-2.73919
-2.78731
-2.83503
-2.88144
-2.92622
-2.34785
-2.34832
-2.34915
-2.35472
-2.3659
-2.38171
-2.40137
-2.42462
-2.45128
-2.48102
-2.51322
-2.54709
-2.58196
-2.61761
-2.65441
-2.69304
-2.73398
-2.77707
-2.82146
-2.86596
-2.90947
-2.95148
-2.99196
-2.4682
-2.46866
-2.4696
-2.47515
-2.48594
-2.50084
-2.51915
-2.54075
-2.56554
-2.59316
-2.62296
-2.65416
-2.68612
-2.71869
-2.75234
-2.78782
-2.82567
-2.86577
-2.90711
-2.94819
-2.98787
-3.0259
-3.06259
-2.58798
-2.58841
-2.58956
-2.59516
-2.6056
-2.61967
-2.6368
-2.65701
-2.68023
-2.70607
-2.73382
-2.76269
-2.79206
-2.82183
-2.85254
-2.88504
-2.92001
-2.95734
-2.99589
-3.03394
-3.07015
-3.10439
-3.13729
-2.70721
-2.70759
-2.70908
-2.71482
-2.72496
-2.7383
-2.75444
-2.77351
-2.79545
-2.81981
-2.84581
-2.87263
-2.89966
-2.92685
-2.95479
-2.98447
-3.0167
-3.05142
-3.08745
-3.12287
-3.1561
-3.18694
-3.21624
-2.82601
-2.82629
-2.82823
-2.83423
-2.84411
-2.85682
-2.87214
-2.8903
-2.91124
-2.9344
-2.95894
-2.98397
-3.00892
-3.03377
-3.05915
-3.08616
-3.11571
-3.14789
-3.18153
-3.21457
-3.24527
-3.27324
-3.29938
-2.94451
-2.94468
-2.94716
-2.95349
-2.96316
-2.97531
-2.98995
-3.00737
-3.02749
-3.04968
-3.07299
-3.09652
-3.11968
-3.14245
-3.16553
-3.19005
-3.21703
-3.24667
-3.27788
-3.30862
-3.33704
-3.36266
-3.38628
-3.06292
-3.06298
-3.06607
-3.07278
-3.08227
-3.09392
-3.10795
-3.12472
-3.14412
-3.16543
-3.18768
-3.20991
-3.23152
-3.25251
-3.27357
-3.29586
-3.32046
-3.34764
-3.3764
-3.40481
-3.43107
-3.4547
-3.47647
-3.18139
-3.18137
-3.18513
-3.19228
-3.20161
-3.21281
-3.2263
-3.24247
-3.26115
-3.28162
-3.30285
-3.32388
-3.34412
-3.36357
-3.3829
-3.40327
-3.42577
-3.45071
-3.47717
-3.50333
-3.52755
-3.5495
-3.57002
-3.30014
-3.30006
-3.30454
-3.31211
-3.32132
-3.33213
-3.34515
-3.36076
-3.37875
-3.39835
-3.41857
-3.43845
-3.45743
-3.4755
-3.49333
-3.51209
-3.53284
-3.5559
-3.5804
-3.60462
-3.6271
-3.64772
-3.66752
-3.41934
-3.41927
-3.42442
-3.43236
-3.44144
-3.45195
-3.46459
-3.47971
-3.49704
-3.51579
-3.53501
-3.55378
-3.57157
-3.58839
-3.60492
-3.62232
-3.64165
-3.66325
-3.68627
-3.70906
-3.73032
-3.75014
-3.76972
-3.53913
-3.53917
-3.54486
-3.55305
-3.56199
-3.57226
-3.58462
-3.59934
-3.61606
-3.63401
-3.65227
-3.66999
-3.68668
-3.70238
-3.71779
-3.73405
-3.75227
-3.77278
-3.7948
-3.81677
-3.83747
-3.85715
-3.87708
-3.65955
-3.65981
-3.6659
-3.67417
-3.68294
-3.69303
-3.70519
-3.71956
-3.73573
-3.75293
-3.7703
-3.78708
-3.80279
-3.81753
-3.832
-3.84736
-3.86471
-3.88444
-3.90587
-3.92752
-3.94829
-3.96851
-3.98944
-3.78056
-3.78114
-3.7875
-3.79568
-3.80426
-3.81422
-3.82621
-3.84026
-3.8559
-3.8724
-3.88897
-3.9049
-3.91979
-3.93376
-3.94752
-3.96221
-3.97894
-3.99815
-4.01923
-4.04089
-4.06214
-4.08338
-4.10582
-3.90205
-3.903
-3.90959
-3.91758
-3.92596
-3.93581
-3.94764
-3.96135
-3.97646
-3.99229
-4.00811
-4.0233
-4.03751
-4.05092
-4.06421
-4.07851
-4.09488
-4.11377
-4.13466
-4.15641
-4.17819
-4.20054
-4.22466
-4.02389
-4.02522
-4.0321
-4.03986
-4.04806
-4.05781
-4.06943
-4.08276
-4.09732
-4.11248
-4.12761
-4.14214
-4.15582
-4.16885
-4.18192
-4.19609
-4.21235
-4.23111
-4.25189
-4.27366
-4.29575
-4.31884
-4.34427
-4.14601
-4.14774
-4.15497
-4.16253
-4.17056
-4.1802
-4.19159
-4.2045
-4.21848
-4.23299
-4.24744
-4.2614
-4.27465
-4.28746
-4.3005
-4.31477
-4.33115
-4.34994
-4.37064
-4.39229
-4.4143
-4.43746
-4.46338
-4.26845
-4.27063
-4.27821
-4.28559
-4.29348
-4.303
-4.31411
-4.32656
-4.33997
-4.35383
-4.36766
-4.3811
-4.39402
-4.40673
-4.4199
-4.43442
-4.45104
-4.46996
-4.49057
-4.51198
-4.53356
-4.55616
-4.58157
-4.3913
-4.39399
-4.40181
-4.40904
-4.4168
-4.42618
-4.43699
-4.44898
-4.46183
-4.47508
-4.48833
-4.50132
-4.514
-4.52672
-4.54012
-4.55498
-4.57191
-4.59093
-4.61139
-4.63248
-4.65339
-4.6752
-4.69929
-4.51465
-4.51793
-4.52578
-4.53286
-4.54048
-4.5497
-4.5602
-4.57175
-4.58406
-4.59675
-4.6095
-4.62212
-4.63465
-4.64747
-4.66119
-4.67646
-4.69368
-4.71276
-4.73296
-4.75366
-4.77381
-4.79512
-4.81743
-4.63858
-4.64244
-4.65007
-4.657
-4.66448
-4.67351
-4.68369
-4.69482
-4.70665
-4.71885
-4.73117
-4.74351
-4.75599
-4.76901
-4.78312
-4.79884
-4.81638
-4.83548
-4.85537
-4.87566
-4.89512
-4.91655
-4.93675
-4.76306
-4.76747
-4.77461
-4.78139
-4.7887
-4.79752
-4.80739
-4.81813
-4.82954
-4.84133
-4.85332
-4.86547
-4.87798
-4.89126
-4.90583
-4.92207
-4.93999
-4.95919
-4.97884
-4.99888
-5.01797
-5.04039
-5.05889
-4.88799
-4.89287
-4.89932
-4.90594
-4.91306
-4.92164
-4.93121
-4.94162
-4.95266
-4.96412
-4.97587
-4.98793
-5.00054
-5.01414
-5.0292
-5.046
-5.06439
-5.08388
-5.10351
-5.12369
-5.14292
-5.1672
-5.1859
-5.01317
-5.01842
-5.02407
-5.03052
-5.03742
-5.04576
-5.05505
-5.06516
-5.07592
-5.08714
-5.09874
-5.11079
-5.12355
-5.13747
-5.15299
-5.17034
-5.18927
-5.20926
-5.22922
-5.25003
-5.26976
-5.29631
-5.31661
-5.13833
-5.14384
-5.14865
-5.15493
-5.1616
-5.16968
-5.17872
-5.18858
-5.19913
-5.2102
-5.22175
-5.23385
-5.24679
-5.26099
-5.27688
-5.29467
-5.31412
-5.33468
-5.35531
-5.37705
-5.39753
-5.42617
-5.44758
-5.26321
-5.26888
-5.27287
-5.27896
-5.2854
-5.29324
-5.30205
-5.31171
-5.32211
-5.33312
-5.34469
-5.35692
-5.37005
-5.38449
-5.40063
-5.41867
-5.43847
-5.45949
-5.48091
-5.50351
-5.52508
-5.5549
-5.57671
-5.38773
-5.39348
-5.39673
-5.40261
-5.40883
-5.41642
-5.42503
-5.43454
-5.44485
-5.45587
-5.46755
-5.47998
-5.49336
-5.50803
-5.52435
-5.54252
-5.56248
-5.58379
-5.6059
-5.62904
-5.65195
-5.68123
-5.7039
-5.51188
-5.51769
-5.52033
-5.52598
-5.53203
-5.53939
-5.54782
-5.55723
-5.56752
-5.57863
-5.59052
-5.60324
-5.61697
-5.63196
-5.64852
-5.66685
-5.68694
-5.70851
-5.73122
-5.75477
-5.77895
-5.80626
-5.83069
-5.6352
-5.64111
-5.64332
-5.64872
-5.65463
-5.6618
-5.6701
-5.67944
-5.68976
-5.70101
-5.71317
-5.72628
-5.74045
-5.75591
-5.77287
-5.79154
-5.81195
-5.83392
-5.85718
-5.88127
-5.90632
-5.9319
-5.95802
-5.75648
-5.76244
-5.76442
-5.76949
-5.77528
-5.78228
-5.79044
-5.7997
-5.81002
-5.82138
-5.83378
-5.84724
-5.86187
-5.87783
-5.89532
-5.91448
-5.93533
-5.95774
-5.98143
-6.00606
-6.03157
-6.05688
-6.08343
-5.8751
-5.88078
-5.88278
-5.88752
-5.89317
-5.89997
-5.90793
-5.91702
-5.92725
-5.93862
-5.95114
-5.96486
-5.97987
-5.9963
-6.01429
-6.03394
-6.05524
-6.07803
-6.10213
-6.12732
-6.15344
-6.17969
-6.2057
-5.99334
-5.99863
-6.00109
-6.00563
-6.01119
-6.01786
-6.02568
-6.03469
-6.04492
-6.05639
-6.06917
-6.08331
-6.0989
-6.11603
-6.13481
-6.15531
-6.17755
-6.20151
-6.22712
-6.25431
-6.2829
-6.31229
-6.34089
-6.11534
-6.12221
-6.12501
-6.12959
-6.13524
-6.14203
-6.15005
-6.15934
-6.17
-6.1821
-6.19574
-6.21098
-6.22791
-6.24661
-6.26716
-6.2897
-6.31438
-6.34142
-6.37102
-6.40334
-6.43847
-6.47651
-6.51733
187.011
197.467
186.95
139.145
132.193
125.601
108.728
80.2718
51.9472
45.8022
33.6372
20.9234
3.0396
0.332482
-2.83419
-3.09243
-2.81668
-2.89222
-2.91671
-3.00113
-2.82822
-2.90143
-2.94882
-2.99062
-2.83385
-2.89703
-2.94659
-2.98608
-2.87261
-2.92917
-2.9764
-3.01354
-2.91648
-2.96726
-3.01064
-3.04519
-2.97204
-3.01675
-3.05561
-3.08748
-3.03329
-3.07343
-3.10825
-3.13699
-3.10007
-3.13625
-3.1672
-3.19255
-3.17107
-3.20382
-3.23148
-3.25352
-3.24639
-3.27579
-3.30044
-3.31922
-3.32616
-3.35235
-3.37426
-3.39022
-3.41028
-3.43368
-3.45308
-3.46685
-3.49854
-3.5198
-3.53698
-3.54886
-3.59101
-3.61099
-3.62646
-3.63652
-3.68819
-3.70774
-3.72238
-3.73119
-3.79068
-3.81057
-3.82544
-3.8344
-3.89885
-3.91973
-3.93609
-3.94735
-4.01254
-4.03509
-4.05443
-4.07087
-4.1308
-4.15606
-4.17998
-4.20511
-4.25202
-4.28124
-4.31152
-4.34839
-4.37416
-4.40814
-4.44649
-4.4965
-4.4952
-4.53353
-4.58024
-4.64351
-4.61389
-4.65451
-4.7069
-4.78146
-4.7306
-4.77045
-4.82281
-4.90488
-4.84722
-4.88403
-4.93058
-5.01794
-4.96588
-4.99735
-5.03327
-5.13377
-5.09001
-5.1116
-5.13334
-5.27368
-5.22385
-5.23827
-5.26331
-5.43863
-5.36327
-5.37731
-5.43727
-5.5937
-5.4995
-5.51656
-5.61287
-5.7379
-5.62934
-5.64757
-5.74185
-5.82514
-5.75286
-5.7697
-5.85039
-5.88478
-5.87033
-5.88881
-5.9514
-5.96379
-5.98607
-6.01218
-6.04544
-6.0787
-6.10515
-6.14067
-6.15174
-6.22386
-6.22669
-6.2595
-6.26229
-6.33342
-6.36654
-6.39058
-6.37842
-6.3543
-6.56294
-6.61101
-6.60912
-6.47232
11.391
-12.2673
5.79748
8.9904
-23.3979
-17.6122
4.42448
6.43705
5.62766
5.54139
5.6016
5.5552
5.49347
5.44739
5.40897
5.37761
5.35426
5.33867
5.33084
24.6323
-2.00379
-4.59926
-3.0193
-3.04237
-16.2842
-0.0730355
4.83065
5.13878
5.1865
5.26786
5.22942
5.17916
5.14427
5.11441
5.08984
5.07158
5.05934
5.05314
-2.42772
-3.5519
-3.22607
-3.00199
-2.92066
-6.45249
-2.30316
3.57877
4.85765
4.92262
4.94095
4.89619
4.85641
4.83146
4.81003
4.79272
4.77989
4.77111
4.76653
-3.07414
-3.15293
-3.07368
-3.02698
-2.79683
-2.7442
2.12757
4.45309
4.87094
4.74838
4.62659
4.55652
4.52555
4.50948
4.49682
4.48743
4.48044
4.47526
4.47233
-3.06425
-3.11782
-3.05951
-3.00187
-2.7771
-0.501064
3.28783
4.71344
4.87852
4.58065
4.29289
4.20059
4.18356
4.17732
4.17469
4.17418
4.17355
4.17229
4.17121
-3.03919
-3.06404
-3.03457
-2.98444
-2.84691
-0.14392
3.47663
4.73418
4.66846
4.2936
3.88755
3.8153
3.82665
3.83395
3.84388
3.85338
3.85965
3.86274
3.86376
-3.03086
-3.05399
-3.04587
-3.0237
-3.10132
-3.35433
-1.03048
2.4928
3.94312
3.62314
3.31997
3.38659
3.45093
3.47929
3.50558
3.52611
3.53965
3.54742
3.55074
-3.05124
-3.06988
-3.06335
-3.02559
-2.26708
-3.81052
-2.72322
-0.732949
1.70992
2.42564
2.62493
2.92811
3.05843
3.11632
3.16224
3.1941
3.21488
3.22734
3.23296
-3.07975
-3.09715
-3.09884
-3.13107
-3.28032
-3.54291
-2.81759
-2.00321
-0.303723
1.18053
1.96976
2.48173
2.66219
2.75247
2.81758
2.85966
2.88701
2.90369
2.9113
-3.11891
-3.13577
-3.13989
-3.18181
-3.23378
-3.38521
-2.41113
-0.336937
-0.0213124
0.550399
1.56439
2.09354
2.28327
2.39751
2.47563
2.52527
2.55792
2.57788
2.58695
-3.16501
-3.17993
-3.18076
-3.21094
-3.24353
-3.17393
-1.43238
1.21942
1.09147
0.896785
1.46493
1.78034
1.93982
2.05827
2.13934
2.19308
2.2293
2.25137
2.2613
-3.21733
-3.22965
-3.22701
-3.23906
-3.23956
-3.0369
-0.613822
1.203
1.30738
1.44398
1.45264
1.52222
1.63164
1.73409
1.8096
1.86427
1.90229
1.92541
1.9358
-3.2751
-3.28581
-3.28451
-3.28141
-3.25839
-2.93332
-0.716154
1.29006
1.58558
1.57345
1.31658
1.26796
1.33795
1.41787
1.48515
1.53884
1.57737
1.60092
1.61165
-3.33717
-3.34638
-3.34456
-3.3493
-3.36623
-3.28208
-1.65795
1.23805
1.59738
1.37847
1.04633
0.98359
1.03667
1.10184
1.16368
1.2161
1.25456
1.27843
1.28967
-3.40383
-3.40918
-3.3927
-3.427
-3.49955
-3.79995
-3.85945
-1.12525
0.781476
0.810084
0.641326
0.654649
0.718334
0.781925
0.843297
0.895292
0.933763
0.958204
0.970254
-3.4762
-3.47627
-3.44232
-3.45399
-3.4493
-3.49629
-5.60986
-3.84751
-1.00138
-0.0826877
0.150918
0.292222
0.38574
0.458462
0.523401
0.576133
0.61504
0.640437
0.653538
-3.55447
-3.54897
-3.50661
-3.46942
-3.44534
-2.78926
-3.73621
-2.30562
-1.29307
-0.661651
-0.283107
-0.0670313
0.0512938
0.135173
0.204733
0.258948
0.298731
0.325372
0.339569
-3.63924
-3.63027
-3.58518
-3.54174
-3.52243
-3.11982
-1.10912
1.00127
-1.15747
-0.661677
-0.561683
-0.393351
-0.271804
-0.183636
-0.111352
-0.0555992
-0.0146347
0.0133627
0.0284982
-3.73311
-3.72685
-3.68245
-3.64054
-3.56849
-3.08925
-1.7453
-1.0819
-1.58323
-0.801566
-0.787205
-0.686038
-0.581578
-0.496492
-0.423909
-0.366876
-0.324505
-0.295159
-0.279339
-3.83925
-3.84594
-3.81515
-3.76783
-3.55063
-2.94788
-1.79664
-1.44082
-1.19881
-1.27464
-1.07454
-0.97812
-0.887446
-0.805196
-0.732881
-0.674484
-0.630401
-0.599722
-0.583434
-3.96032
-3.98896
-3.97965
-3.92268
-3.51329
-3.18785
-3.64054
-1.43407
-1.00009
-1.31571
-1.32347
-1.27712
-1.19447
-1.1119
-1.03863
-0.978133
-0.931882
-0.899808
-0.883139
-4.09821
-4.15453
-4.16155
-4.08775
-3.79188
-2.48748
-2.56511
-1.58515
-1.11077
-1.29316
-1.55212
-1.57716
-1.50142
-1.41752
-1.34118
-1.27742
-1.22844
-1.19482
-1.17771
-4.25181
-4.3365
-4.35143
-4.26973
-4.09376
-3.57652
-3.70047
-3.67168
-1.81279
-1.54222
-1.86687
-1.89823
-1.81341
-1.72311
-1.64029
-1.5718
-1.51949
-1.48408
-1.46636
-4.41723
-4.53579
-4.54363
-4.44359
-4.37179
-3.52935
-4.55738
-4.71389
-3.10243
-2.26386
-2.37316
-2.26616
-2.13824
-2.02974
-1.93556
-1.86062
-1.80434
-1.76691
-1.74834
-4.59077
-4.74634
-4.74658
-4.59961
-4.49395
-3.23612
0.408894
-0.839533
-3.62997
-3.02395
-2.99344
-2.66335
-2.4738
-2.33545
-2.22574
-2.14294
-2.08228
-2.04267
-2.02302
-4.76301
-4.9453
-4.96238
-4.79825
-4.69981
-4.82097
-4.91636
-4.98625
-5.63402
-4.09851
-3.5499
-3.04702
-2.80618
-2.63363
-2.50809
-2.41729
-2.35245
-2.3108
-2.28984
-4.91949
-5.11813
-5.15858
-4.94227
-4.72834
-4.79264
-5.00314
-5.21377
-5.64975
-5.47399
-4.0036
-3.41099
-3.11793
-2.91612
-2.77885
-2.68178
-2.61391
-2.57088
-2.54836
-5.05092
-5.24534
-5.29538
-5.03671
-4.7324
-4.75376
-5.00585
-5.2757
-5.60272
-5.67544
-4.261
-3.7123
-3.3847
-3.17601
-3.03448
-2.93467
-2.86581
-2.82277
-2.79809
-5.16212
-5.31433
-5.35505
-5.13962
-4.81179
-4.84205
-4.99846
-5.23144
-5.38004
-5.24294
-4.31255
-3.91309
-3.60551
-3.41092
-3.27327
-3.17527
-3.10757
-3.06568
-3.03961
-5.27605
-5.3419
-5.36468
-5.32378
-5.1396
-5.03139
-5.01405
-5.01112
-5.03635
-4.83855
-4.29453
-4.03831
-3.7889
-3.62238
-3.49593
-3.40377
-3.33929
-3.29951
-3.27352
-5.41782
-5.38972
-5.38131
-5.54195
-6.20888
-6.75665
-4.81695
-4.60408
-4.62512
-4.56722
-4.29386
-4.13956
-3.95294
-3.81646
-3.70519
-3.62144
-3.56168
-3.52468
-3.50007
-5.52172
-5.4409
-5.43764
-5.56466
-6.18211
-9.06173
-5.86186
-4.08624
-4.18516
-4.39414
-4.33237
-4.24801
-4.11176
-4.0003
-3.90453
-3.83006
-3.77579
-3.74192
-3.71955
-5.62143
-5.47505
-5.47491
-5.52917
-5.66546
-5.86448
-5.58985
-3.70439
-3.98632
-4.36618
-4.42264
-4.37474
-4.27212
-4.17899
-4.09684
-4.03134
-3.98272
-3.95203
-3.93238
-5.82222
-5.63698
-5.60063
-5.53554
-5.82323
-6.11545
-4.68839
-4.37436
-4.49055
-4.55772
-4.57775
-4.52364
-4.43664
-4.3552
-4.28401
-4.22662
-4.18344
-4.15583
-4.13909
-5.99014
-6.33308
-6.80042
-9.0118
-6.73628
-6.49775
-5.02858
-5.87437
-5.23762
-4.8815
-4.78156
-4.69088
-4.60474
-4.5297
-4.467
-4.41677
-4.37872
-4.35404
-4.34025
-5.94077
-6.35455
-10.9681
-7.14073
-6.02588
-6.30981
-5.3882
-6.2744
-5.55858
-5.1558
-4.98005
-4.8613
-4.77223
-4.70172
-4.64612
-4.60235
-4.56917
-4.54731
-4.53642
-5.96095
-6.03175
-3.73627
-3.22537
-2.82333
-4.77145
-6.09649
-6.07721
-5.6289
-5.32376
-5.13639
-5.01947
-4.93373
-4.86976
-4.82122
-4.78371
-4.75532
-4.73626
-4.72819
-6.13204
-5.93808
-6.02619
-5.47493
-5.78449
-6.24379
-6.18272
-6.00309
-5.64284
-5.42014
-5.25815
-5.16155
-5.08695
-5.03287
-4.99226
-4.96117
-4.93768
-4.92147
-4.91611
-6.24749
-5.9021
-6.09216
-6.22177
-6.23671
-6.24344
-6.15311
-5.95023
-5.65641
-5.49247
-5.36594
-5.29237
-5.23336
-5.19133
-5.15954
-5.13522
-5.11683
-5.1036
-5.10078
-6.27397
-5.87012
-5.99246
-6.11667
-6.12156
-6.11458
-6.01781
-5.86176
-5.66309
-5.55837
-5.46945
-5.41796
-5.37605
-5.34657
-5.32397
-5.30661
-5.29348
-5.28339
-5.28272
-6.35702
-5.8195
-5.92076
-5.90195
-5.92807
-5.92287
-5.8628
-5.77143
-5.66903
-5.6191
-5.5687
-5.53993
-5.51583
-5.49902
-5.48593
-5.47577
-5.46813
-5.46147
-5.46248
-6.54344
-5.97688
-5.96272
-5.75326
-5.76924
-5.77481
-5.76303
-5.73788
-5.70989
-5.69589
-5.67912
-5.66934
-5.66068
-5.65462
-5.64979
-5.64601
-5.64327
-5.64058
-5.64123
)
;

boundaryField
{
    leftWall
    {
        type            calculated;
        value           nonuniform List<scalar> 
50
(
1357.71
1175.42
989.515
799.524
604.997
407.409
206.335
48.3859
-1.12273
-1.23717
-1.35698
-1.48414
-1.61032
-1.73608
-1.86065
-1.9837
-2.10567
-2.227
-2.34785
-2.4682
-2.58798
-2.70721
-2.82601
-2.94451
-3.06292
-3.18139
-3.30014
-3.41934
-3.53913
-3.65955
-3.78056
-3.90205
-4.02389
-4.14601
-4.26845
-4.3913
-4.51465
-4.63858
-4.76306
-4.88799
-5.01317
-5.13833
-5.26321
-5.38773
-5.51188
-5.6352
-5.75648
-5.8751
-5.99334
-6.11534
)
;
    }
    rightWall
    {
        type            calculated;
        value           nonuniform List<scalar> 
50
(
7.97689
7.76641
7.51382
7.22236
6.89433
6.5302
6.13064
5.6973
5.33084
5.05314
4.76653
4.47233
4.17121
3.86376
3.55074
3.23296
2.9113
2.58695
2.2613
1.9358
1.61165
1.28967
0.970254
0.653538
0.339569
0.0284982
-0.279339
-0.583434
-0.883139
-1.17771
-1.46636
-1.74834
-2.02302
-2.28984
-2.54836
-2.79809
-3.03961
-3.27352
-3.50007
-3.71955
-3.93238
-4.13909
-4.34025
-4.53642
-4.72819
-4.91611
-5.10078
-5.28272
-5.46248
-5.64123
)
;
    }
    lowerWall
    {
        type            calculated;
        value           nonuniform List<scalar> 
62
(
1447.22
1447.73
1448.97
1450.8
1453.34
1456.64
1460.61
1465.14
1470.13
1475.46
1481.04
1486.79
1492.96
1498.55
1503.91
1508.91
1513.39
1517.24
1520.31
1522.66
1523.95
1521.29
1509
1431.97
1263.55
1096.04
927.744
761.69
601.905
447.003
311.503
238.163
248.619
234.764
185.067
9.6211
9.29556
8.78513
8.0937
7.56046
7.36167
7.71286
-30.0283
9.71061
9.82723
10.0721
10.4329
10.5132
10.3307
10.0004
9.64991
9.33745
9.06922
8.84066
8.64872
8.49005
8.36095
8.2583
8.17943
8.12211
8.08473
8.06641
)
;
    }
    atmosphere
    {
        type            calculated;
        value           nonuniform List<scalar> 
46
(
-6.17954
-6.19083
-6.19255
-6.19727
-6.20311
-6.21015
-6.21849
-6.2282
-6.2394
-6.25221
-6.26674
-6.28308
-6.3013
-6.32148
-6.34373
-6.36821
-6.3952
-6.42506
-6.45813
-6.4948
-6.53557
-6.58131
-6.63399
-6.70126
-6.79059
-6.86948
-7.15282
-6.84927
-5.80961
-6.02344
-5.73078
-5.73066
-5.73584
-5.74178
-5.73078
-5.72905
-5.72904
-5.72904
-5.72904
-5.72904
-5.72904
-5.72904
-5.72904
-5.72904
-5.72904
-5.72904
)
;
    }
    defaultFaces
    {
        type            empty;
    }
}


// ************************************************************************* //
