/*--------------------------------*- C++ -*----------------------------------*\
| =========                 |                                                 |
| \\      /  F ield         | OpenFOAM: The Open Source CFD Toolbox           |
|  \\    /   O peration     | Version:  2206                                  |
|   \\  /    A nd           | Website:  www.openfoam.com                      |
|    \\/     M anipulation  |                                                 |
\*---------------------------------------------------------------------------*/
FoamFile
{
    version     2.0;
    format      ascii;
    arch        "LSB;label=32;scalar=64";
    class       volScalarField;
    location    "0.275";
    object      alpha.water;
}
// * * * * * * * * * * * * * * * * * * * * * * * * * * * * * * * * * * * * * //

dimensions      [0 0 0 0 0 0 0];

internalField   nonuniform List<scalar> 
2268
(
0.999999
0.999999
1
1
1
1
1
1
1
1
1
1
0.999999
0.999999
0.999999
1
1
1
1
1
0.90988
0.795204
0.794839
0.999999
1
1
1
1
1
1
1
1
1
1
1
1
1
1
1
1
1
1
1
0.987781
0.935955
0.910346
1
1
1
1
1
1
1
1
1
1
1
1
1
1
1
1
1
1
1
1
1
0.999758
0.995331
1
1
1
1
1
1
1
1
1
1
1
1
1
1
1
1
1
1
1
1
1
0.999739
0.980711
1
1
1
1
1
1
1
1
1
1
1
1
1
1
1
1
1
1
1
1
1
0.99999
0.980646
1
1
1
1
1
1
1
1
1
1
1
1
1
1
1
1
1
1
1
1
1
0.999999
0.980899
1
1
1
1
1
1
1
1
1
1
1
1
1
1
1
1
1
1
1
1
1
1
0.98115
1
1
1
1
1
1
1
1
1
1
1
1
1
1
1
1
1
1
1
1
1
1
0.983978
1.23214e-16
2.05461e-17
1.49245e-18
7.83404e-20
4.5048e-21
2.34554e-22
1.15428e-23
5.43444e-25
2.94598e-26
3.09401e-27
2.10025e-28
9.58646e-30
3.90638e-31
1.40747e-32
4.25804e-34
1.01698e-35
1.7368e-37
1.63675e-39
9.05824e-40
2.95587e-15
1.53248e-15
1.8762e-16
1.12472e-17
5.54498e-19
4.5048e-21
2.34554e-22
1.15428e-23
5.43442e-25
3.00666e-25
3.75996e-26
1.42085e-27
5.80402e-29
2.14457e-30
6.58112e-32
1.54077e-33
2.36004e-35
1.48535e-37
9.05824e-40
1.07444e-13
7.82118e-14
1.30894e-14
1.00038e-15
4.82832e-17
5.2555e-19
2.7729e-20
1.39193e-21
6.7934e-23
1.66185e-23
1.81665e-24
8.11928e-26
3.12808e-27
1.07018e-28
2.95098e-30
5.72087e-32
7.46758e-34
6.25211e-36
1.09875e-37
1.6677e-12
1.18411e-12
3.2723e-13
4.83864e-14
2.84075e-15
3.11041e-17
1.68356e-18
8.46778e-20
4.13339e-21
6.31396e-22
7.20429e-23
3.43564e-24
1.24561e-25
3.95032e-27
9.44761e-29
1.82674e-30
3.28691e-32
2.81503e-34
5.93857e-36
3.57358e-11
1.03756e-11
1.87407e-12
8.14806e-13
1.05677e-13
1.23528e-15
7.01268e-17
3.56902e-18
1.74395e-19
1.97184e-20
2.478e-21
1.23082e-22
4.18386e-24
1.20516e-25
2.62203e-27
7.71444e-29
1.32602e-30
1.12545e-32
2.64145e-34
7.2129e-10
1.48246e-10
3.20907e-11
6.13253e-12
7.78425e-13
3.79655e-14
2.31987e-15
1.21664e-16
5.99404e-18
5.5156e-19
7.76544e-20
3.95647e-21
1.25721e-22
3.11985e-24
9.72219e-26
2.82022e-27
4.86105e-29
4.21609e-31
1.05653e-32
1.13725e-08
2.3107e-09
6.60212e-10
1.04994e-10
1.19952e-11
9.7043e-13
6.54611e-14
3.61696e-15
1.8139e-16
1.45043e-17
2.27905e-18
1.17345e-19
3.45985e-21
8.91678e-23
3.3513e-24
9.76789e-26
1.70739e-27
1.51772e-29
3.94456e-31
1.45327e-07
3.05088e-08
1.1875e-08
1.87104e-09
2.28259e-10
2.17069e-11
1.63659e-12
9.75079e-14
5.039e-15
3.6836e-16
6.40839e-17
3.35483e-18
9.01205e-20
2.79767e-21
1.10175e-22
3.26461e-24
5.85847e-26
5.34972e-28
1.41616e-29
1
1
1
1
1
1
1
1
1
1
1
1
1
1
1
1
1
1
1
1
1
1
1
1
1
1
1
1
1
1
1
1
1
1
0.999999
1
0.999999
1
0.999999
1
1
1
1
1
1
1.00001
1
1
0.999998
0.999998
0.999999
0.999999
0.999998
0.999998
0.999996
0.999995
0.999994
0.999988
0.999977
0.999973
0.999961
0.999959
0.999979
0.999876
0.999999
1
1
1
0.999999
1
0.999994
0.999978
0.999982
0.999983
0.999981
0.999976
0.999962
0.999936
0.999895
0.999837
0.999727
0.999511
0.999236
0.988555
0.952266
0.899158
0.829443
0.846099
0.931319
0.999995
0.999999
0.999977
0.999994
0.999861
0.999778
0.999799
0.999796
0.99976
0.999664
0.999474
0.999124
0.998548
0.989105
0.944361
0.837172
0.656235
0.440573
0.259512
0.142634
0.0762534
0.0872503
0.125287
0.21559
0.400377
0.754978
0.999861
0.998285
0.997904
0.997983
0.997791
0.993165
0.972949
0.924593
0.835033
0.685079
0.466403
0.261018
0.0554153
4.11767e-05
3.58183e-05
3.3506e-05
3.2965e-05
3.33411e-05
4.95563e-05
0.000285946
0.000701546
0.00187713
0.0406534
0.971582
0.763234
0.72158
0.698419
0.635147
0.51713
0.375452
0.234986
0.109428
3.72153e-07
5.6795e-08
6.4752e-07
4.60892e-06
1.86486e-05
3.19526e-05
3.29233e-05
3.29078e-05
3.28643e-05
3.33411e-05
0.0003334
0.00044552
0.000733572
0.00127506
0.35668
0.093163
0.0578521
0.0421634
0.0122652
1.1112e-13
-5.9539e-13
-2.37167e-11
-6.62184e-10
-9.82244e-12
4.50575e-09
6.42989e-08
6.51731e-07
4.6117e-06
2.05365e-05
3.13343e-05
3.28394e-05
3.30476e-05
0.000274698
0.001839
0.00202841
0.00203864
0.00150063
-1.54775e-19
4.81482e-36
4.18569e-20
3.49782e-18
1.95537e-16
5.06e-15
1.1267e-13
3.71944e-13
2.19253e-12
5.84945e-12
-1.94169e-11
-1.92041e-08
2.97468e-06
0.000148503
0.000290788
0.000103217
3.31299e-05
3.28622e-05
0.00128898
0.00198378
0.00199744
0.00202841
0.00145971
-6.05124e-19
2.77368e-19
1.55584e-17
3.83551e-16
1.12252e-14
4.16188e-13
1.85259e-12
1.59473e-11
9.73529e-12
1.03552e-11
-4.04049e-10
4.03396e-06
0.000203624
0.000484551
0.000469393
0.000240625
4.18956e-05
0.00015987
0.00184184
0.00193005
0.00189858
0.000521405
4.72034e-06
-5.73291e-19
3.56638e-18
3.19718e-16
1.55389e-14
3.78031e-13
3.90249e-12
1.1429e-11
8.79485e-11
1.70306e-11
2.48257e-11
-1.04616e-09
0.000128106
0.000469661
0.000556161
0.000450248
0.000123498
6.07682e-05
0.00100301
0.00177473
0.00145277
0.000141427
1.69689e-06
2.60576e-07
-9.96401e-19
8.01115e-18
1.02111e-15
7.27095e-14
1.4476e-12
7.92559e-12
1.82345e-11
1.34554e-10
3.44471e-11
8.45517e-11
2.83341e-10
0.000144282
0.000520462
0.000618187
0.000209176
0.000196901
0.0010986
0.00147265
0.00121393
6.19755e-05
2.4268e-07
3.29181e-08
1.12593e-08
-1.61936e-18
9.87306e-18
1.57031e-15
1.49084e-13
2.61076e-12
1.00994e-11
2.08789e-11
1.48681e-10
2.26163e-10
5.84215e-10
5.59614e-06
2.78598e-06
0.000429724
0.000644992
0.00055404
0.00120975
0.00121056
0.000730187
-1.19749e-08
2.98902e-09
3.08658e-09
6.24655e-09
8.09695e-09
-2.46533e-18
9.53099e-18
1.76178e-15
2.04067e-13
3.36685e-12
1.10692e-11
2.14195e-11
1.49969e-10
2.60847e-09
1.29386e-09
8.10282e-09
1.25788e-08
0.000100414
0.000598649
0.000604355
0.000566424
4.20825e-05
2.87731e-11
9.19869e-10
2.34165e-09
3.81634e-09
5.83062e-09
6.51071e-09
-3.50635e-18
2.13664e-18
1.52802e-15
2.20339e-13
3.57203e-12
1.11679e-11
1.80705e-11
1.0252e-10
8.79142e-09
1.99064e-08
6.59366e-09
1.79855e-09
7.21374e-12
-1.21831e-14
3.31163e-05
2.83658e-11
3.15231e-11
5.62941e-11
1.07916e-09
1.99065e-09
7.8693e-09
1.76967e-08
1.20671e-08
-4.62861e-18
-5.11336e-18
6.32269e-16
1.74944e-13
2.79098e-12
8.44066e-12
1.42146e-11
2.51239e-11
1.23392e-08
4.72305e-08
1.00847e-08
7.24543e-12
-4.31128e-19
-1.82219e-10
-8.58668e-10
2.54197e-11
1.84227e-10
5.58525e-10
5.79518e-10
7.00526e-10
7.64815e-10
1.79999e-08
1.72126e-08
-5.59449e-18
-1.35181e-17
1.2034e-16
6.68503e-14
1.13685e-12
4.34057e-12
1.33819e-11
1.33898e-11
6.70093e-09
4.7304e-08
4.58389e-08
2.04764e-08
1.56903e-14
-4.57917e-18
1.25317e-12
4.93852e-11
2.0128e-10
2.26683e-10
3.17396e-10
4.48546e-10
1.27086e-09
5.96833e-09
1.50059e-08
-6.05312e-18
-2.30716e-17
2.56034e-18
1.28134e-14
2.65742e-13
1.80545e-12
1.39376e-11
1.98702e-11
4.56263e-10
2.4341e-08
4.4251e-08
4.2691e-08
6.69698e-10
2.21172e-14
1.81458e-12
2.42344e-11
5.35243e-11
1.09277e-10
2.3586e-10
4.61091e-10
1.53053e-09
1.14159e-09
3.91598e-09
-5.66578e-18
-3.01728e-17
-1.10401e-17
1.15673e-15
3.54553e-14
6.63927e-13
1.39782e-11
3.16288e-11
7.26662e-12
1.89347e-12
1.88318e-08
1.06153e-08
9.29431e-10
5.40987e-14
8.66636e-13
6.20394e-12
1.96795e-11
4.40472e-11
9.53914e-11
2.45898e-10
4.9088e-10
5.05944e-10
1.11511e-08
-4.36083e-18
-2.89955e-17
-2.21201e-17
2.97657e-17
2.27577e-15
1.8914e-13
7.39092e-12
3.03787e-11
3.01378e-11
2.71685e-12
2.07049e-13
1.01247e-13
8.03788e-14
8.23678e-14
1.23084e-13
1.22842e-12
4.93228e-12
1.47263e-11
4.35736e-11
1.28931e-10
3.62825e-10
7.8953e-10
1.39209e-08
-2.56276e-18
-1.92131e-17
-2.64197e-17
-4.80768e-20
1.0473e-17
3.48277e-14
1.6038e-12
1.31925e-11
2.07875e-11
1.10663e-11
4.32953e-12
1.12819e-12
2.84565e-13
5.39728e-14
1.86575e-14
1.28435e-13
8.03749e-13
4.16752e-12
1.95876e-11
7.6313e-11
2.75113e-10
1.20047e-09
1.96274e-09
-1.04091e-18
-8.23099e-18
-1.52601e-17
-1.17662e-20
1.37395e-18
5.15498e-15
2.23264e-13
1.93294e-12
5.87107e-12
1.1038e-11
5.90095e-12
1.76559e-12
2.98107e-13
2.34364e-14
3.55741e-15
8.61115e-15
1.18095e-13
1.2156e-12
8.72734e-12
4.31453e-11
1.80802e-10
7.0415e-10
7.3451e-10
-2.56475e-19
-1.99873e-18
-3.71793e-18
-6.63492e-22
2.85852e-19
7.9809e-16
3.78362e-14
4.01993e-13
1.28531e-12
3.25658e-12
1.86305e-12
9.03781e-13
1.53178e-13
9.48638e-15
4.61508e-16
9.44528e-16
2.13817e-14
3.61285e-13
3.67126e-12
2.31153e-11
1.11971e-10
4.96551e-10
9.48424e-10
-3.2573e-20
-2.59259e-19
-5.39275e-19
0
2.73145e-21
1.39242e-18
2.59688e-15
6.97278e-14
2.7321e-13
3.86546e-13
4.66852e-13
1.69926e-13
4.0831e-14
2.41533e-15
-8.94709e-17
7.78624e-17
4.94326e-15
1.03138e-13
1.44018e-12
1.18003e-11
6.51984e-11
3.32379e-10
1.44255e-09
-7.94821e-32
-2.15462e-30
0
0
3.22125e-24
7.47953e-22
1.44257e-17
2.75637e-15
1.67689e-14
2.88115e-14
2.85398e-14
1.27871e-14
4.97826e-15
1.21104e-16
-1.98636e-16
2.09096e-19
1.08791e-15
2.79866e-14
5.12218e-13
5.55964e-12
3.83347e-11
2.02781e-10
7.23413e-10
-2.75457e-31
-1.24233e-29
-2.43705e-28
-2.12516e-27
1.09622e-41
1.48161e-24
4.53217e-21
3.4864e-18
4.08715e-17
1.00698e-16
1.23281e-16
7.34902e-17
-5.31051e-17
-2.45794e-16
-2.08715e-16
2.40602e-20
2.65255e-16
7.51384e-15
1.63676e-13
2.35142e-12
2.07993e-11
1.20438e-10
4.38623e-10
-4.7383e-31
-2.5951e-29
-6.99591e-28
-1.23095e-26
-1.40486e-25
-5.34695e-25
4.66485e-39
8.3704e-21
3.66981e-19
1.63417e-18
2.37332e-18
-9.68184e-19
-2.48524e-17
-6.92048e-17
-6.02459e-17
-5.19978e-26
6.91448e-17
2.02511e-15
4.89393e-14
9.08844e-13
9.96177e-12
6.29968e-11
3.14848e-10
-4.94935e-31
-2.97386e-29
-9.15147e-28
-1.94704e-26
-3.17104e-25
-3.96337e-24
-3.50896e-23
-1.64244e-22
-1.4067e-22
-4.27294e-21
-1.74955e-19
-1.5395e-18
-5.92625e-18
-1.22302e-17
-9.25392e-18
-4.63401e-26
1.72585e-17
5.31643e-16
1.35321e-14
2.94358e-13
3.86222e-12
3.10999e-11
2.4466e-10
-3.04226e-31
-1.91146e-29
-6.17056e-28
-1.38758e-26
-2.46906e-25
-3.62606e-24
-4.36473e-23
-4.19961e-22
-3.15213e-21
-1.81706e-20
-8.02523e-20
-2.73404e-19
-7.08855e-19
-1.21771e-18
-2.90281e-19
-1.39367e-26
4.12135e-18
1.35049e-16
3.45437e-15
7.90387e-14
1.28724e-12
1.64177e-11
1.62957e-10
-8.61939e-32
-5.36683e-30
-1.63212e-28
-3.18296e-27
-4.47145e-26
-4.81699e-25
-4.13753e-24
-2.90942e-23
-1.70554e-22
-8.42931e-22
-3.52171e-21
-1.22594e-20
-3.32653e-20
-5.21861e-20
-1.30596e-28
9.7752e-21
1.18046e-18
3.68067e-17
9.47888e-16
2.14347e-14
4.27709e-13
7.58045e-12
7.59317e-11
-6.26179e-34
-3.95689e-32
-1.24429e-30
-2.5621e-29
-3.88567e-28
-4.62351e-27
-4.48402e-26
-3.62988e-25
-2.48664e-24
-1.44832e-23
-7.11434e-23
-2.8327e-22
-7.75865e-22
-1.38948e-22
-1.17092e-28
3.78369e-21
3.21612e-19
1.02195e-17
2.70655e-16
6.24173e-15
1.24864e-13
2.19126e-12
2.40547e-11
-1.42425e-36
-1.04627e-34
-3.84866e-33
-9.34243e-32
-1.68148e-30
-2.38713e-29
-2.7718e-28
-2.68943e-27
-2.20317e-26
-1.52028e-25
-8.59203e-25
-3.55327e-24
-5.37772e-24
-1.51059e-31
2.31771e-23
8.78069e-22
5.78549e-20
1.84619e-18
4.94018e-17
1.14546e-15
2.29626e-14
4.05783e-13
5.0104e-12
-2.67905e-39
-2.24513e-37
-9.50287e-36
-2.67878e-34
-5.63962e-33
-9.41271e-32
-1.28786e-30
-1.46979e-29
-1.4024e-28
-1.09254e-27
-6.28504e-27
-1.53007e-26
-3.55803e-35
6.56206e-26
3.51343e-24
7.97526e-23
7.28274e-21
2.34777e-19
6.38372e-18
1.5003e-16
3.04334e-15
5.44595e-14
7.11029e-13
-1.66412e-42
-1.78004e-40
-9.53914e-39
-3.38034e-37
-8.85891e-36
-1.81758e-34
-3.00663e-33
-4.04007e-32
-4.29149e-31
-3.16445e-30
-5.94736e-30
-1.00251e-38
9.61886e-29
6.10232e-27
-3.50489e-24
1.40889e-23
6.74814e-22
2.22148e-20
6.23651e-19
1.51134e-17
3.15968e-16
5.82489e-15
8.10822e-14
-3.98974e-46
-5.44585e-44
-3.62422e-42
-1.56608e-40
-4.91262e-39
-1.17469e-37
-2.14736e-36
-2.77276e-35
-1.60669e-34
-1.17175e-44
-3.72399e-42
8.22588e-32
6.37274e-30
4.13521e-28
1.47744e-27
1.08374e-24
4.56404e-23
1.57754e-21
4.6572e-20
1.18572e-18
2.60462e-17
5.04007e-16
7.46735e-15
-2.04468e-51
-3.1786e-49
-2.18069e-47
-7.99303e-46
-1.15638e-44
-2.1666e-57
-2.68353e-54
-1.69397e-51
-7.04608e-49
2.60648e-37
2.99193e-35
2.91247e-33
2.38208e-31
-2.50272e-28
9.83998e-28
5.35362e-26
2.32437e-24
8.62171e-23
2.73875e-21
7.45241e-20
1.73574e-18
3.56963e-17
5.96315e-16
0
0
0
0
-1.07786e-60
2.19485e-48
6.35771e-46
1.45501e-43
2.70224e-41
4.05352e-39
5.06199e-37
5.23621e-35
-1.07976e-31
3.86746e-31
2.49375e-29
1.36166e-27
6.36862e-26
2.61582e-24
9.05383e-23
2.69153e-21
6.88305e-20
1.52385e-18
2.83316e-17
1.21798e-66
6.66265e-63
1.31335e-59
1.09772e-56
6.30385e-54
2.71445e-51
9.1709e-49
2.43298e-46
5.41562e-44
1.00136e-41
-4.41995e-39
-1.5456e-35
2.63586e-35
2.43073e-33
1.90258e-31
1.32404e-30
7.25096e-28
3.53409e-26
1.47387e-24
5.27888e-23
1.62708e-21
4.32543e-20
9.60997e-19
3.67934e-72
1.93939e-67
4.47788e-64
5.20859e-61
4.06694e-58
2.40964e-55
-4.76129e-51
-1.54712e-48
-4.0952e-46
-3.21644e-42
-5.02605e-40
2.39992e-40
3.56719e-38
4.45585e-36
-9.42908e-33
3.45598e-32
3.15377e-30
2.02294e-28
1.10628e-26
5.17436e-25
2.07603e-23
7.16987e-22
1.9759e-20
0
-5.8462e-71
-4.89365e-67
-1.02312e-63
-1.19269e-60
-8.6972e-56
-4.73202e-53
-2.03833e-50
-6.98209e-48
1.05408e-49
3.79783e-47
1.13881e-44
2.84508e-42
5.93123e-40
-4.33027e-36
1.53319e-35
1.88841e-33
1.89961e-31
1.66119e-29
1.23752e-27
7.83258e-26
4.27517e-24
1.55259e-22
-4.72748e-79
-4.42384e-75
-3.80428e-71
-1.1903e-67
-2.19008e-64
2.61654e-72
6.05166e-69
1.14048e-65
1.77797e-62
-6.82634e-59
-3.76939e-56
-4.93842e-50
-5.74319e-47
-3.67971e-41
-6.26234e-42
-1.33948e-39
-7.16954e-37
-1.00838e-34
-1.00544e-32
-8.03316e-31
-3.23244e-29
1.15746e-28
-5.64453e-25
0
0
0
4.75618e-95
-3.59135e-88
-1.41212e-83
-1.19396e-79
-5.39795e-76
-2.98907e-69
-6.80624e-66
-3.75318e-60
-1.53613e-56
-1.48168e-51
-1.48632e-50
-9.89302e-48
-6.33919e-45
-2.52077e-42
-7.15122e-40
-1.81265e-37
-3.46543e-35
-4.57038e-33
-8.32172e-32
-4.02598e-28
0.869385
0.0254391
4.43181e-05
1.43852e-05
0.999823
0.604567
0.000621204
4.43179e-05
0.999977
0.999034
0.758337
0.103569
0.999666
0.999376
0.997242
0.849376
0.999376
0.997242
0.99173
0.988354
0.192319
0.571427
0.985393
0.979042
0.00117994
0.013625
0.124147
0.611842
0.000240493
0.000284078
0.000570172
0.0243143
5.78019e-05
3.10643e-05
6.74044e-05
0.000163297
9.74515e-07
2.80623e-06
6.01086e-06
1.8078e-05
5.42483e-07
5.36598e-07
1.50107e-06
3.30549e-06
4.98898e-07
6.6134e-07
8.25655e-07
1.51312e-06
3.8081e-07
1.03447e-05
1.07374e-05
4.98698e-06
8.12197e-09
7.28137e-06
1.29411e-05
6.02807e-05
1.12287e-08
8.07847e-06
1.32054e-05
0.000177968
1.30977e-08
4.03342e-06
1.03603e-05
2.96877e-05
1.29835e-08
1.64609e-08
6.92257e-05
4.55548e-05
5.77453e-09
2.0775e-06
7.39092e-05
2.77484e-05
5.26647e-08
1.2247e-07
5.73246e-06
1.81061e-05
1.18569e-07
9.17375e-08
1.18569e-07
0.000111916
5.52283e-08
6.48079e-08
2.78935e-06
0.000116083
2.28989e-08
3.34373e-07
3.29575e-07
5.34901e-05
3.2174e-08
2.81152e-07
7.87374e-07
2.44072e-06
1.23537e-08
4.68518e-08
1.28691e-06
1.29249e-06
7.16072e-09
4.19526e-08
7.00494e-07
1.32248e-05
4.93255e-09
3.52969e-08
3.68427e-07
7.75289e-06
3.33385e-09
2.63497e-08
2.56357e-07
4.33793e-06
2.61916e-09
2.23206e-08
2.5654e-07
2.7122e-06
1.74833e-09
1.57345e-08
1.85953e-07
1.98912e-06
8.63445e-10
9.89493e-09
1.21666e-07
1.20718e-06
3.13634e-10
3.50002e-09
4.20337e-08
4.09622e-07
6.41581e-11
7.03206e-10
8.33562e-09
8.07127e-08
9.09859e-12
9.98067e-11
1.18976e-09
1.15967e-08
1.06286e-12
1.18971e-11
1.42026e-10
1.4368e-09
1.01539e-13
1.10866e-12
1.41775e-11
1.56053e-10
8.20492e-15
1.02552e-13
1.59149e-12
3.20546e-11
4.6451e-16
8.36463e-15
3.3016e-13
1.0012e-11
1.96505e-17
4.68596e-16
1.85625e-14
1.01779e-12
5.47575e-19
1.7239e-17
1.08123e-15
6.9536e-14
7.67367e-21
3.7019e-19
5.8857e-17
3.77463e-15
7.46617e-24
1.18253e-21
1.68031e-18
1.53154e-16
-1.57238e-27
-1.14059e-27
2.64391e-21
1.28559e-18
1.53323e-06
5.19595e-07
1.96283e-07
3.05221e-08
4.06913e-09
4.29828e-10
3.63814e-11
2.40125e-12
1.30903e-13
1.18243e-14
2.37808e-15
1.56963e-16
5.91842e-18
1.91473e-19
3.78267e-21
1.22174e-22
3.28627e-24
3.47054e-26
5.20177e-28
8.60561e-05
4.83855e-06
2.72565e-06
4.46042e-07
6.37647e-08
7.51121e-09
7.15754e-10
5.42073e-11
3.30006e-12
2.0938e-13
1.18756e-13
1.28873e-14
4.67135e-16
1.63012e-17
3.75713e-19
5.92301e-21
1.63902e-22
3.29286e-24
2.77491e-26
0.000346344
7.23568e-05
6.44538e-05
1.04026e-05
1.58997e-06
2.00821e-07
2.12769e-08
1.89151e-09
1.34874e-10
9.11209e-12
6.7502e-13
1.73382e-13
2.21702e-14
8.96e-16
1.22109e-17
4.27955e-19
1.5757e-20
3.13906e-22
3.0781e-24
0.343482
0.0272116
0.00110588
0.000187048
3.14257e-05
4.42754e-06
5.19221e-07
5.66442e-08
4.57285e-09
3.43534e-10
2.25983e-11
1.18532e-12
8.67343e-14
7.01196e-15
3.68156e-16
1.47601e-17
7.56441e-19
2.15412e-20
2.54561e-22
0.971061
0.845306
0.259454
0.0127393
0.000464735
6.97522e-05
9.16679e-06
1.16647e-06
1.28801e-07
1.04283e-08
7.44067e-10
4.41741e-11
1.3928e-12
3.35692e-14
1.02496e-14
6.94602e-16
2.9378e-17
1.0676e-18
1.02445e-20
0.965383
0.959637
0.921819
0.495959
0.0289274
0.000773864
0.000127799
1.98329e-05
2.51101e-06
2.51483e-07
2.00869e-08
1.58383e-09
9.48647e-11
3.3032e-12
6.71758e-14
2.28002e-14
1.61839e-15
3.58368e-17
4.70485e-19
0.959637
0.95057
0.92852
0.905686
0.540533
0.0412656
0.00135691
0.000256384
4.17595e-05
4.51536e-06
4.32207e-07
4.46246e-08
4.04172e-09
3.11035e-10
1.89983e-11
9.40362e-13
6.78355e-14
9.68473e-16
4.78032e-17
0.214996
0.793763
0.913735
0.888453
0.85317
0.444682
0.0290092
0.00238114
0.000405445
5.78507e-05
7.39371e-06
9.49359e-07
1.10792e-07
1.13771e-08
9.90755e-10
6.9061e-11
3.59245e-12
1.74983e-14
3.80456e-15
0.000398215
0.0818402
0.596346
0.863575
0.832575
0.73599
0.261372
0.0129548
0.00282127
0.000532874
8.55825e-05
1.30485e-05
1.81588e-06
2.21783e-07
2.29096e-08
1.67203e-09
6.88276e-11
4.1143e-13
1.35613e-13
2.26361e-05
0.00014189
0.0872795
0.654288
0.801574
0.766279
0.498052
0.0859299
0.00750888
0.00177526
0.000373539
6.85928e-05
1.0658e-05
1.35993e-06
1.3678e-07
1.01157e-08
4.61551e-10
5.84373e-12
2.2982e-12
5.27944e-06
8.04804e-06
0.000142046
0.234969
0.735892
0.733989
0.667423
0.204555
0.0138937
0.0036452
0.000852096
0.000172505
2.93621e-05
4.07549e-06
4.43889e-07
3.5603e-08
1.80857e-09
4.3807e-11
1.71963e-11
3.30821e-06
5.29352e-06
8.05812e-06
0.00771879
0.518074
0.711559
0.654585
0.3143
0.0317904
0.00539078
0.00135511
0.000295029
5.37398e-05
7.94825e-06
9.22633e-07
7.89809e-08
4.35507e-09
1.71197e-10
7.40001e-11
5.24362e-06
5.83702e-06
5.96914e-06
1.97296e-05
0.242073
0.65456
0.611942
0.418286
0.0565771
0.00653446
0.00170149
0.000384482
7.26832e-05
1.11612e-05
1.34472e-06
1.18982e-07
6.98004e-09
3.53072e-10
2.02935e-10
5.55114e-05
1.07004e-05
1.44453e-05
2.06382e-05
0.100976
0.546186
0.595123
0.476277
0.0944197
0.00766923
0.0019766
0.000443263
8.34394e-05
1.28325e-05
1.55771e-06
1.38644e-07
8.05265e-09
5.04545e-10
3.87391e-10
0.000174499
6.86026e-05
1.94026e-05
7.84181e-05
0.10637
0.517603
0.56648
0.48971
0.124727
0.00814934
0.00207599
0.000452683
8.2702e-05
1.24477e-05
1.49359e-06
1.347e-07
7.91603e-09
5.01637e-10
3.9632e-10
6.7709e-05
0.000228893
0.000820249
0.0105277
0.255133
0.51607
0.531506
0.454814
0.113874
0.00756812
0.00186879
0.000387957
6.80001e-05
9.96861e-06
1.17941e-06
1.05768e-07
6.46531e-09
3.79222e-10
2.46987e-10
0.000196291
0.000929562
0.010993
0.105871
0.460332
0.484955
0.497449
0.316077
0.0413
0.00532499
0.00128627
0.000267186
4.72686e-05
6.82493e-06
7.70902e-07
6.92208e-08
4.2499e-09
2.46792e-10
1.38116e-10
2.83013e-05
0.00985637
0.088935
0.362478
0.418217
0.412142
0.279237
0.0700383
0.0161814
0.00339506
0.000987399
0.000227997
3.65979e-05
4.69964e-06
4.98694e-07
4.07494e-08
2.43156e-09
1.38116e-10
7.31547e-11
2.08958e-05
0.00483949
0.241664
0.333174
0.287907
0.165748
0.030045
0.0104463
0.00590156
0.00190178
0.000728643
0.000199989
3.00334e-05
3.56844e-06
3.7983e-07
3.66517e-08
2.73906e-09
1.77647e-10
3.75309e-11
2.83013e-05
3.95698e-05
0.225916
0.296512
0.130435
0.0233478
0.00994458
0.00410564
0.00168096
0.000681506
0.000243078
0.000100659
1.85088e-05
2.28029e-06
2.77375e-07
2.9742e-08
2.46429e-09
1.78201e-10
1.86774e-11
4.80723e-05
6.34032e-05
0.152885
0.28429
0.117838
0.00997366
0.00411594
0.00167712
0.000651029
0.000225872
6.46769e-05
1.90618e-05
7.80106e-06
1.25585e-06
1.50346e-07
1.64411e-08
1.58547e-09
1.52046e-10
9.14178e-12
0.000174276
7.61473e-05
0.10387
0.2561
0.226318
0.0164206
0.00168636
0.000659716
0.000240707
7.94374e-05
2.4589e-05
6.08227e-06
1.5866e-06
5.12583e-07
7.62765e-08
8.53677e-09
9.29082e-10
9.57362e-11
4.4576e-12
0.000457454
0.000105595
0.02327
0.225244
0.217159
0.162515
0.00368549
0.000285695
9.17076e-05
2.99447e-05
9.2041e-06
2.28271e-06
4.31075e-07
8.0004e-08
2.80331e-08
4.5192e-09
5.4783e-10
5.49198e-11
2.21257e-12
0.000415772
0.00016463
0.000255261
0.196078
0.212773
0.210958
0.0998042
0.00105986
0.000131853
2.03585e-05
4.33282e-06
1.0411e-06
2.22492e-07
3.84411e-08
5.08903e-09
2.00007e-09
3.28229e-10
3.04072e-11
1.10729e-12
1.38122e-05
0.00134849
0.000929112
0.1276
0.210958
0.205643
0.202151
0.0296028
0.000976449
0.000131965
1.78513e-05
1.8532e-06
1.90391e-07
2.16046e-08
2.54368e-09
3.52935e-10
1.75759e-10
1.65185e-11
5.49591e-13
4.56178e-05
0.00137418
0.00197624
0.011383
0.20545
0.202151
0.201958
0.183223
0.0254611
0.000681438
8.87539e-05
7.934e-06
5.01233e-07
2.63546e-08
1.58088e-09
1.67454e-10
8.04068e-11
8.12365e-12
2.69291e-13
1.65996e-05
0.000484682
0.0038938
0.00403195
0.13442
0.201958
0.198375
0.196163
0.0357686
0.000909191
0.0001142
9.49749e-06
5.42809e-07
2.33198e-08
1.03755e-09
1.51379e-10
4.3657e-11
3.77549e-12
1.23092e-13
1.28522e-05
8.52896e-05
0.00221137
0.00754807
0.0191447
0.136569
0.159984
0.100815
0.0283991
0.00196299
0.000324313
4.92052e-05
4.40232e-06
2.61445e-07
1.03993e-08
3.39023e-10
2.70273e-11
1.64289e-12
4.84899e-14
1.4828e-05
9.50003e-05
0.000521651
0.004015
0.0069673
0.0196541
0.0264139
0.00725837
0.00983509
0.00237027
0.000327341
3.9254e-05
2.89327e-06
1.56604e-07
6.1201e-09
2.56753e-10
1.17239e-11
6.21413e-13
1.7563e-14
9.30478e-06
5.54404e-05
0.000199233
0.00198674
0.00309467
0.00205095
0.00262198
0.00210355
0.000733578
0.000215764
2.85613e-05
6.87231e-07
-3.16854e-09
-1.76519e-09
-5.58887e-11
2.53648e-12
3.65168e-12
2.23071e-13
6.56002e-15
3.13556e-06
1.33996e-05
4.21133e-05
0.000558092
0.000767615
0.000589908
0.000696025
0.000610292
0.000272276
4.66503e-05
4.35391e-06
1.52801e-07
-3.94219e-09
-7.89608e-10
-2.893e-11
1.21005e-12
1.34004e-12
8.30852e-14
2.39172e-15
5.74693e-07
2.16402e-06
7.22879e-06
9.60617e-05
0.000180664
0.000175062
0.000171263
0.00016282
8.93501e-05
1.62124e-05
1.54521e-06
5.7373e-08
-1.42182e-09
-2.29443e-10
-7.55939e-12
1.77554e-12
4.74936e-13
3.02571e-14
8.42228e-16
8.14744e-08
3.26825e-07
1.18966e-06
1.54824e-05
3.2307e-05
3.68513e-05
3.93673e-05
3.99189e-05
2.44569e-05
5.12841e-06
5.19259e-07
2.3235e-08
-2.01079e-10
-6.5466e-11
-1.03512e-12
1.6779e-12
1.6343e-13
1.07753e-14
2.86315e-16
1.04182e-08
4.67355e-08
2.14049e-07
1.64815e-06
3.63724e-06
6.07481e-06
8.53259e-06
9.1872e-06
5.98642e-06
1.50267e-06
1.61911e-07
8.44058e-09
5.14515e-11
-1.54351e-11
2.50717e-13
7.8447e-13
5.44043e-14
3.74057e-15
9.39573e-17
1.32878e-09
6.75492e-09
3.75479e-08
1.23758e-07
4.02684e-07
1.00433e-06
1.76363e-06
2.00248e-06
1.38085e-06
4.11418e-07
4.71438e-08
2.76327e-09
4.84734e-11
-1.81408e-12
6.18685e-13
2.50305e-13
1.76391e-14
1.26269e-15
2.97826e-17
1.71519e-10
1.04169e-09
4.60022e-09
1.9796e-08
7.01038e-08
1.88239e-07
3.50584e-07
4.20301e-07
3.05313e-07
1.07521e-07
1.30225e-08
8.57489e-10
2.29253e-11
1.08983e-12
7.46821e-13
7.8015e-14
5.57416e-15
4.13791e-16
9.13382e-18
4.08393e-11
1.17856e-10
6.2678e-10
2.99072e-09
1.1644e-08
3.3948e-08
6.75226e-08
8.57933e-08
6.613e-08
2.61846e-08
3.45693e-09
2.52402e-10
1.19026e-11
1.71216e-12
5.19351e-13
2.37633e-14
1.71746e-15
1.31588e-16
2.71692e-18
6.26811e-12
1.80295e-11
7.96285e-11
4.29003e-10
1.861e-09
5.93224e-09
1.26885e-08
1.71562e-08
1.40412e-08
6.00392e-09
8.89329e-10
7.24282e-11
5.11067e-12
1.50913e-12
1.18668e-13
7.07201e-15
5.16452e-16
4.06425e-17
7.8634e-19
3.37584e-13
1.8479e-12
9.43119e-12
5.87979e-11
2.89555e-10
1.01677e-09
2.34927e-09
3.38316e-09
2.93851e-09
1.36004e-09
2.24336e-10
2.38125e-11
5.32874e-12
7.10778e-13
3.40458e-14
2.06709e-15
1.5187e-16
1.22161e-17
2.22838e-19
1.23644e-14
1.09853e-13
1.0269e-12
7.67604e-12
4.53814e-11
1.84219e-10
4.33919e-10
6.7318e-10
6.1435e-10
3.06092e-10
7.09939e-11
1.49289e-11
3.12103e-12
1.70924e-13
9.74243e-15
5.95149e-16
4.38141e-17
3.58378e-18
5.03581e-20
3.85642e-16
7.24852e-15
9.18475e-14
9.18033e-13
9.60895e-12
4.37553e-11
9.8654e-11
1.84644e-10
1.64732e-10
7.34992e-11
2.59617e-11
6.73363e-12
6.65188e-13
4.86761e-14
2.82549e-15
1.73404e-16
1.27385e-17
1.05403e-18
1.41258e-20
8.8326e-18
3.96528e-16
7.25941e-15
9.18475e-14
8.66461e-13
6.72529e-12
3.25174e-11
9.27185e-11
7.34992e-11
2.02773e-11
4.96768e-12
8.64622e-13
9.3537e-14
7.13108e-15
4.24785e-16
2.64846e-17
1.95363e-18
1.64809e-19
1.41258e-20
)
;

boundaryField
{
    leftWall
    {
        type            zeroGradient;
    }
    rightWall
    {
        type            zeroGradient;
    }
    lowerWall
    {
        type            zeroGradient;
    }
    atmosphere
    {
        type            inletOutlet;
        inletValue      uniform 0;
        value           nonuniform List<scalar> 
46
(
0
0
0
0
0
0
0
0
0
0
0
0
0
0
0
0
0
0
0
0
0
0
0
0
0
0
1.28559e-18
8.8326e-18
3.96528e-16
7.25941e-15
9.18475e-14
8.66461e-13
6.72529e-12
3.25174e-11
9.27185e-11
7.34992e-11
2.02773e-11
4.96768e-12
8.64622e-13
9.3537e-14
7.13108e-15
4.24785e-16
2.64846e-17
1.95363e-18
1.64809e-19
1.41258e-20
)
;
    }
    defaultFaces
    {
        type            empty;
    }
}


// ************************************************************************* //
