/*--------------------------------*- C++ -*----------------------------------*\
| =========                 |                                                 |
| \\      /  F ield         | OpenFOAM: The Open Source CFD Toolbox           |
|  \\    /   O peration     | Version:  2206                                  |
|   \\  /    A nd           | Website:  www.openfoam.com                      |
|    \\/     M anipulation  |                                                 |
\*---------------------------------------------------------------------------*/
FoamFile
{
    version     2.0;
    format      ascii;
    arch        "LSB;label=32;scalar=64";
    class       surfaceScalarField;
    location    "0.275";
    object      alphaPhi0.water;
}
// * * * * * * * * * * * * * * * * * * * * * * * * * * * * * * * * * * * * * //

dimensions      [0 3 -1 0 0 0 0];

oriented        oriented;

internalField   nonuniform List<scalar> 
4432
(
-1.59922e-07
1.59922e-07
4.02521e-06
-4.18513e-06
1.01772e-05
-6.15196e-06
1.64027e-05
-6.22555e-06
2.18947e-05
-5.49201e-06
2.65934e-05
-4.69869e-06
3.07202e-05
-4.12675e-06
3.45098e-05
-3.78966e-06
3.81079e-05
-3.59804e-06
4.1553e-05
-3.44516e-06
4.4797e-05
-3.24393e-06
4.77284e-05
-2.93144e-06
5.0191e-05
-2.46267e-06
5.19508e-05
-1.75978e-06
5.25816e-05
-6.30757e-07
5.12269e-05
1.35468e-06
4.64079e-05
4.81901e-06
3.65457e-05
9.86219e-06
2.09321e-05
1.56137e-05
1.66101e-06
1.92711e-05
-1.06364e-05
1.417e-05
-1.40533e-05
3.20584e-06
-1.42641e-05
-7.27638e-08
2.32685e-07
4.142e-06
-8.3999e-06
1.03065e-05
-1.23164e-05
1.65186e-05
-1.24377e-05
2.19937e-05
-1.09672e-05
2.66875e-05
-9.39251e-06
3.08299e-05
-8.2691e-06
3.46547e-05
-7.61444e-06
3.83009e-05
-7.24424e-06
4.18016e-05
-6.9459e-06
4.51059e-05
-6.54825e-06
4.81048e-05
-5.93031e-06
5.06397e-05
-4.99759e-06
5.25303e-05
-3.65038e-06
5.36712e-05
-1.77162e-06
5.41359e-05
8.89974e-07
5.40575e-05
4.89743e-06
5.22747e-05
1.1645e-05
4.57535e-05
2.21348e-05
3.11679e-05
3.38567e-05
1.035e-05
3.53715e-05
-1.24411e-06
1.59886e-05
-1.76479e-05
5.13241e-08
1.8136e-07
4.32486e-06
-1.26734e-05
1.04693e-05
-1.84608e-05
1.65959e-05
-1.85643e-05
2.19784e-05
-1.63496e-05
2.66118e-05
-1.4026e-05
3.07402e-05
-1.23974e-05
3.45919e-05
-1.14661e-05
3.82918e-05
-1.09442e-05
4.18609e-05
-1.0515e-05
4.52422e-05
-9.92955e-06
4.83264e-05
-9.01454e-06
5.09675e-05
-7.63875e-06
5.29925e-05
-5.67532e-06
5.41861e-05
-2.96518e-06
5.4345e-05
7.31029e-07
5.34817e-05
5.76076e-06
5.22648e-05
1.28619e-05
5.10443e-05
2.33552e-05
4.69883e-05
3.79128e-05
3.4645e-05
4.77148e-05
1.59398e-05
3.46879e-05
-2.54491e-06
2.08227e-07
-2.68673e-08
4.59992e-06
-1.70651e-05
1.07096e-05
-2.45705e-05
1.67076e-05
-2.45623e-05
2.19579e-05
-2.15999e-05
2.65139e-05
-1.8582e-05
3.06345e-05
-1.65181e-05
3.45357e-05
-1.53673e-05
3.83207e-05
-1.47293e-05
4.19933e-05
-1.41875e-05
4.54888e-05
-1.34251e-05
4.86992e-05
-1.22249e-05
5.14858e-05
-1.04254e-05
5.36859e-05
-7.87538e-06
5.51155e-05
-4.39481e-06
5.55749e-05
2.71712e-07
5.48795e-05
6.45615e-06
5.31745e-05
1.45669e-05
5.15974e-05
2.49324e-05
5.07405e-05
3.87696e-05
4.49603e-05
5.34951e-05
2.70577e-05
5.25721e-05
2.39585e-05
4.41878e-07
-4.68746e-07
4.95242e-06
-2.15757e-05
1.09983e-05
-3.06164e-05
1.68247e-05
-3.03887e-05
2.19105e-05
-2.66857e-05
2.63793e-05
-2.30508e-05
3.05024e-05
-2.06412e-05
3.4474e-05
-1.93389e-05
3.8369e-05
-1.86243e-05
4.21707e-05
-1.79892e-05
4.58067e-05
-1.7061e-05
4.91712e-05
-1.55894e-05
5.21357e-05
-1.33899e-05
5.45527e-05
-1.02925e-05
5.62605e-05
-6.1026e-06
5.70936e-05
-5.61336e-07
5.68963e-05
6.6534e-06
5.5558e-05
1.59052e-05
5.32414e-05
2.72489e-05
5.12772e-05
4.07338e-05
4.74179e-05
5.73544e-05
3.2179e-05
6.78107e-05
5.55881e-05
7.34649e-07
-1.2034e-06
5.36363e-06
-2.62047e-05
1.13113e-05
-3.6564e-05
1.69273e-05
-3.60047e-05
2.18272e-05
-3.15856e-05
2.62093e-05
-2.74329e-05
3.03494e-05
-2.47813e-05
3.44109e-05
-2.34004e-05
3.84345e-05
-2.26479e-05
4.23822e-05
-2.19369e-05
4.61752e-05
-2.0854e-05
4.97132e-05
-1.91274e-05
5.288e-05
-1.65567e-05
5.5545e-05
-1.29575e-05
5.75661e-05
-8.12367e-06
5.87957e-05
-1.79091e-06
5.90839e-05
6.36514e-06
5.83145e-05
1.66746e-05
5.61708e-05
2.93926e-05
5.29045e-05
4.40001e-05
4.82183e-05
6.20406e-05
3.44863e-05
8.15426e-05
8.95264e-05
1.07251e-06
-2.2759e-06
5.81841e-06
-3.09506e-05
1.16302e-05
-4.23758e-05
1.70039e-05
-4.13783e-05
2.17093e-05
-3.6291e-05
2.60155e-05
-3.17392e-05
3.01914e-05
-2.89571e-05
3.43598e-05
-2.75688e-05
3.85246e-05
-2.68127e-05
4.26278e-05
-2.60401e-05
4.65885e-05
-2.48147e-05
5.03163e-05
-2.28553e-05
5.37094e-05
-1.99498e-05
5.66508e-05
-1.58989e-05
5.90129e-05
-1.04857e-05
6.0659e-05
-3.43703e-06
6.14354e-05
5.58877e-06
6.12151e-05
1.68949e-05
5.96841e-05
3.09237e-05
5.62745e-05
4.74096e-05
5.05263e-05
6.77889e-05
3.83946e-05
9.36743e-05
0.000127379
1.44024e-06
-3.71614e-06
6.29537e-06
-3.58057e-05
1.19373e-05
-4.80177e-05
1.70549e-05
-4.6496e-05
2.15758e-05
-4.08118e-05
2.58274e-05
-3.59908e-05
3.00589e-05
-3.31886e-05
3.43473e-05
-3.18572e-05
3.86605e-05
-3.11259e-05
4.2926e-05
-3.03056e-05
4.70678e-05
-2.89565e-05
5.10098e-05
-2.67973e-05
5.46617e-05
-2.36017e-05
5.79119e-05
-1.9149e-05
6.06424e-05
-1.32163e-05
6.27245e-05
-5.51918e-06
6.39938e-05
4.31949e-06
6.43207e-05
1.6568e-05
6.34896e-05
3.17547e-05
6.08795e-05
5.00198e-05
5.49553e-05
7.37132e-05
4.29239e-05
0.000105706
0.000169999
2.85109e-21
-2.45878e-20
2.39276e-22
-1.19931e-21
2.80364e-23
-8.76334e-23
3.33907e-24
-1.07759e-23
5.00408e-25
-9.78645e-25
3.09845e-26
-1.8266e-25
1.4188e-27
-7.59663e-27
4.68072e-29
-1.61311e-28
9.17498e-31
-1.97451e-31
5.1702e-32
1.33544e-32
2.39375e-33
1.26665e-33
1.00573e-34
8.90249e-35
3.72388e-36
5.09682e-36
1.15977e-37
2.45213e-37
2.86837e-39
9.74408e-39
5.15954e-41
3.10508e-40
7.63766e-43
7.41663e-42
2.31893e-43
1.15847e-43
2.3152e-45
1.24798e-19
-6.87337e-19
1.90909e-20
-1.66731e-19
2.3084e-21
-1.54177e-20
3.34464e-22
-1.27351e-21
5.79652e-23
-1.126e-22
3.89838e-24
-2.25522e-23
1.81887e-25
-1.05375e-24
5.8317e-27
-2.36049e-26
1.37174e-28
-9.84116e-29
9.77307e-30
5.78306e-30
3.87739e-31
6.38592e-31
1.73244e-32
5.04201e-32
6.99851e-34
3.20203e-33
2.39542e-35
1.70316e-34
6.54051e-37
7.5058e-36
1.3036e-38
2.64924e-37
1.61686e-40
7.02131e-39
1.31709e-42
1.2302e-40
1.08983e-42
5.51515e-18
-2.1239e-17
9.92716e-19
-7.94774e-18
1.35376e-19
-1.1376e-18
1.6836e-20
-1.0191e-19
3.12371e-21
-7.40998e-21
2.34629e-22
-1.29818e-21
1.20056e-23
-7.09358e-23
4.03592e-25
-1.82893e-24
8.79238e-27
-1.01365e-26
4.84895e-28
5.32895e-28
2.3277e-29
5.64892e-29
1.02953e-30
4.48494e-30
4.08682e-32
2.83363e-31
1.37386e-33
1.49243e-32
3.67986e-35
6.49288e-34
7.77781e-37
2.25621e-35
1.17756e-38
5.8963e-37
1.16858e-40
1.02225e-38
9.01019e-41
1.63321e-16
-5.22101e-16
2.34521e-17
-2.90691e-17
5.04339e-18
-2.13562e-17
6.2447e-19
-4.2186e-18
1.08987e-19
-3.72364e-19
9.38405e-21
-4.81081e-20
5.46936e-22
-3.18816e-21
1.96969e-23
-9.58302e-23
4.00597e-25
-6.30708e-25
1.97481e-26
3.11006e-26
1.02575e-27
3.20663e-27
4.54715e-29
2.58001e-28
1.80825e-30
1.64351e-29
6.08836e-32
8.70353e-31
1.78384e-33
3.79894e-32
4.30371e-35
1.32972e-33
6.75525e-37
3.50468e-35
6.79583e-39
6.10179e-37
5.4062e-39
3.58743e-15
-1.063e-14
5.30804e-16
1.66148e-15
1.2272e-16
8.78736e-17
1.8743e-17
-1.83407e-17
2.83142e-18
-8.93287e-18
2.82088e-19
-1.25259e-18
1.92536e-20
-1.06539e-19
7.60953e-22
-3.82431e-21
1.49498e-23
-2.9123e-23
6.93041e-25
1.39292e-24
3.80928e-26
1.41828e-25
1.70355e-27
1.16648e-26
6.8517e-29
7.54348e-28
2.43614e-30
4.04988e-29
8.27195e-32
1.79531e-30
2.02713e-33
6.4278e-32
3.27877e-35
1.71874e-33
3.32554e-37
3.03815e-35
2.73485e-37
6.20403e-14
-2.28071e-13
1.05613e-14
3.61576e-14
3.61965e-15
1.55017e-15
3.27677e-16
2.10099e-15
5.90045e-17
1.20312e-16
6.79565e-18
-2.23671e-17
5.55816e-19
-2.77185e-18
2.49323e-20
-1.2419e-19
4.92418e-22
-1.11413e-21
2.20749e-23
5.26876e-23
1.27549e-24
5.38265e-24
5.77553e-26
4.54648e-25
2.363e-27
3.00089e-26
9.79917e-29
1.64122e-27
3.39233e-30
7.49606e-29
8.56329e-32
2.74053e-30
1.43328e-33
7.48386e-32
1.46657e-35
1.35102e-33
1.24226e-35
8.93228e-13
-3.46684e-12
1.85389e-13
5.10915e-13
7.84437e-14
-8.6793e-15
7.94868e-15
5.50603e-14
1.21501e-15
4.37802e-15
1.33656e-16
-7.08916e-17
1.32419e-17
-5.84288e-17
7.12765e-19
-3.55065e-18
1.49287e-20
-4.01109e-20
6.59248e-22
1.76498e-21
3.99344e-23
1.84572e-22
1.8368e-24
1.60589e-23
8.17641e-26
1.08688e-24
3.65099e-27
6.11762e-26
1.29983e-28
2.88056e-27
3.39169e-30
1.08073e-28
5.87893e-32
3.02809e-30
6.08121e-34
5.6087e-32
5.28997e-34
1.35705e-11
-4.54725e-11
3.13989e-12
8.11825e-12
1.71929e-12
-3.38859e-13
1.72593e-13
1.33863e-12
2.88004e-14
1.14149e-13
3.91416e-15
1.09627e-14
3.65067e-16
6.89942e-16
1.94843e-17
2.13878e-17
4.26211e-19
7.12733e-19
1.87833e-20
5.19435e-20
1.19455e-21
5.84268e-21
5.60949e-23
5.273e-22
2.78322e-24
3.67631e-23
1.29263e-25
2.15046e-24
4.76051e-27
1.04551e-25
1.28962e-28
4.04771e-27
2.32036e-30
1.16963e-28
2.4369e-32
2.23345e-30
2.1688e-32
4.25946e-06
-7.9756e-06
1.49477e-05
-4.6494e-05
2.63802e-05
-5.94502e-05
3.64216e-05
-5.65374e-05
4.55154e-05
-4.99056e-05
5.44981e-05
-4.49735e-05
6.37645e-05
-4.2455e-05
7.3318e-05
-4.14107e-05
8.30016e-05
-4.08096e-05
9.26479e-05
-3.99518e-05
0.000102131
-3.84395e-05
0.000111322
-3.59883e-05
0.000120038
-3.23182e-05
0.000128053
-2.71636e-05
0.000135202
-2.03654e-05
0.000141304
-1.16209e-05
0.000145928
-3.04274e-07
0.000148628
1.38673e-05
0.000149275
3.11082e-05
0.000147626
5.16683e-05
0.000143681
7.76586e-05
0.000144676
0.000104711
0.000159336
0.000155341
5.96926e-06
-1.39449e-05
1.69873e-05
-5.75121e-05
2.75403e-05
-7.00032e-05
3.65638e-05
-6.55609e-05
4.5162e-05
-5.85038e-05
5.42262e-05
-5.40377e-05
6.39302e-05
-5.2159e-05
7.40777e-05
-5.15582e-05
8.44312e-05
-5.1163e-05
9.48363e-05
-5.03569e-05
0.000105211
-4.88145e-05
0.00011543
-4.62067e-05
0.000125336
-4.22249e-05
0.000134797
-3.66236e-05
0.000143905
-2.94736e-05
0.000152719
-2.04346e-05
0.000160928
-8.51284e-06
0.000167511
7.28404e-06
0.000172651
2.59682e-05
0.00017682
4.74987e-05
0.000183018
7.1461e-05
0.000195199
9.25293e-05
0.000132006
0.000222533
7.72097e-06
-2.16658e-05
1.888e-05
-6.86711e-05
2.83959e-05
-7.95187e-05
3.64977e-05
-7.36625e-05
4.48263e-05
-6.68322e-05
5.41041e-05
-6.33153e-05
6.41822e-05
-6.22369e-05
7.46823e-05
-6.20578e-05
8.53389e-05
-6.18191e-05
9.60476e-05
-6.10652e-05
0.000106774
-5.95398e-05
0.000117489
-5.69209e-05
0.000128315
-5.30481e-05
0.000139461
-4.77674e-05
0.00015149
-4.15013e-05
0.000163707
-3.26525e-05
0.000174667
-1.94745e-05
0.000185784
-3.79713e-06
0.000193758
1.79938e-05
0.000200753
4.05031e-05
0.000209707
6.25072e-05
0.000220468
8.17688e-05
0.000105838
0.000246636
9.57216e-06
-3.1238e-05
2.04644e-05
-7.95624e-05
2.86696e-05
-8.77201e-05
3.59266e-05
-8.09164e-05
4.40852e-05
-7.4988e-05
5.34216e-05
-7.26493e-05
6.34198e-05
-7.22313e-05
7.3623e-05
-7.22546e-05
8.38682e-05
-7.20541e-05
9.42108e-05
-7.13954e-05
0.000104795
-7.01081e-05
0.00011615
-6.82457e-05
0.000129369
-6.62213e-05
0.000143257
-6.16216e-05
0.000157028
-5.26695e-05
0.000165573
-3.63697e-05
0.000169219
-1.88862e-05
0.000173771
-5.60197e-06
0.000188064
5.38613e-06
0.000206783
2.17288e-05
0.000223079
4.62111e-05
0.000234478
7.03695e-05
8.72359e-05
0.000253077
1.17652e-05
-4.30022e-05
2.172e-05
-8.94909e-05
2.80059e-05
-9.39674e-05
3.42972e-05
-8.71733e-05
4.21666e-05
-8.28252e-05
5.11836e-05
-8.16334e-05
6.05747e-05
-8.15695e-05
7.0107e-05
-8.16982e-05
8.01428e-05
-8.19563e-05
9.10899e-05
-8.21631e-05
0.000101594
-7.63053e-05
0.000106975
-6.01119e-05
0.000102032
-3.53091e-05
7.89017e-05
-1.1146e-05
5.3396e-05
-3.032e-06
3.40635e-05
-7.51216e-07
2.15247e-05
-1.7734e-07
1.90408e-05
-3.98258e-08
2.42195e-05
2.22363e-07
4.25195e-05
7.20411e-07
8.50645e-05
1.21133e-06
0.000149807
4.33095e-06
2.36856e-05
0.000211797
1.49563e-05
-5.79321e-05
2.31124e-05
-9.73563e-05
2.63179e-05
-9.68124e-05
3.16417e-05
-9.21561e-05
3.94648e-05
-9.03029e-05
4.84499e-05
-8.71224e-05
5.64631e-05
-7.78117e-05
6.21262e-05
-6.36986e-05
6.2849e-05
-4.66415e-05
5.47601e-05
-2.38817e-05
3.70158e-05
-4.06052e-06
2.04752e-05
-7.76286e-07
1.51077e-05
-1.60744e-07
4.00037e-06
-2.59888e-08
9.78751e-07
-7.7076e-09
2.31944e-07
-4.00994e-09
5.54933e-08
-8.61201e-10
1.50768e-08
1.44719e-09
2.36916e-07
1.08605e-08
1.0133e-06
-2.13352e-08
2.24772e-06
2.86146e-08
6.28811e-06
3.5519e-07
1.21021e-06
2.83539e-05
1.93133e-05
-6.45031e-05
1.96383e-05
-4.62273e-05
1.91568e-05
-3.67101e-05
2.18303e-05
-3.37197e-05
2.43401e-05
-2.76297e-05
2.34699e-05
-5.07547e-06
1.93282e-05
-4.31298e-07
1.34605e-05
-4.37254e-08
8.75929e-06
-5.3125e-09
5.02356e-06
-5.05582e-10
9.63338e-07
-1.00864e-10
1.88799e-07
-9.74371e-10
3.31217e-08
-3.74132e-09
1.27606e-08
-4.90306e-09
9.23831e-09
-4.05767e-09
7.60504e-09
-2.47009e-09
6.21739e-09
3.1613e-10
6.11784e-09
1.45156e-09
2.0571e-08
3.8305e-10
1.69748e-07
-5.5565e-08
3.48922e-07
-7.414e-08
7.62974e-07
-2.27001e-09
4.71539e-08
1.84696e-06
8.91109e-06
1.65736e-23
1.97409e-06
-7.26348e-23
2.04632e-06
-5.88268e-21
1.88908e-06
-3.29465e-19
2.48478e-06
-8.41513e-18
4.80962e-07
-1.84647e-16
4.9664e-08
-3.04944e-16
5.93866e-09
-3.04906e-15
6.26668e-10
-5.0472e-15
1.21105e-10
-5.89198e-15
2.29578e-11
-1.61757e-12
2.52404e-10
-9.65486e-10
2.27623e-09
-4.95078e-09
6.56084e-09
-7.83475e-09
1.00992e-08
-8.29864e-09
8.69747e-09
-1.40759e-09
7.53012e-09
1.32495e-09
7.25564e-09
1.39819e-09
3.55784e-07
-1.27539e-08
5.54919e-07
-1.00355e-07
6.05755e-07
-1.10226e-07
6.67854e-07
-7.50243e-08
1.01081e-08
3.90797e-07
-1.85121e-24
7.20351e-23
2.21047e-24
-7.66965e-23
2.76226e-22
-6.10445e-21
1.9201e-20
-3.44232e-19
5.35166e-19
-8.7015e-18
1.19694e-17
-1.01601e-16
4.49178e-17
-3.01301e-16
2.81368e-16
-3.00134e-15
9.03978e-16
-2.6814e-15
2.1981e-15
-4.47767e-15
6.64149e-12
-8.24685e-12
2.28446e-09
-3.24628e-09
1.81708e-08
-2.05737e-08
6.73892e-08
-3.74435e-08
4.74968e-08
-4.87073e-08
1.7216e-08
-4.54135e-09
1.48275e-08
3.33446e-09
1.47502e-08
1.38187e-09
4.16213e-07
-3.3826e-08
4.88892e-07
-1.25452e-07
5.21691e-07
-1.05271e-07
4.97254e-07
-3.59265e-08
-1.97191e-09
1.41892e-07
-1.50693e-24
6.68361e-23
1.13612e-23
-2.33085e-22
1.82497e-21
-1.62364e-20
1.3449e-19
-6.92929e-19
3.88397e-18
-1.89951e-17
6.10397e-17
-3.08176e-16
2.68689e-16
-1.16299e-15
1.63907e-15
-9.84584e-15
2.3753e-15
-3.40117e-15
1.57895e-14
-1.60159e-14
2.51574e-11
-3.3672e-11
2.20094e-08
-2.58914e-08
1.0222e-07
-5.07992e-08
9.32692e-08
-3.28887e-08
9.62209e-08
-4.93842e-08
3.03591e-08
-3.27387e-09
2.5864e-08
4.44037e-09
2.77182e-07
1.50375e-08
3.94338e-07
-6.04898e-08
4.11758e-07
-7.94885e-08
2.13346e-07
-6.33372e-08
1.09548e-08
-9.35348e-09
-1.14514e-09
8.98853e-09
-6.07402e-25
1.17219e-22
9.16829e-23
-9.72069e-22
1.46827e-20
-1.00459e-19
1.09584e-18
-5.82299e-18
3.09641e-17
-1.32566e-16
3.08776e-16
-1.00261e-15
1.0646e-15
-2.70872e-15
6.0258e-15
-2.23336e-14
9.25118e-15
-9.58267e-15
9.21371e-14
-9.86728e-14
2.52896e-10
-2.86423e-10
6.08023e-08
-3.70141e-08
9.49016e-08
-7.97507e-08
2.6037e-08
-2.43542e-08
2.00746e-08
-2.48867e-08
2.08698e-08
2.07443e-10
1.74063e-08
2.07868e-09
2.44322e-07
-1.24583e-08
2.88947e-07
-5.30019e-08
1.29985e-07
-3.79044e-08
1.04599e-08
-3.60109e-09
1.55096e-09
-7.43427e-10
-1.07379e-10
4.66427e-10
-6.50963e-24
2.01086e-22
2.1175e-22
-1.50463e-21
3.68072e-20
-2.0953e-19
3.52016e-18
-1.73143e-17
8.01019e-17
-3.29166e-16
4.33437e-16
-1.50443e-15
1.17032e-15
-3.4883e-15
7.05159e-15
-2.77902e-14
2.50449e-14
-3.31804e-14
3.4487e-13
-4.2052e-13
1.03068e-09
-1.31675e-09
3.04055e-08
-3.38452e-09
5.06311e-08
-1.24924e-07
1.88366e-08
-1.04747e-07
8.13051e-09
-3.50833e-08
3.46889e-08
-5.20098e-08
1.08981e-07
-3.28398e-08
1.85122e-07
-2.25595e-08
6.95651e-08
-1.84173e-08
4.32116e-09
-1.23925e-09
8.92386e-10
-1.84564e-10
1.76745e-10
-2.95093e-11
-2.68616e-12
7.28387e-11
-1.2786e-23
3.256e-22
2.23526e-22
-1.52356e-21
4.43906e-20
-2.63822e-19
5.47095e-18
-2.92597e-17
1.0236e-16
-5.03553e-16
3.71794e-16
-1.78324e-15
8.44263e-16
-3.659e-15
6.08918e-15
-2.79434e-14
5.08028e-14
-1.64896e-13
1.21171e-12
-1.78763e-12
1.04955e-10
-1.3739e-10
-1.09378e-09
-1.40771e-09
-1.06017e-08
-7.13365e-08
-7.60244e-10
-8.7642e-08
-7.65038e-09
-7.4585e-08
3.39994e-08
-4.3513e-08
5.98776e-08
-8.03031e-09
1.98579e-08
-2.06891e-10
1.45457e-09
-7.69341e-12
2.17309e-10
-1.30262e-12
3.60254e-11
-1.62614e-12
9.89468e-12
-2.65522e-12
-9.77965e-13
8.7908e-12
-1.77623e-23
4.88351e-22
1.76954e-22
-9.44861e-22
3.947e-20
-2.61716e-19
5.71235e-18
-3.39773e-17
9.34228e-17
-5.61696e-16
2.67717e-16
-1.80787e-15
5.51805e-16
-3.38231e-15
4.35088e-15
-2.44951e-14
8.50878e-16
-9.39765e-13
-1.3284e-13
-1.66094e-12
-1.36693e-10
-2.78524e-12
-1.43507e-09
-1.38742e-11
-1.76793e-08
-3.32806e-10
-3.50222e-08
-4.97473e-09
-2.28443e-08
-3.93372e-09
-4.2538e-09
-9.26079e-15
2.13843e-10
-3.70126e-14
7.09609e-12
-9.45734e-14
4.36215e-13
-6.50511e-13
3.14981e-13
-3.97941e-13
5.8369e-13
-1.17116e-12
1.35876e-12
-2.73264e-12
-1.50453e-12
2.4534e-12
-2.02032e-23
6.71325e-22
5.47258e-23
8.02096e-22
2.69181e-20
-1.52969e-19
4.6248e-18
-3.24984e-17
7.11314e-17
-5.29542e-16
1.77955e-16
-1.63319e-15
3.41152e-16
-2.49695e-15
4.59252e-15
-7.78378e-15
-1.5148e-13
-2.06736e-12
-2.97879e-13
-9.19199e-12
-6.64651e-13
-2.43969e-12
-1.31495e-11
-1.60164e-12
-3.45944e-10
-1.35305e-14
-2.07341e-09
2.80519e-14
-1.5566e-15
1.13688e-13
-1.5646e-15
-7.48486e-15
1.63826e-16
-3.63363e-14
4.08246e-15
-9.46456e-14
1.22973e-13
-9.90154e-14
3.7065e-13
-1.25171e-13
9.75882e-13
-1.57413e-13
2.27617e-12
-2.40757e-12
-2.98373e-12
3.95114e-12
-1.96349e-23
8.35146e-22
-2.57302e-23
2.13116e-21
9.02582e-21
-3.58416e-20
2.83257e-18
-1.68508e-17
4.24153e-17
-2.82072e-16
1.05486e-16
-9.76241e-16
1.82992e-16
-2.20677e-15
1.01574e-14
-2.37111e-15
-3.0953e-13
-1.87928e-12
-2.40201e-13
-8.09578e-12
-1.57478e-13
-6.4645e-12
-6.25387e-16
-1.75702e-12
8.45415e-15
-2.261e-14
3.47742e-14
-7.0836e-18
-8.20252e-16
-2.4781e-16
-5.69302e-16
-6.66023e-15
4.2483e-15
-2.63596e-14
2.12026e-14
-4.06779e-14
3.2661e-14
-5.07349e-14
8.13719e-14
-6.55378e-14
2.34927e-13
-2.17542e-13
1.96245e-12
-2.32059e-12
-2.92185e-12
4.85783e-12
-1.6834e-23
9.21826e-22
-5.23458e-23
3.65721e-21
1.41886e-21
-2.6218e-21
8.58293e-19
-3.7768e-18
1.41906e-17
-7.58323e-17
5.05979e-17
-4.32969e-16
1.18656e-16
-2.27597e-15
1.12917e-15
-3.36514e-15
1.05563e-15
-2.81012e-13
-2.8533e-13
-6.29202e-12
-5.9778e-13
-7.25865e-12
-8.19857e-14
-6.59091e-12
-3.24702e-17
-1.04588e-13
-2.92127e-17
-1.03833e-17
-1.15932e-16
-2.72369e-16
2.04443e-16
-5.25199e-15
3.72091e-15
-1.21599e-14
8.32738e-15
-2.24349e-14
1.92842e-14
-4.28106e-14
4.77481e-14
-7.14165e-14
2.7963e-13
-2.47939e-13
1.31416e-12
-5.4201e-13
-1.63313e-12
2.81698e-12
-1.27514e-23
8.74773e-22
-6.77447e-23
4.8079e-21
1.20034e-22
1.76299e-21
1.27281e-19
-3.74382e-19
2.71458e-18
-1.10778e-17
1.85853e-17
-1.68326e-16
1.08885e-16
-2.2942e-15
7.73786e-16
-5.25592e-15
2.98563e-14
-6.81481e-15
-1.10424e-15
-3.22615e-16
-2.05978e-13
-5.18258e-12
-6.20301e-14
-3.68276e-12
-3.21377e-17
-1.59427e-13
-1.30153e-17
-1.43256e-17
-2.37093e-17
-2.11415e-16
2.48478e-16
-1.66254e-15
1.32387e-15
-4.84759e-15
4.71562e-15
-1.03993e-14
1.50347e-14
-2.21051e-14
4.11535e-14
-5.52959e-14
1.30012e-13
-1.18869e-13
1.95295e-13
-1.35665e-13
-1.80732e-12
2.31757e-12
-8.2803e-24
6.79668e-22
-6.52992e-23
4.64068e-21
-3.23657e-23
3.54932e-21
8.57339e-21
-1.01818e-20
2.80795e-19
-7.63806e-19
5.37439e-18
-5.21008e-17
5.73392e-17
-1.74989e-15
1.35757e-16
-4.82059e-15
4.7515e-17
-5.06061e-15
3.13374e-18
-4.73803e-16
-1.8688e-14
-7.27314e-16
-1.36987e-14
-1.9449e-16
-2.56791e-17
-5.26606e-17
-2.21576e-18
-1.43129e-17
2.82186e-18
-3.74055e-17
8.81215e-17
-3.69367e-16
5.09348e-16
-1.40858e-15
1.74719e-15
-3.90311e-15
5.48531e-15
-1.06223e-14
1.81434e-14
-3.05402e-14
4.79096e-14
-8.27645e-14
2.30937e-13
-2.11012e-13
-3.2003e-12
3.27024e-12
-4.30943e-24
4.01958e-22
-4.44408e-23
3.08549e-21
-4.54525e-23
4.25303e-21
2.06811e-22
7.77404e-24
1.27697e-20
-3.36393e-21
1.04442e-18
-1.02631e-17
3.42249e-17
-4.70023e-16
7.11864e-17
-3.39759e-15
5.79099e-17
-3.66222e-15
2.41369e-18
-1.86172e-15
-1.76046e-19
-7.31081e-16
-2.21331e-19
-1.90794e-16
-1.5221e-19
-4.85636e-17
-2.2492e-20
-1.16694e-17
5.7724e-19
-5.65136e-18
1.90035e-17
-4.27137e-17
1.24507e-16
-2.52162e-16
5.42938e-16
-1.18032e-15
2.20804e-15
-5.02453e-15
8.5445e-15
-1.86608e-14
3.74769e-14
-6.51551e-14
4.49578e-13
-2.68194e-13
-9.80592e-13
1.88323e-12
-1.64537e-24
1.6393e-22
-1.93601e-23
1.32485e-21
-3.49554e-23
2.46136e-21
-7.36083e-26
1.90505e-24
3.70105e-23
-4.0028e-22
1.10861e-19
-1.54026e-18
4.06159e-18
-6.6927e-17
1.71387e-17
-5.70799e-16
9.58673e-18
-1.6231e-15
-1.41595e-18
-1.85398e-15
-1.79417e-18
-9.85572e-16
-6.95104e-19
-2.9515e-16
-9.83833e-20
-5.00325e-17
9.48151e-21
-5.7527e-18
6.34354e-20
-1.10806e-18
1.73721e-18
-2.91889e-18
1.79911e-17
-3.77816e-17
1.34026e-16
-3.53695e-16
8.34034e-16
-2.3436e-15
4.20586e-15
-1.11244e-14
2.01502e-14
-4.65521e-14
1.53822e-13
-1.94052e-13
-2.59114e-13
1.0331e-12
-3.89164e-25
4.04876e-23
-4.64454e-24
3.22093e-22
-1.0713e-23
6.00193e-22
-8.86443e-27
1.07459e-25
2.08254e-24
-9.87641e-23
5.87694e-21
-2.57715e-19
1.18362e-19
-1.17496e-17
-4.71573e-19
-1.16985e-16
-6.48894e-18
-3.6736e-16
-8.27861e-18
-8.41629e-16
-4.45037e-18
-5.03552e-16
-9.27326e-19
-2.24109e-16
-5.94578e-20
-3.74923e-17
-7.41536e-22
-2.5127e-18
6.93882e-21
-1.73392e-19
6.76129e-20
-3.23264e-19
1.91868e-18
-6.68397e-18
2.8654e-17
-1.07548e-16
2.69307e-16
-1.0284e-15
1.68188e-15
-6.20746e-15
8.67773e-15
-3.02347e-14
3.84647e-14
-1.37456e-13
-2.34485e-13
3.27643e-13
-4.06918e-26
5.14719e-24
-3.69751e-25
4.17861e-23
-6.10643e-25
8.70451e-23
-4.88314e-29
-8.96726e-28
-1.76905e-24
-1.68294e-24
-1.55893e-21
-1.02577e-21
-1.02354e-19
-8.91381e-19
-7.64028e-19
-2.19456e-17
-5.30704e-18
-8.37027e-17
-5.16041e-18
-1.24994e-16
-3.3453e-18
-1.41768e-16
-7.39305e-19
-5.36024e-17
-4.5051e-20
-1.21904e-17
-8.6172e-22
-7.53248e-19
-2.48195e-22
1.56824e-20
1.9358e-21
-3.04765e-20
1.51253e-19
-1.55998e-18
4.32738e-18
-3.15254e-17
6.14278e-17
-4.1907e-16
4.97993e-16
-3.27808e-15
3.03001e-15
-1.79401e-14
1.91997e-14
-9.49112e-14
-3.54129e-13
2.82104e-13
4.98944e-27
1.25582e-35
7.79326e-26
3.47001e-34
-1.70777e-30
-9.0159e-33
-8.68151e-28
-3.0283e-29
-9.20554e-27
-1.32766e-26
-1.30023e-22
-7.77417e-24
-3.27292e-20
-6.11556e-21
-4.36658e-19
-9.55494e-19
-9.35745e-19
-5.74897e-18
-1.53467e-18
-9.86829e-18
-9.89189e-19
-9.91364e-18
-2.92172e-19
-4.44348e-18
-2.04438e-20
-1.71421e-18
3.49236e-22
-8.36546e-20
-3.83502e-22
3.49098e-20
-9.17394e-22
-1.54717e-21
-2.10241e-20
-3.69839e-19
-1.48896e-19
-9.16767e-18
1.66577e-18
-1.59409e-16
3.60675e-17
-1.63284e-15
3.10441e-16
-1.08636e-14
2.48509e-15
-5.96718e-14
-2.53255e-13
1.91352e-14
3.6897e-37
4.34752e-35
-1.919e-35
1.99753e-33
-4.82604e-32
3.92253e-32
-3.02918e-29
3.42795e-31
-1.08703e-26
-2.58115e-29
-7.33661e-24
-9.17648e-27
-1.23904e-21
-3.5669e-24
-3.35439e-20
-1.24333e-21
-1.12932e-19
-1.44009e-20
-1.32813e-19
-3.55107e-20
-9.53573e-20
-4.36752e-20
-4.72121e-20
-2.67412e-20
-2.83857e-21
9.05195e-21
1.27705e-21
4.24469e-20
-8.13292e-23
3.6624e-20
-9.7307e-22
-6.94032e-22
-2.07049e-20
-9.98489e-20
-5.76055e-19
-2.71926e-18
-9.91094e-18
-5.58392e-17
-9.78525e-17
-7.42298e-16
-7.10488e-16
-6.233e-15
-2.08916e-15
-3.77491e-14
-2.04446e-13
2.33051e-14
3.7601e-36
7.4641e-35
1.66904e-34
4.1627e-33
2.3293e-33
1.12314e-31
-1.88271e-31
1.97993e-30
-4.86535e-29
2.26538e-29
-7.98488e-27
8.6496e-29
-1.10785e-24
-1.00155e-26
-7.6494e-23
-3.22218e-24
-4.28477e-22
-1.29249e-22
-7.32164e-22
-5.75152e-22
-7.46834e-22
-8.69888e-22
3.85797e-22
1.62418e-22
2.00617e-21
4.21389e-21
1.89621e-21
1.18873e-20
-5.97411e-23
1.05129e-20
-4.40449e-22
-3.31536e-22
-9.76425e-21
-3.03555e-20
-3.12469e-19
-8.47696e-19
-7.27626e-18
-1.91128e-17
-1.01262e-16
-3.20767e-16
-9.13595e-16
-3.40014e-15
-2.91224e-15
-2.79241e-14
-2.01011e-13
7.32812e-14
1.07831e-35
7.776e-35
6.32145e-34
4.75575e-33
1.74773e-32
1.46448e-31
2.78354e-31
3.1208e-30
1.38971e-30
5.09382e-29
-1.54605e-28
6.38444e-28
-1.5842e-26
5.67187e-27
-4.62177e-25
2.66579e-26
-7.20355e-24
2.29441e-26
-1.72524e-23
7.01011e-25
7.57383e-24
2.89028e-23
2.23502e-22
2.56457e-22
7.11245e-22
9.97226e-22
7.05165e-22
2.08332e-21
-3.86198e-23
1.59984e-21
-2.01875e-22
-1.68281e-22
-4.22602e-21
-1.04002e-20
-1.3704e-19
-3.01113e-19
-3.80529e-18
-7.26025e-18
-6.80285e-17
-1.44801e-16
-8.17789e-16
-2.0824e-15
-1.97079e-15
-2.39816e-14
-2.65934e-13
1.59484e-13
1.51914e-35
4.76421e-35
9.97532e-34
3.0457e-33
3.30556e-32
9.83705e-32
7.45829e-31
2.215e-30
1.21474e-29
3.94858e-29
1.34986e-28
5.81272e-28
7.73241e-28
7.01754e-27
7.9593e-28
6.77635e-26
2.86683e-26
5.10815e-25
1.37772e-24
2.95986e-24
1.41201e-23
1.31537e-23
6.29654e-23
4.51478e-23
1.50037e-22
1.18116e-22
1.3093e-22
2.05138e-22
-2.57558e-23
4.95506e-23
-7.31121e-23
-1.20925e-22
-1.99056e-21
-5.18167e-21
-6.59132e-20
-1.56143e-19
-1.93322e-18
-3.95072e-18
-4.51177e-17
-8.55431e-17
-5.95421e-16
-1.49636e-15
9.17871e-16
-2.02121e-14
-2.75033e-13
8.01644e-14
1.12692e-35
1.34472e-35
7.6799e-34
8.5163e-34
2.67655e-32
2.59075e-32
6.57312e-31
5.05763e-31
1.25368e-29
7.11531e-30
1.88917e-28
7.67987e-29
2.22081e-27
6.61255e-28
2.00232e-26
4.66359e-27
1.36976e-25
2.74367e-26
7.11638e-25
1.36187e-25
2.83439e-24
5.71943e-25
8.55737e-24
2.00351e-24
1.70833e-23
5.47789e-24
4.73099e-24
8.67293e-24
-2.1563e-23
-3.28528e-24
-4.7192e-23
-9.5296e-23
-1.27375e-21
-3.17099e-21
-4.35087e-20
-9.45414e-20
-1.28571e-18
-2.41473e-18
-3.36966e-17
-5.31391e-17
-5.12141e-16
-1.00144e-15
-1.41514e-15
-1.5786e-14
-2.10924e-13
-4.79797e-14
3.50197e-36
9.72823e-38
2.23161e-34
6.25067e-36
6.72227e-33
1.96585e-34
1.30038e-31
4.0507e-33
1.81584e-30
6.14969e-32
1.95003e-29
7.32779e-31
1.67431e-28
7.11958e-30
1.17927e-27
5.77634e-29
6.92406e-27
3.96789e-28
3.40962e-26
2.31871e-27
1.39155e-25
1.14353e-26
4.41256e-25
4.57517e-26
8.07728e-25
1.26046e-25
-3.53061e-25
2.27334e-26
-1.66823e-24
-1.97011e-24
-4.65144e-23
-4.23987e-23
-1.4294e-21
-1.42662e-21
-4.50661e-20
-4.17049e-20
-1.24378e-18
-1.04536e-18
-2.93999e-17
-2.25043e-17
-5.89605e-16
-4.14997e-16
-9.95365e-15
-6.51244e-15
-8.38418e-14
-1.40164e-13
2.76818e-38
2.20273e-40
1.81316e-36
1.64486e-38
5.75102e-35
6.05019e-37
1.19907e-33
1.46919e-35
1.84714e-32
2.64592e-34
2.23803e-31
3.75959e-33
2.21171e-30
4.37043e-32
1.82116e-29
4.24667e-31
1.26137e-28
3.48503e-30
7.31431e-28
2.41001e-29
3.42139e-27
1.36561e-28
1.09773e-26
5.66542e-28
2.29978e-27
8.60735e-28
-1.65437e-25
-7.45385e-27
-1.61504e-24
-5.20505e-25
-3.3092e-23
-1.04701e-23
-1.08354e-21
-3.47609e-22
-3.24978e-20
-9.89777e-21
-8.4334e-19
-2.41351e-19
-1.88099e-17
-5.04473e-18
-3.59654e-16
-9.03481e-17
-5.85035e-15
-1.39349e-15
-1.76707e-14
-7.56729e-14
7.62264e-41
4.12388e-43
5.81692e-39
3.51202e-41
2.17067e-37
1.48616e-39
5.365e-36
4.18941e-38
9.8531e-35
8.82147e-37
1.42863e-33
1.47278e-35
1.69207e-32
2.01598e-34
1.66666e-31
2.30211e-33
1.36865e-30
2.19818e-32
9.14148e-30
1.71406e-31
4.44756e-29
9.87135e-31
7.89718e-29
2.4064e-30
-7.97575e-28
-2.06751e-29
-6.50224e-27
-1.74918e-27
-4.44536e-25
-7.55955e-26
-9.6384e-24
-1.55888e-24
-3.09426e-22
-5.10196e-23
-8.95967e-21
-1.4351e-21
-2.23387e-19
-3.45446e-20
-4.78471e-18
-7.12073e-19
-8.80354e-17
-1.25709e-17
-1.39998e-15
-1.91424e-16
-2.40082e-15
-1.80928e-14
1.64828e-43
2.54937e-46
1.44829e-41
2.77044e-44
6.27458e-40
1.48403e-42
1.81372e-38
5.25707e-41
3.9158e-37
1.37735e-39
6.68976e-36
2.82512e-38
9.32081e-35
4.672e-37
1.06966e-33
6.27596e-36
9.92248e-33
6.66423e-35
6.75102e-32
4.9121e-34
1.93524e-31
9.2276e-34
-1.94932e-30
-2.98318e-32
-1.95565e-29
-3.06788e-30
-1.59779e-27
-1.57682e-28
-7.01995e-26
-6.69462e-27
-1.53501e-24
-1.60954e-25
-4.83992e-23
-5.24702e-24
-1.38015e-21
-1.49186e-22
-3.38121e-20
-3.6293e-21
-7.11366e-19
-7.55631e-20
-1.28606e-17
-1.34673e-18
-2.01532e-16
-2.06832e-17
-2.61168e-16
-2.58311e-15
1.26063e-46
6.08388e-50
1.41787e-44
8.43347e-48
7.7497e-43
5.60907e-46
2.79314e-41
2.42207e-44
7.42168e-40
7.59224e-43
1.53421e-38
1.81387e-41
2.51865e-37
3.31248e-40
3.21993e-36
4.27209e-39
2.82892e-35
2.47194e-38
6.29212e-35
-2.80534e-37
-2.39799e-33
-2.52154e-35
-2.901e-32
-3.21978e-33
-2.88186e-30
-2.02945e-31
-1.49613e-28
-1.08341e-29
-5.81367e-27
-3.42323e-28
-1.57526e-25
-1.13881e-26
-5.17699e-24
-3.84865e-25
-1.49053e-22
-1.13321e-23
-3.6838e-21
-2.85309e-22
-7.81704e-20
-6.1438e-21
-1.42543e-18
-1.13182e-19
-2.2529e-17
-1.79508e-18
-2.36177e-17
-2.92366e-16
3.50076e-50
3.10475e-55
5.03885e-48
4.89864e-53
3.39183e-46
3.35807e-51
1.4698e-44
1.22959e-49
4.56539e-43
1.77679e-48
1.04528e-41
-1.73e-47
1.65202e-40
-3.51237e-45
1.15388e-39
-5.80853e-43
-1.5649e-38
-7.94801e-41
-2.80742e-37
-1.5441e-38
-2.40148e-35
-1.48135e-36
-3.1176e-33
-1.18185e-34
-1.98141e-31
-7.95506e-33
-1.0628e-29
-4.4154e-31
-3.39187e-28
-1.62786e-29
-1.13721e-26
-5.91169e-28
-3.87719e-25
-2.13187e-26
-1.1546e-23
-6.69133e-25
-2.94905e-22
-1.79466e-23
-6.46463e-21
-4.1143e-22
-1.21739e-19
-8.06618e-21
-1.98642e-18
-1.36055e-19
-1.92239e-18
-2.67963e-17
1.70818e-55
-1.65228e-63
2.69583e-53
-3.77005e-60
1.5685e-51
-3.29879e-57
3.15987e-50
-1.76557e-54
-4.02268e-49
-6.70814e-52
-1.73707e-47
-3.31522e-49
-3.45407e-45
-7.5673e-47
-5.70293e-43
-1.40142e-44
-7.79112e-41
-2.13928e-42
-1.51988e-38
-2.68779e-40
-1.46571e-36
-2.86523e-38
-1.17198e-34
-2.53168e-36
-7.91457e-33
-1.8387e-34
-3.74182e-31
-8.54076e-33
-1.64102e-29
-4.7399e-31
-6.03884e-28
-1.91768e-29
-2.19251e-26
-7.61562e-28
-6.95732e-25
-2.6338e-26
-1.89325e-23
-7.7811e-25
-4.42262e-22
-1.96354e-23
-8.86581e-21
-4.22809e-22
-1.53931e-19
-7.81434e-21
-1.22868e-19
-2.24655e-18
-1.64883e-63
-3.44846e-66
-3.75956e-60
-1.21432e-62
-3.28916e-57
-1.33844e-59
-1.76019e-54
-8.66009e-57
-6.68656e-52
-3.91819e-54
-3.2982e-49
-1.3322e-51
-7.55027e-47
-3.58116e-49
-1.40047e-44
-7.77683e-47
-2.14156e-42
-1.38663e-44
-2.69558e-40
-2.02759e-42
-2.87887e-38
-2.50079e-40
-2.55064e-36
-2.50143e-38
-1.52684e-34
-1.54581e-36
-8.72222e-33
-1.15663e-34
-4.85423e-31
-7.35165e-33
-1.99389e-29
-3.43709e-31
-7.94696e-28
-1.56095e-29
-2.77319e-26
-6.17435e-28
-8.28317e-25
-2.0843e-26
-2.11796e-23