/*--------------------------------*- C++ -*----------------------------------*\
| =========                 |                                                 |
| \\      /  F ield         | OpenFOAM: The Open Source CFD Toolbox           |
|  \\    /   O peration     | Version:  2206                                  |
|   \\  /    A nd           | Website:  www.openfoam.com                      |
|    \\/     M anipulation  |                                                 |
\*---------------------------------------------------------------------------*/
FoamFile
{
    version     2.0;
    format      ascii;
    arch        "LSB;label=32;scalar=64";
    class       volScalarField;
    location    "0.275";
    object      p;
}
// * * * * * * * * * * * * * * * * * * * * * * * * * * * * * * * * * * * * * //

dimensions      [1 -1 -2 0 0 0 0];

internalField   nonuniform List<scalar> 
2268
(
1443.2
1448.23
1451.48
1449.68
1441.97
1430.63
1418.07
1405.48
1393.39
1382.3
1372.87
1366.03
1363.05
1365.59
1375.97
1396.66
1429.38
1473.89
1523.94
1563.57
1568.92
1548.74
1591.32
1383.31
1388.57
1391.7
1389.82
1382.06
1370.76
1358.25
1345.67
1333.55
1322.37
1312.81
1305.8
1302.59
1304.76
1314.02
1332.2
1361.59
1403.11
1453.36
1496.88
1508.19
1476.74
1532.97
1322.48
1328.07
1330.99
1328.95
1321.13
1309.89
1297.47
1284.91
1272.71
1261.36
1251.54
1244.18
1240.51
1242.06
1250.5
1267.57
1294.48
1331.03
1374.32
1415.61
1439.23
1439.52
1489.99
1261.01
1266.56
1269.36
1267.09
1259.19
1248.06
1235.75
1223.21
1210.88
1199.26
1189.04
1181.15
1176.83
1177.54
1184.9
1200.43
1224.97
1257.94
1296.02
1333.51
1366.77
1394.56
1461.48
1198.69
1204.13
1206.86
1204.31
1196.31
1185.3
1173.13
1160.57
1148.06
1136.06
1125.29
1116.7
1111.5
1111.13
1117.14
1130.87
1153.01
1182.98
1218.09
1253.63
1290.86
1332.43
1410.99
1135.96
1140.98
1143.55
1140.67
1132.57
1121.69
1109.62
1097.01
1084.21
1071.72
1060.24
1050.76
1044.46
1042.77
1047.16
1058.9
1078.57
1105.69
1138.26
1172.13
1208.48
1250.44
1324.96
1072.66
1077.25
1079.49
1076.19
1068.02
1057.28
1045.3
1032.56
1019.38
1006.25
993.912
983.33
975.709
972.425
974.914
984.402
1001.45
1025.64
1055.27
1086.53
1117.92
1149.16
1189.84
1008.86
1013.01
1014.66
1010.85
1002.64
992.089
980.194
967.266
953.605
939.723
926.371
914.518
905.345
900.198
900.491
907.44
921.618
942.713
968.847
996.11
1018.59
1032.46
992.85
22.778
22.777
22.7731
22.7679
22.7614
22.7536
22.7445
22.7337
22.7214
22.7076
22.6927
22.6773
22.6619
22.6474
22.6342
22.6231
22.6143
22.6083
22.6053
22.7182
22.7174
22.714
22.7091
22.7027
22.695
22.6859
22.6752
22.6628
22.6489
22.6338
22.6182
22.6026
22.5879
22.5746
22.5633
22.5545
22.5484
22.5453
22.6575
22.6573
22.6546
22.6502
22.644
22.6366
22.6278
22.6172
22.6047
22.5905
22.5751
22.559
22.543
22.5278
22.5141
22.5024
22.4933
22.4869
22.4838
22.596
22.5966
22.595
22.5912
22.5854
22.5783
22.5699
22.5595
22.5469
22.5324
22.5165
22.4997
22.483
22.4671
22.4527
22.4404
22.4308
22.4241
22.4208
22.5334
22.5351
22.5353
22.5322
22.5267
22.5203
22.5125
22.5023
22.4896
22.4746
22.4579
22.4403
22.4225
22.4057
22.3904
22.3773
22.367
22.3599
22.3563
22.4672
22.4726
22.4756
22.4732
22.468
22.4624
22.4554
22.4456
22.4327
22.4171
22.3995
22.3807
22.3617
22.3435
22.327
22.3129
22.3017
22.294
22.2902
22.3918
22.4089
22.4166
22.4141
22.4092
22.4049
22.3989
22.3895
22.3764
22.36
22.3412
22.3209
22.3004
22.2806
22.2626
22.2471
22.2349
22.2265
22.2223
22.3164
22.3481
22.36
22.3551
22.3502
22.3477
22.3431
22.3342
22.3207
22.3034
22.2831
22.261
22.2385
22.2167
22.1969
22.1798
22.1664
22.1572
22.1525
908.37
911.781
912.317
907.721
899.4
889.027
877.099
863.697
849.083
833.786
818.57
804.384
792.365
783.819
780.184
782.683
791.814
807.671
827.936
847.529
850.158
814.467
564.661
769.93
772.3
771.2
765.355
756.566
745.872
733.208
718.424
701.723
683.596
664.771
646.178
628.958
614.443
604.184
599.472
600.088
605.775
614.577
622.241
608.583
554.106
405.13
630.491
631.485
628.188
620.838
611.34
599.854
585.814
568.96
549.455
527.714
504.448
480.508
456.959
435.085
415.894
401.442
395.955
400.134
400.99
410.628
411.442
381.985
324.897
490.673
489.332
483.496
474.732
464.367
451.534
435.525
416.163
393.482
367.609
339.097
307.957
274.175
238.998
204.505
168.153
131.241
105.116
110.948
136.43
171.834
192.843
190.342
351.288
346.953
338.549
328.458
316.858
301.812
283.179
260.741
234.058
202.369
166.121
128.867
87.0701
49.7536
27.8059
14.9819
7.36998
3.06816
3.7986
6.92216
13.181
25.1851
45.7777
213.959
206.383
193.019
181.376
168.458
150.148
129.198
106.201
81.1435
52.78
29.1147
13.871
1.27534
-2.08289
-2.36744
-2.27485
-2.20533
-2.14082
-2.00024
-1.61751
-1.24557
-1.495
-1.26023
90.781
75.7197
59.5872
52.4065
44.7353
31.3892
20.8981
11.8848
3.82319
-2.3108
-2.55508
-2.72124
-2.72454
-2.71718
-2.70843
-2.64171
-2.55259
-2.48545
-2.36638
-2.14552
-1.9374
-2.13332
-3.0932
19.4485
2.90289
0.6429
-0.376309
-2.13971
-2.7734
-2.91408
-2.97392
-2.99217
-2.91909
-2.95338
-3.00315
-3.05109
-3.07199
-3.07375
-3.04667
-2.97617
-2.92132
-2.80355
-2.79833
-2.9287
-3.39108
-4.20279
-3.20827
-3.20522
-3.17359
-3.15528
-3.1295
-3.10437
-3.11061
-3.12659
-3.14417
-3.15781
-3.2066
-3.29217
-3.41639
-3.54954
-3.64797
-3.64178
-3.53758
-3.40129
-3.34368
-3.58941
-3.9954
-4.55617
-5.11305
-3.33836
-3.31946
-3.31317
-3.30773
-3.30069
-3.29372
-3.29743
-3.31389
-3.3461
-3.40843
-3.51081
-3.6543
-3.87588
-4.14601
-4.35005
-4.33321
-4.11312
-3.81349
-3.86262
-4.2345
-4.70124
-5.06503
-5.33563
-3.49402
-3.47458
-3.4773
-3.47987
-3.4817
-3.48742
-3.50122
-3.52607
-3.57458
-3.66847
-3.81228
-4.0097
-4.32268
-4.66638
-4.85865
-4.78606
-4.50534
-4.21431
-4.34475
-4.75349
-5.04423
-5.24309
-5.43774
-3.6558
-3.65101
-3.65193
-3.6575
-3.66602
-3.68033
-3.70266
-3.73689
-3.79862
-3.90964
-4.07775
-4.29852
-4.62335
-4.95693
-5.0637
-4.98369
-4.77298
-4.63898
-4.81907
-5.04031
-5.2065
-5.37307
-5.55501
-3.81446
-3.81776
-3.82242
-3.83299
-3.84808
-3.86986
-3.89994
-3.94259
-4.01101
-4.12261
-4.28529
-4.49081
-4.77756
-5.0521
-5.13915
-5.08505
-4.99073
-4.99337
-5.09504
-5.21756
-5.36485
-5.52999
-5.71397
-3.97427
-3.98308
-3.99063
-4.00541
-4.02593
-4.05385
-4.09052
-4.13943
-4.20928
-4.31163
-4.4526
-4.62718
-4.84174
-5.02628
-5.11315
-5.1434
-5.16248
-5.1971
-5.27271
-5.39426
-5.54618
-5.71998
-5.91252
-4.1334
-4.14456
-4.15464
-4.17265
-4.19739
-4.23004
-4.27192
-4.32547
-4.39536
-4.48796
-4.60722
-4.75165
-4.90869
-5.04781
-5.1477
-5.21811
-5.26989
-5.34276
-5.44904
-5.58768
-5.74977
-5.93509
-6.13786
-4.28932
-4.30075
-4.31302
-4.33336
-4.36117
-4.39725
-4.44276
-4.49937
-4.56959
-4.65641
-4.76117
-4.88221
-5.01064
-5.13117
-5.23468
-5.32469
-5.41114
-5.51459
-5.63976
-5.78963
-5.96281
-6.16105
-6.37993
-4.4401
-4.45095
-4.46488
-4.48681
-4.51664
-4.5549
-4.60252
-4.66058
-4.73081
-4.81446
-4.91192
-5.02077
-5.13599
-5.24985
-5.35809
-5.46293
-5.57013
-5.69034
-5.8293
-5.99124
-6.17755
-6.38917
-6.62796
-4.58438
-4.59453
-4.60955
-4.63252
-4.66354
-4.70302
-4.75166
-4.81022
-4.87974
-4.96071
-5.05531
-5.15786
-5.26715
-5.37923
-5.49218
-5.6068
-5.72833
-5.86234
-6.0143
-6.18848
-6.3877
-6.61371
-6.87162
-4.72141
-4.73096
-4.74659
-4.77018
-4.80185
-4.84193
-4.89094
-4.94953
-5.01843
-5.09819
-5.18911
-5.28933
-5.39648
-5.50888
-5.62596
-5.74893
-5.88119
-6.02694
-6.19068
-6.37654
-6.58824
-6.82913
-7.10431
-4.85075
-4.85984
-4.87577
-4.89965
-4.93161
-4.97187
-5.02086
-5.07917
-5.1474
-5.226
-5.31501
-5.41359
-5.52007
-5.63383
-5.75462
-5.88431
-6.02522
-6.18077
-6.35484
-6.55154
-6.77507
-7.03005
-7.3218
-4.9722
-4.98096
-4.99696
-5.0209
-5.05285
-5.093
-5.14171
-5.19951
-5.267
-5.34456
-5.43235
-5.5297
-5.63594
-5.75089
-5.87491
-6.00977
-6.15752
-6.32099
-6.50375
-6.70993
-6.94412
-7.21166
-7.5184
-5.08572
-5.09419
-5.11011
-5.13393
-5.16565
-5.20543
-5.25362
-5.31072
-5.37732
-5.45385
-5.54043
-5.63679
-5.74272
-5.85846
-5.98462
-6.12311
-6.27579
-6.44522
-6.63475
-6.84854
-7.09157
-7.36972
-7.68872
-5.19135
-5.19952
-5.21526
-5.23879
-5.27008
-5.30926
-5.3567
-5.41287
-5.47836
-5.55362
-5.63886
-5.73405
-5.83924
-5.95494
-6.08224
-6.22265
-6.3783
-6.55157
-6.74555
-6.96447
-7.21401
-7.50063
-7.82947
-5.28924
-5.29698
-5.31247
-5.33558
-5.36628
-5.40467
-5.4511
-5.50606
-5.57012
-5.64377
-5.72731
-5.82088
-5.92471
-6.03947
-6.16639
-6.30716
-6.46379
-6.63862
-6.8343
-7.05519
-7.30811
-7.60023
-7.9367
-5.3794
-5.38685
-5.40196
-5.42451
-5.45444
-5.49184
-5.53702
-5.59045
-5.65271
-5.72432
-5.80566
-5.89696
-5.99862
-6.11139
-6.23654
-6.37577
-6.53104
-6.70462
-6.8994
-7.11967
-7.37204
-7.66452
-8.00224
-5.46213
-5.46933
-5.48396
-5.50583
-5.53482
-5.57104
-5.61472
-5.66632
-5.72639
-5.79546
-5.87397
-5.96227
-6.06083
-6.17046
-6.29239
-6.42823
-6.57988
-6.74961
-6.94035
-7.15623
-7.40374
-7.69119
-8.02453
-5.53778
-5.5447
-5.55878
-5.57984
-5.60775
-5.64258
-5.68452
-5.73399
-5.79148
-5.85752
-5.93256
-6.01706
-6.11155
-6.21686
-6.33411
-6.46475
-6.61054
-6.77373
-6.9572
-7.16482
-7.40269
-7.67894
-8.00016
-5.60673
-5.61334
-5.62679
-5.64692
-5.67358
-5.70682
-5.74678
-5.79383
-5.84838
-5.91093
-5.98191
-6.06183
-6.15129
-6.25112
-6.36231
-6.48605
-6.62389
-6.77794
-6.95097
-7.1465
-7.36992
-7.62858
-7.92906
-5.66934
-5.67561
-5.68836
-5.70745
-5.73271
-5.76416
-5.80192
-5.84626
-5.89756
-5.95621
-6.02261
-6.09726
-6.18081
-6.27408
-6.37794
-6.49329
-6.62134
-6.76396
-6.92373
-7.10369
-7.30826
-7.54353
-7.81521
-5.72601
-5.73191
-5.7439
-5.76183
-5.78555
-5.81502
-5.85035
-5.89174
-5.93949
-5.9939
-6.05529
-6.12412
-6.20102
-6.2868
-6.38223
-6.48793
-6.6047
-6.73406
-6.87828
-7.03985
-7.22205
-7.42937
-7.66605
-5.77716
-5.78266
-5.79381
-5.8105
-5.83254
-5.85986
-5.89254
-5.93074
-5.97468
-6.02458
-6.08065
-6.14323
-6.21292
-6.29048
-6.3766
-6.47166
-6.57607
-6.69087
-6.81792
-6.95916
-7.11671
-7.29334
-7.4916
-5.82319
-5.82825
-5.83853
-5.85389
-5.87411
-5.89914
-5.92898
-5.96376
-6.00367
-6.04882
-6.09934
-6.15543
-6.21756
-6.28642
-6.36262
-6.44637
-6.53775
-6.63728
-6.74632
-6.86627
-6.99825
-7.14344
-7.30282
-5.86449
-5.8691
-5.87845
-5.89241
-5.91075
-5.93335
-5.96019
-5.99138
-6.02705
-6.06727
-6.11208
-6.16155
-6.21597
-6.27591
-6.34189
-6.41403
-6.49211
-6.57622
-6.66717
-6.76586
-6.87258
-6.98734
-7.10978
-5.90159
-5.90572
-5.91412
-5.92665
-5.94302
-5.96311
-5.98684
-6.01429
-6.04555
-6.08069
-6.11968
-6.16248
-6.20921
-6.26026
-6.31604
-6.37659
-6.44153
-6.51056
-6.58398
-6.66221
-6.74502
-6.83156
-6.92056
-5.93518
-5.93884
-5.94626
-5.95732
-5.97168
-5.9892
-6.00976
-6.03337
-6.06013
-6.09008
-6.12318
-6.15933
-6.19849
-6.24087
-6.28671
-6.33601
-6.38828
-6.44296
-6.4999
-6.55911
-6.61999
-6.68124
-6.74107
-5.96565
-5.96884
-5.97527
-5.98484
-5.99717
-6.0121
-6.02946
-6.04923
-6.07146
-6.09621
-6.12345
-6.15304
-6.18487
-6.21895
-6.25536
-6.29403
-6.33439
-6.37574
-6.41758
-6.45958
-6.50096
-6.54023
-6.5754
-5.9926
-5.99534
-6.00074
-6.0088
-6.01908
-6.03142
-6.04561
-6.06159
-6.07938
-6.09902
-6.12051
-6.14375
-6.16858
-6.19487
-6.22255
-6.25143
-6.28093
-6.31023
-6.33861
-6.36551
-6.39007
-6.41083
-6.42587
-6.01636
-6.01865
-6.02299
-6.02949
-6.0377
-6.04743
-6.05848
-6.07074
-6.08419
-6.09886
-6.11479
-6.13189
-6.15002
-6.16899
-6.18861
-6.20857
-6.22826
-6.24682
-6.26343
-6.2774
-6.28789
-6.29365
-6.29301
-6.04054
-6.04241
-6.04567
-6.05055
-6.05663
-6.06375
-6.0717
-6.08035
-6.08964
-6.09958
-6.11019
-6.12143
-6.13317
-6.14518
-6.15719
-6.16881
-6.17942
-6.18818
-6.19425
-6.19696
-6.19565
-6.18937
-6.17688
-6.06883
-6.07037
-6.07252
-6.07576
-6.07974
-6.08432
-6.08933
-6.09463
-6.10015
-6.10585
-6.11169
-6.11761
-6.12347
-6.12901
-6.13391
-6.13771
-6.13986
-6.13956
-6.13607
-6.12882
-6.11733
-6.10106
-6.07923
-6.09402
-6.09502
-6.09618
-6.0978
-6.09968
-6.10176
-6.10395
-6.10615
-6.10826
-6.11018
-6.11178
-6.11294
-6.11344
-6.11302
-6.11137
-6.10805
-6.10261
-6.09448
-6.08308
-6.06794
-6.04869
-6.025
-5.99648
-6.09498
-6.09604
-6.09607
-6.09587
-6.09538
-6.09467
-6.09373
-6.09249
-6.09086
-6.08869
-6.08579
-6.08192
-6.07688
-6.07041
-6.06227
-6.05219
-6.03989
-6.02515
-6.0077
-5.98727
-5.96362
-5.93663
-5.90635
-62.5312
21.2688
20.7112
22.0584
46.9962
7.70818
20.1557
22.2397
140.056
7.23586
-25.8712
17.1104
122.043
24.5458
-14.1183
-5.18001
52.3358
30.8544
9.9888
-9.99879
5.95068
22.2972
21.2217
-0.319066
-4.55883
-5.1599
-0.253039
17.1365
-5.07425
-5.71675
-6.05637
-5.19312
-5.53824
-5.92976
-6.16627
-6.42848
-5.65785
-5.98391
-6.27646
-6.54058
-5.69316
-6.01647
-6.34431
-6.64346
-5.79915
-6.12739
-6.45466
-6.7474
-5.97087
-6.32078
-6.65622
-6.91559
-6.18763
-6.56641
-6.9328
-7.20036
-6.43454
-6.8484
-7.27127
-7.63877
-6.69932
-7.14816
-7.63628
-8.14872
-6.96135
-7.4418
-7.94825
-8.56638
-7.22496
-7.74995
-8.27127
-8.9415
-7.48592
-8.04271
-8.67128
-9.3743
-7.72917
-8.31588
-9.0665
-9.85705
-7.94657
-8.56729
-9.38542
-10.2826
-8.13319
-8.77944
-9.62919
-10.5717
-8.28643
-8.95212
-9.82811
-10.7814
-8.40308
-9.07886
-10.004
-11.0262
-8.47531
-9.18272
-10.1365
-11.2971
-8.49724
-9.21964
-10.2081
-11.4857
-8.46022
-9.17332
-10.1619
-11.5182
-8.36137
-9.03406
-9.96973
-11.3194
-8.20507
-8.80682
-9.63267
-10.8447
-8.00211
-8.50997
-9.18398
-10.1456
-7.76809
-8.17262
-8.68487
-9.36898
-7.51968
-7.82375
-8.18683
-8.6302
-7.27102
-7.48457
-7.71923
-7.96951
-7.03259
-7.16913
-7.30007
-7.40709
-6.81134
-6.88552
-6.9377
-6.94631
-6.61154
-6.63754
-6.63369
-6.58049
-6.43521
-6.42598
-6.38531
-6.29804
-6.28245
-6.24935
-6.18742
-6.08656
-6.15238
-6.10483
-6.03376
-5.93383
-6.04472
-5.9892
-5.91778
-5.82961
-5.95539
-5.89706
-5.83183
-5.76418
-5.86584
-5.8147
-5.76648
-5.73039
22.2694
22.277
22.2778
22.2617
22.257
22.2586
22.2571
22.2492
22.235
22.2157
22.1925
22.167
22.1408
22.1154
22.092
22.072
22.0563
22.0456
22.0402
22.2613
22.2058
22.1651
22.1191
22.1237
22.1389
22.145
22.1393
22.1232
22.0993
22.07
22.0378
22.0044
21.9721
21.9424
21.917
21.8971
21.8835
21.8766
21.8018
21.9247
21.8786
21.9088
21.9775
22.0259
22.0437
22.0389
22.0181
21.9866
21.9484
21.9064
21.8633
21.8216
21.7835
21.7509
21.7255
21.7081
21.6993
3.12534
20.0531
21.3596
21.5806
21.8415
21.9412
21.9671
21.9546
21.9215
21.8775
21.8265
21.7713
21.7151
21.6611
21.612
21.5703
21.5377
21.5154
21.504
-28.0508
-23.553
5.28462
20.4828
21.9209
21.9493
21.9243
21.8879
21.8335
21.7703
21.702
21.6297
21.5567
21.4868
21.4238
21.3704
21.3289
21.3004
21.2858
-12.3947
-7.04793
-4.79286
5.66466
20.3692
22.0235
21.9151
21.8164
21.7436
21.6606
21.5707
21.4771
21.3828
21.293
21.2126
21.1449
21.0924
21.0565
21.0382
6.55331
-4.08877
-2.80078
2.46153
12.0081
20.5129
21.9
21.7594
21.6329
21.5374
21.4278
21.3075
21.186
21.0715
20.9699
20.8853
20.82
20.7754
20.7528
1.58827
-6.01107
-23.8931
-8.86615
6.04973
16.0713
21.031
21.6062
21.4943
21.3772
21.2587
21.1109
20.9549
20.8102
20.6841
20.5804
20.501
20.4473
20.4202
-6.94618
-6.33994
-18.956
-26.3686
-7.56281
4.2447
18.532
21.103
21.2418
21.1699
21.0477
20.8695
20.6717
20.4918
20.3394
20.2161
20.1229
20.0604
20.0292
-6.77509
-6.98693
-6.29936
-23.2297
-17.794
-2.91277
8.57997
19.7379
21.0844
20.912
20.7366
20.5383
20.3039
20.0908
19.9154
19.7759
19.6717
19.6024
19.5682
-6.82811
-6.95825
-6.85588
-10.3598
-24.0632
-9.20361
5.02648
19.3619
20.4825
20.4177
20.243
20.0453
19.8002
19.5744
19.389
19.2425
19.1337
19.0619
19.0268
-6.92868
-6.99964
-6.86862
-5.64706
-19.9528
-20.3448
-7.39487
12.4019
18.7069
19.6404
19.5225
19.3373
19.1211
18.916
18.7418
18.6025
18.499
18.4309
18.3977
-7.12172
-7.23912
-7.14406
-5.60636
-8.50034
-21.3864
-11.4713
7.70552
17.2913
18.6097
18.5624
18.4193
18.2635
18.1093
17.9684
17.8521
17.7649
17.7073
17.6794
-7.50867
-7.83816
-8.09946
-8.22988
-6.58251
-15.107
-6.67052
6.21293
15.4665
17.1917
17.3363
17.2993
17.2452
17.1687
17.0789
16.9994
16.9379
16.8968
16.8771
-8.13821
-8.73297
-9.24664
-10.0704
-8.78048
-14.2172
-3.45894
4.1745
14.0466
15.8378
15.929
16.0037
16.1022
16.1241
16.0969
16.0633
16.0338
16.013
16.0032
-8.72948
-9.36636
-10.0854
-10.8997
-14.1982
-10.1588
3.45688
10.1084
14.5342
14.4048
14.3599
14.6309
14.9017
15.0141
15.0541
15.0699
15.0744
15.0751
15.0755
-9.0277
-9.7483
-11.7201
-8.45686
-5.09328
2.86203
12.3944
14.8168
13.037
12.5981
12.8909
13.3701
13.7207
13.8945
13.9919
14.0503
14.0849
14.1049
14.1145
-9.33517
-9.53926
-18.7548
-9.84204
2.05598
10.3205
14.4224
11.0824
11.1425
11.2978
11.7708
12.2912
12.6264
12.8207
12.9489
13.0339
13.0893
13.1233
13.1399
-9.8663
-9.39458
-25.0417
-28.6886
-4.65983
8.44101
9.74657
9.87149
10.0608
10.4605
10.9132
11.3287
11.6173
11.8092
11.9447
12.0399
12.1053
12.1466
12.167
-10.7114
-12.0301
-38.9267
-44.0005
-5.26732
6.60156
9.03819
9.3842
9.58093
9.84744
10.1563
10.451
10.6858
10.8569
10.9833
11.076
11.1419
11.1843
11.2054
-11.1827
-12.0865
-12.9305
-30.2394
-5.51827
5.13442
8.08417
8.8281
9.07442
9.26942
9.45615
9.65132
9.82136
9.95545
10.061
10.1419
10.2011
10.2398
10.2592
-11.2421
-11.7584
-11.3387
-19.9036
-10.1335
3.71717
7.28413
8.34178
8.54061
8.65283
8.76462
8.88976
8.9979
9.09007
9.16877
9.23236
9.28032
9.31229
9.32819
-11.3223
-11.7171
-10.7139
-25.7498
-17.0107
-0.563142
6.98559
8.00827
8.06235
7.99799
8.04695
8.12969
8.18965
8.24307
8.29441
8.3389
8.37405
8.39811
8.41014
-11.6884
-12.1502
-12.8029
-16.5093
-18.4349
-5.60424
5.70516
8.15656
7.75702
7.31979
7.29549
7.36342
7.38157
7.39824
7.42448
7.4515
7.47508
7.49235
7.50147
-12.1014
-12.7491
-14.212
-13.5642
-19.2744
-12.0336
4.4657
9.18374
7.53007
6.65341
6.53961
6.57822
6.55434
6.53839
6.54491
6.55989
6.57625
6.59015
6.5987
-12.5352
-13.3986
-15.3576
-15.9527
-20.587
-18.7359
-5.52943
5.07355
5.56836
5.51472
5.62446
5.67358
5.64992
5.63173
5.6379
5.65424
5.67231
5.68819
5.70101
-12.9028
-14.2667
-16.7536
-21.787
-24.7611
-25.4836
-15.5073
-3.77511
0.561211
3.11949
4.161
4.49451
4.59176
4.6438
4.6902
4.73023
4.76322
4.78418
4.81483
-12.8992
-14.5719
-17.5597
-24.0266
-31.2132
-33.8245
-22.8822
-9.29618
-3.46285
0.8549
2.49907
3.14479
3.43191
3.60335
3.71941
3.79955
3.8594
3.88914
3.93996
-12.3823
-14.1602
-17.1637
-22.1896
-28.4735
-30.7924
-22.3777
-14.2763
-6.13367
-0.938411
1.03024
1.8615
2.30018
2.57735
2.76162
2.88683
2.97318
3.01957
3.08071
-11.3429
-12.7
-14.7634
-17.6329
-20.4894
-21.3951
-18.8174
-13.0644
-6.57155
-2.12112
-0.164845
0.733418
1.26672
1.61575
1.85107
2.0114
2.12041
2.18265
2.24511
-10.1317
-10.8915
-11.8383
-12.7969
-13.4848
-13.5255
-12.1197
-8.96746
-5.22397
-2.53397
-1.04583
-0.193226
0.366214
0.744945
1.00686
1.18769
1.31079
1.38476
1.44223
-9.05747
-9.41349
-9.74738
-9.91434
-9.79708
-9.18788
-7.93945
-6.15708
-4.22134
-2.66912
-1.62385
-0.904561
-0.393005
-0.0272463
0.235214
0.420781
0.548452
0.627921
0.676831
-8.16026
-8.27525
-8.31868
-8.22232
-7.8762
-7.2041
-6.20826
-5.01749
-3.83326
-2.83575
-2.06976
-1.48732
-1.04681
-0.716221
-0.47069
-0.292669
-0.168389
-0.08961
-0.0506639
-7.44395
-7.42302
-7.325
-7.1119
-6.73494
-6.17117
-5.43905
-4.61084
-3.79196
-3.07355
-2.48229
-2.00786
-1.6343
-1.34466
-1.12406
-0.960857
-0.845351
-0.771693
-0.742493
-6.89136
-6.80033
-6.64528
-6.39968
-6.04908
-5.58999
-5.04256
-4.44765
-3.8597
-3.32618
-2.86718
-2.48501
-2.17466
-1.92792
-1.73617
-1.59198
-1.48867
-1.42277
-1.40214
-6.4773
-6.3563
-6.18348
-5.94851
-5.64616
-5.2792
-4.86283
-4.42288
-3.98964
-3.589
-3.23503
-2.93258
-2.68112
-2.47713
-2.31594
-2.193
-2.1039
-2.04712
-2.03361
-6.17568
-6.04901
-5.88351
-5.67593
-5.42573
-5.13728
-4.82109
-4.49298
-4.17071
-3.86957
-3.59921
-3.36422
-3.16559
-3.00203
-2.87108
-2.77
-2.69597
-2.64875
-2.64107
-5.96536
-5.84659
-5.70137
-5.52854
-5.32921
-5.10745
-4.87053
-4.62817
-4.39094
-4.1681
-3.9661
-3.78853
-3.6367
-3.51029
-3.40802
-3.32832
-3.26937
-3.23158
-3.22867
-5.82516
-5.72455
-5.60663
-5.47144
-5.32041
-5.15668
-4.98509
-4.81166
-4.64269
-4.48375
-4.33896
-4.21078
-4.10031
-4.00757
-3.93192
-3.87249
-3.82813
-3.7993
-3.80036
-5.74259
-5.66575
-5.57888
-5.4822
-5.37681
-5.26485
-5.14931
-5.03374
-4.92177
-4.81658
-4.72058
-4.63527
-4.56136
-4.49895
-4.44769
-4.40718
-4.37665
-4.35614
-4.36026
-5.70595
-5.65705
-5.60355
-5.54546
-5.48341
-5.41858
-5.35256
-5.28717
-5.2242
-5.16524
-5.11147
-5.06364
-5.0221
-4.98689
-4.95783
-4.93474
-4.9171
-4.904
-4.91089
-5.70833
-5.69059
-5.67191
-5.65231
-5.63202
-5.61143
-5.591
-5.57121
-5.55249
-5.53518
-5.51952
-5.50565
-5.49359
-5.48334
-5.47482
-5.46804
-5.46323
-5.45861
-5.46122
)
;

boundaryField
{
    leftWall
    {
        type            calculated;
        value           nonuniform List<scalar> 
50
(
1443.2
1383.31
1322.48
1261.01
1198.69
1135.96
1072.66
1008.86
908.37
769.93
630.491
490.673
351.288
213.959
90.781
19.4485
-3.20827
-3.33836
-3.49402
-3.6558
-3.81446
-3.97427
-4.1334
-4.28932
-4.4401
-4.58438
-4.72141
-4.85075
-4.9722
-5.08572
-5.19135
-5.28924
-5.3794
-5.46213
-5.53778
-5.60673
-5.66934
-5.72601
-5.77716
-5.82319
-5.86449
-5.90159
-5.93518
-5.96565
-5.9926
-6.01636
-6.04054
-6.06883
-6.09402
-6.09498
)
;
    }
    rightWall
    {
        type            calculated;
        value           nonuniform List<scalar> 
50
(
22.6053
22.5453
22.4838
22.4208
22.3563
22.2902
22.2223
22.1525
22.0402
21.8766
21.6993
21.504
21.2858
21.0382
20.7528
20.4202
20.0292
19.5682
19.0268
18.3977
17.6794
16.8771
16.0032
15.0755
14.1145
13.1399
12.167
11.2054
10.2592
9.32819
8.41014
7.50147
6.5987
5.70101
4.81483
3.93996
3.08071
2.24511
1.44223
0.676831
-0.0506639
-0.742493
-1.40214
-2.03361
-2.64107
-3.22867
-3.80036
-4.36026
-4.91089
-5.46122
)
;
    }
    lowerWall
    {
        type            calculated;
        value           nonuniform List<scalar> 
62
(
1472.63
1477.66
1480.91
1479.11
1471.4
1460.06
1447.5
1434.91
1422.82
1411.73
1402.3
1395.46
1392.48
1395.02
1405.4
1426.09
1458.81
1503.32
1553.37
1593
1595.7
1572.15
1614.71
1591.32
1532.97
1489.99
1461.48
1410.99
1324.96
1189.84
992.85
-8.1019
22.9222
20.7766
22.1219
22.778
22.7182
22.6575
22.596
22.5334
22.4672
22.3918
22.3164
22.8074
22.8064
22.8025
22.7973
22.7909
22.7831
22.7739
22.7632
22.7509
22.737
22.7221
22.7067
22.6914
22.6768
22.6637
22.6525
22.6438
22.6377
22.6347
)
;
    }
    atmosphere
    {
        type            calculated;
        value           nonuniform List<scalar> 
46
(
-6.07375
-6.07568
-6.07484
-6.07349
-6.07159
-6.0692
-6.06635
-6.06303
-6.05915
-6.05453
-6.04896
-6.04222
-6.03409
-6.0244
-6.01297
-5.99965
-5.98434
-5.967
-5.94763
-5.92614
-5.9024
-5.8766
-5.84911
-5.81452
-5.77491
-5.74293
-5.72904
-5.72904
-5.72904
-5.72904
-5.72904
-5.72904
-5.72904
-5.72904
-5.72904
-5.72904
-5.72904
-5.72904
-5.72904
-5.72904
-5.72904
-5.72904
-5.72904
-5.72904
-5.72904
-5.72904
)
;
    }
    defaultFaces
    {
        type            empty;
    }
}


// ************************************************************************* //
