/*--------------------------------*- C++ -*----------------------------------*\
| =========                 |                                                 |
| \\      /  F ield         | OpenFOAM: The Open Source CFD Toolbox           |
|  \\    /   O peration     | Version:  2206                                  |
|   \\  /    A nd           | Website:  www.openfoam.com                      |
|    \\/     M anipulation  |                                                 |
\*---------------------------------------------------------------------------*/
FoamFile
{
    version     2.0;
    format      ascii;
    arch        "LSB;label=32;scalar=64";
    class       volScalarField;
    location    "0.275";
    object      p_rgh;
}
// * * * * * * * * * * * * * * * * * * * * * * * * * * * * * * * * * * * * * //

dimensions      [1 -1 -2 0 0 0 0];

internalField   nonuniform List<scalar> 
2268
(
1472.63
1477.66
1480.91
1479.11
1471.4
1460.06
1447.5
1434.91
1422.82
1411.73
1402.3
1395.46
1392.48
1395.02
1405.4
1426.09
1458.81
1503.32
1553.37
1593
1595.7
1572.15
1614.71
1471.6
1476.86
1479.99
1478.11
1470.35
1459.05
1446.54
1433.96
1421.84
1410.66
1401.1
1394.09
1390.88
1393.05
1402.31
1420.49
1449.88
1491.4
1541.65
1585.17
1595.4
1559.37
1613.35
1469.63
1475.22
1478.14
1476.09
1468.27
1457.04
1444.61
1432.05
1419.86
1408.51
1398.69
1391.32
1387.66
1389.21
1397.64
1414.72
1441.62
1478.18
1521.47
1562.75
1586.38
1586.63
1636.45
1467.01
1472.57
1475.37
1473.1
1465.2
1454.06
1441.76
1429.21
1416.89
1405.27
1395.05
1387.16
1382.83
1383.54
1390.9
1406.43
1430.98
1463.95
1502.02
1539.51
1572.77
1600.51
1663.51
1463.56
1468.99
1471.72
1469.17
1461.18
1450.17
1437.99
1425.44
1412.92
1400.92
1390.15
1381.56
1376.36
1376
1382
1395.74
1417.88
1447.85
1482.96
1518.49
1555.72
1597.29
1670.73
1459.69
1464.7
1467.28
1464.39
1456.3
1445.41
1433.35
1420.74
1407.94
1395.44
1383.97
1374.48
1368.19
1366.49
1370.88
1382.62
1402.29
1429.41
1461.98
1495.86
1532.2
1574.16
1642.5
1455.24
1459.83
1462.07
1458.77
1450.6
1439.86
1427.88
1415.14
1401.96
1388.83
1376.49
1365.91
1358.29
1355.01
1357.5
1366.98
1384.03
1408.22
1437.85
1469.12
1500.5
1531.74
1565.22
1450.3
1454.45
1456.1
1452.29
1444.08
1433.53
1421.63
1408.71
1395.05
1381.16
1367.81
1355.96
1346.79
1341.64
1341.93
1348.88
1363.06
1384.15
1410.29
1437.55
1460.03
1473.9
1427.22
22.8074
22.8064
22.8025
22.7973
22.7909
22.7831
22.7739
22.7632
22.7509
22.737
22.7221
22.7067
22.6914
22.6768
22.6637
22.6525
22.6438
22.6377
22.6347
22.8064
22.8057
22.8023
22.7974
22.791
22.7833
22.7742
22.7635
22.7511
22.7372
22.7221
22.7065
22.6909
22.6762
22.6629
22.6516
22.6427
22.6366
22.6336
22.8047
22.8044
22.8018
22.7973
22.7912
22.7837
22.7749
22.7643
22.7518
22.7377
22.7223
22.7062
22.6902
22.675
22.6612
22.6496
22.6404
22.6341
22.6309
22.802
22.8026
22.801
22.7972
22.7914
22.7843
22.7759
22.7655
22.7529
22.7384
22.7225
22.7057
22.689
22.6731
22.6587
22.6464
22.6368
22.6301
22.6268
22.7983
22.8
22.8002
22.7971
22.7916
22.7851
22.7773
22.7672
22.7544
22.7395
22.7228
22.7051
22.6874
22.6705
22.6552
22.6422
22.6318
22.6247
22.6211
22.7909
22.7964
22.7993
22.7969
22.7917
22.7862
22.7791
22.7693
22.7564
22.7408
22.7232
22.7044
22.6854
22.6672
22.6508
22.6366
22.6254
22.6178
22.6139
22.7744
22.7914
22.7992
22.7966
22.7918
22.7874
22.7815
22.7721
22.7589
22.7426
22.7238
22.7035
22.6829
22.6632
22.6452
22.6297
22.6175
22.6091
22.6049
22.7579
22.7896
22.8015
22.7965
22.7916
22.7891
22.7846
22.7756
22.7622
22.7448
22.7245
22.7025
22.6799
22.6582
22.6383
22.6212
22.6078
22.5986
22.594
1441.84
1445.25
1445.78
1441.19
1432.87
1422.49
1410.57
1397.16
1382.55
1367.25
1352.04
1337.85
1325.83
1317.29
1313.65
1316.15
1325.28
1341.14
1361.4
1381
1383.63
1347.93
1098.13
1428.59
1430.96
1429.86
1424.02
1415.23
1404.53
1391.87
1377.09
1360.38
1342.26
1323.43
1304.84
1287.62
1273.1
1262.85
1258.13
1258.75
1264.44
1273.24
1280.9
1267.24
1212.77
1063.8
1414.35
1415.34
1412.04
1404.69
1395.19
1383.71
1369.67
1352.81
1333.31
1311.57
1288.3
1264.35
1240.8
1218.92
1199.72
1185.27
1179.79
1183.89
1184.85
1194.48
1195.3
1165.84
1108.75
1399.72
1398.38
1392.53
1383.77
1373.4
1360.57
1344.55
1325.18
1302.47
1276.56
1248
1216.76
1182.78
1147.35
1103.16
1033.85
948.713
859.277
880.235
983.108
1080.88
1101.89
1099.37
1385.53
1381.05
1372.56
1362.5
1350.89
1335.81
1317.08
1294.44
1267.4
1235.11
1189.11
1105.63
953.079
728.817
484.045
284.147
155.776
82.8882
94.9808
137.404
236.966
439.893
826.864
1373.24
1363.84
1350.03
1338.48
1325.34
1301.67
1257.3
1178.3
1049.51
847.453
570.499
317.363
66.6213
-0.875752
-1.16651
-1.0766
-1.00771
-0.942765
-0.783397
-0.126862
0.726457
1.83868
46.9873
1338.94
1056.5
986.912
950.007
861.136
696.332
504.019
314.739
145.542
-1.02569
-1.27037
-1.43578
-1.43399
-1.40861
-1.38279
-1.31483
-1.22572
-1.15863
-1.03895
-0.433021
-0.0810121
0.0927435
-0.17222
523.214
135.525
83.5327
60.4172
16.5447
-1.36357
-1.50425
-1.56409
-1.58234
-1.50927
-1.54355
-1.59323
-1.64034
-1.65567
-1.63499
-1.59271
-1.52009
-1.46494
-1.00683
1.20158
1.33798
0.890005
-0.679448
-1.67325
-1.6702
-1.63857
-1.62026
-1.59447
-1.56935
-1.57559
-1.59156
-1.60915
-1.62279
-1.67157
-1.75718
-1.8768
-1.78679
-1.66703
-1.94847
-1.95175
-1.81587
0.167971
0.98772
0.602678
0.0893998
-1.33958
-1.67815
-1.65925
-1.65296
-1.64751
-1.64047
-1.63351
-1.63722
-1.65367
-1.68588
-1.74821
-1.8506
-1.98739
-1.87794
-1.68214
-1.91132
-2.2739
-2.38342
-1.88811
0.852396
0.626812
0.107877
-2.54003
-3.66758
-1.7086
-1.68917
-1.69188
-1.69446
-1.69629
-1.70201
-1.71581
-1.74066
-1.78916
-1.88305
-2.02687
-1.99579
-1.69957
-1.88899
-2.27017
-2.78037
-2.61154
-0.639913
0.606127
-0.376877
-3.00656
-3.45465
-3.65186
-1.7452
-1.74041
-1.74132
-1.74689
-1.75541
-1.76973
-1.79205
-1.82628
-1.88801
-1.99903
-2.16714
-2.11252
-1.71933
-1.86639
-2.75384
-2.69726
-0.765472
0.082469
-0.591443
-3.01141
-3.29543
-3.4624
-3.64438
-1.77866
-1.78196
-1.78662
-1.79719
-1.81228
-1.83406
-1.86414
-1.90679
-1.97521
-2.08681
-2.23811
-2.44934
-1.8678
-1.70453
-1.97656
-0.588906
-0.492921
-1.47254
-3.05926
-3.18175
-3.32904
-3.49417
-3.67815
-1.81327
-1.82208
-1.82964
-1.84441
-1.86494
-1.89286
-1.92953
-1.97843
-2.04828
-2.15063
-2.29158
-2.46616
-2.46396
-1.5729
-1.64745
-1.75959
-2.91064
-3.0361
-3.11171
-3.23326
-3.38517
-3.55897
-3.75151
-1.84721
-1.85837
-1.86845
-1.88646
-1.9112
-1.94385
-1.98573
-2.03928
-2.10915
-2.20173
-2.32101
-2.46545
-2.6225
-2.76162
-2.78588
-2.93192
-2.9837
-3.05657
-3.16285
-3.30149
-3.46356
-3.64886
-3.85164
-1.87794
-1.88936
-1.90163
-1.92197
-1.94978
-1.98586
-2.03138
-2.08799
-2.15817
-2.24491
-2.34977
-2.47082
-2.59925
-2.71978
-2.8233
-2.91331
-2.99976
-3.10321
-3.22838
-3.37825
-3.55142
-3.74963
-3.9685
-1.90352
-1.91437
-1.9283
-1.95023
-1.98006
-2.01832
-2.06594
-2.124
-2.19421
-2.27776
-2.37523
-2.48413
-2.59941
-2.71328
-2.82151
-2.92635
-3.03355
-3.15376
-3.29272
-3.45466
-3.64097
-3.85257
-4.09134
-1.92261
-1.93276
-1.94777
-1.97074
-2.00177
-2.04125
-2.08989
-2.14845
-2.21797
-2.29887
-2.39342
-2.49597
-2.60537
-2.71745
-2.8304
-2.94503
-3.06656
-3.20056
-3.35252
-3.5267
-3.72592
-3.95193
-4.20984
-1.93444
-1.94399
-1.95962
-1.98321
-2.01488
-2.05496
-2.10397
-2.16256
-2.23146
-2.31122
-2.40209
-2.50233
-2.60951
-2.72191
-2.83899
-2.96196
-3.09422
-3.23997
-3.40371
-3.58957
-3.80127
-4.04216
-4.31731
-1.93859
-1.94768
-1.9636
-1.98749
-2.01944
-2.05971
-2.10869
-2.167
-2.23524
-2.31384
-2.40285
-2.50143
-2.60791
-2.72167
-2.84245
-2.97215
-3.11306
-3.26861
-3.44268
-3.63938
-3.8629
-4.11789
-4.4096
-1.93484
-1.9436
-1.9596
-1.98354
-2.01549
-2.05564
-2.10435
-2.16215
-2.22964
-2.30721
-2.395
-2.49234
-2.59858
-2.71354
-2.83755
-2.97241
-3.12016
-3.28363
-3.46639
-3.67258
-3.90676
-4.1743
-4.48103
-1.92316
-1.93164
-1.94756
-1.97138
-2.00309
-2.04287
-2.09107
-2.14817
-2.21477
-2.2913
-2.37787
-2.47424
-2.58017
-2.6959
-2.82207
-2.96055
-3.11324
-3.28267
-3.4722
-3.68598
-3.92902
-4.20716
-4.52617
-1.9036
-1.91178
-1.92751
-1.95104
-1.98233
-2.02152
-2.06895
-2.12512
-2.19061
-2.26587
-2.35111
-2.4463
-2.55149
-2.6672
-2.79449
-2.9349
-3.09055
-3.26383
-3.4578
-3.67673
-3.92626
-4.21288
-4.54172
-1.8763
-1.88404
-1.89953
-1.92264
-1.95333
-1.99173
-2.03816
-2.09312
-2.15717
-2.23083
-2.31437
-2.40794
-2.51177
-2.62653
-2.75345
-2.89422
-3.05085
-3.22568
-3.42136
-3.64225
-3.89517
-4.18729
-4.52376
-1.84126
-1.84872
-1.86382
-1.88637
-1.9163
-1.95371
-1.99889
-2.05232
-2.11458
-2.18619
-2.26752
-2.35883
-2.46048
-2.57325
-2.6984
-2.83763
-2.99291
-3.16648
-3.36126
-3.58153
-3.83391
-4.12638
-4.46411
-1.7988
-1.806
-1.82063
-1.84249
-1.87149
-1.90771
-1.95139
-2.00299
-2.06306
-2.13213
-2.21064
-2.29894
-2.3975
-2.50713
-2.62906
-2.7649
-2.91655
-3.08628
-3.27702
-3.4929
-3.74041
-4.02786
-4.36119
-1.74926
-1.75618
-1.77026
-1.79132
-1.81923
-1.85405
-1.89599
-1.94546
-2.00295
-2.06899
-2.14404
-2.22853
-2.32302
-2.42833
-2.54559
-2.67622
-2.82202
-2.98521
-3.16867
-3.37629
-3.61417
-3.89041
-4.21163
-1.69301
-1.69962
-1.71307
-1.7332
-1.75987
-1.7931
-1.83306
-1.88011
-1.93466
-1.99721
-2.06819
-2.14811
-2.23757
-2.3374
-2.44859
-2.57233
-2.71017
-2.86422
-3.03725
-3.23278
-3.4562
-3.71486
-4.01533
-1.63042
-1.6367
-1.64944
-1.66853
-1.6938
-1.72525
-1.763
-1.80735
-1.85865
-1.91729
-1.98369
-2.05834
-2.1419
-2.23517
-2.33903
-2.45438
-2.58242
-2.72505
-2.88482
-3.06478
-3.26934
-3.50461
-3.77629
-1.56191
-1.5678
-1.57979
-1.59773
-1.62144
-1.65092
-1.68624
-1.72763
-1.77538
-1.82979
-1.89119
-1.96001
-2.03691
-2.12269
-2.21812
-2.32382
-2.44059
-2.56996
-2.71417
-2.87574
-3.05794
-3.26526
-3.50194
-1.48786
-1.49336
-1.50451
-1.5212
-1.54323
-1.57056
-1.60324
-1.64143
-1.68538
-1.73528
-1.79134
-1.85393
-1.92362
-2.00118
-2.08729
-2.18236
-2.28677
-2.40157
-2.52862
-2.66986
-2.82741
-3.00403
-3.2023
-1.40869
-1.41375
-1.42403
-1.43939
-1.45962
-1.48464
-1.51448
-1.54927
-1.58917
-1.63433
-1.68484
-1.74093
-1.80307
-1.87192
-1.94812
-2.03188
-2.12325
-2.22278
-2.33182
-2.45178
-2.58375
-2.72894
-2.88832
-1.3248
-1.3294
-1.33875
-1.35272
-1.37106
-1.39365
-1.4205
-1.45169
-1.48735
-1.52758
-1.57239
-1.62185
-1.67628
-1.73622
-1.8022
-1.87434
-1.95242
-2.03653
-2.12748
-2.22616
-2.33289
-2.44765
-2.57009
-1.2367
-1.24083
-1.24923
-1.26176
-1.27813
-1.29822
-1.32196
-1.3494
-1.38067
-1.41581
-1.45479
-1.49759
-1.54433
-1.59538
-1.65115
-1.71171
-1.77664
-1.84568
-1.9191
-1.99733
-2.08013
-2.16667
-2.25567
-1.1451
-1.14876
-1.15618
-1.16724
-1.1816
-1.19912
-1.21968
-1.24329
-1.27005
-1.3
-1.3331
-1.36924
-1.40841
-1.45079
-1.49663
-1.54593
-1.5982
-1.65288
-1.70982
-1.76903
-1.82991
-1.89116
-1.95099
-1.05038
-1.05357
-1.05999
-1.06957
-1.0819
-1.09682
-1.11418
-1.13395
-1.15618
-1.18094
-1.20817
-1.23776
-1.26959
-1.30367
-1.34009
-1.37875
-1.41912
-1.46047
-1.5023
-1.5443
-1.58569
-1.62495
-1.66012
-0.952132
-0.954868
-0.960269
-0.968331
-0.978614
-0.99095
-1.00514
-1.02112
-1.03891
-1.05855
-1.08004
-1.10328
-1.12811
-1.1544
-1.18208
-1.21096
-1.24046
-1.26976
-1.29814
-1.32504
-1.3496
-1.37036
-1.3854
-0.850693
-0.852983
-0.857327
-0.863826
-0.872032
-0.881767
-0.892817
-0.905074
-0.918522
-0.9332
-0.949124
-0.966226
-0.984354
-1.00332
-1.02295
-1.04291
-1.0626
-1.08116
-1.09777
-1.11174
-1.12222
-1.12798
-1.12734
-0.74968
-0.751551
-0.754812
-0.759689
-0.765767
-0.772888
-0.78084
-0.789488
-0.79878
-0.808722
-0.819331
-0.830571
-0.842309
-0.854319
-0.866329
-0.877948
-0.888564
-0.89732
-0.90339
-0.906105
-0.904786
-0.898515
-0.886018
-0.65278
-0.654316
-0.656463
-0.659707
-0.663685
-0.668264
-0.673275
-0.678581
-0.6841
-0.689795
-0.695636
-0.701558
-0.707414
-0.712957
-0.717853
-0.721659
-0.723802
-0.723509
-0.720019
-0.712764
-0.701273
-0.685002
-0.663175
-0.552775
-0.553773
-0.554935
-0.556556
-0.558434
-0.560515
-0.562707
-0.564906
-0.567014
-0.568927
-0.570536
-0.571692
-0.572192
-0.571777
-0.570119
-0.566803
-0.561362
-0.553232
-0.541829
-0.526689
-0.507438
-0.483749
-0.455234
-0.428537
-0.429597
-0.42963
-0.429423
-0.428941
-0.428231
-0.427283
-0.426044
-0.424416
-0.422248
-0.419343
-0.415482
-0.410434
-0.403965
-0.395828
-0.385744
-0.373452
-0.358709
-0.341258
-0.320828
-0.297175
-0.270188
-0.239911
401.327
35.3596
21.2683
22.5995
705.541
406.174
21.2231
22.9275
923.895
790.336
568.746
98.9963
1030.79
933.03
892.427
767.083
1085.94
1062.25
1035.69
1012.21
229.869
685.33
1163.74
1134.85
-1.75992
13.6104
160.356
803.628
-3.3257
-3.90682
-3.8435
30.4614
-3.91458
-4.3471
-4.52788
-4.64304
-3.99602
-4.31904
-4.60627
-4.85037
-3.90678
-4.2301
-4.55622
-4.85215
-3.88759
-4.21553
-4.54247
-4.8339
-3.9343
-4.26394
-4.59858
-4.86964
-4.02661
-4.3897
-4.74387
-4.90923
-4.14833
-4.54376
-4.95492
-4.94612
-4.2879
-4.72706
-5.19993
-5.66582
-4.42474
-4.90518
-5.23625
-5.91436
-4.56317
-5.08265
-5.41297
-6.20594
-4.6988
-5.2554
-5.86835
-6.53692
-4.81666
-5.40345
-6.15399
-6.6193
-4.90904
-5.52974
-6.3396
-6.89299
-4.97057
-5.61583
-6.4656
-7.24016
-4.99858
-5.66345
-6.53778
-7.48562
-4.9901
-5.66576
-6.58671
-7.60888
-4.93714
-5.64444
-6.59585
-7.71224
-4.8339
-5.55618
-6.54339
-7.79397
-4.67168
-5.3847
-6.37244
-7.71321
-4.44764
-5.12025
-6.055
-7.39509
-4.16615
-4.76784
-5.59301
-6.7978
-3.83799
-4.34582
-5.01937
-5.97649
-3.47878
-3.8833
-4.39538
-5.07793
-3.10518
-3.40925
-3.77229
-4.21535
-2.73132
-2.94488
-3.17954
-3.42977
-2.3677
-2.50425
-2.63519
-2.7422
-2.02126
-2.09544
-2.14762
-2.15622
-1.69626
-1.72227
-1.71842
-1.66521
-1.39474
-1.38551
-1.34484
-1.25757
-1.11679
-1.08369
-1.02176
-0.920899
-0.86152
-0.813968
-0.742902
-0.642972
-0.628667
-0.573147
-0.501722
-0.413557
-0.414137
-0.355815
-0.290586
-0.222927
-0.199402
-0.148256
-0.10004
-0.063947
22.8037
22.8107
22.8114
22.7952
22.7905
22.7921
22.7906
22.7827
22.7685
22.7491
22.726
22.7005
22.6743
22.6488
22.6255
22.6055
22.5898
22.5791
22.5736
22.9766
22.8677
22.8256
22.778
22.7824
22.7975
22.8036
22.798
22.7819
22.7579
22.7287
22.6964
22.6631
22.6307
22.6011
22.5757
22.5558
22.5422
22.5353
22.8569
22.7652
22.7129
22.7008
22.7626
22.8099
22.8275
22.8228
22.802
22.7705
22.7322
22.6902
22.6471
22.6054
22.5673
22.5348
22.5093
22.4919
22.4831
315.965
45.6742
23.273
22.6595
22.7791
22.8543
22.8766
22.8637
22.8306
22.7866
22.7355
22.6803
22.6242
22.5702
22.5211
22.4793
22.4467
22.4244
22.4131
976.294
850.861
274.389
34.6793
23.4353
23.0556
22.968
22.9233
22.8679
22.8045
22.7362
22.6639
22.5909
22.5211
22.458
22.4047
22.3631
22.3346
22.3201
1106.95
1105.64
1064.09
581.284
55.0347
24.0792
23.2226
22.9988
22.906
22.8204
22.7302
22.6366
22.5422
22.4525
22.372
22.3044
22.2519
22.2159
22.1976
1239.39
1217.11
1190.1
1166.06
706.985
74.7557
24.926
23.373
22.9712
22.8279
22.713
22.5921
22.4706
22.3561
22.2546
22.1699
22.1046
22.0601
22.0375
305.802
1113.35
1264.44
1243.86
1209.08
643.78
63.2979
26.3696
23.4751
22.8685
22.679
22.522
22.3649
22.22
22.0939
21.9902
21.9108
21.8571
21.8301
-4.80049
120.696
897.069
1299.45
1270.72
1134.41
420.878
42.504
27.1032
23.5221
22.714
22.4245
22.2095
22.0272
21.8745
21.7512
21.6579
21.5954
21.5642
-5.07732
-5.09138
140.119
1063.6
1313.32
1269.66
836.288
163.918
35.1986
25.5166
23.0164
22.3123
21.9818
21.7533
21.5759
21.4361
21.3319
21.2626
21.2284
-5.03328
-5.15848
-4.81711
410.523
1290.28
1301.74
1197.25
385.998
47.0492
28.7048
23.5482
22.1384
21.638
21.3671
21.1752
21.0279
20.9191
20.8474
20.8122
-5.01176
-5.07893
-4.94263
10.9964
970.804
1339.72
1243.92
614.215
81.2957
31.8403
24.0196
21.8111
21.1343
20.8418
20.6542
20.5133
20.4096
20.3415
20.3083
-5.07526
-5.19145
-5.09612
-3.53044
485.856
1311.87
1235.11
860.436
134.392
33.9351
24.0586
21.2371
20.4471
20.1678
20.0069
19.8882
19.8007
19.7431
19.7152
-5.22783
-5.65406
-5.90728
-6.02433
213.57
1166.18
1280.26
1036.58
221.464
35.9093
23.7644
20.4173
19.5864
19.3574
19.2432
19.1607
19.099
19.0578
19.0381
-5.45348
-6.2901
-6.91613
-7.60508
236.445
1170.23
1292.61
1124.91
301.198
36.7363
22.9565
19.3238
18.5773
18.4388
18.3865
18.3498
18.32
18.2992
18.2894
-6.15499
-6.40358
-5.69804
16.8727
602.821
1235.45
1286.25
1108.16
291.266
35.0476
21.2732
17.9769
17.4769
17.4495
17.4683
17.4816
17.4858
17.4865
17.4869
-5.99371
-4.85617
18.6733
262.361
1163.94
1234.3
1275.49
818.306
120.23
28.6285
18.6869
16.5837
16.3771
16.4483
16.5304
16.587
16.6214
16.6415
16.6511
-6.59814
19.3317
220.395
956.688
1116.8
1108.92
759.607
199.984
56.8324
22.9874
17.0582
15.5593
15.3855
15.495
15.612
15.6957
15.7511
15.7851
15.8016
-7.02115
6.86642
650.581
901.717
799.711
472.701
96.1842
41.7429
29.2788
18.5424
15.7288
14.6725
14.4879
14.6061
14.7328
14.827
14.8923
14.9336
14.954
-7.71687
-9.0028
621.233
821.54
377.114
77.4384
40.8816
24.2407
17.3834
14.7423
13.7757
13.656
13.6518
13.7757
13.8963
13.9883
14.054
14.0965
14.1176
-7.99944
-8.85673
454.008
835.426
355.079
38.4351
23.6106
16.9544
14.0872
12.9921
12.6898
12.7465
12.8824
12.9966
13.0988
13.1793
13.2384
13.2772
13.2965
-7.52897
-8.35526
319.99
792.38
708.056
58.7586
15.7745
13.5886
12.4636
12.0664
12.0049
12.0715
12.1655
12.2542
12.3316
12.3949
12.4429
12.4748
12.4907
-6.53203
-8.08249
69.0031
717.342
699.528
536.497
22.3782
12.2344
11.6513
11.3841
11.3649
11.4249
11.4788
11.5311
11.5822
11.6267
11.6618
11.6859
11.6979
-6.85782
-8.17591
-8.51965
655.437
710.434
717.077
349.403
15.1831
11.6195
10.8021
10.7232
10.7799
10.7953
10.8113
10.8374
10.8645
10.888
10.9053
10.9144
-8.51447
-4.44459
-7.38981
440.988
729.917
718.37
722.527
117.356
14.5196
10.658
10.1408
10.1229
10.0931
10.0766
10.0831
10.098
10.1144
10.1283
10.1368
-8.70493
-4.70618
-4.4619
29.3686
734.955
724.733
737.233
679.272
102.411
11.6719
9.6126
9.36595
9.31509
9.29516
9.30123
9.31757
9.33564
9.35152
9.36434
-9.05145
-8.64374
1.77187
-2.73862
487.772
742.663
739.077
742.438
139.724
10.3491
8.38174
8.31898
8.38234
8.43241
8.47873
8.51875
8.55174
8.5727
8.60335
-8.93519
-10.3247
-4.99996
9.39857
47.5527
504.046
606.54
388.784
111.486
12.4435
7.68079
7.25089
7.36284
7.51809
7.63317
7.71327
7.77312
7.80286
7.85368
-8.2836
-9.73801
-11.02
-1.95063
3.67763
52.5483
88.2378
19.0492
37.5886
12.6643
6.38994
6.0588
6.35077
6.6169
6.80055
6.92575
7.0121
7.05848
7.11962
-7.14009
-8.30525
-9.77054
-5.20411
-3.4516
-8.69918
-3.74602
-0.14968
0.644199
2.94056
4.11808
4.90039
5.43081
5.77985
6.01517
6.17551
6.28452
6.34676
6.40922
-5.82895
-6.54481
-7.36855
-6.11613
-5.90622
-6.70839
-4.84791
-2.06305
0.232036
1.95523
3.26213
4.09673
4.6555
5.03424
5.29616
5.47699
5.60009
5.67407
5.73153
-4.64044
-4.98945
-5.30101
-5.0762
-4.58584
-4.00135
-2.76966
-1.02453
0.587196
1.81687
2.79746
3.51019
4.02149
4.38725
4.64971
4.83528
4.96295
5.04242
5.09133
-3.6202
-3.73407
-3.7736
-3.61241
-3.18999
-2.49728
-1.49003
-0.296763
0.817351
1.7272
2.47228
3.05247
3.49288
3.82347
4.069
4.24702
4.3713
4.45008
4.48903
-2.77902
-2.75791
-2.65911
-2.43933
-2.0531
-1.47797
-0.734404
0.0968587
0.900827
1.59834
2.18335
2.65706
3.03059
3.32023
3.54083
3.70403
3.81954
3.89319
3.92239
-2.10127
-2.01021
-1.85502
-1.60901
-1.25708
-0.795104
-0.244036
0.352012
0.936991
1.46587
1.92313
2.30509
2.61542
2.86216
3.05391
3.1981
3.30141
3.36731
3.38794
-1.56202
-1.44102
-1.26818
-1.03314
-0.730544
-0.363002
0.0541687
0.494461
0.927138
1.32681
1.68031
1.9827
2.23416
2.43815
2.59933
2.72227
2.81138
2.86816
2.88167
-1.13521
-1.00854
-0.843039
-0.635443
-0.385201
-0.0966352
0.219716
0.547922
0.870093
1.17103
1.44128
1.67625
1.87488
2.03844
2.16939
2.27047
2.3445
2.39172
2.3994
-0.799698
-0.680925
-0.535702
-0.362875
-0.163535
0.0582444
0.295202
0.537581
0.774797
0.997598
1.19957
1.37714
1.52896
1.65537
1.75764
1.83734
1.89629
1.93408
1.937
-0.534297
-0.433687
-0.315773
-0.180583
-0.029545
0.134186
0.30578
0.47922
0.648189
0.807113
0.951903
1.08008
1.19055
1.28328
1.35894
1.41837
1.46273
1.49156
1.4905
-0.326534
-0.249696
-0.162831
-0.0661427
0.0392466
0.151208
0.266745
0.382313
0.494287
0.599474
0.695477
0.780788
0.854694
0.917107
0.968362
1.00888
1.03941
1.05991
1.05579
-0.164701
-0.115806
-0.0623014
-0.0042094
0.0578401
0.122668
0.188688
0.254084
0.317049
0.376006
0.429775
0.477608
0.519151
0.55436
0.583419
0.606503
0.62415
0.637245
0.630354
-0.0418867
-0.0241489
-0.00546854
0.0141363
0.0344261
0.0550151
0.0754428
0.0952343
0.113957
0.131263
0.146918
0.160794
0.172848
0.1831
0.191627
0.198398
0.203209
0.207836
0.205226
)
;

boundaryField
{
    leftWall
    {
        type            fixedFluxPressure;
        gradient        uniform 0;
        value           nonuniform List<scalar> 
50
(
1472.63
1471.6
1469.63
1467.01
1463.56
1459.69
1455.24
1450.3
1441.84
1428.59
1414.35
1399.72
1385.53
1373.24
1338.94
523.214
-1.67325
-1.67815
-1.7086
-1.7452
-1.77866
-1.81327
-1.84721
-1.87794
-1.90352
-1.92261
-1.93444
-1.93859
-1.93484
-1.92316
-1.9036
-1.8763
-1.84126
-1.7988
-1.74926
-1.69301
-1.63042
-1.56191
-1.48786
-1.40869
-1.3248
-1.2367
-1.1451
-1.05038
-0.952132
-0.850693
-0.74968
-0.65278
-0.552775
-0.428537
)
;
    }
    rightWall
    {
        type            fixedFluxPressure;
        gradient        uniform 0;
        value           nonuniform List<scalar> 
50
(
22.6347
22.6336
22.6309
22.6268
22.6211
22.6139
22.6049
22.594
22.5736
22.5353
22.4831
22.4131
22.3201
22.1976
22.0375
21.8301
21.5642
21.2284
20.8122
20.3083
19.7152
19.0381
18.2894
17.4869
16.6511
15.8016
14.954
14.1176
13.2965
12.4907
11.6979
10.9144
10.1368
9.36434
8.60335
7.85368
7.11962
6.40922
5.73153
5.09133
4.48903
3.92239
3.38794
2.88167
2.3994
1.937
1.4905
1.05579
0.630354
0.205226
)
;
    }
    lowerWall
    {
        type            fixedFluxPressure;
        gradient        uniform 0;
        value           nonuniform List<scalar> 
62
(
1472.63
1477.66
1480.91
1479.11
1471.4
1460.06
1447.5
1434.91
1422.82
1411.73
1402.3
1395.46
1392.48
1395.02
1405.4
1426.09
1458.81
1503.32
1553.37
1593
1595.7
1572.15
1614.71
1614.71
1613.35
1636.45
1663.51
1670.73
1642.5
1565.22
1427.22
401.327
35.3596
21.2683
22.5995
22.8074
22.8064
22.8047
22.802
22.7983
22.7909
22.7744
22.7579
22.8074
22.8064
22.8025
22.7973
22.7909
22.7831
22.7739
22.7632
22.7509
22.737
22.7221
22.7067
22.6914
22.6768
22.6637
22.6525
22.6438
22.6377
22.6347
)
;
    }
    atmosphere
    {
        type            totalPressure;
        rho             rho;
        psi             none;
        gamma           1;
        p0              uniform 0;
        value           nonuniform List<scalar> 
46
(
-0.344715
-0.34664
-0.345801
-0.344452
-0.342547
-0.340157
-0.337313
-0.333993
-0.330106
-0.325487
-0.319921
-0.313179
-0.305052
-0.29536
-0.283933
-0.270613
-0.255297
-0.237961
-0.218595
-0.197097
-0.173362
-0.147563
-0.120071
-0.085476
-0.0458681
-0.0138861
0
0
0
0
0
0
0
0
0
0
0
0
0
0
0
0
0
0
0
0
)
;
    }
    defaultFaces
    {
        type            empty;
    }
}


// ************************************************************************* //
