/*--------------------------------*- C++ -*----------------------------------*\
| =========                 |                                                 |
| \\      /  F ield         | OpenFOAM: The Open Source CFD Toolbox           |
|  \\    /   O peration     | Version:  2206                                  |
|   \\  /    A nd           | Website:  www.openfoam.com                      |
|    \\/     M anipulation  |                                                 |
\*---------------------------------------------------------------------------*/
FoamFile
{
    version     2.0;
    format      ascii;
    arch        "LSB;label=32;scalar=64";
    class       surfaceScalarField;
    location    "0.275";
    object      phi;
}
// * * * * * * * * * * * * * * * * * * * * * * * * * * * * * * * * * * * * * //

dimensions      [0 3 -1 0 0 0 0];

oriented        oriented;

internalField   nonuniform List<scalar> 
4432
(
-2.58239e-07
2.58239e-07
3.8799e-06
-4.13814e-06
1.00297e-05
-6.14976e-06
1.62873e-05
-6.25764e-06
2.18141e-05
-5.52677e-06
2.653e-05
-4.71594e-06
3.06505e-05
-4.1205e-06
3.44129e-05
-3.76237e-06
3.79685e-05
-3.55559e-06
4.13619e-05
-3.39344e-06
4.45492e-05
-3.18725e-06
4.74216e-05
-2.87243e-06
4.98243e-05
-2.40267e-06
5.1525e-05
-1.70077e-06
5.20889e-05
-5.6388e-07
5.06572e-05
1.43167e-06
4.57792e-05
4.87801e-06
3.58923e-05
9.88696e-06
2.03368e-05
1.55555e-05
1.2722e-06
1.90646e-05
-1.32889e-05
1.45611e-05
-1.70711e-05
3.78213e-06
-1.70711e-05
-1.62727e-07
4.2096e-07
4.00161e-06
-8.30247e-06
1.01636e-05
-1.23118e-05
1.64066e-05
-1.25006e-05
2.1915e-05
-1.10352e-05
2.66248e-05
-9.42566e-06
3.07598e-05
-8.25556e-06
3.45569e-05
-7.55943e-06
3.81608e-05
-7.15953e-06
4.16105e-05
-6.84307e-06
4.48588e-05
-6.43557e-06
4.77992e-05
-5.8128e-06
5.0275e-05
-4.87848e-06
5.21064e-05
-3.53224e-06
5.32044e-05
-1.66183e-06
5.36475e-05
9.88556e-07
5.35345e-05
4.99098e-06
5.16869e-05
1.17346e-05
4.50669e-05
2.21754e-05
3.04118e-05
3.37198e-05
9.93926e-06
3.50337e-05
-1.87933e-06
1.56007e-05
-1.89504e-05
-1.28599e-08
4.33816e-07
4.19372e-06
-1.2509e-05
1.03351e-05
-1.84531e-05
1.64911e-05
-1.86566e-05
2.19038e-05
-1.6448e-05
2.65499e-05
-1.40717e-05
3.06683e-05
-1.2374e-05
3.4491e-05
-1.13821e-05
3.81487e-05
-1.08173e-05
4.16675e-05
-1.03618e-05
4.49937e-05
-9.76182e-06
4.80201e-05
-8.83921e-06
5.06022e-05
-7.46058e-06
5.25692e-05
-5.49925e-06
5.37073e-05
-2.79983e-06
5.38205e-05
8.75326e-07
5.29375e-05
5.87394e-06
5.17335e-05
1.29386e-05
5.05094e-05
2.33995e-05
4.6373e-05
3.78561e-05
3.4012e-05
4.73947e-05
1.55477e-05
3.4065e-05
-3.40268e-06
1.48684e-07
2.85131e-07
4.47802e-06
-1.68384e-05
1.05861e-05
-2.45612e-05
1.66119e-05
-2.46824e-05
2.18883e-05
-2.17244e-05
2.64522e-05
-1.86356e-05
3.05595e-05
-1.64813e-05
3.44302e-05
-1.52528e-05
3.81733e-05
-1.45604e-05
4.17968e-05
-1.39853e-05
4.52386e-05
-1.32036e-05
4.83918e-05
-1.19924e-05
5.11192e-05
-1.0188e-05
5.32595e-05
-7.63955e-06
5.46311e-05
-4.17137e-06
5.50396e-05
4.66824e-07
5.43103e-05
6.60323e-06
5.26078e-05
1.46411e-05
5.10887e-05
2.49186e-05
5.02758e-05
3.86691e-05
4.44988e-05
5.31717e-05
2.67635e-05
5.18003e-05
2.33608e-05
3.75772e-07
-9.06399e-08
4.83924e-06
-2.13019e-05
1.08869e-05
-3.06088e-05
1.67391e-05
-3.05346e-05
2.18459e-05
-2.68312e-05
2.63171e-05
-2.31068e-05
3.0423e-05
-2.05872e-05
3.43629e-05
-1.91927e-05
3.82168e-05
-1.84142e-05
4.19711e-05
-1.77396e-05
4.55548e-05
-1.67873e-05
4.88629e-05
-1.53005e-05
5.17673e-05
-1.30924e-05
5.41222e-05
-9.99442e-06
5.57681e-05
-5.81731e-06
5.65454e-05
-3.10486e-07
5.63083e-05
6.84033e-06
5.49562e-05
1.59932e-05
5.2682e-05
2.71928e-05
5.08264e-05
4.05248e-05
4.70572e-05
5.69408e-05
3.1932e-05
6.69255e-05
5.52928e-05
6.7155e-07
-7.62187e-07
5.26057e-06
-2.58909e-05
1.12131e-05
-3.65614e-05
1.68524e-05
-3.6174e-05
2.17674e-05
-3.17462e-05
2.61459e-05
-2.74853e-05
3.02653e-05
-2.47067e-05
3.42945e-05
-2.32218e-05
3.82784e-05
-2.23982e-05
4.21808e-05
-2.1642e-05
4.59233e-05
-2.05298e-05
4.94053e-05
-1.87825e-05
5.25108e-05
-1.61979e-05
5.51102e-05
-1.25938e-05
5.70638e-05
-7.77098e-06
5.82306e-05
-1.47727e-06
5.84711e-05
6.59987e-06
5.768e-05
1.67843e-05
5.55538e-05
2.9319e-05
5.23865e-05
4.3692e-05
4.78454e-05
6.14819e-05
3.42408e-05
8.05301e-05
8.95336e-05
1.01504e-06
-1.77722e-06
5.72729e-06
-3.06031e-05
1.15466e-05
-4.23807e-05
1.69404e-05
-4.15677e-05
2.16545e-05
-3.64603e-05
2.59514e-05
-3.17822e-05
3.01037e-05
-2.8859e-05
3.424e-05
-2.73582e-05
3.83673e-05
-2.65255e-05
4.24279e-05
-2.57026e-05
4.634e-05
-2.44418e-05
5.00121e-05
-2.24546e-05
5.33422e-05
-1.9528e-05
5.6214e-05
-1.54656e-05
5.85018e-05
-1.00588e-05
6.00758e-05
-3.05125e-06
6.07931e-05
5.88261e-06
6.05399e-05
1.70375e-05
5.9011e-05
3.08479e-05
5.56674e-05
4.70356e-05
5.00723e-05
6.70771e-05
3.80991e-05
9.25034e-05
0.000127633
1.3897e-06
-3.16692e-06
6.21812e-06
-3.54316e-05
1.18694e-05
-4.80319e-05
1.70034e-05
-4.67017e-05
2.15267e-05
-4.09836e-05
2.5764e-05
-3.60196e-05
2.99704e-05
-3.30653e-05
3.42282e-05
-3.16159e-05
3.8507e-05
-3.08043e-05
4.27332e-05
-2.99288e-05
4.68285e-05
-2.85371e-05
5.07151e-05
-2.63413e-05
5.43022e-05
-2.31151e-05
5.7478e-05
-1.86414e-05
6.01259e-05
-1.27067e-05
6.21239e-05
-5.04922e-06
6.332e-05
4.6865e-06
6.3598e-05
1.67594e-05
6.27535e-05
3.16924e-05
6.0179e-05
4.961e-05
5.43921e-05
7.2864e-05
4.25587e-05
0.000104337
0.000170191
4.67747e-06
-4.67747e-06
8.66875e-06
-3.99135e-06
1.13877e-05
-2.71907e-06
1.34344e-05
-2.0467e-06
1.50429e-05
-1.60863e-06
1.62992e-05
-1.25634e-06
1.72049e-05
-9.05904e-07
1.77155e-05
-5.10646e-07
1.77905e-05
-7.48285e-08
1.74102e-05
3.7993e-07
1.66082e-05
8.0225e-07
1.54221e-05
1.18616e-06
1.38917e-05
1.53032e-06
1.20565e-05
1.83533e-06
9.96571e-06
2.09086e-06
7.66162e-06
2.30432e-06
5.19353e-06
2.46828e-06
2.63125e-06
2.56245e-06
2.63136e-06
3.51393e-06
-8.19161e-06
7.318e-06
-7.79545e-06
1.03947e-05
-5.79587e-06
1.30367e-05
-4.68875e-06
1.51453e-05
-3.71763e-06
1.6705e-05
-2.81593e-06
1.77864e-05
-1.9873e-06
1.84293e-05
-1.1539e-06
1.86542e-05
-2.99477e-07
1.8468e-05
5.65832e-07
1.78462e-05
1.4243e-06
1.67778e-05
2.25468e-06
1.52798e-05
3.02817e-06
1.33883e-05
3.7271e-06
1.11477e-05
4.33174e-06
8.61917e-06
4.83319e-06
5.86655e-06
5.22107e-06
2.9745e-06
5.45467e-06
5.60596e-06
3.98088e-06
-1.21726e-05
8.00111e-06
-1.18156e-05
1.10436e-05
-8.83842e-06
1.35316e-05
-7.17673e-06
1.54708e-05
-5.65714e-06
1.69301e-05
-4.27517e-06
1.7978e-05
-3.03513e-06
1.86072e-05
-1.7836e-06
1.88008e-05
-4.92894e-07
1.85519e-05
8.14514e-07
1.78624e-05
2.11371e-06
1.67423e-05
3.37489e-06
1.52123e-05
4.55805e-06
1.33059e-05
5.63378e-06
1.10663e-05
6.57149e-06
8.54808e-06
7.35152e-06
5.81323e-06
7.95595e-06
2.94511e-06
8.32285e-06
8.55117e-06
4.48747e-06
-1.666e-05
8.53593e-06
-1.5864e-05
1.15128e-05
-1.18153e-05
1.39442e-05
-9.60816e-06
1.58103e-05
-7.52347e-06
1.72362e-05
-5.70108e-06
1.82846e-05
-4.08347e-06
1.89194e-05
-2.41899e-06
1.91152e-05
-6.88576e-07
1.88585e-05
1.07109e-06
1.81471e-05
2.82496e-06
1.69999e-05
4.5221e-06
1.54342e-05
6.12367e-06
1.34884e-05
7.57983e-06
1.12091e-05
8.85074e-06
8.65108e-06
9.90945e-06
5.88244e-06
1.07247e-05
2.97796e-06
1.12274e-05
1.15292e-05
4.89102e-06
-2.15509e-05
8.90088e-06
-1.9874e-05
1.19353e-05
-1.48499e-05
1.4401e-05
-1.20739e-05
1.62347e-05
-9.35732e-06
1.76419e-05
-7.10847e-06
1.86974e-05
-5.13896e-06
1.93495e-05
-3.0715e-06
1.95573e-05
-8.96345e-07
1.93046e-05
1.32372e-06
1.85875e-05
3.54174e-06
1.7416e-05
5.69373e-06
1.58151e-05
7.72456e-06
1.38219e-05
9.57323e-06
1.14841e-05
1.11886e-05
8.86632e-06
1.25272e-05
6.0272e-06
1.3564e-05
3.04955e-06
1.42052e-05
1.45788e-05
5.30838e-06
-2.68593e-05
9.29585e-06
-2.38616e-05
1.2433e-05
-1.79872e-05
1.48504e-05
-1.44914e-05
1.66656e-05
-1.11725e-05
1.81055e-05
-8.54868e-06
1.91955e-05
-6.22899e-06
1.98797e-05
-3.75599e-06
2.01113e-05
-1.12786e-06
1.98676e-05
1.56741e-06
1.91452e-05
4.26413e-06
1.79484e-05
6.89092e-06
1.63044e-05
9.36891e-06
1.42505e-05
1.16273e-05
1.18456e-05
1.35935e-05
9.14449e-06
1.52284e-05
6.21606e-06
1.64925e-05
3.14325e-06
1.72782e-05
1.7722e-05
5.86126e-06
-3.27205e-05
1.00928e-05
-2.80934e-05
1.31897e-05
-2.10843e-05
1.52902e-05
-1.65919e-05
1.7074e-05
-1.29564e-05
1.86135e-05
-1.00885e-05
1.97708e-05
-7.38615e-06
2.05055e-05
-4.49062e-06
2.07722e-05
-1.39437e-06
2.05466e-05
1.79307e-06
1.98175e-05
4.99367e-06
1.85917e-05
8.11717e-06
1.6895e-05
1.10657e-05
1.47747e-05
1.37478e-05
1.22815e-05
1.60866e-05
9.48128e-06
1.80286e-05
6.44465e-06
1.95291e-05
3.2568e-06
2.04663e-05
2.0979e-05
8.0808e-06
-4.08013e-05
1.17887e-05
-3.18015e-05
1.43704e-05
-2.36661e-05
1.59409e-05
-1.81625e-05
1.76508e-05
-1.46662e-05
1.92725e-05
-1.17102e-05
2.05014e-05
-8.61483e-06
2.12828e-05
-5.27195e-06
2.15809e-05
-1.69251e-06
2.13666e-05
2.00764e-06
2.0623e-05
5.73737e-06
1.93566e-05
9.38365e-06
1.76e-05
1.28223e-05
1.53924e-05
1.59553e-05
1.27955e-05
1.86834e-05
9.87764e-06
2.09465e-05
6.71307e-06
2.26941e-05
3.38938e-06
2.379e-05
2.43683e-05
4.17938e-06
-7.3463e-06
1.48279e-05
-4.60801e-05
2.62906e-05
-5.94947e-05
3.63572e-05
-5.67682e-05
4.5438e-05
-5.00644e-05
5.43793e-05
-4.49609e-05
6.35932e-05
-4.22791e-05
7.30907e-05
-4.11135e-05
8.27128e-05
-4.04264e-05
9.2284e-05
-3.95e-05
0.00010167
-3.79234e-05
0.000110738
-3.54089e-05
0.000119303
-3.16804e-05
0.000127135
-2.64737e-05
0.000134069
-1.96402e-05
0.000139941
-1.09214e-05
0.000144345
2.82416e-07
0.000146883
1.42211e-05
0.000147433
3.11427e-05
0.000145794
5.12487e-05
0.00014201
7.66485e-05
0.000143259
0.000103088
0.000157091
0.000156359
5.92672e-06
-1.3273e-05
1.69425e-05
-5.70959e-05
2.7531e-05
-7.00832e-05
3.65611e-05
-6.57982e-05
4.51267e-05
-5.86301e-05
5.41428e-05
-5.39769e-05
6.38e-05
-5.19364e-05
7.39022e-05
-5.12156e-05
8.42006e-05
-5.07248e-05
9.45263e-05
-4.98257e-05
0.000104787
-4.8184e-05
0.000114857
-4.54787e-05
0.000124581
-4.14049e-05
0.000133819
-3.57115e-05
0.000142641
-2.84626e-05
0.000151141
-1.94211e-05
0.000159026
-7.60213e-06
0.000165373
7.87376e-06
0.000170256
2.62598e-05
0.000174321
4.71836e-05
0.000180535
7.0435e-05
0.0001928
9.0823e-05
0.000129526
0.000220365
7.73084e-06
-2.10039e-05
1.89189e-05
-6.82839e-05
2.84577e-05
-7.9622e-05
3.65385e-05
-7.3879e-05
4.48176e-05
-6.69092e-05
5.40417e-05
-6.3201e-05
6.40698e-05
-6.19645e-05
7.45147e-05
-6.16606e-05
8.50968e-05
-6.13068e-05
9.56985e-05
-6.04274e-05
0.000106292
-5.87776e-05
0.000116873
-5.60598e-05
0.000127559
-5.20908e-05
0.000138553
-4.67058e-05
0.000150339
-4.02487e-05
0.000162194
-3.12752e-05
0.000172735
-1.81432e-05
0.000183406
-2.79774e-06
0.000190786
1.88796e-05
0.000197614
4.03555e-05
0.000206503
6.15466e-05
0.000217222
8.01039e-05
0.000103457
0.000243291
9.67484e-06
-3.06787e-05
2.06007e-05
-7.92098e-05
2.8766e-05
-8.77873e-05
3.59515e-05
-8.10645e-05
4.40447e-05
-7.50024e-05
5.33192e-05
-7.24755e-05
6.32654e-05
-7.19107e-05
7.34349e-05
-7.183e-05
8.36787e-05
-7.15506e-05
9.40747e-05
-7.08234e-05
0.000104857
-6.95597e-05
0.000116628
-6.78309e-05
0.000130273
-6.57355e-05
0.000145121
-6.15544e-05
0.000162393
-5.75209e-05
0.000180931
-4.98131e-05
0.000196562
-3.37742e-05
0.000205682
-1.19178e-05
0.00021185
1.27119e-05
0.000216331
3.58749e-05
0.000222903
5.49743e-05
0.000231454
7.15525e-05
8.57131e-05
0.000249198
1.20523e-05
-4.2731e-05
2.20964e-05
-8.92538e-05
2.82004e-05
-9.38914e-05
3.43538e-05
-8.72178e-05
4.22283e-05
-8.2877e-05
5.13322e-05
-8.15795e-05
6.09617e-05
-8.15402e-05
7.09612e-05
-8.18295e-05
8.16749e-05
-8.22643e-05
9.37271e-05
-8.28756e-05
0.000107424
-8.32563e-05
0.00012472
-8.51275e-05
0.000146883
-8.78981e-05
0.000168252
-8.29238e-05
0.000190725
-7.99939e-05
0.000210023
-6.9111e-05
0.000220304
-4.40551e-05
0.000220405
-1.20185e-05
0.00022015
1.29668e-05
0.000222366
3.3659e-05
0.000226691
5.06488e-05
0.000232991
6.52529e-05
7.2489e-05
0.000246215
1.57397e-05
-5.84707e-05
2.45959e-05
-9.811e-05
2.73645e-05
-9.66601e-05
3.24983e-05
-9.23516e-05
4.08203e-05
-9.1199e-05
5.07222e-05
-9.14813e-05
6.16544e-05
-9.24724e-05
7.42858e-05
-9.4461e-05
9.00635e-05
-9.80419e-05
0.000109459
-0.000102271
0.000132078
-0.000105875
0.000163755
-0.000116804
0.00019724
-0.000121383
0.000222634
-0.000108318
0.000239584
-9.69439e-05
0.000242775
-7.23018e-05
0.00022633
-2.76099e-05
0.000193882
2.04288e-05
0.000174102
3.27474e-05
0.000187463
2.02973e-05
0.000210124
2.79886e-05
0.000224131
5.12452e-05
6.13956e-05
0.000235225
2.21894e-05
-8.066e-05
2.97245e-05
-0.000105645
2.87041e-05
-9.56396e-05
3.435e-05
-9.79975e-05
4.55733e-05
-0.000102422
5.90759e-05
-0.000104984
7.4949e-05
-0.000108345
9.57525e-05
-0.000115264
0.00012739
-0.000129679
0.000154516
-0.000129397
0.000182526
-0.000133886
0.000205829
-0.000140106
0.000225784
-0.000141338
0.000244432
-0.000126967
0.000244628
-9.71392e-05
0.000228359
-5.60332e-05
0.000194328
6.42151e-06
0.00016365
5.11063e-05
0.00017181
2.4588e-05
0.000211762
-1.9655e-05
0.000259399
-1.96481e-05
0.000291423
1.92211e-05
5.76132e-05
0.000295205
2.87989e-05
-0.000109459
3.48164e-05
-0.000111663
3.78179e-05
-9.86411e-05
4.74342e-05
-0.000107614
6.32281e-05
-0.000118216
7.91125e-05
-0.000120868
9.62981e-05
-0.000125531
0.000115056
-0.000134022
0.000131967
-0.000146591
0.000159795
-0.000157224
0.000190107
-0.000164198
0.000217506
-0.000167505
0.000239775
-0.000163608
0.000256972
-0.000144163
0.000263478
-0.000103645
0.000248211
-4.07662e-05
0.000219183
3.54501e-05
0.000210042
6.02475e-05
0.000235246
-6.1616e-07
0.000261097
-4.55067e-05
0.000293444
-5.19948e-05
0.000338249
-2.55833e-05
2.35602e-05
0.000372302
8.65022e-06
-0.000118109
2.20659e-05
-0.000125078
3.71993e-05
-0.000113774
4.71037e-05
-0.000117518
5.55163e-05
-0.000126629
6.83043e-05
-0.000133657
8.39874e-05
-0.000141214
0.000102607
-0.000152642
0.000124717
-0.0001687
0.000151077
-0.000183584
0.00017888
-0.000192001
0.00020726
-0.000195885
0.000232164
-0.000188512
0.000249746
-0.000161744
0.000257902
-0.000111802
0.000252227
-3.50907e-05
0.000237552
5.01249e-05
0.000243498
5.43016e-05
0.000254506
-1.16242e-05
0.0002597
-5.07012e-05
0.000266352
-5.86459e-05
0.000283652
-4.28841e-05
-1.15106e-05
0.000318723
-3.21648e-06
-0.000114893
7.12152e-06
-0.000135416
2.40519e-05
-0.000130705
3.75018e-05
-0.000130968
4.74646e-05
-0.000136592
5.78403e-05
-0.000144032
7.02886e-05
-0.000153663
8.59233e-05
-0.000168277
0.000105656
-0.000188433
0.000128327
-0.000206255
0.000150475
-0.00021415
0.000173573
-0.000218983
0.000193422
-0.000208361
0.000204373
-0.000172695
0.000205808
-0.000113237
0.000202576
-3.18589e-05
0.000205029
4.76723e-05
0.00022513
3.41995e-05
0.000231799
-1.82924e-05
0.000229388
-4.82902e-05
0.000224282
-5.35404e-05
0.00022574
-4.43417e-05
-3.19436e-05
0.000246173
1.49818e-06
-0.000116391
1.20028e-05
-0.000145921
2.14792e-05
-0.000140181
3.03382e-05
-0.000139827
3.84402e-05
-0.000144694
4.62914e-05
-0.000151884
5.50149e-05
-0.000162386
6.59093e-05
-0.000179172
7.92923e-05
-0.000201816
9.3949e-05
-0.000220912
0.000108276
-0.000228476
0.000120738
-0.000231445
0.000127698
-0.000215321
0.0001269
-0.000171896
0.00011677
-0.000103108
0.000112428
-2.75168e-05
0.000142392
1.7709e-05
0.000176964
-3.72706e-07
0.000188245
-2.95739e-05
0.000184196
-4.42414e-05
0.000177054
-4.63977e-05
0.000178681
-4.59687e-05
-5.17237e-05
0.000198461
6.79219e-06
-0.000123183
1.22661e-05
-0.000151395
1.74908e-05
-0.000145406
2.36535e-05
-0.00014599
2.95601e-05
-0.0001506
3.46948e-05
-0.000157018
3.93285e-05
-0.00016702
4.38655e-05
-0.000183709
4.80753e-05
-0.000206026
5.22264e-05
-0.000225063
5.68519e-05
-0.000233102
5.43553e-05
-0.000228949
4.73585e-05
-0.000208324
3.62338e-05
-0.000160772
2.54925e-05
-9.23666e-05
4.71839e-05
-4.92083e-05
9.44572e-05
-2.95643e-05
0.000123669
-2.95847e-05
0.000130605
-3.651e-05
0.000131469
-4.51049e-05
0.000140887
-5.58162e-05
0.000161507
-6.6589e-05
-8.26347e-05
0.000192418
7.86866e-06
-0.000131051
1.0334e-05
-0.00015386
1.39453e-05
-0.000149017
1.85079e-05
-0.000150552
2.23755e-05
-0.000154468
2.49012e-05
-0.000159544
2.54838e-05
-0.000167603
2.35288e-05
-0.000181754
1.88014e-05
-0.000201299
1.24541e-05
-0.000218716
5.00806e-06
-0.000225656
-7.6459e-06
-0.000216295
-2.07319e-05
-0.000195238
-2.66196e-05
-0.000154884
-1.04511e-05
-0.000108535
2.20402e-05
-8.16996e-05
5.01038e-05
-5.7628e-05
6.63258e-05
-4.58068e-05
8.1417e-05
-5.16012e-05
0.000101472
-6.51595e-05
0.000126053
-8.03978e-05
0.000153727
-9.42634e-05
-0.000112176
0.000183268
7.16623e-06
-0.000138218
8.39117e-06
-0.000155085
1.13273e-05
-0.000151953
1.45373e-05
-0.000153762
1.68408e-05
-0.000156772
1.76386e-05
-0.000160342
1.5777e-05
-0.000165741
9.97986e-06
-0.000175957
-1.90772e-07
-0.000191128
-1.37759e-05
-0.000205131
-2.88468e-05
-0.000210585
-4.24569e-05
-0.000202684
-5.42946e-05
-0.0001834
-5.5016e-05
-0.000154163
-4.01754e-05
-0.000123376
-1.95358e-05
-0.000102339
4.76354e-06
-8.19274e-05
3.54114e-05
-7.64547e-05
6.63159e-05
-8.25056e-05
9.30514e-05
-9.1895e-05
0.00011723
-0.000104577
0.000141866
-0.0001189
-0.000137308
0.000166999
5.78836e-06
-0.000144006
6.70672e-06
-0.000156003
9.12273e-06
-0.00015437
1.13937e-05
-0.000156033
1.29127e-05
-0.000158291
1.32549e-05
-0.000160684
1.13244e-05
-0.000163811
5.38409e-06
-0.000170017
-5.62431e-06
-0.00018012
-2.05343e-05
-0.000190221
-3.63008e-05
-0.000194818
-4.85881e-05
-0.000190397
-5.60046e-05
-0.000175984
-5.45678e-05
-0.0001556
-4.20822e-05
-0.000135862
-2.21042e-05
-0.000122317
7.93202e-06
-0.000111964
3.84042e-05
-0.000106927
6.36999e-05
-0.000107801
8.61975e-05
-0.000114393
0.000106984
-0.000125363
0.00012833
-0.000140245
-0.00015781
0.000148831
4.36049e-06
-0.000148367
5.35888e-06
-0.000157002
7.35766e-06
-0.000156368
9.08822e-06
-0.000157764
1.03311e-05
-0.000159533
1.09169e-05
-0.00016127
1.01638e-05
-0.000163058
6.45623e-06
-0.000166309
-1.2884e-06
-0.000172375
-1.22144e-05
-0.000179295
-2.37839e-05
-0.000183249
-3.28392e-05
-0.000181342
-3.59509e-05
-0.000172872
-3.07881e-05
-0.000160763
-1.79455e-05
-0.000148704
-1.14894e-06
-0.000139114
1.86293e-05
-0.000131742
3.9115e-05
-0.000127412
5.94671e-05
-0.000128153
7.92438e-05
-0.00013417
9.79015e-05
-0.000144021
0.000116091
-0.000158435
-0.000175162
0.000133443
3.21006e-06
-0.000151577
4.29783e-06
-0.00015809
5.93803e-06
-0.000158008
7.33474e-06
-0.000159161
8.41208e-06
-0.000160611
9.21097e-06
-0.000162069
9.54011e-06
-0.000163387
8.46774e-06
-0.000165237
4.84462e-06
-0.000168752
-1.04158e-06
-0.000173408
-7.66748e-06
-0.000176623
-1.28455e-05
-0.000176164
-1.41446e-05
-0.000171573
-1.05442e-05
-0.000164363
-2.54036e-06
-0.000156708
8.42069e-06
-0.000150075
2.20274e-05
-0.000145348
3.81219e-05
-0.000143507
5.5517e-05
-0.000145549
7.26682e-05
-0.000151321
8.92264e-05
-0.00016058
0.000104783
-0.000173991
-0.000191143
0.000120764
2.36465e-06
-0.000153942
3.43396e-06
-0.000159159
4.76492e-06
-0.000159339
5.90729e-06
-0.000160303
6.80273e-06
-0.000161506
7.56432e-06
-0.00016283
8.28821e-06
-0.000164111
8.56574e-06
-0.000165514
7.49621e-06
-0.000167682
4.69784e-06
-0.00017061
1.09495e-06
-0.00017302
-1.94336e-06
-0.000173126
-2.93928e-06
-0.000170577
-9.7036e-07
-0.000166332
4.24813e-06
-0.000161927
1.25531e-05
-0.00015838
2.35317e-05
-0.000156327
3.67437e-05
-0.000156719
5.10755e-05
-0.00015988
6.56572e-05
-0.000165903
8.02264e-05
-0.000175149
9.41026e-05
-0.000187868
-0.000205344
0.000108304
1.7538e-06
-0.000155695
2.71402e-06
-0.000160119
3.77883e-06
-0.000160404
4.68925e-06
-0.000161213
5.4147e-06
-0.000162231
5.99773e-06
-0.000163413
6.54227e-06
-0.000164655
7.00475e-06
-0.000165976
6.85175e-06
-0.000167529
5.62956e-06
-0.000169388
3.58864e-06
-0.000170979
1.8407e-06
-0.000171378
1.53725e-06
-0.000170274
3.45594e-06
-0.000168251
7.81824e-06
-0.000166289
1.45699e-05
-0.000165131
2.35591e-05
-0.000165316
3.4157e-05
-0.000167316
4.57595e-05
-0.000171483
5.80014e-05
-0.000178145
7.04799e-05
-0.000187628
8.28511e-05
-0.000200239
-0.000217288
9.47946e-05
1.30082e-06
-0.000156996
2.1165e-06
-0.000160935
2.94881e-06
-0.000161236
3.66333e-06
-0.000161928
4.22572e-06
-0.000162794
4.62746e-06
-0.000163815
4.93269e-06
-0.00016496
5.14631e-06
-0.00016619
5.11549e-06
-0.000167499
4.59095e-06
-0.000168863
3.69167e-06
-0.00017008
3.05794e-06
-0.000170744
3.45168e-06
-0.000170668
5.44305e-06
-0.000170242
9.25083e-06
-0.000170097
1.48334e-05
-0.000170714
2.19628e-05
-0.000172445
3.03057e-05
-0.000175659
3.95718e-05
-0.000180749
4.95444e-05
-0.000188117
5.99569e-05
-0.00019804
7.04809e-05
-0.000210763
-0.000227368
8.05613e-05
9.63201e-07
-0.000157959
1.61157e-06
-0.000161583
2.24388e-06
-0.000161868
2.78499e-06
-0.000162469
3.21323e-06
-0.000163222
3.50673e-06
-0.000164108
3.66735e-06
-0.000165121
3.7208e-06
-0.000166244
3.66283e-06
-0.000167441
3.45515e-06
-0.000168656
3.18371e-06
-0.000169809
3.19617e-06
-0.000170756
3.99412e-06
-0.000171466
5.92782e-06
-0.000172176
9.10554e-06
-0.000173275
1.34889e-05
-0.000175097
1.89717e-05
-0.000177928
2.5412e-05
-0.0001821
3.26323e-05
-0.000187969
4.04548e-05
-0.00019594
4.87381e-05
-0.000206324
5.72544e-05
-0.000219279
-0.000235672
6.55578e-05
6.96859e-07
-0.000158656
1.17731e-06
-0.000162063
1.63365e-06
-0.000162325
2.01652e-06
-0.000162852
2.3154e-06
-0.000163521
2.52386e-06
-0.000164317
2.63323e-06
-0.00016523
2.64707e-06
-0.000166258
2.59097e-06
-0.000167385
2.51339e-06
-0.000168578
2.5045e-06
-0.0001698
2.77181e-06
-0.000171024
3.59798e-06
-0.000172292
5.19298e-06
-0.000173771
7.6192e-06
-0.000175701
1.08789e-05
-0.000178357
1.4934e-05
-0.000181983
1.96875e-05
-0.000186853
2.50169e-05
-0.000193299
3.07922e-05
-0.000201715
3.69287e-05
-0.00021246
4.3288e-05
-0.000225638
-0.000241879
4.94948e-05
4.77136e-07
-0.000159133
7.98474e-07
-0.000162385
1.09448e-06
-0.000162621
1.33106e-06
-0.000163088
1.50224e-06
-0.000163692
1.60636e-06
-0.000164421
1.64575e-06
-0.00016527
1.62372e-06
-0.000166236
1.55749e-06
-0.000167319
1.49514e-06
-0.000168516
1.52299e-06
-0.000169828
1.77246e-06
-0.000171273
2.39791e-06
-0.000172917
3.51682e-06
-0.00017489
5.18924e-06
-0.000177373
7.40824e-06
-0.000180576
1.01501e-05
-0.000184725
1.33475e-05
-0.00019005
1.68918e-05
-0.000196843
2.06825e-05
-0.000205506
2.46483e-05
-0.000216426
2.87449e-05
-0.000229735
-0.000245767
3.26337e-05
2.92787e-07
-0.000159426
4.63834e-07
-0.000162556
6.10703e-07
-0.000162768
7.0839e-07
-0.000163186
7.51067e-07
-0.000163735
7.38264e-07
-0.000164408
6.74055e-07
-0.000165206
5.67356e-07
-0.000166129
4.33821e-07
-0.000167185
3.05662e-07
-0.000168388
2.38607e-07
-0.000169761
3.11325e-07
-0.000171346
6.10625e-07
-0.000173217
1.20426e-06
-0.000175484
2.12308e-06
-0.000178292
3.36429e-06
-0.000181817
4.89016e-06
-0.000186251
6.63529e-06
-0.000191795
8.49176e-06
-0.0001987
1.0345e-05
-0.000207359
1.21429e-05
-0.000218224
1.3864e-05
-0.000231456
-0.000247197
1.52934e-05
1.26208e-07
-0.000159552
1.63161e-07
-0.000162593
1.72791e-07
-0.000162777
1.39357e-07
-0.000163152
5.64521e-08
-0.000163652
-7.76638e-08
-0.000164274
-2.61387e-07
-0.000165022
-4.87318e-07
-0.000165903
-7.42452e-07
-0.00016693
-1.00714e-06
-0.000168123
-1.25246e-06
-0.000169515
-1.43819e-06
-0.00017116
-1.52106e-06
-0.000173134
-1.47073e-06
-0.000175534
-1.28203e-06
-0.000178481
-9.78977e-07
-0.000182121
-6.14981e-07
-0.000186615
-2.68563e-07
-0.000192142
-3.20525e-08
-0.000198936
-1.73443e-08
-0.000207374
-3.38997e-07
-0.000217903
-1.06805e-06
-0.000230727
-0.000245885
-2.37981e-06
-1.4499e-08
-0.000159538
-1.06431e-07
-0.000162501
-2.23785e-07
-0.00016266
-3.8143e-07
-0.000162995
-5.87111e-07
-0.000163446
-8.44075e-07
-0.000164017
-1.15398e-06
-0.000164712
-1.51556e-06
-0.000165542
-1.92357e-06
-0.000166523
-2.36859e-06
-0.000167678
-2.83891e-06
-0.000169045
-3.32239e-06
-0.000170677
-3.8099e-06
-0.000172646
-4.30171e-06
-0.000175042
-4.81541e-06
-0.000177968
-5.39349e-06
-0.000181543
-6.10387e-06
-0.000185904
-7.03612e-06
-0.000191209
-8.30395e-06
-0.000197669
-1.00519e-05
-0.000205626
-1.243e-05
-0.000215524
-1.55476e-05
-0.000227609
-0.000241902
-1.95307e-05
-1.37901e-07
-0.0001594
-3.46506e-07
-0.000162292
-5.8022e-07
-0.000162426
-8.54215e-07
-0.000162721
-1.17785e-06
-0.000163122
-1.55715e-06
-0.000163638
-1.99703e-06
-0.000164272
-2.5017e-06
-0.000165037
-3.07424e-06
-0.00016595
-3.71681e-06
-0.000167036
-4.43232e-06
-0.00016833
-5.22773e-06
-0.000169881
-6.11762e-06
-0.000171756
-7.12696e-06
-0.000174033
-8.29475e-06
-0.0001768
-9.68097e-06
-0.000180156
-1.13695e-05
-0.000184216
-1.34676e-05
-0.000189111
-1.61125e-05
-0.000195023
-1.94817e-05
-0.000202257
-2.37769e-05
-0.000211229
-2.91735e-05
-0.000222212
-0.000235233
-3.58424e-05
-2.45457e-07
-0.000159154
-5.57743e-07
-0.00016198
-8.95849e-07
-0.000162088
-1.27623e-06
-0.00016234
-1.7096e-06
-0.000162689
-2.20539e-06
-0.000163142
-2.77224e-06
-0.000163705
-3.41943e-06
-0.00016439
-4.15703e-06
-0.000165212
-4.99735e-06
-0.000166195
-5.95589e-06
-0.000167371
-7.05421e-06
-0.000168783
-8.32362e-06
-0.000170487
-9.80733e-06
-0.00017255
-1.15627e-05
-0.000175045
-1.36664e-05
-0.000178053
-1.62181e-05
-0.000181664
-1.93444e-05
-0.000185985
-2.32043e-05
-0.000191163
-2.80087e-05
-0.000197453
-3.40126e-05
-0.000205225
-4.14724e-05
-0.000214752
-0.000226054
-5.06524e-05
-3.38086e-07
-0.000158816
-7.40193e-07
-0.000161578
-1.16917e-06
-0.000161659
-1.64341e-06
-0.000161866
-2.17478e-06
-0.000162157
-2.77593e-06
-0.000162541
-3.45927e-06
-0.000163022
-4.23902e-06
-0.00016361
-5.13145e-06
-0.00016432
-6.15675e-06
-0.00016517
-7.34004e-06
-0.000166188
-8.71425e-06
-0.000167409
-1.0323e-05
-0.000168878
-1.22227e-05
-0.00017065
-1.44849e-05
-0.000172782
-1.72004e-05
-0.000175337
-2.04831e-05
-0.000178381
-2.44745e-05
-0.000181994
-2.93537e-05
-0.000186284
-3.53574e-05
-0.000191449
-4.27836e-05
-0.000197799
-5.19578e-05
-0.000205578
-0.000214768
-6.32433e-05
-4.16293e-07
-0.0001584
-8.93339e-07
-0.000161101
-1.39809e-06
-0.000161154
-1.95122e-06
-0.000161313
-2.5656e-06
-0.000161543
-3.25674e-06
-0.00016185
-4.04048e-06
-0.000162238
-4.93525e-06
-0.000162716
-5.9626e-06
-0.000163292
-7.14887e-06
-0.000163984
-8.52624e-06
-0.000164811
-1.01359e-05
-0.000165799
-1.20303e-05
-0.000166984
-1.42751e-05
-0.000168405
-1.69515e-05
-0.000170106
-2.01605e-05
-0.000172128
-2.4026e-05
-0.000174515
-2.87008e-05
-0.000177319
-3.43761e-05
-0.000180609
-4.13041e-05
-0.000184521
-4.98083e-05
-0.000189295
-6.02579e-05
-0.000195128
-0.000201948
-7.30777e-05
-4.79438e-07
-0.00015792
-1.01554e-06
-0.000160565
-1.57955e-06
-0.00016059
-2.19471e-06
-0.000160698
-2.87446e-06
-0.000160863
-3.63667e-06
-0.000161088
-4.50005e-06
-0.000161375
-5.48636e-06
-0.000161729
-6.62136e-06
-0.000162157
-7.9359e-06
-0.000162669
-9.46723e-06
-0.000163279
-1.1262e-05
-0.000164004
-1.33785e-05
-0.000164867
-1.58881e-05
-0.000165895
-1.88779e-05
-0.000167116
-2.24534e-05
-0.000168552
-2.67442e-05
-0.000170225
-3.19077e-05
-0.000172155
-3.81408e-05
-0.000174376
-4.5696e-05
-0.000176965
-5.4904e-05
-0.000180087
-6.61485e-05
-0.000183883
-0.000188234
-7.98629e-05
-5.24562e-07
-0.000157396
-1.10294e-06
-0.000159986
-1.70878e-06
-0.000159985
-2.36786e-06
-0.000160039
-3.09383e-06
-0.000160137
-3.906e-06
-0.000160275
-4.82519e-06
-0.000160456
-5.8755e-06
-0.000160679
-7.08578e-06
-0.000160947
-8.4899e-06
-0.000161265
-1.01285e-05
-0.00016164
-1.20513e-05
-0.000162081
-1.43195e-05
-0.000162599
-1.70075e-05
-0.000163207
-2.02046e-05
-0.000163919
-2.40163e-05
-0.00016474
-2.85717e-05
-0.00016567
-3.40273e-05
-0.000166699
-4.05756e-05
-0.000167827
-4.84599e-05
-0.000169081
-5.79985e-05
-0.000170549
-6.95581e-05
-0.000172324
-0.000174254
-8.35382e-05
-5.45491e-07
-0.00015685
-1.14846e-06
-0.000159383
-1.77849e-06
-0.000159354
-2.46258e-06
-0.000159355
-3.21498e-06
-0.000159385
-4.05521e-06
-0.000159435
-5.00529e-06
-0.000159506
-6.09047e-06
-0.000159593
-7.34124e-06
-0.000159696
-8.79314e-06
-0.000159813
-1.04886e-05
-0.000159945
-1.24787e-05
-0.000160091
-1.48251e-05
-0.000160253
-1.7602e-05
-0.00016043
-2.08981e-05
-0.000160623
-2.48164e-05
-0.000160822
-2.94796e-05
-0.000161006
-3.50366e-05
-0.000161142
-4.16684e-05
-0.000161196
-4.96001e-05
-0.000161149
-5.91203e-05
-0.000161028
-7.05631e-05
-0.000160881
-0.000160546
-8.42714e-05
-5.33614e-07
-0.000156317
-1.14272e-06
-0.000158774
-1.7792e-06
-0.000158718
-2.46862e-06
-0.000158665
-3.22691e-06
-0.000158627
-4.07292e-06
-0.000158589
-5.0289e-06
-0.00015855
-6.12019e-06
-0.000158502
-7.37718e-06
-0.000158439
-8.83547e-06
-0.000158355
-1.05375e-05
-0.000158243
-1.25339e-05
-0.000158095
-1.48848e-05
-0.000157902
-1.76622e-05
-0.000157653
-2.09511e-05
-0.000157334
-2.48503e-05
-0.000156923
-2.94725e-05
-0.000156384
-3.49529e-05
-0.000155662
-4.14556e-05
-0.000154693
-4.91816e-05
-0.000153423
-5.83805e-05
-0.000151829
-6.93427e-05
-0.00014992
-0.000147541
-8.23472e-05
-4.81907e-07
-0.000155835
-1.0785e-06
-0.000158177
-1.70315e-06
-0.000158093
-2.37706e-06
-0.000157991
-3.11898e-06
-0.000157885
-3.94708e-06
-0.000157761
-4.88325e-06
-0.000157614
-5.95215e-06
-0.000157433
-7.18253e-06
-0.000157208
-8.60822e-06
-0.000156929
-1.02696e-05
-0.000156581
-1.22149e-05
-0.000156149
-1.45009e-05
-0.000155616
-1.71953e-05
-0.000154959
-2.03773e-05
-0.000154151
-2.41393e-05
-0.000153161
-2.85833e-05
-0.00015194
-3.38273e-05
-0.000150418
-4.00135e-05
-0.000148507
-4.73146e-05
-0.000146122
-5.59407e-05
-0.000143203
-6.61331e-05
-0.000139727
-0.000135558
-7.81158e-05
-3.91712e-07
-0.000155443
-9.5863e-07
-0.00015761
-1.55287e-06
-0.000157499
-2.19002e-06
-0.000157354
-2.8916e-06
-0.000157183
-3.67587e-06
-0.000156977
-4.56429e-06
-0.000156725
-5.58048e-06
-0.000156417
-6.75101e-06
-0.000156038
-8.1066e-06
-0.000155573
-9.68372e-06
-0.000155004
-1.15257e-05
-0.000154307
-1.3684e-05
-0.000153457
-1.62196e-05
-0.000152423
-1.92043e-05
-0.000151167
-2.27221e-05
-0.000149643
-2.68645e-05
-0.000147798
-3.17327e-05
-0.00014555
-3.7444e-05
-0.000142796
-4.41414e-05
-0.000139424
-5.19962e-05
-0.000135348
-6.12036e-05
-0.00013052
-0.000124826
-7.1936e-05
-2.76219e-07
-0.000155167
-8.00326e-07
-0.000157086
-1.34785e-06
-0.000156952
-1.92931e-06
-0.000156773
-2.56784e-06
-0.000156545
-3.28215e-06
-0.000156263
-4.09345e-06
-0.000155914
-5.02438e-06
-0.000155486
-6.0996e-06
-0.000154963
-7.3466e-06
-0.000154326
-8.79709e-06
-0.000153553
-1.04882e-05
-0.000152616