/*--------------------------------*- C++ -*----------------------------------*\
| =========                 |                                                 |
| \\      /  F ield         | OpenFOAM: The Open Source CFD Toolbox           |
|  \\    /   O peration     | Version:  2206                                  |
|   \\  /    A nd           | Website:  www.openfoam.com                      |
|    \\/     M anipulation  |                                                 |
\*---------------------------------------------------------------------------*/
FoamFile
{
    version     2.0;
    format      ascii;
    arch        "LSB;label=32;scalar=64";
    class       volVectorField;
    location    "0.275";
    object      U;
}
// * * * * * * * * * * * * * * * * * * * * * * * * * * * * * * * * * * * * * //

dimensions      [0 1 -1 0 0 0 0];

internalField   nonuniform List<vector> 
2268
(
(-0.0154559 0.000766684 0)
(0.0112286 -0.011131 0)
(0.077343 -0.0165694 0)
(0.149912 -0.0168525 0)
(0.218291 -0.0148622 0)
(0.277284 -0.012657 0)
(0.327416 -0.0110324 0)
(0.371862 -0.0100473 0)
(0.413289 -0.00947449 0)
(0.452864 -0.0090278 0)
(0.490516 -0.00846571 0)
(0.525342 -0.00760769 0)
(0.555776 -0.00633861 0)
(0.579748 -0.00443769 0)
(0.594173 -0.00142807 0)
(0.593319 0.00480107 0)
(0.562917 0.0162352 0)
(0.486759 0.0338699 0)
(0.346976 0.0535564 0)
(0.142823 0.0613155 0)
(-0.112854 0.0197289 0)
(-0.248041 -0.0516898 0)
(-0.0692984 -0.0937405 0)
(-0.0150796 0.00189429 0)
(0.0126258 -0.0336433 0)
(0.0791642 -0.049929 0)
(0.151711 -0.050763 0)
(0.219734 -0.0448382 0)
(0.278418 -0.0382766 0)
(0.328542 -0.0334618 0)
(0.373281 -0.0305645 0)
(0.415206 -0.0288895 0)
(0.455397 -0.0275778 0)
(0.493736 -0.0259117 0)
(0.529293 -0.0233735 0)
(0.560606 -0.0195753 0)
(0.585663 -0.0140461 0)
(0.602432 -0.00584307 0)
(0.610161 0.00714852 0)
(0.613707 0.0282857 0)
(0.610558 0.061465 0)
(0.578952 0.106747 0)
(0.466729 0.151132 0)
(0.238858 0.140779 0)
(-0.0686844 0.0662107 0)
(0.0506176 -0.125069 0)
(-0.0142366 0.0024155 0)
(0.014947 -0.0561725 0)
(0.0815835 -0.0831195 0)
(0.153488 -0.0842721 0)
(0.220299 -0.0743636 0)
(0.277884 -0.063538 0)
(0.327486 -0.0557025 0)
(0.372301 -0.0510625 0)
(0.414722 -0.0484023 0)
(0.45565 -0.0462876 0)
(0.494848 -0.0435508 0)
(0.531355 -0.0393662 0)
(0.563721 -0.0331015 0)
(0.590159 -0.0241415 0)
(0.608529 -0.0116371 0)
(0.616449 0.00519429 0)
(0.612192 0.0291175 0)
(0.598381 0.0658892 0)
(0.588076 0.123113 0)
(0.573419 0.197579 0)
(0.489722 0.232913 0)
(0.248463 0.143458 0)
(0.160363 -0.0694244 0)
(-0.0128789 0.00216113 0)
(0.0184238 -0.0791781 0)
(0.0849818 -0.116213 0)
(0.155888 -0.117225 0)
(0.220993 -0.103276 0)
(0.277132 -0.0884149 0)
(0.326143 -0.077881 0)
(0.371212 -0.071779 0)
(0.414456 -0.0683183 0)
(0.456514 -0.065501 0)
(0.496993 -0.0617512 0)
(0.534885 -0.0559723 0)
(0.568791 -0.0473537 0)
(0.597017 -0.0351321 0)
(0.617654 -0.018445 0)
(0.62867 0.00407954 0)
(0.628155 0.0342788 0)
(0.613969 0.07487 0)
(0.590751 0.130282 0)
(0.577475 0.208367 0)
(0.571328 0.278294 0)
(0.424334 0.237175 0)
(0.245909 0.0490732 0)
(-0.0110635 0.00079656 0)
(0.0228372 -0.102897 0)
(0.0891213 -0.149024 0)
(0.158568 -0.149295 0)
(0.221499 -0.131315 0)
(0.275946 -0.112803 0)
(0.324383 -0.100031 0)
(0.369905 -0.0928292 0)
(0.414254 -0.088787 0)
(0.45774 -0.0853775 0)
(0.499795 -0.080675 0)
(0.539377 -0.0733661 0)
(0.575154 -0.0624924 0)
(0.605577 -0.0471859 0)
(0.62895 -0.0264544 0)
(0.643515 0.00104717 0)
(0.647698 0.0370762 0)
(0.639547 0.0836722 0)
(0.61808 0.141175 0)
(0.584265 0.212941 0)
(0.575254 0.298092 0)
(0.486013 0.322102 0)
(0.295311 0.213114 0)
(-0.00878472 -0.00212848 0)
(0.0279729 -0.127261 0)
(0.093775 -0.181344 0)
(0.161272 -0.180237 0)
(0.221642 -0.158295 0)
(0.274286 -0.136641 0)
(0.322268 -0.122212 0)
(0.368467 -0.114341 0)
(0.414154 -0.109964 0)
(0.459275 -0.106085 0)
(0.503093 -0.100509 0)
(0.544559 -0.0917714 0)
(0.582445 -0.0788062 0)
(0.615369 -0.0606601 0)
(0.641838 -0.0362754 0)
(0.660306 -0.0042706 0)
(0.669335 0.0370586 0)
(0.666839 0.0894652 0)
(0.652478 0.153574 0)
(0.615658 0.226767 0)
(0.579481 0.317857 0)
(0.503114 0.398693 0)
(0.318709 0.394352 0)
(-0.00610232 -0.00660264 0)
(0.0335963 -0.152231 0)
(0.098732 -0.213149 0)
(0.163827 -0.210077 0)
(0.221372 -0.184274 0)
(0.272246 -0.159984 0)
(0.319983 -0.144452 0)
(0.367096 -0.136308 0)
(0.414303 -0.131803 0)
(0.461184 -0.127538 0)
(0.50687 -0.121139 0)
(0.55036 -0.111055 0)
(0.59058 -0.0961578 0)
(0.626309 -0.0754272 0)
(0.656197 -0.0477721 0)
(0.678832 -0.0118298 0)
(0.692853 0.0341698 0)
(0.696182 0.0918389 0)
(0.688136 0.163103 0)
(0.66017 0.24533 0)
(0.611326 0.346056 0)
(0.529105 0.467112 0)
(0.356614 0.578746 0)
(-0.00308956 -0.0127446 0)
(0.0394738 -0.17798 0)
(0.103729 -0.244399 0)
(0.166121 -0.238809 0)
(0.220825 -0.209378 0)
(0.270146 -0.183009 0)
(0.317911 -0.166874 0)
(0.366146 -0.158759 0)
(0.414994 -0.154244 0)
(0.463708 -0.1496 0)
(0.511362 -0.142354 0)
(0.557087 -0.130942 0)
(0.599981 -0.114201 0)
(0.638903 -0.0910345 0)
(0.672543 -0.0603018 0)
(0.699608 -0.0205962 0)
(0.718721 0.0298844 0)
(0.728088 0.0926834 0)
(0.726056 0.170073 0)
(0.709465 0.262047 0)
(0.666154 0.37745 0)
(0.589883 0.535687 0)
(0.356658 0.803707 0)
(0.0256209 -0.0163923 0)
(0.0773534 -0.0131958 0)
(0.115682 -0.00757595 0)
(0.141715 -0.00478262 0)
(0.162246 -0.00358757 0)
(0.178901 -0.0030037 0)
(0.191545 -0.00227948 0)
(0.199815 -0.00121528 0)
(0.203419 4.83366e-05 0)
(0.201637 0.00131868 0)
(0.194789 0.00249401 0)
(0.183356 0.00356277 0)
(0.16779 0.00452395 0)
(0.148529 0.00536726 0)
(0.126048 0.00607458 0)
(0.100839 0.00665772 0)
(0.0734896 0.00710909 0)
(0.0447485 0.00737109 0)
(0.0150408 0.00767226 0)
(0.0151053 -0.0391587 0)
(0.0620388 -0.034853 0)
(0.101362 -0.0248099 0)
(0.133527 -0.0195565 0)
(0.161107 -0.0155439 0)
(0.182383 -0.0119656 0)
(0.197399 -0.00854342 0)
(0.207283 -0.00491799 0)
(0.212179 -0.00106144 0)
(0.212545 0.00284795 0)
(0.208054 0.00664889 0)
(0.198425 0.0102489 0)
(0.183727 0.0135589 0)
(0.164311 0.0165236 0)
(0.140624 0.019071 0)
(0.113281 0.0211913 0)
(0.0829844 0.0228189 0)
(0.050658 0.0237948 0)
(0.0169901 0.0244302 0)
(0.0175461 -0.0597535 0)
(0.0694378 -0.0577578 0)
(0.109622 -0.0436062 0)
(0.140078 -0.0356063 0)
(0.165667 -0.0281254 0)
(0.185402 -0.0211491 0)
(0.199736 -0.0148949 0)
(0.209397 -0.00869326 0)
(0.214183 -0.00233941 0)
(0.213911 0.00410297 0)
(0.2086 0.0105104 0)
(0.198268 0.0167261 0)
(0.183093 0.0225348 0)
(0.163418 0.0277983 0)
(0.139668 0.0323763 0)
(0.112398 0.0361929 0)
(0.0822671 0.0391337 0)
(0.0501868 0.040915 0)
(0.0168029 0.0420333 0)
(0.0210527 -0.0857304 0)
(0.0760012 -0.0820818 0)
(0.116054 -0.0611246 0)
(0.145024 -0.0496053 0)
(0.169984 -0.0389177 0)
(0.189162 -0.0294519 0)
(0.203254 -0.0210102 0)
(0.212967 -0.0123847 0)
(0.217809 -0.00344718 0)
(0.217497 0.00563351 0)
(0.212029 0.0146791 0)
(0.201412 0.0234593 0)
(0.185848 0.0317227 0)
(0.165735 0.0392401 0)
(0.141535 0.0458036 0)
(0.11382 0.0512715 0)
(0.0832522 0.0554923 0)
(0.0507588 0.058077 0)
(0.0169834 0.0596605 0)
(0.023345 -0.111864 0)
(0.0808415 -0.105444 0)
(0.121664 -0.0785453 0)
(0.150058 -0.0638516 0)
(0.175239 -0.0498673 0)
(0.194062 -0.0378966 0)
(0.207946 -0.0272642 0)
(0.217813 -0.0161951 0)
(0.22283 -0.00464001 0)
(0.222609 0.00713954 0)
(0.217111 0.0189197 0)
(0.206325 0.0303513 0)
(0.190438 0.0411277 0)
(0.16985 0.0509419 0)
(0.145051 0.0595136 0)
(0.11664 0.0666344 0)
(0.0853083 0.0721338 0)
(0.0519991 0.0755307 0)
(0.017388 0.0775474 0)
(0.0251161 -0.141717 0)
(0.0866737 -0.12967 0)
(0.128601 -0.0979023 0)
(0.154661 -0.0788948 0)
(0.180378 -0.0607701 0)
(0.199465 -0.0462857 0)
(0.213502 -0.0336128 0)
(0.223748 -0.0201524 0)
(0.229085 -0.00591178 0)
(0.229049 0.00863744 0)
(0.223568 0.0232202 0)
(0.212592 0.0374036 0)
(0.196317 0.050779 0)
(0.175145 0.0629678 0)
(0.149591 0.0735994 0)
(0.1203 0.0824268 0)
(0.0879941 0.0892559 0)
(0.0536226 0.0934895 0)
(0.0179157 0.0959292 0)
(0.0266901 -0.193136 0)
(0.0976394 -0.157218 0)
(0.138961 -0.117252 0)
(0.159559 -0.0928056 0)
(0.185134 -0.07156 0)
(0.205095 -0.0550153 0)
(0.219823 -0.040267 0)
(0.230729 -0.0244373 0)
(0.236522 -0.00744373 0)
(0.236754 0.0100088 0)
(0.231332 0.0275281 0)
(0.22016 0.0445936 0)
(0.20343 0.0607104 0)
(0.181552 0.0753744 0)
(0.155086 0.0881525 0)
(0.124734 0.0987737 0)
(0.0912482 0.106989 0)
(0.0555869 0.112103 0)
(0.0185554 0.114957 0)
(0.0426571 -0.229618 0)
(0.127698 -0.177778 0)
(0.153393 -0.131057 0)
(0.168043 -0.102075 0)
(0.192393 -0.0813582 0)
(0.21248 -0.0641419 0)
(0.227826 -0.0470496 0)
(0.239427 -0.028722 0)
(0.245697 -0.00903447 0)
(0.246142 0.0113223 0)
(0.240669 0.0318735 0)
(0.22919 0.0519391 0)
(0.211879 0.0708791 0)
(0.189131 0.0881104 0)
(0.161571 0.103127 0)
(0.12996 0.115597 0)
(0.095078 0.125235 0)
(0.0578933 0.131276 0)
(0.0192995 0.134539 0)
(0.00180801 -0.027403 0)
(0.0485389 -0.219885 0)
(0.111071 -0.291145 0)
(0.169125 -0.280435 0)
(0.219926 -0.246459 0)
(0.267624 -0.218651 0)
(0.316045 -0.202954 0)
(0.366318 -0.195617 0)
(0.417813 -0.191404 0)
(0.469466 -0.186373 0)
(0.520441 -0.178136 0)
(0.5701 -0.165181 0)
(0.617657 -0.146224 0)
(0.661946 -0.11996 0)
(0.70185 -0.085216 0)
(0.736714 -0.0405551 0)
(0.765182 0.0160639 0)
(0.785422 0.0872282 0)
(0.794231 0.175405 0)
(0.796485 0.281063 0)
(0.777839 0.417849 0)
(0.808959 0.579477 0)
(0.738643 0.977913 0)
(0.00853057 -0.0539305 0)
(0.0607756 -0.278179 0)
(0.120743 -0.351127 0)
(0.172853 -0.332322 0)
(0.219046 -0.294023 0)
(0.265608 -0.266822 0)
(0.31568 -0.25359 0)
(0.368966 -0.248325 0)
(0.423952 -0.245095 0)
(0.479399 -0.240129 0)
(0.53469 -0.231405 0)
(0.58939 -0.217345 0)
(0.642672 -0.196179 0)
(0.693583 -0.166116 0)
(0.742056 -0.126468 0)
(0.788867 -0.0759949 0)
(0.833657 -0.0129832 0)
(0.874028 0.0609575 0)
(0.904198 0.151954 0)
(0.931692 0.257132 0)
(0.946567 0.387861 0)
(1.0099 0.515103 0)
(1.07197 0.805202 0)
(0.0157137 -0.0907984 0)
(0.0727438 -0.338248 0)
(0.128955 -0.405477 0)
(0.174847 -0.378176 0)
(0.217521 -0.339126 0)
(0.264156 -0.316059 0)
(0.316122 -0.30726 0)
(0.371477 -0.30482 0)
(0.42811 -0.302905 0)
(0.484973 -0.298359 0)
(0.541788 -0.289487 0)
(0.598548 -0.274152 0)
(0.655427 -0.250333 0)
(0.712944 -0.216324 0)
(0.773555 -0.175221 0)
(0.838191 -0.123899 0)
(0.901092 -0.0526916 0)
(0.958664 0.0459383 0)
(1.00702 0.160383 0)
(1.04653 0.281058 0)
(1.08264 0.401583 0)
(1.13354 0.496868 0)
(1.21606 0.626891 0)
(0.0235311 -0.137453 0)
(0.0846103 -0.399152 0)
(0.134322 -0.454409 0)
(0.173346 -0.419827 0)
(0.213392 -0.383653 0)
(0.260155 -0.366712 0)
(0.312331 -0.362223 0)
(0.366679 -0.361429 0)
(0.421452 -0.35946 0)
(0.476629 -0.354189 0)
(0.533021 -0.344338 0)
(0.592544 -0.329713 0)
(0.660056 -0.310403 0)
(0.736228 -0.287084 0)
(0.822497 -0.266965 0)
(0.920615 -0.239004 0)
(1.01539 -0.186661 0)
(1.08482 -0.105481 0)
(1.12544 -0.00879949 0)
(1.1529 0.104284 0)
(1.1806 0.23585 0)
(1.21556 0.365529 0)
(1.27669 0.481664 0)
(0.0324397 -0.195246 0)
(0.0985579 -0.45699 0)
(0.136212 -0.493663 0)
(0.1662 -0.45542 0)
(0.203904 -0.426068 0)
(0.250142 -0.415677 0)
(0.300931 -0.413899 0)
(0.353496 -0.413546 0)
(0.408423 -0.412337 0)
(0.468757 -0.409993 0)
(0.536439 -0.40817 0)
(0.617056 -0.410311 0)
(0.722454 -0.419016 0)
(0.841303 -0.420787 0)
(0.964394 -0.413391 0)
(1.08365 -0.368282 0)
(1.16842 -0.249806 0)
(1.1894 -0.0848818 0)
(1.18139 0.0874204 0)
(1.18391 0.203534 0)
(1.20359 0.283483 0)
(1.23104 0.354046 0)
(1.28053 0.418611 0)
(0.0456299 -0.270991 0)
(0.122287 -0.504631 0)
(0.138354 -0.517654 0)
(0.156175 -0.485342 0)
(0.194497 -0.468737 0)
(0.244312 -0.465662 0)
(0.299852 -0.468096 0)
(0.361622 -0.473742 0)
(0.435708 -0.483266 0)
(0.53023 -0.498545 0)
(0.638645 -0.517426 0)
(0.779039 -0.545572 0)
(0.966131 -0.582726 0)
(1.13513 -0.552192 0)
(1.26738 -0.497022 0)
(1.31512 -0.394723 0)
(1.29051 -0.199408 0)
(1.12191 0.0237461 0)
(0.94 0.119829 0)
(0.96797 0.223498 0)
(1.06875 0.304055 0)
(1.15777 0.356794 0)
(1.24187 0.379831 0)
(0.0687077 -0.366288 0)
(0.162646 -0.551059 0)
(0.151549 -0.530482 0)
(0.160317 -0.518294 0)
(0.210511 -0.522891 0)
(0.277895 -0.531704 0)
(0.35465 -0.544696 0)
(0.448811 -0.565915 0)
(0.577396 -0.602054 0)
(0.769139 -0.652418 0)
(0.906099 -0.668666 0)
(1.04857 -0.706853 0)
(1.17041 -0.69959 0)
(1.26891 -0.566395 0)
(1.32732 -0.473189 0)
(1.30594 -0.313716 0)
(1.15171 -0.0312564 0)
(0.931541 0.231268 0)
(0.839389 0.229043 0)
(1.03223 0.0164446 0)
(1.28279 0.035711 0)
(1.50899 0.251733 0)
(1.57596 0.346941 0)
(0.0775369 -0.489213 0)
(0.196395 -0.626462 0)
(0.195407 -0.526839 0)
(0.215336 -0.55467 0)
(0.289782 -0.602608 0)
(0.383156 -0.629708 0)
(0.4676 -0.644618 0)
(0.567353 -0.678909 0)
(0.663307 -0.754576 0)
(0.783041 -0.733092 0)
(0.936164 -0.746415 0)
(1.09246 -0.789645 0)
(1.23369 -0.791786 0)
(1.34387 -0.711625 0)
(1.41583 -0.53509 0)
(1.411 -0.253772 0)
(1.26015 0.114866 0)
(1.09775 0.307847 0)
(1.18107 0.0252478 0)
(1.33452 -0.248609 0)
(1.47033 -0.282061 0)
(1.67406 -0.1042 0)
(1.9236 0.180797 0)
(0.00111001 -0.681009 0)
(0.0715156 -0.642296 0)
(0.188966 -0.542541 0)
(0.230513 -0.588184 0)
(0.272017 -0.650586 0)
(0.330572 -0.661801 0)
(0.40598 -0.693741 0)
(0.497394 -0.752062 0)
(0.604923 -0.835793 0)
(0.736242 -0.909972 0)
(0.885387 -0.96664 0)
(1.03586 -0.995656 0)
(1.1819 -0.962901 0)
(1.29944 -0.839642 0)
(1.37108 -0.600417 0)
(1.40171 -0.208296 0)
(1.32457 0.239409 0)
(1.26749 0.323233 0)
(1.3336 -0.0510221 0)
(1.37893 -0.263598 0)
(1.39913 -0.303165 0)
(1.44553 -0.195935 0)
(1.59506 0.0235911 0)
(-0.028179 -0.62372 0)
(-0.00448933 -0.606193 0)
(0.0874353 -0.645923 0)
(0.170702 -0.672378 0)
(0.22938 -0.709164 0)
(0.282859 -0.748586 0)
(0.3409 -0.79974 0)
(0.417708 -0.874603 0)
(0.509826 -0.976549 0)
(0.624026 -1.06823 0)
(0.752317 -1.11115 0)
(0.871154 -1.13491 0)
(0.982127 -1.09473 0)
(1.06959 -0.93777 0)
(1.09986 -0.657487 0)
(1.11586 -0.224418 0)
(1.1059 0.261743 0)
(1.15549 0.266985 0)
(1.22007 -0.0595174 0)
(1.23459 -0.269752 0)
(1.21065 -0.309947 0)
(1.20859 -0.240215 0)
(1.2342 -0.126478 0)
(-0.00685316 -0.615326 0)
(0.0296971 -0.776715 0)
(0.0880624 -0.744265 0)
(0.140829 -0.738676 0)
(0.186087 -0.764349 0)
(0.22892 -0.804202 0)
(0.27026 -0.859981 0)
(0.326607 -0.946646 0)
(0.387774 -1.06596 0)
(0.462188 -1.168 0)
(0.548606 -1.20963 0)
(0.624502 -1.24106 0)
(0.648859 -1.17551 0)
(0.681478 -0.96084 0)
(0.652873 -0.605783 0)
(0.626454 -0.14212 0)
(0.677362 0.243944 0)
(0.869255 0.106151 0)
(0.97327 -0.137639 0)
(1.00558 -0.250639 0)
(0.984162 -0.24613 0)
(0.942488 -0.205454 0)
(0.985364 -0.198228 0)
(0.0257726 -0.643098 0)
(0.0536034 -0.807665 0)
(0.0754054 -0.775091 0)
(0.110735 -0.774353 0)
(0.14453 -0.800459 0)
(0.174526 -0.837958 0)
(0.200366 -0.895201 0)
(0.229591 -0.989451 0)
(0.248341 -1.11532 0)
(0.268155 -1.22036 0)
(0.296143 -1.26467 0)
(0.318496 -1.26358 0)
(0.234913 -1.15551 0)
(0.221322 -0.89769 0)
(0.154841 -0.489591 0)
(0.167664 -0.130656 0)
(0.405876 -0.0240782 0)
(0.588203 -0.114995 0)
(0.686136 -0.186756 0)
(0.714766 -0.209454 0)
(0.72101 -0.237008 0)
(0.799468 -0.279742 0)
(0.937664 -0.358686 0)
(0.0326528 -0.686037 0)
(0.0523532 -0.825089 0)
(0.0609162 -0.795234 0)
(0.0878933 -0.802551 0)
(0.111972 -0.826381 0)
(0.129632 -0.858028 0)
(0.140604 -0.908407 0)
(0.140395 -0.994555 0)
(0.11867 -1.10958 0)
(0.0850257 -1.20938 0)
(0.049634 -1.25002 0)
(0.0109391 -1.2012 0)
(-0.107877 -1.07915 0)
(-0.141443 -0.823494 0)
(-0.138193 -0.496561 0)
(0.0438124 -0.348131 0)
(0.199765 -0.275044 0)
(0.312215 -0.208199 0)
(0.395789 -0.195701 0)
(0.487202 -0.266722 0)
(0.603484 -0.360818 0)
(0.755538 -0.439056 0)
(0.895178 -0.536823 0)
(0.0279206 -0.728799 0)
(0.0442578 -0.834902 0)
(0.0501197 -0.813196 0)
(0.0707793 -0.823098 0)
(0.0863947 -0.841731 0)
(0.0955759 -0.864888 0)
(0.0965429 -0.901377 0)
(0.0784889 -0.967722 0)
(0.0337383 -1.06202 0)
(-0.0340814 -1.14709 0)
(-0.11499 -1.17697 0)
(-0.194478 -1.12463 0)
(-0.287115 -1.00481 0)
(-0.315739 -0.801476 0)
(-0.249243 -0.601689 0)
(-0.155795 -0.490572 0)
(-0.0463988 -0.346523 0)
(0.104335 -0.27731 0)
(0.275916 -0.353517 0)
(0.431876 -0.433194 0)
(0.565333 -0.509401 0)
(0.697449 -0.583501 0)
(0.82636 -0.681209 0)
(0.0211131 -0.764181 0)
(0.0354149 -0.839427 0)
(0.041018 -0.827266 0)
(0.0563358 -0.836973 0)
(0.0669383 -0.850836 0)
(0.0726798 -0.866226 0)
(0.0714927 -0.888077 0)
(0.0528496 -0.931137 0)
(0.00716678 -0.998462 0)
(-0.0660092 -1.06186 0)
(-0.155845 -1.08696 0)
(-0.240892 -1.05136 0)
(-0.296843 -0.956545 0)
(-0.310688 -0.826642 0)
(-0.263684 -0.695746 0)
(-0.180101 -0.600033 0)
(-0.0376417 -0.522922 0)
(0.12887 -0.51898 0)
(0.276668 -0.530163 0)
(0.404755 -0.564608 0)
(0.522793 -0.625735 0)
(0.626673 -0.706239 0)
(0.758461 -0.803803 0)
(0.0148428 -0.791108 0)
(0.0273599 -0.844333 0)
(0.0336602 -0.838959 0)
(0.0450293 -0.847193 0)
(0.0532124 -0.857744 0)
(0.0583078 -0.868125 0)
(0.059713 -0.879808 0)
(0.0507769 -0.903225 0)
(0.0203229 -0.944768 0)
(-0.0332787 -0.989314 0)
(-0.0998198 -1.01221 0)
(-0.162191 -0.996762 0)
(-0.198106 -0.941031 0)
(-0.190637 -0.858923 0)
(-0.135046 -0.77696 0)
(-0.0488025 -0.722072 0)
(0.0475891 -0.677691 0)
(0.155095 -0.644639 0)
(0.264561 -0.641994 0)
(0.37416 -0.675624 0)
(0.479059 -0.731668 0)
(0.571371 -0.811592 0)
(0.687172 -0.902386 0)
(0.010331 -0.810817 0)
(0.0209207 -0.850023 0)
(0.0275084 -0.848616 0)
(0.0362114 -0.855376 0)
(0.0429591 -0.863835 0)
(0.0478376 -0.872035 0)
(0.0518405 -0.879438 0)
(0.0521129 -0.891343 0)
(0.0399511 -0.915286 0)
(0.0121771 -0.945998 0)
(-0.0252615 -0.966312 0)
(-0.0613982 -0.962611 0)
(-0.0811284 -0.933815 0)
(-0.0722033 -0.889809 0)
(-0.0373786 -0.839232 0)
(0.0149527 -0.790672 0)
(0.0800678 -0.753784 0)
(0.15953 -0.736024 0)
(0.25175 -0.744136 0)
(0.345453 -0.775278 0)
(0.436377 -0.825813 0)
(0.523098 -0.900224 0)
(0.609828 -0.991409 0)
(0.00736665 -0.825246 0)
(0.015999 -0.855955 0)
(0.0222129 -0.856497 0)
(0.0290492 -0.862108 0)
(0.0346025 -0.86913 0)
(0.038834 -0.876553 0)
(0.0430117 -0.88331 0)
(0.0469396 -0.891191 0)
(0.0457354 -0.905303 0)
(0.0347784 -0.925274 0)
(0.0150776 -0.941223 0)
(-0.00575902 -0.941899 0)
(-0.017776 -0.924071 0)
(-0.0145604 -0.894178 0)
(0.00601148 -0.863073 0)
(0.0422302 -0.836774 0)
(0.0942425 -0.818195 0)
(0.161127 -0.8147 0)
(0.235935 -0.829022 0)
(0.313685 -0.859966 0)
(0.39254 -0.909206 0)
(0.471338 -0.978866 0)
(0.541032 -1.07318 0)
(0.00538796 -0.835963 0)
(0.0122368 -0.861498 0)
(0.0176655 -0.862851 0)
(0.0230735 -0.867553 0)
(0.0275482 -0.873456 0)
(0.030886 -0.880219 0)
(0.0338138 -0.887101 0)
(0.037045 -0.894312 0)
(0.038662 -0.903726 0)
(0.0347975 -0.915889 0)
(0.0245341 -0.926496 0)
(0.0124378 -0.928622 0)
(0.00584416 -0.920327 0)
(0.0104144 -0.904922 0)
(0.0277779 -0.88821 0)
(0.0578814 -0.87558 0)
(0.100949 -0.871168 0)
(0.154553 -0.878183 0)
(0.214298 -0.897924 0)
(0.278357 -0.931904 0)
(0.345583 -0.982021 0)
(0.413773 -1.05 0)
(0.477063 -1.14333 0)
(0.00403481 -0.843974 0)
(0.00931301 -0.866275 0)
(0.013786 -0.867883 0)
(0.018016 -0.871868 0)
(0.0215211 -0.876866 0)
(0.0241261 -0.882755 0)
(0.0259198 -0.889255 0)
(0.0273694 -0.896194 0)
(0.0281624 -0.903672 0)
(0.0266156 -0.911844 0)
(0.0219747 -0.919104 0)
(0.0166877 -0.92212 0)
(0.0153348 -0.919409 0)
(0.0216409 -0.913562 0)
(0.0374677 -0.908877 0)
(0.0631973 -0.908352 0)
(0.0979641 -0.914098 0)
(0.139951 -0.92843 0)
(0.18739 -0.953527 0)
(0.239337 -0.991511 0)
(0.294627 -1.04383 0)
(0.351443 -1.11202 0)
(0.407227 -1.20255 0)
(0.00305791 -0.849925 0)
(0.00697897 -0.870195 0)
(0.0104785 -0.871771 0)
(0.0136994 -0.875207 0)
(0.0163514 -0.879504 0)
(0.0183475 -0.884566 0)
(0.0195956 -0.890333 0)
(0.0201212 -0.896675 0)
(0.0200427 -0.903386 0)
(0.0192135 -0.91017 0)
(0.0174868 -0.916442 0)
(0.0160929 -0.92099 0)
(0.0178332 -0.923236 0)
(0.0251498 -0.924653 0)
(0.0391106 -0.927793 0)
(0.059735 -0.934844 0)
(0.0865916 -0.947535 0)
(0.118935 -0.967752 0)
(0.155794 -0.997576 0)
(0.196538 -1.0392 0)
(0.240128 -1.09418 0)
(0.285334 -1.16345 0)
(0.331322 -1.25238 0)
(0.00231256 -0.854308 0)
(0.00506002 -0.873189 0)
(0.00762667 -0.874658 0)
(0.00994229 -0.877663 0)
(0.0118184 -0.881455 0)
(0.013227 -0.885935 0)
(0.0141169 -0.891058 0)
(0.0144144 -0.896806 0)
(0.0141741 -0.903067 0)
(0.0136231 -0.909568 0)
(0.0131146 -0.915993 0)
(0.0134672 -0.921995 0)
(0.0161793 -0.927677 0)
(0.0226586 -0.93406 0)
(0.0336148 -0.942686 0)
(0.0491385 -0.955146 0)
(0.0690542 -0.972896 0)
(0.0929554 -0.997597 0)
(0.120215 -1.03113 0)
(0.150436 -1.07564 0)
(0.182636 -1.13297 0)
(0.215788 -1.20372 0)
(0.250619 -1.29193 0)
(0.00170416 -0.857398 0)
(0.00342756 -0.875314 0)
(0.00512761 -0.876648 0)
(0.00661177 -0.879306 0)
(0.0077441 -0.882714 0)
(0.00851841 -0.886802 0)
(0.0089346 -0.891522 0)
(0.00897227 -0.89686 0)
(0.00863949 -0.902805 0)
(0.0081177 -0.90928 0)
(0.00783096 -0.916197 0)
(0.0084168 -0.923579 0)
(0.0106806 -0.931719 0)
(0.0153744 -0.941355 0)
(0.0229471 -0.953571 0)
(0.0335747 -0.96968 0)
(0.0471802 -0.990964 0)
(0.0633473 -1.01878 0)
(0.0816314 -1.0548 0)
(0.101802 -1.10121 0)
(0.122834 -1.16006 0)
(0.143723 -1.23197 0)
(0.166609 -1.31943 0)
(0.00117637 -0.859433 0)
(0.00200353 -0.876594 0)
(0.00290492 -0.87781 0)
(0.00361435 -0.880183 0)
(0.00402913 -0.883276 0)
(0.00414679 -0.887048 0)
(0.00396117 -0.89148 0)
(0.00349083 -0.89657 0)
(0.00277868 -0.90234 0)
(0.0019592 -0.908845 0)
(0.00131875 -0.916174 0)
(0.00126576 -0.924502 0)
(0.00224725 -0.934189 0)
(0.00466876 -0.945864 0)
(0.00881783 -0.960393 0)
(0.0148004 -0.978809 0)
(0.0224775 -1.00224 0)
(0.0314127 -1.03184 0)
(0.0412312 -1.06908 0)
(0.0517496 -1.11615 0)
(0.0617807 -1.17533 0)
(0.0703908 -1.24743 0)
(0.0807041 -1.33361 0)
(0.000722497 -0.860509 0)
(0.000758765 -0.877142 0)
(0.000901562 -0.878206 0)
(0.000893585 -0.880337 0)
(0.000613234 -0.883155 0)
(7.30106e-05 -0.886646 0)
(-0.000754837 -0.890813 0)
(-0.00186018 -0.895692 0)
(-0.0031983 -0.901335 0)
(-0.00466337 -0.907836 0)
(-0.00608865 -0.915363 0)
(-0.00726043 -0.924191 0)
(-0.00795749 -0.934723 0)
(-0.00799845 -0.947506 0)
(-0.00726634 -0.96324 0)
(-0.00576255 -0.982782 0)
(-0.00370478 -1.00709 0)
(-0.00153462 -1.0372 0)
(0.000359469 -1.07443 0)
(0.00161352 -1.12087 0)
(0.000885096 -1.17897 0)
(-0.00265586 -1.24974 0)
(-0.00542533 -1.33361 0)
(0.000318263 -0.860782 0)
(-0.000337315 -0.87697 0)
(-0.000902481 -0.877895 0)
(-0.00157848 -0.879805 0)
(-0.00252825 -0.882365 0)
(-0.00372555 -0.885585 0)
(-0.00521534 -0.889482 0)
(-0.00700943 -0.894111 0)
(-0.00909999 -0.899553 0)
(-0.0114293 -0.905931 0)
(-0.0139037 -0.913437 0)
(-0.0164387 -0.922367 0)
(-0.0189904 -0.933123 0)
(-0.021555 -0.946207 0)
(-0.024158 -0.962212 0)
(-0.0269038 -0.981846 0)
(-0.0300901 -1.00592 0)
(-0.034221 -1.03535 0)
(-0.0397628 -1.07133 0)
(-0.0472426 -1.11584 0)
(-0.0581655 -1.17129 0)
(-0.0733905 -1.23894 0)
(-0.0895556 -1.31893 0)
(-4.38503e-05 -0.860346 0)
(-0.00130111 -0.876138 0)
(-0.00251489 -0.876928 0)
(-0.00380909 -0.878623 0)
(-0.00539146 -0.880923 0)
(-0.00723327 -0.883859 0)
(-0.00939533 -0.887454 0)
(-0.0119111 -0.89177 0)
(-0.0148053 -0.896902 0)
(-0.0180789 -0.902985 0)
(-0.0217148 -0.910216 0)
(-0.0257219 -0.918876 0)
(-0.0301713 -0.929337 0)
(-0.0351898 -0.942049 0)
(-0.0409292 -0.957524 0)
(-0.0475967 -0.976351 0)
(-0.0555722 -0.99921 0)
(-0.0654459 -1.02689 0)
(-0.0777993 -1.06044 0)
(-0.0933172 -1.10163 0)
(-0.113651 -1.1528 0)
(-0.139845 -1.21539 0)
(-0.169294 -1.28952 0)
(-0.000364778 -0.859288 0)
(-0.00214215 -0.874712 0)
(-0.00393524 -0.875364 0)
(-0.00579204 -0.876838 0)
(-0.00795465 -0.878862 0)
(-0.0104048 -0.881481 0)
(-0.013216 -0.884722 0)
(-0.0164471 -0.888649 0)
(-0.0201498 -0.893352 0)
(-0.0243738 -0.898964 0)
(-0.029171 -0.905668 0)
(-0.0346288 -0.913716 0)
(-0.0409005 -0.923436 0)
(-0.0482025 -0.935218 0)
(-0.0567846 -0.949496 0)
(-0.0669494 -0.966753 0)
(-0.0791619 -0.987541 0)
(-0.0941064 -1.01251 0)
(-0.112488 -1.04254 0)
(-0.135133 -1.07916 0)
(-0.163814 -1.1245 0)
(-0.199878 -1.18005 0)
(-0.241661 -1.24596 0)
(-0.000644993 -0.857692 0)
(-0.0028675 -0.872762 0)
(-0.00515961 -0.873271 0)
(-0.00751407 -0.87451 0)
(-0.0101889 -0.876238 0)
(-0.0131873 -0.8785 0)
(-0.0165905 -0.881327 0)
(-0.0204839 -0.884775 0)
(-0.0249458 -0.888927 0)
(-0.0300649 -0.893898 0)
(-0.0359449 -0.899848 0)
(-0.042735 -0.906989 0)
(-0.050654 -0.915593 0)
(-0.059983 -0.925987 0)
(-0.07104 -0.938525 0)
(-0.0842025 -0.953584 0)
(-0.100014 -0.971589 0)
(-0.119245 -0.993044 0)
(-0.142711 -1.01864 0)
(-0.171346 -1.0496 0)
(-0.206994 -1.08777 0)
(-0.251314 -1.13453 0)
(-0.303506 -1.18992 0)
(-0.000884609 -0.855635 0)
(-0.00348039 -0.870367 0)
(-0.00618207 -0.87073 0)
(-0.0089577 -0.871716 0)
(-0.0120632 -0.873124 0)
(-0.0155282 -0.87499 0)
(-0.0194407 -0.877343 0)
(-0.0239083 -0.880228 0)
(-0.0290329 -0.883712 0)
(-0.0349345 -0.887891 0)
(-0.0417557 -0.892889 0)
(-0.0496901 -0.898874 0)
(-0.0590052 -0.906061 0)
(-0.0700312 -0.914701 0)
(-0.0831326 -0.925068 0)
(-0.0987336 -0.937438 0)
(-0.117433 -0.952105 0)
(-0.140068 -0.969419 0)
(-0.167543 -0.989864 0)
(-0.200859 -1.01433 0)
(-0.241842 -1.04431 0)
(-0.292382 -1.08097 0)
(-0.352428 -1.12408 0)
(-0.00108026 -0.853201 0)
(-0.00397529 -0.867616 0)
(-0.00699233 -0.867828 0)
(-0.0101009 -0.868545 0)
(-0.0135458 -0.869613 0)
(-0.0173781 -0.871046 0)
(-0.0216951 -0.872872 0)
(-0.0266199 -0.875121 0)
(-0.0322748 -0.877841 0)
(-0.0388028 -0.881101 0)
(-0.0463741 -0.884989 0)
(-0.0552132 -0.889624 0)
(-0.0656196 -0.895158 0)
(-0.0779574 -0.901772 0)
(-0.0926224 -0.909654 0)
(-0.110062 -0.918979 0)
(-0.130895 -0.929914 0)
(-0.155989 -0.942651 0)
(-0.186313 -0.957461 0)
(-0.222896 -0.97492 0)
(-0.267445 -0.996103 0)
(-0.321952 -1.02192 0)
(-0.386965 -1.05182 0)
(-0.0012199 -0.850468 0)
(-0.00433092 -0.864588 0)
(-0.00757028 -0.864652 0)
(-0.0109137 -0.865085 0)
(-0.0146016 -0.865797 0)
(-0.0186918 -0.866772 0)
(-0.0232941 -0.868033 0)
(-0.0285393 -0.86959 0)
(-0.0345665 -0.871471 0)
(-0.0415345 -0.873717 0)
(-0.0496314 -0.87638 0)
(-0.0590998 -0.879527 0)
(-0.0702563 -0.883249 0)
(-0.0834837 -0.887652 0)
(-0.0991977 -0.892845 0)
(-0.117851 -0.898908 0)
(-0.140048 -0.905882 0)
(-0.166645 -0.913801 0)
(-0.198636 -0.922745 0)
(-0.237042 -0.932985 0)
(-0.283384 -0.945192 0)
(-0.339613 -0.959999 0)
(-0.406657 -0.976628 0)
(-0.00127853 -0.847515 0)
(-0.00450527 -0.861348 0)
(-0.00788117 -0.861264 0)
(-0.0113534 -0.861408 0)
(-0.0151862 -0.861755 0)
(-0.0194206 -0.862258 0)
(-0.0241839 -0.862932 0)
(-0.0296055 -0.863765 0)
(-0.0358354 -0.864763 0)
(-0.0430411 -0.865937 0)
(-0.0514206 -0.867302 0)
(-0.0612237 -0.868882 0)
(-0.0727713 -0.870704 0)
(-0.0864492 -0.872802 0)
(-0.10268 -0.875209 0)
(-0.121914 -0.877918 0)
(-0.144717 -0.880861 0)
(-0.171891 -0.88392 0)
(-0.204409 -0.886994 0)
(-0.243248 -0.890096 0)
(-0.289717 -0.893529 0)
(-0.345612 -0.897673 0)
(-0.412044 -0.901647 0)
(-0.00122217 -0.844524 0)
(-0.00444161 -0.858022 0)
(-0.00787886 -0.857792 0)
(-0.0113657 -0.857645 0)
(-0.015242 -0.857621 0)
(-0.0195045 -0.85765 0)
(-0.0243029 -0.857727 0)
(-0.0297574 -0.857824 0)
(-0.0360223 -0.857921 0)
(-0.0432652 -0.858 0)
(-0.0516846 -0.858039 0)
(-0.0615275 -0.85802 0)
(-0.0731071 -0.857916 0)
(-0.0868001 -0.857694 0)
(-0.103022 -0.85731 0)
(-0.122213 -0.856687 0)
(-0.144893 -0.855663 0)
(-0.171777 -0.85399 0)
(-0.203766 -0.851398 0)
(-0.241773 -0.847686 0)
(-0.286891 -0.842857 0)
(-0.340684 -0.837059 0)
(-0.404309 -0.829421 0)
(-0.00102606 -0.841865 0)
(-0.00409537 -0.85488 0)
(-0.0075263 -0.8545 0)
(-0.010907 -0.854073 0)
(-0.0147155 -0.853677 0)
(-0.0188827 -0.853233 0)
(-0.0235832 -0.852716 0)
(-0.0289263 -0.852082 0)
(-0.0350623 -0.851285 0)
(-0.0421513 -0.850278 0)
(-0.0503822 -0.849004 0)
(-0.0599879 -0.847404 0)
(-0.0712622 -0.8454 0)
(-0.0845609 -0.842903 0)
(-0.100279 -0.8398 0)
(-0.118838 -0.835946 0)
(-0.140712 -0.831113 0)
(-0.166517 -0.824957 0)
(-0.197042 -0.817059 0)
(-0.233108 -0.807039 0)
(-0.275612 -0.794667 0)
(-0.325856 -0.779898 0)
(-0.384954 -0.761937 0)
(-0.000701765 -0.839698 0)
(-0.00347777 -0.851953 0)
(-0.00683633 -0.851425 0)
(-0.00999362 -0.850749 0)
(-0.0136119 -0.849994 0)
(-0.0175519 -0.849096 0)
(-0.0220091 -0.848007 0)
(-0.0270845 -0.846673 0)
(-0.032921 -0.845027 0)
(-0.0396668 -0.842992 0)
(-0.0474933 -0.840481 0)
(-0.0566084 -0.837392 0)
(-0.0672732 -0.833604 0)
(-0.079808 -0.828972 0)
(-0.0945752 -0.823319 0)
(-0.111965 -0.816438 0)
(-0.132409 -0.808052 0)
(-0.156433 -0.797755 0)
(-0.184696 -0.785018 0)
(-0.2179 -0.769309 0)
(-0.256768 -0.750231 0)
(-0.302353 -0.727592 0)
(-0.355664 -0.70071 0)
(-0.000308575 -0.83746 0)
(-0.00267932 -0.848585 0)
(-0.00589832 -0.847919 0)
(-0.00874261 -0.847041 0)
(-0.0120512 -0.845964 0)
(-0.0156366 -0.844649 0)
(-0.0197004 -0.843029 0)
(-0.0243418 -0.841045 0)
(-0.0296951 -0.838614 0)
(-0.0358981 -0.835642 0)
(-0.0431031 -0.832016 0)
(-0.0514879 -0.827601 0)
(-0.0612717 -0.822234 0)
(-0.072724 -0.815721 0)
(-0.0861566 -0.80783 0)
(-0.101912 -0.798289 0)
(-0.120371 -0.78677 0)
(-0.141987 -0.772835 0)
(-0.167305 -0.755884 0)
(-0.196899 -0.735261 0)
(-0.231335 -0.710438 0)
(-0.271422 -0.68111 0)
(-0.318026 -0.646716 0)
(7.17235e-05 -0.835113 0)
(-0.0018295 -0.844712 0)
(-0.00482565 -0.843931 0)
(-0.00729854 -0.842892 0)
(-0.0101922 -0.841526 0)
(-0.01331 -0.839817 0)
(-0.0168399 -0.83769 0)
(-0.0208826 -0.835077 0)
(-0.0255638 -0.83189 0)
(-0.0310143 -0.828022 0)
(-0.0373729 -0.823346 0)
(-0.0447917 -0.817707 0)
(-0.0534487 -0.810916 0)
(-0.0635574 -0.802745 0)
(-0.075365 -0.792917 0)
(-0.089144 -0.781107 0)
(-0.105203 -0.766937 0)
(-0.123916 -0.74994 0)
(-0.145729 -0.729493 0)
(-0.171116 -0.70486 0)
(-0.200498 -0.67541 0)
(-0.234459 -0.640716 0)
(-0.273702 -0.600268 0)
(0.000378384 -0.835324 0)
(-0.00102215 -0.843035 0)
(-0.00366138 -0.842184 0)
(-0.00569139 -0.841028 0)
(-0.00805622 -0.839423 0)
(-0.0105919 -0.837367 0)
(-0.0134517 -0.834779 0)
(-0.0167334 -0.831583 0)
(-0.0205509 -0.827683 0)
(-0.0250257 -0.822961 0)
(-0.0302859 -0.81728 0)
(-0.0364689 -0.810468 0)
(-0.0437263 -0.802322 0)
(-0.052229 -0.792593 0)
(-0.0621659 -0.780977 0)
(-0.0737371 -0.76711 0)
(-0.0871645 -0.750564 0)
(-0.102718 -0.730841 0)
(-0.120736 -0.707318 0)
(-0.141597 -0.679251 0)
(-0.165583 -0.645994 0)
(-0.193055 -0.60705 0)