/*--------------------------------*- C++ -*----------------------------------*\
| =========                 |                                                 |
| \\      /  F ield         | OpenFOAM: The Open Source CFD Toolbox           |
|  \\    /   O peration     | Version:  2206                                  |
|   \\  /    A nd           | Website:  www.openfoam.com                      |
|    \\/     M anipulation  |                                                 |
\*---------------------------------------------------------------------------*/
FoamFile
{
    version     2.0;
    format      ascii;
    arch        "LSB;label=32;scalar=64";
    class       surfaceScalarField;
    location    "0.25";
    object      phi;
}
// * * * * * * * * * * * * * * * * * * * * * * * * * * * * * * * * * * * * * //

dimensions      [0 3 -1 0 0 0 0];

oriented        oriented;

internalField   nonuniform List<scalar> 
4432
(
4.26615e-07
-4.26615e-07
5.03225e-06
-4.60562e-06
1.12292e-05
-6.19694e-06
1.72792e-05
-6.04999e-06
2.26025e-05
-5.32331e-06
2.72665e-05
-4.66398e-06
3.15243e-05
-4.25781e-06
3.55897e-05
-4.06546e-06
3.95693e-05
-3.97958e-06
4.34667e-05
-3.89743e-06
4.72109e-05
-3.74423e-06
5.06783e-05
-3.46732e-06
5.37045e-05
-3.02622e-06
5.60433e-05
-2.33881e-06
5.73426e-05
-1.29935e-06
5.67284e-05
6.14223e-07
5.25181e-05
4.21034e-06
4.30289e-05
9.48917e-06
2.71294e-05
1.58995e-05
6.33508e-06
2.07943e-05
-1.20924e-05
1.84275e-05
-1.80208e-05
5.92844e-06
-1.80208e-05
4.88956e-07
-9.15575e-07
5.12884e-06
-9.2455e-06
1.13318e-05
-1.23999e-05
1.73725e-05
-1.20908e-05
2.26866e-05
-1.06374e-05
2.73535e-05
-9.33093e-06
3.16323e-05
-8.53661e-06
3.57336e-05
-8.16676e-06
3.97576e-05
-8.00362e-06
4.37045e-05
-7.84429e-06
4.75028e-05
-7.54254e-06
5.10326e-05
-6.99705e-06
5.41264e-05
-6.12004e-06
5.65943e-05
-4.80673e-06
5.81958e-05
-2.90089e-06
5.89956e-05
-1.85579e-07
5.9317e-05
3.88898e-06
5.81377e-05
1.06685e-05
5.24512e-05
2.1586e-05
3.84022e-05
3.48433e-05
1.73295e-05
3.95002e-05
1.83137e-06
2.14266e-05
-1.61895e-05
5.91826e-07
-1.5074e-06
5.27242e-06
-1.39261e-05
1.14412e-05
-1.85686e-05
1.74026e-05
-1.80522e-05
2.26419e-05
-1.58766e-05
2.72682e-05
-1.39573e-05
3.15468e-05
-1.28152e-05
3.56792e-05
-1.22992e-05
3.97529e-05
-1.20773e-05
4.37595e-05
-1.18509e-05
4.7626e-05
-1.1409e-05
5.12352e-05
-1.06063e-05
5.44338e-05
-9.31862e-06
5.70336e-05
-7.40652e-06
5.88064e-05
-4.67369e-06
5.94669e-05
-8.46104e-07
5.89102e-05
4.44569e-06
5.76761e-05
1.19026e-05
5.64258e-05
2.28362e-05
5.28261e-05
3.8443e-05
4.08571e-05
5.14692e-05
2.01877e-05
4.2096e-05
3.99826e-06
7.47785e-07
-2.25519e-06
5.49441e-06
-1.86727e-05
1.16099e-05
-2.46841e-05
1.74522e-05
-2.38945e-05
2.25855e-05
-2.101e-05
2.7162e-05
-1.85337e-05
3.14506e-05
-1.71038e-05
3.56364e-05
-1.6485e-05
3.9788e-05
-1.62288e-05
4.38859e-05
-1.59488e-05
4.78552e-05
-1.53784e-05
5.15841e-05
-1.43351e-05
5.49303e-05
-1.26648e-05
5.77199e-05
-1.01961e-05
5.97449e-05
-6.69877e-06
6.0761e-05
-1.86216e-06
6.04953e-05
4.71138e-06
5.89043e-05
1.34936e-05
5.69122e-05
2.48283e-05
5.55808e-05
3.97745e-05
4.98422e-05
5.72078e-05
3.09969e-05
6.09413e-05
3.49952e-05
9.55263e-07
-3.21045e-06
5.78062e-06
-2.34981e-05
1.18149e-05
-3.07184e-05
1.74994e-05
-2.9579e-05
2.25011e-05
-2.60117e-05
2.70231e-05
-2.30556e-05
3.13327e-05
-2.14135e-05
3.55904e-05
-2.07427e-05
3.98408e-05
-2.04793e-05
4.40521e-05
-2.016e-05
4.81484e-05
-1.94747e-05
5.20256e-05
-1.82123e-05
5.55551e-05
-1.61943e-05
5.8582e-05
-1.32231e-05
6.09222e-05
-9.03889e-06
6.23587e-05
-3.29869e-06
6.26502e-05
4.4199e-06
6.15851e-05
1.45587e-05
5.90802e-05
2.73332e-05
5.62971e-05
4.25576e-05
5.1751e-05
6.17539e-05
3.55912e-05
7.7101e-05
7.05864e-05
1.20925e-06
-4.41971e-06
6.11441e-06
-2.84033e-05
1.2035e-05
-3.6639e-05
1.75277e-05
-3.50717e-05
2.23813e-05
-3.08654e-05
2.68506e-05
-2.75249e-05
3.11934e-05
-2.57563e-05
3.55377e-05
-2.5087e-05
3.99012e-05
-2.48427e-05
4.42396e-05
-2.44985e-05
4.84786e-05
-2.37137e-05
5.25247e-05
-2.22584e-05
5.62664e-05
-1.9936e-05
5.95696e-05
-1.65263e-05
6.22702e-05
-1.17395e-05
6.41681e-05
-5.19655e-06
6.50257e-05
3.56225e-06
6.46264e-05
1.4958e-05
6.25495e-05
2.94101e-05
5.86765e-05
4.64306e-05
5.29205e-05
6.75099e-05
3.78599e-05
9.21615e-05
0.000108446
1.50109e-06
-5.9208e-06
6.48078e-06
-3.33829e-05
1.2253e-05
-4.24112e-05
1.75272e-05
-4.03458e-05
2.22266e-05
-3.55649e-05
2.66521e-05
-3.19504e-05
3.10413e-05
-3.01455e-05
3.54832e-05
-2.95289e-05
3.99675e-05
-2.93269e-05
4.44397e-05
-2.89708e-05
4.88311e-05
-2.81051e-05
5.30631e-05
-2.64903e-05
5.70434e-05
-2.39163e-05
6.06574e-05
-2.01403e-05
6.37573e-05
-1.48394e-05
6.61568e-05
-7.5961e-06
6.7612e-05
2.10704e-06
6.78832e-05
1.46868e-05
6.65932e-05
3.07002e-05
6.29436e-05
5.00802e-05
5.61915e-05
7.4262e-05
4.27796e-05
0.000105574
0.000151226
1.81737e-06
-7.73816e-06
6.85843e-06
-3.8424e-05
1.24531e-05
-4.80058e-05
1.74984e-05
-4.53911e-05
2.20514e-05
-4.01179e-05
2.64477e-05
-3.63466e-05
3.08951e-05
-3.45929e-05
3.54403e-05
-3.40742e-05
4.00472e-05
-3.39338e-05
4.46565e-05
-3.35801e-05
4.92115e-05
-3.266e-05
5.36529e-05
-3.09318e-05
5.79066e-05
-2.817e-05
6.18729e-05
-2.41066e-05
6.54152e-05
-1.83817e-05
6.83543e-05
-1.05352e-05
7.04436e-05
1.76966e-08
7.14174e-05
1.37131e-05
7.10101e-05
3.11075e-05
6.84778e-05
5.26125e-05
6.19342e-05
8.08056e-05
4.79822e-05
0.000119526
0.000199208
7.05729e-06
-7.05729e-06
1.08128e-05
-3.7554e-06
1.22848e-05
-1.47213e-06
1.32062e-05
-9.21472e-07
1.38165e-05
-6.10355e-07
1.42365e-05
-4.20027e-07
1.45235e-05
-2.86736e-07
1.46715e-05
-1.48182e-07
1.46877e-05
-1.60015e-08
1.44915e-05
1.96109e-07
1.40069e-05
4.84698e-07
1.31936e-05
8.13413e-07
1.20486e-05
1.14471e-06
1.05882e-05
1.46074e-06
8.8436e-06
1.74427e-06
6.85069e-06
1.9929e-06
4.67123e-06
2.17912e-06
2.36149e-06
2.30975e-06
2.36168e-06
6.06709e-06
-1.31245e-05
1.00246e-05
-7.71285e-06
1.19171e-05
-3.3647e-06
1.33218e-05
-2.32634e-06
1.42198e-05
-1.50815e-06
1.48149e-05
-1.0152e-06
1.52612e-05
-7.32606e-07
1.55951e-05
-4.82492e-07
1.5747e-05
-1.67684e-07
1.56647e-05
2.78489e-07
1.52858e-05
8.63576e-07
1.45521e-05
1.54737e-06
1.34269e-05
2.26944e-06
1.18994e-05
2.98847e-06
1.00025e-05
3.64042e-06
7.78967e-06
4.2058e-06
5.32608e-06
4.64264e-06
2.69332e-06
4.94207e-06
5.05507e-06
7.05595e-06
-2.01806e-05
1.08384e-05
-1.14952e-05
1.2299e-05
-4.82533e-06
1.35241e-05
-3.55147e-06
1.43163e-05
-2.30011e-06
1.48449e-05
-1.5439e-06
1.52544e-05
-1.14191e-06
1.55676e-05
-7.95909e-07
1.57373e-05
-3.37239e-07
1.56658e-05
3.50005e-07
1.52875e-05
1.24166e-06
1.45402e-05
2.29497e-06
1.33985e-05
3.41082e-06
1.1864e-05
4.52324e-06
9.96269e-06
5.54128e-06
7.75446e-06
6.41417e-06
5.29864e-06
7.09868e-06
2.67894e-06
7.56139e-06
7.73403e-06
8.37033e-06
-2.85509e-05
1.16515e-05
-1.47763e-05
1.25405e-05
-5.71417e-06
1.37271e-05
-4.73828e-06
1.44438e-05
-3.01645e-06
1.48957e-05
-1.99607e-06
1.52851e-05
-1.53115e-06
1.5616e-05
-1.1271e-06
1.58143e-05
-5.35371e-07
1.57784e-05
3.85898e-07
1.5425e-05
1.59479e-06
1.46841e-05
3.03611e-06
1.35284e-05
4.56633e-06
1.19794e-05
6.07257e-06
1.00563e-05
7.46411e-06
7.82097e-06
8.64957e-06
5.34616e-06
9.57373e-06
2.70242e-06
1.02047e-05
1.04366e-05
1.02663e-05
-3.88172e-05
1.26621e-05
-1.7172e-05
1.26239e-05
-5.67586e-06
1.39236e-05
-6.03813e-06
1.45995e-05
-3.69224e-06
1.49571e-05
-2.35397e-06
1.53201e-05
-1.89399e-06
1.56923e-05
-1.49948e-06
1.59544e-05
-7.97357e-07
1.59773e-05
3.62997e-07
1.56647e-05
1.90714e-06
1.49451e-05
3.75619e-06
1.37888e-05
5.72239e-06
1.22103e-05
7.65142e-06
1.0255e-05
9.41931e-06
7.97822e-06
1.09266e-05
5.45274e-06
1.20994e-05
2.75647e-06
1.29006e-05
1.31933e-05
1.34434e-05
-5.22606e-05
1.44308e-05
-1.81594e-05
1.24079e-05
-3.65287e-06
1.40094e-05
-7.6399e-06
1.46859e-05
-4.36867e-06
1.49612e-05
-2.62949e-06
1.53214e-05
-2.25401e-06
1.57653e-05
-1.94344e-06
1.61209e-05
-1.15293e-06
1.6227e-05
2.56919e-07
1.5971e-05
2.16312e-06
1.5276e-05
4.45157e-06
1.4124e-05
6.87429e-06
1.25217e-05
9.25389e-06
1.05183e-05
1.14227e-05
8.18591e-06
1.3259e-05
5.59406e-06
1.46913e-05
2.82816e-06
1.56662e-05
1.60217e-05
1.49252e-05
-6.71858e-05
1.50745e-05
-1.83089e-05
1.14661e-05
-4.45319e-08
1.40314e-05
-1.02054e-05
1.46638e-05
-5.00093e-06
1.48658e-05
-2.83165e-06
1.52747e-05
-2.66269e-06
1.58219e-05
-2.49067e-06
1.63034e-05
-1.63439e-06
1.6537e-05
2.34011e-08
1.63588e-05
2.34128e-06
1.56988e-05
5.1117e-06
1.45391e-05
8.03353e-06
1.28967e-05
1.08965e-05
1.08437e-05
1.34755e-05
8.43528e-06
1.56671e-05
5.76662e-06
1.73598e-05
2.91606e-06
1.85166e-05
1.89379e-05
7.60377e-06
-7.47896e-05
8.79894e-06
-1.95041e-05
8.25789e-06
4.96477e-07
1.42938e-05
-1.62414e-05
1.48661e-05
-5.57319e-06
1.48605e-05
-2.82596e-06
1.5251e-05
-3.05293e-06
1.59099e-05
-3.14955e-06
1.65444e-05
-2.26903e-06
1.69088e-05
-3.40869e-07
1.68213e-05
2.42854e-06
1.61997e-05
5.73331e-06
1.50329e-05
9.19999e-06
1.33552e-05
1.25741e-05
1.12253e-05
1.56053e-05
8.73714e-06
1.81551e-05
5.97053e-06
2.01265e-05
3.0184e-06
2.14688e-05
2.19565e-05
4.873e-06
-1.26112e-05
1.58317e-05
-4.93828e-05
2.7103e-05
-5.92771e-05
3.70607e-05
-5.53488e-05
4.63297e-05
-4.93869e-05
5.56652e-05
-4.56821e-05
6.5357e-05
-4.42847e-05
7.53734e-05
-4.40906e-05
8.55856e-05
-4.4146e-05
9.58846e-05
-4.3879e-05
0.000106208
-4.2984e-05
0.000116479
-4.1202e-05
0.000126563
-3.82546e-05
0.000136308
-3.38512e-05
0.000145511
-2.75845e-05
0.000153864
-1.88886e-05
0.00016082
-6.9386e-06
0.000165494
9.03973e-06
0.00016775
2.88506e-05
0.000167171
5.31917e-05
0.000164245
8.3732e-05
0.000167037
0.000116734
0.000169463
0.000196781
6.31587e-06
-1.8927e-05
1.73628e-05
-6.04297e-05
2.77237e-05
-6.9638e-05
3.67733e-05
-6.43984e-05
4.56462e-05
-5.82598e-05
5.50649e-05
-5.51009e-05
6.51094e-05
-5.43292e-05
7.56031e-05
-5.45843e-05
8.63913e-05
-5.49343e-05
9.74144e-05
-5.49021e-05
0.000108668
-5.42381e-05
0.000120056
-5.25893e-05
0.000131435
-4.9634e-05
0.000142872
-4.52875e-05
0.000154447
-3.91593e-05
0.000166108
-3.05505e-05
0.000177494
-1.83237e-05
0.000186889
-3.55376e-07
0.000195233
2.05063e-05
0.000201696
4.67283e-05
0.000210354
7.50746e-05
0.000225253
0.000101834
0.000136505
0.000258212
7.74e-06
-2.6667e-05
1.87035e-05
-7.13932e-05
2.80584e-05
-7.89929e-05
3.63183e-05
-7.26583e-05
4.4985e-05
-6.69265e-05
5.45845e-05
-6.47004e-05
6.49466e-05
-6.46913e-05
7.57822e-05
-6.54199e-05
8.69364e-05
-6.60885e-05
9.83628e-05
-6.63285e-05
0.000110027
-6.59027e-05
0.000121768
-6.43297e-05
0.000133737
-6.16029e-05
0.00014681
-5.83612e-05
0.000161308
-5.36568e-05
0.000177121
-4.63633e-05
0.000192161
-3.33643e-05
0.000206685
-1.48795e-05
0.0002193
7.89197e-06
0.000228299
3.77287e-05
0.000239073
6.43011e-05
0.000251677
8.92297e-05
0.000112778
0.000275404
9.08016e-06
-3.57472e-05
1.97189e-05
-8.2032e-05
2.80267e-05
-8.73007e-05
3.56626e-05
-8.02941e-05
4.42327e-05
-7.54966e-05
5.38979e-05
-7.43656e-05
6.42181e-05
-7.50115e-05
7.48207e-05
-7.60225e-05
8.55563e-05
-7.6824e-05
9.63884e-05
-7.71607e-05
0.000107441
-7.69553e-05
0.000119015
-7.59034e-05
0.00013243
-7.50184e-05
0.000150061
-7.59915e-05
0.000169749
-7.3345e-05
0.000191467
-6.80819e-05
0.000212622
-5.45193e-05
0.000231257
-3.3514e-05
0.000243063
-3.91459e-06
0.000250443
3.03493e-05
0.000258137
5.66064e-05
0.000268223
7.91441e-05
9.72853e-05
0.000283716
1.03671e-05
-4.61143e-05
2.01837e-05
-9.18486e-05
2.72499e-05
-9.43669e-05
3.42824e-05
-8.73267e-05
4.25745e-05
-8.37887e-05
5.17805e-05
-8.35717e-05
6.12781e-05
-8.45091e-05
7.07939e-05
-8.55383e-05
8.04411e-05
-8.64712e-05
9.06178e-05
-8.73374e-05
0.000102415
-8.87525e-05
0.000117711
-9.11991e-05
0.000138393
-9.57005e-05
0.000167692
-0.000105291
0.000194536
-0.000100189
0.000218436
-9.19816e-05
0.000235683
-7.17669e-05
0.000250721
-4.85511e-05
0.000257327
-1.05215e-05
0.000262448
2.52292e-05
0.000266292
5.27618e-05
0.000271773
7.36631e-05
8.74362e-05
0.000281622
1.16432e-05
-5.77575e-05
1.99314e-05
-0.000100137
2.52949e-05
-9.97304e-05
3.15573e-05
-9.3589e-05
3.92869e-05
-9.15183e-05
4.76929e-05
-9.19777e-05
5.64033e-05
-9.32195e-05
6.58108e-05
-9.49457e-05
7.71316e-05
-9.7792e-05
9.16098e-05
-0.000101816
0.000112481
-0.000109624
0.00014128
-0.000119998
0.000178258
-0.000132679
0.000222268
-0.000149301
0.000251803
-0.000129724
0.000262173
-0.000102352
0.000247235
-5.68287e-05
0.00024411
-4.54257e-05
0.000275772
-4.21836e-05
0.000303526
-2.52515e-06
0.00030571
5.05781e-05
0.000293987
8.53862e-05
9.49551e-05
0.000286468
1.36624e-05
-7.142e-05
2.01197e-05
-0.000106594
2.3093e-05
-0.000102704
2.88851e-05
-9.93811e-05
3.70811e-05
-9.97143e-05
4.66724e-05
-0.000101569
5.81344e-05
-0.000104681
7.33364e-05
-0.000110148
9.53885e-05
-0.000119844
0.000124653
-0.00013108
0.000173543
-0.000158514
0.000220911
-0.000167366
0.000260002
-0.00017177
0.000276626
-0.000165925
0.000278435
-0.000131532
0.000242961
-6.68772e-05
0.000213386
-2.72536e-05
0.000235322
-6.73616e-05
0.0002876
-9.44614e-05
0.00035507
-6.99959e-05
0.000398574
7.07447e-06
0.000395324
8.86361e-05
0.000125277
0.000365002
1.85418e-05
-8.99618e-05
2.37689e-05
-0.000111821
2.50888e-05
-0.000104024
3.30657e-05
-0.000107358
4.60714e-05
-0.00011272
6.2195e-05
-0.000117693
8.37497e-05
-0.000126236
0.000116488
-0.000142886
0.00015521
-0.000158566
0.000193652
-0.000169521
0.000226433
-0.000191296
0.000260947
-0.000201879
0.000284654
-0.000195476
0.000288615
-0.000169887
0.000272499
-0.000115416
0.000238407
-3.27849e-05
0.000231522
-2.03686e-05
0.00024991
-8.57498e-05
0.00026916
-0.000113712
0.000298542
-9.93771e-05
0.000343914
-3.82977e-05
0.000382457
5.00933e-05
0.00011314
0.000394594
2.54405e-05
-0.000115402
3.2341e-05
-0.000118722
4.03794e-05
-0.000112062
5.63422e-05
-0.000123321
7.86933e-05
-0.000135071
0.000101191
-0.00014019
0.000125488
-0.000150534
0.000148058
-0.000165455
0.000174321
-0.000184829
0.000208723
-0.000203924
0.000238045
-0.000220617
0.00026514
-0.000228974
0.000285985
-0.000216321
0.000293657
-0.00017756
0.000281577
-0.000103335
0.000255689
-6.89705e-06
0.000249385
-1.40645e-05
0.000243346
-7.97112e-05
0.000237796
-0.000108162
0.00023448
-9.60607e-05
0.000241756
-4.55735e-05
0.000270119
2.17297e-05
7.54056e-05
0.000307853
1.11907e-05
-0.000126593
3.02681e-05
-0.000137799
4.80641e-05
-0.000129858
6.08986e-05
-0.000136155
7.28255e-05
-0.000146998
8.96521e-05
-0.000157017
0.000108487
-0.000169369
0.000129795
-0.000186763
0.00015456
-0.000209594
0.000182251
-0.000231615
0.000209268
-0.000247634
0.000233939
-0.000253645
0.000250969
-0.000233351
0.000257629
-0.00018422
0.000253875
-9.95807e-05
0.000244177
2.80059e-06
0.000234796
-4.68282e-06
0.000221734
-6.66494e-05
0.000205632
-9.20602e-05
0.000183839
-7.42679e-05
0.000167755
-2.94891e-05
0.000178945
1.05398e-05
3.60751e-05
0.000218275
1.78622e-06
-0.000128379
1.56224e-05
-0.000151635
3.33318e-05
-0.000147567
4.75954e-05
-0.000150419
5.92855e-05
-0.000158688
7.16104e-05
-0.000169342
8.5722e-05
-0.00018348
0.000102815
-0.000203855
0.000123734
-0.000230514
0.000144129
-0.00025201
0.000161863
-0.000265367
0.000178213
-0.000269995
0.000186453
-0.000241592
0.000185297
-0.000183064
0.000177115
-9.13987e-05
0.000181599
-1.68288e-06
0.000192177
-1.52609e-05
0.000185593
-6.00652e-05
0.000166027
-7.24938e-05
0.000142906
-5.11474e-05
0.00013592
-2.25036e-05
0.00015378
-7.32034e-06
-1.51445e-06
0.00019137
5.38997e-06
-0.000133769
1.69069e-05
-0.000163152
2.73668e-05
-0.000158027
3.72275e-05
-0.000160279
4.6501e-05
-0.000167961
5.5513e-05
-0.000178354
6.5081e-05
-0.000193048
7.60664e-05
-0.00021484
8.77516e-05
-0.000242199
9.69611e-05
-0.00026122
0.000103908
-0.000272314
0.000106605
-0.000272693
0.000104418
-0.000239405
9.42633e-05
-0.00017291
8.29919e-05
-8.01273e-05
0.0001106
-2.92912e-05
0.000136069
-4.07294e-05
0.00013403
-5.80261e-05
0.00011808
-5.65442e-05
0.000112931
-4.59976e-05
0.000128876
-3.84493e-05
0.000160965
-3.94092e-05
-4.25909e-05
0.000202042
9.13687e-06
-0.000142906
1.50476e-05
-0.000169063
2.14073e-05
-0.000164387
2.84796e-05
-0.000167352
3.49045e-05
-0.000174386
4.02258e-05
-0.000183675
4.44043e-05
-0.000197226
4.7318e-05
-0.000217754
4.78318e-05
-0.000242713
4.72333e-05
-0.000260621
4.44346e-05
-0.000269515
3.54659e-05
-0.000263724
2.45084e-05
-0.000228447
1.3467e-05
-0.000161868
2.42127e-05
-9.08727e-05
6.0917e-05
-6.59953e-05
7.90857e-05
-5.8898e-05
7.72717e-05
-5.6212e-05
8.18506e-05
-6.1123e-05
0.000100569
-6.47165e-05
0.000131348
-6.92273e-05
0.000168328
-7.63899e-05
-8.42053e-05
0.000209943
9.02467e-06
-0.000151931
1.18144e-05
-0.000171852
1.62243e-05
-0.000168797
2.11063e-05
-0.000172234
2.48364e-05
-0.000178117
2.68033e-05
-0.000185642
2.60386e-05
-0.000196462
2.15887e-05
-0.000213304
1.31165e-05
-0.00023424
3.65907e-06
-0.000251164
-8.00831e-06
-0.000257848
-2.31997e-05
-0.000248533
-3.63963e-05
-0.000215251
-3.78552e-05
-0.00016041
-1.94333e-05
-0.000109294
3.64626e-06
-8.90747e-05
2.18694e-05
-7.7121e-05
4.28465e-05
-7.7189e-05
6.94626e-05
-8.77391e-05
9.92027e-05
-9.44568e-05
0.000131273
-0.000101297
0.00016598
-0.000111097
-0.000123148
0.000204923
7.38301e-06
-0.000159314
8.84386e-06
-0.000173313
1.20678e-05
-0.000172021
1.5105e-05
-0.000175271
1.68473e-05
-0.000179859
1.66402e-05
-0.000185435
1.31043e-05
-0.000192926
4.78437e-06
-0.000204984
-8.76007e-06
-0.000220696
-2.53644e-05
-0.000234559
-4.37951e-05
-0.000239417
-6.17604e-05
-0.000230568
-7.36267e-05
-0.000203385
-7.13652e-05
-0.000162671
-5.47896e-05
-0.00012587
-3.00365e-05
-0.000113828
3.60978e-06
-0.000110767
3.8042e-05
-0.000111621
6.66166e-05
-0.000116314
9.47042e-05
-0.000122544
0.000124284
-0.000130877
0.000155788
-0.000142601
-0.000158385
0.000191024
5.4231e-06
-0.000164737
6.39944e-06
-0.00017429
8.64974e-06
-0.000174271
1.03864e-05
-0.000177008
1.10658e-05
-0.000180538
1.01373e-05
-0.000184506
6.34267e-06
-0.000189131
-2.2544e-06
-0.000196387
-1.61606e-05
-0.000206789
-3.42447e-05
-0.000216475
-5.35606e-05
-0.000220101
-7.03444e-05
-0.000213784
-7.83052e-05
-0.000195424
-7.06768e-05
-0.000170299
-4.6666e-05
-0.000149881
-1.87621e-05
-0.000141732
9.66485e-06
-0.000139194
3.64566e-05
-0.000138413
6.10404e-05
-0.000140898
8.68293e-05
-0.000148333
0.000114067
-0.000158115
0.000143031
-0.000171565
-0.000190827
0.000175473
3.64668e-06
-0.000168383
4.45054e-06
-0.000175094
5.92826e-06
-0.000175749
6.87523e-06
-0.000177955
7.03335e-06
-0.000180696
6.14653e-06
-0.000183619
3.46859e-06
-0.000186453
-2.51405e-06
-0.000190404
-1.27877e-05
-0.000196516
-2.61985e-05
-0.000203064
-3.99226e-05
-0.000206377
-5.05005e-05
-0.000203206
-5.28629e-05
-0.000193061
-4.37607e-05
-0.000179402
-2.60229e-05
-0.000167618
-6.7614e-06
-0.000160993
1.22753e-05
-0.000158231
3.22244e-05
-0.000158362
5.41312e-05
-0.000162804
7.70643e-05
-0.000171266
0.000101344
-0.000182395
0.000127562
-0.000197783
-0.0002204
0.000157136
2.28057e-06
-0.000170664
2.91781e-06
-0.000175731
3.76238e-06
-0.000176593
4.17054e-06
-0.000178363
4.01287e-06
-0.000180539
3.2486e-06
-0.000182855
1.76537e-06
-0.00018497
-1.32754e-06
-0.000187311
-7.0056e-06
-0.000190837
-1.48188e-05
-0.000195251
-2.29215e-05
-0.000198274
-2.8787e-05
-0.000197341
-2.9938e-05
-0.00019191
-2.51894e-05
-0.00018415
-1.54197e-05
-0.000177388
-2.9456e-06
-0.000173467
1.12585e-05
-0.000172435
2.77135e-05
-0.000174817
4.59501e-05
-0.000181041
6.53064e-05
-0.000190623
8.59882e-05
-0.000203076
0.000108168
-0.000219962
-0.000245011
0.000132778
1.29126e-06
-0.000171955
1.65774e-06
-0.000176097
2.02792e-06
-0.000176964
2.04514e-06
-0.00017838
1.64431e-06
-0.000180138
8.49099e-07
-0.00018206
-1.89533e-07
-0.000183931
-1.74112e-06
-0.00018576
-4.54875e-06
-0.000188029
-8.93515e-06
-0.000190864
-1.40837e-05
-0.000193126
-1.82416e-05
-0.000193183
-1.95316e-05
-0.00019062
-1.69651e-05
-0.000186717
-1.09036e-05
-0.00018345
-2.17409e-06
-0.000182197
8.9507e-06
-0.00018356
2.20355e-05
-0.000187902
3.65619e-05
-0.000195567
5.20721e-05
-0.000206133
6.88084e-05
-0.000219813
8.63852e-05
-0.000237539
-0.00026337
0.000104745
5.88535e-07
-0.000172544
6.7314e-07
-0.000176182
6.27037e-07
-0.000176917
3.24867e-07
-0.000178078
-3.08494e-07
-0.000179504
-1.25257e-06
-0.000181116
-2.38286e-06
-0.000182801
-3.67031e-06
-0.000184472
-5.48971e-06
-0.00018621
-8.25522e-06
-0.000188099
-1.1639e-05
-0.000189742
-1.44935e-05
-0.000190328
-1.55523e-05
-0.000189562
-1.4039e-05
-0.00018823
-9.85685e-06
-0.000187632
-3.35896e-06
-0.000188695
4.99493e-06
-0.000191914
1.48127e-05
-0.00019772
2.57027e-05
-0.000206457
3.76096e-05
-0.00021804
5.03353e-05
-0.000232538
6.35982e-05
-0.000250802
-0.000276439
7.66674e-05
6.88622e-08
-0.000172613
-1.49767e-07
-0.000175963
-5.07741e-07
-0.000176559
-1.07283e-06
-0.000177513
-1.89362e-06
-0.000178683
-2.9873e-06
-0.000180022
-4.31038e-06
-0.000181478
-5.79146e-06
-0.000182991
-7.49125e-06
-0.00018451
-9.57438e-06
-0.000186016
-1.19196e-05
-0.000187397
-1.38791e-05
-0.000188369
-1.46061e-05
-0.000188835
-1.35576e-05
-0.000189278
-1.06791e-05
-0.00019051
-6.21213e-06
-0.000193162
-4.48433e-07
-0.000197677
6.3727e-06
-0.000204541
1.4024e-05
-0.000214109
2.24191e-05
-0.000226435
3.11751e-05
-0.000241294
4.03084e-05
-0.000259935
-0.000285191
4.90598e-05
-3.05825e-07
-0.000172307
-8.06951e-07
-0.000175462
-1.4307e-06
-0.000175936
-2.21935e-06
-0.000176724
-3.20348e-06
-0.000177699
-4.40263e-06
-0.000178823
-5.81794e-06
-0.000180063
-7.41503e-06
-0.000181394
-9.14508e-06
-0.00018278
-1.0983e-05
-0.000184178
-1.28328e-05
-0.000185547
-1.43606e-05
-0.000186841
-1.50764e-05
-0.000188119
-1.46469e-05
-0.000189708
-1.30547e-05
-0.000192103
-1.04582e-05
-0.000195758
-7.02835e-06
-0.000201107
-2.94074e-06
-0.000208628
1.64188e-06
-0.000218691
6.55754e-06
-0.00023135
1.17747e-05
-0.000246512
1.67728e-05
-0.000264933
-0.000289624
2.12055e-05
-5.95314e-07
-0.000171712
-1.34611e-06
-0.000174711
-2.19325e-06
-0.000175089
-3.17515e-06
-0.000175742
-4.31213e-06
-0.000176562
-5.61415e-06
-0.000177521
-7.08262e-06
-0.000178594
-8.70813e-06
-0.000179769
-1.04545e-05
-0.000181034
-1.22546e-05
-0.000182378
-1.39993e-05
-0.000183803
-1.54948e-05
-0.000185346
-1.64924e-05
-0.000187121
-1.68318e-05
-0.000189369
-1.65133e-05
-0.000192421
-1.56305e-05
-0.000196641
-1.43121e-05
-0.000202426
-1.27317e-05
-0.000210208
-1.10805e-05
-0.000220342
-9.53852e-06
-0.000232893
-8.28074e-06
-0.000247769
-7.46714e-06
-0.000265746
-0.00028943
-7.66113e-06
-8.30262e-07
-0.000170881
-1.79185e-06
-0.00017375
-2.83039e-06
-0.00017405
-3.98183e-06
-0.000174591
-5.26425e-06
-0.00017528
-6.68552e-06
-0.0001761
-8.24317e-06
-0.000177037
-9.9296e-06
-0.000178082
-1.17252e-05
-0.000179239
-1.35823e-05
-0.000180521
-1.54198e-05
-0.000181965
-1.71279e-05
-0.000183637
-1.85924e-05
-0.000185657
-1.97484e-05
-0.000188213
-2.06137e-05
-0.000191556
-2.12741e-05
-0.000195981
-2.18713e-05
-0.000201829
-2.25996e-05
-0.00020948
-2.36801e-05
-0.000219262
-2.53205e-05
-0.000231252
-2.77333e-05
-0.000245357
-3.12829e-05
-0.000262197
-0.000284069
-3.66439e-05
-1.02506e-06
-0.000169856
-2.16242e-06
-0.000172613
-3.36474e-06
-0.000172848
-4.66481e-06
-0.00017329
-6.08167e-06
-0.000173863
-7.62583e-06
-0.000174556
-9.29886e-06
-0.000175364
-1.1094e-05
-0.000176287
-1.29972e-05
-0.000177336
-1.49859e-05
-0.000178533
-1.70242e-05
-0.000179927
-1.90636e-05
-0.000181598
-2.10601e-05
-0.00018366
-2.30059e-05
-0.000186267
-2.49499e-05
-0.000189612
-2.69985e-05
-0.000193932
-2.93172e-05
-0.00019951
-3.21254e-05
-0.000206672
-3.56752e-05
-0.000215712
-4.02082e-05
-0.000226719
-4.59786e-05
-0.000239586
-5.34283e-05
-0.000254747
-0.000274239
-6.32574e-05
-1.18588e-06
-0.000168671
-2.46884e-06
-0.00017133
-3.80968e-06
-0.000171507
-5.23875e-06
-0.000171861
-6.77677e-06
-0.000172325
-8.43683e-06
-0.000172896
-1.02271e-05
-0.000173574
-1.21496e-05
-0.000174365
-1.42011e-05
-0.000175285
-1.63753e-05
-0.000176359
-1.86658e-05
-0.000177637
-2.10691e-05
-0.000179195
-2.35933e-05
-0.000181136
-2.6273e-05
-0.000183588
-2.91853e-05
-0.0001867
-3.2461e-05
-0.000190657
-3.62878e-05
-0.000195683
-4.09138e-05
-0.000202047
-4.66292e-05
-0.000209997
-5.3724e-05
-0.000219625
-6.25063e-05
-0.000230804
-7.34751e-05
-0.000243779
-0.000260321
-8.7393e-05
-1.31519e-06
-0.000167356
-2.71649e-06
-0.000169928
-4.17171e-06
-0.000170052
-5.71013e-06
-0.000170323
-7.35425e-06
-0.000170681
-9.12033e-06
-0.00017113
-1.10224e-05
-0.000171672
-1.30719e-05
-0.000172316
-1.52786e-05
-0.000173078
-1.76521e-05
-0.000173986
-2.02065e-05
-0.000175082
-2.29676e-05
-0.000176434
-2.59783e-05
-0.000178125
-2.93065e-05
-0.00018026
-3.30546e-05
-0.000182952
-3.73721e-05
-0.000186339
-4.24668e-05
-0.000190589
-4.86103e-05
-0.000195903
-5.61315e-05
-0.000202476
-6.53832e-05
-0.000210373
-7.67627e-05
-0.000219424
-9.08999e-05
-0.000229641
-0.000242342
-0.000108879
-1.41395e-06
-0.000165942
-2.90743e-06
-0.000168435
-4.4528e-06
-0.000168506
-6.07957e-06
-0.000168696
-7.81148e-06
-0.000168949
-9.66879e-06
-0.000169273
-1.1671e-05
-0.000169669
-1.3837e-05
-0.00017015
-1.61871e-05
-0.000170728
-1.87449e-05
-0.000171428
-2.15419e-05
-0.000172285
-2.4623e-05
-0.000173353
-2.80527e-05
-0.000174696
-3.19207e-05
-0.000176392
-3.63485e-05
-0.000178524
-4.15003e-05
-0.000181187
-4.75951e-05
-0.000184494
-5.49192e-05
-0.000188579
-6.38225e-05
-0.000193573
-7.47044e-05
-0.000199491
-8.80154e-05
-0.000206113
-0.000104467
-0.000213189
-0.000221439
-0.000125371
-1.48316e-06
-0.000164458
-3.04261e-06
-0.000166875
-4.65305e-06
-0.000166896
-6.34494e-06
-0.000167004
-8.14255e-06
-0.000167152
-1.00699e-05
-0.000167345
-1.2151e-05
-0.000167588
-1.44115e-05
-0.000167889
-1.688e-05
-0.00016826
-1.95903e-05
-0.000168717
-2.25862e-05
-0.000169289
-2.5926e-05
-0.000170013
-2.9687e-05
-0.000170935
-3.3971e-05
-0.000172108
-3.89102e-05
-0.000173585
-4.46756e-05
-0.000175422
-5.14896e-05
-0.00017768
-5.96362e-05
-0.000180433
-6.94696e-05
-0.00018374
-8.13951e-05
-0.000187566
-9.58743e-05
-0.000191634
-0.000113571
-0.000195493
-0.000199303
-0.000135707
-1.5243e-06
-0.000162934
-3.12303e-06
-0.000165276
-4.77226e-06
-0.000165246
-6.50363e-06
-0.000165273
-8.34147e-06
-0.000165314
-1.03128e-05
-0.000165374
-1.2445e-05
-0.000165456
-1.4769e-05
-0.000165565
-1.73196e-05
-0.000165709
-2.01378e-05
-0.000165899
-2.32751e-05
-0.000166152
-2.67976e-05
-0.00016649
-3.07892e-05
-0.000166943
-3.53569e-05
-0.00016754
-4.06352e-05
-0.000168307
-4.67933e-05
-0.000169263
-5.40462e-05
-0.000170427
-6.26638e-05
-0.000171815
-7.29784e-05
-0.000173425
-8.53734e-05
-0.000175171
-0.00010027
-0.000176737
-0.000118219
-0.000177545
-0.000177334
-0.000140189
-1.53901e-06
-0.000161395
-3.14988e-06
-0.000163665
-4.81054e-06
-0.000163586
-6.55363e-06
-0.00016353
-8.40338e-06
-0.000163464
-1.03887e-05
-0.000163388
-1.25394e-05
-0.000163305
-1.48899e-05
-0.000163215
-1.74787e-05
-0.00016312
-2.03513e-05
-0.000163026
-2.35636e-05
-0.000162939
-2.7185e-05
-0.000162869
-3.13013e-05
-0.000162827
-3.60188e-05
-0.000162822
-4.14675e-05
-0.000162858
-4.78071e-05
-0.000162924
-5.52361e-05
-0.000162998
-6.39987e-05
-0.000163052
-7.43895e-05
-0.000163035
-8.67423e-05
-0.000162818
-0.000101409
-0.000162071
-0.000118788
-0.000160166
-0.000156589
-0.000139532
-1.5281e-06
-0.000159867
-3.12394e-06
-0.000162069
-4.76809e-06
-0.000161942
-6.49397e-06
-0.000161804
-8.32552e-06
-0.000161632
-1.02922e-05
-0.000161422
-1.24254e-05
-0.000161172
-1.47611e-05
-0.000160879
-1.734e-05
-0.000160542
-2.02095e-05
-0.000160157
-2.34268e-05
-0.000159722
-2.70608e-05
-0.000159235
-3.11956e-05
-0.000158692
-3.59327e-05
-0.000158085
-4.13931e-05
-0.000157398
-4.77208e-05
-0.000156596
-5.5091e-05
-0.000155628
-6.37153e-05
-0.000154428
-7.38402e-05
-0.00015291
-8.57395e-05
-0.000150919
-9.9678e-05
-0.000148133
-0.00011591
-0.000143933
-0.000137691
-0.000134809
-1.4901e-06
-0.000158376
-3.04406e-06
-0.000160515
-4.64413e-06
-0.000160342
-6.32393e-06
-0.000160124
-8.1068e-06
-0.000159849
-1.00216e-05
-0.000159507
-1.21001e-05
-0.000159093
-1.43785e-05
-0.000158601
-1.68976e-05
-0.000158023
-1.97051e-05
-0.000157349
-2.28569e-05
-0.000156571
-2.64193e-05
-0.000155673
-3.04712e-05
-0.00015464
-3.51067e-05
-0.00015345
-4.04347e-05
-0.00015207
-4.65808e-05
-0.00015045
-5.36924e-05
-0.000148516
-6.19441e-05
-0.000146177
-7.15348e-05
-0.000143319
-8.26727e-05
-0.000139781
-9.55416e-05
-0.000135264
-0.000110275
-0.0001292
-0.000120942
-0.000127024
-1.4199e-06
-0.000156956
-2.90578e-06
-0.000159029
-4.43532e-06
-0.000158812
-6.0411e-06
-0.000158519
-7.74571e-06
-0.000158145
-9.57642e-06
-0.000157676
-1.15642e-05
-0.000157105
-1.37437e-05
-0.000156421
-1.61547e-05
-0.000155611
-1.88433e-05
-0.000154661
-2.18625e-05
-0.000153551
-2.52741e-05
-0.000152261
-2.91501e-05
-0.000150764
-3.35745e-05
-0.000149025
-3.86431e-05
-0.000147001
-4.44626e-05
-0.00014463
-5.11524e-05
-0.000141827
-5.88494e-05
-0.00013848
-6.77067e-05
-0.000134462
-7.78743e-05
-0.000129613
-8.94675e-05
-0.000123671
-0.000102525
-0.000116142
-0.000106415
-0.000117052
-1.30923e-06
-0.000155647
-2.70161e-06
-0.000157637
-4.13524e-06
-0.000157379
-5.6398e-06
-0.000157014
-7.23757e-06
-0.000156547
-8.95368e-06
-0.00015596
-1.08171e-05
-0.000155242
-1.28597e-05
-0.000154379
-1.51188e-05
-0.000153352
-1.7637e-05
-0.000152143
-2.04628e-05
-0.000150726
-2.36525e-05
-0.000149072
-2.72699e-05
-0.000147146
-3.13884e-05
-0.000144907
-3.60899e-05
-0.000142299
-4.14635e-05
-0.000139257
-4.7603e-05
-0.000135687
-5.46099e-05
-0.000131473
-6.25962e-05
-0.000126476
-7.16651e-05
-0.000120544
-8.18777e-05
-0.000113458
-9.32111e-05
-0.000104809
-9.40475e-05
-0.000105579
-1.15128e-06
-0.000154496
-2.42566e-06
-0.000156363
-3.73841e-06
-0.000156066
-5.11436e-06
-0.000155638
-6.57651e-06
-0.000155085
-8.14797e-06
-0.000154389
-9.85509e-06
-0.000153535
-1.17265e-05
-0.000152507
-1.37954e-05
-0.000151283
-1.60989e-05
-0.000149839
-1.86799e-05
-0.000148145
-2.15872e-05
-0.000146164
-2.48765e-05
-0.000143857
-2.861e-05
-0.000141173
-3.28563e-05
-0.000138053
-3.76884e-05
-0.000134425
-4.31792e-05
-0.000130197
-4.94008e-05
-0.000125251
-5.64282e-05
-0.000119448
-6.43308e-05
-0.000112642
-7.31342e-05
-0.000104655
-8.27755e-05
-9.51679e-05
-8.37017e-05
-9.31212e-05
-9.49425e-07
-0.000153547
-2.08395e-06
-0.000155228
-3.25249e-06
-0.000154897
-4.47322e-06
-0.000154417
-5.77076e-06
-0.000153788
-7.16684e-06
-0.000152993