/*--------------------------------*- C++ -*----------------------------------*\
| =========                 |                                                 |
| \\      /  F ield         | OpenFOAM: The Open Source CFD Toolbox           |
|  \\    /   O peration     | Version:  2206                                  |
|   \\  /    A nd           | Website:  www.openfoam.com                      |
|    \\/     M anipulation  |                                                 |
\*---------------------------------------------------------------------------*/
FoamFile
{
    version     2.0;
    format      ascii;
    arch        "LSB;label=32;scalar=64";
    class       surfaceScalarField;
    location    "0.8";
    object      alphaPhi0.water;
}
// * * * * * * * * * * * * * * * * * * * * * * * * * * * * * * * * * * * * * //

dimensions      [0 3 -1 0 0 0 0];

oriented        oriented;

internalField   nonuniform List<scalar> 
4432
(
-4.95088e-06
4.95088e-06
-1.0535e-05
5.58417e-06
-1.59223e-05
5.38725e-06
-2.0968e-05
5.04572e-06
-2.42212e-05
3.25323e-06
-2.41462e-05
-7.5073e-08
-2.19455e-05
-2.20068e-06
-1.99339e-05
-2.01162e-06
-1.90315e-05
-9.02358e-07
-1.90106e-05
-2.09362e-08
-1.96002e-05
5.89595e-07
-2.06452e-05
1.04505e-06
-2.18283e-05
1.18311e-06
-2.2437e-05
6.08852e-07
-2.19586e-05
-3.93641e-07
-2.19788e-05
6.99288e-07
-2.7142e-05
4.27853e-06
-3.25559e-05
5.32757e-06
-3.19701e-05
-5.21945e-07
-2.50056e-05
-6.87359e-06
-1.54268e-05
-9.4775e-06
-5.60598e-06
-9.84782e-06
-5.6187e-06
-7.91726e-06
1.28681e-05
-1.4824e-05
1.24909e-05
-2.03244e-05
1.08877e-05
-2.43813e-05
9.10259e-06
-2.60632e-05
4.93513e-06
-2.51445e-05
-9.93829e-07
-2.25728e-05
-4.77231e-06
-2.01965e-05
-4.38794e-06
-1.91635e-05
-1.93539e-06
-1.92175e-05
3.31362e-08
-1.99052e-05
1.27724e-06
-2.09429e-05
2.08274e-06
-2.22895e-05
2.52984e-06
-2.42069e-05
2.52736e-06
-2.67201e-05
2.58326e-06
-2.92892e-05
4.28782e-06
-3.11881e-05
6.23166e-06
-2.90835e-05
2.68428e-06
-2.28521e-05
-6.85883e-06
-1.55957e-05
-1.39902e-05
-9.01045e-06
-1.59879e-05
-2.63126e-06
-1.65149e-05
-8.24976e-06
-7.73843e-06
2.06066e-05
-1.41212e-05
1.88736e-05
-1.94697e-05
1.62362e-05
-2.39919e-05
1.36248e-05
-2.65419e-05
7.48514e-06
-2.59786e-05
-1.55717e-06
-2.33793e-05
-7.3716e-06
-2.08827e-05
-6.88455e-06
-1.95919e-05
-3.22612e-06
-1.932e-05
-2.38819e-07
-1.94187e-05
1.376e-06
-1.95358e-05
2.1998e-06
-1.96918e-05
2.68581e-06
-2.03319e-05
3.16763e-06
-2.18491e-05
4.15376e-06
-2.23522e-05
5.79964e-06
-2.07687e-05
5.16038e-06
-1.64579e-05
-1.75058e-06
-1.11588e-05
-1.2282e-05
-6.67834e-06
-1.918e-05
-2.72281e-06
-2.11067e-05
8.22576e-07
-2.01088e-05
-7.42644e-06
-6.65853e-06
2.72651e-05
-1.24713e-05
2.46863e-05
-1.77259e-05
2.14909e-05
-2.23024e-05
1.82012e-05
-2.49562e-05
1.01389e-05
-2.48552e-05
-1.65814e-06
-2.30489e-05
-9.1779e-06
-2.13263e-05
-8.60717e-06
-2.03312e-05
-4.22124e-06
-2.00887e-05
-4.81272e-07
-2.01661e-05
1.4534e-06
-2.00545e-05
2.08816e-06
-1.95113e-05
2.14261e-06
-1.85724e-05
2.22879e-06
-1.72949e-05
2.87667e-06
-1.50646e-05
3.61049e-06
-1.12279e-05
1.54401e-06
-7.34624e-06
-5.71077e-06
-4.7691e-06
-1.52765e-05
-2.6568e-06
-2.12923e-05
1.86664e-08
-2.37822e-05
2.8027e-06
-2.28928e-05
-4.62616e-06
-5.26148e-06
3.25266e-05
-1.02643e-05
2.96892e-05
-1.47409e-05
2.59675e-05
-1.83694e-05
2.18297e-05
-2.04424e-05
1.2212e-05
-2.09399e-05
-1.16072e-06
-2.08258e-05
-9.29192e-06
-2.09465e-05
-8.48652e-06
-2.10082e-05
-4.15958e-06
-2.10489e-05
-4.40533e-07
-2.11891e-05
1.59362e-06
-2.11223e-05
2.02133e-06
-2.05119e-05
1.53222e-06
-1.90993e-05
8.16218e-07
-1.66029e-05
3.80237e-07
-1.28213e-05
-1.71103e-07
-8.51112e-06
-2.76616e-06
-5.46205e-06
-8.75984e-06
-4.52991e-06
-1.62086e-05
-3.55621e-06
-2.2266e-05
-7.62833e-07
-2.65756e-05
2.41826e-06
-2.6074e-05
-2.208e-06
-3.45799e-06
3.59846e-05
-7.1676e-06
3.33988e-05
-1.03533e-05
2.91532e-05
-1.26107e-05
2.4087e-05
-1.39092e-05
1.35105e-05
-1.51356e-05
6.56854e-08
-1.72571e-05
-7.17035e-06
-1.98692e-05
-5.87444e-06
-2.1469e-05
-2.55981e-06
-2.2047e-05
1.37464e-07
-2.22478e-05
1.79445e-06
-2.21506e-05
1.92408e-06
-2.15257e-05
9.07309e-07
-2.01426e-05
-5.6682e-07
-1.77408e-05
-2.02155e-06
-1.42578e-05
-3.65418e-06
-1.05077e-05
-6.51628e-06
-7.96335e-06
-1.13041e-05
-7.02448e-06
-1.71475e-05
-6.08841e-06
-2.32021e-05
-3.63256e-06
-2.90314e-05
-8.49168e-07
-2.88573e-05
-3.05716e-06
-1.44384e-06
3.74284e-05
-3.70701e-06
3.56619e-05
-5.50697e-06
3.09532e-05
-6.21889e-06
2.4799e-05
-6.56046e-06
1.38521e-05
-8.70037e-06
2.20602e-06
-1.37857e-05
-2.07887e-06
-1.88579e-05
-8.0225e-07
-2.18686e-05
4.50906e-07
-2.30635e-05
1.33232e-06
-2.33571e-05
2.08813e-06
-2.31488e-05
1.71577e-06
-2.23883e-05
1.46825e-07
-2.09186e-05
-2.0365e-06
-1.86032e-05
-4.33694e-06
-1.54973e-05
-6.76009e-06
-1.22557e-05
-9.75786e-06
-9.85417e-06
-1.37057e-05
-8.63747e-06
-1.83642e-05
-8.16782e-06
-2.36718e-05
-7.88941e-06
-2.93098e-05
-6.81823e-06
-2.99284e-05
-9.87553e-06
6.9845e-07
3.67299e-05
8.14338e-07
3.55461e-05
1.786e-06
2.99815e-05
3.32812e-06
2.32568e-05
2.56969e-06
1.46105e-05
-3.05334e-06
7.82905e-06
-1.19545e-05
6.7697e-06
-1.84821e-05
5.72531e-06
-2.20428e-05
4.01165e-06
-2.38359e-05
3.12535e-06
-2.44705e-05
2.72276e-06
-2.43213e-05
1.56664e-06
-2.34672e-05
-7.07267e-07
-2.18079e-05
-3.69586e-06
-1.93358e-05
-6.80899e-06
-1.61896e-05
-9.90626e-06
-1.29197e-05
-1.30278e-05
-1.03047e-05
-1.63208e-05
-8.93961e-06
-1.97292e-05
-9.18221e-06
-2.34291e-05
-1.12934e-05
-2.71986e-05
-1.20958e-05
-2.91259e-05
-2.19715e-05
1.18492e-05
-1.07693e-05
-1.47928e-06
1.09024e-05
-3.33365e-05
2.88036e-05
-4.26825e-05
1.45721e-05
-2.15785e-05
-1.8166e-05
5.13559e-06
-2.76114e-05
1.50509e-05
-7.66868e-06
2.13915e-05
-9.69886e-07
1.15469e-05
6.73191e-06
-3.73738e-06
1.52843e-05
-1.5853e-05
1.21156e-05
-1.88154e-05
2.96241e-06
-1.80137e-05
-8.01483e-07
-3.38166e-05
1.58049e-05
-5.04303e-05
1.66202e-05
-5.44989e-05
4.11825e-06
-4.59039e-05
-4.8903e-06
-2.51225e-05
-1.42952e-05
-1.87721e-05
-2.94343e-06
-8.77918e-06
-3.30206e-05
3.87289e-05
-5.06913e-05
5.02728e-05
-2.39082e-05
-6.84402e-06
2.12253e-06
-5.23673e-05
1.89944e-05
-4.28715e-05
3.49392e-05
-1.72511e-05
3.86527e-05
-1.08066e-05
4.13063e-05
4.8424e-07
3.85981e-05
8.49516e-06
2.87632e-05
1.98381e-05
4.60566e-07
2.87546e-05
-3.36189e-05
3.328e-05
-4.96989e-05
3.18914e-05
-4.09302e-05
1.18604e-05
-3.17642e-05
3.73633e-06
-2.33112e-05
-3.20156e-06
-1.44922e-05
-1.38371e-05
-2.54315e-05
-1.9569e-05
1.0866e-05
-4.86066e-05
6.89154e-05
-2.79699e-05
3.24193e-05
-8.93021e-06
-2.79672e-05
6.73363e-06
-8.14412e-05
1.5648e-05
-5.20289e-05
2.38631e-05
-2.70022e-05
2.57984e-05
-1.90206e-05
2.69109e-05
-7.85704e-06
3.99868e-05
5.20313e-06
4.07257e-05
1.77196e-05
2.95735e-05
3.8548e-05
7.24353e-06
5.29018e-05
-1.21692e-05
5.26683e-05
-1.21164e-05
1.69651e-05
-1.57539e-05
7.11289e-06
-1.51886e-05
-4.04093e-06
-1.04701e-05
-1.88166e-05
-3.62015e-05
-2.9434e-05
3.96679e-05
-3.74671e-05
7.74438e-05
-1.51961e-05
1.54246e-05
-2.93379e-07
-4.55322e-05
6.24311e-06
-8.787e-05
1.19813e-05
-5.77959e-05
1.47456e-05
-2.97941e-05
1.92381e-05
-2.44456e-05
2.59649e-05
-1.57832e-05
3.31032e-05
-1.67024e-06
4.09191e-05
1.06035e-05
4.74886e-05
3.47374e-05
4.17576e-05
5.94188e-05
2.27683e-05
6.20664e-05
7.07885e-06
3.26989e-05
1.51296e-06
1.24048e-05
-1.55475e-06
-1.24724e-06
-1.69978e-06
-1.89456e-05
-4.34988e-05
-3.07658e-05
7.01944e-05
-2.48849e-05
7.21209e-05
-1.12869e-05
-2.5951e-06
1.69566e-06
-6.6691e-05
4.58698e-06
-9.05117e-05
7.82317e-06
-6.08552e-05
5.52965e-06
-2.75297e-05
7.91947e-06
-2.68627e-05
1.43756e-05
-2.19494e-05
2.22802e-05
-9.28501e-06
3.26966e-05
1.50785e-06
4.86149e-05
1.82058e-05
5.85454e-05
4.81649e-05
6.0308e-05
5.64305e-05
3.49405e-05
4.99977e-05
2.10568e-05
2.63329e-05
1.44356e-05
5.09989e-06
1.54208e-05
-1.26876e-05
-4.78393e-05
-2.93184e-05
9.98493e-05
-2.07757e-05
6.72532e-05
-1.09581e-05
-1.68015e-05
-2.50972e-06
-0.000101029
1.03865e-06
-9.38788e-05
2.49419e-06
-4.74087e-05
-3.49352e-06
-9.78384e-06
-4.22669e-06
-1.15524e-05
2.15109e-07
-6.72447e-06
5.59085e-06
-4.2683e-07
1.37232e-05
-7.40534e-07
3.03278e-05
4.12816e-06
4.8789e-05
2.27145e-05
6.0533e-05
3.80866e-05
6.52866e-05
3.80518e-05
4.16015e-05
4.216e-05
2.74363e-05
1.91489e-05
2.95553e-05
-4.03176e-06
-2.91749e-05
-2.55523e-05
0.00012577
-1.59245e-05
7.00671e-05
-1.16697e-05
-2.60032e-05
-1.00977e-05
-0.00010305
-2.27318e-06
-0.000101249
-1.6272e-07
-7.15796e-06
-1.28807e-06
-6.25225e-07
-7.2175e-07
-4.56146e-07
-3.63782e-07
-5.71772e-07
-4.01143e-07
-3.97455e-07
-6.00753e-07
-4.5676e-07
4.30878e-06
-1.17835e-06
1.93226e-05
1.40657e-06
3.85967e-05
6.22442e-06
5.42354e-05
1.45871e-05
5.7596e-05
3.80669e-05
5.08034e-05
3.45446e-05
3.42588e-05
1.60693e-05
-5.06034e-06
-2.19122e-05
0.000149301
-1.82652e-05
6.01523e-05
-1.60563e-05
-3.40504e-05
-1.57873e-05
-0.000101872
-1.67233e-06
-9.04299e-05
-9.4488e-08
-4.66252e-06
7.97625e-08
-7.97522e-07
-5.19433e-08
-3.27615e-07
-2.91055e-07
-3.37538e-07
-3.80636e-07
-3.17058e-07
-8.66122e-08
-7.5877e-07
8.2811e-07
-2.09217e-06
1.59368e-06
4.48119e-07
3.56355e-06
2.28119e-06
2.31223e-05
1.13889e-06
4.61537e-05
2.53057e-05
4.41646e-05
3.68841e-05
2.98058e-05
3.0755e-05
2.53195e-05
5.75012e-06
1.56976e-05
5.18672e-06
2.11966e-05
7.83631e-07
2.04433e-05
-8.55484e-06
1.96766e-05
-2.16892e-05
1.67702e-05
-3.62036e-05
1.55223e-05
-4.34187e-05
1.39847e-05
-4.71204e-05
9.42698e-06
-4.97658e-05
6.65711e-06
-5.19634e-05
5.32295e-06
-5.33615e-05
4.12084e-06
-5.34126e-05
1.61771e-06
-5.17588e-05
-2.36105e-06
-4.79922e-05
-7.46237e-06
-4.18868e-05
-1.29139e-05
-3.38471e-05
-1.79449e-05
-2.573e-05
-2.11438e-05
-1.96526e-05
-2.23973e-05
-1.70583e-05
-2.23223e-05
-1.81516e-05
-2.23349e-05
-2.21969e-05
-2.31527e-05
-2.62714e-05
-2.50508e-05
-2.62575e-05
-2.19858e-05
-1.17396e-05
-8.42824e-07
-1.74794e-05
-5.31752e-07
-2.44692e-05
-3.97089e-07
-3.13442e-05
1.14529e-06
-4.07665e-05
2.8832e-06
-4.95348e-05
3.69378e-06
-5.42525e-05
3.154e-06
-5.52538e-05
1.8134e-06
-5.3729e-05
5.5587e-07
-5.15093e-05
7.32158e-07
-5.01399e-05
1.51179e-06
-5.00478e-05
1.08787e-06
-5.00723e-05
-2.34849e-06
-4.71382e-05
-1.03887e-05
-3.99715e-05
-2.0062e-05
-3.08181e-05
-2.70723e-05
-2.29596e-05
-2.898e-05
-1.8179e-05
-2.71632e-05
-1.64182e-05
-2.4073e-05
-1.63389e-05
-2.24055e-05
-1.71486e-05
-2.23372e-05
-1.81352e-05
-2.40616e-05
-3.16859e-05
-1.27068e-05
-1.78382e-06
-7.50064e-08
-2.51162e-06
5.71868e-08
-3.48631e-06
2.65026e-08
-7.48753e-06
-9.03208e-08
-1.06191e-05
-1.2204e-07
-1.41191e-05
-1.62815e-07
-1.94213e-05
-1.74925e-07
-2.76584e-05
-3.59271e-07
-3.66354e-05
-1.49819e-06
-4.30494e-05
-1.96836e-06
-4.7923e-05
-1.31234e-06
-5.53514e-05
-9.34662e-07
-6.45436e-05
-2.1844e-06
-6.46007e-05
-6.97174e-06
-5.74456e-05
-1.44748e-05
-4.57148e-05
-1.89906e-05
-3.61143e-05
-1.72207e-05
-2.89022e-05
-1.18499e-05
-2.45573e-05
-6.66233e-06
-2.31468e-05
-6.55049e-06
-2.50105e-05
-1.06647e-05
-3.07586e-05
-1.66286e-05
-2.31971e-05
-3.92394e-05
-2.59032e-07
1.01691e-08
-2.73557e-07
3.51561e-08
-3.04594e-07
2.40237e-08
-4.35741e-07
7.53387e-09
-5.94185e-07
-5.62931e-10
-8.04168e-07
-9.99812e-09
-1.09905e-06
-9.78899e-09
-2.19498e-06
-4.38172e-08
-5.06962e-06
-3.65072e-07
-1.47376e-05
-1.13708e-06
-3.13111e-05
-2.17863e-06
-4.6424e-05
-2.76235e-06
-5.7085e-05
-4.54603e-06
-6.36052e-05
-1.70106e-05
-6.02613e-05
-4.0568e-05
-3.95707e-05
-3.27649e-05
-2.49864e-05
-2.18639e-05
-1.80126e-05
-1.84999e-05
-1.41172e-05
-1.32621e-05
-1.29166e-05
-1.00919e-05
-1.09123e-05
-9.72203e-06
-3.45738e-05
-6.99757e-06
-4.56238e-06
-6.89373e-05
-4.80099e-08
1.53693e-08
-4.25971e-08
1.45198e-08
-3.44324e-08
7.21119e-09
-3.72514e-08
3.25593e-09
-4.5701e-08
1.29964e-09
-6.42082e-08
-1.44521e-10
-9.95512e-08
-1.52754e-09
-2.14214e-07
-1.56028e-09
-8.03546e-07
9.89606e-10
-2.97416e-06
2.48126e-10
-7.64105e-06
-4.57128e-07
-1.15612e-05
-2.13948e-06
-2.77874e-05
-1.19489e-05
-8.68912e-05
-4.63381e-05
-0.000137554
-5.39035e-05
-9.41213e-05
-5.25987e-05
-5.74784e-05
-4.49045e-05
-3.95613e-05
-3.28369e-05
-3.07535e-05
-2.47741e-05
-2.80775e-05
-1.54723e-05
-1.86407e-05
-3.02363e-05
-1.33834e-05
-2.57331e-05
-4.44012e-06
-6.52027e-05
-1.01821e-08
1.38056e-08
-7.02748e-09
6.3295e-09
-4.22075e-09
2.07624e-09
-3.30847e-09
7.81372e-10
-3.49357e-09
3.32362e-10
-5.0769e-09
2.10638e-10
-8.90126e-09
1.14843e-10
-1.68687e-08
-2.7167e-10
-3.1252e-08
-1.53752e-09
-6.17253e-08
-4.73463e-09
-5.13497e-07
4.09576e-09
-2.49373e-06
-1.85563e-07
-7.1322e-05
-2.90452e-06
-0.000140414
-2.63989e-05
-0.000140739
-3.96542e-05
-0.00013132
-4.80924e-05
-0.000118828
-4.34721e-05
-0.000106554
-2.98203e-05
-1.61465e-05
-2.37603e-05
-9.40851e-05
-3.54322e-05
-0.000121631
-5.77714e-05
-0.000110288
-3.62373e-05
-8.19231e-06
-9.84227e-05
-6.71104e-10
9.5153e-09
-1.06368e-09
4.39208e-09
-4.68281e-10
7.36228e-10
-1.97694e-10
1.77751e-10
-1.12913e-10
5.88598e-11
-1.04337e-10
3.836e-11
-2.6417e-10
5.51638e-11
-1.09212e-09
1.14376e-10
-3.6934e-09
1.9974e-10
-1.22243e-08
1.66272e-10
-3.82283e-08
-1.75634e-09
-1.28803e-07
-2.14117e-08
-2.86006e-06
-8.22024e-08
-4.01405e-05
-4.02526e-08
-8.89013e-05
-3.80718e-07
-0.000116426
-3.09514e-06
-8.20094e-05
-1.77478e-05
-1.79017e-05
-4.35617e-06
-2.0031e-05
-7.81154e-07
-7.52437e-05
-5.95429e-06
-0.000119061
-1.75637e-05
-0.000127847
-3.01067e-05
-1.39345e-05
-0.000121062
1.71292e-09
6.4495e-09
9.9769e-12
7.50008e-09
-2.30589e-11
4.50232e-10
2.60244e-12
6.76726e-11
1.24453e-11
1.53279e-11
2.29333e-11
7.04257e-12
4.76739e-11
6.74898e-12
1.0368e-10
1.6509e-11
2.12999e-10
3.47629e-11
2.80774e-10
5.80421e-11
-4.60199e-10
3.59835e-11
-2.02351e-08
-3.58095e-10
-2.18025e-09
-7.78727e-10
-3.40956e-08
-3.3091e-09
-4.13368e-07
-1.31778e-09
-3.50058e-06
-7.62839e-09
-1.11092e-06
-4.64454e-08
-3.92999e-07
-1.63707e-07
-1.11079e-06
-1.55729e-07
-6.58921e-06
-7.7572e-07
-2.25371e-05
-2.74794e-06
-8.72128e-05
-6.57443e-06
-1.62138e-05
-0.000121742
1.21965e-09
2.90515e-09
3.2274e-10
6.2358e-09
2.12987e-11
6.14019e-10
3.32209e-12
5.1961e-11
3.64543e-12
4.69024e-12
4.13214e-12
2.14298e-12
7.3424e-12
8.38962e-13
1.79988e-11
1.7562e-12
4.72271e-11
2.73042e-12
1.12483e-10
2.17649e-12
2.5931e-10
-2.10266e-12
6.99071e-10
-3.13288e-11
2.44375e-10
-2.61493e-10
-4.57096e-10
1.42928e-15
-1.14477e-09
-3.23904e-10
-5.91293e-09
-1.91915e-09
-3.41227e-08
-1.79331e-08
-1.1879e-07
-8.39765e-08
-1.51261e-07
-1.47858e-07
-3.04692e-07
-6.9689e-07
-1.81393e-06
-1.72858e-06
-5.86192e-06
-3.12215e-06
-3.63055e-06
-5.3581e-05
9.17248e-10
4.82707e-10
8.30831e-10
1.35594e-09
1.34183e-11
9.72084e-10
6.3376e-12
4.91788e-11
1.50177e-12
5.11318e-12
7.59013e-13
6.53984e-13
7.59557e-13
2.5237e-13
1.867e-12
2.01275e-13
5.69211e-12
-1.20409e-13
1.5396e-11
-2.35187e-12
3.45677e-11
-7.04555e-12
8.79631e-11
-1.09222e-11
5.89381e-11
-2.2665e-11
2.18961e-11
-5.5861e-12
8.5048e-11
6.35678e-11
2.04687e-09
-3.37236e-11
-1.42462e-08
-2.0707e-09
-8.7688e-08
-2.16258e-08
-1.69627e-07
-8.49651e-08
-1.08879e-06
-6.44101e-07
-2.27771e-06
-1.22362e-06
-3.58189e-06
-1.29083e-06
-5.74164e-07
-5.76808e-06
2.07689e-10
8.5031e-11
3.38684e-10
1.95181e-10
1.15148e-10
3.1379e-10
3.09037e-12
7.52947e-11
7.34092e-13
5.46716e-12
2.06663e-13
5.95366e-13
1.17125e-13
9.28027e-14
1.94957e-13
3.40124e-14
9.29805e-13
2.61352e-13
3.83602e-12
5.01709e-13
6.83878e-12
-6.51491e-14
4.97669e-12
-2.82567e-12
4.86563e-12
-1.89385e-12
2.88778e-12
-3.89708e-13
3.73637e-13
-1.05414e-13
1.65931e-10
4.1506e-12
-2.29841e-09
2.94179e-11
-2.32192e-08
-5.34134e-10
-1.14678e-07
-1.20673e-08
-1.77017e-06
-9.88014e-08
-2.97757e-06
-3.97313e-07
-2.67523e-06
-4.10345e-07
-4.82419e-07
-3.24053e-06
3.19523e-11
1.2365e-11
8.80288e-11
4.76072e-11
4.69382e-11
3.67677e-12
-2.73893e-12
2.57208e-11
2.54727e-14
3.04381e-12
7.43307e-14
3.04109e-13
2.39381e-14
3.88927e-14
3.37451e-14
9.21843e-15
2.77375e-13
3.59258e-14
2.1e-12
8.67212e-13
2.50322e-12
1.94474e-12
3.38195e-13
-1.6008e-13
2.74424e-13
-1.66502e-13
1.7473e-13
-2.1033e-14
-6.81089e-14
3.56396e-14
-3.78425e-12
6.28185e-13
5.59357e-12
1.02923e-11
-1.06945e-09
1.6283e-10
-1.82654e-08
1.27997e-09
-1.34937e-07
-7.76948e-10
-4.3463e-07
-1.75289e-07
-2.00301e-06
-7.48677e-07
-1.98359e-06
-3.15165e-06
1.90358e-12
2.24491e-12
1.81053e-11
8.73989e-12
5.53487e-12
2.34944e-12
1.32335e-12
1.59803e-13
-7.87322e-14
8.07545e-13
8.02202e-15
1.19647e-13
4.59131e-15
1.54626e-14
4.43788e-15
3.84569e-15
2.77737e-14
7.87624e-15
2.6927e-13
5.71186e-14
3.32477e-13
2.93568e-14
6.71142e-14
1.3009e-13
3.88712e-14
9.49453e-14
1.1236e-14
7.10239e-14
-1.19046e-14
8.01392e-14
7.87123e-13
8.57299e-13
5.41032e-13
1.49521e-11
-2.28894e-10
2.93173e-10
-3.93916e-09
3.64851e-09
-3.36229e-08
1.66081e-08
-1.55264e-07
-1.38286e-07
-2.90627e-06
-3.55449e-06
-7.09039e-06
-4.40997e-06
4.78907e-14
5.31149e-13
2.27472e-12
1.57457e-12
1.14158e-12
5.65017e-13
1.60044e-13
1.27501e-13
4.05899e-14
7.95393e-14
8.58868e-15
3.89527e-14
1.66569e-15
6.11779e-15
1.28151e-15
1.95199e-15
5.03332e-15
6.82392e-15
3.22948e-14
4.64746e-14
5.54961e-14
7.88518e-14
5.23882e-14
1.9541e-13
1.90876e-14
1.43485e-13
3.39036e-15
8.6319e-14
3.17963e-14
1.19808e-13
1.51689e-12
1.25777e-12
6.71749e-12
9.95605e-12
5.28453e-11
2.134e-10
-3.00202e-10
3.50458e-09
-1.31577e-08
2.40563e-08
-4.00163e-07
-4.50262e-08
-3.79011e-06
-2.79069e-06
-5.54048e-06
-5.82606e-06
1.39728e-14
1.51013e-13
2.76986e-13
3.18704e-13
1.46191e-13
1.4552e-13
3.81538e-14
5.60104e-14
1.14536e-14
2.97635e-14
2.65656e-15
8.30532e-15
6.65586e-16
1.95816e-15
5.84314e-16
1.1277e-15
4.84191e-15
6.59116e-15
3.76804e-14
8.54787e-14
5.06798e-14
1.47091e-13
5.15522e-14
2.34199e-13
2.00944e-14
1.79462e-13
4.64032e-15
9.15593e-14
-4.0126e-15
1.34309e-13
5.87728e-13
1.02541e-12
4.58212e-12
5.85887e-12
6.46055e-11
1.45838e-10
4.72754e-10
3.02607e-09
9.46662e-09
1.49173e-08
-1.6909e-07
-2.55676e-08
-6.19325e-07
-4.44695e-07
-6.99883e-07
-2.23002e-06
6.4588e-15
4.59077e-14
4.39212e-14
7.2244e-14
2.18283e-14
3.94134e-14
8.1219e-15
2.21913e-14
2.61676e-15
7.90258e-15
5.90213e-16
1.73262e-15
3.19011e-16
7.89149e-16
3.28075e-16
7.85151e-16
4.40129e-15
5.13561e-15
4.76582e-14
9.80953e-14
6.69911e-14
2.17123e-13
5.50777e-14
2.65641e-13
2.21362e-14
2.02829e-13
5.50484e-15
6.84851e-14
-4.46551e-15
1.06771e-13
1.93674e-13
2.93052e-13
2.86334e-12
2.6894e-12
5.40078e-11
9.13942e-11
4.39453e-10
2.58246e-09
-5.89933e-08
3.63952e-08
-1.19938e-07
9.16242e-09
-2.20808e-07
-2.41506e-07
-4.4245e-07
-4.64953e-07
1.75294e-15
1.55059e-14
7.43594e-15
2.14393e-14
4.0275e-15
1.26468e-14
1.66258e-15
5.65713e-15
4.31128e-16
1.50629e-15
1.71007e-16
3.54123e-16
1.6405e-16
3.89342e-16
2.48966e-16
6.34225e-16
3.02843e-15
3.08823e-15
4.49179e-14
9.1579e-14
5.47117e-14
2.21421e-13
5.67578e-14
2.82016e-13
2.25387e-14
2.05885e-13
4.2105e-15
3.60272e-14
1.8602e-15
5.35327e-14
2.50097e-14
4.0413e-14
2.0343e-12
4.0925e-13
7.43e-11
1.44034e-11
1.72955e-09
5.67382e-10
-1.35519e-08
1.1617e-08
-1.22241e-08
1.81439e-08
-2.21087e-09
-1.18116e-07
-2.13764e-07
-1.05663e-07
4.11166e-16
3.80588e-15
1.41962e-15
5.41899e-15
7.21601e-16
2.75041e-15
2.5824e-16
9.58961e-16
7.13611e-17
2.62658e-16
4.69265e-17
7.27851e-17
8.76568e-17
1.96285e-16
2.18582e-16
5.41428e-16
1.54243e-15
1.66331e-15
3.11367e-14
5.41416e-14
5.81607e-14
1.5614e-13
5.28894e-14
2.68211e-13
1.82846e-14
1.61673e-13
2.74104e-15
1.73482e-14
2.23143e-15
1.70188e-14
2.22131e-15
1.01319e-14
7.86218e-14
1.10269e-13
3.92207e-12
3.17174e-12
2.24486e-10
1.35937e-10
-6.05223e-09
5.75842e-09
-5.48707e-09
2.66331e-08
1.98183e-08
-3.61574e-08
-1.90733e-07
-9.74363e-08
7.74428e-17
6.91545e-16
2.49815e-16
9.62853e-16
1.08894e-16
4.37784e-16
3.95235e-17
1.57309e-16
1.1927e-17
4.42782e-17
8.73351e-18
1.50636e-17
4.82098e-17
9.16613e-17
1.71661e-16
4.49176e-16
5.95024e-16
9.15966e-16
1.32965e-14
1.71983e-14
3.37656e-14
6.28542e-14
4.04542e-14
1.5778e-13
1.16135e-14
8.6372e-14
1.24911e-15
8.53388e-15
8.55398e-16
4.01078e-15
1.25402e-15
3.22995e-15
3.71443e-14
1.7485e-14
1.23186e-12
5.07277e-13
9.0463e-11
5.84147e-11
-4.11646e-09
4.51075e-09
-1.83591e-09
1.91343e-08
-6.39175e-08
-7.37552e-09
-1.7352e-07
-6.19596e-07
1.3133e-17
1.20579e-16
3.90833e-17
1.51684e-16
1.60443e-17
6.88413e-17
5.98001e-18
2.52284e-17
2.00033e-18
7.23315e-18
1.64027e-18
3.05549e-18
2.24376e-17
3.83707e-17
1.15041e-16
3.13526e-16
2.31943e-16
4.86004e-16
3.41287e-15
3.43859e-15
1.16109e-14
1.46533e-14
1.92898e-14
4.96273e-14
5.68302e-15
2.89688e-14
4.05199e-16
3.71828e-15
3.03807e-16
8.96418e-16
3.14625e-16
1.0059e-15
1.59675e-14
4.68499e-15
5.86196e-13
1.27752e-13
4.94661e-11
9.5072e-12
8.97054e-10
1.07984e-09
1.43642e-09
3.68186e-09
-1.35954e-08
8.22606e-09
-3.05531e-07
-1.05154e-06
2.15158e-18
2.04945e-17
5.84345e-18
2.35399e-17
2.32354e-18
1.05744e-17
8.93604e-19
3.93416e-18
3.39415e-19
1.14637e-18
3.11659e-19
6.1276e-19
8.65085e-18
1.29543e-17
6.16982e-17
1.52892e-16
1.01015e-16
2.26557e-16
6.74013e-16
6.61508e-16
2.67894e-15
2.65956e-15
5.62019e-15
9.94683e-15
2.09971e-15
6.80837e-15
1.43897e-16
1.28136e-15
9.80156e-17
2.1785e-16
1.14934e-16
2.7002e-16
2.26679e-15
1.8693e-15
1.03361e-13
2.43487e-14
7.96592e-12
1.6124e-12
3.96237e-10
1.62917e-10
1.57924e-09
2.03976e-09
-1.89626e-08
2.57222e-08
-3.051e-07
-2.31479e-06
3.46232e-19
3.37389e-18
8.50567e-19
3.54998e-18
3.31555e-19
1.57842e-18
1.32071e-19
5.96414e-19
5.85816e-20
1.7657e-19
5.94939e-20
1.19932e-19
2.61831e-18
3.29614e-18
2.48198e-17
4.53621e-17
4.22119e-17
8.40835e-17
1.33559e-16
1.47244e-16
5.29953e-16
4.79883e-16
1.2358e-15
1.76818e-15
6.22219e-16
1.38448e-15
5.45786e-17
3.59822e-16
2.99366e-17
5.64138e-17
3.72175e-17
6.33966e-17
4.84921e-16
7.21143e-16
1.96908e-14
4.73114e-15
1.32431e-12
3.04085e-13
1.16498e-10
4.76238e-11
9.24266e-10
1.16086e-09
-6.33281e-08
5.95172e-08
2.62164e-08
-1.80276e-06
5.48087e-20
5.37659e-19
1.21279e-19
5.19937e-19
4.67093e-20
2.29024e-19
1.93e-20
8.79371e-20
1.02334e-20
2.64432e-20
1.11938e-20
2.23679e-20
6.16774e-19
6.52404e-19
6.99455e-18
8.76524e-18
1.41261e-17
2.2873e-17
2.8824e-17
3.47881e-17
1.02298e-16
8.95093e-17
2.48973e-16
3.12863e-16
1.59979e-16
2.67947e-16
1.95909e-17
8.82623e-17
8.94247e-18
1.4731e-17
9.90359e-18
1.35818e-17
1.7711e-16
1.95231e-16
4.09575e-15
7.48771e-16
2.52039e-13
5.55742e-14
3.42399e-11
1.36169e-11
1.68084e-10
7.36883e-10
-1.4246e-07
1.1875e-07
4.3154e-07
-7.91703e-07
8.51416e-21
8.30279e-20
1.67197e-20
7.40958e-20
6.49336e-21
3.22893e-20
2.78416e-21
1.26076e-20
1.67387e-21
3.85278e-21
2.13089e-21
3.89574e-21
1.20583e-19
1.1228e-19
1.4505e-18
1.41153e-18
3.63046e-18
4.59616e-18
6.63191e-18
7.73871e-18
1.96809e-17
1.66923e-17
4.81105e-17
5.37005e-17
3.72988e-17
4.9199e-17
6.30616e-18
1.95638e-17
2.34516e-18
3.71581e-18
2.4941e-18
2.72252e-18
5.43999e-17
3.61054e-17
6.75755e-16
1.13061e-16
4.96813e-14
6.51778e-15
1.17007e-11
2.01065e-12
6.55852e-10
9.03899e-11
-1.95407e-08
6.05514e-08
4.3825e-07
-6.16163e-07
1.29309e-21
1.24264e-20
2.21716e-21
1.02797e-20
8.8735e-22
4.40937e-21
3.95191e-22
1.75306e-21
2.67057e-22
5.45286e-22
3.79017e-22
6.3488e-22
2.12436e-20
1.81999e-20
2.57972e-19
2.21584e-19
7.60973e-19
7.70082e-19
1.4735e-18
1.51457e-18
3.72772e-18
2.9903e-18
8.85245e-18
8.75133e-18
7.96967e-18
8.45694e-18
1.79952e-18
3.9378e-18
5.5952e-19
8.75416e-19
5.97389e-19
5.11235e-19
1.26774e-17
5.13716e-18
8.54717e-17
3.79155e-17
5.54989e-15
1.14086e-15
1.59946e-12
4.21207e-13
7.05191e-11
2.10446e-11
4.18837e-08
8.01538e-09
3.87762e-08
1.87743e-07
1.9123e-22
1.79502e-21
2.80896e-22
1.38468e-21
1.18115e-22
5.77025e-22
5.48202e-23
2.33867e-22
4.03138e-23
7.47528e-23
6.44774e-23
9.76235e-23
3.51695e-21
2.8225e-21
4.28845e-20
3.40446e-20
1.38624e-19
1.20404e-19
2.92238e-19
2.58909e-19
6.77552e-19
4.98517e-19
1.54112e-18
1.34721e-18
1.55349e-18
1.35523e-18
4.51518e-19
7.18505e-19
1.26499e-19
1.87056e-19
1.30447e-19
8.96544e-20
2.32431e-18
6.6579e-19
2.0725e-17
6.26351e-18
1.04081e-15
1.17757e-16
3.71459e-13
5.11557e-14
1.88308e-11
2.51638e-12
7.2074e-09
8.24339e-10
5.14484e-09
3.89315e-08
2.72393e-23
2.46013e-22
3.50591e-23
1.79179e-22
1.49841e-23
7.00543e-23
7.31835e-24
2.91529e-23
5.49365e-24
9.79059e-24
1.07117e-23
1.42221e-23
5.51867e-22
4.16751e-22
6.7613e-21
4.99683e-21
2.30972e-20
1.80457e-20
5.14762e-20
3.99807e-20
1.15275e-19
7.6648e-20
2.53144e-19
1.95496e-19
2.7417e-19
2.02467e-19
9.89335e-20
1.1875e-19
2.67834e-20
3.55884e-20
2.57224e-20
1.45879e-20
3.54458e-19
8.07026e-20
3.3274e-18
6.43373e-19
1.12223e-16
7.19469e-18
4.59017e-14
5.42081e-15
2.2899e-12
2.62333e-13
7.63497e-10
6.27696e-11
3.75902e-10
5.24629e-09
3.6509e-24
3.08093e-23
4.23484e-24
2.17193e-23
1.72646e-24
2.0262e-23
9.17621e-25
4.70411e-24
7.09271e-25
1.24438e-24
1.66314e-24
1.93672e-24
8.20973e-23
5.85625e-23
1.00883e-21
6.96587e-22
3.58764e-21
2.57045e-21
8.24168e-21
5.76381e-21
1.81632e-20
1.09667e-20
3.90107e-20
2.67133e-20
4.39792e-20
2.82554e-20
1.88476e-20
1.77973e-20
5.1959e-21
5.97456e-21
4.55118e-21
2.17448e-21
4.68911e-20
8.99956e-21
4.11867e-19
6.54751e-20
6.98959e-18
4.85488e-19
5.02254e-15
4.05837e-16
2.43023e-13
2.31038e-14
5.90882e-11
3.88212e-12
1.88039e-11
4.01003e-10
4.39058e-25
1.08882e-23
8.07002e-25
3.38535e-24
2.19508e-25
5.23072e-24
1.11943e-25
2.75798e-24
7.99189e-26
6.22807e-25
2.39937e-25
2.30531e-25
1.1599e-23
7.8668e-24
1.42405e-22
9.25895e-23
5.21882e-22
3.4692e-22
1.2214e-21
7.85562e-22
2.65469e-21
1.47586e-21
5.63959e-21
3.44389e-21
6.39417e-21
3.6874e-21
3.13291e-21
2.42751e-21
8.97968e-22
8.75295e-22
7.13906e-22
2.85078e-22
5.45705e-21
9.13533e-22
4.6951e-20
6.21942e-21
4.55591e-19
4.16836e-20
3.89969e-16
1.60881e-17
2.17108e-14
1.65501e-15
3.69496e-12
2.04794e-13
7.93047e-13
2.17081e-11
4.77754e-26
2.13324e-24
1.11819e-25
2.08853e-24
-1.50958e-25
-1.86957e-24
-4.69459e-26
-4.39044e-25
9.38841e-27
4.93185e-26
3.33536e-26
3.21207e-26
1.56353e-24
1.01657e-24
1.90551e-23
1.17866e-23
7.13151e-23
4.45389e-23
1.68899e-22
1.01499e-22
3.61576e-22
1.87903e-22
7.53598e-22
4.2009e-22
8.57106e-22
4.49897e-22
4.55703e-22
2.99879e-22
1.30961e-22
1.05644e-22
9.36711e-23
3.2678e-23
5.60963e-22
8.2145e-23
4.72526e-21
5.37543e-22
3.8935e-20
3.38819e-21
1.52211e-17
8.81347e-19
1.60347e-15
5.52298e-17
1.96449e-13
9.61633e-15
2.8353e-14
9.65847e-13
-3.6551e-26
-1.3576e-24
-1.21057e-26
-2.29085e-25
-1.19129e-25
-1.49061e-24
-5.19769e-26
-4.90373e-25
-8.08604e-27
-6.0533e-26
1.15777e-26
9.85709e-27
2.0195e-25
1.26443e-25
2.42298e-24
1.4418e-24
9.18755e-24
5.46523e-24
2.18837e-23
1.24694e-23
4.60612e-23
2.27071e-23
9.31371e-23
4.85431e-23
1.05834e-22
5.08943e-23
5.64688e-23
3.17386e-23
1.50893e-23
1.30151e-23
9.22015e-24
2.32134e-23
5.02377e-23
1.50146e-23
4.23721e-22
4.31912e-23
3.18436e-21
2.52735e-22
8.25181e-19
5.53293e-20
5.30782e-17
1.66228e-18
9.20675e-15
4.31004e-16
8.0143e-16
3.70567e-14
-2.87165e-26
-1.07562e-24
-1.42718e-26
-2.74538e-25
-5.47817e-26
-6.95527e-25
-2.60803e-26
-2.49517e-25
-5.35003e-27
-4.05678e-26
2.99694e-27
1.51012e-27
2.47537e-26
1.48995e-26
2.93538e-25
1.69967e-25
1.11989e-24
6.43416e-25
2.66658e-24
1.46251e-24
5.50137e-24
2.60856e-24
1.05132e-23
5.27711e-24
1.18561e-23
5.12666e-24
6.97803e-24
3.41086e-24
4.28817e-24
7.07952e-24
-3.68899e-24
-5.23501e-24
5.85877e-24
5.46688e-24
3.32025e-23
8.42182e-24
2.4002e-22
1.75035e-23
5.20756e-20
3.15506e-21
1.54148e-18
7.97487e-20
4.1458e-16
1.59561e-17
1.83262e-17
1.21092e-15
-1.43169e-26
-5.40141e-25
-6.65841e-27
-1.30744e-25
-2.09928e-26
-2.72084e-25
-1.05565e-26
-1.03115e-25
-2.40067e-27
-1.85752e-26
-1.13443e-28
-7.18955e-28
2.95299e-27
1.62245e-27
3.3979e-26
1.93742e-26
1.2955e-25
7.29069e-26
3.06425e-25
1.64262e-25
6.14254e-25
2.82747e-25
1.07029e-24
5.20708e-25
1.38214e-24
5.87685e-25
1.15235e-24
2.21205e-24
-2.27609e-24
-3.77314e-24
-5.24949e-24
-7.46811e-24
-2.92029e-24
-3.53443e-24
3.12649e-24
2.37504e-24
1.61524e-23
2.67483e-24
2.983e-21
1.62315e-22
7.3326e-20
3.48719e-21
1.5412e-17
5.05809e-19
4.8948e-19
3.38522e-17
-6.05266e-27
-2.29834e-25
-2.49007e-27
-5.01725e-26
-7.21975e-27
-9.62886e-26
-3.786e-27
-3.80869e-26
-9.10366e-28
-7.25365e-27
-8.76963e-29
-5.72067e-28
3.77214e-28
1.61938e-28
3.76996e-27
2.14314e-27
1.42498e-26
7.96721e-27
3.31055e-26
1.75887e-26
6.25007e-26
2.79776e-26
1.30272e-25
5.76047e-26
1.63888e-25
3.70643e-25
-4.30417e-25
-8.43405e-25
-1.98759e-24
-3.36025e-24
-3.11816e-24
-4.51969e-24
-2.45802e-24
-3.02783e-24
-5.67314e-25
-5.86672e-25
1.30814e-24
7.99381e-25
1.54182e-22
7.70352e-24
3.24816e-21
1.36442e-22
4.89817e-19
1.37807e-20
1.07134e-20
8.55701e-19
-2.31743e-27
-8.86768e-26
-8.32512e-28
-1.73314e-26
-2.28317e-27
-3.1662e-26
-1.23791e-27
-1.29693e-26
-3.07935e-28
-2.55578e-27
-3.86154e-29
-2.62372e-28
5.69983e-29
2.83955e-29
4.019e-28
2.30121e-28
1.48537e-27
8.36078e-28
3.27687e-27
1.74395e-27
7.03824e-27
3.04107e-27
1.4253e-26
3.85034e-26
-4.23673e-26
-9.93465e-26
-3.87203e-25
-7.86294e-25
-1.00698e-24
-1.76348e-24
-1.39538e-24
-2.09405e-24
-1.1701e-24
-1.49127e-24
-5.54364e-25
-5.92493e-25
-1.75034e-26
-1.54089e-26
7.19979e-24
4.8623e-25
1.29032e-22
4.80759e-24
1.33512e-20
3.16969e-22
2.05147e-22
1.89197e-20
-8.20694e-28
-3.17847e-26
-2.57532e-28
-5.59107e-27
-6.69956e-28
-9.79264e-27
-3.72784e-28
-4.12658e-27
-9.46252e-29
-8.30272e-28
-1.35601e-29
-9.74333e-29
9.0761e-30
5.75927e-30
4.07667e-29
2.34978e-29
1.4373e-28
8.18726e-29
3.55359e-28
1.89774e-28
6.40215e-28
2.10181e-27
-2.44102e-27
-6.95678e-27
-4.33808e-26
-1.07286e-25
-1.89441e-25
-4.05665e-25
-4.06311e-25
-7.50253e-25
-5.20922e-25
-8.24163e-25
-4.33939e-25
-5.82875e-25
-2.38584e-25
-2.68556e-25
-7.26255e-26
-6.72334e-26
3.56103e-25
5.7501e-26
4.64131e-24
1.50586e-25
3.05347e-22
6.50878e-24
3.62895e-24
3.70318e-22
-2.70411e-28
-1.0697e-26
-7.46334e-29
-1.71085e-27
-1.82988e-28
-2.86935e-27
-1.03731e-28
-1.23624e-27
-2.65795e-29
-2.51381e-28
-4.10176e-30
-3.17947e-29
9.16307e-31
7.41206e-31
3.7693e-30
2.41015e-30
1.50022e-29
8.99379e-30
3.23394e-29
1.3211e-28
-1.16348e-28
-4.11884e-28
-2.98033e-27
-9.158e-27
-2.12544e-26
-5.66775e-26
-7.30904e-26
-1.68797e-25
-1.39738e-25
-2.78379e-25
-1.67678e-25
-2.8634e-25
-1.3491e-25
-1.95675e-25
-7.59239e-26
-9.23001e-26
-2.89426e-26
-2.8927e-26
1.977e-26
8.7884e-27
1.52004e-25
5.3854e-27
6.15484e-24
1.43489e-25
6.15416e-26
5.88853e-24
-8.2859e-29
-3.39959e-27
-2.03259e-29