/*--------------------------------*- C++ -*----------------------------------*\
| =========                 |                                                 |
| \\      /  F ield         | OpenFOAM: The Open Source CFD Toolbox           |
|  \\    /   O peration     | Version:  2206                                  |
|   \\  /    A nd           | Website:  www.openfoam.com                      |
|    \\/     M anipulation  |                                                 |
\*---------------------------------------------------------------------------*/
FoamFile
{
    version     2.0;
    format      ascii;
    arch        "LSB;label=32;scalar=64";
    class       volScalarField;
    location    "0.8";
    object      alpha.water;
}
// * * * * * * * * * * * * * * * * * * * * * * * * * * * * * * * * * * * * * //

dimensions      [0 0 0 0 0 0 0];

internalField   nonuniform List<scalar> 
2268
(
0.999999
0.999999
1
1
1
1
1
1
1
1
1
1
1
0.999996
0.999553
0.970881
0.947312
0.996946
0.996946
0.996203
0.993206
0.995942
0.999708
0.999999
1
1
1
1
1
1
1
1
1
1
1
0.999999
0.999986
0.995856
0.950041
0.943768
0.948208
0.963563
0.960291
0.960261
0.995156
0.999802
0.999999
1
1
1
1
1
1
1
1
1
1
1
1
0.999998
0.999724
0.979648
0.943332
0.943028
0.943028
0.94675
0.973515
0.99972
0.999792
0.999999
1
1
1
1
1
1
1
1
1
1
1
1
1
0.999996
0.999689
0.99388
0.988294
0.994316
1
1
1
0.999868
1
1
1
1
1
1
1
1
1
1
1
1
1
1
1
1
1
1
1
1
1
0.999997
0.999997
1
1
1
1
1
1
1
1
1
1
1
1
1
1
1
1
1
1
1
1
1
0.999997
0.999981
1
1
1
1
1
0.999997
0.999945
1
1
1
1
1
1
1
1
1
1
1
1
1
1
0.999992
0.999972
1
1
1
1
1
1
0.996854
1
1
1
1
1
1
1
1
1
1
1
0.999999
0.999999
0.999999
0.999992
0.999974
0.574644
0.476475
0.613602
0.668427
0.596998
0.595513
0.598073
0.824507
0.885291
0.89284
0.89284
0.89284
0.892839
0.892828
0.892751
0.892078
0.856701
0.810046
0.79125
0.594282
0.490712
0.626276
0.596338
0.497748
0.64036
0.661648
0.767705
0.756025
0.72069
0.650969
0.655813
0.892828
0.892751
0.721164
0.424711
0.345411
0.309376
0.30951
0.59458
0.608112
0.62232
0.391534
0.584535
0.726937
0.731356
0.749032
0.747486
0.647435
0.636136
0.637063
0.826539
0.871577
0.461391
0.264099
0.263811
0.264099
0.268485
0.594604
0.593447
0.376494
0.380069
0.722242
0.725892
0.727464
0.731158
0.732212
0.727205
0.72445
0.63655
0.803751
0.777281
0.266096
0.263811
0.263811
0.263811
0.293801
0.592019
0.564245
0.360327
0.376681
0.719305
0.722251
0.725893
0.727463
0.727123
0.727123
0.716611
0.766871
0.788627
0.781586
0.577248
0.266096
0.263811
0.487922
0.64087
0.586818
0.544321
0.360218
0.677177
0.714596
0.661864
0.578386
0.608383
0.513184
0.46044
0.50575
0.636237
0.775889
0.774455
0.76252
0.552156
0.268851
0.525899
0.705323
0.582502
0.385127
0.364087
0.680273
0.702396
0.158476
0.066132
0.0815829
0.0160596
0.0160698
0.0161428
0.0834342
0.281413
0.513983
0.683177
0.666026
0.614602
0.699637
0.720788
0.571952
0.400243
0.400748
0.666084
0.549208
0.0167139
0.016104
0.0160539
0.0160596
0.0160493
0.0160698
0.0164177
0.0195867
0.0390125
0.130271
0.650235
0.7213
0.722647
0.721019
0.889644
0.925103
0.922695
0.914468
0.900035
0.960039
1
1
1
1
1
1
1
1
0.999998
0.999996
0.999993
0.999992
0.999989
0.999989
0.99999
0.999989
0.999972
0.333085
0.2904
0.353734
0.415558
0.5118
0.660189
0.77843
0.861844
0.923956
0.965706
0.987509
0.996291
0.998984
0.999973
0.999922
0.999851
0.999806
0.999811
0.999844
0.999874
0.999912
0.999955
0.999967
0.00617156
0.00152219
0.00170168
0.0258719
0.0623723
0.0935146
0.134195
0.20268
0.301996
0.403295
0.483725
0.55783
0.650236
0.713232
0.721109
0.69423
0.676516
0.684794
0.706308
0.751002
0.841599
0.950175
0.999831
0.00183319
0.00033875
0.000187393
0.000142966
0.00013546
0.000195702
0.000424339
0.00176659
0.00434901
0.0211509
0.0705128
0.131054
0.177264
0.214853
0.247767
0.207815
0.154097
0.146215
0.146215
0.145366
0.172864
0.440516
0.814127
0.000367282
0.000116136
4.14039e-05
2.64633e-05
2.22595e-05
2.91732e-05
7.49487e-05
0.000224943
0.000731579
0.00383351
0.0106264
0.0154234
0.0590735
0.300741
0.421898
0.303798
0.182472
0.15084
0.146215
0.146215
0.161736
0.186846
0.366605
9.62712e-05
3.60755e-05
1.04118e-05
5.2736e-06
3.61926e-06
4.03035e-06
7.09681e-06
2.32188e-05
7.7712e-05
0.000240235
0.000579133
0.00266818
0.137317
0.405975
0.427956
0.427956
0.427956
0.420497
0.204072
0.284079
0.624359
0.625415
0.62518
3.12261e-05
1.04122e-05
3.10152e-06
1.13537e-06
5.61603e-07
5.18973e-07
7.71557e-07
1.77867e-06
5.20222e-06
2.19385e-05
0.000169113
0.000254233
0.000565976
0.0515506
0.314366
0.415422
0.357297
0.0812377
0.0248868
0.304955
0.550512
0.619603
0.625417
2.09863e-05
8.69345e-06
1.13565e-06
3.34559e-07
1.18287e-07
6.65167e-08
8.40979e-08
1.85592e-07
4.99337e-07
1.54841e-06
4.03726e-06
0.000137454
0.000715099
1.12448e-05
7.34637e-06
1.17365e-05
3.89594e-05
0.000174095
0.000695866
0.00179005
0.00645866
0.132794
0.557486
1.41007e-05
2.53305e-05
1.90896e-06
1.18293e-07
4.7617e-08
1.61988e-08
9.8777e-09
1.96147e-08
5.58699e-08
1.61129e-07
5.99448e-07
3.91361e-06
2.6454e-05
1.12604e-05
6.19052e-06
6.2008e-06
1.17365e-05
3.89556e-05
0.000172328
0.000808229
0.00272661
0.00819388
0.101123
5.62995e-06
1.96603e-05
3.64712e-06
4.66227e-08
1.61988e-08
8.27631e-09
2.02952e-09
2.26373e-09
8.92944e-09
3.80596e-08
1.55848e-07
1.95982e-07
1.2533e-07
3.88693e-07
5.63573e-06
5.6969e-06
1.20071e-05
6.59676e-05
0.000381566
0.0110078
0.0219404
0.020636
0.0128709
8.50892e-07
2.27717e-06
3.46104e-06
4.35835e-07
7.45251e-09
2.02952e-09
7.73826e-10
3.84201e-10
2.1608e-09
1.67283e-08
1.02818e-07
3.78655e-08
3.29299e-08
3.86494e-08
5.80099e-07
3.34472e-07
1.26765e-06
7.05103e-06
8.1876e-05
0.00485006
0.017249
0.018395
0.0123267
1.73974e-07
3.20576e-07
8.24891e-07
3.05524e-07
1.26472e-08
7.33578e-10
2.98366e-10
8.34126e-11
1.54285e-10
1.53515e-08
8.37908e-08
9.05601e-09
6.22819e-09
4.58624e-09
3.72554e-09
2.65935e-08
1.27734e-07
1.28471e-06
1.26145e-05
8.18748e-05
0.000397496
0.00523781
0.0234114
3.43242e-08
7.43334e-08
3.98863e-08
6.05498e-08
1.03957e-08
6.09001e-10
9.35477e-11
3.41831e-11
6.02421e-11
4.22352e-09
9.92399e-09
2.97411e-09
2.27758e-09
1.43779e-09
1.94619e-09
5.77357e-09
2.68494e-08
3.51021e-07
5.06362e-06
5.25084e-05
0.000404137
0.0231887
0.0618149
6.81347e-09
1.54577e-08
8.12694e-09
2.69347e-09
1.92499e-09
3.67476e-10
5.14232e-11
1.95635e-11
5.96354e-11
2.98296e-10
6.18524e-10
2.23937e-09
1.68731e-09
1.11631e-09
1.40884e-09
1.17113e-08
1.80069e-08
1.7163e-07
2.78882e-06
3.60106e-05
0.000885425
0.0366451
0.064104
1.55629e-09
3.00612e-09
1.65682e-09
5.71776e-10
2.52987e-10
1.04262e-10
2.13645e-11
1.17559e-11
5.99443e-11
6.83474e-10
1.20708e-09
2.40192e-09
1.87341e-09
1.07888e-09
1.49111e-09
1.23418e-08
1.39072e-08
8.57667e-08
1.42443e-06
1.84763e-05
0.000760382
0.00649852
0.0146706
3.84845e-10
6.66307e-10
3.75431e-10
1.70298e-10
7.7903e-11
2.19682e-11
8.7221e-12
7.78357e-12
5.097e-11
9.09567e-10
1.90091e-09
2.67814e-09
2.07433e-09
8.53415e-10
1.26575e-09
6.09819e-09
4.90326e-09
4.14089e-08
9.28816e-07
0.000321149
0.00194641
0.00162003
0.00179078
1.21122e-10
1.47745e-10
1.03528e-10
5.49231e-11
1.87917e-11
4.48977e-12
4.47412e-12
5.97151e-12
3.40559e-11
8.6757e-10
2.15264e-09
2.68128e-09
2.05009e-09
4.92877e-10
7.61262e-10
1.09175e-09
1.50685e-09
2.68997e-08
1.36976e-06
0.00017496
0.00121872
0.00151779
0.00162003
3.92645e-11
4.65753e-11
2.99682e-11
1.25257e-11
3.40517e-12
9.59233e-13
2.3432e-12
5.03924e-12
1.94025e-11
6.37863e-10
1.77721e-09
2.65911e-09
1.77052e-09
2.31928e-10
2.94409e-10
1.62645e-10
9.90341e-10
2.50712e-08
5.31582e-07
4.48447e-05
0.00104934
0.00135772
0.00150038
8.92677e-12
1.15019e-11
5.98638e-12
2.06966e-12
5.77245e-13
2.12185e-13
1.15903e-12
4.29136e-12
1.09031e-11
2.83989e-10
9.59021e-10
1.98895e-09
1.1438e-09
1.08145e-10
7.59836e-11
4.47702e-11
2.91456e-10
8.38435e-09
1.33653e-08
3.63526e-05
0.000888241
0.000473552
0.00194213
1.57254e-12
1.9539e-12
9.41494e-13
3.33192e-13
9.49997e-14
4.62167e-14
5.25538e-13
3.30276e-12
6.04321e-12
7.12884e-11
2.96054e-10
8.76333e-10
4.8546e-10
4.88724e-11
1.5652e-11
1.4666e-11
3.93581e-11
1.039e-10
2.00034e-09
1.7029e-05
0.000297841
0.000232672
0.00434418
2.68738e-13
3.05184e-13
1.46028e-13
5.25042e-14
1.51853e-14
9.85306e-15
2.02633e-13
1.97119e-12
3.06689e-12
1.3103e-11
5.74474e-11
2.1662e-10
1.33262e-10
1.87398e-11
3.30617e-12
4.22944e-12
1.87022e-11
2.34216e-11
6.34903e-11
2.09563e-06
2.635e-06
3.13506e-05
0.0111559
4.48371e-14
4.69134e-14
2.21089e-14
8.063e-15
2.36199e-15
2.0502e-15
6.04422e-14
7.77106e-13
1.30633e-12
2.66742e-12
9.54599e-12
3.77442e-11
2.76349e-11
5.83131e-12
7.84655e-13
1.03463e-12
8.96529e-12
3.05906e-12
5.36765e-11
1.40866e-09
4.04879e-07
5.3594e-05
0.0156406
7.25877e-15
7.01376e-15
3.25659e-15
1.20642e-15
3.57384e-16
4.06568e-16
1.34589e-14
1.88658e-13
4.24708e-13
6.35238e-13
1.6808e-12
6.22759e-12
5.21653e-12
1.53216e-12
2.00524e-13
2.25182e-13
2.98537e-12
1.99156e-12
9.60127e-12
2.31609e-10
4.63511e-07
0.000316846
0.0172261
1.13963e-15
1.01996e-15
4.66104e-16
1.75845e-16
5.2845e-17
7.41788e-17
2.39085e-15
3.18203e-14
9.94132e-14
1.50886e-13
3.15295e-13
1.04581e-12
9.52829e-13
3.58083e-13
5.23195e-14
4.54668e-14
6.45491e-13
6.26856e-13
1.89839e-12
-2.18521e-10
1.29519e-08
0.000315652
0.0151831
1.73575e-16
1.44397e-16
6.46531e-17
2.49159e-17
7.60111e-18
1.2449e-17
3.80881e-16
4.73811e-15
1.76051e-14
3.19327e-14
5.89787e-14
1.72212e-13
1.66309e-13
7.60998e-14
1.33335e-14
8.62999e-15
9.26978e-14
4.22556e-13
-4.96047e-13
-1.25139e-11
2.31491e-09
5.20894e-05
0.00249499
2.55929e-17
1.98551e-17
8.5698e-18
3.38632e-18
1.06017e-18
1.94759e-18
5.81461e-17
7.03602e-16
2.70728e-15
5.78605e-15
1.03583e-14
2.71303e-14
2.73656e-14
1.47335e-14
3.16851e-15
1.55609e-15
1.05739e-14
1.14362e-13
7.79115e-14
-4.14257e-13
3.73055e-10
1.49184e-08
9.55658e-06
3.56973e-18
2.61605e-18
1.03676e-18
4.22059e-19
1.41535e-19
2.86754e-19
8.55511e-18
1.02846e-16
3.98067e-16
9.15911e-16
1.66119e-15
4.05195e-15
4.22693e-15
2.59085e-15
6.79055e-16
2.65556e-16
1.1553e-15
1.30628e-14
1.75934e-14
-3.76438e-14
5.3312e-11
2.15763e-09
1.42797e-06
4.42983e-19
3.15115e-19
8.34812e-20
4.10558e-20
1.69046e-20
3.97131e-20
1.20419e-18
1.44111e-17
5.6611e-17
1.32808e-16
2.44564e-16
5.71331e-16
6.12072e-16
4.13493e-16
1.28506e-16
4.23588e-17
1.24555e-16
1.11595e-15
2.3036e-15
1.02171e-14
6.52716e-12
2.5359e-10
1.35853e-07
3.3799e-20
2.93412e-20
1.02633e-35
8.44605e-22
9.21016e-22
4.79487e-21
1.6217e-19
1.92695e-18
7.69136e-18
1.82058e-17
3.36471e-17
7.60155e-17
8.31754e-17
5.99197e-17
2.1168e-17
6.08551e-18
1.27948e-17
9.34146e-17
3.47199e-16
2.42227e-15
6.83905e-13
2.48758e-11
7.29404e-09
0
8.42526e-22
-2.0159e-20
-4.69688e-21
3.98067e-38
3.75319e-22
2.10465e-20
2.47022e-19
9.95949e-19
2.37847e-18
4.37942e-18
9.57119e-18
1.05971e-17
7.86225e-18
2.91932e-18
6.6569e-19
1.14624e-18
7.51553e-18
3.48934e-17
2.4838e-16
6.2322e-14
2.07203e-12
3.24115e-10
-1.39618e-20
-2.47495e-21
-1.64876e-20
-5.38575e-21
-6.66344e-22
3.66359e-24
2.66109e-21
3.04985e-20
1.2345e-19
2.96415e-19
5.4196e-19
1.14382e-18
1.25496e-18
9.03597e-19
2.52826e-19
2.15968e-20
5.70963e-20
5.61352e-19
3.09502e-18
3.47111e-17
7.07304e-15
1.98438e-13
1.60493e-11
-1.13572e-20
-3.03722e-21
-7.88912e-21
-2.81238e-21
-4.58641e-22
1.25976e-39
3.20883e-22
3.63693e-21
1.47127e-20
3.53296e-20
6.38963e-20
1.29167e-19
1.31873e-19
6.37524e-20
4.26964e-21
-7.26275e-20
0
2.56068e-20
2.26436e-19
2.8769e-18
5.09352e-16
1.30213e-14
6.65651e-13
-5.85438e-21
-1.48005e-21
-3.16287e-21
-1.19205e-21
-2.15562e-22
-8.41201e-24
3.4687e-23
4.20301e-22
1.69124e-21
4.04054e-21
7.13493e-21
1.32129e-20
9.44208e-21
2.01309e-21
-5.34223e-20
-1.10891e-19
-5.56965e-20
-2.54763e-36
1.23915e-20
2.14152e-19
3.29811e-17
7.4189e-16
1.95892e-14
-2.55668e-21
-5.80587e-22
-1.14611e-21
-4.51206e-22
-8.63352e-23
-6.87168e-24
3.03176e-24
4.73066e-23
1.87914e-22
4.42792e-22
7.2209e-22
9.54879e-22
2.58473e-22
-1.20793e-20
-5.03274e-20
-7.14888e-20
-5.12331e-20
-1.08034e-20
1.53263e-36
1.35648e-20
1.76223e-18
3.78158e-17
7.55293e-16
-1.01222e-21
-2.04764e-22
-3.85392e-22
-1.57271e-22
-3.11651e-23
-3.23188e-24
1.06886e-25
5.20919e-24
2.01167e-23
4.48609e-23
5.38983e-23
2.85655e-23
-1.43014e-21
-1.18002e-20
-2.78212e-20
-3.50988e-20
-2.6922e-20
-1.17305e-20
-3.42815e-22
-1.29409e-37
7.42628e-20
1.74064e-18
2.61605e-17
-3.7218e-22
-6.73446e-23
-1.21687e-22
-5.11465e-23
-1.03576e-23
-1.22891e-24
-1.23414e-43
5.51825e-25
2.00832e-24
3.50588e-24
1.67691e-24
-1.0021e-22
-1.60582e-21
-6.35467e-21
-1.24098e-20
-1.45568e-20
-1.1152e-20
-5.67144e-21
-1.60729e-21
2.02202e-38
2.91089e-21
7.31864e-20
8.01368e-19
-1.28422e-22
-2.09742e-23
-3.63234e-23
-1.56321e-23
-3.20245e-24
-4.09852e-25
0
4.93618e-26
1.527e-25
1.03021e-25
-5.91785e-24
-1.3626e-22
-8.78767e-22
-2.74797e-21
-4.80294e-21
-5.29705e-21
-3.93922e-21
-2.06157e-21
-7.35709e-22
0
1.0449e-22
2.84083e-21
2.2398e-20
-4.18082e-23
-6.23128e-24
-1.0301e-23
-4.5132e-24
-9.27113e-25
-1.23907e-25
-4.20811e-27
1.45744e-27
4.70461e-27
-2.05816e-25
-8.0491e-24
-7.66819e-23
-3.79446e-22
-1.03492e-21
-1.661e-21
-1.72496e-21
-1.22519e-21
-6.268e-22
-2.32158e-22
-5.88152e-24
3.1594e-40
1.00332e-22
6.01369e-22
-1.28857e-23
-1.77281e-24
-2.78748e-24
-1.23633e-24
-2.52569e-25
-3.45608e-26
-3.21611e-27
0
-1.48156e-26
-3.79375e-25
-4.58497e-24
-3.34439e-23
-1.42264e-22
-3.50603e-22
-5.21928e-22
-5.09423e-22
-3.41565e-22
-1.66075e-22
-5.95509e-23
-9.77657e-24
3.21357e-40
4.35237e-24
1.48584e-23
-3.77038e-24
-4.83914e-25
-7.22774e-25
-3.2269e-25
-6.50285e-26
-8.99737e-27
-1.48468e-27
-2.47809e-27
-2.06255e-26
-2.22537e-25
-2.0207e-24
-1.26185e-23
-4.80727e-23
-1.08794e-22
-1.5083e-22
-1.37911e-22
-8.64353e-23
-3.91823e-23
-1.31107e-23
-2.66819e-24
0
1.75255e-25
3.2871e-25
-1.05037e-24
-1.27092e-25
-1.80297e-25
-8.06048e-26
-1.59109e-26
-2.21228e-27
-5.85092e-28
-1.63733e-27
-1.14322e-26
-9.88205e-26
-7.69099e-25
-4.28829e-24
-1.49247e-23
-3.12929e-23
-4.04757e-23
-3.45615e-23
-2.00881e-23
-8.37216e-24
-2.5537e-24
-5.16364e-25
-3.34582e-26
2.95479e-27
6.28376e-27
-2.79332e-25
-3.19594e-26
-4.34478e-26
-1.93185e-26
-3.69237e-27
-5.1287e-28
-2.11346e-28
-7.55144e-28
-4.93113e-27
-3.79142e-26
-2.64988e-25
-1.34762e-24
-4.33274e-24
-8.45337e-24
-1.01859e-23
-8.06945e-24
-4.29415e-24
-1.61315e-24
-4.35389e-25
-7.86786e-26
-6.4014e-27
0
7.11752e-29
0.999918
0.999913
0.999894
0.954002
0.999911
0.999872
0.999885
0.860641
0.999839
0.999459
0.975225
0.504497
0.977952
0.954098
0.563818
0.061913
0.764717
0.663146
0.0567102
0.043838
0.613808
0.191214
0.0429933
0.0404902
0.605503
0.141559
0.0406454
0.0410803
0.59494
0.53558
0.112628
0.0912594
0.393334
0.531137
0.48994
0.277304
0.0561462
0.12985
0.134463
0.0569219
0.0122747
0.0126895
0.0150875
0.0188395
0.0282814
0.0170936
0.0174278
0.0638852
0.064104
0.0422933
0.0179645
0.0834382
0.06582
0.0665589
0.0511327
0.0836918
0.0528737
0.0813013
0.0813013
0.0670684
0.00205122
0.0334408
0.0585784
0.00138417
0.00212745
0.0127672
0.0130245
6.95196e-05
0.0159679
0.0334118
0.0163955
2.38848e-05
0.0266925
0.0334118
0.0239713
1.30864e-05
0.0311778
0.0334118
0.00296566
6.4733e-06
0.0311195
0.0279703
4.58157e-06
3.33539e-06
0.0308786
0.00833444
3.77478e-06
3.07607e-06
0.0278991
8.30101e-06
5.32546e-06
2.78154e-05
0.0145069
2.84685e-05
4.55599e-05
2.91946e-05
0.00101992
0.000306525
6.19715e-06
1.2935e-07
0.000101871
1.75364e-05
2.09661e-07
2.91914e-08
1.14441e-05
3.37355e-06
2.22484e-08
2.39674e-09
6.57253e-07
1.60791e-07
9.40233e-10
1.15644e-10
2.57785e-08
6.62843e-09
1.66454e-11
1.96959e-11
1.02833e-09
4.4837e-10
2.91245e-11
2.24531e-11
8.54542e-11
4.01757e-11
8.03088e-12
1.80647e-12
5.9405e-12
2.1822e-12
3.32056e-13
7.96427e-14
1.97176e-13
6.18529e-14
1.07175e-14
1.80291e-14
4.89234e-15
1.33749e-15
1.10444e-15
1.18782e-14
1.07327e-16
3.21662e-17
2.08292e-16
3.29742e-15
2.05551e-18
8.95741e-19
3.35768e-17
9.59562e-16
3.43876e-20
2.28375e-20
6.11882e-18
1.32799e-16
5.30785e-22
2.76208e-22
1.96453e-18
2.38739e-17
6.98417e-24
1.4215e-23
3.82965e-19
9.22721e-18
9.32661e-26
9.85473e-25
3.95995e-20
4.19846e-18
1.2417e-27
2.55027e-25
2.22168e-21
1.21316e-19
6.56584e-29
1.56825e-26
2.75181e-24
1.47559e-23
0.510646
0.40535
0.572275
0.654856
0.392325
0.024337
0.0166695
0.0160596
0.0160495
0.0160596
0.0162644
0.0451795
0.0238904
0.0253509
0.281693
0.719258
0.722658
0.722233
0.547333
0.319123
0.422045
0.595638
0.612344
0.327648
0.201647
0.159614
0.0448905
0.0160596
0.0162644
0.0479844
0.241307
0.102659
0.0441569
0.493729
0.722337
0.7213
0.552224
0.437033
0.11848
0.540392
0.560112
0.202146
0.283451
0.447823
0.452808
0.412012
0.156076
0.125968
0.230513
0.241307
0.148709
0.0834757
0.524587
0.744696
0.497888
0.451433
0.452379
0.0730131
0.310079
0.288666
0.0907533
0.231488
0.452808
0.4539
0.4539
0.4539
0.4523
0.367603
0.133483
0.126706
0.122365
0.621211
0.759487
0.658617
0.560399
0.811619
0.0476937
0.0954713
0.298206
0.0557873
0.0652569
0.385425
0.452808
0.4539
0.4523
0.413341
0.153485
0.139239
0.13206
0.418965
0.758573
0.758573
0.783514
0.811619
0.811619
0.0438476
0.101492
0.534033
0.0991463
0.000643527
0.00212068
0.266175
0.44783
0.440561
0.209359
0.153325
0.14804
0.144524
0.243981
0.590329
0.655287
0.455462
0.422068
0.811619
0.0479435
0.0894596
0.620662
0.315346
0.000264662
0.000229076
0.000328066
0.0277868
0.205754
0.240639
0.159485
0.153325
0.161597
0.272621
0.443184
0.249311
0.0459878
0.0487449
0.361443
0.374492
0.635354
0.654359
0.409748
0.000229076
0.000140789
9.96396e-06
4.79991e-05
0.000247044
0.0211395
0.213057
0.230706
0.234213
0.229145
0.0771574
0.000148765
0.00021693
0.000507006
0.00126979
0.283542
0.444075
0.654359
0.58789
0.0069164
9.96339e-06
2.85693e-07
-7.01572e-08
2.56049e-07
-1.30549e-05
0.000515935
0.0302755
0.0246299
8.88573e-05
0.000148765
0.000102617
8.26315e-05
0.000406343
0.0147674
0.0548283
0.0596334
0.475122
0.583614
0.0723747
4.01344e-07
4.00113e-07
4.01569e-07
4.18345e-07
5.58912e-07
1.19984e-06
3.44556e-06
1.0679e-05
3.1336e-05
8.49766e-05
8.21331e-05
8.26335e-05
0.00195776
0.0317197
0.0526682
0.0781783
0.19257
0.578152
0.124435
3.98236e-07
4.01584e-07
4.00706e-07
4.11009e-07
4.94342e-07
8.86119e-07
2.5441e-06
1.99465e-05
3.84825e-05
0.000120829
0.000102145
8.19893e-05
0.00148669
0.0308265
0.0766153
0.0243593
0.0343006
0.185247
0.0780825
6.77292e-07
4.01551e-07
3.21706e-06
1.39426e-06
8.63874e-07
2.33004e-06
9.29632e-06
0.000182684
0.00104591
0.00214982
0.000728086
0.000102149
0.00198573
0.0109864
0.0611837
0.000301855
0.00127595
0.00117961
0.00238081
3.19622e-06
2.98738e-06
1.33391e-05
4.64639e-06
2.24046e-06
4.43722e-06
1.39244e-05
0.000298276
0.0037162
0.00439558
0.00406003
0.000250193
0.0023042
0.0291938
0.0145575
0.000121288
0.000712661
0.000237921
-1.12508e-05
4.33924e-06
1.06246e-05
1.37495e-05
1.24761e-05
1.86603e-06
2.82713e-06
5.79792e-06
0.000214229
0.0037245
0.00439558
0.00439558
0.00266822
0.00145677
0.0781402
0.00133856
8.66619e-05
6.22307e-05
5.44103e-05
2.18295e-06
2.91474e-06
8.29217e-06
1.37495e-05
1.11509e-05
1.16809e-06
5.62875e-06
4.45033e-05
5.67906e-05
0.000780036
0.00439558
0.00435735
0.00419915
0.000579517
0.078135
0.00373865
8.70242e-05
2.60684e-05
1.48695e-05
3.03467e-06
2.73917e-06
3.20586e-06
1.34066e-05
8.4218e-06
8.10063e-07
3.49517e-06
6.16446e-05
0.000101952
7.82049e-05
0.00435735
0.00377177
0.00112295
0.000168657
0.07824
0.00144206
0.000282174
1.32232e-05
5.71836e-06
2.74556e-06
2.56816e-06
2.35995e-06
1.96938e-06
3.12424e-06
7.58043e-07
3.64995e-07
3.31043e-07
3.12254e-05
4.20798e-07
0.00365701
0.000571382
3.59764e-06
4.49593e-06
0.0779442
9.48857e-05
0.0015118
6.19385e-06
3.30208e-06
2.82666e-06
2.5493e-06
2.92584e-06
1.45852e-06
6.71001e-07
7.33999e-07
3.31043e-07
3.11522e-07
3.20448e-07
3.11726e-07
0.000422068
3.59764e-06
3.46646e-06
3.59764e-06
0.0774311
0.000154664
0.00152291
0.000559709
2.07873e-05
3.30208e-06
7.52882e-06
1.36105e-05
4.92656e-06
5.71347e-07
4.86494e-07
3.68517e-07
3.24975e-07
3.11518e-07
3.24975e-07
9.51752e-07
2.51553e-06
3.46646e-06
3.46646e-06
0.0771185
6.29214e-05
0.00090613
0.000863883
0.00080926
0.000669937
9.71811e-05
4.8133e-06
9.96496e-07
7.2062e-07
5.71347e-07
2.57194e-06
1.38804e-06
3.24918e-07
3.87836e-07
2.04612e-06
3.60354e-06
3.46646e-06
3.60354e-06
0.0767914
2.10844e-06
0.000207478
0.000741673
0.000774114
0.000607668
9.08099e-05
7.30131e-07
1.81624e-07
4.11728e-07
2.17889e-06
5.53607e-06
2.95199e-06
3.86394e-07
5.25168e-07
1.02544e-05
2.77839e-05
3.83669e-06
4.03214e-06
0.0761416
1.79914e-06
1.2075e-08
2.98419e-05
6.9035e-05
3.39149e-05
4.42113e-06
-1.01912e-09
4.60355e-08
1.83042e-07
5.79156e-06
5.62884e-06
1.9932e-06
5.23119e-07
0.000244222
0.000329304
4.46794e-05
4.03214e-06
4.57484e-06
0.0742563
1.51932e-06
1.20033e-09
2.69491e-10
1.53094e-10
1.3711e-10
1.35096e-10
1.37044e-10
2.79875e-10
3.97804e-06
5.86152e-06
5.3341e-06
8.94261e-07
8.05878e-07
0.000604426
0.000599958
4.03372e-05
4.04229e-06
4.22213e-06
0.0443003
2.27039e-06
8.73804e-09
9.72662e-10
2.22317e-10
1.38659e-10
1.32805e-10
1.33784e-10
7.92494e-07
5.87438e-06
5.86152e-06
9.52675e-07
8.79026e-07
8.75085e-06
0.000604709
0.000444304
8.08072e-06
4.04229e-06
0.000115306
0.00250506
1.43395e-08
1.66251e-09
2.89941e-10
1.36844e-10
1.29838e-10
1.34306e-10
1.33665e-10
4.40209e-06
5.88724e-06
5.87438e-06
4.76481e-07
6.36277e-07
2.40049e-05
0.000604709
1.60425e-05
4.5423e-06
4.53111e-06
0.000254887
1.38967e-06
3.6713e-09
4.8367e-10
1.28949e-10
1.17533e-10
1.23686e-10
1.29838e-10
9.43268e-07
5.8866e-06
5.88581e-06
2.06735e-06
6.14817e-08
2.29108e-06
2.77176e-05
0.000603415
3.00275e-05
4.5423e-06
4.7297e-06
0.000242836
9.42965e-07
3.36352e-10
4.01107e-11
3.16878e-11
1.00431e-10
1.17533e-10
1.31884e-10
2.25728e-06
5.66149e-06
5.69933e-06
4.32447e-07
1.20827e-08
1.25499e-05
1.70095e-05
0.000401988
2.96933e-05
5.71623e-06
4.48215e-06
3.17629e-07
2.6023e-07
2.02379e-11
1.0142e-11
1.82601e-11
9.73745e-11
1.48947e-10
3.54489e-10
4.42989e-07
3.03417e-06
6.14939e-07
5.21733e-09
6.0211e-09
1.20827e-08
0.000392023
3.46969e-05
1.85573e-05
9.98131e-06
2.06044e-06
2.37917e-07
2.37917e-07
7.83664e-12
7.05787e-12
7.396e-12
1.18128e-09
6.94136e-09
8.01264e-08
3.55304e-09
3.13285e-09
3.92408e-09
4.59124e-09
5.21728e-09
3.64122e-05
0.000425532
0.000374141
2.20665e-05
9.17964e-05
0.00014077
6.23561e-06
2.37917e-07
6.4062e-12
6.60854e-12
7.05787e-12
4.11016e-09
8.70765e-09
8.76637e-09
2.7843e-09
2.84711e-09
3.1271e-09
4.00565e-09
5.47668e-09
2.04747e-05
0.000425532
0.000417995
7.12557e-05
0.000981832
0.000538123
8.655e-06
2.89873e-07
4.23888e-13
1.01595e-11
1.78488e-11
2.32001e-11
1.51291e-09
4.25846e-10
9.31071e-10
1.71496e-09
2.18564e-09
7.84557e-09
8.38626e-09
1.65904e-08
0.000267985
0.00021559
0.000410293
0.0012563
0.00071946
6.52847e-06
4.74786e-07
1.23908e-13
1.47673e-11
4.16904e-11
2.07265e-11
2.23375e-12
2.51123e-12
1.94853e-12
-6.18351e-11
3.774e-09
4.94676e-08
3.18408e-08
2.03266e-08
1.18449e-05
1.41218e-05
0.000850752
0.00126804
0.000781983
5.8197e-06
1.122e-06
9.89768e-14
3.70638e-13
2.76093e-12
2.85987e-12
2.15091e-12
1.98056e-12
5.21493e-13
-2.79007e-10
3.83755e-08
8.75762e-06
2.85352e-06
6.04847e-08
1.38392e-05
1.67999e-05
0.00114701
0.0012688
0.000711327
4.21742e-06
1.88623e-06
3.41081e-14
6.85616e-14
1.23413e-13
1.36398e-13
1.16552e-13
3.69477e-13
-1.18704e-11
7.77601e-10
1.29244e-05
5.26619e-05
3.41363e-05
6.85759e-07
2.66247e-06
0.000921178
0.0012688
0.00126804
0.000393314
1.72999e-06
7.02497e-07
1.05818e-14
1.72599e-14
4.41775e-14
7.25467e-14
8.57935e-14
2.41679e-12
3.72528e-11
2.71814e-06
5.26619e-05
5.32095e-05
5.31807e-05
1.32817e-05
4.08244e-06
0.000462183
0.00125074
0.00126783
0.000124958
5.99044e-07
1.06399e-07
2.96332e-15
2.93783e-15
2.98724e-13
8.85172e-14
-2.06936e-14
2.5115e-11
3.30607e-10
1.70498e-05
5.10078e-05
5.31807e-05
5.32003e-05
3.74202e-05
9.85332e-06
1.3624e-05
0.000583173
0.000277544
2.85496e-06
2.94643e-09
1.22042e-10
4.72835e-16
3.25616e-16
3.66382e-12
4.03947e-13
1.70108e-10
5.18518e-10
1.25115e-06
6.06211e-07
6.45266e-06
5.21298e-05
5.31807e-05
5.30927e-05
3.12978e-05
1.7077e-05
2.84098e-06
3.52374e-08
2.79438e-09
1.176e-10
4.65558e-12
1.19064e-16
2.9831e-18
1.30343e-11
1.49612e-12
4.50857e-09
4.14107e-08
2.42625e-11
4.35911e-12
2.33589e-11
1.39444e-05
5.30927e-05
5.30354e-05
5.30354e-05
1.53413e-05
7.50934e-09
1.5211e-10
-2.46404e-11
-1.35148e-12
3.58843e-15
3.21454e-17
2.30025e-18
2.57541e-11
2.49243e-10
5.71557e-09
1.0306e-09
3.09432e-13
3.65886e-12
3.1295e-12
7.57491e-10
2.43456e-05
5.09013e-05
3.33163e-05
1.65525e-06
7.50286e-11
1.18683e-12
-3.71642e-13
-2.92648e-14
-8.92463e-17
2.38817e-18
1.17007e-18
3.73025e-11
2.31921e-10
8.39827e-11
9.17605e-14
2.79794e-13
7.61851e-12
1.76981e-12
4.244e-12
1.23219e-10
2.87575e-09
7.69432e-07
5.13331e-07
1.23335e-12
2.5568e-14
4.38161e-16
-1.77478e-17
9.19371e-18
3.74083e-20
3.85933e-20
8.83416e-12
9.31427e-11
1.00583e-11
1.57154e-25
3.02908e-13
2.19212e-11
1.62024e-12
9.49944e-13
4.21161e-12
1.40804e-10
1.23757e-07
3.54744e-07
2.29353e-09
-1.44205e-16
-4.78336e-17
-3.13836e-19
8.49531e-20
2.6889e-23
2.35598e-16
8.15501e-30
2.47263e-55
-5.01544e-39
0
1.38338e-13
1.80631e-11
1.61023e-12
-4.62802e-15
7.10838e-10
8.6238e-09
-1.82861e-21
-9.27378e-20
-5.854e-20
-2.07978e-17
-1.68115e-18
-5.87518e-20
-7.50272e-22
)
;

boundaryField
{
    leftWall
    {
        type            zeroGradient;
    }
    rightWall
    {
        type            zeroGradient;
    }
    lowerWall
    {
        type            zeroGradient;
    }
    atmosphere
    {
        type            inletOutlet;
        inletValue      uniform 0;
        value           nonuniform List<scalar> 
46
(
-2.79332e-25
-3.19594e-26
-4.34478e-26
-1.93185e-26
-3.69237e-27
-5.1287e-28
-2.11346e-28
-7.55144e-28
-4.93113e-27
-3.79142e-26
-2.64988e-25
-1.34762e-24
-4.33274e-24
-8.45337e-24
-1.01859e-23
-8.06945e-24
-4.29415e-24
-1.61315e-24
-4.35389e-25
-7.86786e-26
-6.4014e-27
0
7.11752e-29
6.56584e-29
0
0
0
0
0
0
0
0
0
0
0
0
0
0
0
0
0
0
0
0
0
0
)
;
    }
    defaultFaces
    {
        type            empty;
    }
}


// ************************************************************************* //
