/*--------------------------------*- C++ -*----------------------------------*\
| =========                 |                                                 |
| \\      /  F ield         | OpenFOAM: The Open Source CFD Toolbox           |
|  \\    /   O peration     | Version:  2206                                  |
|   \\  /    A nd           | Website:  www.openfoam.com                      |
|    \\/     M anipulation  |                                                 |
\*---------------------------------------------------------------------------*/
FoamFile
{
    version     2.0;
    format      ascii;
    arch        "LSB;label=32;scalar=64";
    class       volScalarField;
    location    "0.8";
    object      p;
}
// * * * * * * * * * * * * * * * * * * * * * * * * * * * * * * * * * * * * * //

dimensions      [1 -1 -2 0 0 0 0];

internalField   nonuniform List<scalar> 
2268
(
685.293
683.774
681.915
681.286
685.833
697.681
714.572
732.926
752.07
772.284
793.426
814.384
833.908
850.605
862.141
865.769
865.314
864.186
865.962
874.832
885.185
887.731
879.298
625.977
623.804
621.306
619.844
623.851
636.693
654.894
673.646
692.986
713.781
734.928
756.073
775.741
792.624
805.347
811.793
809.881
803.908
804.291
813.815
823.189
824.54
817.427
563.043
560.531
558.228
556.656
560.648
574.584
594.27
613.931
633.54
654.205
675.942
697.641
717.98
735.436
749.001
756.842
754.642
748.171
748.528
755.917
761.903
759.885
753.4
496.844
494.549
493.07
491.541
495.328
510.69
532.886
554.013
574.015
594.937
617.099
639.573
660.89
679.23
693.239
701.232
700.297
695.044
694.173
697.737
700.363
693.847
687.085
428.538
426.682
426.252
425.049
429.125
446.566
471.766
494.283
514.438
535.53
558.268
581.803
604.472
624.055
638.676
646.706
647.124
642.487
639.367
638.883
638.09
626.924
619.134
359.029
357.614
358.511
358.555
364.039
383.97
411.598
434.737
454.753
475.882
499.291
524.186
548.662
569.893
585.21
592.992
592.924
588.018
582.935
579.581
575.718
560.691
551.849
289.059
287.959
290.72
293.361
301.495
324.493
352.222
374.897
394.712
416.026
440.117
466.674
493.477
516.813
532.834
539.776
538.55
532.508
525.585
520.004
513.836
497.575
484.374
219.532
218.849
223.955
230.467
241.898
267.036
294.429
315.299
333.934
355.282
380.334
409.044
439.006
465.076
481.971
487.612
484.287
476.281
467.499
460.3
452.896
436.14
414.211
1322.68
1287.76
1266.86
1202.88
1176.68
1089.26
926.061
790.473
714.203
678.05
661.408
668.286
677.054
591.781
490.102
416.652
440.624
560.513
656
1281.89
1236.84
1186.67
1122.92
1095.57
1002.02
838.719
712.329
645.672
609.114
593.187
636.167
675.988
551.027
417.904
348.282
372.148
480.716
595.1
1274.2
1189.39
1078.91
1051.94
1004.94
863.502
714.791
612.889
552.361
528.084
528.226
577.806
594.345
474.937
352.803
297.007
306.453
401.642
551.301
1296.4
1129.54
1025.02
979.179
897.693
718.547
595.177
521.708
469.804
447.333
445.401
474.805
484.765
404.933
316.446
265.223
274.329
361.352
534.186
1293.03
1061.55
992.79
913.911
768.007
570.057
465.042
422.194
376.97
360.42
359.999
379.374
391.922
355.505
298.021
262.785
283.447
374.216
558.943
1236.66
1005.86
953.34
848.293
633.745
403.921
329.53
317.558
288.008
279.622
281.453
295.992
310.697
314.779
304.998
285.647
328.348
439.413
629.931
1121.47
969.283
903.073
778.38
482.188
300.836
285.088
276.605
268.068
264.89
264.898
268.167
263.743
268.558
287.865
299.737
368.639
512.378
687.983
957.187
939.199
851.918
699.504
346.668
285.858
279.274
271.954
266.726
263.429
263.003
262.577
252.061
250.818
270.703
287.478
386.027
551.371
700.352
114.816
115.307
124.624
140.151
158.815
177.751
197.565
216.996
236.541
258.765
285.662
318.336
354.473
386.398
404.744
407.062
399.051
387.259
376.061
367.358
358.329
340.448
313.449
27.692
24.1308
27.5323
36.7576
48.6038
60.1957
73.0587
88.1264
104.587
123.911
151.989
193.499
246.415
293.837
316.702
310.068
289.458
268.222
252.616
243.17
235.09
222.478
200.63
6.03337
3.82356
2.8077
3.20454
4.31245
5.8032
8.67379
13.9413
19.8746
26.3283
45.886
88.489
162.832
244.83
279.362
248.671
202.75
166.37
144.027
134.318
127.012
122.241
124.345
3.7807
2.71433
1.99521
1.21177
0.299777
-0.451488
-0.768484
-0.817013
-1.21605
-1.58793
3.02316
27.1353
94.1455
163.48
186.643
166.748
134.493
103.482
83.4803
73.8546
61.0173
46.2749
56.3356
1.84495
1.24595
0.736836
0.128184
-0.506598
-1.02167
-1.31376
-1.47995
-1.64807
-1.90482
-2.12866
4.39084
38.0753
90.1551
109.119
111.33
98.9464
74.911
55.1507
47.6585
29.9799
-0.589434
-15.2644
0.55819
0.140862
-0.19856
-0.624195
-1.06065
-1.44923
-1.73265
-1.95683
-2.21538
-2.53862
-2.58334
-1.08776
5.76876
26.4502
52.0704
58.5029
53.9009
33.7893
17.2291
16.1021
-9.9944
-43.8704
-56.7929
-0.168916
-0.616422
-0.817031
-1.08812
-1.34528
-1.6011
-1.81019
-1.98952
-2.18953
-2.38979
-2.51469
-2.57196
-2.60776
1.36469
18.1738
23.898
17.9998
5.64416
2.53726
14.4947
3.22496
-26.4163
-39.0935
-0.597056
-1.11256
-1.23766
-1.41716
-1.53409
-1.68688
-1.84007
-1.98762
-2.13974
-2.27707
-2.36271
-2.42461
-2.47883
-2.15328
-1.99527
-1.78863
-0.796398
-0.16115
-0.1163
-0.940843
-3.16725
-2.08986
-12.0537
-0.867777
-1.32434
-1.5297
-1.65078
-1.69804
-1.77471
-1.88085
-1.99493
-2.10294
-2.18998
-2.23352
-2.21246
-2.08229
-1.93558
-1.79208
-1.56222
-1.13459
-0.849352
-0.811766
-0.857968
-0.564391
-0.938882
-2.53938
-1.09366
-1.37294
-1.61516
-1.74655
-1.78791
-1.83558
-1.91473
-2.00237
-2.07858
-2.13165
-2.14865
-2.11856
-2.03896
-1.94429
-1.72359
-1.48044
-1.20167
-0.995655
-1.01165
-1.0257
-0.0204775
1.55187
3.12983
-1.32431
-1.40524
-1.57062
-1.71962
-1.8001
-1.86379
-1.93916
-2.01354
-2.07273
-2.10916
-2.11465
-2.08401
-2.01666
-1.91063
-1.75084
-1.55341
-1.32704
-1.18477
-1.20304
-1.23649
-0.313846
2.83137
6.51429
-1.54005
-1.50535
-1.56886
-1.70071
-1.81039
-1.89695
-1.97606
-2.04383
-2.09388
-2.12261
-2.1252
-2.09814
-2.04131
-1.95506
-1.83749
-1.69156
-1.5434
-1.44008
-1.47082
-1.67421
-1.46927
0.432372
3.85482
-1.71037
-1.65147
-1.67258
-1.77126
-1.87485
-1.96343
-2.03919
-2.09999
-2.14346
-2.16823
-2.17184
-2.15234
-2.11014
-2.04784
-1.9675
-1.8766
-1.79564
-1.75641
-1.83451
-2.00277
-1.84101
-1.11207
1.38116
-1.85474
-1.81711
-1.83678
-1.90607
-1.98699
-2.06213
-2.12731
-2.1796
-2.21738
-2.23991
-2.24593
-2.23465
-2.20707
-2.16661
-2.11802
-2.06927
-2.03283
-2.02569
-2.083
-2.18214
-2.202
-2.00028
-0.807928
-2.00488
-1.99504
-2.01394
-2.06219
-2.12173
-2.18055
-2.23359
-2.27744
-2.31026
-2.33131
-2.33999
-2.33627
-2.32153
-2.29924
-2.27427
-2.25316
-2.24451
-2.25899
-2.32104
-2.43865
-2.60308
-2.61158
-2.0107
-2.16723
-2.16961
-2.18538
-2.22052
-2.26426
-2.30946
-2.35197
-2.38854
-2.41729
-2.4374
-2.44865
-2.45148
-2.44738
-2.43938
-2.4317
-2.42988
-2.44178
-2.4761
-2.56401
-2.73491
-2.97191
-2.98728
-2.77145
-2.33038
-2.33471
-2.34898
-2.3759
-2.40873
-2.44386
-2.47812
-2.50885
-2.53443
-2.55409
-2.56775
-2.57602
-2.58034
-2.58324
-2.58838
-2.60028
-2.62631
-2.67233
-2.7632
-2.91919
-3.05706
-3.03612
-2.84346
-2.48922
-2.49291
-2.50627
-2.52753
-2.55302
-2.58097
-2.60902
-2.63526
-2.65843
-2.67791
-2.69363
-2.70618
-2.71681
-2.72753
-2.74123
-2.7615
-2.79312
-2.83857
-2.90572
-3.00963
-3.06412
-2.98052
-2.88517
-2.64387
-2.64675
-2.65876
-2.67588
-2.69635
-2.71916
-2.74263
-2.76548
-2.78678
-2.80607
-2.82333
-2.83902
-2.85413
-2.87012
-2.88899
-2.91303
-2.94468
-2.98445
-3.03146
-3.09826
-3.12163
-3.04637
-3.0215
-2.79465
-2.79704
-2.80746
-2.82149
-2.83838
-2.85745
-2.87754
-2.89779
-2.91758
-2.93659
-2.95484
-2.97269
-2.99085
-3.01032
-3.03239
-3.05838
-3.08934
-3.12522
-3.1629
-3.20581
-3.22413
-3.15684
-3.17626
-2.9419
-2.94408
-2.95296
-2.96465
-2.9789
-2.99519
-3.01274
-3.03099
-3.04951
-3.06814
-3.08692
-3.10615
-3.12635
-3.14825
-3.1727
-3.20055
-3.23228
-3.26744
-3.30312
-3.3332
-3.34306
-3.28396
-3.3394
-3.08605
-3.08811
-3.09564
-3.10553
-3.11777
-3.13195
-3.14756
-3.1642
-3.18163
-3.19979
-3.21875
-3.23879
-3.26035
-3.28404
-3.31057
-3.34073
-3.37511
-3.41343
-3.45486
-3.49077
-3.52059
-3.50657
-3.67719
-3.22742
-3.22938
-3.23577
-3.24428
-3.25495
-3.26747
-3.28152
-3.29684
-3.3133
-3.33089
-3.34975
-3.37017
-3.39256
-3.41756
-3.44597
-3.47882
-3.51742
-3.56294
-3.61814
-3.68175
-3.76518
-3.90126
-4.23198
-3.36628
-3.36813
-3.37359
-3.38101
-3.39041
-3.4016
-3.41436
-3.42852
-3.44404
-3.46098
-3.4795
-3.4999
-3.52264
-3.54842
-3.57825
-3.61362
-3.65679
-3.71126
-3.78416
-3.88801
-4.0517
-4.40852
-5.10291
-3.5029
-3.50461
-3.50933
-3.51587
-3.52423
-3.53429
-3.54592
-3.55902
-3.5736
-3.58975
-3.60767
-3.62766
-3.65022
-3.67609
-3.70646
-3.74313
-3.78906
-3.84929
-3.9339
-4.06172
-4.27969
-4.68331
-5.46322
-3.63753
-3.63908
-3.6432
-3.64901
-3.65648
-3.66556
-3.67616
-3.68823
-3.70183
-3.71705
-3.7341
-3.75329
-3.77508
-3.80021
-3.82983
-3.86574
-3.9108
-3.96958
-4.05122
-4.16732
-4.35668
-4.64714
-5.12221
-3.77041
-3.77181
-3.77543
-3.78061
-3.78729
-3.79548
-3.80511
-3.81617
-3.82872
-3.84288
-3.85882
-3.87682
-3.89729
-3.92086
-3.94848
-3.98158
-4.02225
-4.07335
-4.14031
-4.22623
-4.34772
-4.5004
-4.72136
-3.9018
-3.90304
-3.90623
-3.91084
-3.91681
-3.92417
-3.93286
-3.94291
-3.95437
-3.96733
-3.98197
-3.99849
-4.01722
-4.03863
-4.06341
-4.0925
-4.12714
-4.16875
-4.21967
-4.28015
-4.35497
-4.43676
-4.53781
-4.03189
-4.03296
-4.03579
-4.03989
-4.0452
-4.05177
-4.05956
-4.06859
-4.07891
-4.09061
-4.10381
-4.11867
-4.13541
-4.15436
-4.17598
-4.20083
-4.2296
-4.26299
-4.30198
-4.34666
-4.39852
-4.45397
-4.51321
-4.16087
-4.16179
-4.16429
-4.16791
-4.1726
-4.17842
-4.18533
-4.19336
-4.20254
-4.21294
-4.22464
-4.23776
-4.25243
-4.26887
-4.28736
-4.30824
-4.33188
-4.35866
-4.38899
-4.42292
-4.46059
-4.50014
-4.53878
-4.2889
-4.2897
-4.29188
-4.29507
-4.29918
-4.30428
-4.31035
-4.31739
-4.32544
-4.33455
-4.34476
-4.35614
-4.36878
-4.38279
-4.39835
-4.41563
-4.43483
-4.45611
-4.47957
-4.50508
-4.5323
-4.56021
-4.58688
-4.41613
-4.41682
-4.41871
-4.42149
-4.42505
-4.42948
-4.43475
-4.44085
-4.44781
-4.45566
-4.46443
-4.47414
-4.48484
-4.49659
-4.50947
-4.52357
-4.53895
-4.55566
-4.57367
-4.59284
-4.61284
-4.63314
-4.65264
-4.54269
-4.54328
-4.5449
-4.54731
-4.55036
-4.55416
-4.55867
-4.56388
-4.56981
-4.57647
-4.58386
-4.59201
-4.60092
-4.61061
-4.6211
-4.63243
-4.64461
-4.65762
-4.67143
-4.68591
-4.70086
-4.71594
-4.73048
-4.6687
-4.6692
-4.67057
-4.67263
-4.67521
-4.67842
-4.68222
-4.68661
-4.69157
-4.69712
-4.70325
-4.70996
-4.71724
-4.72509
-4.73349
-4.74245
-4.75196
-4.76199
-4.7725
-4.7834
-4.79457
-4.8058
-4.81672
-4.79426
-4.79466
-4.79582
-4.79755
-4.79969
-4.80237
-4.80552
-4.80914
-4.81322
-4.81775
-4.82273
-4.82814
-4.83396
-4.84018
-4.84677
-4.85372
-4.861
-4.8686
-4.87648
-4.88458
-4.89284
-4.90116
-4.90934
-4.91947
-4.91976
-4.92072
-4.92216
-4.9239
-4.92609
-4.92864
-4.93157
-4.93485
-4.93846
-4.9424
-4.94665
-4.95119
-4.95598
-4.96102
-4.96626
-4.9717
-4.9773
-4.98306
-4.98894
-4.99492
-5.00097
-5.007
-5.0444
-5.04457
-5.04536
-5.04653
-5.04791
-5.04965
-5.05167
-5.05397
-5.05652
-5.05932
-5.06235
-5.06558
-5.06899
-5.07256
-5.07627
-5.08009
-5.08399
-5.08797
-5.09201
-5.09612
-5.10029
-5.10454
-5.10888
-5.16913
-5.16917
-5.16981
-5.17074
-5.17179
-5.17313
-5.17466
-5.1764
-5.17831
-5.18039
-5.18262
-5.18497
-5.18743
-5.18996
-5.19256
-5.19519
-5.19785
-5.20052
-5.20319
-5.20589
-5.20864
-5.2115
-5.21452
-5.29371
-5.2936
-5.29412
-5.29483
-5.29558
-5.29656
-5.29766
-5.29891
-5.30026
-5.30172
-5.30326
-5.30487
-5.30653
-5.30821
-5.3099
-5.31159
-5.31325
-5.31489
-5.31651
-5.31814
-5.3198
-5.3216
-5.32363
-5.41819
-5.41794
-5.41838
-5.41886
-5.41935
-5.42002
-5.42074
-5.42155
-5.42243
-5.42336
-5.42433
-5.42532
-5.42633
-5.42733
-5.42831
-5.42927
-5.43018
-5.43106
-5.4319
-5.43274
-5.43362
-5.43463
-5.4359
-5.54254
-5.54221
-5.54258
-5.54285
-5.54311
-5.54349
-5.54387
-5.54432
-5.54478
-5.54527
-5.54577
-5.54627
-5.54677
-5.54725
-5.5477
-5.54813
-5.54852
-5.54887
-5.54919
-5.5495
-5.54983
-5.55025
-5.55089
-5.66721
-5.6668
-5.66696
-5.66704
-5.66712
-5.66724
-5.66735
-5.66748
-5.6676
-5.66773
-5.66785
-5.66796
-5.66807
-5.66816
-5.66823
-5.66827
-5.6683
-5.66831
-5.6683
-5.66829
-5.66829
-5.66834
-5.66851
295.562
85.3341
-53.9167
-137.361
160.495
-112.955
-351.888
-30.6101
95.2591
-144.985
-270.477
-10.3858
78.48
16.5098
-50.1866
-28.9776
7.95128
52.2454
-4.44093
-37.3922
-20.8936
33.2491
6.6893
-36.0295
-16.2934
45.8928
17.2271
-19.1248
-7.41888
42.8485
35.6945
16.8119
-0.34011
31.3834
56.4852
54.8656
6.97761
17.1037
25.3902
24.8725
9.70912
11.0075
14.8625
19.312
8.02199
10.6512
12.1235
10.3321
3.89633
6.74961
7.02932
3.53671
-0.415172
2.5423
2.081
0.861087
-0.396409
3.38493
1.83565
-1.29248
-2.27536
0.382929
-0.63766
-4.18332
-2.4342
-1.86631
-3.12896
-3.46882
-2.86007
-3.00029
-3.52589
-3.2655
-3.3106
-3.49334
-3.55254
-3.4172
-3.77442
-3.6899
-3.81833
-3.57205
-4.18835
-3.75481
-3.89083
-3.66449
-4.59485
-4.0723
-4.00999
-3.80654
-4.74263
-4.60771
-4.24812
-3.99426
-5.34724
-4.83866
-4.43262
-4.17567
-5.83422
-5.04532
-4.55006
-4.27627
-5.42174
-4.9976
-4.56658
-4.3256
-4.89478
-4.77737
-4.53821
-4.3721
-4.64776
-4.64451
-4.53382
-4.42953
-4.58309
-4.5992
-4.5519
-4.49168
-4.58182
-4.60191
-4.58676
-4.55623
-4.61671
-4.63693
-4.63683
-4.62417
-4.67471
-4.69267
-4.69901
-4.69661
-4.74712
-4.76241
-4.77118
-4.77422
-4.82944
-4.84222
-4.85139
-4.85699
-4.91908
-4.92957
-4.93818
-4.9448
-5.01438
-5.02289
-5.03073
-5.03782
-5.11439
-5.12136
-5.1286
-5.13624
-5.21861
-5.22447
-5.23142
-5.23977
-5.32665
-5.33167
-5.33849
-5.34756
-5.43811
-5.44229
-5.44898
-5.45866
-5.55223
-5.55556
-5.56217
-5.57243
-5.66896
-5.67132
-5.6778
-5.68853
646.83
832.809
748.943
567.158
308.831
283.17
275.511
268.721
263.335
259.675
259.095
253.302
243.423
244.31
256.143
264.622
378.239
532.917
652.977
458.205
557.742
522.879
385.661
274.856
269.782
261.385
258.258
255.59
253.465
249.855
227.255
215.083
226.51
236.995
259.593
382.123
527.9
608.055
184.762
250.306
267.852
222.564
197.581
206.458
209.293
221.891
238.756
236.249
210.533
154.174
153.702
193.052
217.239
269.247
386.386
511.834
587.63
19.8949
68.0198
119.516
121.948
107.416
116.741
125.246
133.553
152.211
151.677
121.888
103.328
112.771
150.796
171.875
216.14
285.306
379.036
475.963
-26.7522
2.1699
52.3014
59.7842
36.6522
34.8225
50.7855
61.8637
71.8094
70.6849
68.0769
77.4707
97.4214
119.749
136.999
144.887
184.463
230.276
291.327
-34.9341
-14.8921
30.7419
23.5565
9.61784
4.33151
7.76484
16.1803
39.7101
53.3202
65.3567
77.8604
92.1747
105.83
118.888
124.836
116.329
128.856
136.251
-24.1762
-11.3016
14.256
6.80085
3.82043
2.68391
1.46001
0.641959
4.60115
21.3345
45.7555
61.0503
70.4902
71.8459
63.1385
26.573
18.7131
32.8615
72.7939
6.32427
-4.27828
7.41709
2.97865
2.50058
2.09679
1.88915
1.38542
0.384572
2.39196
12.0448
18.0138
21.2174
13.5924
8.70767
6.03027
6.73156
11.8328
23.8727
54.807
29.1339
15.5538
4.83522
2.19472
1.54378
1.48267
1.26788
1.09012
0.922372
0.513577
1.73509
2.00962
0.935524
1.46748
2.17107
2.39068
4.19099
10.0059
16.0222
1.89828
8.81858
2.35559
0.469257
0.949923
0.937093
0.775151
0.653261
0.524923
0.376723
0.258831
0.501063
1.06225
1.41481
1.57033
1.46738
1.60541
4.41724
4.92115
-8.47315
-14.6914
-14.9679
0.256668
0.485576
0.476775
0.324025
0.188538
0.0735169
0.00444318
0.0620979
0.367842
0.894222
1.28764
1.22474
1.1808
0.924838
1.92356
-2.06753
-6.83517
-15.2869
-13.3922
-0.275871
-0.127021
-0.0401085
-0.178635
-0.297503
-0.399867
-0.483568
-0.519936
-0.373572
0.0742294
0.580324
0.726725
0.72346
0.510785
1.02751
-5.65053
-7.02286
-10.6533
-12.8089
-4.28906
-1.25839
-0.939204
-0.886653
-0.930545
-0.979331
-1.05973
-1.19031
-1.27988
-1.20906
-0.678773
-0.0890673
0.0941334
-0.362082
0.559348
-2.95743
-5.1127
-7.15795
-7.60161
-4.57453
-2.52267
-2.08564
-1.74528
-1.6049
-1.55813
-1.60553
-1.76442
-2.01392
-2.23759
-1.76134
-1.08903
-0.749166
-1.34924
-0.801329
-2.60855
-3.97914
-5.07952
-5.53499
-4.8102
-3.87092
-3.26991
-2.69112
-2.31544
-2.1327
-2.10084
-2.19708
-2.38699
-2.70688
-2.43117
-1.93164
-1.74533
-2.01311
-1.49238
-3.03118
-3.75744
-4.6553
-5.3631
-5.44647
-5.04866
-4.39062
-3.62557
-3.02575
-2.70048
-2.57859
-2.57896
-2.66521
-2.83902
-2.7894
-2.54394
-2.43563
-2.47052
-2.1412
-3.43302
-3.95581
-4.9017
-5.75167
-6.10341
-5.88761
-5.22124
-4.33419
-3.59771
-3.17909
-2.99742
-2.92476
-2.91914
-2.97021
-3.00607
-2.91963
-2.75907
-2.76487
-2.4951
-3.38468
-3.93531
-4.97548
-5.83412
-6.28496
-6.153
-5.53856
-4.63186
-3.90933
-3.49574
-3.30876
-3.1984
-3.14017
-3.12712
-3.17044
-3.07824
-2.95316
-2.97431
-2.70182
-3.37442
-3.72079
-4.64
-5.4175
-5.88973
-5.80609
-5.29103
-4.57742
-4.00091
-3.67008
-3.50533
-3.3939
-3.31295
-3.2633
-3.24967
-3.19965
-3.1273
-3.15053
-2.8761
-3.3939
-3.39632
-3.8177
-4.46368
-4.90086
-4.9114
-4.66663
-4.28186
-3.94867
-3.7444
-3.6253
-3.52909
-3.44804
-3.3866
-3.34533
-3.32517
-3.27899
-3.30498
-3.03897
-3.43363
-3.30655
-3.34712
-3.60402
-3.92538
-4.14559
-4.1758
-4.05197
-3.90153
-3.78987
-3.70805
-3.62781
-3.55601
-3.49726
-3.44805
-3.44172
-3.41127
-3.43712
-3.18065
-3.56993
-3.41278
-3.38239
-3.49571
-3.71488
-3.91172
-3.99303
-3.9659
-3.90012
-3.83641
-3.77679
-3.70784
-3.64707
-3.59397
-3.55219
-3.55582
-3.53823
-3.5478
-3.25821
-3.76513
-3.62703
-3.59515
-3.66097
-3.78689
-3.9001
-3.95686
-3.95771
-3.92936
-3.89077
-3.84389
-3.78238
-3.73221
-3.68626
-3.66443
-3.67465
-3.67528
-3.67164
-3.45487
-3.94922
-3.83295
-3.79852
-3.82641
-3.8887
-3.95126
-3.98905
-3.99674
-3.98336
-3.95696
-3.91672
-3.86187
-3.82184
-3.79421
-3.80073
-3.80971
-3.82757
-3.8365
-3.84466
-4.09954
-4.00881
-3.97333
-3.97745
-4.00354
-4.03425
-4.05526
-4.0612
-4.05343
-4.03374
-3.99829
-3.95359
-3.92617
-3.9235
-3.94203
-3.9577
-3.96681
-3.98196
-4.00702
-4.20757
-4.14645
-4.11476
-4.10701
-4.11439
-4.12732
-4.13741
-4.14047
-4.13454
-4.1189
-4.08779
-4.05645
-4.04403
-4.07051
-4.08454
-4.1078
-4.09682
-4.11562
-4.1239
-4.29726
-4.25847
-4.23328
-4.22165
-4.2203
-4.22387
-4.22744
-4.22815
-4.22286
-4.20956
-4.18155
-4.16104
-4.16198
-4.21487
-4.23522
-4.24825
-4.22569
-4.23505
-4.23725
-4.38051
-4.35514
-4.33666
-4.32568
-4.32124
-4.32055
-4.3209
-4.32038
-4.31557
-4.3036
-4.27707
-4.26144
-4.27714
-4.33408
-4.37321
-4.38088
-4.3605
-4.35236
-4.35227
-4.45975
-4.44321
-4.43085
-4.42255
-4.4181
-4.41623
-4.41565
-4.41509
-4.41136
-4.40074
-4.37596
-4.36362
-4.39486
-4.45839
-4.51343
-4.51317
-4.49716
-4.47644
-4.46723
-4.53722
-4.52722
-4.5199
-4.51479
-4.51184
-4.51062
-4.51079
-4.51156
-4.51041
-4.50287
-4.48414
-4.47508
-4.51821
-4.60095
-4.65029
-4.67082
-4.64338
-4.59407
-4.57039
-4.61462
-4.60969
-4.60636
-4.60425
-4.60341
-4.60394
-4.60618
-4.60988
-4.61329
-4.61199
-4.60352
-4.60008
-4.64015
-4.71644
-4.76654
-4.83254
-4.77352
-4.68566
-4.6464
-4.69359
-4.69235
-4.69199
-4.69239
-4.69381
-4.69684
-4.70236
-4.71066
-4.72044
-4.72811
-4.73057
-4.73545
-4.76519
-4.80855
-4.85834
-4.93317
-4.85196
-4.73456
-4.68142
-4.77522
-4.7764
-4.77813
-4.78054
-4.7842
-4.79036
-4.80032
-4.81474
-4.83249
-4.84997
-4.86061
-4.8657
-4.88033
-4.89941
-4.95129
-4.98898
-4.87713
-4.7342
-4.66805
-4.86024
-4.86289
-4.86605
-4.87004
-4.87588
-4.88563
-4.90058
-4.92205
-4.94986
-4.97963
-4.99914
-4.99924
-4.99375
-5.00383
-5.05046
-5.01792
-4.84341
-4.69025
-4.62093
-4.94932
-4.95295
-4.95724
-4.96254
-4.97056
-4.98389
-5.00328
-5.0318
-5.07249
-5.1193
-5.15402
-5.1548
-5.12738
-5.1061
-5.07122
-4.94354
-4.76088
-4.64374
-4.59286
-5.04334
-5.04794
-5.05336
-5.05997
-5.07006
-5.08612
-5.10854
-5.1431
-5.19717
-5.26308
-5.31793
-5.3246
-5.26379
-5.16435
-5.03006
-4.87273
-4.73748
-4.67029
-4.64322
-5.14296
-5.14875
-5.15549
-5.16351
-5.17519
-5.1923
-5.21536
-5.2518
-5.31099
-5.38893
-5.45895
-5.47063
-5.38816
-5.2304
-5.06025
-4.92474
-4.83448
-4.79216
-4.77587
-5.24784
-5.25495
-5.26309
-5.27255
-5.28509
-5.30168
-5.32264
-5.35325
-5.40212
-5.47118
-5.53865
-5.55045
-5.47279
-5.31948
-5.16405
-5.05503
-4.99413
-4.96489
-4.95297
-5.35686
-5.36512
-5.37448
-5.38511
-5.39797
-5.41333
-5.43076
-5.45207
-5.48282
-5.52513
-5.56433
-5.56551
-5.50571
-5.39982
-5.29513
-5.21836
-5.17488
-5.15254
-5.14286
-5.46895
-5.47811
-5.48839
-5.49985
-5.51278
-5.527
-5.5416
-5.556
-5.57168
-5.58735
-5.59598
-5.58423
-5.5455
-5.4863
-5.42764
-5.38178
-5.35215
-5.3353
-5.32774
-5.58357
-5.59351
-5.60464
-5.61686
-5.63009
-5.64382
-5.65691
-5.66787
-5.67538
-5.67699
-5.66976
-5.65171
-5.62515
-5.59377
-5.56296
-5.53769
-5.52048
-5.51063
-5.50624
-5.70045
-5.71117
-5.72324
-5.73661
-5.75105
-5.7657
-5.77884
-5.78839
-5.79202
-5.78639
-5.7706
-5.74771
-5.72529
-5.70784
-5.6958
-5.68907
-5.68676
-5.68701
-5.68737
)
;

boundaryField
{
    leftWall
    {
        type            calculated;
        value           nonuniform List<scalar> 
50
(
685.293
625.977
563.043
496.844
428.538
359.029
289.059
219.532
114.816
27.692
6.03337
3.7807
1.84495
0.55819
-0.168916
-0.597056
-0.867777
-1.09366
-1.32431
-1.54005
-1.71037
-1.85474
-2.00488
-2.16723
-2.33038
-2.48922
-2.64387
-2.79465
-2.9419
-3.08605
-3.22742
-3.36628
-3.5029
-3.63753
-3.77041
-3.9018
-4.03189
-4.16087
-4.2889
-4.41613
-4.54269
-4.6687
-4.79426
-4.91947
-5.0444
-5.16913
-5.29371
-5.41819
-5.54254
-5.66721
)
;
    }
    rightWall
    {
        type            calculated;
        value           nonuniform List<scalar> 
50
(
656
595.1
551.301
534.186
558.943
629.931
687.983
700.352
652.977
608.055
587.63
475.963
291.327
136.251
72.7939
23.8727
10.0059
4.41724
1.92356
1.02751
0.559348
-0.801329
-1.49238
-2.1412
-2.4951
-2.70182
-2.8761
-3.03897
-3.18065
-3.25821
-3.45487
-3.84466
-4.00702
-4.1239
-4.23725
-4.35227
-4.46723
-4.57039
-4.6464
-4.68142
-4.66805
-4.62093
-4.59286
-4.64322
-4.77587
-4.95297
-5.14286
-5.32774
-5.50624
-5.68737
)
;
    }
    lowerWall
    {
        type            calculated;
        value           nonuniform List<scalar> 
62
(
714.722
713.203
711.344
710.716
715.263
727.11
744.002
762.355
781.499
801.713
822.855
843.814
863.337
880.035
891.558
894.342
893.194
893.526
895.302
904.15
914.414
917.041
908.719
879.298
817.427
753.4
687.085
619.134
551.849
484.374
414.211
358.154
147.926
8.67398
-77.6406
1322.68
1281.89
1274.2
1296.4
1293.03
1236.66
1121.47
957.187
1339.6
1301.79
1284.93
1222.56
1194.26
1106.8
943.674
814.743
740.26
704.329
687.687
694.565
703.333
618.06
516.378
442.908
465.841
584.358
679.293
)
;
    }
    atmosphere
    {
        type            calculated;
        value           nonuniform List<scalar> 
46
(
-5.72904
-5.72904
-5.72904
-5.72904
-5.72904
-5.72904
-5.72904
-5.72904
-5.72904
-5.72904
-5.72904
-5.72904
-5.72904
-5.72904
-5.72904
-5.72904
-5.72904
-5.72904
-5.72904
-5.72904
-5.72904
-5.72904
-5.72904
-5.72904
-5.73064
-5.73683
-5.74761
-5.7598
-5.77089
-5.78348
-5.79767
-5.81343
-5.82962
-5.84392
-5.85382
-5.85666
-5.84839
-5.82835
-5.79909
-5.77214
-5.75931
-5.75863
-5.76439
-5.77274
-5.7807
-5.7843
)
;
    }
    defaultFaces
    {
        type            empty;
    }
}


// ************************************************************************* //
