/*--------------------------------*- C++ -*----------------------------------*\
| =========                 |                                                 |
| \\      /  F ield         | OpenFOAM: The Open Source CFD Toolbox           |
|  \\    /   O peration     | Version:  2206                                  |
|   \\  /    A nd           | Website:  www.openfoam.com                      |
|    \\/     M anipulation  |                                                 |
\*---------------------------------------------------------------------------*/
FoamFile
{
    version     2.0;
    format      ascii;
    arch        "LSB;label=32;scalar=64";
    class       volScalarField;
    location    "0.8";
    object      p_rgh;
}
// * * * * * * * * * * * * * * * * * * * * * * * * * * * * * * * * * * * * * //

dimensions      [1 -1 -2 0 0 0 0];

internalField   nonuniform List<scalar> 
2268
(
714.722
713.203
711.344
710.716
715.263
727.11
744.002
762.355
781.499
801.713
822.855
843.814
863.337
880.035
891.558
894.342
893.194
893.526
895.302
904.15
914.414
917.041
908.719
714.265
712.092
709.594
708.132
712.139
724.981
743.182
761.934
781.274
802.069
823.217
844.361
864.029
880.91
893.269
895.675
893.209
887.628
889.365
898.601
907.972
912.401
905.697
710.19
707.678
705.375
703.803
707.795
721.731
741.417
761.078
780.687
801.352
823.088
844.787
865.126
882.582
896.108
900.997
893.458
886.943
887.3
895.236
905.157
906.991
900.516
702.849
700.555
699.075
697.546
701.334
716.696
738.891
760.019
780.02
800.943
823.105
845.578
866.895
885.236
899.244
907.173
905.043
898.641
899.009
903.742
906.369
899.853
893.063
693.402
691.546
691.116
689.913
693.989
711.43
736.631
759.147
779.302
800.395
823.132
846.667
869.337
888.92
903.54
911.57
911.988
907.351
904.232
903.747
902.954
891.787
883.997
682.752
681.337
682.234
682.278
687.762
707.693
735.321
758.46
778.476
799.605
823.014
847.909
872.385
893.616
908.933
916.715
916.647
911.741
906.658
903.304
899.441
884.413
875.566
671.64
670.541
673.301
675.943
684.076
707.073
734.783
757.479
777.294
798.608
822.699
849.256
876.059
899.395
915.415
922.358
921.132
915.09
908.166
902.586
896.417
880.154
866.945
660.973
660.289
665.395
671.907
683.339
708.476
734.483
756.74
775.374
796.723
821.775
850.485
880.446
906.517
923.411
929.052
925.727
917.721
908.94
901.74
894.336
877.577
855.64
1339.6
1301.79
1284.93
1222.56
1194.26
1106.8
943.674
814.743
740.26
704.329
687.687
694.565
703.333
618.06
516.378
442.908
465.841
584.358
679.293
1334.39
1280.21
1242
1175.61
1139.55
1058.58
897.164
780.129
712.442
672.767
650.691
694.097
754.824
629.856
481.599
385.83
402.702
508.092
622.487
1361.76
1278.93
1170.53
1109.65
1091.01
970.508
822.447
723.144
662.389
623.404
621.885
671.601
715.993
603.206
420.774
335.977
345.381
440.612
590.916
1418.97
1251.87
1102.7
1057.6
1046.54
868.141
745.095
672.386
620.699
597.198
594.698
606.013
650.383
565.103
371.414
319.721
328.827
415.85
594.856
1449.94
1211.12
1088.4
1013.85
958.599
761.429
657.378
614.945
569.631
553.081
549.878
582.552
600.857
562.577
451.026
333.458
353.516
503.585
728.782
1426.76
1182.21
1070.16
1067.62
865.169
618.291
516.904
514.633
454.295
428.851
445.336
502.074
561.942
565.561
551.92
464.537
415.618
609.812
858.356
1344.49
1116.86
1042.61
1038.76
751.026
361.788
310.746
308.169
274.588
271.415
271.45
300.438
371.682
465.384
549.357
554.674
603.922
780.162
963.85
1209.86
1116.15
1029.09
993.688
589.31
293.67
286.818
279.475
274.249
270.948
270.532
270.259
261.14
268.464
328.594
574.673
704.561
870.499
1018.76
589.471
608.859
616.893
628.035
639.008
689.922
731.032
750.463
770.008
792.232
819.13
851.803
887.94
919.865
938.21
940.527
932.514
920.722
909.522
900.819
891.791
873.909
846.901
247.521
215.874
260.949
310.855
386.028
495.261
585.926
655.881
713.212
760.008
802.432
849.72
904.408
952.481
975.312
968.631
947.992
926.76
911.175
901.748
893.694
881.11
859.27
11.65
5.7994
4.9241
24.2479
53.9383
79.8158
114.542
173.439
257.143
342.922
425.462
526.094
672.797
804.126
844.826
793.087
733.294
703.397
697.901
723.191
786.829
867.08
908.069
6.35455
3.93102
3.07444
2.25065
1.33184
0.635288
0.525927
1.69635
3.64251
18.5291
67.9678
147.06
256.035
359.506
412.559
356.382
275.344
237.175
217.173
206.777
218.911
447.235
796.588
3.25868
2.40019
1.81386
1.18977
0.550646
0.0427169
-0.202081
-0.213292
0.142055
3.09025
9.88487
21.3607
100.145
401.918
546.063
426.251
288.513
231.795
207.256
199.764
198.121
193.496
364.55
1.82914
1.34209
0.97294
0.541353
0.102983
-0.285123
-0.564987
-0.770501
-0.965929
-1.10092
-0.753101
3.16218
165.98
497.842
548.923
555.355
550.753
522.002
254.761
346.305
714.348
681.694
668.501
1.15579
0.681575
0.471584
0.197973
-0.0599235
-0.315798
-0.524562
-0.702602
-0.898217
-1.077
-1.01303
-0.961054
-0.596784
68.8067
422.9
558.314
477.821
111.185
35.7603
407.143
711.008
770.036
764.819
0.84233
0.309512
0.173765
-0.00685927
-0.124091
-0.27696
-0.430123
-0.577533
-0.729205
-0.865064
-0.947195
-0.821184
-0.0618424
-0.727609
-0.57509
-0.36227
0.668302
1.49388
2.2736
2.99013
7.33908
186.35
774.53
0.688869
0.249531
0.00824987
-0.11558
-0.162944
-0.239662
-0.34581
-0.459872
-0.567832
-0.654706
-0.697573
-0.671436
-0.506704
-0.383293
-0.247561
-0.0176853
0.418431
0.745409
0.98752
1.91647
5.15186
13.1614
154.066
0.575893
0.319889
0.0511078
-0.0862539
-0.127666
-0.17535
-0.254512
-0.342144
-0.418345
-0.471366
-0.488171
-0.458015
-0.378531
-0.283425
-0.054026
0.189231
0.478465
0.773974
1.28142
18.8916
38.0291
37.4381
26.1371
0.462616
0.384229
0.220968
0.0665723
-0.0146746
-0.0783786
-0.153744
-0.228127
-0.287315
-0.323716
-0.329051
-0.298527
-0.231192
-0.125149
0.0356083
0.232602
0.460633
0.613217
0.728411
9.19962
32.2374
37.4266
30.286
0.370889
0.405871
0.343317
0.210484
0.10024
0.013658
-0.0654496
-0.133219
-0.183275
-0.211976
-0.214436
-0.187519
-0.130691
-0.0444477
0.073126
0.219093
0.367453
0.472976
0.463861
0.392671
1.20003
12.3404
50.4507
0.325506
0.384484
0.363301
0.264661
0.16097
0.0723688
-0.00338785
-0.0641881
-0.107655
-0.132425
-0.13602
-0.11653
-0.0743385
-0.0120337
0.0683077
0.159211
0.240214
0.280103
0.211593
0.139818
1.01672
48.084
129.134
0.306269
0.34392
0.324232
0.254932
0.174015
0.0988684
0.0336866
-0.0186037
-0.0563815
-0.0789104
-0.0849298
-0.073648
-0.0460703
-0.00561257
0.0429818
0.0917562
0.128201
0.135675
0.0840157
0.0565929
1.87048
79.2715
139.743
0.281317
0.291157
0.272251
0.224002
0.164462
0.105645
0.0526007
0.00875274
-0.0240704
-0.0451192
-0.0537973
-0.0500756
-0.0353367
-0.0130446
0.0119284
0.0330554
0.0417121
0.0273983
-0.0315965
-0.110261
1.41975
14.5166
33.7818
0.244158
0.241774
0.226002
0.190864
0.147124
0.101928
0.0594105
0.0228415
-0.0059022
-0.0260103
-0.0372577
-0.0400857
-0.0359901
-0.0279907
-0.0203152
-0.0184795
-0.0303872
-0.0646188
-0.150388
0.45011
4.12832
3.32672
3.95387
0.2062
0.201872
0.187597
0.160677
0.127845
0.092718
0.0584594
0.0277311
0.00215389
-0.0175084
-0.0311696
-0.0394357
-0.043755
-0.0466581
-0.051802
-0.0636972
-0.089727
-0.135681
-0.223149
0.0607493
2.56782
3.3466
3.79835
0.172554
0.168865
0.155501
0.134245
0.108749
0.0808053
0.052756
0.0265148
0.00334151
-0.0161314
-0.0318552
-0.0444009
-0.0550313
-0.0657571
-0.0794529
-0.0997296
-0.131344
-0.176732
-0.24253
-0.228612
2.38796
3.29157
3.76628
0.143094
0.140222
0.128207
0.111091
0.0906166
0.0678092
0.0443374
0.0214931
0.000192808
-0.0190984
-0.0363573
-0.0520501
-0.0671577
-0.083148
-0.102023
-0.126063
-0.157715
-0.197459
-0.24445
-0.210075
2.13836
1.05905
5.1727
0.117512
0.115126
0.104702
0.0906766
0.0737816
0.0547154
0.0346234
0.0143699
-0.00541434
-0.0244266
-0.0426744
-0.0605236
-0.0786834
-0.0981565
-0.120223
-0.146217
-0.177179
-0.213056
-0.250726
-0.244104
0.55453
0.432227
12.3742
0.0954554
0.0932814
0.0843944
0.0727114
0.0584597
0.0421725
0.0246147
0.00637001
-0.0121508
-0.0307789
-0.0495584
-0.0687876
-0.0889939
-0.110894
-0.135338
-0.163191
-0.194924
-0.230087
-0.265767
-0.289481
-0.29771
-0.151478
33.5484
0.0765049
0.0744396
0.0669121
0.0570194
0.0447796
0.0306027
0.0149966
-0.00164824
-0.0190823
-0.0372353
-0.0561946
-0.0762342
-0.0977965
-0.121485
-0.148022
-0.17818
-0.212555
-0.250876
-0.292306
-0.328211
-0.356762
-0.174695
48.9001
0.0603304
0.0583625
0.0519773
0.043466
0.0328015
0.0202746
0.00622537
-0.00909302
-0.0255496
-0.0431449
-0.0620082
-0.0824198
-0.104815
-0.129809
-0.158221
-0.191078
-0.229672
-0.275192
-0.330393
-0.394003
-0.475916
0.427157
55.6343
0.0466618
0.0448103
0.0393519
0.0319288
0.0225282
0.0113371
-0.00141712
-0.0155795
-0.031102
-0.0480393
-0.0665583
-0.0869582
-0.109701
-0.135479
-0.165312
-0.200682
-0.243852
-0.298315
-0.371214
-0.475072
-0.638715
0.0806502
50.0773
0.0352385
0.0335265
0.0288091
0.022268
0.0139098
0.00384378
-0.00778161
-0.0208816
-0.0354627
-0.0516156
-0.0695324
-0.0895281
-0.112086
-0.137959
-0.16832
-0.204995
-0.250928
-0.311157
-0.395764
-0.523584
-0.741551
-0.961063
6.89371
0.0258039
0.0242454
0.0201281
0.0143219
0.0068535
-0.00222812
-0.012825
-0.0249016
-0.0384975
-0.0537222
-0.0707729
-0.0899593
-0.11175
-0.13688
-0.166502
-0.202414
-0.247471
-0.306248
-0.38789
-0.503993
-0.693353
-0.983759
-1.42391
0.0181104
0.0167102
0.0130925
0.00791726
0.00123574
-0.00695345
-0.016581
-0.0276437
-0.0401965
-0.0543519
-0.0702926
-0.0882939
-0.108765
-0.132334
-0.159958
-0.193054
-0.233723
-0.284821
-0.351782
-0.437707
-0.559197
-0.71187
-0.927433
0.0119229
0.010684
0.0074903
0.00287612
-0.00309106
-0.0104485
-0.0191433
-0.0291902
-0.040647
-0.0536153
-0.0682491
-0.0847699
-0.103498
-0.124908
-0.14969
-0.17878
-0.213423
-0.255036
-0.305956
-0.366427
-0.441247
-0.523042
-0.623564
0.00702735
0.00594986
0.00312277
-0.000977245
-0.00628429
-0.012853
-0.0206421
-0.029673
-0.0399978
-0.0516999
-0.0648978
-0.0797531
-0.0964936
-0.115446
-0.137064
-0.161919
-0.190685
-0.224074
-0.263061
-0.307749
-0.359603
-0.415051
-0.474268
0.00324138
0.00231416
-0.000183109
-0.00380628
-0.00849603
-0.0143127
-0.021224
-0.0292493
-0.0384309
-0.0488321
-0.060536
-0.0736501
-0.0883221
-0.104761
-0.123251
-0.144132
-0.167772
-0.194548
-0.224886
-0.258814
-0.296482
-0.336036
-0.374674
0.000405161
-0.0003926
-0.00258101
-0.00576324
-0.00987277
-0.0149755
-0.0210428
-0.0280878
-0.0361413
-0.0452468
-0.0554581
-0.0668394
-0.0794762
-0.0934896
-0.109044
-0.126331
-0.14553
-0.166803
-0.190262
-0.215774
-0.242994
-0.270907
-0.297577
-0.00163048
-0.00231788
-0.00421435
-0.00699027
-0.0105545
-0.0149844
-0.0202483
-0.0263523
-0.0333157
-0.0411642
-0.0499289
-0.0596423
-0.0703451
-0.0820948
-0.0949731
-0.10907
-0.124454
-0.141162
-0.159175
-0.178343
-0.198345
-0.218646
-0.238139
-0.00299968
-0.00358729
-0.0052124
-0.00761324
-0.0106671
-0.0144674
-0.0189745
-0.0241884
-0.0301179
-0.0367739
-0.0441707
-0.0523192
-0.0612295
-0.0709172
-0.0814103
-0.0927388
-0.104916
-0.117929
-0.131735
-0.14622
-0.161164
-0.176244
-0.190786
-0.00381709
-0.00430866
-0.00568662
-0.00774071
-0.0103205
-0.0135361
-0.0173377
-0.0217218
-0.0266875
-0.0322339
-0.038364
-0.0450741
-0.0523558
-0.0601996
-0.0686027
-0.0775637
-0.0870713
-0.0971009
-0.107609
-0.118516
-0.129681
-0.140912
-0.151829
-0.00418377
-0.0045788
-0.00573423
-0.00746883
-0.00961167
-0.0122887
-0.0154394
-0.0190596
-0.0231402
-0.0276716
-0.0326482
-0.0380579
-0.043882
-0.0500987
-0.0566893
-0.0636373
-0.0709226
-0.0785196
-0.0863947
-0.0945
-0.102758
-0.111075
-0.119257
-0.00419327
-0.00448535
-0.00544208
-0.00688422
-0.00862653
-0.0108116
-0.0133678
-0.0162928
-0.0195705
-0.0231854
-0.0271267
-0.0313767
-0.0359129
-0.0407094
-0.0457413
-0.050986
-0.0564218
-0.0620276
-0.0677822
-0.0736646
-0.0796447
-0.0856934
-0.0917284
-0.00392978
-0.00410422
-0.00488779
-0.00606349
-0.00744085
-0.00918064
-0.0111979
-0.0134968
-0.0160538
-0.0188509
-0.0218751
-0.025106
-0.0285205
-0.0320937
-0.0357998
-0.0396153
-0.0435199
-0.0474981
-0.0515408
-0.0556467
-0.059819
-0.0640746
-0.0684112
-0.00346423
-0.00350259
-0.00414162
-0.00507325
-0.00612084
-0.00746043
-0.00899283
-0.0107329
-0.0126503
-0.0147282
-0.0169533
-0.0193045
-0.0217605
-0.0242986
-0.0268954
-0.0295297
-0.0321848
-0.0348504
-0.0375268
-0.0402272
-0.0429786
-0.0458339
-0.0488542
-0.00284641
-0.00273644
-0.00326468
-0.00396849
-0.00472064
-0.00570183
-0.0068016
-0.00804853
-0.00940574
-0.0108617
-0.0124033
-0.0140107
-0.0156659
-0.0173496
-0.0190423
-0.0207275
-0.0223928
-0.0240325
-0.0256531
-0.0272764
-0.0289452
-0.0307385
-0.0327664
-0.0021409
-0.001889
-0.00232443
-0.00280955
-0.00330125
-0.00396483
-0.00468377
-0.00550112
-0.00637451
-0.00730265
-0.00827225
-0.009267
-0.0102729
-0.0112746
-0.0122583
-0.0132128
-0.0141295
-0.015006
-0.0158509
-0.0166886
-0.0175667
-0.0185726
-0.0198441
-0.00128992
-0.000957529
-0.00133476
-0.00160207
-0.00186565
-0.00224076
-0.00262577
-0.00306982
-0.00353115
-0.00401799
-0.00451802
-0.00502094
-0.0055174
-0.00599755
-0.00645377
-0.006879
-0.00726751
-0.0076181
-0.00793838
-0.00824724
-0.00858071
-0.00900621
-0.00964101
-0.00076395
-0.000358471
-0.000515937
-0.000592288
-0.000674088
-0.000801637
-0.000906601
-0.00103724
-0.00115809
-0.00128417
-0.00140542
-0.0015202
-0.00162411
-0.00171258
-0.0017825
-0.00183157
-0.00185863
-0.00186503
-0.00185651
-0.00184403
-0.00184659
-0.001899
-0.00206328
828.985
618.755
479.494
371.592
819.098
545.623
306.698
536.353
878.989
638.447
493.979
385.455
967.508
883.875
462.749
28.1572
799.1
738.449
55.1869
8.93591
691.228
255.887
57.647
12.029
762.063
228.847
70.6739
34.8803
831.916
798.58
195.732
146.753
604.368
847.411
809.338
481.643
101.76
234.127
250.065
120.941
33.3881
35.4263
43.5583
54.7001
63.9132
45.1883
47.2986
134.18
136.305
94.8001
45.6007
175.266
143.84
148.393
114.629
183.699
122.648
191.355
189.806
154.172
5.07736
83.3524
142.888
1.5625
5.49342
33.0229
32.4124
-0.756079
42.2622
88.5071
42.7334
-0.540217
73.7932
92.3181
65.975
-0.593793
89.8419
96.4255
7.72167
-0.641054
93.2757
84.1533
-0.839566
-0.617011
96.1254
25.422
-0.835515
-0.634266
90.1784
-1.2927
-0.942887
-0.615151
47.5273
-1.32865
-0.864338
-0.663193
1.30891
-0.423747
-0.990015
-0.737681
-1.3856
-1.2701
-0.902484
-0.662161
-1.06295
-0.976075
-0.749602
-0.583567
-0.73147
-0.730159
-0.620099
-0.515815
-0.544068
-0.560255
-0.512984
-0.452767
-0.41771
-0.437802
-0.42265
-0.392118
-0.327402
-0.347628
-0.347529
-0.334865
-0.260212
-0.278173
-0.28451
-0.282109
-0.207424
-0.222718
-0.231486
-0.23453
-0.164557
-0.177336
-0.186506
-0.192101
-0.129002
-0.139484
-0.148103
-0.154719
-0.0991006
-0.107613
-0.11545
-0.122542
-0.0739203
-0.0808891
-0.0881335
-0.0957705
-0.0529421
-0.0588027
-0.0657539
-0.0741093
-0.0357934
-0.0408134
-0.047631
-0.0566987
-0.0220556
-0.026237
-0.0329243
-0.0426041
-0.0109819
-0.0143145
-0.0209211
-0.0311784
-0.00251832
-0.00487964
-0.0113594
-0.0220829
919.504
1049.37
1054.46
916.686
518.447
296.673
284.929
277.813
272.422
268.767
268.296
277.913
256.689
258.354
406.801
648.472
763.901
918.353
945.203
668.848
836.107
915.47
789.244
491.108
403.125
367.069
288.455
266.816
264.826
282.087
386.694
283.292
256.224
562.529
735.552
857.4
891.924
896.283
278.324
674.256
707.245
381.643
420.327
557.92
564.659
545.31
361.759
335.675
391.825
343.918
270.935
259.203
628.813
853.181
777.052
866.123
942.66
87.1102
350.524
382.574
205.274
318.549
528.865
538.36
546.668
565.325
563.338
456.633
225.459
228.747
262.829
736.932
906.771
884.332
888.867
1213.94
23.5598
101.846
361.445
118.458
105.111
434.082
519.666
531.872
540.165
498.788
227.693
222.368
234.901
553.662
921.799
929.687
995.032
1069.88
1130.94
17.0131
103.823
650.461
139.555
11.5227
7.94729
317.229
536.052
551.163
296.976
244.109
250.491
260.733
389.587
803.814
885.001
645.042
618.889
1077.49
38.6367
104.791
812.067
412.785
5.44472
4.26253
3.16566
37.5867
269.94
331.443
251.715
259.104
279.161
422.999
633.184
347.81
79.0161
96.7029
537.936
535.176
891.977
930.439
581.486
4.23304
3.70491
3.31301
2.86285
2.14234
33.575
313.528
344.354
352.497
337.734
118.787
7.64962
8.44692
13.9567
27.0709
491.15
711.653
1020.54
907.893
14.336
3.09408
3.01813
2.80279
2.62554
2.43738
2.83978
49.6972
41.3143
2.60681
3.23063
3.86345
4.05242
6.34913
34.1867
108.618
102.464
798.496
971.973
122.167
2.61081
2.59797
2.43603
2.31417
2.18607
2.03893
1.92476
2.17899
2.77444
3.21596
3.36677
3.26465
6.51268
58.6865
100.647
132.753
330.568
1018.03
223.987
2.2717
2.2629
2.11015
1.97468
1.85981
1.79144
1.85205
2.18883
2.74827
3.28857
3.19234
3.11245
5.36194
58.692
146.078
41.5699
52.0931
342.098
150.671
1.78488
1.87126
1.73811
1.61577
1.51239
1.43149
1.40841
1.88572
3.98115
6.59428
4.02703
2.82904
6.21154
23.9079
120.819
-4.37315
-6.02247
-8.37407
2.58876
0.783915
1.10267
1.17628
1.11471
1.06103
0.985096
0.873815
1.36254
8.38462
10.2966
10.2039
2.63877
6.35993
61.9686
30.6309
-2.68987
-3.45843
-4.92699
-2.43782
-0.352306
0.0982923
0.445398
0.583027
0.606892
0.561566
0.409097
0.60956
7.96399
9.88899
10.5613
7.17207
3.95668
170.051
2.73477
-1.49503
-2.6512
-3.12453
-2.51902
-1.57808
-0.96478
-0.373526
-0.00378164
0.156158
0.198209
0.190756
0.0289012
1.36084
9.8941
10.3063
10.1313
1.59664
179.247
8.38651
-1.13641
-2.18112
-2.91589
-3.02777
-2.63068
-1.97151
-1.18188
-0.594074
-0.287142
-0.15878
-0.0190792
-0.0082273
-0.239245
10.1187
8.95353
2.68092
0.347154
188.748
2.7578
-0.704194
-2.33161
-3.2006
-3.55988
-3.34452
-2.67868
-1.79262
-1.05322
-0.640585
-0.459917
-0.387338
-0.303439
-0.432565
8.79753
1.06485
-0.213372
-0.216895
197.555
-0.470599
2.74652
-2.29723
-3.16357
-3.61567
-3.48445
-2.86901
-1.96621
-1.24577
-0.832018
-0.646108
-0.535796
-0.477549
-0.46452
0.613656
-0.406901
-0.282172
-0.302973
205.858
-0.156836
3.30623
-0.294702
-2.57266
-3.09357
-2.99816
-2.46617
-1.77673
-1.21235
-0.881762
-0.717332
-0.606022
-0.525114
-0.475426
-0.460056
-0.405673
-0.330679
-0.353914
214.623
-0.298683
2.152
1.60771
0.802819
-0.039682
-1.71652
-1.74046
-1.3668
-1.03441
-0.830579
-0.705656
-0.612886
-0.534935
-0.473313
-0.427213
-0.402525
-0.35674
-0.382332
223.279
-0.389877
0.360363
1.94071
1.78224
0.955838
-0.832683
-1.13623
-1.01406
-0.862923
-0.745904
-0.653894
-0.5815
-0.517478
-0.458312
-0.379582
-0.320058
-0.36227
-0.387529
230.895
-0.401699
-0.250186
-0.125555
-0.115054
-0.445175
-0.735199
-0.830476
-0.8032
-0.736988
-0.655561
-0.596454
-0.538995
-0.482868
0.34017
0.65076
-0.252107
-0.362934
-0.370794
234.509
-0.472389
-0.339284
-0.307399
-0.373223
-0.499144
-0.612355
-0.669114
-0.669963
-0.628543
-0.583776
-0.538624
-0.491692
-0.441813
1.5867
1.59386
-0.254422
-0.374257
-0.370024
145.335
-0.528533
-0.41998
-0.385575
-0.413468
-0.47576
-0.53832
-0.576109
-0.5811
-0.550393
-0.524036
-0.500533
-0.445928
-0.379058
1.6805
1.12708
-0.369217
-0.40085
-0.0304245
8.10936
-0.561352
-0.470667
-0.435195
-0.439314
-0.465407
-0.496113
-0.517128
-0.507506
-0.494485
-0.474842
-0.458467
-0.413202
-0.303189
1.75203
-0.347191
-0.403507
-0.412661
0.457101
-0.463969
-0.544226
-0.483114
-0.451434
-0.443683
-0.451062
-0.463991
-0.470625
-0.455592
-0.449671
-0.448002
-0.424236
-0.38474
-0.279265
1.80111
-0.311323
-0.427846
-0.416179
0.436405
-0.457117
-0.508738
-0.469944
-0.444758
-0.433128
-0.431778
-0.435343
-0.430372
-0.418201
-0.412769
-0.419396
-0.392978
-0.325013
-0.309082
1.09508
-0.334311
-0.438095
-0.420198
-0.445318
-0.44774
-0.466789
-0.44142
-0.422941
-0.411956
-0.407522
-0.406832
-0.405452
-0.394797
-0.399445
-0.389865
-0.363332
-0.347677
1.16931
-0.284702
-0.386936
-0.428135
-0.43873
-0.43771
-0.437625
-0.420839
-0.404291
-0.391937
-0.383631
-0.379161
-0.376996
-0.37672
-0.376165
-0.372435
-0.361805
-0.337023
-0.177786
1.36102
1.09014
-0.385479
-0.103871
0.109744
-0.412366
-0.427356
-0.37311
-0.363116
-0.355792
-0.350663
-0.347699
-0.34648
-0.346668
-0.347442
-0.346293
-0.338743
-0.320013
-0.225795
1.41609
1.302
-0.189766
3.57766
1.75929
-0.393958
-0.405078
-0.325313
-0.320388
-0.317057
-0.314943
-0.314099
-0.314632
-0.31687
-0.320566
-0.323975
-0.322649
-0.314177
-0.310706
0.797472
0.496667
1.28087
4.84005
2.59868
-0.368386
-0.355062
-0.279092
-0.277852
-0.277487
-0.277893
-0.279313
-0.282339
-0.287866
-0.296159
-0.30593
-0.313397
-0.315935
-0.320866
-0.298454
-0.331769
3.30805
5.07348
3.01115
-0.294394
-0.261973
-0.235527
-0.236708
-0.238434
-0.240848
-0.244509
-0.25067
-0.26063
-0.275048
-0.292623
-0.27056
-0.307976
-0.325729
-0.277878
-0.283529
4.79026
5.30491
2.88854
-0.175383
-0.119801
-0.195351
-0.198003
-0.201168
-0.205153
-0.210996
-0.220746
-0.235695
-0.257165
-0.224739
-0.0693314
-0.175171
-0.331155
-0.316458
3.95395
5.52733
5.55631
1.65441
-0.0173023
0.0472294
-0.159235
-0.162866
-0.167155
-0.17246
-0.180481
-0.193804
-0.213199
-0.228715
-0.030408
-0.0745958
-0.109457
-0.301159
-0.317762
1.89566
5.70404
5.91346
0.627158
0.149203
0.197726
-0.128067
-0.132664
-0.138089
-0.144694
-0.154789
-0.170844
-0.193268
-0.144106
-0.0314286
-0.0866678
-0.141419
-0.225581
-0.300132
-0.182173
2.7488
1.40539
0.191814
0.244998
0.272054
-0.102492
-0.108284
-0.115021
-0.123043
-0.13472
-0.151828
-0.168586
-0.208274
-0.238032
-0.0859612
-0.150692
-0.162819
-0.190092
-0.103943
-0.00547806
0.115904
0.206008
0.24831
0.264604
-0.0821799
-0.0892873
-0.0974262
-0.106882
-0.119404
-0.135802
-0.156971
-0.187585
-0.236452
-0.233559
-0.0990035
-0.111095
-0.03344
-0.0746449
0.0016487
0.110636
0.171538
0.200773
0.212694
-0.0659973
-0.0742643
-0.0836161
-0.0942471
-0.107084
-0.122464
-0.139902
-0.161212
-0.191959
-0.234272
-0.144785
-0.00561024
-0.0387545
-0.100213
-0.00427115
0.072504
0.115977
0.138315
0.147997
-0.0528919
-0.0620578
-0.0723402
-0.083795
-0.0967282
-0.110945
-0.125542
-0.139949
-0.155625
-0.171292
-0.179924
-0.168158
-0.125281
-0.067468
-0.0115881
0.0342726
0.0639012
0.0807518
0.0883119
-0.0423231
-0.0522658
-0.0633919
-0.0756139
-0.0888372
-0.102575
-0.115663
-0.126618
-0.134131
-0.135743
-0.128509
-0.110462
-0.0832165
-0.0505574
-0.0217033
0.00355897
0.020769
0.0306147
0.0350056
-0.0340036
-0.0447303
-0.0568015
-0.0701634
-0.0846073
-0.0992576
-0.1124
-0.121944
-0.125575
-0.119948
-0.104149
-0.0812146
-0.0588436
-0.0413982
-0.0293553
-0.0226269
-0.0203129
-0.0205654
-0.0209269
)
;

boundaryField
{
    leftWall
    {
        type            fixedFluxPressure;
        gradient        uniform 0;
        value           nonuniform List<scalar> 
50
(
714.722
714.265
710.19
702.849
693.402
682.752
671.64
660.973
589.471
247.521
11.65
6.35455
3.25868
1.82914
1.15579
0.84233
0.688869
0.575893
0.462616
0.370889
0.325506
0.306269
0.281317
0.244158
0.2062
0.172554
0.143094
0.117512
0.0954554
0.0765049
0.0603304
0.0466618
0.0352385
0.0258039
0.0181104
0.0119229
0.00702735
0.00324138
0.000405161
-0.00163048
-0.00299968
-0.00381709
-0.00418377
-0.00419327
-0.00392978
-0.00346423
-0.00284641
-0.0021409
-0.00128992
-0.00076395
)
;
    }
    rightWall
    {
        type            fixedFluxPressure;
        gradient        uniform 0;
        value           nonuniform List<scalar> 
50
(
679.293
622.487
590.916
594.856
728.782
858.356
963.85
1018.76
945.203
896.283
942.66
1213.94
1130.94
1077.49
537.936
27.0709
34.1867
58.6865
58.692
23.9079
61.9686
170.051
179.247
188.748
197.555
205.858
214.623
223.279
230.895
234.509
145.335
8.10936
-0.463969
-0.457117
-0.44774
-0.437625
-0.427356
-0.405078
-0.355062
-0.261973
-0.119801
0.0472294
0.197726
0.272054
0.264604
0.212694
0.147997
0.0883119
0.0350056
-0.0209269
)
;
    }
    lowerWall
    {
        type            fixedFluxPressure;
        gradient        uniform 0;
        value           nonuniform List<scalar> 
62
(
714.722
713.203
711.344
710.716
715.263
727.11
744.002
762.355
781.499
801.713
822.855
843.814
863.337
880.035
891.558
894.342
893.194
893.526
895.302
904.15
914.414
917.041
908.719
908.719
905.697
900.516
893.063
883.997
875.566
866.945
855.64
828.985
618.755
479.494
371.592
1339.6
1334.39
1361.76
1418.97
1449.94
1426.76
1344.49
1209.86
1339.6
1301.79
1284.93
1222.56
1194.26
1106.8
943.674
814.743
740.26
704.329
687.687
694.565
703.333
618.06
516.378
442.908
465.841
584.358
679.293
)
;
    }
    atmosphere
    {
        type            totalPressure;
        rho             rho;
        psi             none;
        gamma           1;
        p0              uniform 0;
        value           nonuniform List<scalar> 
46
(
0
0
0
0
0
0
0
0
0
0
0
0
0
0
0
0
0
0
0
0
0
0
0
0
-0.00159867
-0.00779496
-0.0185666
-0.0307582
-0.0418531
-0.0544354
-0.0686264
-0.0843938
-0.100583
-0.114879
-0.124776
-0.12762
-0.119346
-0.0993107
-0.0700547
-0.0430966
-0.0302689
-0.0295912
-0.0353484
-0.0436954
-0.051662
-0.0552555
)
;
    }
    defaultFaces
    {
        type            empty;
    }
}


// ************************************************************************* //
