/*--------------------------------*- C++ -*----------------------------------*\
| =========                 |                                                 |
| \\      /  F ield         | OpenFOAM: The Open Source CFD Toolbox           |
|  \\    /   O peration     | Version:  2206                                  |
|   \\  /    A nd           | Website:  www.openfoam.com                      |
|    \\/     M anipulation  |                                                 |
\*---------------------------------------------------------------------------*/
FoamFile
{
    version     2.0;
    format      ascii;
    arch        "LSB;label=32;scalar=64";
    class       surfaceScalarField;
    location    "0.8";
    object      phi;
}
// * * * * * * * * * * * * * * * * * * * * * * * * * * * * * * * * * * * * * //

dimensions      [0 3 -1 0 0 0 0];

oriented        oriented;

internalField   nonuniform List<scalar> 
4432
(
-4.95543e-06
4.95543e-06
-1.0575e-05
5.61955e-06
-1.6053e-05
5.47803e-06
-2.11992e-05
5.14612e-06
-2.44837e-05
3.28451e-06
-2.43929e-05
-9.0761e-08
-2.22195e-05
-2.17343e-06
-2.02938e-05
-1.92569e-06
-1.94709e-05
-8.22921e-07
-1.95003e-05
2.94044e-08
-2.01026e-05
6.0235e-07
-2.11256e-05
1.023e-06
-2.2219e-05
1.09338e-06
-2.2646e-05
4.26937e-07
-2.20947e-05
-5.5125e-07
-2.29385e-05
8.43801e-07
-2.76091e-05
4.67066e-06
-3.27685e-05
5.15933e-06
-3.17792e-05
-9.89296e-07
-2.45874e-05
-7.19176e-06
-1.50061e-05
-9.58134e-06
-5.34383e-06
-9.66226e-06
-5.34383e-06
-8.02166e-06
1.29771e-05
-1.50495e-05
1.26473e-05
-2.06595e-05
1.10881e-05
-2.47429e-05
9.22952e-06
-2.63666e-05
4.90816e-06
-2.53906e-05
-1.0667e-06
-2.28406e-05
-4.72345e-06
-2.05542e-05
-4.21212e-06
-1.9622e-05
-1.75511e-06
-1.97368e-05
1.442e-07
-2.04632e-05
1.3288e-06
-2.14959e-05
2.05568e-06
-2.28036e-05
2.40104e-06
-2.46867e-05
2.31007e-06
-2.76506e-05
2.41266e-06
-3.11922e-05
4.38536e-06
-3.29298e-05
6.40828e-06
-2.99649e-05
2.19443e-06
-2.32214e-05
-7.73283e-06
-1.58172e-05
-1.45959e-05
-8.79289e-06
-1.66056e-05
-2.38056e-06
-1.60746e-05
-7.72439e-06
-7.88921e-06
2.08663e-05
-1.44061e-05
1.91643e-05
-1.9849e-05
1.65309e-05
-2.43846e-05
1.37651e-05
-2.68731e-05
7.39664e-06
-2.62478e-05
-1.69199e-06
-2.36544e-05
-7.31682e-06
-2.1238e-05
-6.62858e-06
-2.00345e-05
-2.95858e-06
-1.98166e-05
-7.36342e-08
-1.99208e-05
1.43297e-06
-2.00108e-05
2.14563e-06
-2.0131e-05
2.52124e-06
-2.07525e-05
2.93154e-06
-2.22716e-05
3.93178e-06
-2.3462e-05
5.57582e-06
-2.18526e-05
4.79885e-06
-1.70071e-05
-2.65105e-06
-1.1451e-05
-1.3289e-05
-6.73023e-06
-1.93166e-05
-2.42332e-06
-2.09126e-05
1.04824e-06
-1.95461e-05
-6.67615e-06
-6.82669e-06
2.7693e-05
-1.27721e-05
2.51097e-05
-1.81246e-05
2.18834e-05
-2.27349e-05
1.83753e-05
-2.53486e-05
1.00104e-05
-2.51887e-05
-1.85187e-06
-2.33824e-05
-9.12313e-06
-2.17146e-05
-8.29642e-06
-2.07877e-05
-3.88547e-06
-2.05952e-05
-2.66116e-07
-2.06721e-05
1.50987e-06
-2.05084e-05
1.98195e-06
-1.98763e-05
1.88913e-06
-1.88324e-05
1.88758e-06
-1.74268e-05
2.52626e-06
-1.50513e-05
3.2003e-06
-1.11477e-05
8.95236e-07
-7.23187e-06
-6.56687e-06
-4.69805e-06
-1.58228e-05
-2.61024e-06
-2.14044e-05
1.26125e-07
-2.36489e-05
2.92282e-06
-2.23428e-05
-3.75333e-06
-5.44866e-06
3.31416e-05
-1.05918e-05
3.02529e-05
-1.51739e-05
2.64654e-05
-1.88566e-05
2.20581e-05
-2.09253e-05
1.20791e-05
-2.13929e-05
-1.38431e-06
-2.1279e-05
-9.237e-06
-2.14154e-05
-8.15998e-06
-2.14995e-05
-3.80141e-06
-2.15764e-05
-1.89189e-07
-2.17242e-05
1.65762e-06
-2.16084e-05
1.86616e-06
-2.08852e-05
1.16588e-06
-1.93042e-05
3.06573e-07
-1.66099e-05
-1.67979e-07
-1.26719e-05
-7.37726e-07
-8.33515e-06
-3.44152e-06
-5.43971e-06
-9.46228e-06
-4.62036e-06
-1.66422e-05
-3.62022e-06
-2.24046e-05
-7.37673e-07
-2.65315e-05
2.44735e-06
-2.55279e-05
-1.30599e-06
-3.67562e-06
3.68172e-05
-7.54434e-06
3.41216e-05
-1.08336e-05
2.97548e-05
-1.31558e-05
2.43802e-05
-1.44934e-05
1.34168e-05
-1.57311e-05
-1.46634e-07
-1.78614e-05
-7.10669e-06
-2.04489e-05
-5.57251e-06
-2.20147e-05
-2.23565e-06
-2.26031e-05
3.99207e-07
-2.28135e-05
1.86803e-06
-2.26758e-05
1.72844e-06
-2.19357e-05
4.25828e-07
-2.03658e-05
-1.26336e-06
-1.775e-05
-2.7838e-06
-1.41084e-05
-4.37928e-06
-1.03475e-05
-7.20242e-06
-7.9159e-06
-1.18939e-05
-7.04475e-06
-1.75133e-05
-6.10089e-06
-2.33484e-05
-3.67677e-06
-2.89556e-05
-9.06685e-07
-2.8298e-05
-2.21267e-06
-1.67429e-06
3.84915e-05
-4.13605e-06
3.65833e-05
-6.05547e-06
3.16742e-05
-6.83997e-06
2.51647e-05
-7.26059e-06
1.38374e-05
-9.42096e-06
2.01374e-06
-1.45135e-05
-2.01413e-06
-1.95318e-05
-5.54288e-07
-2.24742e-05
7.06818e-07
-2.36542e-05
1.57918e-06
-2.39571e-05
2.17094e-06
-2.37153e-05
1.48668e-06
-2.28344e-05
-4.55111e-07
-2.1156e-05
-2.94176e-06
-1.86062e-05
-5.33355e-06
-1.53341e-05
-7.65143e-06
-1.20522e-05
-1.04843e-05
-9.69749e-06
-1.42485e-05
-8.5238e-06
-1.8687e-05
-8.10483e-06
-2.37674e-05
-7.93064e-06
-2.91298e-05
-6.89644e-06
-2.93322e-05
-9.10911e-06
4.56231e-07
3.80353e-05
3.46561e-07
3.6693e-05
1.133e-06
3.08878e-05
2.61829e-06
2.36794e-05
1.8706e-06
1.45851e-05
-3.80773e-06
7.69208e-06
-1.26877e-05
6.86584e-06
-1.91554e-05
5.91339e-06
-2.26897e-05
4.24111e-06
-2.44849e-05
3.37439e-06
-2.51334e-05
2.81941e-06
-2.49536e-05
1.30689e-06
-2.39578e-05
-1.45086e-06
-2.20475e-05
-4.85207e-06
-1.92946e-05
-8.08648e-06
-1.59489e-05
-1.09971e-05
-1.26059e-05
-1.38273e-05
-1.00146e-05
-1.68399e-05
-8.70308e-06
-1.99985e-05
-9.00141e-06
-2.34691e-05
-1.11446e-05
-2.69866e-05
-1.19055e-05
-2.85713e-05
-2.10146e-05
2.02849e-05
-2.02849e-05
-2.7249e-06
2.30099e-05
-4.80512e-05
4.53263e-05
-6.24731e-05
1.44219e-05
-2.3027e-05
-3.94462e-05
1.62072e-05
-3.92342e-05
2.58979e-05
-9.69063e-06
2.4771e-05
1.12688e-06
1.4058e-05
1.07129e-05
-4.36286e-06
1.84209e-05
-1.80566e-05
1.36937e-05
-2.07926e-05
2.736e-06
-1.90789e-05
-1.71364e-06
-3.66773e-05
1.75984e-05
-5.59484e-05
1.92711e-05
-6.25531e-05
6.60476e-06
-5.60262e-05
-6.52688e-06
-3.2799e-05
-2.32272e-05
-3.2799e-05
-5.64877e-06
-1.46362e-05
-5.0561e-05
6.79221e-05
-7.7415e-05
7.21804e-05
-3.6808e-05
-2.61851e-05
1.22716e-05
-8.85258e-05
2.81799e-05
-5.51424e-05
4.11684e-05
-2.26792e-05
5.03946e-05
-8.09934e-06
5.73135e-05
3.79408e-06
5.59141e-05
1.98202e-05
3.82714e-05
3.13365e-05
-1.43693e-06
4.24443e-05
-3.91814e-05
3.60308e-05
-5.88656e-05
3.72827e-05
-7.01485e-05
3.05539e-05
-7.58858e-05
1.23421e-05
-7.22723e-05
-1.01404e-05
-4.73387e-05
-4.81608e-05
-8.01378e-05
-3.28432e-05
1.82071e-05
-7.29833e-05
0.000108062
-5.72875e-05
5.64846e-05
-6.7946e-06
-7.66781e-05
1.48838e-05
-0.000110204
2.37454e-05
-6.4004e-05
3.14287e-05
-3.03624e-05
3.98924e-05
-1.6563e-05
4.91758e-05
-5.48933e-06
5.83573e-05
1.06387e-05
6.03706e-05
2.93232e-05
4.18933e-05
6.09216e-05
3.69897e-06
7.42251e-05
-2.21319e-05
6.31136e-05
-4.4147e-05
5.25691e-05
-6.09712e-05
2.91663e-05
-5.66943e-05
-1.44173e-05
-3.75391e-05
-6.7316e-05
-0.000117677
-4.78639e-05
6.60709e-05
-7.26053e-05
0.000132803
-3.35018e-05
1.73812e-05
7.92488e-06
-0.000118105
1.31242e-05
-0.000115404
1.9652e-05
-7.05317e-05
2.10263e-05
-3.17367e-05
2.64483e-05
-2.1985e-05
3.53095e-05
-1.43506e-05
4.49368e-05
1.01141e-06
5.55335e-05
1.87264e-05
6.52281e-05
5.1227e-05
5.51286e-05
8.43246e-05
3.30867e-05
8.51555e-05
1.5368e-05
7.02878e-05
1.11789e-06
4.34163e-05
-6.88646e-06
-6.41291e-06
-5.28422e-06
-6.89182e-05
-0.000122961
-5.10422e-05
0.000117113
-6.1223e-05
0.000142984
-1.754e-05
-2.63018e-05
8.20551e-06
-0.00014385
1.08671e-05
-0.000118065
1.35175e-05
-7.31821e-05
8.02249e-06
-2.62417e-05
1.03482e-05
-2.43108e-05
1.89093e-05
-2.29117e-05
2.93154e-05
-9.39464e-06
4.18105e-05
6.23127e-06
6.02306e-05
3.2807e-05
7.64137e-05
6.81414e-05
7.96617e-05
8.19075e-05
7.55933e-05
7.43562e-05
6.40505e-05
5.49591e-05
4.5456e-05
1.21816e-05
2.3486e-05
-4.69481e-05
-9.94752e-05
-4.89609e-05
0.000166074
-4.79821e-05
0.000142005
-1.14973e-05
-6.27867e-05
-1.15492e-06
-0.000154193
5.34954e-06
-0.00012457
6.15182e-06
-7.39844e-05
-5.25126e-06
-1.48386e-05
-7.96023e-06
-2.16018e-05
-6.86661e-07
-3.01853e-05
1.064e-05
-2.07213e-05
2.23221e-05
-5.45086e-06
4.07721e-05
1.43571e-05
6.38764e-05
4.5037e-05
8.41477e-05
6.16362e-05
9.77572e-05
6.07468e-05
9.57145e-05
5.70018e-05
7.48003e-05
3.30958e-05
4.16993e-05
-1.38471e-05
-5.77759e-05
-4.84649e-05
0.000214539
-3.90308e-05
0.000132571
-1.3783e-05
-8.80344e-05
-1.24048e-05
-0.000155571
-8.75931e-07
-0.000136099
1.66955e-06
-7.65299e-05
-8.9704e-06
-4.1987e-06
-1.85135e-05
-1.20587e-05
-2.0314e-05
-2.83848e-05
-2.13766e-05
-1.96586e-05
-8.02005e-06
-1.88074e-05
2.35418e-05
-1.72047e-05
4.20574e-05
2.65215e-05
5.94296e-05
4.4264e-05
8.03787e-05
3.97977e-05
8.99035e-05
4.7477e-05
7.89441e-05
4.40552e-05
4.7798e-05
1.7299e-05
-9.97786e-06
-4.864e-05
0.000263179
-3.64742e-05
0.000120405
-2.35926e-05
-0.000100916
-2.46692e-05
-0.000154494
-5.39616e-06
-0.000155372
4.10117e-06
-8.60272e-05
1.44422e-05
-1.45397e-05
3.2423e-06
-8.58934e-07
-1.34949e-05
-1.16475e-05
-2.02399e-05
-1.29135e-05
-1.2254e-06
-3.7822e-05
3.80108e-05
-5.64409e-05
4.01515e-05
2.43807e-05
3.03493e-05
5.40661e-05
5.10917e-05
1.90553e-05
6.54292e-05
3.31395e-05
6.24494e-05
4.70351e-05
4.13506e-05
3.83978e-05
3.13727e-05
6.47591e-06
3.15594e-05
5.54302e-06
3.76259e-05
7.71929e-07
3.56588e-05
-9.7426e-06
3.41939e-05
-2.39887e-05
2.88312e-05
-3.6899e-05
2.06024e-05
-4.43159e-05
1.42827e-05
-4.81741e-05
9.77161e-06
-5.10113e-05
7.07833e-06
-5.34342e-05
5.7973e-06
-5.50137e-05
4.39892e-06
-5.50407e-05
1.33393e-06
-5.29518e-05
-3.53974e-06
-4.83268e-05
-9.47713e-06
-4.13049e-05
-1.51084e-05
-3.27536e-05
-1.95485e-05
-2.46012e-05
-2.19797e-05
-1.8771e-05
-2.26701e-05
-1.64231e-05
-2.23464e-05
-1.75674e-05
-2.23248e-05
-2.13629e-05
-2.31911e-05
-2.45597e-05
-2.53745e-05
-2.72299e-05
-1.83444e-05
-3.80483e-05
6.96077e-05
-5.55688e-05
5.51464e-05
-7.03758e-05
5.04659e-05
-7.78723e-05
4.16903e-05
-7.75304e-05
2.84893e-05
-7.35461e-05
1.66181e-05
-6.85037e-05
9.24031e-06
-6.29348e-05
4.20276e-06
-5.75187e-05
1.66223e-06
-5.38529e-05
2.13153e-06
-5.2456e-05
3.00198e-06
-5.26762e-05
1.55414e-06
-5.21306e-05
-4.08532e-06
-4.78721e-05
-1.37357e-05
-3.94553e-05
-2.35251e-05
-2.98527e-05
-2.9151e-05
-2.20998e-05
-2.97325e-05
-1.76417e-05
-2.71281e-05
-1.61705e-05
-2.38177e-05
-1.61359e-05
-2.23593e-05
-1.67352e-05
-2.25918e-05
-1.70152e-05
-2.50945e-05
-3.43169e-05
-9.92824e-06
-0.000133985
0.000203593
-0.00016079
8.19508e-05
-0.000165025
5.47014e-05
-0.000154436
3.11016e-05
-0.000144229
1.82816e-05
-0.000140207
1.25966e-05
-0.000136855
5.88847e-06
-0.000129905
-2.74739e-06
-0.000119095
-9.14852e-06
-0.000110001
-6.96178e-06
-0.000105758
-1.24179e-06
-0.000104481
2.77577e-07
-0.000102905
-5.6615e-06
-9.5904e-05
-2.07365e-05
-8.28783e-05
-3.65509e-05
-6.77992e-05
-4.42301e-05
-5.36747e-05
-4.3857e-05
-4.24313e-05
-3.83716e-05
-3.52073e-05
-3.10416e-05
-3.06285e-05
-2.69382e-05
-2.86119e-05
-2.46084e-05
-3.15582e-05
-2.21482e-05
-2.63744e-05
-3.95007e-05
-0.000113457
0.00031705
-0.000207879
0.000176373
-0.000290125
0.000136948
-0.000366455
0.000107431
-0.000427061
7.88875e-05
-0.000462728
4.82641e-05
-0.000472637
1.57969e-05
-0.000462358
-1.30259e-05
-0.000439273
-3.22336e-05
-0.000410763
-3.5472e-05
-0.000384897
-2.71078e-05
-0.000365005
-1.96144e-05
-0.000336677
-3.39897e-05
-0.000293753
-6.36604e-05
-0.000245743
-8.45604e-05
-0.00020033
-8.96431e-05
-0.000160454
-8.37329e-05
-0.000125896
-7.293e-05
-9.88691e-05
-5.80683e-05
-7.84393e-05
-4.7368e-05
-6.42288e-05
-3.88189e-05
-6.39894e-05
-2.23876e-05
-9.74079e-06
-8.06229e-05
-7.61469e-05
0.000393197
-0.000149854
0.00025008
-0.00021094
0.000198034
-0.000265196
0.000161688
-0.000311453
0.000125144
-0.000351633
8.84441e-05
-0.000391846
5.60098e-05
-0.000439094
3.42221e-05
-0.000489845
1.85173e-05
-0.000519008
-6.30854e-06
-0.000515419
-3.06976e-05
-0.000491076
-4.3957e-05
-0.000428368
-9.66978e-05
-0.000365786
-0.000126243
-0.000320633
-0.000129713
-0.000289094
-0.000121182
-0.000261723
-0.000111104
-0.000232484
-0.000102168
-0.000199888
-9.0665e-05
-0.000167613
-7.96426e-05
-0.000137622
-6.88097e-05
-0.000121424
-3.85857e-05
-4.31988e-06
-0.000126845
-4.23635e-05
0.00043556
-8.85616e-05
0.000296278
-0.000115733
0.000225206
-0.00013213
0.000178084
-0.000144704
0.000137719
-0.000161679
0.000105419
-0.00018392
7.82498e-05
-0.000210075
6.03772e-05
-0.000234702
4.31451e-05
-0.000255268
1.42576e-05
-0.0002829
-3.06622e-06
-0.00031939
-7.4667e-06
-0.000331459
-8.46295e-05
-0.000332093
-0.000125608
-0.000325676
-0.000136129
-0.000313558
-0.000133301
-0.000296982
-0.00012768
-0.000278229
-0.000120921
-0.000254231
-0.000114663
-0.000219388
-0.000114486
-0.000191919
-9.62784e-05
-0.00017454
-5.59646e-05
-7.07652e-06
-0.000171784
-1.05528e-05
0.000446113
-4.44261e-05
0.000330152
-5.01105e-05
0.00023089
-4.10239e-05
0.000168997
-2.78666e-05
0.000124561
-2.42819e-05
0.000101834
-3.25938e-05
8.65616e-05
-4.86666e-05
7.64501e-05
-7.01477e-05
6.46262e-05
-0.000102382
4.64922e-05
-0.000136616
3.11671e-05
-0.000156302
1.22193e-05
-0.000216047
-2.48843e-05
-0.000264303
-7.73522e-05
-0.000283248
-0.000117185
-0.000284795
-0.000131754
-0.000271382
-0.000141093
-0.000253104
-0.0001392
-0.000254151
-0.000113616
-0.000243102
-0.000125535
-0.000223807
-0.000115573
-0.000209321
-7.04504e-05
-1.55635e-05
-0.000200834
3.11376e-05
0.000414975
-1.2196e-06
0.000362509
-9.99865e-06
0.000239669
4.8059e-06
0.000154193
2.34105e-05
0.000105957
3.81088e-05
8.7136e-05
4.28826e-05
8.17877e-05
3.97862e-05
7.95466e-05
2.94526e-05
7.49595e-05
1.15473e-05
6.43975e-05
-8.44349e-06
5.11581e-05
-3.12475e-05
3.50234e-05
-5.80449e-05
1.91312e-06
-6.77687e-05
-6.76285e-05
-9.75466e-05
-8.74069e-05
-0.000138049
-9.1251e-05
-0.000149581
-0.000129561
-0.000160219
-0.000128562
-0.000190612
-8.32232e-05
-0.000221883
-9.42631e-05
-0.000239481
-9.79759e-05
-0.000231297
-7.86342e-05
-3.44757e-05
-0.000212385
6.26159e-05
0.00035236
4.97166e-05
0.000375408
3.3502e-05
0.000255884
3.51754e-05
0.00015252
4.693e-05
9.42022e-05
5.8552e-05
7.55135e-05
6.4595e-05
7.57449e-05
6.6449e-05
7.76926e-05
6.49257e-05
7.64828e-05
5.80495e-05
7.12738e-05
4.72804e-05
6.19273e-05
3.15105e-05
5.07935e-05
3.19561e-07
3.31041e-05
-5.39752e-05
-1.3334e-05
-0.000110285
-3.10968e-05
-0.000136712
-6.48242e-05
-0.000156697
-0.000109576
-0.00019058
-9.4679e-05
-0.000202783
-7.10203e-05
-0.00022237
-7.46756e-05
-0.000246829
-7.35175e-05
-0.000250923
-7.45399e-05
-5.0367e-05
-0.000235031
7.56597e-05
0.0002767
9.56589e-05
0.000355409
8.5988e-05
0.000265555
7.63917e-05
0.000162116
7.22513e-05
9.83427e-05
7.05091e-05
7.72561e-05
6.8281e-05
7.79731e-05
6.57769e-05
8.01968e-05
6.42582e-05
7.80018e-05
6.18024e-05
7.373e-05
5.61127e-05
6.7617e-05
4.84669e-05
5.84394e-05
3.71901e-05
4.4381e-05
-2.43222e-06
2.62883e-05
-4.93801e-05
1.58511e-05
-0.00010179
-1.24139e-05
-0.000166317
-4.505e-05
-0.000198793
-6.22031e-05
-0.000202895
-6.69188e-05
-0.000212228
-6.53424e-05
-0.000240561
-4.51845e-05
-0.000273856
-4.12451e-05
-5.24904e-05
-0.000271732
6.44096e-05
0.000212291
0.000107784
0.000312034
0.000116807
0.000256532
0.0001078
0.000171122
9.30439e-05
0.000113099
7.91261e-05
9.1174e-05
6.83833e-05
8.87157e-05
6.01815e-05
8.8399e-05
5.44382e-05
8.37454e-05
5.04342e-05
7.77341e-05
4.55962e-05
7.2455e-05
3.92937e-05
6.47421e-05
3.02714e-05
5.34033e-05
1.20456e-05
4.45142e-05
-1.28109e-05
4.07077e-05
-5.58547e-05
3.06299e-05
-0.000116925
1.602e-05
-0.000173945
-5.18253e-06
-0.000211613
-2.9251e-05
-0.000226819
-5.01365e-05
-0.00022012
-5.18833e-05
-0.000228392
-3.29732e-05
-3.03342e-05
-0.000250548
3.73996e-05
0.000174891
8.75301e-05
0.000261904
0.000112127
0.000231935
0.000111061
0.000172187
9.60174e-05
0.000128143
7.89171e-05
0.000108274
6.55662e-05
0.000102067
5.54321e-05
9.85332e-05
4.70705e-05
9.21071e-05
4.03996e-05
8.44052e-05
3.45827e-05
7.82722e-05
2.79219e-05
7.1403e-05
1.88625e-05
6.24628e-05
6.9256e-06
5.64511e-05
-8.70864e-06
5.6342e-05
-3.41435e-05
5.60649e-05
-7.33642e-05
5.52406e-05
-0.000132403
5.38559e-05
-0.00019872
3.70661e-05
-0.000240025
-8.83105e-06
-0.000235659
-5.62501e-05
-0.000180589
-8.80429e-05
-8.08664e-05
-0.000130057
1.27128e-05
0.000162178
5.65733e-05
0.000218043
8.62068e-05
0.000202302
9.22663e-05
0.000166128
8.31672e-05
0.000137242
7.04375e-05
0.000121004
5.98492e-05
0.000112655
5.13673e-05
0.000107015
4.3389e-05
0.000100086
3.58227e-05
9.19716e-05
2.91715e-05
8.49236e-05
2.21399e-05
7.84347e-05
1.26643e-05
7.19382e-05
8.9657e-07
6.82189e-05
-1.19945e-05
6.92329e-05
-2.79118e-05
7.19822e-05
-4.7804e-05
7.51322e-05
-7.3777e-05
7.98288e-05
-0.000108927
7.22157e-05
-0.000144526
2.67681e-05
-0.000145241
-5.5535e-05
-0.000116156
-0.000117128
-0.000113304
-8.37191e-05
1.74822e-06
0.00016043
3.31341e-05
0.000186657
5.88357e-05
0.0001766
6.7847e-05
0.000157117
6.52742e-05
0.000139815
5.89826e-05
0.000127296
5.28845e-05
0.000118754
4.73888e-05
0.000112511
4.14422e-05
0.000106032
3.47624e-05
9.86513e-05
2.80318e-05
9.16542e-05
2.07261e-05
8.57401e-05
1.12851e-05
8.13791e-05
-2.67677e-07
7.97717e-05
-1.24898e-05
8.14549e-05
-2.51196e-05
8.46122e-05
-3.88507e-05
8.88633e-05
-5.44188e-05
9.53967e-05
-7.71357e-05
9.49327e-05
-0.000105644
5.52762e-05
-0.000117381
-4.3798e-05
-0.00011579
-0.000118719
-0.000124937
-0.000104156
1.10251e-06
0.000159327
2.09537e-05
0.000166806
3.95104e-05
0.000158043
4.8379e-05
0.000148248
5.00689e-05
0.000138125
4.85937e-05
0.000128771
4.61054e-05
0.000121242
4.32119e-05
0.000115405
3.9417e-05
0.000109827
3.43251e-05
0.000103743
2.82205e-05
9.77587e-05
2.10318e-05
9.29288e-05
1.21774e-05
9.02336e-05
1.76022e-06
9.0189e-05
-9.40513e-06
9.26207e-05
-2.10949e-05
9.63019e-05
-3.40947e-05
0.000101863
-5.08223e-05
0.000112124
-7.53934e-05
0.000119504
-0.000102494
8.23771e-05
-0.000124784
-2.15081e-05
-0.000141492
-0.000102011
-0.000130836
-0.000135593
4.0033e-06
0.000155324
1.6129e-05
0.00015468
2.84122e-05
0.000145761
3.59159e-05
0.000140744
3.94088e-05
0.000134632
4.04291e-05
0.000127751
4.0051e-05
0.00012162
3.88389e-05
0.000116617
3.66206e-05
0.000112045
3.30081e-05
0.000107355
2.79258e-05
0.000102841
2.14396e-05
9.94151e-05
1.36569e-05
9.80166e-05
4.90609e-06
9.89397e-05
-4.40736e-06
0.000101934
-1.4272e-05
0.000106167
-2.48939e-05
0.000112485
-3.7825e-05
0.000125055
-5.55382e-05
0.000137217
-7.05265e-05
9.73653e-05
-8.94049e-05
-2.62973e-06
-0.000114745
-7.66702e-05
-0.000121777
-0.000123805
5.69001e-06
0.000149634
1.41358e-05
0.000146235
2.24017e-05
0.000137495
2.84258e-05
0.00013472
3.22244e-05
0.000130834
3.41942e-05
0.000125781
3.48357e-05
0.000120978
3.45565e-05
0.000116896
3.33236e-05
0.000113278
3.08326e-05
0.000109846
2.68826e-05
0.000106791
2.15627e-05
0.000104735
1.52466e-05
0.000104333
8.40513e-06
0.000105781
1.39314e-06
0.000108946
-5.8138e-06
0.000113373
-1.24332e-05
0.000119104
-1.81132e-05
0.000130735
-2.6637e-05
0.000145741
-4.30603e-05
0.000113789
-6.50867e-05
1.93966e-05
-8.7912e-05
-5.38449e-05
-0.000109019
-0.00010067
5.8669e-06
0.000143767
1.27206e-05
0.000139381
1.87852e-05
0.00013143
2.36447e-05
0.00012986
2.71926e-05
0.000127286
2.94199e-05
0.000123554
3.05265e-05
0.000119871
3.07639e-05
0.000116659
3.01505e-05
0.000113891
2.84948e-05
0.000111502
2.56377e-05
0.000109648
2.16735e-05
0.0001087
1.69733e-05
0.000109033
1.1976e-05
0.000110779
7.01061e-06
0.000113911
2.2243e-06
0.000118159
-1.69946e-06
0.000123027
-3.29409e-06
0.00013233
-7.34577e-06
0.000149793
-2.63685e-05
0.000132811
-5.17185e-05
4.47466e-05
-6.62297e-05
-3.93337e-05
-9.51332e-05
-8.01154e-05
5.36471e-06
0.000138402
1.13493e-05
0.000133396
1.62248e-05
0.000126555
2.02874e-05
0.000125798
2.35209e-05
0.000124053
2.57947e-05
0.00012128
2.71564e-05
0.00011851
2.77448e-05
0.00011607
2.7598e-05
0.000114038
2.66312e-05
0.000112468
2.47765e-05
0.000111503
2.21257e-05
0.000111351
1.89443e-05
0.000112214
1.55365e-05
0.000114186
1.21406e-05
0.000117307
8.84466e-06
0.000121455
6.00045e-06
0.000125872
5.32066e-06
0.00013301
4.88365e-06
0.00015023
-1.04437e-05
0.000148139
-3.77415e-05
7.20443e-05
-5.80174e-05
-1.90577e-05
-7.89214e-05
-7.42292e-05
4.76644e-06
0.000133636
1.00816e-05
0.000128082
1.42487e-05
0.000122388
1.78011e-05
0.000122245
2.08036e-05
0.00012105
2.30961e-05
0.000118988
2.46611e-05
0.000116945
2.5568e-05
0.000115163
2.58601e-05
0.000113746
2.55286e-05
0.0001128
2.45777e-05
0.000112454
2.30869e-05
0.000112841
2.12129e-05
0.000114088
1.91197e-05
0.000116279
1.69398e-05
0.000119487
1.47095e-05
0.000123685
1.23209e-05
0.00012826
1.12222e-05
0.000134108
1.30106e-05
0.000148441
4.18231e-06
0.000156967
-2.68365e-05
0.000103063
-5.66083e-05
1.07142e-05
-6.14485e-05
-7.40811e-05
4.27647e-06
0.00012936
8.99894e-06
0.000123359
1.26988e-05
0.000118688
1.59377e-05
0.000119006
1.87983e-05
0.000118189
2.11282e-05
0.000116658
2.28941e-05
0.000115179
2.41291e-05
0.000113928
2.48732e-05
0.000113002
2.51564e-05
0.000112516
2.50188e-05
0.000112591
2.45251e-05
0.000113335
2.37592e-05
0.000114854
2.2793e-05
0.000117245
2.16723e-05
0.000120607
2.03646e-05
0.000124992
1.85147e-05
0.00013011
1.66533e-05
0.00013597
1.77076e-05
0.000147387
1.29618e-05
0.000161713
-1.77213e-05
0.000133746
-5.68428e-05
4.98358e-05
-3.62371e-05
-8.20543e-05
3.91443e-06
0.000125445
8.11518e-06
0.000119158
1.14923e-05
0.000115311
1.45446e-05
0.000115954
1.73274e-05
0.000115406
1.97152e-05
0.00011427
2.16824e-05
0.000113211
2.32479e-05
0.000112362
2.44457e-05
0.000111804
2.5319e-05
0.000111643
2.59192e-05
0.000111991
2.63001e-05
0.000112954
2.65119e-05
0.000114642
2.65841e-05
0.000117173
2.65071e-05
0.000120684
2.61795e-05
0.00012532
2.51467e-05
0.000131143
2.29645e-05
0.000138152
2.16343e-05
0.000148717
1.72213e-05
0.000166126
-1.29236e-05
0.000163891
-5.3711e-05
9.06232e-05
-4.01555e-06
-8.59325e-05
3.6531e-06
0.000121792
7.41456e-06
0.000115397
1.05648e-05
0.000112161
1.35062e-05
0.000113013
1.62522e-05
0.00011266
1.87104e-05
0.000111812
2.08694e-05
0.000111052
2.27471e-05
0.000110485
2.4375e-05
0.000110177
2.57984e-05
0.00011022
2.70714e-05
0.000110718
2.82472e-05
0.000111779
2.93724e-05
0.000113517
3.04746e-05
0.000116071
3.15407e-05
0.000119618
3.24639e-05
0.000124396
3.28638e-05
0.000130743
3.19283e-05
0.000139087
2.99461e-05
0.000150699
2.58213e-05
0.00017025
-1.16078e-06
0.000190873
-4.83191e-05
0.000137782
3.05513e-05
-8.2886e-05
3.46093e-06
0.000118331
6.87037e-06
0.000111987
9.85864e-06
0.000109173
1.27303e-05
0.000110141
1.54636e-05
0.000109927
1.79959e-05
0.000109279
2.03292e-05
0.000108719
2.2486e-05
0.000108328
2.45005e-05
0.000108162
2.64203e-05
0.0001083
2.83041e-05
0.000108835
3.0215e-05
0.000109868
3.22185e-05
0.000111513
3.43756e-05
0.000113914
3.67315e-05
0.000117262
3.92886e-05
0.000121839
4.19374e-05
0.000128094
4.43044e-05
0.00013672
4.61865e-05
0.000148817
4.90926e-05
0.000167344
4.25385e-05
0.000197427
-4.84464e-06
0.000185165
7.76897e-05
-5.19831e-05
3.31192e-06
0.000115019
6.44995e-06
0.00010885
9.31889e-06
0.000106304
1.21417e-05
0.000107318
1.48737e-05
0.000107195
1.74761e-05
0.000106677
1.99611e-05
0.000106234
2.23573e-05
0.000105932
2.47047e-05
0.000105815
2.70566e-05
0.000105948
2.94806e-05
0.000106411
3.20569e-05
0.000107291
3.48819e-05
0.000108688
3.80715e-05
0.000110724
4.17693e-05
0.000113564
4.61645e-05
0.000117444
5.15303e-05
0.000122728
5.8304e-05
0.000129946
6.72612e-05
0.000139859
8.14217e-05
0.000153184
0.000105025
0.000173824
0.000100739
0.00018945
0.000113694
6.47356e-05
3.18825e-06
0.000111831
6.12025e-06
0.000105918
8.89588e-06
0.000103528
1.16782e-05
0.000104535
1.44108e-05
0.000104462
1.70717e-05
0.000104016
1.96814e-05
0.000103624
2.22737e-05
0.00010334
2.48947e-05
0.000103194
2.76045e-05
0.000103238
3.04808e-05
0.000103535
3.36213e-05
0.000104151
3.71513e-05
0.000105158
4.12366e-05
0.000106639
4.61082e-05
0.000108693
5.21087e-05
0.000111444
5.97863e-05
0.000115051
7.00578e-05
0.000119675
8.45334e-05
0.000125384
0.000105712
0.000132006
0.000142078
0.000137457
0.000182106
0.000149422
0.000109457
0.000186343
3.07837e-06
0.000108753
5.85235e-06
0.000103144
8.5484e-06
0.000100832
1.12902e-05
0.000101793
1.40168e-05
0.000101736
1.67182e-05
0.000101314
1.94205e-05
0.000100921
2.21617e-05
0.000100598
2.49919e-05
0.000100363
2.79762e-05
0.000100253
3.11988e-05
0.000100312
3.47673e-05
0.000100583
3.88223e-05
0.000101103
4.35521e-05
0.000101909
4.92187e-05
0.000103026
5.62012e-05
0.000104461
6.50713e-05
0.000106181
7.66823e-05
0.000108064
9.23813e-05
0.000109685
0.00011367
0.000110718
0.000143768
0.000107359
0.000187752
0.000105438
8.29628e-05
0.000214247
2.97439e-06
0.000105779
5.62303e-06
0.000100495
8.2448e-06
9.82103e-05
1.09398e-05
9.90983e-05
1.36473e-05
9.90283e-05
1.63653e-05
9.85959e-05
1.91239e-05
9.81629e-05
2.19629e-05
9.77594e-05
2.4934e-05
9.73921e-05
2.81033e-05
9.7084e-05
3.15552e-05
9.68604e-05
3.53969e-05
9.6741e-05
3.97657e-05
9.67346e-05
4.48402e-05
9.68349e-05
5.08566e-05
9.70099e-05
5.81303e-05
9.71876e-05
6.70844e-05
9.7227e-05
7.82662e-05
9.68825e-05
9.23275e-05
9.56239e-05
0.000110065
9.29802e-05
0.000130973
8.6451e-05
0.000159616
7.67942e-05
5.88913e-05
0.000183687
2.87156e-06
0.000102907
5.4145e-06
9.79525e-05
7.96235e-06
9.56623e-05
1.05995e-05
9.64611e-05
1.327e-05
9.63577e-05
1.59774e-05
9.58882e-05
1.87531e-05
9.53871e-05
2.16373e-05
9.48751e-05
2.46801e-05
9.43492e-05
2.79447e-05
9.38194e-05
3.15099e-05
9.32951e-05
3.54737e-05
9.27773e-05
3.99568e-05
9.22516e-05
4.51085e-05
9.16832e-05
5.11131e-05
9.10055e-05
5.81939e-05
9.01069e-05
6.66129e-05
8.88083e-05
7.66606e-05
8.68349e-05
8.85579e-05
8.37265e-05
0.000102592
7.89463e-05
0.000117797
7.12456e-05
0.00013471
5.9881e-05
4.40459e-05
0.000149555
2.76869e-06
0.000100138
5.21384e-06
9.55074e-05
7.685e-06
9.31907e-05
1.02504e-05
9.38957e-05
1.28639e-05
9.37439e-05
1.55318e-05
9.32201e-05
1.82854e-05
9.26335e-05
2.11631e-05
9.19975e-05
2.42115e-05
9.13009e-05
2.74878e-05
9.05431e-05
3.10616e-05
8.97213e-05
3.50167e-05
8.88223e-05
3.9452e-05
8.78165e-05
4.44829e-05
8.66524e-05
5.02414e-05
8.52472e-05
5.68725e-05
8.3476e-05
6.45231e-05
8.11578e-05
7.33217e-05
7.80365e-05
8.32971e-05
7.37511e-05
9.43879e-05
6.78554e-05
0.000105905
5.97281e-05
0.000116986
4.88005e-05
3.50551e-05
0.000125977
2.66754e-06
9.74708e-05
5.01278e-06
9.3162e-05
7.40112e-06
9.08022e-05
9.88023e-06
9.14167e-05
1.24163e-05
9.12077e-05
1.50167e-05
9.06198e-05
1.77111e-05
8.99392e-05
2.05348e-05
8.9174e-05
2.35293e-05
8.83065e-05
2.67443e-05
8.73282e-05
3.02386e-05
8.62271e-05
3.40805e-05
8.49807e-05
3.83464e-05
8.35508e-05
4.31205e-05
8.18784e-05
4.84908e-05
7.9877e-05
5.45418e-05
7.74252e-05
6.13406e-05
7.43592e-05
6.89119e-05
7.04653e-05
7.71864e-05
6.54765e-05
8.5957e-05
5.90847e-05
9.47273e-05
5.09577e-05
0.000102728
4.07999e-05
2.8744e-05
0.000109039
2.57121e-06
9.48997e-05
4.80711e-06
9.09258e-05
7.10166e-06
8.85077e-05
9.4799e-06
8.90383e-05
1.19193e-05
8.87683e-05
1.44265e-05
8.81128e-05
1.70289e-05
8.73369e-05
1.97577e-05
8.64454e-05
2.26484e-05
8.54159e-05
2.57428e-05
8.42339e-05
2.90884e-05
8.28817e-05
3.27383e-05
8.13312e-05
3.67487e-05
7.95406e-05
4.11773e-05
7.74501e-05
4.60769e-05
7.49776e-05
5.14878e-05
7.20144e-05
5.74244e-05
6.84228e-05
6.38543e-05
6.40354e-05
7.0669e-05
5.86618e-05
7.76514e-05
5.21023e-05
8.44328e-05
4.41763e-05
9.04861e-05
3.47467e-05
2.39884e-05
9.52417e-05
2.48162e-06
9.2418e-05
4.59508e-06
8.8812e-05
6.77931e-06
8.63235e-05
9.04216e-06
8.67752e-05
1.13672e-05
8.64432e-05
1.37588e-05
8.57214e-05
1.62417e-05
8.4854e-05
1.88425e-05
8.38446e-05
2.15907e-05
8.26679e-05
2.452e-05
8.13049e-05
2.76671e-05
7.97349e-05
3.10713e-05
7.79274e-05
3.47717e-05
7.58404e-05
3.88045e-05
7.34173e-05
4.31974e-05
7.05848e-05
4.79614e-05
6.72505e-05
5.30813e-05
6.33031e-05
5.8501e-05
5.86158e-05
6.41072e-05
5.30556e-05
6.97125e-05
4.6497e-05
7.5041e-05
3.88479e-05
7.97294e-05
3.00582e-05
2.02936e-05
8.34242e-05
2.39759e-06
9.00201e-05
4.37496e-06
8.68344e-05
6.42799e-06
8.42703e-05
8.56011e-06
8.46428e-05
1.07542e-05
8.42492e-05
1.30107e-05
8.34649e-05
1.53517e-05
8.2513e-05
1.77991e-05
8.13974e-05
2.03765e-05
8.00907e-05
2.31101e-05
7.85717e-05
2.60268e-05
7.68185e-05
2.91542e-05
7.48003e-05
3.25174e-05
7.24772e-05
3.61367e-05
6.9798e-05
4.00223e-05
6.66991e-05
4.41685e-05
6.31044e-05
4.85458e-05
5.89259e-05
5.30922e-05
5.40696e-05
5.77042e-05
4.84437e-05
6.22301e-05
4.19711e-05
6.64695e-05
3.46085e-05
7.01816e-05
2.63461e-05
1.73161e-05
7.31591e-05
2.31479e-06
8.77052e-05
4.14322e-06
8.50058e-05
6.04174e-06
8.23714e-05
8.0262e-06
8.26583e-05
1.00729e-05
8.22024e-05
1.21764e-05
8.13615e-05
1.43562e-05
8.03334e-05
1.66298e-05
7.91241e-05
1.90158e-05
7.7705e-05
2.15333e-05
7.60544e-05
2.42012e-05
7.41508e-05
2.70373e-05
7.19643e-05
3.0056e-05
6.94584e-05
3.32659e-05
6.65879e-05
3.66661e-05
6.32988e-05
4.02418e-05
5.95288e-05
4.39584e-05
5.52095e-05
4.77571e-05
5.02711e-05
5.15504e-05
4.46504e-05
5.52218e-05
3.82997e-05
5.86316e-05
3.11988e-05
6.16253e-05
2.33525e-05
1.48575e-05
6.40839e-05
2.22665e-06
8.54784e-05
3.89468e-06
8.33375e-05
5.61422e-06
8.06517e-05
7.43215e-06
8.08403e-05
9.31394e-06
8.03206e-05
1.12459e-05
7.94298e-05
1.32455e-05
7.8334e-05
1.53264e-05
7.70434e-05
1.7503e-05
7.55286e-05
1.97886e-05
7.3769e-05
2.21952e-05
7.17441e-05
2.47331e-05
6.94263e-05
2.74084e-05
6.67829e-05
3.02217e-05
6.37745e-05
3.3165e-05
6.03557e-05
3.62187e-05
5.64753e-05
3.93484e-05
5.208e-05
4.25018e-05
4.71177e-05
4.56081e-05
4.15441e-05
4.85801e-05
3.53277e-05
5.13212e-05
2.84577e-05
5.37313e-05
2.09423e-05
1.28506e-05
5.57381e-05
2.12451e-06
8.33538e-05
3.62364e-06
8.1838e-05
5.13968e-06
7.91356e-05
6.7705e-06
7.92096e-05
8.46721e-06
7.8624e-05
1.02071e-05
7.76902e-05
1.2006e-05
7.65353e-05
1.38739e-05
7.51757e-05
1.5822e-05
7.35805e-05
1.78587e-05
7.17323e-05
1.99907e-05
6.9612e-05
2.22222e-05
6.71947e-05
2.45532e-05
6.44519e-05
2.69782e-05
6.13496e-05
2.94847e-05
5.78494e-05
3.20509e-05
5.39092e-05
3.46438e-05
4.94871e-05
3.72178e-05
4.45436e-05
3.97153e-05
3.90465e-05
4.20699e-05
3.29732e-05
4.42123e-05
2.63153e-05
4.60737e-05
1.90808e-05
1.13205e-05
4.76037e-05
1.99913e-06
8.13544e-05
3.32336e-06
8.05136e-05
4.61381e-06
7.78454e-05
6.03713e-06
7.77864e-05
7.52624e-06
7.71352e-05
9.05225e-06
7.61644e-05
1.06284e-05
7.49593e-05
1.22616e-05
7.35425e-05
1.39605e-05