/*--------------------------------*- C++ -*----------------------------------*\
| =========                 |                                                 |
| \\      /  F ield         | OpenFOAM: The Open Source CFD Toolbox           |
|  \\    /   O peration     | Version:  2206                                  |
|   \\  /    A nd           | Website:  www.openfoam.com                      |
|    \\/     M anipulation  |                                                 |
\*---------------------------------------------------------------------------*/
FoamFile
{
    version     2.0;
    format      ascii;
    arch        "LSB;label=32;scalar=64";
    class       volVectorField;
    location    "0.8";
    object      U;
}
// * * * * * * * * * * * * * * * * * * * * * * * * * * * * * * * * * * * * * //

dimensions      [0 1 -1 0 0 0 0];

internalField   nonuniform List<vector> 
2268
(
(-0.0266853 0.0118603 0)
(-0.0896344 0.0155229 0)
(-0.154207 0.0155039 0)
(-0.217826 0.0150494 0)
(-0.269866 0.010285 0)
(-0.285854 0.000951174 0)
(-0.264354 -0.00523438 0)
(-0.239666 -0.00461959 0)
(-0.224439 -0.00197687 0)
(-0.220607 9.43504e-05 0)
(-0.224053 0.00197715 0)
(-0.23382 0.00326331 0)
(-0.247317 0.00272206 0)
(-0.258056 -0.0020436 0)
(-0.255563 -0.00905036 0)
(-0.248505 -0.00411262 0)
(-0.277865 0.0172614 0)
(-0.35689 0.0251007 0)
(-0.397487 0.00607161 0)
(-0.329191 -0.0224894 0)
(-0.21952 -0.034984 0)
(-0.111092 -0.0355815 0)
(-0.0276009 -0.0194213 0)
(-0.0503746 0.0471849 0)
(-0.136626 0.0490558 0)
(-0.208156 0.0446073 0)
(-0.268355 0.0387131 0)
(-0.301294 0.0223025 0)
(-0.297019 -0.00238114 0)
(-0.274743 -0.0178145 0)
(-0.244377 -0.0161131 0)
(-0.226131 -0.00683076 0)
(-0.222167 0.000598025 0)
(-0.228033 0.00549157 0)
(-0.23826 0.00891588 0)
(-0.251411 0.0100388 0)
(-0.268241 0.00721781 0)
(-0.293436 0.00407705 0)
(-0.334308 0.0154032 0)
(-0.377373 0.0348737 0)
(-0.382821 0.0244637 0)
(-0.310808 -0.0200494 0)
(-0.2148 -0.0625392 0)
(-0.135308 -0.0776002 0)
(-0.0577332 -0.077309 0)
(-0.0073084 -0.0423687 0)
(-0.0531421 0.0904672 0)
(-0.131067 0.0853299 0)
(-0.197237 0.0740576 0)
(-0.260478 0.061406 0)
(-0.302243 0.0323395 0)
(-0.307157 -0.00817428 0)
(-0.283609 -0.0336285 0)
(-0.253766 -0.0301267 0)
(-0.23284 -0.0128774 0)
(-0.225678 0.000595515 0)
(-0.226248 0.00780831 0)
(-0.227662 0.0121075 0)
(-0.228096 0.0147969 0)
(-0.230765 0.0168201 0)
(-0.241823 0.0207743 0)
(-0.261737 0.0296759 0)
(-0.272522 0.0303216 0)
(-0.237358 -0.00461044 0)
(-0.159882 -0.0617213 0)
(-0.096543 -0.0955537 0)
(-0.0479932 -0.104057 0)
(-0.00523972 -0.0977409 0)
(0.0248897 -0.0441621 0)
(-0.0470344 0.131178 0)
(-0.112703 0.119257 0)
(-0.176691 0.103213 0)
(-0.241596 0.0857322 0)
(-0.285132 0.044785 0)
(-0.290322 -0.0120322 0)
(-0.273837 -0.047957 0)
(-0.256797 -0.0428528 0)
(-0.241754 -0.0195221 0)
(-0.234708 -0.00121287 0)
(-0.235325 0.007757 0)
(-0.235769 0.0111251 0)
(-0.231335 0.0124017 0)
(-0.221484 0.0146168 0)
(-0.207149 0.0207311 0)
(-0.186704 0.0281778 0)
(-0.155352 0.0196066 0)
(-0.108069 -0.021899 0)
(-0.0633286 -0.0758148 0)
(-0.0405407 -0.107873 0)
(-0.0127548 -0.117783 0)
(0.0145446 -0.111742 0)
(0.0453357 -0.0297552 0)
(-0.0374552 0.165345 0)
(-0.0905237 0.15001 0)
(-0.148061 0.131343 0)
(-0.203065 0.109898 0)
(-0.236662 0.0593031 0)
(-0.238065 -0.00998849 0)
(-0.236573 -0.0527112 0)
(-0.245623 -0.0468648 0)
(-0.247721 -0.0221003 0)
(-0.245732 -0.00149063 0)
(-0.246955 0.00876285 0)
(-0.248156 0.0105613 0)
(-0.244037 0.00832422 0)
(-0.231651 0.00607606 0)
(-0.207629 0.00696461 0)
(-0.168707 0.00776176 0)
(-0.119536 -0.0061349 0)
(-0.0754734 -0.0440156 0)
(-0.0536418 -0.0879271 0)
(-0.0506859 -0.117722 0)
(-0.0249008 -0.133889 0)
(0.00339075 -0.13028 0)
(0.0467011 -0.0124457 0)
(-0.0254705 0.190771 0)
(-0.0617567 0.174444 0)
(-0.106925 0.152024 0)
(-0.145136 0.125226 0)
(-0.164637 0.0675558 0)
(-0.162475 -0.00647959 0)
(-0.181215 -0.0461415 0)
(-0.223913 -0.0394497 0)
(-0.248949 -0.0177555 0)
(-0.256817 -0.000351172 0)
(-0.259617 0.0091269 0)
(-0.26046 0.00951616 0)
(-0.255931 0.00425805 0)
(-0.243364 -0.0026459 0)
(-0.219927 -0.0084598 0)
(-0.183114 -0.0152354 0)
(-0.138289 -0.0310628 0)
(-0.100767 -0.0598517 0)
(-0.0838125 -0.0934144 0)
(-0.0774321 -0.124459 0)
(-0.0533415 -0.152708 0)
(-0.0389764 -0.148371 0)
(0.0153342 0.00193418 0)
(-0.0109661 0.206668 0)
(-0.029917 0.191894 0)
(-0.0615056 0.167688 0)
(-0.0806183 0.137369 0)
(-0.0827696 0.0781872 0)
(-0.0764907 0.00517905 0)
(-0.12663 -0.0312558 0)
(-0.204435 -0.0222403 0)
(-0.248505 -0.00643883 0)
(-0.26752 0.00514493 0)
(-0.273263 0.0118215 0)
(-0.273142 0.00977812 0)
(-0.266844 0.000668316 0)
(-0.252422 -0.0110862 0)
(-0.228513 -0.0221095 0)
(-0.194578 -0.0329866 0)
(-0.155329 -0.0481835 0)
(-0.121845 -0.0705298 0)
(-0.102883 -0.0977306 0)
(-0.0923623 -0.128757 0)
(-0.0840982 -0.160921 0)
(-0.103071 -0.157178 0)
(-0.0666977 -0.0236202 0)
(0.00147772 0.210576 0)
(0.00574121 0.204719 0)
(0.00484564 0.174169 0)
(0.0176596 0.133886 0)
(0.0343794 0.0742048 0)
(0.0154714 0.0211646 0)
(-0.0965712 0.0150122 0)
(-0.198101 0.0190279 0)
(-0.246401 0.0147243 0)
(-0.273635 0.0122249 0)
(-0.285984 0.0114712 0)
(-0.287688 0.00629084 0)
(-0.280468 -0.00522884 0)
(-0.263658 -0.0203506 0)
(-0.237132 -0.0352766 0)
(-0.201973 -0.0491174 0)
(-0.162485 -0.0643063 0)
(-0.127356 -0.0831256 0)
(-0.104797 -0.104864 0)
(-0.0946003 -0.128707 0)
(-0.102188 -0.152698 0)
(-0.150227 -0.1602 0)
(-0.145214 -0.0920726 0)
(0.0898384 -0.111448 0)
(0.295282 -0.0489185 0)
(-0.331373 0.150206 0)
(-0.855735 0.0963036 0)
(-0.531284 -0.0851599 0)
(0.0725979 -0.143329 0)
(0.252269 0.0112635 0)
(0.297686 0.0661289 0)
(0.269693 0.11957 0)
(0.0686738 0.103052 0)
(-0.173269 -0.0361243 0)
(-0.213469 -0.101504 0)
(-0.194367 -0.0143193 0)
(-0.300546 0.116565 0)
(-0.573625 0.10602 0)
(-0.729392 0.0485501 0)
(-0.693618 -0.00502226 0)
(-0.508675 -0.0474042 0)
(-0.191241 -0.0615298 0)
(0.0106969 -0.18812 0)
(-0.16748 0.275746 0)
(-0.957537 0.375851 0)
(-0.874103 0.0239724 0)
(0.0946237 -0.428802 0)
(0.201938 -0.334811 0)
(0.376063 -0.156824 0)
(0.518508 -0.0577589 0)
(0.633311 0.0218326 0)
(0.666401 0.121262 0)
(0.578519 0.192341 0)
(0.361937 0.158084 0)
(-0.371555 0.0316315 0)
(-0.617389 0.13039 0)
(-0.771988 0.101077 0)
(-0.857108 0.0150154 0)
(-0.878808 -0.0791246 0)
(-0.695931 -0.243357 0)
(-0.284108 -0.351207 0)
(-0.138616 0.00405605 0)
(-0.653804 0.554832 0)
(-1.06554 0.418105 0)
(-0.222985 -0.321074 0)
(0.11826 -0.625494 0)
(0.196081 -0.372306 0)
(0.304115 -0.166295 0)
(0.399499 -0.0717885 0)
(0.502309 0.0106371 0)
(0.618241 0.0910541 0)
(0.697881 0.183943 0)
(0.735314 0.323903 0)
(0.266074 0.330433 0)
(-0.236834 0.268352 0)
(-0.324396 0.225644 0)
(-0.709335 0.100455 0)
(-0.716236 -0.105619 0)
(-0.513437 -0.429722 0)
(-0.168319 -0.665192 0)
(-0.32784 0.271967 0)
(-0.87331 0.731456 0)
(-0.825 0.251733 0)
(0.12925 -0.610998 0)
(0.0569007 -0.684228 0)
(0.201665 -0.402082 0)
(0.231251 -0.186167 0)
(0.256586 -0.11796 0)
(0.338934 -0.0600623 0)
(0.460373 0.0383559 0)
(0.559496 0.142439 0)
(0.738583 0.345861 0)
(0.77871 0.514228 0)
(0.445183 0.47094 0)
(0.253571 0.371803 0)
(0.07757 0.213393 0)
(-0.0880695 -0.0953185 0)
(-0.0575609 -0.422328 0)
(0.0439652 -0.775134 0)
(-0.427734 0.553562 0)
(-0.893712 0.829989 0)
(-0.472706 -0.0139102 0)
(0.133356 -0.801649 0)
(0.0471383 -0.689473 0)
(0.163004 -0.425545 0)
(0.138654 -0.183365 0)
(0.0764522 -0.141825 0)
(0.14465 -0.118011 0)
(0.276572 -0.0284453 0)
(0.39904 0.0904765 0)
(0.567441 0.271372 0)
(0.829388 0.498504 0)
(0.904637 0.559314 0)
(0.890333 0.491076 0)
(0.799706 0.331932 0)
(0.638669 0.0416378 0)
(0.434382 -0.320447 0)
(0.24534 -0.641823 0)
(-0.464638 0.839832 0)
(-0.805216 0.86439 0)
(-0.187993 -0.281171 0)
(-0.0424467 -0.898597 0)
(-0.0069412 -0.709602 0)
(0.0998103 -0.468012 0)
(0.0481098 -0.206432 0)
(-0.125113 -0.198533 0)
(-0.0780488 -0.217321 0)
(0.0627518 -0.141414 0)
(0.176949 -0.044337 0)
(0.343182 0.0797295 0)
(0.602352 0.291961 0)
(0.85729 0.42205 0)
(1.05625 0.429064 0)
(1.14595 0.367392 0)
(1.01375 0.153308 0)
(0.720669 -0.170667 0)
(0.380927 -0.440461 0)
(-0.503116 1.12417 0)
(-0.69478 0.827486 0)
(-0.10319 -0.477675 0)
(-0.194778 -0.92297 0)
(-0.148865 -0.781973 0)
(0.0513252 -0.493635 0)
(0.0547632 -0.0566459 0)
(-0.215233 -0.129204 0)
(-0.235719 -0.170972 0)
(-0.248177 -0.0883124 0)
(-0.24051 0.00751218 0)
(0.124284 0.090614 0)
(0.377743 0.210876 0)
(0.578575 0.279841 0)
(0.786435 0.287173 0)
(1.02019 0.316613 0)
(1.03333 0.259114 0)
(0.80015 0.0365973 0)
(0.41904 -0.195502 0)
(-0.472024 1.4098 0)
(-0.622517 0.783436 0)
(-0.189558 -0.577582 0)
(-0.328715 -0.925655 0)
(-0.348659 -0.881902 0)
(0.0646791 -0.43089 0)
(0.205156 0.0555255 0)
(0.123396 0.042488 0)
(-0.0632494 -0.0907877 0)
(-0.247023 -0.0826768 0)
(-0.138987 -0.175893 0)
(0.181933 -0.255001 0)
(0.483636 0.165362 0)
(0.387523 0.277411 0)
(0.418451 0.164438 0)
(0.710902 0.229253 0)
(0.811628 0.268804 0)
(0.656455 0.171597 0)
(0.3659 0.0742896 0)
(0.0232012 0.16483 0)
(0.0385369 0.166905 0)
(0.0246569 0.143773 0)
(-0.0149238 0.131503 0)
(-0.0892202 0.113301 0)
(-0.167594 0.0905198 0)
(-0.221274 0.0710375 0)
(-0.251029 0.04962 0)
(-0.266638 0.035837 0)
(-0.281076 0.0297969 0)
(-0.293275 0.0235655 0)
(-0.298204 0.00896958 0)
(-0.291404 -0.0147402 0)
(-0.272531 -0.0413573 0)
(-0.242176 -0.0657305 0)
(-0.199988 -0.0863527 0)
(-0.153032 -0.102302 0)
(-0.113872 -0.113382 0)
(-0.0921332 -0.119622 0)
(-0.0848857 -0.12524 0)
(-0.0947906 -0.132378 0)
(-0.136884 -0.137442 0)
(-0.14717 -0.126975 0)
(-0.230537 0.18321 0)
(-0.22601 0.2094 0)
(-0.347073 0.205874 0)
(-0.401607 0.197197 0)
(-0.421123 0.159589 0)
(-0.407852 0.109682 0)
(-0.381974 0.0764262 0)
(-0.351921 0.0531006 0)
(-0.321 0.0379045 0)
(-0.295475 0.0304091 0)
(-0.283146 0.0226223 0)
(-0.281611 0.00672486 0)
(-0.281477 -0.0205508 0)
(-0.26925 -0.061323 0)
(-0.235933 -0.105091 0)
(-0.186969 -0.133863 0)
(-0.138272 -0.141666 0)
(-0.10411 -0.135222 0)
(-0.0896827 -0.122636 0)
(-0.0849652 -0.115443 0)
(-0.0850838 -0.118092 0)
(-0.0971246 -0.136887 0)
(-0.0848522 -0.178357 0)
(-0.730877 0.688083 0)
(-0.846585 0.340825 0)
(-0.881327 0.270077 0)
(-0.84084 0.180857 0)
(-0.790374 0.10392 0)
(-0.759613 0.0445586 0)
(-0.747099 0.00746625 0)
(-0.718578 -0.015777 0)
(-0.667848 -0.0231573 0)
(-0.610391 -0.0119239 0)
(-0.573657 0.00578543 0)
(-0.564658 0.0105366 0)
(-0.556812 -0.0139 0)
(-0.527924 -0.0564266 0)
(-0.47769 -0.0997789 0)
(-0.410595 -0.131548 0)
(-0.331163 -0.141419 0)
(-0.258265 -0.132775 0)
(-0.204193 -0.120286 0)
(-0.172904 -0.116495 0)
(-0.155943 -0.114204 0)
(-0.158893 -0.119224 0)
(-0.164939 -0.166905 0)
(-0.537398 1.35942 0)
(-0.865449 0.624873 0)
(-1.31383 0.430268 0)
(-1.77698 0.267613 0)
(-2.17787 0.171576 0)
(-2.42667 0.124499 0)
(-2.52588 0.0440515 0)
(-2.51473 -0.0496195 0)
(-2.45803 -0.113475 0)
(-2.3001 -0.0893557 0)
(-2.13104 -0.037571 0)
(-2.00705 -0.0164249 0)
(-1.87013 -0.0401501 0)
(-1.6766 -0.156856 0)
(-1.44729 -0.304918 0)
(-1.2013 -0.369283 0)
(-0.972061 -0.356543 0)
(-0.778078 -0.300245 0)
(-0.587731 -0.218305 0)
(-0.449699 -0.162769 0)
(-0.384925 -0.13804 0)
(-0.331575 -0.106016 0)
(-0.34447 -0.101443 0)
(-0.353496 1.95556 0)
(-0.583201 1.17623 0)
(-0.9842 0.930976 0)
(-1.28426 0.764978 0)
(-1.57142 0.562956 0)
(-1.79056 0.340306 0)
(-1.97872 0.12433 0)
(-2.21137 -0.0495355 0)
(-2.49114 -0.164165 0)
(-2.76296 -0.207037 0)
(-2.88135 -0.202539 0)
(-2.789 -0.223983 0)
(-2.41015 -0.40995 0)
(-2.03247 -0.602252 0)
(-1.79619 -0.651594 0)
(-1.62058 -0.618666 0)
(-1.48142 -0.557945 0)
(-1.34415 -0.499162 0)
(-1.16947 -0.423224 0)
(-0.957019 -0.370591 0)
(-0.826016 -0.331391 0)
(-0.692976 -0.18648 0)
(-0.625492 -0.0366473 0)
(-0.217719 2.29701 0)
(-0.320019 1.52483 0)
(-0.586985 1.19847 0)
(-0.664942 0.985552 0)
(-0.744487 0.784277 0)
(-0.823671 0.59057 0)
(-0.917392 0.436231 0)
(-1.04602 0.347968 0)
(-1.19597 0.262279 0)
(-1.35328 0.0703077 0)
(-1.47289 -0.14192 0)
(-1.6163 -0.270018 0)
(-1.72734 -0.615794 0)
(-1.75209 -0.726927 0)
(-1.76748 -0.729411 0)
(-1.7223 -0.68645 0)
(-1.64243 -0.642143 0)
(-1.55562 -0.603292 0)
(-1.44431 -0.569075 0)
(-1.25386 -0.540893 0)
(-1.11106 -0.443264 0)
(-0.97128 -0.255999 0)
(-0.914089 -0.0295779 0)
(-0.0889271 2.45236 0)
(-0.0854151 1.67913 0)
(-0.322716 1.2521 0)
(-0.232642 0.964563 0)
(-0.183679 0.74133 0)
(-0.132675 0.60247 0)
(-0.136628 0.490574 0)
(-0.202218 0.408507 0)
(-0.310702 0.318663 0)
(-0.446274 0.187171 0)
(-0.642293 0.10639 0)
(-0.817346 0.117832 0)
(-0.989613 -0.303419 0)
(-1.26216 -0.609973 0)
(-1.48231 -0.711623 0)
(-1.54611 -0.720328 0)
(-1.50748 -0.709876 0)
(-1.41393 -0.680059 0)
(-1.33027 -0.646355 0)
(-1.34776 -0.605776 0)
(-1.26072 -0.497858 0)
(-1.16028 -0.278911 0)
(-1.09694 -0.01106 0)
(0.0507507 2.38542 0)
(0.154003 1.88811 0)
(-0.128077 1.24353 0)
(0.00119313 0.857834 0)
(0.069288 0.612632 0)
(0.169971 0.508829 0)
(0.227163 0.457617 0)
(0.231687 0.427437 0)
(0.195109 0.386924 0)
(0.117206 0.311625 0)
(0.00856915 0.230434 0)
(-0.0827144 0.150172 0)
(-0.31454 0.0257499 0)
(-0.315255 -0.300371 0)
(-0.41366 -0.553549 0)
(-0.649791 -0.668782 0)
(-0.811962 -0.788839 0)
(-0.78761 -0.827234 0)
(-0.911163 -0.601715 0)
(-1.13957 -0.700857 0)
(-1.27361 -0.626421 0)
(-1.27474 -0.37535 0)
(-1.20821 -0.109169 0)
(0.173658 2.11206 0)
(0.38263 2.05322 0)
(0.172054 1.34019 0)
(0.192772 0.808586 0)
(0.226244 0.52158 0)
(0.282693 0.42519 0)
(0.3334 0.416802 0)
(0.353881 0.421169 0)
(0.357273 0.413332 0)
(0.337339 0.377855 0)
(0.282352 0.31938 0)
(0.221014 0.247709 0)
(0.0932652 0.0583134 0)
(-0.0977498 -0.275702 0)
(-0.479355 -0.343667 0)
(-0.674899 -0.359622 0)
(-0.718264 -0.678297 0)
(-0.968524 -0.590417 0)
(-1.09693 -0.328721 0)
(-1.12304 -0.400053 0)
(-1.22833 -0.524206 0)
(-1.40428 -0.509202 0)
(-1.33976 -0.188381 0)
(0.231582 1.69669 0)
(0.528444 2.02826 0)
(0.479125 1.45362 0)
(0.441921 0.862505 0)
(0.408163 0.512479 0)
(0.378766 0.398649 0)
(0.36985 0.40532 0)
(0.357281 0.420745 0)
(0.346129 0.414986 0)
(0.340784 0.394741 0)
(0.319625 0.356752 0)
(0.279566 0.303749 0)
(0.233851 0.216936 0)
(0.120741 0.0995752 0)
(-0.138001 -0.0265759 0)
(-0.363801 -0.254541 0)
(-0.705958 -0.410724 0)
(-1.05282 -0.414323 0)
(-1.11462 -0.393462 0)
(-1.10439 -0.350996 0)
(-1.15123 -0.284557 0)
(-1.40387 -0.353965 0)
(-1.55032 -0.392125 0)
(0.184462 1.28028 0)
(0.518996 1.81776 0)
(0.618319 1.44599 0)
(0.617604 0.921264 0)
(0.551056 0.573093 0)
(0.456814 0.448083 0)
(0.389439 0.443885 0)
(0.341368 0.45085 0)
(0.302488 0.432275 0)
(0.278778 0.40615 0)
(0.259999 0.378631 0)
(0.22695 0.333199 0)
(0.187356 0.266276 0)
(0.121732 0.204489 0)
(0.00627974 0.170883 0)
(-0.14104 0.0979732 0)
(-0.419384 -0.0552273 0)
(-0.795613 -0.23308 0)
(-1.0979 -0.303052 0)
(-1.2368 -0.28545 0)
(-1.19145 -0.159412 0)
(-1.15454 -0.0531318 0)
(-1.26736 -0.155026 0)
(0.0642242 1.00596 0)
(0.372388 1.54086 0)
(0.558952 1.3256 0)
(0.621348 0.934258 0)
(0.569169 0.65537 0)
(0.465379 0.540301 0)
(0.380864 0.515746 0)
(0.321664 0.504669 0)
(0.272049 0.473092 0)
(0.230812 0.434532 0)
(0.200476 0.404479 0)
(0.168403 0.365155 0)
(0.126731 0.308179 0)
(0.0688567 0.266998 0)
(0.0020029 0.261883 0)
(-0.0888695 0.242319 0)
(-0.257609 0.210454 0)
(-0.508406 0.164689 0)
(-0.889569 -0.00359885 0)
(-1.32736 -0.242746 0)
(-1.39155 -0.364156 0)
(-1.04816 -0.360077 0)
(-0.752712 -0.265597 0)
(-0.0333323 0.891315 0)
(0.197578 1.27814 0)
(0.405023 1.16233 0)
(0.502625 0.912199 0)
(0.48247 0.721523 0)
(0.410203 0.625589 0)
(0.34505 0.584515 0)
(0.296741 0.55795 0)
(0.253796 0.52025 0)
(0.210201 0.475338 0)
(0.172417 0.43825 0)
(0.138806 0.401699 0)
(0.0964872 0.359005 0)
(0.0363869 0.330629 0)
(-0.0272785 0.331835 0)
(-0.0949844 0.340727 0)
(-0.191085 0.354771 0)
(-0.297381 0.379214 0)
(-0.481247 0.337305 0)
(-0.795659 0.115891 0)
(-0.838549 -0.29662 0)
(-0.643382 -0.634565 0)
(-0.497513 -0.592249 0)
(-0.0577436 0.865932 0)
(0.0881575 1.0712 0)
(0.263708 1.00973 0)
(0.35815 0.870029 0)
(0.365449 0.752654 0)
(0.333576 0.676655 0)
(0.298353 0.629406 0)
(0.268607 0.595736 0)
(0.239327 0.558641 0)
(0.204244 0.51556 0)
(0.167486 0.475853 0)
(0.132174 0.441311 0)
(0.0893653 0.412058 0)
(0.0310591 0.397365 0)
(-0.0326947 0.403618 0)
(-0.0960078 0.420762 0)
(-0.167631 0.44323 0)
(-0.235243 0.474567 0)
(-0.347931 0.459804 0)
(-0.520161 0.236157 0)
(-0.593955 -0.285256 0)
(-0.642022 -0.607437 0)
(-0.616311 -0.58395 0)
(-0.0338097 0.864175 0)
(0.0530829 0.938801 0)
(0.172165 0.892563 0)
(0.246516 0.821394 0)
(0.269446 0.752663 0)
(0.2662 0.694754 0)
(0.254054 0.650551 0)
(0.239967 0.617107 0)
(0.223146 0.584277 0)
(0.199074 0.547551 0)
(0.168468 0.511418 0)
(0.133781 0.481494 0)
(0.0918142 0.462628 0)
(0.0392127 0.458706 0)
(-0.0187952 0.469894 0)
(-0.0788484 0.4885 0)
(-0.144327 0.514858 0)
(-0.211126 0.558405 0)
(-0.329489 0.573546 0)
(-0.488939 0.366986 0)
(-0.63487 -0.184045 0)
(-0.716119 -0.599598 0)
(-0.783594 -0.694245 0)
(-0.00481539 0.851441 0)
(0.0509647 0.860921 0)
(0.123364 0.812957 0)
(0.178086 0.777322 0)
(0.205448 0.736481 0)
(0.21602 0.69352 0)
(0.216671 0.656564 0)
(0.212334 0.627043 0)
(0.203888 0.599615 0)
(0.188592 0.570516 0)
(0.16522 0.541788 0)
(0.134278 0.519119 0)
(0.0960726 0.508229 0)
(0.0513416 0.511026 0)
(0.00313574 0.525862 0)
(-0.0473406 0.547032 0)
(-0.10244 0.579607 0)
(-0.151518 0.642889 0)
(-0.235953 0.691746 0)
(-0.361568 0.458864 0)
(-0.446186 -0.0729624 0)
(-0.524596 -0.545567 0)
(-0.696391 -0.7372 0)
(0.0110609 0.823733 0)
(0.052387 0.809411 0)
(0.0990524 0.760569 0)
(0.139257 0.741397 0)
(0.164808 0.715815 0)
(0.179832 0.684255 0)
(0.186166 0.654934 0)
(0.186967 0.630383 0)
(0.18338 0.608318 0)
(0.173881 0.586537 0)
(0.15683 0.566206 0)
(0.13175 0.551514 0)
(0.100154 0.546863 0)
(0.0646007 0.553495 0)
(0.0275214 0.570272 0)
(-0.00974904 0.593913 0)
(-0.0491927 0.627679 0)
(-0.07366 0.696596 0)
(-0.104996 0.775894 0)
(-0.200272 0.585562 0)
(-0.305309 0.0726894 0)
(-0.399322 -0.30778 0)
(-0.534799 -0.613215 0)
(0.0156657 0.791075 0)
(0.0498711 0.7693 0)
(0.0850332 0.72366 0)
(0.115505 0.712575 0)
(0.137686 0.6958 0)
(0.153225 0.672547 0)
(0.16179 0.649854 0)
(0.165248 0.630205 0)
(0.164506 0.613051 0)
(0.158817 0.597569 0)
(0.146943 0.584662 0)
(0.128416 0.576905 0)
(0.104766 0.576979 0)
(0.0785313 0.585766 0)
(0.0517872 0.602976 0)
(0.0259225 0.626971 0)
(-0.000455923 0.656376 0)
(-0.0141578 0.715851 0)
(-0.0131108 0.810373 0)
(-0.0834508 0.679225 0)
(-0.226811 0.177732 0)
(-0.305918 -0.229254 0)
(-0.393862 -0.545418 0)
(0.0152158 0.760428 0)
(0.0449249 0.734973 0)
(0.0747294 0.694931 0)
(0.0989628 0.6889 0)
(0.118373 0.677606 0)
(0.133381 0.660358 0)
(0.142938 0.64313 0)
(0.148079 0.627955 0)
(0.149388 0.615111 0)
(0.146637 0.604671 0)
(0.139199 0.597434 0)
(0.126951 0.594841 0)
(0.111031 0.598329 0)
(0.093196 0.608507 0)
(0.0748411 0.625575 0)
(0.0570383 0.648665 0)
(0.0390865 0.673866 0)
(0.0254618 0.71881 0)
(0.035531 0.816927 0)
(0.00488584 0.767545 0)
(-0.131371 0.325827 0)
(-0.233575 -0.180379 0)
(-0.359377 -0.488906 0)
(0.0135696 0.733212 0)
(0.0398468 0.704594 0)
(0.0662467 0.670901 0)
(0.0865684 0.668644 0)
(0.104166 0.660929 0)
(0.118626 0.648094 0)
(0.128888 0.635279 0)
(0.135478 0.624003 0)
(0.138731 0.614822 0)
(0.138723 0.608247 0)
(0.135324 0.605007 0)
(0.128679 0.605944 0)
(0.119509 0.611855 0)
(0.108789 0.623215 0)
(0.097244 0.640394 0)
(0.0854025 0.663072 0)
(0.0729898 0.687201 0)
(0.0586833 0.721306 0)
(0.06219 0.809027 0)
(0.0716141 0.835663 0)
(-0.0444578 0.478015 0)
(-0.192683 -0.0378098 0)
(-0.373009 -0.39679 0)
(0.0120833 0.708975 0)
(0.0356254 0.677595 0)
(0.0591757 0.649889 0)
(0.0771466 0.650518 0)
(0.0936485 0.645221 0)
(0.107774 0.63568 0)
(0.118733 0.626338 0)
(0.126775 0.618292 0)
(0.132078 0.612107 0)
(0.134847 0.608423 0)
(0.135232 0.607911 0)
(0.133492 0.611186 0)
(0.130053 0.618824 0)
(0.125386 0.631305 0)
(0.119775 0.649076 0)
(0.113246 0.672228 0)
(0.105263 0.69819 0)
(0.0924519 0.728271 0)
(0.0824562 0.79662 0)
(0.103755 0.865759 0)
(0.0138168 0.641156 0)
(-0.157944 0.177138 0)
(-0.425004 -0.271386 0)
(0.0110134 0.687022 0)
(0.032355 0.653628 0)
(0.0533737 0.630938 0)
(0.0700307 0.633671 0)
(0.0858718 0.63007 0)
(0.0998733 0.622994 0)
(0.111554 0.616288 0)
(0.121033 0.610762 0)
(0.128428 0.606897 0)
(0.133963 0.605306 0)
(0.13789 0.606616 0)
(0.140501 0.611391 0)
(0.142076 0.620201 0)
(0.142854 0.633608 0)
(0.142905 0.652211 0)
(0.14197 0.676496 0)
(0.138953 0.705868 0)
(0.130455 0.739278 0)
(0.112031 0.794594 0)
(0.119023 0.880357 0)
(0.0480967 0.798544 0)
(-0.141426 0.391576 0)
(-0.45022 -0.100517 0)
(0.010317 0.66672 0)
(0.0298613 0.632272 0)
(0.0487346 0.613433 0)
(0.0646957 0.617579 0)
(0.0801226 0.615207 0)
(0.09416 0.609951 0)
(0.106549 0.605164 0)
(0.117378 0.60147 0)
(0.126762 0.599265 0)
(0.134916 0.599083 0)
(0.142115 0.601513 0)
(0.148669 0.607123 0)
(0.154842 0.616527 0)
(0.160854 0.630406 0)
(0.166786 0.649586 0)
(0.172417 0.675062 0)
(0.176687 0.707972 0)
(0.177078 0.749057 0)
(0.165636 0.805755 0)
(0.15971 0.902942 0)
(0.126335 0.953821 0)
(-0.126852 0.539787 0)
(-0.451966 0.0629934 0)
(0.00987781 0.647601 0)
(0.0279489 0.613048 0)
(0.0451184 0.596947 0)
(0.0606972 0.601941 0)
(0.0758512 0.600463 0)
(0.0900209 0.596507 0)
(0.103071 0.593044 0)
(0.115108 0.590571 0)
(0.126273 0.58941 0)
(0.136791 0.590023 0)
(0.146951 0.59295 0)
(0.157103 0.598751 0)
(0.167592 0.608059 0)
(0.178773 0.621639 0)
(0.190974 0.640504 0)
(0.204412 0.66609 0)
(0.219004 0.700645 0)
(0.234147 0.747454 0)
(0.246641 0.811877 0)
(0.260883 0.915619 0)
(0.298799 1.06782 0)
(0.206999 0.868742 0)
(-0.294137 0.274639 0)
(0.00957824 0.629373 0)
(0.0264534 0.595486 0)
(0.0423289 0.581193 0)
(0.0576598 0.586602 0)
(0.0726198 0.585739 0)
(0.0869573 0.582662 0)
(0.100595 0.580036 0)
(0.113671 0.578262 0)
(0.126363 0.577602 0)
(0.138923 0.578447 0)
(0.151677 0.581273 0)
(0.165039 0.586591 0)
(0.17948 0.594993 0)
(0.195573 0.607217 0)
(0.214033 0.624274 0)
(0.235772 0.647657 0)
(0.262124 0.679763 0)
(0.295303 0.724404 0)
(0.337517 0.787223 0)
(0.401995 0.877951 0)
(0.493488 1.03588 0)
(0.695978 1.10418 0)
(0.2381 0.541461 0)
(0.00933912 0.611859 0)
(0.0252459 0.579187 0)
(0.0401489 0.565989 0)
(0.0552735 0.571489 0)
(0.0700717 0.571001 0)
(0.0845597 0.568455 0)
(0.0986808 0.566271 0)
(0.112608 0.564769 0)
(0.12655 0.564145 0)
(0.140792 0.564724 0)
(0.155703 0.566892 0)
(0.171762 0.571072 0)
(0.189561 0.577738 0)
(0.209868 0.587469 0)
(0.233729 0.601025 0)
(0.262644 0.61947 0)
(0.298897 0.644384 0)
(0.346782 0.677952 0)
(0.409833 0.723192 0)
(0.511573 0.781305 0)
(0.628049 0.85823 0)
(0.929679 0.982151 0)
(0.926386 0.688774 0)
(0.00911914 0.594963 0)
(0.0242247 0.563845 0)
(0.0383839 0.551237 0)
(0.053292 0.556584 0)
(0.0679201 0.556265 0)
(0.0824974 0.55397 0)
(0.096968 0.551908 0)
(0.111535 0.550333 0)
(0.12643 0.549374 0)
(0.141959 0.549276 0)
(0.158522 0.550326 0)
(0.176634 0.552825 0)
(0.196953 0.557078 0)
(0.220338 0.563412 0)
(0.24796 0.572184 0)
(0.281486 0.583774 0)
(0.323286 0.598535 0)
(0.377602 0.616532 0)
(0.447266 0.63662 0)
(0.550412 0.657099 0)
(0.667587 0.655575 0)
(0.890436 0.678911 0)
(1.08684 0.533579 0)
(0.00889442 0.578635 0)
(0.0233097 0.549247 0)
(0.0368814 0.536892 0)
(0.0515285 0.541904 0)
(0.0659438 0.541587 0)
(0.0805148 0.53932 0)
(0.095175 0.537135 0)
(0.110151 0.535222 0)
(0.125682 0.533647 0)
(0.14208 0.532574 0)
(0.159747 0.532188 0)
(0.179199 0.532656 0)
(0.201079 0.534105 0)
(0.226216 0.536606 0)
(0.255693 0.540126 0)
(0.290957 0.544447 0)
(0.333896 0.548995 0)
(0.387358 0.552543 0)
(0.453368 0.551903 0)
(0.539598 0.544265 0)
(0.639771 0.50981 0)
(0.77069 0.459032 0)
(0.933768 0.343281 0)
(0.00864803 0.562861 0)
(0.0224451 0.535255 0)
(0.0355269 0.522941 0)
(0.0498494 0.527501 0)
(0.0639837 0.527054 0)
(0.0784289 0.524648 0)
(0.0931027 0.522159 0)
(0.108243 0.51972 0)
(0.124088 0.517342 0)
(0.140934 0.515112 0)
(0.159164 0.51312 0)
(0.179251 0.511418 0)
(0.201776 0.509983 0)
(0.227452 0.508687 0)
(0.257158 0.507233 0)
(0.291979 0.505072 0)
(0.333214 0.501232 0)
(0.382425 0.49414 0)
(0.440843 0.480847 0)
(0.510446 0.458258 0)
(0.589853 0.416928 0)
(0.674304 0.353444 0)
(0.768731 0.258291 0)
(0.008373 0.547642 0)
(0.0216031 0.521797 0)
(0.0342318 0.509391 0)
(0.0481636 0.513445 0)
(0.0619326 0.512771 0)
(0.0761221 0.510109 0)
(0.0906291 0.507194 0)
(0.105693 0.504114 0)
(0.121539 0.50083 0)
(0.138436 0.497366 0)
(0.15673 0.493734 0)
(0.176831 0.489896 0)
(0.199228 0.485723 0)
(0.22449 0.480967 0)
(0.253277 0.4752 0)
(0.286336 0.467749 0)
(0.324475 0.457592 0)
(0.368462 0.443241 0)
(0.418778 0.422478 0)
(0.475445 0.392595 0)
(0.537058 0.349202 0)
(0.598215 0.288476 0)
(0.655637 0.208254 0)
(0.00807839 0.532979 0)
(0.0207809 0.508861 0)
(0.032926 0.496267 0)
(0.04641 0.499816 0)
(0.0597216 0.498851 0)
(0.0735268 0.495861 0)
(0.0876939 0.492451 0)
(0.102456 0.488675 0)
(0.118019 0.484456 0)
(0.134616 0.479765 0)
(0.152545 0.474558 0)
(0.172146 0.468733 0)
(0.19381 0.462099 0)
(0.217967 0.454346 0)
(0.24508 0.445003 0)
(0.275622 0.433387 0)
(0.310026 0.418547 0)
(0.348562 0.399201 0)
(0.391168 0.373666 0)
(0.437192 0.339901 0)
(0.484947 0.295439 0)
(0.530642 0.23805 0)
(0.570909 0.167998 0)
(0.00778986 0.518855 0)
(0.0199881 0.496481 0)
(0.031555 0.483614 0)
(0.0445439 0.486692 0)
(0.0573035 0.485403 0)
(0.0706061 0.482051 0)
(0.0842768 0.478121 0)
(0.0985419 0.473647 0)
(0.113579 0.468519 0)
(0.129584 0.462672 0)
(0.146804 0.456021 0)
(0.165509 0.448426 0)
(0.185997 0.439665 0)
(0.208575 0.429409 0)
(0.233542 0.417195 0)
(0.261163 0.402389 0)
(0.291605 0.384167 0)
(0.324841 0.361494 0)
(0.360528 0.333133 0)
(0.397837 0.297729 0)
(0.435274 0.25395 0)
(0.470158 0.200767 0)
(0.500308 0.13919 0)
(0.00753921 0.505233 0)
(0.0192289 0.484726 0)
(0.0300834 0.471506 0)
(0.0425269 0.47415 0)
(0.054639 0.472527 0)
(0.0673366 0.468808 0)
(0.0803759 0.464369 0)
(0.0939833 0.459231 0)
(0.108303 0.453261 0)
(0.123493 0.446369 0)
(0.13975 0.438447 0)
(0.15728 0.429333 0)
(0.176298 0.418797 0)
(0.19701 0.406519 0)
(0.219589 0.392076 0)
(0.244153 0.374918 0)
(0.270707 0.35437 0)
(0.299073 0.32964 0)
(0.328813 0.299866 0)
(0.359135 0.264205 0)
(0.388838 0.221982 0)
(0.41601 0.172775 0)
(0.439232 0.117553 0)
(0.00734683 0.492074 0)
(0.0184883 0.473671 0)
(0.028491 0.460043 0)
(0.0403216 0.462271 0)
(0.0516899 0.460314 0)
(0.063694 0.456245 0)
(0.0759868 0.451328 0)
(0.0888092 0.445582 0)
(0.102268 0.438862 0)
(0.116483 0.431059 0)
(0.13161 0.422054 0)
(0.147794 0.411679 0)
(0.165182 0.399711 0)
(0.183899 0.385855 0)
(0.20403 0.369741 0)
(0.225598 0.350914 0)
(0.248518 0.328836 0)
(0.272553 0.302919 0)
(0.297267 0.272571 0)
(0.321976 0.237271 0)
(0.345753 0.196689 0)
(0.367281 0.150695 0)
(0.385677 0.100105 0)
(0.00721271 0.479358 0)
(0.017733 0.463387 0)
(0.0267615 0.449348 0)
(0.0378873 0.45114 0)
(0.0484137 0.448851 0)
(0.0596427 0.444459 0)
(0.0710841 0.439108 0)
(0.0830161 0.432822 0)
(0.0955021 0.425448 0)
(0.108632 0.416871 0)
(0.122523 0.406969 0)
(0.13727 0.395577 0)
(0.152965 0.382488 0)
(0.169673 0.367441 0)
(0.187418 0.350118 0)
(0.206164 0.330147 0)
(0.225785 0.30711 0)
(0.246035 0.280572 0)
(0.266524 0.250126 0)
(0.286698 0.215452 0)
(0.305873 0.176397 0)
(0.323175 0.13297 0)
(0.338081 0.0857966 0)
(0.00712067 0.467092 0)
(0.0169218 0.453938 0)
(0.024872 0.439552 0)
(0.0351814 0.440854 0)
(0.0447621 0.438226 0)
(0.0551307 0.433546 0)
(0.0656134 0.427807 0)
(0.0765547 0.421049 0)
(0.0879679 0.413115 0)
(0.0999202 0.403891 0)
(0.112497 0.393261 0)
(0.125753 0.381068 0)
(0.139737 0.367126 0)
(0.154469 0.351206 0)
(0.169932 0.33304 0)
(0.186056 0.312325 0)
(0.2027 0.288735 0)
(0.219634 0.261949 0)
(0.236527 0.231684 0)
(0.252945 0.197739 0)
(0.268394 0.16004 0)
(0.282296 0.118633 0)
(0.294343 0.0739619 0)
(0.00704046 0.455328 0)
(0.0160075 0.445385 0)
(0.0227981 0.430793 0)
(0.0321687 0.431524 0)
(0.0406878 0.428545 0)
(0.0500993 0.423614 0)
(0.0595038 0.417532 0)
(0.0693478 0.410369 0)
(0.0795804 0.401962 0)
(0.0902573 0.392207 0)
(0.101437 0.380996 0)
(0.113142 0.368186 0)
(0.125388 0.353614 0)
(0.138161 0.33708 0)
(0.151416 0.318359 0)
(0.165061 0.297202 0)
(0.178954 0.273356 0)
(0.192885 0.246578 0)
(0.206572 0.216666 0)
(0.219679 0.183483 0)
(0.231835 0.146979 0)
(0.242644 0.1072 0)
(0.251918 0.0644569 0)
(0.00692577 0.444159 0)
(0.0149315 0.437754 0)
(0.0205175 0.423196 0)
(0.0288306 0.423257 0)
(0.0361622 0.419918 0)
(0.0445104 0.414772 0)
(0.0527078 0.408395 0)
(0.0613442 0.40089 0)
(0.0702784 0.392089 0)
(0.0795716 0.381907 0)
(0.0892577 0.370245 0)
(0.0993295 0.356978 0)
(0.109777 0.341962 0)
(0.120563 0.325027 0)
(0.131621 0.305984 0)
(0.142847 0.284625 0)
(0.154098 0.260752 0)
(0.165179 0.234178 0)
(0.175847 0.204754 0)
(0.18583 0.172371 0)
(0.19484 0.136981 0)
(0.202586 0.0986204 0)
(0.208955 0.0575178 0)
(0.00674066 0.433765 0)
(0.0136673 0.431122 0)
(0.0180437 0.416877 0)
(0.0251907 0.416172 0)
(0.0312153 0.412485 0)
(0.0384032 0.407157 0)
(0.0452771 0.400533 0)
(0.0526117 0.392752 0)
(0.0601398 0.383635 0)
(0.0679511 0.373128 0)
(0.0760493 0.361137 0)
(0.084404 0.347556 0)
(0.0929871 0.332263 0)
(0.101742 0.315114 0)
(0.110589 0.295945 0)
(0.119419 0.274587 0)
(0.12809 0.250881 0)
(0.136417 0.224684 0)
(0.144187 0.195875 0)
(0.15118 0.164358 0)
(0.157165 0.130076 0)
(0.16194 0.0930456 0)
(0.165474 0.0534205 0)
(0.00637495 0.424108 0)
(0.0120871 0.425352 0)
(0.0153301 0.411863 0)
(0.0212091 0.410282 0)
(0.0258404 0.406285 0)
(0.0317775 0.400774 0)
(0.0372338 0.39395 0)
(0.0431888 0.385944 0)
(0.0492195 0.376583 0)
(0.0554717 0.365841 0)
(0.0619069 0.353629 0)
(0.0684825 0.339861 0)
(0.0751591 0.324435 0)
(0.0818705 0.307225 0)
(0.0885334 0.288094 0)
(0.0950403 0.266903 0)
(0.101252 0.243526 0)
(0.107003 0.217846 0)
(0.112112 0.189758 0)
(0.116401 0.159167 0)
(0.119691 0.125994 0)
(0.121859 0.0902093 0)
(0.122969 0.0518416 0)
(0.00604453 0.416396 0)
(0.0106365 0.421172 0)
(0.0128377 0.408408 0)
(0.0174498 0.405983 0)
(0.0207705 0.401778 0)
(0.0255413 0.396131 0)
(0.0296683 0.389178 0)
(0.0343473 0.38103 0)
(0.038982 0.37152 0)
(0.043795 0.360654 0)
(0.0486939 0.348339 0)
(0.0536379 0.334513 0)
(0.0585803 0.319087 0)
(0.0634542 0.301947 0)
(0.0681773 0.282975 0)