/*--------------------------------*- C++ -*----------------------------------*\
| =========                 |                                                 |
| \\      /  F ield         | OpenFOAM: The Open Source CFD Toolbox           |
|  \\    /   O peration     | Version:  2206                                  |
|   \\  /    A nd           | Website:  www.openfoam.com                      |
|    \\/     M anipulation  |                                                 |
\*---------------------------------------------------------------------------*/
FoamFile
{
    version     2.0;
    format      ascii;
    arch        "LSB;label=32;scalar=64";
    class       volVectorField;
    location    "0.6";
    object      U;
}
// * * * * * * * * * * * * * * * * * * * * * * * * * * * * * * * * * * * * * //

dimensions      [0 1 -1 0 0 0 0];

internalField   nonuniform List<vector> 
2268
(
(-0.0210574 0.00840576 0)
(-0.0554867 0.00777214 0)
(-0.0739157 0.00163238 0)
(-0.065746 -0.0029255 0)
(-0.0464181 -0.00661949 0)
(-0.0106976 -0.00992333 0)
(0.0354623 -0.0111872 0)
(0.0810375 -0.00972753 0)
(0.117013 -0.00653863 0)
(0.138402 -0.00313654 0)
(0.146144 -3.30426e-05 0)
(0.141851 0.0027031 0)
(0.128708 0.00501073 0)
(0.109025 0.00706957 0)
(0.083256 0.00949647 0)
(0.049424 0.012884 0)
(0.0032798 0.0164747 0)
(-0.0572965 0.0124323 0)
(-0.0991924 0.00153972 0)
(-0.125732 0.0122381 0)
(-0.233519 0.0176602 0)
(-0.245131 -0.0156088 0)
(-0.090782 -0.0528683 0)
(-0.0317348 0.026891 0)
(-0.0570555 0.0187877 0)
(-0.0658822 0.00179944 0)
(-0.0586849 -0.0090979 0)
(-0.0427306 -0.0193627 0)
(-0.0098155 -0.0293788 0)
(0.0359115 -0.0337776 0)
(0.0822329 -0.0296301 0)
(0.118594 -0.0200804 0)
(0.139912 -0.00991476 0)
(0.147418 -0.0014619 0)
(0.14699 0.00491616 0)
(0.142029 0.00969337 0)
(0.134246 0.0136353 0)
(0.124408 0.0180552 0)
(0.112026 0.0246371 0)
(0.0918724 0.0343578 0)
(0.0526192 0.0408674 0)
(-0.0151991 0.0353054 0)
(-0.0888434 0.041586 0)
(-0.197638 0.0357373 0)
(-0.167764 -0.0394051 0)
(-0.04935 -0.130863 0)
(-0.0274753 0.0446825 0)
(-0.0397424 0.0264095 0)
(-0.049691 0.00144939 0)
(-0.0466075 -0.0128477 0)
(-0.0382837 -0.0289912 0)
(-0.0104722 -0.0472037 0)
(0.0330244 -0.0562985 0)
(0.0790342 -0.0497345 0)
(0.115388 -0.0333636 0)
(0.135927 -0.0161526 0)
(0.142352 -0.00270963 0)
(0.139588 0.00645184 0)
(0.132034 0.012542 0)
(0.12259 0.0168723 0)
(0.113417 0.0211437 0)
(0.107246 0.0279111 0)
(0.105314 0.0398454 0)
(0.106736 0.0555375 0)
(0.0799662 0.0653292 0)
(0.0437463 0.0781812 0)
(-0.0524945 0.0574485 0)
(-0.0708506 -0.0613826 0)
(0.00936151 -0.1691 0)
(-0.0176168 0.0563707 0)
(-0.0167898 0.0319959 0)
(-0.0235732 0.00309485 0)
(-0.0240689 -0.0135445 0)
(-0.0187276 -0.0363484 0)
(0.00614428 -0.0638354 0)
(0.0426266 -0.0782391 0)
(0.0805277 -0.0694653 0)
(0.111286 -0.0461952 0)
(0.128982 -0.0218693 0)
(0.134168 -0.00328499 0)
(0.130953 0.00913956 0)
(0.123362 0.0169494 0)
(0.114108 0.0217266 0)
(0.105134 0.0253054 0)
(0.0985201 0.0301167 0)
(0.0960877 0.0382957 0)
(0.106838 0.053524 0)
(0.118216 0.071556 0)
(0.133575 0.0962825 0)
(0.101203 0.0845028 0)
(0.0767571 -0.0423651 0)
(0.0660426 -0.15498 0)
(-0.00460559 0.0599452 0)
(0.0148048 0.0305598 0)
(0.0174819 0.00384359 0)
(0.022411 -0.0158275 0)
(0.0373453 -0.0446458 0)
(0.0625132 -0.0776586 0)
(0.0840417 -0.09422 0)
(0.100601 -0.0832855 0)
(0.114013 -0.0552492 0)
(0.121838 -0.025771 0)
(0.123479 -0.00321856 0)
(0.120076 0.0117731 0)
(0.113525 0.0208879 0)
(0.105953 0.0258552 0)
(0.0992953 0.0287689 0)
(0.0948216 0.0322075 0)
(0.0929528 0.0370907 0)
(0.0992716 0.0463373 0)
(0.117514 0.0602126 0)
(0.156974 0.0849437 0)
(0.18166 0.0879102 0)
(0.162377 -0.0185773 0)
(0.109511 -0.107866 0)
(0.00974207 0.0512123 0)
(0.0540116 0.0238238 0)
(0.0777399 -0.00236868 0)
(0.102253 -0.0230311 0)
(0.136154 -0.0532445 0)
(0.158755 -0.0842882 0)
(0.15617 -0.0974354 0)
(0.141854 -0.0841659 0)
(0.129643 -0.0551228 0)
(0.12051 -0.0253021 0)
(0.113646 -0.00180177 0)
(0.108248 0.0140545 0)
(0.102696 0.0234531 0)
(0.0971886 0.0280193 0)
(0.0933311 0.0301046 0)
(0.0918874 0.0327066 0)
(0.0928128 0.0361783 0)
(0.0985911 0.0412478 0)
(0.112359 0.0473388 0)
(0.144152 0.061843 0)
(0.192726 0.0721982 0)
(0.184951 0.00917272 0)
(0.130629 -0.0361758 0)
(0.0245388 0.0283084 0)
(0.093699 0.00351315 0)
(0.155278 -0.0146019 0)
(0.220336 -0.0336046 0)
(0.262913 -0.0597749 0)
(0.263088 -0.0803546 0)
(0.227138 -0.0855765 0)
(0.184776 -0.0705259 0)
(0.152446 -0.0434363 0)
(0.128635 -0.0179744 0)
(0.111175 0.0023428 0)
(0.0997142 0.0177212 0)
(0.0924488 0.0277949 0)
(0.0881536 0.0319507 0)
(0.087267 0.0321057 0)
(0.0891502 0.0327133 0)
(0.0927417 0.0338069 0)
(0.100302 0.0354319 0)
(0.11372 0.0375353 0)
(0.13255 0.0426568 0)
(0.175108 0.0545266 0)
(0.183274 0.0250334 0)
(0.157387 0.0130715 0)
(0.0389867 -0.0100651 0)
(0.141145 -0.0388609 0)
(0.262037 -0.0684032 0)
(0.344834 -0.0764991 0)
(0.351184 -0.0718351 0)
(0.307979 -0.0671385 0)
(0.245699 -0.0633644 0)
(0.195974 -0.05 0)
(0.162693 -0.0256731 0)
(0.138292 -0.00207033 0)
(0.119501 0.012608 0)
(0.103863 0.0221403 0)
(0.0909978 0.0271686 0)
(0.0823719 0.0276907 0)
(0.0807163 0.0270714 0)
(0.0844042 0.0297039 0)
(0.0902351 0.0323008 0)
(0.100251 0.0323979 0)
(0.116815 0.0325261 0)
(0.134301 0.032616 0)
(0.158405 0.0443237 0)
(0.176701 0.0482207 0)
(0.14286 0.132924 0)
(-0.289784 0.0921733 0)
(-0.636656 -0.0200165 0)
(-0.295631 -0.160962 0)
(0.109151 -0.22106 0)
(0.594713 -0.149969 0)
(1.17603 -0.0119131 0)
(0.460557 0.177985 0)
(-0.812083 0.253857 0)
(-1.62506 0.146479 0)
(-1.79485 0.0652836 0)
(-1.77374 0.0452666 0)
(-1.73178 0.0448677 0)
(-1.68901 0.0467382 0)
(-1.65781 0.0426584 0)
(-1.62372 0.0295332 0)
(-1.50188 0.00597237 0)
(-1.14485 -0.0560142 0)
(-0.537968 -0.136987 0)
(0.0684658 -0.018266 0)
(-0.191498 0.237191 0)
(-0.361283 0.0840536 0)
(-0.0440624 -0.227913 0)
(0.168511 -0.305346 0)
(0.341005 -0.236002 0)
(1.12235 0.116081 0)
(-0.0958719 0.647398 0)
(-2.04369 0.560086 0)
(-2.62766 0.161118 0)
(-2.55955 -0.0469484 0)
(-2.48132 -0.0879492 0)
(-2.35357 -0.0873002 0)
(-2.25003 -0.0881662 0)
(-2.15363 -0.101121 0)
(-2.03618 -0.121889 0)
(-1.82469 -0.160201 0)
(-1.40205 -0.293037 0)
(-0.718181 -0.456245 0)
(-0.0996525 -0.133052 0)
(-0.117301 0.27932 0)
(-0.0787803 0.022812 0)
(0.13391 -0.307081 0)
(0.376287 -0.403881 0)
(0.457316 -0.399493 0)
(1.07878 0.145155 0)
(-0.189269 1.28367 0)
(-2.2587 1.07653 0)
(-2.66943 0.31179 0)
(-2.09792 0.0417499 0)
(-3.25923 0.0164011 0)
(-3.5122 -0.0221814 0)
(-3.60298 -0.0465857 0)
(-3.4244 -0.103777 0)
(-3.09317 -0.192823 0)
(-2.53426 -0.337796 0)
(-1.70185 -0.671258 0)
(-0.817312 -0.858427 0)
(-0.21326 -0.316307 0)
(-0.122939 0.302316 0)
(0.0993945 -0.0286515 0)
(0.299277 -0.389904 0)
(0.54108 -0.506296 0)
(0.579113 -0.476909 0)
(1.16594 0.192929 0)
(0.140673 1.71958 0)
(0.272673 2.1718 0)
(-1.84258 0.559914 0)
(-1.98704 0.341034 0)
(-2.50873 0.247845 0)
(-2.77817 0.0902541 0)
(-2.95771 -0.0650231 0)
(-3.08751 -0.218064 0)
(-3.15776 -0.370827 0)
(-2.78768 -0.61796 0)
(-1.80813 -1.00044 0)
(-0.813272 -1.30365 0)
(-0.257335 -0.549213 0)
(-0.112421 0.297196 0)
(0.229904 -0.140584 0)
(0.454842 -0.480922 0)
(0.640509 -0.589091 0)
(0.643027 -0.547091 0)
(1.15443 0.211712 0)
(0.267495 1.79015 0)
(0.935319 2.65512 0)
(-1.18536 1.03688 0)
(-2.00544 0.468382 0)
(-2.32708 0.25191 0)
(-2.39146 0.138538 0)
(-2.33182 0.00442921 0)
(-2.32763 -0.178764 0)
(-2.47323 -0.399348 0)
(-2.33806 -0.651915 0)
(-1.56564 -1.11799 0)
(-0.722424 -1.6839 0)
(-0.224781 -0.79714 0)
(-0.060475 0.238788 0)
(0.371862 -0.241472 0)
(0.571237 -0.553548 0)
(0.687829 -0.647853 0)
(0.656644 -0.600993 0)
(1.076 0.248669 0)
(0.0255288 1.85903 0)
(0.684163 2.82403 0)
(-1.30414 1.5417 0)
(-1.82114 0.778409 0)
(-2.17079 0.41241 0)
(-2.34693 0.189488 0)
(-2.26915 -0.0790318 0)
(-2.05876 -0.276648 0)
(-1.89702 -0.511184 0)
(-1.62685 -0.809681 0)
(-0.899608 -1.32643 0)
(-0.599259 -1.92517 0)
(-0.159804 -1.02202 0)
(0.0788842 0.180616 0)
(0.515744 -0.347164 0)
(0.631981 -0.600214 0)
(0.685532 -0.685932 0)
(0.640765 -0.633527 0)
(0.978004 0.409074 0)
(-0.244692 2.01833 0)
(0.326823 3.06747 0)
(-1.62971 1.92973 0)
(-1.78673 0.962121 0)
(-2.32439 0.40647 0)
(-2.62779 0.112982 0)
(-2.61321 -0.139398 0)
(-2.31924 -0.420315 0)
(-1.83711 -0.711625 0)
(-1.19274 -0.961292 0)
(-0.418811 -1.50594 0)
(-0.464746 -2.01 0)
(-0.0985744 -1.20793 0)
(0.340429 -0.102148 0)
(0.609735 -0.454172 0)
(0.630565 -0.6114 0)
(0.649715 -0.71753 0)
(0.612799 -0.641375 0)
(0.85515 0.573036 0)
(-0.260135 2.13536 0)
(0.188652 3.39699 0)
(-1.9245 2.23611 0)
(-1.84974 1.17159 0)
(-2.61821 0.778771 0)
(-3.11037 0.441729 0)
(-3.09638 -0.127896 0)
(-2.61657 -0.64888 0)
(-1.95144 -1.06928 0)
(-1.08581 -1.31691 0)
(-0.0777272 -1.5634 0)
(-0.328211 -1.98638 0)
(-0.050922 -1.34655 0)
(0.0586813 -0.0793343 0)
(0.191405 -0.14642 0)
(0.268065 -0.144572 0)
(0.223529 -0.0974766 0)
(0.185848 -0.0512566 0)
(0.155341 -0.0331476 0)
(0.126215 -0.0367696 0)
(0.109168 -0.0360944 0)
(0.104547 -0.0227165 0)
(0.107322 -0.00277154 0)
(0.109522 0.0181128 0)
(0.107995 0.0389957 0)
(0.100403 0.0508094 0)
(0.0927333 0.0496038 0)
(0.0912094 0.0362901 0)
(0.0924376 0.0285184 0)
(0.0928967 0.0206432 0)
(0.0991109 0.0131164 0)
(0.115414 0.011414 0)
(0.141276 0.0122808 0)
(0.168789 0.0183634 0)
(0.228224 0.0109903 0)
(0.294116 0.0957353 0)
(0.0121339 -0.28284 0)
(0.175982 -0.171548 0)
(-0.538043 0.0142435 0)
(-0.568564 0.0364201 0)
(-0.28737 -0.015571 0)
(-0.199465 -0.0092991 0)
(-0.187209 -0.0209318 0)
(-0.19591 -0.0213733 0)
(-0.160589 -0.016535 0)
(-0.0945473 -0.0073793 0)
(-0.0383693 0.0043504 0)
(0.000660342 0.0198384 0)
(0.0546034 0.0272797 0)
(0.0944487 0.0217487 0)
(0.114782 0.0179001 0)
(0.113992 0.0315627 0)
(0.101174 0.0356245 0)
(0.0998946 0.0153646 0)
(0.116422 -0.0015297 0)
(0.137197 -0.0114331 0)
(0.161239 -0.0205309 0)
(0.184736 -0.0358272 0)
(0.236528 -0.047087 0)
(-0.0667688 -0.237808 0)
(-0.115057 0.310244 0)
(-0.291429 0.324713 0)
(-0.344641 -0.0513756 0)
(-0.368133 -0.446877 0)
(-0.588074 -0.122832 0)
(-0.683319 -0.024767 0)
(-0.800307 -0.03993 0)
(-0.883196 -0.0933846 0)
(-0.941467 -0.111968 0)
(-0.907089 -0.0909098 0)
(-0.666141 -0.0520886 0)
(-0.389815 -0.0413669 0)
(-0.188452 0.00214612 0)
(-0.106054 0.016046 0)
(-0.00809975 0.0434077 0)
(0.0407936 0.036236 0)
(0.100218 -0.00163087 0)
(0.151061 -0.0225363 0)
(0.167438 -0.0283793 0)
(0.183432 -0.0407525 0)
(0.216166 -0.0604819 0)
(0.253304 -0.0678009 0)
(-0.163525 -0.0485919 0)
(-0.148865 0.165406 0)
(-0.0763685 0.360825 0)
(0.0160316 0.123473 0)
(-0.0789073 0.0736705 0)
(-0.268837 0.165449 0)
(-0.279633 0.165559 0)
(-0.291482 0.139442 0)
(-0.3125 0.0782103 0)
(-0.391104 -0.0582174 0)
(-0.514307 -0.200066 0)
(-0.678704 -0.322055 0)
(-0.805947 -0.4529 0)
(-0.87603 -0.238918 0)
(-0.772426 -0.170776 0)
(-0.587439 -0.122176 0)
(-0.434865 -0.0856458 0)
(-0.284226 -0.0976078 0)
(-0.115238 -0.0561285 0)
(-0.0184371 -0.0417634 0)
(0.0401086 -0.0634181 0)
(0.0881459 -0.0887914 0)
(0.128364 -0.100196 0)
(-0.0987921 0.0519402 0)
(-0.073005 0.0680498 0)
(-0.00888405 0.171889 0)
(0.078627 0.0272973 0)
(0.00298658 -0.0657311 0)
(-0.00992408 0.0848496 0)
(0.00113477 0.0959817 0)
(0.0178188 0.0560718 0)
(0.0392892 0.0496462 0)
(0.0566339 0.0765893 0)
(0.0561741 0.154835 0)
(-0.0316003 0.191935 0)
(-0.188186 -0.0145342 0)
(-0.355572 -0.14736 0)
(-0.39382 -0.189847 0)
(-0.402331 -0.307814 0)
(-0.471347 -0.225803 0)
(-0.532128 -0.269821 0)
(-0.612807 -0.26234 0)
(-0.641396 -0.174048 0)
(-0.665728 -0.168974 0)
(-0.646412 -0.177656 0)
(-0.48003 -0.141583 0)
(-0.0405971 0.125881 0)
(-0.0199486 0.086567 0)
(0.00374644 0.14521 0)
(0.0594589 0.0916138 0)
(-0.0153601 0.106974 0)
(-0.0271431 0.11154 0)
(-0.00303805 0.093451 0)
(-0.0112456 0.0627969 0)
(-0.0340719 0.0192604 0)
(-0.0484392 -0.0421546 0)
(-0.0301443 -0.0708353 0)
(0.0402712 -0.0440701 0)
(0.0792152 -0.040781 0)
(0.0187798 0.037077 0)
(-0.101369 -0.0360417 0)
(-0.113998 -0.136112 0)
(-0.168572 -0.069574 0)
(-0.184493 -0.0306054 0)
(-0.225677 -0.042286 0)
(-0.209833 -0.0440714 0)
(-0.188984 -0.0786511 0)
(-0.200095 -0.126566 0)
(-0.40477 -0.304667 0)
(-0.0277517 0.128361 0)
(-0.0172152 0.0428799 0)
(-0.00044235 0.107074 0)
(0.0167252 0.0855071 0)
(-0.00995123 0.0762037 0)
(-0.0105652 0.0971459 0)
(-0.00577961 0.0980538 0)
(-0.00624005 0.0877372 0)
(-0.0126334 0.0694993 0)
(-0.0307389 0.0524468 0)
(-0.0616903 0.03607 0)
(-0.0793106 0.0224159 0)
(-0.0924589 -0.0014842 0)
(-0.0654155 0.00462302 0)
(-0.0713214 -0.0923433 0)
(-0.108039 -0.156369 0)
(-0.169025 -0.123078 0)
(-0.175176 -0.122501 0)
(-0.167589 -0.147546 0)
(-0.111852 -0.181552 0)
(-0.0109477 -0.163915 0)
(0.0881569 -0.0327655 0)
(0.108336 0.23433 0)
(-0.0202414 0.152923 0)
(-0.0149451 0.0537838 0)
(-0.00931932 0.0994846 0)
(0.000539721 0.0937627 0)
(-0.00909273 0.0933744 0)
(-0.00776753 0.0948598 0)
(-0.00667765 0.0939833 0)
(-0.0094053 0.084199 0)
(-0.0194374 0.061987 0)
(-0.0352886 0.0287638 0)
(-0.0488234 -0.0012712 0)
(-0.0529692 -0.0160198 0)
(-0.0594768 -0.0164548 0)
(-0.0515478 0.0176935 0)
(-0.0405369 -0.00148591 0)
(-0.0748802 -0.0681389 0)
(-0.106406 -0.0638965 0)
(-0.113656 -0.0754939 0)
(-0.106922 -0.142401 0)
(-0.0876372 -0.237397 0)
(-0.043347 -0.287091 0)
(0.011033 -0.226528 0)
(0.130943 0.012384 0)
(-0.0170115 0.169641 0)
(-0.014322 0.0444907 0)
(-0.0103304 0.0875112 0)
(-0.00407871 0.0948788 0)
(-0.00876353 0.0955137 0)
(-0.00814248 0.0950418 0)
(-0.00635663 0.0945271 0)
(-0.00521889 0.0908459 0)
(-0.00759124 0.0809522 0)
(-0.0159452 0.0643488 0)
(-0.031407 0.0429648 0)
(-0.0505822 0.0181906 0)
(-0.0660757 -0.0079969 0)
(-0.0651824 -0.0229763 0)
(-0.0487596 -0.0500825 0)
(-0.0616643 -0.0692815 0)
(-0.0840373 -0.0677441 0)
(-0.0825449 -0.0841795 0)
(-0.0741987 -0.145012 0)
(-0.0766037 -0.226676 0)
(-0.0728321 -0.297729 0)
(-0.0557635 -0.262407 0)
(0.0125147 -0.0577015 0)
(-0.0123864 0.18248 0)
(-0.0111998 0.0459303 0)
(-0.0109606 0.0831822 0)
(-0.00739644 0.0952454 0)
(-0.00950615 0.0953085 0)
(-0.00940178 0.093835 0)
(-0.00821322 0.0927176 0)
(-0.00631641 0.0897646 0)
(-0.00584413 0.0814788 0)
(-0.00919093 0.0655267 0)
(-0.0165636 0.0445174 0)
(-0.0271722 0.0239593 0)
(-0.040476 0.00790332 0)
(-0.0519822 -0.00327116 0)
(-0.0620738 -0.0193629 0)
(-0.0811482 -0.0418279 0)
(-0.0993522 -0.0563741 0)
(-0.103559 -0.0893754 0)
(-0.108398 -0.151301 0)
(-0.118684 -0.221637 0)
(-0.158188 -0.283665 0)
(-0.201888 -0.285111 0)
(-0.207145 -0.123467 0)
(-0.00810778 0.192702 0)
(-0.0090908 0.046582 0)
(-0.0104845 0.0811305 0)
(-0.00928436 0.0959668 0)
(-0.0108483 0.0960446 0)
(-0.0115309 0.0936175 0)
(-0.0116354 0.0913135 0)
(-0.0108783 0.08792 0)
(-0.0102538 0.0813012 0)
(-0.0118158 0.0698427 0)
(-0.0173723 0.0543039 0)
(-0.0277544 0.0365381 0)
(-0.0416775 0.0193881 0)
(-0.0567118 0.0043748 0)
(-0.0727391 -0.0102956 0)
(-0.0941166 -0.0240159 0)
(-0.114767 -0.0405699 0)
(-0.131168 -0.0747747 0)
(-0.151844 -0.129219 0)
(-0.184713 -0.183868 0)
(-0.249971 -0.224054 0)
(-0.34503 -0.212395 0)
(-0.435 -0.0310247 0)
(-0.00488164 0.199899 0)
(-0.00737957 0.0486738 0)
(-0.00981572 0.0810318 0)
(-0.0103733 0.0971614 0)
(-0.012262 0.0974146 0)
(-0.0139257 0.0947187 0)
(-0.0154582 0.0918185 0)
(-0.0166216 0.0880831 0)
(-0.0178992 0.0823439 0)
(-0.0207114 0.0735652 0)
(-0.026787 0.061865 0)
(-0.0370941 0.0487501 0)
(-0.0511639 0.0363174 0)
(-0.0681514 0.0247389 0)
(-0.0877461 0.0126037 0)
(-0.109856 -0.00101126 0)
(-0.132325 -0.0188188 0)
(-0.157772 -0.0499864 0)
(-0.193119 -0.093222 0)
(-0.242358 -0.131605 0)
(-0.312124 -0.148231 0)
(-0.407526 -0.114593 0)
(-0.485854 0.0404957 0)
(-0.00270854 0.204998 0)
(-0.00606957 0.051659 0)
(-0.00925724 0.0825908 0)
(-0.0112031 0.0991438 0)
(-0.0136291 0.0995129 0)
(-0.016189 0.096939 0)
(-0.0189664 0.0940816 0)
(-0.021971 0.0904668 0)
(-0.0254829 0.0855103 0)
(-0.0303235 0.0788057 0)
(-0.0377054 0.0704527 0)
(-0.0484791 0.0612311 0)
(-0.0625944 0.051968 0)
(-0.0795178 0.0426923 0)
(-0.0990909 0.0329496 0)
(-0.12134 0.0222885 0)
(-0.146393 0.00873327 0)
(-0.1783 -0.0125759 0)
(-0.223573 -0.0425275 0)
(-0.282318 -0.0720404 0)
(-0.351319 -0.0829816 0)
(-0.430764 -0.0429569 0)
(-0.503127 0.0996083 0)
(-0.00137802 0.20876 0)
(-0.0052208 0.0551406 0)
(-0.00894153 0.0852686 0)
(-0.0118634 0.101875 0)
(-0.0148685 0.102337 0)
(-0.0181453 0.100076 0)
(-0.0218175 0.0976518 0)
(-0.0260736 0.0946574 0)
(-0.0311568 0.0907744 0)
(-0.0375453 0.0859042 0)
(-0.0459577 0.08019 0)
(-0.0569887 0.0739722 0)
(-0.0707645 0.0675723 0)
(-0.0872418 0.0610648 0)
(-0.106778 0.054244 0)
(-0.129872 0.0471311 0)
(-0.157336 0.0396568 0)
(-0.192086 0.0297521 0)
(-0.239977 0.0139566 0)
(-0.30627 -0.00414856 0)
(-0.391199 -0.00227736 0)
(-0.484301 0.0551612 0)
(-0.555946 0.189378 0)
(-0.000709726 0.211686 0)
(-0.00473285 0.0589256 0)
(-0.00884656 0.0887473 0)
(-0.0124169 0.105194 0)
(-0.0158879 0.105764 0)
(-0.0196959 0.103887 0)
(-0.0239682 0.10205 0)
(-0.0289134 0.0998871 0)
(-0.0348075 0.0971697 0)
(-0.0419817 0.0939168 0)
(-0.0508368 0.0902745 0)
(-0.0617705 0.0864464 0)
(-0.0750556 0.0826697 0)
(-0.0909794 0.0791142 0)
(-0.110072 0.0758961 0)
(-0.133195 0.073262 0)
(-0.161229 0.0716608 0)
(-0.194946 0.0713155 0)
(-0.237816 0.0717519 0)
(-0.298004 0.0736759 0)
(-0.380424 0.0846003 0)
(-0.473176 0.127342 0)
(-0.549201 0.233584 0)
(-0.00045646 0.214238 0)
(-0.00448224 0.0629483 0)
(-0.00891367 0.0927454 0)
(-0.0128452 0.108956 0)
(-0.0166434 0.109633 0)
(-0.0208052 0.108156 0)
(-0.0254448 0.10692 0)
(-0.0307442 0.105598 0)
(-0.0369372 0.103992 0)
(-0.0443017 0.102168 0)
(-0.0531293 0.100268 0)
(-0.0637038 0.0984954 0)
(-0.0763156 0.0970846 0)
(-0.0912986 0.0963278 0)
(-0.109062 0.096616 0)
(-0.130203 0.0983156 0)
(-0.155491 0.101627 0)
(-0.185683 0.107209 0)
(-0.222177 0.117172 0)
(-0.267887 0.135111 0)
(-0.326593 0.165702 0)
(-0.398069 0.216401 0)
(-0.468438 0.299921 0)
(-0.000414985 0.216679 0)
(-0.0043755 0.0670988 0)
(-0.00902039 0.0970412 0)
(-0.0131199 0.112967 0)
(-0.0171166 0.113753 0)
(-0.0214615 0.112692 0)
(-0.0262755 0.112037 0)
(-0.0316983 0.111478 0)
(-0.0379204 0.110871 0)
(-0.045162 0.11029 0)
(-0.053659 0.109895 0)
(-0.0636459 0.109894 0)
(-0.0753661 0.110543 0)
(-0.0890914 0.112156 0)
(-0.105104 0.115167 0)
(-0.123733 0.120132 0)
(-0.145461 0.127724 0)
(-0.170988 0.138749 0)
(-0.201155 0.154592 0)
(-0.236212 0.178433 0)
(-0.275114 0.215787 0)
(-0.316339 0.272628 0)
(-0.356567 0.352032 0)
(-0.000445096 0.219106 0)
(-0.00431363 0.0713407 0)
(-0.00911014 0.101466 0)
(-0.0132258 0.117059 0)
(-0.0172865 0.117982 0)
(-0.0216536 0.117334 0)
(-0.0264838 0.117218 0)
(-0.0318617 0.117334 0)
(-0.0379244 0.117583 0)
(-0.0448454 0.11806 0)
(-0.0528086 0.118932 0)
(-0.0619926 0.120413 0)
(-0.0725723 0.122757 0)
(-0.0847321 0.126306 0)
(-0.0986611 0.131511 0)
(-0.114545 0.138934 0)
(-0.132541 0.149262 0)
(-0.15277 0.163379 0)
(-0.175398 0.182546 0)
(-0.200275 0.208969 0)
(-0.225372 0.246498 0)
(-0.246194 0.299873 0)
(-0.258628 0.371307 0)
(-0.000471533 0.221522 0)
(-0.00423836 0.0756275 0)
(-0.00913382 0.105917 0)
(-0.0131267 0.121147 0)
(-0.0171398 0.122196 0)
(-0.0214264 0.121935 0)
(-0.0261266 0.122301 0)
(-0.0312988 0.123005 0)
(-0.037049 0.123971 0)
(-0.0434968 0.125313 0)
(-0.0507611 0.127201 0)
(-0.0589692 0.129845 0)
(-0.0682324 0.133496 0)
(-0.0786392 0.138483 0)
(-0.090266 0.145241 0)
(-0.103146 0.154313 0)
(-0.117233 0.166333 0)
(-0.132364 0.182053 0)
(-0.148233 0.202441 0)
(-0.164253 0.228868 0)
(-0.17865 0.263548 0)
(-0.187266 0.309412 0)
(-0.185005 0.368188 0)
(-0.000455247 0.223894 0)
(-0.00410084 0.0799293 0)
(-0.0090399 0.110305 0)
(-0.0128376 0.125142 0)
(-0.0167139 0.12629 0)
(-0.0208119 0.126375 0)
(-0.0252741 0.127158 0)
(-0.0301192 0.128346 0)
(-0.0354262 0.129889 0)
(-0.0412734 0.131905 0)
(-0.047731 0.134564 0)
(-0.0548656 0.138062 0)
(-0.0627297 0.142638 0)
(-0.0713411 0.148586 0)
(-0.0806788 0.156292 0)
(-0.0906606 0.166232 0)
(-0.101102 0.178942 0)
(-0.111681 0.195007 0)
(-0.121898 0.215117 0)
(-0.130958 0.240052 0)
(-0.137364 0.270803 0)
(-0.138106 0.308799 0)
(-0.129151 0.355178 0)
(-0.000378046 0.226168 0)
(-0.00389947 0.0842024 0)
(-0.00881784 0.114541 0)
(-0.0123519 0.128949 0)
(-0.016027 0.130183 0)
(-0.019864 0.130558 0)
(-0.024007 0.131677 0)
(-0.0284408 0.133247 0)
(-0.0332173 0.135229 0)
(-0.0383828 0.137741 0)
(-0.0439665 0.140944 0)
(-0.0499922 0.145017 0)
(-0.0564622 0.150173 0)
(-0.0633343 0.156669 0)
(-0.0705205 0.164822 0)
(-0.0778615 0.175021 0)
(-0.085087 0.187688 0)
(-0.0917938 0.203245 0)
(-0.0974138 0.222132 0)
(-0.101147 0.24478 0)
(-0.101814 0.271466 0)
(-0.097359 0.302603 0)
(-0.0850001 0.33885 0)
(-0.000238061 0.228278 0)
(-0.00363146 0.0884008 0)
(-0.00845404 0.118574 0)
(-0.0116765 0.132516 0)
(-0.0151057 0.133809 0)
(-0.0186324 0.134421 0)
(-0.0223989 0.135794 0)
(-0.0263676 0.137642 0)
(-0.0305677 0.139931 0)
(-0.0350163 0.142776 0)
(-0.0397134 0.14632 0)
(-0.0446463 0.15072 0)
(-0.0497777 0.156162 0)
(-0.0550262 0.162859 0)
(-0.0602593 0.171059 0)
(-0.0652701 0.18106 0)
(-0.0697475 0.193176 0)
(-0.0732727 0.207682 0)
(-0.075285 0.224818 0)
(-0.0750457 0.244786 0)
(-0.0716407 0.26753 0)
(-0.06371 0.292901 0)
(-0.0493788 0.321205 0)
(-4.91166e-05 0.230159 0)
(-0.00329291 0.0924698 0)
(-0.00793582 0.122355 0)
(-0.0108194 0.13581 0)
(-0.0139723 0.137129 0)
(-0.0171543 0.137923 0)
(-0.0205144 0.139472 0)
(-0.0239934 0.141497 0)
(-0.027603 0.143973 0)
(-0.0313367 0.147001 0)
(-0.0351727 0.150708 0)
(-0.0390707 0.155229 0)
(-0.0429641 0.160718 0)
(-0.0467465 0.167339 0)
(-0.0502608 0.175277 0)
(-0.0532821 0.184746 0)
(-0.0554895 0.195962 0)
(-0.0564789 0.209083 0)
(-0.0557428 0.224204 0)
(-0.0526236 0.241372 0)
(-0.0463862 0.260401 0)
(-0.0361408 0.280877 0)
(-0.0206424 0.302816 0)
(0.000162475 0.231752 0)
(-0.00287741 0.0963427 0)
(-0.00726445 0.125834 0)
(-0.00978881 0.138803 0)
(-0.0126475 0.14012 0)
(-0.0154637 0.141037 0)
(-0.0184041 0.14269 0)
(-0.0213902 0.144807 0)
(-0.0244204 0.147363 0)
(-0.0274708 0.150448 0)
(-0.0305024 0.15417 0)
(-0.0334543 0.158643 0)
(-0.0362423 0.163988 0)
(-0.0387454 0.170323 0)
(-0.0407944 0.177776 0)
(-0.0421681 0.186485 0)
(-0.042558 0.196589 0)
(-0.0415824 0.208154 0)
(-0.038809 0.221167 0)
(-0.0336862 0.235576 0)
(-0.0255798 0.251161 0)
(-0.0138782 0.267424 0)
(0.00222351 0.284113 0)
(0.00037157 0.233007 0)
(-0.00237627 0.0999537 0)
(-0.00646274 0.128966 0)
(-0.00860202 0.141477 0)
(-0.011157 0.142763 0)
(-0.0135929 0.143752 0)
(-0.0161108 0.145447 0)
(-0.0186139 0.147583 0)
(-0.0210928 0.150133 0)
(-0.0235106 0.153175 0)
(-0.0258135 0.156795 0)
(-0.0279269 0.161088 0)
(-0.0297604 0.16614 0)
(-0.0311851 0.172034 0)
(-0.0320298 0.178851 0)
(-0.0320824 0.186665 0)
(-0.0310659 0.195547 0)
(-0.0286413 0.205502 0)
(-0.0244327 0.21643 0)
(-0.0179933 0.228204 0)
(-0.0087744 0.240613 0)
(0.00367365 0.253186 0)
(0.019929 0.265498 0)
(0.000582318 0.233872 0)
(-0.00177665 0.103253 0)
(-0.00558182 0.13172 0)
(-0.00729096 0.143822 0)
(-0.00953945 0.145048 0)
(-0.0115826 0.146066 0)
(-0.0136801 0.147755 0)
(-0.0157154 0.149853 0)
(-0.0176763 0.15233 0)
(-0.0195162 0.155251 0)
(-0.0211696 0.158683 0)
(-0.0225603 0.162699 0)
(-0.023596 0.167353 0)
(-0.0241369 0.172703 0)
(-0.0240217 0.178794 0)
(-0.0230642 0.185647 0)
(-0.0210148 0.193273 0)
(-0.0175814 0.201642 0)
(-0.0124475 0.210593 0)
(-0.00526217 0.219929 0)
(0.00443873 0.229403 0)
(0.0170453 0.238705 0)
(0.0330117 0.2474 0)
(0.000844245 0.234281 0)
(-0.00105817 0.106248 0)
(-0.00468812 0.134071 0)
(-0.00590249 0.145829 0)
(-0.00785281 0.14696 0)
(-0.00948808 0.147975 0)
(-0.011171 0.149621 0)
(-0.0127536 0.151637 0)
(-0.0142229 0.153997 0)
(-0.0155314 0.156745 0)
(-0.0166074 0.159929 0)
(-0.0173776 0.163601 0)
(-0.0177467 0.167799 0)
(-0.0175756 0.172556 0)
(-0.0167203 0.177878 0)
(-0.0150239 0.183754 0)
(-0.0122604 0.190156 0)
(-0.00818565 0.19702 0)
(-0.00254407 0.204133 0)
(0.00489561 0.211275 0)
(0.0145646 0.218158 0)
(0.0268742 0.224588 0)
(0.0420441 0.230201 0)
(0.00127211 0.234135 0)
(-0.000197436 0.109021 0)
(-0.00386618 0.136018 0)
(-0.00448713 0.147478 0)
(-0.0061759 0.148483 0)
(-0.00738649 0.149476 0)
(-0.00866407 0.15105 0)
(-0.00980436 0.152961 0)
(-0.0108014 0.155165 0)
(-0.0116134 0.1577 0)
(-0.0121661 0.160602 0)
(-0.0123816 0.163899 0)
(-0.0121772 0.167619 0)
(-0.0114263 0.171761 0)
(-0.0100003 0.17632 0)
(-0.00776117 0.181248 0)
(-0.00452025 0.186501 0)
(-0.000106077 0.191965 0)
(0.00572499 0.197467 0)
(0.0131329 0.202684 0)
(0.0224042 0.207393 0)
(0.0339165 0.21134 0)
(0.0478412 0.214313 0)
(0.00195759 0.233138 0)
(0.000789166 0.111875 0)
(-0.00316365 0.137625 0)
(-0.00309372 0.148767 0)
(-0.00458904 0.149615 0)
(-0.00536659 0.150576 0)
(-0.00625788 0.152058 0)
(-0.00697906 0.153833 0)
(-0.00753514 0.155853 0)
(-0.00787182 0.158149 0)
(-0.00793037 0.160748 0)
(-0.00763503 0.163659 0)
(-0.00691786 0.166894 0)
(-0.00565991 0.170439 0)
(-0.00375744 0.174262 0)
(-0.00109825 0.178306 0)
(0.00246444 0.182516 0)
(0.00709615 0.186738 0)
(0.0129426 0.190863 0)
(0.0201376 0.194497 0)
(0.028835 0.197386 0)
(0.0392777 0.199282 0)
(0.0517087 0.200123 0)
(0.002853 0.231068 0)
(0.00181466 0.114997 0)
(-0.00252369 0.139029 0)
(-0.00178629 0.149727 0)
(-0.00318885 0.150381 0)
(-0.00353973 0.151316 0)
(-0.00410036 0.15267 0)
(-0.004445 0.154278 0)
(-0.00459642 0.156094 0)
(-0.00449697 0.158131 0)
(-0.00410089 0.160411 0)
(-0.00333656 0.162929 0)
(-0.00214077 0.165668 0)
(-0.000425818 0.168638 0)
(0.00189745 0.171773 0)
(0.00494162 0.175001 0)
(0.0087914 0.178279 0)
(0.0135945 0.181461 0)
(0.0194591 0.184387 0)
(0.02644 0.18676 0)
(0.0345965 0.188203 0)
(0.044044 0.18853 0)
(0.0550576 0.187749 0)
(0.00380358 0.227949 0)
(0.00280252 0.118194 0)
(-0.00191634 0.140399 0)
(-0.000662335 0.150404 0)
(-0.00207219 0.150842 0)
(-0.00203585 0.151754 0)
(-0.00236732 0.152948 0)
(-0.00240012 0.154367 0)
(-0.00222405 0.155947 0)
(-0.0017707 0.1577 0)
(-0.000995568 0.159636 0)
(0.000148006 0.161737 0)
(0.00174545 0.163999 0)
(0.00387474 0.166397 0)
(0.00656474 0.168881 0)
(0.00995029 0.171379 0)
(0.0141118 0.17382 0)
(0.0191208 0.176079 0)
(0.0250521 0.177979 0)
(0.0319548 0.179288 0)
(0.0398215 0.179653 0)
(0.0486285 0.17883 0)
(0.0586534 0.176907 0)
(0.00473204 0.223869 0)
(0.00377393 0.12158 0)
(-0.00138673 0.141797 0)
(0.000170783 0.150856 0)
(-0.00133216 0.151107 0)
(-0.000985326 0.151975 0)
(-0.00122132 0.152992 0)
(-0.00105538 0.154187 0)
(-0.000681891 0.155498 0)
(-5.76444e-06 0.156938 0)
(0.000999212 0.158506 0)
(0.00240302 0.160184 0)
(0.00427159 0.161974 0)
(0.0066623 0.163812 0)
(0.00962625 0.165658 0)
(0.0132692 0.167467 0)
(0.0176436 0.16912 0)
(0.022815 0.17051 0)
(0.0288505 0.171501 0)
(0.035804 0.171885 0)
(0.0436226 0.171369 0)
(0.0521935 0.169682 0)
(0.0618072 0.166952 0)
(0.00570236 0.218822 0)
(0.00468992 0.125305 0)
(-0.00099208 0.143308 0)
(0.000721851 0.151163 0)
(-0.00100477 0.151302 0)
(-0.000466323 0.152086 0)
(-0.000766769 0.152916 0)
(-0.00055024 0.153865 0)
(-0.000131127 0.154893 0)
(0.000594981 0.156008 0)
(0.00165633 0.157197 0)
(0.00312368 0.158461 0)
(0.00505015 0.159756 0)
(0.00749128 0.161039 0)
(0.0105116 0.162255 0)
(0.0141858 0.163367 0)
(0.0185698 0.16424 0)
(0.0237508 0.164818 0)
(0.0297708 0.164936 0)
(0.0366773 0.164446 0)
(0.0444468 0.163082 0)
(0.0529389 0.160647 0)
(0.0624675 0.157247 0)
(0.00670054 0.212803 0)
(0.00548233 0.129416 0)
(-0.000711871 0.145076 0)
(0.00100945 0.151476 0)
(-0.00104637 0.151562 0)
(-0.000469967 0.152231 0)
(-0.000958383 0.152859 0)
(-0.000830398 0.153573 0)
(-0.000520793 0.15432 0)
(8.118e-05 0.15511 0)
(0.00101034 0.155932 0)
(0.00232763 0.156775 0)
(0.00407561 0.157584 0)
(0.00631437 0.158323 0)
(0.00911842 0.158924 0)
(0.012535 0.15934 0)
(0.0166435 0.15947 0)
(0.021519 0.159247 0)
(0.0271964 0.158492 0)
(0.0337353 0.157116 0)
(0.0411532 0.154892 0)
(0.0493233 0.151681 0)
(0.0585923 0.14759 0)
(0.00758032 0.206021 0)
(0.00600872 0.133909 0)
(-0.000531416 0.147211 0)
(0.00108794 0.152048 0)
(-0.00134235 0.152095 0)
(-0.000847446 0.152629 0)
(-0.00160127 0.153054 0)
(-0.00165508 0.153542 0)
(-0.00157434 0.154027 0)
(-0.00121947 0.154514 0)
(-0.000567554 0.154993 0)
(0.000431002 0.155437 0)
(0.00182238 0.155793 0)
(0.00365952 0.156017 0)
(0.00600288 0.156046 0)
(0.00890884 0.155807 0)
(0.0124517 0.15524 0)
(0.0166851 0.154229 0)
(0.0216638 0.152653 0)
(0.0274433 0.150401 0)
(0.0340546 0.147319 0)
(0.0413942 0.143264 0)
(0.0498496 0.138421 0)
(0.00818309 0.198812 0)
(0.00621227 0.138583 0)
(-0.000444787 0.149582 0)
(0.00104021 0.152909 0)
(-0.00173888 0.152911 0)
(-0.00137687 0.153281 0)
(-0.00241526 0.153501 0)
(-0.00268068 0.15379 0)
(-0.00286576 0.154034 0)
(-0.00280733 0.154247 0)
(-0.00249196 0.154415 0)
(-0.00188075 0.154508 0)
(-0.000930071 0.154468 0)
(0.000409571 0.154243 0)
(0.0021814 0.153763 0)
(0.00444136 0.152959 0)
(0.00724976 0.151763 0)
(0.0106534 0.150063 0)
(0.014701 0.147764 0)
(0.0194391 0.144721 0)
(0.0249036 0.140826 0)
(0.0309979 0.135956 0)
(0.0381096 0.130374 0)
(0.0084643 0.191359 0)
(0.00609616 0.143178 0)
(-0.000433259 0.151945 0)
(0.000935463 0.15386 0)
(-0.00209761 0.153846 0)
(-0.00187116 0.153992 0)
(-0.0031316 0.154066 0)
(-0.00357287 0.154155 0)
(-0.00401317 0.154203 0)
(-0.00421823 0.154203 0)
(-0.00420398 0.154116 0)
(-0.00394911 0.153912 0)
(-0.00341192 0.153546 0)
(-0.00255048 0.15295 0)
(-0.0013347 0.152047 0)
(0.000287177 0.150773 0)
(0.00236253 0.149044 0)
(0.00493483 0.146766 0)
(0.00801616 0.143847 0)
(0.0116517 0.140157 0)
(0.0159095 0.135605 0)
(0.020652 0.130011 0)
(0.0262359 0.123811 0)
(0.00829622 0.183885 0)
(0.00563501 0.147589 0)
(-0.000405811 0.154174 0)
(0.000817473 0.154785 0)
(-0.0022952 0.154818 0)
(-0.00213946 0.15472 0)
(-0.00351487 0.154661 0)
(-0.0040854 0.154571 0)
(-0.00465425 0.154463 0)
(-0.00504481 0.154276 0)
(-0.00527076 0.153981 0)
(-0.0052913 0.153536 0)
(-0.00507897 0.152896 0)
(-0.0046117 0.151987 0)
(-0.00385924 0.15074 0)
(-0.00278545 0.149085 0)
(-0.00135412 0.14694 0)
(0.000482145 0.144208 0)
(0.0027197 0.140777 0)
(0.00541488 0.136593 0)
(0.0085493 0.131509 0)
(0.0120547 0.125377 0)
(0.0162617 0.118656 0)
(0.00745173 0.177258 0)
(0.00473458 0.151858 0)
(-0.000352966 0.15649 0)
(0.000727589 0.156019 0)