/*--------------------------------*- C++ -*----------------------------------*\
| =========                 |                                                 |
| \\      /  F ield         | OpenFOAM: The Open Source CFD Toolbox           |
|  \\    /   O peration     | Version:  2206                                  |
|   \\  /    A nd           | Website:  www.openfoam.com                      |
|    \\/     M anipulation  |                                                 |
\*---------------------------------------------------------------------------*/
FoamFile
{
    version     2.0;
    format      ascii;
    arch        "LSB;label=32;scalar=64";
    class       volScalarField;
    location    "0.525";
    object      alpha.water;
}
// * * * * * * * * * * * * * * * * * * * * * * * * * * * * * * * * * * * * * //

dimensions      [0 0 0 0 0 0 0];

internalField   nonuniform List<scalar> 
2268
(
1
1
1
1
1
1
1
1
1
1
1
1
1
1
1
1
1
1
0.990267
0.892179
0.894929
0.990811
0.998617
1
1
1
1
1
1
1
1
1
1
1
1
1
1
1
1
1
1
1
0.959961
0.895345
0.972169
0.998617
1
1
1
1
1
1
1
1
1
1
1
1
1
1
1
1
1
1
1
0.999906
0.895775
0.950043
0.998616
1
1
1
1
1
1
1
1
1
1
1
1
1
1
1
1
1
1
1
1
0.933941
0.958332
0.998153
1
1
1
1
1
1
1
1
1
1
1
1
1
1
1
1
1
1
1
1
0.997684
0.998072
0.999631
1
1
1
1
1
1
1
1
1
1
1
1
1
1
1
1
1
1
1
1
1
0.999999
0.999756
1
1
1
0.999999
0.999998
0.999998
0.999999
1
1
1
1
1
1
1
1
1
1
1
1
1
1
1
0.999758
1
1
0.999976
0.999928
0.999915
0.999938
0.999971
0.99999
0.999998
1
1
1
1
1
1
1
1
1
1
1
1
1
0.999762
0.167076
0.179243
0.0925108
0.00254788
0.000285636
0.000285636
0.000285636
0.000604729
0.101859
0.30095
0.30095
0.281221
0.366621
0.515562
0.581035
0.615225
0.618533
0.622612
0.583234
0.526314
0.13959
0.00215138
0.0104118
0.0111125
0.00103932
0.000604729
0.0229288
0.0696753
0.0252903
0.00191098
4.55677e-05
0.000151879
0.000563988
0.0597603
0.268827
0.48325
0.623893
0.618714
0.524565
0.00215138
0.00137039
0.00119665
0.00421742
0.00232475
0.00633693
0.0233878
0.0202092
1.54673e-05
3.12053e-06
6.18257e-06
2.01304e-05
9.69969e-05
0.000532713
0.00214515
0.00807899
0.327873
0.767081
0.551044
0.0654715
0.00114155
0.00101081
0.000865622
0.00572765
0.00876555
0.0229769
0.00182944
2.94818e-06
1.88987e-06
1.87445e-06
1.64509e-06
6.74211e-06
5.22893e-05
0.000514292
0.00314073
0.203001
0.768353
0.911008
0.732484
0.0292003
0.000865622
0.000865555
0.00412104
0.00669145
0.017001
4.66126e-06
1.89451e-06
1.88164e-06
1.24977e-06
5.96883e-07
-4.30069e-07
3.49731e-09
6.22214e-05
0.00072272
0.121776
0.768375
0.999967
0.999971
0.604818
0.000970033
0.000865534
0.000972539
0.00157718
0.0110569
2.28517e-06
1.98161e-06
1.26263e-06
6.17888e-07
4.1497e-07
8.6607e-08
1.29679e-08
-4.08667e-08
5.19997e-05
0.060947
0.76824
0.999971
0.999974
0.99998
0.0676737
0.00097187
0.00105742
0.00582809
0.00519693
3.54513e-06
2.28518e-06
3.84162e-06
6.87937e-07
1.18348e-07
1.63343e-08
8.0293e-09
6.16146e-09
-1.69754e-06
0.0299802
0.767527
0.999873
0.999972
0.999979
0.306247
0.00105687
0.00093192
0.00758235
0.00653474
6.96373e-06
4.25768e-06
2.14636e-05
2.20634e-06
3.94592e-07
5.06364e-08
1.07716e-08
8.05397e-09
3.84876e-09
0.012929
0.750692
0.999985
0.977585
0.893678
0.811458
0.830113
0.886077
0.936895
0.964304
0.983823
0.996375
0.999961
1
0.999999
1
1
1
1
1
1
1
1
1
0.999995
0.596147
0.360922
0.152265
0.09514
0.149873
0.23888
0.291002
0.33041
0.393919
0.489128
0.606136
0.720495
0.833944
0.933962
1
1
1
1
1
1
1
1
1
2.06021e-18
2.02491e-18
2.66806e-18
4.9375e-15
1.66459e-14
5.89109e-13
4.21715e-11
1.14715e-12
4.83369e-12
1.79903e-10
0.00158781
0.0395305
0.0927454
0.176717
0.321205
0.536118
0.84057
0.999342
1
1
1
1
1
2.02403e-18
3.68991e-17
7.01312e-16
8.18192e-16
8.53561e-15
3.6567e-13
8.7725e-13
1.09744e-12
1.14715e-12
4.83369e-12
1.79903e-10
3.79732e-09
7.07037e-09
9.26731e-09
2.18135e-07
0.0155668
0.0650162
0.199324
0.432893
0.757158
0.964634
0.990426
0.995803
1.99044e-18
1.10442e-17
3.78754e-16
2.4464e-14
4.43357e-13
7.04915e-13
7.06606e-13
9.19886e-13
5.3507e-10
1.66004e-08
4.95844e-08
7.07037e-09
6.83035e-09
1.55583e-09
9.26731e-09
2.18135e-07
1.99542e-06
1.16567e-05
0.0155159
0.0410346
0.121424
0.251835
0.432877
1.34568e-18
7.43591e-17
5.85906e-15
2.0919e-13
2.24318e-12
4.18111e-12
4.5473e-12
1.3434e-12
3.01032e-09
1.89859e-07
3.17469e-07
1.48565e-07
6.92603e-09
1.53019e-09
2.95714e-05
8.02908e-05
6.36111e-05
1.88323e-05
1.94286e-05
2.02267e-05
2.12952e-05
2.24579e-05
2.36879e-05
2.36435e-19
1.08638e-16
2.20011e-14
5.55427e-13
3.32322e-12
7.24313e-12
8.89317e-12
5.34702e-12
9.61157e-09
2.54677e-07
3.17469e-07
3.09632e-07
1.53019e-09
1.53027e-09
1.54105e-05
8.12194e-05
4.50382e-05
1.87049e-05
3.07767e-05
5.95882e-05
6.7745e-05
5.93167e-05
7.83289e-05
1.25413e-22
6.72071e-18
7.63367e-15
3.86066e-13
3.18313e-12
8.0013e-12
1.06099e-11
1.05879e-11
1.10153e-11
1.0733e-07
3.17469e-07
2.10408e-07
9.64142e-09
1.57252e-09
1.59026e-09
3.54189e-06
3.80044e-12
2.47266e-11
3.08018e-05
0.000103612
9.62967e-05
0.000113729
0.000176554
-8.21673e-19
1.31009e-19
1.54829e-15
1.48954e-13
1.91648e-12
6.88804e-12
1.07395e-11
1.11948e-11
1.12113e-11
6.40316e-09
4.07279e-08
6.70091e-09
4.89062e-09
9.12177e-09
4.29004e-09
3.80044e-12
2.78398e-12
3.80044e-12
5.20703e-05
0.000263224
0.000278882
0.000281326
0.000117353
-3.31208e-18
-6.28374e-35
2.89793e-16
4.00552e-14
6.28505e-13
3.49705e-12
1.07375e-11
1.58597e-11
1.66293e-11
1.66272e-11
1.69847e-11
1.9272e-11
1.46903e-09
1.38405e-08
7.54122e-09
2.56018e-10
2.30387e-12
2.62119e-12
2.89743e-05
9.45414e-05
0.000280327
0.000287054
9.31755e-05
-5.04421e-18
-8.09138e-18
5.54614e-17
1.04817e-14
1.7241e-13
1.16582e-12
6.37524e-12
1.58731e-11
2.0322e-11
2.15232e-10
8.28982e-10
2.227e-09
2.8252e-09
1.09711e-08
2.73198e-09
5.5722e-11
2.23326e-12
1.27719e-12
2.52943e-11
5.38449e-09
0.000114861
0.000288884
0.000314046
-5.33949e-18
-1.40998e-17
1.02795e-17
2.34973e-15
4.11187e-14
3.24566e-13
3.32196e-12
1.11045e-11
1.30491e-11
1.94321e-10
1.50431e-09
3.94288e-09
3.78092e-09
5.36433e-10
1.15818e-10
2.67409e-11
2.19812e-12
2.133e-13
5.53129e-13
2.53246e-11
1.18313e-09
9.94069e-05
0.000313837
-4.87203e-18
-1.29899e-17
6.66204e-35
4.35754e-16
8.71894e-15
7.02393e-14
1.01693e-12
5.1883e-12
9.72061e-12
7.48229e-11
1.50608e-09
3.67556e-09
1.57451e-09
2.92364e-11
2.92198e-11
2.03447e-11
1.75287e-12
1.66651e-13
1.66607e-13
1.72475e-13
1.93774e-13
-5.06333e-13
-1.60329e-12
-4.07602e-18
-1.03721e-17
-8.9807e-18
6.07777e-17
1.56735e-15
1.28476e-14
2.17108e-13
1.80042e-12
6.43989e-12
3.10681e-11
5.20048e-10
1.34541e-09
2.16313e-10
9.23209e-11
3.88711e-11
9.26874e-12
1.21432e-12
1.6673e-13
1.66565e-13
1.66608e-13
1.7574e-13
1.96015e-13
2.24775e-13
-3.09802e-18
-7.14308e-18
-1.31712e-17
5.67364e-18
2.22564e-16
2.506e-15
5.00322e-14
5.12448e-13
2.93802e-12
1.13895e-11
4.20055e-11
6.08072e-11
5.87842e-11
8.53996e-11
2.7165e-11
4.48814e-12
6.24713e-13
1.47724e-13
2.21186e-13
8.92305e-13
1.87816e-12
2.58797e-12
2.82179e-12
-2.10761e-18
-4.22955e-18
-9.41757e-18
-8.34087e-36
2.28703e-17
4.73786e-16
1.08446e-14
1.50176e-13
1.46145e-12
3.46774e-12
8.59912e-13
8.57194e-13
9.86957e-12
1.69182e-11
4.71531e-12
1.35145e-12
1.80066e-13
3.96292e-14
1.10582e-13
7.55655e-13
2.2342e-12
5.16989e-12
1.09365e-11
-1.26646e-18
-2.18023e-18
-5.55917e-18
-1.46066e-18
1.64528e-18
8.50945e-17
2.12281e-15
3.12228e-14
3.48086e-13
9.55782e-13
8.94848e-13
5.53362e-13
3.28681e-13
3.3862e-13
4.1316e-13
2.12675e-13
4.21729e-14
1.02357e-14
8.94749e-15
1.01788e-13
8.63864e-13
4.41021e-12
1.66637e-11
-6.62916e-19
-9.63839e-19
-2.73909e-18
-1.09888e-18
7.64421e-20
1.53818e-17
3.81811e-16
3.56194e-15
2.32612e-14
9.99315e-14
2.11085e-13
2.83136e-13
1.19776e-13
2.37233e-14
5.58427e-15
3.9679e-15
3.21991e-15
2.18644e-15
3.30795e-15
4.34077e-14
3.64621e-13
1.95177e-12
8.73239e-12
-2.9793e-19
-3.57411e-19
-1.10904e-18
-4.94952e-19
1.81262e-21
2.09327e-18
5.44515e-17
5.35012e-16
3.58125e-15
1.46347e-14
2.63139e-14
2.93965e-14
1.67306e-14
8.07483e-15
7.01832e-16
4.70095e-17
1.36864e-17
3.38123e-17
9.29094e-16
1.66508e-14
1.76317e-13
1.05039e-12
4.35136e-12
-1.13154e-19
-1.07909e-19
-3.5963e-19
-1.67974e-19
-5.1413e-21
1.97295e-19
6.56814e-18
7.93853e-17
6.15646e-16
2.23496e-15
3.02771e-15
2.50203e-15
1.50126e-15
5.26266e-16
1.01514e-16
6.6627e-18
2.81531e-20
9.01981e-18
2.85049e-16
6.20959e-15
8.47475e-14
5.84698e-13
2.42115e-12
-3.56894e-20
-2.54396e-20
-8.95812e-20
-4.23066e-20
-8.31209e-21
1.48089e-20
6.80734e-19
9.9333e-18
6.2571e-17
1.75423e-16
2.29192e-16
2.2125e-16
1.46201e-16
5.57774e-17
9.05881e-18
-1.89037e-20
-3.62023e-20
9.23189e-19
7.89526e-17
2.28686e-15
4.10772e-14
3.30385e-13
1.39451e-12
-9.18271e-21
-4.40038e-21
-1.6153e-20
-7.53487e-21
-1.83359e-21
6.54201e-22
5.04581e-20
9.03763e-19
5.26824e-18
1.35205e-17
1.9293e-17
1.94632e-17
1.36266e-17
4.42544e-18
-1.69953e-19
-1.11282e-18
-8.4144e-19
1.21814e-19
1.96226e-17
8.05486e-16
1.93225e-14
1.90628e-13
8.75384e-13
-1.8955e-21
-5.01635e-22
-1.91313e-21
-8.79507e-22
-2.23401e-22
7.53818e-24
2.25158e-21
5.3847e-20
3.43433e-19
9.02089e-19
1.30039e-18
1.31215e-18
7.90836e-19
-5.56909e-20
-7.09827e-19
-1.14175e-18
-8.03359e-19
1.4424e-20
4.44749e-18
2.75517e-16
8.56211e-15
1.07573e-13
5.97999e-13
-3.10365e-22
-2.89933e-23
-1.16804e-22
-5.43328e-23
-1.39006e-23
7.28492e-26
4.75228e-23
1.79396e-21
1.33047e-20
3.76632e-20
5.40291e-20
4.03156e-20
-3.0323e-20
-2.15247e-19
-4.9377e-19
-6.1448e-19
-4.23893e-19
2.34118e-21
1.08157e-18
9.88076e-17
3.89145e-15
5.85812e-14
3.99545e-13
-4.03582e-23
-1.11206e-29
-1.1991e-26
-2.87179e-25
-8.2587e-26
5.76194e-29
2.3224e-25
2.52386e-23
2.54737e-22
6.08405e-22
-1.62908e-38
-6.50148e-21
-3.50279e-20
-1.05592e-19
-1.86329e-19
-2.06146e-19
-1.34891e-19
7.48287e-22
3.54053e-19
3.9711e-17
2.03523e-15
3.34076e-14
2.18637e-13
-4.26366e-24
-1.95268e-31
-1.798e-29
-1.43236e-27
-2.35884e-27
-1.99473e-26
-1.53341e-25
-8.50909e-25
-6.53312e-24
-7.19905e-23
-5.58802e-22
-3.04295e-21
-1.14822e-20
-2.82915e-20
-4.40465e-20
-4.52513e-20
-2.76699e-20
3.63587e-22
1.28761e-19
1.42603e-17
9.48783e-16
1.7697e-14
1.11497e-13
-3.76375e-25
-5.27471e-32
-2.22965e-30
-5.35515e-29
-7.18849e-28
-8.47745e-27
-8.10088e-26
-6.43477e-25
-4.51703e-24
-2.87125e-23
-1.57656e-22
-6.90496e-22
-2.21372e-21
-4.82397e-21
-6.94407e-21
-6.78928e-21
-3.88838e-21
1.48062e-22
3.84051e-20
4.04673e-18
3.43241e-16
7.80729e-15
5.31409e-14
-2.84488e-26
-1.26796e-32
-4.97503e-31
-1.12589e-29
-1.71378e-28
-2.0858e-27
-2.08741e-26
-1.71494e-25
-1.15894e-24
-6.51067e-24
-3.03778e-23
-1.13351e-22
-3.16147e-22
-6.18944e-22
-8.21584e-22
-7.61789e-22
-3.98794e-22
4.24438e-23
8.83339e-21
9.17679e-19
9.72248e-17
2.71597e-15
2.10133e-14
-1.87468e-27
-1.07269e-31
-7.6556e-32
-1.79785e-30
-2.70223e-29
-3.20382e-28
-3.13158e-27
-2.52802e-26
-1.66134e-25
-8.7664e-25
-3.69714e-24
-1.23353e-23
-3.13746e-23
-5.71422e-23
-7.07765e-23
-6.17175e-23
-2.37779e-23
2.07199e-23
1.56933e-21
1.66804e-19
2.22227e-17
7.61246e-16
6.44093e-15
-1.0901e-28
-5.55318e-32
-6.67136e-33
-1.68271e-31
-2.46392e-30
-2.76019e-29
-2.498e-28
-1.86851e-27
-1.16141e-26
-5.95316e-26
-2.48408e-25
-8.25014e-25
-2.08421e-24
-3.73461e-24
-4.52614e-24
-3.78554e-24
-6.00259e-25
3.93801e-24
2.22556e-22
2.28922e-20
3.85835e-18
1.71089e-16
1.59627e-15
-5.63512e-30
-4.99206e-33
-1.8052e-34
-6.2127e-33
-9.3184e-32
-1.07213e-30
-9.99903e-30
-7.6876e-29
-4.92041e-28
-2.61605e-27
-1.13752e-26
-3.91642e-26
-1.01134e-25
-1.81894e-25
-2.22824e-25
-1.82872e-25
0
5.38838e-25
2.67002e-23
2.41647e-21
4.95455e-19
3.05618e-17
3.32332e-16
-2.59948e-31
-3.20785e-34
-3.34037e-36
-1.52209e-34
-2.35627e-33
-2.84015e-32
-2.79513e-31
-2.27503e-30
-1.544e-29
-8.72447e-29
-4.02262e-28
-1.45201e-27
-3.85811e-27
-7.05823e-27
-8.90001e-27
-7.12735e-27
2.34249e-27
6.15674e-26
2.96356e-24
2.26824e-22
5.17778e-20
4.52217e-18
5.86184e-17
-1.07051e-32
-1.68351e-35
-5.19454e-38
-2.95873e-36
-4.73483e-35
-6.03018e-34
-6.30207e-33
-5.48371e-32
-3.9833e-31
-2.40837e-30
-1.18084e-29
-4.47021e-29
-1.22473e-28
-2.30071e-28
-3.0093e-28
-2.2824e-28
1.80666e-28
6.50354e-27
3.23506e-25
2.2293e-23
5.22828e-21
5.99907e-19
8.94617e-18
-3.92571e-34
-7.39331e-37
-7.39869e-40
-4.96946e-38
-8.23086e-37
-1.11115e-35
-1.23527e-34
-1.15101e-33
-8.96313e-33
-5.79659e-32
-3.01479e-31
-1.19354e-30
-3.3757e-30
-6.55082e-30
-8.89135e-30
-5.78774e-30
1.00863e-29
6.30346e-28
3.40876e-26
2.38889e-24
5.7225e-22
7.55209e-20
1.20396e-18
-1.27654e-35
-2.72631e-38
-1.00635e-41
-7.57233e-40
-1.30032e-38
-1.8596e-37
-2.19842e-36
-2.19034e-35
-1.82522e-34
-1.25875e-33
-6.91836e-33
-2.85598e-32
-8.34364e-32
-1.67903e-31
-2.34831e-31
-9.70393e-32
8.01992e-31
5.28289e-29
3.23636e-27
2.55145e-25
6.36645e-23
8.64588e-21
1.39408e-19
-3.66576e-37
-8.5848e-40
-1.33355e-43
-1.079e-41
-1.92345e-40
-2.90792e-39
-3.64961e-38
-3.87645e-37
-3.44597e-36
-2.52524e-35
-1.46153e-34
-6.27569e-34
-1.89526e-33
-3.96018e-33
-5.63448e-33
-4.55723e-34
4.9945e-32
3.56513e-30
2.53837e-28
2.33011e-26
5.83349e-24
7.85544e-22
1.29342e-20
-9.26614e-39
-2.33047e-41
-1.73521e-45
-1.46451e-43
-2.71338e-42
-4.32373e-41
-5.74528e-40
-6.48432e-39
-6.12809e-38
-4.75572e-37
-2.89034e-36
-1.28882e-35
-4.02738e-35
-8.73611e-35
-1.23963e-34
3.79124e-35
2.10553e-33
1.77605e-31
1.48235e-29
1.52427e-27
3.48459e-25
4.82412e-23
8.77257e-22
-2.05885e-40
-5.41947e-43
-2.2174e-47
-1.91409e-45
-3.68763e-44
-6.173e-43
-8.64859e-42
-1.03545e-40
-1.03605e-39
-8.49016e-39
-5.40745e-38
-2.50315e-37
-8.09828e-37
-1.82266e-36
-2.5271e-36
1.08818e-36
5.46097e-35
5.75153e-33
5.77622e-31
6.22566e-29
1.17278e-26
1.75015e-24
3.89211e-23
-4.03426e-42
-1.07487e-44
-2.77173e-49
-2.42113e-47
-4.84874e-46
-8.48569e-45
-1.25187e-43
-1.58255e-42
-1.67248e-41
-1.44504e-40
-9.63488e-40
-4.62875e-39
-1.55233e-38
-3.62165e-38
-4.80754e-38
4.77335e-39
7.38628e-37
1.01191e-34
1.26465e-32
1.45116e-30
2.14782e-28
3.21713e-26
9.80491e-25
-7.04591e-44
-1.86679e-46
-5.06098e-51
-2.96384e-49
-6.16833e-48
-1.12414e-46
-1.7397e-45
-2.31751e-44
-2.58261e-43
-2.34799e-42
-1.63865e-41
-8.17911e-41
-2.84751e-40
-6.88091e-40
-8.5873e-40
1.61313e-41
3.44446e-39
6.6274e-37
1.16022e-34
1.61732e-32
2.2882e-30
3.02293e-28
1.16734e-26
-1.11289e-45
-2.85162e-48
-1.84228e-52
-3.50622e-51
-7.57369e-50
-1.43208e-48
-2.31777e-47
-3.24821e-46
-3.81163e-45
-3.64256e-44
-2.66162e-43
-1.38218e-42
-5.00521e-42
-1.25299e-41
-1.44818e-41
1.42702e-44
2.61319e-42
8.1051e-40
6.82992e-37
1.36835e-34
1.99962e-32
2.20569e-30
7.59064e-29
-1.61936e-47
-3.75301e-50
-3.68501e-54
-3.99848e-53
-8.94894e-52
-1.74908e-50
-2.95821e-49
-4.34606e-48
-5.37074e-47
-5.39454e-46
-4.12816e-45
-2.23317e-44
-8.42374e-44
-2.18695e-43
-2.31618e-43
-3.46592e-60
1.72661e-44
2.50335e-42
6.23906e-40
6.07321e-37
9.71739e-35
9.46483e-33
3.07521e-31
0.999993
0.999571
0.999511
0.999511
0.999983
0.999962
0.999968
0.999968
0.999985
0.999965
0.999969
0.999971
0.999862
0.999941
0.999947
0.999949
0.596252
0.726125
0.822314
0.879446
2.65117e-05
5.47234e-05
0.0562211
0.138241
8.12591e-05
8.05217e-05
7.77751e-05
7.25785e-05
0.000176579
0.000176549
0.000103472
6.99848e-05
0.000160352
0.000117522
6.96897e-05
6.95782e-05
7.00683e-05
6.96897e-05
6.95782e-05
6.95554e-05
0.0001176
8.86591e-05
7.33965e-05
6.95552e-05
0.000349652
0.000349652
0.000349652
0.00025141
5.48371e-05
0.000212813
0.000267943
7.62844e-05
2.57559e-13
3.63675e-13
1.19948e-12
9.16407e-12
3.60345e-12
8.9359e-12
2.1437e-11
5.41705e-11
1.67384e-11
2.13826e-11
3.37256e-11
7.81779e-11
4.06614e-11
7.35368e-11
1.15009e-10
1.67554e-10
2.53481e-11
5.25929e-11
8.85684e-11
1.3226e-10
1.17239e-11
2.5947e-11
4.83474e-11
7.65415e-11
6.21739e-12
1.44237e-11
2.92687e-11
4.8155e-11
3.56028e-12
1.02352e-11
2.67492e-11
4.91225e-11
2.29932e-12
1.20915e-11
6.22925e-11
1.57028e-10
1.68138e-12
1.06711e-11
8.73825e-11
3.26358e-10
1.40389e-12
1.4553e-11
1.31762e-10
4.67776e-10
7.1025e-13
6.6672e-12
7.41016e-11
3.31263e-10
3.10088e-13
1.97165e-12
2.67828e-11
1.64099e-10
1.41181e-13
4.36418e-13
3.98778e-12
3.93985e-11
5.94914e-14
1.32612e-13
3.79266e-13
3.43742e-12
1.87731e-14
4.60483e-14
1.56585e-13
2.10805e-12
4.64507e-15
1.37793e-14
7.84917e-14
2.26864e-12
9.82596e-16
3.23311e-15
1.51827e-14
2.29895e-13
1.73314e-16
5.34098e-16
1.83163e-15
1.69076e-15
2.61942e-17
7.57053e-17
2.31144e-16
1.93477e-16
3.4907e-18
1.11694e-17
3.57281e-17
2.65091e-17
4.07267e-19
1.68098e-18
6.22644e-18
4.27643e-18
3.99106e-20
2.38418e-19
1.01717e-18
6.48268e-19
3.08219e-21
2.86438e-20
1.31208e-19
6.85882e-20
1.54489e-22
2.04387e-21
1.2842e-20
1.39338e-20
4.51401e-24
5.88279e-23
8.95049e-22
1.55774e-20
7.15111e-26
1.14663e-24
3.75015e-23
1.99194e-21
5.13987e-28
1.02098e-26
4.2415e-25
2.326e-23
4.72531e-30
4.13934e-29
1.40464e-27
4.51935e-26
0.999522
0.999945
0.999981
0.480238
0.00156113
0.000659602
0.00538724
0.00698886
0.00139267
6.96373e-06
2.22066e-05
0.000282967
1.17034e-06
1.56031e-07
3.14077e-08
2.41545e-08
3.84876e-09
0.00103384
0.708531
0.99984
0.999906
0.999981
0.537392
0.00463139
0.000345683
0.000522927
0.00148202
0.00187919
1.22335e-05
0.00111849
0.00104948
5.87979e-06
1.70263e-06
1.32828e-07
1.99922e-08
5.4273e-09
1.92433e-08
0.7737
0.999979
0.999981
0.999981
0.421707
0.00125741
0.000231852
0.000220117
0.000584515
0.00231889
0.00137663
0.00236281
0.00167458
7.64586e-05
2.64139e-06
3.88814e-07
8.11492e-08
1.92433e-08
1.09734e-07
0.876087
0.999966
0.999979
0.999981
0.402262
0.000212393
0.000180697
0.000163814
0.00205942
0.00234175
0.00236984
0.00235166
0.00149479
8.55927e-05
9.21462e-06
1.59237e-06
3.88814e-07
1.09734e-07
0.134051
0.908961
0.966021
0.999918
0.999978
0.716274
0.000180697
0.00015237
0.000152105
0.000732482
0.00231889
0.00229617
0.00211448
0.000384485
6.47591e-05
3.19836e-05
9.77362e-06
1.5919e-06
7.28925e-07
0.406911
0.929749
0.376315
0.847049
0.999897
0.972683
0.185295
0.000152048
0.00015237
0.000152368
0.000421551
0.000725423
0.000357642
6.09856e-05
5.57843e-05
6.56101e-05
6.5676e-05
8.65563e-06
6.45662e-06
0.585882
0.934875
7.81364e-05
0.103879
0.689179
0.970614
0.955283
0.740285
0.0585971
0.000243926
0.000193373
9.84315e-05
6.09818e-05
5.50015e-05
5.5705e-05
5.5705e-05
0.000401294
1.70674e-05
0.000575731
0.761243
0.936776
6.96158e-05
6.96595e-05
8.52667e-05
0.340168
0.938133
0.935895
0.881605
0.567777
0.145416
0.000193377
9.84315e-05
6.09818e-05
5.35939e-05
0.167623
0.502325
0.495165
0.628887
0.919863
0.937151
6.95569e-05
6.96158e-05
6.96598e-05
7.72494e-05
0.125992
0.48062
0.878233
0.871614
0.851945
0.563876
0.263632
0.33535
0.575192
0.863911
0.934669
0.936912
0.937095
0.937151
0.937151
6.9555e-05
6.95569e-05
8.29358e-05
8.21175e-05
1.23952e-05
0.00839051
0.141448
0.379227
0.585599
0.718523
0.826969
0.857134
0.864657
0.865034
0.814326
0.688853
0.760672
0.92908
0.937151
6.95554e-05
0.000190204
0.000394286
0.000313924
1.05563e-05
7.26717e-07
7.26717e-07
0.000345806
0.040803
0.155251
0.289041
0.443241
0.471869
0.291733
0.201781
0.201781
0.201781
0.622169
0.936795
0.000402928
0.000403431
0.000366498
1.13346e-05
6.70753e-08
4.06088e-07
3.4039e-05
0.000639705
0.000533783
0.000868138
0.00743407
0.0264521
0.144088
0.323424
0.287932
0.201781
0.216434
0.718738
0.935751
3.43559e-05
1.24269e-05
5.96116e-10
1.23265e-09
6.72821e-09
3.97537e-07
8.41172e-06
3.54851e-05
2.37148e-05
0.000128764
0.000516331
0.00971495
0.392978
0.811233
0.813959
0.812758
0.758056
0.892908
0.934968
8.67924e-11
2.93686e-10
5.44148e-10
5.96116e-10
1.07919e-09
9.38999e-09
7.59727e-08
5.72937e-07
3.47289e-06
3.31615e-05
0.000106722
0.000521934
0.0276665
0.25903
0.699976
0.912053
0.912538
0.913123
0.887982
1.48444e-10
1.64707e-10
6.12441e-10
6.88373e-10
7.2103e-10
1.03179e-09
4.56576e-09
4.08669e-08
3.02458e-07
2.70979e-06
0.00127477
0.0029734
8.46005e-05
0.000250419
0.0251199
0.667774
0.913123
0.913268
0.760972
2.48157e-10
5.202e-10
7.31143e-10
7.85135e-10
7.66331e-10
7.7622e-10
9.50593e-10
3.03438e-09
1.96212e-08
2.4621e-07
0.000617848
0.00106735
5.26754e-05
6.27877e-05
0.000421965
0.291755
0.864917
0.913265
0.760837
2.95603e-10
5.08089e-10
6.9669e-10
7.61684e-10
7.636e-10
7.64438e-10
7.7622e-10
9.50593e-10
3.39224e-09
1.01941e-06
5.16308e-06
3.4031e-06
3.50405e-06
4.21882e-06
0.00446177
0.308345
0.653986
0.907587
0.770069
2.23962e-10
3.62625e-10
4.73926e-10
5.23087e-10
5.43813e-10
7.73423e-10
1.02386e-09
1.03552e-09
7.74036e-09
1.12454e-06
1.13441e-06
2.72692e-06
2.8636e-06
2.97279e-06
0.0203666
0.343164
0.412847
0.656805
0.876009
1.2646e-10
1.89112e-10
2.22965e-10
2.28167e-10
2.29081e-10
2.31442e-10
2.38246e-10
1.20935e-08
2.74706e-08
4.37983e-07
3.56038e-06
1.04271e-05
3.09333e-06
6.92621e-06
0.0264199
0.118267
0.123612
0.425916
0.875845
7.60082e-11
1.03309e-10
1.13722e-10
1.73128e-10
5.8102e-09
1.7807e-08
1.80495e-08
1.48924e-08
2.81153e-08
6.19143e-08
5.05533e-06
1.80368e-05
1.00948e-05
2.07521e-05
0.0128551
0.0320447
0.0552106
0.22209
0.60485
7.79662e-11
1.02863e-10
1.08749e-10
1.1034e-10
6.7007e-09
8.00461e-08
1.1056e-07
3.32783e-08
2.82516e-08
2.83947e-08
2.49821e-06
1.44607e-05
1.46603e-05
4.62262e-05
0.0199124
0.127033
0.164384
0.0870756
0.0879311
2.63908e-10
3.18666e-10
2.79225e-10
2.40473e-10
7.04811e-10
9.56343e-09
1.60967e-07
2.85701e-07
2.83947e-08
5.55574e-08
2.16995e-07
4.41456e-07
5.05665e-06
0.000108329
0.0474251
0.292125
0.295982
0.176741
0.0869383
7.47658e-10
1.0667e-09
9.01747e-10
4.17256e-10
4.2458e-10
8.77367e-08
5.44043e-07
8.24723e-07
3.94271e-07
5.00013e-07
3.98233e-07
5.79571e-07
6.1784e-06
0.000110416
0.0445738
0.240603
0.300978
0.301583
0.276743
9.57513e-10
1.21955e-09
1.03088e-09
4.2458e-10
1.68442e-08
5.55391e-07
8.45115e-07
8.56265e-07
8.56265e-07
8.49764e-07
6.47985e-07
1.06512e-06
3.01657e-05
0.00010718
4.84365e-05
0.00191328
0.187587
0.303588
0.303585
8.21053e-10
1.17507e-09
1.00071e-09
5.63158e-10
1.74526e-08
5.15261e-07
8.43845e-07
8.56265e-07
5.60665e-07
5.60854e-07
1.23195e-06
7.09888e-07
2.64011e-05
0.000132178
3.2938e-05
2.79709e-05
0.000230105
0.259132
0.303588
5.2918e-10
8.65233e-10
8.70638e-10
7.67758e-10
7.71234e-10
3.53944e-08
5.96273e-07
7.96541e-07
6.60495e-08
5.82197e-08
7.51306e-07
2.33157e-07
3.45314e-05
0.000133264
3.00675e-05
6.26381e-06
2.79709e-05
0.0207787
0.303584
2.35782e-10
5.36864e-10
7.18097e-10
7.91401e-10
7.84746e-10
1.22598e-09
1.24413e-07
3.221e-07
5.82275e-08
2.57891e-08
3.46079e-08
6.4475e-08
3.47187e-05
0.000132792
5.24542e-06
5.24548e-06
6.23171e-06
0.00416859
0.303519
9.6189e-11
3.5293e-10
7.9732e-10
1.08889e-09
8.74711e-10
1.05545e-09
6.71653e-08
1.6191e-07
8.47271e-08
2.54782e-08
2.57891e-08
7.60969e-07
3.46662e-05
3.38179e-05
5.24332e-06
5.3202e-06
5.40016e-06
0.000197761
0.2984
5.58202e-11
1.97644e-10
5.31315e-10
1.98662e-09
6.27585e-09
6.83447e-09
5.40118e-09
2.09244e-08
3.71748e-08
2.45729e-08
2.54782e-08
9.39934e-07
1.61835e-05
1.48673e-06
1.6718e-05
5.40008e-06
6.09265e-06
0.00407499
0.153089
4.67399e-11
1.27592e-10
1.08841e-10
7.77827e-09
5.56613e-08
5.54946e-08
5.25626e-09
5.24529e-09
5.34646e-09
6.62337e-09
1.03692e-06
4.43941e-06
3.06477e-06
4.05809e-07
8.29562e-05
8.13927e-06
1.18545e-05
0.0133892
0.128832
2.16359e-11
8.28766e-11
1.03457e-10
1.38194e-10
5.56171e-08
1.59042e-07
6.24175e-08
5.34646e-09
6.12779e-09
7.84656e-07
4.65127e-06
4.65127e-06
9.10747e-07
2.20513e-08
7.47361e-05
1.18796e-05
4.79648e-05
0.0155351
0.166039
4.49896e-12
3.29171e-11
5.95547e-11
3.75302e-11
6.59148e-09
7.64579e-08
1.21754e-06
1.25371e-06
1.77691e-08
2.28616e-07
2.99006e-06
3.72186e-06
2.20513e-08
2.0973e-08
1.99021e-08
4.38416e-06
0.00353497
0.0090675
0.166039
5.61405e-13
6.23565e-12
1.47274e-11
3.53314e-11
3.0949e-11
2.43674e-10
1.23481e-06
6.34706e-06
5.80196e-06
3.05173e-07
2.16467e-07
1.54149e-07
2.15705e-08
2.04595e-08
1.84972e-08
0.00604431
0.0176001
0.00877086
0.166039
6.75823e-14
8.72081e-13
3.18012e-12
2.38328e-11
2.20475e-11
2.14498e-11
1.88325e-07
4.81865e-06
7.71722e-06
7.71538e-06
3.006e-06
2.10796e-08
2.01331e-08
2.05711e-08
2.05711e-08
0.0205891
0.0201177
0.0055686
0.163321
9.66559e-15
1.38996e-13
1.33113e-12
2.37067e-11
2.18674e-11
1.20883e-12
1.14178e-07
7.30807e-07
5.56472e-06
5.42462e-06
3.10665e-06
9.27816e-08
1.98416e-08
2.01331e-08
0.00988852
0.0214856
0.0157905
0.00492359
0.160536
1.32937e-15
1.89325e-14
4.88016e-13
1.479e-11
1.34972e-11
2.3887e-14
5.36731e-08
1.14028e-07
1.33135e-07
1.22385e-07
2.65117e-07
4.3904e-08
1.72553e-08
1.98416e-08
0.0209341
0.0214856
0.0125574
0.0045503
0.166631
1.41147e-16
1.54469e-15
5.62545e-14
2.4027e-12
2.56971e-12
3.98555e-30
1.00684e-09
2.54624e-11
9.56683e-11
1.8085e-10
2.34347e-10
4.25396e-09
1.03553e-08
1.83231e-08
0.0124169
0.0214856
0.00786709
0.00436585
0.171906
1.19447e-17
7.0302e-17
1.19047e-15
5.04387e-14
5.69975e-14
-1.81306e-13
2.23102e-27
3.075e-13
2.54624e-11
9.56683e-11
1.81043e-10
2.34347e-10
4.62742e-07
4.48706e-08
3.09374e-08
0.0202596
0.0052196
0.00156662
0.171713
7.29828e-19
2.47014e-18
1.40521e-17
1.56983e-16
-2.2919e-14
-1.80149e-13
-4.60241e-12
3.49841e-29
1.34759e-07
1.65419e-07
2.34347e-10
3.27543e-05
2.77273e-05
1.10159e-06
6.41885e-09
0.00236584
0.00402941
0.00156216
0.123371
2.4612e-20
7.7724e-20
5.84873e-19
1.69488e-19
-2.07346e-14
-9.58422e-14
-4.7747e-12
-5.72571e-12
5.2562e-07
5.25072e-07
1.50533e-07
0.000112637
3.95718e-05
3.04824e-23
-2.11672e-32
-1.79119e-26
0.00314202
0.00495602
0.120105
2.40679e-22
1.14548e-21
1.48416e-20
-7.78121e-18
-7.59349e-15
-3.15812e-14
-1.24515e-12
-1.02209e-12
3.17939e-07
2.12928e-07
-7.7823e-28
0.000105779
1.25037e-06
-1.27705e-27
-2.42104e-27
-4.30273e-28
0.0010574
2.69277e-07
0.112822
7.09566e-25
7.77829e-24
1.43815e-22
-2.65467e-18
-1.60924e-15
-5.92682e-15
-1.9007e-14
-1.00644e-14
-5.07523e-15
-1.85299e-15
-4.3131e-16
0.000131636
9.43317e-07
-1.0642e-27
-5.36081e-28
-1.98522e-28
-4.42267e-29
-1.46734e-22
0.0212835
)
;

boundaryField
{
    leftWall
    {
        type            zeroGradient;
    }
    rightWall
    {
        type            zeroGradient;
    }
    lowerWall
    {
        type            zeroGradient;
    }
    atmosphere
    {
        type            inletOutlet;
        inletValue      uniform 0;
        value           nonuniform List<scalar> 
46
(
-1.61936e-47
-3.75301e-50
-3.68501e-54
-3.99848e-53
-8.94894e-52
-1.74908e-50
-2.95821e-49
-4.34606e-48
-5.37074e-47
-5.39454e-46
-4.12816e-45
-2.23317e-44
-8.42374e-44
-2.18695e-43
-2.31618e-43
-3.46592e-60
1.72661e-44
2.50335e-42
6.23906e-40
6.07321e-37
9.71739e-35
9.46483e-33
3.07521e-31
4.72531e-30
4.13934e-29
1.40464e-27
4.51935e-26
7.09566e-25
7.77829e-24
1.43815e-22
-2.65467e-18
-1.60924e-15
-5.92682e-15
-1.9007e-14
0
0
0
0
0.000131636
0
0
0
0
0
0
0.0212835
)
;
    }
    defaultFaces
    {
        type            empty;
    }
}


// ************************************************************************* //
