/*--------------------------------*- C++ -*----------------------------------*\
| =========                 |                                                 |
| \\      /  F ield         | OpenFOAM: The Open Source CFD Toolbox           |
|  \\    /   O peration     | Version:  2206                                  |
|   \\  /    A nd           | Website:  www.openfoam.com                      |
|    \\/     M anipulation  |                                                 |
\*---------------------------------------------------------------------------*/
FoamFile
{
    version     2.0;
    format      ascii;
    arch        "LSB;label=32;scalar=64";
    class       surfaceScalarField;
    location    "0.625";
    object      alphaPhi0.water;
}
// * * * * * * * * * * * * * * * * * * * * * * * * * * * * * * * * * * * * * //

dimensions      [0 3 -1 0 0 0 0];

oriented        oriented;

internalField   nonuniform List<scalar> 
4432
(
-3.13262e-06
3.13262e-06
-5.8948e-06
2.76218e-06
-6.73202e-06
8.37219e-07
-6.29651e-06
-4.35507e-07
-4.68111e-06
-1.61539e-06
-1.73982e-06
-2.9413e-06
2.07255e-06
-3.81237e-06
5.61827e-06
-3.54573e-06
8.07504e-06
-2.45678e-06
9.25399e-06
-1.17895e-06
9.30977e-06
-5.5791e-08
8.44594e-06
8.63833e-07
6.92007e-06
1.52587e-06
4.87203e-06
2.04805e-06
2.24883e-06
2.6232e-06
-1.14084e-06
3.38966e-06
-5.46857e-06
4.32774e-06
-9.11451e-06
3.84884e-06
-1.12978e-05
2.69607e-06
-1.65824e-05
4.81119e-06
-2.16965e-05
4.46293e-06
-1.61128e-05
-5.58014e-06
-1.61093e-05
-3.71176e-06
6.84438e-06
-5.71512e-06
4.76554e-06
-6.10137e-06
1.22347e-06
-5.82535e-06
-7.11521e-07
-4.5479e-06
-2.89285e-06
-1.81119e-06
-5.67801e-06
2.01148e-06
-7.63504e-06
5.66037e-06
-7.19462e-06
8.17779e-06
-4.97421e-06
9.3804e-06
-2.38156e-06
9.63083e-06
-3.06226e-07
9.34067e-06
1.154e-06
8.71846e-06
2.14809e-06
7.87342e-06
2.89309e-06
6.78245e-06
3.71418e-06
5.13943e-06
5.03267e-06
2.38577e-06
7.08141e-06
-2.29769e-06
8.54406e-06
-7.97428e-06
9.08292e-06
-1.36099e-05
9.9713e-06
-1.61569e-05
6.32695e-06
-1.11091e-05
-1.05581e-05
-2.7208e-05
-2.76521e-06
9.60959e-06
-4.21516e-06
6.2155e-06
-4.79693e-06
1.80525e-06
-5.02192e-06
-4.86539e-07
-4.32683e-06
-3.58793e-06
-1.97277e-06
-8.03207e-06
1.69154e-06
-1.12994e-05
5.31501e-06
-1.08181e-05
7.82288e-06
-7.48208e-06
8.96841e-06
-3.52708e-06
9.06621e-06
-4.04027e-07
8.54966e-06
1.67057e-06
7.76163e-06
2.93611e-06
6.96303e-06
3.69169e-06
6.36697e-06
4.31024e-06
6.10396e-06
5.29568e-06
6.02313e-06
7.16225e-06
4.7431e-06
9.82409e-06
1.65234e-06
1.21738e-05
-2.55944e-06
1.50435e-05
-5.49648e-06
9.0872e-06
-3.78291e-06
-1.20623e-05
-3.08553e-05
-1.32717e-06
1.09368e-05
-1.9682e-06
6.85652e-06
-2.55488e-06
2.39194e-06
-2.85411e-06
-1.8731e-07
-2.2409e-06
-4.20114e-06
-1.67018e-07
-1.0106e-05
2.61472e-06
-1.40811e-05
5.4294e-06
-1.36328e-05
7.39959e-06
-9.45227e-06
8.29584e-06
-4.42334e-06
8.30363e-06
-4.11814e-07
7.74713e-06
2.22708e-06
6.92998e-06
3.75326e-06
6.11957e-06
4.5021e-06
5.52367e-06
4.90615e-06
5.32332e-06
5.49603e-06
5.89656e-06
6.58903e-06
7.02896e-06
8.69168e-06
7.94416e-06
1.12586e-05
8.33575e-06
1.4656e-05
6.44802e-06
1.07981e-05
4.08247e-06
-9.86675e-06
-2.67322e-05
6.31846e-07
1.03049e-05
1.36042e-06
6.12795e-06
1.50469e-06
2.24767e-06
2.07372e-06
-7.56347e-07
3.34079e-06
-5.46821e-06
4.8802e-06
-1.16454e-05
6.2259e-06
-1.54268e-05
7.07749e-06
-1.44844e-05
7.50225e-06
-9.87704e-06
7.58194e-06
-4.50302e-06
7.33951e-06
-1.69392e-07
6.7877e-06
2.7789e-06
6.0659e-06
4.47505e-06
5.41507e-06
5.15293e-06
5.00844e-06
5.31279e-06
4.88905e-06
5.61541e-06
5.29457e-06
6.18352e-06
6.72571e-06
7.26054e-06
9.38532e-06
8.59903e-06
1.28844e-05
1.11569e-05
1.35195e-05
1.02474e-05
9.16954e-06
-5.53666e-06
-1.75951e-05
3.1141e-06
7.19083e-06
5.92533e-06
3.31672e-06
7.81637e-06
3.56625e-07
1.02322e-05
-3.17217e-06
1.24531e-05
-7.68912e-06
1.30904e-05
-1.22826e-05
1.20908e-05
-1.44272e-05
1.03007e-05
-1.26942e-05
8.56106e-06
-8.13738e-06
7.2392e-06
-3.18116e-06
6.41177e-06
6.58035e-07
5.73862e-06
3.45206e-06
5.10748e-06
5.10619e-06
4.66043e-06
5.59998e-06
4.53915e-06
5.43407e-06
4.674e-06
5.48056e-06
5.11867e-06
5.73885e-06
6.26416e-06
6.11505e-06
8.53306e-06
6.33013e-06
1.24443e-05
7.24566e-06
1.48539e-05
7.83773e-06
1.07951e-05
-1.47789e-06
-6.79994e-06
5.38477e-06
1.80606e-06
1.10214e-05
-2.31986e-06
1.64919e-05
-5.11395e-06
2.11441e-05
-7.82444e-06
2.28616e-05
-9.40672e-06
2.10396e-05
-1.04607e-05
1.73204e-05
-1.07079e-05
1.34069e-05
-8.78075e-06
1.0136e-05
-4.86649e-06
7.6013e-06
-6.46432e-07
5.94209e-06
2.31724e-06
4.85194e-06
4.54221e-06
4.129e-06
5.82913e-06
3.85561e-06
5.87337e-06
4.06503e-06
5.22466e-06
4.48535e-06
5.06023e-06
5.10595e-06
5.11826e-06
6.22298e-06
4.99801e-06
7.87105e-06
4.68206e-06
1.07366e-05
4.38016e-06
1.34599e-05
5.11438e-06
1.13595e-05
6.22521e-07
4.55859e-06
8.39678e-06
-6.15495e-06
1.7771e-05
-1.046e-05
2.43557e-05
-9.93197e-06
2.71177e-05
-8.58587e-06
2.58144e-05
-6.21945e-06
2.20232e-05
-4.97863e-06
1.77524e-05
-5.50943e-06
1.37546e-05
-4.78327e-06
1.06448e-05
-1.75694e-06
8.34382e-06
1.65459e-06
6.48243e-06
4.17863e-06
4.8749e-06
6.14975e-06
3.645e-06
7.05903e-06
3.12837e-06
6.39e-06
3.47025e-06
4.88279e-06
4.09678e-06
4.43369e-06
4.90315e-06
4.31189e-06
6.21595e-06
3.68521e-06
7.88288e-06
3.01513e-06
9.84517e-06
2.41788e-06
1.15774e-05
3.38212e-06
1.03175e-05
1.88242e-06
1.48752e-05
-2.20902e-05
1.6052e-05
-4.79485e-05
8.21199e-06
-2.59337e-05
-2.20148e-05
4.16668e-06
-3.01003e-05
2.73086e-05
-3.47403e-05
3.09881e-05
-1.17198e-05
2.258e-05
5.5436e-06
-3.07737e-05
5.61998e-05
-9.61078e-05
6.11867e-05
-0.000118167
1.78647e-05
-0.000125029
2.11704e-06
-0.000129252
7.27118e-07
-0.000130726
4.45262e-08
-0.000127966
-3.43939e-06
-0.000119533
-9.01339e-06
-0.000102326
-1.77596e-05
-6.34226e-05
-3.93756e-05
-5.51139e-06
-5.83803e-05
-6.22303e-06
-1.77588e-05
2.89387e-05
-2.90597e-05
7.76035e-06
-7.39801e-06
-4.36765e-05
1.29212e-05
-5.04195e-05
3.52449e-05
-5.70639e-05
3.40549e-05
-3.42927e-05
2.31802e-06
3.44118e-05
-7.09474e-05
0.000131664
-8.17956e-05
3.76664e-05
-8.92079e-05
3.7019e-06
-0.000101302
-6.50294e-07
-0.000112004
-6.5332e-07
-0.000119593
-1.17649e-06
-0.000125173
-4.2837e-06
-0.000126143
-1.24668e-05
-0.000114553
-3.17693e-05
-7.87302e-05
-7.53887e-05
-2.17613e-05
-0.000115349
-2.79842e-05
-8.50401e-06
3.34855e-05
-4.7327e-06
4.49156e-06
1.04052e-05
-5.88142e-05
2.99458e-05
-6.99601e-05
4.49346e-05
-7.20527e-05
2.63017e-05
-3.20839e-05
-2.92643e-05
8.40585e-05
-2.42168e-05
0.000113891
-3.48445e-06
8.43269e-06
-5.73753e-07
6.85589e-07
-1.21578e-06
8.97489e-09
-3.86239e-06
-1.01664e-08
-9.29514e-06
-2.19139e-07
-1.76391e-05
-9.85746e-07
-3.17555e-05
-3.52255e-06
-5.995e-05
-1.16436e-05
-8.50379e-05
-5.98584e-05
-3.49275e-05
-0.000165459
-6.29114e-05
2.58158e-06
2.9976e-05
1.31922e-05
-2.47297e-06
2.66381e-05
-7.22584e-05
4.2993e-05
-8.63148e-05
5.46617e-05
-8.37213e-05
3.82361e-05
-1.566e-05
-1.93257e-05
0.000140986
-6.78954e-06
4.65332e-05
-7.34222e-07
2.26611e-06
-1.43246e-07
1.10929e-07
-1.30905e-07
8.30377e-09
-1.44421e-07
-6.24228e-09
-3.39939e-07
-3.47425e-09
-1.20961e-06
-1.25344e-07
-4.05578e-06
-7.26942e-07
-1.22698e-05
-3.6155e-06
-5.69286e-05
-2.17011e-05
-4.38868e-05
-0.000187675
-0.000106798
9.40556e-06
5.96891e-05
2.59145e-05
-1.71842e-05
4.08363e-05
-8.71747e-05
5.41757e-05
-9.96519e-05
6.35886e-05
-9.31332e-05
5.55525e-05
-7.62741e-06
1.47484e-05
0.000191459
4.86323e-07
3.11681e-05
-1.02305e-07
2.86277e-06
-5.94357e-08
9.62437e-08
-4.67349e-08
4.8425e-08
-3.42303e-08
6.27054e-09
-4.00306e-08
8.53968e-10
-1.29944e-07
-3.16195e-08
-6.58261e-07
-2.1046e-07
-2.96317e-06
-1.35243e-06
-1.60874e-05
-8.7579e-06
-4.53434e-05
-0.000162735
-0.000152141
1.57755e-05
4.39643e-05
3.77222e-05
-3.90634e-05
5.17702e-05
-0.000101212
6.28876e-05
-0.000110762
7.06096e-05
-0.000100841
6.44862e-05
-2.86999e-06
4.39967e-05
0.000210435
1.49143e-06
6.59801e-05
2.74026e-08
4.27531e-06
-9.79217e-08
2.39028e-07
-4.04073e-08
8.58998e-08
-2.41191e-08
1.05043e-08
-2.55374e-08
2.2499e-09
-4.49219e-08
-1.26138e-08
-1.89235e-07
-6.81112e-08
-1.10035e-06
-4.52116e-07
-5.53561e-06
-4.37939e-06
-4.03582e-05
-0.000130859
-0.000192496
2.40399e-05
1.99262e-05
4.82008e-05
-6.32228e-05
5.88996e-05
-0.000111908
6.93092e-05
-0.000121164
7.60915e-05
-0.000107535
7.08458e-05
1.62517e-06
6.03185e-05
0.000219611
2.46576e-06
0.000168271
9.19149e-08
6.65923e-06
-5.61551e-08
5.17502e-07
-1.56678e-08
7.51033e-08
-1.46841e-08
1.03394e-08
-1.52147e-08
2.58864e-09
-2.05163e-08
-7.47922e-09
-6.25428e-08
-2.64197e-08
-3.96746e-07
-1.19092e-07
-3.23104e-06
-1.55936e-06
-3.20035e-05
-0.00010461
-0.000224488
3.78623e-05
-1.79444e-05
5.44891e-05
-7.98503e-05
6.13151e-05
-0.000118733
7.18212e-05
-0.000131653
7.07802e-05
-9.35033e-05
7.39447e-05
4.83465e-06
7.07601e-05
0.000215882
1.03142e-05
0.000229962
3.12873e-07
1.28667e-05
-3.23725e-08
8.96686e-07
-8.68303e-09
5.28225e-08
-1.01883e-08
1.17553e-08
-1.03021e-08
2.51302e-09
-1.17423e-08
-6.21243e-09
-2.29227e-08
-1.53704e-08
-1.21085e-07
-2.11319e-08
-1.66232e-06
-1.82299e-08
-2.21818e-05
-8.51238e-05
-0.000246625
1.09986e-05
-1.3859e-09
1.29102e-05
-8.42579e-08
1.09289e-05
-6.89266e-07
9.29238e-06
-5.21502e-07
8.925e-06
-7.77975e-07
9.64667e-06
-8.57294e-07
1.07655e-05
-1.59104e-06
1.13248e-05
-1.61937e-06
1.1766e-05
-6.34922e-07
1.26324e-05
9.42134e-07
1.28764e-05
3.28222e-06
1.12786e-05
7.74752e-06
8.82439e-06
9.51326e-06
7.77193e-06
7.44246e-06
8.81965e-06
3.83508e-06
9.58487e-06
3.66847e-06
1.03657e-05
3.53104e-06
1.25724e-05
1.47853e-06
1.65036e-05
-9.16084e-07
2.1086e-05
-2.16447e-06
2.71886e-05
-2.72057e-06
3.47479e-05
-5.6769e-06
-6.25527e-07
5.0248e-05
-1.38313e-09
-5.48169e-12
-8.49817e-08
-8.25267e-10
-7.75112e-07
8.35148e-10
-2.19776e-06
-4.9328e-13
-3.61114e-06
-7.27567e-12
-4.06125e-06
-8.37252e-11
-4.70063e-06
-7.91692e-10
-5.32446e-06
-6.48396e-09
-5.72464e-06
-4.79689e-08
-5.76628e-06
-2.90875e-07
-4.74664e-06
-8.75862e-07
-1.63116e-06
-8.74689e-08
3.62231e-06
6.61267e-07
9.46714e-06
9.62723e-07
1.29405e-05
5.99245e-07
1.27485e-05
3.86047e-06
1.1617e-05
4.66253e-06
1.29848e-05
1.10687e-07
1.68225e-05
-4.75382e-06
2.07723e-05
-6.11413e-06
2.46171e-05
-6.56541e-06
2.72092e-05
-8.26895e-06
-8.71852e-06
3.52979e-05
-5.67906e-12
8.99124e-15
-8.33214e-10
-3.4514e-13
-2.67611e-14
1.92564e-12
-5.21089e-13
-7.36409e-17
-7.78012e-12
-2.18569e-14
-9.13689e-11
-2.40018e-13
-8.8138e-10
-2.41024e-12
-7.36958e-09
2.66669e-12
-5.53373e-08
-1.22306e-12
-3.46195e-07
-1.7551e-11
-1.22185e-06
-2.04641e-10
-3.68778e-06
-2.18703e-09
-5.90343e-06
-1.88251e-08
-7.72476e-06
-1.45972e-07
-7.98455e-06
-9.51507e-07
-2.95383e-06
-2.44344e-06
3.2696e-06
-1.59569e-06
1.22951e-05
-3.69244e-06
2.09153e-05
-6.45275e-06
2.59136e-05
-7.17806e-06
3.00694e-05
-8.03134e-06
3.39398e-05
-9.91111e-06
-9.89444e-06
3.63323e-05
-1.22575e-13
7.28175e-14
-1.65235e-12
6.63739e-14
-2.75704e-17
2.72192e-13
-1.28164e-15
5.8448e-17
-2.44717e-14
2.11155e-16
-2.69048e-13
9.89527e-16
-2.6988e-12
2.09966e-15
-7.19585e-14
1.27002e-14
-1.30907e-12
7.01074e-15
-1.88275e-11
-5.27071e-14
-2.22644e-10
-8.76628e-13
-2.41e-09
-1.50298e-13
-2.12333e-08
-2.38389e-12
-1.67147e-07
-5.97526e-11
-1.11787e-06
-7.95202e-10
-2.67161e-06
-9.41691e-10
-3.49021e-06
-5.06559e-10
-5.00072e-06
-9.84369e-10
-5.18576e-06
-7.69979e-09
-3.24382e-06
-5.56852e-08
-2.01868e-06
-3.60442e-07
-8.12409e-07
-1.57135e-06
-3.59316e-06
1.71832e-06
-6.2616e-15
1.64461e-17
2.64743e-14
1.86217e-15
2.4754e-13
1.50034e-14
4.22634e-15
3.1667e-14
-6.4675e-18
6.19529e-16
-1.63285e-16
5.40131e-16
5.44109e-17
6.67131e-16
2.81054e-15
1.4615e-15
7.44187e-16
4.21636e-16
2.45955e-14
1.16926e-13
-9.08293e-14
1.02993e-12
-3.40625e-13
-3.85776e-13
-3.07371e-12
-1.4729e-13
-3.77759e-11
-2.56509e-11
-6.81141e-11
-7.4441e-10
-9.74041e-11
-9.18606e-10
-2.06232e-10
-3.84097e-10
-1.09416e-09
-6.51144e-11
-8.5085e-09
-3.37157e-10
-6.42738e-08
-6.24873e-10
-4.23524e-07
-3.93025e-09
-1.97776e-06
-4.14945e-08
-4.10143e-07
-7.53678e-06
-9.88484e-17
2.21937e-17
8.25611e-16
3.42405e-17
1.06122e-14
2.74107e-16
9.93704e-16
4.95321e-16
-2.7361e-18
1.08565e-16
1.41678e-17
1.58502e-16
6.67146e-17
1.56963e-16
-1.41449e-15
1.97252e-15
-1.30877e-12
4.20106e-13
-3.26247e-12
7.15819e-13
-1.89768e-12
1.50089e-13
1.01302e-13
8.20477e-13
-3.16326e-13
2.39389e-14
-4.56393e-10
1.42895e-11
-7.35245e-10
-1.17607e-10
-1.18424e-09
-3.5633e-10
-7.27369e-10
-7.28109e-12
-8.86527e-10
-2.53113e-12
-1.1404e-09
-3.70023e-10
-9.11566e-10
-1.06728e-09
-4.28913e-09
-8.99882e-10
-4.80613e-08
-1.84657e-11
1.6221e-08
-4.98805e-07
-1.04765e-18
1.29939e-18
8.58219e-18
2.01697e-18
1.42373e-16
2.66119e-17
1.1805e-17
2.30732e-17
-1.13504e-18
1.03697e-16
8.59189e-20
1.57267e-16
-1.06074e-18
1.47228e-16
-4.92686e-16
2.44363e-15
-2.34912e-12
6.09918e-13
-4.31902e-12
3.11557e-12
-5.76519e-12
2.00421e-12
-1.42916e-12
8.54036e-13
-1.55121e-12
4.88425e-14
-3.70361e-11
8.95323e-14
-6.21776e-10
1.50338e-12
-1.06188e-10
-1.37127e-12
-1.21745e-10
3.66969e-14
-1.52595e-10
2.01578e-12
-4.38174e-09
-6.17928e-10
-1.02865e-08
-4.39299e-09
-1.02998e-08
-3.80818e-09
-4.41114e-09
6.04571e-09
7.89298e-09
-5.25425e-08
-3.16476e-20
4.5961e-20
-1.68245e-19
4.84536e-20
1.19997e-18
1.39684e-18
5.30236e-19
1.16163e-17
-4.21757e-18
1.06611e-16
-8.62503e-18
2.16337e-16
-4.77979e-18
2.64314e-16
1.934e-15
5.28303e-16
-5.1587e-13
4.44499e-14
-3.80039e-12
7.89224e-13
-3.66086e-12
2.34963e-12
-7.13417e-14
1.2055e-13
-1.15485e-13
1.52846e-14
-4.04365e-14
-1.9531e-14
-8.44785e-14
-5.03659e-15
-2.95245e-12
1.63032e-15
-4.31253e-12
2.94359e-13
-1.40501e-11
3.51428e-12
-4.3757e-09
-2.24584e-10
-1.22486e-08
-2.1852e-09
-1.09197e-08
-5.03034e-09
-6.65208e-09
1.97048e-09
1.96234e-08
-3.92239e-09
-1.28709e-21
1.69629e-21
-4.26232e-21
6.98869e-22
-9.28562e-21
7.19673e-20
-9.97522e-19
6.14549e-18
-8.98846e-18
7.45616e-17
-1.80103e-17
2.11062e-16
-2.82379e-17
2.90293e-16
1.91484e-16
3.3511e-16
-3.01529e-14
-2.3856e-16
-4.41995e-13
-2.69618e-15
-6.05175e-14
2.4573e-14
-9.0311e-14
9.74318e-15
-2.19606e-13
6.14475e-14
-1.41497e-13
9.88823e-14
-4.05116e-14
3.10143e-14
-2.28061e-13
1.3248e-14
-4.23684e-13
1.9266e-13
-9.8875e-11
4.19897e-12
-2.67625e-11
-1.54649e-11
-4.58603e-09
-9.79037e-11
-9.23475e-09
-4.62496e-09
-5.69811e-09
-1.37381e-09
1.45351e-08
-4.23315e-10
-3.60321e-23
8.72524e-23
-7.92388e-23
1.93007e-23
-1.19294e-20
9.25858e-21
-7.09493e-19
1.47911e-18
-7.03457e-18
2.3863e-17
-2.36348e-17
1.23811e-16
-3.92324e-17
3.01006e-16
-5.87462e-17
3.8974e-16
-4.16678e-16
4.60593e-16
-5.48673e-15
1.28972e-15
-3.65714e-15
3.68506e-15
-3.63866e-14
6.9086e-15
-2.06135e-13
5.22328e-14
-1.02973e-13
1.43114e-13
1.7061e-14
5.07599e-14
1.94215e-15
5.94239e-15
-4.22e-12
4.96517e-13
-4.3222e-12
-1.01035e-13
-3.63906e-11
-7.1403e-13
-9.69069e-11
-5.87865e-11
-1.03988e-08
-3.2308e-09
-9.09439e-09
-2.49598e-09
5.85825e-09
-7.63021e-09
-1.27679e-24
6.16201e-23
-5.68986e-24
2.04159e-23
-3.36262e-21
1.93209e-21
-1.8599e-19
2.81528e-19
-2.59687e-18
4.83344e-18
-1.93532e-17
4.15097e-17
-5.02366e-17
2.18696e-16
-7.55144e-17
4.29934e-16
-3.21845e-16
5.46157e-16
-2.2453e-15
5.10432e-15
-1.35988e-14
2.17023e-14
-3.35536e-14
4.69231e-14
-1.31254e-13
6.99478e-14
-4.1584e-14
6.76917e-14
-2.85698e-15
1.07449e-15
-1.50087e-14
3.46288e-16
9.73252e-15
-6.53588e-16
-4.08855e-13
2.09986e-14
-2.56559e-12
3.23341e-13
-6.61612e-11
-9.58298e-12
-1.12657e-08
-6.73232e-10
-1.50062e-08
1.4098e-09
7.09219e-09
-7.32759e-09
1.17602e-23
-1.8665e-22
-1.00569e-22
-1.84935e-22
-8.08542e-22
3.55888e-22
-3.82547e-20
5.84775e-20
-6.32563e-19
9.90183e-19
-1.08471e-17
1.12809e-17
-4.94217e-17
1.14564e-16
-7.7348e-17
3.29851e-16
-3.3528e-16
4.70471e-16
-7.61833e-15
7.22765e-15
-3.95027e-14
5.05674e-14
-4.17909e-14
8.23806e-14
-1.55926e-14
4.2017e-14
-1.06711e-15
1.03531e-15
-4.43551e-16
4.39649e-16
-3.71353e-16
2.0146e-16
-2.0896e-15
9.42967e-16
-4.14242e-14
3.56396e-14
-1.09417e-12
7.83537e-13
-4.33666e-11
1.86149e-11
-1.04863e-08
2.42216e-10
-3.02676e-08
3.90042e-09
1.84883e-08
-3.00215e-08
1.16276e-23
-2.45629e-22
-1.25667e-23
-2.4359e-22
-1.61604e-22
2.69568e-23
-7.91899e-21
1.09969e-20
-1.35611e-19
2.06968e-19
-3.885e-18
2.54472e-18
-2.72148e-17
3.79654e-17
-5.36158e-17
1.57381e-16
-3.24127e-16
3.62836e-16
-1.19219e-14
7.6979e-15
-3.97145e-14
5.37866e-14
-2.81454e-14
7.576e-14
-1.35988e-15
9.04325e-15
-5.91609e-16
6.27305e-16
-2.48681e-16
5.05392e-16
-2.98135e-16
1.47434e-16
-1.82785e-15
2.64938e-16
2.07452e-14
5.82324e-15
5.26219e-13
1.13773e-13
1.36361e-11
1.78125e-12
-8.31682e-10
2.15047e-11
-2.50001e-08
5.18611e-10
2.11321e-08
-3.0195e-08
8.04595e-24
-2.44907e-22
-9.51289e-25
-2.22263e-22
-2.24851e-23
1.66692e-23
-1.53816e-21
1.52762e-21
-2.53553e-20
3.77608e-20
-7.86076e-19
4.52088e-19
-8.0503e-18
8.11141e-18
-2.65317e-17
5.67225e-17
-3.21004e-16
2.78419e-16
-9.54453e-15
4.12409e-15
-1.93532e-14
1.91192e-14
-5.44118e-15
1.87104e-14
-1.51511e-15
2.37848e-15
-6.06174e-16
1.51435e-15
-1.04158e-16
4.09601e-16
-8.4513e-17
5.30014e-17
-3.19486e-16
5.47545e-17
2.28969e-15
1.01242e-15
5.50024e-14
2.59096e-14
3.99165e-13
4.24758e-13
1.5431e-12
6.12034e-12
-1.49287e-09
1.37793e-10
3.89635e-09
-2.85907e-08
5.04381e-24
-2.16598e-22
1.19789e-23
-1.756e-22
-6.17462e-23
-2.29541e-22
-2.27147e-22
1.2795e-22
-4.26417e-21
5.5384e-21
-1.26831e-19
8.45371e-20
-1.91785e-18
1.83521e-18
-1.27787e-17
2.18013e-17
-1.77876e-16
1.46677e-16
-2.17281e-15
6.49615e-16
-2.67287e-15
1.19333e-15
-1.42194e-15
1.04348e-15
-1.24272e-15
1.23876e-15
-3.91915e-16
1.71399e-15
-4.34985e-17
2.30855e-16
-2.88559e-17
2.55672e-17
-6.61262e-17
1.62452e-17
6.34661e-16
2.60624e-16
1.04305e-14
6.12311e-15
1.37459e-13
1.25403e-13
8.424e-13
2.23892e-12
4.25299e-11
4.80651e-11
1.99537e-10
-7.85363e-09
2.83357e-24
-1.74798e-22
1.26257e-23
-1.18047e-22
-3.9071e-24
-2.61824e-22
-1.88833e-23
5.56409e-23
-5.99263e-22
6.14687e-22
-2.06045e-20
1.72006e-20
-7.57764e-19
5.21516e-19
-1.13565e-17
1.08679e-17
-5.55327e-17
6.14614e-17
-8.99563e-17
7.22436e-17
-1.33951e-16
4.9816e-17
-3.2417e-16
6.27822e-17
-4.57802e-16
3.13963e-16
-1.24989e-16
4.93793e-16
-1.69435e-17
5.3702e-17
-8.16897e-18
9.85334e-18
-1.85412e-17
4.51602e-18
-2.04875e-16
7.03719e-17
3.16562e-15
1.04278e-15
7.39778e-14
2.11761e-14
1.32182e-12
3.61742e-13
3.42395e-11
4.90141e-12
4.40401e-11
-7.68259e-10
1.45217e-24
-1.29235e-22
8.64553e-24
-6.91989e-23
2.44935e-25
-1.93524e-22
-3.19762e-23
-3.66949e-24
-7.27517e-23
5.52747e-23
-3.76023e-21
3.59753e-21
-2.74616e-19
1.25675e-19
-6.00146e-18
3.25196e-18
-1.32416e-17
1.71457e-17
-1.17839e-17
2.00311e-17
-1.32545e-17
1.72821e-17
-3.427e-17
1.33942e-17
-5.79686e-17
1.94614e-17
-1.96682e-17
2.36133e-17
-4.58998e-18
6.14164e-18
-1.55125e-18
2.20695e-18
-2.67021e-18
9.42847e-19
-5.28991e-17
8.42356e-18
-3.61183e-16
2.20499e-16
1.21067e-14
2.63726e-15
2.6016e-13
3.10196e-14
1.48234e-12
3.6721e-13
-5.40318e-12
-8.62812e-11
6.64503e-25
-8.72886e-23
4.81138e-24
-3.553e-23
1.70858e-24
-1.16512e-22
-3.25052e-24
-2.73333e-23
-1.15901e-23
6.13898e-24
-7.41237e-22
7.44585e-22
-4.29314e-20
1.93216e-20
-8.60466e-19
3.1059e-19
-2.71359e-18
1.99358e-18
-4.0259e-18
4.8402e-18
-4.06851e-18
7.92922e-18
-2.96846e-18
5.45976e-18
-2.71455e-18
1.47321e-18
-1.32059e-18
6.77626e-19
-5.44329e-19
2.99338e-19
-2.41767e-19
1.91382e-19
-3.46684e-19
1.44639e-19
-5.29852e-18
9.71633e-19
-1.22218e-16
2.54305e-17
-4.65004e-16
5.15641e-16
1.45101e-14
4.16288e-15
1.32698e-13
2.2102e-14
-3.34615e-14
-7.86769e-12
2.63378e-25
-5.36491e-23
2.25338e-24
-1.58581e-23
1.29565e-24
-5.94519e-23
-3.77669e-25
-2.24737e-23
-2.19037e-24
7.53528e-25
-1.41251e-22
1.19284e-22
-3.88344e-21
2.48967e-21
-5.83398e-20
2.5762e-20
-3.23426e-19
1.80365e-19
-9.57605e-19
6.871e-19
-1.06273e-18
1.48656e-18
-4.38509e-19
1.41386e-18
-1.87278e-19
2.72858e-19
-5.13878e-20
7.44451e-20
-2.3894e-20
1.24186e-20
-2.28045e-20
7.2942e-21
-3.20476e-20
1.15637e-20
-4.53167e-19
1.34587e-19
-1.2005e-17
3.35891e-18
-1.96015e-16
6.99779e-17
-7.65559e-16
9.85168e-16
-1.49474e-15
4.45262e-15
2.47167e-14
-2.7595e-13
8.76321e-26
-2.99086e-23
8.87131e-25
-6.08404e-24
6.32816e-25
-2.58794e-23
-3.63572e-26
-1.21101e-23
-2.556e-25
5.42818e-26
-1.82061e-23
1.23342e-23
-4.43729e-22
3.31507e-22
-6.59803e-21
4.11449e-21
-3.89541e-20
2.71421e-20
-1.09921e-19
7.6797e-20
-1.2482e-19
1.16984e-19
-5.98335e-20
1.23566e-19
-2.14073e-20
4.2586e-20
-2.85119e-21
1.2374e-20
-8.22873e-22
1.10749e-21
-8.99888e-22
2.77244e-22
-2.2267e-21
7.57956e-22
-5.22482e-20
2.55602e-20
-1.15151e-18
7.20403e-19
-1.91241e-17
1.24304e-17
-1.66124e-16
1.64984e-16
-3.56729e-16
1.49891e-15
4.65677e-15
3.50563e-15
2.38151e-26
-1.50919e-23
2.91951e-25
-1.98313e-24
2.36132e-25
-9.59913e-24
-2.15019e-27
-5.08282e-24
-1.55454e-26
3.47751e-26
-1.74287e-24
9.30249e-25
-6.15236e-23
4.14658e-23
-9.79679e-22
6.503e-22
-4.47082e-21
3.63169e-21
-7.92024e-21
7.21232e-21
-8.74404e-21
7.99042e-21
-5.49669e-21
7.22373e-21
-2.08716e-21
4.21069e-21
-2.49859e-22
1.32343e-21
-2.57744e-23
1.04989e-22
-2.78308e-23
1.1828e-23
-1.81859e-22
7.57127e-23
-7.35599e-21
5.44713e-21
-1.59038e-19
1.98582e-19
-1.65879e-18
3.55786e-18
-8.19725e-18
3.73928e-17
6.77237e-17
3.26757e-16
1.90233e-15
1.58576e-15
5.1247e-27
-6.88634e-24
7.97132e-26
-5.43752e-25
7.07978e-26
-3.02813e-24
2.45346e-27
-1.75473e-24
-3.69955e-26
-4.61079e-26
-1.45563e-25
5.89733e-26
-7.11172e-24
3.93863e-24
-9.99577e-23
6.36029e-23
-3.61095e-22
2.99362e-22
-5.21923e-22
5.61563e-22
-5.57847e-22
6.44565e-22
-4.05154e-22
6.00712e-22
-1.47052e-22
3.62471e-22
-8.87955e-24
7.48182e-23
-6.64318e-25
5.13652e-23
-7.97988e-25
9.46506e-24
-1.34027e-23
6.44471e-24
-7.77351e-22
9.49759e-22
-1.55404e-20
5.02305e-20
5.64654e-21
1.14089e-18
2.85226e-18
1.21523e-17
4.83933e-17
8.94629e-17
6.59432e-16
5.09887e-16
8.31882e-28
-2.84173e-24
1.78887e-26
-1.24649e-25
1.73063e-26
-8.12843e-25
1.68977e-27
-5.09527e-25
-2.03626e-27
-3.80622e-26
-9.21276e-27
2.94987e-27
-5.31081e-25
2.40875e-25
-6.32737e-24
3.96385e-24
-2.14133e-23
1.8398e-23
-3.29106e-23
3.85458e-23
-3.48806e-23
4.99406e-23
-2.59492e-23
4.92273e-23
-4.16253e-24
2.08497e-23
5.36392e-25
3.33132e-23
1.82272e-24
-6.02733e-24
-2.49623e-25
-2.33258e-23
-4.28458e-25
4.04092e-24
-1.41835e-23
1.1848e-22
1.79828e-21
1.03649e-20
1.14312e-19
3.34805e-19
2.18925e-18
4.3338e-18
2.47702e-17
3.44566e-17
3.10925e-16
2.64019e-16
9.04369e-29
-1.0617e-24
3.25737e-27
-2.38732e-26
3.44866e-27
-1.86362e-25
5.2941e-28
-1.26123e-25
-8.44112e-29
-1.49324e-26
-3.71819e-28
1.15348e-28
-2.40218e-26
9.7439e-27
-2.85044e-25
1.79123e-25
-1.00871e-24
9.28736e-25
-1.64548e-24
2.09157e-24
-1.64941e-24
2.71143e-24
-6.85286e-25
2.08992e-24
2.69735e-26
6.10653e-25
1.02822e-24
-4.83331e-25
8.95175e-25
-2.27451e-23
2.94653e-26
-2.98922e-23
-6.38433e-26
-3.27142e-24
6.6228e-24
1.33885e-23
1.10742e-21
1.90037e-21
5.81218e-20
8.62345e-20
1.14521e-18
1.52e-18
1.31777e-17
1.47898e-17
1.67418e-16
1.68443e-16
2.81074e-30
-3.59808e-25
4.7089e-28
-3.84364e-27
5.52926e-28
-3.67434e-26
1.08821e-28
-2.69209e-26
-2.6958e-30
-4.11269e-27
-1.02178e-29
3.65881e-30
-7.21163e-28
3.18855e-28
-9.41643e-27
6.40479e-27
-3.47162e-26
3.53997e-26
-4.51467e-26
7.43261e-26
-3.2406e-26
7.72897e-26
-1.90988e-26
5.96242e-25
1.45097e-25
3.33648e-25
1.10753e-25
-7.19122e-24
-2.62938e-25
-1.90174e-23
-8.50141e-25
-2.17302e-23
-4.60969e-25
-6.49995e-24
2.35872e-24
1.84789e-24
3.35295e-22
3.801e-22
2.13544e-20
2.32633e-20
5.19435e-19
5.44054e-19
6.90858e-18
6.38627e-18
8.21434e-17
1.03184e-16
-1.60087e-28
-1.10871e-25
5.16426e-29
-5.3579e-28
6.84528e-29
-6.29054e-27
1.56989e-29
-5.01269e-27
-6.01225e-32
-8.95174e-28
-2.06854e-31
2.94136e-30
-1.56102e-29
9.22694e-30
-2.09952e-28
1.87823e-28
-6.31879e-28
9.96865e-28
-5.28917e-28
2.08251e-27
-2.12252e-28
5.37724e-26
1.14156e-27
1.78503e-26
-1.48912e-26
-1.16894e-24
-1.58541e-25
-5.22833e-24
-5.51478e-25
-1.04523e-23
-9.21821e-25
-1.13726e-23
-5.37751e-25
-4.63984e-24
1.07611e-24
2.85707e-25
9.74043e-23
9.34544e-23
7.91013e-21
7.50193e-21
2.36027e-19
2.18132e-19
3.39599e-18
2.67821e-18
3.08547e-17
5.09078e-17
-1.12567e-28
-3.11427e-26
3.52645e-30
-7.31013e-29
5.59945e-30
-9.45817e-28
1.45212e-30
-8.23841e-28
2.84359e-34
-1.62953e-28
-7.53895e-32
-2.95223e-32
-1.65724e-31
7.80366e-30
-1.42506e-30
7.13834e-30
-1.53404e-30
8.03173e-28
7.83039e-30
1.65981e-27
-1.22429e-28
-8.81977e-27
-3.32506e-27
-1.27345e-25
-3.27102e-26
-7.81453e-25
-1.51333e-25
-2.44427e-24
-3.78863e-25
-4.35913e-24
-5.45094e-25
-4.64107e-24
-3.35514e-25
-2.17442e-24
4.8293e-25
2.93182e-26
2.92747e-23
2.36767e-23
3.02226e-21
2.41681e-21
1.10581e-19
8.93809e-20
1.55388e-18
1.0849e-18
8.20868e-18
1.76351e-17
-5.05851e-29
-7.9935e-27
-1.96795e-32
-1.30461e-29
5.68759e-32
-1.26466e-28
2.00969e-32
-1.20836e-28
-1.76272e-32
-2.56609e-29
-1.07218e-33
-4.06785e-31
-8.15989e-33
-1.39527e-30
4.96406e-32
4.76726e-30
-2.13074e-31
-1.26595e-29
-2.41988e-29
-9.48429e-28
-4.28094e-28
-1.17053e-26
-3.73289e-27
-7.3548e-26
-2.21132e-26
-3.22798e-25
-7.90007e-26
-8.7244e-25
-1.71535e-25
-1.46515e-24
-2.30077e-25
-1.54263e-24
-1.45453e-25
-7.75116e-25
1.75523e-25
1.21995e-26
7.6923e-24
4.78426e-24
9.65948e-22
5.83472e-22
4.56898e-20
2.95631e-20
6.48657e-19
3.97109e-19
2.05477e-18
4.74889e-18
-1.78335e-29
-1.87868e-27
-2.14701e-32
-3.45133e-30
-7.56508e-32
-1.52072e-29
-1.12996e-31
-1.59617e-29
-3.63556e-32
-3.58331e-30
-3.1955e-33
-2.29583e-31
-3.02348e-32
-1.6009e-30
-2.4536e-31
-9.65679e-30
-2.6182e-30
-7.76982e-29
-3.05619e-29
-6.93024e-28
-3.006e-28
-5.263e-27
-1.96504e-27
-2.68791e-26
-9.41213e-27
-1.01727e-25
-2.9424e-26
-2.53721e-25
-5.91772e-26
-4.10876e-25
-7.62352e-26
-4.29834e-25
-4.85735e-26
-2.24213e-25
-4.8102e-28
-1.82883e-27
1.5139e-24
6.68763e-25
2.16705e-22
8.98702e-23
1.39189e-20
6.4718e-21
2.27935e-19
1.13e-19
5.80231e-19
1.30441e-18
-5.34811e-30
-4.04788e-28
-1.11021e-32
-1.01787e-30
-1.71777e-32
-1.66296e-30
-2.59686e-32
-1.91724e-30
-8.25337e-33
-4.5204e-31
-1.93044e-33
-8.19435e-32
-2.03215e-32
-6.72718e-31
-1.85134e-31
-4.8295e-30
-1.71824e-30
-3.55356e-29
-1.56044e-29
-2.57747e-28
-1.2351e-28
-1.6404e-27
-7.03245e-28
-7.56634e-27
-2.99603e-27
-2.62731e-26
-8.6478e-27
-6.22851e-26
-1.6557e-26
-9.8426e-26
-2.07791e-26
-1.02504e-25
-1.32464e-26
-5.45004e-26
-3.49956e-28
-1.20653e-27
2.12451e-25
6.55104e-26
3.27257e-23
9.17319e-24
2.86773e-21
9.09487e-22
6.07967e-20
2.21324e-20
1.436e-19
3.63709e-19
-1.36757e-30
-8.00244e-29
-4.17638e-33
-2.72879e-31
-2.44307e-33
-1.67289e-31
-3.95909e-33
-2.11136e-31
-1.2882e-33
-5.24093e-32
-6.94639e-34
-2.23178e-32
-7.67714e-33
-1.97058e-31
-7.24481e-32
-1.49615e-30
-6.36659e-31
-1.06521e-29
-5.16652e-30
-7.04254e-29
-3.63392e-29
-4.05888e-28
-1.91169e-28
-1.75853e-27
-7.56914e-28
-5.77045e-27
-2.08028e-27
-1.32036e-26
-3.85889e-27
-2.04873e-26
-4.76108e-27
-2.12473e-26
-3.02021e-27
-1.1371e-26
-1.24868e-28
-3.97877e-28
2.19491e-26
4.93188e-27
3.49222e-24
6.90961e-25
4.08105e-22
9.03406e-23
1.16207e-20
3.02394e-21
2.50612e-20
8.35786e-20
-3.03935e-31
-1.45229e-29
-1.22078e-33
-6.39657e-32
-2.76572e-34
-1.56845e-32
-4.78117e-34
-2.14844e-32
-1.62726e-34
-5.68298e-33
-1.77673e-34
-4.98406e-33
-2.02384e-33
-4.57864e-32
-1.94022e-32
-3.56969e-31
-1.65949e-31
-2.49467e-30
-1.26552e-30
-1.56236e-29
-8.2785e-30
-8.43529e-29
-4.13728e-29
-3.49953e-28
-1.56386e-28
-1.103e-27
-4.15921e-28
-2.45704e-27
-7.55524e-28
-3.75495e-27
-9.23223e-28
-3.87396e-27
-5.8048e-28
-2.06432e-27
-3.13806e-29
-9.48218e-29
1.78806e-27
3.21151e-28
2.76828e-25
4.1696e-26
4.2432e-23
7.00567e-24
1.64833e-21
3.25166e-22
3.24014e-21
1.43829e-20
-6.00552e-32
-2.41959e-30
-2.92541e-34
-1.32657e-32
-2.68178e-35
-1.39441e-33
-4.83864e-35
-2.0353e-33
-1.7564e-35
-5.87188e-34
-3.49234e-35
-9.49425e-34
-4.03545e-34
-8.93055e-33
-3.905e-33
-7.06516e-32
-3.28744e-32
-4.87748e-31
-2.41404e-31
-2.94831e-30
-1.50541e-30
-1.51976e-29
-7.27911e-30
-6.10389e-29
-2.6675e-29
-1.86596e-28
-6.94078e-29
-4.06674e-28
-1.24404e-28
-6.12796e-28
-1.50985e-28
-6.27691e-28
-9.35895e-29
-3.29248e-28
-5.94902e-30
-1.77507e-29
1.28658e-28
2.14508e-29
1.76135e-26
2.38598e-27
3.45919e-24
4.91557e-25
1.89032e-22
3.18341e-23
3.68902e-22
1.96886e-21
-1.06169e-32
-3.69941e-31
-5.96673e-35
-2.46381e-33
-2.35805e-36
-1.20554e-34
-4.21852e-36
-1.80858e-34
-1.67108e-36
-5.89086e-35
-5.4468e-36
-1.58398e-34
-6.32615e-35
-1.51219e-33
-6.14741e-34
-1.20667e-32
-5.12628e-33
-8.25769e-32
-3.67763e-32
-4.86896e-31
-2.22099e-31
-2.42517e-30
-1.05057e-30
-9.49455e-30
-3.77197e-30
-2.83237e-29
-9.66965e-30
-6.05696e-29
-1.71704e-29
-8.99835e-29
-2.074e-29
-9.12595e-29
-1.25638e-29
-4.65279e-29
-8.61008e-31
-2.68902e-30
9.49118e-30
1.73283e-30
1.08127e-27
1.71598e-28
2.59421e-25
4.01779e-26
1.937e-23
3.21311e-24
4.04956e-23
2.32712e-22
-1.66283e-33
-5.18956e-32
-1.04381e-35
-4.10987e-34
-1.97616e-37
-1.0482e-35
-3.21544e-37
-1.51898e-35
-1.43097e-37
-5.8304e-36
-6.85133e-37
-2.36088e-35
-7.92702e-36
-2.27561e-34
-7.7188e-35
-1.82509e-33
-6.40656e-34
-1.24058e-32
-4.53075e-33
-7.18181e-32
-2.68183e-32
-3.4845e-31
-1.25108e-31
-1.3359e-30
-4.43496e-31
-3.9044e-30
-1.12672e-30
-8.20599e-30
-1.98622e-30
-1.20132e-29
-2.38807e-30
-1.20251e-29
-1.39855e-30
-5.87708e-30
-9.53401e-32
-3.34889e-31
7.65267e-31
1.68671e-31
7.94641e-29
1.75425e-29
2.17119e-26
4.26437e-27
1.90527e-24
3.41501e-25
4.20937e-24
2.43133e-23
-2.28951e-34
-6.68263e-33
-1.56361e-36
-6.16121e-35
-1.63595e-38
-9.45654e-37
-2.17698e-38
-1.21465e-36
-1.11137e-38
-5.74803e-37
-7.01652e-38
-3.19382e-36
-8.01908e-37
-3.09786e-35
-7.77217e-36
-2.49178e-34
-6.43924e-35
-1.6843e-33
-4.52787e-34
-9.61376e-33
-2.6543e-33
-4.56901e-32
-1.23203e-32
-1.72088e-31
-4.34493e-32
-4.94098e-31
-1.09954e-31
-1.02166e-30
-1.93283e-31
-1.47279e-30
-2.31411e-31
-1.45081e-30
-1.29507e-31
-6.69955e-31
-8.12461e-33
-3.47369e-32
6.18894e-32
1.65768e-32
7.03158e-30
2.05503e-30
1.98543e-27
4.69258e-28
1.71935e-25
3.29218e-26
3.79356e-25
2.16885e-24
-2.77569e-35
-7.91083e-34
-2.00947e-37
-8.33164e-36
-1.34947e-39
-8.92875e-38
-1.32218e-39
-9.3106e-38
-7.71455e-40
-5.65495e-38
-5.77822e-39
-3.97236e-37
-6.36761e-38
-3.86949e-36
-6.12694e-37
-3.11666e-35
-5.09667e-36
-2.09643e-34
-3.61296e-35
-1.18305e-33
-2.13296e-34
-5.52885e-33
-9.9695e-34