/*--------------------------------*- C++ -*----------------------------------*\
| =========                 |                                                 |
| \\      /  F ield         | OpenFOAM: The Open Source CFD Toolbox           |
|  \\    /   O peration     | Version:  2206                                  |
|   \\  /    A nd           | Website:  www.openfoam.com                      |
|    \\/     M anipulation  |                                                 |
\*---------------------------------------------------------------------------*/
FoamFile
{
    version     2.0;
    format      ascii;
    arch        "LSB;label=32;scalar=64";
    class       surfaceScalarField;
    location    "0.475";
    object      alphaPhi0.water;
}
// * * * * * * * * * * * * * * * * * * * * * * * * * * * * * * * * * * * * * //

dimensions      [0 3 -1 0 0 0 0];

oriented        oriented;

internalField   nonuniform List<scalar> 
4432
(
-3.8583e-06
3.8583e-06
-4.83949e-06
9.81192e-07
-2.05628e-06
-2.78321e-06
2.99158e-06
-5.04786e-06
9.01009e-06
-6.01851e-06
1.47782e-05
-5.76812e-06
1.95423e-05
-4.76411e-06
2.30682e-05
-3.52585e-06
2.54507e-05
-2.38258e-06
2.69052e-05
-1.45446e-06
2.76405e-05
-7.35284e-07
2.77843e-05
-1.43772e-07
2.73388e-05
4.4546e-07
2.61601e-05
1.17872e-06
2.39602e-05
2.19984e-06
2.02439e-05
3.71633e-06
1.44281e-05
5.81582e-06
6.56333e-06
7.86475e-06
-1.02889e-06
7.63105e-06
-6.68886e-06
6.21045e-06
-1.47473e-05
7.26101e-06
-1.56045e-05
-2.27223e-07
-1.56111e-05
-4.06428e-06
7.92257e-06
-4.51355e-06
1.43046e-06
-1.61105e-06
-5.68571e-06
3.43914e-06
-1.0098e-05
9.39538e-06
-1.19747e-05
1.50826e-05
-1.14553e-05
1.9758e-05
-9.43947e-06
2.32049e-05
-6.9728e-06
2.55419e-05
-4.7196e-06
2.69973e-05
-2.90986e-06
2.77868e-05
-1.52478e-06
2.81014e-05
-4.58318e-07
2.81087e-05
4.3807e-07
2.79461e-05
1.34138e-06
2.76285e-05
2.51741e-06
2.69657e-05
4.37915e-06
2.52312e-05
7.55029e-06
2.07967e-05
1.22992e-05
1.19781e-05
1.64497e-05
-3.37076e-07
1.87478e-05
-9.16072e-06
1.5286e-05
-8.94143e-06
-8.38444e-07
-2.45586e-05
-3.54643e-06
1.1469e-05
-3.75959e-06
1.64362e-06
-7.96706e-07
-8.6486e-06
4.0865e-06
-1.49813e-05
9.85699e-06
-1.77452e-05
1.53488e-05
-1.69471e-05
1.98065e-05
-1.38972e-05
2.30459e-05
-1.02122e-05
2.52345e-05
-6.90822e-06
2.66261e-05
-4.30141e-06
2.74315e-05
-2.33021e-06
2.77882e-05
-8.1508e-07
2.77769e-05
4.49363e-07
2.74359e-05
1.68245e-06
2.68305e-05
3.12276e-06
2.6137e-05
5.07267e-06
2.56721e-05
8.01517e-06
2.50313e-05
1.294e-05
2.18474e-05
1.96336e-05
1.41237e-05
2.64715e-05
4.18747e-06
2.57665e-05
7.56898e-07
2.94872e-06
-2.38071e-05
-2.79653e-06
1.42655e-05
-2.6531e-06
1.50018e-06
2.21594e-07
-1.15233e-05
4.78423e-06
-1.95439e-05
1.0275e-05
-2.3236e-05
1.55389e-05
-2.22111e-05
1.9751e-05
-1.81093e-05
2.27496e-05
-1.32108e-05
2.47696e-05
-8.92821e-06
2.6101e-05
-5.63281e-06
2.69484e-05
-3.17763e-06
2.74261e-05
-1.29274e-06
2.75844e-05
2.91085e-07
2.74296e-05
1.8372e-06
2.6952e-05
3.60036e-06
2.61948e-05
5.82989e-06
2.54254e-05
8.78455e-06
2.53199e-05
1.30454e-05
2.56174e-05
1.93361e-05
2.42892e-05
2.77997e-05
1.94709e-05
3.15178e-05
1.04406e-05
1.2431e-05
-1.33663e-05
-1.81477e-06
1.60803e-05
-1.13705e-06
8.22465e-07
1.4421e-06
-1.41024e-05
5.58357e-06
-2.36854e-05
1.06735e-05
-2.83259e-05
1.56271e-05
-2.71647e-05
1.95494e-05
-2.20316e-05
2.22999e-05
-1.59613e-05
2.41733e-05
-1.08016e-05
2.54819e-05
-6.94143e-06
2.64132e-05
-4.10892e-06
2.70501e-05
-1.92963e-06
2.74147e-05
-7.35075e-08
2.74982e-05
1.75364e-06
2.72859e-05
3.81263e-06
2.67977e-05
6.31817e-06
2.61182e-05
9.46402e-06
2.56784e-05
1.34852e-05
2.63567e-05
1.86578e-05
2.79839e-05
2.61725e-05
2.69751e-05
3.25267e-05
1.7081e-05
2.23253e-05
3.70501e-06
-5.48727e-07
1.6629e-05
9.82459e-07
-7.08721e-07
3.48521e-06
-1.66052e-05
7.21325e-06
-2.74134e-05
1.16775e-05
-3.27902e-05
1.59896e-05
-3.14768e-05
1.93749e-05
-2.54169e-05
2.17666e-05
-1.8353e-05
2.3487e-05
-1.2522e-05
2.48199e-05
-8.27438e-06
2.58968e-05
-5.18578e-06
2.67472e-05
-2.78008e-06
2.73573e-05
-6.83567e-07
2.76867e-05
1.42422e-06
2.77119e-05
3.78744e-06
2.74739e-05
6.55617e-06
2.70801e-05
9.85778e-06
2.66639e-05
1.39014e-05
2.67506e-05
1.85711e-05
2.83356e-05
2.45875e-05
2.88629e-05
3.19994e-05
2.02437e-05
3.09445e-05
2.39381e-05
1.29091e-06
1.53381e-05
3.98826e-06
-3.40607e-06
7.22709e-06
-1.9844e-05
1.07722e-05
-3.09585e-05
1.42077e-05
-3.62256e-05
1.72577e-05
-3.45268e-05
1.96635e-05
-2.78227e-05
2.14734e-05
-2.01628e-05
2.29417e-05
-1.39903e-05
2.42559e-05
-9.5886e-06
2.54627e-05
-6.39261e-06
2.65273e-05
-3.84469e-06
2.7397e-05
-1.55329e-06
2.80125e-05
8.08715e-07
2.82872e-05
3.51281e-06
2.82596e-05
6.58369e-06
2.80664e-05
1.0051e-05
2.78381e-05
1.41297e-05
2.76416e-05
1.87676e-05
2.83026e-05
2.39265e-05
2.88439e-05
3.14581e-05
2.26865e-05
3.71019e-05
4.6614e-05
3.43558e-06
1.19025e-05
8.2397e-06
-8.21019e-06
1.31439e-05
-2.47481e-05
1.6499e-05
-3.43122e-05
1.82619e-05
-3.79872e-05
1.94268e-05
-3.56913e-05
2.05818e-05
-2.89775e-05
2.17863e-05
-2.13673e-05
2.30243e-05
-1.52282e-05
2.42848e-05
-1.08491e-05
2.55177e-05
-7.62556e-06
2.66512e-05
-4.97814e-06
2.76193e-05
-2.52146e-06
2.83789e-05
4.91195e-08
2.88583e-05
3.03346e-06
2.90723e-05
6.36962e-06
2.91076e-05
1.00157e-05
2.90704e-05
1.4167e-05
2.89679e-05
1.88701e-05
2.90805e-05
2.38139e-05
2.9096e-05
3.14425e-05
2.41604e-05
4.20376e-05
7.07638e-05
4.03574e-08
-1.5507e-07
1.61976e-07
-2.10519e-07
1.68849e-07
-7.86836e-08
8.18612e-08
2.03874e-08
1.04929e-08
5.01693e-08
5.6318e-10
9.46588e-09
1.74245e-11
5.26106e-10
3.34088e-12
1.15094e-11
3.1801e-14
1.14939e-13
-3.44487e-12
2.83229e-13
-1.91966e-11
1.17357e-11
-3.3408e-10
2.37635e-10
-5.10785e-09
3.55677e-09
-5.79185e-08
4.18487e-08
-3.45249e-07
2.23102e-07
-8.997e-07
4.01079e-07
-1.51421e-06
6.56205e-08
-1.03318e-06
-1.40969e-06
-2.56439e-06
1.12533e-07
-3.82317e-07
5.88986e-07
-2.28337e-06
7.77731e-07
-1.06436e-06
4.6623e-07
-2.29742e-07
5.3926e-08
1.84923e-07
6.21216e-09
5.28745e-08
3.31639e-10
5.95794e-09
1.47966e-11
3.07909e-10
5.21755e-13
1.166e-11
-6.48014e-12
2.86176e-12
-1.27013e-10
1.16049e-10
-2.30874e-09
1.95416e-09
-2.63923e-08
2.20563e-08
-1.80514e-07
1.59878e-07
-7.23036e-07
6.26212e-07
-1.55704e-06
6.92301e-07
-2.45118e-06
1.6588e-07
-1.79895e-06
-3.57546e-06
-6.34807e-06
4.58898e-07
-1.10797e-06
9.3943e-07
-2.88606e-06
6.83056e-07
-8.94059e-07
2.53253e-07
-7.98569e-07
8.51044e-09
1.07235e-07
4.1497e-09
4.96302e-08
3.78296e-10
8.74847e-09
3.403e-11
5.74681e-10
1.32605e-12
2.51607e-11
-1.22256e-11
3.95263e-12
-9.21018e-11
1.69562e-10
-1.40092e-09
2.7413e-09
-1.34657e-08
2.76896e-08
-7.41895e-08
1.78246e-07
-2.9917e-07
6.77473e-07
-2.7543e-06
2.96255e-07
-3.51726e-06
-9.34606e-06
-2.44836e-06
-1.9806e-05
-1.26521e-05
9.99502e-07
-3.3369e-06
2.59267e-07
-5.25246e-07
5.92892e-08
-5.66585e-08
1.48016e-07
-5.12224e-09
8.06028e-08
2.04362e-08
-4.88759e-09
4.44314e-08
-2.60472e-10
3.51098e-09
9.63093e-13
2.67039e-10
2.691e-13
1.31052e-11
-1.85606e-12
2.08472e-12
5.40756e-11
9.23726e-11
7.89802e-10
1.57515e-09
6.39794e-09
1.72154e-08
3.2782e-08
1.21042e-07
1.37306e-07
4.43195e-07
-2.35235e-07
-7.0027e-09
-1.75513e-06
-1.22771e-05
-3.80287e-06
-3.94709e-05
-2.61339e-05
-1.24386e-07
-4.92705e-05
1.02249e-09
-3.70231e-07
2.18928e-09
-5.18127e-08
7.05207e-10
-1.5579e-09
3.81495e-08
-2.88554e-09
-2.0029e-09
2.24811e-08
-1.60556e-10
1.40049e-09
-4.23765e-12
9.2732e-11
4.97041e-14
4.84927e-12
-1.24243e-13
8.29126e-13
3.41477e-11
3.34296e-11
6.62143e-10
5.52527e-10
3.86636e-09
7.01445e-09
-2.26399e-08
6.9742e-08
-1.14256e-07
1.12603e-07
-1.62434e-07
-2.64222e-08
1.47388e-07
-3.66243e-07
-5.8477e-06
-1.02057e-05
-0.000181645
-2.41418e-06
-8.04709e-05
-7.58306e-08
-2.72692e-06
-2.07988e-10
-1.25516e-07
-2.94247e-10
-1.90622e-09
4.64991e-09
-4.62582e-10
3.34797e-10
2.66073e-09
-6.73794e-11
7.32915e-10
-2.40977e-12
2.21738e-11
1.95224e-14
1.54511e-12
-9.63415e-15
3.01314e-13
6.82266e-12
8.87711e-12
1.27238e-10
1.63893e-10
4.59302e-10
1.39744e-09
-1.18743e-08
1.05635e-08
-4.19664e-08
-3.42791e-09
-1.6407e-08
-2.54013e-10
-2.12971e-07
-1.07143e-07
-5.94217e-06
-2.89088e-06
-0.000308578
-6.06466e-06
-8.14257e-05
-4.15646e-07
-8.47136e-06
-1.81407e-09
-5.40402e-07
-1.90114e-09
-2.15965e-09
-9.47831e-10
-9.74816e-11
-9.91685e-12
-6.83567e-10
-1.43036e-11
1.56167e-10
-6.3535e-13
6.96003e-12
3.56854e-14
6.7318e-13
8.07506e-15
1.37486e-13
6.43343e-13
1.48844e-12
1.43266e-11
3.76649e-11
1.10403e-11
7.5965e-10
4.0527e-09
6.36595e-09
1.04254e-08
1.05756e-08
1.43085e-08
5.83081e-10
9.09766e-09
-7.26925e-08
-3.55814e-06
-2.94185e-07
-0.000308966
-7.48172e-06
-7.98457e-05
-4.93866e-07
-2.14693e-05
-6.99984e-09
-1.0286e-06
-2.62504e-10
-8.36055e-09
-3.70117e-10
1.42279e-12
-2.55823e-11
1.47254e-10
7.74753e-14
1.60287e-11
-4.8522e-14
6.64158e-12
4.18999e-14
4.71923e-13
2.47957e-15
6.60715e-14
1.28572e-13
2.61066e-13
6.2452e-12
1.26249e-11
3.61675e-10
3.54331e-10
6.17365e-09
4.28281e-09
2.61174e-08
5.03777e-09
3.31093e-08
-2.51508e-10
1.56563e-08
-4.04059e-08
9.09563e-08
-6.05937e-08
-0.000305443
1.53341e-05
-3.43158e-06
3.52898e-05
-2.81623e-05
4.99983e-05
-3.9442e-05
5.29605e-05
-3.51941e-05
4.94397e-05
-3.29804e-05
4.57952e-05
-3.19483e-05
4.51157e-05
-2.82886e-05
4.70719e-05
-2.33177e-05
5.03855e-05
-1.85391e-05
5.40606e-05
-1.45231e-05
5.74628e-05
-1.10274e-05
6.02462e-05
-7.76156e-06
6.23904e-05
-4.66567e-06
6.35642e-05
-1.12464e-06
6.40256e-05
2.57203e-06
6.42719e-05
6.12334e-06
6.46116e-05
9.676e-06
6.50286e-05
1.375e-05
6.57496e-05
1.81491e-05
6.71549e-05
2.24085e-05
7.06819e-05
2.79155e-05
7.96894e-05
3.30301e-05
4.5954e-05
0.00010447
2.48126e-05
-2.4081e-05
4.18353e-05
-2.97897e-05
3.55116e-05
-5.79922e-06
3.10161e-05
-3.7001e-07
2.94828e-05
-5.26528e-06
2.74446e-05
-6.91549e-06
2.69117e-05
-7.49336e-06
3.01567e-05
-7.9879e-06
3.66933e-05
-8.56611e-06
4.48985e-05
-8.9188e-06
5.33465e-05
-8.71057e-06
6.08376e-05
-7.65763e-06
6.62622e-05
-5.58604e-06
6.92972e-05
-2.42698e-06
7.01301e-05
1.73903e-06
6.97358e-05
6.51766e-06
6.97146e-05
9.69718e-06
6.96329e-05
1.38317e-05
7.06275e-05
1.71545e-05
7.3779e-05
1.92571e-05
7.99431e-05
2.17514e-05
9.0059e-05
2.29142e-05
2.57515e-05
0.000110257
1.05936e-05
-3.53424e-22
5.98495e-06
-3.46e-13
1.85753e-07
-2.42087e-11
-1.84585e-07
2.45547e-11
1.22246e-08
-1.63936e-19
3.97645e-08
-5.54393e-18
-8.31105e-08
-5.39912e-17
-8.90086e-08
-2.11473e-15
3.30627e-07
-7.06797e-14
1.65976e-06
-1.83406e-12
4.40821e-06
-3.89057e-11
9.40542e-06
-7.1416e-10
1.79942e-05
-1.12932e-08
3.16599e-05
-1.51695e-07
5.08899e-05
-1.49653e-06
6.88706e-05
2.48786e-07
7.48171e-05
6.32249e-06
7.28537e-05
1.57951e-05
7.14736e-05
1.85346e-05
7.37167e-05
1.7014e-05
7.79636e-05
1.75045e-05
8.39153e-05
1.69625e-05
1.53565e-05
9.43103e-05
9.16823e-24
-3.62685e-22
-3.46e-13
-2.7584e-20
-2.45547e-11
-4.60213e-19
-5.02453e-20
-5.85284e-18
-1.81055e-19
-3.1557e-18
-1.20501e-18
-7.64254e-18
-4.90379e-17
-8.60084e-18
-2.07495e-15
-8.77973e-17
-6.89638e-14
-3.68317e-15
-1.81505e-12
-8.38891e-14
-4.00508e-11
-5.41439e-13
-7.53956e-10
-3.84232e-13
-1.20452e-08
-2.54258e-12
-1.63594e-07
-1.45921e-10
-2.65791e-07
-4.11569e-09
2.42163e-06
-5.37473e-08
1.34741e-05
-3.77945e-07
3.64878e-05
-1.02953e-07
6.44585e-05
2.01414e-06
7.77458e-05
7.46576e-06
8.17566e-05
1.34938e-05
8.50458e-05
1.36732e-05
1.11689e-05
8.92333e-05
-3.38653e-22
-1.40583e-22
-1.63657e-20
-1.08795e-20
-1.52515e-19
-2.80336e-19
-1.78928e-18
-3.32823e-18
-3.88488e-18
-1.42663e-17
-5.13962e-18
-3.13542e-17
-6.89328e-18
-3.38802e-17
-8.8701e-17
-1.44353e-16
-1.48717e-14
-7.73285e-15
-1.00998e-13
-3.24789e-13
-1.36342e-13
-1.39939e-12
-1.52899e-13
-1.16995e-12
-3.24898e-12
-5.48443e-14
-1.48403e-10
-1.2805e-12
-3.34173e-09
-9.21609e-10
-5.01358e-08
-6.93081e-09
-4.13763e-07
-1.43887e-08
-2.95463e-07
-1.15934e-08
3.00532e-06
-1.0496e-08
1.48861e-05
-3.56538e-08
3.92811e-05
-3.42854e-08
7.46655e-05
4.97703e-08
1.92421e-06
9.03609e-05
-1.02641e-22
-2.91045e-23
-1.0876e-20
-4.55396e-21
-4.97915e-19
-2.85188e-19
-6.94155e-18
-6.44314e-18
-3.4489e-17
-4.69393e-17
-5.15578e-17
-1.06781e-16
-5.46062e-17
-1.24546e-16
-2.27728e-16
-3.54632e-16
2.57903e-14
-3.47082e-14
-2.81645e-12
-2.63486e-12
-4.05763e-12
-7.02248e-12
-4.18719e-13
-4.24457e-12
-6.13189e-13
-3.37193e-13
-3.11692e-12
1.18517e-12
-1.37902e-09
-2.03532e-10
-2.16187e-09
-7.47865e-09
-6.32683e-10
-1.42949e-08
1.61733e-10
-1.48183e-08
3.56603e-10
-1.23786e-08
-3.64294e-08
-1.30041e-09
-1.92831e-07
-1.35693e-08
3.18772e-06
-2.79467e-08
-8.17219e-09
1.65879e-05
-2.18524e-23
-8.32307e-24
-4.23735e-21
-1.51687e-21
-5.71911e-19
-1.87035e-19
-1.31935e-17
-6.4613e-18
-6.3083e-17
-5.14497e-17
-9.46712e-17
-1.39082e-16
-1.04421e-16
-1.74729e-16
2.40172e-16
-2.69908e-16
-1.61859e-13
-1.33355e-14
-5.06492e-12
-3.26948e-12
-5.22793e-12
-6.71559e-12
-2.25557e-12
-7.07305e-12
1.1344e-13
-6.27656e-13
1.26688e-12
-4.42407e-15
7.26088e-11
-8.76899e-15
8.49062e-10
-1.54449e-09
1.18981e-09
-7.43724e-09
3.32417e-09
-8.44976e-09
4.74307e-09
-7.32369e-09
1.56827e-08
-2.24199e-09
1.76115e-08
-8.77664e-09
9.93144e-09
-1.66378e-08
-2.287e-09
6.51037e-09
-2.31921e-23
1.4869e-23
-1.22561e-21
-3.37127e-22
-2.82232e-19
-5.63159e-20
-1.01509e-17
-3.859e-18
-5.63117e-17
-4.54581e-17
-9.32489e-17
-1.39282e-16
-1.00643e-16
-1.84227e-16
-2.16435e-16
-1.71184e-16
-1.12443e-14
-2.22824e-15
-2.83313e-12
-9.66069e-13
-4.52809e-12
-4.87676e-12
-2.97457e-12
-6.06189e-12
-3.64205e-14
-3.80163e-13
3.87646e-15
-8.09102e-14
9.56886e-15
-5.07119e-14
3.81085e-10
-5.37252e-14
1.86887e-10
-2.80339e-14
3.84457e-10
-2.75804e-13
1.77122e-09
-3.57033e-09
9.16584e-09
-5.85608e-09
2.27149e-08
-1.00523e-08
2.99405e-08
-6.44302e-09
6.59359e-11
1.27795e-08
-4.68548e-23
2.14669e-23
-2.89855e-22
-9.41262e-23
-7.06411e-20
-1.28059e-20
-4.28255e-18
-1.37738e-18
-3.80917e-17
-2.08409e-17
-8.45196e-17
-9.6722e-17
-8.02721e-17
-1.90517e-16
-1.29172e-18
-2.51521e-16
-1.96423e-15
-2.46609e-16
-6.44214e-13
-4.33109e-15
-8.22622e-13
-1.25061e-14
-2.14391e-13
-3.57668e-14
-4.10386e-14
-9.89313e-14
1.52674e-14
-3.78274e-13
3.13466e-14
-1.68574e-13
1.42162e-15
-1.06108e-14
7.90922e-16
-7.6938e-15
6.84911e-14
-3.30315e-13
2.02914e-09
-7.90551e-09
6.6585e-09
-1.71962e-08
5.15174e-09
-1.00484e-08
6.43719e-09
-6.53512e-09
-2.76565e-09
7.31644e-09
-4.07997e-24
1.4272e-23
-4.62921e-22
3.64715e-22
-1.55143e-20
-2.64253e-21
-1.00722e-18
-4.15059e-19
-1.05243e-17
-6.69022e-18
-5.00974e-17
-3.83558e-17
-9.15204e-17
-1.52867e-16
-7.40831e-17
-2.79076e-16
-6.16911e-17
-3.41534e-16
-7.67939e-17
-4.39793e-15
-1.3006e-16
-1.2478e-14
-3.21435e-15
-3.26304e-14
3.04056e-16
-5.14253e-14
5.95043e-14
-4.14925e-13
1.29242e-14
-2.13152e-13
4.52996e-16
-3.69299e-15
1.7445e-14
-1.75002e-15
5.81451e-12
-6.10639e-12
-1.88047e-10
-4.63882e-09
-2.32906e-10
-1.26781e-08
8.35497e-11
-8.55814e-09
8.20023e-10
-9.4144e-09
-4.40288e-09
2.46247e-09
1.96755e-23
4.71468e-24
-3.00635e-22
5.41833e-22
-3.37132e-21
-5.21293e-22
-2.21602e-19
-1.02401e-19
-2.17273e-18
-1.75496e-18
-1.68833e-17
-1.12497e-17
-6.35305e-17
-8.99408e-17
-5.98839e-17
-2.74638e-16
-1.9252e-16
-2.82663e-16
-3.59503e-16
-4.13126e-15
-1.04611e-16
-2.64901e-14
1.4572e-15
-8.3159e-14
7.17726e-15
-1.10207e-13
3.11664e-14
-3.03394e-13
3.52372e-15
-6.58007e-14
1.0972e-16
-1.5434e-15
-8.37548e-16
-3.54318e-16
-6.00445e-12
-8.92139e-14
-2.48734e-10
-6.64154e-11
-1.89619e-09
-2.28693e-09
-6.17903e-09
-2.1877e-08
-1.20759e-08
-3.37968e-08
-1.42011e-08
-3.72408e-09
2.00619e-23
-1.6575e-24
-4.29569e-23
4.78982e-22
-6.08338e-22
-1.37217e-22
-4.35793e-20
-2.00621e-20
-3.78071e-19
-3.92124e-19
-5.2412e-18
-2.64483e-18
-5.29861e-17
-3.40738e-17
-4.63583e-17
-1.70362e-16
-9.9571e-17
-2.2796e-16
-7.99104e-16
-1.95951e-15
-2.61481e-15
-3.21704e-14
-1.64721e-15
-9.10091e-14
-1.44123e-15
-7.23109e-14
-1.33927e-15
-3.49965e-15
-1.99923e-16
-2.23091e-15
-2.52032e-17
-1.33062e-15
-2.08239e-16
-1.33473e-16
-8.6611e-14
-2.70921e-15
-6.62974e-11
-2.00146e-13
-2.34438e-09
-8.7359e-12
-6.25208e-09
-2.75829e-10
-1.56217e-08
-4.89032e-09
-5.36698e-09
-1.55254e-08
1.2523e-23
-5.40161e-24
-2.7321e-24
3.70663e-22
-4.27418e-22
2.87469e-22
-7.82169e-21
-2.96833e-21
-6.64481e-20
-7.31184e-20
-1.09833e-18
-5.12478e-19
-1.77545e-17
-7.69933e-18
-2.66466e-17
-6.56356e-17
-3.83957e-17
-1.79378e-16
-1.53347e-15
-6.64353e-16
-9.92764e-15
-2.24024e-14
-1.07492e-14
-8.86151e-14
-2.12399e-16
-2.78177e-14
-1.61896e-16
-2.86619e-15
-2.12906e-16
-1.49865e-15
-3.84895e-17
-8.13665e-16
-2.03666e-17
-1.10578e-16
-2.72006e-15
-8.87809e-18
-2.02858e-13
-7.79677e-18
-8.93877e-12
-1.78506e-17
-2.84767e-10
-3.80144e-17
-5.17509e-09
-3.89189e-17
-3.80226e-17
-1.0779e-08
7.57205e-24
-6.9002e-24
1.9892e-23
2.4848e-22
-2.22153e-22
3.67768e-22
-1.19089e-21
-2.91356e-22
-1.11112e-20
-1.06348e-20
-1.6293e-19
-9.69789e-20
-3.42605e-18
-1.79673e-18
-1.54013e-17
-1.83416e-17
-3.31662e-17
-8.78224e-17
-6.67309e-16
-3.12903e-16
-1.13632e-14
-3.21069e-15
-4.89573e-15
-1.25207e-14
-1.05759e-15
-4.77915e-15
-5.14834e-16
-3.44486e-15
-2.75254e-16
-1.43554e-15
-5.87637e-17
-4.64138e-16
-3.14139e-18
-8.05527e-17
-3.09939e-18
-8.5931e-18
-4.29485e-18
-6.22065e-18
-6.80353e-18
-1.48445e-17
-1.00708e-17
-3.43907e-17
-1.32031e-17
-3.62929e-17
-3.6983e-17
-1.61149e-17
4.55245e-24
-6.69734e-24
2.31592e-23
1.44821e-22
-1.94844e-23
2.55835e-22
-1.18658e-22
-1.65255e-23
-1.59774e-21
-1.11206e-21
-3.30439e-20
-1.78206e-20
-6.67259e-19
-4.03858e-19
-5.92525e-18
-4.37052e-18
-2.13422e-17
-4.07221e-17
-1.70973e-16
-1.49579e-16
-1.13888e-15
-3.50975e-17
-6.91645e-16
-9.69972e-17
-1.04611e-15
-6.13445e-16
-4.7712e-16
-7.75712e-16
-2.19269e-16
-5.71696e-16
-4.74559e-17
-1.79246e-16
-5.59614e-18
-2.92919e-17
-3.53097e-18
-3.53707e-18
-6.2913e-18
-2.81808e-18
-2.23805e-17
-1.52591e-17
-5.0319e-17
-5.07521e-17
-6.03935e-17
-9.0631e-17
-9.47328e-17
-5.8987e-17
2.55738e-24
-5.36961e-24
1.55397e-23
7.33436e-23
-1.35688e-25
1.46511e-22
-4.95054e-23
3.28442e-23
-1.94239e-22
-8.09262e-23
-6.91258e-21
-3.04381e-21
-1.14002e-19
-7.82803e-20
-2.43632e-18
-9.05634e-19
-2.94348e-17
-1.13646e-17
-8.49187e-18
-4.65842e-17
-5.28345e-18
-2.23882e-17
-7.88211e-17
-1.61012e-17
-2.94548e-16
-1.49005e-17
-2.05308e-16
-2.70741e-17
-8.57566e-17
-4.23276e-17
-1.76374e-17
-3.0044e-17
-1.80505e-18
-7.1487e-18
-1.271e-18
-1.14087e-18
-4.57181e-18
-4.95925e-19
-3.11272e-17
-1.65654e-18
-8.9528e-17
-1.23679e-17
-1.68097e-16
-5.30264e-17
-1.13123e-16
-2.77642e-16
1.30977e-24
-3.6203e-24
8.94678e-24
3.17367e-23
3.92388e-24
6.99613e-23
-7.46633e-24
2.33728e-23
-2.15458e-23
-2.90906e-24
-1.29093e-21
-4.96158e-22
-2.18833e-20
-1.33437e-20
-5.67908e-19
-1.27807e-19
-8.8911e-18
-8.23549e-19
-9.06069e-18
-4.09528e-18
-6.71914e-18
-8.67324e-18
-4.03438e-18
-1.14303e-17
-5.11067e-18
-6.80797e-18
-1.10112e-17
-1.67151e-18
-1.16547e-17
-4.4943e-19
-4.35093e-18
-3.72438e-19
-8.01681e-19
-3.6609e-19
-2.58502e-19
-2.04442e-19
-3.72487e-19
-1.25901e-19
-2.66702e-18
-5.08812e-19
-2.39042e-17
-4.02488e-18
-1.25396e-16
-1.96599e-17
-5.90282e-17
-3.8453e-16
5.81104e-25
-2.04021e-24
4.40716e-24
1.14667e-23
2.89378e-24
2.73747e-23
-3.37989e-25
1.01723e-23
-2.50542e-24
-4.00287e-25
-2.58609e-22
-6.60258e-23
-4.93396e-21
-1.82722e-21
-4.53297e-20
-1.7608e-20
-4.21985e-19
-1.06918e-19
-1.46838e-18
-5.1845e-19
-3.60188e-18
-1.13541e-18
-3.14085e-18
-1.57835e-18
-8.96544e-19
-9.87675e-19
-1.78443e-19
-5.52095e-19
-1.27288e-19
-6.6637e-20
-1.43588e-19
-4.97728e-21
-1.15857e-19
-1.03319e-21
-7.45064e-20
-9.59245e-22
-1.15791e-19
-1.25148e-20
-1.0152e-18
-1.49275e-19
-9.29828e-18
-1.32782e-18
-5.07918e-17
-7.71225e-18
-2.61954e-17
-1.84767e-16
2.14082e-25
-9.45091e-25
1.8023e-24
3.35661e-24
1.32046e-24
8.52962e-24
-2.16713e-26
3.29576e-24
-8.21123e-25
3.99165e-25
-3.56989e-23
-6.56429e-24
-7.29631e-22
-2.07808e-22
-6.75175e-21
-2.34065e-21
-6.29142e-20
-1.60164e-20
-2.23886e-19
-8.08173e-20
-4.19809e-19
-1.33425e-19
-3.66345e-19
-1.22039e-19
-2.81777e-19
-8.40117e-20
-4.71487e-20
-3.58426e-20
-3.6007e-21
-8.31858e-21
-4.69266e-22
-6.92431e-22
-4.67442e-22
-1.2731e-23
-1.13695e-21
-1.35779e-22
-2.12376e-20
-3.11992e-21
-3.23662e-19
-4.27605e-20
-3.71355e-18
-4.46246e-19
-2.49074e-17
-3.17962e-18
-1.2345e-17
-9.86722e-17
6.29098e-26
-3.50693e-25
5.89552e-25
7.63613e-25
4.50715e-25
2.02867e-24
7.45647e-26
7.82806e-25
-8.80574e-25
1.7842e-25
-3.62434e-24
-4.7269e-25
-9.09084e-23
-1.89778e-23
-1.01781e-21
-2.70665e-22
-1.27389e-20
-1.73572e-21
-3.50457e-20
-6.17915e-21
-3.86425e-20
-9.13353e-21
-3.4571e-20
-9.17162e-21
-1.94125e-20
-6.91232e-21
-5.96148e-21
-3.22624e-21
-6.20532e-22
-7.10997e-22
-7.78208e-25
-4.74901e-23
-2.46889e-23
1.11798e-23
-2.55295e-22
-1.38193e-23
-6.03258e-21
-7.30907e-22
-1.0378e-19
-1.20534e-20
-1.52912e-18
-1.52642e-19
-1.27807e-17
-1.35276e-18
-5.953e-18
-5.59968e-17
1.40628e-26
-1.00454e-25
1.46898e-25
1.269e-25
1.12573e-25
3.47033e-25
3.50329e-26
1.31471e-25
-6.62517e-26
3.3519e-26
-2.71983e-25
-1.93368e-26
-1.07057e-23
-1.22828e-24
-1.42765e-22
-2.29184e-23
-1.09419e-21
-1.47063e-22
-2.55045e-21
-4.19549e-22
-2.90512e-21
-6.80719e-22
-2.98329e-21
-7.08489e-22
-1.91226e-21
-5.68685e-22
-5.53191e-22
-2.53566e-22
-3.9642e-23
-2.771e-23
1.20067e-23
1.59242e-23
-1.63994e-23
2.05159e-23
-4.4646e-23
-3.56648e-24
-1.56931e-21
-1.41522e-22
-3.30256e-20
-3.36997e-21
-6.46133e-19
-5.2009e-20
-6.83067e-18
-5.7847e-19
-2.94157e-18
-3.28659e-17
2.24187e-27
-2.10725e-26
2.61309e-26
1.3839e-26
1.97719e-26
3.87664e-26
6.88284e-27
1.43461e-26
-2.88605e-27
3.71505e-27
-1.33321e-26
-1.35596e-28
-8.71604e-25
-4.77259e-26
-1.42593e-23
-1.25208e-24
-7.49203e-23
-8.90391e-24
-1.96334e-22
-2.55246e-23
-2.40586e-22
-4.16965e-23
-2.55932e-22
-4.31223e-23
-1.66516e-22
-3.33941e-23
-2.95818e-23
-9.32871e-24
1.65946e-23
6.91932e-24
2.45128e-23
1.60004e-23
-3.02448e-24
1.55453e-23
-9.76482e-24
3.17385e-24
-3.77793e-22
-2.51945e-23
-1.0425e-20
-9.32105e-22
-2.71556e-19
-1.7737e-20
-3.65952e-18
-2.46211e-19
-1.42103e-18
-2.06579e-17
2.28896e-28
-2.97106e-27
3.00078e-27
7.61918e-28
2.23335e-27
2.22375e-27
7.90981e-28
8.03253e-28
-3.15421e-29
2.07792e-28
-3.18237e-28
2.49361e-30
-4.21062e-26
-7.96195e-28
-8.60964e-25
-3.77924e-26
-4.71633e-24
-3.1103e-25
-1.25823e-23
-9.67986e-25
-1.53621e-23
-1.60517e-24
-1.62088e-23
-1.61729e-24
-8.65701e-24
-5.49717e-25
6.91323e-24
1.6086e-24
1.83274e-23
5.28496e-24
2.05802e-23
7.56549e-24
4.91383e-24
6.5145e-24
-4.37276e-23
2.15837e-24
-8.92349e-23
-5.63584e-24
-3.31687e-21
-2.57363e-22
-1.1729e-19
-6.09734e-21
-1.94453e-18
-1.04298e-19
-6.47501e-19
-1.27651e-17
1.13971e-29
-2.38295e-28
1.73882e-28
4.42332e-36
1.27622e-28
1.19839e-34
4.53358e-29
1.86873e-33
6.84027e-31
2.00585e-32
-1.49038e-28
6.3019e-32
-1.05136e-27
-3.15637e-30
-2.81732e-26
-4.31473e-28
-1.79658e-25
-4.89122e-27
-5.15898e-25
-1.77682e-26
-5.85038e-25
-2.04101e-26
-5.2084e-25
2.25684e-26
1.51584e-24
2.12042e-25
5.72591e-24
8.93374e-25
9.48353e-24
1.81751e-24
9.53627e-24
2.14811e-24
3.73963e-24
1.66082e-24
-1.24927e-23
4.79304e-25
-2.29758e-23
-1.57169e-24
-1.08169e-21
-7.13424e-23
-5.35722e-20
-2.11901e-21
-1.07254e-18
-4.32596e-20
-2.46451e-19
-7.61048e-18
5.64112e-38
-6.81652e-30
9.25427e-36
1.6034e-36
2.97764e-34
4.65497e-35
4.41936e-33
8.04663e-34
1.75688e-32
1.15053e-32
-5.14088e-31
1.27826e-31
-7.94772e-30
1.03037e-30
-3.79836e-28
5.96748e-30
-4.80578e-27
3.90815e-29
-5.88289e-27
3.04266e-28
1.70537e-26
2.40184e-27
1.84716e-25
1.58859e-26
8.99253e-25
7.56131e-26
2.12323e-24
2.19329e-25
2.93451e-24
3.61592e-25
2.68422e-24
3.76017e-25
9.32327e-25
2.59017e-25
-4.09069e-24
2.94689e-26
-6.44482e-24
-4.45283e-25
-3.62426e-22
-1.80964e-23
-2.64605e-20
-6.25404e-22
-6.30156e-19
-1.40511e-20
-5.74967e-20
-4.00847e-18
1.5455e-38
-1.27854e-31
3.44891e-36
4.51943e-37
1.26118e-34
1.38857e-35
2.51819e-33
2.47518e-34
3.56712e-32
3.65747e-33
3.55375e-31
4.40071e-32
2.4848e-30
4.3172e-31
1.93127e-29
3.39426e-30
1.76459e-28
2.26484e-29
1.62374e-27
1.37909e-28
1.24826e-26
7.75953e-28
6.91115e-26
3.73578e-27
2.33675e-25
1.33706e-26
4.52135e-25
3.08703e-26
5.57557e-25
4.3681e-26
4.62499e-25
4.05539e-26
6.47705e-26
2.41614e-26
-1.28609e-24
-1.67314e-27
-1.80998e-24
-1.06675e-25
-1.10298e-22
-3.73052e-24
-1.09545e-20
-1.30783e-22
-3.22626e-19
-2.4113e-21
1.21618e-20
-2.01411e-18
2.26694e-39
-1.8738e-33
9.55217e-37
9.71564e-38
3.74708e-35
3.07484e-36
7.822e-34
5.60794e-35
1.20974e-32
8.31734e-34
1.4768e-31
9.98355e-33
1.41038e-30
1.00256e-31
1.12366e-29
8.4259e-31
8.0813e-29
5.79076e-30
5.33917e-28
3.25118e-29
3.01359e-27
1.51997e-28
1.26441e-26
5.78706e-28
3.44196e-26
1.62498e-27
5.79406e-26
3.07551e-27
6.49535e-26
3.64278e-27
4.76149e-26
2.9187e-27
-4.18673e-27
1.43356e-27
-7.20358e-27
-2.46686e-28
-4.47981e-25
-1.94247e-26
-2.77956e-23
-5.62162e-25
-3.50711e-21
-1.44311e-23
-1.32026e-19
3.80159e-22
2.14682e-20
-8.77997e-19
-8.10699e-38
-2.30169e-35
1.89247e-37
1.32977e-38
8.05075e-36
4.58325e-37
1.71024e-34
8.50561e-36
2.66132e-33
1.25023e-34
3.34843e-32
1.44645e-33
3.43892e-31
1.37776e-32
2.83896e-30
1.10601e-31
1.89546e-29
7.344e-31
1.04733e-28
3.87866e-30
4.70616e-28
1.58209e-29
1.56538e-27
4.92891e-29
3.53609e-27
1.14307e-28
5.06195e-27
1.82536e-28
4.9887e-27
1.7577e-28
3.10763e-27
1.12169e-28
-8.51384e-28
2.911e-29
-1.60529e-27
-8.40417e-29
-8.97525e-26
-2.41546e-27
-5.61179e-24
-5.10237e-26
-8.8352e-22
1.20922e-24
-4.32258e-20
4.36216e-22
1.21059e-20
-3.01264e-19
-5.97681e-39
-2.43775e-37
2.41776e-38
9.64272e-40
1.14316e-36
3.58209e-38
2.44026e-35
6.72905e-37
3.68827e-34
9.72266e-36
4.43072e-33
1.0545e-34
4.37001e-32
8.86093e-34
3.50312e-31
5.94915e-33
2.20967e-30
3.25678e-32
1.07213e-29
1.4683e-31
3.97308e-29
5.4405e-31
1.10242e-28
1.61348e-30
2.12457e-28
3.55038e-30
2.51158e-28
4.9728e-30
2.02101e-28
4.08301e-30
6.89304e-29
2.00626e-30
-2.54246e-28
-8.65384e-32
-3.80002e-28
-9.30769e-30
-1.36926e-26
-2.09267e-28
-8.81564e-25
-1.47359e-28
-1.75001e-22
9.00844e-25
-1.14853e-20
1.61946e-22
4.48722e-21
-8.05502e-20
-1.13526e-40
-2.25595e-39
1.54481e-39
8.85924e-42
8.41732e-38
3.25043e-40
1.78833e-36
6.09233e-39
2.55275e-35
9.02308e-38
2.72166e-34
1.02712e-36
2.2551e-33
9.27974e-36
1.49608e-32
6.83828e-35
8.08944e-32
4.16705e-34
3.58145e-31
2.10067e-33
1.271e-30
8.57168e-33
3.36608e-30
2.63162e-32
5.75613e-30
5.089e-32
5.90268e-30
4.37343e-32
3.74365e-30
2.26823e-32
-2.2154e-31
-2.48296e-34
-6.17629e-31
-4.47685e-32
-4.21719e-29
-8.99815e-31
-1.64212e-27
-1.19488e-29
-1.01694e-25
7.69602e-28
-2.46139e-23
1.81228e-25
-2.3941e-21
3.62471e-23
1.21495e-21
-1.72082e-20
-1.53263e-42
-1.82964e-41
1.09115e-41
2.42209e-44
7.12882e-40
1.02276e-42
1.56973e-38
2.19241e-41
2.37025e-37
3.74506e-40
2.73304e-36
4.93623e-39
2.49485e-35
5.19527e-38
1.84777e-34
4.46927e-37
1.1202e-33
3.16032e-36
5.47688e-33
1.79889e-35
2.01893e-32
7.67772e-35
4.72755e-32
2.01284e-34
5.00259e-32
1.66129e-34
3.27947e-32
8.09234e-35
-4.74926e-34
4.81543e-36
-3.32365e-32
-1.61836e-34
-1.60799e-31
-2.92823e-33
-4.75156e-30
-7.41817e-32
-1.73477e-28
-2.23841e-31
-9.40284e-27
1.44317e-28
-2.55556e-24
2.39637e-26
-3.94244e-22
5.77959e-24
2.49096e-22
-2.90997e-21
-1.65587e-44
-1.27042e-43
2.51785e-44
4.70763e-47
2.44279e-42
2.28451e-45
6.27367e-41
5.74703e-44
1.10766e-39
1.15616e-42
1.49775e-38
1.78934e-41
1.60221e-37
2.20097e-40
1.37948e-36
2.17967e-39
9.45954e-36
1.71091e-38
4.84655e-35
9.92466e-38
1.52995e-34
3.42656e-37
1.53601e-34
2.55811e-37
9.26581e-35
1.10857e-37
7.05316e-36
-9.48817e-40
-2.16629e-34
-1.60391e-37
-3.03462e-34
-6.34877e-36
-1.02055e-32
-2.48293e-34
-4.80099e-31
-5.91957e-33
-1.80427e-29
5.89765e-32
-8.24078e-28
1.9518e-29
-2.25793e-25
2.7459e-27
-5.50495e-23
7.54617e-25
4.05784e-23
-3.95519e-22
-1.41743e-46
-7.10309e-46
3.87842e-47
3.63905e-50
6.26365e-45
1.53581e-48
1.91336e-43
4.93415e-47
4.01936e-42
1.23931e-45
6.39212e-41
2.32359e-44
7.90167e-40
3.34645e-43
7.5803e-39
3.62614e-42
5.31378e-38
2.68798e-41
2.20939e-37
1.04169e-40
1.99353e-37
6.63379e-41
1.05462e-37
2.44297e-41
-1.12502e-39
-3.9591e-43
-8.35454e-39
-9.73909e-41
-3.52373e-37
-7.48931e-39
-1.59026e-35
-4.90278e-37
-9.38239e-34
-1.91433e-35
-4.70916e-32
-4.45463e-34
-1.91167e-30
1.0548e-32
-7.94959e-29
2.33423e-30
-2.06424e-26
3.09312e-28
-7.11536e-24
8.90078e-26
5.38382e-24
-4.71041e-23
-8.94228e-49
-2.88944e-48
1.75997e-50
5.21807e-53
5.37462e-48
9.49598e-53
2.07803e-46
3.91749e-51
5.3818e-45
1.14425e-49
1.00791e-43
2.13527e-48
1.3689e-42
2.2683e-47
1.24528e-41
8.70812e-47
5.8578e-41
4.08584e-47
4.51077e-41
1.19528e-48
2.01624e-41
-3.01432e-46
-4.01686e-43
-6.11171e-45
-1.2927e-42
-1.98536e-44
-1.59003e-40
-4.37279e-42
-1.68623e-38
-4.55584e-40
-1.30804e-36
-2.92189e-38
-7.95783e-35
-1.24426e-36
-4.34929e-33
-2.90128e-35
-1.97122e-31
1.16422e-33
-8.47854e-30
2.43494e-31
-2.17506e-27
3.30652e-29
-8.94849e-25
9.43076e-27
5.76697e-25
-5.34345e-24
-3.79076e-51
-7.2433e-51
7.667e-55
1.04364e-55
4.29565e-52
5.2014e-57
1.96437e-50
1.75317e-55
5.1458e-49
2.53021e-54
7.15941e-48
7.07906e-55
3.46387e-47
1.18576e-55
2.00242e-47
-3.43477e-56
7.14003e-49
-1.32835e-53
-2.18996e-46
-3.92057e-51
-3.54112e-45
-6.45123e-49
-4.50765e-45
-2.59543e-47
-3.74583e-44
-7.14295e-46
-8.46937e-42
-1.94021e-43
-1.04716e-39
-1.91105e-41
-8.7142e-38
-1.31088e-39
-5.80311e-36
-6.11206e-38
-3.48893e-34
-1.42063e-36
-1.80556e-32
9.85437e-35
-8.7039e-31
2.01829e-32
-2.34587e-28
2.89627e-30
-1.02104e-25
8.03335e-28
4.71288e-26
-5.58307e-25
-9.29679e-54
-7.51438e-54
3.15067e-59
7.85698e-59
1.91331e-56
1.16487e-60
4.40958e-55
2.57172e-59
1.758e-55
5.22755e-60
3.87555e-56
3.07622e-59
-1.42068e-56
3.23444e-57
-2.6947e-55
2.20915e-55
-2.4038e-53
8.79622e-54
-7.78311e-51
1.5304e-52
-2.19634e-48
-3.41454e-52
-1.52403e-47
-8.73439e-50
-1.7102e-45
-1.71298e-47
-3.72747e-43
-5.05643e-45
-4.65201e-41
-5.29718e-43
-4.32202e-39
-3.90466e-41
-3.23966e-37
-1.98152e-39
-2.17452e-35
-4.42975e-38
-1.30853e-33
6.07241e-36
-7.20492e-32
1.21392e-33
-2.01009e-29
1.75487e-31
-8.91404e-27
4.57347e-29
2.7075e-27
-4.715e-26
-8.73379e-57
1.30756e-70
6.16462e-63
6.1815e-67
2.71651e-60
2.39171e-65
8.98606e-61
1.09391e-64
7.62027e-60
3.17466e-62
1.05908e-57
5.7678e-60
9.18863e-56
6.75559e-58
4.55069e-54
5.04776e-56
9.75228e-53
2.21311e-54
-2.53321e-52
4.37194e-53
-3.69976e-52
-3.9438e-54
-8.89896e-50