/*--------------------------------*- C++ -*----------------------------------*\
| =========                 |                                                 |
| \\      /  F ield         | OpenFOAM: The Open Source CFD Toolbox           |
|  \\    /   O peration     | Version:  2206                                  |
|   \\  /    A nd           | Website:  www.openfoam.com                      |
|    \\/     M anipulation  |                                                 |
\*---------------------------------------------------------------------------*/
FoamFile
{
    version     2.0;
    format      ascii;
    arch        "LSB;label=32;scalar=64";
    class       volScalarField;
    location    "0.825";
    object      alpha.water;
}
// * * * * * * * * * * * * * * * * * * * * * * * * * * * * * * * * * * * * * //

dimensions      [0 0 0 0 0 0 0];

internalField   nonuniform List<scalar> 
2268
(
0.999999
0.999999
1
1
1
1
1
1
1
1
1
1
0.999998
0.999974
0.990886
0.960046
0.970955
0.996424
0.995708
0.990681
0.991435
0.997078
0.999802
0.999999
1
1
1
1
1
1
1
1
1
1
0.999999
0.999993
0.999775
0.969499
0.945
0.944635
0.957994
0.964617
0.958468
0.95979
0.999689
0.999801
0.999999
1
1
1
1
1
1
1
1
1
1
1
0.999999
0.999989
0.99195
0.954416
0.944799
0.944635
0.948844
0.968833
0.992552
1
0.999806
0.999999
1
1
1
1
1
1
1
1
1
1
1
1
0.999999
0.999875
0.996797
0.990203
0.993363
1
1
1
1
0.999888
1
1
1
1
1
1
1
1
1
1
1
1
1
1
0.999999
1
1
1
1
1
1
0.999998
0.999998
1
1
1
1
1
1
1
1
1
1
1
1
1
1
1
1
1
1
1
1
1
0.999995
0.999982
1
1
1
1
1
0.999974
0.9999
1
1
1
1
1
1
1
1
1
1
1
1
1
1
0.99999
0.999975
1
1
1
1
1
0.999944
0.998006
1
1
1
1
1
1
0.999999
0.999999
0.999999
0.999999
0.999999
0.999999
0.999999
0.999999
0.99999
0.999976
0.579284
0.521504
0.631134
0.622851
0.503908
0.519071
0.52836
0.694188
0.89217
0.892689
0.892689
0.892689
0.892631
0.892573
0.892286
0.874549
0.695644
0.624557
0.61087
0.587043
0.521578
0.630282
0.484415
0.48796
0.611407
0.561951
0.59984
0.876904
0.89217
0.795242
0.720957
0.892573
0.882227
0.489899
0.273041
0.272577
0.275103
0.281511
0.587072
0.566936
0.471426
0.478983
0.691727
0.771806
0.773981
0.785046
0.794597
0.722646
0.676351
0.676351
0.886966
0.698257
0.270478
0.269197
0.269979
0.272577
0.6209
0.586096
0.578022
0.395258
0.490781
0.762364
0.770843
0.773272
0.783538
0.789554
0.783697
0.686729
0.676351
0.854909
0.704008
0.269197
0.269197
0.269197
0.270701
0.694925
0.58456
0.541189
0.39413
0.694653
0.740529
0.712927
0.739632
0.736627
0.733063
0.724879
0.672217
0.75881
0.838039
0.811864
0.483298
0.269197
0.269979
0.387953
0.707039
0.581352
0.424957
0.40541
0.675516
0.449449
0.248817
0.560646
0.509334
0.287186
0.348345
0.472339
0.625474
0.820747
0.807317
0.797454
0.719817
0.422733
0.61326
0.714515
0.570353
0.43402
0.622597
0.666413
0.0508416
0.0324184
0.0971448
0.0632792
0.016536
0.0174915
0.0408403
0.127554
0.479523
0.797454
0.778745
0.764692
0.660932
0.714869
0.714877
0.564359
0.434775
0.601267
0.539543
0.0324187
0.0279344
0.0201191
0.0163964
0.0161466
0.0161887
0.0165824
0.0307248
0.0412519
0.301521
0.390738
0.473081
0.713048
0.715519
0.715102
0.998554
1
1
1
0.980677
0.999082
1
1
1
1
0.999999
0.999996
0.999987
0.999978
0.999971
0.999968
0.999968
0.999973
0.999979
0.999983
0.999984
0.999983
0.999976
0.68685
0.699181
0.712563
0.710724
0.763166
0.854973
0.908575
0.942599
0.976248
0.993562
0.994539
0.989003
0.990389
0.98839
0.979796
0.974919
0.976594
0.985639
0.99247
0.997537
0.999837
0.999917
0.999971
0.120151
0.0801362
0.115936
0.153868
0.188907
0.218998
0.267943
0.364739
0.485651
0.568454
0.612146
0.648798
0.616313
0.521627
0.448863
0.428899
0.445593
0.494843
0.532269
0.5938
0.757542
0.944752
0.999875
0.00736374
0.00341031
0.00223715
0.00210435
0.00411419
0.0261197
0.0641276
0.096364
0.135361
0.296825
0.56086
0.566033
0.237458
0.150758
0.139198
0.136722
0.139855
0.152576
0.160423
0.17224
0.186645
0.694011
0.976732
0.00358428
0.00143931
0.000636991
0.000377224
0.00313701
0.00747386
0.00538047
0.00290351
0.0441736
0.228085
0.373
0.419528
0.393975
0.255583
0.142769
0.0926269
0.0745125
0.271479
0.428147
0.339967
0.261121
0.570948
0.918432
0.00148849
0.000717134
0.000225247
8.47195e-05
4.2628e-05
1.49659e-05
7.96912e-07
-3.74029e-07
1.98175e-06
2.26529e-05
0.00749475
0.168693
0.269767
0.285593
0.263092
0.0520694
0.0289635
0.335126
0.594425
0.629101
0.633418
0.653644
0.653161
0.000606473
0.000286352
9.80028e-05
2.41254e-05
6.39372e-06
1.25402e-06
5.58416e-07
1.52012e-07
1.64411e-07
-3.75529e-08
-8.73218e-08
7.00525e-07
2.49469e-06
0.0595041
0.0422685
0.000158
0.00069647
0.00297475
0.10555
0.512665
0.629101
0.633418
0.310032
0.000325094
0.000132817
3.15887e-05
8.87485e-06
1.80841e-06
3.20621e-07
1.56185e-07
1.51267e-07
1.16942e-07
4.45942e-08
1.52809e-07
2.86874e-07
1.16416e-06
3.26952e-06
8.12664e-06
3.35101e-05
0.000157997
0.000696265
0.00297348
0.0136921
0.309247
0.599438
0.520431
0.000182607
8.27256e-05
8.78839e-06
1.64978e-06
3.9796e-07
7.65492e-08
2.25614e-08
1.64436e-08
2.90937e-08
4.48005e-08
1.0201e-07
3.68268e-06
1.65182e-05
1.40525e-06
3.85528e-06
1.89667e-05
8.87083e-05
0.000368804
0.00140319
0.00538316
0.0643438
0.349594
0.508084
0.000101614
0.000149201
1.32901e-05
4.56575e-07
6.85676e-08
2.24848e-08
6.94151e-09
2.83753e-09
1.36059e-09
2.79087e-09
7.54989e-08
2.49385e-07
1.58038e-06
2.04045e-07
1.08262e-06
1.02355e-05
6.8169e-05
0.000319619
0.00402812
0.0146842
0.0181215
0.0498529
0.205272
3.40217e-05
0.000114384
2.20158e-05
4.38252e-07
5.70884e-08
8.0625e-09
2.39456e-09
7.35278e-10
5.66267e-10
5.84986e-10
7.52832e-08
2.91734e-08
4.4529e-09
3.42751e-08
2.04041e-07
3.05444e-06
2.94337e-05
0.000185339
0.00281265
0.00581857
0.0159995
0.0225733
0.0242871
9.20273e-06
1.60158e-05
3.83165e-05
4.96049e-06
1.2948e-07
1.73094e-08
2.11312e-09
5.66267e-10
4.67669e-10
5.66267e-10
7.3719e-08
2.12092e-08
2.05191e-09
4.71814e-09
3.1529e-08
5.83466e-07
7.41868e-06
6.35475e-05
0.000245014
0.00181349
0.0374661
0.0639131
0.0430912
2.07229e-06
4.8486e-06
1.683e-05
7.32698e-06
1.69364e-07
2.195e-08
2.60477e-09
4.67669e-10
2.83558e-10
2.74981e-09
2.90908e-08
1.03804e-08
1.79148e-09
1.77729e-09
5.76276e-09
9.93922e-08
1.26382e-06
1.04994e-05
6.63103e-05
0.00048669
0.0295322
0.0668649
0.0670578
4.27873e-07
1.44227e-06
1.15421e-06
3.1652e-06
7.12568e-07
1.41493e-08
1.71937e-09
2.83558e-10
1.53338e-10
1.5055e-09
1.0899e-09
2.53469e-09
1.75688e-09
1.23051e-09
1.77484e-09
1.70915e-08
2.28582e-07
2.23848e-06
1.48277e-05
7.85745e-05
0.000452725
0.0242388
0.0655988
8.83693e-08
3.76497e-07
2.98472e-07
1.40281e-07
2.07723e-07
2.52715e-08
7.61179e-10
1.522e-10
8.49316e-11
4.1328e-10
5.67769e-10
1.92273e-09
1.80901e-09
1.15772e-09
1.22504e-09
3.9564e-09
3.99657e-08
3.05805e-07
2.33883e-06
0.0001785
0.00094454
0.00109806
0.00178126
1.84271e-08
8.76363e-08
6.85394e-08
3.14223e-08
1.04157e-08
5.72248e-09
6.95406e-10
1.32941e-10
5.69765e-11
4.11853e-10
9.46277e-10
2.27674e-09
2.01679e-09
1.10275e-09
1.3464e-09
5.31103e-09
1.00603e-08
6.29644e-08
3.15753e-06
0.000541397
0.00104005
0.00108658
0.00139185
4.10444e-09
1.84271e-08
1.43954e-08
6.57886e-09
2.22912e-09
7.10272e-10
2.9822e-10
6.64492e-11
3.56729e-11
4.49296e-10
1.5768e-09
2.44007e-09
2.21473e-09
9.60808e-10
1.19794e-09
4.43697e-09
4.66206e-09
1.50636e-08
9.88483e-06
0.000457484
0.000746577
0.00134515
0.00901479
1.0152e-09
3.87674e-09
2.87084e-09
1.46881e-09
6.03244e-10
2.46518e-10
9.19405e-11
2.03418e-11
1.98379e-11
4.35221e-10
1.75362e-09
2.44007e-09
2.21478e-09
7.34346e-10
7.89365e-10
1.52575e-09
3.60467e-09
9.42024e-08
7.36942e-06
0.000173944
0.00064404
0.00207914
0.022658
2.78534e-10
9.15455e-10
6.69155e-10
3.52476e-10
1.85023e-10
8.28326e-11
2.30474e-11
7.73192e-12
1.14081e-11
3.50491e-10
1.44767e-09
2.44007e-09
2.04526e-09
5.12413e-10
3.72528e-10
2.71735e-10
6.9043e-10
4.67913e-08
1.36942e-06
6.53811e-05
0.000582505
0.00268069
0.0265541
1.08999e-10
2.25122e-10
1.63533e-10
1.13346e-10
5.93154e-11
1.9808e-11
5.26073e-12
4.2427e-12
7.59049e-12
1.92918e-10
8.08905e-10
1.94448e-09
1.50932e-09
3.36412e-10
1.29911e-10
7.6658e-11
4.01251e-11
1.41755e-10
5.47153e-09
4.62755e-05
0.000131575
0.0030093
0.0257395
3.31558e-11
7.41134e-11
5.57368e-11
3.30098e-11
1.35124e-11
3.81346e-12
1.27982e-12
2.66389e-12
5.06835e-12
6.50044e-11
2.83772e-10
9.63886e-10
7.66251e-10
1.9382e-10
3.92992e-11
2.72161e-11
1.42815e-11
1.07016e-11
-1.83102e-09
1.69358e-05
1.34124e-05
0.00284847
0.0222523
6.95182e-12
2.05346e-11
1.38868e-11
6.63426e-12
2.45047e-12
7.00048e-13
3.44913e-13
1.56012e-12
2.944e-12
1.52865e-11
6.68179e-11
2.83838e-10
2.56437e-10
8.85318e-11
1.31558e-11
8.93291e-12
1.02581e-11
-2.59973e-11
-1.78464e-10
7.89135e-09
2.12983e-06
0.00217027
0.0183078
1.32446e-12
3.94447e-12
2.41925e-12
1.13662e-12
4.31857e-13
1.24051e-13
9.1038e-14
7.03151e-13
1.37001e-12
3.49368e-12
1.31833e-11
6.0254e-11
6.31889e-11
3.09493e-11
5.02859e-12
2.59963e-12
6.6857e-12
2.29819e-12
3.11713e-11
9.2961e-10
4.15752e-07
0.00281511
0.0182281
2.45378e-13
6.69996e-13
4.03322e-13
1.91351e-13
7.38689e-14
2.13579e-14
2.11814e-14
2.10657e-13
4.81972e-13
8.7661e-13
2.60218e-12
1.15988e-11
1.37254e-11
8.61263e-12
1.87263e-12
6.97908e-13
2.8089e-12
1.10045e-12
3.00848e-12
-8.90385e-10
8.09929e-08
0.00207522
0.0174104
4.38935e-14
1.11569e-13
6.56392e-14
3.12787e-14
1.22379e-14
3.57544e-15
4.29008e-15
4.28929e-14
1.25662e-13
2.16476e-13
5.24547e-13
2.1801e-12
2.82628e-12
2.05969e-12
6.13182e-13
1.80563e-13
7.09598e-13
1.9663e-13
-3.18902e-12
-1.17768e-10
1.49576e-08
0.00025043
0.00472096
7.56569e-15
1.79913e-14
1.03505e-14
4.95293e-15
1.96352e-15
5.83378e-16
7.82029e-16
7.30389e-15
2.55601e-14
4.8117e-14
1.03411e-13
3.91795e-13
5.49e-13
4.41322e-13
1.71568e-13
4.56787e-14
1.26932e-13
5.65495e-14
-1.75339e-13
-9.98321e-12
2.63835e-09
2.79094e-07
1.77374e-05
1.25793e-15
2.80693e-15
1.58085e-15
7.59788e-16
3.05062e-16
9.22106e-17
1.34504e-16
1.21637e-15
4.51516e-15
9.44115e-15
1.92272e-14
6.62772e-14
9.92268e-14
8.5606e-14
4.10102e-14
1.102e-14
1.73431e-14
3.59286e-14
2.07501e-14
-1.5643e-13
3.9334e-10
4.19055e-08
1.51831e-06
2.01939e-16
4.24303e-16
2.33991e-16
1.12908e-16
4.58826e-17
1.40983e-17
2.21378e-17
1.99777e-16
7.50562e-16
1.66631e-15
3.3217e-15
1.05445e-14
1.66232e-14
1.50758e-14
8.43943e-15
2.43022e-15
2.50921e-15
8.57512e-15
7.64299e-15
1.12599e-13
4.86692e-11
4.91268e-09
9.96112e-08
3.1302e-17
6.22006e-17
3.35534e-17
1.62469e-17
6.67757e-18
2.09236e-18
3.46683e-18
3.14809e-17
1.19634e-16
2.71693e-16
5.34207e-16
1.58264e-15
2.58537e-15
2.42238e-15
1.51386e-15
4.79142e-16
3.86334e-16
8.58749e-16
1.33322e-15
1.59047e-14
5.11967e-12
4.66875e-10
4.85347e-09
4.67381e-18
8.84502e-18
4.64963e-18
2.25806e-18
9.39407e-19
3.00004e-19
5.18879e-19
4.72193e-18
1.81759e-17
4.16575e-17
8.06454e-17
2.24835e-16
3.74537e-16
3.57566e-16
2.40208e-16
8.37097e-17
5.66054e-17
7.61795e-17
2.45217e-16
1.67573e-15
4.63749e-13
3.72004e-11
1.95464e-10
6.65931e-19
1.21763e-18
6.17822e-19
3.00742e-19
1.27349e-19
4.14223e-20
7.45712e-20
6.76758e-19
2.62662e-18
6.05169e-18
1.15099e-17
3.03325e-17
5.07329e-17
4.88131e-17
3.41311e-17
1.29013e-17
7.24035e-18
7.66786e-18
2.17922e-17
2.28239e-16
5.56942e-14
3.59837e-12
1.18266e-11
8.64608e-20
1.61047e-19
7.72632e-20
3.76458e-20
1.64209e-20
5.4937e-21
1.03128e-20
9.31247e-20
3.62273e-19
8.3592e-19
1.56003e-18
3.89863e-18
6.44675e-18
6.17774e-18
4.33528e-18
1.67665e-18
7.75289e-19
7.4507e-19
1.63053e-18
1.92099e-17
3.97851e-15
2.2965e-13
5.01709e-13
8.38558e-21
2.00349e-20
7.47157e-21
3.99819e-21
1.89839e-21
6.85708e-22
1.373e-21
1.23452e-20
4.78959e-20
1.10169e-19
2.01444e-19
4.78915e-19
7.67107e-19
7.15453e-19
4.57818e-19
1.37081e-19
3.89656e-20
5.01109e-20
1.11331e-19
1.46372e-18
2.53917e-16
1.15569e-14
8.54801e-14
3.09513e-22
2.17411e-21
2.99105e-22
1.76192e-22
1.66153e-22
7.64781e-23
1.74358e-22
1.5812e-21
6.09258e-21
1.39068e-20
2.48369e-20
5.61665e-20
8.32762e-20
6.7647e-20
2.4051e-20
4.20392e-21
1.43413e-36
4.70306e-22
4.46526e-21
1.00385e-19
1.46768e-17
4.95124e-16
4.70552e-15
-6.60531e-22
1.10588e-22
-3.20095e-23
5.37357e-39
0
4.61148e-24
2.02806e-23
1.96316e-22
7.48226e-22
1.68676e-21
2.91769e-21
6.14627e-21
7.1951e-21
2.13409e-21
6.87832e-37
-2.43138e-20
-2.72189e-20
-9.58628e-21
-6.82401e-37
5.28682e-21
7.75669e-19
1.55655e-17
1.53393e-16
-9.89195e-22
5.37369e-39
-3.83438e-22
-1.58765e-22
-2.14891e-23
-1.66602e-40
1.65802e-24
2.38095e-23
8.89989e-23
1.96609e-22
3.18493e-22
5.17638e-22
1.8975e-22
0
-1.11482e-20
-2.21953e-20
-2.05468e-20
-1.08097e-20
-2.06439e-21
2.59974e-37
3.57649e-20
4.22422e-19
4.91817e-18
-5.42615e-22
-6.29213e-23
-2.00531e-22
-8.90428e-23
-1.89735e-23
-1.80305e-24
3.58022e-26
2.86224e-24
1.02558e-23
2.16051e-23
2.6947e-23
1.34731e-23
-1.14996e-23
-2.74045e-21
-8.027e-21
-1.14372e-20
-9.87534e-21
-5.62768e-21
-1.99032e-21
-2.54558e-38
1.28529e-21
1.08676e-20
1.34407e-19
-2.31876e-22
-3.87195e-23
-7.73811e-23
-3.52832e-23
-8.25736e-24
-1.1226e-24
0
3.29263e-25
1.12397e-24
1.94925e-24
7.4733e-25
-4.75803e-24
-3.96759e-22
-1.81984e-21
-3.81279e-21
-4.70888e-21
-3.82548e-21
-2.1784e-21
-8.70208e-22
-2.12402e-39
3.25684e-23
3.87631e-22
3.2389e-21
-8.70369e-23
-1.56742e-23
-2.60222e-23
-1.20333e-23
-2.90216e-24
-4.41064e-25
-2.66853e-27
3.16604e-26
1.02272e-25
5.80463e-26
-7.67106e-25
-3.6167e-23
-2.59137e-22
-8.42726e-22
-1.5021e-21
-1.68179e-21
-1.27985e-21
-7.00141e-22
-2.80248e-22
-3.57865e-23
3.38508e-41
1.88511e-23
7.26391e-23
-2.99492e-23
-5.38892e-24
-8.04502e-24
-3.74614e-24
-9.07494e-25
-1.441e-25
-6.47955e-27
1.82644e-27
3.11788e-27
0
-2.34824e-24
-2.37217e-23
-1.20333e-22
-3.28729e-22
-5.23968e-22
-5.39173e-22
-3.81629e-22
-1.95677e-22
-7.42937e-23
-1.42787e-23
-8.33009e-41
9.5796e-25
1.55184e-24
-9.63995e-24
-1.68848e-24
-2.34273e-24
-1.09275e-24
-2.62169e-25
-4.21866e-26
-3.15846e-27
3.51356e-29
0
-1.06748e-25
-1.51248e-24
-1.11484e-23
-4.72738e-23
-1.14529e-22
-1.66524e-22
-1.58169e-22
-1.03452e-22
-4.89123e-23
-1.70814e-23
-3.56161e-24
-1.56454e-25
7.37476e-27
2.87139e-26
-2.93431e-24
-4.93975e-25
-6.51522e-25
-3.02269e-25
-7.07558e-26
-1.12569e-26
-1.16276e-27
-5.33438e-28
-5.72941e-27
-7.52601e-26
-7.20737e-25
-4.4766e-24
-1.67679e-23
-3.68425e-23
-4.91628e-23
-4.29312e-23
-2.561e-23
-1.09199e-23
-3.38792e-24
-6.59192e-25
-4.41966e-26
0
2.5164e-28
0.999958
0.999949
0.999943
0.904413
0.999948
0.999936
0.999937
0.800877
0.999893
0.999815
0.993178
0.548193
0.999086
0.969479
0.461084
0.0975658
0.940941
0.423301
0.0614787
0.0605988
0.333506
0.060132
0.0554062
0.0581214
0.060132
0.0551657
0.0551669
0.0559874
0.210274
0.0551669
0.0551655
0.101787
0.492056
0.419016
0.266737
0.111982
0.302481
0.260603
0.0710913
0.0334085
0.0234056
0.0224622
0.0230017
0.033498
0.022627
0.0224622
0.022586
0.0633506
0.0673689
0.0427829
0.0572396
0.0624838
0.0695757
0.0695757
0.0695757
0.0267041
0.0462424
0.0695757
0.0625569
0.000799395
0.00351508
0.0237783
0.0066789
9.18638e-05
0.018973
0.00405905
0.000346653
0.000332545
0.0288692
0.0289343
0.00156331
3.70557e-05
0.028948
0.0275436
0.000686306
1.80715e-05
0.0287357
0.00559458
7.62669e-06
8.35396e-06
0.0269404
6.30002e-06
6.29181e-06
6.21399e-06
0.0220697
6.30002e-06
6.07615e-06
5.78361e-06
0.01162
6.30002e-06
9.03709e-06
1.88536e-05
0.00402446
7.13336e-06
2.51019e-05
1.48013e-05
0.0011027
0.000255213
6.64435e-07
7.98414e-08
0.000140265
6.11636e-05
4.75715e-07
6.59659e-08
2.23022e-05
4.69799e-06
2.97935e-08
3.31343e-09
1.34521e-06
2.1166e-07
1.22101e-09
1.40272e-10
5.87361e-08
1.17431e-08
-4.97404e-11
1.07318e-11
2.31748e-09
7.85819e-10
1.15302e-11
5.88688e-12
1.41153e-10
8.56579e-11
2.01896e-11
2.80527e-12
9.14846e-12
5.64247e-12
1.13197e-12
9.03743e-14
3.36441e-13
1.81457e-13
2.69369e-14
1.14784e-14
9.14274e-15
3.95808e-15
8.8479e-16
3.67181e-15
2.12766e-16
6.78663e-17
8.44104e-17
1.01295e-15
4.38088e-18
1.23582e-18
1.09573e-17
2.83999e-16
8.36111e-20
2.16245e-20
2.3738e-18
4.42056e-17
1.45295e-21
2.56588e-22
8.32703e-19
1.07876e-17
2.06019e-23
1.09535e-23
1.68902e-19
4.95801e-18
2.8747e-25
6.62354e-25
1.87042e-20
2.053e-18
3.73159e-27
1.71925e-25
1.12795e-21
5.29987e-20
1.19324e-28
1.04064e-26
1.2297e-24
4.67631e-24
0.500582
0.437563
0.583108
0.402164
0.0527837
0.0631944
0.0165332
0.0161466
0.0161158
0.0161178
0.0161887
0.147468
0.0430533
0.0432645
0.166658
0.622991
0.715585
0.715465
0.615163
0.253821
0.441175
0.525876
0.390935
0.38998
0.409684
0.137209
0.0266829
0.0161178
0.0161167
0.113208
0.180367
0.0445775
0.101098
0.679182
0.704087
0.689734
0.505117
0.504795
0.20653
0.197554
0.14047
0.283368
0.418832
0.418832
0.418832
0.383745
0.134336
0.167955
0.230578
0.143081
0.0503472
0.393243
0.715722
0.709997
0.555957
0.520142
0.625701
0.185939
0.216437
0.125479
0.13829
0.41717
0.418832
0.415176
0.411079
0.406415
0.255312
0.172386
0.155944
0.367474
0.715722
0.715722
0.715722
0.645751
0.772071
0.772071
0.0966356
0.271622
0.108557
0.0143109
0.122632
0.388349
0.411079
0.406343
0.164141
0.143725
0.160015
0.322816
0.714028
0.714875
0.715722
0.606095
0.269609
0.294705
0.759119
0.0605988
0.278011
0.475757
0.00796772
0.00127455
0.0178482
0.21085
0.214415
0.121223
0.125366
0.143725
0.249489
0.604617
0.714028
0.555105
0.063257
0.00112539
0.00249343
0.165018
0.228159
0.307679
0.639258
0.22836
0.0011222
0.000959832
0.00119816
0.00466559
0.0544381
0.202085
0.291391
0.356534
0.367336
0.212633
0.0106565
0.000516219
0.000603358
0.00112539
0.00249343
0.377362
0.562004
0.639258
0.428049
0.00283186
0.00064554
9.73766e-05
2.19547e-05
0.0224187
0.125846
0.157319
0.094817
0.0197569
0.000607111
0.000516219
0.000435738
0.000414901
0.00366114
0.0154402
0.0471673
0.0677216
0.638315
0.584283
0.0317028
9.75838e-05
1.6193e-05
3.61735e-06
6.94659e-06
1.09343e-05
2.97946e-05
9.14543e-05
0.00024678
0.000515791
0.000435738
0.000414295
0.000414901
0.00484194
0.0733625
0.0300937
0.0266915
0.342822
0.583945
0.0758234
0.000262411
3.65236e-06
1.59055e-06
3.6477e-06
6.9378e-06
2.06993e-05
6.90627e-05
0.000768486
0.00204953
0.00226501
0.000498907
0.000413384
0.00203789
0.073355
0.0268475
0.0260755
0.114356
0.579862
0.164251
4.00048e-06
1.59066e-06
1.24995e-06
1.59038e-06
3.7551e-06
1.83964e-05
0.000291256
0.00316901
0.00393367
0.00393216
0.00327786
0.000435085
0.000811249
0.0735072
0.0263793
0.000571086
0.0307313
0.370409
0.14958
1.59057e-06
1.24994e-06
1.24994e-06
1.24983e-06
2.22973e-06
1.04576e-05
0.0005111
0.00351184
0.0039293
0.00393429
0.0039293
0.00181037
0.000183381
0.0733117
0.000263666
0.000335865
0.00530771
0.032613
0.0369693
1.76118e-06
1.59109e-06
4.59627e-06
1.77338e-06
2.60181e-06
1.44519e-05
2.81322e-05
0.000415427
0.0022889
0.0039293
0.0038347
0.0026326
3.84925e-06
0.0727586
0.000155657
0.000432637
0.00213355
0.000638045
2.86381e-06
3.12324e-06
3.40669e-06
7.44802e-06
6.07441e-06
7.14899e-07
1.90275e-06
1.49903e-05
4.99325e-06
3.13318e-06
0.00372116
0.00133616
0.000196008
3.74091e-06
0.0721908
8.62987e-05
0.000255918
0.000439589
5.86539e-05
1.97159e-06
3.66741e-06
3.86721e-06
7.44802e-06
3.47458e-06
5.01309e-07
8.30568e-06
3.66268e-05
2.74923e-05
1.43286e-06
0.000609446
2.47461e-06
3.33752e-06
3.59731e-06
0.0715603
8.53583e-05
1.57292e-05
1.99397e-05
1.08806e-05
3.42704e-06
3.33525e-06
2.43105e-06
2.00384e-06
4.9983e-07
4.75624e-07
1.4963e-06
1.53027e-05
8.56743e-06
1.00469e-06
1.37935e-06
1.80786e-06
2.47461e-06
3.33752e-06
0.0707383
9.54227e-05
9.59648e-06
7.72551e-06
5.82861e-06
4.17029e-06
3.56856e-06
1.95523e-06
5.16668e-07
4.75624e-07
4.75624e-07
4.754e-07
4.75195e-07
4.83969e-07
4.83969e-07
7.23188e-07
1.86844e-06
3.15986e-06
3.5963e-06
0.0693783
0.00021671
7.7267e-06
6.39627e-06
5.47398e-06
4.91154e-06
4.17513e-06
4.94261e-06
1.77269e-05
4.98061e-07
4.75624e-07
5.01776e-07
4.87367e-07
4.75177e-07
4.84411e-07
1.63261e-06
3.49105e-06
5.28243e-06
4.08912e-06
0.0664662
0.000388222
0.000553924
5.47756e-06
5.26619e-06
5.26673e-06
4.72604e-05
0.000139392
2.67418e-05
9.72123e-07
4.98061e-07
3.54418e-06
2.13496e-06
4.86862e-07
5.48611e-07
9.27621e-06
3.68611e-05
9.00334e-06
5.45544e-06
0.0263868
0.000322221
0.000823152
0.000830216
0.000556017
0.000426423
0.000630654
0.000247941
3.14322e-06
1.16922e-06
7.96575e-07
4.82475e-06
4.73901e-06
6.04785e-07
2.95946e-05
0.000269649
0.000121209
9.34554e-06
8.44851e-06
0.00229868
0.000177078
0.000801173
0.000860741
0.000860923
0.000843687
0.00079085
0.000178614
4.01421e-07
6.35861e-07
3.30651e-06
4.85698e-06
2.64556e-06
6.93145e-07
0.000329377
0.00046957
0.000123601
9.87043e-06
4.73444e-05
3.09024e-05
1.08596e-06
1.92623e-05
9.08596e-05
0.000264917
0.000204632
1.71531e-10
1.68252e-10
8.03991e-09
3.89974e-07
4.94089e-06
4.87503e-06
1.10294e-06
8.06759e-07
0.000464035
0.000470687
4.94709e-05
1.04459e-05
0.000109088
1.5169e-05
9.58583e-07
1.22179e-09
3.23427e-10
1.9367e-10
1.71532e-10
1.68246e-10
1.68252e-10
1.68252e-10
1.80871e-06
5.09889e-06
4.99674e-06
6.4422e-07
7.23317e-07
0.000452998
0.000433431
1.29989e-05
1.06099e-05
0.000109297
1.03228e-05
1.44749e-06
6.58567e-09
8.71235e-10
2.55195e-10
1.78816e-10
1.69082e-10
1.68246e-10
1.69082e-10
4.54856e-06
5.09889e-06
1.95618e-06
3.39271e-07
4.8108e-07
0.000445409
5.97216e-05
1.07403e-05
1.091e-05
0.000109297
2.4759e-06
9.72987e-09
1.31167e-09
2.99367e-10
1.69799e-10
1.74659e-10
1.71082e-10
1.69082e-10
1.78156e-06
5.07854e-06
5.09889e-06
1.47481e-06
1.82753e-07
3.31047e-07
0.000434394
5.53689e-05
1.07403e-05
1.23429e-05
5.40938e-05
1.66932e-06
8.5296e-09
1.09864e-09
2.51282e-10
9.08203e-11
1.57326e-10
1.74659e-10
1.71082e-10
3.58005e-06
4.92281e-06
4.67501e-06
4.33425e-07
2.44758e-08
1.33274e-07
0.000395761
8.60627e-05
1.23429e-05
1.05734e-05
1.53703e-06
1.53703e-06
4.36271e-10
6.33175e-11
2.10213e-11
4.44072e-11
8.95688e-11
1.33112e-10
1.90523e-10
1.63578e-06
4.66422e-06
9.79249e-07
7.01535e-09
7.35602e-09
2.08421e-05
0.000182411
7.20259e-05
2.02074e-05
0.000138996
2.98617e-05
1.53703e-06
2.28066e-11
9.09026e-12
6.81358e-12
1.21215e-11
9.9433e-10
6.36768e-09
3.59527e-09
1.23278e-07
1.4384e-09
2.56163e-09
5.39562e-09
8.40995e-09
0.000210467
0.000155779
7.54512e-05
0.000272221
0.000962134
0.000158744
1.92751e-06
4.438e-12
6.02261e-12
5.9857e-12
6.47987e-12
3.79167e-09
2.04842e-08
1.64588e-08
3.58512e-10
1.16312e-09
1.4384e-09
2.56163e-09
5.73628e-09
0.000205367
0.000269908
0.000121096
0.00097317
0.00105246
0.000245918
3.07001e-06
3.38928e-12
4.75174e-12
5.1951e-12
2.26739e-10
2.13063e-09
4.91176e-09
2.59822e-09
1.72294e-10
3.12646e-10
1.00049e-09
5.37704e-09
8.54555e-09
2.09322e-05
0.000211735
0.00028122
0.00105246
0.00105246
0.000288318
6.05819e-06
9.44227e-14
2.5451e-12
1.28274e-11
1.51057e-11
6.50218e-11
2.83061e-12
6.36422e-12
8.45331e-12
1.61201e-11
5.20654e-09
3.57259e-08
3.69156e-08
2.35838e-05
9.02951e-06
0.000152705
0.00104998
0.00105246
0.000297883
9.67219e-06
6.59169e-14
2.9388e-12
1.26006e-11
1.41372e-11
3.93146e-12
2.49094e-12
2.71804e-12
1.5622e-12
-3.04245e-10
4.86787e-08
2.54259e-06
4.51239e-07
9.19774e-07
9.78343e-07
2.87918e-05
0.00100756
0.00104998
0.000240019
9.57918e-06
2.58195e-14
6.42973e-14
5.89644e-13
7.54571e-13
9.28672e-13
9.78674e-13
2.65796e-12
5.52549e-11
-7.62207e-10
1.1392e-05
4.50406e-05
2.40484e-05
1.07987e-06
9.64538e-07
0.000233476
0.00104384
0.00104363
0.000123471
4.87044e-06
1.10428e-14
2.02988e-14
5.62371e-14
9.49516e-14
8.34306e-14
5.24344e-13
1.37785e-11
5.05631e-10
2.84149e-06
4.93352e-05
5.0617e-05
4.65858e-05
4.60521e-06
1.26788e-06
0.000794021
0.00104384
0.000939981
4.54333e-05
1.41768e-06
3.55782e-15
5.44357e-15
8.709e-14
1.03278e-13
1.17467e-13
2.11423e-12
1.35816e-10
4.05041e-09
1.78831e-05
5.0617e-05
5.11619e-05
5.11327e-05
1.5498e-05
2.0959e-06
0.0004414
0.00104384
0.00042286
1.3134e-06
1.04097e-07
1.09192e-15
1.08988e-15
1.202e-12
2.11466e-13
-5.2853e-14
7.2994e-10
3.62833e-08
6.5675e-07
1.08878e-07
2.99837e-05
5.11327e-05
5.11936e-05
2.58187e-05
4.98919e-06
0.000212668
0.000268966
3.64302e-05
7.80257e-11
-4.16976e-11
1.92252e-16
1.9751e-17
5.52577e-12
2.9166e-13
3.8434e-10
1.34714e-08
3.02523e-07
1.25488e-09
1.10135e-10
2.42766e-08
5.09711e-05
5.12253e-05
5.11778e-05
2.74603e-05
1.01227e-06
6.89163e-10
9.34145e-12
-4.47246e-12
-1.62213e-13
5.20834e-17
1.64986e-18
1.1481e-11
1.2069e-12
3.40468e-09
1.36928e-08
3.18419e-09
8.94058e-12
5.56655e-11
6.67181e-11
2.25651e-05
5.10418e-05
5.05251e-05
1.98327e-05
-1.35142e-13
-3.86247e-14
-7.95633e-15
-6.31159e-15
-3.77294e-16
1.33349e-17
1.29424e-18
1.52546e-11
1.38807e-10
1.8189e-09
7.76562e-10
1.67365e-13
8.63074e-12
4.35144e-12
3.07283e-12
4.53204e-11
1.63476e-05
6.3629e-06
2.68083e-17
5.48538e-22
-1.46086e-19
-1.32564e-13
-3.22772e-14
-2.12083e-15
1.14705e-18
6.20373e-19
1.61797e-11
1.2829e-10
1.32622e-13
5.8401e-14
1.61579e-13
1.33644e-11
1.52163e-12
1.52564e-12
3.07283e-12
4.79552e-11
7.82553e-10
3.4215e-07
1.20911e-15
-1.00703e-18
6.07504e-16
1.81113e-17
5.01828e-18
1.89364e-20
1.95817e-20
2.22114e-12
2.53929e-11
6.36366e-12
1.55856e-14
1.77316e-13
1.4145e-11
1.4834e-12
2.14984e-12
1.53248e-10
1.66736e-10
6.21886e-08
1.60634e-07
-3.48478e-19
-1.41448e-17
-4.36723e-19
-1.81121e-20
4.1582e-20
6.48268e-24
1.30064e-16
1.15613e-29
3.43916e-37
0
0
1.88102e-14
7.15951e-12
4.08896e-13
1.80228e-13
5.09109e-10
3.81904e-09
-3.55035e-21
-5.70297e-20
-1.10568e-19
-1.28512e-17
-1.10836e-18
-4.49835e-20
-6.5982e-22
)
;

boundaryField
{
    leftWall
    {
        type            zeroGradient;
    }
    rightWall
    {
        type            zeroGradient;
    }
    lowerWall
    {
        type            zeroGradient;
    }
    atmosphere
    {
        type            inletOutlet;
        inletValue      uniform 0;
        value           nonuniform List<scalar> 
46
(
-2.93431e-24
-4.93975e-25
-6.51522e-25
-3.02269e-25
-7.07558e-26
-1.12569e-26
-1.16276e-27
-5.33438e-28
-5.72941e-27
-7.52601e-26
-7.20737e-25
-4.4766e-24
-1.67679e-23
-3.68425e-23
-4.91628e-23
-4.29312e-23
-2.561e-23
-1.09199e-23
-3.38792e-24
-6.59192e-25
-4.41966e-26
0
2.5164e-28
1.19324e-28
0
0
0
0
0
0
0
0
0
0
0
0
0
0
0
0
0
0
0
0
0
0
)
;
    }
    defaultFaces
    {
        type            empty;
    }
}


// ************************************************************************* //
