/*--------------------------------*- C++ -*----------------------------------*\
| =========                 |                                                 |
| \\      /  F ield         | OpenFOAM: The Open Source CFD Toolbox           |
|  \\    /   O peration     | Version:  2206                                  |
|   \\  /    A nd           | Website:  www.openfoam.com                      |
|    \\/     M anipulation  |                                                 |
\*---------------------------------------------------------------------------*/
FoamFile
{
    version     2.0;
    format      ascii;
    arch        "LSB;label=32;scalar=64";
    class       surfaceScalarField;
    location    "0.825";
    object      alphaPhi0.water;
}
// * * * * * * * * * * * * * * * * * * * * * * * * * * * * * * * * * * * * * //

dimensions      [0 3 -1 0 0 0 0];

oriented        oriented;

internalField   nonuniform List<scalar> 
4432
(
-4.85824e-06
4.85824e-06
-1.06535e-05
5.7953e-06
-1.67419e-05
6.0884e-06
-2.25445e-05
5.80257e-06
-2.60122e-05
3.46765e-06
-2.58993e-05
-1.12894e-07
-2.4092e-05
-1.80726e-06
-2.28193e-05
-1.27271e-06
-2.24388e-05
-3.805e-07
-2.25616e-05
1.22821e-07
-2.29535e-05
3.91902e-07
-2.34474e-05
4.93862e-07
-2.35453e-05
9.80663e-08
-2.26352e-05
-9.08752e-07
-2.10365e-05
-1.04351e-06
-2.25987e-05
1.94366e-06
-2.89206e-05
5.19292e-06
-3.22244e-05
3.33965e-06
-2.85316e-05
-3.56988e-06
-2.04831e-05
-7.77073e-06
-1.17747e-05
-8.64675e-06
-3.74547e-06
-8.0922e-06
-3.74548e-06
-8.6162e-06
1.34745e-05
-1.63929e-05
1.3572e-05
-2.26738e-05
1.23694e-05
-2.68627e-05
9.99143e-06
-2.8098e-05
4.70301e-06
-2.68753e-05
-1.33567e-06
-2.46726e-05
-4.00988e-06
-2.31008e-05
-2.84456e-06
-2.27597e-05
-7.21541e-07
-2.31015e-05
4.64566e-07
-2.36583e-05
9.48646e-07
-2.42149e-05
1.05052e-06
-2.49924e-05
8.76012e-07
-2.65626e-05
7.04071e-07
-2.78532e-05
1.66502e-06
-3.04273e-05
4.45944e-06
-3.02481e-05
4.93516e-06
-2.54662e-05
-1.82046e-06
-1.82968e-05
-1.07577e-05
-1.17848e-05
-1.44707e-05
-5.81357e-06
-1.46627e-05
-9.50926e-07
-1.30846e-05
-4.69606e-06
-8.83551e-06
2.231e-05
-1.6207e-05
2.09435e-05
-2.21992e-05
1.83616e-05
-2.67271e-05
1.45193e-05
-2.87916e-05
6.76752e-06
-2.78727e-05
-2.25458e-06
-2.55452e-05
-6.33733e-06
-2.37913e-05
-4.59853e-06
-2.31175e-05
-1.39529e-06
-2.29767e-05
3.23779e-07
-2.27271e-05
6.99007e-07
-2.22309e-05
5.54381e-07
-2.18557e-05
5.00757e-07
-2.22555e-05
1.10468e-06
-2.27683e-05
2.79116e-06
-2.18326e-05
4.36176e-06
-1.84573e-05
1.48064e-06
-1.30493e-05
-7.30698e-06
-8.30621e-06
-1.60585e-05
-4.53039e-06
-1.91173e-05
-5.07411e-07
-1.9271e-05
2.30881e-06
-1.59008e-05
-2.38835e-06
-7.89113e-06
3.02011e-05
-1.46835e-05
2.77358e-05
-2.06145e-05
2.42926e-05
-2.53624e-05
1.92672e-05
-2.77019e-05
9.10704e-06
-2.72712e-05
-2.68533e-06
-2.56983e-05
-7.91017e-06
-2.45361e-05
-5.76073e-06
-2.40388e-05
-1.89259e-06
-2.38913e-05
1.76245e-07
-2.3498e-05
3.0566e-07
-2.24886e-05
-4.54945e-07
-2.09278e-05
-1.06012e-06
-1.90799e-05
-7.43084e-07
-1.68409e-05
5.664e-07
-1.33205e-05
1.0129e-06
-9.10868e-06
-2.69378e-06
-5.94807e-06
-1.07795e-05
-4.24313e-06
-1.77634e-05
-2.23689e-06
-2.11236e-05
9.83833e-07
-2.24917e-05
3.55639e-06
-1.84734e-05
1.16734e-06
-6.60795e-06
3.68091e-05
-1.26305e-05
3.37584e-05
-1.78659e-05
2.9528e-05
-2.18576e-05
2.3259e-05
-2.39351e-05
1.11845e-05
-2.43219e-05
-2.29848e-06
-2.44508e-05
-7.78124e-06
-2.4834e-05
-5.37761e-06
-2.5091e-05
-1.63557e-06
-2.51364e-05
2.21707e-07
-2.47846e-05
-4.6227e-08
-2.36922e-05
-1.54726e-06
-2.17521e-05
-3.00025e-06
-1.89651e-05
-3.53006e-06
-1.5251e-05
-3.14765e-06
-1.08126e-05
-3.42553e-06
-6.92199e-06
-6.58438e-06
-5.22524e-06
-1.24762e-05
-5.01452e-06
-1.79741e-05
-3.78427e-06
-2.23538e-05
-6.72965e-07
-2.5603e-05
2.54861e-06
-2.1695e-05
3.71599e-06
-5.00212e-06
4.18112e-05
-9.8404e-06
3.85967e-05
-1.37874e-05
3.3475e-05
-1.6521e-05
2.59926e-05
-1.82309e-05
1.28944e-05
-1.96576e-05
-8.7178e-07
-2.21242e-05
-5.31467e-06
-2.46864e-05
-2.81542e-06
-2.61125e-05
-2.09465e-07
-2.65069e-05
6.16141e-07
-2.61254e-05
-4.27722e-07
-2.48778e-05
-2.79487e-06
-2.27486e-05
-5.12942e-06
-1.98548e-05
-6.42395e-06
-1.62511e-05
-6.75128e-06
-1.22771e-05
-7.39952e-06
-9.01202e-06
-9.84949e-06
-7.45062e-06
-1.40376e-05
-6.91498e-06
-1.85097e-05
-6.00952e-06
-2.32593e-05
-4.00683e-06
-2.76057e-05
-1.168e-06
-2.45338e-05
2.54791e-06
-3.13229e-06
4.49435e-05
-6.73778e-06
4.22022e-05
-9.36743e-06
3.61046e-05
-1.05976e-05
2.72228e-05
-1.16722e-05
1.3969e-05
-1.42962e-05
1.75347e-06
-1.97373e-05
1.25014e-07
-2.45515e-05
1.99882e-06
-2.71805e-05
2.41948e-06
-2.80162e-05
1.45191e-06
-2.75705e-05
-8.73437e-07
-2.60091e-05
-4.35627e-06
-2.35103e-05
-7.62828e-06
-2.03841e-05
-9.55007e-06
-1.6885e-05
-1.02505e-05
-1.33256e-05
-1.09588e-05
-1.03493e-05
-1.28258e-05
-8.48714e-06
-1.58999e-05
-7.59917e-06
-1.93977e-05
-7.564e-06
-2.32944e-05
-7.96916e-06
-2.72006e-05
-6.98647e-06
-2.55164e-05
-4.43866e-06
-1.10782e-06
4.60513e-05
-2.6384e-06
4.37328e-05
-2.90651e-06
3.63727e-05
-1.85868e-06
2.6175e-05
-2.51368e-06
1.4624e-05
-8.92301e-06
8.17463e-06
-1.80196e-05
9.17188e-06
-2.44825e-05
8.4617e-06
-2.80641e-05
6.0011e-06
-2.95663e-05
2.95415e-06
-2.92436e-05
-1.19619e-06
-2.73258e-05
-6.27402e-06
-2.42513e-05
-1.07028e-05
-2.06172e-05
-1.31841e-05
-1.68622e-05
-1.40054e-05
-1.32466e-05
-1.45743e-05
-1.01736e-05
-1.58988e-05
-8.06145e-06
-1.80119e-05
-7.14098e-06
-2.03181e-05
-7.71938e-06
-2.2716e-05
-9.76205e-06
-2.51579e-05
-1.00614e-05
-2.52169e-05
-1.45001e-05
1.05761e-05
-1.07111e-05
-1.9448e-06
1.11278e-05
-2.05211e-05
1.90719e-05
-9.76259e-06
-8.86369e-06
1.11473e-05
-1.69902e-05
2.63414e-05
-1.11748e-05
3.0534e-05
-1.70132e-07
2.88319e-05
7.8854e-06
1.37836e-05
1.50851e-05
-5.87806e-06
1.96839e-05
-1.73612e-05
1.15053e-05
-1.55029e-05
-1.83602e-06
-1.1822e-05
-3.65771e-06
-2.58768e-05
1.40789e-05
-4.36383e-05
1.77987e-05
-5.07736e-05
9.10779e-06
-4.45529e-05
2.85524e-07
-2.58353e-05
-1.23339e-05
-2.04559e-05
-1.72396e-06
-8.75303e-06
-2.05771e-05
2.85855e-05
-1.43377e-05
1.35229e-05
6.90192e-06
-2.93052e-05
2.36361e-05
-3.1096e-05
3.13784e-05
-1.89416e-05
3.40411e-05
-7.77414e-07
4.3645e-05
8.04124e-06
4.29891e-05
1.39774e-05
3.55351e-05
2.71747e-05
1.26428e-05
2.35466e-05
-1.41661e-05
2.08664e-05
-3.46277e-05
1.68279e-05
-4.21589e-05
2.37794e-05
-2.67676e-05
1.59837e-05
-2.54926e-05
8.28141e-06
-2.41053e-05
-1.38007e-06
-1.53515e-05
-2.16179e-05
-3.71341e-05
-1.50216e-05
6.50524e-06
-2.59625e-05
4.0263e-05
-3.29565e-06
-4.3645e-06
1.64688e-05
-5.31381e-05
3.10753e-05
-5.01877e-05
3.22399e-05
-2.09448e-05
3.15091e-05
-8.31925e-07
3.21018e-05
6.93312e-06
3.45976e-05
8.44247e-06
3.49064e-05
1.62649e-05
3.41127e-05
2.25749e-05
1.20139e-05
4.11998e-05
-1.70308e-05
4.51834e-05
-1.44122e-05
3.47492e-05
-1.54053e-05
1.68446e-05
-1.73613e-05
1.01078e-05
-1.48254e-05
-4.07547e-06
-1.49541e-05
-2.17676e-05
-8.04656e-05
-1.89126e-05
2.5687e-05
-1.41954e-05
3.57647e-05
3.1706e-06
-2.26456e-05
1.91559e-05
-7.39675e-05
2.89381e-05
-6.08733e-05
2.64333e-05
-1.96522e-05
2.27221e-05
1.76287e-06
2.27935e-05
4.2093e-06
2.37273e-05
5.71894e-06
2.47208e-05
1.23269e-05
3.52167e-05
1.81495e-05
3.16733e-05
4.28973e-05
1.48476e-05
5.90036e-05
-6.56683e-07
5.86675e-05
-3.11156e-06
1.91637e-05
-3.88232e-06
1.07609e-05
-3.59961e-06
-4.4926e-06
-2.10129e-06
-2.3459e-05
-8.3446e-05
-1.79678e-05
4.38962e-05
-7.03998e-06
2.84304e-05
8.32409e-06
-3.89539e-05
1.84275e-05
-8.18485e-05
2.09285e-05
-6.40338e-05
1.61634e-05
-1.21826e-05
1.01423e-05
5.60921e-06
8.42109e-06
4.1833e-06
1.12e-05
2.13006e-06
1.71777e-05
5.01182e-06
2.55677e-05
1.11737e-05
4.11258e-05
2.62628e-05
3.97997e-05
5.76728e-05
2.99176e-05
6.62592e-05
1.71017e-05
4.66815e-05
1.11571e-05
1.65878e-05
9.78459e-06
-3.27965e-06
1.03406e-05
-2.39917e-05
-7.36349e-05
-1.31918e-05
5.74665e-05
-3.18685e-06
1.63506e-05
7.67542e-06
-5.21998e-05
8.34637e-06
-8.01717e-05
8.53668e-06
-2.61588e-05
5.21716e-06
-6.26033e-07
2.10895e-07
5.82587e-06
-2.07292e-06
2.38093e-06
-6.79461e-07
3.34627e-09
2.7002e-06
8.63598e-08
9.32177e-06
2.5876e-06
2.64203e-05
8.26586e-06
4.5763e-05
3.5593e-05
5.44712e-05
5.52498e-05
5.65632e-05
4.28454e-05
4.71125e-05
2.63165e-05
3.19897e-05
2.47259e-06
2.40445e-05
-2.92928e-05
-4.95292e-05
-1.14407e-05
6.93741e-05
-4.59665e-06
8.13885e-06
1.15649e-07
-6.96676e-05
1.25881e-06
-7.99973e-05
1.86495e-06
-6.92889e-06
9.18193e-07
-7.30617e-07
1.03102e-06
1.11932e-06
-1.65517e-07
2.962e-07
-3.99437e-07
1.63145e-07
-8.8801e-07
2.38698e-07
-1.08164e-06
2.49637e-08
5.36697e-06
-1.60181e-06
2.61746e-05
4.90707e-06
4.73167e-05
3.23694e-05
5.79208e-05
3.05186e-05
6.27641e-05
2.08078e-05
5.15591e-05
8.94406e-06
3.22774e-05
-9.93707e-06
-1.70631e-05
-1.24798e-05
8.25111e-05
-7.34058e-06
2.26981e-06
-9.08729e-06
-6.94113e-05
-4.99665e-07
-7.62002e-05
6.26107e-08
-8.54252e-06
7.80941e-07
-2.47394e-06
1.14894e-06
3.2542e-07
3.61904e-07
1.04858e-06
-1.84257e-07
7.02708e-07
-5.84051e-07
6.28395e-07
-6.39493e-07
2.30669e-09
1.27853e-06
-6.27031e-06
3.16813e-06
1.9874e-06
1.60337e-05
3.85511e-06
2.68461e-05
3.10022e-06
4.10828e-05
7.15412e-06
4.06195e-05
9.65072e-06
2.62704e-05
4.62449e-06
9.36715e-06
6.23978e-06
3.37491e-05
4.69349e-06
4.52791e-05
2.88043e-07
4.07782e-05
-1.03377e-05
3.2794e-05
-2.65417e-05
2.56784e-05
-4.1951e-05
2.173e-05
-5.15338e-05
1.87546e-05
-5.79935e-05
1.49214e-05
-6.3372e-05
1.13797e-05
-6.65389e-05
6.12103e-06
-6.54473e-05
-2.28833e-06
-5.94576e-05
-1.22621e-05
-5.04535e-05
-1.97034e-05
-4.08113e-05
-2.28223e-05
-3.17902e-05
-2.30224e-05
-2.38723e-05
-2.24888e-05
-1.77384e-05
-2.20301e-05
-1.39919e-05
-2.17564e-05
-1.28699e-05
-2.14385e-05
-1.39889e-05
-2.15962e-05
-1.57937e-05
-2.33535e-05
-1.29779e-05
-2.80324e-05
-3.29089e-05
5.43045e-06
-1.46972e-05
1.40803e-05
-2.72976e-05
1.49365e-05
-3.84719e-05
1.46368e-05
-4.67583e-05
1.27992e-05
-5.63737e-05
1.24076e-05
-6.23081e-05
1.13731e-05
-6.42135e-05
9.93131e-06
-6.61607e-05
9.08646e-06
-6.9101e-05
9.08284e-06
-7.04183e-05
5.87805e-06
-6.86111e-05
-3.24149e-06
-6.16952e-05
-1.64215e-05
-5.13512e-05
-2.8692e-05
-4.02955e-05
-3.08672e-05
-3.07239e-05
-2.76131e-05
-2.36463e-05
-2.48314e-05
-1.88996e-05
-2.29241e-05
-1.59999e-05
-2.20797e-05
-1.47565e-05
-2.09379e-05
-1.4847e-05
-2.07222e-05
-1.42977e-05
-2.38976e-05
-8.05342e-06
-3.42737e-05
-5.05588e-05
9.59532e-06
-6.76262e-06
-2.33444e-06
-1.10197e-05
-8.8001e-07
-1.72465e-05
-5.50544e-07
-2.29042e-05
-6.92781e-07
-2.6531e-05
-1.15893e-06
-2.99358e-05
-7.40704e-07
-3.69695e-05
-3.13612e-07
-5.19494e-05
2.21198e-07
-7.12135e-05
1.54802e-06
-8.61572e-05
2.66186e-06
-9.68621e-05
-2.36915e-06
-9.61557e-05
-2.33861e-05
-7.92907e-05
-2.36374e-05
-5.4975e-05
-1.772e-05
-4.06739e-05
-1.55995e-05
-3.28494e-05
-1.55954e-05
-2.91597e-05
-1.4862e-05
-2.46241e-05
-1.45645e-05
-1.96194e-05
-1.09191e-05
-1.99288e-05
-6.99941e-06
-2.78126e-05
-9.81014e-06
-3.25301e-05
-2.95375e-05
-4.36289e-05
-3.94825e-05
-3.66589e-06
2.14773e-07
-5.55661e-06
4.60005e-07
-6.65871e-06
2.2739e-07
-7.71498e-06
-6.25469e-08
-9.90911e-06
-1.70897e-07
-1.90114e-05
-1.28799e-07
-3.33849e-05
-1.29735e-07
-4.49404e-05
-1.008e-07
-5.65571e-05
2.056e-08
-0.0001155
-7.29737e-06
-0.00019562
-3.25802e-05
-0.000169611
-5.87356e-05
-7.55182e-05
-4.41158e-05
-4.34921e-05
-3.33517e-05
-3.17324e-05
-1.73298e-05
-2.66468e-05
-1.24703e-05
-2.48122e-05
-1.20131e-05
-2.15895e-05
-1.70926e-05
-1.81597e-05
-1.6087e-05
-1.53827e-05
-1.43581e-05
-2.3727e-05
-7.0532e-06
-7.16004e-05
-1.48363e-05
-1.18488e-05
-0.000116116
-9.12688e-07
4.83413e-07
-9.75838e-07
2.6488e-07
-9.44588e-07
1.13171e-07
-1.09421e-06
2.61674e-08
-2.84649e-06
1.44988e-08
-4.2915e-06
2.91642e-08
-4.33165e-06
-9.18475e-09
-4.30751e-06
-1.0043e-07
-2.50286e-05
-4.22544e-07
-7.7774e-05
-4.14959e-06
-0.000125078
-1.63077e-05
-0.000150196
-5.01076e-05
-0.000143914
-5.4626e-05
-8.00337e-05
-4.44761e-05
-5.0556e-05
-2.59464e-05
-2.30658e-05
-1.49031e-05
-2.0196e-05
-7.46202e-06
-5.79556e-05
-3.12883e-05
-6.85675e-05
-5.32029e-05
-4.04496e-05
-4.61322e-05
-2.51173e-05
-2.67074e-05
-9.60859e-05
-1.00779e-05
1.32391e-05
-0.000156484
-1.50228e-07
3.45893e-07
-1.45129e-07
1.07009e-07
-9.64011e-08
3.28002e-08
-8.91533e-08
7.74948e-09
-7.96068e-08
2.25394e-09
-4.52569e-08
5.92283e-10
-4.91712e-08
-4.60702e-10
-1.39347e-07
-5.31087e-10
-5.57704e-07
-3.53372e-09
-4.67036e-06
-2.62714e-08
-1.67657e-05
-9.69213e-08
-5.57215e-05
-1.51315e-06
-7.80959e-05
-1.08646e-05
-7.8412e-05
-1.7037e-05
-6.31738e-05
-2.22557e-05
-1.10414e-05
-1.68239e-06
-1.36827e-05
-1.36953e-06
-8.55356e-05
-1.18291e-05
-0.00011799
-4.11693e-05
-0.000117298
-5.33589e-05
-0.000112903
-3.60688e-05
-0.000121147
-6.35685e-06
1.42125e-05
-0.000124421
6.50997e-09
2.32089e-07
-7.78133e-09
7.24655e-08
-6.33667e-09
1.25742e-08
-3.93687e-09
2.03475e-09
-1.5933e-09
6.74849e-11
-1.24138e-10
-1.18439e-10
-6.13965e-11
-1.85624e-12
-4.04762e-10
-1.38245e-11
-3.74301e-09
-1.08869e-10
-2.98694e-08
-5.71309e-11
-1.26186e-07
-1.68382e-10
-1.63813e-06
-7.13864e-10
-1.23074e-05
-2.95874e-09
-1.40653e-05
-6.99492e-09
-1.25398e-06
-4.17053e-08
-1.49346e-06
-9.34267e-08
-2.77734e-06
-2.09865e-07
-1.37098e-05
-1.38813e-06
-6.22968e-05
-6.18916e-06
-0.000114679
-2.28167e-05
-0.000128454
-2.88255e-05
-0.000131392
-8.38498e-06
1.79115e-05
-3.82495e-05
2.40959e-08
1.29223e-07
5.03392e-10
6.13944e-08
3.80581e-10
7.55548e-09
1.58459e-10
7.7698e-10
4.16252e-11
-7.96851e-12
1.41221e-12
-1.03769e-11
1.14253e-12
2.52847e-13
1.0149e-13
-1.11001e-15
-2.73224e-12
-7.36751e-13
-1.58653e-11
-1.25411e-12
-4.60467e-11
-5.74928e-12
-3.42357e-10
-9.55035e-11
-8.74811e-10
-7.08562e-10
-6.96219e-09
-9.30526e-10
-4.34623e-08
-5.69335e-09
-1.23015e-07
-2.03098e-08
-3.09667e-07
-5.42792e-08
-1.55167e-06
-2.7021e-07
-6.79209e-06
-1.43993e-06
-2.83619e-05
-4.13481e-06
-0.000108494
-1.48764e-05
-0.000124457
-1.15524e-05
1.41833e-05
-0.000101665
1.81989e-08
6.53264e-08
-3.94254e-11
5.34345e-08
-1.20569e-11
5.64591e-09
7.57682e-12
6.8627e-10
-4.11877e-12
3.31326e-11
-1.93367e-12
9.72114e-13
3.54621e-13
3.66609e-14
9.68624e-13
-3.86245e-14
1.7757e-12
-2.77333e-14
1.94929e-12
2.05084e-13
1.38899e-11
9.35054e-13
-7.63933e-10
3.57766e-11
2.32322e-10
4.7959e-12
-7.77353e-10
-5.9346e-11
-5.71361e-09
-9.59762e-10
-2.21601e-08
-6.80679e-09
-6.53704e-08
-2.70785e-08
-2.74508e-07
-1.2542e-07
-1.24016e-06
-6.98267e-07
-3.75191e-06
-2.53009e-06
-4.00993e-05
-4.82034e-06
-9.25256e-05
-1.10995e-05
4.1701e-06
-8.52588e-05
1.17833e-08
2.55993e-08
3.61636e-09
3.51608e-08
7.96971e-11
6.88405e-09
-7.66394e-13
7.1971e-10
-4.15971e-12
4.41922e-11
-1.02278e-12
1.9293e-12
1.33835e-14
1.33077e-13
1.02801e-13
1.95545e-14
1.49676e-13
4.2766e-14
1.32946e-12
1.13606e-13
3.34293e-12
1.34469e-12
2.00986e-14
-2.31041e-12
-1.0709e-11
-4.36469e-13
-1.4283e-10
8.02929e-12
-1.5073e-09
8.90458e-11
-1.01156e-08
-3.56001e-10
-4.05877e-08
-7.53891e-09
-1.42638e-07
-6.12773e-08
-8.62283e-07
-3.77338e-07
-1.26975e-06
-1.33533e-06
-3.21405e-06
-1.86319e-06
-2.45434e-05
-3.91039e-06
-3.09109e-06
-4.93118e-05
8.22309e-09
7.40191e-09
5.72345e-09
9.93187e-09
9.13382e-11
1.00226e-08
2.43985e-11
7.16004e-10
1.1541e-12
6.09651e-11
-2.39268e-13
3.39675e-12
-5.62807e-14
2.75609e-13
1.28559e-13
5.96696e-14
3.03284e-14
2.02744e-14
1.02536e-13
2.53685e-14
1.68886e-12
1.6708e-12
3.26142e-13
6.02667e-15
-3.36966e-13
2.99642e-14
-3.12944e-12
2.16962e-12
-2.60596e-11
4.72327e-11
-1.56213e-09
5.12126e-10
-1.62299e-08
2.81242e-09
-9.80522e-08
1.48015e-09
-3.11152e-07
-9.87202e-08
-1.60791e-07
-5.72892e-07
-2.10764e-06
-2.53885e-06
-4.77996e-06
-4.44075e-06
-3.9732e-06
-5.40975e-06
2.95629e-09
1.61038e-09
4.26452e-09
3.60591e-09
1.51544e-09
4.92542e-09
8.32834e-11
1.411e-09
1.29884e-11
1.05948e-10
1.53115e-12
1.15457e-11
3.58205e-13
1.08316e-12
1.62846e-13
1.34307e-13
3.13763e-14
2.87377e-14
6.31471e-13
6.25098e-14
9.94911e-13
1.76877e-12
3.37955e-14
6.15671e-13
-2.08136e-14
9.86219e-14
1.31141e-12
4.73278e-13
3.30584e-11
5.86175e-12
3.23089e-10
6.30755e-11
9.28163e-10
5.9177e-10
-1.19604e-08
3.3484e-09
-1.32989e-07
-1.41841e-08
-9.93931e-07
-3.34834e-07
-8.11856e-06
-4.82397e-06
-6.21992e-06
-7.38693e-06
-5.82386e-06
-2.98397e-06
7.22787e-10
2.35765e-10
1.88672e-09
1.05081e-09
1.39882e-09
3.49198e-10
-1.89313e-11
9.90015e-10
1.28776e-11
1.11644e-10
1.65914e-12
1.70418e-11
2.93721e-13
1.76215e-12
1.19352e-13
1.85669e-13
4.21384e-14
2.86906e-14
3.08051e-13
1.89992e-13
4.68343e-13
8.51762e-14
2.24951e-14
2.32279e-13
-6.88196e-15
1.35719e-13
1.25984e-13
1.3607e-13
3.62421e-12
8.27286e-13
3.04858e-11
7.89431e-12
2.42711e-10
7.42615e-11
8.42242e-10
7.3927e-10
-2.42922e-08
3.1413e-09
-3.72671e-07
-5.8684e-08
-6.42253e-06
-1.5443e-06
-7.54076e-06
-5.81617e-06
-6.57673e-06
-6.06952e-06
6.63289e-11
3.55912e-11
4.36181e-10
2.44403e-10
3.13906e-10
1.18071e-10
1.80693e-10
5.53834e-12
-6.63363e-12
6.77657e-11
-2.51389e-13
6.1396e-12
3.57691e-14
9.32837e-13
3.92316e-14
1.05312e-13
1.48144e-14
1.75663e-14
6.44765e-14
6.59379e-14
4.85001e-14
1.56292e-14
3.1254e-14
1.25323e-13
1.64917e-15
1.37438e-13
1.13159e-14
9.2202e-14
4.38041e-13
1.84332e-13
3.14015e-12
9.25155e-13
1.46864e-11
1.46458e-11
2.09463e-10
1.86697e-10
5.73893e-10
1.21281e-09
-5.15606e-08
-1.022e-08
-1.15591e-06
-3.19374e-07
-4.69734e-06
-1.03568e-06
-3.59579e-06
-7.39064e-06
1.96479e-12
6.27981e-12
7.71529e-11
5.01227e-11
6.70637e-11
3.16863e-11
2.15167e-11
3.07953e-12
5.71934e-12
5.18292e-13
-5.79339e-13
2.03629e-12
-3.40914e-14
2.5549e-13
1.05304e-14
4.41121e-14
6.90166e-15
9.51277e-15
2.22851e-14
3.78735e-14
2.66747e-14
6.29323e-14
3.35216e-14
1.71372e-13
1.23757e-14
1.60167e-13
-7.15649e-16
9.89098e-14
4.37805e-14
1.24482e-13
5.98948e-13
3.32238e-13
4.13984e-12
5.45217e-12
2.57986e-11
1.32319e-10
-2.40859e-10
1.47022e-09
-2.04649e-08
2.73056e-09
-1.12055e-07
-1.23097e-07
-7.4347e-07
-3.49608e-07
-7.48334e-07
-3.53643e-06
-8.83063e-13
1.59328e-12
1.11492e-11
9.67051e-12
1.34378e-11
6.36246e-12
4.0656e-12
1.43855e-12
5.0152e-13
3.1002e-13
3.83024e-14
1.73781e-13
1.47348e-14
9.56755e-14
5.31633e-15
2.07241e-14
3.90115e-15
5.69714e-15
2.62621e-14
4.29399e-14
4.46833e-14
1.16231e-13
4.88253e-14
2.18903e-13
2.30726e-14
2.028e-13
6.52262e-15
1.01204e-13
9.20332e-16
1.31794e-13
1.68234e-13
4.63376e-13
3.18815e-12
1.74781e-12
4.42988e-11
9.074e-11
-1.37269e-09
2.18272e-09
-4.09429e-09
1.69285e-08
6.64101e-09
-5.79745e-08
-1.18249e-07
-1.63347e-07
-5.78495e-07
-2.88818e-07
2.00673e-14
4.00984e-13
1.78919e-12
2.00741e-12
1.99682e-12
1.2082e-12
7.60683e-13
4.05188e-13
1.31361e-13
1.65007e-13
3.3833e-14
7.24558e-14
1.01815e-14
3.05644e-14
2.41687e-15
6.02099e-15
2.34534e-15
3.18119e-15
3.24206e-14
4.85658e-14
5.90883e-14
1.76385e-13
5.98669e-14
2.44306e-13
3.4305e-14
2.24215e-13
1.13698e-14
8.93341e-14
1.1293e-14
1.09212e-13
1.59178e-15
3.24459e-13
9.64194e-13
6.87652e-13
6.99677e-11
2.20536e-11
-8.82148e-10
1.95605e-09
2.48623e-09
1.44127e-08
2.6232e-08
-2.4199e-08
-1.09325e-07
-1.99482e-07
-1.23148e-06
-1.26485e-06
2.80193e-14
1.00803e-13
3.25283e-13
4.39908e-13
3.18582e-13
2.62688e-13
1.25104e-13
1.21002e-13
3.67729e-14
5.88959e-14
1.15267e-14
2.9272e-14
2.73396e-15
7.88858e-15
1.00319e-15
1.80627e-15
1.38098e-15
1.72472e-15
3.18972e-14
4.70985e-14
5.55255e-14
1.81749e-13
6.63567e-14
2.59656e-13
4.08947e-14
2.31739e-13
1.17686e-14
6.74045e-14
1.11783e-14
6.34185e-14
3.71167e-14
6.66535e-14
4.20708e-13
3.15821e-13
1.37795e-11
1.41134e-11
4.35886e-10
7.8419e-10
5.57425e-09
6.36682e-09
4.65352e-08
-7.01239e-10
-4.23618e-07
-2.45454e-07
-2.11249e-06
-2.43958e-06
6.74461e-15
3.8616e-14
6.16829e-14
1.07075e-13
5.29471e-14
5.88738e-14
2.29102e-14
4.09263e-14
9.13196e-15
2.19679e-14
2.81482e-15
7.65759e-15
6.44724e-16
1.81467e-15
4.22251e-16
7.28092e-16
8.26459e-16
1.06239e-15
2.44853e-14
3.31132e-14
5.69166e-14
1.29597e-13
6.78468e-14
2.57484e-13
3.94911e-14
2.01708e-13
7.68607e-15
4.69618e-14
6.17167e-15
2.60921e-14
1.19062e-14
1.6685e-14
3.49015e-13
8.68182e-14
1.23441e-11
4.50148e-12
9.5173e-11
2.51669e-10
4.82059e-09
5.64548e-09
5.38376e-08
1.86158e-08
-6.17037e-07
-2.63429e-07
-2.76692e-06
-2.4298e-06
1.4812e-15
1.24553e-14
1.15961e-14
3.16986e-14
9.1991e-15
2.19065e-14
5.0643e-15
1.30195e-14
1.97651e-15
5.55035e-15
5.22535e-16
1.53243e-15
1.95463e-16
4.1062e-16
1.77408e-16
3.98747e-16
4.70774e-16
7.17023e-16
1.25769e-14
1.40139e-14
4.10753e-14
5.66833e-14
5.58387e-14
1.6585e-13
3.02842e-14
1.26464e-13
3.97672e-15
3.00918e-14
2.39869e-15
8.60535e-15
2.93094e-15
5.78561e-15
7.61152e-14
1.4098e-14
3.83245e-12
7.58423e-13
1.95518e-10
6.00221e-11
1.50067e-09
3.44235e-09
5.92524e-08
2.23366e-08
-6.73612e-07
-1.9144e-07
-2.61848e-06
-1.7194e-06
3.11243e-16
2.72496e-15
2.3696e-15
8.90517e-15
1.85832e-15
5.88852e-15
9.50622e-16
2.83042e-15
3.42043e-16
1.02238e-15
9.82765e-17
2.89426e-16
6.76109e-17
9.74649e-17
1.10062e-16
2.41197e-16
2.58458e-16
4.55087e-16
4.09141e-15
3.67473e-15
1.56692e-14
1.57642e-14
2.94255e-14
5.99851e-14
1.80273e-14
5.14089e-14
2.14706e-15
1.57763e-14
9.22766e-16
2.84565e-15
8.90896e-16
2.02344e-15
1.29162e-14
2.42343e-15
6.42113e-13
1.33932e-13
5.00568e-11
1.10721e-11
1.63307e-10
1.4721e-09
5.97556e-10
2.05336e-08
-5.81769e-07
-6.23635e-08
-1.62188e-06
-1.37869e-06
5.93465e-17
5.22259e-16
4.62204e-16
1.79705e-15
3.18102e-16
1.04059e-15
1.58963e-16
4.87942e-16
5.8526e-17
1.82465e-16
1.91243e-17
5.25677e-17
1.53905e-17
2.42357e-17
6.87283e-17
1.26508e-16
1.36823e-16
2.3643e-16
9.8516e-16
8.19847e-16
4.1497e-15
3.38599e-15
9.84486e-15
1.44244e-14
7.83134e-15
1.44223e-14
1.22273e-15
6.23134e-15
3.53516e-16
1.04881e-15
3.37939e-16
6.33999e-16
1.80859e-15
1.21839e-15
1.12824e-13
2.65685e-14
9.08295e-12
2.16393e-12
9.53145e-10
5.26967e-10
5.99287e-09
1.52848e-08
-3.89704e-07
4.2226e-08
-8.15376e-07
-1.02914e-06
1.0895e-17
9.74048e-17
7.95131e-17
3.05207e-16
5.10319e-17
1.73597e-16
2.60579e-17
8.2892e-17
9.84399e-18
3.15462e-17
3.81515e-18
9.20996e-18
3.56007e-18
5.70743e-18
3.10259e-17
4.67142e-17
6.08343e-17
9.37704e-17
2.22512e-16
1.97083e-16
9.30298e-16
6.8911e-16
2.53382e-15
2.98286e-15
2.55444e-15
3.3465e-15
6.13912e-16
1.9023e-15
1.2983e-16
3.94774e-16
1.22365e-16
1.80264e-16
5.20484e-16
6.43066e-16
2.23369e-14
4.85312e-15
1.78763e-12
3.98442e-13
4.0251e-10
1.26155e-10
4.29841e-09
1.13485e-08
-4.22421e-07
1.82785e-07
-2.25148e-07
-1.28842e-06
1.95284e-18
1.75451e-17
1.30233e-17
5.09551e-17
7.97371e-18
2.83462e-17
4.19336e-18
1.36596e-17
1.62525e-18
5.2705e-18
7.56514e-19
1.56181e-18
7.80193e-19
1.20584e-18
9.92499e-18
1.10457e-17
2.14663e-17
2.76579e-17
5.2184e-17
4.90613e-17
1.98186e-16
1.40229e-16
6.17521e-16
5.91027e-16
6.61222e-16
7.21811e-16
2.41924e-16
4.82747e-16
4.69727e-17
1.33858e-16
4.11834e-17
4.81466e-17
2.2289e-16
1.98035e-16
4.389e-15
6.81373e-16
3.38977e-13
6.44684e-14
1.01574e-10
2.49725e-11
8.80755e-09
2.63449e-09
-1.65678e-07
1.54646e-07
1.98033e-07
-4.44018e-07
3.4053e-19
3.04317e-18
2.06988e-18
8.24072e-18
1.22072e-18
4.48448e-18
6.61505e-19
2.1771e-18
2.62953e-19
8.51194e-19
1.4306e-19
2.56283e-19
1.58933e-19
2.29978e-19
2.32547e-18
2.02463e-18
5.93888e-18
6.23301e-18
1.24385e-17
1.13962e-17
4.10743e-17
2.78894e-17
1.38087e-16
1.1116e-16
1.54979e-16
1.45537e-16
7.72039e-17
1.08467e-16
1.66919e-17
3.87276e-17
1.29952e-17
1.22485e-17
6.77263e-17
4.01567e-17
6.98517e-16
5.68592e-17
5.73561e-14
8.26698e-15
2.16434e-11
3.3935e-12
2.28632e-09
3.6828e-10
1.17215e-07
1.8379e-08
2.01517e-08
2.03123e-07
5.75575e-20
5.08804e-19
3.20354e-19
1.28903e-18
1.83069e-19
6.86767e-19
1.02086e-19
3.35728e-19
4.15848e-20
1.32928e-19
2.48724e-20
4.07031e-20
3.09203e-20
4.08209e-20
4.57157e-19
3.50934e-19
1.3482e-18
1.18094e-18
2.82418e-18
2.35807e-18
8.20554e-18
5.27083e-18
2.83614e-17
1.95237e-17
3.33615e-17
2.71381e-17
2.08042e-17
2.18954e-17
5.49704e-18
9.52815e-18
3.8033e-18
2.92581e-18
1.3893e-17
6.34325e-18
6.84966e-17
9.86862e-18
7.3575e-15
1.02645e-15
2.97695e-12
4.24023e-13
3.26282e-10
4.47055e-11
1.66855e-08
1.98243e-09
2.66649e-09
3.52333e-08
9.41019e-21
8.20986e-20
4.83169e-20
1.95306e-19
2.68425e-20
1.01884e-19
1.53684e-20
5.01095e-20
6.40629e-21
2.00757e-20
4.19221e-21
6.24892e-21
5.58681e-21
6.8862e-21
8.31533e-20
5.95952e-20
2.66946e-19
2.0576e-19
5.83658e-19
4.3677e-19
1.55465e-18
9.30901e-19
5.34447e-18
3.20016e-18
6.56293e-18
4.66218e-18
4.82992e-18
3.98427e-18
1.57824e-18
2.01009e-18
1.00439e-18
6.37015e-19
2.80447e-18
8.91471e-19
8.96862e-18
2.67788e-18
9.30744e-16
1.07084e-16
3.79536e-13
4.52869e-14
4.07645e-11
4.28218e-12
1.86251e-09
1.55099e-10
1.62592e-10
4.48416e-09
1.48653e-21
1.27943e-20
7.09768e-21
2.86927e-20
3.8383e-21
1.46479e-20
2.25042e-21
7.24051e-21
9.58296e-22
2.93242e-21
6.75037e-22
9.27705e-22
9.60703e-22
1.10582e-21
1.43037e-20
9.68343e-21
4.82441e-20
3.40128e-20
1.0917e-19
7.40492e-20
2.75613e-19
1.53072e-19
9.25249e-19
4.91377e-19
1.17751e-18
7.3971e-19
9.76027e-19
6.56767e-19
3.83211e-19
3.68111e-19
2.33085e-19
1.2327e-19
4.22462e-19
1.25802e-19
1.64894e-18
3.39224e-19
1.01774e-16
6.47966e-18
4.13294e-14
4.03381e-15
4.00508e-12
3.14003e-13
1.49143e-10
9.32866e-12
6.34343e-12
3.14515e-10
2.26719e-22
1.92574e-21
1.01434e-21
4.08995e-21
5.33811e-22
2.04034e-21
3.19687e-22
1.0126e-21
1.38853e-22
4.14248e-22
9.90086e-23
1.33222e-22
1.61545e-22
1.6891e-22
2.32376e-21
1.49111e-21
8.10918e-21
5.32817e-21
1.86991e-20
1.1705e-20
4.54611e-20
2.35431e-20
1.47639e-19
7.09437e-20
1.9299e-19
1.0884e-19
1.73528e-19
9.88131e-20
7.85429e-20
5.9407e-20
4.46369e-20
2.10693e-20
5.80459e-20
1.71896e-20
2.06825e-19
3.17862e-20
6.22221e-18
3.40226e-19
3.82718e-15
2.1101e-16
3.00861e-13
1.6533e-14
9.11904e-12
4.53717e-13
1.67024e-13
1.58798e-11
3.33409e-23
2.79329e-22
1.40829e-22
5.6573e-22
7.19669e-23
2.74848e-22
4.39359e-23
1.36823e-22
1.94347e-23
5.65647e-23
1.39994e-23
1.8452e-23
2.54768e-23
2.47053e-23
3.56282e-22
2.18233e-22
1.27448e-21
7.89595e-22
2.96618e-21
1.74166e-21
6.98137e-21
3.40831e-21
2.18002e-20
9.6662e-21
2.90009e-20
1.49196e-20
2.74566e-20
1.36755e-20
1.37651e-20
8.57055e-21
6.97704e-21
3.2038e-21
7.68944e-21
2.14175e-21
2.17869e-20
3.0532e-21
3.07083e-19
2.52842e-20
2.03723e-16
7.40515e-18
1.61331e-14
5.67061e-16
4.46496e-13
1.91607e-14
2.51577e-15
6.377e-13
4.71088e-24
3.8628e-23
1.89581e-23
7.58243e-23
9.35574e-24
3.56144e-23
5.81898e-24
1.77699e-23
2.62296e-24
7.44573e-24
1.90409e-24
2.46515e-24
3.79178e-24
3.46483e-24
5.16731e-23
3.05121e-23
1.87897e-22
1.11071e-22
4.38737e-22
2.45136e-22
1.00118e-21
4.66715e-22
2.99134e-21
1.24765e-21
4.01365e-21
1.91407e-21
3.90563e-21
1.75192e-21
2.08993e-21
1.11483e-21
9.38917e-22
4.28346e-22
9.7149e-22
2.38198e-22
2.0967e-21
2.8435e-22
2.31886e-20
1.82529e-21
6.98499e-18
4.19686e-19
5.43905e-16
2.56728e-17
1.85729e-14
6.79209e-16
-4.78483e-17
2.21309e-14
6.28975e-25
4.89938e-24
2.46571e-24
9.79686e-24
1.16137e-24
4.31868e-24
7.37075e-25
2.18051e-24
3.40028e-25
9.33304e-25
2.4853e-25
3.16476e-25
5.35413e-25
4.67096e-25
7.11001e-24
4.09129e-24
2.60821e-23
1.49027e-23
6.07863e-23
3.27707e-23
1.34517e-22
6.06879e-23
3.82978e-22
1.53145e-22
5.13775e-22
2.30591e-22
5.02186e-22
2.0793e-22
2.75308e-22
1.29078e-22
1.12676e-22
4.72503e-23
1.06564e-22
2.20475e-23
1.82762e-22
2.35196e-23
1.71372e-21
1.20555e-22
3.9629e-19
2.32078e-20
2.46033e-17
1.17449e-18
6.52227e-16
2.37615e-17
8.4419e-18
6.41525e-16
7.53032e-26
6.87586e-25
3.07413e-25
1.20328e-24
1.30328e-25
5.76659e-25
8.78553e-26
2.79174e-25
4.17682e-26
1.0821e-25
3.08786e-26
3.84843e-26
7.21319e-26
6.0508e-26
9.30699e-25
5.27864e-25
3.42166e-24
1.9155e-24
7.92015e-24
4.17931e-24
1.6987e-23
7.52021e-24
4.58983e-23
1.79331e-23
6.09522e-23
2.6e-23
5.79864e-23
2.23475e-23
2.97453e-23
1.22648e-23
1.01806e-23
4.49331e-24
9.02518e-24
5.23502e-24
1.39462e-23
1.91275e-24
1.14567e-22
7.85832e-24
2.20225e-20
1.16128e-21
1.13164e-18
4.81621e-20
2.30717e-17
6.84242e-19
4.56759e-19
2.48937e-17
7.70089e-27
4.74881e-25
4.39718e-26
1.46963e-25
1.51658e-26
4.07355e-25
9.06164e-27
1.68579e-25
4.99689e-27
1.79098e-26
3.58103e-27
4.26737e-27
9.29987e-27
7.4575e-27
1.16203e-25
6.57501e-26
4.25676e-25
2.36783e-25
9.74061e-25
5.1063e-25
2.02139e-24
8.90166e-25
5.13927e-24
1.99768e-24
6.64705e-24
2.67014e-24
5.5978e-24
2.08831e-24
2.66925e-24
3.8455e-24
1.39367e-24
2.98445e-24
5.79426e-25
9.69434e-25
9.24135e-25
1.25654e-24
6.85886e-24
1.37678e-24
1.10599e-21
5.28954e-23
4.66282e-20
1.78197e-21
7.05024e-19
1.67902e-20
8.35384e-21
7.37895e-19
-1.64719e-27
-5.78108e-26
6.27324e-27
6.57956e-26
-2.19963e-28
-2.65878e-27
5.79436e-28
4.90899e-27
6.1764e-28
8.95068e-27
4.06688e-28
1.74537e-27
1.13965e-27
8.32412e-28
1.38776e-26
7.94097e-27
5.03552e-26
2.82553e-26
1.13345e-25
5.99622e-26
2.26421e-25
1.00273e-25
5.24131e-25
2.05085e-25
6.66609e-25
2.75359e-25
7.51908e-25
1.27079e-24
2.99461e-25
4.68887e-25
-1.04497e-24
-1.40201e-24
-1.26936e-24
-1.44393e-24
-4.82364e-25
-4.58279e-25
6.15531e-25
2.78883e-25
5.04519e-23
2.5049e-24
1.73243e-21
6.00542e-23
1.89357e-20
3.68134e-22
1.91728e-22
1.80879e-20
-2.35071e-27
-8.42254e-26
3.31776e-28
6.40476e-27
-2.44224e-27
-3.10889e-26
-1.33707e-27
-1.28723e-26
-2.26313e-28
-1.73102e-27
4.86239e-29
2.25786e-28
1.34276e-28
9.37778e-29
1.59417e-27
9.36422e-28
5.67064e-27
3.26494e-27
1.2448e-26
6.75515e-27
2.34163e-26
1.04085e-26
5.42578e-26
2.16087e-26
8.60262e-26
1.89465e-25
1.40694e-26
2.6886e-26
-3.97036e-25
-6.55116e-25
-8.57564e-25
-1.21276e-24
-8.56633e-25
-1.02723e-24
-4.83404e-25
-4.84035e-25
-9.83549e-26
-8.04089e-26
2.16783e-24
2.38714e-25
5.83987e-23
1.77004e-24
4.54558e-22
7.39747e-24
4.33408e-24
4.20485e-22
-1.2224e-27
-4.49788e-26
-2.56122e-28
-5.21368e-27
-1.17027e-27
-1.59049e-26
-6.84171e-28
-7.05487e-27
-1.82008e-28
-1.49216e-27
-2.07975e-29
-1.3994e-28
2.83671e-29
2.18383e-29
1.76709e-28
1.07839e-28
6.05809e-28
3.64811e-28
1.25615e-27
7.11523e-28
2.45746e-27
1.07599e-27
5.48246e-27
1.48866e-26
-3.07831e-28
-7.27506e-28
-8.00869e-26
-1.64328e-25
-2.54681e-25
-4.51603e-25
-3.91785e-25
-5.96028e-25
-3.63099e-25
-4.68897e-25
-2.207e-25
-2.38217e-25
-8.26758e-26
-7.29018e-26
1.20098e-25
3.59395e-26
1.78001e-24
4.67183e-26
9.83801e-24
1.59205e-25
8.84625e-26
9.19265e-24
-4.90108e-28
-1.87307e-26
-1.44668e-28
-3.14548e-27
-4.07332e-28
-6.01917e-27
-2.43104e-28
-2.73812e-27