/*--------------------------------*- C++ -*----------------------------------*\
| =========                 |                                                 |
| \\      /  F ield         | OpenFOAM: The Open Source CFD Toolbox           |
|  \\    /   O peration     | Version:  2206                                  |
|   \\  /    A nd           | Website:  www.openfoam.com                      |
|    \\/     M anipulation  |                                                 |
\*---------------------------------------------------------------------------*/
FoamFile
{
    version     2.0;
    format      ascii;
    arch        "LSB;label=32;scalar=64";
    class       volScalarField;
    location    "0.825";
    object      p;
}
// * * * * * * * * * * * * * * * * * * * * * * * * * * * * * * * * * * * * * //

dimensions      [1 -1 -2 0 0 0 0];

internalField   nonuniform List<scalar> 
2268
(
801.971
798.693
793.617
789.382
790.911
799.927
813.878
830.157
847.477
864.234
878.422
888.37
893.366
893.472
887.47
878.162
869.948
865.29
867.142
874.497
879.899
878.763
870.593
743.25
739.105
732.871
727.327
728.408
738.734
754.176
771.005
788.845
806.218
820.769
830.71
835.571
835.795
831.761
823.409
812.099
803.51
805.987
814.155
818.796
816.574
809.549
680.585
675.785
669.194
663.19
664.671
676.573
693.572
711.539
730.227
748.427
763.655
773.959
778.677
778.714
775.564
767.723
755.303
747.056
748.815
754.315
756.907
752.608
746.89
614.058
609.235
603.062
596.803
598.544
612.607
632.225
651.961
671.963
691.499
707.776
718.509
722.936
722.226
718.288
710.627
699.605
691.627
691.24
693.669
694.132
687.083
682.175
544.884
540.398
534.966
528.679
531.036
547.989
570.772
592.447
613.994
635.345
653.078
664.312
668.201
666.323
661.084
653.137
643.156
635.235
632.381
632.164
631.07
620.268
615.9
474.207
470.102
465.777
460.384
464.098
484.182
509.467
532.912
556.279
579.995
599.623
611.482
614.449
610.75
603.524
594.412
584.632
576.728
572.429
570.539
567.934
554.874
551.063
402.792
399.088
396.458
393.371
399.047
421.377
447.618
472.788
498.745
525.659
547.813
560.334
561.84
555.497
545.61
534.85
524.793
516.941
511.818
508.827
505.508
494.229
488.42
332.136
328.502
328.199
328.78
336.632
360.03
387.044
411.585
440.542
472.098
497.771
511.069
510.178
500.136
486.917
474.135
463.596
455.942
450.557
447.054
443.822
435.299
424.853
861.507
841.673
830.381
814.075
775.322
699.965
608.351
561.304
566.366
567.694
564.606
578.3
573.853
510.534
420.332
334.077
347.965
497.992
643.723
816.624
789.563
778.319
760.587
723.348
627.806
544.905
505.305
501.747
501.022
499.11
533.967
547.959
474.219
360.824
276.09
283.563
406.46
588.69
802.884
746.751
741.192
694.575
637.795
527.59
457.095
432.872
418.982
419.033
437.171
487.381
505.693
429.074
314.705
229.784
214.991
306.324
519.834
814.709
703.968
708.411
632.173
516.788
413.794
375.835
360.128
343.151
343.287
365.155
412.738
432.898
371.099
279.6
193.373
173.473
251.983
462.016
808.214
681.861
670.398
567.249
390.644
306.393
302.728
291.682
268.871
269.974
290.979
330.869
352.078
313.714
252.329
181.523
167.838
252.116
467.375
782.389
689.779
634.475
476.835
274.043
233.88
236.761
225.541
214.11
216.381
230.611
262.814
283.483
279.368
252.701
200.481
206.173
306.084
526.859
743.967
697.351
603.083
362.311
228.28
216.017
206.76
202.769
204.555
205.552
212.345
233.464
238.925
256.474
276.747
274.02
299.238
392.858
571.36
703.024
689.444
572.757
299.354
221.049
208.667
199.089
198.949
202.613
203.879
209.378
223.785
220.094
235.321
277.593
301.834
337.358
434.657
558.867
219.421
218.663
223.189
232.303
245.888
261.701
282.955
310.54
347.614
389.765
422.528
436.629
430.05
412.389
392.904
376.668
365.644
359.079
354.33
350.817
347.568
339.155
316.386
91.7237
89.9049
93.6105
98.4877
104.477
112.671
129.51
161.196
214.31
284.752
339.898
363.525
339.114
297.953
262.909
240.147
229.836
227.913
225.316
222.738
222.546
215.802
175.113
34.5169
28.7718
23.8322
20.3592
19.2261
21.7852
30.2695
51.3513
108.082
217.606
337.245
344.591
276.823
208.373
162.863
137.297
128.971
131.404
126.997
120.338
120.336
121.87
78.7257
29.2885
16.044
6.2272
1.85487
0.566165
1.22277
3.00435
7.22003
33.2481
86.6073
153.441
194.71
178.961
144.576
112.223
90.6138
81.5059
84.3041
79.3037
68.0769
58.4946
57.5417
44.3974
13.9515
5.77217
0.411706
-1.78693
-2.80189
-3.28698
-3.55849
-2.94648
0.624535
10.4211
20.3455
56.9748
84.2978
86.5902
77.1008
55.353
43.6112
49.1473
45.2344
32.2077
16.9758
0.473844
14.4109
3.12028
-0.377464
-2.40882
-3.40094
-3.87521
-4.10576
-4.10898
-3.77464
-3.22845
-2.52358
-0.649027
9.67287
19.7871
34.6221
33.1888
5.92195
8.97974
18.7892
13.4791
-2.07396
-22.7192
-29.6353
1.6417
-0.640428
-2.38321
-3.16215
-3.64036
-3.84308
-3.83494
-3.65073
-3.34664
-2.93918
-2.5281
-2.1364
-1.80648
-1.15468
2.83804
1.31864
0.0645038
0.745125
0.126435
1.37839
-2.97341
-18.3285
-9.4945
24.1362
-1.24838
-2.5368
-3.07147
-3.42887
-3.56884
-3.53979
-3.37903
-3.10695
-2.74707
-2.36444
-2.04641
-1.78116
-1.50497
-1.24719
-1.0673
-0.646412
-0.602821
-0.868097
-1.98333
-6.96627
-12.0306
-0.89077
26.3664
-1.33933
-2.35453
-2.86762
-3.17032
-3.27792
-3.24637
-3.11262
-2.90101
-2.641
-2.36474
-2.09199
-1.82036
-1.57207
-1.37876
-1.17535
-0.971222
-0.963039
-1.1442
-1.56129
-2.33326
-1.39648
8.4644
26.1339
-1.50622
-2.26095
-2.7705
-3.02138
-3.08325
-3.03231
-2.91347
-2.75035
-2.55545
-2.34295
-2.12957
-1.92874
-1.74561
-1.53806
-1.36161
-1.24323
-1.24745
-1.39176
-1.48391
-0.557295
2.54839
9.08542
26.942
-1.68054
-2.15797
-2.65183
-2.90004
-2.94068
-2.87133
-2.7609
-2.63539
-2.49485
-2.34144
-2.18378
-2.02875
-1.87612
-1.72905
-1.605
-1.52743
-1.56381
-1.72365
-1.84149
-1.22982
1.30424
9.39198
18.1184
-1.85696
-2.05436
-2.4159
-2.66826
-2.73876
-2.69828
-2.62378
-2.54414
-2.4554
-2.35509
-2.24775
-2.13857
-2.03289
-1.93979
-1.87444
-1.85886
-1.9464
-2.20145
-2.45221
-2.16797
-0.566986
5.35128
12.3781
-2.04269
-2.04443
-2.18363
-2.38074
-2.49744
-2.52454
-2.51179
-2.48474
-2.44322
-2.38772
-2.32349
-2.2566
-2.19434
-2.14585
-2.12548
-2.15199
-2.255
-2.46278
-2.66825
-2.64256
-1.92439
1.32528
5.41023
-2.18411
-2.10195
-2.08921
-2.21187
-2.34194
-2.41907
-2.45719
-2.47148
-2.46544
-2.44357
-2.41236
-2.37817
-2.34822
-2.32982
-2.33678
-2.37858
-2.46442
-2.59653
-2.72805
-2.82181
-2.87503
-1.92779
0.705752
-2.26523
-2.17917
-2.13787
-2.21331
-2.32348
-2.41122
-2.4704
-2.50589
-2.52113
-2.52141
-2.51292
-2.50131
-2.49264
-2.49421
-2.51415
-2.55802
-2.62654
-2.71955
-2.83449
-2.9531
-3.00607
-2.84243
-1.96712
-2.34073
-2.28902
-2.26896
-2.3194
-2.40103
-2.47668
-2.53569
-2.57726
-2.60288
-2.6164
-2.62261
-2.6261
-2.63167
-2.64498
-2.67142
-2.71422
-2.77394
-2.85024
-2.9502
-3.05404
-3.06197
-2.87223
-2.37667
-2.45324
-2.43116
-2.42768
-2.46407
-2.52244
-2.58139
-2.63249
-2.67294
-2.70254
-2.72347
-2.73898
-2.75246
-2.76754
-2.78819
-2.81807
-2.85957
-2.91291
-2.97625
-3.05442
-3.11635
-3.10324
-2.91927
-2.74517
-2.58998
-2.58597
-2.58859
-2.61652
-2.65881
-2.70404
-2.74664
-2.78355
-2.81389
-2.83866
-2.85985
-2.87983
-2.90115
-2.92652
-2.95823
-2.99763
-3.04453
-3.09508
-3.15262
-3.20193
-3.19509
-3.07342
-3.07855
-2.736
-2.73648
-2.74377
-2.76677
-2.79875
-2.83437
-2.86996
-2.90301
-2.93255
-2.95894
-2.98334
-3.00729
-3.03252
-3.06077
-3.09339
-3.13074
-3.17236
-3.21421
-3.25308
-3.30099
-3.28565
-3.27197
-3.42902
-2.88252
-2.88344
-2.89341
-2.91297
-2.93847
-2.96754
-2.99775
-3.02731
-3.05539
-3.08206
-3.10798
-3.13413
-3.16164
-3.19163
-3.22492
-3.26152
-3.30092
-3.34111
-3.37446
-3.4127
-3.38825
-3.41443
-3.64311
-3.02722
-3.02816
-3.03871
-3.05549
-3.07668
-3.10113
-3.12725
-3.15382
-3.18021
-3.20638
-3.23274
-3.25993
-3.28873
-3.31993
-3.35421
-3.39179
-3.43236
-3.47551
-3.51331
-3.55465
-3.548
-3.59495
-3.7519
-3.16921
-3.17037
-3.18035
-3.19481
-3.21288
-3.2339
-3.25684
-3.28087
-3.30553
-3.33079
-3.35692
-3.3844
-3.41385
-3.44598
-3.48155
-3.5213
-3.56564
-3.61557
-3.66819
-3.73242
-3.79114
-3.85478
-4.03024
-3.30831
-3.30977
-3.31873
-3.33126
-3.3469
-3.36524
-3.38561
-3.40743
-3.4304
-3.4545
-3.47996
-3.50719
-3.53676
-3.56945
-3.60622
-3.6484
-3.69772
-3.75685
-3.82974
-3.92819
-4.06233
-4.27644
-4.74414
-3.44467
-3.44632
-3.45419
-3.46508
-3.47874
-3.4949
-3.5131
-3.53295
-3.55424
-3.577
-3.60143
-3.62794
-3.65708
-3.68969
-3.72701
-3.7709
-3.82436
-3.89202
-3.98335
-4.12229
-4.33494
-4.79749
-5.55919
-3.57848
-3.58019
-3.58703
-3.59653
-3.60852
-3.62282
-3.63911
-3.65713
-3.67674
-3.69799
-3.72108
-3.74639
-3.77446
-3.80615
-3.8428
-3.88656
-3.941
-4.01207
-4.11057
-4.2679
-4.51626
-5.00628
-5.5281
-3.70998
-3.71162
-3.71756
-3.72585
-3.73639
-3.74905
-3.76361
-3.77988
-3.79777
-3.81736
-3.83882
-3.86247
-3.8888
-3.91859
-3.95305
-3.99415
-4.04501
-4.11077
-4.19946
-4.33135
-4.52709
-4.87071
-5.18176
-3.8394
-3.84092
-3.84607
-3.85332
-3.86257
-3.87375
-3.88669
-3.90126
-3.91741
-3.93519
-3.95476
-3.97635
-4.00036
-4.02737
-4.05829
-4.09452
-4.1381
-4.19179
-4.25966
-4.34774
-4.45904
-4.62576
-4.78829
-3.96703
-3.96838
-3.97284
-3.97917
-3.98726
-3.99708
-4.00851
-4.02144
-4.03583
-4.05171
-4.0692
-4.08846
-4.10975
-4.13343
-4.16008
-4.19046
-4.2256
-4.26642
-4.31446
-4.37027
-4.43235
-4.50662
-4.58124
-4.09312
-4.09428
-4.09814
-4.10365
-4.11068
-4.11926
-4.12927
-4.14061
-4.15325
-4.16721
-4.18254
-4.19935
-4.21777
-4.23798
-4.26028
-4.28502
-4.31262
-4.34331
-4.37758
-4.41518
-4.45526
-4.49655
-4.53271
-4.2179
-4.21887
-4.22221
-4.22697
-4.23305
-4.24048
-4.24915
-4.25899
-4.26995
-4.28202
-4.29522
-4.3096
-4.32519
-4.34208
-4.36036
-4.38017
-4.40164
-4.42477
-4.44965
-4.47588
-4.50279
-4.52856
-4.54844
-4.34158
-4.34237
-4.34524
-4.34933
-4.35454
-4.36091
-4.36835
-4.37678
-4.38615
-4.39643
-4.4076
-4.41967
-4.43263
-4.44647
-4.46119
-4.4768
-4.49327
-4.5105
-4.52835
-4.54636
-4.56387
-4.57975
-4.59153
-4.46434
-4.46499
-4.46743
-4.47091
-4.47533
-4.48074
-4.48705
-4.49418
-4.50207
-4.51069
-4.51999
-4.52995
-4.54052
-4.55164
-4.56327
-4.57534
-4.58775
-4.60033
-4.6129
-4.6251
-4.63648
-4.6465
-4.65403
-4.58635
-4.58687
-4.58892
-4.59186
-4.59557
-4.60011
-4.60539
-4.61133
-4.61789
-4.625
-4.63262
-4.64068
-4.64914
-4.65791
-4.66691
-4.67605
-4.68521
-4.69425
-4.703
-4.71124
-4.71872
-4.72517
-4.73003
-4.70775
-4.70817
-4.70987
-4.71233
-4.7154
-4.71915
-4.7235
-4.72838
-4.73374
-4.73951
-4.74563
-4.75204
-4.75866
-4.76543
-4.77224
-4.77901
-4.78563
-4.79198
-4.79795
-4.80341
-4.80822
-4.81226
-4.81532
-4.82868
-4.82899
-4.83039
-4.83242
-4.83492
-4.83797
-4.84149
-4.84543
-4.84973
-4.85431
-4.85913
-4.86411
-4.86918
-4.87427
-4.87929
-4.88416
-4.88878
-4.89308
-4.89698
-4.90042
-4.90333
-4.90573
-4.90757
-4.94924
-4.94945
-4.95059
-4.95224
-4.95423
-4.95666
-4.95945
-4.96256
-4.96592
-4.96948
-4.97317
-4.97694
-4.98071
-4.98441
-4.98798
-4.99133
-4.99441
-4.99715
-4.9995
-5.00146
-5.00302
-5.00425
-5.00518
-5.06954
-5.06964
-5.07055
-5.07187
-5.0734
-5.07529
-5.07745
-5.07983
-5.08238
-5.08506
-5.0878
-5.09054
-5.09324
-5.09582
-5.09822
-5.10039
-5.10227
-5.10383
-5.10504
-5.10593
-5.10652
-5.10691
-5.10718
-5.18965
-5.18962
-5.19035
-5.19137
-5.19252
-5.19394
-5.19553
-5.19729
-5.19916
-5.20108
-5.20303
-5.20493
-5.20676
-5.20844
-5.20994
-5.2112
-5.21219
-5.21289
-5.21329
-5.21342
-5.21334
-5.21317
-5.21304
-5.30962
-5.30946
-5.31004
-5.31081
-5.31161
-5.31263
-5.31375
-5.31497
-5.31625
-5.31756
-5.31885
-5.32009
-5.32122
-5.32222
-5.32304
-5.32364
-5.32401
-5.32413
-5.324
-5.32367
-5.3232
-5.32272
-5.32239
-5.42954
-5.42925
-5.42971
-5.43024
-5.43075
-5.43142
-5.43213
-5.43291
-5.43372
-5.43452
-5.43529
-5.436
-5.43662
-5.43712
-5.43746
-5.43764
-5.43762
-5.43742
-5.43703
-5.43649
-5.43587
-5.43529
-5.43492
-5.54931
-5.54896
-5.54935
-5.54964
-5.54991
-5.55028
-5.55065
-5.55106
-5.55147
-5.55187
-5.55224
-5.55257
-5.55283
-5.553
-5.55306
-5.55302
-5.55285
-5.55255
-5.55214
-5.55163
-5.55107
-5.55056
-5.55022
-5.66951
-5.66911
-5.66926
-5.66934
-5.66942
-5.66954
-5.66964
-5.66975
-5.66984
-5.66993
-5.67
-5.67004
-5.67005
-5.67002
-5.66995
-5.66983
-5.66966
-5.66944
-5.66918
-5.66889
-5.66859
-5.66833
-5.66818
259.203
153.325
196.869
254.936
54.2782
-124.999
-25.6944
258.327
-62.9093
-228.783
-80.1335
171.879
-30.7167
-94.9558
-5.25004
71.0815
42.6979
15.167
6.81808
31.9878
30.5307
10.1337
0.747744
14.915
32.0653
8.4902
-2.67832
7.35184
38.1237
14.4581
2.65847
9.35566
40.1669
12.5579
7.91452
9.42825
35.0097
22.1523
8.03017
3.17321
17.972
10.2068
6.14477
1.36456
14.0989
9.28114
4.55775
-1.26591
8.16929
6.40248
1.33087
-6.4414
4.21826
4.25919
0.178188
-3.52563
1.198
2.60334
-0.161517
-2.79775
-1.60006
-1.48124
-3.47533
-3.16999
-2.57831
-3.25442
-3.78521
-3.45126
-3.06958
-3.86611
-3.67589
-3.50017
-3.5246
-4.07473
-3.53352
-3.44194
-3.54928
-3.71088
-3.55605
-3.4501
-3.47141
-3.81058
-3.68072
-3.48382
-3.75597
-3.9122
-3.83242
-3.61213
-4.24993
-4.13807
-4.04592
-3.81882
-5.02708
-4.45001
-4.26652
-4.0062
-5.36176
-4.70657
-4.39816
-4.14059
-5.17849
-4.76241
-4.42974
-4.21418
-4.83883
-4.65086
-4.42071
-4.27132
-4.62074
-4.55835
-4.43401
-4.33756
-4.55931
-4.53354
-4.46956
-4.40885
-4.56244
-4.5519
-4.51967
-4.48277
-4.60007
-4.59716
-4.58133
-4.55962
-4.66002
-4.66001
-4.65248
-4.64026
-4.73407
-4.7351
-4.73191
-4.72543
-4.81798
-4.81931
-4.8183
-4.8152
-4.90939
-4.91047
-4.91057
-4.9096
-5.00618
-5.00717
-5.00804
-5.00878
-5.10764
-5.10869
-5.11036
-5.1128
-5.21324
-5.21453
-5.21713
-5.22129
-5.32254
-5.32419
-5.32776
-5.33351
-5.43509
-5.43708
-5.44157
-5.44879
-5.55038
-5.55256
-5.55803
-5.56679
-5.66824
-5.67059
-5.67712
-5.68744
595.146
627.17
510.51
289.891
221.656
197.157
193.248
195.071
198.281
198.932
203.357
208.143
213.503
234.704
258.159
261.801
308.435
384.917
472.76
424.178
414.428
353.8
255.684
202.684
173.429
181.098
188.199
191.879
193.638
196.474
192.401
204.323
222.045
223.385
260.839
331.612
389.116
422.768
234.492
240.061
215.096
179.438
150.296
129.325
133.842
154.063
173.993
175.226
157.819
162.606
189.855
201.261
204.001
225.303
293.2
369.528
399.984
110.739
135.615
119.651
84.9974
71.0665
63.2984
54.0987
51.6446
65.8338
75.9046
86.3525
114.957
150.951
145.405
129.452
132.283
172.119
236.485
268.374
57.2555
74.4597
62.9784
37.9424
21.9606
19.3161
24.9582
23.1044
25.5018
42.5572
61.5598
81.0308
93.8929
73.6387
67.3128
64.3889
57.7291
103.951
151.641
33.0666
41.0762
29.4231
23.7541
13.1467
8.72679
10.333
16.6508
35.3879
53.1754
60.5312
59.8369
61.6195
58.2705
36.2394
17.4227
23.364
36.2022
79.3536
21.2698
28.219
31.5693
11.8614
9.84243
7.48209
4.95108
4.67535
13.5371
24.4935
28.7626
27.0462
19.897
14.0917
8.3209
7.60184
9.31672
16.3831
35.5495
28.4994
36.5179
24.4473
7.81522
7.08913
5.21418
4.09106
3.22192
3.53835
8.70269
9.53779
4.96492
2.72458
2.42332
3.27625
3.20477
2.64438
5.11786
15.209
6.11807
1.96404
8.38833
5.07973
3.15165
2.85167
2.54857
2.03364
1.53173
0.988336
0.39424
0.0578178
0.882149
2.35933
2.80273
2.18107
1.06206
0.889767
5.62527
-3.90729
-8.15892
-5.714
-3.8296
0.250491
1.20442
1.38216
1.14259
0.829553
0.391472
-0.0481661
-0.141898
0.481181
1.84829
2.46149
1.48332
0.800187
-0.50761
2.60453
-5.86167
-5.81599
-10.2441
-14.8245
0.149519
0.343572
0.450206
0.314818
0.107389
-0.2526
-0.742197
-1.05503
-1.00855
-0.14262
0.644206
0.421812
0.433166
-0.551832
0.896307
-6.4145
-7.38082
-7.81994
-8.15751
-0.460481
-0.431662
-0.255003
-0.329774
-0.497415
-0.82985
-1.34467
-1.92788
-2.28938
-1.8652
-0.982948
-0.456188
-0.170461
-0.624882
0.0804002
-6.84794
-7.99362
-10.1915
-14.0325
-3.55419
-1.34751
-0.91496
-0.85124
-0.942198
-1.19942
-1.62988
-2.14113
-2.43972
-2.38393
-1.86627
-1.2559
-1.00093
-1.01381
-0.765255
-5.41318
-7.02868
-9.45197
-10.4467
-5.2763
-2.06187
-1.56634
-1.28113
-1.26248
-1.39871
-1.66365
-1.97791
-2.2196
-2.29524
-2.0692
-1.77694
-1.60519
-1.47422
-1.30713
-4.12789
-5.26017
-6.49442
-6.61907
-4.64642
-2.78355
-2.16022
-1.72245
-1.59481
-1.62453
-1.75568
-1.94511
-2.12243
-2.22252
-2.17903
-2.04542
-1.92544
-1.86538
-1.64906
-3.83247
-4.61333
-5.28998
-5.27622
-4.53108
-3.57981
-2.87457
-2.33642
-2.07425
-2.00842
-2.04349
-2.14033
-2.22714
-2.28387
-2.28801
-2.22573
-2.1567
-2.16621
-1.93498
-3.90954
-4.55959
-5.18012
-5.38501
-5.08555
-4.47863
-3.70697
-3.01901
-2.60718
-2.43747
-2.39446
-2.40447
-2.42087
-2.43106
-2.42336
-2.40627
-2.37227
-2.39355
-2.16146
-3.99925
-4.6521
-5.28805
-5.66437
-5.58842
-5.11579
-4.33461
-3.55364
-3.04721
-2.80952
-2.71926
-2.66946
-2.6355
-2.61224
-2.58987
-2.58346
-2.5636
-2.56732
-2.30195
-3.82612
-4.49246
-5.14743
-5.57875
-5.64022
-5.26293
-4.53494
-3.79384
-3.31535
-3.08017
-2.97625
-2.89981
-2.83704
-2.79236
-2.75469
-2.75312
-2.75069
-2.74068
-2.59833
-3.54189
-3.91963
-4.59317
-5.02352
-5.11299
-4.83256
-4.28919
-3.77785
-3.43942
-3.26015
-3.16635
-3.08705
-3.01437
-2.95934
-2.91688
-2.91678
-2.92615
-2.93129
-2.97604
-3.40592
-3.45571
-3.70598
-3.95965
-4.05825
-4.07418
-3.91736
-3.69496
-3.51115
-3.39407
-3.31801
-3.24409
-3.17373
-3.11807
-3.07912
-3.07311
-3.07814
-3.08284
-3.13308
-3.47002
-3.46161
-3.56106
-3.68376
-3.78848
-3.84752
-3.81118
-3.70875
-3.60019
-3.51655
-3.45154
-3.38288
-3.31837
-3.27045
-3.23909
-3.22532
-3.22359
-3.22218
-3.25286
-3.65855
-3.61989
-3.66575
-3.74268
-3.81099
-3.8444
-3.82394
-3.76201
-3.69151
-3.63002
-3.57446
-3.51168
-3.45386
-3.41743
-3.40252
-3.38221
-3.37267
-3.3689
-3.38583
-3.84212
-3.78832
-3.79903
-3.83518
-3.8678
-3.88073
-3.86714
-3.83133
-3.78556
-3.73981
-3.69245
-3.63681
-3.58653
-3.56372
-3.5635
-3.54895
-3.52755
-3.52518
-3.53058
-3.99942
-3.94376
-3.93217
-3.94063
-3.95081
-3.9525
-3.94044
-3.91536
-3.88276
-3.84797
-3.80806
-3.76133
-3.72
-3.71211
-3.7182
-3.72289
-3.6887
-3.68499
-3.68035
-4.11526
-4.071
-4.05051
-4.04405
-4.04173
-4.03655
-4.02462
-4.00566
-3.98162
-3.95491
-3.92173
-3.88386
-3.85352
-3.85865
-3.87694
-3.88714
-3.85367
-3.83599
-3.82444
-4.209
-4.17819
-4.15712
-4.14443
-4.13612
-4.12753
-4.11576
-4.10039
-4.0818
-4.06058
-4.03249
-3.99953
-3.97986
-3.99372
-4.01956
-4.02768
-3.99638
-3.97008
-3.95544
-4.2957
-4.27359
-4.25523
-4.24139
-4.23095
-4.22119
-4.21012
-4.19734
-4.18266
-4.16535
-4.14093
-4.10935
-4.0959
-4.11459
-4.14792
-4.15308
-4.13465
-4.0974
-4.07435
-4.37905
-4.36264
-4.34807
-4.33567
-4.3254
-4.31593
-4.30611
-4.29564
-4.28421
-4.27038
-4.24986
-4.2211
-4.21156
-4.23536
-4.2725
-4.29717
-4.28056
-4.20734
-4.1697
-4.46169
-4.4495
-4.43846
-4.42834
-4.41937
-4.41108
-4.40301
-4.39511
-4.38716
-4.37735
-4.36213
-4.3391
-4.32918
-4.35294
-4.39024
-4.42626
-4.3806
-4.27744
-4.2262
-4.54524
-4.53644
-4.52831
-4.52052
-4.51331
-4.50675
-4.501
-4.4964
-4.4929
-4.48866
-4.48016
-4.46398
-4.44998
-4.45786
-4.47149
-4.47494
-4.4145
-4.30284
-4.24367
-4.63097
-4.62484
-4.619
-4.61326
-4.60791
-4.6035
-4.6008
-4.60059
-4.60304
-4.60639
-4.6063
-4.59732
-4.58094
-4.5625
-4.52876
-4.4873
-4.41601
-4.30505
-4.24401
-4.71969
-4.71556
-4.71152
-4.70755
-4.70408
-4.70223
-4.70326
-4.70832
-4.71846
-4.73213
-4.74393
-4.74172
-4.72086
-4.68339
-4.61552
-4.55197
-4.45237
-4.3197
-4.25537
-4.81192
-4.80936
-4.80687
-4.80453
-4.80301
-4.80408
-4.80912
-4.81971
-4.8391
-4.86718
-4.89605
-4.90513
-4.87881
-4.82376
-4.74314
-4.64354
-4.50641
-4.36564
-4.30484
-4.90825
-4.90715
-4.90624
-4.90559
-4.90623
-4.91035
-4.91906
-4.93502
-4.9646
-5.01026
-5.06045
-5.0873
-5.05976
-4.98208
-4.87452
-4.71772
-4.56372
-4.4582
-4.41664
-5.00932
-5.00984
-5.01071
-5.01195
-5.01485
-5.02146
-5.03263
-5.05229
-5.08975
-5.14967
-5.21885
-5.26287
-5.23734
-5.13504
-4.98476
-4.82201
-4.69171
-4.619
-4.59271
-5.11535
-5.11768
-5.12046
-5.12368
-5.12855
-5.13649
-5.14813
-5.16731
-5.20317
-5.26312
-5.33671
-5.38663
-5.36446
-5.255
-5.09988
-4.96536
-4.87032
-4.81843
-4.79746
-5.22582
-5.22987
-5.23444
-5.23948
-5.24581
-5.25413
-5.26459
-5.27909
-5.30363
-5.34913
-5.40381
-5.44195
-5.4242
-5.34178
-5.20839
-5.11652
-5.0521
-5.01546
-4.99922
-5.33978
-5.34531
-5.35139
-5.35795
-5.36538
-5.37387
-5.38312
-5.39335
-5.40719
-5.42875
-5.45362
-5.46648
-5.44847
-5.39572
-5.32401
-5.26491
-5.22455
-5.19899
-5.18694
-5.45662
-5.46347
-5.47092
-5.47885
-5.48731
-5.49621
-5.50501
-5.51307
-5.52047
-5.5275
-5.53133
-5.5265
-5.50866
-5.47861
-5.4427
-5.40995
-5.38438
-5.36751
-5.35912
-5.5762
-5.58441
-5.59336
-5.60283
-5.61266
-5.62248
-5.6315
-5.63861
-5.6428
-5.64301
-5.63752
-5.62582
-5.60942
-5.59014
-5.5697
-5.55092
-5.53581
-5.52616
-5.52098
-5.69854
-5.7083
-5.71903
-5.73058
-5.74267
-5.75462
-5.76514
-5.77262
-5.77542
-5.77158
-5.76022
-5.74276
-5.72416
-5.7086
-5.69702
-5.68904
-5.68412
-5.68134
-5.67974
)
;

boundaryField
{
    leftWall
    {
        type            calculated;
        value           nonuniform List<scalar> 
50
(
801.971
743.25
680.585
614.058
544.884
474.207
402.792
332.136
219.421
91.7237
34.5169
29.2885
13.9515
3.12028
-0.640428
-1.24838
-1.33933
-1.50622
-1.68054
-1.85696
-2.04269
-2.18411
-2.26523
-2.34073
-2.45324
-2.58998
-2.736
-2.88252
-3.02722
-3.16921
-3.30831
-3.44467
-3.57848
-3.70998
-3.8394
-3.96703
-4.09312
-4.2179
-4.34158
-4.46434
-4.58635
-4.70775
-4.82868
-4.94924
-5.06954
-5.18965
-5.30962
-5.42954
-5.54931
-5.66951
)
;
    }
    rightWall
    {
        type            calculated;
        value           nonuniform List<scalar> 
50
(
643.723
588.69
519.834
462.016
467.375
526.859
571.36
558.867
472.76
422.768
399.984
268.374
151.641
79.3536
35.5495
15.209
5.62527
2.60453
0.896307
0.0804002
-0.765255
-1.30713
-1.64906
-1.93498
-2.16146
-2.30195
-2.59833
-2.97604
-3.13308
-3.25286
-3.38583
-3.53058
-3.68035
-3.82444
-3.95544
-4.07435
-4.1697
-4.2262
-4.24367
-4.24401
-4.25537
-4.30484
-4.41664
-4.59271
-4.79746
-4.99922
-5.18694
-5.35912
-5.52098
-5.67974
)
;
    }
    lowerWall
    {
        type            calculated;
        value           nonuniform List<scalar> 
62
(
831.4
828.122
823.046
818.812
820.34
829.357
843.307
859.586
876.906
893.663
907.851
917.799
922.796
922.9
916.631
906.417
898.524
894.615
896.445
903.653
909.076
908.106
900.016
870.593
809.549
746.89
682.175
615.9
551.063
488.42
424.853
321.798
215.919
259.463
311.555
861.507
816.624
802.884
814.709
808.214
782.389
743.967
703.024
878.567
857.034
848.966
832.417
790.166
715.255
623.914
581.742
592.625
593.968
590.88
604.574
600.126
536.805
446.594
359.818
368.446
516.383
661.712
)
;
    }
    atmosphere
    {
        type            calculated;
        value           nonuniform List<scalar> 
46
(
-5.72904
-5.72904
-5.72904
-5.72904
-5.72904
-5.72904
-5.72904
-5.72904
-5.72904
-5.72904
-5.72904
-5.72904
-5.72904
-5.72904
-5.72904
-5.72904
-5.72904
-5.72904
-5.72904
-5.72904
-5.72904
-5.72904
-5.72904
-5.72904
-5.73127
-5.73804
-5.74902
-5.76097
-5.7716
-5.7834
-5.79636
-5.81027
-5.82426
-5.83666
-5.8455
-5.84864
-5.8432
-5.82822
-5.80482
-5.78059
-5.76508
-5.75865
-5.75737
-5.75855
-5.76051
-5.76097
)
;
    }
    defaultFaces
    {
        type            empty;
    }
}


// ************************************************************************* //
