/*--------------------------------*- C++ -*----------------------------------*\
| =========                 |                                                 |
| \\      /  F ield         | OpenFOAM: The Open Source CFD Toolbox           |
|  \\    /   O peration     | Version:  2206                                  |
|   \\  /    A nd           | Website:  www.openfoam.com                      |
|    \\/     M anipulation  |                                                 |
\*---------------------------------------------------------------------------*/
FoamFile
{
    version     2.0;
    format      ascii;
    arch        "LSB;label=32;scalar=64";
    class       volScalarField;
    location    "0.825";
    object      p_rgh;
}
// * * * * * * * * * * * * * * * * * * * * * * * * * * * * * * * * * * * * * //

dimensions      [1 -1 -2 0 0 0 0];

internalField   nonuniform List<scalar> 
2268
(
831.4
828.122
823.046
818.812
820.34
829.357
843.307
859.586
876.906
893.663
907.851
917.799
922.796
922.9
916.631
906.417
898.524
894.615
896.445
903.653
909.076
908.106
900.016
831.538
827.393
821.159
815.615
816.697
827.022
842.464
859.293
877.133
894.506
909.057
918.998
923.858
924.064
917.358
906.846
895.504
888.093
891.155
898.78
903.538
904.835
897.82
827.731
822.932
816.341
810.337
811.818
823.719
840.719
858.686
877.374
895.574
910.802
921.106
925.824
925.859
921.527
908.169
894.336
886.064
888.442
896.88
902.959
899.754
894.008
820.063
815.24
809.067
802.808
804.549
818.612
838.231
857.966
877.969
897.504
913.782
924.515
928.941
928.232
924.268
915.973
903.595
896.267
897.246
899.675
900.137
893.089
888.158
809.748
805.263
799.83
793.543
795.901
812.853
835.636
857.311
878.858
900.209
917.942
929.176
933.065
931.187
925.948
918.001
908.02
900.099
897.246
897.028
895.935
885.132
880.764
797.93
793.825
789.5
784.107
787.821
807.905
833.19
856.635
880.002
903.718
923.346
935.205
938.172
934.473
927.246
918.135
908.355
900.451
896.152
894.262
891.657
878.595
874.78
785.374
781.67
779.039
775.953
781.629
803.949
830.162
855.37
881.327
908.24
930.395
942.916
944.422
938.079
928.192
917.432
907.375
899.523
894.4
891.408
888.089
876.807
870.992
773.576
769.943
769.64
770.22
778.072
801.445
827.605
853.026
881.982
913.538
939.211
952.51
951.619
941.576
928.357
915.575
905.035
897.382
891.997
888.494
885.262
876.735
866.283
878.567
857.034
848.966
832.417
790.166
715.255
623.914
581.742
592.625
593.968
590.88
604.574
600.126
536.805
446.594
359.818
368.446
516.383
661.712
868.49
835.654
833.998
803.401
766.474
681.82
594.557
558.299
579.178
579.799
569.338
597.643
626.772
552.119
404.122
300.26
307.693
430.813
613.607
889.33
830.238
810.639
765.132
739.626
641.193
571.017
548.421
535.934
525.409
536.742
586.952
636.224
531.865
354.612
269.503
254.825
346.54
611.253
935.533
823.131
789.961
733.382
673.888
572.639
535.18
521.585
505.846
504.777
506.69
552.137
609.044
516.19
335.207
248.98
229.079
307.899
605.237
963.153
825.324
774.949
751.319
586.852
495.298
498.699
486.858
463.103
462.042
469.112
531.915
574.087
528.798
380.474
253.017
239.54
355.033
654.722
970.722
827.534
765.908
695.62
419.718
314.671
418.397
390.583
307.31
329.36
383.689
465.415
549.236
540.778
510.921
433.593
343.209
504.736
758.256
962.338
863.616
841.422
617.396
248.094
228.789
244.271
227.337
211.258
212.62
228.337
282.598
422.581
561.642
574.765
566.667
552.228
666.463
844.968
952.347
881.621
838.356
537.733
235.787
221.427
208.403
206.622
210.175
211.459
217.132
237.776
238.728
368.733
450.35
510.904
652.253
750.641
874.668
752.117
752.13
756.656
765.77
769.057
794.679
816.422
844.007
881.081
923.232
955.994
970.094
963.51
945.844
926.356
910.118
899.094
892.532
887.785
884.275
881.026
872.614
849.841
544.332
550.627
563.138
566.805
607.301
675.904
728.013
782.088
857.343
939.178
994.966
1014.95
991.452
948.976
908.276
882.305
873.097
877.124
879.023
879.779
881.101
874.409
833.755
129.387
92.308
115.403
141.633
167.938
194.06
240.872
337.752
489.166
663.53
817.384
853.431
760.225
617.628
515.139
473.94
478.687
519.685
544.586
586.11
714.33
862.462
862.484
36.8849
20.0501
9.1679
4.67496
5.21148
25.8522
62.1504
95.6413
157.084
357.075
663.69
709.657
395.515
282.394
239.543
215.686
209.423
223.774
225.899
225.404
228.904
688.711
932.318
18.6891
8.29352
2.1041
-0.362937
1.47355
5.46934
3.03491
1.0877
47.2994
247.115
406.767
491.469
492.391
351.695
225.646
152.09
121.633
330.676
488.635
384.5
287.803
591.418
964.379
6.00381
1.61262
-0.988485
-2.14337
-2.66639
-2.92899
-2.94862
-2.61563
-2.06671
-1.3379
9.19143
206.226
333.412
366.579
339.082
67.3923
43.687
408.118
703.149
727.761
712.116
728.627
759.344
1.42252
-0.731081
-1.75174
-2.32476
-2.55024
-2.5487
-2.36537
-2.06181
-1.65433
-1.24352
-0.851873
-0.520946
0.133159
80.4873
56.8486
1.55191
2.92357
5.22872
138.12
656.24
790.312
804.687
423.3
0.619319
-0.939906
-1.61715
-2.00655
-2.15646
-2.12951
-1.96898
-1.69691
-1.33708
-0.954543
-0.636361
-0.370929
-0.0935041
0.167239
0.353973
0.810613
1.02953
1.52236
3.61441
13.7278
424.929
844.779
760.761
0.47572
-0.692648
-1.31912
-1.63277
-1.74229
-1.71123
-1.57756
-1.36596
-1.10594
-0.829647
-0.556812
-0.279685
-0.0117173
0.15842
0.365581
0.592887
0.708017
0.956378
2.12551
7.45679
98.809
546.098
806.81
0.322531
-0.35327
-1.08824
-1.36041
-1.42292
-1.37205
-1.25324
-1.09013
-0.895225
-0.682726
-0.469223
-0.268112
-0.0827697
0.122497
0.300403
0.433967
0.525828
0.798562
6.85718
25.4576
34.2641
93.4295
369.057
0.16555
-0.16854
-0.827147
-1.11384
-1.15516
-1.0859
-0.975484
-0.849981
-0.709436
-0.556027
-0.398235
-0.243288
-0.0907028
0.056419
0.180772
0.26343
0.274105
0.392341
4.96063
10.9337
31.6268
51.4397
63.223
0.0712077
-0.113182
-0.432161
-0.74818
-0.827905
-0.787638
-0.713168
-0.633533
-0.544795
-0.444477
-0.336999
-0.227921
-0.12228
-0.0291746
0.0362295
0.0528584
-0.0216306
-0.169552
-0.0739457
3.20403
72.8551
129.253
96.5367
-0.00267236
0.00123198
-0.1136
-0.330038
-0.461298
-0.488694
-0.475979
-0.448934
-0.407421
-0.351911
-0.287631
-0.220781
-0.158538
-0.110046
-0.0896717
-0.115987
-0.216632
-0.405622
-0.497586
0.383057
60.173
139.349
143.826
-0.0221866
0.0621644
0.0742793
-0.0440422
-0.179401
-0.25804
-0.296186
-0.310481
-0.304444
-0.282566
-0.251362
-0.217166
-0.187222
-0.168824
-0.175776
-0.217544
-0.302927
-0.430698
-0.53504
-0.491187
0.263319
52.5608
144.484
0.0211577
0.107885
0.149005
0.0732032
-0.0368156
-0.124969
-0.184211
-0.219704
-0.234936
-0.235217
-0.226725
-0.215114
-0.20645
-0.208017
-0.227955
-0.271822
-0.340255
-0.43266
-0.542959
-0.259231
1.43736
1.95162
4.3873
0.0707037
0.122572
0.142585
0.0920657
0.0103814
-0.0652826
-0.1243
-0.165878
-0.191494
-0.205013
-0.211224
-0.214712
-0.22028
-0.233593
-0.260033
-0.302827
-0.362535
-0.438707
-0.531211
0.661553
1.85488
2.1567
3.38764
0.0833515
0.105466
0.108937
0.072526
0.0141497
-0.0448112
-0.0959096
-0.136356
-0.165962
-0.186894
-0.202393
-0.215879
-0.230951
-0.251605
-0.281489
-0.322983
-0.376323
-0.439634
-0.492791
0.579511
1.3252
3.02597
22.6353
0.0718001
0.0758148
0.0731893
0.0452539
0.00296854
-0.0422656
-0.084865
-0.12178
-0.15212
-0.176886
-0.198074
-0.218047
-0.23937
-0.264743
-0.296459
-0.335849
-0.382742
-0.433059
-0.471246
-0.0776233
1.17926
5.11702
59.8333
0.0509676
0.0504881
0.0432024
0.0202011
-0.0117839
-0.0474012
-0.0829941
-0.116043
-0.145582
-0.171973
-0.196372
-0.220319
-0.245545
-0.273795
-0.306419
-0.343775
-0.385391
-0.427109
-0.462295
-0.331987
1.12311
6.97852
73.2894
0.0296465
0.028726
0.0187548
-0.00080268
-0.0263069
-0.0553751
-0.0855916
-0.115148
-0.143224
-0.169891
-0.195814
-0.221964
-0.249477
-0.279465
-0.312755
-0.349359
-0.388755
-0.42895
-0.462276
-0.365911
-0.0933012
8.25253
74.1518
0.0101362
0.00920155
-0.00134948
-0.0181317
-0.0393216
-0.0637677
-0.0898921
-0.116462
-0.142847
-0.169021
-0.195383
-0.222574
-0.251373
-0.282575
-0.316847
-0.354436
-0.395007
-0.438157
-0.47596
-0.465905
-0.469943
8.08559
66.8061
-0.00665954
-0.00782077
-0.017795
-0.0322613
-0.0503267
-0.0713439
-0.0942841
-0.118313
-0.142974
-0.168233
-0.194366
-0.221848
-0.251299
-0.283432
-0.319
-0.358743
-0.403088
-0.453021
-0.505639
-0.569841
-0.621861
6.16449
56.9737
-0.0205644
-0.022021
-0.030987
-0.0435093
-0.0591509
-0.0774962
-0.0978642
-0.119688
-0.142654
-0.166751
-0.192208
-0.219439
-0.249017
-0.2817
-0.31847
-0.360656
-0.409975
-0.469107
-0.541996
-0.640437
-0.773217
8.25741
58.4131
-0.0317299
-0.0333807
-0.0412515
-0.0521359
-0.0658005
-0.0819627
-0.100162
-0.120009
-0.141301
-0.164057
-0.188493
-0.214997
-0.244139
-0.276753
-0.314071
-0.357962
-0.411415
-0.479082
-0.570412
-0.709348
-0.921718
5.69098
57.2149
-0.0403478
-0.0420535
-0.0488965
-0.0583894
-0.0703814
-0.0846825
-0.100975
-0.118989
-0.1386
-0.159851
-0.182948
-0.208254
-0.236326
-0.268015
-0.304669
-0.348427
-0.402863
-0.473932
-0.572436
-0.729761
-0.978076
-0.582972
14.6967
-0.0466452
-0.0482932
-0.0542275
-0.0625234
-0.0730612
-0.0857218
-0.100279
-0.116545
-0.134444
-0.154029
-0.175487
-0.199138
-0.225472
-0.255256
-0.289724
-0.330822
-0.381684
-0.447443
-0.536127
-0.668019
-0.863753
-1.20636
-1.45352
-0.0508797
-0.0523973
-0.0575415
-0.064794
-0.0740414
-0.085222
-0.0981664
-0.112738
-0.128889
-0.14667
-0.166231
-0.187827
-0.211835
-0.238841
-0.269769
-0.306
-0.349575
-0.403263
-0.471136
-0.559213
-0.670516
-0.83708
-0.994022
-0.0533154
-0.0546626
-0.0591208
-0.0654514
-0.0735384
-0.0833648
-0.0947942
-0.107721
-0.122109
-0.137993
-0.155478
-0.174741
-0.196029
-0.219714
-0.246362
-0.276739
-0.311876
-0.352699
-0.400745
-0.456552
-0.518627
-0.592881
-0.667128
-0.0542084
-0.055367
-0.0592274
-0.0647329
-0.0717685
-0.0803476
-0.0903529
-0.101696
-0.114341
-0.128298
-0.143631
-0.160439
-0.178855
-0.19907
-0.221371
-0.246106
-0.273707
-0.304392
-0.33867
-0.376263
-0.416342
-0.457637
-0.493775
-0.0537924
-0.0547623
-0.0580966
-0.0628574
-0.0689375
-0.0763669
-0.0850409
-0.0948795
-0.105839
-0.117909
-0.131113
-0.145489
-0.161085
-0.17797
-0.196255
-0.216063
-0.237529
-0.26066
-0.285546
-0.311768
-0.338686
-0.364448
-0.384329
-0.0522744
-0.0530714
-0.055936
-0.0600236
-0.0652355
-0.0716093
-0.079049
-0.0874785
-0.0968471
-0.107125
-0.118301
-0.130372
-0.143329
-0.157166
-0.17189
-0.187499
-0.203972
-0.221199
-0.239049
-0.257056
-0.274563
-0.290451
-0.302228
-0.0498395
-0.0504882
-0.0529278
-0.0564093
-0.0608338
-0.0662438
-0.0725504
-0.0796801
-0.0875763
-0.0961934
-0.105497
-0.115454
-0.12602
-0.137145
-0.148776
-0.160844
-0.17325
-0.185835
-0.198402
-0.210607
-0.221983
-0.232002
-0.23953
-0.0466535
-0.0471776
-0.0492315
-0.0521704
-0.0558827
-0.0604191
-0.065696
-0.071643
-0.0782002
-0.0853111
-0.0929261
-0.100992
-0.109446
-0.118214
-0.127216
-0.136358
-0.145522
-0.154559
-0.163306
-0.171553
-0.179031
-0.185477
-0.190342
-0.042863
-0.043279
-0.0449859
-0.0474418
-0.0505127
-0.0542635
-0.0586142
-0.0634983
-0.0688552
-0.0746225
-0.0807418
-0.0871509
-0.0937775
-0.100542
-0.107356
-0.114126
-0.120745
-0.127097
-0.133062
-0.138521
-0.14333
-0.147376
-0.150431
-0.0385967
-0.0389115
-0.0403114
-0.0423395
-0.0448364
-0.0478869
-0.0514121
-0.055351
-0.0596449
-0.0642296
-0.0690446
-0.074025
-0.0790983
-0.0841866
-0.0892077
-0.0940757
-0.0987028
-0.103003
-0.106901
-0.110335
-0.113253
-0.11565
-0.117489
-0.0339668
-0.0341786
-0.0353123
-0.0369629
-0.0389499
-0.0413817
-0.0441771
-0.0472835
-0.0506461
-0.0542026
-0.057895
-0.0616605
-0.0654316
-0.0691372
-0.072704
-0.0760592
-0.0791342
-0.0818699
-0.0842242
-0.08618
-0.0877445
-0.0889714
-0.0899018
-0.0290685
-0.0291685
-0.0300771
-0.0313955
-0.0329333
-0.0348231
-0.0369784
-0.0393589
-0.0419146
-0.0445883
-0.0473275
-0.0500747
-0.0527696
-0.0553504
-0.0577546
-0.0599231
-0.0618044
-0.0633607
-0.0645744
-0.0654564
-0.0660478
-0.0664349
-0.0667094
-0.0239821
-0.0239583
-0.0246813
-0.0257071
-0.0268522
-0.0282713
-0.0298701
-0.031625
-0.0334906
-0.0354176
-0.037361
-0.0392698
-0.0410923
-0.0427771
-0.0442735
-0.0455354
-0.0465259
-0.0472221
-0.0476221
-0.0477535
-0.0476778
-0.0475059
-0.0473727
-0.0187622
-0.0186057
-0.0191849
-0.0199502
-0.0207544
-0.0217678
-0.0228877
-0.0241108
-0.0253949
-0.0267013
-0.0279933
-0.0292277
-0.0303633
-0.0313592
-0.0321765
-0.0327815
-0.0331489
-0.0332661
-0.0331405
-0.0328073
-0.0323382
-0.0318571
-0.0315301
-0.013482
-0.0132002
-0.0136598
-0.0141857
-0.0146983
-0.0153664
-0.0160803
-0.0168591
-0.0176617
-0.0184635
-0.0192364
-0.019947
-0.0205657
-0.0210624
-0.0214094
-0.0215843
-0.0215712
-0.0213646
-0.0209753
-0.0204373
-0.0198182
-0.0192368
-0.0188666
-0.00806251
-0.00771209
-0.00809882
-0.0083945
-0.00865899
-0.0090285
-0.0094011
-0.00981116
-0.0102211
-0.0106225
-0.0109958
-0.0113201
-0.0115771
-0.0117481
-0.0118167
-0.0117702
-0.0116002
-0.0113043
-0.0108904
-0.0103821
-0.00982637
-0.00930954
-0.00896952
-0.0030688
-0.00266642
-0.00281307
-0.00290132
-0.00297943
-0.00310027
-0.00319418
-0.00330439
-0.00339977
-0.00348731
-0.00355575
-0.0035983
-0.00360871
-0.00358016
-0.00350717
-0.00338617
-0.00321599
-0.00299809
-0.00273792
-0.00244743
-0.00214941
-0.00188532
-0.00173585
792.648
686.765
730.305
737.461
712.906
533.62
632.926
785.965
720.863
554.928
698.38
601.938
877.504
786.378
414.388
160.594
1015.92
453.56
71.3728
95.6334
417.984
80.9428
66.0831
83.3953
110.52
80.5717
69.4047
80.4879
335.688
93.5661
81.7645
154.124
796.264
656.649
418.488
182.687
538.352
456.038
127.599
60.2434
61.5043
52.0564
48.9566
62.898
59.1976
54.0652
49.5781
121.562
147.218
95.4487
119.779
122.672
156.582
156.623
152.542
56.2851
109.097
163.794
144.999
1.31418
9.27906
58.2116
15.0254
-0.537305
48.0366
9.56795
-0.370201
-0.0719934
76.3586
75.7354
3.14288
-0.73986
79.8587
75.3986
1.16425
-0.604653
82.9622
15.4773
-0.621696
-0.513628
81.3117
-0.754104
-0.624275
-0.42761
69.1335
-0.72974
-0.65067
-0.431306
37.2031
-0.829633
-0.728488
-0.469151
12.1074
-1.01275
-0.767989
-0.54279
2.07396
-0.266355
-0.857674
-0.602169
-1.00183
-0.875241
-0.764672
-0.550604
-0.965898
-0.844559
-0.632069
-0.482786
-0.701762
-0.643804
-0.520289
-0.423845
-0.520156
-0.494579
-0.43065
-0.369939
-0.398319
-0.387788
-0.355562
-0.31866
-0.310771
-0.307858
-0.292025
-0.270316
-0.245522
-0.24551
-0.237978
-0.225767
-0.194375
-0.19541
-0.192214
-0.18574
-0.153097
-0.154421
-0.153415
-0.150314
-0.119311
-0.120387
-0.120485
-0.119519
-0.0909082
-0.0918918
-0.0927633
-0.0935056
-0.0671712
-0.0682155
-0.069887
-0.072329
-0.0475773
-0.0488659
-0.0514659
-0.0556213
-0.0316789
-0.0333335
-0.0369028
-0.04265
-0.0190391
-0.021023
-0.0255114
-0.0327411
-0.00913266
-0.0113102
-0.0167814
-0.0255417
-0.0017987
-0.00414361
-0.0106751
-0.020996
862.456
860.895
821.802
504.751
250.32
231.369
202.592
204.21
207.403
208.055
212.518
287.267
236.981
258.294
347.51
594.347
690.327
766.746
801.134
591.851
705.381
700.487
513.579
459.951
443.662
272.041
206.415
203.143
204.901
271.624
311.742
234.314
289.227
670.947
724.789
786.118
722.143
755.583
397.004
395.544
325.878
402.119
479.055
458.084
462.601
455.347
279.971
307.531
339.162
275.433
230.064
509.982
765.248
782.065
729.338
777.621
890.736
280.506
333.08
234.512
211.493
450.825
444.566
432.046
425.871
435.825
308.673
243.813
257.485
485.578
796.291
780.338
783.17
759.461
938.544
970.433
158.135
356.136
176.175
53.7628
149.7
421.597
450.723
443.977
196.129
192.09
227.923
415.602
832.668
813.29
807.839
691.648
337.327
409.477
937.005
104.416
364.25
581.643
34.1424
15.7825
30.5595
255.716
266.162
176.957
199.544
228.165
349.974
763.095
886.474
680.366
91.8515
25.827
40.2497
271.65
315.362
424.363
853.246
306.212
12.5672
9.99853
7.77337
11.9476
84.6849
285.124
404.004
485.889
492.602
288.258
23.2816
9.54896
11.3757
19.112
40.034
561.393
829.465
926.201
612.098
12.4874
7.5332
5.63804
4.66267
36.523
187.357
232.519
139.917
31.9604
4.68822
5.41313
5.2283
4.63856
11.6841
38.365
79.9836
107.349
988.772
902.606
53.3026
4.53634
4.10843
3.57421
3.07741
2.54013
1.97495
1.73309
2.79561
4.68532
5.00595
4.35141
3.23333
9.84985
119.661
47.665
37.7707
564.537
966.338
127.668
3.29986
3.04844
2.80544
2.49582
2.0632
1.64638
1.63286
3.41598
6.90776
7.87837
3.97101
3.14603
4.53256
125.928
43.8096
42.4784
195.51
1021.22
294.897
2.13612
2.23846
2.10246
1.89564
1.53951
1.07603
1.24987
6.42919
8.65899
9.44313
8.0537
2.99461
2.68055
133.791
45.8461
-4.38018
52.7473
700.75
286.952
1.48198
1.65799
1.58322
1.41558
1.08501
0.585897
0.958259
6.32427
7.54525
8.43703
8.95426
5.19558
1.63574
141.921
-4.27591
-5.27474
2.63893
54.3304
73.6685
0.69187
1.12408
1.19391
1.09721
0.841673
0.435311
-0.0481123
0.440966
4.30696
8.16081
8.57879
6.38896
1.02982
149.244
-2.91615
-3.93369
-2.68499
-6.90826
-3.10912
0.105873
0.602012
0.895941
0.911631
0.763829
0.501455
0.215447
-0.0478251
-0.127476
8.12516
3.26861
0.978951
0.694857
156.702
-1.64461
-2.38948
-3.20425
-4.19892
-2.35573
-0.488986
0.134807
0.580747
0.699315
0.662802
0.549481
0.424733
0.226546
0.0669399
1.49908
0.246423
0.368373
0.429023
164.074
-1.21546
-2.16406
-2.83056
-2.83863
-2.11143
-1.16039
-0.457327
0.0797894
0.33834
0.404108
0.371495
0.307923
0.204888
0.129932
0.126702
0.190009
0.260648
0.253215
170.883
-1.13116
-1.99869
-2.62396
-2.83366
-2.53841
-1.93301
-1.16543
-0.481121
-0.0693955
0.100317
0.143323
0.133316
0.116938
0.106749
0.115053
0.135048
0.172318
0.152141
176.183
-0.76122
-1.96978
-2.60927
-2.98804
-2.91358
-2.44291
-1.65969
-0.844725
-0.384113
-0.146477
-0.0561509
-0.00638585
0.0275409
0.050823
0.0762487
0.087596
0.112219
0.105324
177.101
0.0417279
-0.16327
-2.34521
-2.77712
-2.83859
-2.34438
-1.35988
-0.932416
-0.525673
-0.291814
-0.179416
-0.106898
-0.0487189
-0.00386414
0.0581089
0.136481
0.061341
0.0614784
73.6542
0.307699
1.38729
0.734298
-0.493766
-0.960258
-0.0856676
-0.655705
-0.856545
-0.523852
-0.345672
-0.240151
-0.161102
-0.100449
0.0389229
0.779764
0.348007
0.0132041
0.00545576
6.62357
0.168754
2.01266
1.94314
1.69003
1.53912
1.36287
-0.338032
-0.656388
-0.471858
-0.346684
-0.265914
-0.198706
-0.134273
0.918723
1.38307
0.33929
-0.0108333
0.0981724
-0.00195734
-0.304035
-0.238201
-0.111442
0.315772
0.0205833
-0.684972
-0.648629
-0.546173
-0.436405
-0.338384
-0.273587
-0.216848
-0.153272
1.35817
1.41054
0.0935264
-0.0280383
0.285028
-0.0423785
-0.367654
-0.332138
-0.377997
-0.454929
-0.52324
-0.55665
-0.53619
-0.474261
-0.39782
-0.325525
-0.270302
-0.221815
-0.163739
1.35817
1.30882
-0.0517676
-0.0500725
0.277832
-0.0641822
-0.424247
-0.375356
-0.386086
-0.422237
-0.454858
-0.467792
-0.454194
-0.418384
-0.357108
-0.309487
-0.272838
-0.222714
-0.171951
1.36786
0.0530651
-0.0993917
-0.0774098
0.260408
-0.109201
-0.461252
-0.405622
-0.394032
-0.402499
-0.412675
-0.414361
-0.402305
-0.370924
-0.32667
-0.29181
-0.264715
-0.222547
-0.180695
1.36143
0.0156391
-0.146787
-0.106935
0.0443494
-0.136312
-0.451894
-0.40767
-0.387182
-0.380723
-0.378402
-0.373223
-0.361291
-0.329226
-0.30027
-0.274467
-0.256814
-0.220435
-0.189703
1.25303
0.101347
-0.178642
-0.151643
-0.167035
-0.155484
-0.420472
-0.38967
-0.368594
-0.355909
-0.347596
-0.339001
-0.327234
-0.305679
-0.275625
-0.268351
-0.243934
-0.210976
-0.112458
0.485185
0.0415595
-0.162676
0.318205
-0.0685388
-0.161097
-0.381979
-0.359873
-0.341513
-0.327666
-0.31723
-0.307446
-0.296385
-0.283141
-0.268938
-0.251621
-0.227193
-0.195594
0.640704
0.408198
0.0608018
0.824976
3.54083
0.436976
-0.153092
-0.340138
-0.323723
-0.309158
-0.296753
-0.286466
-0.27693
-0.267125
-0.256724
-0.245289
-0.231458
-0.210936
-0.182163
0.655986
0.892601
0.255022
3.66837
4.00491
0.823823
-0.118401
-0.297577
-0.285389
-0.274349
-0.264232
-0.255254
-0.246951
-0.238892
-0.230999
-0.223053
-0.21324
-0.198003
-0.174956
-0.077991
0.691973
0.943725
4.11603
4.16169
1.08606
-0.0368917
-0.255942
-0.247139
-0.239011
-0.231218
-0.224003
-0.217443
-0.211694
-0.207095
-0.203601
-0.199337
-0.190703
-0.174515
-0.0596244
-0.129865
0.472162
4.31355
4.38461
1.26289
0.0870752
-0.216472
-0.210343
-0.204504
-0.198762
-0.193414
-0.189007
-0.186304
-0.186093
-0.188547
-0.191674
-0.180588
-0.180835
-0.162387
-0.143692
0.0127136
4.37065
4.629
1.16795
0.212737
-0.179996
-0.175869
-0.171832
-0.16786
-0.164387
-0.162536
-0.163566
-0.168625
-0.178767
-0.140772
2.66529e-05
-0.0929693
-0.176275
-0.139323
0.983017
4.72169
4.82035
0.779946
0.306414
-0.147035
-0.144474
-0.141986
-0.139641
-0.138123
-0.139197
-0.144236
-0.154821
-0.160976
0.0276193
0.00472071
-0.023148
-0.19246
-0.152964
3.62206
4.88587
4.539
0.510975
0.36665
-0.118171
-0.117065
-0.116156
-0.115507
-0.116152
-0.120267
-0.12898
-0.144919
-0.0889382
0.0220337
-0.0255405
-0.0525298
-0.195514
-0.181972
2.02779
5.06743
2.24987
0.338169
0.373935
-0.0940415
-0.0945637
-0.0954373
-0.0966781
-0.0995777
-0.10618
-0.117174
-0.133792
-0.173945
-0.0871604
-0.0524935
-0.0962109
-0.195287
-0.195262
0.974797
1.41399
0.402456
0.296271
0.322567
-0.0748837
-0.0772063
-0.0799871
-0.0832136
-0.088079
-0.0959548
-0.106135
-0.126834
-0.162696
-0.222532
-0.0395767
-0.0882205
-0.0662853
-0.076259
-0.0543128
0.0751143
0.170153
0.222044
0.243011
-0.0601519
-0.0642048
-0.0687709
-0.0738194
-0.080126
-0.0883911
-0.0989043
-0.113426
-0.137968
-0.183463
-0.121701
-0.0128854
0.00220249
-0.0737689
-0.0427286
0.0491439
0.113561
0.150209
0.166448
-0.0489159
-0.0544494
-0.0605285
-0.0670933
-0.0745095
-0.0830102
-0.0922657
-0.10249
-0.116332
-0.137886
-0.162765
-0.0892174
-0.123979
-0.104858
-0.0331546
0.0259474
0.0663106
0.0918713
0.103915
-0.0405631
-0.0474146
-0.0548677
-0.0627981
-0.0712583
-0.0801609
-0.0889546
-0.0970203
-0.104414
-0.111446
-0.115279
-0.110443
-0.0925978
-0.0607011
-0.0266511
0.00610381
0.0316724
0.0485389
0.05693
-0.0349475
-0.0431664
-0.0521086
-0.0615854
-0.0714147
-0.0812359
-0.0902501
-0.0973633
-0.101555
-0.101757
-0.0962707
-0.0845673
-0.0678268
-0.0480074
-0.0284508
-0.00967392
0.00543756
0.0150853
0.0202638
-0.0320948
-0.0418596
-0.0525913
-0.0641388
-0.0762304
-0.0881755
-0.0986963
-0.106178
-0.108978
-0.105142
-0.0937754
-0.0762932
-0.0577124
-0.0421614
-0.0305745
-0.0225959
-0.0176775
-0.014894
-0.0133
)
;

boundaryField
{
    leftWall
    {
        type            fixedFluxPressure;
        gradient        uniform 0;
        value           nonuniform List<scalar> 
50
(
831.4
831.538
827.731
820.063
809.748
797.93
785.374
773.576
752.117
544.332
129.387
36.8849
18.6891
6.00381
1.42252
0.619319
0.47572
0.322531
0.16555
0.0712077
-0.00267236
-0.0221866
0.0211577
0.0707037
0.0833515
0.0718001
0.0509676
0.0296465
0.0101362
-0.00665954
-0.0205644
-0.0317299
-0.0403478
-0.0466452
-0.0508797
-0.0533154
-0.0542084
-0.0537924
-0.0522744
-0.0498395
-0.0466535
-0.042863
-0.0385967
-0.0339668
-0.0290685
-0.0239821
-0.0187622
-0.013482
-0.00806251
-0.0030688
)
;
    }
    rightWall
    {
        type            fixedFluxPressure;
        gradient        uniform 0;
        value           nonuniform List<scalar> 
50
(
661.712
613.607
611.253
605.237
654.722
758.256
844.968
874.668
801.134
755.583
890.736
970.433
937.005
271.65
40.034
38.365
119.661
125.928
133.791
141.921
149.244
156.702
164.074
170.883
176.183
177.101
73.6542
6.62357
-0.00195734
-0.0423785
-0.0641822
-0.109201
-0.136312
-0.155484
-0.161097
-0.153092
-0.118401
-0.0368917
0.0870752
0.212737
0.306414
0.36665
0.373935
0.322567
0.243011
0.166448
0.103915
0.05693
0.0202638
-0.0133
)
;
    }
    lowerWall
    {
        type            fixedFluxPressure;
        gradient        uniform 0;
        value           nonuniform List<scalar> 
62
(
831.4
828.122
823.046
818.812
820.34
829.357
843.307
859.586
876.906
893.663
907.851
917.799
922.796
922.9
916.631
906.417
898.524
894.615
896.445
903.653
909.076
908.106
900.016
900.016
897.82
894.008
888.158
880.764
874.78
870.992
866.283
792.648
686.765
730.305
737.461
878.567
868.49
889.33
935.533
963.153
970.722
962.338
952.347
878.567
857.034
848.966
832.417
790.166
715.255
623.914
581.742
592.625
593.968
590.88
604.574
600.126
536.805
446.594
359.818
368.446
516.383
661.712
)
;
    }
    atmosphere
    {
        type            totalPressure;
        rho             rho;
        psi             none;
        gamma           1;
        p0              uniform 0;
        value           nonuniform List<scalar> 
46
(
0
0
0
0
0
0
0
0
0
0
0
0
0
0
0
0
0
0
0
0
0
0
0
-4.08866e-07
-0.00223217
-0.00899918
-0.0199779
-0.0319335
-0.0425579
-0.0543631
-0.0673168
-0.0812285
-0.095219
-0.107624
-0.116456
-0.119599
-0.114161
-0.0991781
-0.0757801
-0.051553
-0.0360388
-0.0296082
-0.0283307
-0.0295118
-0.0314747
-0.0319321
)
;
    }
    defaultFaces
    {
        type            empty;
    }
}


// ************************************************************************* //
