/*--------------------------------*- C++ -*----------------------------------*\
| =========                 |                                                 |
| \\      /  F ield         | OpenFOAM: The Open Source CFD Toolbox           |
|  \\    /   O peration     | Version:  2206                                  |
|   \\  /    A nd           | Website:  www.openfoam.com                      |
|    \\/     M anipulation  |                                                 |
\*---------------------------------------------------------------------------*/
FoamFile
{
    version     2.0;
    format      ascii;
    arch        "LSB;label=32;scalar=64";
    class       surfaceScalarField;
    location    "0.825";
    object      phi;
}
// * * * * * * * * * * * * * * * * * * * * * * * * * * * * * * * * * * * * * //

dimensions      [0 3 -1 0 0 0 0];

oriented        oriented;

internalField   nonuniform List<scalar> 
4432
(
-4.81782e-06
4.81782e-06
-1.06309e-05
5.81305e-06
-1.68213e-05
6.19039e-06
-2.27276e-05
5.90632e-06
-2.62155e-05
3.48787e-06
-2.61047e-05
-1.10748e-07
-2.43705e-05
-1.73421e-06
-2.31883e-05
-1.1822e-06
-2.28302e-05
-3.58081e-07
-2.29055e-05
7.53249e-08
-2.32056e-05
3.00102e-07
-2.35666e-05
3.60925e-07
-2.34767e-05
-8.9881e-08
-2.23822e-05
-1.09445e-06
-2.13696e-05
-1.0126e-06
-2.36668e-05
2.29716e-06
-2.91887e-05
5.52196e-06
-3.21921e-05
3.0034e-06
-2.82315e-05
-3.96062e-06
-2.00705e-05
-8.161e-06
-1.1389e-05
-8.68154e-06
-3.52714e-06
-7.86182e-06
-3.52715e-06
-8.69774e-06
1.35156e-05
-1.65897e-05
1.3705e-05
-2.2972e-05
1.25728e-05
-2.71627e-05
1.0097e-05
-2.83261e-05
4.65127e-06
-2.70762e-05
-1.36067e-06
-2.49471e-05
-3.86326e-06
-2.34822e-05
-2.64709e-06
-2.31889e-05
-6.51385e-07
-2.34919e-05
3.78277e-07
-2.39435e-05
7.51711e-07
-2.43781e-05
7.95566e-07
-2.50865e-05
6.18474e-07
-2.67127e-05
5.31843e-07
-2.94792e-05
1.75382e-06
-3.20263e-05
4.84432e-06
-3.13758e-05
4.87142e-06
-2.58838e-05
-2.48856e-06
-1.84522e-05
-1.13923e-05
-1.17296e-05
-1.48835e-05
-5.52275e-06
-1.48884e-05
-7.61278e-07
-1.26233e-05
-4.28843e-06
-8.98602e-06
2.25016e-05
-1.64937e-05
2.12126e-05
-2.25626e-05
1.86416e-05
-2.7069e-05
1.46033e-05
-2.90534e-05
6.63568e-06
-2.80994e-05
-2.31462e-06
-2.5835e-05
-6.12759e-06
-2.41783e-05
-4.30385e-06
-2.3536e-05
-1.29368e-06
-2.33231e-05
1.65379e-07
-2.29366e-05
3.65248e-07
-2.23073e-05
1.66252e-07
-2.18673e-05
1.78468e-07
-2.22759e-05
9.40467e-07
-2.3312e-05
2.78983e-06
-2.28198e-05
4.3522e-06
-1.9019e-05
1.07058e-06
-1.33432e-05
-8.16431e-06
-8.44619e-06
-1.62894e-05
-4.36522e-06
-1.89645e-05
-2.58376e-07
-1.89953e-05
2.46989e-06
-1.53515e-05
-1.81854e-06
-8.06409e-06
3.05657e-05
-1.49919e-05
2.81404e-05
-2.10064e-05
2.46561e-05
-2.57608e-05
1.93577e-05
-2.80465e-05
8.92142e-06
-2.75888e-05
-2.77231e-06
-2.60731e-05
-7.64326e-06
-2.49803e-05
-5.39667e-06
-2.44942e-05
-1.7798e-06
-2.42553e-05
-7.35565e-08
-2.36889e-05
-2.01118e-07
-2.24929e-05
-1.02975e-06
-2.07938e-05
-1.52059e-06
-1.88675e-05
-9.85813e-07
-1.65667e-05
4.88969e-07
-1.30664e-05
8.5193e-07
-8.85263e-06
-3.14317e-06
-5.7885e-06
-1.12285e-05
-4.22605e-06
-1.78518e-05
-2.22304e-06
-2.09675e-05
1.06655e-06
-2.22849e-05
3.617e-06
-1.7902e-05
1.79846e-06
-6.79338e-06
3.7359e-05
-1.29539e-05
3.43009e-05
-1.82916e-05
2.99938e-05
-2.23291e-05
2.33952e-05
-2.4406e-05
1.09983e-05
-2.48057e-05
-2.37262e-06
-2.49916e-05
-7.45732e-06
-2.53958e-05
-4.99245e-06
-2.5616e-05
-1.55955e-06
-2.55404e-05
-1.49232e-07
-2.4985e-05
-7.56514e-07
-2.3667e-05
-2.34767e-06
-2.15443e-05
-3.64331e-06
-1.86367e-05
-3.89337e-06
-1.48549e-05
-3.29286e-06
-1.04382e-05
-3.56483e-06
-6.72584e-06
-6.85549e-06
-5.23956e-06
-1.27147e-05
-5.10537e-06
-1.7986e-05
-3.83668e-06
-2.22361e-05
-7.17965e-07
-2.54036e-05
2.50411e-06
-2.11241e-05
4.30256e-06
-5.21103e-06
4.25701e-05
-1.01951e-05
3.9285e-05
-1.42518e-05
3.40505e-05
-1.7063e-05
2.62064e-05
-1.8839e-05
1.27744e-05
-2.03405e-05
-8.71199e-07
-2.28813e-05
-4.91643e-06
-2.54125e-05
-2.46127e-06
-2.674e-05
-2.32086e-07
-2.69586e-05
6.94047e-08
-2.63257e-05
-1.38942e-06
-2.48097e-05
-3.86371e-06
-2.24803e-05
-5.97267e-06
-1.94758e-05
-6.89793e-06
-1.584e-05
-6.92857e-06
-1.19298e-05
-7.47503e-06
-8.82596e-06
-9.95938e-06
-7.41073e-06
-1.41299e-05
-6.91645e-06
-1.84803e-05
-6.03652e-06
-2.31161e-05
-4.12028e-06
-2.73198e-05
-1.24323e-06
-2.40011e-05
3.05933e-06
-3.36957e-06
4.59396e-05
-7.13241e-06
4.30478e-05
-9.87584e-06
3.6794e-05
-1.12045e-05
2.75351e-05
-1.23956e-05
1.39654e-05
-1.51749e-05
1.90815e-06
-2.07082e-05
6.16878e-07
-2.54574e-05
2.28785e-06
-2.79392e-05
2.24974e-06
-2.8531e-05
6.61236e-07
-2.77621e-05
-2.15836e-06
-2.58758e-05
-5.75e-06
-2.3156e-05
-8.69242e-06
-1.99368e-05
-1.01172e-05
-1.64398e-05
-1.04255e-05
-1.2956e-05
-1.09588e-05
-1.00971e-05
-1.28183e-05
-8.32653e-06
-1.59005e-05
-7.48914e-06
-1.93177e-05
-7.52604e-06
-2.30792e-05
-8.00242e-06
-2.68435e-05
-6.98383e-06
-2.50197e-05
-3.9245e-06
-1.36265e-06
4.73023e-05
-3.12104e-06
4.48062e-05
-3.51452e-06
3.71875e-05
-2.52568e-06
2.65463e-05
-3.3215e-06
1.47613e-05
-9.90704e-06
8.49368e-06
-1.90559e-05
9.76578e-06
-2.55319e-05
8.76382e-06
-2.89979e-05
5.71573e-06
-3.01848e-05
1.84812e-06
-2.94142e-05
-2.92891e-06
-2.70487e-05
-8.1155e-06
-2.37018e-05
-1.20394e-05
-1.99916e-05
-1.38273e-05
-1.62792e-05
-1.4138e-05
-1.27659e-05
-1.44721e-05
-9.81474e-06
-1.57695e-05
-7.80265e-06
-1.79126e-05
-6.95521e-06
-2.01651e-05
-7.57314e-06
-2.24612e-05
-9.55731e-06
-2.48593e-05
-9.75925e-06
-2.48178e-05
-1.36837e-05
1.78519e-05
-1.78519e-05
-2.9202e-06
2.07721e-05
-3.07537e-05
2.78334e-05
-1.21683e-05
-1.85853e-05
2.66228e-05
-3.87911e-05
4.71001e-05
-2.04772e-05
4.68982e-05
2.01862e-07
3.43975e-05
1.25007e-05
1.56253e-05
1.87722e-05
-6.97664e-06
2.26019e-05
-1.95563e-05
1.25797e-05
-1.66467e-05
-2.90963e-06
-1.23142e-05
-4.33248e-06
-2.8024e-05
1.57098e-05
-5.02734e-05
2.22494e-05
-6.55706e-05
1.52973e-05
-6.71456e-05
1.5749e-06
-4.30411e-05
-2.41045e-05
-4.30411e-05
-2.98293e-06
-1.4869e-05
-3.04062e-05
4.81954e-05
-2.28459e-05
2.02732e-05
1.99478e-05
-6.13791e-05
4.47585e-05
-6.36018e-05
5.23613e-05
-2.80801e-05
5.26316e-05
-6.84288e-08
5.22453e-05
1.2887e-05
4.94629e-05
2.15547e-05
3.85772e-05
3.34877e-05
1.44415e-05
3.67153e-05
-1.82378e-05
2.97697e-05
-3.9907e-05
1.73368e-05
-5.60109e-05
3.18136e-05
-7.67291e-05
4.29676e-05
-9.24145e-05
3.09828e-05
-8.58059e-05
-5.03373e-06
-5.13538e-05
-5.85566e-05
-9.43948e-05
-2.48381e-05
9.96906e-06
-4.20441e-05
6.54014e-05
-4.05676e-06
-1.77142e-05
3.58985e-05
-0.000101334
4.38032e-05
-7.15064e-05
4.23643e-05
-2.66412e-05
4.13324e-05
9.63446e-07
4.38178e-05
1.04015e-05
4.8852e-05
1.65205e-05
5.18702e-05
3.04695e-05
4.32303e-05
4.53552e-05
1.33068e-05
5.96932e-05
-2.2645e-05
5.32887e-05
-4.03832e-05
4.95517e-05
-5.68544e-05
5.94388e-05
-6.3466e-05
3.75944e-05
-5.25114e-05
-1.59883e-05
-2.83275e-05
-8.27405e-05
-0.000122722
-3.06463e-05
4.06153e-05
-2.95908e-05
6.4346e-05
1.34689e-05
-6.07739e-05
3.18067e-05
-0.000119672
3.822e-05
-7.79197e-05
3.43106e-05
-2.27318e-05
2.98113e-05
5.46279e-06
2.99134e-05
1.02994e-05
3.3934e-05
1.24999e-05
4.11344e-05
2.32691e-05
4.65116e-05
3.9978e-05
4.1665e-05
6.45398e-05
1.61146e-05
7.88391e-05
-5.80735e-06
7.14737e-05
-1.32422e-05
6.68736e-05
-1.52395e-05
3.95917e-05
-1.30406e-05
-1.81872e-05
-3.80005e-06
-9.1981e-05
-0.000126522
-2.92569e-05
6.98723e-05
-1.11648e-05
4.62539e-05
2.43643e-05
-9.6303e-05
2.49168e-05
-0.000120225
3.03057e-05
-8.33087e-05
2.38021e-05
-1.62282e-05
1.51766e-05
1.40883e-05
1.25207e-05
1.29554e-05
1.55362e-05
9.48436e-06
2.35571e-05
1.52482e-05
3.36929e-05
2.98421e-05
4.80365e-05
5.01962e-05
4.88076e-05
7.8068e-05
3.88642e-05
8.14171e-05
3.55744e-05
7.01634e-05
3.6378e-05
3.87881e-05
3.00569e-05
-1.18661e-05
1.84732e-05
-8.03974e-05
-0.000108049
-2.51711e-05
9.50434e-05
-3.58072e-06
2.46635e-05
1.8445e-05
-0.000118329
1.58884e-05
-0.000117668
2.60636e-05
-9.34839e-05
1.90322e-05
-9.19674e-06
1.60861e-06
3.15119e-05
-5.4118e-06
1.99758e-05
-2.01305e-06
6.08564e-06
5.66836e-06
7.56678e-06
1.45556e-05
2.09549e-05
3.52847e-05
2.94671e-05
5.51323e-05
5.82204e-05
6.51394e-05
7.14101e-05
7.39363e-05
6.13664e-05
7.84882e-05
3.42363e-05
6.77508e-05
-1.12877e-06
3.80459e-05
-5.06924e-05
-7.00033e-05
-2.34884e-05
0.000118532
-5.11616e-06
6.29122e-06
9.19864e-07
-0.000124365
1.00135e-05
-0.000126762
2.6233e-05
-0.000109703
3.03526e-05
-1.33163e-05
1.06116e-05
5.12528e-05
-1.11143e-05
4.17016e-05
-2.58068e-05
2.07782e-05
-3.71845e-05
1.89444e-05
-2.4494e-05
8.26428e-06
1.70884e-05
-1.21152e-05
4.13798e-05
3.39289e-05
5.9952e-05
5.28379e-05
7.53232e-05
4.59952e-05
8.39145e-05
2.56449e-05
7.69084e-05
5.87743e-06
4.56259e-05
-1.94099e-05
-2.43774e-05
-2.35787e-05
0.00014211
-1.07439e-05
-6.54359e-06
-1.6147e-05
-0.000118962
-1.92421e-06
-0.000140984
4.93083e-06
-0.000116559
2.93117e-05
-3.76972e-05
3.67202e-05
4.38444e-05
1.33942e-05
6.50276e-05
-1.61568e-05
5.03293e-05
-4.24168e-05
4.52045e-05
-3.785e-05
3.69754e-06
1.3628e-05
-6.35932e-05
2.39782e-05
2.35787e-05
3.86347e-05
3.81815e-05
5.21711e-05
3.24587e-05
6.03404e-05
1.74756e-05
5.6766e-05
9.4518e-06
3.61544e-05
1.20165e-06
1.1777e-05
6.07233e-06
4.123e-05
4.52248e-06
4.63561e-05
2.32719e-07
4.14772e-05
-1.07478e-05
3.75268e-05
-2.71505e-05
3.11639e-05
-4.30238e-05
2.4367e-05
-5.32267e-05
1.99687e-05
-6.03128e-05
1.585e-05
-6.58318e-05
1.12347e-05
-6.81223e-05
4.13863e-06
-6.54553e-05
-5.59584e-06
-5.79664e-05
-1.56044e-05
-4.83281e-05
-2.16777e-05
-3.87559e-05
-2.33996e-05
-3.01179e-05
-2.27759e-05
-2.26795e-05
-2.19104e-05
-1.69726e-05
-2.14765e-05
-1.34972e-05
-2.13879e-05
-1.25407e-05
-2.11216e-05
-1.36483e-05
-2.13537e-05
-1.50774e-05
-2.34302e-05
-1.13238e-05
-2.85714e-05
-3.3427e-05
8.41945e-06
-1.98961e-05
6.1126e-05
-3.68123e-05
6.32723e-05
-5.32254e-05
5.78903e-05
-6.50922e-05
4.93936e-05
-7.08792e-05
3.6951e-05
-7.20343e-05
2.55221e-05
-7.14727e-05
1.9407e-05
-7.16447e-05
1.6022e-05
-7.32206e-05
1.28106e-05
-7.34581e-05
4.37605e-06
-7.04534e-05
-8.60053e-06
-6.17997e-05
-2.42581e-05
-5.09632e-05
-3.25143e-05
-4.03398e-05
-3.4023e-05
-3.13728e-05
-3.17429e-05
-2.46583e-05
-2.86249e-05
-1.99153e-05
-2.62195e-05
-1.6564e-05
-2.47392e-05
-1.50417e-05
-2.26439e-05
-1.51329e-05
-2.12625e-05
-1.41688e-05
-2.43943e-05
-6.33279e-06
-3.64073e-05
-5.23588e-05
1.2599e-05
-6.90276e-05
0.000130154
-0.00010248
9.67247e-05
-0.000127657
8.30671e-05
-0.000137388
5.91248e-05
-0.000139056
3.86187e-05
-0.000139206
2.56728e-05
-0.000141097
2.12982e-05
-0.000147601
2.25259e-05
-0.000158431
2.36407e-05
-0.000166765
1.27095e-05
-0.000161978
-1.33877e-05
-0.000148915
-3.73208e-05
-0.000129313
-5.21164e-05
-0.00010957
-5.37657e-05
-9.36237e-05
-4.76892e-05
-8.12838e-05
-4.09649e-05
-6.90707e-05
-3.84326e-05
-5.34632e-05
-4.03468e-05
-3.99391e-05
-3.6168e-05
-3.44088e-05
-2.67928e-05
-3.44761e-05
-2.4327e-05
-3.33425e-05
-3.75409e-05
-4.5568e-05
-4.01332e-05
-0.00031481
0.000444964
-0.00045194
0.000233854
-0.000498972
0.000130099
-0.000508933
6.90859e-05
-0.000505384
3.50695e-05
-0.000499022
1.93108e-05
-0.000492842
1.51185e-05
-0.00048379
1.34738e-05
-0.000461131
9.81221e-07
-0.000418694
-2.9727e-05
-0.000368476
-6.36055e-05
-0.000316799
-8.89985e-05
-0.000272984
-9.59314e-05
-0.00023888
-8.78694e-05
-0.000214463
-7.21065e-05
-0.000197424
-5.80038e-05
-0.000179942
-5.59145e-05
-0.000146585
-7.37031e-05
-0.000108872
-7.38812e-05
-8.33429e-05
-5.23221e-05
-7.95817e-05
-2.80881e-05
-9.22491e-05
-2.48735e-05
-1.05059e-05
-0.000127311
-0.00018488
0.000629844
-0.000328994
0.000377968
-0.000408941
0.000210045
-0.000455951
0.000116096
-0.000482763
6.18816e-05
-0.000487524
2.40716e-05
-0.000470172
-2.23357e-06
-0.000442201
-1.44966e-05
-0.000412231
-2.89887e-05
-0.000374747
-6.72112e-05
-0.000351741
-8.66116e-05
-0.000331847
-0.000108893
-0.000310939
-0.000116839
-0.000285985
-0.000112824
-0.000262659
-9.54322e-05
-0.000249968
-7.06951e-05
-0.000241301
-6.45812e-05
-0.000211523
-0.000103481
-0.000178569
-0.000106836
-0.000150974
-7.9917e-05
-0.000135132
-4.39301e-05
-0.000148294
-1.17112e-05
2.61361e-05
-0.000184936
-6.35096e-05
0.000693354
-0.000142441
0.0004569
-0.000198476
0.00026608
-0.000228497
0.000146118
-0.000234938
6.83227e-05
-0.00022254
1.16735e-05
-0.00019589
-2.88842e-05
-0.000148045
-6.23417e-05
-0.000111582
-6.54519e-05
-0.000149847
-2.89456e-05
-0.000224231
-1.22276e-05
-0.000265528
-6.75956e-05
-0.00028587
-9.64972e-05
-0.000278939
-0.000119755
-0.000257727
-0.000116644
-0.000251652
-7.67702e-05
-0.000249078
-6.71549e-05
-0.00022928
-0.000123279
-0.000209219
-0.000126897
-0.000190202
-9.89348e-05
-0.00018242
-5.17114e-05
-0.000192184
-1.9474e-06
5.16794e-05
-0.000217727
7.9479e-06
0.000685406
-2.42755e-05
0.000489123
-4.9351e-05
0.000291155
-6.75863e-05
0.000164353
-7.50872e-05
7.58241e-05
-8.25897e-05
1.91759e-05
-9.61671e-05
-1.53068e-05
-0.000119421
-3.90873e-05
-0.000136547
-4.83265e-05
-0.000127268
-3.82246e-05
-0.00010544
-3.4055e-05
-0.000129171
-4.38653e-05
-0.000185361
-4.03064e-05
-0.000209294
-9.58227e-05
-0.000195196
-0.000130742
-0.00020266
-6.93064e-05
-0.000206659
-6.31555e-05
-0.000224202
-0.000105736
-0.000227613
-0.000123485
-0.000218643
-0.000107905
-0.000213779
-5.65748e-05
-0.000216316
5.89799e-07
6.33418e-05
-0.000227979
5.59652e-05
0.000629441
4.09655e-05
0.000504123
3.07016e-05
0.00030142
2.31467e-05
0.000171908
1.96892e-05
7.92814e-05
1.61652e-05
2.26996e-05
6.12407e-06
-5.26552e-06
-1.69376e-05
-1.60254e-05
-4.77641e-05
-1.75001e-05
-6.87088e-05
-1.72799e-05
-8.1945e-05
-2.08188e-05
-0.000106249
-1.95618e-05
-0.000119393
-2.71623e-05
-0.000140656
-7.45595e-05
-0.000188743
-8.26551e-05
-0.000193236
-6.48127e-05
-0.000195694
-6.06983e-05
-0.000213947
-8.74826e-05
-0.000229085
-0.000108348
-0.000237696
-9.92948e-05
-0.000229179
-6.50911e-05
-0.000216637
-1.19521e-05
5.00143e-05
-0.00020331
7.96356e-05
0.000549805
7.42484e-05
0.000509511
6.16722e-05
0.000313996
5.6201e-05
0.00017738
5.41011e-05
8.13814e-05
5.30148e-05
2.37861e-05
4.79637e-05
-2.14371e-07
3.61483e-05
-4.21012e-06
1.94754e-05
-8.27119e-07
-1.10198e-06
3.2976e-06
-2.78759e-05
5.95524e-06
-5.60686e-05
8.63086e-06
-8.18975e-05
-1.33356e-06
-0.000137675
-1.87825e-05
-0.00018313
-3.71995e-05
-0.000199954
-4.79885e-05
-0.000209123
-5.15297e-05
-0.000228683
-6.7923e-05
-0.000249187
-8.78433e-05
-0.000258496
-8.99855e-05
-0.000246888
-7.6699e-05
-0.000218105
-4.07358e-05
2.08556e-05
-0.000188946
9.45516e-05
0.000455253
0.000102613
0.000501449
8.0416e-05
0.000336193
6.79513e-05
0.000189844
6.33599e-05
8.59727e-05
6.20687e-05
2.50773e-05
5.83739e-05
3.48052e-06
4.96789e-05
4.48502e-06
3.76399e-05
1.12121e-05
2.33506e-05
1.75868e-05
6.53541e-06
2.27703e-05
-1.10296e-05
2.61959e-05
-3.81459e-05
2.57829e-05
-8.09823e-05
2.40541e-05
-0.000133579
1.53972e-05
-0.000181442
-1.25207e-07
-0.000214653
-1.83192e-05
-0.000240669
-4.19069e-05
-0.00026119
-6.73229e-05
-0.000272905
-7.82705e-05
-0.000264359
-8.52442e-05
-0.000239672
-6.54236e-05
-1.99701e-05
-0.000198846
0.000102565
0.000352688
0.000133859
0.000470155
0.000116525
0.000353527
9.7236e-05
0.000209133
8.53669e-05
9.78419e-05
7.66747e-05
3.37697e-05
6.65396e-05
1.36157e-05
5.36854e-05
1.73395e-05
3.99609e-05
2.49367e-05
2.69887e-05
3.05589e-05
1.37573e-05
3.60016e-05
-7.86928e-07
4.07401e-05
-1.87201e-05
4.37163e-05
-4.42181e-05
4.95523e-05
-8.59515e-05
5.71307e-05
-0.000141739
5.56616e-05
-0.000198784
3.87261e-05
-0.000242334
1.64301e-06
-0.000263125
-4.65319e-05
-0.000253351
-8.80443e-05
-0.000231889
-0.000106706
-0.000204489
-9.28231e-05
-5.48474e-05
-0.000169612
9.44411e-05
0.000258247
0.000149346
0.000415251
0.000153382
0.000349491
0.000138476
0.00022404
0.000119819
0.000116498
9.94672e-05
5.4122e-05
7.85763e-05
3.45067e-05
5.88224e-05
3.70935e-05
4.11942e-05
4.25647e-05
2.62439e-05
4.55093e-05
1.30668e-05
4.91785e-05
3.62487e-07
5.34445e-05
-1.23907e-05
5.64697e-05
-2.64687e-05
6.36301e-05
-4.69471e-05
7.76088e-05
-7.9851e-05
8.85655e-05
-0.000126004
8.48795e-05
-0.000170295
4.59339e-05
-0.000190057
-2.67706e-05
-0.000181068
-9.70331e-05
-0.000150532
-0.000137243
-0.000118918
-0.000124437
-8.59172e-05
-8.78481e-05
6.66157e-05
0.000191632
0.00013283
0.000349036
0.000161012
0.000321309
0.000159669
0.000225383
0.000141132
0.000135035
0.000114172
8.10821e-05
8.67799e-05
6.18988e-05
6.34033e-05
6.04701e-05
4.40399e-05
6.19281e-05
2.78833e-05
6.16659e-05
1.46277e-05
6.24343e-05
3.31033e-06
6.47619e-05
-7.28857e-06
6.70684e-05
-1.67803e-05
7.31218e-05
-2.5015e-05
8.58435e-05
-3.55356e-05
9.90858e-05
-5.44425e-05
0.000103786
-8.57468e-05
7.72381e-05
-0.00012153
9.01256e-06
-0.000142428
-7.61357e-05
-0.000134836
-0.000144835
-0.000116666
-0.000142606
-0.00011136
-9.12235e-05
3.07944e-05
0.000160837
9.38357e-05
0.000285995
0.000136464
0.00027868
0.000148506
0.000213341
0.000136291
0.000147251
0.000111691
0.000105681
8.60282e-05
8.75622e-05
6.45736e-05
8.19246e-05
4.69722e-05
7.95293e-05
3.18901e-05
7.6748e-05
1.9374e-05
7.49503e-05
9.03726e-06
7.50986e-05
-5.35106e-07
7.66407e-05
-8.91428e-06
8.15006e-05
-1.40248e-05
9.09538e-05
-1.65217e-05
0.000101583
-2.16977e-05
0.000108963
-4.29011e-05
9.84414e-05
-8.28431e-05
4.89543e-05
-0.000120359
-3.86199e-05
-0.000151931
-0.000113263
-0.000141347
-0.00015319
-0.000134676
-0.000118031
5.49052e-06
0.000155347
5.52447e-05
0.000236241
9.90248e-05
0.0002349
0.000117817
0.000194548
0.00011333
0.000151738
9.67161e-05
0.000122296
7.81898e-05
0.000106089
6.21407e-05
9.79735e-05
4.84603e-05
9.32096e-05
3.6092e-05
8.91162e-05
2.5134e-05
8.59081e-05
1.56409e-05
8.45915e-05
6.68375e-06
8.55978e-05
-1.4081e-06
8.95922e-05
-7.28387e-06
9.68295e-05
-1.04701e-05
0.000104769
-1.40642e-05
0.000112557
-2.85387e-05
0.000112916
-5.88019e-05
7.92175e-05
-9.4417e-05
-3.00469e-06
-0.000124555
-8.31255e-05
-0.00014156
-0.000136184
-0.000143784
-0.000132452
-3.68988e-06
0.000159037
3.05934e-05
0.000201958
6.65371e-05
0.000198957
8.52823e-05
0.000175803
8.66122e-05
0.000150408
7.84786e-05
0.000130429
6.77621e-05
0.000116805
5.75036e-05
0.000108232
4.80296e-05
0.000102683
3.88145e-05
9.83311e-05
2.98728e-05
9.48496e-05
2.1413e-05
9.30513e-05
1.32006e-05
9.38102e-05
5.42771e-06
9.73651e-05
-9.91742e-07
0.000103249
-5.80339e-06
0.00010958
-1.02892e-05
0.000117042
-2.08517e-05
0.000123478
-4.24988e-05
0.000100865
-6.79671e-05
2.24635e-05
-9.40235e-05
-5.70691e-05
-0.000113362
-0.000116846
-0.000150074
-0.000107071
-1.12241e-06
0.000160159
1.99252e-05
0.000180911
4.52367e-05
0.000173645
6.05407e-05
0.0001605
6.4955e-05
0.000145994
6.28086e-05
0.000132576
5.78551e-05
0.000121758
5.20549e-05
0.000114032
4.60024e-05
0.000108736
3.95714e-05
0.000104762
3.26992e-05
0.000101722
2.55786e-05
0.000100172
1.84597e-05
0.000100929
1.17188e-05
0.000104106
5.87324e-06
0.000109094
1.00949e-06
0.000114444
-2.7689e-06
0.000120821
-9.14873e-06
0.000129858
-2.67757e-05
0.000118491
-5.19748e-05
4.76625e-05
-7.75023e-05
-3.15415e-05
-8.74359e-05
-0.000106912
-0.000145966
-9.15438e-05
3.39312e-06
0.000156766
1.67805e-05
0.000167523
3.3372e-05
0.000157054
4.48028e-05
0.000149069
5.01303e-05
0.000140667
5.11378e-05
0.000131568
4.958e-05
0.000123316
4.66814e-05
0.000116931
4.30598e-05
0.000112357
3.87853e-05
0.000109036
3.37893e-05
0.000106718
2.82257e-05
0.000105736
2.25251e-05
0.000106629
1.71811e-05
0.00010945
1.25474e-05
0.000113728
8.55105e-06
0.00011844
5.83357e-06
0.000123538
2.99694e-06
0.000132694
-1.17732e-05
0.000133261
-4.11202e-05
7.70095e-05
-6.79406e-05
-4.72122e-06
-7.42328e-05
-0.00010062
-0.000133335
-8.68644e-05
5.94555e-06
0.000150821
1.59296e-05
0.000157539
2.6984e-05
0.000146
3.53788e-05
0.000140674
4.04756e-05
0.00013557
4.27807e-05
0.000129263
4.30063e-05
0.00012309
4.18854e-05
0.000118052
3.99192e-05
0.000114323
3.72486e-05
0.000111707
3.38564e-05
0.00011011
2.98782e-05
0.000109714
2.57127e-05
0.000110795
2.18025e-05
0.00011336
1.83868e-05
0.000117143
1.52525e-05
0.000121575
1.2833e-05
0.000125957
1.14234e-05
0.000134104
7.24557e-07
0.00014396
-2.85691e-05
0.000106303
-5.87026e-05
2.54122e-05
-7.3082e-05
-8.62411e-05
-0.000115488
-9.09289e-05
6.40321e-06
0.000144418
1.4972e-05
0.000148971
2.30262e-05
0.000137945
2.94314e-05
0.000134269
3.39949e-05
0.000131006
3.6747e-05
0.000126511
3.79182e-05
0.000121919
3.79244e-05
0.000118045
3.7126e-05
0.000115122
3.56815e-05
0.000113151
3.36391e-05
0.000112152
3.11268e-05
0.000112226
2.84265e-05
0.000113495
2.58255e-05
0.000115961
2.34439e-05
0.000119525
2.10588e-05
0.00012396
1.86138e-05
0.000128402
1.73733e-05
0.000135344
1.15369e-05
0.000149797
-1.64479e-05
0.000134288
-5.13322e-05
6.02964e-05
-7.4976e-05
-6.25974e-05
-9.40286e-05
-9.64352e-05
5.94915e-06
0.000138469
1.36111e-05
0.000141309
2.00686e-05
0.000131488
2.52895e-05
0.000129048
2.94089e-05
0.000126887
3.23233e-05
0.000123596
3.40651e-05
0.000120177
3.48621e-05
0.000117248
3.49607e-05
0.000115023
3.45168e-05
0.000113595
3.3626e-05
0.000113043
3.24077e-05
0.000113444
3.10342e-05
0.000114868
2.96479e-05
0.000117347
2.82741e-05
0.000120899
2.67107e-05
0.000125523
2.44703e-05
0.000130642
2.25093e-05
0.000137305
1.91121e-05
0.000153194
-4.09328e-06
0.000157493
-4.40546e-05
0.000100258
-7.56616e-05
-3.09905e-05
-6.94787e-05
-0.000100212
5.35561e-06
0.000133113
1.21753e-05
0.000134489
1.76765e-05
0.000125987
2.22116e-05
0.000124513
2.60458e-05
0.000123053
2.90513e-05
0.000120591
3.11965e-05
0.000118032
3.26081e-05
0.000115837
3.34538e-05
0.000114177
3.38759e-05
0.000113173
3.39903e-05
0.000112929
3.39079e-05
0.000113527
3.37355e-05
0.000115041
3.35346e-05
0.000117548
3.3278e-05
0.000121155
3.2784e-05
0.000126017
3.13923e-05
0.000132034
2.92036e-05
0.000139494
2.73855e-05
0.000155012
1.19434e-05
0.000172935
-3.12456e-05
0.000143446
-6.8793e-05
6.55692e-06
-4.16317e-05
-9.664e-05
4.87517e-06
0.000128238
1.08945e-05
0.00012847
1.57421e-05
0.000121139
1.98709e-05
0.000120384
2.35346e-05
0.000119389
2.6614e-05
0.000117512
2.9072e-05
0.000115574
3.09867e-05
0.000113922
3.24765e-05
0.000112687
3.3665e-05
0.000111985
3.467e-05
0.000111924
3.55979e-05
0.000112599
3.65352e-05
0.000114104
3.75292e-05
0.000116554
3.85641e-05
0.000120121
3.952e-05
0.000125061
3.98774e-05
0.000131677
3.90805e-05
0.000140291
3.9069e-05
0.000155023
3.15537e-05
0.000180451
-1.0432e-05
0.000185432
-5.70861e-05
5.32111e-05
-1.33792e-05
-8.53385e-05
4.51658e-06
0.000123721
9.83048e-06
0.000123156
1.42023e-05
0.000116767
1.80757e-05
0.000116511
2.16332e-05
0.000115831
2.47758e-05
0.000114369
2.74817e-05
0.000112868
2.98087e-05
0.000111595
3.18479e-05
0.000110648
3.37061e-05
0.000110126
3.54964e-05
0.000110133
3.73288e-05
0.000110766
3.93025e-05
0.00011213
4.15011e-05
0.000114356
4.39872e-05
0.000117634
4.67883e-05
0.00012226
4.97725e-05
0.000128693
5.25315e-05
0.000137532
5.68429e-05
0.000150712
6.27882e-05
0.000174505
4.47546e-05
0.000203466
-1.60296e-05
0.000113995
1.85898e-05
-4.79987e-05
4.23781e-06
0.000119483
8.96889e-06
0.000118425
1.29859e-05
0.000112751
1.66825e-05
0.000112814
2.01648e-05
0.000112349
2.33575e-05
0.000111176
2.62559e-05
0.00010997
2.89118e-05
0.000108939
3.14028e-05
0.000108157
3.38254e-05
0.000107704
3.62898e-05
0.000107669
3.89157e-05
0.000108141
4.18319e-05
0.000109214
4.51831e-05
0.000111005
4.91466e-05
0.000113671
5.39596e-05
0.000117447
5.99564e-05
0.000122696
6.75771e-05
0.000129911
7.85201e-05
0.000139769
9.88185e-05
0.000154207
0.000121229
0.000181056
8.50999e-05
0.000150124
6.02407e-05
4.3449e-05
4.00545e-06
0.000115478
8.27347e-06
0.000114157
1.20187e-05
0.000109005
1.55771e-05
0.000109256
1.8996e-05
0.00010893
2.22212e-05
0.000107951
2.52617e-05
0.000106929
2.81682e-05
0.000106032
3.10127e-05
0.000105312
3.38862e-05
0.00010483
3.68989e-05
0.000104656
4.01809e-05
0.000104859
4.38883e-05
0.000105507
4.82193e-05
0.000106674
5.34442e-05
0.000108446
5.99621e-05
0.000110929
6.84011e-05
0.000114257
7.9793e-05
0.000118519
9.58513e-05
0.000123711
0.000121276
0.000128782
0.000164189
0.000138142
0.000182868
0.000131446
7.86113e-05
0.000164497
3.79988e-06
0.000111678
7.70469e-06
0.000110252
1.12325e-05
0.000105477
1.46695e-05
0.000105819
1.80248e-05
0.000105575
2.12606e-05
0.000104715
2.43953e-05
0.000103794
2.7479e-05
0.000102949
3.05807e-05
0.000102211
3.37877e-05
0.000101623
3.7209e-05
0.000101235
4.09783e-05
0.00010109
4.52628e-05
0.000101222
5.02804e-05
0.000101656
5.63276e-05
0.000102399
6.38278e-05
0.000103429
7.34105e-05
0.000104674
8.59937e-05
0.000105936
0.000102957
0.000106748
0.00012568
0.00010606
0.000161528
0.000102294
0.000197828
9.5145e-05
6.57473e-05
0.000210692
3.61036e-06
0.000108068
7.22706e-06
0.000106635
1.0571e-05
0.000102134
1.38909e-05
0.000102499
1.71742e-05
0.000102291
2.0395e-05
0.000101495
2.35767e-05
0.000100613
2.67684e-05
9.97569e-05
3.00354e-05
9.89439e-05
3.34599e-05
9.81988e-05
3.7145e-05
9.75501e-05
4.12175e-05
9.70174e-05
4.58359e-05
9.66041e-05
5.12005e-05
9.62918e-05
5.75704e-05
9.60291e-05
6.52834e-05
9.57159e-05
7.47908e-05
9.51671e-05
8.66288e-05
9.40984e-05
0.000101536
9.18402e-05
0.000119691
8.79058e-05
0.000142608
7.93765e-05
0.000170496
6.72576e-05
4.73676e-05
0.000188876
3.43064e-06
0.000104637
6.81174e-06
0.000103254
9.99125e-06
9.89542e-05
1.31911e-05
9.92992e-05
1.63886e-05
9.9094e-05
1.95657e-05
9.83179e-05
2.27482e-05
9.743e-05
2.59828e-05
9.65223e-05
2.93293e-05
9.55974e-05
3.28624e-05
9.46658e-05
3.66741e-05
9.37385e-05
4.08762e-05
9.28154e-05
4.56038e-05
9.18766e-05
5.10194e-05
9.08762e-05
5.73182e-05
8.97305e-05
6.47284e-05
8.83058e-05
7.35129e-05
8.63827e-05
8.39355e-05
8.36758e-05
9.61997e-05
7.9576e-05
0.000110376
7.37293e-05
0.000125388
6.4365e-05
0.000141549
5.10958e-05
3.43453e-05
0.000154572
3.25749e-06
0.00010138
6.43674e-06
0.000100075
9.4628e-06
9.59283e-05
1.25351e-05
9.62267e-05
1.56297e-05
9.59995e-05
1.87335e-05
9.52141e-05
2.18727e-05
9.42907e-05
2.509e-05
9.33049e-05
2.84386e-05
9.22488e-05
3.19835e-05
9.1121e-05
3.58027e-05
8.99193e-05
3.99888e-05
8.86293e-05
4.46489e-05
8.72165e-05
4.99047e-05
8.56205e-05
5.58904e-05
8.3745e-05
6.27468e-05
8.14495e-05
7.06055e-05
7.85242e-05
7.95739e-05
7.47075e-05
8.95951e-05
6.9555e-05
0.000100604
6.27202e-05
0.00011153
5.34395e-05
0.000121451
4.11749e-05
2.66848e-05
0.000129111
3.0907e-06
9.82889e-05
6.08641e-06
9.7079e-05
8.96432e-06
9.30503e-05
1.18995e-05
9.32914e-05
1.4873e-05
9.3026e-05
1.78752e-05
9.22119e-05
2.09307e-05
9.12352e-05
2.40773e-05
9.01581e-05
2.73608e-05
8.89652e-05
3.08355e-05
8.76462e-05
3.45652e-05
8.61896e-05
3.86226e-05
8.45719e-05
4.30881e-05
8.2751e-05
4.80476e-05
8.06611e-05
5.35861e-05
7.82066e-05
5.97807e-05
7.5255e-05
6.66794e-05
7.16256e-05
7.42878e-05
6.70992e-05
8.24637e-05
6.13792e-05
9.09928e-05
5.41912e-05
9.92184e-05
4.52139e-05
0.000106235
3.41586e-05
2.14896e-05
0.00011143
2.93244e-06
9.53563e-05
5.75084e-06
9.42605e-05
8.4807e-06
9.03203e-05
1.12688e-05
9.05034e-05
1.41041e-05
9.01907e-05
1.6979e-05
8.93369e-05
1.99155e-05
8.82985e-05
2.29462e-05
8.71273e-05
2.6109e-05
8.58022e-05
2.9448e-05
8.43071e-05
3.30129e-05
8.26246e-05
3.68586e-05
8.07262e-05
4.10423e-05
7.85673e-05
4.562e-05
7.60836e-05
5.06397e-05
7.3187e-05
5.61325e-05
6.97621e-05
6.20954e-05
6.56626e-05
6.84762e-05
6.07183e-05
7.51219e-05
5.47336e-05
8.17897e-05
4.75234e-05
8.80666e-05
3.8937e-05
9.337e-05
2.88552e-05
1.7596e-05
9.72636e-05
2.78542e-06
9.25708e-05
5.4247e-06
9.16211e-05
8.0007e-06
8.77443e-05
1.06316e-05
8.78725e-05
1.33137e-05
8.75084e-05
1.60395e-05
8.6611e-05
1.88282e-05
8.55096e-05
2.17069e-05
8.42484e-05
2.4706e-05
8.2803e-05
2.78599e-05
8.11532e-05
3.12059e-05
7.92786e-05
3.47832e-05
7.7149e-05
3.863e-05
7.47206e-05
4.27792e-05
7.19345e-05
4.72522e-05
6.8714e-05
5.20513e-05
6.49631e-05
5.71465e-05
6.05674e-05
6.24646e-05
5.54002e-05
6.78673e-05
4.93308e-05
7.31463e-05
4.22445e-05
7.80099e-05
3.40733e-05
8.20779e-05
2.47873e-05
1.46334e-05
8.50406e-05
2.65027e-06
8.99204e-05
5.10507e-06
8.91661e-05
7.51552e-06
8.53339e-05
9.97886e-06
8.54091e-05
1.24946e-05
8.49925e-05
1.50537e-05
8.40518e-05
1.76722e-05
8.28909e-05
2.03721e-05
8.15484e-05
2.31769e-05
7.99982e-05
2.61121e-05
7.8218e-05
2.92045e-05
7.61863e-05
3.24803e-05
7.38732e-05
3.59627e-05
7.12383e-05
3.96679e-05
6.82293e-05
4.36003e-05
6.47816e-05
4.77456e-05
6.08177e-05
5.20634e-05
5.62496e-05
5.64784e-05
5.09852e-05
6.08719e-05
4.49373e-05
6.50779e-05
3.80385e-05
6.88862e-05
3.0265e-05
7.20488e-05
2.16248e-05
1.23054e-05
7.43769e-05
2.5242e-06
8.73961e-05
4.78891e-06
8.69013e-05
7.01768e-06
8.31051e-05
9.30188e-06
8.31247e-05
1.16395e-05
8.26548e-05
1.40172e-05
8.16739e-05
1.64486e-05
8.04595e-05
1.89505e-05
7.90465e-05
2.15405e-05
7.74082e-05
2.42368e-05
7.55217e-05
2.70571e-05
7.3366e-05
3.00173e-05
7.09129e-05
3.31295e-05
6.8126e-05
3.63982e-05
6.49605e-05
3.98172e-05
6.13625e-05
4.33645e-05
5.72704e-05
4.69971e-05
5.26171e-05
5.06465e-05
4.73359e-05
5.42149e-05
4.13689e-05
5.75765e-05
3.46769e-05
6.05859e-05
2.72555e-05
6.30862e-05
1.91246e-05
1.04241e-05
6.49677e-05
2.40131e-06
8.49947e-05
4.47139e-06
8.48312e-05
6.49979e-06
8.10766e-05
8.59147e-06
8.10329e-05
1.0739e-05
8.05073e-05
1.29221e-05
7.94907e-05
1.5152e-05
7.82297e-05
1.74411e-05
7.67574e-05
1.98023e-05
7.50471e-05
2.22475e-05
7.30764e-05
2.47872e-05
7.08262e-05
2.74294e-05
6.82705e-05
3.01779e-05
6.53775e-05
3.30292e-05
6.21091e-05
3.59709e-05
5.84209e-05
3.89776e-05
5.42637e-05
4.20085e-05
4.95863e-05
4.50044e-05
4.43399e-05
4.7888e-05
3.84853e-05
5.0566e-05
3.19988e-05
5.29392e-05
2.48823e-05
5.49079e-05
1.7156e-05
8.92138e-06
5.64107e-05
2.27366e-06
8.2721e-05
4.1464e-06
8.29584e-05
5.95433e-06
7.92686e-05
7.83812e-06
7.91491e-05
9.78182e-06
7.85636e-05
1.17561e-05
7.75164e-05
1.37699e-05
7.62159e-05
1.58321e-05
7.46952e-05
1.79519e-05
7.29272e-05
2.01361e-05
7.08922e-05
2.23893e-05
6.85729e-05
2.47135e-05
6.59462e-05
2.71062e-05
6.29849e-05
2.95586e-05
5.96568e-05
3.2054e-05
5.59256e-05
3.45661e-05
5.17516e-05
3.70571e-05
4.70953e-05
3.94765e-05
4.19205e-05
4.17621e-05
3.61996e-05
4.38438e-05
2.99171e-05
4.56507e-05
2.30753e-05
4.71147e-05
1.56921e-05
7.84416e-06
4.81921e-05
2.13191e-06
8.0589e-05
3.80545e-06
8.12848e-05
5.37343e-06
7.77006e-05
7.03291e-06
7.74897e-05
8.75639e-06
7.68401e-05
1.05053e-05
7.57674e-05
1.22866e-05
7.44344e-05