/*--------------------------------*- C++ -*----------------------------------*\
| =========                 |                                                 |
| \\      /  F ield         | OpenFOAM: The Open Source CFD Toolbox           |
|  \\    /   O peration     | Version:  2206                                  |
|   \\  /    A nd           | Website:  www.openfoam.com                      |
|    \\/     M anipulation  |                                                 |
\*---------------------------------------------------------------------------*/
FoamFile
{
    version     2.0;
    format      ascii;
    arch        "LSB;label=32;scalar=64";
    class       volVectorField;
    location    "0.825";
    object      U;
}
// * * * * * * * * * * * * * * * * * * * * * * * * * * * * * * * * * * * * * //

dimensions      [0 1 -1 0 0 0 0];

internalField   nonuniform List<vector> 
2268
(
(-0.0254298 0.0108787 0)
(-0.0878869 0.0156648 0)
(-0.158262 0.0177746 0)
(-0.232414 0.0179501 0)
(-0.289955 0.011451 0)
(-0.305026 0.0010109 0)
(-0.285361 -0.00408183 0)
(-0.268575 -0.00275428 0)
(-0.26076 -0.000976897 0)
(-0.259691 -3.15568e-05 0)
(-0.261625 0.000910203 0)
(-0.266478 0.000948636 0)
(-0.2702 -0.00217512 0)
(-0.263437 -0.00902202 0)
(-0.245998 -0.0113405 0)
(-0.245088 0.00380173 0)
(-0.298762 0.0243266 0)
(-0.372381 0.0192358 0)
(-0.366123 -0.0072996 0)
(-0.274239 -0.0281264 0)
(-0.173601 -0.0326119 0)
(-0.0789878 -0.0300405 0)
(-0.0152218 -0.0140287 0)
(-0.053555 0.0479148 0)
(-0.148843 0.0523162 0)
(-0.232209 0.0508136 0)
(-0.298282 0.0435013 0)
(-0.326201 0.0226623 0)
(-0.31602 -0.00286127 0)
(-0.295424 -0.0143158 0)
(-0.272868 -0.00995265 0)
(-0.263616 -0.00260883 0)
(-0.264698 0.00129732 0)
(-0.270026 0.00317869 0)
(-0.275113 0.00366405 0)
(-0.280446 0.00147575 0)
(-0.29134 -0.00228761 0)
(-0.316783 0.00255028 0)
(-0.355168 0.0237314 0)
(-0.37956 0.0341627 0)
(-0.346268 0.0059105 0)
(-0.247657 -0.0414996 0)
(-0.165008 -0.0665858 0)
(-0.0945839 -0.0692276 0)
(-0.0280754 -0.0613677 0)
(0.00438717 -0.0271934 0)
(-0.0592786 0.0960096 0)
(-0.149966 0.093564 0)
(-0.227414 0.0836754 0)
(-0.293708 0.0659016 0)
(-0.329399 0.0295526 0)
(-0.328633 -0.0106225 0)
(-0.305776 -0.0278577 0)
(-0.282772 -0.0192899 0)
(-0.27014 -0.00508636 0)
(-0.26664 0.00206733 0)
(-0.264072 0.00380165 0)
(-0.257876 0.00393879 0)
(-0.250395 0.00447317 0)
(-0.248729 0.00747832 0)
(-0.25808 0.0158813 0)
(-0.270491 0.0264368 0)
(-0.25582 0.0143455 0)
(-0.18997 -0.0331972 0)
(-0.116112 -0.0795796 0)
(-0.0691134 -0.0945889 0)
(-0.0240855 -0.0931513 0)
(0.0160252 -0.0760536 0)
(0.0341249 -0.0205737 0)
(-0.0545383 0.143092 0)
(-0.133428 0.132957 0)
(-0.208113 0.116292 0)
(-0.277739 0.0903315 0)
(-0.317038 0.039588 0)
(-0.317671 -0.0163845 0)
(-0.303144 -0.0403196 0)
(-0.290825 -0.0281605 0)
(-0.281427 -0.00905083 0)
(-0.277678 -6.35526e-05 0)
(-0.274343 0.00032818 0)
(-0.264597 -0.00207378 0)
(-0.247799 -0.00253023 0)
(-0.226793 0.00247196 0)
(-0.202694 0.0129567 0)
(-0.172433 0.0183074 0)
(-0.130078 -0.00256462 0)
(-0.08135 -0.0496644 0)
(-0.051778 -0.0904576 0)
(-0.039792 -0.106576 0)
(-0.00587069 -0.109376 0)
(0.0257607 -0.089008 0)
(0.0511117 -0.000169267 0)
(-0.0458929 0.184096 0)
(-0.112703 0.168869 0)
(-0.1812 0.147979 0)
(-0.243204 0.115529 0)
(-0.274904 0.0526758 0)
(-0.275529 -0.0160165 0)
(-0.279213 -0.0436617 0)
(-0.290312 -0.0300577 0)
(-0.292946 -0.00986011 0)
(-0.292086 -0.000590739 0)
(-0.289113 -0.00232427 0)
(-0.279137 -0.00891364 0)
(-0.259966 -0.0138069 0)
(-0.231755 -0.0128578 0)
(-0.193083 -0.00690951 0)
(-0.144573 -0.00683933 0)
(-0.0959533 -0.027914 0)
(-0.0638564 -0.0655201 0)
(-0.0573584 -0.0969827 0)
(-0.0562209 -0.116441 0)
(-0.023992 -0.128961 0)
(0.0023106 -0.108681 0)
(0.0516867 0.016774 0)
(-0.0351655 0.217325 0)
(-0.0871907 0.199517 0)
(-0.143109 0.173563 0)
(-0.189229 0.133887 0)
(-0.209704 0.0626545 0)
(-0.211372 -0.0108498 0)
(-0.239904 -0.0357269 0)
(-0.282464 -0.022207 0)
(-0.302696 -0.0061315 0)
(-0.308108 -0.000957477 0)
(-0.305174 -0.00604045 0)
(-0.293343 -0.0167147 0)
(-0.271637 -0.0258229 0)
(-0.241455 -0.0292853 0)
(-0.203116 -0.0284934 0)
(-0.15825 -0.0315811 0)
(-0.115948 -0.0475029 0)
(-0.089508 -0.0737316 0)
(-0.0815544 -0.09884 0)
(-0.0745099 -0.123847 0)
(-0.054667 -0.146468 0)
(-0.0511386 -0.125225 0)
(0.022729 0.0304321 0)
(-0.0219792 0.240314 0)
(-0.0584007 0.222223 0)
(-0.101797 0.191777 0)
(-0.129675 0.147067 0)
(-0.135261 0.0746919 0)
(-0.135811 0.000672259 0)
(-0.199664 -0.0199156 0)
(-0.274983 -0.005091 0)
(-0.312062 0.00429404 0)
(-0.325694 0.00238855 0)
(-0.323072 -0.0085537 0)
(-0.307778 -0.0248915 0)
(-0.281361 -0.0385847 0)
(-0.247247 -0.0451349 0)
(-0.208495 -0.0463804 0)
(-0.167584 -0.0494029 0)
(-0.129974 -0.0608136 0)
(-0.103064 -0.0800762 0)
(-0.0888656 -0.101814 0)
(-0.08076 -0.126347 0)
(-0.0832466 -0.149173 0)
(-0.109613 -0.130093 0)
(-0.0576336 0.00654337 0)
(-0.00901862 0.259184 0)
(-0.0250023 0.243398 0)
(-0.0441902 0.205894 0)
(-0.0389829 0.150156 0)
(-0.0233093 0.0759819 0)
(-0.0462281 0.023913 0)
(-0.17248 0.0285888 0)
(-0.270204 0.0323548 0)
(-0.318165 0.021208 0)
(-0.342307 0.00513627 0)
(-0.343293 -0.0148056 0)
(-0.324666 -0.0370037 0)
(-0.29118 -0.0547434 0)
(-0.250163 -0.0633535 0)
(-0.207547 -0.0652068 0)
(-0.165708 -0.0677917 0)
(-0.127574 -0.0767912 0)
(-0.0982787 -0.0917086 0)
(-0.081699 -0.107716 0)
(-0.0761509 -0.123655 0)
(-0.0896521 -0.139374 0)
(-0.130402 -0.135874 0)
(-0.109981 -0.0515282 0)
(0.0866233 -0.106748 0)
(0.269776 -0.0300183 0)
(-0.321425 0.111888 0)
(-0.402083 -0.00427601 0)
(0.164551 -0.146849 0)
(0.428909 -0.0904392 0)
(0.573532 0.0111728 0)
(0.492696 0.0824566 0)
(0.326373 0.124526 0)
(0.0437745 0.104913 0)
(-0.216465 -0.045753 0)
(-0.196696 -0.106691 0)
(-0.132929 -0.035896 0)
(-0.187111 0.0752058 0)
(-0.484651 0.0746027 0)
(-0.721629 0.0366323 0)
(-0.799291 0.0191984 0)
(-0.64153 -0.016439 0)
(-0.241998 -0.0797372 0)
(0.0116401 -0.167656 0)
(-0.105565 0.222245 0)
(-0.572656 0.176837 0)
(0.057893 -0.22072 0)
(0.41873 -0.332678 0)
(0.553726 -0.186619 0)
(0.59734 -0.0158043 0)
(0.604791 0.0605183 0)
(0.608828 0.108118 0)
(0.523704 0.170122 0)
(0.324 0.178307 0)
(0.0566962 0.0821636 0)
(-0.430811 0.0087367 0)
(-0.535588 0.144523 0)
(-0.789862 0.180877 0)
(-1.04208 0.149563 0)
(-1.1023 0.00368252 0)
(-0.774486 -0.290708 0)
(-0.194837 -0.45736 0)
(-0.182191 0.00533436 0)
(-0.462703 0.368333 0)
(-0.467035 0.0489919 0)
(0.380994 -0.528597 0)
(0.461183 -0.423447 0)
(0.47594 -0.178062 0)
(0.476338 0.00330706 0)
(0.480222 0.0744888 0)
(0.520907 0.122423 0)
(0.591594 0.202346 0)
(0.579573 0.269271 0)
(0.454868 0.286631 0)
(-0.115567 0.18875 0)
(-0.432686 0.223064 0)
(-0.554897 0.305743 0)
(-0.793395 0.178098 0)
(-0.714872 -0.108611 0)
(-0.470899 -0.517527 0)
(0.0154579 -0.713346 0)
(-0.304019 0.161129 0)
(-0.534852 0.399484 0)
(-0.0202107 -0.243012 0)
(0.300426 -0.687662 0)
(0.400191 -0.453018 0)
(0.427126 -0.145664 0)
(0.378846 0.0130346 0)
(0.327386 0.0524672 0)
(0.340287 0.0844088 0)
(0.429801 0.162676 0)
(0.50317 0.254611 0)
(0.593535 0.386757 0)
(0.381155 0.41147 0)
(-0.0382882 0.3444 0)
(-0.113607 0.367378 0)
(-0.253264 0.213216 0)
(-0.152445 -0.121531 0)
(-0.159419 -0.518391 0)
(0.161201 -0.783099 0)
(-0.359218 0.331979 0)
(-0.451455 0.346584 0)
(0.310129 -0.493313 0)
(0.21774 -0.720413 0)
(0.292149 -0.474825 0)
(0.367909 -0.137907 0)
(0.242649 0.0609025 0)
(0.122422 0.0840141 0)
(0.131057 0.0624209 0)
(0.225184 0.110354 0)
(0.312669 0.211138 0)
(0.483683 0.36635 0)
(0.630228 0.512793 0)
(0.469462 0.49087 0)
(0.409917 0.424275 0)
(0.336591 0.230895 0)
(0.419318 -0.114258 0)
(0.302493 -0.519145 0)
(0.262572 -0.700026 0)
(-0.366887 0.489429 0)
(-0.30611 0.228492 0)
(0.295455 -0.664325 0)
(0.0909369 -0.697066 0)
(0.194714 -0.54845 0)
(0.392266 -0.123294 0)
(0.130328 0.0714808 0)
(-0.0963126 0.0307484 0)
(-0.0562774 0.0139352 0)
(0.0177 0.0299524 0)
(0.105982 0.0978898 0)
(0.255938 0.206815 0)
(0.557629 0.410587 0)
(0.699564 0.491723 0)
(0.787732 0.439309 0)
(0.863094 0.279573 0)
(0.875615 0.0015373 0)
(0.673274 -0.363758 0)
(0.352968 -0.51818 0)
(-0.382209 0.628655 0)
(-0.168762 0.0957276 0)
(0.0926425 -0.740317 0)
(-0.116406 -0.728757 0)
(0.235251 -0.628188 0)
(0.509757 -0.0139631 0)
(0.257797 0.268309 0)
(-0.0297662 0.193823 0)
(-0.185056 0.085248 0)
(-0.522568 0.0874187 0)
(-0.385577 0.161728 0)
(-0.0132722 0.151225 0)
(0.345452 0.279969 0)
(0.605303 0.367967 0)
(0.778137 0.334585 0)
(0.917694 0.205071 0)
(0.968272 0.0367247 0)
(0.790924 -0.163726 0)
(0.395532 -0.261182 0)
(-0.336394 0.800152 0)
(-0.121177 0.0185568 0)
(-0.145055 -0.721878 0)
(-0.328183 -0.807719 0)
(0.145238 -0.654914 0)
(0.128719 -0.090536 0)
(0.496554 0.387161 0)
(0.390855 0.377886 0)
(0.00902268 0.198284 0)
(-0.47365 0.176044 0)
(-0.534535 -0.0129362 0)
(-0.0798799 -0.319691 0)
(0.200332 0.133511 0)
(0.432234 0.261264 0)
(0.528748 0.234766 0)
(0.629601 0.11959 0)
(0.724081 0.0435888 0)
(0.608421 -0.0382304 0)
(0.330498 -0.0286521 0)
(0.0246751 0.224801 0)
(0.0330027 0.229685 0)
(0.0187843 0.190246 0)
(-0.0156761 0.1551 0)
(-0.0978793 0.12208 0)
(-0.194277 0.103798 0)
(-0.263645 0.0921624 0)
(-0.308104 0.0727556 0)
(-0.340207 0.0504463 0)
(-0.362755 0.0204587 0)
(-0.363393 -0.0203121 0)
(-0.334589 -0.0655291 0)
(-0.285909 -0.0960911 0)
(-0.233579 -0.106839 0)
(-0.185002 -0.106494 0)
(-0.141334 -0.105552 0)
(-0.104539 -0.108175 0)
(-0.0790692 -0.113002 0)
(-0.0679223 -0.115787 0)
(-0.0657093 -0.118757 0)
(-0.0724137 -0.127194 0)
(-0.0856054 -0.139666 0)
(-0.0477977 -0.130416 0)
(-0.113864 0.216354 0)
(-0.129387 0.242038 0)
(-0.245507 0.230256 0)
(-0.319295 0.217595 0)
(-0.372978 0.179151 0)
(-0.389373 0.134602 0)
(-0.386078 0.107601 0)
(-0.383349 0.087863 0)
(-0.386966 0.0655572 0)
(-0.392353 0.0223308 0)
(-0.386639 -0.0471716 0)
(-0.356491 -0.106768 0)
(-0.30537 -0.137496 0)
(-0.246511 -0.144875 0)
(-0.192524 -0.140662 0)
(-0.149824 -0.133822 0)
(-0.117961 -0.126975 0)
(-0.0953461 -0.120463 0)
(-0.0830148 -0.112348 0)
(-0.0789593 -0.109844 0)
(-0.0774289 -0.125858 0)
(-0.062497 -0.176899 0)
(0.00485222 -0.251717 0)
(-0.389305 0.43306 0)
(-0.444055 0.386711 0)
(-0.631618 0.341106 0)
(-0.720589 0.259083 0)
(-0.747733 0.174403 0)
(-0.747486 0.110144 0)
(-0.749589 0.0773205 0)
(-0.776456 0.06567 0)
(-0.825326 0.067178 0)
(-0.866461 0.0563408 0)
(-0.870495 0.00247821 0)
(-0.848749 -0.0874765 0)
(-0.760955 -0.15693 0)
(-0.644205 -0.183758 0)
(-0.542887 -0.17804 0)
(-0.467107 -0.160695 0)
(-0.405083 -0.144822 0)
(-0.329103 -0.134707 0)
(-0.24292 -0.121131 0)
(-0.190167 -0.109167 0)
(-0.180883 -0.119326 0)
(-0.173012 -0.196016 0)
(-0.15869 -0.297157 0)
(-1.40295 1.40905 0)
(-2.27871 0.750258 0)
(-2.60393 0.491548 0)
(-2.72037 0.311479 0)
(-2.72407 0.206283 0)
(-2.68137 0.151253 0)
(-2.66366 0.148992 0)
(-2.65361 0.173471 0)
(-2.56769 0.164564 0)
(-2.36311 0.0274017 0)
(-2.09538 -0.192748 0)
(-1.82404 -0.37504 0)
(-1.57113 -0.440685 0)
(-1.37003 -0.411099 0)
(-1.20817 -0.343481 0)
(-1.10015 -0.274974 0)
(-1.02198 -0.249491 0)
(-0.889382 -0.290172 0)
(-0.674352 -0.281109 0)
(-0.497726 -0.189846 0)
(-0.424093 -0.124729 0)
(-0.42083 -0.184262 0)
(-0.535663 -0.159577 0)
(-0.834587 2.77225 0)
(-1.58012 1.54622 0)
(-2.02309 0.837207 0)
(-2.28864 0.406327 0)
(-2.53472 0.161886 0)
(-2.61891 0.0489213 0)
(-2.6148 -0.00813079 0)
(-2.47528 -0.0692063 0)
(-2.27912 -0.203329 0)
(-2.10316 -0.383555 0)
(-1.92374 -0.53837 0)
(-1.80983 -0.623104 0)
(-1.73057 -0.617439 0)
(-1.6058 -0.554696 0)
(-1.46015 -0.441438 0)
(-1.37432 -0.33889 0)
(-1.33496 -0.353562 0)
(-1.21769 -0.514821 0)
(-1.03892 -0.52408 0)
(-0.875203 -0.397469 0)
(-0.757953 -0.233113 0)
(-0.734705 -0.126714 0)
(-0.841274 0.0321639 0)
(-0.362322 3.72207 0)
(-0.596225 2.39636 0)
(-0.964249 1.38712 0)
(-1.14106 0.795715 0)
(-1.26154 0.418558 0)
(-1.24972 0.129486 0)
(-1.13918 -0.0754664 0)
(-0.969832 -0.153552 0)
(-0.615918 -0.171553 0)
(-0.600316 -0.271783 0)
(-1.01692 -0.35801 0)
(-1.32526 -0.540664 0)
(-1.51619 -0.642066 0)
(-1.53439 -0.659792 0)
(-1.44845 -0.591183 0)
(-1.35989 -0.481275 0)
(-1.34779 -0.438906 0)
(-1.27378 -0.630725 0)
(-1.17706 -0.623879 0)
(-1.06857 -0.469457 0)
(-0.986915 -0.242177 0)
(-0.987032 -0.0142721 0)
(-1.06583 0.245257 0)
(-0.0886608 3.95256 0)
(0.0254035 2.69883 0)
(-0.236413 1.62235 0)
(-0.320176 0.918898 0)
(-0.385777 0.451463 0)
(-0.406222 0.113071 0)
(-0.459399 -0.145483 0)
(-0.569853 -0.339035 0)
(-0.697924 -0.353362 0)
(-0.744874 -0.091829 0)
(-0.609495 0.0951004 0)
(-0.553539 -0.228485 0)
(-0.847115 -0.422502 0)
(-1.09784 -0.643366 0)
(-1.14991 -0.686116 0)
(-1.00076 -0.372672 0)
(-1.09539 -0.367068 0)
(-1.16431 -0.691064 0)
(-1.22287 -0.69571 0)
(-1.21132 -0.53916 0)
(-1.15937 -0.26626 0)
(-1.14338 0.0242763 0)
(-1.1616 0.333494 0)
(0.0680596 3.64579 0)
(0.35087 2.74443 0)
(0.151045 1.64105 0)
(0.150882 0.94661 0)
(0.115282 0.44657 0)
(0.103621 0.135266 0)
(0.0727966 -0.0316218 0)
(-0.0131232 -0.119955 0)
(-0.161059 -0.170479 0)
(-0.311949 -0.223024 0)
(-0.408999 -0.269294 0)
(-0.511999 -0.174265 0)
(-0.603703 -0.0390673 0)
(-0.650568 -0.43483 0)
(-0.917262 -0.63093 0)
(-1.04784 -0.343607 0)
(-1.01785 -0.244643 0)
(-1.07365 -0.494848 0)
(-1.21051 -0.641028 0)
(-1.29359 -0.538466 0)
(-1.26223 -0.287476 0)
(-1.19569 -0.00182787 0)
(-1.12807 0.3373 0)
(0.171577 3.20314 0)
(0.51555 2.74168 0)
(0.322054 1.63293 0)
(0.327516 0.930105 0)
(0.300349 0.427306 0)
(0.289569 0.125192 0)
(0.277939 -0.011177 0)
(0.235344 -0.0491652 0)
(0.158152 -0.0382718 0)
(0.0567838 -0.00782225 0)
(-0.0730879 -0.00317325 0)
(-0.224387 -0.0458533 0)
(-0.341695 -0.15313 0)
(-0.573019 -0.273315 0)
(-0.904684 -0.321607 0)
(-1.03066 -0.333631 0)
(-1.08962 -0.319753 0)
(-1.16374 -0.405729 0)
(-1.30641 -0.548654 0)
(-1.39827 -0.579938 0)
(-1.38335 -0.381784 0)
(-1.24869 -0.0831553 0)
(-1.08899 0.215373 0)
(0.256369 2.72777 0)
(0.625336 2.75274 0)
(0.466762 1.73307 0)
(0.399533 0.956086 0)
(0.359326 0.425359 0)
(0.338837 0.115116 0)
(0.325785 -0.000771756 0)
(0.295305 -0.00407367 0)
(0.238525 0.0277844 0)
(0.168915 0.0615354 0)
(0.0859246 0.0853448 0)
(-0.0107607 0.10666 0)
(-0.113312 0.119874 0)
(-0.28079 0.0568464 0)
(-0.571558 -0.0725237 0)
(-0.845835 -0.15798 0)
(-1.07877 -0.208863 0)
(-1.25815 -0.301217 0)
(-1.38377 -0.390418 0)
(-1.41184 -0.412166 0)
(-1.49832 -0.46748 0)
(-1.37179 -0.299428 0)
(-1.14474 0.0504619 0)
(0.310275 2.18599 0)
(0.719275 2.67076 0)
(0.674747 1.89342 0)
(0.570588 1.07816 0)
(0.499525 0.485936 0)
(0.441207 0.144497 0)
(0.384036 0.0332732 0)
(0.323337 0.0504715 0)
(0.251 0.0925078 0)
(0.179315 0.127396 0)
(0.112498 0.158818 0)
(0.0361462 0.184679 0)
(-0.0457909 0.196395 0)
(-0.148714 0.213246 0)
(-0.324085 0.221999 0)
(-0.572567 0.158677 0)
(-0.918642 0.0287597 0)
(-1.24522 -0.127935 0)
(-1.42707 -0.304051 0)
(-1.42088 -0.400226 0)
(-1.29561 -0.490924 0)
(-1.14141 -0.479364 0)
(-0.966658 -0.289707 0)
(0.282769 1.61562 0)
(0.729237 2.41569 0)
(0.834857 1.94981 0)
(0.789109 1.2067 0)
(0.708272 0.592481 0)
(0.598341 0.234347 0)
(0.474605 0.121633 0)
(0.364435 0.140673 0)
(0.265418 0.17809 0)
(0.177503 0.201972 0)
(0.10556 0.228125 0)
(0.03728 0.252817 0)
(-0.0300647 0.266682 0)
(-0.0984329 0.304071 0)
(-0.179934 0.375112 0)
(-0.302257 0.410993 0)
(-0.517691 0.346219 0)
(-0.849154 0.107797 0)
(-1.10708 -0.27153 0)
(-1.00088 -0.593919 0)
(-0.829476 -0.711282 0)
(-0.691778 -0.591454 0)
(-0.519978 -0.380951 0)
(0.152732 1.1592 0)
(0.596139 2.05854 0)
(0.820295 1.84169 0)
(0.877826 1.24345 0)
(0.828892 0.693638 0)
(0.696047 0.367739 0)
(0.534197 0.259007 0)
(0.396083 0.262341 0)
(0.284751 0.281348 0)
(0.189397 0.287811 0)
(0.111707 0.299607 0)
(0.0484525 0.317568 0)
(-0.00866638 0.331113 0)
(-0.064947 0.367041 0)
(-0.107245 0.443027 0)
(-0.14677 0.519227 0)
(-0.21267 0.538607 0)
(-0.381037 0.370249 0)
(-0.629736 -0.0177779 0)
(-0.737708 -0.483213 0)
(-0.72639 -0.767801 0)
(-0.666546 -0.733556 0)
(-0.557426 -0.545545 0)
(-0.00392969 0.914155 0)
(0.371663 1.70082 0)
(0.647267 1.62177 0)
(0.789747 1.19072 0)
(0.788971 0.767359 0)
(0.675177 0.509085 0)
(0.525836 0.408186 0)
(0.397854 0.38801 0)
(0.296651 0.384186 0)
(0.20942 0.374582 0)
(0.134889 0.370621 0)
(0.0760572 0.376992 0)
(0.0251509 0.387497 0)
(-0.0268716 0.416731 0)
(-0.0632233 0.477304 0)
(-0.0807264 0.546918 0)
(-0.0893531 0.590781 0)
(-0.147258 0.501922 0)
(-0.339889 0.178003 0)
(-0.571945 -0.304776 0)
(-0.776978 -0.733923 0)
(-0.795956 -0.773176 0)
(-0.714047 -0.619738 0)
(-0.0894579 0.838835 0)
(0.168405 1.38762 0)
(0.435475 1.37085 0)
(0.608526 1.09427 0)
(0.642321 0.808374 0)
(0.571287 0.62206 0)
(0.466726 0.530187 0)
(0.372789 0.491126 0)
(0.295561 0.469985 0)
(0.226352 0.450175 0)
(0.162923 0.435299 0)
(0.109422 0.431167 0)
(0.0622609 0.438117 0)
(0.013414 0.462047 0)
(-0.0260673 0.506791 0)
(-0.0496453 0.557435 0)
(-0.0598977 0.599247 0)
(-0.0860263 0.573701 0)
(-0.22766 0.34698 0)
(-0.433853 -0.119998 0)
(-0.591826 -0.554362 0)
(-0.777131 -0.848137 0)
(-0.747359 -0.782716 0)
(-0.0861853 0.845358 0)
(0.0609354 1.15722 0)
(0.275165 1.15163 0)
(0.428606 0.990484 0)
(0.477238 0.816297 0)
(0.448932 0.688315 0)
(0.392214 0.608185 0)
(0.334866 0.561446 0)
(0.283185 0.532217 0)
(0.233694 0.50859 0)
(0.184518 0.489508 0)
(0.138197 0.480083 0)
(0.0945295 0.484708 0)
(0.0502419 0.505276 0)
(0.0107433 0.540123 0)
(-0.019481 0.577336 0)
(-0.0404793 0.61807 0)
(-0.0617235 0.638222 0)
(-0.16375 0.484663 0)
(-0.324247 0.0712101 0)
(-0.4369 -0.352841 0)
(-0.588282 -0.673382 0)
(-0.607383 -0.840403 0)
(-0.0443554 0.864482 0)
(0.0375634 1.01642 0)
(0.182541 0.99012 0)
(0.297078 0.899959 0)
(0.346909 0.799962 0)
(0.347498 0.713521 0)
(0.325144 0.647902 0)
(0.295259 0.603076 0)
(0.263828 0.573091 0)
(0.230848 0.550223 0)
(0.19514 0.532132 0)
(0.157463 0.522545 0)
(0.119185 0.526522 0)
(0.0812515 0.544825 0)
(0.0467715 0.573989 0)
(0.0178693 0.604804 0)
(-0.00639798 0.643154 0)
(-0.0178827 0.690655 0)
(-0.0874481 0.600996 0)
(-0.226142 0.202993 0)
(-0.359775 -0.233929 0)
(-0.448376 -0.58122 0)
(-0.478438 -0.797515 0)
(-0.00701275 0.858786 0)
(0.0469952 0.933625 0)
(0.137381 0.882667 0)
(0.216979 0.82996 0)
(0.260753 0.772693 0)
(0.27531 0.714189 0)
(0.272177 0.663286 0)
(0.25933 0.625065 0)
(0.241785 0.598211 0)
(0.220947 0.578455 0)
(0.196262 0.56397 0)
(0.167647 0.557101 0)
(0.136819 0.561612 0)
(0.106548 0.577923 0)
(0.0793855 0.60299 0)
(0.056573 0.630319 0)
(0.0343676 0.662133 0)
(0.0299186 0.715682 0)
(-0.00109476 0.692539 0)
(-0.145087 0.334889 0)
(-0.306097 -0.1074 0)
(-0.361086 -0.557859 0)
(-0.442184 -0.7453 0)
(0.0114023 0.831083 0)
(0.0557306 0.874717 0)
(0.116149 0.812469 0)
(0.171215 0.778357 0)
(0.206974 0.744176 0)
(0.226038 0.703994 0)
(0.232041 0.66569 0)
(0.228976 0.635043 0)
(0.220517 0.612678 0)
(0.208264 0.596769 0)
(0.192165 0.586432 0)
(0.172117 0.582962 0)
(0.149625 0.588453 0)
(0.127386 0.603037 0)
(0.107377 0.624786 0)
(0.0904842 0.649585 0)
(0.0720412 0.67484 0)
(0.0638856 0.722649 0)
(0.0650287 0.756149 0)
(-0.0684695 0.495616 0)
(-0.225521 0.0594084 0)
(-0.344537 -0.524932 0)
(-0.458841 -0.683016 0)
(0.0162004 0.79597 0)
(0.0562885 0.825537 0)
(0.103024 0.763388 0)
(0.142975 0.739745 0)
(0.172154 0.718256 0)
(0.191726 0.689963 0)
(0.201895 0.661447 0)
(0.204623 0.637665 0)
(0.202313 0.619857 0)
(0.196346 0.607661 0)
(0.187054 0.600942 0)
(0.174625 0.60037 0)
(0.160185 0.606862 0)
(0.145582 0.62039 0)
(0.13197 0.640034 0)
(0.119729 0.663712 0)
(0.105602 0.686508 0)
(0.0907388 0.726269 0)
(0.100356 0.79687 0)
(0.00111977 0.656426 0)
(-0.154494 0.244866 0)
(-0.347997 -0.406312 0)
(-0.487237 -0.565724 0)
(0.015495 0.762279 0)
(0.052017 0.781879 0)
(0.0918361 0.725364 0)
(0.123054 0.709197 0)
(0.147953 0.695129 0)
(0.167019 0.674642 0)
(0.179359 0.653436 0)
(0.185918 0.635349 0)
(0.188161 0.621634 0)
(0.18719 0.612658 0)
(0.183582 0.608724 0)
(0.177781 0.61025 0)
(0.170582 0.61763 0)
(0.163005 0.630904 0)
(0.155531 0.649887 0)
(0.147924 0.674043 0)
(0.138438 0.699035 0)
(0.120987 0.734076 0)
(0.121794 0.819331 0)
(0.0668145 0.795749 0)
(-0.0959022 0.409331 0)
(-0.348294 -0.265424 0)
(-0.50247 -0.437171 0)
(0.0138386 0.731928 0)
(0.0467695 0.742867 0)
(0.0816663 0.693602 0)
(0.107866 0.683352 0)
(0.13026 0.673906 0)
(0.148836 0.658713 0)
(0.162593 0.642896 0)
(0.171996 0.629316 0)
(0.177924 0.619022 0)
(0.181236 0.612645 0)
(0.1826 0.610699 0)
(0.182591 0.613581 0)
(0.181801 0.621617 0)
(0.180766 0.635073 0)
(0.179628 0.654292 0)
(0.177838 0.679747 0)
(0.174213 0.709487 0)
(0.161706 0.745916 0)
(0.15217 0.830699 0)
(0.136915 0.897806 0)
(-0.00496912 0.649636 0)
(-0.301387 -0.0568493 0)
(-0.488776 -0.294754 0)
(0.0126031 0.704505 0)
(0.0421963 0.70835 0)
(0.0728308 0.66596 0)
(0.0960794 0.660244 0)
(0.117014 0.65382 0)
(0.135281 0.642335 0)
(0.150109 0.630447 0)
(0.161761 0.620283 0)
(0.170796 0.612657 0)
(0.177884 0.608221 0)
(0.183677 0.607565 0)
(0.18879 0.611158 0)
(0.19375 0.619437 0)
(0.198959 0.632921 0)
(0.204561 0.652361 0)
(0.210233 0.678888 0)
(0.215017 0.713171 0)
(0.214881 0.755817 0)
(0.207317 0.835741 0)
(0.21613 0.959021 0)
(0.145313 0.885667 0)
(-0.248849 0.104673 0)
(-0.444585 -0.161554 0)
(0.0118418 0.679304 0)
(0.0385276 0.677955 0)
(0.0654885 0.641281 0)
(0.0869423 0.638804 0)
(0.106951 0.63442 0)
(0.125039 0.625574 0)
(0.140709 0.61649 0)
(0.154157 0.608782 0)
(0.165792 0.603066 0)
(0.176157 0.599918 0)
(0.185851 0.599926 0)
(0.195497 0.603611 0)
(0.205665 0.611521 0)
(0.216877 0.624343 0)
(0.229557 0.64308 0)
(0.244064 0.669268 0)
(0.260308 0.705222 0)
(0.278166 0.7533 0)
(0.294132 0.828239 0)
(0.325514 0.968429 0)
(0.405073 1.07849 0)
(0.0551321 0.400619 0)
(-0.286046 0.016279 0)
(0.0113524 0.655779 0)
(0.0355812 0.651045 0)
(0.0595472 0.618791 0)
(0.0798313 0.618463 0)
(0.0991638 0.615472 0)
(0.117135 0.608491 0)
(0.133453 0.60134 0)
(0.148305 0.595278 0)
(0.162044 0.590764 0)
(0.175141 0.588278 0)
(0.188153 0.588349 0)
(0.201717 0.591493 0)
(0.216506 0.598268 0)
(0.233266 0.609375 0)
(0.252858 0.625813 0)
(0.27647 0.649116 0)
(0.305572 0.681793 0)
(0.343011 0.727396 0)
(0.39352 0.792006 0)
(0.46196 0.901396 0)
(0.642007 1.09031 0)
(0.626431 0.793254 0)
(0.192857 0.243891 0)
(0.0109766 0.633601 0)
(0.0331582 0.626932 0)
(0.0547787 0.59795 0)
(0.0742041 0.598934 0)
(0.0929709 0.596874 0)
(0.110828 0.59117 0)
(0.12761 0.585277 0)
(0.143514 0.580202 0)
(0.158874 0.576277 0)
(0.174127 0.573882 0)
(0.18981 0.573453 0)
(0.206579 0.575427 0)
(0.225201 0.580267 0)
(0.246615 0.588516 0)
(0.272042 0.600891 0)
(0.303269 0.618413 0)
(0.342869 0.642631 0)
(0.395406 0.675606 0)
(0.468207 0.719368 0)
(0.570213 0.773862 0)
(0.753305 0.888797 0)
(0.975731 0.855568 0)
(0.902085 0.424043 0)
(0.010628 0.612583 0)
(0.0311086 0.605012 0)
(0.0509102 0.578395 0)
(0.0696146 0.580084 0)
(0.0878513 0.578603 0)
(0.105549 0.573721 0)
(0.122608 0.56857 0)
(0.139237 0.563966 0)
(0.155761 0.560133 0)
(0.172594 0.55735 0)
(0.190259 0.555942 0)
(0.209411 0.556219 0)
(0.23085 0.558471 0)
(0.255584 0.562975 0)
(0.28494 0.570006 0)
(0.320834 0.579817 0)
(0.365763 0.5926 0)
(0.424535 0.607993 0)
(0.500563 0.624734 0)
(0.607759 0.634466 0)
(0.748272 0.638462 0)
(0.974717 0.620738 0)
(1.10964 0.418613 0)
(0.01027 0.592614 0)
(0.0293204 0.584812 0)
(0.0476893 0.559895 0)
(0.0657174 0.561863 0)
(0.083414 0.560687 0)
(0.10087 0.556277 0)
(0.118013 0.551478 0)
(0.135057 0.546959 0)
(0.152314 0.542846 0)
(0.170171 0.539323 0)
(0.189124 0.536597 0)
(0.209792 0.534838 0)
(0.232931 0.534149 0)
(0.259479 0.534534 0)
(0.290621 0.535855 0)
(0.327994 0.537728 0)
(0.373386 0.539334 0)
(0.430421 0.539057 0)
(0.499565 0.533198 0)
(0.590849 0.517107 0)
(0.694046 0.470869 0)
(0.83511 0.403836 0)
(0.980471 0.280188 0)
(0.00988924 0.57363 0)
(0.0277073 0.56599 0)
(0.0449134 0.542315 0)
(0.062259 0.544269 0)
(0.0793748 0.543186 0)
(0.0964818 0.538985 0)
(0.113508 0.534256 0)
(0.130671 0.529545 0)
(0.148259 0.524902 0)
(0.166625 0.520419 0)
(0.186215 0.5162 0)
(0.20758 0.512291 0)
(0.231379 0.508637 0)
(0.258391 0.505044 0)
(0.289547 0.501109 0)
(0.326044 0.49613 0)
(0.369015 0.488877 0)
(0.420479 0.477624 0)
(0.480381 0.458458 0)
(0.552337 0.429308 0)
(0.631216 0.376671 0)
(0.712726 0.299028 0)
(0.803017 0.197512 0)
(0.00948179 0.55559 0)
(0.0262094 0.548317 0)
(0.0424299 0.52558 0)
(0.0590627 0.527333 0)
(0.0755375 0.526187 0)
(0.0921731 0.522004 0)
(0.108887 0.517147 0)
(0.12589 0.512066 0)
(0.143445 0.506745 0)
(0.161857 0.501203 0)
(0.181512 0.49546 0)
(0.202875 0.489469 0)
(0.226481 0.48307 0)
(0.252934 0.475957 0)
(0.282908 0.467616 0)
(0.317187 0.457261 0)
(0.356457 0.443671 0)
(0.401565 0.425323 0)
(0.45243 0.399332 0)
(0.509121 0.363821 0)
(0.569664 0.313079 0)
(0.625245 0.243248 0)
(0.676986 0.158247 0)
(0.00905291 0.538464 0)
(0.024796 0.53166 0)
(0.040124 0.509647 0)
(0.0560096 0.511105 0)
(0.0717736 0.509789 0)
(0.0878143 0.505492 0)
(0.104033 0.500383 0)
(0.120627 0.49483 0)
(0.137826 0.488768 0)
(0.155888 0.482162 0)
(0.175132 0.474968 0)
(0.195931 0.467079 0)
(0.218703 0.458278 0)
(0.243885 0.44821 0)
(0.271937 0.436343 0)
(0.303321 0.42192 0)
(0.338387 0.403871 0)
(0.377334 0.380887 0)
(0.419855 0.351029 0)
(0.464971 0.31253 0)
(0.511025 0.262895 0)
(0.552509 0.199841 0)
(0.587224 0.126155 0)
(0.00862078 0.522217 0)
(0.0234615 0.515963 0)
(0.0379085 0.494505 0)
(0.0530192 0.495643 0)
(0.0680006 0.49409 0)
(0.0833324 0.489601 0)
(0.0988934 0.484171 0)
(0.114862 0.478107 0)
(0.131437 0.471306 0)
(0.148824 0.463695 0)
(0.16728 0.455191 0)
(0.187092 0.445649 0)
(0.208568 0.434827 0)
(0.232009 0.422366 0)
(0.257698 0.407761 0)
(0.285869 0.390333 0)
(0.31662 0.369193 0)
(0.349829 0.343279 0)
(0.384999 0.311284 0)
(0.421057 0.271942 0)
(0.456451 0.224066 0)
(0.487997 0.166759 0)
(0.513891 0.102158 0)
(0.00821402 0.506799 0)
(0.0222112 0.501223 0)
(0.0357193 0.48017 0)
(0.0500328 0.481003 0)
(0.0641601 0.479181 0)
(0.0786863 0.474459 0)
(0.093454 0.468687 0)
(0.108624 0.462117 0)
(0.124363 0.454627 0)
(0.140827 0.446116 0)
(0.158215 0.436478 0)
(0.17674 0.42555 0)
(0.196616 0.413089 0)
(0.218033 0.398757 0)
(0.241145 0.382104 0)
(0.26603 0.362555 0)
(0.292632 0.339403 0)
(0.320689 0.311846 0)
(0.34966 0.279024 0)
(0.378606 0.24016 0)
(0.406265 0.194734 0)
(0.430543 0.14247 0)
(0.450252 0.08492 0)
(0.00785994 0.492142 0)
(0.0210421 0.487465 0)
(0.0335151 0.466692 0)
(0.0470013 0.46724 0)
(0.0602035 0.465136 0)
(0.0738468 0.460175 0)
(0.0877127 0.454068 0)
(0.101953 0.447032 0)
(0.116699 0.438931 0)
(0.132067 0.429647 0)
(0.148204 0.419065 0)
(0.165256 0.40702 0)
(0.183364 0.393281 0)
(0.202634 0.377545 0)
(0.223129 0.359429 0)
(0.244833 0.338464 0)
(0.267611 0.314108 0)
(0.291159 0.285778 0)
(0.314971 0.252909 0)
(0.33827 0.215039 0)
(0.360089 0.171958 0)
(0.378998 0.123646 0)
(0.394267 0.0712649 0)
(0.00757092 0.478188 0)
(0.0199313 0.474722 0)
(0.0312693 0.454149 0)
(0.0438778 0.454411 0)
(0.0560828 0.452022 0)
(0.0687811 0.446834 0)
(0.0816576 0.440419 0)
(0.0948703 0.432973 0)
(0.108518 0.42435 0)
(0.122678 0.414429 0)
(0.137456 0.403091 0)
(0.152947 0.390179 0)
(0.169228 0.375484 0)
(0.186349 0.358742 0)
(0.20431 0.339633 0)
(0.223043 0.317785 0)
(0.242379 0.292785 0)
(0.262024 0.264214 0)
(0.281537 0.231693 0)
(0.300304 0.194953 0)
(0.317615 0.153934 0)
(0.332523 0.108738 0)
(0.344617 0.0602552 0)
(0.0073402 0.464897 0)
(0.0188385 0.463021 0)
(0.028957 0.442635 0)
(0.0406134 0.442583 0)
(0.0517454 0.439902 0)
(0.0634419 0.434508 0)
(0.0752501 0.427822 0)
(0.0873572 0.420025 0)
(0.0998271 0.410972 0)
(0.112707 0.40054 0)
(0.12607 0.388618 0)
(0.139965 0.375059 0)
(0.154429 0.35968 0)
(0.169464 0.342255 0)
(0.185031 0.322521 0)
(0.201036 0.300182 0)
(0.217304 0.274923 0)
(0.233567 0.246441 0)
(0.249461 0.214482 0)
(0.264514 0.178889 0)
(0.278215 0.139669 0)
(0.289945 0.0969426 0)
(0.299496 0.0513609 0)
(0.00714452 0.452273 0)
(0.0177145 0.452385 0)
(0.0265502 0.43226 0)
(0.0371599 0.431837 0)
(0.0471345 0.428845 0)
(0.0577664 0.42327 0)
(0.0684218 0.416351 0)
(0.0793479 0.408264 0)
(0.0905673 0.398863 0)
(0.102104 0.388034 0)
(0.114006 0.375676 0)
(0.126289 0.361657 0)
(0.138953 0.345817 0)
(0.151969 0.327967 0)
(0.165274 0.307892 0)
(0.178754 0.285353 0)
(0.192241 0.26011 0)
(0.205496 0.231939 0)
(0.218217 0.200665 0)
(0.230038 0.166193 0)
(0.240583 0.128538 0)
(0.249423 0.0878046 0)
(0.256446 0.0444626 0)
(0.0069429 0.440353 0)
(0.0164967 0.442808 0)
(0.0240141 0.423126 0)
(0.0334742 0.422253 0)
(0.0421946 0.418924 0)
(0.0516863 0.413196 0)
(0.0610909 0.406082 0)
(0.0707535 0.39776 0)
(0.0806394 0.388085 0)
(0.0907608 0.376957 0)
(0.101144 0.364289 0)
(0.111776 0.349964 0)
(0.122632 0.333847 0)
(0.133657 0.315781 0)
(0.144768 0.295587 0)
(0.155841 0.273076 0)
(0.16671 0.248059 0)
(0.17716 0.220368 0)
(0.186927 0.189879 0)
(0.195718 0.156521 0)
(0.203242 0.1203 0)
(0.209191 0.0812955 0)
(0.213526 0.0398616 0)
(0.00670281 0.429291 0)
(0.0151541 0.434364 0)
(0.021345 0.415357 0)
(0.0295527 0.413944 0)
(0.0369174 0.410262 0)
(0.0451912 0.404412 0)
(0.0532441 0.397142 0)
(0.0615645 0.388643 0)
(0.070031 0.378761 0)
(0.0786604 0.367425 0)
(0.0874593 0.354559 0)
(0.0963874 0.340063 0)
(0.1054 0.323828 0)
(0.114426 0.305722 0)
(0.123362 0.2856 0)
(0.13208 0.263308 0)
(0.140415 0.238697 0)
(0.148163 0.211643 0)
(0.15509 0.182047 0)
(0.160956 0.149847 0)
(0.165534 0.115022 0)
(0.168621 0.0776183 0)
(0.170267 0.0378803 0)
(0.00632472 0.418941 0)
(0.0135341 0.426828 0)
(0.0184336 0.408939 0)
(0.0252886 0.406872 0)
(0.031195 0.402836 0)
(0.038155 0.396868 0)
(0.0447445 0.389473 0)
(0.0516358 0.380837 0)
(0.0585838 0.370806 0)
(0.0656359 0.359341 0)
(0.072771 0.346372 0)
(0.0799305 0.331822 0)
(0.0870571 0.315604 0)
(0.094065 0.297609 0)
(0.100847 0.277719 0)
(0.107273 0.255808 0)
(0.113183 0.231764 0)
(0.118389 0.205486 0)
(0.122687 0.17689 0)
(0.125888 0.1459 0)
(0.127826 0.112453 0)
(0.128398 0.0765194 0)
(0.127794 0.0381697 0)
(0.00603258 0.410734 0)
(0.0121327 0.421236 0)
(0.0158179 0.404358 0)
(0.0213432 0.401632 0)
(0.0258837 0.397329 0)
(0.0316353 0.391296 0)
(0.0368603 0.383829 0)
(0.0424439 0.375129 0)
(0.0479895 0.365024 0)
(0.0535984 0.35352 0)
(0.0592121 0.340547 0)
(0.0647621 0.32605 0)
(0.0701829 0.309961 0)
(0.0753833 0.292188 0)
(0.0802559 0.27263 0)