/*--------------------------------*- C++ -*----------------------------------*\
| =========                 |                                                 |
| \\      /  F ield         | OpenFOAM: The Open Source CFD Toolbox           |
|  \\    /   O peration     | Version:  2206                                  |
|   \\  /    A nd           | Website:  www.openfoam.com                      |
|    \\/     M anipulation  |                                                 |
\*---------------------------------------------------------------------------*/
FoamFile
{
    version     2.0;
    format      ascii;
    arch        "LSB;label=32;scalar=64";
    class       surfaceScalarField;
    location    "0.35";
    object      alphaPhi0.water;
}
// * * * * * * * * * * * * * * * * * * * * * * * * * * * * * * * * * * * * * //

dimensions      [0 3 -1 0 0 0 0];

oriented        oriented;

internalField   nonuniform List<scalar> 
4432
(
-2.21334e-06
2.21334e-06
1.84122e-07
-2.39746e-06
5.68218e-06
-5.49805e-06
1.23061e-05
-6.6239e-06
1.85762e-05
-6.2701e-06
2.38602e-05
-5.28402e-06
2.80898e-05
-4.22959e-06
3.14463e-05
-3.35653e-06
3.41569e-05
-2.71053e-06
3.63949e-05
-2.23803e-06
3.82431e-05
-1.84823e-06
3.96936e-05
-1.45045e-06
4.06378e-05
-9.44193e-07
4.0846e-05
-2.0824e-07
3.98178e-05
1.02816e-06
3.6692e-05
3.1258e-06
3.04893e-05
6.20275e-06
2.02952e-05
1.01941e-05
6.74833e-06
1.35469e-05
-6.01524e-06
1.38453e-05
-1.40158e-05
7.78192e-06
-1.48193e-05
5.8948e-07
-1.72596e-05
-2.1851e-06
4.39844e-06
3.61841e-07
-4.94441e-06
5.92763e-06
-1.10638e-05
1.25371e-05
-1.32334e-05
1.8761e-05
-1.2494e-05
2.3998e-05
-1.05209e-05
2.82012e-05
-8.43282e-06
3.15628e-05
-6.71811e-06
3.43097e-05
-5.45747e-06
3.66076e-05
-4.53596e-06
3.85308e-05
-3.7714e-06
4.00627e-05
-2.9823e-06
4.11335e-05
-2.01498e-06
4.16827e-05
-7.5749e-07
4.17297e-05
9.81199e-07
4.1402e-05
3.45341e-06
4.02549e-05
7.34995e-06
3.67022e-05
1.37468e-05
2.79588e-05
2.22902e-05
1.26952e-05
2.91113e-05
-4.25376e-06
2.69471e-05
-9.08764e-06
4.97114e-06
-2.63239e-05
-1.96509e-06
6.36354e-06
6.76332e-07
-7.58583e-06
6.29932e-06
-1.66868e-05
1.28321e-05
-1.97662e-05
1.89088e-05
-1.85707e-05
2.39955e-05
-1.56076e-05
2.80927e-05
-1.253e-05
3.14128e-05
-1.00382e-05
3.41801e-05
-8.22474e-06
3.65442e-05
-6.90003e-06
3.85609e-05
-5.78817e-06
4.02049e-05
-4.62624e-06
4.1391e-05
-3.20113e-06
4.19761e-05
-1.34255e-06
4.18549e-05
1.10242e-06
4.09631e-05
4.34517e-06
3.96048e-05
8.70821e-06
3.83581e-05
1.49935e-05
3.62129e-05
2.44355e-05
2.98612e-05
3.5463e-05
1.78512e-05
3.89571e-05
6.21956e-06
1.66552e-05
-2.00811e-05
-1.6718e-06
8.03534e-06
1.14322e-06
-1.04008e-05
6.80742e-06
-2.2351e-05
1.32149e-05
-2.61736e-05
1.90784e-05
-2.44343e-05
2.39606e-05
-2.04897e-05
2.79266e-05
-1.6496e-05
3.1211e-05
-1.33226e-05
3.40276e-05
-1.10414e-05
3.65003e-05
-9.37268e-06
3.86587e-05
-7.94655e-06
4.04588e-05
-6.42634e-06
4.18069e-05
-4.54932e-06
4.25828e-05
-2.11843e-06
4.26455e-05
1.03976e-06
4.18919e-05
5.09878e-06
4.0325e-05
1.02751e-05
3.85192e-05
1.67992e-05
3.76541e-05
2.53006e-05
3.67613e-05
3.63558e-05
3.11607e-05
4.45577e-05
1.75641e-05
3.02513e-05
-2.58678e-06
-1.28338e-06
9.31872e-06
1.73959e-06
-1.34238e-05
7.4132e-06
-2.80247e-05
1.36396e-05
-3.24e-05
1.92313e-05
-3.0026e-05
2.38698e-05
-2.51282e-05
2.76955e-05
-2.03217e-05
3.09611e-05
-1.65882e-05
3.38594e-05
-1.39397e-05
3.64785e-05
-1.19918e-05
3.88157e-05
-1.02837e-05
4.0806e-05
-8.41667e-06
4.23486e-05
-6.0919e-06
4.33257e-05
-3.09558e-06
4.36259e-05
7.39616e-07
4.31653e-05
5.55939e-06
4.1912e-05
1.15284e-05
3.99676e-05
1.87436e-05
3.82358e-05
2.70324e-05
3.78346e-05
3.67571e-05
3.53696e-05
4.70227e-05
2.283e-05
4.27909e-05
2.01686e-05
-7.99919e-07
1.01186e-05
2.44628e-06
-1.667e-05
8.09673e-06
-3.36751e-05
1.40909e-05
-3.83942e-05
1.93659e-05
-3.5301e-05
2.37411e-05
-2.95033e-05
2.74355e-05
-2.40162e-05
3.07105e-05
-1.98632e-05
3.37254e-05
-1.69545e-05
3.6524e-05
-1.47905e-05
3.90674e-05
-1.28271e-05
4.12695e-05
-1.06188e-05
4.3023e-05
-7.84542e-06
4.42164e-05
-4.28898e-06
4.47499e-05
2.06063e-07
4.45596e-05
5.74971e-06
4.36275e-05
1.24605e-05
4.19683e-05
2.04028e-05
3.96894e-05
2.93113e-05
3.78599e-05
3.85865e-05
3.5439e-05
4.94436e-05
2.45911e-05
5.36388e-05
4.46836e-05
-2.6094e-07
1.03796e-05
3.23647e-06
-2.01674e-05
8.83706e-06
-3.92757e-05
1.45608e-05
-4.4118e-05
1.94969e-05
-4.02371e-05
2.36146e-05
-3.36211e-05
2.72077e-05
-2.76092e-05
3.05323e-05
-2.31878e-05
3.37021e-05
-2.01243e-05
3.67107e-05
-1.7799e-05
3.94824e-05
-1.55989e-05
4.19125e-05
-1.30489e-05
4.38889e-05
-9.82182e-06
4.53032e-05
-5.70322e-06
4.60628e-05
-5.53541e-07
4.61183e-05
5.69424e-06
4.5437e-05
1.31418e-05
4.40517e-05
2.17881e-05
4.18038e-05
3.15592e-05
3.88635e-05
4.15268e-05
3.51731e-05
5.31341e-05
2.5806e-05
6.3006e-05
7.0413e-05
3.50432e-07
1.00291e-05
4.07444e-06
-2.38914e-05
9.59126e-06
-4.47925e-05
1.50174e-05
-4.95442e-05
1.96227e-05
-4.48424e-05
2.35208e-05
-3.75191e-05
2.70632e-05
-3.11516e-05
3.04844e-05
-2.6609e-05
3.38426e-05
-2.34826e-05
3.70805e-05
-2.1037e-05
4.00917e-05
-1.86101e-05
4.2761e-05
-1.57181e-05
4.49761e-05
-1.2037e-05
4.66249e-05
-7.35206e-06
4.76232e-05
-1.55179e-06
4.79203e-05
5.39719e-06
4.74604e-05
1.36016e-05
4.6265e-05
2.29835e-05
4.42291e-05
3.35951e-05
4.09937e-05
4.47622e-05
3.59425e-05
5.81853e-05
2.64787e-05
7.24698e-05
9.68394e-05
-7.7702e-21
8.01342e-21
-3.61677e-21
5.24527e-21
-4.35655e-22
6.95845e-22
-3.26205e-23
4.22947e-23
-3.41927e-24
1.75438e-24
-5.3648e-25
9.25406e-26
-9.15866e-26
2.9018e-27
-9.49854e-27
-2.71779e-27
-4.24822e-28
-6.8889e-28
-3.12593e-29
-4.86124e-29
-1.24808e-29
-2.07714e-28
-1.96934e-30
-4.18271e-29
-2.82579e-31
-7.97615e-30
-1.08692e-32
-5.57205e-31
-1.42807e-34
-1.53063e-32
-1.28169e-36
-1.95307e-34
-7.05456e-39
-1.69341e-36
-2.20454e-41
-1.21013e-38
-5.35358e-39
-9.00935e-19
1.08178e-18
-6.51615e-19
2.37289e-18
-1.0106e-19
4.6579e-19
-7.53299e-21
3.50797e-20
-8.36653e-22
1.41806e-21
-1.4818e-22
7.61422e-23
-2.78183e-23
1.7689e-24
-2.85963e-24
-1.97471e-24
-1.54124e-25
-3.02305e-25
-6.18717e-27
-2.55419e-26
-3.69516e-27
-2.29572e-27
-5.79336e-28
-3.32629e-27
-8.1755e-29
-5.20654e-28
-2.86184e-30
-8.39326e-29
-3.39011e-32
-3.08536e-30
-2.78835e-34
-3.74744e-32
-1.43743e-36
-3.13408e-34
-1.92865e-39
-2.07396e-36
-1.63174e-38
-7.24783e-18
1.59694e-17
-1.22232e-17
2.06941e-17
-5.44835e-18
1.77454e-17
-7.36512e-19
2.70425e-18
-1.60603e-19
2.04806e-19
-4.24406e-20
2.14124e-20
-5.50373e-21
5.14761e-22
-4.25924e-22
-1.88764e-21
-2.52485e-23
-1.24573e-22
-1.27529e-24
-8.08738e-24
-6.95282e-25
-6.20843e-25
-9.94691e-26
-6.67414e-25
-1.36469e-26
-9.63752e-26
-4.73832e-28
-1.52108e-26
-5.58331e-30
-5.59332e-28
-4.59535e-32
-6.96377e-30
-2.3595e-34
-6.19373e-32
-3.15279e-37
-4.5409e-34
-2.42371e-36
-1.46853e-17
9.44103e-17
-5.88129e-17
4.751e-17
-4.72493e-17
7.02227e-17
-1.37865e-17
1.72512e-17
-6.33144e-18
4.91812e-18
-2.95346e-18
1.07261e-18
-6.10318e-19
2.10887e-20
-6.21955e-20
-3.72127e-19
-3.81747e-21
-5.26095e-20
-1.63793e-22
-4.69962e-21
-8.41034e-23
-1.1033e-22
-1.10409e-23
-8.49989e-23
-1.4747e-24
-1.13815e-23
-5.13344e-26
-1.77812e-24
-6.17513e-28
-6.59014e-26
-5.24438e-30
-8.44917e-28
-2.7602e-32
-8.31032e-30
-3.72315e-35
-6.48052e-32
-3.46935e-34
-4.269e-17
3.10719e-16
-7.44694e-17
1.14442e-16
-1.04601e-16
8.84645e-17
-4.7681e-17
5.88883e-17
-3.01615e-17
2.19525e-17
-1.8296e-17
3.53079e-18
-7.75195e-18
-3.92084e-20
-2.94584e-18
-7.54598e-19
-3.56192e-19
-1.78343e-18
-1.66277e-20
-2.81797e-19
-7.49757e-21
-2.07793e-20
-9.07829e-22
-7.90576e-21
-1.17886e-22
-9.77596e-22
-4.0979e-24
-1.50737e-22
-5.04841e-26
-5.64175e-24
-4.41157e-28
-7.38205e-26
-2.38113e-30
-8.4333e-28
-3.24117e-33
-6.7107e-30
-3.61206e-32
-5.55046e-17
4.61425e-16
-8.87568e-17
1.39942e-16
-1.06487e-16
1.0201e-16
-1.07454e-16
5.80164e-17
-3.40989e-17
7.98687e-17
-2.01183e-17
4.02966e-18
-8.23734e-18
-2.66598e-19
-1.44587e-17
-3.99897e-19
-4.16588e-18
-4.42676e-18
-1.02761e-18
-1.74888e-18
-5.10555e-19
-7.74542e-19
-5.90351e-20
-5.69076e-19
-7.48044e-21
-6.70999e-20
-2.60196e-22
-1.02969e-20
-3.28051e-24
-3.91493e-22
-2.9462e-26
-6.04197e-24
-1.62775e-28
-7.35126e-26
-2.23075e-31
-6.43558e-28
-3.1212e-30
-7.15169e-17
5.29405e-16
-1.15333e-16
1.7737e-16
-3.01469e-16
2.78334e-16
-5.99932e-15
8.78381e-16
-7.13948e-17
5.69728e-15
-6.92511e-17
1.24641e-17
-2.40231e-16
2.47449e-17
-1.63758e-16
2.55238e-17
-1.32411e-17
-1.81551e-16
-3.51403e-17
-9.4077e-18
-2.75366e-17
-7.04698e-18
-3.22155e-18
-3.06141e-17
-3.98813e-19
-4.73143e-18
-1.3938e-20
-7.28374e-19
-1.79481e-22
-2.90925e-20
-1.65659e-24
-4.57386e-22
-9.3674e-27
-5.50702e-24
-1.29446e-29
-4.58479e-26
-2.52064e-28
-8.36541e-17
6.02871e-16
-2.19933e-16
3.03838e-16
-2.91148e-15
2.9597e-15
-3.15067e-14
3.30794e-14
-2.33912e-16
2.2391e-13
-1.71851e-15
1.37489e-15
-5.26539e-14
4.31652e-14
-1.97955e-14
-2.85905e-14
-4.67804e-16
-1.95942e-14
-2.22805e-15
1.70634e-15
-1.36546e-15
-9.20594e-16
-1.29311e-16
-1.42224e-15
-1.59489e-17
-1.41585e-16
-5.82582e-19
-2.26941e-17
-7.816e-21
-8.41945e-19
-7.65977e-23
-1.17714e-20
-4.82232e-25
-1.16204e-22
-8.55931e-28
-7.37975e-25
-5.49477e-27
2.96609e-06
7.06306e-06
1.16926e-05
-3.2618e-05
2.2931e-05
-5.60309e-05
3.33263e-05
-5.99394e-05
4.20357e-05
-5.35518e-05
4.97658e-05
-4.52492e-05
5.73243e-05
-3.87101e-05
6.50241e-05
-3.43088e-05
7.27765e-05
-3.12349e-05
8.03228e-05
-2.85833e-05
8.73896e-05
-2.56769e-05
9.37528e-05
-2.20813e-05
9.92306e-05
-1.75148e-05
0.000103598
-1.17198e-05
0.000106604
-4.55707e-06
0.000108302
3.69841e-06
0.000108288
1.36159e-05
0.000106558
2.47131e-05
0.000103081
3.70722e-05
9.74727e-05
5.0371e-05
8.92174e-05
6.64405e-05
7.86545e-05
8.30327e-05
0.000121788
5.37059e-05
6.76661e-06
2.96446e-07
1.70896e-05
-4.29409e-05
2.68957e-05
-6.5837e-05
3.5038e-05
-6.80815e-05
4.21617e-05
-6.06754e-05
4.93559e-05
-5.24433e-05
5.71473e-05
-4.65015e-05
6.54476e-05
-4.26091e-05
7.38886e-05
-3.96758e-05
8.20872e-05
-3.6782e-05
8.97603e-05
-3.33499e-05
9.67491e-05
-2.90701e-05
0.000103015
-2.37804e-05
0.000108646
-1.73515e-05
0.000113605
-9.51523e-06
0.000116428
8.7516e-07
0.000118308
1.17357e-05
0.000118468
2.45528e-05
0.000117087
3.8454e-05
0.000114733
5.27242e-05
0.000112481
6.86925e-05
0.000111764
8.37502e-05
0.00011473
0.000118822
1.27796e-05
-1.24831e-05
2.6718e-05
-5.68785e-05
3.37434e-05
-7.28567e-05
3.75528e-05
-7.18848e-05
4.24047e-05
-6.55223e-05
4.93773e-05
-5.94117e-05
5.78499e-05
-5.49705e-05
6.6996e-05
-5.17521e-05
7.62106e-05
-4.88879e-05
8.51082e-05
-4.56775e-05
9.34711e-05
-4.17114e-05
0.000101151
-3.67501e-05
0.000108004
-3.0634e-05
0.000113726
-2.30736e-05
0.000118338
-1.41086e-05
0.000123541
-4.31779e-06
0.000127096
8.18037e-06
0.000128591
2.30572e-05
0.000129082
3.79632e-05
0.000129705
5.21019e-05
0.00013126
6.71369e-05
0.00013389
8.11202e-05
0.000100146
0.000148474
2.25238e-05
-3.50061e-05
4.14412e-05
-6.93488e-05
4.09465e-05
-4.81918e-05
3.825e-05
-4.43107e-05
3.98385e-05
-4.2262e-05
4.52411e-05
-3.83243e-05
5.22306e-05
-3.37631e-05
5.90072e-05
-2.93646e-05
6.46772e-05
-2.49452e-05
6.90985e-05
-2.04931e-05
7.26278e-05
-1.62802e-05
7.578e-05
-1.25627e-05
7.90064e-05
-9.33378e-06
8.30698e-05
-4.36862e-07
8.98065e-05
-2.10912e-08
0.000100631
-1.04698e-09
0.000112602
1.48997e-06
0.000125786
7.9975e-06
0.000138073
1.95796e-05
0.000144386
3.91632e-05
0.000146548
6.49757e-05
0.000147692
7.99761e-05
9.03528e-05
0.000157485
2.45021e-05
-2.9572e-05
1.28793e-05
-4.13267e-06
1.07383e-05
-4.81797e-08
9.82292e-06
-5.24333e-10
8.58814e-06
-4.87142e-12
7.84061e-06
-3.99467e-14
7.48279e-06
-2.97e-16
6.84724e-06
-3.93091e-16
5.70669e-06
-3.54109e-16
4.20682e-06
-4.43128e-17
2.57315e-06
-7.95151e-14
9.64349e-07
-3.70564e-14
4.58975e-07
-9.18646e-16
2.21977e-08
-8.49576e-11
1.1955e-09
-8.83106e-11
1.2951e-10
-1.97898e-11
2.10834e-06
-5.3994e-10
1.00203e-05
8.05832e-08
2.55562e-05
2.6523e-07
5.379e-05
3.04661e-07
9.56819e-05
9.47457e-07
0.00013306
1.44713e-05
4.69387e-05
0.000150701
4.18138e-06
3.20394e-23
4.87089e-08
-6.4685e-22
5.29245e-10
-2.86872e-20
4.9116e-12
-8.95733e-19
4.01922e-14
-1.27635e-17
3.10131e-16
-6.58727e-17
4.95507e-18
-2.97835e-17
8.44044e-18
-3.85694e-16
1.10306e-17
-2.98887e-16
1.2407e-17
-3.5791e-17
1.27546e-15
-8.07788e-14
1.30891e-15
-3.78609e-14
1.3711e-15
-2.52247e-15
2.37399e-12
-8.73317e-11
2.01961e-11
-1.05952e-10
6.36102e-11
-5.59196e-11
1.0249e-09
-1.64075e-09
8.00868e-08
1.78161e-09
3.2688e-07
1.24117e-08
5.81059e-07
3.32304e-08
1.43342e-06
6.40137e-08
1.05743e-05
1.79195e-07
3.71528e-07
3.87762e-05
-2.47486e-24
4.37519e-23
-1.50703e-22
-4.98622e-22
-2.92257e-21
-2.59266e-20
1.43819e-21
-9.00927e-19
4.82133e-20
-1.28281e-17
2.74107e-19
-6.63351e-17
4.76134e-18
-1.08307e-16
8.89521e-17
-1.2604e-15
8.47134e-17
-8.74731e-16
1.10742e-16
-6.22582e-17
2.24511e-14
-1.03118e-13
2.53701e-14
-1.15536e-13
4.96896e-14
-2.83828e-14
1.21885e-10
-2.09168e-10
8.52231e-10
-8.35803e-10
4.35104e-09
-8.99542e-09
1.62606e-08
-2.82778e-08
1.79375e-08
-1.10714e-08
2.42972e-08
-5.19108e-09
4.49368e-08
6.8727e-10
8.97326e-08
6.47612e-09
2.49381e-07
1.24686e-08
2.60746e-08
5.7963e-07
-6.42372e-23
8.34783e-23
-1.82999e-22
-2.95122e-22
-7.422e-21
-5.32565e-20
6.20391e-20
-2.83878e-18
2.71285e-18
-4.07338e-17
1.94894e-17
-2.1057e-16
7.37659e-17
-5.38203e-16
4.69438e-16
-1.67493e-15
1.3484e-15
-9.65495e-15
1.88126e-15
-5.94262e-16
1.1362e-12
-1.11545e-11
6.34658e-13
-2.62274e-12
1.08873e-12
-4.83309e-13
1.18275e-08
-1.72645e-08
5.04558e-08
-5.8255e-08
6.70358e-08
-7.03009e-08
9.63887e-08
-5.67697e-08
1.11614e-07
-2.56188e-08
1.07988e-07
-1.08343e-09
2.71601e-08
2.67943e-08
1.1387e-08
9.43801e-09
1.64011e-08
4.85772e-09
1.22977e-08
2.84871e-08
-1.93503e-23
1.38965e-22
-4.31165e-23
4.32982e-23
-4.87818e-22
-6.59947e-20
3.6327e-19
-5.62375e-18
1.02647e-17
-8.34305e-17
5.99666e-17
-3.85396e-16
1.60365e-16
-8.33919e-16
5.20519e-16
-1.31416e-15
7.31301e-15
-5.45674e-14
2.06941e-14
-1.3926e-14
3.63996e-12
-2.53272e-11
1.08284e-12
-3.8569e-12
1.52115e-11
-1.45852e-11
1.66044e-08
-2.18753e-08
3.05979e-08
-7.1397e-08
4.08184e-08
-7.96604e-08
5.45512e-08
-6.96415e-08
7.17642e-08
-4.19708e-08
7.49382e-08
-3.06128e-09
8.18028e-08
2.10405e-08
1.33032e-08
1.57827e-08
7.77675e-09
9.21014e-09
9.26288e-09
9.71461e-09
-1.09149e-24
1.96593e-22
-1.15773e-25
3.8716e-22
2.93847e-21
-6.59549e-20
6.59926e-19
-6.44252e-18
1.55357e-17
-9.74172e-17
8.30523e-17
-4.58877e-16
1.73373e-16
-9.26405e-16
4.17078e-16
-8.5692e-16
2.10595e-14
-1.1079e-13
2.24564e-15
-1.70933e-14
3.47735e-12
-2.41142e-11
2.24851e-12
-8.46004e-12
4.46775e-10
-4.58636e-10
6.40642e-09
-6.28667e-11
7.17304e-09
-4.64639e-11
6.33293e-09
-7.79688e-08
6.81434e-09
-6.92619e-08
1.05541e-08
-5.88932e-08
2.51523e-09
-8.8044e-09
5.87163e-09
1.6764e-09
4.3193e-09
8.60592e-09
5.31237e-09
7.11844e-09
6.66143e-09
6.7394e-09
-7.68342e-24
2.6072e-22
-9.92962e-24
8.05093e-22
4.96968e-21
-4.7137e-20
9.05212e-19
-6.41017e-18
1.87987e-17
-9.81504e-17
6.72254e-17
-4.29188e-16
1.72741e-16
-9.37503e-16
1.55374e-16
-6.47647e-16
3.37174e-14
-1.08586e-13
1.67089e-13
-1.73689e-13
5.64639e-12
-2.04571e-11
1.04141e-12
-6.65774e-12
6.27907e-11
-1.2105e-12
1.82762e-13
-3.2305e-13
-4.62838e-11
-4.79719e-16
-2.05262e-09
-2.88819e-12
-7.84979e-09
-2.72268e-09
-4.45694e-09
-2.57661e-08
-3.25544e-09
-9.96248e-09
-7.65473e-11
-1.4091e-09
2.06234e-09
2.05849e-09
5.16913e-08
1.45093e-08
1.75996e-08
9.93201e-08
-1.30909e-23
3.16231e-22
-3.16036e-23
1.23541e-21
3.90865e-21
-1.79357e-20
9.51892e-19
-4.27271e-18
1.82869e-17
-6.71385e-17
8.5071e-17
-2.49668e-16
1.89121e-16
-8.78377e-16
1.10813e-15
-6.42652e-16
5.65233e-14
-1.00794e-13
2.39287e-13
-1.04353e-12
9.90179e-13
-2.22978e-12
8.37293e-13
-3.01865e-12
1.71441e-13
-1.57297e-12
1.08356e-15
-1.55848e-13
2.76925e-17
-2.70559e-15
-2.88839e-12
2.31883e-16
-2.72557e-09
6.22328e-17
-1.29954e-09
-6.48054e-16
4.73985e-09
-7.80165e-16
2.09838e-08
-1.86362e-17
3.91735e-08
2.38194e-09
5.94654e-08
1.34252e-08
7.7245e-09
4.29708e-08
-1.63981e-23
3.45649e-22
-5.66197e-23
1.57456e-21
1.53054e-21
-3.27792e-21
5.61451e-19
-1.59181e-18
1.04156e-17
-2.54345e-17
4.66356e-17
-1.06347e-16
1.59224e-16
-6.64316e-16
1.58344e-16
-7.07374e-16
2.04197e-14
-7.1212e-16
3.33665e-13
-7.49319e-13
2.60779e-13
-1.5332e-12
2.2919e-13
-1.71434e-12
7.20651e-14
-1.32609e-12
7.32162e-15
-3.67542e-13
5.78873e-16
-4.40252e-15
-1.90436e-17
-4.47481e-17
-1.6232e-19
-8.93234e-17
-2.73542e-18
-6.45481e-16
-3.64554e-18
-7.81991e-16
7.53001e-18
-5.56807e-16
8.53905e-11
-2.89819e-15
1.07304e-09
-3.45897e-15
8.62834e-13
8.30906e-10
-1.67334e-23
3.36499e-22
-7.68064e-23
1.72077e-21
3.29861e-22
4.72393e-22
1.95494e-19
-3.91843e-19
3.67305e-18
-6.5285e-18
1.98667e-17
-3.59043e-17
1.35682e-16
-4.70836e-16
2.01634e-16
-1.01814e-15
2.43135e-16
-9.96923e-16
3.40625e-13
-1.26261e-13
3.86701e-13
-1.10268e-12
3.34212e-13
-1.37539e-12
3.73814e-13
-1.19797e-12
1.42453e-14
-3.11593e-13
2.42261e-18
-1.64855e-15
4.2751e-18
-4.66006e-17
2.47052e-17
-3.13394e-16
1.40906e-16
-1.45927e-15
2.4039e-16
-2.67849e-15
4.26289e-16
-3.33017e-15
6.92983e-16
-5.75309e-15
1.02901e-15
-6.30201e-15
-2.06078e-13
1.06858e-12
-1.47793e-23
2.88581e-22
-8.56695e-23
1.61968e-21
-3.48625e-23
1.06954e-21
4.61277e-20
-6.75072e-20
9.18404e-19
-1.23246e-18
6.71103e-18
-1.06051e-17
7.26877e-17
-2.71788e-16
2.35505e-16
-1.02327e-15
3.9547e-16
-1.13658e-15
3.31204e-14
-8.98126e-16
2.14263e-13
-1.06424e-13
3.82736e-13
-5.67044e-13
2.73771e-13
-4.82904e-13
2.57248e-15
-3.54303e-14
1.03065e-17
-6.07868e-16
1.52251e-17
-8.4513e-17
1.59371e-16
-3.09942e-16
7.85468e-16
-1.18357e-15
1.831e-15
-2.24971e-15
3.71853e-15
-3.02945e-15
7.62873e-15
-4.67623e-15
1.46744e-14
-6.76228e-15
-5.97009e-15
1.94003e-14
-1.15333e-23
2.15092e-22
-8.06301e-23
1.30113e-21
-7.98646e-23
1.19931e-21
7.66961e-21
-7.53135e-21
1.70144e-19
-1.6961e-19
1.97855e-18
-2.75714e-18
6.48265e-17
-9.59119e-17
2.23763e-16
-8.53145e-16
2.83099e-16
-1.08508e-15
2.37015e-16
-8.42856e-16
1.21034e-14
-3.87597e-16
1.64604e-13
-1.59652e-16
9.10304e-15
-9.0592e-17
4.90801e-16
-1.89082e-15
4.67929e-17
-7.43224e-16
4.05758e-17
-1.90306e-16
1.63862e-16
-9.9368e-17
5.57968e-16
-1.24692e-16
1.25663e-15
-2.31122e-16
2.43686e-15
-4.49397e-16
6.66074e-15
-1.14826e-15
1.20107e-14
-4.2069e-15
-3.97842e-15
1.20412e-14
-7.90609e-24
1.36842e-22
-6.40098e-23
8.76837e-22
-8.9228e-23
9.96104e-22
8.98565e-22
-2.53765e-22
2.28814e-20
-1.62111e-20
5.0297e-19
-6.05502e-19
2.08619e-17
-2.31414e-17
1.86053e-16
-2.84449e-16
2.58711e-16
-8.00412e-16
1.78428e-16
-7.67686e-16
2.90873e-17
-3.35439e-16
2.70483e-17
-1.57518e-16
2.77918e-17
-9.20512e-17
2.77793e-16
-1.30452e-16
2.44676e-16
-1.15273e-16
3.39698e-17
-4.40083e-17
2.59226e-17
-1.17493e-17
4.43886e-17
-1.70334e-17
1.24181e-16
-4.91111e-17
3.52233e-16
-1.44795e-16
1.32039e-15
-4.092e-16
5.42331e-15
-1.88607e-15
-4.30113e-15
8.6385e-15
-4.68387e-24
7.25438e-23
-4.23306e-23
4.83843e-22
-7.31296e-23
6.5197e-22
1.01344e-22
1.09803e-22
2.13812e-21
-9.34786e-22
1.06165e-19
-1.07817e-19
4.68307e-18
-4.27706e-18
5.82773e-17
-5.00177e-17
1.39334e-16
-1.8734e-16
1.56971e-16
-3.37472e-16
6.26094e-17
-3.15809e-16
3.16482e-17
-1.66281e-16
2.55274e-17
-8.75549e-17
2.43402e-17
-3.03042e-17
2.02241e-17
-8.08253e-18
5.19575e-18
-1.37664e-18
3.17079e-18
-1.17355e-18
7.37061e-18
-2.64284e-18
3.20125e-17
-1.14943e-17
1.2567e-16
-5.09464e-17
4.77561e-16
-1.88108e-16
2.72679e-15
-9.73241e-16
-3.35458e-15
6.25801e-15
-2.33855e-24
3.10238e-23
-2.28149e-23
2.1169e-22
-4.69193e-23
3.31087e-22
-1.0674e-23
7.54626e-23
1.30324e-22
-8.48596e-24
1.80215e-20
-1.53689e-20
8.12016e-19
-6.37947e-19
9.63277e-18
-6.50253e-18
3.51153e-17
-3.03117e-17
6.12528e-17
-7.7114e-17
7.03022e-17
-9.52907e-17
3.68336e-17
-8.22757e-17
1.34369e-17
-3.62601e-17
2.60158e-18
-6.48603e-18
5.7432e-19
-3.81137e-19
2.89075e-19
-3.37039e-20
3.18971e-19
-6.49258e-20
1.34927e-18
-4.01767e-19
8.16882e-18
-3.10692e-18
4.59856e-17
-2.02705e-17
2.19633e-16
-1.01153e-16
1.32907e-15
-5.46472e-16
-1.55734e-15
5.09566e-15
-9.49848e-25
1.02344e-23
-9.7153e-24
7.03068e-23
-2.32405e-23
1.23825e-22
-7.14778e-24
2.85917e-23
9.47912e-24
3.68755e-24
2.44582e-21
-1.77503e-21
1.14285e-19
-7.83013e-20
1.22852e-18
-8.91386e-19
5.80447e-18
-3.90975e-18
1.30987e-17
-1.23021e-17
1.53463e-17
-1.49053e-17
1.36549e-17
-1.2561e-17
3.74138e-18
-6.98846e-18
3.19265e-19
-1.80537e-18
1.19091e-20
-1.26873e-19
8.02516e-21
-3.20388e-21
2.5941e-20
-6.98604e-21
2.42786e-19
-8.58066e-20
2.3515e-18
-9.87331e-19
1.85665e-17
-8.58045e-18
1.13803e-16
-5.59026e-17
6.61723e-16
-3.15591e-16
-9.11551e-16
2.22615e-15
-2.99248e-25
2.43957e-24
-3.13116e-24
1.66435e-23
-8.4433e-24
3.15103e-23
-2.62903e-24
6.97963e-24
-4.25555e-25
9.28452e-25
2.68429e-22
-1.55267e-22
1.3433e-20
-7.94738e-21
1.63435e-19
-1.2225e-19
7.39248e-19
-5.28519e-19
1.94072e-18
-1.5697e-18
2.24912e-18
-1.80929e-18
1.80798e-18
-1.479e-18
8.07804e-19
-7.23788e-19
1.17581e-19
-1.457e-19
2.80052e-21
-5.895e-21
7.49407e-22
-8.42865e-23
2.82022e-21
-5.6485e-22
5.506e-20
-2.18843e-20
7.51034e-19
-3.30192e-19
7.64604e-18
-3.61891e-18
5.89555e-17
-3.02751e-17
3.5982e-16
-2.02288e-16
-7.20407e-16
1.32428e-15
-6.83364e-26
3.77009e-25
-7.17237e-25
2.53345e-24
-2.07945e-24
4.93724e-24
-6.20809e-25
1.04349e-24
-1.03649e-25
1.39461e-25
2.21549e-23
-7.30301e-24
1.30601e-21
-5.57312e-22
2.15125e-20
-1.23432e-20
9.54629e-20
-6.61976e-20
2.26751e-19
-1.46266e-19
2.59504e-19
-1.7524e-19
1.98289e-19
-1.44166e-19
6.88023e-20
-7.14762e-20
6.12885e-21
-1.13161e-20
1.22608e-21
-2.79169e-22
1.69409e-24
1.1401e-21
5.64664e-23
5.44632e-22
1.41695e-20
-5.66728e-21
2.4268e-19
-1.09583e-19
3.06094e-18
-1.48218e-18
2.96963e-17
-1.53844e-17
2.18453e-16
-1.2599e-16
-5.3713e-16
9.26069e-16
-1.01293e-26
2.93498e-26
-1.05316e-25
1.97264e-25
-3.14173e-25
4.11113e-25
-8.94542e-26
8.28575e-26
-1.50072e-26
1.14102e-26
9.81453e-25
-5.17733e-27
8.65949e-23
-1.62846e-23
2.08351e-21
-6.76712e-22
1.06923e-20
-4.33272e-21
2.02375e-20
-8.4365e-21
2.37302e-20
-1.14639e-20
1.83846e-20
-9.43301e-21
6.34081e-21
-3.8365e-21
1.62055e-21
-5.76187e-23
1.04832e-23
1.3309e-21
-4.75424e-22
1.28485e-21
-2.51187e-22
5.85869e-22
3.73563e-21
-1.35081e-21
7.63622e-20
-3.55142e-20
1.16875e-18
-5.69777e-19
1.38587e-17
-7.29228e-18
1.2351e-16
-7.08735e-17
-3.27628e-16
5.85613e-16
-7.55883e-28
1.95211e-35
-7.88246e-27
1.13422e-33
-2.51272e-26
3.1611e-32
-6.81928e-27
6.09847e-31
-1.17893e-27
8.72444e-30
2.0577e-27
8.78635e-29
2.3958e-24
-6.6102e-26
1.082e-22
-1.28066e-23
6.27255e-22
-9.78382e-23
1.14749e-21
-2.75844e-22
1.4457e-21
-2.95994e-22
1.10505e-21
-2.13625e-22
5.50606e-22
2.34837e-23
1.28105e-24
4.91707e-22
-4.80346e-22
8.59773e-22
-5.10355e-22
6.53172e-22
-2.55944e-22
2.79852e-22
1.04045e-21
-3.26884e-22
2.31539e-20
-1.09957e-20
4.12219e-19
-1.99021e-19
5.96178e-18
-3.11796e-18
6.15804e-17
-3.52331e-17
-1.73651e-16
3.07838e-16
-4.80772e-37
1.24131e-35
-4.33933e-35
7.15352e-34
-1.8481e-33
2.0591e-32
-4.79857e-32
4.07259e-31
-8.61868e-31
6.20093e-30
-1.04755e-29
7.44874e-29
9.19025e-27
5.85498e-28
1.94823e-24
-9.51537e-27
1.44461e-23
-1.59088e-25
3.06694e-23
-5.772e-25
3.45767e-23
1.66594e-25
2.74448e-23
6.60555e-24
-6.64713e-24
7.38067e-23
-1.53235e-22
2.29032e-22
-2.9426e-22
2.96144e-22
-2.45032e-22
1.96527e-22
-1.14876e-22
7.59582e-23
2.97012e-22
-9.56532e-23
6.59963e-21
-3.15529e-21
1.3043e-19
-6.16936e-20
2.28034e-18
-1.15623e-18
2.69653e-17
-1.50611e-17
-7.76977e-17
1.4212e-16
-2.91215e-37
6.17562e-36
-2.60987e-35
3.52882e-34
-1.14678e-33
1.04103e-32
-3.05062e-32
2.09316e-31
-5.83102e-31
3.24502e-30
-8.45235e-30
4.02799e-29
-7.80738e-29
3.99677e-28
1.12058e-27
2.65188e-27
2.16505e-26
1.24063e-26
5.11842e-26
7.20683e-26
-3.65149e-26
5.69139e-25
-1.60454e-24
4.13876e-24
-1.97695e-23
1.95799e-23
-6.73788e-23
4.68204e-23
-9.53781e-23
5.3681e-23
-6.91023e-23
3.25453e-23
-2.90866e-23
1.06848e-23
7.94472e-23
-2.98954e-23
1.71455e-21
-8.11608e-22
3.62732e-20
-1.66627e-20
7.48793e-19
-3.63506e-19
1.00597e-17
-5.35811e-18
-2.90315e-17
5.50997e-17
-1.37392e-37
2.26132e-36
-1.22365e-35
1.27864e-34
-5.50271e-34
3.82563e-33
-1.48656e-32
7.70685e-32
-2.89199e-31
1.19473e-30
-4.33017e-30
1.49993e-29
-5.04651e-29
1.52868e-28
-3.85796e-28
1.23709e-27
-2.04995e-27
8.00035e-27
-1.3378e-26
4.4175e-26
-1.1768e-25
2.36989e-25
-9.46807e-25
1.06699e-24
-4.92882e-24
3.28742e-24
-1.29106e-23
6.42119e-24
-1.61528e-23
6.10586e-24
-1.06501e-23
3.24571e-24
-3.79084e-24
7.27843e-25
1.79984e-23
-7.57805e-24
3.94175e-22
-1.82177e-22
8.72806e-21
-3.88407e-21
2.07244e-19
-9.57373e-20
3.12201e-18
-1.61561e-18
-9.30318e-18
1.80435e-17
-4.75397e-38
5.44536e-37
-4.20589e-36
3.03576e-35
-1.91367e-34
9.08163e-34
-5.17099e-33
1.7912e-32
-1.00505e-31
2.67944e-31
-1.52085e-30
3.24667e-30
-1.81894e-29
3.2552e-29
-1.69432e-28
2.68019e-28
-1.24308e-27
1.77568e-27
-7.70045e-27
9.30004e-27
-4.59404e-26
3.8269e-26
-2.2839e-25
1.23888e-25
-7.72476e-25
3.08928e-25
-1.6482e-24
5.20787e-25
-1.7046e-24
3.5212e-25
-9.81674e-25
1.44012e-25
-2.3764e-25
-9.14937e-27
3.39072e-24
-1.50776e-24
7.85775e-23
-3.5063e-23
1.80324e-21
-7.78858e-22
4.7968e-20
-2.14094e-20
8.25544e-19
-4.23437e-19
-2.61738e-18
5.08891e-18
-1.08067e-38
6.57508e-38
-9.46769e-37
3.59493e-36
-4.28974e-35
1.05457e-34
-1.13194e-33
1.95799e-33
-2.11979e-32
2.61709e-32
-3.09198e-31
2.68222e-31
-3.63328e-30
2.19227e-30
-3.43853e-29
1.46784e-29
-2.58047e-28
8.20484e-29
-1.5136e-27
3.87279e-28
-6.91249e-27
1.54538e-27
-2.46534e-26
5.11723e-27
-6.73102e-26
1.30169e-26
-1.23581e-25
1.93488e-26
-9.05706e-26
9.82464e-27
-3.99763e-26
2.52426e-27
4.15443e-26
-5.92693e-27
5.46412e-25
-2.27865e-25
1.33672e-23
-5.7016e-24
3.19046e-22
-1.34545e-22
9.41876e-21
-4.13404e-21
1.89732e-19
-9.74161e-20
-6.64506e-19
1.25795e-18
-1.23436e-39
4.6032e-40
-1.063e-37
2.57216e-38
-4.69334e-36
7.83597e-37
-1.16174e-34
1.54462e-35
-1.93985e-33
2.23997e-34
-2.38921e-32
2.54855e-33
-2.28481e-31
2.36158e-32
-1.75536e-30
1.82488e-31
-1.10933e-29
1.19189e-30
-5.8519e-29
6.60483e-30
-2.58556e-28
3.07074e-29
-9.40759e-28
1.13495e-28
-2.61255e-27
2.7651e-28
-4.21569e-27
1.55176e-28
-2.31189e-27
4.97905e-29
-6.38487e-28
-8.10417e-29
2.77087e-27
-1.03114e-27
7.17642e-26
-2.85168e-26
1.91216e-24
-7.64217e-25
4.83737e-23
-1.99608e-23
1.5893e-21
-6.88542e-22
3.8149e-20
-1.99229e-20
-1.50251e-19
2.78182e-19
-8.20795e-42
1.04143e-42
-7.20157e-40
6.81562e-41
-3.2746e-38
2.43789e-39
-8.56961e-37
5.69305e-38
-1.54864e-35
9.84309e-37
-2.11331e-34
1.34068e-35
-2.28703e-33
1.49126e-34
-2.02399e-32
1.38502e-33
-1.49148e-31
1.08297e-32
-9.21563e-31
7.07638e-32
-4.73186e-30
3.71014e-31
-1.91619e-29
1.3574e-30
-5.08035e-29
2.06401e-30
-3.08409e-29
8.18134e-31
-1.0646e-29
1.9538e-31
4.19953e-29
-9.02178e-31
2.55512e-28
-8.8187e-29
7.85451e-27
-2.74855e-27
2.23824e-25
-8.17718e-26
6.26026e-24
-2.53884e-24
2.29885e-22
-1.0117e-22
6.76775e-21
-3.72526e-21
-2.7916e-20
5.3561e-20
-1.77039e-44
1.94694e-45
-1.79898e-42
1.46637e-43
-9.51332e-41
6.06219e-42
-2.93634e-39
1.65208e-40
-6.31046e-38
3.35781e-39
-1.02893e-36
5.40744e-38
-1.33433e-35
7.12086e-37
-1.41677e-34
7.78886e-36
-1.24744e-33
7.05905e-35
-9.06829e-33
5.10905e-34
-5.23747e-32
2.58542e-33
-2.09336e-31
5.79663e-33
-3.45247e-31
2.02429e-33
-1.47482e-31
4.11453e-34
-3.77328e-32
4.84251e-35
2.33057e-31
-7.37135e-32
2.01843e-29
-5.81002e-30
6.61169e-28
-2.01687e-28
2.08951e-26
-7.51192e-27
6.93154e-25
-2.9818e-25
2.92812e-23
-1.44988e-23
1.07762e-21
-6.40501e-22
-3.86452e-21
8.19708e-21
-3.15991e-47
1.2183e-48
-3.61944e-45
1.18582e-46
-2.19091e-43
6.24439e-45
-7.8583e-42
2.15147e-43
-1.9807e-40
5.46624e-42
-3.81209e-39
1.08359e-40
-5.84446e-38
1.72184e-39
-7.29807e-37
2.19944e-38
-7.43644e-36
2.15078e-37
-5.97713e-35
1.35914e-36
-3.32485e-34
2.43735e-36
-8.12288e-34
6.97374e-37
-3.06741e-34
1.16873e-37
-6.69529e-35
3.0043e-39
-8.4072e-36
-4.8834e-37
1.45267e-32
-5.37161e-33
1.17046e-30
-3.38136e-31
4.27865e-29
-1.55912e-29
1.69321e-27
-7.58614e-28
7.09857e-26
-3.52696e-26
3.60536e-24
-1.90883e-24
1.52029e-22
-9.01371e-23
-4.25389e-22
9.08171e-22
-1.88512e-50
2.91414e-52
-2.70457e-48
3.69092e-50
-2.06597e-46
2.43393e-48
-9.33354e-45
1.02586e-46
-2.9348e-43
3.11851e-45
-6.94339e-42
7.15084e-44
-1.2832e-40
1.22314e-42
-1.86959e-39
1.39648e-41
-2.05358e-38
7.04236e-41
-1.43958e-37
1.58968e-41
-2.8338e-37
3.11323e-42
-8.81922e-38
3.2295e-41
-1.59461e-38
5.47546e-42
-4.38939e-40
-1.24532e-41
1.5174e-37
-4.41299e-38
9.31616e-34
-3.37923e-34
6.03327e-32
-1.98239e-32
2.9311e-30
-1.11292e-30
1.49741e-28
-6.45878e-29
7.20803e-27
-3.22749e-27
3.97469e-25
-1.68768e-25
1.70728e-23
-8.26245e-24
-5.39287e-23
8.07939e-23
-4.28287e-54
1.43302e-57
-7.65079e-52
2.0938e-55
-7.25049e-50
1.38783e-53
-3.99424e-48
4.63562e-52
-1.49987e-46
5.9881e-51
-4.10011e-45
7.09571e-52
-8.15115e-44
8.40717e-53
-1.061e-42
2.4527e-50
-6.00774e-42
1.20394e-47
-1.50369e-42
3.41167e-45
-3.23052e-43
5.04579e-43
-3.64201e-42
1.55581e-41
-6.65416e-43
3.67757e-42
3.94076e-42
1.16169e-43
6.38562e-39
-2.36087e-39
5.10563e-35
-1.35368e-35
3.11396e-33
-1.04228e-33
1.82021e-31
-5.76872e-32
1.09167e-29
-3.6741e-30
5.55472e-28
-1.89515e-28
2.90776e-26
-9.63059e-27
1.31933e-24
-4.91042e-25
-7.34784e-24
8.84242e-24
-1.98881e-59
-1.46739e-74
-3.85478e-57
7.04455e-69
-3.63444e-55
3.37232e-65
-1.58215e-53
4.95565e-62
-2.52024e-52
3.84074e-59
-3.55677e-53
2.11844e-56
-4.89522e-54
1.13222e-53
-1.62763e-51
6.69519e-51
-8.96906e-49
3.04636e-48
-2.81798e-46
8.99032e-46
-4.57219e-44
1.26773e-43
-1.53216e-42
3.84785e-42
-3.90231e-43
8.09194e-43
-1.31739e-44
2.179e-44
2.99025e-40
-1.31043e-40
1.75616e-36
-3.71143e-37
1.40924e-34
-3.39784e-35
8.07979e-33
-2.4468e-33
5.2489e-31
-1.2534e-31
2.74015e-29
-7.6701e-30
1.39244e-27
-5.10298e-28
6.78853e-26
-2.86416e-26
-6.08067e-25
1.01368e-24
1.90318e-76
-4.11733e-75
-1.11589e-70
2.87323e-69
-7.5122e-67
1.37157e-65
-1.43445e-63
2.01063e-62
-1.36851e-60
1.52189e-59
-8.9788e-58
7.49191e-57
-5.56978e-55
2.44089e-54
-3.75201e-52
5.72478e-52
-1.91638e-49
1.14159e-49
-6.27184e-47
2.36514e-47
-9.70562e-45
2.76445e-45
-3.20274e-43
4.54003e-46
-7.25953e-44
4.14635e-47
-2.08978e-45
1.68341e-46
1.37668e-41
-1.49754e-42
4.03115e-38
-5.8813e-39
3.84767e-36
-8.4562e-37
2.86109e-34
-5.93233e-35
1.49453e-32