/*--------------------------------*- C++ -*----------------------------------*\
| =========                 |                                                 |
| \\      /  F ield         | OpenFOAM: The Open Source CFD Toolbox           |
|  \\    /   O peration     | Version:  2206                                  |
|   \\  /    A nd           | Website:  www.openfoam.com                      |
|    \\/     M anipulation  |                                                 |
\*---------------------------------------------------------------------------*/
FoamFile
{
    version     2.0;
    format      ascii;
    arch        "LSB;label=32;scalar=64";
    class       volScalarField;
    location    "0.35";
    object      alpha.water;
}
// * * * * * * * * * * * * * * * * * * * * * * * * * * * * * * * * * * * * * //

dimensions      [0 0 0 0 0 0 0];

internalField   nonuniform List<scalar> 
2268
(
0.999999
0.999999
1
1
1
1
1
1
1
1
1
1
1
1
1
0.999999
0.999999
1
1
0.985765
0.817038
0.816892
0.887112
1
1
1
1
1
1
1
1
1
1
1
1
1
1
1
0.999999
1
1
1
0.999998
0.928117
0.894827
0.998275
1
1
1
1
1
1
1
1
1
1
1
1
1
1
1
1
1
1
1
1
0.999999
0.997709
0.998271
1
1
1
1
1
1
1
1
1
1
1
1
1
1
1
1
1
1
1
1
1
0.999988
0.996253
1
1
1
1
1
1
1
1
1
1
1
1
1
1
1
1
1
1
1
1
1
1
0.996339
1
1
1
1
1
1
1
1
1
1
1
1
1
1
1
1
1
1
1
1
1
1
0.996353
1
1
1
1
1
1
1
1
1
1
1
1
1
1
1
1
1
1
1
1
1
1
0.996363
1
1
1
1
1
1
1
1
1
1
1
1
1
1
1
1
1
1
1
1
1
1
0.997143
6.38691e-16
5.35934e-16
9.10357e-17
7.75792e-18
4.94754e-19
4.91871e-20
7.5702e-21
1.11366e-21
9.22486e-23
2.69229e-24
3.22069e-25
4.25805e-26
6.47063e-27
2.62954e-28
4.16985e-30
4.92987e-32
4.2049e-34
4.6608e-36
4.6608e-36
2.14074e-14
6.36084e-14
1.57477e-14
1.71696e-15
1.11126e-16
1.20785e-17
2.13669e-18
3.30518e-19
2.75716e-20
9.71128e-22
1.10022e-23
3.46572e-25
5.67612e-26
8.1823e-27
3.10398e-28
5.09979e-30
6.6657e-32
7.63777e-34
7.63296e-36
2.20988e-13
4.81299e-13
4.52931e-13
9.64671e-14
1.14588e-14
2.45691e-15
6.06957e-16
6.37942e-17
3.57634e-18
1.25797e-19
3.24182e-21
1.30191e-22
1.67809e-23
2.45751e-24
9.14823e-26
1.3283e-27
1.47e-29
1.80192e-31
1.68557e-33
9.8486e-13
8.59411e-13
2.1058e-12
9.18205e-13
2.41753e-13
1.09746e-13
4.57273e-14
8.14153e-15
6.97362e-16
3.16717e-17
4.65993e-19
2.39945e-20
2.77451e-21
3.81118e-22
1.4329e-23
2.08286e-25
2.63827e-27
3.05346e-29
2.48986e-31
3.94884e-12
2.07907e-12
2.49608e-12
2.73142e-12
1.15946e-12
5.35787e-13
3.13351e-13
1.21874e-13
4.35533e-14
4.62301e-15
9.08438e-17
2.92011e-18
3.0618e-19
4.05723e-20
1.51746e-21
2.18422e-23
3.47647e-25
3.58922e-27
2.65837e-29
4.40864e-12
2.1854e-12
2.46038e-12
2.5035e-12
2.14055e-12
5.62458e-13
3.44e-13
1.53159e-13
3.10674e-13
6.25096e-14
5.83121e-15
3.23384e-16
2.9137e-17
3.56562e-18
1.39387e-19
2.65277e-21
3.88319e-23
4.0521e-25
2.3618e-27
2.21279e-12
2.18309e-12
2.18934e-12
1.79044e-11
1.26037e-10
1.26184e-12
1.42488e-12
2.81959e-13
3.33836e-13
1.62877e-13
3.68977e-14
1.87801e-14
4.12504e-15
4.28129e-16
1.61457e-17
2.75315e-19
3.49127e-21
3.1296e-23
1.97589e-25
2.22688e-12
2.18934e-12
2.22688e-12
1.90465e-11
5.89814e-10
1.37703e-12
7.74092e-12
5.11254e-12
2.71245e-12
2.74736e-13
9.13053e-13
5.82343e-13
6.24544e-14
8.98743e-15
2.70002e-16
3.63062e-18
3.24809e-20
1.84864e-22
3.75322e-24
1
1
1
1
1
1
1
1
1
1
1
1
1
1
1
1
1
1
1
1
1
1
1
1
1
1
1
1
1
1
1
1
1
1
1
1
1
1
1
1
1
1
1
1
1
1
1
0.999997
0.999978
0.999977
0.99998
0.999981
0.999982
0.999981
0.99998
0.99998
0.99998
0.999984
0.999986
0.999992
0.99999
0.999996
1
1
1
1
1
1
1
0.999997
0.990848
0.922002
0.919593
0.91462
0.897021
0.874366
0.848584
0.81707
0.779263
0.737371
0.695476
0.658603
0.624375
0.609716
0.629004
0.675213
0.751514
0.853076
0.983503
1
1
1
0.864514
0.47314
0.222821
0.222483
0.209949
0.176729
0.144666
0.116168
0.0878301
0.0599713
0.0350852
0.0153182
0.000204172
1.40371e-08
1.09175e-07
3.15214e-07
0.00471094
0.0273799
0.0791631
0.178738
0.362146
0.612235
0.88479
0.101733
2.61493e-19
4.7017e-18
1.55119e-16
2.37253e-15
1.63014e-14
1.13984e-13
2.01222e-13
2.63299e-13
3.31106e-13
3.35797e-13
8.53886e-12
1.67425e-11
1.67425e-11
1.40371e-08
1.09175e-07
3.75963e-07
7.49674e-07
5.05847e-05
0.000132578
0.000217213
0.021696
0.113321
-3.00714e-19
1.93542e-35
7.65411e-20
4.70292e-18
1.5512e-16
2.37253e-15
1.44476e-13
5.19809e-12
2.97787e-12
3.36538e-13
3.56787e-13
7.63529e-11
1.67422e-11
2.5727e-11
9.51641e-08
9.67212e-06
8.49864e-05
8.41749e-05
8.53539e-05
9.25821e-05
9.94456e-05
7.36241e-05
0.000107061
-4.84101e-19
1.38878e-18
3.11144e-16
1.26498e-14
1.81697e-13
1.06671e-12
3.44053e-12
1.88072e-11
4.95267e-11
3.56787e-13
3.30633e-08
1.48083e-08
2.56852e-11
4.22642e-05
0.000272227
0.000450909
0.000622124
0.00062032
0.000619395
0.000394126
8.62454e-05
5.42643e-05
5.18576e-05
-1.17216e-18
2.58592e-18
6.65005e-16
4.94341e-14
7.47302e-13
3.68166e-12
8.58071e-12
2.13775e-11
2.95407e-10
6.31573e-13
2.49852e-07
4.218e-08
2.07167e-10
0.000202915
0.000621786
0.000622124
0.000622124
0.000622124
0.000619591
0.000616679
0.000196969
4.98283e-05
4.9649e-05
-2.12288e-18
-4.26286e-19
7.28807e-16
7.08682e-14
1.09219e-12
5.1413e-12
1.08871e-11
1.35308e-11
9.11775e-10
1.52799e-10
2.52079e-07
5.52116e-08
3.39007e-09
0.000123511
0.000388966
0.000621786
0.000622124
0.000473896
0.000109556
0.000109735
6.01317e-05
4.96629e-05
4.98284e-05
-2.97981e-18
-3.82084e-18
6.57384e-16
7.48751e-14
1.16136e-12
5.55483e-12
1.13358e-11
9.24169e-12
1.29639e-09
1.51224e-10
2.47028e-07
8.36628e-08
4.53545e-06
6.78684e-11
2.89879e-12
0.000196415
0.000417925
0.000473664
0.000194611
7.5974e-05
5.77413e-05
0.000205187
0.000730794
-3.80317e-18
-7.94379e-18
3.68156e-16
6.47896e-14
1.02186e-12
4.16616e-12
1.11575e-11
7.43654e-12
1.26559e-09
2.03888e-09
4.66925e-08
4.63029e-08
1.21492e-08
2.89879e-12
2.23256e-12
0
8.51214e-23
0.000300564
0.000647998
0.000680173
0.000679666
0.000678914
0.000638601
-4.39237e-18
-1.21256e-17
1.1619e-16
3.36685e-14
5.39011e-13
2.01881e-12
8.7889e-12
7.41842e-12
8.29595e-10
1.14795e-08
1.0338e-08
1.02807e-08
6.06813e-09
1.66411e-09
2.24542e-11
-2.12914e-12
-6.06147e-13
0
1.04499e-13
7.94587e-13
1.23894e-06
1.93042e-05
1.02226e-05
-4.5643e-18
-1.53135e-17
1.61514e-17
1.08069e-14
1.75253e-13
7.7885e-13
6.10908e-12
7.83965e-12
7.84061e-12
8.10072e-09
1.03609e-08
1.23186e-08
1.30462e-08
3.79174e-09
2.9291e-11
4.07799e-29
9.56014e-13
7.97035e-12
1.286e-11
1.4861e-11
1.48544e-11
1.49512e-11
1.51969e-11
-4.23829e-18
-1.65187e-17
-4.80952e-18
2.41811e-15
4.09863e-14
2.43943e-13
3.95964e-12
1.08462e-11
1.05615e-11
3.83816e-11
7.14272e-09
1.25447e-08
1.20426e-08
2.01948e-09
2.27383e-12
4.67864e-13
3.51434e-12
1.85839e-11
4.15223e-11
6.8148e-11
1.05829e-10
1.68228e-10
1.41482e-10
-3.48182e-18
-1.52988e-17
-1.06652e-17
3.8434e-16
7.18056e-15
6.80324e-14
1.9683e-12
1.06095e-11
1.16768e-11
8.32253e-12
3.13271e-11
5.67331e-09
1.26651e-09
1.19761e-10
6.14647e-12
1.22707e-12
3.23072e-12
1.0218e-11
2.19343e-11
3.48789e-11
7.37326e-11
1.47148e-10
1.12584e-10
-2.49542e-18
-1.20667e-17
-1.17006e-17
3.91189e-17
9.24538e-16
1.66892e-14
6.00326e-13
6.26876e-12
1.0918e-11
8.3852e-12
9.08215e-13
8.65055e-13
8.65069e-13
8.10305e-12
7.55527e-12
2.00622e-12
6.21581e-13
8.08523e-13
1.69875e-12
3.92153e-12
1.14722e-11
5.06998e-11
6.76324e-11
-1.53131e-18
-7.97384e-18
-9.50283e-18
7.06984e-19
8.30414e-17
3.45115e-15
1.33166e-13
1.66323e-12
5.31867e-12
5.94809e-12
3.2596e-12
1.45691e-12
8.64812e-13
7.33679e-13
6.09934e-13
2.40276e-13
6.74259e-14
1.07658e-13
3.51879e-13
1.20761e-12
3.83449e-12
1.91906e-11
5.7541e-11
-7.84922e-19
-4.31179e-18
-6.08131e-18
-1.0378e-18
4.47234e-18
5.79932e-16
2.3132e-14
2.66923e-13
1.02823e-12
2.02769e-12
2.40056e-12
1.58106e-12
7.18374e-13
1.75278e-13
4.05384e-14
6.72536e-15
6.34525e-15
1.58114e-14
7.75987e-14
3.91423e-13
1.63281e-12
8.84294e-12
3.11288e-11
-3.25194e-19
-1.8484e-18
-3.01997e-18
-6.96323e-19
2.05186e-20
7.84796e-17
3.27725e-15
3.34042e-14
1.57033e-13
4.14325e-13
5.14236e-13
4.60698e-13
2.0597e-13
3.66266e-14
1.97913e-15
1.53898e-16
3.34986e-16
2.32625e-15
2.00865e-14
1.45291e-13
8.04828e-13
4.48369e-12
1.26921e-11
-1.04091e-19
-6.01626e-19
-1.10486e-18
-2.57717e-19
-3.32253e-20
8.62787e-18
3.8414e-16
4.4775e-15
1.95479e-14
6.19889e-14
7.47957e-14
6.27271e-14
3.53519e-14
9.43886e-15
6.48536e-16
1.05468e-17
3.36724e-17
4.87767e-16
6.07758e-15
5.69661e-14
4.04035e-13
2.39416e-12
7.33722e-12
-2.41072e-20
-1.39637e-19
-2.75175e-19
-6.14935e-20
-8.17346e-21
7.13782e-19
3.71338e-17
5.88252e-16
2.56903e-15
7.48875e-15
8.61724e-15
7.03465e-15
3.421e-15
6.67771e-16
2.25247e-17
-4.80038e-36
4.54703e-19
1.19201e-16
1.91172e-15
2.21957e-14
1.98606e-13
1.41049e-12
5.33884e-12
-3.62399e-21
-2.08527e-20
-4.22237e-20
-8.99245e-21
-1.2004e-21
3.14702e-20
2.45776e-18
5.57808e-17
3.0374e-16
6.58559e-16
7.91737e-16
6.50371e-16
3.20349e-16
4.80685e-17
0
-9.64666e-18
-4.60657e-18
2.90295e-17
5.95591e-16
8.39638e-15
9.18497e-14
7.89282e-13
3.44891e-12
-2.74742e-22
-1.59407e-21
-3.44545e-21
-6.98937e-22
-9.60993e-23
2.07294e-23
6.7964e-20
2.87318e-18
1.84873e-17
3.59821e-17
4.87711e-17
3.99219e-17
1.57775e-17
0
-1.08746e-17
-1.04551e-17
-4.74489e-18
6.53978e-18
1.81362e-16
2.97693e-15
3.97449e-14
3.98421e-13
1.83693e-12
-1.78148e-31
-9.0059e-30
-2.59812e-28
-5.03957e-27
-7.19574e-26
-7.22946e-25
2.63551e-22
5.17481e-20
3.95101e-19
1.11753e-18
1.18727e-18
8.25468e-19
-1.87776e-19
-3.9088e-18
-6.79068e-18
-5.1215e-18
-2.17613e-18
1.54493e-18
5.27077e-17
9.59834e-16
1.54867e-14
1.78471e-13
8.71008e-13
-1.10558e-31
-5.586e-30
-1.66105e-28
-3.29978e-27
-5.01286e-26
-6.00473e-25
-4.7044e-24
2.66841e-23
5.71543e-22
1.96221e-21
-1.31301e-21
-5.17321e-20
-5.73977e-19
-1.76725e-18
-2.26512e-18
-1.48832e-18
-5.68779e-19
4.44693e-19
1.41777e-17
2.75532e-16
5.24468e-15
6.89527e-14
3.49787e-13
-5.37428e-32
-2.7124e-30
-8.24935e-29
-1.66439e-27
-2.57362e-26
-3.18438e-25
-3.14763e-24
-2.07896e-23
-9.67453e-23
-5.58604e-22
-4.38143e-21
-3.16192e-20
-1.48316e-19
-3.51289e-19
-3.98458e-19
-2.38657e-19
-7.7283e-20
1.31903e-19
3.41927e-18
6.92719e-17
1.51598e-15
2.23968e-14
1.19133e-13
-1.92507e-32
-9.68269e-31
-2.98051e-29
-6.01992e-28
-9.30527e-27
-1.16406e-25
-1.18125e-24
-9.51007e-24
-6.11328e-23
-3.35231e-22
-1.78445e-21
-7.9639e-21
-2.42967e-20
-4.69378e-20
-4.40831e-20
-2.31085e-20
-5.10119e-21
3.09593e-20
7.21677e-19
1.51329e-17
3.70869e-16
6.26445e-15
3.53787e-14
-4.5402e-33
-2.2667e-31
-6.96276e-30
-1.37582e-28
-2.05157e-27
-2.47616e-26
-2.47083e-25
-2.02278e-24
-1.33123e-23
-6.9191e-23
-2.82257e-22
-9.04875e-22
-2.23185e-21
-3.71664e-21
-2.47865e-21
-9.98218e-22
5.00609e-23
5.75281e-21
1.31201e-19
2.86499e-18
7.79454e-17
1.54138e-15
9.35041e-15
-5.37545e-34
-2.64869e-32
-7.96413e-31
-1.48043e-29
-1.97205e-28
-2.01259e-27
-1.63647e-26
-1.08895e-25
-6.04311e-25
-2.82886e-24
-1.11824e-23
-3.66388e-23
-9.21021e-23
-1.35103e-22
-6.75927e-23
-1.70816e-23
2.61157e-23
8.20781e-22
2.02446e-20
4.70559e-19
1.42742e-17
3.36157e-16
2.24835e-15
-3.694e-36
-1.87145e-34
-5.83489e-33
-1.15088e-31
-1.66295e-30
-1.88354e-29
-1.73577e-28
-1.33249e-27
-8.63629e-27
-4.74376e-26
-2.18353e-25
-7.9801e-25
-1.91993e-24
-1.06247e-24
-3.35628e-25
5.29228e-25
3.64616e-24
9.8019e-23
2.58653e-21
6.68207e-20
2.27506e-18
6.58581e-17
4.80946e-16
-8.21092e-39
-4.90092e-37
-1.79179e-35
-4.18464e-34
-7.20762e-33
-9.77077e-32
-1.08055e-30
-9.96657e-30
-7.73058e-29
-5.0049e-28
-2.59676e-27
-9.38967e-27
-1.40917e-26
-5.5049e-27
-1.29354e-27
2.98723e-27
2.9426e-25
9.0517e-24
2.66416e-22
8.22236e-21
3.24514e-19
1.18967e-17
8.42912e-17
-1.50936e-41
-1.04306e-39
-4.40253e-38
-1.1993e-36
-2.42786e-35
-3.89055e-34
-5.09259e-33
-5.53057e-32
-4.97079e-31
-3.56351e-30
-1.78396e-29
-3.95166e-29
-1.36155e-29
-2.72647e-30
-3.15634e-31
2.48185e-28
1.8855e-26
6.48408e-25
2.40404e-23
9.46796e-22
4.54329e-20
1.97174e-18
1.11328e-17
-9.29404e-45
-8.35324e-43
-4.48578e-41
-1.54416e-39
-3.90698e-38
-7.70533e-37
-1.21679e-35
-1.5429e-34
-1.49593e-33
-9.36148e-33
-1.66043e-32
-4.69275e-33
-7.75799e-34
-1.96439e-35
3.122e-33
1.76565e-29
1.0795e-27
4.94202e-26
2.38774e-24
1.09204e-22
5.76004e-21
2.64638e-19
1.21111e-18
-2.18923e-48
-2.57803e-46
-1.73144e-44
-7.28759e-43
-2.20582e-41
-5.03124e-40
-8.55097e-39
-9.68946e-38
-4.84393e-37
-1.08264e-37
-2.09674e-38
-2.14823e-37
-3.59259e-38
7.97133e-38
1.43789e-34
1.08068e-30
6.24137e-29
3.44654e-27
1.96973e-25
9.62517e-24
4.87934e-22
2.32079e-20
1.54525e-19
-1.06095e-53
-1.45221e-51
-9.7878e-50
-3.2631e-48
-4.19641e-47
-4.94549e-48
-5.82118e-49
-1.68522e-46
-8.1991e-44
-2.3002e-41
-3.36391e-39
-1.02437e-37
-2.38837e-38
-7.43199e-40
7.64392e-36
4.2132e-32
3.20918e-30
1.74654e-28
1.0849e-26
5.48151e-25
2.72637e-23
1.3545e-21
2.05726e-20
1.07153e-70
-4.85966e-65
-2.36072e-61
-3.46071e-58
-2.66991e-55
-1.46438e-52
-7.77406e-50
-4.56105e-47
-2.0567e-44
-6.00827e-42
-8.37679e-40
-2.51092e-38
-5.20851e-39
-1.38177e-40
4.11791e-37
1.13199e-33
1.024e-31
7.25645e-30
3.63554e-28
2.19525e-26
1.42312e-24
7.79765e-23
1.64094e-21
2.96914e-71
-1.97501e-65
-9.5422e-62
-1.39472e-58
-1.05078e-55
-5.14305e-53
-1.66416e-50
-3.87197e-48
-7.65088e-46
-1.56888e-43
-1.81292e-41
-2.94018e-42
-2.64871e-43
-1.05953e-42
4.57477e-39
1.76323e-35
2.50254e-33
1.72481e-31
1.14113e-29
9.79956e-28
4.51791e-26
2.57995e-24
8.65954e-23
2.27779e-73
-4.09543e-66
-1.96327e-62
-2.86753e-59
-2.14058e-56
-1.02805e-53
-3.11031e-51
-5.56946e-49
-4.55559e-47
-1.15694e-45
-8.27712e-44
-1.05453e-44
-8.18068e-46
-2.27396e-42
6.10449e-41
1.22586e-37
2.3e-35
2.42892e-33
2.23144e-31
1.85398e-29
1.13288e-27
9.37702e-26
2.60213e-24
-9.99129e-81
-5.97206e-70
-3.42161e-66
-6.14166e-63
-5.49824e-60
-2.75355e-57
-7.18404e-55
-7.93123e-53
-5.64498e-54
-2.3021e-55
-7.08514e-57
-1.76418e-57
-7.84716e-52
-8.23959e-43
-3.31575e-44
1.25244e-41
8.80912e-39
1.53163e-36
3.50618e-34
5.15803e-32
8.16101e-30
1.26132e-27
4.79627e-26
-1.91414e-81
-1.0546e-76
-8.40383e-73
-1.30748e-69
-6.4428e-67
-1.811e-68
-3.08051e-70
-7.4555e-71
-3.40557e-67
-1.00898e-63
-1.56803e-60
-7.82595e-58
-2.05865e-52
-2.06706e-52
-1.21673e-53
4.23161e-49
3.90021e-46
8.32599e-43
3.21459e-40
1.234e-37
4.72671e-35
1.96836e-32
7.62601e-31
0
0
-5.32326e-93
-3.35458e-88
-5.16474e-84
-1.4926e-79
-2.19116e-75
-1.68832e-71
-8.13597e-68
-2.48869e-64
-3.84921e-61
-1.98362e-58
-3.58518e-60
-3.53735e-62
-2.51776e-64
-9.31583e-66
1.26373e-64
1.08787e-58
3.47152e-78
3.08911e-52
1.09216e-49
6.37716e-48
9.32285e-46
0.760938
5.334e-08
4.03356e-08
2.01689e-08
0.97626
0.576617
0.14678
0.0264155
1
0.999044
0.882212
0.844379
0.999999
0.999978
0.999689
0.999387
0.999978
0.99976
0.999569
0.999495
0.33926
0.599502
0.754267
0.866327
0.00018886
0.0188223
0.0611965
0.118834
5.7405e-05
0.000136345
0.000531194
0.00113718
5.18581e-05
0.000154903
0.000838758
0.00141695
5.13144e-05
0.00110212
0.00119672
0.000988373
0.000738826
0.000705991
0.000169295
1.85224e-06
0.000195147
3.53319e-06
3.96216e-09
2.4428e-09
3.23256e-09
1.22232e-09
1.44062e-09
1.49696e-09
5.37332e-10
1.14983e-09
2.72485e-09
4.15486e-09
7.00631e-10
3.03843e-09
5.17233e-09
4.94043e-09
3.20407e-10
3.64914e-09
5.72415e-09
5.38499e-09
1.41376e-10
3.44531e-09
5.72415e-09
5.27313e-09
6.02881e-11
9.11674e-10
4.02052e-09
4.60008e-09
1.20947e-10
3.00273e-10
2.58123e-10
9.6993e-09
1.83006e-10
2.65215e-10
2.53459e-10
4.38053e-08
1.57748e-10
2.66471e-10
2.47546e-10
4.47359e-08
4.56409e-11
2.43924e-10
2.43339e-10
7.56486e-09
2.2987e-11
1.92677e-10
2.85131e-10
2.81454e-10
1.45201e-11
1.06714e-10
2.37642e-10
2.79075e-10
7.60317e-12
5.61574e-11
9.27471e-11
3.90465e-10
3.56056e-12
2.79524e-11
4.6515e-11
4.44468e-10
1.69086e-12
1.17497e-11
3.18474e-11
4.6701e-10
7.60742e-13
6.15317e-12
2.29751e-11
3.85842e-10
3.32284e-13
3.19789e-12
1.72123e-11
3.05739e-10
1.3615e-13
1.47573e-12
1.34382e-11
1.20254e-10
4.69651e-14
6.23566e-13
7.38503e-12
4.64223e-11
1.29187e-14
2.26191e-13
2.44247e-12
2.65613e-11
2.71049e-15
6.58538e-14
1.15795e-12
1.55305e-11
4.24606e-16
1.5679e-14
4.74168e-13
8.85068e-12
5.04628e-17
2.89278e-15
2.00112e-13
5.78665e-12
4.71584e-18
3.75657e-16
9.92297e-14
3.56402e-12
3.09103e-19
2.68094e-17
4.85262e-14
1.63494e-12
1.32419e-20
3.22649e-19
1.80122e-14
4.84667e-13
1.37313e-22
3.81201e-20
3.98824e-15
8.75727e-14
3.83737e-24
9.66756e-22
3.14741e-16
9.61744e-15
3.37575e-28
5.31483e-23
1.04073e-17
2.87302e-16
1.52679e-65
0
-5.67298e-38
-5.7294e-34
2.24614e-12
1.86422e-06
6.82177e-07
2.70971e-11
3.99119e-10
2.18544e-09
3.12203e-08
1.0815e-09
2.41001e-10
5.93347e-11
6.13872e-11
3.54092e-11
3.81436e-12
4.86138e-13
1.34053e-14
2.09749e-16
3.22515e-18
3.27301e-20
2.33813e-22
0.00109278
1.60762e-06
1.04798e-06
2.0282e-06
5.67494e-08
3.46428e-09
2.91946e-06
6.76804e-08
1.09606e-08
1.39617e-09
1.96174e-09
1.1312e-09
9.69026e-11
1.46871e-11
6.28829e-13
1.2059e-14
3.15593e-16
3.58059e-18
2.13481e-20
0.708191
0.180008
0.0743523
0.105281
0.00270531
8.69931e-08
5.79942e-07
7.88839e-06
3.58362e-07
1.21147e-08
1.28326e-07
6.55291e-08
5.07147e-09
5.20215e-10
3.94438e-11
6.58838e-13
7.18368e-15
2.60109e-16
1.64481e-18
0.999293
0.92148
0.91182
0.97404
0.64878
0.107072
0.0991052
0.0923679
0.00550301
3.58362e-07
5.5808e-06
2.891e-06
2.52101e-07
4.10139e-08
1.92417e-09
2.98781e-11
4.22662e-13
3.28918e-15
1.05006e-16
0.999387
0.999293
0.998943
0.998902
0.995713
0.92413
0.948111
0.945958
0.572094
0.11969
0.0107992
8.63289e-05
8.83051e-06
1.5358e-06
8.08971e-08
1.79412e-09
2.63202e-11
2.19325e-13
2.88507e-15
0.969549
0.998943
0.998908
0.998902
0.998907
0.998779
0.997612
0.996482
0.995085
0.984482
0.830717
0.233688
0.00457953
4.33521e-05
2.98681e-06
8.22312e-08
1.27356e-09
9.93406e-12
1.79617e-13
0.176271
0.231952
0.286386
0.319679
0.365684
0.541363
0.896324
0.996091
0.995612
0.995433
0.995433
0.981523
0.569538
0.0376886
8.26978e-05
2.74412e-06
5.72039e-08
4.64911e-10
1.11082e-11
0.00132556
0.00136394
0.00106831
0.000503003
0.000140514
0.00780223
0.0431872
0.0916318
0.18175
0.627338
0.993569
0.989819
0.987041
0.659697
0.0635229
7.64887e-05
1.56912e-06
2.39999e-08
4.64911e-10
0.00131078
0.0013576
0.00136076
0.000578342
3.79121e-06
5.68826e-06
1.35835e-05
3.94075e-05
0.000105691
0.0113047
0.14363
0.722081
0.983528
0.967623
0.620078
0.052377
4.37905e-05
1.02595e-06
2.4e-08
0.00027209
1.02415e-05
4.8186e-06
3.77718e-06
1.48662e-07
2.87801e-07
9.85706e-07
2.61473e-06
6.46215e-06
1.4231e-05
8.84873e-05
0.0493574
0.591616
0.958356
0.925795
0.440882
0.00758348
2.54934e-05
1.02611e-06
2.96877e-09
1.58313e-09
5.85022e-09
7.10352e-08
1.49853e-07
2.49774e-07
5.48745e-07
1.08237e-06
1.49333e-06
1.98346e-06
6.16869e-06
1.29789e-05
0.0354867
0.675744
0.913799
0.775657
0.15709
0.000240102
2.54936e-05
1.49696e-09
1.49195e-09
1.50809e-09
7.08505e-07
1.99042e-06
1.99474e-06
1.98414e-06
1.28054e-06
1.28193e-06
1.3059e-06
1.57382e-06
1.8338e-06
1.30351e-06
0.235171
0.838163
0.838136
0.392583
0.00265257
0.00024506
1.49195e-09
1.49195e-09
1.49195e-09
1.50809e-09
9.14091e-07
1.99042e-06
1.50869e-06
1.28146e-06
1.28219e-06
1.28233e-06
1.30763e-06
1.30351e-06
1.27048e-06
0.000551289
0.612435
0.834597
0.579287
0.0354428
0.000881845
4.01615e-09
3.39712e-09
5.55979e-09
1.60869e-09
1.05145e-08
2.90612e-08
3.29979e-08
5.56071e-06
2.80161e-05
1.21994e-05
1.33221e-06
1.25981e-06
1.27048e-06
1.25976e-06
0.300255
0.814907
0.689134
0.103953
0.00245066
3.53944e-09
3.37555e-09
3.4003e-09
8.8305e-07
9.24632e-07
4.57636e-08
1.85335e-06
4.33984e-05
4.75843e-05
4.87667e-05
3.57526e-05
1.90055e-06
1.26713e-06
1.42543e-06
0.116515
0.736829
0.730307
0.204061
0.00578268
3.68752e-09
3.399e-09
3.40637e-09
2.87778e-06
4.2329e-06
4.22782e-06
1.90458e-06
3.03116e-07
2.96254e-05
4.99062e-05
5.03971e-05
2.40942e-05
1.42543e-06
2.33309e-06
0.0278118
0.624705
0.718617
0.292038
0.0116888
3.50059e-09
3.4126e-09
3.41628e-09
6.8748e-07
4.12586e-06
3.39396e-06
3.9228e-07
2.57264e-07
7.46408e-06
5.01716e-05
5.05553e-05
5.04814e-05
5.78711e-06
2.97543e-06
0.00240679
0.534237
0.710365
0.283147
0.0206241
6.43706e-09
5.24962e-09
3.66368e-09
3.8194e-09
8.17009e-08
1.24676e-07
2.21492e-07
2.35412e-07
1.12397e-05
5.05553e-05
5.06307e-05
5.05553e-05
1.00834e-05
3.24582e-06
0.0180188
0.518406
0.628759
0.193124
0.0304262
4.51302e-08
4.34877e-08
8.08019e-09
3.90378e-09
1.04113e-06
1.53343e-06
4.12864e-07
2.57264e-07
3.54795e-05
5.06286e-05
5.06262e-05
4.38949e-05
4.60351e-06
3.80526e-06
0.0577636
0.52854
0.527283
0.114205
0.0292234
5.76605e-08
5.76192e-08
3.1292e-08
4.2017e-09
1.24759e-06
6.39854e-06
1.24484e-06
2.10371e-05
5.03215e-05
5.04047e-05
5.05892e-05
1.06126e-05
4.00466e-06
4.03772e-06
0.125328
0.547424
0.516003
0.107709
0.0232125
5.74347e-08
4.99526e-08
6.46718e-08
1.32841e-08
1.32572e-08
1.46607e-06
3.30045e-05
4.21876e-05
4.28966e-05
3.00149e-05
8.18534e-06
4.13643e-06
4.07616e-06
4.02553e-06
0.3783
0.554817
0.529861
0.095236
0.0193861
9.11555e-09
2.59494e-09
6.13588e-08
1.43468e-08
1.288e-08
2.49626e-08
2.73561e-05
4.06757e-05
2.04425e-05
4.51067e-06
4.18526e-06
4.13643e-06
4.13643e-06
0.220635
0.554363
0.55386
0.398647
0.0558751
0.00937679
2.82961e-10
2.83403e-10
3.59297e-10
2.23678e-07
3.23618e-07
1.34961e-07
1.88947e-05
2.71347e-05
7.65841e-06
4.27782e-06
4.21815e-06
4.18526e-06
0.226897
0.46933
0.497923
0.313954
0.156831
0.0167936
0.00134899
2.81454e-10
3.37569e-09
4.16244e-10
1.80753e-06
1.26191e-05
1.84885e-05
1.6379e-05
6.45853e-06
4.50924e-06
4.50567e-06
0.00577001
0.306141
0.401971
0.404561
0.145938
0.0327281
0.0431015
0.00135208
0.000282136
2.84086e-10
1.78211e-08
5.68458e-10
6.64413e-06
1.84885e-05
1.84885e-05
1.5257e-05
5.32337e-06
4.8852e-06
0.0124438
0.291632
0.358273
0.34578
0.108655
0.00077521
0.00167708
0.00178222
0.000282136
4.72987e-05
6.29383e-10
1.82285e-08
1.27308e-09
6.95008e-07
1.00665e-05
1.76415e-05
1.17276e-05
5.86779e-06
0.00862459
0.16862
0.28583
0.204891
0.0452479
0.000339404
0.000199244
0.0005556
0.000705275
0.000118598
2.18949e-05
4.67754e-10
1.10477e-08
4.09917e-09
5.87204e-09
8.2198e-06
9.49525e-06
1.03527e-05
0.0296341
0.0945335
0.129139
0.0555022
0.00348664
7.08813e-05
3.80549e-05
0.000104703
0.00018476
0.000498767
0.000161729
2.18949e-05
5.96764e-10
2.66568e-10
8.04152e-08
7.40873e-09
3.21015e-05
1.03527e-05
0.00126753
0.0892129
0.101199
0.0203195
0.000323121
3.30977e-05
1.03386e-05
1.65211e-05
8.00232e-05
0.000110297
0.000227453
0.000557734
2.24328e-05
5.92867e-10
2.81665e-10
1.15053e-07
6.63909e-08
3.49985e-05
1.2044e-05
0.00785328
0.091847
0.103858
0.0107442
3.30977e-05
1.14717e-05
6.89627e-06
1.32821e-05
9.98254e-05
0.000158872
0.000178086
0.000587884
2.49224e-05
2.71256e-10
2.77452e-11
8.07484e-08
6.10135e-08
3.43023e-05
1.73171e-05
1.82112e-05
0.0782451
0.13145
0.0330107
2.7103e-05
7.22189e-06
4.79085e-06
1.87282e-05
6.23739e-05
0.00011036
0.000130072
0.000419977
1.97418e-05
2.67119e-11
2.68709e-11
2.77452e-11
8.31426e-08
7.02327e-08
2.26982e-05
1.90139e-05
0.0666099
0.131913
0.042816
1.88785e-05
3.04141e-06
2.66003e-06
6.25337e-06
6.08295e-06
3.39344e-05
5.84277e-05
5.97538e-05
8.0575e-06
2.41395e-11
2.25265e-11
9.63059e-10
3.32954e-07
6.91787e-08
9.79749e-05
1.9614e-05
0.0507158
0.133119
0.133648
0.0111037
2.16911e-06
2.15622e-06
2.16912e-06
2.36567e-06
7.88371e-06
1.51103e-05
4.07741e-06
3.28284e-06
2.07583e-11
2.08018e-11
5.10248e-09
4.76204e-08
3.68235e-07
9.93743e-05
2.57627e-05
2.63604e-05
0.132552
0.142813
0.0298657
2.15737e-06
2.15737e-06
2.15588e-06
2.17717e-06
2.48638e-06
5.3152e-06
3.26978e-06
2.92293e-06
1.94522e-11
3.46067e-11
1.15008e-08
1.13629e-08
1.20198e-08
4.50277e-05
9.73903e-05
2.66336e-05
0.103449
0.144443
0.139635
0.00445394
2.15737e-06
2.15757e-06
2.16273e-06
2.22676e-06
3.03388e-06
6.68099e-06
2.94916e-06
1.88076e-11
6.82461e-11
3.36335e-10
1.35592e-08
5.84029e-08
6.52462e-08
0.000345307
4.44999e-05
0.0523389
0.146783
0.147526
0.0609361
2.15757e-06
2.16273e-06
2.16121e-06
2.32195e-06
2.87546e-06
5.39514e-06
3.34667e-06
9.64359e-12
1.21964e-11
3.67803e-10
2.1495e-08
8.29251e-08
7.1405e-08
0.000342811
8.05947e-05
0.00444774
0.1471
0.147672
0.148208
0.00416054
2.14148e-06
2.19463e-06
2.106e-06
1.64758e-06
1.61913e-06
2.37217e-06
3.53657e-12
8.66385e-12
9.89214e-12
5.20976e-10
1.18689e-07
1.2576e-06
5.42556e-06
0.000388388
0.000397951
0.117949
0.148208
0.148598
0.118617
0.00272197
2.56421e-06
1.56769e-06
1.11116e-06
5.26087e-07
8.21753e-07
9.29108e-13
5.0798e-12
9.06683e-12
1.83253e-10
4.63893e-09
1.06795e-07
0.000169619
0.00144169
0.000426185
0.0622877
0.148598
0.148598
0.148601
0.0505491
6.08624e-05
2.46686e-06
5.22466e-07
2.72358e-07
7.60918e-08
9.53173e-15
1.54489e-13
5.75663e-12
1.90963e-10
5.06338e-09
9.58161e-08
1.57293e-05
0.000975901
0.00164116
0.000564633
0.145196
0.148601
0.148603
0.133715
0.00579532
5.85871e-06
2.84917e-07
1.05373e-07
2.93896e-08
2.21557e-15
7.93702e-15
3.02968e-13
1.27876e-11
3.20476e-10
6.35016e-09
9.16607e-08
1.14136e-06
0.000511185
0.000515809
0.059242
0.148601
0.148545
0.107056
0.00410418
4.25804e-05
2.36927e-06
1.60078e-07
1.52909e-08
1.98295e-21
4.64811e-19
-4.26818e-29
2.22294e-17
5.03183e-14
1.01595e-11
7.12995e-10
2.36669e-08
4.3915e-05
0.000616573
0.000621984
0.0650937
0.0694658
0.0221878
0.002652
1.11792e-06
1.14954e-06
2.08796e-07
1.22117e-08
-2.18955e-30
-5.21837e-27
-7.2661e-22
5.54346e-34
0
-1.15547e-14
-2.07749e-11
-5.49831e-11
-6.25379e-14
-2.97639e-10
0.00063663
0.000754552
0.00268157
0.000734393
0.000618984
4.36535e-07
1.18357e-07
9.88622e-08
1.22117e-08
)
;

boundaryField
{
    leftWall
    {
        type            zeroGradient;
    }
    rightWall
    {
        type            zeroGradient;
    }
    lowerWall
    {
        type            zeroGradient;
    }
    atmosphere
    {
        type            inletOutlet;
        inletValue      uniform 0;
        value           nonuniform List<scalar> 
46
(
0
0
0
0
0
0
0
0
0
0
0
0
0
0
0
0
0
0
0
0
0
0
0
0
0
0
0
0
0
0
0
0
0
0
0
0
0
0.00063663
0.000754552
0.00268157
0.000734393
0.000618984
4.36535e-07
1.18357e-07
9.88622e-08
1.22117e-08
)
;
    }
    defaultFaces
    {
        type            empty;
    }
}


// ************************************************************************* //
