/*--------------------------------*- C++ -*----------------------------------*\
| =========                 |                                                 |
| \\      /  F ield         | OpenFOAM: The Open Source CFD Toolbox           |
|  \\    /   O peration     | Version:  2206                                  |
|   \\  /    A nd           | Website:  www.openfoam.com                      |
|    \\/     M anipulation  |                                                 |
\*---------------------------------------------------------------------------*/
FoamFile
{
    version     2.0;
    format      ascii;
    arch        "LSB;label=32;scalar=64";
    class       volScalarField;
    location    "0.35";
    object      p;
}
// * * * * * * * * * * * * * * * * * * * * * * * * * * * * * * * * * * * * * //

dimensions      [1 -1 -2 0 0 0 0];

internalField   nonuniform List<scalar> 
2268
(
1091.33
1095.33
1106.77
1112.84
1113.79
1110.39
1106.03
1103.32
1103.68
1107.92
1116.79
1131.19
1152.2
1181.29
1219.56
1268.27
1327.62
1395.42
1464.74
1523.14
1550.98
1559.48
1630.57
1031.31
1035.25
1046.53
1052.6
1053.48
1050.09
1045.79
1043.15
1043.52
1047.71
1056.48
1070.72
1091.45
1119.66
1156.72
1203.76
1261.61
1329.23
1401.15
1462.72
1496.02
1490.16
1569.61
970.091
974.008
984.994
990.999
991.751
988.378
984.197
981.666
982.066
986.166
994.726
1008.64
1028.93
1056.72
1093.22
1139.28
1194.99
1259.07
1327.92
1391.52
1434.42
1444.06
1525.15
907.827
911.624
922.249
928.102
928.657
925.311
921.308
918.933
919.352
923.3
931.533
944.963
964.642
991.711
1027.29
1072.12
1126.26
1188.24
1254.89
1319.87
1375.51
1414.14
1499.84
844.7
848.194
858.403
864.01
864.313
860.994
857.198
854.992
855.403
859.117
866.897
879.679
898.547
924.663
959.128
1002.67
1055.42
1116.36
1182.98
1251.08
1319.75
1383.37
1481.96
780.936
783.851
793.583
798.852
798.857
795.56
791.969
789.906
790.242
793.616
800.799
812.756
830.609
855.552
888.707
930.844
982.218
1042.45
1110.08
1182.4
1261.51
1343.69
1455.1
716.772
718.799
727.887
732.673
732.333
729.079
725.706
723.747
723.917
726.82
733.245
744.187
760.804
784.341
815.963
856.517
906.378
965.869
1034.65
1111.3
1198.58
1294.57
1416.55
652.395
653.333
661.292
665.342
664.633
661.489
658.381
656.503
656.417
658.709
664.198
673.916
689.06
710.963
740.998
779.629
827.617
886.074
955.538
1035.99
1129.98
1238.86
1365.35
1625.95
1626.05
1626.27
1626.58
1626.99
1627.47
1628.01
1628.59
1629.2
1629.83
1630.45
1631.06
1631.63
1632.15
1632.61
1633
1633.3
1633.5
1633.6
1625.85
1625.96
1626.17
1626.5
1626.91
1627.39
1627.94
1628.52
1629.14
1629.77
1630.4
1631.01
1631.58
1632.11
1632.57
1632.96
1633.26
1633.47
1633.57
1625.71
1625.82
1626.05
1626.39
1626.81
1627.3
1627.85
1628.45
1629.07
1629.71
1630.35
1630.97
1631.55
1632.08
1632.55
1632.95
1633.25
1633.46
1633.56
1625.53
1625.65
1625.89
1626.25
1626.69
1627.2
1627.76
1628.37
1629
1629.65
1630.3
1630.93
1631.53
1632.07
1632.55
1632.95
1633.27
1633.48
1633.59
1625.29
1625.43
1625.7
1626.08
1626.55
1627.07
1627.65
1628.27
1628.93
1629.6
1630.26
1630.91
1631.52
1632.08
1632.57
1632.98
1633.31
1633.53
1633.64
1624.98
1625.16
1625.46
1625.89
1626.39
1626.94
1627.53
1628.17
1628.85
1629.54
1630.22
1630.89
1631.52
1632.1
1632.61
1633.04
1633.37
1633.6
1633.72
1624.57
1624.83
1625.17
1625.67
1626.22
1626.79
1627.39
1628.06
1628.77
1629.48
1630.19
1630.88
1631.53
1632.13
1632.67
1633.12
1633.47
1633.71
1633.83
1624.1
1624.46
1624.83
1625.43
1626.05
1626.62
1627.23
1627.95
1628.68
1629.42
1630.15
1630.87
1631.56
1632.19
1632.75
1633.22
1633.59
1633.84
1633.97
551.409
550.584
555.836
558.656
557.437
554.394
551.548
549.605
548.894
549.975
553.708
561.153
573.524
592.267
619.295
655.207
699.971
756.435
826.163
910.995
1012.53
1141.02
1279.21
415.213
410.269
410.433
411.825
409.879
406.337
403.021
400.149
397.812
396.545
397.22
400.855
408.441
420.741
438.324
466.124
503.292
553.906
620.087
704.292
805.876
935.817
1071.83
284.189
273.609
265.501
262.838
258.936
253.962
249.29
244.57
239.635
235.033
231.722
230.917
234.2
244.049
262.01
283.64
304.437
343.696
401.655
477.903
568.313
677.903
807.784
164.87
143.659
120.133
112.094
107.103
101.656
96.3938
90.6091
83.962
76.7435
69.4269
62.5215
55.7648
51.1952
50.3612
51.8395
58.631
82.5887
127.581
193.826
278.571
378.293
498.863
73.4527
41.7082
23.4892
23.7206
23.053
21.0576
19.2001
17.5991
16.0434
14.5705
13.37
12.7517
11.8302
11.6598
11.8993
12.2225
12.7191
14.6208
18.3657
25.0563
37.6663
71.3548
146.862
15.6229
9.81923
9.40628
9.65343
9.7354
9.83338
9.96905
10.1376
10.3389
10.5751
10.8454
11.1363
11.3325
11.5079
11.7712
12.0547
12.3244
12.5948
12.9451
13.3436
13.9154
15.2802
21.6959
9.19858
9.22767
9.29548
9.43323
9.53455
9.64478
9.77967
9.94065
10.1283
10.3422
10.5769
10.8175
11.039
11.2684
11.5266
11.7874
12.055
12.3625
12.674
13.0203
13.405
13.7906
14.3542
9.03902
9.1206
9.15826
9.22843
9.32223
9.42906
9.55758
9.70835
9.88098
10.0737
10.28
10.4897
10.7012
10.9348
11.1748
11.3856
11.5761
11.822
12.1587
12.5697
13.059
13.5876
14.1795
8.84293
8.8805
8.93441
8.99651
9.08671
9.19095
9.31304
9.45403
9.61325
9.78888
9.97445
10.1624
10.3529
10.5534
10.757
10.9384
11.0685
11.2189
11.4646
11.951
12.6034
13.2429
13.8703
8.61344
8.64242
8.69671
8.75469
8.83622
8.93464
9.0499
9.18193
9.3298
9.49186
9.66314
9.83793
10.0166
10.1824
10.3472
10.5388
10.7282
10.9444
11.1911
11.599
12.2404
12.925
13.5853
8.36445
8.38948
8.43388
8.49179
8.56792
8.66078
8.76971
8.89413
9.03308
9.18523
9.34782
9.51736
9.69355
9.86196
10.0289
10.2111
10.4444
10.7556
11.1377
11.5911
12.0953
12.6548
13.2435
8.09413
8.115
8.15475
8.20994
8.28195
8.37007
8.47365
8.59204
8.72443
8.86988
9.02718
9.1948
9.37115
9.55273
9.74326
9.9463
10.1752
10.4522
10.8253
11.2705
11.7902
12.298
12.8189
7.80384
7.82204
7.85852
7.91074
7.97911
8.06309
8.16213
8.27571
8.40325
8.54417
8.69804
8.86441
9.04283
9.23297
9.4384
9.66482
9.92354
10.1964
10.542
10.9395
11.3734
11.8337
12.351
7.49477
7.51122
7.54526
7.5948
7.65991
7.74021
7.83527
7.9448
8.06844
8.20592
8.35718
8.52234
8.70181
8.89672
9.11005
9.3463
9.61157
9.90778
10.2525
10.6421
11.0711
11.5252
11.9702
7.16809
7.18343
7.21549
7.26265
7.32484
7.40178
7.49324
7.59909
7.7192
7.85353
8.0022
8.16565
8.34473
8.54097
8.75698
8.99636
9.26311
9.56051
9.89387
10.2618
10.6586
11.0764
11.5064
6.82485
6.83943
6.86981
6.91481
6.97431
7.04815
7.13623
7.23857
7.35521
7.48624
7.63192
7.79283
7.96997
8.16491
8.37981
8.61735
8.88024
9.17087
9.49101
9.83954
10.2127
10.6058
11.0147
6.46589
6.47988
6.50878
6.55179
6.60877
6.67967
6.76449
6.86335
6.9764
7.10381
7.24592
7.40333
7.57705
7.76847
7.9793
8.2115
8.4669
8.74692
9.05215
9.38163
9.73297
10.1032
10.4897
6.09197
6.10542
6.13297
6.17407
6.22864
6.29668
6.37828
6.4736
6.58283
6.70621
6.8441
6.99707
7.16603
7.35211
7.55664
7.78101
8.02643
8.29378
8.58324
8.89405
9.22458
9.57281
9.93693
5.70372
5.71664
5.74291
5.78217
5.83438
5.8996
5.97793
6.06957
6.17472
6.29363
6.42665
6.57432
6.73738
6.9167
7.11328
7.3281
7.562
7.81552
8.08869
8.38088
8.6909
9.01732
9.35883
5.30176
5.31411
5.33915
5.3766
5.42648
5.48884
5.56383
5.65162
5.75239
5.86641
5.994
6.13562
6.29185
6.46332
6.65075
6.85483
7.07617
7.3151
7.57155
7.84498
8.13449
8.43904
8.75763
4.88665
4.89841
4.92224
4.95789
5.00543
5.0649
5.13643
5.22017
5.3163
5.42505
5.54673
5.6817
5.83037
5.99317
6.1706
6.36314
6.57122
6.79503
7.03442
7.2889
7.55773
7.84014
8.1353
4.459
4.47013
4.49276
4.52661
4.57178
4.6283
4.69626
4.77578
4.86702
4.97019
5.08557
5.21342
5.35398
5.50753
5.67437
5.85483
6.04919
6.2575
6.47955
6.71486
6.96277
7.22266
7.49378
4.01942
4.02989
4.05131
4.08335
4.12612
4.17961
4.2439
4.31904
4.4052
4.50256
4.61133
4.7317
4.86377
5.00766
5.16354
5.33158
5.51192
5.70449
5.90899
6.12493
6.35171
6.58869
6.83511
3.56856
3.57836
3.59856
3.62876
3.66908
3.71948
3.77999
3.85065
3.93158
4.02295
4.12491
4.23755
4.36086
4.49483
4.63951
4.79495
4.96112
5.13781
5.32466
5.52114
5.72663
5.94042
6.16156
3.10711
3.11622
3.13519
3.16351
3.20133
3.24858
3.30525
3.37135
3.44697
3.53223
3.62724
3.73197
3.84634
3.97026
4.10364
4.24642
4.39839
4.55922
4.72846
4.90554
5.08975
5.2802
5.47566
2.63579
2.6442
2.66192
2.68834
2.72361
2.76767
2.82045
2.88195
2.95221
3.03131
3.11926
3.21598
3.32133
3.43513
3.55723
3.6874
3.8253
3.97046
4.12233
4.28024
4.44336
4.61054
4.78025
2.1553
2.16303
2.17947
2.20396
2.23667
2.27751
2.3264
2.38329
2.44817
2.52107
2.60193
2.69061
2.78693
2.89067
3.00158
3.11934
3.24343
3.37326
3.50817
3.64738
3.78982
3.93412
4.07842
1.66635
1.6734
1.68856
1.71111
1.74125
1.77886
1.82386
1.87616
1.93569
2.0024
2.07618
2.15688
2.24427
2.3381
2.43806
2.54369
2.65434
2.76931
2.88783
3.00895
3.13142
3.2536
3.37337
1.16961
1.17602
1.18986
1.21048
1.23805
1.27246
1.31359
1.36132
1.41554
1.47612
1.54293
1.61578
1.69443
1.77863
1.86796
1.96184
2.05952
2.16018
2.26299
2.36684
2.47029
2.57155
2.66825
0.665756
0.671527
0.684068
0.702769
0.727792
0.759014
0.796317
0.839535
0.888518
0.943099
1.00309
1.0683
1.13849
1.21337
1.29246
1.37505
1.4603
1.54734
1.63525
1.72281
1.80849
1.89039
1.96594
0.155475
0.160609
0.171871
0.188679
0.211197
0.239282
0.272811
0.311602
0.35547
0.404209
0.457595
0.515414
0.577449
0.643372
0.712631
0.784444
0.857917
0.932147
1.00614
1.07862
1.14799
1.21232
1.26894
-0.360575
-0.356087
-0.346052
-0.331091
-0.311019
-0.28601
-0.25617
-0.221694
-0.182789
-0.139705
-0.0926998
-0.0419946
0.0121994
0.0695402
0.129433
0.191054
0.253499
0.315842
0.377035
0.435748
0.490426
0.539154
0.579197
-0.881776
-0.877936
-0.869056
-0.855892
-0.838204
-0.816196
-0.789946
-0.759652
-0.725552
-0.687939
-0.647091
-0.60322
-0.556519
-0.507339
-0.456298
-0.404221
-0.352
-0.300575
-0.251047
-0.204734
-0.163083
-0.127953
-0.102048
-1.40748
-1.40428
-1.39649
-1.38508
-1.36972
-1.35063
-1.32785
-1.30161
-1.27217
-1.23986
-1.20496
-1.16763
-1.12804
-1.08655
-1.0438
-1.0006
-0.957796
-0.916341
-0.877357
-0.842098
-0.811858
-0.788371
-0.774215
-1.93689
-1.93435
-1.9276
-1.91793
-1.90482
-1.88853
-1.86911
-1.8468
-1.8219
-1.79474
-1.76556
-1.73444
-1.70154
-1.66725
-1.63224
-1.59726
-1.56309
-1.53065
-1.50106
-1.47548
-1.45505
-1.44136
-1.43676
-2.46922
-2.46738
-2.46162
-2.45365
-2.44269
-2.42909
-2.41291
-2.39442
-2.37395
-2.35178
-2.32803
-2.30275
-2.27612
-2.24858
-2.22077
-2.19335
-2.167
-2.14261
-2.12123
-2.10393
-2.09172
-2.08601
-2.08889
-3.00409
-3.00303
-2.99818
-2.99184
-2.98292
-2.97194
-2.95896
-2.94424
-2.92807
-2.91064
-2.89203
-2.87226
-2.85155
-2.83033
-2.80922
-2.78873
-2.76945
-2.75221
-2.73799
-2.72768
-2.72215
-2.72267
-2.73097
-3.54164
-3.54147
-3.53742
-3.53264
-3.52576
-3.51741
-3.50765
-3.49665
-3.48462
-3.47173
-3.45803
-3.44356
-3.42851
-3.41332
-3.39847
-3.38442
-3.37165
-3.36091
-3.35299
-3.34859
-3.34844
-3.35363
-3.36551
-4.08067
-4.08142
-4.07811
-4.07488
-4.07014
-4.06448
-4.05791
-4.05051
-4.04247
-4.03394
-4.02499
-4.01564
-4.00605
-3.99662
-3.98774
-3.97975
-3.97303
-3.96818
-3.96581
-3.96643
-3.97062
-3.97927
-3.99338
-4.61708
-4.61856
-4.61616
-4.61453
-4.61198
-4.60897
-4.60542
-4.60142
-4.59715
-4.59279
-4.58836
-4.58385
-4.57941
-4.57539
-4.5721
-4.5697
-4.56844
-4.56879
-4.57124
-4.57609
-4.58371
-4.59474
-4.60982
-5.15366
-5.15575
-5.15468
-5.15466
-5.15426
-5.15376
-5.15316
-5.15252
-5.15198
-5.15166
-5.15157
-5.15174
-5.15232
-5.15355
-5.15559
-5.15849
-5.16243
-5.16773
-5.17467
-5.18333
-5.19387
-5.20662
-5.22183
-5.71178
-5.71526
-5.71576
-5.7174
-5.71922
-5.7214
-5.72402
-5.72713
-5.7307
-5.73476
-5.73943
-5.74483
-5.75103
-5.75802
-5.76587
-5.77473
-5.78469
-5.79569
-5.80773
-5.82086
-5.83508
-5.85018
-5.86584
1615.98
1620.78
1620.35
1620.23
1297.81
1582.21
1610.86
1620.1
967.419
1188.99
1373.26
1506.71
644.174
792.914
937.769
1054.82
266.673
404.812
526.256
635.429
36.9224
68.0176
116.889
177.105
15.1659
17.0702
21.7487
27.3525
14.9216
15.7835
17.1026
18.619
14.5868
15.4567
16.5347
17.8125
14.2517
15.0236
15.9646
16.9753
13.915
14.6072
15.4719
16.3622
13.4623
14.1774
14.9926
15.9014
12.989
13.7312
14.5107
15.3457
12.5475
13.2474
13.9856
14.77
12.0539
12.7251
13.4285
14.1711
11.5323
12.171
12.8406
13.5459
10.9793
11.5859
12.2225
12.8926
10.3988
10.9724
11.5753
12.2103
9.79241
10.3319
10.8998
11.4988
9.16224
9.66616
10.1972
10.7585
8.50997
8.9765
9.46842
9.98968
7.83735
8.26437
8.71433
9.19204
7.14632
7.53146
7.93582
8.36504
6.43923
6.77998
7.13446
7.50859
5.71891
6.01305
6.31336
6.62425
4.98869
5.23479
5.47755
5.71723
4.25235
4.45024
4.63395
4.79759
3.51399
3.66505
3.79078
3.87877
2.77768
2.88505
2.95694
2.97535
2.04704
2.11543
2.14054
2.10087
1.32503
1.36009
1.34703
1.26331
0.613874
0.621657
0.579289
0.464753
-0.0850942
-0.0986655
-0.161911
-0.295483
-0.771445
-0.800936
-0.87775
-1.02042
-1.44496
-1.48555
-1.5699
-1.71415
-2.10515
-2.15274
-2.23994
-2.37978
-2.75244
-2.80356
-2.88965
-3.02006
-3.38977
-3.44102
-3.52233
-3.63854
-4.01848
-4.06633
-4.13789
-4.238
-4.63396
-4.6754
-4.73379
-4.81416
-5.24369
-5.27633
-5.31777
-5.37247
-5.88532
-5.90797
-5.92779
-5.9453
1622.81
1623.6
1624.13
1625
1625.79
1626.37
1627.05
1627.76
1628.55
1629.32
1630.11
1630.88
1631.61
1632.3
1632.91
1633.42
1633.83
1634.1
1634.24
1622.59
1622.74
1623.04
1624.25
1625.48
1625.81
1626.35
1627.31
1628.31
1629.16
1630.06
1630.92
1631.74
1632.53
1633.23
1633.83
1634.3
1634.62
1634.79
1578.7
1612.15
1615.44
1616.77
1625.72
1625.66
1625.67
1626.62
1628.04
1628.96
1629.96
1630.93
1631.91
1632.85
1633.68
1634.39
1634.94
1635.33
1635.53
1192.16
1350.1
1439.92
1470.41
1581.03
1617.9
1616.14
1619.77
1628.91
1629.18
1629.79
1630.88
1632.05
1633.26
1634.26
1635.12
1635.79
1636.27
1636.52
743.876
837.559
917.713
997.073
1137.13
1351.78
1411.7
1479.44
1580.55
1620.91
1628.88
1630.94
1632.23
1633.78
1635
1636.05
1636.89
1637.48
1637.79
238.173
292.387
347.969
403.123
484.021
631.867
788.339
928.588
1116.91
1385.11
1555.06
1616.82
1632.56
1634.64
1636
1637.17
1638.26
1639.04
1639.45
31.899
36.1834
40.5763
43.4199
46.3607
68.5772
140.77
251.769
407.493
699.508
990.002
1326.23
1594.3
1634.3
1637.51
1638.46
1639.93
1641.04
1641.6
19.6058
20.3298
21.083
21.5633
21.7349
22.0915
24.2305
28.9771
36.8371
95.7156
336.33
749.354
1181.97
1563.67
1636.16
1640.33
1642.02
1643.66
1644.62
18.615
19.1632
19.8189
20.477
20.9471
21.2405
21.5785
22.2609
23.0934
24.9501
36.2137
158.321
615.909
1140.42
1566.85
1640.61
1644.69
1647.2
1648.59
17.7873
18.349
18.9072
19.5085
20.1101
20.6556
21.2051
21.8913
22.6525
23.233
24.3192
28.3279
130.159
607.116
1232.01
1626.06
1648.52
1652.61
1654.08
17.1567
17.7665
18.3596
18.9517
19.5318
20.1022
20.7014
21.4028
22.2069
22.9787
23.9335
24.6217
26.5084
109.3
805.208
1456.47
1655.67
1658.45
1660.59
16.6261
17.1917
17.7581
18.3336
18.9144
19.5032
20.1214
20.8018
21.5635
22.3519
23.2507
24.2034
24.6222
26.7146
429.152
1200.76
1651.62
1662.85
1667.54
16.0405
16.5867
17.1399
17.7019
18.2737
18.8618
19.4793
20.1449
20.8714
21.6458
22.4924
23.467
24.0565
24.6014
72.5244
904.853
1584.89
1664.2
1672.86
15.4356
15.9628
16.5014
17.0523
17.6163
18.1965
18.8032
19.4508
20.1514
20.9012
21.6869
22.5385
23.2561
23.4622
25.7225
639.128
1454.6
1657.09
1669.59
14.8072
15.3144
15.8357
16.3724
16.9248
17.493
18.08
18.7029
19.3766
20.0935
20.8316
21.5661
22.3011
22.6235
24.0652
366.618
1267.46
1613.41
1634.09
14.1527
14.6385
15.1395
15.6565
16.1904
16.7411
17.3113
17.9069
18.5491
19.2451
19.9688
20.6813
21.4059
21.7778
21.6144
165.475
1042.42
1478.42
1505.64
13.4701
13.9332
14.4115
14.9043
15.4126
15.9389
16.4906
17.0675
17.6886
18.3644
19.0848
19.8315
20.6324
21.2907
22.1669
86.7855
801.503
1182.66
1197.93
12.7581
13.1976
13.6519
14.1195
14.5997
15.0965
15.6177
16.182
16.7888
17.4457
18.158
18.9349
19.8159
20.7335
23.5146
80.6326
518.559
701.83
682.768
12.0164
12.4323
12.8625
13.3052
13.7606
14.2362
14.7422
15.2885
15.8789
16.5165
17.2131
17.9866
18.8279
19.6144
21.0677
39.9664
186.603
220.663
211.09
11.245
11.6372
12.0445
12.4651
12.9007
13.3634
13.8652
14.4072
14.9873
15.6192
16.3211
17.1004
17.9395
18.647
18.0777
-47.0078
-88.4329
-39.8618
32.37
10.4436
10.8117
11.197
11.5991
12.0223
12.479
12.9844
13.5421
14.1312
14.7763
15.4878
16.2806
17.2624
18.0603
11.2151
-166.754
-320.971
-284.332
49.8991
9.61094
9.95334
10.3164
10.7026
11.1205
11.5851
12.1108
12.681
13.2778
13.921
14.6781
15.3955
16.5836
13.3086
-80.8106
-259.02
-578.652
-453.645
19.3345
8.74369
9.05641
9.39362
9.7626
10.1767
10.6505
11.1916
11.7761
12.3412
13.0124
13.7083
13.5712
8.55569
-15.7177
-89.4561
-149.49
-397.093
-220.823
-52.3784
7.83843
8.11368
8.41485
8.75629
9.15717
9.63804
10.2067
10.7915
11.2644
11.7576
12.2533
-3.22637
-1.95878
-5.74101
-12.668
-44.1769
-95.6013
-81.1496
-65.7805
6.89369
7.11869
7.36653
7.66018
8.02534
8.49963
9.14244
9.7457
10.2467
10.6395
-8.99549
-16.6965
-19.5238
-22.7376
-22.501
-25.1643
-39.6887
-59.9734
-64.5955
5.91336
6.06984
6.24013
6.4494
6.72876
7.15964
7.97672
8.26513
8.04381
0.113533
-14.235
-23.8283
-28.343
-28.8449
-27.2457
-24.9233
-33.7782
-59.7119
-62.1808
4.91018
4.98096
5.04613
5.10638
5.20153
5.50549
6.50707
5.10129
-20.0671
-25.1171
-27.8365
-30.5415
-31.2433
-31.1011
-31.032
-31.3557
-37.6674
-58.6454
-57.9938
3.90487
3.88545
3.83153
3.69454
3.51857
3.4127
3.65592
-4.74841
-30.8421
-30.6977
-30.5596
-30.9913
-32.0023
-32.8162
-33.9932
-36.2726
-39.5512
-51.2496
-51.8024
2.9214
2.82197
2.65606
2.35714
1.96516
1.39005
-0.629558
-12.903
-30.057
-30.482
-30.6423
-31.3022
-32.4704
-33.7485
-35.4075
-37.7641
-38.3232
-43.0676
-44.1532
1.98355
1.82583
1.57889
1.19958
0.680788
0.00714472
-1.15197
-2.0862
-25.9305
-30.3459
-30.4921
-31.0488
-32.2357
-33.5654
-35.0747
-36.7854
-35.9115
-36.8425
-37.2563
1.10424
0.914347
0.633472
0.247663
-0.279113
-0.747554
-1.46631
-2.05126
-20.6172
-29.6303
-29.9522
-30.148
-31.1037
-32.1421
-33.249
-34.4184
-32.7855
-32.5092
-32.3604
0.281537
0.0780858
-0.205039
-0.56285
-1.02001
-1.25891
-1.85367
-0.376078
-14.1898
-29.0127
-29.1106
-28.7557
-29.029
-29.5852
-30.2466
-30.6499
-29.3845
-29.0419
-28.7879
-0.490499
-0.698435
-0.976374
-1.31819
-1.72196
-2.01264
-2.3869
-2.95592
-3.49478
-20.1307
-25.9209
-26.7611
-25.9311
-26.1143
-26.2691
-26.3064
-25.4984
-25.5595
-25.4662
-1.21805
-1.42488
-1.69682
-2.03025
-2.41129
-2.73229
-2.91067
-3.18032
-2.30107
-6.78388
-23.8642
-24.1557
-22.7508
-22.229
-21.8937
-21.8185
-21.5505
-21.9759
-22.057
-1.90709
-2.10902
-2.37833
-2.72143
-3.12934
-3.43798
-3.43254
-3.57664
-1.15741
-3.99834
-14.4699
-19.8294
-19.788
-18.2173
-17.7485
-17.7137
-17.9559
-18.5898
-18.7249
-2.56128
-2.7532
-3.01655
-3.38406
-3.89558
-4.31552
-4.51926
-4.68437
-5.49366
-12.5485
-13.9041
-14.966
-16.9181
-15.1617
-14.3432
-14.4648
-15.044
-15.6977
-15.7436
-3.1872
-3.36299
-3.61032
-3.99584
-4.57676
-5.19108
-5.65464
-6.0678
-7.0013
-7.03738
-10.5178
-12.1427
-16.1441
-13.3915
-11.6325
-12.2493
-13.0048
-13.4652
-13.2977
-3.79001
-3.9467
-4.1692
-4.53084
-5.10488
-5.77449
-6.30385
-6.69639
-7.87403
-6.98038
-12.0368
-13.2745
-9.38498
-12.2251
-10.5661
-11.7358
-12.0624
-11.9241
-11.4264
-4.36833
-4.50409
-4.70099
-5.0166
-5.51386
-6.14119
-6.74388
-7.3142
-7.8039
-8.16715
-10.788
-17.3032
-14.484
-15.1397
-13.6348
-13.9247
-12.1504
-11.0215
-9.9115
-4.91891
-5.03059
-5.19831
-5.46516
-5.86976
-6.40258
-6.98139
-7.49229
-7.9277
-8.41106
-7.77418
-14.9247
-18.9676
-21.472
-19.2608
-15.5948
-12.2653
-10.3967
-8.48329
-5.44558
-5.52888
-5.65991
-5.87706
-6.19406
-6.57509
-6.96707
-7.31735
-7.7034
-8.61912
-11.2464
-13.1302
-13.2778
-15.7022
-17.2827
-12.8977
-10.6893
-8.73142
-6.9209
-5.96575
-5.99465
-6.04296
-6.16798
-6.39111
-6.64089
-6.83738
-6.92404
-6.95304
-7.5579
-10.9151
-13.6857
-15.4051
-10.4763
-9.85726
-8.15855
-7.89683
-7.12361
-6.66379
)
;

boundaryField
{
    leftWall
    {
        type            calculated;
        value           nonuniform List<scalar> 
50
(
1091.33
1031.31
970.091
907.827
844.7
780.936
716.772
652.395
551.409
415.213
284.189
164.87
73.4527
15.6229
9.19858
9.03902
8.84293
8.61344
8.36445
8.09413
7.80384
7.49477
7.16809
6.82485
6.46589
6.09197
5.70372
5.30176
4.88665
4.459
4.01942
3.56856
3.10711
2.63579
2.1553
1.66635
1.16961
0.665756
0.155475
-0.360575
-0.881776
-1.40748
-1.93689
-2.46922
-3.00409
-3.54164
-4.08067
-4.61708
-5.15366
-5.71178
)
;
    }
    rightWall
    {
        type            calculated;
        value           nonuniform List<scalar> 
50
(
1633.6
1633.57
1633.56
1633.59
1633.64
1633.72
1633.83
1633.97
1634.24
1634.79
1635.53
1636.52
1637.79
1639.45
1641.6
1644.62
1648.59
1654.08
1660.59
1667.54
1672.86
1669.59
1634.09
1505.64
1197.93
682.768
211.09
32.37
49.8991
19.3345
-52.3784
-65.7805
-64.5955
-62.1808
-57.9938
-51.8024
-44.1532
-37.2563
-32.3604
-28.7879
-25.4662
-22.057
-18.7249
-15.7436
-13.2977
-11.4264
-9.9115
-8.48329
-6.9209
-6.66379
)
;
    }
    lowerWall
    {
        type            calculated;
        value           nonuniform List<scalar> 
62
(
1120.76
1124.76
1136.2
1142.27
1143.22
1139.82
1135.46
1132.75
1133.11
1137.35
1146.22
1160.62
1181.63
1210.72
1248.99
1297.7
1357.05
1424.85
1494.17
1552.15
1575.04
1583.53
1656.68
1630.57
1569.61
1525.15
1499.84
1481.96
1455.1
1416.55
1365.35
1663.62
1620.84
1620.41
1620.29
1625.95
1625.85
1625.71
1625.53
1625.29
1624.98
1624.57
1624.1
1625.98
1626.08
1626.3
1626.61
1627.02
1627.5
1628.04
1628.62
1629.23
1629.86
1630.48
1631.09
1631.66
1632.18
1632.64
1633.03
1633.33
1633.53
1633.63
)
;
    }
    atmosphere
    {
        type            calculated;
        value           nonuniform List<scalar> 
46
(
-6.01296
-6.01859
-6.01954
-6.02216
-6.02525
-6.02898
-6.0335
-6.03884
-6.04489
-6.0516
-6.05912
-6.06767
-6.07731
-6.08787
-6.09931
-6.11187
-6.12565
-6.14038
-6.1558
-6.17204
-6.18901
-6.20608
-6.22264
-6.24156
-6.2593
-6.26634
-6.2577
-6.23408
-6.20303
-6.17101
-6.17125
-6.25471
-6.44576
-6.70229
-6.94
-7.04037
-6.57962
-9.37267
-10.0476
-21.0765
-9.9322
-9.27168
-5.73154
-5.72972
-5.72961
-5.72911
)
;
    }
    defaultFaces
    {
        type            empty;
    }
}


// ************************************************************************* //
