/*--------------------------------*- C++ -*----------------------------------*\
| =========                 |                                                 |
| \\      /  F ield         | OpenFOAM: The Open Source CFD Toolbox           |
|  \\    /   O peration     | Version:  2206                                  |
|   \\  /    A nd           | Website:  www.openfoam.com                      |
|    \\/     M anipulation  |                                                 |
\*---------------------------------------------------------------------------*/
FoamFile
{
    version     2.0;
    format      ascii;
    arch        "LSB;label=32;scalar=64";
    class       volScalarField;
    location    "0.35";
    object      p_rgh;
}
// * * * * * * * * * * * * * * * * * * * * * * * * * * * * * * * * * * * * * //

dimensions      [1 -1 -2 0 0 0 0];

internalField   nonuniform List<scalar> 
2268
(
1120.76
1124.76
1136.2
1142.27
1143.22
1139.82
1135.46
1132.75
1133.11
1137.35
1146.22
1160.62
1181.63
1210.72
1248.99
1297.7
1357.05
1424.85
1494.17
1552.15
1575.04
1583.53
1656.68
1119.6
1123.53
1134.82
1140.89
1141.77
1138.38
1134.08
1131.43
1131.81
1136
1144.77
1159.01
1179.74
1207.95
1245.01
1292.04
1349.9
1417.52
1489.44
1551
1577.96
1569.17
1657.74
1117.24
1121.15
1132.14
1138.15
1138.9
1135.52
1131.34
1128.81
1129.21
1133.31
1141.87
1155.78
1176.08
1203.87
1240.37
1286.43
1342.14
1406.21
1475.06
1538.66
1581.56
1590.87
1672.05
1113.83
1117.63
1128.25
1134.11
1134.66
1131.32
1127.31
1124.94
1125.36
1129.31
1137.54
1150.97
1170.65
1197.72
1233.3
1278.13
1332.27
1394.24
1460.89
1525.88
1581.51
1620.15
1705.08
1109.56
1113.06
1123.27
1128.87
1129.18
1125.86
1122.06
1119.86
1120.27
1123.98
1131.76
1144.54
1163.41
1189.53
1223.99
1267.54
1320.28
1381.23
1447.84
1515.94
1584.61
1648.23
1745.86
1104.66
1107.57
1117.31
1122.58
1122.58
1119.28
1115.69
1113.63
1113.97
1117.34
1124.52
1136.48
1154.33
1179.28
1212.43
1254.57
1305.94
1366.17
1433.81
1506.13
1585.23
1667.41
1777.64
1099.35
1101.38
1110.47
1115.25
1114.91
1111.66
1108.29
1106.33
1106.5
1109.4
1115.83
1126.77
1143.39
1166.92
1198.55
1239.1
1288.96
1348.45
1417.23
1493.88
1581.16
1677.15
1797.74
1093.84
1094.77
1102.73
1106.78
1106.07
1102.93
1099.82
1097.94
1097.86
1100.15
1105.64
1115.36
1130.5
1152.4
1182.44
1221.07
1269.06
1327.51
1396.98
1477.43
1571.42
1680.31
1805.53
1625.98
1626.08
1626.3
1626.61
1627.02
1627.5
1628.04
1628.62
1629.23
1629.86
1630.48
1631.09
1631.66
1632.18
1632.64
1633.03
1633.33
1633.53
1633.63
1625.94
1626.05
1626.26
1626.59
1627
1627.48
1628.03
1628.61
1629.23
1629.86
1630.49
1631.1
1631.67
1632.2
1632.66
1633.05
1633.35
1633.55
1633.66
1625.86
1625.97
1626.2
1626.53
1626.96
1627.45
1628
1628.6
1629.22
1629.86
1630.5
1631.11
1631.7
1632.23
1632.7
1633.09
1633.4
1633.61
1633.71
1625.73
1625.86
1626.1
1626.45
1626.9
1627.4
1627.96
1628.57
1629.21
1629.86
1630.51
1631.14
1631.73
1632.28
1632.76
1633.16
1633.47
1633.69
1633.79
1625.55
1625.7
1625.96
1626.35
1626.82
1627.34
1627.92
1628.54
1629.19
1629.86
1630.52
1631.17
1631.78
1632.34
1632.83
1633.25
1633.57
1633.79
1633.9
1625.31
1625.49
1625.78
1626.22
1626.72
1627.26
1627.85
1628.5
1629.17
1629.86
1630.54
1631.21
1631.84
1632.42
1632.93
1633.36
1633.7
1633.93
1634.04
1624.95
1625.22
1625.55
1626.06
1626.61
1627.17
1627.77
1628.45
1629.15
1629.86
1630.57
1631.26
1631.91
1632.52
1633.05
1633.5
1633.85
1634.09
1634.21
1624.54
1624.9
1625.27
1625.87
1626.49
1627.06
1627.67
1628.39
1629.12
1629.86
1630.59
1631.31
1632
1632.63
1633.19
1633.66
1634.03
1634.28
1634.41
1084.88
1084.05
1089.3
1092.12
1090.9
1087.86
1085.01
1083.07
1082.36
1083.44
1087.18
1094.62
1106.99
1125.73
1152.76
1188.67
1233.44
1289.9
1359.63
1444.46
1545.99
1674.48
1812.68
1073.87
1068.93
1069.09
1070.49
1068.54
1065
1061.68
1058.81
1056.47
1055.21
1055.88
1059.52
1067.1
1079.4
1096.99
1124.79
1161.95
1212.57
1278.75
1362.95
1464.54
1594.48
1730.49
1068.05
1057.46
1049.34
1046.68
1042.78
1037.8
1033.13
1028.41
1023.48
1018.87
1015.56
1014.76
1018.05
1027.9
1045.86
1067.49
1088.29
1127.55
1185.51
1261.76
1352.17
1461.76
1591.64
1073.92
1044.4
958.35
948.124
938.616
917.187
891.351
862.152
826.886
785.334
739.974
695.021
654.778
619.125
604.978
623.974
672.729
765.979
903.204
1087.89
1187.62
1287.34
1407.91
967.713
531.595
254.744
254.627
241.009
204.69
169.705
138.659
107.825
77.5678
50.6546
29.6128
13.0754
12.6941
12.9337
13.2571
18.6208
43.9442
101.192
210.764
412.874
704.957
1062.07
134.618
10.9787
10.5657
10.8129
10.8948
10.9928
11.1285
11.2971
11.4983
11.7345
12.0048
12.2957
12.4919
12.6674
12.9307
13.2143
13.4843
13.7551
14.1631
14.6566
15.3264
41.5698
154.113
10.4832
10.5123
10.5801
10.7179
10.8192
10.9294
11.0643
11.2253
11.4129
11.6269
11.8615
12.1021
12.3236
12.553
12.8114
13.0844
13.4487
13.7551
14.0682
14.4237
14.8173
15.1697
15.7762
10.4488
10.5304
10.5681
10.6383
10.7321
10.8389
10.9674
11.1182
11.2908
11.4836
11.6898
11.8995
12.111
12.4042
12.968
13.4305
13.8622
14.1055
14.4409
14.5346
14.5903
15.0738
15.6623
10.378
10.4155
10.4694
10.5315
10.6217
10.726
10.8481
10.989
11.1483
11.3239
11.5099
11.6974
11.888
12.3996
13.2455
13.4275
13.5575
13.7079
13.9498
14.4317
14.4404
14.8543
15.4815
10.2737
10.3026
10.3569
10.4149
10.4964
10.5949
10.7101
10.8421
10.99
11.1521
11.3238
11.4982
11.6768
12.0474
12.6526
13.2302
13.4202
13.3906
13.033
13.4413
14.0004
14.6675
15.3282
10.1499
10.1749
10.2193
10.2772
10.3533
10.4462
10.5551
10.6795
10.8185
10.9706
11.1337
11.3029
11.4871
11.6474
11.8144
12.3469
12.9752
13.3859
13.2703
13.512
13.9837
14.8062
16.3324
10.0047
10.0256
10.0654
10.1205
10.1926
10.2807
10.3843
10.5027
10.635
10.7805
10.9379
11.1055
11.2818
11.4633
11.6539
11.8569
12.0858
12.9365
13.9728
14.4794
14.9981
15.5044
15.9484
9.83964
9.85784
9.89432
9.94654
10.0149
10.0989
10.1979
10.3115
10.4391
10.58
10.7339
10.9002
11.0786
11.2688
11.4742
11.7006
11.9593
12.2322
12.5778
12.9753
13.4117
13.9088
14.4076
9.65577
9.67222
9.70626
9.75579
9.82091
9.90121
9.99627
10.1058
10.2294
10.3669
10.5182
10.6834
10.8628
11.0577
11.271
11.5073
11.7726
12.0688
12.4135
12.8031
13.2321
13.6862
14.1312
9.45428
9.46962
9.50169
9.54884
9.61103
9.68797
9.77943
9.88528
10.0054
10.1397
10.2884
10.4519
10.6309
10.8272
11.0432
11.2826
11.5493
11.8467
12.1801
12.548
12.9448
13.3625
13.7926
9.23623
9.25081
9.2812
9.3262
9.3857
9.45954
9.54762
9.64995
9.76659
9.89762
10.0433
10.2042
10.3814
10.5763
10.7912
11.0287
11.2916
11.5823
11.9024
12.2509
12.6241
13.0172
13.4261
9.00247
9.01646
9.04536
9.08837
9.14535
9.21625
9.30107
9.39993
9.51298
9.64039
9.78249
9.93991
10.1136
10.305
10.5159
10.7481
11.0035
11.2835
11.5887
11.9182
12.2696
12.6397
13.0263
8.75374
8.7672
8.79474
8.83585
8.89042
8.95846
9.04006
9.13538
9.24461
9.36799
9.50587
9.65885
9.8278
10.0139
10.2184
10.4428
10.6882
10.9555
11.245
11.5558
11.8864
12.2346
12.5987
8.49069
8.50361
8.52988
8.56914
8.62135
8.68656
8.7649
8.85654
8.96169
9.0806
9.21362
9.36129
9.52434
9.70367
9.90025
10.1151
10.349
10.6025
10.8757
11.1678
11.4779
11.8043
12.1458
8.21392
8.22627
8.25131
8.28876
8.33864
8.401
8.47599
8.56378
8.66456
8.77857
8.90616
9.04779
9.20401
9.37548
9.56291
9.76699
9.98833
10.2273
10.4837
10.7571
11.0467
11.3512
11.6698
7.92401
7.93577
7.9596
7.99525
8.04278
8.10226
8.17379
8.25753
8.35366
8.46241
8.58409
8.71906
8.86773
9.03053
9.20795
9.4005
9.60858
9.83239
10.0718
10.3263
10.5951
10.8775
11.1727
7.62155
7.63268
7.65531
7.68916
7.73433
7.79085
7.85881
7.93833
8.02957
8.13274
8.24812
8.37597
8.51653
8.67008
8.83692
9.01738
9.21174
9.42006
9.64211
9.87741
10.1253
10.3852
10.6563
7.30716
7.31764
7.33906
7.3711
7.41387
7.46736
7.53164
7.60679
7.69294
7.7903
7.89908
8.01945
8.15152
8.29541
8.45128
8.61933
8.79967
8.99224
9.19674
9.41268
9.63945
9.87644
10.1229
6.9815
6.9913
7.0115
7.0417
7.08202
7.13242
7.19293
7.26359
7.34452
7.43589
7.53785
7.65049
7.7738
7.90778
8.05246
8.20789
8.37406
8.55075
8.7376
8.93408
9.13958
9.35336
9.5745
6.64525
6.65436
6.67332
6.70165
6.73947
6.78672
6.84339
6.90949
6.98511
7.07037
7.16537
7.27011
7.38448
7.50839
7.64178
7.78455
7.93653
8.09736
8.2666
8.44368
8.62789
8.81833
9.0138
6.29912
6.30753
6.32525
6.35167
6.38694
6.431
6.48378
6.54528
6.61554
6.69464
6.78259
6.87931
6.98466
7.09846
7.22056
7.35073
7.48863
7.63379
7.78566
7.94357
8.10669
8.27387
8.44358
5.94383
5.95155
5.96799
5.99249
6.0252
6.06603
6.11492
6.17181
6.2367
6.30959
6.39045
6.47914
6.57546
6.67919
6.79011
6.90786
7.03196
7.16179
7.2967
7.4359
7.57834
7.72264
7.86694
5.58007
5.58712
5.60228
5.62483
5.65497
5.69258
5.73758
5.78987
5.84941
5.91612
5.9899
6.0706
6.15799
6.25182
6.35178
6.45741
6.56806
6.68303
6.80155
6.92267
7.04514
7.16732
7.28709
5.20852
5.21493
5.22877
5.2494
5.27696
5.31137
5.3525
5.40023
5.45445
5.51504
5.58185
5.65469
5.73335
5.81754
5.90687
6.00075
6.09843
6.1991
6.3019
6.40575
6.50921
6.61047
6.70716
4.82986
4.83564
4.84818
4.86688
4.8919
4.92312
4.96043
5.00364
5.05263
5.10721
5.1672
5.23241
5.3026
5.37748
5.45657
5.53916
5.6244
5.71145
5.79936
5.88692
5.9726
6.0545
6.13005
4.44478
4.44991
4.46117
4.47798
4.5005
4.52858
4.56211
4.6009
4.64477
4.69351
4.7469
4.80472
4.86675
4.93267
5.00193
5.07375
5.14722
5.22145
5.29545
5.36792
5.43729
5.50162
5.55824
4.05392
4.05841
4.06845
4.08341
4.10348
4.12849
4.15833
4.1928
4.23171
4.27479
4.3218
4.3725
4.4267
4.48404
4.54393
4.60555
4.668
4.73034
4.79153
4.85025
4.90492
4.95365
4.99369
3.65792
3.66176
3.67064
3.6838
3.70149
3.7235
3.74975
3.78004
3.81414
3.85175
3.8926
3.93647
3.98317
4.03235
4.08339
4.13547
4.18769
4.23912
4.28864
4.33496
4.37661
4.41174
4.43764
3.25741
3.2606
3.2684
3.2798
3.29517
3.31426
3.33703
3.36328
3.39271
3.42502
3.45993
3.49726
3.53685
3.57834
3.62109
3.66429
3.70709
3.74855
3.78753
3.82279
3.85303
3.87652
3.89067
2.85319
2.85573
2.86248
2.87215
2.88526
2.90155
2.92097
2.94328
2.96818
2.99534
3.02452
3.05564
3.08854
3.12283
3.15784
3.19282
3.22699
3.25943
3.28902
3.3146
3.33503
3.34873
3.35333
2.44606
2.4479
2.45365
2.46162
2.47259
2.48619
2.50237
2.52085
2.54132
2.5635
2.58725
2.61252
2.63915
2.6667
2.69451
2.72192
2.74827
2.77267
2.79404
2.81134
2.82356
2.82927
2.82638
2.03638
2.03744
2.04229
2.04863
2.05755
2.06853
2.08151
2.09623
2.1124
2.12983
2.14844
2.16821
2.18892
2.21014
2.23125
2.25174
2.27102
2.28826
2.30248
2.31279
2.31832
2.3178
2.3095
1.62402
1.62419
1.62824
1.63303
1.63991
1.64825
1.65802
1.66902
1.68104
1.69394
1.70764
1.72211
1.73715
1.75235
1.76719
1.78125
1.79401
1.80476
1.81267
1.81707
1.81722
1.81204
1.80015
1.21019
1.20944
1.21275
1.21598
1.22072
1.22637
1.23295
1.24035
1.24839
1.25692
1.26587
1.27522
1.2848
1.29424
1.30312
1.31111
1.31783
1.32268
1.32505
1.32443
1.32024
1.31159
1.29748
0.798977
0.797497
0.799896
0.801528
0.804072
0.807087
0.810629
0.814631
0.8189
0.823265
0.827696
0.832207
0.836644
0.840662
0.843955
0.846355
0.847615
0.847261
0.844813
0.839963
0.83234
0.821314
0.806237
0.38759
0.385496
0.386565
0.38659
0.386989
0.387487
0.388091
0.388729
0.389264
0.389588
0.389676
0.389505
0.388927
0.387701
0.385663
0.382755
0.378818
0.373519
0.366582
0.357917
0.347377
0.334631
0.319417
-0.0453417
-0.0488191
-0.0493158
-0.050962
-0.052773
-0.0549533
-0.0575804
-0.0606857
-0.0642576
-0.0683209
-0.0729858
-0.0783865
-0.0845832
-0.0915772
-0.0994294
-0.108288
-0.118242
-0.129251
-0.141285
-0.154415
-0.168641
-0.183736
-0.199399
2022.04
1621.31
1620.88
1620.76
1940.85
1962.28
1708.1
1638.14
1751.28
1972.1
2064.88
2168.7
1553.22
1701.94
1846.54
1963.31
1300.89
1438.81
1560.06
1669.15
431.04
763.569
991.701
1181.71
16.6929
42.5103
101.57
181.143
16.4123
17.3853
19.2606
21.6305
16.2013
17.2292
19.356
21.5204
15.997
18.5118
19.6096
20.2748
17.0182
17.6519
17.5592
18.1509
15.7454
16.0948
16.9033
17.8121
15.0248
15.7671
16.5465
17.3815
14.7085
15.4084
16.1466
16.931
14.3401
15.0113
15.7147
16.4573
13.9437
14.5824
15.252
15.9573
13.5159
14.1225
14.7591
15.4292
13.0605
13.6342
14.2371
14.8721
12.5794
13.1189
13.6868
14.2858
12.0744
12.5783
13.1094
13.6708
11.5473
12.0139
12.5058
13.0272
10.9999
11.4269
11.8769
12.3546
10.4341
10.8192
11.2236
11.6528
9.85217
10.1929
10.5474
10.9215
9.25705
9.55119
9.85149
10.1624
8.65202
8.89812
9.14088
9.38056
8.04088
8.23877
8.42247
8.58612
7.42771
7.57877
7.7045
7.79249
6.81659
6.92396
6.99585
7.01426
6.21115
6.27954
6.30465
6.26498
5.61433
5.64939
5.63633
5.55262
5.02837
5.03615
4.99379
4.87925
4.4546
4.44103
4.37778
4.24421
3.89344
3.86395
3.78714
3.64446
3.34512
3.30454
3.22018
3.07593
2.81012
2.76253
2.67533
2.5355
2.28803
2.23691
2.15082
2.02041
1.77589
1.72464
1.64333
1.52712
1.27237
1.22453
1.15297
1.05286
0.78209
0.740658
0.682269
0.601894
0.297556
0.26492
0.22348
0.168776
-0.218877
-0.241525
-0.26135
-0.278859
1623.35
1624.13
1624.67
1625.53
1626.33
1626.91
1627.58
1628.3
1629.08
1629.86
1630.64
1631.41
1632.15
1632.83
1633.44
1633.96
1634.36
1634.64
1634.78
1623.97
1623.4
1623.69
1624.91
1626.14
1626.47
1627.01
1627.97
1628.97
1629.82
1630.71
1631.58
1632.4
1633.19
1633.89
1634.49
1634.96
1635.28
1635.45
2134.05
1753.89
1674.44
1700
1628.62
1626.45
1626.45
1627.41
1628.83
1629.74
1630.74
1631.72
1632.69
1633.63
1634.46
1635.17
1635.73
1636.11
1636.32
2100.56
2187.85
2268.89
2355.89
2171.13
1716.04
1707.05
1704.56
1634.81
1630.09
1630.7
1631.79
1632.96
1634.17
1635.17
1636.03
1636.7
1637.17
1637.43
1777.49
1871.07
1950.87
2030.18
2166.95
2307.63
2392.33
2457.85
2172.68
1745.61
1641.07
1632.06
1633.27
1634.81
1636.04
1637.09
1637.92
1638.52
1638.83
1362.34
1450.6
1506.14
1561.29
1642.2
1789.89
1945.01
2083.95
2270.65
2526.58
2518.43
1888.66
1639.02
1635.85
1637.16
1638.33
1639.42
1640.2
1640.61
259.401
335.144
409.394
454.965
516.946
764.619
1292.35
1531.39
1686.5
1978.28
2268.77
2587.15
2326.51
1683.95
1638.9
1639.75
1641.22
1642.33
1642.88
22.8826
23.6606
23.9975
23.6816
23.3426
34.4902
86.4659
159.443
294.227
980.68
1737.1
2144.84
2573.54
2494.21
1727.03
1641.85
1643.43
1645.07
1646.03
22.1601
22.7801
23.4406
22.8989
22.4879
22.7843
23.1343
23.8564
24.7905
43.8206
258.004
1267.16
2125.67
2625.8
2519.27
1722.47
1646.29
1648.73
1650.12
19.8988
20.0262
20.5754
21.175
21.7706
22.3163
22.867
23.5559
24.3234
24.9168
26.1262
111.85
1113.05
2198.27
2769.15
2358.94
1662.76
1654.31
1655.74
18.9421
19.5519
20.145
20.7372
21.3174
21.888
22.4878
23.1901
23.995
24.7677
25.7299
26.4303
91.5889
1316.36
2436.87
2841.74
1937.65
1660.66
1662.42
18.5367
19.1023
19.6687
20.2456
20.8288
21.4176
22.0358
22.7148
23.4766
24.265
25.1644
26.1175
26.5353
477.494
2030.86
2802.42
2402.86
1669.82
1669.92
18.0763
18.6225
19.1757
19.7377
20.3113
20.9017
21.5182
22.1833
22.9098
23.6842
24.5308
25.5054
26.0949
27.7584
1320.11
2604.26
2765.06
1738.31
1676.69
17.5966
18.1238
18.6624
19.2133
19.7773
20.3575
20.9643
21.6238
22.3729
23.0885
23.8508
24.7022
25.4198
25.6259
676.085
2400.54
2944.49
1883.67
1677.05
17.0933
17.6006
18.1219
18.6606
19.2131
19.7793
20.3704
21.0882
21.7715
22.4911
23.1995
23.8567
24.5902
24.9129
292.46
2051.75
2937.7
2081.75
1649.59
16.5641
17.0499
17.5509
18.0748
18.612
19.1627
19.7273
20.319
21.0319
21.7767
22.5016
23.1507
23.8208
24.1949
91.0236
1672.78
2775.96
2184.34
1536.21
16.0067
16.4698
16.9481
17.4427
17.9596
18.4841
19.0282
19.6047
20.2441
21.0281
21.7494
22.496
23.1836
23.8348
30.8024
1443.1
2604.13
1902.7
1252.73
15.4199
15.8594
16.3136
16.7813
17.2617
17.7586
18.28
18.8444
19.4805
20.2419
20.9544
21.7311
22.5045
23.4039
74.0904
1461.8
2193.16
1218.03
766.337
14.8035
15.2194
15.6494
16.0922
16.5505
17.0274
17.5303
18.0762
18.7647
19.4444
20.1411
20.8958
21.6276
22.4119
184.679
1514.3
1657.44
541.418
295.24
14.1573
14.5495
14.9567
15.3773
15.8164
16.2942
16.781
17.3806
18.0459
18.678
19.3804
20.0434
20.8634
21.5709
385.601
1548.5
1415.66
276.403
102.813
13.4812
13.8492
14.2346
14.6365
15.0597
15.5208
16.1219
16.7075
17.2987
17.9048
18.55
19.3305
20.3121
21.1099
1162.14
1519.78
1289.83
7.68218
111.76
12.7735
13.1159
13.4792
13.8652
14.2831
14.7478
15.3598
15.9721
16.505
17.0978
17.8538
18.5711
19.7592
713.543
1673.8
1494
683.992
-273.951
52.122
12.0314
12.3442
12.6814
13.0511
13.4655
13.9387
14.5414
15.153
15.6541
16.3142
17.0099
16.8726
757.078
1529.07
1549.24
884.967
121.298
-162.377
-44.66
11.2514
11.5266
11.8278
12.1754
12.6131
13.114
13.6755
14.2265
14.6927
15.1859
35.3392
1043.98
1371.98
1377.03
488.325
70.8235
54.7675
-73.1267
-61.4056
10.4318
10.6569
10.9047
11.2218
11.6288
12.1031
12.7345
13.3026
13.8021
58.1616
1025.35
1253.19
1206.21
364.852
-16.2228
-15.6984
-29.8512
-55.438
-60.8902
9.57669
9.73324
9.90347
10.1153
10.4289
10.8875
11.683
11.9499
43.2703
620.869
1035.47
729.666
140.912
-23.9394
-22.8532
-19.2267
-27.5338
-55.6146
-58.4373
8.6987
8.76953
8.83467
8.89493
9.02117
9.32995
10.3348
121.047
341.506
467.429
186.013
-13.5569
-27.1865
-27.1686
-26.8472
-26.8679
-31.9912
-54.2448
-54.1224
7.81859
7.79917
7.74556
7.60829
7.5578
7.3669
12.5254
347.97
368.74
52.6615
-25.3825
-26.9481
-28.0482
-28.8379
-29.7666
-31.9276
-34.7482
-45.1553
-47.801
6.96032
6.86089
6.69543
6.39632
6.14529
5.47756
35.0964
361.727
393.037
16.9085
-26.4698
-27.217
-28.4037
-29.656
-30.9658
-33.0841
-33.5658
-36.6566
-40.0137
6.14766
5.98994
5.74333
5.36394
4.98759
4.24329
3.08789
327.573
525.06
111.141
-26.2152
-26.8547
-28.0516
-29.3233
-30.6511
-32.1622
-31.2063
-30.9313
-33.01
5.39354
5.20365
4.92278
4.53732
4.01049
3.63901
2.90447
287.662
548.921
158.126
-25.582
-25.8456
-26.803
-27.826
-28.9336
-29.9837
-28.2459
-27.9638
-28.0366
4.69603
4.49258
4.20946
3.85312
3.39479
3.58767
2.64733
227.699
577.289
564.799
24.272
-24.3317
-24.605
-25.1611
-25.8217
-26.2007
-24.9034
-24.6094
-24.3589
4.04919
3.84126
3.56334
3.22172
2.8194
2.97773
2.26963
1.70332
602.189
632.089
114.065
-22.2116
-21.3816
-21.5649
-21.7195
-21.7554
-20.9346
-21.005
-20.9133
3.44683
3.24
2.96812
2.63469
2.25365
2.14244
2.20808
1.60868
484.459
671.019
631.529
1.26549
-18.0758
-17.554
-17.2187
-17.1433
-16.8715
-17.2799
-17.3783
2.88299
2.68106
2.41176
2.06871
1.66102
1.35242
3.00994
1.42639
254.089
703.19
696.275
276.558
-14.9876
-13.4169
-12.9481
-12.9125
-13.1521
-13.7739
-13.9188
2.35399
2.16207
1.89873
1.53132
1.02011
0.600105
2.07934
0.626655
21.2616
714.679
716.133
717.704
8.42697
-10.2359
-9.41719
-9.53916
-10.1206
-10.7744
-10.8167
1.85327
1.67748
1.43015
1.04463
0.464308
-0.14428
-0.586847
0.928374
0.043025
591.925
740.813
741.154
586.182
5.35521
-6.57914
-7.20097
-7.95876
-8.42209
-8.25309
1.37565
1.21896
0.996465
0.634823
0.0608065
-0.608272
-0.262873
5.9091
-0.509042
319.621
759.97
758.732
762.636
253.799
-5.08633
-6.55743
-6.89404
-6.75702
-6.26038
0.922531
0.786769
0.589865
0.274258
-0.222972
-0.849827
-1.36988
3.13485
6.1614
0.108119
761.946
773.429
776.258
696.908
22.2876
-8.60286
-6.85806
-5.73009
-4.62049
0.497144
0.385468
0.217744
-0.0491085
-0.453709
-0.986488
-1.56484
-2.07006
0.254187
-0.20415
318.179
794.518
790.17
563.185
8.36146
-9.94832
-6.83644
-4.9798
-3.06715
0.0956644
0.0123656
-0.118665
-0.335815
-0.652811
-1.03384
-1.42582
-1.77597
-1.91905
0.335291
-2.26203
352.75
376.806
112.664
2.9392
-7.35029
-5.14174
-3.18901
-1.37959
-0.299304
-0.328208
-0.376522
-0.501536
-0.724665
-0.974452
-1.17094
-1.25759
-1.28659
-1.89146
-1.64486
-3.74789
5.44108
-0.652643
-0.686888
-2.48963
-2.22972
-1.45661
-0.997276
)
;

boundaryField
{
    leftWall
    {
        type            fixedFluxPressure;
        gradient        uniform 0;
        value           nonuniform List<scalar> 
50
(
1120.76
1119.6
1117.24
1113.83
1109.56
1104.66
1099.35
1093.84
1084.88
1073.87
1068.05
1073.92
967.713
134.618
10.4832
10.4488
10.378
10.2737
10.1499
10.0047
9.83964
9.65577
9.45428
9.23623
9.00247
8.75374
8.49069
8.21392
7.92401
7.62155
7.30716
6.9815
6.64525
6.29912
5.94383
5.58007
5.20852
4.82986
4.44478
4.05392
3.65792
3.25741
2.85319
2.44606
2.03638
1.62402
1.21019
0.798977
0.38759
-0.0453417
)
;
    }
    rightWall
    {
        type            fixedFluxPressure;
        gradient        uniform 0;
        value           nonuniform List<scalar> 
50
(
1633.63
1633.66
1633.71
1633.79
1633.9
1634.04
1634.21
1634.41
1634.78
1635.45
1636.32
1637.43
1638.83
1640.61
1642.88
1646.03
1650.12
1655.74
1662.42
1669.92
1676.69
1677.05
1649.59
1536.21
1252.73
766.337
295.24
102.813
111.76
52.122
-44.66
-61.4056
-60.8902
-58.4373
-54.1224
-47.801
-40.0137
-33.01
-28.0366
-24.3589
-20.9133
-17.3783
-13.9188
-10.8167
-8.25309
-6.26038
-4.62049
-3.06715
-1.37959
-0.997276
)
;
    }
    lowerWall
    {
        type            fixedFluxPressure;
        gradient        uniform 0;
        value           nonuniform List<scalar> 
62
(
1120.76
1124.76
1136.2
1142.27
1143.22
1139.82
1135.46
1132.75
1133.11
1137.35
1146.22
1160.62
1181.63
1210.72
1248.99
1297.7
1357.05
1424.85
1494.17
1552.15
1575.04
1583.53
1656.68
1656.68
1657.74
1672.05
1705.08
1745.86
1777.64
1797.74
1805.53
2022.04
1621.31
1620.88
1620.76
1625.98
1625.94
1625.86
1625.73
1625.55
1625.31
1624.95
1624.54
1625.98
1626.08
1626.3
1626.61
1627.02
1627.5
1628.04
1628.62
1629.23
1629.86
1630.48
1631.09
1631.66
1632.18
1632.64
1633.03
1633.33
1633.53
1633.63
)
;
    }
    atmosphere
    {
        type            totalPressure;
        rho             rho;
        psi             none;
        gamma           1;
        p0              uniform 0;
        value           nonuniform List<scalar> 
46
(
-0.283923
-0.289555
-0.2905
-0.293119
-0.296206
-0.299944
-0.304464
-0.309797
-0.315848
-0.322561
-0.330078
-0.338634
-0.348271
-0.358829
-0.370271
-0.38283
-0.396613
-0.411337
-0.426762
-0.442996
-0.459967
-0.477044
-0.493597
-0.512516
-0.530256
-0.5373
-0.528664
-0.505037
-0.473994
-0.441974
-0.442212
-0.52567
-0.716717
-0.973254
-1.21096
-1.31133
-0.850577
0
0
0
0
0
0
0
0
0
)
;
    }
    defaultFaces
    {
        type            empty;
    }
}


// ************************************************************************* //
