/*--------------------------------*- C++ -*----------------------------------*\
| =========                 |                                                 |
| \\      /  F ield         | OpenFOAM: The Open Source CFD Toolbox           |
|  \\    /   O peration     | Version:  2206                                  |
|   \\  /    A nd           | Website:  www.openfoam.com                      |
|    \\/     M anipulation  |                                                 |
\*---------------------------------------------------------------------------*/
FoamFile
{
    version     2.0;
    format      ascii;
    arch        "LSB;label=32;scalar=64";
    class       surfaceScalarField;
    location    "0.35";
    object      phi;
}
// * * * * * * * * * * * * * * * * * * * * * * * * * * * * * * * * * * * * * //

dimensions      [0 3 -1 0 0 0 0];

oriented        oriented;

internalField   nonuniform List<scalar> 
4432
(
-2.2338e-06
2.2338e-06
1.41355e-07
-2.37516e-06
5.62298e-06
-5.48162e-06
1.22424e-05
-6.61938e-06
1.85143e-05
-6.27192e-06
2.38004e-05
-5.28612e-06
2.80282e-05
-4.22776e-06
3.13771e-05
-3.34895e-06
3.40741e-05
-2.69703e-06
3.62935e-05
-2.21936e-06
3.8119e-05
-1.8255e-06
3.95436e-05
-1.42464e-06
4.04595e-05
-9.15829e-07
4.06363e-05
-1.76829e-07
3.95725e-05
1.06382e-06
3.64141e-05
3.15834e-06
3.01834e-05
6.23071e-06
1.99756e-05
1.02078e-05
6.44871e-06
1.35269e-05
-7.5185e-06
1.39672e-05
-1.68468e-05
9.32831e-06
-1.74062e-05
5.59427e-07
-1.74062e-05
-2.20696e-06
4.44076e-06
3.17917e-07
-4.90003e-06
5.86934e-06
-1.1033e-05
1.24748e-05
-1.32249e-05
1.87005e-05
-1.24976e-05
2.39391e-05
-1.05247e-05
2.814e-05
-8.42865e-06
3.14936e-05
-6.70251e-06
3.42268e-05
-5.43021e-06
3.6506e-05
-4.49856e-06
3.84065e-05
-3.72605e-06
3.99129e-05
-2.93106e-06
4.09566e-05
-1.95953e-06
4.14797e-05
-6.99898e-07
4.15034e-05
1.04009e-06
4.11473e-05
3.51452e-06
3.99661e-05
7.41187e-06
3.63731e-05
1.38008e-05
2.75936e-05
2.23065e-05
1.251e-05
2.90507e-05
-4.97862e-06
2.6817e-05
-9.2424e-06
4.82321e-06
-2.66486e-05
-1.98598e-06
6.42675e-06
6.32858e-07
-7.51886e-06
6.24299e-06
-1.66432e-05
1.27725e-05
-1.97544e-05
1.88508e-05
-1.85759e-05
2.39384e-05
-1.56123e-05
2.80322e-05
-1.25225e-05
3.13434e-05
-1.00137e-05
3.40963e-05
-8.18309e-06
3.64414e-05
-6.84366e-06
3.84356e-05
-5.72029e-06
4.00544e-05
-4.54985e-06
4.12135e-05
-3.11868e-06
4.17702e-05
-1.25651e-06
4.16198e-05
1.19045e-06
4.07023e-05
4.43198e-06
3.93241e-05
8.79009e-06
3.80611e-05
1.50639e-05
3.58904e-05
2.44772e-05
2.9517e-05
3.54241e-05
1.75577e-05
3.87762e-05
6.06227e-06
1.63187e-05
-2.05864e-05
-1.69157e-06
8.11832e-06
1.10147e-06
-1.03119e-05
6.75382e-06
-2.22955e-05
1.31585e-05
-2.61591e-05
1.90233e-05
-2.44407e-05
2.39053e-05
-2.04942e-05
2.78665e-05
-1.64838e-05
3.11408e-05
-1.32879e-05
3.39423e-05
-1.09846e-05
3.63958e-05
-9.29716e-06
3.85319e-05
-7.85635e-06
4.03072e-05
-6.32517e-06
4.16287e-05
-4.44011e-06
4.2376e-05
-2.00389e-06
4.24095e-05
1.15699e-06
4.16266e-05
5.21484e-06
4.00339e-05
1.03828e-05
3.82129e-05
1.6885e-05
3.73415e-05
2.53485e-05
3.64412e-05
3.63245e-05
3.08592e-05
4.43582e-05
1.7359e-05
2.98188e-05
-3.22733e-06
-1.30171e-06
9.42003e-06
1.7006e-06
-1.33142e-05
7.36318e-06
-2.79581e-05
1.35873e-05
-3.23831e-05
1.91796e-05
-3.00331e-05
2.38164e-05
-2.5131e-05
2.76357e-05
-2.03031e-05
3.08898e-05
-1.65421e-05
3.37724e-05
-1.38671e-05
3.63723e-05
-1.18971e-05
3.86876e-05
-1.01716e-05
4.06537e-05
-8.29127e-06
4.21699e-05
-5.95636e-06
4.31188e-05
-2.95273e-06
4.33892e-05
8.86582e-07
4.28981e-05
5.70595e-06
4.16142e-05
1.16667e-05
3.96439e-05
1.88552e-05
3.79022e-05
2.70902e-05
3.75047e-05
3.67219e-05
3.50572e-05
4.68058e-05
2.26106e-05
4.22654e-05
1.93833e-05
-8.16708e-07
1.02367e-05
2.41088e-06
-1.65418e-05
8.05107e-06
-3.35983e-05
1.40435e-05
-3.83756e-05
1.93184e-05
-3.5308e-05
2.36902e-05
-2.95028e-05
2.73764e-05
-2.39892e-05
3.06386e-05
-1.98043e-05
3.36371e-05
-1.68657e-05
3.64167e-05
-1.46767e-05
3.89387e-05
-1.26937e-05
4.11173e-05
-1.04698e-05
4.28449e-05
-7.68395e-06
4.40099e-05
-4.11778e-06
4.4513e-05
3.83484e-07
4.42905e-05
5.92843e-06
4.33241e-05
1.26331e-05
4.16302e-05
2.05492e-05
3.93251e-05
2.93953e-05
3.74905e-05
3.85565e-05
3.50856e-05
4.92106e-05
2.4317e-05
5.3034e-05
4.37003e-05
-2.75013e-07
1.05117e-05
3.20497e-06
-2.00218e-05
8.79586e-06
-3.91892e-05
1.45185e-05
-4.40982e-05
1.9454e-05
-4.02435e-05
2.35667e-05
-3.36155e-05
2.71497e-05
-2.75722e-05
3.04604e-05
-2.3115e-05
3.36136e-05
-2.00189e-05
3.66036e-05
-1.76667e-05
3.93548e-05
-1.54449e-05
4.17621e-05
-1.28771e-05
4.37129e-05
-9.63475e-06
4.50985e-05
-5.5034e-06
4.58267e-05
-3.44637e-07
4.58481e-05
5.90698e-06
4.51279e-05
1.33533e-05
4.37e-05
2.19771e-05
4.1409e-05
3.16863e-05
3.84391e-05
4.15264e-05
3.4748e-05
5.29017e-05
2.54402e-05
6.23418e-05
6.91405e-05
3.39179e-07
1.01726e-05
4.04684e-06
-2.37294e-05
9.55377e-06
-4.46961e-05
1.4979e-05
-4.95234e-05
1.95831e-05
-4.48476e-05
2.34746e-05
-3.7507e-05
2.70055e-05
-3.11031e-05
3.04121e-05
-2.65215e-05
3.37537e-05
-2.33606e-05
3.69736e-05
-2.08865e-05
3.99652e-05
-1.84365e-05
4.26125e-05
-1.55244e-05
4.48023e-05
-1.18246e-05
4.64217e-05
-7.12278e-06
4.73893e-05
-1.3122e-06
4.76508e-05
5.64547e-06
4.71467e-05
1.38574e-05
4.58999e-05
2.32239e-05
4.38049e-05
3.37813e-05
4.05085e-05
4.48229e-05
3.54183e-05
5.79919e-05
2.60126e-05
7.17475e-05
9.51531e-05
-1.32075e-05
1.32075e-05
-2.36488e-05
1.04413e-05
-3.18434e-05
8.19446e-06
-3.77573e-05
5.91394e-06
-4.16798e-05
3.92267e-06
-4.38651e-05
2.1852e-06
-4.44808e-05
6.15948e-07
-4.38157e-05
-6.65079e-07
-4.21287e-05
-1.68707e-06
-3.96052e-05
-2.52335e-06
-3.65262e-05
-3.07916e-06
-3.3012e-05
-3.51402e-06
-2.91405e-05
-3.87151e-06
-2.49278e-05
-4.21295e-06
-2.04017e-05
-4.52601e-06
-1.5589e-05
-4.8128e-06
-1.05463e-05
-5.04259e-06
-5.31422e-06
-5.23203e-06
-5.31412e-06
-1.48579e-05
2.80654e-05
-2.57497e-05
2.13331e-05
-3.37057e-05
1.61505e-05
-3.89851e-05
1.11933e-05
-4.21915e-05
7.12956e-06
-4.37472e-05
3.74073e-06
-4.39923e-05
8.61209e-07
-4.30612e-05
-1.59608e-06
-4.10888e-05
-3.65976e-06
-3.81992e-05
-5.41256e-06
-3.45214e-05
-6.75716e-06
-3.02666e-05
-7.76891e-06
-2.56989e-05
-8.43916e-06
-2.10699e-05
-8.84215e-06
-1.65502e-05
-9.04564e-06
-1.21895e-05
-9.17333e-06
-8.01787e-06
-9.21409e-06
-3.98054e-06
-9.26959e-06
-9.29462e-06
-1.57571e-05
4.38225e-05
-2.68858e-05
3.24618e-05
-3.47229e-05
2.39876e-05
-3.97583e-05
1.62286e-05
-4.28867e-05
1.02584e-05
-4.44345e-05
5.28835e-06
-4.46741e-05
1.10088e-06
-4.36621e-05
-2.60787e-06
-4.16061e-05
-5.71608e-06
-3.86817e-05
-8.33668e-06
-3.50524e-05
-1.03866e-05
-3.08826e-05
-1.19389e-05
-2.63539e-05
-1.29677e-05
-2.16743e-05
-1.35219e-05
-1.70047e-05
-1.3715e-05
-1.24947e-05
-1.36834e-05
-8.18228e-06
-1.35264e-05
-4.0453e-06
-1.34068e-05
-1.33399e-05
-1.78109e-05
6.16333e-05
-2.95079e-05
4.41587e-05
-3.71131e-05
3.1593e-05
-4.15389e-05
2.06542e-05
-4.42894e-05
1.30091e-05
-4.56681e-05
6.66697e-06
-4.57295e-05
1.16226e-06
-4.45604e-05
-3.7767e-06
-4.23574e-05
-7.91938e-06
-3.92913e-05
-1.14025e-05
-3.55446e-05
-1.41333e-05
-3.13119e-05
-1.61716e-05
-2.67772e-05
-1.75022e-05
-2.21147e-05
-1.81844e-05
-1.74365e-05
-1.83931e-05
-1.28988e-05
-1.82213e-05
-8.49011e-06
-1.79351e-05
-4.21218e-06
-1.7685e-05
-1.7552e-05
-2.13308e-05
8.2964e-05
-3.34347e-05
5.62625e-05
-4.06005e-05
3.87588e-05
-4.40124e-05
2.40659e-05
-4.61961e-05
1.51929e-05
-4.7288e-05
7.75887e-06
-4.71654e-05
1.03953e-06
-4.57713e-05
-5.17055e-06
-4.33701e-05
-1.03208e-05
-4.00979e-05
-1.46746e-05
-3.61479e-05
-1.80832e-05
-3.17229e-05
-2.05966e-05
-2.70378e-05
-2.2187e-05
-2.22831e-05
-2.29392e-05
-1.75872e-05
-2.3089e-05
-1.29999e-05
-2.28088e-05
-8.56788e-06
-2.23671e-05
-4.25555e-06
-2.19974e-05
-2.18074e-05
-2.62561e-05
0.00010922
-3.83287e-05
6.83349e-05
-4.50924e-05
4.55226e-05
-4.7067e-05
2.60403e-05
-4.84138e-05
1.65398e-05
-4.92206e-05
8.56565e-06
-4.8977e-05
7.95747e-07
-4.73003e-05
-6.84701e-06
-4.46502e-05
-1.29711e-05
-4.11195e-05
-1.82052e-05
-3.69024e-05
-2.23e-05
-3.21913e-05
-2.53077e-05
-2.73015e-05
-2.70766e-05
-2.23742e-05
-2.78667e-05
-1.75811e-05
-2.78822e-05
-1.29509e-05
-2.74391e-05
-8.51229e-06
-2.68056e-05
-4.22126e-06
-2.62885e-05
-2.60286e-05
-3.37218e-05
0.000142942
-4.46814e-05
7.92943e-05
-5.12006e-05
5.20418e-05
-5.07301e-05
2.55695e-05
-5.05363e-05
1.63461e-05
-5.10513e-05
9.08071e-06
-5.09445e-05
6.88744e-07
-4.89594e-05
-8.83192e-06
-4.61046e-05
-1.5826e-05
-4.23344e-05
-2.19753e-05
-3.78202e-05
-2.6814e-05
-3.27871e-05
-3.03408e-05
-2.76025e-05
-3.22611e-05
-2.24728e-05
-3.29966e-05
-1.75349e-05
-3.28201e-05
-1.28373e-05
-3.21367e-05
-8.39801e-06
-3.12448e-05
-4.15687e-06
-3.05295e-05
-3.01854e-05
-3.78489e-05
0.000180791
-5.39313e-05
9.53766e-05
-6.1208e-05
5.93186e-05
-5.62346e-05
2.0596e-05
-5.31377e-05
1.32491e-05
-5.35487e-05
9.49177e-06
-5.33176e-05
4.57494e-07
-5.05288e-05
-1.16207e-05
-4.74256e-05
-1.89292e-05
-4.35693e-05
-2.58316e-05
-3.88462e-05
-3.1537e-05
-3.34352e-05
-3.57519e-05
-2.79217e-05
-3.77747e-05
-2.25468e-05
-3.83716e-05
-1.74559e-05
-3.7911e-05
-1.26928e-05
-3.68996e-05
-8.26212e-06
-3.56753e-05
-4.07024e-06
-3.47214e-05
-3.42557e-05
2.96948e-06
7.20309e-06
1.1663e-05
-3.24229e-05
2.28734e-05
-5.59066e-05
3.3258e-05
-5.9908e-05
4.19574e-05
-5.3547e-05
4.96674e-05
-4.5217e-05
5.71977e-05
-3.86333e-05
6.48651e-05
-3.4189e-05
7.25832e-05
-3.10786e-05
8.00932e-05
-2.83966e-05
8.71205e-05
-2.54638e-05
9.34392e-05
-2.1843e-05
9.88647e-05
-1.72501e-05
0.000103167
-1.14251e-05
0.000106105
-4.25012e-06
0.000107729
4.02123e-06
0.000107608
1.39788e-05
0.00010574
2.50915e-05
0.000102088
3.74338e-05
9.62424e-05
5.06682e-05
8.76309e-05
6.66034e-05
7.64096e-05
8.29688e-05
0.000121234
5.03286e-05
6.8225e-06
3.80588e-07
1.7154e-05
-4.27544e-05
2.69215e-05
-6.5674e-05
3.50168e-05
-6.80033e-05
4.2104e-05
-6.06342e-05
4.9267e-05
-5.238e-05
5.7029e-05
-4.63954e-05
6.5301e-05
-4.2461e-05
7.37137e-05
-3.94913e-05
8.18818e-05
-3.65647e-05
8.95193e-05
-3.31013e-05
9.64657e-05
-2.87895e-05
0.000102682
-2.34666e-05
0.00010826
-1.70026e-05
0.000113117
-9.10765e-06
0.000115888
1.2506e-06
0.00011763
1.22363e-05
0.000117615
2.5107e-05
0.000116007
3.90418e-05
0.00011333
5.33448e-05
0.000110568
6.93659e-05
0.000108979
8.45577e-05
0.000115662
0.000114551
1.29385e-05
-1.25579e-05
2.70265e-05
-5.68424e-05
3.40579e-05
-7.27054e-05
3.77372e-05
-7.16826e-05
4.24976e-05
-6.53947e-05
4.94491e-05
-5.93314e-05
5.79366e-05
-5.48829e-05
6.71145e-05
-5.16389e-05
7.63702e-05
-4.87471e-05
8.5307e-05
-4.55014e-05
9.36875e-05
-4.14818e-05
0.000101354
-3.64558e-05
0.000108112
-3.02249e-05
0.000113666
-2.25562e-05
0.000118116
-1.3558e-05
0.00012318
-3.81374e-06
0.000126451
8.96584e-06
0.000127752
2.38056e-05
0.000128015
3.87793e-05
0.000128352
5.30074e-05
0.000129509
6.8209e-05
0.000131617
8.245e-05
0.000101838
0.00014544
2.28266e-05
-3.53845e-05
4.32231e-05
-7.7239e-05
4.53426e-05
-7.48248e-05
4.21516e-05
-6.84915e-05
4.41451e-05
-6.73883e-05
5.14804e-05
-6.66667e-05
6.12289e-05
-6.46314e-05
7.16769e-05
-6.20869e-05
8.22603e-05
-5.93305e-05
9.2913e-05
-5.61541e-05
0.000103732
-5.23006e-05
0.000114705
-4.7429e-05
0.00012554
-4.10596e-05
0.000135708
-3.27243e-05
0.000144667
-2.25172e-05
0.000151089
-1.02359e-05
0.000152777
7.27746e-06
0.000151348
2.52348e-05
0.000148501
4.16266e-05
0.000146164
5.53442e-05
0.000145179
6.91941e-05
0.000145833
8.1796e-05
9.2362e-05
0.000155309
3.27258e-05
-6.81102e-05
5.64387e-05
-0.000100952
5.33891e-05
-7.17753e-05
4.47293e-05
-5.98316e-05
4.37535e-05
-6.64125e-05
5.02492e-05
-7.31624e-05
5.90267e-05
-7.3409e-05
6.83523e-05
-7.14125e-05
7.82228e-05
-6.92009e-05
8.92645e-05
-6.71958e-05
0.000101695
-6.47309e-05
0.000112854
-5.85878e-05
0.000124755
-5.29614e-05
0.000141955
-4.99237e-05
0.000164001
-4.4563e-05
0.000181451
-2.76859e-05
0.000189376
-6.47978e-07
0.000185672
2.89396e-05
0.000177766
4.95318e-05
0.000171439
6.16712e-05
0.000165906
7.47271e-05
0.000161277
8.64257e-05
9.00938e-05
0.000163545
3.83614e-05
-0.000106472
3.49178e-05
-9.75084e-05
3.24711e-05
-6.93287e-05
2.74474e-05
-5.4808e-05
2.38349e-05
-6.28e-05
2.20326e-05
-7.136e-05
2.21038e-05
-7.34802e-05
2.3295e-05
-7.26037e-05
2.64633e-05
-7.23693e-05
3.33557e-05
-7.40882e-05
4.4867e-05
-7.62423e-05
6.11357e-05
-7.48566e-05
7.90127e-05
-7.08385e-05
9.82068e-05
-6.91177e-05
0.000121154
-6.751e-05
0.000147852
-5.43843e-05
0.000174738
-2.75334e-05
0.000190091
1.35866e-05
0.000192268
4.73545e-05
0.00018242
7.15193e-05
0.000166792
9.03553e-05
0.000164608
8.86096e-05
8.79604e-05
0.000166742
-1.66558e-05
-8.98159e-05
-1.78601e-05
-9.63043e-05
-1.14342e-05
-7.57547e-05
3.51034e-06
-6.97526e-05
1.07274e-05
-7.00171e-05
1.22096e-05
-7.28421e-05
1.27562e-05
-7.40268e-05
1.47836e-05
-7.46312e-05
1.96091e-05
-7.7195e-05
2.80936e-05
-8.25728e-05
4.01573e-05
-8.83061e-05
5.3761e-05
-8.84603e-05
6.66832e-05
-8.37606e-05
8.44634e-05
-8.6898e-05
0.000110165
-9.32113e-05
0.000139395
-8.36145e-05
0.000170673
-5.88112e-05
0.000203785
-1.95254e-05
0.000223728
2.74113e-05
0.000224026
7.12217e-05
0.000211738
0.000102643
0.000187878
0.00011247
0.000106617
0.000169222
-1.96262e-05
-7.01898e-05
-1.75398e-05
-9.83908e-05
-6.98156e-06
-8.6313e-05
1.53976e-06
-7.82739e-05
6.98068e-06
-7.5458e-05
9.7888e-06
-7.56503e-05
1.16444e-05
-7.58825e-05
1.4011e-05
-7.69978e-05
1.79598e-05
-8.11439e-05
2.37927e-05
-8.84057e-05
3.14257e-05
-9.59392e-05
3.93324e-05
-9.6367e-05
4.58721e-05
-9.03004e-05
6.13027e-05
-0.000102329
8.61667e-05
-0.000118075
0.000116301
-0.000113748
0.000148636
-9.11466e-05
0.000180894
-5.17835e-05
0.000210499
-2.19334e-06
0.000222423
5.92981e-05
0.000218465
0.000106601
0.000201296
0.000129639
0.000130059
0.000177854
-5.92537e-06
-6.42645e-05
-4.03296e-06
-0.000100283
-9.57337e-07
-8.93887e-05
2.814e-06
-8.20453e-05
6.62728e-06
-7.92714e-05
9.45925e-06
-7.84824e-05
1.14876e-05
-7.7911e-05
1.31605e-05
-7.86707e-05
1.49164e-05
-8.28998e-05
1.68132e-05
-9.03024e-05
1.92078e-05
-9.83338e-05
2.26629e-05
-9.98221e-05
2.7627e-05
-9.52645e-05
3.65736e-05
-0.000111275
4.64105e-05
-0.000127912
6.18871e-05
-0.000129225
8.35434e-05
-0.000112803
0.000112307
-8.05472e-05
0.000138746
-2.86318e-05
0.00015844
3.96034e-05
0.000167072
9.79694e-05
0.000167487
0.000129223
0.000136683
0.000160864
3.09335e-07
-6.45739e-05
-1.09757e-07
-9.98645e-05
1.37275e-06
-9.08714e-05
3.92858e-06
-8.46013e-05
7.02235e-06
-8.23652e-05
9.73658e-06
-8.11967e-05
1.18493e-05
-8.00238e-05
1.32091e-05
-8.00305e-05
1.35638e-05
-8.32544e-05
1.28902e-05
-8.96288e-05
1.16913e-05
-9.71349e-05
1.22383e-05
-0.000100369
1.59003e-05
-9.89266e-05
1.39178e-05
-0.000109293
7.68019e-06
-0.000121674
7.23409e-06
-0.000128779
1.0555e-05
-0.000116124
1.84071e-05
-8.83992e-05
3.39763e-05
-4.42009e-05
5.5951e-05
1.76287e-05
7.90163e-05
7.49041e-05
0.00010091
0.000107329
0.000110177
0.000127415
2.35289e-06
-6.69269e-05
2.15659e-06
-9.96683e-05
3.16657e-06
-9.18814e-05
5.43278e-06
-8.68676e-05
8.20649e-06
-8.51391e-05
1.09321e-05
-8.39224e-05
1.34166e-05
-8.25083e-05
1.5229e-05
-8.18428e-05
1.56733e-05
-8.36986e-05
1.45245e-05
-8.84799e-05
1.20914e-05
-9.47019e-05
1.08182e-05
-9.90958e-05
1.19622e-05
-0.000100071
7.2812e-06
-0.000104612
-2.11238e-06
-0.000112281
-1.13848e-05
-0.000119506
-1.90548e-05
-0.000108454
-2.4935e-05
-8.25189e-05
-2.5564e-05
-4.35718e-05
-6.28305e-06
-1.65224e-06
3.07269e-05
3.78941e-05
8.19395e-05
5.61165e-05
5.84665e-05
0.00013365
3.2208e-06
-7.01478e-05
3.56164e-06
-0.000100009
4.64207e-06
-9.29619e-05
6.80402e-06
-8.90296e-05
9.42014e-06
-8.77553e-05
1.22431e-05
-8.67454e-05
1.52177e-05
-8.54828e-05
1.7944e-05
-8.4569e-05
1.96031e-05
-8.53577e-05
1.96577e-05
-8.85344e-05
1.81591e-05
-9.32033e-05
1.66077e-05
-9.75444e-05
1.66155e-05
-0.000100078
1.47139e-05
-0.00010271
7.53298e-06
-0.0001051
-5.2097e-06
-0.000106764
-1.27939e-05
-0.000100869
-8.91638e-06
-8.63964e-05
4.23214e-06
-5.67203e-05
2.48418e-05
-2.22619e-05
5.67072e-05
6.02869e-06
8.90503e-05
2.37734e-05
3.31451e-05
0.000114372
3.52064e-06
-7.36685e-05
4.27413e-06
-0.000100763
5.63861e-06
-9.43265e-05
7.81366e-06
-9.12048e-05
1.03716e-05
-9.03132e-05
1.32323e-05
-8.96061e-05
1.64771e-05
-8.87276e-05
1.98926e-05
-8.79845e-05
2.27699e-05
-8.8235e-05
2.43808e-05
-9.01453e-05
2.45147e-05
-9.33373e-05
2.3643e-05
-9.66727e-05
2.26198e-05
-9.90551e-05
2.03211e-05
-0.000100411
1.53008e-05
-0.000100079
6.35636e-06
-9.78191e-05
-3.82106e-06
-9.06918e-05
-1.12389e-05
-7.89785e-05
-8.90076e-06
-5.90584e-05
4.50941e-06
-3.56721e-05
2.53713e-05
-1.48333e-05
4.92133e-05
-6.86313e-08
8.22548e-06
7.4133e-05
3.46514e-06
-7.71336e-05
4.63864e-06
-0.000101936
6.29375e-06
-9.59816e-05
8.52914e-06
-9.34402e-05
1.10556e-05
-9.28397e-05
1.38465e-05
-9.23969e-05
1.70123e-05
-9.18934e-05
2.05012e-05
-9.14733e-05
2.38385e-05
-9.15724e-05
2.6333e-05
-9.26398e-05
2.75659e-05
-9.45701e-05
2.75262e-05
-9.66329e-05
2.64841e-05
-9.8013e-05
2.43023e-05
-9.82294e-05
2.10124e-05
-9.67895e-05
1.64437e-05
-9.32503e-05
1.22078e-05
-8.64559e-05
9.47012e-06
-7.62407e-05
1.26992e-05
-6.22874e-05
2.35086e-05
-4.64816e-05
4.06284e-05
-3.1953e-05
6.14932e-05
-2.09335e-05
-1.3975e-05
8.36939e-05
3.29753e-06
-8.04311e-05
4.82569e-06
-0.000103464
6.71304e-06
-9.7869e-05
9.01025e-06
-9.57374e-05
1.1508e-05
-9.53375e-05
1.41825e-05
-9.50714e-05
1.70944e-05
-9.48054e-05
2.02511e-05
-9.46301e-05
2.33973e-05
-9.47188e-05
2.60316e-05
-9.52741e-05
2.77214e-05
-9.62599e-05
2.83526e-05
-9.72641e-05
2.80599e-05
-9.77202e-05
2.69968e-05
-9.71663e-05
2.55106e-05
-9.53033e-05
2.39455e-05
-9.16851e-05
2.33588e-05
-8.58692e-05
2.47818e-05
-7.76636e-05
2.99236e-05
-6.74293e-05
3.96919e-05
-5.62498e-05
5.3548e-05
-4.58091e-05
7.01682e-05
-3.75536e-05
-3.20259e-05
8.82192e-05
3.133e-06
-8.35641e-05
4.92468e-06
-0.000105256
6.9728e-06
-9.99171e-05
9.31669e-06
-9.80813e-05
1.17978e-05
-9.78186e-05
1.43853e-05
-9.76587e-05
1.70839e-05
-9.7504e-05
1.98875e-05
-9.74337e-05
2.2673e-05
-9.75044e-05
2.51562e-05
-9.77573e-05
2.70445e-05
-9.81481e-05
2.82339e-05
-9.84534e-05
2.88308e-05
-9.83171e-05
2.90481e-05
-9.73836e-05
2.91455e-05
-9.54007e-05
2.95751e-05
-9.21147e-05
3.10515e-05
-8.73455e-05
3.44293e-05
-8.10415e-05
4.05397e-05
-7.35396e-05
4.98279e-05
-6.55381e-05
6.20437e-05
-5.80248e-05
7.64725e-05
-5.19822e-05
-4.77902e-05
9.22368e-05
2.99779e-06
-8.65619e-05
4.97291e-06
-0.000107231
7.12994e-06
-0.000102074
9.50827e-06
-0.00010046
1.19844e-05
-0.000100295
1.45298e-05
-0.000100204
1.71269e-05
-0.000100101
1.9746e-05
-0.000100053
2.23208e-05
-0.000100079
2.47251e-05
-0.000100162
2.68162e-05
-0.000100239
2.85353e-05
-0.000100172
2.99623e-05
-9.97441e-05
3.12928e-05
-9.87141e-05
3.27838e-05
-9.68917e-05
3.47981e-05
-9.41289e-05
3.7806e-05
-9.03534e-05
4.23624e-05
-8.55979e-05
4.89345e-05
-8.01116e-05
5.77661e-05
-7.43697e-05
6.87398e-05
-6.89985e-05
8.14622e-05
-6.47044e-05
-6.17444e-05
9.54166e-05
2.89638e-06
-8.94582e-05
4.99029e-06
-0.000109325
7.21866e-06
-0.000104302
9.6212e-06
-0.000102862
1.2097e-05
-0.00010277
1.46267e-05
-0.000102734
1.71964e-05
-0.000102671
1.97746e-05
-0.000102631
2.2319e-05
-0.000102624
2.47787e-05
-0.000102621
2.71036e-05
-0.000102564
2.92814e-05
-0.00010235
3.13779e-05
-0.000101841
3.35488e-05
-0.000100885
3.60121e-05
-9.93549e-05
3.90446e-05
-9.71613e-05
4.29691e-05
-9.42779e-05
4.81443e-05
-9.07731e-05
5.48765e-05
-8.68438e-05
6.33275e-05
-8.28207e-05
7.34542e-05
-7.9125e-05
8.50225e-05
-7.62726e-05
-7.44539e-05
9.7732e-05
2.82449e-06
-9.22828e-05
4.98601e-06
-0.000111487
7.25748e-06
-0.000106574
9.67477e-06
-0.000105279
1.21507e-05
-0.000105246
1.46736e-05
-0.000105257
1.72405e-05
-0.000105238
1.9834e-05
-0.000105225
2.24291e-05
-0.000105219
2.50036e-05
-0.000105196
2.75471e-05
-0.000105107
3.00784e-05
-0.000104881
3.26642e-05
-0.000104426
3.54277e-05
-0.000103648
3.85404e-05
-0.000102468
4.22177e-05
-0.000100839
4.6706e-05
-9.87661e-05
5.2255e-05
-9.63221e-05
5.90672e-05
-9.36561e-05
6.72442e-05
-9.09976e-05
7.67685e-05
-8.86493e-05
8.74973e-05
-8.70013e-05
-8.62081e-05
9.92516e-05
2.77324e-06
-9.5056e-05
4.96393e-06
-0.000113677
7.25698e-06
-0.000108867
9.68006e-06
-0.000107702
1.21537e-05
-0.00010772
1.46719e-05
-0.000107775
1.72399e-05
-0.000107806
1.98546e-05
-0.000107839
2.25079e-05
-0.000107872
2.51944e-05
-0.000107882
2.7922e-05
-0.000107835
3.07224e-05
-0.000107682
3.36613e-05
-0.000107365
3.6843e-05
-0.00010683
4.04074e-05
-0.000106032
4.45216e-05
-0.000104953
4.9367e-05
-0.000103611
5.51181e-05
-0.000102073
6.19131e-05
-0.000100451
6.98258e-05
-9.89104e-05
7.88575e-05
-9.7681e-05
8.8931e-05
-9.70748e-05
-9.72173e-05
9.99403e-05
2.73439e-06
-9.77905e-05
4.92564e-06
-0.000115869
7.22288e-06
-0.000111164
9.6422e-06
-0.000110122
1.21089e-05
-0.000110186
1.46213e-05
-0.000110287
1.71896e-05
-0.000110374
1.98203e-05
-0.00011047
2.25181e-05
-0.00011057
2.52913e-05
-0.000110655
2.81588e-05
-0.000110702
3.11571e-05
-0.00011068
3.43469e-05
-0.000110555
3.78157e-05
-0.000110299
4.1676e-05
-0.000109892
4.60575e-05
-0.000109334
5.10959e-05
-0.00010865
5.6918e-05
-0.000107895
6.36251e-05
-0.000107158
7.12773e-05
-0.000106563
7.98888e-05
-0.000106292
8.94238e-05
-0.00010661
-0.000107618
9.98243e-05
2.70138e-06
-0.000100492
4.87103e-06
-0.000118038
7.15772e-06
-0.000113451
9.56302e-06
-0.000112527
1.20149e-05
-0.000112638
1.45159e-05
-0.000112788
1.70799e-05
-0.000112938
1.97185e-05
-0.000113109
2.24444e-05
-0.000113295
2.52745e-05
-0.000113485
2.82341e-05
-0.000113662
3.13614e-05
-0.000113807
3.47113e-05
-0.000113905
3.8357e-05
-0.000113944
4.23884e-05
-0.000113923
4.69066e-05
-0.000113852
5.20159e-05
-0.000113759
5.78127e-05
-0.000113692
6.43758e-05
-0.000113722
7.17571e-05
-0.000113944
7.99806e-05
-0.000114516
8.90386e-05
-0.000115668
-0.000117487
9.8908e-05
2.66899e-06
-0.000103161
4.79877e-06
-0.000120168
7.06188e-06
-0.000115714
9.44228e-06
-0.000114907
1.18696e-05
-0.000115066
1.43492e-05
-0.000115268
1.68981e-05
-0.000115487
1.95313e-05
-0.000115742
2.22654e-05
-0.00011603
2.51215e-05
-0.000116341
2.81279e-05
-0.000116668
3.13223e-05
-0.000117001
3.47539e-05
-0.000117336
3.84839e-05
-0.000117674
4.2585e-05
-0.000118025
4.71373e-05
-0.000118405
5.22229e-05
-0.000118845
5.79178e-05
-0.000119387
6.42865e-05
-0.00012009
7.13765e-05
-0.000121034
7.92188e-05
-0.000122358
8.78253e-05
-0.000124274
-0.000126862
9.72003e-05
2.63244e-06
-0.000105793
4.70697e-06
-0.000122243
6.93473e-06
-0.000117942
9.27884e-06
-0.000117251
1.16701e-05
-0.000117457
1.41163e-05
-0.000117714
1.66359e-05
-0.000118006
1.92458e-05
-0.000118352
2.19649e-05
-0.000118749
2.48158e-05
-0.000119192
2.78271e-05
-0.00011968
3.10345e-05
-0.000120209
3.44813e-05
-0.000120783
3.82191e-05
-0.000121412
4.23073e-05
-0.000122113
4.68111e-05
-0.000122909
5.17965e-05
-0.00012383
5.73255e-05
-0.000124916
6.34524e-05
-0.000126217
7.02226e-05
-0.000127804
7.76715e-05
-0.000129807
8.58237e-05
-0.000132426
-0.000135745
9.47065e-05
2.58719e-06
-0.000108381
4.59449e-06
-0.00012425
6.7761e-06
-0.000120123
9.07208e-06
-0.000119547
1.14151e-05
-0.0001198
1.38144e-05
-0.000120113
1.62891e-05
-0.000120481
1.88569e-05
-0.00012092
2.1537e-05
-0.000121429
2.43524e-05
-0.000122008
2.73305e-05
-0.000122658
3.05037e-05
-0.000123382
3.39097e-05
-0.000124189
3.75921e-05
-0.000125095
4.15999e-05
-0.00012612
4.59871e-05
-0.000127296
5.08077e-05
-0.000128651
5.61141e-05
-0.000130223
6.1953e-05
-0.000132056
6.83683e-05
-0.000134219
7.53977e-05
-0.000136836
8.30753e-05
-0.000140104
-0.000144112
9.14431e-05
2.52978e-06
-0.000110911
4.46263e-06
-0.000126183
6.5882e-06
-0.000122249
8.8238e-06
-0.000121783
1.11055e-05
-0.000122082
1.34439e-05
-0.000122452
1.58577e-05
-0.000122895
1.83641e-05
-0.000123426
2.09823e-05
-0.000124047
2.37339e-05
-0.000124759
2.66443e-05
-0.000125568
2.97423e-05
-0.00012648
3.30604e-05
-0.000127507
3.6635e-05
-0.000128669
4.05069e-05
-0.000129992
4.47205e-05
-0.000131509
4.93213e-05
-0.000133252
5.43541e-05
-0.000135255
5.98607e-05
-0.000137563
6.58817e-05
-0.00014024
7.24545e-05
-0.000143409
7.96194e-05
-0.000147269
-0.000151921
8.74284e-05
2.45952e-06
-0.00011337
4.31643e-06
-0.00012804
6.37658e-06
-0.000124309
8.53942e-06
-0.000123946
1.07468e-05
-0.000124289
1.30097e-05
-0.000124715
1.53461e-05
-0.000125232
1.77722e-05
-0.000125852
2.0306e-05
-0.000126581
2.29675e-05
-0.000127421
2.57793e-05
-0.00012838
2.87665e-05
-0.000129467
3.19567e-05
-0.000130698
3.53801e-05
-0.000132093
3.90703e-05
-0.000133683
4.3063e-05
-0.000135502
4.73969e-05
-0.000137586
5.21103e-05
-0.000139969
5.7241e-05
-0.000142694
6.28259e-05
-0.000145825
6.89005e-05
-0.000149484
7.55066e-05
-0.000153875
-0.000159116
8.2701e-05
2.37999e-06
-0.00011575
4.16378e-06
-0.000129824
6.14888e-06
-0.000126294
8.22706e-06
-0.000126024
1.03473e-05
-0.000126409
1.25208e-05
-0.000126888
1.47636e-05
-0.000127474
1.7091e-05
-0.00012818
1.95192e-05
-0.000129009
2.20661e-05
-0.000129968
2.47515e-05
-0.000131065
2.75968e-05
-0.000132312
3.0625e-05
-0.000133726
3.38609e-05
-0.000135329
3.73311e-05
-0.000137153
4.10638e-05
-0.000139235
4.50907e-05
-0.000141613
4.94444e-05
-0.000144323
5.41585e-05
-0.000147408
5.92645e-05
-0.000150931
6.47949e-05
-0.000155014
7.07894e-05
-0.000159869
-0.000165632
7.73054e-05
2.29832e-06
-0.000118048
4.01198e-06
-0.000131538
5.91144e-06
-0.000128194
7.89407e-06
-0.000128007
9.91571e-06
-0.000128431
1.1987e-05
-0.00012896
1.41218e-05
-0.000129609
1.63338e-05
-0.000130392
1.86373e-05
-0.000131312
2.10478e-05
-0.000132378
2.35824e-05
-0.0001336
2.62589e-05
-0.000134989
2.90961e-05
-0.000136563
3.21137e-05
-0.000138346
3.53318e-05
-0.000140371
3.87716e-05
-0.000142675
4.24571e-05
-0.000145298
4.64147e-05
-0.00014828
5.06725e-05
-0.000151666
5.52577e-05
-0.000155517
6.01968e-05
-0.000159953
6.55251e-05
-0.000165197
-0.000171402
7.12957e-05
2.22214e-06
-0.000120271
3.86325e-06
-0.000133179
5.6654e-06
-0.000129996
7.54296e-06
-0.000129885
9.45621e-06
-0.000130345
1.1415e-05
-0.000130918
1.34303e-05
-0.000131625
1.55138e-05
-0.000132475
1.76775e-05
-0.000133476
1.99345e-05
-0.000134635
2.22986e-05
-0.000135964
2.47845e-05
-0.000137475
2.74068e-05
-0.000139185
3.01805e-05
-0.00014112
3.312e-05
-0.00014331
3.62396e-05
-0.000145794
3.95551e-05
-0.000148614
4.30855e-05
-0.000151811
4.68521e-05
-0.000155432
5.08753e-05
-0.00015954
5.5176e-05
-0.000164254
5.97815e-05
-0.000169803
-0.000176358
6.47372e-05
2.15552e-06
-0.000122426
3.71223e-06
-0.000134736
5.4055e-06
-0.000131689
7.16997e-06
-0.000131649
8.96745e-06
-0.000132142
1.08063e-05
-0.000132757
1.26948e-05
-0.000133513
1.46418e-05
-0.000134422
1.66567e-05
-0.000135491
1.87496e-05
-0.000136728
2.09312e-05
-0.000138146
2.32124e-05
-0.000139756
2.56041e-05
-0.000141577
2.81166e-05
-0.000143632
3.07588e-05
-0.000145953
3.35385e-05
-0.000148574
3.6463e-05
-0.000151538
3.95421e-05
-0.00015489
4.27877e-05
-0.000158678
4.62124e-05
-0.000162965
4.98283e-05
-0.00016787
5.3653e-05
-0.000173627
-0.000180426
5.7721e-05
2.09713e-06
-0.000124523
3.54821e-06
-0.000136187
5.12299e-06
-0.000133264
6.76791e-06
-0.000133294
8.44436e-06
-0.000133819
1.01587e-05
-0.000134472
1.19165e-05
-0.000135271
1.37241e-05
-0.00013623
1.55878e-05
-0.000137354
1.75144e-05
-0.000138655
1.95111e-05
-0.000140142
2.1585e-05
-0.00014183
2.37425e-05
-0.000143734
2.59891e-05
-0.000145879
2.83284e-05
-0.000148292
3.07614e-05
-0.000151007
3.32871e-05
-0.000154064
3.59043e-05
-0.000157507
3.86131e-05
-0.000161387
4.14154e-05
-0.000165767
4.43119e-05
-0.000170766
4.73048e-05
-0.00017662
-0.000183532
5.04107e-05
2.04162e-06
-0.000126565
3.36015e-06
-0.000137505
4.80937e-06
-0.000134714
6.32946e-06
-0.000134814
7.88026e-06
-0.000135369
9.46616e-06
-0.000136058
1.10912e-05
-0.000136896
1.2759e-05
-0.000137898
1.44734e-05
-0.000139069
1.62383e-05
-0.00014042
1.80572e-05
-0.000141961
1.99327e-05
-0.000143705
2.18667e-05
-0.000145668
2.38594e-05
-0.000147872
2.59087e-05
-0.000150341
2.80089e-05
-0.000153107
3.01506e-05
-0.000156206
3.23212e-05
-0.000159678
3.45068e-05
-0.000163573
3.66948e-05
-0.000167955
3.88691e-05
-0.00017294
4.10076e-05
-0.000178759
-0.000185618
4.30944e-05
1.98318e-06
-0.000128548
3.13984e-06
-0.000138662
4.45679e-06
-0.00013603
5.84629e-06
-0.000136204
7.26488e-06
-0.000136788
8.71662e-06
-0.000137509
1.02047e-05
-0.000138384
1.17313e-05
-0.000139424
1.32985e-05
-0.000140636
1.49076e-05
-0.000142029
1.65585e-05
-0.000143612
1.82502e-05
-0.000145397
1.99803e-05
-0.000147399
2.17442e-05
-0.000149636
2.35342e-05
-0.000152131
2.53381e-05
-0.000154911
2.71385e-05
-0.000158006
2.8912e-05
-0.000161452
3.06305e-05
-0.000165291
3.22635e-05
-0.000169588
3.37718e-05
-0.000174449
3.50964e-05
-0.000180083
-0.000186692
3.61697e-05
1.91782e-06
-0.000130466
2.88108e-06
-0.000139625
4.05595e-06
-0.000137205
5.30599e-06
-0.000137454
6.58198e-06
-0.000138064
7.88981e-06
-0.000138817
9.23226e-06
-0.000139727
1.06108e-05
-0.000140803
1.2026e-05
-0.000142051
1.34776e-05
-0.000143481
1.49638e-05
-0.000145098
1.64814e-05
-0.000146915
1.80253e-05
-0.000148942
1.95871e-05
-0.000151198
2.11545e-05
-0.000153699
2.271e-05
-0.000156467
2.42301e-05
-0.000159526
2.56831e-05
-0.000162905
2.70285e-05
-0.000166636
2.82187e-05
-0.000170778
2.91874e-05
-0.000175417
2.98289e-05
-0.000180725
-0.000186875
3.00122e-05
1.84243e-06
-0.000132308
2.57854e-06
-0.000140361
3.59798e-06
-0.000138225
4.69566e-06
-0.000138551
5.81549e-06
-0.000139184
6.96527e-06
-0.000139967
8.14721e-06
-0.000140909
9.36209e-06
-0.000142018
1.06106e-05
-0.0001433
1.18925e-05
-0.000144763
1.32061e-05
-0.000146412
1.45474e-05
-0.000148256
1.59093e-05
-0.000150304
1.72815e-05
-0.00015257
1.86496e-05
-0.000155067
1.99944e-05
-0.000157812
2.12894e-05
-0.000160821
2.24985e-05
-0.000164114
2.35739e-05
-0.000167712
2.44546e-05
-0.000171659
2.50518e-05
-0.000176015
2.52209e-05
-0.000180894
-0.000186426
2.47717e-05
1.74993e-06
-0.000134058
2.23094e-06
-0.000140842
3.08304e-06
-0.000139077
4.01353e-06
-0.000139482
4.96228e-06
-0.000140132
5.93673e-06
-0.000140941
6.93934e-06
-0.000141911
7.97164e-06
-0.00014305
9.0354e-06
-0.000144364
1.01305e-05
-0.000145858
1.12548e-05
-0.000147536
1.24032e-05
-0.000149404
1.35688e-05
-0.00015147
1.47425e-05
-0.000153743
1.59111e-05
-0.000156235
1.70562e-05
-0.000158957
1.81517e-05
-0.000161917