/*--------------------------------*- C++ -*----------------------------------*\
| =========                 |                                                 |
| \\      /  F ield         | OpenFOAM: The Open Source CFD Toolbox           |
|  \\    /   O peration     | Version:  2206                                  |
|   \\  /    A nd           | Website:  www.openfoam.com                      |
|    \\/     M anipulation  |                                                 |
\*---------------------------------------------------------------------------*/
FoamFile
{
    version     2.0;
    format      ascii;
    arch        "LSB;label=32;scalar=64";
    class       volVectorField;
    location    "0.35";
    object      U;
}
// * * * * * * * * * * * * * * * * * * * * * * * * * * * * * * * * * * * * * //

dimensions      [0 1 -1 0 0 0 0];

internalField   nonuniform List<vector> 
2268
(
(-0.0279313 0.00607826 0)
(-0.0235855 -0.00631046 0)
(0.0281722 -0.0147198 0)
(0.101102 -0.017823 0)
(0.175654 -0.016897 0)
(0.242878 -0.0142226 0)
(0.297828 -0.0113411 0)
(0.340855 -0.00894114 0)
(0.374807 -0.00715594 0)
(0.40244 -0.00584771 0)
(0.425356 -0.00477279 0)
(0.443938 -0.00368945 0)
(0.457592 -0.00231301 0)
(0.464601 -0.00024243 0)
(0.46196 0.00397811 0)
(0.440888 0.0115912 0)
(0.391906 0.0228764 0)
(0.303108 0.0367872 0)
(0.163952 0.0464837 0)
(-0.00659577 0.0362388 0)
(-0.164548 0.00738259 0)
(-0.252499 -0.000185651 0)
(-0.103249 -0.0625628 0)
(-0.0293475 0.0180108 0)
(-0.0216735 -0.0196776 0)
(0.0308175 -0.0446217 0)
(0.104084 -0.0536969 0)
(0.178382 -0.0508706 0)
(0.244913 -0.0428915 0)
(0.299266 -0.0343323 0)
(0.342096 -0.0272289 0)
(0.376286 -0.0219598 0)
(0.404494 -0.0180967 0)
(0.428201 -0.0149128 0)
(0.447742 -0.0116706 0)
(0.462509 -0.00767728 0)
(0.471586 -0.00212103 0)
(0.473976 0.00616677 0)
(0.472594 0.0193941 0)
(0.467168 0.0397215 0)
(0.448839 0.069024 0)
(0.391302 0.1035 0)
(0.249688 0.122664 0)
(0.0468956 0.0952376 0)
(-0.180295 0.00139059 0)
(0.000841239 -0.141531 0)
(-0.0277045 0.0293744 0)
(-0.0182586 -0.0335036 0)
(0.0351783 -0.0747396 0)
(0.10822 -0.0892029 0)
(0.181277 -0.0841663 0)
(0.245901 -0.0708326 0)
(0.29857 -0.0567414 0)
(0.340466 -0.0451846 0)
(0.374545 -0.0366926 0)
(0.403294 -0.0304772 0)
(0.427965 -0.0253107 0)
(0.448692 -0.0199816 0)
(0.464818 -0.0134864 0)
(0.475023 -0.00499241 0)
(0.477828 0.00591154 0)
(0.47196 0.020627 0)
(0.458151 0.0424843 0)
(0.442082 0.0769906 0)
(0.432916 0.12856 0)
(0.394682 0.180726 0)
(0.286764 0.1858 0)
(0.0823799 0.0575764 0)
(0.081232 -0.142551 0)
(-0.0261823 0.0393721 0)
(-0.0131108 -0.0480761 0)
(0.0413108 -0.10518 0)
(0.113677 -0.124212 0)
(0.184765 -0.116518 0)
(0.246754 -0.0978295 0)
(0.29727 -0.0785148 0)
(0.338127 -0.0629366 0)
(0.372316 -0.0516269 0)
(0.402039 -0.0433565 0)
(0.428207 -0.0363837 0)
(0.450686 -0.0290736 0)
(0.468644 -0.0201163 0)
(0.480844 -0.00854085 0)
(0.485848 0.0067283 0)
(0.482259 0.0264912 0)
(0.469187 0.0521311 0)
(0.447135 0.0861801 0)
(0.429058 0.134672 0)
(0.427014 0.197764 0)
(0.408871 0.234275 0)
(0.270683 0.131595 0)
(0.162143 -0.0699752 0)
(-0.0241419 0.0475479 0)
(-0.00643822 -0.0636931 0)
(0.0488363 -0.135712 0)
(0.119964 -0.158308 0)
(0.188341 -0.147461 0)
(0.2471 -0.123539 0)
(0.295194 -0.099511 0)
(0.335081 -0.0805236 0)
(0.369688 -0.0669133 0)
(0.400809 -0.0569325 0)
(0.428918 -0.0483353 0)
(0.453558 -0.0391115 0)
(0.473731 -0.0277191 0)
(0.488175 -0.0130243 0)
(0.495607 0.00585643 0)
(0.494891 0.0298968 0)
(0.48537 0.0600916 0)
(0.466605 0.0970768 0)
(0.441073 0.14125 0)
(0.424117 0.197097 0)
(0.434011 0.249409 0)
(0.349059 0.198697 0)
(0.207671 0.0393842 0)
(-0.0212966 0.0534234 0)
(0.00154997 -0.0805273 0)
(0.0575174 -0.166165 0)
(0.126874 -0.191196 0)
(0.191902 -0.176698 0)
(0.247028 -0.14777 0)
(0.292661 -0.119713 0)
(0.331832 -0.0980879 0)
(0.36725 -0.0827891 0)
(0.400178 -0.0714745 0)
(0.43058 -0.0614285 0)
(0.457657 -0.0503465 0)
(0.480256 -0.0365302 0)
(0.497115 -0.0187953 0)
(0.50705 0.0037439 0)
(0.509093 0.0317983 0)
(0.502704 0.0660848 0)
(0.487677 0.106995 0)
(0.464599 0.152677 0)
(0.431865 0.201682 0)
(0.424575 0.257655 0)
(0.365405 0.25785 0)
(0.229258 0.172917 0)
(-0.0176258 0.0565153 0)
(0.010512 -0.0986489 0)
(0.0670479 -0.196427 0)
(0.134205 -0.222805 0)
(0.195481 -0.204226 0)
(0.246866 -0.170564 0)
(0.290271 -0.139169 0)
(0.329169 -0.115656 0)
(0.365883 -0.0992418 0)
(0.401024 -0.0869195 0)
(0.434018 -0.0755483 0)
(0.463745 -0.0626157 0)
(0.488926 -0.0463543 0)
(0.508301 -0.0256002 0)
(0.520727 0.000374107 0)
(0.52536 0.0321835 0)
(0.521757 0.0704042 0)
(0.50929 0.115121 0)
(0.489655 0.165384 0)
(0.454626 0.21577 0)
(0.422851 0.274027 0)
(0.364994 0.311196 0)
(0.253002 0.301515 0)
(-0.0132882 0.0567282 0)
(0.0199042 -0.117559 0)
(0.0769718 -0.226577 0)
(0.141466 -0.253359 0)
(0.19885 -0.230372 0)
(0.246785 -0.192345 0)
(0.288516 -0.158321 0)
(0.327742 -0.133595 0)
(0.366229 -0.116531 0)
(0.403882 -0.103443 0)
(0.439623 -0.0908275 0)
(0.472104 -0.0760368 0)
(0.500008 -0.0572697 0)
(0.522084 -0.0333408 0)
(0.537202 -0.00360931 0)
(0.544519 0.0318639 0)
(0.543496 0.0738386 0)
(0.53336 0.121947 0)
(0.515285 0.17629 0)
(0.484534 0.232302 0)
(0.439166 0.297179 0)
(0.373917 0.364401 0)
(0.249299 0.44432 0)
(-0.0811525 0.0376313 0)
(-0.214341 0.0300945 0)
(-0.317494 0.0246501 0)
(-0.39842 0.018759 0)
(-0.454629 0.0131208 0)
(-0.489468 0.00776514 0)
(-0.505113 0.00276963 0)
(-0.504289 -0.00127382 0)
(-0.490313 -0.00441434 0)
(-0.465597 -0.00673902 0)
(-0.433065 -0.00798676 0)
(-0.395505 -0.00896835 0)
(-0.353551 -0.0103196 0)
(-0.307361 -0.012018 0)
(-0.257639 -0.0134715 0)
(-0.204559 -0.0149461 0)
(-0.14858 -0.0162292 0)
(-0.090144 -0.0174145 0)
(-0.0303263 -0.0177323 0)
(-0.0949805 0.122257 0)
(-0.237394 0.0948033 0)
(-0.341314 0.0728423 0)
(-0.416666 0.0511143 0)
(-0.464483 0.0329779 0)
(-0.491612 0.0176511 0)
(-0.501391 0.00443519 0)
(-0.496969 -0.00662711 0)
(-0.480235 -0.0157758 0)
(-0.452288 -0.0233721 0)
(-0.4144 -0.0288597 0)
(-0.368469 -0.032988 0)
(-0.317481 -0.0359992 0)
(-0.264615 -0.0384473 0)
(-0.21238 -0.0402462 0)
(-0.161894 -0.0418508 0)
(-0.113603 -0.0430329 0)
(-0.0673248 -0.0441675 0)
(-0.0225725 -0.0447213 0)
(-0.101016 0.213694 0)
(-0.249977 0.15987 0)
(-0.353619 0.119431 0)
(-0.42654 0.0814954 0)
(-0.472692 0.0514915 0)
(-0.499769 0.0267051 0)
(-0.509628 0.00588059 0)
(-0.504434 -0.0123346 0)
(-0.486715 -0.0276715 0)
(-0.457863 -0.0407462 0)
(-0.419871 -0.051068 0)
(-0.375025 -0.0589363 0)
(-0.325029 -0.0638943 0)
(-0.272091 -0.0665196 0)
(-0.218685 -0.0676197 0)
(-0.166318 -0.0678704 0)
(-0.116137 -0.0675108 0)
(-0.0684733 -0.067307 0)
(-0.0229218 -0.0671474 0)
(-0.114125 0.312475 0)
(-0.27975 0.227214 0)
(-0.382611 0.165866 0)
(-0.450165 0.110278 0)
(-0.490835 0.0693621 0)
(-0.514721 0.0357647 0)
(-0.522534 0.0070535 0)
(-0.515659 -0.0186265 0)
(-0.496219 -0.0401992 0)
(-0.465655 -0.0583548 0)
(-0.426009 -0.0725516 0)
(-0.380056 -0.0832411 0)
(-0.329726 -0.0903651 0)
(-0.276998 -0.09415 0)
(-0.223851 -0.0953674 0)
(-0.171325 -0.0947517 0)
(-0.12034 -0.0934078 0)
(-0.0712742 -0.0923041 0)
(-0.0239108 -0.0916693 0)
(-0.139375 0.428581 0)
(-0.32725 0.299661 0)
(-0.425151 0.210583 0)
(-0.483749 0.133743 0)
(-0.515708 0.0840083 0)
(-0.535172 0.0432803 0)
(-0.540138 0.00713208 0)
(-0.530793 -0.025983 0)
(-0.508917 -0.0537096 0)
(-0.476036 -0.0770634 0)
(-0.433987 -0.0953522 0)
(-0.38574 -0.108931 0)
(-0.333387 -0.117687 0)
(-0.279265 -0.122043 0)
(-0.225309 -0.123193 0)
(-0.172474 -0.121909 0)
(-0.121383 -0.119763 0)
(-0.0720081 -0.11794 0)
(-0.0241775 -0.11692 0)
(-0.177281 0.57645 0)
(-0.388804 0.372902 0)
(-0.480219 0.252182 0)
(-0.525443 0.150913 0)
(-0.544755 0.094597 0)
(-0.559637 0.0486518 0)
(-0.561908 0.00568485 0)
(-0.549849 -0.0353417 0)
(-0.524972 -0.0687936 0)
(-0.489216 -0.0972094 0)
(-0.444053 -0.119514 0)
(-0.39273 -0.13597 0)
(-0.337521 -0.146049 0)
(-0.281144 -0.150755 0)
(-0.225622 -0.15136 0)
(-0.171967 -0.149333 0)
(-0.120689 -0.146193 0)
(-0.0714739 -0.143617 0)
(-0.0239927 -0.142266 0)
(-0.236041 0.709018 0)
(-0.476045 0.431218 0)
(-0.556121 0.287502 0)
(-0.579757 0.154729 0)
(-0.575879 0.0982804 0)
(-0.584124 0.0519865 0)
(-0.584457 0.00295681 0)
(-0.570322 -0.0479613 0)
(-0.542796 -0.0862339 0)
(-0.504661 -0.119202 0)
(-0.456266 -0.145357 0)
(-0.401113 -0.164848 0)
(-0.342281 -0.175934 0)
(-0.283109 -0.180557 0)
(-0.225599 -0.180165 0)
(-0.170844 -0.176927 0)
(-0.119249 -0.17245 0)
(-0.0703425 -0.168839 0)
(-0.0235789 -0.16702 0)
(-0.183757 1.10651 0)
(-0.597733 0.551822 0)
(-0.675989 0.347534 0)
(-0.669154 0.151782 0)
(-0.61569 0.089286 0)
(-0.615575 0.0482801 0)
(-0.612436 -0.000172232 0)
(-0.591803 -0.0564264 0)
(-0.558979 -0.101564 0)
(-0.519579 -0.141643 0)
(-0.46939 -0.173101 0)
(-0.410675 -0.195801 0)
(-0.347519 -0.207598 0)
(-0.285035 -0.21182 0)
(-0.225271 -0.21021 0)
(-0.169297 -0.205474 0)
(-0.117378 -0.199492 0)
(-0.0688787 -0.194585 0)
(-0.0230544 -0.192216 0)
(-0.00598921 0.0495782 0)
(0.0361269 -0.150665 0)
(0.0937416 -0.272991 0)
(0.152077 -0.297671 0)
(0.202766 -0.26754 0)
(0.246173 -0.224378 0)
(0.286555 -0.188494 0)
(0.327171 -0.163614 0)
(0.368629 -0.146501 0)
(0.409813 -0.132613 0)
(0.449134 -0.118193 0)
(0.485197 -0.100668 0)
(0.516921 -0.078372 0)
(0.543325 -0.0500095 0)
(0.563185 -0.0141971 0)
(0.575788 0.0302534 0)
(0.580177 0.0809502 0)
(0.575296 0.137656 0)
(0.560112 0.200409 0)
(0.538058 0.267111 0)
(0.493811 0.347006 0)
(0.466187 0.431928 0)
(0.325186 0.644261 0)
(0.00563508 0.026416 0)
(0.0644639 -0.201777 0)
(0.122806 -0.331834 0)
(0.167644 -0.349383 0)
(0.20661 -0.310358 0)
(0.244437 -0.263444 0)
(0.284406 -0.228246 0)
(0.32766 -0.205144 0)
(0.372854 -0.188637 0)
(0.417748 -0.173495 0)
(0.46044 -0.156145 0)
(0.499742 -0.134514 0)
(0.535166 -0.107556 0)
(0.56676 -0.074832 0)
(0.59465 -0.0363376 0)
(0.616083 0.00807824 0)
(0.628914 0.0623115 0)
(0.634079 0.124611 0)
(0.628729 0.19444 0)
(0.619701 0.269589 0)
(0.596249 0.360563 0)
(0.600487 0.449618 0)
(0.566478 0.668992 0)
(0.0198406 -0.0229542 0)
(0.114121 -0.263136 0)
(0.175721 -0.375362 0)
(0.192619 -0.382017 0)
(0.211478 -0.341822 0)
(0.244247 -0.299805 0)
(0.286915 -0.270396 0)
(0.335014 -0.251015 0)
(0.385004 -0.235407 0)
(0.434161 -0.218763 0)
(0.480788 -0.198249 0)
(0.523939 -0.172274 0)
(0.562862 -0.139617 0)
(0.596385 -0.0989967 0)
(0.623474 -0.0495084 0)
(0.648181 0.00989412 0)
(0.670321 0.082499 0)
(0.683878 0.161775 0)
(0.688357 0.24288 0)
(0.689322 0.319861 0)
(0.68903 0.398639 0)
(0.699273 0.468923 0)
(0.72482 0.586813 0)
(0.0426164 -0.118129 0)
(0.195796 -0.346784 0)
(0.260232 -0.405309 0)
(0.231618 -0.395548 0)
(0.221887 -0.371349 0)
(0.252029 -0.349158 0)
(0.301112 -0.331615 0)
(0.356219 -0.317571 0)
(0.412866 -0.304143 0)
(0.46976 -0.288558 0)
(0.527216 -0.269195 0)
(0.585838 -0.245002 0)
(0.644944 -0.214507 0)
(0.701828 -0.17559 0)
(0.753991 -0.127152 0)
(0.797063 -0.0700232 0)
(0.819492 -0.0101338 0)
(0.819345 0.0591341 0)
(0.806066 0.137658 0)
(0.791776 0.220275 0)
(0.779983 0.31781 0)
(0.776483 0.415402 0)
(0.796474 0.507062 0)
(0.0817402 -0.253402 0)
(0.25574 -0.486966 0)
(0.331603 -0.432282 0)
(0.260891 -0.365342 0)
(0.221216 -0.373266 0)
(0.246747 -0.388846 0)
(0.292342 -0.386635 0)
(0.341416 -0.374679 0)
(0.392031 -0.359611 0)
(0.44694 -0.342606 0)
(0.510054 -0.322595 0)
(0.581708 -0.295963 0)
(0.622611 -0.25948 0)
(0.705177 -0.211196 0)
(0.825174 -0.143883 0)
(0.919597 -0.0541571 0)
(1.03828 0.0644795 0)
(1.01933 0.164124 0)
(0.974966 0.248667 0)
(0.934428 0.309115 0)
(0.902782 0.359788 0)
(0.875728 0.402893 0)
(0.865704 0.437186 0)
(0.0856273 -0.465459 0)
(0.198483 -0.657989 0)
(0.272405 -0.399845 0)
(0.169776 -0.26644 0)
(0.123214 -0.319729 0)
(0.120214 -0.378172 0)
(0.119378 -0.385328 0)
(0.121842 -0.372938 0)
(0.131675 -0.360118 0)
(0.157119 -0.351929 0)
(0.206661 -0.343204 0)
(0.282954 -0.312327 0)
(0.374886 -0.284374 0)
(0.472519 -0.280127 0)
(0.584613 -0.274703 0)
(0.719546 -0.195523 0)
(0.868729 -0.0502127 0)
(1.00307 0.200865 0)
(1.0364 0.339256 0)
(1.01213 0.399619 0)
(0.91306 0.452382 0)
(0.903157 0.477706 0)
(0.894937 0.480623 0)
(-0.0389836 -0.629766 0)
(-0.119547 -0.385049 0)
(-0.09237 -0.273177 0)
(-0.0155136 -0.319675 0)
(0.0445744 -0.356767 0)
(0.0635151 -0.381413 0)
(0.0661594 -0.388522 0)
(0.0715121 -0.389151 0)
(0.0885059 -0.398179 0)
(0.124838 -0.422778 0)
(0.18013 -0.451142 0)
(0.251127 -0.454364 0)
(0.323193 -0.435811 0)
(0.398633 -0.432853 0)
(0.514822 -0.435803 0)
(0.661781 -0.368854 0)
(0.834 -0.231561 0)
(1.00834 -0.0171377 0)
(1.16255 0.224135 0)
(1.2309 0.414794 0)
(1.18637 0.556734 0)
(1.0691 0.563651 0)
(0.950206 0.532872 0)
(-0.0779906 -0.402262 0)
(-0.114259 -0.522818 0)
(-0.0737053 -0.490515 0)
(-0.00469368 -0.412491 0)
(0.0250458 -0.396232 0)
(0.0473063 -0.400787 0)
(0.0576747 -0.406068 0)
(0.067959 -0.413457 0)
(0.0837771 -0.43473 0)
(0.112296 -0.472102 0)
(0.146077 -0.510021 0)
(0.188025 -0.511205 0)
(0.230472 -0.479439 0)
(0.276717 -0.516733 0)
(0.388578 -0.590213 0)
(0.527376 -0.565495 0)
(0.705947 -0.443472 0)
(0.883078 -0.225116 0)
(1.06493 0.0552067 0)
(1.18721 0.34996 0)
(1.20597 0.58431 0)
(1.14161 0.672292 0)
(1.02397 0.640177 0)
(-0.0347844 -0.357204 0)
(-0.025297 -0.55328 0)
(-0.0163305 -0.477395 0)
(0.00545509 -0.437828 0)
(0.0254877 -0.420165 0)
(0.044353 -0.416953 0)
(0.0570411 -0.415858 0)
(0.0670707 -0.421771 0)
(0.0757614 -0.446216 0)
(0.0879961 -0.48774 0)
(0.0949793 -0.531754 0)
(0.108117 -0.536318 0)
(0.136075 -0.506457 0)
(0.172772 -0.603665 0)
(0.219123 -0.700426 0)
(0.275914 -0.684898 0)
(0.370439 -0.575471 0)
(0.509031 -0.380427 0)
(0.6777 -0.0926471 0)
(0.840954 0.240627 0)
(0.887947 0.534618 0)
(0.908616 0.697636 0)
(0.891053 0.728887 0)
(0.00278241 -0.343293 0)
(0.00166019 -0.535656 0)
(-0.00163763 -0.486326 0)
(0.0132597 -0.449729 0)
(0.0292943 -0.436813 0)
(0.0455293 -0.431359 0)
(0.0589236 -0.426451 0)
(0.0691678 -0.42897 0)
(0.0742313 -0.450426 0)
(0.0746895 -0.489139 0)
(0.0655775 -0.532312 0)
(0.0584871 -0.544454 0)
(0.0810671 -0.527736 0)
(0.0876681 -0.606614 0)
(0.0557909 -0.685392 0)
(0.0284871 -0.70205 0)
(0.0386733 -0.616871 0)
(0.0645397 -0.45419 0)
(0.106802 -0.197896 0)
(0.265759 0.156742 0)
(0.380413 0.500086 0)
(0.490217 0.698417 0)
(0.599866 0.757039 0)
(0.0138047 -0.352434 0)
(0.0137515 -0.538785 0)
(0.0107699 -0.493243 0)
(0.0221529 -0.463152 0)
(0.0366403 -0.452559 0)
(0.0514603 -0.445761 0)
(0.0660732 -0.438274 0)
(0.0788264 -0.43615 0)
(0.0860527 -0.449807 0)
(0.0844995 -0.480087 0)
(0.0727817 -0.517053 0)
(0.0576171 -0.538073 0)
(0.065757 -0.536381 0)
(0.0575155 -0.562256 0)
(0.0135478 -0.614589 0)
(-0.0373195 -0.668332 0)
(-0.0891589 -0.60251 0)
(-0.113698 -0.446723 0)
(-0.157505 -0.213899 0)
(-0.110033 0.0880937 0)
(0.0455586 0.372328 0)
(0.295487 0.481966 0)
(0.592908 0.440899 0)
(0.0156387 -0.369559 0)
(0.0202364 -0.538433 0)
(0.0193128 -0.498344 0)
(0.030072 -0.474674 0)
(0.0435066 -0.466729 0)
(0.0579301 -0.460487 0)
(0.0738645 -0.452719 0)
(0.090259 -0.447644 0)
(0.103375 -0.453894 0)
(0.10827 -0.474782 0)
(0.10365 -0.503795 0)
(0.0926911 -0.528528 0)
(0.08852 -0.53869 0)
(0.087295 -0.557401 0)
(0.0668662 -0.581594 0)
(0.00960753 -0.60128 0)
(-0.0686799 -0.560233 0)
(-0.0708462 -0.462513 0)
(-0.0204776 -0.297339 0)
(0.0724677 -0.118666 0)
(0.210238 0.0332556 0)
(0.39135 0.132355 0)
(0.566434 0.19377 0)
(0.0147719 -0.388366 0)
(0.0225531 -0.541227 0)
(0.0246787 -0.504951 0)
(0.0356108 -0.486247 0)
(0.0487293 -0.480509 0)
(0.063034 -0.475836 0)
(0.0794406 -0.469851 0)
(0.0980572 -0.464821 0)
(0.116109 -0.466707 0)
(0.128785 -0.479534 0)
(0.1333 -0.500281 0)
(0.130376 -0.521515 0)
(0.124322 -0.536657 0)
(0.116165 -0.547305 0)
(0.0985673 -0.550699 0)
(0.0606843 -0.547954 0)
(0.00504222 -0.515189 0)
(-0.0495629 -0.444729 0)
(-0.0690598 -0.303631 0)
(-0.0234861 -0.130568 0)
(0.0735036 0.0213903 0)
(0.200065 0.100497 0)
(0.331912 0.141219 0)
(0.0131398 -0.407508 0)
(0.0230026 -0.546504 0)
(0.0280583 -0.513182 0)
(0.0393918 -0.498129 0)
(0.0525013 -0.494211 0)
(0.0665898 -0.491191 0)
(0.0824348 -0.487555 0)
(0.100642 -0.484303 0)
(0.119773 -0.484721 0)
(0.136199 -0.492009 0)
(0.146426 -0.505305 0)
(0.149455 -0.519672 0)
(0.145703 -0.529955 0)
(0.136624 -0.534283 0)
(0.121655 -0.529125 0)
(0.100091 -0.511381 0)
(0.0747475 -0.472679 0)
(0.0539403 -0.415356 0)
(0.0530833 -0.331757 0)
(0.0900981 -0.235544 0)
(0.166976 -0.150597 0)
(0.271592 -0.0860238 0)
(0.389276 -0.0406681 0)
(0.0115423 -0.425689 0)
(0.0227402 -0.553864 0)
(0.030139 -0.522836 0)
(0.0419099 -0.510376 0)
(0.0550352 -0.507747 0)
(0.0688323 -0.505925 0)
(0.0837091 -0.504021 0)
(0.100089 -0.502553 0)
(0.11746 -0.502931 0)
(0.133608 -0.506862 0)
(0.145563 -0.514167 0)
(0.151602 -0.521925 0)
(0.151968 -0.526548 0)
(0.147679 -0.525414 0)
(0.140088 -0.516597 0)
(0.131534 -0.497555 0)
(0.124936 -0.464879 0)
(0.126107 -0.416273 0)
(0.142952 -0.351913 0)
(0.182583 -0.279832 0)
(0.246535 -0.212008 0)
(0.329753 -0.158879 0)
(0.424138 -0.1249 0)
(0.0103287 -0.442893 0)
(0.0223087 -0.562918 0)
(0.0313885 -0.533521 0)
(0.0435143 -0.522911 0)
(0.0566468 -0.521156 0)
(0.0702367 -0.52005 0)
(0.084388 -0.519012 0)
(0.0991718 -0.518484 0)
(0.114366 -0.518931 0)
(0.128861 -0.520849 0)
(0.140828 -0.524072 0)
(0.148949 -0.527098 0)
(0.153301 -0.527563 0)
(0.155001 -0.523277 0)
(0.155466 -0.512734 0)
(0.156314 -0.494082 0)
(0.160831 -0.465537 0)
(0.173244 -0.426921 0)
(0.198284 -0.380183 0)
(0.23953 -0.330096 0)
(0.297533 -0.283331 0)
(0.369733 -0.245801 0)
(0.451725 -0.219777 0)
(0.009477 -0.459315 0)
(0.0218819 -0.573159 0)
(0.0321021 -0.544907 0)
(0.0445123 -0.535657 0)
(0.0576609 -0.534517 0)
(0.0711459 -0.533846 0)
(0.0849591 -0.533162 0)
(0.0989779 -0.532874 0)
(0.112973 -0.533126 0)
(0.126453 -0.533874 0)
(0.138604 -0.534822 0)
(0.148732 -0.5351 0)
(0.156875 -0.533298 0)
(0.163917 -0.527855 0)
(0.171143 -0.517502 0)
(0.180229 -0.501303 0)
(0.193317 -0.478713 0)
(0.213234 -0.449675 0)
(0.242837 -0.415506 0)
(0.284106 -0.379204 0)
(0.337438 -0.344934 0)
(0.401402 -0.317211 0)
(0.473536 -0.297761 0)
(0.0089138 -0.475122 0)
(0.021524 -0.584198 0)
(0.0324671 -0.556768 0)
(0.0450935 -0.548559 0)
(0.0582618 -0.547873 0)
(0.0716967 -0.547522 0)
(0.0853964 -0.547052 0)
(0.0992333 -0.546781 0)
(0.11299 -0.546781 0)
(0.126424 -0.546903 0)
(0.13925 -0.546796 0)
(0.151243 -0.545844 0)
(0.162523 -0.54315 0)
(0.173725 -0.537726 0)
(0.185913 -0.528732 0)
(0.200422 -0.515505 0)
(0.218837 -0.497745 0)
(0.242995 -0.475764 0)
(0.274745 -0.450761 0)
(0.315431 -0.424891 0)
(0.365365 -0.4009 0)
(0.423874 -0.381997 0)
(0.489239 -0.369282 0)
(0.00856009 -0.490489 0)
(0.0212393 -0.595722 0)
(0.0325905 -0.568928 0)
(0.0453642 -0.561566 0)
(0.0585447 -0.561232 0)
(0.071952 -0.561154 0)
(0.0856118 -0.560914 0)
(0.0994675 -0.560731 0)
(0.113386 -0.560638 0)
(0.127229 -0.5605 0)
(0.140909 -0.560018 0)
(0.154436 -0.558731 0)
(0.168034 -0.556042 0)
(0.182223 -0.551326 0)
(0.19781 -0.544031 0)
(0.215837 -0.533804 0)
(0.237548 -0.520604 0)
(0.264298 -0.504821 0)
(0.297329 -0.487376 0)
(0.337515 -0.469725 0)
(0.38503 -0.453748 0)
(0.439626 -0.441818 0)
(0.499994 -0.434863 0)
(0.00833833 -0.505547 0)
(0.0210006 -0.607494 0)
(0.0325324 -0.581259 0)
(0.0453883 -0.574632 0)
(0.0585611 -0.57459 0)
(0.0719462 -0.57476 0)
(0.0855857 -0.57478 0)
(0.0994833 -0.57481 0)
(0.113599 -0.57484 0)
(0.127888 -0.574752 0)
(0.142355 -0.574325 0)
(0.157107 -0.573241 0)
(0.172405 -0.571114 0)
(0.188705 -0.567557 0)
(0.206667 -0.56225 0)
(0.227125 -0.555028 0)
(0.251021 -0.545961 0)
(0.279324 -0.535417 0)
(0.312885 -0.524087 0)
(0.35231 -0.513006 0)
(0.397761 -0.503581 0)
(0.449223 -0.497663 0)
(0.50575 -0.495999 0)
(0.00819241 -0.52038 0)
(0.0207764 -0.619339 0)
(0.0323256 -0.593658 0)
(0.0452006 -0.587707 0)
(0.0583321 -0.587929 0)
(0.0716822 -0.588343 0)
(0.0853033 -0.58865 0)
(0.0992333 -0.588984 0)
(0.113497 -0.589316 0)
(0.12813 -0.589542 0)
(0.143207 -0.589504 0)
(0.158879 -0.588995 0)
(0.175403 -0.587783 0)
(0.193175 -0.585654 0)
(0.212735 -0.582447 0)
(0.234739 -0.578111 0)
(0.25991 -0.572765 0)
(0.288953 -0.566733 0)
(0.322485 -0.56055 0)
(0.360967 -0.554975 0)
(0.404577 -0.551099 0)
(0.453429 -0.550447 0)
(0.506811 -0.553625 0)
(0.00808592 -0.535032 0)
(0.0205379 -0.631126 0)
(0.0319844 -0.606042 0)
(0.0448165 -0.600738 0)
(0.0578619 -0.601213 0)
(0.0711418 -0.601884 0)
(0.0847187 -0.602514 0)
(0.0986519 -0.603223 0)
(0.113005 -0.603983 0)
(0.127863 -0.604711 0)
(0.143345 -0.605298 0)
(0.159622 -0.605615 0)
(0.176937 -0.605541 0)
(0.195634 -0.604976 0)
(0.216153 -0.603869 0)
(0.239013 -0.602246 0)
(0.264769 -0.600251 0)
(0.293951 -0.598161 0)
(0.327037 -0.596395 0)
(0.364404 -0.595532 0)
(0.406243 -0.596477 0)
(0.452738 -0.600544 0)
(0.503363 -0.608244 0)
(0.0079949 -0.54952 0)
(0.02026 -0.642747 0)
(0.0315111 -0.618333 0)
(0.0442384 -0.613665 0)
(0.0571449 -0.614393 0)
(0.070302 -0.615338 0)
(0.0837798 -0.616329 0)
(0.0976535 -0.617472 0)
(0.112012 -0.618747 0)
(0.126965 -0.620097 0)
(0.142649 -0.621453 0)
(0.15924 -0.622747 0)
(0.176965 -0.623928 0)
(0.196122 -0.624977 0)
(0.217076 -0.625914 0)
(0.240237 -0.626817 0)
(0.266039 -0.627841 0)
(0.294896 -0.629232 0)
(0.327195 -0.631327 0)
(0.363257 -0.634595 0)
(0.403295 -0.639825 0)
(0.447531 -0.648198 0)
(0.495575 -0.660157 0)
(0.00790012 -0.563831 0)
(0.01992 -0.654109 0)
(0.0309028 -0.630464 0)
(0.0434629 -0.626428 0)
(0.0561713 -0.627409 0)
(0.0691424 -0.628646 0)
(0.0824502 -0.630025 0)
(0.0961804 -0.631645 0)
(0.110438 -0.633493 0)
(0.125343 -0.635535 0)
(0.141034 -0.637739 0)
(0.15768 -0.64008 0)
(0.175488 -0.642557 0)
(0.194719 -0.645202 0)
(0.215676 -0.648086 0)
(0.238689 -0.651324 0)
(0.264105 -0.655079 0)
(0.292256 -0.65957 0)
(0.323473 -0.665085 0)
(0.358026 -0.672022 0)
(0.396154 -0.681108 0)
(0.438104 -0.693444 0)
(0.483573 -0.709455 0)
(0.00778179 -0.577928 0)
(0.0194998 -0.665136 0)
(0.0301601 -0.642374 0)
(0.0424879 -0.638962 0)
(0.0549345 -0.640199 0)
(0.0676499 -0.641738 0)
(0.0807105 -0.643523 0)
(0.0942074 -0.645642 0)
(0.108252 -0.648093 0)
(0.122965 -0.650861 0)
(0.13848 -0.653942 0)
(0.154949 -0.657345 0)
(0.172562 -0.661102 0)
(0.191545 -0.665282 0)
(0.212152 -0.66999 0)
(0.234649 -0.675372 0)
(0.25932 -0.681591 0)
(0.28644 -0.68885 0)
(0.316298 -0.697405 0)
(0.349126 -0.707626 0)
(0.385183 -0.720197 0)
(0.424723 -0.736183 0)
(0.46752 -0.756048 0)
(0.00762122 -0.591748 0)
(0.0189923 -0.67577 0)
(0.0292972 -0.654004 0)
(0.0413241 -0.651201 0)
(0.0534408 -0.652691 0)
(0.0658278 -0.654538 0)
(0.0785601 -0.656733 0)
(0.0917323 -0.659356 0)
(0.105453 -0.662415 0)
(0.119837 -0.665913 0)
(0.135005 -0.669865 0)
(0.151097 -0.674305 0)
(0.168276 -0.679287 0)
(0.186744 -0.684908 0)
(0.206706 -0.691299 0)
(0.228382 -0.698628 0)
(0.252009 -0.707059 0)
(0.277815 -0.716788 0)
(0.306059 -0.728051 0)
(0.336938 -0.741211 0)
(0.370728 -0.756927 0)
(0.407654 -0.776262 0)
(0.447566 -0.799742 0)
(0.00741047 -0.605216 0)
(0.0184101 -0.685984 0)
(0.0283454 -0.665302 0)
(0.0400006 -0.663077 0)
(0.0517178 -0.664813 0)
(0.0637035 -0.666965 0)
(0.0760248 -0.669564 0)
(0.0887793 -0.672681 0)
(0.102067 -0.676333 0)
(0.115991 -0.680539 0)
(0.130658 -0.685328 0)
(0.146192 -0.690751 0)
(0.162737 -0.696878 0)
(0.180464 -0.703822 0)
(0.199539 -0.711737 0)
(0.220143 -0.720805 0)
(0.242471 -0.731203 0)
(0.266716 -0.74312 0)
(0.293106 -0.756783 0)
(0.321807 -0.772552 0)
(0.353112 -0.791078 0)
(0.387194 -0.813451 0)
(0.423954 -0.840262 0)
(0.00716236 -0.618273 0)
(0.0177878 -0.695792 0)
(0.0273454 -0.676221 0)
(0.0385601 -0.674527 0)
(0.0498092 -0.676498 0)
(0.0613244 -0.678945 0)
(0.0731543 -0.681931 0)
(0.0853997 -0.685521 0)
(0.0981473 -0.689737 0)
(0.111488 -0.69461 0)
(0.125513 -0.700181 0)
(0.140332 -0.706509 0)
(0.156068 -0.713678 0)
(0.172863 -0.721809 0)
(0.190849 -0.731075 0)
(0.210175 -0.741665 0)
(0.230991 -0.753777 0)
(0.253461 -0.7676 0)
(0.277779 -0.783362 0)
(0.304083 -0.801414 0)
(0.332664 -0.822406 0)
(0.363633 -0.847473 0)
(0.396941 -0.877294 0)
(0.00691153 -0.630894 0)
(0.0171701 -0.705224 0)
(0.0263272 -0.686715 0)
(0.0370403 -0.685495 0)
(0.0477564 -0.687686 0)
(0.0587399 -0.690412 0)
(0.0700058 -0.69376 0)
(0.0816595 -0.697788 0)
(0.0937701 -0.702526 0)
(0.106416 -0.70801 0)
(0.119676 -0.714291 0)
(0.133642 -0.721433 0)
(0.14842 -0.729528 0)
(0.164122 -0.738703 0)
(0.180851 -0.749138 0)
(0.198722 -0.761031 0)
(0.217847 -0.774599 0)
(0.238351 -0.79004 0)
(0.260392 -0.80759 0)
(0.284086 -0.827589 0)
(0.309704 -0.850685 0)
(0.337283 -0.878059 0)
(0.36683 -0.910486 0)
(0.00670139 -0.643081 0)
(0.0165893 -0.714284 0)
(0.0252878 -0.696719 0)
(0.0354522 -0.695922 0)
(0.0455772 -0.698316 0)
(0.0559791 -0.7013 0)
(0.0666234 -0.704973 0)
(0.0776193 -0.709395 0)
(0.0890168 -0.714597 0)
(0.10088 -0.720623 0)
(0.113276 -0.727528 0)
(0.12628 -0.735381 0)
(0.139977 -0.744278 0)
(0.15445 -0.754349 0)
(0.169782 -0.765772 0)
(0.186054 -0.778749 0)
(0.20334 -0.793508 0)
(0.221718 -0.810266 0)
(0.241305 -0.829269 0)
(0.262187 -0.850847 0)
(0.284605 -0.875652 0)
(0.30852 -0.9049 0)
(0.33398 -0.939464 0)
(0.00656089 -0.654855 0)
(0.0160436 -0.722913 0)
(0.0241862 -0.706145 0)
(0.0337717 -0.70574 0)
(0.0432589 -0.708318 0)
(0.0530413 -0.711534 0)
(0.0630257 -0.715491 0)
(0.0733216 -0.720251 0)
(0.0839595 -0.72585 0)
(0.0949882 -0.732337 0)
(0.106459 -0.73977 0)
(0.118431 -0.748222 0)
(0.130966 -0.757786 0)
(0.144123 -0.768594 0)
(0.15796 -0.780816 0)
(0.172532 -0.79465 0)
(0.18787 -0.810327 0)
(0.204002 -0.828085 0)
(0.220994 -0.848178 0)
(0.238885 -0.870941 0)
(0.25788 -0.897023 0)
(0.277866 -0.927671 0)
(0.298885 -0.96386 0)
(0.00648912 -0.666279 0)
(0.0154972 -0.731029 0)
(0.022964 -0.71494 0)
(0.0319552 -0.714913 0)
(0.0407705 -0.71766 0)
(0.0499053 -0.721084 0)
(0.0592086 -0.725285 0)
(0.0687845 -0.730331 0)
(0.078647 -0.73626 0)
(0.088828 -0.743124 0)
(0.0993622 -0.750984 0)
(0.11029 -0.75991 0)
(0.121647 -0.769996 0)
(0.133466 -0.781368 0)
(0.145782 -0.794187 0)
(0.15862 -0.808642 0)
(0.171971 -0.824955 0)
(0.185809 -0.843373 0)
(0.200139 -0.864162 0)
(0.214933 -0.887666 0)
(0.230352 -0.91453 0)
(0.246191 -0.946027 0)
(0.262433 -0.983222 0)
(0.00646399 -0.677457 0)
(0.0149002 -0.738558 0)
(0.0215697 -0.72312 0)
(0.0299604 -0.723468 0)
(0.0380752 -0.726377 0)
(0.046537 -0.729993 0)
(0.0551429 -0.734413 0)
(0.0639896 -0.739705 0)
(0.0730793 -0.745907 0)
(0.0824294 -0.753072 0)
(0.0920591 -0.761258 0)
(0.101986 -0.770536 0)
(0.112218 -0.780995 0)
(0.12276 -0.792757 0)
(0.133623 -0.805969 0)
(0.144799 -0.820804 0)
(0.156238 -0.837468 0)
(0.167864 -0.856198 0)
(0.17961 -0.877264 0)
(0.191372 -0.901019 0)
(0.203237 -0.928098 0)
(0.21487 -0.959776 0)
(0.226151 -0.997176 0)
(0.00646767 -0.688414 0)
(0.014212 -0.74536 0)
(0.0199603 -0.730673 0)
(0.0277463 -0.731401 0)
(0.0351221 -0.734473 0)
(0.0428755 -0.738276 0)
(0.0507567 -0.742902 0)
(0.0588581 -0.748412 0)
(0.0671752 -0.754844 0)
(0.0757134 -0.76225 0)
(0.0844796 -0.770686 0)
(0.0934705 -0.780219 0)
(0.102669 -0.790931 0)
(0.112055 -0.802932 0)
(0.121614 -0.816354 0)
(0.131307 -0.831351 0)
(0.141046 -0.848105 0)
(0.150705 -0.866828 0)
(0.160149 -0.887772 0)
(0.1692 -0.911289 0)
(0.177823 -0.937988 0)
(0.185535 -0.969078 0)
(0.192018 -1.00568 0)
(0.00649835 -0.698975 0)
(0.0134071 -0.751138 0)
(0.0180869 -0.737427 0)
(0.0252557 -0.738555 0)
(0.0318329 -0.741785 0)
(0.0388238 -0.745768 0)
(0.0459316 -0.750583 0)
(0.0532447 -0.756289 0)
(0.0607546 -0.762924 0)
(0.0684605 -0.77054 0)
(0.076365 -0.779185 0)
(0.0844532 -0.788912 0)
(0.0926905 -0.799793 0)
(0.101038 -0.811922 0)
(0.109463 -0.825416 0)
(0.117898 -0.840405 0)
(0.126222 -0.857039 0)
(0.134278 -0.875489 0)
(0.141877 -0.895972 0)
(0.14877 -0.918815 0)
(0.154785 -0.944561 0)
(0.159301 -0.974257 0)
(0.161689 -1.00894 0)
(0.00654563 -0.708929 0)
(0.0124632 -0.75556 0)
(0.0159058 -0.743163 0)
(0.0224277 -0.744715 0)
(0.0281348 -0.748074 0)
(0.0342885 -0.752216 0)
(0.040545 -0.757202 0)
(0.0469836 -0.763092 0)
(0.0535998 -0.769923 0)
(0.0603993 -0.777731 0)
(0.067389 -0.786549 0)
(0.074546 -0.796421 0)
(0.081824 -0.80741 0)
(0.0891743 -0.819597 0)
(0.0965566 -0.833073 0)
(0.103892 -0.847939 0)
(0.111046 -0.864304 0)
(0.117846 -0.882293 0)
(0.124076 -0.902067 0)
(0.129438 -0.923903 0)
(0.133639 -0.948215 0)
(0.135974 -0.975787 0)
(0.1355 -1.00748 0)
(0.00654318 -0.718422 0)
(0.0113483 -0.758662 0)
(0.013436 -0.74801 0)
(0.0192527 -0.74999 0)
(0.0240241 -0.753441 0)
(0.0292433 -0.757728 0)
(0.0345471 -0.762883 0)
(0.0400057 -0.768952 0)
(0.045631 -0.775957 0)
(0.0514362 -0.783923 0)
(0.0574218 -0.79288 0)
(0.0635524 -0.802869 0)
(0.0697805 -0.813943 0)
(0.0760669 -0.826159 0)
(0.0823803 -0.839582 0)
(0.0886419 -0.854279 0)
(0.0947158 -0.870324 0)
(0.100442 -0.88779 0)
(0.105605 -0.906767 0)
(0.109899 -0.927448 0)
(0.112964 -0.950068 0)
(0.114097 -0.975076 0)
(0.112186 -1.00302 0)
(0.00634559 -0.727977 0)
(0.0100133 -0.760968 0)
(0.0107946 -0.752549 0)
(0.015795 -0.754934 0)
(0.019582 -0.758477 0)
(0.0237784 -0.762904 0)
(0.0280578 -0.768216 0)
(0.0324768 -0.774437 0)
(0.0370482 -0.781592 0)
(0.0417737 -0.789709 0)
(0.0466429 -0.798816 0)
(0.0516238 -0.808939 0)
(0.0566834 -0.820109 0)
(0.061795 -0.832367 0)
(0.0669332 -0.845766 0)
(0.0720232 -0.860353 0)
(0.0769473 -0.876159 0)
(0.0815815 -0.893195 0)
(0.0857321 -0.911485 0)
(0.0891215 -0.931107 0)
(0.0913973 -0.952117 0)
(0.0919558 -0.974622 0)
(0.0897509 -0.998778 0)
(0.00576369 -0.73704 0)
(0.00838664 -0.762234 0)
(0.00814145 -0.75646 0)
(0.0121571 -0.759196 0)
(0.014964 -0.762837 0)
(0.0181231 -0.767379 0)
(0.0213734 -0.772812 0)
(0.0247319 -0.779164 0)
(0.0281952 -0.786468 0)
(0.0317679 -0.794741 0)
(0.0354535 -0.803994 0)
(0.0392271 -0.814237 0)
(0.043048 -0.825502 0)
(0.0468905 -0.837829 0)
(0.0507439 -0.851253 0)
(0.0545545 -0.865793 0)
(0.0582313 -0.881441 0)
(0.0616828 -0.898171 0)
(0.0647483 -0.915958 0)
(0.0671958 -0.934769 0)
(0.0687304 -0.954502 0)
(0.0688935 -0.97499 0)
(0.0669227 -0.996046 0)
(0.0046679 -0.74218 0)
(0.00640997 -0.759728 0)
(0.00560825 -0.756718 0)
(0.00848473 -0.759686 0)
(0.0103867 -0.763402 0)
(0.012551 -0.768012 0)
(0.0147847 -0.773522 0)
(0.0170772 -0.779956 0)
(0.0194361 -0.787337 0)
(0.0218801 -0.795672 0)
(0.0244025 -0.804969 0)