/*--------------------------------*- C++ -*----------------------------------*\
| =========                 |                                                 |
| \\      /  F ield         | OpenFOAM: The Open Source CFD Toolbox           |
|  \\    /   O peration     | Version:  2206                                  |
|   \\  /    A nd           | Website:  www.openfoam.com                      |
|    \\/     M anipulation  |                                                 |
\*---------------------------------------------------------------------------*/
FoamFile
{
    version     2.0;
    format      ascii;
    arch        "LSB;label=32;scalar=64";
    class       surfaceScalarField;
    location    "0.25";
    object      alphaPhi0.water;
}
// * * * * * * * * * * * * * * * * * * * * * * * * * * * * * * * * * * * * * //

dimensions      [0 3 -1 0 0 0 0];

oriented        oriented;

internalField   nonuniform List<scalar> 
4432
(
4.94905e-07
-4.94905e-07
5.13779e-06
-4.64288e-06
1.1309e-05
-6.17118e-06
1.72954e-05
-5.98641e-06
2.25635e-05
-5.26813e-06
2.72017e-05
-4.6382e-06
3.14613e-05
-4.25961e-06
3.55465e-05
-4.0852e-06
3.9554e-05
-4.00746e-06
4.34802e-05
-3.9262e-06
4.72495e-05
-3.76932e-06
5.07352e-05
-3.48572e-06
5.37693e-05
-3.03406e-06
5.61034e-05
-2.3341e-06
5.73812e-05
-1.2778e-06
5.67148e-05
6.66375e-07
5.24378e-05
4.277e-06
4.28746e-05
9.56321e-06
2.68861e-05
1.59885e-05
5.93913e-06
2.09469e-05
-9.93934e-06
1.784e-05
-1.47669e-05
4.64058e-06
-1.49528e-05
5.56197e-07
-1.05111e-06
5.23077e-06
-9.31745e-06
1.14076e-05
-1.2348e-05
1.73882e-05
-1.1967e-05
2.26494e-05
-1.05293e-05
2.72915e-05
-9.2803e-06
3.15726e-05
-8.54075e-06
3.5694e-05
-8.20656e-06
3.97462e-05
-8.05961e-06
4.37222e-05
-7.9023e-06
4.75468e-05
-7.59387e-06
5.10966e-05
-7.03558e-06
5.42019e-05
-6.13929e-06
5.66659e-05
-4.79818e-06
5.82417e-05
-2.85357e-06
5.89999e-05
-9.17776e-08
5.92567e-05
4.0202e-06
5.79917e-05
1.08282e-05
5.22697e-05
2.17105e-05
3.82847e-05
3.4932e-05
1.7106e-05
3.92866e-05
1.72776e-06
2.11723e-05
-1.46532e-05
6.56516e-07
-1.70762e-06
5.36969e-06
-1.40306e-05
1.15112e-05
-1.84895e-05
1.74156e-05
-1.78714e-05
2.26063e-05
-1.572e-05
2.72109e-05
-1.38849e-05
3.14937e-05
-1.28236e-05
3.56471e-05
-1.23599e-05
3.97491e-05
-1.21617e-05
4.37856e-05
-1.19388e-05
4.76799e-05
-1.14882e-05
5.13121e-05
-1.06678e-05
5.45252e-05
-9.35238e-06
5.71258e-05
-7.39874e-06
5.88807e-05
-4.6085e-06
5.95012e-05
-7.12303e-07
5.88749e-05
4.64652e-06
5.7542e-05
1.21611e-05
5.6181e-05
2.30715e-05
5.25827e-05
3.85303e-05
4.06898e-05
5.11794e-05
1.99598e-05
4.19036e-05
3.63818e-06
8.08692e-07
-2.51631e-06
5.58554e-06
-1.88075e-05
1.16725e-05
-2.45765e-05
1.74613e-05
-2.36602e-05
2.25518e-05
-2.08105e-05
2.71113e-05
-1.84445e-05
3.14069e-05
-1.71191e-05
3.56146e-05
-1.65676e-05
3.97949e-05
-1.6342e-05
4.39235e-05
-1.60674e-05
4.79229e-05
-1.54876e-05
5.16787e-05
-1.44236e-05
5.5045e-05
-1.27187e-05
5.78426e-05
-1.01964e-05
5.98565e-05
-6.62238e-06
6.08315e-05
-1.68727e-06
6.04867e-05
4.99129e-06
5.87884e-05
1.38593e-05
5.66429e-05
2.52171e-05
5.51549e-05
4.00182e-05
4.93655e-05
5.69689e-05
3.06014e-05
6.06677e-05
3.30318e-05
1.01175e-06
-3.52806e-06
5.86453e-06
-2.36602e-05
1.18692e-05
-3.05812e-05
1.75042e-05
-2.92952e-05
2.247e-05
-2.57763e-05
2.69809e-05
-2.29554e-05
3.13007e-05
-2.14389e-05
3.55812e-05
-2.0848e-05
3.98604e-05
-2.06212e-05
4.41034e-05
-2.03103e-05
4.82326e-05
-1.96168e-05
5.21418e-05
-1.83328e-05
5.56991e-05
-1.6276e-05
5.87439e-05
-1.32412e-05
6.10822e-05
-8.9607e-06
6.24829e-05
-3.08799e-06
6.26908e-05
4.78338e-06
6.14958e-05
1.50544e-05
5.88155e-05
2.78973e-05
5.57868e-05
4.3047e-05
5.10225e-05
6.17332e-05
3.49645e-05
7.67258e-05
6.67356e-05
1.26096e-06
-4.78902e-06
6.19004e-06
-2.85893e-05
1.20797e-05
-3.64709e-05
1.75275e-05
-3.4743e-05
2.23528e-05
-3.06016e-05
2.68173e-05
-2.74199e-05
3.11732e-05
-2.57947e-05
3.55404e-05
-2.52152e-05
3.9932e-05
-2.50129e-05
4.43026e-05
-2.46809e-05
4.85774e-05
-2.38916e-05
5.26616e-05
-2.2417e-05
5.64405e-05
-2.00549e-05
5.97738e-05
-1.65745e-05
6.24859e-05
-1.16728e-05
6.43581e-05
-4.96019e-06
6.51323e-05
4.00921e-06
6.45845e-05
1.56022e-05
6.22974e-05
3.01845e-05
5.81371e-05
4.72073e-05
5.20397e-05
6.78306e-05
3.70041e-05
9.17615e-05
0.000102482
1.5475e-06
-6.33652e-06
6.54612e-06
-3.3588e-05
1.22859e-05
-4.22106e-05
1.75204e-05
-3.99776e-05
2.21995e-05
-3.52807e-05
2.6626e-05
-3.18463e-05
3.10301e-05
-3.01988e-05
3.5494e-05
-2.96792e-05
4.00051e-05
-2.95239e-05
4.45098e-05
-2.91856e-05
4.89399e-05
-2.83218e-05
5.32162e-05
-2.66933e-05
5.72431e-05
-2.40817e-05
6.08989e-05
-2.02303e-05
6.40235e-05
-1.47974e-05
6.64118e-05
-7.34845e-06
6.7789e-05
2.63203e-06
6.79086e-05
1.54825e-05
6.63718e-05
3.17213e-05
6.23841e-05
5.11949e-05
5.51922e-05
7.50225e-05
4.14551e-05
0.000105499
0.000145512
1.85843e-06
-8.19495e-06
6.91073e-06
-3.86403e-05
1.24718e-05
-4.77716e-05
1.74839e-05
-4.49897e-05
2.20243e-05
-3.98211e-05
2.64264e-05
-3.62484e-05
3.08895e-05
-3.46619e-05
3.54553e-05
-3.4245e-05
4.00877e-05
-3.41563e-05
4.47298e-05
-3.38277e-05
4.93264e-05
-3.29184e-05
5.38169e-05
-3.11838e-05
5.81228e-05
-2.83876e-05
6.21378e-05
-2.42453e-05
6.5714e-05
-1.83736e-05
6.8659e-05
-1.02935e-05
7.06785e-05
6.12559e-07
7.15149e-05
1.46461e-05
7.0837e-05
3.23992e-05
6.79109e-05
5.4121e-05
6.07469e-05
8.21865e-05
4.68416e-05
0.000119404
0.000193144
2.57639e-24
-5.86274e-23
7.58415e-25
-3.44146e-24
3.33466e-26
-1.16523e-25
2.90346e-27
-7.07126e-27
2.78448e-28
-9.54492e-28
1.80822e-29
-1.18788e-28
8.0518e-31
-5.71129e-30
2.32701e-32
-1.31992e-31
2.88424e-34
-6.76303e-34
8.35606e-36
3.22009e-36
3.05262e-37
2.00737e-37
8.991e-39
1.06157e-38
2.38123e-40
4.43997e-40
5.3082e-42
1.54576e-41
9.37465e-44
4.40226e-43
1.20186e-45
1.00494e-44
1.26826e-47
1.71406e-46
3.87109e-48
1.90369e-48
2.9138e-50
7.94921e-23
-5.36551e-22
9.43288e-23
-3.69699e-22
4.86589e-24
-3.3793e-23
3.83266e-25
-2.45692e-24
4.65753e-26
-1.41366e-25
3.08078e-27
-1.87467e-26
1.36154e-28
-1.00394e-27
3.90265e-30
-2.34983e-29
6.38603e-32
-1.5491e-31
1.9284e-33
2.1302e-33
6.94404e-35
1.5272e-34
2.13888e-36
8.83099e-36
6.00025e-38
3.96359e-37
1.42826e-39
1.47617e-38
2.69869e-41
4.52236e-40
3.70673e-43
1.10524e-41
3.15856e-45
2.0205e-43
1.87721e-47
2.42624e-45
1.49593e-47
5.75792e-21
-4.70745e-20
7.6661e-21
-3.80235e-20
4.1556e-22
-3.71982e-21
2.76272e-23
-2.65144e-22
3.48184e-24
-1.35817e-23
2.57652e-25
-1.53335e-24
1.21587e-26
-9.54053e-26
3.46371e-28
-2.41254e-27
5.61059e-30
-1.73303e-29
1.53155e-31
2.75563e-31
5.8825e-33
1.91346e-32
1.79478e-34
1.11013e-33
4.98839e-36
4.97011e-35
1.17517e-37
1.84083e-36
2.19651e-39
5.60127e-38
3.21943e-41
1.35685e-39
3.38245e-43
2.4616e-41
2.33729e-45
2.94137e-43
1.80955e-45
2.92491e-19
-2.24675e-18
3.69048e-19
-1.89705e-18
2.03231e-20
-2.51726e-19
1.40485e-21
-1.67984e-20
1.65832e-22
-8.78156e-22
1.46783e-23
-7.88709e-23
7.91907e-25
-6.2613e-24
2.34473e-26
-1.8184e-25
3.45035e-28
-1.42911e-27
8.80976e-30
2.21901e-29
3.56174e-31
1.4843e-30
1.07606e-32
8.67693e-32
3.01459e-34
3.92942e-33
7.13885e-36
1.46701e-34
1.47325e-37
4.49278e-36
2.46261e-39
1.09933e-37
2.68583e-41
2.01316e-39
1.91204e-43
2.42533e-41
1.50368e-43
9.12109e-18
-2.76132e-17
1.00186e-17
-2.02424e-17
8.42075e-19
-7.57724e-18
5.41347e-20
-8.23282e-19
5.86291e-21
-4.16893e-20
6.28443e-22
-2.99639e-21
4.02299e-23
-2.99883e-22
1.32968e-24
-1.04871e-23
1.81828e-26
-9.40536e-26
4.17475e-28
1.29074e-27
1.79209e-29
8.76174e-29
5.35159e-31
5.22124e-30
1.52279e-32
2.40468e-31
3.85315e-34
9.11397e-33
9.05415e-36
2.84031e-34
1.54918e-37
7.08278e-36
1.7437e-39
1.31808e-37
1.25963e-41
1.61317e-39
1.01543e-41
2.46833e-16
-1.108e-15
2.18754e-16
-4.10107e-16
1.51101e-17
4.64188e-17
1.68319e-18
-1.35839e-17
1.48993e-19
-1.86605e-18
2.14985e-20
-1.07905e-19
1.64188e-21
-1.09024e-20
6.31222e-23
-4.78602e-22
9.04608e-25
-4.98805e-24
1.76593e-26
6.33256e-26
7.68929e-28
4.38218e-27
2.38284e-29
2.67973e-28
6.91602e-31
1.26108e-29
2.05019e-32
4.87617e-31
4.89207e-34
1.56123e-32
8.62277e-36
3.97626e-34
1.00348e-37
7.55381e-36
7.31587e-40
9.43833e-38
6.05717e-40
4.68692e-15
-2.54502e-14
5.07175e-15
-7.7376e-15
2.42321e-16
3.70762e-15
3.70045e-17
6.76577e-17
5.62521e-18
-3.67914e-17
5.7672e-19
-3.30209e-18
5.39139e-20
-3.36629e-19
2.5549e-21
-1.90564e-20
4.03383e-23
-2.42213e-22
6.86344e-25
2.74238e-24
3.07302e-26
1.96148e-25
9.85483e-28
1.23522e-26
3.1656e-29
5.96197e-28
9.97051e-31
2.37279e-29
2.4386e-32
7.81791e-31
4.44215e-34
2.04125e-32
5.3483e-36
3.97495e-34
3.93622e-38
5.091e-36
3.34324e-38
1.40353e-13
-5.5352e-13
1.07697e-13
-1.17545e-13
9.14559e-15
8.38494e-14
1.32982e-15
5.75553e-15
1.99098e-16
8.3859e-16
2.57843e-17
7.71014e-17
2.12581e-18
4.22843e-18
1.00158e-19
4.36239e-20
1.64859e-21
1.71181e-21
2.60938e-23
1.11469e-22
1.21609e-24
8.36945e-24
4.02166e-26
5.45674e-25
1.43454e-27
2.70995e-26
4.6926e-29
1.11858e-27
1.19477e-30
3.80036e-29
2.25652e-32
1.02254e-30
2.81449e-34
2.04974e-32
2.08389e-36
2.70138e-34
1.81968e-36
4.92476e-06
-1.31197e-05
1.58942e-05
-4.96097e-05
2.70978e-05
-5.89753e-05
3.70016e-05
-5.48935e-05
4.62656e-05
-4.90851e-05
5.56237e-05
-4.56066e-05
6.53452e-05
-4.43834e-05
7.53951e-05
-4.42949e-05
8.56523e-05
-4.44134e-05
9.60176e-05
-4.4193e-05
0.000106435
-4.33354e-05
0.000116823
-4.15719e-05
0.000127051
-3.86163e-05
0.000136967
-3.41604e-05
0.00014633
-2.77371e-05
0.000154757
-1.87208e-05
0.000161658
-6.28785e-06
0.000166035
1.02689e-05
0.000167681
3.07528e-05
0.000166077
5.57252e-05
0.000161054
8.72096e-05
0.000160553
0.000119905
0.000182563
0.000171134
6.33877e-06
-1.94585e-05
1.73587e-05
-6.06296e-05
2.76563e-05
-6.92729e-05
3.66822e-05
-6.39194e-05
4.55713e-05
-5.79742e-05
5.50127e-05
-5.50479e-05
6.50699e-05
-5.44406e-05
7.55731e-05
-5.47981e-05
8.6385e-05
-5.52253e-05
9.74683e-05
-5.52763e-05
0.000108839
-5.47066e-05
0.000120422
-5.31546e-05
0.000132125
-5.03196e-05
0.000144046
-4.60808e-05
0.000156163
-3.98539e-05
0.000168192
-3.075e-05
0.000179692
-1.77881e-05
0.00018871
1.25203e-06
0.000196308
2.31542e-05
0.000201342
5.06919e-05
0.000207558
8.09936e-05
0.000219393
0.000108069
0.000155099
0.000246857
7.73136e-06
-2.71898e-05
1.8622e-05
-7.15203e-05
2.79103e-05
-7.85611e-05
3.61668e-05
-7.21758e-05
4.48538e-05
-6.66612e-05
5.44571e-05
-6.46511e-05
6.4806e-05
-6.47895e-05
7.56396e-05
-6.56316e-05
8.68486e-05
-6.64342e-05
9.84468e-05
-6.68743e-05
0.000110455
-6.67149e-05
0.000122775
-6.54742e-05
0.000135638
-6.31812e-05
0.000149833
-6.02751e-05
0.000165368
-5.53881e-05
0.000181725
-4.71084e-05
0.000196816
-3.2882e-05
0.000211535
-1.34664e-05
0.000223217
1.14724e-05
0.000231122
4.27875e-05
0.000240886
7.12292e-05
0.000252442
9.65137e-05
0.000127905
0.000279636
9.0376e-06
-3.62274e-05
1.95709e-05
-8.20534e-05
2.78216e-05
-8.68114e-05
3.5477e-05
-7.98308e-05
4.40809e-05
-7.52648e-05
5.37765e-05
-7.43463e-05
6.41578e-05
-7.51702e-05
7.49152e-05
-7.6388e-05
8.59752e-05
-7.74926e-05
9.73675e-05
-7.82638e-05
0.000109178
-7.85195e-05
0.000121606
-7.7893e-05
0.000135755
-7.73178e-05
0.000153259
-7.77496e-05
0.000171188
-7.33089e-05
0.000186545
-6.01475e-05
0.000194704
-3.60008e-05
0.000205876
-1.68727e-05
0.00021826
-2.60946e-08
0.000238125
2.14647e-05
0.000257738
5.16153e-05
0.000270651
8.36009e-05
0.000107741
0.000290816
1.03118e-05
-4.65391e-05
2.00997e-05
-9.18381e-05
2.71922e-05
-9.38991e-05
3.43186e-05
-8.69531e-05
4.27462e-05
-8.36884e-05
5.21657e-05
-8.37615e-05
6.19753e-05
-8.49716e-05
7.19038e-05
-8.63017e-05
8.20125e-05
-8.75775e-05
9.24399e-05
-8.86553e-05
0.000103831
-8.9831e-05
0.000117324
-9.12393e-05
0.000130506
-8.74776e-05
0.000125425
-5.5559e-05
8.91963e-05
-1.76148e-05
5.17092e-05
-4.93246e-06
3.18572e-05
-1.23849e-06
2.42146e-05
-3.41438e-07
2.40936e-05
-8.92178e-08
4.33284e-05
8.93065e-07
8.98802e-05
1.98148e-06
0.000161765
5.03739e-06
2.09018e-05
0.000229373
1.1639e-05
-5.8175e-05
2.00578e-05
-0.000100217
2.56468e-05
-9.94424e-05
3.2124e-05
-9.33885e-05
4.00383e-05
-9.1559e-05
4.86241e-05
-9.22967e-05
5.72763e-05
-9.35312e-05
6.61148e-05
-9.49716e-05
7.5848e-05
-9.70394e-05
8.56312e-05
-9.44372e-05
8.86587e-05
-7.41964e-05
7.31256e-05
-3.50716e-05
3.84885e-05
-8.49024e-06
2.34734e-05
-2.01836e-06
6.35623e-06
-4.06818e-07
1.53162e-06
-8.51455e-08
3.56331e-07
-1.59672e-08
1.62632e-07
-7.77954e-08
1.91548e-07
-6.13264e-08
1.11514e-06
-1.66565e-08
2.84202e-06
2.07336e-07
7.22719e-06
5.82804e-07
1.48479e-06
2.44563e-05
1.34242e-05
-7.15426e-05
1.94775e-05
-0.000105891
2.28696e-05
-0.000102435
2.87223e-05
-9.88505e-05
3.61935e-05
-9.86015e-05
4.41605e-05
-9.57143e-05
5.05062e-05
-8.33817e-05
5.33378e-05
-6.45886e-05
4.87834e-05
-3.98965e-05
3.17783e-05
-8.03407e-06
1.47925e-05
-1.50211e-06
1.09326e-05
-2.69096e-07
2.50982e-06
-5.38292e-08
5.0697e-07
-1.3412e-08
1.06122e-07
-5.68205e-09
2.47236e-08
-2.26468e-09
3.74247e-08
-5.34401e-09
1.49592e-07
-9.71279e-08
3.92997e-07
-2.4595e-07
3.83315e-07
-8.88052e-08
4.7431e-07
2.79421e-08
9.2515e-07
6.86126e-08
1.68853e-07
2.21243e-06
1.58687e-05
-6.9459e-05
1.56642e-05
-5.00018e-05
1.64702e-05
-4.428e-05
1.97337e-05
-3.98745e-05
2.18052e-05
-3.13078e-05
2.01834e-05
-6.30313e-06
1.53143e-05
-5.72086e-07
9.01056e-06
-6.46012e-08
9.85964e-06
-8.7616e-09
1.82905e-06
-1.30682e-09
3.28535e-07
-4.96314e-10
6.57301e-08
-5.41596e-09
1.95292e-08
-7.71685e-09
1.09398e-08
-6.24953e-09
8.46833e-09
-3.67217e-09
7.35393e-09
-1.60953e-09
8.81608e-08
-8.46719e-08
5.06878e-07
-2.51016e-07
6.47382e-07
-3.21216e-07
6.35734e-07
-1.71811e-07
1.32536e-07
1.66166e-08
1.63268e-07
1.08979e-08
1.97504e-08
3.02129e-07
6.7735e-06
1.19593e-22
2.09544e-06
-3.21611e-23
2.43607e-06
-4.08793e-21
2.20027e-06
-2.6295e-19
2.97099e-06
-8.80096e-18
6.46955e-07
-1.71819e-16
7.48683e-08
-6.13795e-16
1.0267e-08
-2.07308e-15
1.5116e-09
-4.38036e-15
2.04966e-10
-2.49902e-14
4.97043e-10
-3.16196e-10
2.12474e-09
-6.03906e-09
7.98409e-09
-1.24488e-08
1.10355e-08
-9.23885e-09
1.09117e-08
-4.37858e-09
9.82258e-09
-9.88844e-10
4.10894e-07
-8.68056e-08
5.01825e-07
-2.76708e-07
5.39295e-07
-2.93447e-07
4.05688e-07
-1.18034e-07
2.81206e-08
2.12425e-09
3.23618e-08
2.2747e-09
1.8058e-09
5.0771e-08
-1.33312e-23
2.32018e-23
1.11668e-24
-4.6609e-23
2.09897e-22
-4.27097e-21
1.75426e-20
-2.77987e-19
6.97733e-19
-9.3399e-18
1.56576e-17
-1.8158e-16
8.69348e-17
-5.75269e-16
3.593e-16
-1.91372e-15
1.06504e-15
-4.1362e-15
2.69015e-14
-4.80491e-14
1.22157e-09
-1.52594e-09
1.20127e-08
-1.65878e-08
4.35455e-08
-8.2772e-08
3.3101e-08
-7.0744e-08
2.6797e-08
-6.49979e-09
2.5471e-08
-1.48824e-10
4.04801e-07
-7.67934e-08
4.3575e-07
-2.50469e-07
3.82143e-07
-1.74602e-07
1.81937e-08
-3.57705e-08
1.62264e-09
-3.37521e-11
4.00355e-09
5.84951e-11
1.04041e-10
5.80141e-09
-3.88164e-25
4.65401e-23
1.00818e-23
-9.69973e-23
1.54458e-21
-8.18761e-21
1.143e-19
-4.65904e-19
4.50017e-18
-1.80628e-17
1.20291e-16
-5.8651e-16
4.18178e-16
-1.88402e-15
1.52399e-15
-3.71976e-15
1.01877e-14
-1.23811e-14
2.11047e-13
-2.50215e-13
7.66933e-09
-9.18881e-09
5.70984e-08
-9.95086e-08
1.09172e-07
-1.23667e-07
9.63748e-08
-7.63372e-08
3.51649e-08
-6.4333e-09
3.54206e-08
2.41113e-10
3.28394e-07
-8.6193e-08
3.3423e-07
-1.68117e-07
5.95686e-08
-7.14157e-08
5.08141e-10
-2.22929e-09
3.02446e-10
-1.52769e-10
3.54513e-10
-3.18549e-11
-5.54567e-11
7.80299e-10
-1.64736e-24
8.60306e-23
7.00357e-23
-6.9719e-22
1.06106e-20
-6.79001e-20
8.15544e-19
-3.91782e-18
3.1522e-17
-1.20443e-16
5.14473e-16
-1.48391e-15
1.50478e-15
-3.99768e-15
5.4058e-15
-2.42765e-14
3.98607e-14
-4.70473e-14
9.6252e-13
-1.17512e-12
2.63436e-08
-3.15576e-08
6.59493e-08
-1.27783e-07
7.44433e-08
-1.20983e-07
5.89068e-08
-5.4433e-08
2.36906e-08
-6.47452e-09
1.06113e-07
-1.51023e-08
2.28429e-07
-1.17109e-07
1.18123e-07
-1.0009e-07
2.32005e-09
-4.00888e-09
2.311e-10
-2.69849e-10
1.0009e-10
-3.10672e-11
7.73555e-11
-5.9374e-12
-1.55458e-11
5.82834e-10
-5.2362e-24
1.53513e-22
2.02176e-22
-1.76182e-21
3.23716e-20
-2.1893e-19
2.73816e-18
-1.465e-17
7.63044e-17
-3.29052e-16
5.63397e-16
-1.992e-15
1.52246e-15
-4.90783e-15
1.01331e-14
-5.09629e-14
1.18621e-13
-1.68869e-13
3.5066e-12
-4.56513e-12
2.89784e-08
-1.65221e-08
2.56162e-08
-1.00445e-07
2.40886e-08
-1.11975e-07
1.57133e-08
-7.01349e-08
1.40861e-08
-2.31666e-08
1.08751e-07
-7.54242e-08
1.28439e-07
-1.82869e-08
4.31408e-09
-1.87856e-10
3.05422e-10
-2.11835e-12
3.51853e-11
-4.07179e-13
1.21049e-11
-6.11075e-12
1.28251e-11
-2.44105e-12
-1.09624e-10
3.04097e-10
-8.73424e-24
2.59628e-22
2.52502e-22
-2.40618e-21
4.60797e-20
-3.74366e-19
4.50287e-18
-3.32202e-17
8.96299e-17
-6.04396e-16
3.57262e-16
-2.26855e-15
8.13468e-16
-5.13409e-15
7.86045e-15
-5.0997e-14
9.78688e-14
-2.75744e-13
1.20724e-11
-1.65265e-11
5.14918e-11
-1.06207e-09
-6.47855e-09
-8.90767e-09
-1.5289e-08
-9.54247e-08
-1.77389e-09
-7.60616e-08
-1.48713e-08
-3.96296e-08
3.99412e-09
-2.0596e-08
1.86698e-10
-7.24893e-14
1.74452e-12
-1.98801e-12
2.40876e-13
-1.25272e-12
3.48408e-13
-1.80299e-12
3.7185e-12
-5.69033e-12
1.34208e-11
-8.37318e-12
-5.31449e-12
1.61327e-10
-1.05362e-23
4.14164e-22
1.87389e-22
-2.34083e-21
3.69491e-20
-3.9075e-19
4.22619e-18
-4.80583e-17
5.95451e-17
-7.8288e-16
1.21676e-16
-2.36179e-15
3.25515e-17
-4.97018e-15
3.24682e-15
-2.65983e-14
2.1293e-13
-4.56698e-13
-7.79785e-12
-8.45616e-12
-8.7809e-10
-1.89786e-10
-8.33975e-09
-1.39575e-09
-4.68463e-08
-2.28337e-08
-4.67297e-08
-3.95845e-08
-2.71122e-08
-2.02291e-08
-7.08303e-14
-2.0191e-14
-9.64487e-14
-4.56242e-14
-3.69554e-14
-3.34182e-13
3.83297e-13
-6.92726e-13
1.36649e-12
-1.01912e-12
2.74151e-12
-2.43149e-12
9.96735e-12
-5.09411e-12
-5.99982e-12
1.0831e-11
-9.66608e-24
6.20662e-22
8.24422e-23
-1.12251e-21
1.63696e-20
-2.97928e-19
1.70872e-18
-4.79136e-17
9.06213e-18
-7.71149e-16
-4.76264e-17
-2.28162e-15
-2.72202e-16
-4.29179e-15
1.96657e-15
-3.12482e-14
4.31552e-13
-1.47019e-12
-1.32744e-12
-6.89297e-12
-1.69328e-10
-2.18925e-11
-1.5561e-09
-8.41316e-12
-2.44978e-08
-7.9651e-13
-2.90276e-08
-6.851e-16
-1.10469e-14
-4.96439e-15
-2.60034e-14
-1.033e-14
-3.62861e-14
-3.83802e-14
-2.9564e-14
-8.73343e-14
2.91624e-14
-9.89528e-14
2.03532e-13
-3.01158e-13
8.21804e-13
-1.62126e-12
3.74804e-12
-6.72242e-12
-7.36803e-12
5.81931e-12
-5.68163e-24
8.61672e-22
6.99579e-24
4.41194e-22
-2.27237e-22
-9.18809e-20
-2.4798e-18
-3.27838e-17
-3.43636e-17
-5.38402e-16
-1.19466e-16
-1.62837e-15
-1.74388e-16
-2.5484e-15
2.02382e-15
-2.67999e-14
-1.47372e-12
-1.25268e-12
-2.67119e-12
-1.26509e-11
-8.3443e-13
-2.51829e-11
-1.18793e-13
-9.04429e-12
-1.11496e-16
-9.34309e-13
-6.21567e-16
-1.01511e-16
-4.2134e-15
-1.26197e-15
-1.46092e-14
-5.8414e-15
-2.10211e-14
-2.85351e-14
-1.17858e-14
-5.35309e-14
-5.64496e-15
-7.8827e-14
2.93406e-14
-1.59697e-13
4.63276e-13
-1.39003e-12
1.43433e-12
-8.58526e-12
-9.42009e-12
3.35731e-12
1.66669e-25
1.07713e-21
-8.06058e-22
2.91993e-21
-2.21779e-20
-1.81557e-20
-3.64557e-18
-6.32603e-18
-3.3558e-17
-1.38789e-16
-1.00309e-16
-6.79523e-16
-1.41144e-16
-2.35299e-15
-1.76038e-14
-8.72918e-15
-1.67002e-12
-2.35309e-13
-3.60155e-12
-1.21927e-11
-5.9832e-12
-1.68757e-11
-2.58668e-12
-1.22574e-11
-3.44742e-16
-2.72268e-12
-3.44318e-16
-6.24164e-17
-1.02392e-15
-5.08362e-16
-5.4048e-15
-4.95328e-15
-9.41987e-15
-1.51918e-14
-1.12254e-14
-3.04437e-14
-7.42865e-15
-6.08868e-14
1.23824e-15
-1.36632e-13
-5.54114e-15
-5.66459e-13
3.02585e-13
-3.08997e-12
-7.64093e-12
1.26891e-12
1.8239e-23
1.13468e-21
-3.62099e-22
6.52229e-21
-1.4469e-20
-7.20155e-22
-7.0653e-19
-3.28564e-19
-8.75296e-18
-1.60321e-17
-1.30366e-16
-2.46234e-16
-2.66114e-16
-2.76309e-15
-2.29613e-16
-9.38449e-15
-9.599e-14
-1.69102e-14
-2.79789e-12
-8.56314e-13
-4.59193e-12
-9.43669e-12
-2.71152e-12
-8.21233e-12
-2.08508e-16
-4.80431e-17
-2.12727e-16
-3.93961e-17
-6.0542e-16
-2.10543e-16
-2.48395e-15
-2.21183e-15
-4.72178e-15
-7.38009e-15
-7.20715e-15
-1.63051e-14
-1.12227e-14
-3.49415e-14
-1.76016e-14
-8.98626e-14
-1.50868e-14
-2.93699e-13
9.66992e-14
-1.51922e-12
-8.11031e-12
1.47376e-12
6.74246e-23
8.97083e-22
-1.21185e-23
6.87089e-21
-7.01038e-21
6.27811e-21
-3.32919e-20
-9.91172e-21
-1.29355e-18
-9.39424e-19
-8.82163e-17
-8.27123e-17
-8.714e-16
-2.30049e-15
-1.25607e-15
-8.27181e-15
-5.28465e-15
-9.51532e-15
-8.55085e-13
-5.89929e-15
-1.04856e-12
-2.30939e-15
-2.29963e-17
-4.82166e-16
-1.45561e-17
-3.88697e-17
-1.90853e-17
-2.47949e-17
-1.78277e-16
-4.88784e-17
-9.48262e-16
-4.39162e-16
-2.24196e-15
-1.95936e-15
-4.08865e-15
-5.96939e-15
-7.91542e-15
-1.66426e-14
-1.34876e-14
-5.23037e-14
-1.05949e-15
-1.99307e-13
3.6355e-13
-1.24234e-12
-8.39258e-12
2.67644e-12
9.02896e-23
4.61959e-22
1.74648e-22
3.99138e-21
-5.42687e-22
7.79496e-21
-8.59251e-21
-1.8619e-21
-5.20389e-19
-1.55742e-19
-4.60045e-17
-1.4206e-17
-8.18911e-16
-4.54574e-16
-1.20627e-15
-3.41501e-15
-1.95553e-16
-6.99037e-15
-5.81209e-17
-5.72301e-15
-2.53305e-17
-2.31491e-15
-1.17458e-17
-4.92336e-16
-6.82421e-18
-6.44284e-17
-7.27216e-18
-1.72074e-17
-2.51452e-17
-8.82699e-18
-1.66511e-16
-3.58402e-17
-6.05682e-16
-3.14845e-16
-1.7122e-15
-1.72833e-15
-4.69219e-15
-7.67724e-15
-1.04694e-14
-3.16853e-14
9.99571e-15
-1.51965e-13
3.59321e-13
-1.10548e-12
-7.47904e-12
2.09861e-12
6.05074e-23
1.32036e-22
2.4601e-22
1.12001e-21
-1.18016e-22
2.14094e-21
-1.45222e-21
-5.27688e-22
-1.01301e-19
-4.25305e-20
-4.55099e-18
-3.98153e-18
-1.26534e-16
-1.02897e-16
-8.69034e-16
-6.85423e-16
-1.05843e-15
-1.63344e-15
-4.09383e-16
-1.40741e-15
-1.76045e-16
-1.42906e-15
-3.43751e-17
-4.7662e-16
-6.82902e-18
-7.89031e-17
-1.79995e-18
-1.10213e-17
-2.27659e-18
-2.34935e-18
-1.53881e-17
-5.08922e-18
-1.18181e-16
-5.10369e-17
-6.47732e-16
-5.20133e-16
-2.79725e-15
-3.59618e-15
-8.67383e-15
-2.02777e-14
1.7307e-14
-1.24981e-13
5.24874e-13
-9.74236e-13
-7.9481e-12
5.27277e-12
1.86315e-23
1.94949e-23
7.34826e-23
1.70194e-22
-3.43065e-23
3.75983e-22
-5.30701e-22
-3.12933e-23
-3.47021e-20
-2.35078e-21
-1.19056e-18
-1.481e-19
-2.66421e-17
-1.13334e-17
-1.37339e-16
-1.90631e-16
-2.76801e-16
-6.48679e-16
-2.99589e-16
-9.49347e-16
-1.81971e-16
-9.51282e-16
-3.87753e-17
-3.98704e-16
-4.56972e-18
-6.94834e-17
-4.49486e-19
-5.24337e-18
-5.05046e-19
-1.54292e-19
-1.96532e-18
-1.14391e-18
-2.54768e-17
-1.51002e-17
-2.50611e-16
-1.86729e-16
-1.70403e-15
-1.82425e-15
-5.88872e-15
-1.48529e-14
5.46673e-14
-1.23945e-13
8.57575e-13
-1.18185e-12
-1.06972e-11
8.30676e-12
3.01347e-24
-1.29731e-31
1.36596e-23
-4.34591e-29
-1.89563e-24
-7.05004e-27
-3.24658e-23
-7.23062e-25
-2.16304e-21
-5.16985e-23
-1.26296e-19
-3.22077e-21
-4.80366e-18
-1.84272e-19
-4.84996e-17
-1.14259e-17
-1.1165e-16
-7.52943e-17
-1.5455e-16
-1.4131e-16
-1.1202e-16
-1.50031e-16
-2.73029e-17
-7.02164e-17
-2.1558e-18
-2.6511e-17
-2.6681e-20
-2.25029e-18
-4.34884e-20
-1.75678e-20
-5.35866e-19
-3.52031e-19
-8.17109e-18
-6.03163e-18
-1.06827e-16
-8.36685e-17
-1.01004e-15
-1.03048e-15
-3.75372e-15
-1.06388e-14
2.26769e-14
-1.09884e-13
2.02304e-13
-1.09493e-12
-1.0143e-11
1.87678e-12
-1.29449e-31
-2.82216e-34
-4.34956e-29
-9.29472e-32
-7.07856e-27
-1.4972e-29
-7.46247e-25
-8.88966e-28
-5.22799e-23
-6.34173e-26
-3.25486e-21
-3.93585e-24
-1.44004e-19
-2.09385e-22
-3.78563e-18
-1.47059e-20
-1.39858e-17
-1.8934e-19
-1.78361e-17
-5.12511e-19
-1.30883e-17
-6.53541e-19
-6.71491e-18
-5.0021e-19
-7.95331e-19
-2.64218e-20
-1.17739e-21
1.04494e-19
-1.49968e-19
1.31223e-19
-2.89233e-19
-1.69412e-19
-3.48539e-18
-2.68691e-18
-5.4255e-17
-3.91596e-17
-6.26835e-16
-5.20097e-16
-3.79866e-15
-6.22572e-15
-4.0063e-14
-6.76453e-14
-3.96963e-13
-7.01316e-13
-6.65366e-12
-2.95316e-12
-2.92929e-34
1.07132e-35
-9.30574e-32
2.08561e-34
-1.49127e-29
-5.04691e-32
-9.18718e-28
-3.47212e-30
-6.33337e-26
-2.27808e-28
-3.92416e-24
-1.40095e-26
-1.94991e-22
-7.28254e-25
-6.4891e-21
-4.46332e-23
-4.07939e-20
-1.4283e-21
-7.38759e-20
-7.12049e-21
-7.83468e-20
-1.30865e-20
-2.4918e-20
-1.25225e-20
3.23641e-20
5.09939e-21
4.43841e-20
3.22796e-20
-7.98066e-20
4.7549e-20
-1.93011e-19
-5.62073e-20
-2.2123e-18
-7.65294e-19
-3.11023e-17
-1.15134e-17
-4.20502e-16
-1.5608e-16
-5.21394e-15
-1.92342e-15
-5.76894e-14
-2.13612e-14
-5.75354e-13
-2.24965e-13
-2.30271e-12
-5.36277e-12
4.0113e-36
3.87094e-35
-7.6934e-34
2.08971e-33
-1.04733e-31
5.34914e-32
-4.57049e-30
8.91685e-31
-2.42738e-28
1.0189e-29
-1.40279e-26
4.63712e-29
-7.2456e-25
-3.15482e-27
-2.71947e-23
-1.76687e-25
-4.22199e-22
-9.65053e-24
-1.50381e-21
-1.07494e-22
-1.67994e-21
-1.82119e-22
1.44667e-21
2.61423e-22
1.01366e-20
2.0368e-21
1.64231e-20
6.05212e-21
-2.11329e-20
9.63499e-21
-7.3651e-20
-3.68923e-21
-8.25417e-19
-1.17998e-19
-1.16944e-17
-1.81038e-18
-1.61165e-16
-2.451e-17
-2.04069e-15
-3.00908e-16
-2.32005e-14
-3.38977e-15
-2.41562e-13
-3.76455e-14
-4.31649e-13
-2.43051e-12
4.03244e-35
4.24922e-35
2.09682e-33
2.65511e-33
5.30366e-32
8.23823e-32
8.18773e-31
1.79724e-30
4.73033e-30
3.24786e-29
-2.15872e-28
5.1995e-28
-1.06148e-26
7.24413e-27
-2.70492e-25
8.31902e-26
-6.80613e-24
7.47595e-25
-1.7855e-23
5.05821e-24
6.67476e-23
2.54057e-23
5.8199e-22
9.63769e-23
1.92364e-21
2.83917e-22
3.39063e-21
6.54179e-22
-1.49832e-21
1.06583e-21
-3.62413e-20
-4.34794e-23
-1.51042e-19
-1.36803e-20
-1.97696e-18
-1.93105e-19
-2.71709e-17
-2.61656e-18
-3.42361e-16
-3.20128e-17
-3.96437e-15
-3.56136e-16
-4.46429e-14
-3.80889e-15
-4.60662e-14
-4.94073e-13
5.08699e-35
1.89028e-35
3.20464e-33
1.24956e-33
1.06057e-31
3.93587e-32
2.58914e-30
7.94546e-31
5.26141e-29
1.15354e-29
8.95314e-28
1.28178e-28
1.22353e-26
1.13337e-27
1.28439e-25
8.19062e-27
1.00118e-24
4.93228e-26
5.73242e-24
2.50952e-25
2.4586e-23
1.08823e-24
8.13605e-23
4.03142e-24
2.09554e-22
1.26631e-23
3.8032e-22
3.26963e-23
-1.74737e-23
6.02346e-23
-5.98109e-21
-1.62669e-23
-1.8379e-20
-1.30661e-21
-2.18225e-19
-1.63972e-20
-3.0109e-18
-2.2463e-19
-3.79711e-17
-2.77107e-18
-4.36498e-16
-3.07596e-17
-4.7238e-15
-3.13533e-16
-3.20687e-15
-5.4038e-14
2.35291e-35
1.34656e-37
1.50482e-33
8.87763e-36
4.60875e-32
2.8361e-34
9.04112e-31
5.91943e-33
1.27563e-29
9.07879e-32
1.37832e-28
1.0908e-30
1.18632e-27
1.06801e-29
8.35466e-27
8.74389e-29
4.90547e-26
6.08576e-28
2.43043e-25
3.63492e-27
1.02098e-24
1.86886e-26
3.61618e-24
8.24039e-26
1.04863e-23
3.07191e-25
2.16413e-23
9.25986e-25
-5.9347e-24
1.81325e-24
-4.35648e-22
-4.6313e-24
-1.68684e-21
-9.80963e-23
-1.90305e-20
-1.16239e-21
-2.66226e-19
-1.625e-20
-3.37284e-18
-2.04743e-19
-3.82371e-17
-2.31927e-18
-3.98424e-16
-2.38155e-17
-2.2329e-16
-3.97385e-15
1.62642e-37
2.62608e-40
1.05527e-35
1.9972e-38
3.34225e-34
7.40641e-37
6.9293e-33
1.80777e-35
1.0577e-31
3.26559e-34
1.26644e-30
4.65072e-33
1.23615e-29
5.42534e-32
1.00761e-28
5.31079e-31
6.95803e-28
4.42726e-30
4.0971e-27
3.16737e-29
2.0547e-26
1.94742e-28
8.66908e-26
1.02269e-27
2.94796e-25
4.49002e-27
6.50079e-25
1.52371e-26
-1.30426e-24
2.27528e-26
-1.65859e-23
-4.59771e-25
-1.20477e-22
-5.99974e-24
-1.38898e-21
-7.26537e-23
-1.95425e-20
-1.04162e-21
-2.5158e-19
-1.36335e-20
-2.92213e-18
-1.60221e-19
-3.09367e-17
-1.7018e-18
-1.59279e-17
-2.88869e-16
3.52331e-40
4.36022e-43
2.65381e-38
3.73173e-41
9.83125e-37
1.57249e-39
2.40168e-35
4.40447e-38
4.348e-34
9.21161e-37
6.20803e-33
1.53017e-35
7.25333e-32
2.09362e-34
7.09214e-31
2.41197e-33
5.87749e-30
2.36944e-32
4.14864e-29
1.99575e-31
2.48529e-28
1.4393e-30
1.23932e-27
8.7815e-30
4.76441e-27
4.34828e-29
8.05084e-27
1.44451e-28
-1.06156e-25
-2.18088e-28
-5.46135e-25
-1.979e-26
-6.8891e-24
-2.58923e-25
-8.54048e-23
-3.42179e-24
-1.23401e-21
-5.13234e-23
-1.65109e-20
-7.06823e-22
-1.99207e-19
-8.73006e-21
-2.18628e-18
-9.73119e-20
-9.35475e-19
-2.06024e-17
6.26598e-43
2.07839e-46
5.36207e-41
2.25761e-44
2.27976e-39
1.20706e-42
6.45049e-38
4.27898e-41
1.36291e-36
1.12601e-39
2.28428e-35
2.33325e-38
3.1446e-34
3.94041e-37
3.62865e-33
5.53734e-36
3.5471e-32
6.55175e-35
2.94359e-31
6.55377e-34
2.05449e-30
5.50768e-33
1.15933e-29
3.76666e-32
4.38005e-29
1.8182e-31
-7.51713e-29
-4.61979e-33
-2.85849e-27
-2.84618e-29
-2.27636e-26
-6.36683e-28
-2.8159e-25
-8.55368e-27
-3.92051e-24
-1.272e-25
-6.01024e-23
-2.0505e-24
-8.46982e-22
-3.01532e-23
-1.07602e-20
-3.97251e-22
-1.24275e-19
-4.71492e-21
-4.81231e-20
-1.21786e-18
3.55464e-46
3.79904e-50
3.86107e-44
5.33922e-48
2.07825e-42
3.61767e-46
7.40232e-41
1.59764e-44
1.95226e-39
5.15863e-43
4.04208e-38
1.294e-41
6.79481e-37
2.61294e-40
9.45688e-36
4.33597e-39
1.09979e-34
5.96099e-38
1.06584e-33
6.71608e-37
8.36035e-33
5.80576e-36
4.61334e-32
2.5533e-35
-1.33793e-33
-3.75799e-34
-5.34299e-30
-1.41631e-32
-3.31228e-29
-6.98094e-31
-6.77131e-28
-1.5743e-29
-8.96064e-27
-2.22737e-28
-1.44219e-25
-3.87915e-27
-2.37617e-24
-6.83212e-26
-3.58015e-23
-1.09149e-24
-4.86138e-22
-1.56074e-23
-5.99783e-21
-2.00616e-22
-2.22466e-21
-6.30693e-20
7.71282e-50
1.86919e-55
1.06504e-47
3.0999e-53
7.15086e-46
2.44574e-51
3.12814e-44
1.23962e-49
9.99624e-43
4.46855e-48
2.47713e-41
1.16858e-46
4.92281e-40
1.97286e-45
7.97174e-39
9.12298e-46
1.04592e-37
-1.53841e-42
1.04474e-36
-8.45294e-41
5.28241e-36
-4.07938e-39
-8.91287e-35
-1.74162e-37
-1.19686e-33
-1.19233e-35
-1.58089e-32
-3.86046e-34
-7.2199e-31
-1.19159e-32
-1.50265e-29
-2.69839e-31
-2.3021e-28
-4.49417e-30
-4.36929e-27
-9.43471e-29
-7.80369e-26
-1.83867e-27
-1.278e-24
-3.258e-26
-1.88614e-23
-5.16115e-25
-2.5279e-22
-7.33139e-24
-9.01698e-23
-2.90401e-21
3.97172e-55
-1.48042e-62
6.45142e-53
-1.01983e-59
4.99005e-51
-3.29933e-57
2.44185e-49
-6.97309e-55
8.14824e-48
-1.08847e-52
1.69062e-46
-1.33843e-50
9.37641e-47
-1.3488e-48
-1.86536e-43
-1.14362e-46
-1.71008e-42
-1.48665e-44
-8.52996e-41
-9.39919e-43
-4.1125e-39
-5.21757e-41
-1.75714e-37
-2.56e-39
-1.22181e-35
-1.09598e-37
-4.01181e-34
-4.05221e-36
-1.24271e-32
-1.42193e-34
-2.14515e-31
-2.76528e-33
-4.93207e-30
-7.15867e-32
-1.03898e-28
-1.71872e-30
-2.06204e-27
-3.8178e-29
-3.74256e-26
-7.69999e-28
-6.11945e-25
-1.38653e-26
-9.07884e-24
-2.23223e-25
-3.11766e-24
-1.15928e-22
-1.47885e-62
-1.56947e-65
-1.01992e-59
-1.39169e-62
-3.30398e-57
-5.54896e-60
-6.99187e-55
-1.42626e-57
-1.09277e-52
-2.6926e-55
-1.34537e-50
-3.9911e-53
-1.35742e-48
-4.8359e-51
-1.15227e-46
-4.91899e-49
-1.49991e-44
-4.25586e-47
-9.56377e-43
-3.20555e-45
-5.32388e-41
-2.11377e-43
-2.62007e-39
-1.22944e-41
-1.12624e-37
-6.23279e-40
-4.18681e-36
-2.72714e-38
-1.41239e-34
-1.07869e-36
-2.7756e-33
-2.39145e-35