/*--------------------------------*- C++ -*----------------------------------*\
| =========                 |                                                 |
| \\      /  F ield         | OpenFOAM: The Open Source CFD Toolbox           |
|  \\    /   O peration     | Version:  2206                                  |
|   \\  /    A nd           | Website:  www.openfoam.com                      |
|    \\/     M anipulation  |                                                 |
\*---------------------------------------------------------------------------*/
FoamFile
{
    version     2.0;
    format      ascii;
    arch        "LSB;label=32;scalar=64";
    class       volScalarField;
    location    "0.25";
    object      alpha.water;
}
// * * * * * * * * * * * * * * * * * * * * * * * * * * * * * * * * * * * * * //

dimensions      [0 0 0 0 0 0 0];

internalField   nonuniform List<scalar> 
2268
(
0.999999
0.999999
1
1
1
1
1
1
1
1
1
0.999999
0.999999
0.999999
1
1
1
1
1
1
0.953113
0.790694
0.790343
0.999999
1
1
1
1
1
1
1
1
1
1
0.999999
0.999999
1
1
1
1
1
1
1
0.995234
0.96207
0.869265
1
1
1
1
1
1
1
1
1
1
1
1
1
1
1
1
1
1
1
1
1
0.999899
0.967779
1
1
1
1
1
1
1
1
1
1
1
1
1
1
1
1
1
1
1
1
1
0.999985
0.962946
1
1
1
1
1
1
1
1
1
1
1
1
1
1
1
1
1
1
1
1
1
0.999995
0.962803
1
1
1
1
1
1
1
1
1
1
1
1
1
1
1
1
1
1
1
1
1
1
0.96289
1
1
1
1
1
1
1
1
1
1
1
1
1
1
1
1
1
1
1
1
1
1
0.964898
1
1
1
1
1
1
1
1
1
1
1
1
1
1
1
1
1
1
1
1
1
1
0.99773
2.95758e-19
3.0786e-20
7.03615e-21
2.86628e-22
5.04835e-24
2.13879e-25
7.92752e-27
2.68764e-28
9.71093e-30
4.64508e-31
4.05898e-32
1.46483e-33
4.08178e-35
1.03301e-36
2.19336e-38
3.66685e-40
4.38634e-42
2.85848e-44
1.60429e-44
1.99025e-18
2.33949e-18
9.04511e-19
5.29048e-20
1.0305e-21
5.04835e-24
2.13879e-25
7.92752e-27
2.68763e-28
6.9521e-29
8.38723e-30
3.00075e-31
8.00911e-33
2.01542e-34
4.22989e-36
6.73666e-38
6.97747e-40
2.94618e-42
1.60429e-44
1.77187e-16
2.50966e-16
8.6084e-17
5.28383e-18
1.3813e-19
8.61283e-22
3.69389e-23
1.41133e-24
5.00337e-26
5.40651e-27
6.41045e-28
2.36164e-29
5.93484e-31
1.39726e-32
2.66371e-34
3.55333e-36
3.13497e-38
1.82336e-40
2.21389e-42
9.37242e-15
1.93419e-14
5.5022e-15
3.11009e-16
1.04148e-17
7.0085e-20
3.07783e-21
1.18381e-22
4.23517e-24
2.53401e-25
3.58095e-26
1.32182e-27
3.15626e-29
6.95014e-31
1.15466e-32
1.60091e-34
1.91846e-36
1.13632e-38
1.76067e-40
1.63626e-13
3.94715e-13
1.88783e-13
1.37341e-14
5.36744e-16
5.51532e-18
1.73691e-19
6.7293e-21
2.41082e-22
9.07156e-24
1.65719e-24
6.18446e-26
1.39115e-27
2.79463e-29
4.48324e-31
8.67999e-33
1.02647e-34
6.09929e-37
1.08888e-38
3.62384e-12
3.25668e-12
2.06449e-12
2.64923e-13
2.32505e-14
4.58141e-16
7.77378e-18
3.07227e-19
1.09679e-20
4.13798e-22
6.89612e-23
2.51554e-24
5.45725e-26
9.45838e-28
2.23717e-29
4.18349e-31
4.97363e-33
3.01635e-35
5.84068e-37
8.03418e-11
5.92893e-11
9.4077e-12
1.27367e-12
5.36389e-13
3.64765e-14
2.94468e-16
1.21386e-17
4.34337e-19
1.66489e-20
2.65005e-21
9.5738e-23
1.94973e-24
3.80582e-26
1.02267e-27
1.88936e-29
2.28485e-31
1.41823e-33
2.88271e-35
1.66406e-09
1.21155e-09
1.42856e-10
1.89192e-11
2.09629e-12
1.66547e-13
9.65057e-15
4.28965e-16
1.56112e-17
6.09496e-19
9.93964e-20
3.60373e-21
6.70493e-23
1.57123e-24
4.39353e-26
8.46314e-28
1.05185e-29
6.69088e-32
1.35329e-33
1
1
1
1
1
1
1
1
1
1
1
1
1
1
1
1
1
1
1
1
1
1
1
1
1
1
1
1
1
1
1
1
1
1
1
1
0.999999
0.999999
0.999999
0.999999
0.999979
1
1
1
1
1
1
1
1
1
1
1
1
1
0.999999
0.999999
0.999998
0.999996
0.999992
0.999986
0.999962
0.999946
0.999957
0.999981
0.999997
0.999999
1
1
0.999997
1
0.999999
0.999997
0.999998
0.999998
0.999998
0.999996
0.999993
0.999989
0.999978
0.999954
0.999905
0.999816
0.99955
0.999115
0.985476
0.944203
0.88496
0.871535
0.924859
0.999988
0.999997
0.999981
0.999999
0.999983
0.999975
0.999978
0.999976
0.999969
0.999952
0.999914
0.999841
0.999712
0.999406
0.998675
0.990372
0.902776
0.701404
0.432687
0.228019
0.134017
0.0849019
0.111765
0.19815
0.377585
0.666303
0.999983
0.99978
0.999759
0.999772
0.999737
0.999652
0.999458
0.999044
0.998238
0.99068
0.934866
0.769574
0.492564
0.132338
0.000295251
9.19554e-05
0.000131767
0.000312962
0.000590376
0.00067646
0.00101178
0.00173303
0.024864
0.999715
0.997937
0.997883
0.997854
0.997408
0.990997
0.960771
0.887695
0.747147
0.503311
0.253496
0.0102078
5.24241e-05
3.88875e-05
3.47696e-05
3.38681e-05
0.000104637
0.000244814
0.000621367
0.000904217
0.000753567
0.000427413
0.000528145
0.958282
0.771161
0.757984
0.724266
0.642956
0.503155
0.338333
0.182014
0.0378644
3.9131e-07
1.32609e-06
4.66314e-06
1.88355e-05
3.2756e-05
3.38562e-05
3.38681e-05
3.38681e-05
0.00207953
0.00250257
0.00246875
0.00115778
0.000132753
9.81324e-05
0.318779
0.0963995
0.0790677
0.0556846
0.017139
-8.08624e-13
-1.39303e-12
-1.07706e-11
-8.29773e-09
-5.11907e-10
7.8253e-07
1.48216e-06
4.74561e-06
1.88884e-05
3.19047e-05
3.38664e-05
0.000889554
0.00250257
0.00250257
0.00250257
0.000852297
2.70255e-05
1.17871e-05
-1.06597e-18
-1.54e-57
1.8474e-20
2.38849e-18
1.5325e-16
5.15921e-15
1.05068e-13
5.23484e-13
1.87318e-12
4.63457e-12
-2.55972e-08
1.03334e-06
0.000141485
0.000168374
4.43859e-05
3.39185e-05
0.00144939
0.00246521
0.00250257
0.00121169
3.84687e-05
2.28516e-06
2.23746e-06
-1.86064e-19
6.97258e-20
4.37607e-18
1.31655e-16
7.08545e-15
6.87458e-13
2.83398e-12
2.84143e-12
4.8444e-12
1.12423e-11
-1.11793e-08
0.000135993
0.000564065
0.000551765
0.000137335
3.82246e-05
0.00141438
0.00236655
0.00160164
6.44573e-05
1.72712e-06
2.54088e-07
1.00893e-06
-3.67081e-19
1.82548e-18
1.65013e-16
8.45464e-15
3.02236e-13
5.56956e-12
1.48145e-11
4.61623e-11
1.41535e-11
5.30411e-11
2.20603e-05
0.00056414
0.000564065
0.000560096
0.000153682
0.000431928
0.00187904
0.00188133
0.000178958
9.65994e-07
9.62728e-08
3.35082e-08
1.15707e-06
-6.55362e-19
7.08434e-18
8.12503e-16
4.99416e-14
1.22846e-12
9.5308e-12
2.22166e-11
1.58842e-10
1.17139e-10
1.98202e-10
0.000111643
0.000546101
0.000569341
0.000344404
0.000162845
0.00141917
0.00183318
0.000453719
5.17596e-09
5.27053e-09
1.1094e-08
2.0657e-08
3.35082e-08
-1.10233e-18
1.2472e-17
1.73802e-15
1.34133e-13
2.56282e-12
1.14562e-11
2.48845e-11
2.2472e-10
4.22653e-10
6.3942e-10
2.25668e-05
7.45387e-05
0.000569436
0.000569436
0.000514651
0.00144079
0.000275065
1.52605e-09
3.6724e-09
5.27055e-09
9.84202e-09
1.29566e-08
9.84451e-07
-1.76395e-18
1.47287e-17
2.33195e-15
2.33244e-13
3.88258e-12
1.25357e-11
2.5571e-11
1.77707e-10
2.12775e-10
1.48618e-09
3.29268e-08
6.40458e-07
0.00022028
0.000572472
0.000569436
0.0003303
3.29545e-10
3.98309e-10
1.11661e-08
1.22607e-08
4.26329e-08
5.46454e-08
3.17128e-08
-2.70416e-18
1.24963e-17
2.40078e-15
2.83689e-13
4.48328e-12
1.2963e-11
2.31818e-11
4.0747e-11
1.57551e-09
2.48879e-09
1.68357e-08
5.33549e-09
1.21828e-05
0.000254087
0.000155055
4.16217e-11
2.9217e-10
1.71931e-09
3.19017e-09
4.72447e-09
7.9903e-09
3.00051e-08
3.06707e-08
-3.96e-18
2.93468e-18
1.20022e-15
2.79749e-13
4.30559e-12
1.20747e-11
1.76147e-11
1.98947e-11
7.20782e-09
4.33576e-08
1.93856e-08
7.08219e-10
2.63382e-11
5.41563e-13
9.35215e-13
3.42742e-11
3.66793e-10
5.32989e-10
5.19e-10
1.11216e-09
7.30134e-09
3.29208e-08
3.31571e-08
-5.44785e-18
-2.6967e-18
1.56151e-16
1.23615e-13
2.13833e-12
6.86606e-12
1.19284e-11
1.37483e-11
4.24164e-09
8.45469e-08
8.30535e-08
4.75385e-08
6.66385e-09
3.03905e-13
5.41563e-13
4.45271e-11
1.63487e-10
3.08837e-10
5.17687e-10
8.63936e-10
7.72357e-09
3.85752e-08
4.81405e-08
-6.81272e-18
-1.79834e-17
8.10661e-18
1.83911e-14
4.45819e-13
2.66371e-12
1.40946e-11
1.70098e-11
1.45805e-10
2.35706e-08
8.5911e-08
8.30535e-08
1.55782e-08
1.71809e-13
1.89618e-12
2.59108e-11
7.76997e-11
1.5772e-10
3.16897e-10
7.39517e-10
1.77351e-09
4.30476e-09
2.52836e-08
-7.22306e-18
-4.05803e-17
3.67832e-34
7.27774e-16
4.30966e-14
8.62639e-13
1.68763e-11
5.25449e-11
5.12893e-11
5.31765e-12
1.80223e-08
2.00813e-08
1.67872e-13
1.33737e-13
6.71373e-13
9.00308e-12
3.2484e-11
7.428e-11
1.58809e-10
3.944e-10
1.06036e-09
4.79742e-09
2.30519e-08
-5.77161e-18
-4.32951e-17
-3.9393e-17
-8.7855e-28
4.91615e-16
2.3795e-13
1.02378e-11
4.32125e-11
4.7822e-11
2.47773e-12
4.03909e-13
1.86631e-13
1.74305e-13
1.29807e-13
1.46692e-13
1.44732e-12
7.11308e-12
2.35562e-11
7.02142e-11
2.16977e-10
7.35591e-10
4.48183e-09
2.84119e-08
-3.01255e-18
-2.55283e-17
-4.9718e-17
-5.93728e-29
4.2987e-17
3.76598e-14
1.54576e-12
1.29071e-11
3.38926e-11
3.49566e-11
1.15657e-11
2.58147e-12
4.56115e-13
9.01293e-14
3.07986e-14
9.56044e-14
9.91201e-13
6.24509e-12
3.04537e-11
1.2015e-10
4.57149e-10
2.50541e-09
1.59719e-08
-8.74556e-19
-7.28347e-18
-1.38999e-17
-2.35796e-30
1.59126e-17
1.10189e-14
3.49787e-13
2.59626e-12
6.67665e-12
9.44174e-12
7.46539e-12
3.09995e-12
5.13278e-13
5.42108e-14
8.12576e-15
1.17569e-14
1.30372e-13
1.65947e-12
1.23939e-11
5.87508e-11
2.68041e-10
1.72858e-09
1.21203e-08
-1.31352e-19
-1.12677e-18
-2.48725e-18
-2.67318e-31
3.55933e-19
6.59855e-17
3.1206e-14
6.92613e-13
2.61923e-12
3.98884e-12
4.50711e-12
1.92034e-12
3.61856e-13
2.38834e-14
3.37027e-16
1.65355e-15
2.80373e-14
4.23264e-13
4.1439e-12
2.60734e-11
1.80662e-10
1.36136e-09
1.00537e-08
0
-7.34684e-41
-9.40395e-39
-1.74766e-23
2.50382e-22
3.83959e-20
1.92077e-16
3.55523e-14
2.50787e-13
4.79526e-13
5.11653e-13
2.41825e-13
1.002e-13
8.80279e-15
-1.31617e-34
2.44177e-17
5.42973e-15
9.17926e-14
1.13284e-12
1.08092e-11
1.0712e-10
8.06139e-10
6.28314e-09
0
0
6.90564e-29
-1.92045e-26
1.94812e-24
1.52563e-22
9.76187e-20
4.21396e-17
6.06756e-16
1.66772e-15
2.15106e-15
1.67605e-15
5.94664e-17
-7.37116e-16
-9.2613e-16
-9.83929e-27
1.20494e-15
2.16423e-14
3.05975e-13
3.9651e-12
4.29579e-11
3.40749e-10
3.2932e-09
-7.63863e-32
-1.46347e-30
-1.3194e-33
-9.85093e-29
-1.64485e-28
2.04273e-25
5.70088e-23
9.41167e-20
4.64435e-18
2.41729e-17
4.474e-17
4.1985e-17
-3.68937e-17
-2.34348e-16
-3.45798e-16
-4.1821e-28
2.03144e-16
4.53801e-15
6.805e-14
8.95069e-13
1.04539e-11
9.63358e-11
9.37835e-10
-2.81505e-31
-1.49605e-29
-3.83436e-28
-6.39979e-27
-7.32586e-26
-3.342e-25
0
-1.18044e-38
2.79792e-20
3.51538e-19
5.35728e-19
-1.93732e-18
-1.51801e-17
-4.53331e-17
-7.24523e-17
-4.10626e-29
1.3745e-17
6.00375e-16
9.58765e-15
1.28226e-13
1.54111e-12
1.66145e-11
1.42216e-10
-3.15193e-31
-1.93934e-29
-6.02709e-28
-1.31723e-26
-2.3863e-25
-3.83235e-24
-5.36039e-23
-6.1849e-22
-5.58883e-21
-3.80513e-20
-1.92441e-19
-7.35392e-19
-2.1826e-18
-5.0657e-18
-8.30973e-18
-2.77387e-22
9.54691e-21
5.88235e-17
9.97665e-16
1.35724e-14
1.63719e-13
1.73893e-12
1.38548e-11
-1.42997e-31
-9.31024e-30
-2.93827e-28
-5.94532e-27
-8.65854e-26
-9.65919e-25
-8.5821e-24
-6.23778e-23
-3.78138e-22
-1.93854e-21
-8.47708e-21
-3.16908e-20
-1.00507e-19
-2.62119e-19
-4.87856e-19
-1.79207e-24
5.28291e-20
4.89674e-18
8.48064e-17
1.15184e-15
1.36226e-14
1.49046e-13
1.2206e-12
-1.0385e-33
-6.74491e-32
-2.15965e-30
-4.52029e-29
-6.95902e-28
-8.40069e-27
-8.27251e-26
-6.81887e-25
-4.78345e-24
-2.88281e-23
-1.49716e-22
-6.67516e-22
-2.51868e-21
-7.69188e-21
-1.52748e-20
-2.16835e-26
1.32935e-20
3.49507e-19
5.8178e-18
8.07443e-17
1.00923e-15
1.16819e-14
9.78162e-14
-2.06369e-36
-1.54648e-34
-5.74968e-33
-1.40804e-31
-2.55468e-30
-3.65831e-29
-4.29612e-28
-4.23864e-27
-3.56595e-26
-2.57804e-25
-1.60398e-24
-8.5359e-24
-3.80322e-23
-1.31182e-22
-1.99446e-22
-1.57243e-27
7.2751e-22
1.71464e-20
2.99125e-19
4.44124e-18
5.92957e-17
7.34432e-16
6.46082e-15
-3.48891e-39
-2.94281e-37
-1.24359e-35
-3.49643e-34
-7.34908e-33
-1.22844e-31
-1.69356e-30
-1.96866e-29
-1.95427e-28
-1.666e-27
-1.21808e-26
-7.54809e-26
-3.80342e-25
-1.28853e-24
-1.40352e-33
9.93141e-25
1.45206e-23
6.25461e-22
1.25905e-20
2.01804e-19
2.91529e-18
3.91293e-17
3.80881e-16
-1.69189e-42
-1.81151e-40
-9.71558e-39
-3.45879e-37
-9.15258e-36
-1.90985e-34
-3.25284e-33
-4.61738e-32
-5.52795e-31
-5.60541e-30
-4.78479e-29
-3.33103e-28
-1.64076e-27
0
2.13286e-29
4.32593e-26
-9.50166e-27
2.06012e-23
4.41542e-22
7.75651e-21
1.23331e-19
1.82487e-18
2.00573e-17
-3.14277e-46
-4.35452e-44
-2.96033e-42
-1.31348e-40
-4.26716e-39
-1.07865e-37
-2.19856e-36
-3.68918e-35
-5.13844e-34
-5.87773e-33
-5.17054e-32
-2.31993e-31
-2.05386e-40
1.1031e-30
3.50104e-29
-1.30325e-27
-5.49993e-27
5.70861e-25
1.24401e-23
2.44855e-22
4.3632e-21
7.2343e-20
9.06868e-19
-1.56928e-51
-2.56642e-49
-2.03205e-47
-1.0352e-45
-3.75651e-44
-9.90622e-43
-1.68951e-41
-7.90813e-42
-1.68301e-50
-3.69403e-48
-4.98439e-46
-5.01585e-44
3.02139e-34
1.21727e-32
4.38261e-31
-8.39417e-29
2.60784e-28
1.07569e-26
2.70309e-25
6.1141e-24
1.25104e-22
2.37813e-21
3.46017e-20
0
0
1.8546e-69
-9.47705e-67
-9.72442e-60
-6.70003e-57
-2.16775e-54
-4.58029e-52
1.08684e-43
8.33005e-42
5.6065e-40
3.33508e-38
1.77513e-36
8.43799e-35
-4.55855e-33
-4.32478e-31
3.85381e-30
1.47324e-28
4.37608e-27
1.17614e-25
2.85852e-24
6.44183e-23
1.12958e-21
5.63875e-66
7.01094e-63
3.67008e-60
1.21615e-57
2.9416e-55
5.57311e-53
8.62273e-51
1.11951e-48
1.24337e-46
1.19702e-44
7.66603e-43
5.86228e-41
4.01613e-39
-7.5539e-37
-6.13061e-34
7.72566e-34
2.56514e-32
1.21126e-30
4.63316e-29
1.53599e-27
4.65183e-26
1.30381e-24
2.85977e-23
8.87154e-71
1.80686e-67
1.18601e-64
4.36778e-62
1.13794e-59
2.36244e-57
4.25213e-55
7.00201e-53
1.29374e-50
-1.69558e-46
-1.47146e-44
-1.18911e-42
-4.69865e-40
-5.17152e-38
2.55324e-38
1.61853e-36
4.10644e-35
4.31485e-33
2.49788e-31
1.10504e-29
4.49175e-28
1.68518e-26
4.96401e-25
1.26754e-77
-1.87748e-70
-3.2114e-67
-2.3026e-64
-1.04084e-61
-3.41972e-59
-8.76437e-57
-1.82668e-54
-7.96734e-51
-9.52229e-49
-1.07723e-46
-1.0676e-44
-5.50373e-43
-2.89489e-43
4.81188e-42
-2.66575e-40
-1.65136e-37
-2.25506e-37
3.88216e-34
2.69236e-32
1.71055e-30
1.00028e-28
4.45694e-27
-3.32486e-78
-1.58332e-74
-2.12949e-71
-1.68929e-68
-9.52551e-66
-4.15137e-63
-1.46376e-60
-4.29551e-58
1.24829e-64
8.30059e-62
-2.15163e-57
-5.36499e-55
-2.07083e-49
-3.36957e-47
-3.56257e-45
-6.11532e-43
-2.54953e-40
-1.92287e-39
-1.16913e-39
1.26409e-36
2.29779e-34
3.77862e-32
1.21718e-30
0
-1.70546e-102
-4.33139e-94
-7.83491e-90
-5.15655e-86
-2.00656e-82
-5.16358e-79
-9.69036e-76
-1.41402e-72
-5.90436e-67
-4.49093e-64
-3.15593e-61
-6.46007e-57
-2.55485e-54
-8.61046e-52
-5.27261e-48
-2.91591e-46
-8.79166e-45
-1.78284e-43
-3.36596e-42
-6.47502e-42
-3.77489e-42
-7.83481e-33
0.776203
0.00017494
7.56274e-06
4.40529e-07
0.991264
0.375824
1.14671e-06
1.02844e-06
0.999981
0.985553
0.452987
0.000287041
0.999422
0.998747
0.993141
0.427607
0.998747
0.993141
0.983428
0.951175
0.163657
0.680926
0.976697
0.947693
0.00142002
0.0221629
0.477296
0.921185
0.000192207
0.000444505
0.00373526
0.620469
2.83386e-05
5.69509e-05
0.000235504
0.17654
4.95899e-06
9.53332e-06
2.01031e-05
0.000236258
2.24671e-06
3.62785e-06
5.32921e-06
2.02698e-05
2.29493e-06
2.49757e-06
3.64731e-06
5.32794e-06
1.71664e-05
1.0072e-05
5.32925e-06
6.57734e-06
3.26615e-05
1.53775e-05
6.57724e-06
0.00302454
1.88169e-05
9.45654e-05
1.58017e-05
0.0121078
9.35961e-06
0.0001933
2.07831e-05
0.0909928
3.47496e-08
4.03221e-05
4.35835e-05
0.0688364
4.22001e-08
3.41552e-06
0.00101786
4.81944e-05
2.56365e-07
1.75931e-05
0.000129434
3.37315e-05
6.64121e-07
1.25016e-06
1.89651e-06
7.61486e-06
1.47589e-07
2.37878e-07
3.76288e-05
0.00056654
1.28064e-07
2.89941e-07
5.39691e-06
0.000547049
1.25649e-07
6.56944e-07
2.56511e-06
0.000142597
9.58518e-08
6.38217e-07
3.55011e-06
2.51936e-05
5.97499e-08
4.12e-07
3.56629e-06
2.81352e-05
2.95272e-08
2.35211e-07
2.06464e-06
1.52079e-05
8.34341e-09
6.59842e-08
5.78966e-07
3.99711e-06
1.12184e-09
9.84541e-09
7.89433e-08
5.06552e-07
1.12437e-10
1.06415e-09
8.58912e-09
5.86367e-08
1.00684e-11
1.00006e-10
8.47147e-10
6.35722e-09
8.56376e-13
8.7754e-12
8.21771e-11
7.03731e-10
6.42063e-14
7.74956e-13
1.29547e-11
1.95415e-10
4.84561e-15
1.03962e-13
3.35531e-12
3.31665e-11
2.82091e-16
7.15564e-15
2.14138e-13
2.80036e-12
1.44443e-17
4.34782e-16
1.23888e-14
1.67602e-13
6.38104e-19
2.30562e-17
7.22583e-16
1.02651e-14
2.47239e-20
1.04867e-18
3.14351e-17
5.6901e-16
8.01653e-22
4.1546e-20
7.60908e-19
2.75765e-17
1.97805e-23
1.35841e-21
1.90435e-20
1.07952e-18
2.84088e-25
3.29174e-23
6.05296e-22
2.36016e-20
9.44213e-28
4.78695e-25
1.34918e-23
7.16855e-22
-7.4645e-33
2.22694e-28
1.01861e-25
1.37022e-23
2.96282e-08
2.31541e-08
3.15013e-09
4.40408e-10
5.52268e-11
4.02581e-12
2.79099e-13
1.40075e-14
5.37418e-16
2.15397e-17
5.15437e-18
2.41637e-19
6.16182e-21
1.38992e-22
1.96792e-24
4.54644e-26
8.07908e-28
5.62352e-30
6.65668e-32
4.40529e-07
3.90019e-07
5.74209e-08
7.62697e-09
9.36167e-10
9.45967e-11
7.44044e-12
4.32327e-13
1.86802e-14
8.11797e-16
4.17504e-16
2.74663e-17
6.51717e-19
1.61135e-20
2.51625e-22
2.96179e-24
5.77403e-26
7.92491e-28
5.4336e-30
1.38936e-05
9.56282e-06
1.6398e-06
2.31924e-07
2.98395e-08
3.30384e-09
2.96861e-10
2.04106e-11
1.03963e-12
7.59945e-14
2.69617e-14
1.72717e-15
4.92286e-17
1.23293e-18
1.42582e-20
3.45131e-22
7.66481e-24
1.13175e-25
8.34053e-28
0.00219714
0.000273501
4.8262e-05
5.56949e-06
7.44846e-07
9.34982e-08
9.97878e-09
7.42652e-10
4.52034e-11
2.53613e-12
3.34921e-13
5.99942e-14
3.14865e-15
6.90729e-17
1.16474e-18
3.48166e-20
8.53146e-22
1.18058e-23
8.20024e-26
0.494028
0.020222
0.0005931
0.000118559
1.59627e-05
1.98502e-06
2.2864e-07
2.20968e-08
1.61109e-09
9.42115e-11
5.89277e-12
4.01059e-13
4.81939e-14
2.45504e-15
7.70434e-17
2.63722e-18
7.03751e-20
6.63301e-22
7.66302e-24
0.911699
0.530714
0.0336664
0.00125888
0.000246047
3.47998e-05
4.10531e-06
4.19119e-07
3.41104e-08
2.5132e-09
1.87388e-10
1.27237e-11
8.45655e-13
5.08002e-14
3.52258e-15
1.35101e-16
3.6869e-18
3.03519e-20
5.69289e-22
0.885595
0.849842
0.393196
0.0211301
0.002043
0.000300844
4.65233e-05
5.40275e-06
4.98514e-07
4.7694e-08
4.25526e-09
3.44756e-10
2.49261e-11
1.61056e-12
9.81632e-14
4.84081e-15
1.1532e-16
8.67536e-19
3.4423e-20
0.850005
0.816688
0.709071
0.213048
0.00988209
0.00183286
0.000294713
4.21373e-05
5.56623e-06
6.38972e-07
6.68099e-08
6.28885e-09
5.21618e-10
3.43912e-11
1.80301e-12
8.37258e-14
2.10211e-15
1.27709e-17
1.29767e-18
0.757924
0.783372
0.758049
0.42604
0.049981
0.00514911
0.00104014
0.000183916
2.87221e-05
3.93784e-06
4.67713e-07
4.74706e-08
4.04769e-09
2.83323e-10
1.59005e-11
7.61972e-13
2.0383e-14
1.53149e-16
2.75571e-17
0.368101
0.758049
0.725268
0.616752
0.141865
0.00954063
0.00222922
0.0004528
7.96789e-05
1.2084e-05
1.56676e-06
1.71754e-07
1.57074e-08
1.17551e-09
7.08262e-11
3.37862e-12
9.79377e-14
1.40535e-15
3.02604e-16
0.0521611
0.557539
0.700331
0.653384
0.251449
0.0184639
0.00345441
0.000759382
0.000144902
2.36318e-05
3.26289e-06
3.78785e-07
3.64725e-08
2.86601e-09
1.77432e-10
8.62691e-12
2.75564e-13
5.44523e-15
1.68364e-15
4.83279e-05
0.327562
0.65338
0.605086
0.421927
0.0556974
0.00467297
0.001084
0.000216936
3.66892e-05
5.22108e-06
6.22398e-07
6.15944e-08
4.95228e-09
3.144e-10
1.5309e-11
5.3338e-13
1.20274e-14
5.47839e-15
8.82416e-06
0.275214
0.597098
0.588836
0.461164
0.0657551
0.00572761
0.00137665
0.000277539
4.67281e-05
6.61793e-06
7.88474e-07
7.82837e-08
6.35641e-09
4.07786e-10
2.04031e-11
7.56978e-13
2.57151e-14
1.20397e-14
0.0222624
0.396011
0.551364
0.57804
0.377811
0.0444926
0.00523961
0.00122307
0.000237947
3.92647e-05
5.53639e-06
6.63833e-07
6.68407e-08
5.53038e-09
3.63672e-10
2.03091e-11
9.31312e-13
5.3219e-14
1.21643e-14
0.158138
0.48075
0.525597
0.40746
0.173313
0.014844
0.00299499
0.000679337
0.000136099
2.21497e-05
3.06912e-06
3.80595e-07
3.97745e-08
3.42382e-09
2.35415e-10
1.59457e-11
2.15882e-12
9.6909e-14
6.74258e-15
0.353817
0.422631
0.309477
0.111871
0.0176933
0.00772405
0.00143731
0.000329235
6.17013e-05
9.30116e-06
1.36855e-06
1.71751e-07
1.84924e-08
1.67751e-09
1.35608e-10
1.55288e-11
2.16155e-12
7.9484e-14
3.30635e-15
0.32771
0.362813
0.0939121
0.0186838
0.00668004
0.00187198
0.000391498
8.27176e-05
1.75927e-05
3.16602e-06
4.96894e-07
6.68748e-08
7.60315e-09
7.68421e-10
7.43578e-11
1.5361e-11
1.39364e-12
4.3349e-14
1.49766e-15
0.22936
0.32778
0.166803
0.010342
0.00261648
0.000666603
0.000108183
1.79507e-05
3.90748e-06
8.03262e-07
1.47985e-07
2.215e-08
2.88689e-09
3.53272e-10
6.61344e-11
1.09963e-11
6.37942e-13
2.12412e-14
6.52022e-16
0.0772842
0.302743
0.279977
0.0824622
0.0013648
0.000259136
3.39254e-05
4.68068e-06
9.74232e-07
2.18817e-07
4.07952e-08
6.40514e-09
8.57757e-10
1.24055e-10
4.40304e-11
4.89252e-12
2.72931e-13
9.55837e-15
2.92409e-16
3.37315e-05
0.260301
0.259076
0.250304
0.0584435
0.00087942
0.000102981
1.07583e-05
1.30507e-06
1.62215e-07
2.13705e-08
2.77803e-09
3.36954e-10
4.11089e-11
1.20795e-11
1.34716e-12
9.06947e-14
3.68868e-15
1.61362e-16
0.000365022
0.138097
0.250304
0.242476
0.230913
0.0357351
0.000873893
0.000102549
1.13612e-05
1.38045e-06
1.81394e-07
2.40766e-08
2.27755e-09
1.06412e-10
4.26136e-12
3.23081e-13
2.06892e-14
7.99562e-16
1.06938e-16
0.000941923
0.00340708
0.23329
0.230913
0.225545
0.168863
0.0251419
0.00111507
0.000208703
2.82401e-05
2.78182e-06
1.96823e-07
1.05561e-08
4.32366e-10
1.34912e-11
5.19528e-13
1.34222e-14
1.85068e-16
5.97043e-17
0.0027466
0.00284947
0.1004
0.225545
0.217282
0.194281
0.0261825
0.00145813
0.000255937
3.21046e-05
2.95232e-06
2.03497e-07
1.06177e-08
4.22322e-10
1.31934e-11
8.40512e-13
6.10172e-14
1.1111e-15
2.77923e-17
0.00166594
0.00576476
0.0070367
0.104841
0.12352
0.0687249
0.0191045
0.00218423
0.000392806
6.87089e-05
7.59625e-06
5.85292e-07
3.45109e-08
1.61573e-09
6.70527e-11
3.60934e-12
1.09091e-13
1.53151e-15
1.21785e-17
0.00028843
0.0028386
0.00561138
0.00782965
0.0103881
0.00454903
0.00632141
0.00173679
0.00035361
5.76756e-05
6.65975e-06
5.20774e-07
3.13404e-08
1.45722e-09
6.19165e-11
2.65735e-12
6.20789e-14
8.56406e-16
4.63153e-18
8.92839e-05
0.00143133
0.00260754
0.00151914
0.00187734
0.00128
0.000559725
0.000113019
1.60432e-05
3.15995e-06
4.78048e-07
5.02385e-08
4.02923e-09
3.32809e-10
1.77399e-11
5.17391e-13
1.11787e-14
1.62485e-16
1.0512e-18
1.99074e-05
0.000372523
0.00051381
0.000317879
0.000424495
0.000316697
0.000153112
3.44475e-05
4.65353e-06
4.26083e-07
2.90692e-08
1.46876e-09
5.93579e-11
8.78257e-12
2.86975e-12
1.00304e-13
2.25943e-15
3.32218e-17
2.21399e-19
2.72938e-06
5.81556e-05
7.70134e-05
5.85977e-05
8.3923e-05
6.8561e-05
3.53274e-05
9.44972e-06
1.27264e-06
1.12737e-07
7.11532e-09
3.13296e-10
1.45011e-11
4.46389e-12
6.96945e-13
2.32714e-14
5.30934e-16
7.99523e-18
5.43759e-20
3.54395e-07
6.83881e-06
9.13018e-06
9.72306e-06
1.47989e-05
1.31439e-05
7.25632e-06
2.3528e-06
3.20534e-07
2.88727e-08
1.80471e-09
7.70025e-11
5.05523e-12
2.55164e-12
1.66926e-13
5.39437e-15
1.24818e-16
1.93316e-18
1.29314e-20
6.34991e-08
4.30639e-07
8.89402e-07
1.47202e-06
2.37273e-06
2.27378e-06
1.34714e-06
4.94821e-07
7.43636e-08
6.88839e-09
4.48082e-10
1.92587e-11
1.69183e-12
8.26155e-13
3.69197e-14
1.2e-15
2.82618e-17
4.51239e-19
2.96555e-21
5.87582e-09
2.32022e-08
7.90946e-08
2.05641e-07
3.50905e-07
3.62126e-07
2.29696e-07
9.1326e-08
1.59771e-08
1.54065e-09
1.0659e-10
6.83007e-12
1.6621e-12
1.76991e-13
7.85988e-15
2.59531e-16
6.22514e-18
1.02478e-19
6.5813e-22
5.28423e-10
2.50226e-09
9.65404e-09
2.67925e-08
4.85933e-08
5.35996e-08
3.65196e-08
1.54526e-08
3.20175e-09
3.24279e-10
2.53496e-11
2.56733e-12
7.45337e-13
3.63255e-14
1.62743e-15
5.46364e-17
1.33397e-18
2.26185e-20
1.41301e-22
5.35069e-11
2.66031e-10
1.10833e-09
3.2938e-09
6.33999e-09
7.51939e-09
5.49297e-09
2.46995e-09
6.06112e-10
6.49682e-11
6.03231e-12
1.145e-12
1.17754e-13
7.19347e-15
3.28287e-16
1.1197e-17
2.77961e-19
4.84603e-21
2.93469e-23
6.58627e-12
2.87226e-11
1.27461e-10
3.87331e-10
7.93564e-10
1.00901e-09
7.87498e-10
3.76297e-10
1.03971e-10
1.31754e-11
2.06879e-12
3.12461e-13
2.20646e-14
1.39135e-15
6.45668e-17
2.23481e-18
5.63285e-20
1.00753e-21
5.90071e-24
5.90117e-13
4.44223e-12
1.97262e-11
5.03453e-11
9.95844e-11
1.31063e-10
1.12111e-10
5.81743e-11
1.78036e-11
2.93134e-12
5.16097e-13
5.17079e-14
4.09126e-15
2.62954e-16
1.23935e-17
4.3483e-19
1.11104e-20
2.03375e-22
1.15036e-24
3.41648e-14
4.15361e-13
3.3386e-12
1.19489e-11
1.70578e-11
2.0055e-11
1.70671e-11
8.78513e-12
2.75875e-12
5.9755e-13
8.7376e-14
9.15596e-15
7.43369e-16
4.8612e-17
2.32509e-18
8.26036e-20
2.13614e-21
3.99096e-23
2.17923e-25
2.62664e-15
2.81368e-14
3.11546e-13
1.85874e-12
3.53522e-12
4.00927e-12
3.24629e-12
1.54296e-12
4.79677e-13
1.03623e-13
1.47421e-14
1.59799e-15
1.3242e-16
8.80648e-18
4.27188e-19
1.53529e-20
4.01194e-22
7.629e-24
4.0229e-26
1.817e-16
1.67668e-15
2.57288e-14
1.68866e-13
4.58999e-13
5.82107e-13
5.13848e-13
2.47697e-13
7.83327e-14
1.6569e-14
2.46191e-15
2.73981e-16
2.31728e-17
1.56719e-18
7.7064e-20
2.79932e-21
7.38054e-23
1.42436e-24
7.26087e-27
1.11237e-17
1.29686e-16
2.02646e-15
1.48842e-14
4.65312e-14
6.52585e-14
6.57446e-14
3.47579e-14
1.17289e-14
2.62535e-15
4.0461e-16
4.6255e-17
3.99518e-18
2.74792e-19
1.36922e-20
5.02291e-22
1.33426e-23
2.60567e-25
1.28685e-27
6.06303e-19
9.41447e-18
1.52951e-16
1.28697e-15
4.6727e-15
7.49821e-15
7.9231e-15
4.7552e-15
1.74104e-15
4.10592e-16
6.5656e-17
7.71877e-18
6.81195e-19
4.76513e-20
2.40492e-21
8.90261e-23
2.37933e-24
4.68769e-26
1.95554e-28
2.8999e-20
6.05873e-19
1.08238e-17
1.06822e-16
4.2422e-16
6.98114e-16
8.15197e-16
5.37195e-16
2.31618e-16
6.21129e-17
1.06424e-17
1.28851e-18
1.16302e-19
8.27815e-21
4.23187e-22
1.58031e-23
4.24548e-25
8.41511e-27
3.38255e-29
1.0446e-21
3.95194e-20
6.16066e-19
6.91428e-18
4.9576e-17
1.98154e-16
4.1259e-16
1.51385e-16
3.58504e-17
6.2673e-18
8.50126e-19
1.06662e-19
9.90789e-21
7.21689e-22
3.75739e-23
1.42273e-24
3.86065e-26
7.73439e-28
3.38255e-29
)
;

boundaryField
{
    leftWall
    {
        type            zeroGradient;
    }
    rightWall
    {
        type            zeroGradient;
    }
    lowerWall
    {
        type            zeroGradient;
    }
    atmosphere
    {
        type            inletOutlet;
        inletValue      uniform 0;
        value           nonuniform List<scalar> 
46
(
0
0
0
0
0
0
0
0
0
0
0
0
0
0
0
0
0
0
0
0
0
0
0
0
0
1.01861e-25
1.37022e-23
1.0446e-21
3.95194e-20
6.16066e-19
6.91428e-18
4.9576e-17
1.98154e-16
4.1259e-16
1.51385e-16
3.58504e-17
6.2673e-18
8.50126e-19
1.06662e-19
9.90789e-21
7.21689e-22
3.75739e-23
1.42273e-24
3.86065e-26
7.73439e-28
3.38255e-29
)
;
    }
    defaultFaces
    {
        type            empty;
    }
}


// ************************************************************************* //
