/*--------------------------------*- C++ -*----------------------------------*\
| =========                 |                                                 |
| \\      /  F ield         | OpenFOAM: The Open Source CFD Toolbox           |
|  \\    /   O peration     | Version:  2206                                  |
|   \\  /    A nd           | Website:  www.openfoam.com                      |
|    \\/     M anipulation  |                                                 |
\*---------------------------------------------------------------------------*/
FoamFile
{
    version     2.0;
    format      ascii;
    arch        "LSB;label=32;scalar=64";
    class       volScalarField;
    location    "0.25";
    object      p;
}
// * * * * * * * * * * * * * * * * * * * * * * * * * * * * * * * * * * * * * //

dimensions      [1 -1 -2 0 0 0 0];

internalField   nonuniform List<scalar> 
2268
(
1604.13
1610.58
1612.76
1609.8
1601.95
1591.46
1580.16
1568.86
1558.01
1548.12
1539.96
1534.59
1533.52
1538.76
1552.92
1579.41
1621.12
1677.97
1744.33
1802.81
1823.55
1810.71
1855.58
1544.43
1550.77
1552.91
1549.9
1542.02
1531.55
1520.26
1508.93
1498
1487.99
1479.64
1474.05
1472.72
1477.55
1490.81
1514.43
1552.24
1605.08
1670.55
1733.16
1760.67
1736.35
1800.74
1483.87
1490.01
1492.08
1488.94
1481.03
1470.6
1459.32
1447.92
1436.83
1426.55
1417.86
1411.82
1409.93
1414.05
1426.36
1449.33
1484.06
1531.64
1589.05
1647.28
1689.27
1702.59
1763.85
1422.5
1428.35
1430.3
1426.97
1419
1408.62
1397.36
1385.85
1374.5
1363.83
1354.59
1347.88
1345.16
1348.27
1359.29
1380.36
1412.63
1456.35
1508.18
1561.49
1612.81
1658.72
1744.66
1360.35
1365.87
1367.62
1364.04
1356
1345.67
1334.4
1322.72
1311.01
1299.79
1289.82
1282.2
1278.38
1280.14
1289.5
1308.41
1337.99
1378.27
1426.74
1477.75
1532.05
1591.46
1689.37
1297.47
1302.64
1304.12
1300.21
1292.07
1281.78
1270.46
1258.53
1246.34
1234.4
1223.49
1214.71
1209.48
1209.56
1216.89
1233.32
1260.03
1296.94
1342.28
1391.21
1443.69
1501.06
1591.23
1233.94
1238.75
1239.81
1235.51
1227.28
1217.02
1205.6
1193.32
1180.51
1167.69
1155.64
1145.44
1138.49
1136.52
1141.4
1154.96
1178.43
1211.78
1253.41
1298.94
1345.18
1388.87
1436.52
1169.83
1174.24
1174.68
1169.91
1161.62
1151.4
1139.84
1127.13
1113.58
1099.72
1086.34
1074.5
1065.55
1061.17
1063.2
1073.42
1093.15
1122.51
1159.68
1199.94
1235.17
1258.33
1208.61
13.0653
13.0585
13.0464
13.0305
13.0116
12.9902
12.9672
12.9432
12.9188
12.8946
12.871
12.8487
12.8281
12.8095
12.7935
12.7802
12.7701
12.7633
12.7599
13.0075
13.0004
12.9883
12.9724
12.9532
12.9317
12.9086
12.8844
12.8599
12.8355
12.8118
12.7893
12.7685
12.7499
12.7337
12.7204
12.7102
12.7034
12.6999
12.9511
12.9433
12.9311
12.9149
12.8954
12.8736
12.8502
12.8258
12.8009
12.7762
12.7522
12.7295
12.7084
12.6895
12.6731
12.6595
12.6492
12.6422
12.6387
12.8962
12.8871
12.8745
12.858
12.838
12.8158
12.7921
12.7672
12.7419
12.7168
12.6924
12.6691
12.6476
12.6282
12.6114
12.5975
12.5869
12.5798
12.5762
12.8433
12.8316
12.8188
12.8019
12.7812
12.7584
12.7342
12.7088
12.683
12.6572
12.6321
12.6083
12.5861
12.5661
12.5488
12.5344
12.5235
12.5161
12.5124
12.7915
12.7765
12.7638
12.7463
12.7248
12.7013
12.6765
12.6505
12.6239
12.5974
12.5715
12.5468
12.5239
12.5031
12.4851
12.4702
12.4588
12.4511
12.4472
12.7408
12.7222
12.7099
12.6914
12.6688
12.6446
12.6191
12.5922
12.5648
12.5374
12.5105
12.4848
12.4609
12.4393
12.4204
12.4048
12.3928
12.3847
12.3807
12.6957
12.6686
12.6579
12.6373
12.6133
12.5883
12.5619
12.5341
12.5056
12.4771
12.4491
12.4222
12.3971
12.3744
12.3546
12.3382
12.3255
12.3169
12.3126
1068.72
1072.38
1071.76
1066.26
1057.79
1047.51
1035.55
1021.96
1007.01
991.244
975.431
960.569
947.941
939.163
936.005
940.227
953.186
975.426
1004.74
1034.38
1044.59
1009.21
708.413
929.039
931.62
929.475
922.849
913.801
902.856
889.687
874.15
856.466
837.07
816.617
795.941
776.267
759.299
746.752
740.432
741.666
749.904
764.16
774.096
759.685
699.211
516.442
787.907
789.253
785.206
777.284
767.39
755.284
740.245
722.02
700.716
676.58
650.128
622.007
593.403
565.666
539.888
517.811
504.489
506.526
511.336
520.125
523.836
492.89
422.001
645.724
645.489
639.323
630.023
618.986
605.152
587.585
566.022
540.441
510.803
477.523
440.589
400.079
354.09
302.95
250.049
195.969
154.389
138.579
158.999
211.457
246.674
244.537
503.129
500.503
492.204
481.699
469.363
453.342
432.878
407.846
377.936
342.272
300.802
251.417
194.192
127.118
63.9725
30.4661
14.633
8.58208
5.4242
6.66557
12.0788
24.0737
44.85
360.846
355.683
345.603
333.943
320.098
301.313
277.585
248.705
213.82
169.557
122.47
70.0907
32.4587
7.07044
-0.877673
-1.70257
-1.32816
-0.932523
-0.688684
-0.871682
-1.77484
-2.87718
-2.95512
219.955
212.173
199.565
186.522
171.202
149.09
123.153
95.2742
65.7182
32.0357
12.2106
-1.74095
-2.73352
-2.51717
-2.27671
-2.22079
-2.00798
-1.67503
-1.68591
-2.2455
-3.13911
-4.0519
-4.7844
91.4603
77.1816
65.1556
56.6984
46.9101
30.9592
18.4059
8.21547
-0.503422
-2.90069
-3.26752
-3.1506
-3.14537
-3.04285
-2.88545
-2.74705
-2.55784
-2.51522
-3.06612
-4.04135
-4.84901
-5.29926
-5.50434
16.8349
2.96922
1.76071
0.233224
-2.09753
-2.94488
-3.10971
-3.20786
-3.22466
-3.28645
-3.41442
-3.49107
-3.53419
-3.54448
-3.48622
-3.36472
-3.17673
-3.53361
-4.34076
-5.28464
-5.83565
-5.84642
-5.85771
-3.37859
-3.36103
-3.35563
-3.35723
-3.33733
-3.30437
-3.3204
-3.36306
-3.4255
-3.52725
-3.67388
-3.85561
-4.05373
-4.21788
-4.23181
-4.07587
-3.93479
-4.32235
-5.10093
-5.68147
-5.89522
-5.91989
-5.97458
-3.50803
-3.48783
-3.49142
-3.49736
-3.49696
-3.4948
-3.5135
-3.56015
-3.65051
-3.80278
-4.01
-4.30426
-4.69639
-5.00539
-5.02295
-4.77715
-4.59293
-4.9642
-5.5664
-5.83495
-5.92121
-5.97657
-6.08661
-3.66218
-3.64707
-3.65288
-3.66308
-3.67303
-3.68884
-3.72199
-3.78132
-3.89751
-4.0871
-4.35141
-4.75061
-5.2788
-5.6519
-5.62628
-5.28047
-5.11824
-5.49639
-5.79284
-5.92395
-6.00646
-6.10221
-6.26751
-3.81944
-3.82077
-3.82527
-3.83718
-3.8546
-3.88161
-3.92541
-3.99774
-4.13253
-4.34842
-4.65106
-5.09178
-5.61838
-5.94231
-5.90268
-5.63096
-5.58175
-5.7904
-5.9176
-6.02245
-6.13569
-6.27964
-6.50558
-3.97486
-3.98439
-3.99238
-4.00904
-4.03333
-4.0688
-4.12054
-4.20085
-4.33951
-4.55608
-4.85975
-5.26934
-5.74156
-6.00463
-5.96334
-5.83949
-5.85606
-5.92986
-6.02961
-6.15037
-6.30307
-6.4978
-6.78449
-4.1299
-4.14403
-4.15507
-4.17606
-4.206
-4.248
-4.30551
-4.38613
-4.51636
-4.71114
-4.97878
-5.31566
-5.67387
-5.88289
-5.90599
-5.9223
-5.95631
-6.02728
-6.15216
-6.30622
-6.49573
-6.73556
-7.05567
-4.28218
-4.29715
-4.31115
-4.33553
-4.36984
-4.41632
-4.47686
-4.55791
-4.67439
-4.83795
-5.0545
-5.31044
-5.55086
-5.72656
-5.84335
-5.92834
-6.01571
-6.13629
-6.28971
-6.47336
-6.69513
-6.97133
-7.31764
-4.42867
-4.44254
-4.45907
-4.48587
-4.5232
-4.57257
-4.63565
-4.71663
-4.82333
-4.96258
-5.1366
-5.3345
-5.52528
-5.68846
-5.82843
-5.96248
-6.09886
-6.2517
-6.42834
-6.63678
-6.88472
-7.18445
-7.55606
-4.56713
-4.57991
-4.59793
-4.62624
-4.66536
-4.71637
-4.78074
-4.86114
-4.96171
-5.08593
-5.23375
-5.39826
-5.56586
-5.7258
-5.87809
-6.03031
-6.18875
-6.36096
-6.55661
-6.7851
-7.05485
-7.36569
-7.75671
-4.69737
-4.7079
-4.7272
-4.75635
-4.79617
-4.84758
-4.9118
-4.99052
-5.08606
-5.20011
-5.33207
-5.47781
-5.63063
-5.78533
-5.94169
-6.10271
-6.27234
-6.45723
-6.66621
-6.90737
-7.18797
-7.51662
-7.91654
-4.81763
-4.82746
-4.84692
-4.87621
-4.91588
-4.96665
-5.02949
-5.10559
-5.19625
-5.30235
-5.4234
-5.55703
-5.69972
-5.84894
-6.00466
-6.16851
-6.34363
-6.53568
-6.7521
-7.00017
-7.28764
-7.62548
-8.03019
-4.92849
-4.938
-4.95719
-4.98609
-5.02497
-5.07436
-5.13501
-5.2078
-5.29358
-5.39282
-5.50516
-5.62928
-5.76351
-5.90689
-6.05963
-6.22285
-6.39908
-6.59316
-6.8115
-7.06092
-7.34983
-7.68982
-8.0935
-5.03033
-5.03954
-5.05822
-5.08634
-5.12399
-5.17152
-5.22949
-5.29859
-5.37945
-5.4724
-5.57721
-5.69318
-5.81963
-5.95641
-6.10399
-6.26335
-6.43669
-6.62808
-6.84307
-7.08807
-7.37188
-7.70601
-8.10086
-5.1235
-5.13236
-5.15037
-5.17744
-5.21355
-5.25889
-5.31388
-5.37904
-5.45491
-5.54176
-5.63948
-5.74773
-5.86634
-5.99561
-6.13618
-6.28896
-6.45581
-6.64016
-6.84678
-7.08149
-7.35287
-7.67169
-8.04678
-5.20845
-5.2169
-5.23411
-5.25993
-5.29425
-5.33717
-5.38895
-5.45002
-5.5208
-5.60154
-5.69225
-5.79278
-5.90324
-6.02408
-6.156
-6.29981
-6.45703
-6.63048
-6.82412
-7.04301
-7.29476
-7.58869
-7.93205
-5.28568
-5.29368
-5.30998
-5.33439
-5.36675
-5.40706
-5.45547
-5.5123
-5.57788
-5.65245
-5.73605
-5.82867
-5.93053
-6.04211
-6.16402
-6.29693
-6.44195
-6.60127
-6.77807
-6.97639
-7.20227
-7.46289
-7.76352
-5.35577
-5.36327
-5.37857
-5.40145
-5.4317
-5.46925
-5.51416
-5.56664
-5.62694
-5.69525
-5.77162
-5.8561
-5.94892
-6.05053
-6.16142
-6.28197
-6.41288
-6.5557
-6.71279
-6.88703
-7.08256
-7.30407
-7.55451
-5.41928
-5.42625
-5.44047
-5.46173
-5.48976
-5.52444
-5.56575
-5.6138
-5.66876
-5.73077
-5.79984
-5.87601
-5.95948
-6.05062
-6.14976
-6.25701
-6.37263
-6.4975
-6.63315
-6.78134
-6.94434
-7.12441
-7.32221
-5.47678
-5.4832
-5.49629
-5.51585
-5.54158
-5.57331
-5.61095
-5.65453
-5.70415
-5.75987
-5.82165
-5.88949
-5.96349
-6.04391
-6.13093
-6.22443
-6.32423
-6.43062
-6.54431
-6.66607
-6.79654
-6.93604
-7.08357
-5.52883
-5.53469
-5.54662
-5.56443
-5.58782
-5.61655
-5.6505
-5.68961
-5.73393
-5.78343
-5.83804
-5.89766
-5.96229
-6.03205
-6.10696
-6.1867
-6.27077
-6.35891
-6.45117
-6.54745
-6.6472
-6.74935
-6.85186
-5.57601
-5.58129
-5.59204
-5.60809
-5.62912
-5.65486
-5.68513
-5.71984
-5.75893
-5.80236
-5.84998
-5.90163
-5.95718
-6.01659
-6.07975
-6.14618
-6.21512
-6.28591
-6.35805
-6.4308
-6.50283
-6.57225
-6.6364
-5.61887
-5.62358
-5.63316
-5.64746
-5.66614
-5.68893
-5.71559
-5.74599
-5.78001
-5.81755
-5.85845
-5.90246
-5.94935
-5.99895
-6.051
-6.1049
-6.15973
-6.21454
-6.26845
-6.32028
-6.3683
-6.41017
-6.44301
-5.65799
-5.66213
-5.67055
-5.68312
-5.69949
-5.71941
-5.74258
-5.76882
-5.79797
-5.82989
-5.86437
-5.90114
-5.93989
-5.98035
-6.02211
-6.06453
-6.10657
-6.1471
-6.18498
-6.21885
-6.24679
-6.26637
-6.27473
-5.69392
-5.6975
-5.70478
-5.71564
-5.72978
-5.7469
-5.76672
-5.78901
-5.81355
-5.84016
-5.8686
-5.89859
-5.92979
-5.96182
-5.99425
-6.02634
-6.05706
-6.08517
-6.10941
-6.12835
-6.14009
-6.14232
-6.13239
-5.7272
-5.73023
-5.73639
-5.74558
-5.75754
-5.77197
-5.7886
-5.80716
-5.82738
-5.84905
-5.87189
-5.89561
-5.91987
-5.94427
-5.96832
-5.99131
-6.01223
-6.02984
-6.04281
-6.04975
-6.04891
-6.03826
-6.01544
-5.75838
-5.76087
-5.76594
-5.77351
-5.78336
-5.79522
-5.80881
-5.82385
-5.84007
-5.85717
-5.87488
-5.8929
-5.91088
-5.92843
-5.94508
-5.96017
-5.97276
-5.98169
-5.98567
-5.98338
-5.97327
-5.95362
-5.92248
-5.78796
-5.78993
-5.79395
-5.79997
-5.80778
-5.81718
-5.82789
-5.83963
-5.85212
-5.86506
-5.87813
-5.89102
-5.90341
-5.91491
-5.92511
-5.93343
-5.93905
-5.94097
-5.93801
-5.92897
-5.91251
-5.88723
-5.85162
-5.81599
-5.8175
-5.82051
-5.82506
-5.83093
-5.83798
-5.84596
-5.85462
-5.86367
-5.8728
-5.88171
-5.89008
-5.89758
-5.90387
-5.90858
-5.91124
-5.91119
-5.9076
-5.89949
-5.88582
-5.8655
-5.83743
-5.80048
-5.84249
-5.84357
-5.84563
-5.84878
-5.8528
-5.8576
-5.86299
-5.86873
-5.87457
-5.88022
-5.8854
-5.88979
-5.89309
-5.895
-5.89518
-5.89328
-5.8888
-5.8811
-5.86941
-5.85294
-5.83082
-5.80224
-5.76642
-5.86927
-5.86998
-5.87114
-5.87293
-5.87518
-5.87781
-5.88067
-5.88358
-5.88634
-5.8887
-5.89041
-5.8912
-5.89079
-5.88893
-5.88536
-5.87979
-5.87189
-5.8612
-5.84721
-5.82935
-5.80703
-5.77969
-5.74685
-5.89941
-5.8998
-5.90013
-5.90065
-5.9012
-5.90173
-5.90214
-5.90231
-5.90208
-5.90127
-5.89967
-5.89708
-5.89329
-5.88807
-5.88123
-5.87258
-5.8619
-5.84894
-5.83337
-5.81491
-5.79327
-5.76819
-5.73949
-5.92856
-5.92871
-5.92834
-5.92769
-5.92667
-5.92524
-5.92336
-5.92096
-5.91794
-5.91421
-5.90963
-5.90406
-5.89737
-5.88939
-5.88
-5.86906
-5.85644
-5.84203
-5.82571
-5.80746
-5.78728
-5.76525
-5.74155
-5.94069
-5.94099
-5.93994
-5.93815
-5.93559
-5.9323
-5.92827
-5.92348
-5.91793
-5.91159
-5.90443
-5.8964
-5.88748
-5.87758
-5.86666
-5.85467
-5.84156
-5.82736
-5.81214
-5.79609
-5.77951
-5.76279
-5.74636
-28.3507
12.3916
12.4349
12.5585
73.4478
7.12314
12.3276
12.5883
191.501
23.4384
-13.9363
12.5519
161.52
38.915
-16.7976
-3.2394
57.5863
32.5044
2.27007
-13.5818
2.45646
20.9778
5.05373
-27.7418
-5.55083
-5.28054
9.39835
-36.3962
-5.74525
-6.19664
-6.1901
-23.2629
-6.03325
-6.36107
-6.67515
-1.86439
-6.19127
-6.51597
-7.05111
-7.03677
-6.34224
-6.7322
-7.22212
-7.88522
-6.56093
-7.00784
-7.47636
-8.09758
-6.86169
-7.36188
-7.78932
-8.27382
-7.20778
-7.76653
-8.14754
-8.65554
-7.55752
-8.21819
-8.88243
-10.2595
-7.89492
-8.50122
-9.81475
-13.6367
-8.17101
-8.72509
-10.0195
-9.59744
-8.352
-9.02372
-10.184
-12.4822
-8.50858
-9.31537
-10.304
-11.8632
-8.61957
-9.48628
-10.4282
-11.5948
-8.68179
-9.5738
-10.5814
-11.5346
-8.67975
-9.5932
-10.7054
-11.7541
-8.59857
-9.49698
-10.6681
-12.0221
-8.43624
-9.26629
-10.4015
-11.9469
-8.2004
-8.90803
-9.89997
-11.4145
-7.91022
-8.45994
-9.20783
-10.3521
-7.59345
-7.98514
-8.47207
-9.10993
-7.27644
-7.53143
-7.80643
-8.0707
-6.97674
-7.11957
-7.23355
-7.25643
-6.70522
-6.76075
-6.76026
-6.64181
-6.46781
-6.45921
-6.38318
-6.19034
-6.26656
-6.21368
-6.09244
-5.86773
-6.10085
-6.02004
-5.87632
-5.64727
-5.96868
-5.8727
-5.72188
-5.50198
-5.86713
-5.76561
-5.61806
-5.41601
-5.79298
-5.69298
-5.5555
-5.37639
-5.74269
-5.64948
-5.52749
-5.37294
-5.71261
-5.62984
-5.52554
-5.39761
-5.69936
-5.62964
-5.54511
-5.44451
-5.69986
-5.64507
-5.58189
-5.50911
-5.71089
-5.67246
-5.63219
-5.58782
-5.72746
-5.70844
-5.69342
-5.67832
12.6521
12.5878
12.5786
12.5532
12.5271
12.5005
12.4727
12.4432
12.413
12.3825
12.3524
12.3234
12.2961
12.2714
12.2498
12.2319
12.218
12.2085
12.2038
12.6195
12.4792
12.4638
12.4363
12.4092
12.3813
12.3512
12.3194
12.2863
12.2524
12.2185
12.1856
12.1546
12.1262
12.1014
12.0806
12.0646
12.0536
12.048
12.4268
12.3429
12.3316
12.3139
12.2901
12.2613
12.2294
12.195
12.1586
12.1206
12.082
12.044
12.0079
11.9748
11.9457
11.9214
11.9026
11.8897
11.8832
12.0113
12.1554
12.1635
12.1792
12.1687
12.1403
12.1063
12.0696
12.0296
11.9867
11.9421
11.8976
11.855
11.8158
11.7813
11.7526
11.7304
11.7151
11.7074
-7.59788
11.272
12.1019
12.07
12.0476
12.0149
11.9797
11.9419
11.8989
11.8504
11.7983
11.7453
11.6943
11.6474
11.6062
11.5721
11.5457
11.5277
11.5186
-12.7257
-0.188918
11.1191
12.0218
11.9454
11.8708
11.8411
11.8106
11.7663
11.7113
11.6493
11.5854
11.5237
11.4671
11.4179
11.3772
11.346
11.3248
11.3141
-21.029
3.08693
8.5562
11.5461
11.7274
11.6897
11.6784
11.6744
11.6333
11.5693
11.4936
11.4152
11.3401
11.2718
11.213
11.1648
11.1281
11.1033
11.0909
-29.6995
-5.61367
-2.10136
8.92492
11.1913
11.4799
11.5211
11.5434
11.507
11.4242
11.3276
11.2302
11.1386
11.0569
10.9873
10.9309
10.8882
10.8597
10.8454
-29.5773
-18.8235
-6.9334
2.09074
10.6902
11.5344
11.4443
11.4302
11.3829
11.2708
11.1438
11.0227
10.9125
10.8164
10.7357
10.6711
10.6226
10.5904
10.5743
-27.4901
-40.0541
-16.8829
-4.37094
10.3373
11.3776
11.4211
11.3318
11.232
11.0855
10.9268
10.7811
10.6528
10.5432
10.4527
10.3808
10.3273
10.2918
10.2743
-9.17803
-32.2478
-24.9831
-15.9847
4.4306
10.083
11.2452
11.1589
11.0023
10.8334
10.6549
10.4913
10.3495
10.23
10.1324
10.0556
9.99866
9.9611
9.94259
-8.03681
-16.1644
-26.7216
-17.1995
-2.5149
9.031
10.9101
10.817
10.6655
10.5002
10.3158
10.1434
9.99483
9.87089
9.77056
9.69207
9.63412
9.59603
9.57734
-9.77671
-16.3586
-25.4447
-8.19784
1.50214
9.9408
10.6974
10.4131
10.2566
10.0983
9.90919
9.73308
9.58453
9.46254
9.36471
9.28857
9.23253
9.19579
9.17784
-18.749
-26.0021
-14.6693
2.25498
7.59342
11.521
10.4937
9.97571
9.78747
9.61416
9.42084
9.25372
9.11608
9.00434
8.91519
8.84584
8.79476
8.7613
8.74499
-31.9073
-29.4268
-3.50919
7.60971
9.39739
9.8596
9.58724
9.3081
9.16683
9.00153
8.84136
8.70563
8.59261
8.50026
8.42587
8.36736
8.32393
8.29536
8.28141
-72.1979
-57.5955
-14.3193
2.74146
6.06829
8.02858
8.43328
8.51804
8.43926
8.31113
8.19985
8.10629
8.02681
7.95993
7.90424
7.85914
7.82498
7.80223
7.79102
-97.9678
-73.3954
-17.3285
1.23306
5.7259
7.26813
7.6107
7.70238
7.63785
7.57414
7.52282
7.47756
7.43553
7.39603
7.35989
7.32858
7.30381
7.28686
7.27839
-15.8984
-46.8567
-17.6802
-2.34749
4.41474
6.3667
6.68692
6.71827
6.7562
6.80655
6.83373
6.8414
6.8363
6.82181
6.80271
6.78316
6.76629
6.75418
6.74799
-11.2067
-29.4613
-17.4909
-5.45712
2.96544
5.162
5.47658
5.52311
5.79856
6.03902
6.16594
6.22303
6.24687
6.2496
6.24136
6.22918
6.21729
6.20827
6.20353
-10.7026
-15.3125
-17.5145
-10.3329
0.658977
4.98893
4.59749
4.39791
4.88915
5.36217
5.57485
5.65195
5.68307
5.68829
5.68128
5.6704
5.65981
5.65178
5.64756
-12.3435
-11.5837
-16.3923
-14.2061
-1.32472
6.19666
4.74206
3.94793
4.41499
4.93097
5.11559
5.14879
5.15035
5.13831
5.12204
5.10677
5.09437
5.08574
5.08139
-13.6149
-13.5162
-14.148
-15.4602
-5.86488
6.35736
4.82958
4.37752
4.55877
4.74603
4.74779
4.67959
4.62525
4.58503
4.55538
4.53414
4.51935
4.50998
4.50552
-14.1798
-17.4351
-19.0752
-21.9363
-14.1372
0.869772
3.27168
4.30964
4.47481
4.40215
4.26119
4.13577
4.05493
4.00269
3.9688
3.94684
3.93268
3.92432
3.92069
-14.5885
-18.92
-24.9466
-25.8607
-15.2935
-3.6578
1.10653
3.11197
3.55047
3.60747
3.53652
3.46373
3.41226
3.37814
3.3565
3.34296
3.33455
3.32999
3.32899
-13.9707
-17.4233
-21.7246
-21.6826
-13.4881
-6.32375
-1.25448
1.59276
2.36052
2.60297
2.67628
2.70636
2.71657
2.72124
2.72445
2.72693
2.72874
2.72967
2.73492
-12.0177
-13.7706
-15.1235
-14.1957
-10.1531
-5.31636
-1.82411
0.250594
1.17367
1.59211
1.80691
1.9296
2.00419
2.05264
2.08521
2.1072
2.12182
2.12972
2.14137
-9.73945
-10.0737
-9.96438
-9.09091
-7.00708
-4.30988
-2.10706
-0.650713
0.190268
0.680931
0.983597
1.17695
1.30491
1.39189
1.45181
1.49299
1.52065
1.53649
1.55223
-8.1663
-8.01742
-7.50586
-6.54975
-5.17269
-3.66265
-2.31757
-1.27829
-0.566813
-0.0838499
0.247798
0.477984
0.639609
0.754084
0.835322
0.892447
0.931427
0.954775
0.972535
-7.1032
-6.81485
-6.28127
-5.48396
-4.4902
-3.46342
-2.53094
-1.75925
-1.16886
-0.727476
-0.400795
-0.159952
0.0173562
0.147694
0.242928
0.311402
0.358835
0.388152
0.406714
-6.38269
-6.05565
-5.57783
-4.9537
-4.22632
-3.47512
-2.77425
-2.16875
-1.67427
-1.28201
-0.976389
-0.740914
-0.560923
-0.42439
-0.32203
-0.246949
-0.194216
-0.160961
-0.14249
-5.89918
-5.58314
-5.17053
-4.67203
-4.11719
-3.54835
-3.00735
-2.52358
-2.1108
-1.76929
-1.49271
-1.27208
-1.09818
-0.96275
-0.858973
-0.781545
-0.726504
-0.691357
-0.673678
-5.57961
-5.29306
-4.94323
-4.54027
-4.10379
-3.65962
-3.23283
-2.84245
-2.49923
-2.20629
-1.96174
-1.76111
-1.59892
-1.46981
-1.36906
-1.29282
-1.23806
-1.20281
-1.18642
-5.37761
-5.12493
-4.83028
-4.50188
-4.15286
-3.79948
-3.45771
-3.1403
-2.85538
-2.60651
-2.39384
-2.21541
-2.0682
-1.94891
-1.85444
-1.78212
-1.72973
-1.6958
-1.68102
-5.25974
-5.04125
-4.79439
-4.52555
-4.2438
-3.9598
-3.68403
-3.42519
-3.18933
-2.97971
-2.79734
-2.64163
-2.51107
-2.40376
-2.31777
-2.25132
-2.20283
-2.17128
-2.15827
-5.20404
-5.01802
-4.8126
-4.59267
-4.36458
-4.13555
-3.91264
-3.70189
-3.50775
-3.33297
-3.17881
-3.04539
-2.93212
-2.83798
-2.76182
-2.70252
-2.65897
-2.6305
-2.61936
-5.19504
-5.03915
-4.86998
-4.69119
-4.50729
-4.32324
-4.1439
-3.97351
-3.81532
-3.67155
-3.54343
-3.43142
-3.33539
-3.25489
-3.18927
-3.13786
-3.09989
-3.07495
-3.06568
-5.22151
-5.09349
-4.95644
-4.81307
-4.66659
-4.52044
-4.37799
-4.2422
-4.11545
-3.99948
-3.89535
-3.8036
-3.72438
-3.65751
-3.60267
-3.55947
-3.52742
-3.50625
-3.49884
-5.27525
-5.17314
-5.06501
-4.95284
-4.83888
-4.72551
-4.61504
-4.50954
-4.41072
-4.31986
-4.23784
-4.16517
-4.10206
-4.04852
-4.00439
-3.96948
-3.94347
-3.92616
-3.92059
-5.35026
-5.27247
-5.19084
-5.10674
-5.02172
-4.93738
-4.85527
-4.77679
-4.70312
-4.63518
-4.57361
-4.51884
-4.47108
-4.43039
-4.39672
-4.36999
-4.35
-4.33656
-4.33279
-5.44221
-5.38752
-5.33057
-5.27226
-5.21356
-5.15551
-5.09906
-5.04511
-4.99442
-4.94758
-4.90503
-4.86707
-4.83387
-4.80551
-4.78196
-4.76321
-4.74914
-4.7395
-4.73745
-5.54776
-5.51531
-5.48174
-5.44755
-5.41329
-5.37949
-5.3467
-5.31539
-5.28597
-5.25876
-5.23401
-5.2119
-5.19253
-5.17594
-5.16214
-5.15112
-5.14282
-5.13685
-5.13645
-5.66494
-5.65421
-5.64321
-5.6321
-5.62103
-5.61018
-5.59969
-5.5897
-5.58033
-5.57167
-5.5638
-5.55675
-5.55057
-5.54527
-5.54084
-5.5373
-5.53467
-5.53261
-5.5327
)
;

boundaryField
{
    leftWall
    {
        type            calculated;
        value           nonuniform List<scalar> 
50
(
1604.13
1544.43
1483.87
1422.5
1360.35
1297.47
1233.94
1169.83
1068.72
929.039
787.907
645.724
503.129
360.846
219.955
91.4603
16.8349
-3.37859
-3.50803
-3.66218
-3.81944
-3.97486
-4.1299
-4.28218
-4.42867
-4.56713
-4.69737
-4.81763
-4.92849
-5.03033
-5.1235
-5.20845
-5.28568
-5.35577
-5.41928
-5.47678
-5.52883
-5.57601
-5.61887
-5.65799
-5.69392
-5.7272
-5.75838
-5.78796
-5.81599
-5.84249
-5.86927
-5.89941
-5.92856
-5.94069
)
;
    }
    rightWall
    {
        type            calculated;
        value           nonuniform List<scalar> 
50
(
12.7599
12.6999
12.6387
12.5762
12.5124
12.4472
12.3807
12.3126
12.2038
12.048
11.8832
11.7074
11.5186
11.3141
11.0909
10.8454
10.5743
10.2743
9.94259
9.57734
9.17784
8.74499
8.28141
7.79102
7.27839
6.74799
6.20353
5.64756
5.08139
4.50552
3.92069
3.32899
2.73492
2.14137
1.55223
0.972535
0.406714
-0.14249
-0.673678
-1.18642
-1.68102
-2.15827
-2.61936
-3.06568
-3.49884
-3.92059
-4.33279
-4.73745
-5.13645
-5.5327
)
;
    }
    lowerWall
    {
        type            calculated;
        value           nonuniform List<scalar> 
62
(
1633.56
1640.01
1642.18
1639.23
1631.38
1620.89
1609.59
1598.29
1587.44
1577.55
1569.39
1564.02
1562.95
1568.19
1582.34
1608.84
1650.55
1707.4
1773.76
1832.24
1851.6
1833.99
1878.84
1855.58
1800.74
1763.85
1744.66
1689.37
1591.23
1436.52
1208.61
20.2515
12.4652
12.498
12.6211
13.0653
13.0075
12.9511
12.8962
12.8433
12.7915
12.7408
12.6957
13.0948
13.0879
13.0758
13.06
13.041
13.0196
12.9966
12.9726
12.9482
12.924
12.9005
12.8781
12.8575
12.8389
12.8229
12.8097
12.7996
12.7927
12.7893
)
;
    }
    atmosphere
    {
        type            calculated;
        value           nonuniform List<scalar> 
46
(
-5.93103
-5.93194
-5.93044
-5.92804
-5.92474
-5.92055
-5.91551
-5.90965
-5.90299
-5.89557
-5.88741
-5.87854
-5.86898
-5.85873
-5.8478
-5.83619
-5.82393
-5.8111
-5.79786
-5.78449
-5.77139
-5.75914
-5.74822
-5.73749
-5.72998
-5.72904
-5.72904
-5.72904
-5.72904
-5.72904
-5.72904
-5.72904
-5.72904
-5.72904
-5.72904
-5.72904
-5.72904
-5.72904
-5.72904
-5.72904
-5.72904
-5.72904
-5.72904
-5.72904
-5.72904
-5.72904
)
;
    }
    defaultFaces
    {
        type            empty;
    }
}


// ************************************************************************* //
