/*--------------------------------*- C++ -*----------------------------------*\
| =========                 |                                                 |
| \\      /  F ield         | OpenFOAM: The Open Source CFD Toolbox           |
|  \\    /   O peration     | Version:  2206                                  |
|   \\  /    A nd           | Website:  www.openfoam.com                      |
|    \\/     M anipulation  |                                                 |
\*---------------------------------------------------------------------------*/
FoamFile
{
    version     2.0;
    format      ascii;
    arch        "LSB;label=32;scalar=64";
    class       volScalarField;
    location    "0.25";
    object      p_rgh;
}
// * * * * * * * * * * * * * * * * * * * * * * * * * * * * * * * * * * * * * //

dimensions      [1 -1 -2 0 0 0 0];

internalField   nonuniform List<scalar> 
2268
(
1633.56
1640.01
1642.18
1639.23
1631.38
1620.89
1609.59
1598.29
1587.44
1577.55
1569.39
1564.02
1562.95
1568.19
1582.34
1608.84
1650.55
1707.4
1773.76
1832.24
1851.6
1833.99
1878.84
1632.71
1639.05
1641.19
1638.18
1630.31
1619.84
1608.55
1597.22
1586.29
1576.27
1567.93
1562.34
1561
1565.84
1579.09
1602.72
1640.53
1693.37
1758.84
1821.45
1848.54
1821.29
1877.5
1631.02
1637.15
1639.22
1636.09
1628.17
1617.74
1606.47
1595.07
1583.98
1573.7
1565
1558.97
1557.07
1561.2
1573.51
1596.48
1631.2
1678.79
1736.2
1794.42
1836.42
1849.73
1906.26
1628.5
1634.36
1636.3
1632.98
1625.01
1614.63
1603.36
1591.86
1580.51
1569.83
1560.6
1553.89
1551.17
1554.27
1565.3
1586.37
1618.63
1662.35
1714.18
1767.5
1818.82
1864.73
1943.04
1625.21
1630.73
1632.49
1628.91
1620.86
1610.53
1599.26
1587.59
1575.88
1564.65
1554.68
1547.06
1543.24
1545
1554.37
1573.27
1602.86
1643.13
1691.61
1742.61
1796.91
1856.33
1944.39
1621.19
1626.36
1627.84
1623.94
1615.8
1605.5
1594.18
1582.26
1570.06
1558.12
1547.21
1538.43
1533.2
1533.28
1540.61
1557.05
1583.75
1620.66
1666
1714.94
1767.41
1824.79
1902.95
1616.52
1621.33
1622.4
1618.09
1609.86
1599.6
1588.18
1575.9
1563.1
1550.27
1538.22
1528.02
1521.07
1519.1
1523.98
1537.54
1561.01
1594.36
1635.99
1681.52
1727.76
1771.45
1805.69
1611.27
1615.68
1616.12
1611.35
1603.06
1592.84
1581.28
1568.57
1555.02
1541.16
1527.78
1515.94
1506.99
1502.61
1504.65
1514.86
1534.59
1563.95
1601.12
1641.38
1676.61
1699.77
1649.05
13.0948
13.0879
13.0758
13.06
13.041
13.0196
12.9966
12.9726
12.9482
12.924
12.9005
12.8781
12.8575
12.8389
12.8229
12.8097
12.7996
12.7927
12.7893
13.0958
13.0887
13.0766
13.0607
13.0415
13.02
12.9968
12.9727
12.9481
12.9237
12.9001
12.8776
12.8568
12.8382
12.822
12.8087
12.7985
12.7917
12.7882
13.0982
13.0905
13.0782
13.062
13.0425
13.0207
12.9973
12.9729
12.9481
12.9234
12.8994
12.8766
12.8556
12.8366
12.8202
12.8067
12.7963
12.7893
12.7858
13.1022
13.0931
13.0805
13.064
13.044
13.0218
12.9981
12.9732
12.9479
12.9228
12.8984
12.8751
12.8536
12.8342
12.8174
12.8035
12.7929
12.7858
12.7822
13.1081
13.0965
13.0836
13.0667
13.0461
13.0233
12.999
12.9737
12.9478
12.9221
12.897
12.8731
12.851
12.831
12.8136
12.7993
12.7883
12.781
12.7772
13.1153
13.1003
13.0875
13.0701
13.0485
13.0251
13.0002
12.9742
12.9476
12.9211
12.8953
12.8706
12.8476
12.8269
12.8088
12.7939
12.7825
12.7748
12.771
13.1234
13.1048
13.0925
13.074
13.0514
13.0272
13.0017
12.9748
12.9474
12.92
12.8931
12.8674
12.8435
12.8218
12.803
12.7874
12.7754
12.7673
12.7632
13.1372
13.11
13.0993
13.0787
13.0548
13.0297
13.0033
12.9755
12.9471
12.9186
12.8905
12.8637
12.8386
12.8159
12.796
12.7796
12.7669
12.7584
12.754
1602.19
1605.84
1605.23
1599.72
1591.25
1580.97
1569.02
1555.42
1540.48
1524.71
1508.9
1494.04
1481.41
1472.63
1469.47
1473.69
1486.65
1508.89
1538.21
1567.85
1578.06
1542.68
1241.88
1587.7
1590.28
1588.14
1581.51
1572.46
1561.52
1548.35
1532.81
1515.13
1495.73
1475.28
1454.6
1434.93
1417.96
1405.41
1399.09
1400.33
1408.55
1422.82
1432.76
1418.35
1357.87
1175.1
1571.76
1573.11
1569.06
1561.14
1551.25
1539.14
1524.1
1505.88
1484.57
1460.43
1433.98
1405.86
1377.25
1349.51
1323.71
1301.63
1288.31
1290.37
1295.19
1303.98
1307.69
1276.75
1205.86
1554.77
1554.54
1548.37
1539.07
1528.04
1514.2
1496.63
1475.07
1449.48
1419.83
1386.53
1349.55
1308.96
1262.73
1211.2
1145.91
1054.35
958.967
930.965
999.811
1120.5
1155.72
1153.57
1537.37
1534.73
1526.42
1515.92
1503.58
1487.55
1467.07
1442
1412.02
1376.22
1334.43
1284.29
1218.49
1060.91
789.705
478.557
251.259
148.084
94.18
123.177
217.844
415.233
734.316
1520.27
1514.87
1504.76
1493.12
1479.23
1460.35
1436.4
1407.04
1371.22
1318.2
1206.47
962.633
604.146
161.515
0.62375
-0.436621
-0.0160927
0.589414
1.15458
1.07129
0.556529
0.289599
27.0038
1504.22
1494.16
1481.48
1468.4
1452.51
1422.17
1357.44
1235.78
1025.85
679.244
338.819
12.6439
-1.38161
-1.18263
-0.947458
-0.892694
-0.589062
-0.0762108
0.396158
0.199556
-0.887381
-2.21874
-2.82197
1442.53
1164.71
1134.12
1078.18
953.871
741.022
496.33
265.977
54.2353
-1.49031
-1.85583
-1.73421
-1.70901
-1.58689
-1.42794
-1.28952
-1.10031
1.82345
1.86837
0.845522
-1.80854
-3.70246
-3.9563
507.213
152.332
124.545
87.1599
25.72
-1.40986
-1.57469
-1.67283
-1.68965
-1.75143
-1.8782
-1.95378
-1.99189
-1.98049
-1.90227
-1.77777
-0.277585
1.83907
1.03192
0.0880464
-2.99363
-4.26995
-4.30461
-1.71837
-1.70081
-1.69541
-1.69702
-1.67712
-1.64415
-1.66018
-1.70285
-1.76529
-1.86703
-2.0137
-2.19368
-2.15885
-2.2784
-2.49797
-2.3594
0.129326
1.42656
0.709942
-2.01161
-4.1712
-4.25589
-4.31065
-1.72262
-1.70242
-1.706
-1.71195
-1.71155
-1.70939
-1.72808
-1.77474
-1.86509
-2.01736
-2.22461
-2.27629
-1.9049
-2.23584
-2.99258
-2.92356
-0.284797
1.04226
-0.924255
-3.93457
-4.13272
-4.1907
-4.2994
-1.75157
-1.73647
-1.74227
-1.75247
-1.76242
-1.77824
-1.81138
-1.87072
-1.9869
-2.17649
-2.3987
-1.76323
-2.29156
-2.67224
-3.42234
-2.54544
0.378876
0.00510512
-3.54066
-4.0115
-4.09567
-4.19153
-4.3547
-1.78364
-1.78497
-1.78947
-1.80138
-1.8188
-1.84581
-1.88961
-1.96194
-2.09672
-2.31262
-2.3882
-1.94534
-2.42467
-3.20607
-3.53569
-0.708905
0.182304
-2.83184
-3.88179
-3.98664
-4.09986
-4.2438
-4.46971
-1.81386
-1.8234
-1.83138
-1.84805
-1.87233
-1.9078
-1.95955
-2.03986
-2.17851
-2.39509
-2.65004
-2.94743
-2.35125
-2.61432
-2.6913
-0.56806
-3.10125
-3.76886
-3.86861
-3.98936
-4.14206
-4.33677
-4.62137
-1.84371
-1.85784
-1.86888
-1.88987
-1.91981
-1.9618
-2.01932
-2.09994
-2.23016
-2.42495
-2.69251
-3.02801
-2.88459
-2.28923
-2.31927
-2.88173
-3.67011
-3.74109
-3.86594
-4.02001
-4.20945
-4.44924
-4.76941
-1.8708
-1.88576
-1.89977
-1.92415
-1.95845
-2.00494
-2.06547
-2.14652
-2.263
-2.42656
-2.64307
-2.89904
-3.11013
-2.70309
-3.05844
-3.51696
-3.60432
-3.7249
-3.87832
-4.06196
-4.28372
-4.55987
-4.90618
-1.89209
-1.90596
-1.92249
-1.94929
-1.98662
-2.03599
-2.09907
-2.18005
-2.28673
-2.42589
-2.59997
-2.79792
-2.98871
-3.15188
-3.29185
-3.4259
-3.56227
-3.71512
-3.89176
-4.1002
-4.34813
-4.64778
-5.0194
-1.90536
-1.91814
-1.93616
-1.96447
-2.00358
-2.0546
-2.11897
-2.19936
-2.29992
-2.42393
-2.57175
-2.73636
-2.90407
-3.06403
-3.21631
-3.36854
-3.52697
-3.69919
-3.89483
-4.12332
-4.39305
-4.70381
-5.09481
-1.9104
-1.92093
-1.94023
-1.96938
-2.0092
-2.06061
-2.12483
-2.20355
-2.29909
-2.41307
-2.54486
-2.69061
-2.84362
-2.99836
-3.15473
-3.31574
-3.48537
-3.67026
-3.87924
-4.1204
-4.401
-4.72964
-5.1295
-1.90547
-1.9153
-1.93476
-1.96405
-2.00372
-2.05449
-2.11733
-2.19342
-2.28409
-2.39019
-2.51119
-2.64481
-2.78755
-2.93678
-3.09249
-3.25634
-3.43147
-3.62352
-3.83993
-4.08801
-4.37547
-4.7133
-5.11796
-1.89114
-1.90064
-1.91983
-1.94873
-1.98761
-2.037
-2.09765
-2.17044
-2.25622
-2.35546
-2.4678
-2.59192
-2.72616
-2.86954
-3.02228
-3.18549
-3.36173
-3.55581
-3.77414
-4.02356
-4.31247
-4.65245
-5.05606
-1.86777
-1.87698
-1.89567
-1.92379
-1.96144
-2.00897
-2.06694
-2.13603
-2.2169
-2.30985
-2.41466
-2.53063
-2.65708
-2.79386
-2.94143
-3.1008
-3.27414
-3.46552
-3.68052
-3.92551
-4.20933
-4.54345
-4.93826
-1.83575
-1.84461
-1.86262
-1.8897
-1.9258
-1.97114
-2.02613
-2.0913
-2.16717
-2.25401
-2.35174
-2.45998
-2.57859
-2.70787
-2.84843
-3.00121
-3.16806
-3.35242
-3.55903
-3.79375
-4.06512
-4.38393
-4.75899
-1.7955
-1.80396
-1.82117
-1.84699
-1.88131
-1.92423
-1.97601
-2.03708
-2.10786
-2.1886
-2.27931
-2.37984
-2.4903
-2.61114
-2.74305
-2.88687
-3.04409
-3.21754
-3.41118
-3.63007
-3.88182
-4.17575
-4.51907
-1.74755
-1.75554
-1.77184
-1.79625
-1.82862
-1.86892
-1.91733
-1.97416
-2.03974
-2.11431
-2.19791
-2.29054
-2.39239
-2.50397
-2.62589
-2.75879
-2.90381
-3.06314
-3.23994
-3.43826
-3.66414
-3.92475
-4.22537
-1.69244
-1.69994
-1.71524
-1.73812
-1.76837
-1.80592
-1.85083
-1.90331
-1.96361
-2.03192
-2.10829
-2.19277
-2.28559
-2.3872
-2.49809
-2.61864
-2.74955
-2.89237
-3.04946
-3.2237
-3.41923
-3.64074
-3.89117
-1.63075
-1.63773
-1.65195
-1.6732
-1.70124
-1.73592
-1.77723
-1.82527
-1.88024
-1.94224
-2.01131
-2.08748
-2.17096
-2.2621
-2.36123
-2.46849
-2.58411
-2.70898
-2.84463
-2.99282
-3.15581
-3.33588
-3.53368
-1.56306
-1.56948
-1.58257
-1.60213
-1.62786
-1.65959
-1.69723
-1.74081
-1.79043
-1.84615
-1.90793
-1.97577
-2.04977
-2.13019
-2.21721
-2.31071
-2.41052
-2.5169
-2.63059
-2.75235
-2.88282
-3.02233
-3.16985
-1.48992
-1.49577
-1.5077
-1.52552
-1.5489
-1.57764
-1.61158
-1.6507
-1.69501
-1.74452
-1.79913
-1.85875
-1.92338
-1.99313
-2.06805
-2.14779
-2.23186
-2.32
-2.41226
-2.50854
-2.60828
-2.71043
-2.81294
-1.4119
-1.41718
-1.42793
-1.44399
-1.46501
-1.49075
-1.52102
-1.55573
-1.59482
-1.63825
-1.68588
-1.73752
-1.79307
-1.85248
-1.91564
-1.98207
-2.05101
-2.1218
-2.19394
-2.26669
-2.33872
-2.40814
-2.47229
-1.32957
-1.33427
-1.34385
-1.35815
-1.37683
-1.39963
-1.42629
-1.45669
-1.49071
-1.52825
-1.56914
-1.61315
-1.66005
-1.70965
-1.76169
-1.8156
-1.87043
-1.92524
-1.97914
-2.03098
-2.07899
-2.12087
-2.15371
-1.2435
-1.24763
-1.25605
-1.26862
-1.285
-1.30491
-1.32808
-1.35432
-1.38348
-1.41539
-1.44987
-1.48664
-1.5254
-1.56585
-1.60762
-1.65003
-1.69207
-1.7326
-1.77048
-1.80436
-1.8323
-1.85187
-1.86023
-1.15423
-1.15781
-1.16509
-1.17595
-1.19009
-1.20721
-1.22703
-1.24932
-1.27386
-1.30047
-1.32891
-1.3589
-1.39009
-1.42213
-1.45456
-1.48665
-1.51737
-1.54548
-1.56972
-1.58866
-1.60039
-1.60263
-1.5927
-1.06232
-1.06534
-1.0715
-1.0807
-1.09265
-1.10709
-1.12372
-1.14227
-1.1625
-1.18416
-1.207
-1.23073
-1.25499
-1.27938
-1.30344
-1.32643
-1.34735
-1.36495
-1.37792
-1.38487
-1.38403
-1.37337
-1.35056
-0.968301
-0.970786
-0.975856
-0.983433
-0.99328
-1.00514
-1.01873
-1.03377
-1.04998
-1.06709
-1.0848
-1.10282
-1.1208
-1.13835
-1.155
-1.17009
-1.18268
-1.19161
-1.19559
-1.1933
-1.18319
-1.16354
-1.1324
-0.87268
-0.874651
-0.878669
-0.884693
-0.892508
-0.901904
-0.912614
-0.924359
-0.936848
-0.949781
-0.96285
-0.975745
-0.988129
-0.99963
-1.00983
-1.01815
-1.02378
-1.02569
-1.02273
-1.01369
-0.997238
-0.971955
-0.936343
-0.775524
-0.777025
-0.780043
-0.784591
-0.790464
-0.79751
-0.805492
-0.814149
-0.823198
-0.832332
-0.841239
-0.849607
-0.857109
-0.863399
-0.868108
-0.870769
-0.870724
-0.867132
-0.859017
-0.845348
-0.825035
-0.796961
-0.760011
-0.676823
-0.677903
-0.679969
-0.683112
-0.687134
-0.691936
-0.697321
-0.703063
-0.708903
-0.714559
-0.719732
-0.724124
-0.727429
-0.729334
-0.729519
-0.727616
-0.723136
-0.715433
-0.703749
-0.687271
-0.665154
-0.636573
-0.600756
-0.57841
-0.579119
-0.580278
-0.582074
-0.584319
-0.586946
-0.589809
-0.592724
-0.595482
-0.597844
-0.599551
-0.600339
-0.599934
-0.598072
-0.594498
-0.588929
-0.581027
-0.570346
-0.556353
-0.538488
-0.516168
-0.48883
-0.455993
-0.483356
-0.483743
-0.484076
-0.484599
-0.485146
-0.485676
-0.486091
-0.48626
-0.486028
-0.485213
-0.483615
-0.481028
-0.477233
-0.472015
-0.465181
-0.456528
-0.445851
-0.432885
-0.41732
-0.398856
-0.377214
-0.352132
-0.323435
-0.387308
-0.38746
-0.38709
-0.386446
-0.385419
-0.383991
-0.382113
-0.37971
-0.376697
-0.372963
-0.368379
-0.362811
-0.356117
-0.348145
-0.338756
-0.327812
-0.315192
-0.300778
-0.284464
-0.266208
-0.24603
-0.224005
-0.200299
-0.274248
-0.274549
-0.273497
-0.271705
-0.269151
-0.265858
-0.261825
-0.257038
-0.251484
-0.245145
-0.237985
-0.229962
-0.221032
-0.211139
-0.200221
-0.188224
-0.175118
-0.160914
-0.145694
-0.129644
-0.113064
-0.096343
-0.0799209
385.847
13.0183
12.9724
13.0922
726.361
255.075
12.987
13.2476
975.343
795.982
341.569
13.5606
1070.05
946.828
886.024
385.997
1090.54
1059.66
1019.39
970.216
193.177
810.841
1137.5
1071.11
-2.44381
24.4468
623.22
1147.09
-4.06471
-4.16076
0.480548
852.028
-4.45477
-4.73871
-4.77898
270.393
-4.52283
-4.83994
-5.35755
-4.98471
-4.55282
-4.94032
-5.42721
-6.06365
-4.64595
-5.09247
-5.55879
-6.17681
-4.79097
-5.30559
-5.74268
-6.22464
-4.97627
-5.57234
-5.97235
0.0349471
-5.22835
-5.71602
-6.56015
19.6797
-5.46099
-5.62418
-7.3533
207.974
-5.63434
-6.08633
-7.37248
167.374
-5.69011
-6.35287
-4.81565
-9.69224
-5.7209
-6.47942
-7.1567
-8.98236
-5.70547
-6.57048
-7.51053
-8.66053
-5.64398
-6.53572
-7.42987
-6.77815
-5.51679
-6.42973
-7.52581
-6.86321
-5.31041
-6.20707
-7.37195
-8.26602
-5.02297
-5.85117
-6.97648
-8.44807
-4.66206
-5.36844
-6.34923
-7.77695
-4.24678
-4.79575
-5.53694
-6.63316
-3.80489
-4.19636
-4.68136
-5.30628
-3.36272
-3.61767
-3.8924
-4.155
-2.93782
-3.08065
-3.1946
-3.21728
-2.54111
-2.59665
-2.59615
-2.47767
-2.17851
-2.16991
-2.09387
-1.90103
-1.85206
-1.79918
-1.67794
-1.45323
-1.56116
-1.48035
-1.33663
-1.10758
-1.30379
-1.20781
-1.057
-0.837091
-1.07705
-0.975529
-0.827976
-0.625931
-0.877708
-0.777704
-0.640229
-0.461111
-0.702216
-0.60901
-0.487019
-0.332466
-0.546947
-0.464171
-0.359875
-0.231946
-0.408497
-0.33878
-0.25425
-0.153653
-0.283805
-0.229015
-0.165841
-0.0930526
-0.169641
-0.13121
-0.0909438
-0.046571
-0.0610132
-0.0419933
-0.0269739
-0.0118808
13.1856
13.1213
13.1121
13.0867
13.0605
13.034
13.0061
12.9767
12.9465
12.916
12.8858
12.8568
12.8296
12.8049
12.7833
12.7653
12.7515
12.742
12.7372
13.2785
13.1381
13.1225
13.0949
13.0679
13.04
13.0099
12.9781
12.9449
12.911
12.8772
12.8443
12.8132
12.7849
12.76
12.7393
12.7232
12.7123
12.7067
13.2216
13.1343
13.1167
13.0979
13.074
13.0452
13.0133
12.9789
12.9424
12.9044
12.8658
12.8278
12.7917
12.7586
12.7296
12.7053
12.6865
12.6736
12.667
14.9157
13.3128
13.1163
13.0933
13.0785
13.0495
13.0154
12.9786
12.9386
12.8958
12.8512
12.8067
12.764
12.7248
12.6904
12.6617
12.6394
12.6242
12.6165
503.871
33.1998
13.7489
13.2268
13.0983
13.0512
13.0142
12.9762
12.9331
12.8846
12.8325
12.7796
12.7285
12.6816
12.6405
12.6063
12.58
12.562
12.5529
1044.44
615.687
51.2736
14.6394
13.3899
13.0706
13.0053
12.9705
12.9258
12.8707
12.8088
12.7449
12.6831
12.6266
12.5773
12.5367
12.5054
12.4842
12.4736
1116.78
1095.02
514.449
39.948
15.6339
13.3605
13.0227
12.966
12.9185
12.8539
12.7782
12.6998
12.6247
12.5565
12.4976
12.4494
12.4127
12.3879
12.3755
1168.87
1146.04
997.977
310.396
26.5192
15.4712
13.346
13.0126
12.9247
12.8349
12.7375
12.6401
12.5484
12.4667
12.3971
12.3407
12.2981
12.2695
12.2553
1134.22
1184
1157.06
656.953
88.8705
20.9655
14.5744
13.2473
12.962
12.8118
12.6796
12.5578
12.4476
12.3514
12.2708
12.2061
12.1577
12.1254
12.1093
584.688
1218.87
1187.68
1020.21
247.289
28.8615
16.7786
13.743
13.0244
12.7657
12.5896
12.4416
12.313
12.2034
12.1129
12.041
11.9875
11.9521
11.9345
85.6433
963.98
1225.93
1151.19
454.708
44.8012
19.192
14.2988
13.0462
12.6609
12.4461
12.2774
12.135
12.0154
11.9178
11.841
11.7841
11.7465
11.728
-6.03396
610.963
1222.29
1139.64
804.726
117.251
21.74
14.7966
12.9901
12.4808
12.2364
12.0552
11.9056
11.7815
11.6812
11.6027
11.5447
11.5066
11.4879
-7.72297
545.398
1190.95
1191.39
941.437
145.707
24.3818
15.2487
12.8568
12.2292
11.9584
11.7705
11.6205
11.4984
11.4005
11.3244
11.2683
11.2316
11.2136
31.4727
831.081
1177.8
1252.31
825.386
109.734
23.9661
14.7771
12.4622
11.8599
11.5938
11.4162
11.2772
11.1653
11.0762
11.0068
10.9558
10.9223
10.906
331.55
1070.85
1199.19
940.496
407.514
46.048
18.7137
13.1458
11.7639
11.3383
11.1346
10.9927
10.8789
10.7865
10.7121
10.6536
10.6101
10.5816
10.5676
782.549
962.922
733.615
274.648
51.1023
29.047
14.3071
11.7225
10.9993
10.7449
10.6145
10.5181
10.4382
10.3713
10.3156
10.2705
10.2364
10.2136
10.2024
735.001
848.525
223.185
51.1151
25.19
14.5484
11.1393
10.4486
10.219
10.1187
10.0607
10.0143
9.97213
9.93261
9.89646
9.86516
9.84039
9.82344
9.81497
596.658
827.409
428.529
27.8147
14.034
10.801
9.63637
9.42778
9.42836
9.47046
9.4959
9.50324
9.49808
9.48358
9.46448
9.44494
9.42807
9.41596
9.40976
206.753
816.216
764.803
226.92
9.55226
8.67045
8.358
8.32311
8.58824
8.82659
8.95302
9.01001
9.03384
9.03657
9.02833
9.01615
9.00426
8.99524
8.9905
-7.69227
744.881
739.115
720.777
173.598
10.4596
7.80925
7.34137
7.80511
8.2748
8.48708
8.56412
8.59523
8.60046
8.59344
8.58256
8.57197
8.56394
8.55972
-8.19853
410.484
746.148
724.582
702.378
117.666
10.4311
7.29645
7.48682
7.97252
8.1535
8.18622
8.18772
8.17567
8.1594
8.14413
8.13173
8.1231
8.11874
-7.47643
0.41063
726.067
717.248
709.881
543.024
87.4253
11.063
8.3807
7.9978
7.91913
7.84277
7.78784
7.74759
7.71794
7.69669
7.6819
7.67253
7.66808
-1.87098
-4.78842
313.972
722.143
702.805
642.266
92.5547
12.3865
8.60317
7.79534
7.55863
7.42419
7.34271
7.29044
7.25655
7.23458
7.22042
7.21206
7.20844
-5.49552
4.14806
2.45822
335.012
409.264
234.075
69.6567
13.9721
8.3027
7.25468
6.97536
6.87867
6.82532
6.79108
6.76944
6.7559
6.74749
6.74293
6.74193
-9.4131
-3.85181
1.64753
9.53023
26.7679
13.2934
24.6273
11.2697
7.14853
6.34497
6.23795
6.24633
6.25482
6.25938
6.26259
6.26506
6.26687
6.2678
6.27305
-8.02767
-4.86902
-1.91745
-4.9728
0.380693
3.03135
3.88763
4.32754
4.89571
5.267
5.47199
5.59311
5.66754
5.71597
5.74854
5.77053
5.78515
5.79305
5.8047
-5.87558
-4.87531
-4.23122
-4.0993
-1.61195
0.677256
2.26095
3.26819
3.99641
4.47107
4.77223
4.96548
5.09344
5.18042
5.24033
5.28151
5.30917
5.32502
5.34075
-4.24191
-3.87633
-3.29103
-2.40693
-0.930852
0.519131
1.73427
2.67237
3.35188
3.83031
4.16154
4.3917
4.55333
4.6678
4.74904
4.80617
4.84515
4.86849
4.88625
-3.06286
-2.74835
-2.20552
-1.40582
-0.391575
0.628526
1.53725
2.28915
2.87135
3.31155
3.63813
3.87896
4.05627
4.18661
4.28184
4.35032
4.39775
4.42707
4.44563
-2.21831
-1.88975
-1.41002
-0.783464
-0.0523461
0.698445
1.39546
1.99741
2.49014
2.88212
3.18772
3.42319
3.60319
3.73972
3.84208
3.91716
3.96989
4.00315
4.02162
-1.60986
-1.29374
-0.880884
-0.381844
0.173621
0.742504
1.28293
1.76611
2.17857
2.52002
2.79659
3.01722
3.19112
3.32655
3.43033
3.50776
3.5628
3.59795
3.61563
-1.16511
-0.878556
-0.528691
-0.125651
0.310918
0.755111
1.18183
1.57212
1.91528
2.20821
2.45275
2.65339
2.81558
2.94469
3.04544
3.12168
3.17644
3.21169
3.22807
-0.837913
-0.585238
-0.290584
0.0378252
0.386861
0.740248
1.08201
1.3994
1.68431
1.93318
2.14585
2.32428
2.47149
2.59078
2.68525
2.75757
2.80997
2.84389
2.85867
-0.594855
-0.376364
-0.129498
0.139336
0.421088
0.705088
0.98086
1.2397
1.47556
1.68517
1.86754
2.02326
2.15382
2.26112
2.34712
2.41356
2.46206
2.49361
2.50661
-0.413963
-0.227936
-0.0225168
0.197412
0.425503
0.654536
0.877445
1.0882
1.28234
1.45711
1.61127
1.74469
1.85796
1.9521
2.02826
2.08756
2.13111
2.15958
2.17073
-0.279765
-0.123875
0.0452978
0.224083
0.407987
0.592034
0.771371
0.941769
1.09996
1.24373
1.37184
1.48386
1.57988
1.66038
1.726
1.77742
1.81538
1.84032
1.8496
-0.181044
-0.053019
0.0840338
0.227395
0.373878
0.520027
0.662483
0.798274
0.925017
1.04099
1.14512
1.23687
1.31609
1.38296
1.4378
1.481
1.51305
1.53422
1.54163
-0.109582
-0.00747038
0.100658
0.212823
0.326784
0.440157
0.550627
0.656126
0.754948
0.845806
0.927825
1.00049
1.0636
1.11715
1.16127
1.19619
1.2222
1.2395
1.24508
-0.059404
0.018387
0.100024
0.184118
0.269138
0.353479
0.435589
0.514066
0.587737
0.655683
0.71725
0.772021
0.819781
0.860471
0.894136
0.920869
0.940858
0.954298
0.958068
-0.0261537
0.0285329
0.0854849
0.143797
0.20249
0.260548
0.316993
0.370939
0.421634
0.468476
0.511024
0.548982
0.582179
0.610547
0.634091
0.652844
0.666916
0.67655
0.6786
-0.00651277
0.0259402
0.0595114
0.0936973
0.127962
0.161753
0.194544
0.225857
0.255282
0.282491
0.307237
0.329347
0.348721
0.36531
0.37911
0.390131
0.398432
0.404397
0.404796
0.00150452
0.0122317
0.0232305
0.0343438
0.0454095
0.0562641
0.0667539
0.0767419
0.086112
0.0947708
0.102647
0.109691
0.115873
0.121176
0.125598
0.12914
0.131768
0.13383
0.133738
)
;

boundaryField
{
    leftWall
    {
        type            fixedFluxPressure;
        gradient        uniform 0;
        value           nonuniform List<scalar> 
50
(
1633.56
1632.71
1631.02
1628.5
1625.21
1621.19
1616.52
1611.27
1602.19
1587.7
1571.76
1554.77
1537.37
1520.27
1504.22
1442.53
507.213
-1.71837
-1.72262
-1.75157
-1.78364
-1.81386
-1.84371
-1.8708
-1.89209
-1.90536
-1.9104
-1.90547
-1.89114
-1.86777
-1.83575
-1.7955
-1.74755
-1.69244
-1.63075
-1.56306
-1.48992
-1.4119
-1.32957
-1.2435
-1.15423
-1.06232
-0.968301
-0.87268
-0.775524
-0.676823
-0.57841
-0.483356
-0.387308
-0.274248
)
;
    }
    rightWall
    {
        type            fixedFluxPressure;
        gradient        uniform 0;
        value           nonuniform List<scalar> 
50
(
12.7893
12.7882
12.7858
12.7822
12.7772
12.771
12.7632
12.754
12.7372
12.7067
12.667
12.6165
12.5529
12.4736
12.3755
12.2553
12.1093
11.9345
11.728
11.4879
11.2136
10.906
10.5676
10.2024
9.81497
9.40976
8.9905
8.55972
8.11874
7.66808
7.20844
6.74193
6.27305
5.8047
5.34075
4.88625
4.44563
4.02162
3.61563
3.22807
2.85867
2.50661
2.17073
1.8496
1.54163
1.24508
0.958068
0.6786
0.404796
0.133738
)
;
    }
    lowerWall
    {
        type            fixedFluxPressure;
        gradient        uniform 0;
        value           nonuniform List<scalar> 
62
(
1633.56
1640.01
1642.18
1639.23
1631.38
1620.89
1609.59
1598.29
1587.44
1577.55
1569.39
1564.02
1562.95
1568.19
1582.34
1608.84
1650.55
1707.4
1773.76
1832.24
1851.6
1833.99
1878.84
1878.84
1877.5
1906.26
1943.04
1944.39
1902.95
1805.69
1649.05
385.847
13.0183
12.9724
13.0922
13.0948
13.0958
13.0982
13.1022
13.1081
13.1153
13.1234
13.1372
13.0948
13.0879
13.0758
13.06
13.041
13.0196
12.9966
12.9726
12.9482
12.924
12.9005
12.8781
12.8575
12.8389
12.8229
12.8097
12.7996
12.7927
12.7893
)
;
    }
    atmosphere
    {
        type            totalPressure;
        rho             rho;
        psi             none;
        gamma           1;
        p0              uniform 0;
        value           nonuniform List<scalar> 
46
(
-0.201991
-0.2029
-0.201399
-0.199004
-0.195696
-0.19151
-0.186471
-0.180608
-0.173951
-0.166529
-0.158373
-0.149505
-0.139943
-0.129695
-0.118762
-0.107149
-0.0948857
-0.0820564
-0.0688224
-0.0554512
-0.0423511
-0.0300999
-0.0191757
-0.00845165
-0.00094118
0
0
0
0
0
0
0
0
0
0
0
0
0
0
0
0
0
0
0
0
0
)
;
    }
    defaultFaces
    {
        type            empty;
    }
}


// ************************************************************************* //
