/*--------------------------------*- C++ -*----------------------------------*\
| =========                 |                                                 |
| \\      /  F ield         | OpenFOAM: The Open Source CFD Toolbox           |
|  \\    /   O peration     | Version:  2206                                  |
|   \\  /    A nd           | Website:  www.openfoam.com                      |
|    \\/     M anipulation  |                                                 |
\*---------------------------------------------------------------------------*/
FoamFile
{
    version     2.0;
    format      ascii;
    arch        "LSB;label=32;scalar=64";
    class       surfaceScalarField;
    location    "0.25";
    object      phi;
}
// * * * * * * * * * * * * * * * * * * * * * * * * * * * * * * * * * * * * * //

dimensions      [0 3 -1 0 0 0 0];

oriented        oriented;

internalField   nonuniform List<scalar> 
4432
(
4.11596e-07
-4.11596e-07
4.99631e-06
-4.58471e-06
1.1166e-05
-6.16969e-06
1.71795e-05
-6.01351e-06
2.24687e-05
-5.28922e-06
2.71053e-05
-4.6366e-06
3.13388e-05
-4.23346e-06
3.53782e-05
-4.03935e-06
3.93263e-05
-3.9481e-06
4.31843e-05
-3.85807e-06
4.68795e-05
-3.69519e-06
5.02867e-05
-3.40715e-06
5.32396e-05
-2.95293e-06
5.54919e-05
-2.25233e-06
5.66816e-05
-1.18966e-06
5.59173e-05
7.64303e-07
5.15675e-05
4.34981e-06
4.19573e-05
9.61017e-06
2.60073e-05
1.595e-05
5.27411e-06
2.07332e-05
-1.26624e-05
1.79366e-05
-1.81669e-05
5.50446e-06
-1.81669e-05
4.73274e-07
-8.84865e-07
5.09201e-06
-9.20346e-06
1.12682e-05
-1.23459e-05
1.72749e-05
-1.20202e-05
2.25561e-05
-1.05704e-05
2.71957e-05
-9.27617e-06
3.14502e-05
-8.48794e-06
3.55258e-05
-8.11497e-06
3.95191e-05
-7.94147e-06
4.34279e-05
-7.76678e-06
4.71788e-05
-7.44617e-06
5.06504e-05
-6.87871e-06
5.3674e-05
-5.97649e-06
5.60568e-05
-4.63522e-06
5.75717e-05
-2.70457e-06
5.82714e-05
6.46597e-08
5.8488e-05
4.13318e-06
5.71637e-05
1.09345e-05
5.13437e-05
2.177e-05
3.72765e-05
3.48004e-05
1.64487e-05
3.87644e-05
1.47581e-06
2.04773e-05
-1.66911e-05
5.75538e-07
-1.4604e-06
5.23637e-06
-1.38643e-05
1.1379e-05
-1.84885e-05
1.73082e-05
-1.79494e-05
2.25161e-05
-1.57783e-05
2.71157e-05
-1.38758e-05
3.13704e-05
-1.27426e-05
3.54777e-05
-1.22223e-05
3.95218e-05
-1.19855e-05
4.34919e-05
-1.17369e-05
4.73135e-05
-1.12677e-05
5.08674e-05
-1.04327e-05
5.39981e-05
-9.10725e-06
5.65149e-05
-7.15202e-06
5.81848e-05
-4.37441e-06
5.8747e-05
-4.97559e-07
5.80814e-05
4.79875e-06
5.67669e-05
1.2249e-05
5.54443e-05
2.30925e-05
5.18098e-05
3.84349e-05
3.98913e-05
5.06829e-05
1.94819e-05
4.08867e-05
2.79083e-06
7.31064e-07
-2.19146e-06
5.45996e-06
-1.85932e-05
1.155e-05
-2.45786e-05
1.73617e-05
-2.37611e-05
2.24655e-05
-2.08821e-05
2.70164e-05
-1.84267e-05
3.12819e-05
-1.70082e-05
3.54437e-05
-1.63841e-05
3.95672e-05
-1.6109e-05
4.36309e-05
-1.58007e-05
4.75585e-05
-1.51952e-05
5.12358e-05
-1.411e-05
5.45181e-05
-1.23895e-05
5.72283e-05
-9.86226e-06
5.91556e-05
-6.30173e-06
6.0061e-05
-1.40292e-06
5.9665e-05
5.19474e-06
5.79658e-05
1.39483e-05
5.59047e-05
2.51536e-05
5.45289e-05
3.98107e-05
4.87621e-05
5.64497e-05
3.01523e-05
5.94964e-05
3.29432e-05
9.38728e-07
-3.13019e-06
5.74845e-06
-2.34029e-05
1.17581e-05
-3.05882e-05
1.74134e-05
-2.94165e-05
2.23877e-05
-2.58564e-05
2.68858e-05
-2.29247e-05
3.11736e-05
-2.1296e-05
3.54085e-05
-2.0619e-05
3.96327e-05
-2.03332e-05
4.38126e-05
-1.99806e-05
4.7871e-05
-1.92536e-05
5.17013e-05
-1.79403e-05
5.5172e-05
-1.58602e-05
5.81245e-05
-1.28148e-05
6.03702e-05
-8.54741e-06
6.1691e-05
-2.72372e-06
6.18417e-05
5.04401e-06
6.06286e-05
1.51614e-05
5.79996e-05
2.77826e-05
5.5128e-05
4.26823e-05
5.05077e-05
6.107e-05
3.45833e-05
7.54208e-05
6.75265e-05
1.19344e-06
-4.32363e-06
6.08487e-06
-2.82943e-05
1.19812e-05
-3.64846e-05
1.74462e-05
-3.48814e-05
2.22745e-05
-3.06847e-05
2.67219e-05
-2.73721e-05
3.10442e-05
-2.56183e-05
3.53669e-05
-2.49417e-05
3.97058e-05
-2.46721e-05
4.40157e-05
-2.42904e-05
4.82207e-05
-2.34586e-05
5.22251e-05
-2.19447e-05
5.5914e-05
-1.95491e-05
5.91487e-05
-1.60496e-05
6.17593e-05
-1.1158e-05
6.35392e-05
-4.50359e-06
6.42452e-05
4.33801e-06
6.36687e-05
1.57378e-05
6.14037e-05
3.00477e-05
5.73685e-05
4.67175e-05
5.14789e-05
6.69595e-05
3.66433e-05
9.02565e-05
0.00010417
1.48621e-06
-5.80984e-06
6.45335e-06
-3.32615e-05
1.22012e-05
-4.22324e-05
1.7449e-05
-4.01292e-05
2.21255e-05
-3.53612e-05
2.65309e-05
-3.17775e-05
3.09009e-05
-2.99883e-05
3.53223e-05
-2.93631e-05
3.97836e-05
-2.91334e-05
4.42301e-05
-2.87369e-05
4.85916e-05
-2.78201e-05
5.27871e-05
-2.61403e-05
5.67201e-05
-2.3482e-05
6.02702e-05
-1.95997e-05
6.32827e-05
-1.41705e-05
6.55627e-05
-6.78362e-06
6.68555e-05
3.04523e-06
6.69297e-05
1.56637e-05
6.53966e-05
3.15808e-05
6.14886e-05
5.06255e-05
5.44996e-05
7.39485e-05
4.09928e-05
0.000103763
0.000145163
1.80405e-06
-7.61389e-06
6.83193e-06
-3.82893e-05
1.24018e-05
-4.78022e-05
1.74229e-05
-4.51503e-05
2.19554e-05
-3.98937e-05
2.63336e-05
-3.61557e-05
3.07631e-05
-3.44178e-05
3.52892e-05
-3.38892e-05
3.98753e-05
-3.37196e-05
4.44621e-05
-3.33237e-05
4.89914e-05
-3.23494e-05
5.34005e-05
-3.05494e-05
5.7609e-05
-2.76905e-05
6.15109e-05
-2.35016e-05
6.4963e-05
-1.76226e-05
6.77814e-05
-9.60204e-06
6.96937e-05
1.13288e-06
7.04601e-05
1.48972e-05
6.97639e-05
3.22771e-05
6.68824e-05
5.3507e-05
5.98831e-05
8.09477e-05
4.62292e-05
0.000117417
0.000191392
3.63988e-06
-3.63988e-06
6.35433e-06
-2.7141e-06
8.04421e-06
-1.6898e-06
9.39173e-06
-1.34764e-06
1.05519e-05
-1.16024e-06
1.15353e-05
-9.83451e-07
1.22683e-05
-7.32689e-07
1.26891e-05
-4.20609e-07
1.27784e-05
-8.94702e-08
1.25336e-05
2.44827e-07
1.19705e-05
5.62745e-07
1.11193e-05
8.5133e-07
1.00129e-05
1.10632e-06
8.68281e-06
1.33009e-06
7.17269e-06
1.51011e-06
5.51048e-06
1.66184e-06
3.73342e-06
1.77701e-06
1.89873e-06
1.83464e-06
1.89866e-06
2.06635e-06
-5.70606e-06
4.57114e-06
-5.21868e-06
6.7556e-06
-3.87442e-06
8.79851e-06
-3.39076e-06
1.04508e-05
-2.81219e-06
1.16928e-05
-2.22521e-06
1.25711e-05
-1.61088e-06
1.31052e-05
-9.54716e-07
1.3292e-05
-2.76732e-07
1.31387e-05
3.98427e-07
1.26507e-05
1.05028e-06
1.18391e-05
1.66298e-06
1.07295e-05
2.216e-06
9.35703e-06
2.70215e-06
7.75667e-06
3.11017e-06
5.975e-06
3.44342e-06
4.056e-06
3.69603e-06
2.06193e-06
3.82852e-06
3.96071e-06
2.45156e-06
-8.15754e-06
5.18619e-06
-7.95328e-06
7.2994e-06
-5.98771e-06
9.16977e-06
-5.26127e-06
1.06644e-05
-4.30658e-06
1.18392e-05
-3.39968e-06
1.27e-05
-2.47188e-06
1.3222e-05
-1.47659e-06
1.33923e-05
-4.47514e-07
1.32118e-05
5.79281e-07
1.26917e-05
1.57018e-06
1.18541e-05
2.5007e-06
1.07264e-05
3.34382e-06
9.34205e-06
4.0863e-06
7.73806e-06
4.7142e-06
5.95583e-06
5.22563e-06
4.03933e-06
5.61233e-06
2.05177e-06
5.81634e-06
6.01251e-06
2.88471e-06
-1.10422e-05
5.60696e-06
-1.06756e-05
7.58446e-06
-7.96521e-06
9.41461e-06
-7.09145e-06
1.08768e-05
-5.76863e-06
1.20558e-05
-4.57854e-06
1.29319e-05
-3.34823e-06
1.34601e-05
-2.0045e-06
1.36304e-05
-6.18163e-07
1.34396e-05
7.70369e-07
1.28989e-05
2.11097e-06
1.20427e-05
3.3572e-06
1.08891e-05
4.49741e-06
9.4765e-06
5.49859e-06
7.84437e-06
6.34631e-06
6.03252e-06
7.03733e-06
4.09288e-06
7.55194e-06
2.0766e-06
7.83283e-06
8.08894e-06
3.022e-06
-1.40642e-05
5.73899e-06
-1.33928e-05
7.75792e-06
-9.98413e-06
9.67001e-06
-9.00352e-06
1.11524e-05
-7.25097e-06
1.23508e-05
-5.77688e-06
1.32507e-05
-4.24833e-06
1.37974e-05
-2.55086e-06
1.39715e-05
-7.92311e-07
1.37732e-05
9.68838e-07
1.32195e-05
2.6646e-06
1.2333e-05
4.24355e-06
1.11465e-05
5.68364e-06
9.69557e-06
6.94941e-06
8.0191e-06
8.02299e-06
6.17002e-06
8.88636e-06
4.18332e-06
9.53882e-06
2.12008e-06
9.89603e-06
1.0209e-05
3.25948e-06
-1.73237e-05
5.81727e-06
-1.59508e-05
7.91637e-06
-1.20832e-05
9.91939e-06
-1.10065e-05
1.14518e-05
-8.78336e-06
1.27023e-05
-7.02746e-06
1.36437e-05
-5.18986e-06
1.42183e-05
-3.12507e-06
1.44015e-05
-9.75779e-07
1.41947e-05
1.17562e-06
1.36227e-05
3.23674e-06
1.27033e-05
5.16273e-06
1.14749e-05
6.91198e-06
9.97197e-06
8.45224e-06
8.25009e-06
9.74495e-06
6.3427e-06
1.07938e-05
4.29873e-06
1.1583e-05
2.17575e-06
1.20191e-05
1.23849e-05
3.13211e-06
-2.04558e-05
5.83524e-06
-1.86541e-05
8.05151e-06
-1.42995e-05
1.0033e-05
-1.29881e-05
1.1717e-05
-1.04675e-05
1.30886e-05
-8.399e-06
1.40951e-05
-6.19647e-06
1.47156e-05
-3.74531e-06
1.49159e-05
-1.17604e-06
1.47062e-05
1.3853e-06
1.41069e-05
3.83597e-06
1.31483e-05
6.1209e-06
1.18669e-05
8.19333e-06
1.03131e-05
1.00061e-05
8.52434e-06
1.15334e-05
6.55025e-06
1.27677e-05
4.43713e-06
1.36961e-05
2.24279e-06
1.42134e-05
1.46277e-05
4.27373e-06
-2.47296e-05
6.09417e-06
-2.04745e-05
8.38697e-06
-1.65924e-05
1.01288e-05
-1.47301e-05
1.20515e-05
-1.23902e-05
1.35917e-05
-9.93906e-06
1.46844e-05
-7.28911e-06
1.53424e-05
-4.40328e-06
1.55502e-05
-1.38386e-06
1.5325e-05
1.6106e-06
1.46893e-05
4.47138e-06
1.36773e-05
7.13248e-06
1.23399e-05
9.53065e-06
1.07115e-05
1.16342e-05
8.84634e-06
1.33984e-05
6.79276e-06
1.48214e-05
4.59794e-06
1.58906e-05
2.32005e-06
1.64914e-05
1.69476e-05
4.83708e-06
-1.2451e-05
1.5772e-05
-4.92243e-05
2.69999e-05
-5.90301e-05
3.69117e-05
-5.50621e-05
4.61449e-05
-4.91269e-05
5.54482e-05
-4.5459e-05
6.51052e-05
-4.40748e-05
7.50838e-05
-4.38678e-05
8.52566e-05
-4.38923e-05
9.55148e-05
-4.3582e-05
0.000105793
-4.2628e-05
0.000116004
-4.07604e-05
0.000126007
-3.76932e-05
0.000135642
-3.31361e-05
0.000144681
-2.66618e-05
0.000152767
-1.76877e-05
0.000159335
-5.43561e-06
0.000163482
1.07503e-05
0.000164998
3.07607e-05
0.000163374
5.51309e-05
0.000158463
8.58588e-05
0.000158115
0.000117765
0.000179456
0.00017005
6.2877e-06
-1.87387e-05
1.73059e-05
-6.02425e-05
2.76295e-05
-6.93537e-05
3.66473e-05
-6.40798e-05
4.54945e-05
-5.79741e-05
5.4885e-05
-5.48495e-05
6.48942e-05
-5.4084e-05
7.53475e-05
-5.43211e-05
8.60946e-05
-5.46395e-05
9.70827e-05
-5.457e-05
0.000108315
-5.38607e-05
0.000119704
-5.21493e-05
0.000131138
-4.91275e-05
0.000142696
-4.46935e-05
0.000154373
-3.83392e-05
0.00016593
-2.92443e-05
0.00017695
-1.64559e-05
0.000185616
2.08443e-06
0.000192902
2.3475e-05
0.000197838
5.01946e-05
0.000204044
7.96525e-05
0.000215923
0.000105887
0.000151813
0.000243566
7.72067e-06
-2.64593e-05
1.86437e-05
-7.11655e-05
2.79585e-05
-7.86685e-05
3.61939e-05
-7.23152e-05
4.4838e-05
-6.66182e-05
5.44042e-05
-6.44158e-05
6.47244e-05
-6.44042e-05
7.55233e-05
-6.512e-05
8.66719e-05
-6.57882e-05
9.81625e-05
-6.60605e-05
0.000110011
-6.57091e-05
0.000122113
-6.42517e-05
0.000134694
-6.17083e-05
0.000148536
-5.85356e-05
0.000163719
-5.35223e-05
0.00017965
-4.51752e-05
0.00019419
-3.09955e-05
0.000208187
-1.19123e-05
0.000219125
1.25363e-05
0.000226817
4.25028e-05
0.000236373
7.00968e-05
0.000247785
9.44743e-05
0.000124676
0.000274922
9.07986e-06
-3.55392e-05
1.96678e-05
-8.17534e-05
2.79304e-05
-8.69312e-05
3.55502e-05
-7.9935e-05
4.4114e-05
-7.51821e-05
5.37793e-05
-7.4081e-05
6.41288e-05
-7.47538e-05
7.4835e-05
-7.58261e-05
8.58137e-05
-7.67669e-05
9.70856e-05
-7.73324e-05
0.000108801
-7.74245e-05
0.000121236
-7.66871e-05
0.000135633
-7.6105e-05
0.0001537
-7.66022e-05
0.000173091
-7.29137e-05
0.000193682
-6.57663e-05
0.000213634
-5.09471e-05
0.000231439
-2.9718e-05
0.000242849
1.12642e-06
0.000249798
3.55543e-05
0.000257458
6.24367e-05
0.000266808
8.51243e-05
0.000105737
0.000285747
1.04315e-05
-4.59707e-05
2.0262e-05
-9.15839e-05
2.73127e-05
-9.39819e-05
3.43767e-05
-8.69989e-05
4.27639e-05
-8.35693e-05
5.21462e-05
-8.34632e-05
6.19202e-05
-8.45278e-05
7.1843e-05
-8.57489e-05
8.20362e-05
-8.69601e-05
9.27897e-05
-8.80859e-05
0.000104974
-8.96091e-05
0.000119997
-9.17103e-05
0.000139379
-9.54862e-05
0.000165012
-0.000102236
0.000186422
-9.43233e-05
0.00020404
-8.33851e-05
0.000217814
-6.47203e-05
0.000232318
-4.4222e-05
0.000240545
-7.10067e-06
0.000250805
2.52939e-05
0.000259269
5.39723e-05
0.000267188
7.72053e-05
9.20282e-05
0.000280897
1.18906e-05
-5.78613e-05
2.03464e-05
-0.00010004
2.57803e-05
-9.94158e-05
3.21785e-05
-9.33972e-05
4.01477e-05
-9.15385e-05
4.88725e-05
-9.21881e-05
5.78686e-05
-9.35238e-05
6.74082e-05
-9.52885e-05
7.83649e-05
-9.79167e-05
9.16708e-05
-0.000101392
0.000110011
-0.00010795
0.000134355
-0.000116054
0.000164583
-0.000125714
0.000198156
-0.000135808
0.000217143
-0.00011331
0.00021939
-8.56324e-05
0.000210114
-5.54442e-05
0.000227181
-6.12883e-05
0.000266114
-4.60342e-05
0.000283864
7.54383e-06
0.000281156
5.66805e-05
0.000273501
8.48603e-05
9.39335e-05
0.000271596
1.40971e-05
-7.19584e-05
2.05419e-05
-0.000106485
2.36046e-05
-0.000102478
2.9507e-05
-9.92995e-05
3.76245e-05
-9.9656e-05
4.6797e-05
-0.000101361
5.72911e-05
-0.000104018
7.07063e-05
-0.000108704
8.96305e-05
-0.000116841
0.00011415
-0.000125912
0.000154662
-0.000148462
0.000193027
-0.000154418
0.000224871
-0.000157559
0.000237492
-0.000148429
0.000236117
-0.000111936
0.000208453
-5.79676e-05
0.000204869
-5.18607e-05
0.0002425
-9.89198e-05
0.000299385
-0.000102919
0.000356416
-4.94867e-05
0.000371407
4.16899e-05
0.000349595
0.000106672
0.000124316
0.000319212
1.84939e-05
-9.04523e-05
2.25846e-05
-0.000110575
2.34387e-05
-0.000103333
3.09028e-05
-0.000106764
4.24632e-05
-0.000111216
5.6507e-05
-0.000115404
7.48922e-05
-0.000122403
0.000102567
-0.000136378
0.000137943
-0.000152218
0.000173664
-0.000161632
0.000205558
-0.000180356
0.000237454
-0.000186314
0.000256725
-0.00017683
0.000257503
-0.000149207
0.000240719
-9.51523e-05
0.000217794
-3.50424e-05
0.0002298
-6.38668e-05
0.000247141
-0.000116261
0.000268199
-0.000123978
0.000303568
-8.48554e-05
0.000345265
-7.32798e-09
0.000365765
8.61723e-05
0.000130162
0.000359919
2.41108e-05
-0.000114563
2.77832e-05
-0.000114248
3.33783e-05
-0.000108928
4.73387e-05
-0.000120724
6.81752e-05
-0.000132053
8.97046e-05
-0.000136934
0.000113618
-0.000146317
0.000138547
-0.000161307
0.000166531
-0.000180202
0.000202188
-0.000197288
0.000232418
-0.000210586
0.000259038
-0.000212935
0.000277754
-0.000195546
0.000282005
-0.000153457
0.000264913
-7.80612e-05
0.000239955
-1.00845e-05
0.000237251
-6.11623e-05
0.000229344
-0.000108354
0.000222564
-0.000117197
0.000223175
-8.54665e-05
0.00023728
-1.4112e-05
0.000273889
4.95624e-05
9.083e-05
0.000313221
9.69584e-06
-0.000124259
2.73797e-05
-0.000131931
4.28957e-05
-0.000124444
5.57313e-05
-0.00013356
6.83649e-05
-0.000144687
8.62477e-05
-0.000154817
0.000107452
-0.000167522
0.000131489
-0.000185344
0.000158792
-0.000207505
0.000189009
-0.000227506
0.000218486
-0.000240063
0.000243482
-0.000237931
0.000259415
-0.000211478
0.000264031
-0.000158074
0.000253647
-6.76772e-05
0.000236361
7.20194e-06
0.000220039
-4.4841e-05
0.000202667
-9.09819e-05
0.0001828
-9.73302e-05
0.000161523
-6.419e-05
0.000159549
-1.21371e-05
0.000193897
1.52142e-05
3.42849e-05
0.000250442
1.3326e-06
-0.000125592
1.52945e-05
-0.000145893
3.33413e-05
-0.00014249
4.69636e-05
-0.000147182
5.88736e-05
-0.000156597
7.21249e-05
-0.000168068
8.77105e-05
-0.000183107
0.000106869
-0.000204503
0.000130584
-0.000231219
0.00015463
-0.000251552
0.000176008
-0.000261441
0.00019426
-0.000256184
0.000202536
-0.000219754
0.000200839
-0.000156377
0.000190949
-5.77871e-05
0.000190327
7.82401e-06
0.000184029
-3.85428e-05
0.000167304
-7.42571e-05
0.000140668
-7.06941e-05
0.000120636
-4.41575e-05
0.000132335
-2.38363e-05
0.000171615
-2.40659e-05
-2.02697e-05
0.000226169
4.81711e-06
-0.000130409
1.59987e-05
-0.000157075
2.65463e-05
-0.000153038
3.60043e-05
-0.00015664
4.48647e-05
-0.000165457
5.39132e-05
-0.000177116
6.43875e-05
-0.000193581
7.77184e-05
-0.000217834
9.34302e-05
-0.000246931
0.000106836
-0.000264958
0.000118009
-0.000272614
0.000124104
-0.000262279
0.000121785
-0.000217435
0.000110736
-0.000145328
0.00010026
-4.73118e-05
0.000124812
-1.6728e-05
0.000132187
-4.59175e-05
0.000114987
-5.70567e-05
9.30204e-05
-4.87279e-05
9.46566e-05
-4.57937e-05
0.000123003
-5.21824e-05
0.000165402
-6.64654e-05
-7.07278e-05
0.00021586
8.10153e-06
-0.00013851
1.32572e-05
-0.00016223
1.90102e-05
-0.000158791
2.53048e-05
-0.000162935
3.09906e-05
-0.000171143
3.59326e-05
-0.000182059
4.06749e-05
-0.000198324
4.56166e-05
-0.000222776
4.94612e-05
-0.000250775
5.19697e-05
-0.000267466
5.16982e-05
-0.000272342
4.56867e-05
-0.000256267
3.57198e-05
-0.000207468
2.27098e-05
-0.000132318
3.26563e-05
-5.72583e-05
6.64563e-05
-5.0528e-05
7.06762e-05
-5.01373e-05
5.39818e-05
-4.03623e-05
5.67513e-05
-5.14973e-05
7.86876e-05
-6.773e-05
0.0001126
-8.60948e-05
0.000150294
-0.000104159
-0.000113751
0.000193318
7.83359e-06
-0.000146344
9.4691e-06
-0.000163866
1.2856e-05
-0.000162178
1.65587e-05
-0.000166637
1.90413e-05
-0.000173626
1.97526e-05
-0.00018277
1.80879e-05
-0.000196659
1.3659e-05
-0.000218347
5.87784e-06
-0.000242994
-1.9668e-06
-0.000259621
-1.24356e-05
-0.000261873
-2.59344e-05
-0.000242768
-3.66689e-05
-0.000196734
-3.75936e-05
-0.000131393
-1.66364e-05
-7.82156e-05
-1.62202e-06
-6.55423e-05
7.09052e-07
-5.24683e-05
1.42852e-05
-5.39383e-05
3.91627e-05
-7.63747e-05
6.53093e-05
-9.38765e-05
9.45853e-05
-0.000115371
0.000126842
-0.000136416
-0.000153113
0.000166204
5.90618e-06
-0.00015225
5.991e-06
-0.000163951
7.85112e-06
-0.000164038
9.2636e-06
-0.00016805
9.14233e-06
-0.000173505
6.76993e-06
-0.000180398
7.85983e-07
-0.000190675
-1.08027e-05
-0.000206758
-2.69543e-05
-0.000226842
-4.48561e-05
-0.00024172
-6.36962e-05
-0.000243033
-8.07649e-05
-0.0002257
-9.04238e-05
-0.000187075
-8.7443e-05
-0.000134374
-7.30247e-05
-9.2634e-05
-5.85799e-05
-7.9987e-05
-3.25058e-05
-7.85422e-05
1.19199e-06
-8.76358e-05
2.55691e-05
-0.000100752
4.80407e-05
-0.000116348
7.1025e-05
-0.000138355
9.67979e-05
-0.000162189
-0.000182892
0.000126577
3.6137e-06
-0.000155864
3.14678e-06
-0.000163484
3.73349e-06
-0.000164625
3.52604e-06
-0.000167843
1.93127e-06
-0.00017191
-1.96023e-06
-0.000176506
-9.91117e-06
-0.000182724
-2.34738e-05
-0.000193196
-4.3176e-05
-0.00020714
-6.68311e-05
-0.000218065
-9.09238e-05
-0.000218941
-0.000110906
-0.000205717
-0.000121146
-0.000176835
-0.000113898
-0.000141622
-9.12791e-05
-0.000115253
-6.31285e-05
-0.000108138
-3.21971e-05
-0.000109473
-6.79893e-06
-0.000113034
1.26777e-05
-0.000120228
3.12775e-05
-0.000134948
4.81499e-05
-0.000155227
6.61155e-05
-0.000180155
-0.000201784
8.50081e-05
1.61047e-06
-0.000157474
9.97108e-07
-0.000162871
5.48602e-07
-0.000164177
-6.55469e-07
-0.000166639
-2.96409e-06
-0.000169601
-6.86919e-06
-0.000172601
-1.36638e-05
-0.00017593
-2.53644e-05
-0.000181495
-4.28152e-05
-0.00018969
-6.39788e-05
-0.000196901
-8.49691e-05
-0.00019795
-0.00010115
-0.000189536
-0.000105633
-0.000172353
-9.50284e-05
-0.000152227
-7.33937e-05
-0.000136888
-5.12646e-05
-0.000130267
-3.19549e-05
-0.000128783
-1.4945e-05
-0.000130044
1.3475e-06
-0.000136521
1.58673e-05
-0.000149468
2.80108e-05
-0.000167371
3.90301e-05
-0.000191174
-0.000214362
5.16083e-05
1.52117e-07
-0.000157626
-8.04095e-07
-0.000161915
-1.88488e-06
-0.000163096
-3.62487e-06
-0.000164899
-6.16293e-06
-0.000167063
-9.6047e-06
-0.000169159
-1.45201e-05
-0.000171015
-2.2443e-05
-0.000173572
-3.43335e-05
-0.0001778
-4.88633e-05
-0.000182371
-6.29586e-05
-0.000183855
-7.30049e-05
-0.00017949
-7.57671e-05
-0.000169591
-7.02598e-05
-0.000157734
-5.88607e-05
-0.000148287
-4.61681e-05
-0.000142959
-3.40027e-05
-0.000140948
-2.14098e-05
-0.000142637
-8.72909e-06
-0.000149202
2.09977e-06
-0.000160296
1.08359e-05
-0.000176107
1.67223e-05
-0.00019706
-0.000220992
2.33518e-05
-7.11433e-07
-0.000156915
-2.05604e-06
-0.00016057
-3.67149e-06
-0.000161481
-5.75756e-06
-0.000162813
-8.42266e-06
-0.000164399
-1.15974e-05
-0.000165985
-1.53164e-05
-0.000167296
-2.02999e-05
-0.000168589
-2.7496e-05
-0.000170604
-3.67475e-05
-0.00017312
-4.63928e-05
-0.00017421
-5.39677e-05
-0.000171915
-5.73145e-05
-0.000166244
-5.58627e-05
-0.000159186
-5.09346e-05
-0.000153215
-4.42016e-05
-0.000149692
-3.61228e-05
-0.000149027
-2.7017e-05
-0.000151742
-1.81123e-05
-0.000158106
-1.04159e-05
-0.000167993
-4.54245e-06
-0.00018198
-5.77472e-07
-0.000201025
-0.000224975
3.40577e-06
-1.33269e-06
-0.000155582
-3.02123e-06
-0.000158882
-4.98536e-06
-0.000159517
-7.3123e-06
-0.000160486
-1.00834e-05
-0.000161628
-1.32472e-05
-0.000162821
-1.66581e-05
-0.000163885
-2.04724e-05
-0.000164775
-2.53369e-05
-0.000165739
-3.16178e-05
-0.000166839
-3.85554e-05
-0.000167272
-4.458e-05
-0.000165891
-4.82904e-05
-0.000162533
-4.90929e-05
-0.000158384
-4.72723e-05
-0.000155036
-4.34844e-05
-0.00015348
-3.83299e-05
-0.000154182
-3.25654e-05
-0.000157507
-2.70288e-05
-0.000163643
-2.22137e-05
-0.000172808
-1.86714e-05
-0.000185522
-1.70088e-05
-0.000202688
-0.000225271
-1.67128e-05
-1.7406e-06
-0.000153842
-3.73248e-06
-0.00015689
-5.94025e-06
-0.000157309
-8.43067e-06
-0.000157996
-1.12683e-05
-0.00015879
-1.44621e-05
-0.000159627
-1.79243e-05
-0.000160423
-2.1607e-05
-0.000161092
-2.57342e-05
-0.000161612
-3.05869e-05
-0.000161986
-3.58935e-05
-0.000161965
-4.07363e-05
-0.000161048
-4.41532e-05
-0.000159116
-4.56674e-05
-0.000156869
-4.53658e-05
-0.000155337
-4.36515e-05
-0.000155194
-4.10614e-05
-0.000156772
-3.81915e-05
-0.000160376
-3.55553e-05
-0.000166278
-3.35145e-05
-0.000174848
-3.2505e-05
-0.000186532
-3.32582e-05
-0.000201934
-0.000222276
-3.6253e-05
-2.01921e-06
-0.000151823
-4.23647e-06
-0.000154673
-6.61509e-06
-0.00015493
-9.21205e-06
-0.000155399
-1.20724e-05
-0.00015593
-1.52261e-05
-0.000156474
-1.86644e-05
-0.000156985
-2.2338e-05
-0.000157418
-2.62357e-05
-0.000157714
-3.04081e-05
-0.000157814
-3.47464e-05
-0.000157627
-3.87895e-05
-0.000157005
-4.19398e-05
-0.000155966
-4.38712e-05
-0.000154938
-4.46741e-05
-0.000154534
-4.46733e-05
-0.000155195
-4.42354e-05
-0.000157209
-4.37585e-05
-0.000160853
-4.36155e-05
-0.000166421
-4.4151e-05
-0.000174313
-4.56956e-05
-0.000184987
-4.88349e-05
-0.000198795
-0.000216716
-5.43951e-05
-2.20953e-06
-0.000149613
-4.58201e-06
-0.0001523
-7.07518e-06
-0.000152437
-9.73788e-06
-0.000152736
-1.25998e-05
-0.000153068
-1.56809e-05
-0.000153392
-1.89908e-05
-0.000153675
-2.2518e-05
-0.000153891
-2.62226e-05
-0.00015401
-3.00529e-05
-0.000153984
-3.39057e-05
-0.000153774
-3.75364e-05
-0.000153374
-4.06296e-05
-0.000152873
-4.30305e-05
-0.000152537
-4.48359e-05
-0.000152729
-4.62681e-05
-0.000153763
-4.75836e-05
-0.000155894
-4.90789e-05
-0.000159358
-5.10874e-05
-0.000164413
-5.39611e-05
-0.000171439
-5.80321e-05
-0.000180916
-6.37583e-05
-0.000193069
-0.000208468
-7.20059e-05
-2.33517e-06
-0.000147278
-4.80751e-06
-0.000149828
-7.37137e-06
-0.000149874
-1.00691e-05
-0.000150039
-1.29235e-05
-0.000150214
-1.59463e-05
-0.00015037
-1.91407e-05
-0.00015048
-2.25058e-05
-0.000150526
-2.60224e-05
-0.000150493
-2.96364e-05
-0.000150369
-3.32537e-05
-0.000150157
-3.67403e-05
-0.000149887
-3.99592e-05
-0.000149654
-4.28596e-05
-0.000149636
-4.552e-05
-0.000150068
-4.81016e-05
-0.000151181
-5.08169e-05
-0.000153178
-5.39283e-05
-0.000156246
-5.77525e-05
-0.000160589
-6.26528e-05
-0.000166539
-6.9026e-05
-0.000174543
-7.7294e-05
-0.000184801
-0.00019753
-8.82321e-05
-2.41159e-06
-0.000144867
-4.93975e-06
-0.0001473
-7.53938e-06
-0.000147274
-1.02471e-05
-0.000147331
-1.30828e-05
-0.000147378
-1.60583e-05
-0.000147394
-1.91752e-05
-0.000147363
-2.24281e-05
-0.000147273
-2.58037e-05
-0.000147117
-2.92741e-05
-0.000146899
-3.27903e-05
-0.000146641
-3.62853e-05
-0.000146392
-3.97023e-05
-0.000146237
-4.30416e-05
-0.000146297
-4.63816e-05
-0.000146728
-4.98646e-05
-0.000147698
-5.36854e-05
-0.000149357
-5.80887e-05
-0.000151843
-6.33765e-05
-0.000155301
-6.99226e-05
-0.000159993
-7.81782e-05
-0.000166287
-8.86194e-05
-0.00017436
-0.000184185
-0.000101965
-2.44875e-06
-0.000142418
-4.99723e-06
-0.000144752
-7.60383e-06
-0.000144667
-1.03001e-05
-0.000144635
-1.31046e-05
-0.000144573
-1.6029e-05
-0.00014447
-1.90791e-05
-0.000144313
-2.22531e-05
-0.000144099
-2.5543e-05
-0.000143827
-2.89359e-05
-0.000143506
-3.24154e-05
-0.000143162
-3.59633e-05
-0.000142844
-3.95727e-05
-0.000142627
-4.3272e-05
-0.000142598
-4.71417e-05
-0.000142858
-5.13185e-05
-0.000143521
-5.59858e-05
-0.00014469
-6.13752e-05
-0.000146453
-6.77684e-05
-0.000148907
-7.55412e-05
-0.00015222
-8.51603e-05
-0.000156668
-9.7142e-05
-0.000162378
-0.000169183
-0.000112144
-2.45302e-06
-0.000139965
-4.99247e-06
-0.000142212
-7.58147e-06
-0.000142078
-1.02474e-05
-0.000141969
-1.30084e-05
-0.000141812
-1.5876e-05
-0.000141602
-1.88591e-05
-0.00014133
-2.19628e-05
-0.000140995
-2.51891e-05
-0.000140601
-2.85371e-05
-0.000140158
-3.20079e-05
-0.000139691
-3.56121e-05
-0.00013924
-3.9375e-05
-0.000138864
-4.33458e-05
-0.000138627
-4.76091e-05
-0.000138595
-5.22941e-05
-0.000138836
-5.75712e-05
-0.000139413
-6.36535e-05
-0.000140371
-7.08091e-05
-0.000141752
-7.93825e-05
-0.000143646
-8.98281e-05
-0.000146222
-0.000102645
-0.000149561
-0.00015338
-0.000118448
-2.42843e-06
-0.000137536
-4.93376e-06
-0.000139707
-7.48301e-06
-0.000139529
-1.01009e-05
-0.000139351
-1.28053e-05
-0.000139108
-1.56091e-05
-0.000138798
-1.85235e-05
-0.000138415
-2.15581e-05
-0.00013796
-2.4723e-05
-0.000137436
-2.80284e-05
-0.000136853
-3.14893e-05
-0.00013623
-3.51308e-05
-0.000135599
-3.89951e-05
-0.000135
-4.31448e-05
-0.000134477
-4.7668e-05
-0.000134072
-5.26845e-05
-0.000133819
-5.83499e-05
-0.000133747
-6.48582e-05
-0.000133863
-7.24483e-05
-0.000134162
-8.14279e-05
-0.000134667
-9.21989e-05
-0.000135451
-0.000105204
-0.000136556
-0.000137633
-0.00012095
-2.37799e-06
-0.000135158
-4.82684e-06
-0.000137258
-7.31554e-06
-0.000137041
-9.86776e-06
-0.000136799
-1.25005e-05
-0.000136475
-1.52283e-05
-0.00013607
-1.80648e-05
-0.000135579
-2.10234e-05
-0.000135002
-2.41191e-05
-0.00013434
-2.73699e-05
-0.000133602
-3.08002e-05
-0.0001328
-3.44446e-05
-0.000131954
-3.83523e-05
-0.000131092
-4.25902e-05
-0.000130239
-4.7246e-05
-0.000129416
-5.24314e-05
-0.000128634
-5.82877e-05
-0.000127891
-6.49816e-05
-0.00012717
-7.27193e-05
-0.000126424
-8.17612e-05
-0.000125625
-9.24343e-05
-0.000124778
-0.000105108
-0.000123883
-0.000122591
-0.00012015
-2.30464e-06
-0.000132854
-4.67625e-06
-0.000134886
-7.08445e-06
-0.000134632
-9.55281e-06
-0.00013433
-1.20971e-05
-0.00013393
-1.47337e-05
-0.000133433
-1.74775e-05
-0.000132835
-2.03451e-05
-0.000132134
-2.33554e-05
-0.00013133
-2.65309e-05
-0.000130426
-2.99008e-05
-0.00012943
-3.35041e-05
-0.000128351
-3.73924e-05
-0.000127204
-4.16323e-05
-0.000125999
-4.6307e-05
-0.000124741
-5.15185e-05
-0.000123423
-5.73893e-05
-0.00012202
-6.40641e-05
-0.000120495
-7.17079e-05
-0.000118781
-8.05329e-05
-0.0001168
-9.07906e-05
-0.00011452
-0.000102766
-0.000111907
-0.000108653
-0.000116704
-2.21129e-06
-0.000130643
-4.48591e-06
-0.000132612
-6.79424e-06
-0.000132324
-9.16e-06
-0.000131964
-1.15978e-05
-0.000131492
-1.41253e-05
-0.000130906
-1.67584e-05
-0.000130202
-1.95156e-05
-0.000129377
-2.24178e-05
-0.000128428
-2.549e-05
-0.000127354
-2.87638e-05
-0.000126156
-3.22793e-05
-0.000124835
-3.6087e-05
-0.000123396
-4.02495e-05
-0.000121837
-4.48423e-05
-0.000120149
-4.99555e-05
-0.000118309
-5.56946e-05
-0.000116281
-6.2178e-05
-0.000114012
-6.95422e-05
-0.000111417
-7.79375e-05
-0.000108405
-8.75497e-05
-0.000104908
-9.85943e-05
-0.000100863
-9.60323e-05
-0.000111215
-2.10024e-06
-0.000128542
-4.2592e-06
-0.000130452
-6.44878e-06
-0.000130134
-8.693e-06
-0.00012972
-1.10055e-05
-0.000129179
-1.34041e-05
-0.000128507
-1.59056e-05
-0.0001277
-1.85296e-05
-0.000126753
-2.12979e-05
-0.000125659
-2.42364e-05
-0.000124415
-2.73765e-05
-0.000123015
-3.0757e-05
-0.000121455
-3.44254e-05
-0.000119727
-3.84388e-05
-0.000117823
-4.28637e-05
-0.000115724
-4.77767e-05
-0.000113397
-5.3264e-05
-0.000110794
-5.94243e-05
-0.000107851
-6.63584e-05
-0.000104483
-7.41753e-05
-0.000100588
-8.30075e-05
-9.60762e-05
-9.29866e-05
-9.08834e-05
-8.48302e-05
-0.000104189
-1.9721e-06
-0.00012657
-3.99771e-06
-0.000128427
-6.05054e-06
-0.000128081
-8.15472e-06
-0.000127616
-1.03232e-05
-0.000127011
-1.25728e-05
-0.000126258
-1.49212e-05
-0.000125352
-1.73878e-05
-0.000124286
-1.99947e-05
-0.000123052
-2.27675e-05
-0.000121643
-2.57361e-05
-0.000120047
-2.89365e-05
-0.000118254
-3.24121e-05
-0.000116252
-3.62134e-05
-0.000114022
-4.03973e-05
-0.00011154
-4.50265e-05
-0.000108767
-5.01706e-05
-0.00010565
-5.5906e-05
-0.000102116
-6.23077e-05
-9.80808e-05
-6.94493e-05
-9.34462e-05
-7.74129e-05
-8.81126e-05
-8.62778e-05
-8.20184e-05
-7.50361e-05
-9.60719e-05
-1.82431e-06
-0.000124746
-3.69966e-06
-0.000126552
-5.59912e-06
-0.000126182
-7.54597e-06
-0.000125669
-9.55266e-06
-0.000125004
-1.16345e-05
-0.000124176
-1.3809e-05
-0.000123177
-1.60947e-05
-0.000122
-1.85133e-05
-0.000120634
-2.10893e-05
-0.000119067
-2.38505e-05
-0.000117286
-2.68294e-05
-0.000115275
-3.00643e-05
-0.000113017
-3.35985e-05
-0.000110488
-3.74805e-05
-0.000107658
-4.17605e-05
-0.000104487
-4.64916e-05
-0.000100919
-5.17295e-05
-9.68781e-05
-5.75295e-05
-9.22805e-05
-6.39413e-05
-8.70344e-05
-7.1005e-05
-8.10489e-05
-7.87656e-05
-7.42578e-05
-6.65876e-05
-8.72141e-05
-1.65014e-06
-0.000123095
-3.35925e-06
-0.000124843
-5.09026e-06
-0.000124451
-6.86397e-06
-0.000123895
-8.69268e-06
-0.000123176
-1.059e-05
-0.000122278
-1.25719e-05
-0.000121195
-1.46559e-05
-0.000119916
-1.68621e-05
-0.000118427
-1.92131e-05
-0.000116715
-2.17344e-05
-0.000114764
-2.4455e-05
-0.000112555
-2.74076e-05
-0.000110065
-3.06286e-05
-0.000107267
-3.41583e-05
-0.000104128
-3.80372e-05
-0.000100608
-4.23041e-05
-9.66521e-05
-4.69972e-05
-9.21852e-05
-5.21546e-05
-8.71231e-05
-5.78061e-05
-8.13828e-05
-6.3969e-05
-7.4886e-05
-7.06547e-05
-6.7572e-05
-5.93999e-05
-7.78425e-05
-1.44087e-06
-0.000121655
-2.96866e-06
-0.000123315
-4.5169e-06
-0.000122902
-6.10203e-06
-0.000122309
-7.73704e-06
-0.00012154
-9.43397e-06
-0.000120581
-1.12072e-05
-0.000119422
-1.30721e-05
-0.00011805
-1.50464e-05
-0.000116453
-1.71497e-05
-0.000114612
-1.94044e-05
-0.00011251
-2.18355e-05
-0.000110124
-2.44711e-05
-0.000107429
-2.73414e-05
-0.000104396
-3.04792e-05
-0.000100991
-3.3917e-05
-9.71709e-05
-3.76831e-05
-9.28857e-05
-4.18015e-05
-8.80667e-05
-4.62944e-05
-8.26302e-05
-5.11792e-05
-7.64979e-05
-5.64591e-05
-6.96062e-05
-6.2127e-05
-6.1904e-05
-5.33787e-05
-6.81484e-05
-1.1934e-06
-0.000120461
-2.52604e-06
-0.000121982
-3.87697e-06
-0.000121552
-5.25719e-06
-0.000120929
-6.68143e-06
-0.000120116
-8.16124e-06