/*--------------------------------*- C++ -*----------------------------------*\
| =========                 |                                                 |
| \\      /  F ield         | OpenFOAM: The Open Source CFD Toolbox           |
|  \\    /   O peration     | Version:  2206                                  |
|   \\  /    A nd           | Website:  www.openfoam.com                      |
|    \\/     M anipulation  |                                                 |
\*---------------------------------------------------------------------------*/
FoamFile
{
    version     2.0;
    format      ascii;
    arch        "LSB;label=32;scalar=64";
    class       volVectorField;
    location    "0.25";
    object      U;
}
// * * * * * * * * * * * * * * * * * * * * * * * * * * * * * * * * * * * * * //

dimensions      [0 1 -1 0 0 0 0];

internalField   nonuniform List<vector> 
2268
(
(-0.00920171 -0.00104914 0)
(0.0225547 -0.0123445 0)
(0.0901358 -0.0166334 0)
(0.161785 -0.0161905 0)
(0.22736 -0.0142131 0)
(0.284101 -0.0124392 0)
(0.334199 -0.011338 0)
(0.380934 -0.010799 0)
(0.426312 -0.0105411 0)
(0.470859 -0.0102909 0)
(0.514097 -0.00984492 0)
(0.554884 -0.00905782 0)
(0.591512 -0.00782543 0)
(0.621871 -0.00590718 0)
(0.642127 -0.00319963 0)
(0.649651 0.00286815 0)
(0.626013 0.0143622 0)
(0.55465 0.0325572 0)
(0.416712 0.0546902 0)
(0.20442 0.0681074 0)
(-0.0750018 0.0364921 0)
(-0.268436 -0.0618276 0)
(-0.0758333 -0.113646 0)
(-0.00883726 -0.00346974 0)
(0.0237697 -0.0372845 0)
(0.0916722 -0.0500868 0)
(0.163232 -0.0487948 0)
(0.228497 -0.0429121 0)
(0.285083 -0.0376289 0)
(0.33531 -0.0343722 0)
(0.382396 -0.0328017 0)
(0.42826 -0.0320611 0)
(0.473371 -0.0313333 0)
(0.517229 -0.0300189 0)
(0.558698 -0.0276977 0)
(0.596176 -0.0240202 0)
(0.627436 -0.0184894 0)
(0.650695 -0.0104335 0)
(0.661138 0.0026482 0)
(0.667759 0.0244532 0)
(0.668779 0.0584921 0)
(0.644858 0.106417 0)
(0.545565 0.158037 0)
(0.320074 0.162186 0)
(-0.00985872 0.088177 0)
(0.0711552 -0.119961 0)
(-0.00813843 -0.00629351 0)
(0.0256451 -0.0622819 0)
(0.0935151 -0.0833309 0)
(0.164331 -0.0810546 0)
(0.228515 -0.0712628 0)
(0.284315 -0.0625648 0)
(0.334306 -0.0572979 0)
(0.381613 -0.0548225 0)
(0.427982 -0.0536747 0)
(0.473756 -0.0525085 0)
(0.518379 -0.0503575 0)
(0.560727 -0.0465498 0)
(0.599243 -0.0405032 0)
(0.63197 -0.0315667 0)
(0.656537 -0.0186868 0)
(0.670291 -0.00111345 0)
(0.670278 0.0240454 0)
(0.657309 0.0619938 0)
(0.643837 0.120753 0)
(0.630257 0.201218 0)
(0.560485 0.251015 0)
(0.314047 0.179798 0)
(0.190417 -0.041286 0)
(-0.00707632 -0.00975993 0)
(0.0284314 -0.0875879 0)
(0.096145 -0.116372 0)
(0.165845 -0.112801 0)
(0.228539 -0.0991354 0)
(0.283327 -0.0872627 0)
(0.333101 -0.0802623 0)
(0.380833 -0.0770928 0)
(0.428013 -0.0756633 0)
(0.474801 -0.0741313 0)
(0.520573 -0.0712047 0)
(0.564224 -0.0659886 0)
(0.604288 -0.0577198 0)
(0.638948 -0.0455476 0)
(0.666067 -0.0283568 0)
(0.683196 -0.00459322 0)
(0.687726 0.0276557 0)
(0.676259 0.0713279 0)
(0.651066 0.130198 0)
(0.627034 0.212328 0)
(0.620215 0.29467 0)
(0.475102 0.275912 0)
(0.276567 0.0940113 0)
(-0.00562714 -0.0141908 0)
(0.032021 -0.11332 0)
(0.0993562 -0.149032 0)
(0.167508 -0.143762 0)
(0.228337 -0.126345 0)
(0.281956 -0.111681 0)
(0.331572 -0.103327 0)
(0.379921 -0.0997264 0)
(0.428147 -0.0981631 0)
(0.476198 -0.0963498 0)
(0.523381 -0.0927235 0)
(0.568637 -0.0862054 0)
(0.610618 -0.0758774 0)
(0.647696 -0.0607341 0)
(0.677967 -0.0394735 0)
(0.699206 -0.0103694 0)
(0.709 0.0285811 0)
(0.704215 0.0797024 0)
(0.683174 0.143719 0)
(0.641031 0.221915 0)
(0.617403 0.317398 0)
(0.523691 0.364656 0)
(0.321502 0.271093 0)
(-0.00375524 -0.0199746 0)
(0.0362283 -0.139444 0)
(0.102921 -0.181106 0)
(0.169096 -0.173715 0)
(0.227761 -0.152751 0)
(0.280149 -0.135794 0)
(0.329717 -0.126558 0)
(0.378851 -0.122834 0)
(0.428291 -0.121302 0)
(0.477758 -0.119309 0)
(0.526512 -0.115092 0)
(0.573571 -0.107438 0)
(0.617749 -0.095309 0)
(0.657637 -0.077565 0)
(0.691554 -0.0527215 0)
(0.717444 -0.0188516 0)
(0.73295 0.0262867 0)
(0.734777 0.0846186 0)
(0.721391 0.157432 0)
(0.680994 0.241287 0)
(0.628866 0.343815 0)
(0.537335 0.447684 0)
(0.34085 0.466415 0)
(-0.00146558 -0.0271221 0)
(0.0408457 -0.165925 0)
(0.106619 -0.212561 0)
(0.170446 -0.202672 0)
(0.226757 -0.17838 0)
(0.277953 -0.159616 0)
(0.327623 -0.149943 0)
(0.377693 -0.146371 0)
(0.428451 -0.145 0)
(0.479407 -0.142893 0)
(0.529812 -0.138166 0)
(0.578815 -0.129526 0)
(0.625433 -0.115851 0)
(0.668475 -0.095884 0)
(0.706441 -0.0679788 0)
(0.737422 -0.0300177 0)
(0.759083 0.0204711 0)
(0.768181 0.0854933 0)
(0.762104 0.167233 0)
(0.732702 0.263599 0)
(0.672875 0.379632 0)
(0.570125 0.523455 0)
(0.379765 0.664315 0)
(0.00115457 -0.0356934 0)
(0.0456348 -0.192955 0)
(0.110214 -0.243383 0)
(0.171469 -0.230655 0)
(0.225438 -0.203361 0)
(0.275596 -0.183298 0)
(0.325537 -0.173572 0)
(0.376642 -0.17035 0)
(0.428759 -0.169209 0)
(0.481224 -0.166998 0)
(0.533348 -0.161779 0)
(0.584481 -0.152224 0)
(0.633862 -0.137134 0)
(0.680459 -0.115121 0)
(0.7229 -0.0843641 0)
(0.759413 -0.0425876 0)
(0.787638 0.0127745 0)
(0.804498 0.0843079 0)
(0.806487 0.174115 0)
(0.789772 0.282839 0)
(0.739907 0.418554 0)
(0.64481 0.602249 0)
(0.380456 0.907668 0)
(0.019882 -0.0134589 0)
(0.0584361 -0.00901678 0)
(0.0828575 -0.0042931 0)
(0.0988 -0.00274891 0)
(0.113195 -0.00245672 0)
(0.125737 -0.00239215 0)
(0.135955 -0.00186359 0)
(0.142718 -0.000984238 0)
(0.145747 -6.66394e-05 0)
(0.144896 0.000852242 0)
(0.140215 0.00172305 0)
(0.132085 0.00253773 0)
(0.120885 0.00326585 0)
(0.106974 0.00388951 0)
(0.0907162 0.00439845 0)
(0.0725089 0.00481788 0)
(0.0528157 0.00513639 0)
(0.0322058 0.00529785 0)
(0.0108662 0.0055436 0)
(0.00624446 -0.0290003 0)
(0.0376222 -0.0235576 0)
(0.0643989 -0.0160199 0)
(0.0881252 -0.0135254 0)
(0.109983 -0.0114792 0)
(0.126594 -0.00936514 0)
(0.138677 -0.0068976 0)
(0.146869 -0.00405395 0)
(0.151039 -0.00107337 0)
(0.151265 0.001907 0)
(0.147659 0.00477967 0)
(0.140226 0.00745944 0)
(0.129215 0.00986189 0)
(0.115002 0.0119576 0)
(0.0979676 0.0137052 0)
(0.0785975 0.015149 0)
(0.0574008 0.0162261 0)
(0.0350265 0.0167933 0)
(0.0117818 0.0173662 0)
(0.00755118 -0.0406831 0)
(0.0439937 -0.0387182 0)
(0.0715731 -0.0294357 0)
(0.0931608 -0.026014 0)
(0.113063 -0.0213279 0)
(0.128494 -0.016676 0)
(0.140256 -0.012059 0)
(0.148295 -0.00719463 0)
(0.152318 -0.00213682 0)
(0.152284 0.00290711 0)
(0.148309 0.007797 0)
(0.140533 0.012388 0)
(0.129267 0.0165262 0)
(0.114883 0.0201648 0)
(0.0977683 0.023236 0)
(0.0783756 0.0257573 0)
(0.0571947 0.0276465 0)
(0.0348793 0.0286456 0)
(0.0117134 0.0296197 0)
(0.0101908 -0.0567165 0)
(0.0492443 -0.0550787 0)
(0.0762816 -0.0411687 0)
(0.0959341 -0.0363921 0)
(0.11573 -0.0296145 0)
(0.131008 -0.0234521 0)
(0.142866 -0.0171216 0)
(0.151039 -0.0102301 0)
(0.155083 -0.00309843 0)
(0.154973 0.00403336 0)
(0.150848 0.0109394 0)
(0.142841 0.0174075 0)
(0.131281 0.0232891 0)
(0.116584 0.0284597 0)
(0.0991525 0.0328433 0)
(0.0794464 0.0364186 0)
(0.0579465 0.0390982 0)
(0.0353155 0.0405412 0)
(0.0118518 0.0418931 0)
(0.00981462 -0.0764737 0)
(0.0504987 -0.0710928 0)
(0.0795286 -0.0524815 0)
(0.0984264 -0.0471089 0)
(0.119122 -0.0382931 0)
(0.134374 -0.0305051 0)
(0.14642 -0.0223775 0)
(0.154849 -0.0133953 0)
(0.159 -0.00411543 0)
(0.158866 0.00517984 0)
(0.154587 0.014181 0)
(0.146327 0.0225797 0)
(0.134432 0.0302304 0)
(0.119322 0.0369624 0)
(0.101436 0.042667 0)
(0.0812417 0.0472844 0)
(0.0592356 0.0507534 0)
(0.0360809 0.0526496 0)
(0.0120945 0.0543494 0)
(0.00977979 -0.089835 0)
(0.0526655 -0.086203 0)
(0.0830659 -0.0653816 0)
(0.0998912 -0.0588462 0)
(0.122692 -0.047119 0)
(0.138301 -0.0376963 0)
(0.150757 -0.027813 0)
(0.159596 -0.0167002 0)
(0.163925 -0.00515209 0)
(0.163796 0.00639248 0)
(0.159349 0.0175412 0)
(0.150769 0.0279515 0)
(0.138449 0.0374138 0)
(0.122819 0.0457457 0)
(0.104343 0.0527666 0)
(0.0835306 0.0584465 0)
(0.0608901 0.0627294 0)
(0.03706 0.0650783 0)
(0.0124034 0.0671074 0)
(0.00369421 -0.125472 0)
(0.0541386 -0.105315 0)
(0.087064 -0.0788829 0)
(0.0986897 -0.0709372 0)
(0.125566 -0.0565542 0)
(0.142403 -0.0453471 0)
(0.155706 -0.0335873 0)
(0.165186 -0.0202971 0)
(0.169802 -0.00632743 0)
(0.169699 0.00760825 0)
(0.165062 0.0210072 0)
(0.156118 0.0335026 0)
(0.143291 0.0448665 0)
(0.127024 0.0548152 0)
(0.107836 0.0631878 0)
(0.0862896 0.0699722 0)
(0.0628781 0.0750763 0)
(0.0382337 0.0778993 0)
(0.012776 0.0802288 0)
(0.0134854 -0.12835 0)
(0.0614996 -0.109752 0)
(0.0935995 -0.0884519 0)
(0.0979907 -0.0806259 0)
(0.129181 -0.0666926 0)
(0.147748 -0.053599 0)
(0.162078 -0.0395247 0)
(0.172262 -0.0239235 0)
(0.177148 -0.00747416 0)
(0.176944 0.00888837 0)
(0.171961 0.0246459 0)
(0.16252 0.0393027 0)
(0.149047 0.0525712 0)
(0.13199 0.064181 0)
(0.111954 0.0739501 0)
(0.0895259 0.0818377 0)
(0.065202 0.0877555 0)
(0.0396026 0.0910715 0)
(0.0132047 0.0936736 0)
(0.0053949 -0.0534274 0)
(0.0529063 -0.236339 0)
(0.115204 -0.289349 0)
(0.17239 -0.271564 0)
(0.223168 -0.240894 0)
(0.27226 -0.220375 0)
(0.322927 -0.211594 0)
(0.375702 -0.209419 0)
(0.429898 -0.208889 0)
(0.484764 -0.206785 0)
(0.539882 -0.201269 0)
(0.59493 -0.190975 0)
(0.649335 -0.174549 0)
(0.702226 -0.150422 0)
(0.752704 -0.11639 0)
(0.799458 -0.0697411 0)
(0.840017 -0.00742646 0)
(0.870948 0.0741251 0)
(0.887212 0.176736 0)
(0.892939 0.30305 0)
(0.871296 0.466474 0)
(0.900674 0.656127 0)
(0.798702 1.10143 0)
(0.0111878 -0.0828717 0)
(0.0626184 -0.295691 0)
(0.121516 -0.348109 0)
(0.173123 -0.323023 0)
(0.220173 -0.289704 0)
(0.268594 -0.270688 0)
(0.320661 -0.264528 0)
(0.375769 -0.264435 0)
(0.432764 -0.265173 0)
(0.491029 -0.263858 0)
(0.550623 -0.259019 0)
(0.6114 -0.249115 0)
(0.672676 -0.23241 0)
(0.734148 -0.207142 0)
(0.79652 -0.170387 0)
(0.859838 -0.118763 0)
(0.921953 -0.0486437 0)
(0.977154 0.0387388 0)
(1.02006 0.147962 0)
(1.05789 0.276484 0)
(1.07307 0.435425 0)
(1.14018 0.593244 0)
(1.18951 0.92796 0)
(0.0172181 -0.120732 0)
(0.07157 -0.354993 0)
(0.126275 -0.400922 0)
(0.172347 -0.369111 0)
(0.216656 -0.336474 0)
(0.265281 -0.321693 0)
(0.318882 -0.319541 0)
(0.375824 -0.322177 0)
(0.434751 -0.324899 0)
(0.4954 -0.325562 0)
(0.558039 -0.322929 0)
(0.622315 -0.314557 0)
(0.687814 -0.298323 0)
(0.757825 -0.273857 0)
(0.835302 -0.237963 0)
(0.920243 -0.187579 0)
(1.00527 -0.112541 0)
(1.08397 -0.00487173 0)
(1.15099 0.139476 0)
(1.20256 0.302713 0)
(1.24188 0.461972 0)
(1.29734 0.58875 0)
(1.38064 0.75156 0)
(0.0231768 -0.166107 0)
(0.0793459 -0.413331 0)
(0.128933 -0.4484 0)
(0.169974 -0.411747 0)
(0.212618 -0.38296 0)
(0.261655 -0.374043 0)
(0.315825 -0.376192 0)
(0.372607 -0.38147 0)
(0.430741 -0.386236 0)
(0.490363 -0.388757 0)
(0.551791 -0.387623 0)
(0.616223 -0.379639 0)
(0.685825 -0.366844 0)
(0.771776 -0.356631 0)
(0.874251 -0.342024 0)
(0.983992 -0.318575 0)
(1.09286 -0.265932 0)
(1.19374 -0.176551 0)
(1.27877 -0.0590293 0)
(1.33256 0.0861351 0)
(1.36665 0.251731 0)
(1.4028 0.419121 0)
(1.46759 0.58228 0)
(0.0292481 -0.21877 0)
(0.0860177 -0.469654 0)
(0.128449 -0.490588 0)
(0.164571 -0.451785 0)
(0.205797 -0.429329 0)
(0.253959 -0.42645 0)
(0.305963 -0.431638 0)
(0.358875 -0.437928 0)
(0.412633 -0.44316 0)
(0.468274 -0.446073 0)
(0.528587 -0.447694 0)
(0.599793 -0.448232 0)
(0.688313 -0.461032 0)
(0.807529 -0.494168 0)
(0.94248 -0.502723 0)
(1.05813 -0.470242 0)
(1.13488 -0.373951 0)
(1.20907 -0.228797 0)
(1.2669 0.0145197 0)
(1.32329 0.196979 0)
(1.3717 0.320461 0)
(1.41369 0.421882 0)
(1.46195 0.513519 0)
(0.0357784 -0.278693 0)
(0.0923745 -0.519769 0)
(0.123358 -0.524481 0)
(0.153912 -0.487665 0)
(0.193098 -0.473022 0)
(0.238488 -0.474701 0)
(0.286294 -0.480783 0)
(0.335244 -0.487418 0)
(0.389399 -0.495329 0)
(0.451482 -0.505833 0)
(0.532577 -0.526371 0)
(0.64493 -0.56025 0)
(0.786415 -0.607521 0)
(0.967848 -0.665061 0)
(1.13029 -0.608047 0)
(1.21364 -0.483902 0)
(1.16 -0.32368 0)
(1.11287 -0.198744 0)
(1.35376 -0.00734003 0)
(1.49485 0.201568 0)
(1.518 0.333988 0)
(1.48436 0.42002 0)
(1.45159 0.481181 0)
(0.0457521 -0.34923 0)
(0.103492 -0.557696 0)
(0.114744 -0.546705 0)
(0.139526 -0.519786 0)
(0.17904 -0.514933 0)
(0.225336 -0.520646 0)
(0.276691 -0.530217 0)
(0.337884 -0.545368 0)
(0.421589 -0.570107 0)
(0.533941 -0.608049 0)
(0.688989 -0.668394 0)
(0.943703 -0.743995 0)
(1.13988 -0.784288 0)
(1.28443 -0.789398 0)
(1.28741 -0.580713 0)
(1.19388 -0.351404 0)
(1.07244 -0.222436 0)
(1.18213 -0.403874 0)
(1.41582 -0.46218 0)
(1.77557 -0.143661 0)
(2.01187 0.309496 0)
(1.97176 0.535012 0)
(1.7892 0.560208 0)
(0.062733 -0.432128 0)
(0.127905 -0.590385 0)
(0.113947 -0.563061 0)
(0.139597 -0.557339 0)
(0.193752 -0.566851 0)
(0.261046 -0.582632 0)
(0.343503 -0.606857 0)
(0.459178 -0.647935 0)
(0.632844 -0.722063 0)
(0.831148 -0.78445 0)
(1.03798 -0.908243 0)
(1.19658 -0.905734 0)
(1.33864 -0.874009 0)
(1.40853 -0.776259 0)
(1.3694 -0.52286 0)
(1.21587 -0.246796 0)
(1.18067 -0.299921 0)
(1.26822 -0.650977 0)
(1.34962 -0.698709 0)
(1.49423 -0.459836 0)
(1.76002 0.0350501 0)
(1.96509 0.537667 0)
(1.98509 0.740738 0)
(0.0686192 -0.53629 0)
(0.160797 -0.637964 0)
(0.155602 -0.573546 0)
(0.204208 -0.609972 0)
(0.299582 -0.654527 0)
(0.42561 -0.694513 0)
(0.541407 -0.732661 0)
(0.675851 -0.809809 0)
(0.821514 -0.895285 0)
(0.987724 -0.938897 0)
(1.16497 -1.03416 0)
(1.32621 -1.05896 0)
(1.45369 -0.997558 0)
(1.52383 -0.813338 0)
(1.50133 -0.460812 0)
(1.36394 -0.121689 0)
(1.26839 -0.390772 0)
(1.23538 -0.626947 0)
(1.19337 -0.655436 0)
(1.16933 -0.454199 0)
(1.24275 -0.0453097 0)
(1.37303 0.412036 0)
(1.57569 0.668041 0)
(0.00846341 -0.690487 0)
(0.0908197 -0.653912 0)
(0.206255 -0.603086 0)
(0.26709 -0.674658 0)
(0.329676 -0.743599 0)
(0.41319 -0.767425 0)
(0.517124 -0.829663 0)
(0.639047 -0.926048 0)
(0.772814 -1.03901 0)
(0.932373 -1.14777 0)
(1.09462 -1.22998 0)
(1.24586 -1.22958 0)
(1.3562 -1.11187 0)
(1.4095 -0.854935 0)
(1.42421 -0.39726 0)
(1.35457 -0.00986479 0)
(1.20795 -0.28319 0)
(1.11317 -0.531713 0)
(1.01807 -0.578419 0)
(0.93278 -0.407783 0)
(0.853618 -0.0574099 0)
(0.913296 0.199139 0)
(1.16283 0.350641 0)
(-0.0112839 -0.670398 0)
(0.0303856 -0.678273 0)
(0.132578 -0.711864 0)
(0.220079 -0.758962 0)
(0.285157 -0.813899 0)
(0.35186 -0.874193 0)
(0.425627 -0.953068 0)
(0.522518 -1.06167 0)
(0.628198 -1.19662 0)
(0.771638 -1.30949 0)
(0.892243 -1.37158 0)
(0.994254 -1.35632 0)
(1.06166 -1.19489 0)
(1.07859 -0.88901 0)
(1.0776 -0.379884 0)
(1.06792 0.0666435 0)
(0.993213 -0.192612 0)
(0.914669 -0.441926 0)
(0.834091 -0.455706 0)
(0.704663 -0.26941 0)
(0.653324 -0.0691864 0)
(0.78496 -0.0187215 0)
(1.05085 0.032941 0)
(0.0106864 -0.683862 0)
(0.0519769 -0.832853 0)
(0.112029 -0.810838 0)
(0.169804 -0.827685 0)
(0.218823 -0.875552 0)
(0.266848 -0.939029 0)
(0.31521 -1.02527 0)
(0.38614 -1.15077 0)
(0.451338 -1.30745 0)
(0.553242 -1.41306 0)
(0.603719 -1.46149 0)
(0.647508 -1.42463 0)
(0.640489 -1.20421 0)
(0.620994 -0.839872 0)
(0.580797 -0.288529 0)
(0.642237 0.0193904 0)
(0.670629 -0.221525 0)
(0.654284 -0.359748 0)
(0.575968 -0.301563 0)
(0.477309 -0.199328 0)
(0.573246 -0.187689 0)
(0.750682 -0.248286 0)
(1.02143 -0.257984 0)
(0.0306379 -0.724751 0)
(0.0602012 -0.867324 0)
(0.0828123 -0.84631 0)
(0.119911 -0.866826 0)
(0.153542 -0.913555 0)
(0.182385 -0.975741 0)
(0.207771 -1.06679 0)
(0.241058 -1.20363 0)
(0.252026 -1.36274 0)
(0.283461 -1.45444 0)
(0.281421 -1.48885 0)
(0.250116 -1.41228 0)
(0.187552 -1.15085 0)
(0.146986 -0.73888 0)
(0.14265 -0.224987 0)
(0.311663 -0.189491 0)
(0.354766 -0.281292 0)
(0.340609 -0.258489 0)
(0.277762 -0.218663 0)
(0.351653 -0.288113 0)
(0.508895 -0.379202 0)
(0.710194 -0.470711 0)
(0.888981 -0.51019 0)
(0.0305965 -0.770556 0)
(0.0494062 -0.882305 0)
(0.0569253 -0.868103 0)
(0.0806922 -0.893103 0)
(0.098866 -0.935029 0)
(0.108227 -0.990435 0)
(0.10916 -1.07452 0)
(0.0968151 -1.20268 0)
(0.0545464 -1.34585 0)
(0.0136213 -1.43579 0)
(-0.0334823 -1.45173 0)
(-0.111213 -1.35052 0)
(-0.207313 -1.08341 0)
(-0.210768 -0.684312 0)
(-0.138565 -0.346078 0)
(-0.0150714 -0.338654 0)
(-0.009359 -0.262231 0)
(0.0125054 -0.179239 0)
(0.146045 -0.335577 0)
(0.283017 -0.44408 0)
(0.424078 -0.554086 0)
(0.609412 -0.65948 0)
(0.721541 -0.735437 0)
(0.022559 -0.809359 0)
(0.0340727 -0.885969 0)
(0.0357199 -0.882331 0)
(0.0483286 -0.906084 0)
(0.0528741 -0.939737 0)
(0.047415 -0.983286 0)
(0.0290249 -1.04943 0)
(-0.0165582 -1.15236 0)
(-0.0953342 -1.27365 0)
(-0.191021 -1.36062 0)
(-0.292849 -1.36731 0)
(-0.409006 -1.26176 0)
(-0.501144 -1.01568 0)
(-0.472809 -0.687381 0)
(-0.402455 -0.450707 0)
(-0.373294 -0.354705 0)
(-0.252527 -0.30603 0)
(-0.0753369 -0.386625 0)
(0.079488 -0.490623 0)
(0.200967 -0.575614 0)
(0.322771 -0.695338 0)
(0.45425 -0.818703 0)
(0.567897 -0.921288 0)
(0.0135112 -0.835004 0)
(0.0196323 -0.88366 0)
(0.0183069 -0.888276 0)
(0.0216359 -0.907971 0)
(0.0172919 -0.933332 0)
(0.00404801 -0.963534 0)
(-0.0219219 -1.00696 0)
(-0.0773906 -1.07804 0)
(-0.17 -1.16955 0)
(-0.29191 -1.23806 0)
(-0.4309 -1.24088 0)
(-0.564718 -1.15289 0)
(-0.64652 -0.962203 0)
(-0.643249 -0.703446 0)
(-0.556164 -0.511645 0)
(-0.411359 -0.49328 0)
(-0.247911 -0.521135 0)
(-0.095262 -0.560097 0)
(0.0172528 -0.602713 0)
(0.123146 -0.686212 0)
(0.218832 -0.801285 0)
(0.305727 -0.934619 0)
(0.408372 -1.04603 0)
(0.00623366 -0.848149 0)
(0.00785652 -0.880503 0)
(0.00454402 -0.888099 0)
(0.00134596 -0.903208 0)
(-0.00752624 -0.921666 0)
(-0.0230595 -0.941074 0)
(-0.0477896 -0.964841 0)
(-0.0941455 -1.00578 0)
(-0.174567 -1.06355 0)
(-0.284723 -1.11035 0)
(-0.407476 -1.11352 0)
(-0.517421 -1.05583 0)
(-0.578149 -0.945188 0)
(-0.553687 -0.817859 0)
(-0.451366 -0.713637 0)
(-0.326279 -0.664737 0)
(-0.217554 -0.657676 0)
(-0.12391 -0.664448 0)
(-0.0331984 -0.698497 0)
(0.0520481 -0.773808 0)
(0.12396 -0.876715 0)
(0.18385 -1.00904 0)
(0.247051 -1.13026 0)
(0.00159883 -0.851591 0)
(-0.000734933 -0.876499 0)
(-0.00623232 -0.88358 0)
(-0.0134992 -0.894828 0)
(-0.0247056 -0.908275 0)
(-0.0404724 -0.921251 0)
(-0.0606753 -0.933556 0)
(-0.0922027 -0.952699 0)
(-0.146389 -0.983871 0)
(-0.222509 -1.01527 0)
(-0.306178 -1.02402 0)
(-0.376882 -0.993448 0)
(-0.412374 -0.925584 0)
(-0.399909 -0.84578 0)
(-0.347029 -0.784818 0)
(-0.278718 -0.752454 0)
(-0.213923 -0.736572 0)
(-0.147848 -0.740798 0)
(-0.076961 -0.776739 0)
(-0.0128679 -0.840558 0)
(0.040065 -0.931023 0)
(0.0799693 -1.05193 0)
(0.106571 -1.18053 0)
(-0.0012509 -0.84924 0)
(-0.00699254 -0.870482 0)
(-0.0145793 -0.876003 0)
(-0.0242854 -0.884278 0)
(-0.0369172 -0.894151 0)
(-0.0527355 -0.903792 0)
(-0.0705107 -0.911586 0)
(-0.0920734 -0.92029 0)
(-0.124473 -0.935467 0)
(-0.171263 -0.954476 0)
(-0.226124 -0.9634 0)
(-0.276078 -0.949611 0)
(-0.306346 -0.912918 0)
(-0.308551 -0.865511 0)
(-0.287858 -0.823558 0)
(-0.2558 -0.796653 0)
(-0.216054 -0.787276 0)
(-0.167938 -0.799163 0)
(-0.118052 -0.833887 0)
(-0.0728069 -0.889408 0)
(-0.0339314 -0.969068 0)
(-0.00663236 -1.07728 0)
(0.00189491 -1.20869 0)
(-0.00298717 -0.843433 0)
(-0.0113649 -0.862119 0)
(-0.0209063 -0.866155 0)
(-0.0322271 -0.872212 0)
(-0.0457812 -0.879396 0)
(-0.0618581 -0.886806 0)
(-0.0795316 -0.893133 0)
(-0.0982126 -0.898539 0)
(-0.120806 -0.905628 0)
(-0.151671 -0.914799 0)
(-0.189665 -0.919439 0)
(-0.226803 -0.910965 0)
(-0.253633 -0.888336 0)
(-0.264714 -0.859667 0)
(-0.260689 -0.835361 0)
(-0.244879 -0.821777 0)
(-0.21959 -0.822023 0)
(-0.188716 -0.838484 0)
(-0.157672 -0.871835 0)
(-0.129008 -0.922739 0)
(-0.104713 -0.994383 0)
(-0.0896778 -1.09222 0)
(-0.0897874 -1.21953 0)
(-0.00413542 -0.834945 0)
(-0.0144471 -0.852017 0)
(-0.0255468 -0.854761 0)
(-0.0379909 -0.859104 0)
(-0.0521519 -0.864169 0)
(-0.0683448 -0.869536 0)
(-0.0863347 -0.874578 0)
(-0.10545 -0.878769 0)
(-0.126134 -0.882367 0)
(-0.150513 -0.885718 0)
(-0.179087 -0.886726 0)
(-0.20781 -0.881312 0)
(-0.23055 -0.868285 0)
(-0.243441 -0.852063 0)
(-0.246052 -0.839522 0)
(-0.239737 -0.835426 0)
(-0.226937 -0.842007 0)
(-0.211349 -0.860779 0)
(-0.196002 -0.893093 0)
(-0.182387 -0.94085 0)
(-0.17318 -1.00656 0)
(-0.171606 -1.09437 0)
(-0.180597 -1.21114 0)
(-0.00492934 -0.824656 0)
(-0.0166103 -0.840521 0)
(-0.028839 -0.842277 0)
(-0.0420614 -0.845301 0)
(-0.0565935 -0.84875 0)
(-0.0726658 -0.852335 0)
(-0.0903773 -0.855767 0)
(-0.109587 -0.858719 0)
(-0.130042 -0.860834 0)
(-0.151916 -0.861918 0)
(-0.175337 -0.861318 0)
(-0.198634 -0.857506 0)
(-0.218375 -0.850159 0)
(-0.231874 -0.842116 0)
(-0.238707 -0.837567 0)
(-0.240071 -0.839405 0)
(-0.238009 -0.849354 0)
(-0.234924 -0.868963 0)
(-0.232639 -0.899897 0)
(-0.232602 -0.944355 0)
(-0.237766 -1.00473 0)
(-0.24994 -1.0834 0)
(-0.268487 -1.18688 0)
(-0.00547213 -0.813132 0)
(-0.0181019 -0.828038 0)
(-0.0310964 -0.829053 0)
(-0.0448323 -0.831057 0)
(-0.0595741 -0.833301 0)
(-0.0754658 -0.835539 0)
(-0.0925873 -0.837565 0)
(-0.111012 -0.839246 0)
(-0.130633 -0.84036 0)
(-0.151127 -0.840563 0)
(-0.172069 -0.839517 0)
(-0.192519 -0.836982 0)
(-0.210781 -0.833344 0)
(-0.22543 -0.830266 0)
(-0.236339 -0.830145 0)
(-0.244444 -0.834984 0)
(-0.251177 -0.846314 0)
(-0.258184 -0.865559 0)
(-0.266937 -0.894257 0)
(-0.279009 -0.934576 0)
(-0.297438 -0.989071 0)
(-0.323669 -1.05908 0)
(-0.35498 -1.14887 0)
(-0.00583227 -0.800791 0)
(-0.0190901 -0.814895 0)
(-0.0325649 -0.815353 0)
(-0.0466093 -0.816558 0)
(-0.0614417 -0.81787 0)
(-0.0771742 -0.819109 0)
(-0.0938339 -0.820107 0)
(-0.111468 -0.820748 0)
(-0.130088 -0.820939 0)
(-0.149472 -0.820561 0)
(-0.169102 -0.819542 0)
(-0.188301 -0.81797 0)
(-0.206343 -0.816324 0)
(-0.222699 -0.815715 0)
(-0.237374 -0.817674 0)
(-0.250997 -0.823662 0)
(-0.264679 -0.834927 0)
(-0.279828 -0.852614 0)
(-0.297824 -0.877982 0)
(-0.320301 -0.912999 0)
(-0.350291 -0.960208 0)
(-0.389617 -1.02069 0)
(-0.435364 -1.09646 0)
(-0.00605881 -0.787932 0)
(-0.0196862 -0.801356 0)
(-0.0334198 -0.801385 0)
(-0.0476052 -0.801949 0)
(-0.0624275 -0.802509 0)
(-0.0779842 -0.802936 0)
(-0.0943144 -0.803119 0)
(-0.111435 -0.802972 0)
(-0.129324 -0.802444 0)
(-0.147852 -0.801541 0)
(-0.166737 -0.800358 0)
(-0.185604 -0.799125 0)
(-0.204134 -0.798306 0)
(-0.222195 -0.798657 0)
(-0.239941 -0.801169 0)
(-0.257902 -0.806911 0)
(-0.277041 -0.816863 0)
(-0.298664 -0.831874 0)
(-0.324129 -0.852896 0)
(-0.355077 -0.88155 0)
(-0.394417 -0.920038 0)
(-0.444448 -0.969372 0)
(-0.503558 -1.02989 0)
(-0.00618348 -0.774785 0)
(-0.0199629 -0.787626 0)
(-0.0337837 -0.787313 0)
(-0.0479668 -0.787353 0)
(-0.0626898 -0.787285 0)
(-0.0780261 -0.787021 0)
(-0.0940347 -0.786493 0)
(-0.110751 -0.785666 0)
(-0.128167 -0.784524 0)
(-0.146198 -0.783099 0)
(-0.164707 -0.781535 0)
(-0.183567 -0.78011 0)
(-0.202729 -0.779244 0)
(-0.222275 -0.779481 0)
(-0.24245 -0.781474 0)
(-0.263754 -0.785947 0)
(-0.287082 -0.793605 0)
(-0.31368 -0.805046 0)
(-0.34486 -0.820924 0)
(-0.382193 -0.842414 0)
(-0.428384 -0.871198 0)
(-0.48604 -0.908139 0)
(-0.555002 -0.952617 0)
(-0.00622603 -0.761531 0)
(-0.01997 -0.773874 0)
(-0.0337388 -0.773274 0)
(-0.0477959 -0.772872 0)
(-0.0623348 -0.772263 0)
(-0.0774057 -0.771397 0)
(-0.0930786 -0.770228 0)
(-0.109408 -0.768744 0)
(-0.126433 -0.766958 0)
(-0.144136 -0.764928 0)
(-0.162465 -0.762789 0)
(-0.181422 -0.760789 0)
(-0.20113 -0.759272 0)
(-0.22182 -0.758642 0)
(-0.24381 -0.759332 0)
(-0.267586 -0.761802 0)
(-0.293968 -0.766505 0)
(-0.324123 -0.773794 0)
(-0.359308 -0.784014 0)
(-0.400963 -0.797897 0)
(-0.451477 -0.816593 0)
(-0.513538 -0.840657 0)
(-0.588001 -0.868869 0)
(-0.006197 -0.748332 0)
(-0.0197428 -0.76024 0)
(-0.0333367 -0.759391 0)
(-0.0471583 -0.758602 0)
(-0.0614258 -0.757507 0)
(-0.0761785 -0.756091 0)
(-0.0914954 -0.754319 0)
(-0.107446 -0.752189 0)
(-0.124094 -0.74972 0)
(-0.141486 -0.746973 0)
(-0.159652 -0.744067 0)
(-0.178673 -0.741197 0)
(-0.198749 -0.73862 0)
(-0.22019 -0.736619 0)
(-0.243378 -0.735471 0)
(-0.268793 -0.735442 0)
(-0.297165 -0.736769 0)
(-0.329547 -0.73959 0)
(-0.36713 -0.74398 0)
(-0.411189 -0.75024 0)
(-0.463679 -0.759032 0)
(-0.527108 -0.770587 0)
(-0.602918 -0.783298 0)
(-0.00610234 -0.735338 0)
(-0.0193103 -0.746853 0)
(-0.0326112 -0.745779 0)
(-0.0460962 -0.744636 0)
(-0.0599993 -0.743094 0)
(-0.074363 -0.741155 0)
(-0.0892678 -0.738795 0)
(-0.1048 -0.736013 0)
(-0.121042 -0.732827 0)
(-0.138079 -0.729283 0)
(-0.155998 -0.725464 0)
(-0.174942 -0.721509 0)
(-0.195147 -0.717595 0)
(-0.216948 -0.713907 0)
(-0.240743 -0.710604 0)
(-0.267008 -0.707795 0)
(-0.296397 -0.705536 0)
(-0.329839 -0.703804 0)
(-0.368398 -0.702467 0)
(-0.413143 -0.701461 0)
(-0.46559 -0.70101 0)
(-0.52792 -0.701148 0)
(-0.601746 -0.700141 0)
(-0.00594681 -0.722686 0)
(-0.0186988 -0.733831 0)
(-0.0315888 -0.732551 0)
(-0.0446397 -0.731075 0)
(-0.0580808 -0.729113 0)
(-0.0719698 -0.726671 0)
(-0.086383 -0.723731 0)
(-0.10142 -0.720283 0)
(-0.117179 -0.716338 0)
(-0.13377 -0.711922 0)
(-0.151316 -0.707087 0)
(-0.169985 -0.701917 0)
(-0.190033 -0.696512 0)
(-0.211798 -0.690969 0)
(-0.235668 -0.68535 0)
(-0.262084 -0.679658 0)
(-0.291629 -0.67381 0)
(-0.325107 -0.667641 0)
(-0.363422 -0.660872 0)
(-0.407428 -0.653189 0)
(-0.458258 -0.644484 0)
(-0.517702 -0.634648 0)
(-0.587236 -0.622044 0)
(-0.00573527 -0.710491 0)
(-0.0179316 -0.721281 0)
(-0.030294 -0.719813 0)
(-0.0428123 -0.718021 0)
(-0.0556906 -0.71566 0)
(-0.0690076 -0.71273 0)
(-0.0828344 -0.709214 0)
(-0.0972786 -0.705098 0)
(-0.112446 -0.700377 0)
(-0.128462 -0.695052 0)
(-0.145466 -0.689142 0)
(-0.163643 -0.682681 0)
(-0.183244 -0.675709 0)
(-0.204596 -0.66825 0)
(-0.228057 -0.660286 0)
(-0.254019 -0.651735 0)
(-0.282985 -0.642428 0)
(-0.31564 -0.632094 0)
(-0.352731 -0.620339 0)
(-0.394905 -0.606708 0)
(-0.442952 -0.590891 0)
(-0.498244 -0.57264 0)
(-0.562034 -0.550527 0)
(-0.00547186 -0.698849 0)
(-0.0170256 -0.709307 0)
(-0.0287494 -0.707666 0)
(-0.0406342 -0.705572 0)
(-0.0528488 -0.702833 0)
(-0.0654881 -0.699431 0)
(-0.0786206 -0.695351 0)
(-0.0923563 -0.690569 0)
(-0.106806 -0.685064 0)
(-0.1221 -0.678818 0)
(-0.138384 -0.671817 0)
(-0.155842 -0.664051 0)
(-0.174712 -0.65551 0)
(-0.195296 -0.646161 0)
(-0.21792 -0.635924 0)
(-0.242925 -0.624651 0)
(-0.270724 -0.612109 0)
(-0.30186 -0.59797 0)
(-0.336942 -0.581784 0)
(-0.376486 -0.563013 0)
(-0.420972 -0.541216 0)
(-0.471348 -0.516088 0)
(-0.528661 -0.486486 0)
(-0.00515585 -0.68785 0)
(-0.0159847 -0.698005 0)
(-0.0269694 -0.696208 0)
(-0.0381199 -0.693828 0)
(-0.0495731 -0.69073 0)
(-0.0614281 -0.686877 0)
(-0.0737551 -0.682251 0)
(-0.0866608 -0.676817 0)
(-0.100257 -0.670542 0)
(-0.114672 -0.663387 0)
(-0.130052 -0.655313 0)
(-0.146569 -0.646271 0)
(-0.164443 -0.636208 0)
(-0.183943 -0.625048 0)
(-0.205362 -0.61267 0)
(-0.228986 -0.598885 0)
(-0.255137 -0.58341 0)
(-0.284238 -0.565873 0)
(-0.316768 -0.545822 0)
(-0.353101 -0.522715 0)
(-0.393511 -0.49602 0)
(-0.438623 -0.465417 0)
(-0.489187 -0.430085 0)
(-0.00477441 -0.677586 0)
(-0.0147919 -0.687466 0)
(-0.024952 -0.68553 0)
(-0.0352702 -0.682883 0)
(-0.0458719 -0.67945 0)
(-0.0568419 -0.675173 0)
(-0.0682569 -0.670028 0)
(-0.0802141 -0.66397 0)
(-0.0928223 -0.656954 0)
(-0.106206 -0.648925 0)
(-0.120503 -0.63982 0)
(-0.135873 -0.629564 0)
(-0.152511 -0.618071 0)
(-0.17065 -0.605228 0)
(-0.190546 -0.590885 0)
(-0.212443 -0.574831 0)
(-0.236582 -0.556763 0)
(-0.263263 -0.536281 0)
(-0.292851 -0.512933 0)
(-0.325626 -0.486207 0)
(-0.361707 -0.455583 0)
(-0.40147 -0.420725 0)
(-0.445453 -0.38106 0)
(-0.00429868 -0.668211 0)
(-0.0134047 -0.677813 0)
(-0.0226752 -0.675754 0)
(-0.0320658 -0.672861 0)
(-0.0417349 -0.669121 0)
(-0.0517289 -0.664455 0)
(-0.0621362 -0.658831 0)
(-0.0730392 -0.652193 0)
(-0.0845398 -0.644482 0)
(-0.0967527 -0.635631 0)
(-0.109806 -0.625559 0)
(-0.123843 -0.614172 0)
(-0.139034 -0.601359 0)
(-0.155576 -0.586983 0)
(-0.173686 -0.570872 0)
(-0.193571 -0.552809 0)
(-0.215413 -0.532491 0)
(-0.239414 -0.509511 0)
(-0.265822 -0.483415 0)
(-0.294835 -0.453741 0)
(-0.326491 -0.420017 0)
(-0.360968 -0.381903 0)
(-0.398599 -0.339022 0)
(-0.0036953 -0.659947 0)
(-0.0117696 -0.669186 0)
(-0.0201043 -0.667016 0)
(-0.0284705 -0.663909 0)
(-0.0371264 -0.659889 0)
(-0.046059 -0.654875 0)
(-0.0553714 -0.648819 0)
(-0.06513 -0.641657 0)
(-0.0754247 -0.633319 0)
(-0.0863548 -0.623722 0)
(-0.0980316 -0.612773 0)
(-0.110581 -0.60036 0)
(-0.124149 -0.586355 0)
(-0.1389 -0.570608 0)
(-0.155014 -0.552933 0)
(-0.172665 -0.533109 0)
(-0.191996 -0.510853 0)
(-0.213133 -0.485779 0)
(-0.236226 -0.457432 0)
(-0.261401 -0.425386 0)
(-0.288642 -0.389253 0)
(-0.318002 -0.34872 0)
(-0.349735 -0.303568 0)
(-0.00295919 -0.652733 0)
(-0.00986979 -0.661396 0)
(-0.0172292 -0.659125 0)
(-0.0244748 -0.655845 0)
(-0.032025 -0.651577 0)
(-0.0398065 -0.646256 0)
(-0.0479334 -0.639823 0)
(-0.0564615 -0.632208 0)
(-0.0654659 -0.623333 0)
(-0.0750258 -0.613104 0)
(-0.0852297 -0.601411 0)
(-0.0961784 -0.58813 0)
(-0.10799 -0.573117 0)
(-0.1208 -0.556208 0)
(-0.134756 -0.537212 0)
(-0.15 -0.515906 0)
(-0.166655 -0.492026 0)
(-0.184803 -0.465227 0)
(-0.204519 -0.435074 0)
(-0.225864 -0.401148 0)
(-0.248793 -0.363146 0)
(-0.273301 -0.320842 0)
(-0.299538 -0.274122 0)
(-0.00214549 -0.646271 0)
(-0.00778567 -0.654022 0)
(-0.0141273 -0.65166 0)
(-0.0201814 -0.648249 0)
(-0.0265312 -0.643769 0)
(-0.0330706 -0.638176 0)
(-0.039914 -0.631407 0)
(-0.0471145 -0.623396 0)
(-0.0547361 -0.61406 0)
(-0.0628413 -0.603302 0)
(-0.0714943 -0.591006 0)
(-0.0807662 -0.577035 0)
(-0.0907397 -0.561232 0)
(-0.101513 -0.543422 0)
(-0.113198 -0.523403 0)
(-0.125909 -0.500951 0)
(-0.139752 -0.475816 0)
(-0.154802 -0.447694 0)
(-0.171096 -0.416187 0)
(-0.188653 -0.380871 0)
(-0.207414 -0.341481 0)
(-0.227331 -0.297891 0)
(-0.248499 -0.250051 0)
(-0.0013553 -0.642002 0)
(-0.00568178 -0.648423 0)
(-0.0109451 -0.645998 0)
(-0.0157808 -0.642488 0)
(-0.0208621 -0.637818 0)
(-0.0260851 -0.631965 0)
(-0.0315547 -0.624865 0)
(-0.0373258 -0.616456 0)
(-0.0434566 -0.60666 0)
(-0.0500012 -0.595381 0)
(-0.0570095 -0.582504 0)
(-0.06453 -0.567891 0)
(-0.0726122 -0.551381 0)
(-0.0813121 -0.532792 0)
(-0.0906954 -0.511917 0)
(-0.100834 -0.488528 0)
(-0.111805 -0.46238 0)
(-0.123678 -0.433206 0)
(-0.136501 -0.400668 0)
(-0.150293 -0.364355 0)
(-0.16499 -0.324009 0)
(-0.180519 -0.279562 0)
(-0.196907 -0.230941 0)
(-0.000675277 -0.643106 0)