/*--------------------------------*- C++ -*----------------------------------*\
| =========                 |                                                 |
| \\      /  F ield         | OpenFOAM: The Open Source CFD Toolbox           |
|  \\    /   O peration     | Version:  2206                                  |
|   \\  /    A nd           | Website:  www.openfoam.com                      |
|    \\/     M anipulation  |                                                 |
\*---------------------------------------------------------------------------*/
FoamFile
{
    version     2.0;
    format      ascii;
    arch        "LSB;label=32;scalar=64";
    class       volScalarField;
    location    "0.75";
    object      p_rgh;
}
// * * * * * * * * * * * * * * * * * * * * * * * * * * * * * * * * * * * * * //

dimensions      [1 -1 -2 0 0 0 0];

internalField   nonuniform List<scalar> 
2268
(
748.402
748.179
747.997
747.788
747.428
746.902
746.289
745.718
745.269
744.961
744.768
744.66
744.62
744.637
744.698
744.784
744.85
744.863
744.654
744.268
744.031
744.363
744.988
748.414
748.136
747.944
747.707
747.326
746.774
746.147
745.576
745.135
744.834
744.652
744.558
744.525
744.54
744.595
744.681
744.757
744.736
744.432
743.763
743.382
743.737
744.559
748.347
748.059
747.836
747.543
747.108
746.495
745.845
745.291
744.888
744.633
744.486
744.416
744.392
744.399
744.429
744.468
744.494
744.47
744.333
744.12
744.108
744.35
744.996
748.192
747.918
747.648
747.305
746.782
746.06
745.374
744.857
744.527
744.342
744.256
744.225
744.221
744.233
744.254
744.28
744.299
744.301
744.289
744.304
744.479
744.888
745.521
747.853
747.552
747.187
746.783
746.219
745.498
744.807
744.328
744.093
744.005
743.993
744.011
744.035
744.057
744.079
744.102
744.128
744.156
744.196
744.287
744.526
744.977
745.59
747.127
746.55
745.858
745.261
744.929
744.622
744.205
743.844
743.691
743.687
743.743
743.805
743.852
743.882
743.901
743.918
743.938
743.97
744.024
744.13
744.348
744.724
745.193
745.867
744.647
743.116
742.252
742.458
743.15
743.485
743.466
743.408
743.451
743.537
743.62
743.678
743.707
743.716
743.716
743.716
743.726
743.75
743.793
743.855
743.909
743.888
744.595
742.312
739.915
738.734
739.644
741.483
742.697
743.172
743.288
743.354
743.43
743.488
743.521
743.529
743.517
743.49
743.454
743.428
743.395
743.364
743.258
743.14
741.412
284.586
278.209
258.216
211.847
214.451
255.772
319.912
409.329
535.269
680.071
820.249
964.596
1101.78
1160.3
1155.55
1133.97
1216.72
1495.95
1667.05
282.671
275.643
249.581
199.867
199.864
237.642
302.522
392.718
531.152
694.606
838.598
968.271
1107.55
1180.7
1165.12
1106.42
1169.09
1454.51
1651.53
283.357
278.451
220.667
197.043
198.169
235.362
319.034
430.475
555.888
669.786
824.739
988.666
1125.88
1221.39
1184.92
1068.13
1087.85
1369.4
1620.67
286.963
283.433
218.814
198.18
198.204
271.513
388.706
438.034
478.325
576.945
761.902
986.459
1158.38
1253.6
1206.32
1037.87
1016.59
1287.14
1580.13
290.896
258.184
221.321
201.491
249.771
368.755
357.356
347.8
312.586
410.864
660.555
968.776
1180.91
1254.24
1185.15
976.637
970.735
1196.08
1537.53
245.527
229.28
222.805
253.75
400.753
364.206
315.425
208.773
160.119
206.145
527.86
936.569
1207.58
1295.85
1160.11
967.215
908.257
1133.94
1499.24
262.473
299.583
359.765
490.342
422.33
324.202
120.703
127.488
157.852
190.537
339.906
892.789
1243.82
1323.64
1163.37
979.942
897.759
1045.98
1468.87
486.103
543.264
513
526.829
391.802
87.6468
60.3925
96.8561
241.778
397.954
528.174
927.365
1299.38
1363.24
1249.84
1004.84
924.297
1032.66
1453.56
743.749
740.645
737.443
736.013
737.66
740.602
742.483
743.25
743.415
743.401
743.357
743.312
743.272
743.235
743.182
743.093
742.956
742.752
742.412
741.769
740.217
736.959
728.018
752.336
751.376
733.494
707.348
673.99
672.145
685.141
690.7
688.28
689.644
692.326
695.49
698.718
701.17
702.562
702.951
702.558
701.756
700.74
699.211
696.95
691.579
686.429
229.559
218.004
207.422
213.531
230.326
232.289
227.089
223.229
222.412
218.721
206.951
192.899
185.306
183.262
182.574
180.755
177.62
173.802
169.827
165.057
157.723
144.286
125.95
2.1281
2.10801
2.08231
2.09206
2.09325
2.08192
2.08519
2.09045
2.10379
2.12792
2.14991
2.17035
2.18442
2.19739
2.21183
2.22964
2.25068
2.27455
2.30112
2.33049
2.3627
2.39725
2.43311
2.09376
2.08365
2.08187
2.08499
2.08546
2.08251
2.07903
2.07945
2.0977
2.1115
2.1302
2.14701
2.16255
2.17881
2.19694
2.21639
2.23713
2.25932
2.28323
2.3091
2.33775
2.36942
2.40473
2.03608
2.01821
2.01756
2.03523
2.0541
2.06846
2.07835
2.08773
2.09683
2.10744
2.1198
2.13336
2.14808
2.16381
2.17993
2.19684
2.21485
2.2341
2.25508
2.28434
2.32294
2.36163
2.38998
2.01553
2.01171
2.01207
2.02566
2.0405
2.05235
2.06203
2.07086
2.08056
2.09043
2.10082
2.11223
2.12482
2.13856
2.15311
2.16831
2.18427
2.20215
2.24513
2.27423
2.29193
2.31001
2.32887
2.01308
2.01589
2.01827
2.02239
2.03175
2.03783
2.04394
2.05073
2.05829
2.06664
2.07599
2.08632
2.0975
2.10944
2.12207
2.13529
2.15021
2.19402
2.21987
2.23324
2.24662
2.2576
2.24068
1.99641
2.00065
2.00419
2.00605
2.00989
2.01392
2.01854
2.02401
2.03032
2.03749
2.04556
2.05454
2.06437
2.07498
2.08624
2.09804
2.11434
2.16476
2.18156
2.18176
2.15759
2.16787
2.17687
1.96696
1.96883
1.97124
1.97384
1.97724
1.98119
1.98572
1.99087
1.99666
2.00313
2.01029
2.01817
2.02676
2.03605
2.04597
2.05645
2.06774
2.10487
2.13948
2.11965
2.11143
2.12066
2.12794
1.93108
1.93189
1.93407
1.93685
1.94016
1.94392
1.94815
1.95289
1.95815
1.96398
1.97036
1.97732
1.98487
1.99297
2.00162
2.01079
2.02041
2.03459
2.06484
2.07198
2.06033
2.06886
2.07637
1.89231
1.89306
1.89486
1.89722
1.90003
1.90328
1.90699
1.91116
1.9158
1.92092
1.92652
1.9326
1.93918
1.94625
1.95377
1.96173
1.97014
1.97878
1.98761
1.99848
2.00831
2.01595
2.02176
1.85021
1.85094
1.85228
1.85419
1.85651
1.85927
1.86248
1.86612
1.87017
1.87465
1.87954
1.88484
1.89056
1.89669
1.9032
1.91009
1.91731
1.9247
1.93214
1.93958
1.94757
1.95619
1.96265
1.80449
1.80511
1.80619
1.80779
1.80977
1.81217
1.81496
1.81814
1.8217
1.82563
1.82991
1.83455
1.83954
1.84487
1.85053
1.8565
1.86273
1.86913
1.87559
1.88203
1.88839
1.89438
1.89934
1.75573
1.75624
1.75715
1.75852
1.76024
1.76233
1.76477
1.76757
1.77071
1.77418
1.77797
1.78207
1.78648
1.79118
1.79616
1.8014
1.80688
1.81253
1.81828
1.82405
1.82977
1.83521
1.83997
1.70433
1.70475
1.70553
1.7067
1.7082
1.71003
1.7122
1.71468
1.71747
1.72057
1.72396
1.72763
1.73159
1.73581
1.74028
1.745
1.74993
1.75505
1.76029
1.76562
1.77098
1.7762
1.78101
1.65052
1.65088
1.65155
1.65257
1.65389
1.65552
1.65745
1.65968
1.6622
1.66499
1.66806
1.6714
1.67501
1.67886
1.68296
1.6873
1.69186
1.69661
1.70154
1.7066
1.71178
1.71695
1.72191
1.59453
1.59484
1.59542
1.59633
1.5975
1.59897
1.60071
1.60273
1.60502
1.60758
1.61039
1.61347
1.61679
1.62037
1.62419
1.62826
1.63255
1.63707
1.64179
1.64672
1.65184
1.65708
1.66226
1.53654
1.5368
1.53732
1.53813
1.53919
1.54052
1.5421
1.54395
1.54605
1.5484
1.551
1.55386
1.55696
1.56031
1.56391
1.56776
1.57186
1.57621
1.5808
1.58566
1.59078
1.59614
1.60158
1.47669
1.47691
1.47737
1.4781
1.47906
1.48027
1.48171
1.4834
1.48533
1.4875
1.48992
1.49257
1.49547
1.49862
1.50202
1.50568
1.50961
1.51381
1.5183
1.52309
1.52823
1.53369
1.53937
1.41511
1.4153
1.41571
1.41637
1.41723
1.41832
1.41964
1.42118
1.42294
1.42493
1.42715
1.42961
1.43231
1.43525
1.43844
1.4419
1.44563
1.44967
1.45401
1.45871
1.46382
1.46933
1.47518
1.35195
1.35211
1.35248
1.35306
1.35383
1.3548
1.35598
1.35735
1.35894
1.36074
1.36275
1.36498
1.36745
1.37014
1.37309
1.37629
1.37979
1.38358
1.38772
1.39224
1.39721
1.40265
1.40854
1.28735
1.2875
1.28781
1.28831
1.28898
1.28982
1.29084
1.29204
1.29342
1.295
1.29676
1.29873
1.30091
1.3033
1.30593
1.30881
1.31196
1.31542
1.31922
1.32343
1.32811
1.33331
1.33904
1.2215
1.22161
1.22187
1.22229
1.22284
1.22353
1.22437
1.22536
1.22651
1.22782
1.22929
1.23093
1.23275
1.23477
1.23698
1.23942
1.24212
1.2451
1.24842
1.25213
1.25631
1.26104
1.26634
1.15454
1.15463
1.15483
1.15515
1.15556
1.15609
1.15673
1.15748
1.15835
1.15934
1.16046
1.16171
1.1631
1.16464
1.16633
1.16821
1.17031
1.17265
1.17529
1.17829
1.18172
1.18569
1.19024
1.08668
1.08674
1.08687
1.08708
1.08734
1.08768
1.08809
1.08857
1.08913
1.08976
1.09046
1.09125
1.09212
1.09308
1.09415
1.09534
1.09668
1.0982
1.09996
1.102
1.10441
1.10728
1.11069
1.01812
1.01814
1.0182
1.01829
1.01839
1.01852
1.01868
1.01886
1.01906
1.01929
1.01953
1.01979
1.02007
1.02037
1.0207
1.02107
1.02151
1.02204
1.0227
1.02355
1.02464
1.02606
1.02792
0.949079
0.949059
0.949036
0.949002
0.948938
0.948851
0.948738
0.948595
0.948419
0.948203
0.947941
0.947626
0.947254
0.946821
0.946328
0.945782
0.945193
0.944584
0.943979
0.94341
0.942908
0.942548
0.942457
0.879775
0.879719
0.879616
0.879459
0.879223
0.878913
0.878525
0.878051
0.877484
0.876812
0.876026
0.875111
0.874056
0.872849
0.871483
0.869954
0.868261
0.866409
0.864408
0.862262
0.859968
0.857569
0.85519
0.810452
0.810361
0.810182
0.809907
0.809502
0.808975
0.808317
0.807518
0.806566
0.805446
0.804141
0.80263
0.800895
0.798915
0.796672
0.79415
0.791334
0.788211
0.784767
0.780978
0.7768
0.772229
0.767365
0.741342
0.741222
0.740972
0.740588
0.740027
0.739299
0.738391
0.737291
0.735982
0.734444
0.732654
0.730587
0.728215
0.72551
0.722442
0.718983
0.715101
0.710765
0.705936
0.70056
0.694554
0.687854
0.680514
0.672657
0.672514
0.672205
0.671727
0.671032
0.670131
0.669009
0.66765
0.666032
0.664133
0.661925
0.659377
0.656454
0.653121
0.649338
0.645064
0.640255
0.634861
0.628819
0.622051
0.614438
0.605862
0.596304
0.604575
0.604421
0.60407
0.603523
0.602725
0.601692
0.600405
0.598844
0.596988
0.594809
0.592276
0.589355
0.586006
0.582188
0.577853
0.572952
0.56743
0.561222
0.554249
0.546413
0.537575
0.527572
0.516313
0.537242
0.537087
0.536724
0.536138
0.53528
0.534163
0.532771
0.531082
0.529072
0.526713
0.523972
0.520813
0.517193
0.513068
0.508387
0.503095
0.497132
0.490425
0.482887
0.474408
0.464844
0.454012
0.441764
0.470823
0.470603
0.470297
0.4697
0.468827
0.467681
0.466252
0.464513
0.462444
0.460017
0.457198
0.453951
0.450234
0.446002
0.441205
0.435788
0.42969
0.422837
0.415142
0.406496
0.396761
0.385761
0.373324
0.405632
0.404956
0.404881
0.404281
0.403442
0.402321
0.400919
0.399212
0.397181
0.394799
0.392035
0.388856
0.385221
0.381088
0.376411
0.371139
0.365214
0.35857
0.351126
0.342783
0.333421
0.322885
0.311006
0.341311
0.340534
0.340604
0.339945
0.339162
0.338102
0.336784
0.335182
0.333279
0.331053
0.328473
0.32551
0.322128
0.31829
0.313955
0.309079
0.303615
0.297506
0.290684
0.283065
0.274551
0.265015
0.254287
0.277935
0.277209
0.277335
0.276641
0.275947
0.274983
0.273802
0.272375
0.270686
0.268713
0.266434
0.263821
0.260844
0.257473
0.253675
0.249414
0.244655
0.239353
0.23346
0.226913
0.219644
0.211575
0.202593
0.215387
0.214859
0.214818
0.21421
0.213647
0.21283
0.211845
0.210657
0.209258
0.207628
0.205749
0.203599
0.201155
0.198392
0.195288
0.191815
0.187949
0.18366
0.178915
0.173673
0.16789
0.161521
0.154483
0.153326
0.15301
0.152933
0.152468
0.15204
0.151402
0.150656
0.149763
0.148714
0.147498
0.146098
0.1445
0.142686
0.14064
0.138346
0.135786
0.132945
0.129805
0.126347
0.122547
0.118379
0.113819
0.108809
0.0916596
0.0915487
0.0913923
0.0910871
0.0908237
0.0904098
0.0899489
0.089396
0.0887498
0.0880015
0.0871419
0.0861617
0.0850509
0.0837998
0.0823987
0.0808388
0.0791119
0.0772103
0.075125
0.0728448
0.0703568
0.0676546
0.0646997
0.0300416
0.0304284
0.030461
0.0303646
0.030289
0.0301261
0.0299623
0.0297617
0.0295313
0.029267
0.0289657
0.0286239
0.0282376
0.0278027
0.0273151
0.0267715
0.0261696
0.0255079
0.0247851
0.0239988
0.0231453
0.0222268
0.0212257
694.175
695.307
685.284
659.805
624.02
532.333
483.306
432.649
61.2167
7.78112
3.25401
3.37869
2.52457
2.68973
2.97908
3.19623
2.48966
2.62593
2.7963
2.98099
2.4332
2.52866
2.69236
2.81744
2.37285
2.4192
2.531
2.55653
2.26787
2.32184
2.35025
2.31783
2.19821
2.23866
2.25409
2.22932
2.14356
2.17002
2.17642
2.15361
2.08974
2.10658
2.10759
2.08622
2.03317
2.04322
2.04292
2.02516
1.97176
1.98068
1.98142
1.96894
1.90893
1.92048
1.92361
1.91716
1.84969
1.86226
1.86898
1.86911
1.79113
1.8055
1.81651
1.82375
1.7327
1.74947
1.76526
1.78005
1.67386
1.69341
1.7143
1.73699
1.61405
1.63649
1.6626
1.69346
1.55265
1.57784
1.60906
1.64815
1.48908
1.51659
1.55244
1.59951
1.42271
1.45178
1.49139
1.54566
1.35298
1.38247
1.4244
1.48433
1.27937
1.3077
1.34985
1.41279
1.2015
1.22663
1.26605
1.32796
1.1192
1.13863
1.17146
1.22655
1.03262
1.04352
1.06498
1.10548
0.942285
0.941763
0.94637
0.962691
0.849274
0.834795
0.817064
0.79851
0.755185
0.725211
0.680967
0.618288
0.662081
0.616702
0.54469
0.433334
0.572274
0.513585
0.417085
0.259873
0.488002
0.419913
0.307284
0.116635
0.411027
0.338588
0.221154
0.017696
0.342259
0.270968
0.159828
-0.0238551
0.281537
0.21664
0.11811
-0.0358581
0.227712
0.172949
0.0901058
-0.028411
0.180649
0.13538
0.0712131
-0.013119
0.137407
0.10288
0.0568009
0.00120537
0.096722
0.0729623
0.0429657
0.00958874
0.0576018
0.0440486
0.0277764
0.0110157
0.0188235
0.0144
0.00937238
0.00488673
621.8
567.726
459.025
499.225
110.944
29.6876
28.8195
45.8091
262.318
439.691
589.406
1019.88
1386.78
1449.44
1320.27
1171.94
1075.37
1204.5
1529.53
311.734
129.603
1.21349
45.0127
20.9564
14.5379
17.283
14.8224
13.2215
17.1231
135.409
793.042
1362.64
1456.81
1323.15
1310.03
1339.45
1479.72
1712.53
2.4554
3.54264
2.56246
0.0116968
5.71947
5.80123
5.44428
5.30608
6.58093
11.3809
46.8213
392.823
1102.21
1301.94
1082.35
1036.11
1227.93
1623.9
1810.26
3.578
3.12654
2.75753
1.61022
2.86737
3.89218
2.83992
2.64514
3.53643
6.73008
23.6238
225.17
1039.37
1381.06
1180.67
984.261
1040.75
1503.96
1820.1
3.09566
2.75241
2.14359
1.15821
0.37864
1.68055
2.18806
1.44433
2.18555
3.90945
10.5524
65.443
702.991
1332.7
1489.97
1189.31
1161.42
1737.71
1855
2.70061
2.34679
1.82772
0.988118
0.0743602
-0.0343799
0.644011
1.02145
1.74478
2.76291
5.39583
18.5553
470.21
1323.86
1503.03
1628.15
1743.23
1895.85
1928.69
2.3809
2.13683
1.77165
1.17022
0.478271
0.188031
0.400998
0.950359
1.71457
2.42551
3.40395
9.16816
260.986
1334.08
1531.92
1694.71
1863.78
1995.37
2009.15
2.23036
2.08299
1.83032
1.44562
0.983462
0.70771
0.799709
1.20375
1.73254
2.24991
2.35546
4.73665
89.5008
968.316
1554.75
1747.61
1935.18
2065.2
2068.63
2.16219
2.05168
1.87427
1.63155
1.35136
1.16362
1.17872
1.38335
1.68978
2.00474
1.92254
2.46274
9.00163
368.928
1564.95
1777.03
1976.41
2106.38
2107.83
2.09751
2.00949
1.87962
1.71647
1.5405
1.41789
1.39618
1.46825
1.59358
1.72568
1.65175
1.22587
4.03669
93.5159
1003.75
1771.37
1989.04
2130.98
2135.13
2.03917
1.96907
1.87148
1.75432
1.63097
1.53838
1.49657
1.49695
1.51175
1.49673
1.37091
0.829729
0.88296
4.27216
115.844
1224.32
1967.87
2141.91
2162.93
1.98768
1.934
1.86161
1.77543
1.68371
1.60717
1.55518
1.51761
1.4703
1.3753
1.21501
0.753253
0.246198
0.679223
4.31958
121.142
1194.82
2131.7
2200.4
1.94144
1.90227
1.84984
1.78667
1.71784
1.65332
1.59742
1.53966
1.46073
1.33739
1.17228
0.773658
0.320393
0.390576
1.16625
6.37735
168.877
1887.03
2248.49
1.89949
1.87311
1.83681
1.79149
1.73989
1.68518
1.63052
1.56553
1.47555
1.35286
1.21841
0.967472
0.636328
0.605809
0.981888
1.70873
11.016
669.526
2307.58
1.86106
1.84633
1.82386
1.79317
1.75478
1.71002
1.65947
1.59643
1.5106
1.40425
1.31611
1.22685
1.06672
1.0011
1.17914
1.37891
1.59227
255.908
2369.07
1.82532
1.82167
1.81182
1.79406
1.76728
1.73157
1.68725
1.63149
1.55933
1.47379
1.43137
1.44789
1.44067
1.43088
1.49615
1.48166
1.51548
268.661
2423.9
1.79145
1.79879
1.80117
1.79564
1.77972
1.75259
1.71512
1.66799
1.61143
1.55037
1.54381
1.60604
1.6804
1.74368
1.82142
1.76737
2.01489
255.507
2443.93
1.75858
1.77726
1.79218
1.79901
1.79378
1.77483
1.74376
1.70416
1.66036
1.6237
1.63298
1.70841
1.83704
1.92358
2.03524
2.03558
2.44549
221.921
2128.35
1.72571
1.75646
1.78492
1.80505
1.81086
1.79964
1.77371
1.73924
1.70418
1.68139
1.69512
1.76353
1.88672
1.98025
2.1189
2.23186
2.7875
238.95
614.513
1.69158
1.73548
1.77923
1.81456
1.83245
1.82837
1.80553
1.77304
1.74142
1.72261
1.73232
1.78083
1.86472
1.94909
2.0702
2.58155
3.88998
400.302
21.7031
1.6545
1.7129
1.77457
1.82831
1.86036
1.86282
1.83998
1.80546
1.77223
1.75083
1.74983
1.77749
1.82517
1.87131
1.92928
3.80417
75.458
416.033
3.33603
1.61218
1.6865
1.76972
1.847
1.89706
1.90543
1.87786
1.83651
1.79723
1.76946
1.75704
1.7599
1.77287
1.7615
1.76595
25.2487
370.45
439.342
1.25225
1.56146
1.65273
1.76217
1.87085
1.94579
1.95969
1.91971
1.86562
1.81656
1.78057
1.7572
1.74094
1.72173
1.65736
1.5838
82.9918
471.525
470.593
0.519844
1.49804
1.6059
1.74692
1.89873
2.01058
2.03034
1.96478
1.89098
1.82941
1.78531
1.75397
1.72413
1.68706
1.58692
1.42564
138.921
489.344
487.449
0.599461
1.41627
1.53699
1.71414
1.92616
2.0955
2.12422
2.00934
1.90864
1.83341
1.78352
1.75009
1.7151
1.67824
1.58099
1.42528
157.002
505.643
322.877
0.808223
1.30909
1.43211
1.64464
1.94578
2.21184
2.25047
2.04328
1.91087
1.82428
1.77373
1.7463
1.71532
1.69105
1.61462
1.48216
101.101
520.048
28.8651
0.984491
1.16844
1.27052
1.50834
1.97295
2.38895
2.38775
2.04227
1.88345
1.79649
1.7541
1.7418
1.72397
1.7172
1.67879
1.57129
31.2148
533.529
9.33208
1.37974
0.985943
1.02459
1.25343
2.40972
5.92112
7.61224
1.99634
1.8066
1.74271
1.72607
1.7321
1.73714
1.74845
1.76305
1.73119
2.87926
494.382
43.5538
2.05389
0.754692
0.67084
0.810291
7.06658
37.0993
39.4577
3.14702
1.67877
1.65994
1.6846
1.71995
1.74859
1.77898
1.82607
1.87124
2.13446
98.1047
59.0111
4.1675
0.484542
0.24492
0.55649
21.2904
41.81
42.2812
28.0105
1.58756
1.55265
1.63166
1.70626
1.75795
1.80178
1.8391
2.14435
2.11706
14.9553
63.2125
4.5643
0.206204
-0.226983
2.03441
37.0282
42.2189
42.1507
41.2826
6.56323
1.43189
1.57466
1.6947
1.76835
1.82209
1.82227
2.71928
111.213
136.242
61.9737
-0.559413
-0.0329014
-0.655221
4.93206
37.4791
39.4013
30.1395
40.2678
29.3849
1.36252
1.5275
1.69165
1.78432
1.85631
1.83525
2.09871
370.552
347.24
7.50165
-1.50766
-0.195736
-0.82872
3.3626
26.5844
2.78587
-0.747347
11.979
29.6067
3.90575
1.51625
1.70202
1.80623
1.8839
1.96259
5.63246
381.596
125.108
-1.32883
-1.50193
-0.277209
-0.857644
1.19233
1.35106
-1.00415
-0.71565
-0.464437
22.124
16.8673
1.55919
1.73013
1.83372
1.89744
2.05794
43.4541
390.089
-1.41602
-1.43878
-1.46238
-0.300742
-0.76855
-0.542188
0.546703
-0.985584
-0.554041
-0.221751
0.203128
17.6595
1.63271
1.76796
1.87491
1.88932
2.15398
273.764
400.542
18.4246
-1.39561
-1.3504
-0.257493
-0.585666
-1.10674
0.0488919
-0.483415
-0.377118
-0.0268805
0.281595
11.1091
35.1531
7.54356
1.95864
2.00639
8.62217
331.379
215.651
18.4568
-1.28582
-1.26852
-0.184313
-0.387703
-0.709344
-0.241732
-0.265951
-0.196805
0.0781569
0.265521
1.43375
35.7267
13.1475
2.01297
2.1263
110.568
337.959
-0.543858
-0.284403
-1.20424
-1.18875
-0.110841
-0.216771
-0.36113
-0.39337
-0.274722
-0.0478402
0.112912
0.241731
0.750529
33.3216
22.0567
2.08944
16.0516
197.481
138.43
-0.918988
-1.07497
-1.082
-1.0935
-0.0533755
-0.0988235
-0.137669
-0.123897
-0.0669723
0.0301759
0.104241
0.224303
0.310373
1.03705
22.997
3.07929
78.5243
83.9436
-0.77582
-0.905911
-0.961396
-0.989163
-1.00795
-0.0176041
-0.0337038
-0.0314493
-0.00987763
0.017686
0.0463289
0.0683713
0.168506
0.202002
0.663739
32.3116
43.0892
61.0126
-0.347615
-0.618257
-0.836324
-0.891603
-0.921001
-0.93906
-0.000340411
-0.00443259
0.00495243
0.0216225
0.0330579
0.0282086
0.0135687
0.0600703
-0.0465597
0.47609
31.4455
39.8692
5.17656
-0.758074
-0.663988
-0.797727
-0.830998
-0.858724
-0.874774
0.00285276
0.0039765
0.00941704
0.0168834
0.0151305
-0.0139888
-0.0526568
-0.0681774
-0.289014
-0.54157
4.15904
4.7622
-1.80129
-1.15262
-0.694618
-0.719193
-0.756003
-0.777562
-0.792398
)
;

boundaryField
{
    leftWall
    {
        type            fixedFluxPressure;
        gradient        uniform 0;
        value           nonuniform List<scalar> 
50
(
748.402
748.414
748.347
748.192
747.853
747.127
745.867
744.595
743.749
752.336
229.559
2.1281
2.09376
2.03608
2.01553
2.01308
1.99641
1.96696
1.93108
1.89231
1.85021
1.80449
1.75573
1.70433
1.65052
1.59453
1.53654
1.47669
1.41511
1.35195
1.28735
1.2215
1.15454
1.08668
1.01812
0.949079
0.879775
0.810452
0.741342
0.672657
0.604575
0.537242
0.470823
0.405632
0.341311
0.277935
0.215387
0.153326
0.0916596
0.0300416
)
;
    }
    rightWall
    {
        type            fixedFluxPressure;
        gradient        uniform 0;
        value           nonuniform List<scalar> 
50
(
1667.05
1651.53
1620.67
1580.13
1537.53
1499.24
1468.87
1453.56
1529.53
1712.53
1810.26
1820.1
1855
1928.69
2009.15
2068.63
2107.83
2135.13
2162.93
2200.4
2248.49
2307.58
2369.07
2423.9
2443.93
2128.35
614.513
21.7031
3.33603
1.25225
0.519844
0.599461
0.808223
0.984491
1.37974
2.05389
4.1675
4.5643
-0.559413
-1.50766
-1.50193
-1.46238
-1.3504
-1.26852
-1.18875
-1.0935
-1.00795
-0.93906
-0.874774
-0.792398
)
;
    }
    lowerWall
    {
        type            fixedFluxPressure;
        gradient        uniform 0;
        value           nonuniform List<scalar> 
62
(
748.402
748.179
747.997
747.788
747.428
746.902
746.289
745.718
745.269
744.961
744.768
744.66
744.62
744.637
744.698
744.784
744.85
744.863
744.654
744.268
744.031
744.363
744.988
744.988
744.559
744.996
745.521
745.59
745.193
743.888
741.412
694.175
695.307
685.284
659.805
284.586
282.671
283.357
286.963
290.896
245.527
262.473
486.103
284.586
278.209
258.216
211.847
214.451
255.772
319.912
409.329
535.269
680.071
820.249
964.596
1101.78
1160.3
1155.55
1133.97
1216.72
1495.95
1667.05
)
;
    }
    atmosphere
    {
        type            totalPressure;
        rho             rho;
        psi             none;
        gamma           1;
        p0              uniform 0;
        value           nonuniform List<scalar> 
46
(
0
0
0
0
0
0
0
0
0
0
0
0
0
0
0
0
0
0
0
0
0
0
0
0
0
0
0
0
0
0
0
-0.00846447
-0.04788
-0.093989
-0.110352
-0.305256
-0.69542
0
0
-1.53744
-1.02503
-0.62513
-0.628396
-0.700419
-0.716923
-0.733346
)
;
    }
    defaultFaces
    {
        type            empty;
    }
}


// ************************************************************************* //
