/*--------------------------------*- C++ -*----------------------------------*\
| =========                 |                                                 |
| \\      /  F ield         | OpenFOAM: The Open Source CFD Toolbox           |
|  \\    /   O peration     | Version:  2206                                  |
|   \\  /    A nd           | Website:  www.openfoam.com                      |
|    \\/     M anipulation  |                                                 |
\*---------------------------------------------------------------------------*/
FoamFile
{
    version     2.0;
    format      ascii;
    arch        "LSB;label=32;scalar=64";
    class       surfaceScalarField;
    location    "0.75";
    object      phi;
}
// * * * * * * * * * * * * * * * * * * * * * * * * * * * * * * * * * * * * * //

dimensions      [0 3 -1 0 0 0 0];

oriented        oriented;

internalField   nonuniform List<scalar> 
4432
(
-9.01016e-07
9.01016e-07
-1.06323e-06
1.62213e-07
-5.22115e-07
-5.41115e-07
4.04022e-07
-9.26137e-07
1.44648e-06
-1.04246e-06
2.36945e-06
-9.22972e-07
3.04587e-06
-6.76423e-07
3.43876e-06
-3.92893e-07
3.57274e-06
-1.3398e-07
3.50766e-06
6.50771e-08
3.30669e-06
2.0097e-07
3.02616e-06
2.80536e-07
2.68667e-06
3.39487e-07
2.26969e-06
4.16975e-07
1.72644e-06
5.43251e-07
9.97676e-07
7.28762e-07
4.53577e-08
9.52317e-07
-1.16438e-06
1.20973e-06
-2.4955e-06
1.33113e-06
-3.45039e-06
9.54887e-07
-3.3965e-06
-5.38938e-08
-2.1824e-06
-1.2141e-06
-2.1824e-06
-1.03204e-06
1.93306e-06
-1.17202e-06
3.02194e-07
-6.38667e-07
-1.07447e-06
2.96533e-07
-1.86134e-06
1.3634e-06
-2.10933e-06
2.31536e-06
-1.87493e-06
3.02884e-06
-1.3899e-06
3.47238e-06
-8.36444e-07
3.67439e-06
-3.35988e-07
3.69671e-06
4.27601e-08
3.61367e-06
2.84007e-07
3.47659e-06
4.17611e-07
3.32433e-06
4.91747e-07
3.17534e-06
5.65963e-07
3.01795e-06
7.00636e-07
2.80352e-06
9.4319e-07
2.4562e-06
1.29963e-06
1.94671e-06
1.71922e-06
1.32192e-06
1.95591e-06
6.50062e-07
1.62675e-06
-2.07476e-07
8.03641e-07
-5.82471e-07
-8.39107e-07
-2.76487e-06
-1.08583e-06
3.01889e-06
-1.32071e-06
5.37072e-07
-8.91257e-07
-1.50393e-06
-4.03009e-08
-2.7123e-06
1.05194e-06
-3.20157e-06
2.06648e-06
-2.88948e-06
2.81292e-06
-2.13634e-06
3.28773e-06
-1.31125e-06
3.5287e-06
-5.76955e-07
3.58947e-06
-1.80174e-08
3.52689e-06
3.46586e-07
3.40525e-06
5.39248e-07
3.27386e-06
6.23141e-07
3.16845e-06
6.71368e-07
3.12021e-06
7.48876e-07
3.16045e-06
9.02949e-07
3.29466e-06
1.16542e-06
3.48945e-06
1.52443e-06
3.58651e-06
1.85884e-06
3.30156e-06
1.9117e-06
2.61794e-06
1.48726e-06
1.445e-06
3.33826e-07
-1.31987e-06
-1.20973e-06
4.22862e-06
-1.68139e-06
1.00873e-06
-1.66876e-06
-1.51657e-06
-1.10922e-06
-3.27184e-06
6.86821e-08
-4.37947e-06
1.37348e-06
-4.19428e-06
2.31263e-06
-3.07549e-06
2.88708e-06
-1.8857e-06
3.21185e-06
-9.01729e-07
3.36195e-06
-1.68113e-07
3.39031e-06
3.18225e-07
3.34617e-06
5.83382e-07
3.27818e-06
6.91135e-07
3.2221e-06
7.27439e-07
3.20324e-06
7.67743e-07
3.24302e-06
8.63163e-07
3.36978e-06
1.03866e-06
3.59848e-06
1.29572e-06
3.84915e-06
1.60817e-06
3.8704e-06
1.89045e-06
3.34469e-06
2.01296e-06
1.95319e-06
1.72532e-06
6.3332e-07
-1.45174e-06
5.68036e-06
-2.49422e-06
2.05121e-06
-3.27731e-06
-7.33475e-07
-3.11061e-06
-3.43855e-06
-1.88256e-06
-5.60751e-06
-2.18997e-07
-5.85784e-06
1.22222e-06
-4.51671e-06
2.10102e-06
-2.7645e-06
2.61269e-06
-1.4134e-06
2.91308e-06
-4.68506e-07
3.08747e-06
1.43834e-07
3.17677e-06
4.94079e-07
3.22412e-06
6.43777e-07
3.2645e-06
6.87059e-07
3.3208e-06
7.11446e-07
3.4018e-06
7.82162e-07
3.50519e-06
9.35262e-07
3.6215e-06
1.17941e-06
3.7221e-06
1.50758e-06
3.69986e-06
1.91268e-06
3.28955e-06
2.42327e-06
2.09812e-06
2.91675e-06
2.73144e-06
-1.78475e-06
7.46511e-06
-3.56525e-06
3.83171e-06
-4.9668e-06
6.68074e-07
-5.1472e-06
-3.25814e-06
-4.1617e-06
-6.59301e-06
-2.44524e-06
-7.57431e-06
-5.92859e-07
-6.36909e-06
7.89315e-07
-4.14668e-06
1.64473e-06
-2.26881e-06
2.18931e-06
-1.01309e-06
2.56404e-06
-2.30896e-07
2.84007e-06
2.18046e-07
3.04991e-06
4.33932e-07
3.22838e-06
5.08592e-07
3.39995e-06
5.39874e-07
3.57675e-06
6.05356e-07
3.75066e-06
7.61348e-07
3.88675e-06
1.04332e-06
3.91944e-06
1.47489e-06
3.76157e-06
2.07054e-06
3.26361e-06
2.92124e-06
2.10277e-06
4.07759e-06
4.83421e-06
-1.8286e-06
9.29371e-06
-3.85611e-06
5.85921e-06
-5.30807e-06
2.12004e-06
-5.66334e-06
-2.90288e-06
-5.2937e-06
-6.96265e-06
-4.17808e-06
-8.68994e-06
-2.50292e-06
-8.04425e-06
-8.5473e-07
-5.79487e-06
3.72654e-07
-3.4962e-06
1.21654e-06
-1.85698e-06
1.83071e-06
-8.4506e-07
2.32016e-06
-2.71404e-07
2.73218e-06
2.191e-08
3.09281e-06
1.47955e-07
3.42456e-06
2.08127e-07
3.74234e-06
2.87573e-07
4.04689e-06
4.56797e-07
4.31595e-06
7.7426e-07
4.47966e-06
1.31118e-06
4.44665e-06
2.10355e-06
4.04472e-06
3.32316e-06
3.07495e-06
5.04736e-06
7.90915e-06
-1.33905e-06
1.06328e-05
-2.79288e-06
7.31305e-06
-3.40338e-06
2.73054e-06
-3.74984e-06
-2.55643e-06
-4.08915e-06
-6.62334e-06
-4.06214e-06
-8.71695e-06
-3.37686e-06
-8.72953e-06
-2.1451e-06
-7.02663e-06
-8.56205e-07
-4.78509e-06
2.14187e-07
-2.92737e-06
1.03944e-06
-1.67032e-06
1.71522e-06
-9.47186e-07
2.31041e-06
-5.73273e-07
2.85816e-06
-3.99802e-07
3.37659e-06
-3.103e-07
3.87869e-06
-2.14529e-07
4.36562e-06
-3.01351e-08
4.82689e-06
3.1299e-07
5.19708e-06
9.40985e-07
5.35477e-06
1.94586e-06
4.96958e-06
3.70835e-06
3.73726e-06
6.27968e-06
1.16464e-05
1.82046e-05
-1.82046e-05
7.77357e-06
1.0431e-05
-4.33816e-05
5.11552e-05
-8.87119e-05
4.53303e-05
-8.89044e-05
1.92501e-07
-6.8012e-05
-2.08924e-05
-5.0355e-05
-1.7657e-05
-3.75136e-05
-1.28414e-05
-3.74361e-05
-7.75083e-08
-5.0097e-05
1.26609e-05
-6.02556e-05
1.01586e-05
-5.64984e-05
-3.75719e-06
-3.40378e-05
-2.24606e-05
-1.3297e-05
-2.07408e-05
-3.16912e-05
1.83942e-05
-6.94636e-05
3.77724e-05
-7.6297e-05
6.83339e-06
-4.1625e-05
-3.46721e-05
-4.1625e-05
5.77474e-06
-2.39794e-05
-1.49233e-05
3.11291e-05
-6.05976e-05
9.68294e-05
-6.79527e-05
5.26854e-05
-4.88041e-05
-1.8956e-05
-2.67216e-05
-4.29749e-05
1.17156e-07
-4.44957e-05
2.38335e-05
-3.65577e-05
3.39593e-05
-1.02034e-05
1.54798e-05
3.11403e-05
-2.28515e-05
4.849e-05
-4.95283e-05
2.29196e-05
-5.00282e-05
-2.19607e-05
-5.25021e-05
-1.82669e-05
-7.24723e-05
3.83645e-05
-8.74649e-05
5.2765e-05
-7.81517e-05
-2.47979e-06
-4.26443e-05
-7.01795e-05
-8.42692e-05
-6.44322e-06
-1.75361e-05
-2.26874e-05
4.73733e-05
-3.19844e-05
0.000106126
-9.56769e-07
2.16578e-05
2.46661e-05
-4.45789e-05
4.60334e-05
-6.43421e-05
6.96307e-05
-6.8093e-05
8.13131e-05
-4.824e-05
8.17078e-05
-1.05982e-05
6.36064e-05
4.92418e-05
2.35482e-05
8.85482e-05
-2.30021e-05
6.94699e-05
-5.18347e-05
6.87186e-06
-6.51694e-05
-4.93216e-06
-7.74573e-05
5.06523e-05
-8.09264e-05
5.62341e-05
-7.1633e-05
-1.17732e-05
-4.14308e-05
-0.000100382
-0.0001257
-1.46674e-05
-2.86872e-06
-1.77545e-05
5.04604e-05
1.30009e-05
7.5371e-05
4.95975e-05
-1.49388e-05
6.57617e-05
-6.07432e-05
8.26199e-05
-8.12002e-05
9.34994e-05
-7.89725e-05
9.96378e-05
-5.43784e-05
9.74052e-05
-8.36562e-06
8.4087e-05
6.25601e-05
5.36721e-05
0.000118963
8.29621e-06
0.000114846
-3.40139e-05
4.9182e-05
-5.56281e-05
1.6682e-05
-6.44619e-05
5.94861e-05
-6.46589e-05
5.64311e-05
-5.73585e-05
-1.90736e-05
-3.55538e-05
-0.000122186
-0.000161254
-1.26528e-05
9.78412e-06
6.37885e-07
3.71696e-05
4.22081e-05
3.38008e-05
6.6558e-05
-3.92887e-05
8.2718e-05
-7.69031e-05
9.41532e-05
-9.26354e-05
9.88428e-05
-8.36622e-05
9.54085e-05
-5.09441e-05
8.92253e-05
-2.18241e-06
8.2421e-05
6.93644e-05
6.56243e-05
0.00013576
3.10895e-05
0.000149381
-1.00118e-05
9.02833e-05
-3.63018e-05
4.29719e-05
-4.30633e-05
6.62477e-05
-4.33086e-05
5.66763e-05
-3.9624e-05
-2.27582e-05
-2.69097e-05
-0.000134901
-0.000188164
-5.92344e-06
1.57076e-05
2.13219e-05
9.92427e-06
5.80969e-05
-2.97421e-06
7.57561e-05
-5.69479e-05
8.85123e-05
-8.96593e-05
8.83484e-05
-9.24715e-05
5.74924e-05
-5.28062e-05
2.45154e-06
4.09681e-06
2.32706e-07
3.64045e-08
4.11709e-05
2.84262e-05
5.77219e-05
0.000119209
4.21761e-05
0.000164926
1.17998e-05
0.00012066
-1.25518e-05
6.73236e-05
-1.86084e-05
7.23043e-05
-1.91821e-05
5.725e-05
-2.09949e-05
-2.09454e-05
-1.6506e-05
-0.00013939
-0.00020467
7.17515e-06
8.5324e-06
3.74853e-05
-2.03859e-05
6.18802e-05
-2.73691e-05
8.14633e-05
-7.6531e-05
7.85399e-05
-8.6736e-05
2.06661e-05
-3.45977e-05
-0.00010979
7.76496e-05
-0.000176023
7.03303e-05
-0.000124753
-5.12335e-05
-4.77648e-05
-4.85624e-05
1.78258e-05
5.36181e-05
4.39295e-05
0.000138823
3.06363e-05
0.000133953
8.98238e-06
8.89775e-05
3.27671e-06
7.80099e-05
3.04734e-06
5.74794e-05
-1.13585e-06
-1.67622e-05
-4.41247e-06
-0.000136113
-0.000209082
3.50574e-05
-2.6525e-05
5.85423e-05
-4.38708e-05
7.62765e-05
-4.51033e-05
7.63823e-05
-7.66367e-05
3.84179e-06
-1.41955e-05
-0.000129314
9.85577e-05
-0.000201071
0.000149407
-0.000176551
4.58101e-05
-0.000141626
-8.61586e-05
-9.55519e-05
-9.46364e-05
-2.87398e-05
-1.3194e-05
2.73011e-05
8.27817e-05
4.34509e-05
0.000117803
3.38719e-05
9.85565e-05
2.48395e-05
8.70424e-05
2.16819e-05
6.06369e-05
1.4658e-05
-9.73824e-06
6.18823e-06
-0.000127643
-0.000202894
3.14901e-06
7.48374e-06
4.00518e-06
6.45687e-06
4.67068e-06
2.06504e-06
4.52691e-06
-2.41265e-06
2.58287e-06
-4.67929e-06
-7.01143e-07
-5.43294e-06
-3.36645e-06
-6.06422e-06
-4.10887e-06
-6.28421e-06
-3.23915e-06
-5.65481e-06
-1.50108e-06
-4.66544e-06
4.15021e-07
-3.58642e-06
2.26909e-06
-2.80125e-06
4.03594e-06
-2.34013e-06
5.7509e-06
-2.11476e-06
7.44184e-06
-2.00124e-06
9.15225e-06
-1.92494e-06
1.09543e-05
-1.83216e-06
1.29498e-05
-1.68252e-06
1.5321e-05
-1.43026e-06
1.83385e-05
-1.07161e-06
2.2406e-05
-3.59142e-07
2.84695e-05
2.16153e-07
2.57586e-06
3.75401e-05
6.64442e-06
8.39323e-07
1.34214e-05
-3.20152e-07
1.89173e-05
-3.43085e-06
2.10952e-05
-4.59054e-06
1.87346e-05
-2.31868e-06
1.36296e-05
-3.27926e-07
7.87505e-06
-3.09692e-07
3.26155e-06
-1.67071e-06
6.84528e-07
-3.07779e-06
7.1253e-08
-4.05217e-06
7.45946e-07
-4.26111e-06
2.08746e-06
-4.14276e-06
3.87447e-06
-4.12714e-06
5.92688e-06
-4.16717e-06
8.09633e-06
-4.1707e-06
1.03426e-05
-4.17121e-06
1.27173e-05
-4.20687e-06
1.53248e-05
-4.29e-06
1.83121e-05
-4.41761e-06
2.1886e-05
-4.64544e-06
2.64708e-05
-4.94397e-06
3.22811e-05
-5.59413e-06
-6.09188e-06
4.09488e-05
1.19453e-05
-1.1106e-05
2.04893e-05
-8.86417e-06
1.75999e-05
-5.41481e-07
8.96608e-06
4.04326e-06
4.75176e-06
1.89563e-06
7.43436e-06
-3.01054e-06
1.18404e-05
-4.71576e-06
1.42008e-05
-4.03112e-06
1.31174e-05
-1.9944e-06
8.74593e-06
3.19293e-07
3.19958e-06
1.28523e-06
-5.67906e-07
-3.7529e-07
-1.43692e-06
-3.25814e-06
-4.76896e-07
-5.1272e-06
1.16858e-06
-5.81618e-06
3.04743e-06
-6.05007e-06
5.16431e-06
-6.32376e-06
7.56917e-06
-6.69486e-06
1.03513e-05
-7.19971e-06
1.37736e-05
-8.06777e-06
1.84527e-05
-9.62301e-06
2.43885e-05
-1.153e-05
-1.40118e-05
3.23084e-05
-1.33993e-05
2.29331e-06
-1.8729e-05
-3.53403e-06
-1.4344e-05
-4.92608e-06
-4.64893e-06
-5.65147e-06
2.53761e-06
-5.29065e-06
6.28308e-06
-6.75577e-06
8.036e-06
-6.46846e-06
5.8234e-06
-1.81832e-06
-1.76146e-06
5.59063e-06
-1.23164e-05
1.08743e-05
-2.11844e-05
1.01533e-05
-2.8106e-05
6.54621e-06
-3.30304e-05
1.66616e-06
-3.63079e-05
-1.84985e-06
-3.8493e-05
-3.6312e-06
-3.96445e-05
-4.8987e-06
-4.03006e-05
-5.66774e-06
-4.06832e-05
-6.31221e-06
-4.08229e-05
-7.06001e-06
-4.08445e-05
-8.04607e-06
-4.14507e-05
-9.01694e-06
-4.31856e-05
-9.79512e-06
-8.6809e-06
-4.85165e-05
-2.55771e-05
2.78697e-05
-4.02773e-05
1.11649e-05
-4.20044e-05
-3.19998e-06
-3.93045e-05
-8.35236e-06
-3.57181e-05
-8.87805e-06
-3.51225e-05
-7.35218e-06
-3.52028e-05
-6.38884e-06
-3.4878e-05
-2.14372e-06
-3.34944e-05
4.20656e-06
-3.12799e-05
8.65939e-06
-2.96989e-05
8.57192e-06
-2.84269e-05
5.27384e-06
-2.85107e-05
1.74965e-06
-2.9803e-05
-5.57704e-07
-3.17195e-05
-1.71473e-06
-3.41695e-05
-2.44857e-06
-3.66848e-05
-3.15217e-06
-3.88734e-05
-4.12339e-06
-4.04654e-05
-5.4678e-06
-4.16743e-05
-6.83696e-06
-4.32347e-05
-7.45636e-06
-4.66896e-05
-6.34022e-06
-2.81763e-06
-5.25529e-05
-4.82149e-06
3.26916e-05
-1.91556e-05
2.54993e-05
-3.22904e-05
9.93501e-06
-3.43333e-05
-6.30927e-06
-3.30384e-05
-1.01728e-05
-3.30943e-05
-7.2962e-06
-3.56723e-05
-3.8107e-06
-3.6719e-05
-1.09696e-06
-3.46745e-05
2.16203e-06
-3.11902e-05
5.17501e-06
-2.80703e-05
5.45178e-06
-2.68017e-05
4.00492e-06
-2.79653e-05
2.91295e-06
-3.1104e-05
2.58079e-06
-3.47651e-05
1.94611e-06
-3.81448e-05
9.31125e-07
-4.09001e-05
-3.96826e-07
-4.25363e-05
-2.48705e-06
-4.30265e-05
-4.97771e-06
-4.31609e-05
-6.70263e-06
-4.41563e-05
-6.46094e-06
-4.66733e-05
-3.82314e-06
9.30789e-07
-5.04219e-05
8.62593e-06
2.40652e-05
2.85976e-06
3.12649e-05
-5.89157e-07
1.33834e-05
-3.5481e-06
-3.35079e-06
-8.88222e-06
-4.83902e-06
-1.50922e-05
-1.08646e-06
-2.06269e-05
1.72385e-06
-2.51862e-05
3.46229e-06
-2.79771e-05
4.95278e-06
-2.87944e-05
5.99228e-06
-2.97157e-05
6.37288e-06
-3.19772e-05
6.26626e-06
-3.4956e-05
5.89172e-06
-3.76936e-05
5.31834e-06
-4.03133e-05
4.56596e-06
-4.28622e-05
3.48018e-06
-4.48068e-05
1.54782e-06
-4.56756e-05
-1.61812e-06
-4.58685e-05
-4.78471e-06
-4.67712e-05
-5.79993e-06
-4.90438e-05
-4.18838e-06
-5.21672e-05
-6.99842e-07
4.0349e-06
-5.52713e-05
3.83425e-06
2.02309e-05
7.40644e-06
2.76926e-05
7.42477e-06
1.33649e-05
-3.52818e-07
4.42664e-06
-9.54456e-06
4.35259e-06
-1.60014e-05
5.37028e-06
-2.02286e-05
5.95095e-06
-2.33689e-05
6.60248e-06
-2.57496e-05
7.33333e-06
-2.77495e-05
7.99205e-06
-2.98029e-05
8.42605e-06
-3.21939e-05
8.657e-06
-3.49333e-05
8.63087e-06
-3.79558e-05
8.3407e-06
-4.1185e-05
7.79518e-06
-4.44026e-05
6.69788e-06
-4.71056e-05
4.25071e-06
-4.90985e-05
3.74781e-07
-5.13936e-05
-2.48967e-06
-5.49315e-05
-2.26189e-06
-5.9276e-05
1.56136e-07
-6.32919e-05
3.31604e-06
7.02736e-06
-6.62843e-05
-3.27338e-06
2.35041e-05
1.50713e-06
2.29118e-05
1.48319e-06
1.33886e-05
-3.65043e-06
9.56008e-06
-8.61599e-06
9.31807e-06
-1.27333e-05
9.48754e-06
-1.64569e-05
9.67465e-06
-1.98839e-05
1.00295e-05
-2.30088e-05
1.04582e-05
-2.59102e-05
1.08934e-05
-2.87642e-05
1.12799e-05
-3.16679e-05
1.15607e-05
-3.47066e-05
1.16695e-05
-3.79553e-05
1.15895e-05
-4.14541e-05
1.1294e-05
-4.51366e-05
1.03805e-05
-4.89327e-05
8.04682e-06
-5.30491e-05
4.49119e-06
-5.7802e-05
2.26314e-06
-6.31394e-05
3.07558e-06
-6.83758e-05
5.39251e-06
-7.27392e-05
7.67956e-06
1.03444e-05
-7.60564e-05
-4.18092e-06
2.76849e-05
-2.02597e-06
2.07566e-05
-2.59782e-06
1.39603e-05
-5.47283e-06
1.2435e-05
-8.82233e-06
1.26675e-05
-1.21681e-05
1.28333e-05
-1.54429e-05
1.29495e-05
-1.85699e-05
1.31565e-05
-2.15655e-05
1.34537e-05
-2.44746e-05
1.38024e-05
-2.73556e-05
1.41609e-05
-3.0266e-05
1.4471e-05
-3.32721e-05
1.46756e-05
-3.64425e-05
1.47599e-05
-3.98455e-05
1.4697e-05
-4.36416e-05
1.41765e-05
-4.81876e-05
1.25928e-05
-5.37479e-05
1.00514e-05
-5.97305e-05
8.24582e-06
-6.53597e-05
8.70472e-06
-7.03884e-05
1.04212e-05
-7.47279e-05
1.20193e-05
1.39241e-05
-7.83075e-05
-2.33421e-06
3.0019e-05
-2.53257e-06
2.09548e-05
-4.08567e-06
1.55133e-05
-6.67336e-06
1.50226e-05
-9.45802e-06
1.54522e-05
-1.22606e-05
1.56359e-05
-1.50575e-05
1.57464e-05
-1.78185e-05
1.59176e-05
-2.05299e-05
1.61651e-05
-2.31961e-05
1.64686e-05
-2.58323e-05
1.67971e-05
-2.8472e-05
1.71107e-05
-3.11687e-05
1.73724e-05
-3.39728e-05
1.75641e-05
-3.69333e-05
1.76575e-05
-4.02508e-05
1.7494e-05
-4.44085e-05
1.67504e-05
-4.97203e-05
1.53631e-05
-5.55678e-05
1.40933e-05
-6.08177e-05
1.39548e-05
-6.51945e-05
1.47981e-05
-6.90393e-05
1.5864e-05
1.72323e-05
-7.23474e-05
-1.15853e-06
3.11774e-05
-2.23937e-06
2.20356e-05
-4.39465e-06
1.76686e-05
-6.98677e-06
1.76148e-05
-9.54104e-06
1.80066e-05
-1.20611e-05
1.81561e-05
-1.45777e-05
1.8263e-05
-1.70798e-05
1.84198e-05
-1.95489e-05
1.86342e-05
-2.19753e-05
1.8895e-05
-2.43585e-05
1.91804e-05
-2.67107e-05
1.9463e-05
-2.90602e-05
1.9722e-05
-3.14396e-05
1.99436e-05
-3.38874e-05
2.01054e-05
-3.65381e-05
2.01446e-05
-3.97323e-05
1.99446e-05
-4.38039e-05
1.94347e-05
-4.85158e-05
1.88053e-05
-5.3023e-05
1.8462e-05
-5.68108e-05
1.85861e-05
-6.00563e-05
1.91094e-05
2.00416e-05
-6.28653e-05
-9.81214e-07
3.21586e-05
-2.29648e-06
2.33508e-05
-4.57426e-06
1.99463e-05
-7.04273e-06
2.00833e-05
-9.4336e-06
2.03975e-05
-1.17873e-05
2.05098e-05
-1.41242e-05
2.06001e-05
-1.64358e-05
2.07314e-05
-1.87088e-05
2.09073e-05
-2.09346e-05
2.11209e-05
-2.31104e-05
2.13562e-05
-2.52388e-05
2.15915e-05
-2.73269e-05
2.18102e-05
-2.93887e-05
2.20055e-05
-3.1453e-05
2.21697e-05
-3.35942e-05
2.22858e-05
-3.59755e-05
2.2326e-05
-3.88034e-05
2.22627e-05
-4.20973e-05
2.20991e-05
-4.55402e-05
2.19049e-05
-4.87668e-05
2.18129e-05
-5.16416e-05
2.19841e-05
2.25274e-05
-5.41271e-05
-1.14571e-06
3.33043e-05
-2.61114e-06
2.48163e-05
-4.82077e-06
2.21561e-05
-7.11704e-06
2.23797e-05
-9.35152e-06
2.26321e-05
-1.15575e-05
2.27159e-05
-1.37445e-05
2.27872e-05
-1.59041e-05
2.2891e-05
-1.80258e-05
2.30291e-05
-2.01027e-05
2.31979e-05
-2.21328e-05
2.33865e-05
-2.41172e-05
2.35761e-05
-2.60564e-05
2.37496e-05
-2.79519e-05
2.39011e-05
-2.98169e-05
2.40346e-05
-3.16866e-05
2.41556e-05
-3.3626e-05
2.42654e-05
-3.57213e-05
2.43582e-05
-3.80383e-05
2.44161e-05
-4.05514e-05
2.44181e-05
-4.31272e-05
2.43889e-05
-4.55964e-05
2.44533e-05
2.47531e-05
-4.78219e-05
-1.31606e-06
3.46203e-05
-2.90792e-06
2.64081e-05
-5.01611e-06
2.42643e-05
-7.16139e-06
2.45251e-05
-9.26408e-06
2.47349e-05
-1.13464e-05
2.47983e-05
-1.34121e-05
2.48529e-05
-1.54543e-05
2.49333e-05
-1.74649e-05
2.50398e-05
-1.94376e-05
2.51708e-05
-2.13716e-05
2.53206e-05
-2.32704e-05
2.5475e-05
-2.51373e-05
2.56167e-05
-2.6972e-05
2.57359e-05
-2.87746e-05
2.58373e-05
-3.05538e-05
2.59348e-05
-3.23299e-05
2.60417e-05
-3.4133e-05
2.61615e-05
-3.60004e-05
2.62834e-05
-3.79633e-05
2.6381e-05
-4.00133e-05
2.6439e-05
-4.20722e-05
2.65121e-05
2.67053e-05
-4.40243e-05
-1.44463e-06
3.6065e-05
-3.1177e-06
2.80813e-05
-5.1282e-06
2.62749e-05
-7.15298e-06
2.65501e-05
-9.15055e-06
2.67327e-05
-1.11342e-05
2.67821e-05
-1.31049e-05
2.68237e-05
-1.50576e-05
2.68861e-05
-1.69863e-05
2.69686e-05
-1.88859e-05
2.70706e-05
-2.07551e-05
2.719e-05
-2.25985e-05
2.73186e-05
-2.44235e-05
2.74419e-05
-2.62345e-05
2.7547e-05
-2.80286e-05
2.76314e-05
-2.97999e-05
2.77063e-05
-3.15466e-05
2.77885e-05
-3.32743e-05
2.78895e-05
-3.49968e-05
2.80058e-05
-3.67336e-05
2.81177e-05
-3.85012e-05
2.82065e-05
-4.02842e-05
2.82953e-05
2.8445e-05
-4.20238e-05
-1.54479e-06
3.76098e-05
-3.25152e-06
2.97881e-05
-5.17136e-06
2.81949e-05
-7.0995e-06
2.84783e-05
-9.01193e-06
2.86452e-05
-1.09158e-05
2.86861e-05
-1.28107e-05
2.87187e-05
-1.46934e-05
2.87689e-05
-1.65598e-05
2.88352e-05
-1.84057e-05
2.89167e-05
-2.02291e-05
2.90135e-05
-2.20325e-05
2.91222e-05
-2.3824e-05
2.92335e-05
-2.56117e-05
2.93347e-05
-2.7397e-05
2.94168e-05
-2.91728e-05
2.94821e-05
-3.09277e-05
2.95437e-05
-3.26543e-05
2.96163e-05
-3.43526e-05
2.97042e-05
-3.60307e-05
2.97958e-05
-3.77015e-05
2.98774e-05
-3.93677e-05
2.99617e-05
3.00807e-05
-4.10034e-05
-1.61737e-06
3.92272e-05
-3.32133e-06
3.14921e-05
-5.16167e-06
3.00354e-05
-7.01079e-06
3.03277e-05
-8.85258e-06
3.04872e-05
-1.06903e-05
3.05239e-05
-1.25233e-05
3.05519e-05
-1.43496e-05
3.05953e-05
-1.61666e-05
3.06523e-05
-1.79712e-05
3.07214e-05
-1.97608e-05
3.08032e-05
-2.15353e-05
3.08969e-05
-2.32998e-05
3.09982e-05
-2.50625e-05
3.10975e-05
-2.68293e-05
3.11836e-05
-2.85983e-05
3.12511e-05
-3.03589e-05
3.13045e-05
-3.20987e-05
3.13562e-05
-3.38098e-05
3.14152e-05
-3.54933e-05
3.14792e-05
-3.71574e-05
3.15415e-05
-3.88065e-05
3.16109e-05
3.17003e-05
-4.04262e-05
-1.66048e-06
4.08878e-05
-3.3428e-06
3.31746e-05
-5.11325e-06
3.1806e-05
-6.89627e-06
3.21109e-05
-8.67797e-06
3.22691e-05
-1.04596e-05
3.23056e-05
-1.22408e-05
3.23332e-05
-1.40202e-05
3.23749e-05
-1.57963e-05
3.24286e-05
-1.75673e-05
3.24925e-05
-1.93305e-05
3.25666e-05
-2.10846e-05
3.26512e-05
-2.28309e-05
3.27447e-05
-2.45752e-05
3.28418e-05
-2.63245e-05
3.29329e-05
-2.80817e-05
3.30083e-05
-2.98422e-05
3.3065e-05
-3.15948e-05
3.31089e-05
-3.3329e-05
3.31493e-05
-3.50406e-05
3.31907e-05
-3.6734e-05
3.32349e-05
-3.84121e-05
3.32892e-05
3.33549e-05
-4.00668e-05
-1.67608e-06
4.25638e-05
-3.32501e-06
3.48236e-05
-5.03651e-06
3.35176e-05
-6.76328e-06
3.38377e-05
-8.49259e-06
3.39985e-05
-1.02251e-05
3.40382e-05
-1.1961e-05
3.40692e-05
-1.36996e-05
3.41136e-05
-1.54402e-05
3.41693e-05
-1.71817e-05
3.42341e-05
-1.89225e-05
3.43076e-05
-2.06609e-05
3.43899e-05
-2.23965e-05
3.44807e-05
-2.4132e-05
3.45774e-05
-2.58735e-05
3.46743e-05
-2.76252e-05
3.476e-05
-2.93882e-05
3.4828e-05
-3.1156e-05
3.48768e-05
-3.2919e-05
3.49121e-05
-3.46702e-05
3.49418e-05
-3.64093e-05
3.49741e-05
-3.8141e-05
3.50209e-05
3.50745e-05
-3.98606e-05
-1.6687e-06
4.42326e-05
-3.2794e-06
3.64344e-05
-4.93949e-06
3.51779e-05
-6.61627e-06
3.55147e-05
-8.29789e-06
3.56802e-05
-9.98536e-06
3.57258e-05
-1.16795e-05
3.57635e-05
-1.33804e-05
3.58146e-05
-1.50878e-05
3.58767e-05
-1.68014e-05
3.59477e-05
-1.85206e-05
3.60269e-05
-2.02444e-05
3.6114e-05
-2.19723e-05
3.62088e-05
-2.37053e-05
3.63105e-05
-2.54463e-05
3.64153e-05
-2.72016e-05
3.65154e-05
-2.89744e-05
3.66009e-05
-3.07631e-05
3.66655e-05
-3.25611e-05
3.671e-05
-3.43612e-05
3.67417e-05
-3.6161e-05
3.67741e-05
-3.79639e-05
3.68239e-05
3.68802e-05
-3.97696e-05
-1.64303e-06
4.58757e-05
-3.21268e-06
3.80041e-05
-4.82647e-06
3.67917e-05
-6.45657e-06
3.71448e-05
-8.09229e-06
3.73159e-05
-9.73586e-06
3.73695e-05
-1.13889e-05
3.74168e-05
-1.30521e-05
3.74778e-05
-1.47259e-05
3.75504e-05
-1.64104e-05
3.76323e-05
-1.81061e-05
3.77228e-05
-1.98131e-05
3.78212e-05
-2.15313e-05
3.79274e-05
-2.32615e-05
3.80407e-05
-2.50057e-05
3.81595e-05
-2.67688e-05
3.82784e-05
-2.85558e-05
3.83879e-05
-3.0369e-05
3.84788e-05
-3.22058e-05
3.85467e-05
-3.40608e-05
3.85965e-05
-3.59308e-05
3.86442e-05
-3.78181e-05
3.87114e-05
3.87873e-05
-3.97253e-05
-1.60242e-06
4.74781e-05
-3.12984e-06
3.95317e-05
-4.69949e-06
3.83614e-05
-6.28333e-06
3.87285e-05
-7.87222e-06
3.89048e-05
-9.47038e-06
3.89679e-05
-1.10804e-05
3.90269e-05
-1.27033e-05
3.91007e-05
-1.434e-05
3.9187e-05
-1.59916e-05
3.92838e-05
-1.76592e-05
3.93904e-05
-1.93438e-05
3.95061e-05
-2.10467e-05
3.96305e-05
-2.2769e-05
3.9763e-05
-2.45124e-05
3.99029e-05
-2.6281e-05
4.00468e-05
-2.80804e-05
4.01873e-05
-2.99159e-05
4.03142e-05
-3.17888e-05
4.04196e-05
-3.36971e-05
4.05047e-05
-3.56386e-05
4.05857e-05
-3.76151e-05
4.06879e-05
4.08026e-05
-3.96303e-05
-1.55059e-06
4.90287e-05
-3.03465e-06
4.10158e-05
-4.55917e-06
3.98859e-05
-6.09372e-06
4.02629e-05
-7.63236e-06
4.04435e-05
-9.18134e-06
4.0517e-05
-1.07439e-05
4.05895e-05
-1.23215e-05
4.06783e-05
-1.39156e-05
4.0781e-05
-1.55278e-05
4.08959e-05
-1.716e-05
4.10226e-05
-1.88142e-05
4.11605e-05
-2.04925e-05
4.13089e-05
-2.21969e-05
4.14675e-05
-2.39297e-05
4.16356e-05
-2.56946e-05
4.18116e-05
-2.74977e-05
4.19903e-05
-2.93459e-05
4.21624e-05
-3.12446e-05
4.23182e-05
-3.31957e-05
4.24558e-05
-3.51995e-05
4.25895e-05
-3.72582e-05
4.27466e-05
4.29207e-05
-3.93762e-05
-1.48906e-06
5.05179e-05
-2.92728e-06
4.2454e-05
-4.40259e-06
4.13611e-05
-5.88201e-06
4.17423e-05
-7.36482e-06
4.19264e-05
-8.85895e-06
4.20113e-05
-1.03679e-05
4.20984e-05
-1.18932e-05
4.22036e-05
-1.34369e-05
4.23246e-05
-1.50011e-05
4.246e-05
-1.65882e-05
4.26097e-05
-1.8201e-05
4.27734e-05
-1.98424e-05
4.29504e-05
-2.15153e-05
4.31404e-05
-2.3223e-05
4.33431e-05
-2.49693e-05
4.35578e-05
-2.67606e-05
4.37815e-05
-2.8605e-05
4.40067e-05
-3.05111e-05
4.42242e-05
-3.2485e-05
4.44298e-05
-3.45306e-05
4.46353e-05
-3.66513e-05
4.48672e-05
4.51215e-05
-3.88521e-05
-1.41985e-06
5.19378e-05
-2.805e-06
4.38393e-05
-4.22107e-06
4.27768e-05
-5.63742e-06
4.31587e-05
-7.05752e-06
4.33467e-05
-8.4897e-06
4.34435e-05
-9.93718e-06
4.35458e-05
-1.14018e-05
4.3668e-05
-1.28856e-05
4.38082e-05
-1.43912e-05
4.39655e-05
-1.59215e-05
4.414e-05
-1.74797e-05
4.43316e-05
-1.90694e-05
4.45402e-05
-2.06943e-05
4.47654e-05
-2.23585e-05
4.50072e-05
-2.40664e-05
4.52657e-05
-2.58247e-05
4.55396e-05
-2.76423e-05
4.58243e-05
-2.953e-05
4.6112e-05
-3.14979e-05
4.63978e-05
-3.35535e-05
4.66911e-05
-3.57021e-05
4.70158e-05
4.73691e-05
-3.79497e-05
-1.34457e-06
5.32824e-05
-2.66197e-06
4.51565e-05
-4.00271e-06
4.41174e-05
-5.34607e-06
4.45021e-05
-6.69575e-06
4.46965e-05
-8.05784e-06
4.48056e-05
-9.43498e-06
4.49229e-05
-1.0829e-05
4.50619e-05
-1.22421e-05
4.52212e-05
-1.36771e-05
4.54005e-05
-1.51372e-05
4.56e-05
-1.66258e-05
4.58202e-05
-1.81469e-05
4.60612e-05
-1.97048e-05
4.63231e-05
-2.13041e-05
4.66062e-05
-2.29499e-05
4.69114e-05
-2.46491e-05
4.72387e-05
-2.6411e-05
4.75862e-05
-2.82477e-05
4.79487e-05
-3.0172e-05
4.83222e-05
-3.21949e-05
4.87142e-05
-3.43235e-05
4.91444e-05
4.96106e-05
-3.65651e-05
-1.26303e-06
5.45454e-05
-2.48793e-06
4.63809e-05
-3.73478e-06
4.53643e-05
-4.99601e-06
4.57635e-05
-6.26758e-06
4.59682e-05
-7.55099e-06
4.6089e-05
-8.84808e-06
4.62198e-05
-1.01608e-05
4.63745e-05
-1.14914e-05
4.65518e-05
-1.28427e-05
4.67517e-05
-1.42178e-05
4.69751e-05
-1.56202e-05
4.72226e-05
-1.70541e-05
4.74949e-05
-1.85239e-05
4.77926e-05
-2.00345e-05
4.81165e-05
-2.15914e-05
4.84681e-05
-2.32014e-05
4.88487e-05
-2.48738e-05
4.92586e-05
-2.66207e-05
4.96957e-05
-2.84566e-05
5.01582e-05
-3.03946e-05
5.06523e-05
-3.2443e-05
5.11929e-05
5.17777e-05
-3.46101e-05
-1.1756e-06
5.5721e-05
-2.27754e-06
4.74823e-05
-3.41298e-06
4.64998e-05
-4.58464e-06
4.69354e-05
-5.77145e-06
4.71552e-05
-6.96783e-06
4.72854e-05
-8.17516e-06
4.7427e-05
-9.39566e-06
4.75948e-05
-1.06316e-05
4.77876e-05
-1.18854e-05
4.80056e-05
-1.31602e-05
4.82499e-05
-1.44591e-05
4.85216e-05
-1.57862e-05
4.88218e-05
-1.71455e-05
4.91516e-05
-1.85419e-05
4.95126e-05
-1.99808e-05
4.99068e-05
-2.14687e-05
5.03366e-05
-2.3014e-05
5.08041e-05
-2.46281e-05
5.13099e-05
-2.63251e-05
5.18552e-05
-2.81185e-05
5.24457e-05
-3.00169e-05
5.30913e-05
5.37898e-05
-3.2029e-05
-1.08205e-06
5.68027e-05
-2.0334e-06
4.84333e-05
-3.04748e-06
4.75139e-05
-4.12577e-06
4.80138e-05
-5.22176e-06
4.82512e-05
-6.32321e-06
4.83867e-05
-7.43169e-06
4.85353e-05
-8.54975e-06
4.87127e-05
-9.67948e-06
4.89173e-05
-1.0823e-05
4.91491e-05
-1.19826e-05
4.94097e-05
-1.31613e-05
4.97003e-05
-1.43622e-05
5.00226e-05
-1.55891e-05
5.03781e-05
-1.6846e-05
5.07692e-05
-1.81377e-05
5.11983e-05
-1.94697e-05
5.16686e-05
-2.08491e-05
5.21837e-05
-2.22855e-05
5.27464e-05
-2.37907e-05
5.33604e-05
-2.53769e-05
5.40319e-05
-2.70516e-05
5.47661e-05
5.55607e-05
-2.88225e-05
-9.83218e-07
5.77855e-05
-1.77e-06
4.922e-05
-2.66262e-06
4.84065e-05
-3.64566e-06
4.89969e-05
-4.64545e-06
4.9251e-05
-5.64508e-06
4.93863e-05
-6.64712e-06
4.95372e-05
-7.65431e-06
4.97198e-05
-8.66831e-06
4.99312e-05
-9.69061e-06
5.01714e-05
-1.07229e-05
5.04419e-05
-1.17672e-05
5.07445e-05
-1.28257e-05
5.10809e-05
-1.3901e-05
5.14533e-05
-1.49962e-05
5.1864e-05
-1.61145e-05
5.23164e-05
-1.72599e-05
5.28142e-05
-1.84376e-05
5.33616e-05
-1.96543e-05
5.39632e-05
-2.09184e-05
5.46246e-05
-2.22387e-05
5.53522e-05
-2.36203e-05
5.61477e-05
5.70083e-05
-2.50679e-05
-8.78442e-07
5.86636e-05
-1.50626e-06
4.98478e-05
-2.28836e-06
4.91886e-05
-3.17536e-06
4.9884e-05
-4.07287e-06
5.01485e-05
-4.96476e-06
5.0278e-05
-5.8549e-06
5.04272e-05
-6.74559e-06
5.06103e-05
-7.63772e-06
5.08231e-05
-8.53188e-06
5.10654e-05
-9.42871e-06
5.13386e-05
-1.0329e-05
5.16447e-05
-1.12337e-05
5.19855e-05
-1.21441e-05
5.23634e-05
-1.30615e-05
5.27813e-05
-1.39874e-05
5.32423e-05
-1.49235e-05
5.37504e-05
-1.58721e-05
5.43105e-05
-1.68365e-05
5.49278e-05
-1.78208e-05
5.56089e-05
-1.8829e-05
5.63604e-05
-1.98618e-05
5.71805e-05
5.8066e-05
-2.09193e-05
-7.63593e-07
5.94272e-05
-1.26067e-06
5.03449e-05
-1.94761e-06
4.98757e-05
-2.73648e-06
5.06728e-05
-3.52603e-06
5.09379e-05
-4.30627e-06
5.10581e-05
-5.0819e-06
5.12027e-05
-5.854e-06
5.13823e-05
-6.62225e-06
5.15912e-05
-7.38613e-06
5.1829e-05
-8.14502e-06
5.20973e-05
-8.89829e-06
5.23978e-05
-9.64538e-06
5.27325e-05
-1.03857e-05
5.31037e-05
-1.11187e-05
5.35141e-05
-1.18435e-05
5.3967e-05
-1.25592e-05
5.44663e-05
-1.3265e-05
5.50165e-05
-1.39602e-05
5.56232e-05
-1.46443e-05
5.6293e-05
-1.5316e-05
5.7032e-05
-1.59709e-05
5.78354e-05
5.86982e-05
-1.66031e-05
-6.20021e-07
6.00473e-05
-1.03793e-06
5.07629e-05
-1.6449e-06
5.04827e-05
-2.3342e-06
5.13619e-05
-3.01275e-06
5.16162e-05
-3.68116e-06
5.17264e-05
-4.34377e-06
5.18652e-05
-4.9996e-06
5.2038e-05
-5.6469e-06
5.22383e-05
-6.28382e-06
5.24658e-05
-6.90844e-06
5.27217e-05
-7.51862e-06
5.30078e-05
-8.1121e-06
5.33259e-05
-8.6865e-06
5.36781e-05
-9.23911e-06
5.40667e-05
-9.76677e-06
5.44947e-05
-1.02658e-05
5.49654e-05
-1.07322e-05
5.5483e-05
-1.11614e-05
5.60525e-05
-1.15483e-05
5.66798e-05
-1.18862e-05
5.73698e-05
-1.21664e-05
5.81156e-05
5.8909e-05
-1.23772e-05
-3.73732e-07
6.04211e-05
-8.25419e-07
5.12148e-05
-1.36678e-06
5.10239e-05
-1.95796e-06
5.19528e-05
-2.52846e-06
5.21864e-05
-3.09096e-06
5.22887e-05
-3.64751e-06
5.24218e-05
-4.19474e-06
5.25852e-05
-4.7293e-06
5.27729e-05
-5.24828e-06
5.29846e-05
-5.74847e-06
5.32218e-05
-6.22634e-06
5.34857e-05
-6.67815e-06
5.37777e-05
-7.0998e-06
5.40997e-05
-7.48671e-06
5.44536e-05
-7.8336e-06
5.48416e-05
-8.13438e-06
5.52662e-05
-8.38211e-06
5.57309e-05
-8.56891e-06
5.62394e-05
-8.68557e-06
5.67965e-05
-8.72127e-06
5.74055e-05
-8.66387e-06
5.80582e-05
5.87436e-05
-8.49845e-06
2.15641e-08
6.03996e-05
-5.87283e-07
5.18237e-05
-1.08593e-06
5.15223e-05
-1.58821e-06
5.24547e-05
-2.06339e-06
5.26613e-05
-2.5335e-06
5.27588e-05
-2.99711e-06
5.28854e-05
-3.44885e-06
5.3037e-05
-3.88443e-06
5.32084e-05
-4.29989e-06
5.34e-05
-4.69107e-06
5.36129e-05
-5.05349e-06
5.3848e-05
-5.38229e-06
5.41065e-05
-5.67211e-06
5.43895e-05
-5.91693e-06
5.46984e-05
-6.10991e-06
5.50345e-05
-6.24316e-06
5.53996e-05
-6.30768e-06
5.57956e-05
-6.29307e-06
5.6225e-05
-6.18726e-06
5.66907e-05
-5.97633e-06
5.71945e-05
-5.64618e-06
5.77281e-05
5.82792e-05
-5.18176e-06
4.92649e-07
5.9907e-05
-2.61137e-07
5.25775e-05
-7.63043e-07
5.2024e-05
-1.20403e-06
5.28955e-05
-1.6099e-06
5.30671e-05
-2.00953e-06
5.31584e-05
-2.39936e-06
5.32753e-05
-2.77361e-06
5.34113e-05
-3.12791e-06
5.35627e-05
-3.45814e-06
5.37302e-05
-3.75982e-06
5.39145e-05
-4.02804e-06
5.41162e-05
-4.2574e-06
5.43359e-05
-4.44189e-06
5.4574e-05
-4.57474e-06
5.48312e-05
-4.64827e-06
5.5108e-05
-4.65367e-06
5.5405e-05
-4.58079e-06
5.57228e-05