/*--------------------------------*- C++ -*----------------------------------*\
| =========                 |                                                 |
| \\      /  F ield         | OpenFOAM: The Open Source CFD Toolbox           |
|  \\    /   O peration     | Version:  2206                                  |
|   \\  /    A nd           | Website:  www.openfoam.com                      |
|    \\/     M anipulation  |                                                 |
\*---------------------------------------------------------------------------*/
FoamFile
{
    version     2.0;
    format      ascii;
    arch        "LSB;label=32;scalar=64";
    class       volVectorField;
    location    "0.75";
    object      U;
}
// * * * * * * * * * * * * * * * * * * * * * * * * * * * * * * * * * * * * * //

dimensions      [0 1 -1 0 0 0 0];

internalField   nonuniform List<vector> 
2268
(
(-0.00822255 0.00486767 0)
(-0.0136033 0.0010496 0)
(-0.0100856 -0.00281113 0)
(-0.00117131 -0.0048054 0)
(0.0105234 -0.00540693 0)
(0.0219077 -0.0047549 0)
(0.0312955 -0.00340841 0)
(0.0376191 -0.00187388 0)
(0.0407072 -0.000492599 0)
(0.0410653 0.000612065 0)
(0.0393137 0.00137436 0)
(0.0364239 0.00187099 0)
(0.0328921 0.00232826 0)
(0.028719 0.00301821 0)
(0.0234802 0.0041373 0)
(0.0164963 0.00569308 0)
(0.00684006 0.00739788 0)
(-0.00553842 0.00883339 0)
(-0.0211825 0.00744207 0)
(-0.0373916 0.000573071 0)
(-0.0436671 -0.00996786 0)
(-0.0332777 -0.0184012 0)
(-0.0131528 -0.0184024 0)
(-0.0107095 0.0152397 0)
(-0.0143847 0.00240085 0)
(-0.0115071 -0.00871831 0)
(-0.00245728 -0.01497 0)
(0.00940867 -0.0168565 0)
(0.0211404 -0.0149506 0)
(0.0308907 -0.0110404 0)
(0.0377167 -0.00653936 0)
(0.0414674 -0.00245544 0)
(0.0425929 0.000669338 0)
(0.0421091 0.00272475 0)
(0.0406813 0.00391239 0)
(0.0389059 0.0047022 0)
(0.0371675 0.00564533 0)
(0.0355576 0.00723958 0)
(0.0337676 0.00982173 0)
(0.0309798 0.0134166 0)
(0.0262775 0.0176023 0)
(0.0189727 0.0199936 0)
(0.0090803 0.0171551 0)
(0.00422379 0.00792256 0)
(-0.00840132 -0.0116412 0)
(-0.00266483 -0.0328366 0)
(-0.0107012 0.0267129 0)
(-0.0155811 0.00436008 0)
(-0.0137023 -0.0141416 0)
(-0.0061068 -0.0250324 0)
(0.0053194 -0.0284886 0)
(0.0180688 -0.0253342 0)
(0.0283369 -0.0187816 0)
(0.0354348 -0.0114203 0)
(0.0396024 -0.00476435 0)
(0.0412471 0.000289273 0)
(0.04104 0.00350916 0)
(0.039788 0.00521112 0)
(0.0382014 0.00600968 0)
(0.0367627 0.00661735 0)
(0.0358241 0.00771977 0)
(0.0357392 0.00991561 0)
(0.0368059 0.0135417 0)
(0.0388814 0.0182572 0)
(0.0408482 0.0220494 0)
(0.0397221 0.0209467 0)
(0.0351399 0.0125291 0)
(0.0242342 -0.00378575 0)
(0.0117533 -0.0234299 0)
(-0.0109613 0.0391608 0)
(-0.0179713 0.00790232 0)
(-0.0197645 -0.0173527 0)
(-0.0176925 -0.0326074 0)
(-0.00738286 -0.0402202 0)
(0.00858949 -0.0372395 0)
(0.0220161 -0.0275672 0)
(0.0305352 -0.0170238 0)
(0.0355433 -0.00782005 0)
(0.0381573 -0.000770924 0)
(0.039003 0.00382075 0)
(0.0387096 0.00626393 0)
(0.0379133 0.00727275 0)
(0.0371179 0.00771855 0)
(0.0366487 0.00835162 0)
(0.0367158 0.00967514 0)
(0.0375584 0.0119341 0)
(0.0394792 0.0151287 0)
(0.0424892 0.0186216 0)
(0.0447469 0.0205659 0)
(0.0433249 0.0191351 0)
(0.0331081 0.0118558 0)
(0.0145829 -0.00306393 0)
(-0.011641 0.05329 0)
(-0.022665 0.0153398 0)
(-0.0342466 -0.0133195 0)
(-0.0397864 -0.0353734 0)
(-0.0309634 -0.0523839 0)
(-0.0125755 -0.0525753 0)
(0.00726183 -0.0393426 0)
(0.020509 -0.0243096 0)
(0.0279345 -0.0121001 0)
(0.032235 -0.00309708 0)
(0.0347395 0.00286907 0)
(0.0360539 0.00615725 0)
(0.0366722 0.00751801 0)
(0.0370724 0.00791543 0)
(0.0375874 0.00823847 0)
(0.0383758 0.00910123 0)
(0.0394397 0.0107834 0)
(0.0406529 0.0132686 0)
(0.0418905 0.0164177 0)
(0.0425912 0.0200061 0)
(0.0416278 0.0237417 0)
(0.033829 0.0247851 0)
(0.016955 0.0167935 0)
(-0.0122623 0.0703122 0)
(-0.0301082 0.0304953 0)
(-0.052294 -0.000852554 0)
(-0.0612029 -0.0363497 0)
(-0.0552147 -0.0662522 0)
(-0.0394949 -0.0721441 0)
(-0.0170632 -0.0572919 0)
(0.00313357 -0.0357076 0)
(0.0154167 -0.0189367 0)
(0.0228015 -0.00737645 0)
(0.0276959 0.000117147 0)
(0.0311906 0.00437902 0)
(0.0338009 0.00630323 0)
(0.0359142 0.0069049 0)
(0.0378615 0.00717411 0)
(0.0398505 0.00788813 0)
(0.0419053 0.0095464 0)
(0.0437795 0.0123643 0)
(0.0449082 0.0163618 0)
(0.044328 0.0216543 0)
(0.0414036 0.0292438 0)
(0.0336263 0.0395275 0)
(0.016558 0.0444963 0)
(-0.0111538 0.0891812 0)
(-0.0330368 0.0506647 0)
(-0.0581349 0.0135926 0)
(-0.0643215 -0.0361663 0)
(-0.0628193 -0.0776307 0)
(-0.0558592 -0.0917975 0)
(-0.0398001 -0.0798583 0)
(-0.0185045 -0.0537399 0)
(-0.00123335 -0.0305285 0)
(0.0102036 -0.0149805 0)
(0.0180612 -0.00538024 0)
(0.0240692 0.000164142 0)
(0.0290539 0.00292683 0)
(0.0333646 0.00400278 0)
(0.0372682 0.00445026 0)
(0.040967 0.00518359 0)
(0.0445626 0.00691795 0)
(0.0479489 0.010158 0)
(0.0507155 0.0153456 0)
(0.0517447 0.0224991 0)
(0.0500754 0.0326497 0)
(0.0427813 0.0457613 0)
(0.0269819 0.0612678 0)
(-0.00803388 0.108317 0)
(-0.0262587 0.0704712 0)
(-0.0412835 0.0274841 0)
(-0.0396553 -0.0320016 0)
(-0.0423214 -0.0782848 0)
(-0.0471678 -0.10005 0)
(-0.0453414 -0.0966809 0)
(-0.0330484 -0.0729996 0)
(-0.016896 -0.0457743 0)
(-0.00271205 -0.0253986 0)
(0.00786108 -0.0128095 0)
(0.0161113 -0.00591043 0)
(0.0231686 -0.00242924 0)
(0.0295978 -0.00080209 0)
(0.0356472 8.51199e-05 0)
(0.0414856 0.00113444 0)
(0.0471595 0.00317794 0)
(0.0527046 0.00705066 0)
(0.0576223 0.0139384 0)
(0.061637 0.0248823 0)
(0.0602793 0.0429938 0)
(0.0580363 0.0711934 0)
(0.0204429 0.121209 0)
(0.0703572 -0.0640213 0)
(0.371181 -0.0317541 0)
(-0.193377 0.0762238 0)
(-0.929244 0.0576016 0)
(-1.0795 -0.013726 0)
(-0.879709 -0.0343382 0)
(-0.66519 -0.0171406 0)
(-0.47888 0.0062996 0)
(-0.339141 0.0395125 0)
(-0.499358 0.0502154 0)
(-0.644861 -0.00734873 0)
(-0.724199 -0.0498221 0)
(-0.525514 -0.0951011 0)
(-0.236982 -0.112615 0)
(-0.0925135 0.00135368 0)
(-0.694706 0.0866925 0)
(-0.95292 0.0246977 0)
(-0.660395 -0.0669507 0)
(-0.228943 -0.0774575 0)
(-0.0595875 -0.0960477 0)
(0.206881 0.0831659 0)
(-0.573948 0.26178 0)
(-0.977904 0.1966 0)
(-0.604965 -0.00125077 0)
(-0.447512 -0.124211 0)
(-0.109039 -0.0993296 0)
(0.145555 -0.0794613 0)
(0.429697 -0.0251083 0)
(0.36195 0.0808613 0)
(-0.00662261 0.110206 0)
(-0.513616 0.0161931 0)
(-0.584507 -0.098901 0)
(-0.539654 -0.0633127 0)
(-0.669672 0.122609 0)
(-1.04745 0.171394 0)
(-1.00539 0.00706369 0)
(-0.665517 -0.201552 0)
(-0.252918 -0.236173 0)
(-0.114201 -0.0785509 0)
(-0.0163955 0.165015 0)
(-0.535199 0.395452 0)
(-0.31656 0.185463 0)
(0.269008 -0.118897 0)
(0.398731 -0.19819 0)
(0.714583 -0.230143 0)
(0.879143 -0.178459 0)
(0.965892 -0.0597363 0)
(0.8932 0.13397 0)
(0.575333 0.251917 0)
(-0.0289715 0.172558 0)
(-0.478679 -0.0476874 0)
(-0.665132 -0.0404815 0)
(-0.835795 0.181521 0)
(-1.01052 0.204099 0)
(-0.903946 -0.0312815 0)
(-0.623383 -0.335023 0)
(-0.258532 -0.398269 0)
(-0.175749 -0.0345906 0)
(-0.155155 0.216559 0)
(-0.263237 0.401435 0)
(0.457548 0.00580944 0)
(0.711975 -0.196099 0)
(0.873656 -0.275834 0)
(1.01319 -0.281922 0)
(1.11721 -0.208807 0)
(1.1391 -0.037676 0)
(1.07287 0.204709 0)
(0.865476 0.392507 0)
(0.382129 0.34982 0)
(-0.181989 0.101064 0)
(-0.54776 0.0155492 0)
(-0.73979 0.209343 0)
(-0.826392 0.207244 0)
(-0.724505 -0.072363 0)
(-0.493354 -0.436384 0)
(-0.235614 -0.543693 0)
(-0.147124 0.0222058 0)
(-0.118119 0.181225 0)
(0.155826 0.229241 0)
(0.693371 -0.109486 0)
(0.880261 -0.253505 0)
(1.01717 -0.325535 0)
(1.12874 -0.322327 0)
(1.12276 -0.246895 0)
(1.02797 -0.0867666 0)
(0.982484 0.162695 0)
(0.92459 0.450009 0)
(0.614641 0.497684 0)
(0.110508 0.266331 0)
(-0.318465 0.0944402 0)
(-0.519979 0.228393 0)
(-0.567343 0.20734 0)
(-0.492074 -0.0867347 0)
(-0.343702 -0.493223 0)
(-0.175425 -0.659694 0)
(-0.0980507 0.0319049 0)
(0.00332662 0.0953887 0)
(0.494484 0.0385071 0)
(0.768399 -0.172 0)
(0.951305 -0.306499 0)
(1.06757 -0.372989 0)
(0.938919 -0.325033 0)
(0.365604 -0.147369 0)
(-0.358548 0.0905772 0)
(0.308118 0.298539 0)
(0.724017 0.487471 0)
(0.681267 0.58488 0)
(0.318924 0.398527 0)
(-0.0393533 0.200709 0)
(-0.24364 0.252158 0)
(-0.268075 0.211876 0)
(-0.239444 -0.0887879 0)
(-0.18588 -0.517557 0)
(-0.0957221 -0.742175 0)
(-0.0946293 0.107396 0)
(0.287013 -0.0300579 0)
(0.553192 -0.064919 0)
(0.852283 -0.235856 0)
(0.99762 -0.358693 0)
(0.782229 -0.327526 0)
(-0.333567 -0.0109698 0)
(-2.19271 0.291389 0)
(-1.79945 -0.047107 0)
(-1.17691 -0.0097949 0)
(-0.0348445 0.415066 0)
(0.584688 0.613955 0)
(0.485811 0.48918 0)
(0.205864 0.287423 0)
(0.00308286 0.268816 0)
(0.024765 0.217407 0)
(0.0103755 -0.0540655 0)
(-0.0236298 -0.518143 0)
(-0.0106052 -0.786447 0)
(0.264527 -0.0684603 0)
(0.550684 -0.141905 0)
(0.768486 -0.166481 0)
(0.991319 -0.327585 0)
(0.726024 -0.292633 0)
(-0.667006 0.12112 0)
(-2.36917 0.530635 0)
(-2.16036 0.0746571 0)
(-1.81401 -0.324838 0)
(-1.44382 -0.307161 0)
(-0.768437 0.0412014 0)
(0.189477 0.460545 0)
(0.509396 0.516387 0)
(0.47129 0.379237 0)
(0.279553 0.301834 0)
(0.228784 0.202647 0)
(0.19504 -0.0614053 0)
(0.145388 -0.50103 0)
(0.0702001 -0.779622 0)
(0.00768968 0.117145 0)
(0.0210587 0.0844808 0)
(0.0176908 0.024733 0)
(0.0283025 -0.0254986 0)
(0.024961 -0.0592276 0)
(0.00654793 -0.079297 0)
(-0.0145718 -0.0879244 0)
(-0.0235226 -0.080096 0)
(-0.0221897 -0.0611885 0)
(-0.0133674 -0.0419991 0)
(-0.00280336 -0.0268099 0)
(0.00751286 -0.0175306 0)
(0.0170462 -0.0127385 0)
(0.0263178 -0.010659 0)
(0.0354365 -0.00974193 0)
(0.0445791 -0.00894678 0)
(0.0539631 -0.0074533 0)
(0.0643285 -0.00460109 0)
(0.0757219 0.000613211 0)
(0.0914885 0.00867537 0)
(0.10825 0.0240508 0)
(0.142232 0.0403348 0)
(0.164067 0.0955147 0)
(0.0196641 0.0600438 0)
(0.0493505 0.0733027 0)
(0.0883107 0.0317925 0)
(0.113556 -0.0149427 0)
(0.114428 -0.0311274 0)
(0.0925522 -0.0304818 0)
(0.0551911 -0.0364383 0)
(0.0261922 -0.0512562 0)
(0.00760253 -0.0595259 0)
(-0.000205764 -0.059541 0)
(0.000629104 -0.0528833 0)
(0.00698934 -0.0449826 0)
(0.0158964 -0.0393798 0)
(0.026288 -0.0360464 0)
(0.0376055 -0.0340205 0)
(0.0494322 -0.032988 0)
(0.0617909 -0.0325791 0)
(0.0750836 -0.0323983 0)
(0.0901137 -0.0320628 0)
(0.107468 -0.0318058 0)
(0.129485 -0.0306445 0)
(0.15579 -0.0335561 0)
(0.19447 -0.0274764 0)
(0.0254088 -0.0360048 0)
(0.0942781 -0.0785181 0)
(0.112991 -0.104084 0)
(0.0784469 -0.0880722 0)
(0.0265075 -0.0230669 0)
(0.0266391 0.0219318 0)
(0.0492765 0.0281836 0)
(0.0739836 0.0138588 0)
(0.0808052 -0.00806195 0)
(0.0609725 -0.0294301 0)
(0.0299609 -0.0426354 0)
(0.00223827 -0.0498429 0)
(-0.00756471 -0.0549532 0)
(-0.00626352 -0.0585243 0)
(0.00141849 -0.0607099 0)
(0.0109644 -0.0622084 0)
(0.0217617 -0.0638177 0)
(0.0338909 -0.0659279 0)
(0.0478694 -0.0687157 0)
(0.0642541 -0.0729881 0)
(0.0866547 -0.0793812 0)
(0.11255 -0.089666 0)
(0.154045 -0.108575 0)
(-0.0335083 -0.146936 0)
(-0.135226 -0.0568435 0)
(-0.104767 0.0961113 0)
(-0.0140602 0.124419 0)
(-0.0323055 0.0485594 0)
(0.0436567 -0.0752329 0)
(0.0424774 -0.11729 0)
(0.040871 -0.0856785 0)
(0.0242503 -0.020633 0)
(-0.0390711 0.0463634 0)
(-0.0881034 0.0658405 0)
(-0.141573 0.036371 0)
(-0.170793 -0.00873616 0)
(-0.189701 -0.0382308 0)
(-0.201441 -0.0528313 0)
(-0.209715 -0.0606765 0)
(-0.214513 -0.066395 0)
(-0.217625 -0.0716712 0)
(-0.218929 -0.0785733 0)
(-0.218651 -0.0913769 0)
(-0.218998 -0.113802 0)
(-0.224349 -0.14356 0)
(-0.243309 -0.164275 0)
(-0.0924722 0.166397 0)
(-0.212268 -0.0474563 0)
(-0.211524 -0.194084 0)
(-0.220534 -0.180417 0)
(-0.200908 -0.132572 0)
(-0.191676 -0.0699257 0)
(-0.193663 -0.0373939 0)
(-0.195345 0.029813 0)
(-0.178008 0.113058 0)
(-0.16466 0.159217 0)
(-0.164457 0.151108 0)
(-0.159983 0.105638 0)
(-0.151851 0.041638 0)
(-0.154227 -0.0103346 0)
(-0.163642 -0.0329336 0)
(-0.176447 -0.0438263 0)
(-0.190555 -0.0512725 0)
(-0.203589 -0.0590212 0)
(-0.213702 -0.0688933 0)
(-0.220545 -0.0796862 0)
(-0.227234 -0.0854101 0)
(-0.239843 -0.0764309 0)
(-0.260969 -0.0453697 0)
(0.0100276 0.403591 0)
(-0.0807324 0.237413 0)
(-0.132005 0.0916659 0)
(-0.184084 -0.0378036 0)
(-0.176439 -0.0847279 0)
(-0.176826 -0.0977836 0)
(-0.187491 -0.0856324 0)
(-0.199546 -0.0571032 0)
(-0.195137 -0.00532875 0)
(-0.177427 0.0453698 0)
(-0.157992 0.0486344 0)
(-0.143713 0.0207658 0)
(-0.143041 0.00353776 0)
(-0.157189 0.00488825 0)
(-0.177079 0.00289753 0)
(-0.196565 -0.00454114 0)
(-0.21335 -0.0161759 0)
(-0.225354 -0.0318618 0)
(-0.230674 -0.0519645 0)
(-0.231139 -0.0710008 0)
(-0.232824 -0.0772061 0)
(-0.242197 -0.0597024 0)
(-0.259224 -0.0144091 0)
(0.0620836 0.335661 0)
(0.0218162 0.363787 0)
(-0.000648881 0.159306 0)
(-0.000224029 -0.0739351 0)
(-0.0332876 -0.114905 0)
(-0.0655112 -0.0559331 0)
(-0.0984353 -0.00698254 0)
(-0.126564 0.0229648 0)
(-0.145516 0.046362 0)
(-0.153343 0.0604562 0)
(-0.155685 0.0648771 0)
(-0.164499 0.0621207 0)
(-0.179694 0.0556834 0)
(-0.194945 0.0468704 0)
(-0.209179 0.0361931 0)
(-0.223366 0.0231705 0)
(-0.236233 0.00471108 0)
(-0.243995 -0.0240546 0)
(-0.245635 -0.0578818 0)
(-0.247044 -0.0764819 0)
(-0.254874 -0.0662667 0)
(-0.271341 -0.0292933 0)
(-0.291913 0.0264167 0)
(0.014432 0.204561 0)
(0.0313979 0.326434 0)
(0.0438217 0.145007 0)
(0.0281737 0.0145802 0)
(-0.0291895 0.017937 0)
(-0.07375 0.0380087 0)
(-0.0991843 0.0466134 0)
(-0.118003 0.0541885 0)
(-0.132501 0.0626425 0)
(-0.143769 0.07001 0)
(-0.154005 0.0742483 0)
(-0.165822 0.0757222 0)
(-0.179813 0.0746691 0)
(-0.195269 0.0709252 0)
(-0.21203 0.0644705 0)
(-0.22992 0.0529915 0)
(-0.246456 0.0287305 0)
(-0.258051 -0.0117962 0)
(-0.26823 -0.0465535 0)
(-0.283888 -0.0498419 0)
(-0.305201 -0.0250707 0)
(-0.330173 0.0133215 0)
(-0.352676 0.0595732 0)
(-0.0317553 0.220508 0)
(0.00289008 0.257769 0)
(0.0145245 0.132262 0)
(-0.00284873 0.0775078 0)
(-0.0337248 0.0742031 0)
(-0.0582653 0.0780115 0)
(-0.0787247 0.0822204 0)
(-0.0979038 0.0884353 0)
(-0.115433 0.0952102 0)
(-0.131397 0.101364 0)
(-0.146664 0.106136 0)
(-0.161988 0.108968 0)
(-0.177822 0.109358 0)
(-0.194561 0.107225 0)
(-0.212612 0.1025 0)
(-0.23212 0.0908046 0)
(-0.252236 0.0627291 0)
(-0.272622 0.020582 0)
(-0.296302 -0.0055747 0)
(-0.323924 0.00303613 0)
(-0.35279 0.0309055 0)
(-0.380235 0.0605161 0)
(-0.403334 0.0945099 0)
(-0.0319337 0.279414 0)
(-0.0112903 0.225237 0)
(-0.00935609 0.142691 0)
(-0.0198783 0.118413 0)
(-0.0382965 0.11961 0)
(-0.0563558 0.121626 0)
(-0.0742267 0.123045 0)
(-0.0914434 0.125617 0)
(-0.107836 0.129293 0)
(-0.123604 0.133486 0)
(-0.139073 0.137611 0)
(-0.154531 0.14094 0)
(-0.170287 0.142719 0)
(-0.186764 0.142817 0)
(-0.204283 0.140971 0)
(-0.223166 0.132937 0)
(-0.245083 0.110748 0)
(-0.272568 0.0768004 0)
(-0.304272 0.0557131 0)
(-0.335869 0.0646244 0)
(-0.364347 0.0869589 0)
(-0.390287 0.107028 0)
(-0.413996 0.131363 0)
(-0.0155131 0.316843 0)
(-0.0102207 0.223165 0)
(-0.0157628 0.158291 0)
(-0.0281071 0.148884 0)
(-0.0432831 0.15286 0)
(-0.0582726 0.154641 0)
(-0.0733527 0.155637 0)
(-0.0882861 0.157435 0)
(-0.10296 0.160188 0)
(-0.117374 0.163625 0)
(-0.131577 0.167342 0)
(-0.145675 0.170817 0)
(-0.1599 0.17353 0)
(-0.174604 0.175276 0)
(-0.190012 0.175744 0)
(-0.206332 0.172491 0)
(-0.225499 0.160532 0)
(-0.251296 0.139413 0)
(-0.282797 0.121775 0)
(-0.312949 0.122831 0)
(-0.338234 0.137274 0)
(-0.360655 0.151765 0)
(-0.382043 0.168921 0)
(-0.00475795 0.331625 0)
(-0.00778672 0.231111 0)
(-0.0160963 0.178379 0)
(-0.0304552 0.176248 0)
(-0.0444442 0.180792 0)
(-0.0579733 0.182556 0)
(-0.0714835 0.183762 0)
(-0.0849767 0.185577 0)
(-0.0983343 0.188097 0)
(-0.111478 0.191172 0)
(-0.124378 0.194527 0)
(-0.137056 0.197823 0)
(-0.149619 0.200784 0)
(-0.162265 0.203219 0)
(-0.175174 0.20482 0)
(-0.188534 0.204576 0)
(-0.203518 0.200464 0)
(-0.222865 0.191404 0)
(-0.247502 0.181046 0)
(-0.273085 0.176737 0)
(-0.2949 0.180625 0)
(-0.313866 0.189092 0)
(-0.331907 0.201487 0)
(-0.00213181 0.34097 0)
(-0.00801665 0.243874 0)
(-0.0171071 0.202604 0)
(-0.0313401 0.203495 0)
(-0.04429 0.207352 0)
(-0.0569545 0.208794 0)
(-0.0695395 0.209903 0)
(-0.0820365 0.211491 0)
(-0.0943558 0.213618 0)
(-0.106437 0.216194 0)
(-0.118251 0.219016 0)
(-0.129794 0.221832 0)
(-0.141091 0.224465 0)
(-0.1522 0.226813 0)
(-0.163226 0.2287 0)
(-0.174353 0.229779 0)
(-0.186139 0.229524 0)
(-0.199887 0.227458 0)
(-0.216639 0.223872 0)
(-0.235158 0.220423 0)
(-0.252951 0.219342 0)
(-0.26961 0.222315 0)
(-0.285433 0.229977 0)
(-0.00250075 0.352425 0)
(-0.00945907 0.25923 0)
(-0.0190273 0.227196 0)
(-0.0322123 0.229341 0)
(-0.044233 0.232362 0)
(-0.05612 0.23341 0)
(-0.0679125 0.234287 0)
(-0.0795928 0.235557 0)
(-0.0910948 0.237246 0)
(-0.102368 0.2393 0)
(-0.113388 0.241575 0)
(-0.124158 0.243848 0)
(-0.134687 0.245943 0)
(-0.14497 0.24781 0)
(-0.15503 0.249455 0)
(-0.164979 0.250856 0)
(-0.175067 0.251947 0)
(-0.185762 0.252606 0)
(-0.197619 0.25262 0)
(-0.210647 0.251858 0)
(-0.224204 0.250923 0)
(-0.23803 0.251647 0)
(-0.251762 0.255732 0)
(-0.00302272 0.365939 0)
(-0.0108803 0.275936 0)
(-0.0206875 0.250572 0)
(-0.032818 0.253276 0)
(-0.0440976 0.255729 0)
(-0.0553177 0.256509 0)
(-0.0664532 0.257186 0)
(-0.0774886 0.258174 0)
(-0.0883748 0.259481 0)
(-0.0990695 0.261082 0)
(-0.10955 0.262891 0)
(-0.119827 0.264724 0)
(-0.129928 0.266386 0)
(-0.139863 0.2678 0)
(-0.149619 0.269043 0)
(-0.159206 0.270256 0)
(-0.1687 0.271539 0)
(-0.178251 0.272881 0)
(-0.188074 0.274127 0)
(-0.198307 0.274969 0)
(-0.208941 0.275297 0)
(-0.220093 0.275947 0)
(-0.231635 0.278333 0)
(-0.00337546 0.38093 0)
(-0.0119834 0.293707 0)
(-0.0217629 0.272799 0)
(-0.0330501 0.275728 0)
(-0.0437582 0.277819 0)
(-0.0544401 0.27842 0)
(-0.0650557 0.278936 0)
(-0.0755922 0.279698 0)
(-0.0860162 0.280704 0)
(-0.096295 0.281945 0)
(-0.106406 0.283383 0)
(-0.116357 0.284898 0)
(-0.126189 0.286309 0)
(-0.135944 0.287486 0)
(-0.145624 0.288449 0)
(-0.155197 0.289359 0)
(-0.164629 0.290403 0)
(-0.173936 0.291665 0)
(-0.183186 0.293064 0)
(-0.19243 0.294351 0)
(-0.201708 0.295306 0)
(-0.211247 0.296252 0)
(-0.221192 0.298035 0)
(-0.00372064 0.397154 0)
(-0.01277 0.312087 0)
(-0.0223555 0.294009 0)
(-0.0329861 0.297032 0)
(-0.0432383 0.298898 0)
(-0.0534796 0.299378 0)
(-0.0636762 0.299774 0)
(-0.0738184 0.300373 0)
(-0.0838846 0.301163 0)
(-0.093852 0.302137 0)
(-0.103699 0.303291 0)
(-0.113422 0.304567 0)
(-0.123055 0.305834 0)
(-0.132649 0.306943 0)
(-0.14224 0.307822 0)
(-0.15181 0.30855 0)
(-0.161296 0.309307 0)
(-0.170643 0.310251 0)
(-0.179839 0.31139 0)
(-0.188878 0.312547 0)
(-0.197765 0.313541 0)
(-0.206697 0.314536 0)
(-0.215886 0.315991 0)
(-0.00405831 0.414312 0)
(-0.0132604 0.330578 0)
(-0.0225856 0.31428 0)
(-0.0326975 0.317386 0)
(-0.0425693 0.319134 0)
(-0.0524433 0.319546 0)
(-0.0622956 0.319869 0)
(-0.0721187 0.320366 0)
(-0.0818991 0.321021 0)
(-0.0916221 0.321821 0)
(-0.10127 0.322772 0)
(-0.110831 0.323858 0)
(-0.120317 0.325011 0)
(-0.129768 0.326103 0)
(-0.139235 0.327016 0)
(-0.148731 0.32772 0)
(-0.158219 0.328317 0)
(-0.167628 0.328966 0)
(-0.176905 0.329754 0)
(-0.186002 0.330606 0)
(-0.194903 0.331405 0)
(-0.20377 0.33226 0)
(-0.212802 0.333389 0)
(-0.00433382 0.432078 0)
(-0.0134865 0.348888 0)
(-0.0225403 0.333737 0)
(-0.0322457 0.336957 0)
(-0.0417905 0.338664 0)
(-0.0513515 0.339055 0)
(-0.0609138 0.339351 0)
(-0.0704712 0.339804 0)
(-0.0800148 0.340393 0)
(-0.0895366 0.341101 0)
(-0.099024 0.341931 0)
(-0.108464 0.342884 0)
(-0.117852 0.343935 0)
(-0.127208 0.345003 0)
(-0.136573 0.345971 0)
(-0.145983 0.346744 0)
(-0.155434 0.347325 0)
(-0.164879 0.347816 0)
(-0.174258 0.348331 0)
(-0.183503 0.348889 0)
(-0.192569 0.349462 0)
(-0.201594 0.350136 0)
(-0.210764 0.350962 0)
(-0.00451616 0.450147 0)
(-0.0135021 0.366878 0)
(-0.0223045 0.352502 0)
(-0.0316768 0.355873 0)
(-0.0409339 0.357591 0)
(-0.0502222 0.358 0)
(-0.0595306 0.358312 0)
(-0.068856 0.358772 0)
(-0.0781938 0.359356 0)
(-0.0875399 0.360043 0)
(-0.0968874 0.36083 0)
(-0.106226 0.36172 0)
(-0.115547 0.362707 0)
(-0.124857 0.363753 0)
(-0.134178 0.364771 0)
(-0.143546 0.365648 0)
(-0.15298 0.366316 0)
(-0.16247 0.366796 0)
(-0.171971 0.367179 0)
(-0.181406 0.367541 0)
(-0.190709 0.36794 0)
(-0.200001 0.36848 0)
(-0.209463 0.369102 0)
(-0.00459545 0.468249 0)
(-0.0133594 0.384475 0)
(-0.0219377 0.370674 0)
(-0.0310185 0.374221 0)
(-0.0400153 0.375983 0)
(-0.0490544 0.376443 0)
(-0.0581291 0.376811 0)
(-0.0672405 0.377322 0)
(-0.0763871 0.377953 0)
(-0.0855682 0.37868 0)
(-0.0947815 0.379496 0)
(-0.104023 0.380399 0)
(-0.113287 0.38139 0)
(-0.122571 0.382452 0)
(-0.131887 0.383535 0)
(-0.141263 0.384542 0)
(-0.150727 0.385366 0)
(-0.160292 0.385963 0)
(-0.169944 0.386368 0)
(-0.179609 0.386673 0)
(-0.189212 0.387 0)
(-0.198857 0.387502 0)
(-0.208714 0.388068 0)
(-0.00458028 0.486158 0)
(-0.0130974 0.401637 0)
(-0.0214691 0.388325 0)
(-0.0302851 0.392056 0)
(-0.0390346 0.393875 0)
(-0.0478314 0.394411 0)
(-0.0566775 0.394868 0)
(-0.065577 0.39547 0)
(-0.0745315 0.396193 0)
(-0.0835433 0.397013 0)
(-0.0926142 0.397922 0)
(-0.101746 0.398914 0)
(-0.110939 0.399987 0)
(-0.120192 0.401136 0)
(-0.129511 0.402334 0)
(-0.138916 0.40351 0)
(-0.148437 0.404556 0)
(-0.158099 0.40538 0)
(-0.167916 0.405961 0)
(-0.177836 0.40637 0)
(-0.187783 0.406771 0)
(-0.197842 0.407375 0)
(-0.208166 0.408056 0)
(-0.00449288 0.5037 0)
(-0.0127476 0.418344 0)
(-0.0209175 0.405493 0)
(-0.029481 0.409392 0)
(-0.0379796 0.411273 0)
(-0.046527 0.411903 0)
(-0.0551349 0.412476 0)
(-0.0638101 0.413202 0)
(-0.0725567 0.414056 0)
(-0.08138 0.415016 0)
(-0.0902859 0.416074 0)
(-0.0992808 0.417222 0)
(-0.108371 0.418455 0)
(-0.117562 0.41977 0)
(-0.12686 0.421154 0)
(-0.136279 0.422562 0)
(-0.145846 0.423902 0)
(-0.155597 0.425061 0)
(-0.165565 0.425971 0)
(-0.175725 0.426664 0)
(-0.186013 0.427321 0)
(-0.196503 0.428199 0)
(-0.207315 0.429191 0)
(-0.0043492 0.520735 0)
(-0.0123274 0.434588 0)
(-0.0202979 0.422187 0)
(-0.0285995 0.426218 0)
(-0.0368275 0.42815 0)
(-0.0451064 0.428888 0)
(-0.0534548 0.429598 0)
(-0.0618806 0.430474 0)
(-0.0703905 0.431492 0)
(-0.078993 0.432632 0)
(-0.0876973 0.433886 0)
(-0.0965142 0.435248 0)
(-0.105455 0.436711 0)
(-0.114532 0.43827 0)
(-0.123754 0.43992 0)
(-0.133136 0.441634 0)
(-0.142702 0.443345 0)
(-0.152493 0.444943 0)
(-0.162558 0.446328 0)
(-0.172899 0.447495 0)
(-0.183478 0.448613 0)
(-0.194355 0.449971 0)
(-0.20561 0.451488 0)
(-0.00415768 0.537151 0)
(-0.0118515 0.450357 0)
(-0.0196062 0.438382 0)
(-0.0276151 0.442488 0)
(-0.0355407 0.44446 0)
(-0.043522 0.445315 0)
(-0.0515791 0.446177 0)
(-0.0597203 0.447223 0)
(-0.0679542 0.448429 0)
(-0.0762916 0.449779 0)
(-0.0847452 0.451267 0)
(-0.0933291 0.452889 0)
(-0.102059 0.454639 0)
(-0.110951 0.45651 0)
(-0.12002 0.4585 0)
(-0.129285 0.460596 0)
(-0.138771 0.462755 0)
(-0.148517 0.464884 0)
(-0.158585 0.466878 0)
(-0.169004 0.468698 0)
(-0.179765 0.470489 0)
(-0.190919 0.472546 0)
(-0.202495 0.474816 0)
(-0.0039309 0.552859 0)
(-0.0113351 0.465608 0)
(-0.0188074 0.454001 0)
(-0.0264722 0.458125 0)
(-0.0340583 0.460132 0)
(-0.0417056 0.461113 0)
(-0.0494317 0.462137 0)
(-0.0572445 0.463365 0)
(-0.0651541 0.464774 0)
(-0.0731731 0.466353 0)
(-0.0813163 0.468101 0)
(-0.0896005 0.470015 0)
(-0.0980442 0.472092 0)
(-0.106667 0.474326 0)
(-0.115491 0.476716 0)
(-0.124536 0.479259 0)
(-0.13383 0.481933 0)
(-0.143415 0.484673 0)
(-0.153355 0.487382 0)
(-0.163704 0.490008 0)
(-0.174485 0.492666 0)
(-0.185741 0.495632 0)
(-0.197436 0.498873 0)
(-0.00368997 0.567783 0)
(-0.0107637 0.480232 0)
(-0.0178356 0.468909 0)
(-0.0250986 0.473031 0)
(-0.032304 0.475088 0)
(-0.0395756 0.4762 0)
(-0.0469249 0.477388 0)
(-0.054359 0.4788 0)
(-0.0618889 0.480418 0)
(-0.0695284 0.482235 0)
(-0.0772933 0.484254 0)
(-0.0852017 0.486476 0)
(-0.0932738 0.4889 0)
(-0.101532 0.491525 0)
(-0.11 0.494353 0)
(-0.118704 0.497388 0)
(-0.127674 0.500624 0)
(-0.13695 0.504027 0)
(-0.146599 0.507525 0)
(-0.156689 0.511067 0)
(-0.167277 0.514741 0)
(-0.178394 0.518786 0)
(-0.189928 0.52318 0)
(-0.00346436 0.58186 0)
(-0.0101038 0.494013 0)
(-0.0166223 0.482912 0)
(-0.0234289 0.487099 0)
(-0.0302137 0.489241 0)
(-0.0370675 0.490486 0)
(-0.0439904 0.49183 0)
(-0.0509909 0.493419 0)
(-0.058081 0.49524 0)
(-0.065274 0.497289 0)
(-0.0725859 0.499574 0)
(-0.0800349 0.5021 0)
(-0.0876414 0.504872 0)
(-0.0954283 0.507892 0)
(-0.103421 0.511167 0)
(-0.111648 0.514709 0)
(-0.12014 0.518527 0)
(-0.128937 0.522611 0)
(-0.138101 0.526923 0)
(-0.147708 0.531429 0)
(-0.157842 0.536201 0)
(-0.168524 0.541426 0)
(-0.179553 0.547083 0)
(-0.00328333 0.595029 0)
(-0.00932621 0.506641 0)
(-0.0151348 0.4958 0)
(-0.02145 0.500235 0)
(-0.0277801 0.502515 0)
(-0.0341738 0.503878 0)
(-0.0406214 0.505357 0)
(-0.0471328 0.507104 0)
(-0.0537212 0.509107 0)
(-0.0603986 0.511368 0)
(-0.0671797 0.513898 0)
(-0.0740816 0.516706 0)
(-0.0811234 0.519801 0)
(-0.0883268 0.523192 0)
(-0.0957164 0.526893 0)
(-0.10332 0.530921 0)
(-0.111168 0.535299 0)
(-0.119297 0.540039 0)
(-0.127762 0.545134 0)
(-0.136635 0.55058 0)
(-0.146019 0.55644 0)
(-0.155925 0.562845 0)
(-0.166059 0.569774 0)
(-0.00316077 0.607224 0)
(-0.00842486 0.517774 0)
(-0.0134168 0.507409 0)
(-0.0192282 0.512379 0)
(-0.0250774 0.514843 0)
(-0.0309721 0.51629 0)
(-0.0368996 0.517867 0)
(-0.0428701 0.519738 0)
(-0.0488985 0.521891 0)
(-0.0549943 0.524328 0)
(-0.0611706 0.527061 0)
(-0.0674414 0.530106 0)
(-0.0738222 0.533474 0)
(-0.0803322 0.537184 0)
(-0.0869922 0.541253 0)
(-0.0938262 0.545708 0)
(-0.100861 0.550578 0)
(-0.108128 0.555895 0)
(-0.11567 0.56168 0)
(-0.123549 0.567958 0)
(-0.131869 0.574793 0)
(-0.140639 0.582262 0)
(-0.149478 0.590343 0)
(-0.00308519 0.618379 0)
(-0.00741839 0.527163 0)
(-0.0115943 0.51768 0)
(-0.0169055 0.523503 0)
(-0.0222519 0.526165 0)
(-0.0276088 0.527642 0)
(-0.0329784 0.529269 0)
(-0.0383652 0.531221 0)
(-0.043786 0.533476 0)
(-0.0492466 0.536035 0)
(-0.0547564 0.538913 0)
(-0.0603253 0.542128 0)
(-0.0659632 0.545697 0)
(-0.0716841 0.549641 0)
(-0.0775038 0.553986 0)
(-0.0834397 0.558763 0)
(-0.0895103 0.56401 0)
(-0.0957372 0.569769 0)
(-0.102149 0.576083 0)
(-0.108789 0.583002 0)
(-0.115751 0.590594 0)
(-0.123038 0.598893 0)
(-0.130226 0.607872 0)
(-0.00301511 0.628438 0)
(-0.00634159 0.534749 0)
(-0.00983652 0.526674 0)
(-0.0146432 0.533597 0)
(-0.0194665 0.536419 0)
(-0.0242477 0.537861 0)
(-0.0290308 0.53949 0)
(-0.0338048 0.541472 0)
(-0.0385864 0.543773 0)
(-0.0433772 0.54639 0)
(-0.0481803 0.549339 0)
(-0.0530001 0.552639 0)
(-0.0578407 0.556313 0)
(-0.0627077 0.560382 0)
(-0.0676093 0.564878 0)
(-0.0725533 0.569835 0)
(-0.0775468 0.575295 0)
(-0.0825993 0.581307 0)
(-0.0877217 0.587927 0)
(-0.0929348 0.595222 0)
(-0.0983039 0.603263 0)
(-0.103832 0.612046 0)
(-0.109103 0.621535 0)
(-0.00289038 0.637327 0)
(-0.00522177 0.540716 0)
(-0.00827922 0.534556 0)
(-0.0125571 0.54265 0)
(-0.0168369 0.545541 0)
(-0.0210114 0.546896 0)
(-0.0251924 0.548486 0)
(-0.0293424 0.550452 0)
(-0.0334738 0.552739 0)
(-0.037584 0.555343 0)
(-0.0416683 0.558281 0)
(-0.0457244 0.561572 0)
(-0.0497491 0.565239 0)
(-0.0537388 0.569306 0)
(-0.0576911 0.573803 0)
(-0.0616023 0.578768 0)
(-0.0654669 0.584243 0)
(-0.0692795 0.590278 0)
(-0.0730325 0.596935 0)
(-0.0767206 0.604286 0)
(-0.0803711 0.6124 0)
(-0.0839856 0.62124 0)
(-0.0872121 0.630758 0)
(-0.00261873 0.644874 0)
(-0.0040165 0.545498 0)
(-0.0069745 0.54151 0)
(-0.0106699 0.550641 0)
(-0.0143928 0.553478 0)
(-0.0179523 0.554721 0)
(-0.0215359 0.556253 0)
(-0.0250733 0.558161 0)
(-0.0285687 0.56038 0)
(-0.032015 0.562904 0)
(-0.0354 0.565748 0)
(-0.0387132 0.568932 0)
(-0.0419434 0.572476 0)
(-0.0450778 0.576405 0)
(-0.0481032 0.580748 0)
(-0.0510037 0.585536 0)
(-0.0537605 0.590811 0)
(-0.0563526 0.596621 0)
(-0.0587544 0.603023 0)
(-0.0609367 0.610088 0)
(-0.0628836 0.617875 0)
(-0.0645888 0.62632 0)
(-0.0658078 0.635349 0)
(-0.00180598 0.650739 0)
(-0.00244264 0.549717 0)
(-0.00593814 0.547673 0)
(-0.00889787 0.557546 0)
(-0.0120925 0.560206 0)
(-0.0150652 0.561348 0)
(-0.0180852 0.562817 0)
(-0.0210485 0.564638 0)
(-0.0239509 0.566742 0)
(-0.0267802 0.569124 0)
(-0.0295162 0.5718 0)
(-0.0321421 0.574786 0)
(-0.0346388 0.578099 0)
(-0.0369853 0.581762 0)
(-0.0391585 0.585798 0)
(-0.0411317 0.590235 0)
(-0.0428742 0.595106 0)
(-0.0443505 0.600452 0)
(-0.0455199 0.606322 0)
(-0.0463343 0.612777 0)
(-0.0467389 0.61986 0)
(-0.046712 0.627488 0)
(-0.0461361 0.635555 0)
(2.21952e-05 0.653192 0)
(-0.000243853 0.555186 0)
(-0.00504233 0.553224 0)
(-0.00707558 0.563412 0)
(-0.00986354 0.565805 0)
(-0.0123183 0.56688 0)
(-0.0148462 0.568286 0)
(-0.017306 0.569994 0)
(-0.0196875 0.571942 0)
(-0.0219744 0.574131 0)
(-0.024141 0.576573 0)
(-0.0261661 0.579282 0)
(-0.0280245 0.582271 0)
(-0.0296889 0.585558 0)
(-0.0311289 0.589159 0)
(-0.0323101 0.593095 0)
(-0.0331926 0.59739 0)
(-0.0337307 0.602073 0)
(-0.0338721 0.60718 0)
(-0.0335561 0.612753 0)
(-0.0326998 0.618821 0)
(-0.0312612 0.625293 0)
(-0.0292541 0.632038 0)
(0.00209449 0.650148 0)
(0.0019462 0.563136 0)
(-0.00383317 0.558609 0)
(-0.0050422 0.568489 0)
(-0.00764345 0.570544 0)
(-0.00969549 0.571566 0)
(-0.0118403 0.572891 0)
(-0.0138949 0.574453 0)
(-0.0158507 0.576205 0)
(-0.0176911 0.578154 0)
(-0.0193897 0.58031 0)
(-0.0209229 0.58268 0)
(-0.0222628 0.585274 0)
(-0.023379 0.588102 0)
(-0.0242372 0.591175 0)
(-0.024799 0.594504 0)
(-0.02502 0.5981 0)
(-0.0248485 0.60198 0)
(-0.0242253 0.606162 0)
(-0.0230852 0.610666 0)
(-0.0213297 0.615503 0)
(-0.0188848 0.620584 0)
(-0.0158764 0.625768 0)
(0.00381116 0.642667 0)
(0.00390211 0.571551 0)
(-0.00224292 0.564089 0)
(-0.00300885 0.57301 0)
(-0.0055183 0.574653 0)
(-0.00727766 0.575593 0)
(-0.00914545 0.576787 0)
(-0.0108946 0.578159 0)
(-0.0125261 0.579676 0)
(-0.0140246 0.581347 0)
(-0.0153668 0.583176 0)
(-0.0165291 0.585167 0)
(-0.0174846 0.587323 0)
(-0.0182033 0.589647 0)
(-0.018651 0.59214 0)
(-0.0187887 0.594804 0)
(-0.0185722 0.59764 0)
(-0.0179494 0.600647 0)
(-0.01686 0.603824 0)
(-0.0152417 0.607173 0)
(-0.0129998 0.610686 0)
(-0.0100376 0.614282 0)
(-0.00656388 0.617825 0)
(0.00503144 0.631984 0)
(0.00563801 0.579411 0)
(-0.000483684 0.569636 0)
(-0.00126207 0.577075 0)
(-0.00369168 0.578284 0)
(-0.00523574 0.579102 0)
(-0.00691002 0.580114 0)
(-0.00843926 0.581257 0)
(-0.00984021 0.582511 0)