/*--------------------------------*- C++ -*----------------------------------*\
| =========                 |                                                 |
| \\      /  F ield         | OpenFOAM: The Open Source CFD Toolbox           |
|  \\    /   O peration     | Version:  2206                                  |
|   \\  /    A nd           | Website:  www.openfoam.com                      |
|    \\/     M anipulation  |                                                 |
\*---------------------------------------------------------------------------*/
FoamFile
{
    version     2.0;
    format      ascii;
    arch        "LSB;label=32;scalar=64";
    class       volScalarField;
    location    "0.025";
    object      p;
}
// * * * * * * * * * * * * * * * * * * * * * * * * * * * * * * * * * * * * * //

dimensions      [1 -1 -2 0 0 0 0];

internalField   nonuniform List<scalar> 
2268
(
1006
1000.06
987.899
969.484
944.608
912.974
874.185
827.704
772.823
708.59
633.701
546.409
443.369
325.934
176.474
22.3541
6.41566
4.88852
4.65662
4.49929
4.35855
4.27282
4.23271
847.602
841.85
830.115
812.361
788.419
758.049
720.932
676.657
624.706
564.421
494.973
415.348
323.772
222.016
92.4926
3.45925
3.41732
3.88343
4.04549
3.99715
3.93866
3.89751
3.8761
709.292
703.899
692.943
676.4
654.154
626.042
591.86
551.355
504.229
450.136
388.689
319.498
241.92
158.007
54.1849
3.47859
3.35086
3.43055
3.44251
3.43639
3.4266
3.41558
3.40886
589.859
584.943
575.009
560.044
539.984
514.746
484.231
448.329
406.928
359.927
307.255
248.921
184.885
117.089
34.7336
3.00935
2.85551
2.92437
2.92179
2.91713
2.91333
2.90945
2.9071
487.672
483.3
474.515
461.312
443.671
421.572
394.997
363.939
328.415
288.472
244.217
195.844
143.556
88.9731
23.118
2.43356
2.33313
2.4023
2.40515
2.40224
2.39898
2.39569
2.39371
400.859
397.054
389.448
378.042
362.847
343.885
321.193
294.827
264.874
231.46
194.766
155.046
112.571
68.6225
15.6498
1.95019
1.8713
1.90581
1.8997
1.89108
1.88266
1.87514
1.87057
327.47
324.219
317.754
308.076
295.215
279.22
260.154
238.108
213.199
185.582
155.454
123.071
88.6945
53.3212
10.604
1.47447
1.41349
1.41925
1.40144
1.38168
1.36145
1.3418
1.32654
265.596
262.865
257.459
249.377
238.662
225.37
209.58
191.39
170.926
148.344
123.831
97.6147
69.922
41.5346
7.09353
0.996885
0.945224
0.935874
0.907793
0.874002
0.835013
0.790689
0.735192
0.598856
0.59636
0.591544
0.584755
0.576417
0.566982
0.556889
0.546527
0.536235
0.526286
0.516899
0.508247
0.500462
0.493647
0.487879
0.483213
0.479689
0.477327
0.476143
0.422702
0.419991
0.414789
0.407514
0.398658
0.388721
0.378174
0.367424
0.356811
0.346601
0.337009
0.328199
0.320296
0.313394
0.307564
0.302855
0.299298
0.296917
0.295723
0.249677
0.246484
0.24043
0.232107
0.222154
0.211177
0.199704
0.188175
0.176919
0.166198
0.156208
0.147094
0.138962
0.131893
0.12594
0.121143
0.117528
0.11511
0.1139
0.0803232
0.0762461
0.0686907
0.0585902
0.0468392
0.0342109
0.0213126
0.00861258
-0.00358852
-0.0150536
-0.0256161
-0.0351615
-0.0436127
-0.0509169
-0.0570381
-0.0619524
-0.0656458
-0.0681108
-0.0693443
-0.084388
-0.090045
-0.100116
-0.113019
-0.127449
-0.142425
-0.157265
-0.171531
-0.184956
-0.197358
-0.208625
-0.218695
-0.227531
-0.235113
-0.241428
-0.246476
-0.250258
-0.252777
-0.254036
-0.242693
-0.251378
-0.265657
-0.282852
-0.301089
-0.319196
-0.336479
-0.352654
-0.367518
-0.380988
-0.393039
-0.403677
-0.41292
-0.420787
-0.4273
-0.432481
-0.43635
-0.438921
-0.440204
-0.392548
-0.406567
-0.42782
-0.451434
-0.474833
-0.496829
-0.517022
-0.53532
-0.551717
-0.566283
-0.579112
-0.590297
-0.599918
-0.608044
-0.61473
-0.620024
-0.623964
-0.626575
-0.627875
-0.533881
-0.553199
-0.586846
-0.62005
-0.650021
-0.676504
-0.699816
-0.720227
-0.738065
-0.753617
-0.767115
-0.77875
-0.788668
-0.796984
-0.803788
-0.809153
-0.813133
-0.815764
-0.817072
224.525
222.166
217.512
210.561
201.357
189.96
176.449
160.92
143.494
124.317
103.561
81.4306
58.1213
34.4424
5.10191
0.599157
0.583976
0.568462
0.533187
0.486929
0.424049
0.329138
0.14809
197.385
195.281
191.14
184.958
176.781
166.667
154.693
140.952
125.559
108.649
90.381
70.9394
50.5013
29.7787
3.92183
0.369161
0.334368
0.31117
0.273439
0.223614
0.157333
0.0676951
-0.0481802
172.687
170.822
167.159
161.696
154.473
145.549
134.997
122.905
109.38
94.5437
78.5411
61.5367
43.6858
25.6031
2.91787
0.111213
0.0871581
0.0645518
0.0278637
-0.0192026
-0.0781239
-0.151101
-0.237436
150.146
148.504
145.287
140.488
134.15
126.326
117.087
106.513
94.7019
81.7657
67.8321
53.0468
37.5449
21.8585
2.07416
-0.131711
-0.151461
-0.172553
-0.206315
-0.249035
-0.301235
-0.364091
-0.437781
129.502
128.066
125.26
121.077
115.555
108.746
100.714
91.5354
81.2994
70.1062
58.0695
45.3169
31.9652
18.4787
1.36041
-0.364046
-0.380711
-0.400328
-0.430924
-0.469264
-0.51537
-0.569504
-0.631097
110.511
109.265
106.839
103.223
98.4552
92.581
85.6602
77.7648
68.9764
59.3863
49.0962
38.2184
26.8529
15.406
0.751502
-0.587803
-0.601489
-0.619497
-0.647057
-0.681215
-0.721581
-0.767888
-0.819348
92.9492
91.8783
89.8022
86.7131
82.6429
77.6326
71.7374
65.0243
57.5698
49.4587
40.7847
31.6482
22.1351
12.5989
0.230386
-0.803553
-0.814155
-0.83073
-0.855768
-0.886349
-0.921768
-0.961521
-1.00486
76.6062
75.6991
73.9491
71.3486
67.9255
63.7155
58.7681
53.1466
46.9235
40.1806
33.0068
25.4963
17.7255
10.0057
-0.21659
-1.01158
-1.01829
-1.03447
-1.05805
-1.08601
-1.11745
-1.1518
-1.18845
61.3195
60.5679
59.123
56.9744
54.149
50.6785
46.607
41.9931
36.9067
31.4286
25.6486
19.6613
13.5387
7.57514
-0.60417
-1.20844
-1.21257
-1.23115
-1.25496
-1.2815
-1.30995
-1.33985
-1.37084
47.0354
46.4196
45.2575
43.528
41.2546
38.4679
35.2063
31.5219
27.4806
23.1633
18.6684
14.109
9.57545
5.388
-0.912767
-1.37272
-1.39821
-1.42222
-1.44804
-1.47442
-1.50075
-1.52688
-1.55284
32.82
32.3162
31.4091
30.0677
28.3006
26.1346
23.6025
20.748
17.6279
14.3168
10.9199
7.58628
4.52921
2.38531
-1.47337
-1.58483
-1.58076
-1.61022
-1.63989
-1.66712
-1.69185
-1.7144
-1.73539
17.1776
16.8091
16.1434
15.1481
13.8386
12.2325
10.3539
8.23441
5.91508
3.45293
0.931554
-1.56744
-3.6443
-4.2301
-4.31662
-1.87059
-1.76249
-1.79771
-1.83342
-1.86275
-1.88587
-1.90416
-1.91948
13.5811
13.3486
12.9851
12.4238
11.6867
10.7839
9.72936
8.54247
7.2507
5.90108
4.54583
3.13215
2.03211
1.37955
-1.19135
-2.00635
-1.86433
-1.98626
-2.03444
-2.0665
-2.08644
-2.09814
-2.10596
34.8673
34.8523
34.8202
34.7735
34.7106
34.6313
34.5349
34.4195
34.2819
34.1137
33.9115
33.6976
33.3921
33.7107
19.5245
1.42343
-2.0469
-2.2324
-2.24391
-2.28731
-2.29819
-2.29802
-2.29507
-4.17381
-4.1686
-4.16221
-4.15235
-4.13916
-4.12266
-4.10288
-4.07989
-4.05393
-4.02551
-3.99505
-3.96726
-3.95188
-3.92119
-3.98307
-4.71664
-3.70739
-2.81763
-2.61873
-2.56183
-2.52753
-2.50341
-2.48527
-4.20194
-4.19835
-4.19175
-4.18187
-4.16864
-4.15203
-4.13203
-4.10861
-4.08181
-4.05162
-4.01814
-3.98392
-3.94433
-3.89464
-3.91786
-4.02115
-3.66047
-3.18181
-2.94921
-2.82465
-2.7518
-2.70465
-2.67163
-4.21852
-4.2151
-4.20832
-4.19815
-4.18454
-4.16743
-4.14674
-4.12237
-4.09419
-4.06193
-4.02536
-3.98441
-3.93507
-3.87925
-3.82812
-3.72267
-3.51682
-3.30423
-3.14521
-3.02989
-2.94881
-2.89095
-2.84852
-4.24139
-4.238
-4.23119
-4.22094
-4.20719
-4.18984
-4.16878
-4.14384
-4.11476
-4.08116
-4.0425
-3.99778
-3.94482
-3.8846
-3.81135
-3.70376
-3.55955
-3.41455
-3.29337
-3.19587
-3.11932
-3.05982
-3.01355
-4.26818
-4.2648
-4.25804
-4.24781
-4.23406
-4.21667
-4.19551
-4.17036
-4.14094
-4.10681
-4.06739
-4.02171
-3.96843
-3.90664
-3.83188
-3.73912
-3.63192
-3.52347
-3.42538
-3.34133
-3.27134
-3.21394
-3.1672
-4.29907
-4.29576
-4.28911
-4.27902
-4.26543
-4.24823
-4.22727
-4.20237
-4.17322
-4.13944
-4.10052
-4.05576
-4.00429
-3.94514
-3.87645
-3.79766
-3.71213
-3.62612
-3.54532
-3.47292
-3.40997
-3.35626
-3.31095
-4.33406
-4.33086
-4.32438
-4.31453
-4.30126
-4.28446
-4.26401
-4.23975
-4.21142
-4.17872
-4.14128
-4.09863
-4.0503
-3.99577
-3.9346
-3.86742
-3.79657
-3.72553
-3.65753
-3.59486
-3.53867
-3.48926
-3.4464
-4.3731
-4.37002
-4.36376
-4.35425
-4.34145
-4.32525
-4.30557
-4.28228
-4.25519
-4.2241
-4.18875
-4.14891
-4.10437
-4.05501
-4.001
-3.94314
-3.88306
-3.82289
-3.76471
-3.71008
-3.66002
-3.61498
-3.57503
-4.41598
-4.41302
-4.40703
-4.39796
-4.38575
-4.37034
-4.35164
-4.32956
-4.30401
-4.27484
-4.24194
-4.20522
-4.16465
-4.12035
-4.07269
-4.0224
-3.97067
-3.91888
-3.86844
-3.8205
-3.77586
-3.73501
-3.69812
-4.46247
-4.45966
-4.45398
-4.44541
-4.43389
-4.41937
-4.4018
-4.38113
-4.35728
-4.33022
-4.29992
-4.26637
-4.22969
-4.19008
-4.14795
-4.10393
-4.05889
-4.01382
-3.9697
-3.9274
-3.88754
-3.85056
-3.81671
-4.51239
-4.50974
-4.50441
-4.49637
-4.4856
-4.47205
-4.45569
-4.43651
-4.41447
-4.38958
-4.36189
-4.33145
-4.29842
-4.26306
-4.22575
-4.18702
-4.14752
-4.10799
-4.06914
-4.03165
-3.99601
-3.9626
-3.93166
-4.56557
-4.56308
-4.55811
-4.55064
-4.54063
-4.52809
-4.51298
-4.49531
-4.4751
-4.45238
-4.42722
-4.39973
-4.37009
-4.33855
-4.30546
-4.27125
-4.23644
-4.20159
-4.16724
-4.13391
-4.102
-4.07184
-4.04365
-4.62183
-4.61953
-4.61493
-4.60801
-4.59878
-4.58724
-4.57338
-4.55722
-4.5388
-4.51817
-4.49543
-4.47069
-4.44415
-4.41604
-4.38667
-4.35639
-4.32561
-4.29478
-4.26431
-4.23462
-4.20604
-4.17885
-4.15324
-4.68098
-4.67886
-4.67463
-4.66828
-4.65982
-4.64927
-4.63663
-4.62193
-4.60522
-4.58659
-4.56611
-4.54392
-4.52021
-4.49518
-4.4691
-4.44226
-4.415
-4.38767
-4.36061
-4.33415
-4.30855
-4.28407
-4.26086
-4.7428
-4.74087
-4.73701
-4.73122
-4.72351
-4.71391
-4.70245
-4.68915
-4.67408
-4.65731
-4.63894
-4.6191
-4.59796
-4.5757
-4.55255
-4.52876
-4.5046
-4.48037
-4.45633
-4.43274
-4.40984
-4.38783
-4.36686
-4.80707
-4.80532
-4.80181
-4.79656
-4.78959
-4.78092
-4.77057
-4.75861
-4.74507
-4.73005
-4.71364
-4.69596
-4.67715
-4.65739
-4.63687
-4.61581
-4.59442
-4.57294
-4.55159
-4.5306
-4.51015
-4.49042
-4.47154
-4.87355
-4.87197
-4.86881
-4.86409
-4.85782
-4.85003
-4.84075
-4.83004
-4.81795
-4.80455
-4.78995
-4.77425
-4.75758
-4.74009
-4.72195
-4.70333
-4.68442
-4.66542
-4.64651
-4.62787
-4.60967
-4.59204
-4.57512
-4.942
-4.94059
-4.93776
-4.93355
-4.92795
-4.921
-4.91273
-4.9032
-4.89246
-4.88059
-4.86766
-4.85379
-4.83908
-4.82366
-4.80767
-4.79128
-4.77462
-4.75787
-4.74117
-4.72469
-4.70855
-4.69289
-4.6778
-5.01222
-5.01096
-5.00846
-5.00472
-4.99976
-4.99361
-4.9863
-4.97788
-4.96841
-4.95796
-4.94659
-4.9344
-4.92149
-4.90797
-4.89396
-4.87959
-4.86499
-4.8503
-4.83564
-4.82114
-4.80693
-4.79309
-4.77973
-5.08398
-5.08288
-5.08068
-5.0774
-5.07304
-5.06765
-5.06125
-5.05389
-5.04561
-5.03648
-5.02656
-5.01594
-5.00469
-4.99292
-4.98073
-4.96823
-4.95553
-4.94274
-4.92996
-4.91731
-4.90489
-4.89277
-4.88104
-5.1571
-5.15615
-5.15424
-5.15139
-5.14762
-5.14295
-5.1374
-5.13103
-5.12388
-5.11599
-5.10742
-5.09826
-5.08856
-5.07843
-5.06793
-5.05716
-5.04622
-5.03519
-5.02418
-5.01326
-5.00251
-4.99202
-4.98184
-5.2314
-5.23059
-5.22895
-5.22652
-5.2233
-5.21931
-5.21458
-5.20915
-5.20305
-5.19633
-5.18905
-5.18125
-5.17301
-5.1644
-5.15549
-5.14634
-5.13705
-5.12768
-5.11831
-5.10902
-5.09987
-5.09092
-5.08222
-5.3067
-5.30601
-5.30465
-5.30261
-5.29991
-5.29657
-5.29262
-5.28808
-5.28299
-5.27738
-5.27131
-5.26481
-5.25795
-5.25077
-5.24335
-5.23574
-5.228
-5.22019
-5.21239
-5.20464
-5.19701
-5.18953
-5.18226
-5.38282
-5.38227
-5.38116
-5.3795
-5.37731
-5.37459
-5.37138
-5.3677
-5.36357
-5.35902
-5.35409
-5.34883
-5.34328
-5.33747
-5.33146
-5.32531
-5.31905
-5.31274
-5.30643
-5.30016
-5.29398
-5.28792
-5.28203
-5.45963
-5.45919
-5.45833
-5.45704
-5.45533
-5.45322
-5.45073
-5.44787
-5.44466
-5.44113
-5.43731
-5.43323
-5.42892
-5.42443
-5.41978
-5.41502
-5.41018
-5.40531
-5.40044
-5.3956
-5.39082
-5.38614
-5.38159
-5.53697
-5.53666
-5.53603
-5.5351
-5.53386
-5.53234
-5.53053
-5.52846
-5.52615
-5.5236
-5.52085
-5.51791
-5.51482
-5.51159
-5.50826
-5.50485
-5.50139
-5.49791
-5.49443
-5.49097
-5.48756
-5.48423
-5.48098
-5.61469
-5.6145
-5.6141
-5.61352
-5.61274
-5.61179
-5.61066
-5.60936
-5.60792
-5.60633
-5.60462
-5.6028
-5.60089
-5.5989
-5.59685
-5.59476
-5.59264
-5.59052
-5.5884
-5.5863
-5.58424
-5.58222
-5.58027
-5.69218
-5.69211
-5.69195
-5.69172
-5.69142
-5.69104
-5.6906
-5.6901
-5.68954
-5.68893
-5.68828
-5.68759
-5.68687
-5.68612
-5.68537
-5.6846
-5.68383
-5.68307
-5.68231
-5.68157
-5.68085
-5.68015
-5.67948
-0.196509
-0.266728
-0.349929
-0.452253
-0.224765
-0.352894
-0.45527
-0.550389
-0.360996
-0.479782
-0.577109
-0.663764
-0.530307
-0.626019
-0.711486
-0.78859
-0.70379
-0.781881
-0.855204
-0.922672
-0.878719
-0.943265
-1.00546
-1.06377
-1.0541
-1.10773
-1.16013
-1.21
-1.22948
-1.27401
-1.31783
-1.35996
-1.40489
-1.44153
-1.47765
-1.51264
-1.58059
-1.61002
-1.63901
-1.66729
-1.75694
-1.77938
-1.8015
-1.82329
-1.93431
-1.94951
-1.96471
-1.98012
-2.11283
-2.12014
-2.1282
-2.1372
-2.29209
-2.29064
-2.29128
-2.29388
-2.47065
-2.45986
-2.45302
-2.44938
-2.64575
-2.62611
-2.61229
-2.60288
-2.81435
-2.7876
-2.76791
-2.75353
-2.97468
-2.94309
-2.91901
-2.90068
-3.12643
-3.09212
-3.06511
-3.04391
-3.27017
-3.23478
-3.20615
-3.18308
-3.40682
-3.37154
-3.34231
-3.31822
-3.53735
-3.503
-3.47395
-3.44954
-3.66271
-3.62983
-3.60151
-3.5773
-3.78375
-3.75264
-3.72545
-3.70185
-3.90118
-3.87203
-3.8462
-3.8235
-4.01562
-3.98849
-3.96419
-3.94258
-4.12756
-4.10248
-4.07978
-4.05941
-4.23744
-4.21436
-4.19331
-4.17426
-4.34558
-4.32447
-4.30507
-4.28739
-4.45229
-4.43308
-4.41531
-4.39902
-4.55779
-4.54041
-4.52425
-4.50935
-4.66229
-4.64667
-4.63209
-4.61857
-4.76596
-4.75203
-4.73898
-4.72683
-4.86892
-4.85663
-4.84507
-4.83428
-4.9713
-4.96058
-4.95048
-4.94102
-5.0732
-5.06401
-5.05533
-5.04718
-5.17471
-5.16701
-5.15971
-5.15285
-5.2759
-5.26965
-5.26371
-5.25813
-5.37685
-5.37201
-5.36741
-5.36309
-5.47761
-5.47416
-5.47089
-5.46781
-5.57824
-5.57617
-5.57421
-5.57237
-5.67879
-5.6781
-5.67745
-5.67683
-0.584352
-0.656941
-0.711862
-0.755502
-0.791004
-0.820829
-0.846182
-0.867906
-0.8866
-0.902704
-0.916555
-0.928405
-0.938447
-0.946827
-0.953658
-0.95903
-0.963005
-0.965629
-0.966932
-0.662121
-0.748197
-0.809631
-0.857552
-0.895948
-0.927555
-0.954038
-0.976478
-0.99562
-1.012
-1.02601
-1.03794
-1.04801
-1.05639
-1.06321
-1.06856
-1.07252
-1.07513
-1.07642
-0.7627
-0.849322
-0.913462
-0.963562
-1.00358
-1.03628
-1.06346
-1.08632
-1.1057
-1.1222
-1.13625
-1.14818
-1.15822
-1.16656
-1.17333
-1.17863
-1.18255
-1.18513
-1.18641
-0.876411
-0.959415
-1.02326
-1.07365
-1.11411
-1.14716
-1.17454
-1.1975
-1.21689
-1.23334
-1.24731
-1.25914
-1.26908
-1.27732
-1.284
-1.28923
-1.29309
-1.29563
-1.29689
-1.00043
-1.07736
-1.13859
-1.18773
-1.22756
-1.26023
-1.28734
-1.31005
-1.3292
-1.34543
-1.35919
-1.37083
-1.38059
-1.38868
-1.39523
-1.40035
-1.40413
-1.40661
-1.40785
-1.13199
-1.2017
-1.25884
-1.30553
-1.34383
-1.37547
-1.40183
-1.42396
-1.44264
-1.45847
-1.47189
-1.48323
-1.49274
-1.50062
-1.507
-1.51199
-1.51566
-1.51808
-1.51928
-1.26915
-1.33119
-1.38329
-1.42666
-1.46271
-1.49277
-1.51796
-1.5392
-1.55718
-1.57243
-1.58538
-1.59633
-1.60552
-1.61313
-1.6193
-1.62412
-1.62768
-1.63001
-1.63118
-1.41054
-1.46474
-1.51127
-1.55069
-1.58393
-1.61194
-1.63562
-1.65569
-1.67275
-1.68728
-1.69964
-1.7101
-1.7189
-1.72619
-1.73211
-1.73674
-1.74015
-1.7424
-1.74351
-1.55509
-1.60147
-1.64212
-1.67718
-1.70719
-1.73281
-1.75466
-1.77333
-1.7893
-1.80296
-1.81461
-1.82452
-1.83286
-1.83979
-1.84541
-1.84982
-1.85307
-1.85522
-1.85628
-1.70194
-1.74061
-1.77523
-1.80568
-1.83218
-1.85513
-1.87493
-1.89201
-1.90673
-1.9194
-1.93026
-1.93953
-1.94736
-1.95388
-1.95918
-1.96334
-1.96642
-1.96845
-1.96946
-1.85041
-1.88149
-1.91004
-1.93574
-1.95857
-1.97866
-1.99626
-2.0116
-2.02495
-2.03653
-2.04653
-2.05509
-2.06236
-2.06843
-2.07339
-2.07728
-2.08017
-2.08207
-2.08301
-1.99986
-2.02351
-2.04604
-2.06697
-2.08603
-2.10317
-2.11844
-2.13196
-2.14386
-2.15427
-2.16333
-2.17115
-2.17782
-2.18341
-2.188
-2.19161
-2.19429
-2.19606
-2.19694
-2.1497
-2.1661
-2.18276
-2.19896
-2.21426
-2.22841
-2.24131
-2.25294
-2.26333
-2.27253
-2.28062
-2.28765
-2.29369
-2.29879
-2.30297
-2.30629
-2.30875
-2.31038
-2.31119
-2.2993
-2.30874
-2.31973
-2.33134
-2.34295
-2.35415
-2.36467
-2.37439
-2.38325
-2.39122
-2.39831
-2.40454
-2.40993
-2.4145
-2.41829
-2.42129
-2.42353
-2.42502
-2.42576
-2.44803
-2.45089
-2.45652
-2.46376
-2.47183
-2.48015
-2.48834
-2.49618
-2.50351
-2.51024
-2.51633
-2.52174
-2.52647
-2.53053
-2.5339
-2.53659
-2.5386
-2.53995
-2.54061
-2.5953
-2.59204
-2.59275
-2.5959
-2.60062
-2.6062
-2.61216
-2.61817
-2.62401
-2.62951
-2.6346
-2.6392
-2.64328
-2.64681
-2.64977
-2.65215
-2.65393
-2.65513
-2.65572
-2.74051
-2.73183
-2.72802
-2.72747
-2.7291
-2.73213
-2.73597
-2.74023
-2.74462
-2.74895
-2.75306
-2.75687
-2.7603
-2.76331
-2.76586
-2.76793
-2.76949
-2.77053
-2.77106
-2.88316
-2.86985
-2.86209
-2.85822
-2.85704
-2.85774
-2.85962
-2.86224
-2.86527
-2.86846
-2.87164
-2.87468
-2.87749
-2.87999
-2.88214
-2.8839
-2.88524
-2.88614
-2.88659
-3.02291
-3.00582
-2.99473
-2.98797
-2.98432
-2.98289
-2.98298
-2.98409
-2.98585
-2.98798
-2.99028
-2.99258
-2.99479
-2.99681
-2.99857
-3.00003
-3.00116
-3.00192
-3.0023
-3.15958
-3.13955
-3.12575
-3.11656
-3.11077
-3.10747
-3.10595
-3.10569
-3.10629
-3.10744
-3.10891
-3.11053
-3.11216
-3.11372
-3.11512
-3.1163
-3.11721
-3.11784
-3.11816
-3.29313
-3.27096
-3.25504
-3.24387
-3.23628
-3.23138
-3.22845
-3.22697
-3.22651
-3.22677
-3.22748
-3.22846
-3.22957
-3.2307
-3.23175
-3.23266
-3.23338
-3.23388
-3.23414
-3.42361
-3.40002
-3.38255
-3.36983
-3.36078
-3.35454
-3.35041
-3.34786
-3.34647
-3.34592
-3.34595
-3.34635
-3.34698
-3.3477
-3.34843
-3.3491
-3.34964
-3.35002
-3.35021
-3.55117
-3.52679
-3.50828
-3.49442
-3.48423
-3.4769
-3.47176
-3.46831
-3.46611
-3.46486
-3.46427
-3.46415
-3.46435
-3.46471
-3.46515
-3.46558
-3.46595
-3.46622
-3.46636
-3.67599
-3.65137
-3.63226
-3.61763
-3.6066
-3.59842
-3.59248
-3.58827
-3.5854
-3.58354
-3.58242
-3.58185
-3.58165
-3.58169
-3.58186
-3.58209
-3.58231
-3.58248
-3.58257
-3.79831
-3.77387
-3.75456
-3.73949
-3.7279
-3.7191
-3.71254
-3.70773
-3.7043
-3.70193
-3.70037
-3.6994
-3.69886
-3.69861
-3.69855
-3.6986
-3.69868
-3.69876
-3.6988
-3.91836
-3.89445
-3.87525
-3.86004
-3.84814
-3.83893
-3.83192
-3.82667
-3.8228
-3.82003
-3.81809
-3.81679
-3.81596
-3.81547
-3.81521
-3.81509
-3.81505
-3.81505
-3.81506
-4.03635
-4.01325
-3.99446
-3.97935
-3.96735
-3.95794
-3.95065
-3.94508
-3.94089
-3.9378
-3.93557
-3.93401
-3.93294
-3.93224
-3.93181
-3.93156
-3.93141
-3.93135
-3.93132
-4.15251
-4.13045
-4.11227
-4.09748
-4.08559
-4.07614
-4.06871
-4.06296
-4.05856
-4.05525
-4.0528
-4.05103
-4.04978
-4.04892
-4.04834
-4.04797
-4.04775
-4.04762
-4.04756
-4.26705
-4.24619
-4.22881
-4.21452
-4.2029
-4.19356
-4.18615
-4.18033
-4.17582
-4.17237
-4.16978
-4.16786
-4.16647
-4.16548
-4.1648
-4.16434
-4.16404
-4.16387
-4.16379
-4.38015
-4.36062
-4.34419
-4.33055
-4.31935
-4.31027
-4.30298
-4.2972
-4.29267
-4.28917
-4.2865
-4.28449
-4.28301
-4.28193
-4.28116
-4.28064
-4.28029
-4.28008
-4.27998
-4.49201
-4.47389
-4.45852
-4.44565
-4.435
-4.42629
-4.41924
-4.4136
-4.40914
-4.40565
-4.40297
-4.40092
-4.39939
-4.39826
-4.39744
-4.39687
-4.39649
-4.39625
-4.39614
-4.60276
-4.58613
-4.57191
-4.55992
-4.54992
-4.54168
-4.53496
-4.52955
-4.52524
-4.52184
-4.51919
-4.51716
-4.51562
-4.51447
-4.51363
-4.51303
-4.51262
-4.51237
-4.51226
-4.71257
-4.69747
-4.68447
-4.67343
-4.66417
-4.65649
-4.65019
-4.64508
-4.64098
-4.63773
-4.63518
-4.63321
-4.63169
-4.63056
-4.62972
-4.62911
-4.6287
-4.62845
-4.62833
-4.82156
-4.80801
-4.79629
-4.78628
-4.77783
-4.77079
-4.76497
-4.76024
-4.75641
-4.75336
-4.75095
-4.74907
-4.74763
-4.74653
-4.74571
-4.74513
-4.74472
-4.74447
-4.74435
-4.92984
-4.91787
-4.90746
-4.89853
-4.89096
-4.88461
-4.87935
-4.87504
-4.87155
-4.86875
-4.86652
-4.86478
-4.86343
-4.8624
-4.86163
-4.86107
-4.86068
-4.86044
-4.86033
-5.03752
-5.02715
-5.01808
-5.01027
-5.00362
-4.99803
-4.99337
-4.98954
-4.98642
-4.98391
-4.98191
-4.98033
-4.97911
-4.97817
-4.97746
-4.97695
-4.97659
-4.97637
-4.97626
-5.14471
-5.13593
-5.12823
-5.12157
-5.11589
-5.11108
-5.10708
-5.10377
-5.10107
-5.09888
-5.09713
-5.09575
-5.09467
-5.09384
-5.09322
-5.09276
-5.09244
-5.09224
-5.09215
-5.25148
-5.2443
-5.23799
-5.23251
-5.22782
-5.22385
-5.22052
-5.21777
-5.21551
-5.21369
-5.21222
-5.21106
-5.21015
-5.20945
-5.20891
-5.20853
-5.20825
-5.20808
-5.208
-5.35793
-5.35235
-5.34743
-5.34315
-5.33948
-5.33636
-5.33375
-5.33158
-5.3298
-5.32835
-5.32719
-5.32627
-5.32554
-5.32498
-5.32456
-5.32424
-5.32403
-5.32389
-5.32382
-5.46413
-5.46015
-5.45663
-5.45357
-5.45093
-5.44869
-5.44681
-5.44525
-5.44396
-5.44291
-5.44207
-5.4414
-5.44087
-5.44046
-5.44016
-5.43993
-5.43977
-5.43967
-5.43962
-5.57017
-5.56778
-5.56566
-5.56382
-5.56224
-5.56089
-5.55975
-5.55881
-5.55803
-5.5574
-5.55689
-5.55648
-5.55616
-5.55591
-5.55572
-5.55558
-5.55549
-5.55542
-5.5554
-5.6761
-5.67531
-5.6746
-5.67399
-5.67346
-5.67301
-5.67263
-5.67231
-5.67205
-5.67184
-5.67166
-5.67153
-5.67142
-5.67134
-5.67127
-5.67122
-5.67119
-5.67117
-5.67116
)
;

boundaryField
{
    leftWall
    {
        type            calculated;
        value           nonuniform List<scalar> 
50
(
1006
847.602
709.292
589.859
487.672
400.859
327.47
265.596
224.525
197.385
172.687
150.146
129.502
110.511
92.9492
76.6062
61.3195
47.0354
32.82
17.1776
13.5811
34.8673
-4.17381
-4.20194
-4.21852
-4.24139
-4.26818
-4.29907
-4.33406
-4.3731
-4.41598
-4.46247
-4.51239
-4.56557
-4.62183
-4.68098
-4.7428
-4.80707
-4.87355
-4.942
-5.01222
-5.08398
-5.1571
-5.2314
-5.3067
-5.38282
-5.45963
-5.53697
-5.61469
-5.69218
)
;
    }
    rightWall
    {
        type            calculated;
        value           nonuniform List<scalar> 
50
(
0.476143
0.295723
0.1139
-0.0693443
-0.254036
-0.440204
-0.627875
-0.817072
-0.966932
-1.07642
-1.18641
-1.29689
-1.40785
-1.51928
-1.63118
-1.74351
-1.85628
-1.96946
-2.08301
-2.19694
-2.31119
-2.42576
-2.54061
-2.65572
-2.77106
-2.88659
-3.0023
-3.11816
-3.23414
-3.35021
-3.46636
-3.58257
-3.6988
-3.81506
-3.93132
-4.04756
-4.16379
-4.27998
-4.39614
-4.51226
-4.62833
-4.74435
-4.86033
-4.97626
-5.09215
-5.208
-5.32382
-5.43962
-5.5554
-5.67116
)
;
    }
    lowerWall
    {
        type            calculated;
        value           nonuniform List<scalar> 
62
(
1095.52
1089.57
1077.42
1059
1034.12
1002.49
963.701
917.22
862.339
798.107
723.217
635.925
532.886
415.45
265.991
74.5629
8.82457
5.09941
4.75917
4.5898
4.44811
4.36234
4.32222
4.23271
3.8761
3.40886
2.9071
2.39371
1.87057
1.32654
0.735192
-0.145357
-0.215575
-0.298777
-0.401101
0.598856
0.422702
0.249677
0.0803232
-0.084388
-0.242693
-0.392548
-0.533881
0.688373
0.685876
0.681061
0.674271
0.665933
0.656499
0.646405
0.636043
0.625751
0.615802
0.606415
0.597763
0.589978
0.583163
0.577395
0.57273
0.569205
0.566844
0.565659
)
;
    }
    atmosphere
    {
        type            calculated;
        value           nonuniform List<scalar> 
46
(
-5.73063
-5.73062
-5.73059
-5.73055
-5.73049
-5.73042
-5.73034
-5.73025
-5.73015
-5.73005
-5.72994
-5.72984
-5.72973
-5.72963
-5.72953
-5.72944
-5.72936
-5.72929
-5.72922
-5.72917
-5.72912
-5.72909
-5.72906
-5.72905
-5.72904
-5.72904
-5.72904
-5.72904
-5.72904
-5.72904
-5.72904
-5.72904
-5.72904
-5.72904
-5.72904
-5.72904
-5.72904
-5.72904
-5.72904
-5.72904
-5.72904
-5.72904
-5.72904
-5.72904
-5.72904
-5.72904
)
;
    }
    defaultFaces
    {
        type            empty;
    }
}


// ************************************************************************* //
