/*--------------------------------*- C++ -*----------------------------------*\
| =========                 |                                                 |
| \\      /  F ield         | OpenFOAM: The Open Source CFD Toolbox           |
|  \\    /   O peration     | Version:  2206                                  |
|   \\  /    A nd           | Website:  www.openfoam.com                      |
|    \\/     M anipulation  |                                                 |
\*---------------------------------------------------------------------------*/
FoamFile
{
    version     2.0;
    format      ascii;
    arch        "LSB;label=32;scalar=64";
    class       surfaceScalarField;
    location    "0.025";
    object      phi;
}
// * * * * * * * * * * * * * * * * * * * * * * * * * * * * * * * * * * * * * //

dimensions      [0 3 -1 0 0 0 0];

oriented        oriented;

internalField   nonuniform List<scalar> 
4432
(
4.26686e-06
-4.26686e-06
8.62584e-06
-4.35905e-06
1.3055e-05
-4.42925e-06
1.76292e-05
-4.57413e-06
2.24098e-05
-4.78062e-06
2.74702e-05
-5.06042e-06
3.29025e-05
-5.4323e-06
3.88266e-05
-5.92412e-06
4.54044e-05
-6.57775e-06
5.28613e-05
-7.45684e-06
6.15209e-05
-8.6596e-06
7.18575e-05
-1.03366e-05
8.46108e-05
-1.27533e-05
0.000100694
-1.60837e-05
0.000122102
-2.14077e-05
0.000154286
-3.21841e-05
0.000160678
-6.39192e-06
0.000136336
2.43399e-05
0.000101174
3.51626e-05
6.92448e-05
3.19311e-05
4.32792e-05
2.59651e-05
2.0846e-05
2.24324e-05
2.08458e-05
4.10233e-06
-8.36919e-06
8.28115e-06
-8.53788e-06
1.25148e-05
-8.66298e-06
1.68623e-05
-8.92164e-06
2.1368e-05
-9.28628e-06
2.60804e-05
-9.77288e-06
3.10543e-05
-1.04062e-05
3.63506e-05
-1.12203e-05
4.20354e-05
-1.22625e-05
4.8176e-05
-1.35974e-05
5.48304e-05
-1.53141e-05
6.20269e-05
-1.75332e-05
6.9709e-05
-2.04353e-05
7.77474e-05
-2.41222e-05
8.56748e-05
-2.9335e-05
9.20881e-05
-3.85974e-05
9.23917e-05
-6.69457e-06
7.59562e-05
4.0776e-05
6.01134e-05
5.10046e-05
4.60716e-05
4.59711e-05
3.10206e-05
4.10154e-05
1.55146e-05
3.79409e-05
3.63616e-05
3.80429e-06
-1.21735e-05
7.66068e-06
-1.23943e-05
1.15499e-05
-1.25521e-05
1.55084e-05
-1.28801e-05
1.9559e-05
-1.33369e-05
2.37229e-05
-1.39368e-05
2.80179e-05
-1.47011e-05
3.24554e-05
-1.56579e-05
3.70352e-05
-1.68423e-05
4.17359e-05
-1.82981e-05
4.64999e-05
-2.00781e-05
5.12086e-05
-2.22418e-05
5.56323e-05
-2.48591e-05
5.94289e-05
-2.79189e-05
6.18073e-05
-3.17134e-05
6.23165e-05
-3.91067e-05
4.29223e-05
1.27e-05
3.16877e-05
5.2011e-05
2.98406e-05
5.28519e-05
2.54569e-05
5.03546e-05
1.82326e-05
4.82391e-05
9.43188e-06
4.67401e-05
4.57939e-05
3.42133e-06
-1.55949e-05
6.86923e-06
-1.58422e-05
1.03292e-05
-1.60121e-05
1.38168e-05
-1.63676e-05
1.7337e-05
-1.68571e-05
2.08906e-05
-1.74904e-05
2.44717e-05
-1.82823e-05
2.80647e-05
-1.92508e-05
3.16389e-05
-2.04166e-05
3.51429e-05
-2.18022e-05
3.84955e-05
-2.34307e-05
4.15755e-05
-2.53217e-05
4.42062e-05
-2.74899e-05
4.6177e-05
-2.98897e-05
4.71492e-05
-3.26856e-05
4.7268e-05
-3.92256e-05
2.96811e-05
3.02874e-05
2.49493e-05
5.67421e-05
2.19114e-05
5.58889e-05
1.78184e-05
5.44485e-05
1.25795e-05
5.34786e-05
6.49167e-06
5.28277e-05
5.22865e-05
3.00066e-06
-1.85955e-05
6.00662e-06
-1.88482e-05
9.00946e-06
-1.9015e-05
1.20085e-05
-1.93667e-05
1.49974e-05
-1.9846e-05
1.79656e-05
-2.04585e-05
2.08958e-05
-2.12126e-05
2.37624e-05
-2.21175e-05
2.65285e-05
-2.31826e-05
2.9143e-05
-2.44168e-05
3.15383e-05
-2.58259e-05
3.36274e-05
-2.74109e-05
3.53043e-05
-2.91668e-05
3.64634e-05
-3.10488e-05
3.69657e-05
-3.31879e-05
3.68416e-05
-3.91018e-05
2.27509e-05
4.43787e-05
2.03554e-05
5.91395e-05
1.7945e-05
5.82988e-05
1.4534e-05
5.78583e-05
1.02656e-05
5.77476e-05
5.31342e-06
5.77803e-05
5.75996e-05
2.57935e-06
-2.11749e-05
5.14899e-06
-2.14178e-05
7.7064e-06
-2.15723e-05
1.02405e-05
-2.19007e-05
1.2739e-05
-2.23446e-05
1.51865e-05
-2.2906e-05
1.75625e-05
-2.35886e-05
1.98408e-05
-2.43957e-05
2.1988e-05
-2.53299e-05
2.39634e-05
-2.63921e-05
2.5718e-05
-2.75803e-05
2.71957e-05
-2.88886e-05
2.83355e-05
-3.03065e-05
2.90851e-05
-3.17984e-05
2.93771e-05
-3.34798e-05
2.91095e-05
-3.88344e-05
2.05362e-05
5.29522e-05
1.88279e-05
6.08465e-05
1.69003e-05
6.02252e-05
1.41194e-05
6.06397e-05
1.03577e-05
6.15113e-05
5.56225e-06
6.2577e-05
6.31614e-05
2.18203e-06
-2.33569e-05
4.34526e-06
-2.35811e-05
6.49205e-06
-2.37191e-05
8.60586e-06
-2.40145e-05
1.06724e-05
-2.44111e-05
1.26751e-05
-2.49087e-05
1.45943e-05
-2.55078e-05
1.64069e-05
-2.62084e-05
1.80862e-05
-2.70092e-05
1.96016e-05
-2.79074e-05
2.09192e-05
-2.88981e-05
2.20039e-05
-2.99733e-05
2.28197e-05
-3.11223e-05
2.33401e-05
-3.23188e-05
2.35214e-05
-3.36612e-05
2.31361e-05
-3.84492e-05
1.97982e-05
5.629e-05
1.9474e-05
6.11709e-05
1.87821e-05
6.09149e-05
1.71916e-05
6.22296e-05
1.41689e-05
6.45342e-05
8.98177e-06
6.77628e-05
7.21415e-05
1.8228e-06
-2.51797e-05
3.62264e-06
-2.53809e-05
5.40529e-06
-2.55018e-05
7.1522e-06
-2.57614e-05
8.84925e-06
-2.61081e-05
1.0481e-05
-2.65403e-05
1.20301e-05
-2.70569e-05
1.34775e-05
-2.76558e-05
1.48022e-05
-2.83339e-05
1.59818e-05
-2.9087e-05
1.69929e-05
-2.99093e-05
1.7813e-05
-3.07933e-05
1.84207e-05
-3.173e-05
1.88137e-05
-3.27118e-05
1.89287e-05
-3.37762e-05
1.9286e-05
-3.88065e-05
1.96321e-05
5.59444e-05
2.18609e-05
5.89441e-05
2.39109e-05
5.88666e-05
2.53088e-05
6.08329e-05
2.48598e-05
6.49847e-05
1.95339e-05
7.30896e-05
9.16748e-05
9.88623e-07
-9.88623e-07
1.9031e-06
-9.15302e-07
2.68156e-06
-7.78993e-07
3.29068e-06
-6.09598e-07
3.72007e-06
-4.29835e-07
3.97691e-06
-2.56955e-07
4.07817e-06
-1.01476e-07
4.04675e-06
3.13503e-08
3.90813e-06
1.38272e-07
3.68341e-06
2.24642e-07
3.39148e-06
2.92111e-07
3.04777e-06
3.4348e-07
2.66538e-06
3.81944e-07
2.25501e-06
4.10488e-07
1.82439e-06
4.31246e-07
1.37909e-06
4.45709e-07
9.23852e-07
4.55246e-07
4.62898e-07
4.61142e-07
4.63663e-07
1.07731e-06
-2.06684e-06
2.06196e-06
-1.90087e-06
2.88121e-06
-1.59887e-06
3.50371e-06
-1.23263e-06
3.92565e-06
-8.52373e-07
4.16216e-06
-4.93584e-07
4.23677e-06
-1.76275e-07
4.17884e-06
8.92147e-08
4.01519e-06
3.0174e-07
3.76827e-06
4.7132e-07
3.45729e-06
6.0268e-07
3.0981e-06
7.02466e-07
2.70357e-06
7.76937e-07
2.28344e-06
8.31464e-07
1.84471e-06
8.70539e-07
1.39284e-06
8.97836e-07
9.32497e-07
9.16173e-07
4.67385e-07
9.27468e-07
9.31373e-07
1.27508e-06
-3.34246e-06
2.40789e-06
-3.03398e-06
3.30541e-06
-2.49679e-06
3.94549e-06
-1.87304e-06
4.3424e-06
-1.24945e-06
4.52949e-06
-6.80801e-07
4.54448e-06
-1.91033e-07
4.42951e-06
2.04188e-07
4.21322e-06
5.176e-07
3.92114e-06
7.63181e-07
3.57309e-06
9.50814e-07
3.18427e-06
1.09136e-06
2.76646e-06
1.19485e-06
2.32836e-06
1.26992e-06
1.87599e-06
1.32346e-06
1.41379e-06
1.3606e-06
9.45371e-07
1.38519e-06
4.73369e-07
1.4e-06
1.40483e-06
1.63939e-06
-4.98198e-06
3.02096e-06
-4.4156e-06
4.02767e-06
-3.50391e-06
4.6696e-06
-2.51534e-06
5.00258e-06
-1.58213e-06
5.09549e-06
-7.73546e-07
5.00623e-06
-1.01619e-07
4.79861e-06
4.11399e-07
4.50071e-06
8.15149e-07
4.14048e-06
1.12329e-06
3.73727e-06
1.35361e-06
3.30511e-06
1.52302e-06
2.8541e-06
1.64598e-06
2.39083e-06
1.73398e-06
1.91933e-06
1.7957e-06
1.44248e-06
1.83771e-06
9.62644e-07
1.86506e-06
4.81384e-07
1.88143e-06
1.88635e-06
2.29674e-06
-7.27878e-06
4.05602e-06
-6.17516e-06
5.1721e-06
-4.62003e-06
5.75244e-06
-3.09546e-06
5.94051e-06
-1.77078e-06
5.86266e-06
-6.96062e-07
5.61943e-06
1.41573e-07
5.27374e-06
7.5707e-07
4.86157e-06
1.22715e-06
4.40978e-06
1.57451e-06
3.9352e-06
1.82742e-06
3.4487e-06
2.00935e-06
2.95683e-06
2.13855e-06
2.46286e-06
2.22879e-06
1.96834e-06
2.29041e-06
1.47438e-06
2.33133e-06
9.81742e-07
2.35755e-06
4.90333e-07
2.37313e-06
2.37694e-06
3.54132e-06
-1.08201e-05
5.81216e-06
-8.44604e-06
6.93533e-06
-5.74383e-06
7.28896e-06
-3.44917e-06
7.18592e-06
-1.66774e-06
6.82482e-06
-3.34497e-07
6.36017e-06
6.06373e-07
5.82656e-06
1.29031e-06
5.2684e-06
1.78475e-06
4.70553e-06
2.13687e-06
4.14777e-06
2.385e-06
3.5996e-06
2.55787e-06
3.06219e-06
2.67653e-06
2.53478e-06
2.75632e-06
2.0161e-06
2.80867e-06
1.50498e-06
2.84213e-06
9.99915e-07
2.86284e-06
4.98822e-07
2.87474e-06
2.87592e-06
5.84561e-06
-1.66658e-05
8.81647e-06
-1.14173e-05
9.58835e-06
-6.51504e-06
9.3592e-06
-3.21992e-06
8.71626e-06
-1.02476e-06
7.95282e-06
4.28933e-07
7.17208e-06
1.38694e-06
6.40756e-06
2.05461e-06
5.68086e-06
2.51127e-06
4.99579e-06
2.82176e-06
4.34985e-06
3.03086e-06
3.73825e-06
3.1695e-06
3.1554e-06
3.25924e-06
2.59592e-06
3.31538e-06
2.05518e-06
3.34904e-06
1.52916e-06
3.36831e-06
1.01381e-06
3.37875e-06
5.05081e-07
3.38387e-06
3.38082e-06
1.17229e-05
-2.8389e-05
1.42727e-05
-1.39665e-05
1.3435e-05
-5.67756e-06
1.19189e-05
-1.7047e-06
1.04357e-05
4.58186e-07
9.12694e-06
1.73808e-06
7.96339e-06
2.55089e-06
6.9445e-06
3.07354e-06
6.04481e-06
3.41062e-06
5.24055e-06
3.62548e-06
4.51203e-06
3.7589e-06
3.84319e-06
3.83791e-06
3.22104e-06
3.88086e-06
2.63527e-06
3.90064e-06
2.07771e-06
3.90653e-06
1.54137e-06
3.90515e-06
1.01979e-06
3.90082e-06
5.07279e-07
3.89625e-06
3.88757e-06
8.97102e-07
-2.60768e-05
1.78046e-06
-2.62642e-05
2.65471e-06
-2.6376e-05
3.50922e-06
-2.66159e-05
4.33644e-06
-2.69353e-05
5.12843e-06
-2.73324e-05
5.87656e-06
-2.78051e-05
6.57157e-06
-2.83508e-05
7.2035e-06
-2.89659e-05
7.76207e-06
-2.96456e-05
8.2368e-06
-3.0384e-05
8.61726e-06
-3.11737e-05
8.89372e-06
-3.20065e-05
9.04487e-06
-3.2863e-05
9.10073e-06
-3.38321e-05
8.1822e-06
-3.78881e-05
1.08973e-05
5.32276e-05
1.37748e-05
5.60634e-05
1.70444e-05
5.55961e-05
2.13446e-05
5.6531e-05
2.81539e-05
5.81733e-05
4.15823e-05
5.96607e-05
5.98387e-05
7.34173e-05
8.00672e-07
-2.68775e-05
1.58749e-06
-2.70511e-05
2.366e-06
-2.71545e-05
3.1258e-06
-2.73757e-05
3.85996e-06
-2.76695e-05
4.56119e-06
-2.80336e-05
5.22189e-06
-2.84657e-05
5.83377e-06
-2.89627e-05
6.3883e-06
-2.95204e-05
6.87669e-06
-3.0134e-05
7.29014e-06
-3.07975e-05
7.62001e-06
-3.15036e-05
7.8581e-06
-3.22446e-05
7.99791e-06
-3.30028e-05
8.03673e-06
-3.38709e-05
7.87168e-06
-3.77233e-05
1.07681e-05
5.03331e-05
1.43656e-05
5.24659e-05
1.86048e-05
5.13573e-05
2.42157e-05
5.09212e-05
3.22701e-05
5.01186e-05
4.38908e-05
4.80395e-05
4.41192e-05
5.96112e-05
7.11422e-07
-2.75889e-05
1.40932e-06
-2.7749e-05
2.09986e-06
-2.7845e-05
2.77317e-06
-2.8049e-05
3.42298e-06
-2.83192e-05
4.04271e-06
-2.86534e-05
4.6257e-06
-2.90487e-05
5.1647e-06
-2.95017e-05
5.65237e-06
-3.00081e-05
6.08112e-06
-3.05628e-05
6.44346e-06
-3.11598e-05
6.73223e-06
-3.17924e-05
6.94099e-06
-3.24534e-05
7.06619e-06
-3.31281e-05
7.09917e-06
-3.39039e-05
6.94656e-06
-3.75707e-05
1.03219e-05
4.69578e-05
1.40464e-05
4.87405e-05
1.82067e-05
4.7196e-05
2.31276e-05
4.60006e-05
2.90024e-05
4.42437e-05
3.57414e-05
4.13003e-05
3.65105e-05
4.33499e-05
6.2889e-07
-2.82178e-05
1.24488e-06
-2.8365e-05
1.85459e-06
-2.84547e-05
2.44885e-06
-2.86432e-05
3.02202e-06
-2.88924e-05
3.56848e-06
-2.91999e-05
4.08233e-06
-2.95625e-05
4.55731e-06
-2.99767e-05
4.98714e-06
-3.04379e-05
5.36522e-06
-3.09408e-05
5.68497e-06
-3.14796e-05
5.94013e-06
-3.20476e-05
6.12506e-06
-3.26383e-05
6.23645e-06
-3.32395e-05
6.26344e-06
-3.39308e-05
6.08517e-06
-3.73924e-05
9.44799e-06
4.35947e-05
1.30468e-05
4.51404e-05
1.67764e-05
4.34656e-05
2.07934e-05
4.19826e-05
2.50948e-05
3.99421e-05
2.94313e-05
3.69632e-05
3.27721e-05
3.31699e-05
5.52456e-07
-2.87703e-05
1.09276e-06
-2.89053e-05
1.62801e-06
-2.89899e-05
2.14976e-06
-2.91649e-05
2.65318e-06
-2.93959e-05
3.13351e-06
-2.96802e-05
3.58562e-06
-3.00147e-05
4.00428e-06
-3.03954e-05
4.38408e-06
-3.08177e-05
4.71926e-06
-3.1276e-05
5.00395e-06
-3.17642e-05
5.23222e-06
-3.22759e-05
5.39839e-06
-3.28045e-05
5.4987e-06
-3.33398e-05
5.52073e-06
-3.39528e-05
5.32798e-06
-3.71997e-05
8.51061e-06
4.04121e-05
1.18035e-05
4.18472e-05
1.50361e-05
4.02327e-05
1.82853e-05
3.87313e-05
2.14879e-05
3.67388e-05
2.43948e-05
3.40576e-05
3.0623e-05
2.65438e-05
4.8141e-07
-2.92518e-05
9.51398e-07
-2.93753e-05
1.41772e-06
-2.94562e-05
1.87259e-06
-2.96198e-05
2.31213e-06
-2.98354e-05
2.73236e-06
-3.01004e-05
3.12909e-06
-3.04114e-05
3.49806e-06
-3.07644e-05
3.8347e-06
-3.11543e-05
4.13401e-06
-3.15753e-05
4.39066e-06
-3.20209e-05
4.59874e-06
-3.24839e-05
4.75189e-06
-3.29577e-05
4.84502e-06
-3.34329e-05
4.86307e-06
-3.39709e-05
4.66824e-06
-3.70049e-05
7.61695e-06
3.7463e-05
1.05482e-05
3.89153e-05
1.3285e-05
3.74951e-05
1.58751e-05
3.61409e-05
1.82615e-05
3.43527e-05
2.02855e-05
3.20335e-05
2.92009e-05
2.17078e-05
4.14919e-07
-2.96667e-05
8.19185e-07
-2.97796e-05
1.22114e-06
-2.98581e-05
1.61387e-06
-3.00126e-05
1.99433e-06
-3.02159e-05
2.3594e-06
-3.04655e-05
2.70597e-06
-3.0758e-05
3.03078e-06
-3.10892e-05
3.33023e-06
-3.14537e-05
3.60024e-06
-3.18453e-05
3.83588e-06
-3.22565e-05
4.03108e-06
-3.26791e-05
4.17833e-06
-3.31049e-05
4.27017e-06
-3.35247e-05
4.28515e-06
-3.39858e-05
4.10421e-06
-3.68238e-05
6.86492e-06
3.47019e-05
9.44119e-06
3.63388e-05
1.1706e-05
3.52299e-05
1.37223e-05
3.41233e-05
1.54807e-05
3.25945e-05
1.69076e-05
3.0607e-05
2.82211e-05
1.78873e-05
3.52133e-07
-3.00189e-05
6.94425e-07
-3.0122e-05
1.03573e-06
-3.01994e-05
1.37007e-06
-3.03469e-05
1.69518e-06
-3.0541e-05
2.0089e-06
-3.07793e-05
2.30923e-06
-3.10584e-05
2.59415e-06
-3.13741e-05
2.86134e-06
-3.17209e-05
3.10803e-06
-3.2092e-05
3.33011e-06
-3.24786e-05
3.5213e-06
-3.28704e-05
3.67215e-06
-3.32557e-05
3.77181e-06
-3.36243e-05
3.78379e-06
-3.39978e-05
3.61548e-06
-3.66553e-05
6.40049e-06
3.19157e-05
8.63259e-06
3.41053e-05
1.04157e-05
3.34465e-05
1.1887e-05
3.26517e-05
1.31045e-05
3.1377e-05
1.4062e-05
2.96496e-05
2.75683e-05
1.47139e-05
2.92157e-07
-3.0311e-05
5.75401e-07
-3.04053e-05
8.58924e-07
-3.04829e-05
1.13748e-06
-3.06254e-05
1.40969e-06
-3.08132e-05
1.67445e-06
-3.1044e-05
1.93098e-06
-3.13149e-05
2.17872e-06
-3.16218e-05
2.41716e-06
-3.19594e-05
2.64546e-06
-3.23203e-05
2.86159e-06
-3.26947e-05
3.06029e-06
-3.3069e-05
3.23098e-06
-3.34264e-05
3.35713e-06
-3.37504e-05
3.36387e-06
-3.40046e-05
3.34431e-06
-3.66359e-05
6.54217e-06
2.87184e-05
8.3052e-06
3.23417e-05
9.49161e-06
3.22597e-05
1.03605e-05
3.17831e-05
1.10433e-05
3.06942e-05
1.15782e-05
2.91143e-05
2.7194e-05
1.19524e-05
2.35418e-07
-3.05464e-05
4.60735e-07
-3.06306e-05
6.87706e-07
-3.07099e-05
9.11772e-07
-3.08495e-05
1.13233e-06
-3.10338e-05
1.34919e-06
-3.12608e-05
1.56269e-06
-3.15284e-05
1.77401e-06
-3.18332e-05
1.98504e-06
-3.21705e-05
2.19792e-06
-3.25333e-05
2.41421e-06
-3.2911e-05
2.63179e-06
-3.32865e-05
2.84715e-06
-3.36418e-05
3.05451e-06
-3.39576e-05
3.03139e-06
-3.39816e-05
4.68545e-06
-3.82899e-05
7.83233e-06
2.55716e-05
8.66757e-06
3.15069e-05
8.95205e-06
3.19752e-05
9.0669e-06
3.16682e-05
9.16425e-06
3.05958e-05
9.28735e-06
2.89914e-05
2.70682e-05
9.41416e-06
1.77852e-07
-3.07242e-05
3.47827e-07
-3.08006e-05
5.21453e-07
-3.08835e-05
6.92927e-07
-3.1021e-05
8.62704e-07
-3.12036e-05
1.03162e-06
-3.14297e-05
1.20131e-06
-3.16981e-05
1.37487e-06
-3.20068e-05
1.55735e-06
-3.2353e-05
1.75604e-06
-3.27319e-05
1.97916e-06
-3.31341e-05
2.22678e-06
-3.35342e-05
2.49791e-06
-3.3913e-05
2.84611e-06
-3.43058e-05
2.67722e-06
-3.38126e-05
4.94931e-06
-4.0562e-05
1.05176e-05
2.00035e-05
9.71568e-06
3.231e-05
8.67075e-06
3.3021e-05
7.81959e-06
3.2519e-05
7.26375e-06
3.11515e-05
6.99394e-06
2.92614e-05
2.71389e-05
6.92382e-06
1.30134e-07
-3.08544e-05
2.50861e-07
-3.09214e-05
3.74965e-07
-3.10076e-05
4.98954e-07
-3.1145e-05
6.2303e-07
-3.13276e-05
7.4825e-07
-3.1555e-05
8.7684e-07
-3.18267e-05
1.0129e-06
-3.21429e-05
1.16388e-06
-3.25041e-05
1.34376e-06
-3.29119e-05
1.57643e-06
-3.33667e-05
1.89212e-06
-3.38498e-05
2.3054e-06
-3.43264e-05
2.76446e-06
-3.47648e-05
1.40127e-06
-3.24496e-05
8.63126e-06
-4.77925e-05
1.51518e-05
1.34842e-05
1.14076e-05
3.60547e-05
8.31645e-06
3.61128e-05
6.26124e-06
3.45748e-05
5.03808e-06
3.23753e-05
4.46681e-06
2.98327e-05
2.72926e-05
4.31307e-06
9.68842e-08
-3.09513e-05
1.90137e-07
-3.10146e-05
2.85676e-07
-3.11031e-05
3.8218e-07
-3.12415e-05
4.8013e-07
-3.14256e-05
5.8032e-07
-3.16552e-05
6.83963e-07
-3.19303e-05
7.93025e-07
-3.22519e-05
9.11083e-07
-3.26221e-05
1.04431e-06
-3.30452e-05
1.21107e-06
-3.35334e-05
1.49181e-06
-3.41305e-05
2.09052e-06
-3.49252e-05
3.53336e-06
-3.62076e-05
1.20144e-05
-4.09306e-05
3.58613e-06
-3.93643e-05
1.3161e-05
3.91027e-06
1.12929e-05
3.79222e-05
6.92807e-06
4.04772e-05
3.72885e-06
3.77742e-05
2.06302e-06
3.40414e-05
1.44919e-06
3.04466e-05
2.73113e-05
1.43057e-06
-5.02512e-08
-3.09009e-05
-1.16697e-07
-3.09479e-05
-1.73316e-07
-3.10463e-05
-2.34805e-07
-3.118e-05
-2.99301e-07
-3.1361e-05
-3.67357e-07
-3.15869e-05
-4.39049e-07
-3.18585e-05
-5.13563e-07
-3.21773e-05
-5.8935e-07
-3.25461e-05
-6.58036e-07
-3.29762e-05
-6.88725e-07
-3.35026e-05
-9.79043e-07
-3.384e-05
1.04934e-07
-3.60093e-05
2.30034e-06
-3.84031e-05
2.99084e-05
-6.85384e-05
8.47807e-05
-9.42365e-05
5.42275e-05
3.44644e-05
2.33133e-05
6.88367e-05
5.575e-06
5.82156e-05
-5.42978e-07
4.38921e-05
-2.23557e-06
3.57339e-05
-2.32051e-06
3.05318e-05
2.68024e-05
-1.81171e-06
-1.35899e-06
-2.95419e-05
-2.79112e-06
-2.95147e-05
-4.22401e-06
-2.96136e-05
-5.68195e-06
-2.97226e-05
-7.18265e-06
-2.98618e-05
-8.73009e-06
-3.00407e-05
-1.03169e-05
-3.0272e-05
-1.19166e-05
-3.05788e-05
-1.34553e-05
-3.10084e-05
-1.4771e-05
-3.16608e-05
-1.56307e-05
-3.26432e-05
-1.4948e-05
-3.45234e-05
-1.19256e-05
-3.90323e-05
-6.67409e-06
-4.36557e-05
1.70417e-06
-7.69181e-05
-2.47783e-05
-6.77552e-05
-2.00616e-05
2.97475e-05
-1.68703e-05
6.56457e-05
-1.27731e-05
5.41187e-05
-1.04323e-05
4.1551e-05
-8.54625e-06
3.38477e-05
-6.83796e-06
2.88233e-05
2.52671e-05
-5.30273e-06
-1.51872e-06
-2.80262e-05
-2.91682e-06
-2.81185e-05
-4.38365e-06
-2.81482e-05
-5.89999e-06
-2.82075e-05
-7.47234e-06
-2.82904e-05
-9.11119e-06
-2.84028e-05
-1.08279e-05
-2.8556e-05
-1.26344e-05
-2.8772e-05
-1.45495e-05
-2.90938e-05
-1.66257e-05
-2.95854e-05
-1.89105e-05
-3.03585e-05
-2.14533e-05
-3.19797e-05
-2.64399e-05
-3.40451e-05
-3.41555e-05
-3.59391e-05
-6.13908e-05
-4.96824e-05
-9.58945e-05
-3.32516e-05
-8.1039e-05
1.48918e-05
-4.95364e-05
3.41432e-05
-3.02504e-05
3.4833e-05
-2.04546e-05
3.17555e-05
-1.48611e-05
2.82538e-05
-1.12188e-05
2.51805e-05
2.26465e-05
-8.59843e-06
-1.49009e-06
-2.65363e-05
-2.96352e-06
-2.66466e-05
-4.46474e-06
-2.66485e-05
-6.01238e-06
-2.66601e-05
-7.62285e-06
-2.66808e-05
-9.31348e-06
-2.67124e-05
-1.11093e-05
-2.67613e-05
-1.30446e-05
-2.68373e-05
-1.51789e-05
-2.69597e-05
-1.76172e-05
-2.71478e-05
-2.05508e-05
-2.74249e-05
-2.46472e-05
-2.7884e-05
-3.07637e-05
-2.79299e-05
-3.80394e-05
-2.86645e-05
-5.80218e-05
-2.96999e-05
-7.49271e-05
-1.6346e-05
-6.50313e-05
4.99578e-06
-4.7779e-05
1.68905e-05
-3.42727e-05
2.13269e-05
-2.49868e-05
2.24696e-05
-1.8706e-05
2.19725e-05
-1.43343e-05
2.08083e-05
1.94616e-05
-1.11495e-05
-1.47661e-06
-2.50592e-05
-2.96505e-06
-2.5158e-05
-4.48006e-06
-2.51347e-05
-6.03889e-06
-2.51013e-05
-7.66321e-06
-2.50577e-05
-9.37507e-06
-2.50018e-05
-1.12035e-05
-2.49322e-05
-1.31942e-05
-2.48471e-05
-1.54147e-05
-2.4739e-05
-1.79701e-05
-2.45915e-05
-2.1002e-05
-2.43923e-05
-2.48626e-05
-2.40236e-05
-2.9598e-05
-2.31949e-05
-3.61733e-05
-2.20893e-05
-4.68105e-05
-1.90627e-05
-5.26985e-05
-1.04583e-05
-4.81933e-05
4.9049e-07
-3.99463e-05
8.64357e-06
-3.2037e-05
1.34174e-05
-2.53593e-05
1.57915e-05
-2.00613e-05
1.66744e-05
-1.59517e-05
1.66984e-05
1.62657e-05
-1.27561e-05
-1.4602e-06
-2.35993e-05
-2.93726e-06
-2.36812e-05
-4.44195e-06
-2.36304e-05
-5.98932e-06
-2.35535e-05
-7.59922e-06
-2.34481e-05
-9.29439e-06
-2.3308e-05
-1.11022e-05
-2.31245e-05
-1.30624e-05
-2.28869e-05
-1.52278e-05
-2.2574e-05
-1.76671e-05
-2.21517e-05
-2.04962e-05
-2.15634e-05
-2.38318e-05
-2.06883e-05
-2.76825e-05
-1.93442e-05
-3.2418e-05
-1.73541e-05
-3.76321e-05
-1.38494e-05
-4.00386e-05
-8.05203e-06
-3.82133e-05
-1.33469e-06
-3.38931e-05
4.32343e-06
-2.88992e-05
8.42329e-06
-2.41383e-05
1.10307e-05
-1.99623e-05
1.24985e-05
-1.64449e-05
1.31808e-05
1.33543e-05
-1.35336e-05
-1.42965e-06
-2.21699e-05
-2.87769e-06
-2.22344e-05
-4.35053e-06
-2.21583e-05
-5.86268e-06
-2.2042e-05
-7.43121e-06
-2.188e-05
-9.07414e-06
-2.16643e-05
-1.08157e-05
-2.13835e-05
-1.26829e-05
-2.10194e-05
-1.47109e-05
-2.05462e-05
-1.6939e-05
-1.99237e-05
-1.94124e-05
-1.90901e-05
-2.21535e-05
-1.79475e-05
-2.51308e-05
-1.63674e-05
-2.83109e-05
-1.41743e-05
-3.11221e-05
-1.10384e-05
-3.23045e-05
-6.87002e-06
-3.13476e-05
-2.29219e-06
-2.88993e-05
1.87509e-06
-2.56891e-05
5.21352e-06
-2.23102e-05
7.65207e-06
-1.9101e-05
9.28935e-06
-1.62142e-05
1.02939e-05
1.08336e-05
-1.36934e-05
-1.38499e-06
-2.07848e-05
-2.7877e-06
-2.0832e-05
-4.21138e-06
-2.07346e-05
-5.66862e-06
-2.0585e-05
-7.17264e-06
-2.03768e-05
-8.73669e-06
-2.01001e-05
-1.03776e-05
-1.97429e-05
-1.21116e-05
-1.92855e-05
-1.39567e-05
-1.87017e-05
-1.59265e-05
-1.79542e-05
-1.80258e-05
-1.69915e-05
-2.02314e-05
-1.57425e-05
-2.24752e-05
-1.41239e-05
-2.46131e-05
-1.20363e-05
-2.62721e-05
-9.3798e-06
-2.69347e-05
-6.20843e-06
-2.63892e-05
-2.8382e-06
-2.48728e-05
3.5903e-07
-2.27318e-05
3.07294e-06
-2.03153e-05
5.23564e-06
-1.7872e-05
6.84611e-06
-1.55521e-05
7.97425e-06
8.71302e-06
-1.34313e-05
-1.32781e-06
-1.94573e-05
-2.67136e-06
-1.94893e-05
-4.03208e-06
-1.93751e-05
-5.4189e-06
-1.91988e-05
-6.84047e-06
-1.89549e-05
-8.30748e-06
-1.86341e-05
-9.82758e-06
-1.8223e-05
-1.1409e-05
-1.77042e-05
-1.30558e-05
-1.70548e-05
-1.47656e-05
-1.62446e-05
-1.6522e-05
-1.52352e-05
-1.82843e-05
-1.39802e-05
-1.99761e-05
-1.24321e-05
-2.1465e-05
-1.05482e-05
-2.25324e-05
-8.31338e-06
-2.29436e-05
-5.79786e-06
-2.26034e-05
-3.17863e-06
-2.16051e-05
-6.39174e-07
-2.01261e-05
1.59393e-06
-1.83697e-05
3.47921e-06
-1.65062e-05
4.98289e-06
-1.46578e-05
6.12616e-06
6.95659e-06
-1.29013e-05
-1.26082e-06
-1.81962e-05
-2.53448e-06
-1.82154e-05
-3.82092e-06
-1.80888e-05
-5.12632e-06
-1.78943e-05
-6.45537e-06
-1.76259e-05
-7.81388e-06
-1.7276e-05
-9.20441e-06
-1.68322e-05
-1.0629e-05
-1.62805e-05
-1.2082e-05
-1.56017e-05
-1.35524e-05
-1.47738e-05
-1.50158e-05
-1.37713e-05
-1.64293e-05
-1.25667e-05
-1.77257e-05
-1.11363e-05
-1.8807e-05
-9.4678e-06
-1.95464e-05
-7.57454e-06
-1.98282e-05
-5.51632e-06
-1.96078e-05
-3.39942e-06
-1.8907e-05
-1.34029e-06
-1.78586e-05
5.4537e-07
-1.65599e-05
2.18077e-06
-1.51287e-05
3.55198e-06
-1.3658e-05
4.65547e-06
5.51254e-06
-1.22142e-05
-1.18637e-06
-1.70103e-05
-2.38334e-06
-1.70197e-05
-3.58832e-06
-1.68844e-05
-4.80462e-06
-1.66779e-05
-6.03553e-06
-1.63955e-05
-7.28146e-06
-1.60296e-05
-8.54225e-06
-1.55709e-05
-9.81451e-06
-1.50081e-05
-1.10887e-05
-1.4327e-05
-1.23497e-05
-1.35125e-05
-1.35721e-05
-1.25489e-05
-1.47174e-05
-1.14215e-05
-1.57323e-05
-1.01213e-05
-1.65496e-05
-8.65077e-06
-1.70939e-05
-7.03067e-06
-1.73032e-05
-5.30749e-06
-1.71528e-05
-3.55018e-06
-1.66572e-05
-1.83602e-06
-1.58931e-05
-2.18635e-07
-1.49126e-05
1.20055e-06
-1.38024e-05
2.44173e-06
-1.26288e-05
3.48165e-06
4.32839e-06
-1.14451e-05
-1.10755e-06
-1.59024e-05
-2.22249e-06
-1.59044e-05
-3.34192e-06
-1.57653e-05
-4.46661e-06
-1.55536e-05
-5.59698e-06
-1.52654e-05
-6.73139e-06
-1.48947e-05
-7.86741e-06
-1.44348e-05
-8.99772e-06
-1.3877e-05
-1.01123e-05
-1.32119e-05
-1.11948e-05
-1.24296e-05
-1.22218e-05
-1.15214e-05
-1.31616e-05
-1.0481e-05
-1.39745e-05
-9.3079e-06
-1.46149e-05
-8.01051e-06
-1.50365e-05
-6.60943e-06
-1.52042e-05
-5.13997e-06
-1.51048e-05
-3.64951e-06
-1.47512e-05
-2.18947e-06
-1.41651e-05
-8.04606e-07
-1.3422e-05
4.5732e-07
-1.2554e-05
1.57354e-06
-1.16134e-05
2.54077e-06
3.35724e-06
-1.06425e-05
-1.02641e-06
-1.48769e-05
-2.05766e-06
-1.48736e-05
-3.08964e-06
-1.47332e-05
-4.12217e-06
-1.45212e-05
-5.15308e-06
-1.42338e-05
-6.18017e-06
-1.38672e-05
-7.19887e-06
-1.34163e-05
-8.20045e-06
-1.28746e-05
-9.1748e-06
-1.22366e-05
-1.01066e-05
-1.14968e-05
-1.09758e-05
-1.06512e-05
-1.17576e-05
-9.69857e-06
-1.24226e-05
-8.64255e-06
-1.29397e-05
-7.49338e-06
-1.32796e-05
-6.26942e-06
-1.34214e-05
-4.99789e-06
-1.33578e-05
-3.71291e-06
-1.30964e-05
-2.4508e-06
-1.26549e-05
-1.24632e-06
-1.20816e-05
-1.16202e-07
-1.13936e-05
8.85442e-07
-1.06349e-05
1.78205e-06
2.55922e-06
-9.83695e-06
-9.44263e-07
-1.39322e-05
-1.89152e-06
-1.39259e-05
-2.83716e-06
-1.37878e-05
-3.77893e-06
-1.35793e-05
-4.71445e-06
-1.32982e-05
-5.63999e-06
-1.29415e-05
-6.54971e-06
-1.25058e-05
-7.43582e-06
-1.19875e-05
-8.28834e-06
-1.13834e-05
-9.09347e-06
-1.06909e-05
-9.83477e-06
-9.9091e-06
-1.04932e-05
-9.03973e-06
-1.10471e-05
-8.08825e-06
-1.1475e-05
-7.06508e-06
-1.17579e-05
-5.98605e-06
-1.18832e-05
-4.87243e-06
-1.18468e-05
-3.74941e-06
-1.16546e-05
-2.64344e-06
-1.13217e-05
-1.5795e-06
-1.08612e-05
-5.7669e-07
-1.03177e-05
3.42112e-07
-9.70375e-06
1.16832e-06
1.90195e-06
-9.04656e-06
-8.63066e-07
-1.30692e-05
-1.72784e-06
-1.30611e-05
-2.58888e-06
-1.2927e-05
-3.44298e-06
-1.27246e-05
-4.28777e-06
-1.24533e-05
-5.11827e-06
-1.21106e-05
-5.92857e-06
-1.16946e-05
-6.71182e-06
-1.12038e-05
-7.45852e-06
-1.06365e-05
-8.1567e-06
-9.99209e-06
-8.7932e-06
-9.27174e-06
-9.35353e-06
-8.47882e-06
-9.8218e-06
-7.61953e-06
-1.01829e-05
-6.70361e-06
-1.04243e-05
-5.7445e-06
-1.05381e-05
-4.75897e-06
-1.05218e-05
-3.76614e-06
-1.03797e-05
-2.78595e-06
-1.01218e-05
-1.83743e-06
-9.76067e-06
-9.37591e-07
-9.32593e-06
-9.22904e-08
-8.82479e-06
6.67304e-07
1.35865e-06
-8.28169e-06
-7.83691e-07
-1.22852e-05
-1.56857e-06
-1.22766e-05
-2.34768e-06
-1.21475e-05
-3.11861e-06
-1.19536e-05
-3.87771e-06
-1.16941e-05
-4.62014e-06
-1.13678e-05
-5.34042e-06
-1.0974e-05
-6.03194e-06
-1.05121e-05
-6.68622e-06
-9.9819e-06
-7.29337e-06
-9.38407e-06
-7.84298e-06
-8.72118e-06
-8.32393e-06
-7.99738e-06
-8.72447e-06
-7.21884e-06
-9.0338e-06
-6.3943e-06
-9.24351e-06
-5.53506e-06
-9.34833e-06
-4.65459e-06
-9.34705e-06
-3.76782e-06
-9.24292e-06
-2.8902e-06
-9.0436e-06
-2.03659e-06
-8.76075e-06
-1.22016e-06
-8.40251e-06
-4.50368e-07
-7.99601e-06
2.60752e-07
9.09374e-07
-7.54694e-06
-7.07355e-07
-1.15779e-05
-1.41491e-06
-1.15694e-05
-2.11615e-06
-1.14463e-05
-2.80831e-06
-1.12617e-05
-3.48709e-06
-1.10151e-05
-4.1484e-06
-1.07062e-05
-4.78699e-06
-1.03352e-05
-5.39643e-06
-9.90218e-06
-5.96964e-06
-9.40789e-06
-6.49877e-06
-8.85411e-06
-6.97542e-06
-8.24397e-06
-7.39085e-06
-7.58181e-06
-7.7363e-06
-6.87346e-06
-8.00404e-06
-6.12666e-06
-8.18821e-06
-5.35102e-06
-8.28538e-06
-4.55759e-06
-8.29495e-06
-3.75836e-06
-8.2195e-06
-2.96562e-06
-8.06473e-06
-2.19122e-06
-7.8389e-06
-1.44589e-06
-7.55049e-06
-7.38774e-07
-7.21802e-06
-7.17815e-08
5.35915e-07
-6.84458e-06
-6.34438e-07
-1.0944e-05
-1.26802e-06
-1.09356e-05
-1.89554e-06
-1.08189e-05
-2.51317e-06
-1.06437e-05
-3.11718e-06
-1.04104e-05
-3.70389e-06
-1.01193e-05
-4.26809e-06
-9.77074e-06
-4.80394e-06
-9.36554e-06
-5.3058e-06
-8.90524e-06
-5.76735e-06
-8.39214e-06
-6.18164e-06
-7.8295e-06
-6.54173e-06
-7.22156e-06
-6.8411e-06
-6.57383e-06
-7.07424e-06
-5.89324e-06
-7.23704e-06
-5.18802e-06
-7.32719e-06
-4.46738e-06
-7.34445e-06
-3.7411e-06
-7.29094e-06
-3.01912e-06
-7.17109e-06
-2.31103e-06
-6.99131e-06
-1.62562e-06
-6.75969e-06
-9.70318e-07
-6.4812e-06
-3.50138e-07
2.28208e-07
-6.17327e-06
-5.64714e-07
-1.03793e-05
-1.12848e-06
-1.03715e-05
-1.68601e-06
-1.0261e-05
-2.23374e-06
-1.00953e-05
-2.7684e-06
-9.87531e-06
-3.28625e-06
-9.60143e-06
-3.78248e-06
-9.27427e-06
-4.25214e-06
-8.89515e-06
-4.69068e-06
-8.46616e-06
-5.09282e-06
-7.98979e-06
-5.45281e-06
-7.46924e-06
-5.76518e-06
-6.90864e-06
-6.02515e-06
-6.3132e-06
-6.22874e-06
-5.68912e-06
-6.37302e-06
-5.04347e-06
-6.45636e-06
-4.38399e-06
-6.47873e-06
-3.71877e-06
-6.44183e-06
-3.05599e-06
-6.34912e-06
-2.40364e-06
-6.20548e-06
-1.76907e-06
-6.01677e-06
-1.15875e-06
-5.78835e-06
-5.78217e-07
-2.57964e-08
-5.53399e-06
-4.9847e-07
-9.8805e-06
-9.96219e-07
-9.87368e-06
-1.48764e-06
-9.76909e-06
-1.97014e-06
-9.61276e-06
-2.44018e-06
-9.40537e-06
-2.89415e-06
-9.14745e-06
-3.32805e-06
-8.84002e-06
-3.73783e-06
-8.48482e-06
-4.11955e-06
-8.0841e-06
-4.46873e-06
-7.64037e-06
-4.7807e-06
-7.15679e-06
-5.05126e-06
-6.63736e-06
-5.27688e-06
-6.08692e-06
-5.4546e-06
-5.51101e-06
-5.58226e-06
-4.91571e-06
-5.65869e-06
-4.30758e-06
-5.68395e-06
-3.69345e-06
-5.65951e-06
-3.08026e-06
-5.5881e-06
-2.47475e-06
-5.4736e-06
-1.88319e-06
-5.32081e-06
-1.31114e-06
-5.13546e-06
-7.63181e-07
-2.41763e-07
-4.91916e-06
-4.35908e-07
-9.44449e-06
-8.70961e-07
-9.43851e-06
-1.30032e-06
-9.33962e-06
-1.7216e-06
-9.19194e-06
-2.13105e-06
-8.99594e-06
-2.52563e-06
-8.7525e-06
-2.90222e-06
-8.46305e-06
-3.25738e-06
-8.12946e-06
-3.58754e-06
-7.75388e-06
-3.88893e-06
-7.33882e-06
-4.1579e-06
-6.88741e-06
-4.39127e-06
-6.40349e-06
-4.58632e-06
-5.89152e-06
-4.7408e-06
-5.35639e-06
-4.85304e-06
-4.8034e-06
-4.92224e-06
-4.23824e-06
-4.9486e-06
-3.66683e-06
-4.93333e-06
-3.09517e-06
-4.87863e-06
-2.52906e-06
-4.78752e-06
-1.97393e-06
-4.6637e-06
-1.43461e-06
-4.51131e-06
-9.15244e-07
-4.18926e-07
-4.33387e-06
-3.76649e-07
-9.0678e-06
-7.52422e-07
-9.06262e-06
-1.12332e-06
-8.96897e-06
-1.48667e-06
-8.82891e-06
-1.83922e-06
-8.64305e-06
-2.17861e-06
-8.41271e-06
-2.50224e-06
-8.13943e-06
-2.80706e-06
-7.82493e-06
-3.08989e-06
-7.47128e-06
-3.34768e-06
-7.081e-06
-3.57766e-06
-6.65722e-06
-3.77737e-06
-6.20357e-06
-3.94464e-06
-5.72409e-06
-4.07769e-06
-5.22316e-06
-4.17531e-06
-4.70552e-06
-4.23699e-06
-4.17619e-06
-4.26302e-06
-3.64042e-06
-4.25439e-06
-3.10345e-06
-4.21284e-06
-2.57034e-06
-4.1407e-06
-2.04584e-06
-4.04084e-06
-1.53423e-06
-3.91653e-06
-1.03927e-06
-5.64065e-07
-3.7711e-06
-3.20327e-07
-8.7473e-06
-6.40104e-07
-8.74304e-06
-9.55426e-07
-8.65388e-06
-1.26388e-06
-8.52041e-06
-1.56305e-06
-8.34364e-06
-1.85091e-06
-8.12493e-06
-2.12513e-06
-7.86571e-06
-2.38302e-06
-7.56757e-06
-2.62193e-06
-7.23259e-06
-2.83953e-06
-6.86335e-06
-3.03368e-06
-6.46291e-06
-3.2024e-06
-6.03467e-06
-3.34394e-06
-5.5823e-06
-3.45694e-06
-5.1098e-06
-3.54053e-06
-4.62145e-06
-3.59446e-06
-4.1218e-06
-3.61902e-06
-3.61554e-06
-3.61503e-06
-3.10728e-06
-3.58378e-06
-2.60151e-06
-3.52709e-06
-2.10243e-06
-3.44723e-06
-1.61387e-06
-3.34689e-06
-1.1393e-06
-6.81526e-07
-3.22907e-06
-2.66782e-07
-8.48056e-06
-5.33153e-07
-8.47709e-06
-7.95426e-07
-8.3916e-06
-1.05192e-06
-8.26388e-06
-1.30079e-06
-8.09501e-06
-1.54007e-06
-7.88617e-06
-1.76764e-06
-7.63866e-06
-1.98134e-06
-7.35412e-06
-2.17916e-06