/*--------------------------------*- C++ -*----------------------------------*\
| =========                 |                                                 |
| \\      /  F ield         | OpenFOAM: The Open Source CFD Toolbox           |
|  \\    /   O peration     | Version:  2206                                  |
|   \\  /    A nd           | Website:  www.openfoam.com                      |
|    \\/     M anipulation  |                                                 |
\*---------------------------------------------------------------------------*/
FoamFile
{
    version     2.0;
    format      ascii;
    arch        "LSB;label=32;scalar=64";
    class       volScalarField;
    location    "0.625";
    object      alpha.water;
}
// * * * * * * * * * * * * * * * * * * * * * * * * * * * * * * * * * * * * * //

dimensions      [0 0 0 0 0 0 0];

internalField   nonuniform List<scalar> 
2268
(
0.999999
0.999999
1
1
1
1
1
1
1
1
1
1
1
1
1
1
0.999998
0.983517
0.929506
0.940153
0.998915
0.998933
0.998933
0.999999
1
1
1
1
1
1
1
1
1
1
1
1
1
1
1
1
0.997576
0.951283
0.934189
0.964673
0.997685
0.998933
1
1
1
1
1
1
1
1
1
1
1
1
1
1
1
1
1
1
0.997528
0.934255
0.932484
0.941694
0.99891
1
1
1
1
1
1
1
1
1
1
1
1
1
1
1
1
1
1
0.999999
0.994431
0.932483
0.933346
0.99632
1
1
1
1
1
1
1
1
1
1
1
1
1
1
1
1
1
1
1
0.999998
0.96418
0.99842
0.999984
1
1
1
1
1
0.999999
1
1
1
1
1
1
1
1
1
1
1
1
1
1
0.999989
1
0.999985
1
1
1
0.999997
0.999987
0.999981
0.999993
0.999999
1
1
1
1
1
1
1
1
1
1
1
1
1
1
0.999935
0.999123
0.990305
0.966978
0.950419
0.947882
0.960117
0.992539
0.999971
0.999996
1
1
1
1
1
1
1
1
1
1
1
1
1
0.999935
0.0795574
0.0465563
0.136151
0.85247
0.859248
0.864061
0.865405
0.889285
0.901178
0.905069
0.905069
0.905069
0.905146
0.905807
0.906756
0.907311
0.913122
0.863237
0.823044
0.130167
0.0466081
0.293319
0.845609
0.537953
0.411925
0.497997
0.576206
0.66122
0.73656
0.78033
0.8076
0.841653
0.883159
0.905809
0.913596
0.922401
0.923814
0.923808
0.129525
0.0838798
0.538461
0.557349
0.0100508
0.00180398
0.00370336
0.0178666
0.0346213
0.0514884
0.0671513
0.085453
0.128484
0.262118
0.519543
0.748134
0.917541
0.92381
0.923812
0.114009
0.11755
0.470937
0.0977581
0.00184935
0.00118133
0.00118259
0.00118259
0.00137737
0.00262054
0.0153205
0.0206704
0.0205702
0.0158399
0.00990867
0.090588
0.583619
0.923774
0.923807
0.114009
0.205864
0.422087
0.00482876
0.00119808
0.00119053
0.00118259
0.0011918
0.00140763
0.00119349
0.00108698
0.000980461
0.012746
0.0191057
0.00733282
0.0100219
0.138582
0.907528
0.923771
0.123746
0.369551
0.385759
0.0089257
0.00153033
0.00119808
0.0011918
0.0144823
0.0172266
0.0056862
0.000980461
0.000980461
0.000980461
0.00104661
0.00521224
0.0196406
0.0349195
0.57579
0.92364
0.0977577
0.200159
0.257412
0.0310237
0.00371044
0.0123594
0.150608
0.515922
0.561597
0.327741
0.025792
0.000980461
0.00104661
0.00202083
0.00236957
0.00313987
0.0292238
0.493312
0.923298
0.098284
0.0742015
0.042817
0.024181
0.00946565
0.165398
0.733359
0.895301
0.898893
0.618397
0.0830636
0.00573866
0.00233281
0.00709419
0.0116591
0.003752
0.024503
0.538178
0.922559
0.543214
0.459223
0.3837
0.390742
0.420113
0.502787
0.648672
0.796607
0.901506
0.976506
1
1
1
1
1
1
1
1
1
1
1
1
1
1.29572e-07
3.07923e-06
1.3004e-05
0.0105681
0.0578757
0.102111
0.130252
0.164256
0.236124
0.360779
0.528714
0.689135
0.834782
0.981256
1
1
1
1
1
1
1
1
1
4.17637e-08
1.05007e-07
9.54708e-09
2.01579e-10
1.20417e-09
2.19361e-08
1.37394e-07
2.47511e-07
6.15908e-08
6.36224e-07
0.0147009
0.0684388
0.162582
0.324491
0.54551
0.718376
0.848141
0.984969
0.999877
0.999998
0.999994
0.999994
0.999998
9.16298e-09
1.13434e-08
2.01579e-10
1.64458e-10
8.09864e-11
6.71106e-10
3.60996e-09
3.64122e-09
2.15634e-09
1.22635e-09
-6.71075e-10
4.92294e-09
7.74858e-08
7.47873e-07
0.0284838
0.0940607
0.162548
0.292031
0.486672
0.61882
0.76561
0.911833
0.967307
9.45342e-10
1.18535e-09
3.38096e-09
5.79773e-09
6.34084e-11
3.14144e-11
9.15263e-11
1.18029e-10
2.06648e-09
2.25208e-09
2.18489e-09
2.2737e-09
6.4916e-09
7.85489e-08
7.4821e-07
1.64798e-06
2.72047e-07
8.83786e-07
1.42087e-06
0.0109026
0.0849157
0.217516
0.368866
2.51528e-11
6.50164e-11
3.07794e-10
7.58383e-10
2.21389e-11
6.69973e-12
9.66976e-12
5.51673e-11
2.79635e-08
8.92347e-08
3.00725e-08
2.70296e-09
3.16087e-06
5.31631e-05
5.34125e-05
5.00077e-05
1.60694e-08
4.95919e-07
1.1288e-06
1.42087e-06
2.79837e-06
1.08126e-05
5.80696e-05
8.17602e-13
1.88433e-12
4.69674e-12
1.02688e-11
3.42414e-12
5.81928e-12
6.69893e-12
8.72529e-12
4.10132e-08
1.18854e-07
9.04759e-08
2.77235e-09
2.54884e-06
2.5369e-05
1.926e-05
2.60622e-11
4.6323e-10
1.15439e-06
1.63255e-05
5.9011e-05
0.000130123
0.000111286
0.000108071
3.94105e-14
8.58389e-14
2.60784e-13
6.64182e-13
2.95717e-12
7.18511e-12
9.66344e-12
9.7264e-12
1.71179e-08
1.11098e-07
1.15969e-07
8.9006e-08
1.77148e-07
4.30921e-12
4.3093e-12
4.3093e-12
2.60622e-11
1.11708e-09
5.67021e-06
2.53311e-05
0.000270864
0.000270625
0.000214349
1.8921e-15
3.26446e-15
3.30487e-14
3.33955e-13
2.5635e-12
7.14971e-12
1.08333e-11
1.17885e-11
5.05762e-10
1.69507e-08
8.90982e-08
1.98979e-07
7.47269e-07
4.60718e-08
4.30921e-12
4.82633e-12
8.68238e-09
3.25234e-07
4.5489e-07
1.77741e-05
0.000220314
0.000272026
0.000274259
8.78134e-17
6.38935e-17
3.10129e-15
1.52753e-13
1.549e-12
5.45887e-12
1.04241e-11
1.28974e-11
4.74078e-10
1.19471e-09
5.06993e-09
2.93858e-08
1.81454e-07
5.12238e-08
4.82633e-12
8.61588e-12
1.74602e-08
2.45881e-06
4.03215e-06
1.55802e-06
8.92458e-05
0.000270625
0.000266409
1.64294e-18
3.89939e-19
5.14394e-16
5.23118e-14
6.12107e-13
2.82128e-12
8.38428e-12
8.63978e-12
3.23403e-10
2.51236e-09
2.8788e-09
8.07375e-10
2.37798e-10
2.32497e-10
1.51187e-10
7.54325e-12
1.62311e-07
1.62541e-06
2.66599e-07
1.41453e-06
0.000159859
0.000266251
0.000166126
0
-5.41083e-18
9.02548e-17
1.40536e-14
1.81142e-13
1.04283e-12
5.2745e-12
7.46801e-12
5.33782e-11
2.98466e-09
3.47827e-09
3.31492e-09
2.92433e-09
1.10306e-09
2.642e-11
4.82492e-12
7.54325e-12
1.48426e-10
6.24366e-09
5.24417e-06
0.000183366
0.00026501
0.000260807
-3.40495e-18
-1.0232e-17
1.32505e-17
3.08497e-15
4.39382e-14
3.13672e-13
3.05288e-12
8.19938e-12
9.45696e-12
1.44663e-09
2.84009e-09
4.0095e-09
3.71699e-09
2.64275e-10
1.52964e-12
1.65804e-12
4.27471e-12
9.56794e-11
2.89936e-09
5.54045e-08
6.27611e-05
0.000264461
0.00026443
-3.82804e-18
-9.78058e-18
3.47927e-19
5.53033e-16
8.89495e-15
8.85078e-14
1.73893e-12
7.71136e-12
8.87432e-12
1.0316e-10
6.64242e-10
3.05266e-09
9.47971e-10
6.21572e-12
1.52505e-12
1.50483e-12
3.34166e-12
8.70477e-12
1.24367e-10
2.92522e-09
1.32827e-07
1.92389e-05
5.39063e-05
-3.45e-18
-7.78121e-18
-2.20277e-18
7.76303e-17
1.49794e-15
2.3793e-14
7.60345e-13
4.88795e-12
7.34978e-12
5.53991e-12
6.59502e-11
4.37442e-10
1.74749e-11
1.42806e-12
1.29475e-12
9.44439e-13
3.42683e-12
7.33614e-12
1.72379e-11
3.97773e-10
2.74998e-08
4.06748e-08
3.07003e-07
-2.7645e-18
-5.44647e-18
-4.96492e-18
7.8844e-18
2.06693e-16
5.79859e-15
2.2703e-13
1.89074e-12
3.97523e-12
3.47294e-12
2.30858e-12
4.76741e-12
5.23069e-13
5.13305e-13
4.29853e-13
1.68684e-13
1.35975e-12
6.65492e-12
1.66883e-11
4.30603e-11
4.64799e-10
4.24888e-09
4.06748e-08
-1.98308e-18
-3.33674e-18
-4.48514e-18
1.78692e-19
2.27932e-17
1.26618e-15
5.02363e-14
4.65419e-13
1.2535e-12
1.56327e-12
1.23144e-12
7.08547e-13
3.16548e-13
1.40687e-13
4.93629e-14
1.55042e-14
1.06891e-13
1.32518e-12
7.41119e-12
3.20222e-11
8.89126e-11
6.52408e-10
6.06856e-09
-1.26754e-18
-1.77714e-18
-2.92703e-18
-1.23864e-19
1.9492e-18
2.42889e-16
8.79431e-15
7.98857e-14
2.61444e-13
4.96786e-13
6.51743e-13
3.06009e-13
8.82933e-14
1.53863e-14
2.72924e-15
1.48879e-15
6.37496e-15
1.27846e-13
1.77936e-12
1.57751e-11
6.9929e-11
1.78128e-10
1.02464e-09
-7.16932e-19
-8.12255e-19
-1.56087e-18
-2.52804e-19
1.5696e-19
3.86878e-17
1.27939e-15
1.17761e-14
4.65543e-14
1.01752e-13
1.47124e-13
7.37924e-14
1.80683e-14
2.21082e-15
2.00369e-16
1.2015e-16
9.83791e-16
2.11194e-14
5.03453e-13
7.40971e-12
4.85831e-11
1.49469e-10
2.794e-10
-3.56152e-19
-3.1325e-19
-6.8993e-19
-1.58778e-19
1.45186e-20
4.9721e-18
1.67804e-16
1.70923e-15
7.52301e-15
1.4802e-14
1.67825e-14
1.07601e-14
3.43126e-15
4.86129e-16
2.60478e-17
6.57082e-18
1.95804e-16
4.83256e-15
1.41777e-13
3.34039e-12
2.95385e-11
1.04376e-10
1.77668e-10
-1.54301e-19
-9.99188e-20
-2.50219e-19
-6.55914e-20
1.31976e-21
5.17162e-19
2.07523e-17
2.36934e-16
1.0422e-15
1.90643e-15
1.95372e-15
1.35277e-15
5.26151e-16
8.82548e-17
2.21085e-18
1.31746e-19
3.58814e-17
1.23711e-15
3.20001e-14
8.46511e-13
1.10262e-11
5.03106e-11
1.0735e-10
-5.79815e-20
-2.58127e-20
-7.34243e-20
-2.03334e-20
6.65364e-23
4.11904e-20
2.25768e-18
2.92324e-17
1.21559e-16
2.14585e-16
2.25129e-16
1.51313e-16
5.52675e-17
4.89898e-18
-6.48979e-19
-2.90279e-20
4.60636e-18
2.96939e-16
7.10097e-15
1.22056e-13
1.77727e-12
1.29922e-11
4.52076e-11
-1.88414e-20
-5.29995e-21
-1.728e-20
-4.94148e-21
6.85557e-25
2.20867e-21
1.84027e-19
2.77369e-18
1.1028e-17
1.87795e-17
2.05412e-17
1.3371e-17
2.48141e-18
0
-2.46809e-18
-1.61281e-18
5.2178e-19
5.64794e-17
1.68576e-15
2.19087e-14
1.99698e-13
1.78242e-12
1.24525e-11
-5.29607e-21
-8.54872e-22
-3.26285e-21
-9.60795e-22
-9.27768e-24
7.46553e-23
9.23799e-21
1.649e-19
6.67561e-19
1.12965e-18
1.23878e-18
3.90226e-19
-1.12043e-37
-1.33688e-18
-2.44642e-18
-1.64121e-18
1.62857e-20
7.94615e-18
3.5662e-16
5.41704e-15
4.22112e-14
2.84776e-13
2.54449e-12
-1.29255e-21
-1.08637e-22
-4.98128e-22
-1.51777e-22
-4.15393e-24
1.61623e-24
2.52821e-22
5.41712e-21
2.30539e-20
3.52292e-20
1.46747e-20
1.01823e-22
-3.41466e-19
-1.11918e-18
-1.50936e-18
-1.01659e-18
-3.86685e-20
9.36913e-19
6.46061e-17
1.31487e-15
1.17963e-14
6.88148e-14
4.88586e-13
-2.75785e-22
-1.13136e-23
-6.29653e-23
-1.99511e-23
-8.99747e-25
1.24023e-26
3.40666e-24
9.32969e-23
3.37841e-22
1.29574e-22
-2.77468e-37
-5.14597e-20
-2.46154e-19
-5.49942e-19
-6.64931e-19
-4.50753e-19
-7.42471e-20
1.19927e-19
1.07405e-17
2.85286e-16
3.04396e-15
1.63325e-14
7.74563e-14
-5.18978e-23
-1.01725e-24
-6.77798e-24
-2.24185e-24
-1.58903e-25
-2.02235e-25
2.63129e-26
5.70169e-25
1.58125e-24
-1.70581e-22
-4.55614e-21
-2.90833e-20
-9.78742e-20
-1.925e-19
-2.21528e-19
-1.51238e-19
-3.61105e-20
1.64327e-20
1.66068e-18
5.81769e-17
7.45915e-16
3.27529e-15
6.73919e-15
-8.69527e-24
-8.45821e-26
-6.37268e-25
-2.20963e-25
-2.94065e-26
-1.39887e-25
-7.82377e-25
-3.52071e-24
-2.97729e-23
-2.88596e-22
-2.04038e-21
-9.41829e-21
-2.7951e-20
-5.18045e-20
-5.8037e-20
-3.98141e-20
-1.10722e-20
2.40997e-21
2.80717e-19
1.32308e-17
1.75634e-16
6.05181e-16
3.33858e-16
-1.30878e-24
-7.21097e-27
-5.34198e-26
-1.95768e-26
-5.85658e-27
-4.68179e-26
-3.60768e-25
-2.31981e-24
-1.54936e-23
-1.01115e-22
-5.56362e-22
-2.25135e-21
-6.25315e-21
-1.11914e-20
-1.23148e-20
-8.47175e-21
-2.49779e-21
3.59295e-22
4.98242e-20
2.98908e-18
3.64772e-17
1.09481e-16
3.0174e-17
-1.78364e-25
-7.04401e-28
-4.05928e-27
-1.59829e-27
-1.1003e-27
-1.0798e-26
-9.10907e-26
-6.31272e-25
-4.01069e-24
-2.32108e-23
-1.13974e-22
-4.28677e-22
-1.14232e-21
-1.9982e-21
-2.16742e-21
-1.49158e-21
-4.43594e-22
4.67967e-23
6.87742e-21
5.04963e-19
6.26058e-18
2.01907e-17
6.36381e-18
-2.21514e-26
-8.02307e-29
-2.83429e-28
-1.2325e-28
-1.78939e-28
-1.90846e-27
-1.66985e-26
-1.19175e-25
-7.42081e-25
-4.06387e-24
-1.87593e-23
-6.74853e-23
-1.75008e-22
-3.01269e-22
-3.22573e-22
-2.21585e-22
-6.45531e-23
3.82798e-24
6.0505e-22
5.6313e-20
8.97778e-19
3.67436e-18
2.17809e-18
-2.51953e-27
-9.73305e-30
-1.839e-29
-9.19106e-30
-2.46707e-29
-2.72922e-28
-2.43071e-27
-1.76096e-26
-1.08679e-25
-5.78126e-25
-2.57453e-24
-9.00596e-24
-2.29352e-23
-3.90073e-23
-4.1263e-23
-2.82266e-23
-7.90803e-24
7.75391e-26
3.45292e-23
4.35081e-21
1.09844e-19
6.15328e-19
5.28549e-19
-2.6344e-28
-1.1515e-30
-1.11994e-30
-6.7373e-31
-2.91145e-30
-3.27873e-29
-2.94844e-28
-2.15552e-27
-1.32538e-26
-6.93697e-26
-3.02295e-25
-1.03845e-24
-2.61136e-24
-4.39695e-24
-4.59594e-24
-3.12316e-24
-8.30968e-25
0
1.61073e-24
2.60343e-22
1.0998e-20
8.31962e-20
5.50775e-20
-2.53885e-29
-1.26964e-31
-6.46178e-32
-4.87915e-32
-2.99268e-31
-3.40308e-30
-3.07703e-29
-2.26325e-28
-1.38977e-27
-7.2042e-27
-3.09673e-26
-1.05074e-25
-2.617e-25
-4.36409e-25
-4.50477e-25
-3.03132e-25
-7.5845e-26
-5.13489e-28
8.21668e-26
1.31924e-23
8.35879e-22
7.95652e-21
3.26537e-21
-2.25935e-30
-1.28419e-32
-3.56445e-33
-3.47354e-33
-2.72772e-32
-3.11947e-31
-2.82879e-30
-2.08921e-29
-1.28216e-28
-6.60457e-28
-2.81231e-27
-9.45351e-27
-2.3345e-26
-3.8526e-26
-3.92029e-26
-2.60219e-26
-6.06528e-27
-8.30646e-29
4.591e-27
5.34257e-25
4.35559e-23
5.09829e-22
1.82232e-22
-1.8591e-31
-1.18544e-33
-1.89673e-34
-2.40799e-34
-2.24076e-33
-2.57115e-32
-2.33409e-31
-1.72804e-30
-1.05966e-29
-5.43194e-29
-2.2958e-28
-7.65375e-28
-1.87338e-27
-3.05385e-27
-3.05553e-27
-1.99091e-27
-4.27951e-28
-7.91789e-30
2.26621e-28
1.68067e-26
1.53436e-24
2.33689e-23
8.56178e-24
-1.41636e-32
-1.00095e-34
-9.8177e-36
-1.61179e-35
-1.68316e-34
-1.93424e-33
-1.75529e-32
-1.30075e-31
-7.96448e-31
-4.0638e-30
-1.70575e-29
-5.63981e-29
-1.36667e-28
-2.19537e-28
-2.15297e-28
-1.3697e-28
-2.68511e-29
-5.47802e-31
8.45824e-30
4.93527e-28
4.55772e-26
9.44925e-25
4.20403e-25
-1.00066e-33
-7.72153e-36
-4.9771e-37
-1.03627e-36
-1.17067e-35
-1.34494e-34
-1.21879e-33
-9.0272e-33
-5.51366e-32
-2.79952e-31
-1.16686e-30
-3.82393e-30
-9.15978e-30
-1.44619e-29
-1.38558e-29
-8.56208e-30
-1.51396e-30
-3.0224e-32
2.61771e-31
1.58655e-29
1.02459e-27
2.85328e-26
1.15224e-25
-6.57412e-35
-5.4246e-37
-2.4811e-38
-6.3877e-38
-7.61975e-37
-8.73454e-36
-7.89855e-35
-5.83925e-34
-3.55464e-33
-1.79499e-32
-7.42641e-32
-2.41e-31
-5.69742e-31
-8.82101e-31
-8.23294e-31
-4.91866e-31
-7.77163e-32
-1.41181e-33
6.3081e-33
4.01366e-31
2.0118e-29
8.17295e-28
2.49699e-26
-4.03656e-36
-3.47633e-38
-1.21725e-39
-3.77654e-39
-4.68099e-38
-5.34398e-37
-4.82043e-36
-3.5523e-35
-2.15383e-34
-1.08108e-33
-4.43718e-33
-1.4248e-32
-3.3196e-32
-5.02984e-32
-4.56316e-32
-2.6268e-32
-3.68372e-33
-5.96232e-35
9.81131e-35
5.9348e-33
3.08299e-31
1.54923e-29
1.13821e-27
-2.33351e-37
-2.04772e-39
-5.86721e-41
-2.14471e-40
-2.73222e-39
-3.10195e-38
-2.79013e-37
-2.04755e-36
-1.23583e-35
-6.16259e-35
-2.50824e-34
-7.96399e-34
-1.82664e-33
-2.70458e-33
-2.38163e-33
-1.31774e-33
-1.63251e-34
-2.30495e-36
1.63423e-36
8.72204e-35
4.05244e-33
1.28857e-31
6.3336e-30
-1.28118e-38
-1.09885e-40
-2.75937e-42
-1.17229e-41
-1.52344e-40
-1.71828e-39
-1.54063e-38
-1.12518e-37
-6.75745e-37
-3.34692e-36
-1.35049e-35
-4.2378e-35
-9.56287e-35
-1.3823e-34
-1.18044e-34
-6.26645e-35
-6.81474e-36
-7.87929e-38
1.71919e-38
8.39016e-37
3.40428e-35
8.28196e-34
1.69359e-32
0.999908
0.999441
0.999505
0.999945
0.999991
0.999988
0.999985
0.999971
0.999992
0.999985
0.999971
0.999877
0.989801
0.988593
0.998518
0.941296
0.47176
0.484289
0.605398
0.356387
0.000347355
0.038315
0.142825
0.171414
0.00012037
0.000619852
0.108487
0.176876
0.000195348
0.00291697
0.126263
0.181009
0.00027475
0.000260657
0.039394
0.181187
0.000203081
0.00022452
0.0372099
0.175386
0.000166126
0.000184098
0.0231568
0.154279
0.000226116
0.000217405
0.00978882
0.107849
0.000156239
0.000152992
0.00106648
0.0553804
3.03199e-05
4.60485e-05
0.000146763
0.0244914
2.02298e-06
8.16644e-06
5.57351e-05
0.00423633
3.07003e-07
2.02287e-06
2.44051e-05
0.000162688
5.70089e-08
4.88062e-07
5.18534e-06
5.14847e-05
9.87493e-09
9.34262e-08
1.12659e-06
1.37904e-05
1.57769e-09
1.50016e-08
2.07365e-07
3.98478e-06
3.30843e-10
1.852e-09
2.23149e-08
2.87596e-07
1.46093e-10
3.15225e-10
2.46807e-09
3.49463e-08
1.05889e-10
1.49611e-10
3.60058e-10
3.91127e-09
6.013e-11
1.44126e-10
1.81741e-10
5.20947e-10
2.32487e-11
8.3773e-11
1.40357e-10
1.71488e-10
6.18123e-12
3.05199e-11
8.0687e-11
1.49306e-10
1.57332e-12
1.17059e-11
5.50457e-11
1.36017e-10
4.86886e-13
5.33199e-12
3.81853e-11
1.08792e-10
1.7825e-13
2.39451e-12
2.0231e-11
5.61901e-11
7.02655e-14
1.11444e-12
8.15029e-12
1.25497e-11
3.53994e-14
5.00068e-13
1.90052e-12
6.24931e-13
1.73342e-14
1.93479e-13
2.3101e-13
2.12148e-13
5.10003e-15
5.51089e-14
2.81742e-13
2.12668e-13
5.94485e-16
1.00001e-14
2.33121e-13
2.88611e-12
2.34848e-17
1.37051e-15
1.13443e-13
3.13178e-12
6.56486e-19
1.55426e-16
3.02787e-14
6.96552e-13
3.37286e-20
9.35205e-18
3.93094e-15
1.02342e-13
1.73959e-21
1.46554e-19
4.53345e-16
1.38138e-14
6.10745e-23
1.39822e-21
7.80056e-17
1.75829e-15
9.38049e-25
1.0602e-22
8.99376e-18
1.83655e-16
1.57589e-26
3.60988e-24
5.42608e-19
6.12273e-17
7.56056e-29
6.82334e-25
1.77488e-20
2.29096e-18
3.59019e-31
1.08267e-26
1.1341e-23
7.54016e-22
0.927406
0.611058
0.320185
0.327543
0.493265
0.794818
0.895301
0.898893
0.898893
0.898893
0.812917
0.279939
0.00702485
0.0228392
0.0231894
0.00586036
0.00572804
0.546157
0.921099
0.999877
0.999165
0.977702
0.958472
0.93433
0.926492
0.662003
0.130435
0.0163145
0.348748
0.737616
0.466101
0.0825617
0.00741967
0.00547395
0.00555333
0.00556829
0.584549
0.918039
0.973901
0.931162
0.809914
0.55146
0.176736
0.00682366
0.005829
0.00571758
0.0118266
0.229136
0.485848
0.300663
0.0318231
0.00524948
0.00533723
0.00547766
0.00555283
0.599874
0.910963
0.396217
0.0281028
0.00254013
0.0106619
0.00790177
0.00806561
0.005829
0.0293718
0.224303
0.250785
0.115185
0.0225527
0.00524975
0.00524974
0.00524975
0.00533723
0.0257808
0.500441
0.898814
0.00117132
0.00156083
0.00203773
0.0025232
0.00454622
0.00830983
0.054441
0.0698319
0.0342969
0.0333166
0.0304899
0.01466
0.00533658
0.00524974
0.00533356
0.00613883
0.00796233
0.233287
0.864582
0.00113562
0.00117132
0.00155678
0.00201593
0.0029974
0.00585869
0.0376072
0.110226
0.162206
0.248761
0.326366
0.321504
0.248032
0.235256
0.218991
0.0927071
0.00932691
0.180631
0.830667
0.00114597
0.00113562
0.00126834
0.0017281
0.00352581
0.00970527
0.076956
0.442169
0.714313
0.818724
0.829489
0.827888
0.824548
0.789339
0.748096
0.624907
0.0571572
0.212678
0.816809
0.00113912
0.00114597
0.0013377
0.00229775
0.00617456
0.0661192
0.533907
0.793509
0.817969
0.829489
0.829489
0.829489
0.717559
0.464417
0.529777
0.630722
0.198304
0.308368
0.831202
0.0121765
0.0013377
0.00161267
0.00275986
0.0126675
0.314024
0.725381
0.772769
0.665535
0.819542
0.829489
0.802757
0.201304
0.104452
0.103805
0.257751
0.260192
0.352623
0.852586
0.0184889
0.00161299
0.00171858
0.00250847
0.0176782
0.353426
0.697895
0.44372
0.0549782
0.323724
0.821814
0.749889
0.245761
0.103625
0.10519
0.112958
0.29741
0.736307
0.925623
0.0253916
0.00171858
0.00174627
0.00230701
0.0206816
0.317349
0.555475
0.034293
0.00522588
0.0667951
0.618483
0.750985
0.772424
0.255516
0.112958
0.296609
0.821522
0.925621
0.925621
0.0525995
0.00174627
0.0018451
0.00261048
0.0168912
0.274488
0.417712
0.000371689
0.00132245
0.0047803
0.13318
0.710462
0.811995
0.827575
0.691726
0.760338
0.922598
0.925614
0.925622
0.0843885
0.0176642
0.00261048
0.00361262
0.035584
0.427362
0.316883
8.51176e-05
0.000184354
0.000715938
0.00282079
0.133794
0.691071
0.864425
0.883821
0.902817
0.919177
0.925327
0.925614
0.0843885
0.0505524
0.00361262
0.00460037
0.253057
0.427362
0.0541689
2.44841e-05
1.43924e-05
2.2433e-05
-9.50962e-06
2.33149e-05
0.0206442
0.414787
0.611624
0.677646
0.723251
0.897786
0.925327
0.0331509
0.0314918
0.0159297
0.174087
0.252153
0.238983
2.45352e-05
1.41276e-05
1.21321e-05
1.31429e-05
1.3765e-05
1.49099e-05
2.6226e-05
5.35586e-05
0.000226128
0.00947908
0.0784197
0.371873
0.922092
0.00111081
0.0153146
0.119259
0.180376
0.186391
0.000399742
1.41328e-05
1.16469e-05
1.14621e-05
1.21321e-05
1.34755e-05
1.60181e-05
1.72131e-05
2.40636e-05
4.55594e-05
0.0001066
0.000906201
0.0279207
0.517267
0.000430993
0.0195363
0.106289
0.0988281
0.00893292
6.41192e-05
1.16469e-05
1.00846e-05
1.12635e-05
2.18916e-05
2.25166e-05
1.74266e-05
1.70202e-05
1.73597e-05
2.88835e-05
8.10253e-06
9.78226e-05
0.0133515
0.0725149
0.00107587
0.0109065
0.00977019
0.00392511
0.000296038
0.000136957
1.16763e-05
7.49127e-06
6.70995e-06
3.51014e-05
3.74437e-05
2.43053e-05
1.83147e-05
5.21848e-05
5.5716e-05
2.78871e-06
5.25481e-06
0.00628405
0.00710197
0.000220936
0.000230262
0.000301556
0.000178554
0.000210506
0.000199341
6.81481e-05
6.86205e-06
3.11158e-06
2.86155e-06
2.95521e-05
2.93659e-05
2.16454e-05
5.05474e-05
4.98639e-05
2.5648e-07
1.91162e-06
0.0063318
0.011656
3.70048e-06
3.1171e-05
3.61613e-05
2.30387e-05
2.14958e-05
2.76749e-05
3.45633e-05
2.38221e-05
6.47132e-07
1.23658e-07
1.16732e-07
1.93239e-05
6.07316e-06
3.0903e-07
1.45644e-06
4.18515e-08
0.000766031
0.0132067
0.0799031
5.07801e-07
3.26651e-06
3.37912e-06
1.87601e-06
6.6457e-07
8.8649e-08
1.44136e-07
2.98093e-07
2.47255e-07
9.77056e-08
8.50607e-08
6.97414e-08
4.15449e-07
4.83739e-08
4.70024e-08
4.76465e-08
0.00741838
0.0153951
0.0839348
5.91536e-08
2.71306e-07
2.47879e-07
1.24979e-07
2.96457e-08
9.57575e-09
1.74077e-08
3.51044e-08
4.57973e-08
6.49119e-08
6.97419e-08
5.46496e-08
4.83739e-08
4.69211e-08
4.70024e-08
4.69602e-08
0.0130766
0.014678
0.0839925
5.69811e-09
1.84837e-08
1.46468e-08
4.89153e-09
4.55898e-09
5.18193e-09
8.03297e-09
1.51833e-08
5.01299e-08
9.73331e-08
9.24947e-08
1.07493e-07
6.07174e-08
4.77317e-08
4.69163e-08
4.76465e-08
0.012731
0.0106525
0.0803005
5.23601e-10
1.28676e-09
9.60564e-10
4.50242e-10
3.76832e-09
4.57777e-09
4.84701e-09
1.0385e-07
2.33955e-06
1.68547e-06
7.1802e-07
1.0168e-06
2.54312e-07
5.13556e-08
4.77317e-08
5.12704e-08
0.00787516
0.00841158
0.0385857
1.93963e-10
3.21005e-10
2.5796e-10
2.58303e-10
4.10333e-10
3.18503e-09
2.84322e-06
4.1175e-05
0.000108665
9.95665e-05
3.40612e-05
7.13293e-07
1.232e-07
5.8322e-08
5.13556e-08
5.83217e-08
0.00406955
0.0230037
0.0767655
1.69485e-10
2.35525e-10
2.19137e-10
2.39419e-10
3.13298e-06
2.82232e-07
8.98095e-06
0.000128799
0.000148651
0.000148514
0.000126166
1.25732e-05
2.02613e-07
6.86833e-08
5.8322e-08
6.86881e-08
0.00274572
0.0747502
0.0966301
1.17156e-10
2.88996e-11
2.98271e-11
1.35068e-05
1.61167e-05
1.28445e-05
1.78129e-06
1.76806e-06
0.000121866
0.000149441
0.000148649
5.81863e-05
2.48378e-07
7.69044e-08
6.86885e-08
0.00324833
0.00316971
0.0960936
0.0966301
4.30835e-11
2.70723e-12
2.05978e-05
2.51215e-05
1.665e-05
3.40785e-07
2.51683e-07
2.70094e-07
2.57231e-05
0.000148637
0.000149441
6.47018e-05
1.8042e-06
2.48363e-07
7.44324e-05
0.00413882
0.00369185
0.0497624
0.0966301
5.11171e-12
2.78237e-12
1.29955e-05
8.94272e-06
1.13577e-07
2.02923e-07
2.51683e-07
2.51683e-07
7.56759e-05
0.000148788
0.000148649
2.18088e-05
3.19327e-06
1.80327e-06
0.000104775
0.00677178
0.00998371
0.0101997
0.0960825
1.9182e-12
5.52338e-07
1.30514e-07
1.34805e-09
8.34114e-08
1.13577e-07
2.02923e-07
2.61586e-07
0.000112902
0.000148574
4.97668e-05
4.90658e-06
3.19258e-06
1.33164e-05
0.00186217
0.0133618
0.013281
0.00644014
0.0953374
2.15405e-09
9.34453e-08
2.278e-08
1.8703e-11
5.21788e-07
9.13381e-07
2.61586e-07
3.90629e-06
7.72681e-05
7.03164e-05
9.62439e-06
6.61867e-06
9.53005e-06
0.000360944
0.00712478
0.00756578
0.00758513
0.00623253
0.0943737
2.85392e-09
1.65379e-09
1.33533e-12
4.062e-12
1.8703e-11
6.35882e-06
2.16756e-06
2.54035e-06
6.50628e-06
7.24527e-06
1.01732e-05
1.12473e-05
0.000131849
0.00389271
0.00462535
1.43936e-05
1.31464e-05
0.00514461
0.0740438
6.8822e-11
1.33529e-12
9.85217e-13
1.33533e-12
4.062e-12
6.96009e-06
7.18434e-06
1.3005e-05
8.54666e-06
9.91735e-06
1.2827e-05
4.33425e-05
0.0021359
0.00375388
0.000427198
1.19529e-05
9.37902e-06
0.000788157
0.000532317
7.82224e-12
7.46135e-12
8.70742e-13
6.91106e-13
2.98397e-11
5.85992e-06
3.4367e-05
5.76461e-05
3.48909e-05
1.2827e-05
1.62042e-05
0.000771684
0.00241031
0.00117549
1.49261e-05
1.49779e-05
8.69128e-06
6.41085e-06
0.000330432
1.70583e-12
9.44561e-13
2.13404e-13
2.62814e-13
1.85716e-10
1.7953e-05
5.78136e-05
5.77724e-05
5.71163e-05
1.63279e-05
1.92295e-05
0.000757575
0.00228247
2.97514e-05
2.82348e-05
2.59064e-05
1.61935e-06
2.13504e-06
0.0838868
8.41156e-14
3.39812e-14
2.38502e-14
3.81256e-13
3.33881e-07
3.73648e-05
5.7814e-05
5.78136e-05
5.75675e-05
1.94052e-05
3.11804e-05
0.000771646
0.00137105
9.95742e-05
5.56399e-05
4.15251e-06
1.42801e-07
6.15201e-07
0.165652
1.12997e-14
9.5931e-15
-6.21447e-15
8.05556e-12
9.89445e-07
4.37103e-05
5.78136e-05
5.78142e-05
5.7787e-05
2.12264e-05
1.35647e-05
0.000559525
0.000357175
9.99442e-05
4.72813e-07
8.91732e-08
1.37962e-08
0.000706663
0.165921
3.00177e-15
2.94722e-15
3.56192e-14
1.83524e-10
3.8737e-07
3.69086e-05
5.78138e-05
5.7813e-05
5.77737e-05
1.6175e-05
1.29594e-05
6.03857e-05
3.16586e-05
4.83176e-07
8.91692e-08
2.41813e-08
1.07212e-08
0.00147898
0.165921
2.54569e-15
-1.55339e-14
1.99528e-12
2.90556e-10
1.47165e-08
1.46627e-05
5.56211e-05
5.77737e-05
3.72087e-05
2.68167e-06
3.72317e-06
7.67528e-07
3.12231e-06
2.0436e-06
9.83481e-07
4.65467e-08
5.50973e-09
0.00154147
0.165753
8.19329e-17
-2.8854e-14
3.2291e-12
4.38501e-10
8.90694e-07
3.66312e-06
9.16588e-06
1.91953e-05
1.89761e-06
7.76986e-08
6.48518e-08
3.20508e-07
2.07719e-06
4.05349e-06
3.56316e-06
9.07768e-08
6.95324e-10
0.00338259
0.0732553
3.19384e-17
3.79571e-16
-6.74135e-14
2.32772e-09
1.87993e-08
1.38124e-09
1.20579e-08
5.05068e-08
7.89885e-08
5.69792e-08
4.89841e-08
1.4134e-06
4.04365e-06
4.05349e-06
8.81885e-07
2.31363e-11
1.97158e-13
2.20434e-15
5.79826e-18
3.96565e-21
3.40902e-17
6.98866e-14
1.23294e-11
1.41242e-11
1.65178e-10
2.1241e-09
1.81029e-08
1.06567e-07
5.6991e-08
4.89841e-08
2.52746e-06
3.15365e-06
5.75492e-08
-5.90894e-17
-9.08189e-22
-3.84927e-26
2.91412e-31
-1.79584e-48
)
;

boundaryField
{
    leftWall
    {
        type            zeroGradient;
    }
    rightWall
    {
        type            zeroGradient;
    }
    lowerWall
    {
        type            zeroGradient;
    }
    atmosphere
    {
        type            inletOutlet;
        inletValue      uniform 0;
        value           nonuniform List<scalar> 
46
(
-1.28118e-38
-1.09885e-40
-2.75937e-42
-1.17229e-41
-1.52344e-40
-1.71828e-39
-1.54063e-38
-1.12518e-37
-6.75745e-37
-3.34692e-36
-1.35049e-35
-4.2378e-35
-9.56287e-35
-1.3823e-34
-1.18044e-34
-6.26645e-35
-6.81474e-36
-7.87929e-38
1.71919e-38
8.39016e-37
3.40428e-35
8.28196e-34
1.69359e-32
3.59019e-31
1.08267e-26
1.1341e-23
0
0
0
6.98866e-14
1.23294e-11
1.41242e-11
1.65178e-10
2.1241e-09
1.81029e-08
1.06567e-07
5.6991e-08
4.89841e-08
0
0
0
0
0
0
0
0
)
;
    }
    defaultFaces
    {
        type            empty;
    }
}


// ************************************************************************* //
