/*--------------------------------*- C++ -*----------------------------------*\
| =========                 |                                                 |
| \\      /  F ield         | OpenFOAM: The Open Source CFD Toolbox           |
|  \\    /   O peration     | Version:  2206                                  |
|   \\  /    A nd           | Website:  www.openfoam.com                      |
|    \\/     M anipulation  |                                                 |
\*---------------------------------------------------------------------------*/
FoamFile
{
    version     2.0;
    format      ascii;
    arch        "LSB;label=32;scalar=64";
    class       surfaceScalarField;
    location    "0.625";
    object      alphaPhi0.water;
}
// * * * * * * * * * * * * * * * * * * * * * * * * * * * * * * * * * * * * * //

dimensions      [0 3 -1 0 0 0 0];

oriented        oriented;

internalField   nonuniform List<scalar> 
4432
(
-3.23946e-06
3.23946e-06
-6.10238e-06
2.86292e-06
-7.04785e-06
9.45475e-07
-6.71011e-06
-3.37748e-07
-5.15854e-06
-1.55157e-06
-2.25001e-06
-2.90853e-06
1.46127e-06
-3.71128e-06
4.78203e-06
-3.32076e-06
6.91681e-06
-2.13478e-06
7.71796e-06
-8.01153e-07
7.36022e-06
3.57741e-07
6.08222e-06
1.278e-06
4.18556e-06
1.89666e-06
1.80251e-06
2.38305e-06
-1.14489e-06
2.9474e-06
-4.94092e-06
3.79603e-06
-9.25838e-06
4.31769e-06
-1.17086e-05
3.29685e-06
-1.49232e-05
3.04535e-06
-2.17723e-05
5.57453e-06
-2.49725e-05
3.20071e-06
-1.66572e-05
-8.31494e-06
-1.66569e-05
-3.85499e-06
7.09445e-06
-5.96897e-06
4.9769e-06
-6.45684e-06
1.43335e-06
-6.27946e-06
-5.15129e-07
-5.06216e-06
-2.76887e-06
-2.33403e-06
-5.63666e-06
1.41213e-06
-7.45744e-06
4.84459e-06
-6.75322e-06
7.04171e-06
-4.33189e-06
7.90414e-06
-1.66358e-06
7.83474e-06
4.2714e-07
7.24311e-06
1.86962e-06
6.29016e-06
2.84962e-06
5.06163e-06
3.61158e-06
3.46874e-06
4.54029e-06
1.21907e-06
6.04568e-06
-2.42617e-06
7.9629e-06
-7.85508e-06
8.9443e-06
-1.36879e-05
9.78648e-06
-1.88052e-05
1.0055e-05
-1.90361e-05
2.87278e-06
-1.20149e-05
-1.51977e-05
-2.86716e-05
-2.92064e-06
1.00151e-05
-4.51322e-06
6.56947e-06
-5.21244e-06
2.13257e-06
-5.56418e-06
-1.63391e-07
-4.92665e-06
-3.40641e-06
-2.54691e-06
-8.0164e-06
1.09334e-06
-1.10977e-05
4.53841e-06
-1.01983e-05
6.73144e-06
-6.52492e-06
7.50671e-06
-2.43886e-06
7.2594e-06
6.74455e-07
6.43779e-06
2.69123e-06
5.40023e-06
3.88717e-06
4.38659e-06
4.62521e-06
3.57098e-06
5.3559e-06
3.05652e-06
6.56014e-06
2.39969e-06
8.61972e-06
2.23031e-07
1.1121e-05
-3.31543e-06
1.35901e-05
-6.72088e-06
1.40046e-05
-7.77209e-06
3.7399e-06
-4.87772e-06
-1.77135e-05
-3.35608e-05
-1.51099e-06
1.15261e-05
-2.34797e-06
7.40644e-06
-3.07929e-06
2.86389e-06
-3.51708e-06
2.74401e-07
-2.98096e-06
-3.94253e-06
-9.05443e-07
-1.00919e-05
1.9023e-06
-1.39054e-05
4.60971e-06
-1.29057e-05
6.33966e-06
-8.25486e-06
6.89434e-06
-2.99354e-06
6.53602e-06
1.03277e-06
5.64662e-06
3.58063e-06
4.5641e-06
4.96969e-06
3.54605e-06
5.64327e-06
2.7648e-06
6.13714e-06
2.47848e-06
6.84646e-06
3.04483e-06
8.05339e-06
3.92341e-06
1.02424e-05
4.72579e-06
1.27878e-05
5.14326e-06
1.3976e-05
3.62235e-06
5.07692e-06
2.46311e-06
-1.68928e-05
-3.11098e-05
3.77785e-07
1.11483e-05
8.85926e-07
6.8983e-06
8.29292e-07
2.92053e-06
1.24883e-06
-1.45133e-07
2.46851e-06
-5.16221e-06
3.99086e-06
-1.16143e-05
5.27953e-06
-1.51941e-05
6.05687e-06
-1.36831e-05
6.36044e-06
-8.55842e-06
6.2051e-06
-2.8382e-06
5.6338e-06
1.60406e-06
4.743e-06
4.47143e-06
3.75543e-06
5.95726e-06
2.90446e-06
6.49423e-06
2.26434e-06
6.77727e-06
1.96722e-06
7.14357e-06
2.43464e-06
7.58597e-06
4.10869e-06
8.56835e-06
7.20017e-06
9.69635e-06
1.06565e-05
1.05199e-05
1.06954e-05
4.96407e-06
6.84262e-06
-1.32864e-05
-2.42677e-05
2.90244e-06
8.24586e-06
5.38011e-06
4.42064e-06
7.06095e-06
1.23968e-06
9.26991e-06
-2.35409e-06
1.14455e-05
-7.33778e-06
1.20422e-05
-1.2211e-05
1.09284e-05
-1.40803e-05
9.02447e-06
-1.17792e-05
7.20774e-06
-6.74169e-06
5.77448e-06
-1.40493e-06
4.70548e-06
2.67306e-06
3.7338e-06
5.44311e-06
2.86198e-06
6.82908e-06
2.25109e-06
7.10512e-06
1.85904e-06
7.16932e-06
1.72606e-06
7.27655e-06
2.08493e-06
7.2271e-06
3.39313e-06
7.26015e-06
6.1415e-06
6.94798e-06
1.01788e-05
6.48262e-06
1.19747e-05
3.16935e-06
8.08071e-06
-9.3925e-06
-1.61873e-05
5.23349e-06
3.01237e-06
1.04825e-05
-8.28333e-07
1.56045e-05
-3.88239e-06
2.00332e-05
-6.78296e-06
2.17561e-05
-9.06092e-06
1.99557e-05
-1.04108e-05
1.61113e-05
-1.02358e-05
1.20052e-05
-7.67308e-06
8.58492e-06
-3.32141e-06
5.90343e-06
1.27656e-06
4.08478e-06
4.49171e-06
2.78127e-06
6.74662e-06
1.92289e-06
7.68745e-06
1.57587e-06
7.45214e-06
1.46056e-06
7.28463e-06
1.52603e-06
7.21108e-06
1.96805e-06
6.78507e-06
3.028e-06
6.2002e-06
4.76608e-06
5.2099e-06
7.70033e-06
3.54837e-06
9.70677e-06
1.1629e-06
7.45487e-06
-7.14058e-06
-8.73283e-06
8.38589e-06
-5.18642e-06
1.78142e-05
-9.49132e-06
2.46503e-05
-9.47304e-06
2.73094e-05
-8.04652e-06
2.56795e-05
-6.08374e-06
2.15152e-05
-4.91886e-06
1.67979e-05
-4.88186e-06
1.2439e-05
-3.31504e-06
9.16776e-06
-4.92554e-08
6.53545e-06
3.90886e-06
4.31225e-06
6.71491e-06
2.45392e-06
8.60494e-06
1.2228e-06
8.91857e-06
8.81948e-07
7.793e-06
9.19699e-07
7.24688e-06
1.14521e-06
6.98557e-06
1.75781e-06
6.17247e-06
2.89053e-06
5.06748e-06
4.19619e-06
3.90423e-06
5.91327e-06
1.83129e-06
7.19462e-06
-1.18441e-07
6.00181e-06
-5.94778e-06
-2.73159e-06
3.93194e-06
-4.5949e-06
8.96067e-07
1.22142e-06
-1.52658e-05
8.90444e-06
-6.28908e-05
4.32749e-05
-0.000111057
4.39817e-05
-0.000133559
1.82966e-05
-0.000142518
4.60972e-06
-0.000148249
1.88032e-06
-0.00015191
1.52893e-06
-0.000154581
2.25897e-06
-0.000157381
2.83328e-06
-0.000158529
1.18506e-06
-0.000154705
-3.82154e-06
-0.000144375
-1.0343e-05
-0.000127309
-1.70304e-05
-9.90971e-05
-2.81535e-05
-5.17671e-05
-4.72347e-05
-1.69206e-06
-4.96663e-05
-1.89924e-06
3.16017e-06
-6.67136e-06
-2.95845e-06
5.53148e-06
-5.37301e-05
4.4017e-05
-9.19559e-05
7.66829e-05
-9.23217e-05
2.41398e-05
-9.43291e-05
4.86862e-06
-0.000104067
1.78511e-07
-0.000118933
3.40682e-08
-0.000136195
1.05693e-07
-0.000147912
2.97141e-07
-0.000152185
-2.17723e-08
-0.000152525
-1.70382e-06
-0.000152941
-6.1751e-06
-0.00014875
-1.61194e-05
-0.000136082
-3.07369e-05
-0.00011499
-4.92378e-05
-7.61346e-05
-8.60873e-05
-2.57792e-05
-0.00010002
-2.76768e-05
-1.3036e-07
-5.33417e-06
-2.08346e-05
2.02994e-05
-6.44738e-05
8.01488e-05
-2.42751e-05
3.27929e-05
-5.60086e-06
5.25382e-06
-1.5709e-06
7.25747e-07
-2.3259e-06
3.0016e-08
-4.96402e-06
-8.75651e-08
-7.3829e-06
-2.51326e-07
-9.49681e-06
-3.32178e-07
-1.15393e-05
-6.3525e-07
-1.47595e-05
-1.14428e-06
-2.39134e-05
-1.7315e-06
-4.78698e-05
-2.13551e-06
-8.23841e-05
-7.1212e-06
-0.000107033
-2.78904e-05
-8.5891e-05
-0.000107198
-4.12826e-05
-0.000144627
-6.89579e-05
-3.52668e-06
-2.55044e-06
-2.0484e-05
3.22014e-05
-2.38698e-05
7.46166e-05
-4.07736e-06
1.35771e-05
-6.93751e-07
1.74143e-06
-2.78409e-07
1.92497e-07
-3.71952e-07
5.20854e-09
-4.471e-07
-1.30768e-07
-4.68433e-07
-3.59248e-07
-1.01494e-06
-1.33575e-07
-1.57333e-06
-5.50456e-08
-1.46787e-06
-3.02584e-07
-1.30714e-06
-7.77049e-07
-2.03201e-06
-7.35856e-07
-8.08795e-06
-4.76625e-07
-3.59931e-05
-3.57638e-06
-7.59007e-05
-6.88546e-05
-4.68232e-05
-0.000173702
-0.000115779
-3.2436e-06
2.94732e-08
-1.51238e-05
4.56982e-05
-1.17652e-05
6.74991e-05
-1.09204e-06
3.5434e-06
-8.66931e-08
6.5559e-07
-4.68488e-08
5.31882e-08
-1.00771e-07
-5.92195e-08
-2.2012e-07
-1.04137e-07
-1.34527e-07
-6.41852e-07
-1.05391e-07
-2.84805e-07
-1.89433e-07
-6.25734e-08
-5.19728e-07
-3.33289e-08
-8.03939e-07
-7.77936e-08
-3.23164e-07
-3.4273e-07
-6.13713e-08
-1.25495e-07
-2.69578e-06
-3.92232e-07
-4.91887e-05
-1.94276e-05
-4.45328e-05
-0.000175033
-0.000160309
-3.5013e-06
1.9497e-06
-1.02086e-05
4.73079e-05
6.84402e-07
5.06177e-05
4.21803e-07
4.25092e-06
2.9473e-07
8.17655e-07
2.19468e-07
6.18666e-08
1.18716e-06
-1.11962e-06
3.58904e-06
-2.66999e-06
2.17769e-06
-1.63835e-06
2.11367e-07
-1.91076e-08
-2.12668e-09
8.98801e-08
-3.66438e-08
-5.98524e-08
-1.15991e-07
-5.94868e-08
-1.20091e-07
-9.26636e-08
-6.76385e-08
-1.57211e-07
1.66153e-07
-1.58917e-07
-1.22888e-05
-5.30659e-06
-3.57433e-05
-0.000149677
-0.000196044
-6.23556e-07
2.30968e-06
5.86599e-07
3.02013e-05
7.69942e-06
2.39883e-05
1.46517e-06
9.94967e-06
1.59126e-06
1.36506e-06
7.41207e-06
8.4501e-07
4.71972e-05
-7.28343e-06
7.59083e-05
-1.68955e-05
6.70144e-05
-9.842e-06
1.42434e-05
6.38892e-06
1.68884e-06
4.55473e-06
3.08616e-07
1.25933e-06
1.44471e-08
2.18711e-07
-1.78215e-08
-6.88479e-08
6.2504e-08
-1.56401e-07
3.25052e-07
-3.74164e-07
-1.40992e-06
-1.22396e-06
-2.31777e-05
-0.00012704
-0.0002192
1.4559e-07
1.9488e-06
4.90184e-06
2.87821e-05
6.77968e-06
2.42081e-05
4.82776e-06
1.46655e-05
7.32144e-06
7.22306e-06
5.76466e-05
8.45633e-06
9.80937e-05
-5.70038e-06
9.74455e-05
-1.49778e-05
8.90484e-05
-1.18992e-05
3.16071e-05
4.14013e-06
4.90974e-06
1.07527e-05
1.35573e-06
4.38258e-06
5.42955e-07
9.26353e-07
9.05753e-07
-2.78565e-07
1.32703e-06
-6.2527e-07
1.2464e-06
-2.38014e-07
2.99529e-06
5.79791e-07
-1.05933e-05
-0.000110694
-0.00022974
1.16966e-05
-4.95085e-09
1.40829e-05
-1.56635e-07
1.29091e-05
-8.34854e-07
1.14241e-05
-6.8893e-07
1.08166e-05
-6.01865e-07
1.11074e-05
-4.1109e-07
1.17977e-05
-9.82479e-07
1.14732e-05
-5.28301e-07
1.07148e-05
9.01775e-07
1.02332e-05
3.3915e-06
8.84964e-06
8.09848e-06
5.68586e-06
1.17687e-05
3.1385e-06
1.14659e-05
2.8537e-06
8.0778e-06
2.62085e-06
7.47972e-06
2.30113e-06
7.30529e-06
2.98318e-06
5.49042e-06
5.0749e-06
2.97577e-06
7.53744e-06
1.44169e-06
1.01387e-05
-7.7001e-07
1.28067e-05
-2.78645e-06
1.38829e-05
-7.02393e-06
-1.9705e-06
1.31218e-05
-4.97876e-09
-2.92068e-12
-1.61389e-07
-8.48736e-10
-9.95694e-07
8.92273e-10
-2.54869e-06
-1.61002e-11
-3.83526e-06
-1.75798e-10
-4.21545e-06
-1.46563e-09
-4.88199e-06
-9.83591e-09
-5.60573e-06
-5.43787e-08
-6.23097e-06
-2.46401e-07
-6.11056e-06
-6.88577e-07
-4.54589e-06
3.40242e-08
-1.08998e-06
1.22579e-06
3.35312e-06
2.91989e-06
6.78679e-06
3.55092e-06
6.10481e-06
8.1617e-06
3.40625e-06
1.00038e-05
2.50857e-06
6.3881e-06
4.22652e-06
1.25781e-06
6.17204e-06
-5.03829e-07
8.06538e-06
-2.66335e-06
1.05155e-05
-5.2366e-06
1.17738e-05
-8.28221e-06
-6.24314e-06
1.60465e-05
-2.40322e-11
-1.85265e-13
-8.91357e-10
4.3471e-12
-1.09383e-12
3.56651e-13
-1.72244e-11
-4.67562e-15
-1.92528e-10
-6.94082e-13
-1.65379e-09
-7.75135e-12
-1.14878e-08
-1.79511e-11
-6.58888e-08
2.01314e-11
-3.12197e-07
-9.73645e-11
-9.99763e-07
-1.04687e-09
-3.30892e-06
-9.04411e-09
-5.78037e-06
-6.69923e-08
-8.03195e-06
-3.71007e-07
-9.49367e-06
-1.61231e-06
-5.88305e-06
-2.03844e-06
-8.80572e-07
2.08531e-07
5.71718e-06
-5.02271e-07
1.0199e-05
-2.03935e-06
1.05291e-05
-7.65654e-07
9.85819e-06
-1.99215e-06
1.13871e-05
-6.76478e-06
1.26887e-05
-9.58305e-06
-9.9173e-06
1.63631e-05
-2.91149e-12
-4.15533e-15
-5.57288e-13
7.40547e-13
-1.40699e-15
-2.34343e-13
-3.19363e-14
8.67945e-16
-7.28129e-13
-6.99663e-15
-8.60161e-12
6.35867e-15
-2.70267e-11
2.46209e-14
-6.8609e-12
2.27865e-14
-1.0429e-10
6.05569e-14
-1.15079e-09
-1.48369e-13
-1.01942e-08
-4.61596e-13
-7.71794e-08
-6.97053e-12
-4.48055e-07
-1.31792e-10
-2.05884e-06
-1.50926e-09
-4.63253e-06
-2.41454e-09
-6.0087e-06
-5.87883e-09
-8.00837e-06
-4.04039e-08
-9.60288e-06
-2.81994e-07
-6.6486e-06
-1.35702e-06
-2.05214e-06
-3.08273e-06
7.01794e-06
-7.25222e-06
1.33581e-05
-9.62969e-06
-9.47102e-06
1.53037e-05
-2.37068e-13
7.57883e-16
2.84074e-13
3.33858e-14
3.8327e-13
-2.16761e-15
1.2465e-14
6.80959e-14
1.5059e-16
3.18944e-16
1.31118e-15
4.86647e-16
1.33265e-14
1.20038e-15
2.62398e-14
2.43819e-15
1.566e-14
5.91952e-15
-5.32553e-15
-1.83836e-13
-2.73493e-13
-2.62625e-13
-7.33089e-12
1.2813e-14
-8.99593e-11
-4.93447e-11
-2.03152e-10
-1.39658e-09
-7.82647e-10
-1.81419e-09
-5.67873e-09
-6.42531e-10
-4.55367e-08
-4.39695e-11
-3.2656e-07
-6.28186e-10
-1.68316e-06
-3.59802e-10
-3.07772e-06
-2.85762e-09
-7.28567e-06
-1.33317e-08
-1.12874e-05
-7.6129e-08
-4.21419e-07
-1.54212e-05
-3.72632e-15
1.74866e-16
1.37696e-14
8.75082e-16
2.85388e-14
3.80777e-16
4.33513e-15
1.01735e-15
3.73796e-17
1.81764e-16
1.71779e-16
1.4992e-16
5.39757e-16
3.50458e-16
-6.02498e-15
8.39685e-16
-3.52064e-13
2.55729e-13
-1.0875e-13
1.66103e-13
1.6898e-13
9.39696e-13
-1.64599e-14
2.1581e-14
-5.09634e-10
1.79096e-11
-8.82183e-10
-5.01074e-10
-1.67784e-09
-6.07582e-10
-3.75122e-10
-4.12012e-13
-3.42213e-11
1.098e-13
-5.47263e-11
-8.7097e-13
-1.67364e-10
-1.05809e-10
-1.55763e-09
-1.4138e-09
-1.12328e-08
-3.70393e-09
-8.38029e-08
-4.38834e-09
-2.96278e-09
-5.07894e-07
-2.43146e-17
1.10292e-17
2.97675e-16
2.65844e-17
6.63631e-16
6.24813e-17
5.69653e-17
3.00467e-17
1.12775e-17
6.81102e-17
2.27622e-17
1.46393e-16
5.06131e-17
1.77683e-16
-5.19574e-16
9.62992e-16
-7.71012e-13
4.13439e-13
-1.12754e-12
9.28133e-13
3.48959e-13
8.05236e-13
1.14823e-14
3.06609e-13
-2.31122e-10
1.26332e-11
-4.53832e-10
-2.34343e-13
-3.15346e-13
-5.52228e-17
-7.30419e-13
-2.83602e-15
-6.49498e-13
-2.23753e-14
4.76906e-11
-4.51005e-13
3.68681e-11
-1.24288e-10
-5.68721e-10
-5.20817e-10
-5.43913e-10
-5.05448e-09
-6.98594e-10
-1.42661e-09
1.16556e-09
-8.08452e-09
-3.64729e-19
5.79177e-19
3.69803e-18
1.22354e-18
1.11501e-17
4.61527e-18
4.17372e-18
8.82715e-18
1.22095e-17
6.37506e-17
2.16526e-17
1.68425e-16
2.24935e-17
2.30938e-16
4.70154e-16
5.44568e-16
-3.87875e-13
7.4485e-14
-1.16545e-12
6.91837e-13
-6.42164e-13
9.97269e-13
-1.34747e-12
1.04143e-12
-1.01227e-15
-1.24945e-12
-3.57132e-17
-2.35937e-13
-6.69961e-16
-3.7947e-17
-3.60517e-15
-5.17784e-16
-9.62869e-15
-2.22488e-14
1.02844e-13
-7.68993e-13
8.19575e-11
-2.59433e-11
-9.89433e-12
-6.80398e-10
5.78556e-09
-1.06295e-08
8.83694e-09
-4.22646e-09
5.91078e-09
1.05162e-08
-1.05593e-20
2.94173e-20
2.63862e-20
2.62377e-20
3.59019e-19
2.3753e-19
1.31813e-18
4.81981e-18
8.92489e-18
5.35273e-17
2.12971e-17
1.65241e-16
2.52051e-17
2.49327e-16
9.69561e-17
2.74176e-16
1.48424e-15
6.20961e-15
-4.39571e-14
-3.26417e-14
1.91224e-13
4.34668e-13
-5.23266e-12
1.13192e-12
-2.56724e-13
2.39509e-12
-8.811e-16
-9.64996e-14
-1.48431e-15
-5.16839e-17
-1.1682e-15
-1.6624e-15
-1.80358e-12
-7.17148e-14
3.3677e-13
-1.65607e-11
7.38722e-13
-9.00707e-11
9.64439e-10
-6.31122e-11
4.40523e-09
-7.36368e-09
9.23173e-09
-9.75284e-09
4.61262e-10
1.05431e-08
-1.96591e-22
1.41419e-21
1.66461e-22
6.40545e-22
1.34957e-20
1.90938e-20
4.58915e-19
2.07086e-18
4.59061e-18
2.47691e-17
1.65043e-17
1.01047e-16
3.20166e-17
2.27674e-16
6.83148e-17
2.8015e-16
1.45715e-15
7.95e-15
2.50513e-16
1.44377e-14
6.29926e-16
2.45769e-15
-4.02968e-13
9.65706e-14
-4.23571e-13
3.91901e-14
-5.63945e-15
4.05399e-14
-6.24955e-15
-2.70096e-16
-3.06028e-15
-6.69899e-15
-3.12451e-12
-9.53043e-13
-3.70875e-11
-3.48931e-11
7.48774e-12
-7.82312e-12
-3.62222e-10
-1.67798e-10
-6.02186e-10
-6.26599e-09
-3.42918e-10
-9.76058e-09
2.75345e-09
-7.20034e-10
-8.43689e-25
6.02072e-22
1.35625e-24
4.73893e-22
9.09052e-22
3.28983e-21
1.00669e-19
5.84478e-19
1.31071e-18
7.40245e-18
6.87686e-18
3.97993e-17
1.80646e-17
1.57496e-16
5.05856e-17
1.64341e-16
1.89675e-15
4.34486e-15
5.0767e-15
4.8667e-14
7.42661e-16
3.74999e-14
-1.29894e-15
1.87919e-15
-1.24531e-15
-5.48434e-15
-1.48629e-15
-5.735e-16
9.92985e-15
3.29841e-16
1.72203e-15
-6.42561e-18
-1.60913e-11
-3.72289e-14
-1.10781e-12
-4.08206e-12
-4.59431e-11
-6.51377e-12
-4.12885e-10
-2.51886e-10
-4.54463e-09
-7.14884e-09
-6.54946e-09
-7.25077e-09
2.55536e-09
-9.00351e-09
2.75785e-25
3.33597e-23
-5.45329e-25
-9.54719e-23
7.58963e-23
5.60888e-22
1.36702e-20
1.32347e-19
1.95858e-19
1.81508e-18
1.29705e-18
1.19458e-17
6.68127e-18
8.68335e-17
1.52119e-17
1.56846e-16
3.95758e-16
3.17277e-16
1.69173e-15
4.91076e-14
-3.10067e-15
5.24489e-14
-1.10971e-14
4.11772e-14
-1.2328e-14
3.55178e-14
-9.37023e-16
8.23211e-15
-1.01803e-16
7.16667e-17
-9.03362e-16
1.34791e-17
-3.93255e-14
-3.22036e-16
-4.05856e-12
-9.67942e-14
-8.41575e-12
-3.33641e-12
-1.36138e-09
-6.98334e-11
-5.59418e-09
-4.18057e-09
-7.52564e-09
-5.52651e-09
9.9858e-10
-3.25e-09
-1.68527e-24
-1.34973e-22
-1.07507e-24
-1.8453e-22
3.57428e-24
5.41973e-23
3.43022e-22
2.49952e-20
-5.53648e-22
3.82784e-19
-1.34213e-19
3.26468e-18
-1.36888e-18
4.89099e-17
-2.60063e-18
1.72938e-16
-4.54005e-16
1.80973e-16
-3.0655e-15
1.20667e-14
-1.2711e-14
3.54485e-14
-2.03004e-14
5.89803e-14
-6.90513e-15
4.40023e-14
-1.09162e-16
6.96901e-16
-5.14211e-17
1.3594e-17
-1.31155e-16
1.82406e-17
-1.55752e-15
2.42088e-16
-1.15115e-13
-1.89492e-16
-4.03694e-12
-9.31754e-14
-8.06091e-11
-5.53072e-12
-1.00887e-08
-2.62808e-10
-1.49998e-08
-3.82242e-11
2.58515e-09
-1.64869e-08
-1.79471e-24
-1.4995e-22
-7.21296e-25
-1.80254e-22
-5.66377e-24
1.73388e-23
-4.67648e-22
3.83432e-21
-7.10518e-21
6.84407e-20
-3.70954e-19
9.05548e-19
-7.87638e-18
2.6302e-17
-1.28613e-17
1.57154e-16
-5.73122e-17
1.73078e-16
-6.48318e-16
2.43249e-16
-1.50533e-14
3.11633e-15
-1.26947e-14
3.53324e-14
-5.73537e-16
3.19755e-15
-2.21621e-17
2.28518e-17
-2.64781e-17
1.86678e-17
-4.47183e-17
1.3916e-17
-1.27322e-16
3.78696e-17
-2.53613e-15
8.17434e-17
-1.26284e-13
-8.98097e-16
-6.31322e-12
-3.60398e-14
-3.48372e-10
-1.40843e-12
-4.52375e-09
-1.05001e-10
-5.11325e-11
-3.16122e-09
-1.24684e-24
-1.33895e-22
3.4225e-26
-1.4634e-22
-3.31209e-23
-4.93279e-23
-1.16239e-22
4.4531e-22
-2.26656e-21
1.02235e-20
-1.92362e-19
2.39304e-19
-6.42474e-18
9.55979e-18
-1.84018e-17
7.61471e-17
-2.30353e-17
1.34638e-16
-7.61735e-17
7.57124e-17
-2.85914e-15
1.87193e-16
-4.17777e-16
1.00974e-15
-2.06145e-17
2.13076e-17
-2.04562e-17
1.13142e-17
-1.79256e-17
1.84517e-17
-3.84294e-17
9.80758e-18
-1.36267e-16
4.29582e-17
-4.51578e-16
1.26487e-16
-5.31369e-15
4.93928e-16
-2.52085e-13
-3.10601e-16
-5.7092e-12
-8.96591e-14
-9.33323e-11
-1.86027e-12
2.0444e-12
-2.37745e-10
-6.82701e-25
-1.06608e-22
7.13325e-25
-1.04558e-22
-5.65428e-24
-1.13292e-22
-1.5649e-23
2.95111e-23
-5.12542e-22
1.25928e-21
-6.07927e-20
5.60457e-20
-2.39845e-18
2.27495e-18
-1.29431e-17
2.15222e-17
-1.58107e-17
5.57764e-17
-1.65995e-17
5.13726e-17
-6.65485e-17
2.84086e-17
-1.0754e-17
2.12335e-17
-6.67148e-18
6.99875e-18
-7.31049e-18
5.06188e-18
-3.43732e-18
3.38097e-18
-9.03219e-18
9.8984e-19
-8.00259e-17
1.2448e-17
-3.60093e-16
1.0783e-16
-1.28214e-15
3.47194e-16
-1.40821e-14
1.74444e-15
-2.09914e-13
6.47899e-15
-3.45004e-12
9.02239e-14
2.68636e-12
-1.59838e-11
-2.95495e-25
-7.61786e-23
1.19343e-24
-6.54422e-23
-3.52127e-25
-1.04458e-22
-9.73137e-25
1.1738e-23
-9.98424e-23
1.2739e-22
-1.48088e-20
1.15283e-20
-5.66161e-19
4.23897e-19
-3.81996e-18
4.01435e-18
-7.3428e-18
1.26861e-17
-8.51994e-18
2.05522e-17
-8.08029e-18
1.88907e-17
-4.34796e-18
8.06532e-18
-2.39407e-18
4.07333e-18
-1.11146e-18
1.12253e-18
-3.41123e-19
2.11575e-19
-6.26529e-19
8.60906e-20
-8.8397e-18
5.92954e-19
-8.49196e-17
1.16119e-17
-6.41864e-16
1.28957e-16
-2.17313e-15
1.02693e-15
-9.06079e-15
5.59908e-15
-1.60965e-13
4.25277e-14
7.1407e-13
-3.26327e-13
-9.32879e-26
-4.85983e-23
1.09053e-24
-3.56473e-23
1.07241e-25
-6.96138e-23
-4.24737e-24
-3.09934e-24
-1.82718e-23
1.1542e-23
-2.97605e-21
2.01368e-21
-9.37909e-20
6.51936e-20
-6.44422e-19
5.82959e-19
-1.99767e-18
2.19202e-18
-3.96411e-18
5.23919e-18
-3.37162e-18
9.32165e-18
-1.33819e-18
3.70263e-18
-3.15994e-19
8.80148e-19
-6.43453e-20
9.8807e-20
-3.21069e-20
1.17499e-20
-4.91744e-20
9.34939e-21
-6.07066e-19
7.44795e-20
-1.1395e-17
1.64591e-18
-1.68375e-16
3.40177e-17
-1.37818e-15
4.59209e-16
-2.46116e-15
3.27036e-15
1.05789e-14
1.33088e-14
1.08922e-13
3.03081e-13
-1.6161e-26
-2.74715e-23
7.05625e-25
-1.66783e-23
2.40363e-25
-3.79006e-23
-4.76577e-25
-6.44023e-24
-3.02109e-24
1.17057e-24
-4.63812e-22
2.83495e-22
-1.27661e-20
8.767e-21
-1.05686e-19
8.34898e-20
-3.89582e-19
3.68336e-19
-8.9072e-19
8.27088e-19
-7.81577e-19
1.17714e-18
-2.77222e-19
6.59574e-19
-4.58274e-20
1.69423e-19
-4.21472e-21
2.04739e-20
-2.65474e-21
1.31873e-21
-4.44479e-21
8.56025e-22
-7.25564e-20
1.71177e-20
-1.98314e-18
4.36696e-19
-4.81275e-17
1.1872e-17
-5.87546e-16
2.2485e-16
-2.90267e-15
1.96345e-15
-4.44398e-15
8.12892e-15
1.61024e-14
4.28117e-14
1.95704e-27
-1.36493e-23
3.46579e-25
-6.58743e-24
1.57586e-25
-1.70909e-23
-5.36052e-26
-4.11539e-24
-3.8855e-25
1.26795e-25
-5.78153e-23
3.22076e-23
-1.68455e-21
1.11514e-21
-1.75226e-20
1.21775e-20
-6.53841e-20
5.60071e-20
-1.03096e-19
1.0469e-19
-1.02494e-19
1.06685e-19
-4.72638e-20
7.84099e-20
-8.95164e-21
3.05743e-20
-5.20133e-22
5.00719e-21
-1.88859e-22
1.79627e-22
-4.20314e-22
7.25498e-23
-1.16654e-20
3.81865e-21
-3.58213e-19
1.18707e-19
-1.32647e-17
3.46502e-18
-2.45729e-16
9.2496e-17
-1.56443e-15
1.0362e-15
-3.46406e-15
4.48145e-15
9.52484e-15
2.77896e-15
1.75051e-27
-5.91618e-24
1.31112e-25
-2.15182e-24
6.51832e-26
-6.31593e-24
-5.46369e-27
-1.72776e-24
-3.62173e-26
1.10836e-26
-6.28387e-24
2.96219e-24
-2.18441e-22
1.32214e-22
-2.43987e-21
1.63198e-21
-8.74769e-21
7.09934e-21
-1.13631e-20
1.27098e-20
-1.16053e-20
1.29706e-20
-6.34642e-21
9.36171e-21
-1.43258e-21
3.97863e-21
-4.21242e-23
6.58227e-22
-1.34271e-23
1.06824e-22
-4.08706e-23
7.4927e-23
-1.95762e-21
6.56687e-22
-6.05197e-20
2.74475e-20
-2.04267e-18
7.01404e-19
-5.52836e-17
1.6436e-17
-4.61807e-16
2.70741e-16
-1.37275e-15
1.62955e-15
4.68678e-15
-1.43891e-15
3.33659e-28
-2.22386e-24
3.80613e-26
-5.68941e-25
1.95064e-26
-1.88573e-24
-4.15975e-28
-5.4353e-25
-2.33463e-27
6.16218e-28
-5.69268e-25
2.04626e-25
-2.56113e-23
1.27938e-23
-2.75669e-22
1.80568e-22
-9.05662e-22
7.3383e-22
-1.17966e-21
1.2878e-21
-1.17978e-21
1.40973e-21
-6.23457e-22
9.59407e-22
-8.87311e-23
2.99985e-22
5.24087e-24
3.33422e-23
2.62678e-25
-2.15596e-23
-1.3547e-22
-1.01872e-24
-2.86475e-22
8.39807e-23
-1.05384e-20
5.40589e-21
-2.3555e-19
1.39416e-19
-4.80557e-18
2.08413e-18
-5.54613e-17
2.76335e-17
-2.33375e-16
2.74801e-16
1.4716e-15
-4.25303e-16
-6.4507e-29
-7.22589e-25
8.45562e-27
-1.19429e-25
4.41556e-27
-4.5078e-25
-2.35774e-29
-1.33817e-25
-1.02899e-28
5.15903e-28
-3.80227e-26
9.94851e-27
-2.29471e-24
8.49396e-25
-2.39107e-23
1.38814e-23
-7.09581e-23
5.54075e-23
-9.67506e-23
9.51661e-23
-9.56779e-23
1.08163e-22
-3.22282e-23
6.21075e-23
-9.01731e-24
1.30377e-23
1.58144e-23
8.51046e-24
1.12712e-23
-8.34258e-23
-1.33552e-23
-5.73907e-23
-3.0264e-23
8.4592e-24
-1.6687e-21
8.38649e-22
-3.31707e-20
2.98301e-20
-3.51129e-19
4.15687e-19
-2.70874e-18
3.59078e-18
-1.2748e-17
3.12132e-17
3.08951e-16
1.66886e-17
-1.48908e-28
-2.02962e-25
1.43354e-27
-1.96634e-26
7.68853e-28
-8.62952e-26
1.02489e-29
-2.63112e-26
-3.45963e-28
-2.55326e-28
-1.69653e-27
3.71755e-28
-1.29648e-25
3.5281e-26
-1.38817e-24
6.49385e-25
-3.99434e-24
2.71249e-24
-5.42619e-24
4.6196e-24
-3.8892e-24
4.61958e-24
-2.03443e-24
2.27434e-24
5.97352e-24
5.02975e-24
1.17259e-23
-4.36693e-23
8.25954e-24
-8.32791e-23
-8.51982e-25
-5.85632e-23
-1.87697e-24
6.24947e-24
-1.67949e-22
9.84749e-23
-4.01731e-21
5.52166e-21
-2.86529e-20
1.02936e-19
-4.0567e-20
8.85324e-19
1.37335e-18
5.79143e-18
5.28271e-17
3.02291e-17
-7.43561e-29
-4.94604e-26
1.84574e-28
-2.54532e-27
1.03377e-28
-1.33291e-26
3.89317e-30
-4.19526e-27
-1.24782e-29
-1.15412e-28
-5.19447e-29
1.32231e-29
-4.54846e-27
1.0555e-27
-5.32482e-26
2.05414e-26
-1.49804e-25
8.70347e-26
-1.49883e-25
1.32603e-25
-1.29258e-25
3.36514e-25
1.03897e-24
1.02265e-24
3.58049e-24
-1.08165e-23
4.93826e-24
-3.6639e-23
3.27632e-24
-5.13066e-23
1.16198e-25
-3.60534e-23
-3.96021e-24
-1.43789e-24
-8.58557e-24
1.04444e-23
-1.27576e-22
8.80047e-22
2.85439e-21
2.29176e-20
7.55066e-20
2.42856e-19
8.45801e-19
1.40343e-18
8.67743e-18
1.0003e-17
-2.53137e-29
-1.05278e-26
1.78938e-29
-2.69328e-28
1.07357e-29
-1.70084e-27
6.69569e-31
-5.55578e-28
-3.71141e-31
-2.51841e-29
-1.35686e-30
1.10046e-29
-1.19301e-28
3.69745e-29
-1.43646e-27
6.22827e-28
-3.1362e-27
3.01305e-27
-3.25204e-27
9.73348e-26
1.02359e-25
7.65398e-26
5.02328e-25
-1.58709e-24
1.10618e-24
-7.79014e-24
1.24674e-24
-1.79285e-23
7.18305e-25
-2.24153e-23
8.35322e-26
-1.57747e-23
-6.85669e-26
-2.70644e-24
2.46107e-25
1.25867e-24
4.912e-23
1.33687e-22
2.30291e-21
4.51162e-21
3.66146e-20
5.71915e-20
2.83549e-19
2.91773e-19
1.00627e-18
2.09851e-18
-6.96619e-30
-1.97418e-27
1.23363e-30
-2.45379e-29
8.37511e-31
-1.84387e-28
8.42539e-32
-6.27799e-29
1.37322e-31
-4.4714e-30
-8.26872e-31
-5.72954e-30
-3.15501e-30
2.8723e-29
-4.45312e-29
5.20681e-28
1.96311e-28
2.14234e-27
5.45142e-27
-5.05777e-27
3.45339e-26
-1.37399e-25
1.08154e-25
-8.94569e-25
1.78383e-25
-3.08e-24
1.37668e-25
-6.21686e-24
2.32878e-26
-7.36432e-24
-7.9407e-26
-5.19004e-24
-5.18408e-26
-1.28341e-24
1.96088e-25
1.73916e-25
1.57372e-23
2.00549e-23
7.56733e-22
8.94351e-22
1.21773e-20
1.28098e-20
6.4319e-20
5.00763e-20
6.06018e-20
2.21176e-19
-1.65413e-30
-3.29112e-28
4.15466e-32
-2.06189e-30
4.27338e-32
-1.74179e-29
8.91249e-33
-6.21202e-30
5.49528e-32
-8.30116e-31
3.71864e-31
-3.97471e-30
1.89818e-30
-2.24078e-29
1.71875e-29
-1.01786e-28
1.68055e-28
-8.70252e-28
1.09895e-27
-8.54433e-27
4.05954e-27
-6.1312e-26
6.7428e-27
-2.87908e-25
-1.55954e-27
-8.71288e-25
-2.54412e-26
-1.6505e-24
-6.32049e-26
-1.89463e-24
-7.51744e-26
-1.33449e-24
-3.25947e-26
-3.81831e-25
6.9128e-26
2.5343e-26
3.71666e-24
3.36045e-24
2.2009e-22
1.97463e-22
3.35973e-21
2.6609e-21
9.67474e-21
8.24076e-21
3.30716e-21
1.09201e-20
-3.42805e-31
-4.91939e-29
-4.67654e-34
-1.77206e-31
2.9352e-34
-1.46434e-30
4.2394e-34
-5.51496e-31
4.73566e-33
-1.65495e-31
4.59626e-32
-1.33151e-30
2.92569e-31
-1.03322e-29
1.50687e-30
-6.7e-29
2.8246e-30
-4.51799e-28
-9.5853e-30
-2.98123e-27
-1.59274e-28
-1.66117e-26
-1.27006e-27
-6.8196e-26
-5.95788e-27
-1.92492e-25
-1.65025e-26
-3.50722e-25
-2.6629e-26
-3.93548e-25
-2.58531e-26
-2.76423e-25
-1.04495e-26
-8.33106e-26
1.78173e-26
3.50282e-27
7.97404e-25
5.24162e-25
5.75938e-23
3.78945e-23
7.70752e-22
4.60904e-22
1.80367e-21
1.36837e-21
3.86371e-22
8.92251e-22
-6.24463e-32
-6.64182e-30
-1.309e-34
-1.74261e-32
-6.40162e-34
-1.11388e-31
-2.57654e-34
-4.50197e-32
-1.93393e-34
-3.10763e-32
-2.25701e-33
-3.06739e-31
-2.47338e-32
-2.60309e-30
-2.32205e-31
-1.81714e-29
-2.02525e-30
-1.16403e-28
-1.61694e-29
-6.79891e-28
-1.08949e-28
-3.37343e-27
-5.59111e-28
-1.28357e-26
-2.0132e-27
-3.46409e-26
-4.69919e-27
-6.14428e-26
-6.73662e-27
-6.76257e-26
-6.04181e-27
-4.72627e-26
-2.31645e-27
-1.42759e-26
3.48541e-27
3.67883e-28
1.28656e-25
5.45185e-26
1.10124e-23
4.72303e-24
1.46388e-22
6.44533e-23
3.48702e-22
2.30677e-22
9.86419e-23
1.47157e-22
-1.00217e-32
-8.14842e-31
-2.4447e-35
-1.99668e-33
-9.02732e-35
-7.77345e-33
-4.45183e-35
-3.46638e-33
-7.64424e-35
-5.04203e-33
-9.8335e-34
-5.40455e-32
-1.05734e-32
-4.75219e-31
-9.39027e-32
-3.41205e-30
-7.3415e-31
-2.13882e-29
-5.06827e-30
-1.17992e-28
-2.95583e-29
-5.49081e-28
-1.34319e-28
-1.99269e-27
-4.38763e-28
-5.21662e-27
-9.4994e-28
-9.06906e-27
-1.27355e-27
-9.80815e-27
-1.0911e-27
-6.80493e-27
-3.94529e-28
-2.00081e-27
5.16949e-28
2.02971e-29
1.35097e-26
3.4712e-27
1.41177e-24
3.79317e-25
2.34576e-23
7.59131e-24
6.54019e-23
3.69112e-23
3.01863e-23
4.5404e-23
-1.41452e-33
-9.12668e-32
-3.99679e-36
-2.43692e-34
-8.25657e-36
-5.03668e-34
-4.84734e-36
-2.57775e-34
-1.56465e-35
-6.92518e-34
-2.08617e-34
-7.69332e-33
-2.26066e-33
-6.87722e-32
-2.00236e-32
-5.00527e-31
-1.51478e-31
-3.10445e-30
-9.88679e-31
-1.66026e-29
-5.4001e-30
-7.43588e-29
-2.31598e-29
-2.61654e-28
-7.22002e-29
-6.70424e-28
-1.49978e-28
-1.14704e-27
-1.93261e-28
-1.22003e-27
-1.6053e-28
-8.38522e-28
-5.44286e-29
-2.35654e-28
5.90848e-29
8.01456e-30
9.60529e-28
1.63969e-28
1.27624e-25
2.28252e-26
3.18674e-24
7.54828e-25
1.12569e-23
5.05141e-24
4.64948e-24
1.10304e-23
-1.77222e-34
-9.3656e-33
-5.72597e-37
-2.9033e-35
-6.04311e-37
-3.06257e-35
-4.3308e-37
-1.8826e-35
-2.25795e-36
-8.13394e-35
-3.05973e-35
-9.1906e-34
-3.33751e-34
-8.28342e-33
-2.96318e-33
-6.07443e-32
-2.21557e-32
-3.74662e-31
-1.41115e-31
-1.96701e-30
-7.46846e-31
-8.59907e-30
-3.10818e-30
-2.96277e-29
-9.4394e-30
-7.47091e-29
-1.91548e-29
-1.26034e-28
-2.4041e-29
-1.3187e-28
-1.95674e-29
-8.95491e-29
-6.21251e-30
-2.37561e-29
1.65435e-30
1.47695e-31
5.47827e-29
7.4623e-30
8.86905e-27
1.15413e-27
3.4955e-25
5.90466e-26
1.57552e-24
5.07096e-25
2.49095e-25
1.23484e-24
-1.97552e-35
-8.82837e-34
-7.08567e-38
-3.22909e-36
-3.78112e-38
-1.76527e-36
-3.39924e-38
-1.35793e-36
-2.49471e-37
-8.31986e-36
-3.40594e-36
-9.48216e-35
-3.72587e-35
-8.58e-34
-3.3225e-34
-6.3198e-33
-2.47932e-33
-3.88475e-32
-1.56049e-32
-2.01525e-31
-8.12998e-32
-8.6667e-31
-3.3338e-31
-2.9403e-30
-1.00005e-30
-7.3173e-30
-2.00014e-30
-1.21767e-29
-2.46873e-30
-1.25213e-29
-1.97803e-30
-8.37485e-30
-5.87147e-31
-2.07606e-30
-4.69872e-33
-1.38725e-32
2.96118e-30
3.68962e-31
5.02045e-28
5.01638e-29
2.87437e-26
3.34547e-27
1.571e-25
3.36612e-26
1.06673e-26
8.18859e-26
-1.9656e-36
-7.65991e-35
-7.57592e-39
-3.30207e-37
-2.07577e-39
-9.74033e-38
-2.38055e-39
-9.63149e-38
-2.20253e-38
-7.54991e-37
-3.00474e-37
-8.64328e-36
-3.28422e-36
-7.83184e-35
-2.94105e-35
-5.78225e-34
-2.19827e-34
-3.5446e-33
-1.37832e-33
-1.82292e-32
-7.13059e-33
-7.74455e-32
-2.90433e-32
-2.59464e-31
-8.65843e-32
-6.37875e-31
-1.7177e-31
-1.04606e-30
-2.09167e-31
-1.05529e-30
-1.65469e-31
-6.92295e-31
-4.57394e-32
-1.5885e-31
-7.3991e-34
-2.13058e-33
1.55096e-31
1.81077e-32
2.22787e-29
1.76755e-30
1.62238e-27
1.30239e-28
1.04579e-26
1.52162e-27
4.7702e-28
4.60986e-27
-1.73854e-37
-6.1291e-36
-7.06172e-40
-3.08839e-38
-1.02828e-40
-5.19322e-39
-1.49372e-40
-6.65809e-39
-1.58853e-39
-6.18221e-38
-2.15279e-38
-7.09097e-37
-2.34569e-37
-6.42305e-36
-2.10788e-36
-4.74556e-35
-1.57908e-35
-2.90085e-34
-9.91312e-35
-1.48109e-33
-5.1264e-34
-6.22854e-33
-2.08332e-33
-2.06324e-32
-6.18955e-33
-5.00971e-32
-1.21861e-32
-8.08217e-32
-1.46585e-32
-7.97851e-32
-1.14266e-32
-5.10913e-32
-2.92374e-33
-1.07405e-32
-6.40615e-35
-1.93125e-34
7.01732e-33
7.46715e-34
7.59338e-31
5.30713e-32
6.21176e-29
3.88511e-30
4.80257e-28
5.49773e-29
1.86603e-29
2.04496e-28
-1.37401e-38
-4.53207e-37
-5.75519e-41
-2.64732e-39
-4.6621e-42
-2.69788e-40
-8.41856e-42
-4.44893e-40
-9.57783e-41
-4.6359e-39
-1.28013e-39
-5.3165e-38
-1.38037e-38
-4.80844e-37
-1.24332e-37
-3.55009e-36
-9.37254e-37
-2.16271e-35
-5.90338e-36
-1.09683e-34
-3.05639e-35
-4.56984e-34
-1.24221e-34
-1.49716e-33
-3.68401e-34