/*--------------------------------*- C++ -*----------------------------------*\
| =========                 |                                                 |
| \\      /  F ield         | OpenFOAM: The Open Source CFD Toolbox           |
|  \\    /   O peration     | Version:  2206                                  |
|   \\  /    A nd           | Website:  www.openfoam.com                      |
|    \\/     M anipulation  |                                                 |
\*---------------------------------------------------------------------------*/
FoamFile
{
    version     2.0;
    format      ascii;
    arch        "LSB;label=32;scalar=64";
    class       volScalarField;
    location    "0.625";
    object      p;
}
// * * * * * * * * * * * * * * * * * * * * * * * * * * * * * * * * * * * * * //

dimensions      [1 -1 -2 0 0 0 0];

internalField   nonuniform List<scalar> 
2268
(
517.427
516.124
517.596
522.806
533.157
549.199
569.159
589.713
610.025
631.096
653.715
677.799
702.779
728.071
753.141
777.237
798.975
817.99
832.341
834.62
837.659
865.156
900.871
458.242
456.406
457.665
462.717
472.903
488.997
509.338
530.248
550.706
571.812
594.416
618.526
643.595
668.974
694.088
718.31
740.559
760.413
777.927
778.53
772.054
793.417
836.199
398.258
395.975
397.06
401.652
411.268
427.375
448.511
470.196
490.976
512.197
534.918
559.143
584.301
609.726
634.747
658.821
681.235
700.799
720.518
722.83
713.674
728.148
773.038
338.03
335.211
335.861
339.674
348.293
364.353
386.754
409.668
430.958
452.323
475.176
499.579
524.938
550.559
575.657
599.725
622.225
642.523
660.697
667.936
664.275
676.335
716.257
278.13
274.485
274.351
277.272
284.37
300.638
324.611
348.844
370.699
392.247
415.243
439.85
465.499
491.486
516.839
541.125
563.913
584.804
603.083
614.523
620.569
632.204
664.955
218.624
214.395
212.549
213.365
221.134
237.924
262.818
287.774
309.983
331.851
355.111
379.972
405.988
432.513
458.246
482.874
506.121
527.701
546.968
562.149
574.752
587.655
615.189
159.263
155.568
151.899
152.615
159.929
176.863
201.498
226.145
248.426
270.77
294.603
319.917
346.43
373.71
399.9
424.927
448.684
470.939
491.241
508.998
525.564
541.033
566.05
98.7692
93.2186
88.6119
90.7668
99.0665
115.735
139.102
163.235
186.303
209.042
233.605
259.532
286.679
315.017
341.774
367.274
391.579
414.503
435.739
455.257
474.636
492.998
519.124
929.476
902.761
910.198
882.239
712.347
550.657
461.425
435.937
442.006
457.939
479.466
508.158
531.476
570.494
709.319
1066.43
1514.87
1677.37
1627.91
910.473
887.964
898.846
762.69
504.728
383.985
371.958
380.721
396.121
411.36
421.42
429.752
445.161
480.122
582.867
864.387
1314.31
1575.32
1576.41
891.952
871.908
830.038
516.312
385.833
358.246
356.771
362.144
374.626
387.655
394.987
399.383
405.103
413.604
427.541
542.985
971.198
1424.77
1514.36
881.95
863.939
691.667
414.464
363.542
354.702
355.277
360.742
372.852
385.769
393.411
397.191
400.301
404.761
405.872
417.748
604.654
1172.07
1419.2
875.02
861.465
557.461
387.31
357.828
352.855
354.208
360.034
373.329
387.118
393.767
396.564
398.325
401.4
403.641
406.603
437.629
830.212
1279
870.232
856.533
498.665
382.577
358.284
352.934
354.153
358.965
372.915
388.424
394.778
397.033
398.009
399.981
402.351
406.606
408.749
543.454
1105.81
857.404
839.557
552.328
389.397
362.121
354.574
351.478
344.181
354.5
378.683
394.206
397.649
397.904
399.499
402.082
407.144
405.537
431.547
925.894
843.911
834.56
605.136
416.93
370.442
361.004
340.563
313.219
310.961
337.12
384.271
397.598
397.104
398.986
401.853
407.521
411.597
428.042
770.448
35.1189
29.2776
24.3519
27.2121
35.1153
45.7097
58.403
72.5275
89.8157
111.948
137.137
164.55
193.335
223.781
251.418
277.575
302.61
326.575
349.203
370.757
392.286
416.952
448.211
1.02617
0.876204
0.605501
1.15209
4.01268
6.80965
8.67046
10.8315
15.2855
23.0378
34.7131
52.4013
74.7247
101.87
130.024
157.306
182.923
207.856
231.826
255.023
279.303
306.02
337.539
0.662336
0.588192
0.462683
0.456435
0.486877
0.462181
0.431828
0.401507
0.378105
0.449206
1.25783
4.56968
10.6494
20.7814
36.2197
54.2303
72.643
93.2666
116.43
138.864
163.187
189.578
218.963
0.441066
0.383132
0.276203
0.266593
0.313144
0.291362
0.248948
0.232194
0.257271
0.28906
0.282504
0.312959
0.362271
0.505867
2.0676
6.15852
10.7143
18.7071
31.0042
42.9338
59.286
78.4276
101.985
0.250196
0.232585
0.17861
0.177473
0.188377
0.157755
0.125281
0.104477
0.0972637
0.117024
0.135425
0.174138
0.209372
0.264555
0.313235
0.3621
0.392742
0.39237
0.458555
1.32767
5.71584
14.0683
23.4452
0.0737343
0.0676021
0.0432915
0.0248683
0.0195378
0.012322
0.000845093
-0.0043086
0.0011646
0.0119527
0.0293224
0.049948
0.0768801
0.108326
0.136253
0.172501
0.217369
0.269599
0.342287
0.440306
0.535203
0.649387
0.720655
-0.094059
-0.0995873
-0.110113
-0.119716
-0.124506
-0.132481
-0.138243
-0.140031
-0.136882
-0.126794
-0.106401
-0.0875461
-0.0612681
-0.0303553
0.0063824
0.0472842
0.0856685
0.127212
0.18172
0.256335
0.379041
0.557658
0.744018
-0.25483
-0.259262
-0.264947
-0.270053
-0.273508
-0.278009
-0.280251
-0.278878
-0.272853
-0.262069
-0.247141
-0.228694
-0.206308
-0.18003
-0.146826
-0.11165
-0.0733173
-0.0277834
0.027432
0.0957563
0.191204
0.310732
0.43869
-0.414762
-0.417207
-0.42002
-0.42332
-0.425191
-0.426267
-0.425593
-0.422463
-0.416186
-0.405816
-0.391279
-0.373217
-0.35129
-0.324896
-0.296128
-0.264454
-0.230444
-0.192627
-0.150752
-0.10119
-0.0501622
0.0136574
0.0947248
-0.573027
-0.574187
-0.57523
-0.576773
-0.577003
-0.576408
-0.574089
-0.569719
-0.562642
-0.552264
-0.538489
-0.521614
-0.501523
-0.478689
-0.452147
-0.423241
-0.391904
-0.358245
-0.323725
-0.29049
-0.271925
-0.267297
-0.253384
-0.730023
-0.730725
-0.730561
-0.730792
-0.729792
-0.728012
-0.72458
-0.719234
-0.711573
-0.701321
-0.688277
-0.672407
-0.653705
-0.632451
-0.608748
-0.583349
-0.556048
-0.527738
-0.500397
-0.477737
-0.475409
-0.50434
-0.514961
-0.886669
-0.886995
-0.886175
-0.885589
-0.883784
-0.881216
-0.877088
-0.871269
-0.86348
-0.853478
-0.841072
-0.82629
-0.80921
-0.79005
-0.768936
-0.746196
-0.722347
-0.698484
-0.676476
-0.662412
-0.669182
-0.693086
-0.708651
-1.04341
-1.04331
-1.04229
-1.04118
-1.03879
-1.03598
-1.03146
-1.02551
-1.01783
-1.00828
-0.996715
-0.983176
-0.967708
-0.95045
-0.931566
-0.911324
-0.890336
-0.869958
-0.851637
-0.842979
-0.854555
-0.876267
-0.890068
-1.20047
-1.20007
-1.19911
-1.19756
-1.1951
-1.19184
-1.18736
-1.18157
-1.17431
-1.16545
-1.15491
-1.14268
-1.12881
-1.11338
-1.09654
-1.07852
-1.05977
-1.04099
-1.0246
-1.01596
-1.02285
-1.04157
-1.05435
-1.35801
-1.35742
-1.35654
-1.3548
-1.3523
-1.34899
-1.34468
-1.33925
-1.33258
-1.32457
-1.31516
-1.30432
-1.29208
-1.27851
-1.2637
-1.24786
-1.23125
-1.2143
-1.1984
-1.18717
-1.18432
-1.18926
-1.19464
-1.51611
-1.51549
-1.51452
-1.51281
-1.5104
-1.50724
-1.50323
-1.49829
-1.49233
-1.48527
-1.47707
-1.46769
-1.45716
-1.44552
-1.43285
-1.41931
-1.40508
-1.39043
-1.37606
-1.36368
-1.35517
-1.35061
-1.34755
-1.67472
-1.67412
-1.67316
-1.67154
-1.66929
-1.6664
-1.66281
-1.65846
-1.6533
-1.64726
-1.64033
-1.63248
-1.62371
-1.61409
-1.60369
-1.59264
-1.5811
-1.56929
-1.55768
-1.54716
-1.53866
-1.53249
-1.52774
-1.83381
-1.83325
-1.83236
-1.83089
-1.82888
-1.82634
-1.82324
-1.81956
-1.81525
-1.81029
-1.80467
-1.79838
-1.79143
-1.78389
-1.77586
-1.76747
-1.75891
-1.75041
-1.74239
-1.73551
-1.73052
-1.72808
-1.72816
-1.99331
-1.99283
-1.99203
-1.99076
-1.98904
-1.98691
-1.98436
-1.98137
-1.97796
-1.97411
-1.96982
-1.9651
-1.95999
-1.95457
-1.94896
-1.94335
-1.93794
-1.93305
-1.92914
-1.92685
-1.92698
-1.93053
-1.9385
-2.15316
-2.15277
-2.15209
-2.15104
-2.14965
-2.14796
-2.14598
-2.14373
-2.14122
-2.13848
-2.13552
-2.13236
-2.12906
-2.12573
-2.12254
-2.1197
-2.11751
-2.11633
-2.11668
-2.11933
-2.12521
-2.13551
-2.15188
-2.31327
-2.31298
-2.31244
-2.31163
-2.31058
-2.30935
-2.30796
-2.30644
-2.30484
-2.30318
-2.3015
-2.29985
-2.29831
-2.29699
-2.29612
-2.29597
-2.29688
-2.29929
-2.30381
-2.31124
-2.32266
-2.33942
-2.36338
-2.47357
-2.47336
-2.47298
-2.47242
-2.47173
-2.47096
-2.47015
-2.46936
-2.46863
-2.46801
-2.46755
-2.46732
-2.46741
-2.468
-2.4693
-2.47163
-2.4754
-2.48112
-2.48944
-2.50118
-2.51746
-2.53965
-2.56961
-2.63399
-2.63386
-2.63363
-2.63333
-2.63298
-2.63267
-2.63243
-2.63232
-2.63242
-2.63277
-2.63344
-2.63451
-2.63611
-2.63841
-2.64168
-2.64625
-2.65254
-2.66113
-2.6727
-2.68805
-2.70826
-2.7346
-2.76885
-2.79443
-2.79439
-2.79431
-2.79426
-2.79425
-2.79436
-2.79466
-2.79521
-2.79607
-2.7973
-2.79899
-2.80122
-2.80414
-2.80796
-2.81294
-2.81943
-2.82787
-2.83883
-2.853
-2.87115
-2.89427
-2.92335
-2.96021
-2.95486
-2.9549
-2.95496
-2.95514
-2.95544
-2.95596
-2.95675
-2.95788
-2.95943
-2.96145
-2.96403
-2.96725
-2.9713
-2.9764
-2.98281
-2.99089
-3.00107
-3.01388
-3.02999
-3.05008
-3.07509
-3.10601
-3.14408
-3.11521
-3.11533
-3.11552
-3.11592
-3.1165
-3.11738
-3.1186
-3.12025
-3.12239
-3.12509
-3.1284
-3.13246
-3.13743
-3.14355
-3.1511
-3.16042
-3.17191
-3.18606
-3.2035
-3.22487
-3.25094
-3.28256
-3.32069
-3.27545
-3.27563
-3.27593
-3.27653
-3.27736
-3.27855
-3.28014
-3.28223
-3.28486
-3.28809
-3.292
-3.29671
-3.3024
-3.30928
-3.31768
-3.32785
-3.34028
-3.35534
-3.37358
-3.39554
-3.42189
-3.45331
-3.49059
-3.43554
-3.43579
-3.43615
-3.43696
-3.43798
-3.43942
-3.44132
-3.44375
-3.44676
-3.45039
-3.45473
-3.45992
-3.46613
-3.47348
-3.48246
-3.49325
-3.50622
-3.52174
-3.54025
-3.56221
-3.58818
-3.61871
-3.65445
-3.59543
-3.59574
-3.59615
-3.59719
-3.59829
-3.59994
-3.60206
-3.60474
-3.60803
-3.61191
-3.61654
-3.62202
-3.62853
-3.63626
-3.64553
-3.6566
-3.66976
-3.68533
-3.70366
-3.72515
-3.75021
-3.77932
-3.81301
-3.75513
-3.7555
-3.756
-3.757
-3.75828
-3.76006
-3.76233
-3.76516
-3.7686
-3.77266
-3.77744
-3.78305
-3.78968
-3.79755
-3.80689
-3.81796
-3.83101
-3.84628
-3.86407
-3.88468
-3.90843
-3.93573
-3.967
-3.91461
-3.91501
-3.91554
-3.91656
-3.91792
-3.91976
-3.92209
-3.925
-3.92849
-3.93261
-3.9374
-3.94301
-3.94961
-3.9574
-3.96661
-3.97744
-3.99011
-4.00481
-4.02176
-4.04118
-4.06335
-4.08857
-4.11717
-4.07383
-4.07424
-4.07478
-4.0758
-4.07717
-4.07901
-4.08134
-4.08424
-4.08769
-4.09175
-4.09645
-4.10193
-4.10835
-4.11591
-4.1248
-4.13519
-4.14726
-4.16115
-4.17702
-4.19505
-4.21544
-4.23842
-4.26425
-4.23275
-4.23316
-4.23369
-4.23469
-4.23601
-4.23781
-4.24007
-4.24288
-4.24621
-4.25011
-4.25462
-4.25987
-4.266
-4.27319
-4.28161
-4.2914
-4.30269
-4.31559
-4.33022
-4.34669
-4.36518
-4.38584
-4.40886
-4.39136
-4.39174
-4.39226
-4.3932
-4.39445
-4.39615
-4.3983
-4.40094
-4.40408
-4.40774
-4.41198
-4.41691
-4.42265
-4.42937
-4.43721
-4.44627
-4.45665
-4.46842
-4.48166
-4.49647
-4.51297
-4.53128
-4.55153
-4.54964
-4.54998
-4.55047
-4.55134
-4.55248
-4.55406
-4.55604
-4.55847
-4.56135
-4.56471
-4.56861
-4.57315
-4.57843
-4.5846
-4.59175
-4.59997
-4.60932
-4.61986
-4.63162
-4.64469
-4.65916
-4.67512
-4.69265
-4.70761
-4.70789
-4.70834
-4.70911
-4.71014
-4.71155
-4.71333
-4.71552
-4.71809
-4.7211
-4.7246
-4.72869
-4.73344
-4.73897
-4.74536
-4.75265
-4.76089
-4.7701
-4.78032
-4.79161
-4.80404
-4.81768
-4.83259
-4.86527
-4.86549
-4.86589
-4.86656
-4.86744
-4.86867
-4.87021
-4.87211
-4.87435
-4.87698
-4.88004
-4.88362
-4.88779
-4.89262
-4.89815
-4.90443
-4.91148
-4.91931
-4.92794
-4.93743
-4.94784
-4.95922
-4.97164
-5.02269
-5.02283
-5.02318
-5.02373
-5.02446
-5.02548
-5.02676
-5.02835
-5.03023
-5.03244
-5.03503
-5.03806
-5.04158
-5.04564
-5.05026
-5.05546
-5.06125
-5.06765
-5.07468
-5.08238
-5.09081
-5.10002
-5.11006
-5.17992
-5.18
-5.18028
-5.18071
-5.18126
-5.18206
-5.18306
-5.18432
-5.18581
-5.18759
-5.18968
-5.19212
-5.19494
-5.19816
-5.2018
-5.20586
-5.21037
-5.21532
-5.22074
-5.22668
-5.23318
-5.24029
-5.24806
-5.33701
-5.33702
-5.33722
-5.33751
-5.33789
-5.33846
-5.33917
-5.34008
-5.34118
-5.3425
-5.34405
-5.34584
-5.3479
-5.35023
-5.35284
-5.35574
-5.35894
-5.36245
-5.3663
-5.37051
-5.37513
-5.38018
-5.38571
-5.49393
-5.49389
-5.49401
-5.49416
-5.49439
-5.49473
-5.49515
-5.49571
-5.49639
-5.49721
-5.49817
-5.49927
-5.50053
-5.50193
-5.50349
-5.50522
-5.50713
-5.50922
-5.51151
-5.51403
-5.51679
-5.5198
-5.52311
-5.65073
-5.65067
-5.65071
-5.65075
-5.65082
-5.65094
-5.65108
-5.65128
-5.65151
-5.6518
-5.65213
-5.65251
-5.65292
-5.65339
-5.6539
-5.65447
-5.6551
-5.6558
-5.65656
-5.65739
-5.6583
-5.6593
-5.66039
501.248
558.299
619.194
695.59
383.821
434.685
485.071
528.086
257.889
304.183
351.583
339.117
135.288
177.305
227.225
162.05
31.5752
55.79
99.9037
42.4258
1.15115
4.75353
22.6869
29.4069
0.953038
1.742
3.68755
27.7293
0.598764
0.837241
2.25563
24.7406
0.268608
0.301126
0.617479
17.5923
-0.0819474
0.002041
0.153302
7.54215
-0.412429
-0.318298
-0.390901
-0.91617
-0.66542
-0.454723
-0.749589
-4.19998
-0.859288
-0.649555
-1.06061
-2.94725
-1.03931
-0.956376
-1.06771
-1.76524
-1.18839
-1.16385
-1.14439
-1.11111
-1.34088
-1.32736
-1.28365
-1.13593
-1.52216
-1.5154
-1.48302
-1.41007
-1.73058
-1.74028
-1.75147
-1.78197
-1.95427
-1.98914
-2.05686
-2.20738
-2.18137
-2.24105
-2.35023
-2.56802
-2.40408
-2.48081
-2.60957
-2.83171
-2.61819
-2.70448
-2.83831
-3.04335
-2.82212
-2.91281
-3.0435
-3.2276
-3.01622
-3.10688
-3.23036
-3.3933
-3.20066
-3.28869
-3.40341
-3.54742
-3.37627
-3.4602
-3.56604
-3.69443
-3.54408
-3.62307
-3.72041
-3.83623
-3.7051
-3.7786
-3.86778
-3.97303
-3.86026
-3.92782
-4.00883
-4.10397
-4.01044
-4.07164
-4.14413
-4.22832
-4.15652
-4.21111
-4.27473
-4.34727
-4.29942
-4.3474
-4.40228
-4.4636
-4.43991
-4.48161
-4.5285
-4.58014
-4.5786
-4.61459
-4.65466
-4.69888
-4.71597
-4.74685
-4.78127
-4.82009
-4.85238
-4.87864
-4.90815
-4.94242
-4.98812
-5.01011
-5.03502
-5.06493
-5.12344
-5.14147
-5.16243
-5.18728
-5.25844
-5.27254
-5.28908
-5.309
-5.39313
-5.40331
-5.41537
-5.42992
-5.52757
-5.53374
-5.5411
-5.55002
-5.66188
-5.66396
-5.66647
-5.66954
772.972
815.069
636.683
444.747
354.885
309.925
269.816
244.196
226.539
267.865
321.17
385.801
395.392
399.706
402.386
406.424
412.796
427.952
610.041
560.837
576.665
468.287
311.816
210.359
163.731
144.044
129.206
154.522
196.597
289.19
375.963
396.939
399.53
399.328
400.601
404.338
410.54
514.641
238.848
130.913
82.9917
66.7687
85.8137
105.198
111.786
119.139
132.048
140.048
306.416
396.353
400.722
400.037
399.362
399.228
401.59
399.369
475.177
49.8062
36.2473
33.4888
36.2514
60.8581
85.5207
98.3154
110.437
130.389
236.731
364.368
401.196
404.509
403.972
403.028
403.93
404.625
388.804
456.53
29.1933
31.4014
33.263
35.3943
44.5145
56.9487
73.5446
120.975
155.722
215.49
318.82
385.963
403.145
407.388
409.767
409.32
406.658
401.046
450.377
29.0035
30.097
31.6862
33.2109
36.63
41.6156
47.8551
46.5949
72.5954
185.502
293.644
357.428
382.658
388.36
394.526
402.12
404.364
405.183
456.216
27.5677
27.8312
28.3822
28.4446
28.0313
27.0145
24.3329
17.6044
11.4246
103.854
175.947
210.117
231.433
242.485
267.227
321.453
364.062
383.737
442.666
24.996
23.7456
23.011
19.6789
11.2885
-3.51501
-38.2074
-36.4919
27.7155
57.5221
55.9893
50.269
40.5141
52.5714
50.7976
104.172
220.29
307.652
379.219
21.7739
18.699
16.8033
9.5094
-7.87215
-46.6776
-61.0251
-15.0772
48.6103
17.7109
-1.45652
7.83733
21.1724
19.9622
-1.67281
-10.5089
100.586
227.06
292.741
14.4918
14.8882
13.072
7.0829
-7.05777
-30.0597
-14.1294
34.3978
31.3565
2.20587
-30.6568
-13.367
25.4629
27.1179
16.6944
27.2119
98.1275
202.101
249.184
12.3213
13.5484
12.3396
10.2718
3.84648
-6.10875
22.7517
20.551
13.6823
3.47431
-35.192
-47.9594
-0.0961835
23.8931
37.7735
75.5471
175.785
297.221
305.647
12.666
14.3689
13.3151
13.6756
11.6244
3.1108
13.4417
7.38954
4.06575
-1.43629
-19.5062
-56.0175
-39.001
-2.62544
29.4381
94.9698
194.014
279.467
280.283
8.53119
15.1162
14.3058
15.8308
15.9341
15.8904
2.97107
-0.249734
-1.65118
-3.86661
-9.8778
-23.5962
-31.9052
-6.26525
39.2871
102.428
176.076
235.394
234.612
0.259769
8.80062
12.3693
15.1165
12.1032
12.184
-3.62068
-4.25076
-4.68681
-5.40411
-6.34968
-7.89095
-7.45014
16.2373
46.9156
93.73
139.19
171.843
161.433
-0.646204
2.6148
8.77461
6.01722
8.79232
0.118713
-5.82113
-5.87946
-6.06111
-6.20427
-6.22846
-6.12927
-5.78484
-5.09739
-2.76206
3.22445
24.3047
58.5758
94.4871
-1.35859
-0.587863
5.57416
5.19046
0.736901
-6.07277
-6.20712
-6.34412
-6.58101
-6.56582
-6.47682
-6.20625
-5.66355
-4.9161
-3.94325
-2.43434
1.63259
16.1735
66.008
-1.74844
-2.21415
-0.145333
-1.65082
-5.73265
-5.90952
-6.07876
-6.39125
-6.7615
-6.64366
-6.49849
-6.18986
-5.66105
-4.93313
-4.1597
-3.50948
-2.70255
0.147156
17.4362
-2.24829
-3.11244
-5.17368
-6.39014
-6.0089
-5.74891
-5.90664
-6.24873
-6.52455
-6.46035
-6.2581
-5.95899
-5.511
-4.92445
-4.29246
-3.80511
-3.41933
-2.75115
2.77
-2.71202
-3.7079
-4.94293
-5.4784
-5.47083
-5.4454
-5.58972
-5.82429
-5.96931
-5.9433
-5.76892
-5.50167
-5.1373
-4.68784
-4.20938
-3.86741
-3.56759
-3.35307
0.0160326
-3.00277
-3.58225
-4.25269
-4.70573
-4.91034
-5.01417
-5.12835
-5.24243
-5.34731
-5.33451
-5.20451
-4.98765
-4.6925
-4.34281
-3.96767
-3.73283
-3.48098
-3.56068
-2.66432
-3.16439
-3.52356
-3.93247
-4.28501
-4.51931
-4.66185
-4.76604
-4.84974
-4.90434
-4.89192
-4.79576
-4.6197
-4.37662
-4.09427
-3.78243
-3.59679
-3.35574
-3.43799
-2.79123
-3.30409
-3.55656
-3.83453
-4.08905
-4.28499
-4.42287
-4.52131
-4.59046
-4.62591
-4.61079
-4.53297
-4.39431
-4.20292
-3.97978
-3.72938
-3.57861
-3.38909
-3.33125
-2.35833
-3.4365
-3.62324
-3.81932
-4.00231
-4.15505
-4.27373
-4.36059
-4.42131
-4.45071
-4.4361
-4.36888
-4.25433
-4.10431
-3.93782
-3.75717
-3.65044
-3.59546
-3.33678
-2.26584
-3.56207
-3.70421
-3.84783
-3.98168
-4.09672
-4.19006
-4.26404
-4.31925
-4.34665
-4.33122
-4.26553
-4.16077
-4.03617
-3.91109
-3.78888
-3.72144
-3.8147
-3.3808
-2.80296
-3.68693
-3.79962
-3.90987
-4.01082
-4.09772
-4.16943
-4.23043
-4.27936
-4.30318
-4.28247
-4.20913
-4.0989
-3.97944
-3.86874
-3.77493
-3.73382
-3.93081
-3.42021
-2.51236
-3.81391
-3.90834
-3.99948
-4.08274
-4.15597
-4.21547
-4.264
-4.30445
-4.32334
-4.29543
-4.20675
-4.07445
-3.93754
-3.80884
-3.69179
-3.60282
-3.61798
-3.58135
-1.47879
-3.94254
-4.02701
-4.11099
-4.1895
-4.26201
-4.31276
-4.35478
-4.39666
-4.41705
-4.38193
-4.27092
-4.10302
-3.92929
-3.76313
-3.59489
-3.39829
-2.78924
-3.22479
-0.407318
-4.07041
-4.15113
-4.23798
-4.32393
-4.38658
-4.43294
-4.48413
-4.5414
-4.57071
-4.52903
-4.39243
-4.18921
-3.97455
-3.75394
-3.48725
-3.10615
-2.26862
-3.05675
-0.696296
-4.19311
-4.27028
-4.35457
-4.43474
-4.49672
-4.55276
-4.62623
-4.70324
-4.74135
-4.69607
-4.5476
-4.33143
-4.10408
-3.84373
-3.55534
-3.37088
-2.61515
-3.08238
-1.94989
-4.30747
-4.37707
-4.45308
-4.5263
-4.59024
-4.66248
-4.75482
-4.84033
-4.88355
-4.85069
-4.71781
-4.54115
-4.35435
-4.12944
-3.9364
-4.09027
-3.59743
-3.52706
-3.58621
-4.41505
-4.47451
-4.54066
-4.60826
-4.67769
-4.76413
-4.86206
-4.94225
-4.98785
-4.98007
-4.91103
-4.82437
-4.72468
-4.58812
-4.60243
-4.90118
-4.6028
-4.34009
-4.84244
-4.52035
-4.57065
-4.62905
-4.6942
-4.77193
-4.86927
-4.96318
-5.03332
-5.08087
-5.10939
-5.13938
-5.18395
-5.1839
-5.19912
-5.32393
-5.44355
-5.39554
-5.26451
-2.80373
-4.62839
-4.67214
-4.72585
-4.79267
-4.88128
-4.98716
-5.07667
-5.14031
-5.19531
-5.26974
-5.4134
-5.58501
-5.71951
-5.6965
-5.81409
-5.7514
-5.68614
-5.8077
-5.57113
-4.74129
-4.78106
-4.83301
-4.90379
-5.00267
-5.11406
-5.20678
-5.27159
-5.3481
-5.4754
-5.75349
-6.13965
-6.40824
-6.39653
-6.25506
-6.09154
-5.935
-5.87605
-5.19992
-4.85847
-4.8956
-4.94629
-5.01935
-5.12284
-5.23615
-5.33388
-5.42007
-5.51529
-5.67551
-6.04023
-6.63328
-7.08396
-6.93344
-6.63821
-6.40077
-6.23617
-6.27768
-6.71102
-4.97724
-5.0116
-5.0591
-5.12929
-5.2267
-5.3415
-5.44127
-5.5373
-5.63982
-5.79468
-6.13251
-6.77636
-7.30231
-7.09454
-6.76407
-6.51674
-6.35989
-6.40588
-5.81743
-5.0957
-5.12624
-5.16795
-5.22992
-5.31778
-5.41155
-5.50574
-5.59601
-5.68295
-5.80222
-6.05987
-6.54772
-6.90359
-6.86484
-6.62107
-6.4355
-6.34059
-6.45181
-5.76559
-5.21327
-5.2387
-5.27262
-5.32227
-5.38733
-5.45768
-5.52932
-5.5966
-5.65072
-5.71257
-5.84752
-6.10947
-6.34
-6.41478
-6.33481
-6.25767
-6.23887
-6.5368
-6.03099
-5.32963
-5.3491
-5.37398
-5.40882
-5.45103
-5.49516
-5.54032
-5.57874
-5.60061
-5.61543
-5.66114
-5.78271
-5.94266
-6.04979
-6.07044
-6.07066
-6.05928
-6.45789
-6.2605
-5.44469
-5.45801
-5.47439
-5.49551
-5.5198
-5.54422
-5.56824
-5.58689
-5.59306
-5.59055
-5.60031
-5.66199
-5.76188
-5.8526
-5.9085
-5.95166
-5.91562
-5.92113
-1.05013
-5.55883
-5.56639
-5.57501
-5.58526
-5.5968
-5.6081
-5.61878
-5.62775
-5.63094
-5.62838
-5.62968
-5.66049
-5.70897
-5.77654
-5.854
-5.93466
-5.93577
-5.93713
-5.84117
-5.67245
-5.67469
-5.67696
-5.67923
-5.68126
-5.6839
-5.68849
-5.69384
-5.69661
-5.69476
-5.69009
-5.68931
-5.71211
-5.78718
-5.88463
-5.96871
-5.9889
-6.06421
-5.96482
)
;

boundaryField
{
    leftWall
    {
        type            calculated;
        value           nonuniform List<scalar> 
50
(
517.427
458.242
398.258
338.03
278.13
218.624
159.263
98.7692
35.1189
1.02617
0.662336
0.441066
0.250196
0.0737343
-0.094059
-0.25483
-0.414762
-0.573027
-0.730023
-0.886669
-1.04341
-1.20047
-1.35801
-1.51611
-1.67472
-1.83381
-1.99331
-2.15316
-2.31327
-2.47357
-2.63399
-2.79443
-2.95486
-3.11521
-3.27545
-3.43554
-3.59543
-3.75513
-3.91461
-4.07383
-4.23275
-4.39136
-4.54964
-4.70761
-4.86527
-5.02269
-5.17992
-5.33701
-5.49393
-5.65073
)
;
    }
    rightWall
    {
        type            calculated;
        value           nonuniform List<scalar> 
50
(
1627.91
1576.41
1514.36
1419.2
1279
1105.81
925.894
770.448
610.041
514.641
475.177
456.53
450.377
456.216
442.666
379.219
292.741
249.184
305.647
280.283
234.612
161.433
94.4871
66.008
17.4362
2.77
0.0160326
-2.66432
-2.79123
-2.35833
-2.26584
-2.80296
-2.51236
-1.47879
-0.407318
-0.696296
-1.94989
-3.58621
-4.84244
-2.80373
-5.57113
-5.19992
-6.71102
-5.81743
-5.76559
-6.03099
-6.2605
-1.05013
-5.84117
-5.96482
)
;
    }
    lowerWall
    {
        type            calculated;
        value           nonuniform List<scalar> 
62
(
546.856
545.553
547.025
552.236
562.587
578.628
598.589
619.143
639.454
660.525
683.145
707.228
732.208
757.501
782.571
806.667
828.405
846.935
859.698
862.29
867.057
894.554
930.269
900.871
836.199
773.038
716.257
664.955
615.189
566.05
519.124
563.839
620.861
681.76
758.184
929.476
910.473
891.952
881.95
875.02
870.232
857.404
843.911
931.844
904.159
914.23
907.331
737.638
576.09
486.897
462.111
468.53
484.577
506.105
534.796
558.116
597.154
736.007
1093.13
1541.75
1702.78
1652.14
)
;
    }
    atmosphere
    {
        type            calculated;
        value           nonuniform List<scalar> 
46
(
-5.72904
-5.72904
-5.72904
-5.72904
-5.72904
-5.72904
-5.72904
-5.72904
-5.72904
-5.72904
-5.72904
-5.72904
-5.72904
-5.72904
-5.72904
-5.72904
-5.72904
-5.72904
-5.72904
-5.72904
-5.72904
-5.72904
-5.72904
-5.72904
-5.72904
-5.72904
-5.72915
-5.72926
-5.72921
-5.72905
-5.72904
-5.72904
-5.72904
-5.72905
-5.72914
-5.72965
-5.72937
-5.72932
-5.73071
-5.76071
-5.839
-5.93996
-6.01363
-6.02384
-6.19907
-5.87403
)
;
    }
    defaultFaces
    {
        type            empty;
    }
}


// ************************************************************************* //
