/*--------------------------------*- C++ -*----------------------------------*\
| =========                 |                                                 |
| \\      /  F ield         | OpenFOAM: The Open Source CFD Toolbox           |
|  \\    /   O peration     | Version:  2206                                  |
|   \\  /    A nd           | Website:  www.openfoam.com                      |
|    \\/     M anipulation  |                                                 |
\*---------------------------------------------------------------------------*/
FoamFile
{
    version     2.0;
    format      ascii;
    arch        "LSB;label=32;scalar=64";
    class       volScalarField;
    location    "0.625";
    object      p_rgh;
}
// * * * * * * * * * * * * * * * * * * * * * * * * * * * * * * * * * * * * * //

dimensions      [1 -1 -2 0 0 0 0];

internalField   nonuniform List<scalar> 
2268
(
546.856
545.553
547.025
552.236
562.587
578.628
598.589
619.143
639.454
660.525
683.145
707.228
732.208
757.501
782.571
806.667
828.405
846.935
859.698
862.29
867.057
894.554
930.269
546.53
544.695
545.953
551.005
561.191
577.286
597.626
618.536
638.994
660.1
682.704
706.815
731.883
757.262
782.376
806.598
828.847
848.487
861.918
861.013
857.227
881.501
924.393
545.405
543.122
544.206
548.799
558.415
574.521
595.658
617.343
638.123
659.344
682.065
706.29
731.448
756.873
781.894
805.968
828.382
847.946
867.302
860.313
850.896
866.724
920.024
544.035
541.217
541.866
545.679
554.299
570.359
592.759
615.673
636.964
658.329
681.181
705.585
730.943
756.565
781.663
805.73
828.231
848.529
866.702
872.796
856.385
868.623
921.505
542.994
539.35
539.216
542.136
549.234
565.502
589.475
613.708
635.564
657.111
680.107
704.715
730.363
756.35
781.704
805.989
828.777
849.668
867.947
879.387
875.955
896.65
929.815
542.347
538.118
536.271
537.088
544.857
561.647
586.541
611.497
633.706
655.574
678.834
703.695
729.711
756.236
781.969
806.597
829.844
851.424
870.691
885.872
898.472
911.378
938.908
541.845
538.15
534.481
535.195
542.506
559.437
584.077
608.726
631.007
653.352
677.184
702.499
729.012
756.292
782.482
807.509
831.265
853.521
873.823
891.58
908.146
923.614
948.607
539.823
530.384
515.49
510.342
517.523
539.587
577.252
604.663
627.742
650.483
675.045
700.972
728.12
756.457
783.215
808.714
833.019
855.944
877.18
896.697
916.076
934.439
960.535
931.844
904.159
914.23
907.331
737.638
576.09
486.897
462.111
468.53
484.577
506.105
534.796
558.116
597.154
736.007
1093.13
1541.75
1702.78
1652.14
922.042
892.163
924.805
837.361
552.263
420.405
415.97
431.631
454.529
476.413
490.333
501.071
519.483
558.105
662.847
945.055
1395.76
1656.89
1657.98
911.14
884.385
909.339
598.39
387.457
358.659
357.463
364.917
379.862
395.371
405.006
412.092
424.137
452.283
504.061
653.108
1106.22
1560.71
1650.31
905.619
888.337
788.791
434.788
364.129
355.151
355.727
361.191
373.341
386.515
396.77
401.651
404.741
408.227
408.118
436.597
724.969
1362.38
1609.53
905.452
916.201
669.409
388.852
358.41
353.435
354.786
360.614
373.966
387.699
394.32
397.088
401.963
406.72
405.846
409.52
474.563
1070.61
1523.69
910.575
976.369
623.743
385.787
359.102
353.645
354.862
363.972
378.81
390.587
395.419
397.674
398.65
400.643
404.36
413.281
420.366
729.988
1404.84
895.15
916.441
651.093
401.636
363.921
359.68
409.423
541.749
569.524
504.327
404.446
398.406
398.686
400.654
403.371
408.727
417.089
620.473
1279.16
887.696
867.725
624.46
428.036
375.058
434.386
664.415
708.488
707.813
610.274
421.343
400.571
398.574
402.556
407.436
409.617
422.845
665.82
1177.74
325.149
274.546
229.372
235.985
259.541
314.195
404.636
497.6
570.792
632.894
670.604
698.017
726.802
757.248
784.885
811.043
836.077
860.042
882.67
904.224
925.753
950.419
981.678
1.68491
1.53689
1.27272
8.7646
42.7537
74.6573
95.0354
119.571
171.315
261.09
383.267
506.513
624.672
748.198
788.686
815.968
841.585
866.518
890.488
913.685
937.964
964.681
996.2
1.44622
1.37213
1.24655
1.24029
1.27073
1.24605
1.21579
1.18556
1.16201
1.23356
13.5536
58.946
138.747
275.665
464.177
617.555
737.582
865.352
900.19
922.719
947.038
973.43
1002.82
1.35013
1.29219
1.18525
1.17564
1.22219
1.20041
1.158
1.14125
1.16632
1.19811
1.19155
1.22201
1.27139
1.4156
28.844
92.488
159.24
284.822
473.881
605.819
755.477
907.41
981.345
1.28444
1.26683
1.21286
1.21172
1.22262
1.192
1.15953
1.13872
1.13151
1.15127
1.16967
1.20839
1.24362
1.29888
1.34825
1.39805
1.42727
1.42753
1.49427
13.6266
94.486
239.843
405.596
1.23317
1.22704
1.20273
1.18431
1.17898
1.17176
1.16028
1.15513
1.16064
1.1715
1.1888
1.20939
1.23998
1.32934
1.35756
1.38986
1.37683
1.42961
1.50303
1.60139
1.69788
1.82135
1.94736
1.19058
1.18505
1.17452
1.16492
1.16013
1.15215
1.14639
1.1446
1.1478
1.15799
1.17835
1.19709
1.22664
1.28684
1.31573
1.33192
1.3703
1.41333
1.48731
1.6167
1.83067
1.98511
2.16735
1.155
1.15057
1.14488
1.13978
1.13632
1.13182
1.12958
1.13095
1.137
1.14792
1.16285
1.18126
1.20377
1.2298
1.263
1.29818
1.33651
1.38205
1.44525
1.54126
1.98252
2.10171
2.15041
1.12026
1.11782
1.115
1.1117
1.10983
1.10876
1.10943
1.11256
1.11884
1.12923
1.14388
1.16211
1.18488
1.2102
1.2389
1.27057
1.30459
1.34289
1.38497
1.46109
1.82271
1.96583
2.05032
1.08719
1.08603
1.08499
1.08344
1.08322
1.08381
1.08613
1.0905
1.09758
1.10796
1.12174
1.13865
1.159
1.18161
1.20807
1.23698
1.26834
1.30605
1.34318
1.37231
1.53631
1.84177
1.84869
1.05539
1.05469
1.05485
1.05462
1.05562
1.0574
1.06083
1.06618
1.07384
1.0841
1.09714
1.11301
1.13171
1.15296
1.17666
1.20206
1.22965
1.26057
1.28549
1.3102
1.59513
1.75597
1.56676
1.02394
1.02361
1.02443
1.02502
1.02682
1.02939
1.03352
1.03934
1.04713
1.05713
1.06954
1.08432
1.1014
1.12056
1.14167
1.16441
1.18826
1.21212
1.23414
1.2582
1.59141
1.72334
1.69976
0.992395
0.992491
0.993515
0.994625
0.997008
0.999825
1.00434
1.0103
1.01797
1.02753
1.03909
1.05263
1.0681
1.08535
1.10424
1.12448
1.14546
1.16584
1.18417
1.19293
1.30889
1.69739
1.68352
0.960524
0.96093
0.961889
0.96344
0.965897
0.969159
0.97364
0.979426
0.986686
0.995543
1.00608
1.01832
1.03219
1.04762
1.06446
1.08247
1.10123
1.12
1.13639
1.14504
1.13843
1.16096
1.22302
0.928177
0.928772
0.929651
0.931387
0.933887
0.937198
0.941515
0.946944
0.953611
0.961618
0.971031
0.98187
0.994108
1.00768
1.02249
1.03833
1.05494
1.07189
1.08779
1.09903
1.10193
1.09703
1.09225
0.89527
0.895893
0.896863
0.898571
0.90099
0.904149
0.908159
0.913099
0.919058
0.926113
0.934317
0.943692
0.954226
0.965866
0.978531
0.992077
1.0063
1.02095
1.03533
1.04771
1.05622
1.06078
1.06393
0.861856
0.862463
0.863421
0.86504
0.867287
0.870176
0.873769
0.878119
0.883284
0.889315
0.896249
0.904104
0.912868
0.92249
0.932888
0.943938
0.955476
0.967286
0.978896
0.989415
0.997921
1.00409
1.00885
0.827966
0.828522
0.829416
0.830886
0.832892
0.83543
0.838529
0.842218
0.846527
0.851482
0.857102
0.863397
0.870344
0.877883
0.885914
0.8943
0.902867
0.911368
0.919385
0.926266
0.931259
0.933694
0.933615
0.793655
0.794141
0.794936
0.796211
0.797927
0.800059
0.802613
0.805594
0.809009
0.812859
0.817146
0.821864
0.826976
0.832402
0.838008
0.843621
0.849024
0.853917
0.857833
0.860115
0.859986
0.856442
0.848467
0.759004
0.759397
0.760072
0.761123
0.762515
0.764206
0.766184
0.768435
0.770941
0.773684
0.776645
0.779802
0.783101
0.786433
0.789627
0.79246
0.794653
0.795837
0.79548
0.792829
0.786954
0.776654
0.760283
0.724087
0.724382
0.724921
0.725729
0.726776
0.728008
0.729398
0.730914
0.73252
0.734178
0.735853
0.737503
0.739051
0.740364
0.741233
0.741387
0.740479
0.738065
0.733548
0.726114
0.7147
0.697942
0.673978
0.688978
0.689188
0.689576
0.69013
0.690824
0.691593
0.692399
0.693193
0.693927
0.694547
0.695003
0.695234
0.695138
0.694555
0.693252
0.690917
0.687149
0.681431
0.673114
0.661368
0.645092
0.622902
0.592943
0.653761
0.653886
0.65412
0.65442
0.654766
0.655081
0.65532
0.655422
0.655327
0.654976
0.654306
0.653236
0.651641
0.649335
0.646065
0.6415
0.635203
0.626613
0.615047
0.599692
0.579488
0.553145
0.518892
0.618507
0.618548
0.618631
0.618683
0.618695
0.618579
0.618283
0.617736
0.616875
0.615637
0.613952
0.611723
0.608803
0.604985
0.6
0.59351
0.585069
0.574107
0.559941
0.541792
0.518673
0.489591
0.452735
0.583275
0.583238
0.583176
0.582994
0.582694
0.582177
0.58139
0.580254
0.578705
0.576681
0.57411
0.570883
0.566834
0.561739
0.555322
0.547242
0.537067
0.524251
0.508147
0.488061
0.463042
0.432131
0.39406
0.548115
0.548005
0.547812
0.547414
0.546831
0.545954
0.544731
0.543079
0.540936
0.538243
0.534926
0.53087
0.5259
0.519782
0.512228
0.502915
0.491422
0.477275
0.459827
0.438463
0.412387
0.380768
0.342638
0.513072
0.512892
0.512592
0.511991
0.511162
0.509975
0.50838
0.506296
0.503664
0.500432
0.496523
0.491813
0.486128
0.479248
0.470847
0.460675
0.448241
0.433181
0.414948
0.392986
0.366639
0.335212
0.297936
0.478184
0.47793
0.477565
0.476759
0.475742
0.474297
0.472401
0.469973
0.466963
0.463332
0.458986
0.453799
0.447588
0.44024
0.431258
0.42047
0.407498
0.391979
0.373474
0.351506
0.325542
0.295006
0.259265
0.443484
0.443175
0.442761
0.441728
0.440625
0.438972
0.436854
0.434171
0.430887
0.427007
0.422375
0.416894
0.410389
0.402649
0.393379
0.382316
0.369154
0.353583
0.335249
0.313764
0.288707
0.259595
0.225901
0.408977
0.408607
0.408112
0.407112
0.405824
0.404046
0.401783
0.398946
0.39551
0.391447
0.386671
0.381058
0.374425
0.366557
0.357215
0.346149
0.333103
0.317824
0.300033
0.279429
0.255675
0.228377
0.197105
0.374695
0.374289
0.373762
0.372746
0.371387
0.369546
0.36721
0.364304
0.360809
0.356697
0.351899
0.346292
0.339695
0.3319
0.322694
0.311861
0.299196
0.284496
0.267546
0.248123
0.225955
0.200736
0.172128
0.340672
0.340253
0.339716
0.338697
0.337331
0.335487
0.333153
0.330261
0.326804
0.322751
0.318045
0.312568
0.306147
0.29859
0.2897
0.279303
0.267239
0.253349
0.237474
0.219446
0.199057
0.176074
0.150247
0.306942
0.306531
0.305999
0.305005
0.303677
0.301884
0.299618
0.296817
0.293483
0.289585
0.285069
0.279825
0.273696
0.266505
0.258084
0.248288
0.236998
0.224099
0.209475
0.193
0.174515
0.15385
0.130829
0.27353
0.273145
0.27263
0.271689
0.270436
0.268735
0.266591
0.263945
0.26081
0.257148
0.252905
0.247981
0.242234
0.235514
0.227681
0.218617
0.208238
0.196469
0.183228
0.168417
0.151919
0.133605
0.113361
0.240442
0.240099
0.239612
0.238745
0.237597
0.236022
0.234044
0.231607
0.228729
0.22537
0.22147
0.216935
0.211648
0.205485
0.198335
0.190112
0.180757
0.170223
0.158458
0.145388
0.130919
0.114958
0.09743
0.207669
0.207387
0.206937
0.206162
0.205138
0.203722
0.201947
0.199759
0.197185
0.194176
0.190673
0.18659
0.181831
0.176301
0.16992
0.162627
0.154388
0.145175
0.134953
0.123664
0.111236
0.0975977
0.0826885
0.175198
0.174984
0.174581
0.173913
0.173031
0.1718
0.170259
0.168355
0.166117
0.163493
0.16043
0.156852
0.152682
0.147855
0.142319
0.136037
0.12899
0.121163
0.112526
0.103036
0.0926299
0.0812483
0.0688345
0.142977
0.142832
0.142483
0.141933
0.141207
0.140184
0.138904
0.137313
0.135438
0.133225
0.130635
0.127605
0.124082
0.120025
0.115405
0.110204
0.10441
0.09801
0.09098
0.0832797
0.074853
0.0656452
0.0555999
0.110934
0.110857
0.110576
0.110152
0.109594
0.108795
0.107796
0.10654
0.105047
0.103268
0.10118
0.0987419
0.0959234
0.0927018
0.0890621
0.0849945
0.0804918
0.0755404
0.0701152
0.0641771
0.0576766
0.0505687
0.0428015
0.0790442
0.0790362
0.0788379
0.0785467
0.0781611
0.0775942
0.0768814
0.0759697
0.0748733
0.0735555
0.0720086
0.0702138
0.068155
0.0658223
0.0632099
0.0603092
0.0571102
0.0535993
0.0497537
0.045541
0.0409246
0.035872
0.0303408
0.0473176
0.0473579
0.0472432
0.0470836
0.0468625
0.0465229
0.0460958
0.0455365
0.0448584
0.0440375
0.0430777
0.0419744
0.040723
0.0393185
0.0377565
0.0360275
0.0341215
0.0320292
0.0297357
0.0272199
0.0244626
0.0214452
0.0181368
0.0157175
0.0157713
0.0157342
0.0156883
0.0156181
0.0155022
0.015358
0.0151635
0.0149277
0.0146421
0.0143118
0.0139377
0.0135199
0.0130548
0.0125401
0.0119703
0.0113392
0.0106443
0.00988379
0.00905177
0.00814112
0.00714459
0.00604835
1034.67
1091.47
1152.4
1229.03
1042.48
1093.34
1143.72
1186.73
1041.74
1088.03
1135.42
1122.88
1035.08
1076
1134.93
1017.79
520.037
557.197
726.442
411.682
2.71292
50.2925
189.278
229.112
2.39215
3.82212
144.199
256.008
2.28372
6.35539
181.497
281.087
2.22496
2.23586
62.5628
296.976
1.91509
2.03464
63.5283
300.09
1.66929
1.79548
42.6977
276.045
1.67677
1.87084
19.8449
203.561
1.49427
1.6974
3.14417
111.719
1.18715
1.30403
1.41012
53.2687
1.10242
1.14099
1.26909
10.8505
1.07124
1.0889
1.18652
1.66737
1.01456
1.02242
1.0667
1.25698
0.931218
0.921742
0.913302
0.916471
0.8327
0.79787
0.730683
0.590679
0.730799
0.671119
0.562002
0.344982
0.633276
0.556549
0.427792
0.20575
0.544362
0.458068
0.324245
0.119219
0.465626
0.37494
0.24425
0.0601507
0.39672
0.306062
0.182581
0.0196437
0.33748
0.249449
0.134722
-0.00928207
0.287063
0.203127
0.0972904
-0.031102
0.244449
0.165459
0.0681166
-0.047705
0.208618
0.135122
0.0459389
-0.0593117
0.178653
0.111094
0.0300806
-0.0650581
0.153673
0.0924653
0.0199799
-0.0642081
0.132778
0.0781903
0.0145712
-0.0579717
0.115076
0.0670943
0.0122163
-0.049103
0.0997848
0.0580797
0.0111948
-0.0404516
0.0862848
0.0502965
0.0102231
-0.033998
0.0741073
0.0432264
0.00881041
-0.0300063
0.0628948
0.0366357
0.00712985
-0.0271423
0.0523478
0.0303583
0.00545473
-0.0244569
0.0422202
0.0241988
0.00323745
-0.0216163
0.0324209
0.0183145
0.00178036
-0.0181421
0.0229215
0.0127465
0.000685748
-0.0138632
0.0136805
0.00751286
0.000152108
-0.00876795
0.00456061
0.00247841
-2.66234e-05
-0.0030925
1267.75
1141.26
807.854
619.84
618.296
734.044
747.486
723.78
706.123
747.449
754.934
535.523
399.669
412.411
415.278
410.08
416.382
719.551
1101.46
1219.42
1234.78
1112.28
943.152
825.809
774.025
580.303
215.691
165.915
426.733
775.203
683.317
451.923
405.071
403.589
404.914
408.661
795.833
1119.37
1002.27
860.864
717.996
499.385
224.994
111.326
117.135
124.4
142.093
320.262
687.655
632.577
426.426
404.932
404.326
404.301
406.722
869.897
1189.31
410.537
62.6777
36.7046
46.8429
68.9431
93.7545
104.518
138.02
334.997
465.389
469.882
422.586
410.185
409.649
408.705
409.686
428.947
844.184
1273.69
31.4378
34.0483
36.4027
39.0355
50.2459
66.5687
130.828
194.16
192.192
250.947
351.357
402.144
409.693
413.846
416.312
416.696
415.919
643.115
1344.71
31.4784
32.6131
34.6489
36.7053
41.2612
49.561
92.5742
175.427
261.635
474.797
672.826
730.98
671.108
662.011
649.338
510.66
416.327
615.565
1419.52
30.323
30.5733
31.2945
31.947
33.8407
40.7544
124.379
586.346
929.422
1155.85
1241.76
1273.87
1290.9
1256.77
1228.58
1124.71
438.699
657.962
1492.2
28.0102
26.7694
26.3048
24.3249
21.3947
91.0184
715.168
1082.51
1181.17
1227.2
1225.67
1219.95
1052.55
708.075
798.356
993.902
500.995
743.373
1551.31
41.9814
22.2854
20.8114
15.2766
13.0883
436.409
1052.87
1171.49
1070.74
1276
1272.09
1240.39
331.404
181.674
159.046
386.284
501.123
769.338
1601.71
46.817
19.2236
17.5826
12.9036
23.9227
557.778
1145.03
771.993
124.201
540.781
1334.03
1232.03
434.732
200.647
192.819
216.22
593.06
1424.97
1786.04
59.3959
18.3992
17.2397
16.172
42.5202
561.709
1015.3
83.5024
24.7888
124.397
1069.74
1293.3
1379.41
481.424
241.034
606.373
1642.86
1949.97
1958.4
114.973
19.6126
18.7474
20.5688
45.7752
528.935
812.638
10.0096
8.50052
9.59846
236.605
1301.95
1512.76
1578.87
1351.64
1548.13
1956.88
2048.09
2048.93
182.194
53.0768
21.6507
25.2138
90.3395
887.08
649.472
1.95918
0.759557
-0.374756
-2.10518
250.545
1375.61
1753.81
1838.81
1940.58
2047.5
2119.33
2119.13
184.602
120.096
22.3294
27.209
560.573
936.949
115.482
-2.03691
-2.49474
-3.19468
-4.20921
-5.67962
39.2782
913.855
1369.47
1558.82
1702.73
2112.18
2161.22
77.3535
76.8252
47.4427
405.902
586.971
548.22
-3.4789
-3.561
-3.74721
-3.88806
-3.91083
-3.80903
-3.43875
-2.68887
0.0405882
27.16
205.694
910.184
2202.74
3.72872
38.7159
295.278
442.123
452.159
-2.69841
-3.76169
-3.90467
-4.14201
-4.12521
-4.03297
-3.75628
-3.2107
-2.44674
-1.42211
0.233842
6.22699
85.8452
1314.5
1.88029
49.8282
271.731
251.32
19.4403
-3.21046
-3.51267
-3.82911
-4.19638
-4.05161
-3.90485
-3.60912
-3.08134
-2.35256
-1.54993
-0.952367
0.0819132
36.517
203.729
3.27436
28.5509
23.4681
6.70893
-2.55992
-2.72295
-3.21382
-3.56704
-3.84494
-3.70524
-3.49676
-3.23258
-2.80053
-2.12391
-1.48253
-1.13592
-0.743587
16.6206
24.3167
0.690072
-0.279835
-1.31638
-2.1943
-2.09777
-2.10343
-2.61302
-3.01822
-3.17368
-3.14836
-2.89968
-2.63294
-2.29006
-1.76014
-1.28359
-1.07972
-0.775301
17.0628
35.2555
-0.0798449
-0.579399
-1.23533
-1.72654
-1.93564
-2.0215
-2.11563
-2.26097
-2.43326
-2.42199
-2.29201
-2.01927
-1.76267
-1.42974
-1.05127
-0.820542
1.65976
37.7731
232.706
-0.125491
-0.476287
-0.884855
-1.24196
-1.47994
-1.62422
-1.72824
-1.81148
-1.86623
-1.85427
-1.75814
-1.58213
-1.33801
-1.05677
-0.744932
-0.55929
22.1913
46.3131
254.931
-0.141352
-0.39315
-0.671192
-0.9261
-1.12235
-1.26029
-1.3587
-1.4278
-1.46322
-1.44803
-1.3702
-1.23158
-1.04021
-0.817079
-0.56668
-0.415906
41.0877
46.2048
266.169
-0.148739
-0.335437
-0.531528
-0.714543
-0.867291
-0.98597
-1.07282
-1.13351
-1.1628
-1.14804
-1.08083
-0.966226
-0.816365
-0.64992
-0.469274
-0.362538
41.5068
34.9387
264.766
-0.149126
-0.291261
-0.434882
-0.568734
-0.683766
-0.777107
-0.851078
-0.905957
-0.925733
-0.912537
-0.850141
-0.744364
-0.622361
-0.497978
-0.375778
-0.308322
26.4488
28.7117
132.169
-0.148796
-0.261486
-0.371732
-0.472679
-0.559584
-0.631281
-0.682247
-0.595686
-0.380954
-0.392412
-0.550606
-0.558242
-0.440868
-0.3304
-0.236616
-0.195474
13.9915
81.4268
272.361
-0.150577
-0.245013
-0.33615
-0.419411
-0.481173
-0.551103
-0.5678
-0.169761
-0.115998
-0.0885865
-0.0816967
-0.365108
-0.273472
-0.145254
-0.0282495
0.0607658
10.0938
273.643
355.819
-0.154016
-0.238488
-0.322461
-0.349855
-0.412491
-0.475618
-0.559516
-0.601439
-0.167295
-0.0278121
0.0802039
-0.0942793
-0.139823
0.0256844
0.193898
12.6843
12.9958
364.252
369.101
-0.156693
-0.237409
-0.243731
-0.31199
-0.407759
-0.517887
-0.569424
-0.626622
-0.556421
-0.0341703
0.105572
-0.0225194
-0.0537789
0.160751
0.717488
16.9896
16.0795
195.418
381.022
-0.154192
-0.231371
-0.263221
-0.359748
-0.457352
-0.513031
-0.5863
-0.663308
-0.397091
-0.0568173
0.0911003
-0.204517
-0.0522792
0.202457
0.90633
27.9913
41.7068
42.1111
389.77
-0.143363
-0.210667
-0.28843
-0.36219
-0.425782
-0.497902
-0.58987
-0.67513
-0.249778
-0.0685198
-0.346678
-0.356628
-0.17696
0.0900634
7.97425
55.6581
55.815
27.4277
397.176
-0.12574
-0.18481
-0.251261
-0.318954
-0.386155
-0.470911
-0.571639
-0.636204
-0.367451
-0.389459
-0.580485
-0.506704
-0.394539
1.24783
30.2167
31.8076
32.1889
26.6557
403.839
-0.105835
-0.15615
-0.214553
-0.279704
-0.357431
-0.426734
-0.539121
-0.607618
-0.637675
-0.662944
-0.680013
-0.719853
-0.187936
16.3825
19.4887
-0.965572
-0.923061
21.8381
328.15
-0.0887004
-0.132449
-0.186155
-0.252983
-0.341592
-0.4159
-0.504392
-0.541643
-0.616862
-0.685072
-0.815533
-0.848751
8.50683
15.8676
0.663007
-1.1575
-1.10391
2.30641
1.3827
-0.0764068
-0.116171
-0.168122
-0.2389
-0.337778
-0.421865
-0.381734
-0.338063
-0.520618
-0.750741
-1.01309
2.12146
9.48925
3.7464
-1.52062
-1.35686
-1.22962
-1.18129
1.00486
-0.0683906
-0.105515
-0.156209
-0.229269
-0.332757
-0.36016
-0.26714
-0.353533
-0.451892
-0.807294
-1.15813
1.78202
8.6284
-2.00099
-1.71301
-1.48672
-1.43834
-1.47738
399.502
-0.0619648
-0.0963227
-0.143827
-0.21401
-0.309784
-0.242746
-0.242104
-0.338141
-0.441867
-0.784116
-1.06413
1.92797
4.34532
-1.69032
-1.57558
-1.58107
-1.44391
-1.48758
812.511
-0.0552273
-0.0857683
-0.127481
-0.189449
-0.27233
-0.150981
-0.174154
-0.264418
-0.351502
-0.654863
-0.951094
1.3102
-0.0645874
-1.32111
-1.57822
-1.39458
-1.30005
2.14702
834.756
-0.0476012
-0.0730309
-0.106955
-0.156606
-0.219671
-0.101546
-0.0653102
-0.132588
-0.186915
-0.463432
-0.61498
-0.632183
-1.01096
-1.24662
-1.16868
-1.09188
-1.07315
6.26114
855.367
-0.03877
-0.0582435
-0.0831228
-0.117958
-0.160097
-0.126797
0.04453
0.0174912
-0.113083
-0.310393
-0.350607
-0.487794
-0.635293
-0.748128
-0.774382
-0.779555
-0.768391
6.98049
875.131
-0.0286383
-0.0419609
-0.0583353
-0.0794543
-0.0989301
-0.108351
-0.102588
-0.0669771
-0.166736
-0.174081
-0.183906
-0.244202
-0.334583
-0.41461
-0.473172
-0.535118
-0.499559
17.7969
400.724
-0.0175778
-0.0251407
-0.0337662
-0.0440023
-0.0554432
-0.0668425
-0.0774643
-0.0862238
-0.0892587
-0.0868141
-0.088165
-0.111418
-0.145341
-0.212848
-0.307874
-0.393413
-0.394527
-0.395885
-0.299924
-0.0060087
-0.00824238
-0.0105216
-0.0127831
-0.0148149
-0.0174544
-0.0220319
-0.0272938
-0.0295597
-0.0279942
-0.0233746
-0.00856143
-0.0278134
-0.120407
-0.21819
-0.302266
-0.322461
-0.397768
-0.298381
)
;

boundaryField
{
    leftWall
    {
        type            fixedFluxPressure;
        gradient        uniform 0;
        value           nonuniform List<scalar> 
50
(
546.856
546.53
545.405
544.035
542.994
542.347
541.845
539.823
325.149
1.68491
1.44622
1.35013
1.28444
1.23317
1.19058
1.155
1.12026
1.08719
1.05539
1.02394
0.992395
0.960524
0.928177
0.89527
0.861856
0.827966
0.793655
0.759004
0.724087
0.688978
0.653761
0.618507
0.583275
0.548115
0.513072
0.478184
0.443484
0.408977
0.374695
0.340672
0.306942
0.27353
0.240442
0.207669
0.175198
0.142977
0.110934
0.0790442
0.0473176
0.0157175
)
;
    }
    rightWall
    {
        type            fixedFluxPressure;
        gradient        uniform 0;
        value           nonuniform List<scalar> 
50
(
1652.14
1657.98
1650.31
1609.53
1523.69
1404.84
1279.16
1177.74
1101.46
1119.37
1189.31
1273.69
1344.71
1419.52
1492.2
1551.31
1601.71
1786.04
1958.4
2048.93
2119.13
2161.22
2202.74
1314.5
203.729
24.3167
35.2555
232.706
254.931
266.169
264.766
132.169
272.361
355.819
369.101
381.022
389.77
397.176
403.839
328.15
1.3827
1.00486
399.502
812.511
834.756
855.367
875.131
400.724
-0.299924
-0.298381
)
;
    }
    lowerWall
    {
        type            fixedFluxPressure;
        gradient        uniform 0;
        value           nonuniform List<scalar> 
62
(
546.856
545.553
547.025
552.236
562.587
578.628
598.589
619.143
639.454
660.525
683.145
707.228
732.208
757.501
782.571
806.667
828.405
846.935
859.698
862.29
867.057
894.554
930.269
930.269
924.393
920.024
921.505
929.815
938.908
948.607
960.535
1034.67
1091.47
1152.4
1229.03
931.844
922.042
911.14
905.619
905.452
910.575
895.15
887.696
931.844
904.159
914.23
907.331
737.638
576.09
486.897
462.111
468.53
484.577
506.105
534.796
558.116
597.154
736.007
1093.13
1541.75
1702.78
1652.14
)
;
    }
    atmosphere
    {
        type            totalPressure;
        rho             rho;
        psi             none;
        gamma           1;
        p0              uniform 0;
        value           nonuniform List<scalar> 
46
(
0
0
0
0
0
0
0
0
0
0
0
0
0
0
0
0
0
0
0
0
0
0
0
0
0
0
-0.000105026
-0.000223769
-0.000165362
-1.41544e-05
0
0
0
0
0
0
0
0
-0.00167094
-0.0316672
-0.109958
-0.210915
-0.284589
-0.294804
-0.470034
-0.14499
)
;
    }
    defaultFaces
    {
        type            empty;
    }
}


// ************************************************************************* //
