/*--------------------------------*- C++ -*----------------------------------*\
| =========                 |                                                 |
| \\      /  F ield         | OpenFOAM: The Open Source CFD Toolbox           |
|  \\    /   O peration     | Version:  2206                                  |
|   \\  /    A nd           | Website:  www.openfoam.com                      |
|    \\/     M anipulation  |                                                 |
\*---------------------------------------------------------------------------*/
FoamFile
{
    version     2.0;
    format      ascii;
    arch        "LSB;label=32;scalar=64";
    class       surfaceScalarField;
    location    "0.625";
    object      phi;
}
// * * * * * * * * * * * * * * * * * * * * * * * * * * * * * * * * * * * * * //

dimensions      [0 3 -1 0 0 0 0];

oriented        oriented;

internalField   nonuniform List<scalar> 
4432
(
-3.24589e-06
3.24589e-06
-6.14273e-06
2.89684e-06
-7.15376e-06
1.01103e-06
-6.89857e-06
-2.55197e-07
-5.44474e-06
-1.45383e-06
-2.62524e-06
-2.8195e-06
1.0364e-06
-3.66164e-06
4.3401e-06
-3.30371e-06
6.46818e-06
-2.12808e-06
7.2601e-06
-7.91916e-07
6.88894e-06
3.71153e-07
5.59742e-06
1.29152e-06
3.69127e-06
1.90615e-06
1.3053e-06
2.38597e-06
-1.64046e-06
2.94576e-06
-5.42108e-06
3.78061e-06
-9.6677e-06
4.24661e-06
-1.29142e-05
3.24652e-06
-1.6201e-05
3.28674e-06
-2.21549e-05
5.95393e-06
-2.51539e-05
2.99897e-06
-1.66381e-05
-8.51575e-06
-1.66381e-05
-3.87343e-06
7.11932e-06
-6.02653e-06
5.04994e-06
-6.57058e-06
1.55507e-06
-6.47298e-06
-3.52795e-07
-5.35902e-06
-2.56779e-06
-2.72554e-06
-5.45298e-06
9.7183e-07
-7.35901e-06
4.39349e-06
-6.72536e-06
6.59012e-06
-4.32471e-06
7.4484e-06
-1.6502e-06
7.37079e-06
4.48758e-07
6.76865e-06
1.89366e-06
5.80429e-06
2.87051e-06
4.56255e-06
3.62771e-06
2.95245e-06
4.55585e-06
6.76608e-07
6.05644e-06
-3.01086e-06
7.93408e-06
-8.66417e-06
8.89984e-06
-1.51671e-05
9.78963e-06
-1.9837e-05
1.06239e-05
-1.93764e-05
2.53835e-06
-1.20296e-05
-1.58626e-05
-2.86677e-05
-2.93889e-06
1.00582e-05
-4.56705e-06
6.6781e-06
-5.32279e-06
2.3108e-06
-5.75314e-06
7.75614e-08
-5.21845e-06
-3.10248e-06
-2.93537e-06
-7.73605e-06
6.48096e-07
-1.09425e-05
4.07962e-06
-1.01569e-05
6.2754e-06
-6.5205e-06
7.04896e-06
-2.42377e-06
6.79354e-06
7.04174e-07
5.96502e-06
2.72219e-06
4.92638e-06
3.90914e-06
3.92027e-06
4.63382e-06
3.11809e-06
5.35802e-06
2.61133e-06
6.5632e-06
1.93415e-06
8.61127e-06
-1.82654e-07
1.10166e-05
-3.98113e-06
1.35881e-05
-7.54044e-06
1.41832e-05
-8.36935e-06
3.36725e-06
-5.01322e-06
-1.92187e-05
-3.36809e-05
-1.52594e-06
1.15841e-05
-2.39715e-06
7.54932e-06
-3.1776e-06
3.09125e-06
-3.67679e-06
5.76745e-07
-3.22378e-06
-3.55549e-06
-1.23766e-06
-9.72218e-06
1.50697e-06
-1.36871e-05
4.17428e-06
-1.28242e-05
5.88921e-06
-8.23543e-06
6.43592e-06
-2.97048e-06
6.06748e-06
1.07261e-06
5.16773e-06
3.62193e-06
4.08037e-06
4.9965e-06
3.06986e-06
5.64432e-06
2.30911e-06
6.11877e-06
2.05668e-06
6.81562e-06
2.65459e-06
8.01335e-06
3.50915e-06
1.01621e-05
4.38272e-06
1.27145e-05
4.92717e-06
1.36388e-05
3.65898e-06
4.63543e-06
2.45919e-06
-1.80189e-05
-3.12217e-05
3.63761e-07
1.12204e-05
8.43046e-07
7.07003e-06
7.40736e-07
3.19356e-06
1.13563e-06
1.81848e-07
2.30608e-06
-4.72594e-06
3.77883e-06
-1.11949e-05
4.98558e-06
-1.48939e-05
5.68762e-06
-1.35262e-05
5.9376e-06
-8.48541e-06
5.75226e-06
-2.78514e-06
5.16274e-06
1.66213e-06
4.2588e-06
4.52587e-06
3.26366e-06
5.99164e-06
2.41847e-06
6.4895e-06
1.79448e-06
6.74275e-06
1.52595e-06
7.08415e-06
2.03923e-06
7.50007e-06
3.7514e-06
8.44991e-06
6.91851e-06
9.54741e-06
1.04239e-05
1.01334e-05
1.0788e-05
4.27128e-06
6.66344e-06
-1.38943e-05
-2.45583e-05
2.88436e-06
8.33602e-06
5.3396e-06
4.61479e-06
7.00489e-06
1.52827e-06
9.1627e-06
-1.97596e-06
1.13327e-05
-6.89589e-06
1.1905e-05
-1.17673e-05
1.07253e-05
-1.37142e-05
8.72852e-06
-1.15294e-05
6.82338e-06
-6.58027e-06
5.333e-06
-1.29476e-06
4.23206e-06
2.76307e-06
3.24252e-06
5.51541e-06
2.36078e-06
6.87337e-06
1.75693e-06
7.09336e-06
1.38005e-06
7.11963e-06
1.26964e-06
7.19456e-06
1.66149e-06
7.10821e-06
3.01285e-06
7.09855e-06
5.83116e-06
6.72909e-06
9.87752e-06
6.08704e-06
1.1646e-05
2.50283e-06
7.82825e-06
-1.00766e-05
-1.673e-05
5.18443e-06
3.15159e-06
1.0432e-05
-6.32756e-07
1.55338e-05
-3.57359e-06
1.99663e-05
-6.40839e-06
2.16966e-05
-8.62623e-06
1.98601e-05
-9.93082e-06
1.59295e-05
-9.78356e-06
1.17314e-05
-7.33134e-06
8.21683e-06
-3.06568e-06
5.46604e-06
1.45603e-06
3.60405e-06
4.62506e-06
2.27813e-06
6.84133e-06
1.40849e-06
7.74301e-06
1.07145e-06
7.4304e-06
9.72678e-07
7.21839e-06
1.05976e-06
7.10748e-06
1.52647e-06
6.6415e-06
2.61714e-06
6.00787e-06
4.40004e-06
4.94618e-06
7.33821e-06
3.14887e-06
9.31839e-06
5.22641e-07
7.1363e-06
-7.89452e-06
-9.59374e-06
8.43863e-06
-5.28704e-06
1.82506e-05
-1.04448e-05
2.57992e-05
-1.11222e-05
2.87409e-05
-9.35004e-06
2.69571e-05
-6.84249e-06
2.19965e-05
-4.97018e-06
1.6604e-05
-4.39111e-06
1.21036e-05
-2.83093e-06
8.77984e-06
2.58121e-07
6.08417e-06
4.15169e-06
3.81541e-06
6.89382e-06
1.92991e-06
8.72682e-06
6.88175e-07
8.98475e-06
3.61296e-07
7.75727e-06
4.20452e-07
7.15924e-06
6.69991e-07
6.85794e-06
1.30379e-06
6.0077e-06
2.46002e-06
4.85164e-06
3.79184e-06
3.61437e-06
5.50293e-06
1.43777e-06
6.78478e-06
-7.59217e-07
5.65799e-06
-6.76772e-06
-3.93575e-06
3.58366e-05
-3.58366e-05
1.34649e-05
2.23717e-05
-2.21418e-05
3.56067e-05
-7.5757e-05
5.36152e-05
-0.000129611
5.38543e-05
-0.000155717
2.61059e-05
-0.000163567
7.84982e-06
-0.000166831
3.26442e-06
-0.000169282
2.45048e-06
-0.000172097
2.81528e-06
-0.000174987
2.88962e-06
-0.000175165
1.77901e-07
-0.000169601
-5.56383e-06
-0.000157259
-1.2342e-05
-0.000138138
-1.91206e-05
-0.000106981
-3.11577e-05
-5.53073e-05
-5.16733e-05
-1.76096e-06
-5.35464e-05
-1.76099e-06
1.54207e-05
-5.12574e-05
-2.49179e-05
6.27103e-05
-9.16109e-05
0.0001023
-0.000162703
0.000124707
-0.000203604
9.47556e-05
-0.000207483
2.99848e-05
-0.000202701
3.06819e-06
-0.000200495
1.05787e-06
-0.000198715
6.71107e-07
-0.00019619
2.90107e-07
-0.000191786
-1.51437e-06
-0.000185312
-6.29599e-06
-0.000177144
-1.37315e-05
-0.000166232
-2.32539e-05
-0.000150722
-3.46307e-05
-0.000126069
-5.58115e-05
-8.20869e-05
-9.56551e-05
-2.7777e-05
-0.000107856
-2.9538e-05
-1.34932e-05
-3.77642e-05
-6.29742e-05
0.000112191
-0.000126643
0.000165969
-0.000182616
0.000180679
-0.000207606
0.000119746
-0.000215587
3.79658e-05
-0.000215843
3.32397e-06
-0.000196369
-1.84156e-05
-0.000174852
-2.08465e-05
-0.000160323
-1.42389e-05
-0.000148635
-1.32018e-05
-0.000140119
-1.4812e-05
-0.000138133
-1.57172e-05
-0.000140081
-2.13063e-05
-0.000139849
-3.48625e-05
-0.000129641
-6.602e-05
-9.46106e-05
-0.000130685
-4.46227e-05
-0.000157844
-7.41607e-05
-2.65491e-05
-1.12152e-05
-6.31495e-05
0.000148792
-0.00012108
0.000223899
-0.000166095
0.000225694
-0.000204313
0.000157963
-0.000249629
8.32818e-05
-0.000257491
1.11869e-05
-0.000234201
-4.17063e-05
-0.000177427
-7.76206e-05
-0.000109286
-8.23792e-05
-7.9211e-05
-4.3277e-05
-6.59347e-05
-2.80882e-05
-6.07175e-05
-2.09344e-05
-7.10956e-05
-1.09282e-05
-9.93571e-05
-6.60101e-06
-0.000115535
-4.9842e-05
-9.16781e-05
-0.000154542
-5.04987e-05
-0.000199023
-0.000124659
-2.26599e-05
1.14447e-05
-4.72486e-05
0.000173381
-7.54692e-05
0.00025212
-9.50589e-05
0.000245284
-9.41295e-05
0.000157034
-6.90358e-05
5.81881e-05
-5.84765e-05
6.27741e-07
-7.30881e-05
-2.70943e-05
-0.000102417
-4.82915e-05
-0.000114757
-7.00397e-05
-9.11034e-05
-6.69304e-05
-6.82453e-05
-5.0946e-05
-4.96995e-05
-3.94805e-05
-3.75706e-05
-2.3057e-05
-4.01078e-05
-4.06383e-06
-7.23905e-05
-1.75593e-05
-7.59757e-05
-0.000150957
-4.78487e-05
-0.000227151
-0.000172508
-1.4682e-05
2.61267e-05
-2.71587e-05
0.000185857
1.0056e-06
0.000223956
3.61482e-05
0.000210141
7.05654e-05
0.000122617
0.000105882
2.2871e-05
0.00013128
-2.477e-05
0.000132406
-2.82204e-05
0.00010214
-1.80253e-05
4.13836e-05
-9.28323e-06
-1.84443e-05
-7.10299e-06
-4.25237e-05
-2.68663e-05
-6.361e-05
-1.83948e-05
-6.41806e-05
-2.24863e-05
-2.15419e-05
-4.67027e-05
1.44523e-06
-4.05465e-05
-5.18755e-05
-9.76363e-05
-3.82691e-05
-0.000240757
-0.000210777
-8.46816e-08
2.62114e-05
1.3595e-06
0.000184413
3.60059e-05
0.000189309
9.7995e-05
0.000148152
0.000143081
7.75312e-05
0.000152609
1.33431e-05
0.000141691
-1.38519e-05
0.000137727
-2.42568e-05
0.000138098
-1.83963e-05
0.000129151
-3.35564e-07
0.000102492
1.95554e-05
5.79074e-05
1.77184e-05
5.51261e-06
3.39996e-05
-8.07974e-06
-8.89369e-06
7.35351e-06
-6.21362e-05
4.11841e-05
-7.43771e-05
-1.33162e-05
-4.31361e-05
-2.48097e-05
-0.000229263
-0.000235587
5.12982e-06
2.10815e-05
5.28107e-05
0.000136732
9.26984e-05
0.000149422
0.000133149
0.000107701
0.000146404
6.42764e-05
0.000134836
2.49111e-05
0.000123362
-2.37745e-06
0.000115149
-1.60443e-05
0.00011232
-1.55669e-05
0.000111839
1.44963e-07
0.000111223
2.01716e-05
0.000105154
2.3787e-05
8.97808e-05
4.93733e-05
9.29225e-05
-1.20353e-05
8.66596e-05
-5.58732e-05
6.78858e-05
-5.56032e-05
1.38354e-05
1.09143e-05
-1.14682e-05
-0.00020396
-0.000247055
2.21918e-05
-2.74789e-05
3.42616e-05
-2.25145e-05
3.19879e-05
-8.84848e-06
2.61188e-05
-3.4809e-06
2.11009e-05
-1.82459e-06
1.68332e-05
-7.02556e-07
1.4185e-05
-1.74282e-06
1.20121e-05
-6.58125e-07
1.0283e-05
1.98725e-06
9.47251e-06
4.96221e-06
7.76483e-06
8.60149e-06
4.52026e-06
1.19714e-05
1.9106e-06
1.15944e-05
1.65863e-06
8.00924e-06
1.49561e-06
7.32226e-06
1.24823e-06
7.10532e-06
1.97435e-06
5.28158e-06
4.1054e-06
2.72059e-06
6.60269e-06
1.11707e-06
9.18839e-06
-1.14793e-06
1.17023e-05
-3.27313e-06
1.253e-05
-7.59545e-06
-2.71018e-06
1.13045e-05
-3.17492e-05
4.27029e-06
-0.000100339
4.60751e-05
-0.000119757
1.05694e-05
-8.73454e-05
-3.58929e-05
-5.42361e-05
-3.49339e-05
-4.17887e-05
-1.31499e-05
-3.92672e-05
-4.26433e-06
-3.52162e-05
-4.70914e-06
-2.72699e-05
-5.95904e-06
-1.7327e-05
-4.98071e-06
-9.40678e-06
6.81259e-07
-2.62364e-06
5.18825e-06
2.44629e-06
6.52448e-06
5.73657e-06
4.71896e-06
4.99014e-06
8.06868e-06
2.35205e-06
9.74341e-06
1.45224e-06
6.18139e-06
3.18418e-06
9.88652e-07
5.18673e-06
-8.85488e-07
7.03751e-06
-2.9987e-06
9.33785e-06
-5.57347e-06
1.04095e-05
-8.66708e-06
-6.65901e-06
1.43583e-05
-1.44843e-05
1.87542e-05
-3.96024e-05
7.11926e-05
-6.54196e-05
3.63863e-05
-8.60468e-05
-1.52659e-05
-0.000112771
-8.21023e-06
-0.000139032
1.31114e-05
-0.000160393
1.70963e-05
-0.000169887
4.78486e-06
-0.000160136
-1.5711e-05
-0.00014047
-2.4646e-05
-0.000111855
-2.79345e-05
-7.29038e-05
-3.37626e-05
-4.80058e-05
-1.83735e-05
-2.7863e-05
-1.54239e-05
-1.14766e-05
-8.31771e-06
-2.14996e-06
4.16774e-07
5.09261e-06
-1.06118e-06
9.21278e-06
-3.13152e-06
9.61249e-06
-1.2852e-06
8.89948e-06
-2.28569e-06
1.03837e-05
-7.05769e-06
1.16083e-05
-9.89168e-06
-1.01465e-05
1.50958e-05
-8.7246e-06
2.74784e-05
1.20032e-07
6.23475e-05
-7.01754e-06
4.35234e-05
-2.7985e-05
5.70121e-06
-4.63252e-05
1.01295e-05
-5.92392e-05
2.6025e-05
-6.43059e-05
2.21628e-05
-7.10448e-05
1.15235e-05
-8.77258e-05
9.69815e-07
-0.000108944
-3.42752e-06
-0.000130607
-6.2721e-06
-0.00014224
-2.21289e-05
-0.000133761
-2.68525e-05
-0.000123844
-2.53414e-05
-9.17242e-05
-4.04375e-05
-6.35991e-05
-2.77084e-05
-4.89617e-05
-1.56985e-05
-3.01897e-05
-2.19035e-05
-1.53214e-05
-1.61535e-05
-4.97398e-06
-1.26331e-05
6.29083e-06
-1.83225e-05
1.23875e-05
-1.59884e-05
-1.18383e-05
1.40793e-05
-8.71506e-06
3.61932e-05
1.05847e-05
4.30474e-05
1.20802e-05
4.20276e-05
5.74873e-06
1.20324e-05
1.85331e-06
1.40246e-05
1.13938e-06
2.67386e-05
3.50425e-06
1.97976e-05
7.01806e-06
8.00945e-06
5.76588e-06
2.22182e-06
-3.68097e-06
6.01925e-06
-2.83598e-05
1.84067e-05
-5.22771e-05
1.78848e-06
-7.04019e-05
-8.72771e-06
-7.85004e-05
-1.72431e-05
-9.71792e-05
-2.17588e-05
-0.000117347
-7.541e-06
-0.0001308
-2.24576e-06
-0.000136845
-1.58578e-05
-0.000128835
-2.41644e-05
-0.000101471
-3.99969e-05
-6.72773e-05
-5.25159e-05
-4.58758e-05
-3.73898e-05
-1.87296e-05
-3.89846e-05
-3.35803e-06
3.95511e-05
9.65211e-06
3.00371e-05
1.76275e-05
3.4052e-05
9.65451e-06
2.00051e-05
2.90803e-06
2.07707e-05
5.85431e-06
2.3792e-05
4.7532e-06
2.08984e-05
-1.59721e-06
1.43596e-05
-5.75956e-06
6.38399e-06
-1.98198e-06
2.2416e-06
4.84338e-06
1.15813e-05
-1.46647e-06
8.09829e-06
-1.59074e-05
5.71308e-06
-2.24475e-05
-1.07032e-05
-2.6275e-05
-1.79316e-05
-2.70505e-05
-6.76561e-06
-3.23567e-05
3.06031e-06
-4.83727e-05
1.58213e-07
-6.76702e-05
-4.86679e-06
-9.29593e-05
-1.47076e-05
-0.000119801
-2.56739e-05
-0.000136792
-2.03987e-05
-1.33453e-05
-0.000142176
-6.24332e-07
4.01753e-05
5.73086e-06
2.36819e-05
1.02837e-05
2.94991e-05
6.38335e-06
2.39052e-05
3.41342e-06
2.37403e-05
3.32708e-06
2.3878e-05
2.17202e-06
2.20531e-05
-1.34085e-06
1.78722e-05
-7.0048e-06
1.20478e-05
-1.30602e-05
8.29688e-06
-1.09939e-05
9.51504e-06
-1.27375e-05
9.84181e-06
-1.48324e-05
7.80782e-06
-1.91027e-05
-6.43313e-06
-2.52816e-05
-1.17528e-05
-2.48831e-05
-7.1642e-06
-1.88535e-05
-2.96929e-06
-1.54848e-05
-3.21039e-06
-1.03545e-05
-9.99692e-06
-1.09243e-05
-1.41374e-05
-1.06985e-05
-2.58995e-05
-1.80902e-05
-1.30066e-05
1.05195e-05
-4.19548e-05
-3.86505e-07
4.05618e-05
2.35768e-06
2.09379e-05
4.7765e-06
2.70802e-05
3.76063e-06
2.4921e-05
3.03093e-06
2.44698e-05
2.56462e-06
2.43439e-05
9.8851e-07
2.36289e-05
-2.35203e-06
2.12124e-05
-7.03234e-06
1.67279e-05
-1.07189e-05
1.19834e-05
-1.05528e-05
9.34893e-06
-8.39945e-06
7.68834e-06
-6.00169e-06
5.40994e-06
-9.6999e-06
-2.73502e-06
-1.55051e-05
-5.9476e-06
-1.83081e-05
-4.36124e-06
-1.83205e-05
-2.95684e-06
-1.67894e-05
-4.74142e-06
-1.28553e-05
-1.39308e-05
-2.91666e-06
-2.40758e-05
9.59212e-06
-3.8408e-05
2.25929e-05
-2.60072e-05
1.75243e-05
1.55883e-05
-6.55948e-07
4.12178e-05
6.98713e-07
1.95834e-05
2.53431e-06
2.52447e-05
2.43923e-06
2.50159e-05
2.25976e-06
2.4649e-05
2.29183e-06
2.43115e-05
1.91356e-06
2.40068e-05
5.51435e-07
2.25742e-05
-2.17197e-06
1.94511e-05
-5.59961e-06
1.54109e-05
-7.8162e-06
1.15655e-05
-7.89383e-06
7.76592e-06
-6.68267e-06
4.19876e-06
-8.56358e-06
-8.54081e-07
-1.14006e-05
-3.11057e-06
-1.2598e-05
-3.16383e-06
-1.13096e-05
-4.24516e-06
-7.02163e-06
-9.0293e-06
-1.96394e-06
-1.89883e-05
4.43793e-06
-3.04776e-05
1.03024e-05
-4.42723e-05
1.61449e-05
-3.18496e-05
1.61775e-05
1.74919e-05
-4.67054e-07
4.1685e-05
2.24146e-07
1.88924e-05
1.43897e-06
2.40299e-05
1.62749e-06
2.48273e-05
1.76659e-06
2.45096e-05
2.07237e-06
2.40054e-05
2.42732e-06
2.36515e-05
2.27101e-06
2.27303e-05
1.15802e-06
2.05639e-05
-5.55438e-07
1.71243e-05
-2.0886e-06
1.30986e-05
-3.40365e-06
9.08096e-06
-4.84157e-06
5.63673e-06
-7.87203e-06
2.17647e-06
-1.09749e-05
-7.6123e-09
-1.30093e-05
-1.12943e-06
-1.29548e-05
-4.29966e-06
-1.0676e-05
-1.13081e-05
-8.13e-06
-2.15343e-05
-6.26923e-06
-3.23383e-05
-6.64865e-06
-4.38928e-05
-7.3922e-06
-3.1106e-05
1.60159e-05
-7.23037e-06
-6.35464e-08
4.17487e-05
1.05747e-07
1.87232e-05
7.77214e-07
2.33584e-05
9.80699e-07
2.46237e-05
1.17147e-06
2.43187e-05
1.4392e-06
2.37375e-05
1.87254e-06
2.32179e-05
2.21099e-06
2.23917e-05
2.05792e-06
2.07169e-05
1.17982e-06
1.80023e-05
-4.12368e-07
1.46908e-05
-2.59728e-06
1.12659e-05
-5.21828e-06
8.25783e-06
-8.50015e-06
5.4584e-06
-1.18353e-05
3.32756e-06
-1.42503e-05
1.28549e-06
-1.58556e-05
-2.69439e-06
-1.73919e-05
-9.77194e-06
-1.99812e-05
-1.89452e-05
-2.44914e-05
-2.78281e-05
-3.20167e-05
-3.63675e-05
-4.00547e-05
-2.30679e-05
2.04381e-05
-4.44767e-05
3.20914e-07
4.14279e-05
8.49684e-08
1.89593e-05
3.56633e-07
2.30867e-05
4.41684e-07
2.45386e-05
5.08598e-07
2.42517e-05
5.83682e-07
2.36622e-05
7.77837e-07
2.30237e-05
9.96687e-07
2.21727e-05
8.83069e-07
2.08305e-05
8.25369e-08
1.88029e-05
-1.52924e-06
1.63026e-05
-3.93287e-06
1.36696e-05
-6.93402e-06
1.12591e-05
-1.04373e-05
8.96167e-06
-1.39103e-05
6.80055e-06
-1.70595e-05
4.43458e-06
-2.05193e-05
7.65278e-07
-2.5155e-05
-5.13643e-06
-3.1572e-05
-1.25282e-05
-4.03286e-05
-1.90715e-05
-5.38048e-05
-2.28912e-05
-6.58951e-05
-1.09774e-05
2.32747e-05
-6.87316e-05
4.82145e-07
4.09459e-05
7.43998e-08
1.9367e-05
4.05136e-08
2.31206e-05
-2.49682e-08
2.4604e-05
-1.37243e-07
2.43639e-05
-2.73842e-07
2.37988e-05
-4.22501e-07
2.31723e-05
-6.13686e-07
2.23639e-05
-1.04091e-06
2.12577e-05
-2.01663e-06
1.97786e-05
-3.7078e-06
1.79938e-05
-6.12268e-06
1.60845e-05
-9.10918e-06
1.42456e-05
-1.25182e-05
1.23707e-05
-1.61926e-05
1.04748e-05
-2.01359e-05
8.37778e-06
-2.49808e-05
5.60998e-06
-3.14758e-05
1.35837e-06
-3.97384e-05
-4.26548e-06
-4.97181e-05
-9.09177e-06
-6.3554e-05
-9.05501e-06
-7.71178e-05
2.58675e-06
2.91871e-05
-8.303e-05
4.54262e-07
4.04916e-05
3.88513e-08
1.97824e-05
-2.09025e-07
2.33685e-05
-4.18068e-07
2.48131e-05
-6.62108e-07
2.46081e-05
-9.93837e-07
2.41307e-05
-1.40866e-06
2.35872e-05
-1.94702e-06
2.29023e-05
-2.72601e-06
2.20367e-05
-3.91763e-06
2.09702e-05
-5.66457e-06
1.97407e-05
-7.99718e-06
1.84172e-05
-1.0846e-05
1.70944e-05
-1.42253e-05
1.57499e-05
-1.81415e-05
1.4391e-05
-2.27504e-05
1.29866e-05
-2.85328e-05
1.13923e-05
-3.62688e-05
9.09437e-06
-4.6509e-05
5.97494e-06
-5.93447e-05
3.7442e-06
-7.45911e-05
6.19161e-06
-9.00205e-05
1.80164e-05
3.84021e-05
-9.92353e-05
3.43398e-07
4.01482e-05
-5.74827e-08
2.01833e-05
-4.31972e-07
2.3743e-05
-7.53117e-07
2.51344e-05
-1.10856e-06
2.49637e-05
-1.56185e-06
2.45841e-05
-2.14282e-06
2.41683e-05
-2.89257e-06
2.36521e-05
-3.87997e-06
2.30241e-05
-5.20331e-06
2.22936e-05
-6.94776e-06
2.14852e-05
-9.16851e-06
2.06379e-05
-1.18828e-05
1.98087e-05
-1.51699e-05
1.9037e-05
-1.9142e-05
1.83631e-05
-2.39615e-05
1.78062e-05
-2.99665e-05
1.73972e-05
-3.80321e-05
1.71601e-05
-4.9153e-05
1.7096e-05
-6.3234e-05
1.78254e-05
-7.89652e-05
2.19232e-05
-9.35687e-05
3.26202e-05
4.93881e-05
-0.000104554
2.29312e-07
3.99189e-05
-1.78826e-07
2.05914e-05
-6.29091e-07
2.41934e-05
-1.02773e-06
2.55332e-05
-1.46282e-06
2.53989e-05
-1.99811e-06
2.51195e-05
-2.66286e-06
2.48331e-05
-3.50229e-06
2.44916e-05
-4.56844e-06
2.40903e-05
-5.91964e-06
2.36447e-05
-7.61605e-06
2.31816e-05
-9.71867e-06
2.27406e-05
-1.2279e-05
2.23691e-05
-1.53716e-05
2.21296e-05
-1.91016e-05
2.20932e-05
-2.36321e-05
2.23368e-05
-2.92153e-05
2.29807e-05
-3.62882e-05
2.42333e-05
-4.5499e-05
2.63072e-05
-5.73166e-05
2.96432e-05
-7.0972e-05
3.55787e-05
-8.41015e-05
4.57499e-05
5.99095e-05
-9.46226e-05
1.31241e-07
3.97876e-05
-3.00776e-07
2.10233e-05
-7.94352e-07
2.46869e-05
-1.23917e-06
2.59781e-05
-1.72718e-06
2.58871e-05
-2.30967e-06
2.57022e-05
-3.01177e-06
2.55353e-05
-3.87271e-06
2.53526e-05
-4.93674e-06
2.51544e-05
-6.25015e-06
2.49581e-05
-7.86307e-06
2.47944e-05
-9.82768e-06
2.47052e-05
-1.21985e-05
2.474e-05
-1.50376e-05
2.49689e-05
-1.8421e-05
2.54768e-05
-2.24653e-05
2.63814e-05
-2.73353e-05
2.78509e-05
-3.31947e-05
3.00929e-05
-4.02752e-05
3.3388e-05
-4.88452e-05
3.82135e-05
-5.85789e-05
4.53126e-05
-6.80793e-05
5.52504e-05
6.78411e-05
-7.60111e-05
5.68915e-08
3.97307e-05
-4.04547e-07
2.14845e-05
-9.17258e-07
2.51996e-05
-1.38486e-06
2.64457e-05
-1.89887e-06
2.64011e-05
-2.50073e-06
2.63041e-05
-3.21039e-06
2.6245e-05
-4.05784e-06
2.62001e-05
-5.07887e-06
2.61754e-05
-6.31377e-06
2.6193e-05
-7.80335e-06
2.6284e-05
-9.58872e-06
2.64906e-05
-1.17151e-05
2.68665e-05
-1.42281e-05
2.74822e-05
-1.71806e-05
2.84296e-05
-2.06315e-05
2.98325e-05
-2.4643e-05
3.18627e-05
-2.92766e-05
3.47267e-05
-3.45442e-05
3.86557e-05
-4.0364e-05
4.40334e-05
-4.63562e-05
5.13048e-05
-5.18572e-05
6.07516e-05
7.2236e-05
-5.62519e-05
8.26029e-09
3.97223e-05
-4.79793e-07
2.19723e-05
-9.94856e-07
2.57146e-05
-1.46538e-06
2.69162e-05
-1.9825e-06
2.69183e-05
-2.57843e-06
2.69e-05
-3.26921e-06
2.69359e-05
-4.077e-06
2.7008e-05
-5.02939e-06
2.71277e-05
-6.15549e-06
2.7319e-05
-7.48759e-06
2.76161e-05
-9.05427e-06
2.80574e-05
-1.08866e-05
2.86989e-05
-1.30106e-05
2.96064e-05
-1.54502e-05
3.08695e-05
-1.82243e-05
3.26068e-05
-2.13385e-05
3.49771e-05
-2.47758e-05
3.81641e-05
-2.84749e-05
4.2355e-05
-3.22075e-05
4.77663e-05
-3.55488e-05
5.46463e-05
-3.79885e-05
6.31914e-05
7.3416e-05
-3.91688e-05
-1.81584e-08
3.97403e-05
-5.25013e-07
2.2479e-05
-1.02802e-06
2.62175e-05
-1.48566e-06
2.73738e-05
-1.98605e-06
2.74187e-05
-2.55483e-06
2.74689e-05
-3.20341e-06
2.75846e-05
-3.94812e-06
2.77527e-05
-4.80767e-06
2.79872e-05
-5.80284e-06
2.83139e-05
-6.95259e-06
2.87657e-05
-8.2776e-06
2.93823e-05
-9.79269e-06
3.0214e-05
-1.15073e-05
3.13212e-05
-1.34231e-05
3.27855e-05
-1.5529e-05
3.47131e-05
-1.77903e-05
3.72385e-05
-2.01404e-05
4.05146e-05
-2.24679e-05
4.46826e-05
-2.45583e-05
4.98568e-05
-2.60382e-05
5.61263e-05
-2.64282e-05
6.35814e-05
7.23045e-05
-2.5317e-05
-2.70473e-08
3.97671e-05
-5.41117e-07
2.29929e-05
-1.02008e-06
2.66964e-05
-1.45177e-06
2.78055e-05
-1.9203e-06
2.78873e-05
-2.44491e-06
2.79936e-05
-3.03368e-06
2.81734e-05
-3.69684e-06
2.84158e-05
-4.44622e-06
2.87364e-05
-5.29373e-06
2.91612e-05
-6.25014e-06
2.97219e-05
-7.32448e-06
3.04566e-05
-8.52005e-06
3.14097e-05
-9.83259e-06
3.2634e-05
-1.12465e-05
3.41997e-05
-1.27291e-05
3.6196e-05
-1.42209e-05
3.87305e-05
-1.56319e-05
4.19258e-05
-1.68282e-05
4.58791e-05
-1.76131e-05
5.06418e-05
-1.76936e-05
5.62069e-05
-1.66651e-05
6.25529e-05
6.97281e-05
-1.40889e-05
-1.93639e-08
3.97864e-05
-5.29525e-07
2.3503e-05
-9.76119e-07
2.7143e-05
-1.37152e-06
2.8201e-05
-1.79653e-06
2.83123e-05
-2.26512e-06
2.84623e-05
-2.78104e-06
2.86893e-05
-3.35014e-06
2.89848e-05
-3.9787e-06
2.93647e-05
-4.67185e-06
2.98541e-05
-5.43218e-06
3.04821e-05
-6.25918e-06
3.12836e-05
-7.14679e-06
3.22975e-05
-8.08068e-06
3.35682e-05
-9.03035e-06
3.51495e-05
-9.95467e-06
3.71205e-05
-1.07787e-05
3.95547e-05
-1.14074e-05
4.25546e-05
-1.17013e-05
4.61732e-05
-1.14834e-05
5.04239e-05
-1.05174e-05
5.52411e-05
-8.49046e-06
6.05255e-05
6.62458e-05
-5.00809e-06
3.08186e-10
3.97861e-05
-4.94493e-07
2.39978e-05
-9.01007e-07
2.75495e-05
-1.25268e-06
2.85527e-05
-1.62624e-06
2.86858e-05
-2.03077e-06
2.88668e-05
-2.46661e-06
2.9125e-05
-2.93568e-06
2.94537e-05
-3.43955e-06
2.98683e-05
-3.97748e-06
3.03918e-05
-4.54603e-06
3.10506e-05
-5.1372e-06
3.18748e-05
-5.73834e-06
3.2899e-05
-6.32619e-06
3.41564e-05
-6.86862e-06
3.56922e-05
-7.30801e-06
3.756e-05
-7.57641e-06
3.98231e-05
-7.56873e-06
4.25471e-05
-7.1625e-06
4.5767e-05
-6.19927e-06
4.94608e-05
-4.49654e-06
5.35387e-05
-1.80862e-06
5.78373e-05
6.22724e-05
2.16467e-06
2.83111e-08
3.97578e-05
-4.38826e-07
2.4465e-05
-7.98818e-07
2.79095e-05
-1.10193e-06
2.88557e-05
-1.41858e-06
2.90024e-05
-1.75465e-06
2.92027e-05
-2.10718e-06
2.94774e-05
-2.47492e-06
2.98214e-05
-2.85562e-06
3.02488e-05
-3.24429e-06
3.07804e-05
-3.63213e-06
3.14385e-05
-4.00746e-06
3.22504e-05
-4.34981e-06
3.32417e-05
-4.63514e-06
3.44421e-05
-4.8244e-06
3.58816e-05
-4.85972e-06
3.75954e-05
-4.67124e-06
3.96347e-05
-4.16835e-06
4.20442e-05
-3.23336e-06
4.4832e-05
-1.741e-06
4.79686e-05
4.60022e-07
5.13378e-05
3.52951e-06
5.47679e-05
5.81377e-05
7.66418e-06
6.0803e-08
3.9697e-05
-3.64788e-07
2.48906e-05
-6.71639e-07
2.82162e-05
-9.23307e-07
2.91072e-05
-1.18101e-06
2.926e-05
-1.4471e-06
2.94687e-05
-1.71675e-06
2.97471e-05
-1.986e-06
3.00906e-05
-2.2498e-06
3.05126e-05
-2.49926e-06
3.10299e-05
-2.7236e-06
3.1663e-05
-2.90528e-06
3.24322e-05
-3.02362e-06
3.33602e-05
-3.04865e-06
3.44671e-05
-2.94081e-06
3.57739e-05
-2.64955e-06
3.73042e-05
-2.10267e-06
3.9088e-05
-1.22238e-06
4.11639e-05
1.04784e-07
4.35048e-05
1.96758e-06
4.61062e-05
4.47429e-06
4.88311e-05
7.72567e-06
5.15167e-05
5.40078e-05
1.18556e-05
9.78077e-08
3.95992e-05
-2.73882e-07
2.52621e-05
-5.21448e-07
2.84636e-05
-7.20426e-07
2.9306e-05
-9.18344e-07
2.94579e-05
-1.11562e-06
2.9666e-05
-1.30596e-06
2.99376e-05
-1.48353e-06
3.02682e-05
-1.6401e-06
3.06691e-05
-1.76558e-06
3.11554e-05
-1.84562e-06
3.1743e-05
-1.86147e-06
3.24481e-05
-1.78865e-06
3.32875e-05
-1.59863e-06
3.4277e-05
-1.25237e-06
3.54276e-05
-7.03454e-07
3.67553e-05
1.2655e-07
3.82583e-05
1.3034e-06
3.99874e-05
2.87476e-06
4.19336e-05
4.95604e-06
4.40252e-05
7.61802e-06
4.61692e-05
1.094e-05
4.81948e-05
4.99672e-05
1.49806e-05
1.42522e-07
3.94566e-05
-1.67851e-07
2.55723e-05
-3.50548e-07
2.86462e-05
-4.98142e-07
2.94536e-05
-6.35916e-07
2.95957e-05
-7.66543e-07
2.97968e-05
-8.82175e-07
3.00535e-05
-9.76588e-07
3.03627e-05
-1.03805e-06
3.07306e-05
-1.05633e-06
3.11737e-05
-1.01425e-06
3.17009e-05
-8.92331e-07
3.23262e-05
-6.67037e-07
3.30623e-05
-3.03122e-07
3.39131e-05
2.34076e-07
3.48906e-05
9.93122e-07
3.59964e-05
2.00224e-06
3.72495e-05
3.35313e-06
3.86367e-05
5.1064e-06
4.01805e-05
7.32591e-06
4.18056e-05
1.00668e-05
4.34283e-05
1.33764e-05
4.48852e-05
4.60719e-05
1.7272e-05
2.00177e-07
3.92563e-05
-4.71174e-08
2.58194e-05
-1.64512e-07
2.87636e-05
-2.64378e-07
2.95535e-05
-3.40846e-07
2.96723e-05
-4.08254e-07
2.98643e-05
-4.54306e-07
3.00997e-05
-4.71621e-07
3.03799e-05
-4.52178e-07
3.0711e-05
-3.78385e-07
3.10999e-05
-2.35012e-07
3.15576e-05
-2.09026e-09
3.20934e-05
3.47444e-07
3.2713e-05
8.38597e-07
3.34221e-05
1.50527e-06
3.42241e-05
2.38791e-06
3.5114e-05
3.54121e-06
3.60964e-05
5.01324e-06
3.71646e-05
6.86885e-06
3.8325e-05
9.14422e-06
3.953e-05
1.18912e-05
4.06812e-05
1.51448e-05
4.16316e-05
4.23118e-05
1.89049e-05
2.72139e-07
3.8984e-05
8.22711e-08
2.60093e-05
1.16783e-08
2.88343e-05
-2.71325e-08
2.95924e-05
-4.22066e-08
2.96873e-05
-5.16105e-08
2.98738e-05
-3.10191e-08
3.00791e-05
2.07553e-08
3.0328e-05
1.17563e-07
3.06141e-05
2.70068e-07
3.09473e-05
4.96999e-07
3.13306e-05
8.17167e-07
3.17734e-05
1.25523e-06
3.22751e-05
1.83746e-06
3.28401e-05
2.59509e-06
3.34667e-05
3.56597e-06
3.41434e-05
4.79232e-06
3.48702e-05
6.32122e-06
3.56359e-05
8.2031e-06
3.64432e-05
1.04813e-05
3.72517e-05
1.31935e-05
3.7969e-05
1.63612e-05
3.84641e-05
3.8682e-05
1.99912e-05
3.61181e-07
3.86229e-05
2.06909e-07
2.61637e-05
1.94035e-07
2.88473e-05
2.0919e-07
2.95773e-05
2.39739e-07
2.96568e-05
2.90618e-07
2.9823e-05
3.73084e-07
2.99966e-05
4.9221e-07
3.02088e-05
6.55625e-07
3.04507e-05
8.78824e-07
3.07242e-05
1.17475e-06
3.10347e-05
1.56564e-06
3.13826e-05
2.0732e-06
3.17675e-05
2.7206e-06
3.21928e-05
3.54398e-06
3.26435e-05
4.56404e-06
3.31235e-05
5.82432e-06
3.361e-05
7.35872e-06
3.41018e-05
9.22196e-06
3.45802e-05
1.14495e-05
3.50243e-05
1.40814e-05
3.53372e-05
1.71399e-05
3.54057e-05
3.51609e-05
2.0661e-05
4.63765e-07
3.81592e-05
3.27281e-07
2.63004e-05
3.55958e-07
2.88187e-05
4.12883e-07
2.95204e-05
4.94905e-07
2.95746e-05
6.00806e-07
2.97171e-05
7.39141e-07
2.98582e-05
9.17048e-07
3.00309e-05
1.14495e-06
3.0223e-05
1.43359e-06
3.04357e-05
1.79759e-06
3.06707e-05
2.25335e-06
3.09268e-05
2.81768e-06
3.12031e-05
3.51845e-06
3.14919e-05
4.37643e-06
3.17855e-05
5.42436e-06
3.20758e-05
6.69356e-06
3.23409e-05
8.21713e-06
3.25785e-05
1.00309e-05
3.27666e-05
1.21821e-05
3.28733e-05
1.47046e-05
3.28149e-05
1.7638e-05
3.24723e-05
3.17728e-05
2.10262e-05
5.72607e-07
3.75866e-05
4.3425e-07
2.64389e-05
4.87783e-07
2.8765e-05
5.81213e-07
2.94267e-05
7.04318e-07
2.94513e-05
8.52638e-07
2.95687e-05
1.03868e-06
2.96721e-05
1.26868e-06
2.9801e-05
1.55152e-06
2.99404e-05
1.89768e-06
3.00898e-05
2.31906e-06
3.02494e-05
2.83208e-06
3.04137e-05
3.4529e-06
3.05821e-05
4.20051e-06
3.07442e-05
5.09689e-06
3.08892e-05
6.1656e-06
3.10072e-05
7.43436e-06
3.10723e-05
8.93597e-06
3.10771e-05
1.07008e-05
3.10018e-05
1.2774e-05
3.08001e-05
1.51876e-05
3.04013e-05
1.79766e-05
2.96832e-05
2.85496e-05
2.11997e-05
6.83405e-07
3.69033e-05
5.2155e-07
2.66007e-05
5.79289e-07
2.87072e-05
6.97735e-07
2.93081e-05
8.46905e-07
2.93019e-05
1.02281e-06
2.93926e-05
1.24167e-06
2.94531e-05
1.5069e-06
2.95358e-05
1.82926e-06
2.96183e-05
2.22034e-06
2.96989e-05
2.68885e-06
2.97809e-05
3.24787e-06
2.98546e-05
3.91078e-06
2.99192e-05
4.69878e-06
2.99562e-05
5.62544e-06
2.99628e-05
6.71777e-06
2.99152e-05
7.99316e-06
2.97972e-05
9.47779e-06
2.95928e-05
1.12088e-05
2.92708e-05
1.32152e-05
2.87937e-05
1.55292e-05
2.80872e-05
1.81818e-05
2.70305e-05
2.55203e-05
2.12111e-05
7.88237e-07
3.61152e-05
5.8275e-07
2.68062e-05
6.24982e-07
2.8665e-05
7.51661e-07
2.91812e-05
9.05031e-07
2.91484e-05
1.0902e-06
2.92073e-05
1.31983e-06
2.92233e-05
1.59875e-06
2.92569e-05
1.93905e-06
2.92782e-05
2.34832e-06
2.92897e-05
2.83792e-06
2.92912e-05
3.41942e-06
2.92731e-05
4.106e-06
2.92326e-05
4.91015e-06
2.9152e-05
5.85397e-06
2.90192e-05
6.95063e-06
2.88189e-05
8.22305e-06
2.85251e-05
9.6932e-06
2.81228e-05
1.13862e-05
2.75779e-05
1.33343e-05
2.68455e-05
1.55609e-05
2.58605e-05
1.80792e-05
2.45121e-05
2.26882e-05
2.09111e-05
8.7948e-07
3.52357e-05
6.14581e-07
2.70712e-05
6.21511e-07
2.86581e-05
7.39075e-07
2.90635e-05
8.7723e-07
2.90102e-05
1.05019e-06
2.90342e-05
1.26673e-06
2.90066e-05
1.53416e-06
2.89894e-05
1.86393e-06
2.89486e-05
2.26187e-06
2.88919e-05
2.73885e-06
2.88143e-05
3.30714e-06
2.87049e-05
3.97877e-06
2.8561e-05
4.76683e-06
2.83639e-05
5.68588e-06
2.81002e-05
6.75495e-06
2.77499e-05
7.98674e-06
2.72933e-05
9.40589e-06
2.67037e-05
1.10329e-05
2.59508e-05
1.28919e-05
2.49864e-05
1.50016e-05
2.37507e-05
1.73629e-05
2.21506e-05
2.00811e-05
1.997e-05
9.44043e-07
3.42917e-05
6.19665e-07
2.73958e-05
5.79412e-07
2.86984e-05
6.71169e-07
2.89716e-05
7.74897e-07
2.89064e-05
9.1918e-07
2.88899e-05
1.10424e-06
2.88215e-05
1.33822e-06
2.87555e-05
1.62983e-06
2.86572e-05
1.98808e-06
2.85338e-05
2.42202e-06
2.83804e-05
2.93983e-06
2.81871e-05
3.55353e-06
2.79472e-05
4.27465e-06
2.76427e-05
5.11925e-06
2.72556e-05
6.1018e-06
2.67674e-05
7.23767e-06
2.61575e-05
8.54214e-06
2.53992e-05
1.00366e-05
2.44565e-05
1.17339e-05
2.32892e-05
1.36469e-05
2.18377e-05
1.57651e-05
2.00325e-05
1.77739e-05
1.80725e-05
9.78286e-07
3.33134e-05
5.97689e-07
2.77767e-05
5.09045e-07
2.87869e-05
5.68526e-07
2.8912e-05
6.28716e-07
2.88462e-05
7.35636e-07
2.8783e-05
8.757e-07
2.86814e-05
1.06216e-06
2.85691e-05
1.30189e-06
2.84174e-05
1.59862e-06
2.82368e-05
1.96088e-06
2.80179e-05
2.39722e-06
2.77506e-05
2.91822e-06
2.74261e-05
3.53523e-06
2.70257e-05
4.2612e-06
2.65298e-05
5.10679e-06
2.5922e-05
6.08518e-06
2.51793e-05
7.21071e-06
2.42739e-05
8.49397e-06
2.31734e-05
9.94447e-06
2.18389e-05
1.15612e-05
2.02211e-05
1.3326e-05
1.82677e-05
1.58903e-05
1.52099e-05
9.60173e-07
3.23534e-05
5.53291e-07
2.81838e-05
4.29667e-07
2.89105e-05
4.55954e-07
2.88858e-05
4.74237e-07
2.8828e-05