/*--------------------------------*- C++ -*----------------------------------*\
| =========                 |                                                 |
| \\      /  F ield         | OpenFOAM: The Open Source CFD Toolbox           |
|  \\    /   O peration     | Version:  2206                                  |
|   \\  /    A nd           | Website:  www.openfoam.com                      |
|    \\/     M anipulation  |                                                 |
\*---------------------------------------------------------------------------*/
FoamFile
{
    version     2.0;
    format      ascii;
    arch        "LSB;label=32;scalar=64";
    class       volVectorField;
    location    "0.625";
    object      U;
}
// * * * * * * * * * * * * * * * * * * * * * * * * * * * * * * * * * * * * * //

dimensions      [0 1 -1 0 0 0 0];

internalField   nonuniform List<vector> 
2268
(
(-0.0210352 0.0086945 0)
(-0.0585752 0.00869499 0)
(-0.0827073 0.00334459 0)
(-0.0831711 -0.00073944 0)
(-0.0733001 -0.00420421 0)
(-0.0479035 -0.00776032 0)
(-0.0094736 -0.00982171 0)
(0.0317431 -0.00879238 0)
(0.0640559 -0.00562438 0)
(0.0816025 -0.00202947 0)
(0.0845413 0.00143386 0)
(0.0740287 0.00427591 0)
(0.0550779 0.00629369 0)
(0.0306517 0.00797694 0)
(0.000691471 0.0101024 0)
(-0.0366798 0.013325 0)
(-0.0859899 0.0133898 0)
(-0.131718 0.00453993 0)
(-0.154195 0.00512161 0)
(-0.222339 0.0204966 0)
(-0.309356 0.0111371 0)
(-0.254784 -0.0297671 0)
(-0.0896627 -0.0550055 0)
(-0.0322707 0.0278786 0)
(-0.0624184 0.021657 0)
(-0.0757413 0.00684005 0)
(-0.0766929 -0.00250072 0)
(-0.070776 -0.011822 0)
(-0.0487623 -0.0227375 0)
(-0.0107592 -0.0297636 0)
(0.0318866 -0.0270662 0)
(0.0653033 -0.017563 0)
(0.0833139 -0.00681397 0)
(0.0868405 0.00215796 0)
(0.0826128 0.00877918 0)
(0.0733072 0.0133258 0)
(0.0605819 0.0169052 0)
(0.0449215 0.0211973 0)
(0.0248944 0.028081 0)
(-0.00719742 0.0355027 0)
(-0.060628 0.0344787 0)
(-0.12666 0.0344224 0)
(-0.218763 0.0433859 0)
(-0.265362 0.0118976 0)
(-0.180539 -0.078494 0)
(-0.0577348 -0.137881 0)
(-0.0282707 0.0465784 0)
(-0.0446619 0.0313903 0)
(-0.0593128 0.00973505 0)
(-0.0652664 -0.00175854 0)
(-0.0669073 -0.0161822 0)
(-0.0496386 -0.0362484 0)
(-0.0139582 -0.0500086 0)
(0.0281511 -0.0460107 0)
(0.0618392 -0.0296191 0)
(0.0794287 -0.0112877 0)
(0.0817545 0.00285828 0)
(0.0745248 0.0121826 0)
(0.063102 0.0180369 0)
(0.0508945 0.0220839 0)
(0.0400607 0.0266542 0)
(0.032919 0.034447 0)
(0.0287481 0.0462642 0)
(0.0170044 0.0569897 0)
(-0.0190954 0.0659893 0)
(-0.0706395 0.0664933 0)
(-0.124252 0.0102364 0)
(-0.0786609 -0.105783 0)
(-0.00800647 -0.181918 0)
(-0.0184274 0.0594084 0)
(-0.0210029 0.0390723 0)
(-0.0332934 0.0145186 0)
(-0.0420593 0.00218236 0)
(-0.0445329 -0.0187748 0)
(-0.0273751 -0.0493745 0)
(0.00142262 -0.0691898 0)
(0.0329286 -0.0641436 0)
(0.0590412 -0.0410627 0)
(0.07313 -0.0151949 0)
(0.0739744 0.00455508 0)
(0.0657944 0.0169994 0)
(0.0536593 0.0239956 0)
(0.0411551 0.0277544 0)
(0.0304184 0.0310297 0)
(0.0239145 0.0362722 0)
(0.0246471 0.0455077 0)
(0.0384344 0.0596061 0)
(0.0469543 0.0761057 0)
(0.0590785 0.0816607 0)
(0.0354726 0.0283779 0)
(0.036439 -0.0972986 0)
(0.0396463 -0.179154 0)
(-0.00528599 0.0642766 0)
(0.0110142 0.039812 0)
(0.00842273 0.0184929 0)
(0.00626189 0.00397911 0)
(0.0167223 -0.0236471 0)
(0.039121 -0.0598529 0)
(0.0539955 -0.0811218 0)
(0.0606464 -0.0745892 0)
(0.0654951 -0.0474607 0)
(0.0674689 -0.0166042 0)
(0.0639169 0.00704371 0)
(0.0550937 0.0219867 0)
(0.0436561 0.0298651 0)
(0.0326908 0.0330845 0)
(0.0239479 0.035073 0)
(0.0184598 0.037777 0)
(0.0178387 0.0418554 0)
(0.0310633 0.050567 0)
(0.0576456 0.0624514 0)
(0.103165 0.0701452 0)
(0.122998 0.0312878 0)
(0.106029 -0.0812665 0)
(0.0727086 -0.14813 0)
(0.00930895 0.0565169 0)
(0.049989 0.0350247 0)
(0.0687162 0.0131135 0)
(0.0866579 -0.00311855 0)
(0.119647 -0.0309312 0)
(0.143664 -0.0634002 0)
(0.136068 -0.0800015 0)
(0.109822 -0.0706287 0)
(0.0855103 -0.0433043 0)
(0.0675865 -0.0125948 0)
(0.0543043 0.0113575 0)
(0.0431195 0.0268449 0)
(0.0324132 0.0344466 0)
(0.0236069 0.0364764 0)
(0.0178342 0.0374307 0)
(0.0148556 0.0387385 0)
(0.0154591 0.0396484 0)
(0.0243723 0.0418121 0)
(0.0458105 0.0432483 0)
(0.0878394 0.0437934 0)
(0.13262 0.0197706 0)
(0.116863 -0.0620385 0)
(0.0875901 -0.111222 0)
(0.0233848 0.0352116 0)
(0.0870108 0.0209703 0)
(0.145457 0.00675243 0)
(0.205119 -0.012747 0)
(0.248888 -0.0374851 0)
(0.250931 -0.0580237 0)
(0.209592 -0.0642561 0)
(0.154686 -0.0515377 0)
(0.109556 -0.027073 0)
(0.0752985 -0.00184883 0)
(0.049976 0.0188387 0)
(0.0327272 0.0335577 0)
(0.0207129 0.0407312 0)
(0.0139283 0.0407927 0)
(0.0116415 0.0397859 0)
(0.011451 0.0389316 0)
(0.0139766 0.0368453 0)
(0.0223555 0.0347214 0)
(0.0378882 0.0299911 0)
(0.0615314 0.0221315 0)
(0.103732 0.00592395 0)
(0.0961781 -0.0486874 0)
(0.0903013 -0.0744796 0)
(0.0387674 -0.00444206 0)
(0.142979 -0.0304395 0)
(0.264495 -0.0489152 0)
(0.325335 -0.0538782 0)
(0.330689 -0.0511575 0)
(0.28828 -0.0448876 0)
(0.219857 -0.0382615 0)
(0.158839 -0.0246149 0)
(0.115402 -0.00166246 0)
(0.0829882 0.0186099 0)
(0.0551676 0.0317665 0)
(0.0317392 0.0399375 0)
(0.0137689 0.0412938 0)
(0.00488075 0.0376635 0)
(0.00411566 0.037138 0)
(0.00600929 0.0378776 0)
(0.0105219 0.0356949 0)
(0.0204434 0.0311272 0)
(0.0355881 0.0241047 0)
(0.0493975 0.01119 0)
(0.0739087 -0.00185831 0)
(0.0716446 -0.0365289 0)
(0.0795356 -0.0263834 0)
(0.0136262 -0.203159 0)
(0.492974 0.0138074 0)
(-0.00389489 0.0915807 0)
(-0.532229 0.193525 0)
(-1.27456 0.221788 0)
(-1.71139 0.149341 0)
(-1.83761 0.103284 0)
(-1.88593 0.0944775 0)
(-1.91696 0.0951684 0)
(-1.9476 0.0961052 0)
(-1.98299 0.091293 0)
(-2.00954 0.07159 0)
(-1.99195 0.0343679 0)
(-1.90512 -0.00408442 0)
(-1.72448 -0.0377111 0)
(-1.39559 -0.0907386 0)
(-0.910255 -0.170831 0)
(-0.341665 -0.180148 0)
(0.264066 0.0289076 0)
(-0.115324 -0.342485 0)
(0.299884 0.138829 0)
(-0.669841 0.407155 0)
(-1.52802 0.476686 0)
(-2.2824 0.300685 0)
(-2.36657 0.0505444 0)
(-2.32169 -0.0474738 0)
(-2.29767 -0.0639399 0)
(-2.27819 -0.0640286 0)
(-2.25828 -0.0596132 0)
(-2.22219 -0.061646 0)
(-2.15843 -0.0807896 0)
(-2.07579 -0.118082 0)
(-1.98142 -0.160694 0)
(-1.84463 -0.208256 0)
(-1.59751 -0.300338 0)
(-1.18631 -0.458789 0)
(-0.65212 -0.467798 0)
(-0.0761234 -0.0425649 0)
(-0.0903544 -0.3233 0)
(-0.234163 0.53937 0)
(-1.1284 0.784944 0)
(-1.94907 0.848892 0)
(-2.39445 0.565558 0)
(-2.36556 0.197903 0)
(-2.47742 0.118111 0)
(-2.3022 0.0766264 0)
(-2.08249 0.069361 0)
(-1.9099 0.0607591 0)
(-1.76347 0.0389887 0)
(-1.64081 -0.00613781 0)
(-1.56437 -0.0705356 0)
(-1.58568 -0.161761 0)
(-1.65567 -0.292712 0)
(-1.60413 -0.492763 0)
(-1.26241 -0.734605 0)
(-0.805284 -0.794166 0)
(-0.287173 -0.284423 0)
(-0.0783016 -0.139942 0)
(-0.380176 0.811905 0)
(-1.20883 1.13873 0)
(-1.85803 1.21824 0)
(-2.11766 0.866902 0)
(-2.49203 0.308129 0)
(-3.06381 -0.121106 0)
(-2.75535 -0.323523 0)
(-2.2753 -0.410982 0)
(-1.65474 -0.314998 0)
(-1.01688 -0.182577 0)
(-0.829822 -0.131377 0)
(-0.690149 -0.0713339 0)
(-0.643687 -0.0212031 0)
(-1.0487 -0.0984358 0)
(-1.35554 -0.434978 0)
(-1.1433 -0.930646 0)
(-0.779654 -1.09097 0)
(-0.379846 -0.592179 0)
(-0.0709043 -0.00577229 0)
(-0.269899 0.984415 0)
(-1.053 1.4401 0)
(-1.11907 1.42092 0)
(-1.11304 1.01977 0)
(-0.826543 0.529203 0)
(-0.631883 0.176546 0)
(-0.730731 -0.124647 0)
(-0.474058 -0.386544 0)
(-1.55774 -0.586516 0)
(-1.33754 -0.419867 0)
(-0.966265 -0.267448 0)
(-0.66727 -0.222393 0)
(-0.375637 -0.158136 0)
(-0.442459 0.0383784 0)
(-0.743215 -0.130098 0)
(-0.880832 -0.980225 0)
(-0.62729 -1.32131 0)
(-0.361964 -0.898916 0)
(-0.059584 0.162932 0)
(-0.136856 1.09827 0)
(-0.721863 1.51797 0)
(0.32314 1.45565 0)
(0.640047 0.942041 0)
(1.23483 0.239125 0)
(1.47535 -0.133075 0)
(1.57195 -0.180458 0)
(1.5551 -0.119555 0)
(0.993182 -0.112763 0)
(0.0423014 -0.171157 0)
(-0.591278 -0.294456 0)
(-0.658315 -0.244684 0)
(-0.632077 -0.166567 0)
(-0.783096 -0.120577 0)
(0.374103 0.0211247 0)
(-0.536608 -0.768868 0)
(-0.43039 -1.43732 0)
(-0.268135 -1.16339 0)
(-0.0330869 0.120885 0)
(0.126994 1.10302 0)
(-0.256724 1.29339 0)
(0.730854 1.13129 0)
(1.66323 0.596819 0)
(1.83784 0.122566 0)
(1.66337 -0.0892217 0)
(1.56496 -0.16969 0)
(1.5907 -0.140453 0)
(1.59868 -0.0493126 0)
(1.42168 0.0368769 0)
(0.925694 0.0133532 0)
(0.183346 0.0591114 0)
(-0.0106157 -0.109864 0)
(-0.18754 -0.375468 0)
(0.575125 -0.427362 0)
(-0.0311496 -0.355368 0)
(-0.239956 -1.41073 0)
(-0.154454 -1.35378 0)
(-0.152312 0.155895 0)
(0.418668 1.05486 0)
(0.511528 1.01426 0)
(1.36583 0.746583 0)
(1.85193 0.416662 0)
(1.60783 0.113421 0)
(1.46148 -0.0546798 0)
(1.34943 -0.117746 0)
(1.28507 -0.0877703 0)
(1.32426 0.00779878 0)
(1.33358 0.108732 0)
(1.2412 0.132539 0)
(1.00389 0.270458 0)
(1.10362 0.00113613 0)
(1.06351 -0.335593 0)
(1.03303 -0.432267 0)
(0.371256 -0.0169203 0)
(-0.0837845 -1.26135 0)
(-0.0660354 -1.45702 0)
(0.055183 -0.0711484 0)
(0.168839 -0.124768 0)
(0.18201 -0.110751 0)
(0.161679 -0.0687917 0)
(0.130202 -0.0275575 0)
(0.102484 -0.00679943 0)
(0.0797168 -0.00915335 0)
(0.0668551 -0.00878437 0)
(0.0593065 0.00476868 0)
(0.0544438 0.0230023 0)
(0.048195 0.0449924 0)
(0.0342868 0.0647532 0)
(0.0165107 0.0687274 0)
(0.00834174 0.0538014 0)
(0.00852484 0.0438591 0)
(0.00732062 0.0346844 0)
(0.00754185 0.0236108 0)
(0.0149385 0.0143556 0)
(0.0281984 0.00951667 0)
(0.0425606 0.000306629 0)
(0.0540356 -0.00962402 0)
(0.0686131 -0.03597 0)
(0.0624319 -0.0054299 0)
(0.0738497 -0.119256 0)
(-0.430379 -0.0143411 0)
(-0.748522 0.0468923 0)
(-0.504856 0.0176498 0)
(-0.328351 0.00674086 0)
(-0.237483 0.00343943 0)
(-0.224074 -0.00402237 0)
(-0.211688 0.00443365 0)
(-0.168305 0.0158323 0)
(-0.118227 0.0237595 0)
(-0.0710668 0.0367633 0)
(-0.0286307 0.0520839 0)
(0.00182414 0.0481453 0)
(0.0296794 0.0315412 0)
(0.0352248 0.037434 0)
(0.0210855 0.0456938 0)
(0.00592228 0.0362679 0)
(0.00951476 0.013791 0)
(0.0219322 0.00109943 0)
(0.0328616 -0.0128801 0)
(0.0430953 -0.0245892 0)
(0.0518379 -0.0444629 0)
(0.0616969 -0.0248518 0)
(-0.0301383 0.106551 0)
(-0.121138 0.371603 0)
(-0.372206 0.0450957 0)
(-0.321194 -0.328702 0)
(-0.542718 -0.289726 0)
(-0.690618 -0.0904786 0)
(-0.8092 -0.0210794 0)
(-0.908414 -0.0484952 0)
(-0.930578 -0.0878991 0)
(-0.844088 -0.0712793 0)
(-0.641491 -0.0247222 0)
(-0.445549 0.00164968 0)
(-0.297837 0.0158588 0)
(-0.200859 0.0194433 0)
(-0.0855681 0.0462167 0)
(-0.0320146 0.0586526 0)
(0.00787496 0.0353881 0)
(0.0469888 0.000386544 0)
(0.0573181 -0.00949356 0)
(0.0468174 -0.0177039 0)
(0.0483252 -0.0381233 0)
(0.0588546 -0.0555084 0)
(0.0683694 -0.053841 0)
(-0.0933276 0.133337 0)
(0.012054 0.440332 0)
(-0.0263657 0.294543 0)
(-0.042141 0.101651 0)
(-0.20017 0.14637 0)
(-0.31878 0.176847 0)
(-0.34921 0.160074 0)
(-0.355878 0.0858467 0)
(-0.396345 -0.0602469 0)
(-0.516565 -0.18585 0)
(-0.659354 -0.28864 0)
(-0.753176 -0.306755 0)
(-0.786992 -0.199954 0)
(-0.711549 -0.169957 0)
(-0.543206 -0.116851 0)
(-0.391672 -0.0496992 0)
(-0.31087 -0.0448895 0)
(-0.197703 -0.0277526 0)
(-0.111037 -0.00102426 0)
(-0.0573726 -0.002802 0)
(0.00474519 -0.0312592 0)
(0.0608019 -0.0459787 0)
(0.0767957 -0.0500726 0)
(-0.0906503 0.160313 0)
(0.0125671 0.253564 0)
(0.0743033 0.242057 0)
(0.0705091 -0.00887572 0)
(0.0101407 -0.00809135 0)
(0.000820546 0.136174 0)
(0.0072389 0.112953 0)
(0.0305782 0.05796 0)
(0.0385918 0.0560965 0)
(0.0253239 0.13193 0)
(-0.0687051 0.196416 0)
(-0.232351 0.0172878 0)
(-0.342754 -0.10558 0)
(-0.394782 -0.13595 0)
(-0.450071 -0.266508 0)
(-0.573755 -0.176636 0)
(-0.677222 -0.121828 0)
(-0.763338 -0.196117 0)
(-0.750263 -0.182891 0)
(-0.613066 -0.170518 0)
(-0.420683 -0.165075 0)
(-0.273767 -0.10967 0)
(-0.215523 -0.0709057 0)
(-0.0484521 0.217157 0)
(0.0167103 0.189171 0)
(0.0763774 0.1893 0)
(0.100478 0.109128 0)
(0.0132081 0.12862 0)
(0.0203023 0.132559 0)
(0.0364564 0.0972586 0)
(0.0112699 0.0458315 0)
(-0.0264799 -0.0145269 0)
(-0.039567 -0.0408975 0)
(0.0208055 0.0410285 0)
(0.0232841 0.00996488 0)
(-0.0387935 0.0253196 0)
(-0.123277 -0.0190384 0)
(-0.123744 -0.0381073 0)
(-0.148379 0.0431701 0)
(-0.154205 0.0861537 0)
(-0.207922 0.0135653 0)
(-0.295196 -0.0663759 0)
(-0.424701 -0.219771 0)
(-0.578935 -0.317772 0)
(-0.709773 -0.22722 0)
(-0.815203 -0.0860623 0)
(-0.0209093 0.219076 0)
(0.0131076 0.13895 0)
(0.0455829 0.16613 0)
(0.0583218 0.121111 0)
(0.0167019 0.120404 0)
(0.0166037 0.131247 0)
(0.01818 0.117987 0)
(0.00387194 0.0932884 0)
(-0.0194778 0.0662852 0)
(-0.0600873 0.0561441 0)
(-0.0688982 0.0671774 0)
(-0.057733 0.0676474 0)
(-0.0773724 0.0348277 0)
(-0.0839144 -0.0786731 0)
(-0.116664 -0.120498 0)
(-0.147765 -0.0861324 0)
(-0.121156 -0.039564 0)
(-0.0919177 -0.0123083 0)
(-0.0710454 0.00749877 0)
(-0.0511712 0.0433465 0)
(-0.0654191 -0.0282603 0)
(-0.0406048 -0.0294711 0)
(-0.141681 -0.0313939 0)
(-0.0105888 0.216102 0)
(0.00496425 0.119897 0)
(0.0200373 0.152522 0)
(0.0284059 0.130712 0)
(0.0146712 0.127447 0)
(0.0156019 0.12941 0)
(0.010925 0.124005 0)
(-0.00129247 0.105035 0)
(-0.0242978 0.0721401 0)
(-0.0509186 0.0417897 0)
(-0.0615728 0.0379412 0)
(-0.0533562 0.0420385 0)
(-0.0356854 0.0448534 0)
(-0.0309996 -0.00145975 0)
(-0.0687434 -0.023556 0)
(-0.096276 -0.0102775 0)
(-0.104593 -0.00495199 0)
(-0.0963677 -0.0274116 0)
(-0.0861905 -0.0956556 0)
(-0.0571697 -0.160317 0)
(0.0265405 -0.22439 0)
(0.0759088 -0.146009 0)
(0.154033 0.0974935 0)
(-0.00765845 0.221583 0)
(-0.00068221 0.108571 0)
(0.00848137 0.140352 0)
(0.0165452 0.13542 0)
(0.0107443 0.133787 0)
(0.0124266 0.131403 0)
(0.0116854 0.129037 0)
(0.00783584 0.11978 0)
(-0.00296563 0.101674 0)
(-0.0206393 0.0805009 0)
(-0.0383788 0.0608872 0)
(-0.0468045 0.0396936 0)
(-0.0367526 0.0165228 0)
(-0.0359994 -0.0207913 0)
(-0.0543208 -0.0333133 0)
(-0.0670751 -0.0289248 0)
(-0.0697578 -0.0235274 0)
(-0.0517219 -0.0317803 0)
(-0.0237882 -0.0752407 0)
(0.00342471 -0.135026 0)
(0.042512 -0.225025 0)
(0.0588981 -0.169978 0)
(0.0852011 0.0802924 0)
(-0.0048434 0.22516 0)
(-0.000970548 0.103479 0)
(0.00365017 0.132279 0)
(0.0102253 0.134562 0)
(0.00801523 0.132927 0)
(0.00993555 0.130578 0)
(0.0118497 0.129256 0)
(0.0131914 0.124089 0)
(0.0101472 0.110381 0)
(0.00168275 0.0887784 0)
(-0.00747564 0.0653455 0)
(-0.0153641 0.0435132 0)
(-0.0207692 0.0267145 0)
(-0.0318976 0.00660154 0)
(-0.0510876 -0.00535605 0)
(-0.0663601 -0.00936295 0)
(-0.0735641 -0.0240868 0)
(-0.0639129 -0.0617205 0)
(-0.0493895 -0.120855 0)
(-0.032389 -0.182973 0)
(-0.0341808 -0.253844 0)
(-0.0423227 -0.191634 0)
(-0.0608874 0.0708982 0)
(-0.00116506 0.226351 0)
(0.000155306 0.101169 0)
(0.00135273 0.127571 0)
(0.00587975 0.133285 0)
(0.0051405 0.131474 0)
(0.00659501 0.128487 0)
(0.00841388 0.126141 0)
(0.0110248 0.121645 0)
(0.0120198 0.111466 0)
(0.0093194 0.0951377 0)
(0.00299693 0.0756428 0)
(-0.00739769 0.0548768 0)
(-0.019981 0.0360285 0)
(-0.0357312 0.0185229 0)
(-0.0552582 0.00771531 0)
(-0.0711071 -0.000575331 0)
(-0.0808145 -0.0207395 0)
(-0.0865782 -0.0604409 0)
(-0.0963646 -0.113247 0)
(-0.106675 -0.166647 0)
(-0.149859 -0.219147 0)
(-0.220186 -0.141092 0)
(-0.254087 0.110498 0)
(0.00169419 0.225158 0)
(0.00106889 0.101611 0)
(0.000247668 0.125074 0)
(0.00282268 0.132507 0)
(0.00217169 0.130807 0)
(0.00267708 0.127452 0)
(0.00322205 0.124077 0)
(0.0046366 0.119432 0)
(0.00550397 0.111491 0)
(0.00351313 0.0989573 0)
(-0.00266126 0.0832407 0)
(-0.0136203 0.0668471 0)
(-0.0281345 0.0523435 0)
(-0.0461052 0.0390103 0)
(-0.0656207 0.0273296 0)
(-0.0828255 0.0147819 0)
(-0.0984672 -0.00691499 0)
(-0.118648 -0.0433447 0)
(-0.14522 -0.0890029 0)
(-0.181762 -0.131572 0)
(-0.256229 -0.161762 0)
(-0.34388 -0.0835118 0)
(-0.385825 0.124149 0)
(0.00314605 0.222487 0)
(0.00150964 0.103688 0)
(-0.000396424 0.124497 0)
(0.000463445 0.132442 0)
(-0.000555981 0.130951 0)
(-0.00105658 0.127687 0)
(-0.00201419 0.124037 0)
(-0.00270737 0.119332 0)
(-0.0039822 0.112655 0)
(-0.00737435 0.103274 0)
(-0.0142621 0.0918879 0)
(-0.025469 0.0798936 0)
(-0.0401022 0.0685952 0)
(-0.0574583 0.0574051 0)
(-0.0765253 0.04618 0)
(-0.0961931 0.0336376 0)
(-0.117931 0.0159308 0)
(-0.146887 -0.0115338 0)
(-0.183695 -0.0463911 0)
(-0.232265 -0.0771989 0)
(-0.309723 -0.0889708 0)
(-0.392331 -0.0323929 0)
(-0.446561 0.128014 0)
(0.0034029 0.219648 0)
(0.00137469 0.105798 0)
(-0.000930886 0.125309 0)
(-0.00145207 0.133193 0)
(-0.00298452 0.131932 0)
(-0.00434802 0.129032 0)
(-0.00642127 0.125735 0)
(-0.00889944 0.121534 0)
(-0.0122054 0.116111 0)
(-0.017202 0.109313 0)
(-0.0249024 0.101379 0)
(-0.0358997 0.0928448 0)
(-0.0497744 0.084378 0)
(-0.0663338 0.075704 0)
(-0.0857482 0.0667214 0)
(-0.108068 0.0570613 0)
(-0.134624 0.0453286 0)
(-0.168763 0.0274703 0)
(-0.214284 0.00292806 0)
(-0.277458 -0.016891 0)
(-0.36297 -0.00700329 0)
(-0.455702 0.0611695 0)
(-0.521009 0.18459 0)
(0.00299201 0.217393 0)
(0.000902821 0.107886 0)
(-0.00160288 0.127019 0)
(-0.00307992 0.134643 0)
(-0.00503866 0.133582 0)
(-0.00708393 0.131222 0)
(-0.00986119 0.128572 0)
(-0.0133532 0.125259 0)
(-0.0178846 0.121182 0)
(-0.0238981 0.116372 0)
(-0.0319732 0.110978 0)
(-0.0425251 0.105226 0)
(-0.0556608 0.0994802 0)
(-0.0715704 0.0938016 0)
(-0.0907705 0.0883229 0)
(-0.114058 0.0830607 0)
(-0.142361 0.0778873 0)
(-0.177729 0.0715539 0)
(-0.226556 0.0633879 0)
(-0.296924 0.059687 0)
(-0.384403 0.0787509 0)
(-0.470864 0.140178 0)
(-0.540801 0.241093 0)
(0.00240585 0.215845 0)
(0.000293694 0.109985 0)
(-0.0023848 0.129277 0)
(-0.00440842 0.136603 0)
(-0.00669771 0.135745 0)
(-0.00922191 0.133937 0)
(-0.0124089 0.132018 0)
(-0.0163636 0.129687 0)
(-0.0213794 0.126909 0)
(-0.0277431 0.123761 0)
(-0.0357932 0.120384 0)
(-0.0458664 0.116975 0)
(-0.0582706 0.113794 0)
(-0.0732942 0.111143 0)
(-0.091375 0.109358 0)
(-0.113251 0.108631 0)
(-0.139941 0.109414 0)
(-0.172785 0.11285 0)
(-0.215094 0.119633 0)
(-0.272201 0.131232 0)
(-0.344294 0.15718 0)
(-0.420189 0.211626 0)
(-0.485252 0.294163 0)
(0.00189336 0.214893 0)
(-0.000299548 0.112211 0)
(-0.00314476 0.131834 0)
(-0.00542347 0.138894 0)
(-0.00794608 0.138259 0)
(-0.0107648 0.136987 0)
(-0.0141764 0.135753 0)
(-0.018298 0.134342 0)
(-0.0233811 0.132737 0)
(-0.0296736 0.131035 0)
(-0.0374208 0.129386 0)
(-0.0469144 0.128012 0)
(-0.0584516 0.127168 0)
(-0.0723259 0.127211 0)
(-0.0888807 0.128577 0)
(-0.108601 0.131875 0)
(-0.13225 0.137943 0)
(-0.16065 0.147877 0)
(-0.194919 0.163202 0)
(-0.237051 0.186641 0)
(-0.28778 0.222594 0)
(-0.341964 0.275491 0)
(-0.389758 0.345271 0)
(0.0015146 0.214406 0)
(-0.000779476 0.114614 0)
(-0.00377615 0.134542 0)
(-0.00612498 0.141369 0)
(-0.00878101 0.140985 0)
(-0.0117317 0.140213 0)
(-0.0152235 0.1396 0)
(-0.019344 0.138992 0)
(-0.0242896 0.138408 0)
(-0.0302759 0.137959 0)
(-0.0375048 0.137809 0)
(-0.0462169 0.138182 0)
(-0.0566336 0.139366 0)
(-0.0689953 0.141738 0)
(-0.0835765 0.145786 0)
(-0.10066 0.152172 0)
(-0.120554 0.161823 0)
(-0.143604 0.175918 0)
(-0.170207 0.195874 0)
(-0.200316 0.224029 0)
(-0.232736 0.263576 0)
(-0.264829 0.316199 0)
(-0.292038 0.380584 0)
(0.00125761 0.214249 0)
(-0.0011002 0.117174 0)
(-0.00421729 0.137321 0)
(-0.00652786 0.143913 0)
(-0.00921549 0.143789 0)
(-0.0121613 0.143473 0)
(-0.0155951 0.143411 0)
(-0.0195728 0.143494 0)
(-0.0242429 0.143772 0)
(-0.0297661 0.144369 0)
(-0.0363018 0.145463 0)
(-0.0440264 0.147269 0)
(-0.0530887 0.150092 0)
(-0.0636483 0.154295 0)
(-0.0758502 0.160376 0)
(-0.0898025 0.169004 0)
(-0.105562 0.181083 0)
(-0.123126 0.197694 0)
(-0.142419 0.219968 0)
(-0.162791 0.24932 0)
(-0.18236 0.287635 0)
(-0.198528 0.336269 0)
(-0.208664 0.395058 0)
(0.00110268 0.214297 0)
(-0.00127023 0.119861 0)
(-0.00445674 0.140078 0)
(-0.00665189 0.146431 0)
(-0.00927988 0.146553 0)
(-0.0121089 0.146639 0)
(-0.0153633 0.147054 0)
(-0.019068 0.147714 0)
(-0.0233378 0.148692 0)
(-0.0282747 0.150122 0)
(-0.0339887 0.152185 0)
(-0.0405917 0.155098 0)
(-0.0481692 0.159143 0)
(-0.056804 0.164663 0)
(-0.0665329 0.172125 0)
(-0.0773272 0.182141 0)
(-0.0890641 0.19551 0)
(-0.101493 0.21315 0)
(-0.114204 0.235937 0)
(-0.126377 0.264681 0)
(-0.13643 0.30019 0)
(-0.14202 0.343218 0)
(-0.140539 0.394299 0)
(0.00103665 0.214439 0)
(-0.00130856 0.122624 0)
(-0.00450901 0.142735 0)
(-0.00652288 0.148843 0)
(-0.00901855 0.149183 0)
(-0.0116426 0.149608 0)
(-0.0146233 0.150415 0)
(-0.017955 0.151536 0)
(-0.0217216 0.153054 0)
(-0.0259829 0.155113 0)
(-0.0307966 0.157884 0)
(-0.0362203 0.161582 0)
(-0.0422845 0.166457 0)
(-0.0489982 0.172821 0)
(-0.056321 0.181082 0)
(-0.0641225 0.191773 0)
(-0.0721555 0.205551 0)
(-0.0800347 0.223148 0)
(-0.0871863 0.245192 0)
(-0.0927351 0.272104 0)
(-0.095379 0.304032 0)
(-0.0933274 0.34115 0)
(-0.084234 0.383898 0)
(0.00104278 0.214581 0)
(-0.00124154 0.125399 0)
(-0.00439357 0.14524 0)
(-0.00617429 0.151084 0)
(-0.00848073 0.151607 0)
(-0.0108352 0.152304 0)
(-0.0134762 0.153411 0)
(-0.0163698 0.154876 0)
(-0.0195677 0.156785 0)
(-0.0230987 0.159279 0)
(-0.0269813 0.162521 0)
(-0.0312254 0.16671 0)
(-0.0358159 0.172069 0)
(-0.0407028 0.178865 0)
(-0.045775 0.187437 0)
(-0.0508444 0.198216 0)
(-0.0555958 0.211729 0)
(-0.0595962 0.228523 0)
(-0.0622197 0.24903 0)
(-0.0626088 0.273393 0)
(-0.0596553 0.301384 0)
(-0.0519916 0.332645 0)
(-0.037803 0.367271 0)
(0.00110148 0.214645 0)
(-0.00109372 0.128125 0)
(-0.00412845 0.14755 0)
(-0.00564077 0.153107 0)
(-0.00771641 0.153769 0)
(-0.00975767 0.15467 0)
(-0.0120165 0.155989 0)
(-0.0144329 0.157686 0)
(-0.0170342 0.159848 0)
(-0.0198209 0.162603 0)
(-0.0227796 0.166105 0)
(-0.0258846 0.17053 0)
(-0.0290844 0.17607 0)
(-0.0322849 0.182945 0)
(-0.0353414 0.191424 0)
(-0.0380217 0.201831 0)
(-0.0399835 0.214583 0)
(-0.0407817 0.230068 0)
(-0.0398076 0.24856 0)
(-0.0362837 0.270005 0)
(-0.0292956 0.293969 0)
(-0.0177879 0.31972 0)
(-0.000560113 0.346939 0)
(0.00118386 0.214574 0)
(-0.000882522 0.130739 0)
(-0.00372401 0.149625 0)
(-0.00495244 0.154878 0)
(-0.00676735 0.155636 0)
(-0.00846844 0.156673 0)
(-0.0103245 0.15812 0)
(-0.0122499 0.159947 0)
(-0.0142544 0.162235 0)
(-0.0163145 0.165101 0)
(-0.0183913 0.168682 0)
(-0.0204371 0.173127 0)
(-0.0223729 0.178602 0)
(-0.0240719 0.18527 0)
(-0.0253737 0.193339 0)
(-0.0260219 0.203057 0)
(-0.0256692 0.214705 0)
(-0.0239027 0.228576 0)
(-0.0201686 0.244806 0)
(-0.0137858 0.263237 0)
(-0.00403535 0.283269 0)
(0.00989755 0.304019 0)
(0.0287689 0.32488 0)
(0.00126199 0.214336 0)
(-0.000614262 0.133165 0)
(-0.00318834 0.151429 0)
(-0.00412584 0.156377 0)
(-0.00566334 0.157189 0)
(-0.0070139 0.158299 0)
(-0.0084637 0.1598 0)
(-0.00990581 0.161667 0)
(-0.0113364 0.163971 0)
(-0.0127134 0.166818 0)
(-0.013984 0.170325 0)
(-0.0150721 0.174615 0)
(-0.0158907 0.179825 0)
(-0.0162946 0.186079 0)
(-0.0160974 0.193515 0)
(-0.0150753 0.202313 0)
(-0.0128863 0.212648 0)
(-0.00913 0.224749 0)
(-0.00331883 0.238596 0)
(0.00507608 0.254069 0)
(0.0166067 0.27044 0)
(0.0319598 0.286818 0)
(0.0514884 0.30246 0)
(0.00131817 0.213912 0)
(-0.000280975 0.135328 0)
(-0.00253355 0.15293 0)
(-0.00317486 0.157594 0)
(-0.00442609 0.15842 0)
(-0.00542586 0.15955 0)
(-0.00648071 0.161041 0)
(-0.00746589 0.162871 0)
(-0.00836657 0.165099 0)
(-0.00912485 0.167822 0)
(-0.00968105 0.171133 0)
(-0.00994277 0.175132 0)
(-0.00980278 0.179923 0)
(-0.00911987 0.185601 0)
(-0.00770445 0.19225 0)
(-0.00535081 0.19998 0)
(-0.00171771 0.208873 0)
(0.00348791 0.219135 0)
(0.010774 0.230681 0)
(0.0205913 0.243314 0)
(0.0332342 0.256383 0)
(0.0492634 0.269 0)
(0.0687972 0.280359 0)
(0.00135682 0.213275 0)
(0.000130456 0.13717 0)
(-0.00178191 0.154094 0)
(-0.00211581 0.158532 0)
(-0.0030844 0.159329 0)
(-0.00373647 0.160438 0)
(-0.00441704 0.161869 0)
(-0.00498046 0.163602 0)
(-0.00540266 0.165691 0)
(-0.00561714 0.168202 0)
(-0.00556156 0.171222 0)
(-0.00513182 0.174829 0)
(-0.004213 0.179096 0)
(-0.00265768 0.184073 0)
(-0.000277034 0.189833 0)
(0.00307554 0.196406 0)
(0.00776704 0.203856 0)
(0.0140794 0.21225 0)
(0.0223525 0.221646 0)
(0.0329978 0.231641 0)
(0.0462439 0.241738 0)
(0.0624738 0.251061 0)
(0.0817053 0.258918 0)
(0.00142002 0.212379 0)
(0.000622539 0.138665 0)
(-0.000973722 0.154906 0)
(-0.000974899 0.159199 0)
(-0.00168349 0.159911 0)
(-0.00198608 0.160976 0)
(-0.0023148 0.162307 0)
(-0.00248446 0.163905 0)
(-0.0024855 0.165802 0)
(-0.00223503 0.168045 0)
(-0.00166204 0.170712 0)
(-0.000670285 0.173856 0)
(0.000850883 0.177523 0)
(0.00307158 0.181748 0)
(0.00616717 0.18655 0)
(0.0102826 0.19194 0)
(0.0157018 0.197974 0)
(0.0227055 0.204585 0)
(0.0315493 0.211863 0)
(0.0426041 0.219459 0)
(0.0560818 0.226893 0)
(0.0721957 0.233331 0)
(0.0909654 0.238272 0)
(0.00155765 0.211137 0)
(0.00117737 0.13982 0)
(-0.000149849 0.15541 0)
(0.000202385 0.159575 0)
(-0.00029596 0.160164 0)
(-0.000228056 0.161185 0)
(-0.000231782 0.162381 0)
(-3.53791e-05 0.163814 0)
(0.000343493 0.165483 0)
(0.00100465 0.167445 0)
(0.00201825 0.169719 0)
(0.00346151 0.172357 0)
(0.00546161 0.175387 0)
(0.00817302 0.178846 0)
(0.0117625 0.182692 0)
(0.0163811 0.186911 0)
(0.0222328 0.191522 0)
(0.0295933 0.196466 0)
(0.0386909 0.201736 0)
(0.049832 0.207154 0)
(0.0631936 0.212146 0)
(0.0789706 0.215999 0)
(0.0972136 0.218374 0)
(0.00181656 0.209449 0)
(0.0018206 0.140732 0)
(0.00062793 0.155625 0)
(0.00131961 0.159644 0)
(0.00103597 0.160123 0)
(0.0014739 0.161074 0)
(0.00174783 0.162107 0)
(0.00229792 0.163354 0)
(0.00304695 0.164783 0)
(0.00408239 0.166437 0)
(0.00546615 0.168313 0)
(0.00730151 0.170441 0)
(0.00969687 0.172839 0)
(0.012775 0.175521 0)
(0.0166751 0.178426 0)
(0.0215846 0.181528 0)
(0.0276774 0.184802 0)
(0.0351434 0.188181 0)
(0.0442375 0.191618 0)
(0.0552048 0.194992 0)
(0.0682002 0.197737 0)
(0.0834732 0.19923 0)
(0.101099 0.199165 0)
(0.00220223 0.207243 0)
(0.0024871 0.141519 0)
(0.00130785 0.15558 0)
(0.00234114 0.159458 0)
(0.00223926 0.159821 0)
(0.00300911 0.160659 0)
(0.00352949 0.161515 0)
(0.00442107 0.162563 0)
(0.00550142 0.16374 0)
(0.00688728 0.165058 0)
(0.00862399 0.166536 0)
(0.0108017 0.168167 0)
(0.0135344 0.169954 0)
(0.0169072 0.171883 0)
(0.0210585 0.173889 0)
(0.0261662 0.175965 0)
(0.0323477 0.177999 0)
(0.0397845 0.179948 0)
(0.0487234 0.181723 0)
(0.0593574 0.183195 0)
(0.0718723 0.183869 0)
(0.0865083 0.183128 0)
(0.10337 0.180609 0)
(0.00268866 0.204466 0)
(0.00313391 0.142247 0)
(0.00184642 0.155348 0)
(0.00319384 0.159053 0)
(0.00321216 0.159266 0)
(0.0042728 0.159974 0)
(0.00498582 0.160639 0)
(0.00617241 0.161464 0)
(0.00753089 0.162369 0)
(0.00921967 0.16335 0)
(0.0112752 0.164422 0)
(0.0137728 0.165573 0)
(0.0168114 0.166777 0)
(0.0204505 0.167989 0)
(0.0248365 0.169185 0)
(0.0301012 0.170279 0)
(0.0363524 0.171172 0)
(0.04374 0.171836 0)
(0.0524756 0.172123 0)
(0.0627559 0.171863 0)
(0.0747731 0.170638 0)
(0.0887135 0.167781 0)
(0.104702 0.162852 0)
(0.00326436 0.201096 0)
(0.00373006 0.143015 0)
(0.00220229 0.155011 0)
(0.00380942 0.158458 0)
(0.00385671 0.158517 0)
(0.0051459 0.15907 0)
(0.0059574 0.159522 0)
(0.00735613 0.160108 0)
(0.00890959 0.160713 0)
(0.0108215 0.161354 0)
(0.0131287 0.162016 0)
(0.0158782 0.162672 0)
(0.0191457 0.16331 0)
(0.0230246 0.163854 0)
(0.0276113 0.164275 0)
(0.0329957 0.164465 0)
(0.0393317 0.164334 0)
(0.0467211 0.163801 0)
(0.0553034 0.162747 0)
(0.0652928 0.160934 0)
(0.076883 0.157979 0)
(0.0901875 0.153193 0)
(0.105295 0.14607 0)
(0.00389543 0.197111 0)
(0.00422588 0.143966 0)
(0.0023541 0.154696 0)
(0.00415119 0.157748 0)
(0.00409964 0.157654 0)
(0.00551263 0.158046 0)
(0.00632425 0.158265 0)
(0.00781751 0.158591 0)
(0.00944165 0.158873 0)
(0.0114564 0.159153 0)
(0.0138585 0.159385 0)
(0.0167284 0.159541 0)
(0.0201262 0.159606 0)
(0.0241076 0.159509 0)
(0.0287884 0.159177 0)
(0.0342364 0.15852 0)
(0.0405725 0.157446 0)
(0.0479144 0.155817 0)
(0.0563746 0.153507 0)
(0.0661058 0.150268 0)
(0.0772756 0.145736 0)
(0.0900086 0.139273 0)
(0.104247 0.130305 0)
(0.00453606 0.192585 0)
(0.00459308 0.145265 0)
(0.00229457 0.15459 0)
(0.00418836 0.157107 0)
(0.00392911 0.156869 0)
(0.00537014 0.157095 0)
(0.00604393 0.157067 0)
(0.00750629 0.157115 0)
(0.00906097 0.157067 0)
(0.0110196 0.156955 0)
(0.0133562 0.156741 0)
(0.0161585 0.156415 0)
(0.0194777 0.155906 0)
(0.0233745 0.155173 0)
(0.0279416 0.154123 0)
(0.0332508 0.152636 0)
(0.0394039 0.150643 0)
(0.0464991 0.147985 0)
(0.054642 0.144504 0)
(0.0639638 0.139937 0)
(0.0745815 0.133966 0)
(0.0866178 0.126043 0)
(0.0998522 0.115565 0)
(0.00509992 0.18771 0)
(0.00479927 0.146937 0)
(0.00208549 0.154749 0)
(0.00396741 0.156619 0)
(0.00341353 0.15628 0)
(0.00478324 0.156313 0)
(0.00522572 0.156045 0)
(0.00655772 0.15582 0)
(0.00790028 0.155442 0)
(0.00965084 0.154951 0)
(0.0117681 0.15432 0)
(0.0143126 0.153515 0)
(0.0173389 0.152469 0)
(0.020914 0.151123 0)
(0.0250942 0.14937 0)
(0.0299765 0.147107 0)
(0.0356452 0.144231 0)
(0.0421729 0.140595 0)
(0.0496569 0.136015 0)
(0.0581963 0.130259 0)
(0.0678422 0.123005 0)
(0.0787186 0.1138 0)
(0.0905349 0.102087 0)
(0.00555111 0.182503 0)
(0.00481582 0.148843 0)
(0.00176151 0.15508 0)
(0.00356352 0.156169 0)
(0.00269993 0.155812 0)
(0.00393292 0.155598 0)
(0.00409716 0.155132 0)
(0.0052233 0.154651 0)
(0.00627288 0.153979 0)
(0.00773191 0.153155 0)
(0.00949589 0.152142 0)
(0.0116273 0.150896 0)
(0.0141865 0.149371 0)
(0.017228 0.147467 0)
(0.0208166 0.145078 0)
(0.0250171 0.142111 0)
(0.0298936 0.138455 0)
(0.0355103 0.133958 0)
(0.0419592 0.128434 0)
(0.0492951 0.121663 0)
(0.0574721 0.113348 0)
(0.0666039 0.103154 0)
(0.0763694 0.0905524 0)
(0.00569566 0.177005 0)
(0.00458295 0.150887 0)
(0.00143964 0.155552 0)
(0.00305914 0.155798 0)
(0.0019782 0.155475 0)
(0.00301206 0.154984 0)
(0.00295713 0.154369 0)
(0.00385361 0.153647 0)
(0.00458951 0.152721 0)
(0.0057023 0.151608 0)
(0.00705555 0.150254 0)
(0.00872275 0.148644 0)
(0.0107472 0.146693 0)
(0.0131671 0.144303 0)
(0.0160353 0.141377 0)
(0.0194193 0.137812 0)
(0.0233556 0.133498 0)
(0.0278807 0.12829 0)
(0.0330566 0.122012 0)
(0.038887 0.114445 0)
(0.0453098 0.10534 0)
(0.0523313 0.094475 0)
(0.0596807 0.0814086 0)
(0.00530636 0.171953 0)
(0.00403017 0.153192 0)
(0.00119735 0.156368 0)
(0.00254426 0.155854 0)
(0.00142161 0.155562 0)
(0.00225677 0.154806 0)
(0.0020589 0.154087 0)
(0.00273214 0.153145 0)