/*--------------------------------*- C++ -*----------------------------------*\
| =========                 |                                                 |
| \\      /  F ield         | OpenFOAM: The Open Source CFD Toolbox           |
|  \\    /   O peration     | Version:  2206                                  |
|   \\  /    A nd           | Website:  www.openfoam.com                      |
|    \\/     M anipulation  |                                                 |
\*---------------------------------------------------------------------------*/
FoamFile
{
    version     2.0;
    format      ascii;
    arch        "LSB;label=32;scalar=64";
    class       surfaceScalarField;
    location    "0.575";
    object      alphaPhi0.water;
}
// * * * * * * * * * * * * * * * * * * * * * * * * * * * * * * * * * * * * * //

dimensions      [0 3 -1 0 0 0 0];

oriented        oriented;

internalField   nonuniform List<scalar> 
4432
(
-3.27705e-06
3.27705e-06
-5.55994e-06
2.2829e-06
-5.34634e-06
-2.13601e-07
-3.46907e-06
-1.87727e-06
-1.51658e-07
-3.31741e-06
4.14816e-06
-4.29982e-06
8.60215e-06
-4.45399e-06
1.22677e-05
-3.66556e-06
1.46936e-05
-2.42592e-06
1.59172e-05
-1.22354e-06
1.61456e-05
-2.28401e-07
1.5552e-05
5.93545e-07
1.42698e-05
1.28224e-06
1.23741e-05
1.89569e-06
9.76211e-06
2.612e-06
6.13794e-06
3.62417e-06
1.28751e-06
4.85043e-06
-4.1497e-06
5.43721e-06
-7.24874e-06
3.77058e-06
-1.18525e-05
4.05494e-06
-1.8842e-05
5.85738e-06
-1.58519e-05
-2.98972e-06
-1.58516e-05
-3.72468e-06
7.00173e-06
-5.24569e-06
3.80391e-06
-4.7018e-06
-7.57489e-07
-2.95884e-06
-3.62024e-06
9.15288e-08
-6.36778e-06
4.31057e-06
-8.51886e-06
8.7699e-06
-8.91332e-06
1.24355e-05
-7.33112e-06
1.48269e-05
-4.81737e-06
1.60283e-05
-2.42489e-06
1.63861e-05
-5.86184e-07
1.62316e-05
7.47981e-07
1.57819e-05
1.73196e-06
1.51259e-05
2.55171e-06
1.42713e-05
3.46666e-06
1.29857e-05
4.90972e-06
1.06315e-05
7.20464e-06
6.15695e-06
9.91177e-06
-5.10995e-07
1.05546e-05
-8.05632e-06
1.22733e-05
-1.28883e-05
1.0368e-05
-1.02948e-05
-6.12082e-06
-2.61462e-05
-2.84566e-06
9.84739e-06
-3.87499e-06
4.83324e-06
-3.50222e-06
-1.13026e-06
-2.27135e-06
-4.85111e-06
2.41797e-07
-8.88093e-06
4.17751e-06
-1.24546e-05
8.59196e-06
-1.33278e-05
1.22366e-05
-1.09758e-05
1.45439e-05
-7.12466e-06
1.5632e-05
-3.51295e-06
1.58561e-05
-8.10303e-07
1.55338e-05
1.07032e-06
1.48881e-05
2.37769e-06
1.41068e-05
3.33293e-06
1.33761e-05
4.19736e-06
1.2926e-05
5.35988e-06
1.28372e-05
7.29344e-06
1.20891e-05
1.06599e-05
8.6695e-06
1.39742e-05
3.17545e-06
1.8042e-05
-2.97354e-06
1.61956e-05
-2.85669e-06
-6.09292e-06
-2.89669e-05
-1.55297e-06
1.14004e-05
-1.86796e-06
5.14823e-06
-1.59943e-06
-1.39879e-06
-7.64471e-07
-5.68607e-06
1.23338e-06
-1.08788e-05
4.69896e-06
-1.59202e-05
8.67707e-06
-1.73059e-05
1.19687e-05
-1.42674e-05
1.40331e-05
-9.18907e-06
1.49806e-05
-4.46044e-06
1.51498e-05
-9.79569e-07
1.48325e-05
1.38761e-06
1.42356e-05
2.9746e-06
1.35088e-05
4.05973e-06
1.2785e-05
4.92121e-06
1.22441e-05
5.90072e-06
1.22828e-05
7.25481e-06
1.31697e-05
9.77293e-06
1.38142e-05
1.33298e-05
1.3284e-05
1.85722e-05
1.03378e-05
1.8832e-05
6.21803e-06
-1.57562e-06
-2.26541e-05
1.3882e-07
1.12615e-05
1.11789e-06
4.16916e-06
1.85177e-06
-2.13267e-06
2.96759e-06
-6.80189e-06
4.96463e-06
-1.28758e-05
7.60739e-06
-1.85629e-05
1.02554e-05
-1.99539e-05
1.23114e-05
-1.63234e-05
1.35646e-05
-1.04423e-05
1.41476e-05
-5.04345e-06
1.42531e-05
-1.08507e-06
1.40054e-05
1.63533e-06
1.35473e-05
3.43273e-06
1.30112e-05
4.5958e-06
1.25067e-05
5.42572e-06
1.21174e-05
6.29003e-06
1.20396e-05
7.33261e-06
1.28501e-05
8.96242e-06
1.48411e-05
1.13388e-05
1.76795e-05
1.57338e-05
1.82215e-05
1.88425e-05
1.23751e-05
4.47028e-06
-1.02637e-05
2.58424e-06
8.67729e-06
5.4163e-06
1.3371e-06
7.69049e-06
-4.40686e-06
1.00552e-05
-9.16657e-06
1.23101e-05
-1.51307e-05
1.35514e-05
-1.98043e-05
1.39109e-05
-2.03134e-05
1.38675e-05
-1.628e-05
1.36671e-05
-1.02419e-05
1.34606e-05
-4.83692e-06
1.33188e-05
-9.43302e-07
1.31175e-05
1.83668e-06
1.28241e-05
3.72607e-06
1.25078e-05
4.91216e-06
1.22559e-05
5.67763e-06
1.21126e-05
6.43327e-06
1.22087e-05
7.23648e-06
1.28603e-05
8.31088e-06
1.44777e-05
9.72144e-06
1.7802e-05
1.24095e-05
2.02976e-05
1.6347e-05
1.48422e-05
9.92565e-06
4.57252e-06
5.10595e-06
3.57134e-06
1.07669e-05
-4.32388e-06
1.58819e-05
-9.52183e-06
1.99818e-05
-1.32664e-05
2.17133e-05
-1.68621e-05
2.06363e-05
-1.87273e-05
1.83269e-05
-1.8004e-05
1.62028e-05
-1.41559e-05
1.46031e-05
-8.64226e-06
1.34848e-05
-3.71856e-06
1.27797e-05
-2.38236e-07
1.24007e-05
2.21563e-06
1.21475e-05
3.97933e-06
1.20239e-05
5.03578e-06
1.20334e-05
5.66811e-06
1.21201e-05
6.34658e-06
1.24294e-05
6.92713e-06
1.32041e-05
7.53625e-06
1.44178e-05
8.50775e-06
1.68875e-05
9.93971e-06
1.95726e-05
1.36619e-05
1.65596e-05
1.29387e-05
2.11298e-05
7.63608e-06
-4.06475e-06
1.71529e-05
-1.38403e-05
2.5391e-05
-1.77345e-05
2.93233e-05
-1.65198e-05
2.82257e-05
-1.50251e-05
2.43566e-05
-1.47327e-05
2.03994e-05
-1.40471e-05
1.75178e-05
-1.12743e-05
1.55948e-05
-6.71938e-06
1.42921e-05
-2.41589e-06
1.34002e-05
6.53728e-07
1.25833e-05
3.03246e-06
1.19733e-05
4.58934e-06
1.16664e-05
5.34272e-06
1.17302e-05
5.60428e-06
1.19487e-05
6.12813e-06
1.2475e-05
6.40079e-06
1.35356e-05
6.47565e-06
1.48751e-05
7.16821e-06
1.66907e-05
8.12413e-06
1.87478e-05
1.16048e-05
1.66292e-05
1.50573e-05
3.77568e-05
-2.59112e-06
2.53987e-06
-4.19669e-06
-3.97622e-07
3.7036e-05
-7.08608e-05
3.62489e-05
-2.9387e-05
3.12975e-05
-8.51637e-07
1.18846e-05
1.33596e-05
-4.46712e-05
5.03951e-05
-9.45746e-05
4.1762e-05
-0.000109949
6.96474e-06
-0.00011378
-3.50733e-06
-0.000118031
-3.93613e-06
-0.000120106
-3.6387e-06
-0.000118707
-4.35688e-06
-0.000113947
-6.97656e-06
-0.000105275
-1.13701e-05
-9.36966e-05
-1.46104e-05
-7.1158e-05
-2.68794e-05
-1.67258e-05
-5.8016e-05
-1.95274e-05
-7.09174e-06
2.17592e-05
-3.17544e-06
-1.35149e-05
2.8564e-05
-0.0001026
3.29601e-05
-0.000108757
2.3131e-05
-5.96329e-06
3.62369e-06
2.6592e-05
-4.18605e-05
8.11229e-05
-2.32672e-05
1.20271e-05
-2.40029e-05
1.06732e-06
-3.50467e-05
-1.07031e-07
-4.47245e-05
-2.1907e-07
-5.26747e-05
-4.2102e-07
-5.96944e-05
-8.90238e-07
-6.78227e-05
-2.05021e-06
-7.86483e-05
-4.86809e-06
-8.93726e-05
-1.04722e-05
-8.11696e-05
-4.28227e-05
-2.65835e-05
-0.00011771
-5.03475e-05
-1.20948e-05
3.59773e-05
7.9824e-06
-3.35921e-05
2.14986e-05
-0.000116116
4.45692e-05
-0.000157532
1.23575e-05
-2.35736e-05
-1.20586e-05
4.64222e-05
-1.02409e-05
4.71816e-05
-1.00451e-06
2.61706e-06
-9.87075e-08
1.30097e-07
-2.24562e-07
2.70956e-09
-4.6313e-07
-1.09442e-09
-8.65829e-07
-3.78826e-08
-1.64338e-06
-1.45018e-07
-3.29968e-06
-4.15065e-07
-7.08941e-06
-1.08889e-06
-1.49218e-05
-2.68143e-06
-4.96903e-05
-1.84768e-05
-3.82277e-05
-0.000135608
-9.09123e-05
-2.98749e-06
3.94136e-05
1.87066e-05
-5.52862e-05
2.8974e-05
-0.000126384
4.52969e-05
-0.000173855
9.45258e-06
-4.92378e-05
-8.09398e-06
6.07335e-05
-1.74534e-06
5.51627e-06
-1.50303e-07
1.01217e-06
-7.60109e-08
4.02612e-08
-1.04285e-07
1.71367e-08
-1.36048e-07
1.61462e-08
-1.82944e-07
9.67874e-10
-2.94418e-07
-6.04993e-08
-5.21141e-07
-2.27745e-07
-1.13557e-06
-4.98305e-07
-2.52007e-06
-1.30333e-06
-1.39001e-05
-7.12929e-06
-3.95777e-05
-0.00011329
-0.000132944
6.25838e-06
3.31608e-05
2.89664e-05
-7.79897e-05
4.0967e-05
-0.000138384
4.94404e-05
-0.000182328
1.37698e-05
-6.386e-05
-1.91377e-07
6.96557e-05
-7.21405e-07
5.94387e-06
-3.66027e-08
3.11559e-07
-3.13885e-08
2.23501e-08
-5.1281e-08
2.14323e-08
-6.37507e-08
2.1467e-08
-9.09611e-08
1.55817e-08
-1.35984e-07
-3.57014e-08
-2.29796e-07
-1.60781e-07
-3.83711e-07
-3.902e-07
-9.95932e-07
-7.32166e-07
-4.40837e-06
-3.75684e-06
-3.63177e-05
-8.42703e-05
-0.000171822
1.79225e-05
1.52445e-05
3.91563e-05
-9.9211e-05
4.75487e-05
-0.000146776
5.0125e-05
-0.000184904
1.46229e-05
-6.31085e-05
-2.90302e-07
6.97972e-05
-1.99537e-07
5.80897e-06
-1.24326e-08
1.11558e-07
-2.14797e-08
1.93427e-08
-4.47302e-08
3.17136e-08
-9.5792e-08
5.72473e-08
-2.86461e-07
4.55913e-08
-2.99288e-07
-3.17638e-07
-2.00081e-07
-4.55786e-07
-3.27204e-07
-3.76282e-07
-6.25552e-07
-4.83631e-07
-2.49403e-06
-1.97026e-06
-3.08441e-05
-5.98825e-05
-0.000205325
3.20963e-05
-1.68515e-05
4.78632e-05
-0.000114983
4.92084e-05
-0.000148121
4.64522e-05
-0.000182148
1.25357e-05
-5.70947e-05
-7.94768e-07
6.47175e-05
-4.69233e-08
5.02204e-06
-6.62719e-09
5.91681e-08
-1.73857e-08
2.09501e-08
-5.11689e-08
5.35638e-08
-2.13933e-07
1.46212e-07
-4.91445e-07
1.10891e-08
-3.89184e-07
-3.90162e-07
-2.40312e-07
-5.84943e-07
-1.91279e-07
-5.50043e-07
-3.18275e-07
-3.64671e-07
-1.51438e-06
-7.78227e-07
-2.4036e-05
-4.17289e-05
-0.000232091
4.4822e-05
-6.16797e-05
5.19431e-05
-0.00012211
4.72443e-05
-0.000143422
4.09253e-05
-0.000175828
1.02314e-05
-4.61665e-05
-8.02359e-07
6.15409e-05
-5.49966e-09
3.80966e-06
-5.54438e-09
5.05635e-08
-1.40598e-08
2.44252e-08
-3.65192e-08
6.74823e-08
-4.12428e-07
3.18535e-07
-3.45709e-07
-4.5072e-08
-2.76628e-07
-4.30411e-07
-2.19967e-07
-6.08578e-07
-1.23103e-07
-6.48784e-07
-9.89088e-08
-3.92833e-07
-5.86346e-07
-2.81087e-07
-1.52452e-05
-3.17256e-05
-0.000250192
1.97154e-05
-1.18051e-05
3.13402e-05
-1.07442e-05
3.07773e-05
-7.23779e-07
2.79399e-05
-1.88136e-06
2.70214e-05
-2.55626e-06
2.68925e-05
-3.14811e-06
2.5817e-05
-4.227e-06
2.46425e-05
-4.49399e-06
2.53609e-05
-3.90002e-06
2.72141e-05
-2.45183e-06
2.86281e-05
-3.67365e-07
2.88232e-05
2.83732e-06
2.82014e-05
5.21117e-06
2.75543e-05
5.98981e-06
2.72343e-05
5.92429e-06
2.66049e-05
6.75752e-06
2.68743e-05
6.13137e-06
2.90056e-05
4.34437e-06
3.2482e-05
3.69178e-06
3.73854e-05
3.22074e-06
4.59602e-05
3.03002e-06
5.934e-05
1.67744e-06
8.60111e-06
8.84974e-05
2.44289e-06
-3.87109e-12
6.24027e-07
-6.14435e-10
-9.42183e-08
-1.27723e-09
-1.97786e-06
1.79127e-09
-2.31936e-06
-5.55804e-14
-2.33331e-06
-1.17178e-12
-2.87852e-06
-1.96913e-11
-3.30419e-06
-2.69618e-10
-2.76539e-06
-3.22903e-09
-7.7725e-07
-3.49705e-08
3.6543e-06
-3.10043e-07
1.15692e-05
-1.32843e-06
2.187e-05
-1.31592e-06
2.88951e-05
9.54852e-07
3.08336e-05
3.9857e-06
2.87127e-05
8.87848e-06
2.78269e-05
7.01719e-06
2.99657e-05
2.20552e-06
3.29676e-05
6.89917e-07
3.69724e-05
-7.84102e-07
4.34508e-05
-3.44834e-06
5.14205e-05
-6.2923e-06
-7.70183e-06
6.77246e-05
-3.74524e-12
-2.34839e-13
-6.11802e-10
-5.91023e-12
-1.78531e-09
3.5112e-12
-1.46226e-15
5.96045e-12
-5.71985e-14
-3.68715e-17
-1.2285e-12
-1.05024e-15
-2.08921e-11
-3.53231e-14
-2.90556e-10
-1.09776e-14
-3.51965e-09
-4.82273e-14
-3.84881e-08
-2.30066e-12
-3.48455e-07
-7.66251e-11
-1.67558e-06
-1.31702e-09
-2.65653e-06
-1.82605e-08
-2.09645e-06
-1.82092e-07
9.36825e-07
-1.02841e-06
9.50776e-06
-6.85116e-07
2.13902e-05
-1.33652e-06
3.4049e-05
-3.36131e-06
3.75481e-05
-1.59275e-06
3.9905e-05
-2.82767e-06
4.53306e-05
-8.8736e-06
5.2546e-05
-1.35071e-05
-1.66838e-05
6.15297e-05
-3.50347e-13
-4.90138e-16
-1.15111e-11
-7.59065e-14
-5.95432e-12
8.65599e-14
-6.50924e-18
5.94553e-15
-1.26157e-16
-5.3274e-17
-1.33699e-15
8.11929e-17
-3.69369e-14
1.12409e-16
-4.91259e-14
4.09008e-16
-7.44227e-14
-1.32812e-15
-2.47614e-12
-1.07555e-14
-7.92076e-11
-1.19829e-13
-1.39558e-09
-7.86232e-13
-1.96559e-08
-3.10316e-13
-2.01729e-07
-2.31457e-11
-1.22919e-06
-9.54554e-10
-1.92922e-06
-2.85705e-09
-3.11288e-06
-1.69057e-09
-3.21462e-06
-6.31366e-10
9.23764e-07
-4.75888e-09
9.8954e-06
-7.4095e-08
2.33969e-05
-1.236e-06
3.61926e-05
-7.28883e-06
-8.69144e-06
4.23524e-05
-1.90558e-15
3.24108e-20
-9.97829e-14
-3.91977e-16
-3.29759e-16
5.32578e-16
2.19474e-15
1.00242e-16
-4.29352e-18
1.05342e-17
-1.28678e-17
1.03718e-17
-4.65519e-18
2.48015e-17
9.75771e-17
1.13347e-16
1.49372e-14
6.5449e-15
2.93715e-13
3.37309e-13
2.85567e-13
5.26368e-13
-1.14876e-13
-5.03475e-13
-9.72717e-13
-4.92904e-14
-3.07806e-11
-7.27836e-14
-1.0578e-10
-8.83594e-10
-1.28619e-10
-2.83469e-09
-1.46187e-10
-1.64695e-09
-4.2945e-10
-2.88325e-10
-4.85037e-09
-2.5441e-10
-7.80344e-08
-5.18132e-10
-1.31064e-06
-3.11518e-09
-1.07328e-06
-3.56221e-09
-8.85419e-10
-1.97929e-06
-2.39269e-18
1.56091e-21
-4.95526e-16
-7.62708e-20
-5.55214e-17
2.47309e-18
-7.23754e-18
2.14347e-18
-3.23993e-17
1.95844e-17
-2.3575e-17
5.65291e-17
4.70063e-17
5.15372e-17
-6.55352e-16
7.50253e-16
-7.03859e-13
1.30933e-13
-1.68004e-12
4.37779e-14
5.43786e-13
-1.23401e-12
3.21318e-13
-8.29666e-13
2.28592e-13
-4.55963e-15
-4.02435e-12
3.64404e-14
-4.99586e-10
-1.73461e-10
-5.49014e-10
-1.46018e-09
-4.32736e-10
-7.08497e-10
-2.11599e-10
-2.98479e-10
-1.11764e-10
-4.08243e-10
-1.32637e-10
-5.03722e-10
-2.41031e-10
-3.03646e-09
-5.35378e-10
-3.34287e-09
-1.18878e-10
-1.32581e-09
-2.474e-20
3.86295e-23
-2.25856e-18
-4.33223e-22
-1.84194e-18
1.21897e-19
-8.31316e-18
5.65119e-18
-3.48584e-17
3.55216e-17
-3.48432e-17
8.5371e-17
5.24639e-18
1.07008e-16
6.13869e-16
2.52391e-16
-4.75339e-13
1.57384e-13
-2.19036e-12
6.01497e-13
-2.70218e-12
-2.58748e-13
-5.17228e-14
-1.16869e-12
-7.18829e-14
-8.63766e-15
-6.58146e-14
-1.37475e-15
-6.69955e-11
-6.38316e-14
-2.33367e-10
-3.81535e-15
-1.13099e-10
-2.24404e-12
4.00899e-11
-1.56805e-11
-2.68052e-10
-1.41755e-09
1.44198e-09
-7.15368e-09
3.25142e-09
-1.49227e-08
3.60983e-09
-1.18734e-08
1.14598e-09
1.16071e-09
-6.61189e-24
1.31861e-24
-3.21323e-21
-3.54047e-23
-3.96634e-19
6.37854e-20
-7.2927e-18
3.71464e-18
-2.75645e-17
3.35564e-17
-3.38147e-17
8.37204e-17
-2.80341e-17
1.15758e-16
2.19125e-16
1.17408e-16
-9.66008e-15
1.63486e-16
-1.40488e-12
4.27798e-14
-1.16717e-12
-3.30125e-14
-1.2909e-14
-2.14278e-14
-1.7409e-14
-2.85654e-14
4.05764e-16
-4.27768e-14
1.25023e-17
-7.58974e-14
-9.37256e-15
-6.95945e-15
-2.23755e-12
-2.83228e-14
-1.55069e-11
-2.55277e-12
-3.50945e-10
-1.63213e-09
8.2518e-10
-1.15943e-08
5.28489e-09
-1.93132e-08
1.08591e-08
-1.73716e-08
-6.29562e-09
8.51761e-09
-2.55702e-25
1.36368e-24
-2.39492e-22
-6.77377e-24
-7.91202e-20
5.64899e-21
-2.85406e-18
9.66105e-19
-1.71811e-17
1.52907e-17
-2.71881e-17
6.35074e-17
-1.85319e-17
1.0776e-16
-7.97624e-18
1.1219e-16
-1.25871e-15
1.38415e-16
-4.31585e-14
8.35647e-17
-8.22362e-16
7.41211e-16
-2.32483e-14
-5.80681e-16
-5.40168e-14
-1.12197e-14
-2.47135e-14
-1.11279e-13
-5.48411e-16
-8.58048e-14
-2.69566e-16
-3.63885e-15
-3.93437e-15
-2.02246e-14
5.23807e-12
-7.82922e-12
1.35031e-11
-4.47574e-10
-4.71053e-10
-9.08807e-10
4.0031e-10
-2.01135e-08
3.61149e-09
-2.05076e-08
-9.51158e-09
6.89852e-09
-3.2262e-24
-5.87145e-23
-2.11445e-23
6.18721e-24
-1.25308e-20
9.15543e-22
-5.45645e-19
1.8531e-19
-5.26811e-18
3.32363e-18
-1.97946e-17
2.43523e-17
-2.32158e-17
1.01086e-16
-1.10653e-17
1.41829e-16
-1.63734e-18
1.32062e-16
-1.88154e-18
7.52217e-17
-4.81145e-17
-2.47145e-16
-1.70313e-16
-2.07094e-15
-3.75682e-14
-1.52711e-14
-2.31275e-14
-7.06647e-14
-6.36829e-15
-3.35478e-14
4.99413e-15
-4.66148e-16
-1.5195e-14
-1.02235e-16
-1.18196e-11
-3.70616e-14
-3.04241e-13
-2.79524e-12
-8.97041e-10
-2.23244e-11
-5.65008e-09
-2.72532e-09
-6.98352e-09
-1.91031e-08
-1.24359e-08
-1.65549e-09
6.09739e-24
-1.19072e-22
-2.83873e-22
1.44835e-23
-2.37534e-21
1.75352e-22
-1.03079e-19
4.32432e-20
-1.12158e-18
7.39017e-19
-9.13501e-18
6.26999e-18
-2.57229e-17
4.70279e-17
-2.09459e-17
1.31309e-16
-4.14595e-17
1.49688e-16
-1.86973e-16
1.16293e-15
-1.98315e-15
3.86947e-15
-4.78418e-15
-5.86885e-16
-3.19753e-14
-1.09273e-14
-1.74742e-14
-3.67457e-16
-1.28596e-15
-1.15864e-15
-2.60396e-17
-2.70535e-16
-1.26787e-16
-3.47872e-17
-3.63004e-14
-9.54785e-16
-2.7458e-12
-8.83626e-14
-2.15063e-11
-3.74787e-12
-3.5608e-09
-1.29873e-10
-1.37195e-08
-9.77229e-09
-1.74819e-08
-5.73992e-09
1.50664e-23
-1.50942e-22
-4.17151e-23
5.64708e-24
-4.30431e-22
2.41865e-23
-1.92188e-20
8.83216e-21
-2.29044e-19
1.61656e-19
-4.1912e-18
1.59481e-18
-2.48238e-17
2.09731e-17
-2.78661e-17
7.08854e-17
-7.5349e-17
8.41443e-17
-1.56059e-15
1.18408e-15
-1.2102e-14
6.12134e-15
-1.49862e-14
4.92501e-15
-2.13855e-16
-2.2525e-15
-2.77878e-16
-1.16263e-16
-2.89329e-16
-1.92611e-16
-2.81326e-17
-1.41598e-16
-3.46135e-17
-1.73972e-17
-8.41727e-16
-1.0775e-16
-7.86314e-14
-1.24538e-14
-3.27632e-12
-6.51792e-13
-1.09979e-10
-2.73365e-11
-1.44414e-08
-1.44323e-09
-6.21447e-09
-2.44727e-08
1.01294e-23
-1.51408e-22
-2.31022e-24
-3.14746e-24
-6.36162e-23
8.89657e-24
-3.75788e-21
1.47349e-21
-4.50646e-20
3.2099e-20
-1.11306e-18
3.01107e-19
-1.08984e-17
4.97436e-18
-2.04578e-17
2.73621e-17
-6.02435e-17
6.38509e-17
-3.4803e-15
5.50904e-16
-1.81688e-14
7.63469e-15
-1.35116e-14
7.89099e-15
-4.92359e-16
3.08158e-16
-3.44289e-16
-8.79719e-17
-2.66464e-16
-9.65147e-17
-2.58735e-17
-3.83312e-17
-1.51412e-17
-6.25059e-18
-1.21863e-16
-2.1438e-18
-1.25535e-14
-3.79891e-17
-6.63135e-13
-1.76076e-15
-2.79547e-11
-6.01491e-14
-5.37895e-09
-1.41771e-12
-2.52371e-11
-9.86988e-09
6.11457e-24
-1.35023e-22
7.5802e-24
-9.91489e-24
-1.62451e-22
-3.67869e-23
-6.6297e-22
1.7129e-22
-8.15863e-21
5.32986e-21
-1.87491e-19
5.37834e-20
-2.90068e-18
9.94275e-19
-1.12119e-17
9.1387e-18
-5.96044e-17
4.40685e-17
-2.15656e-15
2.41224e-16
-7.70193e-15
1.30223e-15
-2.24314e-15
1.3441e-15
-1.25977e-15
2.04786e-16
-6.0804e-16
1.2246e-16
-1.39886e-16
-2.52176e-18
-1.90206e-17
-5.7687e-18
-4.5766e-18
-1.52395e-18
-6.4949e-18
-9.98734e-19
-4.00614e-17
-5.53805e-18
-1.79394e-15
-2.26427e-17
-6.21104e-14
-2.7595e-16
-1.48348e-12
-4.17269e-15
-2.5669e-14
-2.68296e-11
3.60493e-24
-1.09776e-22
1.52619e-23
-1.2246e-23
-1.6899e-23
-8.8006e-23
-7.67679e-23
9.96905e-24
-1.37638e-21
6.84681e-22
-3.69169e-20
1.15326e-20
-7.25451e-19
2.5089e-19
-6.41757e-18
3.28218e-18
-4.31003e-17
2.16725e-17
-2.87593e-16
4.89309e-17
-4.66192e-16
3.0414e-17
-5.88036e-16
2.7847e-17
-8.64048e-16
1.41304e-16
-3.98673e-16
2.57561e-16
-6.91491e-17
2.94055e-17
-9.18066e-18
2.60993e-18
-4.87214e-18
2.33096e-19
-1.14603e-17
9.93989e-20
-5.21251e-17
1.54435e-19
-1.16093e-16
1.20792e-18
-2.84685e-16
1.10261e-17
-9.24537e-15
8.3486e-17
1.13058e-15
-1.15673e-13
1.98343e-24
-8.1088e-23
1.1309e-23
-1.05546e-23
-4.35014e-25
-7.31803e-23
-4.44794e-24
2.38431e-24
-1.93462e-22
6.31318e-23
-6.30266e-21
2.3263e-21
-2.38295e-19
6.0939e-20
-6.25042e-18
1.34941e-18
-2.21717e-17
1.07551e-17
-8.86573e-18
1.28177e-17
-1.21968e-17
7.4888e-18
-1.07357e-16
4.69157e-18
-1.76911e-16
1.81577e-17
-7.44238e-17
1.94481e-17
-2.09887e-17
4.85832e-18
-2.67096e-18
1.56975e-18
-1.59408e-18
2.22899e-19
-4.34548e-18
1.48457e-19
-3.65341e-17
1.93217e-18
-1.52319e-16
1.76156e-17
-4.37021e-16
7.12095e-17
-1.80868e-15
3.17684e-16
1.52108e-15
-7.82233e-15
1.02443e-24
-5.39795e-23
6.94805e-24
-7.23775e-24
2.35669e-24
-4.89493e-23
-8.00136e-24
-1.33939e-23
-2.55816e-23
4.7396e-24
-1.21948e-21
4.77857e-22
-5.30182e-20
1.21238e-20
-1.73091e-18
2.14399e-19
-7.29052e-18
1.87625e-18
-8.12316e-18
4.15776e-18
-5.7079e-18
6.95855e-18
-4.97501e-18
2.92463e-18
-5.94728e-18
9.74447e-19
-6.66808e-18
2.95713e-19
-3.63921e-18
4.57996e-19
-7.13024e-19
2.42538e-19
-2.92509e-19
7.14473e-20
-4.40662e-19
4.37033e-20
-5.43199e-18
2.94812e-19
-6.82674e-17
5.73138e-18
-4.98652e-16
8.49861e-17
-2.28686e-15
5.90442e-16
2.58735e-15
-7.80206e-15
4.67051e-25
-3.21004e-23
3.61929e-24
-4.05564e-24
2.23315e-24
-2.7291e-23
-7.35616e-25
-1.31615e-23
-4.76849e-24
4.37133e-25
-3.30864e-22
9.51414e-23
-7.07688e-21
2.01873e-21
-1.06085e-19
1.64491e-20
-7.16499e-19
1.07889e-19
-2.39127e-18
4.60418e-19
-2.79593e-18
1.25074e-18
-1.68872e-18
1.75343e-18
-3.86301e-19
3.51669e-19
-1.61976e-19
7.05624e-20
-1.11445e-19
7.24285e-21
-7.1326e-20
3.22725e-21
-7.11725e-20
6.4549e-21
-1.1705e-19
1.38679e-20
-1.54093e-18
1.86742e-19
-2.14241e-17
2.92846e-18
-2.20481e-16
3.3867e-17
-1.43186e-15
3.18549e-16
1.93784e-15
-5.40311e-15
1.80044e-25
-1.69187e-23
1.56689e-24
-1.85285e-24
1.1479e-24
-1.25597e-23
-7.43095e-26
-7.04299e-24
-6.91066e-25
3.87302e-26
-5.45759e-23
1.15912e-23
-1.04949e-21
2.88166e-22
-1.37137e-20
3.04673e-21
-1.01589e-19
2.11492e-20
-2.8929e-19
6.90336e-20
-4.12236e-19
1.02652e-19
-2.85311e-19
1.12633e-19
-1.24172e-19
5.66437e-20
-1.25417e-20
2.77845e-20
-1.29526e-21
1.2522e-21
-1.32021e-21
8.17357e-23
-1.83364e-21
5.71152e-23
-2.39593e-20
2.20156e-21
-5.73446e-19
8.78869e-20
-7.54002e-18
1.53801e-18
-7.09642e-17
1.57998e-17
-5.46944e-16
1.24753e-16
8.26854e-16
-2.62744e-15
5.61532e-26
-7.84861e-24
5.50035e-25
-6.78486e-25
4.36811e-25
-4.70565e-24
-5.59776e-27
-2.81147e-24
-5.58993e-26
2.69304e-26
-5.70552e-24
9.57504e-25
-1.56637e-22
3.63996e-23
-2.83634e-21
5.50666e-22
-1.88676e-20
3.98761e-21
-3.39326e-20
9.5856e-21
-3.6749e-20
1.00534e-20
-2.64352e-20
7.33648e-21
-1.24502e-20
4.58991e-21
-1.86489e-21
1.65583e-21
-1.14438e-22
2.55516e-22
-4.00111e-23
6.88032e-24
-1.08377e-22
7.35202e-24
-5.95651e-21
7.62972e-22
-1.97157e-19
3.26846e-20
-3.03665e-18
7.32737e-19
-2.60632e-17
8.21515e-18
-1.82801e-16
5.75622e-17
3.43162e-16
-9.82898e-16
1.36078e-26
-3.18638e-24
1.52563e-25
-1.93483e-25
1.28606e-25
-1.40196e-24
1.39234e-26
-8.76112e-25
-1.33106e-25
-7.1159e-26
-5.57516e-25
6.48914e-26
-2.26733e-23
3.92297e-24
-3.69587e-22
6.28157e-23
-1.8289e-21
3.31689e-22
-2.8188e-21
7.01339e-22
-3.09284e-21
8.29361e-22
-2.43426e-21
7.85863e-22
-1.04699e-21
4.89259e-22
-1.82102e-22
1.39133e-22
-1.53421e-24
2.05085e-23
-1.76385e-24
2.45241e-24
-1.79058e-23
1.82121e-24
-1.36565e-21
1.96034e-22
-6.1366e-20
1.09041e-20
-1.18393e-18
3.12062e-19
-1.01965e-17
4.04365e-18
-6.56065e-17
2.91431e-17
1.95117e-16
-3.92233e-16
2.43889e-27
-1.12758e-24
3.24455e-26
-4.12158e-26
2.89309e-26
-3.23426e-25
6.45275e-27
-2.10825e-25
-8.35544e-27
-3.53869e-26
-4.27557e-26
2.88762e-27
-2.37361e-24
2.72753e-25
-3.14617e-23
4.76819e-24
-1.30764e-22
2.33015e-23
-2.29101e-22
5.22643e-23
-2.59689e-22
7.12544e-23
-2.28451e-22
7.58415e-23
-8.32231e-23
4.38322e-23
-8.58596e-24
1.33364e-23
1.03167e-23
1.60577e-24
-1.38771e-24
-1.49531e-23
-2.27662e-24
1.95367e-24
-2.71726e-22
3.83576e-23
-1.69373e-20
3.20219e-21
-4.02326e-19
1.16826e-19
-3.53151e-18
1.834e-18
-2.58794e-17
1.54203e-17
1.39577e-16
-2.86932e-16
3.0306e-28
-3.4722e-25
5.13541e-27
-6.18118e-27
4.92425e-27
-5.62552e-26
1.39543e-27
-3.88896e-26
-3.14241e-28
-8.30531e-27
-1.90181e-27
6.66316e-29
-1.47446e-25
1.03771e-26
-2.0526e-24
2.34752e-25
-8.67246e-24
1.35588e-24
-1.62637e-23
3.29836e-24
-1.83532e-23
4.52965e-24
-1.46607e-23
4.02148e-24
-4.42705e-24
3.02885e-24
7.93124e-24
9.78149e-25
1.24726e-23
-1.39692e-23
4.20199e-24
-2.11522e-23
-2.18414e-23
-6.9687e-24
-4.85371e-23
8.08545e-24
-3.99844e-21
8.43493e-22
-1.26268e-19
3.95324e-20
-1.31723e-18
8.11122e-19
-1.06225e-17
8.39108e-18
8.92598e-17
-1.69307e-16
2.36155e-29
-9.31305e-26
5.85579e-28
-5.9399e-28
6.27544e-28
-7.1652e-27
1.95971e-28
-5.45556e-27
-8.22773e-30
-1.28281e-27
-4.58031e-29
1.16122e-30
-5.15035e-27
2.04664e-28
-8.83872e-26
6.49193e-27
-4.14947e-25
4.48284e-26
-7.59725e-25
1.08097e-25
-7.23405e-25
1.18235e-25
-4.64698e-25
3.82694e-25
2.31861e-24
2.45542e-25
6.16624e-24
-4.95165e-24
7.60406e-24
-1.25832e-23
3.79187e-24
-1.50381e-23
-4.22204e-24
-7.37741e-24
-8.787e-24
1.99466e-24
-8.68577e-22
2.32306e-22
-3.46714e-20
1.33671e-20
-4.58085e-19
3.42299e-19
-4.74508e-18
4.44664e-18
5.96579e-17
-1.02865e-16
9.84746e-31
-2.18379e-26
4.68081e-29
-3.16261e-29
5.95969e-29
-6.52303e-28
1.95714e-29
-5.80551e-28
-1.44465e-31
-1.43092e-28
-5.74059e-31
8.45362e-31
-1.0409e-28
2.23246e-30
-2.54381e-27
9.09223e-29
-1.07879e-26
6.40071e-28
-8.48139e-27
5.27432e-27
-6.41934e-27
3.32222e-26
3.60699e-25
1.55756e-26
1.40493e-24
-9.36983e-25
2.70137e-24
-3.45958e-24
3.04669e-24
-6.39296e-24
1.63779e-24
-7.02692e-24
-9.16628e-25
-3.73691e-24
-1.80912e-24
5.6228e-25
-2.23105e-22
7.64021e-23
-1.13144e-20
5.45017e-21
-1.72692e-19
1.64954e-19
-1.94141e-18
2.21098e-18
2.80973e-17
-4.73392e-17
2.84666e-32
-4.5032e-27
2.82149e-30
-1.25852e-30
4.40901e-30
-4.57705e-29
1.50526e-30
-4.90522e-29
3.97457e-32
-1.25044e-29
-2.85204e-31
-2.63982e-31
-1.19439e-30
1.58244e-30
-2.73113e-29
4.89397e-29
-7.62632e-29
3.06115e-28
4.66359e-27
5.34468e-28
3.5184e-26
-1.60878e-26
1.71286e-25
-1.12406e-25
4.78089e-25
-5.13815e-25
8.16766e-25
-1.36575e-24
8.79091e-25
-2.25269e-24
4.75108e-25
-2.37439e-24
-2.20265e-25
-1.27557e-24
-4.11335e-25
1.6597e-25
-6.21499e-23
2.48345e-23
-4.38409e-21
2.17685e-21
-7.74912e-20
8.09767e-20
-6.91178e-19
1.04165e-18
8.37204e-18
-1.20193e-17
5.81655e-34
-8.22311e-28
1.36379e-31
-4.32271e-32
2.66423e-31
-2.64659e-30
9.68725e-32
-3.45308e-30
4.43701e-32
-9.30521e-31
3.72407e-31
-3.40278e-31
2.67495e-30
-2.38532e-30
2.49622e-29
-1.47643e-29
2.53329e-28
-1.21602e-28
2.30279e-27
-1.11033e-27
1.22491e-26
-9.23221e-27
4.59911e-26
-4.56008e-26
1.13895e-25
-1.6136e-25
1.83635e-25
-3.8185e-25
1.9252e-25
-5.96697e-25
1.02417e-25
-6.15022e-25
-4.81683e-26
-3.2681e-25
-8.54104e-26
4.05081e-26
-1.41361e-23
6.21302e-24
-1.44445e-21
6.39857e-22
-3.53498e-20
3.17577e-20
-2.53788e-19
4.50705e-19
2.53246e-18
-1.87433e-18
3.10883e-36
-1.33843e-28
5.51227e-33
-1.37907e-33
1.36842e-32
-1.32174e-31
6.00491e-33
-2.10666e-31
1.54563e-32
-6.78482e-32
1.66405e-31
-1.39313e-31
1.48856e-30
-1.25209e-30
1.21414e-29
-9.65721e-30
9.01123e-29
-6.96488e-29
5.72923e-28
-4.65963e-28
2.65072e-27
-2.71822e-27
8.93521e-27
-1.17196e-26
2.07301e-26
-3.73596e-26
3.22193e-26
-8.31315e-26
3.31762e-26
-1.25783e-25
1.72395e-26
-1.27978e-25
-8.0286e-27
-6.67627e-26
-1.37769e-26
7.19533e-27
-2.28319e-24
1.09025e-24
-3.14635e-22
1.26057e-22
-1.14875e-20
8.44417e-21
-9.29638e-20
1.55337e-19
8.90651e-19
-3.29353e-19
-7.65058e-32
-1.95125e-29
1.90062e-34
-3.32622e-33
6.21103e-34
-5.89434e-33
4.48787e-34
-1.15341e-32
3.30491e-33
-6.06578e-33
3.7923e-32
-3.56195e-32
3.50751e-31
-3.40982e-31
2.73696e-30
-2.7237e-30
1.82064e-29
-1.88228e-29
1.0063e-28
-1.13318e-28
4.28274e-28
-5.77057e-28
1.35245e-27
-2.29956e-27
2.99877e-27
-6.90351e-27
4.52767e-27
-1.47753e-26
4.58772e-27
-2.18764e-26
2.29069e-27
-2.20661e-26
-1.01626e-27
-1.11628e-26
-1.6549e-27
1.05326e-27
-2.59517e-25
1.38313e-25
-4.47368e-23
1.8009e-23
-2.28677e-21
1.58603e-21
-2.29282e-20
3.82435e-20
2.64606e-19
-6.59708e-20
-2.42236e-32
-2.5573e-30
5.53674e-36
-1.3037e-33
2.59689e-35
-2.40918e-34
4.26223e-35
-5.90875e-34
5.00511e-34
-6.98012e-34
5.84867e-33
-6.52561e-33
5.4551e-32
-6.36059e-32
4.16192e-31
-5.12683e-31
2.62607e-30
-3.47696e-30
1.35393e-29
-1.99625e-29
5.46067e-29
-9.54791e-29
1.64755e-28
-3.63508e-28
3.52874e-28
-1.05364e-27
5.19343e-28
-2.20189e-27
5.14652e-28
-3.21362e-27
2.39724e-28
-3.2213e-27
-9.84451e-29
-1.5477e-27
-1.45656e-28
1.24758e-28
-1.9883e-26
1.31057e-26
-4.15066e-24
1.88939e-24
-2.72968e-22
2.23253e-22
-2.91718e-21
6.96904e-21
5.63651e-20
-5.7105e-21
-4.56488e-33
-3.02167e-31
1.32572e-37
-2.77556e-34
1.06739e-36
-9.24527e-36
4.1888e-36
-3.00254e-35
5.80125e-35
-8.32689e-35
6.85698e-34
-9.14957e-34
6.40999e-33
-8.97291e-33
4.83807e-32
-7.2646e-32
2.97384e-31
-4.89647e-31
1.4772e-30
-2.7565e-30
5.75119e-30
-1.28203e-29
1.68185e-29
-4.76967e-29
3.49468e-29
-1.3577e-28
4.98863e-29
-2.8018e-28
4.79662e-29
-4.05736e-28
1.99233e-29
-4.04771e-28
-7.02977e-30
-1.7954e-28
-9.16112e-30
1.14745e-29
-9.23861e-28
9.75165e-28
-2.00553e-25
1.40193e-25
-1.31156e-23
2.30918e-23
7.56757e-24
1.00554e-21
9.5209e-21
1.52715e-21
-6.7663e-34
-3.22424e-32
2.29395e-39
-4.45167e-35
4.67967e-38
-3.423e-37
3.74618e-37
-1.61353e-36
5.55913e-36
-8.87512e-36
6.65798e-35
-1.03279e-34
6.25861e-34
-1.01732e-33
4.71853e-33
-8.28011e-33
2.86903e-32
-5.58852e-32
1.39925e-31
-3.13114e-31
5.33833e-31
-1.44274e-30
1.52617e-30
-5.32247e-30
3.09312e-30
-1.50519e-29
4.28434e-30
-3.09202e-29
3.94799e-30
-4.46558e-29
1.38146e-30
-4.43736e-29
-4.19407e-31
-1.75293e-29
-4.55424e-31
9.98816e-31
-2.43634e-29
6.83568e-29
-1.37064e-27
8.60805e-27
4.85735e-25
1.91543e-24
5.07588e-23
1.22064e-22
1.39175e-21
7.16609e-22
-8.49226e-35
-3.10777e-33
-3.38548e-39
-5.95522e-36
2.27739e-39
-1.26966e-38
3.00855e-38
-9.43381e-38
4.70581e-37
-8.18653e-37
5.73099e-36
-9.77736e-36
5.47258e-35
-9.68821e-35
4.1572e-34
-7.94129e-34
2.53511e-33
-5.39273e-33
1.23409e-32
-3.0324e-32
4.68608e-32
-1.39882e-31
1.32901e-31
-5.16349e-31
2.66243e-31
-1.46131e-30
3.62598e-31
-3.00369e-30
3.23577e-31
-4.34157e-30
9.24087e-32
-4.29698e-30
-2.866e-32
-1.44527e-30
-2.52177e-32
9.33757e-32
-4.14769e-31
5.64521e-30
1.73218e-28
6.25802e-28
9.67865e-26
1.62845e-25
1.02267e-23
1.36756e-23
1.79418e-22
1.52441e-22
-9.05708e-36
-2.70497e-34
-4.01225e-39
-6.84666e-37
1.21575e-40
-6.21137e-40
2.22185e-39
-5.82971e-39
3.67174e-38
-6.60504e-38
4.5742e-37
-8.02099e-37
4.4521e-36
-8.00999e-36
3.43912e-35
-6.62415e-35
2.12777e-34
-4.53978e-34
1.04898e-33
-2.57459e-33
4.03054e-33
-1.1962e-32
1.15669e-32
-4.44238e-32
2.34088e-32
-1.2634e-31
3.22749e-32
-2.60662e-31
2.89117e-32
-3.77804e-31
6.73255e-33
-3.72041e-31
-2.88425e-33
-1.00715e-31
-2.67117e-33
8.79643e-33
-4.74329e-32
5.62466e-31
1.25576e-29
6.15546e-29
9.05016e-27
1.6817e-26
1.23573e-24
1.52687e-24
2.0744e-23
2.07557e-23
-8.22959e-37
-2.12531e-35
-6.46256e-40
-6.81923e-38
6.64551e-42
-4.94133e-41
1.51875e-40
-3.6173e-40
2.64336e-39
-4.74855e-39
3.38024e-38
-5.84714e-38
3.36236e-37
-5.89422e-37
2.65259e-36
-4.92508e-36
1.67655e-35
-3.41363e-35
8.44946e-35
-1.95848e-34
3.31995e-34
-9.19832e-34
9.74306e-34
-3.44787e-33
2.02177e-33
-9.8778e-33
2.866e-33
-2.04899e-32
2.64772e-33
-2.98219e-32
4.86107e-34
-2.9158e-32
-3.59647e-34
-5.91731e-33
-3.9698e-34
7.54399e-34
-1.51744e-32
5.87963e-32
-1.09822e-30
7.50353e-30
4.58415e-28
1.92034e-27
9.52864e-26
1.60663e-25
2.11035e-24
1.87669e-24
-6.40402e-38
-1.50811e-36
-6.72826e-41
-5.93772e-39
3.55599e-43
-4.68392e-42
9.47409e-42
-2.17014e-41
1.72813e-40
-3.09426e-40
2.26622e-39
-3.85958e-39
2.30376e-38
-3.93213e-38
1.8587e-37
-3.32372e-37
1.20283e-36
-2.33345e-36
6.21218e-36
-1.35716e-35
2.50178e-35
-6.45855e-35
7.52556e-35
-2.44841e-34
1.60387e-34
-7.07705e-34
2.34398e-34
-1.47753e-33
2.2178e-34
-2.1613e-33
2.92303e-35
-2.09394e-33
-4.02782e-35
-2.90838e-34
-4.88535e-35
5.43959e-35
-3.17817e-33
5.47934e-33
-7.4378e-31
8.53973e-31
-1.19833e-28
1.81576e-28
2.34464e-27
1.32778e-26
1.73774e-25
9.52924e-26
-4.30526e-39
-9.67969e-38
-5.35284e-42
-4.56599e-40
1.78856e-44
-4.04834e-43
5.32114e-43
-1.236e-42
1.01212e-41
-1.8526e-41
1.35816e-40
-2.33921e-40
1.40417e-39
-2.40966e-39
1.16154e-38
-2.0636e-38
7.69166e-38
-1.46892e-37
4.06447e-37
-8.67335e-37