/*--------------------------------*- C++ -*----------------------------------*\
| =========                 |                                                 |
| \\      /  F ield         | OpenFOAM: The Open Source CFD Toolbox           |
|  \\    /   O peration     | Version:  2206                                  |
|   \\  /    A nd           | Website:  www.openfoam.com                      |
|    \\/     M anipulation  |                                                 |
\*---------------------------------------------------------------------------*/
FoamFile
{
    version     2.0;
    format      ascii;
    arch        "LSB;label=32;scalar=64";
    class       volScalarField;
    location    "0.4";
    object      p_rgh;
}
// * * * * * * * * * * * * * * * * * * * * * * * * * * * * * * * * * * * * * //

dimensions      [1 -1 -2 0 0 0 0];

internalField   nonuniform List<scalar> 
2268
(
1474.54
1475.19
1476.47
1478.24
1480.47
1483.34
1486.84
1490.9
1495.45
1500.38
1505.62
1511.03
1516.51
1521.93
1527.15
1532.05
1536.46
1540.26
1543.27
1545.4
1546.46
1543.81
1530.81
1471.28
1471.92
1473.43
1475.38
1477.89
1481.03
1484.8
1489.15
1493.99
1499.25
1504.89
1510.71
1516.62
1522.5
1528.24
1533.71
1538.77
1543.28
1547.16
1550.31
1552.9
1554.47
1527.84
1464.47
1465.31
1467.22
1469.63
1472.69
1476.4
1480.75
1485.72
1491.24
1497.24
1503.57
1510.18
1516.93
1523.69
1530.32
1536.7
1542.7
1548.21
1553.17
1557.37
1561.5
1563.27
1541.49
1453.99
1454.97
1457.61
1460.78
1464.69
1469.21
1474.37
1480.19
1486.65
1493.67
1501.17
1509.07
1517.15
1525.29
1533.32
1541.1
1548.45
1555.21
1561.3
1566.4
1571.28
1573.16
1574.46
1439.81
1440.35
1444.17
1448.62
1453.65
1459.15
1465.3
1472.24
1479.96
1488.41
1497.49
1507.08
1516.97
1527.04
1537.07
1546.83
1556.08
1564.6
1572.22
1578.59
1583.97
1586.83
1589.45
1422.29
1420.8
1427.05
1433.8
1440.01
1446.24
1453.22
1461.23
1470.38
1480.69
1492.04
1504.19
1516.59
1529.27
1541.9
1554.27
1566.08
1577.02
1586.81
1595.07
1601.72
1606.03
1608.75
1402.62
1398.92
1404.62
1414.06
1421.53
1429.03
1437.67
1447.37
1458.07
1469.81
1482.92
1497.28
1512.87
1529.42
1546.35
1562.92
1578.7
1593.26
1606.21
1617.19
1625.95
1631.67
1634.51
1139.46
993.477
978.579
1021.85
1070.72
1121.31
1179.65
1243.5
1310.46
1376.73
1435.59
1481.23
1509.83
1531.91
1553.83
1574.9
1595.32
1614.28
1631.26
1646.15
1658.36
1669.63
1667.17
5.92105
5.91695
5.90053
5.86857
5.82092
5.76073
5.69263
5.62095
5.54915
5.47964
5.41417
5.35411
5.30038
5.25364
5.21435
5.18277
5.15901
5.14314
5.13521
5.92376
5.92433
5.91261
5.88184
5.83195
5.76797
5.69596
5.62069
5.54562
5.47356
5.40635
5.34514
5.29066
5.24339
5.2037
5.17184
5.14791
5.13194
5.12396
5.92482
5.93857
5.93978
5.91092
5.85476
5.78212
5.70194
5.61978
5.53921
5.46262
5.39173
5.32763
5.27095
5.22201
5.18108
5.14836
5.12385
5.10752
5.09936
5.91955
5.96086
5.99066
5.96104
5.8898
5.80135
5.70824
5.61563
5.52674
5.44365
5.36769
5.29968
5.24004
5.1889
5.14634
5.11241
5.08706
5.07017
5.06173
5.93125
5.95405
6.0726
6.03714
5.93476
5.82085
5.7102
5.60436
5.50508
5.41401
5.33208
5.25956
5.19655
5.14293
5.09852
5.06323
5.0369
5.0194
5.01065
5.58392
5.79296
6.15667
6.1322
5.97194
5.82914
5.70024
5.58017
5.46966
5.37023
5.28215
5.20506
5.13865
5.08254
5.03632
4.99969
4.97246
4.9544
4.9454
5.51942
5.80129
6.6198
6.43758
5.94785
5.79961
5.6675
5.53568
5.41451
5.30777
5.21438
5.13333
5.06406
5.00593
4.95828
4.92067
4.8928
4.87439
4.86524
174.693
187.56
48.2237
7.9539
5.90556
5.73726
5.60506
5.4648
5.33452
5.22221
5.12518
5.04162
4.97068
4.91147
4.86317
4.82522
4.79719
4.77872
4.76956
0.565031
0.548555
0.579163
0.589592
1.34265
15.2852
45.5405
93.3398
163.619
267.051
415.704
633.906
945.607
1328.15
1559.75
1586.73
1612.77
1634.63
1654.03
1671.79
1684.39
1691.05
1668.95
0.553331
0.542663
0.559738
0.563124
0.559571
0.5366
0.523871
0.523877
0.533937
0.542656
0.518913
0.468028
22.0177
156.81
444.076
903.628
1430.14
1655.28
1676.41
1696.57
1711.87
1721.67
1725.09
0.543378
0.546185
0.540945
0.534131
0.528085
0.515634
0.503156
0.491658
0.480181
0.472309
0.450676
0.415304
0.440167
0.351984
8.31882
86.0188
269.777
575.431
992.83
1519.44
1743.43
1762.24
1774.03
0.51556
0.514323
0.514282
0.50856
0.501681
0.491802
0.480386
0.468185
0.454845
0.435056
0.402786
0.351831
0.276263
0.207019
0.0662462
0.0234077
0.0249195
14.1015
114.576
279.585
538.86
820.616
1126.71
0.488977
0.488743
0.489663
0.485111
0.478331
0.468937
0.457358
0.443687
0.426872
0.404266
0.372464
0.329005
0.271871
0.193593
0.0700379
-0.0568293
-0.0970899
-0.214308
-0.262541
-0.334985
-0.574169
4.40494
5.61073
0.464732
0.464752
0.466075
0.462622
0.456122
0.446852
0.435066
0.420636
0.402603
0.379148
0.34788
0.306985
0.257938
0.195894
0.118316
0.0403512
-0.0481064
-0.165963
-0.274219
-0.32868
-0.413136
-0.462769
-0.445174
0.441745
0.442054
0.443805
0.441081
0.434874
0.425741
0.413988
0.399487
0.381492
0.358742
0.329818
0.293693
0.249686
0.196005
0.131529
0.0584932
-0.00983901
-0.0827829
-0.148831
-0.198575
-0.274818
-0.345272
-0.367085
0.420928
0.42097
0.422493
0.420255
0.41439
0.405544
0.394131
0.380094
0.362873
0.341541
0.315069
0.282586
0.243459
0.197207
0.14404
0.0856283
0.0255399
-0.0372148
-0.0992729
-0.153243
-0.205112
-0.251543
-0.281458
0.401006
0.400859
0.401942
0.399945
0.394447
0.386058
0.37526
0.362063
0.34603
0.326438
0.302489
0.273528
0.23917
0.199352
0.154472
0.105514
0.0541707
0.00194105
-0.0490563
-0.0962196
-0.140764
-0.183763
-0.220653
0.380667
0.380857
0.381794
0.379949
0.374822
0.367027
0.357052
0.344936
0.330321
0.312605
0.291144
0.265449
0.235302
0.200821
0.162474
0.121089
0.0778544
0.0341057
-0.00888933
-0.0499871
-0.0889335
-0.125653
-0.158582
0.360513
0.360889
0.36182
0.360081
0.355315
0.348192
0.339169
0.328273
0.315183
0.29937
0.280289
0.25757
0.231131
0.201214
0.16835
0.133254
0.0967339
0.0596536
0.022859
-0.0128784
-0.0469214
-0.0787738
-0.107917
0.340453
0.340926
0.341844
0.340169
0.335739
0.32931
0.321289
0.311665
0.300129
0.286187
0.269357
0.249352
0.226196
0.200239
0.172061
0.142307
0.11153
0.0801913
0.0487697
0.0178313
-0.0118545
-0.0393683
-0.0640653
0.320441
0.320965
0.321755
0.320062
0.315923
0.310164
0.303128
0.294757
0.284737
0.272594
0.257875
0.240348
0.220124
0.197645
0.173543
0.148414
0.122633
0.0963677
0.0697844
0.0432635
0.0175885
-0.00615504
-0.0271078
0.300441
0.300996
0.301491
0.299657
0.295737
0.290576
0.284453
0.277262
0.268677
0.258229
0.24547
0.2302
0.212597
0.193191
0.172659
0.151549
0.13009
0.108247
0.0860002
0.0636148
0.0418144
0.0216714
0.00416167
0.280396
0.280978
0.281006
0.27888
0.275079
0.270408
0.26508
0.258957
0.251704
0.242836
0.231889
0.218665
0.2034
0.186712
0.169333
0.151758
0.13405
0.115998
0.0974994
0.0788406
0.0607107
0.0440645
0.0299027
0.260211
0.260818
0.260228
0.257664
0.253858
0.249533
0.244842
0.23964
0.233595
0.226196
0.216924
0.20555
0.192345
0.178029
0.163431
0.149018
0.134673
0.119955
0.104682
0.0892647
0.0744992
0.061251
0.0504683
0.239749
0.240364
0.239038
0.235917
0.231981
0.227833
0.223586
0.219124
0.214135
0.208078
0.200354
0.190647
0.179215
0.166877
0.154607
0.142936
0.131616
0.119938
0.107547
0.0949713
0.0832392
0.0732536
0.0658922
0.218829
0.21942
0.217269
0.213527
0.209354
0.205215
0.201204
0.197267
0.193146
0.188281
0.181974
0.173773
0.163847
0.15306
0.142552
0.133023
0.124223
0.115236
0.10547
0.0954507
0.086458
0.079543
0.0755186
0.19723
0.197754
0.194732
0.190362
0.185884
0.181606
0.177631
0.173994
0.170519
0.166658
0.161625
0.1548
0.146189
0.136599
0.12729
0.119184
0.112185
0.105322
0.0978071
0.0900562
0.0834988
0.079348
0.0783449
0.174717
0.175123
0.171244
0.16629
0.161482
0.156961
0.152847
0.149284
0.146199
0.143098
0.139147
0.133573
0.126166
0.117575
0.109063
0.101744
0.0957743
0.0903003
0.0844617
0.0785429
0.0739811
0.0720848
0.0734667
0.151062
0.151302
0.146646
0.141196
0.136078
0.131253
0.126862
0.123153
0.120174
0.117518
0.114365
0.109842
0.103533
0.0958582
0.0879603
0.0810339
0.0754815
0.0706795
0.0658213
0.0610963
0.0578396
0.0573606
0.0600212
0.126078
0.126108
0.120818
0.114998
0.10963
0.104483
0.0997127
0.0956626
0.09249
0.089901
0.0871498
0.0833416
0.0779174
0.0710654
0.0637221
0.0570317
0.051542
0.0468632
0.0423031
0.0379835
0.0350495
0.034669
0.036871
0.0996507
0.099431
0.093694
0.0876601
0.0821267
0.0766741
0.0714663
0.0669176
0.0632733
0.0603524
0.0575251
0.0539578
0.0490388
0.0427818
0.0358947
0.029374
0.0237796
0.0188587
0.0140041
0.0092388
0.00539942
0.00331036
0.00274158
0.0717619
0.0712617
0.0652642
0.0591809
0.0535726
0.0478509
0.0421932
0.0370506
0.0327188
0.0291092
0.0257235
0.0218498
0.0169171
0.0108539
0.00417427
-0.00231875
-0.0081686
-0.0136265
-0.0193115
-0.0253808
-0.0314683
-0.0372426
-0.0430817
0.0424858
0.0416835
0.0355726
0.0295804
0.0239706
0.0180231
0.011944
0.00618283
0.00103927
-0.00351779
-0.0078636
-0.0125586
-0.0180633
-0.024447
-0.0313224
-0.0380861
-0.0444594
-0.0508176
-0.0578998
-0.066123
-0.0757102
-0.0868345
-0.0999366
0.0119681
0.0108435
0.00470557
-0.00110943
-0.00668128
-0.0128142
-0.0192575
-0.0256006
-0.0315851
-0.0372225
-0.0427902
-0.048697
-0.0552562
-0.0624723
-0.0700165
-0.0774695
-0.0847626
-0.092494
-0.101585
-0.112735
-0.126707
-0.14414
-0.165134
-0.0196213
-0.0211018
-0.0272323
-0.0328489
-0.0383764
-0.0446601
-0.0513974
-0.0582469
-0.0650261
-0.0717583
-0.0786552
-0.0859943
-0.0939368
-0.10239
-0.111037
-0.119613
-0.128271
-0.137878
-0.149526
-0.164125
-0.182743
-0.206031
-0.233764
-0.0521377
-0.0540322
-0.0601357
-0.0655866
-0.0710824
-0.0774875
-0.0844504
-0.0917176
-0.0992001
-0.106954
-0.115154
-0.123979
-0.133456
-0.14339
-0.153462
-0.163525
-0.173957
-0.18586
-0.200443
-0.218668
-0.241371
-0.268856
-0.299901
-0.0854851
-0.0878702
-0.0939009
-0.0992502
-0.104733
-0.111237
-0.11837
-0.125972
-0.134051
-0.142702
-0.152089
-0.16232
-0.173325
-0.184826
-0.196509
-0.208315
-0.220856
-0.23533
-0.253054
-0.274814
-0.300784
-0.330648
-0.361699
-0.119605
-0.122552
-0.128419
-0.133739
-0.139229
-0.145816
-0.153083
-0.160959
-0.169533
-0.178943
-0.189354
-0.200834
-0.213245
-0.226271
-0.23962
-0.25332
-0.268189
-0.285366
-0.306284
-0.331291
-0.359955
-0.39155
-0.422586
-0.154427
-0.157989
-0.163566
-0.168915
-0.174433
-0.1811
-0.188486
-0.196597
-0.205589
-0.215637
-0.226911
-0.239457
-0.253103
-0.267531
-0.282491
-0.298121
-0.315368
-0.335242
-0.359215
-0.387002
-0.418023
-0.451316
-0.48456
-0.189828
-0.194015
-0.199179
-0.204597
-0.210161
-0.21691
-0.224416
-0.232748
-0.242114
-0.252716
-0.264732
-0.278196
-0.292924
-0.308616
-0.325081
-0.342578
-0.362078
-0.384504
-0.411161
-0.441122
-0.474174
-0.50866
-0.54481
-0.225603
-0.230382
-0.23504
-0.240547
-0.24617
-0.253005
-0.260647
-0.269207
-0.278931
-0.290047
-0.302743
-0.317048
-0.33278
-0.349659
-0.367556
-0.386836
-0.408422
-0.433232
-0.462151
-0.493805
-0.528713
-0.563831
-0.602699
-0.261475
-0.266776
-0.270869
-0.276474
-0.282169
-0.289101
-0.296903
-0.305712
-0.315801
-0.327428
-0.340794
-0.355932
-0.372671
-0.390749
-0.410089
-0.431127
-0.454736
-0.48192
-0.513051
-0.546744
-0.584224
-0.620752
-0.664662
-0.29715
-0.302878
-0.30639
-0.312091
-0.317876
-0.324923
-0.332918
-0.34201
-0.35249
-0.364647
-0.378704
-0.394713
-0.412515
-0.431862
-0.452703
-0.475488
-0.501091
-0.530642
-0.564284
-0.601311
-0.643365
-0.684941
-0.7397
-0.332423
-0.338488
-0.341456
-0.347246
-0.353149
-0.360338
-0.368571
-0.377993
-0.388913
-0.401646
-0.416447
-0.433389
-0.452332
-0.473031
-0.495413
-0.519877
-0.547292
-0.578807
-0.614771
-0.655492
-0.702976
-0.754009
-0.824983
-0.367137
-0.373514
-0.376035
-0.381893
-0.387957
-0.395327
-0.403855
-0.413684
-0.425125
-0.43852
-0.454141
-0.472088
-0.492233
-0.514324
-0.538248
-0.564314
-0.593314
-0.626233
-0.663651
-0.706139
-0.755622
-0.812908
-0.888745
-0.400786
-0.407518
-0.409735
-0.415618
-0.421896
-0.429504
-0.438401
-0.448729
-0.460793
-0.474938
-0.491441
-0.510407
-0.53172
-0.555135
-0.580528
-0.608166
-0.638766
-0.673133
-0.711769
-0.754537
-0.801985
-0.855492
-0.909698
-0.432138
-0.439171
-0.441273
-0.447113
-0.453658
-0.461571
-0.4709
-0.481792
-0.494527
-0.509429
-0.526761
-0.546619
-0.568906
-0.593418
-0.620082
-0.649221
-0.681586
-0.717994
-0.758823
-0.803408
-0.850678
-0.89911
-0.928791
-0.460197
-0.467131
-0.46944
-0.475213
-0.48205
-0.490322
-0.500123
-0.511595
-0.524973
-0.540526
-0.558483
-0.578954
-0.601903
-0.627233
-0.654978
-0.685532
-0.719689
-0.758357
-0.802072
-0.850625
-0.903176
-0.957718
-0.995967
-0.487406
-0.493988
-0.496981
-0.502778
-0.50994
-0.518645
-0.529004
-0.54114
-0.555215
-0.571415
-0.589922
-0.61088
-0.634397
-0.660577
-0.689604
-0.721863
-0.757976
-0.798707
-0.844819
-0.897072
-0.956438
-1.02453
-1.10093
-0.519619
-0.527874
-0.531391
-0.537404
-0.544978
-0.554275
-0.565403
-0.578462
-0.593546
-0.610763
-0.630249
-0.652178
-0.676804
-0.704442
-0.735435
-0.770117
-0.808808
-0.851927
-0.900221
-0.95503
-1.01859
-1.09489
-1.19273
1596.52
1491.16
1076.93
1042.55
1709.74
1694.63
1682.29
1655.62
1775.49
1764.64
1753.96
1714.78
1354.8
1264.81
1010.63
679.432
5.05098
-0.415907
-0.538946
-0.611749
-0.457885
-0.506472
-0.582351
-0.690359
-0.373369
-0.414063
-0.475249
-0.552631
-0.305887
-0.343429
-0.389003
-0.435723
-0.251719
-0.284004
-0.318862
-0.349317
-0.189154
-0.218355
-0.245787
-0.229705
-0.136377
-0.162937
-0.183854
-0.155517
-0.0882466
-0.111264
-0.128388
-0.138827
-0.0471379
-0.0659702
-0.0799341
-0.0850438
-0.011978
-0.0263267
-0.0364599
-0.0400031
0.0176282
0.00783604
0.00268412
0.00245266
0.0422376
0.0373719
0.038017
0.0430661
0.0617493
0.06214
0.0683597
0.0811053
0.0752238
0.0804395
0.091264
0.111303
0.0813003
0.0899064
0.103482
0.127647
0.0786742
0.0886214
0.101754
0.123052
0.0660566
0.0747407
0.084088
0.0984988
0.0414688
0.0449319
0.046436
0.0505095
0.00256828
-0.00444383
-0.0187981
-0.033466
-0.0517922
-0.074836
-0.112787
-0.144373
-0.120283
-0.165087
-0.232818
-0.289021
-0.199036
-0.269848
-0.371975
-0.461062
-0.28064
-0.377491
-0.515151
-0.639433
-0.353552
-0.463999
-0.598101
-0.755313
-0.411995
-0.346042
-0.290149
-0.713902
-0.464983
-0.136262
-0.226567
-0.432676
-0.52341
-0.394296
-0.18134
-0.259788
-0.584692
-0.623737
-0.286408
-0.431362
-0.645304
-0.685118
-0.669634
-0.641259
-0.716665
-0.770918
-0.822563
-0.836389
-0.808327
-0.886915
-0.883473
-1.0783
-0.91324
-0.769955
5.09351
-0.508248
-0.992875
-0.26682
7.83036
0.611991
-1.01151
-0.32649
8.2215
0.680457
-1.0105
-0.850251
5.00964
20.3672
-1.08191
-0.888084
-0.885466
26.8877
-1.23794
-1.21887
-1.50046
6.67843
-1.35425
-1.5266
-2.37048
-3.8258
1313.03
1278.97
437.525
9.80598
6.28757
5.75017
5.54604
5.38492
5.24745
5.13256
5.03457
4.95106
4.88046
4.82164
4.77381
4.73633
4.70871
4.69055
4.68155
1591.85
1562.57
1206.72
166.571
7.16803
5.85252
5.49249
5.30925
5.17114
5.05649
4.95907
4.87673
4.80727
4.74937
4.70238
4.66563
4.63854
4.62073
4.61191
1677.25
1680.95
1588.96
772.265
29.3075
6.27943
5.455
5.20712
5.08002
4.96933
4.87394
4.79414
4.72682
4.67052
4.62485
4.58917
4.56285
4.5455
4.53689
630.996
1151.9
1598.97
1238.71
238.371
7.2834
5.4716
5.07913
4.97003
4.87018
4.77887
4.70307
4.63896
4.58499
4.54116
4.50692
4.4816
4.46485
4.45649
-0.857423
40.1498
881.654
1262.14
606.568
14.3379
5.47177
4.94649
4.84218
4.75827
4.67397
4.60352
4.54358
4.49269
4.45122
4.41877
4.39468
4.37866
4.37063
-0.851194
-1.07263
14.0665
985.333
775.771
56.1361
5.34632
4.8043
4.69997
4.63405
4.55999
4.49592
4.44093
4.39376
4.3551
4.32473
4.30208
4.28694
4.27933
-0.670346
-0.803726
-0.583814
462.374
694.777
116.956
5.32148
4.68404
4.5583
4.50172
4.43824
4.38092
4.3314
4.28848
4.25299
4.22495
4.20392
4.1898
4.18268
-0.489363
-0.544842
-0.516975
360.219
536.814
96.2457
5.23329
4.58988
4.41828
4.3632
4.30954
4.25903
4.2154
4.17718
4.14519
4.11968
4.10042
4.08744
4.08089
-0.323788
-0.390393
-0.416444
417.428
553.728
92.3143
5.42755
4.52279
4.27182
4.21781
4.17392
4.13059
4.09335
4.06023
4.03203
4.00925
3.99189
3.98013
3.9742
-0.202932
-0.255119
-0.31587
486.606
580.681
301.393
8.62002
4.3768
4.08855
4.05982
4.03033
3.99592
3.96576
3.93806
3.91388
3.89402
3.87868
3.86823
3.86297
-0.120372
-0.16489
-0.218353
272.825
605.427
448.235
26.0987
4.08259
3.87985
3.89025
3.87893
3.85586
3.83328
3.81115
3.79115
3.77437
3.7612
3.75213
3.74758
-0.0780404
-0.125831
-0.127055
136.219
619.178
492.324
39.1377
3.79682
3.68434
3.7193
3.72381
3.71215
3.69683
3.6801
3.66431
3.65071
3.63981
3.63223
3.62844
-0.0877081
-0.0777934
-0.0555262
79.3534
617.812
465.259
35.3752
3.64806
3.53117
3.5579
3.57016
3.56666
3.55733
3.54557
3.53384
3.52343
3.51489
3.50889
3.50594
-0.0394979
-0.03292
-0.0176144
68.3959
610.416
389.31
17.1676
3.57763
3.41239
3.40847
3.42028
3.42042
3.41548
3.40815
3.40026
3.39299
3.38684
3.38249
3.38042
0.0100067
0.0139209
0.0103032
107.357
603.355
357.08
10.0391
3.50518
3.29336
3.26428
3.27223
3.27314
3.27158
3.26824
3.26403
3.25983
3.25607
3.25341
3.25222
0.0616472
0.0860491
0.0600411
169.388
601.963
405.627
17.5724
3.39009
3.15226
3.11476
3.12231
3.12391
3.12558
3.1261
3.1255
3.12438
3.12303
3.12205
3.12172
0.108927
0.175262
0.164982
178.907
607.119
523.249
59.1448
3.29025
2.98706
2.95513
2.96727
2.97182
2.97739
2.98189
2.98502
2.98702
2.98811
2.98881
2.9893
0.145573
0.233618
0.270794
39.0414
593.844
597.781
177.585
3.36813
2.81208
2.78689
2.80618
2.81642
2.82704
2.83588
2.84291
2.84814
2.85174
2.85412
2.8554
0.169137
0.246331
0.465605
1.08777
203.7
356.723
178.235
3.8943
2.62698
2.61795
2.64042
2.65821
2.6748
2.68846
2.69959
2.70815
2.71431
2.71839
2.72045
0.169081
0.226233
5.45847
17.8557
21.4985
26.8692
34.6298
15.7467
2.41719
2.44069
2.47094
2.49823
2.52123
2.54016
2.55556
2.56749
2.57626
2.58205
2.5849
0.130769
0.172423
0.361664
172.924
204.26
50.8449
5.58904
6.15198
2.70958
2.25875
2.30125
2.33744
2.36703
2.39156
2.41134
2.42667
2.43804
2.44553
2.4492
0.0825078
0.103809
0.289847
383.337
509.707
243.009
4.98345
2.21075
2.16542
2.08496
2.13425
2.17672
2.21295
2.24322
2.26743
2.28621
2.30014
2.30931
2.3138
0.00372471
0.04696
22.7537
519.006
524.154
517.815
72.0576
2.28209
1.96372
1.92172
1.96936
2.01666
2.05965
2.09567
2.12437
2.14659
2.16304
2.17385
2.17915
-0.140589
-0.0441176
0.0707537
356.003
538.749
536.566
337.474
6.24562
1.75982
1.73535
1.79924
1.85625
1.90752
1.94953
1.98271
2.00832
2.02721
2.03958
2.04567
-0.234192
-0.146487
-0.0485404
51.9754
512.879
555.057
339.905
6.39465
1.37916
1.51684
1.61845
1.69492
1.75706
1.80552
1.84312
1.87195
1.89311
1.90694
1.91374
0.0294642
0.311577
0.104616
0.184373
62.3749
90.0538
75.3395
21.8526
1.04009
1.29287
1.43555
1.53615
1.60969
1.66459
1.70634
1.73806
1.76122
1.77633
1.78376
0.097327
0.285235
0.665184
0.196605
0.114634
0.12786
0.149871
14.8385
1.64268
1.09649
1.2683
1.38537
1.46751
1.52783
1.57307
1.60719
1.63198
1.64812
1.65604
-0.620381
0.194832
0.636184
0.190113
0.17066
0.180416
0.102938
0.810615
1.53872
0.948727
1.12391
1.24587
1.33237
1.39614
1.44386
1.47976
1.50575
1.52263
1.53089
-0.792598
-0.134419
-0.101524
0.201272
0.251261
0.352257
0.275617
0.379558
0.807532
0.842781
1.00243
1.11893
1.20527
1.27009
1.3191
1.35607
1.38277
1.40007
1.40852
-0.630784
-0.473329
-0.21368
23.9945
0.172242
0.457918
0.488375
0.474085
0.617469
0.766473
0.898465
1.00371
1.08616
1.14988
1.19897
1.23624
1.26316
1.28058
1.28906
-0.399942
-0.33857
-0.240896
318.415
573.611
96.3895
0.715959
0.504087
0.594981
0.692568
0.803358
0.897145
0.974057
1.03533
1.08347
1.12031
1.14696
1.1642
1.17257
-0.250038
-0.253503
54.2735
638.152
642.744
407.337
4.56747
0.527692
0.542084
0.614096
0.710915
0.79605
0.867692
0.92598
0.972435
1.00821
1.03414
1.05091
1.05903
8.23417
-0.247812
565.517
656.584
656.249
392.199
4.28822
0.388292
0.443879
0.527018
0.619243
0.698956
0.766213
0.821374
0.865616
0.899775
0.924567
0.940605
0.948363
18.0328
532.148
667.985
670.239
581.922
120.36
2.93888
0.284774
0.318265
0.436109
0.529418
0.605911
0.669327
0.721176
0.762739
0.79481
0.818095
0.833159
0.84043
-1.21557
587.169
676.16
685.286
185.763
2.06471
4.14198
0.146113
0.221319
0.352491
0.444742
0.517756
0.577059
0.625159
0.663535
0.693074
0.714515
0.728381
0.735057
-1.46389
100.787
472.051
233.015
3.80305
-0.0295201
0.111131
0.0146423
0.156346
0.28074
0.367638
0.43518
0.489451
0.533099
0.567721
0.594299
0.613584
0.626048
0.632029
-1.09388
-0.711399
16.4957
1.43517
-0.180013
-0.422832
-0.273989
-0.027414
0.113299
0.220569
0.298198
0.358416
0.406326
0.444676
0.474967
0.498179
0.515022
0.525899
0.531096
-0.531803
-0.368426
-0.185224
-0.347075
-0.480161
-0.400222
-0.212577
-0.0306385
0.0832831
0.170414
0.235749
0.286685
0.327172
0.359455
0.384894
0.404377
0.418523
0.42765
0.431988
0.0334992
-0.477975
-0.448735
-0.49001
-0.386551
-0.282748
-0.142578
-0.0228093
0.0618218
0.1278
0.178904
0.219144
0.251288
0.276879
0.297033
0.312481
0.32371
0.330948
0.334365
3.4752
2.74875
-0.39178
-0.379337
-0.239277
-0.170879
-0.0840334
-0.0119864
0.0447599
0.0898449
0.125992
0.154754
0.177945
0.19642
0.210988
0.222175
0.23032
0.235561
0.238011
16.8486
16.7476
3.36184
-0.235907
-0.101441
-0.0802243
-0.0375228
-0.00128747
0.0295721
0.0547105
0.0756283
0.0925283
0.10627
0.11728
0.125998
0.132718
0.137623
0.140774
0.142236
7.47562
12.004
0.646994
-0.31224
0.0214355
-0.0290773
-0.0118217
-0.00121593
0.0086099
0.0170695
0.0243935
0.0303781
0.0352816
0.0392147
0.0423274
0.0447247
0.0464725
0.0475801
0.0480532
)
;

boundaryField
{
    leftWall
    {
        type            fixedFluxPressure;
        gradient        uniform 0;
        value           nonuniform List<scalar> 
50
(
1474.54
1471.28
1464.47
1453.99
1439.81
1422.29
1402.62
1139.46
0.565031
0.553331
0.543378
0.51556
0.488977
0.464732
0.441745
0.420928
0.401006
0.380667
0.360513
0.340453
0.320441
0.300441
0.280396
0.260211
0.239749
0.218829
0.19723
0.174717
0.151062
0.126078
0.0996507
0.0717619
0.0424858
0.0119681
-0.0196213
-0.0521377
-0.0854851
-0.119605
-0.154427
-0.189828
-0.225603
-0.261475
-0.29715
-0.332423
-0.367137
-0.400786
-0.432138
-0.460197
-0.487406
-0.519619
)
;
    }
    rightWall
    {
        type            fixedFluxPressure;
        gradient        uniform 0;
        value           nonuniform List<scalar> 
50
(
5.13521
5.12396
5.09936
5.06173
5.01065
4.9454
4.86524
4.76956
4.68155
4.61191
4.53689
4.45649
4.37063
4.27933
4.18268
4.08089
3.9742
3.86297
3.74758
3.62844
3.50594
3.38042
3.25222
3.12172
2.9893
2.8554
2.72045
2.5849
2.4492
2.3138
2.17915
2.04567
1.91374
1.78376
1.65604
1.53089
1.40852
1.28906
1.17257
1.05903
0.948363
0.84043
0.735057
0.632029
0.531096
0.431988
0.334365
0.238011
0.142236
0.0480532
)
;
    }
    lowerWall
    {
        type            fixedFluxPressure;
        gradient        uniform 0;
        value           nonuniform List<scalar> 
62
(
1474.54
1475.19
1476.47
1478.24
1480.47
1483.34
1486.84
1490.9
1495.45
1500.38
1505.62
1511.03
1516.51
1521.93
1527.15
1532.05
1536.46
1540.26
1543.27
1545.4
1546.46
1543.81
1530.81
1530.81
1527.84
1541.49
1574.46
1589.45
1608.75
1634.51
1667.17
1596.52
1491.16
1076.93
1042.55
5.92105
5.92376
5.92482
5.91955
5.93125
5.58392
5.51942
174.693
5.92105
5.91695
5.90053
5.86857
5.82092
5.76073
5.69263
5.62095
5.54915
5.47964
5.41417
5.35411
5.30038
5.25364
5.21435
5.18277
5.15901
5.14314
5.13521
)
;
    }
    atmosphere
    {
        type            totalPressure;
        rho             rho;
        psi             none;
        gamma           1;
        p0              uniform 0;
        value           nonuniform List<scalar> 
46
(
-0.539941
-0.553041
-0.555352
-0.561552
-0.569415
-0.579117
-0.59078
-0.604504
-0.620371
-0.638457
-0.658858
-0.681742
-0.707386
-0.736182
-0.768562
-0.804887
-0.845376
-0.89022
-0.939901
-0.995546
-1.05903
-1.1333
-1.22344
-1.35483
-1.42574
-2.05081
-4.19663
0
0
-0.0826621
0
0
0
0
0
0
0
0
0
0
0
0
0
0
0
0
)
;
    }
    defaultFaces
    {
        type            empty;
    }
}


// ************************************************************************* //
