/*--------------------------------*- C++ -*----------------------------------*\
| =========                 |                                                 |
| \\      /  F ield         | OpenFOAM: The Open Source CFD Toolbox           |
|  \\    /   O peration     | Version:  2206                                  |
|   \\  /    A nd           | Website:  www.openfoam.com                      |
|    \\/     M anipulation  |                                                 |
\*---------------------------------------------------------------------------*/
FoamFile
{
    version     2.0;
    format      ascii;
    arch        "LSB;label=32;scalar=64";
    class       surfaceScalarField;
    location    "0.4";
    object      phi;
}
// * * * * * * * * * * * * * * * * * * * * * * * * * * * * * * * * * * * * * //

dimensions      [0 3 -1 0 0 0 0];

oriented        oriented;

internalField   nonuniform List<scalar> 
4432
(
-3.47358e-06
3.47358e-06
-1.31679e-06
-2.15679e-06
2.39548e-06
-3.71227e-06
5.3854e-06
-2.98992e-06
7.12369e-06
-1.73828e-06
7.89391e-06
-7.70226e-07
8.14678e-06
-2.52872e-07
8.18959e-06
-4.28092e-08
8.14004e-06
4.95517e-08
7.99881e-06
1.41234e-07
7.71299e-06
2.85811e-07
7.22472e-06
4.88276e-07
6.49176e-06
7.32956e-07
5.49716e-06
9.94605e-07
4.24838e-06
1.24877e-06
2.79028e-06
1.4581e-06
1.19816e-06
1.59212e-06
-3.82991e-07
1.58115e-06
-1.61291e-06
1.22992e-06
-1.85389e-06
2.40972e-07
1.99448e-07
-2.05333e-06
4.46674e-06
-4.26729e-06
4.46674e-06
-3.45645e-06
6.93003e-06
-1.52142e-06
-4.09182e-06
2.07521e-06
-7.3089e-06
5.10752e-06
-6.02223e-06
6.98837e-06
-3.61914e-06
7.95832e-06
-1.74017e-06
8.43836e-06
-7.32913e-07
8.72107e-06
-3.25517e-07
8.92863e-06
-1.58014e-07
9.06596e-06
3.90464e-09
9.13546e-06
2.16314e-07
9.1437e-06
4.80036e-07
9.08692e-06
7.89731e-07
8.9605e-06
1.12103e-06
8.75319e-06
1.45608e-06
8.43581e-06
1.77548e-06
7.9936e-06
2.03433e-06
7.44295e-06
2.1318e-06
6.76966e-06
1.90321e-06
5.85723e-06
1.1534e-06
4.23468e-06
-4.30784e-07
2.14353e-06
-2.17614e-06
6.61027e-06
-3.154e-06
1.0084e-05
-1.78655e-06
-5.45927e-06
1.56603e-06
-1.06615e-05
4.67624e-06
-9.13244e-06
6.81332e-06
-5.75622e-06
8.09766e-06
-3.02452e-06
8.87449e-06
-1.50975e-06
9.40159e-06
-8.52615e-07
9.79216e-06
-5.48579e-07
1.00746e-05
-2.78543e-07
1.02052e-05
8.57389e-08
1.01946e-05
4.90586e-07
1.00477e-05
9.36678e-07
9.78142e-06
1.38729e-06
9.42009e-06
1.81741e-06
8.98222e-06
2.21335e-06
8.46757e-06
2.54898e-06
7.83308e-06
2.76629e-06
6.90116e-06
2.83513e-06
5.23942e-06
2.81514e-06
2.30901e-06
2.49962e-06
-1.0239e-06
1.15677e-06
5.58636e-06
-2.45864e-06
1.25427e-05
-1.70114e-06
-6.21677e-06
1.32687e-06
-1.36895e-05
4.54723e-06
-1.23528e-05
7.01657e-06
-8.22556e-06
8.70961e-06
-4.71755e-06
9.88307e-06
-2.68321e-06
1.07528e-05
-1.72235e-06
1.14208e-05
-1.21658e-06
1.19056e-05
-7.63346e-07
1.2199e-05
-2.07696e-07
1.22554e-05
4.34228e-07
1.21093e-05
1.08276e-06
1.17435e-05
1.75309e-06
1.11562e-05
2.40478e-06
1.03524e-05
3.01714e-06
9.33334e-06
3.56801e-06
8.09485e-06
4.00478e-06
6.61554e-06
4.31445e-06
4.76779e-06
4.66289e-06
2.1739e-06
5.09352e-06
-5.31657e-07
3.86233e-06
5.05471e-06
-1.08108e-06
1.36238e-05
-8.18819e-07
-6.47903e-06
1.84926e-06
-1.63576e-05
5.25619e-06
-1.57597e-05
8.05894e-06
-1.10283e-05
1.00922e-05
-6.75083e-06
1.15894e-05
-4.18035e-06
1.27457e-05
-2.87872e-06
1.36588e-05
-2.12969e-06
1.43657e-05
-1.47023e-06
1.48532e-05
-6.95196e-07
1.50198e-05
2.67691e-07
1.49282e-05
1.17433e-06
1.45844e-05
2.09688e-06
1.39996e-05
2.98955e-06
1.31702e-05
3.84658e-06
1.20686e-05
4.66962e-06
1.06506e-05
5.42281e-06
8.88883e-06
6.07617e-06
6.79799e-06
6.75373e-06
4.32359e-06
7.56792e-06
1.67775e-06
6.50818e-06
6.73245e-06
1.98559e-06
1.16382e-05
2.41271e-06
-6.90616e-06
4.73849e-06
-1.86834e-05
7.90441e-06
-1.89256e-05
1.06821e-05
-1.3806e-05
1.28395e-05
-8.90828e-06
1.45455e-05
-5.88628e-06
1.5901e-05
-4.23425e-06
1.69174e-05
-3.14608e-06
1.75967e-05
-2.14954e-06
1.79675e-05
-1.06601e-06
1.8292e-05
-5.67778e-08
1.83837e-05
1.08257e-06
1.81659e-05
2.31473e-06
1.76478e-05
3.50763e-06
1.6839e-05
4.6554e-06
1.57166e-05
5.79201e-06
1.42536e-05
6.88583e-06
1.23782e-05
7.95149e-06
1.00986e-05
9.03342e-06
7.34046e-06
1.0326e-05
3.66098e-06
1.01877e-05
1.03934e-05
1.08845e-05
7.53687e-07
1.55595e-05
-1.15812e-05
1.5466e-05
-1.85899e-05
1.4735e-05
-1.81946e-05
1.5283e-05
-1.4354e-05
1.6872e-05
-1.04972e-05
1.8824e-05
-7.83828e-06
2.06429e-05
-6.05312e-06
2.20864e-05
-4.5896e-06
2.31375e-05
-3.20063e-06
2.38488e-05
-1.77728e-06
2.35109e-05
2.81118e-07
2.26801e-05
1.91334e-06
2.17363e-05
3.2585e-06
2.09314e-05
4.31252e-06
2.02592e-05
5.32769e-06
1.97174e-05
6.33377e-06
1.93046e-05
7.29858e-06
1.86038e-05
8.6523e-06
1.7305e-05
1.03322e-05
1.4964e-05
1.2667e-05
1.0643e-05
1.45087e-05
2.10364e-05
2.73258e-05
-2.65722e-05
3.51137e-05
-1.93691e-05
2.82602e-05
-1.17363e-05
2.15694e-05
-1.15038e-05
1.9209e-05
-1.19937e-05
2.03717e-05
-1.16599e-05
2.29119e-05
-1.03784e-05
2.53014e-05
-8.44265e-06
2.68834e-05
-6.17155e-06
2.7607e-05
-3.92428e-06
2.78148e-05
-1.98508e-06
2.85066e-05
-4.10665e-07
2.87491e-05
1.6708e-06
2.88365e-05
3.17111e-06
2.84508e-05
4.69828e-06
2.72088e-05
6.56967e-06
2.62086e-05
7.33392e-06
2.57689e-05
7.73829e-06
2.56022e-05
8.81905e-06
2.52295e-05
1.07048e-05
2.30536e-05
1.48429e-05
1.71329e-05
2.04295e-05
3.81693e-05
1.06414e-05
-1.06414e-05
2.39006e-05
-1.32594e-05
3.703e-05
-1.31296e-05
4.90704e-05
-1.20407e-05
5.90577e-05
-9.98738e-06
6.63943e-05
-7.33672e-06
7.09366e-05
-4.54228e-06
7.27813e-05
-1.84482e-06
7.21409e-05
6.40299e-07
6.9378e-05
2.76295e-06
6.49229e-05
4.45501e-06
5.91383e-05
5.78469e-06
5.23087e-05
6.82992e-06
4.46653e-05
7.64325e-06
3.63984e-05
8.26711e-06
2.76658e-05
8.7327e-06
1.86027e-05
9.06298e-06
9.33488e-06
9.26791e-06
9.335e-06
9.7864e-06
-2.04281e-05
2.36171e-05
-2.70903e-05
3.81014e-05
-2.7614e-05
5.1435e-05
-2.53745e-05
6.2196e-05
-2.07486e-05
6.98192e-05
-1.49601e-05
7.43705e-05
-9.09367e-06
7.61822e-05
-3.65653e-06
7.56671e-05
1.15547e-06
7.3216e-05
5.21432e-06
6.90091e-05
8.66206e-06
6.3286e-05
1.15078e-05
5.63049e-05
1.3811e-05
4.83101e-05
1.56379e-05
3.95216e-05
1.70556e-05
3.01318e-05
1.81227e-05
2.03065e-05
1.88884e-05
1.02007e-05
1.93739e-05
1.95359e-05
7.14251e-06
-2.75709e-05
2.21053e-05
-4.20534e-05
4.02062e-05
-4.57151e-05
5.65043e-05
-4.16728e-05
6.86514e-05
-3.28957e-05
7.64686e-05
-2.27773e-05
8.05834e-05
-1.32084e-05
8.16167e-05
-4.68995e-06
8.01458e-05
2.62627e-06
7.66152e-05
8.74472e-06
7.14301e-05
1.38469e-05
6.49182e-05
1.80198e-05
5.73439e-05
2.13852e-05
4.89293e-05
2.40527e-05
3.9859e-05
2.61259e-05
3.02928e-05
2.76888e-05
2.03696e-05
2.88118e-05
1.0219e-05
2.95246e-05
2.9755e-05
-1.00553e-06
-2.65655e-05
1.43535e-05
-5.74126e-05
4.25927e-05
-7.39546e-05
6.55076e-05
-6.45879e-05
7.96904e-05
-4.70788e-05
8.72584e-05
-3.03453e-05
9.03441e-05
-1.62943e-05
9.00989e-05
-4.44477e-06
8.73288e-05
5.39634e-06
8.2555e-05
1.35188e-05
7.62411e-05
2.01609e-05
6.87405e-05
2.55205e-05
6.03194e-05
2.98063e-05
5.11891e-05
3.31829e-05
4.15208e-05
3.57942e-05
3.14533e-05
3.77564e-05
2.11024e-05
3.91627e-05
1.05732e-05
4.00538e-05
4.03282e-05
-2.39917e-05
-2.57393e-06
-4.61944e-06
-7.67849e-05
4.64639e-05
-0.000125038
8.19274e-05
-0.000100052
9.7759e-05
-6.29105e-05
0.000103321
-3.59079e-05
0.000104028
-1.70007e-05
0.000101554
-1.97116e-06
9.68487e-05
1.0102e-05
9.03628e-05
2.00048e-05
8.25703e-05
2.79535e-05
7.38032e-05
3.42875e-05
6.43104e-05
3.92991e-05
5.42737e-05
4.32197e-05
4.38317e-05
4.62363e-05
3.30958e-05
4.84924e-05
2.21542e-05
5.01044e-05
1.10841e-05
5.1124e-05
5.14122e-05
-5.33261e-05
5.0752e-05
-7.6516e-06
-0.00012246
6.83473e-05
-0.000201037
0.000114465
-0.000146169
0.00012622
-7.4666e-05
0.000125791
-3.54784e-05
0.000121915
-1.31252e-05
0.000116107
3.8368e-06
0.000108583
1.76261e-05
9.97859e-05
2.8802e-05
9.0089e-05
3.76502e-05
7.97485e-05
4.46283e-05
6.89552e-05
5.00925e-05
5.78414e-05
5.43335e-05
4.64956e-05
5.7582e-05
3.49862e-05
6.0002e-05
2.33647e-05
6.17258e-05
1.16734e-05
6.28154e-05
6.30856e-05
2.54316e-05
2.53204e-05
7.92103e-05
-0.000176239
0.000119873
-0.000241699
0.000153487
-0.000179783
0.000159248
-8.04276e-05
0.000152008
-2.82381e-05
0.000142539
-3.65677e-06
0.000132581
1.3795e-05
0.000121714
2.84929e-05
0.000110239
4.02774e-05
9.8356e-05
4.95328e-05
8.62334e-05
5.6751e-05
7.39874e-05
6.23385e-05
6.16821e-05
6.66388e-05
4.935e-05
6.99142e-05
3.70053e-05
7.23467e-05
2.46547e-05
7.40765e-05
1.22999e-05
7.51701e-05
7.53855e-05
0.00015274
-0.00012742
0.000156824
-0.000180323
0.000120923
-0.000205799
0.000154591
-0.000213451
0.000178746
-0.000104582
0.000177103
-2.6595e-05
0.000164606
8.8403e-06
0.00015028
2.81205e-05
0.00013579
4.29832e-05
0.000121317
5.47505e-05
0.000106987
6.38625e-05
9.29184e-05
7.08198e-05
7.91275e-05
7.61294e-05
6.55787e-05
8.01875e-05
5.22311e-05
8.32619e-05
3.90379e-05
8.55398e-05
2.59534e-05
8.71611e-05
1.29334e-05
8.81902e-05
8.83189e-05
8.24638e-06
-3.48185e-05
3.20184e-06
-1.43245e-05
-2.20415e-06
-6.33038e-06
3.82141e-07
-1.40901e-05
-1.59521e-07
-1.1452e-05
6.62781e-07
-1.24823e-05
3.04529e-06
-1.2761e-05
5.90666e-06
-1.1304e-05
8.87799e-06
-9.14288e-06
1.16187e-05
-6.66494e-06
1.42113e-05
-4.57774e-06
1.70403e-05
-3.2396e-06
1.92449e-05
-5.33883e-07
2.00998e-05
2.31623e-06
1.83108e-05
6.48727e-06
1.57255e-05
9.15495e-06
1.53751e-05
7.68434e-06
1.61451e-05
6.96838e-06
1.75519e-05
7.4122e-06
2.02269e-05
8.02983e-06
2.49283e-05
1.01415e-05
3.2974e-05
1.23838e-05
2.21972e-05
4.8946e-05
-1.09054e-05
-2.39132e-05
-7.96485e-06
-1.72651e-05
1.47584e-06
-1.57711e-05
4.93399e-06
-1.75482e-05
8.16632e-06
-1.46844e-05
7.94837e-06
-1.22643e-05
4.69682e-06
-9.50947e-06
-1.58237e-06
-5.02489e-06
-1.03112e-05
-4.14107e-07
-2.50915e-05
8.11527e-06
-4.084e-05
1.11707e-05
-5.2151e-05
8.07122e-06
-2.89709e-05
-2.37139e-05
-4.43009e-06
-2.22246e-05
4.6771e-06
-2.61992e-06
1.18715e-05
1.9606e-06
1.8012e-05
1.54381e-06
2.06607e-05
4.31963e-06
2.23241e-05
5.74888e-06
2.59563e-05
4.39757e-06
3.18081e-05
4.2897e-06
4.08681e-05
3.32391e-06
5.40282e-06
5.76625e-05
-1.19421e-05
-1.19711e-05
-4.16296e-06
-2.50442e-05
3.34162e-06
-2.32757e-05
6.48434e-06
-2.0691e-05
8.64416e-06
-1.68443e-05
1.0121e-05
-1.37412e-05
1.14986e-05
-1.08873e-05
1.38815e-05
-7.40799e-06
1.58827e-05
-2.41551e-06
1.83441e-05
5.65369e-06
1.74782e-05
1.20364e-05
9.12554e-06
1.64238e-05
-1.91531e-05
4.56472e-06
-5.38258e-05
1.24482e-05
-6.33246e-05
6.87883e-06
-2.56111e-05
-3.57529e-05
-6.19836e-06
-1.78689e-05
5.76284e-06
-7.64158e-06
1.69411e-05
-5.42939e-06
2.7864e-05
-6.5253e-06
3.54069e-05
-3.2532e-06
4.2013e-05
-3.28221e-06
-6.05237e-06
5.34682e-05
-5.76933e-06
-6.2018e-06
-1.84741e-06
-2.89661e-05
3.36336e-06
-2.84864e-05
6.81545e-06
-2.41431e-05
9.50421e-06
-1.95331e-05
1.17916e-05
-1.60288e-05
1.40413e-05
-1.31371e-05
1.66514e-05
-1.00182e-05
2.04079e-05
-6.17221e-06
2.765e-05
-1.58847e-06
3.67495e-05
2.93687e-06
4.60533e-05
7.1201e-06
3.55271e-05
1.5091e-05
2.35218e-05
2.44535e-05
3.60799e-06
2.67927e-05
-2.49368e-05
-7.20827e-06
-5.54971e-05
1.26915e-05
-5.48219e-05
-8.31681e-06
-2.34979e-05
-3.67534e-05
-4.78734e-06
-2.52358e-05
7.87937e-06
-1.59199e-05
1.93711e-05
-1.47739e-05
-1.93315e-05
3.26502e-05
-3.58942e-06
-2.61235e-06
-1.12307e-06
-3.14323e-05
3.73277e-06
-3.33422e-05
8.09078e-06
-2.85011e-05
1.17256e-05
-2.31681e-05
1.49906e-05
-1.92939e-05
1.82921e-05
-1.64387e-05
2.19962e-05
-1.37224e-05
2.64577e-05
-1.06338e-05
3.18979e-05
-7.02872e-06
3.79456e-05
-3.11066e-06
4.48532e-05
2.12669e-07
5.55539e-05
4.39039e-06
6.86746e-05
1.13327e-05
8.20035e-05
1.34636e-05
6.47477e-05
1.00474e-05
6.20869e-05
1.53523e-05
4.66681e-05
7.10206e-06
2.42342e-05
-1.43196e-05
3.77538e-06
-4.77709e-06
-2.01783e-06
-1.01268e-05
9.66878e-06
-2.64606e-05
-2.80622e-05
1.83995e-05
-2.07191e-06
-5.40377e-07
1.93492e-07
-3.36976e-05
4.90567e-06
-3.80544e-05
9.59925e-06
-3.31948e-05
1.37482e-05
-2.73172e-05
1.75772e-05
-2.3123e-05
2.14775e-05
-2.03391e-05
2.57874e-05
-1.80324e-05
3.07602e-05
-1.56065e-05
3.66292e-05
-1.28977e-05
4.35438e-05
-1.0025e-05
5.08964e-05
-7.13977e-06
5.91765e-05
-3.88965e-06
7.09082e-05
-3.99007e-07
8.2077e-05
2.29482e-06
9.21106e-05
1.38526e-08
0.000107294
1.69156e-07
0.000117549
-3.1528e-06
0.000108888
-5.659e-06
0.000104325
-2.14255e-07
9.89146e-05
-4.71655e-06
9.27484e-05
-2.02945e-05
-2.7137e-05
9.18231e-05
-9.17435e-07
3.77132e-07
1.30481e-06
-3.59198e-05
6.11644e-06
-4.2866e-05
1.11115e-05
-3.81899e-05
1.56552e-05
-3.1861e-05
1.98772e-05
-2.73452e-05
2.41351e-05
-2.45972e-05
2.87469e-05
-2.26442e-05
3.39189e-05
-2.07785e-05
3.97635e-05
-1.87422e-05
4.62897e-05
-1.65509e-05
5.34462e-05
-1.42961e-05
6.15818e-05
-1.20252e-05
7.11197e-05
-9.937e-06
8.18131e-05
-8.39858e-06
9.02475e-05
-8.4204e-06
9.94936e-05
-9.07691e-06
0.000107152
-1.08114e-05
0.000115476
-1.39832e-05
0.000129794
-1.45318e-05
0.000142591
-1.75145e-05
0.000147409
-2.51122e-05
-3.12971e-05
0.000151569
-1.061e-07
4.83308e-07
2.36196e-06
-3.83879e-05
7.25486e-06
-4.7759e-05
1.24892e-05
-4.34244e-05
1.73347e-05
-3.67066e-05
2.18616e-05
-3.18723e-05
2.63908e-05
-2.91264e-05
3.12116e-05
-2.74651e-05
3.65017e-05
-2.60686e-05
4.23422e-05
-2.45826e-05
4.87582e-05
-2.29668e-05
5.57696e-05
-2.13075e-05
6.34594e-05
-1.9715e-05
7.18628e-05
-1.83404e-05
8.08285e-05
-1.73641e-05
8.95285e-05
-1.71203e-05
9.81096e-05
-1.76579e-05
0.000106188
-1.88902e-05
0.000113081
-2.08759e-05
0.000121311
-2.2762e-05
0.000129435
-2.56383e-05
0.000135261
-3.09382e-05
-3.69924e-05
0.000140956
4.75025e-07
8.32623e-09
3.2912e-06
-4.12041e-05
8.29955e-06
-5.27674e-05
1.36792e-05
-4.88042e-05
1.87151e-05
-4.17426e-05
2.34551e-05
-3.66124e-05
2.81838e-05
-3.38553e-05
3.31545e-05
-3.24359e-05
3.85175e-05
-3.14316e-05
4.43371e-05
-3.04022e-05
5.06289e-05
-2.92585e-05
5.73921e-05
-2.80707e-05
6.46324e-05
-2.69552e-05
7.23334e-05
-2.60412e-05
8.04361e-05
-2.54667e-05
8.87043e-05
-2.53884e-05
9.69449e-05
-2.58984e-05
0.000104998
-2.69431e-05
0.000112599
-2.84768e-05
0.000120261
-3.04242e-05
0.000127719
-3.30965e-05
0.000133693
-3.69115e-05
-4.13321e-05
0.000138032
8.32412e-07
-8.24122e-07
4.10033e-06
-4.44722e-05
9.24278e-06
-5.79101e-05
1.46848e-05
-5.42464e-05
1.98184e-05
-4.68763e-05
2.47029e-05
-4.14969e-05
2.95871e-05
-3.87396e-05
3.4679e-05
-3.75278e-05
4.00951e-05
-3.68476e-05
4.58822e-05
-3.61892e-05
5.20487e-05
-3.5425e-05
5.85853e-05
-3.46073e-05
6.54736e-05
-3.38434e-05
7.26798e-05
-3.32472e-05
8.01414e-05
-3.29282e-05
8.77373e-05
-3.29844e-05
9.53225e-05
-3.34834e-05
0.000102811
-3.4431e-05
0.000110144
-3.58098e-05
0.000117341
-3.76215e-05
0.000124181
-3.99366e-05
0.000130141
-4.28713e-05
-4.62909e-05
0.000135099
1.18534e-06
-2.00956e-06
4.86191e-06
-4.81491e-05
1.01114e-05
-6.31598e-05
1.55346e-05
-5.96696e-05
2.06804e-05
-5.20222e-05
2.56503e-05
-4.64667e-05
3.0657e-05
-4.37463e-05
3.58536e-05
-4.27245e-05
4.13165e-05
-4.23105e-05
4.70726e-05
-4.19452e-05
5.31247e-05
-4.14769e-05
5.94628e-05
-4.09453e-05
6.60665e-05
-4.0447e-05
7.29006e-05
-4.00811e-05
7.99081e-05
-3.99356e-05
8.70053e-05
-4.00818e-05
9.40914e-05
-4.05695e-05
0.000101082
-4.14213e-05
0.00010791
-4.26381e-05
0.000114517
-4.42289e-05
0.000120794
-4.6213e-05
0.00012652
-4.85977e-05
-5.1302e-05
0.000131531
1.58765e-06
-3.59738e-06
5.63564e-06
-5.21973e-05
1.09413e-05
-6.84655e-05
1.62704e-05
-6.49988e-05
2.13571e-05
-5.71087e-05
2.63618e-05
-5.14714e-05
3.14603e-05
-4.88448e-05
3.67444e-05
-4.80085e-05
4.22466e-05
-4.78125e-05
4.79741e-05
-4.76727e-05
5.39259e-05
-4.74286e-05
6.00948e-05
-4.71141e-05
6.64647e-05
-4.68168e-05
7.30063e-05
-4.66228e-05
7.96734e-05
-4.66027e-05
8.64018e-05
-4.68103e-05
9.31136e-05
-4.72813e-05
9.97273e-05
-4.80349e-05
0.000106166
-4.90765e-05
0.000112347
-5.04102e-05
0.000118172
-5.20374e-05
0.000123512
-5.39376e-05
-5.60433e-05
0.000128253
2.04699e-06
-5.64455e-06
6.44831e-06
-5.65988e-05
1.1752e-05
-7.37692e-05
1.69229e-05
-7.01696e-05
2.18982e-05
-6.20839e-05
2.69002e-05
-5.64733e-05
3.20628e-05
-5.40074e-05
3.74139e-05
-5.33595e-05
4.29428e-05
-5.33414e-05
4.86402e-05
-5.337e-05
5.45039e-05
-5.32923e-05
6.05322e-05
-5.31423e-05
6.67152e-05
-5.29998e-05
7.30298e-05
-5.29375e-05
7.9438e-05
-5.3011e-05
8.58882e-05
-5.32604e-05
9.23176e-05
-5.37107e-05
9.86556e-05
-5.4373e-05
0.000104827
-5.52483e-05
0.00011075
-5.63332e-05
0.000116332
-5.76194e-05
0.000121473
-5.90784e-05
-6.06338e-05
0.000126064
2.54683e-06
-8.19153e-06
7.2914e-06
-6.13435e-05
1.25393e-05
-7.90171e-05
1.75029e-05
-7.51331e-05
2.23351e-05
-6.6916e-05
2.73098e-05
-6.14479e-05
3.25118e-05
-5.92093e-05
3.79059e-05
-5.87535e-05
4.34436e-05
-5.88791e-05
4.91037e-05
-5.90301e-05
5.48862e-05
-5.90749e-05
6.07957e-05
-5.90519e-05
6.6829e-05
-5.90333e-05
7.29692e-05
-5.90781e-05
7.91858e-05
-5.92278e-05
8.54359e-05
-5.95105e-05
9.1666e-05
-5.99407e-05
9.78126e-05
-6.05194e-05
0.000103807
-6.1242e-05
0.000109576
-6.21027e-05
0.000115041
-6.30846e-05
0.000120107
-6.41433e-05
-6.51701e-05
0.000124643
3.06386e-06
-1.12555e-05
8.13441e-06
-6.64141e-05
1.32799e-05
-8.41626e-05
1.80052e-05
-7.98583e-05
2.26816e-05
-7.15924e-05
2.76164e-05
-6.63827e-05
3.28362e-05
-6.44291e-05
3.82471e-05
-6.41643e-05
4.3772e-05
-6.44039e-05
4.93841e-05
-6.46423e-05
5.50881e-05
-6.47789e-05
6.08946e-05
-6.48586e-05
6.68061e-05
-6.49448e-05
7.28114e-05
-6.50834e-05
7.88868e-05
-6.5303e-05
8.49978e-05
-6.56214e-05
9.10988e-05
-6.60416e-05
9.71321e-05
-6.65526e-05
0.000103036
-6.71457e-05
0.000108752
-6.78184e-05
0.000114208
-6.85403e-05
0.000119295
-6.92305e-05
-6.9728e-05
0.000123853
3.57702e-06
-1.48325e-05
8.9396e-06
-7.17766e-05
1.39427e-05
-8.91656e-05
1.84168e-05
-8.43324e-05
2.29409e-05
-7.61165e-05
2.78307e-05
-7.12726e-05
3.3048e-05
-6.96462e-05
3.84485e-05
-6.95648e-05
4.39374e-05
-6.98928e-05
4.94894e-05
-7.01943e-05
5.51153e-05
-7.0405e-05
6.08306e-05
-7.05742e-05
6.66416e-05
-7.07561e-05
7.25415e-05
-7.09832e-05
7.85127e-05
-7.1274e-05
8.45292e-05
-7.16377e-05
9.0554e-05
-7.20664e-05
9.65384e-05
-7.25371e-05
0.000102432
-7.30391e-05
0.000108187
-7.35738e-05
0.000113734
-7.40867e-05
0.000118941
-7.44373e-05
-7.44136e-05
0.000123626
4.06933e-06
-1.89019e-05
9.67112e-06
-7.73784e-05
1.44997e-05
-9.39942e-05
1.87275e-05
-8.85603e-05
2.31138e-05
-8.05028e-05
2.79562e-05
-7.6115e-05
3.31494e-05
-7.48393e-05
3.85114e-05
-7.49267e-05
4.39413e-05
-7.53227e-05
4.94204e-05
-7.56735e-05
5.49665e-05
-7.59511e-05
6.05987e-05
-7.62065e-05
6.63254e-05
-7.64827e-05
7.21431e-05
-7.68008e-05
7.80397e-05
-7.71704e-05
8.39972e-05
-7.75951e-05
8.99897e-05
-7.80587e-05
9.59814e-05
-7.85286e-05
0.000101935
-7.89929e-05
0.000107812
-7.94511e-05
0.000113542
-7.9816e-05
0.000118977
-7.98733e-05
-7.93796e-05
0.000123943
4.52552e-06
-2.34274e-05
1.02992e-05
-8.31521e-05
1.49328e-05
-9.86278e-05
1.89347e-05
-9.25622e-05
2.32037e-05
-8.47717e-05
2.79955e-05
-8.09066e-05
3.3142e-05
-7.99857e-05
3.84386e-05
-8.02231e-05
4.37886e-05
-8.06727e-05
4.91833e-05
-8.10682e-05
5.46466e-05
-8.14145e-05
6.02001e-05
-8.17601e-05
6.58535e-05
-8.2136e-05
7.16071e-05
-8.25541e-05
7.7454e-05
-8.30171e-05
8.33843e-05
-8.35254e-05
8.93845e-05
-8.40592e-05
9.54336e-05
-8.45777e-05
0.000101509
-8.50678e-05
0.00010758
-8.5523e-05
0.000113582
-8.58174e-05
0.000119372
-8.56641e-05
-8.48085e-05
0.000124801
4.93138e-06
-2.83588e-05
1.08056e-05
-8.90263e-05
1.5235e-05
-0.000103057
1.90414e-05
-9.63686e-05
2.32153e-05
-8.89454e-05
2.79521e-05
-8.56432e-05
3.30316e-05
-8.50651e-05
3.82413e-05
-8.54328e-05
4.34967e-05
-8.59282e-05
4.87996e-05
-8.63713e-05
5.41784e-05
-8.67933e-05
5.9656e-05
-8.72377e-05
6.5244e-05
-8.7724e-05
7.09471e-05
-8.82573e-05
7.67644e-05
-8.88346e-05
8.26954e-05
-8.94562e-05
8.87388e-05
-9.01025e-05
9.48872e-05
-9.07266e-05
0.000101135
-9.13156e-05
0.000107467
-9.18546e-05
0.000113821
-9.21718e-05
0.000120082
-9.19256e-05
-9.08833e-05
0.000126157
5.2743e-06
-3.3633e-05
1.1181e-05
-9.49329e-05
1.54051e-05
-0.000107281
1.90494e-05
-0.000100013
2.3149e-05
-9.30448e-05
2.78277e-05
-9.03217e-05
3.28259e-05
-9.00631e-05
3.79363e-05
-9.05432e-05
4.30909e-05
-9.10828e-05
4.8301e-05
-9.15814e-05
5.35969e-05
-9.20894e-05
5.90025e-05
-9.26433e-05
6.45318e-05
-9.32534e-05
7.01948e-05
-9.39201e-05
7.59976e-05
-9.46376e-05
8.195e-05
-9.54088e-05
8.80614e-05
-9.62136e-05
9.43389e-05
-9.70046e-05
0.0001008
-9.77769e-05
0.000107444
-9.8498e-05
0.000114206
-9.89351e-05
0.000121022
-9.87413e-05
-9.78113e-05
0.00012795
5.54707e-06
-3.91799e-05
1.14249e-05
-0.000100811
1.54424e-05
-0.000111299
1.89521e-05
-0.000103522
2.29951e-05
-9.70875e-05
2.76155e-05
-9.4942e-05
3.25252e-05
-9.49729e-05
3.75315e-05
-9.55496e-05
4.2585e-05
-9.61364e-05
4.77048e-05
-9.67011e-05
5.29214e-05
-9.7306e-05
5.82583e-05
-9.79803e-05
6.37325e-05
-9.87279e-05
6.93592e-05
-9.95469e-05
7.51537e-05
-0.000100432
8.11351e-05
-0.00010139
8.73217e-05
-0.0001024
9.37387e-05
-0.000103422
0.000100429
-0.000104467
0.000107403
-0.000105472
0.000114603
-0.000106135
0.000122044
-0.000106182
-0.000105861
0.000130094
5.75369e-06
-4.49336e-05
1.15441e-05
-0.000106601
1.53422e-05
-0.000115097
1.87327e-05
-0.000106913
2.27315e-05
-0.000101086
2.72936e-05
-9.95042e-05
3.21094e-05
-9.97889e-05
3.70073e-05
-0.000100448
4.19577e-05
-0.000101087
4.69856e-05
-0.000101729
5.21202e-05
-0.000102441
5.7384e-05
-0.000103244
6.27963e-05
-0.00010414
6.83776e-05
-0.000105128
7.41518e-05
-0.000106206
8.01467e-05
-0.000107385
8.63898e-05
-0.000108644
9.29235e-05
-0.000109955
9.98094e-05
-0.000111353
0.000107081
-0.000112744
0.000114719
-0.000113773
0.000122852
-0.000114315
-0.000115223
0.000132213
5.91184e-06
-5.08454e-05
1.15515e-05
-0.000112241
1.5099e-05
-0.000118644
1.83729e-05
-0.000110187
2.23315e-05
-0.000105045
2.68277e-05
-0.000104001
3.15363e-05
-0.000104498
3.63127e-05
-0.000105224
4.1147e-05
-0.000105921
4.60689e-05
-0.000106651
5.11047e-05
-0.000107477
5.62751e-05
-0.000108415
6.16013e-05
-0.000109467
6.71087e-05
-0.000110636
7.28277e-05
-0.000111925
7.87925e-05
-0.000113349
8.50401e-05
-0.000114892
9.16224e-05
-0.000116537
9.86114e-05
-0.000118343
0.000106087
-0.000120219
0.000114108
-0.000121794
0.000122873
-0.00012308
-0.000125702
0.000133352
6.04876e-06
-5.68942e-05
1.1463e-05
-0.000117655
1.47152e-05
-0.000121896
1.78676e-05
-0.000113339
2.17781e-05
-0.000108956
2.61856e-05
-0.000108408
3.07591e-05
-0.000109071
3.53869e-05
-0.000109852
4.00784e-05
-0.000110613
4.48654e-05
-0.000111438
4.97701e-05
-0.000112381
5.48116e-05
-0.000113457
6.00121e-05
-0.000114667
6.54014e-05
-0.000116025
7.10122e-05
-0.000117535
7.68813e-05
-0.000119219
8.30517e-05
-0.000121063
8.95751e-05
-0.00012306
9.65297e-05
-0.000125297
0.000104062
-0.000127752
0.000112292
-0.000130024
0.000121341
-0.000132129
-0.000136652
0.000132291
6.19051e-06
-6.30848e-05
1.12946e-05
-0.000122759
1.42095e-05
-0.000124811
1.7237e-05
-0.000116366
2.10788e-05
-0.000112797
2.53583e-05
-0.000112688
2.97568e-05
-0.00011347
3.42001e-05
-0.000114295
3.8714e-05
-0.000115127
4.33296e-05
-0.000116053
4.80646e-05
-0.000117116
5.29372e-05
-0.000118329
5.79695e-05
-0.000119699
6.31931e-05
-0.000121248
6.8638e-05
-0.00012298
7.43391e-05
-0.00012492
8.03379e-05
-0.000127061
8.66805e-05
-0.000129403
9.34473e-05
-0.000132064
0.000100847
-0.000135151
0.00010897
-0.000138148
0.000117726
-0.000140885
-0.000147332
0.000128406
6.34905e-06
-6.9434e-05
1.10582e-05
-0.000127468
1.3616e-05
-0.000127369
1.6524e-05
-0.000119274
2.02668e-05
-0.00011654
2.43715e-05
-0.000116793
2.85543e-05
-0.000117652
3.27802e-05
-0.000118521
3.70856e-05
-0.000119432
4.14981e-05
-0.000120466
4.6032e-05
-0.000121651
5.07045e-05
-0.000123002
5.55365e-05
-0.000124531
6.05555e-05
-0.000126267
6.57856e-05
-0.00012821
7.12534e-05
-0.000130389
7.6993e-05
-0.000132801
8.30449e-05
-0.000135455
8.94709e-05
-0.00013849
9.65118e-05
-0.000142192
0.000104133
-0.000145769
0.000112089
-0.000148841
-0.000157252
0.00012201
6.51428e-06
-7.59482e-05
1.07576e-05
-0.000131712
1.2972e-05
-0.000129583
1.57752e-05
-0.000122078
1.9386e-05
-0.000120151
2.3275e-05
-0.000120682
2.72141e-05
-0.000121591
3.12029e-05
-0.00012251
3.52817e-05
-0.000123511
3.94729e-05
-0.000124657
4.37894e-05
-0.000125967
4.82456e-05
-0.000127458
5.28592e-05
-0.000129145
5.76477e-05
-0.000131055
6.26285e-05
-0.000133191
6.78141e-05
-0.000135575
7.32301e-05
-0.000138216
7.89067e-05
-0.000141131
8.48524e-05
-0.000144435
9.12955e-05
-0.000148635
9.80484e-05
-0.000152522
0.000104913
-0.000155706
-0.000165827
0.000113488
6.65688e-06
-8.26051e-05
1.03867e-05
-0.000135442
1.23032e-05
-0.0001315
1.50191e-05
-0.000124793
1.84692e-05
-0.000123601
2.21179e-05
-0.00012433
2.58035e-05
-0.000125277
2.95513e-05
-0.000126258
3.3399e-05
-0.000127358
3.73644e-05
-0.000128622
4.14588e-05
-0.000130062
4.56929e-05
-0.000131692
5.00788e-05
-0.000133531
5.46218e-05
-0.000135598
5.93344e-05
-0.000137904
6.42141e-05
-0.000140454
6.92769e-05
-0.000143279
7.45325e-05
-0.000146386
7.99162e-05
-0.000149819
8.55811e-05
-0.0001543
9.12592e-05
-0.0001582
9.68428e-05
-0.00016129
-0.000171859
0.000102875
6.74034e-06
-8.93456e-05
9.9327e-06
-0.000138634
1.16163e-05
-0.000133184
1.42571e-05
-0.000127434
1.75257e-05
-0.00012687
2.09264e-05
-0.00012773
2.4364e-05
-0.000128715
2.7877e-05
-0.00012977
3.14969e-05
-0.000130978
3.52376e-05
-0.000132363
3.91089e-05
-0.000133933
4.31171e-05
-0.000135701
4.72683e-05
-0.000137682
5.15609e-05
-0.000139891
5.6003e-05
-0.000142346
6.05852e-05
-0.000145037
6.53095e-05
-0.000148003
7.01608e-05
-0.000151237
7.50281e-05
-0.000154686
7.99167e-05
-0.000159189
8.46443e-05
-0.000162927
8.89932e-05
-0.000165639
-0.000174395
9.15286e-05
6.734e-06
-9.60797e-05
9.38433e-06
-0.000141285
1.09042e-05
-0.000134704
1.34716e-05
-0.000130002
1.65445e-05
-0.000129943
1.97013e-05
-0.000130887
2.29022e-05
-0.000131916
2.61886e-05
-0.000133057
2.95842e-05
-0.000134373
3.31001e-05
-0.000135879
3.67442e-05
-0.000137578
4.05206e-05
-0.000139477
4.44319e-05
-0.000141593
4.84786e-05
-0.000143938
5.2664e-05
-0.000146532
5.6985e-05
-0.000149357
6.14272e-05
-0.000152445
6.59642e-05
-0.000155774
7.0505e-05
-0.000159226
7.48665e-05
-0.00016355
7.91545e-05
-0.000167215
8.29601e-05
-0.000169445
-0.000174475
8.30406e-05
6.61764e-06
-0.000102697
8.74012e-06
-0.000143407
1.01583e-05
-0.000136122
1.26426e-05
-0.000132486
1.55097e-05
-0.000132809
1.84302e-05
-0.000133808
2.14041e-05
-0.00013489
2.4468e-05
-0.00013612
2.76386e-05
-0.000137544
3.09249e-05
-0.000139166
3.43341e-05
-0.000140987
3.78713e-05
-0.000143014
4.15404e-05
-0.000145262
4.53487e-05
-0.000147746
4.92983e-05
-0.000150481
5.33992e-05
-0.000153458
5.7631e-05
-0.000156677
6.19789e-05
-0.000160122
6.64352e-05
-0.000163682
7.06749e-05
-0.00016779
7.51745e-05
-0.000171715
7.96437e-05
-0.000173914
-0.000175083
8.0252e-05
6.38715e-06
-0.000109085
8.01258e-06
-0.000145033
9.37711e-06
-0.000137486
1.1759e-05
-0.000134868
1.44118e-05
-0.000135462
1.71021e-05
-0.000136498
1.98527e-05
-0.00013764
2.26919e-05
-0.000138959
2.56314e-05
-0.000140483
2.86795e-05
-0.000142214
3.18441e-05
-0.000144152
3.51337e-05
-0.000146303
3.85569e-05
-0.000148685
4.21271e-05
-0.000151316
4.58503e-05
-0.000154204
4.97457e-05
-0.000157353
5.38081e-05
-0.000160739
5.80469e-05
-0.00016436
6.25575e-05
-0.000168193
6.70191e-05
-0.000172251
7.21051e-05
-0.0001768
7.80576e-05
-0.000179866
-0.000178817
8.17914e-05
6.05104e-06
-0.000115136
7.22562e-06
-0.000146208
8.56571e-06
-0.000138826
1.08193e-05
-0.000137122
1.32501e-05
-0.000137892
1.57117e-05
-0.00013896
1.8236e-05
-0.000140165
2.08428e-05
-0.000141566
2.35408e-05
-0.000143181
2.63386e-05
-0.000145012
2.92464e-05
-0.000147059
3.22763e-05
-0.000149333
3.54417e-05
-0.000151851
3.87572e-05
-0.000154632
4.22356e-05
-0.000157683
4.58972e-05
-0.000161014
4.97643e-05
-0.000164606
5.38722e-05
-0.000168468
5.83725e-05
-0.000172693
6.31305e-05
-0.000177009
6.86903e-05
-0.00018236
7.59129e-05
-0.000187089
-0.000186302
8.33979e-05
5.62601e-06
-0.000120762
6.40879e-06
-0.00014699
7.73088e-06
-0.000140149
9.82606e-06
-0.000139217
1.20268e-05
-0.000140093
1.42564e-05
-0.00014119
1.65458e-05
-0.000142454
1.89081e-05
-0.000143928
2.13511e-05
-0.000145624
2.38842e-05
-0.000147545
2.65196e-05
-0.000149695
2.92713e-05
-0.000152085
3.21536e-05
-0.000154733
3.51784e-05
-0.000157657
3.83621e-05
-0.000160866
4.17227e-05
-0.000164375
4.53017e-05
-0.000168186
4.91604e-05
-0.000172327
5.34214e-05
-0.000176954
5.82282e-05
-0.000181816
6.37707e-05
-0.000187902
7.12004e-05
-0.000194519
-0.000196463
8.1361e-05
5.1319e-06
-0.000125894
5.58593e-06
-0.000147445
6.87557e-06
-0.000141438
8.78096e-06
-0.000141122
1.07429e-05
-0.000142055
1.27326e-05
-0.00014318
1.47752e-05
-0.000144496
1.68798e-05
-0.000146032
1.90538e-05
-0.000147798
2.13071e-05
-0.000149799
2.36523e-05
-0.00015204
2.61022e-05
-0.000154535
2.86676e-05
-0.000157298
3.13552e-05
-0.000160345
3.4177e-05
-0.000163688
3.71469e-05
-0.000167344
4.0305e-05
-0.000171344
4.37251e-05
-0.000175747
4.7454e-05
-0.000180683
5.18177e-05
-0.00018618
5.66797e-05
-0.000192765
6.29363e-05
-0.000200776
-0.000206715
7.31884e-05
4.58897e-06
-0.000130483
4.77403e-06
-0.00014763
6.00011e-06
-0.000142665
7.68599e-06
-0.000142808
9.39953e-06
-0.000143769
1.11392e-05
-0.000144919
1.29232e-05
-0.00014628
1.47583e-05
-0.000147868
1.66514e-05
-0.000149692
1.86122e-05
-0.000151759
2.06513e-05
-0.000154079
2.27785e-05
-0.000156662
2.49985e-05
-0.000159518
2.73116e-05
-0.000162658
2.97193e-05
-0.000166095
3.22257e-05
-0.000169851
3.4848e-05
-0.000173967
3.76284e-05
-0.000178527
4.05507e-05
-0.000183605
4.38658e-05
-0.000189495
4.73316e-05
-0.00019623
5.12212e-05
-0.000204666
-0.00021376
5.82659e-05
4.01282e-06
-0.000134496
3.98213e-06
-0.000147599
5.10557e-06
-0.000143788
6.54736e-06
-0.00014425
8.00343e-06
-0.000145225
9.4834e-06
-0.000146399
1.09991e-05
-0.000147796
1.25562e-05
-0.000149425
1.41609e-05
-0.000151296
1.58213e-05
-0.00015342
1.75454e-05
-0.000155804
1.93393e-05
-0.000158456
2.12032e-05
-0.000161382
2.31327e-05
-0.000164588
2.51206e-05
-0.000168083
2.71586e-05
-0.000171889
2.92347e-05
-0.000176043
3.1322e-05
-0.000180614
3.33561e-05
-0.000185639
3.528e-05
-0.000191419
3.68737e-05
-0.000197824
3.77449e-05
-0.000205537
-0.000215102
3.90865e-05
3.40777e-06
-0.000137904
3.21321e-06