/*--------------------------------*- C++ -*----------------------------------*\
| =========                 |                                                 |
| \\      /  F ield         | OpenFOAM: The Open Source CFD Toolbox           |
|  \\    /   O peration     | Version:  2206                                  |
|   \\  /    A nd           | Website:  www.openfoam.com                      |
|    \\/     M anipulation  |                                                 |
\*---------------------------------------------------------------------------*/
FoamFile
{
    version     2.0;
    format      ascii;
    arch        "LSB;label=32;scalar=64";
    class       volVectorField;
    location    "0.4";
    object      U;
}
// * * * * * * * * * * * * * * * * * * * * * * * * * * * * * * * * * * * * * //

dimensions      [0 1 -1 0 0 0 0];

internalField   nonuniform List<vector> 
2268
(
(-0.0133014 0.0125866 0)
(-0.0121234 -0.00801062 0)
(0.0025356 -0.0135384 0)
(0.0152043 -0.0107933 0)
(0.0242219 -0.00613212 0)
(0.0288183 -0.00253481 0)
(0.0304443 -0.000608229 0)
(0.0308068 0.000195887 0)
(0.030791 0.000599229 0)
(0.0305191 0.00107946 0)
(0.0298513 0.00183759 0)
(0.0285231 0.00292747 0)
(0.026304 0.00429637 0)
(0.0231137 0.00580964 0)
(0.0189462 0.00735257 0)
(0.0138263 0.00881192 0)
(0.00796881 0.00995031 0)
(0.00164337 0.0100019 0)
(-0.00438547 0.00759095 0)
(-0.00735 0.000169222 0)
(-0.00754181 -0.0148958 0)
(0.00971798 -0.0353202 0)
(0.0185658 0.00274744 0)
(-0.0140648 0.0375118 0)
(-0.0118249 -0.0233533 0)
(0.000966409 -0.0399953 0)
(0.014093 -0.0322696 0)
(0.0234305 -0.0187793 0)
(0.0286177 -0.008388 0)
(0.031072 -0.00290477 0)
(0.0323506 -0.000758011 0)
(0.0332621 7.86018e-05 0)
(0.0339526 0.000872608 0)
(0.0343623 0.00211084 0)
(0.0345495 0.00382531 0)
(0.0345183 0.00589195 0)
(0.0342357 0.00813186 0)
(0.0336662 0.0103858 0)
(0.0327332 0.0124728 0)
(0.0313604 0.0140058 0)
(0.0293246 0.01422 0)
(0.0273499 0.0117412 0)
(0.0225607 0.00432404 0)
(0.0230009 -0.0120715 0)
(0.00718361 -0.0243228 0)
(0.0103028 0.0523857 0)
(-0.0126403 0.0617251 0)
(-0.011494 -0.0356204 0)
(-0.00115601 -0.0650702 0)
(0.0122624 -0.0540842 0)
(0.0222177 -0.0328088 0)
(0.0284668 -0.0160864 0)
(0.0321171 -0.00710273 0)
(0.0344691 -0.00344447 0)
(0.0362091 -0.00193614 0)
(0.0375241 -0.000623788 0)
(0.0383505 0.00118604 0)
(0.0386095 0.00347697 0)
(0.0383398 0.00599366 0)
(0.037578 0.00856275 0)
(0.0363969 0.0110729 0)
(0.0348749 0.0134166 0)
(0.0331428 0.015321 0)
(0.0307943 0.0162338 0)
(0.0289231 0.0156017 0)
(0.0212409 0.0128997 0)
(0.0215405 0.00614301 0)
(-0.00735148 -0.00509705 0)
(0.00141637 0.0443422 0)
(-0.0102075 0.0829991 0)
(-0.00944562 -0.0430349 0)
(-0.00226756 -0.0878359 0)
(0.0114444 -0.0766182 0)
(0.0222157 -0.0491334 0)
(0.0298894 -0.0264901 0)
(0.0351225 -0.0137614 0)
(0.0389159 -0.00809737 0)
(0.0418368 -0.00536913 0)
(0.0440513 -0.00295634 0)
(0.0455672 0.000111817 0)
(0.0462796 0.00389516 0)
(0.0461661 0.0079875 0)
(0.0452451 0.0120325 0)
(0.043488 0.0157985 0)
(0.0408734 0.0191922 0)
(0.0375373 0.0220859 0)
(0.0330079 0.0241278 0)
(0.0289547 0.0253283 0)
(0.019221 0.026781 0)
(0.0201837 0.0276995 0)
(-0.00727329 0.0193389 0)
(0.00441168 0.0375408 0)
(-0.0051778 0.0973953 0)
(-0.00455199 -0.0469214 0)
(-0.000560096 -0.108387 0)
(0.0135956 -0.100611 0)
(0.0253636 -0.0685484 0)
(0.0343174 -0.0404479 0)
(0.0408767 -0.0237547 0)
(0.0458745 -0.0155349 0)
(0.0498179 -0.0110127 0)
(0.0529059 -0.00708992 0)
(0.0551857 -0.00261944 0)
(0.0564808 0.00239321 0)
(0.0567029 0.00786626 0)
(0.0559317 0.0135713 0)
(0.0542272 0.0192539 0)
(0.0516032 0.0246671 0)
(0.0481165 0.0296001 0)
(0.043175 0.0336128 0)
(0.0380897 0.0364754 0)
(0.0282003 0.0394772 0)
(0.025757 0.0435823 0)
(0.00353015 0.0344545 0)
(0.0112318 0.0383485 0)
(0.00225291 0.0958453 0)
(0.00848018 -0.0473657 0)
(0.0138199 -0.125944 0)
(0.023649 -0.124013 0)
(0.0345993 -0.0876194 0)
(0.0440823 -0.0545086 0)
(0.0514665 -0.0348182 0)
(0.0573304 -0.0247464 0)
(0.0618922 -0.0186136 0)
(0.0651709 -0.0128713 0)
(0.0672059 -0.00606816 0)
(0.068489 0.00215587 0)
(0.0692753 0.0107718 0)
(0.069142 0.0186687 0)
(0.0678909 0.0255804 0)
(0.0654586 0.0319382 0)
(0.0619691 0.0381156 0)
(0.0570019 0.0442289 0)
(0.0513217 0.0503227 0)
(0.041989 0.057038 0)
(0.0358633 0.0651036 0)
(0.0171559 0.0606287 0)
(0.0122902 0.0618012 0)
(0.0152635 0.0624635 0)
(0.0555322 -0.0528037 0)
(0.0674979 -0.139121 0)
(0.0550901 -0.141826 0)
(0.0533542 -0.103461 0)
(0.0594228 -0.0659242 0)
(0.0668715 -0.0425169 0)
(0.0742835 -0.0295841 0)
(0.0805658 -0.0213157 0)
(0.0852287 -0.0146255 0)
(0.0885748 -0.00875625 0)
(0.0894497 -0.00358588 0)
(0.0875158 0.00278179 0)
(0.0840361 0.011709 0)
(0.080548 0.0228207 0)
(0.0778017 0.0347059 0)
(0.0756152 0.0458571 0)
(0.0737989 0.0560319 0)
(0.0724023 0.0655631 0)
(0.0679859 0.0744677 0)
(0.064291 0.0853452 0)
(0.0464059 0.0851432 0)
(0.0319437 0.0945995 0)
(0.0488877 -0.0503883 0)
(0.13379 -0.12856 0)
(0.132609 -0.15191 0)
(0.089312 -0.146022 0)
(0.0700893 -0.128228 0)
(0.0722063 -0.107523 0)
(0.0808115 -0.0893736 0)
(0.0905365 -0.0731896 0)
(0.0984887 -0.0563147 0)
(0.103027 -0.0370819 0)
(0.105625 -0.0147747 0)
(0.106632 0.00893206 0)
(0.107111 0.0297531 0)
(0.108352 0.0406899 0)
(0.108577 0.0435014 0)
(0.105612 0.0443056 0)
(0.101045 0.0431801 0)
(0.0978151 0.0465614 0)
(0.0968238 0.0574533 0)
(0.0970535 0.0740889 0)
(0.0903025 0.102618 0)
(0.097526 0.139932 0)
(0.015345 0.23472 0)
(0.0195089 -0.0217144 0)
(0.0645623 -0.0266821 0)
(0.114377 -0.0262128 0)
(0.161861 -0.0239664 0)
(0.203429 -0.0198724 0)
(0.236211 -0.0145908 0)
(0.258657 -0.00901279 0)
(0.270803 -0.00360612 0)
(0.273173 0.0014444 0)
(0.266443 0.00575214 0)
(0.252693 0.00915079 0)
(0.233341 0.0117951 0)
(0.209545 0.0138669 0)
(0.182289 0.0154633 0)
(0.152347 0.0166712 0)
(0.12037 0.0175671 0)
(0.0869019 0.0182132 0)
(0.0524646 0.0186239 0)
(0.0175044 0.0188076 0)
(0.0172856 -0.0628887 0)
(0.062081 -0.0809964 0)
(0.115902 -0.0813969 0)
(0.168448 -0.0746193 0)
(0.213983 -0.0614242 0)
(0.248773 -0.0447329 0)
(0.271717 -0.0274778 0)
(0.283492 -0.011218 0)
(0.285725 0.00339808 0)
(0.280333 0.016004 0)
(0.26782 0.0264566 0)
(0.249069 0.0349445 0)
(0.225084 0.0417392 0)
(0.196838 0.0470815 0)
(0.165221 0.0512064 0)
(0.131002 0.0543071 0)
(0.0948368 0.056535 0)
(0.0573619 0.0579458 0)
(0.0191032 0.0584146 0)
(0.0105016 -0.0997328 0)
(0.0522458 -0.139196 0)
(0.117033 -0.145349 0)
(0.182427 -0.133178 0)
(0.236252 -0.107085 0)
(0.27389 -0.0758218 0)
(0.29615 -0.0451725 0)
(0.305589 -0.0172973 0)
(0.304604 0.00702703 0)
(0.295104 0.0277995 0)
(0.278639 0.0451949 0)
(0.256559 0.0594971 0)
(0.229979 0.0710496 0)
(0.199853 0.0802103 0)
(0.166951 0.0873362 0)
(0.1319 0.0927104 0)
(0.095234 0.0965663 0)
(0.0574939 0.0990092 0)
(0.0191184 0.0998126 0)
(-0.0131372 -0.115275 0)
(0.00941876 -0.192872 0)
(0.1079 -0.227637 0)
(0.206207 -0.206973 0)
(0.275761 -0.159173 0)
(0.315837 -0.107027 0)
(0.335059 -0.0599392 0)
(0.339944 -0.0191209 0)
(0.334078 0.0155788 0)
(0.319743 0.0445676 0)
(0.298784 0.0684065 0)
(0.272726 0.0877764 0)
(0.242697 0.103359 0)
(0.209636 0.115689 0)
(0.174275 0.125246 0)
(0.137161 0.132441 0)
(0.0987559 0.137605 0)
(0.0595123 0.140882 0)
(0.0197741 0.141933 0)
(-0.0773377 -0.0283536 0)
(-0.0963208 -0.245631 0)
(0.0791763 -0.372805 0)
(0.251606 -0.316408 0)
(0.344312 -0.218928 0)
(0.381352 -0.135526 0)
(0.391007 -0.0691284 0)
(0.386936 -0.014818 0)
(0.373397 0.0301627 0)
(0.352229 0.0669967 0)
(0.325245 0.0967592 0)
(0.294037 0.120593 0)
(0.259642 0.139541 0)
(0.222856 0.154418 0)
(0.184341 0.165884 0)
(0.144543 0.174484 0)
(0.103791 0.180644 0)
(0.0624302 0.184553 0)
(0.0207238 0.18573 0)
(-0.222152 -0.0399469 0)
(-0.125225 -0.435209 0)
(0.102922 -0.652772 0)
(0.358343 -0.480503 0)
(0.46378 -0.275605 0)
(0.477049 -0.147522 0)
(0.465856 -0.0642505 0)
(0.447226 0.000984649 0)
(0.422494 0.0546083 0)
(0.391824 0.0977138 0)
(0.356885 0.131984 0)
(0.319147 0.159138 0)
(0.279394 0.180502 0)
(0.23818 0.197152 0)
(0.195963 0.209937 0)
(0.153037 0.219484 0)
(0.109577 0.2263 0)
(0.0657886 0.230623 0)
(0.0218162 0.2318 0)
(-0.122887 0.594224 0)
(0.343433 -0.670212 0)
(0.333998 -1.02046 0)
(0.493876 -0.683207 0)
(0.614032 -0.322904 0)
(0.590144 -0.133515 0)
(0.550251 -0.0375826 0)
(0.515791 0.0326252 0)
(0.477907 0.0912649 0)
(0.435873 0.138321 0)
(0.391774 0.175309 0)
(0.346631 0.204309 0)
(0.300834 0.226901 0)
(0.254706 0.24437 0)
(0.208438 0.257724 0)
(0.16211 0.267659 0)
(0.115743 0.274734 0)
(0.0693638 0.27922 0)
(0.0229762 0.280261 0)
(0.5692 -0.493703 0)
(0.644968 -0.77179 0)
(0.548961 -1.02663 0)
(0.391359 -0.840413 0)
(0.648875 -0.373297 0)
(0.69177 -0.109596 0)
(0.638136 0.00802547 0)
(0.588897 0.0823136 0)
(0.537589 0.143004 0)
(0.482819 0.191201 0)
(0.428372 0.228756 0)
(0.375083 0.25774 0)
(0.322793 0.280039 0)
(0.271491 0.29713 0)
(0.221038 0.310116 0)
(0.171241 0.319761 0)
(0.121941 0.32663 0)
(0.072964 0.33099 0)
(0.024148 0.331736 0)
(-0.0128597 -0.287142 0)
(0.0881673 -0.185483 0)
(-0.0258214 -0.0405375 0)
(-0.0033975 -0.0562334 0)
(-9.72891e-05 -0.0686407 0)
(0.00108424 -0.0823799 0)
(0.0127725 -0.08151 0)
(0.0293255 -0.0700453 0)
(0.0482333 -0.0537783 0)
(0.0685177 -0.0374093 0)
(0.0837208 -0.0246664 0)
(0.0999682 -0.0145999 0)
(0.121972 -0.00397064 0)
(0.135672 0.00788378 0)
(0.132549 0.0293222 0)
(0.113605 0.0540278 0)
(0.099795 0.0578907 0)
(0.101373 0.0563803 0)
(0.109515 0.0612162 0)
(0.127149 0.0714882 0)
(0.140886 0.0982128 0)
(0.209985 0.132085 0)
(0.237434 0.252341 0)
(-0.0846321 -0.210579 0)
(-0.0683026 -0.0152688 0)
(-0.0184889 -0.052695 0)
(0.0309293 -0.122422 0)
(0.0441802 -0.0831645 0)
(0.0547018 -0.0739927 0)
(0.0446781 -0.0698936 0)
(0.0135296 -0.0541845 0)
(-0.0299418 -0.0321744 0)
(-0.0853687 -0.0137443 0)
(-0.261322 -0.00566251 0)
(-0.378791 -0.00915046 0)
(-0.251704 -0.0100496 0)
(-0.0667717 0.0186184 0)
(0.0159824 0.0546279 0)
(0.0619117 0.0710849 0)
(0.105278 0.0603827 0)
(0.132779 0.0548027 0)
(0.142056 0.0538049 0)
(0.158388 0.0428369 0)
(0.182703 0.0474202 0)
(0.239789 0.0523472 0)
(0.30874 0.102999 0)
(-0.088661 -0.114417 0)
(-0.0574087 -0.182213 0)
(-0.0011943 -0.158802 0)
(0.0407813 -0.146649 0)
(0.0507636 -0.118255 0)
(0.061363 -0.0959572 0)
(0.0707962 -0.0731945 0)
(0.0830676 -0.0408015 0)
(0.0990116 0.0108256 0)
(0.115557 0.0868756 0)
(0.11797 0.12281 0)
(0.0762873 0.109591 0)
(0.0959588 -0.214828 0)
(-0.379301 -0.198879 0)
(-0.455581 -0.0731063 0)
(-0.218744 -0.0289725 0)
(-0.0869109 -0.0247357 0)
(0.0101942 0.023425 0)
(0.0800332 0.0449278 0)
(0.152306 0.0369698 0)
(0.210462 0.0292416 0)
(0.254682 0.00853226 0)
(0.309265 -0.0183249 0)
(-0.0546908 -0.068903 0)
(-0.0231342 -0.203452 0)
(0.00293846 -0.18876 0)
(0.0367902 -0.159487 0)
(0.0549153 -0.128018 0)
(0.0701836 -0.10478 0)
(0.0849556 -0.0847543 0)
(0.10101 -0.0615309 0)
(0.121337 -0.0329063 0)
(0.156088 0.00505198 0)
(0.209908 0.04817 0)
(0.280919 0.0964003 0)
(0.291592 0.224608 0)
(0.229534 0.255768 0)
(0.00694339 0.152009 0)
(0.0594274 -0.367332 0)
(-0.387405 -0.150466 0)
(-0.406275 -0.130891 0)
(-0.209796 -0.117176 0)
(-0.0813732 -0.115343 0)
(0.0221177 -0.0665319 0)
(0.0908367 -0.0474524 0)
(0.173233 -0.0567608 0)
(-0.0332272 -0.0280396 0)
(-0.016218 -0.21613 0)
(0.00483754 -0.222343 0)
(0.0406357 -0.1888 0)
(0.0659796 -0.152568 0)
(0.0879975 -0.125849 0)
(0.109405 -0.105114 0)
(0.132364 -0.0840389 0)
(0.159092 -0.0590514 0)
(0.191499 -0.0294349 0)
(0.229276 -0.00198881 0)
(0.273955 0.0219668 0)
(0.327589 0.047073 0)
(0.422405 0.138144 0)
(0.460769 0.174655 0)
(0.546976 0.190569 0)
(0.39764 0.237754 0)
(0.329293 0.0349874 0)
(0.335319 -0.332806 0)
(-0.00697488 -0.215868 0)
(-0.00541156 -0.192913 0)
(0.0410464 -0.205552 0)
(0.0935047 -0.255658 0)
(-0.019533 -0.00899354 0)
(-0.00960375 -0.234693 0)
(0.0133643 -0.256641 0)
(0.0482337 -0.221358 0)
(0.077342 -0.180878 0)
(0.103063 -0.151854 0)
(0.128241 -0.131585 0)
(0.155116 -0.113524 0)
(0.185542 -0.0936963 0)
(0.221037 -0.0711911 0)
(0.262916 -0.0466273 0)
(0.309968 -0.0197801 0)
(0.3615 0.0080324 0)
(0.421816 0.034604 0)
(0.503162 0.0485122 0)
(0.572318 0.0125106 0)
(0.661688 0.0343597 0)
(0.717304 0.0282124 0)
(0.788697 0.0541461 0)
(0.69994 0.117832 0)
(0.634661 0.0438185 0)
(0.661207 -0.156432 0)
(0.600511 -0.182327 0)
(-0.0113384 0.00147368 0)
(-0.00193069 -0.249746 0)
(0.0220823 -0.290857 0)
(0.0566262 -0.2562 0)
(0.0883978 -0.212148 0)
(0.116911 -0.180829 0)
(0.144497 -0.160973 0)
(0.173489 -0.14568 0)
(0.205543 -0.130261 0)
(0.241644 -0.113219 0)
(0.282205 -0.0950429 0)
(0.327126 -0.0770108 0)
(0.377289 -0.058765 0)
(0.434146 -0.0405392 0)
(0.499919 -0.0261396 0)
(0.564751 -0.0219221 0)
(0.625464 -0.0306537 0)
(0.677217 -0.061941 0)
(0.730408 -0.105766 0)
(0.800956 -0.0997658 0)
(0.889459 -0.100198 0)
(0.963823 -0.129063 0)
(0.993793 -0.155509 0)
(-0.00630337 0.00511667 0)
(0.00441906 -0.266342 0)
(0.0300573 -0.325603 0)
(0.0647927 -0.293113 0)
(0.0983025 -0.246084 0)
(0.128934 -0.212421 0)
(0.158425 -0.19267 0)
(0.188966 -0.179709 0)
(0.222079 -0.168033 0)
(0.258559 -0.155443 0)
(0.298726 -0.141876 0)
(0.342721 -0.127973 0)
(0.390813 -0.114228 0)
(0.443343 -0.102123 0)
(0.500055 -0.093751 0)
(0.558846 -0.0932303 0)
(0.61676 -0.0979671 0)
(0.67177 -0.108632 0)
(0.719835 -0.122529 0)
(0.767597 -0.134513 0)
(0.822842 -0.16193 0)
(0.872949 -0.218623 0)
(0.909748 -0.275863 0)
(-0.00361732 0.00272372 0)
(0.00936207 -0.285183 0)
(0.0370916 -0.361145 0)
(0.0721996 -0.331429 0)
(0.10666 -0.281791 0)
(0.138658 -0.24587 0)
(0.169543 -0.226052 0)
(0.20124 -0.215004 0)
(0.235082 -0.206443 0)
(0.271729 -0.197501 0)
(0.311419 -0.187702 0)
(0.354194 -0.177628 0)
(0.400064 -0.168156 0)
(0.449001 -0.16035 0)
(0.500819 -0.15542 0)
(0.554751 -0.154524 0)
(0.609416 -0.157682 0)
(0.663256 -0.16497 0)
(0.714833 -0.176349 0)
(0.764639 -0.190327 0)
(0.814491 -0.210393 0)
(0.860526 -0.238937 0)
(0.895715 -0.270476 0)
(-0.00244738 -0.00209069 0)
(0.0135543 -0.307291 0)
(0.0431553 -0.397719 0)
(0.0786614 -0.370505 0)
(0.113524 -0.318539 0)
(0.146311 -0.280606 0)
(0.178229 -0.2607 0)
(0.210876 -0.251252 0)
(0.245307 -0.245274 0)
(0.282021 -0.239322 0)
(0.321187 -0.232604 0)
(0.362815 -0.225555 0)
(0.406833 -0.218992 0)
(0.453088 -0.213813 0)
(0.501283 -0.210899 0)
(0.550852 -0.211079 0)
(0.600923 -0.214845 0)
(0.650602 -0.222229 0)
(0.699348 -0.232985 0)
(0.747137 -0.246728 0)
(0.793667 -0.264648 0)
(0.836528 -0.28863 0)
(0.872982 -0.317197 0)
(-0.00159376 -0.00944591 0)
(0.0176947 -0.332421 0)
(0.0487669 -0.435223 0)
(0.0843297 -0.409745 0)
(0.119066 -0.355668 0)
(0.152159 -0.316164 0)
(0.184813 -0.296348 0)
(0.218269 -0.288308 0)
(0.253232 -0.284448 0)
(0.290003 -0.280884 0)
(0.328684 -0.276588 0)
(0.369281 -0.271883 0)
(0.411731 -0.267501 0)
(0.45588 -0.264215 0)
(0.501426 -0.262727 0)
(0.547874 -0.263624 0)
(0.594585 -0.267295 0)
(0.640929 -0.27387 0)
(0.686406 -0.283291 0)
(0.730646 -0.295595 0)
(0.773234 -0.31108 0)
(0.813069 -0.32982 0)
(0.848745 -0.350906 0)
(-0.000466282 -0.0193629 0)
(0.0220889 -0.360274 0)
(0.0543296 -0.47333 0)
(0.0894764 -0.448568 0)
(0.123591 -0.3926 0)
(0.156598 -0.352138 0)
(0.189734 -0.332768 0)
(0.223854 -0.326064 0)
(0.259274 -0.323934 0)
(0.296087 -0.322222 0)
(0.334335 -0.319775 0)
(0.374038 -0.316846 0)
(0.415171 -0.314098 0)
(0.457615 -0.312197 0)
(0.501113 -0.311711 0)
(0.545243 -0.313073 0)
(0.589487 -0.316574 0)
(0.633332 -0.322374 0)
(0.676292 -0.330538 0)
(0.717857 -0.341135 0)
(0.757485 -0.354216 0)
(0.79446 -0.369653 0)
(0.828003 -0.386892 0)
(0.00108353 -0.0323527 0)
(0.0268078 -0.390677 0)
(0.0600009 -0.511611 0)
(0.0942795 -0.486459 0)
(0.127364 -0.428885 0)
(0.160006 -0.388206 0)
(0.193422 -0.369747 0)
(0.228051 -0.364386 0)
(0.263821 -0.363674 0)
(0.300628 -0.363364 0)
(0.338473 -0.3623 0)
(0.377412 -0.360715 0)
(0.417468 -0.359211 0)
(0.458567 -0.358358 0)
(0.500489 -0.358607 0)
(0.542867 -0.360285 0)
(0.58526 -0.363602 0)
(0.627246 -0.368671 0)
(0.668396 -0.375534 0)
(0.708211 -0.384203 0)
(0.746139 -0.394654 0)
(0.781595 -0.406709 0)
(0.814062 -0.419855 0)
(0.0030115 -0.0487997 0)
(0.0317473 -0.423572 0)
(0.0657063 -0.549652 0)
(0.0987615 -0.522991 0)
(0.130532 -0.46421 0)
(0.162642 -0.424135 0)
(0.19619 -0.407084 0)
(0.231164 -0.403099 0)
(0.26714 -0.403538 0)
(0.303854 -0.404258 0)
(0.341294 -0.404211 0)
(0.379558 -0.403653 0)
(0.418726 -0.403129 0)
(0.458771 -0.403116 0)
(0.499506 -0.40396 0)
(0.540603 -0.405902 0)
(0.581679 -0.409074 0)
(0.622368 -0.413511 0)
(0.662284 -0.419201 0)
(0.700975 -0.426119 0)
(0.737971 -0.434199 0)
(0.772744 -0.443217 0)
(0.804851 -0.452546 0)
(0.00521029 -0.0689331 0)
(0.0367225 -0.458895 0)
(0.0712286 -0.5871 0)
(0.102818 -0.557877 0)
(0.133135 -0.49842 0)
(0.164648 -0.459799 0)
(0.198223 -0.444615 0)
(0.233379 -0.442019 0)
(0.269394 -0.443375 0)
(0.305904 -0.444826 0)
(0.342909 -0.445522 0)
(0.380558 -0.445761 0)
(0.418981 -0.44603 0)
(0.458191 -0.44671 0)
(0.498032 -0.448055 0)
(0.538209 -0.450232 0)
(0.578389 -0.453302 0)
(0.618255 -0.457218 0)
(0.657487 -0.461907 0)
(0.695694 -0.46733 0)
(0.732466 -0.473352 0)
(0.767266 -0.479591 0)
(0.799545 -0.485098 0)
(0.0075724 -0.0928107 0)
(0.0415336 -0.496482 0)
(0.0763117 -0.623654 0)
(0.106293 -0.590967 0)
(0.135151 -0.531497 0)
(0.166082 -0.495149 0)
(0.1996 -0.482204 0)
(0.234769 -0.48097 0)
(0.270647 -0.483044 0)
(0.306835 -0.485012 0)
(0.343366 -0.486278 0)
(0.380437 -0.487181 0)
(0.41822 -0.488144 0)
(0.456762 -0.489444 0)
(0.495934 -0.491251 0)
(0.535465 -0.493671 0)
(0.575055 -0.496696 0)
(0.614455 -0.500204 0)
(0.653452 -0.504102 0)
(0.691774 -0.508368 0)
(0.729005 -0.512713 0)
(0.764516 -0.516385 0)
(0.797521 -0.518022 0)
(0.0100101 -0.120348 0)
(0.0459965 -0.53602 0)
(0.0807358 -0.659058 0)
(0.109059 -0.62224 0)
(0.136563 -0.563516 0)
(0.166969 -0.53017 0)
(0.200339 -0.519706 0)
(0.235341 -0.519752 0)
(0.270906 -0.52238 0)
(0.306656 -0.524735 0)
(0.342669 -0.526492 0)
(0.37918 -0.528017 0)
(0.416393 -0.529657 0)
(0.454388 -0.531592 0)
(0.493069 -0.533916 0)
(0.532182 -0.536676 0)
(0.571449 -0.539796 0)
(0.610692 -0.54309 0)
(0.649837 -0.546482 0)
(0.688771 -0.549964 0)
(0.727063 -0.553014 0)
(0.763966 -0.554353 0)
(0.798489 -0.552304 0)
(0.0124414 -0.151342 0)
(0.049949 -0.577063 0)
(0.0843509 -0.69312 0)
(0.111054 -0.651794 0)
(0.137388 -0.594613 0)
(0.167332 -0.56484 0)
(0.200449 -0.55695 0)
(0.235102 -0.55815 0)
(0.270194 -0.561203 0)
(0.305406 -0.563879 0)
(0.340861 -0.566112 0)
(0.376817 -0.56827 0)
(0.413497 -0.570615 0)
(0.451024 -0.573253 0)
(0.489346 -0.576213 0)
(0.528236 -0.579494 0)
(0.567436 -0.582967 0)
(0.606828 -0.586385 0)
(0.646471 -0.589675 0)
(0.686425 -0.592816 0)
(0.726309 -0.595025 0)
(0.765304 -0.594467 0)
(0.802375 -0.589323 0)
(0.0147708 -0.185473 0)
(0.0532596 -0.619091 0)
(0.087076 -0.72573 0)
(0.112278 -0.679823 0)
(0.137662 -0.624948 0)
(0.167199 -0.59913 0)
(0.199954 -0.593776 0)
(0.234101 -0.595983 0)
(0.268599 -0.599376 0)
(0.303212 -0.602365 0)
(0.338093 -0.6051 0)
(0.373503 -0.607925 0)
(0.409678 -0.611023 0)
(0.446783 -0.614448 0)
(0.484834 -0.618182 0)
(0.52365 -0.622204 0)
(0.563014 -0.626358 0)
(0.602838 -0.630332 0)
(0.643292 -0.634034 0)
(0.68462 -0.637406 0)
(0.726576 -0.639393 0)
(0.768253 -0.637672 0)
(0.808885 -0.630403 0)
(0.0168745 -0.222326 0)
(0.0558588 -0.661591 0)
(0.0888842 -0.75686 0)
(0.112742 -0.70657 0)
(0.137394 -0.654678 0)
(0.166573 -0.633009 0)
(0.198881 -0.630055 0)
(0.232416 -0.633131 0)
(0.266257 -0.636836 0)
(0.300255 -0.640181 0)
(0.33458 -0.64348 0)
(0.369476 -0.647032 0)
(0.405182 -0.650951 0)
(0.441909 -0.655257 0)
(0.47974 -0.65991 0)
(0.518579 -0.664901 0)
(0.558264 -0.670069 0)
(0.598725 -0.675052 0)
(0.640239 -0.679763 0)
(0.683253 -0.684068 0)
(0.72763 -0.686552 0)
(0.77235 -0.684618 0)
(0.817336 -0.676736 0)
(0.0186249 -0.261404 0)
(0.0577641 -0.704095 0)
(0.089776 -0.786519 0)
(0.11242 -0.732266 0)
(0.136524 -0.683942 0)
(0.165394 -0.666461 0)
(0.197206 -0.665711 0)
(0.230075 -0.669541 0)
(0.263238 -0.673575 0)
(0.296632 -0.677357 0)
(0.330434 -0.681308 0)
(0.364854 -0.685672 0)
(0.400129 -0.690506 0)
(0.436501 -0.695813 0)
(0.474123 -0.701549 0)
(0.513006 -0.707747 0)
(0.553048 -0.71424 0)
(0.594216 -0.720671 0)
(0.636903 -0.727049 0)
(0.681745 -0.733044 0)
(0.728639 -0.736733 0)
(0.776667 -0.735723 0)
(0.826617 -0.730026 0)
(0.0199584 -0.302194 0)
(0.0590834 -0.746187 0)
(0.0897559 -0.814678 0)
(0.111231 -0.757075 0)
(0.134918 -0.712851 0)
(0.163517 -0.699492 0)
(0.194799 -0.700709 0)
(0.226955 -0.705189 0)
(0.259412 -0.709593 0)
(0.292186 -0.713907 0)
(0.325456 -0.718605 0)
(0.359391 -0.723873 0)
(0.394219 -0.72973 0)
(0.430195 -0.736172 0)
(0.467537 -0.743177 0)
(0.506358 -0.75082 0)
(0.54662 -0.758934 0)
(0.588371 -0.767247 0)
(0.632081 -0.77592 0)
(0.678512 -0.78434 0)
(0.727718 -0.790076 0)
(0.779277 -0.791603 0)
(0.834741 -0.792502 0)
(0.0209473 -0.344258 0)
(0.0599797 -0.787444 0)
(0.088832 -0.841182 0)
(0.109083 -0.781055 0)
(0.132425 -0.741471 0)
(0.160743 -0.732091 0)
(0.191413 -0.734998 0)
(0.22276 -0.740023 0)
(0.254417 -0.744837 0)
(0.286475 -0.749766 0)
(0.319109 -0.755285 0)
(0.352442 -0.761529 0)
(0.386696 -0.768499 0)
(0.422122 -0.776202 0)
(0.458993 -0.784655 0)
(0.497488 -0.793962 0)
(0.537644 -0.803978 0)
(0.579598 -0.81455 0)
(0.62382 -0.826002 0)
(0.671159 -0.837567 0)
(0.722137 -0.846569 0)
(0.776968 -0.852756 0)
(0.837531 -0.864843 0)
(0.0218141 -0.387327 0)
(0.0606062 -0.827371 0)
(0.0870413 -0.865737 0)
(0.105972 -0.804184 0)
(0.128979 -0.769797 0)
(0.156913 -0.764164 0)
(0.186788 -0.768436 0)
(0.21714 -0.773897 0)
(0.247816 -0.779155 0)
(0.278967 -0.784761 0)
(0.310756 -0.79114 0)
(0.343262 -0.798391 0)
(0.376709 -0.806521 0)
(0.411327 -0.815578 0)
(0.447437 -0.825611 0)
(0.485225 -0.836746 0)
(0.524798 -0.848883 0)
(0.566341 -0.861958 0)
(0.610272 -0.876468 0)
(0.657543 -0.891903 0)
(0.709327 -0.90557 0)
(0.766028 -0.917969 0)
(0.828734 -0.943758 0)
(0.0228511 -0.431349 0)
(0.0610431 -0.865376 0)
(0.0844752 -0.887993 0)
(0.102054 -0.826413 0)
(0.124684 -0.797727 0)
(0.152017 -0.795487 0)
(0.180822 -0.800774 0)
(0.20993 -0.806575 0)
(0.239394 -0.812313 0)
(0.269397 -0.818635 0)
(0.300081 -0.825881 0)
(0.331497 -0.83414 0)
(0.363872 -0.84344 0)
(0.397404 -0.853897 0)
(0.432438 -0.865562 0)
(0.469106 -0.878593 0)
(0.507569 -0.892931 0)
(0.547979 -0.90856 0)
(0.590733 -0.926219 0)
(0.636814 -0.946133 0)
(0.687981 -0.965285 0)
(0.743804 -0.98342 0)
(0.804076 -1.02307 0)
(0.0242675 -0.47643 0)
(0.0612684 -0.900818 0)
(0.0812765 -0.907692 0)
(0.0976291 -0.847747 0)
(0.119793 -0.82507 0)
(0.146232 -0.825731 0)
(0.173668 -0.831701 0)
(0.201301 -0.837795 0)
(0.229347 -0.844064 0)
(0.257993 -0.851132 0)
(0.287353 -0.859245 0)
(0.317469 -0.868502 0)
(0.348563 -0.878962 0)
(0.380799 -0.890812 0)
(0.414481 -0.904071 0)
(0.44968 -0.918933 0)
(0.486543 -0.93537 0)
(0.525145 -0.953415 0)
(0.565937 -0.974064 0)
(0.609586 -0.998659 0)
(0.658367 -1.02285 0)
(0.709918 -1.04447 0)
(0.764896 -1.09805 0)
(0.0260579 -0.522695 0)
(0.0611683 -0.933119 0)
(0.0775939 -0.9248 0)
(0.0930205 -0.868263 0)
(0.114596 -0.851585 0)
(0.139849 -0.854554 0)
(0.16569 -0.86095 0)
(0.191706 -0.867359 0)
(0.218216 -0.874227 0)
(0.245383 -0.882076 0)
(0.273294 -0.891069 0)
(0.302007 -0.901324 0)
(0.331701 -0.912929 0)
(0.36252 -0.926102 0)
(0.394641 -0.940836 0)
(0.428138 -0.957328 0)
(0.463011 -0.9756 0)
(0.499314 -0.99576 0)
(0.537506 -1.01884 0)
(0.577463 -1.04762 0)
(0.621956 -1.07513 0)
(0.666413 -1.09806 0)
(0.715572 -1.16598 0)
(0.0279859 -0.570119 0)
(0.0605792 -0.961851 0)
(0.0735258 -0.93955 0)
(0.0884316 -0.888089 0)
(0.109272 -0.877036 0)
(0.133121 -0.8817 0)
(0.15727 -0.88838 0)
(0.181641 -0.895182 0)
(0.206591 -0.902728 0)
(0.232247 -0.911399 0)
(0.258677 -0.9213 0)
(0.285955 -0.932553 0)
(0.314195 -0.945272 0)
(0.343524 -0.959643 0)
(0.373957 -0.975687 0)
(0.405639 -0.993518 0)
(0.43831 -1.01328 0)
(0.472113 -1.0351 0)
(0.507285 -1.05962 0)
(0.542784 -1.09133 0)
(0.58142 -1.11983 0)
(0.61768 -1.14271 0)
(0.659773 -1.22043 0)
(0.0296972 -0.618423 0)
(0.059343 -0.986767 0)
(0.0691019 -0.952371 0)
(0.0838821 -0.907345 0)
(0.103831 -0.901239 0)
(0.12616 -0.907057 0)
(0.148635 -0.913986 0)
(0.171412 -0.921284 0)
(0.194836 -0.929574 0)
(0.218997 -0.939102 0)
(0.243949 -0.949935 0)
(0.269772 -0.962175 0)
(0.296523 -0.975949 0)
(0.3243 -0.991376 0)
(0.353029 -1.00856 0)
(0.382894 -1.02746 0)
(0.413422 -1.04838 0)
(0.444892 -1.07132 0)
(0.477036 -1.09623 0)
(0.508612 -1.12904 0)
(0.540978 -1.15657 0)
(0.570905 -1.17776 0)
(0.603905 -1.25129 0)
(0.0308725 -0.667066 0)
(0.0573577 -1.00778 0)
(0.0643174 -0.963774 0)
(0.0792587 -0.92609 0)
(0.098162 -0.924074 0)
(0.11894 -0.930632 0)
(0.139815 -0.937849 0)
(0.161071 -0.945731 0)
(0.18301 -0.954805 0)
(0.205687 -0.965204 0)
(0.229153 -0.976966 0)
(0.253477 -0.990162 0)
(0.278704 -1.00492 0)
(0.304889 -1.02131 0)
(0.332002 -1.0395 0)
(0.36014 -1.05935 0)
(0.388849 -1.08118 0)
(0.418489 -1.10482 0)
(0.448165 -1.12959 0)
(0.477868 -1.16162 0)
(0.50531 -1.18779 0)
(0.534087 -1.20539 0)
(0.560429 -1.25708 0)
(0.031319 -0.715311 0)
(0.0546078 -1.02492 0)
(0.0591931 -0.974251 0)
(0.0744238 -0.944301 0)
(0.0921386 -0.945464 0)
(0.111376 -0.952488 0)
(0.130729 -0.96006 0)
(0.150512 -0.968581 0)
(0.170978 -0.97844 0)
(0.192154 -0.989693 0)
(0.214093 -1.00235 0)
(0.236861 -1.01647 0)
(0.260526 -1.03216 0)
(0.285116 -1.04951 0)
(0.310715 -1.06867 0)
(0.337267 -1.08952 0)
(0.36454 -1.11218 0)
(0.392956 -1.13648 0)
(0.421095 -1.16146 0)
(0.45146 -1.19168 0)
(0.476723 -1.21824 0)
(0.510409 -1.23293 0)
(0.538813 -1.2539 0)
(0.03097 -0.762309 0)
(0.0511637 -1.03835 0)
(0.053811 -0.984203 0)
(0.0692932 -0.961861 0)
(0.0856958 -0.965342 0)
(0.103411 -0.972676 0)
(0.121284 -0.980663 0)
(0.139602 -0.989833 0)
(0.158567 -1.00045 0)
(0.178193 -1.01251 0)
(0.198542 -1.02603 0)
(0.219691 -1.04105 0)
(0.241744 -1.05768 0)
(0.264739 -1.07604 0)
(0.288827 -1.09623 0)
(0.313871 -1.11823 0)
(0.339869 -1.1419 0)
(0.367377 -1.16717 0)
(0.394742 -1.19345 0)
(0.427052 -1.22229 0)
(0.453018 -1.25219 0)
(0.494283 -1.2693 0)
(0.532547 -1.26555 0)
(0.0298567 -0.807226 0)
(0.0471581 -1.04833 0)
(0.0482951 -0.993903 0)
(0.0638442 -0.978588 0)
(0.0788357 -0.98364 0)
(0.0950311 -0.991212 0)
(0.111426 -0.999647 0)
(0.128242 -1.00944 0)
(0.145645 -1.02075 0)
(0.163648 -1.03357 0)
(0.182324 -1.0479 0)
(0.201777 -1.06381 0)
(0.222132 -1.08142 0)
(0.243457 -1.10087 0)
(0.265884 -1.1222 0)
(0.289306 -1.14549 0)
(0.313844 -1.17049 0)
(0.340151 -1.19725 0)
(0.366931 -1.226 0)
(0.400146 -1.25532 0)
(0.428428 -1.29065 0)
(0.474875 -1.31736 0)
(0.521922 -1.30546 0)
(0.0280748 -0.849342 0)
(0.0427513 -1.05524 0)
(0.0427656 -1.00347 0)
(0.058077 -0.994264 0)
(0.0715858 -1.00029 0)
(0.0862399 -1.00808 0)
(0.101116 -1.01696 0)
(0.116363 -1.02731 0)
(0.132119 -1.03924 0)
(0.148408 -1.05275 0)
(0.165315 -1.06786 0)
(0.182963 -1.08464 0)
(0.201475 -1.10323 0)
(0.22094 -1.12377 0)
(0.241413 -1.14631 0)
(0.262863 -1.17093 0)
(0.285462 -1.19757 0)
(0.30971 -1.22631 0)
(0.335456 -1.25817 0)
(0.366767 -1.29059 0)
(0.396801 -1.33175 0)
(0.443295 -1.3722 0)
(0.489816 -1.37175 0)
(0.025759 -0.888103 0)
(0.0381018 -1.05954 0)
(0.0373071 -1.01286 0)
(0.0519867 -1.00866 0)
(0.0639646 -1.01524 0)
(0.0770283 -1.02323 0)
(0.0903177 -1.03252 0)
(0.103913 -1.04336 0)
(0.117935 -1.05583 0)
(0.132418 -1.06995 0)
(0.147452 -1.08576 0)
(0.16316 -1.10335 0)
(0.179648 -1.12284 0)
(0.196983 -1.14437 0)
(0.215151 -1.16801 0)
(0.234138 -1.19387 0)
(0.254131 -1.22209 0)
(0.275267 -1.25301 0)
(0.298757 -1.28778 0)
(0.32512 -1.32541 0)
(0.353783 -1.37178 0)
(0.394894 -1.42576 0)
(0.428285 -1.45342 0)
(0.0230525 -0.923164 0)
(0.0333389 -1.06174 0)
(0.0319646 -1.02198 0)
(0.0455715 -1.02164 0)
(0.0559894 -1.02848 0)
(0.0673958 -1.03666 0)
(0.0790202 -1.0463 0)
(0.0908874 -1.05755 0)
(0.1031 -1.07047 0)
(0.1157 -1.08512 0)
(0.128772 -1.10154 0)
(0.14242 -1.11983 0)
(0.156723 -1.14009 0)
(0.171702 -1.16241 0)
(0.187293 -1.18688 0)
(0.203437 -1.21363 0)
(0.22023 -1.24297 0)
(0.237524 -1.27549 0)
(0.256894 -1.31199 0)
(0.276369 -1.35421 0)
(0.298501 -1.40379 0)
(0.328768 -1.46673 0)
(0.338793 -1.52749 0)
(0.0200564 -0.954329 0)
(0.0285353 -1.06237 0)
(0.0267633 -1.03068 0)
(0.0388575 -1.0331 0)
(0.0477056 -1.04007 0)
(0.0573875 -1.04842 0)
(0.0672761 -1.05835 0)
(0.0773569 -1.06992 0)
(0.0877107 -1.08323 0)
(0.09838 -1.09832 0)
(0.109435 -1.11527 0)
(0.120959 -1.13414 0)
(0.133001 -1.15499 0)
(0.145549 -1.17787 0)
(0.158514 -1.20286 0)
(0.171783 -1.23009 0)
(0.185295 -1.25988 0)
(0.198832 -1.2928 0)
(0.213029 -1.32928 0)
(0.225821 -1.37205 0)
(0.237562 -1.42028 0)
(0.252487 -1.48167 0)
(0.239594 -1.55771 0)
(0.0167997 -0.981228 0)
(0.0236916 -1.06168 0)
(0.0217299 -1.03854 0)
(0.0319122 -1.04276 0)
(0.0391942 -1.04981 0)
(0.0471039 -1.05833 0)
(0.0552045 -1.06849 0)
(0.063463 -1.08034 0)
(0.0719362 -1.09397 0)
(0.0806627 -1.10945 0)
(0.089698 -1.12682 0)
(0.0991031 -1.14614 0)
(0.108912 -1.16742 0)
(0.119103 -1.19068 0)
(0.129597 -1.21598 0)
(0.140284 -1.24344 0)
(0.151037 -1.27331 0)
(0.161718 -1.30588 0)
(0.171973 -1.34126 0)
(0.180841 -1.38071 0)
(0.184918 -1.42311 0)
(0.186997 -1.47111 0)
(0.168916 -1.52997 0)
(0.0132878 -1.00314 0)
(0.0187672 -1.0595 0)
(0.0168874 -1.04471 0)
(0.0248388 -1.04995 0)
(0.0305483 -1.05708 0)
(0.0366721 -1.06576 0)
(0.0429634 -1.07611 0)
(0.0493896 -1.08819 0)
(0.055986 -1.10207 0)
(0.0627854 -1.11784 0)
(0.0698297 -1.13553 0)
(0.0771632 -1.15517 0)
(0.084811 -1.17675 0)
(0.0927604 -1.20028 0)
(0.100966 -1.22582 0)
(0.109374 -1.25351 0)
(0.117936 -1.28354 0)
(0.126667 -1.31599 0)
(0.135226 -1.35073 0)
(0.14355 -1.38728 0)
(0.148194 -1.42468 0)
(0.149829 -1.45915 0)
(0.152249 -1.48862 0)
(0.00961299 -1.01947 0)
(0.0137485 -1.05578 0)
(0.0121978 -1.04848 0)
(0.0177457 -1.05418 0)
(0.0218578 -1.06141 0)
(0.0262109 -1.07022 0)
(0.0306993 -1.08071 0)
(0.0353008 -1.09294 0)
(0.0400329 -1.10699 0)
(0.0449192 -1.12293 0)
(0.0499881 -1.14081 0)
(0.0552708 -1.16063 0)
(0.0607889 -1.18241 0)
(0.0665412 -1.20616 0)
(0.0725119 -1.23195 0)
(0.0786987 -1.25995 0)
(0.0851544 -1.29032 0)
(0.0920429 -1.32317 0)
(0.0995447 -1.35839 0)
(0.108068 -1.39531 0)
(0.117149 -1.43321 0)
(0.127419 -1.46752 0)