/*--------------------------------*- C++ -*----------------------------------*\
| =========                 |                                                 |
| \\      /  F ield         | OpenFOAM: The Open Source CFD Toolbox           |
|  \\    /   O peration     | Version:  2206                                  |
|   \\  /    A nd           | Website:  www.openfoam.com                      |
|    \\/     M anipulation  |                                                 |
\*---------------------------------------------------------------------------*/
FoamFile
{
    version     2.0;
    format      ascii;
    arch        "LSB;label=32;scalar=64";
    class       volScalarField;
    location    "0.525";
    object      alpha.water;
}
// * * * * * * * * * * * * * * * * * * * * * * * * * * * * * * * * * * * * * //

dimensions      [0 0 0 0 0 0 0];

internalField   nonuniform List<scalar> 
2268
(
0.999999
0.999999
1
1
1
1
1
1
1
1
1
1
1
1
1
1
1
1
0.981691
0.88933
0.902341
0.998944
0.998944
0.999999
1
1
1
1
1
1
1
1
1
1
1
1
1
1
1
1
1
0.999864
0.937586
0.899744
0.981944
0.998944
1
1
1
1
1
1
1
1
1
1
1
1
1
1
1
1
1
1
1
0.999467
0.899827
0.958414
0.998944
1
1
1
1
1
1
1
1
1
1
1
1
1
1
1
1
1
1
1
1
0.924166
0.957115
0.998642
1
1
1
1
1
1
1
1
1
1
1
1
1
1
1
1
1
1
1
1
0.995592
0.997448
0.999571
1
1
1
1
1
1
1
1
1
1
1
1
1
1
1
1
1
1
1
1
1
1
0.999811
1
1
1
0.999999
0.999999
0.999999
1
1
1
1
1
1
1
1
1
1
1
1
1
1
1
1
0.999809
1
1
0.999988
0.99996
0.999952
0.999966
0.999985
0.999995
0.999999
1
1
1
1
1
1
1
1
1
1
1
1
1
0.999809
1.4464e-08
1.4464e-08
2.66287e-07
2.51178e-06
0.0580347
0.261759
0.262434
0.231753
0.240363
0.426506
0.504714
0.515677
0.533181
0.583662
0.63695
0.686047
0.715716
0.725193
0.644924
2.29137e-08
6.77001e-08
6.47227e-06
0.00552302
0.124276
0.138699
0.0116507
0.00206569
3.31787e-05
3.64956e-05
4.65959e-05
0.00964117
0.0755842
0.144014
0.206517
0.31884
0.538306
0.768125
0.775939
1.04257e-06
3.77647e-05
0.000100169
0.0328307
0.105808
0.000669379
5.87259e-05
3.28123e-05
3.2255e-05
3.29231e-05
3.58938e-05
4.53814e-05
7.38513e-05
0.000164056
0.000500509
0.00175445
0.0119626
0.413292
0.775942
2.76225e-06
4.78298e-05
0.0209278
0.0517183
0.051627
7.80908e-05
3.27956e-05
3.20697e-05
3.21359e-05
3.2261e-05
3.29737e-05
3.58814e-05
4.5478e-05
7.19992e-05
0.000163022
0.000514029
0.00239021
0.184426
0.775938
2.10946e-05
4.14861e-05
0.00817559
0.0430455
0.0209682
3.60821e-05
3.19493e-05
3.21214e-05
3.20453e-05
3.22544e-05
3.3876e-05
4.97293e-05
0.000153544
0.000133154
0.000283038
0.000484415
0.00074159
0.1066
0.775887
1.53903e-05
2.47643e-05
0.00107624
0.00245525
0.0019584
0.00148186
3.19355e-05
3.20372e-05
3.26602e-05
5.51382e-05
3.90688e-05
4.87553e-05
0.000269742
0.000987964
0.00258539
0.000623125
0.0005786
0.0554207
0.775565
9.62484e-06
0.0840424
0.181397
0.0105232
0.00145688
0.000181906
4.01621e-05
3.21904e-05
3.73886e-05
0.000109513
7.21893e-05
6.78574e-05
0.000121716
0.00322537
0.00387089
0.00150557
0.000473182
0.0231995
0.76062
0.548599
0.724152
0.72122
0.414819
0.017622
0.000913605
0.000119563
4.02836e-05
3.94246e-05
4.93091e-05
8.15618e-05
0.000121549
0.000240475
0.0043229
0.00408193
0.00235477
0.000341328
0.00951114
0.776759
1
0.981535
0.905676
0.829626
0.846931
0.899057
0.945406
0.970611
0.988403
0.998366
0.999999
1
1
1
1
1
1
1
1
1
1
1
0.999921
0.622059
0.381494
0.170635
0.111494
0.165669
0.254945
0.307319
0.349256
0.419215
0.524608
0.646029
0.763119
0.873591
0.969657
1
1
1
1
1
1
1
1
1
1.88749e-18
1.90528e-18
8.56822e-18
4.28817e-15
1.32695e-14
3.65354e-13
2.71705e-11
1.72287e-12
7.68081e-12
2.13303e-10
0.0113068
0.0561178
0.118326
0.220832
0.392179
0.633492
0.938734
1
1
1
1
1
1
1.67323e-18
6.05823e-16
7.47173e-15
7.53523e-15
1.12344e-14
3.02735e-13
6.35401e-13
1.64889e-12
1.72287e-12
7.68081e-12
2.13303e-10
2.5306e-09
9.24237e-09
1.92973e-07
0.00227495
0.0344462
0.112319
0.298587
0.57651
0.914405
1
1
1
1.42725e-18
8.92464e-18
5.54259e-16
1.08386e-14
1.27994e-13
5.60876e-13
1.36247e-12
6.90254e-11
2.04114e-09
4.27478e-09
4.48893e-09
4.53262e-09
4.5904e-09
9.24237e-09
1.92973e-07
1.75181e-06
7.91851e-06
0.00512636
0.0412608
0.097876
0.236715
0.43892
0.757661
1.30902e-18
3.11138e-17
1.02692e-15
8.78236e-14
1.40348e-12
3.73771e-12
5.4956e-12
5.65992e-12
1.33571e-08
8.50141e-08
6.72664e-08
4.55769e-09
4.58282e-09
5.11238e-05
0.000174622
0.000175034
0.000139142
2.06366e-05
2.13656e-05
2.31503e-05
0.00487342
0.0183055
0.0732587
3.78956e-19
2.13501e-16
2.26328e-14
4.04578e-13
2.49391e-12
6.51537e-12
9.26132e-12
7.64335e-12
1.69577e-08
1.26541e-07
1.24565e-07
4.58282e-09
4.6087e-09
4.95385e-05
0.000104746
5.81373e-05
2.77782e-06
2.03066e-05
7.98116e-05
0.000186124
9.96848e-05
0.000100233
9.26946e-05
3.8727e-20
3.51346e-17
1.26564e-14
3.80798e-13
2.64028e-12
7.27292e-12
1.08961e-11
1.01873e-11
3.72691e-09
8.73886e-08
1.26737e-07
9.18239e-08
5.04623e-09
1.03783e-05
1.76099e-11
1.46378e-12
1.37085e-12
1.94705e-12
4.21114e-05
0.000161702
0.000272739
0.000273478
0.000106793
2.47935e-22
3.78687e-18
4.58595e-15
2.3162e-13
2.12842e-12
6.91524e-12
1.10033e-11
1.17017e-11
1.17829e-11
1.10069e-08
9.72371e-08
1.78888e-07
1.08365e-06
3.46611e-11
1.46378e-12
1.37077e-12
1.37089e-12
1.37089e-12
8.66112e-05
0.000146449
0.000273478
0.000273478
0.000273478
-2.53207e-18
3.41432e-19
1.30723e-15
1.00177e-13
1.09428e-12
4.41824e-12
1.0475e-11
1.79782e-11
8.16402e-10
2.05464e-09
2.05926e-09
5.66364e-08
2.7197e-07
3.98264e-08
1.77107e-12
1.37232e-12
1.37076e-12
5.55078e-06
9.62485e-05
0.000230569
0.00025892
0.000206986
0.000272496
-3.66379e-18
0
3.03945e-16
3.4091e-14
4.14518e-13
2.12205e-12
7.47104e-12
8.68068e-12
3.96049e-10
3.42696e-09
3.16578e-09
1.38433e-09
1.36307e-09
1.35415e-09
2.06942e-10
2.01287e-12
1.45703e-12
7.203e-06
7.17085e-09
0.000122882
0.000201697
0.000222458
0.00015559
-4.18676e-18
-8.10693e-18
5.52256e-17
9.21784e-15
1.22744e-13
7.5643e-13
4.67454e-12
8.10348e-12
5.77891e-11
3.55854e-09
3.74762e-09
3.40045e-09
3.09315e-09
1.59906e-09
4.32531e-11
1.32543e-12
1.40393e-12
5.28269e-10
2.65265e-10
6.96701e-09
0.00017811
0.000285496
0.000285496
-4.113e-18
-1.13111e-17
7.92619e-18
1.97494e-15
2.91888e-14
2.2709e-13
2.75861e-12
8.70167e-12
1.22617e-11
1.34367e-09
2.91092e-09
4.43574e-09
4.38647e-09
4.55798e-10
1.32776e-12
1.32543e-12
1.52583e-12
1.53194e-12
2.95629e-12
6.32628e-11
3.38202e-09
0.00019685
0.000285496
-3.64779e-18
-1.00931e-17
0
3.40148e-16
5.69799e-15
6.32971e-14
1.49118e-12
7.59451e-12
8.89622e-12
4.44685e-12
3.51774e-10
3.31849e-09
1.32314e-09
2.09131e-11
1.63309e-12
1.36211e-12
2.18523e-12
2.8733e-12
2.87977e-12
3.62934e-12
4.83525e-12
2.30525e-11
1.02403e-05
-2.89948e-18
-7.79901e-18
-3.29279e-18
4.4471e-17
9.11567e-16
1.55076e-14
5.28401e-13
3.82756e-12
6.95399e-12
4.44395e-12
3.14861e-11
2.84043e-10
4.83315e-13
1.78565e-12
1.85557e-12
8.61338e-13
2.14202e-12
4.5619e-12
6.69116e-12
6.6779e-12
6.7171e-12
7.10094e-12
1.32741e-11
-2.04364e-18
-5.30193e-18
-5.97205e-18
3.97821e-18
1.16473e-16
3.33578e-15
1.29774e-13
1.23271e-12
3.13546e-12
3.58517e-12
9.60868e-13
4.83319e-13
4.83525e-13
5.60884e-13
6.15265e-13
1.17704e-13
1.43212e-13
2.03034e-12
8.3532e-12
1.44553e-11
1.73625e-11
1.7355e-11
1.74346e-11
-1.26145e-18
-3.10974e-18
-4.38036e-18
4.10383e-37
1.12654e-17
6.49957e-16
2.58911e-14
2.62592e-13
8.00909e-13
1.17959e-12
1.31803e-12
7.32035e-13
3.97527e-13
1.89177e-13
6.77228e-14
1.66465e-14
7.99249e-15
3.8933e-14
5.15584e-13
4.90765e-12
1.88662e-11
4.03201e-11
1.30896e-10
-6.70647e-19
-1.55808e-18
-2.53209e-18
-3.38818e-19
7.59191e-19
1.11051e-16
4.19203e-15
4.11308e-14
1.49834e-13
3.1909e-13
5.22654e-13
3.29026e-13
8.56818e-14
1.38288e-14
2.63373e-15
1.1001e-15
1.15593e-15
9.4555e-15
8.62766e-14
7.49414e-13
5.32106e-12
2.44225e-11
7.41684e-11
-3.00442e-19
-6.52837e-19
-1.20085e-18
-2.90542e-19
3.85074e-20
1.57793e-17
5.74608e-16
5.69901e-15
2.49704e-14
5.67464e-14
6.86082e-14
5.23419e-14
2.00356e-14
3.37323e-15
2.53307e-16
5.36734e-17
1.43659e-16
1.91639e-15
2.12231e-14
1.88618e-13
2.25963e-12
2.29316e-11
8.69028e-11
-1.10216e-19
-2.21988e-19
-4.52685e-19
-1.20987e-19
2.10853e-21
1.80729e-18
7.07612e-17
7.67697e-16
3.67389e-15
8.15964e-15
9.16467e-15
7.19448e-15
3.19734e-15
6.38929e-16
3.83471e-17
4.46538e-19
1.49051e-17
4.06543e-16
6.29146e-15
6.19956e-14
6.15141e-13
7.72361e-12
4.68898e-11
-3.19048e-20
-5.87275e-20
-1.29744e-19
-3.46968e-20
1.01632e-22
1.60638e-19
7.92627e-18
9.87342e-17
4.61837e-16
1.0186e-15
1.14859e-15
8.71183e-16
4.01917e-16
8.58059e-17
4.00729e-18
-1.38941e-18
7.59905e-19
8.19915e-17
2.00699e-15
2.58461e-14
1.83994e-13
1.09363e-12
8.39012e-12
-6.93425e-21
-1.1351e-20
-2.645e-20
-6.91494e-21
8.00249e-40
9.63701e-21
7.12759e-19
1.10022e-17
5.04929e-17
1.01368e-16
1.14217e-16
8.59153e-17
3.4297e-17
3.50157e-18
-2.51597e-18
-2.83718e-18
6.55564e-36
1.28185e-17
5.17222e-16
9.12608e-15
7.63543e-14
3.66018e-13
2.0448e-12
-1.05184e-21
-1.44136e-21
-3.47392e-21
-8.86394e-22
-8.70945e-23
3.19484e-22
4.28237e-20
8.56013e-19
3.97561e-18
7.41965e-18
8.66859e-18
6.47544e-18
1.78622e-18
-1.26869e-18
-3.3152e-18
-3.17913e-18
-7.60403e-19
1.75902e-18
1.24086e-16
2.60745e-15
2.63983e-14
1.45093e-13
7.82325e-13
-9.83814e-23
-9.35192e-23
-2.38777e-22
-5.92224e-23
-8.90097e-24
2.50177e-24
1.30221e-21
3.56465e-20
1.79094e-19
3.44121e-19
4.07369e-19
1.59109e-19
-4.03773e-19
-1.50059e-18
-2.42666e-18
-1.88834e-18
-6.83923e-19
3.15648e-19
2.84747e-17
6.9617e-16
8.16739e-15
5.01352e-14
2.89342e-13
-4.42143e-24
-8.85357e-30
-2.71445e-28
-4.06989e-27
-2.7773e-26
7.82726e-43
9.0238e-24
5.72944e-22
3.70937e-21
6.5317e-21
-5.3905e-21
-7.78015e-20
-3.39838e-19
-7.99703e-19
-9.75009e-19
-6.9385e-19
-2.62252e-19
5.9921e-20
6.15958e-18
1.75778e-16
2.34781e-15
1.42936e-14
6.78074e-14
-1.2882e-25
-4.06677e-30
-1.41049e-28
-2.78883e-27
-3.82361e-26
-3.7152e-25
-2.58485e-24
-1.58045e-23
-1.2446e-22
-1.04844e-21
-7.28189e-21
-3.65041e-20
-1.19544e-19
-2.27343e-19
-2.48008e-19
-1.65126e-19
-6.02468e-20
1.21375e-20
1.23545e-18
3.97395e-17
6.02894e-16
3.6374e-15
1.27867e-14
-2.82276e-27
-1.35958e-30
-4.89798e-29
-1.00934e-27
-1.49402e-26
-1.68009e-25
-1.46208e-24
-1.03647e-23
-6.63511e-23
-4.00147e-22
-2.08271e-21
-8.2703e-21
-2.25247e-20
-3.83147e-20
-3.85198e-20
-2.38756e-20
-7.4982e-21
3.15406e-21
2.27124e-19
8.56444e-18
1.49556e-16
8.25934e-16
1.42189e-15
-5.03681e-29
-3.21211e-31
-1.19338e-29
-2.48668e-28
-3.74143e-27
-4.36272e-26
-4.01103e-25
-2.95472e-24
-1.79141e-23
-9.15139e-23
-3.87108e-22
-1.26022e-21
-2.90989e-21
-4.40337e-21
-3.89191e-21
-2.12479e-21
-3.74069e-22
7.33736e-22
4.25681e-20
2.67874e-18
4.55384e-17
1.60695e-16
1.32928e-16
-7.66809e-31
-4.83308e-32
-1.83409e-30
-3.7517e-29
-5.49009e-28
-6.27489e-27
-5.71153e-26
-4.14573e-25
-2.38978e-24
-1.09011e-23
-3.91967e-23
-1.09449e-22
-2.25631e-22
-3.04296e-22
-2.16948e-22
-9.36068e-23
0
1.33562e-22
7.29891e-21
5.7109e-19
9.52452e-18
3.27656e-17
2.03806e-17
-1.03327e-32
-3.5916e-33
-1.37308e-31
-2.61991e-30
-3.40922e-29
-3.37163e-28
-2.644e-27
-1.69088e-26
-8.96679e-26
-3.96099e-25
-1.43884e-24
-4.11474e-24
-8.41636e-24
-1.035e-23
-6.20317e-24
-1.95538e-24
7.62084e-25
1.82829e-23
9.25852e-22
8.88667e-20
1.71953e-18
6.58345e-18
4.20518e-18
-1.2888e-34
-2.16494e-35
-9.217e-34
-1.93031e-32
-2.79795e-31
-3.13777e-30
-2.83293e-29
-2.10779e-28
-1.30427e-27
-6.65974e-27
-2.70851e-26
-8.06693e-26
-1.47542e-25
-1.05538e-25
-4.6992e-26
6.96877e-27
6.83859e-26
1.67273e-24
8.73736e-23
1.06972e-20
2.75766e-19
1.26997e-18
8.10958e-19
-1.57239e-36
-5.26927e-38
-2.79848e-36
-7.09623e-35
-1.24058e-33
-1.67593e-32
-1.81673e-31
-1.61155e-30
-1.16889e-29
-6.75236e-29
-2.91986e-28
-8.37944e-28
-1.24146e-27
-7.87843e-28
-3.312e-28
1.18258e-28
3.93673e-27
1.25168e-25
6.2367e-24
9.45179e-22
3.74881e-20
2.22642e-19
1.14909e-19
-1.93712e-38
-1.14433e-40
-6.7457e-39
-2.03555e-37
-4.23077e-36
-6.77367e-35
-8.61737e-34
-8.79675e-33
-7.06435e-32
-4.23069e-31
-1.70532e-30
-3.73458e-30
-3.77274e-30
-2.89087e-30
-1.40846e-30
4.1342e-30
2.21322e-28
8.35421e-27
4.40873e-25
7.44846e-23
4.18931e-21
2.8488e-20
4.30125e-22
-2.33427e-40
-3.08463e-43
-7.29515e-42
-2.80302e-40
-7.25605e-39
-1.40051e-37
-2.05976e-36
-2.2734e-35
-1.77741e-34
-8.86117e-34
-2.39425e-33
-5.65216e-33
-7.56864e-33
-7.65574e-33
-2.9816e-33
2.05902e-31
1.18918e-29
5.74129e-28
3.23802e-26
4.73771e-24
3.46618e-22
2.68318e-21
2.48421e-23
-2.55241e-42
-2.86578e-45
-3.03637e-45
-1.41044e-43
-4.21041e-42
-8.64143e-41
-1.19102e-39
-1.02727e-38
-6.32609e-38
-3.90627e-37
-1.98346e-36
-6.41534e-36
-1.21096e-35
-1.62551e-35
1.20441e-35
1.04065e-32
6.29883e-31
3.4536e-29
1.96484e-27
1.88829e-25
1.77567e-23
1.80479e-22
2.75246e-24
-2.35243e-44
-2.72645e-47
-1.65944e-50
-3.56785e-49
-3.44287e-48
-1.82267e-47
-1.83309e-44
-1.19381e-42
-2.03475e-41
-2.51952e-40
-2.92438e-39
-1.79399e-38
-2.03689e-38
-2.56357e-38
5.19877e-37
3.70906e-34
2.81696e-32
1.58195e-30
8.84737e-29
6.1049e-27
6.60107e-25
9.44607e-24
2.85088e-25
-1.72365e-46
-1.95521e-49
-2.66679e-53
-4.43231e-53
-1.06422e-50
-1.55032e-48
-1.52424e-46
-1.02529e-44
-4.61755e-43
-1.36039e-41
-2.37201e-40
-1.85077e-39
-5.82236e-40
-9.57432e-42
7.99734e-39
9.15237e-36
8.6875e-34
5.6668e-32
2.86468e-30
2.00131e-28
2.24706e-26
4.61335e-25
1.47213e-25
-9.55019e-49
-9.40706e-52
-1.1506e-55
-5.84057e-55
-1.40253e-52
-2.02543e-50
-1.93962e-48
-1.25491e-46
-5.36953e-45
-1.41166e-43
-1.88266e-42
-6.12524e-42
-2.55484e-42
7.60059e-45
7.44775e-41
1.39704e-37
1.85078e-35
1.26142e-33
8.92396e-32
6.75739e-30
3.52512e-28
1.55326e-26
1.39721e-25
-3.86061e-51
-2.94447e-54
-3.87513e-58
-5.97753e-57
-1.28079e-54
-1.5976e-52
-1.31086e-50
-7.39483e-49
-2.91817e-47
-7.67185e-46
-1.06848e-44
-1.45408e-44
-2.62019e-44
-1.5422e-43
2.00335e-43
8.68918e-40
1.59449e-37
1.63703e-35
1.47274e-33
1.12741e-31
7.37245e-30
4.8869e-28
1.29721e-26
-1.12019e-53
-6.21354e-57
-8.27448e-61
-2.42996e-60
-7.1751e-58
-1.05354e-55
-1.13572e-53
-8.49101e-52
-4.38885e-50
-1.51082e-48
-2.85902e-47
-1.46258e-46
-4.03357e-45
-6.2706e-44
4.78518e-47
1.54583e-43
7.80863e-41
1.36046e-38
2.55863e-36
3.30889e-34
5.27128e-32
6.01323e-30
1.49362e-28
-2.33005e-56
-8.49668e-60
-1.13976e-63
-8.87002e-64
-3.35016e-61
-5.51571e-59
-7.3371e-57
-7.0478e-55
-4.65833e-53
-2.07003e-51
-5.31268e-50
-5.78686e-49
-2.32033e-47
-4.62063e-46
1.73139e-50
1.61626e-47
4.61615e-45
8.43006e-43
1.86379e-40
3.55851e-38
1.28317e-35
2.13221e-33
3.45522e-32
-3.61971e-59
-6.61875e-63
-8.64922e-67
-3.08163e-67
-1.45782e-64
-2.58768e-62
-4.1322e-60
-4.91183e-58
-4.07504e-56
-2.30339e-54
-7.85047e-53
-1.41179e-51
-7.48103e-50
-1.86733e-48
4.66891e-54
5.20522e-51
1.54635e-48
3.40797e-46
4.5765e-44
6.63407e-42
9.74247e-40
1.20025e-37
7.7966e-36
0.999876
0.998532
0.999607
0.999646
0.999988
0.999995
0.999999
0.999999
1
0.999999
0.999999
0.87567
1
0.999999
0.999999
0.708378
0.945668
0.999957
0.999996
0.641231
0.23986
0.649146
0.999747
0.725373
8.66095e-05
0.0426976
0.588376
0.859117
8.40037e-05
4.79834e-05
0.0108534
0.670149
0.00017695
4.53154e-05
4.58178e-05
5.51133e-05
0.000166045
4.37869e-05
4.4717e-05
3.50426e-05
4.36583e-05
4.37869e-05
0.000215042
8.57055e-05
0.000279168
0.000264655
0.000276009
1.22993e-05
0.000265701
0.000169386
1.04481e-06
3.66537e-09
2.85841e-05
7.72809e-06
3.6662e-09
3.66635e-09
4.73304e-11
2.47711e-10
3.69472e-09
3.68258e-09
1.82772e-11
7.66351e-11
4.64627e-09
4.64854e-09
9.51412e-10
2.77152e-09
4.48405e-09
4.64805e-09
2.45082e-10
6.94668e-10
1.15966e-09
1.81356e-09
1.56558e-10
1.87773e-10
1.81161e-10
5.1867e-09
1.18764e-10
1.6078e-10
1.60994e-10
3.44592e-09
5.43285e-11
1.51793e-10
3.04437e-10
7.44929e-10
2.44942e-11
9.67698e-11
1.70787e-10
1.86222e-10
8.53043e-12
3.83103e-11
9.93315e-11
1.89909e-10
3.23214e-12
1.55969e-11
6.06421e-11
1.74464e-10
1.15923e-12
8.50261e-12
5.51538e-11
1.49406e-10
4.3952e-13
4.5955e-12
4.15827e-11
1.18275e-10
1.86694e-13
1.97743e-12
1.82964e-11
6.23904e-11
8.17981e-14
1.01076e-12
8.30475e-12
2.20614e-11
3.53096e-14
6.81675e-13
3.69842e-12
4.41426e-12
2.16055e-14
2.54508e-13
2.63223e-13
7.34896e-13
9.06767e-15
9.0476e-14
9.12663e-14
2.28194e-13
1.77101e-15
2.9678e-14
8.82494e-13
1.74912e-11
1.56557e-16
7.76878e-15
4.34456e-13
6.90498e-12
7.6972e-18
1.27225e-15
2.1566e-13
8.23289e-12
5.93678e-19
2.09184e-16
7.44392e-14
2.88308e-12
3.91166e-20
9.80902e-18
9.50756e-15
2.93032e-13
1.77436e-21
1.27783e-19
1.12632e-15
3.85871e-14
5.47668e-23
1.85851e-21
1.57701e-16
4.39267e-15
6.11831e-25
1.35635e-22
1.43902e-17
3.41219e-16
1.28429e-26
3.60658e-24
6.9935e-19
1.75105e-17
8.72001e-30
6.94783e-25
1.78943e-20
3.3069e-19
6.88503e-32
1.40253e-27
3.93722e-26
2.61174e-31
0.999605
0.94771
0.521215
0.167779
0.0194211
0.000724816
0.000137756
5.80639e-05
4.67785e-05
0.000118476
0.000196751
0.00044598
0.0048309
0.00494237
0.0038481
0.00139525
0.000237189
0.000341328
0.84217
0.823693
0.143973
0.000634574
0.001225
0.0226007
0.00103655
0.000380979
0.000542802
0.000729178
0.0130082
0.0121892
0.0245911
0.014465
0.00172402
7.61909e-05
4.05324e-05
7.01487e-05
0.0340945
0.883228
0.213614
0.000504373
0.0002591
0.00113433
0.0028532
0.00320735
0.0169234
0.0214787
0.0214455
0.0201566
0.153489
0.0449939
0.000130046
8.5627e-05
4.05324e-05
4.05324e-05
4.05324e-05
0.288138
0.909712
0.0500534
5.63059e-05
0.000182384
0.0002591
0.00581351
0.0266563
0.0270085
0.018919
0.00090857
0.0180844
0.204732
0.0312214
0.000179644
0.000130046
0.000106983
4.05324e-05
7.01487e-05
0.486583
0.921102
0.0150783
2.20826e-05
2.57223e-05
0.00057573
0.0111307
0.0167587
0.0043486
0.000299932
1.36767e-05
0.00449963
0.204732
0.117266
0.000229918
0.0142437
0.0852598
0.000106983
0.000191566
0.577228
0.924645
0.0307485
2.21136e-05
1.93313e-05
0.00026581
0.00422823
0.000568057
8.71208e-05
1.69449e-05
1.20513e-05
1.21962e-05
0.102232
0.17296
0.130147
0.397161
0.710646
0.220942
0.0563668
0.677497
0.928082
0.479281
0.00191759
1.68773e-05
2.32948e-05
3.85059e-05
0.000151779
4.08258e-05
1.72208e-05
1.2558e-05
1.18309e-05
1.18309e-05
1.49237e-05
0.356778
0.914412
0.925926
0.861766
0.734118
0.859548
0.929552
0.730797
0.442845
1.71547e-05
1.65802e-05
1.75533e-05
0.00257764
0.125893
0.229882
0.18764
0.054795
1.18309e-05
0.0921166
0.713029
0.925926
0.928689
0.92987
0.930019
0.929978
0.929832
0.411473
0.533401
0.512767
0.418212
0.45591
0.639571
0.706942
0.706289
0.698149
0.693845
0.713404
0.816426
0.829363
0.786422
0.665094
0.730335
0.914537
0.930203
0.930203
2.86585e-07
0.163677
0.3321
0.508537
0.708713
0.710069
0.710069
0.707088
0.672929
0.621663
0.593941
0.514338
0.295128
0.0767132
0.025796
0.0255976
0.34963
0.90019
0.930203
7.27553e-08
2.8661e-07
0.0114609
0.075702
0.1381
0.184873
0.164381
0.120764
0.101818
0.0801939
0.0243569
0.0214784
0.0157933
0.0113377
0.0113377
0.0113377
0.100866
0.803544
0.929628
9.74388e-09
8.33885e-07
2.75316e-07
3.84346e-06
1.42362e-05
1.68411e-05
1.40921e-05
5.60585e-05
0.00024898
0.00176879
0.0110361
0.163587
0.276897
0.243492
0.0417752
0.0113598
0.19162
0.847727
0.928876
8.58461e-09
7.73288e-08
5.25224e-08
4.60202e-08
2.7384e-07
7.95874e-07
1.58942e-06
1.29157e-05
4.63934e-05
0.000323374
0.0026121
0.376968
0.896407
0.9127
0.678514
0.482053
0.696528
0.87936
0.895151
3.66551e-09
3.66907e-09
3.78437e-09
6.37512e-09
6.34508e-08
3.75144e-07
6.22179e-07
1.86492e-06
1.1338e-05
0.000101553
0.000877594
0.300236
0.889638
0.91271
0.912711
0.912817
0.91296
0.91218
0.859545
3.67542e-09
3.68025e-09
3.727e-09
4.60766e-08
3.31068e-07
4.07106e-07
4.31952e-07
5.74883e-07
2.32003e-06
8.59156e-05
0.000168443
0.00877948
0.52498
0.9127
0.912817
0.91296
0.91296
0.91296
0.871074
4.04458e-09
3.727e-09
3.79725e-09
6.39448e-08
1.12948e-06
1.51484e-06
1.01276e-06
9.7949e-07
1.38019e-06
6.47683e-06
2.92429e-05
0.00150972
0.400799
0.911841
0.856623
0.696962
0.88246
0.912813
0.912857
3.98173e-09
3.78054e-09
3.79141e-09
5.81834e-09
7.27928e-07
1.5163e-06
1.52602e-06
1.47573e-06
1.37829e-06
2.29172e-06
3.00183e-05
0.00917118
0.491374
0.90449
0.600106
0.180066
0.340138
0.827052
0.892734
1.37709e-08
3.73212e-08
3.39075e-08
1.07805e-08
3.58231e-08
8.6733e-07
1.52596e-06
1.52604e-06
8.86166e-07
1.185e-06
1.62418e-05
0.000798586
0.287405
0.709799
0.658338
0.177766
0.178361
0.178668
0.263381
4.16292e-08
4.40065e-08
4.40065e-08
3.19382e-08
1.05954e-08
5.01585e-08
1.21676e-06
1.52596e-06
8.40042e-07
3.77856e-06
5.61154e-05
5.86384e-05
9.16899e-05
0.134215
0.339075
0.362845
0.187088
0.179177
0.182726
2.46888e-08
4.16219e-08
4.3673e-08
2.37826e-08
1.04606e-08
1.05954e-08
3.52994e-07
1.25614e-06
8.14918e-07
1.73379e-06
7.18105e-06
5.60589e-05
5.86384e-05
9.16899e-05
0.000300801
0.0588757
0.19181
0.359836
0.36711
1.44719e-09
4.66973e-09
6.41646e-09
2.30707e-09
6.14038e-09
7.36747e-08
8.8408e-08
1.31003e-07
8.00217e-07
1.00786e-06
2.15321e-07
0.000193833
0.000710222
0.000328949
0.000346386
0.000354471
0.013073
0.17701
0.380318
2.47444e-10
6.83409e-10
8.96568e-10
6.79689e-10
1.61771e-09
2.2069e-07
9.71097e-08
1.01062e-07
5.79688e-07
2.40183e-07
1.34772e-07
0.000173762
0.000801182
0.000414457
0.000347551
0.000348716
0.000355644
0.00173701
0.380332
3.26032e-10
1.6073e-09
2.76813e-09
8.59697e-10
8.63753e-10
1.30561e-07
1.01062e-07
1.02286e-07
1.06929e-07
1.14866e-07
1.25203e-07
1.34724e-07
0.000751972
0.000887248
0.000351285
0.000355644
0.000364262
0.00789278
0.380106
2.82825e-10
1.44895e-09
2.77524e-09
8.6376e-10
2.97376e-08
3.00886e-08
1.79158e-06
1.21919e-06
1.18258e-07
1.24471e-07
1.24471e-07
1.25203e-07
3.06337e-05
0.000867664
0.000865499
0.000395788
0.000379904
0.000393856
0.297464
1.69862e-10
3.72719e-10
1.38068e-09
8.73779e-10
2.14303e-08
7.63742e-08
1.91661e-06
1.40315e-06
1.24709e-07
1.24471e-07
9.59205e-07
4.40939e-07
4.45755e-07
0.000616092
0.000985132
0.000997712
0.000396176
0.000393945
0.220814
1.31323e-10
1.31315e-10
1.35289e-10
6.70984e-10
1.3436e-08
6.19793e-08
8.14203e-08
2.07237e-06
1.25927e-07
1.24783e-07
1.15426e-06
5.07835e-07
2.751e-07
0.000145017
0.000979612
0.00100532
0.000457865
0.000480217
0.241174
7.83908e-11
1.34137e-10
6.67193e-10
1.87454e-08
3.16911e-06
1.44486e-06
8.59153e-08
1.00722e-05
2.85263e-05
7.46502e-06
3.43158e-07
2.76031e-07
2.3696e-07
8.36893e-05
0.000496858
0.000401997
0.0101564
0.000564167
0.241412
2.5396e-11
4.71585e-10
7.68411e-06
5.73847e-05
0.000156526
0.000140124
2.36337e-05
1.31963e-05
2.86443e-05
1.69118e-05
1.76214e-06
2.3696e-07
2.31226e-07
7.08237e-06
1.00899e-06
0.000495271
0.0239743
0.000853062
0.162991
5.44804e-11
5.79744e-09
4.73673e-05
0.000217827
0.000219881
0.000219239
0.000129521
1.5637e-05
1.72737e-05
5.77918e-05
5.66618e-06
2.08369e-07
2.06677e-07
1.86181e-07
2.1444e-07
0.0255435
0.0256391
0.00150755
0.109412
6.19832e-11
2.43678e-08
5.06669e-05
9.72784e-05
0.000149928
0.000219881
0.000188262
2.33921e-05
1.98513e-05
6.02434e-05
1.61221e-05
1.94174e-07
1.77045e-07
1.47174e-07
1.51611e-07
0.0385624
0.0209941
0.00167717
0.125733
3.7145e-09
5.04693e-07
6.54916e-13
1.52115e-10
2.89123e-10
0.000185534
0.000206022
2.54155e-05
2.8054e-05
6.03716e-05
5.92305e-05
1.55382e-05
1.47174e-07
1.44762e-07
1.47174e-07
0.0392854
0.0185794
0.00197315
0.148539
5.54552e-11
3.41218e-13
1.97707e-13
6.54916e-13
1.85195e-10
9.72584e-06
0.000186589
4.41658e-06
2.93222e-05
6.0377e-05
6.03716e-05
5.98497e-05
1.75026e-05
1.47174e-07
0.00203229
0.0400518
0.0178283
0.00675024
0.151056
1.22703e-11
2.48039e-12
1.97707e-13
1.97613e-13
2.92375e-10
1.51374e-06
4.36129e-05
1.06095e-06
2.98029e-05
6.03768e-05
6.03781e-05
6.03616e-05
5.40265e-05
1.47174e-07
0.00191755
0.0405268
0.0202377
0.010865
0.151038
3.484e-11
6.69381e-12
1.97707e-13
1.02768e-09
3.65078e-07
1.29694e-06
7.43804e-07
7.41145e-07
1.84722e-05
6.03772e-05
6.03768e-05
6.03239e-05
1.70339e-05
3.69181e-07
0.00538543
0.0408725
0.0279141
0.0107207
0.124545
7.40084e-12
2.16527e-12
1.85534e-13
2.0158e-13
1.86407e-06
8.03359e-06
6.13226e-06
9.91826e-07
4.78484e-06
4.4683e-05
5.80337e-05
7.15384e-06
5.75365e-07
5.9792e-07
0.0241453
0.0409505
0.0319585
0.0107123
0.0618884
2.1066e-13
4.83956e-14
2.62422e-14
2.85769e-13
2.51157e-06
8.02888e-06
8.03594e-06
3.38764e-06
5.41089e-06
1.95044e-05
1.77332e-05
1.26606e-07
3.41786e-07
4.69698e-05
0.0322353
0.040948
0.0301776
0.0108914
0.0714606
3.27724e-14
1.71186e-15
1.73201e-15
1.13066e-11
5.03891e-07
7.23582e-06
7.9935e-06
5.96107e-06
2.22404e-06
4.96978e-06
7.98217e-07
1.01416e-07
1.26606e-07
4.46806e-07
0.00380079
0.0409495
0.0324404
0.0109315
0.142675
3.33066e-15
1.25492e-15
1.28962e-15
1.6108e-12
2.71565e-10
1.34337e-06
7.95059e-06
6.18554e-06
2.39675e-07
1.68023e-08
5.72929e-09
1.05448e-08
9.52625e-06
0.000288607
5.8647e-05
0.024211
0.0326578
0.0202275
0.195362
2.2657e-16
4.48766e-17
9.47099e-17
8.24125e-14
1.06785e-11
5.2174e-09
2.58163e-06
5.9714e-06
1.22137e-06
5.72929e-09
2.65113e-09
5.72929e-09
1.60764e-06
0.000466679
5.80876e-05
2.02359e-06
0.0234751
0.0262363
0.196198
8.25068e-18
4.40016e-19
2.03025e-17
9.62738e-16
1.22865e-13
9.80041e-12
1.43601e-08
8.99191e-07
1.66151e-06
1.88145e-07
2.2368e-09
6.38721e-06
1.61287e-06
0.000346003
4.86289e-05
1.3533e-09
0.00427008
0.0189746
0.196158
8.87744e-20
1.70448e-22
2.72909e-19
1.51682e-16
1.64609e-14
1.07271e-13
6.91507e-12
2.04711e-10
1.69449e-07
1.90568e-07
1.82247e-09
3.08834e-05
4.26374e-05
8.27365e-08
1.13338e-09
8.70297e-12
1.61846e-13
6.48115e-14
0.189577
7.83423e-43
3.57545e-28
1.36834e-22
2.01929e-19
9.69865e-17
8.11266e-15
1.48198e-13
8.81893e-12
2.04711e-10
1.33105e-08
1.82247e-09
1.01914e-05
4.64882e-06
-1.09164e-11
-1.46754e-28
1.79604e-29
-2.29367e-39
-1.37702e-29
0.0384992
)
;

boundaryField
{
    leftWall
    {
        type            zeroGradient;
    }
    rightWall
    {
        type            zeroGradient;
    }
    lowerWall
    {
        type            zeroGradient;
    }
    atmosphere
    {
        type            inletOutlet;
        inletValue      uniform 0;
        value           nonuniform List<scalar> 
46
(
-3.61971e-59
-6.61875e-63
-8.64922e-67
-3.08163e-67
-1.45782e-64
-2.58768e-62
-4.1322e-60
-4.91183e-58
-4.07504e-56
-2.30339e-54
-7.85047e-53
-1.41179e-51
-7.48103e-50
-1.86733e-48
4.66891e-54
5.20522e-51
1.54635e-48
3.40797e-46
4.5765e-44
6.63407e-42
9.74247e-40
1.20025e-37
7.7966e-36
6.88503e-32
0
0
0
0
0
1.36834e-22
2.01929e-19
9.69865e-17
8.11266e-15
1.48198e-13
8.81893e-12
2.04711e-10
1.33105e-08
1.82247e-09
1.01914e-05
0
0
0
0
0
0
0.0384992
)
;
    }
    defaultFaces
    {
        type            empty;
    }
}


// ************************************************************************* //
