/*--------------------------------*- C++ -*----------------------------------*\
| =========                 |                                                 |
| \\      /  F ield         | OpenFOAM: The Open Source CFD Toolbox           |
|  \\    /   O peration     | Version:  2206                                  |
|   \\  /    A nd           | Website:  www.openfoam.com                      |
|    \\/     M anipulation  |                                                 |
\*---------------------------------------------------------------------------*/
FoamFile
{
    version     2.0;
    format      ascii;
    arch        "LSB;label=32;scalar=64";
    class       surfaceScalarField;
    location    "0.525";
    object      alphaPhi0.water;
}
// * * * * * * * * * * * * * * * * * * * * * * * * * * * * * * * * * * * * * //

dimensions      [0 3 -1 0 0 0 0];

oriented        oriented;

internalField   nonuniform List<scalar> 
4432
(
-3.6801e-06
3.6801e-06
-5.49614e-06
1.81603e-06
-4.12378e-06
-1.37236e-06
-6.40244e-07
-3.48354e-06
4.22214e-06
-4.86239e-06
9.47676e-06
-5.25462e-06
1.41541e-05
-4.6773e-06
1.76648e-05
-3.51069e-06
1.99165e-05
-2.25173e-06
2.10872e-05
-1.17069e-06
2.13858e-05
-2.98657e-07
2.09466e-05
4.39206e-07
1.98297e-05
1.11696e-06
1.80234e-05
1.80627e-06
1.53283e-05
2.69512e-06
1.13634e-05
3.96483e-06
5.80249e-06
5.56093e-06
-9.17253e-07
6.71975e-06
-5.60182e-06
5.30318e-06
-1.04019e-05
4.6497e-06
-1.89487e-05
6.74483e-06
-1.65697e-05
-2.37895e-06
-1.65697e-05
-4.02468e-06
7.70478e-06
-5.17722e-06
2.96857e-06
-3.58804e-06
-2.96155e-06
-1.12569e-07
-6.959e-06
4.59476e-06
-9.56971e-06
9.78583e-06
-1.04457e-05
1.44051e-05
-9.29659e-06
1.78445e-05
-6.95003e-06
2.00359e-05
-4.44312e-06
2.11934e-05
-2.32819e-06
2.16009e-05
-7.0618e-07
2.1517e-05
5.23127e-07
2.11338e-05
1.50014e-06
2.05334e-05
2.40669e-06
1.97313e-05
3.49721e-06
1.84936e-05
5.20245e-06
1.60833e-05
7.97123e-06
1.11702e-05
1.16329e-05
3.10219e-06
1.33983e-05
-6.18047e-06
1.5103e-05
-1.29991e-05
1.27624e-05
-1.04759e-05
-5.1632e-06
-2.70456e-05
-3.31793e-06
1.10227e-05
-4.1146e-06
3.76523e-06
-2.64334e-06
-4.4328e-06
4.30534e-07
-1.00329e-05
4.85881e-06
-1.3998e-05
9.91663e-06
-1.55035e-05
1.44366e-05
-1.38166e-05
1.77287e-05
-1.02421e-05
1.97604e-05
-6.47479e-06
2.08082e-05
-3.37599e-06
2.11493e-05
-1.04733e-06
2.09854e-05
6.87064e-07
2.0453e-05
2.0325e-06
1.96773e-05
3.18244e-06
1.88094e-05
4.36508e-06
1.80907e-05
5.92116e-06
1.77101e-05
8.35184e-06
1.67737e-05
1.25693e-05
1.29432e-05
1.72287e-05
5.94942e-06
2.21827e-05
-1.92197e-06
1.9835e-05
-2.52018e-06
-4.52659e-06
-2.95658e-05
-2.28703e-06
1.33097e-05
-2.60008e-06
4.07829e-06
-1.30694e-06
-5.72594e-06
1.19042e-06
-1.25302e-05
5.16565e-06
-1.79732e-05
9.98132e-06
-2.03192e-05
1.43303e-05
-1.81656e-05
1.74324e-05
-1.33442e-05
1.92874e-05
-8.32987e-06
2.02279e-05
-4.3164e-06
2.05565e-05
-1.37599e-06
2.0458e-05
7.85542e-07
2.00461e-05
2.4444e-06
1.93882e-05
3.84036e-06
1.85562e-05
5.19704e-06
1.77063e-05
6.7711e-06
1.72335e-05
8.82464e-06
1.76048e-05
1.2198e-05
1.7829e-05
1.70044e-05
1.6431e-05
2.35807e-05
1.23824e-05
2.46525e-05
7.10177e-06
1.35491e-06
-2.24439e-05
-9.11863e-07
1.42216e-05
-3.86095e-07
3.55252e-06
9.04854e-07
-7.01689e-06
3.09273e-06
-1.47181e-05
6.58006e-06
-2.14606e-05
1.07643e-05
-2.45034e-05
1.44907e-05
-2.1892e-05
1.70968e-05
-1.59503e-05
1.86534e-05
-9.88646e-06
1.94882e-05
-5.1512e-06
1.98502e-05
-1.73799e-06
1.98685e-05
7.67221e-07
1.96344e-05
2.67849e-06
1.91942e-05
4.28062e-06
1.85983e-05
5.79288e-06
1.79375e-05
7.43188e-06
1.73877e-05
9.37447e-06
1.75257e-05
1.20599e-05
1.88612e-05
1.5669e-05
2.09957e-05
2.14462e-05
2.094e-05
2.50688e-05
1.34373e-05
8.97754e-06
-9.00079e-06
9.92435e-07
1.32292e-05
2.9338e-06
1.61116e-06
5.02198e-06
-9.10506e-06
7.62073e-06
-1.73169e-05
1.05675e-05
-2.44074e-05
1.33648e-05
-2.73007e-05
1.5629e-05
-2.41562e-05
1.7156e-05
-1.74773e-05
1.80984e-05
-1.08288e-05
1.87075e-05
-5.76029e-06
1.91009e-05
-2.13138e-06
1.92903e-05
5.77764e-07
1.92707e-05
2.69811e-06
1.90563e-05
4.49503e-06
1.86846e-05
6.16456e-06
1.8262e-05
7.85445e-06
1.79337e-05
9.70286e-06
1.79195e-05
1.20741e-05
1.87666e-05
1.48219e-05
2.13565e-05
1.88562e-05
2.29707e-05
2.34547e-05
1.60892e-05
1.5859e-05
7.08433e-06
3.41801e-06
9.81117e-06
7.51763e-06
-2.48846e-06
1.17827e-05
-1.33701e-05
1.54165e-05
-2.09506e-05
1.73561e-05
-2.63469e-05
1.78292e-05
-2.77738e-05
1.78963e-05
-2.42232e-05
1.7968e-05
-1.7549e-05
1.80914e-05
-1.09522e-05
1.83018e-05
-5.97069e-06
1.85352e-05
-2.36486e-06
1.88347e-05
2.78348e-07
1.89926e-05
2.54018e-06
1.90083e-05
4.47935e-06
1.88522e-05
6.32066e-06
1.8619e-05
8.08764e-06
1.85004e-05
9.8215e-06
1.85981e-05
1.19763e-05
1.89719e-05
1.44481e-05
2.06255e-05
1.72026e-05
2.23007e-05
2.17794e-05
1.75601e-05
2.05996e-05
2.46409e-05
5.82349e-06
3.98768e-06
1.31044e-05
-9.76933e-06
2.04438e-05
-2.07092e-05
2.4484e-05
-2.49901e-05
2.43586e-05
-2.62207e-05
2.20818e-05
-2.54962e-05
2.01083e-05
-2.22493e-05
1.91123e-05
-1.65528e-05
1.87709e-05
-1.06108e-05
1.87694e-05
-5.96914e-06
1.89571e-05
-2.55259e-06
1.89067e-05
3.2875e-07
1.90033e-05
2.44356e-06
1.90538e-05
4.4289e-06
1.89889e-05
6.38551e-06
1.89271e-05
8.14949e-06
1.90369e-05
9.71168e-06
1.93301e-05
1.16831e-05
1.96656e-05
1.41127e-05
2.05038e-05
1.63644e-05
2.14356e-05
2.08476e-05
1.77539e-05
2.42813e-05
4.23913e-05
2.7937e-13
-2.33587e-12
5.34697e-11
-5.52468e-11
2.17548e-09
-2.14406e-09
1.57211e-09
6.79444e-10
-2.61515e-05
9.82521e-06
-4.8823e-05
2.39318e-05
-5.96976e-05
1.219e-05
-5.36815e-05
1.96551e-06
-7.1339e-05
-3.85713e-07
-0.000100309
-1.02649e-06
-0.000104901
-2.14754e-06
-0.000102169
-2.85317e-06
-0.000102377
-3.43239e-06
-0.000105541
-4.8247e-06
-0.000106533
-8.51222e-06
-0.000101273
-1.50568e-05
-7.80725e-05
-2.97245e-05
-1.88254e-05
-6.55479e-05
-2.26498e-05
2.23767e-11
-3.47768e-11
4.16527e-09
-3.63622e-09
-3.46604e-08
3.83165e-08
-8.85748e-06
5.88428e-06
-3.6158e-05
2.11108e-05
-1.60924e-05
8.87056e-06
-2.35157e-06
7.54791e-07
-1.02766e-07
3.92155e-08
-4.8751e-07
-1.55768e-09
-1.50782e-06
-6.98479e-09
-3.63767e-06
-1.91657e-08
-1.16848e-05
-5.93738e-08
-2.69644e-05
-1.72421e-07
-3.70304e-05
-5.22692e-07
-4.52101e-05
-1.71078e-06
-6.03693e-05
-5.30595e-06
-8.00112e-05
-2.04297e-05
-3.11417e-05
-0.000116331
-5.37889e-05
1.50294e-10
-1.13038e-09
1.4601e-08
-5.21303e-08
-9.27774e-07
9.95116e-07
-1.15803e-05
1.21644e-05
-7.58827e-06
1.03204e-05
-7.21553e-07
2.07198e-06
-4.97346e-08
8.99039e-08
-1.43403e-08
3.53952e-09
-1.6773e-08
3.44397e-10
-2.26536e-08
-1.67775e-09
-3.84501e-08
-4.13774e-09
-9.25042e-08
-7.03008e-09
-2.55219e-07
-1.39772e-08
-7.46319e-07
-4.08818e-08
-2.28542e-06
-1.87039e-07
-6.67601e-06
-9.37503e-07
-2.25982e-05
-4.93327e-06
-4.05286e-05
-0.000103203
-9.4313e-05
-2.31632e-09
8.9155e-10
-1.1636e-07
4.82849e-08
-8.31007e-06
3.15625e-06
-1.13714e-05
1.51334e-05
-1.86869e-06
5.70213e-07
-8.98382e-08
2.94962e-07
-1.10283e-08
1.09023e-08
-1.13467e-08
3.46155e-09
-1.2974e-08
1.51935e-09
-1.37894e-08
-1.39389e-09
-1.45704e-08
-3.95223e-09
-1.55135e-08
-6.82419e-09
-2.25871e-08
-8.64216e-09
-5.56321e-08
-1.19765e-08
-1.70182e-07
-8.15848e-08
-9.60573e-07
-1.68246e-07
-3.87344e-06
-2.05567e-06
-3.95897e-05
-7.00275e-05
-0.000133901
-9.08526e-09
1.67776e-09
-5.40409e-08
7.36353e-08
-2.15043e-06
1.37346e-06
-2.96878e-06
6.71111e-06
-2.0302e-07
2.06591e-06
-9.78581e-09
1.01401e-07
-6.3065e-09
7.18735e-09
-8.70932e-09
5.46561e-09
-1.02551e-08
2.66795e-09
-1.01379e-08
-1.91653e-09
-1.04109e-08
-4.08272e-09
-1.6001e-08
-5.32989e-09
-2.66792e-08
-2.61453e-08
-4.18883e-08
-1.21981e-08
-2.50864e-08
-1.54684e-07
-2.18083e-07
-5.84175e-08
-1.70593e-06
-6.75499e-07
-3.32296e-05
-4.02077e-05
-0.000167143
-2.81325e-09
4.01972e-09
1.7683e-08
5.09953e-08
4.45935e-07
2.92515e-07
1.19292e-06
4.35734e-06
4.81578e-07
3.26413e-06
2.66097e-08
1.03486e-06
-2.87154e-09
3.83073e-08
-7.34312e-09
9.55639e-09
-8.02251e-09
4.87474e-09
-6.8111e-09
-2.16216e-09
-4.26503e-09
-7.49837e-09
-2.00842e-09
-7.80007e-09
-7.9978e-09
-3.09014e-08
6.99062e-08
-1.74134e-07
1.57912e-07
-8.57014e-07
5.78391e-08
-1.10968e-07
-7.04969e-07
-4.29657e-08
-2.44282e-05
-1.80495e-05
-0.000191679
5.53806e-10
2.97034e-10
1.23396e-05
-1.02298e-05
2.16916e-05
-2.04523e-05
2.16206e-06
3.0828e-05
4.07941e-07
5.17902e-06
1.25028e-07
1.55562e-06
1.08859e-08
1.50157e-07
-5.0652e-10
2.07318e-08
-2.24115e-09
8.307e-09
-1.70774e-10
-7.94817e-10
3.31316e-09
7.33573e-09
1.66453e-08
-2.06594e-08
1.05801e-07
-1.25051e-07
4.73731e-07
-3.88856e-07
5.0472e-07
-9.25861e-07
2.94564e-07
-1.65923e-07
1.45291e-07
2.2409e-08
-1.28975e-05
-5.79758e-06
-0.000207772
4.09424e-05
-3.32642e-05
7.32533e-05
-4.69868e-05
8.3343e-05
-3.55698e-05
2.24244e-05
4.16476e-05
3.12237e-06
1.68518e-05
2.79571e-07
4.32829e-06
3.24396e-08
5.78302e-07
7.41004e-09
5.98709e-08
6.22855e-09
9.63332e-09
1.71412e-08
-1.5018e-08
5.08235e-08
-2.51587e-08
1.1318e-07
-8.80078e-08
3.84969e-07
-4.07032e-07
7.88001e-07
-9.23961e-07
6.27598e-07
-9.24469e-07
4.87078e-07
-2.43813e-07
4.39353e-07
3.9663e-08
-5.66417e-06
-2.36631e-07
-0.000226392
2.03026e-05
-1.63149e-05
4.33059e-05
-2.86636e-05
5.4086e-05
-2.16438e-05
5.35723e-05
-1.20578e-05
4.84676e-05
-9.53639e-06
4.27768e-05
-1.07337e-05
3.8326e-05
-1.20131e-05
3.70922e-05
-1.16373e-05
3.83837e-05
-9.90602e-06
4.04044e-05
-7.44469e-06
4.2259e-05
-4.40727e-06
4.38688e-05
-1.28105e-06
4.43321e-05
1.98034e-06
4.37758e-05
4.98518e-06
4.27036e-05
7.45772e-06
4.1701e-05
9.1521e-06
4.17788e-05
9.63383e-06
4.25754e-05
1.08865e-05
4.38393e-05
1.28488e-05
4.59589e-05
1.42448e-05
5.01487e-05
1.66578e-05
5.7389e-05
1.7041e-05
3.05113e-05
6.9263e-05
1.64634e-05
-4.34735e-22
1.14208e-05
-4.63142e-20
6.24081e-06
-1.93867e-17
4.31277e-06
-1.18188e-15
4.60451e-06
-4.56014e-14
4.35818e-06
-1.80742e-12
3.63175e-06
-6.25876e-11
4.41653e-06
-1.7372e-09
8.15789e-06
-4.21723e-08
1.55901e-05
-8.29935e-07
2.62692e-05
-3.55948e-06
3.6487e-05
-3.17208e-06
4.40086e-05
-1.00692e-06
4.69525e-05
2.79123e-06
4.61428e-05
8.26746e-06
4.43753e-05
1.09196e-05
4.47827e-05
9.22645e-06
4.53474e-05
1.03217e-05
4.6501e-05
1.16952e-05
4.93921e-05
1.13537e-05
5.43148e-05
1.17351e-05
6.13616e-05
9.99419e-06
1.53236e-05
7.65493e-05
4.07352e-23
-7.87975e-22
1.29817e-22
-4.66268e-20
-1.93762e-17
-1.26256e-20
-1.20134e-15
8.14335e-20
-4.67948e-14
-9.52559e-18
-1.85399e-12
-3.47158e-16
-6.4445e-11
8.13754e-16
-1.80164e-09
-9.73178e-18
-4.39739e-08
-2.66788e-14
-8.73908e-07
-8.98469e-13
-1.21957e-06
-3.58547e-11
-8.11347e-07
-9.43444e-10
2.10714e-06
-1.8403e-08
9.09627e-06
-2.57095e-07
2.09273e-05
4.87304e-12
3.71275e-05
3.14826e-07
4.91052e-05
1.74134e-06
4.99138e-05
9.51316e-06
4.78022e-05
1.38068e-05
4.88526e-05
1.03033e-05
5.15533e-05
9.0344e-06
5.51704e-05
6.37709e-06
3.31995e-06
6.71741e-05
-1.05977e-21
-7.75429e-23
-2.53541e-19
-3.5262e-22
-4.02205e-19
8.7378e-20
-3.95434e-19
2.70119e-20
-1.03746e-17
-8.95216e-19
-5.80408e-16
-3.55093e-19
-3.96503e-17
-3.03141e-17
-2.07439e-16
-3.49177e-18
-1.52739e-14
-1.17764e-14
-8.62906e-13
-5.11083e-14
-3.66634e-11
-8.61771e-14
-9.79925e-10
-2.7741e-13
-1.93676e-08
-1.57621e-11
-2.75643e-07
-8.30706e-10
-7.54758e-07
-9.59882e-09
-1.00231e-06
-2.89502e-08
1.45225e-06
-3.78924e-07
1.40918e-05
-1.20374e-06
3.29042e-05
5.33803e-08
5.04879e-05
-4.63441e-07
5.61337e-05
3.38866e-06
5.86155e-05
3.89529e-06
-8.62077e-07
6.27975e-05
-1.2376e-22
-2.7636e-23
-1.23254e-21
-4.10986e-22
-1.6431e-20
-3.32871e-21
-1.52885e-19
-1.18877e-19
-2.98798e-18
-5.83089e-18
-6.28168e-18
-2.06193e-18
-1.15394e-17
1.37157e-18
-2.88225e-15
-8.39393e-17
-8.34276e-15
-6.48749e-14
-1.60671e-14
-2.06239e-13
-8.84222e-14
-1.2788e-13
-5.00576e-13
3.61752e-14
-1.63986e-11
2.28098e-14
-1.57228e-10
-6.9032e-10
-7.80436e-10
-8.98611e-09
-1.73055e-08
-1.24039e-08
-3.86105e-07
-9.56372e-09
-7.50221e-07
-4.32593e-09
-3.07055e-07
-9.40931e-09
2.02638e-06
-2.35545e-07
1.01911e-05
-1.02974e-06
2.54594e-05
-1.78448e-06
-5.75844e-06
4.79722e-05
-6.48026e-23
-8.8613e-24
-6.80817e-22
-6.4655e-21
-7.07266e-20
-1.92691e-19
-5.16848e-18
-2.34507e-18
-2.94569e-17
-1.26715e-17
-4.78711e-17
-7.55714e-18
3.46346e-17
1.54297e-18
1.32656e-16
-1.07523e-16
-6.36783e-13
-1.05888e-13
-9.49044e-13
-1.33073e-12
-5.40039e-14
-5.5622e-13
-1.01429e-13
1.51751e-14
-1.23864e-12
1.12175e-12
-1.01307e-09
-4.36578e-10
-5.59505e-10
-5.97058e-09
-2.37728e-09
-7.14274e-09
-1.26378e-10
-1.71582e-09
-2.33538e-10
-1.71062e-09
-3.47578e-09
-3.56937e-09
-2.35823e-07
-4.72235e-10
-3.64935e-07
-3.05563e-09
-1.40171e-06
-5.32023e-09
-8.80574e-08
-2.51485e-06
-2.66898e-23
-3.50116e-25
-1.54431e-20
-2.00716e-21
-6.93916e-19
-1.73343e-19
-8.54977e-18
-2.63654e-18
-3.98392e-17
-1.25851e-17
-5.85098e-17
-1.49605e-17
5.41921e-18
-2.28813e-18
-2.08735e-17
-2.06898e-17
-1.19163e-12
-3.58412e-14
-1.44036e-12
-7.27078e-13
-1.4589e-13
-9.95615e-13
-3.08989e-14
-1.38083e-13
1.03641e-12
6.61395e-15
7.80619e-10
-5.85919e-10
3.88246e-10
-1.60801e-10
5.94091e-11
-8.31501e-13
5.13487e-11
-2.64587e-15
8.11832e-10
-1.79063e-12
1.83928e-09
-1.53006e-09
7.93155e-09
-1.32919e-09
3.9088e-09
-3.86211e-10
-2.26644e-10
-2.51693e-09
-2.77127e-10
-8.81745e-08
-1.79204e-24
7.59252e-26
-3.42933e-21
-2.99633e-22
-4.10531e-19
-7.47269e-20
-6.75493e-18
-2.07282e-18
-3.03147e-17
-1.23348e-17
-4.82872e-17
-2.07259e-17
-4.11592e-17
-1.04579e-17
-2.58516e-17
-8.49131e-18
-1.6377e-13
-8.70635e-16
-9.79615e-13
-3.21433e-13
-6.06694e-13
-8.73559e-13
4.21038e-14
-1.37409e-12
1.02388e-11
-9.92857e-12
1.61565e-10
-1.20884e-11
8.33677e-13
-6.9057e-14
2.62213e-15
-4.46629e-16
2.52957e-17
-5.14337e-17
3.21214e-12
-5.00268e-12
4.49623e-09
-3.57833e-09
1.49123e-08
-6.35489e-09
2.41486e-08
-7.75521e-09
2.10127e-08
2.5025e-09
9.22507e-09
5.66666e-09
-9.47616e-26
1.2175e-25
-4.95871e-22
-4.00353e-23
-1.31768e-19
-2.27735e-20
-3.32644e-18
-1.01844e-18
-1.80041e-17
-8.25299e-18
-2.90542e-17
-2.19023e-17
-1.68636e-17
-2.46869e-17
-5.61523e-18
-2.85651e-17
1.48192e-15
-2.49021e-15
-2.24193e-14
-3.36043e-14
1.97401e-14
-5.23344e-14
5.83206e-13
-1.44128e-12
1.07263e-11
-4.28798e-12
6.27379e-14
-1.42671e-12
3.90037e-16
-6.70987e-15
1.72531e-17
-7.62367e-17
1.75949e-17
-5.41743e-17
2.4408e-10
-2.49083e-10
6.15241e-09
-6.62283e-09
9.45021e-09
-1.3925e-08
2.00004e-08
-1.64218e-08
2.96283e-08
-5.24182e-09
1.15631e-08
2.91738e-08
-3.39136e-24
-1.96668e-23
-5.64169e-23
-1.4008e-23
-3.14889e-20
-5.41378e-21
-9.44173e-19
-3.77141e-19
-5.23778e-18
-3.741e-18
-8.57309e-18
-1.49002e-17
6.15609e-18
-3.47988e-17
1.17972e-16
-3.09791e-17
4.89027e-15
-2.51187e-15
1.19677e-14
-2.50228e-14
2.19919e-14
-4.62394e-14
8.97354e-13
-1.0866e-13
2.20071e-12
-1.19337e-13
7.59567e-16
-9.39729e-14
1.97751e-17
-5.98272e-15
2.26763e-17
-8.1803e-17
2.32366e-17
-5.7126e-17
5.65972e-10
-3.50308e-10
3.48605e-09
-7.62378e-10
9.6201e-09
-2.1973e-08
9.2528e-09
-3.06184e-08
1.15179e-08
-1.04236e-08
3.4884e-09
2.14378e-08
-1.20506e-25
-3.07724e-23
-1.41083e-22
1.26955e-22
-6.04088e-21
-9.91692e-22
-1.90537e-19
-1.08851e-19
-1.11768e-18
-1.2654e-18
-2.51243e-18
-6.78923e-18
9.78973e-18
-3.15931e-17
8.53071e-17
-4.27233e-17
4.86714e-15
-6.30617e-16
2.15367e-14
-2.92993e-14
2.15273e-14
-4.21788e-14
1.08037e-14
-6.1058e-14
1.09723e-14
-8.16882e-14
9.76793e-15
-5.4296e-14
1.705e-16
-2.16283e-15
1.39809e-17
-4.32959e-17
3.91366e-18
-7.73078e-17
1.31767e-11
-2.48538e-14
-2.5372e-10
-5.62223e-12
-5.82739e-10
-2.35432e-09
-9.4828e-11
-2.24727e-08
-1.18026e-09
-1.36404e-08
-1.01539e-09
4.86267e-10
7.26271e-25
-3.554e-23
-5.6481e-23
1.6753e-22
-9.32714e-22
-1.48566e-22
-3.16759e-20
-2.44712e-20
-1.7672e-19
-3.30742e-19
-3.78245e-19
-2.34988e-18
6.52811e-18
-2.31406e-17
3.54017e-17
-5.89669e-17
1.56492e-15
-1.20102e-16
1.85411e-14
-2.2978e-14
2.17248e-14
-3.44004e-14
1.76071e-14
-6.61546e-14
1.32321e-14
-7.79767e-14
2.81197e-15
-1.80923e-14
5.65501e-18
-3.81031e-17
-2.70681e-20
-3.9497e-17
-6.51489e-17
-5.19023e-17
-9.90198e-14
-4.59244e-15
-5.66926e-12
-9.13009e-14
-2.33062e-09
-2.84739e-11
-9.37083e-09
-3.53659e-09
-1.2331e-08
-1.03401e-08
-3.24849e-09
-9.75776e-09
-7.08166e-25
-3.42058e-23
-4.44744e-24
1.42557e-22
-1.18148e-22
-1.93696e-23
-4.45619e-21
-4.36279e-21
-2.7378e-20
-6.88423e-20
-1.87726e-19
-7.13897e-19
2.25914e-18
-1.47985e-17
1.59225e-17
-6.49757e-17
1.89593e-16
-8.67466e-17
7.0726e-15
-5.07154e-17
9.2844e-15
-1.01933e-14
1.21823e-14
-4.79561e-14
6.83674e-15
-4.4983e-14
4.55182e-18
-1.01968e-15
-2.47062e-18
-3.56727e-17
-6.69014e-18
-3.71608e-17
-1.1944e-17
-6.87898e-17
-4.5175e-15
-1.08461e-16
-9.45746e-14
-1.25769e-15
-2.83722e-11
-1.95023e-13
-3.55529e-09
-9.61911e-12
-1.23039e-08
-5.93847e-10
-1.31821e-09
-1.38941e-08
-9.26111e-25
-2.94109e-23
-2.53135e-26
1.05796e-22
-4.91551e-23
2.97602e-23
-5.6454e-22
-5.85739e-22
-4.97226e-21
-1.14842e-20
-1.38114e-19
-1.85312e-19
-5.53389e-19
-6.15269e-18
2.83817e-18
-4.34786e-17
6.4198e-18
-7.36841e-17
4.12043e-18
-4.67203e-17
5.75651e-16
-8.67279e-16
-1.49782e-17
-1.14673e-14
-1.30502e-16
-1.28036e-17
-6.73082e-18
-5.71007e-17
-7.18836e-18
-3.95435e-17
-1.49542e-17
-2.82609e-17
-3.24659e-17
-5.99442e-17
-5.32634e-17
-1.40006e-16
-1.15603e-15
-2.07067e-16
-1.95808e-13
-4.00452e-16
-9.811e-12
-1.53594e-15
-6.03589e-10
-6.93887e-14
-2.66541e-12
-1.80085e-09
-7.20603e-25
-2.26569e-23
7.69474e-25
6.93656e-23
-2.54195e-23
5.19852e-23
-6.67105e-23
-5.45752e-23
-9.95426e-22
-1.50557e-21
-6.08797e-20
-4.10285e-20
-1.43062e-18
-1.62893e-18
-3.98616e-18
-1.58592e-17
-2.56917e-18
-4.09868e-17
-5.31106e-18
-4.20939e-17
-3.56394e-16
-1.26276e-17
-1.04173e-18
-9.52336e-18
-6.18107e-18
-7.3714e-18
-9.82817e-18
-1.41562e-17
-6.73645e-18
-1.15686e-17
-1.45079e-17
-4.35816e-18
-5.25109e-17
-6.51654e-18
-1.39184e-16
-7.95863e-17
-1.90486e-16
-2.2242e-16
-2.71837e-16
-3.89128e-16
-1.44863e-15
-4.27114e-16
-7.0299e-14
-5.93434e-16
-2.41067e-15
-2.73335e-12
-4.14443e-25
-1.55548e-23
1.47612e-24
3.92855e-23
-2.41441e-24
3.65877e-23
-6.32948e-24
-1.49827e-24
-1.88953e-22
-1.47937e-22
-1.74248e-20
-8.04716e-21
-6.24731e-19
-3.32261e-19
-3.64938e-18
-3.55859e-18
-5.61083e-18
-1.13907e-17
-2.71522e-18
-1.73358e-17
-1.28848e-18
-1.40157e-17
-1.77161e-18
-8.74706e-18
-2.68498e-18
-6.18495e-18
-4.27222e-18
-4.57934e-18
-1.10893e-18
-2.06955e-18
-1.48395e-18
-5.40851e-19
-9.67601e-18
-2.84061e-19
-1.12485e-16
-1.45969e-18
-3.42329e-16
-1.97068e-17
-5.99904e-16
-1.55258e-16
-7.37513e-16
-3.22582e-16
-8.71312e-16
-4.88078e-16
-7.2626e-16
-2.58312e-15
-1.78253e-25
-9.4231e-24
1.34665e-24
1.89841e-23
-2.70567e-27
2.01945e-23
-3.75761e-24
2.25663e-24
-3.25786e-23
-1.01342e-23
-4.37468e-21
-1.36466e-21
-1.62906e-19
-5.35117e-20
-1.13462e-18
-5.54453e-19
-2.55701e-18
-2.10983e-18
-3.87888e-18
-4.67409e-18
-2.73786e-18
-5.13045e-18
-2.54375e-18
-5.32591e-18
-1.67355e-18
-1.66215e-18
-8.47451e-19
-3.07938e-19
-2.52246e-19
-6.94721e-20
-1.08835e-19
-3.13055e-20
-1.72312e-19
-3.28877e-20
-1.91561e-18
-2.56333e-19
-4.16037e-17
-2.31321e-18
-3.2689e-16
-1.82428e-17
-8.47382e-16
-9.209e-17
-2.10457e-15
-1.963e-16
-1.79048e-16
-1.30364e-14
-5.35691e-26
-4.95623e-24
9.82706e-25
7.64879e-24
2.69111e-25
9.08949e-24
-9.23259e-25
1.84326e-24
-5.33126e-24
-5.4074e-25
-9.04988e-22
-1.8993e-22
-2.8461e-20
-7.10358e-21
-2.10579e-19
-7.33805e-20
-6.89491e-19
-3.34956e-19
-1.94006e-18
-8.12273e-19
-2.00746e-18
-1.08516e-18
-8.09691e-19
-8.81958e-19
-1.68866e-19
-3.49082e-19
-3.57776e-20
-6.20627e-20
-1.229e-20
-5.35801e-21
-1.51932e-20
-1.30141e-21
-3.41035e-20
-3.39558e-21
-3.68932e-19
-4.11215e-20
-4.29901e-18
-4.0555e-19
-4.74532e-17
-3.13392e-18
-3.45943e-16
-2.64285e-17
-1.34168e-15
-1.05522e-16
-3.31949e-17
-3.93501e-15
-7.48242e-27
-2.21286e-24
5.6702e-25
2.4905e-24
2.63585e-25
3.22953e-24
-6.35513e-26
7.24113e-25
-7.93386e-25
-3.27684e-26
-1.44343e-22
-2.10316e-23
-4.07682e-21
-8.29748e-22
-3.85319e-20
-9.24347e-21
-1.71966e-19
-4.62459e-20
-2.96092e-19
-1.08902e-19
-3.30561e-19
-1.30433e-19
-1.97593e-19
-1.08842e-19
-4.65683e-20
-5.06495e-20
-4.16093e-21
-1.04712e-20
-6.16201e-22
-6.73434e-22
-8.05926e-22
-2.34425e-23
-4.98435e-21
-3.00488e-22
-7.75149e-20
-6.76405e-21
-7.96276e-19
-8.55501e-20
-1.02562e-17
-6.59585e-19
-2.10136e-16
-4.77856e-18
-1.74022e-15
-2.41938e-17
1.04542e-16
-4.30013e-15
4.24107e-27
-8.1389e-25
2.48957e-25
6.2769e-25
1.22439e-25
8.65666e-25
-5.06572e-27
1.94001e-25
-9.13297e-26
-1.90191e-27
-1.82987e-23
-1.79295e-24
-5.68063e-22
-8.72953e-23
-6.33563e-21
-1.10205e-21
-2.91318e-20
-5.37219e-21
-4.34706e-20
-1.24468e-20
-4.82261e-20
-1.46929e-20
-3.21999e-20
-1.16804e-20
-9.09501e-21
-5.62951e-21
-7.11742e-22
-1.25881e-21
-5.68673e-24
-7.72372e-23
-1.4513e-23
1.12117e-23
-6.62519e-22
-1.56858e-23
-1.8143e-20
-1.07343e-21
-2.42115e-19
-1.96979e-20
-2.48799e-18
-1.73144e-19
-4.4209e-17
-6.97379e-19
-6.27604e-16
-3.21335e-19
6.44018e-17
-2.52697e-15
3.14386e-27
-2.3731e-25
7.99725e-26
1.14931e-25
3.81677e-26
1.63684e-25
-3.76568e-28
3.57568e-26
-6.99909e-27
-3.24141e-28
-1.91077e-24
-1.02861e-25
-7.78024e-23
-7.34679e-24
-8.63106e-22
-1.13677e-22
-3.87255e-21
-5.37577e-22
-5.76415e-21
-1.12284e-21
-6.19195e-21
-1.30451e-21
-4.12116e-21
-1.0101e-21
-1.23616e-21
-4.19095e-22
-8.71449e-23
-5.29522e-23
1.54677e-23
1.64553e-23
-1.76034e-23
1.79677e-23
-7.04259e-23
-2.92986e-24
-4.0401e-21
-1.30941e-22
-9.88106e-20
-3.57362e-21
-1.03304e-18
-3.72037e-20
-6.50565e-18
-9.60654e-20
-5.51623e-17
4.95784e-19
9.65263e-18
-4.756e-16
8.87536e-28
-5.21197e-26
1.76871e-26
1.3743e-26
8.07632e-27
1.97636e-26
-1.52337e-29
4.19522e-27
-7.56617e-28
4.17242e-28
-1.42835e-25
-3.28348e-27
-8.87762e-24
-4.09966e-25
-1.05162e-22
-8.15667e-24
-4.00856e-22
-3.85324e-23
-5.89903e-22
-7.35211e-23
-6.28773e-22
-8.72423e-23
-3.76485e-22
-6.66007e-23
-6.96155e-23
-2.08015e-23
2.3594e-23
6.77078e-24
3.05216e-23
1.71076e-23
-1.22688e-24
1.53753e-23
-7.44001e-24
3.28328e-24
-6.96039e-22
-1.32762e-23
-2.64846e-20
-5.33242e-22
-4.0843e-19
-4.83538e-21
-2.37073e-18
1.66325e-20
-1.09125e-17
4.10151e-19
3.81237e-18
-1.10215e-16
1.35749e-28
-8.00504e-27
2.44859e-27
8.3456e-28
1.07364e-27
1.2375e-27
1.44493e-28
2.53771e-28
-7.86643e-28
3.84449e-29
-6.59011e-27
-2.84332e-29
-6.75806e-25
-1.14192e-26
-8.87843e-24
-3.08116e-25
-2.90182e-23
-1.55388e-24
-4.50852e-23
-3.00636e-24
-4.80181e-23
-3.61574e-24
-2.52759e-23
-1.7402e-24
1.00911e-23
1.77212e-24
3.00738e-23
6.33145e-24
3.26926e-23
9.58139e-24
8.80034e-24
6.69711e-24
-3.36261e-23
2.03793e-24
-1.21122e-22
-1.51087e-24
-5.83726e-21
-5.99371e-23
-1.11598e-19
1.17439e-23
-8.01327e-19
1.80426e-20
-3.85444e-18
2.18939e-19
1.76853e-18
-2.93016e-17
9.68086e-30
-7.58919e-28
1.72197e-28
7.35393e-35
7.26227e-29
1.26967e-33
1.49195e-29
1.56084e-32
-8.70532e-30
1.0682e-31
-1.38163e-28
-1.26217e-30
-2.55252e-26
-8.17539e-29
-3.88355e-25
-4.44308e-27
-1.32445e-24
-2.86263e-26
-2.0941e-24
-5.30917e-26
-1.96113e-24
2.01711e-26
2.72808e-24
2.82903e-25
1.15224e-23
1.17816e-24
2.1054e-23
2.57653e-24
1.83931e-23
2.8121e-24
7.42386e-24
1.68752e-24
-5.96811e-24
4.8287e-25
-2.1921e-23
-1.42187e-25
-1.24078e-21
-1.54392e-24
-2.80668e-20
2.81071e-22
-2.30932e-19
8.14295e-21
-1.21475e-18
8.02226e-20
5.98124e-19
-8.85647e-18
9.51571e-37
-3.45827e-29
1.93986e-34
3.13095e-35
4.91715e-33
5.90123e-34
4.59243e-32
9.45307e-33
-2.30282e-32
1.29212e-31
-2.53366e-30
1.24846e-30
-3.00905e-28
8.5903e-30
-8.26874e-27
5.18112e-29
-2.83195e-26
4.00803e-28
2.69306e-26
3.29142e-27
4.44645e-25
2.20125e-26
2.20648e-24
1.04355e-25
5.85853e-24
3.14851e-25
8.00963e-24
5.30362e-25
6.34962e-24
4.83076e-25
2.65345e-24
2.41981e-25
-1.07277e-24
5.21929e-26
-3.803e-24
-3.38069e-27
-2.5204e-22
1.70922e-24
-7.11601e-21
1.22569e-22
-6.46338e-20
2.83955e-21
-2.64977e-19
2.29022e-20
1.14186e-19
-1.02322e-18
4.17884e-37
-1.02083e-30
9.60863e-35
9.68052e-36
3.2201e-33
1.81729e-34
6.07465e-32
2.98303e-33
7.58741e-31
4.37106e-32
6.52126e-30
4.83819e-31
4.79358e-29
4.11302e-30
4.4508e-28
2.83498e-29
4.35833e-27
1.75135e-28
3.48047e-26
1.0071e-27
1.98803e-25
4.90813e-27
7.35995e-25
1.77667e-26
1.57114e-24
4.23395e-26
1.91069e-24
5.8992e-26
1.40844e-24
4.32384e-26
5.64797e-25
1.48058e-26
-1.9389e-25
1.56918e-28
-6.41104e-25
3.83909e-27
-4.64139e-23
6.56457e-25
-1.62363e-21
3.62498e-23
-1.70635e-20
8.28435e-22
-5.38693e-20
5.94465e-21
1.95993e-20
1.11226e-19
1.14769e-37
-2.26074e-32
3.03738e-35
2.11497e-36
1.0759e-33
3.89562e-35
2.21505e-32
6.31289e-34
3.21829e-31
9.32612e-33
3.46878e-30
1.05696e-31
2.95948e-29
9.34665e-31
2.23473e-28
6.56691e-30
1.56594e-27
3.75158e-29
9.35742e-27
1.77302e-28
4.22452e-26
6.74191e-28
1.29698e-25
1.88833e-27
2.46771e-25
3.48366e-27
2.75438e-25
3.65388e-27
1.88218e-25
1.51698e-27
6.46761e-26
-2.91757e-27
-4.04866e-26
-5.38613e-27
-1.05482e-25
1.99354e-27
-7.9905e-24
1.73846e-25
-3.78673e-22
1.14588e-23
-5.10181e-21
2.56641e-22
-1.04943e-20
1.35119e-21
3.47561e-21
9.7182e-20
1.49498e-38
-4.05746e-34
6.37784e-36
2.9464e-37
2.35869e-34
5.22737e-36
5.01851e-33
8.05026e-35
7.61968e-32
1.14596e-33
8.71528e-31
1.25267e-32
7.74793e-30
1.07422e-31
5.54955e-29
7.24204e-31
3.29641e-28
3.79984e-30
1.60132e-27
1.5294e-29
5.92268e-27
4.61976e-29
1.53973e-26
9.92538e-29
2.60159e-26
1.30968e-28
2.5469e-26
5.90111e-29
1.52858e-26
-1.01247e-27
2.93851e-27
-1.66534e-27
-8.09591e-27
-5.15179e-28
-1.52952e-26
5.83799e-28
-2.04398e-24
4.26592e-26
-1.47656e-22
4.22169e-24
-1.2557e-21
8.46332e-23
-1.88235e-21
2.82176e-22
1.18813e-21
-1.11985e-21
-9.86972e-39
-6.16731e-36
7.94181e-37
2.02936e-38
3.04697e-35
3.39264e-37
6.45044e-34
4.67095e-36
9.69887e-33
5.85178e-35
1.10466e-31
5.42087e-34
9.71063e-31
3.89326e-33
6.62716e-30
2.22527e-32
3.51978e-29
1.01714e-31
1.45444e-28
3.64893e-31
4.61571e-28
9.66997e-31
1.07122e-27
1.5491e-30
1.61265e-27
2.40145e-31
1.2718e-27
-1.12183e-28
6.02617e-28
-1.81292e-28
-2.4032e-30
-1.28429e-28
-5.18829e-28
1.24725e-30
-2.20189e-27
1.07942e-28
-3.79745e-25
7.54486e-27
-2.83426e-23
7.74427e-25
-2.20152e-22
1.58641e-23
-3.55302e-22
6.58723e-23
6.07836e-22
1.73911e-23
-1.00529e-39
-8.20999e-38
4.42808e-38
1.13234e-40
1.75036e-36
1.95871e-39
3.39806e-35
2.80686e-38
4.47445e-34
3.87792e-37
4.4209e-33
3.96218e-36
3.43497e-32
3.15303e-35
2.1602e-31
1.97786e-34
1.11189e-30
9.60332e-34
4.64078e-30
3.34939e-33
1.50822e-29
6.28507e-33
3.47086e-29
-3.3754e-31
4.75856e-29
-3.74638e-30
3.15784e-29
-8.91872e-30
1.09355e-29
-8.29685e-30
-5.02702e-30
-3.6709e-30
-7.55728e-30
1.96154e-30
-2.33028e-28
1.29719e-29
-4.42876e-26
8.54825e-28
-3.98296e-24
1.05973e-25
-3.56755e-23
2.83172e-24
-6.55498e-23
1.45836e-23
3.28696e-22
1.72069e-22
-2.57485e-41
-9.98293e-40
1.95544e-40
2.53885e-43
1.01995e-38
5.0618e-42
2.29547e-37
8.24552e-41
3.47565e-36
1.36292e-39
3.98179e-35
1.61691e-38
3.61027e-34
1.46356e-37
2.65011e-33
9.97887e-37
1.57458e-32
4.71931e-36
7.34403e-32
1.05146e-35
2.47886e-31
-3.50437e-33
5.0875e-31
-3.68929e-32
4.04889e-31
-1.22962e-31
1.99054e-31
-1.33101e-31
-3.30104e-32
-8.18745e-32
-4.67319e-32
1.60821e-32
-5.51195e-31
2.80414e-32
-1.63357e-29
9.91958e-31
-3.37656e-27
6.91693e-29
-4.327e-25
1.09174e-26
-5.26688e-24
4.34043e-25
-1.06992e-23
2.86601e-24
1.00167e-22
2.2039e-22
-4.93292e-43
-1.16864e-41
3.07437e-43
5.0288e-46
2.87517e-41
1.02087e-44
8.21096e-40
1.84253e-43
1.52346e-38
3.60187e-42
2.11302e-37
4.81338e-41
2.28818e-36
4.72825e-40
1.96547e-35
3.14433e-39
1.31576e-34
9.64353e-39
6.4832e-34
-7.8455e-36
2.09505e-33
-1.19515e-34
3.45526e-33
-6.20396e-34
2.41929e-33
-1.39167e-33
1.11409e-33
-1.22449e-33
-4.57501e-34
-6.7191e-34
-9.43188e-34
1.62216e-35
-2.70872e-32
1.40087e-33
-8.45976e-31
6.70659e-32
-1.56065e-28
4.41348e-30
-3.42387e-26
8.28807e-28
-6.83435e-25
5.23393e-26
-1.29158e-24
4.28637e-25
1.05818e-23
9.65127e-23
-8.4369e-45
-1.35537e-43
1.43656e-46
1.21461e-48
6.31661e-44
8.93125e-48
2.27021e-42
1.9027e-46
5.10175e-41
4.60507e-45
8.37832e-40
6.88179e-44
1.04498e-38
6.85662e-43
9.90295e-38
3.25961e-42
6.82429e-37
-5.28874e-39
3.09661e-36
-1.35015e-37
7.52649e-36
-1.03842e-36
8.35669e-36
-3.51098e-36
6.96335e-36
-4.96027e-36
3.63815e-36
-4.99713e-36
-1.25708e-35
-3.098e-36
-2.92897e-35
9.63177e-37
-1.1386e-33
7.83419e-35
-3.73083e-32
4.32425e-33
-6.07456e-30
2.99763e-31
-2.12153e-27
5.57817e-29
-5.48509e-26
4.67998e-27
-4.50984e-26
4.04443e-26
4.47095e-26
1.10856e-23
-1.27558e-46
-1.5057e-45
-1.14936e-50
9.82502e-51
7.03566e-47
2.84186e-51
3.30084e-45
6.69678e-50
9.16564e-44
1.83145e-48
1.75274e-42
2.54702e-47
2.36201e-41
1.72334e-46
2.16552e-40
-8.22239e-43
1.22905e-39
-4.3311e-41
3.70275e-39
-4.24253e-40
9.57967e-39
-1.81338e-39
1.3781e-38
-6.02601e-39
1.47851e-38
-1.07873e-38
6.02809e-39
-1.3927e-38
-4.60834e-37
-6.70924e-39
-9.61628e-37
5.54932e-38
-4.56438e-35
4.04152e-36
-1.6472e-33
2.72979e-34
-1.85385e-31
1.86498e-32
-7.54207e-29
2.47669e-30
-3.14001e-27
2.59757e-28
-2.71853e-28
2.65889e-27
4.71749e-29
3.31633e-29
-1.65773e-48
-1.48064e-47
-2.07928e-52
7.77426e-53
3.13384e-50
1.06392e-56
1.74831e-48
1.00494e-55
5.27859e-47
8.23709e-55
9.49341e-46
1.97531e-54
9.99239e-45
-3.70411e-47
7.1917e-44
-2.0592e-45
5.01642e-43
-2.47476e-44
2.81393e-42
-2.39613e-43
9.83706e-42
-1.7299e-42
1.96652e-41
-7.4213e-42
2.74215e-41
-1.80236e-41
-3.48761e-41
-2.99705e-41
-3.28852e-40
3.62379e-41
-3.60683e-38
2.36649e-39
-1.85179e-36
1.87936e-37
-7.04846e-35
1.28186e-35
-3.78263e-33
8.22639e-34
-8.57904e-31
6.31073e-32
7.64775e-30
8.02305e-30
1.98452e-28
1.18173e-28
2.29316e-30
8.7933e-30
-1.74219e-50
-1.19042e-49
-2.56587e-54
4.31105e-55
7.61152e-56
8.8972e-60
1.38701e-54
4.08033e-60
1.09655e-53
4.29887e-58
1.4411e-50
-1.39049e-54
1.1473e-48
-3.77841e-51
2.27791e-47
-4.28655e-49
3.18487e-46
-1.09045e-47
4.06584e-45
-1.86389e-46
2.67639e-44
-2.84786e-45
3.20172e-44
-2.21905e-44
4.14231e-44
-3.12148e-44
-1.30838e-42
-4.74848e-44
-9.1598e-42
8.4197e-44
-1.31286e-39
5.83563e-41
-7.35719e-38
6.21721e-39
-2.89615e-36
4.23358e-37
-8.596e-35
2.50344e-35
-2.02522e-34
1.60994e-33
1.01022e-30
2.0614e-31
1.71754e-29
4.33823e-30
7.35667e-31
8.9605e-31
-1.38554e-52
-7.33684e-52
-2.02564e-56
1.41543e-57
9.28891e-60
2.34819e-63
4.21909e-57
-4.20593e-60
9.21794e-55
-1.67961e-57
1.18683e-52
-4.03762e-55
9.74557e-51
-5.76332e-53
5.12175e-49
-5.3094e-51
1.70093e-47
-3.12681e-49
3.26189e-46
-1.1764e-47
2.749e-45
-2.57157e-46
9.14086e-46