/*--------------------------------*- C++ -*----------------------------------*\
| =========                 |                                                 |
| \\      /  F ield         | OpenFOAM: The Open Source CFD Toolbox           |
|  \\    /   O peration     | Version:  2206                                  |
|   \\  /    A nd           | Website:  www.openfoam.com                      |
|    \\/     M anipulation  |                                                 |
\*---------------------------------------------------------------------------*/
FoamFile
{
    version     2.0;
    format      ascii;
    arch        "LSB;label=32;scalar=64";
    class       volScalarField;
    location    "0.525";
    object      p;
}
// * * * * * * * * * * * * * * * * * * * * * * * * * * * * * * * * * * * * * //

dimensions      [1 -1 -2 0 0 0 0];

internalField   nonuniform List<scalar> 
2268
(
609.515
606.024
607.86
613.933
624.645
635.656
645.225
653.541
662.804
674.669
689.65
707.512
727.862
750.386
774.719
800.261
825.799
848.955
866.689
878.478
867.412
871.231
915.143
550.436
546.163
547.64
553.474
564.274
575.514
585.299
593.722
603.08
615.047
630.021
647.782
668.052
690.487
714.688
740.146
765.949
790.173
809.263
825.488
810.909
799.695
850.044
490.727
485.687
486.423
491.443
502.528
514.145
524.35
532.979
542.524
554.707
569.885
587.821
608.186
630.625
654.666
679.712
704.774
728.775
748.834
765.328
755.33
735.862
788.429
431.07
424.919
424.319
428.244
439.132
451.585
462.475
471.425
481.238
493.725
509.176
527.304
547.794
570.31
594.382
619.357
644.201
667.842
687.917
703.68
701.776
687.283
737.648
372.149
364.303
361.68
363.903
374.286
387.94
399.806
409.162
419.312
432.192
447.97
466.313
486.977
509.656
533.898
559.051
584.129
607.907
628.419
644.93
652.152
652.89
694.866
314.543
304.778
299.027
299.008
308.91
323.824
336.634
346.314
356.775
370.119
386.322
404.879
425.743
448.671
473.215
498.741
524.328
548.667
570.176
588.34
602.069
612.039
651.381
258.687
246.859
237.24
234.594
244.295
259.975
273.083
282.901
293.687
307.476
324.129
343.34
364.278
387.438
412.356
438.395
464.705
489.854
512.555
532.405
549.806
565.184
599.394
204.547
192.228
176.893
169.305
178.755
195.164
208.144
218.197
229.888
244.463
261.238
280.573
301.793
325.599
351.185
378.079
405.473
431.601
455.451
476.78
495.84
514.134
539.638
495.567
494.492
492.184
490.946
491.447
390.44
272.907
183.477
167.198
173.554
177.836
180.602
195.167
218.858
239.381
331.427
708.83
1258.62
1163.38
495.764
494.534
491.931
489.768
414.949
226.69
172.645
162.061
158.088
156.781
157.071
159.021
163.855
171.016
180.213
201.215
406.769
1027.53
1087.32
496.283
494.974
491.06
478.334
281.54
184.392
166.281
160.954
157.821
156.706
157.348
158.893
161.257
165.248
170.2
175.208
239.08
584.66
976.45
497.295
496.775
492.357
431.614
212.627
173.405
165.087
160.365
156.708
155.755
156.975
158.886
161.175
164.761
169.707
173.463
193.513
295.279
858.383
498.173
499.263
501.151
410.928
200.233
171.139
164.702
159.746
155.474
154.59
156.346
158.581
160.738
163.944
169.403
173.462
177.251
204.276
719.982
498.632
499.35
504.251
416.583
209.281
168.842
164.175
158.956
154.138
153.424
155.726
158.191
160.276
162.973
168.453
172.984
170.786
180.702
545.425
498.435
497.425
506.744
393.377
205.544
168.108
163.254
158.267
153.144
152.688
155.396
157.759
159.766
161.901
166.383
170.517
169.168
174.041
359.16
481.682
444.252
351.041
307.788
169.026
160.134
161.824
157.696
153.118
152.773
155.249
157.41
159.101
160.307
163.232
165.621
167.243
164.72
238.693
121.515
109.936
87.7712
73.8323
81.265
96.5495
106.96
115.787
128.463
145.226
164.213
184.073
205.271
229.315
255.373
283.35
312.602
340.608
366.497
390.356
410.386
425.308
421.9
39.349
23.6998
10.4825
6.82387
10.2229
15.8416
19.1227
21.7273
26.1518
33.0858
43.5011
55.111
71.4032
93.8322
121.809
154.306
188.747
219.281
247.627
274.998
298.974
319.508
340.796
-0.247025
-0.339497
-0.279046
-0.241836
-0.216875
-0.193733
-0.192336
-0.183301
-0.165363
-0.0906818
0.354389
2.7086
6.7388
13.2082
24.3762
43.7378
69.6709
98.7114
131.768
163.864
189.485
213.285
241.16
-0.356951
-0.407637
-0.405562
-0.400784
-0.400421
-0.39506
-0.386093
-0.378683
-0.356612
-0.343613
-0.357715
-0.414341
-0.470624
-0.532201
-0.254857
1.57531
6.29612
18.8644
38.4759
64.3199
83.6366
107.137
135.421
-0.477864
-0.493018
-0.506132
-0.521324
-0.519048
-0.511041
-0.518547
-0.525275
-0.535155
-0.555395
-0.609445
-0.639968
-0.654336
-0.634003
-0.529147
-0.454896
-0.446691
-0.134303
1.89338
5.41644
14.3728
29.9185
54.1021
-0.645582
-0.654787
-0.655786
-0.66245
-0.661079
-0.65941
-0.662089
-0.66152
-0.662909
-0.667693
-0.680158
-0.711715
-0.751354
-0.775603
-0.742627
-0.701136
-0.660899
-0.63276
-0.539564
-0.564683
-0.498867
0.416905
3.76391
-0.792408
-0.79466
-0.795374
-0.802571
-0.805705
-0.808858
-0.815829
-0.821795
-0.828043
-0.83825
-0.852456
-0.863394
-0.871958
-0.875248
-0.861777
-0.834169
-0.817392
-0.819779
-0.806943
-0.798806
-0.826627
-0.75059
-0.918537
-0.93865
-0.939981
-0.941303
-0.945282
-0.947806
-0.94985
-0.951333
-0.957832
-0.965516
-0.973586
-0.982088
-0.990395
-1.00058
-1.01041
-1.00638
-0.993458
-0.975543
-0.968931
-0.949536
-0.935002
-1.02074
-1.10674
-1.26259
-1.08471
-1.08494
-1.08576
-1.08859
-1.09099
-1.09352
-1.09672
-1.10205
-1.10859
-1.11551
-1.12193
-1.12751
-1.13241
-1.1375
-1.1376
-1.13416
-1.13081
-1.13394
-1.14075
-1.17087
-1.25187
-1.34646
-1.43667
-1.22925
-1.22906
-1.22975
-1.23187
-1.2341
-1.23674
-1.24005
-1.24454
-1.24995
-1.25571
-1.26123
-1.26622
-1.27078
-1.27505
-1.27746
-1.27875
-1.28229
-1.29054
-1.31115
-1.35991
-1.45584
-1.59565
-1.64413
-1.37262
-1.37246
-1.37314
-1.37485
-1.37689
-1.37941
-1.38247
-1.38627
-1.39068
-1.3954
-1.40009
-1.40451
-1.40864
-1.41271
-1.41665
-1.4211
-1.42823
-1.44063
-1.46617
-1.51686
-1.60144
-1.73458
-1.77701
-1.51521
-1.51523
-1.51593
-1.5174
-1.51926
-1.52157
-1.52434
-1.5276
-1.53128
-1.53521
-1.53923
-1.54321
-1.54716
-1.55137
-1.55612
-1.56223
-1.56957
-1.5822
-1.60467
-1.64553
-1.70909
-1.79549
-1.81167
-1.65727
-1.65746
-1.65818
-1.6595
-1.66119
-1.6633
-1.66579
-1.66866
-1.67184
-1.67524
-1.67879
-1.68245
-1.68615
-1.69032
-1.69515
-1.70108
-1.70863
-1.71956
-1.73747
-1.76717
-1.81374
-1.86304
-1.8688
-1.79895
-1.79922
-1.79996
-1.80117
-1.80272
-1.80465
-1.80691
-1.80948
-1.81231
-1.81536
-1.81861
-1.82211
-1.82529
-1.82937
-1.83394
-1.83938
-1.84609
-1.85503
-1.86801
-1.88767
-1.91603
-1.9452
-1.94851
-1.94029
-1.9406
-1.94133
-1.94245
-1.94388
-1.94565
-1.94772
-1.95007
-1.95265
-1.95543
-1.9584
-1.96156
-1.96482
-1.96852
-1.97268
-1.9775
-1.98324
-1.99036
-1.9995
-2.01149
-2.0264
-2.03876
-2.03886
-2.08131
-2.08163
-2.08233
-2.08337
-2.08471
-2.08635
-2.08827
-2.09043
-2.09282
-2.09541
-2.09817
-2.10111
-2.10424
-2.10767
-2.11145
-2.11568
-2.1205
-2.12608
-2.13262
-2.14016
-2.14776
-2.15211
-2.1495
-2.22202
-2.22233
-2.223
-2.22398
-2.22523
-2.22677
-2.22856
-2.23059
-2.23283
-2.23526
-2.23787
-2.24066
-2.24363
-2.24683
-2.25028
-2.25402
-2.25808
-2.26249
-2.2672
-2.272
-2.27602
-2.27757
-2.27489
-2.36243
-2.36274
-2.36337
-2.36429
-2.36548
-2.36693
-2.36862
-2.37055
-2.37268
-2.375
-2.3775
-2.38017
-2.38301
-2.38603
-2.38924
-2.39261
-2.39615
-2.39978
-2.40338
-2.40664
-2.40888
-2.40913
-2.40645
-2.50255
-2.50286
-2.50346
-2.50433
-2.50546
-2.50685
-2.50847
-2.51031
-2.51236
-2.51461
-2.51703
-2.51962
-2.52238
-2.5253
-2.52835
-2.53151
-2.53474
-2.53795
-2.54099
-2.54358
-2.54528
-2.54557
-2.54419
-2.64239
-2.64271
-2.64327
-2.64411
-2.6452
-2.64654
-2.6481
-2.64989
-2.65189
-2.65408
-2.65646
-2.65902
-2.66174
-2.66461
-2.66761
-2.67069
-2.6738
-2.67686
-2.67974
-2.6822
-2.68393
-2.6845
-2.6841
-2.78198
-2.78229
-2.78283
-2.78364
-2.7847
-2.786
-2.78753
-2.78928
-2.79125
-2.79342
-2.79578
-2.79834
-2.80107
-2.80395
-2.80698
-2.8101
-2.81326
-2.8164
-2.8194
-2.82213
-2.82442
-2.8262
-2.82659
-2.92132
-2.92161
-2.92213
-2.92293
-2.92396
-2.92523
-2.92674
-2.92847
-2.93042
-2.93259
-2.93497
-2.93755
-2.94033
-2.94329
-2.9464
-2.94965
-2.953
-2.95637
-2.9597
-2.96286
-2.96593
-2.96852
-2.97044
-3.06042
-3.06069
-3.0612
-3.06197
-3.06298
-3.06424
-3.06573
-3.06746
-3.06941
-3.07159
-3.074
-3.07663
-3.07949
-3.08256
-3.08583
-3.08928
-3.09289
-3.09663
-3.10041
-3.104
-3.10814
-3.11183
-3.11523
-3.19926
-3.19952
-3.20001
-3.20078
-3.20177
-3.20302
-3.2045
-3.20623
-3.20819
-3.2104
-3.21285
-3.21555
-3.2185
-3.22171
-3.22516
-3.22886
-3.23281
-3.23703
-3.2415
-3.24651
-3.25092
-3.25564
-3.26049
-3.33786
-3.3381
-3.33859
-3.33934
-3.34033
-3.34156
-3.34304
-3.34477
-3.34675
-3.34898
-3.35148
-3.35426
-3.35732
-3.36068
-3.36434
-3.3683
-3.37259
-3.37731
-3.38251
-3.3879
-3.3935
-3.39948
-3.40581
-3.47623
-3.47645
-3.47692
-3.47766
-3.47864
-3.47986
-3.48134
-3.48307
-3.48506
-3.48732
-3.48987
-3.49272
-3.4959
-3.49941
-3.50328
-3.50751
-3.51201
-3.51743
-3.52307
-3.52919
-3.53581
-3.54302
-3.55085
-3.61435
-3.61455
-3.61501
-3.61574
-3.61671
-3.61792
-3.61939
-3.62112
-3.62312
-3.6254
-3.62799
-3.63091
-3.63418
-3.63784
-3.64194
-3.64652
-3.65178
-3.65714
-3.66324
-3.67004
-3.6776
-3.68599
-3.69528
-3.75222
-3.75242
-3.75286
-3.75358
-3.75453
-3.75573
-3.75719
-3.75891
-3.76091
-3.7632
-3.76581
-3.76877
-3.77211
-3.7759
-3.78017
-3.78495
-3.79029
-3.79615
-3.80276
-3.81021
-3.8186
-3.82808
-3.83877
-3.88984
-3.89006
-3.89046
-3.89117
-3.8921
-3.89328
-3.89472
-3.89642
-3.89841
-3.9007
-3.90333
-3.9063
-3.90964
-3.91356
-3.91791
-3.9228
-3.9283
-3.93448
-3.94149
-3.94947
-3.95857
-3.969
-3.98095
-4.02723
-4.02745
-4.02782
-4.02852
-4.02942
-4.03058
-4.03199
-4.03367
-4.03563
-4.0379
-4.04051
-4.04351
-4.04698
-4.05077
-4.05512
-4.06006
-4.06567
-4.07203
-4.0793
-4.08764
-4.09726
-4.10841
-4.12138
-4.16437
-4.1646
-4.16492
-4.16563
-4.1665
-4.16762
-4.16899
-4.17062
-4.17254
-4.17478
-4.17735
-4.18031
-4.18367
-4.18745
-4.19178
-4.1967
-4.20232
-4.20873
-4.2161
-4.2246
-4.23448
-4.24603
-4.25963
-4.30127
-4.30152
-4.30179
-4.30251
-4.30332
-4.30442
-4.30573
-4.3073
-4.30915
-4.31132
-4.31382
-4.31667
-4.31993
-4.32363
-4.32786
-4.33268
-4.3382
-4.34453
-4.35181
-4.36024
-4.37007
-4.38163
-4.39531
-4.43793
-4.4382
-4.43843
-4.43916
-4.43993
-4.44098
-4.44222
-4.44369
-4.44545
-4.44754
-4.44992
-4.45264
-4.45575
-4.45931
-4.46336
-4.468
-4.47332
-4.47941
-4.48643
-4.49455
-4.50401
-4.51511
-4.52825
-4.57437
-4.57463
-4.57489
-4.57562
-4.57634
-4.57736
-4.57854
-4.57991
-4.58158
-4.58346
-4.58567
-4.58822
-4.59114
-4.59449
-4.59831
-4.60268
-4.60767
-4.61341
-4.61999
-4.62757
-4.63634
-4.64657
-4.65864
-4.71062
-4.71084
-4.71111
-4.71185
-4.71253
-4.7135
-4.71463
-4.71586
-4.71732
-4.71905
-4.72108
-4.72342
-4.72611
-4.72919
-4.73271
-4.73673
-4.74132
-4.74657
-4.75257
-4.75943
-4.76717
-4.77616
-4.78651
-4.84669
-4.84685
-4.84703
-4.84777
-4.84846
-4.84921
-4.85007
-4.85133
-4.85272
-4.85431
-4.85615
-4.85826
-4.86068
-4.86345
-4.8666
-4.8702
-4.8743
-4.87897
-4.88429
-4.89038
-4.89676
-4.9045
-4.91308
-4.98263
-4.98271
-4.98259
-4.98333
-4.98376
-4.98465
-4.98558
-4.98667
-4.98791
-4.98932
-4.99093
-4.99277
-4.99488
-4.99729
-5.00003
-5.00315
-5.00669
-5.0107
-5.01522
-5.02027
-5.02578
-5.03202
-5.03883
-5.11857
-5.11875
-5.11921
-5.11942
-5.11965
-5.12032
-5.12105
-5.12193
-5.12295
-5.12413
-5.12548
-5.12703
-5.1288
-5.13081
-5.1331
-5.1357
-5.13863
-5.14193
-5.14562
-5.1497
-5.15417
-5.15906
-5.16426
-5.2544
-5.25459
-5.25477
-5.25508
-5.25527
-5.25578
-5.25634
-5.25702
-5.25783
-5.25876
-5.25984
-5.26106
-5.26246
-5.26405
-5.26586
-5.2679
-5.2702
-5.27277
-5.27563
-5.27877
-5.28217
-5.28586
-5.28965
-5.39007
-5.39021
-5.39027
-5.39056
-5.3907
-5.39109
-5.39148
-5.39198
-5.39256
-5.39324
-5.39401
-5.3949
-5.39592
-5.39707
-5.39837
-5.39984
-5.40149
-5.40333
-5.40536
-5.40758
-5.40997
-5.41253
-5.41509
-5.52564
-5.5257
-5.52576
-5.52594
-5.52602
-5.52628
-5.52651
-5.52682
-5.52718
-5.52759
-5.52806
-5.5286
-5.52922
-5.52992
-5.53071
-5.53159
-5.53259
-5.53369
-5.5349
-5.53623
-5.53764
-5.53913
-5.54061
-5.66118
-5.66121
-5.66123
-5.66129
-5.66134
-5.66143
-5.66151
-5.66162
-5.66175
-5.66189
-5.66205
-5.66224
-5.66244
-5.66268
-5.66294
-5.66324
-5.66357
-5.66394
-5.66434
-5.66478
-5.66524
-5.66571
-5.66619
378.281
469.868
494.665
462.407
356.058
378.233
386.046
342.793
259.97
282.133
292.981
235.771
163.408
190.868
207.876
154.224
81.6276
111.032
133.433
116.139
14.2988
44.2763
69.493
108.556
-1.1286
1.12037
20.758
51.9617
-1.42814
-1.51709
-0.738881
30.2814
-1.48795
-1.47833
-1.30844
-1.55593
-1.54048
-1.40802
-1.27597
-1.0565
-1.62239
-1.45673
-1.35725
-1.40174
-1.70708
-1.57193
-1.51171
-1.45247
-1.80585
-1.71468
-1.65499
-1.60678
-1.9155
-1.85574
-1.79789
-1.74741
-2.02056
-1.98119
-1.9386
-1.89572
-2.13669
-2.10968
-2.07777
-2.04288
-2.26533
-2.24534
-2.2205
-2.19219
-2.39971
-2.38528
-2.3665
-2.34455
-2.53899
-2.52869
-2.51517
-2.49937
-2.6813
-2.67485
-2.66608
-2.65598
-2.82589
-2.82298
-2.81859
-2.81365
-2.97196
-2.97244
-2.9721
-2.97169
-3.11895
-3.1227
-3.12611
-3.12966
-3.2664
-3.27332
-3.28029
-3.28735
-3.4139
-3.42399
-3.43446
-3.44491
-3.56112
-3.57444
-3.58858
-3.60284
-3.70775
-3.72446
-3.74258
-3.75995
-3.85343
-3.87381
-3.89708
-3.92139
-3.99769
-4.0219
-4.05155
-4.0879
-4.13991
-4.16772
-4.20411
-4.25557
-4.27937
-4.30988
-4.35135
-4.41541
-4.41529
-4.44657
-4.48957
-4.55683
-4.54721
-4.57679
-4.61626
-4.67913
-4.67506
-4.70096
-4.73489
-4.78315
-4.80078
-4.82151
-4.84675
-4.87725
-4.92464
-4.94021
-4.95698
-4.9732
-5.04771
-5.05875
-5.06926
-5.07725
-5.17081
-5.17835
-5.18458
-5.18738
-5.29428
-5.29923
-5.30265
-5.30288
-5.41815
-5.42122
-5.42293
-5.42233
-5.54234
-5.544
-5.54478
-5.544
-5.66673
-5.66724
-5.66745
-5.66709
340.004
207.172
110.209
85.8959
71.3451
141.825
158.454
156.555
153.899
154.134
155.785
157.157
157.956
157.919
158.701
159.795
163.242
163.95
171.074
190.007
112.262
99.2308
79.0726
73.2855
140.889
160.24
157.232
156.662
160.656
159.817
156.756
158.711
158.532
158.568
159.276
160.84
163.166
159.933
115.583
107.876
105.628
92.0152
96.0355
140.802
164.561
156.067
147.436
162.509
167.625
161.384
159.095
158.73
158.929
159.871
160.279
157.969
171.568
111.096
110.695
110.262
107.783
107.275
133.239
127.824
122.152
123.7
127.36
143.032
158.897
157.586
157.458
160.023
160.846
160.683
160.506
194.386
111.982
112.392
112.753
112.49
109.858
110.41
114.341
117.176
118.033
117.706
122.673
153.748
155.967
152.764
157.739
160.26
160.172
159.51
221.842
112.793
113.206
114.388
115.946
114.433
108.591
111.906
115.488
117.442
117.184
118.177
131.256
147.468
124.959
121.703
145.509
164.4
199.964
297.799
94.7652
113.484
116.267
117.273
116.985
112.849
112.324
114.201
116.592
117.778
118.625
120.079
120.2
115.003
127.974
158.714
205.689
339.434
479.453
66.9376
122.029
118.893
118.268
119.072
119.699
110.684
98.0192
104.017
113.976
115.423
115.76
136.798
144.963
166.161
235.552
365.368
539.465
686.858
15.3441
54.1807
88.1084
92.7855
93.5874
90.4124
85.3141
71.7826
67.6231
76.4126
76.3152
110.609
150.022
163.625
164.436
200.741
333.502
546.783
701.422
-0.99712
8.85335
21.0896
41.2997
49.3901
39.5167
35.2001
35.7493
35.4867
47.6545
56.7564
114.201
157.979
137.914
127.317
134.882
174.765
359.404
522.758
-1.06612
-1.23781
-0.962064
3.56111
7.60893
10.5816
9.51376
4.43172
-5.90429
21.6852
74.7644
111.9
125.8
119.348
116.516
121.416
130.68
195.414
338.514
-1.37019
-1.49449
-1.50917
-1.42669
-1.26206
-1.05519
-0.673599
-0.779446
-3.15614
-2.51085
7.91254
39.7489
95.7195
109.79
117.792
121.335
123.71
154.436
232.445
-1.55808
-1.5608
-1.57274
-1.52434
-1.45427
-1.38793
-1.31342
-1.2952
-1.50569
-2.93659
-6.09737
-8.06017
52.0453
83.9202
88.6737
97.6935
112.366
139.086
184.078
-1.71262
-1.69246
-1.66197
-1.61876
-1.56795
-1.52368
-1.54253
-1.67833
-1.77454
-2.11012
-3.64922
-3.82709
37.4964
74.4255
94.8749
109.981
126.078
141.118
169.038
-1.8609
-1.83492
-1.8048
-1.7663
-1.72199
-1.67887
-1.67436
-1.78549
-1.9296
-1.88389
-2.02574
-3.11523
2.48692
23.0666
39.0286
65.7204
105.55
134.354
154.318
-2.01169
-1.9863
-1.95909
-1.92897
-1.89748
-1.86903
-1.85927
-1.91778
-2.05796
-2.04048
-1.67749
-2.04296
-4.59017
-4.62797
3.93707
29.8075
64.7186
103.541
132.612
-2.16651
-2.14547
-2.12358
-2.10127
-2.08068
-2.06684
-2.07052
-2.11868
-2.24151
-2.32292
-2.19265
-2.33881
-2.99316
-0.608604
22.729
41.4699
73.71
134.709
153.348
-2.32496
-2.3095
-2.29445
-2.28051
-2.26994
-2.26865
-2.28833
-2.35138
-2.49551
-2.7005
-2.85466
-3.04278
-1.06478
0.830144
21.6521
51.0202
83.1118
114.762
127.206
-2.48598
-2.47625
-2.46818
-2.46274
-2.46217
-2.47298
-2.50921
-2.59462
-2.76549
-3.0715
-3.4004
-3.7456
-4.25143
1.71946
10.993
34.0246
64.1982
92.117
105.955
-2.64841
-2.64403
-2.64239
-2.64477
-2.65326
-2.67471
-2.72392
-2.82682
-3.01565
-3.33152
-3.74205
-4.07262
-4.16069
-4.44294
-4.40298
2.37626
27.6973
59.6728
75.875
-2.81115
-2.81137
-2.8152
-2.82426
-2.84016
-2.86948
-2.9274
-3.0367
-3.22163
-3.51011
-3.90539
-4.29962
-4.43159
-4.56174
-4.55527
-3.67081
-0.744586
11.9674
40.1461
-2.97336
-2.97719
-2.98533
-2.99979
-3.02231
-3.05847
-3.12149
-3.23055
-3.40615
-3.66896
-4.04246
-4.50346
-4.85699
-5.07955
-5.20778
-5.08222
-4.47647
-2.30356
14.1258
-3.13453
-3.14077
-3.15206
-3.17132
-3.20021
-3.24357
-3.31204
-3.4209
-3.5859
-3.82396
-4.15848
-4.61424
-5.11506
-5.5017
-5.69904
-5.62819
-5.13846
-3.67709
3.2038
-3.29461
-3.30177
-3.31457
-3.33824
-3.37442
-3.42744
-3.50438
-3.61464
-3.76633
-3.97012
-4.23315
-4.59452
-5.00961
-5.40874
-5.71529
-5.73458
-5.18543
-4.35853
-3.85255
-3.45384
-3.46118
-3.47623
-3.50079
-3.54439
-3.61122
-3.70051
-3.81286
-3.94824
-4.10782
-4.2828
-4.49363
-4.70368
-4.91079
-5.15168
-5.17297
-4.78019
-4.49949
-3.886
-3.61181
-3.61898
-3.63071
-3.65483
-3.70641
-3.7922
-3.89924
-4.0145
-4.1319
-4.24526
-4.33743
-4.40172
-4.40492
-4.32771
-4.18032
-3.98629
-3.83112
-3.86965
-2.11177
-3.77186
-3.77839
-3.7851
-3.8048
-3.86789
-3.98074
-4.11044
-4.2251
-4.32076
-4.3919
-4.41568
-4.36978
-4.21044
-3.90176
-3.45369
-3.11797
-3.1535
-2.66742
0.640219
-3.93951
-3.94928
-3.95688
-3.9781
-4.06386
-4.21655
-4.36952
-4.4668
-4.52376
-4.55252
-4.52785
-4.42714
-4.22018
-3.87675
-3.54697
-2.74963
-2.58787
-1.43028
1.38856
-4.12197
-4.14747
-4.16935
-4.21335
-4.3236
-4.51359
-4.68199
-4.73842
-4.7401
-4.72778
-4.67072
-4.5553
-4.38702
-4.12206
-4.10946
-3.78338
-1.79163
-1.05982
0.715426
-4.3155
-4.36431
-4.41157
-4.47897
-4.59415
-4.81481
-4.98622
-4.98807
-4.94132
-4.90134
-4.81812
-4.69379
-4.57122
-4.40425
-4.44298
-4.40347
-1.75473
-1.32911
0.129757
-4.49801
-4.56817
-4.63098
-4.70142
-4.79735
-5.03404
-5.19057
-5.16003
-5.09279
-5.04148
-4.93241
-4.788
-4.66082
-4.54222
-4.51225
-4.53434
-2.22797
-1.98734
-0.353102
-4.64656
-4.72321
-4.78513
-4.83816
-4.9308
-5.14781
-5.28079
-5.24166
-5.18147
-5.12105
-4.98996
-4.82002
-4.62889
-4.48262
-4.44967
-4.88379
-2.40368
-3.00004
-1.7875
-4.75686
-4.81877
-4.86697
-4.90846
-4.99295
-5.17255
-5.27936
-5.24922
-5.20281
-5.13258
-4.99059
-4.79195
-4.54065
-4.339
-3.99193
-4.39996
-1.81803
-3.20985
-1.34785
-4.83498
-4.87493
-4.90441
-4.92951
-5.00169
-5.14919
-5.23383
-5.21475
-5.1726
-5.10177
-4.96822
-4.76542
-4.51132
-4.35356
-3.6521
-3.69787
-0.915305
-2.11165
5.46321
-4.90435
-4.92218
-4.93391
-4.94353
-4.99801
-5.11286
-5.18459
-5.1775
-5.14154
-5.08718
-4.99336
-4.83838
-4.63171
-4.49527
-3.99033
-3.06961
-0.984416
-1.41127
3.21716
-4.98402
-4.98726
-4.98642
-4.98217
-5.01418
-5.09312
-5.15671
-5.1638
-5.14797
-5.12645
-5.08597
-5.00222
-4.87528
-4.72172
-4.31502
-4.28378
-2.32456
-1.6123
1.72076
-5.07792
-5.07341
-5.06504
-5.05471
-5.06401
-5.10434
-5.15051
-5.17378
-5.18663
-5.2032
-5.21662
-5.22372
-5.22424
-5.10595
-5.54792
-6.03084
-4.12504
-2.83216
-0.0464817
-5.18362
-5.17646
-5.16603
-5.15376
-5.14874
-5.15775
-5.17711
-5.20169
-5.23925
-5.29519
-5.36152
-5.43593
-5.59085
-5.47951
-5.85617
-4.87483
-5.71843
-5.15665
-1.43132
-5.29798
-5.29092
-5.28133
-5.27013
-5.26054
-5.25514
-5.25459
-5.26638
-5.30692
-5.38276
-5.48782
-5.58347
-5.74107
-5.85945
-5.92503
-6.01903
-6.17506
-8.07137
-6.98425
-5.41784
-5.412
-5.40409
-5.39487
-5.38596
-5.37846
-5.37462
-5.37963
-5.4065
-5.46596
-5.56304
-5.65439
-5.76306
-5.87846
-5.88001
-5.75744
-5.42347
-4.37949
3.03407
-5.54092
-5.53702
-5.53155
-5.5256
-5.51897
-5.51322
-5.51031
-5.51364
-5.5284
-5.55875
-5.61068
-5.67129
-5.70931
-5.7617
-5.81364
-5.58516
-5.8998
-4.81348
-2.58841
-5.66598
-5.66462
-5.6629
-5.66021
-5.65759
-5.65544
-5.65453
-5.6565
-5.66183
-5.6698
-5.67809
-5.68474
-5.66407
-5.72733
-5.88876
-6.02632
-6.79796
-7.04592
-18.4802
)
;

boundaryField
{
    leftWall
    {
        type            calculated;
        value           nonuniform List<scalar> 
50
(
609.515
550.436
490.727
431.07
372.149
314.543
258.687
204.547
121.515
39.349
-0.247025
-0.356951
-0.477864
-0.645582
-0.792408
-0.93865
-1.08471
-1.22925
-1.37262
-1.51521
-1.65727
-1.79895
-1.94029
-2.08131
-2.22202
-2.36243
-2.50255
-2.64239
-2.78198
-2.92132
-3.06042
-3.19926
-3.33786
-3.47623
-3.61435
-3.75222
-3.88984
-4.02723
-4.16437
-4.30127
-4.43793
-4.57437
-4.71062
-4.84669
-4.98263
-5.11857
-5.2544
-5.39007
-5.52564
-5.66118
)
;
    }
    rightWall
    {
        type            calculated;
        value           nonuniform List<scalar> 
50
(
1163.38
1087.32
976.45
858.383
719.982
545.425
359.16
238.693
171.074
159.933
171.568
194.386
221.842
297.799
479.453
686.858
701.422
522.758
338.514
232.445
184.078
169.038
154.318
132.612
153.348
127.206
105.955
75.875
40.1461
14.1258
3.2038
-3.85255
-3.886
-2.11177
0.640219
1.38856
0.715426
0.129757
-0.353102
-1.7875
-1.34785
5.46321
3.21716
1.72076
-0.0464817
-1.43132
-6.98425
3.03407
-2.58841
-18.4802
)
;
    }
    lowerWall
    {
        type            calculated;
        value           nonuniform List<scalar> 
62
(
638.945
635.453
637.289
643.362
654.074
665.085
674.654
682.971
692.233
704.099
719.079
736.941
757.292
779.815
804.149
829.69
855.228
878.384
895.58
904.654
893.97
900.629
944.541
915.143
850.044
788.429
737.648
694.866
651.381
599.394
539.638
440.87
532.374
557.238
524.982
495.567
495.764
496.283
497.295
498.173
498.632
498.435
481.682
495.597
494.522
492.214
490.975
493.182
398.165
280.652
190.32
174.294
186.122
192.704
195.793
210.872
236.047
258.137
351.626
729.901
1279.97
1182.37
)
;
    }
    atmosphere
    {
        type            calculated;
        value           nonuniform List<scalar> 
46
(
-5.72904
-5.72904
-5.72904
-5.72904
-5.72904
-5.72904
-5.72904
-5.72904
-5.72904
-5.72904
-5.72904
-5.72904
-5.72904
-5.72904
-5.72904
-5.72904
-5.72904
-5.72904
-5.72904
-5.72904
-5.72904
-5.72904
-5.72904
-5.72904
-5.72904
-5.72906
-5.7291
-5.72909
-5.72905
-5.72904
-5.72904
-5.72904
-5.72904
-5.72904
-5.72904
-5.72904
-5.72912
-5.72905
-5.78737
-5.73876
-5.80088
-5.89466
-5.93806
-6.15451
-7.18218
-226.072
)
;
    }
    defaultFaces
    {
        type            empty;
    }
}


// ************************************************************************* //
