/*--------------------------------*- C++ -*----------------------------------*\
| =========                 |                                                 |
| \\      /  F ield         | OpenFOAM: The Open Source CFD Toolbox           |
|  \\    /   O peration     | Version:  2206                                  |
|   \\  /    A nd           | Website:  www.openfoam.com                      |
|    \\/     M anipulation  |                                                 |
\*---------------------------------------------------------------------------*/
FoamFile
{
    version     2.0;
    format      ascii;
    arch        "LSB;label=32;scalar=64";
    class       volScalarField;
    location    "0.525";
    object      p_rgh;
}
// * * * * * * * * * * * * * * * * * * * * * * * * * * * * * * * * * * * * * //

dimensions      [1 -1 -2 0 0 0 0];

internalField   nonuniform List<scalar> 
2268
(
638.945
635.453
637.289
643.362
654.074
665.085
674.654
682.971
692.233
704.099
719.079
736.941
757.292
779.815
804.149
829.69
855.228
878.384
895.58
904.654
893.97
900.629
944.541
638.724
634.451
635.928
641.762
652.562
663.802
673.587
682.01
691.368
703.335
718.309
736.071
756.34
778.775
802.976
828.434
854.237
878.461
897.539
908.271
890.354
886.391
938.239
637.873
632.833
633.57
638.59
649.675
661.292
671.496
680.126
689.671
701.854
717.032
734.968
755.333
777.771
801.812
826.859
851.92
875.922
895.98
912.397
887.751
876.895
935.421
637.075
630.924
630.325
634.25
645.137
657.59
668.481
677.43
687.243
699.731
715.182
733.309
753.8
776.316
800.387
825.363
850.207
873.848
893.922
909.685
892.175
884.463
943.374
637.013
629.167
626.545
628.767
639.15
652.804
664.67
674.027
684.176
697.057
712.835
731.177
751.841
774.52
798.762
823.915
848.993
872.771
893.283
909.794
915.85
917.079
959.617
638.266
628.501
622.75
622.731
632.633
647.547
660.357
670.037
680.498
693.842
710.045
728.602
749.466
772.394
796.938
822.464
848.051
872.39
893.899
912.063
925.792
935.761
975.043
641.269
629.44
619.822
617.176
626.877
642.556
655.664
665.483
676.269
690.058
706.711
725.922
746.859
770.02
794.938
820.977
847.287
872.436
895.137
914.987
932.388
947.766
981.903
645.987
633.669
618.328
610.728
620.174
636.59
649.578
659.636
671.328
685.904
702.679
722.014
743.234
767.04
792.625
819.52
846.913
873.041
896.892
918.221
937.281
955.575
980.994
495.597
494.522
492.214
490.975
493.182
398.165
280.652
190.32
174.294
186.122
192.704
195.793
210.872
236.047
258.137
351.626
729.901
1279.97
1182.37
495.852
494.622
492.02
490.343
425.999
239.011
173.761
162.331
158.179
156.872
157.164
159.96
170.61
183.807
198.516
229.425
454.336
1095.36
1155.85
496.43
495.127
491.222
483.308
297.241
184.638
166.437
161.106
157.973
156.858
157.5
159.047
161.415
165.419
170.421
175.613
240.986
645.561
1090.66
497.502
496.991
496.87
442.463
223.458
173.627
165.3
160.578
156.921
155.968
157.188
159.1
161.39
164.982
169.946
173.775
194.211
333.44
1018.28
498.443
499.539
503.579
422.583
206.046
171.414
164.975
160.019
155.747
154.864
156.62
158.859
161.043
164.244
169.742
173.855
177.712
232.747
925.546
498.961
499.682
504.923
417.7
210.238
169.645
164.509
159.29
154.472
153.766
156.063
158.531
160.687
163.617
169.613
173.509
171.297
198.949
796.566
498.821
529.929
576.456
397.781
206.484
168.56
163.652
158.661
153.541
153.112
155.806
158.168
160.195
163.517
168.245
171.475
169.731
183.29
650.251
724.055
764.044
669.54
491.164
177.239
160.978
162.318
158.155
153.577
153.236
155.726
157.905
159.649
162.655
165.474
167.101
167.835
169.356
581.684
654.982
633.562
570.97
516.502
533.156
576.221
611.332
633.592
655.75
677.822
697.68
717.54
738.738
762.782
788.84
816.817
846.069
874.075
899.964
923.823
943.854
958.775
955.325
449.325
275.383
123.42
80.8459
119.892
184.255
221.998
252.197
302.655
378.938
469.248
557.904
646.888
732.528
780.471
812.967
847.409
877.943
906.289
933.659
957.636
978.17
999.457
0.536831
0.444359
0.50481
0.54202
0.566981
0.590123
0.59152
0.600555
0.618493
0.693174
9.99231
47.4368
100.181
186.919
332.264
540.592
805.551
882.568
915.625
947.72
973.342
997.141
1025.02
0.5521
0.501414
0.503489
0.508267
0.50863
0.513991
0.522958
0.530368
0.552439
0.565438
0.551336
0.494712
0.438435
0.377024
2.72017
33.7664
109.206
290.933
562.938
895.639
992.687
1016.19
1044.47
0.556382
0.541227
0.528114
0.512921
0.515197
0.523204
0.515698
0.50897
0.499092
0.478855
0.424805
0.394281
0.379914
0.400252
0.505298
0.581159
0.595736
6.19655
45.5587
107.577
259.984
484.449
837.959
0.513857
0.504652
0.503653
0.49699
0.498361
0.500029
0.497351
0.497919
0.496546
0.491846
0.47936
0.44773
0.408091
0.443052
0.619074
0.661043
0.659706
0.550582
0.644623
0.621571
6.30536
22.7793
89.7774
0.492226
0.489974
0.48926
0.482063
0.478929
0.475777
0.468805
0.46284
0.456613
0.446547
0.432338
0.421247
0.412682
0.472961
0.557283
0.525076
0.470807
0.490916
0.580118
0.72469
0.585938
0.662678
0.485056
0.471178
0.469847
0.468526
0.464546
0.462023
0.459978
0.458496
0.451997
0.444318
0.436366
0.427919
0.419563
0.409258
0.414038
0.403447
0.416371
0.434285
0.440898
0.519603
0.702571
0.773217
0.688259
0.297651
0.450311
0.450084
0.449267
0.446436
0.444033
0.441507
0.438305
0.432971
0.426435
0.419532
0.413239
0.407787
0.404278
0.397521
0.397419
0.400867
0.404217
0.401083
0.527086
0.588729
0.702528
0.607941
0.517732
0.430964
0.431157
0.430465
0.428352
0.426121
0.423479
0.420164
0.415676
0.410273
0.404511
0.398992
0.394093
0.389885
0.385233
0.382759
0.381468
0.377931
0.378884
0.508702
0.682718
0.633813
0.407862
0.468038
0.412793
0.412948
0.412272
0.410563
0.408523
0.406005
0.402941
0.399146
0.394733
0.390014
0.385329
0.380907
0.376779
0.372707
0.368763
0.364309
0.35718
0.357628
0.319251
0.48773
0.543719
0.447619
0.285921
0.395395
0.395376
0.394676
0.393206
0.391348
0.389032
0.386271
0.383009
0.379329
0.3754
0.371389
0.367405
0.363454
0.359237
0.354488
0.348373
0.341032
0.328408
0.305935
0.265089
0.541477
0.660043
0.643864
0.378533
0.378338
0.37762
0.376301
0.374607
0.372498
0.370007
0.367143
0.363966
0.360561
0.357013
0.353361
0.349664
0.345478
0.340653
0.334717
0.327175
0.316246
0.298332
0.268635
0.222066
0.573103
0.747636
0.362046
0.361772
0.361036
0.359827
0.358273
0.356347
0.354086
0.351519
0.348686
0.345635
0.342389
0.338894
0.335706
0.331625
0.327061
0.321621
0.31491
0.305969
0.292983
0.273323
0.244967
0.215792
0.234591
0.345898
0.345592
0.344863
0.343744
0.342308
0.340538
0.338467
0.336124
0.333544
0.330757
0.327786
0.324635
0.321373
0.317671
0.313507
0.308692
0.302953
0.295834
0.286695
0.274698
0.259789
0.247426
0.247334
0.330075
0.329758
0.329055
0.328013
0.326677
0.325036
0.32312
0.320954
0.318566
0.31598
0.313213
0.310271
0.307141
0.303716
0.299936
0.295704
0.290887
0.285303
0.278766
0.271228
0.263629
0.259271
0.261888
0.314563
0.314246
0.313576
0.312601
0.311347
0.309812
0.308019
0.305992
0.303751
0.301318
0.298706
0.295919
0.292946
0.289751
0.286302
0.282564
0.278501
0.274094
0.269379
0.264582
0.260558
0.259013
0.261695
0.299349
0.299037
0.298403
0.297482
0.296297
0.294845
0.293149
0.291227
0.289098
0.286777
0.284278
0.281608
0.278764
0.275742
0.272539
0.26916
0.265628
0.261999
0.258398
0.255138
0.252895
0.252646
0.255326
0.284421
0.284112
0.283513
0.282636
0.281506
0.280121
0.278498
0.276654
0.274604
0.272362
0.26994
0.267345
0.264587
0.261673
0.25862
0.255455
0.252228
0.24902
0.245979
0.243385
0.241692
0.241402
0.242781
0.269773
0.269454
0.268891
0.26805
0.266964
0.265628
0.264059
0.26227
0.260273
0.25808
0.2557
0.253144
0.250422
0.247552
0.244557
0.241474
0.23836
0.2353
0.232427
0.229964
0.228237
0.227661
0.228065
0.255375
0.255069
0.254528
0.253715
0.252661
0.251362
0.249831
0.248077
0.246111
0.243941
0.241575
0.239021
0.236292
0.233403
0.230381
0.227262
0.224098
0.220961
0.217957
0.215232
0.212934
0.21116
0.210767
0.241228
0.24094
0.240417
0.239623
0.238595
0.237321
0.235815
0.234081
0.232127
0.229959
0.227582
0.225001
0.222225
0.219267
0.216148
0.212897
0.209556
0.206181
0.202857
0.199692
0.19662
0.194033
0.192108
0.227331
0.227059
0.226552
0.225773
0.224763
0.223507
0.222015
0.22029
0.218335
0.216153
0.213746
0.211114
0.20826
0.205191
0.201921
0.198468
0.194854
0.191115
0.187339
0.183749
0.179606
0.175918
0.172521
0.213679
0.213424
0.212929
0.212162
0.211167
0.209923
0.208439
0.206714
0.204749
0.202544
0.200094
0.197395
0.194441
0.191234
0.187778
0.184076
0.180128
0.175913
0.171438
0.16643
0.162024
0.157298
0.152452
0.200271
0.200031
0.199548
0.198793
0.197809
0.196574
0.195094
0.193367
0.191388
0.189154
0.186655
0.18388
0.180817
0.177457
0.173796
0.169831
0.16555
0.160825
0.155625
0.150235
0.144635
0.13866
0.132324
0.187104
0.186881
0.186411
0.185666
0.184692
0.183465
0.18199
0.180259
0.178268
0.176007
0.17346
0.170609
0.167435
0.163918
0.160046
0.15582
0.151317
0.145904
0.140258
0.134144
0.127522
0.120311
0.112484
0.174178
0.173971
0.173515
0.172781
0.171818
0.170602
0.169134
0.167404
0.165405
0.163121
0.160534
0.157619
0.154347
0.15068
0.146589
0.142009
0.136748
0.131388
0.125287
0.118484
0.110927
0.102537
0.0932468
0.161498
0.161299
0.160862
0.160139
0.159191
0.157989
0.156533
0.154812
0.152812
0.150518
0.147904
0.144946
0.141607
0.137814
0.13355
0.128765
0.123433
0.117565
0.110961
0.103513
0.0951152
0.0856368
0.0749495
0.14907
0.148859
0.148453
0.14774
0.146813
0.14563
0.144194
0.142489
0.140501
0.138209
0.135588
0.132614
0.129276
0.125356
0.121005
0.116117
0.110616
0.104432
0.0974248
0.0894489
0.0803415
0.0699172
0.0579678
0.136883
0.136658
0.136292
0.135585
0.134686
0.133528
0.132119
0.130443
0.12848
0.126207
0.123595
0.1206
0.117126
0.113338
0.108987
0.104045
0.0984405
0.0920748
0.084806
0.0764664
0.0668446
0.0556972
0.0427269
0.124937
0.124699
0.124379
0.123671
0.122808
0.12168
0.120311
0.118678
0.11676
0.114527
0.111948
0.108988
0.105637
0.101849
0.0975269
0.0926016
0.0869876
0.0805711
0.0732058
0.0647039
0.0548253
0.0432736
0.0296725
0.113231
0.112978
0.112708
0.111991
0.111173
0.110081
0.108767
0.107202
0.105352
0.103176
0.100677
0.0978233
0.09457
0.0908665
0.0866403
0.0818147
0.0762966
0.0699696
0.0626857
0.0542533
0.0444233
0.0328709
0.0191836
0.101759
0.101489
0.101265
0.100531
0.0997661
0.0987139
0.0974708
0.0960043
0.0942443
0.0921498
0.0897727
0.0870522
0.0839408
0.0803868
0.0763292
0.0716891
0.0663768
0.0602808
0.0532619
0.0451412
0.0356842
0.0245822
0.0114437
0.0905124
0.0902601
0.0899927
0.0892647
0.0885499
0.0875308
0.0863508
0.084981
0.0833046
0.0814217
0.0792139
0.0766645
0.0737426
0.0703998
0.0665787
0.0622111
0.0572116
0.0514804
0.0448979
0.0373158
0.0285499
0.0183149
0.0062473
0.0794628
0.0792364
0.0789697
0.0782345
0.0775511
0.0765774
0.0754465
0.0742208
0.0727625
0.0710299
0.0690015
0.0666567
0.0639666
0.0608878
0.0573706
0.0533541
0.0487633
0.0435142
0.0375095
0.0306553
0.0229149
0.0139234
0.00357148
0.0685905
0.0684292
0.068245
0.0675042
0.0668188
0.066064
0.0652032
0.063944
0.0625553
0.0609619
0.0591248
0.0570142
0.0545944
0.0518304
0.0486763
0.045079
0.0409795
0.0363088
0.0309857
0.0248961
0.0185193
0.0107788
0.00219149
0.0578393
0.057764
0.0578763
0.0571445
0.0567149
0.0558206
0.0548921
0.0537962
0.0525599
0.0511529
0.0495433
0.0476971
0.0455867
0.0431797
0.0404369
0.0373179
0.0337777
0.0297714
0.0252551
0.0202037
0.0146882
0.00845025
0.00164011
0.0470965
0.0469125
0.0464574
0.04624
0.0460119
0.0453469
0.0446175
0.0437327
0.0427114
0.0415332
0.0401806
0.0386322
0.0368652
0.0348531
0.0325644
0.0299684
0.0270346
0.0237351
0.0200475
0.015964
0.0114944
0.00660274
0.00140671
0.0364584
0.0362647
0.0360877
0.0357829
0.0355908
0.0350756
0.0345237
0.033835
0.03303
0.0320971
0.0310241
0.0297988
0.0283988
0.0268053
0.0249999
0.0229579
0.0206581
0.0180855
0.0152298
0.0120927
0.00868941
0.00499449
0.00121266
0.0259874
0.0258404
0.0257827
0.0254896
0.0253555
0.0249665
0.0245728
0.0240767
0.023494
0.0228176
0.0220417
0.0211516
0.0201362
0.0189828
0.017682
0.0162124
0.0145609
0.0127205
0.0106889
0.00847154
0.00608518
0.0035261
0.000962037
0.0156118
0.0155518
0.0154849
0.0153095
0.0152271
0.0149723
0.0147361
0.0144253
0.0140689
0.0136587
0.0131856
0.0126435
0.0120291
0.0113305
0.0105427
0.0096559
0.00866247
0.00755847
0.00634407
0.0050221
0.00360737
0.00212056
0.000638018
0.00525913
0.00523227
0.00521029
0.00515284
0.00510759
0.00501066
0.00492965
0.00482206
0.00469697
0.00455312
0.00439008
0.00420744
0.00400056
0.00376671
0.00350149
0.00320349
0.00287135
0.00250477
0.00210343
0.00166406
0.00120144
0.000729685
0.000256406
911.682
1002.55
1027.92
995.685
1014.71
1036.89
1044.71
1001.45
1043.83
1065.99
1076.84
922.268
1072.46
1099.92
1116.93
798.441
1059.74
1145.23
1167.67
779.7
293.284
797.329
1228.64
949.901
0.267186
57.201
777.134
1155.79
0.1
-0.0396781
15.9571
975.542
0.318426
0.126188
0.296843
0.0636129
0.395137
0.324822
0.458416
0.661838
0.240891
0.406785
0.811719
0.536535
0.736373
0.843818
0.925716
0.48161
0.770325
0.665611
0.382936
0.429026
0.307208
0.321936
0.363114
0.413595
0.26563
0.305004
0.347599
0.390482
0.2747
0.301708
0.333626
0.368521
0.271249
0.291248
0.316089
0.344401
0.262061
0.276501
0.29528
0.317232
0.247981
0.258274
0.271797
0.287614
0.230861
0.237314
0.246082
0.256189
0.211466
0.214374
0.218767
0.223713
0.190591
0.190109
0.190456
0.190859
0.168793
0.165051
0.161638
0.158089
0.146544
0.139622
0.132652
0.125589
0.124237
0.114151
0.103676
0.093231
0.102208
0.0888891
0.0747473
0.0604862
0.0807713
0.0640613
0.0459411
0.0285785
0.0602849
0.0399136
0.0166365
-0.00766964
0.0412202
0.0170162
-0.0126409
-0.0489825
0.0241944
-0.00360918
-0.0400051
-0.0914608
0.00993366
-0.0205806
-0.0620511
-0.126102
-0.000789031
-0.0320741
-0.0750771
-0.142335
-0.00751962
-0.0371001
-0.0765721
-0.13944
-0.010177
-0.0360742
-0.0700007
-0.118267
-0.0106976
-0.0314314
-0.0566663
-0.0871736
-0.0093651
-0.0249355
-0.0417067
-0.0579216
-0.00723711
-0.0182771
-0.0287891
-0.0367774
-0.00514903
-0.012687
-0.0189165
-0.021713
-0.00341898
-0.00836808
-0.0117907
-0.0120182
-0.00209238
-0.00516567
-0.00687191
-0.00627481
-0.00109098
-0.00274953
-0.0035329
-0.00275336
-0.000286665
-0.000794075
-0.00101207
-0.000652034
873.26
712.772
388.516
175.845
82.2287
142.745
159.061
157.12
154.457
154.731
156.423
157.928
161.064
161.086
161.286
161.072
163.901
164.666
620.429
732.658
207.656
100.307
80.5373
88.8155
142.23
161.149
158.248
157.801
169.874
168.496
173.596
168.887
160.325
159.277
159.961
161.544
186.259
741.758
283.642
109.055
106.614
93.6874
99.0536
144.097
178.597
173.67
165.014
179.077
288.602
197.402
159.98
159.581
159.745
160.686
161.094
384.386
884.722
157.461
111.655
111.337
108.927
113.463
158.355
153.26
140.242
125.435
144.692
329.866
188.16
158.658
158.485
161.029
161.792
161.656
603.301
1031.79
128.595
113.449
113.814
114.119
122.392
128.759
119.868
118.52
119.082
123.389
335.238
275.943
157.239
168.515
246.864
161.405
161.404
756.942
1178.23
149.568
114.391
115.57
117.414
120.49
110.408
113.166
116.667
118.615
118.358
237.75
332.752
299.374
586.142
945.99
402.581
230.848
985.855
1373.94
711.135
117.229
117.573
118.587
118.319
114.329
113.661
115.508
117.893
119.077
119.925
121.383
579.355
1289.8
1317.55
1265.95
1149.1
1443.82
1673.68
1097.62
747.149
120.327
119.701
120.507
124.74
289.404
423.199
369.703
192.56
116.85
246.909
1142.45
1450.46
1475.55
1546.61
1676.64
1850.67
1997.86
647.868
873.679
875.965
735.643
794.255
1072.72
1170.94
1156.4
1139.76
1141.95
1171.85
1364.12
1423.38
1371.13
1185.88
1322.24
1737.47
1974.77
2129.41
0.663573
281.981
573.557
886.398
1226.49
1218.87
1214.55
1210.16
1153.24
1080.38
1043.5
968.92
649.125
266.807
171.761
178.998
756.307
1854.08
2067.21
0.719422
0.548115
21.2653
140.371
255.714
342.112
304.494
221.616
177.487
166.507
119.994
151.995
155.755
141.355
138.523
143.423
312.372
1630.42
1998.41
0.540432
0.417707
0.401958
0.491249
0.675723
0.887558
1.26391
1.23816
-0.770301
2.77584
30.8876
353.898
626.142
576.452
199.438
144.928
491.365
1774.4
2007.3
0.477738
0.475155
0.463164
0.511559
0.582086
0.649487
0.725613
0.766869
0.62446
-0.243121
1.25082
760.641
1877.16
1942.17
1470.65
1080.11
1530.98
1929.53
2006.64
0.448385
0.468544
0.499032
0.54225
0.593179
0.638122
0.619811
0.486688
0.410932
0.270113
0.406357
646.494
1960.24
2046.98
2067.43
2082.76
2099.17
2112.53
2026.81
0.425296
0.451275
0.481402
0.519994
0.564954
0.608254
0.612816
0.502014
0.361886
0.598522
0.645155
19.2225
1203.78
2109.87
2126.1
2153.12
2192.95
2221.75
2146.05
0.399708
0.425093
0.452303
0.482567
0.516629
0.546001
0.554553
0.495961
0.356747
0.386507
0.804337
4.00531
963.336
2194.38
2069.93
1711.18
2192.95
2304.9
2334.07
0.370079
0.391123
0.413007
0.435326
0.457742
0.473578
0.46993
0.42164
0.298564
0.219468
0.419996
23.4379
1244.71
2293.94
1545.96
500.302
938.171
2233.03
2418.11
0.336852
0.352374
0.367413
0.381293
0.391931
0.395426
0.377501
0.314451
0.168622
-0.0355786
-0.149697
1.74252
765.838
1890.93
1774.91
526.381
560.055
592.522
830.227
0.301106
0.310837
0.318908
0.324313
0.324831
0.314132
0.281142
0.196597
0.0238186
-0.274014
-0.457196
-0.795368
-1.20918
378.187
957.827
1047.04
587.873
593.765
617.484
0.263829
0.268255
0.269903
0.267463
0.258929
0.237486
0.189274
0.088997
-0.101118
-0.414317
-0.808998
-0.997373
-1.07794
-1.26402
-0.615708
176.573
588.634
1109.44
1146.8
0.226208
0.226006
0.222181
0.213102
0.197215
0.1681
0.110222
0.00105666
-0.181843
-0.469692
-0.867376
-0.674108
0.76081
-0.526247
-0.466869
0.442129
41.9606
552.108
1197.19
0.189191
0.185363
0.177223
0.162763
0.140249
0.104778
0.0413676
-0.0676826
-0.241768
-0.505647
-0.879487
-0.791922
0.836808
-0.607563
-0.947181
-0.817939
-0.190301
6.34687
1218.91
0.153215
0.146979
0.135695
0.116434
0.087537
0.0446022
-0.0239644
-0.132818
-0.297805
-0.53584
-0.870325
-1.32605
0.642514
0.700174
-1.25751
-1.17234
-0.654306
25.5342
1254.93
0.118332
0.111178
0.098377
0.0747025
0.0386229
-0.0143973
-0.0853272
-0.197543
-0.352984
-0.556753
-0.819784
-1.18116
-1.49223
0.962524
0.64859
-0.972184
-0.47719
0.397277
1013.77
0.0842928
0.0769562
0.0619122
0.0373452
-0.00617623
-0.0728125
-0.155602
-0.269769
-0.40966
-0.569244
-0.741275
-0.95394
-1.16397
0.804988
1.8685
1.89168
0.158273
0.431085
780.139
0.0515167
0.0443555
0.0326254
0.00850706
-0.0430293
-0.128644
-0.235615
-0.343581
-0.468109
-0.581474
-0.669871
-0.736533
-0.740586
-0.133664
3.06806
3.35616
1.50784
1.55111
884.168
0.0166648
0.0101395
0.00342263
-0.0162043
-0.0673747
-0.18675
-0.321593
-0.398455
-0.424267
-0.57512
-0.625856
-0.580208
-0.421015
0.203505
2.21531
2.192
39.0742
3.25633
918.109
-0.0257948
-0.0355636
-0.0131184
0.159982
0.461847
0.245025
-0.363401
-0.501488
-0.498043
-0.572679
-0.607244
-0.512498
-0.30556
0.0646648
0.370693
3.1005
95.0606
5.81874
642.566
-0.0830603
-0.108537
0.0606873
0.704469
0.602505
0.409927
-0.120474
-0.636408
-0.631484
-0.455685
-0.608942
-0.515544
-0.347272
-0.0823963
-0.0696813
103.32
105.698
9.06189
446.219
-0.151396
-0.200101
-0.0366931
0.0898074
0.193649
0.263991
-0.0389476
-0.726653
-0.694628
-0.486621
-0.586942
-0.528878
-0.406375
-0.23953
-0.278244
160.178
89.7436
9.81195
527.337
-0.208696
-0.276702
-0.341681
-0.412114
-0.508043
0.0502738
-0.0184643
-0.761822
-0.683277
-0.493482
-0.389308
-0.432113
-0.370886
-0.252294
-0.222314
168.093
81.6742
10.7569
640.428
-0.232065
-0.30871
-0.370637
-0.42366
-0.516302
-0.690416
-0.0434204
-0.807689
-0.637664
-0.440289
-0.309222
-0.141583
-0.137209
-0.0674731
8.92738
176.163
80.6352
31.1836
668.796
-0.217173
-0.27908
-0.327281
-0.368766
-0.453252
-0.62599
-0.541875
-0.704712
-0.527954
-0.319071
-0.177079
0.0214898
0.244064
0.201359
9.24416
183.935
94.5025
50.6042
688.174
-0.170091
-0.210047
-0.239527
-0.264616
-0.335101
-0.47826
-0.565474
-0.546411
-0.421625
-0.155516
-0.0219641
0.180586
0.232944
0.313048
26.1101
191.442
133.836
52.5139
590.535
-0.114266
-0.132102
-0.143832
-0.15345
-0.199012
-0.284337
-0.365166
-0.382672
-0.328561
-0.0832806
0.074427
-0.0140684
0.161124
0.297672
116.342
197.68
156.736
54.6403
304.161
-0.0687428
-0.0719846
-0.0711468
-0.066898
-0.0865711
-0.138422
-0.201977
-0.231893
-0.206128
-0.115405
-0.0836167
-0.0863248
0.0416697
0.424194
158.887
201.701
150.773
56.7836
357.533
-0.0374473
-0.0329355
-0.024569
-0.0142416
-0.0210073
-0.0274359
-0.06979
-0.103292
-0.134966
-0.137705
-0.172127
-0.182735
-0.183133
-0.0632337
18.6311
205.208
164.267
57.2533
723.426
-0.0179541
-0.0107972
-0.000363653
0.0119052
0.0169273
0.0148475
0.0295789
-0.00410106
-0.0723499
-0.129441
-0.195825
-0.270213
-0.376022
1.17551
-0.387862
125.232
167.978
104.393
1011.9
-0.00711977
-6.17458e-05
0.00953121
0.0207279
0.0303187
0.035745
0.0499142
0.0560364
-0.00960141
-0.0918666
-0.196946
-0.292584
-0.441712
1.89808
-0.327149
-0.717473
123.195
135.893
1035.33
-0.00178177
0.00405407
0.0119654
0.0211799
0.0300931
0.0375978
0.0415109
0.0412842
0.018539
-0.0488905
-0.146974
-0.203781
-0.338283
1.4097
-0.200842
-0.341377
23.0964
103.701
1069.79
0.00033194
0.00423203
0.00969414
0.0156478
0.022276
0.0280275
0.0309409
0.0276057
0.0137883
-0.0164439
-0.0694215
0.0409223
0.0679654
-0.21999
-0.272385
-0.0439159
-0.358547
0.727766
1052.4
0.000462474
0.00182607
0.00354054
0.00622879
0.0088523
0.0110037
0.0119086
0.00994241
0.00461185
-0.00327879
-0.0116413
0.0393974
0.0286848
-0.0608916
-0.222314
-0.359882
-1.13152
-1.37947
205.121
)
;

boundaryField
{
    leftWall
    {
        type            fixedFluxPressure;
        gradient        uniform 0;
        value           nonuniform List<scalar> 
50
(
638.945
638.724
637.873
637.075
637.013
638.266
641.269
645.987
654.982
449.325
0.536831
0.5521
0.556382
0.513857
0.492226
0.471178
0.450311
0.430964
0.412793
0.395395
0.378533
0.362046
0.345898
0.330075
0.314563
0.299349
0.284421
0.269773
0.255375
0.241228
0.227331
0.213679
0.200271
0.187104
0.174178
0.161498
0.14907
0.136883
0.124937
0.113231
0.101759
0.0905124
0.0794628
0.0685905
0.0578393
0.0470965
0.0364584
0.0259874
0.0156118
0.00525913
)
;
    }
    rightWall
    {
        type            fixedFluxPressure;
        gradient        uniform 0;
        value           nonuniform List<scalar> 
50
(
1182.37
1155.85
1090.66
1018.28
925.546
796.566
650.251
581.684
620.429
741.758
884.722
1031.79
1178.23
1373.94
1673.68
1997.86
2129.41
2067.21
1998.41
2007.3
2006.64
2026.81
2146.05
2334.07
2418.11
830.227
617.484
1146.8
1197.19
1218.91
1254.93
1013.77
780.139
884.168
918.109
642.566
446.219
527.337
640.428
668.796
688.174
590.535
304.161
357.533
723.426
1011.9
1035.33
1069.79
1052.4
205.121
)
;
    }
    lowerWall
    {
        type            fixedFluxPressure;
        gradient        uniform 0;
        value           nonuniform List<scalar> 
62
(
638.945
635.453
637.289
643.362
654.074
665.085
674.654
682.971
692.233
704.099
719.079
736.941
757.292
779.815
804.149
829.69
855.228
878.384
895.58
904.654
893.97
900.629
944.541
944.541
938.239
935.421
943.374
959.617
975.043
981.903
980.994
911.682
1002.55
1027.92
995.685
495.597
495.852
496.43
497.502
498.443
498.961
498.821
724.055
495.597
494.522
492.214
490.975
493.182
398.165
280.652
190.32
174.294
186.122
192.704
195.793
210.872
236.047
258.137
351.626
729.901
1279.97
1182.37
)
;
    }
    atmosphere
    {
        type            totalPressure;
        rho             rho;
        psi             none;
        gamma           1;
        p0              uniform 0;
        value           nonuniform List<scalar> 
46
(
0
0
0
0
0
0
0
0
0
0
0
0
0
0
0
0
0
0
0
0
0
0
0
0
-1.21357e-07
-2.17136e-05
-5.74436e-05
-4.92824e-05
-9.81796e-06
0
0
0
0
0
0
0
0
0
0
-0.00972392
-0.0718397
-0.165616
-0.209019
-0.425473
-1.45314
0
)
;
    }
    defaultFaces
    {
        type            empty;
    }
}


// ************************************************************************* //
