/*--------------------------------*- C++ -*----------------------------------*\
| =========                 |                                                 |
| \\      /  F ield         | OpenFOAM: The Open Source CFD Toolbox           |
|  \\    /   O peration     | Version:  2206                                  |
|   \\  /    A nd           | Website:  www.openfoam.com                      |
|    \\/     M anipulation  |                                                 |
\*---------------------------------------------------------------------------*/
FoamFile
{
    version     2.0;
    format      ascii;
    arch        "LSB;label=32;scalar=64";
    class       surfaceScalarField;
    location    "0.525";
    object      phi;
}
// * * * * * * * * * * * * * * * * * * * * * * * * * * * * * * * * * * * * * //

dimensions      [0 3 -1 0 0 0 0];

oriented        oriented;

internalField   nonuniform List<scalar> 
4432
(
-3.67381e-06
3.67381e-06
-5.50349e-06
1.82968e-06
-4.15969e-06
-1.3438e-06
-7.12723e-07
-3.44696e-06
4.12025e-06
-4.83298e-06
9.35958e-06
-5.23933e-06
1.40337e-05
-4.67412e-06
1.75451e-05
-3.51137e-06
1.97958e-05
-2.2507e-06
2.09623e-05
-1.16655e-06
2.12536e-05
-2.91292e-07
2.08042e-05
4.49418e-07
1.96763e-05
1.12788e-06
1.78602e-05
1.81611e-06
1.51583e-05
2.70188e-06
1.1192e-05
3.96634e-06
5.63933e-06
5.55265e-06
-1.05467e-06
6.69401e-06
-6.39557e-06
5.3409e-06
-1.16142e-05
5.21862e-06
-1.90712e-05
7.45704e-06
-1.65962e-05
-2.475e-06
-1.65962e-05
-4.02108e-06
7.69489e-06
-5.18474e-06
2.99334e-06
-3.62159e-06
-2.90695e-06
-1.87948e-07
-6.88061e-06
4.49122e-06
-9.51214e-06
9.66731e-06
-1.04154e-05
1.42846e-05
-9.29143e-06
1.77254e-05
-6.95213e-06
1.99157e-05
-4.44104e-06
2.10689e-05
-2.31974e-06
2.1471e-05
-6.93337e-07
2.13814e-05
5.39014e-07
2.09915e-05
1.51775e-06
2.03833e-05
2.42432e-06
1.95719e-05
3.51322e-06
1.83228e-05
5.21549e-06
1.59001e-05
7.97536e-06
1.09813e-05
1.16127e-05
2.98113e-06
1.33411e-05
-6.97174e-06
1.51715e-05
-1.34214e-05
1.39067e-05
-1.0514e-05
-5.3824e-06
-2.71102e-05
-3.31045e-06
1.10053e-05
-4.11513e-06
3.79802e-06
-2.6711e-06
-4.35098e-06
3.66179e-07
-9.91788e-06
4.75109e-06
-1.38971e-05
9.79273e-06
-1.54571e-05
1.43136e-05
-1.38123e-05
1.76096e-05
-1.02482e-05
1.96408e-05
-6.47227e-06
2.06836e-05
-3.36255e-06
2.10172e-05
-1.0269e-06
2.08447e-05
7.11514e-07
2.03043e-05
2.05819e-06
1.95222e-05
3.20642e-06
1.8651e-05
4.38438e-06
1.79329e-05
5.93359e-06
1.75533e-05
8.35499e-06
1.66102e-05
1.25558e-05
1.27752e-05
1.71761e-05
5.82242e-06
2.21242e-05
-2.09407e-06
2.18232e-05
-2.5832e-06
-4.89327e-06
-2.96934e-05
-2.27379e-06
1.32791e-05
-2.59088e-06
4.11512e-06
-1.32481e-06
-5.61705e-06
1.13066e-06
-1.23734e-05
5.06269e-06
-1.78291e-05
9.85826e-06
-2.02526e-05
1.42068e-05
-1.81608e-05
1.73129e-05
-1.33543e-05
1.91675e-05
-8.32684e-06
2.01022e-05
-4.29726e-06
2.04222e-05
-1.34692e-06
2.0314e-05
8.19676e-07
1.98926e-05
2.47965e-06
1.92266e-05
3.87241e-06
1.83898e-05
5.22123e-06
1.75403e-05
6.78306e-06
1.70756e-05
8.81971e-06
1.74564e-05
1.2175e-05
1.76825e-05
1.695e-05
1.63214e-05
2.34854e-05
1.31871e-05
2.49575e-05
7.09363e-06
1.20024e-06
-2.25998e-05
-8.90733e-07
1.41699e-05
-3.607e-07
3.58509e-06
9.12139e-07
-6.88989e-06
3.0676e-06
-1.45288e-05
6.51695e-06
-2.12784e-05
1.06716e-05
-2.44073e-05
1.43844e-05
-2.18736e-05
1.69842e-05
-1.5954e-05
1.85339e-05
-9.8766e-06
1.93601e-05
-5.12348e-06
1.97124e-05
-1.69919e-06
1.97203e-05
8.11812e-07
1.9476e-05
2.72396e-06
1.90271e-05
4.32128e-06
1.84255e-05
5.82276e-06
1.77632e-05
7.44545e-06
1.72185e-05
9.3644e-06
1.73703e-05
1.20232e-05
1.87203e-05
1.55999e-05
2.08683e-05
2.13374e-05
2.09273e-05
2.48985e-05
1.33885e-05
8.73901e-06
-9.2113e-06
1.02691e-06
1.3143e-05
2.98376e-06
1.62824e-06
5.07606e-06
-8.98218e-06
7.66345e-06
-1.71162e-05
1.05835e-05
-2.41985e-05
1.33387e-05
-2.71625e-05
1.55654e-05
-2.41003e-05
1.70652e-05
-1.74538e-05
1.79862e-05
-1.07976e-05
1.85784e-05
-5.71571e-06
1.89591e-05
-2.07986e-06
1.91364e-05
6.34515e-07
1.91058e-05
2.75449e-06
1.88826e-05
4.54454e-06
1.85051e-05
6.20028e-06
1.80803e-05
7.87022e-06
1.7755e-05
9.68972e-06
1.77514e-05
1.20268e-05
1.86151e-05
1.47362e-05
2.12236e-05
1.87289e-05
2.28558e-05
2.32663e-05
1.60102e-05
1.55845e-05
6.79893e-06
3.45565e-06
9.68731e-06
7.59278e-06
-2.50888e-06
1.18868e-05
-1.32763e-05
1.55325e-05
-2.07619e-05
1.7456e-05
-2.61219e-05
1.78764e-05
-2.75829e-05
1.78831e-05
-2.4107e-05
1.79072e-05
-1.74779e-05
1.79946e-05
-1.0885e-05
1.81778e-05
-5.89885e-06
1.83903e-05
-2.29242e-06
1.86767e-05
3.48147e-07
1.88213e-05
2.60986e-06
1.8827e-05
4.53887e-06
1.86647e-05
6.36262e-06
1.84288e-05
8.10608e-06
1.8313e-05
9.8055e-06
1.84194e-05
1.19204e-05
1.88064e-05
1.43492e-05
2.04783e-05
1.7057e-05
2.21713e-05
2.15733e-05
1.74614e-05
2.02945e-05
2.42603e-05
5.85939e-06
3.82792e-06
1.31999e-05
-9.84944e-06
2.06242e-05
-2.07005e-05
2.47199e-05
-2.48576e-05
2.4569e-05
-2.5971e-05
2.21962e-05
-2.52101e-05
2.01329e-05
-2.20437e-05
1.90727e-05
-1.64176e-05
1.86865e-05
-1.04989e-05
1.86545e-05
-5.86688e-06
1.88138e-05
-2.45172e-06
1.87503e-05
4.1167e-07
1.88268e-05
2.53335e-06
1.88645e-05
4.5012e-06
1.87921e-05
6.43503e-06
1.87258e-05
8.17233e-06
1.88388e-05
9.69252e-06
1.91412e-05
1.1618e-05
1.94877e-05
1.40027e-05
2.03403e-05
1.62045e-05
2.12887e-05
2.06249e-05
1.76326e-05
2.39506e-05
4.18929e-05
2.73766e-05
-2.73766e-05
7.36507e-05
-4.62739e-05
0.000103671
-3.00204e-05
1.73746e-05
8.62968e-05
-0.000102606
0.000119981
-0.00019215
8.95434e-05
-0.000243221
5.10711e-05
-0.000255856
1.26347e-05
-0.000241799
-1.40569e-05
-0.000225766
-1.60325e-05
-0.000211849
-1.39173e-05
-0.000199946
-1.19029e-05
-0.000190955
-8.99073e-06
-0.000181402
-9.55279e-06
-0.000167034
-1.43682e-05
-0.000146
-2.10346e-05
-0.000106167
-3.98321e-05
-2.81177e-05
-7.80497e-05
-2.81177e-05
2.11389e-05
-4.85153e-05
5.60489e-05
-8.11839e-05
-2.73012e-05
5.33298e-05
-0.000147348
0.000206343
-0.000287968
0.000260601
-0.000372298
0.000173874
-0.000405911
8.4684e-05
-0.000408137
1.48615e-05
-0.000399656
-2.25391e-05
-0.000364904
-5.07841e-05
-0.000318708
-6.01131e-05
-0.000286051
-4.45601e-05
-0.000263315
-3.17268e-05
-0.000240254
-3.26136e-05
-0.000209127
-4.54956e-05
-0.000169965
-6.0196e-05
-0.000121702
-8.80956e-05
-3.96546e-05
-0.000160097
-6.77722e-05
8.40191e-06
-5.6917e-05
-1.57259e-06
-7.12094e-05
-9.82666e-05
0.000150024
-0.000223348
0.000331425
-0.000322808
0.00036006
-0.000355786
0.000206852
-0.00037192
0.000100817
-0.000402047
4.49888e-05
-0.000434963
1.03769e-05
-0.000441909
-4.38382e-05
-0.000424725
-7.72965e-05
-0.000394279
-7.50064e-05
-0.000359327
-6.66787e-05
-0.000316004
-7.59364e-05
-0.000263503
-9.79963e-05
-0.00021692
-0.000106779
-0.000153635
-0.000151381
-5.23061e-05
-0.000261426
-0.000120078
-4.38067e-05
-1.31105e-05
-0.000111213
-3.80335e-06
-0.000185264
0.000224075
-0.000217869
0.000364029
-0.000248969
0.000391161
-0.000268818
0.000226701
-0.000286367
0.000118365
-0.000344675
0.000103298
-0.000382584
4.82852e-05
-0.000384869
-4.15533e-05
-0.000363663
-9.85026e-05
-0.000332958
-0.000105711
-0.000301115
-9.8522e-05
-0.00025839
-0.000118661
-0.000198283
-0.000158104
-0.000185247
-0.000119815
-0.000141624
-0.000195004
-5.12821e-05
-0.000351768
-0.000171361
-5.67108e-05
4.36e-05
-0.000123752
6.32378e-05
-9.29677e-05
0.000193291
-7.50525e-05
0.000346114
-3.1788e-05
0.000347896
-0.000124542
0.000319456
-0.000190189
0.000184012
-0.000253632
0.000166741
-0.000286943
8.15966e-05
-0.000281789
-4.67076e-05
-0.000249933
-0.000130359
-0.000209648
-0.000145996
-0.000165911
-0.000142259
-0.000112421
-0.000172151
-5.7878e-05
-0.000212646
-6.31258e-05
-0.000114567
-8.51561e-05
-0.000172974
-4.36612e-05
-0.000393262
-0.000215022
-5.27264e-05
9.63262e-05
8.94626e-06
1.56494e-06
0.000201728
5.10134e-07
0.000200308
0.000347533
0.000111691
0.000436514
4.73717e-05
0.000383775
-5.90957e-05
0.000290479
-0.000133369
0.000241014
-0.000160026
0.000108254
-0.000146919
-5.98149e-05
-0.000105338
-0.00017194
-6.28029e-05
-0.000188531
-1.47856e-05
-0.000190277
4.50332e-05
-0.00023197
7.7856e-05
-0.000245469
6.90803e-05
-0.000105792
-3.89301e-05
-6.49633e-05
-3.51145e-05
-0.000397078
-0.000250136
6.0229e-05
3.60969e-05
8.60527e-05
-2.42587e-05
0.000122583
-3.60202e-05
0.000297044
0.000173073
0.000292055
0.000441502
0.000188243
0.000487587
8.55523e-05
0.000393169
-3.67511e-06
0.000330242
-2.58757e-05
0.000130455
4.15648e-06
-8.98469e-05
3.23847e-05
-0.000200169
6.7601e-05
-0.000223747
0.000108256
-0.000230932
0.000144759
-0.000268472
0.000147715
-0.000248425
0.000156537
-0.000114614
3.96532e-05
5.19206e-05
-2.48255e-05
-0.0003326
-0.000274962
7.00141e-05
-3.39172e-05
0.000103092
-5.73363e-05
0.000132932
-6.58601e-05
0.000221292
8.47127e-05
0.000279921
0.000382873
0.00023852
0.000528988
0.000158234
0.000473455
0.000110037
0.00037844
0.000101114
0.000139377
0.000120464
-0.000109197
0.00013715
-0.000216854
0.000151349
-0.000237945
0.00018128
-0.000260863
0.000193442
-0.000280634
0.000178885
-0.000233868
0.000164054
-9.97829e-05
0.000116232
9.97428e-05
-1.04402e-05
-0.000205927
-0.000285402
2.04063e-05
-1.65784e-05
4.56057e-05
-3.50488e-05
6.35777e-05
-3.86725e-05
6.45294e-05
-2.58093e-05
5.56057e-05
-1.70472e-05
4.58704e-05
-1.54748e-05
3.96133e-05
-1.57866e-05
3.75903e-05
-1.43946e-05
3.83425e-05
-1.12511e-05
4.0148e-05
-7.67242e-06
4.19452e-05
-4.24888e-06
4.35207e-05
-1.16385e-06
4.39457e-05
2.1084e-06
4.33734e-05
5.07349e-06
4.22795e-05
7.52896e-06
4.12549e-05
9.19689e-06
4.13292e-05
9.61824e-06
4.21394e-05
1.08077e-05
4.34198e-05
1.27224e-05
4.55566e-05
1.40677e-05
4.97586e-05
1.64229e-05
5.69609e-05
1.67482e-05
3.01129e-05
6.87409e-05
3.04704e-05
-4.70488e-05
5.70586e-05
-6.16371e-05
5.68089e-05
-3.84228e-05
3.38089e-05
-2.80926e-06
1.94082e-05
-2.64662e-06
1.3142e-05
-9.2086e-06
9.57062e-06
-1.22153e-05
1.01077e-05
-1.49317e-05
1.53156e-05
-1.6459e-05
2.38151e-05
-1.61719e-05
3.42506e-05
-1.46844e-05
4.22472e-05
-9.16047e-06
4.6445e-05
-2.08938e-06
4.74672e-05
4.05127e-06
4.57183e-05
9.27789e-06
4.3873e-05
1.10422e-05
4.42766e-05
9.21471e-06
4.48633e-05
1.0221e-05
4.60298e-05
1.15559e-05
4.89275e-05
1.117e-05
5.38361e-05
1.15142e-05
6.08222e-05
9.7622e-06
1.50311e-05
7.59039e-05
2.06397e-05
-6.76885e-05
7.21166e-06
-4.82089e-05
-3.74001e-05
6.18904e-06
-5.88926e-05
1.86833e-05
-5.81011e-05
-3.43811e-06
-6.67417e-05
-5.67989e-07
-8.35907e-05
4.63381e-06
-9.50809e-05
-3.44144e-06
-9.63321e-05
-1.52077e-05
-8.4185e-05
-2.83189e-05
-4.7783e-05
-5.10864e-05
-1.34078e-05
-4.35356e-05
1.02419e-05
-2.57391e-05
2.48226e-05
-1.05294e-05
3.40143e-05
8.62128e-08
4.34112e-05
1.64526e-06
5.00476e-05
2.57827e-06
4.95424e-05
1.07262e-05
4.73724e-05
1.37259e-05
4.84086e-05
1.01338e-05
5.10832e-05
8.83965e-06
5.46503e-05
6.19505e-06
3.09275e-06
6.65887e-05
-2.04003e-05
-4.72881e-05
-4.12988e-05
-2.73104e-05
-4.74923e-05
1.23827e-05
-3.16345e-05
2.82554e-06
-2.11615e-05
-1.39111e-05
-2.17082e-05
-2.12118e-08
-2.32124e-05
6.13809e-06
-2.727e-05
6.16322e-07
-3.72599e-05
-5.2177e-06
-5.48141e-05
-1.07646e-05
-8.7337e-05
-1.85634e-05
-0.000118712
-1.21607e-05
-0.000129783
-1.46685e-05
-0.000113825
-2.64869e-05
-8.02318e-05
-3.3507e-05
-2.50984e-05
-5.34881e-05
5.55006e-06
-2.80702e-05
2.57704e-05
-9.49416e-06
3.93471e-05
1.49237e-07
5.09174e-05
-1.43651e-06
5.57754e-05
3.98162e-06
5.81367e-05
3.8338e-06
-1.12203e-06
6.23515e-05
-2.90532e-05
-1.82349e-05
-2.90807e-05
-2.72828e-05
-1.14152e-05
-5.28278e-06
-4.24592e-06
-4.34371e-06
-1.13033e-05
-6.85368e-06
-1.07873e-05
-5.37178e-07
-5.72011e-06
1.07104e-06
-3.22667e-06
-1.877e-06
-1.67052e-06
-6.77373e-06
-3.0566e-06
-9.37837e-06
-1.88344e-05
-2.78549e-06
-3.88667e-05
7.87165e-06
-5.79885e-05
4.45337e-06
-7.21672e-05
-1.23083e-05
-7.15826e-05
-3.40916e-05
-7.94092e-05
-4.56615e-05
-8.20468e-05
-2.54327e-05
-4.85114e-05
-4.30296e-05
-7.71837e-06
-4.06438e-05
1.04316e-05
-1.95865e-05
2.39331e-05
-9.51988e-06
3.67109e-05
-8.94395e-06
-1.59336e-05
5.15225e-05
-1.00473e-05
-8.18759e-06
-1.30804e-05
-2.42497e-05
-1.03856e-05
-7.97753e-06
-9.20207e-06
-5.52726e-06
-1.09892e-05
-5.06646e-06
-1.05679e-05
-9.58437e-07
-1.00635e-05
5.66683e-07
-1.06498e-05
-1.29059e-06
-1.13814e-05
-6.04204e-06
-1.05776e-05
-1.01821e-05
-5.26022e-06
-8.10282e-06
-6.03056e-07
3.21449e-06
-5.0703e-06
8.92058e-06
-8.36531e-06
-9.01333e-06
-5.95111e-06
-3.65059e-05
-8.83031e-06
-4.27824e-05
-5.96738e-06
-2.82957e-05
-9.91564e-06
-3.90814e-05
-2.36946e-05
-2.68648e-05
-5.27653e-05
9.4841e-06
-5.79515e-05
-4.33367e-06
-5.60082e-05
-1.08873e-05
-3.3166e-05
-3.87759e-05
-6.85489e-06
-1.33268e-06
-9.85042e-06
-2.12542e-05
-8.32152e-06
-9.50642e-06
-7.58098e-06
-6.2678e-06
-8.15594e-06
-4.49146e-06
-7.33232e-06
-1.78199e-06
-6.93708e-06
1.71533e-07
-7.52735e-06
-7.00234e-07
-9.26449e-06
-4.30481e-06
-1.13685e-05
-8.07797e-06
-1.18444e-05
-7.62693e-06
-7.06149e-06
-1.56843e-06
5.10686e-07
1.34836e-06
6.86705e-06
-1.53698e-05
4.45475e-06
-3.40937e-05
2.74411e-06
-4.10718e-05
8.66706e-06
-3.42187e-05
9.59601e-06
-4.00104e-05
2.25493e-05
-3.98182e-05
4.20001e-05
-9.96678e-06
3.88496e-05
-1.18319e-06
-1.07778e-06
2.90401e-05
2.92123e-05
-6.34561e-05
-4.7384e-06
3.40571e-06
-6.80646e-06
-1.91861e-05
-6.26565e-06
-1.00472e-05
-5.97417e-06
-6.55924e-06
-5.7536e-06
-4.71199e-06
-4.95576e-06
-2.57975e-06
-4.14345e-06
-6.40686e-07
-4.38847e-06
-4.55126e-07
-5.90471e-06
-2.78851e-06
-7.57589e-06
-6.40677e-06
-6.4326e-06
-8.77023e-06
5.14094e-07
-8.51517e-06
1.09124e-05
-9.05006e-06
1.52742e-05
-1.97316e-05
1.15552e-05
-3.03746e-05
7.01271e-06
-3.65294e-05
9.7361e-06
-3.69421e-05
1.19021e-05
-4.21764e-05
2.52607e-05
-5.31768e-05
6.16655e-05
-4.63717e-05
9.29699e-05
-3.24876e-05
0.000113603
8.40664e-06
5.96094e-05
8.32063e-05
-3.04775e-06
6.45347e-06
-4.59238e-06
-1.76414e-05
-4.46313e-06
-1.01764e-05
-4.27347e-06
-6.74885e-06
-3.78108e-06
-5.2043e-06
-2.73888e-06
-3.62186e-06
-1.39924e-06
-1.98023e-06
-5.32684e-07
-1.32161e-06
-5.95986e-07
-2.72517e-06
-1.1726e-06
-5.83015e-06
-5.77289e-07
-9.36558e-06
3.36105e-06
-1.24536e-05
9.93171e-06
-1.56208e-05
1.29068e-05
-2.27068e-05
1.22073e-05
-2.96752e-05
1.06872e-05
-3.50093e-05
1.27685e-05
-3.90233e-05
1.69398e-05
-4.63479e-05
2.64603e-05
-6.26974e-05
4.82048e-05
-6.81162e-05
7.3538e-05
-5.78209e-05
0.000108104
-2.61591e-05
3.89982e-05
0.000128715
-1.57786e-06
8.03134e-06
-2.81893e-06
-1.64003e-05
-3.00102e-06
-9.99429e-06
-2.82576e-06
-6.92404e-06
-2.26126e-06
-5.76872e-06
-1.1502e-06
-4.73282e-06
5.0689e-07
-3.63724e-06
2.28136e-06
-3.09603e-06
3.57803e-06
-4.02182e-06
4.33831e-06
-6.59045e-06
5.14293e-06
-1.01702e-05
6.87474e-06
-1.41854e-05
9.49821e-06
-1.82443e-05
1.03937e-05
-2.36023e-05
9.44456e-06
-2.8726e-05
7.7278e-06
-3.32926e-05
7.60291e-06
-3.88985e-05
9.47587e-06
-4.82209e-05
1.15365e-05
-6.47581e-05
2.13552e-05
-7.79349e-05
3.62848e-05
-7.27505e-05
5.77607e-05
-4.76351e-05
1.24575e-05
8.43013e-05
-6.2882e-07
8.66019e-06
-1.65172e-06
-1.53774e-05
-1.92757e-06
-9.71838e-06
-1.80427e-06
-7.04728e-06
-1.30916e-06
-6.26376e-06
-3.3878e-07
-5.70313e-06
1.20356e-06
-5.17953e-06
3.1307e-06
-5.02313e-06
4.93031e-06
-5.82143e-06
6.24981e-06
-7.90998e-06
7.11152e-06
-1.1032e-05
7.67392e-06
-1.47479e-05
8.05911e-06
-1.86295e-05
7.44658e-06
-2.29898e-05
5.92265e-06
-2.72021e-05
4.14507e-06
-3.1515e-05
2.80338e-06
-3.75568e-05
1.50239e-06
-4.69199e-05
-2.77183e-06
-6.04839e-05
-7.7785e-06
-7.29283e-05
-8.52056e-06
-7.20085e-05
-3.30694e-06
-5.28487e-05
-4.47423e-06
1.36248e-05
-8.54426e-08
8.74566e-06
-9.24912e-07
-1.45379e-05
-1.22834e-06
-9.41492e-06
-1.16382e-06
-7.11178e-06
-8.00316e-07
-6.62723e-06
-8.96787e-08
-6.41373e-06
1.05094e-06
-6.32011e-06
2.56261e-06
-6.53479e-06
4.10088e-06
-7.35971e-06
5.2697e-06
-9.07882e-06
5.8453e-06
-1.16076e-05
5.78516e-06
-1.46878e-05
5.1479e-06
-1.79923e-05
3.78492e-06
-2.16269e-05
2.02655e-06
-2.54438e-05
6.85748e-08
-2.95571e-05
-2.68665e-06
-3.48016e-05
-7.06831e-06
-4.25383e-05
-1.4634e-05
-5.29183e-05
-2.62616e-05
-6.13008e-05
-3.64352e-05
-6.18349e-05
-4.3102e-05
-4.61819e-05
-1.19834e-05
-3.55929e-05
1.76833e-07
8.56884e-06
-5.02219e-07
-1.38588e-05
-8.15e-07
-9.10216e-06
-8.1746e-07
-7.10933e-06
-5.95218e-07
-6.84947e-06
-1.5279e-07
-6.85615e-06
5.40357e-07
-7.01325e-06
1.45501e-06
-7.44943e-06
2.40969e-06
-8.31438e-06
3.07973e-06
-9.74888e-06
3.23561e-06
-1.17635e-05
2.78438e-06
-1.42366e-05
1.78857e-06
-1.69965e-05
2.33044e-07
-2.00714e-05
-1.81023e-06
-2.34006e-05
-4.29897e-06
-2.70684e-05
-7.83844e-06
-3.12622e-05
-1.36924e-05
-3.66843e-05
-2.31539e-05
-4.34569e-05
-3.52576e-05
-4.9197e-05
-4.79126e-05
-4.918e-05
-5.55994e-05
-3.84951e-05
-1.5565e-05
-5.20178e-05
2.58977e-07
8.30985e-06
-2.932e-07
-1.33067e-05
-6.09239e-07
-8.78617e-06
-6.83201e-07
-7.0354e-06
-5.9584e-07
-6.93685e-06
-3.79276e-07
-7.07272e-06
-4.69929e-08
-7.34552e-06
3.67789e-07
-7.8642e-06
7.58492e-07
-8.70508e-06
9.42015e-07
-9.93242e-06
7.3492e-07
-1.15565e-05
4.02476e-08
-1.35419e-05
-1.16287e-06
-1.57934e-05
-2.91105e-06
-1.83232e-05
-5.22894e-06
-2.10827e-05
-8.22047e-06
-2.40768e-05
-1.22536e-05
-2.72291e-05
-1.83941e-05
-3.05438e-05
-2.78272e-05
-3.40238e-05
-4.01867e-05
-3.68375e-05
-5.30475e-05
-3.63192e-05
-6.30756e-05
-2.8467e-05
-1.35475e-05
-6.50931e-05
2.53579e-07
8.05623e-06
-2.22569e-07
-1.28307e-05
-5.50166e-07
-8.45864e-06
-6.92608e-07
-6.89301e-06
-7.25978e-07
-6.90351e-06
-6.88222e-07
-7.11048e-06
-6.09008e-07
-7.42474e-06
-5.36124e-07
-7.93708e-06
-5.39205e-07
-8.702e-06
-7.2657e-07
-9.74506e-06
-1.21088e-06
-1.10722e-05
-2.08897e-06
-1.26639e-05
-3.40296e-06
-1.44795e-05
-5.25202e-06
-1.64742e-05
-7.74373e-06
-1.8591e-05
-1.10407e-05
-2.07799e-05
-1.52983e-05
-2.29715e-05
-2.08638e-05
-2.49782e-05
-2.84344e-05
-2.64531e-05
-3.84878e-05
-2.67841e-05
-5.01322e-05
-2.46748e-05
-6.01552e-05
-1.8444e-05
-8.70594e-06
-6.49968e-05
2.07663e-07
7.84851e-06
-2.36744e-07
-1.23864e-05
-5.83815e-07
-8.11163e-06
-7.8924e-07
-6.68763e-06
-9.27642e-07
-6.76514e-06
-1.03369e-06
-7.00444e-06
-1.1361e-06
-7.32233e-06
-1.28085e-06
-7.79233e-06
-1.52847e-06
-8.45438e-06
-1.95016e-06
-9.32339e-06
-2.62264e-06
-1.03997e-05
-3.62594e-06
-1.16606e-05
-5.02734e-06
-1.30781e-05
-6.90372e-06
-1.45978e-05
-9.33982e-06
-1.61549e-05
-1.24588e-05
-1.76609e-05
-1.64194e-05
-1.90108e-05
-2.13789e-05
-2.00187e-05
-2.74639e-05
-2.03679e-05
-3.46907e-05
-1.95573e-05
-4.25005e-05
-1.6865e-05
-4.91772e-05
-1.17674e-05
-4.9436e-06
-5.29396e-05
1.45985e-07
7.70247e-06
-2.97647e-07
-1.19428e-05
-6.70328e-07
-7.73899e-06
-9.32451e-07
-6.42554e-06
-1.16044e-06
-6.53717e-06
-1.38438e-06
-6.78053e-06
-1.62698e-06
-7.07973e-06
-1.92649e-06
-7.49283e-06
-2.33395e-06
-8.04693e-06
-2.90655e-06
-8.75081e-06
-3.70778e-06
-9.59853e-06
-4.79919e-06
-1.05693e-05
-6.24411e-06
-1.16332e-05
-8.10552e-06
-1.27364e-05
-1.04443e-05
-1.38161e-05
-1.33267e-05
-1.47784e-05
-1.68425e-05
-1.54949e-05
-2.10814e-05
-1.57798e-05
-2.60413e-05
-1.5408e-05
-3.15075e-05
-1.40911e-05
-3.69131e-05
-1.14595e-05
-4.13426e-05
-7.33789e-06
-2.19021e-06
-4.40961e-05
8.44026e-08
7.61803e-06
-3.78871e-07
-1.14795e-05
-7.80816e-07
-7.33707e-06
-1.09284e-06
-6.11354e-06
-1.39453e-06
-6.23551e-06
-1.71282e-06
-6.46227e-06
-2.06565e-06
-6.72692e-06
-2.48272e-06
-7.07577e-06
-3.00395e-06
-7.5257e-06
-3.67829e-06
-8.07649e-06
-4.55626e-06
-8.72058e-06
-5.68779e-06
-9.43777e-06
-7.12477e-06
-1.01963e-05
-8.91254e-06
-1.09486e-05
-1.1098e-05
-1.16306e-05
-1.3719e-05
-1.21573e-05
-1.68005e-05
-1.24133e-05
-2.03341e-05
-1.22461e-05
-2.42657e-05
-1.14765e-05
-2.84332e-05
-9.92359e-06
-3.24414e-05
-7.45134e-06
-3.56967e-05
-4.08266e-06
-1.51128e-07
-3.77358e-05
2.93639e-08
7.58865e-06
-4.63425e-07
-1.09868e-05
-8.94451e-07
-6.90606e-06
-1.24965e-06
-5.75836e-06
-1.60997e-06
-5.87523e-06
-1.99979e-06
-6.07248e-06
-2.434e-06
-6.29274e-06
-2.93624e-06
-6.57354e-06
-3.53868e-06
-6.92326e-06
-4.27604e-06
-7.33914e-06
-5.19077e-06
-7.80587e-06
-6.31943e-06
-8.30913e-06
-7.70239e-06
-8.8133e-06
-9.37133e-06
-9.27968e-06
-1.135e-05
-9.65187e-06
-1.36548e-05
-9.85245e-06
-1.6285e-05
-9.78304e-06
-1.92098e-05
-9.32135e-06
-2.23468e-05
-8.33947e-06
-2.55324e-05
-6.73805e-06
-2.84932e-05
-4.49054e-06
-3.0889e-05
-1.68695e-06
1.47551e-06
-3.25156e-05
-1.5015e-08
7.60367e-06
-5.41664e-07
-1.04601e-05
-9.99769e-07
-6.44798e-06
-1.38969e-06
-5.36847e-06
-1.79473e-06
-5.47022e-06
-2.23618e-06
-5.63107e-06
-2.72618e-06
-5.80276e-06
-3.28377e-06
-6.01595e-06
-3.93339e-06
-6.27364e-06
-4.70384e-06
-6.5687e-06
-5.62144e-06
-6.88829e-06
-6.71947e-06
-7.21113e-06
-8.02296e-06
-7.50984e-06
-9.5522e-06
-7.75046e-06
-1.13224e-05
-7.88164e-06
-1.33329e-05
-7.84203e-06
-1.5565e-05
-7.55092e-06
-1.79726e-05
-6.91374e-06
-2.04713e-05
-5.84078e-06
-2.29282e-05
-4.28115e-06
-2.51573e-05
-2.26149e-06
-2.6928e-05
8.37503e-08
2.65759e-06
-2.81101e-05
-4.94459e-08
7.65311e-06
-6.08384e-07
-9.90122e-06
-1.08818e-06
-5.96821e-06
-1.50479e-06
-4.9519e-06
-1.94191e-06
-5.03313e-06
-2.41818e-06
-5.15483e-06
-2.94345e-06
-5.27749e-06
-3.5329e-06
-5.42649e-06
-4.20408e-06
-5.60245e-06
-4.97895e-06
-5.79385e-06
-5.87919e-06
-5.98808e-06
-6.92594e-06
-6.16441e-06
-8.1369e-06
-6.29892e-06
-9.52482e-06
-6.36258e-06
-1.10912e-05
-6.31526e-06
-1.28287e-05
-6.10461e-06
-1.47103e-05
-5.66933e-06
-1.66874e-05
-4.9366e-06
-1.86815e-05
-3.8467e-06
-2.05828e-05
-2.37985e-06
-2.22526e-05
-5.91645e-07
-2.35579e-05
1.3891e-06
3.47485e-06
-2.43752e-05
-7.42311e-08
7.72733e-06
-6.60907e-07
-9.31459e-06
-1.15636e-06
-5.47279e-06
-1.59068e-06
-4.51761e-06
-2.04816e-06
-4.57568e-06
-2.54475e-06
-4.65825e-06
-3.08764e-06
-4.73459e-06
-3.68864e-06
-4.82547e-06
-4.36287e-06
-4.92823e-06
-5.12501e-06
-5.03174e-06
-5.99098e-06
-5.12215e-06
-6.97452e-06
-5.18093e-06
-8.08695e-06
-5.18656e-06
-9.33387e-06
-5.11572e-06
-1.0713e-05
-4.93622e-06
-1.22094e-05
-4.60817e-06
-1.37944e-05
-4.08433e-06
-1.54204e-05
-3.31057e-06
-1.70199e-05
-2.24718e-06
-1.85021e-05
-8.97638e-07
-1.97582e-05
6.64501e-07
-2.07178e-05
2.34877e-06
3.99491e-06
-2.12378e-05
-9.03558e-08
7.81766e-06
-6.97209e-07
-8.7078e-06
-1.19984e-06
-4.97021e-06
-1.64394e-06
-4.07355e-06
-2.11175e-06
-4.10789e-06
-2.6167e-06
-4.15329e-06
-3.16403e-06
-4.18725e-06
-3.76322e-06
-4.22627e-06
-4.42519e-06
-4.26627e-06
-5.16087e-06
-4.2961e-06
-5.98105e-06
-4.30203e-06
-6.89529e-06
-4.26676e-06
-7.90921e-06
-4.1727e-06
-9.02445e-06
-4.00055e-06
-1.02345e-05
-3.72622e-06
-1.15227e-05
-3.31993e-06
-1.28598e-05
-2.74717e-06
-1.42043e-05
-1.96603e-06
-1.55e-05
-9.51475e-07
-1.66556e-05
2.57955e-07
-1.76373e-05
1.64624e-06
-1.83294e-05
3.04102e-06
4.32461e-06
-1.86591e-05
-9.98156e-08
7.91744e-06
-7.13637e-07
-8.09405e-06
-1.21498e-06
-4.46891e-06
-1.66118e-06
-3.62739e-06
-2.13042e-06
-3.63866e-06
-2.63361e-06
-3.65009e-06
-3.17465e-06
-3.64618e-06
-3.76086e-06
-3.64004e-06
-4.40042e-06
-3.62674e-06
-5.10137e-06
-3.59521e-06
-5.87093e-06
-3.53254e-06
-6.71242e-06
-3.42536e-06
-7.6312e-06
-3.254e-06
-8.6255e-06
-3.00632e-06
-9.68664e-06
-2.6651e-06
-1.0798e-05
-2.20855e-06
-1.19331e-05
-1.61202e-06
-1.30529e-05
-8.46233e-07
-1.41082e-05
1.0387e-07
-1.50572e-05
1.20705e-06
-1.58257e-05
2.4148e-06
-1.63589e-05
3.57425e-06
4.54093e-06
-1.65752e-05
-1.03913e-07
8.02131e-06
-7.07219e-07
-7.49083e-06
-1.19698e-06
-3.97921e-06
-1.63864e-06
-3.18576e-06
-2.10171e-06
-3.17561e-06
-2.59502e-06
-3.15676e-06
-3.12148e-06
-3.11969e-06
-3.68701e-06
-3.07451e-06
-4.29747e-06
-3.01631e-06
-4.95795e-06
-2.93479e-06
-5.67309e-06
-2.81745e-06
-6.44659e-06
-2.65192e-06
-7.27564e-06
-2.42501e-06
-8.16056e-06
-2.12145e-06
-9.09279e-06
-1.73289e-06
-1.00552e-05
-1.24618e-06
-1.10237e-05
-6.43429e-07
-1.19683e-05
9.8337e-08
-1.28506e-05
9.86226e-07
-1.36454e-05
2.00197e-06
-1.4295e-05
3.06446e-06
-1.4739e-05
4.01832e-06
4.74187e-06
-1.49399e-05
-9.92868e-08
8.12054e-06
-6.73896e-07
-6.91631e-06
-1.14352e-06
-3.50964e-06
-1.57386e-06
-2.75545e-06
-2.02361e-06
-2.72586e-06
-2.50037e-06
-2.67999e-06
-3.00659e-06
-2.61345e-06
-3.54561e-06
-2.5355e-06
-4.12235e-06
-2.4396e-06
-4.74069e-06
-2.31649e-06
-5.40263e-06
-2.15554e-06
-6.10856e-06
-1.94603e-06
-6.85784e-06
-1.67578e-06
-7.64606e-06
-1.33328e-06
-8.4664e-06
-9.12579e-07
-9.30785e-06
-4.04746e-07
-1.01395e-05
1.88249e-07
-1.09523e-05
9.11082e-07
-1.17182e-05
1.75223e-06
-1.24004e-05
2.68426e-06
-1.29795e-05
3.64349e-06
-1.34161e-05
4.455e-06
5.00937e-06
-1.36836e-05
-8.1043e-08
8.20153e-06
-6.1291e-07
-6.38452e-06
-1.05492e-06
-3.06768e-06
-1.46783e-06
-2.34256e-06
-1.89696e-06
-2.29675e-06
-2.34998e-06
-2.22695e-06
-2.82878e-06
-2.13464e-06
-3.3373e-06
-2.02699e-06
-3.8783e-06
-1.89863e-06
-4.45319e-06
-1.74161e-06
-5.06343e-06
-1.54531e-06
-5.70814e-06
-1.30134e-06
-6.38498e-06
-9.98964e-07
-7.08872e-06
-6.29564e-07
-7.81426e-06
-1.87063e-07
-8.54644e-06
3.27424e-07
-9.28454e-06
9.26354e-07
-9.9981e-06
1.62462e-06
-1.06687e-05
2.42284e-06
-1.12957e-05
3.31127e-06
-1.18464e-05
4.19427e-06
-1.23151e-05
4.9237e-06
5.40726e-06
-1.2713e-05
-4.32173e-08
8.24469e-06
-5.27385e-07
-5.90039e-06
-9.37651e-07
-2.65745e-06
-1.32669e-06
-1.95354e-06
-1.72807e-06
-1.89538e-06
-2.1504e-06
-1.80462e-06
-2.59568e-06
-1.68936e-06
-3.06701e-06
-1.55567e-06
-3.56667e-06
-1.39897e-06
-4.09635e-06
-1.21192e-06
-4.65426e-06
-9.87384e-07
-5.24027e-06
-7.15331e-07
-5.85033e-06
-3.88938e-07
-6.47926e-06
-6.85756e-10
-7.12151e-06
4.55146e-07
-7.77496e-06
9.80836e-07
-8.42591e-06
1.57728e-06
-9.06043e-06
2.25914e-06
-9.67832e-06
3.04074e-06
-1.02556e-05
3.88852e-06
-1.08093e-05
4.74793e-06
-1.13439e-05
5.45835e-06
5.95513e-06
-1.18917e-05
1.6094e-08
8.22857e-06
-4.26238e-07
-5.45809e-06
-8.01486e-07
-2.28221e-06
-1.16052e-06
-1.59452e-06
-1.52742e-06
-1.5285e-06
-1.91188e-06
-1.42017e-06
-2.31595e-06
-1.28528e-06
-2.74234e-06
-1.12926e-06
-3.19336e-06
-9.47929e-07
-3.67013e-06
-7.35103e-07
-4.17139e-06
-4.86092e-07
-4.69641e-06
-1.90313e-07
-5.2396e-06
1.5421e-07
-5.79586e-06
5.55517e-07
-6.36341e-06
1.02264e-06
-6.94251e-06
1.55988e-06
-7.52263e-06
2.15736e-06
-8.09189e-06
2.82838e-06
-8.65284e-06
3.60169e-06
-9.2007e-06
4.43637e-06
-9.75221e-06
5.29943e-06
-1.03365e-05
6.04263e-06
6.63271e-06
-1.1014e-05
1.00594e-07
8.12797e-06
-3.15924e-07
-5.04158e-06
-6.57658e-07
-1.94047e-06
-9.82633e-07
-1.26957e-06
-1.30918e-06
-1.20196e-06
-1.65021e-06
-1.07915e-06
-2.00547e-06
-9.30001e-07
-2.37866e-06
-7.56049e-07
-2.77185e-06
-5.54684e-07
-3.18492e-06
-3.21976e-07
-3.61913e-06
-5.18249e-08
-4.07041e-06
2.60987e-07
-4.53952e-06
6.23314e-07
-5.02415e-06
1.04012e-06
-5.51718e-06
1.51561e-06
-6.0126e-06
2.05526e-06
-6.50623e-06
2.65095e-06
-7.01012e-06
3.33226e-06
-7.501e-06
4.09256e-06
-8.00125e-06
4.93663e-06
-8.51361e-06
5.8118e-06
-9.08695e-06
6.61601e-06
7.33261e-06
-9.78683e-06
2.02978e-07
7.92498e-06
-2.05772e-07
-4.63282e-06
-5.18221e-07
-1.62802e-06
-8.06697e-07
-9.81111e-07
-1.09024e-06
-9.18415e-07
-1.38427e-06
-7.85127e-07
-1.68747e-06
-6.2678e-07
-2.00206e-06
-4.41432e-07
-2.32965e-06
-2.27048e-07
-2.67146e-06
1.98858e-08
-3.02703e-06
3.03794e-07
-3.39643e-06
6.30406e-07
-3.77816e-06
1.00504e-06
-4.16963e-06
1.43157e-06
-4.5654e-06
1.91133e-06
-4.96182e-06
2.45163e-06
-5.3639e-06
3.05301e-06
-5.75468e-06
3.72302e-06
-6.14821e-06
4.48607e-06
-6.53867e-06
5.32709e-06
-6.94378e-06
6.21692e-06
-7.40047e-06
7.0727e-06
7.91104e-06
-7.97884e-06
3.16794e-07
7.60818e-06
-1.03596e-07
-4.21241e-06
-3.9532e-07
-1.33631e-06
-6.48575e-07
-7.27878e-07
-8.92202e-07
-6.74812e-07
-1.14266e-06
-5.3468e-07
-1.39554e-06
-3.73884e-07
-1.65271e-06
-1.84222e-07
-1.91475e-06
3.50506e-08
-2.18156e-06
2.86749e-07
-2.45596e-06
5.78219e-07
-2.73288e-06
9.07329e-07
-3.01365e-06
1.28579e-06
-3.29883e-06
1.71672e-06
-3.57626e-06
2.18872e-06
-3.85176e-06
2.72709e-06
-4.11626e-06
3.31747e-06
-4.3722e-06
3.97893e-06
-4.60624e-06
4.72007e-06
-4.82136e-06
5.5422e-06
-5.01968e-06
6.41525e-06
-5.24005e-06
7.2931e-06
8.17499e-06
-5.5039e-06
4.38522e-07
7.16967e-06
-1.45998e-08
-3.75927e-06
-3.00756e-07
-1.05016e-06
-5.23732e-07
-5.04925e-07
-7.37097e-07
-4.61488e-07
-9.52905e-07
-3.18881e-07
-1.16511e-06
-1.61664e-07
-1.37443e-06
2.51514e-08
-1.58044e-06
2.41133e-07
-1.77887e-06
4.85233e-07
-1.97308e-06
7.72457e-07
-2.16676e-06
1.10099e-06
-2.35373e-06
1.47272e-06
-2.52046e-06
1.88341e-06
-2.6825e-06
2.35072e-06
-2.81684e-06
2.8614e-06
-2.92215e-06
3.42276e-06
-2.99887e-06
4.05561e-06
-3.02934e-06
4.75053e-06
-3.00074e-06
5.51361e-06
-2.9156e-06
6.33016e-06
-2.77227e-06
7.14985e-06
7.97048e-06
-2.56771e-06
5.49156e-07
6.62053e-06
4.28239e-08
-3.25291e-06
-2.41748e-07
-7.65588e-07
-4.42427e-07
-3.04257e-07
-6.39079e-07
-2.6487e-07
-8.32517e-07
-1.25455e-07
-1.01767e-06
2.34953e-08
-1.19226e-06
1.99769e-07
-1.35769e-06
4.06602e-07
-1.51213e-06
6.39696e-07
-1.65516e-06
9.15489e-07
-1.77535e-06
1.22117e-06
-1.87931e-06
1.57666e-06
-1.96249e-06
1.96655e-06
-2.00482e-06
2.393e-06
-2.01544e-06
2.87201e-06
-1.97484e-06
3.38216e-06
-1.86899e-06
3.94976e-06
-1.6835e-06
4.56505e-06
-1.40201e-06
5.23212e-06
-9.98543e-07
5.92672e-06
-4.46548e-07
6.5979e-06
7.22392e-06
3.00033e-07
6.51896e-07
5.96866e-06
7.81571e-08
-2.67912e-06
-2.12837e-07
-4.74576e-07
-4.02939e-07
-1.14146e-07
-5.96382e-07
-7.14333e-08
-7.79333e-07
5.74781e-08
-9.53657e-07
1.97806e-07
-1.11413e-06
3.60228e-07
-1.2572e-06
5.4966e-07
-1.38706e-06
7.69534e-07
-1.49678e-06
1.02519e-06
-1.58196e-06
1.30634e-06
-1.63893e-06
1.63363e-06
-1.65667e-06
1.98426e-06
-1.63379e-06
2.37008e-06
-1.55073e-06
2.78893e-06
-1.40258e-06
3.234e-06
-1.16464e-06
3.7118e-06
-8.15681e-07
4.21611e-06
-3.19561e-07
4.73603e-06
3.61531e-07
5.24567e-06
1.23765e-06
5.72187e-06
6.11767e-06
2.34398e-06
7.42089e-07
5.22658e-06
9.84494e-08
-2.03541e-06
-2.03848e-07
-1.72237e-07
-3.90339e-07
7.23616e-08
-5.9076e-07
1.29002e-07
-7.72553e-07
2.39258e-07
-9.41447e-07
3.66685e-07
-1.09788e-06
5.16645e-07
-1.23924e-06
6.90993e-07
-1.36165e-06
8.91908e-07
-1.4589e-06
1.12241e-06
-1.53403e-06
1.38145e-06
-1.57263e-06
1.6722e-06
-1.57494e-06
1.98655e-06
-1.52644e-06
2.32156e-06
-1.40961e-06
2.67211e-06
-1.21468e-06
3.03908e-06
-9.16769e-07
3.4139e-06
-4.86623e-07
3.78599e-06
1.07965e-07
4.14148e-06
8.94066e-07
4.45961e-06
1.91259e-06
4.70342e-06
4.815e-06
3.21532e-06
8.0398e-07
4.42264e-06
1.0344e-07