/*--------------------------------*- C++ -*----------------------------------*\
| =========                 |                                                 |
| \\      /  F ield         | OpenFOAM: The Open Source CFD Toolbox           |
|  \\    /   O peration     | Version:  2206                                  |
|   \\  /    A nd           | Website:  www.openfoam.com                      |
|    \\/     M anipulation  |                                                 |
\*---------------------------------------------------------------------------*/
FoamFile
{
    version     2.0;
    format      ascii;
    arch        "LSB;label=32;scalar=64";
    class       volVectorField;
    location    "0.525";
    object      U;
}
// * * * * * * * * * * * * * * * * * * * * * * * * * * * * * * * * * * * * * //

dimensions      [0 1 -1 0 0 0 0];

internalField   nonuniform List<vector> 
2268
(
(-0.0287762 0.010022 0)
(-0.0606872 0.00570948 0)
(-0.0622458 -0.00347134 0)
(-0.0319101 -0.00927922 0)
(0.0170065 -0.0130644 0)
(0.0766164 -0.0141512 0)
(0.134381 -0.0126095 0)
(0.182395 -0.00945117 0)
(0.216012 -0.00601846 0)
(0.23541 -0.00305517 0)
(0.243368 -0.000629448 0)
(0.24228 0.00163335 0)
(0.233022 0.00384152 0)
(0.216569 0.00629768 0)
(0.19194 0.0096831 0)
(0.156076 0.0145094 0)
(0.103068 0.0202105 0)
(0.030295 0.0224934 0)
(-0.0538453 0.00891907 0)
(-0.0826634 0.00943286 0)
(-0.2018 0.0245246 0)
(-0.25262 -0.00842981 0)
(-0.0921699 -0.056084 0)
(-0.0388499 0.0306263 0)
(-0.0590466 0.0132863 0)
(-0.0564947 -0.0116851 0)
(-0.0257512 -0.0284465 0)
(0.0219868 -0.0392413 0)
(0.0806963 -0.0426115 0)
(0.137808 -0.0380101 0)
(0.184997 -0.02858 0)
(0.217703 -0.0183744 0)
(0.236584 -0.00963969 0)
(0.244734 -0.00275109 0)
(0.245742 0.00276729 0)
(0.242749 0.00747334 0)
(0.236902 0.0120908 0)
(0.229023 0.0178967 0)
(0.219051 0.0265419 0)
(0.201636 0.0390947 0)
(0.16615 0.0533983 0)
(0.083122 0.0529356 0)
(-0.00545784 0.0522006 0)
(-0.1675 0.0511678 0)
(-0.164121 -0.0247531 0)
(-0.0445018 -0.134041 0)
(-0.0344349 0.0505528 0)
(-0.0468762 0.0182473 0)
(-0.0445828 -0.0202303 0)
(-0.0165671 -0.0463427 0)
(0.0266845 -0.0639039 0)
(0.0828504 -0.0701975 0)
(0.138908 -0.0626302 0)
(0.184722 -0.0467713 0)
(0.215475 -0.0298262 0)
(0.23262 -0.0155948 0)
(0.239866 -0.0047155 0)
(0.24031 0.00335637 0)
(0.235947 0.00955257 0)
(0.228173 0.0149252 0)
(0.218344 0.020839 0)
(0.208832 0.0295766 0)
(0.202147 0.0441432 0)
(0.202054 0.0672679 0)
(0.177884 0.0866621 0)
(0.127209 0.104266 0)
(-0.00120216 0.0944195 0)
(-0.0589302 -0.0396747 0)
(0.0169883 -0.169029 0)
(-0.0262161 0.0660953 0)
(-0.0306869 0.0216418 0)
(-0.026733 -0.0278321 0)
(-0.00434327 -0.0610489 0)
(0.0328002 -0.0864269 0)
(0.0848649 -0.0970237 0)
(0.138723 -0.0868073 0)
(0.182513 -0.0641191 0)
(0.211026 -0.0402857 0)
(0.22637 -0.0209278 0)
(0.232862 -0.00652981 0)
(0.233676 0.00420699 0)
(0.23049 0.0124321 0)
(0.22424 0.0193485 0)
(0.215597 0.026163 0)
(0.205728 0.0344687 0)
(0.196388 0.0463277 0)
(0.196279 0.0670925 0)
(0.203622 0.0951619 0)
(0.2092 0.129784 0)
(0.161384 0.134044 0)
(0.110387 -0.0113531 0)
(0.0786931 -0.144846 0)
(-0.01629 0.0750181 0)
(-0.00744118 0.021114 0)
(-0.000249833 -0.0341489 0)
(0.0199306 -0.0735178 0)
(0.0536547 -0.107203 0)
(0.0983907 -0.122425 0)
(0.144064 -0.109686 0)
(0.181122 -0.0802351 0)
(0.205024 -0.0496466 0)
(0.21806 -0.0254827 0)
(0.224229 -0.00809689 0)
(0.22601 0.00452757 0)
(0.224575 0.014236 0)
(0.220625 0.0223858 0)
(0.214658 0.0301623 0)
(0.207427 0.0387972 0)
(0.1999 0.0493639 0)
(0.195637 0.0651213 0)
(0.202094 0.0882724 0)
(0.229449 0.124909 0)
(0.245488 0.142666 0)
(0.207245 0.0296742 0)
(0.128742 -0.0877693 0)
(-0.00495684 0.0760196 0)
(0.0249776 0.0163956 0)
(0.0420609 -0.042268 0)
(0.0719678 -0.0858112 0)
(0.107607 -0.12464 0)
(0.138533 -0.142021 0)
(0.165026 -0.126659 0)
(0.186888 -0.0922174 0)
(0.201212 -0.0572056 0)
(0.209588 -0.029796 0)
(0.214872 -0.00999272 0)
(0.218087 0.00396034 0)
(0.21903 0.0150243 0)
(0.217674 0.0241381 0)
(0.214276 0.0326586 0)
(0.209576 0.0416455 0)
(0.205002 0.0519075 0)
(0.202362 0.0652399 0)
(0.203776 0.0813562 0)
(0.221964 0.107824 0)
(0.261764 0.131171 0)
(0.240939 0.067797 0)
(0.153843 -0.00439155 0)
(0.00921281 0.0643368 0)
(0.0631389 -0.00040187 0)
(0.106881 -0.0574596 0)
(0.161693 -0.0989746 0)
(0.198685 -0.13536 0)
(0.205171 -0.149789 0)
(0.201945 -0.132064 0)
(0.202794 -0.09544 0)
(0.20473 -0.0596863 0)
(0.206415 -0.0326825 0)
(0.208664 -0.0128129 0)
(0.211714 0.00371949 0)
(0.214515 0.0156552 0)
(0.215659 0.0254577 0)
(0.214927 0.034352 0)
(0.212531 0.0429249 0)
(0.210053 0.0521065 0)
(0.209699 0.0642695 0)
(0.211589 0.0779865 0)
(0.217262 0.0950204 0)
(0.249411 0.119287 0)
(0.243757 0.0968398 0)
(0.179684 0.0768855 0)
(0.023672 0.041372 0)
(0.102726 -0.024967 0)
(0.191632 -0.0834077 0)
(0.273974 -0.122164 0)
(0.297708 -0.143835 0)
(0.269236 -0.146159 0)
(0.235945 -0.126906 0)
(0.220319 -0.0915675 0)
(0.214506 -0.0561264 0)
(0.21266 -0.0304721 0)
(0.213505 -0.0134917 0)
(0.214394 -0.000679824 0)
(0.214764 0.0106983 0)
(0.21556 0.0225769 0)
(0.21562 0.0346439 0)
(0.214827 0.0456823 0)
(0.214742 0.055033 0)
(0.216687 0.0653602 0)
(0.221 0.0772979 0)
(0.223894 0.0887202 0)
(0.238831 0.111635 0)
(0.242854 0.124516 0)
(0.17549 0.195105 0)
(0.131865 -0.0946958 0)
(0.531705 -0.144992 0)
(0.924527 -0.240478 0)
(1.44927 0.102295 0)
(-0.862563 0.307758 0)
(-1.83953 0.11955 0)
(-2.61372 -0.141441 0)
(-2.97636 -0.249328 0)
(-2.84724 -0.214661 0)
(-2.65508 -0.16574 0)
(-2.49556 -0.116501 0)
(-2.34399 -0.0573735 0)
(-2.22323 0.00258556 0)
(-2.13103 0.0453112 0)
(-2.0365 0.0569141 0)
(-1.85808 0.0347407 0)
(-1.44018 -0.0540677 0)
(-0.740328 -0.191783 0)
(-0.058547 -0.0708989 0)
(0.0713037 -0.243978 0)
(0.425091 -0.47239 0)
(0.732603 -0.076921 0)
(-0.968057 0.852833 0)
(-2.85645 0.985023 0)
(-4.06142 0.701654 0)
(-4.50147 0.390481 0)
(-4.74265 0.212848 0)
(-4.6149 0.00525062 0)
(-4.4397 -0.0943957 0)
(-3.87765 -0.123033 0)
(-3.39124 -0.124802 0)
(-3.11518 -0.141053 0)
(-2.87845 -0.193886 0)
(-2.61567 -0.266104 0)
(-2.26532 -0.357645 0)
(-1.67402 -0.541108 0)
(-0.84536 -0.730021 0)
(-0.168503 -0.274987 0)
(-0.0022666 -0.342976 0)
(0.243286 -0.645107 0)
(-0.131059 0.500229 0)
(-2.04449 1.58286 0)
(-3.64579 1.79747 0)
(-4.19182 1.14344 0)
(-3.88033 0.71445 0)
(-4.24273 0.123423 0)
(-4.85917 -0.165999 0)
(-5.04325 -0.363252 0)
(-4.97809 -0.455386 0)
(-4.72232 -0.339052 0)
(-4.31935 -0.226383 0)
(-3.81475 -0.253005 0)
(-3.37516 -0.382425 0)
(-2.98104 -0.529642 0)
(-2.06414 -0.851522 0)
(-0.888759 -1.33261 0)
(-0.204728 -0.555027 0)
(-0.19683 -0.231102 0)
(-0.568086 -0.0313385 0)
(-1.7805 1.51012 0)
(-2.52125 2.16175 0)
(-3.10828 2.3418 0)
(-3.09167 1.31229 0)
(-2.59687 0.70392 0)
(-3.6627 0.491463 0)
(-4.2866 0.226071 0)
(-4.38959 -0.240781 0)
(-4.26999 -0.519012 0)
(-4.01759 -0.539245 0)
(-3.66108 -0.481688 0)
(-3.13865 -0.528789 0)
(-2.58008 -0.677822 0)
(-2.53689 -0.632879 0)
(-1.90428 -0.995023 0)
(-0.807306 -1.8749 0)
(-0.12347 -0.870217 0)
(-0.422944 0.0961972 0)
(-0.996254 0.265547 0)
(-0.970131 1.50159 0)
(-1.72546 2.23455 0)
(-0.767939 2.34906 0)
(-0.416917 1.65775 0)
(-1.46293 0.852241 0)
(-2.73874 0.771466 0)
(-3.23487 0.349276 0)
(-3.22946 -0.288981 0)
(-2.98939 -0.692522 0)
(-2.67055 -0.754312 0)
(-2.24757 -0.747796 0)
(-1.53796 -0.883451 0)
(-0.692447 -1.10088 0)
(-0.825474 -0.648748 0)
(-1.04341 -1.22784 0)
(-0.685264 -2.24129 0)
(-0.0191182 -1.15874 0)
(-0.442516 0.432152 0)
(-1.05992 0.0883783 0)
(2.81437 0.393536 0)
(0.72185 2.41834 0)
(1.83036 2.30786 0)
(1.58698 2.11955 0)
(0.0676867 1.37955 0)
(-1.49384 1.14794 0)
(-1.81563 0.520848 0)
(-1.67849 -0.353416 0)
(-1.35276 -0.918698 0)
(-0.977422 -1.0015 0)
(-0.620327 -0.991682 0)
(0.237496 -1.23285 0)
(0.977199 -1.42637 0)
(1.12942 -0.483575 0)
(-0.203159 -0.796219 0)
(-0.549587 -2.3912 0)
(0.0570906 -1.40891 0)
(0.275755 0.611696 0)
(0.865891 -0.00943865 0)
(1.19335 -0.199257 0)
(1.76557 1.49695 0)
(3.94407 3.1012 0)
(3.18012 2.79084 0)
(1.79598 2.05861 0)
(0.111312 1.66671 0)
(-0.420877 0.61494 0)
(0.0179586 -0.463575 0)
(0.209628 -1.11779 0)
(0.544304 -1.2718 0)
(0.911573 -1.26298 0)
(1.55603 -1.53412 0)
(1.91775 -1.49766 0)
(1.66023 -0.792653 0)
(1.22803 0.363877 0)
(-0.374836 -2.28399 0)
(0.0996948 -1.59468 0)
(0.558282 -0.175009 0)
(1.04654 -0.35359 0)
(1.27065 -0.376742 0)
(1.71335 0.317004 0)
(2.94031 1.74978 0)
(3.61321 2.83452 0)
(2.06014 2.63745 0)
(1.29898 2.22105 0)
(1.00767 1.02138 0)
(1.48503 -0.569678 0)
(1.58734 -1.29938 0)
(1.56813 -1.42393 0)
(1.85348 -1.5104 0)
(2.2405 -1.68808 0)
(2.28184 -1.51163 0)
(1.80058 -0.805247 0)
(2.19411 0.320107 0)
(-0.133343 -1.77689 0)
(0.11436 -1.67962 0)
(0.0405961 -0.0259614 0)
(0.172106 -0.102769 0)
(0.304883 -0.163443 0)
(0.36735 -0.16669 0)
(0.337167 -0.142431 0)
(0.268519 -0.123466 0)
(0.219425 -0.110651 0)
(0.201893 -0.08854 0)
(0.202478 -0.0580167 0)
(0.210471 -0.0297218 0)
(0.220515 -0.00748064 0)
(0.230133 0.0102588 0)
(0.235517 0.0244459 0)
(0.235397 0.031669 0)
(0.230853 0.0354528 0)
(0.224523 0.0383461 0)
(0.221308 0.0430582 0)
(0.223661 0.0546833 0)
(0.229427 0.0706271 0)
(0.239627 0.0839595 0)
(0.251514 0.103897 0)
(0.296201 0.118044 0)
(0.327208 0.235076 0)
(0.0719812 -0.137212 0)
(0.238388 -0.279627 0)
(0.356415 -0.277366 0)
(0.24531 -0.134101 0)
(0.13729 -0.0562557 0)
(0.0816784 -0.0555283 0)
(0.0540526 -0.071571 0)
(0.0442945 -0.0794612 0)
(0.0644289 -0.0760011 0)
(0.10103 -0.0641767 0)
(0.155369 -0.0464734 0)
(0.209214 -0.0273032 0)
(0.243717 -0.00617826 0)
(0.256528 0.0185073 0)
(0.253165 0.0463773 0)
(0.240928 0.0644235 0)
(0.235107 0.0629907 0)
(0.238558 0.0641527 0)
(0.24331 0.0653659 0)
(0.25403 0.0654002 0)
(0.271948 0.0749327 0)
(0.302691 0.0710976 0)
(0.35926 0.121498 0)
(0.0527136 -0.39927 0)
(0.120713 -0.420015 0)
(-0.0166262 -0.137157 0)
(-0.375385 0.113849 0)
(-0.284863 0.0395769 0)
(-0.321718 -0.0187188 0)
(-0.409113 -0.0333884 0)
(-0.498775 -0.0556319 0)
(-0.553793 -0.0933152 0)
(-0.525341 -0.129518 0)
(-0.344143 -0.133469 0)
(-0.145964 -0.074062 0)
(0.00291878 -0.0194073 0)
(0.104287 0.0193474 0)
(0.161863 0.0439473 0)
(0.210561 0.0468036 0)
(0.261476 0.0351498 0)
(0.276707 0.0491145 0)
(0.261312 0.0638118 0)
(0.251128 0.0539569 0)
(0.263524 0.0497559 0)
(0.279882 0.0366388 0)
(0.320337 0.0358519 0)
(-0.0620759 -0.320927 0)
(-0.186059 -0.0674302 0)
(-0.233636 0.201337 0)
(-0.25704 0.0700574 0)
(-0.0952748 -0.0911407 0)
(-0.121775 0.00338981 0)
(-0.121457 0.0657617 0)
(-0.126797 0.00350792 0)
(-0.159233 -0.0703201 0)
(-0.227412 -0.155183 0)
(-0.372834 -0.337137 0)
(-0.561608 -0.299463 0)
(-0.71011 -0.199464 0)
(-0.762469 -0.114711 0)
(-0.528244 -0.041956 0)
(-0.22164 -0.0307421 0)
(-0.034802 -0.00268287 0)
(0.10688 0.0628509 0)
(0.181893 0.0850136 0)
(0.247938 0.0641264 0)
(0.292631 0.0523868 0)
(0.309027 0.0326104 0)
(0.319697 -0.007755 0)
(-0.136972 -0.155089 0)
(-0.176531 -0.198668 0)
(-0.12958 -0.0467884 0)
(-0.00258338 -0.0308479 0)
(-0.038534 -0.0380523 0)
(-0.0751186 0.00125166 0)
(-0.0405246 0.0126761 0)
(-0.0200879 0.00516332 0)
(-0.0109902 0.00297757 0)
(-0.00342688 0.0201302 0)
(-0.0397052 0.0775077 0)
(-0.147593 0.108154 0)
(-0.285532 -0.0076101 0)
(-0.366005 -0.179008 0)
(-0.358167 -0.299556 0)
(-0.421939 -0.457308 0)
(-0.496598 -0.244862 0)
(-0.367681 -0.159441 0)
(-0.103151 -0.0810815 0)
(0.0162118 -0.0761901 0)
(0.107553 -0.00280301 0)
(0.160156 0.015425 0)
(0.245178 -0.000432931 0)
(-0.061228 -0.0650855 0)
(-0.0553299 -0.130468 0)
(-0.0772021 -0.022985 0)
(-0.0409144 -0.0229722 0)
(-0.0547119 -0.0370075 0)
(-0.0593203 -0.00818472 0)
(-0.0541004 -0.000284348 0)
(-0.054697 -0.0192532 0)
(-0.0597197 -0.058963 0)
(-0.0627176 -0.0944591 0)
(-0.0490673 -0.0874611 0)
(-0.0053856 0.00488209 0)
(-0.00458869 0.0709214 0)
(-0.0601151 0.0270938 0)
(-0.0161307 -0.108731 0)
(-0.0521596 -0.125015 0)
(-0.0322596 -0.0885989 0)
(-0.0457826 -0.29083 0)
(-0.0338497 -0.281346 0)
(-0.258738 -0.0929499 0)
(-0.32099 -0.10741 0)
(-0.300592 -0.128289 0)
(-0.276763 -0.169791 0)
(-0.0347199 -0.0199783 0)
(-0.0422204 -0.119103 0)
(-0.0575549 -0.0543761 0)
(-0.037954 -0.0331856 0)
(-0.0425575 -0.0217193 0)
(-0.0414062 -0.00499087 0)
(-0.0375154 0.0046965 0)
(-0.0376115 -0.000669888 0)
(-0.0441652 -0.0197955 0)
(-0.0568427 -0.0361473 0)
(-0.067457 -0.0229795 0)
(-0.0561626 0.0180555 0)
(-0.019934 0.0250652 0)
(0.0241574 -0.107162 0)
(0.0488683 -0.243465 0)
(0.004573 -0.287803 0)
(0.0289691 -0.193987 0)
(0.0515708 -0.165021 0)
(0.0622001 -0.0845785 0)
(0.184729 0.156179 0)
(0.219841 0.0756729 0)
(0.26817 0.0510486 0)
(-0.291705 -0.149741 0)
(-0.020925 0.00726499 0)
(-0.031092 -0.109918 0)
(-0.0389651 -0.0531149 0)
(-0.0316864 -0.0354812 0)
(-0.0319081 -0.025203 0)
(-0.0284536 -0.0116578 0)
(-0.0237286 -0.00167584 0)
(-0.0216931 -0.00304735 0)
(-0.0267945 -0.019242 0)
(-0.0376201 -0.0404684 0)
(-0.0431116 -0.0476315 0)
(-0.0228159 -0.0299554 0)
(0.028006 -0.0123778 0)
(0.0817739 -0.0749566 0)
(0.0804173 -0.146077 0)
(0.0460027 -0.18322 0)
(0.0364893 -0.185312 0)
(0.0581081 -0.238491 0)
(0.0793703 -0.294827 0)
(0.218637 -0.237367 0)
(0.39894 -0.0951801 0)
(0.627222 0.195519 0)
(0.555843 0.406505 0)
(-0.0111148 0.0286665 0)
(-0.0206414 -0.0993989 0)
(-0.026939 -0.0553395 0)
(-0.0230982 -0.0359954 0)
(-0.0222756 -0.0268528 0)
(-0.0177679 -0.0166219 0)
(-0.0110733 -0.00629451 0)
(-0.0043471 -0.00313163 0)
(-0.00202339 -0.0127365 0)
(-0.00504168 -0.0315894 0)
(-0.00717426 -0.0507087 0)
(0.00153723 -0.0637903 0)
(0.0358085 -0.0801889 0)
(0.0664726 -0.126891 0)
(0.0710346 -0.170008 0)
(0.0625762 -0.198509 0)
(0.0570269 -0.210089 0)
(0.0814721 -0.235059 0)
(0.110064 -0.309915 0)
(0.183648 -0.306362 0)
(0.313365 -0.262008 0)
(0.464336 -0.0846164 0)
(0.686533 0.283891 0)
(-0.0042469 0.0410948 0)
(-0.0117663 -0.09146 0)
(-0.0177121 -0.0545552 0)
(-0.015765 -0.0371258 0)
(-0.0143274 -0.0298179 0)
(-0.00978011 -0.0226869 0)
(-0.00223094 -0.0149967 0)
(0.00762411 -0.01102 0)
(0.0163568 -0.0165099 0)
(0.0214004 -0.0316436 0)
(0.0251572 -0.0518779 0)
(0.0305738 -0.0734589 0)
(0.0442636 -0.0945176 0)
(0.0557179 -0.126581 0)
(0.0561339 -0.158318 0)
(0.0481521 -0.184701 0)
(0.0367085 -0.21192 0)
(0.0497275 -0.261718 0)
(0.0576066 -0.355984 0)
(0.0706904 -0.416265 0)
(0.155917 -0.379486 0)
(0.196966 -0.225729 0)
(0.422367 0.111072 0)
(-4.43547e-05 0.0460961 0)
(-0.00616521 -0.0853963 0)
(-0.0112107 -0.0531369 0)
(-0.0102301 -0.0377993 0)
(-0.00897411 -0.0326946 0)
(-0.00506714 -0.0285193 0)
(0.00159264 -0.0242207 0)
(0.0112627 -0.0221033 0)
(0.0219381 -0.0262182 0)
(0.0306112 -0.0384477 0)
(0.0366878 -0.0566677 0)
(0.0401752 -0.078286 0)
(0.0430801 -0.10089 0)
(0.0434114 -0.127566 0)
(0.0375003 -0.151934 0)
(0.0281408 -0.17514 0)
(0.0176003 -0.207166 0)
(0.0151071 -0.259633 0)
(0.00311004 -0.339571 0)
(-0.033065 -0.410538 0)
(-0.0450902 -0.393092 0)
(-0.066556 -0.279996 0)
(0.0210328 0.00777599 0)
(0.00203307 0.0475208 0)
(-0.00277996 -0.0804665 0)
(-0.00701685 -0.0515795 0)
(-0.00662007 -0.0382671 0)
(-0.00575658 -0.0349643 0)
(-0.00287002 -0.0330663 0)
(0.00197519 -0.0316539 0)
(0.00926443 -0.0319659 0)
(0.0180465 -0.0362142 0)
(0.0259001 -0.0462506 0)
(0.0309484 -0.0613746 0)
(0.0322291 -0.079706 0)
(0.0305941 -0.0991962 0)
(0.0252046 -0.120583 0)
(0.0163036 -0.1421 0)
(0.00617503 -0.164653 0)
(-0.00527169 -0.195132 0)
(-0.0207717 -0.242459 0)
(-0.0511437 -0.308325 0)
(-0.106381 -0.364362 0)
(-0.180586 -0.360626 0)
(-0.239078 -0.253845 0)
(-0.227375 -0.044927 0)
(0.00287757 0.0469166 0)
(-0.000824825 -0.0763618 0)
(-0.0044916 -0.049885 0)
(-0.00454716 -0.0384219 0)
(-0.00412411 -0.0365151 0)
(-0.00230089 -0.0361066 0)
(0.000689487 -0.036506 0)
(0.00509792 -0.0385061 0)
(0.0104746 -0.0431662 0)
(0.0153408 -0.0515618 0)
(0.0179264 -0.0636103 0)
(0.0171062 -0.078365 0)
(0.0132385 -0.0945255 0)
(0.00618992 -0.1125 0)
(-0.0035309 -0.131861 0)
(-0.0152102 -0.152791 0)
(-0.0293564 -0.17805 0)
(-0.0515483 -0.213292 0)
(-0.0922058 -0.259461 0)
(-0.154894 -0.299025 0)
(-0.234516 -0.303212 0)
(-0.299213 -0.232366 0)
(-0.295423 -0.0785861 0)
(0.00288744 0.0454984 0)
(3.30772e-05 -0.0731158 0)
(-0.00315019 -0.0482195 0)
(-0.00358756 -0.0382005 0)
(-0.00364798 -0.0373148 0)
(-0.00277435 -0.0377912 0)
(-0.00128177 -0.0390821 0)
(0.000792587 -0.041825 0)
(0.00315713 -0.0465486 0)
(0.00499521 -0.0536934 0)
(0.00515124 -0.0633296 0)
(0.00274015 -0.0751442 0)
(-0.00225767 -0.0885305 0)
(-0.00990451 -0.103582 0)
(-0.0207019 -0.120005 0)
(-0.0346726 -0.138088 0)
(-0.0522464 -0.157638 0)
(-0.0773797 -0.179888 0)
(-0.118345 -0.206112 0)
(-0.180653 -0.228748 0)
(-0.258116 -0.22958 0)
(-0.3268 -0.186915 0)
(-0.349988 -0.0920379 0)
(0.00257029 0.0440363 0)
(0.00025426 -0.0704171 0)
(-0.00263592 -0.0464995 0)
(-0.00341541 -0.037611 0)
(-0.00393371 -0.0374322 0)
(-0.00386749 -0.0384124 0)
(-0.00350053 -0.0400563 0)
(-0.00300216 -0.0429083 0)
(-0.00268026 -0.047293 0)
(-0.00300521 -0.0533984 0)
(-0.00463165 -0.0612601 0)
(-0.0081479 -0.0707791 0)
(-0.0139253 -0.0816471 0)
(-0.0222668 -0.0937397 0)
(-0.0336852 -0.10679 0)
(-0.0489399 -0.120708 0)
(-0.068984 -0.134929 0)
(-0.0948328 -0.148421 0)
(-0.129187 -0.160429 0)
(-0.177543 -0.168125 0)
(-0.241034 -0.16085 0)
(-0.304053 -0.123696 0)
(-0.342054 -0.0582048 0)
(0.00217555 0.0427899 0)
(0.000114704 -0.0679872 0)
(-0.00265159 -0.0446957 0)
(-0.00372845 -0.0366687 0)
(-0.00467184 -0.0369491 0)
(-0.00528571 -0.0381902 0)
(-0.00579191 -0.0399234 0)
(-0.00636731 -0.0425922 0)
(-0.00731896 -0.0464446 0)
(-0.00899558 -0.0515794 0)
(-0.0118012 -0.05801 0)
(-0.0161697 -0.0656195 0)
(-0.0225345 -0.0742501 0)
(-0.0312402 -0.0836294 0)
(-0.0426905 -0.0933732 0)
(-0.0574331 -0.103078 0)
(-0.076301 -0.112441 0)
(-0.100202 -0.120668 0)
(-0.130016 -0.125486 0)
(-0.166752 -0.123247 0)
(-0.20932 -0.10979 0)
(-0.250113 -0.0811836 0)
(-0.277504 -0.039613 0)
(0.001793 0.0418581 0)
(-0.000200965 -0.0656278 0)
(-0.0029775 -0.0427646 0)
(-0.00431219 -0.0354051 0)
(-0.00564065 -0.0359437 0)
(-0.00681882 -0.0372713 0)
(-0.008032 -0.0389526 0)
(-0.00941438 -0.0413375 0)
(-0.0112263 -0.0446073 0)
(-0.0137749 -0.0488203 0)
(-0.0173616 -0.0539639 0)
(-0.0223468 -0.0599143 0)
(-0.0290864 -0.0665274 0)
(-0.0379027 -0.0735094 0)
(-0.0491318 -0.0805295 0)
(-0.0630982 -0.0870666 0)
(-0.0802298 -0.0923439 0)
(-0.101085 -0.0952927 0)
(-0.12615 -0.0947527 0)
(-0.15503 -0.0889893 0)
(-0.18534 -0.0748871 0)
(-0.212507 -0.0500932 0)
(-0.231615 -0.0176527 0)
(0.00147115 0.0412486 0)
(-0.00056988 -0.0632013 0)
(-0.00345682 -0.0406794 0)
(-0.00500968 -0.0338512 0)
(-0.00667685 -0.0344992 0)
(-0.00830814 -0.0357825 0)
(-0.0100815 -0.0373134 0)
(-0.0120935 -0.039368 0)
(-0.0145454 -0.042061 0)
(-0.0176941 -0.0454151 0)
(-0.0217866 -0.0493878 0)
(-0.0271239 -0.0538827 0)
(-0.0339711 -0.0587198 0)
(-0.0425833 -0.0636324 0)
(-0.0532352 -0.0682706 0)
(-0.0661486 -0.0721589 0)
(-0.0815182 -0.074689 0)
(-0.099415 -0.0749802 0)
(-0.119751 -0.0718549 0)
(-0.142007 -0.0640343 0)
(-0.164565 -0.0504349 0)
(-0.184596 -0.030836 0)
(-0.198826 -0.00684527 0)
(0.00122938 0.0409531 0)
(-0.000922593 -0.0606282 0)
(-0.00398244 -0.0384318 0)
(-0.00571127 -0.0320446 0)
(-0.00766584 -0.0326994 0)
(-0.00964651 -0.0338502 0)
(-0.0118399 -0.0351618 0)
(-0.0143133 -0.036856 0)
(-0.0172285 -0.0389945 0)
(-0.0207762 -0.0415738 0)
(-0.0251584 -0.0445258 0)
(-0.0306088 -0.0477653 0)
(-0.0373217 -0.0511022 0)
(-0.0454959 -0.054315 0)
(-0.0553026 -0.0570762 0)
(-0.0668388 -0.0589511 0)
(-0.0801641 -0.0593514 0)
(-0.0952225 -0.0575351 0)
(-0.111755 -0.0527155 0)
(-0.129064 -0.0441997 0)
(-0.145865 -0.0315633 0)
(-0.160574 -0.0150358 0)
(-0.17156 0.00425895 0)
(0.00104934 0.0409321 0)
(-0.00124181 -0.0578768 0)
(-0.00448589 -0.03603 0)
(-0.00634636 -0.030027 0)
(-0.0085343 -0.0306224 0)
(-0.0107733 -0.0315903 0)
(-0.0132617 -0.0326458 0)
(-0.0160419 -0.0339701 0)
(-0.019252 -0.0355935 0)
(-0.0230288 -0.0374839 0)
(-0.0275265 -0.0395713 0)
(-0.0329166 -0.0417514 0)
(-0.0393408 -0.0438635 0)
(-0.0469431 -0.0457128 0)
(-0.0558296 -0.0470092 0)
(-0.0660288 -0.047384 0)
(-0.0775028 -0.0463597 0)
(-0.0900923 -0.0433599 0)
(-0.103462 -0.0378035 0)
(-0.11699 -0.0292982 0)
(-0.129733 -0.0178616 0)
(-0.140699 -0.00400228 0)
(-0.148879 0.0113709 0)
(0.000933077 0.0411244 0)
(-0.00150855 -0.0549475 0)
(-0.00492687 -0.0334953 0)
(-0.00687279 -0.0278439 0)
(-0.00924013 -0.0283402 0)
(-0.0116571 -0.0291014 0)
(-0.0143373 -0.0298906 0)
(-0.0173028 -0.0308587 0)
(-0.020665 -0.0320151 0)
(-0.0245297 -0.0333051 0)
(-0.0290069 -0.0346613 0)
(-0.0342199 -0.03597 0)
(-0.0402711 -0.0370982 0)
(-0.0472494 -0.0378749 0)
(-0.0552116 -0.0380604 0)
(-0.0641383 -0.0373456 0)
(-0.073935 -0.0353519 0)
(-0.0844083 -0.0316338 0)
(-0.095222 -0.0257971 0)
(-0.105841 -0.0176542 0)
(-0.115524 -0.00740292 0)
(-0.123669 0.0043953 0)
(-0.129639 0.0168495 0)
(0.000875051 0.0414716 0)
(-0.001715 -0.0518519 0)
(-0.00527877 -0.0308588 0)
(-0.00726689 -0.0255429 0)
(-0.00976033 -0.0259191 0)
(-0.0122849 -0.0264673 0)
(-0.0150722 -0.0269985 0)
(-0.0181274 -0.0276375 0)
(-0.0215359 -0.0283758 0)
(-0.0253783 -0.0291541 0)
(-0.0297353 -0.0298985 0)
(-0.0346935 -0.030504 0)
(-0.0403227 -0.030853 0)
(-0.0466699 -0.0308042 0)
(-0.0537498 -0.0301639 0)
(-0.0615206 -0.0286862 0)
(-0.0698611 -0.0260823 0)
(-0.0785737 -0.0220121 0)
(-0.0873511 -0.0162141 0)
(-0.095745 -0.00863299 0)
(-0.103162 0.000459544 0)
(-0.109231 0.0103537 0)
(-0.11346 0.0203339 0)
(0.000857151 0.0419219 0)
(-0.00186063 -0.0486216 0)
(-0.00551722 -0.0281608 0)
(-0.00750987 -0.0231697 0)
(-0.0100797 -0.0234182 0)
(-0.0126523 -0.0237594 0)
(-0.0154774 -0.0240513 0)
(-0.0185437 -0.0243937 0)
(-0.0219197 -0.0247677 0)
(-0.0256637 -0.0251138 0)
(-0.0298312 -0.0253566 0)
(-0.034485 -0.0254015 0)
(-0.0396725 -0.02514 0)
(-0.0454048 -0.0244658 0)
(-0.0516717 -0.0232235 0)
(-0.0584259 -0.0212294 0)
(-0.0655315 -0.0182658 0)
(-0.0728051 -0.0140756 0)
(-0.0799836 -0.00848259 0)
(-0.0866588 -0.0015073 0)
(-0.0924438 0.00642975 0)
(-0.0970304 0.0146579 0)
(-0.100009 0.0225002 0)
(0.000853609 0.0424347 0)
(-0.00193969 -0.0453134 0)
(-0.00561487 -0.0254477 0)
(-0.00758278 -0.0207664 0)
(-0.0101827 -0.0208886 0)
(-0.0127528 -0.021038 0)
(-0.0155592 -0.0211142 0)
(-0.0185773 -0.0211952 0)
(-0.0218627 -0.0212586 0)
(-0.0254552 -0.0212432 0)
(-0.0293945 -0.0210784 0)
(-0.033717 -0.0206815 0)
(-0.0384611 -0.0199511 0)
(-0.0436165 -0.0188055 0)
(-0.0491493 -0.0171352 0)
(-0.0550235 -0.0148034 0)
(-0.0611024 -0.0116512 0)
(-0.067212 -0.00748742 0)
(-0.0731225 -0.00217704 0)
(-0.0785787 0.00418704 0)
(-0.0832237 0.011072 0)
(-0.0867829 0.017843 0)
(-0.0889928 0.023807 0)
(0.000839268 0.0429814 0)
(-0.00193818 -0.0420116 0)
(-0.00554673 -0.0227699 0)
(-0.00746411 -0.0183714 0)
(-0.0100518 -0.0183728 0)
(-0.0125764 -0.0183495 0)
(-0.0153197 -0.0182351 0)
(-0.0182453 -0.0180922 0)
(-0.0214001 -0.0178931 0)
(-0.024809 -0.0175799 0)
(-0.0285015 -0.0170861 0)
(-0.0324922 -0.0163406 0)
(-0.036806 -0.01526 0)
(-0.0414293 -0.013764 0)
(-0.0463155 -0.0117921 0)
(-0.0514362 -0.00924837 0)
(-0.05667 -0.00601915 0)
(-0.0618441 -0.0019479 0)
(-0.0667881 0.00303608 0)
(-0.0713512 0.00876949 0)
(-0.0752656 0.0148142 0)
(-0.078254 0.0203866 0)
(-0.080125 0.0248301 0)
(0.000805115 0.0435323 0)
(-0.0018325 -0.0388185 0)
(-0.00529776 -0.0201778 0)
(-0.00713982 -0.0160185 0)
(-0.00967371 -0.0159087 0)
(-0.012114 -0.015731 0)
(-0.0147594 -0.015449 0)
(-0.0175597 -0.015115 0)
(-0.0205566 -0.0146956 0)
(-0.0237634 -0.0141396 0)
(-0.0272032 -0.0133822 0)
(-0.0308793 -0.0123665 0)
(-0.0347924 -0.0110207 0)
(-0.0389341 -0.00927453 0)
(-0.0432617 -0.00709139 0)
(-0.0477481 -0.00441143 0)
(-0.0522765 -0.00113811 0)
(-0.0567204 0.00279288 0)
(-0.0609915 0.00744216 0)
(-0.0649193 0.0126741 0)
(-0.0683246 0.0180123 0)
(-0.0710751 0.0226896 0)
(-0.073024 0.0260132 0)
(0.000774012 0.0440302 0)
(-0.00159787 -0.0358266 0)
(-0.00487619 -0.017718 0)
(-0.00661418 -0.0137417 0)
(-0.00905502 -0.0135354 0)
(-0.011372 -0.0132202 0)
(-0.0138865 -0.0127904 0)
(-0.0165312 -0.0122878 0)
(-0.0193474 -0.0116816 0)
(-0.0223385 -0.0109251 0)
(-0.0255262 -0.00995875 0)
(-0.0289031 -0.00873426 0)
(-0.0324525 -0.0071877 0)
(-0.036169 -0.00526744 0)
(-0.0400116 -0.00293827 0)
(-0.0439411 -0.000172561 0)
(-0.0479181 0.00309304 0)
(-0.0518363 0.00688747 0)
(-0.0555711 0.0112837 0)
(-0.059076 0.0161504 0)
(-0.0622371 0.0210112 0)
(-0.064979 0.0250875 0)
(-0.0673098 0.027741 0)
(0.000800528 0.0444086 0)
(-0.00122692 -0.0330939 0)
(-0.00431987 -0.0154262 0)
(-0.00591609 -0.0115789 0)
(-0.00823081 -0.0112943 0)
(-0.0103825 -0.0108582 0)
(-0.0127285 -0.0102959 0)
(-0.0151825 -0.00964386 0)
(-0.0177895 -0.00887467 0)
(-0.0205445 -0.00794542 0)
(-0.0234688 -0.00681221 0)
(-0.0265511 -0.00542016 0)
(-0.0297633 -0.00372495 0)
(-0.0330964 -0.00168116 0)
(-0.0365189 0.00074956 0)
(-0.0400049 0.00357173 0)
(-0.0435195 0.00680794 0)
(-0.0469833 0.01051 0)
(-0.0503513 0.0147316 0)
(-0.0535672 0.0193608 0)
(-0.0565819 0.0239684 0)
(-0.0594731 0.0277686 0)
(-0.0622959 0.0302644 0)
(0.000921429 0.0445124 0)
(-0.000747393 -0.0306275 0)
(-0.00369335 -0.01332 0)
(-0.0050923 -0.00956452 0)
(-0.00725995 -0.00922407 0)
(-0.00920232 -0.00868369 0)
(-0.0113412 -0.00800601 0)
(-0.0135625 -0.00722251 0)
(-0.0159157 -0.00630889 0)
(-0.0184002 -0.00522936 0)
(-0.0210293 -0.00395303 0)
(-0.0237927 -0.00242091 0)
(-0.0266646 -0.00059477 0)
(-0.02962 0.00155575 0)
(-0.032642 0.00404987 0)
(-0.0357208 0.00689274 0)
(-0.0388364 0.0101204 0)
(-0.0419265 0.0137825 0)
(-0.0449532 0.0178916 0)
(-0.0479247 0.0224392 0)
(-0.0508495 0.0269662 0)
(-0.0538313 0.0307938 0)
(-0.0570132 0.0335978 0)
(0.00121088 0.0442097 0)
(-0.000162861 -0.0283394 0)
(-0.0030628 -0.0113896 0)
(-0.00419922 -0.00771778 0)
(-0.00621694 -0.00735082 0)
(-0.0079108 -0.0067235 0)
(-0.00980843 -0.00595327 0)
(-0.0117542 -0.00505876 0)
(-0.0138074 -0.00402254 0)
(-0.0159699 -0.0028184 0)
(-0.0182479 -0.00141412 0)
(-0.0206279 0.000235297 0)
(-0.0231015 0.00216232 0)
(-0.025662 0.00438973 0)
(-0.0282888 0.00692833 0)
(-0.0309449 0.00980231 0)
(-0.0335957 0.0130379 0)
(-0.0362651 0.0166713 0)
(-0.0389186 0.0207663 0)
(-0.0415619 0.025295 0)
(-0.0442349 0.0299147 0)
(-0.0470606 0.0340266 0)
(-0.0502148 0.0374842 0)
(0.00163506 0.0434149 0)
(0.000451712 -0.0261142 0)
(-0.00248668 -0.00961457 0)
(-0.00330226 -0.00604699 0)
(-0.00518932 -0.00568955 0)
(-0.00660791 -0.00499483 0)
(-0.00825078 -0.00415937 0)
(-0.0098949 -0.00318426 0)
(-0.0116171 -0.00205685 0)
(-0.0134118 -0.000756158 0)
(-0.0152834 0.000749292 0)
(-0.0172301 0.00248339 0)
(-0.0192472 0.00447738 0)
(-0.0213242 0.00675695 0)
(-0.0234353 0.00933706 0)
(-0.0255603 0.0122542 0)
(-0.0276982 0.0155126 0)
(-0.0298104 0.0191456 0)
(-0.0318912 0.0232352 0)
(-0.033972 0.0277735 0)
(-0.0360442 0.0325294 0)
(-0.0382487 0.0369906 0)
(-0.0407379 0.0411632 0)
(0.00218478 0.0420362 0)
(0.00106109 -0.0239073 0)
(-0.00202038 -0.00799409 0)
(-0.00247098 -0.00458468 0)
(-0.0042822 -0.00427039 0)
(-0.00541695 -0.00352828 0)
(-0.00682764 -0.00266053 0)
(-0.00818135 -0.00164147 0)
(-0.0095739 -0.000462035 0)
(-0.0109913 0.000895499 0)
(-0.0124426 0.00246255 0)
(-0.0139214 0.00426157 0)
(-0.0154178 0.00630344 0)
(-0.0169374 0.00860659 0)
(-0.0184472 0.0112131 0)
(-0.0199284 0.0141067 0)
(-0.0213693 0.0173404 0)
(-0.0227504 0.0209755 0)
(-0.0240407 0.0250296 0)
(-0.0252151 0.0295457 0)
(-0.0262468 0.0343624 0)
(-0.0272604 0.0390634 0)
(-0.0283064 0.0437513 0)
(0.00285985 0.0400215 0)
(0.00162916 -0.0216382 0)
(-0.00170875 -0.00650403 0)
(-0.00177874 -0.00336148 0)
(-0.00359906 -0.00310386 0)
(-0.00446908 -0.00233499 0)
(-0.00570958 -0.00146877 0)
(-0.00682324 -0.00043882 0)
(-0.00793846 0.000760766 0)
(-0.00902285 0.00214129 0)
(-0.0100753 0.00371646 0)
(-0.0111151 0.00550655 0)
(-0.0121362 0.00754309 0)
(-0.0130865 0.00983165 0)
(-0.0139716 0.0123814 0)
(-0.0147662 0.0152219 0)
(-0.0154016 0.0183744 0)
(-0.0158789 0.0218835 0)
(-0.0161468 0.0258139 0)
(-0.0161271 0.0301653 0)
(-0.0157474 0.0348233 0)
(-0.0150296 0.0394666 0)
(-0.0140043 0.0442109 0)
(0.00356166 0.0373 0)
(0.00209261 -0.019103 0)
(-0.00155483 -0.00501744 0)
(-0.00128321 -0.00227546 0)
(-0.00320023 -0.00205987 0)
(-0.00384949 -0.00129241 0)
(-0.00500112 -0.000459634 0)
(-0.00594348 0.000539762 0)
(-0.00685889 0.00169982 0)
(-0.00771777 0.00304066 0)
(-0.00851545 0.0045602 0)
(-0.00922087 0.00627947 0)
(-0.00982368 0.00823184 0)
(-0.0103317 0.0104271 0)
(-0.0106736 0.0128542 0)
(-0.0108177 0.0155449 0)
(-0.0107368 0.018516 0)
(-0.0103407 0.0217813 0)
(-0.00954787 0.0253856 0)
(-0.00828641 0.0293069 0)
(-0.00641931 0.0334864 0)
(-0.00379453 0.0376634 0)
(-0.000543057 0.0418429 0)
(0.00427242 0.0340768 0)
(0.00248095 -0.0160382 0)
(-0.0015353 -0.00332681 0)
(-0.000981021 -0.00109704 0)
(-0.00306571 -0.000887423 0)
(-0.00355274 -0.000164205 0)
(-0.00469674 0.000598438 0)
(-0.00556194 0.00152659 0)
(-0.00638286 0.00259875 0)
(-0.00711779 0.0038298 0)
(-0.00776007 0.00523963 0)
(-0.00828274 0.00686123 0)
(-0.00866832 0.00867712 0)
(-0.00887882 0.0107055 0)
(-0.00887426 0.0129396 0)
(-0.00859558 0.0153518 0)
(-0.00798271 0.0179886 0)
(-0.00695654 0.0208489 0)
(-0.00538828 0.0239201 0)
(-0.00313486 0.0271699 0)
(-6.33857e-05 0.0305107 0)
(0.00411117 0.0337676 0)
(0.00925185 0.036795 0)
(0.00493575 0.0304694 0)
(0.00278192 -0.0125883 0)
(-0.00159992 -0.00155929 0)
(-0.000817516 6.63647e-05 0)
(-0.00309354 0.000299795 0)
(-0.00348317 0.000955778 0)
(-0.00465631 0.00165007 0)
(-0.00548724 0.00249205 0)
(-0.00629243 0.0034691 0)
(-0.00700126 0.00459741 0)
(-0.00758986 0.00590049 0)
(-0.00805289 0.00737948 0)
(-0.00836568 0.00903626 0)
(-0.00848859 0.0108532 0)
(-0.00837585 0.0128033 0)
(-0.00794167 0.0148929 0)
(-0.00711957 0.0170976 0)
(-0.00581844 0.019415 0)
(-0.00388051 0.0217925 0)
(-0.00119488 0.0241979 0)
(0.00239881 0.0264997 0)
(0.00730309 0.0285286 0)
(0.0133657 0.0300105 0)
(0.00542491 0.0261783 0)
(0.002931 -0.009168 0)
(-0.00166442 -3.79427e-05 0)
(-0.00073471 0.000918208 0)
(-0.00311139 0.00125024 0)
(-0.00341287 0.0017971 0)
(-0.00461549 0.00244319 0)
(-0.00544111 0.0032213 0)
(-0.00623834 0.00412829 0)
(-0.00693653 0.00516822 0)
(-0.0075479 0.00635634 0)