/*--------------------------------*- C++ -*----------------------------------*\
| =========                 |                                                 |
| \\      /  F ield         | OpenFOAM: The Open Source CFD Toolbox           |
|  \\    /   O peration     | Version:  2206                                  |
|   \\  /    A nd           | Website:  www.openfoam.com                      |
|    \\/     M anipulation  |                                                 |
\*---------------------------------------------------------------------------*/
FoamFile
{
    version     2.0;
    format      ascii;
    arch        "LSB;label=32;scalar=64";
    class       volScalarField;
    location    "0.375";
    object      alpha.water;
}
// * * * * * * * * * * * * * * * * * * * * * * * * * * * * * * * * * * * * * //

dimensions      [0 0 0 0 0 0 0];

internalField   nonuniform List<scalar> 
2268
(
1
1
1
1
1
1
1
1
1
1
1
1
1
1
1
1
1
1
1
1
1
0.965314
0.843531
1
1
1
1
1
1
1
1
1
1
1
1
1
1
1
1
1
1
1
0.999978
0.999924
0.999994
0.898791
1
1
1
1
1
1
1
1
1
1
1
1
1
1
1
1
1
1
1
1
0.999924
0.999994
0.946152
1
1
1
1
1
1
1
1
1
1
1
1
1
1
1
1
1
1
1
1
0.999976
0.999994
0.99782
1
1
1
1
1
1
1
1
1
1
1
1
1
1
1
1
1
1
1
1
1
0.999997
1
1
1
0.999999
0.999999
1
1
1
1
1
1
1
1
1
1
1
1
1
1
1
1
1
1
1
1
0.999983
0.999951
0.999961
0.999979
0.99999
0.999995
0.999997
0.999999
1
1
1
1
1
1
1
1
1
1
1
1
1
1
0.937594
0.845141
0.826772
0.846258
0.866424
0.886416
0.908312
0.930976
0.953335
0.973798
0.989685
0.998229
0.999979
1
1
1
1
1
1
1
1
1
1
1.87804e-15
1.5566e-15
3.63269e-16
2.30595e-17
3.14989e-19
7.7263e-21
1.73692e-22
4.14312e-24
1.14499e-25
8.51612e-27
2.33217e-28
5.00181e-30
9.84952e-32
1.67764e-33
2.36438e-35
2.60128e-37
2.03233e-39
8.62257e-42
4.77062e-42
2.23935e-15
1.48942e-14
3.99181e-14
5.89047e-15
1.02404e-17
3.14989e-19
7.7263e-21
1.73692e-22
4.14312e-24
2.26213e-24
9.24468e-26
1.40799e-27
2.74658e-29
4.67486e-31
6.46043e-33
6.70517e-35
4.47959e-37
1.16852e-39
4.77062e-42
6.9966e-14
1.99973e-12
4.87644e-13
4.32011e-14
2.01964e-15
6.78706e-17
1.81952e-18
4.32231e-20
1.0625e-21
3.7511e-22
1.33296e-23
2.27689e-25
4.36143e-27
7.11195e-29
9.10417e-31
8.07265e-33
3.2844e-35
1.6892e-37
8.89611e-40
5.26875e-12
1.65871e-10
4.37388e-11
3.86998e-12
2.01276e-13
7.46225e-15
2.25044e-16
5.90933e-18
1.70223e-19
4.5952e-20
1.54324e-21
2.84673e-23
5.46633e-25
8.64914e-27
1.00876e-28
6.3664e-31
5.96042e-33
2.94096e-35
1.66507e-37
2.24903e-10
9.62931e-09
2.66583e-09
2.33278e-10
1.27597e-11
5.23073e-13
1.79858e-14
5.39095e-16
8.70529e-17
4.73792e-18
1.15543e-19
2.61954e-21
5.0961e-23
7.73695e-25
7.48627e-27
8.3822e-29
9.60342e-31
4.08323e-33
2.86663e-35
1.24897e-08
3.82566e-07
1.10242e-07
1.08236e-08
5.53386e-10
2.51609e-11
9.83541e-13
3.36747e-14
7.7596e-15
3.2089e-16
7.6096e-18
1.79361e-19
3.49816e-21
4.90401e-23
6.34251e-25
9.98475e-27
1.00601e-28
4.33477e-31
3.94573e-33
7.16946e-07
1.05211e-05
3.3612e-05
1.54158e-06
1.67936e-08
8.58658e-10
3.82159e-11
1.57699e-12
2.63768e-13
1.3389e-14
3.71453e-16
8.97377e-18
1.7296e-19
2.62568e-21
5.3659e-23
8.29215e-25
7.50377e-27
3.40122e-29
4.19224e-31
0.000112624
0.000539409
0.000491202
1.43029e-05
2.91725e-07
1.75661e-08
9.86162e-10
5.64826e-11
3.32715e-12
2.38249e-13
1.04315e-14
2.68528e-16
5.20547e-18
1.20712e-19
2.30963e-21
3.29204e-23
3.13893e-25
1.34129e-27
3.28945e-29
0.136175
0.0569852
0.0541253
0.0686828
0.0763114
0.0914889
0.118442
0.156879
0.209481
0.283338
0.388299
0.533923
0.703554
0.884443
1
1
1
1
1
1
1
1
1
-1.73334e-16
-5.00827e-16
-1.15973e-15
-1.1634e-14
-6.48353e-14
-2.27479e-13
-4.36118e-13
-6.43126e-13
-2.14405e-24
0
-8.78204e-21
0
0.0220276
0.0894439
0.246567
0.52597
0.871315
1
1
1
1
1
1
-3.38389e-16
-1.04928e-15
-3.20139e-15
-2.87594e-14
-1.57385e-13
-5.77167e-13
-1.1883e-12
-1.75296e-12
-2.00049e-12
-1.58368e-12
-9.45518e-13
-4.53811e-13
2.74439e-22
1.90917e-06
0.00015812
0.0329575
0.132361
0.328741
0.607567
0.935257
0.999999
1
1
-2.7981e-16
-7.28218e-16
-3.1699e-15
-3.23596e-14
-1.89776e-13
-7.18072e-13
-1.52067e-12
-2.29093e-12
-2.71623e-12
-2.23306e-12
-1.28501e-12
-5.96284e-13
-1.26492e-13
5.42058e-22
3.07237e-06
1.19919e-06
1.05134e-05
0.00667429
0.0646635
0.19086
0.373904
0.572131
0.818381
-1.10679e-16
-2.83146e-16
-2.27516e-15
-2.44679e-14
-1.5355e-13
-5.86049e-13
-1.26051e-12
-1.95745e-12
-2.4175e-12
-2.12563e-12
-1.22272e-12
-5.24222e-13
-1.05226e-13
-4.92703e-11
8.55632e-08
5.08623e-07
3.50874e-07
4.5478e-06
9.63451e-06
1.90111e-05
0.0143328
0.0463161
0.0884942
-2.98067e-17
-8.06095e-17
-1.23181e-15
-1.40185e-14
-9.22562e-14
-3.5366e-13
-7.66768e-13
-1.20961e-12
-1.52872e-12
-1.40129e-12
-7.1821e-13
-2.4723e-14
-3.25949e-17
1.21693e-13
1.05838e-09
4.47397e-10
5.46894e-09
1.17161e-07
9.47284e-06
5.74586e-07
1.70154e-07
1.59053e-08
6.49801e-09
-7.74198e-18
-2.94616e-17
-5.18355e-16
-6.30359e-15
-4.29502e-14
-1.65112e-13
-3.59501e-13
-5.69148e-13
-7.1903e-13
-6.6054e-13
-2.63847e-13
7.19429e-13
1.15813e-13
6.29642e-11
3.51954e-11
1.48464e-10
3.17313e-10
5.78008e-10
2.94047e-07
2.49812e-09
1.34504e-06
8.64786e-07
1.35265e-08
-2.81575e-18
-1.05001e-17
-1.76097e-16
-2.24355e-15
-1.55945e-14
-5.97763e-14
-1.30091e-13
-2.04647e-13
-2.53246e-13
-2.27593e-13
-7.72234e-14
4.59299e-13
2.84405e-12
3.94552e-12
1.34064e-11
1.42115e-10
4.68132e-10
1.65217e-10
2.62777e-10
5.21345e-10
9.36907e-10
3.18337e-09
5.98857e-09
-1.20017e-18
-2.95569e-18
-4.77859e-17
-6.24233e-16
-4.38212e-15
-1.6652e-14
-3.59964e-14
-5.55899e-14
-6.55065e-14
-5.34893e-14
-1.0995e-14
2.14655e-13
1.25804e-12
3.75524e-12
6.36584e-12
1.18119e-11
4.33455e-11
1.4366e-10
3.43232e-10
6.47224e-10
5.87608e-10
4.67145e-10
4.27587e-10
-3.74895e-19
-6.43368e-19
-9.94861e-18
-1.31689e-16
-9.27566e-16
-3.47566e-15
-7.40395e-15
-1.09964e-14
-1.15604e-14
-6.09584e-15
7.62385e-15
7.94102e-14
3.89273e-13
1.28268e-12
3.10971e-12
6.45644e-12
1.37315e-11
3.21636e-11
8.30558e-11
2.63761e-10
8.31167e-10
9.72537e-10
9.23376e-10
-8.13374e-20
-1.01106e-19
-1.49114e-18
-1.98939e-17
-1.39871e-16
-5.13693e-16
-1.0631e-15
-1.44177e-15
-1.05209e-15
4.05272e-16
8.61791e-15
4.02561e-14
1.5699e-13
5.03457e-13
1.34166e-12
3.20041e-12
7.07553e-12
1.49527e-11
3.21589e-11
7.18206e-11
1.98772e-10
6.08255e-10
5.22783e-10
-1.10134e-20
-1.01974e-20
-1.43422e-19
-1.9246e-18
-1.34349e-17
-4.78633e-17
-9.14897e-17
-8.76905e-17
3.19539e-17
1.0482e-15
5.83681e-15
2.59825e-14
9.8028e-14
3.18173e-13
8.94031e-13
2.23013e-12
4.94238e-12
9.7078e-12
1.76059e-11
3.17192e-11
6.46117e-11
1.86637e-10
3.10877e-10
-7.09557e-22
-5.00594e-22
-6.68876e-21
-8.97891e-20
-6.1337e-19
-1.9975e-18
-1.77677e-18
7.02338e-18
1.0508e-16
7.08497e-16
4.1953e-15
1.95888e-14
7.49551e-14
2.47999e-13
7.18422e-13
1.82116e-12
4.05416e-12
8.06674e-12
1.48388e-11
2.62254e-11
4.81736e-11
1.21635e-10
2.9611e-10
-2.23778e-24
-8.2488e-25
-4.1793e-25
1.36939e-22
3.22404e-21
5.3487e-20
6.9527e-19
7.93788e-18
6.43609e-17
5.15505e-16
3.26907e-15
1.59473e-14
6.31421e-14
2.1497e-13
6.41437e-13
1.65586e-12
3.71111e-12
7.40621e-12
1.37719e-11
2.48327e-11
4.43138e-11
1.00493e-10
2.52758e-10
1.3501e-26
7.2856e-26
2.11281e-24
5.37729e-23
1.33373e-21
2.41706e-20
3.41018e-19
4.06378e-18
4.43814e-17
3.86324e-16
2.60337e-15
1.33556e-14
5.59649e-14
2.00195e-13
6.17679e-13
1.61573e-12
3.66225e-12
7.32494e-12
1.35569e-11
2.45266e-11
4.31891e-11
8.79977e-11
1.89822e-10
5.21332e-26
2.36426e-26
5.04355e-25
2.42971e-23
7.1107e-22
1.36833e-20
2.03343e-19
2.58475e-18
2.93152e-17
2.77604e-16
2.05036e-15
1.1095e-14
4.99881e-14
1.95006e-13
6.53194e-13
1.86783e-12
4.31309e-12
8.1028e-12
1.43563e-11
2.56158e-11
4.79778e-11
1.56119e-10
3.1219e-10
3.55844e-26
9.63727e-27
2.11867e-25
1.06823e-23
3.21225e-22
6.59165e-21
1.05116e-19
1.4407e-18
1.79364e-17
1.88929e-16
1.57726e-15
9.03177e-15
4.41439e-14
2.09055e-13
8.92794e-13
2.82288e-12
5.60415e-12
9.16204e-12
1.88501e-11
5.0356e-11
2.04508e-10
7.38853e-10
1.51924e-09
1.07051e-26
3.09005e-27
7.20303e-26
4.06926e-24
1.34396e-22
2.9702e-21
5.12395e-20
7.64504e-19
1.04104e-17
1.23008e-16
1.17589e-15
7.22664e-15
3.91084e-14
2.26923e-13
1.15969e-12
3.71417e-12
6.27117e-12
9.89879e-12
3.29408e-11
1.6939e-10
8.98451e-10
2.10826e-09
2.53554e-09
4.22238e-27
9.82962e-28
2.35576e-26
1.46553e-24
5.18337e-23
1.23989e-21
2.33835e-20
3.82664e-19
5.74852e-18
7.69938e-17
8.36278e-16
5.64216e-15
3.43702e-14
2.32533e-13
1.28981e-12
4.01246e-12
6.35369e-12
1.10361e-11
4.61899e-11
3.20026e-10
1.68083e-09
2.53554e-09
2.53554e-09
1.38859e-27
2.77515e-28
7.12657e-27
4.87541e-25
1.86376e-23
4.85558e-22
1.00653e-20
1.81142e-19
3.00097e-18
4.55773e-17
5.5297e-16
4.16811e-15
2.82012e-14
2.26118e-13
1.31256e-12
3.86887e-12
6.22084e-12
1.19629e-11
5.36917e-11
3.7838e-10
1.55265e-09
2.44624e-09
2.32258e-09
3.85645e-28
7.10927e-29
2.02244e-27
1.51665e-25
6.26452e-24
1.78004e-22
4.05341e-21
7.99761e-20
1.45336e-18
2.47366e-17
3.30857e-16
2.79976e-15
2.03009e-14
2.00446e-13
1.2651e-12
3.49237e-12
5.7956e-12
1.24504e-11
6.76597e-11
3.83127e-10
1.31701e-09
1.54903e-09
1.00795e-09
9.52712e-29
1.66732e-29
5.35084e-28
4.3933e-26
1.96288e-24
6.0677e-23
1.50934e-21
3.24201e-20
6.4062e-19
1.19979e-17
1.75734e-16
1.66936e-15
1.27076e-14
1.57219e-13
1.20157e-12
3.22691e-12
4.6267e-12
1.36377e-11
1.34226e-10
6.6807e-10
1.3151e-09
1.18856e-09
6.17716e-10
2.09983e-29
3.5722e-30
1.3151e-28
1.18194e-26
5.7029e-25
1.90788e-23
5.14502e-22
1.19329e-20
2.53803e-19
5.14605e-18
8.22257e-17
8.82648e-16
7.03202e-15
1.00166e-13
1.15955e-12
2.34536e-12
3.1825e-12
2.66143e-11
2.51587e-10
8.73847e-10
1.25594e-09
1.07204e-09
5.56114e-10
4.20842e-30
7.02919e-31
2.99699e-29
2.94749e-27
1.53088e-25
5.51477e-24
1.60091e-22
3.97925e-21
9.01627e-20
1.95479e-18
3.40055e-17
4.16076e-16
3.48398e-15
4.85067e-14
7.97441e-13
1.07675e-12
2.6511e-12
4.46559e-11
2.70094e-10
6.33761e-10
6.97149e-10
9.21661e-10
6.42963e-10
7.75192e-31
1.27444e-31
6.35927e-30
6.82705e-28
3.80012e-26
1.46898e-24
4.56498e-23
1.20856e-21
2.89009e-20
6.62733e-19
1.25593e-17
1.74333e-16
1.59001e-15
1.91372e-14
2.24617e-13
3.97205e-13
4.08019e-12
5.61132e-11
8.98979e-11
1.7539e-10
4.78122e-10
2.69227e-09
1.35467e-09
1.3064e-31
2.13032e-32
1.26738e-30
1.47513e-28
8.75644e-27
3.62475e-25
1.20093e-23
3.37149e-22
8.44518e-21
2.02844e-19
4.18475e-18
6.48923e-17
6.86205e-16
7.22457e-15
6.06727e-14
1.8567e-13
5.0132e-12
3.82804e-11
8.49755e-12
1.2213e-11
1.35417e-08
2.73905e-08
9.66583e-09
1.98043e-32
3.27717e-33
2.39018e-31
2.97967e-29
1.87686e-27
8.30504e-26
2.92635e-24
8.69372e-23
2.27164e-21
5.67153e-20
1.26616e-18
2.17757e-17
2.7458e-16
2.71676e-15
1.92396e-14
1.23366e-13
5.53051e-12
1.36837e-11
4.59448e-12
1.73234e-09
3.71278e-08
3.7702e-08
1.81711e-08
2.63585e-33
4.61469e-34
4.25591e-32
5.59513e-30
3.72401e-28
1.75775e-26
6.58444e-25
2.07172e-23
5.6526e-22
1.46059e-20
3.49304e-19
6.68246e-18
9.76865e-17
9.94671e-16
7.41135e-15
8.86414e-14
4.97213e-12
6.41754e-12
4.21002e-12
1.11889e-08
3.71839e-08
3.77525e-08
1.7541e-08
3.0061e-34
5.89253e-35
7.03664e-33
9.61711e-31
6.74697e-29
3.39059e-27
1.35304e-25
4.52422e-24
1.29735e-22
3.47198e-21
8.79452e-20
1.86955e-18
3.06914e-17
3.60395e-16
2.9533e-15
4.57986e-14
2.82576e-12
3.83139e-12
3.90928e-12
2.83014e-09
3.08764e-08
3.67436e-08
5.46931e-09
2.8765e-35
6.72918e-36
1.05108e-33
1.47974e-31
1.09401e-29
5.85137e-28
2.49801e-26
8.92041e-25
2.71627e-23
7.57821e-22
2.01289e-20
4.70911e-19
8.71666e-18
1.16944e-16
1.08517e-15
1.44119e-14
9.22809e-13
1.99078e-12
4.6328e-12
4.97163e-12
5.03431e-09
3.28842e-09
6.75921e-10
2.26666e-36
6.75159e-37
1.37641e-34
1.98989e-32
1.55338e-30
8.8621e-29
4.06962e-27
1.56025e-25
5.1022e-24
1.5001e-22
4.15506e-21
1.05761e-19
2.20731e-18
3.34822e-17
3.55312e-16
3.92772e-15
2.39564e-13
8.40691e-13
1.29896e-11
1.11142e-11
-1.92143e-12
-1.21953e-11
1.79018e-11
1.44246e-37
5.83738e-38
1.53755e-35
2.28672e-33
1.89211e-31
1.15712e-29
5.74957e-28
2.37889e-26
8.43619e-25
2.64583e-23
7.64996e-22
2.09593e-20
4.89631e-19
8.32537e-18
1.02572e-16
1.04715e-15
4.05192e-14
4.01937e-13
1.70459e-11
1.46318e-11
-8.78487e-12
-2.97519e-11
7.09741e-12
7.23317e-39
4.26828e-39
1.42885e-36
2.19772e-34
1.93915e-32
1.28042e-30
6.92507e-29
3.10899e-27
1.20393e-25
4.07089e-24
1.2378e-22
3.6205e-21
9.37237e-20
1.78074e-18
2.51036e-17
2.76796e-16
5.49984e-15
1.71204e-13
1.70459e-11
1.52345e-11
-1.30779e-11
-3.71254e-11
-1.19327e-11
2.75793e-40
2.58555e-40
1.075e-37
1.72504e-35
1.63777e-33
1.17755e-31
6.97614e-30
3.41999e-28
1.45198e-26
5.33356e-25
1.72556e-23
5.36499e-22
1.5253e-20
3.23662e-19
5.08523e-18
6.50392e-17
6.20491e-16
3.86376e-14
1.11273e-11
7.61846e-12
-1.31911e-11
-3.13806e-11
-1.34885e-11
7.56348e-42
1.26776e-41
6.31811e-39
1.07244e-36
1.10958e-34
8.76268e-33
5.73186e-31
3.09124e-29
1.44213e-27
5.78277e-26
2.0158e-24
6.67316e-23
2.06729e-21
4.90518e-20
8.49788e-19
1.17578e-17
6.44373e-17
7.42516e-15
2.19086e-12
1.39213e-12
-1.01707e-11
-2.05515e-11
-1.63454e-11
1.36749e-43
4.84306e-43
2.75231e-40
5.04859e-38
5.78461e-36
5.06623e-34
3.7003e-32
2.21131e-30
1.13695e-28
4.99722e-27
1.89716e-25
6.74694e-24
2.27176e-22
6.02331e-21
1.15489e-19
1.5902e-18
6.69734e-18
1.24614e-15
2.29339e-13
6.55271e-14
-5.85585e-12
-1.05528e-11
-1.28881e-11
1.44323e-45
1.29284e-44
8.18602e-42
1.66893e-39
2.15931e-37
2.13225e-35
1.76401e-33
1.17399e-31
6.7028e-30
3.25051e-28
1.3567e-26
5.28017e-25
1.94581e-23
5.76818e-22
1.23563e-20
1.60026e-19
5.66022e-19
1.76993e-16
1.22309e-14
-4.69431e-14
-2.52801e-12
-4.17344e-12
-5.10295e-12
5.70183e-48
2.10872e-46
1.42715e-43
3.31506e-41
5.01598e-39
5.80077e-37
5.51021e-35
4.10582e-33
2.64729e-31
1.43489e-29
6.69653e-28
2.95251e-26
1.21751e-24
4.0702e-23
9.66602e-22
1.20209e-20
-5.31144e-20
1.93531e-17
-5.31259e-16
-4.81926e-14
-8.45081e-13
-1.27187e-12
-1.62385e-12
2.99486e-51
1.28471e-48
8.02221e-46
2.31889e-43
4.82438e-41
7.37805e-39
8.34775e-37
7.22408e-35
5.42029e-33
3.39125e-31
1.88683e-29
1.01425e-27
4.92207e-26
1.88537e-24
5.02852e-23
3.19556e-22
-1.22089e-19
-8.30131e-19
-8.50979e-16
-2.09525e-14
-2.15345e-13
-2.9454e-13
-4.14921e-13
2.46153e-56
3.27229e-53
3.02573e-50
1.71853e-47
6.56218e-45
1.67299e-42
4.13947e-40
8.09572e-38
1.16802e-35
1.56464e-33
1.73784e-31
1.45997e-29
9.46566e-28
4.28588e-26
1.01886e-24
-1.96476e-22
-7.37258e-20
-2.66888e-18
-3.16648e-16
-5.41876e-15
-3.94861e-14
-4.80941e-14
-7.79626e-14
1.01347e-67
2.47604e-63
8.8872e-60
1.80831e-56
2.42241e-53
2.2657e-50
1.84338e-47
1.13935e-44
4.94378e-42
2.16715e-39
6.49919e-37
1.5598e-34
-1.76432e-32
-2.58064e-28
-2.75428e-25
-1.16999e-22
-2.23702e-20
-1.32105e-18
-6.8776e-17
-8.81081e-16
-4.93005e-15
-4.64385e-15
-6.93337e-15
0
2.6173e-77
2.50457e-73
5.83136e-70
-2.1027e-68
2.3096e-64
-1.80107e-61
-1.14041e-62
-3.71112e-55
-2.86809e-56
-1.24813e-57
-7.23187e-36
-3.59933e-32
-8.55584e-29
-5.58853e-26
-1.76577e-23
-2.80628e-21
-2.13351e-19
-6.87596e-18
-7.89634e-17
-3.64489e-16
-2.07595e-16
-7.81867e-17
1
0.67536
0.397834
0.291376
1
1
0.999995
0.998789
1
0.999995
0.999941
0.998048
0.934804
0.930006
0.926711
0.953558
0.137324
0.176071
0.196784
0.275857
4.17297e-09
6.62161e-09
1.55136e-08
4.22459e-08
1.01025e-09
1.69069e-08
1.8935e-08
2.14273e-08
5.52779e-10
2.84643e-08
2.31562e-08
4.22452e-08
3.93354e-10
3.45026e-10
7.46717e-07
8.92452e-06
3.68918e-10
3.24995e-10
1.16632e-05
6.79503e-05
3.05724e-10
3.14317e-10
4.30598e-05
6.79503e-05
2.9008e-10
3.05724e-10
3.28923e-05
6.79503e-05
2.85949e-10
2.92043e-10
3.12286e-10
5.21918e-05
2.52028e-10
2.81602e-10
1.47103e-07
5.37097e-07
2.53225e-10
1.57825e-09
1.56119e-09
1.49362e-09
4.71277e-10
3.05302e-09
3.08183e-09
1.76e-09
1.39059e-09
1.05202e-09
1.05202e-09
1.60452e-09
2.00883e-09
1.00412e-09
1.09713e-09
2.49819e-09
1.61228e-09
9.81607e-10
9.20775e-08
1.63054e-08
7.43613e-10
7.98764e-10
1.39084e-06
2.45825e-06
5.37031e-10
5.62932e-10
3.68123e-07
1.85857e-05
5.37031e-10
5.37031e-10
4.639e-09
1.85129e-05
5.37031e-10
5.56114e-10
3.2826e-08
9.08519e-06
5.56065e-10
6.79674e-10
8.98812e-08
3.82095e-06
6.88901e-10
5.03413e-07
5.95145e-07
5.26542e-06
1.13314e-09
9.74838e-06
4.8151e-05
7.96404e-05
2.25639e-09
1.59386e-05
0.000181609
0.000236444
3.69189e-09
4.75347e-06
0.000139552
0.00018735
2.69279e-09
2.80439e-07
2.02814e-05
4.51544e-05
1.09285e-09
1.60012e-09
2.39536e-06
4.81939e-06
2.28225e-11
4.97567e-05
7.99717e-06
4.78788e-06
1.4799e-11
0.000177767
4.92629e-05
5.6924e-06
1.14264e-09
0.000178542
0.000135833
9.19616e-06
-2.40137e-29
0.000129723
0.000156258
1.30571e-05
-1.07212e-24
5.99272e-09
8.99092e-05
5.52554e-05
-4.77339e-23
2.29584e-08
2.73268e-06
3.48374e-05
-9.08211e-18
8.5088e-08
5.34296e-06
1.62623e-05
-1.04668e-12
6.30525e-05
3.32379e-05
3.23181e-05
-2.20574e-08
0.000176911
0.00277441
8.15109e-05
-3.14561e-09
0.000301797
0.00603957
0.000765254
-6.77803e-12
-2.69813e-13
6.08297e-05
0.0619979
-2.09468e-17
-3.80424e-18
-2.12738e-18
1.83313e-05
0.164523
0.00630975
0.000303743
2.47967e-05
1.81004e-06
1.20401e-07
7.3669e-09
4.11785e-10
2.37866e-11
1.32064e-12
6.08211e-14
1.79355e-15
5.06582e-17
1.23392e-18
2.38952e-20
3.4735e-22
3.36968e-24
1.41593e-26
1.40706e-27
0.802045
0.182638
0.000734792
5.77916e-05
4.36401e-06
3.08038e-07
1.9985e-08
1.176e-09
6.23111e-11
3.3998e-12
1.73487e-13
6.04822e-15
1.7594e-16
4.40929e-18
8.88104e-20
1.33993e-21
1.34629e-23
6.89302e-26
1.53895e-26
0.995379
0.740346
0.0639075
0.000328378
2.67181e-05
2.03781e-06
1.39629e-07
8.58803e-09
4.71007e-10
2.29816e-11
1.24543e-12
4.57621e-14
1.4168e-15
3.63692e-17
7.44476e-19
1.14125e-20
1.16356e-22
4.78197e-25
7.69288e-26
0.99452
0.955553
0.420279
0.00625414
0.000112112
9.09346e-06
6.62289e-07
4.28332e-08
2.4572e-09
1.24737e-10
6.1055e-12
2.71239e-13
8.66691e-15
2.28474e-16
4.7934e-18
7.52056e-20
7.82963e-22
3.18489e-24
6.18233e-25
0.721712
0.925071
0.705935
0.107215
0.000464684
3.89947e-05
3.00147e-06
2.03582e-07
1.21544e-08
6.36591e-10
2.9173e-11
1.52945e-12
5.05676e-14
1.36263e-15
2.91613e-17
4.6609e-19
4.93162e-21
1.82467e-23
4.32053e-24
0.0504901
0.637729
0.712548
0.320877
0.00260978
0.000104544
8.35391e-06
5.94719e-07
3.70053e-08
2.00731e-09
9.50256e-11
5.16397e-12
1.80337e-13
4.9962e-15
1.09598e-16
1.79295e-18
1.93793e-20
8.25871e-23
2.69922e-23
4.22459e-08
0.0513658
0.598113
0.407667
0.0237434
0.000237864
1.95396e-05
1.44111e-06
9.27423e-08
5.17637e-09
2.51645e-10
1.36628e-11
5.14877e-13
1.46101e-14
3.26825e-16
5.44632e-18
5.98875e-20
2.6601e-22
1.16136e-22
9.01787e-08
3.63323e-07
0.281323
0.383149
0.0622539
0.000361527
3.10359e-05
2.36765e-06
1.57787e-07
9.10035e-09
4.56019e-10
2.49127e-11
1.01528e-12
2.93703e-14
6.73835e-16
1.15937e-17
1.30386e-19
6.53556e-22
3.83736e-22
1.66674e-06
5.56976e-07
0.17852
0.351002
0.0710665
0.000415559
3.73719e-05
2.94907e-06
2.03046e-07
1.20677e-08
6.22593e-10
3.45443e-11
1.49766e-12
6.46214e-14
1.48983e-15
1.86712e-17
2.10855e-19
1.57939e-21
9.46709e-22
2.96733e-05
1.1147e-06
0.173388
0.327299
0.120463
0.000637047
5.76499e-05
4.51361e-06
3.09695e-07
1.83716e-08
9.46494e-10
4.81901e-11
2.24036e-12
7.20467e-14
1.66893e-15
2.82505e-17
3.27674e-19
2.79997e-21
1.79681e-21
5.15451e-05
3.47865e-06
0.124931
0.305661
0.180827
0.00605566
9.04221e-05
7.02415e-06
4.75493e-07
2.82061e-08
1.4486e-09
6.88193e-11
3.44532e-12
1.041e-13
2.43737e-15
4.33324e-17
5.08063e-19
4.75516e-21
2.99566e-21
5.75723e-05
1.64156e-06
0.0712195
0.288595
0.206192
0.0136629
0.000115848
8.87942e-06
6.04892e-07
3.57507e-08
1.85715e-09
9.00152e-11
4.69035e-12
1.63362e-13
6.3527e-15
9.25969e-17
7.07522e-19
7.15382e-21
4.78281e-21
2.58726e-05
7.23939e-08
0.0328112
0.272931
0.202644
0.0152033
0.000114511
8.71941e-06
5.9767e-07
3.59724e-08
1.87733e-09
9.84872e-11
5.24635e-12
3.82378e-13
1.59829e-14
2.61873e-16
2.63307e-18
1.43234e-20
7.15593e-21
1.5094e-09
1.5094e-09
0.0135318
0.25809
0.180855
0.0107291
9.01409e-05
6.74755e-06
4.79962e-07
2.94517e-08
1.57827e-09
9.32724e-11
4.88112e-12
6.56061e-13
2.51986e-14
3.98266e-16
4.58089e-18
2.45717e-20
9.69724e-21
1.5094e-09
1.50059e-09
0.0172048
0.2463
0.154986
0.00530309
6.49831e-05
4.57382e-06
3.35743e-07
2.20698e-08
1.20006e-09
7.52714e-11
3.98405e-12
7.29235e-13
3.07342e-14
5.25276e-16
7.14122e-18
5.02217e-20
1.02231e-20
1.49497e-09
1.5094e-09
0.0393082
0.233232
0.16186
0.00833303
6.80404e-05
4.99719e-06
3.04096e-07
1.87521e-08
1.02035e-09
6.20606e-11
3.18005e-12
5.61424e-13
2.45593e-14
4.73612e-16
6.98657e-18
5.82875e-20
8.61701e-21
1.55741e-09
1.77645e-09
0.0339446
0.223445
0.205063
0.0270781
0.000108734
7.33724e-06
4.50435e-07
2.26039e-08
1.1651e-09
6.18458e-11
3.12268e-12
3.65697e-13
1.56688e-14
3.18578e-16
4.97245e-18
4.50892e-20
7.32707e-21
2.07012e-09
3.85458e-09
2.10827e-08
0.194627
0.206052
0.0641426
0.000183932
1.20051e-05
6.87111e-07
3.56708e-08
1.54802e-09
7.28671e-11
3.62004e-12
2.16115e-13
1.05331e-14
2.27847e-16
3.32017e-18
2.63562e-20
6.0598e-21
6.84615e-09
2.10833e-08
2.23515e-07
0.0646914
0.0996441
0.044212
0.000348441
1.14027e-05
6.77018e-07
3.5138e-08
1.6292e-09
7.7728e-11
3.80902e-12
3.4214e-13
1.42266e-14
2.47729e-16
3.35403e-18
2.53762e-20
4.69631e-21
5.11489e-08
2.23511e-07
0.0143779
0.00726865
0.00547325
0.0047652
0.00122195
1.29266e-05
4.06929e-07
2.28237e-08
1.10153e-09
6.25981e-11
4.41264e-12
7.63813e-13
2.556e-14
3.66512e-16
4.60925e-18
3.50306e-20
3.34156e-21
6.76885e-07
1.98906e-06
0.0485023
0.143501
0.0339697
0.000229795
0.000117636
3.1887e-06
8.27448e-08
1.1085e-08
5.88263e-10
4.19648e-11
9.16778e-12
8.58383e-13
2.296e-14
4.16686e-16
5.81879e-18
4.99544e-20
2.18594e-21
3.08152e-06
4.73642e-06
0.136996
0.149039
0.141045
0.0125535
3.35805e-05
1.8841e-06
1.23507e-07
-2.75821e-10
3.34976e-10
2.39029e-11
5.86434e-12
5.27272e-13
1.67343e-14
3.53559e-16
5.37362e-18
5.01015e-20
1.38027e-21
1.99807e-05
1.31129e-05
0.110024
0.150842
0.151166
0.0749906
0.000488913
7.21534e-06
2.9568e-07
1.33426e-08
-1.70321e-10
2.2649e-11
1.18186e-12
1.3851e-13
6.16683e-15
1.80319e-16
3.40841e-18
3.77682e-20
8.79784e-22
1.69814e-05
1.84398e-05
0.0204498
0.15114
0.151034
0.105171
0.00190974
1.4312e-05
6.36623e-07
2.37582e-08
8.14139e-10
9.90539e-12
1.07663e-12
3.04439e-14
2.10935e-15
6.34208e-17
1.35583e-18
1.78537e-20
6.0286e-22
6.37558e-05
2.01859e-05
2.46094e-05
0.0533955
0.0812286
0.0442242
0.00421092
1.37891e-05
6.222e-07
2.42853e-08
8.28042e-10
2.43492e-11
1.14743e-12
9.41187e-14
2.98349e-15
4.86638e-17
7.16745e-19
7.91288e-21
4.27793e-22
0.000308741
0.000348871
0.000188293
0.00022613
0.000684582
0.000323832
0.00290592
0.000274217
4.09294e-07
1.62324e-08
5.68872e-10
1.91478e-11
2.27892e-12
2.79971e-13
5.53333e-15
6.30174e-17
7.23863e-19
5.79343e-21
3.05665e-22
0.000267114
0.000220291
0.000102639
7.48025e-05
0.000110186
0.000107835
0.000136224
0.000177499
5.7968e-06
8.70887e-09
3.10667e-10
1.45753e-11
5.41201e-12
3.51718e-13
6.07536e-15
8.40713e-17
8.92568e-19
6.31718e-21
2.06477e-22
5.64032e-05
1.54232e-05
3.90495e-05
5.60353e-05
7.48025e-05
7.21894e-05
1.60126e-05
5.94787e-06
2.74946e-06
1.99734e-08
1.45445e-10
1.47278e-11
5.40143e-12
2.87541e-13
5.27018e-15
8.20623e-17
9.40226e-19
6.89141e-21
1.26428e-22
6.28071e-06
8.17067e-06
0.0110969
0.0500281
0.00441441
1.71379e-05
4.38977e-06
5.46387e-07
1.53265e-07
8.63204e-09
7.90205e-11
2.83114e-11
3.9807e-12
1.43012e-13
3.47292e-15
6.37042e-17
8.08581e-19
6.33218e-21
6.90123e-23
4.78985e-06
5.88777e-06
0.0947996
0.14495
0.0551968
0.000334322
2.40924e-06
1.51766e-07
7.75163e-09
8.41913e-10
4.6581e-11
2.44157e-11
2.042e-12
6.57875e-14
1.81564e-15
3.73037e-17
5.27476e-19
4.59751e-21
3.35303e-23
5.6924e-06
0.0197655
0.14495
0.145965
0.135699
0.00634049
8.56869e-06
2.16334e-07
5.77239e-09
1.55884e-10
1.33346e-11
9.67616e-12
7.4111e-13
2.71885e-14
8.0517e-16
1.78726e-17
2.7496e-19
2.62244e-21
1.47902e-23
0.0152612
0.136506
0.145965
0.145596
0.0907357
0.00370126
8.23541e-06
2.03371e-07
4.51439e-09
1.07938e-10
5.9214e-12
3.6336e-12
2.99685e-13
1.02906e-14
3.12041e-16
7.36361e-18
1.21074e-19
1.23771e-21
6.40053e-24
0.0637432
0.145141
0.144965
0.128672
0.0176738
0.00183362
3.09833e-05
5.50377e-07
2.29591e-09
5.38459e-11
3.91687e-12
2.73158e-12
1.76361e-13
4.34142e-15
1.19381e-16
2.80779e-18
4.7743e-20
5.11768e-22
2.7367e-24
0.0223049
0.129684
0.135499
0.0328787
0.00061192
0.000592338
5.0106e-05
4.31922e-07
4.16753e-09
4.26942e-11
1.51539e-11
2.5151e-12
9.81933e-14
2.30584e-15
5.36538e-17
1.12405e-18
1.83618e-20
1.97784e-22
1.11851e-24
5.45531e-05
0.0179949
0.0181189
0.000610106
0.000125649
1.61695e-05
1.83948e-05
4.25549e-07
2.75092e-09
7.85756e-11
2.10008e-11
1.85981e-12
5.9535e-14
1.41758e-15
2.9314e-17
5.24774e-19
7.62559e-21
7.73109e-23
4.42705e-25
3.39154e-05
0.000231975
0.00054818
0.00011352
2.08076e-05
3.09004e-06
2.1875e-07
1.73436e-07
2.31322e-09
9.84386e-11
1.62556e-11
1.02347e-12
3.39499e-14
8.62117e-16
1.73203e-17
2.8069e-19
3.5988e-21
3.27672e-23
1.75779e-25
2.19416e-05
5.17933e-05
0.000111558
2.14093e-05
3.85309e-06
6.40643e-07
3.44141e-08
9.94792e-09
1.1466e-09
8.42371e-11
8.18879e-12
4.45676e-13
1.65615e-14
4.60872e-16
9.64285e-18
1.53535e-19
1.83714e-21
1.5201e-23
7.202e-26
3.01861e-05
3.84976e-05
2.31355e-05
3.80998e-06
6.68561e-07
1.3035e-07
8.03431e-09
1.31459e-09
4.55946e-10
4.65877e-11
3.27676e-12
1.71051e-13
6.89677e-15
2.08107e-16
4.67085e-18
7.73362e-20
9.20781e-22
7.27671e-24
3.05546e-26
3.84976e-05
2.26195e-05
3.81848e-06
5.81038e-07
1.12891e-07
2.60848e-08
2.10055e-09
6.23277e-10
1.75426e-10
1.85684e-11
1.19292e-12
6.23721e-14
2.59686e-15
8.23748e-17
1.963e-18
3.43382e-20
4.22605e-22
3.3434e-24
1.33992e-26
0.0135857
0.02708
0.000624064
9.42718e-08
2.19637e-08
5.14781e-09
5.95614e-10
3.01546e-10
6.26188e-11
6.31535e-12
4.13385e-13
2.18558e-14
9.21817e-16
3.00696e-17
7.44277e-19
1.35905e-20
1.73947e-22
1.41026e-24
3.83669e-27
0.0649347
0.0649347
0.00549454
2.35891e-08
8.72622e-09
1.05921e-09
1.89337e-10
1.1073e-10
2.09226e-11
2.14854e-12
1.44263e-13
7.68048e-15
3.2733e-16
1.08718e-17
2.75454e-19
5.16873e-21
6.81034e-23
5.65999e-25
2.54398e-27
0.0617286
0.0437068
8.75701e-08
7.32385e-08
1.50663e-07
2.54297e-10
4.24766e-11
2.00956e-11
4.13139e-12
4.43056e-13
2.9524e-14
1.56655e-15
6.72836e-17
2.26671e-18
5.85192e-20
1.12236e-21
1.51384e-23
1.27719e-25
2.54398e-27
)
;

boundaryField
{
    leftWall
    {
        type            zeroGradient;
    }
    rightWall
    {
        type            zeroGradient;
    }
    lowerWall
    {
        type            zeroGradient;
    }
    atmosphere
    {
        type            inletOutlet;
        inletValue      uniform 0;
        value           nonuniform List<scalar> 
46
(
0
0
0
0
0
0
0
0
0
0
0
0
0
0
0
0
0
0
0
0
0
0
0
0
0
0
0
0.0617286
0.0437068
8.75701e-08
7.32385e-08
1.50663e-07
2.54297e-10
4.24766e-11
2.00956e-11
4.13139e-12
4.43056e-13
2.9524e-14
1.56655e-15
6.72836e-17
2.26671e-18
5.85192e-20
1.12236e-21
1.51384e-23
1.27719e-25
2.54398e-27
)
;
    }
    defaultFaces
    {
        type            empty;
    }
}


// ************************************************************************* //
