/*--------------------------------*- C++ -*----------------------------------*\
| =========                 |                                                 |
| \\      /  F ield         | OpenFOAM: The Open Source CFD Toolbox           |
|  \\    /   O peration     | Version:  2206                                  |
|   \\  /    A nd           | Website:  www.openfoam.com                      |
|    \\/     M anipulation  |                                                 |
\*---------------------------------------------------------------------------*/
FoamFile
{
    version     2.0;
    format      ascii;
    arch        "LSB;label=32;scalar=64";
    class       volScalarField;
    location    "0.375";
    object      p_rgh;
}
// * * * * * * * * * * * * * * * * * * * * * * * * * * * * * * * * * * * * * //

dimensions      [1 -1 -2 0 0 0 0];

internalField   nonuniform List<scalar> 
2268
(
1503.77
1504.45
1505.66
1507.23
1509.14
1511.59
1514.61
1518.15
1522.16
1526.56
1531.26
1536.16
1541.15
1546.12
1550.92
1555.42
1559.47
1562.92
1565.61
1567.89
1568.44
1566.12
1552.77
1500.65
1501.34
1502.79
1504.57
1506.72
1509.41
1512.67
1516.45
1520.72
1525.39
1530.39
1535.66
1541.05
1546.45
1551.76
1556.83
1561.55
1565.78
1569.44
1572.43
1574.95
1576.72
1551.34
1494.15
1495.05
1497.02
1499.24
1501.88
1505.03
1508.75
1513.05
1517.89
1523.21
1528.93
1534.91
1541.06
1547.26
1553.4
1559.33
1564.95
1570.14
1574.84
1578.88
1582.67
1584.6
1564.49
1484.23
1485.03
1488.49
1491.2
1494.43
1498.18
1502.54
1507.55
1513.19
1519.43
1526.17
1533.3
1540.69
1548.2
1555.67
1562.94
1569.86
1576.27
1582.06
1586.98
1591.43
1593.51
1595.63
1471.54
1472.09
1476.01
1479.74
1483.81
1488.33
1493.49
1499.43
1506.18
1513.69
1521.84
1530.49
1539.59
1548.91
1558.26
1567.42
1576.17
1584.28
1591.56
1597.68
1602.77
1605.62
1608.13
1456.22
1455.53
1459.86
1465.04
1470
1475.14
1481.03
1487.93
1495.93
1505.04
1515.18
1526.18
1537.65
1549.35
1561.15
1572.82
1584.04
1594.49
1603.86
1611.75
1618.07
1622.11
1624.6
1440.51
1436.65
1439.07
1445.18
1450.79
1456.68
1463.69
1471.95
1481.52
1492.42
1504.39
1517.37
1531.69
1546.95
1562.73
1578.45
1593.59
1607.65
1620.09
1630.49
1638.61
1643.47
1645.54
1356.05
1222.55
1193.53
1222.54
1252.91
1284.02
1319.62
1358.21
1398.62
1439.17
1476.78
1506.94
1528.24
1546.87
1566.19
1585.82
1605.42
1623.81
1640.1
1653.86
1664.33
1672.68
1664.72
4.57912
4.57051
4.55078
4.52081
4.48225
4.43728
4.38836
4.33774
4.28731
4.23845
4.19221
4.14952
4.11112
4.07752
4.04909
4.02606
4.00864
3.99698
3.99116
4.58728
4.5795
4.55973
4.52867
4.48823
4.4411
4.39005
4.33739
4.28507
4.2347
4.18738
4.14387
4.10481
4.0707
4.04188
4.0186
4.00101
3.98924
3.98336
4.60342
4.59812
4.57829
4.54478
4.50022
4.44847
4.39306
4.33654
4.28093
4.22774
4.17805
4.13261
4.09198
4.05663
4.02688
4.00291
3.98485
3.97276
3.96671
4.62682
4.62689
4.60771
4.5699
4.51799
4.45864
4.39639
4.33401
4.27342
4.21607
4.16299
4.11484
4.07203
4.03495
4.00386
3.9789
3.96012
3.94756
3.94128
4.6467
4.65947
4.64857
4.60523
4.54073
4.46998
4.39836
4.32808
4.26104
4.19844
4.14112
4.08959
4.04412
4.00492
3.97218
3.94601
3.92637
3.91327
3.90673
4.60448
4.7
4.70919
4.65067
4.56545
4.47932
4.39623
4.31657
4.24181
4.1731
4.11094
4.05557
4.00708
3.96555
3.93103
3.90355
3.88302
3.86936
3.86254
4.71196
4.78661
4.83635
4.69404
4.57918
4.48032
4.38571
4.29584
4.21284
4.13766
4.07042
4.01109
3.95957
3.91573
3.8795
3.85078
3.82942
3.81523
3.80816
4.68766
5.40286
5.47933
4.69095
4.55841
4.46312
4.36195
4.26199
4.17094
4.08954
4.01746
3.95446
3.90021
3.85437
3.8167
3.78697
3.76493
3.75032
3.74304
209.271
87.9127
83.4886
105.808
117.507
140.767
182.077
240.987
321.604
434.798
595.671
818.962
1081.85
1367.55
1562.66
1589.92
1617.46
1640.23
1659.09
1674.83
1683.08
1681.95
1639
0.478294
0.480114
0.488034
0.490631
0.491964
0.491131
0.490757
0.493471
0.502656
0.524243
0.507269
0.537886
36.2402
146.208
402.946
861.711
1431.29
1657.59
1679.4
1698.48
1709.41
1712.05
1701.48
0.472052
0.476857
0.482209
0.477142
0.4752
0.472805
0.47044
0.468382
0.465305
0.457743
0.456729
0.473637
0.501037
0.432345
0.53873
56.9588
229.495
570.32
1056.01
1625.54
1748.2
1758.22
1765.9
0.453977
0.454293
0.458165
0.455486
0.45327
0.450414
0.446946
0.442694
0.436812
0.427897
0.412279
0.385177
0.337851
0.327887
0.216047
0.160876
0.162252
11.9195
118.357
350.276
688.277
1056.34
1511.42
0.430173
0.43124
0.435408
0.434182
0.431889
0.42832
0.423596
0.417463
0.409128
0.397458
0.381462
0.361653
0.328377
0.2726
0.172097
0.0352273
0.0178064
-0.139001
-0.216451
-0.20498
27.1895
89.4797
171.385
0.408707
0.409943
0.413691
0.413106
0.410574
0.406395
0.400679
0.393148
0.383026
0.369158
0.349989
0.322941
0.283604
0.23867
0.174505
0.093777
0.00828796
-0.131322
-0.264502
-0.334802
-0.448396
-0.451031
-0.486186
0.387682
0.388866
0.392349
0.392124
0.38941
0.384779
0.378399
0.370002
0.358873
0.343952
0.32392
0.297203
0.262272
0.21873
0.162342
0.0913891
0.0167209
-0.0672204
-0.150261
-0.242554
-0.362308
-0.432309
-0.457157
0.367403
0.368461
0.371361
0.371283
0.368471
0.363575
0.356852
0.348071
0.336592
0.321506
0.301762
0.276273
0.244041
0.204267
0.155636
0.097824
0.0342244
-0.0331449
-0.104536
-0.176274
-0.252555
-0.314459
-0.3645
0.347284
0.3483
0.350622
0.350523
0.347686
0.342717
0.335936
0.327158
0.315813
0.301123
0.282248
0.2584
0.228917
0.193289
0.151092
0.102285
0.0479805
-0.0102014
-0.0714318
-0.134626
-0.200114
-0.26121
-0.312566
0.326882
0.327972
0.329919
0.329721
0.326914
0.322042
0.315436
0.30695
0.296078
0.28214
0.264454
0.242446
0.215714
0.184032
0.147339
0.105821
0.0601075
0.0111808
-0.040224
-0.0935275
-0.147392
-0.19819
-0.242893
0.306094
0.307257
0.309021
0.308722
0.305988
0.301345
0.295091
0.2871
0.276919
0.263954
0.247638
0.227565
0.203533
0.175534
0.14369
0.108239
0.0695733
0.0282569
-0.0150994
-0.0597708
-0.104529
-0.14735
-0.185915
0.284893
0.286105
0.287755
0.287364
0.284735
0.280406
0.274625
0.267263
0.257911
0.246046
0.231201
0.213101
0.191704
0.167154
0.139674
0.109481
0.0768028
0.0419666
0.0054973
-0.0317994
-0.0687627
-0.104023
-0.136163
0.263293
0.264532
0.266017
0.265509
0.262994
0.259019
0.253775
0.247116
0.23867
0.227972
0.21464
0.198507
0.179656
0.158346
0.134856
0.109364
0.081958
0.0527862
0.0222379
-0.00892533
-0.0395478
-0.0683785
-0.0945837
0.241304
0.242556
0.243751
0.243052
0.240624
0.236997
0.232301
0.226371
0.218861
0.209353
0.197532
0.183316
0.166887
0.148583
0.128714
0.10742
0.0846925
0.0605623
0.0353042
0.00954707
-0.0157135
-0.039251
-0.0601249
0.218914
0.220164
0.220913
0.219911
0.217508
0.21418
0.209996
0.204779
0.1982
0.189875
0.179533
0.167155
0.152991
0.137429
0.12078
0.10314
0.0844467
0.0646978
0.0441371
0.0232797
0.00288999
-0.0159818
-0.0321501
0.196075
0.197302
0.197448
0.196019
0.193554
0.190437
0.186688
0.182129
0.176442
0.169261
0.160336
0.149687
0.137614
0.124528
0.110714
0.096195
0.0808604
0.0647439
0.0481685
0.0316241
0.0157054
0.00128426
-0.0103514
0.172711
0.173875
0.173277
0.17131
0.168683
0.165665
0.162241
0.158247
0.153376
0.147257
0.139635
0.130548
0.120336
0.109441
0.0981087
0.086265
0.0737188
0.0605454
0.0472227
0.0343408
0.0224172
0.0122156
0.00501505
0.14872
0.149759
0.148303
0.145715
0.142825
0.139781
0.136553
0.133007
0.128845
0.123664
0.117171
0.109392
0.100704
0.0916048
0.0823477
0.0727757
0.0625813
0.0518311
0.0411555
0.0313359
0.022901
0.0165018
0.0132411
0.123977
0.124817
0.12243
0.119173
0.115928
0.112726
0.109554
0.106322
0.102739
0.0983529
0.0927874
0.0860111
0.0784145
0.0705736
0.0628252
0.0550156
0.046741
0.0379913
0.0294737
0.022153
0.0166316
0.0133938
0.0131974
0.0983484
0.0989134
0.0955794
0.0916434
0.0879634
0.0844731
0.0812037
0.0781315
0.0749762
0.0712259
0.0663906
0.0603267
0.0533841
0.0462088
0.0392781
0.0325521
0.0256204
0.0183777
0.0115023
0.0060306
0.00263819
0.00161135
0.00336766
0.0717012
0.0719291
0.0676941
0.0631073
0.058935
0.0550339
0.0515028
0.0484002
0.045475
0.0421677
0.0378663
0.032273
0.0256295
0.0185987
0.011805
0.00539943
-0.000930515
-0.00734766
-0.0132972
-0.017824
-0.0202403
-0.0204521
-0.0184316
0.0439168
0.0437675
0.0387425
0.0335752
0.0288886
0.0244775
0.0205171
0.0171568
0.0141972
0.0110636
0.00704809
0.00169169
-0.00492116
-0.0121886
-0.0193938
-0.0261926
-0.0327447
-0.0392272
-0.045281
-0.0501698
-0.05328
-0.0546545
-0.0549729
0.0149066
0.0143652
0.00871163
0.00307485
-0.00209987
-0.00708088
-0.0116207
-0.0154845
-0.0188024
-0.0221233
-0.0261977
-0.0316119
-0.0384498
-0.0462365
-0.0542581
-0.0620508
-0.0696505
-0.0772571
-0.0847642
-0.0917748
-0.0978791
-0.103285
-0.109749
-0.0153715
-0.0162978
-0.022391
-0.0283538
-0.0339416
-0.0395004
-0.0447266
-0.0493183
-0.0533352
-0.057266
-0.0618422
-0.0677133
-0.0751003
-0.083687
-0.0928671
-0.102178
-0.111643
-0.121553
-0.132104
-0.143358
-0.155332
-0.168634
-0.186679
-0.0468897
-0.0481807
-0.0545262
-0.060654
-0.0665463
-0.0726414
-0.0786001
-0.0840842
-0.0890996
-0.0940581
-0.0996206
-0.106428
-0.11478
-0.124516
-0.13522
-0.146564
-0.158727
-0.172179
-0.187474
-0.205237
-0.226131
-0.25154
-0.287831
-0.0795385
-0.0811709
-0.0876099
-0.0937512
-0.0998318
-0.106389
-0.113062
-0.119517
-0.125739
-0.132065
-0.139054
-0.147281
-0.157058
-0.168355
-0.180989
-0.194887
-0.21053
-0.228664
-0.250227
-0.276437
-0.308565
-0.34896
-0.408443
-0.11313
-0.11509
-0.121501
-0.127545
-0.133715
-0.140646
-0.147962
-0.15538
-0.162901
-0.170803
-0.179541
-0.189584
-0.201207
-0.214476
-0.229439
-0.246354
-0.266053
-0.289653
-0.318375
-0.353931
-0.397907
-0.453262
-0.535391
-0.147416
-0.149714
-0.156005
-0.161901
-0.168095
-0.175312
-0.18317
-0.191473
-0.200272
-0.209813
-0.220458
-0.232561
-0.246331
-0.261899
-0.279511
-0.299758
-0.32378
-0.353094
-0.388933
-0.43336
-0.488034
-0.555362
-0.654541
-0.182137
-0.184806
-0.190901
-0.196655
-0.202838
-0.210263
-0.21855
-0.227617
-0.237588
-0.248698
-0.261238
-0.275458
-0.291501
-0.309529
-0.329953
-0.353629
-0.381939
-0.416666
-0.458817
-0.510876
-0.57395
-0.650035
-0.761173
-0.217061
-0.220161
-0.225976
-0.231631
-0.237786
-0.24535
-0.253961
-0.263659
-0.274643
-0.287156
-0.301441
-0.317659
-0.335897
-0.356332
-0.379492
-0.406408
-0.438639
-0.477921
-0.525146
-0.582928
-0.652048
-0.735012
-0.856044
-0.252004
-0.255604
-0.261048
-0.266656
-0.272773
-0.280421
-0.289271
-0.299472
-0.311297
-0.325001
-0.340791
-0.358759
-0.378941
-0.40152
-0.427082
-0.456755
-0.492145
-0.5346
-0.585233
-0.645737
-0.71749
-0.803868
-0.927946
-0.286789
-0.290938
-0.295928
-0.30153
-0.307606
-0.315298
-0.324325
-0.334924
-0.34743
-0.362109
-0.379137
-0.398548
-0.420332
-0.444663
-0.472123
-0.503879
-0.541393
-0.585466
-0.63751
-0.697074
-0.767076
-0.849349
-0.959037
-0.321174
-0.325886
-0.330353
-0.335979
-0.342016
-0.349731
-0.358896
-0.369817
-0.382871
-0.398334
-0.416349
-0.436906
-0.459942
-0.485608
-0.514443
-0.547586
-0.586229
-0.630701
-0.682416
-0.7387
-0.803664
-0.875583
-0.959003
-0.354869
-0.360113
-0.36401
-0.369681
-0.375696
-0.383432
-0.392725
-0.40392
-0.417426
-0.43352
-0.452319
-0.473768
-0.497755
-0.524388
-0.554161
-0.588112
-0.627181
-0.671398
-0.721799
-0.774636
-0.833895
-0.895728
-0.959656
-0.387672
-0.393387
-0.396705
-0.402431
-0.408465
-0.416247
-0.425688
-0.437149
-0.451052
-0.467674
-0.487104
-0.509244
-0.533938
-0.561243
-0.591614
-0.625954
-0.665054
-0.708874
-0.757807
-0.808632
-0.863576
-0.917878
-0.975258
-0.419521
-0.425631
-0.428414
-0.434203
-0.440323
-0.448202
-0.45784
-0.469595
-0.483885
-0.500975
-0.520927
-0.543603
-0.568811
-0.596554
-0.62724
-0.661625
-0.700423
-0.743775
-0.791544
-0.843008
-0.897524
-0.950672
-1.01427
-0.450239
-0.456708
-0.459066
-0.46492
-0.471202
-0.479246
-0.489149
-0.501255
-0.515959
-0.533507
-0.553929
-0.57705
-0.602641
-0.630657
-0.661423
-0.695542
-0.733616
-0.775955
-0.822237
-0.875024
-0.931686
-0.995641
-1.08869
-0.47924
-0.486109
-0.488213
-0.494125
-0.500666
-0.508973
-0.519237
-0.531783
-0.546972
-0.56502
-0.585923
-0.609469
-0.635394
-0.663605
-0.694349
-0.728125
-0.765405
-0.806384
-0.85055
-0.900842
-0.953318
-1.02084
-1.138
-0.505312
-0.512553
-0.514632
-0.520608
-0.52754
-0.536256
-0.547005
-0.560084
-0.575804
-0.594341
-0.615659
-0.639536
-0.665706
-0.694086
-0.724918
-0.758692
-0.795819
-0.836288
-0.879315
-0.924854
-0.967088
-1.01146
-1.0879
-0.52725
-0.534483
-0.536926
-0.543033
-0.550475
-0.559731
-0.571036
-0.584637
-0.600773
-0.619578
-0.641029
-0.664974
-0.691261
-0.719903
-0.751174
-0.785524
-0.823311
-0.864492
-0.908405
-0.953285
-0.994259
-1.02429
-1.05468
-0.548216
-0.555202
-0.558556
-0.564949
-0.572975
-0.58285
-0.594743
-0.608828
-0.62527
-0.644202
-0.6657
-0.689804
-0.716564
-0.746107
-0.778674
-0.814568
-0.85405
-0.897259
-0.944152
-0.994226
-1.04699
-1.09966
-1.163
-0.575009
-0.583851
-0.587908
-0.59473
-0.603368
-0.613952
-0.626566
-0.641305
-0.658296
-0.67771
-0.699771
-0.724737
-0.75286
-0.784361
-0.819423
-0.85825
-0.901142
-0.948571
-1.00126
-1.06039
-1.12847
-1.211
-1.32507
1527.16
1080.04
679.616
515.408
1661.25
1638
1634.58
1619.67
1760.29
1742.73
1728.31
1707.47
1725.1
1713.37
1700.52
1737.4
266.105
341.265
381.243
535.328
-0.58219
-0.690819
-0.863279
-0.977407
-0.532577
-0.671256
-0.803806
-0.855719
-0.429774
-0.51144
-0.587286
-0.633832
-0.362566
-0.415304
-0.459804
-0.460679
-0.285911
-0.327025
-0.330306
-0.206884
-0.221817
-0.252425
-0.164228
-0.104047
-0.165815
-0.189016
-0.116727
-0.0230593
-0.118909
-0.136967
-0.145183
-0.000103219
-0.0791664
-0.0928888
-0.0977956
-0.0936187
-0.0459853
-0.0546422
-0.0567284
-0.0511545
-0.0188469
-0.0216191
-0.0173912
-0.00586566
0.00182916
0.00502241
0.0173736
0.037705
0.0144914
0.0222863
0.0398846
0.0680626
0.0173739
0.0271233
0.045776
0.0762295
0.00879053
0.0190053
0.0405538
0.0692603
-0.0140666
-0.00418703
0.0116122
0.104783
-0.0551062
-0.0508851
-0.0426221
0.0597291
-0.119787
-0.130038
-0.127763
-0.0647404
-0.215499
-0.249924
-0.263154
-0.225548
-0.346305
-0.415044
-0.454806
-0.42034
-0.504601
-0.581713
-0.509069
-0.400737
-0.669271
-0.768303
-0.218138
-0.0513644
-0.818387
-0.998696
-0.589781
-0.452448
-0.947721
-1.16473
-1.22372
-1.15178
-1.06333
-1.29374
-1.39137
-1.36341
-1.14761
-1.17321
-1.46716
-1.40123
-1.1586
-0.579546
-1.38832
-1.72604
-1.09439
-0.383716
-0.728314
-1.53939
-1.02643
-0.395526
-0.23123
-1.01532
-1.00913
-0.962967
-0.430412
-0.666269
-1.04383
-1.07117
-1.07568
-0.926807
-1.16446
-1.38024
-1.51355
-1.37047
-1.28852
-1.41162
-1.86064
-1.52977
-1.15271
-0.652966
12.7276
-0.909552
-0.911342
0.865268
33.3504
4.03548
-1.06712
-1.06536
0.480649
349.672
-1.44213
-2.044
-3.57751
-3.87542
242.202
14.3299
5.18377
4.63546
4.5292
4.44038
4.33052
4.22192
4.12473
4.03892
3.96376
3.89857
3.84279
3.7959
3.75751
3.72732
3.70497
3.69016
3.68276
1249.31
291.785
5.7987
4.75114
4.54959
4.42739
4.30248
4.18654
4.08484
3.99599
3.91897
3.85263
3.7961
3.74873
3.71005
3.67968
3.65722
3.64233
3.63486
1672.15
1228.71
110.557
5.26931
4.61795
4.40918
4.26829
4.14391
4.03782
3.94654
3.86827
3.80133
3.74447
3.69694
3.65822
3.62784
3.60539
3.59048
3.583
1794.3
1699.34
747.625
15.8806
4.86312
4.40016
4.21994
4.09181
3.98262
3.88979
3.81112
3.74429
3.68763
3.64035
3.60188
3.5717
3.54939
3.53456
3.52713
1398.96
1752.51
1320.72
205.727
5.54721
4.44148
4.15467
4.02545
3.91801
3.825
3.74705
3.68118
3.62535
3.57877
3.54088
3.51114
3.48913
3.47451
3.46718
102.447
1286.54
1410.9
640.496
9.68324
4.56413
4.09166
3.94346
3.84253
3.75176
3.67577
3.61183
3.55753
3.51213
3.47515
3.44609
3.42458
3.41029
3.40314
-0.770036
109.122
1249.11
850.974
53.232
4.65581
4.01462
3.84524
3.75472
3.66982
3.59725
3.53621
3.48414
3.44043
3.40471
3.3766
3.35578
3.34196
3.33506
-0.683067
-0.638408
617.624
841.382
140.193
4.7342
3.92435
3.73809
3.65643
3.57952
3.5117
3.45444
3.40529
3.36375
3.32965
3.30276
3.28283
3.2696
3.26302
-0.483844
-0.529796
409.898
810.112
167.095
4.82012
3.8407
3.6266
3.5494
3.48139
3.41945
3.36676
3.32115
3.28225
3.25013
3.22471
3.20585
3.19334
3.18712
-0.307541
-0.3996
416.139
789.835
292.967
5.37899
3.78512
3.50703
3.43415
3.3759
3.32091
3.27351
3.23199
3.19615
3.16635
3.14267
3.12505
3.11334
3.10752
-0.147133
-0.282116
312.742
769.316
455.482
18.6658
3.6768
3.37007
3.30914
3.26334
3.21667
3.17516
3.13815
3.10573
3.07855
3.05684
3.04063
3.02981
3.02443
-0.0389104
-0.177618
185.681
755.643
539.395
38.4908
3.4999
3.22032
3.17724
3.14517
3.10765
3.07236
3.04008
3.01131
2.98699
2.96747
2.95282
2.94299
2.93807
-0.0549889
-0.0821095
89.3063
742.484
550.83
43.9677
3.3299
3.07576
3.04591
3.02448
2.99518
2.96585
2.93827
2.91327
2.89195
2.8748
2.86185
2.8531
2.8487
-0.0904786
-0.0517918
38.2919
727.763
510.342
32.9644
3.18395
2.94858
2.91897
2.90375
2.88043
2.85632
2.83323
2.81199
2.79376
2.77907
2.76795
2.76038
2.75656
-0.0556587
-0.0817003
49.6399
717.981
452.764
18.1085
3.06445
2.83312
2.79598
2.78338
2.76386
2.74425
2.72541
2.70787
2.69274
2.68058
2.67137
2.66507
2.66189
0.0127278
-0.0583877
118.009
702.368
488.372
27.5952
2.98483
2.71953
2.67381
2.66191
2.64534
2.62987
2.6151
2.60124
2.58923
2.57961
2.57238
2.56743
2.56494
0.0925071
0.0941721
106.901
695.794
638.509
86.5604
2.96379
2.59356
2.54749
2.53729
2.52448
2.51324
2.50254
2.49241
2.48354
2.47649
2.47127
2.46772
2.46595
0.131426
0.161876
0.200988
627.391
665.485
209.137
3.0877
2.46202
2.41834
2.4092
2.40104
2.39443
2.38793
2.38162
2.37596
2.37152
2.36834
2.36622
2.3652
0.125869
0.233252
0.397459
216.838
336.273
150.062
3.51256
2.32452
2.28642
2.27822
2.27545
2.2736
2.2715
2.26914
2.2668
2.26501
2.2639
2.26323
2.26296
0.0965575
0.256956
49.4638
25.2521
20.2496
18.1398
6.24134
2.18365
2.14349
2.14469
2.14801
2.15097
2.15352
2.15524
2.15632
2.15728
2.15825
2.15903
2.15951
0.0699034
0.198881
171.1
500.443
120.414
2.55158
2.35841
2.00674
1.99763
2.01005
2.01865
2.02687
2.03432
2.04023
2.04484
2.04862
2.05171
2.05394
2.05515
0.0342441
0.0949923
496.745
539.072
511.261
47.0624
2.09082
1.89181
1.85785
1.87397
1.88756
1.90175
1.91433
1.92452
1.93271
1.93935
1.94458
1.94824
1.95016
0.0563885
0.124539
411.394
564.185
564.643
281.193
3.75795
1.77
1.71258
1.73401
1.75478
1.77606
1.79408
1.80862
1.82038
1.82984
1.83717
1.84223
1.84485
-0.068403
0.0264482
78.9611
582.503
582.075
405.459
8.90241
1.56449
1.5527
1.58754
1.62022
1.6502
1.67415
1.69314
1.70836
1.72051
1.72984
1.73623
1.73949
-0.0869136
-0.10935
0.00596255
212.031
323.667
176.266
17.4822
1.30784
1.37713
1.43518
1.48505
1.52482
1.55511
1.57863
1.59718
1.61183
1.62297
1.63056
1.6344
0.607973
1.04214
0.562416
0.755276
2.90692
1.51302
12.2066
2.12621
1.19803
1.28486
1.35184
1.40103
1.43761
1.46556
1.48729
1.5042
1.51693
1.52555
1.52988
0.161635
0.354949
0.269544
0.29354
0.636501
0.696838
0.990923
1.56304
1.05589
1.14427
1.22356
1.28036
1.32241
1.3544
1.37903
1.39796
1.41204
1.42151
1.42624
-0.890122
-0.614773
0.0284696
0.258226
0.59087
0.686794
0.571972
0.765817
0.91869
1.01952
1.10298
1.16431
1.21031
1.24557
1.2727
1.29336
1.30857
1.31872
1.32373
-1.20869
-0.762079
47.5537
214.988
19.5011
0.615501
0.571431
0.688345
0.808352
0.908499
0.990654
1.05361
1.10193
1.1395
1.16856
1.19061
1.20672
1.21737
1.2226
-1.25319
-0.82626
420.163
643.961
245.701
2.15911
0.556707
0.617822
0.713349
0.804948
0.884875
0.948072
0.997537
1.0365
1.06684
1.08987
1.10663
1.11763
1.123
-1.3592
88.2559
658.506
665.549
618.304
29.43
0.481141
0.530302
0.616166
0.705094
0.783993
0.84718
0.89715
0.936738
0.967708
0.99127
1.0084
1.0196
1.02504
68.7965
631.41
678.182
678.37
422.674
17.1613
0.289164
0.41341
0.513683
0.608234
0.687423
0.750675
0.800715
0.840296
0.871282
0.894914
0.912121
0.92334
0.928763
300.831
689.578
690.258
612.554
83.727
8.28104
0.254079
0.290592
0.414319
0.515828
0.59552
0.658608
0.708192
0.747172
0.777606
0.800853
0.817814
0.828859
0.83418
107.898
632.337
660.395
159.653
2.34798
2.47022
0.251435
0.189815
0.327736
0.430382
0.509333
0.571265
0.61959
0.657322
0.686661
0.709085
0.725471
0.736135
0.741254
-0.795807
88.4876
89.3508
2.25573
0.000440711
-0.284212
0.0301411
0.119511
0.254827
0.353741
0.429743
0.488935
0.534934
0.570676
0.598374
0.619547
0.635033
0.6451
0.649914
-1.04415
-0.0606079
1.76077
-0.168978
-0.492731
-0.332965
-0.09691
0.0699501
0.194128
0.286254
0.35691
0.411689
0.454183
0.487126
0.512624
0.532123
0.546391
0.555645
0.560052
-1.27015
-0.984824
-0.476127
-0.635655
-0.524709
-0.314494
-0.110678
0.0344663
0.144483
0.227162
0.29041
0.339286
0.377151
0.406502
0.42924
0.446648
0.459386
0.467623
0.471524
-1.37429
-1.13818
-0.937215
-0.68275
-0.483632
-0.278957
-0.11084
0.0112136
0.104507
0.175366
0.229521
0.271237
0.303513
0.328553
0.348002
0.362915
0.373829
0.380858
0.384165
-1.5929
-1.38985
-1.03812
-0.66523
-0.427056
-0.237568
-0.10073
-0.00226793
0.0726501
0.129728
0.173355
0.206871
0.232779
0.252907
0.268591
0.280644
0.289464
0.295117
0.297755
71.253
145.088
2.32139
-0.617315
-0.359448
-0.185032
-0.0814022
-0.00784862
0.0472983
0.0891022
0.121049
0.145551
0.164489
0.179227
0.190749
0.199623
0.206115
0.210253
0.212162
336.84
336.65
30.0523
-0.467198
-0.240159
-0.112939
-0.0524034
-0.0069254
0.0267662
0.0520775
0.0714264
0.08627
0.0977653
0.106738
0.113783
0.119226
0.123209
0.125731
0.126882
307.327
190.706
-1.94201
-0.511271
-0.143897
-0.0392328
-0.0248274
-0.00449229
0.00789019
0.0169326
0.0237458
0.0289215
0.0329096
0.0360119
0.0384445
0.0403218
0.0416899
0.0425388
0.0428957
)
;

boundaryField
{
    leftWall
    {
        type            fixedFluxPressure;
        gradient        uniform 0;
        value           nonuniform List<scalar> 
50
(
1503.77
1500.65
1494.15
1484.23
1471.54
1456.22
1440.51
1356.05
209.271
0.478294
0.472052
0.453977
0.430173
0.408707
0.387682
0.367403
0.347284
0.326882
0.306094
0.284893
0.263293
0.241304
0.218914
0.196075
0.172711
0.14872
0.123977
0.0983484
0.0717012
0.0439168
0.0149066
-0.0153715
-0.0468897
-0.0795385
-0.11313
-0.147416
-0.182137
-0.217061
-0.252004
-0.286789
-0.321174
-0.354869
-0.387672
-0.419521
-0.450239
-0.47924
-0.505312
-0.52725
-0.548216
-0.575009
)
;
    }
    rightWall
    {
        type            fixedFluxPressure;
        gradient        uniform 0;
        value           nonuniform List<scalar> 
50
(
3.99116
3.98336
3.96671
3.94128
3.90673
3.86254
3.80816
3.74304
3.68276
3.63486
3.583
3.52713
3.46718
3.40314
3.33506
3.26302
3.18712
3.10752
3.02443
2.93807
2.8487
2.75656
2.66189
2.56494
2.46595
2.3652
2.26296
2.15951
2.05515
1.95016
1.84485
1.73949
1.6344
1.52988
1.42624
1.32373
1.2226
1.123
1.02504
0.928763
0.83418
0.741254
0.649914
0.560052
0.471524
0.384165
0.297755
0.212162
0.126882
0.0428957
)
;
    }
    lowerWall
    {
        type            fixedFluxPressure;
        gradient        uniform 0;
        value           nonuniform List<scalar> 
62
(
1503.77
1504.45
1505.66
1507.23
1509.14
1511.59
1514.61
1518.15
1522.16
1526.56
1531.26
1536.16
1541.15
1546.12
1550.92
1555.42
1559.47
1562.92
1565.61
1567.89
1568.44
1566.12
1552.77
1552.77
1551.34
1564.49
1595.63
1608.13
1624.6
1645.54
1664.72
1527.16
1080.04
679.616
515.408
4.57912
4.58728
4.60342
4.62682
4.6467
4.60448
4.71196
4.68766
4.57912
4.57051
4.55078
4.52081
4.48225
4.43728
4.38836
4.33774
4.28731
4.23845
4.19221
4.14952
4.11112
4.07752
4.04909
4.02606
4.00864
3.99698
3.99116
)
;
    }
    atmosphere
    {
        type            totalPressure;
        rho             rho;
        psi             none;
        gamma           1;
        p0              uniform 0;
        value           nonuniform List<scalar> 
46
(
-0.593704
-0.607621
-0.610467
-0.617557
-0.626559
-0.637587
-0.650707
-0.665988
-0.683554
-0.703617
-0.726482
-0.752506
-0.782021
-0.815278
-0.852454
-0.893799
-0.939799
-0.991245
-1.04924
-1.11534
-1.19177
-1.28163
-1.37527
-1.47074
-2.0396
-3.20559
-2.06634
0
0
0
0
0
0
0
0
0
0
0
0
0
0
0
0
0
0
0
)
;
    }
    defaultFaces
    {
        type            empty;
    }
}


// ************************************************************************* //
