/*--------------------------------*- C++ -*----------------------------------*\
| =========                 |                                                 |
| \\      /  F ield         | OpenFOAM: The Open Source CFD Toolbox           |
|  \\    /   O peration     | Version:  2206                                  |
|   \\  /    A nd           | Website:  www.openfoam.com                      |
|    \\/     M anipulation  |                                                 |
\*---------------------------------------------------------------------------*/
FoamFile
{
    version     2.0;
    format      ascii;
    arch        "LSB;label=32;scalar=64";
    class       volScalarField;
    location    "0.725";
    object      p;
}
// * * * * * * * * * * * * * * * * * * * * * * * * * * * * * * * * * * * * * //

dimensions      [1 -1 -2 0 0 0 0];

internalField   nonuniform List<scalar> 
2268
(
508.503
508.541
510.722
515.575
524.922
540.88
563.221
588.189
612.285
635.386
658.062
680.495
702.541
723.876
743.922
761.978
777.63
789.432
794.647
795.782
807.25
835.436
857.686
449.029
448.562
450.627
455.365
464.359
480.451
503.328
528.898
553.324
576.53
599.26
621.732
643.828
665.256
685.49
703.755
720.301
734.26
738.958
735.279
742.494
767.723
794.154
387.796
387.079
389.444
394.156
402.503
418.541
442.18
469.121
494.298
517.715
540.486
562.985
585.12
606.577
626.855
645.338
662.049
676.555
682.579
679.657
684.948
705.668
731.297
325.448
324.592
327.295
331.823
339.155
354.778
379.982
409.191
435.463
459.09
481.838
504.365
526.619
548.246
568.689
587.337
604.013
618.239
626.463
627.019
633.983
649.61
671.071
262.773
261.599
264.467
268.809
275.441
291.084
318.271
349.906
377.067
400.746
423.371
445.9
468.308
490.224
510.994
529.865
546.562
560.916
571.315
577.442
585.687
596.531
612.666
200.054
198.438
201.193
205.528
212.126
227.972
257.92
291.379
318.922
342.611
365.061
387.55
410.118
432.43
453.673
472.821
489.548
504.126
516.311
524.904
534.472
542.883
554.971
137.265
135.859
138.168
142.691
150.859
169.908
198.954
232.312
260.25
284.203
306.787
329.339
352.093
374.908
396.771
416.189
432.748
447.232
460.202
470.963
481.648
489.005
499.333
73.6862
73.8295
76.3823
81.6155
91.7373
112.325
142.535
174.306
201.314
225.608
248.311
270.995
293.922
317.423
340.263
360.055
376.263
390.414
403.947
416.376
428.139
435.052
445.757
735.693
620.122
627.6
702.792
776.631
809.029
783.056
692.156
720.542
699.573
548.934
416.124
354.395
346.875
395.761
486.935
591.787
633.347
679.821
674.646
525.407
537.665
635.167
715.394
753.129
699.682
619.867
674.322
614.432
410.022
281.178
259.106
279.969
331.918
397.153
474.759
551.619
630.256
591.427
423.302
451.948
566.485
657.577
704.982
630.049
546.659
568.773
402.411
248.028
227.541
230.989
251.703
294.997
324.729
328.698
432.827
583.12
501.673
334.092
379.177
501.726
607.717
677.042
605.191
506.503
409.808
253.903
225.38
223.958
228.936
246.486
286.858
316.479
305.711
332.44
514.356
435.476
277.375
332.135
442.208
559.473
666.573
643.997
474.483
280.395
224.521
219.168
221.021
226.551
242.404
281.712
313.844
303.311
286.966
401.23
401.75
260.074
295.755
377.591
490.497
640.041
675.809
407.418
240.554
217.708
216.313
218.242
224.019
238.185
272.372
305.56
300.407
266.421
314.053
383.702
267.343
257.704
284.348
383.526
568.358
659.498
323.126
225.285
214.92
214.503
215.943
221.84
234.535
254.121
287.732
284.312
255.443
299.942
354.915
259.789
212.938
178.022
205.716
445.368
582.584
268.268
217.727
213.313
213.143
214.162
219.532
225.905
217.477
236.679
242.355
225.975
295.242
20.0349
22.4929
26.5744
31.6176
38.0145
48.43
65.1846
87.2022
110.805
133.81
156.555
179.733
203.056
227.687
252.303
272.872
288.126
301.306
315.679
330.493
343.91
351.179
356.828
3.40028
2.72629
3.17891
4.40598
6.10842
8.15
11.3908
17.462
27.0026
37.8708
50.1791
66.7431
86.2506
113.692
141.787
161.233
169.757
178.419
196.302
218.042
235.317
242.237
245.521
1.54892
1.21166
1.07319
0.870681
0.663491
0.521175
0.495835
0.624973
0.786942
0.872719
1.61059
4.98766
14.3397
44.9626
79.1738
90.9241
83.3662
82.5869
97.1157
121.757
141.164
148.771
147.794
0.857152
0.664496
0.592868
0.45902
0.353481
0.317699
0.373299
0.425682
0.308032
-0.189041
-1.12697
-1.95367
-1.12984
4.28858
17.8757
25.627
14.8388
12.4743
22.5543
50.4281
89.3769
89.5616
77.2755
0.457916
0.234732
0.22757
0.116281
0.0260808
-0.0333718
-0.0475003
-0.100315
-0.320679
-0.672203
-0.946843
-1.04118
-0.792392
0.280818
2.48307
4.01577
3.12605
3.32663
3.6923
13.0492
38.3404
65.6151
68.9968
0.156467
-0.0411067
-0.0433806
-0.137824
-0.189974
-0.235054
-0.263756
-0.323037
-0.488667
-0.745402
-0.98033
-1.11739
-1.11362
-0.996964
-0.147352
0.0983006
-0.0151374
0.372088
1.96584
7.16298
17.8755
36.2866
55.8906
-0.113719
-0.205764
-0.263929
-0.329105
-0.373239
-0.419302
-0.469142
-0.535566
-0.654991
-0.814578
-0.965917
-1.05295
-1.04114
-0.776241
-0.32108
-0.136072
-0.3151
-0.373764
1.09261
11.9087
27.8747
38.1603
52.3409
-0.374626
-0.390668
-0.447432
-0.507266
-0.557093
-0.610167
-0.669479
-0.742501
-0.837762
-0.940598
-1.02615
-1.06592
-1.04475
-0.91537
-0.742613
-0.688558
-0.846636
-0.963737
-0.819337
-0.298587
4.23437
14.0917
30.9217
-0.616692
-0.608309
-0.646967
-0.697
-0.74827
-0.802716
-0.859553
-0.924049
-0.999376
-1.07462
-1.13349
-1.15956
-1.14723
-1.0942
-1.02462
-1.01417
-1.11255
-1.21317
-1.2704
-1.16156
0.00405417
3.77325
21.4345
-0.835378
-0.832013
-0.862182
-0.900736
-0.945666
-0.994271
-1.04501
-1.10003
-1.15975
-1.21817
-1.26674
-1.29718
-1.30661
-1.29744
-1.28203
-1.29017
-1.34194
-1.4124
-1.55303
-1.78782
-1.74293
1.08476
6.56643
-1.04535
-1.04997
-1.07422
-1.1048
-1.14243
-1.18433
-1.22954
-1.27813
-1.32895
-1.37826
-1.42227
-1.45787
-1.48412
-1.503
-1.52338
-1.56202
-1.63969
-1.77927
-2.02644
-2.34624
-2.67142
-3.43802
-2.04322
-1.25087
-1.25755
-1.27659
-1.30212
-1.33415
-1.37105
-1.41159
-1.4552
-1.50082
-1.54613
-1.58934
-1.62945
-1.66708
-1.70509
-1.75108
-1.81773
-1.92033
-2.08023
-2.32631
-2.61741
-2.96238
-3.42796
-4.05062
-1.44857
-1.45517
-1.47076
-1.4928
-1.52064
-1.55357
-1.59018
-1.63001
-1.67231
-1.71586
-1.75975
-1.80404
-1.8502
-1.90143
-1.96356
-2.04538
-2.15581
-2.30529
-2.51646
-2.78627
-3.10272
-3.31645
-3.43172
-1.63849
-1.64491
-1.65823
-1.67771
-1.70243
-1.73211
-1.76568
-1.80285
-1.84302
-1.88564
-1.93039
-1.97782
-2.02966
-2.08893
-2.1592
-2.24702
-2.35703
-2.49346
-2.66805
-2.88468
-3.08477
-3.33788
-3.71298
-1.82193
-1.82811
-1.83969
-1.85716
-1.87951
-1.90668
-1.93794
-1.97312
-2.01176
-2.05364
-2.09889
-2.14825
-2.20322
-2.26624
-2.34044
-2.42979
-2.53747
-2.66607
-2.82176
-3.0011
-3.22876
-3.52949
-3.86911
-1.99955
-2.00537
-2.01564
-2.03149
-2.05198
-2.07715
-2.10654
-2.14
-2.17726
-2.21831
-2.26349
-2.31359
-2.36989
-2.43427
-2.50939
-2.59832
-2.70377
-2.82862
-2.98275
-3.16385
-3.52888
-3.97602
-4.37274
-2.17182
-2.17724
-2.18656
-2.20113
-2.22011
-2.2436
-2.27133
-2.30316
-2.33899
-2.37896
-2.42342
-2.47312
-2.52926
-2.59336
-2.6676
-2.75483
-2.85802
-2.98171
-3.139
-3.34462
-3.75549
-4.28499
-4.80472
-2.33933
-2.34433
-2.35294
-2.36643
-2.38413
-2.40613
-2.43229
-2.46249
-2.49675
-2.53528
-2.57843
-2.62685
-2.68159
-2.74397
-2.81581
-2.8997
-2.99874
-3.11833
-3.26811
-3.46998
-3.81044
-4.31597
-4.87067
-2.50258
-2.50717
-2.51516
-2.52767
-2.54421
-2.56483
-2.58945
-2.61798
-2.65052
-2.68727
-2.72857
-2.77497
-2.82731
-2.88668
-2.95456
-3.03309
-3.12497
-3.23466
-3.3678
-3.54103
-3.79045
-4.16591
-4.58551
-2.66198
-2.66617
-2.67358
-2.68518
-2.70061
-2.71988
-2.74293
-2.76974
-2.8004
-2.83509
-2.87408
-2.91782
-2.96698
-3.02232
-3.08497
-3.15646
-3.23874
-3.33459
-3.44682
-3.58351
-3.75409
-3.98442
-4.25502
-2.8179
-2.82172
-2.82857
-2.83931
-2.85362
-2.87152
-2.89298
-2.91798
-2.94661
-2.97902
-3.01536
-3.05599
-3.10139
-3.15206
-3.20875
-3.27245
-3.34441
-3.4261
-3.51873
-3.62479
-3.74494
-3.88203
-4.036
-2.97062
-2.97412
-2.98045
-2.99035
-3.00354
-3.02005
-3.03985
-3.06294
-3.08943
-3.11937
-3.15286
-3.19012
-3.23146
-3.27719
-3.32775
-3.38373
-3.44583
-3.51469
-3.59069
-3.6739
-3.76325
-3.85508
-3.94741
-3.12042
-3.12362
-3.12943
-3.13853
-3.15061
-3.16571
-3.18382
-3.20495
-3.22919
-3.25656
-3.28711
-3.32093
-3.35815
-3.39894
-3.44353
-3.49221
-3.54525
-3.60284
-3.66484
-3.73057
-3.79867
-3.86553
-3.92791
-3.26753
-3.27044
-3.27575
-3.28404
-3.29503
-3.30874
-3.32516
-3.34433
-3.3663
-3.39109
-3.41869
-3.4491
-3.4823
-3.51834
-3.55729
-3.59924
-3.64421
-3.69208
-3.74241
-3.79432
-3.84639
-3.89588
-3.93996
-3.41219
-3.41482
-3.41962
-3.42712
-3.43704
-3.44939
-3.46418
-3.48142
-3.50116
-3.5234
-3.54811
-3.57522
-3.6046
-3.6362
-3.66998
-3.7059
-3.74384
-3.78349
-3.82428
-3.86528
-3.90519
-3.94198
-3.97359
-3.55463
-3.55696
-3.56128
-3.568
-3.57686
-3.58791
-3.60114
-3.61653
-3.63412
-3.65392
-3.67586
-3.69983
-3.72564
-3.75317
-3.78231
-3.81294
-3.84485
-3.87763
-3.9107
-3.9432
-3.97401
-4.00164
-4.0247
-3.69496
-3.69702
-3.70088
-3.70686
-3.71471
-3.72451
-3.73626
-3.74992
-3.76551
-3.78302
-3.80237
-3.82341
-3.84595
-3.8698
-3.89482
-3.92084
-3.9476
-3.97469
-4.00154
-4.02741
-4.05141
-4.07244
-4.08953
-3.83333
-3.83516
-3.83858
-3.84386
-3.85077
-3.85943
-3.86982
-3.88188
-3.89563
-3.91103
-3.92799
-3.94634
-3.96589
-3.98644
-4.00782
-4.02984
-4.05222
-4.07459
-4.09643
-4.11712
-4.13598
-4.15218
-4.16504
-3.9699
-3.97156
-3.97455
-3.9792
-3.98526
-3.9929
-4.00205
-4.01267
-4.02474
-4.03822
-4.05298
-4.06888
-4.08572
-4.10332
-4.12149
-4.14004
-4.15871
-4.17716
-4.19496
-4.2116
-4.22654
-4.23917
-4.24901
-4.1049
-4.10641
-4.10901
-4.1131
-4.11843
-4.12516
-4.1332
-4.14251
-4.15306
-4.16477
-4.17754
-4.1912
-4.2056
-4.22056
-4.2359
-4.25145
-4.26698
-4.28219
-4.29673
-4.31019
-4.32213
-4.3321
-4.33974
-4.23855
-4.23992
-4.24216
-4.24579
-4.25047
-4.25639
-4.26344
-4.27157
-4.28073
-4.29083
-4.30176
-4.3134
-4.3256
-4.3382
-4.35107
-4.36404
-4.37691
-4.38945
-4.40136
-4.41229
-4.42191
-4.42986
-4.43589
-4.37101
-4.37225
-4.3742
-4.37743
-4.38154
-4.38675
-4.39291
-4.39996
-4.40785
-4.41648
-4.42574
-4.43554
-4.44576
-4.45629
-4.46699
-4.47774
-4.48838
-4.4987
-4.50845
-4.51735
-4.52513
-4.53152
-4.53635
-4.50247
-4.50359
-4.50533
-4.50821
-4.51181
-4.51637
-4.52172
-4.5278
-4.53452
-4.54179
-4.54953
-4.55768
-4.56615
-4.57485
-4.58368
-4.59253
-4.60126
-4.60971
-4.61765
-4.62487
-4.63116
-4.63631
-4.64022
-4.63317
-4.63416
-4.63573
-4.63829
-4.64142
-4.64539
-4.64999
-4.65516
-4.66081
-4.66685
-4.67323
-4.67991
-4.68684
-4.69395
-4.70115
-4.70835
-4.71545
-4.72229
-4.72871
-4.73451
-4.73955
-4.74368
-4.74684
-4.7633
-4.76416
-4.76557
-4.76781
-4.7705
-4.7739
-4.77779
-4.78213
-4.78679
-4.79173
-4.79691
-4.80231
-4.8079
-4.81362
-4.81941
-4.8252
-4.83088
-4.83635
-4.84145
-4.84605
-4.85004
-4.8533
-4.85582
-4.89302
-4.8937
-4.89496
-4.89687
-4.89913
-4.90198
-4.9052
-4.90876
-4.91255
-4.91651
-4.92065
-4.92494
-4.92937
-4.9339
-4.93848
-4.94305
-4.94752
-4.95181
-4.95579
-4.95937
-4.96245
-4.96498
-4.96695
-5.0224
-5.02288
-5.02397
-5.02555
-5.02738
-5.0297
-5.03229
-5.03514
-5.03815
-5.04128
-5.04452
-5.04786
-5.0513
-5.0548
-5.05834
-5.06185
-5.06529
-5.06858
-5.07162
-5.07434
-5.07668
-5.0786
-5.08009
-5.1515
-5.15171
-5.15264
-5.15388
-5.1553
-5.15712
-5.15912
-5.16135
-5.16368
-5.16609
-5.16857
-5.1711
-5.17368
-5.17629
-5.17892
-5.18154
-5.18411
-5.18656
-5.18883
-5.19085
-5.19257
-5.19397
-5.19506
-5.28029
-5.28023
-5.28101
-5.28192
-5.28295
-5.2843
-5.28579
-5.28746
-5.28921
-5.291
-5.29282
-5.29464
-5.29647
-5.29832
-5.30018
-5.30204
-5.30388
-5.30564
-5.30726
-5.30869
-5.3099
-5.31087
-5.31164
-5.40881
-5.40851
-5.40916
-5.40975
-5.41043
-5.41136
-5.41239
-5.41357
-5.41479
-5.41602
-5.41724
-5.41844
-5.41962
-5.42082
-5.42204
-5.42328
-5.4245
-5.42567
-5.42674
-5.42768
-5.42845
-5.42907
-5.42957
-5.53704
-5.53663
-5.53715
-5.53744
-5.53782
-5.53838
-5.53898
-5.5397
-5.54041
-5.54112
-5.5418
-5.54245
-5.54309
-5.54375
-5.54444
-5.54514
-5.54583
-5.54648
-5.54707
-5.54758
-5.548
-5.54833
-5.5486
-5.66532
-5.66485
-5.66508
-5.66514
-5.66526
-5.66546
-5.66567
-5.66592
-5.66614
-5.66637
-5.66656
-5.66675
-5.66694
-5.66713
-5.66734
-5.66755
-5.66775
-5.66794
-5.66811
-5.66826
-5.66838
-5.66847
-5.66856
351.939
339.687
323.853
307.65
232.457
214.201
186.655
158.542
127.566
114.36
90.8231
68.9412
70.8113
68.0675
65.4876
62.7711
66.6322
64.9388
62.7959
59.8953
61.5884
61.6197
60.558
58.3382
65.9185
64.8353
63.471
61.2958
71.5616
70.2833
65.9772
63.4637
34.4069
40.8357
55.1532
62.3294
17.4007
25.0863
28.3742
32.2885
-8.64137
-6.79235
0.313559
12.3341
-1.42595
14.3963
20.7231
16.5085
-3.61535
-3.92863
-4.1591
-4.27314
-3.99494
-4.13835
-4.252
-4.36794
-4.12772
-4.28504
-4.45296
-4.60188
-4.58118
-4.73041
-4.88262
-5.02073
-5.08892
-5.27196
-5.41521
-5.55272
-5.22457
-5.46066
-5.68506
-5.85004
-4.81721
-4.9418
-5.07813
-5.20247
-4.4161
-4.49688
-4.56534
-4.60941
-4.13129
-4.18095
-4.22103
-4.24873
-4.00228
-4.02956
-4.04982
-4.06237
-3.96315
-3.98004
-3.99208
-3.99903
-3.96372
-3.97506
-3.9831
-3.98758
-3.98995
-3.99768
-4.0031
-4.00596
-4.03621
-4.0415
-4.04506
-4.04674
-4.09774
-4.10136
-4.10365
-4.10446
-4.17098
-4.17347
-4.17487
-4.17508
-4.25337
-4.25509
-4.2559
-4.25575
-4.343
-4.34421
-4.34467
-4.34438
-4.4384
-4.43928
-4.43957
-4.43929
-4.53836
-4.53906
-4.53929
-4.53909
-4.64188
-4.64248
-4.64272
-4.64263
-4.74824
-4.74879
-4.74905
-4.74903
-4.85699
-4.85747
-4.85772
-4.85776
-4.96788
-4.96828
-4.9685
-4.96859
-5.08079
-5.0811
-5.08132
-5.08146
-5.19558
-5.19584
-5.19605
-5.19625
-5.31203
-5.31225
-5.31244
-5.31265
-5.42985
-5.43001
-5.43016
-5.43033
-5.54875
-5.54883
-5.54893
-5.54904
-5.6686
-5.66863
-5.66867
-5.66873
282.632
207.637
152.196
121.687
82.0713
227.647
401.683
225.504
212.632
211.547
211.714
212.176
212.49
175.069
133.313
104.949
122.464
155.548
259.596
125.173
107.287
85.7339
89.7712
76.2484
108.047
257.96
211.452
209.678
209.835
210.616
211.78
196.214
85.8887
15.7191
-51.5728
-18.0374
61.6847
128.207
62.3826
65.4365
68.9904
69.3155
67.7145
126.435
231.884
209.041
208.298
207.73
208.723
208.757
151.476
8.35089
-58.4993
-94.4753
-55.4708
-9.57492
23.4268
59.3024
59.9164
63.8857
65.1229
68.1575
77.4823
197.176
205.675
207.253
205.145
206.135
204.679
130.24
-33.6897
-54.5584
-19.6356
-24.3271
-24.7781
-31.1517
55.2161
54.7416
59.9777
65.8649
67.1952
68.5721
123.092
185.902
205.167
203.087
199.639
197.041
114.65
-21.0026
-17.7542
-14.6392
-8.33648
-5.13214
-18.3107
54.3109
54.0928
59.6387
66.5576
67.9304
67.2426
74.8725
144.744
189.356
199.725
174.462
154.049
94.4527
3.18644
-17.8119
-13.9156
-4.92843
5.78932
-7.79964
57.3759
57.9641
63.5261
69.2566
69.4656
67.8647
68.7996
82.342
125.13
185.928
117.45
95.82
65.6549
-3.63792
-13.4692
-14.6893
-8.14148
-7.09672
-11.1891
60.4308
61.0012
66.9177
72.6023
70.0517
66.9062
66.7268
59.0679
79.0677
132.807
99.2662
65.0027
34.9825
11.9615
-13.6075
-37.7336
-34.4997
-12.2917
-16.301
63.5229
58.2974
54.263
61.226
63.8277
62.5375
48.007
-6.31351
75.9043
122.243
76.1181
38.9962
18.2948
13.7672
20.6911
4.59719
20.7681
25.7327
-0.748009
34.2923
31.8026
44.2058
86.5083
96.9575
65.9333
60.8513
87.6487
122.476
95.5591
26.4705
13.3234
8.37315
4.65365
10.0163
34.8461
75.6182
48.4164
-3.73666
24.8299
23.658
25.3941
29.0618
41.8717
81.3565
96.6847
81.7819
70.5709
25.6139
-7.78283
2.18035
3.1672
1.56252
0.534446
2.13662
7.54929
5.03684
-14.7631
18.3236
22.1365
10.1335
1.00952
-2.20147
-0.999596
3.64276
6.72188
4.45372
-4.09092
-6.68358
-1.76154
0.739664
-0.229464
-0.758963
-0.756232
0.0374631
2.28666
59.9699
-4.37164
-4.41104
-4.21024
-3.95168
-4.20549
-4.827
-5.35026
-4.93601
-4.57071
-4.47655
-3.71496
-2.01706
-0.84673
-1.27129
-1.4732
-1.59804
-1.68943
1.99574
45.4357
-4.50523
-4.45722
-4.2163
-3.95803
-3.91514
-4.06229
-4.15885
-4.07368
-3.87576
-3.52561
-2.84723
-2.14834
-1.76624
-1.84454
-1.95285
-2.01117
-2.36892
-0.567026
11.4582
-4.73776
-4.57368
-4.20756
-3.8467
-3.66177
-3.60508
-3.47094
-3.30903
-3.2371
-3.11584
-2.80907
-2.46535
-2.2769
-2.19
-2.17217
-2.24479
-2.30441
-2.2741
0.459024
-5.16684
-4.91633
-4.3647
-3.82031
-3.46775
-3.26785
-3.11767
-3.02558
-3.03762
-3.05621
-2.95494
-2.74161
-2.54544
-2.38986
-2.2872
-2.25744
-2.16222
-2.27804
-1.29305
-5.69619
-5.37357
-4.62037
-3.91149
-3.46274
-3.21495
-3.08173
-3.04062
-3.07572
-3.08227
-3.00768
-2.84292
-2.65464
-2.49532
-2.37429
-2.29896
-2.20519
-2.1898
-1.88018
-6.04307
-5.63548
-4.69235
-3.96474
-3.52274
-3.2918
-3.17794
-3.13247
-3.12176
-3.08993
-3.00501
-2.8706
-2.72036
-2.58525
-2.46711
-2.37231
-2.26074
-2.22654
-2.00676
-5.35401
-5.16102
-4.49851
-3.93858
-3.5876
-3.39732
-3.29375
-3.23304
-3.18789
-3.13134
-3.04787
-2.939
-2.81775
-2.70082
-2.58821
-2.49237
-2.34939
-2.25583
-2.02487
-4.63011
-4.52896
-4.22716
-3.89316
-3.64726
-3.49794
-3.40515
-3.33756
-3.27812
-3.21364
-3.13517
-3.04138
-2.93663
-2.83278
-2.73287
-2.66256
-2.57527
-2.65494
-2.22375
-4.27327
-4.22263
-4.06523
-3.86109
-3.6946
-3.58081
-3.49846
-3.43072
-3.36869
-3.30523
-3.23403
-3.15221
-3.061
-2.97108
-2.88986
-2.85504
-2.84947
-3.11566
-2.9105
-4.07226
-4.04458
-3.9628
-3.84827
-3.7402
-3.65331
-3.58262
-3.52074
-3.46269
-3.40418
-3.34069
-3.26907
-3.18931
-3.11191
-3.04636
-3.02993
-3.05093
-3.24221
-3.27156
-4.00369
-3.98466
-3.93585
-3.8645
-3.78902
-3.72113
-3.6617
-3.60791
-3.55718
-3.50682
-3.45279
-3.39101
-3.32065
-3.25222
-3.19513
-3.17837
-3.18551
-3.27587
-2.96699
-3.98975
-3.97554
-3.94255
-3.89431
-3.84004
-3.78736
-3.7388
-3.69433
-3.65316
-3.61356
-3.57079
-3.51878
-3.45549
-3.39107
-3.3332
-3.30164
-3.27074
-3.29824
-2.92116
-4.00683
-3.99608
-3.97227
-3.93753
-3.89694
-3.85557
-3.81651
-3.78155
-3.75139
-3.72534
-3.69663
-3.65504
-3.59647
-3.53057
-3.46389
-3.41202
-3.33905
-3.35877
-2.86655
-4.0467
-4.03798
-4.01958
-3.99283
-3.96098
-3.92769
-3.89653
-3.87076
-3.85291
-3.84386
-3.83249
-3.80184
-3.74601
-3.67534
-3.59833
-3.53184
-3.45083
-3.47463
-3.02869
-4.1037
-4.09611
-4.08099
-4.05918
-4.03293
-4.00516
-3.9803
-3.963
-3.95836
-3.96928
-3.97671
-3.95581
-3.90177
-3.82703
-3.74468
-3.6733
-3.60913
-3.62873
-3.25508
-4.1738
-4.16704
-4.15416
-4.13567
-4.11311
-4.08908
-4.06913
-4.05882
-4.0669
-4.09754
-4.12016
-4.106
-4.05513
-3.97806
-3.89896
-3.83257
-3.77989
-3.78299
-3.47582
-4.25426
-4.2483
-4.23729
-4.22147
-4.20173
-4.18039
-4.16384
-4.15764
-4.17451
-4.21891
-4.24838
-4.23816
-4.19236
-4.1226
-4.04847
-3.99574
-3.94156
-3.90151
-3.68358
-4.34296
-4.33793
-4.32878
-4.31557
-4.29857
-4.27967
-4.26507
-4.25904
-4.27623
-4.32373
-4.3522
-4.349
-4.31625
-4.26059
-4.20008
-4.15675
-4.09464
-3.9722
-3.85927
-4.43815
-4.43417
-4.42697
-4.4165
-4.4027
-4.38679
-4.37373
-4.36609
-4.37745
-4.41276
-4.43931
-4.44853
-4.43978
-4.41496
-4.37466
-4.34
-4.27331
-4.11083
-4.19667
-4.53829
-4.53541
-4.53013
-4.52246
-4.51233
-4.50039
-4.48995
-4.48258
-4.48649
-4.50697
-4.53403
-4.5615
-4.581
-4.5859
-4.56754
-4.56518
-4.57363
-4.51989
-3.45087
-4.64213
-4.64025
-4.63673
-4.63168
-4.62523
-4.61782
-4.61145
-4.6074
-4.60997
-4.6234
-4.65127
-4.68937
-4.72402
-4.7494
-4.7565
-4.8
-4.9394
-5.24508
-5.22057
-4.74875
-4.74769
-4.74566
-4.74282
-4.73952
-4.73626
-4.73428
-4.73497
-4.74008
-4.75331
-4.7797
-4.81669
-4.85308
-4.88539
-4.91186
-4.9791
-5.15858
-5.41414
-5.21018
-4.85766
-4.85726
-4.8564
-4.85529
-4.85431
-4.85405
-4.8553
-4.85923
-4.86717
-4.88148
-4.90382
-4.93386
-4.9656
-4.99722
-5.02568
-5.07371
-5.18289
-5.29082
-5.16963
-4.96867
-4.9688
-4.96887
-4.96901
-4.96961
-4.9712
-4.9742
-4.97962
-4.98846
-5.00222
-5.02089
-5.04429
-5.06946
-5.09437
-5.11504
-5.13724
-5.16672
-5.19028
-5.12618
-5.08171
-5.08225
-5.08299
-5.084
-5.08565
-5.08835
-5.09213
-5.09779
-5.10667
-5.11973
-5.13452
-5.15233
-5.17137
-5.18707
-5.19862
-5.20855
-5.20529
-5.19304
-5.16234
-5.19661
-5.19741
-5.19857
-5.20019
-5.20249
-5.20589
-5.2102
-5.21555
-5.22406
-5.23611
-5.24627
-5.25944
-5.27297
-5.27928
-5.28587
-5.29514
-5.29099
-5.27853
-5.26751
-5.31304
-5.31396
-5.31534
-5.31735
-5.32001
-5.32375
-5.32851
-5.3335
-5.34229
-5.35295
-5.35915
-5.37058
-5.37874
-5.37495
-5.38347
-5.39689
-5.40016
-5.39812
-5.39815
-5.4307
-5.43161
-5.43308
-5.43528
-5.4382
-5.44206
-5.44705
-5.45205
-5.46144
-5.47045
-5.47649
-5.49118
-5.49503
-5.48039
-5.49683
-5.51294
-5.52244
-5.52826
-5.53237
-5.54933
-5.55012
-5.55156
-5.55383
-5.55698
-5.56112
-5.56638
-5.5721
-5.58149
-5.58908
-5.59663
-5.61214
-5.61405
-5.59977
-5.62138
-5.63956
-5.65373
-5.6645
-5.67007
-5.66887
-5.66934
-5.67063
-5.67292
-5.67642
-5.68101
-5.68684
-5.6937
-5.70378
-5.70979
-5.72012
-5.7274
-5.71836
-5.72637
-5.75155
-5.77493
-5.79395
-5.81089
-5.81689
)
;

boundaryField
{
    leftWall
    {
        type            calculated;
        value           nonuniform List<scalar> 
50
(
508.503
449.029
387.796
325.448
262.773
200.054
137.265
73.6862
20.0349
3.40028
1.54892
0.857152
0.457916
0.156467
-0.113719
-0.374626
-0.616692
-0.835378
-1.04535
-1.25087
-1.44857
-1.63849
-1.82193
-1.99955
-2.17182
-2.33933
-2.50258
-2.66198
-2.8179
-2.97062
-3.12042
-3.26753
-3.41219
-3.55463
-3.69496
-3.83333
-3.9699
-4.1049
-4.23855
-4.37101
-4.50247
-4.63317
-4.7633
-4.89302
-5.0224
-5.1515
-5.28029
-5.40881
-5.53704
-5.66532
)
;
    }
    rightWall
    {
        type            calculated;
        value           nonuniform List<scalar> 
50
(
679.821
630.256
583.12
514.356
401.23
314.053
299.942
295.242
259.596
128.207
23.4268
-31.1517
-18.3107
-7.79964
-11.1891
-16.301
-0.748009
-3.73666
-14.7631
59.9699
45.4357
11.4582
0.459024
-1.29305
-1.88018
-2.00676
-2.02487
-2.22375
-2.9105
-3.27156
-2.96699
-2.92116
-2.86655
-3.02869
-3.25508
-3.47582
-3.68358
-3.85927
-4.19667
-3.45087
-5.22057
-5.21018
-5.16963
-5.12618
-5.16234
-5.26751
-5.39815
-5.53237
-5.67007
-5.81689
)
;
    }
    lowerWall
    {
        type            calculated;
        value           nonuniform List<scalar> 
62
(
537.932
537.971
540.152
545.004
554.351
570.31
592.65
617.618
641.714
664.816
687.492
709.924
731.971
753.306
773.351
791.407
806.769
817.338
822.603
825.132
836.601
864.785
887.033
857.686
794.154
731.297
671.071
612.666
554.971
499.333
445.757
414.53
402.275
386.436
370.218
735.693
674.646
591.427
501.673
435.476
401.75
383.702
354.915
763.7
649.546
657.026
732.219
805.419
833.273
805.176
710.762
739.159
725.629
574.99
442.18
380.448
372.916
421.756
512.868
617.678
659.312
703.588
)
;
    }
    atmosphere
    {
        type            calculated;
        value           nonuniform List<scalar> 
46
(
-5.72904
-5.72904
-5.72904
-5.72904
-5.72904
-5.72904
-5.72904
-5.72904
-5.72904
-5.72904
-5.72904
-5.72904
-5.72904
-5.72904
-5.72904
-5.72904
-5.72904
-5.72904
-5.72904
-5.72904
-5.72904
-5.72904
-5.72904
-5.72904
-5.72904
-5.72904
-5.72904
-5.72904
-5.7292
-5.73051
-5.73276
-5.73665
-5.74135
-5.74762
-5.75468
-5.76713
-5.77075
-5.7873
-5.78837
-5.74575
-5.78723
-5.82164
-5.84756
-5.86835
-5.89211
-5.89644
)
;
    }
    defaultFaces
    {
        type            empty;
    }
}


// ************************************************************************* //
