/*--------------------------------*- C++ -*----------------------------------*\
| =========                 |                                                 |
| \\      /  F ield         | OpenFOAM: The Open Source CFD Toolbox           |
|  \\    /   O peration     | Version:  2206                                  |
|   \\  /    A nd           | Website:  www.openfoam.com                      |
|    \\/     M anipulation  |                                                 |
\*---------------------------------------------------------------------------*/
FoamFile
{
    version     2.0;
    format      ascii;
    arch        "LSB;label=32;scalar=64";
    class       volScalarField;
    location    "0.975";
    object      alpha.water;
}
// * * * * * * * * * * * * * * * * * * * * * * * * * * * * * * * * * * * * * //

dimensions      [0 0 0 0 0 0 0];

internalField   nonuniform List<scalar> 
2268
(
1
1
1
1
1
1
1
1
1
1
1
1
1
1
1
1
1
1
1
1
1
1
1
1
1
1
1
1
1
1
1
1
1
1
1
1
1
1
1
1
1
1
1
1
1
1
1
1
1
1
1
1
1
1
1
1
1
1
1
1
1
1
1
1
1
1
1
1
1
1
1
1
1
1
1
1
1
1
1
1
1
1
1
1
1
1
1
1
1
1
1
1
1
1
1
1
1
1
1
1
1
1
1
1
1
1
1
1
1
1
1
1
1
1
1
1
1
1
1
1
1
1
1
1
1
1
1
1
1
1
1
1
1
1
1
1
1
1
1
1
1
1
1
1
1
1
1
1
1
1
1
1
1
1
1
1
1
1
1
1
1
1
1
1
1
0.999999
0.999999
0.999999
1
1
1
1
1
1
1
1
1
1
1
1
1
1
1
1
0.316497
0.41247
0.735637
0.906245
0.927571
0.91421
0.922852
0.949399
0.949403
0.949403
0.949403
0.949333
0.941255
0.929011
0.939593
0.949658
0.95018
0.950192
0.950192
0.28815
0.416105
0.908305
0.945836
0.946072
0.935568
0.949168
0.949402
0.949399
0.949404
0.93607
0.823422
0.728049
0.720505
0.725762
0.801674
0.885523
0.95018
0.950192
0.275685
0.45135
0.945837
0.946073
0.946244
0.947533
0.948905
0.949182
0.930471
0.773405
0.716985
0.717077
0.71666
0.711437
0.706232
0.706159
0.706163
0.918212
0.95015
0.275685
0.374727
0.945737
0.945836
0.946072
0.945952
0.865148
0.836709
0.915252
0.736863
0.717786
0.717001
0.747113
0.862275
0.850691
0.706187
0.706147
0.706187
0.91884
0.375852
0.327766
0.898458
0.945737
0.945632
0.944755
0.807746
0.481693
0.904044
0.932564
0.866228
0.826735
0.932794
0.932676
0.932595
0.760714
0.706187
0.706201
0.873336
0.777442
0.33368
0.487339
0.944907
0.937707
0.766389
0.410437
0.352808
0.578678
0.932739
0.932794
0.932794
0.932812
0.932794
0.932676
0.932213
0.706818
0.761919
0.926245
0.777938
0.533741
0.403053
0.471676
0.520847
0.378829
0.352808
0.351522
0.352808
0.883978
0.932739
0.932812
0.932794
0.932676
0.93219
0.929672
0.874393
0.860305
0.926412
0.769941
0.801002
0.399105
0.394481
0.380184
0.358833
0.351522
0.351021
0.351522
0.562434
0.900063
0.932636
0.932392
0.931396
0.927784
0.925198
0.914808
0.85953
0.9264
1
1
1
0.99999
0.99977
0.99925
0.999678
0.999958
0.999941
0.999835
0.999919
1
1
1
1
1
1
1
1
1
1
1
0.999959
0.674705
0.676839
0.668132
0.636762
0.587888
0.576849
0.59497
0.613838
0.613356
0.608905
0.61226
0.626007
0.657807
0.691992
0.719767
0.745761
0.779518
0.825127
0.873464
0.91666
0.932015
0.929043
0.938115
1.27601e-05
1.95317e-05
5.31885e-05
0.000332476
0.0205296
0.0319862
0.0349829
0.0376816
0.0611133
0.0911878
0.0943682
0.0433396
0.0230292
0.0244262
0.0393609
0.0572449
0.0752337
0.0931342
0.100358
0.147566
0.478844
0.81541
0.913437
1.21981e-05
1.27601e-05
2.21088e-05
6.77721e-05
0.000160579
0.000821331
0.00415228
0.0046603
0.00399144
0.00535153
0.00746461
0.00966192
0.0118693
0.0147812
0.02048
0.0324539
0.059584
0.117547
0.443759
0.78987
0.879827
0.876192
0.918538
1.20698e-05
1.21981e-05
2.56713e-05
0.000168682
0.000716476
0.00151046
0.00232443
0.00114191
0.00188782
0.00301449
0.00482986
0.00779968
0.0126667
0.0203241
0.0294599
0.0651688
0.491421
0.800399
0.871055
0.874311
0.878424
0.888967
0.898596
9.0995e-06
1.35033e-05
0.000339505
0.00138331
0.00164311
0.00166712
0.000956731
0.000644939
0.00114082
0.00204849
0.00365
0.00667827
0.0127715
0.0312568
0.116927
0.181957
0.266555
0.623998
0.820771
0.869915
0.874443
0.878423
0.881163
5.40887e-06
9.0995e-06
0.000680708
0.00143345
0.001506
0.00156852
0.000627826
0.0003399
0.000645001
0.00124111
0.00257364
0.00564085
0.0134778
0.0700452
0.401982
0.618154
0.517163
0.317822
0.315493
0.321144
0.432252
0.750909
0.836067
3.25608e-06
2.14716e-05
0.000456664
0.00129972
0.00143345
0.00138602
0.000617783
0.000144905
0.000328464
0.00082231
0.00220795
0.0061951
0.0174917
0.204634
0.582528
0.622003
0.627377
0.629553
0.496834
0.35391
0.380959
0.502457
0.763528
2.02785e-06
2.30575e-05
0.000153561
0.00061785
0.00127378
0.00128899
0.000527303
5.59537e-05
0.000129982
0.000402919
0.00117928
0.00298823
0.0100268
0.147482
0.512987
0.62732
0.629787
0.633324
0.63369
0.54834
0.464827
0.677882
0.732888
4.86737e-07
5.59321e-06
1.91316e-05
6.03825e-05
0.000398242
0.000752265
0.000278684
2.67656e-05
5.27941e-05
0.000259313
0.000640186
0.000882907
0.00207396
0.00690179
0.0882752
0.478263
0.633324
0.634068
0.633796
0.620681
0.634694
0.679181
0.699593
1.30228e-07
3.97891e-07
2.51113e-06
1.42276e-05
3.06079e-05
6.67011e-05
5.96231e-05
1.83646e-05
1.28158e-05
4.02612e-05
7.38916e-05
0.000150438
0.00049264
0.00130475
0.00227878
0.00923574
0.319687
0.609939
0.633755
0.63112
0.617141
0.661407
0.67917
6.37636e-08
1.50503e-07
8.88437e-07
4.82338e-06
1.00634e-05
1.32606e-05
9.32662e-06
7.21366e-06
2.83229e-06
5.38947e-06
1.12825e-05
2.84393e-05
7.76999e-05
0.000197094
0.000954776
0.00231043
0.000733318
0.00323392
0.135002
0.42599
0.575995
0.581376
0.509427
4.32071e-08
9.00275e-08
3.9758e-07
1.57495e-06
3.19658e-06
4.16619e-06
2.97965e-06
1.95981e-06
8.79386e-07
1.3984e-06
2.88654e-06
6.29304e-06
1.66477e-05
5.55006e-05
0.000105412
0.000142528
0.000147481
0.0001911
0.00130369
0.0100064
0.0297054
0.0383093
0.0351419
3.8712e-08
5.13602e-08
1.44224e-07
4.99498e-07
9.7927e-07
1.269e-06
9.91973e-07
5.00916e-07
2.67801e-07
3.91392e-07
7.64373e-07
1.9101e-06
4.6231e-06
2.0525e-05
2.2346e-05
2.65496e-05
3.77815e-05
3.40882e-05
2.08069e-05
3.61433e-05
5.54562e-05
6.01813e-05
5.50204e-05
3.83694e-08
3.25604e-08
5.72354e-08
1.56705e-07
2.90882e-07
3.7569e-07
2.95431e-07
1.58497e-07
8.43637e-08
1.1067e-07
2.15029e-07
7.65331e-07
1.91175e-06
1.48912e-05
7.32932e-06
7.00594e-06
1.12623e-05
8.51988e-06
6.05046e-06
8.74739e-06
1.40815e-05
1.9849e-05
2.63058e-05
5.13831e-08
2.5628e-08
2.18285e-08
4.58031e-08
8.46419e-08
1.09089e-07
8.29163e-08
4.80018e-08
2.68559e-08
3.46998e-08
7.40091e-08
2.15053e-07
1.22542e-05
9.12443e-06
2.3456e-06
2.56751e-06
4.66015e-06
2.40841e-06
1.82291e-06
3.36826e-06
5.69902e-06
9.58031e-06
1.60743e-05
6.10943e-08
2.33421e-08
6.02626e-09
1.34904e-08
2.45819e-08
3.15514e-08
2.37001e-08
1.4664e-08
1.00579e-08
1.60006e-08
3.46998e-08
9.99139e-06
1.91074e-05
5.81373e-06
1.38833e-06
1.62238e-06
2.50197e-06
7.93487e-07
7.42178e-07
1.78298e-06
3.25091e-06
6.3649e-06
8.00031e-06
6.13051e-08
2.33455e-08
2.41507e-09
4.29618e-09
7.3517e-09
9.36477e-09
7.36024e-09
5.0102e-09
6.29041e-09
1.00579e-08
1.115e-06
1.91074e-05
1.91074e-05
2.30092e-06
1.23004e-06
1.45958e-06
2.01696e-06
3.36063e-07
4.59757e-07
1.14165e-06
1.95452e-06
3.43712e-06
4.89871e-06
6.12819e-08
2.26656e-08
1.10812e-09
1.65432e-09
2.58362e-09
3.15143e-09
2.61398e-09
2.77231e-09
4.69287e-09
9.20303e-08
8.24974e-06
1.91057e-05
1.41654e-05
1.13727e-06
1.21945e-06
1.23045e-06
8.25249e-07
1.55034e-07
3.17165e-07
6.77463e-07
1.06098e-06
1.83106e-06
4.31226e-06
6.12772e-08
1.92251e-08
5.87265e-10
7.46104e-10
1.05523e-09
1.27491e-09
1.09795e-09
2.06016e-09
2.77231e-09
8.43348e-07
1.17825e-05
1.55521e-05
2.41637e-06
1.12721e-06
1.17201e-06
1.05108e-06
8.77493e-08
8.62163e-08
1.74793e-07
3.04436e-07
5.89367e-07
1.47848e-06
6.33294e-06
2.59097e-08
1.15564e-08
3.36693e-10
4.19257e-10
5.50704e-10
6.3145e-10
5.56082e-10
9.91705e-10
4.7419e-08
2.07811e-06
5.0036e-06
2.13982e-06
9.04032e-07
1.16631e-06
1.30985e-06
1.04212e-06
4.10957e-08
6.26031e-08
8.97659e-08
1.75414e-07
5.03077e-07
2.12619e-06
1.02814e-05
2.50978e-09
3.9172e-09
1.49518e-10
2.1579e-10
2.9529e-10
3.43633e-10
3.91472e-10
5.53055e-10
2.25905e-07
1.66878e-06
2.4076e-07
3.09959e-07
7.46772e-07
1.37294e-06
1.34739e-06
8.71413e-07
2.483e-08
4.10596e-08
6.51323e-08
1.53707e-07
5.51749e-07
2.63936e-06
1.26478e-05
1.14201e-09
1.23671e-09
5.20257e-11
9.44462e-11
1.35233e-10
1.51195e-10
1.74986e-10
1.26573e-08
2.92333e-07
1.91066e-07
7.82574e-08
1.72103e-07
8.7845e-07
1.39992e-06
1.38635e-06
4.74122e-07
1.77462e-08
2.48302e-08
4.68042e-08
1.43016e-07
5.65981e-07
2.80384e-06
1.32332e-05
9.01248e-10
6.37051e-10
1.8193e-11
4.03241e-11
5.70061e-11
5.64807e-11
1.31167e-10
2.18069e-08
1.56588e-07
2.66874e-08
2.77511e-08
1.12839e-07
1.02816e-06
1.40552e-06
1.39992e-06
4.40116e-07
1.42181e-08
1.77462e-08
3.42724e-08
1.24923e-07
5.58319e-07
3.19363e-06
7.79299e-05
5.99492e-10
3.54212e-10
6.38947e-12
1.65735e-11
2.44445e-11
2.8085e-11
7.18598e-10
2.05876e-08
1.15799e-08
1.0924e-08
1.22361e-08
6.34767e-08
1.02651e-06
1.40706e-06
1.40552e-06
5.79448e-07
1.25128e-08
1.41612e-08
2.41879e-08
9.32224e-08
4.23579e-07
2.73117e-06
0.000160737
3.36429e-10
1.85875e-10
2.38753e-12
6.23001e-12
1.07456e-11
2.63466e-11
8.60988e-10
1.15958e-08
3.95755e-09
4.50273e-09
5.91285e-09
3.32736e-08
7.61947e-07
1.40693e-06
1.40693e-06
7.11144e-07
1.19884e-08
1.18319e-08
2.55498e-08
1.17877e-07
5.52207e-07
7.57358e-06
0.000161801
1.75749e-10
9.39894e-11
1.20183e-12
1.90357e-12
4.56932e-12
2.40959e-11
7.46103e-10
3.68744e-09
2.40739e-09
2.54426e-09
3.79611e-09
1.90598e-08
3.53697e-07
1.40695e-06
1.3932e-06
6.29405e-07
1.11618e-08
1.04568e-08
4.1782e-08
1.92768e-07
1.02522e-06
1.01514e-05
0.000112817
8.83969e-11
4.66542e-11
7.59656e-13
3.33727e-13
1.55951e-12
1.95884e-11
4.85095e-10
1.41532e-09
1.66949e-09
1.84066e-09
2.44925e-09
5.9525e-09
1.10599e-07
8.13579e-07
1.38312e-06
4.18036e-07
8.19371e-09
7.38593e-09
3.74834e-08
1.555e-07
5.97121e-07
8.12876e-06
1.21746e-05
4.28375e-11
2.27529e-11
4.90151e-13
-1.00177e-29
2.43002e-13
1.36001e-11
2.48273e-10
7.74783e-10
1.21453e-09
1.42167e-09
1.52095e-09
1.60485e-09
2.69614e-08
9.71901e-08
4.60122e-07
2.077e-07
9.86621e-09
6.87374e-09
2.00307e-08
6.50181e-08
5.92168e-08
1.43896e-07
1.53144e-06
1.99265e-11
1.0852e-11
2.72627e-13
-2.02532e-13
-5.08858e-31
7.39918e-12
1.08841e-10
4.08453e-10
7.56722e-10
9.75093e-10
1.00776e-09
9.36206e-10
1.35935e-09
9.03581e-09
2.63783e-08
5.52602e-08
1.60343e-08
5.96204e-09
6.8743e-09
6.40476e-09
1.55544e-08
6.32713e-08
4.54901e-07
8.87852e-12
5.02459e-12
1.29818e-13
-3.77519e-13
-1.90923e-13
2.89237e-12
4.4179e-11
1.90398e-10
3.95382e-10
5.67344e-10
6.40891e-10
6.743e-10
7.44056e-10
3.11819e-09
8.0104e-09
8.07886e-09
1.46314e-08
6.02892e-09
3.01847e-09
2.78456e-09
6.20276e-09
1.57731e-08
1.3595e-07
3.78591e-12
2.24754e-12
4.15207e-14
-4.22074e-13
-3.67006e-13
5.81963e-13
1.67599e-11
8.01863e-11
1.84909e-10
2.93177e-10
3.69194e-10
4.54771e-10
5.73326e-10
1.40439e-09
2.90951e-09
2.9755e-09
8.41652e-09
5.10635e-09
2.51173e-09
1.82604e-09
2.02571e-09
6.04674e-09
3.66236e-08
1.54454e-12
9.69244e-13
0
-3.91983e-13
-4.3221e-13
8.86447e-15
5.90504e-12
3.09583e-11
7.9e-11
1.37185e-10
1.89651e-10
2.60267e-10
3.82896e-10
6.79571e-10
1.22509e-09
1.79481e-09
3.03323e-09
3.77661e-09
2.51256e-09
1.41807e-09
1.12685e-09
2.13219e-09
9.61963e-09
6.02947e-13
4.04669e-13
-2.5321e-14
-3.26696e-13
-4.19778e-13
0
1.80178e-12
1.09681e-11
3.10647e-11
5.87344e-11
8.7599e-11
1.25382e-10
2.21184e-10
3.92315e-10
6.75603e-10
1.17874e-09
1.61555e-09
2.17152e-09
1.97677e-09
1.38534e-09
7.94667e-10
9.5294e-10
2.78004e-09
2.25381e-13
1.64144e-13
-3.879e-14
-2.51939e-13
-3.62277e-13
-1.10735e-13
3.55889e-13
3.56577e-12
1.12884e-11
2.31202e-11
3.68269e-11
5.46022e-11
9.75143e-11
2.01839e-10
3.76003e-10
6.68816e-10
9.09527e-10
1.16146e-09
1.28478e-09
1.10231e-09
7.4998e-10
5.45503e-10
7.43233e-10
8.07898e-14
6.42289e-14
-3.74002e-14
-1.82592e-13
-2.86665e-13
-1.62572e-13
1.63895e-14
1.07058e-12
3.79312e-12
8.41278e-12
1.42438e-11
2.18755e-11
3.83407e-11
8.08358e-11
1.68289e-10
2.96375e-10
4.43962e-10
5.77269e-10
6.85076e-10
7.03724e-10
5.82882e-10
3.68656e-10
2.88495e-10
2.78372e-14
2.41331e-14
-2.99619e-14
-1.25531e-13
-2.11529e-13
-1.63795e-13
2.50442e-30
2.64289e-13
1.16372e-12
2.85009e-12
5.12167e-12
8.13733e-12
1.41437e-11
2.92331e-11
6.20118e-11
1.15652e-10
1.86913e-10
2.56947e-10
3.16781e-10
3.56579e-10
3.54469e-10
2.76208e-10
1.59834e-10
9.24951e-15
8.68953e-15
-2.15197e-14
-8.23829e-14
-1.47124e-13
-1.3894e-13
-2.6286e-14
2.64293e-14
3.27264e-13
9.02618e-13
1.72636e-12
2.84068e-12
4.94077e-12
1.0029e-11
2.13756e-11
4.15117e-11
7.05972e-11
1.02922e-10
1.30333e-10
1.5297e-10
1.67508e-10
1.61631e-10
1.08091e-10
2.97567e-15
2.98417e-15
-1.43212e-14
-5.18517e-14
-9.71885e-14
-1.05615e-13
-4.72729e-14
-2.50442e-30
8.00644e-14
2.62974e-13
5.48576e-13
9.40448e-13
1.64876e-12
3.3095e-12
7.0604e-12
1.40496e-11
2.46981e-11
3.7616e-11
4.92052e-11
5.81854e-11
6.58797e-11
6.98153e-11
6.34892e-11
9.38977e-16
9.67347e-16
-8.98836e-15
-3.14195e-14
-6.13423e-14
-7.40529e-14
-4.6984e-14
-2.8651e-15
8.90526e-15
6.97213e-14
1.64412e-13
2.96742e-13
5.29566e-13
1.05754e-12
2.25341e-12
4.54583e-12
8.17957e-12
1.28582e-11
1.74109e-11
2.08877e-11
2.36525e-11
2.59011e-11
2.72545e-11
2.38054e-16
2.98402e-16
-5.3771e-15
-1.83809e-14
-3.71578e-14
-4.86839e-14
-3.79396e-14
-1.25614e-14
6.26105e-31
1.66773e-14
4.72869e-14
9.13454e-14
1.68188e-13
3.43949e-13
7.39053e-13
1.50168e-12
2.68209e-12
4.1305e-12
5.42628e-12
6.13472e-12
6.24522e-12
6.38899e-12
6.85146e-12
8.72579e-17
4.85414e-17
-3.09261e-15
-1.04349e-14
-2.17448e-14
-3.03984e-14
-2.71795e-14
-1.35686e-14
-6.8938e-16
1.18485e-15
7.07579e-15
1.71558e-14
3.39395e-14
6.68046e-14
1.40492e-13
2.88494e-13
5.48523e-13
9.29823e-13
1.38253e-12
1.86622e-12
2.39612e-12
2.83997e-12
3.19412e-12
0.999824
0.941901
0.719586
0.718515
0.94552
0.943918
0.8698
0.743598
0.942803
0.935686
0.797219
0.724053
0.937737
0.789907
0.245588
0.10305
0.889292
0.398315
0.00323733
0.000532892
0.726791
0.0943233
0.000568827
6.18692e-05
0.710438
0.0863259
8.14155e-05
5.40953e-06
0.717824
0.135105
1.43401e-05
1.08729e-06
0.693747
0.272161
3.40789e-06
7.6798e-07
0.67917
0.632164
0.242161
7.47595e-07
0.663182
0.63075
0.235084
7.47422e-07
0.415863
0.22326
0.0166543
8.1883e-07
0.0185275
0.000231144
0.000143562
0.000136452
5.91188e-05
0.000103461
0.000253117
0.000406164
3.82826e-05
7.45107e-05
0.00037878
0.00263881
2.34207e-05
7.71919e-05
0.00159648
0.00268154
1.34933e-05
0.000478774
0.00260946
0.00240491
1.27453e-05
0.00105157
0.00264186
6.02703e-05
3.35023e-05
0.00160968
0.00252101
7.32829e-05
0.000242364
0.00162295
0.000804822
8.2457e-05
0.000355213
0.00160576
7.06983e-05
0.000124347
0.000357398
0.00112601
4.75748e-05
7.73412e-05
0.000334231
0.00105921
2.20702e-05
1.44533e-05
0.000626022
0.00103093
0.000251131
2.20703e-05
0.000921197
0.000998865
0.000488927
8.39831e-05
0.000457234
0.000431946
0.000289063
0.000208392
0.000103781
0.000461173
0.000141426
4.10903e-05
0.00010196
0.000633581
0.000273739
3.85002e-05
0.000105354
0.000640012
0.000650134
0.000188852
5.24254e-05
0.000650134
0.000655207
0.00065697
6.87413e-07
0.000654208
0.00065697
0.00065697
1.88871e-07
0.000200493
0.000433928
0.000440809
5.03549e-08
7.46468e-07
1.68604e-05
1.61757e-05
1.24572e-08
1.95461e-07
1.41399e-06
9.24102e-07
2.92235e-09
4.68552e-08
2.54857e-07
3.14854e-07
7.44008e-10
1.03253e-08
4.14804e-08
5.21476e-08
2.66911e-10
2.17481e-09
6.40221e-09
6.43452e-09
1.33651e-10
6.35369e-10
1.23563e-09
1.40769e-09
6.7937e-11
1.69745e-10
3.83272e-10
7.1085e-10
3.69354e-11
6.89086e-11
2.55162e-10
4.73732e-10
1.90867e-11
6.31809e-11
2.02559e-10
3.58636e-10
7.95184e-12
4.66897e-11
1.29487e-10
2.21706e-10
0.827246
0.827918
0.59489
0.40172
0.50071
0.721775
0.549395
0.351117
0.351109
0.51805
0.900067
0.875115
0.727125
0.563967
0.487512
0.747756
0.907627
0.866774
0.905939
0.828484
0.82894
0.827918
0.820855
0.823686
0.823686
0.796218
0.585167
0.583205
0.861761
0.889393
0.454118
0.0580713
0.00770002
0.0110653
0.113494
0.655292
0.947187
0.947187
0.733247
0.763614
0.806085
0.80698
0.814977
0.821332
0.812168
0.805359
0.802527
0.698173
0.231236
0.00883363
0.00166801
0.00628772
0.01359
0.0138155
0.0493653
0.76358
0.947187
0.0760723
0.110833
0.176451
0.208994
0.285137
0.480278
0.640925
0.653636
0.268642
0.0613804
0.00299398
0.00069779
0.000208441
0.00547826
0.0168428
0.0202931
0.0145659
0.055654
0.75381
4.19843e-06
8.9967e-07
1.54504e-06
4.38425e-06
1.65672e-05
6.77577e-05
0.00029077
0.0351257
0.0192901
0.00130918
0.000559167
8.97162e-05
3.02959e-05
0.000204861
0.00534985
0.0266835
0.0127363
0.0122661
0.0681303
4.40191e-07
7.12548e-07
7.5918e-07
1.20469e-06
3.3347e-06
1.11794e-05
0.000196955
0.00102174
0.000306296
0.000250878
8.22767e-05
4.12885e-06
1.52867e-05
3.11409e-05
0.00119547
0.0267118
0.0266259
0.01226
0.00941425
7.15984e-07
7.15985e-07
7.09418e-07
7.8311e-07
1.26017e-06
3.33016e-06
6.0935e-05
0.000161544
5.14932e-05
4.32593e-05
4.11462e-06
2.00146e-07
4.10577e-06
1.51954e-05
0.00898314
0.0266259
0.00981552
0.0143497
0.00949965
7.15985e-07
7.04322e-07
7.15985e-07
9.98092e-07
2.76107e-06
2.75033e-06
2.76969e-06
2.76969e-06
1.01647e-05
7.32519e-06
2.06072e-07
2.06072e-07
1.98669e-07
0.000573569
0.0264262
0.0259462
0.00041177
0.00431473
0.00815187
7.37766e-07
7.15985e-07
7.93936e-07
2.1264e-06
1.09997e-05
1.60743e-05
1.04999e-05
7.9129e-06
7.42132e-06
1.70977e-06
2.80879e-07
2.05975e-07
2.72291e-07
0.00181598
0.02642
0.0144168
0.000274412
0.000410854
0.00742742
7.47422e-07
7.37514e-07
1.86674e-06
1.08427e-05
0.000408215
0.00205876
0.000927205
1.79512e-05
4.03446e-06
8.18665e-07
3.46739e-07
2.78182e-07
3.45267e-07
0.00541562
0.0264832
0.000831842
0.000265837
0.000752287
0.00390848
7.47422e-07
7.42403e-07
1.0488e-05
0.000424547
0.00391228
0.00462483
0.00459353
0.000817226
1.91119e-05
3.21541e-06
6.169e-07
3.503e-07
6.17305e-07
0.0111775
0.026303
0.000210315
0.000209683
0.00201692
0.00503818
7.47422e-07
6.22449e-05
0.000872812
0.00381209
0.00462483
0.00465393
0.00464622
0.00343289
0.000215909
7.9357e-06
1.30173e-06
6.18122e-07
2.95561e-06
0.0125618
0.0256333
0.000103645
0.000112391
0.00259454
0.00539178
0.000366705
0.00213933
0.00378393
0.00411726
0.00434112
0.00463902
0.00465377
0.00463902
0.000709827
8.94069e-06
1.77838e-06
1.26273e-06
4.58316e-06
0.00397369
0.0178851
6.56926e-05
4.63879e-05
0.00128203
0.00456346
0.00290276
0.00307765
0.00292673
0.00116251
0.000478066
0.00457366
0.00463902
0.0046018
0.0010968
5.58945e-06
1.49861e-06
1.31744e-06
4.88115e-06
0.000283466
0.0016573
4.63886e-05
1.34043e-05
0.00076502
0.00147193
0.0028663
0.00227133
0.000183563
7.99031e-06
9.73558e-06
0.00189517
0.00457366
0.00325952
0.000589662
1.77695e-05
1.74337e-06
1.23875e-06
3.40462e-06
5.42191e-05
7.11888e-05
8.90405e-05
2.98315e-07
0.000440609
0.00189281
0.00129551
1.37138e-05
7.99031e-06
6.67686e-06
7.99031e-06
0.000247475
0.00201228
0.000652172
8.53941e-05
8.44552e-06
1.17023e-06
1.18798e-06
4.2349e-06
5.28237e-06
0.000135926
0.000295922
4.82607e-12
6.97267e-10
0.00105296
2.01793e-05
8.38574e-06
6.67686e-06
6.04843e-06
1.64212e-05
1.92998e-05
0.000212483
6.32028e-06
2.59447e-06
6.95094e-07
9.25753e-07
9.68735e-07
1.74479e-05
0.000659839
0.000182718
0.00031151
7.43041e-10
8.00541e-10
1.32486e-09
4.3886e-05
9.99116e-05
9.75654e-06
3.8022e-06
2.09673e-05
4.77111e-05
0.000124321
8.77249e-07
7.16443e-07
2.7922e-07
7.29669e-07
9.25576e-07
9.37643e-05
0.00417557
0.000190039
0.000320866
6.85228e-10
4.0579e-09
2.73309e-08
8.65157e-05
0.000119361
2.72982e-05
9.32202e-07
1.00789e-05
1.87351e-06
2.5103e-07
1.8643e-07
1.64301e-07
1.42647e-07
3.83562e-07
6.63636e-07
0.000232604
0.00451993
0.000313383
9.22455e-05
6.11973e-10
5.84385e-09
3.52014e-08
0.000124422
0.000126336
2.40388e-05
3.29201e-07
3.4771e-06
3.68362e-06
3.60915e-08
3.57408e-08
4.47389e-08
7.96493e-08
1.37881e-07
5.39855e-07
0.000338364
0.00452674
0.00221502
6.15986e-10
4.89417e-10
8.89378e-10
1.59858e-08
0.000127294
0.000101839
1.80383e-06
2.64362e-07
6.49887e-07
1.58706e-06
3.48249e-08
3.04007e-08
3.04197e-08
4.09928e-08
7.02057e-08
3.06427e-07
0.000268631
0.00451611
0.00442202
7.20157e-10
3.57096e-10
3.57096e-10
3.57093e-10
0.000101571
1.2463e-05
2.64361e-07
1.59962e-07
7.82608e-08
3.82682e-08
3.04007e-08
2.95597e-08
2.87187e-08
2.93619e-08
4.47427e-08
4.6722e-07
0.000125228
0.00443414
0.00204712
1.87334e-09
3.63129e-10
3.57096e-10
5.50727e-10
3.08336e-06
1.22251e-06
3.55205e-07
2.64358e-07
1.5996e-07
7.75479e-08
3.64405e-08
2.8557e-08
2.8282e-08
2.77166e-08
2.95189e-08
3.54703e-08
6.0971e-05
0.00123394
3.16357e-07
6.61212e-09
3.8811e-10
3.37144e-10
5.72027e-10
1.30749e-05
3.08328e-06
1.22247e-06
1.15654e-06
8.4465e-07
4.81223e-07
1.40684e-07
2.75926e-08
2.77166e-08
2.75915e-08
2.76328e-08
2.7951e-08
3.8186e-05
4.11756e-06
1.42271e-06
2.93725e-07
3.61328e-08
3.42484e-10
2.21969e-10
0.00034137
0.000245322
1.08993e-05
8.23183e-06
6.3085e-06
4.19286e-06
1.52402e-06
6.85061e-08
2.72728e-08
2.76e-08
2.75881e-08
2.76328e-08
3.05264e-06
3.55937e-06
4.11756e-06
5.20286e-06
1.01381e-07
3.39458e-10
2.36794e-11
0.00059583
0.000738504
0.00075783
0.00069146
0.000477101
0.000247598
5.11611e-05
9.13032e-07
2.9018e-08
2.75439e-08
2.80145e-08
2.7951e-08
2.8402e-08
4.57685e-06
9.00455e-06
1.40518e-05
1.68185e-07
2.28714e-11
2.28714e-11
3.85002e-05
0.000637555
0.0014278
0.00149629
0.00154099
0.00161143
0.00116153
0.000250136
1.25876e-07
3.11233e-08
2.86501e-08
2.8402e-08
3.40909e-08
0.000257679
0.000234391
2.23019e-05
3.34756e-09
3.01504e-11
1.79733e-11
2.90065e-05
1.18033e-05
8.13371e-05
0.00100586
0.00161143
0.00163681
0.00162902
0.0016353
9.87766e-05
1.32851e-07
3.61242e-08
3.40909e-08
0.00010177
0.000422673
0.000419226
2.64561e-05
3.46298e-09
2.50949e-11
8.29356e-12
4.89583e-05
2.21855e-06
3.43965e-07
2.7216e-07
0.000202478
0.0013948
0.00163715
0.0016353
0.00140236
1.86775e-06
1.69563e-07
1.22536e-07
0.000418425
0.000422673
0.00028259
5.79874e-06
1.32816e-09
6.85763e-12
7.89752e-13
0.00059296
0.000112169
2.13042e-07
8.23804e-08
9.5691e-08
2.50118e-06
0.00144502
0.00163343
0.00162515
0.000276869
1.99645e-06
3.9093e-06
0.000409513
0.000422673
1.74801e-06
6.04168e-09
5.03446e-11
-6.02429e-13
7.27957e-14
0.00065697
0.000288092
8.23837e-08
5.41635e-08
2.27742e-08
2.83154e-08
2.47175e-06
0.00160413
0.00159813
0.00153264
0.000184451
0.000122539
0.000301845
0.000135471
1.46687e-09
-7.49206e-11
-1.24616e-12
9.82491e-13
1.82717e-15
0.000385991
4.63726e-05
8.6718e-08
2.27744e-08
1.33065e-08
2.20892e-09
5.26872e-10
0.000188325
0.00153277
0.00152147
0.00137917
0.000527199
2.02335e-09
7.65217e-11
9.42279e-13
-4.47831e-13
-3.55744e-14
-1.11582e-17
3.97828e-17
1.0944e-06
2.23601e-07
1.09308e-07
9.41984e-08
4.45265e-08
7.60664e-10
6.23784e-10
1.66018e-10
6.57894e-05
0.00103245
0.00137078
0.000183744
7.65442e-11
3.02638e-12
1.03804e-12
1.69068e-16
-1.60137e-16
6.67053e-18
6.20809e-18
6.73281e-07
9.41869e-08
5.04299e-08
1.23169e-07
9.96701e-08
3.5633e-09
6.00538e-10
7.50394e-11
5.75843e-11
3.24198e-11
0.00109462
6.31789e-09
3.09732e-10
5.03434e-11
5.25117e-12
1.15045e-13
7.41194e-16
2.42196e-18
-1.4896e-18
2.81723e-07
1.14268e-07
1.99752e-08
1.85271e-08
1.41936e-09
3.41034e-09
2.55749e-09
1.11551e-09
1.4715e-10
2.86019e-11
3.24198e-11
2.40039e-07
1.53547e-09
1.85755e-09
1.69132e-11
2.16884e-13
1.10534e-15
3.0623e-19
-2.42807e-18
3.73014e-08
2.70952e-08
1.93719e-08
1.66463e-09
1.24051e-09
1.84311e-09
2.61605e-09
2.16225e-09
4.87365e-10
1.95857e-11
3.20349e-11
1.71005e-07
2.69328e-07
5.06255e-09
6.19506e-13
9.18778e-14
2.97649e-16
-6.06565e-27
-1.39677e-18
4.58809e-09
4.52213e-09
4.15158e-09
3.30721e-09
1.19176e-09
1.65449e-09
2.59588e-09
1.86905e-09
4.06354e-10
2.44623e-12
1.46471e-11
2.88135e-06
8.82055e-07
7.50495e-11
6.36899e-13
6.15203e-15
1.97157e-17
-1.62094e-28
-4.89575e-19
1.27711e-09
1.56403e-09
1.33861e-09
8.68258e-10
8.4842e-10
1.43028e-09
1.32854e-09
6.26044e-10
6.38975e-11
8.99061e-14
7.17418e-09
5.73889e-06
9.84513e-07
6.78301e-11
4.70354e-13
3.24172e-15
8.44155e-18
-2.24603e-20
-1.06402e-19
8.62499e-10
9.67896e-10
8.55867e-10
5.37191e-10
5.65332e-10
7.29018e-10
3.90309e-10
6.11203e-11
3.74683e-13
2.58435e-15
2.1155e-08
5.9194e-06
5.13183e-07
2.76908e-11
1.51651e-13
7.32527e-16
1.46437e-18
-2.21394e-20
-1.08202e-20
6.20791e-10
6.07732e-10
4.92785e-10
3.29887e-10
3.71412e-10
2.77356e-10
6.69788e-11
1.60788e-12
1.98646e-15
4.64996e-17
7.22587e-06
6.00402e-06
7.27549e-08
2.7711e-12
1.49058e-14
5.05087e-17
7.51329e-20
-1.89906e-22
-1.88079e-38
4.29853e-10
3.97951e-10
2.81683e-10
2.11368e-10
1.61127e-10
7.06088e-11
6.31458e-12
1.45428e-14
6.44583e-19
3.90407e-26
6.95117e-05
3.1946e-06
5.66304e-11
2.06792e-13
-3.54176e-14
8.93801e-19
7.0452e-22
-3.23791e-24
-3.39028e-24
2.19191e-10
1.83896e-10
1.23798e-10
7.34277e-11
3.04531e-11
2.01264e-12
9.39046e-16
-1.35223e-27
-6.35175e-32
-3.03694e-19
6.79107e-05
2.01919e-07
-1.61472e-13
-1.93222e-14
1.39219e-16
1.79834e-21
-8.31596e-26
-6.14849e-28
0
)
;

boundaryField
{
    leftWall
    {
        type            zeroGradient;
    }
    rightWall
    {
        type            zeroGradient;
    }
    lowerWall
    {
        type            zeroGradient;
    }
    atmosphere
    {
        type            inletOutlet;
        inletValue      uniform 0;
        value           nonuniform List<scalar> 
46
(
8.72579e-17
4.85414e-17
-3.09261e-15
-1.04349e-14
-2.17448e-14
-3.03984e-14
-2.71795e-14
-1.35686e-14
-6.8938e-16
1.18485e-15
7.07579e-15
1.71558e-14
3.39395e-14
6.68046e-14
1.40492e-13
2.88494e-13
5.48523e-13
9.29823e-13
1.38253e-12
1.86622e-12
2.39612e-12
2.83997e-12
3.19412e-12
7.95184e-12
4.66897e-11
1.29487e-10
2.21706e-10
2.19191e-10
1.83896e-10
0
0
0
0
0
0
0
0
0
0
0
0
0
0
0
0
0
)
;
    }
    defaultFaces
    {
        type            empty;
    }
}


// ************************************************************************* //
