/*--------------------------------*- C++ -*----------------------------------*\
| =========                 |                                                 |
| \\      /  F ield         | OpenFOAM: The Open Source CFD Toolbox           |
|  \\    /   O peration     | Version:  2206                                  |
|   \\  /    A nd           | Website:  www.openfoam.com                      |
|    \\/     M anipulation  |                                                 |
\*---------------------------------------------------------------------------*/
FoamFile
{
    version     2.0;
    format      ascii;
    arch        "LSB;label=32;scalar=64";
    class       surfaceScalarField;
    location    "0.75";
    object      alphaPhi0.water;
}
// * * * * * * * * * * * * * * * * * * * * * * * * * * * * * * * * * * * * * //

dimensions      [0 3 -1 0 0 0 0];

oriented        oriented;

internalField   nonuniform List<scalar> 
4432
(
-9.83443e-07
9.83442e-07
1.18134e-06
-2.16478e-06
3.94385e-06
-2.76251e-06
5.53552e-06
-1.59167e-06
6.01807e-06
-4.82546e-07
5.8189e-06
1.99161e-07
5.3833e-06
4.35602e-07
4.93815e-06
4.45148e-07
4.53965e-06
3.985e-07
4.16601e-06
3.73644e-07
3.77752e-06
3.88487e-07
3.35067e-06
4.26846e-07
2.89364e-06
4.57031e-07
2.4388e-06
4.5484e-07
2.03631e-06
4.02488e-07
1.77138e-06
2.64934e-07
1.81849e-06
-4.71147e-08
2.34773e-06
-5.2924e-07
3.783e-06
-1.43528e-06
6.12833e-06
-2.34532e-06
1.05296e-05
-4.40123e-06
1.37303e-05
-3.20074e-06
1.293e-05
-9.98802e-07
1.98224e-06
1.09846e-06
-4.26205e-06
3.40872e-06
-5.07278e-06
4.71964e-06
-2.90259e-06
5.06687e-06
-8.29776e-07
4.92e-06
3.46028e-07
4.65904e-06
6.96561e-07
4.46647e-06
6.37716e-07
4.37714e-06
4.87838e-07
4.37312e-06
3.77663e-07
4.44008e-06
3.21521e-07
4.57792e-06
2.89015e-07
4.78915e-06
2.45796e-07
5.09121e-06
1.52782e-07
5.53172e-06
-3.80224e-08
6.21795e-06
-4.21295e-07
7.17051e-06
-9.99676e-07
8.62344e-06
-1.98217e-06
1.05931e-05
-3.40493e-06
1.38328e-05
-5.58511e-06
1.68121e-05
-7.3806e-06
1.20219e-05
1.58947e-06
2.39034e-05
-7.815e-07
2.76374e-06
9.12498e-07
-5.95604e-06
2.69138e-06
-6.85165e-06
3.74188e-06
-3.95309e-06
4.1806e-06
-1.26849e-06
4.31794e-06
2.08684e-07
4.36016e-06
6.54346e-07
4.39368e-06
6.04193e-07
4.41107e-06
4.70445e-07
4.38461e-06
4.04126e-07
4.30837e-06
3.97761e-07
4.19086e-06
4.06527e-07
4.04994e-06
3.86711e-07
3.90058e-06
3.02142e-07
3.75279e-06
1.09771e-07
3.54125e-06
-2.0976e-07
3.28528e-06
-7.43703e-07
3.0466e-06
-1.74349e-06
2.67659e-06
-3.03492e-06
2.86667e-06
-5.77519e-06
1.47031e-06
-5.98424e-06
-1.50754e-06
4.52239e-06
2.18099e-05
-4.61557e-07
3.2253e-06
5.68328e-07
-6.98593e-06
1.83456e-06
-8.11788e-06
2.6992e-06
-4.81774e-06
3.21064e-06
-1.77993e-06
3.64045e-06
-2.21128e-07
4.06164e-06
2.3315e-07
4.41447e-06
2.51362e-07
4.67042e-06
2.145e-07
4.80811e-06
2.66434e-07
4.8002e-06
4.05668e-07
4.6068e-06
5.99936e-07
4.19591e-06
7.97599e-07
3.54172e-06
9.56327e-07
2.6248e-06
1.02669e-06
1.44832e-06
9.66724e-07
-4.67945e-08
7.5141e-07
-2.17627e-06
3.85985e-07
-5.06221e-06
-1.4899e-07
-9.45198e-06
-1.38542e-06
-1.34066e-05
-2.02963e-06
-1.07848e-05
2.51374e-06
1.24637e-05
-1.02042e-06
4.24572e-06
-6.54061e-07
-7.35228e-06
5.40964e-07
-9.31291e-06
1.71224e-06
-5.98901e-06
2.72624e-06
-2.79393e-06
3.75183e-06
-1.24672e-06
4.64356e-06
-6.58575e-07
5.29168e-06
-3.96758e-07
5.64005e-06
-1.3387e-07
5.68016e-06
2.26323e-07
5.50745e-06
5.78373e-07
5.21345e-06
8.93937e-07
4.79561e-06
1.21544e-06
4.20558e-06
1.54635e-06
3.38783e-06
1.84444e-06
2.29736e-06
2.05719e-06
9.03926e-07
2.14485e-06
-8.4145e-07
2.13136e-06
-3.13693e-06
2.14649e-06
-6.42538e-06
1.90304e-06
-9.18187e-06
7.2685e-07
-7.11077e-06
4.73097e-07
5.74998e-06
-1.78354e-06
6.02926e-06
-2.31213e-06
-6.82369e-06
-7.58456e-07
-1.08666e-05
1.16328e-06
-7.91075e-06
2.56979e-06
-4.20043e-06
3.74828e-06
-2.42522e-06
4.79617e-06
-1.70647e-06
5.7225e-06
-1.32309e-06
6.52625e-06
-9.37619e-07
7.1945e-06
-4.41928e-07
7.62443e-06
1.4844e-07
7.70392e-06
8.14447e-07
7.24709e-06
1.67227e-06
6.1785e-06
2.61495e-06
4.47804e-06
3.54489e-06
2.2713e-06
4.26393e-06
-2.19141e-07
4.63529e-06
-2.75414e-06
4.66636e-06
-4.91352e-06
4.30587e-06
-5.74371e-06
2.73324e-06
-4.89433e-06
-1.22537e-07
-1.83857e-06
-2.58275e-06
3.911e-06
-6.83678e-08
6.09762e-06
-1.60791e-06
-5.28415e-06
-9.32102e-08
-1.23796e-05
2.90938e-06
-1.0906e-05
5.66811e-06
-6.958e-06
8.00417e-06
-4.76128e-06
9.94509e-06
-3.64739e-06
1.09841e-05
-2.36211e-06
1.0853e-05
-8.0649e-07
9.57552e-06
8.35536e-07
7.8945e-06
1.82946e-06
6.29654e-06
2.4124e-06
4.72442e-06
3.24439e-06
2.82616e-06
4.51321e-06
3.80215e-07
5.99084e-06
-2.50211e-06
7.14625e-06
-5.55228e-06
7.68546e-06
-8.0918e-06
7.20588e-06
-9.83582e-06
6.04989e-06
-9.41915e-06
2.31657e-06
-7.6036e-06
-1.93814e-06
-4.65798e-06
-5.52878e-06
-7.13732e-07
8.11256e-06
-2.01494e-06
1.09327e-05
-8.10426e-06
1.33174e-05
-1.47836e-05
1.61209e-05
-1.37226e-05
1.85254e-05
-9.35161e-06
1.96864e-05
-5.92232e-06
2.01905e-05
-4.15148e-06
2.03517e-05
-2.52324e-06
1.87988e-05
7.46361e-07
1.60276e-05
3.60672e-06
1.30148e-05
4.84234e-06
1.05614e-05
4.86574e-06
8.4699e-06
3.61756e-06
7.16476e-06
3.51934e-06
6.55752e-06
3.57602e-06
5.99707e-06
3.75574e-06
4.77483e-06
4.02085e-06
3.21193e-06
3.77014e-06
1.52791e-06
3.11726e-06
1.34408e-07
1.51904e-06
-4.08334e-06
1.21646e-06
-9.34315e-06
9.2262e-07
-3.92495e-06
-2.13927e-06
2.16325e-06
-2.10817e-05
1.89664e-05
-2.16189e-05
1.48742e-05
-2.14585e-05
2.97424e-06
-1.44658e-05
-8.01954e-06
8.51294e-06
-1.77873e-05
2.73773e-05
-1.36751e-05
3.11319e-05
-8.30066e-06
3.27212e-05
1.32725e-06
7.01485e-05
1.06909e-05
5.0324e-05
1.99622e-05
3.37528e-05
1.66582e-05
3.87392e-05
-4.89923e-06
5.22401e-05
-1.34138e-05
6.08799e-05
-1.05985e-05
5.85519e-05
1.88613e-06
3.95145e-05
1.90369e-05
9.56033e-06
2.99546e-05
9.56072e-06
-9.58959e-06
1.17768e-05
-1.47574e-05
1.98495e-05
-4.46285e-06
4.86505e-06
-2.80405e-06
2.50098e-07
9.29787e-06
-1.8901e-05
2.27882e-05
-2.81095e-05
1.62883e-05
-4.64576e-06
6.08529e-06
-3.82813e-07
9.09456e-06
7.87298e-07
3.94998e-05
1.79056e-06
7.24008e-05
9.95336e-06
4.36129e-05
8.9756e-06
2.12775e-05
1.75233e-05
6.8812e-06
-3.06098e-06
1.08751e-06
-6.69298e-06
5.04393e-06
-1.73409e-06
2.18429e-05
7.93656e-07
2.91363e-05
1.89461e-05
3.86974e-05
-6.82733e-07
1.23432e-05
-9.42282e-07
7.56463e-06
2.88424e-07
2.52096e-06
2.88207e-06
-3.43291e-06
6.66096e-06
-2.16775e-05
4.66196e-06
-2.48482e-05
3.4974e-07
-8.35417e-07
-8.57338e-07
3.21034e-07
-1.79926e-06
1.22036e-06
-1.0007e-05
2.38674e-06
-1.60935e-05
2.77205e-06
-1.1956e-05
2.31612e-06
-3.20763e-06
2.66682e-06
-3.949e-06
-1.41476e-07
-1.61032e-07
-4.34565e-06
3.94764e-06
-4.07973e-06
5.9709e-06
2.3319e-07
2.07006e-05
3.88883e-06
6.1465e-05
6.15464e-06
3.28181e-07
2.27638e-06
4.0437e-06
2.79506e-06
6.4903e-07
8.01032e-06
-6.46579e-06
1.25769e-05
-2.63526e-05
1.38051e-06
-1.01921e-05
-1.86306e-06
1.58992e-06
-3.85995e-06
1.81469e-06
-8.34449e-06
4.83897e-06
-1.45061e-05
6.32366e-06
-2.02453e-05
8.90311e-06
-4.45806e-06
2.95227e-06
-3.87237e-06
8.49301e-07
-3.57307e-06
-2.78222e-06
-8.81066e-07
-9.5736e-06
1.41457e-06
-4.46334e-07
3.8193e-06
-6.70874e-07
5.59244e-06
1.76799e-06
6.21507e-05
3.38634e-06
-6.23987e-06
1.82535e-06
3.23694e-06
6.55469e-06
-5.6734e-06
1.04671e-05
-1.24417e-05
7.32042e-06
-2.17959e-05
-9.00044e-08
-3.02565e-07
1.75478e-07
7.23188e-07
-1.04403e-05
4.26038e-06
-2.05187e-05
6.00883e-06
-2.22984e-05
9.45392e-06
-6.03762e-06
1.01722e-05
-6.08229e-06
2.32853e-06
-6.38538e-06
5.34707e-07
-6.80375e-06
-2.05186e-05
-3.67008e-06
-2.75904e-05
8.44615e-10
-6.99413e-06
1.83015e-06
-6.72086e-07
1.7474e-06
1.46506e-06
4.01468e-05
-6.52124e-07
-4.38677e-06
5.01341e-06
-8.08668e-06
1.29463e-05
-1.87398e-05
1.24204e-05
-1.51886e-05
1.51194e-07
-1.57166e-06
-2.29249e-07
5.24352e-08
-3.01198e-07
5.86053e-07
-8.87715e-06
2.85317e-06
-2.37484e-05
3.5389e-06
-9.55602e-06
1.18662e-05
-3.25587e-06
3.69483e-06
-2.91627e-06
1.79876e-06
-1.17293e-05
-1.37258e-06
-3.44521e-06
-2.81107e-05
-1.4324e-06
-3.05703e-05
6.6435e-07
-2.5047e-05
7.11271e-07
-1.0666e-06
2.22654e-07
1.58896e-06
3.67612e-05
9.51983e-07
-9.21642e-06
1.22579e-05
-2.29202e-05
8.48559e-06
-6.43024e-06
1.51498e-06
-1.15039e-09
-5.613e-08
-8.62943e-10
-1.50554e-08
5.47849e-09
2.53278e-07
2.92335e-07
-3.15221e-06
1.46153e-06
-1.29396e-05
4.36045e-06
-3.41477e-06
1.19782e-05
-2.06513e-06
2.23158e-06
-1.21496e-06
9.06346e-07
-1.77142e-06
-9.19255e-06
2.46183e-06
-3.19476e-05
2.26735e-06
-2.92651e-05
1.72974e-06
-2.19286e-05
8.68269e-07
-4.52312e-06
2.78132e-07
1.83099e-06
6.04788e-05
6.28386e-06
-1.80451e-05
6.43018e-06
-3.04876e-06
-5.42594e-11
-9.67973e-12
-1.21e-09
-2.80274e-11
-2.18141e-09
4.08204e-11
-4.95455e-09
7.93563e-09
1.0291e-07
1.81225e-07
-3.41183e-06
2.76081e-06
-1.16047e-05
4.23703e-06
-1.63109e-06
6.12144e-06
-1.16179e-06
1.65253e-06
-7.51007e-07
3.27845e-07
3.16325e-06
-2.22586e-05
3.71354e-06
-3.14579e-05
2.15256e-06
-2.87206e-06
8.31801e-07
-3.00177e-06
2.22112e-06
-1.05504e-05
1.60787e-06
2.11588e-06
6.84908e-05
8.45174e-06
-1.04667e-05
1.35815e-05
-1.32339e-05
1.45881e-05
-1.57793e-05
1.35113e-05
-1.26012e-05
1.1853e-05
-7.68368e-06
9.54654e-06
-3.55092e-06
7.93802e-06
-2.21404e-06
6.97951e-06
-1.68774e-06
6.21264e-06
-3.49427e-07
5.69948e-06
5.1856e-07
5.63923e-06
2.24606e-07
5.18464e-06
3.38774e-09
4.63561e-06
-4.1644e-08
4.39731e-06
-5.57738e-09
4.09418e-06
9.81395e-09
3.71954e-06
1.07357e-08
3.37849e-06
1.55644e-08
2.75414e-06
1.49963e-08
1.35697e-06
-6.13447e-09
-1.28473e-07
-3.7157e-08
-5.59659e-07
-1.40893e-08
-8.08405e-07
1.17792e-08
-5.34272e-11
-4.87346e-06
6.29347e-06
-1.67554e-05
1.02483e-05
-1.64978e-05
9.35478e-06
-1.24685e-05
7.5499e-06
-7.7545e-06
7.51781e-06
-4.67661e-06
8.16e-06
-2.7717e-06
7.05841e-06
-1.00603e-06
4.057e-06
-8.12443e-08
2.08144e-06
-2.11073e-09
1.35851e-06
-2.24933e-11
4.95692e-07
-3.5092e-14
4.79551e-08
1.79099e-10
5.99085e-09
-1.57201e-10
3.92502e-10
-5.88241e-12
9.63113e-09
8.02293e-12
1.98306e-08
-2.84289e-11
3.48254e-08
-7.23177e-11
4.92676e-08
-7.06842e-11
4.19414e-08
3.41331e-10
3.63299e-09
2.17913e-10
-1.19517e-08
8.80538e-11
-1.92377e-12
-1.68151e-10
-3.63212e-11
-1.78369e-11
4.14322e-06
-5.88586e-06
5.97692e-06
-2.96277e-07
5.41764e-06
-5.57665e-09
4.22962e-06
-2.23618e-11
2.21203e-06
-8.63497e-12
1.08873e-06
-3.35277e-10
8.33634e-08
3.25007e-10
2.13309e-09
1.08423e-11
2.24932e-11
-1.37933e-13
1.63177e-13
-2.36867e-13
2.72011e-14
-5.92015e-14
1.73559e-10
5.11463e-12
4.75593e-12
6.68946e-13
4.33746e-13
-1.10918e-12
-1.46787e-12
-6.40955e-14
-2.31101e-11
-1.74207e-11
-6.51028e-11
-2.5525e-11
-1.35409e-10
-1.16588e-11
1.70923e-10
-7.45789e-13
3.16061e-10
1.66445e-11
3.06148e-10
1.64829e-11
7.95836e-11
-6.12859e-12
-3.51759e-13
6.12085e-12
3.01874e-07
-5.36068e-12
5.59887e-09
-1.67187e-12
2.22199e-11
-5.32893e-16
-1.32526e-13
-8.24679e-15
-8.68711e-12
-6.0374e-14
-3.40164e-10
-3.40115e-12
-1.07987e-11
3.41217e-12
-1.30862e-14
5.82371e-14
-1.51026e-13
-2.6263e-18
-1.04747e-13
-9.97919e-16
-5.24696e-12
-2.26357e-15
-8.61489e-13
2.89256e-14
-6.94575e-14
-8.32175e-14
-3.10038e-14
-1.51144e-14
-1.22923e-13
-1.65436e-13
-2.92451e-12
-2.53519e-13
-3.17812e-12
-1.15691e-12
-1.48578e-11
-2.26237e-13
-1.64402e-11
-2.99575e-13
-2.39744e-12
1.75372e-13
9.84824e-12
6.56613e-13
5.69801e-13
2.42027e-14
4.14616e-16
8.26381e-15
-2.99955e-14
-5.25971e-12
-2.47906e-17
-1.70178e-12
-5.58721e-16
1.51054e-18
-8.80553e-15
1.68639e-20
-6.91798e-14
2.22045e-19
-3.47034e-12
9.60266e-21
-5.82249e-14
7.30048e-22
-6.50098e-18
-1.24781e-20
-9.21497e-18
-1.89521e-20
-1.00693e-15
-1.12707e-18
-2.8399e-14
-2.46135e-17
-1.05797e-14
1.46205e-16
-1.3542e-14
-2.18595e-16
-4.04974e-15
1.55498e-15
-1.30491e-13
-1.74912e-15
-6.33674e-13
1.09442e-13
-1.03634e-13
5.95784e-15
-3.28008e-13
-3.79783e-15
-6.52125e-13
-6.73038e-15
-5.505e-13
-1.27153e-16
-2.10059e-14
1.79234e-14
-3.88911e-16
1.87335e-15
2.57054e-17
-6.16671e-22
-4.69157e-12
3.40941e-12
-1.40284e-18
7.41135e-13
1.07703e-19
-3.87823e-24
3.25388e-19
-1.8916e-22
1.10949e-20
-9.66945e-22
1.51251e-21
-2.63326e-23
-2.98005e-22
1.32476e-23
-1.2788e-20
6.87636e-23
-2.67141e-20
1.47658e-22
-1.07629e-17
-1.81447e-21
-2.7698e-16
-8.82598e-21
-1.62294e-16
-8.8067e-19
-1.75374e-16
3.27908e-19
-7.47583e-16
3.77575e-18
-3.54447e-15
1.22794e-16
-8.98446e-15
-8.41706e-17
-3.25295e-15
1.68874e-16
-7.16072e-15
-7.00875e-17
-1.47506e-14
-1.30085e-16
-1.69584e-14
3.07367e-17
-1.83055e-15
4.32232e-16
-2.56134e-17
4.39605e-17
9.0592e-20
1.45389e-21
-3.40482e-12
1.65305e-12
-3.53418e-22
1.55288e-13
-3.70832e-22
-2.80376e-24
-1.14545e-21
-3.86498e-23
-2.73556e-23
-2.35003e-23
1.51824e-23
1.70617e-24
7.83152e-23
1.26643e-23
1.9874e-22
6.65224e-23
-3.15049e-21
2.12578e-22
-5.82349e-20
2.70387e-22
-1.5194e-18
2.49418e-21
-1.93948e-18
1.00872e-20
-2.71062e-18
3.07846e-20
-2.08539e-17
1.52064e-19
-8.11325e-17
1.38726e-18
-1.91472e-16
3.49447e-18
-4.03512e-17
3.7437e-18
-1.23055e-16
2.16736e-18
-3.06414e-16
6.07882e-18
-3.64437e-16
4.10687e-18
-4.25633e-17
8.94509e-18
-6.47355e-20
9.32982e-19
2.5789e-20
6.75368e-23
-2.91706e-14
-4.05048e-16
-2.06908e-23
4.9259e-16
-5.61272e-23
-4.57139e-26
-3.19623e-23
-1.48151e-22
1.19392e-24
-9.67961e-25
9.52357e-24
5.63898e-25
6.2512e-23
4.06145e-24
3.15746e-22
1.73694e-23
9.57299e-22
4.07624e-23
-4.92772e-23
4.48672e-23
-2.60901e-20
2.77287e-24
-2.56766e-20
7.24382e-21
-4.36161e-20
4.48537e-22
-3.20786e-19
2.5014e-21
-2.48269e-18
2.49154e-20
-3.77374e-18
1.74664e-19
-1.24309e-18
1.26888e-19
-3.36867e-18
1.4832e-19
-6.69699e-18
3.09731e-19
-7.16146e-18
3.57239e-19
-8.62728e-19
3.37698e-19
-5.09932e-21
2.45245e-20
6.66024e-21
-1.09052e-20
-4.47265e-16
4.06605e-17
-3.06204e-22
4.53261e-17
-3.32826e-22
4.49536e-24
-1.50533e-24
-8.11394e-22
3.05747e-25
-1.02605e-24
2.61748e-24
5.50931e-26
1.65731e-23
5.09805e-25
7.12644e-23
1.94848e-24
2.13313e-22
3.82528e-24
4.28922e-22
3.42591e-24
3.60442e-23
-2.87709e-23
-7.41831e-22
-8.31762e-24
-6.96907e-22
2.70207e-22
-5.60684e-21
3.70408e-23
-5.67354e-20
3.70523e-22
-7.26678e-20
1.80767e-21
-3.35631e-20
2.39664e-21
-7.73041e-20
1.56496e-21
-1.47504e-19
4.98607e-21
-1.48511e-19
8.36043e-21
-1.80567e-20
9.37294e-21
-6.24942e-21
4.72692e-21
1.05498e-20
-1.29083e-20
-1.56809e-17
9.35439e-16
-1.14319e-19
6.15509e-17
-1.33454e-21
6.74207e-20
-1.04589e-24
-8.57887e-23
2.55934e-26
-1.27061e-24
3.17954e-25
-1.5498e-26
2.02683e-24
3.24674e-26
7.97231e-24
1.12705e-25
2.17456e-23
1.92499e-25
4.83282e-23
1.44091e-25
9.00548e-23
-2.8603e-24
7.54924e-23
-1.78077e-23
-4.8427e-23
-2.4021e-23
-8.62461e-23
2.11478e-23
-7.77122e-22
3.7347e-24
-1.1393e-21
2.18175e-23
-6.1412e-22
4.26172e-23
-1.31319e-21
6.08583e-23
-2.83943e-21
2.0499e-22
-3.7874e-21
5.35515e-22
-2.8444e-21
1.40352e-21
-5.17021e-21
4.09584e-21
1.26831e-20
-1.37103e-20
-1.02933e-17
4.59103e-16
-1.97959e-19
6.53252e-17
-1.0581e-22
1.27296e-19
-1.03725e-24
-6.36202e-23
-3.0897e-26
-8.79152e-25
2.10505e-26
-1.00952e-26
1.30948e-25
7.25641e-28
4.66319e-25
2.49665e-27
1.09633e-24
3.66762e-27
2.31015e-24
2.04013e-27
5.87534e-24
-7.70335e-26
9.5754e-24
-9.27399e-25
7.28945e-24
-2.64332e-24
-4.86974e-24
-2.93004e-24
-7.81498e-24
2.86943e-25
-2.05049e-23
1.42329e-24
-3.01974e-23
4.861e-24
-6.83324e-23
1.81709e-23
-1.80619e-22
6.49245e-23
-4.73763e-22
2.34366e-22
-1.37751e-21
8.79602e-22
-4.23774e-21
3.63892e-21
1.20028e-20
-1.11399e-20
-1.17422e-17
3.30154e-16
-1.75311e-19
6.27048e-17
-7.63962e-23
1.00623e-19
-4.85641e-25
-3.71702e-23
-6.68716e-27
-3.13005e-25
4.99466e-28
-3.27802e-27
3.18213e-27
-4.71792e-29
9.67947e-27
-1.43104e-29
1.5294e-26
-2.80601e-29
2.16073e-26
-6.88274e-29
1.08938e-25
-2.16408e-29
2.86753e-25
-1.19626e-26
2.73054e-25
-6.71911e-26
-4.60614e-25
-1.02665e-25
-7.41224e-25
1.50434e-25
-2.08307e-24
4.50586e-25
-6.03675e-24
1.75962e-24
-1.92742e-23
8.3028e-24
-6.21167e-23
3.39071e-23
-2.0534e-22
1.37869e-22
-7.75861e-22
5.75205e-22
-2.75145e-21
2.51912e-21
9.48083e-21
-7.7187e-21
-1.39077e-17
3.60137e-16
-1.04969e-19
6.48243e-17
-3.64041e-23
5.17092e-20
-1.58313e-25
-1.54089e-23
-1.88816e-27
-1.09386e-25
-5.06955e-29
-1.05399e-27
-1.86838e-29
-1.21989e-29
-2.67417e-29
-1.61567e-30
-1.28366e-28
-1.70901e-30
-9.55291e-28
-4.11573e-30
-3.94655e-27
-8.32645e-30
-4.51558e-27
2.50728e-28
-8.02068e-27
1.075e-27
-4.69309e-26
8.65147e-27
-1.63057e-25
3.01173e-26
-5.22453e-25
1.31889e-25
-1.9064e-24
6.78215e-25
-6.83591e-24
3.38453e-24
-2.34207e-23
1.50701e-23
-8.5321e-23
6.6046e-23
-3.77095e-22
3.19388e-22
-1.54244e-21
1.66334e-21
7.34937e-21
-4.88126e-21
-1.45957e-17
5.34405e-16
-6.28823e-20
6.79192e-17
-1.3153e-23
3.48895e-20
-5.34165e-26
-4.79009e-24
-6.04486e-28
-3.49151e-26
-9.64683e-30
-3.04302e-28
-1.21229e-30
-2.94569e-30
-1.361e-30
-3.12274e-31
-3.22206e-30
-2.51468e-31
-1.61779e-29
-8.4311e-31
-9.08012e-29
-2.97311e-30
-5.02963e-28
-2.1526e-30
-2.49805e-27
9.80789e-29
-9.88607e-27
1.05294e-27
-3.68477e-26
6.15024e-27
-1.38941e-25
3.84655e-26
-5.31047e-25
2.12382e-25
-1.90474e-24
1.07203e-24
-6.77823e-24
5.10787e-24
-2.85705e-23
2.6505e-23
-1.57132e-22
1.65467e-22
-7.50002e-22
1.07391e-21
5.45582e-21
-2.53395e-21
-1.29964e-17
8.4534e-16
-3.94181e-20
7.00739e-17
-3.92679e-24
2.50925e-20
-1.79335e-26
-1.7411e-24
-1.77731e-28
-1.79445e-26
-2.44605e-30
-1.15904e-28
-2.22284e-31
-8.71555e-31
-2.2747e-31
-5.87814e-32
-4.10935e-31
-4.28516e-32
-2.42589e-30
-1.48419e-31
-1.49363e-29
-6.59943e-31
-8.39533e-29
-1.74993e-30
-4.02919e-28
7.69915e-30
-1.76273e-27
1.4635e-28
-7.38842e-27
1.3313e-27
-2.8803e-26
9.11679e-27
-1.07883e-25
5.212e-26
-3.81004e-25
2.83525e-25
-1.43697e-24
1.55467e-24
-7.09867e-24
1.00694e-23
-4.64407e-23
8.13081e-23
-2.62179e-22
6.3537e-22
3.81848e-21
-9.92063e-22
-9.24488e-18
9.74412e-16
-1.98629e-20
6.86147e-17
-1.59217e-24
1.40504e-20
-1.02868e-26
-1.45743e-24
-7.92563e-29
-1.78157e-26
-8.07236e-31
-1.00288e-28
-3.50414e-32
-4.98723e-31
-3.45081e-32
-1.14764e-32
-4.77908e-32
-6.23629e-33
-2.60822e-31
-2.39093e-32
-1.69272e-30
-1.3046e-31
-1.05703e-29
-5.17009e-31
-5.56501e-29
-6.52283e-32
-2.73879e-28
2.18244e-29
-1.17763e-27
2.60311e-28
-4.20607e-27
1.90686e-27
-1.40113e-26
1.14122e-26
-4.3811e-26
6.92175e-26
-1.37876e-25
4.50111e-25
-5.27533e-25
3.70565e-24
-1.86793e-24
3.98167e-23
-3.78735e-24
3.61909e-22
2.73028e-21
-1.83588e-23
-2.44884e-18
1.04094e-15
-7.11298e-21
5.91383e-17
-1.06412e-24
5.76666e-21
-8.40383e-27
-1.60528e-24
-5.97599e-29
-2.08637e-26
-4.74301e-31
-1.12367e-28
-8.30694e-33
-5.21933e-31
-3.51536e-33
-4.25806e-33
-4.51062e-33
-1.02288e-33
-2.52121e-32
-3.78901e-33
-1.7664e-31
-2.35576e-32
-1.15741e-30
-1.18327e-31
-6.13258e-30
-2.64909e-31
-3.05124e-29
2.53791e-30
-1.07742e-28
4.44875e-29
-2.29942e-28
3.53123e-28
1.20136e-28
2.34343e-27
6.55009e-27
1.59319e-26
6.96674e-26
1.21524e-25
7.98668e-25
1.59728e-24
1.04656e-23
2.19931e-23
9.76318e-23
1.91863e-22
1.94448e-21
7.47675e-22
-1.13509e-18
1.03132e-15
-2.0685e-21
4.22614e-17
-1.06996e-24
2.99776e-21
-9.82855e-27
-2.75887e-24
-6.36461e-29
-3.7804e-26
-4.10951e-31
-1.77908e-28
-3.77546e-33
-6.87889e-31
-3.87653e-34
-4.44141e-33
-4.27128e-34
-3.75601e-34
-1.99202e-33
-6.40382e-34
-1.35656e-32
-4.00712e-33
-8.06124e-32
-2.40967e-32
-3.12833e-31
-9.02681e-32
-2.35169e-31
1.33492e-31
1.13345e-29
6.43679e-30
1.1649e-28
5.87498e-29
8.99546e-28
4.62028e-28
6.59693e-27
3.27688e-27
5.66493e-26
3.38243e-26
1.02236e-24
1.22803e-24
1.33296e-23
1.24318e-23
8.12865e-23
1.09594e-22
1.29887e-21
6.94685e-22
6.63786e-18
8.25482e-16
-6.63061e-22
3.09543e-17
-1.17807e-24
2.8994e-21
-1.08733e-26
-6.95518e-24
-6.39457e-29
-7.91463e-26
-3.52168e-31
-3.50555e-28
-2.14606e-33
-1.18849e-30
-7.0035e-35
-5.46837e-33
-5.0878e-35
-1.5611e-34
-7.56277e-35
-1.23813e-34
-1.18429e-34
-6.58191e-34
4.19686e-33
-4.55922e-33
8.1203e-32
-2.27607e-32
9.52657e-31
-4.07455e-32
9.11154e-30
6.93353e-31
5.85328e-29
8.70399e-30
4.07975e-28
8.7522e-29
2.59133e-27
5.21149e-28
3.37297e-26
1.78779e-26
1.58783e-24
1.11898e-24
5.90713e-24
7.90355e-24
-7.12576e-24
-9.98217e-24
-4.95996e-23
-3.40235e-23
1.27554e-17
4.68704e-16
8.84202e-21
2.09576e-17
1.01139e-25
9.50719e-21
5.22871e-28
-3.11507e-23
-5.86285e-30
-2.54131e-25
-8.89713e-32
-1.21166e-27
-3.22791e-34
-3.96353e-30
5.11451e-36
-1.58964e-32
8.1899e-36
-1.58699e-34
1.42891e-35
-2.57208e-35
2.31953e-34
-1.0545e-34
3.16238e-33
-8.12745e-34
3.58788e-32
-4.96127e-33
3.46734e-31
-1.88795e-32
2.96632e-30
2.28227e-32
1.86918e-29
1.15956e-30
1.39451e-28
1.72469e-29
5.7394e-28
2.13798e-28
2.03863e-26
1.21156e-26
2.03729e-24
1.63804e-24
-5.70373e-24
-4.97309e-24
-1.5198e-22
-1.41149e-22
-9.39912e-22
-9.63423e-22
9.96161e-18
1.71429e-16
4.18707e-20
1.04864e-17
1.86523e-23
1.53785e-20
7.81365e-26
-7.51326e-23
5.6258e-28
-9.4309e-25
2.65762e-30
-4.54119e-27
1.39405e-32
-1.75117e-29
1.04425e-34
-8.1646e-32
8.56843e-36
-4.8326e-34
9.61695e-36
-2.11291e-35
6.4357e-35
-1.92504e-35
8.47578e-34
-1.36979e-34
9.29817e-33
-9.81359e-34
8.89189e-32
-5.22995e-33
7.32554e-31
-1.2698e-32
5.98973e-30
1.58946e-31
3.2364e-29
7.55371e-30
-5.62028e-29
-1.97092e-29
2.11094e-27
4.69152e-28
1.77708e-24
9.24853e-25
-2.54735e-23
-1.48363e-23
-3.20512e-22
-2.03075e-22
-1.1715e-21
-1.73658e-21
4.3975e-18
3.82919e-17
4.48866e-20
3.30613e-18
6.57202e-23
1.09286e-20
4.28127e-25
-6.12618e-23
3.07386e-27
-8.70489e-25
1.92217e-29
-6.93168e-27
1.17149e-31
-4.51403e-29
8.42306e-34
-3.13108e-31
1.45239e-35
-2.4014e-33
8.827e-36
-2.09484e-35
9.6649e-36
-3.38064e-36
1.74228e-34
-2.2148e-35
1.96894e-33
-1.79917e-34
1.92471e-32
-1.18715e-33
1.53545e-31
-4.67367e-33
2.09207e-30
-5.96959e-32
-2.9028e-30
-2.07258e-31
-4.2391e-28
-7.30932e-29
-1.40503e-26
-3.58268e-27
-8.71754e-26
-2.81477e-26
-4.46866e-23
-1.69286e-23
-4.22397e-22
-1.79541e-22
-9.3791e-22
-2.03021e-21
1.10783e-18
5.51525e-18
2.33367e-20
6.10502e-19
6.61028e-23
2.57012e-21
6.12342e-25
-2.27745e-23
5.99726e-27
-4.6656e-25
4.93024e-29
-4.50708e-27
3.77023e-31
-3.49922e-29
3.14905e-33
-2.84682e-31
3.06613e-35
-2.4015e-33
2.10019e-36
-2.28711e-35
2.09498e-36
-7.65417e-37
3.13969e-35
-3.45755e-36
3.68472e-34
-3.09471e-35
3.72907e-33
-2.36749e-34
2.88522e-32
-1.18212e-33
8.59007e-31
-4.5802e-32
-2.05631e-29
1.38084e-30
-7.37025e-28
-2.85694e-29
-3.09605e-26
-3.44817e-27
-1.28108e-24
-2.20298e-25
-5.22677e-23
-1.16242e-23
-4.19803e-22
-1.10999e-22
-5.45441e-22
-1.82902e-21
1.76933e-19
6.05789e-19
6.19525e-21
7.18991e-20
2.62258e-23
3.07775e-22
4.0984e-25
-4.43748e-24
3.91632e-27
-1.03086e-25
3.84429e-29
-1.19447e-27
3.70761e-31
-1.17085e-29
3.72654e-33
-1.23424e-31
4.06243e-35
-1.35147e-33
7.6694e-37
-1.4793e-35
5.6925e-37
-2.41673e-37
5.03768e-36
-5.26142e-37
6.28603e-35
-5.02923e-36
6.58182e-34
-4.1923e-35
5.3688e-33
-3.14525e-34
1.91214e-31
-6.87823e-33
-3.23202e-29
4.76914e-30
-9.22599e-28
6.1219e-29
-4.58701e-26
2.92513e-28
-1.75025e-24
-8.43447e-26
-4.72825e-23
-4.43264e-24
-3.38693e-22
-4.47814e-23
-2.2094e-22
-1.35194e-21
2.14542e-20
5.83462e-20
9.6866e-22
6.36755e-21
5.42685e-24
2.29879e-23
1.03203e-25
-5.64054e-25
1.20117e-27
-1.32595e-26
1.308e-29
-1.6833e-28
1.45477e-31
-1.93743e-30
1.68791e-33
-2.40708e-32
2.06386e-35
-3.03763e-34
1.00265e-36
-3.79215e-36
1.97062e-37
-5.69909e-38
6.86374e-37
-7.66252e-38
9.91379e-36
-7.74148e-37
1.06308e-34
-6.70379e-36
1.24598e-33
-1.7953e-34
5.76997e-33
7.64594e-33
-3.59183e-29
7.07731e-30
-9.53172e-28
1.32029e-28
-5.29192e-26
5.11353e-27
-1.69575e-24
7.69942e-26
-3.56448e-23
3.97964e-25
-2.3124e-22
-4.0397e-24
-3.93315e-23
-8.46495e-22
2.29126e-21
5.05362e-21
1.06861e-22
4.62936e-22
7.12417e-25
1.04507e-24
1.42626e-26
-5.13564e-26
1.84691e-28
-1.13272e-27
2.33346e-30
-1.50565e-29
2.909e-32
-1.95023e-31
3.74341e-34
-2.71171e-33
5.01517e-36
-3.75872e-35
1.79166e-37
-5.14442e-37
3.67395e-38
-7.99845e-39
9.18045e-38
-1.03818e-38
1.45617e-36
-1.12069e-37
1.58314e-35
-1.076e-36
3.25046e-34
-4.05922e-35
-2.67956e-32
1.44407e-32
-3.28333e-29
7.68238e-30
-8.54461e-28
1.63678e-28
-5.03402e-26
7.89376e-27
-1.37648e-24
1.47432e-25
-2.36182e-23
1.62085e-24
-1.3842e-22
6.29646e-24
1.33661e-23
-4.62378e-22
2.27943e-22
3.81681e-22
9.18077e-24
2.74845e-23
6.56104e-26
1.22349e-26
1.28771e-27
-3.3988e-27
1.8678e-29
-6.69259e-29
2.52044e-31
-9.10722e-31
3.37975e-33
-1.28809e-32
4.6761e-35
-1.92224e-34
6.67982e-37
-2.82289e-36
1.33891e-38
-4.10795e-38
4.63854e-39
-7.10677e-40
1.23642e-38
-1.30608e-39
1.996e-37
-1.49784e-38
2.46975e-36
-3.35623e-37
4.91549e-35
3.13961e-36
-4.04398e-32
1.74502e-32
-2.59919e-29
6.85484e-30
-6.79357e-28
1.58506e-28
-4.09197e-26
8.2223e-27
-9.76324e-25
1.50381e-25
-1.41226e-23
1.61265e-24
-7.53687e-23
6.7115e-24
1.68061e-23
-2.32586e-22
2.04717e-23
2.42749e-23
6.24129e-25
1.28463e-24
4.34502e-27
-1.87821e-27
7.96253e-29
-1.7079e-28
1.24298e-30
-2.93589e-30
1.74019e-32
-4.04138e-32
2.43429e-34
-6.05775e-34
3.51681e-36
-9.35207e-36
5.22578e-38
-1.41283e-37
8.81515e-40
-2.13418e-39
5.07839e-40
-4.55024e-41
1.54334e-39
-1.53533e-40
2.5401e-38
-1.88054e-39
3.77555e-37
-8.50577e-38
-6.40269e-36
1.03189e-35
-4.05074e-32
1.66588e-32
-1.82192e-29
5.26413e-30
-4.84675e-28
1.29827e-28
-2.90351e-26
6.84315e-27
-6.15165e-25
1.17909e-25
-7.65645e-24
1.16322e-24
-3.70337e-23
4.57919e-24
1.18299e-23
-1.07518e-22
1.5616e-24
1.25953e-24
3.32527e-26
4.51461e-26
2.22419e-28
-1.61064e-28
3.89582e-30
-6.18358e-30
5.86392e-32
-9.22762e-32
8.22458e-34
-1.28262e-33
1.17938e-35
-1.969e-35
1.77608e-37
-3.04235e-37
2.69242e-39
-4.60368e-39
4.98669e-41
-7.01082e-41
3.11465e-41
-2.45533e-42
1.96266e-40
-1.69752e-41
2.97958e-39
-2.38899e-40
7.96944e-38
-1.01166e-38
-1.83839e-35
1.31866e-35
-3.27184e-32
1.33883e-32
-1.14316e-29
3.55607e-30
-3.12186e-28
9.28639e-29
-1.82228e-26
4.81879e-27
-3.47334e-25
7.74598e-26
-3.78113e-24
6.96029e-25
-1.63691e-23
2.45798e-24
6.88069e-24
-4.62647e-23
9.57311e-26
5.16708e-26
1.35709e-27
1.11792e-27
8.24244e-30
-6.86546e-30
1.31732e-31
-1.5646e-31
1.87509e-33
-2.05607e-33
2.58917e-35
-2.86088e-35
3.88339e-37
-4.33203e-37
5.8639e-39
-6.4907e-39
9.63679e-41
-9.59266e-41
2.13468e-42
-1.43146e-42
1.5987e-42
-1.4953e-43
2.17252e-41
-1.72911e-42
3.62921e-40
-5.50862e-41
6.68412e-39
1.86657e-39
-2.05788e-35
1.22941e-35
-2.25077e-32
9.30039e-33
-6.45295e-30
2.13536e-30
-1.81986e-28
5.88476e-29
-1.01906e-26
2.94455e-27
-1.7644e-25
4.40575e-26
-1.70265e-24
3.60684e-25
-6.43328e-24
1.07606e-24
3.81277e-24
-1.91859e-23
4.55047e-27
1.62185e-27
4.21997e-29
1.73023e-29
2.11667e-31
-1.83039e-31
2.99245e-33
-2.76824e-33
3.97687e-35
-3.2818e-35
5.62429e-37
-4.44784e-37
8.30631e-39
-6.36572e-39
1.20324e-40
-9.00156e-41
1.79696e-42
-1.27128e-42
7.01476e-44
-1.84428e-44
1.18829e-43
-1.10467e-44
2.10785e-42
-1.61917e-43
4.00458e-41
-8.33973e-42
-2.41699e-39
3.51667e-39
-1.68045e-35
9.33456e-36
-1.34645e-32
5.64871e-33
-3.28002e-30
1.14408e-30
-9.59449e-29
3.32187e-29
-5.09184e-27
1.57906e-27
-8.06647e-26
2.19897e-26
-6.97436e-25
1.64424e-25
-2.19057e-24
3.7464e-25
2.20993e-24
-8.14548e-24
1.63417e-28
3.74939e-29
1.01546e-30
1.02928e-31
3.70605e-33
-3.23227e-33
4.53802e-35
-3.4567e-35
5.6342e-37
-3.75932e-37
7.76316e-39
-4.77004e-39
1.07041e-40
-6.25091e-41
1.48281e-42
-8.17284e-43
1.98676e-44
-1.0815e-44
3.17025e-45
-1.90401e-46
8.95849e-45
-8.1393e-46
1.80276e-43
-1.4308e-44
5.08316e-42
-6.65158e-43
-4.02854e-39
3.48286e-39
-1.11484e-35
5.97645e-36
-7.05626e-33
3.01065e-33
-1.49747e-30
5.46416e-31
-4.55817e-29
1.67013e-29
-2.27043e-27
7.45637e-28
-3.30867e-26
9.6675e-27
-2.58397e-25
6.61721e-26
-6.1344e-25
9.41346e-26
1.35389e-24
-3.76155e-24
4.3293e-30
6.05673e-31
1.92945e-32
-1.53276e-33
4.38562e-35
-4.35991e-35
4.66687e-37
-3.50863e-37
5.71334e-39
-3.47249e-39
7.25691e-41
-3.94857e-41
9.2838e-43
-4.61453e-43
1.20778e-44
-5.46381e-45
1.50098e-46
-6.63312e-47
9.16232e-47
-3.84711e-48
7.09543e-46
-5.57746e-47
1.4495e-44
-1.85412e-45
2.97535e-43
1.00055e-43
-3.50164e-39
2.55975e-39
-6.20681e-36
3.26384e-36
-3.23998e-33
1.4057e-33
-6.10473e-31
2.31511e-31
-1.93855e-29
7.44553e-30
-8.9903e-28
3.09354e-28
-1.20976e-26
3.73488e-27
-8.58227e-26
2.34297e-26
-1.26315e-25
1.24106e-26
8.13301e-25
-1.87645e-24
8.11169e-32
6.29997e-33
2.95178e-34
-4.40692e-35
4.28134e-37
-4.2414e-37
4.1069e-39
-2.71263e-39
4.52025e-41
-2.3739e-41
5.1526e-43
-2.33599e-43
5.99545e-45
-2.38098e-45
7.22097e-47
-2.49978e-47
1.37472e-48
-2.72782e-49
2.18236e-48
-1.63106e-49
4.7004e-47
-3.32346e-48
8.63614e-46
-1.54754e-46
-8.55678e-44
1.57165e-43
-2.23619e-39
1.50137e-39
-2.92536e-36
1.52123e-36
-1.2966e-33
5.71298e-34
-2.20181e-31
8.62657e-32
-7.30814e-30
2.91825e-30
-3.13426e-28
1.11987e-28
-3.90405e-27
1.25885e-27
-2.52446e-26
7.23691e-27
-1.37664e-26
-5.08941e-28
4.36763e-25
-9.27598e-25
1.0153e-33
3.6205e-35
3.27109e-36
-4.27876e-37
3.09941e-39
-2.43031e-39
2.63636e-41
-1.25312e-41
2.5387e-43
-9.35503e-44
2.54735e-45
-7.74951e-46
2.64609e-47
-6.74164e-48
2.96775e-49
-6.13341e-50
3.05835e-50
-8.28934e-52
9.02534e-50
-6.99134e-51
2.44534e-48
-1.7084e-49
5.93889e-47
-4.82291e-48
-1.15831e-43
1.23613e-43
-1.12515e-39
7.15606e-40
-1.16391e-36
6.00664e-37
-4.4757e-34
1.99803e-34
-6.93353e-32
2.7903e-32
-2.40898e-30
9.926e-31
-9.49823e-29
3.49582e-29
-1.09682e-27
3.65781e-28
-6.47368e-27
1.92443e-27
4.67004e-28
1.94528e-28
1.95141e-25
-4.10705e-25
7.53812e-36
7.84752e-38
2.33435e-38
-1.46175e-39
1.34555e-41
-6.03252e-42
9.85353e-44
-2.45637e-44
8.07766e-46
-1.50903e-46
6.9754e-48
-1.02545e-48
6.29168e-50
-7.42592e-51
3.92223e-52
-5.69551e-53
2.8193e-52
-8.92118e-54
4.12802e-51
-2.45213e-52
1.04128e-49
-1.03508e-50
7.12131e-49
2.8738e-48
-7.70983e-44
6.77551e-44
-4.52426e-40
2.76321e-40
-3.86367e-37
1.97906e-37
-1.3112e-34
5.90867e-35
-1.87179e-32
7.68982e-33
-6.81452e-31
2.87573e-31
-2.45756e-29
9.24673e-30
-2.63322e-28
9.00432e-29
-1.41813e-27
4.32456e-28
-1.46642e-28
4.11729e-28
6.88074e-26
-1.50359e-25
2.47454e-38
-9.37133e-74
8.92779e-41
-2.48379e-72
2.49535e-44
-2.40044e-69
1.51936e-46
-5.73383e-64
1.03293e-48
-2.3827e-62
7.48379e-51
-1.23758e-60
5.78649e-53
-7.83311e-59
1.25565e-54
-3.5772e-57
3.41147e-54
-1.83064e-55
1.25066e-52
-6.08768e-54
2.77966e-51
-3.25558e-52
-1.47043e-48
2.48956e-48
-3.49257e-44
2.73706e-44
-1.44081e-40
8.48675e-41
-1.04735e-37
5.30964e-38
-3.18192e-35
1.43983e-35
-4.2218e-33
1.7586e-33
-1.61153e-31
6.91111e-32
-5.29251e-30