/*--------------------------------*- C++ -*----------------------------------*\
| =========                 |                                                 |
| \\      /  F ield         | OpenFOAM: The Open Source CFD Toolbox           |
|  \\    /   O peration     | Version:  2206                                  |
|   \\  /    A nd           | Website:  www.openfoam.com                      |
|    \\/     M anipulation  |                                                 |
\*---------------------------------------------------------------------------*/
FoamFile
{
    version     2.0;
    format      ascii;
    arch        "LSB;label=32;scalar=64";
    class       volScalarField;
    location    "0.75";
    object      alpha.water;
}
// * * * * * * * * * * * * * * * * * * * * * * * * * * * * * * * * * * * * * //

dimensions      [0 0 0 0 0 0 0];

internalField   nonuniform List<scalar> 
2268
(
1
1
1
1
1
1
1
1
1
1
1
1
1
1
1
1
1
1
1
0.999996
0.999998
0.999998
0.9624
1
1
1
1
1
1
1
1
1
1
1
1
1
1
1
1
1
1
1
0.999994
0.999996
0.999998
0.928019
1
1
1
1
1
1
1
1
1
1
1
1
1
1
1
1
1
1
1
1
1
0.954413
0.90545
1
1
1
1
1
1
1
1
1
1
1
1
1
1
1
1
1
1
1
1
1
0.98247
0.921862
1
1
1
1
1
1
1
1
1
1
1
1
1
1
1
1
1
1
1
1
1
0.999835
0.996952
1
1
1
1
1
1
1
1
1
1
1
1
1
1
1
1
1
1
1
1
1
1
0.999999
1
1
0.999959
0.999767
0.999995
1
1
1
1
1
1
1
1
1
1
1
1
1
1
1
1
0.999999
0.999459
1
1
0.99979
0.99824
0.999732
1
1
1
1
1
1
1
0.981867
0.944315
0.902346
0.861594
0.82674
0.805433
0.783433
0.770382
0.729568
0.602453
0.494197
0.417338
0.417338
0.203898
0.0378614
0.0951001
0.128371
0.128368
0.0901897
0.0291965
0.228904
0.457663
0.457915
0.457915
0.457915
0.436091
0.403268
0.414146
0.414155
0.414155
0.417338
0.328735
0.0301471
0.0215942
0.0457701
0.0986834
0.0990913
0.0663608
0.0106019
0.0587787
0.207655
0.357771
0.457915
0.357895
0.0729841
0.0233185
0.0407322
0.313972
0.414155
0.416941
0.157899
0.0215942
0.0215942
0.0744257
0.0267987
0.00477581
0.00483637
0.00478752
0.0262107
0.184885
0.185779
0.059522
0.0104055
0.0228468
0.0223818
0.0183808
0.072271
0.407975
0.361971
0.0566018
0.0216829
0.0276448
0.078379
0.058142
0.00718645
0.00483637
0.0251085
0.124206
0.174551
0.00898001
0.00661248
0.0076913
0.00791063
0.0108464
0.0181727
0.0040347
0.39654
0.314977
0.030584
0.0217717
0.0841713
0.0796862
0.0127075
0.00167301
0.0185947
0.116851
0.124991
0.068919
0.00442142
0.00531799
0.0204052
0.0348747
0.0164152
0.0146591
0.00368966
0.326784
0.2186
0.0668613
0.0958361
0.096328
0.0320633
0.00011917
0.000542787
0.0168769
0.109927
0.109736
0.00295993
0.0035385
0.0122025
0.0497778
0.0499
0.0397731
0.00367375
0.00369193
0.178243
0.18257
0.181834
0.168755
0.0420164
3.23224e-06
3.64784e-05
0.000119068
0.00771501
0.0823806
0.102664
0.00239234
0.00280548
0.0149098
0.0498871
0.049649
0.0484884
0.00913613
0.0036752
0.187422
0.18147
0.124089
1.47188e-08
1.79824e-07
4.5308e-07
3.22627e-06
3.42694e-05
0.0158556
0.0814245
0.0678356
0.00224877
0.00247891
0.0438605
0.049649
0.0334697
0.0391677
0.0287915
0.00369193
0.228549
1
1
0.999925
0.999642
0.999721
0.999584
0.998285
0.926032
0.754407
0.62601
0.521513
0.395137
0.275282
0.197285
0.147318
0.114905
0.0954264
0.0919249
0.092504
0.08101
0.0500557
0.0187597
0.0320945
0.999965
0.998206
0.978812
0.899045
0.755946
0.587674
0.402803
0.194528
0.0650926
0.028529
0.011823
0.00162048
2.04632e-06
1.12401e-07
1.45052e-06
2.94578e-06
6.06877e-06
1.57656e-05
4.38706e-05
4.321e-05
3.45426e-05
1.26235e-07
7.46664e-08
0.68767
0.530093
0.367421
0.226849
0.106
0.0194001
6.7982e-06
1.4288e-07
8.53771e-11
3.39278e-09
6.62838e-09
5.34885e-09
4.41523e-08
7.18899e-09
2.52446e-08
1.14668e-07
5.79671e-07
2.49521e-07
1.22293e-06
1.62749e-06
1.54011e-06
3.92351e-07
1.06503e-06
0.00980776
6.15881e-10
3.04512e-13
5.29289e-12
9.44097e-11
1.84333e-09
3.62745e-08
8.38881e-11
-8.92238e-14
6.46114e-09
1.3361e-08
3.1346e-09
7.39194e-10
4.71737e-09
1.18615e-09
5.53064e-08
5.12848e-07
5.037e-09
2.79264e-08
4.67959e-08
5.20718e-08
2.22505e-08
7.01789e-09
6.15881e-10
3.04512e-13
7.62587e-16
-1.9425e-22
-2.91979e-17
-1.40885e-14
-3.05493e-13
-7.54159e-14
3.17235e-16
2.36385e-15
6.31757e-11
3.50402e-11
1.11264e-10
1.10975e-09
5.8051e-10
3.21868e-08
4.99399e-08
1.11292e-10
6.0801e-10
1.09139e-09
1.27926e-09
1.36084e-11
3.10856e-18
1.94032e-07
1.32995e-07
0
-2.54332e-15
-9.96293e-15
-3.77776e-16
-5.35147e-17
-1.14678e-19
-1.37586e-17
2.75533e-14
8.33461e-13
1.43104e-13
4.77497e-13
7.71805e-12
6.38959e-11
2.10467e-10
1.1312e-11
2.47942e-12
1.60528e-11
2.63478e-11
2.71774e-11
1.88177e-13
-2.13981e-29
1.50271e-07
6.42933e-08
3.79625e-19
1.15901e-17
3.78028e-17
9.92771e-19
-6.35485e-19
-4.06176e-18
-1.16811e-17
1.10602e-16
4.24804e-15
1.85854e-15
1.00598e-14
1.07962e-13
1.21941e-12
2.05605e-13
2.73409e-13
1.1193e-13
5.2787e-13
8.51884e-13
8.94971e-13
3.13279e-15
-6.94944e-34
7.1667e-09
5.93418e-10
7.5925e-19
2.05167e-18
8.15515e-19
-5.65179e-20
-4.97492e-19
-3.46527e-18
-1.71315e-17
-4.86236e-17
0
1.35225e-17
2.55263e-16
1.86405e-15
2.00651e-14
5.1865e-14
1.31903e-14
3.50363e-14
7.2114e-14
4.77454e-14
1.7785e-14
8.07466e-16
3.35141e-16
2.12506e-11
9.33644e-19
7.73261e-19
1.7912e-17
3.08222e-20
-1.75289e-20
-1.52916e-19
-9.23624e-19
-3.6554e-18
-1.01251e-17
-1.93894e-17
-1.60669e-18
5.71125e-19
2.29285e-17
3.73976e-16
1.48903e-15
7.74176e-16
1.18018e-15
2.27165e-15
2.24439e-15
1.3471e-15
2.8542e-16
5.25989e-16
2.13647e-11
1.5041e-12
4.56544e-15
4.37599e-17
3.3031e-20
-1.69544e-21
-1.9811e-20
-1.12931e-19
-3.99331e-19
-1.01431e-18
-2.18758e-18
-4.10913e-18
-3.58248e-18
6.011e-20
3.53834e-18
1.39225e-17
1.32161e-17
1.44632e-17
4.25799e-17
7.83126e-17
1.28058e-16
2.49403e-16
6.55888e-16
1.14097e-11
1.53306e-12
9.70242e-15
3.7836e-18
3.90156e-20
4.66864e-22
-1.36215e-21
-7.39686e-21
-2.37519e-20
-5.28922e-20
-1.10522e-19
-2.89545e-19
-4.99738e-19
-4.10786e-19
2.05426e-20
3.11153e-19
1.12792e-18
2.99036e-18
8.61188e-18
2.43997e-17
7.13661e-17
2.13912e-16
6.06351e-16
5.00366e-12
1.30969e-12
7.9094e-15
2.88978e-18
1.94599e-20
2.379e-22
-3.36162e-23
-1.87618e-22
-5.23211e-22
-8.00121e-22
-1.14497e-21
-6.05242e-21
-1.70964e-20
-1.77154e-20
2.90094e-20
1.14611e-19
3.3695e-19
1.14908e-18
3.8456e-18
1.27344e-17
4.29552e-17
1.5214e-16
4.81377e-16
4.73483e-12
1.18596e-12
4.44301e-15
1.42498e-18
6.65117e-21
7.67309e-23
2.40706e-24
1.16364e-24
4.1105e-24
2.37518e-23
1.23613e-22
3.12764e-22
3.85539e-22
1.82153e-21
9.94417e-21
3.31561e-20
1.22214e-19
4.78058e-19
1.74618e-18
6.25536e-18
2.39892e-17
9.96895e-17
3.62104e-16
5.71361e-12
1.14422e-12
2.72607e-15
5.3909e-19
2.39108e-21
2.6186e-23
4.17723e-25
8.57058e-26
1.46785e-25
6.65385e-25
3.9684e-24
2.33882e-23
1.30398e-22
6.29518e-22
2.56248e-21
1.05094e-20
4.32218e-20
1.74849e-19
6.70784e-19
2.69894e-18
1.26969e-17
6.42919e-17
2.65018e-16
8.30029e-12
1.11687e-12
1.91015e-15
1.7065e-19
8.88073e-22
8.56181e-24
1.17228e-25
1.83905e-26
2.20885e-26
1.1807e-25
8.06453e-25
5.02662e-24
2.83427e-23
1.40425e-22
6.60996e-22
2.99794e-21
1.28416e-20
5.40719e-20
2.26678e-19
1.08987e-18
6.44276e-18
3.90897e-17
1.85414e-16
1.05404e-11
1.06294e-12
1.15318e-15
8.07439e-20
5.93332e-22
4.45963e-24
4.4242e-26
3.53882e-27
3.5324e-27
1.71971e-26
1.22605e-25
8.51919e-25
5.47329e-24
3.05034e-23
1.62952e-22
7.70702e-22
3.3466e-21
1.50556e-20
7.22383e-20
4.20007e-19
3.17917e-18
2.27629e-17
1.29874e-16
1.08235e-11
9.32612e-13
5.2194e-16
7.32026e-20
5.95608e-22
4.16928e-24
3.21104e-26
7.90011e-28
4.7812e-28
2.37921e-27
1.89537e-26
1.46823e-25
1.0363e-24
6.31564e-24
3.74043e-23
1.7916e-22
8.06982e-22
3.96374e-21
2.17219e-20
1.66417e-19
1.69746e-18
1.3492e-17
9.79293e-17
1.07283e-11
6.87981e-13
2.05463e-16
1.08337e-19
9.62355e-22
6.18825e-24
3.92208e-26
4.05678e-28
8.12349e-29
3.34968e-28
2.84486e-27
2.41746e-26
1.85981e-25
1.23998e-24
8.01482e-24
3.84975e-23
1.87898e-22
9.8036e-22
6.24003e-21
8.9195e-20
1.04044e-18
5.45201e-18
5.54571e-17
9.49549e-12
4.93443e-13
1.42136e-16
2.26117e-19
1.96936e-21
1.13787e-23
6.13561e-26
4.08721e-28
3.11545e-29
5.20277e-29
4.19242e-28
3.87757e-27
3.21742e-26
2.33092e-25
1.6004e-24
7.84014e-24
4.30286e-23
2.15129e-22
2.16317e-21
9.07729e-20
5.2463e-19
-5.5602e-19
-2.32518e-18
6.5668e-12
3.45442e-13
2.43112e-16
4.54217e-19
4.12772e-21
2.57138e-23
1.3259e-25
7.88949e-28
1.57929e-29
9.63311e-30
6.08337e-29
6.03944e-28
5.3723e-27
4.18431e-26
2.98228e-25
1.55918e-24
1.02693e-23
3.41e-23
1.80148e-21
1.56208e-19
-3.81708e-19
-8.91089e-18
-4.95828e-17
3.18021e-12
2.00909e-13
4.16791e-16
4.27636e-19
5.85265e-21
4.9253e-23
3.04879e-25
1.953e-27
1.43091e-29
2.52878e-30
8.8784e-30
9.1491e-29
8.66786e-28
7.19653e-27
5.13733e-26
3.578e-25
2.95131e-24
-4.49739e-24
6.96171e-23
1.09016e-19
-1.37437e-18
-1.52318e-17
-7.27043e-17
9.92533e-13
8.32004e-14
3.71031e-16
3.17477e-19
2.55493e-21
3.49268e-23
3.54242e-25
3.09696e-27
2.70002e-29
1.63478e-30
1.49818e-30
1.34117e-29
1.34972e-28
1.19141e-27
8.14241e-27
1.78534e-25
-2.18203e-25
-2.81021e-23
-8.22392e-22
-4.51038e-21
-2.04547e-18
-1.71108e-17
-7.27494e-17
1.93887e-13
2.18073e-14
1.7059e-16
1.14033e-19
7.54071e-22
1.82786e-23
2.47733e-25
2.53238e-27
2.56893e-29
4.80016e-31
2.34598e-31
1.92108e-30
2.02807e-29
1.89594e-28
1.26742e-27
6.21619e-26
-1.3252e-24
-4.2256e-23
-1.5785e-21
-5.80701e-20
-2.10607e-18
-1.50324e-17
-5.81708e-17
2.57056e-14
3.55325e-15
3.85818e-17
3.02388e-20
2.50379e-22
3.06111e-24
6.73271e-26
9.66138e-28
1.30507e-29
2.06457e-31
3.39469e-32
2.69216e-31
2.94172e-30
2.87111e-29
2.04439e-28
1.21781e-26
-1.84904e-24
-4.72567e-23
-2.1004e-21
-7.15732e-20
-1.72537e-18
-1.10231e-17
-3.92217e-17
2.72309e-15
4.01703e-16
5.24646e-18
5.61874e-21
6.04993e-23
8.343e-25
1.37997e-26
1.92688e-28
2.76531e-30
4.69846e-32
5.47727e-33
3.70589e-32
4.11709e-31
4.05759e-30
4.40361e-29
3.28171e-28
-1.87568e-24
-4.47667e-23
-2.23061e-21
-6.40554e-20
-1.20547e-18
-6.99575e-18
-2.2897e-17
2.56613e-16
3.66181e-17
5.11942e-19
6.95852e-22
8.78465e-24
1.33366e-25
2.27263e-27
2.99905e-29
4.27676e-31
7.38501e-33
6.99364e-34
4.90044e-33
5.54331e-32
5.41279e-31
1.92114e-29
-1.4436e-27
-1.60167e-24
-3.76148e-23
-1.99496e-21
-4.90227e-20
-7.55018e-19
-3.96846e-18
-1.18831e-17
2.16224e-17
2.9024e-18
3.90809e-20
6.04776e-23
8.51376e-25
1.63444e-26
2.47947e-28
3.16189e-30
4.52397e-32
7.89879e-34
6.35516e-35
6.07018e-34
7.09784e-33
7.92759e-32
2.73755e-30
-2.07089e-27
-1.2086e-24
-2.85818e-23
-1.55363e-21
-3.3391e-20
-4.34517e-19
-2.08425e-18
-5.77892e-18
1.57668e-18
2.00647e-19
2.37856e-21
3.84651e-24
5.7222e-26
1.27936e-27
1.72852e-29
2.17042e-31
3.15524e-33
5.64356e-35
6.50742e-36
7.04871e-35
8.47852e-34
2.21719e-32
-3.47384e-31
-2.00954e-27
-8.22471e-25
-1.98387e-23
-1.07478e-21
-2.05543e-20
-2.30615e-19
-1.00467e-18
-2.62632e-18
9.63159e-20
1.18399e-20
1.15108e-22
1.92315e-25
3.47107e-27
6.33875e-29
7.71354e-31
1.00885e-32
1.5306e-34
3.03838e-36
6.87793e-37
7.69122e-36
9.66717e-35
4.58632e-33
-9.81848e-31
-1.60026e-27
-5.09664e-25
-1.2643e-23
-6.68643e-22
-1.15256e-20
-1.13328e-19
-4.42783e-19
-1.1292e-18
4.78067e-21
5.79167e-22
4.32927e-24
7.02833e-27
1.30207e-28
1.90955e-30
2.21476e-32
3.17542e-34
4.76459e-36
9.17598e-38
6.56461e-38
7.90176e-37
1.17615e-35
3.81507e-34
-1.10048e-30
-1.10356e-27
-2.88813e-25
-7.41047e-24
-3.76606e-22
-5.90733e-21
-5.15847e-20
-1.7625e-19
-4.75229e-19
1.86738e-22
2.28422e-23
1.27468e-25
1.77575e-28
2.88653e-30
3.52385e-32
4.51703e-34
6.13433e-36
8.2125e-38
1.13188e-39
5.62176e-39
7.4868e-38
2.52434e-36
-1.42623e-34
-9.14744e-31
-6.72588e-28
-1.49743e-25
-3.99064e-24
-1.92499e-22
-2.7672e-21
-2.16864e-20
-6.17013e-20
-2.07785e-19
5.54225e-24
7.07189e-25
3.01553e-27
2.95205e-30
3.67564e-32
3.81079e-34
4.46561e-36
5.39489e-38
6.69561e-40
1.51446e-41
4.47241e-40
6.55067e-39
3.30576e-37
-2.45946e-34
-6.27996e-31
-3.65001e-28
-7.08606e-26
-1.96739e-24
-8.91857e-23
-1.18095e-21
-8.37124e-21
-1.80267e-20
-1.00231e-19
1.19757e-25
1.66315e-26
5.82302e-29
3.15197e-32
3.01209e-34
3.07681e-36
3.23339e-38
3.52235e-40
3.96425e-42
1.85127e-42
3.19301e-41
5.54372e-40
2.02084e-38
-2.25053e-34
-3.68083e-31
-1.76519e-28
-3.0448e-26
-8.827e-25
-3.72931e-23
-4.56447e-22
-2.94205e-21
-3.93131e-21
-5.29952e-20
1.77441e-27
2.82256e-28
8.90748e-31
2.43847e-34
1.95107e-36
1.72087e-38
1.58559e-40
1.53089e-42
1.54134e-44
1.17743e-43
2.0772e-42
6.80758e-41
-6.36459e-39
-1.5418e-34
-1.86079e-31
-7.5787e-29
-1.17874e-26
-3.57397e-25
-1.3973e-23
-1.58416e-22
-9.31258e-22
-4.61289e-22
-2.82154e-20
1.63533e-29
3.1878e-30
9.58805e-33
1.08859e-36
7.11218e-39
5.3176e-41
4.20919e-43
3.5252e-45
5.98968e-47
5.96575e-45
1.17401e-43
5.12636e-42
-9.44828e-39
-8.50067e-35
-8.1101e-32
-2.86575e-29
-4.06692e-27
-1.29117e-25
-4.64254e-24
-4.88116e-23
-2.61989e-22
1.71711e-23
-1.37101e-20
7.75426e-32
2.08331e-32
6.55102e-35
2.0809e-39
1.02281e-41
6.3346e-44
4.20039e-46
2.94727e-48
9.46608e-48
2.49494e-46
5.79332e-45
6.61021e-44
-7.07012e-39
-3.83943e-35
-3.02257e-32
-9.4238e-30
-1.23234e-27
-4.09991e-26
-1.3485e-24
-1.3157e-23
-6.44441e-23
-6.05503e-24
-5.63729e-21
1.13203e-34
5.50619e-35
2.21004e-37
6.15126e-43
-1.08374e-57
8.01312e-56
5.03823e-54
5.71621e-52
3.084e-49
8.38418e-48
3.36229e-46
-1.68375e-43
-3.71178e-39
-1.41578e-35
-9.48205e-33
-2.64572e-30
-3.21516e-28
-1.12147e-26
-3.35914e-25
-3.04298e-24
-1.35763e-23
-1.199e-23
-1.85613e-21
1.77129e-68
1.77661e-68
1.91074e-68
6.61882e-61
5.94424e-58
7.32769e-56
4.22483e-54
1.78416e-52
6.44757e-51
1.99834e-49
1.00266e-47
-1.40938e-43
-1.44585e-39
-4.18386e-36
-2.44228e-33
-6.17583e-31
-7.02829e-29
-2.57096e-27
-6.98925e-26
-5.88288e-25
-2.38339e-24
-2.03623e-24
-4.7754e-22
1.77127e-68
2.38824e-67
2.50567e-64
4.57781e-62
5.83065e-60
5.42295e-58
3.59965e-56
1.79253e-54
7.60239e-53
2.7703e-51
1.6973e-49
-6.36268e-44
-4.13966e-40
-9.56727e-37
-4.96844e-34
-1.15223e-31
-1.23712e-29
-4.746e-28
-1.16848e-26
-9.15055e-26
-3.35248e-25
-2.534e-25
-1.02999e-22
5.99937e-74
6.90964e-72
8.69609e-69
3.36546e-66
8.2869e-64
1.30294e-61
1.90396e-59
2.12516e-57
1.68897e-55
1.21548e-53
1.18406e-51
-1.75512e-44
-8.25533e-41
-1.58981e-37
-7.48437e-35
-1.61086e-32
-1.64408e-30
-6.61225e-29
-1.4731e-27
-1.07593e-26
-3.54693e-26
-2.21309e-26
-2.19834e-23
1.44753e-85
7.33695e-82
2.92453e-78
4.25243e-75
3.89679e-72
2.37196e-69
1.19696e-66
4.38308e-64
1.07583e-61
2.54851e-59
5.88447e-57
-2.72396e-45
-1.01598e-41
-1.70116e-38
-7.40021e-36
-1.49747e-33
-1.46463e-31
-6.17039e-30
-1.24438e-28
-8.51564e-28
-2.5128e-27
-1.02085e-27
-4.3584e-24
0
8.11365e-96
8.53178e-92
1.44161e-88
-3.93031e-78
-1.72918e-79
-2.15138e-71
-3.7804e-72
-2.52861e-65
-5.25261e-66
-5.9039e-67
-1.71586e-46
-5.67906e-43
-8.73101e-40
-3.58832e-37
-6.93793e-35
-6.5633e-33
-2.89287e-31
-5.28777e-30
-3.41749e-29
-8.97633e-29
-1.58562e-29
-4.3886e-25
0.181102
0.212294
0.21374
0.213239
7.89644e-09
5.29521e-16
0.00303956
5.88314e-14
1.73709e-14
4.6786e-16
5.29522e-16
2.95913e-15
6.9395e-10
2.11248e-16
4.57231e-14
1.31526e-12
-2.70015e-24
3.15841e-17
8.4418e-15
2.18549e-13
-1.28772e-16
-4.52841e-16
1.53684e-15
3.99537e-15
-4.75474e-18
1.52315e-15
6.84704e-15
7.8567e-15
9.28921e-16
4.59916e-15
1.0724e-14
1.38911e-14
1.74977e-15
5.19808e-15
1.75654e-14
1.15997e-13
1.85646e-15
6.0721e-15
4.01239e-14
5.3601e-13
1.79042e-15
7.55388e-15
8.32428e-14
1.19455e-12
1.62768e-15
8.86137e-15
1.2633e-13
1.75317e-12
1.42201e-15
8.7278e-15
1.40114e-13
1.86843e-12
1.15956e-15
8.61902e-15
1.76188e-13
1.07383e-12
8.58018e-16
5.96409e-15
6.01294e-14
1.55255e-13
5.92927e-16
3.0613e-15
4.52031e-15
4.06321e-13
3.60284e-16
1.10801e-15
5.0366e-14
8.08796e-12
7.97429e-17
9.07665e-17
4.99198e-15
1.78549e-13
-1.03543e-16
-3.06812e-16
-1.87316e-19
-1.55163e-16
-2.42524e-16
-6.07529e-16
-6.97631e-16
-1.17818e-18
-2.87983e-16
-6.77009e-16
-8.27614e-16
-1.10843e-16
-2.53411e-16
-5.59591e-16
-6.04185e-16
-3.83902e-16
-1.80987e-16
-3.67927e-16
-3.36456e-16
-2.20183e-16
-1.09033e-16
-1.96805e-16
-1.53875e-16
1.50753e-14
-5.63255e-17
-8.48026e-17
-4.15043e-17
2.10363e-32
-2.51046e-17
-2.67968e-17
1.27579e-10
1.27708e-10
-9.98964e-18
0
2.32921e-11
2.77292e-09
-3.05498e-18
0
2.62274e-16
1.38679e-09
0
4.42995e-14
9.34731e-12
4.08973e-13
5.79586e-18
1.92113e-13
3.90136e-13
3.88369e-13
5.63936e-18
1.74293e-13
4.14448e-13
1.89494e-12
1.5312e-19
5.25077e-14
1.00789e-13
1.90643e-12
-3.33578e-19
3.68761e-15
6.23253e-15
6.33466e-13
-4.76591e-19
2.75303e-17
2.43671e-17
9.05597e-14
-4.91042e-19
-4.04621e-17
-6.45474e-17
-5.82237e-17
-3.57405e-19
-3.47753e-17
-4.81877e-17
-3.76896e-17
-2.00968e-19
-1.77279e-17
-2.01624e-17
-1.30008e-17
-9.19281e-20
-7.16724e-18
-6.31224e-18
-3.14279e-18
-3.429e-20
-2.45897e-18
-1.61403e-18
-5.92436e-19
-9.75043e-21
-6.69302e-19
-3.14787e-19
-8.23106e-20
-1.87404e-21
-1.26426e-19
-3.93173e-20
-6.94436e-21
-1.82826e-22
-1.21392e-20
-1.58332e-21
-1.07962e-22
0.0925467
2.18426e-10
3.9399e-09
1.47188e-08
1.79641e-07
2.3369e-06
2.79646e-05
0.0247375
0.0785269
0.0271394
0.00220668
0.00311862
0.0461624
0.0339854
0.0017148
0.00150503
0.0219541
0.00414444
0.231567
1.72667e-12
9.92864e-12
2.18426e-10
3.93979e-09
7.4361e-08
1.23872e-06
0.000157831
0.0226636
0.0486419
0.00250402
0.00220668
0.00246154
0.0461624
0.00264399
0.00150503
0.0011016
0.00385878
0.00544352
0.232216
5.88314e-14
1.72667e-12
6.17136e-11
1.05636e-09
2.28591e-08
4.49467e-07
0.000570896
0.00700047
0.00291731
0.000677414
0.00220614
0.00849328
0.0243678
0.00220017
0.00131137
0.000731634
0.000731634
0.00779084
0.232442
6.73058e-12
8.24237e-12
4.47802e-11
6.32374e-10
1.45312e-08
1.43741e-05
0.00043055
6.85299e-05
0.00014325
0.00025985
0.00266493
0.0213799
0.00165968
0.00221809
0.0153897
0.00281582
0.000704169
0.00819421
0.232243
3.06835e-12
9.49345e-12
2.61458e-11
2.85968e-10
6.7059e-09
7.58305e-06
3.91933e-05
2.4816e-05
4.48283e-05
0.000144145
0.00331519
0.0248196
0.00147812
0.00217705
0.0284876
0.0244389
0.000744315
0.00954153
0.186316
2.11309e-13
6.93759e-13
1.48912e-11
2.29875e-10
7.5164e-08
5.77995e-06
5.99052e-06
1.21527e-05
2.20783e-05
5.35114e-05
0.00428115
0.0159542
0.000856043
0.00102293
0.028731
0.0287912
0.00109609
0.0101752
0.0143785
7.32432e-13
4.5036e-12
1.53422e-11
2.02941e-10
5.28409e-09
4.9843e-06
4.71631e-05
2.78648e-05
3.34311e-05
9.16182e-05
0.00377933
0.000213962
0.000210915
0.00466542
0.0288424
0.0287788
0.00269681
0.00249437
0.00312619
1.95185e-12
1.04711e-11
1.52362e-11
1.21553e-10
2.30862e-09
5.49023e-08
5.12704e-05
0.000141126
0.000129452
0.000278796
0.000459042
0.000210905
0.000213054
0.0231933
0.0287788
0.0288274
0.0122563
0.00198826
0.12974
3.9507e-12
1.78358e-11
2.51494e-11
8.24218e-11
1.09925e-09
2.61724e-08
2.17125e-05
0.000168749
0.000172218
0.000140219
0.000150904
0.000673749
0.000210945
0.0279022
0.0285476
0.0287788
0.0238989
0.00204031
0.238491
6.86627e-12
2.42651e-11
4.50829e-11
5.61227e-11
2.99325e-10
5.95291e-09
6.54536e-07
6.59464e-05
0.000170547
4.36131e-05
0.00115869
0.00148241
0.000234842
0.024479
0.0281869
0.0284056
0.0204771
0.00237518
0.239975
9.73816e-12
2.59323e-11
3.96065e-11
4.131e-11
8.57078e-11
1.06297e-09
2.0046e-08
1.31659e-06
4.3934e-05
4.25056e-05
0.00375187
0.00147199
0.000319721
0.0162435
0.0258538
0.0137238
0.00379457
0.00230398
0.239967
1.05002e-11
2.23999e-11
2.31952e-11
3.83565e-11
2.23283e-08
8.21064e-08
6.3134e-08
1.13173e-07
5.27931e-07
1.99623e-05
9.96346e-05
0.000103313
0.00189735
0.012563
0.00281866
2.10531e-05
8.69611e-05
0.00146462
0.236233
8.49117e-12
1.40423e-11
1.16447e-11
3.27714e-11
5.32785e-10
3.38555e-07
1.42473e-05
3.01897e-05
3.54391e-06
8.47009e-06
1.01354e-05
0.000356354
0.0135387
0.00328569
2.10527e-05
1.14771e-05
2.17972e-05
0.000190814
0.238985
1.0796e-12
1.22849e-12
2.02533e-12
1.57651e-11
3.20027e-10
8.92587e-09
4.68149e-05
0.000119249
0.000114003
0.000104157
0.000275483
0.0102843
0.013623
0.0031975
1.14769e-05
5.15917e-06
1.60004e-05
3.7137e-05
0.249672
4.39863e-13
-1.10985e-11
-1.80797e-11
3.46939e-05
0.000142623
1.07639e-06
1.60227e-05
0.000108235
0.000100938
0.000232552
0.0102222
0.0137372
0.0137074
0.00200112
5.02573e-06
1.50608e-06
0.000109787
0.000269556
0.250041
1.23651e-10
1.97181e-08
0.000143014
0.0016903
0.0017973
6.19072e-06
7.89721e-06
9.67332e-06
4.61281e-05
0.00628723
0.013866
0.013767
0.00538686
6.17003e-05
1.3399e-06
6.80264e-07
0.000174083
0.000593467
0.250112
4.57618e-10
1.5552e-09
0.000297503
0.00182302
0.00182484
0.00145096
4.34082e-05
1.78519e-05
0.000252905
0.0139014
0.0139014
0.00371203
5.60914e-06
9.79767e-07
6.73943e-07
6.41724e-07
0.000107011
0.00104319
0.250058
4.02025e-13
9.97343e-11
0.000158232
0.00182303
0.000966037
0.00144776
0.000300538
3.14568e-05
0.00584886
0.0139316
0.00147492
5.66529e-06
1.05381e-06
6.72858e-07
6.41724e-07
6.41502e-07
0.000150547
0.00132635
0.250059
2.52711e-14
6.3377e-12
7.85e-06
0.000529183
4.63923e-05
0.00125301
0.000506035
9.89897e-05
0.0131872
0.0049424
9.13275e-06
1.50642e-06
7.67612e-07
6.56228e-07
6.41449e-07
6.41724e-07
0.000144152
0.000604162
0.0822656
1.30747e-15
3.52323e-13
5.3414e-10
1.47586e-05
4.28149e-05
9.91512e-05
0.000202085
0.00010551
0.00839757
0.000276789
3.70288e-06
1.3433e-06
8.91482e-07
6.90093e-07
6.44395e-07
6.41724e-07
9.52685e-05
0.000292669
0.000251447
-3.82803e-34
1.66224e-14
3.42245e-11
0.000124193
9.17378e-05
7.07301e-05
7.09514e-05
0.00154178
0.00122429
0.000165327
3.39397e-06
1.3556e-06
1.62627e-06
8.6722e-07
6.65487e-07
6.44395e-07
1.25374e-06
2.82373e-05
7.95512e-05
-8.41463e-32
6.53342e-16
1.75072e-12
0.00021231
0.000259033
7.07869e-05
7.54095e-05
0.00204564
0.00195434
0.000181418
1.92656e-06
3.11758e-07
1.37978e-06
1.60062e-06
8.51187e-07
6.65487e-07
7.94438e-07
2.23991e-05
5.11591e-05
1.06059e-08
1.75072e-12
2.17658e-10
6.64583e-05
0.0001619
0.00024832
0.000329789
0.000923397
0.000194376
1.98465e-06
2.66067e-07
7.61205e-08
3.08106e-07
1.78184e-05
7.04677e-06
1.48397e-06
1.09038e-06
0.000203669
0.000237587
2.05524e-06
3.85842e-07
6.34401e-10
1.21393e-07
7.50751e-06
3.83198e-05
0.000238834
0.000222018
5.63911e-05
3.36143e-08
1.45161e-08
2.59004e-08
4.04178e-05
0.000209603
0.000117216
2.68698e-06
1.24456e-06
0.000343944
0.000312939
1.69839e-09
3.60989e-06
2.24706e-05
2.88065e-05
3.05966e-05
1.70311e-05
8.31334e-06
1.01784e-06
1.82179e-08
2.85677e-08
2.58729e-08
2.58846e-08
9.31981e-05
0.000281884
0.000287938
2.89366e-05
1.82061e-06
0.000342592
0.000251806
1.31267e-10
2.99472e-10
1.26435e-05
3.06335e-05
3.05478e-05
2.09478e-05
1.10023e-06
4.52521e-09
2.59217e-09
3.52136e-08
3.81759e-08
2.35294e-08
6.4997e-06
0.0003002
0.000304553
7.63416e-05
4.2904e-06
0.000336632
0.000241321
9.41631e-09
1.1286e-08
1.16038e-07
1.84788e-06
1.63802e-06
3.42729e-07
7.14068e-09
2.59414e-09
2.03127e-09
8.58701e-08
8.97438e-08
1.57653e-08
2.30645e-08
9.7323e-05
0.000319885
0.000106783
9.12338e-06
0.000336702
0.00023944
1.1403e-08
2.54127e-08
2.85965e-08
2.75579e-08
2.75579e-08
3.44138e-08
3.6091e-08
1.0151e-08
9.36782e-10
8.79688e-08
8.97438e-08
6.79123e-09
1.20554e-08
1.25674e-05
0.000335533
0.000183059
1.46927e-05
0.000336632
0.000239383
6.64558e-13
1.57908e-08
3.50936e-08
3.83439e-08
3.88052e-08
3.87589e-08
3.61183e-08
6.33914e-09
5.07662e-10
5.86865e-08
1.3079e-08
1.92227e-09
4.83863e-09
4.94957e-05
0.000372212
0.000147782
2.09567e-05
0.00033491
0.000238791
5.47295e-11
2.15669e-09
2.34573e-09
2.8211e-09
1.68857e-08
2.33005e-08
1.18877e-08
1.93152e-09
3.14699e-10
3.45138e-11
4.88263e-12
1.33875e-10
9.17211e-06
0.000277178
0.000378747
0.000120539
2.51611e-05
0.000272606
0.00023891
1.23566e-12
6.78178e-13
6.78178e-13
1.0475e-09
3.2144e-09
4.73305e-09
4.29402e-09
2.49871e-09
2.77053e-10
4.52896e-12
7.26932e-13
4.73173e-12
7.48729e-05
0.000378746
0.000378746
0.000115006
2.80858e-05
0.000323732
0.0241431
3.10429e-12
1.84337e-12
6.78178e-13
2.68809e-09
4.9881e-09
4.96442e-09
3.23585e-09
7.35303e-10
1.64391e-11
3.71777e-13
-7.20639e-19
7.25887e-13
4.75145e-06
0.000349372
0.000378747
0.000116601
2.96762e-05
0.000598299
0.117778
1.89784e-12
8.33746e-13
2.41174e-12
1.97122e-10
1.62847e-09
1.17052e-09
1.84017e-10
2.1536e-12
1.81795e-12
2.04878e-13
-8.34575e-13
5.67443e-08
9.60075e-08
0.000195727
0.000378478
0.000175455
3.18309e-05
0.00126399
0.125649
1.38078e-13
5.28192e-14
1.43785e-11
4.41722e-12
3.48767e-12
2.99261e-12
2.68059e-12
2.68043e-12
1.94273e-12
5.39719e-13
-1.25323e-12
1.24123e-06
1.70501e-07
0.00019235
0.0003729
0.00032744
3.99229e-05
0.00236518
0.126574
-3.08357e-17
-1.1561e-17
5.98397e-12
7.47918e-12
8.01876e-12
8.01902e-12
6.11216e-12
1.90183e-12
4.24573e-13
1.66794e-14
-8.7652e-13
1.30736e-06
2.64563e-07
0.000188535
0.000365455
0.000259419
5.79636e-05
0.00372259
0.126835
-1.6744e-17
-5.09513e-18
4.07344e-14
2.40518e-12
5.54183e-12
4.03222e-12
1.20181e-12
7.48276e-14
2.03096e-14
4.2399e-16
-6.87415e-17
5.7643e-07
4.70431e-07
6.78561e-05
0.000361028
0.000128585
8.88598e-05
0.00610389
0.126903
-4.62637e-18
-1.14356e-18
2.19784e-14
1.38305e-12
1.28032e-12
5.7417e-13
7.92415e-14
7.2342e-16
2.33853e-32
-8.82722e-17
-1.3085e-15
1.76465e-25
3.54622e-06
5.38664e-06
0.000100185
4.0409e-05
6.33238e-05
0.006197
0.126915
-8.31124e-19
-1.78283e-19
7.57635e-15
2.54671e-13
1.60868e-13
3.88396e-14
3.22482e-15
-2.43568e-33
-3.90709e-16
-2.07758e-16
-3.32654e-15
6.54474e-10
2.82244e-07
9.15902e-07
1.64695e-06
1.74321e-05
3.98373e-05
0.00585052
0.126904
-1.10387e-19
-1.69943e-20
4.7792e-16
2.17384e-14
1.15566e-14
2.1945e-15
1.79936e-16
1.46582e-19
-3.06527e-16
-1.09225e-16
-7.61363e-15
1.97045e-08
5.0085e-08
4.00883e-07
6.80399e-07
7.16852e-06
4.46538e-05
0.0259914
0.115941
-1.0661e-20
-1.16624e-21
2.65317e-17
6.20901e-16
2.52728e-16
6.12967e-17
8.87888e-18
4.52259e-20
-1.40556e-16
-3.41958e-17
-1.3674e-14
1.95574e-08
3.40925e-07
3.92133e-07
1.00865e-06
1.49374e-05
0.00280613
0.0278838
0.0140696
-6.07043e-22
-5.26165e-23
-4.72035e-24
-4.18107e-25
1.23093e-19
9.4004e-19
2.27365e-19
1.94672e-21
-4.23923e-17
-6.04694e-18
-1.56068e-14
-2.0269e-25
3.31915e-05
1.00865e-06
4.66779e-06
0.000542422
0.00926568
0.0123418
0.00359907
-3.36668e-24
-1.54753e-24
-1.385e-25
-7.33937e-27
-2.96055e-28
-1.00329e-29
2.59838e-26
8.79896e-27
-6.43458e-18
-3.25258e-19
-1.04951e-14
-6.75156e-13
5.29299e-05
0.000113261
0.00120744
0.00367546
0.00666884
0.00359907
0.00359907
)
;

boundaryField
{
    leftWall
    {
        type            zeroGradient;
    }
    rightWall
    {
        type            zeroGradient;
    }
    lowerWall
    {
        type            zeroGradient;
    }
    atmosphere
    {
        type            inletOutlet;
        inletValue      uniform 0;
        value           nonuniform List<scalar> 
46
(
0
0
0
0
0
0
0
0
0
0
0
0
0
0
0
0
0
0
0
0
0
0
0
0
0
0
0
0
0
0
0
0
0
0
0
0
0
0
0
0
0.000113261
0.00120744
0.00367546
0.00666884
0.00359907
0.00359907
)
;
    }
    defaultFaces
    {
        type            empty;
    }
}


// ************************************************************************* //
