/*--------------------------------*- C++ -*----------------------------------*\
| =========                 |                                                 |
| \\      /  F ield         | OpenFOAM: The Open Source CFD Toolbox           |
|  \\    /   O peration     | Version:  2206                                  |
|   \\  /    A nd           | Website:  www.openfoam.com                      |
|    \\/     M anipulation  |                                                 |
\*---------------------------------------------------------------------------*/
FoamFile
{
    version     2.0;
    format      ascii;
    arch        "LSB;label=32;scalar=64";
    class       volScalarField;
    location    "0.625";
    object      alpha.water;
}
// * * * * * * * * * * * * * * * * * * * * * * * * * * * * * * * * * * * * * //

dimensions      [0 0 0 0 0 0 0];

internalField   nonuniform List<scalar> 
2268
(
1
1
1
1
1
1
1
1
1
1
1
1
1
1
1
1
1
1
0.999999
0.999999
0.999999
1
1
1
1
1
1
1
1
1
1
1
1
1
1
1
1
1
1
1
1
1
0.999999
0.999999
0.999999
1
1
1
1
1
1
1
1
1
1
1
1
1
1
1
1
1
1
1
1
1
1
0.999999
0.999999
1
1
1
1
1
1
1
1
1
1
1
1
1
1
1
1
1
1
1
1
1
0.999999
0.999999
1
1
1
1
1
1
1
1
1
1
1
1
1
1
1
1
1
1
1
1
1
1
0.999999
1
1
1
1
1
1
1
1
1
1
1
1
1
1
1
1
1
1
1
1
1
1
1
1
1
1
1
1
1
1
1
1
1
1
1
1
1
1
1
1
1
1
1
1
1
1
1
1
1
1
1
1
1
1
1
1
1
1
1
1
1
1
1
1
1
1
1
1
1
0.290779
0.290779
0.290758
0.27459
0.241684
0.278373
0.302906
0.36853
0.467501
0.62424
0.887903
0.837391
0.658621
0.658533
0.760295
0.89421
0.894228
0.891031
0.880886
0.290779
0.290758
0.127063
0.0367532
0.0373769
0.0376546
0.0390088
0.398706
0.792148
0.967948
0.968937
0.968329
0.820566
0.659338
0.762221
0.894217
0.89421
0.893873
0.880886
0.290637
0.28517
0.0367532
0.0367532
0.0367532
0.0375106
0.393641
0.897244
0.968222
0.968937
0.969021
0.969088
0.969017
0.785491
0.761401
0.894135
0.894012
0.796366
0.913283
0.290091
0.160032
0.0372228
0.0367532
0.0372228
0.356273
0.889286
0.955928
0.964224
0.968641
0.969082
0.969074
0.969096
0.968735
0.762454
0.893951
0.672891
0.663753
0.945006
0.28816
0.0382227
0.0377128
0.0372228
0.273895
0.873106
0.926774
0.944987
0.857603
0.70415
0.844544
0.969074
0.968737
0.967878
0.951746
0.891786
0.653956
0.656448
0.944996
0.163313
0.0461438
0.0381903
0.233467
0.86957
0.922596
0.912664
0.628479
0.230795
0.0418319
0.111266
0.65967
0.967916
0.966959
0.965346
0.667087
0.653956
0.653956
0.944515
0.16893
0.137667
0.354976
0.908151
0.941517
0.933052
0.645357
0.0779089
0.000604385
4.78679e-05
0.000111179
0.0403304
0.794973
0.965339
0.96307
0.686673
0.653956
0.654886
0.942787
0.583919
0.721741
0.971086
0.961503
0.953002
0.66761
0.0816893
0.000436705
2.81806e-05
1.57521e-06
1.78343e-06
0.0001112
0.225479
0.942144
0.961937
0.926811
0.654886
0.82108
0.953021
1
1
1
1
0.999988
0.999987
0.999994
0.999998
0.999999
1
1
1
1
1
1
1
1
1
1
1
1
1
1
1
0.999926
0.996197
0.981023
0.964011
0.971058
0.987826
0.994802
0.99846
0.99989
0.99999
0.999993
0.999995
0.999995
0.999996
0.999996
0.999997
0.999998
0.999999
1
1
1
1
0.507193
0.500511
0.476422
0.412418
0.381857
0.421864
0.477175
0.510623
0.549915
0.587567
0.608659
0.626042
0.647849
0.671601
0.692093
0.711607
0.729567
0.745542
0.75912
0.76913
0.775706
0.773401
0.765633
4.07177e-07
2.96668e-06
6.39149e-06
0.00925572
0.0255509
0.0284455
0.0177355
0.0122993
0.00917094
0.00218888
1.08585e-06
2.93986e-08
9.09453e-10
0.00138497
0.00719117
0.0134179
0.0195496
0.0251457
0.0297999
0.0330217
0.0318882
0.027193
0.011019
3.03214e-07
1.83455e-07
3.8712e-10
1.56499e-11
6.37123e-13
-1.07706e-28
-9.81544e-13
0
-3.5293e-24
-9.74313e-18
2.25857e-22
7.75062e-10
0
0
-1.45932e-10
-4.88083e-10
-6.37072e-10
-6.96319e-10
-5.27278e-10
1.72329e-27
8.50844e-12
2.96188e-10
1.83292e-09
2.98201e-07
1.49688e-08
3.19622e-10
9.49885e-09
4.08878e-10
3.13421e-11
-4.83174e-12
-2.58132e-11
-5.50125e-11
-1.01268e-10
-1.68664e-10
-2.61247e-10
-3.79154e-10
-5.10756e-10
-6.37237e-10
-7.39833e-10
-8.05101e-10
-7.97224e-10
-3.50259e-10
-2.1884e-25
2.8768e-10
1.83292e-09
1.01372e-08
6.75697e-08
7.30891e-09
1.07958e-12
2.53164e-13
1.21376e-10
9.43637e-11
6.74001e-12
-2.23e-11
-5.97401e-11
-1.19796e-10
-2.07777e-10
-3.20159e-10
-4.43049e-10
-5.55797e-10
-6.37817e-10
-6.7518e-10
-6.64749e-10
-5.64623e-10
-3.84776e-11
-3.11688e-12
3.47755e-08
1.48025e-06
1.00928e-05
1.20178e-11
7.02834e-12
5.17972e-16
-3.33923e-30
-5.25117e-13
-2.5942e-12
-9.65878e-12
-2.80703e-11
-6.56693e-11
-1.28296e-10
-2.15427e-10
-3.1613e-10
-4.09477e-10
-4.73325e-10
-4.93171e-10
-4.67375e-10
-4.07423e-10
-2.76454e-10
-6.43292e-12
9.22262e-07
1.28342e-05
2.72683e-05
3.23103e-05
6.45109e-14
4.0432e-15
0
-1.05944e-13
-6.65564e-13
-3.02176e-12
-1.03729e-11
-2.82356e-11
-6.30287e-11
-1.18014e-10
-1.88698e-10
-2.60496e-10
-3.12456e-10
-3.28979e-10
-3.06859e-10
-2.55262e-10
-1.92023e-10
-8.46669e-11
-7.53606e-13
2.05057e-05
3.24599e-05
3.24595e-05
3.24671e-05
3.6154e-15
3.12548e-15
-1.23622e-14
-1.08849e-13
-6.4478e-13
-2.79877e-12
-9.32411e-12
-2.46143e-11
-5.2819e-11
-9.41166e-11
-1.41619e-10
-1.81631e-10
-1.99374e-10
-1.89132e-10
-1.5584e-10
-1.1043e-10
-6.8526e-11
0
-3.44659e-27
2.87643e-05
3.24502e-05
3.24682e-05
2.50603e-05
1.89945e-17
-8.40047e-16
-1.14227e-14
-9.7824e-14
-5.65304e-13
-2.36243e-12
-7.53037e-12
-1.89381e-11
-3.8491e-11
-6.44434e-11
-9.01955e-11
-1.06349e-10
-1.05927e-10
-8.99405e-11
-6.45696e-11
-3.62545e-11
-1.62363e-11
3.89312e-10
8.52315e-12
4.67868e-06
2.98827e-05
3.22878e-05
6.58644e-06
-2.07082e-17
-7.03307e-16
-9.07076e-15
-7.5876e-14
-4.23632e-13
-1.70156e-12
-5.18804e-12
-1.2402e-11
-2.3767e-11
-3.71527e-11
-4.80155e-11
-5.16968e-11
-4.65118e-11
-3.52402e-11
-2.15094e-11
-7.43316e-12
0
1.84164e-08
6.38007e-09
1.23475e-09
2.44535e-06
6.47214e-06
4.43851e-06
-2.98512e-17
-4.88597e-16
-6.17442e-15
-5.00287e-14
-2.6855e-13
-1.03383e-12
-3.00553e-12
-6.8014e-12
-1.22315e-11
-1.77632e-11
-2.10975e-11
-2.06663e-11
-1.67736e-11
-1.1324e-11
-5.53809e-12
-2.09525e-14
3.70907e-11
2.50049e-08
2.00474e-08
1.2239e-09
4.82696e-10
4.81923e-10
4.82696e-10
-2.16424e-17
-2.84723e-16
-3.5007e-15
-2.73207e-14
-1.40612e-13
-5.17434e-13
-1.42997e-12
-3.05395e-12
-5.1399e-12
-6.92143e-12
-7.55136e-12
-6.73835e-12
-4.95125e-12
-2.97524e-12
-1.02183e-12
4.08478e-12
2.83561e-11
1.71767e-10
1.70142e-10
5.81157e-10
5.89645e-10
5.42801e-10
4.81923e-10
-1.24936e-17
-1.34613e-16
-1.59801e-15
-1.19695e-14
-5.89458e-14
-2.06897e-13
-5.42477e-13
-1.09204e-12
-1.72013e-12
-2.15264e-12
-2.16882e-12
-1.77755e-12
-1.19422e-12
-6.35629e-13
-8.9383e-14
1.83266e-12
1.8402e-11
4.80817e-11
3.12519e-10
1.15434e-09
1.52868e-09
1.48163e-09
1.2166e-09
-5.5491e-18
-4.93368e-17
-5.61495e-16
-4.02704e-15
-1.89514e-14
-6.33798e-14
-1.57631e-13
-2.99504e-13
-4.43182e-13
-5.19152e-13
-4.88556e-13
-3.72838e-13
-2.30946e-13
-1.06706e-13
-2.16425e-15
5.21192e-13
3.85068e-12
4.26927e-11
2.92743e-10
1.00149e-09
1.54764e-09
1.5514e-09
1.5514e-09
-1.77701e-18
-1.30801e-17
-1.41954e-16
-9.73696e-16
-4.378e-15
-1.39594e-14
-3.30079e-14
-5.94747e-14
-8.33298e-14
-9.24106e-14
-8.22964e-14
-5.8884e-14
-3.27554e-14
-1.13937e-14
5.19338e-15
9.65191e-14
9.8785e-13
9.73342e-12
5.31759e-11
2.24034e-10
7.51483e-10
1.20111e-09
1.10982e-09
-3.62775e-19
-2.22079e-18
-2.29276e-17
-1.5049e-16
-6.47575e-16
-1.97437e-15
-4.46036e-15
-7.67648e-15
-1.02818e-14
-1.09157e-14
-9.27508e-15
-6.10858e-15
-2.65124e-15
7.18043e-17
3.26201e-15
1.52147e-14
1.85371e-13
1.3653e-12
6.53302e-12
3.23791e-11
1.36653e-10
2.40215e-10
2.30404e-10
-3.52077e-20
-1.80904e-19
-1.77779e-18
-1.11912e-17
-4.62442e-17
-1.35435e-16
-2.94147e-16
-4.87325e-16
-6.2954e-16
-6.45407e-16
-5.19397e-16
-2.77691e-16
-3.28987e-17
2.83747e-16
8.81502e-16
2.57579e-15
1.96676e-14
1.16485e-13
6.09522e-13
3.41963e-12
1.20427e-11
1.91875e-11
1.9487e-11
-1.56291e-23
-5.96117e-23
-3.21005e-22
-1.07249e-21
-2.183e-21
-2.38528e-21
1.19985e-22
1.57845e-20
5.23492e-20
1.0077e-19
7.29751e-19
5.20528e-18
1.2241e-17
3.75928e-17
1.78065e-16
5.37604e-16
1.99291e-15
6.84875e-15
3.16772e-14
1.95056e-13
6.26376e-13
9.05008e-13
9.28416e-13
-3.5732e-24
-1.24004e-23
-6.87292e-23
-2.43047e-22
-5.45654e-22
-7.4485e-22
-4.29072e-22
-6.52497e-23
2.3983e-22
3.60026e-22
8.30822e-22
2.46213e-20
4.45784e-19
3.89443e-18
2.30383e-17
9.33373e-17
3.2089e-16
8.6499e-16
1.7598e-15
4.40219e-15
1.18235e-14
2.08692e-14
2.33489e-14
-5.27688e-25
-1.67474e-24
-9.52671e-24
-3.53546e-23
-8.60675e-23
-1.42164e-22
-1.53193e-22
-9.49589e-23
-4.25479e-23
-1.54967e-23
8.04797e-24
1.51034e-21
3.09105e-20
3.17251e-19
1.99165e-18
9.80767e-18
4.39977e-17
1.99917e-16
4.32554e-16
5.86745e-16
6.9662e-16
7.29615e-16
7.22867e-16
-3.72807e-26
-1.08264e-25
-6.21145e-25
-2.33568e-24
-5.76113e-24
-9.64285e-24
-1.05155e-23
-6.48244e-24
-2.87391e-24
-1.03725e-24
-2.87421e-25
2.8801e-23
1.13249e-21
1.65947e-20
1.4581e-19
7.00711e-19
4.34157e-18
1.76329e-17
4.69235e-17
9.60928e-17
1.58575e-16
1.93582e-16
1.96109e-16
-1.73546e-33
-7.77674e-34
-1.75834e-34
-3.3117e-35
2.40007e-30
1.64684e-28
5.05859e-28
4.63846e-28
1.77445e-28
2.7275e-29
2.96923e-29
5.24344e-26
2.03524e-23
5.04918e-22
5.88432e-21
3.82146e-20
2.19176e-19
1.00994e-18
2.62446e-18
4.65824e-18
5.34952e-18
5.29416e-18
5.09855e-18
-9.535e-42
-4.8468e-42
-1.07402e-42
-1.9502e-43
5.02524e-43
3.35373e-38
1.20699e-33
3.41998e-34
5.66284e-35
4.69812e-34
2.06863e-32
5.288e-30
7.69156e-26
7.35682e-24
1.28782e-22
1.21818e-21
4.93433e-21
2.43033e-20
6.47117e-20
9.80292e-20
1.04208e-19
1.01298e-19
9.59345e-20
-3.59401e-42
-1.78722e-42
-3.85065e-43
-6.79791e-44
-1.0937e-44
1.58503e-44
1.21026e-42
2.10584e-41
2.30525e-39
1.50494e-37
1.0188e-35
1.23748e-33
2.76804e-29
6.92336e-26
1.38414e-24
1.08015e-23
5.09615e-23
1.63935e-22
4.40536e-22
1.04982e-21
1.65236e-21
1.71496e-21
1.6185e-21
-8.4166e-43
-4.26849e-43
-8.9509e-44
-1.53429e-44
-2.40173e-45
-3.0177e-46
1.50631e-45
3.36064e-44
3.4654e-42
2.18501e-40
1.48897e-38
1.32243e-36
2.7546e-33
2.95941e-29
1.32609e-27
1.51913e-26
9.12162e-26
3.58459e-25
1.02746e-24
2.27038e-24
4.02963e-24
6.15276e-24
7.62627e-24
-8.94542e-44
-4.95397e-44
-1.0152e-44
-1.69004e-45
-2.56006e-46
-3.69974e-47
-5.2131e-48
-6.94063e-49
7.58148e-49
6.06984e-47
5.09442e-45
4.81383e-43
1.46392e-36
3.81647e-32
3.06506e-30
3.78247e-29
2.19997e-28
7.84746e-28
1.96319e-27
3.78955e-27
6.10309e-27
8.55052e-27
1.13402e-26
-1.09185e-50
-7.99712e-52
-7.65808e-53
-7.9116e-54
-8.23077e-55
2.26946e-53
1.94403e-52
9.87901e-52
2.64634e-50
1.15116e-48
4.60641e-47
2.41737e-45
1.49568e-43
7.46819e-40
1.83037e-36
3.15759e-35
2.19963e-33
5.15017e-32
5.04972e-31
2.7808e-30
1.00099e-29
2.58243e-29
5.28761e-29
-4.39004e-68
6.38126e-67
1.54068e-67
1.35335e-69
1.01089e-60
4.46055e-59
2.87142e-57
1.41923e-55
1.0036e-53
6.07539e-52
4.54099e-50
4.14111e-48
4.61338e-46
1.86996e-41
1.46697e-38
1.99326e-37
2.50516e-36
1.12583e-34
1.85966e-33
1.41678e-32
6.35046e-32
1.89563e-31
4.50695e-31
-2.19555e-68
-1.62704e-69
-1.54491e-70
-1.70252e-71
7.78495e-67
1.47637e-63
1.20941e-61
8.49482e-60
7.21897e-58
6.05223e-56
5.14987e-54
6.92594e-52
8.28654e-50
4.90034e-45
3.39577e-41
8.67762e-40
6.49565e-39
7.21329e-38
2.14148e-36
2.67314e-35
1.60432e-34
7.17119e-34
1.39434e-33
-7.09788e-69
-4.82373e-70
-4.37526e-71
-4.42022e-72
-4.07417e-73
8.42832e-72
5.39344e-69
6.6402e-67
6.04188e-65
7.75492e-63
1.03139e-60
1.51011e-58
1.57121e-56
3.68224e-50
3.85891e-45
7.20781e-43
9.21966e-42
4.65856e-41
5.8443e-40
1.35237e-38
1.32996e-37
6.50472e-37
1.64093e-36
-1.12652e-69
-7.16003e-71
-6.16269e-72
-5.48326e-73
-4.0812e-74
6.56038e-73
4.38329e-71
6.01654e-69
7.02645e-67
6.48719e-65
5.22574e-63
4.36401e-61
3.78729e-59
3.34153e-57
2.19105e-53
3.48471e-49
1.7965e-47
6.69811e-47
1.74046e-46
8.98698e-45
1.67462e-42
3.64027e-40
3.58984e-38
-1.44646e-93
-2.09767e-91
-4.02086e-91
-2.90944e-85
8.37945e-78
1.22899e-75
3.1945e-73
5.85275e-71
8.6598e-69
9.95247e-67
9.90248e-65
9.94017e-63
9.10603e-61
8.04948e-59
7.06745e-57
8.91499e-55
1.20537e-52
1.66523e-50
3.62514e-48
8.21896e-46
1.97567e-43
4.75178e-41
4.63587e-39
-8.84006e-94
-9.1491e-92
-2.29686e-91
-1.02112e-85
1.60744e-80
7.19874e-78
1.92677e-75
3.62678e-73
5.46232e-71
7.2374e-69
8.70662e-67
9.82057e-65
1.10806e-62
1.31799e-60
1.72772e-58
2.88852e-56
5.00158e-54
8.92601e-52
1.94168e-49
3.68681e-47
1.10585e-44
2.96566e-42
5.34664e-40
-3.9463e-94
-2.70416e-92
-9.9237e-92
-2.11688e-86
8.54946e-84
5.54993e-81
1.73857e-78
4.25349e-76
8.69316e-74
1.65631e-71
2.83813e-69
4.59075e-67
7.3792e-65
1.21202e-62
2.25295e-60
4.8593e-58
1.004e-55
2.36924e-53
5.82583e-51
1.47177e-48
5.04274e-46
1.3872e-43
1.0275e-40
-1.14147e-94
-4.23606e-93
-2.89384e-92
-2.07315e-87
1.71291e-88
8.65076e-85
3.98422e-82
1.38352e-79
3.88602e-77
9.6242e-75
2.67098e-72
7.26762e-70
1.84312e-67
5.31121e-65
1.54558e-62
3.93783e-60
1.25006e-57
3.65728e-55
9.43855e-53
4.24014e-50
1.30288e-47
5.80222e-45
9.66727e-42
-1.60345e-95
-8.78915e-95
-4.28635e-93
-3.25286e-88
-7.3063e-89
3.63737e-89
2.7243e-86
1.30406e-83
5.1568e-81
1.85667e-78
8.82638e-76
3.72325e-73
1.61344e-70
8.301e-68
3.1869e-65
1.65921e-62
6.17129e-60
2.39788e-57
1.159e-54
4.11318e-52
2.8486e-49
3.44483e-46
-1.3663e-45
-2.07014e-146
-9.97837e-126
-1.3404e-119
-5.39973e-107
2.37813e-95
3.54971e-94
2.18474e-91
1.53047e-88
8.66393e-86
5.09939e-83
3.93942e-80
2.2404e-77
2.00412e-74
1.27562e-71
1.14842e-68
7.3327e-66
6.35e-63
4.24568e-60
2.45767e-57
2.35942e-54
1.36675e-51
3.00215e-48
-9.03766e-46
-2.13408e-147
-3.02925e-126
-1.92746e-120
-8.1395e-108
-9.21723e-107
2.2877e-101
3.21361e-98
2.30583e-95
2.21308e-92
1.90151e-89
1.63802e-86
2.49222e-83
2.38066e-80
3.8878e-77
3.84116e-74
6.39752e-71
6.51938e-68
1.15149e-64
1.28791e-61
2.72503e-58
3.6671e-55
1.0809e-51
7.95906e-47
0
-6.22454e-127
-3.68011e-123
-6.12214e-114
-1.50683e-107
-1.63172e-108
-7.43863e-110
4.54325e-108
1.57576e-126
2.89092e-102
5.93747e-99
1.99167e-95
4.65334e-92
2.52716e-88
7.47774e-85
3.79926e-81
1.17634e-77
6.48367e-74
2.21248e-70
1.51655e-66
6.00662e-63
3.65777e-59
1.65936e-52
0
-6.47517e-128
-6.25368e-129
-1.49851e-127
-1.48037e-121
-5.44665e-123
-1.10996e-124
6.64708e-123
0
0
3.48497e-113
-2.67887e-132
5.34832e-106
1.26586e-102
0
1.98116e-95
1.09202e-92
4.50037e-88
1.30858e-84
-4.76245e-103
0
2.28984e-73
9.91823e-74
1
0.999987
0.999903
0.999717
0.999987
0.990795
0.969647
0.935355
0.637021
0.430257
0.307661
0.209689
2.2642e-08
1.64799e-08
1.63912e-08
2.54664e-07
9.82963e-09
1.63911e-08
1.63912e-08
6.93702e-05
4.37141e-08
1.64799e-08
1.63911e-08
0.000218672
1.82931e-05
2.47116e-06
8.4481e-06
7.02256e-05
3.21462e-05
1.30249e-05
2.60657e-10
4.98443e-11
1.35705e-05
3.67061e-07
5.2139e-11
5.15951e-11
1.8484e-09
6.32338e-11
6.29487e-11
6.31543e-11
3.52944e-06
1.5679e-07
5.70078e-11
6.04552e-11
5.36706e-06
8.36691e-07
3.99193e-11
2.65676e-11
1.27342e-06
6.93026e-07
1.12107e-08
8.65161e-10
4.86869e-10
4.92491e-10
2.64033e-08
6.78998e-09
7.30991e-10
4.91815e-10
2.67665e-09
2.49138e-09
1.40958e-09
7.61942e-10
1.60017e-10
1.52977e-10
1.06399e-09
8.56409e-10
3.34552e-10
9.02736e-11
2.51895e-10
2.98837e-10
2.64797e-10
1.17192e-10
2.70076e-11
3.68687e-11
4.18711e-11
3.57944e-11
1.04979e-12
1.32496e-12
2.04217e-12
2.42741e-12
8.92288e-15
6.03512e-15
8.32139e-14
1.95395e-13
5.86337e-16
4.00744e-16
6.12435e-15
1.27303e-14
1.64928e-16
5.32038e-17
1.67654e-16
3.21897e-16
4.51237e-18
3.16616e-18
1.50667e-18
3.21274e-19
1.10794e-19
1.16298e-19
1.06312e-19
5.83162e-20
1.4107e-21
1.0334e-21
3.47036e-22
4.17591e-21
6.91447e-24
2.64894e-24
8.22829e-24
5.91894e-21
1.38191e-26
1.83036e-26
6.46836e-24
1.07049e-20
1.01356e-28
2.63453e-27
6.2669e-24
1.69814e-20
9.2373e-31
1.46343e-27
4.57445e-24
2.56133e-20
4.16086e-32
5.89835e-28
2.23648e-24
3.60846e-20
1.11404e-32
1.52522e-28
8.67759e-25
4.71022e-20
2.21378e-33
2.78137e-29
2.82149e-25
5.57732e-20
3.86548e-34
3.42311e-30
7.1373e-26
2.71483e-20
5.08928e-35
3.12964e-31
1.2813e-26
5.42648e-21
4.12232e-36
2.3666e-32
1.49947e-27
1.01219e-21
1.62297e-37
1.27522e-33
9.99596e-29
1.17917e-22
6.94262e-40
5.02254e-35
2.49326e-30
1.72493e-23
8.38763e-41
5.95292e-36
8.03094e-34
5.86428e-24
3.55522e-48
-1.75657e-41
1.99761e-36
1.21589e-24
4.31829e-54
5.46895e-43
6.58571e-42
5.37119e-30
4.09091e-93
3.99503e-96
-4.1432e-43
2.06477e-33
0.999274
0.997754
0.988296
0.855713
0.520513
0.08082
1.00617e-05
1.04394e-07
3.2354e-08
-7.82068e-09
3.3874e-08
1.98233e-06
0.000219216
0.350231
0.946651
0.946771
0.871503
0.933276
0.953834
0.86528
0.724721
0.421364
0.0325329
4.79427e-06
1.22548e-06
-3.07089e-08
-2.95947e-09
-7.59809e-10
5.86464e-10
1.88101e-09
3.24924e-08
8.25495e-06
0.0006058
0.346863
0.901889
0.953003
0.953834
0.953957
0.071293
1.00454e-05
1.37876e-05
4.88416e-06
1.23494e-06
7.35632e-08
3.29971e-09
2.6044e-10
4.7986e-10
5.68472e-10
5.8395e-10
2.8657e-08
2.30282e-06
6.60121e-05
0.000728628
0.296853
0.859396
0.953957
0.954357
1.12815e-06
4.51118e-06
3.72956e-05
4.44892e-05
9.54336e-05
3.74384e-05
-8.67301e-10
2.63765e-10
4.7529e-10
4.81464e-10
1.14107e-09
1.31782e-08
9.63682e-07
1.3319e-05
0.000126923
0.000753011
0.489026
0.937606
0.955266
0.000159291
0.000204979
0.00020447
0.000184798
0.000118739
6.70773e-06
1.14395e-10
2.95918e-10
3.50721e-10
8.40624e-10
3.62846e-09
5.78755e-07
1.03182e-05
0.00011364
0.000529919
0.00247995
0.211949
0.867866
0.956058
0.000219801
0.000219801
5.03122e-05
4.67864e-11
4.67476e-11
4.68323e-11
1.15304e-10
1.88367e-10
7.12084e-10
1.47457e-08
4.80865e-07
8.57266e-06
0.00148228
0.0114948
0.00478357
0.00505651
0.279596
0.877902
0.956266
0.000123103
3.65228e-05
4.67973e-11
4.67476e-11
4.68607e-11
1.29818e-10
2.74903e-10
3.26164e-10
1.43098e-09
3.37385e-08
8.51084e-07
1.63727e-05
0.00021663
0.0560563
0.24961
0.205196
0.411518
0.926643
0.956299
4.71769e-11
4.70231e-11
4.67632e-11
4.9595e-11
9.85732e-11
2.08711e-10
2.77966e-10
3.02251e-10
8.17816e-10
1.62339e-08
4.06428e-07
1.11825e-05
0.000111357
0.0179153
0.44857
0.697093
0.533668
0.95633
0.956307
5.11905e-11
5.06166e-11
7.42852e-11
9.97546e-11
1.35187e-10
1.67348e-10
1.50242e-10
9.08087e-11
2.27416e-10
4.63782e-09
2.77677e-07
2.81204e-05
0.000138333
0.000294688
0.12227
0.795272
0.800295
0.956365
0.956316
6.52749e-11
8.91588e-11
1.10142e-10
1.10803e-10
1.2212e-10
1.24872e-10
9.85281e-11
3.09734e-11
5.92422e-11
1.03544e-09
7.46003e-08
2.37892e-05
7.45022e-05
9.39344e-05
0.000750728
0.57312
0.956376
0.956369
0.956239
6.30283e-11
8.3491e-11
8.64544e-11
7.59896e-11
5.77944e-11
6.07442e-11
5.29461e-11
2.20477e-11
2.43961e-11
1.86189e-10
1.40654e-08
5.1916e-06
9.13254e-05
0.000945689
0.000815987
0.23883
0.956375
0.956373
0.956305
2.62949e-11
3.27869e-11
3.41907e-11
2.47189e-11
1.89963e-11
2.08386e-11
2.60339e-11
2.13267e-11
1.62292e-11
3.82134e-11
1.38691e-08
2.65837e-08
0.000100894
0.00129675
0.00117713
0.154524
0.950302
0.956371
0.956371
1.01477e-11
9.98612e-12
7.3739e-12
5.34943e-12
5.02119e-12
6.59323e-12
1.23729e-11
1.59968e-11
1.40667e-11
1.62063e-11
9.90919e-11
3.3042e-09
6.1817e-05
0.00118657
0.000557726
0.0741503
0.792972
0.956371
0.956368
1.27384e-10
7.33304e-12
1.86137e-12
1.06368e-12
1.22881e-12
2.09181e-12
5.75153e-12
1.38847e-11
1.39106e-11
1.40667e-11
2.13618e-11
3.91573e-10
8.11749e-05
0.000498191
6.99e-05
0.0292151
0.662407
0.956368
0.956353
8.12224e-10
4.51305e-11
1.0783e-12
1.97426e-13
2.92237e-13
7.89034e-13
4.36466e-12
1.47087e-11
1.54807e-11
1.54808e-11
1.59894e-11
7.72804e-09
9.40194e-05
1.81793e-05
1.85119e-05
0.00154071
0.43273
0.95635
0.956329
1.59263e-10
6.05355e-11
3.93697e-12
9.11493e-14
1.27791e-13
4.65797e-13
3.73374e-12
1.71859e-11
2.1522e-11
1.9564e-11
1.80462e-11
2.20167e-11
3.30479e-05
9.7286e-07
1.52382e-06
3.31294e-05
0.214737
0.95632
0.95631
2.2986e-11
4.7329e-12
4.78335e-13
4.94576e-14
8.42839e-14
3.52181e-13
3.03881e-12
1.58095e-11
2.84075e-11
2.6003e-11
2.40235e-11
2.4268e-11
6.1909e-11
6.46574e-08
1.26329e-07
1.56628e-06
0.0510239
0.743003
0.956302
2.32911e-11
2.61114e-12
1.62138e-13
4.61132e-14
7.32595e-14
2.79772e-13
2.38266e-12
1.14496e-11
2.83708e-11
4.38883e-11
3.52302e-11
3.45126e-11
3.87433e-11
7.14666e-08
8.25164e-08
1.26329e-07
0.00310482
0.503479
0.956302
1.78716e-11
3.68311e-12
2.74372e-13
4.12454e-14
6.85366e-14
2.50499e-13
1.88071e-12
7.5265e-12
2.8496e-11
9.26993e-11
7.22669e-11
4.06209e-11
4.11309e-11
7.76887e-08
7.92802e-08
8.23869e-08
0.00106267
0.452904
0.956299
2.11931e-12
1.15955e-12
2.63755e-13
3.69503e-14
5.7903e-14
2.2957e-13
1.37945e-12
5.29556e-12
3.45854e-11
1.0135e-10
9.4714e-11
4.11309e-11
6.11258e-08
1.25482e-07
8.11717e-08
8.08647e-08
0.000582686
0.440032
0.956284
2.08613e-13
1.58314e-13
5.3144e-14
1.75201e-14
3.80874e-14
2.03746e-13
1.04409e-12
4.17839e-12
2.4526e-11
1.01261e-10
9.9563e-11
4.20025e-11
7.8163e-08
1.20853e-07
8.08647e-08
8.08647e-08
3.91452e-05
0.406436
0.956247
1.26658e-14
8.19862e-15
2.36066e-15
3.85535e-15
2.43967e-14
1.76365e-13
8.89021e-13
3.52748e-12
1.3207e-11
8.16788e-11
1.00702e-10
4.40892e-11
1.69724e-08
4.67619e-10
1.07568e-05
1.06097e-06
1.11632e-06
0.37405
0.956193
3.23863e-16
1.82919e-16
2.50069e-16
2.64137e-15
2.69551e-14
1.75932e-13
7.92742e-13
2.8768e-12
7.82994e-12
4.05259e-11
9.42357e-11
5.5693e-11
5.63165e-11
9.02299e-11
3.65148e-05
1.11632e-06
1.25507e-06
0.342684
0.956147
3.02134e-19
3.10001e-18
1.28751e-16
8.07973e-15
5.74805e-14
2.33054e-13
7.42929e-13
2.07749e-12
5.02586e-12
1.41005e-11
5.31048e-11
8.46063e-11
6.19329e-11
5.90181e-11
4.49538e-05
4.31673e-05
1.34548e-06
0.309485
0.956112
1.66018e-19
5.929e-18
7.59316e-16
2.12273e-14
1.12845e-13
3.06794e-13
6.02057e-13
1.13815e-12
2.31172e-12
6.2418e-12
2.2691e-11
1.07607e-10
5.6033e-11
5.19976e-11
2.71471e-05
9.46776e-05
1.527e-06
0.274744
0.95424
1.82462e-19
1.86839e-17
4.05297e-15
3.89414e-14
1.42041e-13
2.76596e-13
5.05593e-13
8.89765e-13
2.2249e-12
7.28657e-12
1.4973e-11
8.78075e-11
5.19859e-11
5.16455e-11
6.42827e-06
9.46647e-05
2.12666e-06
0.238612
0.939141
5.36489e-19
1.65605e-16
9.8951e-15
5.27232e-14
1.16663e-13
1.69316e-13
2.31998e-13
9.39312e-13
1.3599e-11
2.4897e-11
1.10546e-10
5.75845e-11
5.16308e-11
5.16455e-11
5.08971e-07
9.46883e-05
3.05324e-06
0.203699
0.927022
1.71308e-18
1.298e-15
1.55094e-14
4.51784e-14
7.20912e-14
8.38457e-14
1.62109e-13
6.31305e-13
9.19727e-12
2.2441e-11
3.5751e-11
6.18628e-10
4.20374e-09
5.13382e-11
-3.21161e-11
6.46219e-05
4.1832e-06
0.177273
0.926067
1.35061e-17
4.15541e-15
1.89378e-14
3.26448e-14
3.46708e-14
1.2331e-13
2.85388e-13
6.63883e-13
7.27883e-13
2.69617e-12
3.26289e-12
2.0927e-09
6.9641e-09
3.10341e-09
1.66903e-09
3.94516e-09
2.59927e-06
0.17838
0.848963
1.22644e-16
6.53729e-15
1.42299e-14
1.45744e-14
3.28163e-14
3.36732e-12
2.75349e-12
2.45278e-10
1.01807e-12
1.09971e-11
4.54024e-12
8.29608e-12
6.02214e-09
3.59364e-09
-4.82259e-08
5.19772e-07
0.00319867
0.22079
0.216203
4.85225e-16
7.18197e-15
7.12071e-15
5.29537e-15
2.01428e-13
6.11088e-11
6.76315e-11
1.99697e-10
5.2141e-06
5.94454e-06
2.20782e-06
1.01286e-10
3.22902e-09
4.00719e-09
-8.48671e-08
3.16175e-06
0.0291928
0.195579
0.00934986
9.3712e-16
3.2263e-15
3.01505e-15
-3.1417e-13
2.96355e-12
1.38056e-09
3.63056e-09
1.83902e-07
6.85611e-06
5.17238e-06
6.57994e-07
1.0355e-08
5.53474e-09
4.65797e-09
-2.17079e-08
8.85068e-06
0.0537938
0.190274
0.00934648
1.24187e-15
4.46062e-16
1.53328e-16
-1.94976e-11
-1.19452e-10
1.69397e-08
1.09589e-07
5.45439e-07
8.74394e-07
2.384e-07
5.32599e-08
2.02122e-08
1.33419e-08
1.89324e-09
5.73547e-08
1.30432e-05
0.0355605
0.126028
0.00938365
1.12274e-15
-4.4981e-16
-3.69342e-16
-3.75993e-12
-8.96139e-09
1.62757e-07
2.16592e-06
4.4387e-05
0.00399043
0.00274078
2.35177e-07
5.26075e-08
1.84724e-08
2.50675e-08
7.41663e-07
3.559e-05
0.057221
0.147936
0.0108584
5.07208e-16
-1.6461e-15
-8.00034e-15
-9.60078e-12
3.72258e-09
1.20886e-06
3.1287e-05
0.00520116
0.00906585
0.00865571
0.00297176
0.000121608
1.08955e-06
8.12268e-07
1.36609e-05
0.013742
0.137497
0.122474
0.00422771
1.78855e-16
-2.73433e-15
-3.36313e-13
-2.06998e-10
3.2428e-08
8.98175e-06
0.00787414
0.0148167
0.00897006
0.00906585
0.00821687
0.000570138
9.37565e-06
9.26109e-06
6.81591e-05
0.0436439
0.137524
3.69445e-05
1.90503e-05
6.96922e-17
-3.16423e-15
-1.4014e-13
-3.51422e-09
1.41046e-06
0.00367346
0.0180185
0.0152122
0.00227061
0.00342204
0.00782932
0.000549014
1.76725e-05
3.03276e-05
0.000329574
0.0812252
0.137523
0.000970797
1.02975e-05
1.28037e-17
-2.70339e-15
-5.48868e-12
-5.16582e-10
0.000733724
0.0173774
0.0180185
0.00758924
0.000485149
0.00150527
0.00707135
8.10922e-05
3.04093e-05
7.96695e-05
0.00784944
0.109479
0.107612
0.00451876
1.27418e-06
1.60494e-36
-1.55982e-15
-7.0195e-13
-1.52003e-08
0.00149743
0.0178231
0.0180185
0.00664714
0.000449613
0.000943048
0.00314489
0.000185563
8.10118e-05
0.00030346
0.0701741
0.109479
0.00394589
6.92897e-07
1.14804e-06
-4.57107e-19
-4.69608e-16
-5.91341e-13
1.23908e-08
4.49361e-05
0.0085781
0.0178231
0.00568026
0.000405292
0.000458336
0.000447798
0.000251243
0.000303004
0.0441447
0.0908778
0.0911402
0.00391404
7.1362e-08
4.18048e-10
-1.10103e-19
-2.07383e-17
-5.53951e-13
-1.48812e-10
-3.78432e-10
0.00120386
0.00945411
0.00590936
0.000370599
0.000405292
0.000496281
0.000447349
0.023094
0.061232
0.0611562
5.78241e-20
5.76434e-19
3.77792e-17
1.4124e-14
-6.38752e-24
-2.074e-19
-3.39909e-15
-4.89844e-13
-1.02215e-11
-1.48863e-10
-1.30331e-11
-1.25372e-12
0.000340375
0.000358534
0.00047979
0.00170591
0.0222515
0.0117795
0
-1.91077e-25
-5.81097e-25
-7.77044e-22
9.69054e-15
)
;

boundaryField
{
    leftWall
    {
        type            zeroGradient;
    }
    rightWall
    {
        type            zeroGradient;
    }
    lowerWall
    {
        type            zeroGradient;
    }
    atmosphere
    {
        type            inletOutlet;
        inletValue      uniform 0;
        value           nonuniform List<scalar> 
46
(
0
0
0
0
0
0
0
0
0
0
0
0
0
0
0
0
0
0
0
0
0
0
0
0
0
0
0
0
0
0
0
0
0
0
0
0.000340375
0.000358534
0.00047979
0.00170591
0.0222515
0.0117795
0
0
0
0
0
)
;
    }
    defaultFaces
    {
        type            empty;
    }
}


// ************************************************************************* //
