/*--------------------------------*- C++ -*----------------------------------*\
| =========                 |                                                 |
| \\      /  F ield         | OpenFOAM: The Open Source CFD Toolbox           |
|  \\    /   O peration     | Version:  2206                                  |
|   \\  /    A nd           | Website:  www.openfoam.com                      |
|    \\/     M anipulation  |                                                 |
\*---------------------------------------------------------------------------*/
FoamFile
{
    version     2.0;
    format      ascii;
    arch        "LSB;label=32;scalar=64";
    class       surfaceScalarField;
    location    "0.625";
    object      alphaPhi0.water;
}
// * * * * * * * * * * * * * * * * * * * * * * * * * * * * * * * * * * * * * //

dimensions      [0 3 -1 0 0 0 0];

oriented        oriented;

internalField   nonuniform List<scalar> 
4432
(
-1.02292e-06
1.02292e-06
-1.08624e-06
6.33171e-08
-3.91448e-07
-6.94795e-07
6.81089e-07
-1.07254e-06
1.83782e-06
-1.15673e-06
2.86353e-06
-1.02571e-06
3.64261e-06
-7.79082e-07
4.14788e-06
-5.05271e-07
4.41163e-06
-2.63754e-07
4.49048e-06
-7.88438e-08
4.44086e-06
4.96165e-08
4.29231e-06
1.48554e-07
4.04955e-06
2.4276e-07
3.68346e-06
3.66086e-07
3.13974e-06
5.43716e-07
2.35485e-06
7.84894e-07
1.28351e-06
1.07134e-06
-4.70495e-08
1.33056e-06
-1.54854e-06
1.50149e-06
-2.83738e-06
1.28884e-06
-3.1666e-06
3.29215e-07
-2.2279e-06
-9.38697e-07
-2.2279e-06
-1.11081e-06
2.13373e-06
-1.18754e-06
1.4004e-07
-5.18943e-07
-1.36339e-06
5.621e-07
-2.15358e-06
1.75929e-06
-2.35392e-06
2.84335e-06
-2.10977e-06
3.68523e-06
-1.62096e-06
4.24748e-06
-1.06752e-06
4.56039e-06
-5.76658e-07
4.69149e-06
-2.09947e-07
4.70799e-06
3.31163e-08
4.67397e-06
1.82576e-07
4.62137e-06
2.95359e-07
4.56479e-06
4.22664e-07
4.4945e-06
6.14e-07
4.36156e-06
9.17842e-07
4.07568e-06
1.35722e-06
3.53725e-06
1.86899e-06
2.744e-06
2.29474e-06
1.80597e-06
2.22687e-06
6.85495e-07
1.44969e-06
-1.8967e-07
-6.35326e-08
-2.41757e-06
-1.182e-06
3.31574e-06
-1.36283e-06
3.20862e-07
-7.50199e-07
-1.97602e-06
3.12242e-07
-3.21602e-06
1.54274e-06
-3.58442e-06
2.6817e-06
-3.24874e-06
3.58781e-06
-2.52707e-06
4.21066e-06
-1.69036e-06
4.57033e-06
-9.36329e-07
4.72751e-06
-3.67133e-07
4.75723e-06
3.40385e-09
4.71645e-06
2.2335e-07
4.64877e-06
3.6304e-07
4.58072e-06
4.90717e-07
4.53405e-06
6.60668e-07
4.53977e-06
9.12118e-07
4.61961e-06
1.27739e-06
4.72897e-06
1.75963e-06
4.73189e-06
2.29181e-06
4.31479e-06
2.64397e-06
3.28386e-06
2.48062e-06
1.84159e-06
1.37874e-06
-5.75977e-07
-1.30179e-06
4.61752e-06
-1.60894e-06
6.28012e-07
-1.11648e-06
-2.46848e-06
-1.23653e-07
-4.20885e-06
1.16193e-06
-4.87001e-06
2.39498e-06
-4.48179e-06
3.38062e-06
-3.51271e-06
4.07691e-06
-2.38666e-06
4.50671e-06
-1.36613e-06
4.72652e-06
-5.86939e-07
4.80581e-06
-7.58886e-08
4.8093e-06
2.1986e-07
4.78257e-06
3.89773e-07
4.75241e-06
5.20871e-07
4.72932e-06
6.83762e-07
4.72002e-06
9.2142e-07
4.74419e-06
1.25321e-06
4.82193e-06
1.68188e-06
4.91211e-06
2.20164e-06
4.79079e-06
2.76529e-06
4.07091e-06
3.20049e-06
2.38959e-06
3.06006e-06
1.81361e-06
-1.48079e-06
6.09832e-06
-2.05275e-06
1.19997e-06
-1.97052e-06
-2.5507e-06
-1.19798e-06
-4.9814e-06
2.77563e-07
-6.34555e-06
1.8022e-06
-6.00643e-06
2.96638e-06
-4.67689e-06
3.76743e-06
-3.1877e-06
4.28618e-06
-1.88489e-06
4.59678e-06
-8.97542e-07
4.76359e-06
-2.42693e-07
4.84737e-06
1.36081e-07
4.89504e-06
3.42104e-07
4.9371e-06
4.7881e-07
4.98551e-06
6.35344e-07
5.0337e-06
8.73234e-07
5.06225e-06
1.22466e-06
5.04852e-06
1.69561e-06
4.97171e-06
2.27845e-06
4.75774e-06
2.97926e-06
4.13717e-06
3.82106e-06
2.61612e-06
4.58111e-06
4.42974e-06
-1.74723e-06
7.84555e-06
-2.86105e-06
2.31378e-06
-3.50864e-06
-1.90311e-06
-3.04691e-06
-5.44313e-06
-1.37496e-06
-8.01751e-06
6.08598e-07
-7.98998e-06
2.1504e-06
-6.21869e-06
3.17029e-06
-4.2076e-06
3.83373e-06
-2.54832e-06
4.27397e-06
-1.33779e-06
4.57012e-06
-5.38844e-07
4.7769e-06
-7.07003e-08
4.93921e-06
1.79794e-07
5.08671e-06
3.31312e-07
5.2366e-06
4.85455e-07
5.386e-06
7.23831e-07
5.50857e-06
1.1021e-06
5.55075e-06
1.65343e-06
5.43374e-06
2.39546e-06
5.07131e-06
3.3417e-06
4.3068e-06
4.58557e-06
2.72818e-06
6.15973e-06
7.15792e-06
-1.98308e-06
9.82863e-06
-3.75219e-06
4.0829e-06
-4.8875e-06
-7.67804e-07
-4.70902e-06
-5.62161e-06
-3.20033e-06
-9.52621e-06
-1.09168e-06
-1.00986e-05
8.45887e-07
-8.15626e-06
2.19762e-06
-5.55933e-06
3.09846e-06
-3.44916e-06
3.72046e-06
-1.95978e-06
4.18543e-06
-1.00382e-06
4.55903e-06
-4.44298e-07
4.88156e-06
-1.42736e-07
5.1801e-06
3.27686e-08
5.47563e-06
1.8992e-07
5.7686e-06
4.30869e-07
6.04119e-06
8.29498e-07
6.24841e-06
1.44621e-06
6.29665e-06
2.34722e-06
6.07371e-06
3.56464e-06
5.38804e-06
5.27123e-06
4.01338e-06
7.53438e-06
1.11713e-05
-1.89881e-06
1.17274e-05
-3.69157e-06
5.87566e-06
-4.49891e-06
3.95378e-08
-4.60923e-06
-5.51128e-06
-3.73142e-06
-1.0404e-05
-2.19941e-06
-1.16306e-05
-4.21288e-07
-9.93438e-06
1.1252e-06
-7.10582e-06
2.2462e-06
-4.57017e-06
3.04574e-06
-2.75932e-06
3.66725e-06
-1.62532e-06
4.2033e-06
-9.80345e-07
4.70178e-06
-6.41224e-07
5.19006e-06
-4.55507e-07
5.67687e-06
-2.96891e-07
6.16713e-06
-5.93914e-08
6.65317e-06
3.43456e-07
7.09787e-06
1.00151e-06
7.40181e-06
2.04328e-06
7.39397e-06
3.57249e-06
6.67081e-06
5.9944e-06
4.85256e-06
9.35263e-06
1.60239e-05
5.6621e-06
-5.65657e-06
-6.97726e-06
1.26449e-05
-2.0617e-05
1.36457e-05
-2.21204e-05
2.23379e-06
-1.99031e-05
-7.63494e-07
-1.70366e-05
-1.14811e-06
-1.11142e-05
-2.79288e-06
-3.53764e-06
-5.71593e-06
1.48405e-05
-1.58747e-05
3.04074e-05
-1.08864e-05
2.44825e-05
9.32146e-06
1.88599e-07
2.53048e-05
-1.2981e-05
1.30288e-05
-9.61479e-06
-3.50155e-06
-1.32491e-05
8.88587e-07
-3.85458e-05
2.53268e-05
-5.97289e-05
2.11758e-05
-4.31758e-05
-1.70714e-05
-4.33262e-05
-5.22492e-06
-4.26124e-07
-1.24807e-05
1.99066e-05
-5.51478e-06
5.95181e-06
-3.64058e-06
3.02755e-07
-2.54816e-06
-1.90341e-06
-1.38309e-06
-2.35926e-06
2.48909e-06
-6.71307e-06
3.94833e-05
-4.60906e-05
7.2547e-05
-4.8835e-05
8.07458e-05
-1.88644e-05
7.17262e-05
1.84689e-05
4.4849e-05
5.22793e-05
6.61256e-06
5.52535e-05
-1.57291e-05
1.86382e-05
-3.51768e-05
1.45796e-05
-5.3397e-05
4.35485e-05
-5.9472e-05
2.72956e-05
-3.84621e-05
-3.8032e-05
-8.19388e-05
-9.87998e-06
9.45501e-06
-4.84187e-06
1.38078e-05
-1.27151e-06
2.32461e-06
1.28245e-07
-1.15383e-06
8.07261e-07
-2.63926e-06
5.78346e-06
-7.38045e-06
5.19754e-05
-5.73187e-05
8.45382e-05
-8.06692e-05
9.55536e-05
-5.97337e-05
9.80053e-05
-2.11882e-05
9.24912e-05
2.41124e-05
7.65348e-05
6.83668e-05
4.13301e-05
9.05887e-05
-2.31544e-06
6.80681e-05
-3.2589e-05
3.97431e-05
-4.71328e-05
5.81957e-05
-4.70941e-05
2.72974e-05
-3.50984e-05
-5.01862e-05
-0.000122354
-4.62739e-06
1.40528e-05
-6.23962e-07
4.67176e-06
8.51374e-07
8.02238e-07
2.0595e-06
-2.41879e-06
7.07608e-06
-7.70289e-06
5.36184e-05
-5.49971e-05
8.48768e-05
-8.93042e-05
9.62852e-05
-9.16853e-05
0.000101774
-6.50408e-05
0.000103197
-2.24763e-05
0.00010005
2.73908e-05
9.05467e-05
7.80011e-05
6.69819e-05
0.000114284
2.123e-05
0.000113958
-1.71689e-05
8.2951e-05
-2.8435e-05
6.952e-05
-3.14969e-05
3.05192e-05
-3.05391e-05
-5.47019e-05
-0.000157512
1.99794e-07
1.37589e-05
1.95022e-06
2.8664e-06
3.18292e-06
-4.77231e-07
6.56071e-06
-5.84362e-06
4.57577e-05
-4.5624e-05
7.93659e-05
-8.76737e-05
8.99455e-05
-9.94057e-05
9.56384e-05
-9.66069e-05
8.66894e-05
-4.9588e-05
7.94054e-05
-8.10327e-06
9.33667e-05
1.59636e-05
9.51358e-05
7.63628e-05
8.09901e-05
0.000128569
4.76421e-05
0.000147458
6.81165e-06
0.000128797
-1.25357e-05
8.19146e-05
-1.9774e-05
3.73774e-05
-2.16245e-05
-5.34816e-05
-0.000179046
2.32989e-06
1.07136e-05
3.13829e-06
2.16723e-06
5.5385e-06
-2.93154e-06
3.78057e-05
-3.71893e-05
7.29869e-05
-7.97487e-05
8.43409e-05
-9.82529e-05
8.53004e-05
-9.97851e-05
4.28927e-05
-4.27431e-05
1.0559e-05
-6.35905e-06
6.72418e-06
-4.83359e-07
2.53674e-05
8.87719e-07
7.9585e-05
2.11437e-05
8.57302e-05
0.000122576
6.59325e-05
0.000167421
3.26687e-05
0.000162214
4.50425e-06
0.000103227
-5.2101e-06
4.67116e-05
-6.13182e-06
-5.294e-05
-0.000184739
3.18818e-06
6.91211e-06
8.81676e-06
-3.63448e-06
3.90309e-05
-3.32276e-05
6.988e-05
-6.74068e-05
8.12506e-05
-9.04204e-05
8.21797e-05
-9.84744e-05
3.78391e-05
-4.48022e-05
6.52254e-06
-4.51895e-06
5.77898e-07
-3.74834e-07
1.12727e-07
-1.40245e-08
9.16083e-07
8.48657e-08
1.81059e-05
3.04819e-06
7.87128e-05
5.8173e-05
7.6285e-05
0.000170001
5.49953e-05
0.000183853
2.46178e-05
0.000140562
1.29509e-05
5.79983e-05
6.69506e-06
-4.69338e-05
-0.000177073
2.02465e-05
-1.45944e-05
4.56374e-05
-2.99002e-05
6.89953e-05
-5.60173e-05
7.73523e-05
-7.52021e-05
7.72732e-05
-8.97742e-05
3.6166e-05
-4.90126e-05
4.3941e-06
-6.60357e-06
3.6459e-07
-4.6098e-07
2.07493e-08
-2.84075e-08
7.62041e-09
-6.862e-10
8.88074e-08
3.67055e-09
2.81582e-06
3.21676e-07
4.27917e-05
9.38748e-06
7.779e-05
0.000133164
7.22051e-05
0.000189859
5.13791e-05
0.000167474
3.00022e-05
7.91256e-05
1.98985e-05
-3.93122e-05
-0.000157404
7.86624e-07
1.09408e-05
-2.22131e-07
6.88441e-06
-3.79889e-07
1.97296e-07
1.74452e-07
-6.06563e-06
-8.04084e-07
-9.4254e-06
-1.74784e-06
-1.06867e-05
-1.10044e-06
-1.05816e-05
8.06685e-07
-9.01286e-06
2.89434e-06
-6.6578e-06
4.74508e-06
-4.61006e-06
6.40008e-06
-3.28032e-06
7.97703e-06
-2.5573e-06
9.55474e-06
-2.21893e-06
1.11698e-05
-2.07057e-06
1.2847e-05
-1.9741e-06
1.46256e-05
-1.838e-06
1.65659e-05
-1.59688e-06
1.87745e-05
-1.20704e-06
2.14298e-05
-6.12033e-07
2.48192e-05
1.83105e-07
2.94051e-05
1.40852e-06
3.64018e-05
2.35587e-06
6.06168e-06
4.6364e-05
8.31398e-06
2.62683e-06
1.52642e-05
-6.70378e-08
2.07827e-05
-5.09743e-06
2.04551e-05
-5.28667e-06
1.54234e-05
-3.56663e-06
8.7795e-06
-3.16256e-06
3.9235e-06
-5.07285e-06
1.91646e-06
-6.577e-06
2.01394e-06
-6.54505e-06
3.23214e-06
-5.79154e-06
4.98908e-06
-5.03714e-06
7.02708e-06
-4.59521e-06
9.21947e-06
-4.41126e-06
1.15102e-05
-4.36128e-06
1.38889e-05
-4.35273e-06
1.63966e-05
-4.34564e-06
1.91178e-05
-4.31792e-06
2.21642e-05
-4.25343e-06
2.56931e-05
-4.14082e-06
2.99062e-05
-4.03007e-06
3.51537e-05
-3.83889e-06
4.15494e-05
-4.03987e-06
-3.16178e-06
5.07729e-05
7.06307e-06
-3.357e-09
1.09353e-05
-7.03616e-08
1.02259e-05
-5.15683e-07
8.45869e-06
-7.95817e-07
6.96028e-06
1.53285e-10
6.50921e-06
1.74406e-09
6.15148e-06
-8.28819e-07
4.9193e-06
-9.31938e-07
3.68515e-06
-9.26122e-07
2.81749e-06
-9.05739e-07
2.69991e-06
-8.44949e-08
3.5148e-06
-1.63673e-09
5.00673e-06
-2.63822e-10
6.9672e-06
-1.5883e-06
9.16221e-06
-1.75076e-06
1.15308e-05
-1.89534e-06
1.405e-05
-2.0325e-06
1.67391e-05
-2.16555e-06
1.96569e-05
-2.30543e-06
2.28709e-05
-2.47957e-06
2.65839e-05
-2.68545e-06
3.03848e-05
-2.93539e-06
-3.14105e-06
3.55281e-05
-3.3419e-09
-1.19108e-11
-7.34685e-08
-7.54571e-11
-5.88523e-07
8.28901e-11
-8.9825e-07
-6.81805e-13
-2.37551e-07
-2.70598e-14
4.05388e-07
-7.53155e-16
3.332e-07
1.22677e-17
2.90766e-07
-8.9328e-14
2.18311e-07
-1.47121e-11
8.60037e-08
4.96591e-11
1.63863e-09
-3.07683e-11
7.43916e-12
-3.20698e-12
-2.55869e-10
-3.93202e-13
9.15886e-09
-3.57028e-14
7.13992e-08
1.62009e-15
1.9519e-07
5.77256e-15
3.77561e-07
7.72646e-15
6.05278e-07
8.62642e-15
8.60484e-07
6.81585e-15
1.10369e-06
-9.9074e-15
1.27104e-06
-3.31383e-13
1.24362e-06
-1.65038e-12
-9.2857e-12
1.03134e-06
-1.33136e-11
2.28025e-12
-8.64543e-11
-2.66713e-13
-4.45545e-15
-3.53151e-12
-3.01429e-16
-6.85772e-13
-1.32926e-17
-2.73647e-14
9.34815e-18
-7.75796e-16
-1.03606e-15
7.41555e-17
-9.06453e-14
2.8132e-16
-1.48032e-11
4.39365e-16
3.48556e-11
3.89125e-16
4.08714e-12
1.41994e-16
4.39036e-13
1.10428e-15
4.2692e-14
3.14127e-15
1.55648e-15
5.43275e-15
-3.78886e-15
7.59847e-15
-1.31716e-14
9.50713e-15
-1.82102e-14
1.10507e-14
-2.15196e-14
1.17265e-14
-1.78337e-14
5.54942e-15
6.20641e-16
-2.83617e-14
2.21891e-14
-3.55071e-13
1.18495e-13
-1.75606e-12
-9.7622e-12
4.97924e-13
1.61895e-12
1.43335e-12
3.64957e-12
-1.31029e-12
2.12647e-13
-6.78948e-14
3.08353e-14
-5.58521e-15
-4.71846e-16
-3.83956e-15
4.34343e-17
-1.72229e-15
2.00223e-16
-1.18315e-16
2.54823e-16
3.12711e-16
9.53544e-17
6.97595e-16
-5.30359e-16
1.20048e-15
-2.29994e-15
1.91939e-15
-4.95615e-15
3.06135e-15
-8.01989e-15
4.63701e-15
-1.12496e-14
6.39738e-15
-1.445e-14
8.02057e-15
-1.74031e-14
9.24834e-15
-1.99341e-14
9.94659e-15
-2.10841e-14
9.25786e-15
-1.00095e-14
6.91612e-16
1.27993e-13
-1.66364e-13
1.16311e-12
-1.39744e-12
4.23303e-12
-4.92305e-12
-1.5498e-11
9.62618e-12
1.39042e-13
1.65497e-15
7.32017e-14
-1.52716e-15
5.73898e-15
-4.5853e-16
1.87729e-16
-1.45482e-17
1.69892e-15
7.93454e-18
7.39212e-16
3.81309e-17
5.42124e-17
1.34497e-16
-1.46775e-16
3.65124e-16
-4.25936e-16
8.02817e-16
-1.05352e-15
1.49919e-15
-2.28533e-15
2.46501e-15
-4.16593e-15
3.65925e-15
-6.44558e-15
4.9147e-15
-8.71187e-15
5.98128e-15
-1.05792e-14
6.65143e-15
-1.18201e-14
6.832e-15
-1.23609e-14
6.53958e-15
-1.11956e-14
4.87393e-15
-8.18132e-16
1.24852e-16
1.88943e-12
-2.05651e-12
2.57262e-11
-3.02856e-11
1.91741e-10
-3.15381e-10
-7.25299e-10
5.72329e-10
1.07773e-15
3.64947e-17
4.74838e-16
-3.64257e-17
1.64389e-17
-1.35417e-19
4.42142e-19
1.44856e-18
-5.07021e-18
9.09958e-18
-2.13021e-17
4.00522e-17
-7.09625e-17
1.35473e-16
-2.04996e-16
3.6603e-16
-5.17824e-16
8.07235e-16
-1.13545e-15
1.4929e-15
-2.15054e-15
2.37285e-15
-3.48919e-15
3.28998e-15
-4.86359e-15
4.01283e-15
-5.91956e-15
4.36415e-15
-6.41403e-15
4.29194e-15
-6.28667e-15
3.84508e-15
-5.62836e-15
3.15201e-15
-3.85302e-15
1.50309e-15
-9.0829e-17
1.47635e-17
1.22336e-10
-2.18318e-10
5.96167e-10
-7.66748e-10
6.10517e-10
-8.89773e-10
-7.78314e-10
6.76394e-10
3.51129e-17
9.24034e-19
2.99437e-19
-3.8026e-20
7.62966e-21
1.5639e-19
-7.74923e-19
1.4828e-18
-4.69968e-18
8.65215e-18
-2.1715e-17
3.74467e-17
-7.80766e-17
1.24954e-16
-2.23953e-16
3.29044e-16
-5.30312e-16
7.01946e-16
-1.0582e-15
1.24263e-15
-1.79903e-15
1.86116e-15
-2.61591e-15
2.38625e-15
-3.26011e-15
2.63865e-15
-3.51243e-15
2.55494e-15
-3.296e-15
2.18973e-15
-2.69558e-15
1.64345e-15
-1.92367e-15
1.08768e-15
-7.66599e-16
-2.63755e-16
-6.11341e-18
-3.17884e-16
2.0535e-10
-5.8834e-10
2.40465e-10
-7.93192e-10
2.15234e-10
-8.56818e-10
-6.95847e-10
1.40007e-10
4.04597e-19
1.16903e-20
1.99067e-20
7.19148e-21
-7.77385e-20
1.57146e-19
-7.40075e-19
1.38255e-18
-4.60255e-18
7.77731e-18
-2.07528e-17
3.22621e-17
-7.18282e-17
1.03087e-16
-1.98041e-16
2.59644e-16
-4.46093e-16
5.26916e-16
-8.35652e-16
8.78758e-16
-1.31797e-15
1.22391e-15
-1.7596e-15
1.43774e-15
-1.98995e-15
1.43298e-15
-1.91545e-15
1.22818e-15
-1.56391e-15
9.01326e-16
-1.05972e-15
5.23636e-16
-5.99747e-16
2.44005e-16
2.27197e-16
-1.0907e-15
9.88988e-15
-6.67779e-15
1.27706e-10
-2.9612e-10
5.35315e-11
-7.08421e-10
-1.88364e-11
-7.77179e-10
-3.57191e-10
-2.98427e-11
4.93217e-21
3.71459e-21
-3.6945e-21
7.45999e-21
-5.98966e-20
1.32462e-19
-5.59089e-19
1.10815e-18
-3.51368e-18
6.04025e-18
-1.5962e-17
2.4158e-17
-5.49561e-17
7.38308e-17
-1.48294e-16
1.76638e-16
-3.21667e-16
3.37869e-16
-5.72027e-16
5.25922e-16
-8.46209e-16
6.7582e-16
-1.04874e-15
7.23681e-16
-1.08994e-15
6.49129e-16
-9.54373e-16
4.92556e-16
-6.93363e-16
3.02983e-16
-3.84032e-16
1.06277e-16
-1.65139e-16
-1.12005e-17
1.09253e-14
-1.29439e-13
2.22714e-13
-1.02947e-13
1.41526e-10
-2.91503e-14
9.83966e-11
-3.14911e-10
-8.14814e-12
-5.88959e-10
-1.69035e-10
-3.07265e-11
-4.34794e-23
9.7974e-24
-2.65718e-21
6.00247e-21
-4.12853e-20
9.4939e-20
-3.90022e-19
7.60099e-19
-2.44873e-18
4.00087e-18
-1.09527e-17
1.53564e-17
-3.67374e-17
4.47072e-17
-9.56901e-17
1.01184e-16
-1.98414e-16
1.81617e-16
-3.33759e-16
2.62728e-16
-4.61985e-16
3.10408e-16
-5.30353e-16
3.0247e-16
-5.06242e-16
2.44584e-16
-4.04201e-16
1.6491e-16
-2.57468e-16
8.07799e-17
-9.17029e-17
3.07261e-19
4.45097e-16
-5.48e-16
1.92865e-13
-3.77315e-13
7.87006e-14
-2.86699e-13
1.54517e-14
-4.00538e-14
4.62527e-11
-3.26132e-14
3.79816e-11
-1.74975e-14
-1.57327e-14
7.38053e-12
-5.46603e-23
4.67343e-23
-1.58538e-21
3.90041e-21
-2.47366e-20
5.64942e-20
-2.34473e-19
4.33688e-19
-1.45472e-18
2.19755e-18
-6.36737e-18
8.06998e-18
-2.07171e-17
2.23206e-17
-5.18408e-17
4.76606e-17
-1.02185e-16
8.00822e-17
-1.61565e-16
1.07504e-16
-2.07768e-16
1.16787e-16
-2.19253e-16
1.03752e-16
-1.90797e-16
7.59877e-17
-1.37472e-16
4.56042e-17
-7.14013e-17
1.56739e-17
-2.85093e-19
-6.41402e-17
5.26447e-16
-5.13895e-16
3.68503e-13
-2.65157e-15
1.28583e-13
-9.50801e-15
2.27561e-14
-9.52774e-15
7.01323e-15
-1.76944e-14
5.9135e-15
-1.71849e-14
-1.60752e-14
5.43214e-15
-3.3961e-23
4.65796e-23
-8.00129e-22
2.01104e-21
-1.26241e-20
2.70599e-20
-1.19397e-19
1.99144e-19
-7.2707e-19
9.68405e-19
-3.09345e-18
3.39386e-18
-9.69731e-18
8.9031e-18
-2.31563e-17
1.79171e-17
-4.31088e-17
2.81844e-17
-6.36832e-17
3.51864e-17
-7.57062e-17
3.53307e-17
-7.31574e-17
2.88472e-17
-5.78722e-17
1.9321e-17
-3.72421e-17
1.02698e-17
-1.36355e-17
1.44496e-18
1.20974e-16
-4.37127e-17
7.53415e-16
-3.98372e-16
2.8194e-15
-1.58732e-15
2.93923e-15
-6.58795e-15
1.00549e-14
-1.88836e-14
9.80671e-15
-2.44677e-14
8.59919e-15
-2.27312e-14
-1.61144e-14
7.85122e-15
-1.68871e-23
2.81897e-23
-3.35162e-22
7.93227e-22
-5.3309e-21
9.9833e-21
-4.99188e-20
7.03621e-20
-2.96404e-19
3.27611e-19
-1.21851e-18
1.09424e-18
-3.65998e-18
2.7222e-18
-8.30202e-18
5.1702e-18
-1.45515e-17
7.64148e-18
-2.00674e-17
8.93384e-18
-2.21048e-17
8.38368e-18
-1.96675e-17
6.37588e-18
-1.42455e-17
3.93604e-18
-8.12002e-18
1.81431e-18
-1.2155e-18
3.67703e-20
5.24383e-17
-1.45623e-17
4.54689e-16
-1.08117e-16
1.41104e-15
-8.23133e-16
9.90209e-15
-5.37547e-15
2.33726e-14
-1.93779e-14
2.66912e-14
-2.58941e-14
2.46614e-14
-2.62015e-14
-2.60549e-14
1.86025e-14
-6.58227e-24
1.11346e-23
-1.12349e-22
2.24563e-22
-1.78469e-21
2.65182e-21
-1.6401e-20
1.78833e-20
-9.43707e-20
7.96517e-20
-3.73096e-19
2.53665e-19
-1.07032e-18
5.99844e-19
-2.30337e-18
1.08024e-18
-3.80698e-18
1.51175e-18
-4.92713e-18
1.67348e-18
-5.07808e-18
1.48656e-18
-4.21216e-18
1.06017e-18
-2.8156e-18
5.87539e-19
-1.39377e-18
2.0364e-19
-3.00751e-20
-9.82279e-20
1.46296e-17
-2.98474e-18
1.14766e-16
-2.92169e-17
1.41423e-15
-2.97306e-16
9.22839e-15
-1.70216e-15
2.47464e-14
-7.23336e-15
2.75373e-14
-2.02923e-14
2.87795e-14
-2.0574e-14
-1.96875e-14
2.9282e-14
-1.90993e-24
2.66307e-24
-2.82111e-23
4.05306e-23
-4.4164e-22
4.5019e-22
-3.94974e-21
2.90625e-21
-2.19207e-20
1.23974e-20
-8.31386e-20
3.77509e-20
-2.27769e-19
8.52704e-20
-4.66357e-19
1.4665e-19
-7.31537e-19
1.96167e-19
-8.97683e-19
2.07882e-19
-8.76322e-19
1.76206e-19
-6.81961e-19
1.15681e-19
-4.09708e-19
5.00126e-20
-1.52867e-19
-2.01653e-21
2.79263e-19
-8.21295e-20
2.76543e-18
-4.9554e-19
2.93795e-17
-6.11363e-18
2.96283e-16
-4.64125e-17
1.66732e-15
-2.26326e-16
7.1952e-15
-1.14433e-15
1.98454e-14
-4.84221e-15
2.34158e-14
-8.36664e-15
-7.87894e-15
2.1572e-14
-3.67336e-25
2.94097e-25
-4.68218e-24
3.49979e-24
-7.13108e-23
3.66885e-23
-6.16942e-22
2.27193e-22
-3.29606e-21
9.31109e-22
-1.19986e-20
2.7233e-21
-3.14903e-20
5.9124e-21
-6.1707e-20
9.78651e-21
-9.26652e-20
1.26243e-20
-1.08969e-19
1.29175e-20
-1.0156e-19
1.03697e-20
-7.27803e-20
5.52667e-21
-3.41362e-20
6.52214e-22
2.16329e-20
-5.63799e-21
8.583e-20
-2.82553e-20
4.20638e-19
-8.5832e-20
5.63592e-18
-7.07292e-19
4.12754e-17
-4.29619e-18
2.03577e-16
-2.24288e-17
1.05299e-15
-1.25544e-16
3.82229e-15
-4.64699e-16
4.97686e-15
-7.6929e-16
-7.62136e-16
4.93484e-15
-3.48743e-26
1.46035e-28
-3.81823e-25
1.22003e-27
-5.60413e-24
6.959e-27
-4.67705e-23
2.2874e-26
-2.40734e-22
4.61945e-26
-8.43633e-22
5.04034e-26
-2.13197e-21
-3.51973e-27
-4.02653e-21
-3.36955e-25
-5.83769e-21
-1.10825e-24
-6.63444e-21
-2.13028e-24
-5.86009e-21
-1.55207e-23
-3.41086e-21
-1.09818e-22
-4.3694e-22
-2.56086e-22
7.05954e-21
-1.41652e-21
2.04441e-20
-6.38904e-21
6.78567e-20
-1.87574e-20
5.9982e-19
-7.29656e-20
3.64859e-18
-2.58595e-19
1.99797e-17
-1.23934e-18
1.12455e-16
-7.70216e-18
3.36176e-16
-2.48466e-17
4.27281e-16
-3.60058e-17
-3.64614e-17
4.51603e-16
-1.55975e-29
3.69532e-29
-1.27885e-28
2.68018e-28
-1.03317e-27
1.56373e-27
-4.58744e-27
5.44108e-27
-1.16494e-26
1.21245e-26
-1.52491e-26
1.65265e-26
1.71685e-26
9.51328e-27
2.28077e-25
1.44502e-27
6.99471e-25
-1.17692e-26
1.54677e-24
-1.65108e-26
1.5004e-23
-3.71833e-26
1.00996e-22
-1.07164e-24
2.44111e-22
-1.89497e-23
8.88097e-22
-1.58518e-22
4.47622e-21
-9.18159e-22
1.40909e-20
-3.58478e-21
5.65044e-20
-1.21398e-20
2.096e-19
-3.14931e-20
1.08028e-18
-6.48305e-20
6.66948e-18
-1.74023e-19
1.75936e-17
-4.83896e-19
2.14116e-17
-8.50984e-19
-9.41405e-19
2.28099e-17
-3.65645e-30
5.99718e-30
-2.72287e-29
3.81607e-29
-2.26355e-28
2.27209e-28
-1.06436e-27
8.29868e-28
-2.98329e-27
2.00607e-27
-4.8821e-27
3.30882e-27
-3.27779e-27
3.56273e-27
-5.69123e-28
2.20579e-27
3.26481e-27
9.86768e-28
5.05244e-27
3.58692e-28
1.58252e-26
-3.9422e-28
6.30861e-25
-6.86506e-26
1.18863e-23
-1.38178e-24
1.06019e-22
-1.39193e-23
6.33726e-22
-8.57987e-23
2.60506e-21
-4.16524e-22
9.04644e-21
-1.80534e-21
2.38677e-20
-7.78858e-21
5.08712e-20
-1.6407e-20
1.40721e-19
-2.27379e-20
3.69285e-19
-2.66879e-20
5.53438e-19
-2.73507e-20
-2.67551e-20
5.9271e-19
-5.5802e-31
4.63122e-31
-3.76742e-30
2.59599e-30
-3.20567e-29
1.5507e-29
-1.58147e-28
5.74132e-29
-4.80852e-28
1.40697e-28
-9.52719e-28
2.35182e-28
-1.19731e-27
2.56268e-28
-8.47995e-28
1.57803e-28
-4.2743e-28
6.9858e-29
-1.73003e-28
2.51681e-29
3.93192e-28
6.9592e-30
4.04926e-26
-1.41824e-27
8.58869e-25
-5.46182e-26
9.0212e-24
-7.85625e-25
5.79898e-23
-6.75945e-24
2.97105e-22
-3.21098e-23
1.40742e-21
-1.95618e-22
6.05078e-21
-7.89163e-22
1.14044e-20
-2.06144e-21
1.48944e-20
-4.08225e-21
1.73683e-20
-6.48424e-21
1.84347e-20
-7.69381e-21
-7.71142e-21
1.90082e-20
-4.0787e-32
2.34574e-38
-2.48715e-31
1.9583e-38
-2.12674e-30
4.58782e-39
-1.06282e-29
8.5135e-40
-3.27577e-29
-6.19527e-35
-6.58077e-29
-4.20372e-33
-8.37514e-29
-1.29048e-32
-5.90375e-29
-1.18144e-32
-2.94691e-29
-4.50216e-33
-1.18308e-29
-7.3816e-34
-3.61129e-30
-7.54671e-34
8.08204e-28
-2.73686e-30
3.31696e-26
-1.04907e-27
5.02722e-25
-2.56236e-26
4.44382e-24
-2.94652e-25
2.24138e-23
-1.88078e-24
1.45565e-22
-1.08069e-23
5.73788e-22
-4.92106e-23
1.47846e-21
-1.26743e-22
2.95114e-21
-2.24033e-22
4.5432e-21
-2.57796e-22
5.17961e-21
-2.54781e-22
-2.43743e-22
5.45165e-21
-1.95724e-39
1.39634e-46
-1.81372e-39
1.27887e-46
-6.09225e-40
2.92394e-47
-1.52525e-40
5.23594e-48
2.75769e-35
-2.77271e-47
1.1389e-33
-1.83944e-42
4.08632e-33
-3.21927e-38
3.94467e-33
-1.8541e-38
8.22466e-34
-3.1743e-39
3.26512e-34
-2.57372e-38
4.00675e-34
-1.13297e-36
1.51185e-30
-2.89643e-34
6.25127e-28
-4.20013e-30
1.60858e-26
-3.96698e-28
1.91052e-25
-6.88927e-27
1.27877e-24
-6.45625e-26
7.62505e-24
-2.6127e-25
3.40395e-23
-1.28216e-24
8.23468e-23
-3.37941e-24
1.27713e-22
-5.07448e-24
1.3957e-22
-5.36675e-24
1.44964e-22
-5.19241e-24
-4.89498e-24
1.44821e-22
-1.09999e-47
5.67782e-47
-1.14011e-47
4.92998e-47
-3.74728e-48
1.09208e-47
-9.0506e-49
1.90343e-48
7.19771e-48
3.04882e-49
4.8096e-43
-9.20421e-49
9.84189e-39
-6.93086e-47
1.23283e-39
-1.20594e-45
6.27737e-40
-1.3213e-43
1.05594e-38
-8.62547e-42
5.45577e-37
-5.83935e-40
1.54674e-34
-7.09595e-38
2.44199e-30
-1.5878e-33
2.45564e-28
-3.94746e-30
4.42217e-27
-7.8611e-29
4.09947e-26
-6.11544e-28
1.71158e-25
-2.86997e-27
8.46849e-25
-9.20716e-27
1.98694e-24
-2.46424e-26
2.62023e-24
-5.827e-26
2.80218e-24
-9.06927e-26
2.82844e-24
-9.39145e-26
-8.82683e-26
2.8823e-24
-4.19558e-48
1.42791e-47
-4.22326e-48
1.22848e-47
-1.35046e-48
2.64097e-48
-3.1719e-49
4.47384e-49
-6.38405e-50
6.97636e-50
3.02202e-49
8.76158e-51
1.9712e-47
-9.02995e-50
3.93893e-46
-2.0091e-48
4.97659e-44
-2.07425e-46
3.6155e-42
-1.3087e-44
2.71562e-40
-8.9244e-43
3.64623e-38
-7.93407e-41
8.92861e-34
-1.65428e-37
2.35931e-30
-1.77654e-33
4.77825e-29
-7.94503e-32
3.72127e-28
-9.07604e-31
1.73943e-27
-5.43252e-30
5.6213e-27
-2.1276e-29
1.5461e-26
-6.07733e-29
3.51174e-26
-1.3384e-28
4.69966e-26
-2.36806e-28
4.99648e-26
-3.60203e-28
-4.44325e-28
4.84034e-26
-9.83444e-49
1.62215e-48
-1.01469e-48
1.48565e-48
-3.1636e-49
3.11286e-49
-7.20217e-50
5.12399e-50
-1.40793e-50
7.73527e-51
-2.1236e-51
1.11765e-51
2.72136e-50
1.57522e-52
6.3469e-49
2.09784e-53
7.50312e-47
-4.68031e-53
5.26791e-45
-3.75596e-51
3.97967e-43
-3.17416e-49
3.90803e-41
-3.01045e-47
8.93279e-38
-9.19235e-41
1.02991e-33
-2.39851e-36
4.76917e-32
-1.92555e-34
5.48787e-31
-2.37244e-33
3.28133e-30
-1.37704e-32
1.27931e-29
-4.90116e-32
3.62611e-29
-1.22355e-31
7.90328e-29
-2.35764e-31
1.39612e-28
-3.79129e-31
2.07923e-28
-5.30654e-31
-7.02172e-31
2.3883e-28
-1.03842e-49
2.10671e-55
-1.19239e-49
2.49791e-56
-3.63462e-50
2.438e-57
-7.99515e-51
2.48973e-58
-1.50658e-51
2.58195e-59
-2.60758e-52
-7.20008e-58
-4.28631e-53
-6.15819e-57
-6.53101e-54
-3.13671e-56
2.37175e-53
-1.68756e-54
1.46582e-51
-7.41656e-53
1.36288e-49
-2.98857e-51
1.42279e-47
-1.57458e-49
4.7492e-41
-9.78478e-48
1.33588e-36
-4.84031e-44
1.11246e-34
-1.19949e-40
1.36904e-33
-2.07466e-39
7.82274e-33
-1.45402e-37
2.72349e-32
-3.40526e-36
6.66735e-32
-3.33487e-35
1.27405e-31
-1.83306e-34
2.05345e-31
-6.58437e-34
2.94593e-31
-1.69577e-33
-3.46227e-33
3.84559e-31
-1.25625e-56
8.97558e-73
-1.96214e-57
-2.07635e-71
-2.78482e-58
-5.0598e-72
-3.76931e-59
-7.09623e-74
-4.85038e-60
-3.31836e-65
3.06779e-58
-2.99238e-63
2.76021e-57
-1.92979e-61
1.65409e-56
-9.55586e-60
5.59544e-55
-6.77174e-58
2.7319e-53
-4.1089e-56
1.2114e-51
-3.07884e-54
7.01126e-50
-2.8149e-52
4.78015e-48
-3.14388e-50
2.61133e-44
-1.26401e-45
6.72301e-41
-1.00203e-42
1.24123e-39
-1.36386e-41
9.37262e-38
-1.72796e-40
2.25073e-36
-7.80714e-39
2.20883e-35
-1.29069e-37
1.20061e-34
-9.83128e-37
4.23108e-34
-4.40505e-36
1.0732e-33
-1.31503e-35
-3.12552e-35
2.0635e-33
-5.01885e-74
4.73989e-73
1.5979e-72
5.51552e-74
9.40031e-74
5.28235e-75
8.41016e-75
5.73537e-76
1.17755e-65
-5.3969e-71
6.29548e-64
-1.02514e-67
4.7147e-62
-8.41513e-66
2.66279e-60
-5.92489e-64
2.12544e-58
-5.0488e-62
1.43482e-56
-4.24561e-60
1.18873e-54
-3.62487e-58
1.19262e-52
-4.89309e-56
1.45817e-50
-5.87802e-54
6.4429e-46
-3.49138e-49
5.26414e-43
-2.42654e-45
7.42854e-42
-6.20849e-44
1.02829e-40
-4.66653e-43
5.00801e-39
-5.22585e-42
8.38592e-38
-1.56103e-40
6.32652e-37
-1.95375e-39
2.76995e-36
-1.17554e-38
8.15712e-36
-5.25461e-38
-1.02804e-37
1.78856e-35
-2.51655e-74
1.61369e-73
-4.13388e-75
1.70247e-74
-5.67605e-76
1.54557e-75
-8.02475e-77
1.53501e-76
9.25316e-72
1.4112e-77
2.06845e-68
-5.78538e-76
1.95133e-66
-3.85901e-73
1.56297e-64
-4.76183e-71
1.49655e-62
-4.34054e-69
1.39767e-60
-5.60181e-67
1.31696e-58
-7.49404e-65
1.94721e-56
-1.10338e-62
2.55222e-54
-1.15389e-60
1.64668e-49
-2.72237e-54
1.20999e-45
-2.86855e-49
3.11723e-44
-5.38204e-47
2.453e-43
-6.90368e-46
3.06481e-42
-3.50893e-45
9.79601e-41
-4.44711e-44
1.22466e-39
-1.03639e-42
7.35683e-39
-1.02366e-41
2.97469e-38
-5.01957e-41
-1.26234e-40
6.33793e-38
-8.32779e-75
2.6933e-74
-1.23244e-75
2.62596e-75
-1.58004e-76
2.24209e-76
-2.02834e-77
1.95776e-77
-2.27476e-78
1.45423e-78
1.17098e-76
-4.64088e-77
8.46465e-74
-3.2181e-75
1.18069e-71
-4.42397e-73
1.2078e-69
-5.17137e-71
1.72905e-67
-4.7945e-69
2.5413e-65
-3.87895e-67
4.0787e-63
-3.25261e-65
4.64723e-61
-2.8372e-63
1.18931e-54
-2.52168e-61
1.34528e-49
-1.68664e-57
2.60269e-47
-2.70101e-53
3.26093e-46
-1.39768e-51
1.76597e-45
-5.22338e-51
2.56246e-44
-1.3546e-50
6.27105e-43
-6.83426e-49
6.09298e-42
-1.26642e-46
2.78451e-41
-2.75907e-44
-2.72643e-42
7.88031e-41
-1.40072e-75
3.63807e-98
-1.82675e-76
7.96763e-96
-2.15397e-77
1.50081e-95
-2.41319e-78
1.06515e-89
-2.17714e-79
-3.09058e-82
8.69491e-78
-9.27792e-80
6.50055e-76
-2.41252e-77
1.01732e-73
-4.43014e-75
1.33154e-71
-6.57279e-73
1.36468e-69
-7.57326e-71
1.21258e-67
-7.55395e-69
1.11105e-65
-7.60649e-67
1.05238e-63
-6.99853e-65
1.01457e-61
-6.21439e-63
7.25188e-58
-5.5396e-61
1.23225e-53
-7.01324e-59
5.91643e-52
-9.51379e-57
2.05673e-51
-1.31705e-54
6.13464e-51
-2.86568e-52
4.1815e-49
-6.36215e-50
8.3798e-47
-1.51648e-47
1.93842e-44
-3.65317e-45
-3.52168e-43
2.04233e-42
-1.98244e-99
2.34457e-98
-5.32348e-97
3.58192e-96
-1.34352e-96
8.75774e-96
-1.21205e-90
3.82256e-90
8.43293e-83
-1.24235e-84
1.49212e-80
-5.57015e-82
4.4684e-78
-1.49594e-79
9.27335e-76
-2.82645e-77
1.53611e-73
-4.27527e-75
1.95824e-71
-5.68886e-73
2.14735e-69
-6.87392e-71
2.36173e-67
-7.79203e-69
2.35799e-65
-8.83245e-67
2.26299e-63
-1.0547e-64
2.15461e-61
-1.38506e-62
2.93754e-59
-2.32147e-60
4.27427e-57
-4.031e-58
6.34668e-55
-7.19533e-56
1.48244e-52
-1.57897e-53
3.59277e-50
-3.02957e-51
9.22067e-48
-9.116e-49
2.35874e-45
-2.4657e-46
-4.08027e-44
2.45466e-43
-1.36702e-99
1.10767e-98
-2.29492e-97
1.08471e-96
-7.25248e-97
3.84825e-96
-3.97411e-91
8.07995e-91
1.54939e-85
-6.75333e-88
8.09794e-83
-4.39862e-85
2.48372e-80
-1.38302e-82
5.28332e-78
-3.39776e-80
8.89794e-76
-6.97698e-78
1.30722e-73
-1.33622e-75
1.73164e-71
-2.30232e-73
2.13902e-69
-3.74554e-71
2.63142e-67
-6.0564e-69
3.39977e-65
-1.00048e-66
4.82617e-63
-1.86976e-64
8.70974e-61
-4.06005e-62
1.62261e-58
-8.43886e-60
3.10938e-56
-2.00281e-57
7.24985e-54
-4.97016e-55
1.4737e-51
-1.25585e-52
4.72511e-49
-4.35232e-50
1.35087e-46
-1.20275e-47
-8.17891e-45
2.58254e-44
-6.81529e-100
3.40107e-99
-6.58599e-98
1.72921e-97
-2.91379e-97
1.13667e-96
-7.56634e-92
8.04531e-92
7.51995e-89
-1.72816e-92
5.65812e-86
-6.98243e-89
2.02315e-83
-3.22887e-86
5.58062e-81
-1.12643e-83
1.27336e-78
-3.18066e-81
2.68698e-76
-7.92404e-79
5.06526e-74
-2.21328e-76
8.96594e-72
-6.06382e-74
1.57013e-69
-1.54909e-71
2.79944e-67
-4.49652e-69
5.63117e-65
-1.31866e-66
1.31006e-62
-3.38716e-64
2.91167e-60
-1.08388e-61
7.37667e-58
-3.19945e-59
1.94366e-55
-8.32804e-57
5.2511e-53
-3.76969e-54
1.92248e-50
-1.16827e-51
5.6429e-48
-5.13106e-49
-8.70064e-46
4.43484e-45
-2.12454e-100
5.07602e-100
-9.70832e-99
3.62568e-99
-7.71472e-98
1.69967e-97
-6.64181e-93
1.27984e-92
9.20008e-93
2.88213e-93
7.78181e-90
-2.99666e-93
4.0711e-87
-2.2414e-90
1.58875e-84
-1.07831e-87
4.97001e-82
-4.28839e-85
1.36141e-79
-1.55383e-82
4.15385e-77
-7.43837e-80
1.23567e-74
-3.16173e-77
3.4118e-72
-1.38136e-74
1.06648e-69
-7.16912e-72
3.35396e-67
-2.77835e-69
9.21186e-65
-1.46002e-66
3.14511e-62
-5.48758e-64
9.86904e-60
-2.15503e-61
2.72878e-57
-1.05146e-58
1.311e-54
-3.77946e-56
4.29878e-52